/*--------------------------------*- C++ -*----------------------------------*\
| =========                 |                                                 |
| \\      /  F ield         | OpenFOAM: The Open Source CFD Toolbox           |
|  \\    /   O peration     | Version:  2012                                  |
|   \\  /    A nd           | Website:  www.openfoam.com                      |
|    \\/     M anipulation  |                                                 |
\*---------------------------------------------------------------------------*/
FoamFile
{
    version     2.0;
    format      ascii;
    class       volScalarField;
    location    "0.44";
    object      maxKappa;
}
// * * * * * * * * * * * * * * * * * * * * * * * * * * * * * * * * * * * * * //

dimensions      [0 0 0 0 0 0 0];


internalField   nonuniform List<scalar> 
2268
(
1.57477e-06
3.07087e-06
4.49507e-06
5.90388e-06
7.33819e-06
8.76474e-06
9.99122e-06
1.11824e-05
1.22749e-05
1.3163e-05
1.39844e-05
1.46825e-05
1.51875e-05
1.53781e-05
1.53781e-05
1.5304e-05
1.50054e-05
1.44043e-05
1.34469e-05
1.20328e-05
1.00078e-05
7.46422e-06
4.42301e-06
1.91811e-06
3.2333e-06
4.60561e-06
5.99494e-06
7.41244e-06
8.81667e-06
1.00352e-05
1.1232e-05
1.23188e-05
1.31979e-05
1.405e-05
1.47287e-05
1.51907e-05
1.54307e-05
1.54307e-05
1.54044e-05
1.51111e-05
1.44928e-05
1.34897e-05
1.20452e-05
1.00085e-05
7.48236e-06
4.67335e-06
2.43675e-06
3.55367e-06
4.83129e-06
6.17956e-06
7.56606e-06
8.92876e-06
1.01345e-05
1.13428e-05
1.24181e-05
1.33113e-05
1.41691e-05
1.48252e-05
1.52712e-05
1.5558e-05
1.56061e-05
1.56061e-05
1.53533e-05
1.47905e-05
1.39175e-05
1.26789e-05
1.09076e-05
8.65353e-06
6.15937e-06
3.01533e-06
3.97042e-06
5.13505e-06
6.43004e-06
7.77591e-06
9.082e-06
1.02694e-05
1.14849e-05
1.25384e-05
1.34491e-05
1.43007e-05
1.49316e-05
1.54003e-05
1.5699e-05
1.57706e-05
1.57706e-05
1.554e-05
1.49805e-05
1.40894e-05
1.29364e-05
1.14075e-05
9.81934e-06
8.15275e-06
3.6659e-06
4.48865e-06
5.53267e-06
6.76374e-06
8.06439e-06
9.30906e-06
1.04812e-05
1.16996e-05
1.27239e-05
1.36613e-05
1.4512e-05
1.5135e-05
1.56261e-05
1.59375e-05
1.60444e-05
1.60444e-05
1.59061e-05
1.54925e-05
1.48036e-05
1.38786e-05
1.2609e-05
1.12318e-05
9.70085e-06
4.32418e-06
5.0405e-06
5.97109e-06
7.14043e-06
8.39173e-06
9.57503e-06
1.07327e-05
1.19312e-05
1.29137e-05
1.38754e-05
1.4731e-05
1.53304e-05
1.58466e-05
1.61804e-05
1.63102e-05
1.63102e-05
1.62043e-05
1.58482e-05
1.52163e-05
1.44521e-05
1.34734e-05
1.2959e-05
1.27279e-05
5.02459e-06
5.65191e-06
6.48696e-06
7.59265e-06
8.79022e-06
9.9191e-06
1.10671e-05
1.22336e-05
1.31857e-05
1.41963e-05
1.50491e-05
1.56587e-05
1.61939e-05
1.653e-05
1.66745e-05
1.66745e-05
1.66535e-05
1.64579e-05
1.60862e-05
1.5649e-05
1.50155e-05
1.47845e-05
1.45158e-05
5.71867e-06
6.27463e-06
7.02813e-06
8.07427e-06
9.21692e-06
1.02942e-05
1.1426e-05
1.25434e-05
1.34766e-05
1.45259e-05
1.5349e-05
1.5966e-05
1.65273e-05
1.68758e-05
1.70668e-05
1.7091e-05
1.7091e-05
1.69873e-05
1.6691e-05
1.64837e-05
1.69616e-05
1.90936e-05
1.90936e-05
9.37086e-05
9.37086e-05
8.15952e-05
5.10847e-05
5.50733e-05
5.50733e-05
0.000106983
0.000217778
0.000375104
0.000613791
0.000987148
0.00159448
0.00227937
0.00276878
0.00297052
0.00297052
0.00288952
0.00282932
0.00260531
9.13313e-05
9.13313e-05
7.57206e-05
5.37718e-05
6.24278e-05
6.24278e-05
0.000117078
0.000229737
0.000390402
0.000631756
0.00100057
0.00153299
0.0020735
0.00243648
0.00255215
0.00255215
0.00243011
0.00234732
0.0021031
9.72176e-05
0.000107201
0.000107201
6.68132e-05
6.68132e-05
6.12378e-05
0.000114996
0.000219255
0.000376351
0.000614099
0.000969193
0.00141302
0.00182168
0.00209108
0.00216513
0.00216513
0.00200775
0.00220037
0.00220037
9.64947e-05
0.000107054
0.000107054
7.03274e-05
7.96305e-05
7.96305e-05
0.000135554
0.000238214
0.000390514
0.000613138
0.000922846
0.00125666
0.00154284
0.00173097
0.00177986
0.00177986
0.00155172
0.00176796
0.00176796
0.000105764
0.0001571
0.0001571
0.000106815
0.000105154
9.0732e-05
0.000143119
0.000232096
0.000376494
0.00058167
0.000864879
0.00112846
0.00128967
0.00133587
0.00133596
0.00133596
0.00116928
0.00110599
0.00101564
0.000137952
0.000169048
0.000169048
0.0001382
0.000133407
0.000123307
0.000167925
0.000254138
0.000394887
0.000584147
0.000833242
0.00104187
0.00108589
0.00108589
0.000952694
0.00102687
0.00126356
0.00126356
0.00111464
0.000167197
0.000243644
0.000243644
0.000194044
0.000188561
0.000155225
0.000186194
0.000257706
0.000387854
0.000555951
0.000782067
0.000972542
0.000972542
0.000956685
0.000635703
0.000922835
0.00131088
0.00131088
0.00111418
0.000176553
0.000235728
0.000305916
0.000305916
0.000239388
0.000205197
0.000212471
0.000281632
0.000403072
0.000556663
0.00075482
0.000933412
0.000933412
0.000914739
0.000617015
0.000852163
0.00139832
0.00139832
0.00114303
9.41787e-06
9.99674e-06
1.04421e-05
1.14258e-05
1.25717e-05
1.37178e-05
1.46164e-05
1.59062e-05
1.64405e-05
1.72621e-05
1.76758e-05
1.78076e-05
1.84593e-05
1.82854e-05
1.86956e-05
1.84209e-05
1.89251e-05
1.84817e-05
1.92494e-05
2.02372e-05
2.27998e-05
2.83253e-05
3.1117e-05
5.11757e-05
5.36695e-05
5.44509e-05
5.80072e-05
6.15783e-05
6.45474e-05
6.49669e-05
6.72981e-05
6.39044e-05
6.14046e-05
5.54962e-05
5.12368e-05
4.64736e-05
4.0885e-05
3.61597e-05
2.92683e-05
2.14303e-05
1.97311e-05
2.04242e-05
2.04788e-05
2.24022e-05
2.54463e-05
3.1117e-05
0.000197695
0.000199358
0.000205396
0.000215142
0.000225047
0.000234835
0.00024627
0.000256683
0.000262686
0.000267987
0.000267112
0.000257875
0.000266824
0.000265073
0.000235142
0.000181099
6.72828e-05
4.78802e-05
3.70848e-05
2.24539e-05
2.39687e-05
2.66334e-05
2.89552e-05
0.000239484
0.000236323
0.000240295
0.000243898
0.000250779
0.000260238
0.000269435
0.000276811
0.00028337
0.000289447
0.000290597
0.000307186
0.000389864
0.000427455
0.000428396
0.000428396
0.000420413
0.000340131
0.000235186
5.92718e-05
5.24384e-05
3.97072e-05
2.76156e-05
0.000249988
0.000247169
0.000246095
0.000245876
0.000244516
0.000246108
0.00024881
0.000247408
0.000246885
0.00024499
0.000244849
0.000244555
0.000291371
0.00031975
0.000351123
0.000333467
0.00043879
0.00043879
0.000443817
0.000434284
0.00035749
0.000232062
6.22347e-05
0.000255501
0.000254329
0.000251157
0.00024988
0.000243943
0.0002378
0.00022893
0.00022201
0.000212585
0.000212394
0.000213813
0.000227297
0.00023408
0.000240521
0.000254214
0.000277181
0.000356515
0.000403275
0.000464295
0.000469471
0.000464269
0.000478381
0.00045659
0.000262999
0.000262067
0.000258525
0.000257002
0.00025148
0.000246449
0.000238791
0.000235263
0.000228867
0.000231209
0.000235067
0.000243499
0.00024649
0.000247324
0.000264448
0.000282519
0.000318298
0.000396878
0.000467751
0.000504142
0.000526502
0.00053719
0.000542415
0.000270603
0.000269362
0.000266664
0.000265088
0.000260818
0.000257652
0.000251595
0.000250583
0.00024551
0.000247684
0.000250081
0.000255128
0.00024792
0.000250789
0.000237864
0.00026463
0.000268444
0.000316901
0.000385411
0.000474158
0.00056978
0.000601533
0.00060817
0.000279635
0.000278412
0.000276885
0.000275746
0.000272369
0.000270674
0.000265607
0.000265308
0.000260863
0.000261222
0.000262033
0.000264156
0.000259942
0.000260998
0.000253467
0.00026027
0.000256738
0.000267841
0.000305171
0.000357814
0.000462023
0.000559276
0.00060817
0.000289659
0.000288903
0.000287759
0.000287119
0.000284084
0.000283593
0.000279255
0.000279852
0.000275925
0.00027605
0.000275283
0.000278051
0.000274625
0.000278023
0.000274408
0.000278172
0.000278116
0.000281187
0.000290374
0.00030325
0.000347779
0.000433636
0.000510714
0.000301228
0.00030079
0.000299867
0.000299495
0.000296852
0.000297077
0.000293588
0.000294379
0.000291911
0.000292073
0.00029203
0.000295207
0.000294961
0.000299746
0.000298471
0.000303574
0.000302655
0.000306374
0.000310123
0.000315536
0.000319849
0.000338209
0.000365156
0.000313151
0.000312877
0.000312135
0.000312156
0.000309976
0.000310894
0.000308196
0.000309496
0.000308076
0.000309303
0.000309443
0.000313174
0.000313525
0.000318451
0.000318753
0.000323511
0.000324382
0.000328699
0.000333613
0.000340646
0.000341575
0.000352447
0.000343111
0.000326487
0.000326323
0.000325703
0.000326117
0.000324405
0.000325738
0.000323774
0.000325158
0.000324743
0.000326088
0.000326743
0.00032983
0.000330544
0.000335061
0.000335854
0.000340881
0.000341941
0.000347165
0.000351933
0.000357727
0.000361225
0.000373654
0.000368046
0.000340243
0.000340233
0.000339856
0.000340593
0.000339248
0.000340931
0.000339518
0.000341093
0.000341124
0.000342823
0.000343661
0.000346909
0.000348001
0.000352255
0.000353875
0.000358668
0.000361067
0.00036693
0.000372063
0.000378393
0.000384268
0.000395421
0.000393751
0.000354943
0.000355093
0.000354932
0.000355888
0.000354837
0.000356599
0.000355728
0.00035734
0.00035794
0.000359781
0.000361162
0.000364277
0.000365904
0.000370334
0.000372597
0.000378138
0.000381524
0.000388407
0.00039426
0.000401406
0.000409406
0.000419302
0.000421733
0.000370261
0.000370553
0.000370361
0.000371543
0.00037068
0.000372586
0.000372124
0.000373922
0.000374923
0.000377084
0.000378868
0.000382234
0.000384532
0.000389195
0.000392516
0.00039848
0.000403179
0.00041075
0.000417607
0.000425925
0.000435837
0.000445319
0.00045293
0.000386397
0.000386757
0.000386567
0.000387859
0.000387241
0.0003892
0.000389199
0.000391111
0.000392485
0.000394749
0.000397045
0.000400632
0.000403607
0.00040869
0.000412829
0.000419483
0.000425263
0.000433694
0.000441808
0.000451518
0.000463136
0.000473228
0.000485887
0.000402859
0.000403291
0.000403124
0.000404525
0.000404104
0.000406128
0.000406448
0.000408546
0.000410249
0.000412796
0.000415529
0.000419404
0.000422971
0.0004284
0.000433384
0.000440617
0.00044752
0.000456824
0.00046631
0.000477592
0.000490952
0.00050288
0.000520415
0.000420373
0.000420864
0.000420615
0.000422047
0.000421757
0.000423775
0.000424348
0.000426526
0.000428514
0.000431289
0.000434429
0.000438582
0.000442683
0.000448585
0.000454283
0.000462245
0.000470124
0.000480459
0.000491324
0.000504243
0.000519329
0.000533784
0.000555681
0.000438133
0.000438656
0.000438319
0.000439731
0.000439558
0.000441581
0.000442373
0.00044469
0.000446935
0.000449986
0.000453451
0.000457931
0.000462482
0.000468872
0.00047514
0.000483733
0.000492404
0.000503668
0.000515735
0.000530237
0.000547215
0.000564729
0.000590642
0.000456716
0.000457254
0.000456855
0.000458201
0.000458149
0.000460097
0.00046104
0.000463427
0.000465933
0.000469209
0.000472978
0.000477768
0.000482663
0.000489542
0.000496121
0.000505326
0.000514532
0.000526643
0.000539769
0.000555825
0.000574741
0.00059526
0.000624795
0.000475432
0.00047599
0.000475528
0.000476793
0.000476883
0.000478723
0.00047983
0.00048222
0.000484973
0.000488344
0.000492398
0.000497361
0.000502526
0.000509747
0.00051649
0.000526176
0.00053577
0.00054863
0.000562736
0.000580241
0.000600898
0.00062424
0.000657022
0.000494459
0.000494997
0.000494515
0.00049566
0.000495896
0.000497595
0.000498893
0.000501202
0.000504196
0.000507503
0.000511877
0.000516857
0.000522326
0.000529817
0.000536656
0.000546824
0.000556672
0.0005703
0.000585143
0.000603882
0.000625949
0.00065182
0.000687098
0.000513166
0.000513607
0.000513256
0.000514283
0.000514694
0.000516266
0.000517742
0.00051991
0.000523086
0.000526216
0.000530873
0.000535735
0.000541489
0.000549136
0.000555974
0.000566616
0.000576524
0.000591003
0.000606018
0.000625957
0.000648702
0.000679895
0.000713418
0.000531226
0.000531476
0.000531391
0.000532242
0.000532839
0.000534336
0.00053603
0.000537948
0.000541182
0.000544018
0.000548871
0.000553443
0.000559419
0.000566996
0.000573744
0.000584633
0.000594322
0.000609269
0.000623598
0.000644536
0.000670072
0.000702863
0.00073426
0.00054824
0.000548281
0.000548514
0.000549185
0.000550012
0.000551491
0.000553469
0.000555295
0.000558613
0.00056112
0.000566157
0.000570373
0.00057661
0.00058385
0.000590662
0.000601255
0.000610627
0.000625078
0.000638945
0.000660251
0.000686452
0.000720832
0.000751211
0.000563777
0.000563685
0.000564132
0.000564673
0.000565705
0.00056713
0.000569307
0.000571178
0.000574726
0.000577034
0.00058221
0.000585935
0.000592362
0.000598873
0.000605672
0.000615224
0.000624165
0.000637007
0.000653222
0.000674026
0.000700805
0.000736305
0.000761255
0.000577622
0.000577497
0.000578056
0.000578583
0.000579833
0.000581289
0.000583687
0.000585687
0.000589579
0.000592039
0.000597592
0.000600969
0.000607552
0.000612963
0.000619707
0.000627812
0.000636132
0.000646483
0.000660391
0.00067954
0.000705299
0.000740575
0.000764582
0.000589696
0.00058958
0.000590195
0.00059077
0.000592219
0.000593736
0.000596386
0.000598587
0.000602809
0.000605504
0.000611454
0.000614685
0.000621507
0.000625789
0.000632484
0.000638641
0.000645799
0.000654675
0.000667731
0.00068429
0.000707856
0.000742232
0.000764582
0.000599954
0.000599858
0.000600521
0.000601156
0.000602814
0.000604434
0.000607414
0.000609886
0.000614523
0.00061757
0.000623897
0.00062722
0.000634417
0.000638011
0.000644691
0.000648838
0.000654549
0.000658561
0.000666774
0.000678145
0.000697188
0.000727241
0.000757513
0.000608446
0.000608366
0.000609083
0.000609772
0.000611657
0.000613391
0.00061676
0.000619519
0.000624624
0.000628076
0.000634814
0.000638401
0.000645856
0.000648918
0.000655473
0.000657841
0.000662318
0.00066347
0.000667568
0.000674394
0.000687165
0.000710692
0.000739644
0.000615387
0.0006153
0.000616053
0.000616764
0.000618873
0.0006207
0.000624476
0.000627476
0.000633069
0.000636906
0.000644096
0.000648061
0.000655827
0.000658762
0.000665363
0.000666477
0.000670016
0.000668266
0.000667512
0.000666357
0.000674428
0.000683277
0.000712264
0.000620845
0.000620722
0.000621502
0.000622215
0.000624534
0.000626426
0.000630583
0.000633763
0.000639858
0.00064402
0.000651705
0.000655991
0.000664075
0.000667002
0.000673622
0.000673687
0.000676223
0.000671671
0.000668857
0.000663442
0.000661735
0.000660245
0.000680465
0.000625194
0.000625025
0.000625821
0.000626516
0.000629011
0.000630937
0.00063542
0.000638734
0.000645273
0.000649642
0.000657766
0.000662257
0.000670653
0.000673539
0.000680203
0.000679492
0.000681385
0.000674209
0.000667546
0.000655804
0.000647248
0.000635168
0.000643872
0.000628439
0.000628222
0.000629022
0.00062967
0.000632286
0.000634212
0.000638933
0.000642714
0.000649147
0.000654888
0.000662031
0.000668177
0.00067514
0.00067909
0.000684424
0.00068282
0.000683991
0.00067982
0.000672121
0.000658628
0.000639403
0.000615645
0.000605523
0.000630993
0.000630762
0.000631576
0.000632173
0.000634851
0.000636744
0.000641596
0.000644924
0.000651962
0.00065676
0.000664999
0.000669473
0.000678103
0.000680411
0.000686904
0.000684412
0.000685016
0.000674391
0.000665148
0.000644666
0.000619086
0.000584054
0.000562364
0.000632667
0.000632423
0.000633229
0.000633746
0.000636411
0.000638744
0.000643078
0.000648193
0.000654014
0.00066067
0.000667327
0.000674043
0.000679717
0.000684268
0.000686904
0.000686384
0.000685541
0.000680003
0.000668468
0.00064873
0.000619244
0.000579071
0.000533311
0.000633937
0.000633654
0.000634424
0.000634879
0.000637528
0.000639212
0.000644031
0.000647589
0.000654031
0.000659222
0.000666547
0.000671261
0.000678917
0.000680651
0.000686785
0.000683216
0.000682954
0.00066916
0.000655906
0.000627503
0.000590392
0.000540211
0.000484216
0.000634326
0.000633986
0.000634685
0.000635246
0.000637601
0.00064072
0.000644657
0.000649677
0.000655179
0.000661488
0.000667685
0.000673823
0.000678711
0.000682296
0.000685583
0.000683122
0.000680635
0.00067266
0.000657628
0.000632577
0.000594388
0.000540168
0.000472536
0.000634581
0.000634187
0.000634802
0.00063504
0.000637601
0.000639115
0.000643791
0.000646563
0.000653322
0.00065694
0.000665177
0.000668398
0.000676354
0.000676817
0.000681933
0.000676505
0.000674601
0.000657664
0.000641022
0.000607695
0.000563698
0.0005007
0.000417743
0.000634581
0.000634187
0.000634802
0.000635042
0.000637424
0.000639798
0.000643316
0.000647847
0.000652767
0.000658367
0.000663722
0.00066891
0.000673681
0.000674992
0.000678012
0.000674357
0.000670152
0.000660005
0.00064183
0.00061172
0.000565726
0.000498663
0.000407475
0.000633882
0.000633436
0.000633962
0.000634023
0.000636257
0.000637337
0.00064156
0.000643742
0.000649853
0.000652666
0.000659979
0.0006621
0.000668928
0.000667932
0.000671781
0.000664727
0.000661404
0.000642579
0.000623657
0.000589166
0.000542058
0.000472567
0.00037667
2.98059e-05
2.50952e-05
2.40745e-05
0.000109346
3.0319e-05
3.02164e-05
3.06848e-05
4.56999e-05
3.0319e-05
3.02164e-05
3.06848e-05
3.32556e-05
2.92348e-05
2.97451e-05
3.02234e-05
3.00388e-05
5.83524e-05
5.55879e-05
4.98302e-05
3.64332e-05
0.000408744
0.000369261
0.000304595
0.00016786
0.000534588
0.000544111
0.000549366
0.000548047
0.000624155
0.000626937
0.000619886
0.0006135
0.000624155
0.000626937
0.00063801
0.000650911
0.000571559
0.000607914
0.00063801
0.000650911
0.000412351
0.000443251
0.000487646
0.000527575
0.000352255
0.000349318
0.000366884
0.00038155
0.000381363
0.00037788
0.000383769
0.000376287
0.000407793
0.00040367
0.000411812
0.00040565
0.000434779
0.000431942
0.000442095
0.000437551
0.00046522
0.000465836
0.000477638
0.000475047
0.000498272
0.000503402
0.000514348
0.000515379
0.000534318
0.000542576
0.000552246
0.000558474
0.000571213
0.000581206
0.000591471
0.000602046
0.000607989
0.000619854
0.000632289
0.000645807
0.000644296
0.000658561
0.000673386
0.000690077
0.000678823
0.000695229
0.000712425
0.000731925
0.000710653
0.000728775
0.000748006
0.000769735
0.000738473
0.000758137
0.000779506
0.000804526
0.000761568
0.000783583
0.00080819
0.000837506
0.000781938
0.00080712
0.000835374
0.000867984
0.000795818
0.000824303
0.000855563
0.000890276
0.000802496
0.000833424
0.000866622
0.000902787
0.000802496
0.000833424
0.000866622
0.000902787
0.000796412
0.000828663
0.000863452
0.000901201
0.00077752
0.000811411
0.000848359
0.000888129
0.000747208
0.000782045
0.000820422
0.000862206
0.000709406
0.000743643
0.000781517
0.000824953
0.000664266
0.000696461
0.00073213
0.000775456
0.000615404
0.000644071
0.000677956
0.000721155
0.000559561
0.000581607
0.000613512
0.000657206
0.000509143
0.000522932
0.0005525
0.00059833
0.000454864
0.000458646
0.000482557
0.000527289
0.000405114
0.00040016
0.000418446
0.000461127
0.000350368
0.000337768
0.00035375
0.000396845
0.00029106
0.000266157
0.00027461
0.00032104
0.000253627
0.000228415
0.000254137
0.00032104
0.000504329
0.000619431
0.000619431
0.000462305
0.000308067
0.000262973
0.000258192
0.000299623
0.00039873
0.000521328
0.000691323
0.000871234
0.000871234
0.000855121
0.000762949
0.000815509
0.00140677
0.00147118
0.00120447
0.000169494
0.000292363
0.000431298
0.000427378
0.000339753
0.000328234
0.000320104
0.000361102
0.000413734
0.000498945
0.000611262
0.000759198
0.000807117
0.000784494
0.000759075
0.000770144
0.00130324
0.00147118
0.00130511
4.27414e-05
4.97519e-05
0.000297746
0.000505194
0.000505194
0.000427685
0.000450221
0.000397331
0.000449199
0.000490468
0.00056044
0.000661018
0.000719362
0.000686284
0.000704856
0.000679291
0.001189
0.00138829
0.00123928
3.27901e-05
3.27901e-05
6.0728e-05
0.000407545
0.000455799
0.000462749
0.000550393
0.000550393
0.000606501
0.000498482
0.000539089
0.000569485
0.000637165
0.000604782
0.0006511
0.000565196
0.00106888
0.00128727
0.000899543
3.18907e-05
3.18907e-05
3.74662e-05
0.000138089
0.000459788
0.000499052
0.000559595
0.00070685
0.000738178
0.000738178
0.000733149
0.000677222
0.000777227
0.00065292
0.000784192
0.000581551
0.00105537
0.0011951
0.000589545
7.10722e-05
6.0762e-05
3.4395e-05
3.76124e-05
0.000114832
0.000445647
0.000668617
0.000685036
0.000783495
0.000881387
0.000921307
0.000965885
0.000965885
0.000952036
0.000976282
0.000815231
0.00103374
0.00107919
0.000401698
0.000488468
0.000402206
0.000118332
7.17124e-05
5.46345e-05
7.1435e-05
0.000249629
0.000456973
0.00068442
0.000807336
0.000901117
0.000992119
0.00107879
0.00114104
0.00118227
0.0011915
0.0011915
0.000880802
0.000188913
0.000604137
0.000620195
0.000620195
0.000520713
0.000336374
9.09539e-05
8.13452e-05
7.48399e-05
0.000102237
0.000130652
0.000157991
0.000187822
0.0002502
0.000408885
0.000459729
0.000558836
0.000549579
0.000259316
5.73581e-05
0.000660899
0.000655377
0.000697714
0.000722059
0.000722059
0.000687963
0.000585372
0.000464341
0.000393466
0.000376298
0.000330656
0.000272505
0.000198775
0.000126378
0.000108055
8.93251e-05
8.2523e-05
4.77594e-05
2.65222e-05
0.000730598
0.000730598
0.000682979
0.000680982
0.000825782
0.000892864
0.000934709
0.000934709
0.000938445
0.000958078
0.000986762
0.000983675
0.000968611
0.000867192
0.000669025
0.000305055
7.51615e-05
4.08297e-05
2.70461e-05
0.000600875
0.000614648
0.000614648
0.000608562
0.00060114
0.000661703
0.00079562
0.000993721
0.00113307
0.00121556
0.00125947
0.0012858
0.0012858
0.00127452
0.00118649
0.000895244
0.00037001
6.6366e-05
7.05233e-05
0.000441081
0.00047802
0.000492291
0.000479548
0.000456282
0.000438061
0.000498072
0.000546423
0.000636178
0.000681559
0.000780447
0.000795577
0.00080601
0.000733131
0.00082926
0.000776685
0.000582377
9.68321e-05
8.81693e-05
0.000395353
0.000401835
0.000406665
0.000406665
0.000396378
0.000345588
0.000262997
0.000196575
0.000349598
0.000585924
0.00101566
0.00137306
0.00137306
0.00130518
0.000992546
0.000742562
0.000378363
5.69795e-05
8.81693e-05
0.000437389
0.000437389
0.000428173
0.000418464
0.000399702
0.000368051
0.000334043
0.000315327
0.00053293
0.00102965
0.00151638
0.00151638
0.00145281
0.00113853
0.000794164
0.000426607
0.000125134
4.23604e-05
7.79386e-05
0.00047053
0.00047053
0.000469376
0.000464052
0.000450503
0.000427419
0.000453258
0.000514628
0.000761357
0.00112545
0.00120748
0.0012574
0.00090793
0.000709443
0.000404452
0.000138926
3.62858e-05
4.92621e-05
0.000216428
0.000517539
0.000521359
0.000527252
0.000530194
0.000537535
0.00055337
0.000606658
0.000735555
0.000979514
0.001229
0.00133547
0.00108212
0.000816187
0.000607048
0.000179413
6.02656e-05
3.26221e-05
0.000279508
0.000540703
0.00056455
0.000579985
0.000599787
0.00062106
0.000651268
0.000703641
0.000792156
0.00094233
0.0012078
0.00149521
0.0016272
0.00121681
0.000908913
0.000908913
0.000578056
0.000239708
5.46029e-05
0.000315484
0.000540703
0.000617807
0.000644735
0.000679978
0.000723383
0.000784454
0.000868004
0.000976771
0.00113419
0.00137689
0.00174885
0.00180939
0.00178547
0.000891539
0.000802137
0.000802137
0.000569713
0.000225955
0.000226287
0.000475651
0.000671867
0.000713778
0.000770622
0.000847624
0.000943416
0.00105644
0.00118889
0.00135112
0.001538
0.00182386
0.00201511
0.00201511
0.00173569
0.000805864
0.00072451
0.00072451
0.000431021
0.000275174
0.000393451
0.00073244
0.000792936
0.000874084
0.000975765
0.00108966
0.00121568
0.00137116
0.00155804
0.00176147
0.00198049
0.00213188
0.00213188
0.00199925
0.00151976
0.000718109
0.000540084
0.000408009
0.000288196
0.000362811
0.00079652
0.000873312
0.000968565
0.00107625
0.00118213
0.00130107
0.00144852
0.00163261
0.00184717
0.00207503
0.00224047
0.00224047
0.0021883
0.00187394
0.00120276
0.00054295
0.000315423
0.000177828
0.000318323
0.00085807
0.000946268
0.00104841
0.00114942
0.00123822
0.00132814
0.00143569
0.00160142
0.00181449
0.00205039
0.00224837
0.0022797
0.0022797
0.00211368
0.00174911
0.00101087
0.000426176
0.000212747
0.000230864
0.00091237
0.0010101
0.00111333
0.00120303
0.0012714
0.00132294
0.00138324
0.00150899
0.0017116
0.00195241
0.0021969
0.00227785
0.00227785
0.00217813
0.00187754
0.00135708
0.000597905
0.000227501
0.00020804
0.000965569
0.00107311
0.0011776
0.00125901
0.00130686
0.00133597
0.00138201
0.00148134
0.00164141
0.00185194
0.00211554
0.00228752
0.00228752
0.00228157
0.00206821
0.00167318
0.000834016
0.000270508
0.000317661
0.00101464
0.0011296
0.00123297
0.00130146
0.00132496
0.00133549
0.00139427
0.00150162
0.00163803
0.0018131
0.00205738
0.00224703
0.00229563
0.00229563
0.00215665
0.00187044
0.00117718
0.000374178
0.000396554
0.00105948
0.0011784
0.00127883
0.00133911
0.00133911
0.00134816
0.00144292
0.00157629
0.00169739
0.00182771
0.00206175
0.00227951
0.0023536
0.0023536
0.00223025
0.00196253
0.00132466
0.00049507
0.000489632
0.00109693
0.00122106
0.00133206
0.00138684
0.00138684
0.00137689
0.00150348
0.00166899
0.00180021
0.00190391
0.00210701
0.00232464
0.00241542
0.00241542
0.00231468
0.00205618
0.00139734
0.000602154
0.000594253
0.00112533
0.0012655
0.00138722
0.00140556
0.00140556
0.00134369
0.00147815
0.0016603
0.00183257
0.0019753
0.00219735
0.00245198
0.0025361
0.0025361
0.00240827
0.002154
0.00142082
0.000527456
0.000691842
0.00114526
0.00129499
0.00139643
0.00139643
0.00135642
0.00127859
0.00135897
0.00151019
0.00177066
0.0020447
0.00233858
0.00258023
0.00269335
0.00269335
0.0025513
0.00221085
0.00137754
0.000564132
0.000754807
0.00114361
0.00129572
0.00137836
0.00137836
0.00131224
0.00119822
0.00109565
0.00117715
0.0016337
0.00215318
0.00259227
0.00284583
0.00286813
0.00286813
0.00266787
0.00224181
0.00128873
0.000641402
0.000868646
0.00113554
0.0012864
0.00133531
0.00133531
0.00119848
0.000998552
0.000679401
0.000980313
0.00182351
0.00244255
0.00285261
0.00302224
0.00307279
0.00307279
0.0028649
0.00232517
0.00122202
0.000482158
0.000980842
0.00109606
0.0012252
0.0012252
0.00122045
0.00105369
0.000902935
0.00107124
0.00172787
0.00242686
0.0028111
0.00309481
0.00324358
0.00324358
0.00323426
0.00291416
0.00217991
0.00114919
0.00085813
0.00104959
0.00104684
0.00114462
0.00114462
0.00108781
0.00100077
0.00131754
0.00183747
0.0024176
0.0028319
0.00309892
0.00328938
0.00331425
0.00331425
0.00313672
0.00263496
0.00154832
0.000739857
0.000897425
0.00104959
0.000958998
0.00102252
0.00102252
0.000934638
0.00113103
0.00159968
0.00219777
0.00268255
0.0030101
0.00323727
0.0033002
0.0033002
0.00315492
0.00282938
0.00204594
0.000940668
0.000549182
0.000577391
0.00074244
0.000899676
0.000938834
0.000938834
0.000902242
0.00129665
0.00181098
0.00232995
0.00278047
0.00307865
0.00321627
0.00321627
0.00314669
0.00281816
0.0020908
0.00129116
0.000890865
0.000586031
0.000444546
0.000655131
0.000798221
0.000818907
0.000818907
0.000887815
0.00139533
0.00193138
0.00241451
0.00280037
0.00303271
0.00308662
0.00308662
0.00278066
0.00211673
0.00107765
0.000700326
0.000755712
0.00058763
0.000588477
0.000933371
0.000774285
0.000809965
0.000809965
0.00100747
0.0015662
0.00205275
0.00244591
0.00273833
0.00288426
0.00288426
0.00278311
0.00212566
0.00109142
0.000526925
0.000559016
0.000831509
0.000831509
0.000888351
0.00149974
0.000671153
0.000737244
0.000740178
0.00104875
0.00161436
0.00202077
0.00231971
0.00251926
0.00254548
0.00254548
0.00216411
0.00117431
0.000306687
0.000469332
0.000593801
0.000805589
0.00104288
0.0016473
0.00214244
0.000675692
0.000782588
0.000819627
0.00113697
0.00171949
0.00207671
0.00221914
0.00225553
0.00225553
0.00207092
0.00137468
0.000494002
0.000362865
0.000495442
0.000582868
0.000630541
0.000944461
0.00196547
0.00234062
0.000578554
0.000718239
0.00082525
0.00111641
0.00163584
0.00197719
0.00203866
0.00203866
0.0019261
0.00155412
0.000887671
0.000372824
0.00037509
0.00047072
0.000511909
0.000528281
0.000871572
0.00191411
0.00246779
0.000618865
0.000881412
0.00105905
0.00126843
0.00164824
0.0019456
0.00195922
0.00195922
0.00173603
0.00129017
0.000722325
0.000277413
0.000348223
0.000583999
0.000681437
0.000559065
0.000911378
0.00196674
0.00266661
0.000659689
0.000871046
0.00100609
0.00112214
0.00140346
0.00171529
0.0017583
0.0017583
0.00155675
0.00119554
0.000768033
0.000462631
0.000520721
0.00075889
0.00075889
0.00072697
0.000920868
0.00220266
0.00266661
)
;

boundaryField
{
    leftWall
    {
        type            calculated;
        value           uniform 0;
    }
    rightWall
    {
        type            calculated;
        value           uniform 0;
    }
    lowerWall
    {
        type            calculated;
        value           uniform 0;
    }
    atmosphere
    {
        type            calculated;
        value           uniform 0;
    }
    defaultFaces
    {
        type            empty;
    }
}


// ************************************************************************* //
