/*--------------------------------*- C++ -*----------------------------------*\
| =========                 |                                                 |
| \\      /  F ield         | OpenFOAM: The Open Source CFD Toolbox           |
|  \\    /   O peration     | Version:  2012                                  |
|   \\  /    A nd           | Website:  www.openfoam.com                      |
|    \\/     M anipulation  |                                                 |
\*---------------------------------------------------------------------------*/
FoamFile
{
    version     2.0;
    format      ascii;
    class       surfaceScalarField;
    location    "0.44";
    object      phi;
}
// * * * * * * * * * * * * * * * * * * * * * * * * * * * * * * * * * * * * * //

dimensions      [0 3 -1 0 0 0 0];
oriented        oriented;


internalField   nonuniform List<scalar> 
4432
(
3.00799e-06
-3.00799e-06
6.0512e-06
-3.04321e-06
8.89599e-06
-2.84479e-06
1.17003e-05
-2.80429e-06
1.45515e-05
-2.85125e-06
1.73908e-05
-2.8393e-06
1.98296e-05
-2.43875e-06
2.22e-05
-2.37042e-06
2.43756e-05
-2.17559e-06
2.61437e-05
-1.76815e-06
2.77849e-05
-1.64115e-06
2.91773e-05
-1.3924e-06
3.01944e-05
-1.01716e-06
3.05836e-05
-3.89146e-07
3.0454e-05
1.29575e-07
2.98735e-05
5.8044e-07
2.87004e-05
1.17318e-06
2.68076e-05
1.8927e-06
2.40153e-05
2.79235e-06
1.99822e-05
4.03303e-06
1.49181e-05
5.06412e-06
8.54313e-06
6.37493e-06
8.54289e-06
2.99858e-06
-6.00657e-06
6.04971e-06
-6.09433e-06
8.91758e-06
-5.71266e-06
1.17321e-05
-5.61877e-06
1.45777e-05
-5.69687e-06
1.74056e-05
-5.66725e-06
1.98545e-05
-4.88759e-06
2.22487e-05
-4.76462e-06
2.44292e-05
-4.35614e-06
2.61905e-05
-3.5294e-06
2.78986e-05
-3.34925e-06
2.92603e-05
-2.7541e-06
3.01976e-05
-1.95455e-06
3.06871e-05
-8.78624e-07
3.06501e-05
1.66584e-07
3.00724e-05
1.15817e-06
2.88436e-05
2.40193e-06
2.6814e-05
3.92232e-06
2.38433e-05
5.76303e-06
1.956e-05
8.31625e-06
1.39935e-05
1.06306e-05
6.88851e-06
1.34799e-05
1.54312e-05
2.9918e-06
-8.99837e-06
6.06302e-06
-9.16555e-06
8.96325e-06
-8.61289e-06
1.17932e-05
-8.44868e-06
1.46332e-05
-8.5369e-06
1.74424e-05
-8.47644e-06
1.99146e-05
-7.35976e-06
2.23583e-05
-7.20836e-06
2.45488e-05
-6.5466e-06
2.63592e-05
-5.33988e-06
2.80917e-05
-5.08174e-06
2.94251e-05
-4.08753e-06
3.03456e-05
-2.87501e-06
3.09362e-05
-1.46923e-06
3.10506e-05
5.21597e-08
3.05476e-05
1.66122e-06
2.94178e-05
3.53173e-06
2.76205e-05
5.71955e-06
2.50251e-05
8.35844e-06
2.11859e-05
1.21554e-05
1.60095e-05
1.5807e-05
8.57172e-06
2.09177e-05
2.40027e-05
2.99072e-06
-1.19891e-05
6.08708e-06
-1.22619e-05
9.01817e-06
-1.1544e-05
1.18705e-05
-1.1301e-05
1.47068e-05
-1.13732e-05
1.74898e-05
-1.12594e-05
1.99917e-05
-9.86165e-06
2.2489e-05
-9.70569e-06
2.4686e-05
-8.74362e-06
2.65621e-05
-7.21594e-06
2.83041e-05
-6.82379e-06
2.96127e-05
-5.3961e-06
3.05925e-05
-3.85483e-06
3.12133e-05
-2.09e-06
3.13695e-05
-1.04084e-07
3.08892e-05
2.14148e-06
2.97112e-05
4.70976e-06
2.77685e-05
7.66222e-06
2.50536e-05
1.10733e-05
2.11285e-05
1.60805e-05
1.59352e-05
2.10003e-05
8.40525e-06
2.84476e-05
3.2408e-05
2.99722e-06
-1.49863e-05
6.12801e-06
-1.53927e-05
9.08927e-06
-1.45052e-05
1.1972e-05
-1.41837e-05
1.48206e-05
-1.42218e-05
1.75873e-05
-1.40261e-05
2.01364e-05
-1.24108e-05
2.26951e-05
-1.22643e-05
2.48978e-05
-1.09464e-05
2.68682e-05
-9.18633e-06
2.86401e-05
-8.59573e-06
2.99649e-05
-6.72085e-06
3.10144e-05
-4.90437e-06
3.16777e-05
-2.75329e-06
3.19124e-05
-3.38858e-07
3.16055e-05
2.44847e-06
3.06929e-05
5.62229e-06
2.91083e-05
9.24678e-06
2.68231e-05
1.33586e-05
2.33764e-05
1.95272e-05
1.86035e-05
2.57732e-05
1.08117e-05
3.62393e-05
4.32197e-05
3.01936e-06
-1.80057e-05
6.15797e-06
-1.85313e-05
9.15506e-06
-1.75023e-05
1.2081e-05
-1.71097e-05
1.4947e-05
-1.70878e-05
1.77089e-05
-1.6788e-05
2.03154e-05
-1.50173e-05
2.29031e-05
-1.4852e-05
2.51013e-05
-1.31446e-05
2.71682e-05
-1.12532e-05
2.89944e-05
-1.0422e-05
3.0312e-05
-8.03845e-06
3.14338e-05
-6.02618e-06
3.21547e-05
-3.47413e-06
3.24313e-05
-6.1549e-07
3.21657e-05
2.71403e-06
3.13029e-05
6.48508e-06
2.97029e-05
1.08468e-05
2.73774e-05
1.5684e-05
2.3798e-05
2.31065e-05
1.89978e-05
3.05734e-05
1.08843e-05
4.43529e-05
5.41039e-05
3.05859e-06
-2.10643e-05
6.18437e-06
-2.16571e-05
9.23653e-06
-2.05545e-05
1.22182e-05
-2.00913e-05
1.51143e-05
-1.9984e-05
1.78934e-05
-1.95671e-05
2.05751e-05
-1.7699e-05
2.31862e-05
-1.74631e-05
2.54061e-05
-1.53644e-05
2.76243e-05
-1.34714e-05
2.95025e-05
-1.23002e-05
3.08867e-05
-9.42262e-06
3.20783e-05
-7.21783e-06
3.28312e-05
-4.22707e-06
3.31536e-05
-9.37811e-07
3.30482e-05
2.81937e-06
3.24783e-05
7.055e-06
3.13526e-05
1.19725e-05
2.96944e-05
1.73422e-05
2.69189e-05
2.58821e-05
2.30662e-05
3.4426e-05
1.48958e-05
5.25232e-05
6.89994e-05
3.11171e-06
-2.4176e-05
6.21197e-06
-2.47574e-05
9.31345e-06
-2.3656e-05
1.23611e-05
-2.3139e-05
1.5291e-05
-2.29139e-05
1.80955e-05
-2.23715e-05
2.08474e-05
-2.04509e-05
2.346e-05
-2.00757e-05
2.57303e-05
-1.76347e-05
2.80884e-05
-1.58295e-05
2.99818e-05
-1.41936e-05
3.14356e-05
-1.08765e-05
3.27113e-05
-8.4935e-06
3.35099e-05
-5.02569e-06
3.39236e-05
-1.35147e-06
3.38932e-05
2.8497e-06
3.34601e-05
7.48815e-06
3.23948e-05
1.30378e-05
3.08849e-05
1.88521e-05
2.80997e-05
2.86672e-05
2.42865e-05
3.82392e-05
1.60252e-05
6.07846e-05
8.5024e-05
-1.50621e-06
-4.38343e-08
-2.73842e-06
-3.17985e-07
3.83509e-07
-4.67237e-06
7.38045e-07
-1.90554e-06
3.24326e-07
-1.13729e-06
-4.1929e-06
2.96566e-06
-9.74008e-06
3.99546e-06
-2.02396e-05
8.94739e-06
-3.40704e-05
1.22783e-05
-5.63398e-05
2.07165e-05
-8.99197e-05
3.2026e-05
-0.000146552
5.50768e-05
-0.00020934
6.12324e-05
-0.00025686
4.597e-05
-0.000273823
1.54086e-05
-0.000268904
-6.47387e-06
-0.000258543
-1.19139e-05
-0.000241741
-1.83355e-05
-0.000243334
-1.7795e-06
1.8567e-07
-3.23258e-06
-4.15012e-07
-1.49356e-07
-9.30602e-06
1.10598e-06
-4.71185e-06
8.04316e-07
-2.38661e-06
-3.94221e-06
6.16066e-06
-9.4871e-06
7.98866e-06
-2.0096e-05
1.80043e-05
-3.38775e-05
2.45074e-05
-5.5731e-05
4.10171e-05
-8.77016e-05
6.24427e-05
-0.000137067
0.000102886
-0.000187659
0.000110272
-0.000224936
8.16988e-05
-0.000234574
2.34923e-05
-0.000225893
-1.6718e-05
-0.000212361
-2.70096e-05
-0.000154527
-7.76719e-05
-0.00039941
-4.08503e-06
2.72078e-06
-5.22413e-06
-8.25972e-07
-3.63316e-07
-1.57172e-05
1.74928e-06
-8.37539e-06
1.80777e-06
-3.99605e-06
-2.48542e-06
8.90233e-06
-7.64607e-06
1.15977e-05
-1.72751e-05
2.60812e-05
-2.98151e-05
3.54951e-05
-4.97247e-05
5.93738e-05
-7.75694e-05
8.87336e-05
-0.000117806
0.000141568
-0.000159005
0.000149918
-0.000191228
0.000112377
-0.00019831
2.90131e-05
-0.00018566
-3.0938e-05
-0.000152162
-6.20631e-05
-5.57442e-05
-0.000175728
-0.000457027
-3.53245e-06
4.70345e-06
-3.88621e-06
-2.02195e-06
5.81839e-07
-2.17357e-05
3.20738e-06
-1.25518e-05
3.19548e-06
-5.53502e-06
-1.46364e-06
1.201e-05
-6.49648e-06
1.5079e-05
-1.56552e-05
3.3688e-05
-2.66202e-05
4.49079e-05
-4.33325e-05
7.45333e-05
-6.41895e-05
0.000108037
-9.29006e-05
0.000168726
-0.000125533
0.000181001
-0.000155061
0.00014036
-0.000162053
3.44428e-05
-0.000139911
-5.46444e-05
-7.36068e-05
-0.000129931
-1.69115e-06
-0.000249475
-0.000460034
-7.0765e-06
1.02303e-05
-8.71376e-06
-1.93437e-06
-9.29197e-07
-3.10706e-05
4.6132e-06
-1.9645e-05
5.31248e-06
-7.7851e-06
1.15136e-06
1.46198e-05
-3.45763e-06
1.81365e-05
-1.14909e-05
4.01693e-05
-2.05085e-05
5.23733e-05
-3.36599e-05
8.61323e-05
-4.82433e-05
0.000121067
-6.64738e-05
0.000185403
-8.95795e-05
0.000202556
-0.00011396
0.000163193
-0.000119247
3.81683e-05
-9.06593e-05
-8.47913e-05
-3.95554e-05
-0.000182602
2.46569e-06
-0.00029311
-0.000458389
-6.09089e-06
1.47719e-05
-7.24777e-06
-2.32657e-06
1.1694e-07
-3.99855e-05
7.21834e-06
-2.82971e-05
8.02826e-06
-1.01457e-05
3.00368e-06
1.80931e-05
-1.7022e-06
2.1291e-05
-8.92502e-06
4.58404e-05
-1.64955e-05
5.83918e-05
-2.60472e-05
9.41317e-05
-3.46289e-05
0.000128096
-4.31009e-05
0.000192321
-5.40575e-05
0.000211961
-7.06902e-05
0.000178277
-7.86696e-05
4.45906e-05
-5.98383e-05
-0.00010518
-2.58969e-05
-0.000218106
5.00413e-06
-0.00032558
-0.000454186
-1.34989e-05
2.67211e-05
-1.33452e-05
-4.02938e-06
3.24405e-07
-5.51964e-05
1.01859e-05
-3.97086e-05
1.12652e-05
-1.27756e-05
6.41358e-06
2.13936e-05
1.92662e-06
2.42268e-05
-4.50519e-06
5.07206e-05
-1.05547e-05
6.28894e-05
-1.7022e-05
9.90468e-05
-2.03998e-05
0.000129922
-2.09889e-05
0.000191358
-2.14286e-05
0.00021085
-2.83582e-05
0.000183656
-3.78696e-05
5.25462e-05
-3.02219e-05
-0.000114381
-1.09148e-05
-0.000238972
7.1806e-06
-0.000345192
-0.000447792
-1.11503e-06
2.62281e-05
7.10647e-06
-1.38031e-05
1.24693e-05
-6.2106e-05
1.36731e-05
-4.24615e-05
1.55989e-05
-1.62517e-05
9.30719e-06
2.61343e-05
3.83485e-06
2.81482e-05
-1.51739e-06
5.45214e-05
-6.08802e-06
6.59084e-05
-9.65791e-06
0.000101065
-9.27056e-06
0.000127982
-3.90551e-06
0.000184441
3.99838e-06
0.000201396
1.13382e-05
0.000174765
6.37357e-06
5.59595e-05
-1.5106e-06
-0.000108048
-5.85658e-07
-0.000241453
8.44234e-06
-0.000355761
-0.000440131
6.80475e-06
-3.09807e-05
1.34211e-05
-3.13738e-05
2.01603e-05
-3.03951e-05
2.68541e-05
-2.98328e-05
3.32348e-05
-2.92946e-05
3.93358e-05
-2.84725e-05
4.54363e-05
-2.65515e-05
5.11133e-05
-2.57527e-05
5.63096e-05
-2.2831e-05
6.16647e-05
-2.11846e-05
6.57209e-05
-1.82498e-05
6.9424e-05
-1.45795e-05
7.23814e-05
-1.1451e-05
7.43111e-05
-6.95533e-06
7.53017e-05
-2.34213e-06
7.57263e-05
2.42512e-06
7.5409e-05
7.8054e-06
7.57341e-05
1.27126e-05
7.61037e-05
1.84825e-05
7.86678e-05
2.61031e-05
8.24954e-05
3.44115e-05
9.35284e-05
4.97515e-05
7.06316e-05
0.00010792
7.03326e-06
-3.80195e-05
1.36921e-05
-3.80384e-05
2.05979e-05
-3.73063e-05
2.75305e-05
-3.67707e-05
3.41232e-05
-3.58924e-05
4.04566e-05
-3.48107e-05
4.68383e-05
-3.29374e-05
5.27352e-05
-3.16532e-05
5.83909e-05
-2.84895e-05
6.37219e-05
-2.65178e-05
6.80497e-05
-2.25789e-05
7.25553e-05
-1.9086e-05
7.58304e-05
-1.47267e-05
7.83934e-05
-9.51874e-06
8.00645e-05
-4.01334e-06
8.08965e-05
1.59303e-06
8.05613e-05
8.14064e-06
7.9921e-05
1.33529e-05
7.94185e-05
1.8985e-05
8.13559e-05
2.41656e-05
8.51768e-05
3.05906e-05
9.70091e-05
3.79191e-05
5.06777e-05
0.000116962
7.3221e-06
-4.54566e-05
1.40302e-05
-4.48596e-05
2.11373e-05
-4.4527e-05
2.83414e-05
-4.4087e-05
3.51601e-05
-4.28216e-05
4.17729e-05
-4.15325e-05
4.84486e-05
-3.97218e-05
5.46541e-05
-3.79635e-05
6.06729e-05
-3.46136e-05
6.6249e-05
-3.21956e-05
7.14205e-05
-2.7849e-05
7.62738e-05
-2.40289e-05
7.97026e-05
-1.82303e-05
8.32785e-05
-1.31451e-05
8.53633e-05
-6.1314e-06
8.64171e-05
5.20316e-07
8.60361e-05
8.51998e-06
8.59047e-05
1.39203e-05
8.73492e-05
1.75406e-05
9.08518e-05
2.06629e-05
9.58975e-05
2.55449e-05
0.000104886
2.89309e-05
3.67605e-05
0.000118803
6.29501e-06
-5.17691e-05
1.21258e-05
-5.07078e-05
1.82601e-05
-5.06788e-05
2.44682e-05
-5.03127e-05
3.02237e-05
-4.85947e-05
3.59506e-05
-4.72772e-05
4.13218e-05
-4.51108e-05
4.61516e-05
-4.28114e-05
5.05762e-05
-3.90562e-05
5.45826e-05
-3.62205e-05
5.73329e-05
-3.06175e-05
6.02716e-05
-2.69869e-05
6.82206e-05
-2.62055e-05
7.76001e-05
-2.25711e-05
8.29105e-05
-1.15023e-05
8.68541e-05
-3.46663e-06
8.73671e-05
7.94607e-06
8.72735e-05
1.39174e-05
9.03611e-05
1.43795e-05
9.40431e-05
1.69801e-05
9.71507e-05
2.2561e-05
0.00010308
2.30014e-05
2.63836e-05
0.000113459
2.36987e-06
-5.41544e-05
5.0418e-06
-5.33953e-05
7.41733e-06
-5.30699e-05
9.86823e-06
-5.27793e-05
1.23929e-05
-5.11351e-05
1.49251e-05
-4.98253e-05
1.72619e-05
-4.74636e-05
1.97834e-05
-4.53491e-05
2.24625e-05
-4.17516e-05
2.62255e-05
-4.00001e-05
3.10751e-05
-3.54838e-05
3.87455e-05
-3.46743e-05
4.6089e-05
-3.35663e-05
5.54861e-05
-3.19857e-05
6.02691e-05
-1.63035e-05
6.92191e-05
-1.24349e-05
7.82377e-05
-1.07223e-06
7.73828e-05
1.47918e-05
8.29695e-05
8.80991e-06
8.86765e-05
1.12251e-05
9.58625e-05
1.52527e-05
0.00010419
1.45872e-05
1.86717e-05
0.000111901
1.28261e-06
-5.54523e-05
3.03865e-06
-5.51665e-05
4.32371e-06
-5.43703e-05
5.55462e-06
-5.40256e-05
6.93452e-06
-5.25305e-05
8.15375e-06
-5.10602e-05
9.43491e-06
-4.87606e-05
1.10694e-05
-4.69997e-05
1.33717e-05
-4.40702e-05
1.6667e-05
-4.33119e-05
2.29193e-05
-4.1753e-05
3.00774e-05
-4.18495e-05
3.49636e-05
-3.84702e-05
4.01928e-05
-3.72324e-05
4.90528e-05
-2.51817e-05
5.99993e-05
-2.34e-05
7.39037e-05
-1.49959e-05
8.51985e-05
3.47933e-06
8.71144e-05
6.88185e-06
8.25314e-05
1.58082e-05
8.25059e-05
1.53173e-05
9.11439e-05
5.95243e-06
9.00801e-06
0.000100676
1.66281e-06
-5.71301e-05
3.38192e-06
-5.69008e-05
5.01136e-06
-5.60149e-05
6.56454e-06
-5.5594e-05
8.13776e-06
-5.41191e-05
9.92994e-06
-5.28679e-05
1.18597e-05
-5.07059e-05
1.43757e-05
-4.95316e-05
1.73232e-05
-4.70338e-05
2.07278e-05
-4.67328e-05
2.48673e-05
-4.59091e-05
2.92719e-05
-4.6271e-05
3.46048e-05
-4.38204e-05
3.96693e-05
-4.23145e-05
4.98789e-05
-3.54095e-05
5.82235e-05
-3.1763e-05
6.94441e-05
-2.62354e-05
8.83195e-05
-1.54155e-05
0.000102514
-7.33247e-06
0.000108974
9.32798e-06
0.000102283
2.19888e-05
9.43285e-05
1.38934e-05
9.88168e-06
9.34537e-05
1.72218e-06
-5.88673e-05
3.37001e-06
-5.85635e-05
5.17973e-06
-5.78396e-05
6.91941e-06
-5.73488e-05
8.90262e-06
-5.61175e-05
1.1117e-05
-5.50976e-05
1.35328e-05
-5.31373e-05
1.62955e-05
-5.23099e-05
1.93038e-05
-5.0058e-05
2.21082e-05
-4.95534e-05
2.50981e-05
-4.89155e-05
2.77634e-05
-4.89531e-05
3.00026e-05
-4.60768e-05
3.28687e-05
-4.51981e-05
3.74397e-05
-3.99984e-05
4.34853e-05
-3.78269e-05
5.1609e-05
-3.4378e-05
6.35199e-05
-2.73458e-05
8.11047e-05
-2.49373e-05
0.000104961
-1.45488e-05
0.000125306
1.62254e-06
0.000132908
6.26929e-06
1.26644e-05
0.000130103
2.00509e-06
-6.08871e-05
3.99309e-06
-6.05664e-05
6.21167e-06
-6.00731e-05
8.46821e-06
-5.96203e-05
1.08562e-05
-5.85205e-05
1.35018e-05
-5.77584e-05
1.62777e-05
-5.59286e-05
1.9141e-05
-5.51887e-05
2.21188e-05
-5.30516e-05
2.46287e-05
-5.20793e-05
2.67889e-05
-5.10921e-05
2.8573e-05
-5.07538e-05
3.112e-05
-4.86407e-05
3.33108e-05
-4.74063e-05
3.73382e-05
-4.40435e-05
4.13682e-05
-4.18752e-05
4.56754e-05
-3.87039e-05
5.28066e-05
-3.44963e-05
6.01662e-05
-3.23168e-05
7.39634e-05
-2.83665e-05
9.85889e-05
-2.30242e-05
0.000123561
-1.87246e-05
-4.70593e-06
0.000140908
2.24004e-06
-6.31418e-05
4.55653e-06
-6.28975e-05
6.92695e-06
-6.24582e-05
9.34849e-06
-6.20566e-05
1.1793e-05
-6.09799e-05
1.44224e-05
-6.04029e-05
1.7181e-05
-5.87024e-05
2.00297e-05
-5.80528e-05
2.30223e-05
-5.60598e-05
2.57384e-05
-5.48112e-05
2.79485e-05
-5.33184e-05
2.98901e-05
-5.27118e-05
3.1837e-05
-5.06044e-05
3.41925e-05
-4.97789e-05
3.72548e-05
-4.71235e-05
4.05549e-05
-4.51933e-05
4.44404e-05
-4.2608e-05
4.9094e-05
-3.91689e-05
5.43224e-05
-3.75649e-05
6.06505e-05
-3.47147e-05
6.89038e-05
-3.12985e-05
8.17104e-05
-3.15529e-05
-2.43013e-05
0.000101283
2.55485e-06
-6.57111e-05
5.17019e-06
-6.55273e-05
7.81326e-06
-6.51158e-05
1.04981e-05
-6.4756e-05
1.32284e-05
-6.37249e-05
1.60818e-05
-6.32711e-05
1.90842e-05
-6.17199e-05
2.20777e-05
-6.10615e-05
2.53695e-05
-5.93671e-05
2.85674e-05
-5.80248e-05
3.16278e-05
-5.63947e-05
3.43549e-05
-5.5455e-05
3.73094e-05
-5.35755e-05
4.00777e-05
-5.25642e-05
4.31916e-05
-5.02548e-05
4.64712e-05
-4.84906e-05
4.95966e-05
-4.57516e-05
5.31321e-05
-4.27232e-05
5.5837e-05
-4.02892e-05
5.89549e-05
-3.78525e-05
6.27619e-05
-3.51262e-05
6.57603e-05
-3.45725e-05
-2.93867e-05
7.08237e-05
2.64111e-06
-6.83665e-05
5.30561e-06
-6.82061e-05
7.99064e-06
-6.78152e-05
1.07283e-05
-6.75081e-05
1.35308e-05
-6.65419e-05
1.64284e-05
-6.61834e-05
1.94744e-05
-6.47807e-05
2.25707e-05
-6.41728e-05
2.58962e-05
-6.27078e-05
2.94502e-05
-6.15942e-05
3.29949e-05
-5.99552e-05
3.64654e-05
-5.89415e-05
3.98716e-05
-5.6998e-05
4.31146e-05
-5.58239e-05
4.64516e-05
-5.36089e-05
4.96858e-05
-5.17423e-05
5.3123e-05
-4.92068e-05
5.66894e-05
-4.63081e-05
6.03512e-05
-4.397e-05
6.35765e-05
-4.10973e-05
6.61134e-05
-3.76834e-05
6.7561e-05
-3.60408e-05
-3.09169e-05
6.90696e-05
2.94015e-06
-7.13206e-05
5.89498e-06
-7.1175e-05
8.85328e-06
-7.07876e-05
1.18685e-05
-7.05375e-05
1.494e-05
-6.96277e-05
1.80585e-05
-6.93163e-05
2.12864e-05
-6.80232e-05
2.44894e-05
-6.73905e-05
2.7879e-05
-6.61123e-05
3.13195e-05
-6.50499e-05
3.49382e-05
-6.35894e-05
3.84354e-05
-6.24544e-05
4.20386e-05
-6.06173e-05
4.55019e-05
-5.93035e-05
4.90401e-05
-5.71639e-05
5.26357e-05
-5.5355e-05
5.61795e-05
-5.27683e-05
6.00514e-05
-5.01981e-05
6.37623e-05
-4.76995e-05
6.71654e-05
-4.45196e-05
7.08204e-05
-4.13581e-05
7.35447e-05
-3.87855e-05
-3.34265e-05
7.60333e-05
3.02989e-06
-7.43643e-05
6.0859e-06
-7.42448e-05
9.17748e-06
-7.3893e-05
1.23121e-05
-7.36861e-05
1.54978e-05
-7.28274e-05
1.87177e-05
-7.25503e-05
2.20364e-05
-7.13562e-05
2.53419e-05
-7.07105e-05
2.87198e-05
-6.95048e-05
3.21446e-05
-6.84896e-05
3.56044e-05
-6.70643e-05
3.91102e-05
-6.59755e-05
4.2677e-05
-6.41999e-05
4.61899e-05
-6.28325e-05
4.97748e-05
-6.07653e-05
5.33146e-05
-5.89116e-05
5.70197e-05
-5.64906e-05
6.08447e-05
-5.40408e-05
6.46863e-05
-5.15593e-05
6.84773e-05
-4.83293e-05
7.25427e-05
-4.54428e-05
7.59974e-05
-4.22599e-05
-3.73496e-05
7.99001e-05
3.2379e-06
-7.76157e-05
6.50139e-06
-7.75218e-05
9.79982e-06
-7.7205e-05
1.31271e-05
-7.7027e-05
1.65005e-05
-7.62146e-05
1.98686e-05
-7.59323e-05
2.33423e-05
-7.48439e-05
2.68075e-05
-7.41898e-05
3.03818e-05
-7.30935e-05
3.39792e-05
-7.21017e-05
3.76853e-05
-7.07852e-05
4.13318e-05
-6.96372e-05
4.50947e-05
-6.79781e-05
4.88532e-05
-6.66068e-05
5.27012e-05
-6.46293e-05
5.66411e-05
-6.28679e-05
6.06651e-05
-6.05315e-05
6.48549e-05
-5.82478e-05
6.90205e-05
-5.57426e-05
7.32175e-05
-5.25445e-05
7.75095e-05
-4.97534e-05
8.11774e-05
-4.59472e-05
-4.1357e-05
8.51649e-05
3.35909e-06
-8.0988e-05
6.73976e-06
-8.09157e-05
1.01028e-05
-8.05812e-05
1.3494e-05
-8.04316e-05
1.69105e-05
-7.96445e-05
2.03261e-05
-7.93615e-05
2.38129e-05
-7.83444e-05
2.73018e-05
-7.76926e-05
3.08531e-05
-7.66588e-05
3.44482e-05
-7.5711e-05
3.81183e-05
-7.44699e-05
4.18276e-05
-7.33611e-05
4.56335e-05
-7.17991e-05
4.94764e-05
-7.0465e-05
5.34647e-05
-6.86332e-05
5.75236e-05
-6.69429e-05
6.17678e-05
-6.47921e-05
6.61318e-05
-6.26286e-05
7.05862e-05
-6.02143e-05
7.52354e-05
-5.72113e-05
8.00232e-05
-5.45594e-05
8.45264e-05
-5.0469e-05
-4.63525e-05
8.95027e-05
3.55085e-06
-8.45517e-05
7.11338e-06
-8.44911e-05
1.06695e-05
-8.41503e-05
1.42397e-05
-8.40148e-05
1.78542e-05
-8.32721e-05
2.14652e-05
-8.29857e-05
2.51688e-05
-8.20613e-05
2.88846e-05
-8.14219e-05
3.26669e-05
-8.04548e-05
3.64563e-05
-7.95142e-05
4.03406e-05
-7.83683e-05
4.42526e-05
-7.72875e-05
4.82904e-05
-7.58515e-05
5.2391e-05
-7.45806e-05
5.66264e-05
-7.28838e-05
6.09829e-05
-7.1315e-05
6.54897e-05
-6.93148e-05
7.01511e-05
-6.73063e-05
7.49147e-05
-6.49947e-05
7.98998e-05
-6.22136e-05
8.49238e-05
-5.9601e-05
8.99212e-05
-5.54845e-05
-5.17792e-05
9.53294e-05
3.59636e-06
-8.81606e-05
7.20031e-06
-8.81076e-05
1.07994e-05
-8.7762e-05
1.44013e-05
-8.76294e-05
1.80319e-05
-8.69155e-05
2.16488e-05
-8.66154e-05
2.53241e-05
-8.57497e-05
2.90206e-05
-8.51315e-05
3.27874e-05
-8.42349e-05
3.6605e-05
-8.33454e-05
4.05153e-05
-8.22923e-05
4.44869e-05
-8.1273e-05
4.85845e-05
-7.99633e-05
5.27682e-05
-7.87788e-05
5.71274e-05
-7.72578e-05
6.1633e-05
-7.58357e-05
6.63672e-05
-7.40645e-05
7.13137e-05
-7.22687e-05
7.64857e-05
-7.01828e-05
8.19927e-05
-6.77372e-05
8.76565e-05
-6.52818e-05
9.36059e-05
-6.14513e-05
-5.82908e-05
0.0001001
3.84993e-06
-9.20228e-05
7.70665e-06
-9.19766e-05
1.1539e-05
-9.16067e-05
1.53635e-05
-9.14662e-05
1.92078e-05
-9.07721e-05
2.30304e-05
-9.04505e-05
2.68984e-05
-8.96304e-05
3.07633e-05
-8.90092e-05
3.46845e-05
-8.8169e-05
3.86403e-05
-8.73143e-05
4.26889e-05
-8.63542e-05
4.67912e-05
-8.53889e-05
5.10272e-05
-8.42131e-05
5.53665e-05
-8.31321e-05
5.98784e-05
-8.1784e-05
6.45622e-05
-8.05342e-05
6.94663e-05
-7.89835e-05
7.46244e-05
-7.7442e-05
8.00433e-05
-7.56173e-05
8.58444e-05
-7.35544e-05
9.18816e-05
-7.13354e-05
9.8433e-05
-6.80194e-05
-6.55008e-05
0.000105626
3.86921e-06
-9.59038e-05
7.74167e-06
-9.58609e-05
1.15902e-05
-9.54671e-05
1.54214e-05
-9.53093e-05
1.92716e-05
-9.46343e-05
2.31015e-05
-9.42926e-05
2.69752e-05
-9.35162e-05
3.08589e-05
-9.29053e-05
3.48011e-05
-9.21236e-05
3.87848e-05
-9.13107e-05
4.28585e-05
-9.04408e-05
4.69948e-05
-8.95383e-05
5.12763e-05
-8.85079e-05
5.5682e-05
-8.75513e-05
6.02906e-05
-8.64065e-05
6.51065e-05
-8.53642e-05
7.01995e-05
-8.40909e-05
7.56208e-05
-8.2878e-05
8.13905e-05
-8.14021e-05
8.76418e-05
-7.98211e-05
9.42945e-05
-7.80039e-05
0.000101665
-7.54059e-05
-7.36335e-05
0.000109781
4.07944e-06
-9.99946e-05
8.15957e-06
-9.99524e-05
1.22246e-05
-9.95436e-05
1.62657e-05
-9.93619e-05
2.03281e-05
-9.87084e-05
2.43529e-05
-9.83291e-05
2.84033e-05
-9.75784e-05
3.24392e-05
-9.69531e-05
3.6531e-05
-9.62275e-05
4.06363e-05
-9.54282e-05
4.48261e-05
-9.4643e-05
4.90487e-05
-9.37735e-05
5.33949e-05
-9.2867e-05
5.78406e-05
-9.20102e-05
6.24397e-05
-9.10189e-05
6.72455e-05
-9.01836e-05
7.22955e-05
-8.91549e-05
7.7717e-05
-8.83136e-05
8.35376e-05
-8.72371e-05
8.99605e-05
-8.62588e-05
9.69703e-05
-8.50288e-05
0.000104868
-8.33194e-05
-8.24746e-05
0.000113694
4.07156e-06
-0.000104077
8.14941e-06
-0.000104041
1.22193e-05
-0.000103625
1.62739e-05
-0.000103428
2.03682e-05
-0.000102814
2.44357e-05
-0.000102408
2.85463e-05
-0.0001017
3.26435e-05
-0.000101062
3.68033e-05
-0.000100399
4.09662e-05
-9.96029e-05
4.52189e-05
-9.89076e-05
4.94974e-05
-9.80641e-05
5.3893e-05
-9.72749e-05
5.83883e-05
-9.6518e-05
6.30103e-05
-9.56537e-05
6.78532e-05
-9.50394e-05
7.29196e-05
-9.42346e-05
7.83886e-05
-9.37961e-05
8.42996e-05
-9.3162e-05
9.0878e-05
-9.28513e-05
9.81968e-05
-9.23621e-05
0.000106532
-9.16698e-05
-9.19958e-05
0.000116038
4.17171e-06
-0.000108259
8.34569e-06
-0.000108226
1.25279e-05
-0.000107817
1.66968e-05
-0.000107607
2.09161e-05
-0.000107044
2.51158e-05
-0.000106618
2.93701e-05
-0.000105966
3.36069e-05
-0.00010531
3.79011e-05
-0.000104704
4.21707e-05
-0.000103884
4.65147e-05
-0.000103263
5.08491e-05
-0.00010241
5.52656e-05
-0.000101703
5.97547e-05
-0.000101019
6.43061e-05
-0.000100217
6.90614e-05
-9.98073e-05
7.39935e-05
-9.91795e-05
7.93127e-05
-9.91283e-05
8.50858e-05
-9.89483e-05
9.15154e-05
-9.92945e-05
9.881e-05
-9.96705e-05
0.000107205
-0.000100079
-0.000101781
0.000116975
4.06833e-06
-0.000112338
8.1302e-06
-0.000112298
1.22453e-05
-0.000111943
1.6369e-05
-0.000111741
2.0575e-05
-0.00011126
2.47994e-05
-0.000110853
2.91083e-05
-0.000110285
3.34276e-05
-0.000109639
3.78263e-05
-0.000109114
4.22226e-05
-0.000108291
4.67068e-05
-0.000107758
5.11902e-05
-0.000106905
5.57514e-05
-0.000106276
6.03682e-05
-0.000105647
6.50126e-05
-0.000104873
6.98003e-05
-0.000104607
7.47323e-05
-0.000104124
7.99514e-05
-0.00010436
8.5572e-05
-0.000104582
9.17566e-05
-0.000105492
9.88086e-05
-0.000106736
0.00010694
-0.000108224
-0.000111331
0.000116477
3.95835e-06
-0.000116306
7.8934e-06
-0.000116243
1.19192e-05
-0.000115978
1.59569e-05
-0.000115788
2.00993e-05
-0.000115412
2.43021e-05
-0.000115066
2.86329e-05
-0.000114626
3.29922e-05
-0.000114009
3.74356e-05
-0.000113567
4.18956e-05
-0.000112761
4.64575e-05
-0.00011233
5.10245e-05
-0.000111482
5.5686e-05
-0.000110948
6.03773e-05
-0.00011035
6.51178e-05
-0.000109625
6.99134e-05
-0.000109414
7.48553e-05
-0.000109077
7.99255e-05
-0.000109442
8.53111e-05
-0.000109979
9.10939e-05
-0.000111287
9.76201e-05
-0.000113274
0.000105158
-0.000115775
-0.000120297
0.000114111
3.70264e-06
-0.000120018
7.37933e-06
-0.000119929
1.11657e-05
-0.000119774
1.49727e-05
-0.000119605
1.89098e-05
-0.000119359
2.29422e-05
-0.000119107
2.71535e-05
-0.000118847
3.14785e-05
-0.000118343
3.59402e-05
-0.000118039
4.04571e-05
-0.000117288
4.51092e-05
-0.000116992
4.97902e-05
-0.000116173
5.45995e-05
-0.000115768
5.93998e-05
-0.00011516
6.43021e-05
-0.000114538
6.91369e-05
-0.000114259
7.40883e-05
-0.000114039
7.89485e-05
-0.000114313
8.40646e-05
-0.000115107
8.93489e-05
-0.000116583
9.528e-05
-0.000119217
0.000102138
-0.000122645
-0.000128616
0.000110445
3.40831e-06
-0.000123435
6.8074e-06
-0.000123336
1.02976e-05
-0.000123273
1.38234e-05
-0.000123139
1.74825e-05
-0.000123027
2.1242e-05
-0.000122876
2.51824e-05
-0.000122796
2.93022e-05
-0.000122472
3.36504e-05
-0.000122396
3.81509e-05
-0.000121798
4.28482e-05
-0.000121699
4.76163e-05
-0.000120951
5.25634e-05
-0.000120724
5.74871e-05
-0.000120094
6.25478e-05
-0.000119609
6.74574e-05
-0.000119179
7.24297e-05
-0.000119022
7.71393e-05
-0.000119033
8.2044e-05
-0.000120022
8.68519e-05
-0.000121401
9.21624e-05
-0.000124539
9.81161e-05
-0.00012861
-0.000135913
0.000105401
3.01474e-06
-0.000126458
6.03993e-06
-0.00012637
9.13064e-06
-0.000126372
1.22764e-05
-0.000126293
1.55521e-05
-0.000126311
1.8939e-05
-0.000126271
2.25038e-05
-0.000126369
2.62562e-05
-0.000126233
3.02714e-05
-0.00012642
3.45421e-05
-0.000126077
3.91211e-05
-0.000126287
4.38712e-05
-0.00012571
4.88671e-05
-0.000125729
5.38411e-05
-0.000125077
5.89872e-05
-0.000124764
6.39774e-05
-0.000124179
6.89638e-05
-0.000124018
7.35631e-05
-0.000123642
7.81909e-05
-0.00012466
8.24395e-05
-0.00012566
8.69156e-05
-0.000129025
9.16989e-05
-0.000133403
-0.000141908
9.7683e-05
2.65235e-06
-0.000129118
5.32325e-06
-0.000129048
8.04185e-06
-0.000129098
1.08233e-05
-0.000129083
1.37222e-05
-0.000129218
1.673e-05
-0.000129287
1.99134e-05
-0.00012956
2.32881e-05
-0.000129616
2.69133e-05
-0.000130053
3.08084e-05
-0.000129981
3.50413e-05
-0.000130528
3.95463e-05
-0.000130223
4.44035e-05
-0.000130595
4.93534e-05
-0.000130035
5.45613e-05
-0.000129981
5.96537e-05
-0.00012928
6.46782e-05
-0.000129052
6.92604e-05
-0.000128233
7.36247e-05
-0.000129033
7.73288e-05
-0.000129374
8.08e-05
-0.000132506
8.41328e-05
-0.000136746
-0.000145832
8.8047e-05
2.2345e-06
-0.00013136
4.48669e-06
-0.000131308
6.77729e-06
-0.000131396
9.12419e-06
-0.000131437
1.15757e-05
-0.000131676
1.41279e-05
-0.000131847
1.68495e-05
-0.000132289
1.97522e-05
-0.000132526
2.2894e-05
-0.000133203
2.62947e-05
-0.000133389
2.99967e-05
-0.000134238
3.3992e-05
-0.000134227
3.8369e-05
-0.00013498
4.29717e-05
-0.000134646
4.79165e-05
-0.000134934
5.28602e-05
-0.000134232
5.77926e-05
-0.000133992
6.24226e-05
-0.000132872
6.65254e-05
-0.000133145
6.97663e-05
-0.000132624
7.22328e-05
-0.000134981
7.38887e-05
-0.000138411
-0.000147147
7.5194e-05
1.87146e-06
-0.000133238
3.75766e-06
-0.000133201
5.67692e-06
-0.000133322
7.64223e-06
-0.000133409
9.70292e-06
-0.000133744
1.18518e-05
-0.000134002
1.41623e-05
-0.000134607
1.66362e-05
-0.000135007
1.93337e-05
-0.000135907
2.22745e-05
-0.000136337
2.54899e-05
-0.000137461
2.89947e-05
-0.000137739
3.28251e-05
-0.000138818
3.68867e-05
-0.000138715
4.12809e-05
-0.000139335
4.57524e-05
-0.000138711
5.03576e-05
-0.000138605
5.48184e-05
-0.000137341
5.85748e-05
-0.000136909
6.13666e-05
-0.000135423
6.2993e-05
-0.000136616
6.29902e-05
-0.000138416
-0.000145961
6.17967e-05
1.51068e-06
-0.000134755
3.02734e-06
-0.000134724
4.56611e-06
-0.000134867
6.13395e-06
-0.000134983
7.78128e-06
-0.000135397
9.494e-06
-0.000135721
1.13481e-05
-0.000136467
1.33284e-05
-0.000136994
1.55011e-05
-0.000138086
1.78729e-05
-0.000138715
2.04807e-05
-0.000140075
2.33477e-05
-0.000140612
2.64931e-05
-0.00014197
2.98785e-05
-0.000142108
3.35703e-05
-0.000143034
3.7376e-05
-0.000142524
4.13552e-05
-0.000142592
4.51928e-05
-0.000141185
4.85099e-05
-0.000140234
5.10173e-05
-0.000137938
5.20197e-05
-0.000137626
5.09473e-05
-0.000137352
-0.000142948
4.79262e-05
1.21296e-06
-0.000135973
2.42407e-06
-0.00013594
3.65111e-06
-0.0001361
4.89668e-06
-0.000136234
6.21009e-06
-0.000136717
7.57062e-06
-0.000137087
9.05142e-06
-0.000137954
1.06263e-05
-0.000138574
1.23706e-05
-0.000139836
1.42727e-05
-0.000140623
1.63795e-05
-0.000142188
1.86908e-05
-0.00014293
2.12273e-05
-0.000144513
2.39698e-05
-0.000144856
2.69521e-05
-0.000146023
3.00194e-05
-0.000145597
3.31924e-05
-0.000145771
3.61285e-05
-0.000144128
3.87236e-05
-0.000142835
4.05097e-05
-0.000139731
4.06742e-05
-0.000137797
3.86191e-05
-0.000135303
-0.000138269
3.39334e-05
9.39498e-07
-0.000136918
1.87231e-06
-0.000136878
2.81451e-06
-0.000137047
3.76299e-06
-0.000137187
4.76141e-06
-0.00013772
5.78644e-06
-0.000138118
6.90218e-06
-0.000139075
8.07971e-06
-0.000139757
9.38669e-06
-0.000141149
1.07928e-05
-0.000142034
1.23505e-05
-0.000143751
1.40399e-05
-0.000144624
1.58919e-05
-0.00014637
1.78716e-05
-0.000146842
2.00129e-05
-0.00014817
2.21988e-05
-0.000147789
2.4466e-05
-0.000148044
2.6519e-05
-0.000146187
2.82885e-05
-0.000144611
2.91896e-05
-0.000140638
2.86995e-05
-0.000137313
2.58898e-05
-0.0001325
-0.000132047
1.96615e-05
7.37811e-07
-0.00013766
1.46736e-06
-0.000137612
2.20136e-06
-0.000137785
2.93286e-06
-0.000137924
3.69917e-06
-0.000138491
4.48036e-06
-0.000138903
5.32778e-06
-0.000139927
6.20973e-06
-0.000140643
7.18378e-06
-0.000142127
8.21004e-06
-0.000143065
9.34724e-06
-0.000144893
1.05479e-05
-0.00014583
1.18576e-05
-0.000147685
1.32164e-05
-0.000148205
1.466e-05
-0.000149618
1.60549e-05
-0.000149189
1.74304e-05
-0.000149425
1.84814e-05
-0.000147243
1.91413e-05
-0.000145276
1.87747e-05
-0.000140277
1.69224e-05
-0.000135466
1.25222e-05
-0.000128105
-0.00012383
4.30053e-06
5.34981e-07
-0.000138199
1.06896e-06
-0.00013815
1.60863e-06
-0.000138329
2.1412e-06
-0.00013846
2.69083e-06
-0.000139044
3.23994e-06
-0.000139456
3.82267e-06
-0.000140513
4.41028e-06
-0.000141235
5.04596e-06
-0.000142767
5.69045e-06
-0.000143714
6.39225e-06
-0.000145599
7.09639e-06
-0.000146538
7.85145e-06
-0.000148444
8.57601e-06
-0.000148934
9.31097e-06
-0.000150358
9.92437e-06
-0.000149807
1.04642e-05
-0.000149969
1.06613e-05
-0.000147445
1.04981e-05
-0.000145117
9.455e-06
-0.000139238
7.05603e-06
-0.000133072
2.22141e-06
-0.000123275
-0.000115354
-6.25937e-06
4.05274e-07
-0.000138607
8.07993e-07
-0.000138556
1.20878e-06
-0.000138733
1.59508e-06
-0.000138849
1.98226e-06
-0.000139435
2.35526e-06
-0.000139833
2.73841e-06
-0.0001409
3.10578e-06
-0.000141606
3.48761e-06
-0.000143152
3.84874e-06
-0.000144078
4.22431e-06
-0.000145978
4.56021e-06
-0.000146878
4.89074e-06
-0.000148778
5.13146e-06
-0.000149178
5.31529e-06
-0.000150545
5.30971e-06
-0.000149805
5.13452e-06
-0.000149798
4.54111e-06
-0.000146855
3.46435e-06
-0.000144044
1.44237e-06
-0.00013722
-1.96521e-06
-0.000129668
-7.74048e-06