/*--------------------------------*- C++ -*----------------------------------*\
| =========                 |                                                 |
| \\      /  F ield         | OpenFOAM: The Open Source CFD Toolbox           |
|  \\    /   O peration     | Version:  2012                                  |
|   \\  /    A nd           | Website:  www.openfoam.com                      |
|    \\/     M anipulation  |                                                 |
\*---------------------------------------------------------------------------*/
FoamFile
{
    version     2.0;
    format      ascii;
    class       volScalarField;
    location    "0.44";
    object      rhogh;
}
// * * * * * * * * * * * * * * * * * * * * * * * * * * * * * * * * * * * * * //

dimensions      [1 -1 -2 0 0 0 0];


internalField   nonuniform List<scalar> 
2268
(
-29.4294
-29.4294
-29.4294
-29.4294
-29.4294
-29.4294
-29.4294
-29.4294
-29.4294
-29.4294
-29.4294
-29.4294
-29.4294
-29.4294
-29.4294
-29.4294
-29.4294
-29.4294
-29.4294
-29.4294
-29.4294
-29.4294
-29.4155
-88.2881
-88.2881
-88.2881
-88.2881
-88.2881
-88.2881
-88.2881
-88.2881
-88.2881
-88.2881
-88.2881
-88.2881
-88.2881
-88.2881
-88.2881
-88.2881
-88.2881
-88.2881
-88.2881
-88.2881
-88.2881
-88.2881
-88.2464
-147.147
-147.147
-147.147
-147.147
-147.147
-147.147
-147.147
-147.147
-147.147
-147.147
-147.147
-147.147
-147.147
-147.147
-147.147
-147.147
-147.147
-147.147
-147.147
-147.147
-147.147
-147.147
-147.109
-206.006
-206.006
-206.006
-206.006
-206.006
-206.006
-206.006
-206.006
-206.006
-206.006
-206.006
-206.006
-206.006
-206.006
-206.006
-206.006
-206.006
-206.006
-206.006
-206.006
-206.006
-206.006
-206.005
-264.864
-264.864
-264.864
-264.864
-264.864
-264.864
-264.864
-264.864
-264.864
-264.864
-264.864
-264.864
-264.864
-264.864
-264.864
-264.864
-264.864
-264.864
-264.864
-264.864
-264.864
-264.864
-264.864
-323.723
-323.723
-323.723
-323.723
-323.723
-323.723
-323.723
-323.723
-323.723
-323.723
-323.723
-323.723
-323.723
-323.723
-323.723
-323.723
-323.723
-323.723
-323.723
-323.723
-323.723
-323.723
-323.723
-382.582
-382.582
-382.582
-382.582
-382.582
-382.582
-382.582
-382.582
-382.582
-382.582
-382.582
-382.582
-382.582
-382.582
-382.582
-382.582
-382.582
-382.582
-382.582
-382.582
-382.582
-382.582
-382.346
-441.44
-441.44
-441.44
-441.44
-441.44
-441.44
-441.44
-441.44
-441.44
-441.44
-441.44
-441.44
-441.44
-441.44
-441.44
-441.44
-441.44
-441.44
-441.44
-441.44
-441.44
-441.44
-441.092
-2.77889e-20
-2.84737e-19
-2.84693e-18
-1.4098e-18
-1.14983e-18
-1.71454e-18
-1.21574e-16
-8.41498e-15
-3.05233e-13
-6.57282e-12
-8.22308e-11
-5.94339e-10
-2.35331e-09
-5.58088e-09
-9.82678e-09
-1.7122e-08
-3.15572e-08
-4.26676e-08
-4.26712e-08
-3.34605e-18
-6.97544e-17
-7.44605e-16
-2.96074e-16
-1.61884e-16
-6.44456e-17
-7.25154e-16
-4.30094e-14
-1.3967e-12
-2.74673e-11
-3.16257e-10
-1.94705e-09
-3.66206e-09
-6.11129e-09
-1.2604e-07
-3.37013e-06
-2.63362e-05
-3.38663e-05
-1.15925e-05
-3.51309e-16
-6.69049e-15
-5.29632e-14
-1.89543e-14
-8.56366e-15
-2.59511e-15
-2.37592e-15
-9.95775e-14
-3.56598e-12
-8.45812e-11
-1.29457e-09
-1.22398e-08
-7.39086e-08
-7.418e-07
-1.23966e-05
-0.000100025
-0.00255325
-0.0462725
-0.336336
-1.63041e-14
-3.25528e-13
-1.46388e-12
-6.26068e-13
-2.36223e-13
-6.11777e-14
-2.06454e-14
-1.47561e-13
-4.66272e-12
-1.00599e-10
-1.4691e-09
-1.42391e-08
-8.33069e-08
-6.60498e-07
-1.47264e-05
-0.000255904
-0.00334168
-0.2821
-40.6466
-1.70881e-12
-1.24848e-11
-1.83344e-11
-1.21062e-11
-3.94186e-12
-9.1883e-13
-2.78767e-13
-1.89829e-13
-4.54084e-12
-9.01545e-11
-1.15864e-09
-1.04518e-08
-6.12442e-08
-5.53617e-07
-1.16948e-05
-8.65574e-05
-0.00143084
-0.025472
-160.175
-4.22439e-11
-2.43421e-10
-6.95958e-11
-9.49916e-11
-5.118e-11
-1.00688e-11
-2.96538e-12
-6.07608e-13
-4.45551e-12
-8.02817e-11
-9.7685e-10
-8.91477e-09
-6.5929e-08
-5.3693e-07
-2.95564e-06
-1.87232e-05
-6.87012e-05
-1.08154e-13
-195.948
-5.20209e-10
-3.02136e-10
-2.85876e-09
-1.04055e-08
-2.55797e-08
-1.18995e-11
-2.41441e-11
-4.18876e-12
-5.61422e-12
-6.21429e-11
-7.62777e-10
-7.00956e-09
-5.82271e-08
-4.07026e-07
-5.3588e-07
-1.27815e-13
-1.27819e-13
-1.27815e-13
-231.562
-6.00279e-10
-0.000170338
-0.00134575
-0.00252597
-0.00016253
-1.75089e-06
-2.06508e-09
-3.33496e-11
-2.42207e-11
-6.20177e-11
-4.72833e-10
-4.33415e-09
-3.26777e-08
-1.8754e-07
-3.14601e-07
-1.1835e-07
-3.72594e-08
-1.47483e-13
-267.132
-533.446
-533.444
-533.446
-533.446
-533.447
-533.449
-533.453
-533.455
-533.459
-533.462
-533.464
-533.466
-533.467
-533.467
-533.467
-533.467
-533.467
-533.467
-533.467
-533.467
-533.467
-533.467
-533.046
-625.704
-624.607
-625.892
-626.123
-626.652
-627.847
-630.829
-632.817
-637.364
-641.831
-646.967
-650.773
-653.609
-656.032
-657.773
-658.662
-658.662
-658.662
-658.662
-658.662
-658.662
-658.662
-658.158
-245.646
-243.025
-246.263
-246.694
-248.509
-252.357
-261.941
-269.204
-287.39
-309.589
-344.194
-390.623
-456.745
-524.817
-604.007
-689.219
-775.905
-783.856
-783.856
-783.856
-783.856
-783.856
-783.79
-1.76161e-33
-1.74877e-33
1.0621e-36
-4.78396e-30
2.89896e-30
-5.48033e-30
-5.99604e-28
-2.15293e-28
4.66078e-28
1.59452e-29
9.50392e-26
-2.29347e-25
-1.53699
-22.328
-61.4949
-120.294
-227.685
-428.456
-707.489
-906.65
-909.051
-909.051
-909.051
-6.43164e-16
-3.75669e-14
-1.23377e-12
-2.53987e-11
-3.43937e-10
-3.52261e-09
-7.12669e-09
-4.54199e-09
-1.07541e-09
-1.05344e-28
-1.70347e-06
-2.53476e-06
8.34054e-23
-1.62492e-23
1.74049e-23
-2.94895e-25
-1.81446
-13.7711
-84.609
-236.339
-502.592
-847.792
-1033.2
-3.75995e-15
-2.18951e-13
-7.03561e-12
-1.35863e-10
-1.83492e-09
-1.93281e-08
-3.54132e-08
-3.67974e-08
-1.2149e-08
1.77402e-28
-0.000101607
-0.000756024
-0.00151441
-0.00135303
-0.000592719
-6.64643e-06
-1.57098e-06
-0.0177404
-0.455847
-3.98269
-17.1368
-118.425
-347.606
-6.10598e-15
-3.49383e-13
-1.10428e-11
-2.04695e-10
-2.7078e-09
-2.87719e-08
-4.84313e-08
-8.67895e-08
-7.34367e-08
2.81553e-26
-0.000648503
-0.00315494
-0.00315425
-0.00315494
-0.0012945
-1.68167e-05
-1.74061e-06
-1.81794e-06
-2.84817e-05
-0.000944558
-0.0396616
-1.11079
-10.2338
-7.08528e-15
-4.01199e-13
-1.25335e-11
-2.26899e-10
-2.90856e-09
-3.11719e-08
-4.24317e-08
-1.48049e-07
-3.72229e-07
-1.25292e-24
-0.000876373
-0.00272852
-0.00245403
-0.000848811
-6.19728e-05
-5.01005e-05
-3.98248e-05
-5.54243e-06
-3.09252e-06
-0.000358626
-0.00102001
-0.00242108
-0.0105763
-6.76854e-15
-3.69728e-13
-1.10226e-11
-1.85757e-10
-2.04115e-09
-2.2667e-08
-1.80261e-08
-2.77732e-07
-1.54407e-06
-6.23297e-06
-6.2291e-05
-2.0061e-08
-2.00644e-08
-2.0061e-08
-2.00644e-08
-7.67997e-05
-8.52367e-05
-4.60161e-05
-3.37572e-06
-0.0012028
-0.00474454
-0.0095263
-0.0103864
-4.02591e-15
-2.09265e-13
-5.92712e-12
-9.50052e-11
-9.48501e-10
-1.03257e-08
-3.8308e-09
-4.16708e-07
-2.91e-06
-2.35965e-05
-7.34672e-08
-7.21853e-08
-1.22863e-07
-7.54257e-07
-2.1755e-08
-2.01834e-05
-8.37851e-05
-6.09312e-05
-7.73855e-06
-1.0373e-10
-1.00647e-10
-0.00109204
-0.00256186
-1.7895e-15
-9.06345e-14
-2.50586e-12
-3.92122e-11
-3.73921e-10
-3.9497e-09
-9.35012e-10
-5.0647e-07
-2.718e-06
-2.30506e-06
-6.73731e-07
-2.19862e-07
-4.0213e-07
-1.81403e-06
-1.99794e-06
-8.22382e-07
-1.40185e-06
-7.93516e-06
-6.06115e-06
-1.06834e-06
-1.35853e-07
-1.19915e-08
-1.20352e-08
-6.51586e-16
-3.23642e-14
-8.80085e-13
-1.35528e-11
-1.28612e-10
-1.27109e-09
-1.00057e-09
-2.3924e-07
-1.07198e-06
-5.72759e-07
-4.1642e-07
-2.65271e-07
-4.03671e-07
-1.30521e-06
-1.75603e-06
-8.80043e-07
-2.31093e-07
-2.31094e-07
-3.02028e-07
-3.36677e-07
-2.39352e-07
-8.76771e-08
-4.67438e-08
-1.93341e-16
-9.38698e-15
-2.51326e-13
-3.82777e-12
-3.70915e-11
-3.2055e-10
-1.06613e-09
-7.92685e-08
-1.13242e-07
-1.65691e-07
-1.52017e-07
-1.13484e-07
-1.35782e-07
-2.80935e-07
-4.81971e-07
-7.64722e-07
-7.82678e-07
-7.47038e-07
-6.3118e-07
-4.36427e-07
-2.38642e-07
-1.29599e-07
-6.08935e-08
-4.63689e-17
-2.22149e-15
-5.90668e-14
-9.00391e-13
-9.04457e-12
-7.30931e-11
-7.3121e-10
-1.31718e-08
-2.85171e-08
-3.75217e-08
-3.49602e-08
-2.5942e-08
-3.14831e-08
-4.66095e-08
-7.93982e-08
-1.59623e-07
-1.96755e-07
-1.84082e-07
-1.68621e-07
-1.29667e-07
-7.59885e-08
-4.31167e-08
-2.93366e-08
-8.87164e-18
-4.23127e-16
-1.12794e-14
-1.74848e-13
-1.8521e-12
-1.53163e-11
-2.8164e-10
-1.32993e-09
-3.6967e-09
-4.70229e-09
-4.38904e-09
-3.83334e-09
-5.13806e-09
-9.06982e-09
-1.56988e-08
-2.01049e-08
-2.2258e-08
-2.27744e-08
-2.18566e-08
-1.86118e-08
-1.29526e-08
-7.84057e-09
-4.90535e-09
-1.32716e-18
-6.39778e-17
-1.73938e-15
-2.80617e-14
-3.19433e-13
-2.79154e-12
-6.45267e-11
-1.38918e-10
-1.92759e-10
-1.98726e-10
-2.23325e-10
-3.96308e-10
-9.36848e-10
-1.88805e-09
-2.69844e-09
-2.98354e-09
-3.06663e-09
-3.01482e-09
-2.78193e-09
-2.32027e-09
-1.65139e-09
-1.01777e-09
-6.23807e-10
-1.50475e-19
-7.45425e-18
-2.10886e-16
-3.62028e-15
-4.47563e-14
-4.04174e-13
-8.43509e-12
-1.88186e-11
-1.92109e-11
-1.57316e-11
-2.06619e-11
-5.78747e-11
-1.68835e-10
-3.48718e-10
-4.54001e-10
-4.78912e-10
-4.74737e-10
-4.39027e-10
-3.64114e-10
-2.57605e-10
-1.61476e-10
-9.45022e-11
-5.52688e-11
-1.23985e-20
-6.58146e-19
-2.00799e-17
-3.76788e-16
-5.07141e-15
-4.60022e-14
-5.72626e-13
-1.68631e-12
-2.1095e-12
-2.07406e-12
-3.09314e-12
-8.4547e-12
-2.24488e-11
-4.13416e-11
-4.95393e-11
-5.07212e-11
-4.90243e-11
-4.32529e-11
-3.31796e-11
-2.12923e-11
-1.22717e-11
-5.9877e-12
-5.1979e-12
-6.93402e-22
-4.1073e-20
-1.39393e-18
-2.8864e-17
-4.14937e-16
-3.73452e-15
-2.55822e-14
-5.77661e-14
-7.27276e-14
-1.02867e-13
-2.5854e-13
-7.91221e-13
-1.89894e-12
-2.87379e-12
-3.17023e-12
-3.18496e-12
-3.05445e-12
-2.70888e-12
-2.15204e-12
-1.44929e-12
-6.92699e-13
-5.00821e-13
-1.06638e-12
-2.38282e-23
-1.69395e-21
-6.6527e-20
-1.52599e-18
-2.30034e-17
-2.00518e-16
-1.10014e-15
-2.0164e-15
-3.12747e-15
-6.57946e-15
-2.0593e-14
-5.86537e-14
-1.05861e-13
-1.16768e-13
-1.17615e-13
-1.1707e-13
-1.15467e-13
-1.09846e-13
-9.64691e-14
-6.91675e-14
-3.81683e-14
-6.69669e-14
-6.84502e-13
-4.46912e-25
-3.78493e-23
-1.69539e-21
-4.1794e-20
-6.43893e-19
-5.36276e-18
-2.15828e-17
-5.31666e-17
-1.35403e-16
-4.12017e-16
-1.29694e-15
-3.05267e-15
-3.64585e-15
-3.40406e-15
-3.05486e-15
-3.1478e-15
-3.37995e-15
-3.36049e-15
-3.02709e-15
-1.98042e-15
-2.52492e-15
-3.19745e-14
-7.54357e-13
-6.68018e-27
-3.7445e-25
-1.22542e-23
-2.6369e-22
-4.63361e-21
-5.43311e-20
-3.27197e-19
-1.48162e-18
-6.1542e-18
-2.14221e-17
-5.86112e-17
-1.12456e-16
-1.24475e-16
-1.1687e-16
-9.99667e-17
-9.08411e-17
-8.5462e-17
-7.77626e-17
-5.60646e-17
-6.0131e-17
-7.55955e-16
-3.16809e-14
-1.16409e-12
-2.87352e-28
-1.67882e-26
-5.56215e-25
-1.17877e-23
-1.99804e-22
-2.33743e-21
-1.44729e-20
-6.53695e-20
-2.55182e-19
-8.09911e-19
-1.87327e-18
-3.22149e-18
-3.6099e-18
-3.49108e-18
-2.89018e-18
-1.76416e-18
-9.33217e-19
-4.24791e-19
-5.66169e-19
-9.90457e-18
-6.48354e-16
-3.84223e-14
-1.44325e-12
-6.02345e-30
-3.60328e-28
-1.17034e-26
-2.28258e-25
-3.16261e-24
-3.06828e-23
-2.29852e-22
-1.28003e-21
-5.44029e-21
-1.6894e-20
-3.72047e-20
-7.16688e-20
-9.10011e-20
-9.01785e-20
-7.6356e-20
-4.66926e-20
-1.48622e-20
-1.25402e-20
-1.36706e-19
-5.82496e-18
-6.31672e-16
-4.15626e-14
-1.53459e-12
-2.32514e-35
-9.55515e-34
-2.08581e-32
-2.67836e-31
-2.25579e-30
-8.2606e-30
-2.27255e-29
-1.52706e-28
-9.82248e-28
-4.33106e-27
-1.3214e-26
-3.17065e-26
-4.15589e-26
-3.73256e-26
-4.31014e-26
-9.356e-25
-4.81215e-23
-1.90092e-21
-6.00973e-20
-3.43652e-18
-5.46968e-16
-3.71326e-14
-1.27572e-12
-1.51379e-39
-8.41222e-38
-2.63052e-36
-5.39906e-35
-8.84122e-34
-1.3331e-32
-3.78835e-31
-6.28186e-30
-4.7145e-29
-2.17709e-28
-6.69888e-28
-1.59037e-27
-2.01458e-27
-1.79862e-27
-4.76031e-27
-2.8151e-25
-1.59506e-23
-6.857e-22
-2.49272e-20
-1.8289e-18
-2.93081e-16
-1.94475e-14
-6.22542e-13
-7.39047e-43
-4.02566e-41
-1.1802e-39
-2.15609e-38
-2.81138e-37
-2.70371e-36
-2.01157e-35
-1.18349e-34
-5.51875e-34
-2.19555e-33
-7.61728e-33
-5.61958e-32
-1.94181e-31
-7.08777e-30
-8.05243e-28
-7.50616e-26
-4.61804e-24
-2.19329e-22
-9.38748e-21
-8.32469e-19
-1.21206e-16
-7.88181e-15
-2.52897e-13
-1.94927e-48
-1.39241e-46
-5.39912e-45
-1.34358e-43
-2.4389e-42
-3.3984e-41
-3.77844e-40
-3.49053e-39
-2.62902e-38
-1.72098e-37
-1.04026e-36
-3.92108e-35
-7.06194e-33
-1.27013e-30
-1.67107e-28
-1.73014e-26
-1.1556e-24
-6.18004e-23
-3.16536e-21
-3.14509e-19
-4.11626e-17
-2.66687e-15
-8.63812e-14
-5.8536e-52
-4.58806e-50
-1.93835e-48
-5.33297e-47
-1.0812e-45
-1.73662e-44
-2.28859e-43
-2.60998e-42
-2.4895e-41
-2.52363e-40
-1.53604e-38
-4.07346e-36
-9.3571e-34
-1.93302e-31
-2.88125e-29
-3.32619e-27
-2.43073e-25
-1.5011e-23
-9.29627e-22
-9.51557e-20
-1.08373e-17
-6.98756e-16
-2.32761e-14
-2.23734e-58
-2.21558e-56
-1.30001e-54
-5.53826e-53
-1.85437e-51
-5.04074e-50
-1.11284e-48
-3.44877e-47
-7.2052e-45
-2.96615e-42
-1.06748e-39
-3.65048e-37
-9.86054e-35
-2.36051e-32
-4.05413e-30
-5.26105e-28
-4.26701e-26
-3.12957e-24
-2.35453e-22
-2.29273e-20
-2.14052e-18
-1.34243e-16
-5.45947e-15
-1.22346e-63
-2.032e-61
-1.85552e-59
-1.14612e-57
-5.34953e-56
-2.91816e-54
-7.43149e-52
-4.31649e-49
-2.35133e-46
-1.21813e-43
-5.39851e-41
-2.24433e-38
-7.42221e-36
-2.11063e-33
-4.31795e-31
-6.43593e-29
-5.95119e-27
-5.36219e-25
-4.95879e-23
-4.46463e-21
-3.21639e-19
-1.84989e-17
-2.41652e-15
-7.37359e-68
-1.81581e-65
-2.36686e-63
-2.10052e-61
-1.94809e-59
-7.40077e-57
-6.10094e-54
-5.15015e-51
-3.84361e-48
-2.72147e-45
-1.6385e-42
-8.89763e-40
-3.79925e-37
-1.3247e-34
-3.33056e-32
-5.8711e-30
-6.39589e-28
-7.28794e-26
-8.46029e-24
-7.86902e-22
-5.20991e-20
-3.55675e-18
-2.68491e-15
-2.00388e-72
-7.41128e-70
-1.57128e-67
-3.34944e-65
-1.94385e-62
-2.37579e-59
-2.89381e-56
-3.38698e-53
-3.51636e-50
-3.43315e-47
-2.79291e-44
-2.00032e-41
-1.09887e-38
-4.9346e-36
-1.59103e-33
-3.56876e-31
-4.89788e-29
-7.40228e-27
-1.16849e-24
-1.57671e-22
-1.94643e-20
-3.50881e-18
-4.61366e-15
-3.23965e-76
-1.54436e-73
-4.33431e-71
-1.39974e-68
-1.37743e-65
-2.52148e-62
-4.78192e-59
-8.66016e-56
-1.41535e-52
-2.20624e-49
-2.84097e-46
-3.09739e-43
-2.57838e-40
-1.73739e-37
-8.40211e-35
-2.86616e-32
-7.08131e-30
-1.90196e-27
-5.36867e-25
-1.48788e-22
-5.86976e-20
-2.03918e-17
-9.18041e-15
-3.37013e-80
-1.18594e-76
-8.1883e-73
-4.2777e-69
-1.66604e-65
-5.09059e-62
-1.26122e-58
-2.55626e-55
-4.6429e-52
-7.79659e-49
-1.13585e-45
-1.14508e-42
-9.13248e-40
-5.65835e-37
-2.94078e-34
-1.23003e-31
-4.72851e-29
-1.63196e-26
-5.10093e-24
-1.47143e-21
-6.40035e-19
-1.75079e-16
-4.27551e-14
-1.27827e-79
-2.00631e-75
-1.60984e-71
-8.38323e-68
-3.20273e-64
-9.47459e-61
-2.25563e-57
-4.39282e-54
-7.61358e-51
-1.22866e-47
-1.73266e-44
-1.73894e-41
-1.35902e-38
-8.22644e-36
-4.11543e-33
-1.66757e-30
-6.18105e-28
-2.08405e-25
-6.26029e-23
-1.59411e-20
-6.42601e-18
-1.37266e-15
-2.76231e-13
-2.25278e-78
-3.61688e-74
-2.85489e-70
-1.46689e-66
-5.50159e-63
-1.58929e-59
-3.66283e-56
-6.87654e-53
-1.13222e-49
-1.72426e-46
-2.34882e-43
-2.37526e-40
-1.84583e-37
-1.09964e-34
-5.29088e-32
-2.05371e-29
-7.23192e-27
-2.36438e-24
-6.8479e-22
-1.56498e-19
-5.42659e-17
-9.77642e-15
-7.32536e-13
-3.81503e-77
-5.9818e-73
-4.65272e-69
-2.36317e-65
-8.72272e-62
-2.47002e-58
-5.54364e-55
-1.0085e-51
-1.57037e-48
-2.19631e-45
-2.81864e-42
-2.89479e-39
-2.29003e-36
-1.37075e-33
-6.40302e-31
-2.35923e-28
-7.60283e-26
-2.3667e-23
-6.54853e-21
-1.4066e-18
-2.04473e-16
-1.91608e-14
-1.08657e-12
-5.86277e-76
-8.98689e-72
-6.87146e-68
-3.454e-64
-1.25939e-60
-3.52165e-57
-7.78153e-54
-1.39024e-50
-2.06471e-47
-2.60685e-44
-2.9579e-41
-3.0188e-38
-2.48656e-35
-1.54931e-32
-7.22803e-30
-2.56727e-27
-7.14524e-25
-1.55756e-22
-2.64233e-20
-3.46405e-18
-3.47062e-16
-2.56379e-14
-1.29967e-12
-8.26845e-75
-1.22208e-70
-9.14629e-67
-4.55472e-63
-1.64989e-59
-4.60749e-56
-1.01726e-52
-1.82032e-49
-2.64992e-46
-3.12811e-43
-2.96982e-40
-2.25138e-37
-1.35469e-34
-6.51213e-32
-2.49972e-29
-7.6742e-27
-1.87507e-24
-3.64484e-22
-5.58022e-20
-6.64151e-18
-5.96134e-16
-3.90759e-14
-1.77139e-12
-1.12164e-73
-1.54968e-69
-1.05143e-65
-4.62153e-62
-1.45265e-58
-3.45422e-55
-6.40958e-52
-9.46406e-49
-1.12098e-45
-1.06576e-42
-8.12162e-40
-4.93267e-37
-2.38249e-34
-9.14615e-32
-2.79132e-29
-6.80889e-27
-1.32634e-24
-2.07036e-22
-2.61013e-20
-2.66974e-18
-2.21166e-16
-1.46716e-14
-7.56022e-13
-4.06571e-73
-5.19647e-69
-3.2464e-65
-1.3185e-61
-3.8895e-58
-8.84333e-55
-1.59518e-51
-2.31693e-48
-2.71385e-45
-2.55992e-42
-1.93583e-39
-1.17084e-36
-5.64225e-34
-2.16911e-31
-6.63136e-29
-1.61842e-26
-3.15042e-24
-4.91394e-22
-6.14195e-20
-6.19035e-18
-5.00755e-16
-3.23594e-14
-1.61872e-12
-533.056
-533.334
-533.428
-316.277
-658.156
-658.48
-658.614
-644.656
-783.643
-783.639
-783.758
-783.709
-909.05
-909.035
-909.038
-909.044
-1034.25
-1034.25
-1034.25
-1034.25
-553.826
-693.924
-861.029
-1086.56
-21.9578
-43.8871
-89.4775
-161.91
-0.0340345
-0.131046
-0.465286
-1.09865
-0.0110118
-0.0133887
-0.0175056
-0.0214683
-0.000620104
-0.0257996
-0.0681774
-0.0681626
-0.000605707
-0.000514753
-2.60036e-09
-0.0488409
-2.78274e-09
-2.7827e-09
-2.78274e-09
-0.00051815
-9.85923e-09
-4.01049e-09
-3.40847e-09
-1.6809e-09
-2.19933e-08
-1.80413e-08
-1.43949e-08
-1.02665e-08
-3.49277e-09
-2.89664e-09
-2.2833e-09
-1.90737e-09
-4.41596e-10
-3.63186e-10
-3.03505e-10
-2.33653e-10
-3.9808e-11
-3.60453e-11
-3.64709e-11
-3.9671e-11
-5.67313e-12
-6.96115e-12
-9.91308e-12
-1.58438e-11
-2.06864e-12
-3.56522e-12
-6.58619e-12
-1.28909e-11
-1.69287e-12
-3.19495e-12
-6.58458e-12
-1.69588e-11
-2.01175e-12
-4.15928e-12
-1.0752e-11
-3.94017e-11
-3.2678e-12
-7.47581e-12
-2.30253e-11
-1.0627e-10
-4.19163e-12
-1.05039e-11
-3.78719e-11
-2.11363e-10
-4.55232e-12
-1.20766e-11
-4.75134e-11
-2.65786e-10
-4.0271e-12
-1.19385e-11
-5.06297e-11
-2.23108e-10
-2.11392e-12
-7.42322e-12
-3.69719e-11
-1.5257e-10
-9.16956e-13
-3.59434e-12
-2.07295e-11
-1.11464e-10
-3.52977e-13
-1.92145e-12
-1.68652e-11
-1.31918e-10
-1.41552e-13
-1.62995e-12
-2.56662e-11
-3.57628e-10
-1.07408e-13
-3.09999e-12
-7.79969e-11
-1.23134e-09
-1.92035e-13
-8.90507e-12
-2.12849e-10
-2.72792e-09
-3.95994e-13
-1.62338e-11
-3.40409e-10
-3.78985e-09
-5.96488e-13
-2.28299e-11
-4.27121e-10
-4.11634e-09
-9.91276e-13
-3.11742e-11
-4.83385e-10
-3.54598e-09
-2.94335e-12
-6.31373e-11
-6.76181e-10
-4.90579e-09
-9.79599e-12
-1.37559e-10
-1.2297e-09
-8.16384e-09
-1.97908e-11
-2.35525e-10
-1.86704e-09
-1.09919e-08
-2.62266e-11
-2.90198e-10
-2.16245e-09
-1.13443e-08
-3.03258e-11
-3.29965e-10
-2.40791e-09
-1.19853e-08
-3.85037e-11
-3.96044e-10
-2.79133e-09
-1.31802e-08
-2.12658e-11
-3.03908e-10
-3.05818e-09
-2.00239e-08
-4.43666e-11
-6.04813e-10
-5.79918e-09
-3.76064e-08
-5.33178
-10.4413
-4.64082
-0.562996
-0.00966489
-2.90194e-07
-7.12991e-09
-1.0634e-09
-1.47625e-10
-1.77277e-10
-6.21031e-10
-2.63251e-09
-1.416e-08
-6.54332e-08
-1.39549e-07
-9.78763e-08
-2.1957e-07
-1.78223e-13
-303.646
-581.463
-520.794
-218.015
-9.05265
-0.0320126
-1.20743e-05
-8.2442e-08
-4.0864e-08
-2.74786e-08
-2.18879e-10
-2.18875e-10
-2.19597e-10
-7.62475e-09
-2.44428e-08
-5.20204e-08
-5.90242e-08
-8.11648e-07
-2.20055e-13
-312.234
-783.407
-783.856
-608.753
-97.3632
-1.57405
-8.9012e-05
-1.0755e-07
-1.14022e-07
-2.78624e-07
-1.52072e-06
-3.18892e-06
-1.30591e-06
-2.35969e-08
-1.37284e-09
-1.37745e-09
-1.77142e-06
-1.25162e-05
-2.61854e-13
-357.151
-909.047
-909.05
-909.051
-471.007
-10.3919
-0.0631653
-3.23826e-05
-8.97619e-08
-2.57859e-07
-1.84371e-06
-5.03245e-06
-5.03234e-06
-3.52489e-06
-1.04437e-05
-5.6698e-05
-7.12297e-05
-5.70727e-05
-3.03708e-13
-569.378
-1034.25
-1034.25
-1034.25
-986.387
-479.908
-3.53259
-3.50247e-13
-3.51275e-13
-5.6245e-08
-4.83183e-07
-1.75686e-06
-2.3263e-06
-1.88076e-06
-8.63754e-06
-3.3616e-05
-6.88112e-05
-3.96442e-05
-3.45497e-13
-809.867
-1157.98
-1159.44
-1159.44
-1159.44
-1123.82
-749.439
-242.806
-6.07581
-3.91011e-13
-3.88776e-13
-3.91001e-13
-3.88776e-13
-3.90952e-13
-3.88768e-13
-3.90921e-13
-3.88672e-13
-3.90894e-13
-16.2731
-998.659
-354.467
-782.903
-1251.93
-1284.63
-1284.63
-1277.13
-1161.75
-906.311
-569.451
-449.25
-404.078
-356.776
-301.388
-260.837
-220.118
-144.671
-95.4081
-547.371
-1215.22
-3.83913
-57.9673
-256.421
-662.345
-1161.84
-1406.75
-1409.71
-1409.71
-1403.93
-1388.46
-1373.67
-1355.15
-1317.63
-1278.11
-1238
-1132.23
-1086.1
-1280.06
-1398.07
-0.0276771
-0.0154857
-2.59061
-22.6568
-170.185
-471.965
-874.119
-1188.59
-1322.84
-1361.53
-1386.46
-1413.46
-1463
-1527.43
-1527.43
-1527.43
-1525.05
-1525.65
-1525.65
-0.0616085
-0.0167699
-0.0040371
-7.65438e-05
-1.30341
-9.85346
-44.8096
-149.681
-293.126
-375.778
-438.372
-508.368
-607.639
-789.101
-1099.18
-1493.89
-1650.07
-1650.07
-1650.07
-0.0683038
-0.0613987
-0.00637634
-8.23071e-05
-1.66134e-07
-0.00316124
-0.0474443
-0.463499
-1.66496
-3.22615
-5.17856
-8.26602
-14.569
-28.5878
-102.923
-608.676
-1473.57
-1760.94
-1697.9
-0.0156303
-0.0169492
-0.00502353
-1.27241e-05
-1.77787e-07
-1.77453e-07
-1.7746e-07
-1.77453e-07
-2.22524e-05
-0.000101982
-0.000336233
-0.00126251
-0.00657998
-0.0861146
-1.23617
-80.7315
-1041.71
-1862.76
-1762.82
-1.6809e-09
-1.67566e-09
-0.000257993
-8.90562e-05
-3.9101e-06
-6.87729e-07
-1.96963e-07
-2.05446e-07
-2.77321e-06
-5.95323e-06
-3.28587e-06
-2.82684e-06
-2.82681e-06
-0.0352014
-8.64609
-238.301
-1370.18
-2015.33
-1900.75
-2.74558e-09
-1.77872e-09
-1.81477e-07
-6.65794e-06
-3.11131e-06
-7.99496e-07
-2.44889e-07
-1.30687e-07
-2.58119e-06
-4.20845e-06
-3.48794e-06
-0.00594892
-1.73332
-27.965
-247.801
-1143.31
-1966.99
-2140.41
-2074.42
-1.22506e-09
-1.88177e-09
-1.66507e-08
-2.70822e-07
-4.27776e-07
-3.22547e-07
-1.73833e-07
-1.01714e-07
-2.08987e-06
-4.9627e-06
-3.90301e-06
-0.00316374
-6.71982
-290.549
-1389.98
-2021.14
-2214.13
-2264.4
-2057.54
-2.25507e-10
-5.36498e-10
-4.94553e-09
-5.66832e-08
-1.50087e-07
-1.13853e-07
-1.13792e-07
-1.15154e-07
-8.15369e-07
-5.33848e-06
-4.08825e-06
-0.00689519
-22.1286
-851.651
-2136.22
-2267.23
-2267.23
-1804.47
-1012.68
-9.70205e-11
-2.41046e-10
-1.98847e-09
-8.58871e-09
-8.90927e-07
-2.50105e-06
-1.80335e-06
-1.81321e-07
-2.52951e-07
-2.92835e-06
-1.42536e-06
-0.00383645
-8.43642
-209.992
-1088.81
-1972.06
-2373.31
-1579.37
-861.065
-1.2809e-10
-5.92521e-10
-1.44237e-08
-1.14847e-07
-2.98061e-07
-3.74109e-06
-8.23637e-06
-7.86309e-06
-1.83627e-06
-1.55282e-06
-1.49533e-06
-2.6496e-05
-0.279147
-0.0805546
-0.0805562
-486.934
-1804.97
-1805.01
-1157.92
-2.26571e-10
-2.64958e-09
-2.34433e-08
-4.7679e-08
-1.66209e-05
-4.04423e-06
-4.04422e-06
-6.76055e-06
-8.69196e-06
-6.19952e-06
-1.8634e-06
-1.77067e-06
-1.3347e-06
-0.0843435
-0.32717
-20.3425
-857.216
-1418.24
-976.394
-6.5329e-10
-3.25102e-09
-4.83758e-07
-4.42789e-07
-1.50601e-08
-0.000213581
-0.000437094
-6.87929e-05
-1.83225e-05
-2.22601e-05
-1.46597e-05
-2.32809e-06
-1.39486e-06
-0.0186182
-0.00449113
-7.56414
-334.207
-1038.64
-462.559
-3.28923e-09
-3.2892e-09
-1.27301e-06
-3.35731e-06
-1.59712e-08
-0.000375331
-0.00290102
-0.00109864
-1.91103e-05
-2.32079e-05
-2.14408e-05
-1.40045e-05
-7.417e-05
-5.66517e-05
-8.09402e-06
-0.0652665
-51.5847
-1065.73
-482.445
-7.2909e-09
-3.92621e-09
-3.86814e-09
-1.6222e-05
-1.71327e-05
-2.59655e-05
-4.39636e-06
-0.00810552
-0.0116448
-2.20404e-06
-2.25221e-06
-5.35811e-06
-3.82619e-05
-7.71717e-06
-8.42787e-06
-0.000638768
-9.33283e-08
-1095.35
-502.33
-9.48046e-09
-1.33249e-08
-4.0803e-09
-1.34808e-05
-9.886e-05
-5.69887e-05
-4.47273e-06
-0.013018
-0.0415504
-0.0415057
-0.00244005
-4.4485e-06
-4.44789e-06
-4.4485e-06
-9.43247e-06
-9.03948e-06
-9.70229e-08
-724.561
-522.216
-9.83732e-09
-1.71782e-08
-1.23849e-08
-8.78479e-09
-0.000144474
-0.000391367
-6.19249e-06
-6.19952e-06
-0.0353959
-0.0559552
-0.0559317
-0.00428232
-4.61789e-06
-4.7913e-06
-1.18845e-05
-7.07338e-06
-1.00717e-07
-26.2186
-900.569
-4.94598e-09
-1.55542e-08
-3.58203e-08
-1.06777e-08
-6.89964e-09
-0.00358874
-0.00649235
-0.00139563
-0.000649393
-0.0516314
-0.0836011
-0.0640414
-0.00539626
-0.000162253
-1.07675e-05
-5.46931e-06
-1.04412e-07
-0.410218
-942.656
-2.43213e-09
-1.52526e-08
-9.01803e-08
-1.15105e-08
-7.14346e-09
-0.00679775
-0.007636
-0.00596392
-0.000672359
-0.00111622
-0.086553
-0.0921096
-0.0415183
-0.000392878
-7.3947e-06
-6.0756e-06
-1.8421e-06
-1.08107e-07
-940.508
-2.38251e-09
-3.59463e-08
-1.37041e-07
-1.18966e-08
-0.000222002
-0.00229162
-0.00645211
-0.00469518
-0.00187385
-0.000151774
-0.0403253
-0.0952632
-0.0682363
-0.0013311
-7.76675e-06
-7.26732e-06
-7.39819e-07
-1.11801e-07
-960.686
-5.3388e-09
-8.54423e-08
-1.49868e-07
-3.93925e-07
-0.000110186
-1.27902e-05
-1.27902e-05
-0.010458
-0.000806401
-0.000156792
-0.000165466
-0.0746814
-0.0452529
-0.000782279
-1.53711e-05
-6.27768e-06
-1.15496e-07
-1.15496e-07
-1037.73
-1.54589e-08
-1.23114e-07
-1.23111e-07
-0.00026788
-0.000275478
-2.75706e-05
-0.000132845
-0.0665452
-0.0159373
-0.0186806
-0.00127342
-0.0160362
-0.00730642
-0.00030163
-9.85162e-06
-6.47869e-06
-0.26321
-0.835998
-1071.11
-3.12636e-08
-1.58153e-07
-1.26936e-07
-0.000854617
-0.00393452
-2.84162e-05
-0.12796
-0.688745
-0.576345
-0.0235533
-0.00412542
-0.00829506
-0.000569786
-0.000112083
-1.01549e-05
-0.0184973
-0.366938
-1.07552
-525.61
-4.27641e-08
-1.687e-07
-1.31349e-07
-0.00128321
-0.00515849
-0.078247
-0.735387
-0.773361
-0.773361
-0.0826507
-1.56468e-07
-0.00200822
-0.000366933
-0.000304437
-0.0120522
-0.151972
-0.281313
-0.281312
-2.54787
-4.27162e-08
-1.39342e-07
-1.3518e-07
-0.00172979
-0.00640326
-0.275313
-0.795934
-0.795934
-0.795934
-0.417884
-1.61035e-07
-4.12363e-05
-9.04289e-05
-9.04294e-05
-0.0473174
-0.495592
-4.77209
-74.9387
-1.43173
-3.33322e-08
-1.75275e-07
-1.03729e-05
-0.00166729
-0.00585407
-0.20364
-0.818506
-0.818506
-0.749812
-0.141329
-1.65602e-07
-1.65602e-07
-1.65602e-07
-0.0119983
-0.0501767
-0.0501731
-281.588
-305.163
-609.808
-2.96943e-08
-2.47019e-07
-1.54374e-05
-0.00191747
-0.00628669
-0.0477397
-0.337195
-0.491599
-0.125321
-0.00287589
-1.70169e-07
-0.00124216
-0.00111404
-0.00912317
-1.52728e-07
-27.9594
-1288.95
-619.988
-1752.41
-5.07816e-08
-7.02313e-07
-3.32977e-05
-0.00162846
-0.00355151
-0.00134694
-0.00197587
-0.00681975
-0.00379029
-0.00335006
-0.0146444
-0.0182231
-0.0164516
-1.56827e-07
-1.56827e-07
-557.394
-2194.79
-1913.87
-1913.87
-8.89928e-08
-2.17703e-06
-8.7257e-05
-0.000398329
-0.000480665
-8.52042e-05
-4.80432e-05
-4.81474e-05
-0.00040726
-0.0124263
-0.0186994
-0.0187083
-0.00703224
-1.60925e-07
-1.60925e-07
-608.407
-2304.16
-2304.15
-1681.66
-1.01634e-07
-2.95217e-06
-0.000235736
-0.000930717
-0.000160792
-4.92668e-05
-4.92668e-05
-4.92668e-05
-0.0011471
-0.00747379
-0.00964726
-0.00182732
-0.001156
-0.00115616
-1.65024e-07
-81.4652
-1106.56
-2208.31
-1157.38
-7.94955e-08
-2.11997e-06
-0.000278102
-0.00156565
-0.000559601
-5.04905e-05
-0.000211218
-0.000813276
-0.00102726
-0.000338885
-0.000598011
-0.0283777
-0.0964545
-0.103054
-0.140101
-2.04502
-39.9851
-431.681
-381.993
-7.0973e-08
-2.01908e-06
-0.00043211
-0.00247327
-5.17142e-05
-5.17142e-05
-0.000248885
-0.000858293
-0.000591277
-0.000250103
-0.00376643
-0.0777779
-0.07308
-0.0143075
-0.00596577
-0.00290036
-0.0788448
-1.99396
-16.4346
-5.72195e-08
-2.16302e-07
-7.00681e-05
-0.00588378
-0.0114797
-5.29379e-05
-7.14374e-05
-0.000214555
-9.41103e-05
-9.41167e-05
-0.0509114
-0.0634565
-0.00709862
-0.00697283
-0.00697283
-0.00296906
-0.000210926
-0.00165173
-0.242391
-1.1182e-07
-2.59409e-07
-1.32161e-05
-0.0178159
-0.0444121
-0.01701
-5.06303e-05
-4.95376e-05
-5.06303e-05
-0.0443078
-0.0630207
-0.00622236
-0.00932012
-0.00465945
-0.00504558
-0.0115561
-0.000215835
-0.00184837
-0.0261255
-2.30064e-07
-7.91272e-07
-7.00204e-06
-0.000857637
-0.0463204
-0.0997884
-0.062403
-0.0299836
-0.0228278
-0.0203059
-0.0243169
-0.000102453
-0.000239298
3.61538e-28
1.10469e-54
-0.0127793
-0.0110595
-0.00290214
-0.00014794
)
;

boundaryField
{
    leftWall
    {
        type            calculated;
        value           nonuniform List<scalar> 
50
(
-29.4294
-88.2881
-147.147
-206.006
-264.864
-323.723
-382.582
-441.44
-533.446
-625.704
-245.646
-1.76161e-33
-6.43164e-16
-3.75995e-15
-6.10598e-15
-7.08528e-15
-6.76854e-15
-4.02591e-15
-1.7895e-15
-6.51586e-16
-1.93341e-16
-4.63689e-17
-8.87164e-18
-1.32716e-18
-1.50475e-19
-1.23985e-20
-6.93402e-22
-2.38282e-23
-4.46912e-25
-6.68018e-27
-2.87352e-28
-6.02345e-30
-2.32514e-35
-1.51379e-39
-7.39047e-43
-1.94927e-48
-5.8536e-52
-2.23734e-58
-1.22346e-63
-7.37359e-68
-2.00388e-72
-3.23965e-76
-3.37013e-80
-1.27827e-79
-2.25278e-78
-3.81503e-77
-5.86277e-76
-8.26845e-75
-1.12164e-73
-4.06571e-73
)
;
    }
    rightWall
    {
        type            calculated;
        value           nonuniform List<scalar> 
50
(
-4.26712e-08
-1.15925e-05
-0.336336
-40.6466
-160.175
-195.948
-231.562
-267.132
-303.646
-312.234
-357.151
-569.378
-809.867
-998.659
-1215.22
-1398.07
-1525.65
-1650.07
-1697.9
-1762.82
-1900.75
-2074.42
-2057.54
-1012.68
-861.065
-1157.92
-976.394
-462.559
-482.445
-502.33
-522.216
-900.569
-942.656
-940.508
-960.686
-1037.73
-1071.11
-525.61
-2.54787
-1.43173
-609.808
-1752.41
-1913.87
-1681.66
-1157.38
-381.993
-16.4346
-0.242391
-0.0261255
-0.00014794
)
;
    }
    lowerWall
    {
        type            calculated;
        value           nonuniform List<scalar> 
62
(
0
0
0
0
0
0
0
0
0
0
0
0
0
0
0
0
0
0
0
0
0
0
0
-29.4155
-88.2464
-147.109
-206.005
-264.864
-323.723
-382.346
-441.092
-470.507
-470.752
-470.835
-279.165
-2.77889e-20
-3.34605e-18
-3.51309e-16
-1.63041e-14
-1.70881e-12
-4.22439e-11
-5.20209e-10
-6.00279e-10
0
0
0
0
0
0
0
0
0
0
0
0
0
0
0
0
0
0
0
)
;
    }
    atmosphere
    {
        type            calculated;
        value           nonuniform List<scalar> 
46
(
-0
-0
-0
-0
-0
-0
-0
-0
-0
-0
-0
-0
-0
-0
-0
-0
-0
-0
-0
-0
-0
-0
-0
-0
-0
-5.86324e-09
-3.80219e-08
-2.32606e-07
-8.00013e-07
-7.07939e-06
-0.000867111
-0.0468321
-0.100891
-0.0630924
-0.0303148
-0.02308
-0.0205302
-0.0245855
-0.000103585
-0
-0
-0
-0
-0.0111817
-0.0029342
-0.000149575
)
;
    }
    defaultFaces
    {
        type            empty;
    }
}


// ************************************************************************* //
