/*--------------------------------*- C++ -*----------------------------------*\
| =========                 |                                                 |
| \\      /  F ield         | OpenFOAM: The Open Source CFD Toolbox           |
|  \\    /   O peration     | Version:  2012                                  |
|   \\  /    A nd           | Website:  www.openfoam.com                      |
|    \\/     M anipulation  |                                                 |
\*---------------------------------------------------------------------------*/
FoamFile
{
    version     2.0;
    format      ascii;
    class       volScalarField;
    location    "0.44";
    object      volumeFraction1;
}
// * * * * * * * * * * * * * * * * * * * * * * * * * * * * * * * * * * * * * //

dimensions      [0 0 0 0 0 0 0];


internalField   nonuniform List<scalar> 
2268
(
1
1
1
1
1
1
1
1
1
1
1
1
1
1
1
1
1
1
1
1
1
1
0.999528
1
1
1
1
1
1
1
1
1
1
1
1
1
1
1
1
1
1
1
1
1
1
0.999528
1
1
1
1
1
1
1
1
1
1
1
1
1
1
1
1
1
1
1
1
1
1
0.999741
1
1
1
1
1
1
1
1
1
1
1
1
1
1
1
1
1
1
1
1
1
1
0.999999
1
1
1
1
1
1
1
1
1
1
1
1
1
1
1
1
1
1
1
1
1
1
1
1
1
1
1
1
1
1
1
1
1
1
1
1
1
1
1
1
1
1
1
1
1
1
1
1
1
1
1
1
1
1
1
1
1
1
1
1
1
1
1
1
1
1
1
1
0.999384
1
1
1
1
1
1
1
1
1
1
1
1
1
1
1
1
1
1
1
1
1
1
0.999211
9.44258e-22
9.67528e-21
9.67377e-20
4.79045e-20
3.90708e-20
5.82596e-20
4.13106e-18
2.85938e-16
1.03717e-14
2.23342e-13
2.79418e-12
2.01954e-11
7.99646e-11
1.89637e-10
3.33911e-10
5.81799e-10
1.0723e-09
1.44983e-09
1.44995e-09
3.78992e-20
7.90077e-19
8.43381e-18
3.3535e-18
1.83359e-18
7.29947e-19
8.2135e-18
4.87148e-16
1.58198e-14
3.1111e-13
3.5821e-12
2.20534e-11
4.14785e-11
6.92199e-11
1.4276e-09
3.8172e-08
2.98299e-07
3.83588e-07
1.31304e-07
2.38747e-18
4.54681e-17
3.59934e-16
1.28812e-16
5.81981e-17
1.76362e-17
1.61466e-17
6.76722e-16
2.42341e-14
5.74808e-13
8.79782e-12
8.31806e-11
5.02278e-10
5.04122e-09
8.42464e-08
6.79763e-07
1.73517e-05
0.000314465
0.00228572
7.91439e-17
1.58019e-15
7.10602e-15
3.03908e-15
1.14668e-15
2.96971e-16
1.00218e-16
7.16297e-16
2.2634e-14
4.8833e-13
7.13137e-12
6.91201e-11
4.04391e-10
3.20621e-09
7.14852e-08
1.24222e-06
1.62213e-05
0.00136938
0.197309
6.45164e-15
4.71365e-14
6.92221e-14
4.57072e-14
1.48826e-14
3.46906e-15
1.05249e-15
7.16703e-16
1.7144e-14
3.4038e-13
4.37448e-12
3.9461e-11
2.31229e-10
2.09019e-09
4.41541e-08
3.26799e-07
5.40215e-06
9.61702e-05
0.604743
1.30494e-13
7.51941e-13
2.14986e-13
2.93435e-13
1.58098e-13
3.1103e-14
9.16023e-15
1.87694e-15
1.37633e-14
2.47995e-13
3.01755e-12
2.75383e-11
2.03659e-10
1.65861e-09
9.13014e-09
5.78371e-08
2.12222e-07
3.34095e-16
0.605297
1.35973e-12
7.89729e-13
7.47228e-12
2.71981e-11
6.68607e-11
3.1103e-14
6.31083e-14
1.09487e-14
1.46746e-14
1.6243e-13
1.99376e-12
1.83217e-11
1.52195e-10
1.06389e-09
1.40069e-09
3.34086e-16
3.34095e-16
3.34084e-16
0.60526
1.35982e-12
3.85868e-07
3.04855e-06
5.7221e-06
3.68181e-07
3.96631e-09
4.67805e-12
7.55472e-14
5.48675e-14
1.40489e-13
1.07111e-12
9.8182e-12
7.40251e-11
4.24837e-10
7.1267e-10
2.681e-10
8.44041e-11
3.34095e-16
0.605137
0.99996
0.999956
0.999961
0.999961
0.999963
0.999966
0.999973
0.999977
0.999985
0.99999
0.999995
0.999998
0.999999
1
1
1
1
1
1
1
1
1
0.999211
0.949962
0.948298
0.950248
0.950598
0.951402
0.953216
0.957744
0.960762
0.967665
0.974447
0.982245
0.988024
0.99233
0.996007
0.998651
1
1
1
1
1
1
1
0.999235
0.313382
0.310037
0.314169
0.314719
0.317034
0.321943
0.33417
0.343436
0.366636
0.394957
0.439103
0.498335
0.58269
0.669532
0.770558
0.879267
0.989856
1
1
1
1
1
0.999915
1.93785e-36
1.92374e-36
-1.16836e-39
5.26259e-33
-3.18899e-33
6.02863e-33
6.59594e-31
2.36833e-31
-5.12708e-31
-1.75405e-32
-1.04548e-28
2.52293e-28
0.00169076
0.0245619
0.0676474
0.132329
0.250465
0.471323
0.778272
0.997359
1
1
1
6.21868e-19
3.6323e-17
1.19292e-15
2.45577e-14
3.32548e-13
3.40597e-12
6.89072e-12
4.39159e-12
1.03981e-12
1.01856e-31
1.64707e-09
2.45083e-09
-8.06438e-26
1.57112e-26
-1.68286e-26
2.85131e-28
0.00175438
0.0133152
0.0818075
0.228514
0.485951
0.81972
0.998989
3.2429e-18
1.88842e-16
6.06811e-15
1.1718e-13
1.58259e-12
1.66702e-11
3.05434e-11
3.17373e-11
1.04783e-11
-1.53007e-31
8.76348e-08
6.5206e-07
1.30616e-06
1.16697e-06
5.11212e-07
5.73245e-09
1.35495e-09
1.53008e-05
0.000393161
0.00343502
0.0147802
0.10214
0.299805
4.75309e-18
2.71971e-16
8.59605e-15
1.59341e-13
2.10783e-12
2.2397e-11
3.77005e-11
6.75597e-11
5.71655e-11
-2.1917e-29
5.04815e-07
2.45591e-06
2.45537e-06
2.45591e-06
1.00768e-06
1.30906e-08
1.35494e-09
1.41514e-09
2.21711e-08
7.35274e-07
3.08738e-05
0.000864672
0.00796634
5.02563e-18
2.84573e-16
8.89006e-15
1.60941e-13
2.06306e-12
2.21104e-11
3.00971e-11
1.05012e-10
2.64024e-10
8.88705e-28
6.21617e-07
1.93535e-06
1.74066e-06
6.02067e-07
4.39577e-08
3.55366e-08
2.82479e-08
3.93128e-09
2.19354e-09
2.54376e-07
7.23498e-07
1.71728e-06
7.50184e-06
4.40941e-18
2.40862e-16
7.18076e-15
1.21013e-13
1.32972e-12
1.47665e-11
1.17432e-11
1.8093e-10
1.00589e-09
4.06051e-09
4.05798e-08
1.30688e-11
1.30711e-11
1.30688e-11
1.30711e-11
5.00316e-08
5.5528e-08
2.99775e-08
2.19913e-09
7.83568e-07
3.09086e-06
6.20597e-06
6.7663e-06
2.42493e-18
1.26047e-16
3.57009e-15
5.72246e-14
5.71311e-13
6.21946e-12
2.30741e-12
2.50996e-10
1.75278e-09
1.42129e-08
4.42516e-11
4.34794e-11
7.40043e-11
4.54312e-10
1.31037e-11
1.21571e-08
5.04663e-08
3.67007e-08
4.66117e-09
6.24798e-14
6.0623e-14
6.57771e-07
1.54309e-06
1.00229e-18
5.07639e-17
1.40352e-15
2.19626e-14
2.09431e-13
2.21221e-12
5.23695e-13
2.83671e-10
1.52234e-09
1.29105e-09
3.77353e-10
1.23144e-10
2.25231e-10
1.01603e-09
1.11904e-09
4.60612e-10
7.8517e-10
4.44444e-09
3.39482e-09
5.98373e-10
7.60906e-11
6.71638e-12
6.74085e-12
3.41036e-19
1.69392e-17
4.60631e-16
7.09347e-15
6.73146e-14
6.65281e-13
5.2369e-13
1.25217e-10
5.61066e-10
2.99779e-10
2.17952e-10
1.38841e-10
2.11279e-10
6.83141e-10
9.19094e-10
4.60609e-10
1.20953e-10
1.20953e-10
1.58079e-10
1.76215e-10
1.25275e-10
4.58897e-11
2.44654e-11
9.49704e-20
4.61095e-18
1.23453e-16
1.88023e-15
1.82196e-14
1.57456e-13
5.23692e-13
3.89373e-11
5.56253e-11
8.13887e-11
7.4672e-11
5.57444e-11
6.66971e-11
1.37997e-10
2.36748e-10
3.75637e-10
3.84457e-10
3.6695e-10
3.1004e-10
2.14376e-10
1.17223e-10
6.36602e-11
2.99113e-11
2.14572e-20
1.02799e-18
2.73331e-17
4.16655e-16
4.18537e-15
3.38238e-14
3.38367e-13
6.09524e-12
1.31963e-11
1.73632e-11
1.61778e-11
1.20046e-11
1.45688e-11
2.15685e-11
3.67415e-11
7.38654e-11
9.10482e-11
8.51838e-11
7.80291e-11
6.00035e-11
3.51636e-11
1.99522e-11
1.35755e-11
3.88053e-21
1.85079e-19
4.93371e-18
7.64801e-17
8.10126e-16
6.69951e-15
1.23192e-13
5.81723e-13
1.61697e-12
2.05682e-12
1.91981e-12
1.67674e-12
2.24743e-12
3.96722e-12
6.86681e-12
8.79408e-12
9.73586e-12
9.96174e-12
9.56027e-12
8.14098e-12
5.66557e-12
3.42953e-12
2.14565e-12
5.50371e-22
2.65316e-20
7.21321e-19
1.16372e-17
1.32469e-16
1.15765e-15
2.67592e-14
5.76094e-14
7.99372e-14
8.24117e-14
9.26127e-14
1.64349e-13
3.8851e-13
7.82973e-13
1.11904e-12
1.23727e-12
1.27173e-12
1.25024e-12
1.15366e-12
9.62213e-13
6.84831e-13
4.22069e-13
2.58692e-13
5.93221e-23
2.9387e-21
8.31381e-20
1.42723e-18
1.76443e-17
1.59338e-16
3.32538e-15
7.41888e-15
7.57356e-15
6.2019e-15
8.14558e-15
2.2816e-14
6.65602e-14
1.37476e-13
1.78982e-13
1.88802e-13
1.87156e-13
1.73078e-13
1.43545e-13
1.01556e-13
6.3659e-14
3.72558e-14
2.17887e-14
4.65797e-24
2.47258e-22
7.54381e-21
1.41555e-19
1.90528e-18
1.72826e-17
2.1513e-16
6.33529e-16
7.92518e-16
7.79203e-16
1.16206e-15
3.17634e-15
8.43376e-15
1.55316e-14
1.86114e-14
1.90554e-14
1.84179e-14
1.62496e-14
1.24652e-14
7.99929e-15
4.61034e-15
2.24952e-15
1.95279e-15
2.48802e-25
1.47375e-23
5.0016e-22
1.03568e-20
1.48885e-19
1.33999e-18
9.17924e-18
2.07272e-17
2.60956e-17
3.691e-17
9.27674e-17
2.839e-16
6.81364e-16
1.03115e-15
1.13752e-15
1.1428e-15
1.09598e-15
9.7198e-16
7.72178e-16
5.20023e-16
2.48549e-16
1.79701e-16
3.82632e-16
8.18232e-27
5.81682e-25
2.28445e-23
5.24006e-22
7.89908e-21
6.88553e-20
3.77774e-19
6.92407e-19
1.07393e-18
2.2593e-18
7.07136e-18
2.01409e-17
3.63514e-17
4.00968e-17
4.03877e-17
4.02005e-17
3.96499e-17
3.77198e-17
3.31263e-17
2.37512e-17
1.31065e-17
2.29956e-17
2.35049e-16
1.47138e-28
1.24613e-26
5.58179e-25
1.376e-23
2.11991e-22
1.7656e-21
7.10577e-21
1.75042e-20
4.45792e-20
1.3565e-19
4.26995e-19
1.00504e-18
1.20034e-18
1.12073e-18
1.00576e-18
1.03636e-18
1.11279e-18
1.10639e-18
9.9662e-19
6.5202e-19
8.31288e-19
1.05271e-17
2.48359e-16
2.11227e-30
1.18401e-28
3.87479e-27
8.33788e-26
1.46515e-24
1.71795e-23
1.0346e-22
4.6849e-22
1.94596e-21
6.77369e-21
1.85329e-20
3.55585e-20
3.9359e-20
3.69545e-20
3.16095e-20
2.8724e-20
2.70231e-20
2.45886e-20
1.77276e-20
1.90135e-20
2.39033e-19
1.00175e-17
3.68086e-16
8.74009e-32
5.10629e-30
1.69178e-28
3.58535e-27
6.07723e-26
7.10953e-25
4.40208e-24
1.98828e-23
7.7616e-23
2.46342e-22
5.69773e-22
9.79847e-22
1.09799e-21
1.06185e-21
8.79075e-22
5.36585e-22
2.83847e-22
1.29204e-22
1.72206e-22
3.01257e-21
1.97203e-19
1.16865e-17
4.3898e-16
1.76489e-33
1.05577e-31
3.42911e-30
6.68803e-29
9.26653e-28
8.99014e-27
6.73473e-26
3.75051e-25
1.59402e-24
4.94999e-24
1.09011e-23
2.09991e-23
2.66635e-23
2.64225e-23
2.23725e-23
1.3681e-23
4.35467e-24
3.67432e-24
4.00552e-23
1.70673e-21
1.85081e-19
1.21779e-17
4.49638e-16
6.57166e-39
2.70062e-37
5.89521e-36
7.56997e-35
6.37564e-34
2.33473e-33
6.42302e-33
4.31599e-32
2.77617e-31
1.22411e-30
3.73472e-30
8.96136e-30
1.1746e-29
1.05495e-29
1.21819e-29
2.64433e-28
1.36008e-26
5.37265e-25
1.69856e-23
9.71279e-22
1.54592e-19
1.0495e-17
3.60562e-16
4.13227e-43
2.29633e-41
7.18069e-40
1.47381e-38
2.41344e-37
3.63903e-36
1.03413e-34
1.7148e-33
1.28694e-32
5.94294e-32
1.82863e-31
4.34132e-31
5.49932e-31
4.9098e-31
1.29945e-30
7.68452e-29
4.35413e-27
1.87179e-25
6.80452e-24
4.99245e-22
8.0004e-20
5.30871e-18
1.69939e-16
1.95075e-46
1.06259e-44
3.1152e-43
5.69109e-42
7.42078e-41
7.13658e-40
5.30963e-39
3.12388e-38
1.4567e-37
5.79527e-37
2.01062e-36
1.48332e-35
5.12549e-35
1.87085e-33
2.12548e-31
1.98129e-29
1.21896e-27
5.78929e-26
2.47787e-24
2.19734e-22
3.1993e-20
2.08044e-18
6.67534e-17
4.98062e-52
3.55776e-50
1.37954e-48
3.43299e-47
6.23166e-46
8.68329e-45
9.65434e-44
8.9187e-43
6.71744e-42
4.3973e-41
2.65798e-40
1.00188e-38
1.80441e-36
3.24533e-34
4.26976e-32
4.4207e-30
2.9527e-28
1.57907e-26
8.08786e-25
8.03607e-23
1.05175e-20
6.81415e-19
2.20714e-17
1.4493e-55
1.13596e-53
4.79918e-52
1.3204e-50
2.67697e-49
4.29972e-48
5.66635e-47
6.46209e-46
6.16378e-45
6.24828e-44
3.80309e-42
1.00855e-39
2.31674e-37
4.78599e-35
7.13372e-33
8.23536e-31
6.01827e-29
3.71659e-27
2.30168e-25
2.35597e-23
2.68322e-21
1.73006e-19
5.76296e-18
5.37291e-62
5.32066e-60
3.12193e-58
1.33e-56
4.45321e-55
1.21052e-53
2.67245e-52
8.28212e-51
1.73031e-48
7.12313e-46
2.56353e-43
8.76653e-41
2.36798e-38
5.6687e-36
9.73589e-34
1.26343e-31
1.02471e-29
7.51558e-28
5.65434e-26
5.50594e-24
5.1404e-22
3.22382e-20
1.31108e-18
2.85236e-67
4.73737e-65
4.32593e-63
2.67205e-61
1.24718e-59
6.80335e-58
1.73256e-55
1.00634e-52
5.48185e-50
2.83992e-47
1.2586e-44
5.23239e-42
1.7304e-39
4.92068e-37
1.00668e-34
1.50046e-32
1.38745e-30
1.25013e-28
1.15608e-26
1.04088e-24
7.49862e-23
4.3128e-21
5.63384e-19
1.67031e-71
4.11328e-69
5.36155e-67
4.75823e-65
4.41295e-63
1.67647e-60
1.38202e-57
1.16664e-54
8.70679e-52
6.16484e-49
3.71163e-46
2.01555e-43
8.60631e-41
3.00078e-38
7.54459e-36
1.32996e-33
1.44884e-31
1.65091e-29
1.91648e-27
1.78254e-25
1.18018e-23
8.05698e-22
6.08203e-19
4.41414e-76
1.63255e-73
3.46121e-71
7.37811e-69
4.2819e-66
5.23337e-63
6.37446e-60
7.46082e-57
7.74582e-54
7.56251e-51
6.15221e-48
4.40629e-45
2.42059e-42
1.08699e-39
3.50471e-37
7.86123e-35
1.0789e-32
1.63057e-30
2.57395e-28
3.47317e-26
4.28759e-24
7.72919e-22
1.01629e-18
6.94476e-80
3.3106e-77
9.29135e-75
3.00059e-72
2.95277e-69
5.40522e-66
1.02509e-62
1.85646e-59
3.03404e-56
4.72945e-53
6.09012e-50
6.63981e-47
5.5272e-44
3.7244e-41
1.80114e-38
6.14411e-36
1.518e-33
4.07719e-31
1.15087e-28
3.18954e-26
1.25829e-23
4.37135e-21
1.96798e-18
7.03565e-84
2.47582e-80
1.70943e-76
8.93033e-73
3.4781e-69
1.06274e-65
2.63299e-62
5.33656e-59
9.69273e-56
1.62765e-52
2.37125e-49
2.39052e-46
1.90654e-43
1.18126e-40
6.13931e-38
2.56787e-35
9.87145e-33
3.40696e-30
1.06489e-27
3.07182e-25
1.33617e-22
3.65502e-20
8.92577e-18
2.60062e-83
4.08179e-79
3.27518e-75
1.70555e-71
6.51587e-68
1.92758e-64
4.58903e-61
8.93707e-58
1.54896e-54
2.49967e-51
3.52504e-48
3.53784e-45
2.76489e-42
1.67365e-39
8.37273e-37
3.39263e-34
1.25752e-31
4.23996e-29
1.27364e-26
3.24317e-24
1.30736e-21
2.79263e-19
5.61985e-17
4.46939e-82
7.17568e-78
5.66393e-74
2.91023e-70
1.09148e-66
3.15306e-63
7.26685e-60
1.36427e-56
2.24627e-53
3.42082e-50
4.65992e-47
4.71238e-44
3.66202e-41
2.18162e-38
1.04968e-35
4.07444e-33
1.43477e-30
4.69079e-28
1.35858e-25
3.10482e-23
1.0766e-20
1.93959e-18
1.45331e-16
7.38536e-81
1.15799e-76
9.00701e-73
4.57476e-69
1.6886e-65
4.78161e-62
1.07317e-58
1.95231e-55
3.04002e-52
4.25174e-49
5.45648e-46
5.60391e-43
4.43318e-40
2.65357e-37
1.23954e-34
4.56713e-32
1.4718e-29
4.58159e-27
1.2677e-24
2.72298e-22
3.95831e-20
3.70926e-18
2.10346e-16
1.10809e-79
1.69857e-75
1.29874e-71
6.52823e-68
2.38031e-64
6.6561e-61
1.47075e-57
2.62762e-54
3.90241e-51
4.92708e-48
5.59059e-45
5.70569e-42
4.69972e-39
2.92827e-36
1.36614e-33
4.85228e-31
1.35049e-28
2.94388e-26
4.99415e-24
6.54723e-22
6.55965e-20
4.8457e-18
2.45644e-16
1.52666e-78
2.2564e-74
1.68874e-70
8.40967e-67
3.04629e-63
8.5071e-60
1.87823e-56
3.36096e-53
4.89271e-50
5.77563e-47
5.48337e-44
4.15687e-41
2.50125e-38
1.20238e-35
4.6154e-33
1.41694e-30
3.46206e-28
6.7297e-26
1.03031e-23
1.22626e-21
1.10068e-19
7.21483e-18
3.27063e-16
2.02417e-77
2.79663e-73
1.89747e-69
8.34024e-66
2.62152e-62
6.23366e-59
1.1567e-55
1.70793e-52
2.02298e-49
1.92332e-46
1.46567e-43
8.90173e-41
4.29956e-38
1.65056e-35
5.03735e-33
1.22876e-30
2.39358e-28
3.73628e-26
4.71037e-24
4.81794e-22
3.99128e-20
2.64771e-18
1.36435e-16
7.17507e-77
9.1706e-73
5.72917e-69
2.32685e-65
6.86409e-62
1.56065e-58
2.81513e-55
4.08885e-52
4.78934e-49
4.51768e-46
3.41631e-43
2.06628e-40
9.95731e-38
3.82799e-35
1.17029e-32
2.85615e-30
5.55978e-28
8.672e-26
1.08392e-23
1.09246e-21
8.8372e-20
5.7107e-18
2.85667e-16
0.99923
0.99975
0.999927
0.592871
0.999232
0.999725
0.999927
0.978736
0.999728
0.999723
0.999875
0.999813
1
0.999982
0.999986
0.999992
1
1
1
1
0.477667
0.5985
0.742625
0.937142
0.0170927
0.0341631
0.0696521
0.126036
2.41409e-05
9.29517e-05
0.00033003
0.00077928
7.17369e-06
8.72217e-06
1.14041e-05
1.39856e-05
3.73508e-07
1.55399e-05
4.10653e-05
4.10564e-05
3.39254e-07
2.8831e-07
1.45645e-12
2.73555e-05
1.45647e-12
1.45645e-12
1.45647e-12
2.71196e-07
4.84292e-12
1.96998e-12
1.67427e-12
8.25672e-13
1.01774e-11
8.34861e-12
6.66123e-12
4.75082e-12
1.52777e-12
1.26701e-12
9.98734e-13
8.34302e-13
1.8313e-13
1.50613e-13
1.25864e-13
9.68959e-14
1.56936e-14
1.42102e-14
1.4378e-14
1.56396e-14
2.13134e-15
2.61523e-15
3.72424e-15
5.95235e-15
7.42254e-16
1.27925e-15
2.36321e-15
4.6254e-15
5.81311e-16
1.09711e-15
2.26106e-15
5.82344e-15
6.62336e-16
1.36937e-15
3.53992e-15
1.29724e-14
1.03328e-15
2.36385e-15
7.2806e-15
3.36026e-14
1.27492e-15
3.19485e-15
1.15191e-14
6.42882e-14
1.33384e-15
3.53846e-15
1.39215e-14
7.78761e-14
1.1382e-15
3.37423e-15
1.43097e-14
6.30582e-14
5.77049e-16
2.02636e-15
1.00924e-14
4.16479e-14
2.42035e-16
9.48745e-16
5.47165e-15
2.94215e-14
9.01897e-17
4.90952e-16
4.30925e-15
3.37065e-14
3.5047e-17
4.03561e-16
6.35473e-15
8.85455e-14
2.57937e-17
7.44454e-16
1.87307e-14
2.95704e-13
4.47707e-17
2.07611e-15
4.96232e-14
6.35981e-13
8.97032e-17
3.67739e-15
7.71115e-14
8.585e-13
1.31394e-16
5.02895e-15
9.4086e-14
9.06744e-13
2.12497e-16
6.68274e-15
1.03622e-13
7.60144e-13
6.14467e-16
1.31808e-14
1.41163e-13
1.02416e-12
1.99297e-15
2.7986e-14
2.50178e-13
1.66091e-12
3.92637e-15
4.67267e-14
3.7041e-13
2.18073e-12
5.07709e-15
5.61783e-14
4.18619e-13
2.1961e-12
5.73173e-15
6.2365e-14
4.55107e-13
2.26529e-12
7.10918e-15
7.31241e-14
5.1538e-13
2.43355e-12
3.83773e-15
5.48447e-14
5.51894e-13
3.61361e-12
7.82971e-15
1.06736e-13
1.02342e-12
6.63669e-12
0.00999458
0.0195725
0.00869937
0.00105535
1.81171e-05
5.43978e-10
1.33652e-11
1.99338e-12
2.76727e-13
3.32312e-13
1.16414e-12
4.93472e-12
2.65433e-11
1.22656e-10
2.61589e-10
1.83472e-10
4.11591e-10
3.34084e-16
0.569193
0.882795
0.790686
0.330997
0.013744
4.86025e-05
1.83316e-08
1.25166e-10
6.2041e-11
4.17189e-11
3.32309e-13
3.32303e-13
3.33399e-13
1.15761e-11
3.71098e-11
7.89789e-11
8.96123e-11
1.23227e-09
3.34094e-16
0.474044
0.999428
1
0.776613
0.124211
0.00200809
1.13557e-07
1.37206e-10
1.45463e-10
3.55453e-10
1.94005e-09
4.06824e-09
1.666e-09
3.01036e-11
1.75139e-12
1.75728e-12
2.25988e-09
1.59675e-08
3.34059e-16
0.455633
0.999996
1
1
0.518131
0.0114316
6.94849e-05
3.56225e-08
9.87425e-11
2.83657e-10
2.02817e-09
5.53594e-09
5.53582e-09
3.87755e-09
1.14886e-08
6.23705e-08
7.83561e-08
6.27828e-08
3.34094e-16
0.626343
1
1
1
0.953726
0.464018
0.00341562
3.3865e-16
3.39644e-16
5.43826e-11
4.67184e-10
1.69869e-09
2.24928e-09
1.81848e-09
8.35154e-09
3.25029e-08
6.65328e-08
3.83316e-08
3.34058e-16
0.783051
0.998744
1
1
1
0.969274
0.64638
0.209417
0.0052403
3.37241e-16
3.35313e-16
3.37233e-16
3.35314e-16
3.37191e-16
3.35306e-16
3.37164e-16
3.35224e-16
3.37141e-16
0.0140353
0.861329
0.275928
0.609436
0.974544
1
1
0.994158
0.904345
0.705502
0.443279
0.34971
0.314547
0.277726
0.23461
0.203044
0.171347
0.112616
0.0742687
0.426091
0.94597
0.00272312
0.0411166
0.181881
0.469805
0.824103
0.997819
0.999912
0.999912
0.995816
0.98484
0.97435
0.961214
0.934602
0.906568
0.878121
0.803098
0.770378
0.907952
0.991658
1.80304e-05
1.00883e-05
0.00168767
0.0147599
0.110868
0.307464
0.56945
0.774312
0.861772
0.886979
0.903216
0.920809
0.95308
0.995054
0.995054
0.995054
0.993502
0.993891
0.993891
3.71087e-05
1.0101e-05
2.43167e-06
4.61047e-08
0.000785087
0.00593504
0.0269902
0.0901573
0.176558
0.226342
0.264045
0.306206
0.365999
0.4753
0.662071
0.899813
0.99389
0.993891
0.993891
3.82566e-05
3.43891e-05
3.57135e-06
4.60998e-08
9.30509e-11
1.77059e-06
2.65733e-05
0.000259603
0.000932536
0.00180695
0.00290049
0.00462976
0.00816
0.0160119
0.0576464
0.340916
0.825338
0.986296
0.950985
8.18082e-06
8.87109e-06
2.62928e-06
6.65969e-09
9.30526e-11
9.28776e-11
9.28814e-11
9.28776e-11
1.16467e-08
5.33767e-08
1.75982e-07
6.60789e-07
3.44392e-06
4.50719e-05
0.000647005
0.0422544
0.545226
0.974956
0.922649
8.25668e-13
8.23098e-13
1.26728e-07
4.3745e-08
1.92067e-09
3.37817e-10
9.67494e-11
1.00917e-10
1.36222e-09
2.92427e-09
1.61404e-09
1.38857e-09
1.38855e-09
1.72912e-05
0.00424702
0.117055
0.67304
0.989945
0.933661
1.27052e-12
8.23103e-13
8.39785e-11
3.08096e-09
1.43976e-09
3.69966e-10
1.13322e-10
6.04756e-11
1.19445e-09
1.94746e-09
1.61404e-09
2.75286e-06
0.000802092
0.0129408
0.11467
0.529066
0.910225
0.990473
0.959936
5.35852e-13
8.23103e-13
7.28315e-12
1.1846e-10
1.87113e-10
1.41085e-10
7.60359e-11
4.44905e-11
9.14129e-10
2.17073e-09
1.70721e-09
1.38385e-06
0.00293931
0.127089
0.607991
0.884062
0.968479
0.99047
0.899984
9.35176e-14
2.22485e-13
2.05091e-12
2.35065e-11
6.22411e-11
4.72148e-11
4.71896e-11
4.77542e-11
3.38133e-10
2.21386e-09
1.6954e-09
2.85943e-06
0.0091767
0.353179
0.885888
0.94022
0.94022
0.748312
0.419957
3.82486e-14
9.50281e-14
7.83918e-13
3.38594e-12
3.51232e-10
9.85993e-10
7.10939e-10
7.14826e-11
9.97215e-11
1.15445e-09
5.61922e-10
1.51245e-06
0.0033259
0.0827857
0.429242
0.777449
0.935636
0.622636
0.339459
4.81221e-14
2.22604e-13
5.41882e-12
4.31469e-11
1.11978e-10
1.40549e-09
3.09431e-09
2.95408e-09
6.89868e-10
5.83379e-10
5.61781e-10
9.95427e-09
0.000104873
3.02635e-05
3.02641e-05
0.182936
0.678109
0.678123
0.435019
8.12966e-14
9.50704e-13
8.41177e-12
1.71078e-11
5.9638e-09
1.45112e-09
1.45112e-09
2.42577e-09
3.11878e-09
2.22447e-09
6.68611e-10
6.3534e-10
4.78906e-10
3.02635e-05
0.000117393
0.00729914
0.30758
0.508883
0.350343
2.24331e-13
1.11636e-12
1.66117e-10
1.52048e-10
5.17145e-12
7.3341e-08
1.50092e-07
2.36226e-08
6.29171e-09
7.64385e-09
5.03395e-09
7.99435e-10
4.78977e-10
6.39324e-06
1.5422e-06
0.00259743
0.114762
0.356656
0.158837
1.08292e-12
1.08292e-12
4.19117e-10
1.10534e-09
5.25825e-12
1.23572e-07
9.55113e-07
3.61708e-07
6.29176e-09
7.64083e-09
7.05904e-09
4.61077e-09
2.44192e-08
1.86516e-08
2.66482e-09
2.14879e-05
0.0169834
0.350873
0.158837
2.30538e-12
1.24147e-12
1.22311e-12
5.1294e-09
5.41737e-09
8.21031e-09
1.39013e-09
2.56297e-06
3.68209e-06
6.96918e-10
7.1215e-10
1.69424e-09
1.20984e-08
2.44017e-09
2.6649e-09
2.01979e-07
2.95104e-11
0.346349
0.158837
2.88357e-12
4.0529e-12
1.24106e-12
4.10033e-09
3.00692e-08
1.73337e-08
1.36042e-09
3.95955e-06
1.2638e-05
1.26243e-05
7.42166e-07
1.35305e-09
1.35287e-09
1.35305e-09
2.86898e-09
2.74945e-09
2.95104e-11
0.220382
0.158837
2.88236e-12
5.03324e-12
3.62881e-12
2.57396e-12
4.23312e-08
1.14672e-07
1.81441e-09
1.81647e-09
1.03711e-05
1.6395e-05
1.63881e-05
1.25473e-06
1.35305e-09
1.40386e-09
3.4822e-09
2.07252e-09
2.95104e-11
0.00768212
0.263869
1.39791e-12
4.39617e-12
1.01241e-11
3.01788e-12
1.95008e-12
1.0143e-06
1.83496e-06
3.94454e-07
1.83541e-07
1.45928e-05
2.36286e-05
1.81003e-05
1.52517e-06
4.58582e-08
3.04328e-09
1.54582e-09
2.95104e-11
0.000115942
0.266427
6.63913e-13
4.16358e-12
2.4617e-11
3.1421e-12
1.94999e-12
1.85562e-06
2.08444e-06
1.628e-06
1.83538e-07
3.04702e-07
2.36269e-05
2.51437e-05
1.13335e-05
1.07246e-07
2.01857e-09
1.65849e-09
5.02847e-10
2.95104e-11
0.256736
6.28877e-13
9.48822e-12
3.61727e-11
3.14016e-12
5.85985e-08
6.04885e-07
1.70307e-06
1.23932e-06
4.94612e-07
4.00614e-08
1.06441e-05
2.51452e-05
1.80113e-05
3.5135e-07
2.05007e-09
1.91824e-09
1.95279e-10
2.95104e-11
0.253578
1.36412e-12
2.18315e-11
3.82929e-11
1.00652e-10
2.81539e-08
3.26804e-09
3.26804e-09
2.67215e-06
2.06045e-07
4.00621e-08
4.22784e-08
1.90819e-05
1.15626e-05
1.99881e-07
3.92749e-09
1.60402e-09
2.95104e-11
2.95104e-11
0.265151
3.82748e-12
3.04821e-11
3.04813e-11
6.63248e-08
6.82059e-08
6.82624e-09
3.28913e-08
1.6476e-05
3.94594e-06
4.62514e-06
3.15288e-07
3.97043e-06
1.80901e-06
7.46811e-08
2.43918e-09
1.60407e-09
6.51684e-05
0.000206986
0.265197
7.50787e-12
3.798e-11
3.04832e-11
2.05234e-07
9.44864e-07
6.82409e-09
3.07293e-05
0.0001654
0.000138408
5.65626e-06
9.9071e-07
1.99204e-06
1.36833e-07
2.69164e-08
2.43868e-09
4.44207e-06
8.81193e-05
0.000258282
0.126224
9.96994e-12
3.93303e-11
3.06225e-11
2.99166e-07
1.20264e-06
1.82424e-05
0.000171447
0.0001803
0.0001803
1.9269e-05
3.64786e-11
4.68193e-07
8.55462e-08
7.09759e-08
2.80982e-06
3.54305e-05
6.55849e-05
6.55846e-05
0.000594005
9.67634e-12
3.15647e-11
3.06217e-11
3.91842e-07
1.45051e-06
6.23656e-05
0.0001803
0.0001803
0.0001803
9.46617e-05
3.64786e-11
9.3411e-09
2.04845e-08
2.04846e-08
1.07186e-05
0.000112265
0.001081
0.0169756
0.000324324
7.3424e-12
3.86094e-11
2.28493e-09
3.67269e-07
1.28953e-06
4.48576e-05
0.0001803
0.0001803
0.000165168
3.11319e-05
3.64786e-11
3.64786e-11
3.64786e-11
2.64297e-06
1.10529e-05
1.10521e-05
0.0620279
0.0672211
0.134328
6.3655e-12
5.29528e-11
3.30927e-09
4.11043e-07
1.34766e-06
1.02338e-05
7.22835e-05
0.000105383
2.68647e-05
6.16497e-07
3.64786e-11
2.66278e-07
2.38815e-07
1.95571e-06
3.27398e-11
0.00599358
0.276309
0.132905
0.375659
1.06014e-11
1.46618e-10
6.95138e-09
3.39965e-07
7.41429e-07
2.81194e-07
4.12492e-07
1.42372e-06
7.91279e-07
6.99375e-07
3.05723e-06
3.80434e-06
3.43452e-06
3.27398e-11
3.27398e-11
0.116364
0.458195
0.399549
0.399549
1.81054e-11
4.42911e-10
1.77522e-08
8.10391e-08
9.77901e-08
1.73346e-08
9.77425e-09
9.79546e-09
8.28559e-08
2.52811e-06
3.80434e-06
3.80616e-06
1.43069e-06
3.27398e-11
3.27398e-11
0.123779
0.468776
0.468773
0.342129
2.01636e-11
5.85694e-10
4.67686e-08
1.84649e-07
3.19003e-08
9.77425e-09
9.77425e-09
9.77425e-09
2.27577e-07
1.48276e-06
1.91396e-06
3.6253e-07
2.29344e-07
2.29376e-07
3.27398e-11
0.0161622
0.219535
0.438116
0.229617
1.53892e-11
4.10396e-10
5.38366e-08
3.03088e-07
1.08331e-07
9.77425e-09
4.08889e-08
1.57439e-07
1.98864e-07
6.56035e-08
1.15767e-07
5.49353e-06
1.86722e-05
1.99497e-05
2.71216e-05
0.000395888
0.00774056
0.0835675
0.0739485
1.34143e-11
3.81616e-10
8.16711e-08
4.6746e-07
9.77425e-09
9.77425e-09
4.70405e-08
1.62222e-07
1.11754e-07
4.72709e-08
7.11875e-07
1.47004e-05
1.38125e-05
2.70419e-06
1.12756e-06
5.48184e-07
1.49021e-05
0.000376869
0.00310622
1.05648e-11
3.99372e-11
1.29371e-08
1.08636e-06
2.11957e-06
9.77425e-09
1.31899e-08
3.96146e-08
1.73762e-08
1.73774e-08
9.40008e-06
1.17164e-05
1.31066e-06
1.28744e-06
1.28744e-06
5.48197e-07
3.89446e-08
3.04968e-07
4.47541e-05
2.01796e-11
4.68142e-11
2.38503e-09
3.21514e-06
8.01482e-06
3.06971e-06
9.13698e-09
8.9398e-09
9.13698e-09
7.996e-06
1.1373e-05
1.12292e-06
1.68195e-06
8.40867e-07
9.1055e-07
2.08548e-06
3.89506e-08
3.33565e-07
4.71473e-06
4.06011e-11
1.39642e-10
1.2357e-09
1.51354e-07
8.1745e-06
1.76104e-05
1.10127e-05
5.29143e-06
4.0286e-06
3.58353e-06
4.29138e-06
1.80806e-08
4.22306e-08
-6.38033e-32
-1.94954e-58
2.25526e-06
1.95175e-06
5.12162e-07
2.61082e-08
)
;

boundaryField
{
    leftWall
    {
        type            zeroGradient;
    }
    rightWall
    {
        type            zeroGradient;
    }
    lowerWall
    {
        type            zeroGradient;
    }
    atmosphere
    {
        type            inletOutlet;
        inletValue      uniform 0;
        value           nonuniform List<scalar> 
46
(
0
0
0
0
0
0
0
0
0
0
0
0
0
0
0
0
0
0
0
0
0
0
0
0
0
1.02342e-12
6.63669e-12
4.06011e-11
1.39642e-10
1.2357e-09
1.51354e-07
8.1745e-06
1.76104e-05
1.10127e-05
5.29143e-06
4.0286e-06
3.58353e-06
4.29138e-06
1.80806e-08
0
0
0
0
1.95175e-06
5.12162e-07
2.61082e-08
)
;
    }
    defaultFaces
    {
        type            empty;
    }
}


// ************************************************************************* //
