/*--------------------------------*- C++ -*----------------------------------*\
| =========                 |                                                 |
| \\      /  F ield         | OpenFOAM: The Open Source CFD Toolbox           |
|  \\    /   O peration     | Version:  2012                                  |
|   \\  /    A nd           | Website:  www.openfoam.com                      |
|    \\/     M anipulation  |                                                 |
\*---------------------------------------------------------------------------*/
FoamFile
{
    version     2.0;
    format      ascii;
    class       volScalarField;
    location    "0.58";
    object      maxKappa;
}
// * * * * * * * * * * * * * * * * * * * * * * * * * * * * * * * * * * * * * //

dimensions      [0 0 0 0 0 0 0];


internalField   nonuniform List<scalar> 
2268
(
9.14268e-07
1.83218e-06
2.65895e-06
3.35593e-06
3.98227e-06
4.70122e-06
5.28624e-06
5.641e-06
5.94626e-06
6.10534e-06
6.10534e-06
6.09714e-06
5.98178e-06
5.82584e-06
5.6412e-06
5.36438e-06
5.00163e-06
4.5834e-06
4.13961e-06
3.66253e-06
3.08019e-06
2.41414e-06
1.66864e-06
1.10387e-06
1.91978e-06
2.7147e-06
3.41045e-06
4.04283e-06
4.74966e-06
5.31293e-06
5.6638e-06
5.9987e-06
6.13855e-06
6.13855e-06
6.11079e-06
6.02765e-06
5.8577e-06
5.64235e-06
5.35129e-06
4.9963e-06
4.60224e-06
4.16143e-06
3.65223e-06
2.99282e-06
2.2112e-06
1.41327e-06
1.44044e-06
2.13212e-06
2.85249e-06
3.52741e-06
4.16392e-06
4.84087e-06
5.35001e-06
5.6999e-06
6.02077e-06
6.15096e-06
6.15096e-06
6.14997e-06
6.09644e-06
5.93924e-06
5.71026e-06
5.40767e-06
5.06373e-06
4.70845e-06
4.33514e-06
3.89967e-06
3.31554e-06
2.59798e-06
1.80773e-06
1.76462e-06
2.37724e-06
3.01618e-06
3.66931e-06
4.31927e-06
4.96999e-06
5.43634e-06
5.81097e-06
6.13274e-06
6.25588e-06
6.26076e-06
6.26076e-06
6.17147e-06
5.95882e-06
5.677e-06
5.36329e-06
5.0418e-06
4.71872e-06
4.34131e-06
3.94279e-06
3.45699e-06
3.03912e-06
2.56295e-06
2.19633e-06
2.72354e-06
3.26268e-06
3.873e-06
4.52812e-06
5.13443e-06
5.5346e-06
5.91335e-06
6.20297e-06
6.30074e-06
6.33227e-06
6.33227e-06
6.27139e-06
6.08789e-06
5.83509e-06
5.51325e-06
5.1664e-06
4.86383e-06
4.55735e-06
4.22069e-06
3.78354e-06
3.39448e-06
2.88632e-06
2.56725e-06
3.03164e-06
3.49798e-06
4.08058e-06
4.74993e-06
5.32596e-06
5.70843e-06
6.13714e-06
6.42239e-06
6.48296e-06
6.49898e-06
6.49898e-06
6.38467e-06
6.1063e-06
5.78242e-06
5.44787e-06
5.11449e-06
4.85023e-06
4.57256e-06
4.33611e-06
4.0345e-06
3.9837e-06
3.97442e-06
3.04623e-06
3.43683e-06
3.83448e-06
4.37916e-06
5.04e-06
5.55881e-06
5.90139e-06
6.3147e-06
6.51736e-06
6.55331e-06
6.60268e-06
6.60268e-06
6.54153e-06
6.33287e-06
6.05372e-06
5.68584e-06
5.26587e-06
4.98529e-06
4.79046e-06
4.65277e-06
4.46186e-06
4.46186e-06
4.42334e-06
4.76841e-06
5.14679e-06
5.36758e-06
5.74805e-06
6.23646e-06
6.67426e-06
6.55492e-06
6.67501e-06
6.81881e-06
6.87757e-06
6.87941e-06
6.87941e-06
6.69822e-06
6.37484e-06
6.00363e-06
5.62531e-06
5.21093e-06
4.95981e-06
4.81294e-06
4.79864e-06
5.09245e-06
5.87167e-06
5.87167e-06
0.00152602
0.00152602
0.00145219
0.00143043
0.00143043
0.00121486
0.000756454
0.000702986
0.000776761
0.000799741
0.000823305
0.000823305
0.000795946
0.00074806
0.000737449
0.000722145
0.000686496
0.000600758
0.000415884
0.00195376
0.00285122
0.00360093
0.00360093
0.00293597
0.00165526
0.000749813
0.000899759
0.00150267
0.00158644
0.00158644
0.00124595
0.000930951
0.000855554
0.000904624
0.000904624
0.000846278
0.000562366
0.00039905
0.00170191
0.00183207
0.0019079
0.0019079
0.000975628
0.000358939
0.000927418
0.00102084
0.00102084
0.00136145
0.00213238
0.00231364
0.00231364
0.00223013
0.00229153
0.00229153
0.00226253
0.00148008
0.000652533
0.00218607
0.00218607
0.00205914
0.00149587
0.00097097
0.00023985
0.000327591
0.00169168
0.00313297
0.00313297
0.0029888
0.00157001
0.00222032
0.00286433
0.00298301
0.00298301
0.00253955
0.00177864
0.000586213
0.00227529
0.00227529
0.00172711
0.00128327
0.00128327
0.000386933
0.000100712
0.000605239
0.00181479
0.00310507
0.00310507
0.00295056
0.00182414
0.00208742
0.00216149
0.00216149
0.00200855
0.00187187
0.000686144
0.00228208
0.00228208
0.00132104
0.0013521
0.0013521
0.000298823
9.25235e-05
0.000454858
0.00144331
0.00236408
0.00271131
0.00271131
0.00200241
0.000978545
0.000568162
0.00110519
0.00185616
0.00185616
0.000795779
0.00230857
0.00230857
0.00199136
0.00146163
0.000936456
0.000127429
0.000151471
0.00104113
0.0017395
0.00229998
0.00265192
0.00265192
0.00223161
0.00114095
0.00032969
0.000723856
0.00147961
0.00147961
0.000940414
0.00333266
0.00333266
0.00309857
0.00153978
0.000561714
8.61089e-05
0.000432913
0.00131563
0.00161689
0.00208107
0.00271044
0.00271044
0.00233701
0.00119992
0.000441138
0.000645865
0.00139876
0.00139876
0.00111236
6.74244e-05
6.68719e-05
6.77921e-05
6.93212e-05
7.04882e-05
6.95813e-05
6.58147e-05
6.36896e-05
5.46901e-05
4.18608e-05
2.69886e-05
1.85398e-05
1.37351e-05
9.87737e-06
6.69007e-06
6.16263e-06
5.54778e-06
5.33007e-06
5.68481e-06
6.41994e-06
7.61835e-06
9.62707e-06
1.07551e-05
0.000119141
0.000119141
0.000121546
0.000125494
0.000128123
0.00013056
0.000136355
0.00013805
0.000155626
0.000168641
0.00025191
0.000121282
6.50443e-05
3.83615e-05
1.40762e-05
1.16469e-05
9.10609e-06
5.95681e-06
5.51671e-06
5.71638e-06
6.86624e-06
8.88411e-06
1.07551e-05
0.000111893
0.000108387
0.000110069
0.000110872
0.000109492
0.000107358
0.000113151
0.000140186
0.000190827
0.000299618
0.000301235
0.000301235
0.000124203
0.00019799
9.95968e-05
7.24602e-05
4.69426e-05
1.15154e-05
7.68584e-06
9.54996e-06
1.04939e-05
1.02909e-05
1.09899e-05
0.000106903
9.89121e-05
9.97971e-05
9.42462e-05
8.14629e-05
6.62519e-05
5.77838e-05
9.17233e-05
0.000142737
0.000197401
0.000232644
0.000287625
0.000287625
0.000251949
0.000220373
0.000103549
0.000207924
0.000186508
9.83124e-05
8.1737e-05
4.25157e-05
1.98462e-05
2.11235e-05
0.000104093
0.000104093
0.000102412
0.000101652
9.89994e-05
9.34829e-05
8.39251e-05
6.93113e-05
6.83508e-05
0.000130594
0.000141428
0.000236263
0.000227893
0.000206961
0.000143902
0.000219935
0.000347758
0.000347758
0.000283165
0.000178006
0.000175902
0.00019155
0.000193012
9.49659e-05
9.21754e-05
8.88882e-05
8.53208e-05
7.76543e-05
6.89603e-05
5.77247e-05
5.35216e-05
4.56467e-05
6.16523e-05
0.000121228
0.000104637
0.000137941
0.00013409
0.000147312
0.000212021
0.000266434
0.000262831
0.000179257
0.0002049
0.000290063
0.000304158
0.000304158
9.39069e-05
9.39069e-05
9.11177e-05
8.78578e-05
8.23173e-05
7.49285e-05
6.39173e-05
5.31298e-05
4.60045e-05
5.70279e-05
6.50709e-05
6.42161e-05
4.59838e-05
9.44991e-05
6.61478e-05
0.00013966
0.000206224
0.000206224
0.000171854
0.000161537
0.000199811
0.000180968
0.000216871
8.61348e-05
8.40518e-05
8.00381e-05
7.58511e-05
6.77702e-05
5.95458e-05
4.95611e-05
4.26373e-05
3.85008e-05
3.56867e-05
4.89096e-05
4.52481e-05
4.83427e-05
5.44521e-05
4.52546e-05
5.06236e-05
0.000121068
0.000160884
0.000106401
0.000133296
0.000131046
0.000136835
0.000136835
8.99531e-05
8.99531e-05
8.74506e-05
8.45142e-05
7.92401e-05
7.34969e-05
6.65105e-05
6.00094e-05
5.5954e-05
5.34676e-05
5.34676e-05
4.93369e-05
4.32847e-05
5.44521e-05
4.1814e-05
5.45834e-05
6.31077e-05
7.82128e-05
5.60156e-05
6.51104e-05
8.57697e-05
0.000117223
0.000115301
8.64703e-05
8.54958e-05
8.21627e-05
7.9672e-05
7.35698e-05
6.98862e-05
6.36372e-05
6.01404e-05
5.63302e-05
5.65401e-05
5.45186e-05
6.00453e-05
5.6161e-05
6.50451e-05
5.60181e-05
5.63303e-05
5.26606e-05
4.93906e-05
3.34019e-05
3.70493e-05
4.73767e-05
7.27188e-05
0.000132006
9.29752e-05
9.29752e-05
9.09603e-05
8.86906e-05
8.48648e-05
8.08699e-05
7.66998e-05
7.26761e-05
6.98511e-05
6.82845e-05
6.68399e-05
6.96706e-05
6.81076e-05
7.32059e-05
6.90508e-05
7.04087e-05
6.71598e-05
6.32255e-05
5.34342e-05
6.71734e-05
9.28956e-05
0.000132439
0.0001682
9.50155e-05
9.45518e-05
9.2061e-05
9.10003e-05
8.68572e-05
8.515e-05
8.13187e-05
7.97547e-05
7.64573e-05
7.79862e-05
7.44699e-05
7.94711e-05
7.52608e-05
8.20631e-05
7.64813e-05
8.0152e-05
7.46773e-05
7.53679e-05
7.28104e-05
8.29751e-05
0.000104479
0.000142905
0.000202708
0.000101922
0.000101804
0.000100221
9.92363e-05
9.65365e-05
9.47546e-05
9.17242e-05
9.09068e-05
8.7894e-05
8.99497e-05
8.63405e-05
9.10187e-05
8.69273e-05
9.30237e-05
8.8808e-05
9.42506e-05
9.11533e-05
9.73778e-05
9.99262e-05
0.000116394
0.000144751
0.000195704
0.000244576
0.000108712
0.000108774
0.000106966
0.000106799
0.000104187
0.000103326
0.000101306
0.000100724
9.84862e-05
0.000100947
9.7536e-05
0.00010338
9.92073e-05
0.000107154
0.000102978
0.000111463
0.000110072
0.000120838
0.000127188
0.000148426
0.000174814
0.000226677
0.000274945
0.000117849
0.000118138
0.000116466
0.000116674
0.000114645
0.000114221
0.000112963
0.00011283
0.000111484
0.000114103
0.000111593
0.000117644
0.000114404
0.000123397
0.000120469
0.000131782
0.000132079
0.000147636
0.000155981
0.000181863
0.000213318
0.00026224
0.0003032
0.000127162
0.000127566
0.000126196
0.000126486
0.000125246
0.000124923
0.000124711
0.000124699
0.000124472
0.000127256
0.000125849
0.000132607
0.000130319
0.000141026
0.000138892
0.000153619
0.000154812
0.000174846
0.000184567
0.00021468
0.000243477
0.000290619
0.000333385
0.000138266
0.000138825
0.000137596
0.000138046
0.000137332
0.000137333
0.00013792
0.000138172
0.000139189
0.000141995
0.000142336
0.000149199
0.000148841
0.000160408
0.000160049
0.000177264
0.000179704
0.000203672
0.000215539
0.000248216
0.000280636
0.000327133
0.00036442
0.000149862
0.000150488
0.000149414
0.000149832
0.000149662
0.000149835
0.000151246
0.000151708
0.000154075
0.000157085
0.000159274
0.000166418
0.000168252
0.000180492
0.000182359
0.000201416
0.000205544
0.000232406
0.000244005
0.000280683
0.000310959
0.000356761
0.00039653
0.00016233
0.000162961
0.00016204
0.000162451
0.00016264
0.000163061
0.000165023
0.0001658
0.000169474
0.000172557
0.000176949
0.000184124
0.000188957
0.000201236
0.000206695
0.000226488
0.000233654
0.000262373
0.00027726
0.000314055
0.000346519
0.000392638
0.000431095
0.000174993
0.000175398
0.00017481
0.00017508
0.000175547
0.00017607
0.000178392
0.000179454
0.000184077
0.000187325
0.000193637
0.000201043
0.000208752
0.000221229
0.000230709
0.000250699
0.000261839
0.000291497
0.000308847
0.000346699
0.000378796
0.000424484
0.000465016
0.000187459
0.000187433
0.000187292
0.000187331
0.000187875
0.000188449
0.000190876
0.000192191
0.000197383
0.000200761
0.000208746
0.000216246
0.000226805
0.000239486
0.000253338
0.000273311
0.000289732
0.000319874
0.000341435
0.00038105
0.000413339
0.000459824
0.000502387
0.000199077
0.000198641
0.000199045
0.00019886
0.000199611
0.000200254
0.00020271
0.000204212
0.000209435
0.000212798
0.000221357
0.000228748
0.000241024
0.000254149
0.000272177
0.000291875
0.000316627
0.000344097
0.000375429
0.000413013
0.00045164
0.000497654
0.000540268
0.000209491
0.000208781
0.000209522
0.000209108
0.000209952
0.000210538
0.00021282
0.000214317
0.000219235
0.000222666
0.000231067
0.000240033
0.000252551
0.000268159
0.000287377
0.000309406
0.000336961
0.000366436
0.000402555
0.000441934
0.000484163
0.000533993
0.000580611
0.000218218
0.00021749
0.000218422
0.000218047
0.000219212
0.000219996
0.000222475
0.00022432
0.000229283
0.000232826
0.000241416
0.000248663
0.000261959
0.000278769
0.000299981
0.000325399
0.000355951
0.000389625
0.000430649
0.000473337
0.00052181
0.00057484
0.000615207
0.000225469
0.000224843
0.00022577
0.000225489
0.000226887
0.000227835
0.000230538
0.000232927
0.000237756
0.00024334
0.000250932
0.0002607
0.000273208
0.000289164
0.000308623
0.000333083
0.000362667
0.000397477
0.000440318
0.000485337
0.000539328
0.000597064
0.000646093
0.000230858
0.000230356
0.000231319
0.000231341
0.000233105
0.000234478
0.000237777
0.000240688
0.000246542
0.000251504
0.00026083
0.000269102
0.000282836
0.000296305
0.000316328
0.000341898
0.000373405
0.000411671
0.000456901
0.00050616
0.000567117
0.000630814
0.000667699
0.000234844
0.000234429
0.000235384
0.000235699
0.000237864
0.000240647
0.000244486
0.000249681
0.000255965
0.000263973
0.000273536
0.000285047
0.000298664
0.000314911
0.000334171
0.00035791
0.000386089
0.000421025
0.000462185
0.000510376
0.000571563
0.000635504
0.000684464
0.00023727
0.000236955
0.000237985
0.000238579
0.000241201
0.000243584
0.000248443
0.000253115
0.000261066
0.000268587
0.000280352
0.00029165
0.000308009
0.000324274
0.000346451
0.000369061
0.000399505
0.000434826
0.000478761
0.000531456
0.000594903
0.000660482
0.000704473
0.000238288
0.000238573
0.000239708
0.000241787
0.000244858
0.000249194
0.000254831
0.000262175
0.000271133
0.000282164
0.000295252
0.00031073
0.000328685
0.000349425
0.000372815
0.000399389
0.000429453
0.000464959
0.000505271
0.000554699
0.000612381
0.000673456
0.000733097
0.000238312
0.000238088
0.00023928
0.000240288
0.000243839
0.000247166
0.000253745
0.000260148
0.000270581
0.000280878
0.00029594
0.000311075
0.00033153
0.000352422
0.000379553
0.00040801
0.000444298
0.000481959
0.000529351
0.00058128
0.000644109
0.000712679
0.000776509
0.000238312
0.000238752
0.000240117
0.000242766
0.000246661
0.000252209
0.000259443
0.000268778
0.000280279
0.000294335
0.000311105
0.000330888
0.000353922
0.00038062
0.000411349
0.000446717
0.000486226
0.000529796
0.000576747
0.00062984
0.000687582
0.000754485
0.000824365
0.000236933
0.000236716
0.000238012
0.000239156
0.000243098
0.000246734
0.000254065
0.000262562
0.000273932
0.000287918
0.000304654
0.000324456
0.000347536
0.000374351
0.000405725
0.000441478
0.00048716
0.000535535
0.000595255
0.000656285
0.000726272
0.00080103
0.00088022
0.000234859
0.00023468
0.000236117
0.000238979
0.000243156
0.000249232
0.000257237
0.000267708
0.000280684
0.000296785
0.000316192
0.000339525
0.000367144
0.000399862
0.000438482
0.000483909
0.000536677
0.000596598
0.000661624
0.000728646
0.000797812
0.000869231
0.000928216
0.000231457
0.000231225
0.000232571
0.000233685
0.000237842
0.000241515
0.000249464
0.000256871
0.00026972
0.000283985
0.000302694
0.000325643
0.000353149
0.000386517
0.000426261
0.000473888
0.000528782
0.000591388
0.000669568
0.000750988
0.00084565
0.00093658
0.0010374
0.000227671
0.000227383
0.000228604
0.000230557
0.000234274
0.000239902
0.000247501
0.00025777
0.000270708
0.000287103
0.000307301
0.000332392
0.000363135
0.000401297
0.000448391
0.000506688
0.000576871
0.000660348
0.00075585
0.000858725
0.0009632
0.0010784
0.00122299
0.000222818
0.000222436
0.000223421
0.000224043
0.000227547
0.000230335
0.000237391
0.000243765
0.000255901
0.000267636
0.000286742
0.000306001
0.000335054
0.000373205
0.000422205
0.000485078
0.000562707
0.000656818
0.000768575
0.000917459
0.00108463
0.00124958
0.00142724
0.000217958
0.000217416
0.000218064
0.000218376
0.000221136
0.000224654
0.00023009
0.000237772
0.000247859
0.00026151
0.00027927
0.000302725
0.000333919
0.000375567
0.000431665
0.000507216
0.00060725
0.000739102
0.000906193
0.00109088
0.00126798
0.0014415
0.00161292
0.000212653
0.000211885
0.0002121
0.000211644
0.000213708
0.000214649
0.000219436
0.000222918
0.000231615
0.000239399
0.00025435
0.000270353
0.000296647
0.000330604
0.000388852
0.000471075
0.000586598
0.000746917
0.000933914
0.00112626
0.00133646
0.00156525
0.0017638
0.000207611
0.000206594
0.000206342
0.000205191
0.00020628
0.000205944
0.000209028
0.000210332
0.000216186
0.000220495
0.000230879
0.000242071
0.00026289
0.000299744
0.000362009
0.000456032
0.000593296
0.000782728
0.00102887
0.00127412
0.00148564
0.00171027
0.00189044
0.000202798
0.000201575
0.00020086
0.000198998
0.000199054
0.000197382
0.000198668
0.00019777
0.000200729
0.000201782
0.000208229
0.000215883
0.000234088
0.000279095
0.000355823
0.000466538
0.000628575
0.000842039
0.00111686
0.00130781
0.00151211
0.00178688
0.00197513
0.00019816
0.000196785
0.000195568
0.000193506
0.000192026
0.000189274
0.000188345
0.000184954
0.000184466
0.000181017
0.000181335
0.000181509
0.000191262
0.000216988
0.000293024
0.000458164
0.000753427
0.0011144
0.00137268
0.00146192
0.00161852
0.00187073
0.00202671
0.00019437
0.000192762
0.000191238
0.000188163
0.000186446
0.00018248
0.000180643
0.00017587
0.000173643
0.000168354
0.000166607
0.000175141
0.000208463
0.000284123
0.00043576
0.000714284
0.00108408
0.00137133
0.00144249
0.00144945
0.0016263
0.00190228
0.00202671
1.14758e-05
1.03901e-05
1.1418e-05
1.02211e-05
1.20042e-05
1.26538e-05
1.41251e-05
1.4716e-05
1.2542e-05
1.34388e-05
1.48297e-05
1.57802e-05
2.4978e-05
2.86839e-05
3.30498e-05
3.57357e-05
0.000190338
0.000221297
0.000217946
0.000208921
0.000202554
0.000274671
0.000311677
0.000380743
0.000202554
0.000274671
0.000311677
0.00041992
0.000133564
0.00019664
0.000248311
0.000325233
0.000101658
0.000112917
9.75093e-05
0.000110527
0.000168149
0.000188601
0.000214749
0.000235133
0.000217024
0.000257973
0.000302363
0.000357509
0.000260539
0.0003134
0.000367421
0.000452121
0.000302048
0.000355559
0.000403625
0.000485291
0.000332498
0.00037816
0.000424094
0.000485291
0.000359975
0.000397929
0.000443682
0.000487886
0.000388698
0.000421162
0.00046581
0.000501692
0.000417732
0.000446695
0.000489581
0.000520778
0.00044727
0.000474239
0.000514901
0.000543681
0.000478326
0.000504351
0.000542113
0.000570881
0.000509289
0.00053403
0.00056831
0.000596118
0.000545176
0.000568958
0.000600762
0.000627068
0.000582788
0.000606038
0.000636257
0.000661064
0.000624762
0.000648505
0.000678621
0.00070287
0.000662793
0.000688265
0.00071999
0.000745433
0.000698941
0.000727137
0.000761852
0.00078988
0.000725773
0.000757125
0.000795937
0.000827925
0.000746275
0.000781495
0.000825107
0.000862091
0.000768509
0.000808025
0.000853985
0.000894572
0.00080196
0.000844679
0.000890448
0.000934928
0.000847752
0.000888805
0.000934887
0.00098313
0.000894277
0.000935479
0.000987125
0.00103855
0.00094128
0.000983977
0.00103352
0.00108143
0.000988424
0.00103148
0.0010708
0.00110945
0.00110897
0.00114833
0.00117805
0.0012049
0.00131636
0.00135477
0.00138375
0.00140814
0.00153853
0.00158293
0.00162171
0.00165116
0.00173145
0.00178649
0.00183182
0.0018633
0.00189713
0.00196121
0.00200896
0.00204263
0.00203033
0.00210001
0.00214963
0.00218444
0.00212401
0.00219637
0.00224863
0.00228408
0.00218306
0.00225481
0.00230885
0.0023433
0.00218306
0.00225481
0.00230885
0.0023433
0.000890295
0.00230134
0.00107428
0.000598919
0.000130873
9.27389e-05
0.000666218
0.00135381
0.00135381
0.00168703
0.00277292
0.00306456
0.00256328
0.00124097
0.000387215
0.000693976
0.00118117
0.00134578
0.000894659
3.36421e-05
0.000232674
0.000109353
7.73163e-05
4.41992e-05
0.000114496
0.000917416
0.00112211
0.00109369
0.00158407
0.00288176
0.00307823
0.00258608
0.00115163
0.000385579
0.000641874
0.00112371
0.00138206
0.00063063
2.09187e-05
2.42572e-05
2.77922e-05
3.22223e-05
3.63442e-05
0.000115987
0.00100787
0.00114214
0.00114214
0.00176687
0.00315004
0.00315004
0.00249354
0.000999377
0.000487027
0.000677233
0.00116845
0.00142737
0.0005479
3.60965e-05
3.73483e-05
3.47579e-05
2.7605e-05
3.39532e-05
0.000179107
0.00108967
0.00119092
0.00115259
0.00230207
0.0031507
0.0031507
0.00227214
0.00077459
0.000597705
0.000717026
0.00110066
0.00142737
0.000474137
0.000156084
0.000156084
0.000154038
9.64278e-05
3.01514e-05
0.000173385
0.000972515
0.00119092
0.00123179
0.00235562
0.00288413
0.00288413
0.00192808
0.000779903
0.000649437
0.000673479
0.00102239
0.0012734
0.000417504
0.000386089
0.00040541
0.000319971
0.000240215
0.000106609
7.4636e-05
0.000670649
0.00113407
0.0014687
0.00219379
0.00255406
0.00241793
0.00157136
0.000917855
0.000780417
0.000654008
0.000983664
0.0011662
0.000370488
0.000711058
0.000711058
0.000589452
0.000405915
0.000214361
3.84531e-05
0.000398979
0.00103094
0.00127112
0.00164217
0.00213592
0.0018542
0.00136387
0.000990825
0.000830404
0.000618029
0.000907895
0.00105351
0.000311145
0.000401724
0.00056934
0.000621792
0.000621792
0.00048435
0.000214611
0.000157126
0.000772772
0.00111689
0.00130165
0.00164874
0.00128259
0.00106783
0.00106783
0.000896194
0.000684942
0.000796714
0.000847018
0.000192395
0.000146834
0.000245978
0.000453151
0.000629472
0.000468713
0.000282093
0.000107155
0.00027446
0.00080137
0.000996466
0.00103589
0.000845695
0.000871114
0.000855451
0.000775079
0.000765755
0.000765755
0.000537919
9.88057e-05
0.000285827
0.000356064
0.000655289
0.000997354
0.000961471
0.000664419
0.00033904
0.000156371
0.000270536
0.000702332
0.000499853
0.000605564
0.000591963
0.000566474
0.000726256
0.000785111
0.000785111
0.000229055
4.833e-05
0.000512723
0.000808604
0.00113794
0.00143899
0.00143899
0.00136902
0.000898525
0.00043738
0.000221555
0.000194096
0.000221001
0.000236777
0.000274472
0.000358434
0.000392254
0.000428401
0.000217728
0.000125399
4.4136e-05
0.000854837
0.00125757
0.0015572
0.00175073
0.00175073
0.00141969
0.00120959
0.000934011
0.000576521
0.000226937
0.000177037
0.000333369
0.000441425
0.000425432
0.000460943
0.000506387
0.000506387
0.000385129
6.98975e-05
0.000945968
0.00109379
0.00144907
0.00199401
0.00199401
0.00155622
0.00086114
0.000602125
0.000489402
0.000400412
0.000358791
0.000593059
0.000593059
0.000571902
0.0003879
0.000307621
0.000256052
0.00013001
1.99286e-05
0.000832738
0.00109051
0.00109051
0.00117109
0.00142101
0.00133076
0.00133076
0.0012822
0.000924971
0.000640376
0.000523458
0.000295052
0.000242594
0.000393057
0.000339442
0.000225812
9.46301e-05
2.30961e-05
1.39697e-05
0.000750108
0.000940422
0.000995699
0.000819904
0.000708665
0.000990061
0.00122347
0.00133171
0.00142809
0.0013642
0.00124957
0.0010243
0.000659728
0.000286527
0.000116242
6.40035e-05
2.63289e-05
1.03965e-05
1.5771e-05
0.000711437
0.000882661
0.000911097
0.000888488
0.000522397
0.000987278
0.00143514
0.00171951
0.00179824
0.00179824
0.0016864
0.00146969
0.00124167
0.00108468
0.000878826
0.000415682
6.9517e-05
1.79893e-05
1.5771e-05
0.000720365
0.000866335
0.000991242
0.000991242
0.000939577
0.00076958
0.000987835
0.00124964
0.00143143
0.00148572
0.00148483
0.00143068
0.00128736
0.00110239
0.000960171
0.000859812
0.000308356
5.5015e-05
1.48036e-05
0.000715839
0.000841395
0.000983233
0.00109461
0.00109461
0.00108557
0.000896672
0.000698447
0.000673698
0.00100765
0.0011034
0.0011159
0.00118369
0.00118369
0.00114525
0.00110363
0.000706238
9.38377e-05
1.56817e-05
0.000741293
0.000847998
0.000970688
0.00109984
0.00119534
0.00119534
0.0011934
0.00104953
0.000894644
0.000790699
0.000766556
0.000757567
0.0009925
0.00121
0.00121
0.0010917
0.000916184
0.000347198
3.99602e-05
0.000760089
0.00085915
0.000971777
0.00109502
0.00120803
0.00127558
0.00127558
0.00124531
0.00113041
0.0009379
0.00071662
0.000536988
0.000680791
0.00103968
0.00128165
0.00128574
0.00128574
0.000955407
0.000428159
0.000779405
0.000864412
0.000955547
0.0010517
0.00113618
0.00120869
0.00120869
0.0012077
0.00112118
0.000958327
0.000758783
0.000553633
0.000433913
0.000574477
0.000984362
0.00126439
0.00129939
0.00129939
0.000974646
0.000812546
0.000894108
0.000976218
0.0010603
0.00111759
0.00115421
0.00115421
0.00114988
0.00107593
0.000926853
0.000736538
0.00051639
0.000331318
0.000280961
0.000648611
0.00094704
0.00110086
0.00120206
0.00114903
0.000839365
0.000912226
0.000980466
0.00104936
0.00109773
0.0011163
0.0011163
0.00108944
0.00101176
0.000879329
0.000717986
0.000526536
0.000343852
0.000151656
0.00048369
0.000877854
0.00113795
0.00120206
0.00110568
0.000893283
0.000963226
0.00102387
0.0010796
0.00111294
0.00111791
0.00111791
0.00108527
0.0010064
0.000879021
0.000727044
0.000548582
0.000366681
0.000247258
0.000465002
0.000913406
0.00112129
0.00112129
0.00109174
0.000934759
0.0010045
0.00106167
0.00111184
0.00114342
0.00114879
0.00114879
0.00111819
0.00104993
0.000936237
0.000801736
0.000642012
0.000477327
0.000547266
0.00063403
0.00106138
0.0012759
0.00123835
0.00112232
0.00100393
0.00107802
0.00113575
0.00117895
0.00120199
0.0012024
0.0012024
0.00117179
0.00111434
0.00101729
0.000905331
0.000785437
0.000735445
0.00085854
0.000987124
0.00152244
0.00160148
0.00160148
0.00131974
0.00104546
0.00113254
0.00120235
0.00125337
0.00128256
0.00129163
0.00129163
0.0012654
0.00121854
0.00113514
0.00105529
0.000971427
0.00104157
0.0010347
0.000964218
0.00146465
0.00146465
0.00137361
0.00110652
0.00111362
0.00121377
0.00129837
0.00136027
0.00139239
0.00140275
0.00140275
0.00137988
0.00134422
0.00127574
0.00122483
0.00121307
0.0013417
0.00121126
0.00107875
0.00139396
0.00134025
0.00133723
0.00111868
0.00114479
0.00126406
0.00137465
0.00146357
0.00151826
0.00154512
0.00154512
0.00153021
0.00150031
0.00144327
0.00141542
0.00150108
0.00160064
0.00140959
0.00120198
0.0016013
0.0016013
0.00142247
0.00116262
0.00122589
0.00136153
0.00148604
0.00159282
0.00166508
0.00170341
0.00170341
0.0016969
0.00167657
0.00163104
0.00161826
0.00173669
0.00180258
0.00159434
0.000989155
0.00146823
0.0015143
0.0015143
0.00133272
0.00127809
0.00143717
0.00159734
0.00174086
0.00183994
0.0018984
0.00189903
0.00189903
0.00187881
0.00183275
0.0018327
0.00195267
0.00197216
0.00181569
0.000954604
0.00146455
0.00161904
0.00161904
0.00124184
0.00139081
0.00158175
0.00177976
0.00195577
0.00207089
0.0021276
0.0021276
0.00212067
0.00209242
0.00203894
0.00202331
0.00213808
0.00213808
0.00202309
0.000912381
0.00157622
0.00171744
0.00165534
0.00101813
0.00137082
0.00155362
0.00180832
0.0020943
0.00231332
0.00243038
0.00243133
0.00243133
0.00237738
0.00229075
0.00223403
0.00232224
0.00232224
0.00222417
0.00120312
0.00163663
0.00184926
0.0017691
0.00100688
0.00132448
0.00142344
0.00163868
0.00195243
0.00227359
0.00249925
0.00259992
0.00260148
0.00260148
0.0025173
0.00242795
0.00247132
0.00247132
0.00240171
0.00148194
0.00156999
0.00194435
0.00190729
0.00105324
0.00145054
0.00147405
0.00152522
0.00169392
0.0020255
0.00241702
0.00263585
0.00273432
0.00273432
0.00272522
0.0026402
0.00263507
0.00263507
0.00259284
0.00179839
0.00150306
0.00203229
0.00203229
0.0011821
0.00175804
0.00175804
0.00172818
0.00159721
0.00160941
0.00210016
0.00247299
0.0026745
0.00275466
0.00275466
0.00274096
0.00275054
0.00275054
0.00272049
0.00203007
0.00139356
0.00205308
0.00205308
0.00129788
0.00199969
0.00199969
0.00191441
0.0016076
0.000992222
0.00164304
0.00224442
0.00257527
0.00274739
0.00278632
0.00280832
0.00284904
0.00284904
0.00283012
0.00219856
0.00130862
0.00196723
0.00196723
0.00130387
0.00222142
0.00222142
0.00212243
0.00183173
0.00127404
0.00105888
0.00183476
0.0022916
0.00258059
0.00270389
0.00278078
0.00284929
0.00284929
0.00283233
0.00228644
0.00121289
0.0018231
0.0018231
0.00127785
0.00238268
0.00238268
0.00227801
0.00199074
0.00153349
0.00098921
0.0015708
0.00209044
0.002459
0.00264636
0.00276897
0.00285503
0.00285503
0.00282751
0.00230773
0.00127984
0.00170949
0.00174607
0.00121657
0.00251615
0.00251615
0.00240617
0.00215343
0.00179484
0.00125675
0.00120763
0.00170727
0.00216972
0.00243163
0.00262167
0.00275732
0.00275955
0.00275955
0.00230347
0.00123117
0.00154355
0.00189089
0.0010228
0.00259185
0.00259185
0.0024723
0.0022205
0.00190523
0.00146664
0.00119282
0.00160373
0.00206007
0.00235615
0.00258167
0.00273907
0.00273907
0.00272132
0.00230143
0.00155835
0.00188002
0.00218708
0.00135643
0.0026405
0.0026405
0.00251595
0.00225873
0.00196114
0.00153182
0.00109042
0.0012476
0.00167769
0.00202311
0.00232076
0.00253353
0.00257423
0.00257423
0.00198588
0.00154533
0.0021871
0.0021871
0.00213481
)
;

boundaryField
{
    leftWall
    {
        type            calculated;
        value           uniform 0;
    }
    rightWall
    {
        type            calculated;
        value           uniform 0;
    }
    lowerWall
    {
        type            calculated;
        value           uniform 0;
    }
    atmosphere
    {
        type            calculated;
        value           uniform 0;
    }
    defaultFaces
    {
        type            empty;
    }
}


// ************************************************************************* //
