/*--------------------------------*- C++ -*----------------------------------*\
| =========                 |                                                 |
| \\      /  F ield         | OpenFOAM: The Open Source CFD Toolbox           |
|  \\    /   O peration     | Version:  2012                                  |
|   \\  /    A nd           | Website:  www.openfoam.com                      |
|    \\/     M anipulation  |                                                 |
\*---------------------------------------------------------------------------*/
FoamFile
{
    version     2.0;
    format      ascii;
    class       volScalarField;
    location    "0.58";
    object      minKappa;
}
// * * * * * * * * * * * * * * * * * * * * * * * * * * * * * * * * * * * * * //

dimensions      [0 0 0 0 0 0 0];


internalField   nonuniform List<scalar> 
2268
(
2.67582e-07
6.8618e-07
1.087e-06
1.45262e-06
1.74524e-06
2.04754e-06
2.41914e-06
2.59027e-06
2.75267e-06
2.89286e-06
2.89396e-06
2.87586e-06
2.80014e-06
2.72182e-06
2.61108e-06
2.4534e-06
2.27183e-06
2.06947e-06
1.85373e-06
1.60332e-06
1.26683e-06
9.19109e-07
5.38831e-07
2.67582e-07
6.8618e-07
1.087e-06
1.45262e-06
1.74524e-06
2.04754e-06
2.41914e-06
2.59027e-06
2.75267e-06
2.89286e-06
2.89396e-06
2.87586e-06
2.80014e-06
2.72182e-06
2.61108e-06
2.4534e-06
2.27183e-06
2.06947e-06
1.85373e-06
1.60332e-06
1.26683e-06
9.19109e-07
5.38831e-07
4.24519e-07
7.77901e-07
1.13702e-06
1.49406e-06
1.78484e-06
2.09378e-06
2.43888e-06
2.60066e-06
2.77011e-06
2.91063e-06
2.89775e-06
2.89704e-06
2.83315e-06
2.7424e-06
2.62313e-06
2.4618e-06
2.29278e-06
2.10763e-06
1.90798e-06
1.66114e-06
1.32024e-06
9.52585e-07
5.71567e-07
6.00492e-07
9.14186e-07
1.21692e-06
1.55663e-06
1.84459e-06
2.16466e-06
2.47212e-06
2.62574e-06
2.81458e-06
2.9295e-06
2.93433e-06
2.93134e-06
2.86682e-06
2.75652e-06
2.62538e-06
2.46521e-06
2.31085e-06
2.14458e-06
1.95603e-06
1.7504e-06
1.45034e-06
1.21374e-06
8.54679e-07
7.88296e-07
1.0836e-06
1.32699e-06
1.6404e-06
1.92415e-06
2.25722e-06
2.51829e-06
2.6668e-06
2.8744e-06
2.9558e-06
2.97884e-06
2.97301e-06
2.90784e-06
2.78575e-06
2.65514e-06
2.48535e-06
2.33924e-06
2.18964e-06
2.016e-06
1.84215e-06
1.57977e-06
1.46074e-06
1.11633e-06
9.87485e-07
1.26371e-06
1.45613e-06
1.73894e-06
2.01995e-06
2.36494e-06
2.57879e-06
2.73488e-06
2.96047e-06
3.00662e-06
3.03535e-06
3.0291e-06
2.95252e-06
2.81078e-06
2.67993e-06
2.50052e-06
2.35841e-06
2.2326e-06
2.08231e-06
1.96171e-06
1.73312e-06
1.75377e-06
1.48852e-06
1.2028e-06
1.45002e-06
1.60689e-06
1.85839e-06
2.13969e-06
2.4871e-06
2.65718e-06
2.82983e-06
3.0552e-06
3.06048e-06
3.10087e-06
3.09138e-06
3.01791e-06
2.86116e-06
2.73287e-06
2.52915e-06
2.37679e-06
2.27163e-06
2.15346e-06
2.09478e-06
1.91015e-06
2.08118e-06
1.88749e-06
1.45688e-06
1.66898e-06
1.80265e-06
2.02495e-06
2.30909e-06
2.63923e-06
2.77244e-06
2.96994e-06
3.16234e-06
3.13907e-06
3.20847e-06
3.16359e-06
3.0939e-06
2.9121e-06
2.78647e-06
2.55939e-06
2.3921e-06
2.30809e-06
2.2306e-06
2.23622e-06
2.09386e-06
2.42145e-06
2.44378e-06
0.00066136
0.000713229
0.000865994
0.000848946
0.00066873
0.000367115
0.000232096
0.000260041
0.000359009
0.000399094
0.000395223
0.00036766
0.00032953
0.000315057
0.00031707
0.000307243
0.000285163
0.00020956
0.000137534
0.00066136
0.00061657
0.000865994
0.000848946
0.000648284
0.000215356
0.000232096
0.000260041
0.000359009
0.000399094
0.000395223
0.00036766
0.00032953
0.000315057
0.00031707
0.000307243
0.000285163
0.00020956
0.000137534
0.000967942
0.00061657
0.000964925
0.000461423
0.000339761
5.93327e-05
0.000143194
0.000352985
0.000488163
0.000534551
0.000729107
0.000662904
0.000540814
0.000515027
0.000565045
0.000609856
0.000524099
0.000231636
0.000176293
0.000908773
0.000693559
0.000616826
0.000461423
0.00023985
5.93327e-05
3.16235e-05
0.000185424
0.000753693
0.000946205
0.000911538
0.000644273
0.000681678
0.000975323
0.00109392
0.00106199
0.000966494
0.000458519
0.000188578
0.000908773
0.00110091
0.00024069
0.000564679
0.000386933
6.08748e-05
2.69091e-05
8.40951e-05
0.000507935
0.000915285
0.00128219
0.000644273
0.0005944
0.000527313
0.000568162
0.000569669
0.000816602
0.000605041
0.000197483
0.000903377
0.00117087
0.00024069
0.000701718
0.000298525
3.57266e-05
2.69091e-05
8.40951e-05
0.000454858
0.000789936
0.00118307
0.00103193
0.0005944
0.000250018
9.30009e-05
0.000230461
0.000547589
0.000768814
0.000219986
0.000857688
0.0011881
0.000337871
0.000537735
0.000127429
2.3951e-05
2.91764e-05
0.000111211
0.000542968
0.000752637
0.00111273
0.00114901
0.000649018
0.000250018
7.25858e-05
0.00018409
0.000397955
0.000889836
0.000247313
0.000857688
0.00158077
0.00074172
0.000537735
8.61089e-05
2.3951e-05
3.86774e-05
0.000349764
0.000689129
0.000752637
0.00111273
0.0011991
0.000737433
0.000255111
7.25858e-05
0.00018409
0.000397955
0.000909455
0.000323843
4.76841e-06
5.14679e-06
5.36758e-06
5.74805e-06
6.23646e-06
6.67426e-06
6.55492e-06
6.65037e-06
6.39852e-06
5.79234e-06
5.55524e-06
5.2069e-06
5.00141e-06
4.6828e-06
4.48722e-06
4.08034e-06
3.78002e-06
3.66662e-06
3.69072e-06
3.81987e-06
3.96158e-06
4.75799e-06
5.694e-06
6.74244e-05
6.68719e-05
6.77921e-05
6.93212e-05
7.04882e-05
6.95813e-05
6.58147e-05
6.36896e-05
5.46901e-05
4.18608e-05
2.69886e-05
1.85398e-05
1.37351e-05
9.84782e-06
6.26591e-06
5.33587e-06
4.82894e-06
4.81331e-06
4.81331e-06
4.99738e-06
5.71638e-06
6.86624e-06
8.21399e-06
0.000106903
9.89121e-05
9.97971e-05
9.42462e-05
8.14629e-05
6.62519e-05
5.77838e-05
9.17233e-05
0.000137885
0.000168641
0.000232644
0.000109399
4.84632e-05
3.83615e-05
1.40762e-05
1.16469e-05
9.10609e-06
5.95681e-06
5.51671e-06
5.70685e-06
6.59359e-06
7.4904e-06
8.59451e-06
9.64228e-05
9.07418e-05
8.48326e-05
7.15078e-05
5.06996e-05
2.74918e-05
2.74918e-05
4.59919e-05
6.83508e-05
0.00012799
0.000125717
0.000218809
0.000124203
0.00019799
9.95968e-05
7.24602e-05
4.58187e-05
6.13915e-06
7.68584e-06
9.54996e-06
1.04939e-05
1.02909e-05
9.3271e-06
9.49659e-05
9.21754e-05
8.88882e-05
8.53208e-05
7.76543e-05
6.50009e-05
4.69823e-05
4.83529e-05
3.97639e-05
5.52359e-05
0.000121228
0.000104637
0.000137941
0.00013409
0.000126017
9.96031e-05
0.000207924
0.000186508
9.83124e-05
8.1737e-05
4.25157e-05
1.98462e-05
2.11235e-05
8.2128e-05
7.77577e-05
7.16922e-05
6.31605e-05
5.23935e-05
4.21179e-05
4.13661e-05
4.13661e-05
3.97639e-05
4.56467e-05
5.48969e-05
6.42161e-05
4.23373e-05
9.0097e-05
6.61478e-05
0.00013966
0.000193692
0.000179257
0.000151558
0.000153923
0.000175902
0.000180968
0.000193012
8.61348e-05
8.40518e-05
8.00381e-05
7.58511e-05
6.77702e-05
5.94818e-05
4.69062e-05
3.82644e-05
3.28724e-05
3.29827e-05
4.53747e-05
3.49809e-05
3.90003e-05
4.48729e-05
3.85432e-05
5.06236e-05
0.000121068
0.000160884
0.000106401
0.000133296
8.86592e-05
8.86592e-05
9.15177e-05
7.54402e-05
7.21601e-05
6.72578e-05
6.05884e-05
5.16868e-05
4.20461e-05
3.17203e-05
2.47671e-05
2.13335e-05
2.13335e-05
2.44336e-05
3.49809e-05
3.59605e-05
4.52546e-05
3.123e-05
3.123e-05
4.41591e-05
7.4172e-05
5.60156e-05
6.51104e-05
8.57697e-05
9.71661e-05
9.16606e-05
8.4078e-05
8.21364e-05
7.82681e-05
7.42608e-05
6.62681e-05
5.95458e-05
4.95611e-05
4.26373e-05
3.85008e-05
3.56867e-05
4.26233e-05
4.24286e-05
3.59605e-05
4.12143e-05
3.24778e-05
3.94862e-05
5.26606e-05
3.95575e-05
2.07748e-05
2.76213e-05
3.85556e-05
5.93843e-05
5.9009e-05
7.81427e-05
7.58684e-05
7.23405e-05
6.7612e-05
6.18661e-05
5.61488e-05
5.0471e-05
4.60211e-05
4.47073e-05
4.36379e-05
4.36379e-05
4.74606e-05
4.32847e-05
5.12589e-05
4.1814e-05
4.00535e-05
3.70889e-05
2.89277e-05
1.9724e-05
1.68198e-05
1.68198e-05
2.65728e-05
7.11863e-05
8.64703e-05
8.54958e-05
8.21627e-05
7.9672e-05
7.35698e-05
6.98862e-05
6.36372e-05
6.01404e-05
5.63302e-05
5.65401e-05
5.45186e-05
6.00453e-05
5.6161e-05
6.50451e-05
5.60181e-05
5.63303e-05
5.14554e-05
4.93906e-05
3.34019e-05
3.70493e-05
4.73767e-05
7.27188e-05
0.000132006
8.70316e-05
8.547e-05
8.33232e-05
8.04328e-05
7.70726e-05
7.39017e-05
7.08763e-05
6.79003e-05
6.72363e-05
6.60491e-05
6.53027e-05
6.77627e-05
6.6508e-05
7.08601e-05
6.82601e-05
6.80959e-05
6.2836e-05
5.91166e-05
5.19838e-05
5.84193e-05
7.19353e-05
9.61239e-05
0.000142905
9.50155e-05
9.45518e-05
9.2061e-05
9.10003e-05
8.68572e-05
8.515e-05
8.13187e-05
7.97547e-05
7.64573e-05
7.79862e-05
7.44699e-05
7.94711e-05
7.52608e-05
8.20631e-05
7.64813e-05
8.0152e-05
7.46773e-05
7.53679e-05
7.28104e-05
8.29751e-05
0.000104479
0.000137575
0.000195704
0.000101121
0.000100216
9.90467e-05
9.74515e-05
9.54522e-05
9.37046e-05
9.16199e-05
9.03713e-05
8.7894e-05
8.97572e-05
8.63405e-05
9.10187e-05
8.69273e-05
9.30237e-05
8.8808e-05
9.42506e-05
9.11533e-05
9.73778e-05
9.99262e-05
0.000116394
0.000141316
0.000174814
0.000219257
0.000108712
0.000108774
0.000106966
0.000106799
0.000104187
0.000103326
0.000101306
0.000100724
9.84862e-05
0.000100947
9.7536e-05
0.00010338
9.92073e-05
0.000107154
0.000102978
0.000111463
0.000110072
0.000120838
0.000127188
0.000148426
0.000173776
0.000213318
0.00024114
0.000117849
0.000118138
0.000116466
0.000116674
0.000114645
0.000114221
0.000112963
0.00011283
0.000111484
0.000114103
0.000111593
0.000117644
0.000114404
0.000123397
0.000120469
0.000131782
0.000132079
0.000147636
0.000155981
0.000181571
0.000206763
0.000243477
0.000259848
0.000127162
0.000127566
0.000126196
0.000126486
0.000125246
0.000124923
0.000124711
0.000124699
0.000124472
0.000127256
0.000125849
0.000132607
0.000130319
0.000141026
0.000138892
0.000153619
0.000154812
0.000174846
0.000184567
0.00021468
0.000239367
0.000280636
0.000283813
0.000138266
0.000138825
0.000137596
0.000138046
0.000137332
0.000137333
0.00013792
0.000138172
0.000139189
0.000141995
0.000142336
0.000149199
0.000148841
0.000160408
0.000160049
0.000177264
0.000179704
0.000203018
0.000213859
0.000244005
0.000271867
0.000310959
0.000303199
0.000149862
0.000150488
0.000149414
0.000149832
0.000149662
0.000149835
0.000151246
0.000151708
0.000154075
0.000157085
0.000159274
0.000166418
0.000168252
0.000180492
0.000182359
0.000201416
0.000205544
0.000232406
0.000243536
0.00027726
0.000304328
0.000346519
0.00032814
0.00016233
0.000162961
0.00016204
0.000162451
0.00016264
0.000163061
0.000165023
0.0001658
0.000169474
0.000172557
0.000176949
0.000184124
0.000188957
0.000201236
0.000206695
0.000226488
0.000233654
0.000260698
0.000275468
0.000308847
0.000338833
0.000378796
0.000350168
0.000174993
0.000175398
0.00017481
0.00017508
0.000175547
0.00017607
0.000178392
0.000179454
0.000184077
0.000187325
0.000193637
0.000201043
0.000208752
0.000221229
0.000230709
0.000250699
0.000261839
0.000289338
0.00030749
0.000341435
0.000373451
0.000413339
0.000374684
0.000187459
0.000187433
0.000187292
0.000187331
0.000187875
0.000188449
0.000190876
0.000192191
0.000197383
0.000200761
0.000208746
0.000216246
0.000226805
0.000239486
0.000253338
0.000272177
0.000289732
0.000316627
0.00034025
0.000375429
0.000410459
0.00045164
0.000403206
0.000199077
0.000198641
0.000199045
0.00019886
0.000199611
0.000200254
0.00020271
0.000204212
0.000209435
0.000212798
0.000221357
0.000228748
0.000240033
0.000252551
0.000268159
0.000287377
0.000309406
0.000336961
0.000366436
0.000402555
0.00044128
0.000484163
0.000429635
0.000209491
0.000208781
0.000209522
0.000209108
0.000209952
0.000210538
0.00021282
0.000214317
0.000218498
0.000222449
0.000228573
0.000236705
0.000247337
0.000261166
0.000278769
0.000299981
0.000325399
0.000355951
0.000389625
0.000430649
0.000473337
0.00052181
0.000463623
0.000218218
0.00021749
0.000218422
0.000218047
0.000219212
0.000219996
0.000222475
0.00022432
0.000229283
0.000232826
0.000241416
0.000248663
0.0002607
0.000273208
0.000289164
0.000308623
0.000333083
0.000362667
0.000397477
0.000440318
0.000485337
0.000539328
0.000483391
0.000225469
0.000224843
0.00022577
0.000225489
0.000226739
0.000227765
0.000229434
0.000231767
0.000235287
0.000239756
0.000245952
0.000253882
0.000264246
0.000277664
0.000294695
0.000315554
0.000341898
0.000373405
0.000411671
0.000456901
0.00050616
0.000567117
0.000513775
0.000230858
0.000230356
0.000231319
0.000231341
0.000233105
0.000234478
0.000237777
0.000240688
0.000246542
0.000251504
0.00026083
0.000269102
0.000282836
0.000296305
0.000314911
0.000334171
0.00035791
0.000386089
0.000421025
0.000462185
0.000510376
0.000571563
0.000520202
0.00023406
0.00023406
0.000234225
0.000234705
0.000235826
0.000237737
0.000240611
0.000244462
0.000249685
0.000256128
0.000264295
0.000274161
0.000286208
0.000300716
0.000318219
0.000339371
0.000365543
0.000396673
0.000434826
0.000478761
0.000531456
0.000594903
0.000542235
0.00023727
0.000236955
0.000237985
0.000238579
0.000241201
0.000243584
0.000248443
0.000253115
0.000261066
0.000268587
0.000280352
0.00029165
0.000308009
0.000324274
0.000346451
0.000369061
0.000399389
0.000429453
0.000464959
0.000505271
0.000554699
0.000612381
0.000552008
0.000236152
0.000236152
0.000236465
0.000237292
0.000239185
0.000242142
0.000246464
0.000252163
0.000259601
0.000268756
0.000279962
0.000293273
0.000308942
0.000327094
0.000348228
0.000372858
0.000401957
0.000436058
0.000477114
0.000524581
0.00058128
0.000644109
0.000589326
0.000236933
0.000236716
0.000238012
0.000239156
0.000242766
0.000246661
0.000252209
0.000259443
0.000268778
0.000280279
0.000294335
0.000311075
0.000330888
0.000352422
0.000379553
0.00040801
0.000444298
0.000481959
0.000529351
0.000576747
0.00062984
0.000687582
0.00061849
0.000233412
0.000233412
0.000233834
0.000234898
0.000237314
0.000240966
0.000246342
0.000253385
0.000262562
0.000273932
0.000287918
0.000304654
0.000324456
0.000347536
0.000374351
0.000405306
0.000441089
0.000482137
0.000530055
0.000585406
0.000648914
0.000719388
0.000658837
0.000231457
0.000231225
0.000232571
0.000233685
0.000237842
0.000241515
0.000249232
0.000256871
0.000267708
0.000280684
0.000296785
0.000316192
0.000339525
0.000367144
0.000399862
0.000438482
0.000483909
0.000535535
0.000595255
0.000656285
0.000726272
0.000796564
0.000692706
0.000226616
0.000226616
0.000227012
0.000228022
0.000230405
0.000234022
0.000239517
0.000246802
0.000256502
0.000268654
0.000283985
0.000302694
0.000325643
0.000353149
0.000386517
0.000426261
0.000473888
0.000528782
0.000591388
0.000659042
0.000731774
0.000812541
0.000730123
0.000222818
0.000222436
0.000223421
0.000224043
0.000227547
0.000230335
0.000237391
0.000243765
0.000255901
0.000267636
0.000286742
0.000306001
0.000332392
0.000363135
0.000401297
0.000448391
0.000506688
0.000576871
0.000660348
0.000750988
0.00084565
0.00093658
0.000865965
0.000216859
0.000216859
0.000216927
0.000217373
0.000218962
0.000221503
0.000225671
0.000231438
0.000239591
0.000250411
0.000264714
0.000282703
0.0003057
0.000334996
0.000373205
0.000422205
0.000485078
0.000562707
0.000656818
0.000768575
0.00089951
0.00105274
0.00102258
0.000212653
0.000211885
0.0002121
0.000211644
0.000213708
0.000214649
0.000219436
0.000222918
0.000231615
0.000239399
0.00025435
0.000270353
0.000296647
0.000329932
0.000375567
0.000431665
0.000507216
0.00060725
0.000739102
0.000906193
0.00108463
0.00124958
0.001183
0.000206071
0.000205483
0.000204875
0.000204875
0.000205006
0.000205642
0.000207408
0.000210194
0.000214624
0.000220495
0.000229888
0.000242071
0.000261511
0.000289549
0.000330604
0.000388852
0.000471075
0.000586598
0.000746917
0.000933914
0.00112626
0.00133646
0.00130331
0.000202798
0.000201575
0.00020086
0.000198998
0.000199054
0.000197382
0.000198668
0.00019777
0.000200729
0.000201782
0.000208229
0.000215883
0.000234088
0.000262468
0.000299744
0.000362009
0.000456032
0.000593296
0.000782728
0.00102887
0.00127412
0.00148564
0.00141751
0.000196286
0.000195032
0.000193256
0.000191651
0.00018993
0.000188577
0.000187381
0.000184954
0.000184466
0.000181017
0.000181335
0.000181509
0.000191262
0.000216988
0.000272904
0.000355823
0.000466538
0.000628575
0.000842039
0.00106148
0.00127382
0.00151211
0.00149495
0.00019437
0.000192762
0.000191238
0.000188163
0.000186446
0.00018248
0.000180643
0.00017587
0.000173643
0.000168354
0.000166607
0.000164022
0.000164022
0.000172934
0.000207975
0.000293024
0.000458164
0.000753427
0.00110144
0.00130781
0.00145006
0.00161852
0.00155011
0.000188552
0.00018676
0.000184122
0.000181273
0.000177909
0.000174444
0.000170674
0.000166927
0.000163551
0.000161471
0.000161471
0.000163586
0.000175141
0.000207896
0.000284123
0.00043576
0.000714284
0.00108408
0.00137133
0.00143421
0.00144945
0.0016263
0.0015779
4.66818e-06
4.13513e-06
3.55294e-06
3.55294e-06
5.61032e-06
5.61032e-06
6.11709e-06
6.61601e-06
5.98099e-06
5.98099e-06
6.47221e-06
6.94047e-06
6.42496e-06
6.42496e-06
7.03758e-06
7.7012e-06
2.4978e-05
2.86839e-05
3.30498e-05
3.57357e-05
0.000138643
0.000138643
0.000133573
0.000133573
8.57208e-05
8.57208e-05
0.00012974
0.000191895
6.95077e-05
6.95077e-05
7.76986e-05
7.76986e-05
2.91718e-05
1.95311e-05
1.84894e-05
1.84894e-05
6.60655e-05
6.60655e-05
7.27026e-05
7.82748e-05
0.000101593
0.000101593
0.000116848
0.00013311
0.000121659
0.000121659
0.000146488
0.000176924
0.000148205
0.000148205
0.000173612
0.000208357
0.000161147
0.000161147
0.000183535
0.000209834
0.000173255
0.000173255
0.000194012
0.000216821
0.000183348
0.000183348
0.000202029
0.000221611
0.000197607
0.000197607
0.00021524
0.000233592
0.000208909
0.000208909
0.000225096
0.000241627
0.000224332
0.000224332
0.000239965
0.000256118
0.00023754
0.00023754
0.000251907
0.000267053
0.000252699
0.000252699
0.00026608
0.00028013
0.000270675
0.000270675
0.000283419
0.000296685
0.000287629
0.000287629
0.000300005
0.000312596
0.000310168
0.000310168
0.000323085
0.000336032
0.000323967
0.000323967
0.000337898
0.000351795
0.000345197
0.000345197
0.000360782
0.000376332
0.000350537
0.000350537
0.000367765
0.000385398
0.000366392
0.000366392
0.00038599
0.000405992
0.000373633
0.000373633
0.000393968
0.000414373
0.000399574
0.000399574
0.000420575
0.000442296
0.000416236
0.000416236
0.000435927
0.000458229
0.000443874
0.000443874
0.000467567
0.000493393
0.000461953
0.000461953
0.000481402
0.000501096
0.000489672
0.000489672
0.000508861
0.000525639
0.000574936
0.000574936
0.00058799
0.000597978
0.000683775
0.000683775
0.000702612
0.000718857
0.000786561
0.000786561
0.000807675
0.000824731
0.000871592
0.000871592
0.000897924
0.000917706
0.000946037
0.000946037
0.000973058
0.000992263
0.000999204
0.000999204
0.001029
0.0010501
0.00103509
0.00103509
0.00106458
0.00108528
0.00105439
0.00105439
0.00108472
0.00110615
9.64455e-06
0.000232674
0.000109353
7.73163e-05
4.41992e-05
3.49261e-05
9.27389e-05
0.000666218
0.00104879
0.000928828
0.0016014
0.00203293
0.00120937
0.000387215
0.000164736
0.00028907
0.000589717
0.000894659
0.000531325
1.24447e-05
2.42572e-05
2.5745e-05
2.84325e-05
3.45102e-05
3.76608e-05
0.000114496
0.000917416
0.000919971
0.000632657
0.00158407
0.00258608
0.00115163
0.000372847
0.000176764
0.000385579
0.000641874
0.00063063
0.000366065
1.24176e-05
2.02069e-05
2.2507e-05
2.46571e-05
2.76203e-05
3.59774e-05
0.000115987
0.00100787
0.000895408
0.000632657
0.00176687
0.00249354
0.000999377
0.000229964
0.000282727
0.000487027
0.000677233
0.0005479
0.000303675
1.37137e-05
2.02069e-05
2.2507e-05
2.46571e-05
2.14134e-05
3.39532e-05
0.000179107
0.00108967
0.000733604
0.000918419
0.00230207
0.00227214
0.00077459
0.000229964
0.000347296
0.000549645
0.000693582
0.000474137
0.00026177
3.60965e-05
3.73483e-05
3.47579e-05
2.7605e-05
2.14134e-05
2.93446e-05
0.000173385
0.000972515
0.000733604
0.00123179
0.00235562
0.00192808
0.000779903
0.000277787
0.000564625
0.000514228
0.000673479
0.000417504
0.000227278
0.000147029
0.000150996
0.000154038
9.64278e-05
2.35477e-05
2.26472e-05
7.4636e-05
0.000670649
0.000896782
0.00132218
0.00213592
0.00157136
0.000917855
0.000602727
0.000617798
0.000451014
0.000654008
0.000370488
0.000190564
0.000386089
0.00040541
0.000319971
0.000202724
2.62558e-05
2.26472e-05
3.84531e-05
0.000398979
0.00103094
0.00100755
0.00164217
0.00118118
0.00093767
0.000791528
0.000618029
0.000451014
0.000602431
0.000311145
0.000128349
0.000128305
0.000245978
0.00044755
0.000405915
0.000214361
2.58369e-05
5.93262e-05
0.000157126
0.000702965
0.000996466
0.00103589
0.000825542
0.000871114
0.000855451
0.000649718
0.000465927
0.000684942
0.000192395
6.1498e-05
5.28197e-05
8.63947e-05
0.000197142
0.000450607
0.000282093
9.15979e-05
5.93262e-05
0.000107155
0.000256987
0.000702332
0.000499853
0.000605564
0.000591963
0.000566474
0.000592474
0.000593687
0.000537919
9.88057e-05
3.8468e-05
0.000138409
0.000110588
0.000306416
0.000627949
0.000454607
0.00019969
8.42836e-05
0.000130764
0.000156371
0.000194096
0.000221001
0.000236777
0.00025692
0.000288246
0.000392254
0.000428401
0.000217728
4.833e-05
2.31381e-05
0.000255623
0.000356064
0.000655289
0.000997354
0.000961471
0.000664419
0.00033904
0.00014544
0.000135475
0.000110284
8.84611e-05
0.000134334
0.000195214
0.000274472
0.000358434
0.000207732
0.000125399
4.4136e-05
2.10323e-05
0.000367492
0.000751861
0.00112103
0.00143717
0.00141969
0.00110187
0.000697995
0.00043738
0.000221555
0.000106632
8.84611e-05
0.000123712
0.000233401
0.000300718
0.000315274
0.000307621
0.000184693
6.98975e-05
1.99286e-05
0.000432491
0.000945968
0.00100514
0.00117109
0.00142101
0.00086114
0.000602125
0.000488702
0.000336518
0.00022281
0.000177037
0.000242527
0.000242594
0.0003879
0.00020377
9.44192e-05
4.24985e-05
1.64215e-05
1.39697e-05
0.000405223
0.000832738
0.000936168
0.000595676
0.000708665
0.00097905
0.000735746
0.000601411
0.000452281
0.000360931
0.000259218
0.000215185
0.000215185
0.00018162
7.65056e-05
4.49655e-05
2.12484e-05
1.01922e-06
7.40798e-06
0.000407104
0.000735973
0.000819904
0.000455593
0.000247734
0.000568775
0.000990061
0.00114639
0.000900684
0.000640376
0.000523458
0.000295052
0.000230986
7.49296e-05
3.90414e-05
2.63289e-05
1.03965e-05
1.01922e-06
8.78923e-06
0.000407821
0.000703904
0.000876623
0.000522397
0.000247734
0.00048764
0.000944546
0.00124964
0.00142809
0.0013642
0.00124957
0.000964881
0.000659728
0.000286527
0.000116242
6.40035e-05
1.79893e-05
2.97571e-06
9.6587e-06
0.000424814
0.000695327
0.000848534
0.000821958
0.000498752
0.000636351
0.000728596
0.000698447
0.000673698
0.00100765
0.0011034
0.00110503
0.001049
0.000930097
0.000705606
0.000308356
4.59846e-05
8.23985e-06
8.66636e-06
0.000434788
0.000695327
0.000830983
0.000936035
0.000902548
0.00076958
0.00058816
0.000269455
0.000269455
0.000433091
0.000766556
0.000757567
0.000900173
0.000996968
0.000936532
0.000706238
9.38377e-05
1.56817e-05
7.40257e-06
0.000458221
0.000696939
0.00082885
0.000928518
0.00104867
0.00101427
0.000876354
0.000604959
0.000451112
0.000657652
0.000616192
0.000484063
0.000618779
0.000891658
0.00105168
0.000897045
0.000347198
3.7557e-05
7.40257e-06
0.000474794
0.000715692
0.00082783
0.000916522
0.0010266
0.00109549
0.00111772
0.000958615
0.000872019
0.000694715
0.000536988
0.000396882
0.000433913
0.000525187
0.000933918
0.00105207
0.000916184
0.000295174
3.99602e-05
0.000494524
0.000732122
0.00082783
0.000911153
0.00100112
0.00103964
0.00110072
0.00103533
0.000956
0.000746459
0.000553633
0.000367212
0.000309793
0.000223644
0.000550385
0.00094704
0.00101809
0.000853335
0.000428159
0.00052078
0.000754324
0.000837752
0.000911153
0.000995058
0.0010112
0.00104543
0.000983164
0.000908293
0.000728313
0.00051639
0.000331318
0.000209308
7.08061e-05
0.000280961
0.000648611
0.000932675
0.00110086
0.000837526
0.000545661
0.000779462
0.000856404
0.000915555
0.000995058
0.00100406
0.0010195
0.000950212
0.000877565
0.00071493
0.000526536
0.000343852
0.000151656
7.08061e-05
0.000145083
0.00048369
0.000877854
0.00107466
0.000899441
0.000585129
0.000813607
0.000885317
0.000930224
0.000998179
0.00100406
0.0010195
0.000950212
0.000877565
0.00071493
0.000548582
0.000366681
0.000223997
7.68709e-05
0.000164479
0.000465002
0.000913406
0.00105108
0.000908287
0.000612877
0.000856644
0.00092637
0.00096318
0.00102212
0.00102167
0.0010312
0.000964251
0.000897568
0.000745858
0.000637719
0.000439692
0.000321264
0.000247258
0.000287451
0.00063403
0.00106138
0.00105108
0.000955118
0.00065668
0.000908686
0.000978876
0.00101252
0.00106313
0.00106153
0.00106784
0.00100566
0.00095341
0.000814599
0.000729674
0.000561423
0.000477327
0.000547266
0.000483899
0.000927003
0.0012759
0.00116933
0.000858177
0.000675839
0.00096398
0.00104025
0.00107919
0.00112508
0.00112584
0.00113288
0.00107363
0.00103763
0.000909793
0.000863137
0.000725104
0.000735445
0.000764503
0.000506204
0.000964218
0.0012127
0.00110652
0.000773983
0.000714538
0.00102039
0.00110758
0.00115994
0.00120922
0.00121457
0.00122573
0.00116905
0.00114991
0.00103076
0.00103035
0.000904107
0.00104157
0.000847584
0.00050655
0.00107875
0.0012127
0.00111868
0.000773983
0.000730176
0.00107188
0.00117623
0.00124835
0.00131205
0.00132578
0.00134431
0.0012901
0.00128349
0.00117527
0.00121063
0.00110674
0.0013417
0.000963279
0.000662337
0.00120198
0.00125009
0.00116262
0.000814654
0.000779738
0.00113065
0.00125241
0.00134339
0.00142881
0.00145687
0.00148591
0.00143548
0.00143852
0.00134096
0.00139982
0.00131924
0.00159434
0.000952877
0.000471136
0.000989155
0.00137118
0.00127698
0.000916561
0.000807574
0.00120069
0.00134002
0.00145935
0.0015657
0.00161257
0.00165075
0.00160457
0.00161154
0.00151949
0.00158788
0.00152406
0.00180258
0.000954604
0.000199084
0.000821843
0.00144464
0.00124184
0.000746036
0.000871214
0.00128664
0.0014539
0.00161353
0.00174286
0.00180492
0.00184353
0.00179557
0.00179639
0.00170276
0.00176347
0.00171616
0.00197216
0.000912381
0.000199084
0.000692431
0.00156073
0.00101813
0.000661909
0.00087544
0.0012662
0.00143103
0.00169393
0.00193627
0.00204245
0.00208843
0.00203232
0.00201007
0.00190231
0.00193543
0.00190101
0.00212008
0.00120312
0.000200651
0.000825806
0.00163663
0.00100688
0.000611784
0.000904126
0.0012662
0.0013581
0.00148622
0.00178242
0.00211771
0.0022877
0.00226629
0.00223536
0.00210818
0.00210047
0.00207366
0.00224746
0.00148194
0.000493551
0.000825569
0.00156999
0.00105324
0.000580987
0.00101513
0.00126761
0.0013581
0.0013711
0.0014324
0.00186038
0.00222672
0.00239162
0.00242099
0.00231215
0.00226102
0.0022368
0.00236512
0.00179839
0.00081283
0.000644465
0.00150306
0.0011821
0.000580987
0.00122546
0.00145371
0.00145995
0.00132093
0.000839511
0.00143628
0.00198738
0.00227316
0.00246321
0.00245234
0.00240151
0.00238215
0.00247035
0.00203007
0.00101605
0.00057737
0.00139356
0.00129788
0.000614304
0.00140097
0.00170025
0.00158503
0.000992222
0.000631953
0.000826181
0.00163328
0.00204649
0.00234096
0.00246043
0.00248446
0.00249383
0.00254959
0.00219856
0.00112389
0.00057737
0.00130862
0.00130387
0.000575716
0.00155924
0.00190905
0.00173197
0.00127404
0.000631953
0.000573969
0.00105888
0.00178055
0.00216733
0.00237196
0.00244558
0.00254817
0.00258324
0.00228644
0.00121289
0.000585455
0.00117135
0.00127785
0.000513957
0.00168193
0.00208007
0.00188912
0.00153349
0.000959565
0.000573969
0.00098921
0.00147613
0.00194408
0.00222367
0.00234686
0.0025054
0.00254508
0.00230773
0.00127984
0.000589299
0.00110541
0.00121657
0.000360491
0.00178014
0.00221003
0.00201713
0.00172506
0.00125675
0.000727772
0.000949136
0.00120763
0.00170727
0.00206577
0.00224302
0.00244008
0.00250494
0.00230347
0.00123117
0.000589299
0.000942974
0.0010228
0.000267697
0.00183751
0.00230233
0.00210232
0.00185001
0.00146664
0.000957708
0.000895854
0.00106295
0.00150954
0.00185636
0.00208359
0.00232736
0.00241426
0.00230143
0.00150474
0.000794959
0.00120316
0.00135643
0.000267697
0.00187273
0.00235709
0.0021475
0.00190113
0.00153182
0.00109042
0.000895854
0.000972455
0.0012476
0.00167769
0.00202311
0.00232076
0.00241426
0.00198588
0.00126394
0.00104583
0.00149444
0.00213481
0.00105439
)
;

boundaryField
{
    leftWall
    {
        type            calculated;
        value           uniform 0;
    }
    rightWall
    {
        type            calculated;
        value           uniform 0;
    }
    lowerWall
    {
        type            calculated;
        value           uniform 0;
    }
    atmosphere
    {
        type            calculated;
        value           uniform 0;
    }
    defaultFaces
    {
        type            empty;
    }
}


// ************************************************************************* //
