/*--------------------------------*- C++ -*----------------------------------*\
| =========                 |                                                 |
| \\      /  F ield         | OpenFOAM: The Open Source CFD Toolbox           |
|  \\    /   O peration     | Version:  2012                                  |
|   \\  /    A nd           | Website:  www.openfoam.com                      |
|    \\/     M anipulation  |                                                 |
\*---------------------------------------------------------------------------*/
FoamFile
{
    version     2.0;
    format      ascii;
    class       volScalarField;
    location    "0.58";
    object      p_rgh;
}
// * * * * * * * * * * * * * * * * * * * * * * * * * * * * * * * * * * * * * //

dimensions      [1 -1 -2 0 0 0 0];


internalField   nonuniform List<scalar> 
2268
(
101909
101911
101914
101919
101925
101934
101945
101957
101972
101990
102009
102031
102054
102080
102105
102133
102158
102185
102208
102232
102249
102265
102272
101909
101911
101914
101919
101925
101934
101944
101957
101971
101989
102008
102031
102054
102080
102105
102133
102158
102185
102208
102233
102250
102266
102273
101908
101910
101913
101917
101924
101932
101943
101955
101970
101988
102007
102030
102053
102079
102105
102133
102158
102186
102209
102234
102252
102270
102276
101907
101908
101911
101916
101923
101931
101942
101954
101969
101987
102006
102029
102052
102079
102104
102132
102159
102187
102210
102236
102254
102273
102280
101905
101906
101909
101914
101920
101928
101939
101951
101966
101984
102004
102027
102051
102078
102104
102133
102159
102188
102212
102239
102258
102280
102287
101903
101904
101907
101912
101918
101926
101937
101949
101964
101982
102001
102025
102049
102076
102103
102132
102160
102189
102214
102242
102262
102286
102293
101899
101901
101904
101908
101915
101922
101933
101945
101960
101978
101998
102023
102047
102075
102103
102132
102160
102191
102216
102247
102267
102298
102305
101896
101897
101900
101905
101911
101919
101930
101942
101957
101975
101995
102019
102044
102073
102102
102132
102161
102192
102219
102250
102272
102303
102311
102241
101814
101843
101792
101964
102423
102712
102312
101946
101865
101770
101759
101759
101755
101760
101797
101911
102371
103004
101994
101748
101810
101760
101874
102454
102887
102294
101861
101816
101737
101743
101753
101749
101744
101755
101827
102282
102846
101866
101745
101802
101748
101890
102383
102682
102269
101871
101804
101704
101684
101686
101680
101677
101680
101731
102055
102681
101970
101741
101804
101746
101856
102319
102779
102235
101829
101779
101690
101671
101671
101667
101667
101667
101680
101895
102509
102028
101745
101803
101747
101848
102234
102562
102268
101900
101732
101676
101670
101671
101667
101667
101667
101672
101751
102346
102085
101740
101803
101746
101894
102229
102519
102175
101815
101682
101669
101669
101669
101666
101666
101666
101668
101693
102186
102269
101744
101805
101748
102011
102255
102375
102008
101712
101668
101665
101667
101669
101666
101667
101666
101667
101676
102065
102107
101752
101811
101791
102142
102283
102307
101828
101673
101663
101664
101666
101668
101666
101667
101666
101667
101668
101975
101739
101742
101752
101766
101786
101807
101838
101869
101906
101945
101979
102011
102041
102071
102100
102132
102162
102196
102223
102260
102283
102339
102343
101353
101356
101360
101367
101378
101394
101417
101445
101487
101547
101637
101757
101886
102010
102099
102131
102164
102198
102227
102262
102287
102325
102341
101329
101329
101329
101329
101329
101329
101329
101329
101329
101329
101329
101345
101388
101471
101616
101810
102028
102199
102236
102272
102298
102344
102364
101329
101329
101329
101329
101329
101329
101329
101329
101329
101329
101329
101329
101329
101331
101341
101377
101444
101591
101821
102061
102239
102302
102340
101329
101329
101329
101329
101329
101329
101329
101329
101329
101329
101329
101329
101329
101329
101329
101329
101329
101338
101368
101387
101464
101570
101726
101329
101329
101329
101329
101329
101329
101329
101329
101329
101329
101329
101329
101329
101329
101329
101329
101329
101329
101330
101330
101330
101330
101330
101329
101329
101329
101329
101329
101329
101329
101329
101329
101329
101329
101329
101329
101329
101329
101329
101329
101329
101330
101330
101330
101330
101330
101329
101329
101329
101329
101329
101329
101329
101329
101329
101329
101329
101329
101329
101329
101329
101329
101329
101329
101330
101330
101330
101330
101330
101329
101329
101329
101329
101329
101329
101329
101329
101329
101329
101329
101329
101329
101329
101329
101329
101329
101329
101330
101330
101330
101330
101330
101329
101329
101329
101329
101329
101329
101329
101329
101329
101329
101329
101329
101329
101329
101329
101329
101329
101329
101329
101330
101330
101330
101330
101329
101329
101329
101329
101329
101329
101329
101329
101329
101329
101329
101329
101329
101329
101329
101329
101329
101329
101329
101329
101330
101330
101330
101329
101329
101329
101329
101329
101329
101329
101329
101329
101329
101329
101329
101329
101329
101329
101329
101329
101329
101329
101329
101329
101330
101330
101329
101329
101329
101329
101329
101329
101329
101329
101329
101329
101329
101329
101329
101329
101329
101329
101329
101329
101329
101329
101329
101329
101330
101328
101328
101328
101328
101329
101329
101329
101329
101329
101329
101329
101329
101329
101329
101329
101329
101329
101329
101329
101329
101329
101329
101329
101328
101328
101328
101328
101328
101328
101328
101329
101329
101329
101329
101329
101329
101329
101329
101329
101329
101329
101329
101329
101329
101329
101329
101328
101328
101328
101328
101328
101328
101328
101328
101328
101329
101329
101329
101329
101329
101329
101329
101329
101329
101329
101329
101329
101329
101329
101328
101328
101328
101328
101328
101328
101328
101328
101328
101328
101328
101328
101329
101329
101329
101329
101329
101329
101329
101329
101329
101329
101329
101328
101328
101328
101328
101328
101328
101328
101328
101328
101328
101328
101328
101328
101328
101329
101329
101329
101329
101329
101329
101329
101329
101329
101328
101328
101328
101328
101328
101328
101328
101328
101328
101328
101328
101328
101328
101328
101328
101328
101328
101329
101329
101329
101329
101329
101329
101328
101328
101328
101328
101328
101328
101328
101328
101328
101328
101328
101328
101328
101328
101328
101328
101328
101328
101328
101328
101328
101328
101328
101328
101328
101328
101328
101328
101328
101328
101328
101328
101328
101328
101328
101328
101328
101328
101328
101328
101328
101328
101328
101328
101328
101328
101328
101328
101328
101328
101328
101328
101328
101328
101328
101328
101328
101328
101328
101328
101328
101328
101328
101328
101328
101328
101328
101328
101328
101328
101328
101328
101328
101328
101328
101328
101328
101328
101328
101328
101328
101328
101328
101328
101328
101328
101328
101328
101328
101328
101328
101328
101328
101328
101328
101328
101328
101328
101328
101328
101328
101328
101328
101328
101328
101328
101328
101328
101328
101328
101328
101328
101328
101328
101328
101328
101328
101328
101328
101328
101328
101328
101328
101328
101328
101328
101328
101328
101328
101328
101328
101328
101328
101328
101328
101328
101328
101328
101327
101327
101327
101327
101327
101327
101327
101328
101328
101328
101328
101328
101328
101328
101328
101328
101328
101328
101328
101328
101328
101328
101328
101327
101327
101327
101327
101327
101327
101327
101327
101327
101327
101327
101328
101328
101328
101328
101328
101328
101328
101328
101328
101328
101328
101328
101327
101327
101327
101327
101327
101327
101327
101327
101327
101327
101327
101327
101327
101328
101328
101328
101328
101328
101328
101328
101328
101328
101328
101327
101327
101327
101327
101327
101327
101327
101327
101327
101327
101327
101327
101327
101327
101327
101327
101328
101328
101328
101328
101328
101328
101328
101327
101327
101327
101327
101327
101327
101327
101327
101327
101327
101327
101327
101327
101327
101327
101327
101327
101328
101328
101328
101328
101328
101328
101327
101327
101327
101327
101327
101327
101327
101327
101327
101327
101327
101327
101327
101327
101327
101327
101327
101327
101327
101327
101327
101327
101327
101327
101327
101327
101327
101327
101327
101327
101327
101327
101327
101327
101327
101327
101327
101327
101327
101327
101327
101327
101327
101327
101327
101327
101326
101326
101326
101327
101327
101327
101327
101327
101327
101327
101327
101327
101327
101327
101327
101327
101327
101327
101327
101327
101327
101327
101327
101326
101326
101326
101326
101326
101326
101326
101327
101327
101327
101327
101327
101327
101327
101327
101327
101327
101327
101327
101327
101327
101327
101327
101326
101326
101326
101326
101326
101326
101326
101326
101326
101326
101326
101326
101327
101327
101327
101327
101327
101327
101327
101327
101327
101327
101327
101326
101326
101326
101326
101326
101326
101326
101326
101326
101326
101326
101326
101326
101327
101327
101327
101327
101327
101327
101327
101327
101327
101327
101326
101326
101326
101326
101326
101326
101326
101326
101326
101326
101326
101326
101326
101326
101326
101326
101327
101327
101327
101327
101327
101327
101327
101326
101326
101326
101326
101326
101326
101326
101326
101326
101326
101326
101326
101326
101326
101326
101326
101327
101327
101327
101327
101327
101327
101326
101326
101326
101326
101326
101326
101326
101326
101326
101326
101326
101326
101326
101326
101326
101326
101326
101326
101326
101326
101326
101326
101326
101326
101325
101325
101325
101325
101325
101325
101326
101326
101326
101326
101326
101326
101326
101326
101326
101326
101326
101326
101326
101326
101326
101326
101326
101325
101325
101325
101325
101325
101325
101325
101325
101325
101325
101325
101325
101325
101325
101325
101325
101326
101326
101326
101326
101326
101325
101325
101325
101325
101325
101325
101325
101325
101325
101325
101325
101325
101325
101325
101325
101325
101325
101325
101325
101326
101326
101325
101325
101325
101325
102447
102444
102587
102507
102395
102393
102421
102400
102417
102422
102473
102456
102366
102369
102382
102382
101842
101912
101949
101994
101330
101331
101331
101331
101330
101331
101331
101331
101330
101330
101331
101331
101330
101330
101331
101331
101330
101330
101330
101330
101330
101330
101330
101330
101330
101330
101330
101330
101330
101330
101330
101330
101329
101329
101329
101329
101329
101329
101329
101329
101329
101329
101329
101329
101329
101329
101329
101329
101329
101329
101329
101329
101329
101328
101328
101328
101328
101328
101328
101328
101328
101328
101328
101328
101328
101328
101328
101328
101328
101328
101328
101328
101328
101328
101328
101328
101328
101328
101328
101328
101328
101328
101328
101328
101328
101328
101328
101328
101328
101328
101328
101328
101328
101328
101327
101327
101327
101327
101327
101327
101327
101327
101327
101327
101327
101327
101327
101327
101327
101327
101327
101327
101327
101327
101327
101326
101327
101327
101326
101326
101327
101326
101326
101326
101326
101326
101326
101326
101326
101326
101326
101325
101326
101326
101325
101325
101326
101325
101325
101325
101325
101325
101325
101325
101325
101325
101325
101325
102686
101813
101873
102020
102286
102310
102172
101735
101665
101662
101664
101665
101668
101666
101667
101666
101667
101666
102028
102428
102309
102398
102376
102425
102388
101984
101671
101662
101662
101662
101665
101666
101666
101666
101666
101666
101666
102203
102584
102406
102479
102443
102495
102480
101838
101663
101663
101662
101663
101664
101665
101665
101666
101666
101666
101692
102341
102410
102397
102442
102473
102548
102545
101796
101663
101662
101661
101663
101664
101665
101665
101666
101666
101666
101762
102466
102103
102149
102222
102389
102578
102619
101837
101664
101663
101663
101664
101665
101665
101665
101666
101666
101666
101809
102592
101340
101374
101449
101729
102403
102665
102060
101664
101664
101665
101665
101665
101665
101665
101666
101666
101666
101837
102719
101331
101331
101332
101349
101818
102681
102311
101665
101666
101666
101666
101666
101666
101666
101666
101666
101667
101875
102862
101331
101331
101332
101332
101380
102168
102652
101850
101665
101668
101667
101666
101666
101666
101666
101666
101666
102129
103079
101331
101331
101332
101332
101333
101559
102568
102586
101748
101668
101667
101668
101667
101667
101667
101667
101667
102693
103287
101331
101331
101332
101333
101332
101340
101818
102640
102586
101805
101668
101684
101754
101667
101666
101673
102160
103252
103466
101331
101331
101331
101336
101368
101375
101401
102321
102716
102618
102494
102683
102689
102662
102584
102762
103138
103246
103491
101330
101330
101330
101332
101549
101927
101990
102051
102341
102884
102842
102538
102199
102239
102403
102312
102113
102341
103469
101330
101330
101329
101328
101460
102222
102662
102768
102890
102927
102964
102294
102055
101722
101723
101725
101980
102715
103543
101329
101329
101328
101327
101327
101328
101327
101615
102422
102730
102874
103230
103232
102847
102877
103133
103460
103577
103718
101329
101329
101328
101327
101328
101327
101327
101327
101327
101327
101376
102084
102719
103361
103659
103700
103710
103702
103690
101329
101328
101328
101328
101328
101328
101327
101327
101327
101327
101328
101328
101328
101455
102186
103189
103795
103812
103781
101329
101328
101328
101328
101328
101327
101327
101327
101326
101327
101328
101328
101328
101328
101328
101843
103548
103784
103838
101329
101328
101328
101328
101328
101327
101327
101326
101326
101327
101328
101328
101328
101328
101334
101370
102633
103964
103987
101328
101328
101328
101328
101328
101327
101327
101327
101327
101327
101328
101328
101328
101328
101328
101330
101691
103595
104091
101328
101328
101328
101328
101328
101327
101327
101327
101327
101327
101328
101328
101328
101328
101329
101329
101365
102099
102934
101328
101328
101328
101328
101328
101327
101327
101327
101327
101327
101328
101328
101328
101328
101329
101329
101340
101373
101830
101328
101328
101328
101328
101328
101327
101327
101327
101328
101328
101328
101328
101329
101328
101329
101329
101329
101342
101715
101328
101328
101328
101328
101328
101327
101328
101327
101328
101328
101328
101328
101329
101328
101329
101329
101329
101344
101983
101328
101328
101328
101328
101328
101327
101327
101327
101328
101328
101328
101328
101328
101328
101329
101329
101330
101329
101947
101328
101328
101328
101328
101327
101327
101327
101327
101328
101328
101328
101328
101328
101328
101329
101329
101330
101329
101402
101328
101328
101328
101327
101327
101327
101327
101327
101327
101327
101328
101327
101328
101327
101329
101341
101347
101436
101421
101328
101328
101327
101327
101327
101327
101327
101327
101327
101327
101327
101327
101327
101327
101330
101432
101809
102108
102064
101327
101327
101327
101327
101327
101327
101327
101327
101327
101327
101327
101327
101327
101326
101329
101482
102218
102241
102240
101327
101327
101327
101327
101327
101327
101327
101327
101327
101327
101327
101326
101326
101326
101328
101400
101543
102269
102278
101327
101327
101327
101327
101327
101326
101326
101326
101326
101326
101326
101326
101325
101325
101328
101325
101324
101789
101958
101327
101327
101327
101326
101326
101326
101326
101326
101326
101326
101326
101326
101325
101325
101326
101324
101323
101324
102556
101327
101327
101326
101326
101326
101326
101325
101326
101325
101326
101325
101325
101325
101325
101325
101324
101323
101324
103245
101327
101326
101326
101325
101325
101325
101325
101325
101325
101325
101325
101325
101324
101325
101324
101324
101323
101324
103299
101326
101326
101325
101324
101324
101324
101324
101324
101324
101325
101324
101325
101324
101324
101323
101324
101323
101324
103353
101326
101325
101325
101324
101323
101323
101323
101324
101324
101324
101324
101324
101324
101324
101323
101324
101323
101324
102998
101326
101325
101324
101323
101322
101322
101322
101323
101323
101324
101324
101324
101324
101324
101323
101323
101323
101324
102560
101325
101324
101323
101323
101322
101321
101322
101323
101323
101324
101324
101324
101324
101324
101323
101324
101323
101324
102412
101325
101324
101323
101323
101322
101321
101321
101322
101323
101323
101324
101324
101324
101324
101324
101324
101324
101324
102256
101325
101324
101323
101323
101323
101323
101322
101323
101323
101324
101324
101324
101324
101324
101324
101324
101324
101324
102120
101325
101324
101324
101323
101323
101323
101323
101323
101323
101324
101324
101324
101324
101324
101324
101324
101325
101325
102144
101325
101325
101324
101324
101324
101324
101324
101324
101324
101325
101325
101325
101325
101325
101324
101325
101324
101325
101830
101325
101325
101325
101324
101324
101324
101324
101324
101324
101324
101324
101324
101324
101325
101324
101325
101324
101326
101391
)
;

boundaryField
{
    leftWall
    {
        type            zeroGradient;
    }
    rightWall
    {
        type            zeroGradient;
    }
    lowerWall
    {
        type            zeroGradient;
    }
    atmosphere
    {
        type            fixedValue;
        value           uniform 101325;
    }
    defaultFaces
    {
        type            empty;
    }
}


// ************************************************************************* //
