/*--------------------------------*- C++ -*----------------------------------*\
| =========                 |                                                 |
| \\      /  F ield         | OpenFOAM: The Open Source CFD Toolbox           |
|  \\    /   O peration     | Version:  2012                                  |
|   \\  /    A nd           | Website:  www.openfoam.com                      |
|    \\/     M anipulation  |                                                 |
\*---------------------------------------------------------------------------*/
FoamFile
{
    version     2.0;
    format      ascii;
    class       volScalarField;
    location    "0.58";
    object      rho2;
}
// * * * * * * * * * * * * * * * * * * * * * * * * * * * * * * * * * * * * * //

dimensions      [1 -3 0 0 0 0 0];


internalField   nonuniform List<scalar> 
2268
(
1.3003
1.30032
1.30036
1.30042
1.30051
1.30062
1.30075
1.30091
1.3011
1.30133
1.30157
1.30185
1.30215
1.30248
1.3028
1.30315
1.30347
1.30382
1.30411
1.30442
1.30464
1.30484
1.30493
1.29955
1.29957
1.29961
1.29967
1.29975
1.29986
1.29999
1.30015
1.30034
1.30057
1.30081
1.3011
1.30139
1.30172
1.30205
1.3024
1.30272
1.30307
1.30336
1.30367
1.3039
1.30411
1.3042
1.29878
1.2988
1.29884
1.2989
1.29898
1.29909
1.29923
1.29939
1.29957
1.2998
1.30005
1.30034
1.30063
1.30097
1.30129
1.30165
1.30198
1.30233
1.30263
1.30295
1.30317
1.3034
1.30348
1.29802
1.29804
1.29807
1.29813
1.29822
1.29832
1.29846
1.29862
1.29881
1.29904
1.29928
1.29957
1.29987
1.30021
1.30054
1.30089
1.30123
1.30158
1.30189
1.30222
1.30245
1.30269
1.30278
1.29724
1.29726
1.29729
1.29735
1.29744
1.29754
1.29767
1.29783
1.29802
1.29825
1.2985
1.2988
1.2991
1.29945
1.29978
1.30015
1.30049
1.30085
1.30116
1.30151
1.30174
1.30202
1.30211
1.29647
1.29649
1.29653
1.29658
1.29666
1.29677
1.2969
1.29706
1.29725
1.29747
1.29772
1.29802
1.29833
1.29868
1.29902
1.29939
1.29974
1.30011
1.30043
1.30079
1.30105
1.30135
1.30144
1.29569
1.29571
1.29574
1.2958
1.29588
1.29598
1.29611
1.29626
1.29645
1.29668
1.29693
1.29724
1.29755
1.29791
1.29826
1.29864
1.299
1.29939
1.29971
1.3001
1.30036
1.30075
1.30084
1.29494
1.29496
1.29499
1.29505
1.29512
1.29522
1.29535
1.2955
1.29568
1.2959
1.29615
1.29645
1.29677
1.29714
1.2975
1.29789
1.29825
1.29865
1.29899
1.29939
1.29967
1.30007
1.30017
1.30357
1.29811
1.29854
1.29812
1.30051
1.30649
1.31025
1.30516
1.30042
1.29937
1.29816
1.298
1.29799
1.2979
1.29792
1.29837
1.29982
1.3057
1.31376
1.30039
1.29717
1.29782
1.29722
1.2987
1.3063
1.3117
1.30419
1.29889
1.29841
1.29734
1.2972
1.29724
1.29718
1.29713
1.29731
1.29823
1.30395
1.31116
1.29885
1.29679
1.29738
1.29755
1.29934
1.30514
1.30907
1.30358
1.29867
1.29945
1.29743
1.29679
1.29676
1.29669
1.29674
1.29692
1.29749
1.301
1.30869
1.29953
1.29719
1.29753
1.29748
1.29895
1.30353
1.3094
1.30273
1.29813
1.29794
1.29661
1.29629
1.29619
1.29625
1.29602
1.29592
1.29687
1.29885
1.30563
1.29969
1.29749
1.29763
1.29734
1.29904
1.30187
1.30578
1.30229
1.29892
1.29753
1.29578
1.29581
1.29631
1.2964
1.29635
1.2962
1.2967
1.29737
1.30296
1.30006
1.29745
1.29776
1.29691
1.29875
1.30103
1.30451
1.3003
1.29778
1.29711
1.29569
1.29575
1.29627
1.29641
1.29642
1.29637
1.29653
1.29752
1.30033
1.30243
1.29772
1.29818
1.29688
1.29844
1.30035
1.30197
1.29916
1.29747
1.2971
1.29601
1.29581
1.29628
1.29644
1.29644
1.2964
1.29634
1.29765
1.29843
1.30158
1.29748
1.29826
1.2983
1.29906
1.29996
1.30085
1.29809
1.29756
1.29676
1.29637
1.29597
1.29633
1.2965
1.29647
1.2964
1.29635
1.29709
1.29726
1.29395
1.29396
1.29399
1.29402
1.29407
1.29414
1.29423
1.29434
1.2945
1.2947
1.29494
1.29526
1.29558
1.29596
1.29632
1.29671
1.2971
1.29753
1.29788
1.29835
1.29864
1.29936
1.29941
1.29338
1.29339
1.29339
1.2934
1.29341
1.29343
1.29345
1.29349
1.29354
1.29361
1.29371
1.29387
1.29409
1.29439
1.29475
1.29515
1.29555
1.29598
1.29634
1.29677
1.29709
1.29758
1.29778
1.2933
1.2933
1.2933
1.2933
1.29331
1.29331
1.29332
1.29335
1.29337
1.29337
1.29337
1.29337
1.29343
1.29351
1.29365
1.29388
1.29416
1.29451
1.29489
1.29533
1.29565
1.29623
1.29648
1.29325
1.29325
1.29325
1.29326
1.29326
1.29326
1.29327
1.29327
1.29329
1.2933
1.29329
1.29329
1.29334
1.29334
1.29333
1.29339
1.29346
1.29359
1.2938
1.29402
1.29424
1.29447
1.29468
1.29324
1.29324
1.29324
1.29324
1.29324
1.29324
1.29324
1.29324
1.29325
1.29325
1.29325
1.29325
1.29329
1.29327
1.29325
1.29329
1.29332
1.29334
1.29337
1.2934
1.29346
1.29354
1.29365
1.29323
1.29323
1.29323
1.29323
1.29323
1.29323
1.29324
1.29324
1.29324
1.29324
1.29324
1.29324
1.29325
1.29324
1.29324
1.29324
1.29325
1.29325
1.29327
1.29329
1.29332
1.29331
1.29332
1.29323
1.29323
1.29323
1.29323
1.29323
1.29323
1.29323
1.29323
1.29323
1.29323
1.29323
1.29323
1.29324
1.29324
1.29324
1.29324
1.29324
1.29324
1.29324
1.29324
1.29325
1.29325
1.29326
1.29323
1.29323
1.29323
1.29323
1.29323
1.29323
1.29323
1.29323
1.29323
1.29323
1.29323
1.29323
1.29323
1.29323
1.29323
1.29324
1.29324
1.29324
1.29324
1.29324
1.29324
1.29324
1.29324
1.29323
1.29323
1.29323
1.29323
1.29323
1.29323
1.29323
1.29323
1.29323
1.29323
1.29323
1.29323
1.29323
1.29323
1.29323
1.29323
1.29323
1.29324
1.29324
1.29324
1.29324
1.29324
1.29324
1.29323
1.29323
1.29323
1.29323
1.29323
1.29323
1.29323
1.29323
1.29323
1.29323
1.29323
1.29323
1.29323
1.29323
1.29323
1.29323
1.29323
1.29323
1.29323
1.29323
1.29324
1.29324
1.29324
1.29322
1.29322
1.29323
1.29323
1.29323
1.29323
1.29323
1.29323
1.29323
1.29323
1.29323
1.29323
1.29323
1.29323
1.29323
1.29323
1.29323
1.29323
1.29323
1.29323
1.29323
1.29323
1.29324
1.29322
1.29322
1.29322
1.29322
1.29322
1.29322
1.29322
1.29322
1.29322
1.29322
1.29322
1.29323
1.29323
1.29323
1.29323
1.29323
1.29323
1.29323
1.29323
1.29323
1.29323
1.29323
1.29323
1.29322
1.29322
1.29322
1.29322
1.29322
1.29322
1.29322
1.29322
1.29322
1.29322
1.29322
1.29322
1.29322
1.29322
1.29322
1.29322
1.29323
1.29323
1.29323
1.29323
1.29323
1.29323
1.29323
1.29322
1.29322
1.29322
1.29322
1.29322
1.29322
1.29322
1.29322
1.29322
1.29322
1.29322
1.29322
1.29322
1.29322
1.29322
1.29322
1.29322
1.29322
1.29322
1.29322
1.29322
1.29323
1.29323
1.29321
1.29321
1.29321
1.29321
1.29321
1.29322
1.29322
1.29322
1.29322
1.29322
1.29322
1.29322
1.29322
1.29322
1.29322
1.29322
1.29322
1.29322
1.29322
1.29322
1.29322
1.29322
1.29322
1.29321
1.29321
1.29321
1.29321
1.29321
1.29321
1.29321
1.29321
1.29321
1.29321
1.29321
1.29321
1.29322
1.29322
1.29322
1.29322
1.29322
1.29322
1.29322
1.29322
1.29322
1.29322
1.29322
1.29321
1.29321
1.29321
1.29321
1.29321
1.29321
1.29321
1.29321
1.29321
1.29321
1.29321
1.29321
1.29321
1.29321
1.29321
1.29321
1.29321
1.29322
1.29322
1.29322
1.29322
1.29322
1.29322
1.2932
1.2932
1.2932
1.2932
1.2932
1.2932
1.2932
1.2932
1.29321
1.29321
1.29321
1.29321
1.29321
1.29321
1.29321
1.29321
1.29321
1.29321
1.29321
1.29321
1.29321
1.29321
1.29321
1.29319
1.29319
1.29319
1.2932
1.2932
1.2932
1.2932
1.2932
1.2932
1.2932
1.2932
1.2932
1.2932
1.2932
1.29321
1.29321
1.29321
1.29321
1.29321
1.29321
1.29321
1.29321
1.29321
1.29318
1.29318
1.29318
1.29319
1.29319
1.29319
1.29319
1.29319
1.29319
1.29319
1.29319
1.2932
1.2932
1.2932
1.2932
1.2932
1.2932
1.2932
1.29321
1.29321
1.29321
1.29321
1.29321
1.29317
1.29317
1.29317
1.29317
1.29317
1.29317
1.29317
1.29318
1.29318
1.29318
1.29318
1.29318
1.29319
1.29319
1.29319
1.29319
1.2932
1.2932
1.2932
1.2932
1.2932
1.2932
1.2932
1.29315
1.29315
1.29315
1.29315
1.29315
1.29315
1.29316
1.29316
1.29316
1.29316
1.29317
1.29317
1.29317
1.29318
1.29318
1.29318
1.29319
1.29319
1.29319
1.29319
1.2932
1.2932
1.2932
1.29313
1.29313
1.29313
1.29313
1.29313
1.29314
1.29314
1.29314
1.29314
1.29314
1.29314
1.29315
1.29315
1.29315
1.29316
1.29316
1.29317
1.29317
1.29318
1.29318
1.29319
1.29319
1.29319
1.29312
1.29312
1.29312
1.29312
1.29312
1.29312
1.29312
1.29312
1.29312
1.29313
1.29313
1.29313
1.29313
1.29313
1.29314
1.29314
1.29315
1.29315
1.29316
1.29316
1.29317
1.29318
1.29318
1.29311
1.29311
1.29311
1.29311
1.29311
1.29311
1.29311
1.29311
1.29311
1.29311
1.29311
1.29312
1.29312
1.29312
1.29312
1.29312
1.29313
1.29313
1.29313
1.29314
1.29315
1.29315
1.29316
1.2931
1.2931
1.2931
1.2931
1.2931
1.2931
1.2931
1.2931
1.2931
1.2931
1.29311
1.29311
1.29311
1.29311
1.29311
1.29311
1.29311
1.29312
1.29312
1.29312
1.29313
1.29313
1.29314
1.2931
1.2931
1.2931
1.2931
1.2931
1.2931
1.2931
1.2931
1.2931
1.2931
1.2931
1.2931
1.2931
1.2931
1.2931
1.29311
1.29311
1.29311
1.29311
1.29311
1.29312
1.29312
1.29312
1.29309
1.29309
1.29309
1.29309
1.29309
1.29309
1.29309
1.29309
1.29309
1.29309
1.2931
1.2931
1.2931
1.2931
1.2931
1.2931
1.2931
1.29311
1.29311
1.29311
1.29311
1.29311
1.29312
1.29309
1.29309
1.29309
1.29309
1.29309
1.29309
1.29309
1.29309
1.29309
1.29309
1.29309
1.29309
1.29309
1.2931
1.2931
1.2931
1.2931
1.2931
1.2931
1.29311
1.29311
1.29311
1.29311
1.29309
1.29309
1.29309
1.29309
1.29309
1.29309
1.29309
1.29309
1.29309
1.29309
1.29309
1.29309
1.29309
1.2931
1.2931
1.2931
1.2931
1.2931
1.29311
1.29311
1.29311
1.29311
1.29312
1.29309
1.29309
1.29309
1.29309
1.29309
1.29309
1.29309
1.29309
1.29309
1.29309
1.29309
1.2931
1.2931
1.2931
1.2931
1.2931
1.29311
1.29311
1.29311
1.29312
1.29312
1.29312
1.29313
1.29309
1.29309
1.29309
1.29309
1.29309
1.29309
1.29309
1.29309
1.2931
1.2931
1.2931
1.2931
1.2931
1.2931
1.29311
1.29311
1.29311
1.29311
1.29312
1.29313
1.29313
1.29314
1.29315
1.2931
1.2931
1.2931
1.2931
1.2931
1.2931
1.2931
1.2931
1.2931
1.2931
1.2931
1.2931
1.2931
1.2931
1.29311
1.29311
1.29311
1.29312
1.29312
1.29314
1.29315
1.29316
1.29316
1.2931
1.2931
1.2931
1.2931
1.2931
1.2931
1.2931
1.2931
1.2931
1.2931
1.2931
1.2931
1.2931
1.29311
1.29311
1.29311
1.29312
1.29312
1.29314
1.29315
1.29316
1.29316
1.29315
1.2931
1.2931
1.2931
1.2931
1.2931
1.2931
1.2931
1.2931
1.2931
1.2931
1.2931
1.2931
1.2931
1.2931
1.29311
1.29311
1.29312
1.29313
1.29315
1.29316
1.29315
1.29314
1.29312
1.2931
1.2931
1.2931
1.2931
1.2931
1.2931
1.2931
1.2931
1.2931
1.2931
1.2931
1.2931
1.2931
1.29311
1.29311
1.29311
1.29312
1.29314
1.29315
1.29315
1.29313
1.2931
1.29309
1.2931
1.2931
1.2931
1.2931
1.2931
1.2931
1.2931
1.2931
1.2931
1.2931
1.2931
1.2931
1.2931
1.2931
1.29311
1.29311
1.29313
1.29314
1.29315
1.29314
1.2931
1.29306
1.29304
1.2931
1.2931
1.2931
1.2931
1.2931
1.2931
1.2931
1.2931
1.2931
1.2931
1.2931
1.2931
1.2931
1.29311
1.29311
1.29312
1.29313
1.29315
1.29315
1.29312
1.29305
1.293
1.29299
1.2931
1.2931
1.2931
1.2931
1.2931
1.2931
1.2931
1.2931
1.2931
1.2931
1.2931
1.2931
1.29311
1.29311
1.29311
1.29312
1.29314
1.29315
1.29314
1.29306
1.29298
1.29294
1.29296
1.29311
1.29311
1.29311
1.29311
1.29311
1.29311
1.29311
1.29311
1.29311
1.29311
1.29311
1.29311
1.29311
1.29312
1.29312
1.29313
1.29315
1.29315
1.29312
1.29301
1.29292
1.2929
1.29295
1.29311
1.29311
1.29311
1.29311
1.29311
1.29311
1.29311
1.29311
1.29311
1.29311
1.29311
1.29312
1.29312
1.29313
1.29313
1.29315
1.29316
1.29314
1.29305
1.29292
1.29286
1.29287
1.29294
1.29311
1.29311
1.29311
1.29311
1.29311
1.29311
1.29312
1.29312
1.29312
1.29312
1.29312
1.29313
1.29313
1.29314
1.29316
1.29318
1.29319
1.29314
1.29297
1.29286
1.29283
1.29285
1.29293
1.30072
1.3007
1.30251
1.30155
1.29847
1.29844
1.2988
1.29854
1.29715
1.29722
1.29787
1.29765
1.29497
1.295
1.29517
1.29518
1.29373
1.29378
1.29381
1.29385
1.29333
1.29336
1.29338
1.29338
1.29328
1.29331
1.29333
1.29334
1.29325
1.29325
1.29325
1.29326
1.29324
1.29324
1.29324
1.29325
1.29324
1.29324
1.29324
1.29324
1.29324
1.29324
1.29324
1.29324
1.29323
1.29323
1.29323
1.29324
1.29323
1.29323
1.29323
1.29323
1.29323
1.29323
1.29323
1.29323
1.29322
1.29322
1.29322
1.29322
1.29322
1.29322
1.29322
1.29322
1.29322
1.29322
1.29322
1.29321
1.29321
1.29321
1.29321
1.29321
1.29321
1.29321
1.29321
1.29321
1.29321
1.29321
1.29321
1.29321
1.2932
1.2932
1.2932
1.2932
1.2932
1.2932
1.2932
1.2932
1.29319
1.29319
1.29319
1.2932
1.29318
1.29319
1.29319
1.29319
1.29317
1.29317
1.29317
1.29318
1.29314
1.29315
1.29315
1.29315
1.29313
1.29313
1.29313
1.29313
1.29312
1.29312
1.29312
1.29312
1.29312
1.29312
1.29312
1.29312
1.29312
1.29312
1.29312
1.29312
1.29313
1.29314
1.29314
1.29314
1.29315
1.29315
1.29315
1.29315
1.29315
1.29315
1.29315
1.29315
1.29314
1.29313
1.29313
1.29313
1.29311
1.29311
1.29311
1.29311
1.29308
1.29309
1.2931
1.2931
1.29305
1.29306
1.29308
1.29308
1.29303
1.29305
1.29306
1.29307
1.29301
1.29303
1.29305
1.29307
1.293
1.29303
1.29304
1.29306
1.29299
1.29302
1.29304
1.29305
1.29299
1.29301
1.29303
1.29305
1.30685
1.29801
1.29887
1.29851
1.29896
1.29913
1.29911
1.29778
1.29699
1.29644
1.29626
1.29619
1.29646
1.29654
1.29647
1.29637
1.29635
1.29583
1.29692
1.29896
1.29781
1.29869
1.2983
1.29887
1.29846
1.29805
1.29776
1.29656
1.29626
1.29622
1.29632
1.29658
1.29656
1.29648
1.29637
1.29634
1.29551
1.29686
1.29929
1.29702
1.29796
1.2975
1.29813
1.29803
1.29782
1.29747
1.29657
1.29619
1.29623
1.29631
1.2966
1.29655
1.29648
1.29637
1.29633
1.29635
1.29682
1.29552
1.29535
1.29592
1.2963
1.29721
1.29763
1.29782
1.29679
1.29639
1.29612
1.2962
1.29632
1.29658
1.29652
1.29645
1.29636
1.29626
1.29599
1.29676
1.29395
1.29404
1.29433
1.29502
1.29612
1.29729
1.29788
1.29668
1.29635
1.29617
1.29618
1.29639
1.29654
1.2965
1.29643
1.29637
1.29608
1.29575
1.29676
1.29338
1.29341
1.29347
1.29368
1.29467
1.29631
1.2979
1.29666
1.2964
1.29627
1.29621
1.29647
1.2965
1.29647
1.29639
1.29636
1.29573
1.2956
1.29683
1.29335
1.29336
1.29335
1.29336
1.29353
1.29498
1.29767
1.29649
1.29625
1.29644
1.29631
1.2965
1.29649
1.29644
1.29636
1.2963
1.29543
1.29557
1.297
1.29329
1.2933
1.2933
1.29331
1.29333
1.29358
1.29609
1.2963
1.29593
1.29645
1.29643
1.29646
1.29643
1.29635
1.29627
1.29608
1.29485
1.29561
1.29763
1.29326
1.29327
1.29328
1.29328
1.29329
1.29329
1.294
1.29609
1.29678
1.29635
1.29638
1.29624
1.29593
1.29591
1.29586
1.29543
1.29383
1.29569
1.29836
1.29325
1.29326
1.29326
1.29327
1.29325
1.29322
1.29329
1.29486
1.29598
1.29643
1.29482
1.29594
1.29512
1.29509
1.29558
1.29522
1.29538
1.29689
1.29924
1.29324
1.29325
1.29325
1.2932
1.29316
1.29305
1.29235
1.29377
1.29523
1.2959
1.29617
1.29544
1.29487
1.29489
1.2951
1.29525
1.29552
1.29673
1.29843
1.29324
1.29323
1.29317
1.2931
1.29305
1.29255
1.29298
1.29369
1.29497
1.29605
1.2964
1.2962
1.29599
1.29573
1.29639
1.29679
1.2971
1.29731
1.29797
1.29323
1.29321
1.29314
1.29308
1.29317
1.2935
1.2934
1.29338
1.29477
1.29524
1.29572
1.29587
1.29568
1.29541
1.29537
1.29533
1.29539
1.29546
1.29599
1.29322
1.29321
1.29315
1.2931
1.29313
1.29319
1.29321
1.29331
1.29361
1.29372
1.29383
1.29453
1.29452
1.29498
1.29582
1.29613
1.29633
1.29625
1.29633
1.29322
1.29321
1.29318
1.29312
1.29311
1.29318
1.29321
1.2932
1.29318
1.29314
1.29315
1.29334
1.29346
1.29374
1.29416
1.2943
1.2946
1.29456
1.29469
1.29322
1.29321
1.2932
1.29315
1.29312
1.29318
1.29319
1.29317
1.29316
1.29314
1.29312
1.29303
1.2929
1.29281
1.29292
1.29307
1.29376
1.2944
1.29467
1.29321
1.29321
1.2932
1.29317
1.29313
1.29315
1.29318
1.29317
1.29316
1.29316
1.29317
1.29313
1.29305
1.29287
1.29268
1.29259
1.29254
1.29333
1.29376
1.29321
1.29321
1.29321
1.29319
1.29316
1.29314
1.29315
1.29315
1.29315
1.29316
1.29318
1.29318
1.29317
1.2931
1.29299
1.29265
1.29236
1.293
1.29369
1.29321
1.29321
1.29321
1.2932
1.29319
1.29316
1.29315
1.29315
1.29315
1.29316
1.29318
1.29319
1.2932
1.29317
1.29312
1.29286
1.29246
1.29257
1.29328
1.29321
1.2932
1.2932
1.2932
1.2932
1.29318
1.29317
1.29316
1.29316
1.29317
1.29318
1.29319
1.2932
1.2932
1.29317
1.29304
1.29277
1.29269
1.29314
1.2932
1.2932
1.2932
1.2932
1.2932
1.29319
1.29319
1.29318
1.29318
1.29318
1.29319
1.29319
1.2932
1.2932
1.2932
1.29317
1.29313
1.29298
1.29313
1.2932
1.2932
1.2932
1.2932
1.2932
1.29319
1.29319
1.29319
1.29319
1.29319
1.2932
1.2932
1.2932
1.2932
1.29321
1.2932
1.29321
1.29318
1.29313
1.2932
1.2932
1.2932
1.29319
1.29319
1.29319
1.29319
1.29319
1.29319
1.29319
1.2932
1.2932
1.2932
1.2932
1.29321
1.29321
1.29321
1.29321
1.2931
1.29319
1.29319
1.29319
1.29319
1.29319
1.29319
1.29319
1.29319
1.29319
1.29319
1.29319
1.29319
1.2932
1.2932
1.29321
1.2932
1.29318
1.29318
1.29313
1.29318
1.29318
1.29319
1.29319
1.29319
1.29319
1.29319
1.29319
1.29319
1.29319
1.29319
1.29319
1.2932
1.29319
1.2932
1.29317
1.29311
1.29307
1.29313
1.29316
1.29317
1.29318
1.29318
1.29318
1.29318
1.29318
1.29318
1.29319
1.29319
1.29319
1.29319
1.29319
1.29318
1.29318
1.2931
1.29306
1.29295
1.29296
1.29314
1.29315
1.29316
1.29317
1.29318
1.29318
1.29318
1.29318
1.29318
1.29318
1.29318
1.29318
1.29318
1.29317
1.29315
1.2931
1.29307
1.2927
1.29291
1.29313
1.29313
1.29314
1.29315
1.29317
1.29317
1.29318
1.29318
1.29318
1.29318
1.29318
1.29318
1.29317
1.29316
1.29314
1.29325
1.29325
1.2931
1.29292
1.29312
1.29312
1.29313
1.29314
1.29315
1.29316
1.29317
1.29317
1.29317
1.29317
1.29317
1.29317
1.29316
1.29315
1.29316
1.2933
1.2933
1.29324
1.29303
1.29312
1.29313
1.29313
1.29313
1.29314
1.29315
1.29316
1.29316
1.29317
1.29317
1.29317
1.29316
1.29316
1.29314
1.29319
1.29327
1.29318
1.29346
1.29306
1.29314
1.29314
1.29314
1.29314
1.29314
1.29314
1.29315
1.29316
1.29316
1.29316
1.29316
1.29316
1.29315
1.29314
1.29319
1.2931
1.29297
1.29344
1.29308
1.29315
1.29315
1.29315
1.29315
1.29314
1.29314
1.29315
1.29315
1.29315
1.29316
1.29315
1.29315
1.29314
1.29313
1.29317
1.29304
1.29286
1.29329
1.29312
1.29314
1.29313
1.29313
1.29313
1.29313
1.29313
1.29314
1.29314
1.29315
1.29315
1.29315
1.29315
1.29314
1.29313
1.29314
1.29301
1.29279
1.29315
1.29312
1.29312
1.29312
1.29311
1.2931
1.2931
1.29311
1.29312
1.29313
1.29314
1.29314
1.29314
1.29314
1.29313
1.29313
1.29312
1.29299
1.29274
1.29294
1.29308
1.29311
1.29311
1.2931
1.29309
1.29308
1.29308
1.2931
1.29312
1.29313
1.29314
1.29314
1.29314
1.29313
1.29313
1.29311
1.29302
1.29272
1.29271
1.29301
1.2931
1.2931
1.29309
1.29307
1.29305
1.29305
1.29307
1.2931
1.29312
1.29313
1.29313
1.29313
1.29312
1.29312
1.2931
1.29306
1.29272
1.2926
1.29295
1.29309
1.2931
1.29309
1.29307
1.29304
1.29304
1.29306
1.29309
1.29311
1.29312
1.29312
1.29313
1.29312
1.29312
1.2931
1.29306
1.29273
1.29255
1.2929
1.29309
1.29309
1.29308
1.29306
1.29304
1.29304
1.29305
1.29307
1.2931
1.29311
1.29312
1.29312
1.29312
1.29312
1.2931
1.29305
1.29272
1.29253
1.29283
1.29308
1.29309
1.29309
1.29307
1.29306
1.29305
1.29307
1.29308
1.2931
1.29311
1.29312
1.29312
1.29312
1.29312
1.29311
1.29304
1.29272
1.29254
1.29276
1.29307
1.29309
1.29308
1.29308
1.29306
1.29306
1.29307
1.29308
1.29309
1.2931
1.29311
1.29312
1.29312
1.29312
1.29311
1.29301
1.29272
1.29255
1.29278
1.29307
1.29308
1.29309
1.29309
1.29308
1.29308
1.29308
1.29309
1.29309
1.29311
1.29312
1.29312
1.29312
1.29312
1.29311
1.29303
1.29274
1.29257
1.29252
1.29307
1.29308
1.29309
1.29308
1.29308
1.29308
1.29308
1.29308
1.29309
1.2931
1.2931
1.29311
1.29311
1.29312
1.29309
1.2929
1.29267
1.29257
1.29249
)
;

boundaryField
{
    leftWall
    {
        type            calculated;
        value           nonuniform List<scalar> 
50
(
1.3003
1.29955
1.29878
1.29802
1.29724
1.29647
1.29569
1.29494
1.29395
1.29338
1.2933
1.29325
1.29324
1.29323
1.29323
1.29323
1.29323
1.29323
1.29322
1.29322
1.29322
1.29322
1.29321
1.29321
1.29321
1.2932
1.29319
1.29318
1.29317
1.29315
1.29313
1.29312
1.29311
1.2931
1.2931
1.29309
1.29309
1.29309
1.29309
1.29309
1.2931
1.2931
1.2931
1.2931
1.2931
1.2931
1.2931
1.29311
1.29311
1.29311
)
;
    }
    rightWall
    {
        type            calculated;
        value           nonuniform List<scalar> 
50
(
1.31376
1.31116
1.30869
1.30563
1.30296
1.30033
1.29843
1.29726
1.29692
1.29686
1.29682
1.29676
1.29676
1.29683
1.297
1.29763
1.29836
1.29924
1.29843
1.29797
1.29599
1.29633
1.29469
1.29467
1.29376
1.29369
1.29328
1.29314
1.29313
1.29313
1.2931
1.29313
1.29313
1.29296
1.29291
1.29292
1.29303
1.29306
1.29308
1.29312
1.29312
1.29308
1.29301
1.29295
1.2929
1.29283
1.29276
1.29278
1.29252
1.29249
)
;
    }
    lowerWall
    {
        type            calculated;
        value           nonuniform List<scalar> 
62
(
1.30068
1.3007
1.30074
1.3008
1.30088
1.30099
1.30113
1.30129
1.30147
1.3017
1.30194
1.30223
1.30252
1.30285
1.30317
1.30353
1.30385
1.3042
1.30449
1.30479
1.30501
1.30522
1.3053
1.30493
1.3042
1.30348
1.30278
1.30211
1.30144
1.30084
1.30017
1.30152
1.30149
1.30331
1.30235
1.30357
1.30039
1.29885
1.29953
1.29969
1.30006
1.30243
1.30158
1.30371
1.29825
1.29873
1.29832
1.30071
1.30672
1.31052
1.30543
1.30069
1.29964
1.29842
1.29827
1.29827
1.29818
1.2982
1.29865
1.3001
1.30598
1.31404
)
;
    }
    atmosphere
    {
        type            calculated;
        value           nonuniform List<scalar> 
46
(
1.2932
1.29321
1.29321
1.29321
1.29321
1.29321
1.29321
1.29321
1.29321
1.29321
1.29321
1.29322
1.29322
1.29323
1.29325
1.29327
1.29328
1.29322
1.29306
1.29294
1.29292
1.29294
1.29302
1.29308
1.2931
1.29313
1.29314
1.29316
1.29318
1.29318
1.29319
1.29318
1.29318
1.29318
1.29319
1.29319
1.2932
1.29321
1.29321
1.29321
1.29322
1.29319
1.29299
1.29278
1.29265
1.29264
)
;
    }
    defaultFaces
    {
        type            empty;
    }
}


// ************************************************************************* //
