/*--------------------------------*- C++ -*----------------------------------*\
| =========                 |                                                 |
| \\      /  F ield         | OpenFOAM: The Open Source CFD Toolbox           |
|  \\    /   O peration     | Version:  2012                                  |
|   \\  /    A nd           | Website:  www.openfoam.com                      |
|    \\/     M anipulation  |                                                 |
\*---------------------------------------------------------------------------*/
FoamFile
{
    version     2.0;
    format      ascii;
    class       volVectorField;
    location    "0.58";
    object      U;
}
// * * * * * * * * * * * * * * * * * * * * * * * * * * * * * * * * * * * * * //

dimensions      [0 1 -1 0 0 0 0];


internalField   nonuniform List<vector> 
2268
(
(0.00695092 -0.0042713 0)
(0.025701 -0.0045686 0)
(0.0423634 -0.00406792 0)
(0.0569832 -0.00346914 0)
(0.0686063 -0.00316248 0)
(0.0804837 -0.00356965 0)
(0.0955804 -0.00292677 0)
(0.102471 -0.00188358 0)
(0.108915 -0.00123468 0)
(0.113928 -0.000666471 0)
(0.114883 0.000560823 0)
(0.113614 0.00137274 0)
(0.110551 0.00142969 0)
(0.107772 0.00113523 0)
(0.103634 0.0011695 0)
(0.0974012 0.000476572 0)
(0.0900425 0.000597027 0)
(0.0817241 -0.000717916 0)
(0.0734095 -0.00058361 0)
(0.0638227 -0.00176077 0)
(0.0515544 -0.00183489 0)
(0.0386751 -0.00403576 0)
(0.0214895 0.0097182 0)
(0.00679037 -0.0111558 0)
(0.0255606 -0.0121648 0)
(0.0423019 -0.0107116 0)
(0.0574087 -0.00893043 0)
(0.0692587 -0.00793827 0)
(0.0812833 -0.00917562 0)
(0.0959144 -0.00745951 0)
(0.102816 -0.00441586 0)
(0.109275 -0.00417009 0)
(0.115443 -0.00216035 0)
(0.114595 -0.000400291 0)
(0.11442 0.000660738 0)
(0.111472 0.00134454 0)
(0.108032 0.00211582 0)
(0.10334 0.00374878 0)
(0.0969625 0.00592482 0)
(0.0898442 0.00683076 0)
(0.0819298 0.00854778 0)
(0.073021 0.00907052 0)
(0.0621325 0.0120523 0)
(0.0468942 0.0137509 0)
(0.0287102 0.0182087 0)
(0.00258685 0.0187232 0)
(0.00643926 -0.0195711 0)
(0.0256457 -0.0213624 0)
(0.0424103 -0.0191294 0)
(0.0581554 -0.0162207 0)
(0.0703496 -0.0144553 0)
(0.0826618 -0.0161803 0)
(0.0963024 -0.013115 0)
(0.102986 -0.00821175 0)
(0.110069 -0.00720994 0)
(0.115295 -0.00319149 0)
(0.11518 0.00104703 0)
(0.115267 0.00284498 0)
(0.11309 0.00446472 0)
(0.109297 0.00496993 0)
(0.104399 0.00641757 0)
(0.0978295 0.00684605 0)
(0.0913792 0.00772864 0)
(0.0844444 0.00722816 0)
(0.0772137 0.00880468 0)
(0.0676097 0.0105791 0)
(0.0540412 0.0139876 0)
(0.03794 0.0169144 0)
(0.00902626 0.0245082 0)
(0.00617606 -0.0262988 0)
(0.0260857 -0.0291466 0)
(0.0426428 -0.0260562 0)
(0.0590563 -0.0221153 0)
(0.0718524 -0.0194991 0)
(0.0847559 -0.0214204 0)
(0.09736 -0.0170415 0)
(0.104331 -0.0109025 0)
(0.112441 -0.00995918 0)
(0.11687 -0.0045785 0)
(0.117496 -0.000365188 0)
(0.117131 0.00162451 0)
(0.114074 0.00417689 0)
(0.108996 0.00619413 0)
(0.103179 0.00918647 0)
(0.0966668 0.0120452 0)
(0.0905855 0.0131688 0)
(0.0839429 0.0151871 0)
(0.0754903 0.0170547 0)
(0.0665269 0.0229347 0)
(0.0522404 0.0278196 0)
(0.0379586 0.0393965 0)
(0.00472801 0.0409282 0)
(0.00675695 -0.0348468 0)
(0.0264483 -0.0386245 0)
(0.0429677 -0.0347392 0)
(0.0599013 -0.0300537 0)
(0.0734503 -0.0266287 0)
(0.0870992 -0.0282662 0)
(0.0983338 -0.0223991 0)
(0.105455 -0.0153731 0)
(0.114294 -0.01316 0)
(0.11729 -0.00560185 0)
(0.11871 0.000924854 0)
(0.118522 0.00446524 0)
(0.116133 0.00833034 0)
(0.111269 0.0101218 0)
(0.106252 0.0122571 0)
(0.0988406 0.0127981 0)
(0.0929413 0.0137738 0)
(0.0871485 0.0143718 0)
(0.0806835 0.0170709 0)
(0.07257 0.0215711 0)
(0.0600827 0.0275208 0)
(0.0467308 0.0394038 0)
(0.0144471 0.0447141 0)
(0.00852579 -0.0419521 0)
(0.0267393 -0.0462208 0)
(0.043314 -0.0418283 0)
(0.0607659 -0.0364822 0)
(0.0754171 -0.0323152 0)
(0.0900598 -0.0331379 0)
(0.100408 -0.0256716 0)
(0.108752 -0.0184031 0)
(0.118699 -0.0155038 0)
(0.120806 -0.00665758 0)
(0.121974 -0.000922803 0)
(0.121558 0.00280682 0)
(0.117447 0.00761035 0)
(0.110629 0.0108228 0)
(0.104471 0.0150833 0)
(0.0969052 0.0182987 0)
(0.0911591 0.0187068 0)
(0.0862136 0.0209105 0)
(0.0790952 0.0239851 0)
(0.0729067 0.0325706 0)
(0.0590076 0.040107 0)
(0.0487731 0.0608015 0)
(0.0130659 0.0697856 0)
(0.0102337 -0.051564 0)
(0.0274796 -0.0551146 0)
(0.0439228 -0.0508705 0)
(0.0616513 -0.0452743 0)
(0.0776909 -0.0405214 0)
(0.0929666 -0.0401286 0)
(0.102393 -0.0312931 0)
(0.11153 -0.0240752 0)
(0.121093 -0.0189055 0)
(0.121482 -0.00718559 0)
(0.123907 0.000572299 0)
(0.123367 0.00662091 0)
(0.120863 0.0135257 0)
(0.114574 0.0162716 0)
(0.109562 0.0187443 0)
(0.100133 0.0190904 0)
(0.0935318 0.018856 0)
(0.0891869 0.0200848 0)
(0.0849472 0.0234009 0)
(0.080468 0.0310754 0)
(0.0699961 0.038993 0)
(0.0619233 0.0612391 0)
(0.026411 0.0741141 0)
(0.0113474 -0.0597118 0)
(0.0284597 -0.0620769 0)
(0.0451646 -0.0579155 0)
(0.0631318 -0.0523757 0)
(0.081052 -0.047055 0)
(0.0966771 -0.0447372 0)
(0.106488 -0.0343711 0)
(0.117821 -0.0271635 0)
(0.126405 -0.0201294 0)
(0.126926 -0.00796166 0)
(0.130488 -0.00179225 0)
(0.127246 0.0041918 0)
(0.123158 0.0117581 0)
(0.114064 0.0161074 0)
(0.10759 0.0219415 0)
(0.0976544 0.025846 0)
(0.091194 0.0239001 0)
(0.0881596 0.0248863 0)
(0.0841852 0.0281582 0)
(0.0820691 0.0394734 0)
(0.0705984 0.0489634 0)
(0.0667499 0.0809631 0)
(0.0295156 0.111268 0)
(-1.43815 0.356435 0)
(-1.80344 -0.0731324 0)
(-1.99395 -0.0662529 0)
(-2.02949 0.0100799 0)
(-2.03995 0.0577845 0)
(-1.68841 -0.0276534 0)
(-1.45231 -0.0495503 0)
(-1.45975 0.0909357 0)
(-1.7262 0.0442127 0)
(-1.79518 0.0136628 0)
(-1.79545 0.00554515 0)
(-1.81029 0.00272381 0)
(-1.81457 -0.00216297 0)
(-1.81622 -0.00675756 0)
(-1.80364 -0.0140762 0)
(-1.74096 -0.0221607 0)
(-1.62787 -0.0415289 0)
(-1.31335 -0.128339 0)
(-0.680256 -0.234854 0)
(-1.22659 1.00452 0)
(-1.45939 0.298302 0)
(-2.63055 0.159178 0)
(-2.58094 0.012818 0)
(-1.7402 -0.211015 0)
(-0.801308 -0.209982 0)
(-0.75171 -0.0403008 0)
(-1.08265 0.025825 0)
(-1.42983 0.0962992 0)
(-1.56523 0.0132874 0)
(-1.57049 0.000728158 0)
(-1.59582 0.005138 0)
(-1.59359 0.00460891 0)
(-1.57468 0.00208108 0)
(-1.52856 -0.0181784 0)
(-1.44952 -0.0538243 0)
(-1.39883 -0.140931 0)
(-1.05371 -0.273201 0)
(-0.604454 -0.617049 0)
(-1.2152 1.43214 0)
(0.443294 0.629548 0)
(-2.19706 0.328186 0)
(-0.750139 -0.369687 0)
(-0.0654151 -0.665196 0)
(0.208563 -0.483978 0)
(0.821329 0.0411534 0)
(0.788695 0.395382 0)
(0.65586 0.266634 0)
(0.552319 0.0839215 0)
(-1.41719 0.0229796 0)
(-1.77517 0.0120807 0)
(-1.75105 -0.0113724 0)
(-1.64843 -0.0346898 0)
(-1.64393 -0.0673839 0)
(-1.76346 -0.078843 0)
(-1.71516 -0.206597 0)
(-0.970913 -0.468073 0)
(-0.332533 -0.938943 0)
(-1.43122 1.25433 0)
(1.3414 1.15672 0)
(-1.62946 0.270652 0)
(0.689685 -0.67562 0)
(0.360669 -0.669592 0)
(0.410516 -0.573854 0)
(0.651467 -0.273071 0)
(1.31379 0.068659 0)
(2.09943 0.187881 0)
(2.46988 0.883383 0)
(1.37338 1.01821 0)
(-0.647961 0.150566 0)
(-1.55597 -0.055071 0)
(-2.33286 -0.0338808 0)
(-2.69364 0.0300628 0)
(-2.53077 -0.0311475 0)
(-1.62832 -0.49235 0)
(-0.810638 -0.857657 0)
(-0.139635 -1.17603 0)
(-1.56686 1.28681 0)
(1.54493 1.17391 0)
(-0.871691 -0.0693303 0)
(1.1281 -0.741639 0)
(0.535809 -0.690322 0)
(0.539162 -0.608507 0)
(0.642404 -0.358958 0)
(0.99292 -0.208054 0)
(1.41757 -0.190037 0)
(1.74995 0.28387 0)
(2.82888 1.32984 0)
(1.50233 1.2397 0)
(-1.0276 0.685842 0)
(-1.60407 0.428327 0)
(-1.99396 -0.00751659 0)
(-1.70371 -0.525641 0)
(-1.26104 -0.882551 0)
(-0.652335 -1.12306 0)
(-0.0302729 -1.34489 0)
(-1.60319 1.17348 0)
(1.63826 1.12255 0)
(-0.101008 -0.0458047 0)
(1.33981 -0.876724 0)
(0.666499 -0.561908 0)
(0.610062 -0.617856 0)
(0.698679 -0.461181 0)
(0.92619 -0.263546 0)
(1.15833 -0.14399 0)
(1.28281 0.246971 0)
(1.97343 1.28568 0)
(1.46987 1.76297 0)
(-0.205847 1.18694 0)
(-0.307906 0.393942 0)
(-0.328233 0.0429506 0)
(-0.403248 -0.364131 0)
(-0.894852 -0.936774 0)
(-0.536319 -1.38025 0)
(0.0362322 -1.4728 0)
(-1.51917 1.21226 0)
(1.78879 0.875239 0)
(1.17041 -0.497167 0)
(1.08359 -0.679312 0)
(0.714616 -0.521492 0)
(0.651065 -0.621673 0)
(0.710821 -0.500722 0)
(0.903945 -0.400751 0)
(1.17933 -0.337713 0)
(1.33594 -0.0387198 0)
(1.62934 1.22781 0)
(1.12653 2.15999 0)
(0.206869 1.44787 0)
(0.189315 0.48909 0)
(0.040445 0.0285785 0)
(0.272429 -0.293516 0)
(-0.223379 -0.830285 0)
(-0.370218 -1.50703 0)
(0.0641032 -1.56605 0)
(-1.24537 0.834952 0)
(3.34211 0.313029 0)
(1.75237 -0.166119 0)
(0.837049 -0.195316 0)
(0.719975 -0.476801 0)
(0.654191 -0.615476 0)
(0.711258 -0.567156 0)
(0.886591 -0.46626 0)
(1.10942 -0.333853 0)
(1.24038 0.0416097 0)
(1.29434 1.36957 0)
(0.627998 2.3561 0)
(0.256664 1.54777 0)
(0.241516 0.461413 0)
(0.246307 -0.0240184 0)
(0.232237 -0.266411 0)
(0.381859 -0.670628 0)
(-0.184959 -1.49284 0)
(0.0750591 -1.61363 0)
(0.0126953 -0.0765572 0)
(0.0299591 -0.0763475 0)
(0.0478572 -0.0726943 0)
(0.0669338 -0.0679591 0)
(0.0868417 -0.0618007 0)
(0.102399 -0.0565074 0)
(0.112931 -0.0453771 0)
(0.125574 -0.0372272 0)
(0.131223 -0.0251029 0)
(0.131689 -0.00985159 0)
(0.136475 0.00168354 0)
(0.132041 0.013461 0)
(0.131202 0.0243459 0)
(0.123181 0.0279213 0)
(0.118766 0.0290406 0)
(0.105188 0.0273819 0)
(0.0965031 0.0230637 0)
(0.093211 0.0225796 0)
(0.100714 0.0253229 0)
(0.102934 0.0364658 0)
(0.123462 0.0449828 0)
(0.130941 0.0812832 0)
(0.164503 0.125143 0)
(0.0120052 -0.0964686 0)
(0.0199262 -0.092234 0)
(0.0367423 -0.0897237 0)
(0.0530575 -0.0859093 0)
(0.0723598 -0.0773784 0)
(0.0866154 -0.0666815 0)
(0.103149 -0.0537059 0)
(0.121615 -0.0419275 0)
(0.1313 -0.0245323 0)
(0.141319 -0.0126724 0)
(0.150825 -0.003511 0)
(0.145653 0.00596538 0)
(0.146691 0.0160645 0)
(0.135575 0.0242502 0)
(0.12147 0.0375468 0)
(0.0965564 0.0476666 0)
(0.0848421 0.0363103 0)
(0.0860851 0.0213138 0)
(0.0895956 0.0195402 0)
(0.0940235 0.0172018 0)
(0.116458 0.0227049 0)
(0.133498 0.0375626 0)
(0.182052 0.067857 0)
(-0.000115076 -0.108437 0)
(0.000174026 -0.10095 0)
(-0.00420067 -0.105667 0)
(-0.00416888 -0.10331 0)
(-0.0149528 -0.095072 0)
(-0.0228334 -0.0868179 0)
(-0.0523464 -0.0799356 0)
(-0.0800521 -0.0647757 0)
(-0.162011 -0.0442522 0)
(-0.198838 -0.0285975 0)
(-0.352477 -0.00252284 0)
(-0.140735 0.0175756 0)
(-0.000822303 0.0344881 0)
(0.0484603 0.0532187 0)
(0.0710417 0.0681309 0)
(0.0739129 0.0640651 0)
(0.101325 0.033619 0)
(0.121583 0.0177806 0)
(0.112606 0.0175148 0)
(0.116784 0.00947069 0)
(0.129812 0.00568223 0)
(0.149974 0.0155685 0)
(0.1872 0.0416264 0)
(-0.000860073 -0.0970774 0)
(-0.00580202 -0.0890132 0)
(-0.00241068 -0.0860719 0)
(-0.0141998 -0.0764818 0)
(-0.0102886 -0.05948 0)
(-0.0210998 -0.0311074 0)
(-0.0152803 0.00275322 0)
(-0.0325533 0.0657112 0)
(-0.0214886 0.0947059 0)
(-0.0474507 0.172257 0)
(-0.0399968 -0.0557591 0)
(-0.0659398 -0.34798 0)
(-0.102312 -0.173733 0)
(-0.254918 -0.047807 0)
(-0.089998 0.0123575 0)
(-0.0729759 0.0173669 0)
(-0.0681407 -0.0114867 0)
(-0.0127161 0.00996588 0)
(0.0422391 0.0244123 0)
(0.0914145 -0.000376594 0)
(0.156387 -0.0103924 0)
(0.180305 -0.0212133 0)
(0.203988 -0.0197304 0)
(-0.00625655 -0.101423 0)
(-0.0104676 -0.0989374 0)
(-0.0189616 -0.0965274 0)
(-0.0252189 -0.0947252 0)
(-0.0336666 -0.0869643 0)
(-0.033096 -0.0808556 0)
(-0.0339717 -0.0666255 0)
(-0.0131744 -0.057644 0)
(0.0207641 -0.0272822 0)
(0.0717755 -0.00979456 0)
(0.172126 0.017408 0)
(0.0672765 0.0744684 0)
(-0.0761046 0.224072 0)
(-0.104384 0.0415209 0)
(-0.119971 -0.114392 0)
(-0.0956313 0.0418404 0)
(-0.299036 -0.0276517 0)
(-0.285485 -0.0933506 0)
(-0.122367 -0.0871634 0)
(-0.090056 -0.105157 0)
(0.000862437 -0.0835838 0)
(0.0508246 -0.0320617 0)
(0.124809 -0.0138296 0)
(-0.000443035 -0.0809535 0)
(-0.00923133 -0.0771649 0)
(-0.00902373 -0.0719481 0)
(-0.0196586 -0.0630043 0)
(-0.0200525 -0.0523181 0)
(-0.0313594 -0.0325522 0)
(-0.0313696 -0.0180192 0)
(-0.0428883 0.00864247 0)
(-0.0411644 0.00902997 0)
(-0.0424194 0.0179338 0)
(-0.0337706 -0.0496126 0)
(-0.0265186 -0.0971834 0)
(0.0286148 -0.000401233 0)
(0.145137 -0.00612786 0)
(0.0763154 0.00447966 0)
(0.0790341 0.192416 0)
(0.0838581 0.18336 0)
(0.0472131 -0.166079 0)
(0.0131387 -0.173184 0)
(-0.0765923 -0.123642 0)
(-0.199117 -0.152137 0)
(-0.273838 -0.145798 0)
(-0.222164 -0.166844 0)
(-0.00239469 -0.09132 0)
(-0.00494225 -0.0899367 0)
(-0.00894941 -0.0854981 0)
(-0.00960124 -0.0832228 0)
(-0.0112873 -0.0744107 0)
(-0.00767615 -0.0690738 0)
(-0.00110596 -0.0539759 0)
(0.0097679 -0.0476668 0)
(0.030206 -0.0265669 0)
(0.0413344 -0.0181238 0)
(0.065027 0.00213801 0)
(0.0203557 0.00983371 0)
(0.00943098 0.0517929 0)
(0.035692 -0.00509879 0)
(0.0187617 -0.0469355 0)
(0.0500951 0.0338865 0)
(0.184116 0.00513953 0)
(0.212915 -0.0258156 0)
(0.11188 0.0367094 0)
(0.126208 0.106473 0)
(0.0677524 0.11501 0)
(0.0363352 -0.00990459 0)
(-0.0582237 -0.1264 0)
(0.000703304 -0.0742333 0)
(-0.0043097 -0.0713804 0)
(-0.00258664 -0.0678503 0)
(-0.00687587 -0.0616577 0)
(-0.00503158 -0.0547843 0)
(-0.00879371 -0.043972 0)
(-0.00546001 -0.0359771 0)
(-0.00636431 -0.0240663 0)
(-0.0025651 -0.0228118 0)
(0.00317069 -0.0179821 0)
(0.00676908 -0.0281418 0)
(0.0165446 -0.0414417 0)
(0.0245714 -0.0162981 0)
(0.0616928 -0.0167441 0)
(0.0212227 -0.0101391 0)
(0.0266239 0.0254317 0)
(0.0447418 0.0187247 0)
(0.0290972 -0.0902334 0)
(0.0114163 -0.0860421 0)
(0.0450853 -0.0792052 0)
(0.0848847 -0.0604203 0)
(0.14762 -0.0208017 0)
(0.110524 0.0331293 0)
(-0.000566294 -0.0873932 0)
(0.00198515 -0.0863656 0)
(0.00211692 -0.0825338 0)
(0.00533728 -0.0805396 0)
(0.00745489 -0.0719881 0)
(0.0123233 -0.0685225 0)
(0.0187253 -0.0558213 0)
(0.0261286 -0.0507299 0)
(0.0366383 -0.0355444 0)
(0.0417012 -0.0281841 0)
(0.0518623 -0.0108211 0)
(0.0413774 -0.00902759 0)
(0.0390025 0.00701425 0)
(0.0406764 -0.00212175 0)
(0.0373103 -0.0110093 0)
(0.0380446 0.00891654 0)
(0.066319 0.00320154 0)
(0.0552778 0.0054418 0)
(0.00187085 0.0208027 0)
(-0.0136239 0.0311791 0)
(-0.0595443 0.0116411 0)
(-0.0672837 -0.0358406 0)
(-0.0910409 -0.0547677 0)
(0.00145945 -0.0762107 0)
(0.00130562 -0.0747304 0)
(0.0046219 -0.071683 0)
(0.00452642 -0.0677756 0)
(0.00807121 -0.0621758 0)
(0.00898161 -0.0561121 0)
(0.0125928 -0.0500939 0)
(0.0163597 -0.0428408 0)
(0.0192555 -0.0385103 0)
(0.0270371 -0.0338489 0)
(0.03022 -0.027695 0)
(0.0417318 -0.0288103 0)
(0.0406318 -0.0157129 0)
(0.0556794 -0.0154635 0)
(0.0407768 -0.00751499 0)
(0.0424062 -0.00382249 0)
(0.0347825 0.00143785 0)
(0.0271329 -0.0249319 0)
(0.00929076 -0.0166219 0)
(0.00639622 -0.017959 0)
(-0.01222 -0.00557478 0)
(-0.0367678 0.00923416 0)
(-0.0974682 0.0207343 0)
(0.00167003 -0.0899915 0)
(0.00610563 -0.089408 0)
(0.00987504 -0.0855486 0)
(0.0147905 -0.0839401 0)
(0.0197663 -0.0762064 0)
(0.0257057 -0.0731309 0)
(0.0321144 -0.0629568 0)
(0.0391504 -0.0577205 0)
(0.0462202 -0.0460141 0)
(0.0518292 -0.039813 0)
(0.0585339 -0.0253729 0)
(0.0614244 -0.0203251 0)
(0.0640239 -0.00672756 0)
(0.0671546 -0.00315394 0)
(0.0661438 0.00271174 0)
(0.0642444 0.0136909 0)
(0.0612346 0.0189003 0)
(0.0499357 0.0296667 0)
(0.016757 0.0419368 0)
(-0.00552138 0.0518589 0)
(-0.0548069 0.0549885 0)
(-0.088773 0.0499686 0)
(-0.146509 0.0477295 0)
(0.00264609 -0.0844488 0)
(0.00549156 -0.0834698 0)
(0.0108392 -0.0807516 0)
(0.0140459 -0.0782538 0)
(0.0193453 -0.0733867 0)
(0.0237014 -0.0690604 0)
(0.0284075 -0.0637242 0)
(0.0347449 -0.0574875 0)
(0.0384004 -0.0512261 0)
(0.0466421 -0.0465522 0)
(0.0492538 -0.037198 0)
(0.0599951 -0.034512 0)
(0.0597583 -0.0213363 0)
(0.071298 -0.0177439 0)
(0.0648404 -0.00442008 0)
(0.0696289 0.00101492 0)
(0.0598262 0.0160712 0)
(0.0561242 0.0196612 0)
(0.0379217 0.0395031 0)
(0.0279564 0.0532488 0)
(-0.00432689 0.0787224 0)
(-0.0384496 0.0997196 0)
(-0.108978 0.129521 0)
(0.00318905 -0.0981214 0)
(0.0097052 -0.0976403 0)
(0.0164737 -0.0940739 0)
(0.0232351 -0.0925656 0)
(0.0304632 -0.0858339 0)
(0.0377565 -0.0824406 0)
(0.044905 -0.0739908 0)
(0.0526748 -0.0681571 0)
(0.0593654 -0.0579306 0)
(0.0664813 -0.0513536 0)
(0.0715931 -0.0387715 0)
(0.0772771 -0.0317287 0)
(0.0791718 -0.0180315 0)
(0.0837399 -0.00927387 0)
(0.0818742 0.00453629 0)
(0.0825732 0.0175378 0)
(0.0747506 0.0326929 0)
(0.0689402 0.050405 0)
(0.0478113 0.0705224 0)
(0.034157 0.0933141 0)
(-0.00165239 0.122012 0)
(-0.0289298 0.154961 0)
(-0.0888028 0.201845 0)
(0.00368439 -0.0976983 0)
(0.00920158 -0.0971584 0)
(0.01664 -0.0945716 0)
(0.0224226 -0.0926632 0)
(0.0295792 -0.088114 0)
(0.0364496 -0.0839032 0)
(0.0427011 -0.0787399 0)
(0.0512511 -0.0722849 0)
(0.0563222 -0.0650019 0)
(0.0664919 -0.059004 0)
(0.0697052 -0.0478404 0)
(0.0810874 -0.0421995 0)
(0.0813377 -0.0275535 0)
(0.0922893 -0.0205 0)
(0.0886334 -0.00289882 0)
(0.0963952 0.00808287 0)
(0.0886022 0.0302259 0)
(0.0905448 0.0464756 0)
(0.0760793 0.0750794 0)
(0.0709135 0.102202 0)
(0.0445967 0.142884 0)
(0.0294043 0.185771 0)
(-0.0142719 0.249454 0)
(0.00439758 -0.111146 0)
(0.0128823 -0.110781 0)
(0.0218379 -0.10742 0)
(0.0301707 -0.105764 0)
(0.0390382 -0.1 0)
(0.0477403 -0.0959366 0)
(0.0561204 -0.088953 0)
(0.0652041 -0.082324 0)
(0.0727576 -0.0733469 0)
(0.0822675 -0.0654866 0)
(0.0879192 -0.0535435 0)
(0.0977281 -0.044302 0)
(0.100606 -0.0293651 0)
(0.110002 -0.0176668 0)
(0.109232 0.000411506 0)
(0.11635 0.0163618 0)
(0.111425 0.0386944 0)
(0.11501 0.061671 0)
(0.103629 0.0905495 0)
(0.103032 0.123667 0)
(0.0837533 0.16434 0)
(0.0804558 0.213082 0)
(0.0516111 0.274156 0)
(0.00482763 -0.115236 0)
(0.0127851 -0.114888 0)
(0.0224562 -0.112063 0)
(0.030616 -0.11015 0)
(0.0398116 -0.105812 0)
(0.0488959 -0.101238 0)
(0.0572635 -0.0962379 0)
(0.0676547 -0.0891117 0)
(0.0748192 -0.0819908 0)
(0.08673 -0.0742783 0)
(0.0920057 -0.063105 0)
(0.105371 -0.0549371 0)
(0.108097 -0.0395059 0)
(0.122334 -0.0291587 0)
(0.121983 -0.00878211 0)
(0.135663 0.00579237 0)
(0.132045 0.0322074 0)
(0.143459 0.0540066 0)
(0.136328 0.0879631 0)
(0.144442 0.121405 0)
(0.132817 0.166678 0)
(0.139342 0.21648 0)
(0.123588 0.277998 0)
(0.0055488 -0.129027 0)
(0.0156139 -0.128719 0)
(0.0267766 -0.125509 0)
(0.0367774 -0.123494 0)
(0.0475561 -0.118557 0)
(0.0579078 -0.113862 0)
(0.0682503 -0.108015 0)
(0.0790206 -0.100498 0)
(0.0886412 -0.0927391 0)
(0.100239 -0.0834679 0)
(0.108336 -0.0724903 0)
(0.121442 -0.0613723 0)
(0.127135 -0.0465867 0)
(0.141572 -0.032705 0)
(0.144054 -0.0130709 0)
(0.159379 0.00500529 0)
(0.15866 0.0309133 0)
(0.174024 0.0559702 0)
(0.170324 0.0898475 0)
(0.185494 0.125674 0)
(0.179209 0.170193 0)
(0.19619 0.220743 0)
(0.188369 0.279483 0)
(0.0058378 -0.136568 0)
(0.0160722 -0.136307 0)
(0.0277801 -0.133352 0)
(0.0381939 -0.131107 0)
(0.0494565 -0.127007 0)
(0.0606118 -0.122073 0)
(0.0714637 -0.117337 0)
(0.0835278 -0.109588 0)
(0.093671 -0.1031 0)
(0.107138 -0.0940048 0)
(0.115992 -0.0840897 0)
(0.131462 -0.0737455 0)
(0.138547 -0.0592855 0)
(0.156364 -0.0461137 0)
(0.160867 -0.0260849 0)
(0.181003 -0.00895943 0)
(0.182846 0.0182535 0)
(0.204424 0.0419847 0)
(0.204381 0.0774096 0)
(0.227146 0.111773 0)
(0.226418 0.157149 0)
(0.252207 0.205888 0)
(0.252129 0.262419 0)
(0.00633401 -0.151321 0)
(0.0175637 -0.151082 0)
(0.0302413 -0.14801 0)
(0.0418174 -0.145644 0)
(0.0543337 -0.141375 0)
(0.0665462 -0.136424 0)
(0.0792272 -0.131361 0)
(0.0919621 -0.123376 0)
(0.104788 -0.116802 0)
(0.11859 -0.106602 0)
(0.130705 -0.0972676 0)
(0.146334 -0.0849029 0)
(0.157052 -0.0719032 0)
(0.175128 -0.0561743 0)
(0.183644 -0.0380269 0)
(0.205076 -0.0182952 0)
(0.211167 0.00733419 0)
(0.235727 0.0329415 0)
(0.240385 0.0672004 0)
(0.267691 0.101979 0)
(0.273183 0.145557 0)
(0.30434 0.193216 0)
(0.31294 0.247138 0)
(0.0065301 -0.160544 0)
(0.0173521 -0.160308 0)
(0.030108 -0.157653 0)
(0.0418817 -0.15528 0)
(0.0545933 -0.151738 0)
(0.0674079 -0.147016 0)
(0.0805984 -0.142697 0)
(0.094471 -0.135153 0)
(0.108327 -0.129605 0)
(0.123742 -0.119883 0)
(0.137691 -0.111632 0)
(0.155363 -0.100038 0)
(0.169087 -0.0877807 0)
(0.189443 -0.0726975 0)
(0.202258 -0.0555987 0)
(0.226491 -0.0366128 0)
(0.237472 -0.0117952 0)
(0.265981 0.0124243 0)
(0.276069 0.0462104 0)
(0.307465 0.0783338 0)
(0.319654 0.121377 0)
(0.354026 0.16509 0)
(0.371327 0.217507 0)
(0.00672417 -0.175692 0)
(0.0173241 -0.175175 0)
(0.0301784 -0.173027 0)
(0.042187 -0.170693 0)
(0.0552421 -0.167414 0)
(0.0683827 -0.163063 0)
(0.0825457 -0.158973 0)
(0.096958 -0.151831 0)
(0.112788 -0.146659 0)
(0.128769 -0.136803 0)
(0.145833 -0.129499 0)
(0.164151 -0.117255 0)
(0.181876 -0.106585 0)
(0.203153 -0.0904316 0)
(0.221155 -0.0756226 0)
(0.246445 -0.0547435 0)
(0.26349 -0.0325783 0)
(0.293874 -0.00706138 0)
(0.310071 0.0254716 0)
(0.344507 0.0568504 0)
(0.362801 0.0989285 0)
(0.399624 0.13992 0)
(0.422853 0.190828 0)
(0.00620484 -0.184557 0)
(0.0156264 -0.183737 0)
(0.0274888 -0.182459 0)
(0.0386114 -0.180314 0)
(0.05087 -0.177848 0)
(0.0637117 -0.17427 0)
(0.0775587 -0.171154 0)
(0.0924358 -0.165319 0)
(0.108774 -0.161264 0)
(0.126117 -0.152825 0)
(0.14496 -0.146829 0)
(0.165302 -0.13597 0)
(0.186328 -0.126563 0)
(0.210098 -0.1119 0)
(0.233305 -0.098621 0)
(0.261257 -0.0789751 0)
(0.285411 -0.0588647 0)
(0.318998 -0.0343894 0)
(0.34281 -0.00393962 0)
(0.382442 0.0251251 0)
(0.407576 0.0667907 0)
(0.448682 0.104325 0)
(0.477937 0.153955 0)
(0.00564953 -0.198103 0)
(0.0146284 -0.197061 0)
(0.0256444 -0.196595 0)
(0.0359975 -0.19472 0)
(0.0475126 -0.193124 0)
(0.0595153 -0.190462 0)
(0.0727289 -0.188354 0)
(0.0867724 -0.18384 0)
(0.102827 -0.181052 0)
(0.119622 -0.173871 0)
(0.139232 -0.169446 0)
(0.159739 -0.15959 0)
(0.183235 -0.15217 0)
(0.208194 -0.138459 0)
(0.236141 -0.127564 0)
(0.26616 -0.107987 0)
(0.297417 -0.0910409 0)
(0.33418 -0.0657061 0)
(0.366081 -0.0385546 0)
(0.410418 -0.00930793 0)
(0.441921 0.032284 0)
(0.488865 0.0681185 0)
(0.523566 0.117729 0)
(0.00429494 -0.204655 0)
(0.011897 -0.203566 0)
(0.0206618 -0.203635 0)
(0.0292571 -0.202015 0)
(0.0388983 -0.201154 0)
(0.0494211 -0.199308 0)
(0.0610371 -0.19818 0)
(0.0742147 -0.195227 0)
(0.0891473 -0.193874 0)
(0.106002 -0.189036 0)
(0.125602 -0.186718 0)
(0.147367 -0.179797 0)
(0.172513 -0.174831 0)
(0.200218 -0.164681 0)
(0.231839 -0.156453 0)
(0.265561 -0.140222 0)
(0.303486 -0.126779 0)
(0.344328 -0.10321 0)
(0.3859 -0.080039 0)
(0.435934 -0.0511337 0)
(0.476667 -0.0114534 0)
(0.53239 0.0220275 0)
(0.575021 0.0724626 0)
(0.00362067 -0.214952 0)
(0.0106976 -0.214101 0)
(0.0183048 -0.214615 0)
(0.0258754 -0.213668 0)
(0.0343118 -0.213977 0)
(0.0434231 -0.213379 0)
(0.0535727 -0.213891 0)
(0.0651024 -0.212817 0)
(0.0783489 -0.213655 0)
(0.0934614 -0.211288 0)
(0.111462 -0.211699 0)
(0.131578 -0.207542 0)
(0.15564 -0.205969 0)
(0.182536 -0.198885 0)
(0.214375 -0.193894 0)
(0.248918 -0.180765 0)
(0.289829 -0.170807 0)
(0.332988 -0.149284 0)
(0.381975 -0.131071 0)
(0.436294 -0.101336 0)
(0.486761 -0.0648679 0)
(0.551642 -0.0315795 0)
(0.602613 0.0208914 0)
(0.00229556 -0.218641 0)
(0.00738253 -0.217936 0)
(0.0123575 -0.218472 0)
(0.0178978 -0.217709 0)
(0.0239362 -0.218345 0)
(0.0310066 -0.218242 0)
(0.0388412 -0.219477 0)
(0.0485399 -0.219655 0)
(0.0596096 -0.221832 0)
(0.0733587 -0.221792 0)
(0.0896596 -0.224451 0)
(0.109362 -0.223653 0)
(0.132956 -0.225478 0)
(0.160559 -0.223182 0)
(0.193103 -0.222658 0)
(0.230108 -0.215586 0)
(0.273998 -0.210856 0)
(0.321601 -0.195456 0)
(0.377616 -0.183539 0)
(0.436856 -0.156282 0)
(0.499417 -0.127034 0)
(0.574402 -0.0945466 0)
(0.637514 -0.0409775 0)
(0.00187477 -0.225352 0)
(0.00628231 -0.224897 0)
(0.0102747 -0.225843 0)
(0.01488 -0.226008 0)
(0.0197253 -0.227829 0)
(0.0256259 -0.229113 0)
(0.0320661 -0.232234 0)
(0.0403804 -0.234519 0)
(0.0496944 -0.239385 0)
(0.0616919 -0.242401 0)
(0.0756527 -0.248733 0)
(0.0930162 -0.252016 0)
(0.113798 -0.258303 0)
(0.138813 -0.260288 0)
(0.168475 -0.264634 0)
(0.203161 -0.262938 0)
(0.244803 -0.263517 0)
(0.291671 -0.254142 0)
(0.348367 -0.247539 0)
(0.409157 -0.224324 0)
(0.479347 -0.203523 0)
(0.559723 -0.170921 0)
(0.633895 -0.117954 0)
(0.00077467 -0.226319 0)
(0.00312012 -0.225874 0)
(0.00492513 -0.226588 0)
(0.00756514 -0.2267 0)
(0.0100822 -0.228589 0)
(0.0139399 -0.230102 0)
(0.0178586 -0.233688 0)
(0.0239846 -0.23676 0)
(0.0305777 -0.242549 0)
(0.0402581 -0.247176 0)
(0.0513704 -0.255145 0)
(0.0664253 -0.261205 0)
(0.0845581 -0.270671 0)
(0.107953 -0.277321 0)
(0.136607 -0.286551 0)
(0.172049 -0.291558 0)
(0.214475 -0.299184 0)
(0.263974 -0.298958 0)
(0.323477 -0.301238 0)
(0.389266 -0.287546 0)
(0.467663 -0.278211 0)
(0.55319 -0.249801 0)
(0.640166 -0.202356 0)
(0.000424923 -0.230029 0)
(0.00215934 -0.22984 0)
(0.00314138 -0.231065 0)
(0.00509328 -0.231988 0)
(0.00663913 -0.235012 0)
(0.00971545 -0.237783 0)
(0.0124877 -0.243167 0)
(0.0176515 -0.248251 0)
(0.0227503 -0.256679 0)
(0.0311527 -0.264368 0)
(0.0402223 -0.276098 0)
(0.053449 -0.286564 0)
(0.0686433 -0.301225 0)
(0.0889591 -0.313873 0)
(0.113023 -0.330268 0)
(0.144082 -0.342421 0)
(0.181519 -0.357018 0)
(0.22728 -0.364691 0)
(0.282999 -0.37436 0)
(0.347972 -0.369881 0)
(0.428075 -0.368922 0)
(0.515067 -0.344587 0)
(0.611786 -0.305087 0)
(-0.00045413 -0.228279 0)
(-0.000367778 -0.227975 0)
(-0.00122985 -0.228883 0)
(-0.000990749 -0.22957 0)
(-0.0015751 -0.232538 0)
(-0.000507997 -0.235285 0)
(-0.000279774 -0.240891 0)
(0.00244069 -0.246285 0)
(0.00440602 -0.255229 0)
(0.00978182 -0.263808 0)
(0.015009 -0.27652 0)
(0.0246143 -0.288671 0)
(0.0353593 -0.305179 0)
(0.0517642 -0.320666 0)
(0.071415 -0.340691 0)
(0.0988767 -0.359098 0)
(0.133701 -0.381662 0)
(0.179956 -0.39984 0)
(0.237243 -0.421756 0)
(0.306933 -0.432604 0)
(0.392147 -0.44589 0)
(0.4869 -0.434044 0)
(0.599632 -0.41085 0)
(-0.000707006 -0.230073 0)
(-0.00115409 -0.229944 0)
(-0.00257611 -0.231317 0)
(-0.00285829 -0.232568 0)
(-0.00408134 -0.236415 0)
(-0.0036853 -0.240083 0)
(-0.00439821 -0.247129 0)
(-0.00266646 -0.254074 0)
(-0.00224448 -0.265193 0)
(0.00162132 -0.276299 0)
(0.00436117 -0.292332 0)
(0.011731 -0.308491 0)
(0.0187482 -0.330068 0)
(0.0318924 -0.351795 0)
(0.0463949 -0.379387 0)
(0.0690399 -0.406842 0)
(0.0958083 -0.440317 0)
(0.133845 -0.47043 0)
(0.180752 -0.503495 0)
(0.242901 -0.526725 0)
(0.321568 -0.550863 0)
(0.41533 -0.553539 0)
(0.536562 -0.549085 0)
(-0.00149517 -0.22562 0)
(-0.00349839 -0.225308 0)
(-0.00651994 -0.22635 0)
(-0.00849603 -0.227234 0)
(-0.0116181 -0.230824 0)
(-0.0133846 -0.234069 0)
(-0.0165811 -0.240937 0)
(-0.0177804 -0.247426 0)
(-0.0206866 -0.258412 0)
(-0.0207628 -0.269235 0)
(-0.0227278 -0.285362 0)
(-0.0206659 -0.301662 0)
(-0.0202838 -0.323888 0)
(-0.0140383 -0.346673 0)
(-0.00831821 -0.376227 0)
(0.00621669 -0.406692 0)
(0.023476 -0.444866 0)
(0.0541031 -0.483093 0)
(0.0946559 -0.529791 0)
(0.155428 -0.572521 0)
(0.233975 -0.618399 0)
(0.333618 -0.649127 0)
(0.465505 -0.674547 0)
(-0.00160512 -0.226072 0)
(-0.00393789 -0.225928 0)
(-0.00723577 -0.227335 0)
(-0.00965521 -0.228538 0)
(-0.0132065 -0.232609 0)
(-0.015802 -0.236288 0)
(-0.0197932 -0.243927 0)
(-0.0224991 -0.251283 0)
(-0.0269822 -0.263588 0)
(-0.0296321 -0.275777 0)
(-0.0345115 -0.294064 0)
(-0.0366166 -0.312731 0)
(-0.0411722 -0.338679 0)
(-0.041245 -0.365923 0)
(-0.0433633 -0.402062 0)
(-0.0378536 -0.441239 0)
(-0.032374 -0.491086 0)
(-0.0141057 -0.544597 0)
(0.00741943 -0.607811 0)
(0.0465441 -0.66887 0)
(0.0924146 -0.731704 0)
(0.164956 -0.78731 0)
(0.263819 -0.835304 0)
(-0.00232646 -0.219068 0)
(-0.00612997 -0.218662 0)
(-0.0109449 -0.21958 0)
(-0.0151045 -0.220187 0)
(-0.0204404 -0.22353 0)
(-0.0252485 -0.226295 0)
(-0.0315659 -0.232959 0)
(-0.0373428 -0.238883 0)
(-0.0450434 -0.249813 0)
(-0.0520693 -0.260116 0)
(-0.0617055 -0.27668 0)
(-0.0704591 -0.293094 0)
(-0.0825237 -0.317288 0)
(-0.0931049 -0.342181 0)
(-0.10744 -0.377358 0)
(-0.118187 -0.414958 0)
(-0.131805 -0.466156 0)
(-0.136827 -0.519875 0)
(-0.14316 -0.588278 0)
(-0.132654 -0.655022 0)
(-0.122637 -0.735815 0)
(-0.0902319 -0.819358 0)
(-0.0486012 -0.911356 0)
(-0.0022062 -0.218774 0)
(-0.00589184 -0.218485 0)
(-0.0105289 -0.219556 0)
(-0.0147403 -0.220296 0)
(-0.0201801 -0.223763 0)
(-0.0255344 -0.226544 0)
(-0.0325981 -0.233287 0)
(-0.0399701 -0.239357 0)
(-0.0496323 -0.25054 0)
(-0.0599535 -0.260887 0)
(-0.0731302 -0.277639 0)
(-0.0876064 -0.293965 0)
(-0.10628 -0.318357 0)
(-0.127164 -0.343408 0)
(-0.153143 -0.379717 0)
(-0.181537 -0.419713 0)
(-0.215611 -0.475622 0)
(-0.252618 -0.536585 0)
(-0.298174 -0.615305 0)
(-0.353961 -0.692749 0)
(-0.419558 -0.776949 0)
(-0.463064 -0.863962 0)
(-0.428559 -0.997732 0)
(-0.00283975 -0.209729 0)
(-0.00786094 -0.209085 0)
(-0.0138824 -0.209426 0)
(-0.0196406 -0.209183 0)
(-0.0266885 -0.211284 0)
(-0.0338526 -0.21234 0)
(-0.0427566 -0.216853 0)
(-0.0523103 -0.220044 0)
(-0.0644373 -0.227861 0)
(-0.0780607 -0.234452 0)
(-0.0952578 -0.246708 0)
(-0.115144 -0.257312 0)
(-0.140796 -0.274996 0)
(-0.171183 -0.292114 0)
(-0.210491 -0.319819 0)
(-0.257424 -0.348668 0)
(-0.318318 -0.391494 0)
(-0.391594 -0.432875 0)
(-0.488209 -0.483191 0)
(-0.600805 -0.528796 0)
(-0.704476 -0.623556 0)
(-0.741535 -0.807445 0)
(-0.660389 -1.07714 0)
(-0.0023111 -0.209416 0)
(-0.00643206 -0.208803 0)
(-0.0114914 -0.209181 0)
(-0.0164252 -0.208961 0)
(-0.0227226 -0.21111 0)
(-0.0293261 -0.212135 0)
(-0.0379239 -0.216636 0)
(-0.0474999 -0.219591 0)
(-0.0601837 -0.226944 0)
(-0.0752169 -0.232308 0)
(-0.0954905 -0.243115 0)
(-0.120748 -0.251005 0)
(-0.153608 -0.265319 0)
(-0.195817 -0.276604 0)
(-0.248609 -0.296827 0)
(-0.317913 -0.314943 0)
(-0.40691 -0.345028 0)
(-0.524015 -0.369729 0)
(-0.674606 -0.409458 0)
(-0.837748 -0.480097 0)
(-0.952311 -0.639484 0)
(-0.93252 -0.91079 0)
(-0.818004 -1.22352 0)
(-0.00291535 -0.19953 0)
(-0.0082802 -0.198427 0)
(-0.014597 -0.197884 0)
(-0.0208868 -0.196326 0)
(-0.0285654 -0.19662 0)
(-0.0367866 -0.195237 0)
(-0.0469788 -0.196572 0)
(-0.0586424 -0.195462 0)
(-0.0732396 -0.197546 0)
(-0.0909581 -0.196215 0)
(-0.113175 -0.197961 0)
(-0.141728 -0.195506 0)
(-0.176951 -0.195957 0)
(-0.224475 -0.192537 0)
(-0.284108 -0.19305 0)
(-0.364234 -0.184956 0)
(-0.469481 -0.179806 0)
(-0.612054 -0.158998 0)
(-0.797201 -0.163027 0)
(-0.965079 -0.243637 0)
(-1.06387 -0.523586 0)
(-1.03023 -0.939326 0)
(-0.946441 -1.31872 0)
(-0.0020289 -0.199723 0)
(-0.0056103 -0.198649 0)
(-0.0100182 -0.198167 0)