/*--------------------------------*- C++ -*----------------------------------*\
| =========                 |                                                 |
| \\      /  F ield         | OpenFOAM: The Open Source CFD Toolbox           |
|  \\    /   O peration     | Version:  2012                                  |
|   \\  /    A nd           | Website:  www.openfoam.com                      |
|    \\/     M anipulation  |                                                 |
\*---------------------------------------------------------------------------*/
FoamFile
{
    version     2.0;
    format      ascii;
    class       surfaceScalarField;
    location    "0.64";
    object      phi;
}
// * * * * * * * * * * * * * * * * * * * * * * * * * * * * * * * * * * * * * //

dimensions      [0 3 -1 0 0 0 0];
oriented        oriented;


internalField   nonuniform List<scalar> 
4432
(
5.76294e-07
-5.76295e-07
1.28428e-06
-7.07984e-07
1.82426e-06
-5.3998e-07
2.10378e-06
-2.79524e-07
2.21065e-06
-1.0687e-07
2.43137e-06
-2.20722e-07
2.52473e-06
-9.33587e-08
2.23444e-06
2.90296e-07
1.85936e-06
3.75072e-07
1.36882e-06
4.90543e-07
7.30499e-07
6.38319e-07
3.17386e-08
6.9876e-07
-5.62385e-07
5.94122e-07
-9.88897e-07
4.26511e-07
-1.32848e-06
3.39585e-07
-1.61848e-06
2.89994e-07
-1.82774e-06
2.09263e-07
-1.83646e-06
8.71283e-09
-1.69417e-06
-1.42287e-07
-1.30704e-06
-3.87137e-07
-7.97924e-07
-5.09118e-07
1.19636e-07
-9.17563e-07
1.19619e-07
5.6248e-07
-1.13877e-06
1.27188e-06
-1.41738e-06
1.83175e-06
-1.09985e-06
2.14488e-06
-5.9266e-07
2.27128e-06
-2.33263e-07
2.48041e-06
-4.29859e-07
2.55345e-06
-1.66397e-07
2.25877e-06
5.84978e-07
1.92118e-06
7.12665e-07
1.42472e-06
9.86994e-07
7.41048e-07
1.32199e-06
6.01826e-08
1.37963e-06
-5.44137e-07
1.19844e-06
-1.01859e-06
9.00968e-07
-1.38335e-06
7.04338e-07
-1.67147e-06
5.78117e-07
-1.85346e-06
3.91243e-07
-1.86099e-06
1.62453e-08
-1.79046e-06
-2.12816e-07
-1.5793e-06
-5.98308e-07
-1.41655e-06
-6.71868e-07
-1.07684e-06
-1.25728e-06
-9.57242e-07
5.56802e-07
-1.69558e-06
1.29193e-06
-2.15251e-06
1.88099e-06
-1.68891e-06
2.24539e-06
-9.57061e-07
2.40532e-06
-3.93192e-07
2.58235e-06
-6.06893e-07
2.58539e-06
-1.69439e-07
2.26357e-06
9.06799e-07
1.89106e-06
1.08517e-06
1.35889e-06
1.51917e-06
6.91218e-07
1.98966e-06
5.3949e-08
2.01689e-06
-5.24256e-07
1.77664e-06
-1.01783e-06
1.39454e-06
-1.4141e-06
1.10061e-06
-1.70745e-06
8.71467e-07
-1.84919e-06
5.32976e-07
-1.78562e-06
-4.73271e-08
-1.64227e-06
-3.56166e-07
-1.3723e-06
-8.68279e-07
-1.09621e-06
-9.47962e-07
-7.01657e-07
-1.65184e-06
-1.65892e-06
5.72927e-07
-2.2685e-06
1.31917e-06
-2.89876e-06
1.91349e-06
-2.28322e-06
2.32966e-06
-1.37323e-06
2.54794e-06
-6.11474e-07
2.71615e-06
-7.75102e-07
2.68211e-06
-1.35406e-07
2.40673e-06
1.18218e-06
2.0562e-06
1.4357e-06
1.50932e-06
2.06605e-06
8.09931e-07
2.68905e-06
8.69978e-08
2.73983e-06
-6.01516e-07
2.46516e-06
-1.19055e-06
1.98357e-06
-1.60165e-06
1.51171e-06
-1.86273e-06
1.13254e-06
-1.96421e-06
6.34461e-07
-1.92237e-06
-8.91775e-08
-1.79524e-06
-4.83297e-07
-1.5217e-06
-1.14182e-06
-1.20052e-06
-1.26914e-06
-8.62868e-07
-1.98949e-06
-2.52181e-06
6.39285e-07
-2.90779e-06
1.37184e-06
-3.63131e-06
1.98969e-06
-2.90108e-06
2.46989e-06
-1.85343e-06
2.7686e-06
-9.10181e-07
2.90496e-06
-9.11462e-07
2.77344e-06
-3.88072e-09
2.46557e-06
1.49005e-06
2.03473e-06
1.86654e-06
1.40182e-06
2.69895e-06
7.13051e-07
3.37782e-06
2.70029e-08
3.42587e-06
-6.24516e-07
3.11667e-06
-1.17979e-06
2.53885e-06
-1.60822e-06
1.94014e-06
-1.92707e-06
1.45139e-06
-2.04141e-06
7.48804e-07
-1.96881e-06
-1.61781e-07
-1.83307e-06
-6.19035e-07
-1.61167e-06
-1.36323e-06
-1.32501e-06
-1.5558e-06
-7.11217e-07
-2.6033e-06
-3.23304e-06
7.5784e-07
-3.66563e-06
1.40655e-06
-4.28002e-06
2.02154e-06
-3.51607e-06
2.5571e-06
-2.38899e-06
2.95541e-06
-1.3085e-06
3.10845e-06
-1.0645e-06
2.98092e-06
1.23648e-07
2.77625e-06
1.69472e-06
2.38683e-06
2.25596e-06
1.69065e-06
3.39513e-06
8.92118e-07
4.17635e-06
4.82232e-08
4.26977e-06
-8.00352e-07
3.96525e-06
-1.47645e-06
3.21495e-06
-1.89341e-06
2.35709e-06
-2.18032e-06
1.7383e-06
-2.2434e-06
8.11886e-07
-2.15297e-06
-2.52213e-07
-1.95543e-06
-8.16582e-07
-1.71605e-06
-1.60261e-06
-1.37225e-06
-1.8996e-06
-6.4543e-07
-3.33012e-06
-3.87848e-06
8.87132e-07
-4.55276e-06
1.51624e-06
-4.90913e-06
2.14382e-06
-4.14365e-06
2.76984e-06
-3.015e-06
3.27957e-06
-1.81823e-06
3.39784e-06
-1.18276e-06
3.19584e-06
3.25644e-07
2.90999e-06
1.98057e-06
2.33445e-06
2.8315e-06
1.51453e-06
4.21505e-06
7.31254e-07
4.95963e-06
-4.52991e-08
5.04632e-06
-8.12431e-07
4.73238e-06
-1.43043e-06
3.83295e-06
-1.88436e-06
2.81101e-06
-2.30893e-06
2.16287e-06
-2.45532e-06
9.58272e-07
-2.34472e-06
-3.62811e-07
-2.12881e-06
-1.0325e-06
-2.02643e-06
-1.70499e-06
-1.85046e-06
-2.07557e-06
-7.38204e-07
-4.44238e-06
-4.61669e-06
1.01012e-06
-5.56315e-06
1.66542e-06
-5.56468e-06
2.31746e-06
-4.79584e-06
3.01721e-06
-3.71482e-06
3.61304e-06
-2.4141e-06
3.76135e-06
-1.3311e-06
3.66739e-06
4.19594e-07
3.45863e-06
2.18933e-06
2.84877e-06
3.44136e-06
2.00644e-06
5.05738e-06
1.06065e-06
5.90542e-06
-3.40996e-08
6.14107e-06
-1.09208e-06
5.79036e-06
-1.82775e-06
4.56862e-06
-2.22393e-06
3.20719e-06
-2.60931e-06
2.54825e-06
-2.7034e-06
1.05236e-06
-2.53064e-06
-5.35569e-07
-2.19299e-06
-1.37015e-06
-2.06393e-06
-1.83406e-06
-1.7592e-06
-2.38031e-06
-3.82233e-07
-5.81935e-06
-4.99892e-06
-0.000116444
0.000116075
-0.000141018
2.44313e-05
-0.000148009
6.86454e-06
-0.00014572
-2.36839e-06
-0.000139939
-5.8443e-06
-0.000126561
-1.33945e-05
-0.000112435
-1.42796e-05
-0.000107418
-5.17592e-06
-0.000117088
9.46252e-06
-0.000133189
1.59184e-05
-0.000144007
1.06229e-05
-0.000151507
7.30536e-06
-0.000156279
4.5999e-06
-0.000158592
2.13955e-06
-0.000158417
-2.93736e-07
-0.000153675
-4.84708e-06
-0.000133761
-1.99724e-05
-8.93332e-05
-4.43962e-05
-8.94709e-05
-8.32331e-05
0.000199146
-9.35865e-05
3.45344e-05
-9.90145e-05
1.20769e-05
-9.37559e-05
-7.73057e-06
-8.82054e-05
-1.14676e-05
-7.7688e-05
-2.39521e-05
-7.09816e-05
-2.1181e-05
-7.96532e-05
3.2433e-06
-9.70711e-05
2.66726e-05
-0.000112046
3.06624e-05
-0.000121789
2.00816e-05
-0.000127802
1.30351e-05
-0.000131728
8.28347e-06
-0.000133738
3.90302e-06
-0.000133604
-6.49902e-07
-0.000128173
-1.04894e-05
-0.000103504
-4.47568e-05
-6.58673e-05
-8.20646e-05
-0.000155476
-4.35178e-05
0.000242538
-5.07894e-05
4.13909e-05
-7.84149e-05
3.92695e-05
-6.75789e-05
-1.89085e-05
-5.05454e-05
-2.86736e-05
-2.22934e-05
-5.22652e-05
7.82043e-06
-5.13235e-05
6.50557e-06
4.36061e-06
-1.88047e-05
5.13668e-05
-4.33454e-05
5.45976e-05
-7.10031e-05
4.71063e-05
-0.000100492
4.18996e-05
-0.000124713
3.18564e-05
-0.00013622
1.47503e-05
-0.000135763
-1.67723e-06
-0.000124426
-2.24344e-05
-9.50771e-05
-7.45253e-05
-5.00887e-05
-0.000127237
-0.000205741
2.40485e-06
0.000239916
-3.34994e-05
7.68847e-05
-7.55823e-05
8.24056e-05
-9.12367e-05
-3.57716e-06
-5.10105e-05
-6.92869e-05
-1.04526e-05
-9.30771e-05
1.89064e-05
-8.07152e-05
5.20953e-05
-2.88546e-05
8.80168e-05
1.53433e-05
0.000105534
3.68369e-05
9.91259e-05
5.31311e-05
8.01326e-05
6.03993e-05
4.71841e-05
6.42534e-05
6.7544e-06
5.45759e-05
-6.03656e-05
6.48154e-05
-9.06245e-05
7.22208e-06
-0.000100085
-6.56966e-05
-4.23998e-05
-0.000185347
-0.000248319
3.75557e-06
0.00023587
-5.66399e-05
0.000136867
-3.04316e-05
5.58853e-05
-1.94164e-05
-1.49302e-05
-1.92596e-05
-6.97574e-05
2.10416e-05
-0.000133686
3.54733e-05
-9.52137e-05
5.87008e-05
-5.20838e-05
8.66462e-05
-1.26055e-05
0.000107908
1.55621e-05
0.000119742
4.12419e-05
0.000131086
4.88864e-05
0.000143122
5.17965e-05
0.00014304
5.40865e-05
0.000141235
6.60407e-05
6.23891e-05
8.54493e-05
-7.35101e-05
6.95776e-05
-3.31419e-05
-0.000226266
-0.000281689
1.5108e-05
0.000220641
-5.60529e-05
0.000207633
-8.59705e-06
8.11448e-06
3.29028e-05
-5.67775e-05
2.78796e-05
-6.50624e-05
3.71471e-05
-0.000143144
4.73207e-05
-0.000105409
6.88625e-05
-7.36273e-05
9.0687e-05
-3.44317e-05
0.000104957
1.2881e-06
0.000114454
3.17399e-05
0.000124054
3.92807e-05
0.000132068
4.37402e-05
0.000135163
5.07578e-05
0.000138613
6.2131e-05
9.77028e-05
0.000125687
-1.64359e-05
0.000183142
-2.54227e-05
-0.000217982
-0.00030752
6.99088e-06
0.000213103
-1.14364e-05
0.00022567
9.33809e-06
-1.30395e-05
3.80259e-05
-8.58037e-05
5.7497e-05
-8.48179e-05
4.7379e-05
-0.00013319
5.4224e-05
-0.000112259
6.95907e-05
-8.89956e-05
8.69723e-05
-5.18323e-05
0.000100578
-1.2422e-05
0.000109819
2.23463e-05
0.000118648
3.03127e-05
0.000126583
3.57019e-05
0.000130398
4.68378e-05
0.000129849
6.24162e-05
0.000129641
0.000125376
3.68005e-05
0.00027545
-1.59743e-05
-0.000165993
-0.000323841
3.36058e-06
0.000209465
5.46797e-05
0.000173952
7.30178e-05
-3.18068e-05
5.49753e-05
-6.80503e-05
5.55965e-05
-8.57967e-05
5.00256e-05
-0.000127679
5.65944e-05
-0.00011883
6.96511e-05
-0.000102054
8.43495e-05
-6.67279e-05
9.70702e-05
-2.55245e-05
0.00010648
1.24635e-05
0.00011634
1.99635e-05
0.000124871
2.66851e-05
0.000128001
4.32912e-05
0.000126696
6.32643e-05
0.000118692
0.000132869
5.61388e-05
0.000337503
-5.8533e-06
-0.000104629
-0.000329922
2.50163e-06
-8.08532e-06
4.11053e-06
-7.19307e-06
5.74329e-06
-6.44675e-06
7.41596e-06
-5.40332e-06
8.82918e-06
-3.8396e-06
9.4411e-06
-1.95134e-06
9.7041e-06
1.51003e-07
9.23664e-06
2.65309e-06
7.44289e-06
5.23264e-06
5.08524e-06
7.41403e-06
2.38956e-06
8.60108e-06
-1.62889e-07
8.69352e-06
-2.08454e-06
7.71201e-06
-3.39714e-06
5.88121e-06
-4.39745e-06
4.2075e-06
-5.84917e-06
3.99997e-06
-6.56684e-06
1.77002e-06
-5.64436e-06
-1.45805e-06
-4.2373e-06
-2.77721e-06
-3.49725e-06
-2.57411e-06
-2.72212e-06
-3.15544e-06
-5.16971e-06
-3.37177e-06
7.99904e-07
-1.09686e-05
-1.04219e-05
2.32643e-06
-1.90285e-05
1.40348e-06
-2.95531e-05
4.06798e-06
-3.34939e-05
-1.39056e-06
-2.34826e-05
-1.38618e-05
-1.30192e-05
-1.24267e-05
-5.3317e-06
-7.54709e-06
-5.0899e-07
-2.17315e-06
1.87161e-06
2.85637e-06
2.32088e-06
6.97477e-06
1.55071e-06
9.38019e-06
7.21817e-07
9.52165e-06
4.70511e-08
8.38321e-06
-1.6867e-06
7.61367e-06
-4.42572e-06
6.94652e-06
-7.49373e-06
7.06798e-06
-8.61458e-06
2.89087e-06
-7.70921e-06
-2.36342e-06
-6.27865e-06
-4.20778e-06
-5.98643e-06
-2.86633e-06
-4.54678e-06
-4.59511e-06
-8.52326e-06
6.04699e-07
4.87691e-06
-1.26003e-05
-2.19292e-06
4.50975e-06
-4.37207e-06
3.57304e-06
-6.37306e-06
6.05926e-06
-8.44725e-06
6.73992e-07
-1.1551e-05
-1.07677e-05
-1.62118e-05
-7.77571e-06
-2.26698e-05
-1.09922e-06
-2.8911e-05
4.0583e-06
-2.84116e-05
2.35059e-06
-2.5412e-05
3.97391e-06
-2.58749e-05
9.8531e-06
-2.37936e-05
7.47008e-06
-2.0492e-05
5.11616e-06
-1.69607e-05
4.11334e-06
-1.28819e-05
2.87768e-06
-8.30934e-06
2.49308e-06
-3.14178e-06
-2.28146e-06
-1.05268e-06
-4.45405e-06
-1.33364e-06
-3.927e-06
-9.5022e-07
-3.24987e-06
5.21827e-07
-6.06726e-06
2.87988e-06
-1.75337e-06
6.3883e-07
7.11795e-06
1.53384e-06
2.96638e-06
2.16149e-06
2.93585e-06
5.43379e-06
2.77739e-06
4.48662e-06
1.61157e-06
-6.07085e-06
-2.20006e-07
-1.6606e-05
2.74972e-06
-2.45957e-05
6.8806e-06
-3.2088e-05
1.15406e-05
-3.92786e-05
9.53128e-06
-4.43675e-05
9.0528e-06
-5.09057e-05
1.63816e-05
-6.15337e-05
1.80916e-05
-6.26983e-05
6.27919e-06
-5.32272e-05
-5.35097e-06
-4.40811e-05
-6.24569e-06
-4.21397e-05
5.66049e-07
-3.75232e-05
-6.89646e-06
-2.26325e-05
-1.9367e-05
-9.03912e-06
-1.75604e-05
1.429e-06
-1.37556e-05
9.66217e-06
-1.4336e-05
1.29346e-05
-5.03565e-06
-7.76122e-07
1.43459e-05
-3.61348e-06
6.57036e-06
-6.85881e-06
6.17167e-06
-1.0331e-05
6.24008e-06
-1.37147e-05
4.98563e-06
-1.67203e-05
2.77592e-06
-1.89253e-05
4.94504e-06
-1.93016e-05
7.24704e-06
-1.93972e-05
1.16262e-05
-2.37436e-05
1.38675e-05
-2.91412e-05
1.44401e-05
-3.194e-05
1.91697e-05
-4.33851e-05
2.95261e-05
-5.68283e-05
1.97121e-05
-6.76502e-05
5.45877e-06
-8.20248e-05
8.11731e-06
-0.000100482
1.90178e-05
-0.000107954
5.62124e-07
-0.00010416
-2.31757e-05
-9.79686e-05
-2.37654e-05
-7.33948e-05
-3.83345e-05
-4.09764e-05
-4.67529e-05
-1.69485e-05
-2.90945e-05
-2.12859e-05
3.51806e-06
-9.23093e-07
7.48403e-06
-2.36631e-06
7.60545e-06
-3.94168e-06
7.80596e-06
-7.09336e-06
8.12779e-06
-1.27081e-05
8.38102e-06
-1.85077e-05
1.0735e-05
-2.37313e-05
1.24608e-05
-2.727e-05
1.5155e-05
-2.89132e-05
1.55007e-05
-3.07913e-05
1.6308e-05
-2.95802e-05
1.79481e-05
-2.67986e-05
2.67338e-05
-3.1054e-05
2.39568e-05
-4.35944e-05
1.79878e-05
-6.01647e-05
2.46758e-05
-7.52969e-05
3.41383e-05
-9.24059e-05
1.76585e-05
-0.000124238
8.64306e-06
-0.000164857
1.68407e-05
-0.000195608
-7.59953e-06
-0.00021046
-3.19154e-05
-0.000202486
-3.70846e-05
-5.24378e-05
-0.000171352
-2.87344e-06
1.03481e-05
-5.6905e-06
1.04131e-05
-8.41962e-06
1.05256e-05
-1.10704e-05
1.07691e-05
-1.35067e-05
1.08077e-05
-1.54585e-05
1.26771e-05
-1.70573e-05
1.40499e-05
-1.86341e-05
1.67219e-05
-2.13993e-05
1.82558e-05
-2.59942e-05
2.08927e-05
-3.01033e-05
2.20468e-05
-3.0705e-05
2.73249e-05
-3.19382e-05
2.51791e-05
-3.68969e-05
2.29352e-05
-4.22494e-05
3.00166e-05
-4.59771e-05
3.7854e-05
-6.07472e-05
3.24162e-05
-9.0654e-05
3.85367e-05
-0.000134358
6.05313e-05
-0.000205307
6.33354e-05
-0.000292539
5.53038e-05
-0.000372531
4.28934e-05
8.36155e-06
-0.000433346
-1.57507e-06
1.19139e-05
-3.35877e-06
1.21875e-05
-5.3255e-06
1.2483e-05
-7.7754e-06
1.32096e-05
-1.09079e-05
1.39307e-05
-1.39386e-05
1.56983e-05
-1.69314e-05
1.7033e-05
-1.95521e-05
1.93328e-05
-2.17853e-05
2.04791e-05
-2.41877e-05
2.3285e-05
-2.70261e-05
2.4875e-05
-2.88297e-05
2.91179e-05
-3.4099e-05
3.04377e-05
-4.27537e-05
3.1579e-05
-4.91643e-05
3.64159e-05
-5.4235e-05
4.29129e-05
-6.4699e-05
4.28683e-05
-7.78465e-05
5.16717e-05
-9.00894e-05
7.27612e-05
-0.000118834
9.20661e-05
-0.000176054
0.00011251
-0.000264525
0.000131352
0.000103969
-0.000360143
-2.08179e-06
1.39864e-05
-4.09087e-06
1.41873e-05
-6.09536e-06
1.44782e-05
-8.03015e-06
1.51351e-05
-9.91867e-06
1.58098e-05
-1.16112e-05
1.73814e-05
-1.32583e-05
1.86706e-05
-1.50282e-05
2.10931e-05
-1.72621e-05
2.27032e-05
-2.00121e-05
2.6025e-05
-2.33478e-05
2.82005e-05
-2.62556e-05
3.20153e-05
-3.01449e-05
3.43163e-05
-3.57958e-05
3.72189e-05
-4.16145e-05
4.22234e-05
-4.86469e-05
4.99337e-05
-6.1772e-05
5.59816e-05
-7.65017e-05
6.6389e-05
-8.80952e-05
8.43423e-05
-0.000103287
0.000107245
-0.00012754
0.00013675
-0.00016727
0.000171069
0.000154998
-0.00021831
-1.47314e-06
1.54504e-05
-2.98888e-06
1.56939e-05
-4.65396e-06
1.61341e-05
-6.43478e-06
1.69067e-05
-8.44653e-06
1.78123e-05
-1.0418e-05
1.93435e-05
-1.23937e-05
2.06368e-05
-1.42885e-05
2.29783e-05
-1.61885e-05
2.45935e-05
-1.80205e-05
2.78471e-05
-2.03905e-05
3.05604e-05
-2.29484e-05
3.45629e-05
-2.66661e-05
3.80235e-05
-3.18081e-05
4.23502e-05
-3.73225e-05
4.77269e-05
-4.28989e-05
5.54988e-05
-5.08739e-05
6.39451e-05
-6.07869e-05
7.62902e-05
-7.06194e-05
9.41629e-05
-8.07499e-05
0.000117363
-9.54907e-05
0.000151478
-0.00011898
0.000194546
0.000201907
-0.000165901
-1.42436e-06
1.68658e-05
-2.8296e-06
1.70901e-05
-4.22426e-06
1.75197e-05
-5.57198e-06
1.82454e-05
-6.88787e-06
1.9119e-05
-8.16122e-06
2.06077e-05
-9.4203e-06
2.18865e-05
-1.07617e-05
2.43102e-05
-1.22856e-05
2.61078e-05
-1.3827e-05
2.93788e-05
-1.55684e-05
3.22919e-05
-1.74272e-05
3.64116e-05
-1.99771e-05
4.05631e-05
-2.33005e-05
4.56629e-05
-2.73758e-05
5.17915e-05
-3.19263e-05
6.00382e-05
-3.76017e-05
6.96092e-05
-4.40678e-05
8.27447e-05
-4.99619e-05
0.000100045
-5.47878e-05
0.000122177
-5.7748e-05
0.000154426
-6.36457e-05
0.000200432
0.00023446
-9.62107e-05
-1.09709e-06
1.7954e-05
-2.20143e-06
1.81856e-05
-3.35176e-06
1.86612e-05
-4.51296e-06
1.93976e-05
-5.7168e-06
2.03138e-05
-6.90875e-06
2.17905e-05
-8.06805e-06
2.30366e-05
-9.18414e-06
2.5417e-05
-1.03449e-05
2.72591e-05
-1.1367e-05
3.03913e-05
-1.24566e-05
3.33717e-05
-1.3522e-05
3.74671e-05
-1.48429e-05
4.18739e-05
-1.66125e-05
4.74222e-05
-1.87443e-05
5.39128e-05
-2.09992e-05
6.22824e-05
-2.34986e-05
7.20976e-05
-2.59771e-05
8.52121e-05
-2.69999e-05
0.000101056
-2.64412e-05
0.000121607
-1.93079e-05
0.000147281
-5.41451e-06
0.000186526
0.000227375
1.65886e-06
-8.43588e-07
1.87889e-05
-1.66041e-06
1.89937e-05
-2.45957e-06
1.94516e-05
-3.22963e-06
2.01588e-05
-3.94892e-06
2.10242e-05
-4.66592e-06
2.24985e-05
-5.32805e-06
2.36897e-05
-5.98163e-06
2.60614e-05
-6.64263e-06
2.79108e-05
-7.25161e-06
3.09908e-05
-7.85019e-06
3.39607e-05
-8.36319e-06
3.79704e-05
-8.82546e-06
4.23262e-05
-9.23899e-06
4.78256e-05
-9.5159e-06
5.41793e-05
-9.58368e-06
6.23396e-05
-9.2158e-06
7.17189e-05
-8.04254e-06
8.40279e-05
-5.30519e-06
9.8308e-05
9.72739e-08
0.000116193
1.12579e-05
0.000136109
3.39286e-05
0.000163844
0.00019166
6.96318e-05
-6.30331e-07
1.94106e-05
-1.24375e-06
1.95985e-05
-1.86195e-06
2.00611e-05
-2.46536e-06
2.07536e-05
-3.01031e-06
2.15604e-05
-3.52949e-06
2.30089e-05
-3.93256e-06
2.40839e-05
-4.26612e-06
2.6386e-05
-4.4863e-06
2.81219e-05
-4.56053e-06
3.10559e-05
-4.50041e-06
3.38913e-05
-4.27011e-06
3.77306e-05
-3.84452e-06
4.18909e-05
-3.17924e-06
4.71505e-05
-2.13833e-06
5.31284e-05
-4.79111e-07
6.06702e-05
2.06885e-06
6.91605e-05
6.20189e-06
7.98842e-05
1.26687e-05
9.18303e-05
2.27064e-05
0.000106144
3.73566e-05
0.000121447
6.19666e-05
0.000139223
0.000155235
9.83806e-05
-3.46227e-07
1.97485e-05
-6.66965e-07
1.99109e-05
-9.7763e-07
2.03634e-05
-1.25899e-06
2.10265e-05
-1.45548e-06
2.17484e-05
-1.62464e-06
2.31695e-05
-1.65e-06
2.41006e-05
-1.58978e-06
2.6317e-05
-1.31345e-06
2.78367e-05
-9.26232e-07
3.06596e-05
-2.50558e-07
3.32064e-05
6.51374e-07
3.68193e-05
1.92145e-06
4.06113e-05
3.6035e-06
4.54588e-05
5.85178e-06
5.08702e-05
8.92774e-06
5.75842e-05
1.30107e-05
6.50674e-05
1.86618e-05
7.42227e-05
2.63662e-05
8.41154e-05
3.71101e-05
9.53897e-05
5.16695e-05
0.000106877
7.23858e-05
0.000118496
0.000128208
9.94011e-05
-1.71136e-07
1.99114e-05
-3.15896e-07
2.00474e-05
-4.38992e-07
2.04782e-05
-5.30865e-07
2.111e-05
-5.19534e-07
2.17287e-05
-4.501e-07
2.30916e-05
-2.05288e-07
2.38473e-05
1.53812e-07
2.59493e-05
7.86091e-07
2.71957e-05
1.59609e-06
2.98408e-05
2.78305e-06
3.20105e-05
4.26093e-06
3.53324e-05
6.23837e-06
3.86247e-05
8.72851e-06
4.29593e-05
1.19019e-05
4.76873e-05
1.60656e-05
5.34108e-05
2.13068e-05
5.98164e-05
2.83305e-05
6.71889e-05
3.71857e-05
7.52501e-05
4.87321e-05
8.3833e-05
6.29092e-05
9.26893e-05
8.09429e-05
0.000100451
0.000107453
0.000101687
7.37593e-08
1.98296e-05
1.76995e-07
1.99362e-05
3.06086e-07
2.03411e-05
4.70369e-07
2.09377e-05
7.40104e-07
2.14508e-05
1.11167e-06
2.27118e-05
1.67034e-06
2.32803e-05
2.38344e-06
2.52278e-05
3.40584e-06
2.61648e-05
4.63244e-06
2.86056e-05
6.34859e-06
3.02856e-05
8.38889e-06
3.32832e-05
1.10532e-05
3.59513e-05
1.42631e-05
3.97402e-05
1.82681e-05
4.3673e-05
2.32409e-05
4.84285e-05
2.9241e-05
5.38066e-05
3.68073e-05
5.96128e-05
4.58104e-05
6.62369e-05
5.70173e-05
7.26159e-05
7.0158e-05
7.95383e-05
8.59722e-05
8.46266e-05
9.02609e-05
0.000103154
1.9378e-07
1.9628e-05
4.23203e-07
1.96989e-05
6.9142e-07
2.0065e-05
1.02204e-06
2.05992e-05
1.46527e-06
2.09996e-05
2.0511e-06
2.2118e-05
2.81455e-06
2.25088e-05
3.78774e-06
2.42464e-05
5.07145e-06
2.48729e-05
6.62967e-06
2.7039e-05
8.68284e-06
2.8224e-05
1.11316e-05
3.08258e-05
1.42794e-05
3.27949e-05
1.80093e-05
3.60015e-05
2.26155e-05
3.90577e-05
2.81887e-05
4.28461e-05
3.48209e-05
4.71651e-05
4.28775e-05
5.15468e-05
5.21609e-05
5.69439e-05
6.31569e-05
6.16101e-05
7.53869e-05
6.72985e-05
8.91881e-05
7.08153e-05
7.61472e-05
0.000103291
3.09572e-07
1.93109e-05
6.4872e-07
1.93522e-05
1.05266e-06
1.96534e-05
1.54172e-06
2.01024e-05
2.15812e-06
2.03755e-05
2.97554e-06
2.12928e-05
3.9639e-06
2.15126e-05
5.24217e-06
2.29603e-05
6.83326e-06
2.32738e-05
8.77146e-06
2.50927e-05
1.12104e-05
2.57769e-05
1.40939e-05
2.7934e-05
1.76918e-05
2.91884e-05
2.18707e-05
3.1814e-05
2.6978e-05
3.39417e-05
3.29617e-05
3.68535e-05
3.9978e-05
4.01397e-05
4.81986e-05
4.3317e-05
5.75527e-05
4.75803e-05
6.82933e-05
5.08601e-05
8.01081e-05
5.5474e-05
9.30532e-05
5.78604e-05
6.28373e-05
0.000106353
2.65604e-07
1.90379e-05
5.33291e-07
1.90771e-05
9.17339e-07
1.9262e-05
1.41108e-06
1.96013e-05
2.05127e-06
1.97279e-05
2.95149e-06
2.03851e-05
4.04839e-06
2.04081e-05
5.53288e-06
2.14681e-05
7.33451e-06
2.14644e-05
9.57933e-06
2.28401e-05
1.23045e-05
2.30437e-05
1.5592e-05
2.46385e-05
1.95636e-05
2.52086e-05
2.41774e-05
2.71918e-05
2.97629e-05
2.83478e-05
3.61212e-05
3.04866e-05
4.35552e-05
3.2697e-05
5.19972e-05
3.48662e-05
6.14557e-05
3.81128e-05
7.19714e-05
4.03352e-05
8.33139e-05
4.41222e-05
9.53132e-05
4.58517e-05
5.05261e-05
0.000107615
2.0047e-07
1.88303e-05
3.7427e-07
1.88962e-05
7.1339e-07
1.89157e-05
1.17426e-06
1.91332e-05
1.80189e-06
1.9093e-05
2.71647e-06
1.94632e-05
3.86172e-06
1.92555e-05
5.44733e-06
1.98751e-05
7.36458e-06
1.95396e-05
9.81257e-06
2.03845e-05
1.27497e-05
2.00989e-05
1.63295e-05
2.10509e-05
2.05818e-05
2.09483e-05
2.55755e-05
2.21902e-05
3.15351e-05
2.238e-05
3.82329e-05
2.37805e-05
4.60982e-05
2.48233e-05
5.4825e-05
2.61308e-05
6.45842e-05
2.83449e-05
7.52645e-05
2.9646e-05
8.6748e-05
3.26298e-05
9.87618e-05
3.38287e-05
3.81684e-05
0.00011111
-1.25675e-07
1.89491e-05
-2.71455e-07
1.90351e-05
-2.33906e-07
1.88712e-05
-5.53368e-08
1.89477e-05
3.45821e-07
1.86849e-05
1.0852e-06
1.87168e-05
2.11846e-06
1.82151e-05
3.65601e-06
1.83304e-05
5.61065e-06
1.75778e-05
8.19842e-06
1.77894e-05
1.13629e-05
1.69271e-05
1.52654e-05
1.71409e-05
1.98715e-05
1.63346e-05
2.53479e-05
1.67059e-05
3.17527e-05
1.59674e-05
3.89661e-05
1.65591e-05
4.7364e-05
1.64173e-05
5.65089e-05
1.69776e-05
6.6719e-05
1.81265e-05
7.77225e-05
1.8634e-05
8.94392e-05
2.09044e-05
0.000101464
2.17947e-05
2.58307e-05
0.000113793
-3.76808e-07
1.93193e-05
-7.47674e-07
1.93993e-05
-9.68478e-07
1.90854e-05
-1.05965e-06
1.90322e-05
-9.33391e-07
1.85519e-05
-4.95057e-07
1.82717e-05
2.45984e-07
1.74673e-05
1.48057e-06
1.70889e-05
3.15205e-06
1.58993e-05
5.4681e-06
1.54663e-05
8.41434e-06
1.39737e-05
1.21745e-05
1.33734e-05
1.67396e-05
1.17622e-05
2.23203e-05
1.11178e-05
2.88844e-05
9.39575e-06
3.6479e-05
8.95676e-06
4.53445e-05
7.54406e-06
5.50728e-05
7.24133e-06
6.61056e-05
7.08561e-06
7.79835e-05
6.74793e-06
9.06181e-05
8.26152e-06
0.000103582
8.82233e-06
1.2468e-05
0.000116936
-9.19695e-07
2.02326e-05
-1.79532e-06
2.02686e-05
-2.5555e-06
1.98392e-05
-3.15612e-06
1.96264e-05
-3.52763e-06
1.8917e-05
-3.5865e-06
1.83241e-05
-3.29794e-06
1.71722e-05
-2.48495e-06
1.62693e-05
-1.15142e-06
1.45591e-05
9.19972e-07
1.33881e-05
3.7266e-06
1.11602e-05
7.44359e-06
9.6495e-06
1.20991e-05
7.09969e-06
1.78918e-05
5.31797e-06
2.4759e-05
2.52128e-06
3.28584e-05
8.50003e-07
4.22273e-05
-1.83238e-06
5.26366e-05
-3.17564e-06
6.45389e-05
-4.82437e-06
7.73381e-05
-6.05912e-06
9.10389e-05
-5.44729e-06
0.000105219
-5.36622e-06
-2.27051e-06
0.00011995
-1.25827e-06
2.14848e-05
-2.46507e-06
2.14693e-05
-3.60755e-06
2.09756e-05
-4.60703e-06
2.06198e-05
-5.41314e-06
1.97169e-05
-5.95312e-06
1.88579e-05
-6.18038e-06
1.73932e-05
-5.94982e-06
1.60324e-05
-5.23974e-06
1.38426e-05
-3.84181e-06
1.19837e-05
-1.73748e-06
9.04932e-06
1.26004e-06
6.64536e-06
5.21777e-06
3.13523e-06
1.03447e-05
1.84233e-07
1.66893e-05
-3.83029e-06
2.45044e-05
-6.97211e-06
3.3785e-05
-1.11201e-05
4.455e-05
-1.39479e-05
5.71066e-05
-1.73883e-05
7.08009e-05
-1.97609e-05
8.57966e-05
-2.04506e-05
0.000101765
-2.13424e-05
-1.91193e-05
0.000118606
-1.83117e-06
2.33102e-05
-3.61481e-06
2.32472e-05
-5.35404e-06
2.2709e-05
-6.96025e-06
2.22202e-05
-8.39457e-06
2.11454e-05
-9.58161e-06
2.00391e-05
-1.04609e-05
1.82666e-05
-1.09004e-05
1.64659e-05
-1.08497e-05
1.37859e-05
-1.00888e-05
1.12167e-05
-8.55854e-06
7.51281e-06
-6.00486e-06
4.08539e-06
-2.34394e-06
-5.32078e-07
2.57472e-06
-4.7409e-06
8.79333e-06
-1.00555e-05
1.65404e-05
-1.47259e-05
2.58444e-05
-2.04309e-05
3.69072e-05
-2.50176e-05
4.98367e-05
-3.03248e-05
6.41929e-05
-3.41243e-05
8.04159e-05
-3.66809e-05
9.82013e-05
-3.91351e-05
-3.80992e-05
0.000117174
-2.2106e-06
2.55154e-05
-4.38763e-06
2.54187e-05
-6.53739e-06
2.48533e-05
-8.57914e-06
2.42564e-05
-1.04802e-05
2.30409e-05
-1.21727e-05
2.1726e-05
-1.35981e-05
1.96863e-05
-1.46476e-05
1.75097e-05
-1.52662e-05
1.43989e-05
-1.52795e-05
1.12242e-05
-1.46354e-05
6.86278e-06
-1.30986e-05
2.54264e-06
-1.05657e-05
-3.07109e-06
-6.78377e-06
-8.52894e-06
-1.65332e-06
-1.51922e-05
5.13499e-06
-2.15206e-05
1.37294e-05
-2.90318e-05
2.44055e-05
-3.57003e-05
3.72249e-05
-4.31509e-05
5.20324e-05
-4.89385e-05
6.92864e-05
-5.39417e-05
8.85912e-05
-5.8447e-05
-5.88844e-05
0.000109369
-2.74398e-06
2.82542e-05
-5.46762e-06
2.81372e-05
-8.18124e-06
2.75617e-05
-1.08254e-05
2.68954e-05
-1.33701e-05
2.55804e-05
-1.57567e-05
2.41074e-05
-1.79163e-05
2.18405e-05
-1.97504e-05
1.93384e-05
-2.11896e-05
1.58327e-05
-2.20641e-05
1.20932e-05
-2.229e-05
7.08317e-06
-2.1625e-05
1.87201e-06
-1.99512e-05
-4.75065e-06
-1.69158e-05
-1.15701e-05
-1.22869e-05
-1.9827e-05
-5.81083e-06
-2.80026e-05
2.57141e-06
-3.74202e-05
1.3158e-05
-4.62931e-05
2.61252e-05
-5.61244e-05
4.1581e-05
-6.44009e-05
5.98162e-05
-7.21835e-05
8.0496e-05
-7.91336e-05
-8.14986e-05
0.000103103
-3.10869e-06
3.13581e-05
-6.21046e-06
3.12341e-05
-9.31327e-06
3.06597e-05
-1.23763e-05
2.99535e-05
-1.53665e-05
2.85657e-05
-1.82472e-05
2.69832e-05
-2.09554e-05
2.45436e-05
-2.34276e-05
2.18057e-05
-2.5581e-05
1.79811e-05
-2.72726e-05
1.37796e-05
-2.84138e-05
8.21914e-06
-2.88009e-05
2.25387e-06
-2.83159e-05
-5.241e-06
-2.6689e-05
-1.32024e-05
-2.37479e-05
-2.27737e-05
-1.90586e-05
-3.26976e-05
-1.23228e-05
-4.41617e-05
-3.03191e-06
-5.55898e-05
8.93203e-06
-6.80943e-05
2.39827e-05
-7.94578e-05
4.23769e-05
-9.0584e-05
6.3874e-05
-0.000100637
-0.000105799
8.81688e-05
-3.56983e-06
3.49234e-05
-7.15083e-06
3.48106e-05
-1.07604e-05
3.42647e-05
-1.4383e-05
3.35716e-05
-1.80017e-05
3.21799e-05
-2.15975e-05
3.05744e-05
-2.51124e-05
2.80539e-05
-2.84947e-05
2.51834e-05
-3.16483e-05
2.11299e-05
-3.44684e-05
1.65949e-05
-3.68333e-05
1.05792e-05
-3.85365e-05
3.95216e-06
-3.94022e-05
-4.38028e-06
-3.91413e-05
-1.34684e-05
-3.74981e-05
-2.4422e-05
-3.38977e-05
-3.63032e-05
-2.81121e-05
-4.99525e-05
-1.98198e-05
-6.38876e-05
-9.01765e-06
-7.8902e-05
4.44504e-06
-9.2926e-05
2.09732e-05
-0.000107118
4.17003e-05
-0.000121369
-0.000131378
6.72733e-05
-3.87896e-06
3.87982e-05
-7.78277e-06
3.87103e-05
-1.17338e-05
3.82116e-05
-1.57367e-05
3.75703e-05
-1.97869e-05
3.62258e-05
-2.38921e-05
3.46754e-05
-2.80015e-05
3.21589e-05
-3.21121e-05
2.92897e-05
-3.61346e-05
2.51481e-05
-4.00148e-05
2.04707e-05
-4.36019e-05
1.41617e-05
-4.67603e-05
7.10602e-06
-4.93105e-05
-1.83466e-06
-5.10362e-05
-1.17474e-05
-5.16588e-05
-2.38041e-05
-5.10639e-05
-3.6903e-05
-4.91174e-05
-5.1904e-05
-4.56489e-05
-6.73612e-05
-4.10629e-05
-8.3493e-05
-3.34603e-05
-0.000100533
-1.98999e-05
-0.000120682
8.27728e-07
-0.000142101
-0.000159007
2.84518e-05
-4.2832e-06
4.30776e-05
-8.60531e-06
4.30286e-05
-1.30075e-05
4.26099e-05
-1.75205e-05
4.20795e-05
-2.21632e-05
4.08647e-05
-2.69703e-05
3.94788e-05
-3.19211e-05
3.71058e-05
-3.70464e-05
3.44111e-05
-4.22812e-05
3.03788e-05
-4.75947e-05
2.57802e-05
-5.28749e-05
1.94379e-05
-5.80418e-05
1.22688e-05
-6.286e-05
2.97931e-06
-6.71334e-05
-7.47827e-06
-7.06359e-05
-2.03059e-05
-7.3245e-05
-3.42984e-05
-7.5347e-05
-4.98065e-05
-7.81034e-05
-6.46092e-05
-7.9918e-05
-8.16824e-05
-7.41323e-05
-0.000106323
-5.75771e-05
-0.000137243
-3.33079e-05
-0.000166377
-0.000189303
-3.01807e-06
-4.44638e-06
4.75205e-05
-8.95424e-06
4.7533e-05
-1.35856e-05
4.72378e-05
-1.8408e-05
4.68984e-05
-2.34733e-05
4.59265e-05
-2.88412e-05
4.48431e-05
-3.45258e-05
4.27869e-05
-4.05681e-05
4.04499e-05
-4.6942e-05
3.67491e-05
-5.36625e-05
3.24971e-05
-6.06702e-05
2.64419e-05
-6.79172e-05
1.9512e-05
-7.52951e-05
1.03534e-05
-8.28825e-05
1.0519e-07
-9.08501e-05
-1.23423e-05
-0.000100035
-2.51177e-05
-0.000111365
-3.84803e-05
-0.00012167
-5.4307e-05
-0.000121635
-8.17208e-05
-0.000107228
-0.000120735
-8.45957e-05
-0.000159881
-5.85446e-05
-0.000192433
-0.000218148
-2.9704e-05
-4.79671e-06
5.23142e-05
-9.67352e-06
5.24067e-05
-1.47112e-05
5.22724e-05
-1.99824e-05
5.21665e-05
-2.55514e-05
5.14924e-05
-3.15005e-05
5.07891e-05
-3.78865e-05
4.91697e-05
-4.48024e-05
4.73626e-05
-5.23125e-05
4.4256e-05
-6.05315e-05
4.07128e-05
-6.94956e-05
3.54027e-05
-7.9245e-05
2.92581e-05
-8.98333e-05
2.09383e-05
-0.000101397
1.1665e-05
-0.000114333
5.90266e-07
-0.000129226
-1.02271e-05
-0.000144989
-2.27203e-05
-0.000152873
-4.64265e-05
-0.000143792
-9.08066e-05
-0.000124386
-0.000140146
-0.0001033
-0.000180973
-8.12377e-05
-0.000214499
-0.000242127
-5.72634e-05
-4.65628e-06
5.69677e-05
-9.41648e-06
5.71642e-05
-1.4397e-05
5.72502e-05
-1.9725e-05
5.74917e-05
-2.55309e-05
5.72956e-05
-3.19571e-05
5.72124e-05
-3.91308e-05
5.63406e-05
-4.71803e-05
5.54093e-05
-5.61885e-05
5.32613e-05
-6.62277e-05
5.07491e-05
-7.73762e-05
4.65483e-05
-8.97688e-05
4.16478e-05
-0.000103578
3.47441e-05
-0.000119466
2.75507e-05
-0.000138473
1.95944e-05
-0.000160132
1.14297e-05
-0.000176327
-6.5276e-06
-0.000174267
-4.8491e-05
-0.000159084
-0.000105994
-0.000143734
-0.000155501
-0.000128416
-0.000196294
-0.000110672
-0.000232246
-0.000262961
-8.98419e-05
-4.96597e-06
6.19313e-05
-1.00589e-05
6.22548e-05
-1.54058e-05
6.25947e-05
-2.11174e-05
6.3201e-05
-2.73168e-05
6.34926e-05
-3.41448e-05
6.4038e-05
-4.1744e-05
6.39374e-05
-5.02609e-05
6.39237e-05
-5.9828e-05
6.2826e-05
-7.0628e-05
6.15467e-05
-8.29698e-05
5.88876e-05
-9.73067e-05
5.59822e-05
-0.000114118
5.15523e-05
-0.000134009
4.74396e-05
-0.000156594
4.21776e-05
-0.000178665
3.34999e-05
-0.000189494
4.29879e-06
-0.000183314
-5.46754e-05
-0.000172535
-0.000116777
-0.000162141
-0.000165898
-0.000148869
-0.000209569
-0.000132753
-0.000248365
-0.000282313
-0.000113405
-4.33101e-06
6.62604e-05
-8.80076e-06
6.67225e-05
-1.35645e-05
6.73565e-05
-1.88067e-05
6.84412e-05
-2.47023e-05
6.93862e-05
-3.14562e-05
7.07899e-05
-3.93215e-05
7.18008e-05
-4.8619e-05
7.32192e-05
-5.97059e-05
7.39108e-05
-7.29399e-05
7.47785e-05
-8.86401e-05
7.45858e-05
-0.000107079
7.44188e-05
-0.000128413
7.28844e-05
-0.000152699
7.17242e-05
-0.000178543
6.80207e-05
-0.000199452
5.44072e-05
-0.000202975
7.81904e-06
-0.00019481
-6.28441e-05
-0.000186811
-0.000124781
-0.000177132
-0.000175578
-0.000164703
-0.000222
-0.00015049
-0.000262581
-0.000298909