/*--------------------------------*- C++ -*----------------------------------*\
| =========                 |                                                 |
| \\      /  F ield         | OpenFOAM: The Open Source CFD Toolbox           |
|  \\    /   O peration     | Version:  2012                                  |
|   \\  /    A nd           | Website:  www.openfoam.com                      |
|    \\/     M anipulation  |                                                 |
\*---------------------------------------------------------------------------*/
FoamFile
{
    version     2.0;
    format      ascii;
    class       volScalarField;
    location    "0.64";
    object      rho2;
}
// * * * * * * * * * * * * * * * * * * * * * * * * * * * * * * * * * * * * * //

dimensions      [1 -3 0 0 0 0 0];


internalField   nonuniform List<scalar> 
2268
(
1.29984
1.29987
1.29993
1.30002
1.30014
1.30029
1.30047
1.30068
1.30091
1.30118
1.30146
1.30176
1.30206
1.30237
1.30266
1.30296
1.30322
1.30349
1.30371
1.30391
1.30407
1.30419
1.30425
1.29909
1.29911
1.29917
1.29926
1.29938
1.29953
1.29971
1.29992
1.30016
1.30043
1.3007
1.30101
1.30131
1.30162
1.30191
1.30221
1.30247
1.30274
1.30296
1.30316
1.30332
1.30344
1.3035
1.29832
1.29835
1.29841
1.29849
1.29861
1.29876
1.29894
1.29915
1.29939
1.29966
1.29994
1.30025
1.30055
1.30087
1.30117
1.30147
1.30174
1.30201
1.30223
1.30244
1.30261
1.30273
1.30281
1.29755
1.29758
1.29764
1.29773
1.29785
1.29799
1.29818
1.29839
1.29863
1.2989
1.29918
1.2995
1.2998
1.30012
1.30042
1.30073
1.30099
1.30126
1.30148
1.3017
1.30186
1.30199
1.30206
1.29677
1.2968
1.29686
1.29694
1.29706
1.29721
1.29739
1.2976
1.29785
1.29813
1.29842
1.29874
1.29905
1.29938
1.29968
1.3
1.30027
1.30054
1.30078
1.301
1.30118
1.30132
1.30141
1.296
1.29603
1.29609
1.29617
1.29629
1.29644
1.29662
1.29684
1.29708
1.29736
1.29765
1.29797
1.29829
1.29863
1.29894
1.29926
1.29953
1.29981
1.30004
1.30027
1.30044
1.3006
1.30068
1.29523
1.29526
1.29531
1.29539
1.29551
1.29565
1.29583
1.29604
1.29629
1.29658
1.29688
1.29721
1.29754
1.29789
1.29821
1.29853
1.29881
1.2991
1.29935
1.29958
1.29979
1.29996
1.30007
1.29448
1.2945
1.29456
1.29464
1.29475
1.2949
1.29508
1.29529
1.29554
1.29582
1.29612
1.29645
1.29679
1.29715
1.29748
1.29781
1.29808
1.29837
1.29862
1.29886
1.29906
1.29926
1.29938
1.3063
1.2978
1.29809
1.2976
1.29867
1.30019
1.30387
1.30457
1.3031
1.29968
1.29812
1.29638
1.29527
1.29487
1.29447
1.29544
1.29642
1.30285
1.31094
1.30243
1.29604
1.29701
1.29673
1.29783
1.29956
1.30445
1.30457
1.30218
1.29848
1.29717
1.29558
1.29454
1.29411
1.29373
1.29437
1.29479
1.30029
1.30747
1.29806
1.29573
1.2965
1.29617
1.29731
1.29902
1.30319
1.30409
1.3027
1.29863
1.29694
1.29508
1.29389
1.29342
1.29306
1.29354
1.29323
1.29755
1.30492
1.29757
1.2956
1.29677
1.29629
1.29675
1.2982
1.30278
1.304
1.30091
1.29753
1.29648
1.29492
1.29414
1.29382
1.29309
1.29362
1.29286
1.29459
1.30132
1.29757
1.29572
1.29669
1.29605
1.29686
1.29704
1.30121
1.30206
1.30128
1.29813
1.29652
1.2948
1.29389
1.29355
1.29294
1.29357
1.29288
1.29344
1.29838
1.29716
1.29566
1.29646
1.29589
1.29687
1.29644
1.30045
1.30051
1.29862
1.29631
1.29518
1.2944
1.29387
1.2936
1.29315
1.29369
1.29282
1.29306
1.29574
1.29742
1.29544
1.29606
1.2959
1.29694
1.29669
1.29854
1.29844
1.29712
1.29505
1.29424
1.29387
1.29365
1.29346
1.29293
1.29334
1.29302
1.29308
1.29407
1.29667
1.2953
1.29602
1.29593
1.29654
1.29612
1.29759
1.29659
1.29482
1.29371
1.29349
1.29341
1.29329
1.29313
1.29282
1.29285
1.2931
1.29306
1.29284
1.29369
1.2937
1.29372
1.29375
1.29381
1.2939
1.29402
1.29417
1.29438
1.29464
1.29494
1.29529
1.29563
1.29601
1.29636
1.2967
1.29698
1.29729
1.29756
1.2978
1.29805
1.2983
1.29847
1.29334
1.29335
1.29335
1.29333
1.29333
1.29335
1.29338
1.29342
1.29349
1.29358
1.29372
1.29394
1.29421
1.29454
1.29488
1.2952
1.29547
1.29578
1.29606
1.29633
1.29664
1.29693
1.29744
1.29327
1.29327
1.29327
1.29327
1.29327
1.29329
1.29331
1.29334
1.29334
1.29333
1.29334
1.29338
1.29347
1.2936
1.2938
1.29402
1.29419
1.29442
1.29465
1.29489
1.29514
1.29551
1.29572
1.29323
1.29323
1.29323
1.29323
1.29324
1.29324
1.29325
1.29328
1.29329
1.29328
1.29328
1.2933
1.29331
1.29331
1.29334
1.29341
1.29345
1.29353
1.29366
1.29377
1.29389
1.29415
1.29436
1.29322
1.29322
1.29322
1.29322
1.29322
1.29322
1.29323
1.29323
1.29324
1.29324
1.29323
1.29326
1.29327
1.29325
1.29328
1.2933
1.2933
1.2933
1.29333
1.29334
1.29333
1.29341
1.29346
1.29322
1.29322
1.29322
1.29322
1.29322
1.29322
1.29322
1.29322
1.29322
1.29322
1.29322
1.29323
1.29323
1.29322
1.29323
1.29325
1.29324
1.29325
1.29327
1.29328
1.29331
1.29332
1.29331
1.29321
1.29321
1.29321
1.29321
1.29321
1.29321
1.29321
1.29321
1.29322
1.29322
1.29322
1.29322
1.29322
1.29322
1.29322
1.29322
1.29322
1.29322
1.29323
1.29325
1.29327
1.29328
1.29325
1.29321
1.29321
1.29321
1.29321
1.29321
1.29321
1.29321
1.29321
1.29321
1.29321
1.29321
1.29321
1.29321
1.29321
1.29321
1.29321
1.29321
1.29321
1.29321
1.29322
1.29323
1.29323
1.2932
1.29321
1.29321
1.29321
1.29321
1.29321
1.29321
1.29321
1.29321
1.29321
1.29321
1.29321
1.29321
1.29321
1.29321
1.29321
1.29321
1.29321
1.29321
1.29321
1.29321
1.29321
1.29322
1.29319
1.29321
1.29321
1.29321
1.29321
1.29321
1.29321
1.29321
1.29321
1.29321
1.29321
1.29321
1.29321
1.29321
1.29321
1.29321
1.29321
1.29321
1.29321
1.29321
1.29321
1.29321
1.2932
1.29318
1.29321
1.29321
1.29321
1.29321
1.29321
1.29321
1.29321
1.29321
1.29321
1.29321
1.29321
1.29321
1.29321
1.29321
1.29321
1.29321
1.29321
1.29321
1.2932
1.2932
1.2932
1.2932
1.29318
1.29321
1.29321
1.29321
1.29321
1.29321
1.29321
1.29321
1.29321
1.29321
1.29321
1.29321
1.29321
1.29321
1.29321
1.29321
1.29321
1.2932
1.2932
1.2932
1.2932
1.2932
1.29319
1.29319
1.2932
1.2932
1.2932
1.2932
1.2932
1.2932
1.2932
1.2932
1.2932
1.2932
1.2932
1.2932
1.2932
1.2932
1.2932
1.2932
1.2932
1.2932
1.2932
1.2932
1.2932
1.29319
1.29319
1.2932
1.2932
1.2932
1.2932
1.2932
1.2932
1.2932
1.2932
1.2932
1.2932
1.2932
1.2932
1.2932
1.2932
1.2932
1.2932
1.2932
1.2932
1.2932
1.2932
1.29319
1.29319
1.29319
1.2932
1.2932
1.2932
1.2932
1.2932
1.2932
1.2932
1.2932
1.2932
1.2932
1.2932
1.2932
1.2932
1.2932
1.2932
1.2932
1.2932
1.2932
1.2932
1.29319
1.29319
1.29319
1.29319
1.2932
1.2932
1.2932
1.2932
1.2932
1.2932
1.2932
1.2932
1.2932
1.2932
1.2932
1.2932
1.2932
1.2932
1.2932
1.2932
1.2932
1.2932
1.29319
1.29319
1.29319
1.29319
1.29319
1.29319
1.29319
1.29319
1.29319
1.29319
1.29319
1.29319
1.29319
1.29319
1.29319
1.29319
1.29319
1.2932
1.2932
1.29319
1.29319
1.29319
1.29319
1.29319
1.29319
1.29319
1.29319
1.29319
1.29319
1.29319
1.29319
1.29319
1.29319
1.29319
1.29319
1.29319
1.29319
1.29319
1.29319
1.29319
1.29319
1.29319
1.29319
1.29319
1.29319
1.29319
1.29319
1.29319
1.29319
1.29319
1.29319
1.29318
1.29318
1.29318
1.29318
1.29318
1.29318
1.29318
1.29318
1.29319
1.29319
1.29319
1.29319
1.29319
1.29319
1.29319
1.29319
1.29319
1.29319
1.29319
1.29319
1.29319
1.29319
1.29319
1.29317
1.29317
1.29317
1.29317
1.29317
1.29317
1.29318
1.29318
1.29318
1.29318
1.29318
1.29318
1.29318
1.29318
1.29319
1.29319
1.29319
1.29319
1.29319
1.29319
1.29319
1.29319
1.29319
1.29315
1.29316
1.29316
1.29316
1.29316
1.29316
1.29316
1.29316
1.29316
1.29317
1.29317
1.29317
1.29317
1.29318
1.29318
1.29318
1.29318
1.29318
1.29318
1.29318
1.29318
1.29318
1.29318
1.29314
1.29314
1.29314
1.29314
1.29314
1.29314
1.29314
1.29314
1.29315
1.29315
1.29315
1.29315
1.29316
1.29316
1.29316
1.29317
1.29317
1.29317
1.29318
1.29318
1.29318
1.29318
1.29318
1.29312
1.29312
1.29312
1.29312
1.29312
1.29312
1.29312
1.29313
1.29313
1.29313
1.29313
1.29313
1.29314
1.29314
1.29314
1.29315
1.29315
1.29316
1.29316
1.29316
1.29317
1.29317
1.29317
1.29311
1.29311
1.29311
1.29311
1.29311
1.29311
1.29311
1.29311
1.29311
1.29311
1.29311
1.29312
1.29312
1.29312
1.29312
1.29312
1.29313
1.29313
1.29314
1.29314
1.29315
1.29315
1.29316
1.2931
1.2931
1.2931
1.2931
1.2931
1.2931
1.2931
1.2931
1.2931
1.2931
1.2931
1.2931
1.29311
1.29311
1.29311
1.29311
1.29311
1.29311
1.29311
1.29312
1.29312
1.29312
1.29313
1.29309
1.29309
1.29309
1.29309
1.29309
1.29309
1.29309
1.29309
1.29309
1.2931
1.2931
1.2931
1.2931
1.2931
1.2931
1.2931
1.2931
1.2931
1.29311
1.29311
1.29311
1.29311
1.29311
1.29309
1.29309
1.29309
1.29309
1.29309
1.29309
1.29309
1.29309
1.29309
1.29309
1.29309
1.29309
1.29309
1.29309
1.2931
1.2931
1.2931
1.2931
1.2931
1.2931
1.29311
1.29311
1.29311
1.29308
1.29308
1.29308
1.29309
1.29309
1.29309
1.29309
1.29309
1.29309
1.29309
1.29309
1.29309
1.29309
1.29309
1.29309
1.2931
1.2931
1.2931
1.2931
1.2931
1.29311
1.29311
1.29311
1.29308
1.29308
1.29308
1.29308
1.29308
1.29308
1.29308
1.29308
1.29309
1.29309
1.29309
1.29309
1.29309
1.29309
1.2931
1.2931
1.2931
1.29311
1.29311
1.29312
1.29312
1.29313
1.29313
1.29308
1.29308
1.29308
1.29308
1.29308
1.29308
1.29308
1.29308
1.29309
1.29309
1.29309
1.29309
1.29309
1.2931
1.2931
1.29311
1.29311
1.29312
1.29313
1.29314
1.29314
1.29314
1.29314
1.29308
1.29308
1.29308
1.29308
1.29308
1.29309
1.29309
1.29309
1.29309
1.29309
1.29309
1.2931
1.2931
1.2931
1.29311
1.29311
1.29312
1.29313
1.29314
1.29314
1.29314
1.29313
1.29312
1.29309
1.29309
1.29309
1.29309
1.29309
1.29309
1.29309
1.29309
1.29309
1.2931
1.2931
1.2931
1.2931
1.29311
1.29311
1.29312
1.29313
1.29314
1.29314
1.29313
1.29311
1.29309
1.2931
1.29309
1.29309
1.29309
1.29309
1.29309
1.29309
1.29309
1.29309
1.2931
1.2931
1.2931
1.2931
1.2931
1.29311
1.29312
1.29313
1.29314
1.29314
1.29312
1.29308
1.29307
1.29308
1.2931
1.29309
1.29309
1.29309
1.29309
1.29309
1.29309
1.2931
1.2931
1.2931
1.2931
1.2931
1.2931
1.29311
1.29311
1.29312
1.29313
1.29314
1.29311
1.29306
1.29304
1.29306
1.29308
1.2931
1.29309
1.29309
1.29309
1.29309
1.2931
1.2931
1.2931
1.2931
1.2931
1.2931
1.2931
1.2931
1.29311
1.29312
1.29313
1.29313
1.2931
1.29305
1.29302
1.29303
1.29306
1.29309
1.2931
1.2931
1.2931
1.2931
1.2931
1.2931
1.2931
1.2931
1.2931
1.2931
1.2931
1.2931
1.2931
1.29311
1.29312
1.29313
1.29311
1.29305
1.29301
1.293
1.29303
1.29307
1.29308
1.29309
1.2931
1.2931
1.2931
1.2931
1.2931
1.2931
1.2931
1.2931
1.2931
1.2931
1.2931
1.29311
1.29311
1.29312
1.29312
1.29307
1.293
1.29298
1.29299
1.29304
1.29306
1.29308
1.29308
1.2931
1.2931
1.2931
1.2931
1.2931
1.2931
1.2931
1.2931
1.2931
1.2931
1.29311
1.29311
1.29311
1.29312
1.2931
1.29303
1.29297
1.29295
1.29298
1.29303
1.29306
1.29307
1.29307
1.29311
1.29311
1.29311
1.29311
1.29311
1.29311
1.29311
1.29311
1.29311
1.29311
1.29311
1.29311
1.29311
1.29311
1.29307
1.29298
1.29294
1.29293
1.29297
1.29302
1.29305
1.29306
1.29307
1.29312
1.29312
1.29312
1.29312
1.29312
1.29312
1.29312
1.29312
1.29312
1.29312
1.29312
1.29312
1.29312
1.29311
1.29305
1.29295
1.29291
1.2929
1.29296
1.29301
1.29304
1.29306
1.29306
1.29313
1.29313
1.29313
1.29313
1.29313
1.29313
1.29313
1.29313
1.29313
1.29313
1.29313
1.29313
1.29312
1.2931
1.29302
1.29291
1.29287
1.29287
1.29295
1.293
1.29303
1.29305
1.29306
1.29315
1.29315
1.29315
1.29315
1.29316
1.29316
1.29316
1.29316
1.29316
1.29316
1.29317
1.29316
1.29315
1.2931
1.29297
1.29286
1.29282
1.29285
1.29294
1.29299
1.29302
1.29304
1.29305
1.29877
1.29863
1.29838
1.29727
1.29764
1.29815
1.29802
1.29853
1.29614
1.29611
1.29647
1.29636
1.29458
1.29475
1.29489
1.29508
1.29355
1.29358
1.29365
1.29362
1.29331
1.29329
1.29329
1.29331
1.29323
1.29323
1.29323
1.29324
1.29314
1.2931
1.2931
1.29309
1.29313
1.29308
1.29306
1.29306
1.29312
1.29308
1.29306
1.29306
1.29313
1.29309
1.29309
1.29309
1.29316
1.29311
1.2931
1.2931
1.29318
1.29316
1.29314
1.29312
1.29318
1.29318
1.29317
1.29315
1.29319
1.29318
1.29318
1.29318
1.29319
1.29318
1.29318
1.29318
1.29319
1.29318
1.29318
1.29318
1.29319
1.29318
1.29318
1.29318
1.29319
1.29318
1.29318
1.29318
1.29318
1.29318
1.29318
1.29318
1.29318
1.29318
1.29318
1.29318
1.29318
1.29318
1.29318
1.29318
1.29318
1.29318
1.29318
1.29318
1.29316
1.29316
1.29317
1.29317
1.29313
1.29314
1.29314
1.29314
1.29311
1.29311
1.29312
1.29312
1.29311
1.29311
1.29311
1.29311
1.29311
1.29311
1.29311
1.29312
1.29313
1.29313
1.29313
1.29313
1.29314
1.29314
1.29314
1.29314
1.29312
1.29312
1.29312
1.29313
1.29311
1.29311
1.29311
1.29312
1.29311
1.29311
1.29311
1.29311
1.29311
1.29311
1.29311
1.29311
1.2931
1.2931
1.2931
1.2931
1.29309
1.29309
1.29309
1.29309
1.29308
1.29308
1.29308
1.29308
1.29307
1.29307
1.29307
1.29307
1.29307
1.29307
1.29307
1.29306
1.29306
1.29306
1.29306
1.29305
1.29306
1.29306
1.29305
1.29305
1.29305
1.29305
1.29304
1.29304
1.29632
1.29539
1.29611
1.29563
1.29642
1.29576
1.29577
1.29424
1.29351
1.29331
1.2934
1.29351
1.29342
1.29318
1.29282
1.29265
1.2931
1.29327
1.29228
1.29668
1.29585
1.29657
1.29654
1.2967
1.29509
1.29398
1.29324
1.29347
1.29352
1.29355
1.29353
1.29343
1.29338
1.2932
1.29278
1.29331
1.29324
1.29224
1.29689
1.29585
1.29717
1.29632
1.29646
1.29436
1.29296
1.29337
1.29332
1.29331
1.29335
1.29331
1.29335
1.29338
1.29328
1.29298
1.29332
1.29283
1.29217
1.29533
1.29557
1.29595
1.29598
1.29554
1.29361
1.29274
1.29317
1.29325
1.29327
1.29333
1.29333
1.29337
1.29338
1.29338
1.29324
1.29327
1.29211
1.29214
1.29391
1.29422
1.29549
1.29576
1.29443
1.29303
1.29321
1.29324
1.29325
1.29332
1.29337
1.29338
1.29341
1.2934
1.29339
1.29329
1.29308
1.29157
1.29213
1.29354
1.29418
1.29483
1.29487
1.29324
1.29289
1.29325
1.29324
1.29328
1.29336
1.29341
1.29342
1.29344
1.2934
1.29338
1.2933
1.29284
1.29156
1.29224
1.29326
1.29337
1.29393
1.29396
1.29292
1.29262
1.29322
1.29326
1.2933
1.29338
1.29345
1.29346
1.29348
1.29342
1.2934
1.2933
1.2928
1.29167
1.2925
1.29328
1.29365
1.29374
1.29344
1.29252
1.2923
1.29317
1.29329
1.29331
1.29338
1.29343
1.29343
1.29339
1.29333
1.2933
1.2932
1.29288
1.29197
1.29287
1.29307
1.29332
1.29381
1.29332
1.29294
1.29267
1.29284
1.29332
1.29331
1.2933
1.29329
1.2933
1.29285
1.2927
1.29274
1.29288
1.29288
1.29224
1.2932
1.29308
1.29319
1.29332
1.29319
1.29313
1.29286
1.29274
1.29291
1.29295
1.29278
1.2924
1.29262
1.2922
1.29206
1.29209
1.29223
1.29222
1.29218
1.29337
1.2931
1.29317
1.29287
1.29301
1.2928
1.29315
1.29275
1.29217
1.29217
1.29254
1.29236
1.29243
1.29256
1.29223
1.29229
1.29203
1.29213
1.29228
1.29337
1.29312
1.29313
1.29318
1.29335
1.29318
1.29286
1.29313
1.29332
1.29319
1.2932
1.29296
1.29311
1.29292
1.29307
1.29324
1.29296
1.29282
1.29265
1.2929
1.2931
1.29312
1.29314
1.29316
1.29328
1.29353
1.29359
1.29354
1.29349
1.29347
1.29319
1.29285
1.29278
1.29273
1.29278
1.29249
1.29268
1.29262
1.29294
1.29313
1.29312
1.29313
1.29315
1.29315
1.29314
1.29313
1.29312
1.29309
1.29304
1.29306
1.29317
1.29316
1.2931
1.2932
1.29291
1.29309
1.29316
1.29339
1.29317
1.29316
1.29315
1.29313
1.29314
1.29311
1.29309
1.29308
1.29307
1.29305
1.29304
1.293
1.29296
1.29282
1.29268
1.29267
1.29231
1.29293
1.29297
1.29318
1.29317
1.29317
1.29314
1.29314
1.29313
1.29313
1.29313
1.29313
1.29314
1.29313
1.29312
1.29307
1.29296
1.29276
1.29266
1.2928
1.29353
1.29384
1.29318
1.29318
1.29317
1.29315
1.29314
1.29314
1.29313
1.29313
1.29313
1.29315
1.29316
1.29316
1.29313
1.29304
1.29292
1.2928
1.29271
1.29284
1.29308
1.29318
1.29318
1.29318
1.29317
1.29314
1.29313
1.29313
1.29313
1.29313
1.29314
1.29316
1.29316
1.29314
1.29309
1.29302
1.29296
1.29316
1.29482
1.2945
1.29318
1.29318
1.29318
1.29317
1.29315
1.29314
1.29313
1.29313
1.29313
1.29314
1.29315
1.29317
1.29316
1.29311
1.29306
1.29304
1.29307
1.29341
1.29353
1.29318
1.29318
1.29318
1.29318
1.29317
1.29315
1.29314
1.29313
1.29313
1.29314
1.29315
1.29316
1.29316
1.29312
1.29308
1.29298
1.29313
1.294
1.2941
1.29318
1.29318
1.29318
1.29318
1.29317
1.29317
1.29316
1.29315
1.29315
1.29315
1.29316
1.29316
1.29317
1.29315
1.29312
1.29307
1.29318
1.29344
1.29345
1.29318
1.29318
1.29318
1.29318
1.29317
1.29317
1.29317
1.29316
1.29316
1.29316
1.29316
1.29316
1.29316
1.29315
1.29313
1.2932
1.29329
1.29365
1.29363
1.29318
1.29318
1.29318
1.29318
1.29317
1.29317
1.29317
1.29317
1.29317
1.29316
1.29316
1.29316
1.29316
1.29316
1.29314
1.29329
1.29336
1.29348
1.29327
1.29317
1.29317
1.29317
1.29317
1.29317
1.29317
1.29317
1.29317
1.29317
1.29317
1.29316
1.29316
1.29316
1.29316
1.29314
1.29329
1.29323
1.29346
1.293
1.29315
1.29316
1.29317
1.29317
1.29317
1.29317
1.29317
1.29317
1.29317
1.29317
1.29316
1.29316
1.29316
1.29316
1.29315
1.29318
1.29297
1.29329
1.29302
1.29312
1.29313
1.29314
1.29315
1.29316
1.29317
1.29317
1.29317
1.29317
1.29317
1.29316
1.29316
1.29316
1.29315
1.29316
1.2931
1.29285
1.29304
1.29307
1.29311
1.29311
1.29312
1.29313
1.29314
1.29315
1.29316
1.29316
1.29316
1.29316
1.29316
1.29316
1.29316
1.29315
1.29316
1.29308
1.2928
1.29284
1.29308
1.29311
1.29311
1.29311
1.29311
1.29312
1.29313
1.29314
1.29315
1.29316
1.29316
1.29316
1.29316
1.29315
1.29315
1.29316
1.29308
1.2928
1.2927
1.29306
1.29313
1.29313
1.29313
1.29312
1.29311
1.29311
1.29312
1.29314
1.29315
1.29316
1.29316
1.29316
1.29315
1.29315
1.29315
1.29308
1.29283
1.29265
1.29302
1.29314
1.29314
1.29314
1.29313
1.29313
1.29312
1.29312
1.29312
1.29314
1.29315
1.29315
1.29316
1.29315
1.29315
1.29315
1.2931
1.2929
1.29264
1.29298
1.29313
1.29313
1.29313
1.29313
1.29313
1.29313
1.29312
1.29312
1.29312
1.29314
1.29315
1.29315
1.29315
1.29315
1.29315
1.29311
1.29297
1.29266
1.29293
1.29312
1.29312
1.29312
1.29312
1.29312
1.29312
1.29312
1.29312
1.29312
1.29313
1.29314
1.29315
1.29315
1.29315
1.29315
1.29312
1.29303
1.29274
1.29303
1.29311
1.29311
1.29311
1.29311
1.29311
1.29311
1.29311
1.29312
1.29312
1.29312
1.29313
1.29314
1.29315
1.29315
1.29315
1.29313
1.29306
1.29283
1.29298
1.29311
1.2931
1.2931
1.2931
1.2931
1.2931
1.2931
1.29311
1.29311
1.29312
1.29312
1.29314
1.29314
1.29314
1.29315
1.29313
1.29309
1.29287
1.29281
1.2931
1.29309
1.29308
1.29308
1.29308
1.29308
1.29308
1.29309
1.2931
1.29311
1.29312
1.29313
1.29314
1.29314
1.29315
1.29313
1.29311
1.2929
1.29279
1.29308
1.29308
1.29307
1.29306
1.29306
1.29307
1.29306
1.29307
1.29308
1.2931
1.29311
1.29313
1.29314
1.29314
1.29315
1.29313
1.29311
1.29293
1.29277
1.29307
1.29306
1.29306
1.29305
1.29305
1.29305
1.29305
1.29305
1.29307
1.29309
1.29311
1.29312
1.29313
1.29314
1.29314
1.29313
1.29311
1.29295
1.29276
1.29306
1.29305
1.29305
1.29304
1.29303
1.29304
1.29304
1.29304
1.29306
1.29308
1.2931
1.29312
1.29313
1.29313
1.29314
1.29313
1.29312
1.29297
1.29279
1.29306
1.29305
1.29304
1.29303
1.29302
1.29303
1.29304
1.29304
1.29306
1.29308
1.2931
1.29312
1.29313
1.29313
1.29313
1.29313
1.29311
1.29299
1.29287
1.29305
1.29304
1.29303
1.29302
1.29301
1.29301
1.29303
1.29305
1.29306
1.29308
1.2931
1.29312
1.29313
1.29313
1.29314
1.29313
1.29311
1.29303
1.29294
1.29305
1.29304
1.29303
1.29302
1.29301
1.29301
1.29302
1.29305
1.29307
1.29308
1.2931
1.29312
1.29312
1.29313
1.29313
1.29313
1.29311
1.29308
1.29299
1.29304
1.29303
1.29302
1.29301
1.29301
1.293
1.293
1.29302
1.29305
1.29307
1.29309
1.29311
1.29312
1.29313
1.29313
1.29314
1.29314
1.29313
1.29301
)
;

boundaryField
{
    leftWall
    {
        type            calculated;
        value           nonuniform List<scalar> 
50
(
1.29984
1.29909
1.29832
1.29755
1.29677
1.296
1.29523
1.29448
1.29369
1.29334
1.29327
1.29323
1.29322
1.29322
1.29321
1.29321
1.29321
1.29321
1.29321
1.29321
1.2932
1.2932
1.2932
1.2932
1.29319
1.29319
1.29318
1.29317
1.29315
1.29314
1.29312
1.29311
1.2931
1.29309
1.29309
1.29308
1.29308
1.29308
1.29308
1.29309
1.29309
1.29309
1.29309
1.2931
1.2931
1.2931
1.29311
1.29312
1.29313
1.29315
)
;
    }
    rightWall
    {
        type            calculated;
        value           nonuniform List<scalar> 
50
(
1.31094
1.30747
1.30492
1.30132
1.29838
1.29574
1.29407
1.29284
1.29228
1.29224
1.29217
1.29214
1.29213
1.29224
1.2925
1.29287
1.2932
1.29337
1.29337
1.2929
1.29294
1.29339
1.29297
1.29384
1.29308
1.2945
1.29353
1.2941
1.29345
1.29363
1.29327
1.293
1.29302
1.29307
1.29308
1.29306
1.29302
1.29298
1.29293
1.29303
1.29298
1.29281
1.29279
1.29277
1.29276
1.29279
1.29287
1.29294
1.29299
1.29301
)
;
    }
    lowerWall
    {
        type            calculated;
        value           nonuniform List<scalar> 
62
(
1.30022
1.30025
1.30031
1.30039
1.30051
1.30066
1.30084
1.30105
1.30129
1.30156
1.30183
1.30214
1.30243
1.30275
1.30304
1.30334
1.3036
1.30386
1.30408
1.30429
1.30445
1.30457
1.30463
1.30425
1.3035
1.30281
1.30206
1.30141
1.30068
1.30007
1.29938
1.29957
1.29943
1.29911
1.29762
1.3063
1.30243
1.29806
1.29757
1.29757
1.29716
1.29742
1.29667
1.30657
1.29807
1.29838
1.29791
1.29897
1.30047
1.3041
1.30486
1.3034
1.29998
1.29842
1.29667
1.29557
1.29517
1.29478
1.29575
1.29673
1.30317
1.31124
)
;
    }
    atmosphere
    {
        type            calculated;
        value           nonuniform List<scalar> 
46
(
1.29325
1.29325
1.29325
1.29325
1.29325
1.29325
1.29325
1.29325
1.29325
1.29325
1.29325
1.29325
1.29324
1.29319
1.29306
1.29295
1.29291
1.29295
1.29303
1.29309
1.29312
1.29314
1.29314
1.29314
1.29314
1.29314
1.29314
1.29313
1.29313
1.29312
1.29312
1.29311
1.2931
1.29311
1.29312
1.29315
1.29318
1.29319
1.29321
1.29321
1.29322
1.29323
1.29323
1.29323
1.29322
1.2931
)
;
    }
    defaultFaces
    {
        type            empty;
    }
}


// ************************************************************************* //
