/*--------------------------------*- C++ -*----------------------------------*\
| =========                 |                                                 |
| \\      /  F ield         | OpenFOAM: The Open Source CFD Toolbox           |
|  \\    /   O peration     | Version:  2012                                  |
|   \\  /    A nd           | Website:  www.openfoam.com                      |
|    \\/     M anipulation  |                                                 |
\*---------------------------------------------------------------------------*/
FoamFile
{
    version     2.0;
    format      ascii;
    class       volVectorField;
    location    "0.64";
    object      U;
}
// * * * * * * * * * * * * * * * * * * * * * * * * * * * * * * * * * * * * * //

dimensions      [0 1 -1 0 0 0 0];


internalField   nonuniform List<vector> 
2268
(
(0.00215645 -0.00217339 0)
(0.0109977 -0.00249807 0)
(0.0183179 -0.00209308 0)
(0.02332 -0.00148884 0)
(0.0246966 -0.00115141 0)
(0.0257507 -0.00159024 0)
(0.0297283 -0.00129508 0)
(0.0278707 -0.000324819 0)
(0.0230811 0.000321763 0)
(0.0192951 0.000911564 0)
(0.0118411 0.00182 0)
(0.00470748 0.00259331 0)
(-0.00417756 0.00231248 0)
(-0.00887598 0.00162682 0)
(-0.0140049 0.000999634 0)
(-0.016659 0.000222866 0)
(-0.020733 -0.000108727 0)
(-0.0214762 -0.00144017 0)
(-0.0210264 -0.00173322 0)
(-0.0182487 -0.00301118 0)
(-0.0121931 -0.00334136 0)
(-0.00652254 -0.00562951 0)
(0.00895641 0.00685684 0)
(0.00197126 -0.00404203 0)
(0.0108675 -0.00513769 0)
(0.0181653 -0.00372849 0)
(0.0236438 -0.00152042 0)
(0.0253118 7.54309e-06 0)
(0.0265198 -0.000780166 0)
(0.0300802 0.000301267 0)
(0.0281749 0.00347132 0)
(0.0233338 0.00374031 0)
(0.0204545 0.00439639 0)
(0.0119598 0.00508469 0)
(0.00483116 0.00496658 0)
(-0.00364984 0.00412174 0)
(-0.00898521 0.00300159 0)
(-0.0145719 0.00269298 0)
(-0.017343 0.00293561 0)
(-0.0212593 0.00239292 0)
(-0.0215368 0.00155649 0)
(-0.0215341 0.000198065 0)
(-0.0199468 -0.0011876 0)
(-0.0167355 -0.00223287 0)
(-0.0161247 -0.00440071 0)
(-0.00878196 -0.00575096 0)
(0.00161747 -0.00824512 0)
(0.0110917 -0.0101561 0)
(0.0183994 -0.00814039 0)
(0.0245343 -0.00487754 0)
(0.0267167 -0.00252918 0)
(0.0281758 -0.00386284 0)
(0.030753 -0.00210048 0)
(0.0282329 0.0028426 0)
(0.0233878 0.00395889 0)
(0.0197163 0.00627373 0)
(0.0111978 0.00920822 0)
(0.00445843 0.0099559 0)
(-0.00341589 0.00885354 0)
(-0.00876142 0.00677377 0)
(-0.0147744 0.00497156 0)
(-0.01784 0.0033776 0)
(-0.0215816 0.00191511 0)
(-0.0211229 -0.00129886 0)
(-0.0202319 -0.00241196 0)
(-0.0178959 -0.00523803 0)
(-0.0140885 -0.00503099 0)
(-0.0115187 -0.00930037 0)
(-0.00486015 -0.00478509 0)
(0.00146581 -0.0100416 0)
(0.0116114 -0.0130589 0)
(0.0185025 -0.0100681 0)
(0.025174 -0.00542836 0)
(0.0280023 -0.00168568 0)
(0.0301471 -0.00265104 0)
(0.0318396 0.00031348 0)
(0.0293558 0.00698522 0)
(0.0255372 0.00779562 0)
(0.0213398 0.010163 0)
(0.0130138 0.0123105 0)
(0.00535729 0.0118654 0)
(-0.00355406 0.0103862 0)
(-0.0103815 0.0083522 0)
(-0.0170921 0.00699059 0)
(-0.0197989 0.00611662 0)
(-0.0231679 0.00391993 0)
(-0.022161 0.000864137 0)
(-0.0223381 -0.00141467 0)
(-0.0193023 -0.00417346 0)
(-0.0161679 -0.00541805 0)
(-0.0118887 -0.00890598 0)
(-0.0082598 -0.0137031 0)
(0.00240861 -0.0144354 0)
(0.0121835 -0.0182201 0)
(0.019134 -0.0145716 0)
(0.026283 -0.00939613 0)
(0.0300968 -0.00492275 0)
(0.0330915 -0.00572446 0)
(0.0332089 -0.00178453 0)
(0.0300745 0.00577148 0)
(0.0261663 0.00771239 0)
(0.020227 0.0121698 0)
(0.0116782 0.0167633 0)
(0.00448659 0.0177724 0)
(-0.00404609 0.0163025 0)
(-0.0104068 0.0131583 0)
(-0.0168132 0.00944997 0)
(-0.0202213 0.0062555 0)
(-0.0242082 0.00310335 0)
(-0.0228909 -0.00165146 0)
(-0.0226743 -0.00362079 0)
(-0.0198861 -0.00806643 0)
(-0.0176971 -0.00829532 0)
(-0.013342 -0.0128627 0)
(-0.00345643 -0.0140322 0)
(0.00456305 -0.0169265 0)
(0.012736 -0.0209443 0)
(0.019375 -0.0167067 0)
(0.0267707 -0.0105676 0)
(0.0316024 -0.00485123 0)
(0.0358524 -0.00405149 0)
(0.0350984 0.00181264 0)
(0.032925 0.0103809 0)
(0.0304154 0.0125044 0)
(0.0240216 0.0170254 0)
(0.0144862 0.0197623 0)
(0.00577446 0.0192855 0)
(-0.00483914 0.0174389 0)
(-0.0136179 0.0143677 0)
(-0.0203646 0.0116321 0)
(-0.0231707 0.00956449 0)
(-0.027038 0.00513255 0)
(-0.0246652 6.03677e-05 0)
(-0.0251331 -0.00297908 0)
(-0.0202478 -0.00664092 0)
(-0.0198406 -0.00877186 0)
(-0.0124222 -0.0158437 0)
(-0.00309695 -0.0219667 0)
(0.00631324 -0.0226252 0)
(0.0139375 -0.0252393 0)
(0.0206793 -0.0212381 0)
(0.0282596 -0.015222 0)
(0.0349725 -0.00928634 0)
(0.0398845 -0.00745741 0)
(0.0376769 -0.000499223 0)
(0.0352581 0.007899 0)
(0.0311428 0.0118572 0)
(0.0221083 0.0196673 0)
(0.0123882 0.0253938 0)
(0.00420788 0.0269042 0)
(-0.00539743 0.0254842 0)
(-0.0133235 0.0204818 0)
(-0.0195949 0.0139925 0)
(-0.0237214 0.00942269 0)
(-0.029411 0.00390375 0)
(-0.0271324 -0.00249404 0)
(-0.0270436 -0.00552536 0)
(-0.0223617 -0.010464 0)
(-0.0249021 -0.0116988 0)
(-0.0185229 -0.0205659 0)
(0.000563474 -0.0210301 0)
(0.00765696 -0.0264842 0)
(0.0154019 -0.0277093 0)
(0.0226216 -0.0234398 0)
(0.0302836 -0.017261 0)
(0.0385997 -0.0102645 0)
(0.0438732 -0.00521936 0)
(0.0419923 0.00411314 0)
(0.041714 0.0135816 0)
(0.037222 0.0188048 0)
(0.0277783 0.0259119 0)
(0.0179604 0.0282209 0)
(0.00616596 0.0276615 0)
(-0.00708516 0.0257265 0)
(-0.0180039 0.0210606 0)
(-0.0239697 0.016552 0)
(-0.0270837 0.0141496 0)
(-0.0328967 0.00668292 0)
(-0.0292916 -0.00115433 0)
(-0.029147 -0.00539715 0)
(-0.0217438 -0.00776982 0)
(-0.0265154 -0.0108428 0)
(-0.0150828 -0.0280951 0)
(0.00466355 -0.0307844 0)
(-1.15625 0.384736 0)
(-1.50857 0.00360263 0)
(-1.70644 -0.0223272 0)
(-1.67405 -0.0482485 0)
(-1.65362 -0.0531048 0)
(-1.54555 -0.0794901 0)
(-1.34878 -0.0556132 0)
(-1.22576 0.0658442 0)
(-1.23027 0.125839 0)
(-1.44548 0.0892452 0)
(-1.59359 0.035848 0)
(-1.69246 0.0173357 0)
(-1.76509 0.00993921 0)
(-1.80202 0.00140485 0)
(-1.81888 -0.00408584 0)
(-1.79719 -0.0208389 0)
(-1.71358 -0.0567394 0)
(-1.33931 -0.123737 0)
(-0.698228 -0.250948 0)
(-0.966834 0.742336 0)
(-0.943991 0.230648 0)
(-1.18211 0.0893098 0)
(-1.08021 0.0260953 0)
(-1.06099 -0.00236463 0)
(-0.95764 -0.0486172 0)
(-0.819886 -0.0774712 0)
(-0.809845 -0.114233 0)
(-1.01305 -0.0346512 0)
(-1.20567 0.0645136 0)
(-1.35002 0.0676765 0)
(-1.42804 0.0554129 0)
(-1.48808 0.0367186 0)
(-1.51857 0.0210966 0)
(-1.53489 0.00265492 0)
(-1.51463 -0.0254093 0)
(-1.41404 -0.137036 0)
(-0.948329 -0.308558 0)
(-0.553904 -0.62099 0)
(-0.93197 1.18873 0)
(-0.104721 0.113243 0)
(-0.993368 0.031752 0)
(-0.805231 -0.0990717 0)
(-0.736405 -0.105552 0)
(-0.421459 -0.180107 0)
(-0.0918213 -0.129355 0)
(0.263199 0.144801 0)
(-0.118676 0.313518 0)
(-0.327807 0.246485 0)
(-0.649189 0.134284 0)
(-0.960253 0.0768521 0)
(-1.32816 0.0478863 0)
(-1.51613 0.0193619 0)
(-1.59402 -0.00746535 0)
(-1.50083 -0.0748415 0)
(-1.34591 -0.297468 0)
(-0.822949 -0.486935 0)
(-0.318468 -0.88612 0)
(-0.925219 1.17217 0)
(0.943091 0.29565 0)
(-1.34964 0.342995 0)
(-0.935885 -0.069002 0)
(-0.89872 -0.172459 0)
(-0.275694 -0.320316 0)
(0.031399 -0.363107 0)
(0.394285 -0.0967468 0)
(0.789887 0.170545 0)
(1.21684 0.275643 0)
(1.19755 0.325618 0)
(1.08066 0.344641 0)
(0.747497 0.32129 0)
(0.489504 0.208275 0)
(-0.304644 0.0752964 0)
(-0.796597 -0.153767 0)
(-1.43834 -0.421941 0)
(-0.788685 -0.750562 0)
(-0.174779 -1.11191 0)
(-0.896584 1.15981 0)
(0.941255 0.466752 0)
(-1.88961 0.467291 0)
(0.637141 0.0247872 0)
(-0.745242 -0.486262 0)
(0.19442 -0.581051 0)
(0.279086 -0.41955 0)
(0.524045 -0.18182 0)
(0.813298 -0.0124132 0)
(1.16279 0.0912447 0)
(1.30223 0.19647 0)
(1.43336 0.241597 0)
(1.56014 0.255105 0)
(1.71259 0.261022 0)
(1.48883 0.418579 0)
(2.13233 0.286579 0)
(-0.924283 -0.162873 0)
(-0.677834 -1.04629 0)
(-0.0701554 -1.29741 0)
(-0.831 1.1234 0)
(1.1261 0.864161 0)
(-2.05909 0.116632 0)
(1.31183 -0.121881 0)
(-0.0523747 -0.185409 0)
(0.416272 -0.716976 0)
(0.428545 -0.502942 0)
(0.646022 -0.321146 0)
(0.923127 -0.109675 0)
(1.14637 0.0620805 0)
(1.25071 0.206614 0)
(1.36322 0.234939 0)
(1.46918 0.250161 0)
(1.54621 0.269399 0)
(1.53941 0.30695 0)
(1.67321 0.604622 0)
(0.37656 0.813258 0)
(-0.577579 -1.14227 0)
(0.00282425 -1.43764 0)
(-0.740935 1.02784 0)
(0.861916 1.15083 0)
(-0.886979 -0.0343849 0)
(0.639529 -0.43161 0)
(0.622867 -0.410753 0)
(0.539669 -0.671133 0)
(0.537482 -0.522704 0)
(0.69578 -0.393452 0)
(0.890931 -0.220536 0)
(1.09395 -0.0448382 0)
(1.20325 0.106049 0)
(1.30445 0.149133 0)
(1.40443 0.176932 0)
(1.4855 0.2257 0)
(1.49104 0.297857 0)
(1.49376 0.627533 0)
(1.36145 1.2321 0)
(-0.397385 -0.958117 0)
(0.037785 -1.54653 0)
(-0.744469 1.04072 0)
(0.802392 1.0449 0)
(0.578419 -0.0974722 0)
(0.759652 -0.327127 0)
(0.698287 -0.416394 0)
(0.566933 -0.624534 0)
(0.571339 -0.567461 0)
(0.716127 -0.470851 0)
(0.871941 -0.282925 0)
(1.05392 -0.0731526 0)
(1.16329 0.114574 0)
(1.26813 0.148316 0)
(1.38786 0.172559 0)
(1.46269 0.23187 0)
(1.45897 0.311853 0)
(1.42967 0.587629 0)
(1.37799 1.49344 0)
(-0.17435 -0.672959 0)
(0.0543162 -1.59748 0)
(0.00931055 -0.0376165 0)
(0.0175374 -0.0350452 0)
(0.0265845 -0.031166 0)
(0.0350569 -0.0260798 0)
(0.0445352 -0.0190236 0)
(0.0502226 -0.0114842 0)
(0.0511063 -0.00178037 0)
(0.0530335 0.00797975 0)
(0.0460951 0.0180707 0)
(0.0337715 0.0303241 0)
(0.0207618 0.0398079 0)
(0.00482744 0.045033 0)
(-0.00669685 0.04326 0)
(-0.0158091 0.0326013 0)
(-0.0208682 0.0192877 0)
(-0.0265789 0.0133785 0)
(-0.0365778 0.00413551 0)
(-0.034351 -0.0059122 0)
(-0.0268694 -0.0108944 0)
(-0.0194969 -0.0137879 0)
(-0.0193185 -0.0167305 0)
(-0.0118127 -0.0390503 0)
(-0.0470874 -0.0228833 0)
(-0.0211123 -0.0479176 0)
(-0.0910239 -0.0408185 0)
(-0.113863 -0.0365309 0)
(-0.204159 -0.0301361 0)
(-0.156937 -0.0221524 0)
(-0.0948412 -0.00952874 0)
(-0.0449247 0.0034532 0)
(-0.0123756 0.0206598 0)
(0.00690009 0.0383833 0)
(0.0131599 0.0496646 0)
(0.0117247 0.0530362 0)
(0.00489391 0.0488747 0)
(0.00277817 0.0401447 0)
(-0.0023545 0.0311331 0)
(-0.0158896 0.0264289 0)
(-0.0317962 0.0301346 0)
(-0.0489449 0.0153837 0)
(-0.0438644 -0.00932658 0)
(-0.0394239 -0.0184748 0)
(-0.0287584 -0.0132547 0)
(-0.0366852 -0.0164715 0)
(-0.0141308 0.00350585 0)
(-0.0803205 0.0328411 0)
(-0.00894481 0.070961 0)
(-0.0149511 0.0537249 0)
(-0.0327626 0.0778258 0)
(-0.0368542 0.0115806 0)
(-0.0557062 -0.128161 0)
(-0.0710428 -0.123892 0)
(-0.105931 -0.0842987 0)
(-0.140892 -0.0437281 0)
(-0.173353 -0.00721519 0)
(-0.133132 0.0262159 0)
(-0.14066 0.0484129 0)
(-0.137176 0.0541123 0)
(-0.118231 0.0506033 0)
(-0.101766 0.0513595 0)
(-0.0803231 0.0489422 0)
(-0.0580437 0.0466325 0)
(-0.0313641 0.0164348 0)
(-0.00253904 -0.0154033 0)
(-0.00908407 -0.0259879 0)
(-0.00572815 -0.0164792 0)
(-0.00535141 -0.0316019 0)
(0.00964579 0.0050745 0)
(0.0189053 0.0224233 0)
(0.00358535 -0.019188 0)
(0.0124876 -0.0120926 0)
(0.00973015 -0.00959786 0)
(0.0473257 -0.0016587 0)
(-0.00133293 0.0131844 0)
(-0.066756 0.0398168 0)
(-0.114439 0.0723582 0)
(-0.15338 0.0871515 0)
(-0.195122 0.0316929 0)
(-0.231814 0.0142654 0)
(-0.250117 0.0562185 0)
(-0.30233 0.0254848 0)
(-0.36257 0.00431852 0)
(-0.312394 -0.00691781 0)
(-0.259776 -0.0175127 0)
(-0.213362 -0.0191875 0)
(-0.239298 -0.0403364 0)
(-0.16354 -0.0317564 0)
(-0.0793885 -0.0152436 0)
(-0.0177027 -0.017023 0)
(0.0327015 -0.0317167 0)
(0.0704114 -0.0212039 0)
(0.0675512 -0.0112346 0)
(-0.01346 0.0507877 0)
(-0.0258299 0.0433212 0)
(-0.0487942 0.0392198 0)
(-0.0636767 0.0187103 0)
(-0.0856869 -0.0153266 0)
(-0.0965446 -0.00925748 0)
(-0.109983 0.00273598 0)
(-0.101098 0.0381051 0)
(-0.112079 0.0712104 0)
(-0.147852 0.0845251 0)
(-0.171657 0.121164 0)
(-0.178684 0.169385 0)
(-0.296624 0.0622357 0)
(-0.324466 -0.0519391 0)
(-0.414827 -0.0489917 0)
(-0.4798 0.0262464 0)
(-0.614065 -0.0323895 0)
(-0.560852 -0.17377 0)
(-0.575234 -0.169091 0)
(-0.495113 -0.125058 0)
(-0.30162 -0.119635 0)
(-0.138942 -0.0299676 0)
(-0.043696 0.00698857 0)
(-0.00511824 0.0234442 0)
(-0.00529945 0.0265477 0)
(-0.0212192 0.0311264 0)
(-0.0226919 0.037868 0)
(-0.0557404 0.047532 0)
(-0.0835506 0.0642732 0)
(-0.118603 0.0767917 0)
(-0.140301 0.0881889 0)
(-0.157342 0.0790613 0)
(-0.158774 0.0708206 0)
(-0.178603 0.0848384 0)
(-0.146652 0.147915 0)
(-0.150964 0.148861 0)
(-0.192481 0.110189 0)
(-0.28886 0.134629 0)
(-0.370562 0.178284 0)
(-0.453587 0.0375405 0)
(-0.554346 -0.0793462 0)
(-0.799061 -0.0942391 0)
(-0.990225 -0.300796 0)
(-1.14082 -0.394031 0)
(-1.15003 -0.281096 0)
(-1.07734 -0.232506 0)
(-0.0101841 0.0585529 0)
(-0.021216 0.0567727 0)
(-0.0409906 0.0544821 0)
(-0.0510843 0.0512992 0)
(-0.0700725 0.0446052 0)
(-0.0778142 0.0534965 0)
(-0.0917754 0.0597019 0)
(-0.0955556 0.0774727 0)
(-0.109684 0.090236 0)
(-0.12579 0.107519 0)
(-0.160303 0.111214 0)
(-0.170765 0.142954 0)
(-0.168223 0.112622 0)
(-0.185186 0.0866963 0)
(-0.222957 0.135979 0)
(-0.244239 0.194878 0)
(-0.264403 0.159421 0)
(-0.403933 0.180375 0)
(-0.588212 0.286226 0)
(-0.875213 0.229544 0)
(-1.35571 0.0616273 0)
(-1.81659 -0.108522 0)
(-2.23028 -0.316661 0)
(-0.00712478 0.0570364 0)
(-0.0103343 0.059473 0)
(-0.0269033 0.0628168 0)
(-0.0319553 0.0684778 0)
(-0.0539175 0.0753104 0)
(-0.0661026 0.0863204 0)
(-0.0872511 0.094674 0)
(-0.0987767 0.105496 0)
(-0.116347 0.109097 0)
(-0.123359 0.119964 0)
(-0.143364 0.12854 0)
(-0.154497 0.153748 0)
(-0.164373 0.160682 0)
(-0.211567 0.162977 0)
(-0.259364 0.189741 0)
(-0.280937 0.216091 0)
(-0.315909 0.192676 0)
(-0.393851 0.237544 0)
(-0.460785 0.36776 0)
(-0.525078 0.455974 0)
(-0.77554 0.539222 0)
(-1.13929 0.584567 0)
(-1.73662 0.428402 0)
(-0.00854062 0.0742974 0)
(-0.014377 0.0748315 0)
(-0.0307066 0.0747708 0)
(-0.0364545 0.0770198 0)
(-0.0521426 0.078132 0)
(-0.0572794 0.0863316 0)
(-0.0710885 0.0925457 0)
(-0.0755316 0.106657 0)
(-0.0910133 0.115581 0)
(-0.100127 0.135182 0)
(-0.121617 0.144054 0)
(-0.136714 0.164852 0)
(-0.154032 0.172801 0)
(-0.179349 0.183173 0)
(-0.216025 0.209708 0)
(-0.242841 0.254097 0)
(-0.29302 0.278427 0)
(-0.384439 0.330051 0)
(-0.453753 0.429837 0)
(-0.508794 0.551851 0)
(-0.621072 0.692441 0)
(-0.767515 0.855272 0)
(-1.05345 0.724978 0)
(-0.00696145 0.0813774 0)
(-0.00941152 0.0829926 0)
(-0.0238639 0.0861126 0)
(-0.027793 0.0908943 0)
(-0.043704 0.0969266 0)
(-0.0498731 0.10559 0)
(-0.0656941 0.113153 0)
(-0.0715655 0.125137 0)
(-0.0869942 0.133515 0)
(-0.0924761 0.149783 0)
(-0.107773 0.164377 0)
(-0.118473 0.184949 0)
(-0.136528 0.201887 0)
(-0.15892 0.223277 0)
(-0.193207 0.250933 0)
(-0.218638 0.290513 0)
(-0.254673 0.33205 0)
(-0.304549 0.393788 0)
(-0.363217 0.488899 0)
(-0.409799 0.616427 0)
(-0.474021 0.798004 0)
(-0.567022 1.01098 0)
(-0.726065 0.976711 0)
(-0.00624657 0.0895258 0)
(-0.00960565 0.0905559 0)
(-0.021931 0.0922595 0)
(-0.025116 0.0958757 0)
(-0.0370617 0.0997591 0)
(-0.0397659 0.107738 0)
(-0.0514798 0.114326 0)
(-0.0538158 0.127756 0)
(-0.0667261 0.137057 0)
(-0.0707382 0.156116 0)
(-0.0842159 0.17117 0)
(-0.0900489 0.194115 0)
(-0.105203 0.215116 0)
(-0.118058 0.24096 0)
(-0.141965 0.272234 0)
(-0.162458 0.31729 0)
(-0.191922 0.368113 0)
(-0.223873 0.440804 0)
(-0.262346 0.540561 0)
(-0.287548 0.665289 0)
(-0.313728 0.85509 0)
(-0.319704 1.1094 0)
(-0.374121 1.22613 0)
(-0.00541144 0.0981823 0)
(-0.00690983 0.0995729 0)
(-0.0178774 0.102475 0)
(-0.0197512 0.106689 0)
(-0.0310342 0.112186 0)
(-0.0331333 0.120279 0)
(-0.0446073 0.127463 0)
(-0.0460256 0.140253 0)
(-0.057457 0.150389 0)
(-0.058941 0.166786 0)
(-0.0693831 0.183299 0)
(-0.0711038 0.2051 0)
(-0.0818536 0.229155 0)
(-0.0857283 0.258807 0)
(-0.101941 0.294093 0)
(-0.108973 0.338795 0)
(-0.127246 0.392025 0)
(-0.135905 0.462291 0)
(-0.154871 0.55031 0)
(-0.146529 0.666324 0)
(-0.149036 0.825806 0)
(-0.0688956 1.07066 0)
(0.00132591 1.32267 0)
(-0.00430822 0.101016 0)
(-0.00528482 0.102144 0)
(-0.0136537 0.10444 0)
(-0.0143716 0.108242 0)
(-0.022551 0.112769 0)
(-0.0225816 0.120733 0)
(-0.0309418 0.127197 0)
(-0.0301742 0.140268 0)
(-0.0387147 0.150279 0)
(-0.0377594 0.167933 0)
(-0.0460647 0.183955 0)
(-0.044677 0.206715 0)
(-0.0524295 0.230741 0)
(-0.0500985 0.261509 0)
(-0.0577387 0.297007 0)
(-0.0534467 0.343361 0)
(-0.0592847 0.397037 0)
(-0.0496571 0.469276 0)
(-0.0473083 0.55361 0)
(-0.0200475 0.660643 0)
(0.0106994 0.779966 0)
(0.100818 0.960047 0)
(0.255093 1.14985 0)
(-0.00368914 0.108447 0)
(-0.00359368 0.109539 0)
(-0.0108455 0.112185 0)
(-0.010701 0.116048 0)
(-0.0179561 0.120871 0)
(-0.0169903 0.128881 0)
(-0.0242227 0.135322 0)
(-0.0217414 0.147972 0)
(-0.0285496 0.158039 0)
(-0.0245227 0.173837 0)
(-0.0301352 0.190081 0)
(-0.024282 0.210915 0)
(-0.028477 0.234234 0)
(-0.0200727 0.263275 0)
(-0.0221514 0.296828 0)
(-0.00913763 0.33919 0)
(-0.00511884 0.387397 0)
(0.0182173 0.448853 0)
(0.0386178 0.519409 0)
(0.0879843 0.606325 0)
(0.146225 0.702706 0)
(0.24589 0.822393 0)
(0.411385 0.933524 0)
(-0.00258578 0.10763 0)
(-0.0016332 0.108589 0)
(-0.00656714 0.110998 0)
(-0.00544084 0.114683 0)
(-0.0101669 0.118694 0)
(-0.00800238 0.126446 0)
(-0.0126038 0.131796 0)
(-0.00871589 0.144176 0)
(-0.0126143 0.153097 0)
(-0.00618041 0.169223 0)
(-0.00914071 0.183921 0)
(0.000661978 0.204881 0)
(-0.000152506 0.226913 0)
(0.0139382 0.25512 0)
(0.0172237 0.286668 0)
(0.0378241 0.326314 0)
(0.0496187 0.370473 0)
(0.0816057 0.4255 0)
(0.109793 0.484748 0)
(0.164559 0.553142 0)
(0.224824 0.622695 0)
(0.321606 0.695654 0)
(0.446691 0.757118 0)
(-0.00194132 0.113181 0)
(-0.00037611 0.113989 0)
(-0.00401701 0.116485 0)
(-0.00214225 0.120004 0)
(-0.00556589 0.123834 0)
(-0.00243933 0.131511 0)
(-0.00541939 0.136311 0)
(-0.000214957 0.148004 0)
(-0.00218865 0.155654 0)
(0.00617945 0.170221 0)
(0.00587262 0.183261 0)
(0.0185468 0.20161 0)
(0.0211118 0.220854 0)
(0.0394445 0.24538 0)
(0.0472475 0.272689 0)
(0.0732781 0.306026 0)
(0.0914043 0.343164 0)
(0.129475 0.38752 0)
(0.16636 0.435568 0)
(0.224693 0.489361 0)
(0.290011 0.544204 0)
(0.377211 0.596702 0)
(0.483431 0.640316 0)
(-0.000949955 0.109336 0)
(0.00127981 0.11002 0)
(-0.000331718 0.112233 0)
(0.00222902 0.11561 0)
(0.000913644 0.118575 0)
(0.00470743 0.125738 0)
(0.00435902 0.129268 0)
(0.0103021 0.140446 0)
(0.0114542 0.146481 0)
(0.0208892 0.160717 0)
(0.0240607 0.171396 0)
(0.0389404 0.189234 0)
(0.0454245 0.205904 0)
(0.0672033 0.228581 0)
(0.0793908 0.252769 0)
(0.109924 0.281704 0)
(0.132352 0.314253 0)
(0.174185 0.350031 0)
(0.213234 0.389577 0)
(0.270848 0.428954 0)
(0.333253 0.470165 0)
(0.412091 0.501857 0)
(0.502662 0.533847 0)
(-0.000524936 0.113302 0)
(0.00216599 0.113786 0)
(0.00147017 0.115976 0)
(0.00463242 0.119096 0)
(0.00452517 0.121741 0)
(0.00899679 0.128293 0)
(0.0103057 0.131027 0)
(0.0168089 0.141028 0)
(0.0202413 0.145298 0)
(0.0302091 0.157627 0)
(0.036477 0.165344 0)
(0.0518717 0.180148 0)
(0.0623147 0.192613 0)
(0.0852985 0.211189 0)
(0.101968 0.229852 0)
(0.134426 0.252662 0)
(0.161475 0.278592 0)
(0.205394 0.305911 0)
(0.247697 0.338274 0)
(0.30495 0.368132 0)
(0.365503 0.401973 0)
(0.436182 0.42542 0)
(0.513491 0.454521 0)
(0.000125056 0.107077 0)
(0.00278001 0.107382 0)
(0.00332699 0.109196 0)
(0.00671762 0.111915 0)
(0.00812034 0.1137 0)
(0.0129516 0.119344 0)
(0.0164291 0.120989 0)
(0.0231889 0.129919 0)
(0.0296868 0.132623 0)
(0.0399028 0.143915 0)
(0.0500494 0.149257 0)
(0.0657215 0.162842 0)
(0.0806047 0.171957 0)
(0.103987 0.188362 0)
(0.125135 0.203071 0)
(0.158476 0.221576 0)
(0.189116 0.242693 0)
(0.233516 0.263123 0)
(0.277157 0.289448 0)
(0.333738 0.310378 0)
(0.392266 0.338301 0)
(0.460405 0.353161 0)
(0.531068 0.381805 0)
(0.000249573 0.110846 0)
(0.00220647 0.111008 0)
(0.00270819 0.112486 0)
(0.00595333 0.114678 0)
(0.00757794 0.115926 0)
(0.0124642 0.120294 0)
(0.0168055 0.121162 0)
(0.0238864 0.128019 0)
(0.0323175 0.128892 0)
(0.0428704 0.137442 0)
(0.0560244 0.139735 0)
(0.0717596 0.149695 0)
(0.0909827 0.154429 0)
(0.114016 0.166672 0)
(0.140261 0.175287 0)
(0.173592 0.188557 0)
(0.20835 0.203289 0)
(0.253036 0.217513 0)
(0.298861 0.237583 0)
(0.35426 0.252399 0)
(0.411662 0.274641 0)
(0.475686 0.285842 0)
(0.540482 0.311312 0)
(0.00045378 0.103979 0)
(0.00132518 0.104262 0)
(0.00193025 0.104826 0)
(0.00460914 0.106364 0)
(0.00647623 0.106576 0)
(0.0110039 0.109416 0)
(0.0158879 0.108939 0)
(0.0229661 0.113689 0)
(0.032514 0.112971 0)
(0.0432186 0.119496 0)
(0.0584236 0.119652 0)
(0.0744165 0.12719 0)
(0.0965316 0.128907 0)
(0.119727 0.138408 0)
(0.149891 0.142607 0)
(0.183348 0.152803 0)
(0.221636 0.162292 0)
(0.267417 0.171882 0)
(0.315228 0.187217 0)
(0.371841 0.196785 0)
(0.429808 0.215745 0)
(0.494775 0.223591 0)
(0.558746 0.248842 0)
(-0.000391569 0.109555 0)
(-0.00130798 0.110005 0)
(-0.00232201 0.109698 0)
(-0.0012394 0.110577 0)
(-0.000781531 0.110025 0)
(0.00274645 0.1113 0)
(0.00677728 0.109679 0)
(0.0135257 0.111781 0)
(0.022915 0.109068 0)
(0.0341999 0.111864 0)
(0.0503531 0.108853 0)
(0.0678589 0.111829 0)
(0.0919524 0.109279 0)
(0.11698 0.113457 0)
(0.150525 0.11162 0)
(0.185375 0.116844 0)
(0.227852 0.118952 0)
(0.275116 0.123796 0)
(0.326014 0.132721 0)
(0.384285 0.137527 0)
(0.444173 0.151149 0)
(0.509605 0.15658 0)
(0.573367 0.178603 0)
(-0.00111102 0.105032 0)
(-0.00326231 0.10553 0)
(-0.00543465 0.10411 0)
(-0.00594589 0.104117 0)
(-0.00676603 0.101915 0)
(-0.00488931 0.101088 0)
(-0.00241586 0.0974204 0)
(0.00277735 0.096714 0)
(0.0104922 0.0914846 0)
(0.0204368 0.0911796 0)
(0.0350346 0.0851195 0)
(0.0517811 0.0847142 0)
(0.0751176 0.0788467 0)
(0.100497 0.0789873 0)
(0.134803 0.0731727 0)
(0.170646 0.0746842 0)
(0.216208 0.0713876 0)
(0.265433 0.0729648 0)
(0.320636 0.0767881 0)
(0.383435 0.0778442 0)
(0.448194 0.0890668 0)
(0.518616 0.093636 0)
(0.587458 0.115515 0)
(-0.00287095 0.114479 0)
(-0.0073085 0.114868 0)
(-0.0125903 0.112949 0)
(-0.0157606 0.11244 0)
(-0.0193676 0.109556 0)
(-0.0200259 0.107479 0)
(-0.0203312 0.102609 0)
(-0.0171945 0.0993942 0)
(-0.0119258 0.091969 0)
(-0.00314192 0.0877974 0)
(0.010013 0.0779646 0)
(0.0267207 0.072116 0)
(0.0496566 0.0608416 0)
(0.0764204 0.0539972 0)
(0.11164 0.0415059 0)
(0.149833 0.0355321 0)
(0.19848 0.023886 0)
(0.250026 0.019338 0)
(0.310254 0.0141624 0)
(0.37732 0.00977714 0)
(0.44778 0.0152486 0)
(0.523882 0.0170717 0)
(0.600196 0.0349517 0)
(-0.00387177 0.114598 0)
(-0.00992126 0.114613 0)
(-0.0171237 0.111936 0)
(-0.0224578 0.110202 0)
(-0.0281589 0.105505 0)
(-0.0313686 0.101278 0)
(-0.0342648 0.0938325 0)
(-0.0340533 0.0874413 0)
(-0.0320908 0.076573 0)
(-0.026671 0.0682957 0)
(-0.0173613 0.0543016 0)
(-0.00432595 0.0440892 0)
(0.0145768 0.0281138 0)
(0.0379049 0.0160204 0)
(0.0694237 -0.00136141 0)
(0.105736 -0.0130935 0)
(0.153205 -0.0300574 0)
(0.205023 -0.0396436 0)
(0.268777 -0.0519133 0)
(0.339374 -0.0604735 0)
(0.41591 -0.0589903 0)
(0.499854 -0.0595489 0)
(0.587534 -0.0436309 0)
(-0.00551334 0.128892 0)
(-0.0144091 0.128731 0)
(-0.0249357 0.126128 0)
(-0.0333315 0.124092 0)
(-0.0424616 0.119138 0)
(-0.0489662 0.114211 0)
(-0.0554913 0.105987 0)
(-0.0586303 0.0978528 0)
(-0.0604883 0.0852673 0)
(-0.0583072 0.0736752 0)
(-0.0525779 0.0562067 0)
(-0.0421056 0.0406898 0)
(-0.0253851 0.019012 0)
(-0.00304595 -0.000507121 0)
(0.0272453 -0.0261992 0)
(0.0634436 -0.0481237 0)
(0.110311 -0.0756543 0)
(0.162997 -0.0963176 0)
(0.229087 -0.120877 0)
(0.30136 -0.137623 0)
(0.383356 -0.146213 0)
(0.475007 -0.154946 0)
(0.574515 -0.1465 0)
(-0.00648879 0.133936 0)
(-0.0174875 0.133434 0)
(-0.0301123 0.130268 0)
(-0.0407984 0.127082 0)
(-0.0522912 0.12051 0)
(-0.0614261 0.113587 0)
(-0.0707238 0.102792 0)
(-0.0769357 0.0916197 0)
(-0.0822472 0.0754334 0)
(-0.0837802 0.0594707 0)
(-0.0826262 0.0371669 0)
(-0.0770732 0.0159216 0)
(-0.0663304 -0.0119787 0)
(-0.0501058 -0.0376082 0)
(-0.0258884 -0.0689761 0)
(0.00472597 -0.0971314 0)
(0.046888 -0.130831 0)
(0.0966996 -0.159303 0)
(0.161489 -0.191665 0)
(0.233941 -0.215539 0)
(0.320568 -0.234192 0)
(0.418699 -0.25157 0)
(0.528022 -0.24844 0)
(-0.00791989 0.15359 0)
(-0.0217628 0.153068 0)
(-0.0373905 0.150174 0)
(-0.0511081 0.14698 0)
(-0.0660148 0.140519 0)
(-0.0786272 0.133358 0)
(-0.0918772 0.122269 0)
(-0.102 0.110103 0)
(-0.111802 0.0928889 0)
(-0.117636 0.0747787 0)
(-0.121404 0.0502154 0)
(-0.120255 0.0250459 0)
(-0.114449 -0.00741927 0)
(-0.102493 -0.0404631 0)
(-0.0819986 -0.0807604 0)
(-0.0530409 -0.12067 0)
(-0.0125504 -0.167781 0)
(0.036654 -0.211044 0)
(0.101118 -0.258807 0)
(0.175482 -0.29714 0)
(0.267174 -0.332163 0)
(0.370804 -0.363079 0)
(0.489352 -0.370597 0)
(-0.00884409 0.163031 0)
(-0.0247352 0.162308 0)
(-0.0423535 0.159031 0)
(-0.0582411 0.155089 0)
(-0.0754528 0.147434 0)
(-0.0905271 0.138789 0)
(-0.106596 0.125523 0)
(-0.119776 0.110809 0)
(-0.133348 0.0903332 0)
(-0.143066 0.0682457 0)
(-0.1517 0.0389251 0)
(-0.155494 0.00806679 0)
(-0.156017 -0.0307015 0)
(-0.150478 -0.0709936 0)
(-0.138684 -0.119537 0)
(-0.119104 -0.167536 0)
(-0.0884309 -0.22173 0)
(-0.047021 -0.273834 0)
(0.0112691 -0.331821 0)
(0.0811499 -0.382362 0)
(0.172893 -0.430987 0)
(0.278238 -0.474725 0)
(0.403836 -0.49232 0)
(-0.0100674 0.188027 0)
(-0.0284438 0.187429 0)
(-0.0487022 0.184543 0)
(-0.0673716 0.180916 0)
(-0.0877895 0.173667 0)
(-0.106388 0.165328 0)
(-0.126588 0.152381 0)
(-0.14428 0.137685 0)
(-0.163088 0.117044 0)
(-0.178292 0.0939704 0)
(-0.193531 0.0634805 0)
(-0.203848 0.0301678 0)
(-0.211951 -0.0117324 0)
(-0.213331 -0.05714 0)
(-0.209234 -0.111631 0)
(-0.195914 -0.170507 0)
(-0.170615 -0.239778 0)
(-0.134081 -0.310826 0)
(-0.0815199 -0.387493 0)
(-0.0185173 -0.459484 0)
(0.0632022 -0.530589 0)
(0.158546 -0.594976 0)
(0.285791 -0.632817 0)
(-0.0108352 0.200895 0)
(-0.0309769 0.200296 0)
(-0.0529164 0.197331 0)
(-0.0735546 0.193536 0)
(-0.0960646 0.185845 0)
(-0.117189 0.176952 0)
(-0.140309 0.162813 0)
(-0.161453 0.146656 0)
(-0.1846 0.123697 0)
(-0.204787 0.097984 0)
(-0.226396 0.063729 0)
(-0.243455 0.02572 0)
(-0.260411 -0.0220799 0)
(-0.271 -0.0744948 0)
(-0.27903 -0.137977 0)
(-0.277854 -0.207004 0)
(-0.272718 -0.28474 0)
(-0.257096 -0.363627 0)
(-0.235601 -0.448691 0)
(-0.207906 -0.52733 0)
(-0.15406 -0.609069 0)
(-0.062632 -0.698257 0)
(0.0686205 -0.768014 0)
(-0.0119 0.230898 0)
(-0.0342338 0.230562 0)
(-0.0584544 0.228173 0)
(-0.0816372 0.225091 0)
(-0.107061 0.218333 0)
(-0.131615 0.210571 0)
(-0.158822 0.197649 0)
(-0.184896 0.182959 0)
(-0.213985 0.161359 0)
(-0.24123 0.136757 0)
(-0.27114 0.10311 0)
(-0.29807 0.065177 0)
(-0.32668 0.0167056 0)
(-0.349984 -0.0376415 0)
(-0.372559 -0.104002 0)
(-0.387828 -0.176111 0)
(-0.400504 -0.259963 0)
(-0.410701 -0.347773 0)
(-0.429835 -0.436423 0)
(-0.430769 -0.541975 0)
(-0.367352 -0.677408 0)
(-0.253299 -0.818877 0)
(-0.106917 -0.931299 0)
(-0.0122757 0.246226 0)
(-0.035593 0.246053 0)
(-0.0608069 0.243966 0)
(-0.0854422 0.241385 0)
(-0.112714 0.235118 0)
(-0.139946 0.228023 0)
(-0.170469 0.215461 0)
(-0.201099 0.201207 0)
(-0.235445 0.179449 0)
(-0.269661 0.154589 0)
(-0.307667 0.119975 0)
(-0.345052 0.0807313 0)
(-0.385494 0.0291627 0)
(-0.42445 -0.0291086 0)
(-0.466916 -0.100952 0)
(-0.510198 -0.179555 0)
(-0.565507 -0.262827 0)
(-0.631897 -0.334255 0)
(-0.676315 -0.429751 0)
(-0.631392 -0.589153 0)
(-0.521763 -0.786925 0)
(-0.388713 -0.959606 0)
(-0.242034 -1.09413 0)
(-0.0131961 0.280131 0)
(-0.0384168 0.28045 0)
(-0.0656713 0.279375 0)
(-0.0926125 0.278328 0)
(-0.122378 0.274155 0)
(-0.152509 0.269618 0)
(-0.186353 0.260062 0)
(-0.221179 0.249183 0)
(-0.260684 0.231106 0)
(-0.301931 0.210203 0)
(-0.34896 0.179617 0)
(-0.398328 0.144248 0)
(-0.453591 0.0971834 0)
(-0.512228 0.0450758 0)
(-0.577604 -0.0171531 0)
(-0.651384 -0.0761417 0)
(-0.737273 -0.136735 0)
(-0.821073 -0.236237 0)
(-0.821423 -0.436029 0)
(-0.724109 -0.697861 0)
(-0.61294 -0.922372 0)
(-0.497926 -1.10056 0)
(-0.376155 -1.24335 0)
(-0.0127571 0.296732 0)
(-0.0373335 0.297431 0)
(-0.0639635 0.297096 0)
(-0.0909033 0.297059 0)
(-0.12126 0.294039 0)
(-0.153333 0.291088 0)
(-0.190332 0.283297 0)
(-0.230452 0.274826 0)
(-0.276801 0.259559 0)
(-0.327286 0.242424 0)
(-0.384576 0.215924 0)
(-0.447143 0.185202 0)
(-0.517528 0.142706 0)
(-0.595643 0.0949584 0)
(-0.687875 0.0378878 0)
(-0.800064 -0.0197123 0)
(-0.920264 -0.0938527 0)
(-0.973796 -0.249493 0)
(-0.898494 -0.528504 0)
(-0.810692 -0.798397 0)
(-0.733736 -1.01386 0)
(-0.646592 -1.19722 0)
(-0.543076 -1.35215 0)
(-0.0135539 0.33202 0)
(-0.0398453 0.333454 0)
(-0.0683167 0.334742 0)
(-0.0973328 0.337424 0)
(-0.129714 0.338379 0)
(-0.163973 0.340492 0)
(-0.203079 0.338938 0)
(-0.245651 0.337421 0)
(-0.294541 0.329567 0)
(-0.348483 0.319645 0)
(-0.410455 0.300877 0)
(-0.481152 0.27881 0)
(-0.564231 0.246944 0)
(-0.661901 0.217259 0)
(-0.777478 0.188702 0)
(-0.904792 0.158544 0)
(-1.01409 0.0391645 0)
(-1.02118 -0.257788 0)
(-0.948047 -0.599321 0)
(-0.905123 -0.863385 0)
(-0.836818 -1.08816 0)
(-0.762625 -1.29238 0)
(-0.663794 -1.46866 0)
(-0.0117805 0.348557 0)
(-0.0347895 0.350626 0)
(-0.0598367 0.353035 0)
(-0.086008 0.35693 0)
(-0.116177 0.359171 0)
(-0.149377 0.363011 0)
(-0.188728 0.363576 0)
(-0.233902 0.365081 0)
(-0.288546 0.361279 0)
(-0.353033 0.357643 0)
(-0.430558 0.348005 0)
(-0.521752 0.339016 0)
(-0.628313 0.323367 0)
(-0.751102 0.308905 0)
(-0.888609 0.280853 0)
(-1.02931 0.217429 0)
(-1.11201 0.0219857 0)
(-1.06858 -0.317498 0)
(-1.02286 -0.645055 0)
(-0.983893 -0.910746 0)
(-0.918358 -1.15653 0)
(-0.850928 -1.3706 0)
(-0.76557 -1.56027 0)
(-0.0123944 0.380903 0)
(-0.0366502 0.383842 0)
(-0.0632231 0.38831 0)
(-0.0905005 0.396181 0)
(-0.121594 0.404231 0)
(-0.155976 0.415654 0)
(-0.196584 0.426121 0)
(-0.243432 0.440041 0)
(-0.299612 0.451395 0)
(-0.366097 0.464422 0)
(-0.445215 0.471957 0)
(-0.53775 0.4791 0)
(-0.646837 0.4782 0)
(-0.780954 0.480195 0)
(-0.930246 0.468542 0)
(-1.06988 0.385231 0)
(-1.12372 0.0784456 0)
(-1.0823 -0.344341 0)
(-1.06413 -0.685244 0)
(-1.01545 -0.967638 0)
(-0.965254 -1.2227 0)
(-0.903873 -1.44643 0)
(-0.833598 -1.64861 0)
(-0.00935501 0.395478 0)
(-0.027717 0.399322 0)
(-0.0481262 0.404744 0)
(-0.0702998 0.413136 0)
(-0.096017 0.422386 0)
(-0.125458 0.435682 0)
(-0.161211 0.448585 0)
(-0.204175 0.465698 0)
(-0.257565 0.481478 0)
(-0.324241 0.501199 0)
(-0.408522 0.517811 0)
(-0.5154 0.539762 0)
(-0.644 0.565765 0)