/*--------------------------------*- C++ -*----------------------------------*\
| =========                 |                                                 |
| \\      /  F ield         | OpenFOAM: The Open Source CFD Toolbox           |
|  \\    /   O peration     | Version:  2012                                  |
|   \\  /    A nd           | Website:  www.openfoam.com                      |
|    \\/     M anipulation  |                                                 |
\*---------------------------------------------------------------------------*/
FoamFile
{
    version     2.0;
    format      ascii;
    class       volVectorField;
    location    "0.64";
    object      Uc;
}
// * * * * * * * * * * * * * * * * * * * * * * * * * * * * * * * * * * * * * //

dimensions      [0 1 -1 0 0 0 0];


internalField   nonuniform List<vector> 
2268
(
(0.00328942 -0.00155456 0)
(0.0106199 -0.00190979 0)
(0.0177432 -0.0014566 0)
(0.0224208 -0.000754018 0)
(0.0246263 -0.000288281 0)
(0.0264962 -0.000595398 0)
(0.0282889 -0.000251835 0)
(0.0271648 0.000783074 0)
(0.0233669 0.00101176 0)
(0.0184261 0.00132324 0)
(0.0119827 0.00172187 0)
(0.00435077 0.00188491 0)
(-0.00302887 0.00160265 0)
(-0.00885454 0.00115051 0)
(-0.0132273 0.000916033 0)
(-0.0168209 0.00078226 0)
(-0.0196706 0.000564487 0)
(-0.0209148 2.35029e-05 0)
(-0.0201524 -0.00038382 0)
(-0.0171306 -0.00104431 0)
(-0.0120149 -0.00137335 0)
(-0.00387159 -0.00247513 0)
(0.000682867 0.000322672 0)
(0.00321057 -0.00462641 0)
(0.0104703 -0.00573318 0)
(0.0177152 -0.00442345 0)
(0.0226982 -0.00235272 0)
(0.0252069 -0.000917509 0)
(0.0271221 -0.00175494 0)
(0.0287327 -0.000700692 0)
(0.0274676 0.00236106 0)
(0.0238586 0.00293418 0)
(0.019098 0.00398566 0)
(0.012362 0.00528795 0)
(0.00457333 0.00560645 0)
(-0.00276235 0.00483544 0)
(-0.00891989 0.00358088 0)
(-0.01371 0.00281599 0)
(-0.0174366 0.00234173 0)
(-0.0201199 0.00161987 0)
(-0.0212016 6.73247e-05 0)
(-0.0208421 -0.000957891 0)
(-0.0192342 -0.00265824 0)
(-0.0171 -0.00318571 0)
(-0.014232 -0.00586665 0)
(-0.00614646 -0.00225949 0)
(0.00317816 -0.00764567 0)
(0.0105524 -0.0096298 0)
(0.0181107 -0.00752268 0)
(0.0235529 -0.00418038 0)
(0.0265457 -0.00168987 0)
(0.0284691 -0.00279664 0)
(0.0294969 -0.000905918 0)
(0.0276773 0.00402407 0)
(0.0237142 0.00484968 0)
(0.0185504 0.00676038 0)
(0.0117018 0.00893321 0)
(0.00425333 0.00916213 0)
(-0.00268446 0.0080253 0)
(-0.00880203 0.00619214 0)
(-0.0138812 0.00486886 0)
(-0.0178175 0.00391026 0)
(-0.0203009 0.00249308 0)
(-0.0207471 -8.38431e-05 0)
(-0.019566 -0.00153483 0)
(-0.0172068 -0.00395612 0)
(-0.01409 -0.0043695 0)
(-0.010262 -0.00784736 0)
(-0.00400498 -0.00705711 0)
(0.0032702 -0.0106931 0)
(0.0107999 -0.0136258 0)
(0.0184517 -0.0107148 0)
(0.0242194 -0.00628597 0)
(0.0278407 -0.00271009 0)
(0.0300468 -0.00372794 0)
(0.0308126 -0.000822321 0)
(0.0290465 0.00563503 0)
(0.0254739 0.00680008 0)
(0.0203516 0.00967113 0)
(0.013238 0.0126209 0)
(0.00511956 0.0128313 0)
(-0.00293681 0.0114423 0)
(-0.0102289 0.00911246 0)
(-0.0159376 0.00704676 0)
(-0.0197743 0.00540582 0)
(-0.0218438 0.00314916 0)
(-0.0221842 -0.000368222 0)
(-0.0212197 -0.00226445 0)
(-0.0189327 -0.00542225 0)
(-0.0155381 -0.00598065 0)
(-0.0117776 -0.00982251 0)
(-0.00492515 -0.0112775 0)
(0.00364896 -0.0139631 0)
(0.0114793 -0.0176149 0)
(0.0191872 -0.0139847 0)
(0.0254548 -0.00870392 0)
(0.0299007 -0.00410467 0)
(0.0323841 -0.00454951 0)
(0.0324116 -0.000375728 0)
(0.0299036 0.00720836 0)
(0.0256872 0.00890783 0)
(0.0196154 0.0128536 0)
(0.0120714 0.0163654 0)
(0.00422414 0.016632 0)
(-0.00341054 0.015057 0)
(-0.0102988 0.0121992 0)
(-0.0159137 0.00931137 0)
(-0.020179 0.00697017 0)
(-0.0226516 0.00373136 0)
(-0.0228899 -0.000676962 0)
(-0.0217007 -0.00297355 0)
(-0.0196622 -0.00675738 0)
(-0.0167622 -0.0076203 0)
(-0.0116226 -0.0123891 0)
(-0.00405955 -0.0155237 0)
(0.00432566 -0.0177318 0)
(0.0123541 -0.0213408 0)
(0.0195671 -0.0173103 0)
(0.0261344 -0.0114439 0)
(0.0314648 -0.00598489 0)
(0.0346118 -0.00533015 0)
(0.0347574 0.000323074 0)
(0.0328612 0.00859093 0)
(0.0294703 0.0111205 0)
(0.0232738 0.0164388 0)
(0.0147422 0.0203774 0)
(0.00536736 0.020759 0)
(-0.00429307 0.0191035 0)
(-0.0129957 0.0155209 0)
(-0.0192348 0.0115918 0)
(-0.0232524 0.0086042 0)
(-0.0252501 0.00420997 0)
(-0.025094 -0.00111675 0)
(-0.0234503 -0.00387258 0)
(-0.0209564 -0.00800037 0)
(-0.0176276 -0.00932097 0)
(-0.0115167 -0.0160054 0)
(-0.00368404 -0.0191834 0)
(0.00506365 -0.0221691 0)
(0.0137182 -0.0247878 0)
(0.0208912 -0.0206621 0)
(0.0280466 -0.0145773 0)
(0.0345293 -0.00843436 0)
(0.0381139 -0.00606199 0)
(0.037636 0.00121197 0)
(0.0348514 0.00991411 0)
(0.0299347 0.0137234 0)
(0.0219695 0.0205285 0)
(0.0128187 0.0246444 0)
(0.00391535 0.0251302 0)
(-0.00489583 0.0234619 0)
(-0.012802 0.0190117 0)
(-0.0189204 0.013941 0)
(-0.0239348 0.0105234 0)
(-0.0271938 0.00477501 0)
(-0.0273981 -0.00165903 0)
(-0.0255344 -0.0049879 0)
(-0.0237176 -0.00892227 0)
(-0.0221289 -0.0107231 0)
(-0.0147758 -0.0209663 0)
(-0.00421359 -0.0229157 0)
(0.00576562 -0.0272877 0)
(0.0152717 -0.0282531 0)
(0.0227338 -0.0241143 0)
(0.0304497 -0.0181537 0)
(0.0378447 -0.0114167 0)
(0.0420922 -0.00678116 0)
(0.0424024 0.00201028 0)
(0.0406745 0.0112483 0)
(0.0360019 0.0169211 0)
(0.027713 0.0250124 0)
(0.0175066 0.0293085 0)
(0.00585944 0.030178 0)
(-0.0064281 0.0283851 0)
(-0.0166661 0.0226632 0)
(-0.0231265 0.0162341 0)
(-0.0275876 0.0127083 0)
(-0.0303243 0.00542368 0)
(-0.0298753 -0.00242338 0)
(-0.026962 -0.00648116 0)
(-0.024298 -0.0095466 0)
(-0.021822 -0.0120198 0)
(-0.0122231 -0.0276811 0)
(-0.00218174 -0.0259381 0)
(-0.664651 0.28182 0)
(-1.46956 0.0593173 0)
(-1.64973 0.0166666 0)
(-1.67657 -0.00575028 0)
(-1.63051 -0.0141895 0)
(-1.52115 -0.0325208 0)
(-1.36417 -0.0346699 0)
(-1.2549 -0.0125668 0)
(-1.28145 0.0229743 0)
(-1.42855 0.0386488 0)
(-1.5822 0.0257915 0)
(-1.68676 0.0177369 0)
(-1.7568 0.0111682 0)
(-1.79724 0.00519466 0)
(-1.80945 -0.000713168 0)
(-1.78138 -0.0117683 0)
(-1.64065 -0.0484914 0)
(-1.2734 -0.107791 0)
(-0.509904 -0.217229 0)
(-0.475085 0.765331 0)
(-1.00927 0.143164 0)
(-1.09934 0.0459883 0)
(-1.10031 -0.0245195 0)
(-1.03861 -0.0420319 0)
(-0.946901 -0.0906747 0)
(-0.848589 -0.0860959 0)
(-0.859806 -0.00469227 0)
(-1.00872 0.0877334 0)
(-1.19362 0.113095 0)
(-1.3347 0.0745481 0)
(-1.42464 0.0493851 0)
(-1.48137 0.0312799 0)
(-1.51525 0.0146709 0)
(-1.52595 -0.00229108 0)
(-1.49419 -0.0372358 0)
(-1.32239 -0.157157 0)
(-0.966755 -0.307037 0)
(-0.375963 -0.594713 0)
(-0.248395 1.07237 0)
(-0.538295 0.184341 0)
(-0.737484 0.124665 0)
(-0.833316 -0.0646776 0)
(-0.67424 -0.0974596 0)
(-0.415755 -0.18505 0)
(-0.0826099 -0.176036 0)
(0.0817712 0.0184617 0)
(-0.070202 0.189474 0)
(-0.354745 0.207005 0)
(-0.652688 0.163127 0)
(-0.978876 0.133377 0)
(-1.28545 0.0974566 0)
(-1.48937 0.0452888 0)
(-1.55244 -0.0056501 0)
(-1.48513 -0.0799366 0)
(-1.2529 -0.289608 0)
(-0.82859 -0.50817 0)
(-0.285901 -0.877008 0)
(0.0137266 1.17136 0)
(-0.177484 0.287164 0)
(-0.622626 0.295418 0)
(-0.952184 -0.0545934 0)
(-0.811931 -0.237841 0)
(-0.350824 -0.35288 0)
(0.0482534 -0.32058 0)
(0.405269 -0.0594696 0)
(0.799744 0.161967 0)
(1.10476 0.221996 0)
(1.16817 0.243369 0)
(1.02319 0.248374 0)
(0.726709 0.233347 0)
(0.307875 0.168319 0)
(-0.306007 0.153295 0)
(-0.861834 -0.0369344 0)
(-1.08855 -0.340448 0)
(-0.813286 -0.75893 0)
(-0.242013 -1.10242 0)
(0.0214364 1.15517 0)
(-0.301858 0.518973 0)
(-0.496995 0.33576 0)
(-0.284527 -0.0449345 0)
(-0.220758 -0.337589 0)
(0.0101713 -0.550564 0)
(0.322581 -0.427142 0)
(0.537535 -0.196512 0)
(0.829624 0.00664717 0)
(1.1105 0.127221 0)
(1.2994 0.229131 0)
(1.43169 0.265337 0)
(1.56514 0.28176 0)
(1.63338 0.263824 0)
(1.62261 0.317709 0)
(1.16226 0.224999 0)
(-0.0634773 0.00942284 0)
(-0.608758 -0.999363 0)
(-0.18917 -1.28682 0)
(0.0862347 1.10837 0)
(-0.233709 0.836419 0)
(-0.369015 0.155387 0)
(0.138735 -0.174101 0)
(0.346939 -0.327332 0)
(0.371165 -0.672121 0)
(0.482133 -0.487096 0)
(0.66316 -0.305217 0)
(0.910691 -0.114203 0)
(1.11671 0.040911 0)
(1.25237 0.177194 0)
(1.36137 0.214063 0)
(1.46192 0.231956 0)
(1.52533 0.254554 0)
(1.56268 0.311191 0)
(1.34886 0.512623 0)
(0.463862 0.613584 0)
(-0.238924 -1.0786 0)
(-0.14511 -1.43056 0)
(0.0399031 1.0531 0)
(-0.0253746 1.05203 0)
(-0.011977 -0.0119575 0)
(0.270348 -0.346176 0)
(0.545233 -0.363898 0)
(0.59862 -0.670917 0)
(0.579938 -0.528482 0)
(0.70672 -0.394836 0)
(0.893644 -0.209442 0)
(1.07051 -0.0270324 0)
(1.20092 0.131317 0)
(1.30407 0.168967 0)
(1.39975 0.192879 0)
(1.46682 0.236955 0)
(1.48546 0.302391 0)
(1.48114 0.609562 0)
(0.950028 1.11343 0)
(0.118873 -0.932261 0)
(-0.0911797 -1.5329 0)
(0.0191818 1.02596 0)
(0.331288 0.970252 0)
(0.728883 -0.108883 0)
(0.73057 -0.373546 0)
(0.631131 -0.414239 0)
(0.602879 -0.633371 0)
(0.608575 -0.561067 0)
(0.720595 -0.463854 0)
(0.879018 -0.287855 0)
(1.03552 -0.0921313 0)
(1.16184 0.0845155 0)
(1.27183 0.122067 0)
(1.3768 0.151471 0)
(1.44336 0.218826 0)
(1.45378 0.305143 0)
(1.40064 0.626999 0)
(0.997912 1.4882 0)
(0.287024 -0.657049 0)
(-0.03341 -1.58729 0)
(0.00671312 -0.0368168 0)
(0.0177437 -0.0344141 0)
(0.0264427 -0.0303269 0)
(0.0353128 -0.0245962 0)
(0.0435938 -0.0168694 0)
(0.0490282 -0.00885439 0)
(0.0513761 0.00153919 0)
(0.0508274 0.0130625 0)
(0.0447594 0.0233982 0)
(0.0336192 0.0336417 0)
(0.0200586 0.0391314 0)
(0.00597527 0.0400164 0)
(-0.00603097 0.0364227 0)
(-0.0147101 0.0281885 0)
(-0.0209167 0.0200012 0)
(-0.0274967 0.0176639 0)
(-0.0333183 0.00761338 0)
(-0.0327687 -0.00537779 0)
(-0.0265174 -0.0111875 0)
(-0.0207556 -0.0118911 0)
(-0.0166897 -0.0149327 0)
(-0.0211777 -0.0247931 0)
(-0.043307 -0.0113269 0)
(-0.0279671 -0.0155346 0)
(-0.0790301 -0.0156174 0)
(-0.130369 -0.00641676 0)
(-0.169186 -0.0183265 0)
(-0.152896 -0.0477495 0)
(-0.0979523 -0.0387847 0)
(-0.0492444 -0.019951 0)
(-0.0156735 0.00129466 0)
(0.00365659 0.0218201 0)
(0.0112505 0.0388138 0)
(0.0103894 0.0485046 0)
(0.00609833 0.0491355 0)
(0.00206325 0.0434169 0)
(-0.0044 0.0364025 0)
(-0.0164027 0.030088 0)
(-0.0319858 0.0298558 0)
(-0.0432266 0.0125728 0)
(-0.0438048 -0.0103084 0)
(-0.0375363 -0.018842 0)
(-0.0329133 -0.0146756 0)
(-0.0282658 -0.0209071 0)
(-0.0350734 -0.00746419 0)
(-0.0566849 0.0153132 0)
(-0.00588468 0.0184406 0)
(-0.0176171 0.0134242 0)
(-0.0288345 0.0273183 0)
(-0.0397702 -0.00193294 0)
(-0.0536653 -0.0664382 0)
(-0.0745015 -0.054496 0)
(-0.104339 -0.0233235 0)
(-0.138417 0.00508521 0)
(-0.153825 0.0140458 0)
(-0.144435 0.0295341 0)
(-0.137628 0.0518819 0)
(-0.133285 0.0458353 0)
(-0.11884 0.0364146 0)
(-0.100504 0.0316337 0)
(-0.0800824 0.0265008 0)
(-0.0568665 0.025791 0)
(-0.030729 0.00164388 0)
(-0.0112558 -0.0183902 0)
(-0.00640367 -0.0219436 0)
(-0.00612873 -0.0164985 0)
(-0.00114959 -0.0287618 0)
(0.00912846 -0.00309855 0)
(0.0268291 0.0148787 0)
(0.00411606 0.0201669 0)
(0.00991641 0.0175578 0)
(0.0203819 0.0238369 0)
(0.0266214 0.00616532 0)
(-0.00425126 -0.0296395 0)
(-0.0608533 -0.0135576 0)
(-0.110565 0.0155953 0)
(-0.152111 0.0420781 0)
(-0.191512 0.0320514 0)
(-0.224464 0.0351396 0)
(-0.255665 0.0707682 0)
(-0.301731 0.0689528 0)
(-0.333376 0.030739 0)
(-0.311086 -0.00333852 0)
(-0.261126 -0.00908522 0)
(-0.231373 0.00825201 0)
(-0.213775 -0.0247575 0)
(-0.161428 -0.0642574 0)
(-0.0849907 -0.0579623 0)
(-0.0204217 -0.0458724 0)
(0.0297631 -0.0550379 0)
(0.0606384 -0.0183134 0)
(0.073207 -0.000370347 0)
(-0.00969676 0.0257254 0)
(-0.0281023 0.0245676 0)
(-0.0461289 0.0243246 0)
(-0.0645266 0.017796 0)
(-0.081672 0.0068946 0)
(-0.0956548 0.0207567 0)
(-0.102582 0.0381093 0)
(-0.103848 0.0624925 0)
(-0.115768 0.0631184 0)
(-0.141916 0.0633721 0)
(-0.163911 0.0958999 0)
(-0.202134 0.128449 0)
(-0.268922 0.0701116 0)
(-0.334037 0.000290803 0)
(-0.401652 0.0050487 0)
(-0.489757 0.0528274 0)
(-0.559337 -0.0170869 0)
(-0.569206 -0.114759 0)
(-0.542411 -0.111477 0)
(-0.459853 -0.140513 0)
(-0.306915 -0.164788 0)
(-0.155441 -0.0920664 0)
(-0.0360405 -0.0595125 0)
(-0.00247711 0.0379118 0)
(-0.00882709 0.0371638 0)
(-0.0169275 0.0378893 0)
(-0.0296125 0.0353735 0)
(-0.053137 0.0300959 0)
(-0.0837672 0.0422969 0)
(-0.113348 0.0531621 0)
(-0.136862 0.0722425 0)
(-0.150767 0.0792209 0)
(-0.160217 0.0829431 0)
(-0.162007 0.100126 0)
(-0.151292 0.151761 0)
(-0.155247 0.117797 0)
(-0.200319 0.0632473 0)
(-0.278437 0.0884596 0)
(-0.363511 0.143389 0)
(-0.450029 0.0491502 0)
(-0.581364 -0.0392019 0)
(-0.775786 -0.0186794 0)
(-0.967306 -0.123907 0)
(-1.08968 -0.212208 0)
(-1.10814 -0.178519 0)
(-1.00319 -0.19887 0)
(-0.00771087 0.0481022 0)
(-0.0229813 0.0486051 0)
(-0.0378644 0.0494496 0)
(-0.0523015 0.0509745 0)
(-0.0659526 0.0517616 0)
(-0.0777279 0.0631542 0)
(-0.087256 0.0715128 0)
(-0.0957778 0.0859883 0)
(-0.107429 0.0910583 0)
(-0.12718 0.100349 0)
(-0.150537 0.107886 0)
(-0.163179 0.145824 0)
(-0.168103 0.132544 0)
(-0.184719 0.11039 0)
(-0.212389 0.147533 0)
(-0.236755 0.194199 0)
(-0.286394 0.135077 0)
(-0.406284 0.127268 0)
(-0.603818 0.208711 0)
(-0.911489 0.150348 0)
(-1.33597 0.0630904 0)
(-1.78471 0.0156691 0)
(-2.16257 -0.118896 0)
(-0.0042267 0.0600517 0)
(-0.0132399 0.0609651 0)
(-0.0233042 0.062066 0)
(-0.0351562 0.0646828 0)
(-0.0501364 0.0667318 0)
(-0.0666754 0.0765429 0)
(-0.0828396 0.0838464 0)
(-0.0979032 0.0972579 0)
(-0.110929 0.104488 0)
(-0.123368 0.119169 0)
(-0.137432 0.126572 0)
(-0.149889 0.152255 0)
(-0.168869 0.150026 0)
(-0.206234 0.147052 0)
(-0.246662 0.179202 0)
(-0.277471 0.217869 0)
(-0.319159 0.20308 0)
(-0.38252 0.243338 0)
(-0.450655 0.359557 0)
(-0.560645 0.419196 0)
(-0.791331 0.452679 0)
(-1.18229 0.470028 0)
(-1.6763 0.303012 0)
(-0.00558647 0.0698661 0)
(-0.0165643 0.0711461 0)
(-0.0273347 0.0727281 0)
(-0.0379057 0.07646 0)
(-0.0481656 0.080225 0)
(-0.0577753 0.0892327 0)
(-0.0667371 0.0963106 0)
(-0.0759067 0.109049 0)
(-0.086651 0.116484 0)
(-0.100025 0.133014 0)
(-0.116356 0.143171 0)
(-0.13311 0.164907 0)
(-0.15135 0.174674 0)
(-0.176952 0.185583 0)
(-0.20773 0.21213 0)
(-0.242216 0.250454 0)
(-0.296308 0.266648 0)
(-0.371057 0.318469 0)
(-0.441695 0.423787 0)
(-0.513574 0.537643 0)
(-0.619423 0.67238 0)
(-0.79112 0.815783 0)
(-1.0347 0.698565 0)
(-0.00395315 0.0794061 0)
(-0.0119738 0.0806047 0)
(-0.0205095 0.0825769 0)
(-0.0297566 0.086433 0)
(-0.0399339 0.0906956 0)
(-0.050623 0.0990656 0)
(-0.0612153 0.106032 0)
(-0.0716016 0.118883 0)
(-0.0817849 0.127583 0)
(-0.0917998 0.14532 0)
(-0.103076 0.158508 0)
(-0.1163 0.179595 0)
(-0.13314 0.195137 0)
(-0.156915 0.214638 0)
(-0.185512 0.242641 0)
(-0.215274 0.284404 0)
(-0.251639 0.323503 0)
(-0.299641 0.384878 0)
(-0.352628 0.481518 0)
(-0.406199 0.605881 0)
(-0.472941 0.777496 0)
(-0.57553 0.986248 0)
(-0.764475 0.962753 0)
(-0.00382226 0.0871732 0)
(-0.0114155 0.0884351 0)
(-0.018929 0.0907815 0)
(-0.0262882 0.0948229 0)
(-0.0334359 0.0996222 0)
(-0.0403841 0.107769 0)
(-0.0471799 0.114707 0)
(-0.0541583 0.127561 0)
(-0.0618474 0.136767 0)
(-0.0700732 0.154367 0)
(-0.0788826 0.169544 0)
(-0.0885436 0.191454 0)
(-0.100374 0.211988 0)
(-0.116135 0.237416 0)
(-0.135989 0.268451 0)
(-0.159137 0.311661 0)
(-0.186578 0.360263 0)
(-0.21916 0.428997 0)
(-0.252328 0.523877 0)
(-0.281095 0.64616 0)
(-0.301989 0.825177 0)
(-0.325759 1.06545 0)
(-0.428974 1.1771 0)
(-0.00294404 0.0939266 0)
(-0.00885156 0.0951564 0)
(-0.0149019 0.0975981 0)
(-0.0211049 0.101542 0)
(-0.0274515 0.10637 0)
(-0.0338806 0.114369 0)
(-0.0401902 0.12118 0)
(-0.0462962 0.134139 0)
(-0.0524061 0.143957 0)
(-0.0582637 0.16123 0)
(-0.0639303 0.177128 0)
(-0.0697135 0.199288 0)
(-0.0761171 0.222374 0)
(-0.0844104 0.251098 0)
(-0.0948799 0.285138 0)
(-0.106652 0.32996 0)
(-0.11941 0.382255 0)
(-0.132768 0.453064 0)
(-0.142164 0.542472 0)
(-0.143409 0.657607 0)
(-0.122768 0.813856 0)
(-0.0663426 1.04382 0)
(-0.0100783 1.2458 0)
(-0.00226376 0.0991141 0)
(-0.00671947 0.100291 0)
(-0.0110559 0.102809 0)
(-0.0152669 0.106704 0)
(-0.0192636 0.111509 0)
(-0.0231179 0.11947 0)
(-0.0268188 0.126044 0)
(-0.0303495 0.138863 0)
(-0.0338771 0.148821 0)
(-0.0372851 0.165578 0)
(-0.0405256 0.18163 0)
(-0.0435085 0.203493 0)
(-0.0461257 0.22713 0)
(-0.0484759 0.256932 0)
(-0.0503287 0.291579 0)
(-0.0512536 0.336168 0)
(-0.0504483 0.387946 0)
(-0.0463127 0.456525 0)
(-0.0358186 0.537786 0)
(-0.0139754 0.641465 0)
(0.0304716 0.764445 0)
(0.121258 0.945126 0)
(0.277904 1.13035 0)
(-0.00169149 0.103043 0)
(-0.00502909 0.104103 0)
(-0.00833413 0.106586 0)
(-0.0116123 0.110362 0)
(-0.0146939 0.114872 0)
(-0.0175495 0.122757 0)
(-0.0200244 0.128869 0)
(-0.0220011 0.141477 0)
(-0.0234871 0.151148 0)
(-0.0242771 0.167371 0)
(-0.024315 0.183031 0)
(-0.0235357 0.204204 0)
(-0.0217756 0.227176 0)
(-0.0188482 0.256199 0)
(-0.0142697 0.289463 0)
(-0.00702389 0.331819 0)
(0.00426606 0.380023 0)
(0.0221945 0.442154 0)
(0.0506392 0.512899 0)
(0.0949288 0.599756 0)
(0.161179 0.694759 0)
(0.266533 0.817525 0)
(0.430291 0.93575 0)
(-0.000929097 0.105632 0)
(-0.0027189 0.106577 0)
(-0.00441326 0.109045 0)
(-0.00600196 0.112702 0)
(-0.00728426 0.116826 0)
(-0.00826548 0.124566 0)
(-0.00878749 0.129978 0)
(-0.00869393 0.142166 0)
(-0.00779079 0.150948 0)
(-0.00601017 0.166478 0)
(-0.00315791 0.180996 0)
(0.00107559 0.201099 0)
(0.00690416 0.22255 0)
(0.0148262 0.249814 0)
(0.0253732 0.280537 0)
(0.0396608 0.318992 0)
(0.0588716 0.36208 0)
(0.084993 0.415704 0)
(0.120833 0.474614 0)
(0.170338 0.543639 0)
(0.23824 0.615906 0)
(0.332902 0.695198 0)
(0.460989 0.764588 0)
(-0.000459242 0.106983 0)
(-0.00130695 0.107788 0)
(-0.00202574 0.11017 0)
(-0.00260261 0.113663 0)
(-0.00281874 0.11728 0)
(-0.00260201 0.12479 0)
(-0.00175873 0.129339 0)
(-0.000138134 0.140988 0)
(0.00252223 0.14845 0)
(0.00639257 0.1632 0)
(0.0117514 0.175923 0)
(0.0189025 0.194629 0)
(0.0281748 0.213739 0)
(0.0401636 0.238508 0)
(0.0553617 0.265859 0)
(0.0750509 0.299409 0)
(0.100289 0.336875 0)
(0.133202 0.381458 0)
(0.175812 0.429889 0)
(0.23056 0.483454 0)
(0.299589 0.538331 0)
(0.386026 0.590611 0)
(0.490087 0.635696 0)
(0.000197933 0.107202 0)
(0.000672898 0.107856 0)
(0.00129634 0.11011 0)
(0.00208361 0.113424 0)
(0.0032483 0.116477 0)
(0.00496924 0.123555 0)
(0.00746553 0.127127 0)
(0.0108783 0.13805 0)
(0.0155355 0.14394 0)
(0.0215707 0.157659 0)
(0.0294675 0.168044 0)
(0.0395479 0.185091 0)
(0.0521729 0.201169 0)
(0.0679364 0.223082 0)
(0.0872975 0.246445 0)
(0.111389 0.274712 0)
(0.140835 0.306499 0)
(0.17724 0.342048 0)
(0.221704 0.381662 0)
(0.275938 0.422022 0)
(0.341274 0.464585 0)
(0.418975 0.499249 0)
(0.507518 0.533334 0)
(0.000520009 0.106437 0)
(0.00165567 0.106916 0)
(0.00299108 0.108995 0)
(0.00459805 0.112046 0)
(0.00667467 0.11451 0)
(0.00943615 0.120929 0)
(0.0130569 0.123516 0)
(0.0177172 0.133457 0)
(0.0237736 0.137674 0)
(0.0313999 0.150102 0)
(0.0410911 0.15783 0)
(0.053172 0.172934 0)
(0.0681902 0.185443 0)
(0.0866464 0.204314 0)
(0.109016 0.223166 0)
(0.136333 0.246214 0)
(0.169086 0.272372 0)
(0.208503 0.299853 0)
(0.255035 0.332281 0)
(0.309455 0.362075 0)
(0.371782 0.396093 0)
(0.441636 0.419305 0)
(0.516518 0.448887 0)
(0.000830734 0.105038 0)
(0.00257157 0.10534 0)
(0.00456563 0.107141 0)
(0.00696198 0.109793 0)
(0.0099285 0.11161 0)
(0.0137762 0.117101 0)
(0.018622 0.118748 0)
(0.0247045 0.12734 0)
(0.0324044 0.129876 0)
(0.0418752 0.140626 0)
(0.0536213 0.145668 0)
(0.067904 0.158505 0)
(0.0852969 0.1672 0)
(0.106166 0.182932 0)
(0.131085 0.196916 0)
(0.160848 0.21499 0)
(0.195733 0.235505 0)
(0.236621 0.255896 0)
(0.283783 0.281955 0)
(0.337707 0.303389 0)
(0.398234 0.331179 0)
(0.464677 0.347103 0)
(0.535106 0.374911 0)
(0.000712747 0.103446 0)
(0.00214383 0.103663 0)
(0.00389276 0.104974 0)
(0.00624831 0.107101 0)
(0.0092912 0.108179 0)
(0.0134249 0.112426 0)
(0.0187841 0.113081 0)
(0.0257113 0.119846 0)
(0.0345296 0.120681 0)
(0.0453882 0.129299 0)
(0.0587252 0.131694 0)
(0.0748601 0.141815 0)
(0.09434 0.146736 0)
(0.117379 0.159168 0)
(0.144749 0.168026 0)
(0.1768 0.18165 0)
(0.213811 0.196477 0)
(0.256414 0.2109 0)
(0.30445 0.231158 0)
(0.358051 0.246 0)
(0.416707 0.268661 0)
(0.479345 0.279764 0)
(0.544556 0.305798 0)
(0.00053796 0.10215 0)
(0.00154231 0.102433 0)
(0.00291873 0.102984 0)
(0.00506551 0.104486 0)
(0.0079865 0.104719 0)
(0.012125 0.107491 0)
(0.0176525 0.106993 0)
(0.0249808 0.111523 0)
(0.0343807 0.110609 0)
(0.0460948 0.116598 0)
(0.0605456 0.116378 0)
(0.0780338 0.123247 0)
(0.0990513 0.124509 0)
(0.123863 0.133208 0)
(0.153256 0.136839 0)
(0.187222 0.146386 0)
(0.226302 0.155161 0)
(0.270827 0.16454 0)
(0.320434 0.17927 0)
(0.375283 0.188775 0)
(0.43476 0.207039 0)
(0.497815 0.214938 0)
(0.563191 0.239254 0)
(-0.000337247 0.10191 0)
(-0.0010657 0.10232 0)
(-0.00135613 0.10193 0)
(-0.000776182 0.102723 0)
(0.000779513 0.101906 0)
(0.00384015 0.102991 0)
(0.00859701 0.101077 0)
(0.0154958 0.103059 0)
(0.024867 0.100124 0)
(0.0370566 0.102974 0)
(0.0524927 0.0998778 0)
(0.0714567 0.103022 0)
(0.0942895 0.100571 0)
(0.121346 0.104922 0)
(0.153229 0.103442 0)
(0.189774 0.108816 0)
(0.231666 0.111247 0)
(0.278743 0.116285 0)
(0.330681 0.125357 0)
(0.387608 0.130235 0)
(0.448578 0.144409 0)
(0.512289 0.150044 0)
(0.577643 0.172638 0)
(-0.00101116 0.103229 0)
(-0.00301754 0.103677 0)
(-0.00460529 0.102388 0)
(-0.00544248 0.102451 0)
(-0.00534832 0.100446 0)
(-0.00383323 0.0997767 0)
(-0.000668386 0.0962534 0)
(0.00463321 0.0955435 0)
(0.0124316 0.0903045 0)
(0.0231321 0.0897072 0)
(0.0372535 0.0833548 0)
(0.0552501 0.0823124 0)
(0.0775909 0.0757913 0)
(0.104817 0.0750546 0)
(0.137407 0.0684173 0)
(0.175402 0.0688292 0)
(0.219573 0.0646359 0)
(0.269469 0.0653307 0)
(0.325182 0.0680098 0)
(0.386662 0.0684678 0)
(0.452441 0.0786752 0)
(0.521135 0.0825895 0)
(0.591759 0.103311 0)
(-0.002468 0.106692 0)
(-0.00728574 0.107004 0)
(-0.0116754 0.104999 0)
(-0.0153271 0.104282 0)
(-0.0179358 0.101072 0)
(-0.0190907 0.0987174 0)
(-0.0184744 0.09344 0)
(-0.0155183 0.0899838 0)
(-0.00975818 0.0821617 0)
(-0.000621089 0.0778348 0)
(0.0124691 0.0677987 0)
(0.0299752 0.0621044 0)
(0.0524427 0.05088 0)
(0.0804803 0.0443355 0)
(0.114453 0.0321462 0)
(0.154616 0.0264538 0)
(0.201492 0.0154073 0)
(0.254567 0.0109672 0)
(0.31444 0.00609969 0)
(0.380726 0.00185806 0)
(0.451839 0.00759138 0)
(0.526658 0.00932288 0)
(0.60424 0.0275078 0)
(-0.00337656 0.112533 0)
(-0.00999157 0.112588 0)
(-0.0162958 0.110098 0)
(-0.0220438 0.108564 0)
(-0.0268891 0.104215 0)
(-0.0305013 0.100299 0)
(-0.0325602 0.0932401 0)
(-0.0325513 0.087134 0)
(-0.0300271 0.0766138 0)
(-0.0243703 0.0684407 0)
(-0.014972 0.0545152 0)
(-0.0012812 0.0439554 0)
(0.0173832 0.0276087 0)
(0.0417618 0.0148422 0)
(0.0725456 -0.00353105 0)
(0.110543 -0.0165144 0)
(0.156419 -0.0349395 0)
(0.210212 -0.0461909 0)
(0.272795 -0.0599188 0)
(0.343239 -0.0696496 0)
(0.420229 -0.0698596 0)
(0.503321 -0.0720465 0)
(0.591365 -0.0576992 0)
(-0.00491392 0.120835 0)
(-0.0146143 0.120623 0)
(-0.0240679 0.117839 0)
(-0.0330453 0.115561 0)
(-0.0412046 0.110226 0)
(-0.048239 0.104925 0)
(-0.0537841 0.0961923 0)
(-0.0573229 0.0876642 0)
(-0.0583662 0.0745282 0)
(-0.0561885 0.0625834 0)
(-0.0500401 0.0446764 0)
(-0.0390808 0.0289462 0)
(-0.022404 0.00702202 0)
(0.000619308 -0.0122916 0)
(0.0305061 -0.0374569 0)
(0.067983 -0.0585305 0)
(0.11374 -0.0851092 0)
(0.168394 -0.10511 0)
(0.232777 -0.128706 0)
(0.305998 -0.145356 0)
(0.388057 -0.154112 0)
(0.479319 -0.163138 0)
(0.577958 -0.154347 0)
(-0.00593214 0.131707 0)
(-0.0177063 0.131276 0)
(-0.0293172 0.1283 0)
(-0.0405651 0.125371 0)
(-0.0511456 0.119193 0)
(-0.060789 0.112661 0)
(-0.0691558 0.102378 0)
(-0.0757971 0.0916492 0)
(-0.0802736 0.0760286 0)
(-0.0819694 0.0605346 0)
(-0.0802765 0.0387782 0)
(-0.0744241 0.0178791 0)
(-0.063503 -0.00971956 0)
(-0.0465571 -0.0357955 0)
(-0.0226409 -0.0681056 0)
(0.00934304 -0.0977751 0)
(0.0506225 -0.133426 0)
(0.102335 -0.163787 0)
(0.165385 -0.198201 0)
(0.239522 -0.224062 0)
(0.325558 -0.244455 0)
(0.423664 -0.263228 0)
(0.531226 -0.261614 0)
(-0.00736346 0.145044 0)
(-0.0220358 0.144467 0)
(-0.0366266 0.14139 0)
(-0.0510042 0.137982 0)
(-0.0649285 0.131156 0)
(-0.0781617 0.123636 0)
(-0.0903613 0.112019 0)
(-0.101078 0.099398 0)
(-0.109862 0.0815499 0)
(-0.116071 0.0628988 0)
(-0.119024 0.0376193 0)
(-0.117846 0.0119085 0)
(-0.111569 -0.0210992 0)
(-0.0989323 -0.0542172 0)
(-0.0783652 -0.0944644 0)
(-0.0485651 -0.133589 0)
(-0.00869298 -0.179254 0)
(0.0422099 -0.221178 0)
(0.105416 -0.267796 0)
(0.181689 -0.305734 0)
(0.272099 -0.340223 0)
(0.376527 -0.371124 0)
(0.492688 -0.378684 0)
(-0.00834217 0.160804 0)
(-0.0250079 0.160154 0)
(-0.0416578 0.157053 0)
(-0.0582038 0.15335 0)
(-0.0744475 0.146059 0)
(-0.0902023 0.137817 0)
(-0.1052 0.125121 0)
(-0.119102 0.110986 0)
(-0.131515 0.0912129 0)
(-0.141832 0.0697918 0)
(-0.149434 0.0412781 0)
(-0.153535 0.0111296 0)
(-0.153273 -0.0269525 0)
(-0.147605 -0.0668239 0)
(-0.135347 -0.114916 0)
(-0.114871 -0.163739 0)
(-0.0842116 -0.220067 0)
(-0.0412042 -0.27483 0)
(0.0158329 -0.33508 0)
(0.0883265 -0.388059 0)
(0.178076 -0.439066 0)
(0.285124 -0.484932 0)
(0.408006 -0.505237 0)
(-0.00957962 0.178794 0)
(-0.0287688 0.178156 0)
(-0.0480646 0.175134 0)
(-0.0674721 0.171359 0)
(-0.0869043 0.163861 0)
(-0.106264 0.155262 0)
(-0.125346 0.141882 0)
(-0.143854 0.126753 0)
(-0.161394 0.105502 0)
(-0.177424 0.0819351 0)
(-0.191338 0.0507086 0)
(-0.202254 0.0167408 0)
(-0.209148 -0.0259534 0)
(-0.210771 -0.0719446 0)
(-0.205661 -0.127311 0)
(-0.19159 -0.18613 0)
(-0.166403 -0.253874 0)
(-0.128625 -0.322291 0)
(-0.0773852 -0.396523 0)
(-0.0122706 -0.465006 0)
(0.0682098 -0.533301 0)
(0.168184 -0.598862 0)
(0.29243 -0.639786 0)
(-0.0104092 0.198864 0)
(-0.0312942 0.198323 0)
(-0.0523726 0.195505 0)
(-0.0737169 0.191906 0)
(-0.0953272 0.184525 0)
(-0.117212 0.176012 0)
(-0.139256 0.162424 0)
(-0.161315 0.146942 0)
(-0.18314 0.124835 0)
(-0.204347 0.0999845 0)
(-0.224385 0.0667387 0)
(-0.242486 0.0298295 0)
(-0.257805 -0.0167648 0)
(-0.26928 -0.0680195 0)
(-0.275581 -0.13009 0)
(-0.275656 -0.197474 0)
(-0.268836 -0.274758 0)
(-0.254305 -0.354044 0)
(-0.232691 -0.438061 0)
(-0.199983 -0.521858 0)
(-0.143192 -0.614492 0)
(-0.05118 -0.710712 0)
(0.0785715 -0.783314 0)
(-0.0114939 0.22086 0)
(-0.0345863 0.220491 0)
(-0.0579978 0.218016 0)
(-0.0819216 0.214856 0)
(-0.106491 0.207952 0)
(-0.13185 0.200031 0)
(-0.158035 0.186842 0)
(-0.185074 0.171833 0)
(-0.212875 0.149784 0)
(-0.241181 0.124762 0)
(-0.26961 0.0906351 0)
(-0.297645 0.0522636 0)
(-0.324439 0.00308769 0)
(-0.348837 -0.0518612 0)
(-0.369703 -0.118987 0)
(-0.386104 -0.192066 0)
(-0.398746 -0.274365 0)
(-0.411783 -0.355991 0)
(-0.42405 -0.445561 0)
(-0.413393 -0.557995 0)
(-0.353442 -0.695754 0)
(-0.243889 -0.83212 0)
(-0.0974804 -0.939567 0)
(-0.0119318 0.244389 0)
(-0.0359605 0.24429 0)
(-0.0604856 0.242365 0)
(-0.0858546 0.240018 0)
(-0.112388 0.23412 0)
(-0.140386 0.227458 0)
(-0.170045 0.215511 0)
(-0.201514 0.201938 0)
(-0.234833 0.181078 0)
(-0.269972 0.157203 0)
(-0.306811 0.123761 0)
(-0.345064 0.0857288 0)
(-0.38431 0.035965 0)
(-0.424469 -0.0198889 0)
(-0.46621 -0.0880685 0)
(-0.512239 -0.160275 0)
(-0.56729 -0.238154 0)
(-0.625348 -0.320777 0)
(-0.652909 -0.440781 0)
(-0.614154 -0.612489 0)
(-0.514759 -0.801493 0)
(-0.384116 -0.96789 0)
(-0.236815 -1.0991 0)
(-0.012872 0.269305 0)
(-0.0388308 0.269588 0)
(-0.0654363 0.268429 0)
(-0.0931002 0.267228 0)
(-0.12219 0.262788 0)
(-0.153099 0.257968 0)
(-0.1862 0.248053 0)
(-0.221895 0.236875 0)
(-0.260607 0.218511 0)
(-0.302816 0.197484 0)
(-0.348927 0.166826 0)
(-0.399145 0.131557 0)
(-0.453721 0.0844095 0)
(-0.513164 0.0317501 0)
(-0.578908 -0.0317011 0)
(-0.65359 -0.0953427 0)
(-0.735856 -0.165089 0)
(-0.799311 -0.271729 0)
(-0.796098 -0.465394 0)
(-0.719656 -0.703729 0)
(-0.610994 -0.919455 0)
(-0.495205 -1.0977 0)
(-0.371667 -1.24159 0)
(-0.0124951 0.294788 0)
(-0.0377642 0.295568 0)
(-0.0639034 0.295438 0)
(-0.0915662 0.295803 0)
(-0.121444 0.293456 0)
(-0.154269 0.291334 0)
(-0.190764 0.284615 0)
(-0.231615 0.277228 0)
(-0.27739 0.263053 0)
(-0.328503 0.246719 0)
(-0.38536 0.221063 0)
(-0.448533 0.191269 0)
(-0.518844 0.150203 0)
(-0.598538 0.105784 0)
(-0.69218 0.0544484 0)
(-0.801307 0.00324419 0)
(-0.902887 -0.0788964 0)
(-0.940817 -0.25604 0)
(-0.894547 -0.53087 0)
(-0.812612 -0.79751 0)
(-0.730314 -1.01768 0)
(-0.641593 -1.2051 0)
(-0.538079 -1.36248 0)
(-0.0133261 0.320731 0)
(-0.0403191 0.322133 0)
(-0.0683343 0.323282 0)
(-0.0980099 0.325569 0)
(-0.129973 0.325827 0)
(-0.164932 0.327074 0)
(-0.203647 0.324451 0)
(-0.246895 0.321901 0)
(-0.295423 0.313146 0)
(-0.350078 0.302918 0)
(-0.412179 0.284414 0)
(-0.483771 0.263357 0)
(-0.567356 0.232785 0)
(-0.665846 0.202287 0)
(-0.779831 0.16663 0)
(-0.899664 0.121198 0)
(-0.987953 -0.00601222 0)
(-1.00043 -0.278292 0)
(-0.954919 -0.600926 0)
(-0.898102 -0.866977 0)
(-0.834594 -1.09482 0)
(-0.755732 -1.29645 0)
(-0.660566 -1.47088 0)
(-0.0116223 0.345798 0)
(-0.035239 0.347917 0)
(-0.060017 0.350544 0)
(-0.0868679 0.355105 0)
(-0.116756 0.358441 0)
(-0.150701 0.363699 0)
(-0.189932 0.366154 0)
(-0.235988 0.369943 0)
(-0.290689 0.368848 0)
(-0.355954 0.367738 0)
(-0.433599 0.360045 0)
(-0.525211 0.351757 0)
(-0.631941 0.335669 0)
(-0.754364 0.321445 0)
(-0.888888 0.29726 0)
(-1.01435 0.23713 0)
(-1.07991 0.0326879 0)
(-1.06746 -0.317009 0)
(-1.02408 -0.651605 0)
(-0.976638 -0.921134 0)
(-0.917313 -1.16416 0)
(-0.84582 -1.37828 0)
(-0.763155 -1.56785 0)
(-0.0122449 0.369779 0)
(-0.03718 0.37272 0)
(-0.0633163 0.3769 0)
(-0.0913421 0.383892 0)
(-0.122273 0.39077 0)
(-0.157361 0.400743 0)
(-0.197943 0.409318 0)
(-0.245542 0.420904 0)
(-0.301934 0.42954 0)
(-0.368984 0.440031 0)
(-0.448266 0.445478 0)
(-0.541587 0.452202 0)
(-0.652745 0.45423 0)
(-0.784435 0.458307 0)
(-0.927397 0.439326 0)
(-1.04809 0.342496 0)
(-1.09946 0.044836 0)
(-1.08767 -0.35356 0)
(-1.05614 -0.690399 0)
(-1.01457 -0.971831 0)
(-0.962037 -1.22592 0)
(-0.901142 -1.44962 0)
(-0.830389 -1.65076 0)
(-0.00925505 0.391383 0)
(-0.0281902 0.395199 0)
(-0.0485038 0.401097 0)
(-0.0710987 0.410563 0)
(-0.0968345 0.421044 0)
(-0.126901 0.435948 0)
(-0.162853 0.451029 0)
(-0.206602 0.471002 0)
(-0.260685 0.490476 0)
(-0.328435 0.514582 0)
(-0.413953 0.536571 0)