/*--------------------------------*- C++ -*----------------------------------*\
| =========                 |                                                 |
| \\      /  F ield         | OpenFOAM: The Open Source CFD Toolbox           |
|  \\    /   O peration     | Version:  2012                                  |
|   \\  /    A nd           | Website:  www.openfoam.com                      |
|    \\/     M anipulation  |                                                 |
\*---------------------------------------------------------------------------*/
FoamFile
{
    version     2.0;
    format      ascii;
    class       volScalarField;
    location    "0.64";
    object      volumeFraction1;
}
// * * * * * * * * * * * * * * * * * * * * * * * * * * * * * * * * * * * * * //

dimensions      [0 0 0 0 0 0 0];


internalField   nonuniform List<scalar> 
2268
(
1
1
1
1
1
1
1
1
1
1
1
1
1
1
1
1
1
1
1
1
1
1
0.999791
1
1
1
1
1
1
1
1
1
1
1
1
1
1
1
1
1
1
1
1
1
0.999997
0.999712
1
1
1
1
1
1
1
1
1
1
1
1
1
1
1
1
1
1
1
1
1
0.999998
0.999712
1
1
1
1
1
1
1
1
1
1
1
1
1
1
1
1
1
1
1
1
1
0.999998
0.999712
1
1
1
1
1
1
1
1
1
1
1
1
1
1
1
1
1
1
1
1
1
0.999999
0.999876
1
1
1
1
1
1
1
1
1
1
1
1
1
1
1
1
1
1
1
1
1
1
1
0.999986
0.999987
0.999994
0.999998
0.999999
1
1
1
1
1
1
1
1
1
1
1
1
1
1
1
1
1
1
0.971912
0.974171
0.982528
0.990796
0.994482
0.99615
0.998085
1
1
1
1
1
1
1
1
1
1
1
1
1
1
1
1
0.714505
0.714498
0.766917
0.810534
0.810528
0.743064
0.623782
0.776573
0.780415
0.780415
0.780415
0.780414
0.778237
0.784483
0.819223
0.830317
0.830316
0.830321
0.8157
0.58156
0.256302
0.548574
0.766333
0.810534
0.691373
0.623852
0.641472
0.780415
0.70638
0.658331
0.664475
0.689801
0.689088
0.678611
0.692213
0.7812
0.830568
0.830568
0.570251
0.0181472
0.0685185
0.223432
0.586888
0.832781
0.942277
0.701974
0.135955
0.135776
0.153803
0.200375
0.160523
0.138061
0.133561
0.172751
0.313062
0.663762
0.830592
0.577923
0.0181471
-3.9501e-21
2.82159e-20
0.0205621
0.465148
0.942277
0.960169
0.739305
0.479973
0.334965
0.0872535
0.00101602
0.00098238
0.0016639
0.000587264
0.00776701
0.279197
0.830592
0.499805
0.0150054
-2.92063e-26
1.37437e-07
5.87705e-09
0.254872
0.887942
0.997624
0.994707
0.974518
0.909976
0.707914
0.336984
0.0378547
0.000587264
0.000587264
0.00305205
0.0984256
0.830343
0.0625296
0.0108466
7.77474e-26
9.57557e-07
5.28345e-09
0.520963
0.971503
0.997624
0.996769
0.991786
0.991786
0.991787
0.945198
0.677502
0.177901
0.00938876
0.000933602
0.0493134
0.6577
0.349283
0.0162626
0.000764244
2.4293e-06
5.87705e-09
0.709582
0.991078
0.997745
0.970528
0.80354
0.758725
0.79084
0.858383
0.858384
0.435167
0.0119499
1.63385e-07
0.0238312
0.595791
0.435061
0.0314781
0.00192502
2.4293e-06
0.210188
0.884168
0.997478
0.997745
0.700083
0.337814
0.167203
0.167787
0.233218
0.330919
0.256372
0.0342342
1.64473e-07
0.0106263
0.687916
0.452575
0.463885
0.492777
0.538175
0.599412
0.657348
0.732442
0.810841
0.889958
0.960957
0.999421
1
1
1
1
1
1
1
1
1
1
1
1
4.45346e-39
4.66148e-39
-1.56027e-38
-2.19043e-22
0.00485929
0.0272368
0.0603542
0.107768
0.185481
0.296242
0.447181
0.633896
0.806211
0.955521
1
1
1
0.999994
1
1
1
1
1
2.12037e-19
9.81085e-18
2.29578e-16
2.43761e-15
1.06092e-30
4.33602e-31
9.62892e-31
5.7797e-23
0.000458409
0.00390506
0.0170028
0.0596661
0.149765
0.297989
0.523193
0.703434
0.816674
0.969874
0.996079
0.998423
0.998657
0.999939
1
5.30666e-18
2.55851e-16
8.01203e-15
1.53125e-13
2.07412e-12
8.24219e-12
2.51297e-11
1.67127e-09
6.61011e-08
1.82926e-06
3.60707e-05
0.000441221
0.00310075
0.0134763
0.0437493
0.111429
0.156518
0.261957
0.425873
0.568472
0.70743
0.887714
0.958702
3.88383e-17
1.91212e-15
4.61452e-14
6.41909e-13
5.36047e-12
2.06e-11
3.23129e-11
6.60382e-11
9.10523e-11
1.8505e-09
3.14993e-08
1.56525e-07
2.71933e-07
1.12078e-22
3.72969e-21
0.000143827
1.1971e-12
1.1971e-12
1.1971e-12
1.1971e-12
0.0244908
0.113626
0.182413
1.52151e-17
9.20586e-16
2.71004e-14
4.75052e-13
4.83953e-12
2.41397e-11
5.19187e-11
8.02156e-11
8.02921e-11
1.41517e-09
2.70731e-07
7.13477e-07
9.53671e-07
2.10388e-06
1.04536e-06
2.65369e-07
2.07785e-08
1.1971e-12
1.1971e-12
3.08834e-09
1.1971e-12
1.1971e-12
1.1971e-12
1.52454e-17
7.77359e-16
1.92104e-14
2.98353e-13
3.07213e-12
1.56049e-11
3.04585e-11
1.27927e-10
2.77633e-10
5.51152e-10
1.43066e-07
1.71069e-06
2.10388e-06
2.10388e-06
6.17279e-07
1.06604e-08
1.06714e-08
1.21313e-08
3.65525e-07
5.99622e-07
9.37939e-08
1.1971e-12
4.19699e-10
5.80501e-18
2.97823e-16
7.60104e-15
1.24023e-13
1.38217e-12
8.06019e-12
2.45307e-11
1.87086e-10
8.66153e-10
5.35429e-09
6.58996e-08
4.27602e-07
7.59932e-07
2.4115e-07
3.33457e-08
1.67771e-08
1.9842e-08
1.78692e-08
2.63639e-07
5.99691e-07
2.89244e-07
1.1971e-12
4.63979e-11
2.07771e-18
9.89264e-17
2.42114e-15
3.70178e-14
4.21984e-13
2.80098e-12
9.37242e-12
1.36133e-10
1.06429e-09
4.77777e-09
9.23233e-09
2.26624e-09
1.4129e-09
1.17274e-09
1.03132e-09
1.28808e-08
3.17269e-08
3.17614e-08
5.01062e-08
1.56627e-07
1.51737e-07
1.40342e-08
4.64062e-11
6.68058e-19
3.12466e-17
7.67415e-16
1.14465e-14
1.27918e-13
1.04476e-12
6.95954e-12
1.11111e-10
8.67346e-10
2.4631e-09
1.30275e-09
2.64922e-10
1.38149e-10
2.26496e-10
4.93749e-10
3.78846e-09
2.10893e-08
2.80374e-08
8.79372e-09
1.22772e-09
5.62097e-08
7.33591e-07
6.72236e-07
1.79015e-19
7.91081e-18
1.89833e-16
2.68915e-15
2.82521e-14
2.60087e-13
2.11463e-12
4.30984e-11
2.48744e-10
4.24006e-10
3.13958e-10
1.91088e-10
1.3815e-10
2.5932e-10
4.53257e-10
8.42315e-10
3.57898e-09
8.05319e-09
3.09e-09
4.71977e-10
9.62643e-09
7.93351e-07
1.39918e-06
4.37299e-20
1.86701e-18
4.44692e-17
6.19573e-16
6.2707e-15
5.73053e-14
5.41496e-13
1.02562e-11
4.53553e-11
6.59551e-11
7.22462e-11
7.2242e-11
8.85593e-11
1.67697e-10
3.27921e-10
4.17567e-10
5.68645e-10
9.7032e-10
8.82068e-10
4.71975e-10
1.8991e-09
3.04025e-07
1.3983e-06
8.58483e-21
3.45824e-19
8.148e-18
1.12073e-16
1.11361e-15
9.67482e-15
9.51682e-14
1.66325e-12
6.75085e-12
1.16314e-11
1.65299e-11
1.89278e-11
2.51174e-11
4.37042e-11
1.09961e-10
1.78947e-10
2.36315e-10
3.00063e-10
3.29701e-10
3.60025e-10
4.86889e-10
2.26672e-08
5.01034e-07
1.46431e-21
5.70973e-20
1.34113e-18
1.85015e-17
1.86589e-16
1.61817e-15
1.86012e-14
2.27486e-13
8.94353e-13
1.94378e-12
3.19786e-12
3.94462e-12
5.2984e-12
8.59746e-12
2.11161e-11
4.63934e-11
8.27239e-11
1.29765e-10
1.79135e-10
2.16179e-10
2.79751e-10
1.64554e-09
8.43491e-09
2.01449e-22
7.55773e-21
1.77846e-19
2.47956e-18
2.57447e-17
2.22824e-16
3.11533e-15
2.55128e-14
9.79113e-14
2.4696e-13
4.51815e-13
6.0958e-13
8.75243e-13
1.43807e-12
3.4315e-12
8.70498e-12
1.99666e-11
3.99318e-11
7.20768e-11
1.02864e-10
1.36659e-10
2.60146e-10
2.32528e-10
2.27469e-23
8.37251e-22
1.99287e-20
2.84554e-19
3.07772e-18
2.68819e-17
4.2801e-16
2.56907e-15
9.01532e-15
2.3436e-14
4.58943e-14
6.91642e-14
1.11095e-13
2.01019e-13
4.9329e-13
1.3401e-12
3.62299e-12
8.69561e-12
1.9329e-11
3.29737e-11
4.87277e-11
7.33634e-11
8.25461e-11
2.03611e-24
7.42242e-23
1.80654e-21
2.67323e-20
3.02836e-19
2.66446e-18
4.29265e-17
2.29043e-16
7.27298e-16
1.78082e-15
3.55495e-15
5.99754e-15
1.10433e-14
2.32074e-14
6.18879e-14
1.76446e-13
5.23269e-13
1.4143e-12
3.66608e-12
7.32006e-12
1.24414e-11
1.87921e-11
2.5839e-11
1.4296e-25
5.27622e-24
1.33224e-22
2.06995e-21
2.45753e-20
2.20438e-19
3.13112e-18
1.65368e-17
4.98814e-17
1.15143e-16
2.26003e-16
4.22428e-16
8.95524e-16
2.22901e-15
6.61557e-15
1.98853e-14
6.218e-14
1.80228e-13
5.21119e-13
1.18663e-12
2.32531e-12
3.86423e-12
6.10258e-12
7.69936e-27
2.93022e-25
7.77978e-24
1.27819e-22
1.58097e-21
1.44484e-20
1.69566e-19
9.09781e-19
2.69566e-18
6.19976e-18
1.20233e-17
2.4845e-17
5.9969e-17
1.75236e-16
5.75481e-16
1.83985e-15
6.00958e-15
1.82079e-14
5.69446e-14
1.44593e-13
3.24917e-13
6.09918e-13
1.08087e-12
3.12908e-28
1.2499e-26
3.52736e-25
6.14563e-24
7.8633e-23
7.29458e-22
7.05661e-21
3.80531e-20
1.11417e-19
2.67183e-19
5.24615e-19
1.2118e-18
3.26757e-18
1.09663e-17
3.90312e-17
1.3354e-16
4.58534e-16
1.44595e-15
4.81899e-15
1.34105e-14
3.43146e-14
7.30862e-14
1.45968e-13
9.66418e-30
4.07994e-28
1.21993e-26
2.24194e-25
2.94048e-24
2.764e-23
2.27507e-22
1.21821e-21
3.51413e-21
8.99944e-21
1.82944e-20
4.76255e-20
1.39665e-19
5.23886e-19
1.96579e-18
7.2263e-18
2.62699e-17
8.69704e-17
3.09408e-16
9.35605e-16
2.71814e-15
6.57357e-15
1.51481e-14
2.34863e-31
1.04318e-29
3.22931e-28
6.17068e-27
8.21525e-26
7.83985e-25
5.70408e-24
3.01815e-23
8.55102e-23
2.36061e-22
5.02161e-22
1.46311e-21
4.49073e-21
1.82376e-20
6.97449e-20
2.75593e-19
1.05718e-18
3.72191e-18
1.42963e-17
4.69173e-17
1.55512e-16
4.28477e-16
1.16343e-15
4.80871e-33
2.21027e-31
6.89289e-30
1.34695e-28
1.79416e-27
1.72314e-26
1.13386e-25
5.89234e-25
1.63199e-24
4.83308e-24
1.06449e-23
3.36145e-23
1.02315e-22
4.32007e-22
1.6098e-21
6.78924e-21
2.69e-20
1.02024e-19
4.28599e-19
1.53321e-18
5.91535e-18
1.88331e-17
6.21822e-17
8.94035e-35
4.17676e-33
1.27432e-31
2.49109e-30
3.26689e-29
3.1111e-28
1.87408e-27
9.41126e-27
2.52991e-26
7.85124e-26
1.72082e-25
5.53303e-25
1.5445e-24
6.34155e-24
2.12179e-23
9.1363e-23
3.49377e-22
1.53716e-21
1.16714e-20
9.83039e-20
4.41833e-19
1.12987e-18
2.17323e-18
1.56689e-36
7.30917e-35
2.1352e-33
4.08834e-32
5.18736e-31
4.81107e-30
2.66382e-29
1.2689e-28
3.24904e-28
1.00253e-27
2.02848e-27
6.05245e-27
1.36908e-26
5.18354e-26
6.26108e-25
4.3833e-23
3.59456e-21
1.25804e-19
3.45514e-18
3.73176e-17
2.07327e-16
5.0332e-16
4.3513e-16
2.62053e-38
1.21122e-36
3.35441e-35
6.18973e-34
7.47972e-33
6.63076e-32
3.37081e-31
1.49316e-30
3.53598e-30
1.01514e-29
2.03497e-29
2.31525e-28
1.17589e-26
1.33787e-24
1.77123e-22
1.10445e-20
5.42117e-19
1.49781e-17
2.98882e-16
2.53734e-15
1.25195e-14
2.67069e-14
2.63758e-14
4.17417e-40
1.90645e-38
5.00394e-37
8.82762e-36
1.0051e-34
8.38588e-34
3.89998e-33
1.93575e-32
3.53429e-31
2.32766e-29
1.47006e-27
8.54097e-26
5.79321e-24
4.51506e-22
2.65812e-20
1.0846e-18
3.64089e-17
7.92713e-16
1.1701e-14
7.49559e-14
2.90381e-13
4.88023e-13
4.73642e-13
6.28085e-42
2.87285e-40
7.13042e-39
1.25562e-37
2.4643e-36
1.7831e-34
1.86862e-32
1.69887e-30
1.28247e-28
8.14605e-27
4.49347e-25
2.28525e-23
1.24819e-21
6.42729e-20
2.49971e-18
6.98406e-17
1.60018e-15
2.61981e-14
2.76319e-13
1.25183e-12
3.41461e-12
4.30636e-12
3.97684e-12
2.18327e-43
1.94153e-41
5.93422e-39
1.40729e-36
2.45768e-34
3.24569e-32
3.35927e-30
2.79845e-28
1.9183e-26
1.10369e-24
5.48797e-23
2.47232e-21
1.10918e-19
4.41241e-18
1.336e-16
3.00699e-15
5.14815e-14
6.04396e-13
4.35174e-12
1.27328e-11
2.03589e-11
2.37692e-11
1.91319e-11
6.71431e-42
4.71382e-39
1.59014e-36
3.40866e-34
5.19848e-32
5.98669e-30
5.40216e-28
3.9178e-26
2.3301e-24
1.15651e-22
4.89361e-21
1.81784e-19
6.25441e-18
1.92027e-16
4.62046e-15
8.44342e-14
1.15157e-12
1.02363e-11
4.87648e-11
1.13575e-10
6.32081e-10
3.8421e-09
1.75826e-09
6.84701e-40
4.50853e-37
1.42236e-34
2.84794e-32
4.04914e-30
4.33576e-28
3.62348e-26
2.42189e-24
1.31824e-22
5.93215e-21
2.24211e-19
7.24989e-18
2.06577e-16
5.2547e-15
1.05283e-13
1.60562e-12
1.81338e-11
1.32734e-10
1.07547e-09
1.75874e-08
2.66639e-07
1.2185e-06
1.65201e-06
9.64279e-38
5.56747e-35
1.53992e-32
2.70507e-30
3.37737e-28
3.17866e-26
2.33609e-24
1.37197e-22
6.5434e-21
2.56481e-19
8.35145e-18
2.27872e-16
5.26591e-15
1.04427e-13
1.70237e-12
2.17675e-11
2.33919e-10
3.06462e-09
6.15854e-08
1.06331e-06
3.63168e-06
4.15089e-06
3.314e-06
3.56503e-36
1.99705e-33
5.33289e-31
8.99472e-29
1.07112e-26
9.5418e-25
6.58303e-23
3.5959e-21
1.57932e-19
5.63373e-18
1.64435e-16
3.93665e-15
7.72818e-14
1.23361e-12
1.58966e-11
1.74054e-10
3.82902e-09
8.74885e-08
1.65552e-06
4.54887e-06
4.54639e-06
3.27122e-06
1.606e-07
1.7531e-34
8.65079e-32
2.02232e-29
2.96369e-27
3.04241e-25
2.31679e-23
1.35367e-21
6.19178e-20
2.24528e-18
6.48926e-17
1.49663e-15
2.73902e-14
3.93925e-13
4.35124e-12
3.66831e-11
7.11575e-10
6.44157e-08
1.79989e-06
4.55122e-06
4.54667e-06
1.77487e-06
1.32231e-11
1.32235e-11
1.38903e-33
6.91217e-31
1.612e-28
2.32233e-26
2.2983e-24
1.64602e-22
8.78049e-21
3.54217e-19
1.08994e-17
2.56285e-16
4.5961e-15
6.21706e-14
6.2208e-13
4.50829e-12
2.86104e-11
5.17931e-09
9.09517e-07
4.3849e-06
4.54667e-06
1.20279e-06
3.00457e-11
8.16089e-11
4.28555e-10
1.78511e-32
7.64823e-30
1.5345e-27
1.90154e-25
1.61092e-23
9.80778e-22
4.41587e-20
1.49169e-18
3.8107e-17
7.37466e-16
1.08109e-14
1.19511e-13
9.93069e-13
6.21257e-12
3.60627e-11
6.34227e-09
1.84182e-06
4.36343e-06
1.24871e-06
1.99842e-11
4.22799e-11
2.06968e-10
5.82289e-10
2.64545e-32
1.27788e-29
2.86029e-27
3.89208e-25
3.57079e-23
2.31914e-21
1.09222e-19
3.76618e-18
9.52205e-17
1.75668e-15
2.35757e-14
2.3299e-13
1.8277e-12
1.37887e-11
1.01999e-09
3.26363e-07
1.44522e-06
5.65408e-07
8.87023e-12
1.99826e-11
7.40237e-11
2.23848e-10
5.31923e-10
1.51353e-31
6.79764e-29
1.40943e-26
1.77904e-24
1.52219e-22
9.31938e-21
4.32221e-19
1.5849e-17
4.59074e-16
1.05098e-14
1.89408e-13
2.66395e-12
2.96332e-11
5.21593e-10
3.62488e-08
2.49344e-07
1.84205e-07
3.24622e-12
8.86981e-12
2.61081e-11
5.51422e-11
1.29484e-10
2.118e-10
1.01761e-31
3.07747e-29
8.13874e-27
1.35023e-24
1.55593e-22
1.30338e-20
8.09421e-19
3.7536e-17
1.31073e-15
3.41548e-14
6.54308e-13
8.99066e-12
8.82271e-11
1.52656e-09
6.19185e-08
1.59189e-07
2.38444e-08
3.24621e-12
1.72761e-11
1.54091e-11
1.64705e-11
3.43609e-11
4.13261e-11
1.26341e-31
7.77296e-29
2.31876e-26
4.29131e-24
5.41426e-22
4.86122e-20
3.15513e-18
1.48566e-16
5.05649e-15
1.22668e-13
2.07741e-12
2.49748e-11
2.68168e-10
5.77683e-09
4.42211e-08
4.67434e-08
1.85217e-09
3.24622e-12
2.982e-11
5.06268e-12
3.3918e-12
5.0497e-12
4.7028e-12
2.27342e-32
1.57131e-29
5.25888e-27
1.11135e-24
1.6393e-22
1.76505e-20
1.41122e-18
8.40573e-17
3.6978e-15
1.18086e-13
2.71192e-12
4.33214e-11
5.04834e-10
4.97206e-09
1.19363e-08
3.22452e-09
4.53589e-10
3.21256e-10
2.4439e-11
6.68884e-13
3.25642e-13
3.52286e-13
1.64676e-13
3.54251e-33
3.06916e-30
1.29057e-27
3.41369e-25
6.2473e-23
8.22639e-21
7.89155e-19
5.50075e-17
2.75181e-15
9.70549e-14
2.3215e-12
3.63631e-11
3.77664e-10
2.71392e-09
7.86691e-09
1.11002e-08
6.89993e-09
-1.72256e-35
-1.73583e-33
1.77384e-15
1.74648e-15
5.58647e-16
5.27606e-17
1
0.999805
0.917818
0.436346
1
0.999978
0.994789
0.814711
1
1
0.999949
0.996322
1
1
1
1
0.295712
0.331478
0.417455
0.444294
1.1971e-12
1.1971e-12
0.0024895
0.00832633
6.95044e-05
0.000746029
0.00115678
0.000587632
4.64062e-11
8.60069e-06
0.00619312
0.0138673
2.1077e-10
7.28235e-08
3.6918e-05
0.0212605
2.10785e-10
5.63602e-09
1.39537e-06
0.000618117
1.64436e-07
4.48015e-08
6.12497e-06
0.000290642
1.16451e-06
5.25284e-06
0.000101572
0.000122191
7.41297e-07
2.01511e-08
1.96274e-05
3.92778e-05
4.21393e-08
1.75285e-08
4.56606e-07
1.42507e-09
2.4746e-10
3.2151e-09
1.42665e-09
1.42666e-09
6.66465e-11
1.50683e-10
4.9546e-12
2.06045e-08
2.44307e-11
1.71242e-11
4.95405e-12
1.54948e-08
6.4491e-12
4.71704e-12
2.20275e-11
1.22997e-09
1.30516e-12
1.49609e-12
1.44483e-11
6.64523e-11
2.01359e-13
2.74942e-13
1.84004e-12
5.3953e-12
2.3085e-14
3.37435e-14
1.36896e-13
3.67651e-13
1.93551e-15
2.94858e-15
8.00505e-15
1.91659e-14
1.12843e-16
1.80251e-16
3.86077e-16
8.54713e-16
3.95942e-18
6.73781e-18
1.33958e-17
2.92045e-17
3.47001e-16
2.72948e-16
2.40338e-16
2.44896e-16
2.60763e-14
3.01718e-14
4.34486e-14
8.6988e-14
5.67483e-13
9.09351e-13
2.03467e-12
5.29155e-12
7.90114e-12
1.62602e-11
7.80394e-11
2.17222e-10
5.52663e-10
1.17202e-09
1.27497e-08
1.86767e-08
1.60089e-07
2.23278e-07
2.09685e-07
1.27143e-07
1.18857e-06
5.66287e-07
1.92146e-07
9.56989e-08
5.98141e-07
8.85068e-08
1.55685e-08
1.72206e-08
4.84919e-11
4.80177e-11
4.84919e-11
4.80177e-11
6.32279e-10
1.01886e-09
1.44133e-09
1.1397e-09
1.20294e-09
1.7503e-09
2.13398e-09
2.25982e-09
1.15859e-09
1.69239e-09
2.12119e-09
2.48294e-09
8.52056e-10
9.08592e-10
9.41563e-10
1.16029e-09
2.30111e-10
2.17243e-10
2.39838e-10
3.83338e-10
3.69139e-11
3.45507e-11
5.04708e-11
8.61666e-11
2.65038e-12
1.30035e-12
1.00938e-12
2.57143e-12
2.62771e-14
7.07942e-14
5.20225e-13
3.16229e-12
-1.05086e-29
-1.86438e-29
-3.23309e-29
-5.47948e-29
0.217881
0.0314764
0.0454399
0.185114
0.669651
0.9905
0.997478
0.639387
0.163083
0.0153775
0.00396642
0.00176108
0.00250235
0.00586602
0.0147475
0.0113272
0.000379676
2.52654e-16
0.687887
0.368296
0.399977
0.761786
1
1
1
0.690934
0.0864327
7.0965e-09
7.0965e-09
7.0965e-09
5.03979e-05
0.000114557
0.000102814
0.000243676
0.00159992
4.5043e-05
2.52682e-16
0.670892
0.939489
0.980645
0.999891
0.999979
0.999903
1
0.192705
1.99007e-06
1.99008e-06
1.79681e-08
1.62957e-05
6.41249e-05
6.73158e-08
4.29615e-07
1.42886e-06
2.05461e-06
1.8764e-06
2.52654e-16
0.691885
1
1
0.998876
0.986932
0.997194
0.721645
0.0146619
0.0001149
1.48354e-05
9.11361e-06
5.5466e-06
7.41349e-06
1.15901e-10
2.68938e-10
4.35992e-10
4.19286e-10
5.89647e-10
2.52681e-16
0.766401
0.644045
0.709661
0.788476
0.739146
0.885944
0.174516
2.70678e-16
1.61125e-05
2.48658e-05
1.44254e-10
1.4289e-10
1.91267e-09
1.15915e-10
1.41856e-10
1.27621e-10
5.6247e-11
2.52645e-16
0.0128072
0.817798
0.0411186
0.0913964
0.282128
0.60402
0.616519
0.00643809
2.69586e-16
1.60447e-05
2.48747e-05
4.10073e-06
6.37972e-11
1.17274e-10
3.60255e-10
4.44239e-10
3.49907e-10
2.52645e-16
2.52656e-16
0.0660996
0.856812
0.000587609
0.00731515
0.177251
0.542248
0.399142
2.69786e-16
3.43339e-07
1.38637e-05
2.20219e-05
8.15936e-07
6.37972e-11
1.45294e-10
5.51075e-10
1.03088e-09
9.30433e-09
3.60603e-08
2.52645e-16
0.168048
0.897531
0.0118934
0.00731496
0.0582726
0.338438
0.373807
2.70779e-16
6.09781e-08
1.08641e-06
1.8456e-06
6.37972e-11
6.37972e-11
1.19254e-09
7.86198e-08
6.27239e-08
3.41999e-08
1.8797e-07
2.52656e-16
0.274194
0.927684
0.0860114
0.125111
0.0811079
0.172978
0.405345
0.233015
4.35019e-10
4.35037e-10
4.35019e-10
0.00020813
0.000259667
0.000314103
0.00168185
0.00157753
0.00125128
0.000396046
2.52672e-16
0.366705
0.938215
0.102925
0.387999
0.396912
0.238054
0.402949
0.626513
0.196372
4.35019e-10
0.0141153
0.0994287
0.112937
0.111164
0.171875
0.172559
0.145249
0.0575295
0.053254
0.425231
0.938206
0.0132335
0.167992
0.398391
0.576039
0.579369
0.707648
0.695858
0.532043
0.500474
0.624018
0.59111
0.397418
0.373136
0.402242
0.425221
0.328094
0.257826
0.438207
0.796036
2.93404e-06
2.94479e-06
0.0720184
0.497087
0.707561
0.707649
0.707648
0.707649
0.707648
0.707649
0.698213
0.326538
0.326536
0.443072
0.579615
0.624538
0.493222
0.423164
0.705724
2.94479e-06
3.47869e-06
3.84079e-10
3.84079e-10
0.16691
0.499632
0.624792
0.628069
0.603191
0.573716
0.468044
0.429114
0.664865
0.835827
0.93902
0.968272
0.946301
0.772174
0.966456
1.56351e-05
2.15676e-05
1.85569e-06
2.09726e-06
3.84079e-10
3.84079e-10
0.0127103
0.0454275
0.0389149
0.0332232
0.132266
0.34392
0.406463
0.426824
0.617129
0.962198
0.989971
0.989971
0.982497
5.64736e-06
5.90829e-06
2.33332e-06
5.60363e-06
2.24938e-06
3.84079e-10
3.84079e-10
3.84079e-10
3.84079e-10
3.84079e-10
3.84079e-10
3.84079e-10
3.84079e-10
3.84079e-10
0.0253395
0.516669
0.989971
0.98997
0.980308
1.00202e-07
4.0697e-08
1.62981e-11
5.03605e-06
7.84193e-06
3.84079e-10
6.3244e-07
2.27192e-06
6.46577e-07
1.63795e-08
8.2419e-09
1.27731e-07
9.20934e-07
2.24124e-06
2.24112e-06
0.171628
0.953051
0.98997
0.9806
9.09196e-09
1.02171e-09
1.62989e-11
2.73297e-08
1.39545e-05
1.44181e-05
1.89029e-05
3.63506e-05
2.22831e-05
1.63828e-08
4.00571e-08
8.08246e-08
2.19805e-06
1.66793e-05
0.000901752
0.0282937
0.438519
0.979713
0.980391
5.14518e-10
1.13998e-10
1.98341e-11
1.60034e-11
1.41307e-06
1.39228e-05
4.21158e-05
4.21158e-05
4.21158e-05
3.01854e-06
3.32766e-08
6.62335e-08
3.51945e-06
6.90474e-05
0.000443288
0.00393863
0.0683631
0.457997
0.672753
4.77633e-11
2.19948e-11
1.6283e-11
1.60038e-11
1.60034e-11
3.47491e-06
1.0418e-05
3.77724e-05
3.24831e-05
6.39499e-06
3.32768e-08
2.08368e-07
9.79711e-06
0.000207769
0.000392906
0.000280823
0.000280572
0.00422955
0.036305
4.73344e-12
4.37367e-12
9.93237e-12
1.83308e-11
1.60038e-11
5.41595e-08
2.49154e-07
3.69697e-06
1.3558e-06
2.72752e-07
2.85628e-08
1.46921e-06
2.05631e-05
1.77456e-05
0.000345212
0.00542314
0.0186007
0.0815976
0.0225465
4.41113e-13
7.38581e-13
2.86781e-12
1.42936e-11
1.94997e-11
9.18806e-11
2.40999e-09
2.87455e-09
2.08503e-09
4.77007e-11
4.77109e-11
8.65894e-09
1.45523e-06
4.96663e-06
0.00050444
0.0414359
0.166493
0.231046
0.0558886
3.53116e-14
1.03611e-13
5.93765e-13
4.10293e-12
1.139e-11
1.95825e-11
7.53963e-11
6.61272e-11
5.02345e-11
4.77011e-11
4.77007e-11
6.54555e-11
6.546e-11
1.65268e-06
0.000561411
0.0618649
0.231046
0.231163
0.119788
2.29316e-15
1.13798e-14
9.80909e-14
7.32479e-13
3.09697e-12
8.72526e-12
2.69256e-11
4.60071e-11
4.66303e-11
4.7701e-11
6.62968e-11
5.3025e-11
7.36882e-10
4.37235e-11
0.000823708
0.0391439
0.119996
0.166532
0.119821
1.10381e-16
9.64768e-16
1.27547e-14
1.15219e-13
6.75061e-13
2.8257e-12
9.58698e-12
2.16579e-11
3.39077e-11
4.33681e-11
7.50977e-11
1.16395e-10
1.20648e-10
4.37143e-11
0.0011437
0.00137475
2.62025e-07
2.61977e-07
0.179686
1.03412e-16
7.71999e-17
1.29425e-15
1.57806e-14
1.26108e-13
7.2793e-13
2.94643e-12
8.07792e-12
1.74936e-11
3.31306e-11
9.0111e-11
1.903e-10
7.64015e-11
4.37235e-11
0.00114303
2.62025e-07
2.61977e-07
0.00205251
0.400229
7.99368e-14
1.74013e-14
1.83319e-15
2.38536e-15
2.04172e-14
1.64586e-13
8.39652e-13
2.95176e-12
8.5196e-12
2.44068e-11
1.02044e-10
1.90584e-10
9.18014e-11
4.37143e-11
0.00104409
0.000100315
5.09867e-07
0.00364672
0.400229
6.49258e-12
3.22433e-12
5.42362e-13
6.36671e-14
2.04172e-14
3.82649e-14
2.36324e-13
1.16108e-12
4.56498e-12
1.85538e-11
8.9249e-11
1.86463e-10
1.01711e-10
4.37235e-11
0.000618121
0.000144468
2.25987e-07
0.000116995
0.399961
2.14716e-10
9.87522e-11
2.7956e-11
5.40032e-12
9.42875e-13
1.65989e-13
1.29075e-13
4.59114e-13
2.64048e-12
1.3728e-11
7.77115e-11
1.68102e-10
9.94116e-11
4.37143e-11
0.000404715
0.000136088
7.06834e-08
6.46777e-26
0.366452
5.37762e-09
9.06976e-10
3.79915e-10
1.25456e-10
2.82705e-11
6.45313e-12
1.2967e-12
6.07209e-13
1.45346e-12
8.88346e-12
6.34853e-11
1.46408e-10
9.08816e-11
4.37235e-11
0.000288046
0.000109534
3.86139e-07
7.34415e-27
0.35468
2.21219e-08
2.62782e-09
2.44819e-09
1.72586e-09
5.65633e-10
1.40023e-10
3.72059e-11
9.38966e-12
3.41667e-12
7.19693e-12
4.80373e-11
1.21763e-10
8.65503e-11
4.37143e-11
0.000215663
9.96722e-05
1.67949e-06
9.21138e-23
0.372528
6.24464e-08
2.43432e-08
7.48732e-09
1.76878e-08
1.08935e-08
1.01296e-10
1.18547e-12
1.18579e-12
1.18547e-12
4.26621e-12
3.0301e-11
8.04825e-11
1.272e-10
4.37235e-11
0.000156121
0.000105275
1.0117e-05
2.51423e-05
0.372532
6.76593e-08
6.78014e-08
8.89274e-09
6.29718e-08
1.38216e-07
1.23318e-07
3.61011e-08
2.97834e-09
3.34993e-10
5.98469e-11
3.8591e-11
4.44539e-11
3.27468e-10
4.37143e-11
8.59127e-05
0.000107188
2.63377e-05
0.00249763
0.163438
2.63523e-08
6.77686e-08
8.90776e-09
2.14593e-08
6.70741e-07
3.93639e-07
1.12505e-07
1.60415e-08
7.6451e-10
2.31201e-10
9.8164e-11
4.5621e-11
7.42153e-10
4.37235e-11
1.7551e-05
0.000107432
2.38087e-05
7.87539e-24
9.37615e-21
1.13966e-09
2.9891e-08
1.81819e-08
1.56428e-08
1.56284e-06
1.36934e-05
1.82302e-06
9.59064e-11
9.59093e-11
9.59064e-11
1.0106e-10
6.47171e-11
1.01809e-09
4.37143e-11
2.4614e-06
3.60656e-05
9.2463e-06
-1.2092e-24
0.0208258
2.48845e-09
3.83878e-09
1.99482e-07
2.28117e-08
1.98675e-08
9.59119e-05
0.000190382
7.46549e-05
1.79901e-06
2.89637e-08
1.70071e-10
9.81014e-11
1.17679e-09
4.37235e-11
3.26338e-07
1.70192e-07
-5.54875e-26
-1.28494e-26
0.113623
3.53404e-09
1.5262e-08
3.38718e-07
7.376e-07
1.98676e-08
0.000128249
0.000190382
0.000190382
3.87366e-05
2.18191e-07
1.57908e-10
1.47595e-10
1.53539e-09
1.15968e-09
1.87845e-09
3.28947e-10
2.15674e-07
-4.64974e-26
0.113618
2.49181e-09
1.44019e-08
2.20375e-07
2.23547e-06
2.04914e-06
2.04915e-06
0.000171037
0.000190382
7.64155e-05
1.02784e-06
4.69255e-09
2.36906e-10
1.65192e-09
1.99778e-09
7.01994e-10
3.28947e-10
3.79512e-07
-1.83305e-25
0.113607
7.23421e-10
2.61598e-09
3.22852e-08
1.52352e-06
6.71714e-06
4.35134e-06
9.52299e-05
0.000190382
0.000162914
1.68557e-05
2.93613e-08
2.72662e-10
1.46285e-09
2.00589e-09
8.80824e-10
3.28947e-10
3.80145e-07
-1.78654e-25
0.0860292
9.87336e-11
8.90209e-11
6.3333e-10
1.22301e-06
9.45294e-06
9.5759e-06
7.39179e-06
0.000189256
0.000189256
3.90647e-05
8.34125e-09
2.37872e-10
9.72143e-10
1.66964e-09
7.94617e-10
3.28947e-10
3.24792e-07
2.70346e-25
0.00260782
1.51973e-11
1.00722e-10
3.85888e-09
2.4563e-07
9.13774e-07
3.30259e-06
1.01499e-06
5.48314e-05
0.000122192
2.58815e-05
1.74319e-08
2.37675e-10
6.19361e-10
9.19526e-10
4.37771e-10
3.28947e-10
7.36377e-07
4.25275e-07
3.17394e-07
2.01332e-11
9.26818e-11
1.04069e-10
-4.04663e-27
-8.58849e-27
-1.58892e-25
3.94883e-07
1.16313e-08
2.26643e-06
7.67781e-06
7.08436e-07
3.52506e-10
3.71303e-10
3.96189e-10
3.48758e-10
3.28947e-10
5.16234e-06
2.97309e-06
3.1721e-07
-8.97786e-29
-2.17376e-28
-4.47813e-28
-6.01049e-28
2.96409e-30
2.46614e-28
1.20141e-27
1.16314e-08
1.21463e-08
4.04051e-08
3.08706e-07
2.60464e-08
5.20137e-10
3.28947e-10
3.28947e-10
8.67888e-06
9.92716e-06
8.77427e-08
0.000104736
)
;

boundaryField
{
    leftWall
    {
        type            zeroGradient;
    }
    rightWall
    {
        type            zeroGradient;
    }
    lowerWall
    {
        type            zeroGradient;
    }
    atmosphere
    {
        type            inletOutlet;
        inletValue      uniform 0;
        value           nonuniform List<scalar> 
46
(
3.54251e-33
3.06916e-30
1.29057e-27
3.41369e-25
6.2473e-23
8.22639e-21
7.89155e-19
5.50075e-17
2.75181e-15
9.70549e-14
2.3215e-12
3.63631e-11
3.77664e-10
2.71392e-09
7.86691e-09
1.11002e-08
6.89993e-09
0
0
0
0
0
0
0
0
0
0
0
0
0
0
0
0
0
0
1.21463e-08
4.04051e-08
3.08706e-07
2.60464e-08
5.20137e-10
3.28947e-10
3.28947e-10
8.67888e-06
9.92716e-06
8.77427e-08
0.000104736
)
;
    }
    defaultFaces
    {
        type            empty;
    }
}


// ************************************************************************* //
