/*--------------------------------*- C++ -*----------------------------------*\
| =========                 |                                                 |
| \\      /  F ield         | OpenFOAM: The Open Source CFD Toolbox           |
|  \\    /   O peration     | Version:  2012                                  |
|   \\  /    A nd           | Website:  www.openfoam.com                      |
|    \\/     M anipulation  |                                                 |
\*---------------------------------------------------------------------------*/
FoamFile
{
    version     2.0;
    format      ascii;
    class       volScalarField;
    location    "0.00019";
    object      pcorr;
}
// * * * * * * * * * * * * * * * * * * * * * * * * * * * * * * * * * * * * * //

dimensions      [1 -1 -2 0 0 0 0];


internalField   nonuniform List<scalar> 
5000
(
-0.007861044686
-0.007861073197
-0.007861282652
-0.007861388508
-0.007860029672
-0.00785817707
-0.00785791545
-0.007857219227
-0.007856803021
-0.007856582123
-0.007856596086
-0.007856872301
-0.007855715197
-0.007853005038
-0.007848962289
-0.007844839833
-0.007840410304
-0.007835378229
-0.007829835209
-0.007823696256
-0.007817870792
-0.007812386497
-0.007806748592
-0.007800899567
-0.007795046209
-0.007789043493
-0.007782381837
-0.007775297256
-0.007768146393
-0.007761562396
-0.007755393646
-0.00774948721
-0.007743556839
-0.007737184309
-0.007731062365
-0.007725233027
-0.007719622643
-0.007713950921
-0.007707895416
-0.00770148691
-0.007694834886
-0.007688115903
-0.007681479424
-0.007674526686
-0.007667946502
-0.007660572479
-0.007654571904
-0.007649064663
-0.007643333087
-0.007637676664
-0.007632695325
-0.007627948211
-0.00762376613
-0.007618865631
-0.007613956149
-0.007609361187
-0.007605119227
-0.007601348537
-0.007598005083
-0.007594637306
-0.007591560726
-0.00758829114
-0.007584668822
-0.007580633047
-0.007576118711
-0.007571985571
-0.007567989324
-0.007564411236
-0.007560652176
-0.007556568857
-0.007552364236
-0.007547772639
-0.00754250197
-0.0075378515
-0.007533044221
-0.007528088068
-0.007523109885
-0.007517953721
-0.007511668339
-0.007505591352
-0.007500027261
-0.007494374277
-0.007489712892
-0.00748566553
-0.007481428399
-0.007477061085
-0.007472406913
-0.007467255494
-0.007462215449
-0.007455745731
-0.007449311674
-0.007443212334
-0.00743778785
-0.007432618942
-0.007427957706
-0.007423825675
-0.007420243104
-0.007415802662
-0.007410742467
-0.007404091305
-0.007396583422
-0.007389452659
-0.007382572792
-0.007375840541
-0.007369843293
-0.007363168651
-0.007357567995
-0.007351141514
-0.00734528986
-0.007340094877
-0.007334281462
-0.007328257333
-0.00732267782
-0.00731752047
-0.007312331742
-0.00730629436
-0.007299536737
-0.007293102584
-0.00728728673
-0.007281607148
-0.007275057775
-0.007268530354
-0.007261368817
-0.007253229991
-0.007245494983
-0.007236908031
-0.007227082406
-0.007218042697
-0.007208276892
-0.007198423247
-0.007189722029
-0.007181730741
-0.007174227036
-0.007167209251
-0.007159653912
-0.007152010833
-0.007144095417
-0.00713536905
-0.00712669591
-0.007118296273
-0.007108872916
-0.007098188943
-0.007088153563
-0.007079229611
-0.007071628506
-0.007064578662
-0.007057653528
-0.007050877089
-0.007043995346
-0.007036772914
-0.007029920314
-0.007023146298
-0.007016374711
-0.00700937438
-0.007001484871
-0.006992366228
-0.006981489523
-0.006970597462
-0.006960886966
-0.006951877448
-0.006943624951
-0.006936103533
-0.006928762898
-0.006921248728
-0.00691291265
-0.006904045668
-0.006896020016
-0.006888646118
-0.006880993466
-0.006872027598
-0.006861870144
-0.006852375708
-0.006844228184
-0.006835545991
-0.00682488729
-0.006814013661
-0.0068048218
-0.006796408095
-0.006787092393
-0.006777709458
-0.00676899935
-0.006760413777
-0.006751083241
-0.006741057353
-0.006729958639
-0.006718791568
-0.006709820912
-0.006702153864
-0.006695015331
-0.006687637739
-0.006680206422
-0.006672831832
-0.006665619904
-0.006658473509
-0.006651279285
-0.006643923512
-0.006636095879
-0.006627969411
-0.006619303252
-0.006610012989
-0.006600326545
-0.006590464549
-0.006580369994
-0.006570924243
-0.006562506725
-0.006554757358
-0.006546927374
-0.006539182429
-0.006531439807
-0.006521838752
-0.006511567966
-0.006502597858
-0.006494949486
-0.006487987187
-0.006481046215
-0.006474273463
-0.00646776306
-0.006461280692
-0.006454370382
-0.006446653258
-0.006437778561
-0.006428773287
-0.006419848678
-0.006411477833
-0.006403343945
-0.006395194874
-0.006386967133
-0.006378641571
-0.006370425951
-0.006361406596
-0.006351888404
-0.006343008265
-0.006334835653
-0.006327064513
-0.006319439758
-0.006311707655
-0.006303659978
-0.006295128364
-0.006286960277
-0.006279138179
-0.006271485728
-0.006263597687
-0.006254917875
-0.006246394352
-0.006238173092
-0.006230468226
-0.006222842009
-0.006214842575
-0.006207257001
-0.006199732986
-0.006192245712
-0.006184955197
-0.006177655234
-0.00616967023
-0.006161573238
-0.006153702891
-0.006146445319
-0.00613953736
-0.006132678579
-0.006125882162
-0.006118860321
-0.006111964838
-0.006105071267
-0.006098312366
-0.006091705723
-0.006085022335
-0.006078478149
-0.006072265974
-0.006065337414
-0.006057046121
-0.006048526325
-0.006040644325
-0.006033012936
-0.006024997939
-0.006016887012
-0.006009072981
-0.006000995402
-0.005992568039
-0.005984390233
-0.005976811298
-0.005969579156
-0.005962231765
-0.005954018233
-0.005945501411
-0.00593722409
-0.005929577006
-0.005921626656
-0.005912469382
-0.00590267082
-0.00589344068
-0.00588510922
-0.005877406937
-0.005870111022
-0.005862942267
-0.005855842907
-0.005848281358
-0.005840321349
-0.005831828832
-0.00582308393
-0.005814818314
-0.00580712361
-0.005799789677
-0.005792943855
-0.005786310014
-0.005779552458
-0.005772497686
-0.005764702117
-0.005756143535
-0.00574781589
-0.005739982366
-0.005732398141
-0.005725050301
-0.005717771293
-0.005710173128
-0.005702118765
-0.00569432637
-0.005686927044
-0.005678850897
-0.005670166484
-0.005661898994
-0.005654343016
-0.005647537882
-0.005640498923
-0.005632650978
-0.005623832815
-0.005614861064
-0.005606433578
-0.005597279012
-0.005588436761
-0.005580592534
-0.005572180266
-0.005563678578
-0.005555589161
-0.005547494123
-0.005539259856
-0.005530764631
-0.005522820662
-0.0055150348
-0.005506820162
-0.005498296651
-0.005489601286
-0.005481412951
-0.005473677472
-0.005465970064
-0.005458885969
-0.005452328676
-0.00544584103
-0.005439139178
-0.005431745378
-0.005423557312
-0.005414946374
-0.005406655859
-0.005398597093
-0.005390603919
-0.005383229438
-0.005376157774
-0.005369189521
-0.005362063799
-0.005353881067
-0.005345368594
-0.005337669203
-0.005330706479
-0.005323527881
-0.005316043968
-0.005308460308
-0.005300223669
-0.005292307628
-0.005285027627
-0.005277727862
-0.005270299222
-0.005262319368
-0.005253648906
-0.005244659721
-0.005235825704
-0.00522751275
-0.005219816846
-0.005211809093
-0.005203388644
-0.005194865154
-0.005185684579
-0.005175235729
-0.005164641177
-0.005155345561
-0.005146565961
-0.00513802752
-0.005129435577
-0.005120944788
-0.0051126323
-0.005104749138
-0.005097387228
-0.005090178206
-0.005082146038
-0.005073681878
-0.005065897462
-0.005057460299
-0.005047880278
-0.005038525022
-0.005029291893
-0.005020378532
-0.0050115312
-0.0050028368
-0.004994662442
-0.004986459428
-0.004978516053
-0.004971301687
-0.004963787289
-0.004955976071
-0.004947986818
-0.004939666088
-0.0049319463
-0.004925143243
-0.004918857889
-0.004912296567
-0.004905293809
-0.004897473925
-0.004888310615
-0.004877971761
-0.004868564105
-0.004860603681
-0.004852622521
-0.004842991786
-0.00483172253
-0.004820195863
-0.004810331803
-0.004801875913
-0.004792511632
-0.004782060076
-0.004772866311
-0.004764623301
-0.004756730552
-0.00474902342
-0.004740786325
-0.00473183583
-0.004722547079
-0.004713671339
-0.004705690347
-0.004697882124
-0.004690029763
-0.004681687632
-0.004672685306
-0.004663440944
-0.004654866553
-0.004646924513
-0.004638555679
-0.004629877795
-0.004621308659
-0.004613831405
-0.004607080713
-0.004600254658
-0.004593281062
-0.004585831375
-0.004577080064
-0.004566757103
-0.004556375712
-0.00454698028
-0.004538528295
-0.004531158096
-0.004524298664
-0.004517612221
-0.004510790974
-0.004502765691
-0.004493847902
-0.004484804423
-0.004475107407
-0.004464997177
-0.004455345977
-0.00444686527
-0.004438874604
-0.004430127149
-0.004421336503
-0.004413220475
-0.004405615266
-0.004398323034
-0.004390835448
-0.004383080869
-0.004374992438
-0.004366580517
-0.004358467903
-0.004350810197
-0.004343771397
-0.004336611352
-0.0043290311
-0.004320970741
-0.004312356805
-0.004303763341
-0.004295670089
-0.00428877734
-0.004282218932
-0.004275179186
-0.004268052786
-0.004260774498
-0.004252622886
-0.004244113424
-0.004236183629
-0.004228835911
-0.004221768071
-0.004215036247
-0.004208352124
-0.004201222726
-0.004193512398
-0.00418487567
-0.004176062918
-0.00416715383
-0.004157175057
-0.004147121973
-0.004138420879
-0.004130531001
-0.004122219721
-0.004113185688
-0.004104424273
-0.004096106649
-0.004088306033
-0.004080692292
-0.004072434984
-0.004063576077
-0.004054624551
-0.004046096839
-0.00403851534
-0.004031342604
-0.004024019218
-0.00401666249
-0.004009140801
-0.00400122767
-0.003992163786
-0.003982364252
-0.00397305059
-0.003963907268
-0.003954758651
-0.003945763291
-0.00393648678
-0.003927115777
-0.003918054495
-0.003909590125
-0.003901744376
-0.003894189292
-0.003886154056
-0.003877446449
-0.003868677493
-0.003860776091
-0.003853396443
-0.003845589295
-0.003837626155
-0.003829618394
-0.003821020067
-0.003812301513
-0.003803966949
-0.003796271375
-0.003789226123
-0.00378241528
-0.003775493549
-0.003768250975
-0.003760892421
-0.003752659205
-0.003743683147
-0.00373513143
-0.003727204607
-0.003719459589
-0.003711955413
-0.003704980391
-0.003698170067
-0.003690643308
-0.003682157403
-0.003673119388
-0.003663819819
-0.003654904349
-0.003646783186
-0.003639163513
-0.003631683756
-0.003624029352
-0.003616419941
-0.003609113973
-0.003601370516
-0.00359230075
-0.00358321079
-0.0035750189
-0.003567090558
-0.003559534884
-0.003552031551
-0.003544625033
-0.003536867077
-0.003528289574
-0.003519646877
-0.003512032207
-0.003505019505
-0.003497746011
-0.003490155654
-0.003482575127
-0.003475009966
-0.003466838323
-0.003458467473
-0.003450314432
-0.00344198829
-0.003432662981
-0.003422373253
-0.003412795696
-0.003403852187
-0.003395582213
-0.003387661577
-0.003379570575
-0.0033714492
-0.003362777916
-0.003353797783
-0.003345264607
-0.003337164413
-0.003329594894
-0.003322595182
-0.003315478628
-0.003307426622
-0.00329785683
-0.003287357719
-0.003277029671
-0.003267140009
-0.003257906589
-0.003248706336
-0.003239873288
-0.00323172773
-0.003223194369
-0.003213877768
-0.003203935066
-0.003192871886
-0.003181046203
-0.003169844846
-0.003160262522
-0.003151772603
-0.003143372376
-0.003133718463
-0.003122305235
-0.003110991697
-0.003100895056
-0.003091244774
-0.003082110651
-0.00307342539
-0.003064658374
-0.003055825624
-0.003045705434
-0.003033930644
-0.003022625266
-0.00301303104
-0.003004774488
-0.002996875378
-0.002988941517
-0.002981078202
-0.002973632418
-0.002965802549
-0.002956463056
-0.00294649973
-0.002936362189
-0.002925700143
-0.002915562296
-0.002906720331
-0.002898609196
-0.002890626271
-0.002882641799
-0.002874164879
-0.002865181929
-0.002855957239
-0.002846634998
-0.002837740562
-0.00282983443
-0.002822244709
-0.002813739948
-0.002804436459
-0.002794779155
-0.002784645417
-0.002774638734
-0.002764927472
-0.002755792394
-0.002746937151
-0.002737996942
-0.002729123607
-0.002720325729
-0.002711780994
-0.002702554137
-0.002692833418
-0.002684616256
-0.002677288075
-0.00266921065
-0.002659984533
-0.002650805261
-0.00264214259
-0.002634111023
-0.00262622475
-0.00261786994
-0.002609116161
-0.002600893505
-0.002593101504
-0.002585361386
-0.002577687156
-0.002569389233
-0.002560529434
-0.00255192487
-0.002543839316
-0.00253609798
-0.002528402775
-0.002520591324
-0.002512066057
-0.00250288187
-0.002493998686
-0.002485429925
-0.00247710374
-0.002468989049
-0.00246052414
-0.002452282684
-0.002444933693
-0.002437694567
-0.002429849109
-0.002421367577
-0.002412466059
-0.002403115682
-0.002394260543
-0.002386646549
-0.002379179486
-0.00237162529
-0.002364840688
-0.00235795779
-0.002349484539
-0.002338996118
-0.002328417982
-0.002319406708
-0.002311624569
-0.002304371462
-0.002297158759
-0.00228962447
-0.002282225775
-0.002275126696
-0.002267404935
-0.002258682939
-0.002249441023
-0.002240529232
-0.002232133251
-0.00222433534
-0.002216829959
-0.002209103631
-0.002201035012
-0.002192556188
-0.002183084631
-0.002173897218
-0.002165758759
-0.002157531739
-0.002149642822
-0.002141958039
-0.002133984532
-0.002126053555
-0.002118050975
-0.002109983312
-0.00210144374
-0.002092709831
-0.002084707818
-0.002077062073
-0.002069367409
-0.002061304681
-0.002053368296
-0.002045149979
-0.00203560905
-0.002026031464
-0.002017227423
-0.002009154622
-0.002001947
-0.001994396699
-0.001986292421
-0.001978022234
-0.001969224753
-0.001959603277
-0.001950275548
-0.00194195246
-0.001933954005
-0.001926105125
-0.001918456875
-0.001910704346
-0.001902947053
-0.00189506648
-0.001887099496
-0.001878908671
-0.001869295624
-0.001859197621
-0.001850239024
-0.001841077057
-0.00183088432
-0.00182014069
-0.001810893958
-0.001802901093
-0.001794772942
-0.001786298012
-0.001777478622
-0.001768367243
-0.001759158306
-0.00175045055
-0.001741840035
-0.001733184634
-0.001725179683
-0.001717370279
-0.001709799494
-0.001702561112
-0.001694410067
-0.001685817283
-0.001677089611
-0.00166852467
-0.001660684994
-0.001652500627
-0.001643544777
-0.001635442366
-0.001628063625
-0.001620444623
-0.00161266516
-0.001604653396
-0.001596837302
-0.001589450261
-0.001581668301
-0.001572962195
-0.001563470504
-0.001554415209
-0.001546394751
-0.001538536314
-0.001530821064
-0.001523382035
-0.001515957834
-0.001508331862
-0.00150061215
-0.001493000735
-0.001485204474
-0.001476755507
-0.001467945564
-0.001459383549
-0.00145135203
-0.001443147658
-0.001434440067
-0.001425354692
-0.001416198026
-0.001407317647
-0.001399399132
-0.001392126552
-0.001384696172
-0.001376686804
-0.001367823458
-0.001359149121
-0.001351145417
-0.001343485804
-0.001336135792
-0.001329184175
-0.001321942172
-0.001314108611
-0.001306198594
-0.001298448746
-0.00129024984
-0.001281501992
-0.001272378284
-0.001263440377
-0.001255327614
-0.001247457757
-0.001239704751
-0.001232376738
-0.00122489058
-0.001217639125
-0.001210293343
-0.001201879489
-0.001193241975
-0.001185113072
-0.001177437431
-0.001170058069
-0.001162450285
-0.001154909955
-0.0011481315
-0.001141364809
-0.001133497092
-0.00112504451
-0.001117102438
-0.001108961001
-0.001100735469
-0.001092305055
-0.001083506312
-0.00107551804
-0.001068513113
-0.001061782686
-0.001055058117
-0.001048730668
-0.001042097252
-0.001035592759
-0.001029015894
-0.001021432749
-0.00101401376
-0.001007468771
-0.001001050635
-0.0009949057146
-0.000988968536
-0.000982761408
-0.0009763355222
-0.0009693233988
-0.0009616956265
-0.0009538471764
-0.0009459206017
-0.0009380292003
-0.0009313481175
-0.0009246598602
-0.0009177999066
-0.0009111873771
-0.0009048935223
-0.0008987056848
-0.0008926731215
-0.0008860406066
-0.0008789687232
-0.0008715587661
-0.0008639993687
-0.0008564799804
-0.0008490475627
-0.000841361549
-0.0008337424795
-0.000826512033
-0.0008202442314
-0.0008136934503
-0.0008067739104
-0.0008004499523
-0.000794532246
-0.0007888656648
-0.0007830937479
-0.0007761492432
-0.0007689793012
-0.0007621421595
-0.0007551911525
-0.0007483391661
-0.0007411928512
-0.0007337847408
-0.0007268073538
-0.0007207288632
-0.0007149497883
-0.000708885512
-0.0007026629091
-0.0006967515892
-0.0006906760854
-0.0006844444276
-0.0006781204931
-0.0006710266226
-0.0006626691046
-0.0006543559767
-0.000647144595
-0.0006406889552
-0.0006344088893
-0.0006275281684
-0.0006201457372
-0.0006124703634
-0.0006045368916
-0.0005971360413
-0.0005904275749
-0.0005839619478
-0.0005774580153
-0.000570559735
-0.0005634262207
-0.0005563019377
-0.0005497406098
-0.0005434843084
-0.0005373265578
-0.0005300894204
-0.0005226513804
-0.0005156824008
-0.0005089764783
-0.0005019492524
-0.0004940171673
-0.000484954583
-0.0004758009218
-0.0004669120279
-0.00045898678
-0.0004516991065
-0.000444422521
-0.0004375174983
-0.0004307264903
-0.0004237440751
-0.0004166345508
-0.0004095302137
-0.0004022545149
-0.0003946546101
-0.0003870951654
-0.0003804004808
-0.0003737917774
-0.000366343941
-0.0003581152587
-0.0003493814614
-0.0003412482551
-0.0003347434874
-0.0003290030438
-0.000323026164
-0.0003168646668
-0.0003106600574
-0.0003043594395
-0.000298086264
-0.0002922026834
-0.0002867919534
-0.0002815393389
-0.0002759020179
-0.0002699197856
-0.0002646621335
-0.0002601265574
-0.0002557223229
-0.0002512303177
-0.0002468086994
-0.0002427221079
-0.0002389737513
-0.0002354091496
-0.0002314141052
-0.0002272963976
-0.0002231866279
-0.0002185703416
-0.0002133771986
-0.0002088645675
-0.0002048156352
-0.0002009353191
-0.0001976151518
-0.0001945020988
-0.0001911961997
-0.0001881377058
-0.0001854624525
-0.0001830101559
-0.0001805219738
-0.000178136414
-0.0001758884011
-0.0001738213829
-0.0001720208113
-0.0001703515503
-0.000168757598
-0.0001673700998
-0.000166207989
-0.0001650337442
-0.000163770089
-0.0001624025404
-0.000160978576
-0.0001596440288
-0.0001584350618
-0.0001572528614
-0.0001560782846
-0.0001547340994
-0.0001533223934
-0.0001519560701
-0.0001505965926
-0.0001491337664
-0.0001476306993
-0.0001462268945
-0.0001447210728
-0.000143200244
-0.0001418064102
-0.000140617542
-0.000139348762
-0.0001380444816
-0.0001365559346
-0.0001351836393
-0.000133621228
-0.000131950864
-0.0001300560618
-0.0001282060981
-0.0001259761057
-0.0001235601054
-0.0001207706093
-0.0001178607766
-0.0001152061215
-0.0001128063881
-0.0001105814428
-0.0001086027561
-0.00010674515
-0.0001049359272
-0.0001030990723
-0.0001012522153
-9.934822097e-05
-9.735170564e-05
-9.536219228e-05
-9.35084793e-05
-9.173166314e-05
-8.996293384e-05
-8.820535131e-05
-8.637472676e-05
-8.456181372e-05
-8.266002974e-05
-8.06984641e-05
-7.858973864e-05
-7.642095379e-05
-7.43568706e-05
-7.243663822e-05
-7.04413369e-05
-6.842784183e-05
-6.639990233e-05
-6.417815186e-05
-6.222840828e-05
-6.060530117e-05
-5.896308942e-05
-5.727108444e-05
-5.574907587e-05
-5.41743292e-05
-5.261829473e-05
-5.084225442e-05
-4.912487676e-05
-4.73851471e-05
-4.560557752e-05
-4.349495844e-05
-4.149699482e-05
-3.954112775e-05
-3.798802954e-05
-3.645275552e-05
-3.495073651e-05
-3.339573247e-05
-3.197750521e-05
-3.0398111e-05
-2.867288519e-05
-2.673302882e-05
-2.530799666e-05
-2.412028285e-05
-2.296171829e-05
-2.163552799e-05
-2.012311427e-05
-1.826496731e-05
-1.658939291e-05
-1.490728639e-05
-1.349856318e-05
-1.219164414e-05
-1.092329902e-05
-9.787589898e-06
-8.707806808e-06
-7.582199623e-06
-6.424706213e-06
-5.356228196e-06
-4.378781308e-06
-3.554126961e-06
-2.742591372e-06
-2.06714861e-06
-1.548078646e-06
-9.88413602e-07
-2.4795648e-07
3.618874513e-08
1.350862982e-07
3.549240253e-07
4.390205891e-07
3.039028338e-07
2.372520388e-07
8.035962697e-08
0
0
0
0
0
0
0
0
0
0
0
0
0
0
0
0
0
0
0
0
0
0
0
0
0
0
0
0
0
0
0
0
0
0
0
0
0
0
0
0
0
0
0
0
0
0
0
0
0
0
0
0
0
0
0
0
0
0
0
0
0
0
0
0
0
0
0
0
0
0
0
0
0
0
0
0
0
0
0
0
0
0
0
0
0
0
0
0
0
0
0
0
0
0
0
0
0
0
0
0
0
0
0
0
0
0
0
0
0
0
0
0
0
0
0
0
0
0
0
0
0
0
0
0
0
-8.57401812e-08
-2.525713038e-07
-3.228346318e-07
-5.566004035e-07
-1.052486684e-06
-1.554174188e-06
-1.994274472e-06
-2.534405236e-06
-3.08924423e-06
-3.602227574e-06
-4.130840926e-06
-4.907425858e-06
-5.856383049e-06
-6.823777255e-06
-7.78956225e-06
-8.701182909e-06
-9.510566884e-06
-1.021264051e-05
-1.084003752e-05
-1.170638343e-05
-1.248302195e-05
-1.338679144e-05
-1.433164576e-05
-1.527645769e-05
-1.619268102e-05
-1.693222694e-05
-1.758636451e-05
-1.841242361e-05
-1.896860679e-05
-1.933004718e-05
-1.950527697e-05
-1.972506288e-05
-1.996526921e-05
-2.027119443e-05
-2.047710972e-05
-2.066484231e-05
-2.069254678e-05
-2.075399808e-05
-2.068559404e-05
-2.085361555e-05
-2.088711633e-05
-2.101130769e-05
-2.112635146e-05
-2.137268504e-05
-2.173156349e-05
-2.231954173e-05
-2.264468305e-05
-2.312174862e-05
-2.379176179e-05
-2.449114731e-05
-2.503496761e-05
-2.567654141e-05
-2.653295275e-05
-2.779700336e-05
-2.910796413e-05
-3.062599266e-05
-3.227144446e-05
-3.376390678e-05
-3.506829726e-05
-3.680671581e-05
-3.866521725e-05
-4.028113581e-05
-4.175396795e-05
-4.322837721e-05
-4.473589672e-05
-4.653108148e-05
-4.833582454e-05
-5.030446674e-05
-5.219460775e-05
-5.420032124e-05
-5.647796649e-05
-5.887221253e-05
-6.099704115e-05
-6.298977884e-05
-6.503493723e-05
-6.717219208e-05
-6.912087181e-05
-7.104958615e-05
-7.291608332e-05
-7.523592393e-05
-7.780319703e-05
-8.014752025e-05
-8.235824287e-05
-8.475450847e-05
-8.686110799e-05
-8.901347282e-05
-9.11152478e-05
-9.331130081e-05
-9.578418487e-05
-9.839633667e-05
-0.0001008198345
-0.000103214744
-0.0001055511706
-0.0001079291906
-0.0001102829648
-0.0001127183037
-0.0001154211947
-0.0001182699518
-0.0001209142093
-0.0001234754776
-0.0001257647689
-0.0001283414001
-0.000131057128
-0.0001336736096
-0.0001358591188
-0.0001380876371
-0.0001401052678
-0.0001422103111
-0.0001443162242
-0.0001465863816
-0.0001487733414
-0.0001510963222
-0.0001536360929
-0.0001561598053
-0.000158252709
-0.0001604067995
-0.0001627368866
-0.0001653983242
-0.0001678676537
-0.0001701040533
-0.0001722325957
-0.0001743441021
-0.0001762980615
-0.0001783350666
-0.0001802042399
-0.000181941015
-0.0001835901508
-0.0001850938665
-0.0001865981623
-0.0001880026359
-0.0001894944115
-0.0001912089027
-0.0001931316582
-0.0001950907983
-0.0001969760457
-0.000198309274
-0.0001996634989
-0.0002009734473
-0.0002023097979
-0.000203292377
-0.0002042261031
-0.0002052507815
-0.000206621145
-0.0002077678912
-0.0002088878594
-0.0002102332904
-0.0002118269719
-0.0002135968378
-0.0002155099867
-0.0002171608402
-0.0002185252089
-0.0002196546113
-0.0002210665447
-0.0002225792976
-0.0002241301978
-0.0002256340951
-0.0002273451562
-0.0002291784715
-0.0002309070489
-0.0002326173725
-0.0002346548348
-0.0002368195339
-0.0002394354595
-0.0002422908993
-0.0002449209215
-0.0002474521607
-0.0002496595706
-0.0002518121898
-0.0002534861489
-0.0002551211539
-0.0002565100234
-0.0002578859495
-0.0002591528252
-0.0002604704815
-0.0002618417484
-0.0002631686298
-0.0002642090653
-0.0002653446398
-0.0002665371831
-0.0002677797869
-0.0002690775804
-0.0002704004723
-0.0002715657806
-0.0002726871702
-0.0002736367765
-0.0002746533316
-0.000275641848
-0.0002766224832
-0.0002776940324
-0.000278686709
-0.0002797153092
-0.0002808169195
-0.0002817709253
-0.0002827518998
-0.0002838205532
-0.0002848344951
-0.000285811328
-0.0002867462964
-0.0002878006173
-0.0002890316254
-0.000290424169
-0.0002918777907
-0.0002931156748
-0.0002941148307
-0.0002952093872
-0.0002963747039
-0.0002973341431
-0.000298158981
-0.0002991049271
-0.0003000181111
-0.0003007141114
-0.0003014190174
-0.0003021997805
-0.0003028216929
-0.0003035622651
-0.0003040571557
-0.0003042239622
-0.000304215104
-0.0003041600495
-0.000304081827
-0.0003041007992
-0.0003039067978
-0.0003038029994
-0.0003034905534
-0.0003031732443
-0.0003029073044
-0.0003024844056
-0.0003021290472
-0.000301507935
-0.0003006657725
-0.0002999382506
-0.0002991038096
-0.0002983103484
-0.0002976083567
-0.0002967536171
-0.0002958263871
-0.0002950212937
-0.0002943266135
-0.0002935934728
-0.0002927432386
-0.0002919472926
-0.0002911168431
-0.00029021737
-0.0002890176207
-0.0002878313881
-0.0002864493316
-0.0002851043799
132.6319526
258.2585707
279.1785549
300.158774
367.2132045
435.2184213
507.5930348
577.9605849
661.4583648
746.3424719
828.6426377
908.8700226
995.3574198
1086.537415
1193.775938
1304.390515
1405.228917
1498.332274
1585.297531
1671.562621
1758.979797
1845.532814
1934.453881
2027.9618
2126.066687
2227.987007
2324.267942
2414.743781
2498.14921
2585.224844
2667.775304
2751.435707
2856.157819
2970.735615
3087.493477
3205.503845
3308.794689
3399.743339
3490.180395
3579.934255
3679.369352
3780.33829
3882.719255
3991.570789
4095.51973
4195.299033
4288.926835
4379.096876
4471.171685
4557.413961
4638.801639
4727.969053
4821.418892
4915.527086
5020.198107
5126.916698
5230.17914
5327.130209
5415.64294
5500.68051
5583.15263
5663.299301
5747.546138
5838.582583
5927.513124
6023.350466
6129.519612
6230.855098
6325.916815
6417.777749
6495.262132
6575.451003
6666.737101
6762.244116
6854.557847
6943.482344
7033.801705
7120.340665
7206.845802
7292.1557
7371.546041
7450.733495
7529.736092
7611.853675
7702.454261
7797.736021
7895.523279
7991.673238
8082.217928
8169.592406
8253.751704
8336.443273
8420.092803
8501.216959
8586.368512
8679.777677
8767.4273
8854.819665
8958.17422
9067.475242
9189.369294
9304.868756
9403.218726
9498.331171
9593.503152
9686.948442
9779.608475
9873.690328
9964.246017
10060.66315
10149.94794
10231.91828
10313.97564
10395.87236
10475.70378
10556.41536
10637.96108
10715.10431
10800.12994
10891.90848
10993.70661
11108.01062
11231.93791
11350.09179
11451.5995
11536.71538
11621.4118
11726.5581
11853.45923
11972.2231
12082.13711
12186.12552
12283.72267
12380.60168
12481.16864
12588.39207
12696.09322
12802.11764
12896.08542
12984.29209
13082.55942
13189.36801
13300.43073
13409.32758
13499.10113
13590.06257
13689.45887
13786.9202
13873.54256
13956.05195
14034.41547
14109.5718
14189.41442
14271.03336
14358.44681
14446.465
14541.83207
14649.59764
14753.82084
14847.64298
14940.38959
15028.40647
15113.0196
15203.34071
15301.48155
15403.63273
15510.87387
15626.92362
15760.52841
15894.16398
16019.37723
16141.10905
16258.93498
16368.74085
16467.1633
16559.52613
16650.55686
16739.59572
16825.74464
16910.72983
17000.3967
17098.71735
17214.93025
17336.05499
17438.66949
17537.87252
17635.77141
17731.96439
17834.17994
17935.88701
18026.04556
18113.20766
18199.66282
18285.92811
18375.7183
18482.20537
18597.49407
18711.05875
18811.81185
18908.74811
19011.30036
19106.12843
19197.45726
19295.33589
19401.6934
19505.99687
19616.44488
19731.23476
19859.88052
19992.12959
20102.89758
20200.00314
20289.93157
20376.35012
20456.01784
20534.12245
20610.00827
20690.51505
20779.92254
20876.20825
20976.12442
21071.28196
21166.4175
21256.8693
21346.75324
21435.73669
21526.67493
21620.25226
21722.50189
21832.62069
21941.0138
22044.86135
22134.3511
22222.17168
22310.39874
22399.30227
22490.82222
22580.42567
22667.7173
22761.89309
22855.36462
22943.68318
23030.35472
23118.26753
23204.99489
23293.46695
23387.31829
23481.47178
23566.38511
23644.8772
23727.46296
23808.51919
23892.03009
23977.29544
24070.60492
24168.42575
24260.80935
24347.40981
24428.93516
24516.53317
24611.59096
24711.13083
24812.51756
24904.54591
24985.30954
25067.05722
25152.40579
25232.3413
25312.82636
25395.11826
25476.32946
25560.77461
25643.14198
25729.39399
25830.54264
25943.43472
26055.84431
26166.37486
26278.18019
26377.37479
26470.14428
26563.70837
26656.68977
26748.09016
26839.6802
26927.27924
27006.29669
27087.36521
27167.15226
27244.82966
27324.20607
27401.84768
27469.88707
27539.55915
27613.9632
27694.53796
27782.53636
27866.25362
27959.89063
28060.08378
28166.58077
28277.22878
28384.23663
28475.28128
28561.47776
28648.83712
28742.35864
28841.02496
28931.59316
29022.04751
29121.14154
29229.00301
29340.40233
29441.92342
29527.28663
29623.14217
29716.98745
29804.08582
29892.10507
29980.57349
30066.39923
30148.95168
30231.61753
30317.39767
30419.1622
30525.47611
30629.10213
30728.6842
30828.87104
30933.366
31035.43332
31130.86221
31222.73762
31309.23977
31400.14452
31493.99889
31582.3076
31677.5396
31776.85134
31875.10828
31965.36943
32053.11562
32142.82701
32232.17695
32324.523
32413.88367
32511.82959
32613.17996
32716.09624
32821.28333
32919.43241
33014.76447
33110.16576
33208.14222
33307.84994
33407.25416
33502.17833
33592.66797
33685.76163
33774.26955
33866.99659
33964.03779
34057.02077
34145.66804
34229.25244
34318.00568
34408.56898
34501.70332
34599.76255
34703.86884
34814.28773
34916.65693
35016.29719
35116.09539
35206.80386
35290.99703
35371.60065
35458.48161
35544.56921
35629.76441
35718.1969
35805.90286
35907.53137
36017.77691
36138.23825
36267.2698
36388.70562
36500.84774
36605.23329
36705.85703
36806.9521
36915.0189
37011.24679
37101.06899
37179.95999
37259.46104
37340.03179
37417.62052
37501.83985
37584.94845
37665.04713
37744.13968
37824.86248
37913.11466
38021.01734
38130.76896
38237.26289
38338.69094
38432.00796
38521.15166
38611.69006
38712.19494
38810.96938
38908.03633
39001.10786
39089.48178
39177.06054
39260.13477
39337.81867
39415.43401
39496.52537
39586.01744
39688.88651
39799.60651
39909.72959
40001.18746
40092.79357
40188.60828
40283.32757
40379.8508
40477.77745
40570.88905
40662.8928
40757.69792
40856.64188
40976.77623
41107.9258
41217.6954
41305.20198
41390.72105
41468.61927
41548.40975
41632.59941
41712.46839
41801.83512
41893.99717
41986.61393
42079.08778
42173.73748
42261.73331
42349.59293
42450.23483
42563.72611
42682.52539
42799.31475
42904.52569
43003.78059
43111.00408
43220.51179
43330.9353
43433.00527
43525.89167
43610.21267
43692.37342
43778.34809
43864.38321
43951.85367
44038.99284
44127.04974
44223.93571
44329.96917
44437.62857
44535.30583
44621.47931
44703.41637
44787.04169
44882.18185
44977.9842
45065.20634
45157.65105
45246.70759
45337.94248
45431.50198
45523.62746
45613.03537
45694.93818
45771.95376
45848.14094
45917.72616
45985.95637
46052.90038
46123.63881
46197.00567
46277.64827
46368.46306
46453.72363
46542.03732
46629.55986
46725.44277
46814.92332
46896.70418
46983.15471
47070.81809
47158.14204
47251.68167
47353.51648
47461.61549
47566.75696
47658.11232
47745.75679
47837.41742
47936.46731
48029.38838
48116.92963
48206.21357
48294.40482
48383.52944
48471.28162
48563.05697
48662.93805
48770.04964
48868.20176
48960.47509
49049.16359
49132.42275
49221.59813
49308.81402
49397.71076
49490.40474
49585.45525
49675.32882
49753.81289
49834.23981
49921.31368
50012.60714
50100.31323
50190.58475
50297.90774
50420.66234
50526.43004
50624.71974
50732.47666
50840.49899
50945.18538
51037.59995
51120.11983
51195.34304
51270.89505
51343.01024
51415.39717