/*--------------------------------*- C++ -*----------------------------------*\
| =========                 |                                                 |
| \\      /  F ield         | OpenFOAM: The Open Source CFD Toolbox           |
|  \\    /   O peration     | Version:  3.0.1                                 |
|   \\  /    A nd           | Web:      www.OpenFOAM.org                      |
|    \\/     M anipulation  |                                                 |
\*---------------------------------------------------------------------------*/
FoamFile
{
    version     2.0;
    format      ascii;
    class       volScalarField;
    location    "0.00015";
    object      maxKappa;
}
// * * * * * * * * * * * * * * * * * * * * * * * * * * * * * * * * * * * * * //

dimensions      [0 0 0 0 0 0 0];

internalField   nonuniform List<scalar> 
1000
(
1.56897e-11
1.41169e-11
1.15419e-11
8.9486e-12
7.28672e-12
3.08635e-12
2.1909e-12
2.17323e-12
9.15233e-12
1.76686e-12
4.16979e-12
1.41349e-12
1.14846e-11
1.71667e-12
4.87653e-12
1.13079e-12
2.61495e-12
1.94354e-12
1.83753e-12
1.47926e-12
1.93582e-12
4.59383e-12
2.1909e-12
1.36968e-12
3.74574e-12
3.81641e-12
7.42081e-12
1.04023e-10
5.33532e-08
2.65519e-05
0.0084273
0.473695
1
1
1
1
1
1
1
1
1
1
1
1
1
1
1
1
1
1
1
1
1
1
1
1
1
1
1
1
1
1
1
1
1
1
1
1
1
0.335711
0.00348513
8.39318e-06
1.53343e-08
2.70409e-11
7.02603e-12
2.39711e-12
2.21113e-12
4.09163e-12
5.41417e-12
4.71157e-12
5.8068e-12
5.68282e-12
7.66663e-12
3.30637e-12
8.55522e-12
4.81489e-12
7.70796e-12
3.53368e-12
6.84004e-12
5.1476e-12
6.74955e-12
8.04179e-12
1.10001e-11
1.59448e-11
1.59768e-11
1.59768e-11
1.8337e-11
2.28011e-11
2.71584e-11
2.71584e-11
1.56897e-11
7.24412e-12
6.60805e-12
2.79164e-12
7.10277e-12
4.16384e-12
4.72997e-12
5.54794e-12
9.15233e-12
3.07433e-12
4.16979e-12
3.78033e-12
1.14846e-11
5.58327e-12
6.33707e-12
6.33707e-12
2.61495e-12
6.184e-12
2.83068e-12
4.52316e-12
3.06809e-12
1.36603e-11
1.36603e-11
1.97234e-12
6.22749e-12
6.22749e-12
7.42081e-12
9.38872e-11
5.3314e-08
2.65434e-05
0.00842619
0.473683
1
1
1
1
1
1
1
1
1
1
1
1
1
1
1
1
1
1
1
1
1
1
1
1
1
1
1
1
1
1
1
1
1
1
1
1
1
0.335714
0.00348494
8.39269e-06
1.53571e-08
1.71729e-11
1.20682e-11
5.47617e-12
2.21113e-12
5.1662e-12
5.41417e-12
7.29467e-12
6.08741e-12
5.68282e-12
7.66663e-12
6.50941e-12
8.55522e-12
4.81489e-12
9.89843e-12
6.31169e-12
6.84004e-12
4.59226e-12
5.00877e-12
6.01266e-12
7.66801e-12
1.05597e-11
1.02525e-11
1.63613e-11
1.63613e-11
2.06235e-11
1.5044e-11
2.68229e-11
1.96321e-11
1.96321e-11
1.87994e-11
1.17673e-11
1.36401e-11
1.13432e-11
3.63973e-12
5.54794e-12
8.05687e-12
3.53372e-12
5.33591e-12
5.72462e-12
6.04266e-12
6.60805e-12
2.68458e-12
1.49123e-11
4.85781e-12
1.27921e-11
4.98254e-12
1.59724e-11
1.62551e-12
6.57271e-12
5.65395e-12
7.17345e-12
2.33225e-12
4.98254e-12
5.12389e-12
9.55308e-11
5.33285e-08
2.6546e-05
0.00842654
0.473688
1
1
1
1
1
1
1
1
1
1
1
1
1
1
1
1
1
1
1
1
1
1
1
1
1
1
1
1
1
1
1
1
1
1
1
1
1
0.33572
0.00348507
8.39326e-06
1.53445e-08
2.69235e-11
1.35148e-11
1.06217e-11
2.1512e-11
9.87777e-12
3.96764e-12
7.29467e-12
6.19943e-12
5.00088e-12
6.48874e-12
6.50941e-12
2.97573e-12
5.24885e-12
9.89843e-12
7.54265e-12
4.83789e-12
7.6873e-12
8.04179e-12
9.69714e-12
1.28583e-11
1.28583e-11
1.33282e-11
1.35952e-11
1.91059e-11
2.33458e-11
2.96041e-11
2.96041e-11
1.92234e-11
1.83047e-11
1.87994e-11
1.17673e-11
1.36401e-11
1.13432e-11
5.97198e-12
2.72096e-12
8.05687e-12
1.1838e-11
5.5126e-12
5.72462e-12
6.04266e-12
1.13079e-11
2.06366e-12
1.49123e-11
6.92608e-12
1.62551e-11
8.44558e-12
1.71739e-11
1.06012e-11
1.05305e-11
5.75996e-12
7.17345e-12
2.44717e-12
4.98254e-12
4.16384e-12
1.10926e-10
5.33302e-08
2.65478e-05
0.00842677
0.47369
1
1
1
1
1
1
1
1
1
1
1
1
1
1
1
1
1
1
1
1
1
1
1
1
1
1
1
1
1
1
1
1
1
1
1
1
1
0.33572
0.00348501
8.39337e-06
1.53339e-08
2.7073e-11
1.35148e-11
1.06217e-11
2.1512e-11
9.87777e-12
4.21847e-12
6.90204e-12
6.19943e-12
5.00088e-12
2.43638e-11
3.40969e-12
1.43207e-11
5.8068e-12
7.93528e-12
7.54265e-12
6.67472e-12
7.6873e-12
2.93691e-12
7.85262e-12
1.88256e-11
8.86519e-12
8.21267e-12
1.21922e-11
1.33908e-11
1.61599e-11
2.33512e-11
2.49011e-11
1.74224e-11
1.74224e-11
1.32768e-11
7.9259e-12
1.01064e-11
7.99895e-12
5.97198e-12
5.2299e-12
7.0321e-12
1.1838e-11
5.83063e-12
4.13445e-12
5.86597e-12
1.13079e-11
2.92199e-12
7.31479e-12
6.92608e-12
1.62551e-11
8.44558e-12
1.71739e-11
1.06012e-11
1.05305e-11
5.75996e-12
2.82697e-12
2.22624e-12
3.18035e-12
3.25102e-12
9.91286e-11
5.33118e-08
2.65436e-05
0.00842632
0.473688
1
1
1
1
1
1
1
1
1
1
1
1
1
1
1
1
1
1
1
1
1
1
1
1
1
1
1
1
1
1
1
1
1
1
1
1
1
0.335723
0.00348507
8.39414e-06
1.5339e-08
3.54138e-11
4.60825e-12
1.02084e-11
3.43886e-12
4.29827e-12
4.23628e-12
3.01706e-12
6.6334e-12
4.44293e-12
2.43638e-11
9.58846e-12
1.47133e-11
1.62838e-11
6.9847e-12
1.38454e-11
7.83195e-12
9.17516e-12
6.11945e-12
7.85262e-12
1.88256e-11
8.86519e-12
8.87481e-12
1.77924e-11
8.75733e-12
1.66145e-11
1.73171e-11
2.49011e-11
1.26154e-11
9.5057e-12
6.82007e-12
4.31113e-12
7.31479e-12
2.11844e-12
4.02844e-12
6.20923e-12
6.20923e-12
3.67507e-12
5.83063e-12
4.71171e-12
6.78474e-12
6.4667e-12
2.43826e-12
1.03891e-11
4.55849e-12
6.43136e-12
8.30423e-12
6.50204e-12
7.63283e-12
4.98254e-12
6.89075e-12
1.83753e-12
1.08838e-11
1.23327e-11
8.05687e-12
1.00316e-10
5.33242e-08
2.65458e-05
0.00842649
0.473687
1
1
1
1
1
1
1
1
1
1
1
1
1
1
1
1
1
1
1
1
1
1
1
1
1
1
1
1
1
1
1
1
1
1
1
1
1
0.335719
0.00348523
8.3937e-06
1.53463e-08
2.81303e-11
4.60825e-12
8.26591e-12
3.20304e-12
4.29827e-12
7.41169e-12
7.41169e-12
1.11383e-11
7.08802e-12
1.02704e-11
1.30808e-11
1.47133e-11
1.66145e-11
5.00088e-12
1.38454e-11
7.83195e-12
9.17516e-12
5.4555e-12
5.87382e-12
9.29132e-12
1.57879e-11
8.72054e-12
2.29379e-11
6.61273e-12
2.1574e-11
1.65318e-11
2.08094e-11
1.57957e-11
9.5057e-12
5.08855e-12
4.31113e-12
7.84485e-12
7.52682e-12
6.14867e-12
7.24412e-12
3.03157e-12
3.67507e-12
6.99676e-12
1.64362e-12
6.78474e-12
5.30058e-12
8.61987e-12
1.03891e-11
6.53738e-12
1.28981e-11
1.87287e-12
1.45943e-11
1.16697e-11
4.52316e-12
1.03185e-11
3.95776e-12
1.08838e-11
1.23327e-11
8.05687e-12
1.02708e-10
5.33287e-08
2.65471e-05
0.0084266
0.473685
1
1
1
1
1
1
1
1
1
1
1
1
1
1
1
1
1
1
1
1
1
1
1
1
1
1
1
1
1
1
1
1
1
1
1
1
1
0.33572
0.00348524
8.39461e-06
1.53585e-08
2.52147e-11
8.43123e-12
8.76187e-12
2.81041e-12
9.19583e-12
6.50941e-12
3.47168e-12
1.15309e-11
7.08802e-12
9.58846e-12
1.30808e-11
5.91013e-12
1.66145e-11
3.57501e-12
8.12126e-12
3.86431e-12
1.51758e-11
1.51758e-11
6.20489e-12
6.20489e-12
1.57879e-11
7.41169e-12
2.29379e-11
6.61273e-12
2.1574e-11
1.65318e-11
1.94456e-11
1.57957e-11
1.13045e-11
1.13045e-11
8.03548e-12
7.84485e-12
1.64727e-11
1.64727e-11
9.00339e-12
4.87653e-12
2.24628e-12
6.99676e-12
4.91187e-12
4.87653e-12
4.24046e-12
5.61861e-12
6.32535e-12
6.53738e-12
1.42055e-11
1.27837e-12
1.45943e-11
5.05322e-12
3.88709e-12
2.64322e-11
3.95776e-12
1.69618e-12
6.82007e-12
2.50195e-12
1.009e-10
5.33088e-08
2.65417e-05
0.00842582
0.473675
1
1
1
1
1
1
1
1
1
1
1
1
1
1
1
1
1
1
1
1
1
1
1
1
1
1
1
1
1
1
1
1
1
1
1
1
1
0.335715
0.00348514
8.39376e-06
1.53643e-08
1.72797e-11
8.43123e-12
8.76187e-12
9.76122e-12
9.76122e-12
5.08354e-12
1.80197e-11
1.15309e-11
5.49683e-12
3.91944e-12
7.12935e-12
2.25246e-12
7.336e-12
6.4078e-13
8.12126e-12
3.86431e-12
1.03944e-11
9.60912e-12
6.0447e-12
7.6873e-12
7.29467e-12
5.70348e-12
7.02603e-12
6.94179e-12
1.35354e-11
1.34734e-11
1.54986e-11
1.38522e-11
6.95799e-12
9.64705e-12
5.07696e-12
1.46296e-11
3.8899e-12
5.54794e-12
7.7035e-12
5.75996e-12
4.31113e-12
5.33591e-12
6.42838e-12
6.42838e-12
4.38181e-12
3.5977e-12
6.32535e-12
2.29692e-12
1.42055e-11
5.19456e-12
1.29298e-11
1.29298e-11
2.82697e-12
2.64322e-11
5.30058e-12
6.85541e-12
2.82697e-12
1.95408e-12
8.87007e-11
5.33055e-08
2.6545e-05
0.00842623
0.473679
1
1
1
1
1
1
1
1
1
1
1
1
1
1
1
1
1
1
1
1
1
1
1
1
1
1
1
1
1
1
1
1
1
1
1
1
1
0.335712
0.00348489
8.39265e-06
1.5356e-08
1.8604e-11
3.637e-12
6.9227e-12
4.89755e-12
7.56331e-12
6.42675e-12
1.80197e-11
9.07184e-12
6.50941e-12
3.40969e-12
4.29827e-12
1.56991e-12
5.39351e-12
1.43108e-12
7.23267e-12
3.67833e-12
4.23628e-12
4.87689e-12
5.53816e-12
7.6873e-12
4.91822e-12
5.70348e-12
1.76271e-11
6.53007e-12
2.60996e-11
1.34734e-11
1.54986e-11
1.38522e-11
6.82007e-12
6.4667e-12
4.05426e-12
1.46296e-11
3.7438e-12
1.90821e-12
7.7035e-12
5.75996e-12
4.31113e-12
5.33591e-12
1.86277e-12
2.08489e-12
4.38181e-12
1.94354e-12
1.40621e-12
2.29692e-12
1.5195e-12
5.19456e-12
3.32169e-12
1.93582e-12
2.43826e-12
6.32535e-12
5.30058e-12
6.85541e-12
1.69618e-12
3.10462e-12
1.04753e-10
5.33244e-08
2.6547e-05
0.00842652
0.473683
1
1
1
1
1
1
1
1
1
1
1
1
1
1
1
1
1
1
1
1
1
1
1
1
1
1
1
1
1
1
1
1
1
1
1
1
1
0.335725
0.00348551
8.39588e-06
1.53462e-08
3.12487e-11
3.637e-12
2.1698e-12
1.38454e-12
4.13296e-12
6.42675e-12
3.05839e-12
9.07184e-12
6.50941e-12
2.8724e-12
4.29827e-12
3.91944e-12
3.91944e-12
1.46312e-12
1.69451e-12
3.67833e-12
4.23628e-12
3.62041e-12
1.64467e-12
8.88586e-13
4.91822e-12
1.04661e-12
1.76271e-11
5.69227e-12
2.60996e-11
3.74033e-12
4.48426e-12
)
;

boundaryField
{
    sides1
    {
        type            calculated;
        value           uniform 0;
    }
    sides2
    {
        type            calculated;
        value           uniform 0;
    }
    empty
    {
        type            empty;
    }
}


// ************************************************************************* //
