/*--------------------------------*- C++ -*----------------------------------*\
| =========                 |                                                 |
| \\      /  F ield         | OpenFOAM: The Open Source CFD Toolbox           |
|  \\    /   O peration     | Version:  3.0.1                                 |
|   \\  /    A nd           | Web:      www.OpenFOAM.org                      |
|    \\/     M anipulation  |                                                 |
\*---------------------------------------------------------------------------*/
FoamFile
{
    version     2.0;
    format      ascii;
    class       surfaceScalarField;
    location    "0.00015";
    object      phi;
}
// * * * * * * * * * * * * * * * * * * * * * * * * * * * * * * * * * * * * * //

dimensions      [1 0 -1 0 0 0 0];

internalField   nonuniform List<scalar> 
1890
(
-2.68188e-15
-7.70217e-16
-2.19269e-15
-3.55618e-16
-1.70003e-15
-3.24393e-16
-1.38431e-15
-1.249e-16
-5.86337e-16
-3.48679e-16
-3.43475e-16
-4.33681e-17
-3.22659e-16
1.07553e-16
-4.12864e-16
6.93889e-18
5.20417e-17
-4.49293e-16
-1.73472e-17
8.67362e-17
-1.45717e-16
-2.04697e-16
-1.59595e-16
6.93889e-17
-1.8735e-16
-5.63785e-16
-3.26128e-16
3.64292e-17
-1.42247e-16
2.39392e-16
1.73472e-16
-5.55112e-17
1.73472e-16
-1.2837e-16
6.59195e-17
9.54098e-17
-1.38778e-17
9.02056e-17
-2.81025e-16
-2.94903e-17
-3.67761e-16
-1.38778e-17
-3.747e-16
-2.25514e-16
1.73472e-16
-1.07553e-16
2.60209e-16
-5.20417e-18
-1.76942e-16
1.83881e-16
-7.28584e-17
-1.8735e-16
-2.70617e-16
3.64292e-16
1.9762e-14
-6.53991e-16
1.01359e-11
-6.55725e-16
5.04425e-09
-1.05381e-13
1.60093e-06
-2.22167e-11
8.98022e-05
-6.14721e-10
0.000569286
-1.35337e-09
0.00110181
-2.25477e-10
0.00144542
3.8879e-10
0.00163874
6.26634e-10
0.00173501
6.67957e-10
0.00177567
5.12247e-10
0.0017908
2.98595e-10
0.00179533
2.60555e-10
0.00179542
1.03589e-10
0.00179615
7.75879e-11
0.00179722
5.12928e-11
0.00179719
5.84858e-12
0.00179661
-9.71194e-11
0.00179655
-7.20733e-11
0.00179721
5.04869e-12
0.00179715
2.4706e-10
0.00179441
5.02127e-10
0.00178525
6.62614e-10
0.00176824
8.39868e-10
0.00174772
7.27575e-10
0.00173099
4.51528e-10
0.00172179
3.05292e-10
0.00171795
9.04221e-12
0.00171661
-1.85517e-10
0.00171603
-2.7147e-10
0.00171595
-2.80571e-10
0.00171687
-2.86288e-10
0.00171729
-2.74746e-10
0.00171669
-1.84317e-10
0.00171567
-1.25221e-10
0.00171012
-1.0784e-10
0.00168846
-1.06904e-10
0.00162573
-3.25284e-11
0.00146789
5.09978e-11
0.00112267
2.8819e-10
0.000517686
1.42228e-10
5.47864e-05
-1.38768e-10
5.66117e-07
1.1238e-10
1.36332e-09
1.29822e-12
2.49078e-12
2.91087e-15
4.39232e-15
-1.20737e-15
-6.07153e-17
1.85615e-16
1.21431e-16
-2.94903e-16
1.04083e-16
1.00614e-16
-9.36751e-17
-9.28077e-17
-2.39392e-16
1.71738e-16
4.68375e-17
-2.27249e-16
-2.77556e-16
1.97758e-16
2.72352e-16
-2.43729e-16
5.48173e-16
-2.38524e-16
5.22152e-16
-3.21791e-16
-4.16334e-17
1.38778e-16
1.26635e-16
-3.59088e-16
-3.29597e-17
2.02095e-16
1.59595e-16
-3.23526e-16
1.8735e-16
1.48319e-16
5.0307e-16
-2.87097e-16
8.36137e-16
-1.59595e-16
1.09635e-15
-1.55258e-16
1.30625e-15
-1.13624e-16
1.78677e-15
6.93889e-18
2.58994e-15
-4.43222e-16
2.59515e-15
8.41341e-17
2.3332e-15
2.0383e-16
2.97852e-15
-6.46184e-16
3.70363e-15
-8.65627e-16
4.4114e-15
-6.31439e-16
-1.12584e-15
3.08781e-16
-1.89085e-16
3.26128e-16
-4.85723e-17
-3.46945e-18
5.72459e-17
-1.63064e-16
1.37043e-16
-6.03684e-16
-2.01228e-16
-7.91034e-16
-1.21431e-16
-8.98587e-16
-1.78677e-16
-1.249e-16
-2.72352e-16
-4.85723e-16
1.249e-16
-1.9082e-16
-1.50921e-16
-3.1225e-17
-2.04697e-16
-7.18176e-16
7.97973e-17
-1.2837e-16
-1.64799e-16
3.53884e-16
-2.74086e-16
1.2039e-15
-5.20417e-18
-8.67362e-17
6.41848e-17
-3.08781e-16
1.9082e-17
1.76942e-16
-3.03577e-16
5.37764e-16
-3.81639e-17
5.41234e-16
-2.22045e-16
5.82867e-16
-7.97973e-17
2.59515e-15
1.50921e-16
-3.747e-16
9.54098e-17
4.85723e-17
1.56125e-17
1.18308e-15
-1.14492e-16
-1.21431e-16
1.12757e-16
4.68375e-16
-2.51535e-16
1.78364e-14
3.46945e-18
1.01284e-11
-1.14492e-16
5.04264e-09
1.5021e-14
1.60072e-06
3.30012e-12
8.98e-05
6.78073e-11
0.000569287
1.27791e-10
0.00110181
5.56669e-10
0.00144542
7.32004e-10
0.00163874
7.56661e-10
0.00173501
8.81692e-10
0.00177567
8.16291e-10
0.0017908
7.09344e-10
0.00179533
5.5863e-10
0.00179542
3.97813e-10
0.00179615
3.76693e-10
0.00179722
2.36571e-10
0.00179719
1.69497e-10
0.00179661
1.13841e-10
0.00179655
9.89679e-11
0.00179721
2.05191e-10
0.00179715
1.8391e-10
0.00179441
3.49976e-10
0.00178525
4.71317e-10
0.00176824
8.61242e-10
0.00174772
4.15794e-10
0.00173099
2.7649e-10
0.0017218
1.95495e-10
0.00171795
9.07234e-11
0.00171661
-2.69297e-11
0.00171603
-1.11809e-10
0.00171595
-1.57516e-10
0.00171687
-9.1038e-11
0.00171729
-1.5123e-10
0.00171669
-9.2085e-11
0.00171567
-9.20736e-11
0.00171012
-1.40138e-10
0.00168846
-2.51503e-10
0.00162573
-2.26686e-10
0.00146789
-2.55953e-10
0.00112267
-6.10262e-10
0.000517685
-5.56815e-10
5.47869e-05
-6.87817e-10
5.66086e-07
-8.79838e-11
1.36324e-09
-1.44231e-12
2.49448e-12
-7.39166e-15
2.78944e-15
2.498e-16
1.21431e-16
-4.33681e-16
-6.17562e-16
5.06539e-16
-1.83881e-16
-2.29851e-16
4.68375e-17
-4.0766e-17
7.56339e-16
-2.1684e-16
6.59195e-16
-1.59595e-16
9.88792e-16
-3.06179e-16
5.88071e-16
4.59702e-17
-2.94903e-17
4.94396e-17
0
-1.56992e-16
2.30718e-16
-2.73219e-16
-1.73472e-16
-1.21431e-17
-7.11237e-17
-2.00361e-16
4.78784e-16
-4.15466e-16
1.02522e-15
-1.76074e-16
7.45931e-16
-1.00614e-16
7.45931e-16
6.50521e-17
8.13585e-16
-7.97973e-17
9.76649e-16
-2.31586e-16
1.24553e-15
-1.21431e-16
1.52656e-15
-1.69136e-16
1.66533e-15
-3.29597e-16
2.6576e-15
-3.42608e-16
2.30371e-15
-9.54098e-17
1.35308e-15
-2.55872e-16
1.10502e-15
-2.22912e-16
1.30104e-16
-3.72966e-15
-9.4369e-16
-2.94903e-15
-8.98587e-16
-1.94289e-15
-9.22873e-16
-1.01655e-15
-5.77663e-16
-6.73073e-16
-6.69603e-16
-4.4062e-16
-5.56846e-16
-4.54498e-16
-7.63278e-17
-4.96131e-16
1.33574e-16
2.56739e-16
-3.95517e-16
-3.22659e-16
-1.73472e-16
-9.71445e-16
-2.61943e-16
3.46945e-17
-2.81025e-16
-2.498e-16
-2.96638e-16
-5.10009e-16
-3.24393e-16
-4.16334e-16
5.20417e-18
3.1225e-16
-7.32053e-16
-9.22873e-16
1.43982e-16
2.77556e-17
-6.2797e-16
-3.26128e-16
2.44596e-16
1.94289e-16
-7.84095e-16
-1.31839e-16
-6.93889e-17
7.97973e-17
-3.22659e-16
6.38378e-16
-2.77556e-16
2.46331e-16
3.52149e-16
1.21431e-16
-6.41848e-17
-1.73472e-17
2.44596e-16
-2.11636e-16
1.73472e-16
1.81487e-14
1.47451e-16
1.01312e-11
-6.92155e-16
5.04314e-09
6.10276e-15
1.60078e-06
1.37661e-12
8.98008e-05
3.59866e-11
0.000569288
1.31971e-10
0.00110182
4.00193e-10
0.00144542
4.79232e-10
0.00163874
8.22146e-10
0.00173501
9.15131e-10
0.00177567
8.00755e-10
0.0017908
6.50503e-10
0.00179533
5.79509e-10
0.00179542
3.34307e-10
0.00179615
2.68104e-10
0.00179722
2.38687e-10
0.00179719
1.84522e-10
0.00179661
1.01721e-10
0.00179655
4.04115e-11
0.00179721
2.12896e-10
0.00179715
1.5378e-10
0.00179441
2.06754e-10
0.00178525
2.38579e-10
0.00176824
4.18835e-10
0.00174772
3.73638e-10
0.00173099
3.34974e-10
0.0017218
3.07952e-10
0.00171795
2.49442e-10
0.00171661
1.79087e-10
0.00171603
1.3284e-10
0.00171595
7.74477e-11
0.00171687
1.47381e-11
0.00171729
9.40953e-11
0.00171669
2.08468e-11
0.00171567
-7.03717e-11
0.00171012
-1.30476e-10
0.00168846
-4.46872e-10
0.00162573
-2.29691e-10
0.00146789
-3.31837e-10
0.00112267
-5.02177e-10
0.000517686
-1.56294e-10
5.47879e-05
1.69558e-11
5.66108e-07
2.38917e-11
1.36334e-09
4.71533e-14
2.49244e-12
-2.04003e-15
4.37324e-15
1.60462e-16
7.91034e-16
-5.68989e-16
3.85109e-16
5.67255e-16
5.13478e-16
-4.45824e-16
-4.30211e-16
9.02924e-16
-1.37043e-16
-4.14599e-16
-2.15106e-16
-1.66533e-16
-3.10516e-16
-2.89699e-16
1.04083e-17
-2.60209e-16
3.27863e-16
-2.09902e-16
2.2031e-16
-2.72352e-16
-9.02056e-17
6.15827e-17
1.21431e-16
-1.249e-16
2.87964e-16
-2.2031e-16
5.20417e-16
-3.33067e-16
6.78277e-16
-3.16587e-16
7.8583e-16
-1.58727e-16
1.17094e-15
-3.22659e-16
1.30625e-15
-1.0842e-16
1.57513e-15
-2.98372e-16
2.08861e-15
-2.84495e-16
2.07126e-15
-4.25007e-17
2.16493e-15
-1.8735e-16
2.2083e-15
-3.33067e-16
3.10342e-15
-5.6205e-16
3.79211e-15
-4.92661e-16
4.80865e-15
-9.80119e-16
-8.37004e-16
2.33494e-15
3.48679e-16
1.46064e-15
-2.94903e-17
3.92048e-16
3.40006e-16
-3.40006e-16
2.23779e-16
6.93889e-18
-4.96131e-16
-3.81639e-17
1.47451e-16
-2.98372e-16
-2.93168e-16
8.67362e-17
-9.02056e-17
-6.59195e-17
-3.4521e-16
5.55112e-17
-5.81132e-16
2.70617e-16
-2.70617e-16
1.31839e-16
-1.56125e-17
2.70617e-16
-1.49186e-16
1.70003e-16
-5.55112e-16
3.92048e-16
-1.73472e-18
2.42861e-17
-3.59088e-16
-1.66533e-16
3.40006e-16
6.93889e-17
-7.97973e-16
-5.20417e-17
4.14599e-16
1.8735e-16
-8.43076e-16
-2.25514e-16
5.20417e-16
-4.44089e-16
-5.16948e-16
-8.39606e-16
2.8276e-16
-4.64906e-16
-1.38778e-16
-1.59595e-16
1.09288e-16
6.07153e-16
-1.56125e-16
7.91034e-16
-1.59595e-16
2.10734e-14
-3.79904e-16
1.01315e-11
-5.08274e-16
5.04348e-09
-5.45761e-14
1.60083e-06
-1.0648e-11
8.98013e-05
-2.44085e-10
0.000569288
-3.88822e-10
0.00110182
-5.48434e-12
0.00144542
6.32082e-12
0.00163875
1.32961e-10
0.00173501
3.15283e-10
0.00177567
4.85766e-10
0.0017908
3.93146e-10
0.00179533
3.24824e-10
0.00179542
3.74589e-10
0.00179615
2.04042e-10
0.00179722
1.04187e-10
0.00179719
1.57035e-11
0.00179661
1.23684e-11
0.00179655
2.89217e-11
0.00179721
1.26485e-10
0.00179715
8.57495e-11
0.00179441
1.11378e-10
0.00178525
2.00402e-10
0.00176824
2.59701e-10
0.00174772
2.6231e-10
0.00173099
2.39482e-10
0.00172179
2.44443e-10
0.00171795
2.30715e-10
0.00171661
1.92503e-10
0.00171603
1.66135e-10
0.00171595
1.4336e-10
0.00171687
1.05307e-10
0.00171729
8.19324e-11
0.00171669
-8.70358e-11
0.00171567
-1.75157e-10
0.00171012
-1.37793e-11
0.00168846
-1.17615e-10
0.00162573
-2.28564e-10
0.00146789
-1.6298e-10
0.00112267
-1.27209e-10
0.000517687
4.7097e-11
5.47878e-05
-4.88254e-10
5.66098e-07
-2.02894e-11
1.36335e-09
-1.97504e-12
2.49072e-12
-3.12857e-15
4.39752e-15
8.32667e-17
-8.22259e-16
-2.37657e-16
-2.13371e-16
-1.65666e-16
-1.05818e-16
-4.28477e-16
7.8236e-16
-1.47451e-17
6.85216e-16
-1.21431e-16
5.79398e-16
8.06646e-17
4.11129e-16
-5.81132e-17
2.91434e-16
-1.35308e-16
-1.14492e-16
1.59595e-16
-6.245e-17
-1.02262e-15
4.80518e-16
-1.43115e-16
1.21431e-17
6.01082e-16
4.16334e-17
-2.43729e-16
-8.1532e-17
-2.93168e-16
4.75314e-16
-9.80119e-17
5.6205e-16
-2.80158e-16
4.77049e-16
-2.3679e-16
3.29597e-16
9.19403e-17
6.50521e-16
-3.29597e-16
1.13451e-15
-7.90167e-16
1.334e-15
-3.72098e-16
1.30625e-15
-2.45463e-16
1.37564e-15
-5.11743e-16
1.00961e-15
-2.86229e-16
1.71217e-15
-6.78277e-16
1.35308e-15
-7.26849e-16
-1.04517e-15
-3.30985e-15
-3.85109e-16
-2.52229e-15
-3.72966e-16
-1.50574e-15
-3.34802e-16
-1.03736e-15
-1.78677e-16
-1.51962e-15
-1.78677e-16
-7.91034e-16
-7.11237e-17
-3.747e-16
-1.97758e-16
-1.9082e-16
2.56739e-16
1.04083e-17
-1.31839e-16
-1.83881e-16
1.5439e-16
-1.97758e-16
-2.86229e-16
3.43475e-16
2.02963e-16
5.75928e-16
-2.87964e-16
-5.55112e-16
-3.17454e-16
2.98372e-16
2.60209e-17
-6.245e-17
1.9082e-17
1.52656e-16
2.23779e-16
-3.26128e-16
-5.20417e-18
-4.16334e-16
4.0766e-16
-2.77556e-17
-3.19189e-16
8.01442e-16
-1.73472e-17
4.54498e-16
-2.44596e-16
3.1225e-16
6.41848e-17
6.93889e-17
9.02056e-17
2.42861e-17
5.72459e-17
-2.81025e-16
-1.73472e-17
2.498e-16
-5.37764e-17
1.88322e-14
-1.19696e-16
1.0128e-11
-1.66533e-16
5.04268e-09
1.82944e-14
1.60074e-06
3.07685e-12
8.9801e-05
4.55325e-11
0.000569289
-1.16627e-10
0.00110182
-2.37756e-10
0.00144542
-4.05545e-10
0.00163875
-1.92848e-10
0.00173501
-1.88238e-11
0.00177567
2.10922e-10
0.0017908
2.64363e-10
0.00179533
2.8064e-11
0.00179542
3.09444e-10
0.00179615
2.16439e-10
0.00179722
1.98277e-10
0.00179719
1.44056e-10
0.00179661
9.67931e-11
0.00179655
5.9529e-11
0.00179721
2.14241e-11
0.00179715
-1.64012e-12
0.00179441
4.76643e-11
0.00178525
1.03015e-10
0.00176824
1.28025e-10
0.00174772
1.38028e-10
0.00173099
1.30029e-10
0.00172179
1.36267e-10
0.00171795
1.34625e-10
0.00171661
7.40856e-11
0.00171603
5.45492e-11
0.00171595
2.53209e-11
0.00171687
-6.64817e-11
0.00171729
-1.36728e-10
0.00171669
-1.79259e-10
0.00171567
-1.30599e-10
0.00171012
7.46785e-11
0.00168846
8.21955e-11
0.00162573
7.7393e-11
0.00146789
7.97065e-11
0.00112267
1.21671e-10
0.000517686
-9.53311e-11
5.47884e-05
3.06832e-10
5.66108e-07
-6.55768e-11
1.36348e-09
5.91196e-13
2.49154e-12
4.49467e-15
5.75234e-15
-3.60822e-16
-2.25514e-16
3.1572e-16
2.7929e-16
-1.93422e-16
-1.73472e-18
3.46945e-16
5.58581e-16
-1.34441e-16
1.5786e-16
1.80411e-16
1.33574e-16
1.77809e-16
1.80411e-16
-1.26635e-16
-2.5327e-16
2.78423e-16
4.71845e-16
-1.86483e-16
1.49186e-16
4.31079e-16
7.97973e-17
-4.02456e-16
-3.72966e-16
6.17562e-16
-5.72459e-17
-6.83481e-16
7.63278e-17
2.09902e-16
6.34909e-16
-5.81132e-16
4.00721e-16
3.2873e-16
8.89913e-16
-3.85109e-16
9.93997e-16
9.36751e-17
1.16226e-15
-1.56125e-16
1.13277e-15
8.67362e-19
1.34094e-15
-1.70003e-16
1.44156e-15
-3.66027e-16
1.42247e-15
-7.46798e-16
1.12237e-15
-1.82146e-16
1.29931e-15
-6.97359e-16
9.22873e-16
-3.14852e-16
-8.73433e-16
5.51642e-16
6.19296e-16
-3.50414e-16
4.66641e-16
-4.44089e-16
2.498e-16
-5.89806e-17
-2.11636e-16
-4.02456e-16
3.59088e-16
-1.94289e-16
-7.97973e-17
-1.70003e-16
-1.23165e-16
1.17961e-15
-1.38778e-16
-1.17961e-16
2.25514e-17
1.52656e-16
-1.80411e-16
7.28584e-17
-1.82146e-16
-8.95117e-16
4.51028e-17
-2.28983e-16
3.33067e-16
-1.38778e-16
2.60209e-16
-4.44089e-16
1.19696e-16
-1.83881e-16
5.10009e-16
1.31839e-16
-1.21431e-16
-4.16334e-17
3.1572e-16
4.33681e-16
9.19403e-17
5.06539e-16
2.67147e-16
-2.04697e-16
3.747e-16
-6.9042e-16
2.22045e-16
-3.19189e-16
-3.38271e-16
-3.22659e-16
-2.08167e-17
-2.70617e-16
-5.34295e-16
-4.92661e-16
-6.05418e-16
-3.7817e-16
-3.95517e-16
1.90577e-14
4.87457e-16
1.01304e-11
-2.72352e-16
5.0431e-09
5.09835e-15
1.60077e-06
4.93817e-13
8.98007e-05
-3.42627e-11
0.000569288
-2.42477e-10
0.00110182
-1.06913e-09
0.00144542
-8.96684e-10
0.00163875
-5.93963e-10
0.00173501
-4.29729e-10
0.00177567
-2.08161e-10
0.0017908
-3.89126e-12
0.00179533
-6.23821e-11
0.00179542
2.215e-10
0.00179615
1.6592e-10
0.00179722
2.62694e-10
0.00179719
2.17623e-10
0.00179661
1.59269e-10
0.00179655
9.59798e-11
0.00179721
4.23698e-11
0.00179715
-2.23359e-11
0.00179441
-4.79481e-11
0.00178525
-1.31609e-11
0.00176824
-6.34838e-11
0.00174772
-9.14742e-11
0.00173099
-1.20056e-10
0.00172179
-1.28716e-10
0.00171795
-1.30171e-10
0.00171661
-1.03016e-10
0.00171603
-8.05978e-11
0.00171595
-3.13314e-10
0.00171687
-2.18009e-10
0.00171729
-1.65853e-10
0.00171669
-1.65787e-10
0.00171567
-3.93914e-11
0.00171012
4.45953e-11
0.00168846
2.65056e-10
0.00162573
2.02021e-10
0.00146789
2.69228e-10
0.00112267
2.73237e-10
0.000517688
7.10078e-10
5.47877e-05
-8.99613e-11
5.66134e-07
-9.126e-12
1.36341e-09
-2.27374e-12
2.49273e-12
-1.09609e-14
4.56926e-15
-3.26128e-16
-9.19403e-17
5.48173e-16
3.98986e-17
-1.55258e-16
-2.23779e-16
1.36176e-16
-1.35308e-16
-1.17961e-16
1.8735e-16
-2.1684e-17
1.2039e-15
2.73219e-16
2.68882e-16
-1.25767e-16
3.46945e-18
4.67508e-16
-1.5439e-16
-2.97505e-16
-1.82146e-16
4.02456e-16
-1.31839e-16
-5.4904e-16
1.78677e-16
2.48065e-16
-1.5439e-16
-6.97359e-16
1.45717e-16
1.50054e-16
9.19403e-17
-1.1189e-16
8.62158e-16
4.33681e-18
6.71338e-16
4.33681e-18
7.2338e-16
2.28983e-16
9.54098e-16
6.15827e-17
1.50921e-15
-8.58688e-17
1.34961e-15
6.62664e-16
7.1991e-16
1.59595e-16
7.63278e-16
-9.62772e-16
8.50015e-16
-2.77556e-16
8.55219e-16
-9.05526e-16
1.25767e-15
-6.93889e-16
-8.16187e-16
-1.53696e-15
7.75421e-16
-9.4369e-16
9.02056e-17
-6.76542e-16
-5.89806e-17
-4.82253e-16
-5.20417e-18
-1.83881e-16
3.85109e-16
-4.30211e-16
3.69496e-16
-1.00961e-15
3.01842e-16
-5.75928e-16
-3.55618e-16
-5.37764e-16
6.07153e-17
-1.59595e-16
-8.67362e-17
-3.1225e-16
3.43475e-16
-2.11636e-16
-5.89806e-17
-4.30211e-16
2.32453e-16
-5.27356e-16
2.06432e-16
-1.63758e-15
2.75821e-16
-2.15106e-16
1.9082e-16
9.36751e-17
-3.20924e-16
-2.94903e-16
6.33174e-16
0
-3.98986e-17
2.21698e-15
7.16441e-16
9.36751e-17
-1.50921e-16
5.6205e-16
-1.9082e-16
-3.50414e-16
5.06539e-16
-6.93889e-17
-1.94289e-16
-6.45317e-16
8.32667e-17
-2.32453e-16
-3.34802e-16
-2.77556e-17
-9.02056e-17
1.95122e-14
-1.21431e-17
1.01312e-11
-8.1532e-17
5.04335e-09
-6.18377e-14
1.60079e-06
-1.42083e-11
8.98004e-05
-4.33403e-10
0.000569286
-1.14225e-09
0.00110182
-6.688e-10
0.00144542
-7.10791e-10
0.00163875
-4.79861e-10
0.00173501
-4.60385e-10
0.00177567
-4.27222e-10
0.0017908
-1.90716e-10
0.00179533
-1.69124e-10
0.00179542
4.85758e-11
0.00179615
6.55813e-11
0.00179722
1.21592e-10
0.00179719
7.59655e-11
0.00179661
5.80236e-11
0.00179655
2.05332e-11
0.00179721
-4.37713e-11
0.00179715
-1.36483e-10
0.00179441
-2.07625e-10
0.00178525
-2.69568e-10
0.00176824
-2.90692e-10
0.00174772
-2.7978e-10
0.00173099
-2.7086e-10
0.00172179
-2.87119e-10
0.00171795
-2.86635e-10
0.00171661
-2.55261e-10
0.00171603
-2.31904e-10
0.00171595
-2.21695e-10
0.00171687
-1.5758e-10
0.00171729
4.58604e-13
0.00171669
-9.6133e-11
0.00171567
-1.18378e-10
0.00171012
-3.65713e-11
0.00168846
9.16914e-11
0.00162573
6.89528e-11
0.00146789
1.40886e-10
0.00112267
1.52175e-10
0.000517686
3.45004e-10
5.47879e-05
4.03778e-10
5.66135e-07
2.66631e-11
1.36356e-09
9.89792e-13
2.49471e-12
2.18835e-15
4.09568e-15
-4.14599e-16
5.08274e-16
1.26635e-16
8.67362e-18
3.53884e-16
-1.73472e-18
3.67761e-16
-2.30718e-16
8.67362e-17
-6.92155e-16
3.85976e-16
2.39392e-16
1.85615e-16
4.12864e-16
-1.45717e-16
3.53884e-16
4.83988e-16
-8.50015e-17
9.62772e-17
1.37043e-16
-6.93889e-18
-3.93782e-16
2.9924e-16
1.45717e-16
9.45424e-17
-3.98986e-17
3.07913e-16
4.7011e-16
-6.07153e-18
2.87964e-16
3.40873e-16
-5.89806e-17
1.62197e-16
2.46504e-15
4.36283e-16
5.9501e-16
-4.03323e-16
1.00787e-15
1.51788e-16
8.43076e-16
7.80626e-17
7.51135e-16
-3.06179e-16
1.2039e-15
-1.46584e-16
6.26235e-16
-2.94903e-16
5.44703e-16
-9.54098e-17
-1.04083e-16
-2.96638e-16
-8.51749e-16
1.13624e-16
5.89806e-16
-2.07126e-15
-5.96745e-16
-2.14759e-15
2.06432e-16
-1.52656e-15
-4.7358e-16
-9.22873e-16
-1.2837e-16
-1.38778e-16
-2.06432e-16
3.12944e-15
-1.61329e-16
1.71044e-15
-2.72352e-16
-4.85723e-17
2.61943e-16
3.747e-16
2.39392e-16
4.26742e-16
-7.45931e-17
1.73472e-16
2.2031e-16
3.26128e-16
-2.41127e-16
6.93889e-18
2.39392e-16
1.66533e-16
2.08167e-16
4.64906e-16
-1.04083e-17
4.96131e-16
3.10516e-16
1.97758e-16
-1.9082e-17
-1.56125e-16
6.97359e-16
-2.42861e-16
5.37764e-17
1.35308e-16
1.21431e-17
-1.38778e-16
-2.48065e-16
-2.498e-16
-1.38778e-16
2.87964e-16
1.29757e-15
-1.14492e-16
-2.77556e-17
5.89806e-17
7.63278e-17
-3.88578e-16
1.38778e-16
4.75314e-16
-6.07153e-17
1.91687e-14
-1.99493e-16
1.01274e-11
3.1225e-17
5.04231e-09
2.49401e-14
1.60065e-06
4.58079e-12
8.97984e-05
1.09235e-10
0.000569285
4.89632e-11
0.00110182
1.06929e-10
0.00144542
-1.31566e-10
0.00163875
-2.50266e-10
0.00173501
-4.63054e-10
0.00177567
-4.32961e-10
0.0017908
-6.13115e-11
0.00179533
5.11118e-11
0.00179542
-1.42232e-10
0.00179615
-6.99821e-11
0.00179722
-2.59821e-10
0.00179719
-8.24155e-11
0.00179661
-6.59175e-11
0.00179655
-8.80664e-11
0.00179721
-1.31904e-10
0.00179715
-1.76165e-10
0.00179441
-2.17425e-10
0.00178525
-3.09241e-10
0.00176824
-3.58384e-10
0.00174772
-3.93791e-10
0.00173099
-3.29318e-10
0.00172179
-3.59701e-10
0.00171795
-3.41561e-10
0.00171661
-2.97947e-10
0.00171603
-2.307e-10
0.00171595
-1.74662e-10
0.00171687
-7.25629e-11
0.00171729
-4.45456e-11
0.00171669
-2.18145e-11
0.00171567
-7.01257e-11
0.00171012
-8.49119e-11
0.00168846
-3.47419e-11
0.00162573
-2.52239e-11
0.00146789
1.62565e-10
0.00112267
-2.864e-10
0.000517686
6.68537e-10
5.47871e-05
-6.70279e-11
5.66119e-07
8.84349e-11
1.36342e-09
1.43142e-12
2.49566e-12
5.9102e-15
2.80678e-15
6.53991e-16
-1.01308e-15
4.33681e-18
-4.57967e-16
-1.35308e-16
-1.66533e-16
2.90566e-16
-1.58554e-15
2.05565e-16
1.07553e-16
3.17454e-16
1.38778e-16
2.13371e-16
-2.18575e-16
7.56339e-16
1.37043e-16
-1.19696e-16
-1.56125e-16
2.30718e-16
-6.36644e-16
1.43115e-16
-1.37043e-16
1.61329e-16
-1.59595e-16
1.38778e-17
-1.56125e-17
2.26381e-16
-1.04083e-16
-1.30104e-17
3.98986e-17
3.03577e-16
3.72966e-16
-6.15827e-17
8.96852e-16
1.2837e-16
4.18068e-16
2.04697e-16
9.81853e-16
-2.32453e-16
6.93889e-16
3.22659e-16
5.37764e-16
-1.58727e-16
3.67761e-16
2.39392e-16
7.61544e-16
-2.68015e-16
1.12757e-15
-2.74086e-16
1.46237e-15
-5.68122e-16
2.02789e-15
-5.6552e-16
-6.50521e-16
-1.32186e-15
-6.80012e-16
-9.26342e-16
-3.34802e-16
-9.64506e-16
-3.17454e-16
-9.29812e-16
1.45717e-16
-5.68989e-16
-7.18176e-16
-7.38992e-16
-1.16226e-16
-1.04777e-15
9.36751e-17
-3.50414e-16
-3.7817e-16
-2.60209e-16
2.8276e-16
-7.97973e-17
-2.11636e-16
4.85723e-17
2.61943e-16
1.22125e-15
-2.25514e-17
-2.25514e-16
1.02349e-16
6.93889e-18
2.15106e-16
-6.83481e-16
-9.54098e-17
-2.08167e-16
-4.33681e-17
-2.39392e-16
1.12757e-16
5.20417e-16
-7.45931e-17
5.16948e-16
-2.55004e-16
-2.45637e-15
1.63064e-16
1.38778e-16
1.21431e-17
-3.40006e-16
1.19696e-16
-4.47559e-16
-3.10516e-16
-5.82867e-16
2.60209e-16
-6.93889e-17
-3.36536e-16
1.04083e-16
-8.32667e-17
3.71231e-16
6.245e-17
1.68511e-14
6.43582e-16
1.01268e-11
5.20417e-18
5.04294e-09
9.38138e-15
1.60072e-06
2.64712e-12
8.97992e-05
8.72003e-11
0.000569285
3.78767e-10
0.00110181
7.05478e-10
0.00144542
5.62201e-10
0.00163875
2.60362e-10
0.00173501
-5.93294e-11
0.00177567
-1.85878e-10
0.0017908
-1.83245e-10
0.00179533
-1.52747e-10
0.00179542
-2.75298e-10
0.00179615
-2.08822e-10
0.00179722
-2.49059e-10
0.00179719
-1.8437e-10
0.00179661
-1.67122e-10
0.00179655
-1.59742e-10
0.00179721
-7.72222e-11
0.00179715
-1.53759e-10
0.00179441
-2.04653e-10
0.00178525
-2.47996e-10
0.00176824
-2.67464e-10
0.00174772
-3.01798e-10
0.00173099
-2.57953e-10
0.00172179
-2.48546e-10
0.00171795
-2.4765e-10
0.00171661
-1.97708e-10
0.00171603
-1.39823e-10
0.00171595
-8.27976e-11
0.00171687
-6.79934e-11
0.00171729
-2.125e-12
0.00171669
1.95826e-11
0.00171567
3.2395e-11
0.00171012
-7.7427e-12
0.00168846
1.20236e-11
0.00162573
1.28141e-11
0.00146789
7.41647e-11
0.00112267
-2.48288e-11
0.000517685
-8.28359e-10
5.47867e-05
-1.68531e-09
5.66079e-07
-4.36144e-10
1.36324e-09
-8.74001e-12
2.49431e-12
-3.29762e-14
3.02189e-15
1.24466e-15
1.14492e-16
-4.64039e-16
-1.73472e-16
1.52656e-16
2.13371e-16
9.1073e-17
6.9042e-16
5.81132e-17
6.99094e-16
1.73472e-16
3.95517e-16
2.6975e-16
8.79505e-16
-1.2837e-16
-1.73472e-18
3.80772e-16
1.9082e-17
2.73219e-16
3.31332e-16
1.20563e-16
2.55004e-16
1.80411e-16
1.12757e-16
3.1225e-17
1.92554e-16
-2.60209e-17
2.32453e-16
-1.38778e-17
4.31946e-16
-7.11237e-17
5.15213e-16
1.5439e-16
4.12864e-16
1.77809e-16
5.10009e-16
1.09288e-16
4.61436e-16
-1.9082e-17
4.89192e-16
3.72966e-17
2.11636e-16
2.06432e-16
4.56232e-16
1.38778e-17
-2.46331e-16
7.3986e-16
-3.52149e-16
1.69136e-16
-7.38992e-16
1.09548e-15
-1.79023e-15
1.56992e-16
-1.88217e-16
-2.81025e-16
-6.48787e-16
-7.70217e-16
-1.31839e-16
-7.11237e-16
-3.57353e-16
-9.02056e-17
-4.05925e-16
2.01228e-16
2.77556e-17
3.53884e-16
2.01228e-16
1.21431e-16
1.21431e-16
2.67147e-16
1.42247e-16
0
1.00614e-16
-5.20417e-17
4.85723e-17
3.67761e-16
3.7817e-16
-3.46945e-17
2.22045e-16
-3.19189e-16
-1.07553e-16
-5.89806e-16
1.99007e-14
1.01304e-11
5.04333e-09
1.60078e-06
8.97999e-05
0.000569286
0.00110182
0.00144542
0.00163875
0.00173501
0.00177567
0.0017908
0.00179533
0.00179542
0.00179615
0.00179722
0.00179719
0.00179661
0.00179655
0.00179721
0.00179715
0.00179441
0.00178525
0.00176824
0.00174772
0.00173099
0.0017218
0.00171795
0.00171661
0.00171603
0.00171595
0.00171687
0.00171729
0.00171669
0.00171567
0.00171012
0.00168846
0.00162573
0.00146789
0.00112266
0.000517686
5.47888e-05
5.66179e-07
1.36376e-09
2.49271e-12
5.0758e-15
3.38271e-16
5.72459e-17
-1.04083e-16
3.1225e-17
1.249e-16
1.35308e-16
-2.7929e-16
-1.83881e-16
2.94903e-17
-6.59195e-17
5.20417e-18
-6.36644e-16
-2.37657e-16
1.21431e-17
7.28584e-17
3.26128e-16
5.88071e-16
2.67147e-16
1.42247e-16
1.40513e-16
1.56125e-16
1.70003e-16
9.24608e-16
8.1532e-16
9.02056e-17
6.76542e-17
)
;

boundaryField
{
    sides1
    {
        type            calculated;
        value           nonuniform List<scalar> 
20
(
5.63265e-15
-1.31839e-16
5.72112e-15
1.24553e-15
8.79505e-16
1.21084e-15
-1.90473e-15
3.50588e-15
-2.33841e-15
1.38778e-16
3.40006e-15
-8.88178e-16
4.70457e-15
-3.72272e-15
4.82947e-15
-1.17267e-15
1.64105e-15
3.36883e-15
1.48145e-15
3.1225e-17
)
;
    }
    sides2
    {
        type            calculated;
        value           uniform 0;
    }
    empty
    {
        type            empty;
        value           nonuniform 0();
    }
}


// ************************************************************************* //
