/*--------------------------------*- C++ -*----------------------------------*\
| =========                 |                                                 |
| \\      /  F ield         | OpenFOAM: The Open Source CFD Toolbox           |
|  \\    /   O peration     | Version:  2012                                  |
|   \\  /    A nd           | Website:  www.openfoam.com                      |
|    \\/     M anipulation  |                                                 |
\*---------------------------------------------------------------------------*/
FoamFile
{
    version     2.0;
    format      ascii;
    class       volScalarField;
    location    "0.6";
    object      p_rgh;
}
// * * * * * * * * * * * * * * * * * * * * * * * * * * * * * * * * * * * * * //

dimensions      [1 -1 -2 0 0 0 0];


internalField   nonuniform List<scalar> 
2268
(
101892
101894
101897
101902
101910
101919
101930
101944
101959
101978
101997
102020
102041
102066
102088
102113
102134
102156
102173
102191
102203
102213
102219
101892
101893
101897
101902
101909
101919
101930
101944
101959
101978
101997
102019
102041
102066
102088
102113
102134
102156
102174
102191
102204
102214
102219
101890
101892
101896
101901
101908
101917
101929
101942
101958
101977
101996
102019
102041
102066
102088
102114
102135
102157
102175
102193
102206
102217
102222
101889
101891
101894
101900
101907
101916
101928
101941
101957
101976
101995
102018
102040
102066
102089
102114
102135
102158
102176
102194
102208
102219
102225
101887
101889
101892
101897
101905
101914
101925
101939
101954
101973
101993
102017
102040
102066
102089
102115
102137
102161
102179
102198
102212
102223
102230
101885
101887
101890
101895
101903
101912
101923
101937
101953
101972
101991
102015
102039
102065
102090
102116
102138
102162
102181
102200
102215
102228
102235
101882
101883
101887
101892
101899
101908
101919
101933
101949
101968
101989
102013
102038
102065
102090
102117
102140
102165
102185
102204
102220
102232
102242
101877
101878
101882
101887
101895
101904
101916
101930
101946
101965
101986
102011
102036
102065
102091
102119
102142
102168
102188
102209
102226
102241
102251
102399
101702
101698
101655
101789
102080
102325
102144
101915
101814
101625
101447
101411
101398
101405
101446
101551
101987
102636
102153
101608
101657
101612
101743
102077
102435
102157
101886
101758
101563
101429
101391
101380
101385
101417
101485
101857
102441
101769
101592
101649
101605
101715
102059
102330
102128
101852
101778
101596
101340
101325
101320
101322
101332
101370
101677
102293
101769
101595
101646
101601
101653
101922
102404
102186
101930
101735
101449
101340
101316
101311
101309
101307
101315
101460
102120
101709
101593
101649
101605
101649
101819
102288
102138
101896
101851
101505
101318
101314
101310
101307
101307
101310
101373
101921
101835
101599
101647
101602
101674
101921
102236
102041
101790
101623
101395
101310
101311
101309
101307
101306
101307
101335
101820
101798
101595
101648
101604
101760
101972
102135
101929
101553
101397
101337
101305
101308
101308
101306
101306
101305
101322
101752
101841
101605
101655
101603
101877
102011
102081
101759
101383
101311
101304
101303
101305
101307
101306
101306
101305
101311
101702
101684
101687
101699
101717
101740
101766
101804
101842
101886
101933
101972
102006
102034
102064
102092
102121
102147
102174
102196
102216
102235
102248
102266
101328
101331
101335
101341
101352
101367
101389
101418
101462
101524
101617
101744
101885
102017
102097
102126
102153
102182
102206
102232
102251
102277
102288
101327
101327
101327
101327
101327
101327
101327
101327
101327
101327
101330
101349
101398
101492
101655
101845
102023
102187
102221
102240
102264
102278
102301
101327
101327
101327
101327
101327
101327
101327
101327
101327
101327
101327
101327
101327
101330
101343
101391
101456
101598
101801
101998
102172
102264
102309
101327
101327
101327
101327
101327
101327
101327
101327
101327
101327
101327
101327
101327
101327
101327
101327
101327
101331
101349
101358
101418
101519
101635
101327
101327
101327
101327
101327
101327
101327
101327
101327
101327
101327
101327
101327
101327
101327
101327
101327
101327
101327
101327
101327
101327
101327
101327
101327
101327
101327
101327
101327
101327
101327
101327
101327
101327
101327
101327
101327
101327
101327
101327
101327
101327
101327
101327
101327
101327
101327
101327
101326
101327
101326
101327
101326
101327
101326
101327
101327
101327
101327
101327
101327
101327
101327
101327
101327
101327
101327
101327
101327
101326
101326
101326
101326
101326
101326
101326
101326
101326
101327
101326
101327
101326
101327
101326
101327
101327
101327
101327
101327
101327
101327
101327
101326
101326
101326
101326
101326
101326
101326
101326
101326
101326
101326
101326
101326
101327
101326
101327
101327
101327
101327
101327
101327
101327
101327
101326
101326
101326
101326
101326
101326
101326
101326
101326
101326
101326
101326
101326
101326
101326
101326
101326
101327
101326
101327
101327
101327
101327
101326
101326
101326
101326
101326
101326
101326
101326
101326
101326
101326
101326
101326
101326
101326
101326
101326
101326
101326
101326
101326
101326
101326
101326
101326
101326
101326
101326
101326
101326
101326
101326
101326
101326
101326
101326
101326
101326
101326
101326
101326
101326
101326
101326
101326
101326
101326
101326
101326
101326
101326
101326
101326
101326
101326
101326
101326
101326
101326
101326
101326
101326
101326
101326
101326
101326
101326
101326
101326
101326
101326
101326
101326
101326
101326
101326
101326
101326
101326
101326
101326
101326
101326
101326
101326
101326
101326
101326
101326
101326
101326
101326
101326
101326
101326
101326
101326
101326
101326
101326
101326
101326
101326
101326
101326
101326
101326
101326
101326
101326
101326
101326
101326
101326
101326
101326
101326
101326
101326
101326
101326
101326
101326
101326
101326
101326
101326
101326
101326
101326
101326
101326
101326
101326
101326
101326
101326
101326
101326
101326
101326
101326
101326
101326
101326
101326
101326
101326
101326
101326
101326
101326
101326
101326
101326
101326
101326
101326
101326
101326
101326
101326
101326
101326
101326
101326
101326
101326
101326
101326
101326
101326
101326
101326
101326
101326
101326
101326
101326
101326
101326
101326
101326
101326
101326
101326
101326
101326
101326
101326
101326
101326
101326
101326
101326
101326
101326
101326
101326
101326
101326
101326
101326
101326
101326
101326
101326
101326
101326
101326
101326
101326
101326
101326
101326
101326
101326
101326
101326
101326
101326
101326
101326
101326
101326
101326
101326
101326
101326
101326
101326
101326
101326
101326
101326
101326
101326
101326
101326
101326
101326
101326
101326
101326
101326
101326
101326
101326
101326
101326
101326
101326
101326
101326
101326
101326
101326
101326
101326
101326
101326
101326
101326
101326
101326
101326
101326
101326
101326
101326
101326
101326
101326
101326
101326
101326
101326
101326
101326
101326
101326
101326
101326
101326
101326
101326
101326
101326
101326
101326
101326
101326
101326
101326
101326
101326
101326
101326
101326
101326
101326
101326
101326
101326
101326
101326
101326
101326
101326
101326
101326
101326
101326
101326
101326
101326
101326
101326
101326
101326
101326
101326
101326
101326
101326
101326
101326
101326
101326
101326
101326
101326
101326
101326
101326
101326
101326
101326
101326
101326
101326
101326
101326
101326
101326
101326
101326
101326
101326
101326
101326
101326
101326
101326
101326
101326
101326
101326
101326
101326
101326
101326
101326
101326
101326
101326
101326
101326
101326
101326
101326
101326
101326
101326
101326
101326
101326
101326
101326
101326
101326
101326
101326
101326
101326
101326
101326
101326
101326
101326
101326
101326
101326
101326
101326
101326
101326
101326
101326
101326
101326
101326
101326
101326
101326
101326
101326
101326
101326
101326
101326
101326
101326
101326
101326
101326
101326
101326
101326
101326
101326
101326
101326
101326
101326
101326
101326
101326
101326
101326
101326
101326
101326
101326
101326
101326
101326
101326
101326
101326
101326
101326
101326
101326
101326
101326
101326
101326
101326
101326
101326
101326
101326
101326
101326
101326
101327
101327
101327
101326
101326
101326
101326
101326
101326
101326
101326
101326
101326
101326
101326
101326
101326
101326
101326
101326
101326
101327
101327
101327
101327
101327
101326
101326
101326
101326
101326
101326
101326
101326
101326
101326
101326
101326
101326
101326
101326
101326
101326
101326
101326
101327
101327
101327
101327
101327
101326
101326
101326
101326
101326
101326
101326
101326
101326
101326
101326
101326
101326
101326
101326
101326
101326
101327
101327
101327
101327
101327
101326
101326
101326
101326
101326
101326
101326
101326
101326
101326
101326
101326
101326
101326
101326
101326
101326
101326
101326
101327
101327
101327
101327
101326
101326
101326
101326
101326
101326
101326
101326
101326
101326
101326
101326
101326
101326
101326
101326
101326
101326
101327
101327
101327
101327
101326
101326
101325
101325
101325
101325
101325
101325
101326
101326
101326
101326
101326
101326
101326
101326
101326
101326
101326
101326
101326
101326
101326
101326
101326
101325
101325
101325
101325
101325
101325
101326
101326
101326
101326
101326
101326
101326
101326
101326
101326
101326
101326
101326
101326
101326
101326
101326
101325
101325
101325
101325
101325
101325
101325
101325
101325
101325
101325
101326
101326
101326
101326
101326
101326
101326
101326
101326
101326
101326
101326
101325
101325
101325
101325
101325
101325
101325
101325
101325
101325
101325
101326
101326
101326
101326
101326
101326
101326
101326
101326
101326
101326
101325
101325
101325
101325
101325
101325
101325
101325
101325
101325
101325
101325
101325
101325
101325
101325
101325
101326
101325
101326
101325
101325
101325
101325
101325
101325
101325
101325
101325
101325
101325
101325
101325
101325
101325
101325
101325
101325
101325
101325
101326
101325
101325
101325
101325
101325
101325
102268
102286
102275
102241
102315
102312
102332
102310
102306
102313
102319
102321
102330
102331
102342
102337
101744
101786
101826
101850
101327
101327
101327
101327
101327
101327
101327
101327
101327
101327
101327
101327
101327
101327
101327
101327
101327
101327
101327
101327
101327
101327
101327
101327
101326
101326
101326
101326
101326
101326
101326
101326
101326
101326
101326
101325
101326
101326
101326
101325
101326
101326
101325
101325
101326
101326
101325
101325
101326
101326
101326
101325
101326
101326
101326
101325
101326
101326
101326
101326
101326
101326
101326
101326
101326
101326
101326
101326
101326
101326
101326
101326
101326
101326
101326
101326
101326
101326
101326
101326
101326
101326
101326
101326
101326
101326
101326
101326
101326
101326
101326
101326
101326
101326
101326
101326
101326
101326
101326
101326
101326
101326
101326
101326
101326
101326
101326
101326
101326
101326
101326
101326
101326
101326
101326
101326
101326
101326
101326
101326
101326
101326
101326
101326
101326
101326
101326
101325
101326
101326
101325
101325
101326
101325
101325
101325
101325
101325
101325
101325
101325
101325
101325
101325
101325
101325
101325
101325
101849
101647
101690
101753
102088
102052
102023
101526
101314
101301
101301
101302
101304
101307
101306
101306
101305
101307
101747
102318
102133
102224
102205
102227
102110
101804
101339
101301
101301
101301
101301
101304
101306
101306
101306
101305
101326
101834
102337
102313
102337
102305
102327
102192
101556
101305
101301
101301
101301
101302
101304
101305
101305
101305
101305
101352
101944
102365
102333
102356
102342
102383
102228
101420
101303
101301
101301
101302
101302
101304
101304
101305
101305
101305
101365
102051
102015
102075
102144
102242
102452
102233
101390
101304
101302
101302
101303
101303
101304
101304
101305
101305
101305
101371
102158
101327
101347
101428
101660
102279
102303
101437
101304
101304
101303
101304
101303
101303
101304
101304
101305
101305
101381
102286
101327
101328
101328
101384
101998
102393
101474
101305
101305
101305
101305
101305
101304
101304
101305
101305
101305
101465
102481
101327
101327
101328
101332
101582
102260
101786
101305
101306
101306
101306
101306
101304
101304
101305
101305
101305
101788
102704
101327
101328
101328
101327
101364
101944
102198
101617
101306
101308
101307
101307
101306
101305
101306
101305
101306
102203
102908
101327
101329
101337
101343
101326
101531
102277
102329
101545
101308
101310
101326
101385
101315
101310
101319
101587
102634
103070
101327
101327
101356
101598
101691
101614
102054
102449
102366
101978
101982
102203
102253
102236
102070
102114
102533
102752
103126
101326
101324
101339
101842
102191
102165
102171
102306
102744
102759
102640
102264
101888
101887
102128
101992
101892
101877
102969
101325
101323
101326
101365
101755
102293
102601
102767
102776
102768
102743
101998
101829
101659
101683
101805
101968
102447
103276
101325
101323
101323
101323
101324
101324
101333
101907
102322
102470
102669
103094
103055
102871
103067
103339
103416
103360
103484
101325
101324
101324
101324
101324
101324
101324
101323
101324
101323
101324
101720
102283
102830
103242
103579
103581
103564
103561
101325
101324
101324
101324
101325
101324
101324
101323
101323
101324
101324
101324
101324
101324
101545
102572
103686
103703
103664
101325
101325
101325
101324
101324
101324
101324
101323
101323
101323
101324
101324
101325
101324
101325
101550
103396
103802
103803
101325
101325
101325
101325
101324
101324
101324
101323
101323
101324
101324
101324
101325
101324
101326
101333
102388
103925
103935
101325
101325
101325
101325
101325
101324
101324
101324
101324
101324
101324
101324
101325
101325
101325
101336
101667
103274
103918
101325
101325
101325
101325
101325
101324
101324
101324
101324
101324
101325
101325
101325
101325
101325
101328
101344
101642
102262
101325
101325
101325
101325
101325
101325
101325
101324
101325
101325
101325
101325
101325
101325
101326
101326
101326
101327
101601
101326
101325
101325
101325
101325
101325
101325
101325
101325
101325
101325
101325
101325
101325
101326
101326
101327
101345
101641
101326
101326
101325
101325
101325
101325
101325
101325
101325
101325
101325
101325
101325
101325
101326
101326
101326
101336
101740
101326
101326
101325
101325
101325
101325
101325
101325
101325
101325
101325
101325
101325
101325
101326
101328
101334
101394
101587
101326
101326
101326
101325
101325
101325
101325
101325
101325
101325
101325
101325
101325
101324
101327
101409
101626
102005
101553
101326
101326
101326
101325
101325
101325
101325
101325
101325
101325
101325
101325
101325
101325
101327
101486
102178
102180
101729
101326
101326
101326
101326
101325
101325
101325
101325
101325
101325
101325
101325
101325
101324
101327
101462
101861
102207
102206
101326
101326
101326
101326
101325
101325
101325
101325
101325
101325
101325
101325
101324
101324
101327
101336
101322
101735
102241
101326
101326
101326
101326
101325
101325
101325
101325
101325
101325
101324
101324
101324
101324
101327
101323
101322
101323
102171
101326
101326
101326
101325
101325
101325
101325
101325
101325
101325
101324
101324
101324
101324
101325
101323
101323
101323
103064
101326
101326
101326
101325
101325
101325
101325
101325
101324
101324
101324
101324
101323
101324
101324
101323
101322
101323
103116
101326
101326
101325
101325
101325
101325
101324
101324
101324
101324
101324
101324
101323
101323
101324
101323
101322
101323
103168
101326
101326
101325
101325
101324
101324
101324
101324
101324
101324
101324
101324
101323
101323
101323
101323
101322
101323
103220
101326
101325
101325
101324
101324
101323
101323
101323
101324
101324
101324
101324
101323
101323
101323
101323
101322
101323
102973
101326
101325
101324
101324
101324
101323
101323
101323
101323
101324
101324
101324
101323
101323
101323
101323
101322
101323
102223
101325
101325
101324
101324
101323
101322
101322
101322
101323
101323
101323
101324
101323
101324
101323
101323
101323
101324
102048
101325
101324
101324
101323
101322
101321
101322
101322
101323
101323
101323
101324
101324
101324
101324
101324
101323
101324
102049
101325
101324
101323
101323
101322
101321
101321
101322
101322
101323
101323
101324
101324
101324
101324
101324
101324
101324
101973
101325
101324
101324
101323
101323
101322
101322
101323
101323
101324
101324
101324
101324
101324
101324
101324
101324
101324
101955
101325
101324
101324
101323
101323
101323
101323
101323
101323
101324
101324
101324
101324
101324
101325
101325
101325
101325
101898
101325
101325
101324
101324
101324
101324
101324
101324
101324
101324
101325
101325
101325
101325
101324
101325
101324
101324
101497
101325
101325
101324
101324
101324
101324
101324
101324
101324
101324
101324
101325
101325
101325
101325
101325
101325
101325
101338
)
;

boundaryField
{
    leftWall
    {
        type            zeroGradient;
    }
    rightWall
    {
        type            zeroGradient;
    }
    lowerWall
    {
        type            zeroGradient;
    }
    atmosphere
    {
        type            fixedValue;
        value           uniform 101325;
    }
    defaultFaces
    {
        type            empty;
    }
}


// ************************************************************************* //
