/*--------------------------------*- C++ -*----------------------------------*\
| =========                 |                                                 |
| \\      /  F ield         | OpenFOAM: The Open Source CFD Toolbox           |
|  \\    /   O peration     | Version:  2012                                  |
|   \\  /    A nd           | Website:  www.openfoam.com                      |
|    \\/     M anipulation  |                                                 |
\*---------------------------------------------------------------------------*/
FoamFile
{
    version     2.0;
    format      ascii;
    class       volScalarField;
    location    "0.6";
    object      pcorr;
}
// * * * * * * * * * * * * * * * * * * * * * * * * * * * * * * * * * * * * * //

dimensions      [1 -1 -2 0 0 0 0];


internalField   nonuniform List<scalar> 
2268
(
101255
101255
101253
101251
101249
101245
101239
101231
101221
101207
101188
101163
101131
101090
101039
100977
100901
100813
100713
100605
100500
100411
100359
101255
101255
101253
101252
101249
101245
101239
101232
101222
101208
101189
101165
101133
101093
101042
100979
100904
100815
100714
100605
100496
100403
100347
101255
101255
101254
101252
101249
101246
101240
101233
101223
101210
101192
101168
101137
101097
101047
100985
100910
100821
100718
100604
100489
100387
100323
101256
101255
101254
101253
101250
101247
101242
101235
101226
101213
101196
101173
101143
101104
101055
100994
100919
100829
100723
100604
100479
100362
100285
101256
101256
101255
101253
101251
101248
101244
101237
101229
101217
101201
101179
101151
101113
101066
101006
100931
100841
100732
100606
100466
100329
100229
101257
101256
101256
101254
101252
101250
101246
101240
101233
101222
101207
101187
101160
101125
101079
101021
100947
100856
100745
100610
100454
100286
100151
101258
101257
101257
101255
101254
101251
101248
101244
101237
101228
101215
101197
101172
101139
101095
101039
100967
100877
100763
100620
100443
100237
100043
101258
101258
101257
101257
101255
101254
101251
101248
101243
101235
101224
101208
101185
101155
101114
101061
100992
100902
100787
100636
100440
100185
99891.6
94740.6
94885.4
94896.5
94892.8
94818.8
94683.1
94503.7
94465.3
94587.1
94762.6
94958.3
95142.7
95205.4
95219.2
95213.7
95204.5
95185
95098.8
94919.4
94825.3
94910.3
94913.2
94909.1
94848.2
94711.8
94536.4
94501.1
94635.6
94818
95035.2
95222.9
95267.6
95273.1
95265.1
95254
95233.6
95133.4
94948.3
94907.5
94911.9
94914.5
94913.8
94901.6
94774.3
94611.1
94569.7
94666.5
94847.2
95117.4
95266.5
95291
95294.9
95295.9
95294.9
95288.6
95200.7
95004.8
94908.7
94913
94915.6
94915.6
94912.8
94865.7
94734.6
94650.2
94692.1
94904.6
95194.8
95275.6
95293.2
95296.6
95297.1
95296
95291.8
95272.2
95083.9
94909.9
94914.6
94917.1
94916.9
94914.2
94912.8
94866.3
94815.3
94876.9
95025.4
95232.9
95284.2
95295.4
95297.9
95298.1
95296.9
95293.9
95281.6
95154.3
94909.8
94916.7
94918.8
94918.5
94914.7
94986.7
95000.8
94972.7
95074.4
95206
95278
95292.5
95298
95299.4
95299.2
95298
95295.7
95288.4
95211
94936.8
94923.2
94920.9
94920.3
94919.2
95194.9
95147.7
95103.1
95208.4
95293.2
95303.3
95299.8
95300.8
95301.1
95300.6
95299.2
95297.2
95292.5
95258.4
95011.5
94945.1
94924
94922.3
94929.5
95551.5
95296
95198.8
95280.7
95310.3
95310.4
95305.6
95303.6
95303.1
95302.1
95300.6
95298.6
95295.1
95285.2
101259
101259
101259
101258
101258
101257
101255
101254
101251
101247
101239
101227
101209
101184
101148
101100
101037
100952
100837
100679
100454
100117
99552.4
101260
101259
101259
101259
101259
101258
101258
101257
101256
101255
101254
101251
101244
101231
101207
101171
101120
101048
100948
100804
100588
100253
99715.2
101260
101260
101259
101259
101259
101258
101258
101257
101256
101256
101255
101253
101252
101250
101246
101234
101214
101173
101104
101003
100843
100593
100209
101260
101260
101259
101259
101259
101258
101258
101257
101256
101255
101254
101253
101252
101251
101248
101246
101243
101239
101228
101213
101163
101057
100879
101260
101260
101260
101259
101259
101258
101258
101257
101256
101255
101254
101253
101252
101250
101248
101246
101243
101241
101236
101231
101226
101220
101214
101260
101260
101260
101260
101259
101259
101258
101257
101257
101256
101254
101253
101252
101250
101248
101246
101243
101240
101236
101232
101227
101222
101216
101261
101261
101260
101260
101260
101259
101259
101258
101257
101256
101255
101253
101252
101250
101248
101246
101243
101240
101236
101232
101228
101223
101217
101261
101261
101261
101261
101260
101260
101259
101258
101257
101256
101255
101254
101252
101251
101248
101246
101244
101241
101237
101233
101229
101225
101219
101262
101262
101262
101261
101261
101260
101260
101259
101258
101257
101256
101255
101253
101251
101249
101247
101245
101242
101239
101235
101231
101227
101222
101263
101263
101262
101262
101262
101261
101261
101260
101259
101258
101257
101255
101254
101252
101250
101248
101246
101243
101240
101237
101234
101230
101226
101264
101264
101263
101263
101263
101262
101261
101261
101260
101259
101258
101256
101255
101253
101251
101249
101247
101245
101242
101239
101236
101233
101229
101265
101265
101264
101264
101264
101263
101262
101262
101261
101260
101259
101258
101256
101255
101253
101251
101249
101247
101244
101242
101239
101236
101233
101266
101266
101265
101265
101265
101264
101264
101263
101262
101261
101260
101259
101258
101256
101254
101253
101251
101249
101247
101244
101242
101240
101237
101267
101267
101267
101266
101266
101265
101265
101264
101263
101262
101261
101260
101259
101258
101256
101255
101253
101251
101249
101247
101245
101243
101241
101268
101268
101268
101268
101267
101267
101266
101266
101265
101264
101263
101262
101261
101259
101258
101257
101255
101253
101252
101250
101248
101246
101245
101269
101269
101269
101269
101269
101268
101268
101267
101266
101266
101265
101264
101263
101261
101260
101259
101257
101256
101254
101253
101251
101250
101248
101271
101271
101271
101270
101270
101270
101269
101269
101268
101267
101266
101265
101264
101263
101262
101261
101260
101258
101257
101255
101254
101253
101251
101272
101272
101272
101272
101272
101271
101271
101270
101270
101269
101268
101267
101266
101265
101264
101263
101262
101261
101259
101258
101257
101256
101255
101274
101274
101274
101274
101273
101273
101273
101272
101271
101271
101270
101269
101268
101267
101266
101265
101264
101263
101262
101261
101260
101259
101258
101276
101276
101276
101275
101275
101275
101274
101274
101273
101273
101272
101271
101270
101270
101269
101268
101267
101266
101265
101264
101263
101262
101261
101278
101277
101277
101277
101277
101277
101276
101276
101275
101275
101274
101273
101273
101272
101271
101270
101269
101268
101267
101266
101265
101265
101264
101279
101279
101279
101279
101279
101278
101278
101278
101277
101277
101276
101275
101275
101274
101273
101272
101272
101271
101270
101269
101268
101267
101267
101281
101281
101281
101281
101281
101280
101280
101280
101279
101279
101278
101278
101277
101276
101276
101275
101274
101273
101273
101272
101271
101270
101269
101283
101283
101283
101283
101283
101282
101282
101282
101281
101281
101280
101280
101279
101279
101278
101277
101277
101276
101275
101275
101274
101273
101272
101285
101285
101285
101285
101285
101284
101284
101284
101283
101283
101283
101282
101282
101281
101280
101280
101279
101279
101278
101277
101277
101276
101275
101287
101287
101287
101287
101287
101287
101286
101286
101286
101285
101285
101284
101284
101283
101283
101282
101282
101281
101281
101280
101279
101279
101278
101289
101289
101289
101289
101289
101289
101288
101288
101288
101287
101287
101287
101286
101286
101285
101285
101284
101284
101283
101283
101282
101282
101281
101291
101291
101291
101291
101291
101291
101291
101290
101290
101290
101289
101289
101289
101288
101288
101287
101287
101286
101286
101285
101285
101284
101284
101294
101294
101293
101293
101293
101293
101293
101293
101292
101292
101292
101291
101291
101291
101290
101290
101289
101289
101289
101288
101288
101287
101287
101296
101296
101296
101296
101295
101295
101295
101295
101295
101294
101294
101294
101293
101293
101293
101292
101292
101292
101291
101291
101290
101290
101290
101298
101298
101298
101298
101298
101298
101297
101297
101297
101297
101297
101296
101296
101296
101295
101295
101295
101294
101294
101294
101293
101293
101292
101300
101300
101300
101300
101300
101300
101300
101300
101299
101299
101299
101299
101298
101298
101298
101298
101297
101297
101297
101296
101296
101296
101295
101303
101303
101302
101302
101302
101302
101302
101302
101302
101302
101301
101301
101301
101301
101300
101300
101300
101300
101299
101299
101299
101298
101298
101305
101305
101305
101305
101305
101305
101304
101304
101304
101304
101304
101304
101303
101303
101303
101303
101302
101302
101302
101302
101301
101301
101301
101307
101307
101307
101307
101307
101307
101307
101307
101307
101306
101306
101306
101306
101306
101306
101305
101305
101305
101305
101304
101304
101304
101304
101310
101309
101309
101309
101309
101309
101309
101309
101309
101309
101309
101309
101308
101308
101308
101308
101308
101308
101307
101307
101307
101307
101307
101312
101312
101312
101312
101312
101312
101312
101312
101311
101311
101311
101311
101311
101311
101311
101311
101310
101310
101310
101310
101310
101310
101309
101314
101314
101314
101314
101314
101314
101314
101314
101314
101314
101314
101314
101314
101313
101313
101313
101313
101313
101313
101313
101313
101312
101312
101317
101317
101317
101317
101317
101317
101316
101316
101316
101316
101316
101316
101316
101316
101316
101316
101316
101316
101315
101315
101315
101315
101315
101319
101319
101319
101319
101319
101319
101319
101319
101319
101319
101319
101319
101319
101319
101318
101318
101318
101318
101318
101318
101318
101318
101318
101321
101321
101321
101321
101321
101321
101321
101321
101321
101321
101321
101321
101321
101321
101321
101321
101321
101321
101321
101321
101321
101321
101321
101324
101324
101324
101324
101324
101324
101324
101324
101324
101324
101324
101324
101324
101324
101324
101324
101324
101324
101324
101324
101324
101324
101324
98682.1
98036.2
97266.6
96371.5
99077.5
98596.7
98042.1
97414.9
99794.1
99489.6
99149.4
98780.5
100682
100540
100382
100208
101208
101205
101201
101198
101211
101208
101205
101202
101213
101210
101207
101203
101215
101212
101209
101206
101218
101216
101213
101210
101222
101220
101218
101215
101227
101225
101223
101221
101231
101230
101229
101227
101236
101235
101234
101233
101240
101239
101238
101238
101244
101243
101242
101242
101247
101247
101246
101246
101250
101250
101249
101249
101254
101253
101253
101252
101257
101256
101256
101256
101260
101260
101259
101259
101263
101263
101262
101262
101266
101266
101265
101265
101269
101269
101268
101268
101272
101272
101271
101271
101275
101274
101274
101274
101278
101277
101277
101277
101281
101280
101280
101280
101283
101283
101283
101283
101286
101286
101286
101286
101289
101289
101289
101289
101292
101292
101292
101292
101295
101295
101295
101295
101298
101298
101298
101297
101301
101301
101300
101300
101304
101303
101303
101303
101306
101306
101306
101306
101309
101309
101309
101309
101312
101312
101312
101312
101315
101315
101315
101315
101318
101318
101318
101318
101321
101321
101321
101321
101324
101324
101324
101324
95278.5
95019.4
94935.2
94925.7
95298.5
96439.3
95488.3
95296.1
95316.3
95316.8
95315.1
95311.4
95308
95306.2
95304.6
95302.8
95300.8
95297.6
95294.8
96300.4
95367.8
95234.2
95761.6
95862.9
95914.6
95351.2
95323.1
95323.7
95321.7
95319.3
95316.1
95312.9
95310.4
95308.2
95306
95303.8
95298.9
95279.7
98139.3
97476.3
97150.4
96944.9
96505.6
96014
95335.8
95332.3
95329.3
95326.6
95323.6
95320.4
95317.2
95314.4
95311.8
95309.3
95307
95302.4
95268.9
99878.7
99464.5
99010.4
98316.9
97191.4
95751.2
95339.5
95338.3
95335
95331.7
95328.2
95324.7
95321.2
95318.1
95315.2
95312.6
95310.1
95305.5
95268
101192
101107
100760
99866.9
98144.5
95798.4
95347.9
95344.3
95340.8
95336.9
95332.8
95328.9
95325.1
95321.7
95318.5
95315.7
95313.2
95308.6
95271.9
101196
101187
101157
100867
99443.5
96228.2
95358.7
95351.6
95346.9
95342.1
95337.4
95332.9
95328.7
95324.9
95321.6
95318.6
95316.1
95311.6
95277.7
101197
101186
101171
101139
100638
97053.4
95374.5
95359.8
95353
95347.2
95341.8
95336.7
95332
95327.9
95324.3
95321.2
95318.7
95314.9
95281.6
101200
101189
101174
101153
101071
98975.2
95397.4
95367.6
95358.4
95351.9
95345.9
95340.2
95334.8
95330.3
95326.5
95323.4
95320.9
95318
95299.8
101204
101194
101176
101152
101109
100624
97139.9
95374.1
95361.9
95356.1
95349.8
95343.3
95337.1
95332.2
95328.3
95325
95322.3
95320.1
95350.7
101211
101203
101187
101148
101065
100853
99078.8
96252.8
95368.7
95360.8
95355
95348.2
95339.2
95334.5
95330.1
95326.6
95322.2
95347.1
95462.6
101218
101214
101209
101171
101052
100684
99702.7
97873.9
96141.5
95371
95365.5
95398.4
95520.5
95373.9
95343.3
95350.8
95509.7
95655.5
95704.1
101225
101224
101226
101225
101097
100789
100193
99150.7
98007.9
97112.9
96787.1
96719.3
96580.9
96443.6
96266.9
96075.2
95999
95976.4
96025.6
101232
101231
101234
101237
101238
101235
101197
100434
99808.8
99282.6
98761.8
98111.7
97585.8
97269.4
97012.8
96735.8
96526.2
96446.9
96619.6
101237
101237
101238
101239
101239
101237
101234
101230
101225
101220
101208
100118
99167.1
98486.7
98016.8
97643.8
97404.3
97391
97504.9
101241
101241
101241
101241
101241
101239
101237
101235
101232
101228
101225
101221
101216
101210
100626
99679.8
98956.7
98607.5
98507.7
101245
101244
101244
101244
101243
101242
101240
101238
101235
101233
101230
101229
101226
101224
101219
100958
100226
99662
99432.2
101248
101248
101247
101246
101245
101244
101243
101241
101239
101237
101235
101233
101232
101230
101229
101224
101010
100445
100177
101252
101251
101250
101249
101248
101247
101246
101244
101243
101241
101240
101238
101237
101236
101235
101234
101225
100939
100713
101255
101254
101253
101252
101251
101250
101249
101248
101247
101245
101244
101243
101242
101241
101241
101242
101244
101176
101055
101258
101257
101256
101256
101255
101254
101253
101251
101250
101249
101248
101247
101246
101246
101246
101248
101250
101249
101191
101261
101260
101260
101259
101258
101257
101256
101255
101254
101253
101252
101251
101251
101250
101250
101251
101252
101251
101250
101264
101263
101263
101262
101261
101260
101259
101259
101258
101257
101256
101255
101255
101254
101254
101254
101254
101253
101254
101267
101267
101266
101265
101264
101264
101263
101262
101261
101261
101260
101259
101259
101258
101257
101256
101256
101257
101255
101270
101270
101269
101268
101268
101267
101266
101266
101265
101264
101264
101263
101263
101262
101261
101259
101259
101262
101266
101273
101273
101272
101271
101271
101270
101270
101269
101269
101268
101268
101267
101267
101266
101265
101263
101266
101272
101287
101276
101276
101275
101275
101274
101274
101273
101273
101272
101272
101271
101271
101271
101271
101270
101270
101263
101279
101310
101279
101279
101278
101278
101277
101277
101276
101276
101276
101275
101275
101275
101275
101275
101276
101279
101284
101267
101294
101282
101282
101281
101281
101281
101280
101280
101279
101279
101279
101279
101279
101279
101280
101281
101285
101287
101287
101285
101285
101285
101285
101284
101284
101283
101283
101283
101283
101282
101282
101283
101283
101284
101285
101288
101289
101290
101292
101288
101288
101288
101287
101287
101287
101286
101286
101286
101286
101286
101286
101287
101287
101289
101290
101290
101291
101290
101291
101291
101291
101290
101290
101290
101289
101289
101289
101289
101289
101290
101290
101290
101291
101292
101292
101292
101292
101294
101294
101294
101293
101293
101293
101293
101293
101292
101292
101293
101293
101293
101293
101294
101294
101294
101294
101294
101297
101297
101297
101296
101296
101296
101296
101296
101296
101296
101296
101296
101296
101296
101297
101297
101297
101296
101295
101300
101300
101300
101299
101299
101299
101299
101299
101299
101299
101299
101299
101299
101299
101299
101299
101299
101299
101296
101303
101303
101303
101302
101302
101302
101302
101302
101302
101302
101302
101302
101302
101302
101302
101302
101302
101302
101300
101306
101306
101306
101305
101305
101305
101305
101305
101305
101305
101305
101305
101305
101305
101305
101305
101305
101305
101304
101309
101309
101309
101309
101308
101308
101308
101308
101308
101308
101308
101308
101308
101308
101308
101308
101308
101308
101307
101312
101312
101312
101312
101312
101312
101311
101311
101311
101311
101311
101311
101311
101311
101311
101311
101311
101311
101310
101315
101315
101315
101315
101315
101315
101315
101314
101314
101314
101314
101314
101314
101314
101314
101314
101314
101314
101313
101318
101318
101318
101318
101318
101318
101318
101317
101317
101317
101317
101317
101317
101317
101317
101317
101317
101317
101316
101321
101321
101321
101321
101321
101321
101321
101320
101320
101320
101320
101320
101320
101320
101320
101320
101320
101320
101321
101324
101324
101324
101324
101324
101324
101324
101323
101323
101323
101323
101323
101323
101323
101323
101323
101323
101324
101324
)
;

boundaryField
{
    leftWall
    {
        type            zeroGradient;
    }
    rightWall
    {
        type            zeroGradient;
    }
    lowerWall
    {
        type            zeroGradient;
    }
    atmosphere
    {
        type            fixedValue;
        value           uniform 101325;
    }
    defaultFaces
    {
        type            empty;
    }
}


// ************************************************************************* //
