/*--------------------------------*- C++ -*----------------------------------*\
| =========                 |                                                 |
| \\      /  F ield         | OpenFOAM: The Open Source CFD Toolbox           |
|  \\    /   O peration     | Version:  2012                                  |
|   \\  /    A nd           | Website:  www.openfoam.com                      |
|    \\/     M anipulation  |                                                 |
\*---------------------------------------------------------------------------*/
FoamFile
{
    version     2.0;
    format      ascii;
    class       surfaceScalarField;
    location    "0.6";
    object      phi;
}
// * * * * * * * * * * * * * * * * * * * * * * * * * * * * * * * * * * * * * //

dimensions      [0 3 -1 0 0 0 0];
oriented        oriented;


internalField   nonuniform List<scalar> 
4432
(
1.16761e-06
-1.16761e-06
2.46209e-06
-1.29448e-06
3.58136e-06
-1.11927e-06
4.46366e-06
-8.82306e-07
5.20385e-06
-7.40185e-07
6.08474e-06
-8.80895e-07
6.78299e-06
-6.98245e-07
7.08406e-06
-3.01076e-07
7.29508e-06
-2.11019e-07
7.30476e-06
-9.68011e-09
7.06935e-06
2.3541e-07
6.69264e-06
3.76709e-07
6.29474e-06
3.97898e-07
5.92454e-06
3.70197e-07
5.49199e-06
4.32541e-07
4.98493e-06
5.07061e-07
4.45299e-06
5.31942e-07
3.96894e-06
4.84037e-07
3.49387e-06
4.75072e-07
3.01141e-06
4.82457e-07
2.42559e-06
5.85815e-07
1.86636e-06
5.59214e-07
1.86633e-06
1.15463e-06
-2.32224e-06
2.45294e-06
-2.59279e-06
3.59568e-06
-2.26201e-06
4.51057e-06
-1.79719e-06
5.26856e-06
-1.49818e-06
6.13662e-06
-1.74895e-06
6.81354e-06
-1.37516e-06
7.11229e-06
-5.9983e-07
7.36926e-06
-4.67987e-07
7.36441e-06
-4.83244e-09
7.08995e-06
5.09868e-07
6.75034e-06
7.16321e-07
6.33804e-06
8.10198e-07
5.91548e-06
7.92747e-07
5.45245e-06
8.95577e-07
4.94697e-06
1.01254e-06
4.44278e-06
1.03613e-06
3.95847e-06
9.68337e-07
3.40986e-06
1.02368e-06
2.74839e-06
1.14393e-06
1.81186e-06
1.52234e-06
6.36658e-07
1.73441e-06
2.50294e-06
1.14349e-06
-3.46573e-06
2.46279e-06
-3.91209e-06
3.63363e-06
-3.43285e-06
4.59442e-06
-2.75799e-06
5.38431e-06
-2.28807e-06
6.22453e-06
-2.58917e-06
6.84353e-06
-1.99417e-06
7.14674e-06
-9.03036e-07
7.38574e-06
-7.06992e-07
7.35781e-06
2.30992e-08
7.11264e-06
7.55037e-07
6.81668e-06
1.01229e-06
6.42856e-06
1.19831e-06
5.9859e-06
1.2354e-06
5.49615e-06
1.38533e-06
4.99422e-06
1.51447e-06
4.5493e-06
1.48104e-06
4.16345e-06
1.35418e-06
3.72747e-06
1.45965e-06
3.17623e-06
1.69516e-06
2.38528e-06
2.31328e-06
1.23335e-06
2.88633e-06
3.73625e-06
1.15592e-06
-4.62165e-06
2.49473e-06
-5.2509e-06
3.68156e-06
-4.61968e-06
4.69792e-06
-3.77435e-06
5.54291e-06
-3.13306e-06
6.36687e-06
-3.41314e-06
6.94851e-06
-2.57581e-06
7.30635e-06
-1.26087e-06
7.56006e-06
-9.6071e-07
7.52474e-06
5.84262e-08
7.27973e-06
1.00004e-06
6.91916e-06
1.37286e-06
6.42942e-06
1.68805e-06
5.885e-06
1.77982e-06
5.36015e-06
1.91017e-06
4.88122e-06
1.9934e-06
4.47296e-06
1.88931e-06
4.06361e-06
1.76353e-06
3.61348e-06
1.90978e-06
3.06706e-06
2.24157e-06
2.33593e-06
3.04441e-06
1.07577e-06
4.14648e-06
4.81197e-06
1.20347e-06
-5.82512e-06
2.52677e-06
-6.57419e-06
3.73359e-06
-5.8265e-06
4.8082e-06
-4.84895e-06
5.72818e-06
-4.05305e-06
6.52886e-06
-4.21381e-06
7.04631e-06
-3.09326e-06
7.42559e-06
-1.64015e-06
7.63243e-06
-1.16755e-06
7.53957e-06
1.51283e-07
7.32254e-06
1.21707e-06
6.99713e-06
1.69828e-06
6.54576e-06
2.13942e-06
6.04064e-06
2.28494e-06
5.50428e-06
2.44653e-06
4.97526e-06
2.52241e-06
4.5893e-06
2.27526e-06
4.26553e-06
2.0873e-06
3.90764e-06
2.26766e-06
3.43282e-06
2.71638e-06
2.77261e-06
3.70461e-06
1.71031e-06
5.20878e-06
6.52226e-06
1.30733e-06
-7.13246e-06
2.56323e-06
-7.83009e-06
3.78776e-06
-7.05104e-06
4.9285e-06
-5.98969e-06
5.94363e-06
-5.06818e-06
6.75128e-06
-5.02147e-06
7.27604e-06
-3.61802e-06
7.75908e-06
-2.12319e-06
7.98997e-06
-1.39844e-06
7.84475e-06
2.96501e-07
7.57677e-06
1.48505e-06
7.14708e-06
2.12796e-06
6.52009e-06
2.7664e-06
5.87143e-06
2.9336e-06
5.29412e-06
3.02385e-06
4.77563e-06
3.04089e-06
4.43924e-06
2.61165e-06
4.1408e-06
2.38574e-06
3.85136e-06
2.5571e-06
3.41167e-06
3.15606e-06
2.84282e-06
4.27346e-06
1.78808e-06
6.26351e-06
8.31033e-06
1.41813e-06
-8.55059e-06
2.63056e-06
-9.04252e-06
3.85824e-06
-8.27872e-06
5.07762e-06
-7.20907e-06
6.19584e-06
-6.1864e-06
6.99061e-06
-5.81625e-06
7.49719e-06
-4.1246e-06
7.97686e-06
-2.60286e-06
8.08479e-06
-1.50637e-06
7.86596e-06
5.15324e-07
7.62449e-06
1.72652e-06
7.25891e-06
2.49355e-06
6.72369e-06
3.30162e-06
6.14407e-06
3.51322e-06
5.53134e-06
3.63657e-06
4.87204e-06
3.70018e-06
4.49538e-06
2.9883e-06
4.29055e-06
2.59056e-06
4.15594e-06
2.69171e-06
3.83542e-06
3.47657e-06
3.40689e-06
4.70199e-06
2.67952e-06
6.99086e-06
1.09898e-05
1.51998e-06
-1.00706e-05
2.75006e-06
-1.02727e-05
4.0075e-06
-9.53621e-06
5.32235e-06
-8.52396e-06
6.53842e-06
-7.4025e-06
7.36212e-06
-6.63997e-06
7.98146e-06
-4.74396e-06
8.5224e-06
-3.1438e-06
8.59276e-06
-1.57672e-06
8.40588e-06
7.02201e-07
8.06958e-06
2.06281e-06
7.47362e-06
3.08951e-06
6.70069e-06
4.07454e-06
5.94015e-06
4.27376e-06
5.2763e-06
4.30043e-06
4.61776e-06
4.35872e-06
4.30138e-06
3.30468e-06
4.17945e-06
2.71249e-06
4.17108e-06
2.70007e-06
3.92145e-06
3.7262e-06
3.66232e-06
4.96112e-06
3.09224e-06
7.56093e-06
1.40821e-05
-0.000134383
0.000133561
-0.000165588
3.07699e-05
-0.000175886
9.81762e-06
-0.000165511
-1.07297e-05
-0.00014537
-2.03449e-05
-0.000127141
-1.83626e-05
-0.000119623
-7.85026e-06
-0.000128391
8.35573e-06
-0.000139845
1.10388e-05
-0.00014426
4.02571e-06
-0.000149744
5.0523e-06
-0.000154521
4.43216e-06
-0.000155241
3.83694e-07
-0.000154447
-1.11827e-06
-0.000153798
-9.69728e-07
-0.000151888
-2.18982e-06
-0.000135227
-1.68656e-05
-9.04703e-05
-4.48477e-05
-9.07988e-05
-0.000102862
0.000236016
-0.000136681
6.38148e-05
-0.000140942
1.31358e-05
-0.000105024
-4.74639e-05
-7.97764e-05
-4.61119e-05
-6.51241e-05
-3.32291e-05
-6.74448e-05
-5.9096e-06
-8.88539e-05
2.90181e-05
-0.000111029
3.2377e-05
-0.0001219
1.42146e-05
-0.00012969
1.23306e-05
-0.000133107
7.37953e-06
-0.000132836
-4.33988e-07
-0.000132551
-1.97081e-06
-0.000133275
-7.9006e-07
-0.000130547
-5.34337e-06
-0.000105984
-4.17313e-05
-6.62113e-05
-8.47927e-05
-0.00015733
-5.30843e-05
0.000288914
-0.000130748
0.000140758
-0.000107004
-1.13885e-05
-6.39789e-05
-9.13656e-05
-2.95567e-05
-8.11929e-05
1.52917e-05
-7.82699e-05
4.43778e-05
-3.52389e-05
4.81015e-05
2.45705e-05
4.28523e-05
3.64111e-05
-5.83287e-06
6.17972e-05
-8.12041e-05
8.64718e-05
-0.000126749
5.17461e-05
-0.000150565
2.21614e-05
-0.000154158
4.35233e-07
-0.000149495
-6.61027e-06
-0.000132641
-2.32578e-05
-9.67711e-05
-7.848e-05
-4.9429e-05
-0.000132658
-0.000207106
7.13567e-06
0.000280943
-4.9602e-05
0.000196671
-6.92547e-05
7.53142e-06
-4.63719e-05
-0.000115012
-1.64065e-05
-0.000112071
2.23233e-05
-0.000117321
5.07249e-05
-6.36573e-05
9.19911e-05
-1.6812e-05
0.000131949
-3.87839e-06
0.000138059
5.50689e-05
0.000111534
0.000112255
3.88989e-05
0.000123225
-7.40719e-05
0.000134105
-0.000151731
7.71035e-05
-0.000186371
2.7094e-05
-0.000164604
-4.59364e-05
-0.0001057
-0.000138435
-4.31436e-05
-0.000196055
-0.00025068
0.000115977
0.000164287
0.000128704
0.000183231
6.05572e-05
7.48556e-05
1.72059e-05
-7.23299e-05
2.40641e-05
-0.000119646
3.90393e-05
-0.000132682
5.81179e-05
-8.27542e-05
8.57303e-05
-4.44354e-05
0.000109387
-2.75477e-05
0.00013168
3.26287e-05
0.000158677
8.46519e-05
0.000157175
0.000123724
2.85508e-05
0.000261797
-0.000109453
0.000214202
-0.000144466
6.12081e-05
-0.000144029
-4.72791e-05
-9.94945e-05
-0.000184033
-3.64681e-05
-0.000260203
-0.000287753
2.37762e-05
0.000139389
-1.37297e-05
0.00021991
2.2297e-05
3.81693e-05
6.34883e-05
-0.000114207
5.04475e-05
-0.000107491
4.96302e-05
-0.000132062
6.44316e-05
-9.75705e-05
8.80306e-05
-6.80452e-05
0.000103683
-4.33229e-05
0.000117198
1.88207e-05
0.000129272
7.19046e-05
0.000129344
0.000122526
4.39393e-05
0.000346294
-3.52377e-05
0.000292475
-3.75721e-05
6.26289e-05
-6.41036e-05
-2.16514e-05
-6.57749e-05
-0.000183312
-2.55542e-05
-0.000301584
-0.000313795
9.314e-06
0.000129354
5.10331e-05
0.000177325
8.86491e-05
-1.98557e-07
6.92953e-05
-9.55297e-05
5.67953e-05
-9.56777e-05
5.51296e-05
-0.000130458
6.6707e-05
-0.000109154
8.60475e-05
-8.74834e-05
0.0001025
-6.0418e-05
0.00011704
3.34947e-06
0.000125771
6.20674e-05
0.000109873
0.000137252
4.9718e-05
0.000405543
1.34099e-05
0.000327879
2.90747e-05
4.60515e-05
9.78478e-06
-3.27082e-06
-2.42704e-05
-0.000150172
-1.37147e-05
-0.00031333
-0.000327766
1.66126e-05
0.000111827
9.62019e-05
9.68653e-05
0.000102562
-7.48105e-06
6.44078e-05
-5.80103e-05
5.69052e-05
-8.85858e-05
5.61227e-05
-0.00012969
6.5777e-05
-0.000118814
8.20685e-05
-0.000104118
9.98266e-05
-7.91606e-05
0.000118048
-1.6033e-05
0.000121075
5.7855e-05
8.47005e-05
0.000172466
4.44348e-05
0.000444895
3.71262e-05
0.000334277
3.74789e-05
4.47878e-05
3.6766e-05
-3.46744e-06
1.06111e-05
-0.000124921
-4.73686e-06
-0.000299171
-0.000332717
3.46575e-06
-1.3565e-05
6.22627e-06
-1.3061e-05
9.137e-06
-1.24729e-05
1.2216e-05
-1.16261e-05
1.49866e-05
-1.01926e-05
1.68629e-05
-8.53175e-06
1.84482e-05
-6.34031e-06
1.94917e-05
-4.19422e-06
1.92755e-05
-1.36418e-06
1.87325e-05
1.24344e-06
1.78217e-05
2.9729e-06
1.66399e-05
4.2712e-06
1.5395e-05
5.3195e-06
1.4062e-05
5.60676e-06
1.24779e-05
5.88447e-06
1.04164e-05
6.42018e-06
9.39071e-06
4.33041e-06
9.92993e-06
2.17326e-06
1.11816e-05
1.44841e-06
1.29365e-05
1.97124e-06
1.54639e-05
2.43378e-06
1.74404e-05
5.58432e-06
1.17054e-05
1.9817e-05
-6.2394e-07
-1.29614e-05
1.32251e-07
-1.38375e-05
2.14032e-06
-1.4502e-05
4.64417e-06
-1.4152e-05
7.51097e-06
-1.30833e-05
1.04875e-05
-1.1534e-05
1.39825e-05
-9.8634e-06
1.66666e-05
-6.9068e-06
1.83407e-05
-3.06603e-06
1.96508e-05
-8.55908e-08
1.96235e-05
2.97843e-06
1.89555e-05
4.92133e-06
1.79667e-05
6.2966e-06
1.56722e-05
7.8971e-06
1.21049e-05
9.45182e-06
8.50898e-06
1.00161e-05
7.37502e-06
5.46437e-06
8.03556e-06
1.51272e-06
9.20859e-06
2.75371e-07
1.13174e-05
-1.37626e-07
1.50612e-05
-1.30995e-06
1.82968e-05
2.34869e-06
5.94281e-06
2.40594e-05
-5.29277e-07
-1.24473e-05
-1.43616e-06
-1.29458e-05
-2.53749e-06
-1.34159e-05
-3.98208e-06
-1.27228e-05
-6.56637e-06
-1.05144e-05
-1.02188e-05
-7.89724e-06
-1.72398e-05
-2.85826e-06
-2.68561e-05
2.69362e-06
-4.00655e-05
1.01294e-05
-4.94424e-05
9.27673e-06
-3.68355e-05
-9.63353e-06
-1.62281e-05
-1.56851e-05
-4.37339e-06
-5.55041e-06
1.08872e-06
2.44729e-06
3.67683e-06
6.87195e-06
6.79778e-06
6.88991e-06
1.17985e-05
4.52927e-07
1.35495e-05
-2.39105e-07
1.34077e-05
4.17204e-07
1.49716e-05
-1.70158e-06
1.8049e-05
-4.38741e-06
2.27641e-05
-2.36638e-06
-1.49038e-06
3.01973e-05
2.20396e-07
-1.26831e-05
-4.81808e-07
-1.22589e-05
-2.02697e-06
-1.18861e-05
-3.59037e-06
-1.11747e-05
-5.24661e-06
-8.8736e-06
-7.02782e-06
-6.13156e-06
-9.28468e-06
-6.1704e-07
-1.13792e-05
4.77227e-06
-1.43605e-05
1.30946e-05
-1.80612e-05
1.29613e-05
-1.9651e-05
-8.06029e-06
-2.89464e-05
-6.40685e-06
-4.39349e-05
9.42272e-06
-3.82119e-05
-3.28798e-06
-2.48934e-05
-6.44846e-06
-2.37029e-05
5.71356e-06
-1.97271e-05
-3.52225e-06
-7.58296e-06
-1.24087e-05
3.91308e-06
-1.1114e-05
1.53834e-05
-1.32108e-05
2.45559e-05
-1.35821e-05
2.86925e-05
-6.50978e-06
-5.8571e-06
3.30565e-05
-1.99125e-06
-1.0707e-05
-3.66666e-06
-1.05987e-05
-5.5672e-06
-1.00007e-05
-7.41338e-06
-9.34379e-06
-8.66645e-06
-7.63588e-06
-9.19396e-06
-5.6195e-06
-7.30438e-06
-2.52219e-06
-2.94337e-06
3.95528e-07
5.87197e-06
4.26331e-06
1.35417e-05
5.27552e-06
7.12058e-06
-1.65563e-06
-9.32762e-06
1.00245e-05
-2.3435e-05
2.35134e-05
-2.90676e-05
2.32712e-06
-3.07063e-05
-4.8256e-06
-4.96764e-05
2.46688e-05
-6.35088e-05
1.02926e-05
-4.56296e-05
-3.03078e-05
-3.24892e-05
-2.42834e-05
-2.3322e-05
-2.24058e-05
-8.70882e-06
-2.8239e-05
5.38057e-06
-2.06571e-05
-2.15349e-05
2.09782e-05
-1.03155e-06
-9.69051e-06
-2.28829e-06
-9.35703e-06
-3.78605e-06
-8.5181e-06
-5.50345e-06
-7.64159e-06
-7.33685e-06
-5.81775e-06
-9.32269e-06
-3.64905e-06
-1.12628e-05
-5.9763e-07
-1.2955e-05
2.07213e-06
-1.28458e-05
4.1382e-06
-1.23502e-05
4.7639e-06
-1.19035e-05
-2.11864e-06
-4.23722e-06
2.34164e-06
7.78364e-06
1.14756e-05
7.08948e-06
3.00393e-06
5.28512e-07
1.7175e-06
-2.10505e-06
2.72837e-05
-5.97856e-06
1.41469e-05
-1.54923e-05
-2.08144e-05
-3.34157e-05
-6.38136e-06
-5.78626e-05
2.01912e-06
-7.92635e-05
-6.86121e-06
-8.42235e-05
-1.57225e-05
-1.86803e-05
-8.71051e-05
-1.1594e-06
-8.54604e-06
-2.26482e-06
-8.26654e-06
-3.19776e-06
-7.60016e-06
-3.94582e-06
-6.90859e-06
-4.25312e-06
-5.5256e-06
-3.87473e-06
-4.04269e-06
-2.52055e-06
-1.96721e-06
-3.2816e-07
-1.35808e-07
2.25044e-06
1.54386e-06
3.5226e-06
3.47577e-06
-1.19475e-06
2.58245e-06
-4.60135e-06
5.73168e-06
-2.00109e-06
8.85838e-06
-1.61894e-06
2.60443e-06
-1.0858e-06
1.16655e-06
1.26926e-05
1.34869e-05
2.11541e-05
5.66648e-06
8.3875e-06
-8.06758e-06
-4.8084e-07
2.46634e-06
-8.95631e-06
1.0473e-05
-2.60274e-05
1.0187e-05
-4.73728e-05
5.59872e-06
9.07996e-06
-7.51596e-05
-7.41822e-07
-7.81905e-06
-1.53049e-06
-7.49273e-06
-2.29194e-06
-6.85361e-06
-3.11227e-06
-6.10322e-06
-3.9168e-06
-4.7361e-06
-4.62378e-06
-3.35087e-06
-5.09567e-06
-1.51059e-06
-5.45501e-06
2.08097e-07
-5.24241e-06
1.31564e-06
-4.73345e-06
2.95097e-06
-4.55479e-06
2.38769e-06
-2.81337e-06
3.97386e-06
-3.99029e-07
6.42728e-06
-3.57749e-06
5.76573e-06
-7.67828e-06
5.2497e-06
-5.41288e-06
1.12033e-05
-7.46508e-06
7.69985e-06
-1.40541e-05
-1.49811e-06
-1.46293e-05
3.02111e-06
-1.06378e-05
6.46016e-06
-7.20738e-06
6.73403e-06
-1.13456e-05
9.71331e-06
1.7118e-05
-1.94088e-05
-3.63155e-07
-7.47054e-06
-6.1926e-07
-7.25129e-06
-8.15298e-07
-6.67228e-06
-8.43859e-07
-6.08943e-06
-7.00229e-07
-4.89459e-06
-2.01127e-07
-3.86493e-06
6.0676e-07
-2.33358e-06
1.64762e-06
-8.48023e-07
2.42713e-06
5.20672e-07
2.96061e-06
2.4018e-06
1.64466e-06
3.68769e-06
3.71582e-07
5.23068e-06
-1.54426e-07
6.93669e-06
-1.03358e-06
6.62786e-06
-2.57058e-06
6.76925e-06
-1.32175e-06
9.93647e-06
-3.20763e-06
9.56717e-06
-1.31526e-05
8.42763e-06
-2.2322e-05
1.21705e-05
-3.08279e-05
1.49452e-05
-3.91758e-05
1.506e-05
-4.53933e-05
1.59078e-05
2.07192e-05
-4.9019e-05
-2.29103e-07
-7.25593e-06
-4.42351e-07
-7.05255e-06
-6.69235e-07
-6.45995e-06
-8.91859e-07
-5.88142e-06
-1.05694e-06
-4.7442e-06
-1.20656e-06
-3.73011e-06
-1.15828e-06
-2.39679e-06
-1.09769e-06
-9.23694e-07
-8.20707e-07
2.28423e-07
-2.95634e-07
1.86124e-06
1.53693e-07
3.22263e-06
5.5346e-07
4.8149e-06
6.66813e-07
6.80699e-06
-6.99412e-07
7.97736e-06
-3.11829e-06
9.17098e-06
-4.80626e-06
1.16068e-05
-7.91153e-06
1.26542e-05
-1.23278e-05
1.28251e-05
-1.67133e-05
1.65365e-05
-2.19733e-05
2.01849e-05
-3.06125e-05
2.36779e-05
-4.40986e-05
2.93718e-05
3.55379e-05
-5.89408e-05
2.23741e-07
-7.49392e-06
4.87548e-07
-7.33063e-06
7.88452e-07
-6.77517e-06
1.20228e-06
-6.30962e-06
1.70298e-06
-5.25936e-06
2.33494e-06
-4.37664e-06
3.05064e-06
-3.12718e-06
3.82253e-06
-1.71044e-06
4.35441e-06
-3.18495e-07
4.9054e-06
1.295e-06
4.97313e-06
3.13941e-06
5.0148e-06
4.75744e-06
4.80374e-06
7.00197e-06
4.21926e-06
8.54537e-06
2.74693e-06
1.06265e-05
9.65546e-07
1.33708e-05
-2.40548e-06
1.60075e-05
-8.83573e-06
1.92369e-05
-1.62798e-05
2.39616e-05
-2.55222e-05
2.94076e-05
-3.67929e-05
3.49282e-05
-5.08334e-05
4.33914e-05
5.31231e-05
-6.84408e-05
2.54249e-07
-7.76221e-06
5.1356e-07
-7.604e-06
7.91153e-07
-7.06686e-06
1.06998e-06
-6.60261e-06
1.42548e-06
-5.6291e-06
1.7519e-06
-4.7174e-06
2.20281e-06
-3.59254e-06
2.63139e-06
-2.15363e-06
3.11672e-06
-8.18602e-07
3.65503e-06
7.41711e-07
4.20724e-06
2.57201e-06
4.67173e-06
4.27748e-06
4.95475e-06
6.70319e-06
4.71339e-06
8.77063e-06
3.76218e-06
1.15612e-05
2.51736e-06
1.45988e-05
2.60345e-07
1.82472e-05
-2.93251e-06
2.2412e-05
-7.15586e-06
2.81666e-05
-1.32508e-05
3.54837e-05
-2.19102e-05
4.3568e-05
-3.48978e-05
5.6359e-05
6.90904e-05
-5.08858e-05
7.00943e-07
-8.47692e-06
1.44253e-06
-8.35938e-06
2.19874e-06
-7.83689e-06
3.0098e-06
-7.42755e-06
3.86054e-06
-6.49379e-06
4.72457e-06
-5.5955e-06
5.60581e-06
-4.48795e-06
6.48914e-06
-3.05128e-06
7.23063e-06
-1.57458e-06
7.91468e-06
4.2991e-08
8.33825e-06
2.13355e-06
8.62886e-06
3.97172e-06
8.67818e-06
6.63846e-06
8.44897e-06
8.98411e-06
7.71328e-06
1.22809e-05
6.47745e-06
1.58182e-05
4.50765e-06
2.02002e-05
1.49142e-06
2.54109e-05
-2.1939e-06
3.18343e-05
-6.97253e-06
4.02442e-05
-1.3345e-05
4.9922e-05
-2.14676e-05
6.44626e-05
8.01102e-05
-3.25066e-05
6.97954e-07
-9.18837e-06
1.4066e-06
-9.08154e-06
2.12979e-06
-8.57363e-06
2.8408e-06
-8.15216e-06
3.6349e-06
-7.30157e-06
4.38042e-06
-6.35479e-06
5.24445e-06
-5.36586e-06
6.07246e-06
-3.8933e-06
6.98862e-06
-2.5049e-06
7.85936e-06
-8.421e-07
8.73797e-06
1.2404e-06
9.50507e-06
3.18985e-06
1.01171e-05
6.01139e-06
1.053e-05
8.55597e-06
1.05652e-05
1.223e-05
1.04158e-05
1.59517e-05
9.64141e-06
2.09583e-05
8.50765e-06
2.6528e-05
6.72439e-06
3.36005e-05
4.66505e-06
4.22861e-05
1.80051e-06
5.27689e-05
-4.05764e-07
6.66508e-05
8.31524e-05
-3.46597e-06
1.11166e-06
-1.03132e-05
2.2456e-06
-1.02287e-05
3.36354e-06
-9.7048e-06
4.49172e-06
-9.29363e-06
5.64998e-06
-8.47318e-06
6.79621e-06
-7.51446e-06
7.9668e-06
-6.55e-06
9.11211e-06
-5.05229e-06
1.0275e-05
-3.68155e-06
1.13394e-05
-1.9205e-06
1.23961e-05
1.69528e-07
1.33237e-05
2.24786e-06
1.41821e-05
5.13836e-06
1.48678e-05
7.85544e-06
1.53402e-05
1.17424e-05
1.56711e-05
1.56054e-05
1.57477e-05
2.08659e-05
1.56465e-05
2.66132e-05
1.53397e-05
3.38911e-05
1.51322e-05
4.2477e-05
1.49812e-05
5.2903e-05
1.61471e-05
6.54677e-05
8.0694e-05
1.85886e-05
1.13401e-06
-1.14601e-05
2.27684e-06
-1.13844e-05
3.43525e-06
-1.08761e-05
4.56954e-06
-1.04409e-05
5.78442e-06
-9.7011e-06
6.96341e-06
-8.70656e-06
8.25578e-06
-7.85558e-06
9.50486e-06
-6.31468e-06
1.08869e-05
-5.077e-06
1.22016e-05
-3.24884e-06
1.3642e-05
-1.28467e-06
1.50017e-05
8.74166e-07
1.64267e-05
3.69919e-06
1.77832e-05
6.48451e-06
1.90943e-05
1.04167e-05
2.04335e-05
1.42512e-05
2.16446e-05
1.96397e-05
2.30757e-05
2.51666e-05
2.44889e-05
3.24622e-05
2.64988e-05
4.04511e-05
2.89455e-05
5.04402e-05
3.30363e-05
6.13606e-05
7.48955e-05
3.88185e-05
1.47012e-06
-1.29427e-05
2.95512e-06
-1.28819e-05
4.43482e-06
-1.23684e-05
5.90207e-06
-1.19207e-05
7.40251e-06
-1.12142e-05
8.90557e-06
-1.02224e-05
1.04526e-05
-9.41548e-06
1.19892e-05
-7.86413e-06
1.36238e-05
-6.72471e-06
1.51935e-05
-4.83175e-06
1.69406e-05
-3.04509e-06
1.85856e-05
-7.84416e-07
2.04095e-05
1.86156e-06
2.21268e-05
4.75327e-06
2.40168e-05
8.51259e-06
2.59208e-05
1.23328e-05
2.79814e-05
1.75644e-05
3.02641e-05
2.28691e-05
3.27947e-05
2.99166e-05
3.5944e-05
3.72866e-05
3.97721e-05
4.65967e-05
4.50016e-05
5.61154e-05
6.79672e-05
5.19144e-05
1.5134e-06
-1.44683e-05
3.03818e-06
-1.44188e-05
4.58399e-06
-1.39264e-05
6.11715e-06
-1.34661e-05
7.72206e-06
-1.28314e-05
9.34186e-06
-1.18545e-05
1.10528e-05
-1.11389e-05
1.27747e-05
-9.59857e-06
1.46459e-05
-8.60853e-06
1.65016e-05
-6.70027e-06
1.85852e-05
-5.14166e-06
2.06484e-05
-2.8607e-06
2.30079e-05
-5.11225e-07
2.53393e-05
2.40839e-06
2.79781e-05
5.86014e-06
3.07167e-05
9.58033e-06
3.37334e-05
1.45336e-05
3.71067e-05
1.94815e-05
4.08454e-05
2.61635e-05
4.52911e-05
3.28262e-05
5.03921e-05
4.1481e-05
5.66285e-05
4.9864e-05
6.0639e-05
6.39419e-05
1.69611e-06
-1.61761e-05
3.3987e-06
-1.61332e-05
5.13967e-06
-1.56792e-05
6.89411e-06
-1.52324e-05
8.71116e-06
-1.46603e-05
1.05976e-05
-1.3753e-05
1.25443e-05
-1.30977e-05
1.45778e-05
-1.16442e-05
1.67457e-05
-1.07886e-05
1.89435e-05
-8.91045e-06
2.1375e-05
-7.58566e-06
2.38021e-05
-5.30046e-06
2.6564e-05
-3.28587e-06
2.92983e-05
-3.38948e-07
3.2487e-05
2.65838e-06
3.57589e-05
6.29506e-06
3.9466e-05
1.08131e-05
4.35232e-05
1.54107e-05
4.80303e-05
2.16426e-05
5.32624e-05
2.75801e-05
5.91734e-05
3.55559e-05
6.60953e-05
4.29279e-05
5.27515e-05
7.39685e-05
1.64941e-06
-1.78369e-05
3.27398e-06
-1.77691e-05
4.99866e-06
-1.74153e-05
6.7528e-06
-1.6998e-05
8.61102e-06
-1.65301e-05
1.05778e-05
-1.57313e-05
1.2659e-05
-1.51905e-05
1.48936e-05
-1.38905e-05
1.73009e-05
-1.32077e-05
1.98408e-05
-1.14623e-05
2.26393e-05
-1.03962e-05
2.55788e-05
-8.25215e-06
2.88603e-05
-6.57968e-06
3.22597e-05
-3.75084e-06
3.61652e-05
-1.25973e-06
4.01853e-05
2.26217e-06
4.47627e-05
6.22278e-06
4.96976e-05
1.04626e-05
5.50522e-05
1.62747e-05
6.11158e-05
2.1503e-05
6.77021e-05
2.89561e-05
7.51345e-05
3.54819e-05
4.45787e-05
8.32936e-05
1.65117e-06
-1.94991e-05
3.25025e-06
-1.93792e-05
4.99029e-06
-1.91663e-05
6.77646e-06
-1.87952e-05
8.67411e-06
-1.84388e-05
1.07285e-05
-1.77968e-05
1.29157e-05
-1.73889e-05
1.5343e-05
-1.6329e-05
1.79505e-05
-1.58266e-05
2.07925e-05
-1.43158e-05
2.39117e-05
-1.35271e-05
2.72526e-05
-1.16047e-05
3.09642e-05
-1.03032e-05
3.48982e-05
-7.69683e-06
3.93626e-05
-5.73622e-06
4.3975e-05
-2.36252e-06
4.92716e-05
9.13878e-07
5.48386e-05
4.88308e-06
6.09655e-05
1.01351e-05
6.77065e-05
1.47493e-05
7.49256e-05
2.17241e-05
8.28316e-05
2.75628e-05
3.60399e-05
9.13573e-05
1.38053e-06
-2.08901e-05
2.72044e-06
-2.07297e-05
4.22172e-06
-2.06782e-05
5.79146e-06
-2.03756e-05
7.53322e-06
-2.01912e-05
9.47977e-06
-1.97541e-05
1.16368e-05
-1.95567e-05
1.41122e-05
-1.88152e-05
1.68542e-05
-1.85796e-05
1.9962e-05
-1.74346e-05
2.34077e-05
-1.69838e-05
2.72417e-05
-1.54499e-05
3.14746e-05
-1.45473e-05
3.61391e-05
-1.23728e-05
4.1338e-05
-1.09467e-05
4.68585e-05
-7.89475e-06
5.31251e-05
-5.36457e-06
5.9598e-05
-1.60177e-06
6.68195e-05
2.90147e-06
7.44918e-05
7.06482e-06
8.25049e-05
1.36986e-05
9.09919e-05
1.90634e-05
2.71188e-05
9.99006e-05
1.22472e-06
-2.2125e-05
2.4356e-06
-2.19507e-05
3.76802e-06
-2.20208e-05
5.16961e-06
-2.17873e-05
6.73166e-06
-2.17635e-05
8.49254e-06
-2.15252e-05
1.04628e-05
-2.15373e-05
1.27609e-05
-2.11237e-05
1.53485e-05
-2.11776e-05
1.83664e-05
-2.04631e-05
2.17952e-05
-2.04232e-05
2.5744e-05
-1.94095e-05
3.02061e-05
-1.90202e-05
3.53014e-05
-1.7479e-05
4.10039e-05
-1.66604e-05
4.72645e-05
-1.41665e-05
5.43801e-05
-1.24915e-05
6.1779e-05
-9.01207e-06
7.0174e-05
-5.50514e-06
7.88271e-05
-1.59987e-06
8.78815e-05
4.63243e-06
9.73639e-05
9.56925e-06
1.73965e-05
0.000107074
7.76797e-07
-2.29115e-05
1.58272e-06
-2.27663e-05
2.47762e-06
-2.29254e-05
3.47949e-06
-2.27989e-05
4.66437e-06
-2.29581e-05
6.07063e-06
-2.29413e-05
7.7437e-06
-2.32202e-05
9.79133e-06
-2.31812e-05
1.22255e-05
-2.36218e-05
1.5194e-05
-2.34417e-05
1.86857e-05
-2.3925e-05
2.28297e-05
-2.35638e-05
2.76222e-05
-2.3823e-05
3.32244e-05
-2.30916e-05
3.95234e-05
-2.297e-05
4.66705e-05
-2.13242e-05
5.46736e-05
-2.05054e-05
6.32575e-05
-1.76068e-05
7.30209e-05
-1.52796e-05
8.29457e-05
-1.15357e-05
9.35013e-05
-5.93437e-06
0.000104392
-1.3323e-06
6.4292e-06
0.000115348
5.81746e-07
-2.35024e-05
1.20337e-06
-2.33971e-05
1.86717e-06
-2.35984e-05
2.62909e-06
-2.35701e-05
3.53741e-06
-2.38757e-05
4.6312e-06
-2.40444e-05
5.96466e-06
-2.45631e-05
7.62892e-06
-2.48549e-05
9.65951e-06
-2.56618e-05
1.22038e-05
-2.59955e-05
1.52747e-05
-2.70056e-05
1.90154e-05
-2.73142e-05
2.34673e-05
-2.82847e-05
2.88014e-05
-2.84356e-05
3.49978e-05
-2.91765e-05
4.22849e-05
-2.86214e-05
5.05748e-05
-2.88054e-05
5.98969e-05
-2.69392e-05
7.05751e-05
-2.59683e-05
8.16464e-05
-2.26175e-05
9.39033e-05
-1.82019e-05
0.000106552
-1.39917e-05
-6.28725e-06
0.000119258
1.15725e-07
-2.36269e-05
2.6988e-07
-2.35601e-05
4.58691e-07
-2.3796e-05
7.53812e-07
-2.3874e-05
1.19154e-06
-2.43223e-05
1.81586e-06
-2.46776e-05
2.69015e-06
-2.54463e-05
3.89912e-06
-2.60728e-05
5.50273e-06
-2.72745e-05
7.65362e-06
-2.81555e-05
1.04132e-05
-2.97743e-05
1.39747e-05
-3.0885e-05
1.83847e-05
-3.27041e-05
2.37854e-05
-3.38457e-05
3.01794e-05
-3.558e-05
3.78234e-05
-3.62749e-05
4.66253e-05
-3.76171e-05
5.68204e-05
-3.7144e-05
6.83531e-05
-3.75109e-05
8.07185e-05
-3.49928e-05
9.4834e-05
-3.23274e-05
0.000109472
-2.86394e-05
-2.12378e-05
0.000124412
-7.12982e-08
-2.35638e-05
-1.16388e-07
-2.35232e-05
-1.43697e-07
-2.37769e-05
-8.68212e-08
-2.39392e-05
8.69812e-08
-2.45044e-05
4.201e-07
-2.50191e-05
9.78176e-07
-2.60127e-05
1.82703e-06
-2.69301e-05
3.03244e-06
-2.84884e-05
4.71236e-06
-2.9844e-05
6.92578e-06
-3.19964e-05
9.84602e-06
-3.3814e-05
1.35603e-05
-3.64272e-05
1.82454e-05
-3.85397e-05
2.39618e-05
-4.13053e-05
3.09758e-05
-4.32981e-05
3.93151e-05
-4.59655e-05
4.9338e-05
-4.71762e-05
6.09102e-05
-4.90924e-05
7.39859e-05
-4.8078e-05
8.92144e-05
-4.75654e-05
0.000105282
-4.47167e-05
-3.81812e-05
0.000122216
-4.91364e-07
-2.30803e-05
-9.6274e-07
-2.30596e-05
-1.41786e-06
-2.33296e-05
-1.8097e-06
-2.35552e-05
-2.09937e-06
-2.42226e-05
-2.25408e-06
-2.48722e-05
-2.20701e-06
-2.60677e-05
-1.89654e-06
-2.72486e-05
-1.25465e-06
-2.91383e-05
-1.56886e-07
-3.09498e-05
1.46491e-06
-3.36263e-05
3.80365e-06
-3.61609e-05
6.97738e-06
-3.96092e-05
1.12669e-05
-4.28376e-05
1.68475e-05
-4.68943e-05
2.39427e-05
-5.04018e-05
3.2547e-05
-5.45784e-05
4.29746e-05
-5.76125e-05
5.51467e-05
-6.12733e-05
6.93323e-05
-6.22724e-05
8.56868e-05
-6.39288e-05
0.000103255
-6.22943e-05
-5.71976e-05
0.000122263
-6.49607e-07
-2.24379e-05
-1.29053e-06
-2.2426e-05
-1.92194e-06
-2.27055e-05
-2.5131e-06
-2.29713e-05
-3.02094e-06
-2.37221e-05
-3.4256e-06
-2.44749e-05
-3.65897e-06
-2.58417e-05
-3.67947e-06
-2.72355e-05
-3.41495e-06
-2.94103e-05
-2.76524e-06
-3.1607e-05
-1.65718e-06
-3.4742e-05
7.14187e-08
-3.78972e-05
2.51165e-06
-4.20572e-05
5.86979e-06
-4.62035e-05
1.03275e-05
-5.13599e-05
1.62204e-05
-5.63027e-05
2.37141e-05
-6.20802e-05
3.32338e-05
-6.71404e-05
4.48912e-05
-7.29391e-05
5.91882e-05
-7.65778e-05
7.59509e-05
-8.07e-05
9.47023e-05
-8.10542e-05
-7.8205e-05
0.000115701
-1.00711e-06
-2.14376e-05
-2.01602e-06
-2.14238e-05
-3.02405e-06
-2.17042e-05
-4.02069e-06
-2.19815e-05
-4.96953e-06
-2.27801e-05
-5.86515e-06
-2.35862e-05
-6.64239e-06
-2.50714e-05
-7.27576e-06
-2.66091e-05
-7.69375e-06
-2.89992e-05
-7.8118e-06
-3.1496e-05
-7.54567e-06
-3.50152e-05
-6.73358e-06
-3.87164e-05
-5.24951e-06
-4.35485e-05
-2.83289e-06
-4.86274e-05
7.26948e-07
-5.49271e-05
5.90875e-06
-6.1492e-05
1.31052e-05
-6.92841e-05
2.26846e-05
-7.67273e-05
3.47249e-05
-8.4987e-05
4.97241e-05
-9.15847e-05
6.74373e-05
-9.84211e-05
8.80657e-05
-0.000101691
-0.000102116
0.000111968
-1.12192e-06
-2.03219e-05
-2.25257e-06
-2.02994e-05
-3.3902e-06
-2.05728e-05
-4.53521e-06
-2.08427e-05
-5.66084e-06
-2.16607e-05
-6.78193e-06
-2.24714e-05
-7.83998e-06
-2.40197e-05
-8.84473e-06
-2.56107e-05
-9.71258e-06
-2.81378e-05
-1.04083e-05
-3.08067e-05
-1.08168e-05
-3.46132e-05
-1.08385e-05
-3.87013e-05
-1.0306e-05
-4.40876e-05
-9.0191e-06
-4.99211e-05
-6.75186e-06
-5.72011e-05
-3.1812e-06
-6.50694e-05
1.97034e-06
-7.44426e-05
9.27738e-06
-8.40414e-05
1.91346e-05
-9.48514e-05
3.23316e-05
-0.000104789
4.88266e-05
-0.000114924
6.97878e-05
-0.000122659
-0.000127929
9.55937e-05
-1.4592e-06
-1.88684e-05
-2.93182e-06
-1.88326e-05
-4.42743e-06
-1.9083e-05
-5.9625e-06
-1.93134e-05
-7.52902e-06
-2.01e-05
-9.15126e-06
-2.0855e-05
-1.07918e-05
-2.23849e-05
-1.24709e-05
-2.39375e-05
-1.41313e-05
-2.64833e-05
-1.57754e-05
-2.91686e-05
-1.73063e-05
-3.30884e-05
-1.86645e-05
-3.73492e-05
-1.9675e-05
-4.30832e-05
-2.0156e-05
-4.94462e-05
-1.98083e-05
-5.7555e-05
-1.82102e-05
-6.66739e-05
-1.49011e-05
-7.77581e-05
-9.06268e-06
-8.98863e-05
-3.78635e-07
-0.000103542
1.14277e-05
-0.000116602
2.60944e-05
-0.000129597
4.49224e-05
-0.000141494
-0.000152445
6.9432e-05
-1.47723e-06
-1.73964e-05
-2.9789e-06
-1.73361e-05
-4.52945e-06
-1.75376e-05
-6.15612e-06
-1.7692e-05
-7.88093e-06
-1.83804e-05
-9.73551e-06
-1.90056e-05
-1.17198e-05
-2.04059e-05
-1.38714e-05
-2.17911e-05
-1.61658e-05
-2.41943e-05
-1.8637e-05
-2.67028e-05
-2.12129e-05
-3.05179e-05
-2.38846e-05
-3.46829e-05
-2.64931e-05
-4.04803e-05
-2.89367e-05
-4.70083e-05
-3.09004e-05
-5.55969e-05
-3.21511e-05
-6.54289e-05
-3.23124e-05
-7.76027e-05
-3.14246e-05
-9.07801e-05
-2.99559e-05
-0.000105017
-2.779e-05
-0.000118774
-2.2792e-05
-0.000134601
-9.9583e-06
-0.000154333
-0.000175833
1.34249e-05
-1.80389e-06
-1.55972e-05
-3.64129e-06
-1.55033e-05
-5.5506e-06
-1.5633e-05
-7.55922e-06
-1.56881e-05
-9.70221e-06
-1.62421e-05
-1.20271e-05
-1.66855e-05
-1.45616e-05
-1.78762e-05
-1.73604e-05
-1.89971e-05
-2.04393e-05
-2.11203e-05
-2.38775e-05
-2.32695e-05
-2.76884e-05
-2.67119e-05
-3.19308e-05
-3.04454e-05
-3.65865e-05
-3.58296e-05
-4.16328e-05
-4.1967e-05
-4.69327e-05
-5.03022e-05
-5.23155e-05
-6.00512e-05
-5.77744e-05
-7.21491e-05
-6.35346e-05
-8.50252e-05
-7.00461e-05
-9.85107e-05
-7.59431e-05
-0.000112882
-7.45008e-05
-0.000136048
-5.9205e-05
-0.000169634
-0.000203774
-3.12703e-05
-1.64707e-06
-1.39542e-05
-3.33725e-06
-1.38173e-05
-5.12706e-06
-1.38473e-05
-7.06934e-06
-1.37499e-05
-9.22908e-06
-1.40866e-05
-1.16794e-05
-1.42393e-05
-1.4497e-05
-1.50628e-05
-1.77758e-05
-1.57226e-05
-2.15895e-05
-1.73108e-05
-2.60106e-05
-1.88527e-05
-3.11374e-05
-2.15894e-05
-3.71417e-05
-2.44455e-05
-4.40992e-05
-2.88767e-05
-5.21054e-05
-3.39652e-05
-6.12266e-05
-4.11856e-05
-7.1738e-05
-4.95445e-05
-8.42725e-05
-5.96193e-05
-9.98739e-05
-6.94284e-05
-0.000117078
-8.13103e-05
-0.000126614
-0.00010335
-0.000118225
-0.000144442
-9.40759e-05
-0.000193789
-0.000235022
-6.28351e-05
-1.96056e-06
-1.19973e-05
-3.97615e-06
-1.18053e-05
-6.0985e-06
-1.17286e-05
-8.38741e-06
-1.14646e-05
-1.09139e-05
-1.15637e-05
-1.3751e-05
-1.14059e-05
-1.69835e-05
-1.1834e-05
-2.07268e-05
-1.1983e-05
-2.51077e-05
-1.29336e-05
-3.02789e-05
-1.36853e-05
-3.63808e-05
-1.54914e-05
-4.36945e-05
-1.71355e-05
-5.24474e-05
-2.01277e-05
-6.30361e-05
-2.33804e-05
-7.58592e-05
-2.83664e-05
-9.15257e-05
-3.38821e-05
-0.000110673
-4.0476e-05
-0.000132627
-4.74777e-05
-0.000151944
-6.19959e-05
-0.000155935
-9.93646e-05
-0.000140256
-0.000160126
-0.00011542
-0.00021863
-0.000262362
-8.80858e-05
-1.54607e-06
-1.04543e-05
-3.16262e-06
-1.01918e-05
-4.91716e-06
-9.97715e-06
-6.87082e-06
-9.51404e-06
-9.09798e-06
-9.33966e-06
-1.17005e-05
-8.80647e-06
-1.47914e-05
-8.74624e-06
-1.85445e-05
-8.23309e-06
-2.31554e-05
-8.32585e-06
-2.89724e-05
-7.87156e-06
-3.63259e-05
-8.14105e-06
-4.55785e-05
-7.88627e-06
-5.71742e-05
-8.53528e-06
-7.15056e-05
-9.0523e-06
-8.92977e-05
-1.05778e-05
-0.000111433
-1.17498e-05
-0.000138422
-1.34902e-05
-0.000166731
-1.91713e-05
-0.000184244
-4.44851e-05