/*--------------------------------*- C++ -*----------------------------------*\
| =========                 |                                                 |
| \\      /  F ield         | OpenFOAM: The Open Source CFD Toolbox           |
|  \\    /   O peration     | Version:  2012                                  |
|   \\  /    A nd           | Website:  www.openfoam.com                      |
|    \\/     M anipulation  |                                                 |
\*---------------------------------------------------------------------------*/
FoamFile
{
    version     2.0;
    format      ascii;
    class       volScalarField;
    location    "0.6";
    object      rho2;
}
// * * * * * * * * * * * * * * * * * * * * * * * * * * * * * * * * * * * * * //

dimensions      [1 -3 0 0 0 0 0];


internalField   nonuniform List<scalar> 
2268
(
1.30008
1.3001
1.30015
1.30021
1.3003
1.30042
1.30057
1.30074
1.30094
1.30118
1.30142
1.30171
1.30198
1.3023
1.30258
1.3029
1.30316
1.30345
1.30367
1.30389
1.30405
1.30418
1.30425
1.29932
1.29935
1.29939
1.29946
1.29955
1.29967
1.29981
1.29999
1.30018
1.30042
1.30066
1.30095
1.30123
1.30155
1.30183
1.30215
1.30241
1.3027
1.30292
1.30315
1.30331
1.30344
1.30351
1.29856
1.29858
1.29862
1.29869
1.29878
1.2989
1.29905
1.29922
1.29942
1.29966
1.2999
1.30019
1.30047
1.3008
1.30108
1.30141
1.30167
1.30196
1.30219
1.30242
1.30258
1.30272
1.30279
1.29779
1.29781
1.29786
1.29792
1.29802
1.29813
1.29828
1.29845
1.29865
1.29889
1.29914
1.29943
1.29972
1.30004
1.30034
1.30066
1.30093
1.30122
1.30145
1.30169
1.30186
1.302
1.30207
1.29701
1.29704
1.29708
1.29714
1.29724
1.29735
1.2975
1.29767
1.29787
1.29811
1.29837
1.29867
1.29896
1.29929
1.29959
1.29992
1.3002
1.3005
1.30074
1.30098
1.30115
1.3013
1.30138
1.29625
1.29627
1.29631
1.29637
1.29646
1.29658
1.29673
1.2969
1.2971
1.29734
1.29759
1.2979
1.2982
1.29854
1.29885
1.29918
1.29947
1.29977
1.30001
1.30026
1.30045
1.30061
1.3007
1.29547
1.29549
1.29554
1.2956
1.29568
1.29579
1.29594
1.2961
1.29631
1.29655
1.29681
1.29713
1.29743
1.29778
1.2981
1.29845
1.29874
1.29906
1.29931
1.29956
1.29976
1.29992
1.30004
1.29472
1.29474
1.29478
1.29484
1.29493
1.29504
1.29518
1.29535
1.29555
1.29578
1.29604
1.29635
1.29667
1.29703
1.29737
1.29771
1.29802
1.29834
1.2986
1.29887
1.29908
1.29927
1.2994
1.3057
1.29706
1.29715
1.29665
1.29838
1.30211
1.30525
1.30294
1.29999
1.29869
1.29626
1.29395
1.29346
1.29328
1.29336
1.29387
1.29519
1.30075
1.30903
1.30202
1.29551
1.29634
1.29602
1.29748
1.30149
1.30586
1.30262
1.29917
1.29742
1.29479
1.29309
1.29267
1.29258
1.29264
1.29298
1.29378
1.29846
1.30593
1.29678
1.29559
1.29657
1.29619
1.29706
1.30101
1.30433
1.30205
1.29874
1.29819
1.29544
1.29238
1.29232
1.2923
1.29231
1.29236
1.29268
1.29598
1.30344
1.29722
1.29574
1.29626
1.29586
1.29636
1.29874
1.30444
1.30169
1.2984
1.29681
1.29389
1.29262
1.2928
1.29276
1.2925
1.29231
1.2923
1.29341
1.30066
1.29682
1.29555
1.29624
1.29604
1.29608
1.29721
1.30223
1.30032
1.29718
1.29661
1.29393
1.2926
1.29273
1.2931
1.29318
1.29293
1.29228
1.29229
1.29805
1.29795
1.29544
1.29637
1.29644
1.29681
1.29712
1.30083
1.29837
1.29548
1.29392
1.29255
1.29277
1.29285
1.2931
1.29316
1.29306
1.29257
1.29193
1.2959
1.29685
1.2951
1.29633
1.29652
1.29722
1.29686
1.29884
1.29661
1.29408
1.29316
1.29257
1.29283
1.29291
1.2931
1.29314
1.29313
1.2929
1.2922
1.29381
1.29726
1.29514
1.29623
1.29629
1.29706
1.29649
1.29744
1.29495
1.2933
1.29304
1.29266
1.29283
1.29292
1.29308
1.29316
1.29314
1.29306
1.29227
1.29251
1.2938
1.29381
1.29384
1.29387
1.29393
1.294
1.2941
1.29422
1.29438
1.29459
1.29485
1.29517
1.2955
1.29587
1.29621
1.29658
1.2969
1.29724
1.29752
1.29778
1.29802
1.29819
1.29842
1.29333
1.29334
1.29334
1.29334
1.29335
1.29337
1.2934
1.29343
1.29349
1.29356
1.29366
1.29384
1.29408
1.29438
1.29472
1.29509
1.29541
1.29578
1.29607
1.29639
1.29663
1.29696
1.2971
1.29327
1.29327
1.29327
1.29327
1.29328
1.29329
1.2933
1.29333
1.29334
1.29334
1.29333
1.29334
1.29341
1.2935
1.29365
1.29389
1.29412
1.29441
1.2947
1.29493
1.29522
1.2954
1.29568
1.29323
1.29323
1.29323
1.29323
1.29323
1.29324
1.29324
1.29326
1.29327
1.29328
1.29326
1.29327
1.29332
1.29331
1.29331
1.29337
1.29343
1.29355
1.29373
1.29389
1.29407
1.29423
1.29439
1.29322
1.29322
1.29322
1.29322
1.29322
1.29322
1.29322
1.29322
1.29323
1.29323
1.29323
1.29323
1.29327
1.29325
1.29324
1.29328
1.2933
1.29329
1.29332
1.29334
1.29339
1.29346
1.29354
1.29321
1.29321
1.29321
1.29321
1.29321
1.29321
1.29321
1.29321
1.29321
1.29322
1.29321
1.29322
1.29323
1.29322
1.29322
1.29323
1.29323
1.29322
1.29324
1.29327
1.29328
1.29327
1.29329
1.29321
1.29321
1.29321
1.29321
1.29321
1.29321
1.29321
1.29321
1.29321
1.29321
1.29321
1.29321
1.29321
1.29321
1.29321
1.29321
1.29321
1.29321
1.29321
1.29322
1.29322
1.29322
1.29324
1.29321
1.29321
1.29321
1.29321
1.29321
1.29321
1.29321
1.29321
1.29321
1.29321
1.29321
1.29321
1.29321
1.29321
1.29321
1.29321
1.29321
1.29321
1.29321
1.29321
1.29321
1.29321
1.29321
1.29321
1.29321
1.29321
1.29321
1.29321
1.29321
1.29321
1.29321
1.29321
1.29321
1.29321
1.29321
1.29321
1.29321
1.29321
1.29321
1.29321
1.29321
1.29321
1.29321
1.29321
1.29321
1.29321
1.29321
1.29321
1.29321
1.29321
1.29321
1.29321
1.29321
1.29321
1.29321
1.29321
1.29321
1.29321
1.29321
1.29321
1.29321
1.29321
1.29321
1.29321
1.29321
1.29321
1.29321
1.29321
1.29321
1.2932
1.2932
1.2932
1.2932
1.2932
1.2932
1.2932
1.2932
1.2932
1.29321
1.29321
1.29321
1.29321
1.29321
1.29321
1.29321
1.29321
1.29321
1.29321
1.29321
1.29321
1.29321
1.29321
1.2932
1.2932
1.2932
1.2932
1.2932
1.2932
1.2932
1.2932
1.2932
1.2932
1.2932
1.2932
1.2932
1.2932
1.2932
1.2932
1.2932
1.2932
1.2932
1.2932
1.2932
1.2932
1.2932
1.2932
1.2932
1.2932
1.2932
1.2932
1.2932
1.2932
1.2932
1.2932
1.2932
1.2932
1.2932
1.2932
1.2932
1.2932
1.2932
1.2932
1.2932
1.2932
1.2932
1.2932
1.2932
1.2932
1.2932
1.2932
1.2932
1.2932
1.2932
1.2932
1.2932
1.2932
1.2932
1.2932
1.2932
1.2932
1.2932
1.2932
1.2932
1.2932
1.2932
1.2932
1.2932
1.2932
1.2932
1.2932
1.2932
1.2932
1.2932
1.2932
1.2932
1.2932
1.2932
1.2932
1.2932
1.2932
1.2932
1.2932
1.2932
1.2932
1.2932
1.2932
1.2932
1.2932
1.2932
1.2932
1.2932
1.2932
1.29319
1.29319
1.29319
1.29319
1.29319
1.29319
1.29319
1.29319
1.29319
1.29319
1.29319
1.29319
1.29319
1.29319
1.29319
1.29319
1.29319
1.29319
1.29319
1.29319
1.29319
1.29319
1.29319
1.29319
1.29319
1.29319
1.29319
1.29319
1.29319
1.29319
1.29319
1.29319
1.29319
1.29319
1.29319
1.29319
1.29319
1.29319
1.29319
1.29319
1.29319
1.29319
1.29319
1.29319
1.29319
1.29319
1.29319
1.29319
1.29318
1.29318
1.29318
1.29318
1.29318
1.29319
1.29319
1.29319
1.29319
1.29319
1.29319
1.29319
1.29319
1.29319
1.29319
1.29319
1.29319
1.29319
1.29319
1.29319
1.29319
1.29319
1.29319
1.29318
1.29318
1.29318
1.29318
1.29318
1.29318
1.29318
1.29318
1.29318
1.29318
1.29318
1.29318
1.29318
1.29319
1.29319
1.29319
1.29319
1.29319
1.29319
1.29319
1.29319
1.29319
1.29318
1.29317
1.29317
1.29317
1.29317
1.29317
1.29317
1.29317
1.29317
1.29317
1.29317
1.29318
1.29318
1.29318
1.29318
1.29318
1.29318
1.29318
1.29318
1.29318
1.29318
1.29318
1.29318
1.29318
1.29315
1.29315
1.29315
1.29315
1.29315
1.29315
1.29316
1.29316
1.29316
1.29316
1.29316
1.29317
1.29317
1.29317
1.29317
1.29318
1.29318
1.29318
1.29318
1.29318
1.29318
1.29318
1.29318
1.29313
1.29313
1.29313
1.29313
1.29313
1.29314
1.29314
1.29314
1.29314
1.29314
1.29315
1.29315
1.29315
1.29316
1.29316
1.29316
1.29317
1.29317
1.29317
1.29317
1.29318
1.29318
1.29318
1.29312
1.29312
1.29312
1.29312
1.29312
1.29312
1.29312
1.29312
1.29312
1.29312
1.29313
1.29313
1.29313
1.29313
1.29314
1.29314
1.29315
1.29315
1.29316
1.29316
1.29317
1.29317
1.29317
1.2931
1.2931
1.2931
1.2931
1.29311
1.29311
1.29311
1.29311
1.29311
1.29311
1.29311
1.29311
1.29311
1.29312
1.29312
1.29312
1.29313
1.29313
1.29313
1.29314
1.29315
1.29315
1.29316
1.29309
1.29309
1.29309
1.2931
1.2931
1.2931
1.2931
1.2931
1.2931
1.2931
1.2931
1.2931
1.2931
1.2931
1.2931
1.29311
1.29311
1.29311
1.29311
1.29312
1.29312
1.29313
1.29314
1.29309
1.29309
1.29309
1.29309
1.29309
1.29309
1.29309
1.29309
1.29309
1.29309
1.29309
1.29309
1.29309
1.29309
1.2931
1.2931
1.2931
1.2931
1.2931
1.29311
1.29311
1.29311
1.29312
1.29308
1.29308
1.29308
1.29308
1.29308
1.29308
1.29309
1.29309
1.29309
1.29309
1.29309
1.29309
1.29309
1.29309
1.29309
1.29309
1.29309
1.2931
1.2931
1.2931
1.2931
1.2931
1.2931
1.29308
1.29308
1.29308
1.29308
1.29308
1.29308
1.29308
1.29308
1.29308
1.29308
1.29308
1.29309
1.29309
1.29309
1.29309
1.29309
1.29309
1.29309
1.29309
1.2931
1.2931
1.2931
1.2931
1.29308
1.29308
1.29308
1.29308
1.29308
1.29308
1.29308
1.29308
1.29308
1.29308
1.29308
1.29308
1.29308
1.29309
1.29309
1.29309
1.29309
1.29309
1.2931
1.2931
1.2931
1.2931
1.2931
1.29308
1.29308
1.29308
1.29308
1.29308
1.29308
1.29308
1.29308
1.29308
1.29308
1.29308
1.29309
1.29309
1.29309
1.29309
1.29309
1.2931
1.2931
1.2931
1.2931
1.29311
1.29311
1.29312
1.29308
1.29308
1.29308
1.29308
1.29308
1.29308
1.29308
1.29308
1.29308
1.29309
1.29309
1.29309
1.29309
1.29309
1.2931
1.2931
1.2931
1.29311
1.29311
1.29312
1.29312
1.29313
1.29314
1.29309
1.29309
1.29309
1.29309
1.29309
1.29309
1.29309
1.29309
1.29309
1.29309
1.29309
1.29309
1.2931
1.2931
1.2931
1.2931
1.29311
1.29311
1.29312
1.29313
1.29314
1.29315
1.29315
1.29309
1.29309
1.29309
1.29309
1.29309
1.29309
1.29309
1.29309
1.29309
1.29309
1.29309
1.2931
1.2931
1.2931
1.2931
1.29311
1.29311
1.29312
1.29313
1.29315
1.29315
1.29315
1.29314
1.29309
1.29309
1.29309
1.29309
1.29309
1.29309
1.29309
1.29309
1.29309
1.2931
1.2931
1.2931
1.2931
1.2931
1.29311
1.29311
1.29312
1.29313
1.29315
1.29315
1.29314
1.29312
1.29309
1.29309
1.29309
1.29309
1.29309
1.29309
1.29309
1.29309
1.29309
1.29309
1.2931
1.2931
1.2931
1.2931
1.2931
1.29311
1.29311
1.29313
1.29314
1.29315
1.29313
1.29309
1.29306
1.29306
1.2931
1.2931
1.2931
1.2931
1.2931
1.2931
1.2931
1.2931
1.2931
1.2931
1.2931
1.2931
1.2931
1.2931
1.29311
1.29312
1.29314
1.29314
1.29313
1.29309
1.29304
1.29302
1.29304
1.2931
1.2931
1.2931
1.2931
1.2931
1.2931
1.2931
1.2931
1.2931
1.2931
1.2931
1.2931
1.2931
1.2931
1.29311
1.29312
1.29314
1.29314
1.29309
1.29302
1.29299
1.29299
1.29304
1.2931
1.2931
1.2931
1.2931
1.2931
1.2931
1.2931
1.2931
1.2931
1.2931
1.2931
1.2931
1.29311
1.29311
1.29312
1.29313
1.29314
1.29312
1.29304
1.29297
1.29295
1.29298
1.29304
1.2931
1.2931
1.2931
1.2931
1.2931
1.2931
1.2931
1.2931
1.2931
1.2931
1.29311
1.29311
1.29311
1.29311
1.29312
1.29313
1.29313
1.29308
1.29298
1.29293
1.29292
1.29299
1.29304
1.29311
1.29311
1.29311
1.29311
1.29311
1.29311
1.29311
1.29311
1.29311
1.29311
1.29312
1.29312
1.29312
1.29312
1.29313
1.29314
1.29313
1.29305
1.29294
1.29289
1.2929
1.29298
1.29303
1.29312
1.29312
1.29312
1.29312
1.29312
1.29312
1.29312
1.29312
1.29312
1.29312
1.29313
1.29313
1.29313
1.29314
1.29314
1.29314
1.2931
1.29298
1.29287
1.29284
1.29289
1.29297
1.29303
1.29313
1.29313
1.29313
1.29313
1.29313
1.29313
1.29313
1.29313
1.29314
1.29314
1.29314
1.29315
1.29316
1.29317
1.29318
1.29317
1.29306
1.2929
1.29282
1.29282
1.29288
1.29296
1.29302
1.29844
1.29867
1.29853
1.29849
1.29745
1.2974
1.29767
1.29739
1.29573
1.29583
1.2959
1.29593
1.29451
1.29454
1.29465
1.29461
1.29362
1.29365
1.29368
1.2937
1.29333
1.29334
1.29335
1.29335
1.29328
1.2933
1.2933
1.2933
1.29322
1.29323
1.29323
1.29325
1.29321
1.29321
1.29322
1.29322
1.29321
1.29321
1.29321
1.29322
1.29321
1.29321
1.29321
1.29321
1.2932
1.2932
1.2932
1.2932
1.2932
1.2932
1.2932
1.29319
1.29319
1.29319
1.29319
1.29319
1.29319
1.29319
1.29319
1.29319
1.29319
1.29319
1.29319
1.29319
1.29319
1.29319
1.29319
1.29318
1.29319
1.29318
1.29318
1.29318
1.29318
1.29318
1.29318
1.29318
1.29318
1.29318
1.29318
1.29318
1.29318
1.29318
1.29318
1.29318
1.29318
1.29318
1.29318
1.29318
1.29317
1.29317
1.29317
1.29317
1.29316
1.29317
1.29317
1.29317
1.29314
1.29315
1.29315
1.29315
1.29312
1.29312
1.29313
1.29313
1.29311
1.29311
1.29311
1.29311
1.2931
1.2931
1.2931
1.2931
1.2931
1.29311
1.29311
1.29311
1.29312
1.29312
1.29312
1.29312
1.29314
1.29314
1.29314
1.29314
1.29314
1.29314
1.29314
1.29314
1.29313
1.29312
1.29312
1.29312
1.29309
1.2931
1.2931
1.2931
1.29308
1.29309
1.29309
1.2931
1.29307
1.29308
1.29309
1.29309
1.29307
1.29308
1.29309
1.29309
1.29307
1.29308
1.29308
1.29309
1.29306
1.29307
1.29308
1.29308
1.29306
1.29307
1.29307
1.29308
1.29305
1.29306
1.29307
1.29307
1.29304
1.29305
1.29306
1.29307
1.29655
1.29572
1.29664
1.29635
1.29698
1.29577
1.29575
1.2935
1.29318
1.29311
1.29303
1.29285
1.2929
1.29309
1.29318
1.29312
1.29306
1.29194
1.29213
1.298
1.29608
1.29669
1.29611
1.29635
1.29486
1.29401
1.29306
1.2933
1.29326
1.2931
1.29271
1.29291
1.29319
1.29319
1.2931
1.29304
1.29152
1.29197
1.29612
1.29583
1.29615
1.29575
1.296
1.2943
1.29325
1.29321
1.29311
1.29309
1.29296
1.29271
1.29301
1.29325
1.29319
1.2931
1.293
1.29148
1.29195
1.29493
1.29454
1.29485
1.29467
1.29513
1.29362
1.29311
1.29328
1.29304
1.29292
1.29291
1.29279
1.29316
1.29324
1.29316
1.29309
1.29289
1.29124
1.29193
1.29382
1.29387
1.29401
1.29426
1.29479
1.29343
1.29299
1.29312
1.29293
1.29291
1.29297
1.29297
1.29325
1.29321
1.29315
1.29309
1.2927
1.29111
1.29193
1.29335
1.29335
1.2934
1.29356
1.2938
1.29321
1.29293
1.29305
1.29295
1.29293
1.29303
1.29312
1.29325
1.2932
1.29313
1.29307
1.29246
1.29099
1.29198
1.2933
1.2933
1.29329
1.2933
1.29349
1.29293
1.29279
1.29295
1.29298
1.29296
1.29304
1.29315
1.29322
1.29318
1.29313
1.29302
1.29224
1.29089
1.29224
1.29326
1.29325
1.29325
1.29323
1.29321
1.29266
1.29243
1.29268
1.29308
1.29303
1.29303
1.29317
1.29316
1.29313
1.29307
1.2929
1.29191
1.29083
1.29275
1.29323
1.29324
1.29322
1.2932
1.29318
1.29287
1.29246
1.29274
1.29345
1.29308
1.29306
1.29313
1.2928
1.2927
1.2927
1.2925
1.29158
1.29102
1.29344
1.29322
1.29321
1.29314
1.29311
1.29292
1.29261
1.29277
1.29227
1.29234
1.29261
1.29262
1.29302
1.29122
1.29253
1.29266
1.29289
1.29153
1.2923
1.29424
1.2932
1.29315
1.29308
1.29297
1.29288
1.29262
1.29253
1.2928
1.2921
1.29168
1.2915
1.29125
1.29093
1.29045
1.29052
1.29066
1.29146
1.29267
1.29439
1.29318
1.29308
1.29305
1.29315
1.29264
1.29229
1.29263
1.29291
1.29359
1.29374
1.29358
1.29375
1.29345
1.29303
1.29349
1.29353
1.29344
1.29345
1.29406
1.29317
1.29309
1.29306
1.29311
1.29331
1.29351
1.29317
1.29322
1.29333
1.29321
1.29287
1.29244
1.29233
1.29228
1.29256
1.29234
1.29251
1.29242
1.29306
1.29317
1.29311
1.29308
1.29309
1.29315
1.29317
1.29317
1.29336
1.2935
1.29352
1.29357
1.29336
1.29282
1.29239
1.29261
1.29303
1.29313
1.29335
1.29347
1.29318
1.29316
1.29312
1.29309
1.29312
1.29316
1.29315
1.29312
1.2931
1.29307
1.29303
1.29306
1.29316
1.29326
1.29321
1.29278
1.29283
1.2928
1.29299
1.29318
1.29317
1.29315
1.29312
1.29312
1.29315
1.29313
1.29311
1.2931
1.29309
1.29305
1.29297
1.29287
1.29274
1.29268
1.29252
1.29231
1.29303
1.29311
1.29318
1.29318
1.29317
1.29314
1.29311
1.29314
1.29314
1.29313
1.29313
1.29313
1.29314
1.29312
1.29307
1.29297
1.29281
1.29254
1.29237
1.2928
1.29316
1.29318
1.29318
1.29317
1.29316
1.29312
1.29312
1.29313
1.29312
1.29312
1.29313
1.29315
1.29316
1.29315
1.29311
1.29299
1.29264
1.29237
1.29252
1.293
1.29318
1.29318
1.29318
1.29317
1.29315
1.29313
1.29312
1.29312
1.29312
1.29313
1.29315
1.29316
1.29317
1.29314
1.29307
1.29283
1.29263
1.2927
1.29338
1.29318
1.29318
1.29318
1.29317
1.29316
1.29315
1.29314
1.29313
1.29313
1.29314
1.29315
1.29316
1.29317
1.29316
1.29313
1.29306
1.29299
1.2929
1.29308
1.29318
1.29318
1.29318
1.29317
1.29317
1.29316
1.29316
1.29315
1.29315
1.29315
1.29316
1.29317
1.29318
1.29317
1.29317
1.29317
1.29316
1.29309
1.29319
1.29318
1.29318
1.29317
1.29317
1.29317
1.29317
1.29317
1.29316
1.29316
1.29316
1.29317
1.29317
1.29318
1.29317
1.29318
1.29317
1.29316
1.29314
1.29311
1.29317
1.29317
1.29317
1.29317
1.29317
1.29317
1.29317
1.29317
1.29317
1.29317
1.29317
1.29317
1.29317
1.29317
1.29317
1.29315
1.29309
1.29307
1.29312
1.29317
1.29317
1.29317
1.29317
1.29317
1.29317
1.29317
1.29317
1.29317
1.29317
1.29317
1.29317
1.29317
1.29317
1.29316
1.29308
1.29304
1.29293
1.29307
1.29316
1.29316
1.29317
1.29317
1.29317
1.29317
1.29317
1.29317
1.29317
1.29317
1.29317
1.29316
1.29317
1.29316
1.29314
1.29305
1.293
1.29279
1.29293
1.29314
1.29315
1.29316
1.29316
1.29316
1.29316
1.29316
1.29316
1.29316
1.29316
1.29316
1.29316
1.29316
1.29315
1.29313
1.29318
1.29311
1.29306
1.29291
1.29312
1.29313
1.29314
1.29315
1.29316
1.29316
1.29316
1.29316
1.29316
1.29316
1.29316
1.29316
1.29316
1.29314
1.29314
1.29326
1.29336
1.29322
1.29288
1.29311
1.29311
1.29312
1.29313
1.29314
1.29315
1.29316
1.29316
1.29316
1.29316
1.29316
1.29315
1.29315
1.29314
1.29316
1.29328
1.29326
1.29344
1.29297
1.29311
1.29311
1.29311
1.29311
1.29312
1.29314
1.29315
1.29315
1.29316
1.29316
1.29315
1.29315
1.29315
1.29313
1.29317
1.29314
1.29299
1.29344
1.29303
1.29312
1.29312
1.29311
1.29311
1.29311
1.29312
1.29313
1.29315
1.29315
1.29315
1.29315
1.29315
1.29314
1.29313
1.29317
1.29303
1.29283
1.29328
1.29309
1.29314
1.29314
1.29313
1.29313
1.29312
1.29312
1.29313
1.29314
1.29314
1.29315
1.29315
1.29314
1.29314
1.29313
1.29316
1.29299
1.29277
1.29304
1.2931
1.29314
1.29313
1.29313
1.29313
1.29313
1.29313
1.29312
1.29313
1.29314
1.29314
1.29314
1.29314
1.29313
1.29313
1.29314
1.29298
1.29274
1.29283
1.29309
1.29312
1.29312
1.29312
1.29311
1.29312
1.29312
1.29312
1.29313
1.29313
1.29314
1.29314
1.29314
1.29313
1.29313
1.29313
1.29299
1.29274
1.29267
1.29303
1.29311
1.29311
1.29311
1.2931
1.29309
1.2931
1.29311
1.29312
1.29312
1.29313
1.29313
1.29313
1.29313
1.29312
1.29312
1.29302
1.29277
1.29258
1.29297
1.2931
1.29311
1.2931
1.29309
1.29308
1.29308
1.29309
1.29311
1.29312
1.29313
1.29313
1.29313
1.29313
1.29312
1.29312
1.29307
1.29283
1.29256
1.29291
1.2931
1.2931
1.29309
1.29308
1.29306
1.29305
1.29306
1.29309
1.29311
1.29312
1.29312
1.29313
1.29313
1.29312
1.29312
1.29309
1.29288
1.29257
1.29286
1.2931
1.29309
1.29309
1.29307
1.29305
1.29304
1.29305
1.29308
1.2931
1.29312
1.29312
1.29313
1.29313
1.29312
1.29312
1.2931
1.2929
1.29259
1.2928
1.29309
1.29309
1.29308
1.29306
1.29305
1.29303
1.29304
1.29306
1.29309
1.29311
1.29312
1.29312
1.29312
1.29312
1.29312
1.29309
1.29291
1.29262
1.29275
1.29308
1.29308
1.29307
1.29307
1.29306
1.29305
1.29305
1.29307
1.29309
1.29311
1.29312
1.29312
1.29312
1.29312
1.29312
1.2931
1.29293
1.29267
1.2927
1.29308
1.29307
1.29307
1.29306
1.29305
1.29305
1.29306
1.29307
1.29309
1.2931
1.29311
1.29312
1.29312
1.29312
1.29312
1.29309
1.29294
1.29272
1.29272
1.29307
1.29307
1.29307
1.29306
1.29306
1.29306
1.29307
1.29308
1.29309
1.29311
1.29311
1.29312
1.29312
1.29312
1.29312
1.2931
1.29297
1.29277
1.29261
1.29307
1.29307
1.29306
1.29306
1.29306
1.29305
1.29306
1.29307
1.29308
1.29309
1.2931
1.29311
1.29312
1.29312
1.29313
1.29311
1.29298
1.29278
1.29261
)
;

boundaryField
{
    leftWall
    {
        type            calculated;
        value           nonuniform List<scalar> 
50
(
1.30008
1.29932
1.29856
1.29779
1.29701
1.29625
1.29547
1.29472
1.2938
1.29333
1.29327
1.29323
1.29322
1.29321
1.29321
1.29321
1.29321
1.29321
1.2932
1.2932
1.2932
1.2932
1.2932
1.29319
1.29319
1.29318
1.29318
1.29317
1.29315
1.29313
1.29312
1.2931
1.29309
1.29309
1.29308
1.29308
1.29308
1.29308
1.29308
1.29309
1.29309
1.29309
1.29309
1.2931
1.2931
1.2931
1.2931
1.29311
1.29312
1.29313
)
;
    }
    rightWall
    {
        type            calculated;
        value           nonuniform List<scalar> 
50
(
1.30903
1.30593
1.30344
1.30066
1.29805
1.2959
1.29381
1.29251
1.29213
1.29197
1.29195
1.29193
1.29193
1.29198
1.29224
1.29275
1.29344
1.29424
1.29439
1.29406
1.29306
1.29347
1.29299
1.29311
1.29316
1.293
1.29338
1.29308
1.29319
1.29311
1.29312
1.29307
1.29293
1.29291
1.29288
1.29297
1.29303
1.29309
1.2931
1.29309
1.29303
1.29297
1.29291
1.29286
1.2928
1.29275
1.2927
1.29272
1.29261
1.29261
)
;
    }
    lowerWall
    {
        type            calculated;
        value           nonuniform List<scalar> 
62
(
1.30046
1.30048
1.30052
1.30059
1.30068
1.3008
1.30094
1.30112
1.30132
1.30155
1.3018
1.30208
1.30236
1.30268
1.30296
1.30328
1.30354
1.30382
1.30405
1.30427
1.30443
1.30456
1.30462
1.30425
1.30351
1.30279
1.30207
1.30138
1.3007
1.30004
1.2994
1.29924
1.29947
1.29933
1.29922
1.3057
1.30202
1.29678
1.29722
1.29682
1.29795
1.29685
1.29726
1.3059
1.29727
1.29736
1.29687
1.29864
1.30238
1.30553
1.30322
1.30026
1.29896
1.29654
1.29423
1.29374
1.29356
1.29364
1.29416
1.29548
1.30104
1.30931
)
;
    }
    atmosphere
    {
        type            calculated;
        value           nonuniform List<scalar> 
46
(
1.29322
1.29322
1.29322
1.29322
1.29322
1.29322
1.29322
1.29323
1.29323
1.29323
1.29324
1.29324
1.29325
1.29326
1.29327
1.29325
1.29315
1.29299
1.29291
1.29291
1.29297
1.29306
1.29311
1.29314
1.29315
1.29316
1.29316
1.29316
1.29317
1.29316
1.29316
1.29316
1.29316
1.29316
1.29317
1.29318
1.2932
1.2932
1.29321
1.29321
1.29322
1.29322
1.2932
1.29308
1.29287
1.29272
)
;
    }
    defaultFaces
    {
        type            empty;
    }
}


// ************************************************************************* //
