/*--------------------------------*- C++ -*----------------------------------*\
| =========                 |                                                 |
| \\      /  F ield         | OpenFOAM: The Open Source CFD Toolbox           |
|  \\    /   O peration     | Version:  2012                                  |
|   \\  /    A nd           | Website:  www.openfoam.com                      |
|    \\/     M anipulation  |                                                 |
\*---------------------------------------------------------------------------*/
FoamFile
{
    version     2.0;
    format      ascii;
    class       volScalarField;
    location    "0.6";
    object      rhogh;
}
// * * * * * * * * * * * * * * * * * * * * * * * * * * * * * * * * * * * * * //

dimensions      [1 -1 -2 0 0 0 0];


internalField   nonuniform List<scalar> 
2268
(
-29.4294
-29.4294
-29.4294
-29.4294
-29.4294
-29.4294
-29.4294
-29.4294
-29.4294
-29.4294
-29.4294
-29.4294
-29.4294
-29.4294
-29.4294
-29.4294
-29.4294
-29.4294
-29.4294
-29.4294
-29.4294
-29.4294
-29.4229
-88.2881
-88.2881
-88.2881
-88.2881
-88.2881
-88.2881
-88.2881
-88.2881
-88.2881
-88.2881
-88.2881
-88.2881
-88.2881
-88.2881
-88.2881
-88.2881
-88.2881
-88.2881
-88.2881
-88.2881
-88.2881
-88.2881
-88.2626
-147.147
-147.147
-147.147
-147.147
-147.147
-147.147
-147.147
-147.147
-147.147
-147.147
-147.147
-147.147
-147.147
-147.147
-147.147
-147.147
-147.147
-147.147
-147.147
-147.147
-147.147
-147.147
-147.104
-206.006
-206.006
-206.006
-206.006
-206.006
-206.006
-206.006
-206.006
-206.006
-206.006
-206.006
-206.006
-206.006
-206.006
-206.006
-206.006
-206.006
-206.006
-206.006
-206.006
-206.006
-206.006
-205.946
-264.864
-264.864
-264.864
-264.864
-264.864
-264.864
-264.864
-264.864
-264.864
-264.864
-264.864
-264.864
-264.864
-264.864
-264.864
-264.864
-264.864
-264.864
-264.864
-264.864
-264.864
-264.864
-264.833
-323.723
-323.723
-323.723
-323.723
-323.723
-323.723
-323.723
-323.723
-323.723
-323.723
-323.723
-323.723
-323.723
-323.723
-323.723
-323.723
-323.723
-323.723
-323.723
-323.723
-323.723
-323.723
-323.723
-382.581
-382.581
-382.581
-382.582
-382.582
-382.582
-382.582
-382.582
-382.582
-382.582
-382.582
-382.582
-382.582
-382.582
-382.582
-382.582
-382.582
-382.582
-382.582
-382.582
-382.582
-382.582
-382.582
-438.884
-438.859
-439.216
-439.672
-440.136
-440.474
-440.905
-441.174
-441.339
-441.436
-441.44
-441.44
-441.44
-441.44
-441.44
-441.44
-441.44
-441.44
-441.44
-441.44
-441.44
-441.44
-441.44
-16.1558
-16.1561
-16.156
-17.5621
-20.3004
-21.2916
-21.3913
-21.3913
-21.4023
-21.4377
-21.9651
-21.965
-21.9651
-21.9452
-21.9063
-22.3276
-22.8093
-22.8103
-22.22
-48.4365
-8.35155
-6.73681
-7.67208
-30.6595
-55.8254
-60.4388
-43.3301
-38.9796
-46.3932
-58.6022
-58.2148
-51.6944
-49.2873
-50.4994
-57.2336
-63.2866
-68.4621
-68.462
-69.545
-0.0591342
-0.0591279
-0.756127
-43.4484
-119.079
-115.995
-45.7756
-9.04506
-9.04469
-32.112
-13.5162
-7.63414
-7.49068
-12.0016
-20.612
-33.6382
-79.859
-114.177
-35.145
-0.656264
-0.0221284
-0.077895
-5.49837
-151.524
-203.2
-182.28
-145.78
-69.713
-11.2329
-1.08673
-0.119376
-0.071831
-9.70433e-06
-9.70188e-06
-0.373243
-41.8632
-158.948
-0.411131
-0.411163
-0.0954619
5.59882e-21
-2.85213e-17
-152.164
-261.257
-262.263
-262.263
-234.609
-80.8492
-2.17639
-0.00065799
-1.59511e-05
-1.24763e-05
-0.000676068
-0.350858
-20.1346
-161.919
-41.8554
-1.80656
5.06377e-20
1.47603e-21
-27.6415
-266.957
-320.183
-320.544
-290.923
-233.748
-86.6618
-2.28884
-0.000425145
-9.35474e-08
-1.75002e-06
-8.74476e-05
-0.063277
-16.1794
-224.564
-74.1112
-7.47768
-0.0689011
-1.05674e-19
-114.071
-360.615
-380.842
-351.276
-165.709
-70.6334
-30.6906
-2.77597
-0.000745038
-1.10603e-07
-4.78288e-07
-1.81665e-07
-0.00789359
-12.4654
-317.19
-72.8517
-11.907
-1.30529
-6.95742e-17
-253.687
-435.578
-439.434
-311.652
-57.1767
-6.624
-2.60793
-1.4779
-0.022133
-2.35038e-07
-8.13437e-08
-2.09616e-07
-1.17709e-13
-4.52958
-366.007
-319.911
-322.386
-332.471
-346.787
-365.855
-386.733
-415.995
-444.443
-475.541
-505.63
-523.401
-531.877
-533.467
-533.467
-533.467
-533.467
-533.467
-533.467
-533.467
-533.467
-533.467
-533.467
-533.467
-1.33777
-4.16321
-7.83213
-13.276
-23.077
-36.5767
-57.1668
-83.2662
-123.521
-180.313
-265.364
-377.69
-499.647
-606.705
-658.662
-658.662
-658.662
-658.662
-658.662
-658.662
-658.662
-658.662
-658.662
-2.12921e-32
-2.15201e-32
4.38931e-31
-1.05177e-30
-1.72823e-31
1.52452e-28
1.45045e-29
1.14702e-31
1.32222e-20
-0.0648662
-3.43996
-20.1037
-66.0476
-153.006
-303.242
-474.423
-633.242
-774.38
-783.856
-783.822
-783.818
-783.854
-783.856
-4.04062e-15
-1.97068e-13
-5.83334e-12
-9.90528e-11
-1.12756e-09
-6.64644e-09
-8.82963e-09
-5.51993e-09
-6.38981e-09
-6.23957e-08
-7.85802e-25
3.44439e-24
-3.97379e-19
-3.4282
-15.8149
-60.0381
-120.841
-253.447
-443.133
-626.129
-785.61
-864.506
-895.378
-1.17644e-14
-6.00881e-13
-1.65778e-11
-2.75674e-10
-3.04349e-09
-1.81067e-08
-3.0851e-08
-4.47088e-08
-3.14702e-08
-1.08901e-08
-9.319e-06
-8.73508e-05
3.06699e-22
2.59364e-24
5.33927e-20
-0.157688
-0.334542
-4.3591
-20.6851
-29.8835
-86.0231
-181.806
-290.877
-9.70589e-15
-5.32196e-13
-1.54717e-11
-2.72086e-10
-3.29332e-09
-2.24362e-08
-4.25147e-08
-9.95867e-08
-1.1839e-07
-1.18718e-07
-9.27128e-05
-0.00138661
-0.0014421
-0.00240223
-0.0021926
-0.000700287
-9.32067e-05
-1.38796e-09
-1.38796e-09
-1.38796e-09
-1.38796e-09
-1.38796e-09
-1.38796e-09
-7.6711e-15
-3.98324e-13
-1.0504e-11
-1.66198e-10
-2.09407e-09
-1.66637e-08
-2.33135e-08
-1.19185e-07
-4.70292e-07
-3.42422e-07
-1.55332e-06
-0.00139201
-0.00270272
-0.00270272
-0.00119126
-0.00013536
-2.00988e-05
-1.17312e-05
-3.25502e-06
-0.000269811
-0.00213505
-0.00054158
-1.53783e-09
-4.08136e-15
-2.0179e-13
-5.33116e-12
-8.32276e-11
-1.06886e-09
-8.72876e-09
-1.18762e-08
-1.54122e-07
-9.84616e-07
-6.44386e-06
-6.19252e-05
-3.64822e-05
-0.00039138
-3.40628e-05
-1.05009e-06
-1.38133e-05
-4.33615e-05
-4.70251e-05
-1.68567e-05
-7.78371e-05
-0.000453454
-9.80634e-05
-0.000217853
-1.66188e-15
-7.62686e-14
-1.97399e-12
-2.90319e-11
-3.11463e-10
-3.29954e-09
-2.47924e-09
-9.86965e-08
-1.18872e-06
-5.09727e-06
-4.25216e-06
-3.94137e-07
-2.68854e-07
-1.48823e-07
-1.40967e-07
-9.22317e-07
-3.60688e-05
-5.2961e-05
-5.04426e-05
-1.76796e-05
-5.53449e-07
-1.88562e-06
-2.32872e-05
-6.33773e-16
-2.81041e-14
-7.15163e-13
-1.03623e-11
-1.08712e-10
-1.10157e-09
-1.43299e-09
-9.50318e-08
-7.29788e-07
-3.44839e-06
-2.161e-06
-6.76281e-07
-2.3289e-07
-4.18433e-07
-6.90342e-07
-7.1709e-07
-3.34936e-06
-2.23734e-05
-2.30341e-05
-6.6801e-06
-5.98471e-07
-2.94755e-06
-2.60901e-05
-1.93428e-16
-8.0645e-15
-1.9958e-13
-2.79254e-12
-2.61589e-11
-2.75039e-10
-4.22191e-10
-3.55019e-08
-2.26455e-07
-2.07364e-07
-2.89311e-07
-2.55454e-07
-2.26209e-07
-3.8741e-07
-7.66819e-07
-8.3249e-07
-5.11749e-07
-8.73982e-07
-1.0603e-06
-1.00526e-06
-7.67586e-07
-1.74494e-06
-1.18399e-05
-5.10442e-17
-2.06027e-15
-5.00022e-14
-6.89857e-13
-6.50517e-12
-5.51819e-11
-2.62005e-10
-8.72938e-09
-4.21758e-08
-4.99089e-08
-6.48192e-08
-7.09408e-08
-8.31954e-08
-1.1509e-07
-2.85614e-07
-5.25493e-07
-5.0946e-07
-4.43346e-07
-3.59256e-07
-3.96746e-07
-4.79914e-07
-4.36973e-07
-1.05586e-06
-1.08576e-17
-4.15341e-16
-9.75639e-15
-1.31313e-13
-1.24696e-12
-9.52467e-12
-8.04427e-11
-1.45666e-09
-4.69961e-09
-1.00914e-08
-1.58483e-08
-1.71497e-08
-1.93614e-08
-2.41173e-08
-4.35042e-08
-9.12847e-08
-2.06916e-07
-2.97683e-07
-3.33768e-07
-3.49137e-07
-3.55587e-07
-2.5304e-07
-1.97693e-07
-1.86608e-18
-6.99592e-17
-1.63098e-15
-2.20481e-14
-2.1653e-13
-1.64196e-12
-2.1371e-11
-1.75751e-10
-6.3655e-10
-1.51529e-09
-2.44448e-09
-2.754e-09
-3.26002e-09
-4.17491e-09
-7.02414e-09
-1.4074e-08
-3.40337e-08
-7.26774e-08
-1.47714e-07
-1.84686e-07
-1.95554e-07
-1.6255e-07
-1.14194e-07
-2.52585e-19
-9.1753e-18
-2.11863e-16
-2.89106e-15
-2.94918e-14
-2.29716e-13
-3.79801e-12
-1.76256e-11
-5.4386e-11
-1.24635e-10
-2.06685e-10
-2.62097e-10
-3.57837e-10
-5.46616e-10
-1.06925e-09
-2.21205e-09
-5.05413e-09
-1.08333e-08
-2.46866e-08
-3.86316e-08
-5.38464e-08
-5.90777e-08
-5.62148e-08
-2.64015e-20
-9.59166e-19
-2.25329e-17
-3.18613e-16
-3.42987e-15
-2.76322e-14
-4.67011e-13
-1.83891e-12
-4.43527e-12
-6.74466e-12
-9.82415e-12
-1.45329e-11
-2.72686e-11
-5.92702e-11
-1.45987e-10
-3.25867e-10
-7.20193e-10
-1.45853e-09
-3.29196e-09
-6.02471e-09
-1.04459e-08
-1.47818e-08
-1.85265e-08
-2.0659e-21
-7.58061e-20
-1.83612e-18
-2.7267e-17
-3.10119e-16
-2.54101e-15
-3.4868e-14
-1.50249e-13
-3.62756e-13
-5.0629e-13
-6.67032e-13
-1.02248e-12
-2.29362e-12
-6.12283e-12
-1.70131e-11
-4.04549e-11
-9.11984e-11
-1.81292e-10
-3.96647e-10
-7.95703e-10
-1.62099e-09
-2.82696e-09
-4.46022e-09
-1.16117e-22
-4.48431e-21
-1.15623e-19
-1.83985e-18
-2.20773e-17
-1.81107e-16
-1.63304e-15
-6.93448e-15
-1.79554e-14
-3.01707e-14
-4.50791e-14
-7.74647e-14
-1.84797e-13
-5.13386e-13
-1.46256e-12
-3.65614e-12
-8.78957e-12
-1.85021e-11
-4.1824e-11
-9.06528e-11
-2.09101e-10
-4.33512e-10
-8.31095e-10
-4.40657e-24
-1.85941e-22
-5.23371e-21
-8.97029e-20
-1.11842e-18
-9.06309e-18
-5.5766e-17
-1.94684e-16
-4.33445e-16
-7.80738e-16
-1.45828e-15
-3.45566e-15
-9.83279e-15
-2.916e-14
-8.35525e-14
-2.18811e-13
-5.76729e-13
-1.36151e-12
-3.46136e-12
-8.3954e-12
-2.20779e-11
-5.36412e-11
-1.22894e-10
-1.03809e-25
-5.09866e-24
-1.61315e-22
-2.98585e-21
-3.82428e-20
-3.02079e-19
-1.6005e-18
-4.96392e-18
-1.10564e-17
-2.26355e-17
-5.02951e-17
-1.38326e-16
-4.03341e-16
-1.16772e-15
-3.18648e-15
-8.42978e-15
-2.43792e-14
-6.6992e-14
-2.06009e-13
-5.8809e-13
-1.8288e-12
-5.24661e-12
-1.43732e-11
-1.4171e-27
-7.78167e-26
-2.67525e-24
-5.18682e-23
-6.71277e-22
-5.18043e-21
-2.34463e-20
-7.59999e-20
-2.07845e-19
-5.77886e-19
-1.63314e-18
-4.62717e-18
-1.24621e-17
-3.29547e-17
-7.80557e-17
-2.00668e-16
-6.25854e-16
-2.07066e-15
-8.23945e-15
-2.91747e-14
-1.13494e-13
-3.93909e-13
-1.31374e-12
-1.84586e-29
-7.11213e-28
-1.82652e-26
-3.09582e-25
-4.34593e-24
-4.31246e-23
-2.5471e-22
-1.15299e-21
-4.43242e-21
-1.56462e-20
-4.74508e-20
-1.29062e-19
-3.02471e-19
-6.61842e-19
-1.3484e-18
-3.05989e-18
-9.11681e-18
-3.72559e-17
-2.04082e-16
-9.51363e-16
-4.98507e-15
-2.17391e-14
-9.14245e-14
-5.13435e-31
-2.06948e-29
-5.33534e-28
-8.89666e-27
-1.18865e-25
-1.15031e-24
-6.86218e-24
-3.12128e-23
-1.17138e-22
-3.91967e-22
-1.09462e-21
-2.70727e-21
-5.81186e-21
-1.11465e-20
-1.82417e-20
-3.37978e-20
-7.37288e-20
-3.0883e-19
-2.56988e-18
-1.77684e-17
-1.42664e-16
-8.34653e-16
-4.78652e-15
-7.03359e-33
-2.98765e-31
-7.6568e-30
-1.20966e-28
-1.37591e-27
-1.13631e-26
-7.3181e-26
-3.76977e-25
-1.52733e-24
-5.17058e-24
-1.39663e-23
-3.30784e-23
-6.8816e-23
-1.31206e-22
-2.19271e-22
-3.32885e-22
-5.332e-22
-2.49642e-21
-3.50401e-20
-3.6455e-19
-3.03468e-18
-2.07167e-17
-2.06414e-16
-2.08806e-38
-6.25508e-37
-1.0957e-35
-1.17413e-34
-8.45662e-34
-3.26072e-33
-9.63315e-33
-4.40329e-32
-2.32389e-31
-1.02866e-30
-3.4659e-30
-1.26914e-29
-3.14698e-28
-2.64755e-26
-2.20997e-24
-1.20215e-22
-5.76943e-21
-1.59255e-19
-4.10805e-18
-6.59254e-17
-6.59584e-16
-9.86346e-16
-3.08562e-16
-1.07948e-42
-4.55032e-41
-1.15761e-39
-1.97811e-38
-2.65555e-37
-3.26627e-36
-6.84673e-35
-9.43122e-34
-6.61012e-33
-4.11528e-32
-1.46986e-30
-1.71606e-28
-2.01089e-26
-1.74906e-24
-1.37248e-22
-7.47968e-21
-3.5201e-19
-1.07873e-17
-3.09686e-16
-6.47686e-15
-8.82082e-14
-1.86703e-13
-1.38116e-13
-4.27561e-46
-1.81514e-44
-4.40405e-43
-6.8241e-42
-7.79351e-41
-1.14862e-39
-1.37829e-37
-2.85693e-35
-5.23281e-33
-7.76864e-31
-1.07699e-28
-1.20166e-26
-1.22305e-24
-9.57288e-23
-6.76732e-21
-3.5025e-19
-1.55904e-17
-4.90007e-16
-1.44204e-14
-3.37439e-13
-4.85744e-12
-1.06475e-11
-1.05803e-11
-1.88414e-51
-8.60583e-49
-7.69718e-46
-4.6163e-43
-1.98737e-40
-6.37181e-38
-1.60612e-35
-3.17251e-33
-5.2085e-31
-6.82519e-29
-8.12643e-27
-7.88668e-25
-6.83959e-23
-4.65247e-21
-2.85425e-19
-1.34278e-17
-5.4414e-16
-1.64985e-14
-4.68608e-13
-1.10365e-11
-1.49022e-10
-2.99518e-10
-3.13489e-10
-5.04768e-50
-9.73365e-47
-9.01312e-44
-5.22672e-41
-2.15408e-38
-6.60197e-36
-1.58619e-33
-2.9927e-31
-4.61738e-29
-5.67679e-27
-5.83759e-25
-4.86297e-23
-3.563e-21
-2.06204e-19
-1.05945e-17
-4.35534e-16
-1.55364e-14
-4.32498e-13
-1.12354e-11
-2.44612e-10
-2.88979e-09
-4.82953e-09
-4.69706e-09
-5.58153e-48
-1.04108e-44
-9.23876e-42
-5.1431e-39
-2.02438e-36
-5.92382e-34
-1.34777e-31
-2.40574e-29
-3.46648e-27
-3.98486e-25
-3.75083e-23
-2.81671e-21
-1.73911e-19
-8.52954e-18
-3.58723e-16
-1.24865e-14
-3.78507e-13
-9.2208e-12
-2.06051e-10
-3.82879e-09
-3.63616e-08
-4.51333e-08
-3.76324e-08
-4.49306e-46
-8.07456e-43
-6.88947e-40
-3.68492e-37
-1.38936e-34
-3.88524e-32
-8.40215e-30
-1.41993e-27
-1.92054e-25
-2.06367e-23
-1.79441e-21
-1.24078e-19
-6.94785e-18
-3.08302e-16
-1.11161e-14
-3.19588e-13
-7.91488e-12
-1.61794e-10
-2.92411e-09
-4.32504e-08
-2.86107e-07
-2.27432e-07
-1.35831e-07
-3.2788e-44
-5.67433e-41
-4.6488e-38
-2.38275e-35
-8.55814e-33
-2.26997e-30
-4.61618e-28
-7.29573e-26
-9.13336e-24
-9.03827e-22
-7.15469e-20
-4.48401e-18
-2.24741e-16
-8.897e-15
-2.81949e-13
-7.09191e-12
-1.44897e-10
-2.3921e-09
-3.28927e-08
-3.61894e-07
-1.47273e-06
-1.30586e-06
-4.38309e-06
-1.45413e-42
-2.4449e-39
-1.94511e-36
-9.66161e-34
-3.35392e-31
-8.55619e-29
-1.66334e-26
-2.49407e-24
-2.93385e-22
-2.70247e-20
-1.96767e-18
-1.12283e-16
-5.05577e-15
-1.77976e-13
-4.94331e-12
-1.08066e-10
-1.89532e-09
-2.66893e-08
-3.01397e-07
-2.88431e-06
-2.86923e-05
-0.000297615
-0.00308192
-6.7548e-41
-1.08962e-37
-8.26788e-35
-3.89235e-32
-1.26958e-29
-3.02574e-27
-5.44349e-25
-7.50479e-23
-8.0326e-21
-6.68448e-19
-4.34722e-17
-2.19577e-15
-8.62485e-14
-2.61187e-12
-6.11489e-11
-1.10654e-09
-1.59316e-08
-1.84781e-07
-2.17613e-06
-5.11016e-05
-0.00100351
-0.0159606
-0.0282557
-1.01936e-39
-1.65808e-36
-1.27379e-33
-6.07602e-31
-2.00349e-28
-4.79211e-26
-8.56621e-24
-1.15633e-21
-1.19011e-19
-9.32023e-18
-5.5721e-16
-2.52322e-14
-8.61466e-13
-2.18533e-11
-4.07362e-10
-5.46482e-09
-5.19555e-08
-3.8864e-07
-1.82723e-05
-0.00103845
-0.0189431
-0.0336767
-0.032725
-3.00958e-38
-4.5275e-35
-3.18492e-32
-1.38099e-29
-4.10377e-27
-8.79505e-25
-1.39832e-22
-1.67184e-20
-1.51271e-18
-1.03377e-16
-5.31393e-15
-2.03195e-13
-5.69919e-12
-1.14382e-10
-1.58964e-09
-1.44304e-08
-7.71518e-08
-4.05741e-07
-0.000160209
-0.01379
-0.0345907
-0.0334937
-0.00597042
-7.63041e-38
-1.26164e-34
-9.76449e-32
-4.63973e-29
-1.50458e-26
-3.4912e-24
-5.95504e-22
-7.51996e-20
-7.05366e-18
-4.86564e-16
-2.4469e-14
-8.7948e-13
-2.21745e-11
-3.80118e-10
-4.24399e-09
-2.84643e-08
-9.54603e-08
-1.12756e-06
-0.00114045
-0.0237953
-0.0351165
-0.00622313
-6.05916e-07
-1.0805e-36
-1.63517e-33
-1.15198e-30
-4.9526e-28
-1.43955e-25
-2.97238e-23
-4.46799e-21
-4.94444e-19
-4.03438e-17
-2.41752e-15
-1.05292e-13
-3.2805e-12
-7.15671e-11
-1.05823e-09
-1.00979e-08
-5.67691e-08
-1.57853e-07
-4.96377e-06
-0.00318671
-0.0110247
-0.00330045
-4.86808e-09
-6.2107e-07
-2.53711e-37
-2.57214e-34
-2.3391e-31
-1.30335e-28
-4.92435e-26
-1.31492e-23
-2.54093e-21
-3.56538e-19
-3.6437e-17
-2.67025e-15
-1.38007e-13
-4.9427e-12
-1.19872e-10
-1.93576e-09
-2.13708e-08
-1.96993e-07
-7.09856e-06
-0.000585977
-0.0012006
-4.42322e-09
-4.41712e-09
-4.98535e-09
-2.40999e-08
-2.26121e-36
-3.88937e-33
-3.12144e-30
-1.52989e-27
-5.06176e-25
-1.18402e-22
-1.99986e-20
-2.45939e-18
-2.20082e-16
-1.42465e-14
-6.61242e-13
-2.18176e-11
-5.12087e-10
-8.82122e-09
-1.19817e-07
-1.53379e-06
-2.77176e-05
-0.000134376
-0.000104831
-9.62595e-09
-3.04903e-07
-7.19743e-09
-4.5524e-08
-2.44047e-38
-2.66782e-35
-2.48686e-32
-1.63224e-29
-8.44405e-27
-3.3999e-24
-1.04461e-21
-2.3397e-19
-3.72874e-17
-4.23385e-15
-3.34683e-13
-1.79209e-11
-6.19444e-10
-1.30432e-08
-1.57098e-07
-1.06616e-06
-2.79302e-06
-2.79282e-06
-3.40237e-06
-1.10165e-05
-4.1636e-07
-5.73602e-10
-1.19817e-08
-1.28953e-36
-2.07541e-33
-1.5776e-30
-7.46411e-28
-2.43827e-25
-5.78898e-23
-1.02769e-20
-1.38588e-18
-1.42942e-16
-1.1253e-14
-6.69681e-13
-2.94377e-11
-9.23381e-10
-1.95671e-08
-2.69503e-07
-3.29825e-06
-8.2542e-05
-0.000380052
-0.000360666
2.60961e-29
-6.8254e-28
-5.86565e-10
-6.42291e-09
-533.467
-533.435
-533.399
-483.887
-658.662
-658.656
-658.662
-656.87
-783.856
-783.856
-783.856
-783.855
-906.817
-905.574
-907.11
-905.486
-393.358
-433.652
-471.348
-493.648
-1.38796e-09
-1.38796e-09
-1.38796e-09
-1.38796e-09
-6.10267e-07
-1.53783e-09
-1.86902e-08
-4.04357e-07
-0.000280348
-0.000127901
-1.72322e-09
-1.72299e-09
-0.00024048
-0.00472126
-0.00645218
-0.0058592
-0.000165425
-0.00204444
-0.00323153
-0.0022661
-3.27599e-05
-4.70385e-05
-0.000188287
-0.00302218
-1.14881e-06
-4.72712e-06
-0.00256737
-0.0139519
-1.44827e-07
-2.60862e-06
-0.00256061
-0.0121438
-1.15818e-07
-4.74195e-06
-0.000697096
-0.0018856
-5.52455e-08
-1.65184e-06
-2.13443e-05
-3.24062e-06
-2.15263e-08
-1.8614e-07
-3.84244e-07
-1.6733e-07
-5.81078e-09
-1.87023e-08
-5.24436e-08
-5.18232e-08
-1.21145e-09
-2.20964e-09
-6.04414e-09
-9.95846e-09
-1.98237e-10
-3.04221e-10
-6.59211e-10
-1.30931e-09
-2.54284e-11
-3.91864e-11
-7.20377e-11
-1.41779e-10
-2.54501e-12
-4.15474e-12
-7.33955e-12
-1.40376e-11
-1.94813e-13
-3.43484e-13
-6.29533e-13
-1.219e-12
-1.13844e-14
-2.20178e-14
-4.36397e-14
-8.95219e-14
-5.64859e-16
-1.2212e-15
-2.67444e-15
-5.96701e-15
-1.23261e-16
-1.23262e-16
-2.18443e-16
-4.80433e-16
-8.70591e-14
-4.59962e-14
-1.97422e-14
-4.20487e-15
-9.60878e-12
-8.07618e-12
-6.29644e-12
-4.1484e-12
-3.08371e-10
-3.03289e-10
-3.18445e-10
-3.31717e-10
-4.57732e-09
-5.10374e-09
-6.96272e-09
-9.76719e-09
-3.34901e-08
-5.69419e-08
-1.18929e-07
-2.28063e-07
-1.00946e-07
-2.01894e-06
-4.63529e-06
-6.3895e-06
-6.45492e-06
-0.000297449
-0.000246984
-8.31666e-05
-0.00490099
-0.00147945
-0.000563227
-0.000137295
-0.0114306
-0.000435691
-0.000391548
-0.000579482
-0.00369916
-6.19271e-05
-0.000166408
-0.000703807
-1.21928e-05
-6.35456e-05
-0.000160824
-0.000111181
-1.25037e-05
-3.34435e-05
-5.90809e-07
-8.4017e-08
-1.62167e-06
-1.23502e-07
-1.3749e-07
-5.10875e-07
-5.81105e-08
-2.84822e-07
-9.41371e-07
-1.94996e-06
-1.8048e-07
-5.0911e-07
-1.36056e-06
-4.01656e-06
-8.95934e-08
-4.04356e-07
-1.56382e-06
-5.59378e-06
-5.61413e-08
-3.09417e-07
-1.26118e-06
-1.94515e-06
-156.113
-33.953
-33.4697
-159.597
-470.216
-533.467
-514.251
-190.627
-9.70285
-0.140488
-0.0939462
-0.310947
-0.0281107
-2.77188e-07
-3.41619e-08
-5.09139e-07
-1.42554e-13
-1.37799
-436.564
-598.414
-572.826
-628.737
-658.662
-658.662
-658.662
-432.652
-35.2064
-0.137658
-4.67419e-06
-0.00643968
-0.126879
-0.0100972
-4.2179e-08
-4.2179e-08
-7.67433e-07
-1.75631e-13
-20.0395
-530.138
-783.747
-783.82
-783.856
-783.856
-783.856
-783.856
-244.904
-2.52216
-5.56263e-06
-5.56263e-06
-0.0165759
-0.0798764
-5.01962e-08
-5.01962e-08
-1.07357e-07
-8.82213e-07
-2.09464e-13
-46.935
-637.376
-908.769
-906.45
-905.982
-906.073
-909.051
-873.467
-116.541
-0.0231515
-6.45107e-06
-0.0053838
-0.0368434
-0.0355647
-5.82133e-08
-6.60948e-08
-2.03273e-07
-6.01077e-07
-2.42396e-13
-60.1813
-742.713
-649.602
-704.829
-762.478
-841.216
-1006.47
-892.457
-86.8092
-2.81556e-13
-2.89794e-05
-0.00984082
-0.0353239
-0.000606782
-6.62304e-08
-3.71428e-07
-2.77872e-07
-3.73327e-07
-2.76374e-13
-66.3695
-848.314
-1.38796e-09
-18.5122
-95.5405
-314.912
-912.296
-978.194
-131.672
-3.15857e-13
-0.000518686
-0.00308979
-0.00308254
-3.92233e-05
-1.42687e-06
-9.75049e-07
-3.33302e-07
-1.2223e-06
-3.09088e-13
-76.3923
-972.991
-3.62621e-06
-3.62379e-06
-0.720114
-55.5239
-654.064
-1082.5
-168.272
-3.49715e-13
-5.55957e-07
-5.29167e-06
-1.3332e-06
-2.87695e-06
-2.02781e-06
-8.85294e-07
-8.67207e-08
-0.000115362
-3.43128e-13
-160.243
-1151.97
-0.000798536
-0.0068416
-0.00684103
-5.46034
-256.742
-964.557
-482.28
-3.84068e-13
-3.8391e-07
-5.59518e-07
-5.33983e-07
-5.78392e-07
-8.87079e-07
-4.11452e-05
-9.51721e-08
-0.000847773
-3.75807e-13
-483.023
-1342.07
-0.00467075
-0.120912
-0.444916
-0.457819
-37.924
-638.062
-897.419
-319.968
-4.18013e-07
-4.17997e-07
-4.18727e-07
-4.18749e-07
-0.0526938
-0.0186421
-1.03623e-07
-0.00441495
-4.10007e-13
-895.792
-1501.04
-0.00226139
-0.255043
-9.78112
-16.7497
-16.7484
-246.497
-968.498
-1028.03
-237.83
-4.52878e-07
-1.67697
-17.3959
-83.9332
-11.496
-4.64996
-12.2121
-283.518
-1276.62
-1623.46
-0.0089854
-0.040918
-28.5106
-279.737
-381.456
-324.521
-770.17
-1124.24
-1061.29
-694.408
-699.027
-922.141
-965.781
-965.996
-794.58
-839.386
-1226.37
-1402.49
-1682.52
-0.0230453
-0.0244854
-13.7763
-510.83
-902.444
-902.439
-874.208
-973.487
-1346.29
-1349.67
-1249.53
-858.69
-505.123
-518.285
-717.314
-583.356
-501.893
-501.716
-1559.03
-0.0130726
-0.0132204
-3.22098
-40.6238
-418.885
-942.632
-1277.38
-1438.37
-1438.11
-1438.37
-1438.11
-721.331
-555.409
-386.083
-386.091
-527.45
-682.33
-1168.27
-1947.82
-0.00013261
-0.00170761
-8.29993e-07
-8.29993e-07
-8.29993e-07
-8.29993e-07
-8.9836
-568.385
-971.614
-1115.43
-1307.12
-1745.07
-1745.4
-1592.28
-1769.45
-2009.77
-2086.86
-2012.81
-2125.41
-5.15442e-08
-8.11784e-05
-6.9418e-05
-0.03865
-0.0382127
-0.00262849
-8.78078e-07
-8.78078e-07
-8.78078e-07
-8.78078e-07
-8.78078e-07
-386.488
-934.189
-1467.38
-1877.92
-2247.14
-2263.2
-2263.2
-2239.47
-5.43671e-08
-8.96922e-07
-8.8166e-08
-0.0188844
-0.0378232
-0.0347317
-9.26162e-07
-0.00143459
-0.00282919
-0.00355932
-9.26162e-07
-9.26162e-07
-9.26162e-07
-9.26162e-07
-216.199
-1249.28
-2387.14
-2381.92
-2333.32
-3.54726e-08
-1.41772e-07
-9.30453e-08
-1.46843e-05
-0.00987
-0.0961785
-0.0950472
-0.0345623
-0.0294784
-0.0181969
-0.00200936
-0.000237722
-0.00529284
-0.0177207
-0.0177201
-224.376
-2081.71
-2481.26
-2466.31
-9.66484e-09
-6.96068e-08
-1.24741e-07
-7.81103e-07
-2.18822e-07
-0.043742
-0.112103
-0.112103
-0.101632
-0.0146911
-0.00793515
-0.000748755
-0.00894961
-0.0372308
-1.158
-9.55367
-1068.63
-2603.83
-2603.85
-1.84101e-09
-2.04992e-08
-1.02205e-07
-3.0041e-07
-2.29112e-07
-1.81189e-07
-0.0335598
-0.0961378
-0.059841
-0.00449617
-8.07926e-06
-0.000235204
-0.00794127
-0.0082768
-0.0101137
-11.0901
-339.979
-1933.34
-2536.6
-2.80562e-10
-3.99985e-09
-4.789e-08
-1.83671e-07
-1.89334e-07
-1.89328e-07
-0.000676819
-0.00680807
-0.00191477
-0.00015529
-8.44193e-06
-7.25927e-07
-7.27159e-07
-0.000114481
-0.0879069
-2.56721
-16.6189
-309.139
-902.755
-3.57572e-11
-5.84617e-10
-1.08724e-08
-5.93547e-08
-1.49204e-07
-2.56804e-07
-1.7281e-06
-1.6512e-06
-9.6312e-07
-2.22878e-07
-3.66802e-07
-9.40798e-07
-7.85521e-07
-0.0089632
-0.155941
-0.0663959
-0.011433
-0.0114368
-258.951
-4.05343e-12
-7.02802e-11
-1.79717e-09
-1.40926e-08
-7.02899e-08
-2.302e-07
-2.29294e-07
-1.61165e-07
-1.61164e-07
-2.32067e-07
-5.45548e-07
-1.30023e-06
-1.62685e-06
-0.00404861
-0.02982
-0.0118452
-0.0118895
-18.8164
-311.522
-5.60582e-13
-9.64878e-12
-2.52685e-10
-2.73062e-09
-1.86678e-08
-9.45325e-08
-1.23248e-07
-1.37463e-07
-1.76347e-07
-3.12931e-07
-9.47662e-07
-1.70167e-06
-1.52678e-06
-0.000548415
-0.00948947
-0.0123093
-0.0203877
-9.21102
-412.574
-1.24572e-13
-2.79794e-12
-4.48822e-11
-5.35919e-10
-4.34092e-09
-2.11545e-08
-4.71672e-08
-9.12486e-08
-1.80868e-07
-4.75304e-07
-1.43452e-06
-1.77381e-06
-1.58494e-06
-0.0025723
-0.192955
-3.51259
-6.83514
-69.0855
-260.801
-2.87378e-14
-1.03032e-12
-1.30059e-11
-1.41726e-10
-1.21613e-09
-6.60173e-09
-2.29506e-08
-6.55212e-08
-1.81312e-07
-6.68555e-07
-1.50569e-06
-1.27398e-06
-3.41264e-06
-0.00224134
-1.69569
-85.6562
-303.964
-694.049
-233.481
-7.25568e-15
-2.89282e-13
-3.8765e-12
-4.2373e-11
-3.96692e-10
-2.6351e-09
-1.30899e-08
-5.0734e-08
-1.76238e-07
-6.63053e-07
-1.50789e-06
-1.50789e-07
-1.92274e-05
-0.00204128
-2.67072
-162.042
-860.534
-860.534
-410.156
-1.14346e-12
-4.36287e-13
-1.91638e-12
-1.54133e-11
-1.42068e-10
-1.13593e-09
-7.38387e-09
-3.73576e-08
-1.61607e-07
-6.67428e-07
-1.28764e-06
-1.5637e-07
-5.19553e-05
-0.00182268
-3.60937
-138.293
-531.213
-889.943
-889.942
-3.33151e-10
-9.9351e-11
-2.40174e-11
-2.29822e-11
-7.82038e-11
-5.29922e-10
-4.04763e-09
-2.60646e-08
-1.38537e-07
-6.52572e-07
-8.26309e-07
-1.61095e-07
-0.000148698
-0.00176155
-5.12516
-12.5858
-0.00330362
-409.258
-919.351
-1.52587e-08
-1.22281e-08
-3.50419e-09
-8.79865e-10
-3.87258e-10
-6.06585e-10
-2.66493e-09
-1.57668e-08
-1.09375e-07
-5.34062e-07
-3.25075e-07
-1.72299e-07
-0.000176427
-1.32945e-06
-4.31873
-9.68033e-06
-0.00340749
1.99785e-17
-850.093
-2.19137e-07
-3.84883e-07
-1.93813e-07
-5.56737e-08
-1.75167e-08
-6.39924e-09
-5.94024e-09
-1.50031e-08
-8.80571e-08
-3.54514e-07
-1.41731e-07
-2.0939e-05
-0.000175998
-1.36977e-06
-2.57754
-1.81561e-05
-0.0174271
1.02447e-22
-1743.17
-1.64213e-06
-6.22795e-06
-4.30391e-06
-1.19525e-06
-4.80105e-07
-1.42308e-07
-3.00122e-08
-1.92406e-08
-6.18068e-08
-1.83746e-07
-1.46139e-07
-6.72795e-05
-7.87209e-05
-1.41187e-06
-1.43216
-0.0184767
-0.00897781
-1.47861e-22
-1795.61
-5.41177e-06
-1.78739e-05
-0.000359505
-7.89953e-05
-7.55681e-06
-1.25677e-06
-7.71444e-07
-3.91906e-07
-1.47167e-07
-1.4891e-07
-1.56753e-07
-7.14202e-05
-3.70068e-05
-1.45214e-06
-1.06322
-0.058257
3.88643e-21
1.54219e-24
-1847.64
-0.000112061
-2.33126e-05
-0.00311472
-0.00276346
-1.39338e-06
-1.39332e-06
-1.82337e-06
-1.91212e-06
-1.27462e-06
-3.8183e-07
-1.612e-07
-4.98064e-05
-2.06915e-05
-1.49429e-06
-0.522664
-0.0680972
-0.00131824
1.49967e-23
-1899.8
-0.000640847
-2.39486e-05
-0.000675666
-0.0673964
-0.0663073
-1.19039e-06
-1.19075e-06
-1.19071e-06
-8.47807e-07
-4.35802e-07
-3.6619e-07
-1.10844e-05
-7.23696e-06
-1.5345e-06
-0.06816
-0.0184147
-0.00159934
-1.68537e-23
-1652.38
-0.000703798
-0.000319661
-5.19237e-05
-0.358381
-0.882943
-0.516339
-0.00426772
-1.22271e-06
-5.25063e-06
-5.0104e-06
-1.80541e-06
-3.32184e-06
-2.70605e-06
-1.5767e-06
-0.000176191
-0.00479673
-0.00102121
-7.34768e-23
-902.044
-0.00020651
-0.000792254
-5.32583e-05
-0.746134
-0.90602
-0.90602
-0.316408
-0.0082785
-2.39197e-05
-4.04952e-06
-1.83572e-06
-1.83574e-06
-1.61838e-06
-1.61687e-06
-0.00368549
-0.010241
-0.00310813
-1.42433e-22
-726.455
-8.3996e-08
-0.000673914
-0.00351944
-0.32261
-0.929097
-0.929097
-0.829752
-0.0618402
-1.59237e-05
-4.09687e-06
-5.32132e-06
-3.16409e-06
-1.65805e-06
-0.00141476
-0.0694082
-0.0359979
-0.00418101
3.88725e-22
-726.093
-1.05395e-06
-1.32653e-05
-0.00715203
-0.228482
-0.952174
-0.732291
-0.448058
-0.027125
-1.41872e-05
-4.19878e-06
-1.6572e-05
-1.6378e-05
-1.70033e-06
-0.0530573
-0.0796038
-0.0446281
-0.00493494
5.49193e-22
-649.402
-5.0129e-06
-5.55791e-05
-0.00154688
-0.180945
-0.898095
-0.250581
-0.00752765
-0.00351356
-4.44661e-05
-6.0918e-06
-2.43218e-05
-2.61655e-05
-1.74042e-06
-0.0756574
-0.0814723
-0.0297511
-0.0067842
1.03143e-21
-631.373
-1.7543e-05
-0.000122586
-0.000653526
-1.90146e-05
-0.0600636
-0.418101
-0.072533
-0.00012095
-0.000391209
-4.57454e-05
-1.89279e-05
-2.67801e-05
-1.78275e-06
-0.0262371
-0.0313854
-0.0494973
-0.0134942
6.62964e-21
-569.405
-2.78679e-05
-5.44737e-05
-2.18595e-23
-1.94509e-05
-0.0317653
-0.298407
-0.197251
-0.000123757
-0.000593706
-1.38958e-05
-1.37698e-05
-1.37715e-05
-4.28816e-06
-3.99044e-05
-0.000531954
-0.053636
-0.016657
1.25694e-21
-173.261
-1.28288e-06
2.45124e-25
3.44869e-24
1.43845e-23
2.04644e-48
-8.74716e-22
-0.0556302
-0.00103212
-0.000380771
-0.000881069
-0.000371521
-0.000115685
-7.28461e-06
-4.63528e-06
-0.039388
-0.0548478
-0.00457857
4.84318e-21
-13.506
)
;

boundaryField
{
    leftWall
    {
        type            calculated;
        value           nonuniform List<scalar> 
50
(
-29.4294
-88.2881
-147.147
-206.006
-264.864
-323.723
-382.581
-438.884
-319.911
-1.33777
-2.12921e-32
-4.04062e-15
-1.17644e-14
-9.70589e-15
-7.6711e-15
-4.08136e-15
-1.66188e-15
-6.33773e-16
-1.93428e-16
-5.10442e-17
-1.08576e-17
-1.86608e-18
-2.52585e-19
-2.64015e-20
-2.0659e-21
-1.16117e-22
-4.40657e-24
-1.03809e-25
-1.4171e-27
-1.84586e-29
-5.13435e-31
-7.03359e-33
-2.08806e-38
-1.07948e-42
-4.27561e-46
-1.88414e-51
-5.04768e-50
-5.58153e-48
-4.49306e-46
-3.2788e-44
-1.45413e-42
-6.7548e-41
-1.01936e-39
-3.00958e-38
-7.63041e-38
-1.0805e-36
-2.53711e-37
-2.26121e-36
-2.44047e-38
-1.28953e-36
)
;
    }
    rightWall
    {
        type            calculated;
        value           nonuniform List<scalar> 
50
(
-22.22
-68.462
-114.177
-158.948
-161.919
-224.564
-317.19
-366.007
-436.564
-530.138
-637.376
-742.713
-848.314
-972.991
-1151.97
-1342.07
-1501.04
-1623.46
-1682.52
-1559.03
-1947.82
-2125.41
-2239.47
-2333.32
-2466.31
-2603.85
-2536.6
-902.755
-258.951
-311.522
-412.574
-260.801
-233.481
-410.156
-889.942
-919.351
-850.093
-1743.17
-1795.61
-1847.64
-1899.8
-1652.38
-902.044
-726.455
-726.093
-649.402
-631.373
-569.405
-173.261
-13.506
)
;
    }
    lowerWall
    {
        type            calculated;
        value           nonuniform List<scalar> 
62
(
0
0
0
0
0
0
0
0
0
0
0
0
0
0
0
0
0
0
0
0
0
0
0
-29.4229
-88.2626
-147.104
-205.946
-264.833
-323.723
-382.582
-441.44
-470.87
-470.841
-470.81
-427.108
-16.1558
-48.4365
-69.545
-35.145
-0.411131
-41.8554
-74.1112
-72.8517
0
0
0
0
0
0
0
0
0
0
0
0
0
0
0
0
0
0
0
)
;
    }
    atmosphere
    {
        type            calculated;
        value           nonuniform List<scalar> 
46
(
-0
-0
-0
-0
-2.46521e-25
-5.85293e-23
-1.03905e-20
-1.40119e-18
-1.44521e-16
-1.13773e-14
-6.77079e-13
-2.97629e-11
-9.33582e-10
-1.97832e-08
-2.7248e-07
-3.33469e-06
-8.34538e-05
-0.000384251
-0.00036465
-0
-0
-0
-0
-0
-0
-0
-0
-0
-0
-0
-0
-0
-0
-0
-0.00104353
-0.000384977
-0.000890802
-0.000375625
-0.000116963
-7.36508e-06
-4.68649e-06
-0.0398231
-0.0554537
-0
-0
-13.6552
)
;
    }
    defaultFaces
    {
        type            empty;
    }
}


// ************************************************************************* //
