/*--------------------------------*- C++ -*----------------------------------*\
| =========                 |                                                 |
| \\      /  F ield         | OpenFOAM: The Open Source CFD Toolbox           |
|  \\    /   O peration     | Version:  2012                                  |
|   \\  /    A nd           | Website:  www.openfoam.com                      |
|    \\/     M anipulation  |                                                 |
\*---------------------------------------------------------------------------*/
FoamFile
{
    version     2.0;
    format      ascii;
    class       volVectorField;
    location    "0.6";
    object      Uc;
}
// * * * * * * * * * * * * * * * * * * * * * * * * * * * * * * * * * * * * * //

dimensions      [0 1 -1 0 0 0 0];


internalField   nonuniform List<vector> 
2268
(
(0.00666457 -0.00314963 0)
(0.0207179 -0.00349187 0)
(0.0344953 -0.00301922 0)
(0.04592 -0.00238003 0)
(0.055181 -0.00199665 0)
(0.064434 -0.00237622 0)
(0.0734475 -0.00188352 0)
(0.0791515 -0.000812154 0)
(0.0820745 -0.000569224 0)
(0.0833342 -2.61121e-05 0)
(0.0820458 0.000635019 0)
(0.0785518 0.00101617 0)
(0.0741305 0.00107333 0)
(0.0697462 0.000998608 0)
(0.0651643 0.00116678 0)
(0.0598011 0.0013678 0)
(0.0538706 0.00143492 0)
(0.0480714 0.00130569 0)
(0.0425969 0.00128151 0)
(0.0371314 0.00130143 0)
(0.0310337 0.00158024 0)
(0.024498 0.00150848 0)
(0.010653 0.00503443 0)
(0.00659051 -0.00941388 0)
(0.0205916 -0.0104859 0)
(0.0345248 -0.00912101 0)
(0.0462696 -0.00722796 0)
(0.0558182 -0.006038 0)
(0.0650995 -0.00709402 0)
(0.073918 -0.00559302 0)
(0.079487 -0.0024302 0)
(0.082659 -0.00183162 0)
(0.0840981 -3.91477e-05 0)
(0.0825038 0.00201039 0)
(0.0789988 0.00294845 0)
(0.0747069 0.00325884 0)
(0.0699417 0.00313705 0)
(0.0648869 0.0035826 0)
(0.0593587 0.00409913 0)
(0.0535956 0.00422988 0)
(0.0479534 0.00391778 0)
(0.0420576 0.00404288 0)
(0.0351506 0.00438719 0)
(0.0260293 0.00568675 0)
(0.0139759 0.00618705 0)
(0.00363397 0.0117861 0)
(0.00652691 -0.0156131 0)
(0.0205842 -0.0175469 0)
(0.0347977 -0.0153619 0)
(0.0469648 -0.0122876 0)
(0.0569575 -0.0102134 0)
(0.066262 -0.0117021 0)
(0.074591 -0.00908878 0)
(0.0798549 -0.00405399 0)
(0.0829498 -0.00316951 0)
(0.0841545 4.92747e-05 0)
(0.0825957 0.00341209 0)
(0.079507 0.00466293 0)
(0.0756023 0.00541796 0)
(0.0708604 0.00547094 0)
(0.0655383 0.00615275 0)
(0.0598778 0.00681663 0)
(0.0544733 0.00679008 0)
(0.0497314 0.006265 0)
(0.0450405 0.00669879 0)
(0.0394055 0.00765845 0)
(0.0317445 0.0103466 0)
(0.0206548 0.0124645 0)
(0.00703984 0.0168302 0)
(0.00659787 -0.0218157 0)
(0.0208375 -0.0247172 0)
(0.0352535 -0.0217217 0)
(0.0478291 -0.017621 0)
(0.0584535 -0.0146235 0)
(0.0679797 -0.0161913 0)
(0.0760027 -0.0123275 0)
(0.0813651 -0.00583715 0)
(0.0848558 -0.00449863 0)
(0.0861023 0.000219915 0)
(0.0845022 0.00473433 0)
(0.0810456 0.00643394 0)
(0.0761922 0.00778596 0)
(0.0702893 0.00813357 0)
(0.064186 0.00888963 0)
(0.0584566 0.00946249 0)
(0.0533926 0.00909153 0)
(0.0487257 0.00841004 0)
(0.0438199 0.00908905 0)
(0.0381318 0.0106193 0)
(0.0308397 0.0144524 0)
(0.0194736 0.018971 0)
(0.00614036 0.0230589 0)
(0.00686928 -0.0281802 0)
(0.0212918 -0.0318982 0)
(0.0357334 -0.0281786 0)
(0.0487556 -0.0232614 0)
(0.0601405 -0.0193846 0)
(0.0699618 -0.0205737 0)
(0.0774856 -0.0152923 0)
(0.082604 -0.00782551 0)
(0.0859495 -0.00574099 0)
(0.0866001 0.000565691 0)
(0.0848313 0.00598065 0)
(0.0817351 0.0082844 0)
(0.0773012 0.0103246 0)
(0.0718417 0.0109647 0)
(0.065897 0.0117522 0)
(0.059816 0.0121814 0)
(0.0545934 0.0112339 0)
(0.0505423 0.0103876 0)
(0.0466515 0.0112687 0)
(0.0418985 0.0133741 0)
(0.0354199 0.0182055 0)
(0.0255881 0.0252359 0)
(0.00976228 0.0305741 0)
(0.00746209 -0.0349531 0)
(0.0220927 -0.0388556 0)
(0.0362508 -0.0347372 0)
(0.0497514 -0.0292373 0)
(0.0620569 -0.0246046 0)
(0.0724611 -0.0249122 0)
(0.0800664 -0.0181037 0)
(0.0858188 -0.0101516 0)
(0.0898938 -0.00692176 0)
(0.0903827 0.0012079 0)
(0.0880242 0.00728896 0)
(0.084042 0.0103213 0)
(0.0780106 0.0132335 0)
(0.0707294 0.014077 0)
(0.0637317 0.0147564 0)
(0.057477 0.015007 0)
(0.0525975 0.0131825 0)
(0.0489739 0.012066 0)
(0.0456183 0.0130148 0)
(0.0414565 0.0158409 0)
(0.0356999 0.0215209 0)
(0.0264326 0.0309465 0)
(0.0102062 0.040011 0)
(0.00809455 -0.0423051 0)
(0.0231095 -0.045514 0)
(0.0370374 -0.0413521 0)
(0.0510049 -0.0356037 0)
(0.0643476 -0.0303593 0)
(0.0752667 -0.0292348 0)
(0.0826947 -0.0208858 0)
(0.0883241 -0.0127485 0)
(0.091678 -0.00783571 0)
(0.0910451 0.0021899 0)
(0.0884178 0.0086632 0)
(0.0849527 0.0124666 0)
(0.0798111 0.0163685 0)
(0.0734477 0.0173903 0)
(0.0666419 0.0179665 0)
(0.0593813 0.0181841 0)
(0.0534682 0.0151059 0)
(0.0501491 0.0134236 0)
(0.0482116 0.0141587 0)
(0.0456138 0.0178915 0)
(0.0413383 0.0242113 0)
(0.0347405 0.0357537 0)
(0.0152944 0.0520623 0)
(0.00867587 -0.0502308 0)
(0.0243729 -0.0521028 0)
(0.0385714 -0.0480558 0)
(0.0532537 -0.0424399 0)
(0.0676999 -0.0366561 0)
(0.0793427 -0.0336007 0)
(0.0875794 -0.023923 0)
(0.0942022 -0.0155016 0)
(0.0976914 -0.00831664 0)
(0.0970263 0.00328428 0)
(0.0940401 0.0102217 0)
(0.0887188 0.0150603 0)
(0.0809054 0.0198972 0)
(0.0721525 0.0210054 0)
(0.0640222 0.0214101 0)
(0.0564742 0.0217389 0)
(0.0509095 0.0169753 0)
(0.0484076 0.014305 0)
(0.0476639 0.0145444 0)
(0.0461913 0.0194295 0)
(0.0432873 0.0260663 0)
(0.0385542 0.0392535 0)
(0.0176502 0.0676316 0)
(-0.767044 0.324275 0)
(-1.7122 0.0747071 0)
(-1.94909 0.0238364 0)
(-1.94865 -0.0260509 0)
(-1.77447 -0.0493958 0)
(-1.55546 -0.0445829 0)
(-1.4085 -0.0190598 0)
(-1.41563 0.0202871 0)
(-1.53106 0.0268014 0)
(-1.62164 0.00977412 0)
(-1.67814 0.0122666 0)
(-1.73671 0.010761 0)
(-1.76809 0.00093158 0)
(-1.76767 -0.00271508 0)
(-1.75943 -0.00235443 0)
(-1.74482 -0.00531672 0)
(-1.63882 -0.0409485 0)
(-1.28825 -0.108887 0)
(-0.516394 -0.220453 0)
(-0.587126 0.897304 0)
(-1.36729 0.229645 0)
(-1.58464 0.0557293 0)
(-1.40394 -0.14129 0)
(-1.05482 -0.161352 0)
(-0.827076 -0.125261 0)
(-0.756688 -0.0334079 0)
(-0.892135 0.0907409 0)
(-1.14091 0.10541 0)
(-1.32954 0.0442862 0)
(-1.43605 0.0422044 0)
(-1.50002 0.0286779 0)
(-1.51798 -0.000122111 0)
(-1.5148 -0.00750005 0)
(-1.5173 -0.00427263 0)
(-1.50587 -0.01829 0)
(-1.3501 -0.142269 0)
(-0.982873 -0.314757 0)
(-0.377927 -0.602437 0)
(-0.302999 1.27449 0)
(-1.04929 0.496688 0)
(-1.35706 0.00424236 0)
(-0.975951 -0.337067 0)
(-0.533891 -0.309086 0)
(-0.0814235 -0.270711 0)
(0.340587 -0.0999055 0)
(0.527862 0.130109 0)
(0.519154 0.167013 0)
(0.211303 0.184551 0)
(-0.496797 0.239885 0)
(-1.18697 0.143552 0)
(-1.58288 0.0527526 0)
(-1.73933 -0.00372826 0)
(-1.73321 -0.0179674 0)
(-1.6104 -0.0694415 0)
(-1.30946 -0.291864 0)
(-0.834493 -0.527954 0)
(-0.282135 -0.884823 0)
(0.0407296 1.38357 0)
(-0.242393 0.819254 0)
(-0.678421 -0.00936477 0)
(-0.659984 -0.50107 0)
(-0.358332 -0.469229 0)
(0.0337727 -0.474881 0)
(0.416951 -0.240113 0)
(0.814606 0.0188369 0)
(1.27823 0.0789871 0)
(1.54118 0.283742 0)
(1.42465 0.482494 0)
(0.858654 0.424815 0)
(-0.200763 0.379402 0)
(-1.28886 0.188258 0)
(-1.92985 0.0497328 0)
(-2.00333 -0.167998 0)
(-1.54287 -0.526652 0)
(-0.849585 -0.798091 0)
(-0.246259 -1.11147 0)
(0.661982 1.08099 0)
(1.39661 0.922374 0)
(1.08028 0.200029 0)
(0.443863 -0.454852 0)
(0.235565 -0.56259 0)
(0.360187 -0.60699 0)
(0.554562 -0.355476 0)
(0.821069 -0.148704 0)
(1.11371 -0.0763001 0)
(1.37598 0.212923 0)
(1.65732 0.478075 0)
(1.80284 0.599572 0)
(1.0601 0.96122 0)
(-0.46178 0.707268 0)
(-1.44934 0.214391 0)
(-1.64669 -0.22632 0)
(-1.39 -0.782928 0)
(-0.776059 -1.10776 0)
(-0.208156 -1.30728 0)
(0.135712 0.737302 0)
(0.0573438 0.978797 0)
(0.0489012 0.274416 0)
(0.489653 -0.452898 0)
(0.650333 -0.55147 0)
(0.571232 -0.642779 0)
(0.651052 -0.437815 0)
(0.870237 -0.273094 0)
(1.09428 -0.172068 0)
(1.26076 0.124915 0)
(1.40682 0.380107 0)
(1.47615 0.597877 0)
(0.989081 1.4764 0)
(0.0496678 1.23017 0)
(-0.41559 0.300667 0)
(-0.580353 -0.167358 0)
(-0.741332 -0.891887 0)
(-0.521296 -1.36398 0)
(-0.14586 -1.46052 0)
(0.0531632 0.652486 0)
(0.344454 0.964458 0)
(0.79729 0.0921901 0)
(0.901529 -0.509226 0)
(0.719711 -0.493277 0)
(0.638855 -0.637378 0)
(0.695429 -0.501911 0)
(0.871905 -0.377612 0)
(1.07621 -0.251875 0)
(1.25311 0.0538274 0)
(1.38594 0.325274 0)
(1.34503 0.630722 0)
(0.910928 1.8254 0)
(0.360327 1.50617 0)
(0.242498 0.263868 0)
(0.221806 -0.0605094 0)
(-0.0826821 -0.809676 0)
(-0.216814 -1.49297 0)
(-0.0782817 -1.55766 0)
(0.0948228 0.585568 0)
(0.643932 0.665713 0)
(1.13452 -0.0186455 0)
(0.953043 -0.372784 0)
(0.692441 -0.447378 0)
(0.645151 -0.631619 0)
(0.69579 -0.553488 0)
(0.843885 -0.465194 0)
(1.03824 -0.338886 0)
(1.2436 -0.0307946 0)
(1.36489 0.291163 0)
(1.17454 0.751973 0)
(0.737089 2.0648 0)
(0.465541 1.60766 0)
(0.425837 0.220551 0)
(0.423782 -0.01636 0)
(0.270423 -0.667905 0)
(0.0335292 -1.48711 0)
(-0.0270375 -1.6036 0)
(0.00930033 -0.0637571 0)
(0.0260085 -0.0629428 0)
(0.0412272 -0.0593697 0)
(0.0573006 -0.0543549 0)
(0.0729979 -0.0474628 0)
(0.0854678 -0.0409258 0)
(0.0947571 -0.0298999 0)
(0.101811 -0.0197943 0)
(0.104031 -0.00793309 0)
(0.101994 0.00524838 0)
(0.0980931 0.0135838 0)
(0.0924777 0.0198555 0)
(0.0859655 0.0253405 0)
(0.0790475 0.0266527 0)
(0.0712196 0.0274738 0)
(0.0614369 0.0290761 0)
(0.0531524 0.0205957 0)
(0.0518469 0.0131793 0)
(0.0566527 0.0111905 0)
(0.0647209 0.0153689 0)
(0.0762123 0.0199478 0)
(0.0882985 0.0354594 0)
(0.0999803 0.0695619 0)
(-0.00167434 -0.0715548 0)
(-0.00131945 -0.072559 0)
(0.00609842 -0.0727649 0)
(0.0182061 -0.0695366 0)
(0.0326183 -0.0627867 0)
(0.0482989 -0.0541275 0)
(0.0656653 -0.0437096 0)
(0.0822467 -0.029945 0)
(0.0939418 -0.0119505 0)
(0.10195 0.00312331 0)
(0.105393 0.0160537 0)
(0.103527 0.0247969 0)
(0.0990806 0.0313345 0)
(0.0902699 0.0364267 0)
(0.0745397 0.0413697 0)
(0.0553171 0.0443368 0)
(0.0426246 0.0264215 0)
(0.0413542 0.00994296 0)
(0.0462746 0.0046499 0)
(0.0550815 0.00494619 0)
(0.0707869 0.00303154 0)
(0.0895159 0.0213993 0)
(0.113663 0.0476063 0)
(-0.00142031 -0.06854 0)
(-0.00527425 -0.0722483 0)
(-0.0106633 -0.0753086 0)
(-0.0174952 -0.0724948 0)
(-0.0283067 -0.0636549 0)
(-0.0450429 -0.0524159 0)
(-0.073685 -0.0343167 0)
(-0.118331 -0.0113651 0)
(-0.179584 0.0190535 0)
(-0.240194 0.0247931 0)
(-0.231526 -0.0179522 0)
(-0.142396 -0.0290352 0)
(-0.0552839 0.00201284 0)
(-0.00881441 0.027904 0)
(0.0127883 0.0440334 0)
(0.0281086 0.0456039 0)
(0.0499031 0.0159619 0)
(0.0680213 0.00343558 0)
(0.0723394 0.00186822 0)
(0.0761557 -0.00496128 0)
(0.0886108 -0.0153687 0)
(0.109522 -4.77117e-05 0)
(0.142122 0.0120105 0)
(0.000591432 -0.0677893 0)
(-0.000701496 -0.06799 0)
(-0.00673229 -0.0682522 0)
(-0.0150741 -0.0644635 0)
(-0.023714 -0.0522993 0)
(-0.0329384 -0.0378428 0)
(-0.0437745 -0.00937463 0)
(-0.0554514 0.0201393 0)
(-0.0690724 0.0626469 0)
(-0.0870035 0.0599872 0)
(-0.1012 -0.0477292 0)
(-0.130411 -0.059593 0)
(-0.195577 0.0104456 0)
(-0.220441 -0.00226775 0)
(-0.169343 0.00114236 0)
(-0.130408 0.0339979 0)
(-0.116544 -0.00827951 0)
(-0.0732864 -0.0341176 0)
(-0.0098481 -0.0288545 0)
(0.0517819 -0.0402261 0)
(0.107177 -0.0484727 0)
(0.142892 -0.0239435 0)
(0.165703 -0.0198198 0)
(-0.0053435 -0.0630947 0)
(-0.015183 -0.0616585 0)
(-0.024779 -0.0590397 0)
(-0.0348333 -0.0553488 0)
(-0.0431501 -0.0445344 0)
(-0.0479283 -0.0316985 0)
(-0.0442732 -0.00846808 0)
(-0.0274998 0.0139402 0)
(0.0078589 0.046823 0)
(0.0520964 0.049194 0)
(0.055447 -0.0262087 0)
(-0.00592258 0.00975875 0)
(-0.0879183 0.0888453 0)
(-0.14089 -0.00259193 0)
(-0.160403 -0.0304118 0)
(-0.215706 0.0819565 0)
(-0.303732 0.018263 0)
(-0.292872 -0.115228 0)
(-0.209631 -0.0954846 0)
(-0.149769 -0.0960759 0)
(-0.0859546 -0.112812 0)
(-0.00893135 -0.0732827 0)
(0.0707335 -0.07389 0)
(-0.00276815 -0.0550222 0)
(-0.00890876 -0.0538306 0)
(-0.0163005 -0.0499546 0)
(-0.0249283 -0.0458182 0)
(-0.0344569 -0.0362912 0)
(-0.0447058 -0.025002 0)
(-0.0552409 -0.00841573 0)
(-0.0649882 0.00665652 0)
(-0.0692362 0.0226631 0)
(-0.0676132 0.0270814 0)
(-0.0650846 -0.0101811 0)
(-0.0433135 0.0333579 0)
(0.00951681 0.0943829 0)
(0.039912 0.0143805 0)
(0.0204429 -0.00838413 0)
(-0.00423064 0.140142 0)
(-0.0216923 0.0659256 0)
(-0.0576171 -0.137902 0)
(-0.131245 -0.0827184 0)
(-0.244945 -0.0549933 0)
(-0.367977 -0.0946829 0)
(-0.438717 -0.0981342 0)
(-0.459759 -0.108481 0)
(-0.00311123 -0.0491932 0)
(-0.00918887 -0.0475397 0)
(-0.0146588 -0.0434791 0)
(-0.0191698 -0.0392492 0)
(-0.0220018 -0.0305987 0)
(-0.021811 -0.0207485 0)
(-0.0171617 -0.00691866 0)
(-0.00764449 0.00522324 0)
(0.00515842 0.0153274 0)
(0.0154919 0.0222265 0)
(0.00624678 0.00125113 0)
(-0.0155538 0.0217778 0)
(-0.0177176 0.0548509 0)
(-0.00971435 0.0151286 0)
(-0.00725818 0.00777973 0)
(0.0311469 0.109979 0)
(0.0908275 0.0534467 0)
(0.0792747 -0.0779093 0)
(0.0212175 -0.0105608 0)
(-0.0253246 0.0336976 0)
(-0.0938786 0.00897125 0)
(-0.196969 -0.0273091 0)
(-0.328815 -0.025897 0)
(-0.00199067 -0.0441449 0)
(-0.00609775 -0.0425107 0)
(-0.0102575 -0.0389891 0)
(-0.0145021 -0.0350994 0)
(-0.0188625 -0.027681 0)
(-0.0229186 -0.0199442 0)
(-0.0260821 -0.00938136 0)
(-0.0283127 0.000195 0)
(-0.0287065 0.00771351 0)
(-0.0267702 0.0173362 0)
(-0.024925 0.013407 0)
(-0.0197724 0.0261807 0)
(-0.00862047 0.0412331 0)
(-0.010671 0.0225785 0)
(-0.0302048 0.0173079 0)
(-0.0351301 0.0666018 0)
(-0.0345579 0.0360557 0)
(-0.0577467 -0.0258035 0)
(-0.0769719 0.0148024 0)
(-0.0678043 0.0456773 0)
(-0.0478876 0.0456445 0)
(-0.0497868 0.0413043 0)
(-0.0825293 0.070669 0)
(-0.000974524 -0.0412437 0)
(-0.00263631 -0.039772 0)
(-0.00384963 -0.0364861 0)
(-0.00445234 -0.0328897 0)
(-0.00414355 -0.0259788 0)
(-0.00241878 -0.0194647 0)
(0.00108852 -0.0103697 0)
(0.00604961 -0.00172621 0)
(0.0109346 0.00495346 0)
(0.014458 0.0144391 0)
(0.0123582 0.0163884 0)
(0.00541059 0.0248293 0)
(0.000582738 0.0360494 0)
(-0.003188 0.0334318 0)
(-0.00967174 0.0324212 0)
(-0.010445 0.0570246 0)
(-0.0121546 0.0465779 0)
(-0.0439027 0.0186924 0)
(-0.095196 0.0409794 0)
(-0.142628 0.0577411 0)
(-0.187855 0.0587894 0)
(-0.226941 0.0691132 0)
(-0.253355 0.102066 0)
(-0.000614796 -0.0397247 0)
(-0.00180184 -0.0385847 0)
(-0.00298293 -0.0354242 0)
(-0.00418919 -0.0322914 0)
(-0.0052296 -0.0260007 0)
(-0.0060741 -0.0204877 0)
(-0.00634603 -0.0127602 0)
(-0.00605387 -0.00477921 0)
(-0.005148 0.00202069 0)
(-0.00299569 0.0114996 0)
(-0.000380898 0.0186406 0)
(0.00189764 0.027098 0)
(0.0032746 0.0370737 0)
(-8.74788e-05 0.0393976 0)
(-0.0102448 0.0429988 0)
(-0.0212655 0.0581131 0)
(-0.0341281 0.0599424 0)
(-0.0543121 0.0573292 0)
(-0.0779318 0.0774372 0)
(-0.103815 0.0947636 0)
(-0.141114 0.104496 0)
(-0.200487 0.122142 0)
(-0.276506 0.151754 0)
(0.000600409 -0.0397878 0)
(0.00190874 -0.0387987 0)
(0.00342414 -0.0357018 0)
(0.00534212 -0.0328854 0)
(0.00779624 -0.0269847 0)
(0.0108357 -0.021868 0)
(0.0144522 -0.0149009 0)
(0.0184441 -0.00710559 0)
(0.0219428 -0.00024297 0)
(0.0248487 0.00851398 0)
(0.026509 0.0171616 0)
(0.0268026 0.0258214 0)
(0.026348 0.0372497 0)
(0.0242132 0.0445701 0)
(0.0186937 0.0534036 0)
(0.0099624 0.0673773 0)
(-0.00386406 0.0773151 0)
(-0.0301657 0.0864873 0)
(-0.0673974 0.109244 0)
(-0.112175 0.133776 0)
(-0.167222 0.15809 0)
(-0.235145 0.196279 0)
(-0.320072 0.239163 0)
(0.000682275 -0.0411535 0)
(0.00206041 -0.0402862 0)
(0.00350119 -0.0373389 0)
(0.00499433 -0.0348308 0)
(0.00669655 -0.0293717 0)
(0.0085265 -0.0245312 0)
(0.0106124 -0.0181265 0)
(0.0129725 -0.0104234 0)
(0.015425 -0.00306732 0)
(0.018172 0.00549405 0)
(0.0210984 0.0154066 0)
(0.0238267 0.0243717 0)
(0.0258326 0.0369697 0)
(0.0259444 0.04671 0)
(0.0227442 0.0598513 0)
(0.0168511 0.0754483 0)
(0.00745395 0.092402 0)
(-0.00717074 0.112348 0)
(-0.0270721 0.140616 0)
(-0.0547613 0.175045 0)
(-0.0943543 0.211744 0)
(-0.152444 0.269077 0)
(-0.2302 0.329672 0)
(0.00188098 -0.0438051 0)
(0.00575201 -0.0430613 0)
(0.00977133 -0.0402029 0)
(0.0139771 -0.0378464 0)
(0.0184365 -0.0327015 0)
(0.0230381 -0.0278191 0)
(0.0277215 -0.0217972 0)
(0.0324567 -0.0140403 0)
(0.0368169 -0.00645561 0)
(0.0406424 0.00211674 0)
(0.0436147 0.0126932 0)
(0.0455312 0.0222523 0)
(0.0464434 0.0359892 0)
(0.0459606 0.0478935 0)
(0.0433713 0.0643141 0)
(0.0380807 0.08205 0)
(0.0294784 0.103712 0)
(0.0160985 0.129003 0)
(-0.00188509 0.161853 0)
(-0.0245981 0.204276 0)
(-0.0545221 0.25219 0)
(-0.0934197 0.325917 0)
(-0.14484 0.402469 0)
(0.00187296 -0.0476522 0)
(0.00564756 -0.0470469 0)
(0.00948989 -0.0442674 0)
(0.0133385 -0.0420263 0)
(0.0173775 -0.037213 0)
(0.0215091 -0.0322359 0)
(0.0258283 -0.0265807 0)
(0.0303689 -0.0187331 0)
(0.0350493 -0.0110044 0)
(0.0398445 -0.0021556 0)
(0.0445389 0.00910123 0)
(0.0489551 0.0193184 0)
(0.0526561 0.034123 0)
(0.0554064 0.0473144 0)
(0.0566087 0.0661183 0)
(0.0563022 0.0856994 0)
(0.0538233 0.111025 0)
(0.0487029 0.140106 0)
(0.0408751 0.176511 0)
(0.0305635 0.222626 0)
(0.0173503 0.277009 0)
(0.0037428 0.353679 0)
(-0.0103898 0.440402 0)
(0.00298314 -0.0526056 0)
(0.00900919 -0.0520894 0)
(0.0150521 -0.0493061 0)
(0.0210795 -0.0470601 0)
(0.0272152 -0.0425525 0)
(0.0333993 -0.0374124 0)
(0.0396165 -0.0321431 0)
(0.0458312 -0.0241308 0)
(0.0520251 -0.016688 0)
(0.0580019 -0.00745213 0)
(0.0636939 0.00380328 0)
(0.0690188 0.0146682 0)
(0.0738116 0.0300765 0)
(0.0779551 0.0442699 0)
(0.081063 0.0646658 0)
(0.0832188 0.0851252 0)
(0.0843123 0.112821 0)
(0.0842463 0.143349 0)
(0.0831513 0.182059 0)
(0.081771 0.228649 0)
(0.0808092 0.28505 0)
(0.0835328 0.35639 0)
(0.0932132 0.441976 0)
(0.00304311 -0.0587336 0)
(0.009153 -0.0583013 0)
(0.0153284 -0.0555171 0)
(0.0214808 -0.0532339 0)
(0.0277848 -0.0490252 0)
(0.0342087 -0.0437563 0)
(0.0408406 -0.0388591 0)
(0.0476606 -0.0306624 0)
(0.0547211 -0.0236262 0)
(0.0619577 -0.0139443 0)
(0.0693511 -0.00300809 0)
(0.0768653 0.00842168 0)
(0.084338 0.0238393 0)
(0.0918022 0.0386821 0)
(0.0989606 0.0597744 0)
(0.106073 0.0805381 0)
(0.112916 0.109264 0)
(0.120007 0.139676 0)
(0.12764 0.178988 0)
(0.136825 0.223699 0)
(0.148784 0.278769 0)
(0.166328 0.34212 0)
(0.192822 0.419703 0)
(0.00394506 -0.0658267 0)
(0.0118751 -0.0654583 0)
(0.0198309 -0.0627021 0)
(0.027739 -0.0603205 0)
(0.0357028 -0.0564191 0)
(0.0437627 -0.0510609 0)
(0.0519477 -0.0465888 0)
(0.0602225 -0.0382474 0)
(0.0687322 -0.0318352 0)
(0.0773311 -0.0217974 0)
(0.0862316 -0.0116796 0)
(0.0953343 0.0002421 0)
(0.104643 0.0150002 0)
(0.114146 0.0303139 0)
(0.123826 0.0510619 0)
(0.134007 0.0717104 0)
(0.144646 0.100358 0)
(0.156302 0.129576 0)
(0.169218 0.168267 0)
(0.18446 0.209698 0)
(0.203184 0.261758 0)
(0.22749 0.316892 0)
(0.260073 0.385373 0)
(0.00406119 -0.0739412 0)
(0.0122141 -0.0736438 0)
(0.0204541 -0.0709302 0)
(0.0287165 -0.0684811 0)
(0.0371375 -0.0648631 0)
(0.0457909 -0.0595526 0)
(0.0547291 -0.0554456 0)
(0.0639412 -0.0471057 0)
(0.0735831 -0.0413615 0)
(0.0835841 -0.0311077 0)
(0.0941553 -0.0220838 0)
(0.105283 -0.00983271 0)
(0.117152 0.00364254 0)
(0.12974 0.0193186 0)
(0.143077 0.0387705 0)
(0.157507 0.0591108 0)
(0.172952 0.0865845 0)
(0.190099 0.114241 0)
(0.209184 0.151276 0)
(0.231147 0.18913 0)
(0.256765 0.23759 0)
(0.287189 0.28588 0)
(0.32355 0.346916 0)
(0.00455151 -0.0826634 0)
(0.0136719 -0.0824142 0)
(0.0229127 -0.0798611 0)
(0.0322926 -0.0774144 0)
(0.0418767 -0.0741591 0)
(0.0518151 -0.0690765 0)
(0.0621014 -0.0653783 0)
(0.0727822 -0.0573025 0)
(0.0840565 -0.0523239 0)
(0.0957718 -0.04211 0)
(0.108195 -0.034332 0)
(0.121233 -0.0220147 0)
(0.135157 -0.0102427 0)
(0.149906 0.00558232 0)
(0.165801 0.0229788 0)
(0.183137 0.0428239 0)
(0.201866 0.0683729 0)
(0.222701 0.0941219 0)
(0.245683 0.128957 0)
(0.271818 0.162946 0)
(0.301721 0.207807 0)
(0.336158 0.250307 0)
(0.37586 0.305871 0)
(0.00442617 -0.0917504 0)
(0.0132119 -0.0914517 0)
(0.0221996 -0.0892723 0)
(0.031535 -0.0869417 0)
(0.0412287 -0.0841363 0)
(0.0514931 -0.0795341 0)
(0.0623557 -0.0763074 0)
(0.073937 -0.0688801 0)
(0.0863936 -0.0647303 0)
(0.0996696 -0.0549556 0)
(0.113995 -0.0485061 0)
(0.129393 -0.0365582 0)
(0.146087 -0.0266124 0)
(0.164015 -0.0110322 0)
(0.183618 0.00377286 0)
(0.204886 0.0230832 0)
(0.227957 0.0459543 0)
(0.253484 0.0697934 0)
(0.281095 0.102282 0)
(0.311736 0.132402 0)
(0.345682 0.174022 0)
(0.383301 0.211511 0)
(0.425141 0.262548 0)
(0.0044309 -0.100714 0)
(0.0131529 -0.100208 0)
(0.0221134 -0.0986789 0)
(0.031576 -0.0965524 0)
(0.0414615 -0.0943287 0)
(0.0520668 -0.0904424 0)
(0.0634492 -0.087883 0)
(0.0758321 -0.0815173 0)
(0.0893428 -0.0783203 0)
(0.103966 -0.0695365 0)
(0.119964 -0.0645331 0)
(0.137299 -0.0535638 0)
(0.156224 -0.0455415 0)
(0.176742 -0.0308801 0)
(0.199279 -0.0188716 0)
(0.223636 -0.000270692 0)
(0.250227 0.0192512 0)
(0.279379 0.0413951 0)
(0.31076 0.0712407 0)
(0.345291 0.0977907 0)
(0.382752 0.13671 0)
(0.423341 0.170063 0)
(0.467435 0.217469 0)
(0.00370465 -0.10895 0)
(0.0110049 -0.108194 0)
(0.0186292 -0.107481 0)
(0.0268703 -0.105663 0)
(0.0357567 -0.104205 0)
(0.0456543 -0.101294 0)
(0.0566662 -0.0996611 0)
(0.0690973 -0.0948017 0)
(0.0830982 -0.0928108 0)
(0.0987962 -0.0856468 0)
(0.116382 -0.0823032 0)
(0.135917 -0.0729798 0)
(0.157565 -0.0670343 0)
(0.181441 -0.0541378 0)
(0.207909 -0.0450024 0)
(0.236675 -0.027669 0)
(0.268306 -0.0120058 0)
(0.302492 0.00885134 0)
(0.339241 0.0351663 0)
(0.379208 0.0588436 0)
(0.4213 0.095553 0)
(0.465578 0.125774 0)
(0.512259 0.170371 0)
(0.00328653 -0.116033 0)
(0.00982244 -0.115131 0)
(0.0166474 -0.115181 0)
(0.0239841 -0.113735 0)
(0.031937 -0.113173 0)
(0.040854 -0.111351 0)
(0.0508665 -0.110851 0)
(0.0623206 -0.107735 0)
(0.0754312 -0.107245 0)
(0.0904738 -0.102229 0)
(0.107773 -0.100906 0)
(0.127571 -0.0940335 0)
(0.150142 -0.0905487 0)
(0.175789 -0.0805253 0)
(0.204765 -0.0744703 0)
(0.236868 -0.0595103 0)
(0.272763 -0.0481667 0)
(0.311712 -0.0286309 0)
(0.354095 -0.0070234 0)
(0.399844 0.0147417 0)
(0.447362 0.0494481 0)
(0.497105 0.0772367 0)
(0.548609 0.12008 0)
(0.00208453 -0.121486 0)
(0.00633175 -0.120624 0)
(0.0108959 -0.121242 0)
(0.0159859 -0.120272 0)
(0.021854 -0.120637 0)
(0.0288073 -0.119949 0)
(0.0370707 -0.120734 0)
(0.0470552 -0.119513 0)
(0.0590821 -0.120847 0)
(0.0735801 -0.118433 0)
(0.090916 -0.119629 0)
(0.111406 -0.115921 0)
(0.135387 -0.11557 0)
(0.163281 -0.109439 0)
(0.195218 -0.106903 0)
(0.231301 -0.0957364 0)
(0.271956 -0.089009 0)
(0.316468 -0.0718045 0)
(0.365702 -0.0560669 0)
(0.418536 -0.0354331 0)
(0.473495 -0.00351199 0)
(0.531045 0.0222192 0)
(0.589669 0.06427 0)
(0.00156111 -0.125202 0)
(0.00479035 -0.124526 0)
(0.00823976 -0.125498 0)
(0.0120657 -0.125081 0)
(0.0165478 -0.126335 0)
(0.0219204 -0.126744 0)
(0.028434 -0.128896 0)
(0.0364783 -0.129578 0)
(0.0463934 -0.132943 0)
(0.05867 -0.133357 0)
(0.0737383 -0.137386 0)
(0.0920174 -0.137244 0)
(0.114002 -0.140561 0)
(0.140263 -0.138995 0)
(0.171205 -0.140665 0)
(0.207388 -0.134729 0)
(0.249188 -0.133016 0)
(0.29645 -0.120163 0)
(0.350121 -0.111266 0)
(0.408486 -0.0921282 0)
(0.471087 -0.0651076 0)
(0.537921 -0.0413365 0)
(0.605959 0.000382902 0)
(0.000310547 -0.127131 0)
(0.00103477 -0.126667 0)
(0.00195512 -0.127847 0)
(0.00325375 -0.127981 0)
(0.00522035 -0.130014 0)
(0.00807034 -0.131428 0)
(0.0120918 -0.1349 0)
(0.0176823 -0.137378 0)
(0.0252298 -0.142796 0)
(0.035305 -0.146072 0)
(0.0484822 -0.153164 0)
(0.0654448 -0.156993 0)
(0.0868365 -0.164518 0)
(0.113163 -0.168004 0)
(0.144814 -0.174681 0)
(0.182485 -0.175058 0)
(0.226618 -0.179175 0)
(0.277596 -0.172865 0)
(0.335902 -0.171235 0)
(0.400033 -0.155404 0)
(0.471094 -0.136303 0)
(0.548253 -0.114997 0)
(0.627626 -0.0742488 0)
(-0.000191328 -0.127297 0)
(-0.000503655 -0.127007 0)
(-0.000697937 -0.128328 0)
(-0.000618595 -0.128976 0)
(4.29367e-07 -0.13171 0)
(0.00136075 -0.134057 0)
(0.00375226 -0.138811 0)
(0.00752776 -0.142976 0)
(0.0130404 -0.15042 0)
(0.0207831 -0.156454 0)
(0.0312309 -0.166627 0)
(0.045007 -0.174526 0)
(0.0628108 -0.186482 0)
(0.0853507 -0.19526 0)
(0.113263 -0.207398 0)
(0.147425 -0.214649 0)
(0.188625 -0.225464 0)
(0.2379 -0.227454 0)
(0.295851 -0.233613 0)
(0.361993 -0.224084 0)
(0.437947 -0.215511 0)
(0.52193 -0.197878 0)
(0.610489 -0.160283 0)
(-0.00131857 -0.125823 0)
(-0.00390208 -0.125658 0)
(-0.00638833 -0.12707 0)
(-0.00866114 -0.128116 0)
(-0.01049 -0.131441 0)
(-0.0116825 -0.134582 0)
(-0.0119713 -0.140487 0)
(-0.0110119 -0.146147 0)
(-0.00845619 -0.155448 0)
(-0.00378784 -0.163991 0)
(0.00351009 -0.177018 0)
(0.0141382 -0.188758 0)
(0.0289308 -0.205109 0)
(0.0489585 -0.219516 0)
(0.0754449 -0.237919 0)
(0.10946 -0.252756 0)
(0.15159 -0.271217 0)
(0.202662 -0.282668 0)
(0.263308 -0.297712 0)
(0.334039 -0.297671 0)
(0.415993 -0.300756 0)
(0.507025 -0.288662 0)
(0.605177 -0.257285 0)
(-0.00174322 -0.122785 0)
(-0.00520634 -0.122698 0)
(-0.00862064 -0.12418 0)
(-0.0119014 -0.125505 0)
(-0.0148506 -0.129331 0)
(-0.0172992 -0.133114 0)
(-0.0190114 -0.140026 0)
(-0.0196927 -0.146971 0)
(-0.0190378 -0.157935 0)
(-0.0165845 -0.168747 0)
(-0.0118675 -0.184424 0)
(-0.00425537 -0.199772 0)
(0.00693167 -0.220296 0)
(0.0224916 -0.240189 0)
(0.0434653 -0.265041 0)
(0.0712412 -0.287836 0)
(0.107164 -0.314687 0)
(0.152819 -0.336521 0)
(0.209648 -0.362038 0)
(0.279297 -0.374549 0)
(0.362645 -0.390137 0)
(0.457947 -0.386683 0)
(0.564617 -0.365249 0)
(-0.00270257 -0.118354 0)
(-0.00811255 -0.118285 0)
(-0.013525 -0.119795 0)
(-0.0189045 -0.12126 0)
(-0.0241252 -0.12544 0)
(-0.0290748 -0.129645 0)
(-0.0335639 -0.137338 0)
(-0.0373493 -0.145246 0)
(-0.0401706 -0.15756 0)
(-0.0416091 -0.170221 0)
(-0.0412117 -0.18817 0)
(-0.0383183 -0.206665 0)
(-0.0321566 -0.230922 0)
(-0.0216891 -0.255807 0)
(-0.00565129 -0.28671 0)
(0.0178069 -0.317752 0)
(0.0510238 -0.354356 0)
(0.0960417 -0.388084 0)
(0.154058 -0.426006 0)
(0.226619 -0.453619 0)
(0.314402 -0.48318 0)
(0.417292 -0.492955 0)
(0.53679 -0.486416 0)
(-0.00301066 -0.112646 0)
(-0.00905541 -0.112549 0)
(-0.0151423 -0.114043 0)
(-0.0212678 -0.115518 0)
(-0.0273611 -0.119879 0)
(-0.0333901 -0.124241 0)
(-0.0392378 -0.132423 0)
(-0.0447733 -0.140863 0)
(-0.0497984 -0.154127 0)
(-0.0539943 -0.168062 0)
(-0.0569574 -0.187823 0)
(-0.0581118 -0.208835 0)
(-0.0567412 -0.236399 0)
(-0.0518589 -0.265835 0)
(-0.0423213 -0.302466 0)
(-0.0266553 -0.3414 0)
(-0.00324932 -0.387703 0)
(0.0301832 -0.433674 0)
(0.0762435 -0.485115 0)
(0.138109 -0.529719 0)
(0.217788 -0.575498 0)
(0.318301 -0.605185 0)
(0.443801 -0.620546 0)
(-0.00391575 -0.105716 0)
(-0.0117833 -0.105559 0)
(-0.0197485 -0.106972 0)
(-0.0278813 -0.108321 0)
(-0.0362044 -0.11265 0)
(-0.0447614 -0.116873 0)
(-0.0535172 -0.125177 0)
(-0.0624255 -0.133656 0)
(-0.0713869 -0.147341 0)
(-0.0802545 -0.161784 0)
(-0.0887745 -0.182625 0)
(-0.0965273 -0.205146 0)
(-0.102884 -0.235144 0)
(-0.106886 -0.268044 0)
(-0.107244 -0.309555 0)
(-0.102023 -0.355378 0)
(-0.0888541 -0.410562 0)
(-0.0643067 -0.46917 0)
(-0.0253357 -0.535167 0)
(0.0296501 -0.597203 0)
(0.10069 -0.659595 0)
(0.190573 -0.712554 0)
(0.30687 -0.756309 0)
(-0.00396414 -0.0978245 0)
(-0.011958 -0.097565 0)
(-0.0201486 -0.0987842 0)
(-0.0286747 -0.0998222 0)
(-0.0376684 -0.103801 0)
(-0.0472736 -0.107524 0)
(-0.0575752 -0.115428 0)
(-0.0686739 -0.123353 0)
(-0.0806047 -0.136703 0)
(-0.093393 -0.150713 0)
(-0.106937 -0.171578 0)
(-0.121019 -0.194307 0)
(-0.135188 -0.225413 0)
(-0.148745 -0.260187 0)
(-0.160572 -0.305228 0)
(-0.169199 -0.356348 0)
(-0.172988 -0.419086 0)
(-0.171038 -0.487348 0)
(-0.164714 -0.562589 0)
(-0.154961 -0.634927 0)
(-0.135737 -0.712674 0)
(-0.0878852 -0.797993 0)
(0.00930263 -0.885531 0)
(-0.00484072 -0.0890003 0)
(-0.0146121 -0.0885844 0)
(-0.0246664 -0.0894779 0)
(-0.0351801 -0.0900427 0)
(-0.046321 -0.0933945 0)
(-0.0583105 -0.096277 0)
(-0.0713507 -0.103266 0)
(-0.0856627 -0.110026 0)
(-0.101436 -0.122236 0)
(-0.118924 -0.134801 0)
(-0.138377 -0.154378 0)
(-0.159988 -0.175684 0)
(-0.183866 -0.205846 0)
(-0.209901 -0.240011 0)
(-0.237665 -0.285663 0)
(-0.266332 -0.338483 0)
(-0.295426 -0.403956 0)
(-0.325532 -0.474236 0)
(-0.358463 -0.549016 0)
(-0.391761 -0.624892 0)
(-0.403715 -0.730075 0)
(-0.358799 -0.873901 0)
(-0.24279 -1.02399 0)
(-0.00441991 -0.079715 0)
(-0.0133754 -0.0790925 0)
(-0.0227139 -0.0795234 0)
(-0.032729 -0.079409 0)
(-0.0437367 -0.0818118 0)
(-0.0561079 -0.0834197 0)
(-0.0702445 -0.0888531 0)
(-0.086604 -0.0936564 0)
(-0.105637 -0.103668 0)
(-0.127735 -0.113625 0)
(-0.153356 -0.130293 0)
(-0.183227 -0.148068 0)
(-0.21801 -0.174546 0)
(-0.258164 -0.204827 0)
(-0.304126 -0.246789 0)
(-0.35681 -0.295635 0)
(-0.418653 -0.355446 0)
(-0.494156 -0.416639 0)
(-0.58219 -0.485068 0)
(-0.653946 -0.583286 0)
(-0.657024 -0.756621 0)
(-0.569709 -0.980335 0)
(-0.42107 -1.18365 0)
(-0.00526114 -0.0700043 0)
(-0.0159311 -0.0691171 0)
(-0.0270353 -0.0689912 0)
(-0.0388728 -0.0680163 0)
(-0.051795 -0.0691917 0)
(-0.0661881 -0.0691779 0)
(-0.0824758 -0.0725542 0)
(-0.101195 -0.0747358 0)
(-0.122996 -0.0815845 0)
(-0.14863 -0.0877714 0)
(-0.178881 -0.100026 0)
(-0.214882 -0.112165 0)
(-0.257996 -0.132189 0)
(-0.309899 -0.15469 0)
(-0.372725 -0.187617 0)
(-0.449177 -0.225043 0)
(-0.542599 -0.270007 0)
(-0.652894 -0.315354 0)
(-0.763645 -0.386569 0)
(-0.826191 -0.546824 0)
(-0.794825 -0.821572 0)
(-0.686106 -1.1125 0)
(-0.546108 -1.34169 0)
(-0.00414887 -0.0605632 0)
(-0.0126358 -0.0593374 0)
(-0.021682 -0.0585514 0)
(-0.031633 -0.05659 0)
(-0.0428522 -0.0563869 0)
(-0.0558126 -0.0545228 0)
(-0.0710909 -0.0555153 0)
(-0.0894566 -0.0545329 0)
(-0.111901 -0.0573475 0)
(-0.139885 -0.0581496 0)
(-0.175228 -0.0637486 0)
(-0.21979 -0.0674964 0)
(-0.275736 -0.0773184 0)
(-0.345312 -0.0874872 0)
(-0.431515 -0.105052 0)
(-0.538661 -0.123092 0)
(-0.670487 -0.145574 0)
(-0.818877 -0.179786 0)
(-0.941839 -0.287233 0)
(-0.976206 -0.548781 0)
(-0.916183 -0.911535 0)
(-0.818954 -1.22962 0)
(-0.716494 -1.46835 0)
(-0.00496298 -0.0514191 0)
(-0.0150633 -0.0498278 0)
(-0.0257171 -0.0482885 0)
(-0.0373224 -0.0452146 0)
(-0.0502941 -0.0434757 0)
(-0.0651318 -0.0395216 0)
(-0.0824588 -0.037772 0)
(-0.103085 -0.033112 0)
(-0.128001 -0.0311919 0)
(-0.158485 -0.0255648 0)
(-0.196196 -0.0229292 0)
(-0.243189 -0.0163149 0)
(-0.302095 -0.0130814 0)
(-0.376486 -0.00703913 0)
(-0.470692 -0.00418204 0)