/*--------------------------------*- C++ -*----------------------------------*\
| =========                 |                                                 |
| \\      /  F ield         | OpenFOAM: The Open Source CFD Toolbox           |
|  \\    /   O peration     | Version:  2012                                  |
|   \\  /    A nd           | Website:  www.openfoam.com                      |
|    \\/     M anipulation  |                                                 |
\*---------------------------------------------------------------------------*/
FoamFile
{
    version     2.0;
    format      ascii;
    class       volScalarField;
    location    "0.6";
    object      volumeFraction1;
}
// * * * * * * * * * * * * * * * * * * * * * * * * * * * * * * * * * * * * * //

dimensions      [0 0 0 0 0 0 0];


internalField   nonuniform List<scalar> 
2268
(
1
1
1
1
1
1
1
1
1
1
1
1
1
1
1
1
1
1
1
1
1
1
0.999781
1
1
1
1
1
1
1
1
1
1
1
1
1
1
1
1
1
1
1
1
1
1
0.999711
1
1
1
1
1
1
1
1
1
1
1
1
1
1
1
1
1
1
1
1
1
1
0.999711
1
1
1
1
1
1
1
1
1
1
1
1
1
1
1
1
1
1
1
1
1
1
0.999711
1
1
1
1
1
1
1
1
1
1
1
1
1
1
1
1
1
1
1
1
1
1
0.999882
1
1
1
1
1
1
1
1
1
1
1
1
1
1
1
1
1
1
1
1
1
1
1
0.999999
0.999999
0.999999
1
1
1
1
1
1
1
1
1
1
1
1
1
1
1
1
1
1
1
1
0.994208
0.994153
0.994961
0.995994
0.997045
0.997811
0.998787
0.999396
0.99977
0.999991
1
1
1
1
1
1
1
1
1
1
1
1
1
0.548968
0.548978
0.548975
0.596753
0.689799
0.723482
0.726871
0.726868
0.727242
0.728447
0.746368
0.746363
0.746368
0.745691
0.74437
0.758683
0.775053
0.775086
0.755028
0.548619
0.0945943
0.0763049
0.0868983
0.347267
0.632309
0.684563
0.490781
0.441505
0.525475
0.663761
0.659373
0.585519
0.558255
0.571984
0.64826
0.716819
0.775439
0.775438
0.472623
0.000401872
0.000401829
0.00513859
0.295273
0.809252
0.788296
0.311088
0.0614696
0.0614671
0.218231
0.0918551
0.0518811
0.0509062
0.0815623
0.140078
0.228603
0.542717
0.775941
0.170602
0.00318566
0.000107417
0.000378121
0.0266904
0.735533
0.986381
0.884832
0.707651
0.338404
0.0545271
0.00527524
0.000579482
0.000348685
4.71071e-08
4.70952e-08
0.00181181
0.203214
0.771572
0.00155223
0.00155235
0.000360418
-2.11385e-23
1.07683e-19
0.574497
0.986382
0.990179
0.990179
0.885772
0.305248
0.00821702
2.48425e-06
6.02238e-08
4.71046e-08
2.55251e-06
0.00132467
0.0760185
0.611328
0.129294
0.00558056
-1.56423e-22
-4.55956e-24
0.0853862
0.824645
0.989065
0.990179
0.898677
0.722061
0.267704
0.00707035
1.3133e-06
2.88974e-10
5.40592e-09
2.70131e-07
0.000195467
0.0499791
0.693693
0.193713
0.0195453
0.000180095
2.76213e-22
0.298161
0.942583
0.995452
0.918174
0.433134
0.184623
0.0802196
0.00725589
1.9474e-06
2.89096e-10
1.25016e-09
4.74841e-10
2.06324e-05
0.0325824
0.829079
0.165032
0.0269732
0.00295689
1.57607e-19
0.57468
0.986719
0.995454
0.705989
0.129523
0.0150054
0.00590778
0.0033479
5.01382e-05
5.32435e-10
1.84269e-10
4.74845e-10
2.66648e-16
0.0102609
0.82912
0.599683
0.604322
0.623227
0.650063
0.685805
0.724943
0.779795
0.833122
0.891415
0.947819
0.98113
0.997019
1
1
1
1
1
1
1
1
1
1
1
0.00203104
0.00632071
0.011891
0.0201561
0.0350362
0.0555318
0.0867923
0.126417
0.187534
0.273756
0.402883
0.57342
0.75858
0.921118
1
1
1
1
1
1
1
1
1
2.71633e-35
2.74541e-35
-5.59963e-34
1.3418e-33
2.20478e-34
-1.94489e-31
-1.8504e-32
-1.46331e-34
-1.68681e-23
8.27527e-05
0.00438851
0.0256471
0.0842599
0.195197
0.38686
0.605243
0.807855
0.987911
1
0.999956
0.999951
0.999998
1
4.44488e-18
2.16784e-16
6.41696e-15
1.08963e-13
1.24037e-12
7.31141e-12
9.71303e-12
6.07219e-12
7.02911e-12
6.86383e-11
8.64421e-28
-3.789e-27
4.37137e-22
0.00377119
0.0173972
0.0660448
0.132931
0.278804
0.487468
0.688772
0.864209
0.950998
0.984959
1.13748e-17
5.80985e-16
1.60289e-14
2.66546e-13
2.94272e-12
1.75072e-11
2.98295e-11
4.32284e-11
3.04282e-11
1.05295e-11
9.01044e-09
8.44585e-08
-2.96544e-25
-2.50776e-27
-5.16248e-23
0.000152467
0.000323464
0.00421476
0.0200002
0.028894
0.0831747
0.175786
0.281246
8.37119e-18
4.59012e-16
1.33441e-14
2.3467e-13
2.84044e-12
1.93509e-11
3.66683e-11
8.58921e-11
1.02109e-10
1.02393e-10
7.99635e-08
1.19593e-06
1.24379e-06
2.07189e-06
1.89109e-06
6.03987e-07
8.03895e-08
1.1971e-12
1.1971e-12
1.1971e-12
1.1971e-12
1.1971e-12
1.1971e-12
5.97143e-18
3.10068e-16
8.17668e-15
1.29374e-13
1.63009e-12
1.29716e-11
1.8148e-11
9.27776e-11
3.6609e-10
2.66552e-10
1.20916e-09
1.08358e-06
2.10388e-06
2.10388e-06
9.27311e-07
1.05369e-07
1.56456e-08
9.13193e-09
2.53381e-09
2.1003e-07
1.66199e-06
4.21583e-07
1.1971e-12
2.89493e-18
1.43131e-16
3.78142e-15
5.90338e-14
7.58148e-13
6.19136e-12
8.42386e-12
1.0932e-10
6.98394e-10
4.57067e-09
4.39239e-08
2.5877e-08
2.77608e-07
2.4161e-08
7.44835e-10
9.79783e-09
3.07566e-08
3.33552e-08
1.19565e-08
5.52103e-08
3.21638e-07
6.9557e-08
1.54524e-07
1.08264e-18
4.96857e-17
1.28597e-15
1.8913e-14
2.02905e-13
2.14951e-12
1.61512e-12
6.42964e-11
7.74398e-10
3.32065e-09
2.77009e-09
2.56763e-10
1.75147e-10
9.69517e-11
9.18336e-11
6.00849e-10
2.34972e-08
3.45018e-08
3.28611e-08
1.15175e-08
3.60548e-10
1.2284e-09
1.51706e-08
3.81741e-19
1.6928e-17
4.30765e-16
6.24153e-15
6.54804e-14
6.6351e-13
8.63135e-13
5.72406e-11
4.39574e-10
2.07707e-09
1.30164e-09
4.07345e-10
1.40277e-10
2.52035e-10
4.15814e-10
4.31925e-10
2.01742e-09
1.34762e-08
1.38741e-08
4.02363e-09
3.60478e-10
1.7754e-09
1.57149e-08
1.08338e-19
4.51688e-18
1.11784e-16
1.56409e-15
1.46515e-14
1.54048e-13
2.36467e-13
1.98844e-11
1.26836e-10
1.16143e-10
1.62042e-10
1.43079e-10
1.26699e-10
2.16986e-10
4.29491e-10
4.66273e-10
2.86628e-10
4.89513e-10
5.93867e-10
5.6304e-10
4.29921e-10
9.77333e-10
6.63147e-09
2.67162e-20
1.07833e-18
2.61708e-17
3.61067e-16
3.40477e-15
2.88819e-14
1.37132e-13
4.5689e-12
2.20746e-11
2.6122e-11
3.3926e-11
3.713e-11
4.3544e-11
6.02376e-11
1.49489e-10
2.7504e-10
2.66649e-10
2.32045e-10
1.88032e-10
2.07655e-10
2.51184e-10
2.28709e-10
5.5263e-10
5.33334e-21
2.04018e-19
4.79241e-18
6.45018e-17
6.12515e-16
4.67859e-15
3.9514e-14
7.15523e-13
2.30848e-12
4.95695e-12
7.78482e-12
8.42406e-12
9.51045e-12
1.18466e-11
2.13695e-11
4.48397e-11
1.01639e-10
1.46224e-10
1.63949e-10
1.71498e-10
1.74667e-10
1.24295e-10
9.71083e-11
8.63527e-22
3.23736e-20
7.54734e-19
1.02028e-17
1.00199e-16
7.59815e-16
9.8894e-15
8.13286e-14
2.94563e-13
7.012e-13
1.13118e-12
1.27441e-12
1.50857e-12
1.93194e-12
3.25042e-12
6.51276e-12
1.57491e-11
3.36314e-11
6.83546e-11
8.54635e-11
9.04927e-11
7.52201e-11
5.28432e-11
1.10483e-22
4.01336e-21
9.26707e-20
1.26457e-18
1.29e-17
1.0048e-16
1.66128e-15
7.70959e-15
2.37889e-14
5.45163e-14
9.04059e-14
1.14644e-13
1.56521e-13
2.39095e-13
4.677e-13
9.67571e-13
2.21072e-12
4.73859e-12
1.07981e-11
1.68978e-11
2.35529e-11
2.58411e-11
2.45888e-11
1.09487e-23
3.97765e-22
9.34437e-21
1.32129e-19
1.42237e-18
1.14591e-17
1.93669e-16
7.62597e-16
1.8393e-15
2.79701e-15
4.07407e-15
6.02676e-15
1.13083e-14
2.45793e-14
6.05406e-14
1.35137e-13
2.98664e-13
6.04851e-13
1.36517e-12
2.49844e-12
4.3319e-12
6.13001e-12
7.68294e-12
8.14445e-25
2.98852e-23
7.23856e-22
1.07495e-20
1.22259e-19
1.00175e-18
1.37461e-17
5.9233e-17
1.4301e-16
1.99595e-16
2.62965e-16
4.03095e-16
9.04216e-16
2.41382e-15
6.7071e-15
1.59486e-14
3.59533e-14
7.1471e-14
1.56371e-13
3.13691e-13
6.39046e-13
1.11448e-12
1.75836e-12
4.36238e-26
1.68471e-24
4.34382e-23
6.91213e-22
8.2942e-21
6.80398e-20
6.13516e-19
2.60521e-18
6.74566e-18
1.13348e-17
1.69357e-17
2.91027e-17
6.94264e-17
1.92873e-16
5.49469e-16
1.37357e-15
3.30215e-15
6.95104e-15
1.57128e-14
3.40573e-14
7.8557e-14
1.62866e-13
3.12233e-13
1.58114e-27
6.67181e-26
1.87792e-24
3.21866e-23
4.01303e-22
3.25195e-21
2.00095e-20
6.9855e-20
1.55526e-19
2.80139e-19
5.2325e-19
1.23993e-18
3.52813e-18
1.0463e-17
2.99797e-17
7.85123e-17
2.06938e-16
4.88525e-16
1.24198e-15
3.01238e-15
7.92185e-15
1.92471e-14
4.40959e-14
3.56466e-29
1.75082e-27
5.53935e-26
1.0253e-24
1.31321e-23
1.0373e-22
5.49593e-22
1.70455e-21
3.79663e-21
7.77273e-21
1.72707e-20
4.74992e-20
1.38502e-19
4.00982e-19
1.0942e-18
2.89468e-18
8.37151e-18
2.30042e-17
7.0741e-17
2.01943e-16
6.27985e-16
1.80162e-15
4.93557e-15
4.66557e-31
2.56199e-29
8.80783e-28
1.70767e-26
2.21007e-25
1.70557e-24
7.71929e-24
2.50217e-23
6.84294e-23
1.9026e-22
5.37683e-22
1.52342e-21
4.10294e-21
1.08498e-20
2.56986e-20
6.60665e-20
2.06052e-19
6.8173e-19
2.7127e-18
9.60529e-18
3.73659e-17
1.29688e-16
4.32529e-16
5.83662e-33
2.24886e-31
5.77546e-30
9.78901e-29
1.37418e-27
1.3636e-26
8.05393e-26
3.64575e-25
1.40153e-24
4.94732e-24
1.50039e-23
4.08096e-23
9.56415e-23
2.09275e-22
4.26364e-22
9.6754e-22
2.88274e-21
1.17803e-20
6.45308e-20
3.00821e-19
1.57628e-18
6.87391e-18
2.89085e-17
1.56166e-34
6.29452e-33
1.6228e-31
2.70601e-30
3.61539e-29
3.49879e-28
2.0872e-27
9.49366e-27
3.56288e-26
1.19221e-25
3.3294e-25
8.23443e-25
1.76773e-24
3.39032e-24
5.5484e-24
1.02799e-23
2.24253e-23
9.39335e-23
7.81654e-22
5.40444e-21
4.33925e-20
2.53868e-19
1.45587e-18
2.06086e-36
8.75389e-35
2.24346e-33
3.54433e-32
4.03145e-31
3.32941e-30
2.14422e-29
1.10455e-28
4.4751e-28
1.51499e-27
4.09217e-27
9.69206e-27
2.01632e-26
3.84435e-26
6.42471e-26
9.75361e-26
1.56229e-25
7.31456e-25
1.02668e-23
1.06814e-22
8.89168e-22
6.07005e-21
6.04798e-20
5.90158e-42
1.7679e-40
3.09682e-39
3.3185e-38
2.39014e-37
9.21594e-37
2.72266e-36
1.24452e-35
6.56812e-35
2.90734e-34
9.79583e-34
3.58702e-33
8.89447e-32
7.48288e-30
6.24614e-28
3.39771e-26
1.63064e-24
4.50109e-23
1.16108e-21
1.86328e-20
1.86421e-19
2.78776e-19
8.72102e-20
2.94671e-46
1.24213e-44
3.15998e-43
5.39975e-42
7.24901e-41
8.91611e-40
1.86899e-38
2.57449e-37
1.8044e-36
1.12337e-35
4.01237e-34
4.68442e-32
5.48925e-30
4.77451e-28
3.74653e-26
2.04177e-24
9.60902e-23
2.94468e-21
8.45367e-20
1.76802e-18
2.40787e-17
5.09653e-17
3.77024e-17
1.12857e-49
4.79114e-48
1.16247e-46
1.80126e-45
2.05714e-44
3.03184e-43
3.63808e-41
7.54101e-39
1.38123e-36
2.05057e-34
2.84276e-32
3.17185e-30
3.22831e-28
2.52681e-26
1.78627e-24
9.24501e-23
4.11518e-21
1.2934e-19
3.80633e-18
8.90687e-17
1.28215e-15
2.81046e-15
2.79273e-15
4.81419e-55
2.19889e-52
1.96672e-49
1.17952e-46
5.07797e-44
1.62807e-41
4.10382e-39
8.10614e-37
1.33083e-34
1.74391e-32
2.0764e-30
2.01514e-28
1.74759e-26
1.18876e-24
7.29295e-23
3.43095e-21
1.39034e-19
4.21556e-18
1.19735e-16
2.81996e-15
3.80769e-14
7.65302e-14
8.01e-14
1.24976e-53
2.40997e-50
2.23157e-47
1.29409e-44
5.33331e-42
1.63459e-39
3.92727e-37
7.40967e-35
1.14322e-32
1.40552e-30
1.44534e-28
1.20403e-26
8.82168e-25
5.10542e-23
2.62311e-21
1.07835e-19
3.84667e-18
1.07083e-16
2.78178e-15
6.05638e-14
7.15487e-13
1.19575e-12
1.16295e-12
1.34039e-51
2.50012e-48
2.21866e-45
1.2351e-42
4.86149e-40
1.42259e-37
3.23664e-35
5.77731e-33
8.32466e-31
9.56955e-29
9.00753e-27
6.76426e-25
4.17643e-23
2.04835e-21
8.61464e-20
2.99859e-18
9.08974e-17
2.21435e-15
4.94825e-14
9.19475e-13
8.73213e-12
1.08386e-11
9.03733e-12
1.0475e-49
1.88249e-46
1.6062e-43
8.59095e-41
3.23912e-38
9.05797e-36
1.95886e-33
3.31039e-31
4.47752e-29
4.8112e-27
4.18346e-25
2.89272e-23
1.61981e-21
7.1877e-20
2.59158e-18
7.45083e-17
1.84526e-15
3.77204e-14
6.81722e-13
1.00833e-11
6.67024e-11
5.30232e-11
3.16673e-11
7.42734e-48
1.28538e-44
1.05308e-41
5.39756e-39
1.93864e-36
5.14209e-34
1.04569e-31
1.65267e-29
2.06895e-27
2.04741e-25
1.62073e-23
1.01575e-21
5.09097e-20
2.01541e-18
6.38688e-17
1.6065e-15
3.28229e-14
5.41873e-13
7.45105e-12
8.19785e-11
3.33613e-10
2.95812e-10
9.92886e-10
3.20314e-46
5.3856e-43
4.28468e-40
2.12825e-37
7.38799e-35
1.88475e-32
3.66399e-30
5.49391e-28
6.46266e-26
5.95298e-24
4.33436e-22
2.47336e-20
1.11368e-18
3.92043e-17
1.08891e-15
2.38046e-14
4.175e-13
5.87911e-12
6.63915e-11
6.35354e-10
6.32031e-09
6.55584e-08
6.78882e-07
1.44801e-44
2.33579e-41
1.77237e-38
8.34392e-36
2.72157e-33
6.48619e-31
1.16691e-28
1.60878e-26
1.72193e-24
1.43294e-22
9.31903e-21
4.70701e-19
1.84889e-17
5.59899e-16
1.31083e-14
2.37206e-13
3.41521e-12
3.9611e-11
4.66491e-10
1.09545e-08
2.1512e-07
3.42143e-06
6.0571e-06
2.12807e-43
3.46149e-40
2.65922e-37
1.26846e-34
4.18259e-32
1.00042e-29
1.78832e-27
2.41401e-25
2.48453e-23
1.94574e-21
1.16326e-19
5.26759e-18
1.79844e-16
4.5622e-15
8.50429e-14
1.14086e-12
1.08465e-11
8.11343e-11
3.81461e-09
2.16792e-07
3.95465e-06
7.03051e-06
6.83182e-06
6.12292e-42
9.21108e-39
6.47964e-36
2.80959e-33
8.34902e-31
1.78933e-28
2.84485e-26
3.40131e-24
3.07756e-22
2.10318e-20
1.0811e-18
4.13394e-17
1.15949e-15
2.32708e-14
3.23407e-13
2.93582e-12
1.56963e-11
8.25469e-11
3.25942e-08
2.80554e-06
7.0374e-06
6.8142e-06
1.21467e-06
1.51383e-41
2.50302e-38
1.93722e-35
9.20496e-33
2.985e-30
6.92633e-28
1.18145e-25
1.49192e-23
1.39941e-21
9.65314e-20
4.8545e-18
1.74484e-16
4.3993e-15
7.54132e-14
8.41984e-13
5.64715e-12
1.89388e-11
2.237e-10
2.26259e-07
4.72084e-06
6.96691e-06
1.23463e-06
1.2021e-10
2.09169e-40
3.16545e-37
2.23008e-34
9.58753e-32
2.78677e-29
5.75411e-27
8.64941e-25
9.57174e-23
7.80999e-21
4.67997e-19
2.0383e-17
6.35059e-16
1.38544e-14
2.04859e-13
1.95481e-12
1.09897e-11
3.05582e-11
9.60916e-10
6.16902e-07
2.13422e-06
6.38921e-07
9.42391e-13
1.2023e-10
4.79526e-41
4.86147e-38
4.42102e-35
2.4634e-32
9.30727e-30
2.48526e-27
4.80249e-25
6.73876e-23
6.88679e-21
5.04692e-19
2.60841e-17
9.34196e-16
2.26564e-14
3.65869e-13
4.03918e-12
3.72328e-11
1.34167e-09
1.10753e-07
2.2692e-07
8.36011e-13
8.34859e-13
9.42257e-13
4.55501e-12
4.17501e-40
7.18119e-37
5.76331e-34
2.82472e-31
9.34585e-29
2.18613e-26
3.69247e-24
4.54092e-22
4.06351e-20
2.63043e-18
1.22089e-16
4.02832e-15
9.45498e-14
1.62872e-12
2.21226e-11
2.83194e-10
5.11768e-09
2.48107e-08
1.93556e-08
1.7773e-12
5.62961e-11
1.32891e-12
8.40537e-12
4.4042e-42
4.81447e-39
4.4879e-36
2.94561e-33
1.52385e-30
6.13561e-28
1.88515e-25
4.22234e-23
6.72905e-21
7.64061e-19
6.03985e-17
3.23409e-15
1.11788e-13
2.35384e-12
2.83507e-11
1.92404e-10
5.04042e-10
5.04005e-10
6.14007e-10
1.98808e-09
7.51383e-11
1.03515e-13
2.16227e-12
2.27573e-40
3.66264e-37
2.78411e-34
1.31725e-31
4.30301e-29
1.02163e-26
1.81365e-24
2.44577e-22
2.5226e-20
1.9859e-18
1.18184e-16
5.19509e-15
1.62956e-13
3.45315e-12
4.75612e-11
5.82067e-10
1.45668e-08
6.70707e-08
6.36494e-08
-4.60538e-33
1.20453e-31
1.03515e-13
1.1335e-12
1
0.99994
0.999873
0.907061
1
0.999992
1
0.997281
1
1
1
0.999998
0.997543
0.996176
0.997865
0.996079
0.380333
0.419293
0.455741
0.477302
1.1971e-12
1.1971e-12
1.1971e-12
1.1971e-12
4.75051e-10
1.1971e-12
1.4549e-11
3.14764e-10
1.98853e-07
9.07212e-08
1.22229e-12
1.22213e-12
1.56662e-07
3.07569e-06
4.20331e-06
3.81701e-06
9.96404e-08
1.23143e-06
1.94645e-06
1.36494e-06
1.83486e-08
2.6346e-08
1.05458e-07
1.6927e-06
6.0128e-10
2.47414e-09
1.34374e-06
7.30236e-06
7.11401e-11
1.28137e-09
1.25779e-06
5.96512e-06
5.3595e-11
2.19433e-09
3.22581e-07
8.7256e-07
2.41649e-11
7.22529e-10
9.33619e-09
1.41748e-09
8.92693e-12
7.71921e-11
1.59346e-10
6.93915e-11
2.29079e-12
7.37302e-12
2.06749e-11
2.04304e-11
4.55128e-13
8.30139e-13
2.27072e-12
3.74129e-12
7.11299e-14
1.09158e-13
2.36533e-13
4.69797e-13
8.73179e-15
1.34561e-14
2.47368e-14
4.86852e-14
8.37901e-16
1.36788e-15
2.41643e-15
4.62163e-15
6.15998e-17
1.0861e-16
1.99059e-16
3.85449e-16
3.46268e-18
6.69694e-18
1.32734e-17
2.7229e-17
1.65505e-19
3.57815e-19
7.83619e-19
1.74835e-18
3.48379e-20
3.48382e-20
6.17395e-20
1.35787e-19
2.3765e-17
1.25558e-17
5.38915e-18
1.14783e-18
2.53629e-15
2.13175e-15
1.66198e-15
1.09499e-15
7.87922e-14
7.74937e-14
8.13663e-14
8.47576e-14
1.1333e-12
1.26364e-12
1.72391e-12
2.41827e-12
8.04256e-12
1.36745e-11
2.85604e-11
5.47687e-11
2.35344e-11
4.70691e-10
1.08066e-09
1.48964e-09
1.46221e-09
6.73801e-08
5.59484e-08
1.88394e-08
1.07959e-06
3.25892e-07
1.24067e-07
3.02432e-08
2.45035e-06
9.33979e-08
8.39351e-08
1.24222e-07
7.72253e-07
1.29282e-08
3.47401e-08
1.4693e-07
2.48059e-09
1.29282e-08
3.27192e-08
2.26194e-08
2.48066e-09
6.635e-09
1.17213e-10
1.66685e-11
3.13932e-10
2.39083e-11
2.6616e-11
9.88982e-11
1.09832e-11
5.38329e-11
1.77924e-10
3.68552e-10
3.33231e-11
9.40002e-11
2.51209e-10
7.41603e-10
1.61684e-11
7.2972e-11
2.82214e-10
1.00948e-09
9.90768e-12
5.46052e-11
2.2257e-10
3.43275e-10
0.292639
0.0636458
0.06274
0.29917
0.881435
1
0.96398
0.357336
0.0181883
0.00026335
0.000176105
0.000582879
5.26944e-05
5.19597e-10
6.40375e-11
9.54397e-10
2.67223e-16
0.00258307
0.818353
0.90853
0.869682
0.954568
1
1
1
0.656865
0.0534514
0.000208997
7.0965e-09
9.77691e-06
0.000192632
1.53299e-05
6.40375e-11
6.40375e-11
1.16514e-09
2.66648e-16
0.0304245
0.804871
0.999861
0.999954
0.999999
0.999999
1
1
0.312435
0.00321763
7.0965e-09
7.0965e-09
2.11466e-05
0.000101902
6.40375e-11
6.40375e-11
1.3696e-10
1.12548e-09
2.67223e-16
0.0598771
0.813128
0.99969
0.997139
0.996624
0.996725
1
0.960856
0.128201
2.54678e-05
7.0965e-09
5.92244e-06
4.05295e-05
3.91229e-05
6.40375e-11
7.27075e-11
2.23611e-10
6.61214e-10
2.66648e-16
0.0662023
0.817021
0.628092
0.681492
0.737231
0.813362
0.973149
0.862906
0.0839349
2.72233e-16
2.80199e-08
9.51498e-06
3.41543e-05
5.86691e-07
6.40375e-11
3.59129e-10
2.68672e-10
3.60966e-10
2.67223e-16
0.064172
0.820225
1.1971e-12
0.0159665
0.0824023
0.271607
0.786842
0.843678
0.113566
2.72422e-16
4.47359e-07
2.6649e-06
2.65864e-06
3.38295e-08
1.23066e-09
8.40965e-10
2.87468e-10
1.05421e-09
2.66584e-16
0.0658872
0.839191
2.82276e-09
2.82088e-09
0.00056056
0.0432216
0.509144
0.84265
0.130988
2.72229e-16
4.32774e-10
4.11921e-09
1.03781e-09
2.23951e-09
1.57851e-09
6.89141e-10
6.75061e-11
8.98014e-08
2.67102e-16
0.124738
0.896731
5.66406e-07
4.85279e-06
4.85239e-06
0.00387305
0.182108
0.684166
0.342084
2.72422e-16
2.7231e-10
3.96869e-10
3.78757e-10
4.10257e-10
6.29211e-10
2.91845e-08
6.75061e-11
6.01331e-07
2.66562e-16
0.342611
0.951939
3.04279e-06
7.87688e-05
0.000289843
0.000298249
0.0247058
0.415669
0.584629
0.208445
2.72317e-10
2.72307e-10
2.72782e-10
2.72797e-10
3.43277e-05
1.21445e-05
6.75061e-11
2.87614e-06
2.67101e-16
0.583569
0.977861
1.36211e-06
0.00015362
0.00589147
0.0100889
0.0100881
0.148473
0.583356
0.619216
0.143253
2.72782e-10
0.00101009
0.0104781
0.0505555
0.00692439
0.00280081
0.00735571
0.170772
0.768947
0.977861
5.03267e-06
2.29179e-05
0.0159686
0.156679
0.213652
0.181762
0.431368
0.62968
0.594425
0.388934
0.391521
0.516486
0.540929
0.541049
0.44504
0.470135
0.686881
0.785526
0.942372
1.20618e-05
1.28155e-05
0.00721042
0.267365
0.472334
0.472331
0.457555
0.509517
0.704642
0.706409
0.653994
0.449433
0.264378
0.271267
0.375438
0.305325
0.262688
0.262595
0.815985
6.42134e-06
6.49396e-06
0.00158217
0.0199547
0.205759
0.463027
0.627459
0.706539
0.706409
0.706539
0.706409
0.354323
0.272821
0.189647
0.189651
0.259087
0.335165
0.573863
0.956783
6.13653e-08
7.90195e-07
3.84079e-10
3.84079e-10
3.84079e-10
3.84079e-10
0.00415716
0.26302
0.449614
0.516166
0.604869
0.807531
0.807682
0.736827
0.818814
0.930019
0.965696
0.931429
0.983532
2.25459e-11
3.55082e-08
3.03641e-08
1.69058e-05
1.67146e-05
1.14972e-06
3.84079e-10
3.84079e-10
3.84079e-10
3.84079e-10
3.84079e-10
0.169053
0.408623
0.641844
0.821418
0.982921
0.989945
0.989945
0.979562
2.2546e-11
3.71953e-10
3.65624e-11
7.83136e-06
1.56853e-05
1.44032e-05
3.84079e-10
5.94923e-07
1.17327e-06
1.47605e-06
3.84079e-10
3.84079e-10
3.84079e-10
3.84079e-10
0.0896575
0.518076
0.989945
0.987781
0.967625
1.39844e-11
5.58911e-11
3.66814e-11
5.789e-09
3.89107e-06
3.79166e-05
3.74706e-05
1.36255e-05
1.16213e-05
7.1738e-06
7.92152e-07
9.37174e-08
2.08661e-06
6.98605e-06
6.98581e-06
0.088456
0.820675
0.97819
0.972296
3.63098e-12
2.61505e-11
4.68637e-11
2.93452e-10
8.2209e-11
1.64334e-05
4.21158e-05
4.21158e-05
3.8182e-05
5.51928e-06
2.98115e-06
2.81299e-07
3.36227e-06
1.39872e-05
0.000435047
0.00358921
0.401473
0.978232
0.978238
6.60578e-13
7.35538e-12
3.66726e-11
1.07791e-10
8.22081e-11
6.50131e-11
1.20417e-05
3.44955e-05
2.14717e-05
1.61328e-06
2.89894e-09
8.43943e-08
2.84943e-06
2.96982e-06
3.62893e-06
0.00397928
0.121989
0.693708
0.910166
9.63416e-14
1.3735e-12
1.64448e-11
6.30704e-11
6.5015e-11
6.50128e-11
2.32411e-07
2.3378e-06
6.57507e-07
5.33246e-08
2.89885e-09
2.49274e-10
2.49697e-10
3.93113e-08
3.01861e-05
0.000881547
0.00570673
0.106154
0.309995
1.17725e-14
1.92476e-13
3.57954e-12
1.95416e-11
4.91229e-11
8.45486e-11
5.68947e-10
5.43631e-10
3.17091e-10
7.33789e-11
1.20764e-10
3.09742e-10
2.5862e-10
2.95099e-06
5.1341e-05
2.18598e-05
3.76414e-06
3.76538e-06
0.0852552
1.2817e-15
2.22226e-14
5.68267e-13
4.45607e-12
2.22257e-11
7.27892e-11
7.25029e-11
5.09604e-11
5.09602e-11
7.33797e-11
1.72502e-10
4.11132e-10
5.14411e-10
1.28017e-06
9.4291e-06
3.74545e-06
3.75946e-06
0.00594976
0.0985034
1.70506e-16
2.93477e-15
7.68566e-14
8.30546e-13
5.67799e-12
2.8753e-11
3.74871e-11
4.18106e-11
5.36376e-11
9.51809e-11
2.88241e-10
5.17578e-10
4.64385e-10
1.66806e-07
2.88631e-06
3.744e-06
6.20112e-06
0.00280162
0.125488
3.65e-17
8.19803e-16
1.31506e-14
1.57026e-13
1.2719e-12
6.19832e-12
1.38201e-11
2.67361e-11
5.29948e-11
1.39265e-10
4.20317e-10
5.19729e-10
4.64392e-10
7.5369e-07
5.65364e-05
0.0010292
0.00200271
0.0202422
0.0764154
8.1223e-18
2.91204e-16
3.67591e-15
4.00567e-14
3.43722e-13
1.86588e-12
6.48663e-12
1.85186e-11
5.12451e-11
1.88957e-10
4.25559e-10
3.6007e-10
9.64531e-10
6.3348e-07
0.000479262
0.0242094
0.0859108
0.196162
0.0659899
1.98062e-18
7.89669e-17
1.05819e-15
1.15668e-14
1.08287e-13
7.19318e-13
3.57321e-12
1.38491e-11
4.81088e-11
1.80997e-10
4.11617e-10
4.11616e-11
5.24863e-09
5.57221e-07
0.000729041
0.0442336
0.234905
0.234905
0.111963
3.01821e-16
1.1516e-16
5.05839e-16
4.06841e-15
3.74995e-14
2.99834e-13
1.94901e-12
9.86073e-12
4.2657e-11
1.76171e-10
3.3988e-10
4.12746e-11
1.37139e-08
4.81105e-07
0.000952711
0.036503
0.140216
0.234905
0.234905
8.51239e-14
2.53853e-14
6.13671e-15
5.8722e-15
1.9982e-14
1.35401e-13
1.03422e-12
6.6598e-12
3.53978e-11
1.6674e-10
2.11131e-10
4.11616e-11
3.7994e-08
4.50095e-07
0.00130954
0.00321581
8.44113e-07
0.10457
0.234905
3.77793e-12
3.02756e-12
8.67608e-13
2.17847e-13
9.58818e-14
1.50185e-13
6.59815e-13
3.90371e-12
2.70803e-11
1.32229e-10
8.04857e-11
4.26597e-11
4.36817e-08
3.2916e-10
0.00106928
2.39677e-09
8.43665e-07
-4.9465e-21
0.210476
5.26251e-11
9.24286e-11
4.65436e-11
1.33699e-11
4.20658e-12
1.53676e-12
1.42653e-12
3.60296e-12
2.11467e-11
8.51356e-11
3.40363e-11
5.02844e-09
4.22655e-08
3.28948e-10
0.000618989
4.36015e-09
4.18507e-06
-2.46023e-26
0.418617
3.82844e-10
1.45197e-09
1.0034e-09
2.78659e-10
1.11931e-10
3.31774e-11
6.99698e-12
4.48572e-12
1.44095e-11
4.28382e-11
3.40706e-11
1.56854e-08
1.83528e-08
3.2916e-10
0.000333891
4.30762e-06
2.09307e-06
3.4472e-26
0.418624
1.22591e-09
4.04891e-09
8.14374e-08
1.78945e-08
1.71182e-09
2.84691e-10
1.74752e-10
8.87771e-11
3.33373e-11
3.3732e-11
3.55087e-11
1.61786e-08
8.38303e-09
3.28948e-10
0.000240847
1.31968e-05
-8.8038e-25
-3.49348e-28
0.41854
2.46847e-08
5.13527e-09
6.86108e-07
6.08732e-07
3.06933e-10
3.0692e-10
4.0165e-10
4.21201e-10
2.80772e-10
8.41093e-11
3.55091e-11
1.09713e-08
4.5579e-09
3.2916e-10
0.000115132
1.50004e-05
2.9038e-07
-3.30347e-27
0.418487
1.37377e-07
5.1338e-09
1.44841e-07
1.44476e-05
1.42141e-05
2.55181e-10
2.55258e-10
2.55249e-10
1.81742e-10
9.34217e-11
7.84992e-11
2.37614e-09
1.55137e-09
3.28948e-10
1.46113e-05
3.9475e-06
3.42845e-07
3.61288e-27
0.354216
1.46928e-07
6.6734e-08
1.08398e-08
7.48174e-05
0.000184327
0.000107793
8.90949e-07
2.55258e-10
1.09615e-09
1.04599e-09
3.76906e-10
6.93484e-10
5.64928e-10
3.2916e-10
3.67824e-08
1.00139e-06
2.13192e-07
1.53394e-26
0.188315
4.20139e-08
1.61182e-07
1.08353e-08
0.000151799
0.000184327
0.000184327
6.43723e-05
1.68424e-06
4.86639e-09
8.23865e-10
3.73473e-10
3.73476e-10
3.29254e-10
3.28948e-10
7.49804e-07
2.0835e-06
6.32342e-07
2.89777e-26
0.147795
1.66643e-11
1.33701e-07
6.98236e-07
6.40039e-05
0.000184327
0.000184327
0.000164618
1.22687e-05
3.15918e-09
8.12795e-10
1.05572e-09
6.27738e-10
3.28948e-10
2.8068e-07
1.37702e-05
7.14177e-06
8.29489e-07
-7.71208e-26
0.144053
2.04029e-10
2.56798e-09
1.38453e-06
4.4231e-05
0.000184327
0.000141761
8.67377e-05
5.25102e-06
2.74645e-09
8.12826e-10
3.2081e-09
3.17055e-09
3.2916e-10
1.02712e-05
1.54102e-05
8.63938e-06
9.55335e-07
-1.06316e-25
0.125715
9.47464e-10
1.05047e-08
2.92369e-07
3.41996e-05
0.000169745
4.73612e-05
1.42277e-06
6.64081e-07
8.40432e-09
1.15138e-09
4.59694e-09
4.94542e-09
3.28948e-10
1.42996e-05
1.53987e-05
5.62311e-06
1.28225e-06
-1.94945e-25
0.119333
3.23908e-09
2.26338e-08
1.20665e-07
3.51078e-09
1.10899e-05
7.71966e-05
1.33922e-05
2.23318e-08
7.22314e-08
8.44625e-09
3.49478e-09
4.94459e-09
3.2916e-10
4.84433e-06
5.79488e-06
9.139e-06
2.49152e-06
-1.22407e-24
0.105133
5.02918e-09
9.83059e-09
3.94487e-27
3.51021e-09
5.73251e-06
5.3852e-05
3.55968e-05
2.23338e-08
1.07143e-07
2.5077e-09
2.48496e-09
2.48527e-09
7.73862e-10
7.20133e-09
9.59989e-08
9.67941e-06
3.00601e-06
-2.26834e-25
0.0312676
2.264e-10
-4.32589e-29
-6.08616e-28
-2.53854e-27
-3.6115e-52
1.54368e-25
9.81748e-06
1.82147e-07
6.71975e-08
1.55489e-07
6.55651e-08
2.04159e-08
1.28557e-09
8.18024e-10
6.9511e-06
9.67941e-06
8.08015e-07
-8.54712e-25
0.00238351
)
;

boundaryField
{
    leftWall
    {
        type            zeroGradient;
    }
    rightWall
    {
        type            zeroGradient;
    }
    lowerWall
    {
        type            zeroGradient;
    }
    atmosphere
    {
        type            inletOutlet;
        inletValue      uniform 0;
        value           nonuniform List<scalar> 
46
(
0
0
0
0
4.30301e-29
1.02163e-26
1.81365e-24
2.44577e-22
2.5226e-20
1.9859e-18
1.18184e-16
5.19509e-15
1.62956e-13
3.45315e-12
4.75612e-11
5.82067e-10
1.45668e-08
6.70707e-08
6.36494e-08
0
0
0
0
0
0
0
0
0
0
0
0
0
0
0
1.82147e-07
6.71975e-08
1.55489e-07
6.55651e-08
2.04159e-08
1.28557e-09
8.18024e-10
6.9511e-06
9.67941e-06
0
0
0.00238351
)
;
    }
    defaultFaces
    {
        type            empty;
    }
}


// ************************************************************************* //
