/*--------------------------------*- C++ -*----------------------------------*\
| =========                 |                                                 |
| \\      /  F ield         | OpenFOAM: The Open Source CFD Toolbox           |
|  \\    /   O peration     | Version:  2012                                  |
|   \\  /    A nd           | Website:  www.openfoam.com                      |
|    \\/     M anipulation  |                                                 |
\*---------------------------------------------------------------------------*/
FoamFile
{
    version     2.0;
    format      ascii;
    class       volScalarField;
    location    "0.005";
    object      maxKappa;
}
// * * * * * * * * * * * * * * * * * * * * * * * * * * * * * * * * * * * * * //

dimensions      [0 0 0 0 0 0 0];


internalField   nonuniform List<scalar> 
200
(
0.3220416884
0.3220416884
0.3220416884
0.3220416884
0.3220416884
0.3220416884
0.3220416884
0.3220416884
0.3220416884
0.3220416884
0.3220416884
0.3220416884
0.3220416884
0.3220416884
0.3220416884
0.3220416884
0.3220416884
0.3220416884
0.3220416884
0.3220416884
0.3220416884
0.3220416884
0.3220416884
0.3220416884
0.3220416884
0.3220416884
0.3220416884
0.3220416884
0.3220416884
0.3220416884
0.3220416884
0.3220416884
0.3220416884
0.3220416884
0.3220416884
0.3220416884
0.3220416884
0.3220416884
0.3220416884
0.3220416884
0.3220416884
0.3220416884
0.3220416884
0.3220416884
0.3220416884
0.3220416884
0.3220416884
0.3220416884
0.3220416884
0.3220416884
0.3220416884
0.3220416884
0.3220416884
0.3220416884
0.3220416884
0.3220416884
0.3220416884
0.3220416884
0.3220416884
0.3220416884
0.3220416884
0.3220416884
0.3220416884
0.3220416884
0.3220416884
0.3220416884
0.3220416884
0.3220416884
0.3220416884
0.3220416884
0.3220416884
0.3220416884
0.3220416884
0.3220416884
0.3220416884
0.3220416884
0.3220416884
0.3220416884
0.3220416884
0.3220416884
0.3220416884
0.3220416884
0.3220416884
0.3220416884
0.3220416884
0.3220416884
0.3220416884
0.3220416884
0.3220416884
0.3220416884
0.3220416884
0.3220416884
0.3220416884
0.3220416884
0.3220416884
0.3220416884
0.3220416884
0.3220416884
0.3220416884
0.3222067629
0.3249833208
0.3402463103
0.3697656788
0.3835351212
0.3846699772
0.3846699772
0.377734435
0.360964708
0.3300810494
0.2814857007
0.2148101812
0.144307826
0.09032902331
0.05663542144
0.03722729968
0.02764209893
0.0232417865
0.02133568735
0.02055283032
0.02024696587
0.02013285434
0.02009205181
0.02007802303
0.02007337192
0.02007188129
0.02007141848
0.020071279
0.02007123813
0.02007122647
0.02007122322
0.02007122234
0.02007122211
0.02007122204
0.02007122203
0.02007122202
0.02007122202
0.02007122202
0.02007122202
0.02007122202
0.02007122202
0.02007122202
0.02007122202
0.02007122202
0.02007122202
0.02007122202
0.02007122202
0.02007122202
0.02007122202
0.02007122202
0.02007122202
0.02007122202
0.02007122202
0.02007122202
0.02007122202
0.02007122202
0.02007122202
0.02007122202
0.02007122202
0.02007122202
0.02007122202
0.02007122202
0.02007122202
0.02007122202
0.02007122202
0.02007122202
0.02007122202
0.02007122202
0.02007122202
0.02007122202
0.02007122202
0.02007122202
0.02007122202
0.02007122202
0.02007122202
0.02007122202
0.02007122202
0.02007122202
0.02007122202
0.02007122202
0.02007122202
0.02007122202
0.02007122202
0.02007122202
0.02007122202
0.02007122202
0.02007122202
0.02007122202
0.02007122202
0.02007122202
0.02007122202
0.02007122202
0.02007122202
0.02007122202
0.02007122202
0.02007122202
0.02007122202
0.02007122202
0.02007122202
0.02007122202
0.02007122202
)
;

boundaryField
{
    sides
    {
        type            calculated;
        value           uniform 0;
    }
    empty1
    {
        type            empty;
    }
    empty2
    {
        type            empty;
    }
}


// ************************************************************************* //
