/*--------------------------------*- C++ -*----------------------------------*\
| =========                 |                                                 |
| \\      /  F ield         | OpenFOAM: The Open Source CFD Toolbox           |
|  \\    /   O peration     | Version:  2012                                  |
|   \\  /    A nd           | Website:  www.openfoam.com                      |
|    \\/     M anipulation  |                                                 |
\*---------------------------------------------------------------------------*/
FoamFile
{
    version     2.0;
    format      ascii;
    class       volScalarField;
    location    "0.005";
    object      volumeFraction1;
}
// * * * * * * * * * * * * * * * * * * * * * * * * * * * * * * * * * * * * * //

dimensions      [0 0 0 0 0 0 0];


internalField   nonuniform List<scalar> 
200
(
5.58146924e-115
5.574109415e-115
5.587602427e-115
5.194873995e-115
8.426075619e-115
-2.581608308e-114
3.171206074e-113
-3.150562603e-112
3.1863871e-111
-3.217543727e-110
3.249435927e-109
-3.281609167e-108
3.314103689e-107
-3.346919769e-106
3.380060807e-105
-3.413530004e-104
3.447330612e-103
-3.481465913e-102
3.515939219e-101
-3.550753878e-100
3.58591327e-99
-3.621420809e-98
3.657279941e-97
-3.69349415e-96
3.730066949e-95
-3.76700189e-94
3.80430256e-93
-3.841972579e-92
3.880015604e-91
-3.91843533e-90
3.957235486e-89
-3.99641984e-88
4.035992194e-87
-4.075956393e-86
4.116316315e-85
-4.157075879e-84
4.198239042e-83
-4.239809801e-82
4.281792191e-81
-4.324190289e-80
4.367008211e-79
-4.410250114e-78
4.453920196e-77
-4.498022697e-76
4.542561899e-75
-4.587542126e-74
4.632967745e-73
-4.678843166e-72
4.725172844e-71
-4.771961275e-70
4.819213004e-69
-4.866932617e-68
4.915124747e-67
-4.963794073e-66
5.01294532e-65
-5.062583261e-64
5.112712714e-63
-5.163338547e-62
5.214465674e-61
-5.266099059e-60
5.318243716e-59
-5.370904707e-58
5.424087144e-57
-5.477796191e-56
5.532037062e-55
-5.586815024e-54
5.642135395e-53
-5.698003545e-52
5.754424899e-51
-5.811404935e-50
5.868949184e-49
-5.927063233e-48
5.985752725e-47
-6.045023357e-46
6.104880884e-45
-6.165331118e-44
6.226379927e-43
-6.288033238e-42
6.350297037e-41
-6.41317737e-40
6.47668034e-39
-6.540812114e-38
6.605578917e-37
-6.670987038e-36
6.737042827e-35
-6.803752698e-34
6.871123126e-33
-6.939160653e-32
7.007871884e-31
-7.077263491e-30
7.14734221e-29
-7.218114845e-28
7.289588267e-27
-7.361769415e-26
7.434665298e-25
-7.508282992e-24
7.582629645e-23
-7.657712475e-22
7.733538771e-21
-7.021653982e-19
2.275637997e-06
3.745321228e-05
0.0003059245536
0.001652389691
0.006634559209
0.02110602888
0.05537280408
0.123144158
0.2369445272
0.4002142156
0.6013578241
0.774047448
0.8818320178
0.9424490847
0.9737092445
0.9886661526
0.995365473
0.998194496
0.9993273192
0.9997595203
0.9999172681
0.9999725391
0.9999911854
0.9999972582
0.999999172
0.9999997569
0.9999999305
0.9999999806
0.9999999947
0.9999999986
0.9999999996
0.9999999999
1
1
1
1
1
1
1
1
1
1
1
1
1
1
1
1
1
1
1
1
1
1
1
1
1
1
1
1
1
1
1
1
1
1
1
1
1
1
1
1
1
1
1
1
1
1
1
1
1
1
1
1
1
1
1
1
1
1
1
1
1
1
1
1
1
1
1
1
)
;

boundaryField
{
    sides
    {
        type            zeroGradient;
    }
    empty1
    {
        type            empty;
    }
    empty2
    {
        type            empty;
    }
}


// ************************************************************************* //
