/*--------------------------------*- C++ -*----------------------------------*\
| =========                 |                                                 |
| \\      /  F ield         | OpenFOAM: The Open Source CFD Toolbox           |
|  \\    /   O peration     | Version:  2012                                  |
|   \\  /    A nd           | Website:  www.openfoam.com                      |
|    \\/     M anipulation  |                                                 |
\*---------------------------------------------------------------------------*/
FoamFile
{
    version     2.0;
    format      ascii;
    class       volScalarField;
    location    "0.8";
    object      maxKappa;
}
// * * * * * * * * * * * * * * * * * * * * * * * * * * * * * * * * * * * * * //

dimensions      [0 0 0 0 0 0 0];


internalField   nonuniform List<scalar> 
160
(
0.0002081808205
0.0004046815149
0.0005753537174
0.0007777451556
0.0009639149611
0.001154364689
0.001346355237
0.001538760641
0.001732020089
0.001924249844
0.002118538581
0.002310712346
0.002506986268
0.002696153204
0.002899283137
0.003077834165
0.003324161248
0.003438949857
0.00370079708
0.003839160898
0.004072183231
0.0042587294
0.004458656454
0.004652687851
0.004849531899
0.005048239743
0.005245798975
0.005444587677
0.005647411682
0.005849679715
0.006060741563
0.006284273169
0.00648813278
0.006699042654
0.006878661364
0.007074862432
0.007278140497
0.007517389747
0.007653073561
0.007929183575
0.008060909253
0.00831214495
0.008497885272
0.008713942642
0.008916640791
0.009125919404
0.009341873305
0.009550808916
0.009757186103
0.009960934124
0.01016791187
0.01037639714
0.01059399718
0.01077736829
0.01098860286
0.01116891861
0.0113798906
0.01157142473
0.01177063642
0.01197076503
0.01217249239
0.01236801515
0.01257978881
0.01278541856
0.01301383396
0.01325835044
0.01352786813
0.01394188827
0.01448808705
0.01518459434
0.01596359992
0.01649948414
0.01699825951
0.01728493648
0.01751431965
0.01758313822
0.01764270319
0.01764270319
0.01757990042
0.01750225143
0.01735584674
0.01716922058
0.01682401749
0.01644815672
0.0159314476
0.01529391454
0.01448457965
0.01350257674
0.01236865378
0.01092044856
0.009228397023
0.00748942632
0.005980153133
0.004742776714
0.00384490707
0.003198435373
0.00284828185
0.002642761986
0.002581526053
0.002602581394
0.002828963849
0.003222639728
0.003879368466
0.004688409796
0.005740867401
0.007015991667
0.008389930394
0.009631111231
0.01065769661
0.01148060459
0.01210544872
0.01255611613
0.01285369122
0.01303522454
0.01313492653
0.01315435754
0.01315435754
0.01299339164
0.01281781278
0.01239980599
0.01197935168
0.01141626756
0.01088412984
0.01036586482
0.009843825419
0.009460730583
0.009128185856
0.008687386035
0.00831138129
0.007962016396
0.007688795375
0.007385892978
0.007111040624
0.006837845656
0.006589837754
0.006312343528
0.006064289599
0.00578458599
0.005537027805
0.00527592951
0.004972682961
0.004727563046
0.004547666974
0.004241478539
0.003970811331
0.00367008742
0.003446030982
0.003013623964
0.00266434155
0.00266434155
0.00239646445
0.002249766033
0.001911098127
0.001742816546
0.00146049041
0.00116914444
0.0009573564754
0.0007448220338
0.0004896430696
0.0002362656898
)
;

boundaryField
{
    sides
    {
        type            calculated;
        value           uniform 0;
    }
    empty1
    {
        type            empty;
    }
    empty2
    {
        type            empty;
    }
}


// ************************************************************************* //
