/*--------------------------------*- C++ -*----------------------------------*\
| =========                 |                                                 |
| \\      /  F ield         | OpenFOAM: The Open Source CFD Toolbox           |
|  \\    /   O peration     | Version:  2012                                  |
|   \\  /    A nd           | Website:  www.openfoam.com                      |
|    \\/     M anipulation  |                                                 |
\*---------------------------------------------------------------------------*/
FoamFile
{
    version     2.0;
    format      ascii;
    class       volScalarField;
    location    "0.8";
    object      rho1;
}
// * * * * * * * * * * * * * * * * * * * * * * * * * * * * * * * * * * * * * //

dimensions      [1 -3 0 0 0 0 0];


internalField   nonuniform List<scalar> 
160
(
1033.050151
1033.050138
1033.050141
1033.050145
1033.05015
1033.050159
1033.050168
1033.050181
1033.050193
1033.05021
1033.050224
1033.050244
1033.05026
1033.050284
1033.050302
1033.050329
1033.05035
1033.050387
1033.050411
1033.05044
1033.050458
1033.050492
1033.050517
1033.050553
1033.05058
1033.050619
1033.050648
1033.050688
1033.050719
1033.050762
1033.050794
1033.050839
1033.050879
1033.050923
1033.050965
1033.050997
1033.051039
1033.05107
1033.051118
1033.051159
1033.051205
1033.051225
1033.051264
1033.051295
1033.051335
1033.051362
1033.051396
1033.051418
1033.051444
1033.05146
1033.051479
1033.05149
1033.051501
1033.051509
1033.051513
1033.051517
1033.051518
1033.051516
1033.051507
1033.051487
1033.051471
1033.051442
1033.05142
1033.051384
1033.051359
1033.051318
1033.051289
1033.051248
1033.051206
1033.051172
1033.051114
1033.051065
1033.050974
1033.050897
1033.050771
1033.050673
1033.050523
1033.05043
1033.050296
1033.050234
1033.050151
1033.050275
1033.050235
1033.050417
1033.051454
1033.052036
1033.054176
1033.055528
1033.058533
1033.061667
1033.064731
1033.070012
1033.074134
1033.080868
1033.085969
1033.093435
1033.09897
1033.106506
1033.111983
1033.119439
1033.12477
1033.13246
1033.137405
1033.145033
1033.149038
1033.155823
1033.158426
1033.162949
1033.163308
1033.164669
1033.164795
1033.164047
1033.164185
1033.163419
1033.162937
1033.162035
1033.161501
1033.160658
1033.160178
1033.159505
1033.159107
1033.158569
1033.158228
1033.157728
1033.157383
1033.156841
1033.156444
1033.155826
1033.155386
1033.154686
1033.154185
1033.153414
1033.152877
1033.152051
1033.151487
1033.15064
1033.150078
1033.14924
1033.148687
1033.147888
1033.147365
1033.146623
1033.146157
1033.145486
1033.145076
1033.144496
1033.144147
1033.143683
1033.143288
1033.143003
1033.142585
1033.142419
1033.14212
1033.14195
1033.141717
1033.141592
1033.141452
1033.141378
1033.141336
1033.141271
)
;

boundaryField
{
    sides
    {
        type            calculated;
        value           nonuniform List<scalar> 2(1033.141271 1033.050151);
    }
    empty1
    {
        type            empty;
    }
    empty2
    {
        type            empty;
    }
}


// ************************************************************************* //
