/*--------------------------------*- C++ -*----------------------------------*\
| =========                 |                                                 |
| \\      /  F ield         | OpenFOAM: The Open Source CFD Toolbox           |
|  \\    /   O peration     | Version:  2012                                  |
|   \\  /    A nd           | Website:  www.openfoam.com                      |
|    \\/     M anipulation  |                                                 |
\*---------------------------------------------------------------------------*/
FoamFile
{
    version     2.0;
    format      ascii;
    class       volScalarField;
    location    "0.8";
    object      T;
}
// * * * * * * * * * * * * * * * * * * * * * * * * * * * * * * * * * * * * * //

dimensions      [0 0 0 1 0 0 0];


internalField   nonuniform List<scalar> 
160
(
261.1464781
261.1471628
261.1374299
261.1175365
261.0949102
261.0396724
261.0099264
260.9286674
260.8897703
260.7861439
260.7384521
260.6150931
260.5595989
260.4188204
260.3567043
260.1970241
260.125066
259.9356197
259.857845
259.6660859
259.5884598
259.3850029
259.2996231
259.0822414
258.991726
258.7620289
258.6664134
258.4236316
258.3224544
258.0671722
257.9580803
257.6961122
257.529117
257.3392433
257.1071291
256.9979624
256.7533733
256.6481828
256.3937448
256.285019
256.0351819
255.9409384
255.7062064
255.6145271
255.3940913
255.3114744
255.123935
255.0609984
254.9280657
254.8842863
254.7923744
254.764994
254.711833
254.7039396
254.6984283
254.7020264
254.7097157
254.7490286
254.7916702
254.9285127
254.9956946
255.1913904
255.2768047
255.5129831
255.6119599
255.8777245
256.003767
256.229626
256.485761
256.6012371
256.9817948
257.1029376
257.7708976
257.9262061
259.0402895
259.2316517
260.8250929
261.052177
263.103508
263.3631673
265.8119957
266.1008596
268.8624528
269.175677
272.194113
272.5284806
275.7827625
276.1504289
276.8583674
279.7978967
280.2225786
284.3014699
284.7297178
288.9225035
289.3608877
293.6964351
294.1472509
298.641746
299.1056172
303.7644999
304.2413836
309.0574276
309.5455199
314.4934517
314.9891801
320.021974
320.5199065
325.5689025
326.0626294
331.0282069
331.505804
336.2645337
336.7180219
341.1127054
341.5301733
345.3599822
345.7320178
348.8004687
349.1275087
351.3324057
351.6345276
353.2662773
353.5992838
355.115246
355.5280691
357.1188802
357.6346088
359.4337193
360.068634
362.1325543
362.8856364
365.1787145
366.0128111
368.4958462
369.3839355
371.9734475
372.8848363
375.5034591
376.3978519
378.9527035
379.8223834
382.1966645
382.989148
385.1721593
385.877726
387.79439
388.4442724
389.9496089
390.9883098
391.5837616
392.8162058
393.1927309
394.2290088
394.5449466
395.3619313
395.594439
396.0967105
396.2282716
396.3394073
396.3814635
)
;

boundaryField
{
    sides
    {
        type            zeroGradient;
    }
    empty1
    {
        type            empty;
    }
    empty2
    {
        type            empty;
    }
}


// ************************************************************************* //
