/*--------------------------------*- C++ -*----------------------------------*\
| =========                 |                                                 |
| \\      /  F ield         | OpenFOAM: The Open Source CFD Toolbox           |
|  \\    /   O peration     | Version:  2012                                  |
|   \\  /    A nd           | Website:  www.openfoam.com                      |
|    \\/     M anipulation  |                                                 |
\*---------------------------------------------------------------------------*/
FoamFile
{
    version     2.0;
    format      ascii;
    class       volScalarField;
    location    "0.8";
    object      volumeFraction1;
}
// * * * * * * * * * * * * * * * * * * * * * * * * * * * * * * * * * * * * * //

dimensions      [0 0 0 0 0 0 0];


internalField   nonuniform List<scalar> 
160
(
9.746811363e-27
1.475730538e-25
1.474616183e-24
1.127671644e-23
7.136054675e-23
3.841196705e-22
1.799690538e-21
7.508425494e-21
2.846257367e-20
9.908558519e-20
3.20624119e-19
9.711799918e-19
2.776386754e-18
7.526695638e-18
1.948089008e-17
4.833474436e-17
1.16357108e-16
2.718936378e-16
6.260617446e-16
1.419691235e-15
3.175022817e-15
6.810974744e-15
1.362441953e-14
2.500960629e-14
4.496899335e-14
8.528651436e-14
1.639135917e-13
3.013635551e-13
5.586031042e-13
1.034980056e-12
1.941659416e-12
3.692793288e-12
7.115275823e-12
1.385064434e-11
2.7053754e-11
5.261056254e-11
1.010150935e-10
1.910314376e-10
3.527330557e-10
6.367009766e-10
1.117556733e-09
1.911905161e-09
3.176145023e-09
5.135784542e-09
8.075284723e-09
1.236920639e-08
1.845014817e-08
2.689094214e-08
3.836514146e-08
5.367131204e-08
7.406182658e-08
1.012940654e-07
1.378164161e-07
1.864695596e-07
2.51142108e-07
3.390831204e-07
4.630835763e-07
6.494536595e-07
9.432738388e-07
1.403613689e-06
2.105108095e-06
3.160751183e-06
4.765351269e-06
7.261929705e-06
1.116480844e-05
1.754469551e-05
2.85118414e-05
4.857257693e-05
8.656991903e-05
0.0001589901172
0.0002927160299
0.0005229223061
0.000889242203
0.001425686978
0.002165904104
0.003188265945
0.004649936658
0.006911873444
0.01051668907
0.0161756269
0.02464330654
0.03658397006
0.05282386547
0.07459988817
0.1032996059
0.1412135693
0.1896779604
0.2505342496
0.3255084181
0.4183390402
0.5267281741
0.6263616028
0.7100261209
0.7751351584
0.8214512171
0.8510373424
0.8672922512
0.8741952354
0.8757037948
0.873642178
0.8633333311
0.8407184951
0.8038145032
0.7521381668
0.6847043256
0.599698097
0.4960334485
0.3951369665
0.3070955216
0.2335383431
0.1737074817
0.1264666962
0.08956109293
0.06159275002
0.04075540695
0.0259498395
0.01587797423
0.009451477645
0.005510976029
0.003242802819
0.001939706961
0.001220877673
0.0008006430644
0.0005514711474
0.0003854453514
0.0002694567468
0.0001830114056
0.0001191382757
7.288746057e-05
4.21520138e-05
2.278061736e-05
1.170944442e-05
5.681456107e-06
2.67623007e-06
1.208082078e-06
5.361603766e-07
2.297056043e-07
9.797575669e-08
4.055923537e-08
1.663617862e-08
6.652590952e-09
2.589022475e-09
9.652046359e-10
3.576320814e-10
1.40259766e-10
6.692735206e-11
3.78265241e-11
2.024827727e-11
6.899631884e-12
5.260968845e-13
8.846749173e-14
1.674671177e-14
3.106079349e-15
4.942912225e-16
6.561684743e-17
6.505280552e-18
5.306402472e-19
3.395410998e-20
2.231365869e-21
9.074841682e-23
)
;

boundaryField
{
    sides
    {
        type            zeroGradient;
    }
    empty1
    {
        type            empty;
    }
    empty2
    {
        type            empty;
    }
}


// ************************************************************************* //
