/*--------------------------------*- C++ -*----------------------------------*\
| =========                 |                                                 |
| \\      /  F ield         | OpenFOAM: The Open Source CFD Toolbox           |
|  \\    /   O peration     | Version:  3.0.1                                 |
|   \\  /    A nd           | Web:      www.OpenFOAM.org                      |
|    \\/     M anipulation  |                                                 |
\*---------------------------------------------------------------------------*/
FoamFile
{
    version     2.0;
    format      ascii;
    class       volScalarField;
    location    "0.0002";
    object      maxKappa;
}
// * * * * * * * * * * * * * * * * * * * * * * * * * * * * * * * * * * * * * //

dimensions      [0 0 0 0 0 0 0];

internalField   nonuniform List<scalar> 
1000
(
0.495792
0.495792
0.495792
0.495792
0.495793
0.495793
0.495794
0.495795
0.495796
0.495798
0.4958
0.495804
0.495809
0.495816
0.495825
0.495838
0.495855
0.495878
0.495908
0.495949
0.496002
0.496071
0.496162
0.496279
0.496428
0.496615
0.496848
0.497137
0.497489
0.497915
0.498421
0.499021
0.499714
0.500494
0.501355
0.502276
0.50322
0.504215
0.505145
0.506016
0.506703
0.507219
0.507535
0.507586
0.507384
0.507235
0.507288
0.508117
0.508814
0.505732
0.498212
0.491136
0.486941
0.485149
0.484743
0.484643
0.484502
0.484424
0.484397
0.484558
0.484892
0.485401
0.486108
0.486945
0.487894
0.488879
0.489854
0.490774
0.491622
0.492359
0.493006
0.493559
0.494014
0.494399
0.49471
0.494957
0.495152
0.495306
0.495425
0.495517
0.495588
0.495641
0.495681
0.495711
0.495733
0.495749
0.495761
0.49577
0.495776
0.49578
0.495784
0.495786
0.495787
0.495789
0.495789
0.49579
0.49579
0.495791
0.495791
0.495791
0.495792
0.495792
0.495792
0.495792
0.495793
0.495793
0.495794
0.495795
0.495796
0.495798
0.4958
0.495804
0.495809
0.495816
0.495825
0.495838
0.495855
0.495879
0.495911
0.495951
0.496004
0.496076
0.496171
0.496288
0.49644
0.496631
0.496865
0.497151
0.497502
0.497918
0.498421
0.499024
0.499726
0.500515
0.501392
0.502286
0.50322
0.504215
0.505145
0.50604
0.506703
0.507219
0.507542
0.507623
0.507384
0.507235
0.507288
0.508117
0.508814
0.507056
0.501419
0.493017
0.48723
0.485149
0.484743
0.484643
0.484502
0.48443
0.484406
0.484558
0.484892
0.485401
0.486108
0.486945
0.487894
0.488879
0.489854
0.490774
0.49169
0.492377
0.493006
0.493559
0.494014
0.494399
0.49472
0.494958
0.495152
0.495306
0.495425
0.495517
0.495588
0.495641
0.495681
0.495711
0.495733
0.495749
0.495761
0.49577
0.495776
0.49578
0.495784
0.495786
0.495787
0.495789
0.495789
0.49579
0.49579
0.495791
0.495791
0.495791
0.495792
0.495792
0.495792
0.495792
0.495793
0.495793
0.495794
0.495795
0.495796
0.495798
0.495801
0.495804
0.495809
0.495817
0.495827
0.49584
0.495858
0.495881
0.495917
0.495959
0.496014
0.496085
0.496189
0.496309
0.49648
0.496672
0.496905
0.497213
0.497551
0.497954
0.498441
0.499061
0.499787
0.500567
0.50145
0.502339
0.503259
0.504162
0.505149
0.50604
0.506683
0.507186
0.507542
0.50773
0.507624
0.507421
0.507158
0.507619
0.508351
0.507056
0.501419
0.493244
0.487262
0.485161
0.4847
0.484588
0.484505
0.484479
0.484454
0.4846
0.484946
0.485412
0.486117
0.486923
0.487852
0.48884
0.489847
0.490774
0.49169
0.492386
0.492982
0.493505
0.493988
0.494381
0.49472
0.494958
0.49515
0.495305
0.495414
0.495512
0.495581
0.495638
0.495678
0.495709
0.495732
0.495749
0.495761
0.49577
0.495776
0.49578
0.495784
0.495786
0.495787
0.495789
0.495789
0.49579
0.49579
0.495791
0.495791
0.495791
0.495792
0.495792
0.495792
0.495792
0.495793
0.495793
0.495794
0.495795
0.495797
0.495799
0.495801
0.495805
0.495809
0.495817
0.495828
0.495842
0.495859
0.495884
0.495919
0.495965
0.49602
0.496092
0.496196
0.496324
0.496491
0.496685
0.496922
0.497224
0.497551
0.497958
0.498444
0.499073
0.499821
0.500595
0.501472
0.502351
0.503259
0.504144
0.505149
0.506015
0.506694
0.507188
0.507498
0.507764
0.50786
0.507613
0.507069
0.50616
0.505191
0.504909
0.501203
0.493244
0.487262
0.485167
0.484721
0.484588
0.484505
0.484479
0.484488
0.484634
0.484961
0.485412
0.486117
0.486896
0.487791
0.488828
0.489842
0.490757
0.491687
0.49239
0.492886
0.493377
0.493945
0.494344
0.494615
0.494928
0.49514
0.495269
0.49539
0.495503
0.495573
0.495629
0.495674
0.495706
0.495731
0.495747
0.49576
0.49577
0.495775
0.49578
0.495783
0.495785
0.495787
0.495788
0.495789
0.49579
0.49579
0.495791
0.495791
0.495791
0.495792
0.495792
0.495792
0.495792
0.495793
0.495793
0.495794
0.495795
0.495797
0.495799
0.495801
0.495805
0.49581
0.495817
0.495828
0.495842
0.495861
0.495887
0.495921
0.495967
0.496029
0.496098
0.496196
0.496324
0.496491
0.496685
0.496922
0.497224
0.497548
0.497982
0.498513
0.499073
0.499821
0.500618
0.501501
0.502386
0.503214
0.50435
0.505125
0.506015
0.506702
0.507219
0.507514
0.507764
0.50786
0.507613
0.507352
0.506791
0.505517
0.503526
0.49918
0.492402
0.487214
0.485185
0.484721
0.484578
0.484474
0.484474
0.484504
0.484683
0.484963
0.485417
0.486091
0.486879
0.487806
0.488813
0.489724
0.490716
0.491595
0.49239
0.492913
0.493345
0.493901
0.494307
0.49463
0.494908
0.495097
0.495264
0.495396
0.495497
0.495567
0.495625
0.495671
0.495707
0.495731
0.495747
0.49576
0.49577
0.495775
0.495779
0.495783
0.495785
0.495787
0.495788
0.495789
0.49579
0.49579
0.495791
0.495791
0.495791
0.495792
0.495792
0.495792
0.495792
0.495793
0.495793
0.495794
0.495795
0.495796
0.495798
0.495801
0.495805
0.49581
0.495817
0.495828
0.495843
0.495861
0.495887
0.495922
0.495967
0.496029
0.496098
0.496184
0.496306
0.496454
0.49667
0.496918
0.497198
0.497546
0.497995
0.498554
0.499061
0.499693
0.500636
0.501511
0.502465
0.503394
0.50442
0.505263
0.505975
0.506714
0.507219
0.507514
0.507752
0.507832
0.507603
0.507513
0.507354
0.506462
0.504376
0.499372
0.492283
0.487149
0.485185
0.484766
0.48466
0.484523
0.484442
0.484504
0.484686
0.484991
0.485418
0.486117
0.486891
0.487806
0.488607
0.489698
0.490688
0.491539
0.492373
0.492913
0.493442
0.493891
0.494301
0.49463
0.494898
0.4951
0.495266
0.495396
0.495489
0.495561
0.49563
0.495676
0.49571
0.495731
0.495747
0.49576
0.495769
0.495774
0.495779
0.495783
0.495785
0.495787
0.495788
0.495789
0.49579
0.49579
0.495791
0.495791
0.495791
0.495792
0.495792
0.495792
0.495792
0.495793
0.495793
0.495794
0.495795
0.495796
0.495798
0.495801
0.495805
0.49581
0.495817
0.495828
0.495843
0.495861
0.495887
0.495922
0.495964
0.496029
0.496091
0.496162
0.496299
0.496467
0.496657
0.496885
0.497177
0.497531
0.497995
0.498554
0.499161
0.499878
0.500663
0.501511
0.502485
0.503459
0.504436
0.505346
0.5061
0.506742
0.507181
0.507476
0.507679
0.50767
0.507543
0.507513
0.507354
0.507122
0.505435
0.500546
0.492303
0.486768
0.485042
0.484794
0.484689
0.484533
0.484497
0.484535
0.484686
0.484991
0.485418
0.486117
0.486947
0.487777
0.488586
0.489638
0.490607
0.491473
0.492164
0.492879
0.493442
0.493891
0.494301
0.49463
0.494887
0.4951
0.495268
0.495399
0.495494
0.49557
0.495632
0.495679
0.49571
0.495731
0.495747
0.495759
0.495768
0.495774
0.495779
0.495783
0.495785
0.495787
0.495788
0.495789
0.49579
0.49579
0.495791
0.495791
0.495791
0.495792
0.495792
0.495792
0.495792
0.495793
0.495793
0.495794
0.495795
0.495796
0.495798
0.495801
0.495804
0.495809
0.495817
0.495828
0.495842
0.49586
0.495885
0.495919
0.495959
0.49602
0.496083
0.496166
0.496295
0.496467
0.496647
0.496881
0.497169
0.497505
0.497982
0.498522
0.499166
0.499894
0.500734
0.501628
0.502522
0.503516
0.504475
0.505428
0.506247
0.506805
0.507199
0.507443
0.507629
0.50747
0.507299
0.507363
0.507332
0.5078
0.506755
0.500917
0.492303
0.48659
0.485044
0.484794
0.484689
0.484533
0.484497
0.484554
0.48477
0.485008
0.485413
0.486116
0.486947
0.48779
0.488718
0.489608
0.490549
0.491329
0.492092
0.492842
0.493442
0.493891
0.494297
0.494615
0.494842
0.495087
0.495268
0.495399
0.495496
0.495573
0.495633
0.495679
0.495709
0.49573
0.495747
0.495759
0.495768
0.495775
0.49578
0.495783
0.495786
0.495787
0.495788
0.495789
0.49579
0.49579
0.495791
0.495791
0.495791
0.495792
0.495792
0.495792
0.495792
0.495793
0.495793
0.495794
0.495795
0.495796
0.495798
0.4958
0.495804
0.495809
0.495817
0.495827
0.49584
0.495858
0.495881
0.495914
0.495955
0.496008
0.496077
0.496168
0.496286
0.496449
0.496639
0.496888
0.497177
0.497533
0.497991
0.498536
0.499179
0.49991
0.500755
0.501628
0.502581
0.50358
0.504558
0.505494
0.506247
0.506805
0.507199
0.507444
0.507662
0.507431
0.507234
0.507032
0.507453
0.508055
0.506755
0.500917
0.492294
0.486697
0.485123
0.48486
0.484739
0.484522
0.484484
0.484554
0.484799
0.485066
0.485378
0.486072
0.486941
0.487796
0.488718
0.489582
0.490479
0.491305
0.492078
0.49281
0.493394
0.493838
0.49427
0.494599
0.494848
0.495074
0.495258
0.495396
0.495496
0.495573
0.495633
0.495678
0.495709
0.49573
0.495747
0.495759
0.495768
0.495775
0.49578
0.495783
0.495786
0.495787
0.495788
0.495789
0.49579
0.49579
0.495791
0.495791
0.495791
0.495792
0.495792
0.495792
0.495792
0.495793
0.495793
0.495794
0.495795
0.495796
0.495798
0.4958
0.495804
0.495809
0.495817
0.495826
0.495839
0.495857
0.495881
0.495912
0.495954
0.496008
0.496077
0.496168
0.496286
0.496448
0.496639
0.496888
0.497177
0.497533
0.497991
0.498536
0.499179
0.49991
0.500755
0.501628
0.502581
0.50358
0.504558
0.505494
0.506231
0.506744
0.507126
0.507444
0.507662
0.507431
0.507234
0.507032
0.507453
0.508055
0.505954
0.499449
0.491502
0.486697
0.485123
0.48486
0.484739
0.484522
0.484484
0.484554
0.484799
0.485066
0.485378
0.486072
0.486941
0.487796
0.488709
0.489582
0.490457
0.491305
0.492078
0.492781
0.493348
0.493803
0.494233
0.494581
0.494848
0.495074
0.495251
0.49539
0.495493
0.495571
0.495631
0.495675
0.495706
0.49573
0.495747
0.495759
0.495768
0.495775
0.49578
0.495783
0.495786
0.495787
0.495788
0.495789
0.49579
0.49579
0.495791
0.495791
0.495791
)
;

boundaryField
{
    sides1
    {
        type            calculated;
        value           uniform 0;
    }
    sides2
    {
        type            calculated;
        value           uniform 0;
    }
    empty
    {
        type            empty;
    }
}


// ************************************************************************* //
