/*--------------------------------*- C++ -*----------------------------------*\
| =========                 |                                                 |
| \\      /  F ield         | OpenFOAM: The Open Source CFD Toolbox           |
|  \\    /   O peration     | Version:  3.0.1                                 |
|   \\  /    A nd           | Web:      www.OpenFOAM.org                      |
|    \\/     M anipulation  |                                                 |
\*---------------------------------------------------------------------------*/
FoamFile
{
    version     2.0;
    format      ascii;
    class       volScalarField;
    location    "0.0002";
    object      minKappa;
}
// * * * * * * * * * * * * * * * * * * * * * * * * * * * * * * * * * * * * * //

dimensions      [0 0 0 0 0 0 0];

internalField   nonuniform List<scalar> 
1000
(
0.128114
0.128114
0.128114
0.128114
0.128114
0.128114
0.128114
0.128115
0.128115
0.128115
0.128116
0.128117
0.128118
0.128119
0.128121
0.128124
0.128128
0.128133
0.12814
0.128149
0.12816
0.128176
0.128196
0.128223
0.128257
0.1283
0.128353
0.12842
0.128502
0.128602
0.128722
0.128865
0.129031
0.129222
0.129435
0.129667
0.129912
0.130165
0.130415
0.130652
0.130854
0.13101
0.131118
0.131128
0.131092
0.131092
0.131092
0.131144
0.131249
0.129687
0.127594
0.126151
0.125451
0.12528
0.125241
0.125215
0.125182
0.12517
0.12517
0.12517
0.125241
0.125357
0.125517
0.125721
0.125951
0.126204
0.126457
0.126703
0.126932
0.127138
0.127316
0.127471
0.127601
0.127709
0.127799
0.12787
0.127926
0.127971
0.128006
0.128033
0.128053
0.128069
0.128081
0.12809
0.128096
0.128101
0.128105
0.128107
0.128109
0.128111
0.128112
0.128112
0.128113
0.128113
0.128113
0.128113
0.128114
0.128114
0.128114
0.128114
0.128114
0.128114
0.128114
0.128114
0.128114
0.128114
0.128114
0.128115
0.128115
0.128115
0.128116
0.128117
0.128118
0.128119
0.128121
0.128124
0.128128
0.128133
0.12814
0.128149
0.128161
0.128176
0.128197
0.128224
0.128258
0.128302
0.128356
0.128423
0.128504
0.128604
0.128722
0.128864
0.129032
0.129225
0.129439
0.129672
0.129909
0.130158
0.130413
0.130649
0.130859
0.131008
0.131118
0.131132
0.131074
0.131068
0.131068
0.131068
0.131399
0.130311
0.128085
0.126252
0.125453
0.125275
0.125234
0.125209
0.125182
0.125171
0.125171
0.125171
0.125239
0.12535
0.125505
0.12571
0.125939
0.126192
0.126452
0.1267
0.126935
0.127145
0.127317
0.127469
0.127598
0.127707
0.127798
0.127871
0.127926
0.127971
0.128005
0.128032
0.128053
0.128069
0.128081
0.12809
0.128096
0.128101
0.128105
0.128107
0.128109
0.128111
0.128112
0.128112
0.128113
0.128113
0.128113
0.128113
0.128114
0.128114
0.128114
0.128114
0.128114
0.128114
0.128114
0.128114
0.128114
0.128114
0.128114
0.128115
0.128115
0.128115
0.128116
0.128117
0.128118
0.128119
0.128121
0.128124
0.128128
0.128133
0.128141
0.12815
0.128162
0.128178
0.1282
0.128227
0.128263
0.12831
0.128364
0.128432
0.128516
0.128614
0.128729
0.128868
0.12904
0.129236
0.12945
0.129686
0.129922
0.130152
0.130397
0.130654
0.130855
0.131001
0.131111
0.131171
0.131124
0.131043
0.131043
0.131043
0.131057
0.130451
0.128431
0.126336
0.125465
0.125269
0.125225
0.125205
0.125189
0.12518
0.12518
0.12518
0.125246
0.125359
0.12551
0.125709
0.125932
0.126182
0.126446
0.126703
0.126945
0.127153
0.127311
0.127445
0.127577
0.127696
0.127794
0.127871
0.127924
0.127969
0.128001
0.128028
0.12805
0.128067
0.128079
0.128089
0.128096
0.128101
0.128105
0.128107
0.128109
0.12811
0.128111
0.128112
0.128113
0.128113
0.128113
0.128113
0.128114
0.128114
0.128114
0.128114
0.128114
0.128114
0.128114
0.128114
0.128114
0.128114
0.128114
0.128115
0.128115
0.128115
0.128116
0.128117
0.128118
0.128119
0.128122
0.128125
0.128129
0.128134
0.128141
0.128152
0.128164
0.128179
0.128202
0.128233
0.128273
0.128319
0.12837
0.128439
0.128524
0.128617
0.128728
0.12887
0.129051
0.129247
0.129459
0.129692
0.129924
0.130152
0.130393
0.130651
0.130854
0.131004
0.131103
0.131175
0.131196
0.131111
0.130914
0.130661
0.130424
0.129996
0.128232
0.126298
0.125462
0.125274
0.12523
0.125201
0.1252
0.125189
0.125189
0.125189
0.125253
0.125361
0.125503
0.125706
0.125921
0.126171
0.126446
0.12669
0.126926
0.127149
0.1273
0.127419
0.127553
0.127693
0.127772
0.127848
0.12792
0.127961
0.127995
0.128025
0.128049
0.128065
0.128078
0.128088
0.128096
0.128101
0.128104
0.128107
0.128109
0.12811
0.128111
0.128112
0.128113
0.128113
0.128113
0.128113
0.128114
0.128114
0.128114
0.128114
0.128114
0.128114
0.128114
0.128114
0.128114
0.128114
0.128114
0.128115
0.128115
0.128115
0.128116
0.128117
0.128118
0.128119
0.128122
0.128125
0.128129
0.128135
0.128142
0.128152
0.128166
0.128182
0.128204
0.128232
0.128268
0.128315
0.128372
0.12844
0.128519
0.128616
0.128738
0.128877
0.129046
0.129251
0.129465
0.129699
0.12991
0.130154
0.130412
0.130639
0.130858
0.131007
0.131109
0.131181
0.131213
0.131133
0.131007
0.130775
0.130404
0.129679
0.127985
0.126266
0.125484
0.125279
0.125225
0.125193
0.125186
0.125186
0.125186
0.125207
0.125265
0.125362
0.125503
0.125701
0.125921
0.126173
0.126418
0.126668
0.126914
0.127131
0.127311
0.12742
0.127544
0.127683
0.127775
0.127852
0.127911
0.127958
0.127997
0.128027
0.128047
0.128064
0.128078
0.128088
0.128096
0.128101
0.128104
0.128107
0.128109
0.12811
0.128111
0.128112
0.128113
0.128113
0.128113
0.128113
0.128114
0.128114
0.128114
0.128114
0.128114
0.128114
0.128114
0.128114
0.128114
0.128114
0.128114
0.128115
0.128115
0.128115
0.128116
0.128117
0.128118
0.128119
0.128122
0.128125
0.128129
0.128135
0.128143
0.128152
0.128166
0.128183
0.128201
0.128226
0.128262
0.128308
0.128368
0.128434
0.128515
0.128619
0.128748
0.128887
0.129024
0.12922
0.129483
0.129718
0.129939
0.13019
0.130448
0.130649
0.130842
0.131013
0.131107
0.131171
0.131173
0.131143
0.13112
0.13096
0.130584
0.129752
0.127986
0.126212
0.125446
0.125278
0.125237
0.125208
0.125181
0.125181
0.125181
0.125209
0.125278
0.125368
0.125503
0.125704
0.125921
0.126136
0.126374
0.126671
0.126904
0.127119
0.127297
0.127434
0.127562
0.12768
0.127776
0.127852
0.127911
0.127959
0.127997
0.128025
0.128045
0.128063
0.128078
0.128089
0.128096
0.128101
0.128104
0.128107
0.128109
0.12811
0.128111
0.128112
0.128113
0.128113
0.128113
0.128113
0.128114
0.128114
0.128114
0.128114
0.128114
0.128114
0.128114
0.128114
0.128114
0.128114
0.128114
0.128115
0.128115
0.128115
0.128116
0.128117
0.128118
0.128119
0.128122
0.128125
0.128129
0.128134
0.128142
0.128151
0.128164
0.128182
0.128197
0.128222
0.128264
0.12831
0.128363
0.128429
0.128509
0.128613
0.128749
0.128899
0.12907
0.129263
0.129474
0.12971
0.129963
0.130215
0.130467
0.130674
0.130855
0.13101
0.1311
0.13116
0.131142
0.131142
0.131136
0.131086
0.130837
0.130006
0.128059
0.126092
0.125392
0.125281
0.125254
0.125217
0.125195
0.125195
0.125195
0.125208
0.125272
0.125364
0.125501
0.125711
0.12593
0.126135
0.12637
0.126649
0.126883
0.127074
0.12726
0.127444
0.127572
0.127678
0.127776
0.127848
0.127909
0.12796
0.127998
0.128026
0.128047
0.128065
0.12808
0.12809
0.128096
0.1281
0.128104
0.128107
0.128109
0.12811
0.128111
0.128112
0.128113
0.128113
0.128113
0.128113
0.128114
0.128114
0.128114
0.128114
0.128114
0.128114
0.128114
0.128114
0.128114
0.128114
0.128114
0.128115
0.128115
0.128115
0.128116
0.128117
0.128118
0.128119
0.128122
0.128125
0.128129
0.128134
0.128141
0.128151
0.128163
0.128179
0.128197
0.128223
0.128262
0.128308
0.128361
0.128429
0.128506
0.128608
0.128744
0.128895
0.129073
0.129271
0.129497
0.129729
0.129968
0.130229
0.130475
0.130707
0.130892
0.131019
0.131098
0.13115
0.131085
0.131073
0.131073
0.131073
0.131077
0.130296
0.128146
0.126053
0.125392
0.125281
0.125253
0.12521
0.125195
0.125195
0.125195
0.125223
0.125285
0.125365
0.125499
0.125712
0.125931
0.126158
0.126399
0.126632
0.126858
0.127058
0.127254
0.127433
0.127562
0.127674
0.127771
0.127838
0.127899
0.127957
0.127998
0.128026
0.128048
0.128066
0.12808
0.128089
0.128096
0.1281
0.128104
0.128107
0.128109
0.12811
0.128111
0.128112
0.128113
0.128113
0.128113
0.128113
0.128114
0.128114
0.128114
0.128114
0.128114
0.128114
0.128114
0.128114
0.128114
0.128114
0.128114
0.128115
0.128115
0.128115
0.128116
0.128117
0.128118
0.128119
0.128122
0.128124
0.128128
0.128134
0.128141
0.12815
0.128162
0.128178
0.128198
0.128224
0.128259
0.128305
0.128361
0.128431
0.12851
0.128612
0.128746
0.128898
0.129074
0.129278
0.129506
0.129739
0.129989
0.130247
0.130498
0.13073
0.1309
0.131016
0.131096
0.131148
0.131095
0.131018
0.131018
0.131018
0.131228
0.130345
0.128016
0.126079
0.12542
0.125294
0.125261
0.12521
0.125192
0.125192
0.125192
0.125224
0.1253
0.125365
0.125481
0.125702
0.12594
0.126169
0.126396
0.126623
0.12685
0.127058
0.127251
0.127424
0.127549
0.127662
0.127766
0.127839
0.1279
0.127955
0.127996
0.128026
0.128049
0.128066
0.128079
0.128089
0.128096
0.128101
0.128104
0.128107
0.128109
0.12811
0.128111
0.128112
0.128113
0.128113
0.128113
0.128113
0.128114
0.128114
0.128114
0.128114
0.128114
0.128114
0.128114
0.128114
0.128114
0.128114
0.128114
0.128115
0.128115
0.128115
0.128116
0.128117
0.128118
0.128119
0.128121
0.128124
0.128128
0.128133
0.12814
0.12815
0.128162
0.128178
0.128198
0.128225
0.128261
0.128306
0.128362
0.128432
0.128517
0.128621
0.128748
0.128901
0.12908
0.129281
0.129505
0.129741
0.129997
0.13026
0.130505
0.130727
0.130887
0.130998
0.131086
0.131164
0.13111
0.131035
0.131035
0.131035
0.131151
0.129988
0.127783
0.126071
0.125406
0.125308
0.125283
0.125231
0.125199
0.125199
0.125199
0.125228
0.125304
0.125383
0.12551
0.125712
0.125934
0.126161
0.126399
0.126625
0.126846
0.12706
0.127251
0.127417
0.127543
0.127657
0.127761
0.127839
0.127902
0.127954
0.127994
0.128025
0.128048
0.128066
0.128079
0.128088
0.128095
0.128101
0.128104
0.128107
0.128109
0.12811
0.128111
0.128112
0.128113
0.128113
0.128113
0.128113
0.128114
0.128114
0.128114
0.128114
)
;

boundaryField
{
    sides1
    {
        type            calculated;
        value           uniform 0;
    }
    sides2
    {
        type            calculated;
        value           uniform 0;
    }
    empty
    {
        type            empty;
    }
}


// ************************************************************************* //
