/*--------------------------------*- C++ -*----------------------------------*\
| =========                 |                                                 |
| \\      /  F ield         | OpenFOAM: The Open Source CFD Toolbox           |
|  \\    /   O peration     | Version:  3.0.1                                 |
|   \\  /    A nd           | Web:      www.OpenFOAM.org                      |
|    \\/     M anipulation  |                                                 |
\*---------------------------------------------------------------------------*/
FoamFile
{
    version     2.0;
    format      ascii;
    class       volScalarField;
    location    "0.0002";
    object      p;
}
// * * * * * * * * * * * * * * * * * * * * * * * * * * * * * * * * * * * * * //

dimensions      [1 -1 -2 0 0 0 0];

internalField   nonuniform List<scalar> 
1000
(
68969.2
68969.1
68968.8
68968.5
68968
68967.3
68966.3
68964.9
68963
68960.4
68956.9
68952.2
68945.8
68937.3
68926
68911
68891.4
68865.7
68832.6
68790
68736.1
68668.6
68584.4
68480.2
68353.5
68200.5
68018
67803.6
67554
67267.5
66943.8
66585.1
66198.7
65792.9
65378.4
64971
64582.8
64237.5
63951.8
63738.5
63618.9
63571.6
63555.2
63572.4
63606
63621.4
63631.9
63629.4
63615.9
63618.7
63660.6
63692.4
63715
63741.2
63770.8
63806.5
63848
63897.1
63936.8
63945.4
63922.8
63843.7
63698.3
63479.8
63192.3
62851.3
62470
62071.8
61671.3
61285.9
60928
60605.3
60318.9
60070.6
59857.8
59679.7
59532.4
59411.3
59313.5
59235.3
59173.3
59124.7
59086.8
59057.5
59035.2
59018.2
59005.5
58996
58988.9
58983.7
58980
58977.2
58975.2
58973.8
58972.7
58972
58971.5
58971.1
58970.9
58970.8
68969.2
68969.1
68968.8
68968.5
68968
68967.4
68966.3
68964.9
68962.9
68960.4
68956.8
68952.2
68945.9
68937.4
68926.3
68911.4
68892
68866
68832.3
68789
68733.6
68666.4
68581.4
68476.6
68349.2
68197.3
68015
67800.8
67555.3
67269.1
66947.6
66583.5
66193.5
65788
65370.5
64966.4
64576.1
64228.5
63938.5
63721.5
63603.5
63566.7
63556.2
63582.7
63625.9
63665.8
63698.2
63728
63759.2
63777.8
63762.9
63765.2
63761.2
63767.3
63785.2
63816.4
63853.9
63900
63941.2
63951.5
63932.2
63857.2
63715
63496.9
63205.5
62855.7
62467.7
62065.8
61664.6
61274.8
60919.2
60601.1
60317.7
60072.8
59858.9
59681.8
59535.1
59414
59315.7
59236.1
59173.9
59125.1
59086.6
59057.4
59034.8
59017.8
59005.1
58995.6
58988.7
58983.6
58979.9
58977.2
58975.2
58973.7
58972.7
58971.9
58971.4
58971.1
58970.9
58970.8
68969.2
68969.1
68968.8
68968.4
68968
68967.3
68966.2
68964.6
68962.5
68959.8
68956.2
68951.2
68944.9
68936.3
68924.8
68910
68890.5
68862.9
68827.4
68781.6
68717.4
68654.5
68571.3
68463.2
68332.7
68176.2
67992.8
67775.5
67530.7
67244.5
66925.5
66562.7
66162.2
65771.6
65360.9
64965.4
64581
64251.1
63964.8
63742.5
63623
63576.2
63565.8
63587.1
63637.9
63669.2
63700.4
63706.6
63693.8
63715.7
63717
63730.7
63750.9
63767.8
63787.4
63814.6
63854.6
63897
63930.7
63937.9
63924.3
63851.3
63708.5
63495.5
63203
62855.9
62465.6
62060.2
61669.2
61270.6
60926.7
60621.2
60342.2
60097.6
59884.8
59709.6
59560.7
59437.2
59329.4
59245.2
59181.5
59130.6
59090.9
59060.4
59036.8
59019.3
59006.1
58996.4
58989.3
58983.9
58980
58977.4
58975.4
58973.9
58972.8
58972
58971.5
58971.2
58970.9
58970.8
68969.2
68969
68968.8
68968.4
68967.9
68967.2
68966.2
68964.5
68962.1
68959.5
68955.6
68949.5
68943.8
68936.1
68923.1
68907.8
68887.9
68859.7
68822.5
68774.4
68705.4
68645.7
68567.1
68454.2
68322.6
68157
67976.5
67757.2
67512
67230.9
66915.9
66548
66116.5
65758.2
65356.2
64973.7
64593.9
64262.7
63986.3
63762.6
63641.4
63577.4
63569.7
63586.1
63623.9
63669.8
63702.7
63715.4
63713.9
63721.1
63715.3
63727.5
63746.6
63763.6
63783.4
63806.6
63844.2
63883.8
63914.9
63921.9
63908.6
63844.3
63704.7
63493.4
63193.3
62855.9
62470.1
62072.8
61686.8
61270.4
60931.6
60636
60363.4
60116.1
59905.4
59727.7
59582.6
59460.3
59339.4
59247.9
59186.5
59136.4
59094.3
59062.3
59038.3
59020.2
59006.8
58996.8
58989.5
58984
58979.8
58977.6
58975.7
58974.1
58973
58972.1
58971.6
58971.2
58971
58970.9
68969.2
68969
68968.8
68968.4
68967.9
68967.1
68966.1
68964.6
68962.5
68959.7
68955.8
68950
68944.1
68936.1
68923.1
68906.7
68885.3
68857.1
68820.7
68773.7
68713.1
68641
68558
68453.3
68319.5
68150.3
67968.5
67752.8
67499
67227.7
66938.7
66573.2
66144.7
65729.8
65311.4
64969.3
64587.2
64230.6
63967.9
63752.7
63634.2
63566.5
63558.9
63577.5
63613.5
63664.9
63689.8
63701.4
63720
63729.1
63744.7
63746
63757
63766.8
63785.6
63810.9
63842.9
63875.5
63896.8
63907
63896.9
63834.1
63699.4
63492.4
63203.9
62841.8
62477.6
62078.4
61712.9
61330.5
60951
60654.8
60382.2
60135.9
59912.5
59731.9
59588.7
59459.7
59338.8
59244.7
59185.7
59139.3
59093.9
59061.9
59038.4
59020.2
59006.9
58997
58989.7
58984.1
58980
58977.6
58975.6
58974.1
58973
58972
58971.6
58971.2
58971
58970.9
68969.2
68969
68968.8
68968.5
68967.9
68967.1
68966.1
68964.6
68962.6
68960
68956.3
68951.2
68944.7
68936
68923.7
68906.7
68884.4
68856.8
68821.4
68775.4
68716.6
68638.8
68560.4
68465
68330.3
68145.5
67962.9
67752.8
67499.1
67231.3
66934.1
66561.3
66173.1
65732.2
65299
64944.4
64527.5
64175
63916.7
63736.3
63622.5
63571.2
63563.5
63577.7
63613.5
63653.9
63682.3
63695.9
63723.2
63729.7
63759.3
63753.7
63764.6
63772
63783.3
63802.1
63828.4
63862.6
63887
63897.6
63881.5
63813.1
63678.5
63481.9
63226.5
62875.8
62508.3
62124.7
61746.1
61366.5
60975.8
60670.4
60387.1
60136.9
59913.6
59726
59580.2
59444.5
59334.9
59248.4
59186.5
59139.8
59094.9
59062.1
59038.8
59020.8
59007.6
58997.8
58990.3
58984.8
58980.7
58977.7
58975.6
58974.1
58972.9
58972.1
58971.6
58971.2
58971
58970.9
68969.2
68969
68968.8
68968.4
68967.9
68967.2
68966.2
68964.7
68962.6
68959.9
68956.2
68951.2
68944.6
68935.6
68922.8
68906.1
68883.5
68857.3
68822.6
68778.7
68725.4
68654.3
68564.2
68460.7
68335
68155.2
67979.1
67761.1
67500.2
67253.6
66932.7
66545
66175.3
65728.8
65288.2
64866.2
64483.5
64141.5
63890.7
63715.8
63605.7
63570.7
63561.2
63573
63609
63643.5
63670.6
63686.1
63691.4
63726.3
63740.9
63746.9
63758
63763.6
63775.7
63793.9
63819.8
63857.6
63890.9
63901.7
63879.2
63804.3
63679.2
63496.7
63236.7
62918.3
62539
62149.6
61752.6
61360.8
60997.3
60687.6
60393.9
60137.9
59916.1
59703.8
59563.8
59445.3
59336.8
59252.9
59191.3
59139.8
59097.1
59064.9
59040.1
59021.6
59008.1
58997.7
58990.5
58985.5
58981
58977.9
58975.9
58974.2
58972.9
58972.1
58971.6
58971.2
58971
58970.8
68969.2
68969
68968.8
68968.5
68968
68967.3
68966.3
68964.8
68962.8
68960
68956.3
68951.4
68944.9
68936.3
68923.7
68907.6
68886.2
68859.9
68826.1
68783.8
68730.7
68663.5
68572.1
68462.2
68336.3
68166
67992.9
67769.9
67520.1
67270.9
66924.3
66537.3
66130
65688.3
65238.4
64794.7
64469.7
64161
63905
63716.9
63607
63567.5
63566
63594.1
63640
63680.1
63701.6
63727.8
63749.4
63772.6
63762.2
63751.5
63761.7
63765.8
63773
63787.2
63815.9
63853
63885.8
63901.3
63889.7
63814.7
63676.5
63482.6
63216.4
62896.1
62457.4
62081.2
61744.3
61386.7
61046
60740.6
60429.4
60167.8
59951.8
59718.4
59559.9
59445.9
59345.4
59258.8
59193
59138.5
59096.8
59066.2
59040.2
59021.8
59008
58997.7
58990.5
58985.1
58980.8
58977.9
58975.8
58974.1
58972.9
58972.1
58971.5
58971.2
58970.9
58970.8
68969.2
68969.1
68968.9
68968.6
68968.1
68967.3
68966.3
68964.9
68963
68960.3
68956.8
68952.1
68945.6
68937.2
68925.2
68909.8
68889.6
68863.6
68830.9
68789
68734.6
68668
68582.6
68473.8
68344.8
68182
67999.5
67781.4
67529.9
67244.6
66884.2
66507.9
66098.8
65660.7
65204.1
64793
64454.4
64151.1
63889.6
63710.5
63608.5
63580.8
63580.8
63615.6
63670.7
63710
63737.2
63766.3
63793.2
63845.8
63789.2
63772.4
63770.4
63770
63774.4
63784.4
63816.3
63858
63888.5
63897.7
63897.2
63845.4
63684.5
63464.3
63189.1
62866.4
62445.7
62075.3
61746.1
61401.2
61068.3
60764.2
60454.3
60189.9
59972.9
59749.5
59572
59444.3
59344.5
59257.6
59189.2
59135.5
59094.7
59062.9
59038.6
59021
59007.3
58997.5
58990.2
58984.6
58980.6
58977.6
58975.5
58973.9
58972.8
58972
58971.5
58971.1
58970.9
58970.8
68969.2
68969.1
68968.9
68968.5
68968
68967.3
68966.3
68964.9
68963
68960.3
68956.7
68951.9
68945.4
68936.6
68925
68909.7
68889.6
68863.8
68830.6
68788.1
68734.1
68665.7
68579.7
68472.9
68341.9
68183.9
67996
67775
67517.7
67218
66874.5
66495.7
66085.7
65656.6
65213.6
64809.3
64448.4
64119.4
63874.1
63715.7
63627
63598.4
63593.4
63620.9
63669.8
63693.4
63717.7
63728.3
63715.4
63668.1
63708.6
63732.7
63749.7
63759
63767.9
63779
63806.8
63847.1
63877
63884.8
63878
63816.1
63666.6
63456.2
63183.8
62856.7
62494.6
62111.8
61751.8
61399.2
61061.6
60755.1
60458.6
60193
59962
59758.2
59588.7
59453.6
59345.8
59258.9
59190.3
59136.7
59095.3
59063.6
59039.4
59021.3
59007.7
58997.7
58990.2
58984.7
58980.7
58977.7
58975.5
58974
58972.9
58972.1
58971.5
58971.2
58970.9
58970.8
)
;

boundaryField
{
    sides1
    {
        type            zeroGradient;
    }
    sides2
    {
        type            slip;
    }
    empty
    {
        type            empty;
    }
}


// ************************************************************************* //
