/*--------------------------------*- C++ -*----------------------------------*\
| =========                 |                                                 |
| \\      /  F ield         | OpenFOAM: The Open Source CFD Toolbox           |
|  \\    /   O peration     | Version:  3.0.1                                 |
|   \\  /    A nd           | Web:      www.OpenFOAM.org                      |
|    \\/     M anipulation  |                                                 |
\*---------------------------------------------------------------------------*/
FoamFile
{
    version     2.0;
    format      ascii;
    class       surfaceScalarField;
    location    "0.0002";
    object      phi;
}
// * * * * * * * * * * * * * * * * * * * * * * * * * * * * * * * * * * * * * //

dimensions      [1 0 -1 0 0 0 0];

internalField   nonuniform List<scalar> 
1890
(
1.08158e-07
-5.72678e-09
2.20889e-07
-4.54141e-09
3.56666e-07
-3.45199e-09
5.22316e-07
3.48109e-09
7.48138e-07
-6.54847e-09
1.06001e-06
-2.15988e-08
1.46549e-06
-1.60239e-09
2.01231e-06
1.34374e-08
2.74521e-06
2.34102e-08
3.74496e-06
2.51797e-08
5.08404e-06
4.10578e-08
6.92333e-06
8.6997e-09
9.38827e-06
-3.79512e-09
1.26416e-05
1.3462e-08
1.69515e-05
1.69158e-09
2.2612e-05
5.74463e-09
3.00281e-05
-1.44369e-08
3.95415e-05
1.06953e-07
5.17169e-05
2.18094e-07
6.70485e-05
4.9894e-07
8.6179e-05
8.8947e-07
0.000110301
8.75039e-07
0.000140032
1.13131e-06
0.000176195
1.60349e-06
0.000219669
2.09261e-06
0.00027186
2.18329e-06
0.000333416
2.49893e-06
0.000404913
2.82285e-06
0.000487609
2.33717e-06
0.000581065
2.25371e-06
0.000685517
1.35742e-06
0.000796284
3.76567e-06
0.000912685
4.16396e-06
0.00103218
3.76475e-06
0.00115053
3.76216e-06
0.001265
1.47504e-06
0.00137012
-6.27311e-07
0.0014635
-5.56352e-06
0.00153486
-6.51631e-06
0.00158036
-5.94602e-06
0.00160004
-4.31663e-06
0.00159649
5.03471e-07
0.0015849
2.36954e-06
0.00157483
2.35529e-06
0.00156474
1.05894e-07
0.00156559
-7.17058e-06
0.00157354
-1.12668e-05
0.00158602
-1.29029e-05
0.00158184
8.79414e-07
0.0014758
6.89359e-05
0.0014203
1.15069e-05
0.00141331
-1.4278e-05
0.00141548
-1.07619e-05
0.00141178
1.06187e-06
0.00141365
9.62577e-07
0.00142668
-5.0784e-06
0.00144853
-8.40814e-06
0.00146435
-3.77855e-06
0.00147752
-3.01239e-06
0.00148576
-3.41078e-06
0.00148485
-7.5963e-06
0.00146483
-7.26557e-06
0.0014237
-8.24858e-06
0.00135935
-7.17284e-06
0.00127096
-4.03207e-06
0.00116533
-3.33286e-06
0.00104863
-3.40351e-06
0.000925345
-1.82593e-06
0.000801659
-6.79991e-08
0.000684017
-1.41952e-07
0.000575548
-2.4754e-08
0.000479356
-2.00833e-06
0.000394032
-1.41466e-06
0.000320411
-1.60088e-06
0.000257468
-9.79881e-07
0.000204812
-9.26333e-07
0.000161807
-1.24819e-06
0.000126989
-1.17663e-06
9.88956e-05
-8.55584e-07
7.63361e-05
-4.91856e-07
5.84858e-05
-3.26981e-07
4.45415e-05
-2.64282e-07
3.3644e-05
-8.39591e-08
2.52879e-05
-5.82585e-08
1.88549e-05
4.0804e-08
1.39593e-05
8.0386e-08
1.0272e-05
7.97988e-08
7.50433e-06
8.40387e-08
5.46423e-06
5.44005e-08
3.95782e-06
4.54367e-08
2.86267e-06
2.17506e-08
2.06589e-06
9.5756e-09
1.48155e-06
9.4543e-09
1.05563e-06
5.6643e-09
7.4367e-07
5.24823e-09
5.10554e-07
7.8643e-09
3.395e-07
2.21593e-09
2.07997e-07
6.24525e-10
1.01222e-07
-2.38174e-10
2.62679e-10
9.03929e-08
2.73091e-09
1.91172e-07
3.11269e-10
3.15341e-07
3.06852e-09
4.85104e-07
6.73813e-09
6.81102e-07
1.53362e-08
9.22934e-07
1.48449e-08
1.28642e-06
3.10318e-08
1.77743e-06
8.08583e-08
2.43314e-06
1.34119e-07
3.33838e-06
1.51907e-07
4.589e-06
1.9732e-07
6.16029e-06
2.85582e-07
8.26978e-06
3.32078e-07
1.11808e-05
3.42911e-07
1.49951e-05
4.29811e-07
2.01089e-05
4.77899e-07
2.68211e-05
5.44489e-07
3.55238e-05
9.26946e-07
4.6579e-05
1.50875e-06
6.0872e-05
2.17175e-06
7.755e-05
4.6015e-06
9.98783e-05
3.83455e-06
0.000128666
3.53866e-06
0.000163446
4.85447e-06
0.000205177
6.28682e-06
0.000253652
8.03931e-06
0.000311579
8.53515e-06
0.000378335
1.05892e-05
0.000454245
1.11438e-05
0.000540899
1.1438e-05
0.000637467
1.04998e-05
0.000744941
1.14807e-05
0.000856074
1.44305e-05
0.000973461
9.81673e-06
0.00109019
9.40191e-06
0.00120647
2.12935e-06
0.00131579
-3.33087e-06
0.00141421
-1.48679e-05
0.00149465
-2.04297e-05
0.00154445
-1.89797e-05
0.00157162
-1.57904e-05
0.00157464
-5.52005e-06
0.00156589
-9.00089e-08
0.00155668
2.01887e-06
0.00154433
6.80589e-07
0.00153756
-8.72521e-06
0.00153112
-6.14636e-06
0.00151961
8.62743e-06
0.00154129
-7.56247e-07
0.00154744
5.90186e-05
0.00150399
2.94052e-05
0.00148146
-1.47073e-05
0.00146751
-5.85841e-06
0.00146249
7.21146e-06
0.00145533
1.34857e-05
0.00145275
6.68823e-06
0.00145432
3.61737e-06
0.00146174
1.78265e-06
0.00146662
2.95461e-06
0.00146678
1.85843e-06
0.00145595
-4.9174e-06
0.00142542
-3.90543e-06
0.0013741
-5.68725e-06
0.00130239
-7.08698e-06
0.00121059
-4.52082e-06
0.00110342
-4.83081e-06
0.000987079
-7.5512e-06
0.000865526
-5.78724e-06
0.000743018
-4.5908e-06
0.000629052
-4.3594e-06
0.000528646
-7.11631e-06
0.000439803
-1.02236e-05
0.000361654
-9.44445e-06
0.000292646
-8.14893e-06
0.000234599
-7.54868e-06
0.000186027
-6.71891e-06
0.000146349
-6.34311e-06
0.000114817
-6.34187e-06
8.90529e-05
-4.31629e-06
6.83326e-05
-2.88525e-06
5.19884e-05
-2.20913e-06
3.91393e-05
-1.67287e-06
2.93723e-05
-1.25268e-06
2.18634e-05
-9.41265e-07
1.62367e-05
-6.57068e-07
1.20027e-05
-4.54625e-07
8.83167e-06
-3.16942e-07
6.4793e-06
-2.18809e-07
4.72287e-06
-1.56467e-07
3.45014e-06
-1.16485e-07
2.46807e-06
-5.77729e-08
1.76047e-06
-6.42526e-08
1.26885e-06
-6.88711e-08
9.03867e-07
-4.78493e-08
6.41683e-07
-3.76359e-08
4.56371e-07
-2.76543e-08
3.07242e-07
-1.70612e-08
1.89813e-07
-1.32316e-08
9.15335e-08
-9.83945e-09
-8.76708e-09
1.00464e-07
3.52929e-09
2.03866e-07
4.89555e-09
3.35756e-07
4.01857e-09
5.2807e-07
-4.01376e-09
7.54405e-07
1.49033e-08
1.01276e-06
3.99819e-08
1.4245e-06
2.05765e-08
2.05212e-06
2.22284e-08
2.9053e-06
9.17261e-08
4.00664e-06
1.27962e-07
5.48431e-06
1.78478e-07
7.31224e-06
4.50149e-07
9.7764e-06
4.49886e-07
1.33679e-05
9.92259e-08
1.76209e-05
5.53909e-07
2.30538e-05
7.12929e-07
3.00592e-05
8.12389e-07
3.97991e-05
9.15454e-07
5.23179e-05
1.66718e-06
6.8952e-05
2.1312e-06
9.24614e-05
3.49074e-06
0.000118692
3.87157e-06
0.000151273
2.16456e-06
0.00019011
4.1094e-06
0.000237206
4.4602e-06
0.000292159
7.37011e-06
0.000357011
7.68711e-06
0.000432443
8.41393e-06
0.000519135
8.13298e-06
0.00061863
7.40926e-06
0.000731769
4.59436e-06
0.000850765
7.59927e-06
0.000972465
1.51429e-05
0.00109472
1.00955e-05
0.00121507
9.62891e-06
0.00132705
3.15011e-06
0.00142624
3.71277e-06
0.00150861
-4.75483e-06
0.00156112
-7.77897e-06
0.00158622
-5.94399e-06
0.0015914
-4.89862e-06
0.00158298
6.83111e-07
0.00156699
2.82837e-06
0.00155261
4.20307e-06
0.00153839
1.23623e-06
0.00152794
-8.15987e-06
0.00152985
-8.56398e-06
0.00153281
7.73064e-06
0.001498
3.40476e-05
0.00151776
4.96037e-05
0.00152819
1.41436e-05
0.00149885
-8.61502e-06
0.00148502
-5.79432e-07
0.001485
9.36437e-06
0.0014886
1.65895e-05
0.00149134
1.43947e-05
0.00149178
1.49689e-05
0.00149178
1.29788e-05
0.00149746
7.81815e-06
0.00150482
-4.37002e-07
0.00150347
-1.20074e-05
0.0014835
-1.03853e-05
0.00144144
-9.95348e-06
0.00137725
-1.09993e-05
0.00128914
-2.95076e-06
0.00118516
-4.18354e-06
0.00106949
-9.47167e-06
0.000951002
-1.34671e-05
0.000822545
-1.15636e-05
0.000702765
-3.06295e-06
0.000599298
-6.49148e-06
0.000509887
-1.21064e-05
0.000425376
-1.11776e-05
0.00034947
-9.13115e-06
0.000281335
-7.44811e-06
0.00022299
-6.97828e-06
0.000176309
-8.45994e-06
0.000137014
-6.73973e-06
0.000105878
-3.14734e-06
8.02809e-05
-1.13966e-06
6.13614e-05
-2.00443e-06
4.68598e-05
-1.79167e-06
3.53697e-05
-1.01024e-06
2.63032e-05
-5.16132e-07
1.94912e-05
-3.66757e-07
1.43948e-05
-2.55773e-07
1.05878e-05
-1.65643e-07
7.72544e-06
-1.11143e-07
5.61321e-06
-7.49318e-08
4.10124e-06
-4.7357e-08
2.94686e-06
3.31583e-08
2.1519e-06
-7.2884e-08
1.55289e-06
-7.05544e-08
1.1128e-06
-4.99135e-08
7.79778e-07
-2.74775e-08
5.34456e-07
-1.47401e-08
3.58019e-07
-1.79458e-08
2.20601e-07
-1.47693e-08
1.07005e-07
-1.04061e-08
-8.32415e-09
1.08157e-07
6.90434e-11
2.23785e-07
2.44194e-09
3.62151e-07
3.18512e-09
5.36555e-07
-1.42422e-10
7.84072e-07
1.11897e-09
1.12301e-06
8.68544e-09
1.52744e-06
1.85988e-08
2.13774e-06
-2.2863e-08
3.13446e-06
-6.25094e-08
4.39338e-06
-3.44754e-08
6.05608e-06
-2.97e-08
8.82408e-06
-7.53839e-08
1.22043e-05
-1.17485e-07
1.56293e-05
2.80295e-08
2.06761e-05
8.29385e-08
2.67655e-05
4.53776e-07
3.43524e-05
8.28791e-07
4.46353e-05
7.07829e-07
5.86969e-05
7.75762e-07
7.74043e-05
6.15514e-07
0.000105423
-6.3635e-07
0.000134395
1.99681e-06
0.000164757
1.85247e-06
0.00020711
-1.64747e-06
0.000252561
1.29827e-06
0.000311907
2.74362e-06
0.00037914
4.72451e-06
0.000456923
3.85417e-06
0.000543645
7.29339e-06
0.000646621
3.18243e-06
0.00076681
-4.97137e-06
0.000894577
-5.10339e-06
0.00103957
-3.9041e-06
0.00116291
7.6094e-06
0.0012768
1.37094e-05
0.0013854
5.35575e-06
0.00148093
1.0307e-05
0.00155512
1.46555e-05
0.0015953
1.61785e-05
0.00161591
1.37184e-05
0.00161208
1.26714e-05
0.00159856
9.74976e-06
0.0015791
7.62635e-06
0.00156328
4.36537e-06
0.00154873
1.2614e-06
0.0015242
3.99598e-06
0.00151307
-4.1987e-06
0.00151091
1.73691e-06
0.00149505
3.28856e-05
0.00152608
1.63616e-05
0.00151936
3.6849e-06
0.0014865
-4.34904e-06
0.00147118
1.38469e-06
0.00148009
1.05078e-06
0.00149407
6.54495e-06
0.00150663
1.15726e-05
0.00152054
1.25506e-05
0.00153127
1.24659e-05
0.00154124
6.46367e-06
0.00155043
-5.77916e-06
0.00154375
-1.19142e-05
0.00151724
-9.51806e-06
0.00146867
-8.42673e-06
0.00140303
-9.10391e-06
0.00132947
-1.05786e-05
0.00122646
-4.11817e-06
0.00110477
-2.69426e-06
0.00097523
-8.41142e-06
0.000844668
-1.63876e-05
0.000737717
-1.63732e-05
0.000642969
-1.22466e-05
0.000550221
-4.94314e-06
0.000459622
-6.71482e-06
0.000380468
-6.82444e-06
0.000310217
-3.53695e-06
0.000246674
-2.61782e-06
0.000189882
-2.52404e-06
0.000142868
-1.2812e-06
0.000109696
-2.40842e-07
8.48889e-05
-1.95765e-09
6.45443e-05
-6.91272e-07
4.87637e-05
-9.79317e-07
3.62474e-05
-4.89346e-08
2.68586e-05
5.99906e-08
1.97873e-05
-1.96865e-08
1.45132e-05
6.58862e-09
1.06037e-05
-1.00527e-08
7.73821e-06
-7.6787e-08
5.7148e-06
-7.05792e-08
4.2878e-06
-4.26677e-08
3.3799e-06
-4.77551e-08
2.50906e-06
-1.39105e-08
1.77231e-06
1.84129e-08
1.24526e-06
7.51504e-09
8.71052e-07
-5.83488e-10
5.99058e-07
1.43597e-08
3.95715e-07
3.01002e-10
2.36087e-07
-8.48956e-10
1.13404e-07
-5.72808e-09
-6.14181e-09
1.04733e-07
7.7808e-10
2.22447e-07
1.73075e-11
3.68695e-07
-2.73969e-09
5.48963e-07
-2.59395e-09
7.85805e-07
-2.51913e-09
1.10547e-06
-4.96279e-10
1.5317e-06
2.14122e-09
2.0786e-06
-1.14872e-08
2.84645e-06
-4.0468e-08
3.96183e-06
-8.06681e-08
5.5086e-06
-1.02988e-07
7.8171e-06
-2.52717e-07
1.05823e-05
-1.60296e-07
1.39068e-05
1.83435e-08
1.86011e-05
-1.31618e-07
2.50184e-05
2.09739e-08
3.33965e-05
2.96291e-07
4.41196e-05
2.28048e-07
5.81621e-05
3.20311e-08
7.60658e-05
-2.98176e-07
9.78771e-05
-6.65978e-07
0.000126679
4.07306e-07
0.000161577
-1.1303e-06
0.000203258
-4.96449e-06
0.000254152
-3.10047e-06
0.000313902
-5.30575e-07
0.000384462
-5.22242e-07
0.000466183
-2.01681e-06
0.00056366
-5.59073e-07
0.000664746
-3.95226e-07
0.000756807
4.82139e-06
0.000859204
3.53959e-06
0.000983223
-7.53141e-06
0.00111258
2.833e-06
0.00124039
8.12725e-06
0.0013404
1.51496e-05
0.00143476
1.75397e-05
0.0015059
2.93915e-05
0.00156605
2.20288e-05
0.0015944
2.34918e-05
0.00160933
1.40855e-05
0.00160652
7.85066e-06
0.0015901
9.0975e-06
0.00157492
1.84088e-06
0.00155371
6.66145e-06
0.00153313
1.41332e-05
0.0015128
9.12259e-06
0.00150085
5.28689e-06
0.00151215
1.39724e-05
0.00151654
1.81898e-06
0.00150266
-3.47132e-06
0.0014746
-4.15622e-06
0.00146206
1.36145e-06
0.00146419
-6.59847e-07
0.00147785
-2.34428e-06
0.0014965
2.86204e-06
0.00151783
2.62665e-06
0.00153502
5.84745e-06
0.00154555
4.43071e-06
0.00154771
-3.5927e-06
0.00153116
9.90879e-07
0.00149411
4.42018e-06
0.00144253
-1.66853e-06
0.00137234
-3.38817e-06
0.00129179
-1.80629e-05
0.00120934
-2.02229e-05
0.00110963
-1.49925e-05
0.000994928
-1.42493e-05
0.000866428
-1.75239e-05
0.000734079
-1.61481e-05
0.000626181
-1.07861e-05
0.000536009
-3.26126e-06
0.000443889
-2.08337e-06
0.000360561
-1.69191e-06
0.000291546
-1.2732e-06
0.000231131
-2.41635e-07
0.000177949
1.68808e-06
0.000133716
2.14249e-06
0.00010147
1.12672e-06
7.97198e-05
-1.03451e-06
6.11922e-05
-4.63769e-07
4.50438e-05
-3.87525e-08
3.36657e-05
-5.25206e-08
2.49304e-05
-2.08963e-08
1.82329e-05
-9.0412e-08
1.33979e-05
-1.79802e-07
9.77275e-06
-1.77803e-07
7.07627e-06
-2.58615e-07
5.14506e-06
-2.01121e-07
3.89771e-06
-2.14425e-07
2.94896e-06
-1.17428e-07
2.15344e-06
-3.09997e-08
1.57717e-06
-1.42052e-08
1.13604e-06
-6.20109e-09
7.91454e-07
2.91469e-09
5.90977e-07
-1.93981e-08
4.09614e-07
-2.81213e-09
2.5968e-07
3.5978e-09
1.25595e-07
6.95746e-09
3.03101e-09
1.051e-07
1.07588e-09
2.15869e-07
3.12819e-09
3.51031e-07
1.17575e-10
5.22586e-07
1.62838e-09
7.54613e-07
-4.04547e-09
1.08449e-06
-2.17694e-08
1.53966e-06
-3.24462e-08
2.13271e-06
-2.62533e-08
2.89692e-06
-1.56995e-08
3.87953e-06
-1.56734e-08
5.21525e-06
-1.54959e-08
6.90982e-06
-2.96884e-08
9.28683e-06
1.8983e-08
1.25516e-05
1.11195e-07
1.65663e-05
2.57245e-07
2.2361e-05
2.01364e-07
3.04254e-05
1.85464e-07
4.09467e-05
-7.72966e-08
5.43804e-05
-3.76459e-07
7.17904e-05
-1.1613e-06
9.33354e-05
-1.82907e-06
0.000125685
-4.08747e-06
0.000160682
-2.21713e-06
0.000194614
-4.06866e-07
0.000240432
-1.61283e-06
0.00030295
-3.75864e-06
0.000378463
-7.7516e-06
0.000459973
-4.6238e-06
0.000551431
-2.9418e-06
0.000653683
-9.07428e-06
0.000748324
3.87099e-06
0.000859594
5.84e-06
0.000973499
3.52567e-06
0.00109172
5.8948e-06
0.00120432
1.13211e-05
0.00129984
2.63294e-05
0.00140045
2.23237e-05
0.00148047
3.08356e-05
0.00154213
2.89428e-05
0.00159208
1.90109e-05
0.00161165
1.16206e-05
0.00161198
1.97243e-06
0.00159566
1.08104e-05
0.00157257
9.68798e-06
0.00155189
1.29289e-05
0.00153421
2.10343e-05
0.00153029
5.43178e-06
0.00152578
3.31208e-06
0.00153501
7.6072e-07
0.00152834
-1.02602e-06
0.00151072
-5.00616e-06
0.00148098
-2.01967e-06
0.00146605
1.78409e-06
0.00146873
-3.25946e-06
0.00147376
-2.99222e-06
0.00148651
-9.56357e-07
0.00150124
-5.62208e-07
0.00151173
4.87506e-06
0.00152241
3.03435e-06
0.00152177
1.08671e-06
0.0015116
5.13827e-06
0.0014929
5.26461e-07
0.00145369
-6.88812e-06
0.00139518
-1.06061e-05
0.00130657
-1.71967e-05
0.00121987
-2.19701e-05
0.00111011
-1.94324e-05
0.000989585
-2.00252e-05
0.000854137
-1.3102e-05
0.00071553
-8.27075e-06
0.000603638
-8.38938e-06
0.000508526
-5.48134e-06
0.000421617
-3.03305e-06
0.000343083
-1.1445e-06
0.000276282
-1.1813e-06
0.000217806
1.84407e-06
0.000166924
4.79825e-06
0.000131062
-1.74346e-07
0.00010269
-5.52364e-07
8.00763e-05
-1.20148e-06
6.26308e-05
-1.13549e-06
4.67136e-05
2.93301e-07
3.52709e-05
-4.21138e-07
2.67512e-05
-5.75661e-07
2.00938e-05
-3.23071e-07
1.50286e-05
-1.98997e-07
1.11306e-05
-1.73575e-07
7.96956e-06
-1.55593e-09
5.75697e-06
-5.55312e-08
4.156e-06
-1.16795e-07
2.95435e-06
-5.32007e-08
2.15392e-06
-6.15875e-08
1.59562e-06
-6.16665e-08
1.15012e-06
-1.67742e-08
8.17756e-07
1.46571e-09
5.626e-07
-6.40308e-09
3.73507e-07
6.47451e-12
2.32827e-07
7.68383e-10
1.15156e-07
5.93993e-09
5.46824e-09
1.11356e-07
-3.84457e-09
2.37206e-07
-6.16691e-09
3.8255e-07
-6.9327e-09
5.70809e-07
-8.31926e-09
8.12384e-07
-1.50105e-08
1.11006e-06
-2.442e-08
1.52766e-06
-3.72022e-08
2.10924e-06
-2.03107e-08
2.92725e-06
-3.90208e-08
4.01464e-06
-3.14168e-08
5.49014e-06
-4.83128e-08
7.49893e-06
-8.69332e-08
1.02276e-05
-8.56912e-08
1.38783e-05
-1.47003e-07
1.88355e-05
-2.0735e-07
2.54641e-05
-3.82826e-07
3.45324e-05
-6.83669e-07
4.55473e-05
-9.36944e-07
5.9145e-05
-1.13175e-06
7.6285e-05
-1.86497e-06
9.61004e-05
-2.29434e-06
0.00012135
-3.33557e-06
0.000156199
-2.21419e-06
0.000196281
-9.99994e-07
0.000239128
-3.06403e-07
0.000297546
-3.32116e-06
0.00036266
-4.40477e-06
0.000440674
-3.04564e-06
0.000535567
-5.28217e-06
0.000620833
-3.15341e-06
0.000714919
5.1368e-06
0.000823828
7.14308e-06
0.000924753
1.66113e-05
0.00103597
1.60275e-05
0.00114987
2.08843e-05
0.00126135
3.32162e-05
0.00137147
1.86395e-05
0.00145799
2.96066e-05
0.00152954
2.20553e-05
0.00158006
1.05527e-05
0.00160567
2.51482e-06
0.0016101
-6.89893e-06
0.00159833
9.14347e-06
0.00157983
1.52024e-05
0.00156231
1.77283e-05
0.00155471
1.70383e-05
0.00156051
-6.17101e-06
0.00156194
-3.75618e-06
0.00155355
-8.73247e-06
0.00155452
-1.67993e-05
0.00153467
-1.0146e-05
0.0015036
-4.70946e-06
0.00148949
-1.4447e-06
0.00148729
-2.23634e-06
0.0014896
6.8411e-07
0.00149598
1.3917e-06
0.00149606
1.04273e-05
0.0015012
9.83903e-06
0.00150468
9.61627e-06
0.00150857
2.67997e-06
0.0015061
1.3014e-06
0.00150457
-1.94643e-05
0.00146846
-1.631e-05
0.00139415
-8.06752e-06
0.00129328
-3.76597e-06
0.00118053
-4.76528e-06
0.00105117
-3.61948e-06
0.000907656
-8.56667e-07
0.000781169
-9.1574e-06
0.00067542
-1.52472e-05
0.000573104
-1.58335e-05
0.000476347
-1.55377e-05
0.000392005
-9.16376e-06
0.000321132
-9.06554e-06
0.000262828
-9.89485e-06
0.000219154
-5.61658e-06
0.000178971
-3.11184e-07
0.000140652
-8.8955e-07
0.000111408
-2.11214e-06
8.78823e-05
-1.62979e-06
6.75181e-05
-2.82919e-07
5.13553e-05
4.28262e-07
3.81118e-05
1.29856e-07
2.82298e-05
-3.40707e-07
2.08846e-05
-3.81137e-08
1.55261e-05
-2.50154e-08
1.14674e-05
8.1032e-09
8.64446e-06
2.82762e-08
6.50808e-06
2.09922e-08
4.626e-06
1.27964e-07
3.36211e-06
3.77187e-08
2.42876e-06
1.20831e-08
1.69867e-06
1.43014e-08
1.18894e-06
1.94395e-08
8.40018e-07
1.42081e-08
5.73151e-07
1.26416e-08
3.7183e-07
1.54073e-08
2.21812e-07
8.22413e-09
1.08008e-07
5.08377e-09
4.86695e-09
1.06361e-07
-6.58333e-09
2.24006e-07
-1.1069e-08
3.65489e-07
-1.21027e-08
5.48529e-07
-1.83874e-08
7.74487e-07
-1.77705e-08
1.04662e-06
-5.68518e-09
1.41693e-06
-9.41922e-09
2.00043e-06
-2.51237e-08
2.80274e-06
-6.10076e-08
3.94764e-06
-9.69187e-08
5.52234e-06
-1.57181e-07
7.53418e-06
-1.52684e-07
1.02163e-05
-1.70331e-07
1.35955e-05
-2.71526e-07
1.82926e-05
-4.94664e-07
2.45215e-05
-7.03405e-07
3.26968e-05
-1.0313e-06
4.29443e-05
-1.15077e-06
5.59989e-05
-1.43823e-06
7.18987e-05
-1.72658e-06
9.08321e-05
-1.48478e-06
0.000113924
-1.34038e-06
0.000145427
-7.17453e-07
0.000187091
-2.83666e-06
0.000234417
-3.04922e-06
0.000292549
-3.84727e-06
0.000354739
-1.01108e-06
0.00043097
-1.10791e-06
0.000518278
-1.74896e-06
0.000596744
7.87952e-06
0.000693225
8.62553e-06
0.000802689
7.9067e-06
0.0009236
1.29563e-05
0.00104958
1.32296e-05
0.00117623
1.82751e-05
0.00132009
1.7102e-05
0.00142821
1.552e-05
0.00151452
2.66169e-05
0.00157644
1.78911e-05
0.00161061
7.19537e-06
0.0016227
2.89846e-06
0.00160751
2.98825e-06
0.00159999
5.24477e-06
0.00159229
1.18033e-05
0.00159102
8.77856e-06
0.00159725
3.64212e-06
0.00158809
-3.02787e-06
0.00158905
-1.17609e-05
0.00159291
-2.56138e-05
0.00159804
-4.29405e-05
0.0015677
-2.80312e-06
0.00153288
-1.73559e-06
0.00151671
1.99127e-07
0.00151698
-5.99995e-07
0.00151443
9.0775e-06
0.00151299
1.09445e-05
0.00152034
1.2151e-05
0.00152687
1.16752e-05
0.00153026
1.46688e-05
0.00153302
3.13788e-06
0.00153221
-5.38183e-06
0.00151749
-2.41021e-05
0.00147105
-1.62548e-05
0.00139358
-2.06486e-06
0.00130354
-1.65721e-06
0.00119864
-4.48487e-06
0.00110473
-7.80944e-06
0.000999758
-2.66738e-06
0.000883375
-5.88737e-06
0.000761952
-6.46368e-06
0.000639525
-8.01913e-06
0.000525687
-1.33773e-05
0.000431974
-9.69082e-06
0.000349846
-9.27448e-06
0.000274395
-5.6076e-06
0.000227855
-8.80182e-06
0.000190028
-5.0664e-06
0.00015126
-5.55843e-07
0.000116845
-3.51417e-08
8.95904e-05
2.07219e-07
6.79144e-05
1.02061e-06
5.17521e-05
5.8883e-07
3.86566e-05
5.58201e-07
2.81411e-05
3.67457e-07
2.06274e-05
4.57319e-07
1.51098e-05
2.41259e-07
1.10751e-05
2.03324e-07
8.22317e-06
4.62973e-08
5.99874e-06
8.75728e-08
4.39286e-06
1.0664e-07
3.18896e-06
6.27253e-08
2.27031e-06
6.18518e-08
1.55466e-06
6.33751e-08
1.08554e-06
2.91326e-08
7.59507e-07
1.45619e-08
5.23976e-07
9.76916e-09
3.55574e-07
8.8218e-09
2.19625e-07
7.57857e-09
1.06792e-07
6.19133e-09
6.22035e-09
9.15604e-08
1.67992e-09
1.86622e-07
2.61823e-10
3.02289e-07
1.9082e-09
4.43264e-07
4.55688e-09
6.37022e-07
5.52218e-09
9.21557e-07
5.41736e-09
1.29756e-06
1.31119e-08
1.8213e-06
7.03145e-09
2.51008e-06
6.67808e-09
3.44181e-06
2.40998e-09
4.66051e-06
1.77764e-08
6.31766e-06
4.4111e-08
8.54389e-06
8.06215e-08
1.13387e-05
1.32759e-07
1.51277e-05
2.24253e-08
2.0158e-05
-1.82848e-08
2.66859e-05
-1.04002e-07
3.5447e-05
-1.92551e-07
4.63937e-05
-7.41747e-08
6.0235e-05
-5.14323e-08
7.86853e-05
-8.94425e-08
0.000101443
6.30823e-07
0.00013074
9.00798e-07
0.000165874
3.63168e-07
0.00020769
5.76942e-07
0.000259596
-2.74404e-07
0.000320504
1.80187e-06
0.000391699
3.00682e-06
0.000471714
5.18494e-06
0.00056356
9.70714e-06
0.000673436
5.46666e-06
0.000789741
6.27766e-06
0.000917685
5.78314e-06
0.00105054
4.30161e-06
0.00119436
9.12754e-07
0.00133545
-2.19754e-06
0.00144919
4.11124e-06
0.00154275
8.19866e-06
0.00160321
9.75925e-06
0.0016405
2.19457e-06
0.00164864
6.70539e-06
0.00163899
6.93555e-06
0.00162937
4.41202e-06
0.00162436
7.97704e-06
0.00162397
4.28639e-07
0.00162447
-5.49314e-06
0.00161543
-1.72912e-06
0.00160635
-7.30699e-06
0.00159171
-1.05008e-05
0.00162653
-8.84064e-05
0.00157448
2.93634e-05
0.00153861
9.02349e-06
0.00152459
3.82958e-06
0.00152152
4.39435e-06
0.00152606
9.71797e-06
0.00153186
1.12041e-05
0.00154255
7.79857e-06
0.00155603
4.17326e-06
0.00156832
8.58521e-06
0.00156815
4.26664e-06
0.00155117
3.285e-06
0.00151118
-2.3681e-07
0.00145244
-2.83384e-06
0.00138417
-5.3541e-06
0.00130052
-6.90491e-06
0.00120371
-8.44306e-06
0.0011222
-2.01006e-05
0.00102875
-1.08981e-05
0.000913274
-2.86834e-06
0.000792329
-8.0132e-07
0.000666905
6.85784e-07
0.000542846
-2.84247e-07
0.000442999
-4.09424e-06
0.000353298
-3.34188e-06
0.000273179
5.55051e-07
0.00021108
-2.81082e-06
0.000167465
-5.54862e-06
0.000132254
-2.78393e-06
0.000101233
-7.27116e-07
7.681e-05
-5.80205e-07
5.84548e-05
-4.51188e-07
4.40685e-05
-4.52041e-07
3.29015e-05
-3.07314e-07
2.43589e-05
-2.35035e-07
1.82712e-05
-2.57828e-07
1.34763e-05
-1.15451e-07
9.99008e-06
-1.12906e-07
7.24018e-06
-5.98206e-08
5.21236e-06
-1.78972e-08
3.76723e-06
-2.26692e-08
2.69232e-06
-1.63643e-08
1.93178e-06
-1.94707e-08
1.36991e-06
-1.20257e-09
9.71937e-07
-1.50567e-08
6.80303e-07
-1.25702e-08
4.64891e-07
-8.41813e-09
3.11076e-07
-8.79792e-09
1.91012e-07
-5.42388e-09
9.16317e-08
-3.22403e-09
-3.49976e-09
1.03009e-07
2.09877e-07
3.41693e-07
5.12784e-07
7.39213e-07
1.04279e-06
1.46223e-06
2.0246e-06
2.78894e-06
3.82017e-06
5.22509e-06
7.13057e-06
9.69095e-06
1.3114e-05
1.74928e-05
2.3204e-05
3.0578e-05
4.00408e-05
5.23185e-05
6.79798e-05
8.77098e-05
0.000113154
0.000144891
0.000183069
0.000229322
0.000283582
0.000349523
0.000427097
0.000517456
0.000623258
0.000735236
0.000856443
0.000983715
0.00111318
0.0012402
0.00135551
0.00146035
0.00154794
0.00161381
0.00164965
0.00166743
0.00166797
0.00166078
0.00165885
0.00164664
0.00162851
0.00161643
0.00161039
0.00161102
0.00152668
0.00152603
0.0015117
0.00150712
0.00151072
0.00152417
0.00154014
0.00155447
0.00156403
0.00157836
0.00158455
0.00157942
0.00155756
0.00150948
0.00143713
0.00134708
0.00124233
0.0011187
0.0010009
0.000885331
0.000769124
0.000656464
0.000550148
0.000453215
0.000367827
0.000297431
0.000236426
0.000183673
0.000142297
0.000110203
8.46196e-05
6.4499e-05
4.8692e-05
3.65236e-05
2.7232e-05
2.01305e-05
1.48672e-05
1.09047e-05
7.98007e-06
5.83569e-06
4.24334e-06
3.07314e-06
2.20924e-06
1.59056e-06
1.12844e-06
7.91448e-07
5.45867e-07
3.60944e-07
2.20149e-07
1.06983e-07
)
;

boundaryField
{
    sides1
    {
        type            calculated;
        value           nonuniform List<scalar> 
20
(
7.16715e-09
6.2053e-09
6.50913e-09
7.57057e-09
7.88856e-09
8.06237e-09
8.20334e-09
7.50004e-09
6.70412e-09
7.46409e-09
-8.18172e-09
-7.24678e-09
-8.00227e-09
-7.38324e-09
-6.71886e-09
-7.30278e-09
-8.0123e-09
-7.58702e-09
-6.97241e-09
-7.68462e-09
)
;
    }
    sides2
    {
        type            calculated;
        value           uniform 0;
    }
    empty
    {
        type            empty;
        value           nonuniform 0();
    }
}


// ************************************************************************* //
