/*--------------------------------*- C++ -*----------------------------------*\
| =========                 |                                                 |
| \\      /  F ield         | OpenFOAM: The Open Source CFD Toolbox           |
|  \\    /   O peration     | Version:  3.0.1                                 |
|   \\  /    A nd           | Web:      www.OpenFOAM.org                      |
|    \\/     M anipulation  |                                                 |
\*---------------------------------------------------------------------------*/
FoamFile
{
    version     2.0;
    format      ascii;
    class       volScalarField;
    location    "0.0002";
    object      T;
}
// * * * * * * * * * * * * * * * * * * * * * * * * * * * * * * * * * * * * * //

dimensions      [0 0 0 1 0 0 0];

internalField   nonuniform List<scalar> 
1000
(
289
289
289
288.999
288.999
288.999
288.999
288.998
288.997
288.996
288.995
288.993
288.99
288.986
288.98
288.973
288.963
288.95
288.932
288.908
288.877
288.837
288.784
288.716
288.63
288.521
288.385
288.218
288.014
287.768
287.474
287.129
286.731
286.285
285.793
285.269
284.719
284.172
283.638
283.161
282.776
282.488
282.313
282.284
282.389
282.435
282.374
281.983
281.603
283.319
287.596
291.739
294.253
295.336
295.583
295.641
295.725
295.781
295.798
295.697
295.483
295.162
294.732
294.23
293.661
293.077
292.498
291.953
291.451
291.015
290.632
290.307
290.038
289.813
289.632
289.487
289.373
289.283
289.214
289.16
289.119
289.088
289.064
289.047
289.034
289.024
289.018
289.013
289.009
289.006
289.005
289.003
289.002
289.002
289.001
289.001
289.001
289
289
289
289
289
289
288.999
288.999
288.999
288.999
288.998
288.997
288.996
288.995
288.993
288.99
288.986
288.98
288.973
288.963
288.949
288.931
288.908
288.877
288.835
288.781
288.713
288.626
288.515
288.38
288.214
288.01
287.767
287.475
287.129
286.728
286.278
285.781
285.266
284.734
284.174
283.648
283.147
282.776
282.491
282.304
282.273
282.397
282.48
282.487
282.041
281.384
282.477
286.214
290.964
294.134
295.339
295.594
295.657
295.734
295.78
295.795
295.7
295.496
295.186
294.757
294.257
293.69
293.095
292.505
291.955
291.425
291.006
290.635
290.312
290.045
289.817
289.628
289.486
289.374
289.283
289.216
289.161
289.119
289.088
289.065
289.047
289.034
289.024
289.018
289.012
289.009
289.006
289.005
289.003
289.002
289.002
289.001
289.001
289.001
289
289
289
289
289
289
288.999
288.999
288.999
288.999
288.998
288.997
288.996
288.995
288.993
288.99
288.985
288.979
288.972
288.961
288.948
288.928
288.904
288.872
288.83
288.773
288.704
288.609
288.497
288.361
288.186
287.985
287.745
287.464
287.114
286.704
286.254
285.752
285.235
284.718
284.206
283.646
283.148
282.788
282.507
282.316
282.216
282.316
282.417
282.54
282.524
282.415
282.886
285.529
290.366
294.028
295.332
295.613
295.681
295.733
295.76
295.773
295.68
295.474
295.172
294.753
294.266
293.712
293.113
292.508
291.94
291.393
291.001
290.663
290.366
290.067
289.834
289.622
289.489
289.377
289.287
289.225
289.165
289.125
289.091
289.067
289.048
289.035
289.025
289.018
289.013
289.009
289.007
289.005
289.003
289.002
289.002
289.001
289.001
289.001
289
289
289
289
289
289
288.999
288.999
288.999
288.998
288.998
288.997
288.996
288.994
288.992
288.99
288.985
288.979
288.97
288.961
288.947
288.926
288.901
288.869
288.827
288.764
288.687
288.584
288.479
288.346
288.163
287.974
287.744
287.463
287.099
286.67
286.232
285.729
285.229
284.707
284.212
283.649
283.161
282.783
282.507
282.334
282.195
282.172
282.298
282.572
283.08
283.623
284.111
286.256
290.654
294.073
295.33
295.6
295.671
295.724
295.725
295.753
295.664
295.454
295.18
294.75
294.284
293.74
293.118
292.52
291.977
291.435
290.996
290.703
290.423
290.091
289.855
289.687
289.51
289.387
289.306
289.234
289.17
289.129
289.096
289.069
289.05
289.035
289.026
289.018
289.013
289.009
289.007
289.005
289.003
289.002
289.002
289.001
289.001
289.001
289
289
289
289
289
289
288.999
288.999
288.999
288.998
288.998
288.997
288.996
288.994
288.992
288.989
288.985
288.979
288.97
288.959
288.944
288.925
288.898
288.864
288.821
288.765
288.694
288.6
288.482
288.342
288.173
287.98
287.734
287.438
287.1
286.67
286.22
285.718
285.216
284.737
284.134
283.66
283.145
282.779
282.491
282.32
282.178
282.117
282.26
282.472
282.864
283.521
284.561
287.038
291.023
294.094
295.299
295.6
295.687
295.751
295.76
295.731
295.636
295.453
295.178
294.767
294.29
293.731
293.151
292.588
291.995
291.483
290.997
290.682
290.433
290.109
289.87
289.679
289.518
289.405
289.308
289.229
289.173
289.132
289.097
289.07
289.049
289.035
289.026
289.018
289.013
289.009
289.007
289.005
289.003
289.002
289.002
289.001
289.001
289.001
289
289
289
289
289
289
288.999
288.999
288.999
288.998
288.998
288.997
288.996
288.994
288.992
288.989
288.985
288.978
288.97
288.959
288.944
288.924
288.898
288.859
288.823
288.776
288.702
288.614
288.493
288.35
288.188
287.981
287.721
287.395
287.106
286.744
286.206
285.686
285.168
284.666
284.06
283.61
283.183
282.773
282.488
282.332
282.209
282.188
282.292
282.338
282.491
283.126
284.264
286.98
291.06
294.195
295.344
295.584
295.655
295.732
295.77
295.733
295.615
295.426
295.17
294.754
294.286
293.731
293.255
292.597
292.021
291.509
291.035
290.696
290.397
290.112
289.871
289.679
289.524
289.404
289.307
289.23
289.176
289.134
289.095
289.068
289.048
289.035
289.026
289.018
289.013
289.01
289.007
289.005
289.003
289.003
289.002
289.001
289.001
289.001
289
289
289
289
289
289
288.999
288.999
288.999
288.999
288.998
288.997
288.996
288.994
288.992
288.989
288.985
288.978
288.97
288.96
288.944
288.924
288.901
288.864
288.827
288.784
288.705
288.605
288.499
288.365
288.197
287.995
287.722
287.404
287.049
286.643
286.196
285.704
285.154
284.611
284.051
283.551
283.142
282.763
282.51
282.353
282.244
282.28
282.327
282.324
282.393
282.651
283.783
286.491
291.053
294.404
295.405
295.554
295.618
295.709
295.739
295.721
295.622
295.436
295.177
294.751
294.262
293.748
293.262
292.641
292.071
291.57
291.151
290.718
290.349
290.107
289.869
289.68
289.532
289.403
289.304
289.229
289.175
289.131
289.093
289.066
289.047
289.035
289.026
289.019
289.014
289.01
289.007
289.005
289.003
289.002
289.002
289.001
289.001
289.001
289
289
289
289
289
289
288.999
288.999
288.999
288.999
288.998
288.997
288.996
288.995
288.992
288.99
288.985
288.979
288.971
288.96
288.946
288.927
288.903
288.869
288.832
288.783
288.708
288.61
288.504
288.366
288.199
288.004
287.728
287.417
287.048
286.633
286.162
285.636
285.14
284.582
284.036
283.513
283.045
282.729
282.489
282.364
282.261
282.359
282.461
282.475
282.426
282.354
283
286.035
290.97
294.465
295.404
295.556
295.62
295.718
295.737
295.7
295.586
295.43
295.179
294.755
294.237
293.744
293.175
292.652
292.097
291.631
291.176
290.738
290.39
290.122
289.88
289.692
289.554
289.414
289.308
289.229
289.173
289.128
289.092
289.066
289.048
289.036
289.026
289.019
289.014
289.01
289.007
289.005
289.003
289.002
289.002
289.001
289.001
289.001
289
289
289
289
289
289
288.999
288.999
288.999
288.999
288.998
288.997
288.996
288.995
288.993
288.99
288.985
288.979
288.972
288.961
288.948
288.929
288.905
288.874
288.834
288.781
288.712
288.618
288.507
288.362
288.196
287.995
287.725
287.412
287.042
286.624
286.134
285.637
285.104
284.546
283.992
283.454
283.029
282.716
282.513
282.362
282.251
282.371
282.481
282.593
282.317
281.839
282.627
286.116
291.185
294.401
295.356
295.531
295.602
295.721
295.745
295.702
295.559
295.401
295.2
294.778
294.253
293.722
293.185
292.665
292.136
291.639
291.181
290.755
290.412
290.152
289.897
289.7
289.552
289.419
289.313
289.232
289.173
289.127
289.093
289.067
289.048
289.036
289.026
289.019
289.013
289.009
289.007
289.005
289.003
289.002
289.002
289.001
289.001
289.001
289
289
289
289
289
289
288.999
288.999
288.999
288.999
288.998
288.997
288.996
288.995
288.992
288.989
288.985
288.98
288.972
288.962
288.948
288.93
288.905
288.874
288.833
288.779
288.709
288.618
288.505
288.362
288.188
287.976
287.718
287.404
287.035
286.614
286.135
285.636
285.093
284.518
283.972
283.453
283.04
282.754
282.541
282.363
282.204
282.337
282.442
282.558
282.358
282.024
283.195
286.883
291.522
294.4
295.355
295.488
295.549
295.685
295.728
295.69
295.551
295.384
295.146
294.743
294.248
293.737
293.188
292.659
292.143
291.638
291.178
290.766
290.431
290.164
289.911
289.707
289.549
289.419
289.315
289.234
289.174
289.128
289.094
289.068
289.05
289.036
289.026
289.019
289.013
289.01
289.007
289.005
289.003
289.002
289.002
289.001
289.001
289.001
289
289
289
)
;

boundaryField
{
    sides1
    {
        type            zeroGradient;
    }
    sides2
    {
        type            slip;
    }
    empty
    {
        type            empty;
    }
}


// ************************************************************************* //
