/*--------------------------------*- C++ -*----------------------------------*\
| =========                 |                                                 |
| \\      /  F ield         | OpenFOAM: The Open Source CFD Toolbox           |
|  \\    /   O peration     | Version:  3.0.1                                 |
|   \\  /    A nd           | Web:      www.OpenFOAM.org                      |
|    \\/     M anipulation  |                                                 |
\*---------------------------------------------------------------------------*/
FoamFile
{
    version     2.0;
    format      ascii;
    class       volScalarField;
    location    "0.00015";
    object      minKappa;
}
// * * * * * * * * * * * * * * * * * * * * * * * * * * * * * * * * * * * * * //

dimensions      [0 0 0 0 0 0 0];

internalField   nonuniform List<scalar> 
1000
(
0.800711
0.800711
0.800711
0.800712
0.800712
0.800712
0.800712
0.800711
0.800711
0.800711
0.800711
0.800711
0.800711
0.800712
0.800712
0.800713
0.800712
0.800712
0.800712
0.800712
0.800712
0.800712
0.800713
0.800714
0.800717
0.800724
0.800731
0.800742
0.800786
0.800899
0.801016
0.801289
0.801682
0.802333
0.80326
0.804628
0.806399
0.808683
0.811152
0.813656
0.815582
0.816842
0.817626
0.81828
0.818806
0.819071
0.818678
0.817275
0.813978
0.807958
0.799359
0.790378
0.784037
0.78153
0.781492
0.781492
0.781492
0.782391
0.783331
0.783898
0.784622
0.785861
0.78791
0.790437
0.793091
0.795399
0.797257
0.798549
0.799431
0.799978
0.800293
0.800489
0.800593
0.80065
0.800685
0.800696
0.800705
0.800708
0.80071
0.800711
0.800711
0.800711
0.800712
0.800712
0.800712
0.800712
0.800712
0.800712
0.800712
0.800712
0.800712
0.800712
0.800712
0.800712
0.800712
0.800712
0.800712
0.800712
0.800712
0.800712
0.800711
0.800711
0.800711
0.800712
0.800712
0.800712
0.800712
0.800711
0.800711
0.800711
0.800711
0.800711
0.800711
0.800712
0.800712
0.800712
0.800712
0.800711
0.800711
0.800711
0.800712
0.800712
0.800713
0.800714
0.800716
0.800722
0.80073
0.800751
0.800791
0.800884
0.801014
0.801285
0.801669
0.802319
0.803245
0.804601
0.806382
0.808689
0.811154
0.813692
0.815615
0.816877
0.817715
0.818412
0.818951
0.819119
0.818632
0.81708
0.813709
0.807706
0.799273
0.790508
0.784324
0.781911
0.781806
0.781806
0.781806
0.782517
0.783372
0.783893
0.784592
0.785793
0.787798
0.790281
0.792927
0.795316
0.79721
0.798544
0.799436
0.799983
0.800291
0.800487
0.800598
0.800654
0.800685
0.800696
0.800704
0.800708
0.80071
0.800711
0.800711
0.800711
0.800712
0.800712
0.800712
0.800712
0.800712
0.800712
0.800712
0.800712
0.800712
0.800712
0.800712
0.800712
0.800712
0.800712
0.800712
0.800712
0.800712
0.800712
0.800711
0.800711
0.800711
0.800712
0.800712
0.800712
0.800711
0.800711
0.800711
0.800711
0.800711
0.800711
0.800712
0.800712
0.800712
0.800712
0.800711
0.800711
0.800711
0.800711
0.800711
0.800712
0.800712
0.800713
0.800713
0.800723
0.800729
0.800755
0.800784
0.800875
0.801005
0.801295
0.801678
0.802387
0.803236
0.804555
0.80639
0.808677
0.811176
0.813661
0.815667
0.816921
0.817772
0.818547
0.819119
0.819135
0.81846
0.816712
0.813218
0.807331
0.799181
0.790796
0.785046
0.782688
0.782291
0.782291
0.782291
0.782745
0.783348
0.783961
0.784694
0.785984
0.787769
0.79011
0.792726
0.795119
0.797039
0.798432
0.79929
0.799884
0.800266
0.800467
0.800587
0.800646
0.800681
0.800695
0.800704
0.800708
0.80071
0.800711
0.800711
0.800711
0.800711
0.800712
0.800712
0.800712
0.800712
0.800712
0.800712
0.800712
0.800712
0.800712
0.800712
0.800712
0.800712
0.800712
0.800712
0.800712
0.800712
0.800712
0.800711
0.800711
0.800712
0.800712
0.800712
0.800712
0.800712
0.800711
0.800711
0.800711
0.800711
0.800711
0.800712
0.800712
0.800712
0.800712
0.800711
0.800711
0.800711
0.800711
0.800711
0.800712
0.800713
0.800714
0.800716
0.800723
0.800734
0.800754
0.800793
0.800876
0.801006
0.801296
0.801689
0.802395
0.803239
0.804611
0.806357
0.808645
0.811075
0.813462
0.815787
0.817115
0.817873
0.818536
0.819056
0.818934
0.818174
0.816403
0.812923
0.80711
0.799172
0.791161
0.785719
0.783243
0.782656
0.782656
0.782656
0.782842
0.783482
0.784046
0.78484
0.78605
0.787583
0.789679
0.792369
0.794677
0.796906
0.798294
0.799304
0.799899
0.800245
0.80046
0.800568
0.800634
0.80068
0.800694
0.800704
0.800708
0.80071
0.800711
0.800711
0.800711
0.800712
0.800712
0.800712
0.800712
0.800712
0.800712
0.800712
0.800712
0.800712
0.800712
0.800712
0.800712
0.800712
0.800712
0.800712
0.800712
0.800712
0.800712
0.800712
0.800712
0.800712
0.800712
0.800712
0.800712
0.800712
0.800712
0.800711
0.800711
0.800711
0.800712
0.800712
0.800712
0.800712
0.800712
0.800712
0.800712
0.800712
0.800712
0.800712
0.800712
0.800713
0.800714
0.800717
0.800723
0.800734
0.800757
0.800801
0.800887
0.801029
0.801307
0.801739
0.802377
0.803276
0.804649
0.80637
0.808711
0.811022
0.813411
0.81575
0.817205
0.818057
0.818576
0.818867
0.818694
0.817977
0.816333
0.812989
0.807155
0.799191
0.791286
0.78592
0.783495
0.782825
0.782825
0.782825
0.782985
0.78342
0.783945
0.784635
0.785806
0.787472
0.789942
0.79248
0.794885
0.796937
0.79834
0.799329
0.799904
0.800251
0.800466
0.800581
0.800646
0.800676
0.800694
0.800703
0.800707
0.80071
0.80071
0.800711
0.800711
0.800711
0.800712
0.800712
0.800712
0.800712
0.800712
0.800712
0.800712
0.800712
0.800712
0.800712
0.800712
0.800712
0.800712
0.800712
0.800712
0.800712
0.800712
0.800712
0.800712
0.800712
0.800711
0.800711
0.800711
0.800711
0.800712
0.800712
0.800712
0.800712
0.800712
0.800712
0.800712
0.800712
0.800712
0.800712
0.800712
0.800712
0.800712
0.800712
0.800713
0.800713
0.800715
0.800717
0.800723
0.800734
0.800757
0.800804
0.800884
0.801041
0.801306
0.801763
0.802362
0.803337
0.804801
0.806577
0.808832
0.811115
0.813547
0.815631
0.817311
0.818054
0.818475
0.818707
0.818595
0.818081
0.816668
0.813388
0.807311
0.798965
0.79093
0.785737
0.783456
0.782863
0.782863
0.782863
0.78296
0.783388
0.783854
0.784502
0.785745
0.787552
0.790047
0.792527
0.794864
0.796901
0.79837
0.799397
0.799954
0.800295
0.800457
0.800577
0.800646
0.800672
0.800695
0.800703
0.800708
0.80071
0.800711
0.800711
0.800711
0.800711
0.800712
0.800712
0.800712
0.800712
0.800712
0.800712
0.800712
0.800712
0.800712
0.800712
0.800712
0.800712
0.800712
0.800712
0.800712
0.800712
0.800712
0.800712
0.800712
0.800711
0.800711
0.800711
0.800711
0.800711
0.800711
0.800712
0.800712
0.800712
0.800712
0.800712
0.800712
0.800712
0.800712
0.800712
0.800712
0.800712
0.800712
0.800712
0.800713
0.800713
0.800715
0.800717
0.800723
0.800735
0.800759
0.800807
0.800885
0.801055
0.801335
0.80173
0.802387
0.803484
0.804859
0.806712
0.808958
0.811289
0.813687
0.815661
0.817375
0.818026
0.818394
0.818603
0.818631
0.818281
0.81706
0.813788
0.807311
0.798476
0.790392
0.785326
0.783295
0.782795
0.782795
0.782795
0.782874
0.783315
0.783733
0.784489
0.786005
0.787649
0.789874
0.792456
0.794753
0.796933
0.798375
0.799442
0.799952
0.800286
0.800471
0.80057
0.800644
0.800677
0.800694
0.800703
0.800708
0.800709
0.800711
0.800711
0.800711
0.800711
0.800712
0.800712
0.800712
0.800712
0.800712
0.800712
0.800712
0.800712
0.800712
0.800712
0.800712
0.800712
0.800712
0.800712
0.800712
0.800712
0.800712
0.800712
0.800712
0.800711
0.800711
0.800711
0.800711
0.800711
0.800711
0.800711
0.800712
0.800712
0.800712
0.800712
0.800711
0.800711
0.800711
0.800711
0.800712
0.800712
0.800712
0.800712
0.800712
0.800713
0.800714
0.800718
0.800723
0.800736
0.800761
0.800807
0.800875
0.801007
0.801293
0.801681
0.802491
0.803627
0.804908
0.806634
0.809135
0.811447
0.813783
0.815863
0.817279
0.817898
0.818303
0.818563
0.818627
0.818331
0.817159
0.81384
0.807222
0.798281
0.790087
0.785103
0.783189
0.782686
0.782686
0.782686
0.782773
0.783174
0.783652
0.784467
0.785883
0.787643
0.790046
0.792788
0.795113
0.797062
0.798461
0.799459
0.800003
0.800321
0.800497
0.8006
0.800646
0.800677
0.800696
0.800704
0.800708
0.80071
0.800711
0.800711
0.800711
0.800712
0.800712
0.800712
0.800712
0.800712
0.800712
0.800712
0.800712
0.800712
0.800712
0.800712
0.800712
0.800712
0.800712
0.800712
0.800712
0.800712
0.800712
0.800712
0.800712
0.800712
0.800711
0.800711
0.800711
0.800711
0.800711
0.800712
0.800712
0.800712
0.800712
0.800712
0.800711
0.800711
0.800711
0.800711
0.800711
0.800712
0.800712
0.800712
0.800712
0.800713
0.800714
0.800717
0.800723
0.800734
0.800756
0.800797
0.800871
0.800986
0.801286
0.801673
0.802532
0.803684
0.805094
0.806856
0.809053
0.811517
0.813773
0.815803
0.81719
0.817798
0.818242
0.818524
0.81853
0.818171
0.816937
0.813618
0.807191
0.798414
0.790264
0.785204
0.783086
0.782578
0.782578
0.782578
0.782705
0.783118
0.783602
0.784337
0.785636
0.787633
0.790193
0.79293
0.795385
0.797253
0.798582
0.799454
0.800009
0.800336
0.800501
0.8006
0.800665
0.800684
0.800698
0.800704
0.800708
0.80071
0.800711
0.800711
0.800711
0.800712
0.800712
0.800712
0.800712
0.800712
0.800712
0.800712
0.800712
0.800712
0.800712
0.800712
0.800712
0.800712
0.800712
0.800712
0.800712
0.800712
0.800712
0.800712
0.800712
0.800711
0.800711
0.800711
0.800711
0.800711
0.800712
0.800712
0.800712
0.800712
0.800712
0.800712
0.800711
0.800711
0.800711
0.800711
0.800711
0.800711
0.800711
0.800711
0.800712
0.800713
0.800714
0.800718
0.800724
0.800736
0.800757
0.800799
0.800874
0.800994
0.801296
0.801703
0.802547
0.803637
0.805098
0.806896
0.809011
0.81152
0.813849
0.81571
0.817052
0.817736
0.818205
0.818485
0.81843
0.81801
0.816693
0.813411
0.807167
0.798583
0.790407
0.785245
0.783076
0.782529
0.782529
0.782529
0.782656
0.783097
0.783607
0.784371
0.785649
0.787707
0.790311
0.793049
0.795428
0.797301
0.79858
0.799461
0.799978
0.800312
0.800492
0.800585
0.800666
0.800679
0.800699
0.800704
0.800708
0.80071
0.800711
0.800711
0.800711
0.800712
0.800712
0.800712
0.800712
0.800712
0.800712
0.800712
0.800712
0.800712
0.800712
0.800712
0.800712
0.800712
0.800712
0.800712
0.800712
0.800712
0.800712
)
;

boundaryField
{
    sides1
    {
        type            calculated;
        value           uniform 0;
    }
    sides2
    {
        type            calculated;
        value           uniform 0;
    }
    empty
    {
        type            empty;
    }
}


// ************************************************************************* //
