/*--------------------------------*- C++ -*----------------------------------*\
| =========                 |                                                 |
| \\      /  F ield         | OpenFOAM: The Open Source CFD Toolbox           |
|  \\    /   O peration     | Version:  2012                                  |
|   \\  /    A nd           | Website:  www.openfoam.com                      |
|    \\/     M anipulation  |                                                 |
\*---------------------------------------------------------------------------*/
FoamFile
{
    version     2.0;
    format      ascii;
    class       volScalarField;
    location    "0.95";
    object      maxKappa;
}
// * * * * * * * * * * * * * * * * * * * * * * * * * * * * * * * * * * * * * //

dimensions      [0 0 0 0 0 0 0];


internalField   nonuniform List<scalar> 
2268
(
1.24702e-07
2.72375e-07
5.013e-07
8.29912e-07
1.22719e-06
1.70845e-06
2.18503e-06
2.62369e-06
2.90014e-06
2.94773e-06
2.94773e-06
2.7692e-06
2.37541e-06
1.8065e-06
1.10668e-06
7.7291e-07
1.65884e-06
2.48187e-06
3.0256e-06
3.20692e-06
3.20692e-06
2.5366e-06
1.56941e-06
1.3439e-07
2.94554e-07
5.31942e-07
8.59014e-07
1.24953e-06
1.72797e-06
2.21289e-06
2.66055e-06
2.9469e-06
2.99999e-06
2.99999e-06
2.82231e-06
2.44392e-06
1.89229e-06
1.23038e-06
9.99483e-07
1.78526e-06
2.59344e-06
3.12084e-06
3.31287e-06
3.31287e-06
2.81217e-06
1.95308e-06
2.01426e-07
3.28072e-07
5.42528e-07
8.67061e-07
1.2933e-06
1.82286e-06
2.33442e-06
2.78376e-06
3.04963e-06
3.09934e-06
3.09934e-06
2.93742e-06
2.57084e-06
2.05361e-06
1.50814e-06
1.46975e-06
2.14875e-06
2.89309e-06
3.38716e-06
3.62271e-06
3.62271e-06
3.11253e-06
2.29191e-06
2.00485e-07
3.34615e-07
5.84137e-07
9.41241e-07
1.38008e-06
1.89627e-06
2.41482e-06
2.89385e-06
3.19414e-06
3.27558e-06
3.27558e-06
3.12722e-06
2.78596e-06
2.30675e-06
1.81603e-06
1.78164e-06
2.41381e-06
3.14259e-06
3.72413e-06
4.15304e-06
4.15304e-06
3.95083e-06
3.29353e-06
2.46828e-07
3.89874e-07
6.30756e-07
9.81568e-07
1.47198e-06
2.07855e-06
2.64197e-06
3.13345e-06
3.41316e-06
3.4845e-06
3.4845e-06
3.3588e-06
3.03226e-06
2.60251e-06
2.22789e-06
2.41253e-06
3.03175e-06
3.66641e-06
4.29471e-06
4.87937e-06
4.87937e-06
4.68089e-06
4.07411e-06
2.51758e-07
4.13592e-07
7.39717e-07
1.16902e-06
1.68458e-06
2.24045e-06
2.79827e-06
3.34519e-06
3.6948e-06
3.81212e-06
3.81212e-06
3.68858e-06
3.39196e-06
3.00593e-06
2.663e-06
2.7886e-06
3.31476e-06
3.897e-06
4.60335e-06
5.31026e-06
5.43381e-06
5.43381e-06
5.38502e-06
2.60556e-07
4.8233e-07
7.84792e-07
1.18758e-06
1.76863e-06
2.48772e-06
3.14048e-06
3.71667e-06
4.04693e-06
4.14112e-06
4.14112e-06
4.05987e-06
3.78416e-06
3.41958e-06
3.20031e-06
3.46628e-06
3.90866e-06
4.12998e-06
4.38024e-06
5.06423e-06
5.71165e-06
6.06404e-06
6.06404e-06
1.89997e-07
4.73678e-07
9.83087e-07
1.55257e-06
2.19629e-06
2.79711e-06
3.41015e-06
4.08778e-06
4.51616e-06
4.64006e-06
4.64006e-06
4.51978e-06
4.25708e-06
3.93646e-06
3.73765e-06
4.24973e-06
6.19016e-06
1.21276e-05
1.58049e-05
1.11732e-05
5.16162e-06
7.38471e-06
7.38471e-06
0.000483806
0.000483806
0.000416657
0.00039109
0.000364758
0.000261726
0.000140825
5.66577e-05
1.62874e-05
2.57438e-05
5.03081e-05
5.03081e-05
3.98901e-05
4.05437e-05
4.50281e-05
4.50281e-05
4.39089e-05
3.42828e-05
1.86214e-05
0.000635686
0.00120645
0.00140205
0.00140205
0.00119556
0.000834193
0.000374184
5.52446e-05
1.72843e-05
9.3174e-06
2.03535e-05
3.44364e-05
4.41292e-05
0.000136589
0.000189091
0.000209241
0.000209241
0.000124154
2.04022e-05
0.000375409
0.000792305
0.000792305
0.000754829
0.000526384
0.000437573
0.000274294
4.82163e-05
1.93556e-05
1.21919e-05
1.41902e-05
2.81438e-05
3.83325e-05
5.94764e-05
9.47344e-05
0.00020998
0.00020998
0.000168355
2.4099e-05
0.000388581
0.000622951
0.000622951
0.000389244
0.000200685
0.000121156
3.78314e-05
2.60304e-05
2.14216e-05
1.44959e-05
1.01758e-05
2.21296e-05
3.73917e-05
4.30463e-05
8.92511e-05
0.000190328
0.000190328
9.66443e-05
2.22213e-05
0.000356411
0.000705759
0.000705759
0.000519665
0.000231932
0.000133555
3.91501e-05
2.64408e-05
2.31409e-05
4.91456e-05
6.03499e-05
9.46286e-05
9.46286e-05
5.94818e-05
6.90136e-05
0.000194139
0.000194139
8.80732e-05
1.57803e-05
0.000255122
0.000548919
0.000669836
0.000669836
0.000447482
0.000244063
8.86463e-05
3.49313e-05
0.000117512
0.000211192
0.000211192
0.00015257
0.000227583
0.000227583
9.4084e-05
8.56833e-05
8.56833e-05
2.22682e-05
8.20311e-06
0.000167669
0.000287585
0.000289895
0.000289895
0.000284771
0.000284771
0.00019494
6.53825e-05
0.000365238
0.00051583
0.00051583
0.000497712
0.000274069
0.000219521
0.000211109
7.52073e-05
2.33036e-05
1.2658e-05
5.32483e-06
0.000160124
0.000250098
0.000250098
0.000242523
0.000218885
0.000218885
0.000185449
0.00010806
0.000532731
0.000627582
0.000627582
0.000447981
0.000426072
0.000341388
0.000185832
5.84057e-05
1.72519e-05
7.83096e-06
6.66546e-06
3.81572e-07
7.23973e-07
1.42157e-06
2.01029e-06
2.81341e-06
3.6884e-06
4.19726e-06
4.95362e-06
5.81191e-06
6.66773e-06
7.54002e-06
7.88575e-06
8.69032e-06
1.17572e-05
2.40579e-05
5.67602e-05
9.61044e-05
0.000299698
0.000157816
9.66448e-05
4.7717e-05
4.48462e-05
1.39486e-05
7.35295e-07
1.36192e-06
2.29935e-06
3.15496e-06
4.22491e-06
8.64394e-06
1.37848e-05
1.46802e-05
1.31526e-05
1.88559e-05
3.13583e-05
4.39038e-05
6.1013e-05
7.58676e-05
0.000240969
0.000152211
0.000454157
0.000444495
0.000421539
0.00021027
0.000129557
8.64417e-05
2.18465e-05
1.17536e-06
1.72327e-06
2.30384e-06
7.40302e-06
1.84099e-05
5.57024e-05
0.000134122
0.000177452
0.000111333
8.06434e-05
0.000101784
0.000203406
0.000299993
0.000378254
0.000310942
0.000505071
0.000594007
0.000516451
0.000366815
0.000306108
0.000127599
8.64417e-05
9.37052e-05
1.59422e-06
3.92465e-06
2.35013e-05
0.000145985
0.000211629
0.000150201
0.00026625
0.00040621
0.000389245
0.000360563
0.00055115
0.000736522
0.00067364
0.000742332
0.000573502
0.000817259
0.000688137
0.000432969
0.000294983
6.36697e-05
3.06074e-05
6.83863e-05
0.000162559
4.22119e-06
2.2434e-05
0.00023461
0.000551399
0.000575916
0.000505086
0.000454978
0.000535903
0.000975294
0.00120371
0.00133521
0.00110506
0.00102732
0.000889549
0.00088598
0.000817259
0.000480734
0.000386144
0.000109475
5.61797e-05
5.07589e-05
0.000134292
0.000162559
1.90428e-05
0.000195133
0.00061255
0.000978975
0.000920396
0.000994997
0.000894305
0.000967989
0.00161343
0.00166529
0.00166529
0.00126897
0.000840184
0.000802715
0.000874066
0.000874066
0.00067982
0.0004323
0.000103751
6.50399e-05
6.24578e-05
6.98707e-05
9.34439e-05
4.62491e-05
0.000428263
0.000967936
0.0012999
0.00113562
0.00112647
0.00129351
0.0017348
0.00192979
0.00179551
0.0013297
0.000947752
0.000846067
0.000836167
0.000811708
0.000967961
0.000690932
0.000662819
0.000252823
8.21352e-05
6.84111e-05
9.89063e-05
9.8405e-05
6.74349e-05
0.000590434
0.00126279
0.00147805
0.00136273
0.00133559
0.00190329
0.00192256
0.00192979
0.00139459
0.0010418
0.00102502
0.000948732
0.000930296
0.00102518
0.00102518
0.000962064
0.000815537
0.00059205
0.000268713
9.10887e-05
0.000205742
0.000283269
8.0788e-05
0.00090782
0.00163551
0.00152302
0.00104377
0.00124076
0.00155736
0.00187784
0.0014915
0.000947547
0.00102951
0.00102951
0.000941795
0.000931678
0.000931678
0.000893018
0.000788395
0.000851581
0.000851581
0.000727645
0.000378229
0.000191894
0.000348791
0.000308958
0.00109017
0.00178008
0.00146659
0.00092422
0.00094825
0.00106986
0.00118287
0.00096002
0.000781102
0.000952365
0.000873958
0.000887141
0.000852761
0.000890281
0.000720569
0.000676815
0.000742221
0.000695625
0.000581274
0.000475991
0.000322725
0.000309535
0.000804318
0.00129068
0.00189057
0.00166546
0.000978381
0.000620581
0.000660824
0.000658667
0.000645964
0.000477842
0.000598636
0.000680936
0.000721578
0.00070587
0.000718278
0.000560899
0.000464987
0.000547479
0.000590921
0.000606131
0.000476921
0.000369252
0.000291749
0.000811632
0.00130351
0.00189057
0.0016729
0.00105784
0.00046346
0.000436668
0.000385151
0.000379584
0.000216386
0.000335425
0.000475433
0.000515592
0.000530133
0.000544954
0.000456285
0.000423473
0.000506434
0.000595448
0.000616927
0.000591296
0.000484514
0.000379507
0.000862126
0.00131353
0.00188345
0.00163569
0.00110303
0.000519226
0.000353443
0.000246542
0.000212829
0.00014905
0.000222761
0.000310879
0.000386451
0.000410525
0.000438805
0.000415441
0.000437524
0.00049743
0.000558584
0.000616927
0.000612737
0.000571736
0.000466658
0.00101959
0.00134163
0.00178733
0.00153173
0.00104513
0.00050618
0.00031299
0.00019424
0.000136088
0.000101977
0.000141068
0.000218239
0.000301828
0.000342008
0.000382084
0.000390871
0.000421272
0.000471348
0.000531801
0.0005814
0.000612737
0.000613761
0.000579474
0.00108623
0.00138231
0.00159164
0.00144123
0.000970923
0.000476935
0.000291084
0.000169816
0.000166369
8.19124e-05
0.000150612
0.000199122
0.000263165
0.000310826
0.000352473
0.000385536
0.000428643
0.000474579
0.00052893
0.000587283
0.000622434
0.000642147
0.000661641
0.00120356
0.00151165
0.00161966
0.00141441
0.000899469
0.00044288
0.000274846
0.000170992
0.000207122
0.000130206
0.000191125
0.000201229
0.000255634
0.000298647
0.000343064
0.000380363
0.000421204
0.000463337
0.000510354
0.000564212
0.00062012
0.000669044
0.000685065
0.00129184
0.00165222
0.00165482
0.00136557
0.000842719
0.000427964
0.000303749
0.000201167
0.000249414
0.00018014
0.000232086
0.000224975
0.000272823
0.000300882
0.000340494
0.000375496
0.000414518
0.000451357
0.000489682
0.000532362
0.000580108
0.000635073
0.000685065
0.00146172
0.00182622
0.0017421
0.00135408
0.000809682
0.000435969
0.000349113
0.000248603
0.000285358
0.000225778
0.00026602
0.000254547
0.000295391
0.000316091
0.000351064
0.000381894
0.000415973
0.000448508
0.000481859
0.000515088
0.00054961
0.000586548
0.000638325
0.00151051
0.00190294
0.00181906
0.00138308
0.000799926
0.00047538
0.000387241
0.000296535
0.00031438
0.00026097
0.00029274
0.0002793
0.000313518
0.000331024
0.00036285
0.000391592
0.000423085
0.000452877
0.000484431
0.000516067
0.000547464
0.000575331
0.000599174
0.00154921
0.00200004
0.00188372
0.00139139
0.000805383
0.000523692
0.000413063
0.00033718
0.000335674
0.000293334
0.000313791
0.000299548
0.000330192
0.000338143
0.00036814
0.000388208
0.000416633
0.000444263
0.00047651
0.000511
0.000547118
0.000581141
0.000621881
0.00178745
0.00214126
0.00194514
0.00139214
0.000829066
0.000565204
0.000429077
0.000366814
0.000345118
0.000314405
0.000325855
0.000319233
0.000343611
0.000357666
0.000382413
0.000405992
0.000433247
0.000462605
0.000501892
0.000539128
0.000584423
0.000623523
0.000671361
0.00204047
0.0022913
0.00201992
0.0014164
0.000858813
0.000588984
0.000446559
0.000379279
0.000345118
0.000323141
0.000331723
0.000330023
0.000352453
0.000366762
0.000391728
0.000416575
0.000451501
0.000491118
0.000542196
0.000585979
0.000632737
0.000675952
0.000725807
0.00233273
0.00244368
0.00211948
0.00146137
0.000879736
0.000591443
0.000446582
0.000375673
0.000344008
0.000324239
0.000331723
0.000340235
0.000359361
0.000379996
0.000407497
0.000440804
0.000484014
0.000533282
0.00058319
0.000628196
0.000672879
0.000719044
0.000750998
0.00258825
0.00257649
0.00223704
0.00151551
0.000868731
0.000552293
0.000413696
0.000344093
0.000327329
0.000309475
0.000329367
0.00034334
0.000367176
0.000393099
0.000427599
0.000471525
0.000523151
0.000571722
0.000613383
0.00064998
0.000688669
0.000727815
0.000750998
0.00272334
0.00268259
0.00233515
0.001553
0.000804688
0.000450725
0.000345343
0.000294691
0.000294748
0.000296546
0.000322267
0.000349125
0.000379422
0.0004142
0.000459095
0.000511498
0.000562715
0.000603189
0.000634505
0.000663252
0.000693108
0.000717598
0.000743256
0.00274295
0.00274295
0.00242925
0.00161874
0.000711431
0.000309307
0.000257652
0.000234058
0.000248136
0.00027567
0.000314873
0.000351961
0.000391494
0.000437412
0.000492148
0.000544684
0.000586258
0.000610376
0.000629086
0.000648859
0.000675003
0.000695346
0.000708954
0.00271529
0.0026738
0.00240644
0.00169837
0.000787476
0.000220187
0.00013431
0.000149531
0.000209168
0.000269889
0.000322087
0.000368795
0.000418263
0.000474319
0.00053184
0.000575849
0.000601864
0.000613531
0.000624032
0.000636075
0.00065391
0.000658511
0.000653521
0.00262761
0.00256061
0.00229571
0.00170872
0.000942657
0.000383423
0.000178003
0.000142172
0.000219895
0.000280006
0.000337393
0.000389531
0.000446697
0.000506526
0.000561355
0.000590915
0.00060251
0.000605846
0.000614042
0.000619883
0.000623964
0.000610441
0.000584208
0.00249652
0.00240367
0.00215499
0.00168409
0.00107791
0.000539751
0.000322424
0.00026393
0.000300754
0.000330925
0.000385675
0.000432281
0.000492987
0.00054988
0.000593599
0.00060407
0.00060251
0.000595553
0.000601526
0.000596188
0.00058554
0.000551841
0.000508089
0.00234846
0.00223361
0.00203169
0.00167071
0.00111135
0.000658543
0.000453648
0.00038954
0.00039719
0.000409432
0.000449224
0.000487084
0.000547319
0.000593166
0.000621729
0.000606728
0.000596282
0.000585613
0.000584119
0.00056345
0.000537961
0.000488943
0.00043937
0.00223494
0.00219221
0.00196747
0.00157515
0.0010815
0.000736397
0.000574282
0.000509261
0.00049756
0.000497793
0.000523399
0.000556866
0.000609412
0.000638984
0.000639788
0.000619182
0.000593507
0.000573588
0.000556091
0.000521748
0.000482804
0.000428782
0.000381402
0.00215633
0.00200401
0.00177576
0.00142956
0.00106605
0.000819619
0.000683091
0.000618335
0.000593874
0.00058631
0.000601886
0.000631313
0.000671107
0.000677993
0.000647454
0.00061524
0.000580025
0.000552357
0.000519713
0.000475323
0.000429678
0.000379162
0.000336029
0.00187136
0.00175491
0.00154587
0.0013096
0.00106221
0.000878895
0.000771208
0.000715696
0.000684918
0.000673129
0.00068214
0.000706308
0.000728736
0.000703816
0.000668926
0.000618631
0.000575262
0.000531525
0.000481361
0.000429913
0.000381043
0.000334906
0.000297774
0.00163747
0.00157025
0.00141984
0.00125574
0.00108961
0.000956807
0.000862172
0.000801392
0.000768285
0.000755684
0.000762087
0.000777859
0.00077568
0.000729699
0.000670576
0.000607655
0.000553291
0.0004956
0.000438746
0.000385962
0.000339309
0.000300431
0.000271692
0.00147302
0.00144584
0.00133196
0.00121291
0.00109346
0.000991379
0.000919805
0.000877654
0.000845959
0.000834053
0.000837514
0.00084153
0.000804288
0.000753239
0.000675018
0.000604878
0.000537301
0.000468428
0.000404041
0.000345693
0.000298194
0.000266399
0.000250128
0.00137506
0.00136179
0.0012901
0.00121052
0.00112798
0.00105241
0.000989888
0.000946497
0.000918338
0.000908763
0.000908751
0.000891821
0.000838155
0.000757291
0.000665602
0.0005844
0.000503189
0.000427551
0.00036161
0.000308154
0.000269184
0.000246068
0.000240951
0.00132067
0.00130892
0.00125646
0.00119758
0.00113586
0.00108599
0.00104052
0.00101059
0.000986724
0.000977653
0.000969521
0.000926096
0.000861982
0.00076018
0.000662552
0.000570468
0.000480567
0.000399179
0.000328026
0.000270616
0.000238455
0.000229303
0.000245238
0.00129924
0.00129076
0.00126488
0.00122575
0.0011816
0.00113678
0.00109562
0.00107072
0.00105169
0.00104308
0.00101835
0.000958011
0.000863777
0.000749356
0.00064195
0.00053754
0.000441151
0.000357444
0.000291131
0.00024654
0.000225199
0.000242167
0.000255473
0.00130389
0.00129484
0.0012686
0.00124197
0.00120808
0.0011799
0.00115016
0.0011311
0.00111351
0.0010991
0.00105513
0.000985111
0.000866873
0.000744384
0.000628515
0.000518019
0.000418391
0.000331574
0.000261847
0.000215804
0.000211851
0.000237224
0.000268804
0.0013182
0.00131521
0.00130166
0.00128012
0.00125416
0.00122647
0.00120345
0.00118891
0.00117282
0.00114809
0.00108495
0.000980016
0.000846514
0.000717844
0.000594823
0.000479889
0.000377969
0.000294385
0.000237474
0.000210316
0.000230422
0.000262466
0.000283035
0.0013499
0.00134697
0.00133469
0.00132036
0.00130152
0.00128452
0.00126717
0.00125296
0.00123029
0.00118219
0.00111423
0.000986318
0.000845215
0.000710056
0.000580471
0.000461456
0.000357836
0.000274292
0.000215708
0.000197003
0.000224194
0.000261611
0.000298855
0.00138156
0.00138156
0.0013762
0.00136613
0.00135281
0.00133757
0.00132171
0.00130428
0.00127817
0.00121963
0.00110566
0.000956997
0.000808546
0.000667869
0.000537813
0.000422747
0.000326449
0.000253279
0.00020942
0.00021635
0.000250451
0.000290783
0.000298855
7.74326e-06
6.55452e-06
5.42171e-05
0.000100467
1.64361e-05
6.79869e-05
6.06489e-05
0.000127338
0.00011256
6.79869e-05
6.88065e-05
8.55585e-05
0.00011256
7.30458e-05
7.6734e-05
9.42416e-05
8.68641e-05
8.00326e-05
8.78876e-05
0.000197911
7.87709e-05
0.000111511
0.000207189
0.000525597
0.000100172
0.000378047
0.000686959
0.000724634
0.000327272
0.000540296
0.000686959
0.000724634
0.00047162
0.000540296
0.000604599
0.000583293
0.00047162
0.000469717
0.000433893
0.000382727
0.000340247
0.000360647
0.000361893
0.000303397
0.000291434
0.000277154
0.000247081
0.000228904
0.000378703
0.000333536
0.000299363
0.000230376
0.000515012
0.000508879
0.000494732
0.000409701
0.000652345
0.000711704
0.000724537
0.000626013
0.000723514
0.000792757
0.000843592
0.000805958
0.000723514
0.000792757
0.000843592
0.000805958
0.000674883
0.000712047
0.00074797
0.00078384
0.000618648
0.000637839
0.000656705
0.000676975
0.000647811
0.000665955
0.00068294
0.000700498
0.000704063
0.000725897
0.000745616
0.000764297
0.000758108
0.000776928
0.00079201
0.000803694
0.000775634
0.000787013
0.000793505
0.000803694
0.000775634
0.000787013
0.000793505
0.000796755
0.000755611
0.000757364
0.000755829
0.000751918
0.000705764
0.000697274
0.000687905
0.000675963
0.000631106
0.000613959
0.00059613
0.000578448
0.000544917
0.000523385
0.000499488
0.000481096
0.000462461
0.000440369
0.000415338
0.000398777
0.000396083
0.000375385
0.000352867
0.000338171
0.000343459
0.000325628
0.000307646
0.000296359
0.000305363
0.000291652
0.00027967
0.000273378
0.000276029
0.000267755
0.000262552
0.000262243
0.000258017
0.000255561
0.000258813
0.000268739
0.000248424
0.000257091
0.00026777
0.000281289
0.000254268
0.000267167
0.000280777
0.000296719
0.000265532
0.000281207
0.000296691
0.000314251
0.000279233
0.00029678
0.000313451
0.000331981
0.00029525
0.000313955
0.000331595
0.000350668
0.000311192
0.000330421
0.000348611
0.000367879
0.000328636
0.000348469
0.000367275
0.000386896
0.000328636
0.000348469
0.000367275
0.000386896
0.000175161
0.000195488
0.000217825
0.000303427
0.000303427
0.000262275
0.000124235
0.000181585
0.000537383
0.000545631
0.000494126
0.000251926
0.000376154
0.000376154
0.00032329
7.83726e-05
2.83238e-05
5.35099e-05
4.15915e-05
0.000204323
0.000210896
0.00020536
0.000172656
0.000241516
0.000130704
8.08512e-05
0.000338826
0.00052523
0.000545631
0.000385011
0.000195656
0.000213557
0.000224851
0.000159193
0.000117271
0.000179919
0.000145824
0.000102448
0.000284735
0.000284735
0.00022363
8.82285e-05
9.5918e-05
5.80833e-05
0.000127744
0.000311791
0.000420034
0.000348335
0.000279106
0.000318292
0.000326395
0.000326395
0.000257625
0.000293205
0.000250748
0.000250468
0.000128303
0.000319786
0.000318897
0.000112317
0.000123453
0.000103388
5.64882e-05
4.93719e-05
0.000156944
0.000260779
0.000247145
0.000295272
0.000426264
0.000431949
0.000417796
0.000394613
0.000394613
0.000365245
0.000209993
0.000173153
0.000445841
0.000419224
0.000576314
0.00067182
0.000477273
0.000255688
0.000137321
8.03569e-05
8.62455e-05
0.000232881
0.000455796
0.000628883
0.000628883
0.000628411
0.00056942
0.000442024
0.000342664
0.000262585
0.000209415
0.000647275
0.000796436
0.00101382
0.00101382
0.000860214
0.000549773
0.000331363
0.000256518
0.000250787
0.000436983
0.000566786
0.000566786
0.000555895
0.000513169
0.000424629
0.00038842
0.000410034
0.000139006
0.000170924
0.000804611
0.000806072
0.000824195
0.000891737
0.000891737
0.00085184
0.000531912
0.000379647
0.000291998
0.000267091
0.000330473
0.000353759
0.000452615
0.000446673
0.000403855
0.000520743
0.000531966
0.000357833
0.000164247
0.000681326
0.000608556
0.000383405
0.000668765
0.00103147
0.00103147
0.000783644
0.000331773
0.000352725
0.000452346
0.000525171
0.00054373
0.0005536
0.000534356
0.000456721
0.000435696
0.000531966
0.000444422
0.000205908
0.000517741
0.000287409
0.0003147
0.000509714
0.000705614
0.000831544
0.000738035
0.000642826
0.000529878
0.000497731
0.00061428
0.000692639
0.000694472
0.000650047
0.000603287
0.000650449
0.000650449
0.000365078
0.000125175
0.000267272
0.000227482
0.000351297
0.000470889
0.000535976
0.000532505
0.00073089
0.000753357
0.000747669
0.000724546
0.000757152
0.000786513
0.000815614
0.000815614
0.000813146
0.0006947
0.00042933
0.000156411
0.000155271
0.000250451
0.000351348
0.000402474
0.00040468
0.000432066
0.000724426
0.000913045
0.000913045
0.000855022
0.000746955
0.000705837
0.000691491
0.000669934
0.000618011
0.000584288
0.000415963
0.000260504
0.000137217
0.00017257
0.000274037
0.000342188
0.000264759
0.000314609
0.000707796
0.000814337
0.000814337
0.000776206
0.000679362
0.00059305
0.000572882
0.000552699
0.000514722
0.000429968
0.000359813
0.000283234
0.000211464
0.00016928
0.000180201
0.000232926
0.000283903
0.000238854
0.000370386
0.000692374
0.000816541
0.000779707
0.000654639
0.000594209
0.000594209
0.000583548
0.000532242
0.000462109
0.000386238
0.000312419
0.000251418
0.000198892
0.000178843
0.000180201
0.000356357
0.000351211
0.000402959
0.000629558
0.00091163
0.00091163
0.000784517
0.000581102
0.000667866
0.000667866
0.000644348
0.000579089
0.000492025
0.000398085
0.000313036
0.000253686
0.000211617
0.000174738
0.000168754
0.000600121
0.000622758
0.000729674
0.000928341
0.000942281
0.000942281
0.000629919
0.000659638
0.000722848
0.000722848
0.000694596
0.000616332
0.000524643
0.000430323
0.000344593
0.000273355
0.000219081
0.000162822
0.000142996
0.00085285
0.000909107
0.000947897
0.000948266
0.000948266
0.000754738
0.000516685
0.00074027
0.000754735
0.000754735
0.000731171
0.000654695
0.000562364
0.000455751
0.000355074
0.000273632
0.000206152
0.000132832
0.000107565
0.000984279
0.000984279
0.000977522
0.000932328
0.000782123
0.000458082
0.000566903
0.000735219
0.00076825
0.00076825
0.00076149
0.000690589
0.000589701
0.000473179
0.00036452
0.000268374
0.000184759
0.000107052
7.22658e-05
0.000851906
0.000866772
0.000866772
0.000796636
0.000613536
0.000425601
0.000587364
0.000727341
0.000800992
0.000820173
0.000820173
0.000762331
0.00064255
0.000495209
0.000354504
0.000237207
0.000150638
9.23267e-05
4.84367e-05
0.000742031
0.000742031
0.000740956
0.000707979
0.000621809
0.00057935
0.000693543
0.000813657
0.000890093
0.000919611
0.000919611
0.000865848
0.000725581
0.000543009
0.000367404
0.00021999
0.000128816
9.13339e-05
5.83524e-05
0.000778784
0.000799917
0.000799917
0.000795188
0.000757852
0.00074407
0.000818433
0.000913115
0.000984866
0.00102016
0.00102016
0.000978615
0.000826622
0.000608294
0.000395273
0.000214803
0.000120074
0.000112624
8.8016e-05
0.000855659
0.000868139
0.000868139
0.000854442
0.000824983
0.000838161
0.000909196
0.00100289
0.001079
0.001122
0.001122
0.0010997
0.000951242
0.000699372
0.000445967
0.000226263
0.000123085
0.000136056
0.000118512
0.000904018
0.000904018
0.000893275
0.000872105
0.000861366
0.000899939
0.000976623
0.001075
0.0011592
0.00121172
0.00121172
0.00120564
0.00107893
0.000818306
0.00051577
0.000243364
0.000134901
0.000155035
0.0001482
0.000890835
0.000890835
0.000871343
0.000859761
0.0008732
0.000926736
0.00101415
0.00112427
0.00122101
0.00128549
0.00129504
0.00129504
0.0012007
0.000952649
0.000606024
0.000278018
0.000141323
0.000171264
0.000169566
0.000845266
0.000845266
0.000829022
0.00082398
0.000854773
0.0009264
0.00103023
0.00115362
0.00126464
0.00134316
0.00136956
0.00136956
0.0013081
0.00108982
0.000718932
0.000330047
0.000152745
0.000190725
0.000190725
0.000766442
0.000766442
0.000747735
0.000754583
0.0008001
0.000885716
0.00100685
0.00115235
0.00128661
0.0013841
0.00142763
0.00142763
0.00139293
0.00121137
0.000842722
0.000401604
0.000162045
0.000208297
0.000208297
0.000660384
0.000660384
0.000661519
0.000693745
0.000754851
0.000846077
0.000967933
0.00112085
0.00127978
0.00140522
0.00146908
0.00146908
0.00145698
0.00131637
0.000977298
0.000498535
0.000178678
0.000232551
0.000232551
0.000553932
0.000554129
0.000586723
0.000641261
0.000719095
0.000818474
0.000938949
0.00108487
0.00124977
0.00140191
0.00149353
0.00150312
0.00150312
0.00139747
0.00109892
0.000606516
0.000216466
0.000257562
0.000257562
0.000454855
0.000472173
0.000522553
0.000597058
0.000690921
0.000798578
0.000920443
0.00106027
0.00121877
0.0013825
0.00150065
0.00153377
0.00153377
0.00145855
0.0012081
0.000725831
0.000266618
0.000288181
0.000288181
0.000376678
0.000401359
0.000462922
0.000551512
0.000660233
0.000777975
0.000902071
0.00103922
0.00119093
0.00135747
0.00149705
0.00155228
0.00155228
0.00150286
0.00129804
0.000837154
0.000318926
0.000322126
0.00032575
0.000333575
0.00036335
0.000428966
0.000522023
0.00063884
0.000764198
0.000890701
0.00102597
0.00116936
0.00133157
0.00148708
0.00156304
0.00156304
0.00153403
0.00136808
0.000942599
0.000376003
0.000360798
0.000370222
0.000309094
0.000343503
0.000408472
0.000498513
0.000617572
0.000748975
0.000877311
0.00101265
0.00115301
0.00130795
0.00147132
0.00156559
0.00156559
0.00155275
0.00141738
0.00103837
0.000443267
0.000405103
0.000420826
0.00031313
0.000352353
0.000413908
0.0004964
0.000611213
0.000743809
0.000872803
0.00100654
0.00114339
0.00129034
0.00145644
0.00156662
0.00156662
0.00156612
0.00145164
0.0011149
0.000508751
0.000453525
0.000478469
0.000314933
0.000359809
0.000420114
0.000495247
0.000603936
0.000736417
0.000866445
0.000999312
0.00113519
0.00127625
0.00144117
0.00156254
0.00157206
0.00157206
0.00147291
0.00117412
0.000585987
0.000505783
0.000544623
0.000336622
0.000383152
0.00044076
0.000510587
0.00061203
0.000740679
0.000870514
0.00100134
0.00113433
0.00127029
0.00143192
0.00156119
0.00157945
0.00157945
0.00149006
0.00121706
0.000637293
0.000566253
0.000618134
0.000348768
0.000398749
0.000455035
0.000520231
0.000615195
0.00074025
0.000870676
0.00100073
0.00113223
0.00126526
0.00142339
0.00155698
0.00158169
0.00158169
0.00149998
0.00125321
0.00070261
0.000624269
0.000700126
0.000376079
0.000425751
0.000480248
0.00054242
0.000632222
0.000752685
0.00088183
0.00101028
0.00113893
0.00126912
0.00142292
0.00155855
0.00158843
0.00158843
0.00151205
0.00128315
0.00074465
0.000696077
0.000789143
0.000390292
0.000441893
0.000496351
0.00055682
0.000642096
0.000758041
0.000886395
0.0010146
0.00114184
0.00127032
0.00142123
0.00155808
0.00159122
0.00159122
0.00151975
0.00130611
0.000791573
0.000758806
0.000886301
0.000418978
0.000469353
0.000522573
0.000581441
0.000664157
0.000777112
0.000903366
0.00103004
0.00115514
0.0012816
0.00142917
0.0015661
0.00160138
0.00160138
0.00153155
0.00132666
0.000815089
0.000845457
0.000988885
0.000431865
0.000483401
0.000537224
0.000595709
0.000676534
0.000786654
0.0009112
0.00103741
0.0011615
0.00128689
0.00143283
0.00157031
0.00160788
0.00160788
0.00154136
0.0013464
0.000854753
0.000918552
0.00110522
0.000462466
0.000512823
0.000565653
0.000622633
0.000701444
0.00080981
0.000932369
0.00105693
0.00117933
0.00130324
0.00144707
0.00158407
0.00162236
0.00162236
0.00155727
0.00136898
0.000868355
0.00103094
0.00121571
0.000470888
0.000522108
0.000575808
0.000633108
0.000711433
0.000818827
0.000940089
0.00106413
0.0011859
0.00130922
0.00145237
0.00158972
0.00162991
0.00162991
0.00156725
0.0013908
0.000901019
0.00110365
0.00135088
0.000506549
0.000557283
0.0006103
0.00066653
0.000742608
0.000847706
0.000966444
0.00108843
0.00120813
0.00132981
0.00147111
0.00160757
0.00164763
0.00164763
0.0015868
0.00141479
0.000904484
0.00125568
0.00135088
)
;

boundaryField
{
    leftWall
    {
        type            calculated;
        value           uniform 0;
    }
    rightWall
    {
        type            calculated;
        value           uniform 0;
    }
    lowerWall
    {
        type            calculated;
        value           uniform 0;
    }
    atmosphere
    {
        type            calculated;
        value           uniform 0;
    }
    defaultFaces
    {
        type            empty;
    }
}


// ************************************************************************* //
