/*--------------------------------*- C++ -*----------------------------------*\
| =========                 |                                                 |
| \\      /  F ield         | OpenFOAM: The Open Source CFD Toolbox           |
|  \\    /   O peration     | Version:  2012                                  |
|   \\  /    A nd           | Website:  www.openfoam.com                      |
|    \\/     M anipulation  |                                                 |
\*---------------------------------------------------------------------------*/
FoamFile
{
    version     2.0;
    format      ascii;
    class       volScalarField;
    location    "0.95";
    object      p_rgh;
}
// * * * * * * * * * * * * * * * * * * * * * * * * * * * * * * * * * * * * * //

dimensions      [1 -1 -2 0 0 0 0];


internalField   nonuniform List<scalar> 
2268
(
102332
102328
102318
102308
102293
102279
102261
102245
102227
102209
102187
102165
102138
102112
102084
102060
102036
102023
102009
102011
102010
102020
102025
102333
102329
102319
102309
102293
102279
102262
102246
102227
102209
102188
102165
102138
102112
102083
102059
102035
102021
102007
102009
102009
102019
102025
102334
102331
102320
102310
102293
102279
102261
102245
102228
102210
102188
102166
102138
102112
102082
102057
102032
102017
102004
102008
102007
102020
102027
102338
102334
102323
102312
102295
102280
102262
102246
102229
102212
102190
102167
102140
102112
102081
102054
102028
102012
101999
102002
102005
102018
102026
102341
102337
102324
102313
102295
102279
102261
102245
102230
102213
102192
102168
102140
102110
102078
102048
102020
102004
101991
101999
101999
102018
102030
102347
102343
102329
102317
102297
102281
102262
102247
102232
102216
102195
102171
102142
102110
102076
102043
102014
101995
101981
101988
101995
102017
102031
102352
102347
102331
102318
102296
102279
102260
102245
102233
102217
102199
102173
102143
102108
102071
102034
102001
101979
101968
101984
101981
102012
102032
102362
102357
102338
102324
102299
102281
102261
102246
102237
102222
102203
102178
102147
102109
102069
102027
101991
101948
101902
101926
101977
102015
102041
102179
101759
101673
101677
101734
101843
102030
102153
102034
101963
101886
101905
101903
101763
101722
101738
101741
101867
101947
102078
101653
101631
101632
101693
101778
101972
102107
102006
101948
101886
101899
101893
101727
101693
101704
101702
101846
101926
101954
101625
101613
101619
101681
101769
101952
102069
101978
101924
101861
101864
101821
101729
101696
101659
101655
101804
101920
101939
101624
101615
101627
101766
101851
101976
102030
101941
101899
101835
101827
101812
101754
101751
101686
101659
101842
101920
101934
101635
101618
101608
101742
101846
101980
102008
101917
101830
101713
101671
101712
101755
101824
101743
101751
101873
101923
101892
101636
101617
101611
101630
101685
101966
101998
101833
101635
101567
101569
101571
101652
101817
101804
101875
101912
101922
101941
101642
101630
101648
101606
101643
101925
101991
101672
101571
101569
101557
101511
101496
101767
101905
101945
101922
101913
101971
101653
101691
101683
101610
101624
101907
101970
101563
101571
101652
101714
101598
101482
101619
101934
101925
101913
101883
102373
102367
102343
102325
102297
102274
102253
102239
102238
102224
102213
102183
102149
102102
102045
101934
101786
101665
101629
101681
101737
101930
102034
102408
102400
102366
102345
102304
102276
102250
102239
102249
102235
102205
102172
102112
101966
101707
101498
101420
101418
101416
101427
101506
101662
102086
102442
102428
102375
102342
102267
102038
101886
101935
102098
102135
102116
101959
101668
101450
101409
101404
101410
101412
101477
101745
101811
101717
101912
102507
102488
102393
102071
101693
101581
101540
101496
101671
101855
101851
101555
101441
101421
101411
101400
101413
101460
101928
102160
102037
101940
101879
102592
102550
102121
101526
101468
101453
101421
101356
101390
101452
101487
101457
101473
101510
101443
101393
101405
101710
102287
102208
102040
101971
101943
102711
102468
101644
101531
101523
101534
101417
101323
101333
101351
101383
101520
101677
101686
101599
101394
101392
101886
102433
102356
102268
102276
102338
102790
102322
101472
101493
101520
101428
101324
101326
101325
101330
101352
101584
101673
101678
101590
101406
101351
101688
102407
102501
102485
102477
102508
102848
102180
101337
101372
101343
101328
101326
101327
101327
101327
101335
101436
101540
101494
101332
101333
101329
101467
102109
102517
102660
102437
102379
102920
102132
101329
101332
101327
101327
101328
101326
101326
101335
101342
101328
101326
101328
101326
101332
101335
101350
101335
101553
102219
102532
102018
102830
101880
101330
101327
101327
101327
101326
101326
101326
101329
101327
101326
101326
101327
101326
101330
101331
101328
101326
101327
101340
101868
102055
101836
101407
101328
101326
101327
101326
101327
101326
101327
101327
101326
101326
101327
101327
101327
101328
101327
101327
101326
101326
101327
101366
101758
101338
101326
101330
101326
101327
101326
101327
101326
101326
101326
101326
101326
101327
101327
101327
101327
101326
101327
101327
101327
101327
101329
101390
101327
101325
101329
101326
101327
101326
101327
101326
101327
101326
101326
101326
101327
101327
101327
101327
101327
101327
101327
101326
101327
101327
101328
101438
101325
101328
101326
101327
101326
101327
101326
101327
101326
101327
101326
101327
101326
101327
101327
101327
101327
101327
101326
101327
101326
101326
101722
101326
101328
101326
101327
101326
101327
101326
101327
101326
101327
101326
101327
101326
101327
101327
101327
101327
101327
101326
101327
101326
101326
101747
101326
101328
101326
101327
101326
101327
101326
101327
101326
101327
101326
101327
101326
101327
101326
101327
101326
101327
101326
101326
101326
101326
101769
101326
101328
101326
101327
101326
101327
101326
101327
101326
101327
101326
101327
101326
101327
101326
101327
101326
101327
101326
101326
101326
101326
101661
101326
101328
101326
101327
101326
101327
101326
101327
101326
101326
101326
101326
101326
101326
101326
101326
101326
101326
101326
101326
101326
101326
101349
101326
101327
101326
101327
101326
101327
101326
101326
101326
101326
101326
101326
101326
101326
101326
101326
101326
101326
101326
101326
101326
101326
101326
101326
101327
101326
101327
101326
101326
101326
101326
101326
101326
101326
101326
101326
101326
101326
101326
101326
101326
101326
101326
101326
101326
101326
101325
101326
101326
101326
101326
101326
101326
101326
101326
101326
101326
101326
101326
101326
101326
101326
101326
101326
101326
101326
101326
101326
101326
101325
101326
101325
101326
101325
101326
101325
101326
101326
101326
101326
101326
101326
101326
101326
101326
101326
101326
101326
101326
101326
101326
101325
101325
101325
101324
101325
101325
101325
101325
101326
101326
101326
101326
101326
101326
101326
101326
101326
101326
101326
101326
101326
101326
101326
101324
101324
101324
101324
101324
101324
101325
101325
101325
101325
101326
101326
101326
101326
101326
101326
101326
101326
101326
101326
101326
101326
101326
101324
101323
101323
101323
101323
101324
101325
101325
101325
101325
101326
101326
101326
101326
101326
101326
101326
101326
101326
101326
101326
101326
101326
101323
101323
101322
101322
101323
101324
101324
101325
101325
101325
101326
101326
101326
101326
101326
101326
101326
101326
101326
101326
101326
101326
101326
101323
101323
101322
101322
101323
101324
101324
101325
101325
101325
101326
101326
101326
101326
101326
101326
101326
101326
101326
101326
101326
101326
101326
101324
101324
101323
101323
101323
101324
101325
101325
101325
101325
101326
101326
101326
101326
101326
101326
101326
101326
101326
101326
101326
101326
101326
101324
101324
101324
101324
101324
101324
101325
101325
101325
101325
101326
101326
101326
101326
101326
101326
101326
101326
101326
101326
101326
101326
101325
101325
101325
101325
101325
101325
101325
101325
101325
101325
101326
101326
101326
101326
101326
101326
101326
101326
101326
101326
101325
101325
101325
101325
101326
101326
101326
101326
101325
101325
101325
101326
101326
101326
101326
101326
101326
101326
101326
101326
101326
101325
101325
101325
101325
101325
101325
101326
101326
101326
101326
101326
101326
101326
101326
101326
101326
101326
101326
101326
101326
101326
101326
101325
101325
101325
101325
101325
101325
101325
101326
101326
101326
101326
101326
101326
101326
101326
101326
101326
101326
101326
101326
101326
101325
101325
101325
101325
101325
101325
101325
101325
101325
101326
101326
101326
101326
101326
101326
101326
101326
101326
101326
101326
101326
101326
101326
101325
101325
101325
101325
101325
101325
101325
101325
101325
101326
101326
101326
101326
101326
101326
101326
101326
101326
101326
101326
101326
101326
101325
101325
101325
101325
101325
101325
101325
101325
101325
101325
101326
101326
101326
101326
101326
101326
101326
101326
101326
101326
101326
101326
101325
101325
101325
101325
101325
101325
101325
101325
101325
101325
101325
101326
101326
101326
101326
101326
101326
101326
101326
101326
101326
101325
101325
101325
101325
101325
101325
101325
101325
101325
101325
101325
101325
101325
101326
101326
101326
101326
101326
101326
101326
101326
101326
101326
101325
101325
101325
101325
101325
101325
101325
101325
101325
101325
101325
101325
101325
101325
101325
101325
101325
101325
101325
101325
101325
101325
101325
101325
101325
101325
101325
101325
101325
101325
101325
101325
101325
101325
101325
101325
101325
101325
101325
101325
101325
101325
101325
101325
101325
101325
101325
101325
101325
101325
101325
101325
101325
101325
101325
101325
101325
101325
101325
101325
101325
101325
101325
101325
101325
101325
101325
101325
101325
101325
101325
101325
101325
101325
101325
101325
101325
101325
101325
101325
101325
101325
101325
101325
101325
101325
101325
101325
101325
101325
101325
101325
101325
101325
101325
101325
101325
101325
101325
101325
101325
101325
101325
101325
101325
102029
102068
101951
101940
102121
101980
101980
102001
101947
101948
102112
102145
101955
102182
102204
102222
102203
102230
102273
102216
102372
102398
102360
102003
102528
102250
101658
101414
102430
101773
101344
101323
101568
101495
101452
101409
101632
101415
101408
101394
101767
101643
101441
101457
101631
101586
101484
101479
101336
101346
101353
101354
101326
101327
101328
101330
101326
101327
101328
101327
101326
101327
101327
101326
101326
101326
101327
101327
101326
101326
101326
101326
101326
101326
101326
101326
101326
101326
101326
101326
101326
101326
101326
101326
101326
101326
101326
101326
101326
101326
101326
101326
101326
101326
101326
101326
101326
101326
101326
101326
101326
101326
101326
101326
101326
101326
101326
101326
101325
101325
101325
101325
101325
101325
101325
101325
101325
101325
101325
101325
101325
101325
101325
101325
101325
101325
101325
101325
101325
101325
101325
101325
101325
101325
101325
101325
101325
101325
101325
101325
101325
101325
101325
101325
101325
101325
101325
101325
101325
101325
101325
101325
101325
101325
101325
101325
101325
101325
101325
101325
101325
101325
101325
101325
101325
101325
101325
101325
101997
101808
101720
101622
101602
101608
101954
101921
101534
101565
101774
101865
101745
101644
101732
101951
101928
101835
101766
102051
101881
101690
101692
101603
101720
102042
101666
101486
101490
101771
101889
101863
101847
101808
101765
101596
101462
101415
102028
101875
102023
102190
102151
102190
102030
101518
101495
101579
101633
101508
101388
101357
101368
101356
101331
101331
101331
102024
101817
102246
102215
102203
102217
102182
101640
101448
101415
101449
101354
101333
101333
101332
101332
101331
101331
101331
101907
101647
101736
101520
101577
101781
101974
102034
102051
101922
101653
101361
101334
101332
101332
101332
101331
101331
101331
101620
101345
101338
101339
101346
101349
101360
101544
101443
101380
101395
101403
101359
101345
101333
101332
101331
101331
101331
101340
101319
101321
101344
101373
101340
101328
101328
101328
101328
101328
101331
101373
101374
101360
101332
101330
101330
101330
101318
101318
101317
101341
101372
101335
101328
101328
101328
101328
101328
101328
101344
101371
101364
101331
101330
101330
101330
101419
101424
101450
101447
101374
101328
101328
101328
101328
101328
101328
101328
101327
101327
101327
101328
101329
101329
101329
101392
101533
101532
101524
101359
101328
101329
101328
101328
101328
101328
101328
101328
101328
101328
101328
101329
101329
101329
101365
101344
101374
101329
101329
101328
101328
101328
101328
101328
101328
101328
101328
101328
101328
101328
101329
101329
101329
101421
101349
101328
101329
101329
101328
101328
101328
101328
101328
101328
101328
101328
101328
101328
101328
101328
101328
101328
101350
101354
101351
101339
101328
101328
101327
101327
101327
101328
101328
101328
101328
101328
101328
101328
101328
101328
101328
101334
101346
101348
101333
101327
101327
101327
101327
101327
101327
101328
101328
101328
101328
101328
101328
101328
101328
101328
101326
101326
101326
101326
101327
101327
101327
101327
101327
101327
101328
101328
101328
101328
101328
101328
101328
101328
101328
101326
101326
101326
101326
101327
101327
101327
101327
101327
101327
101327
101327
101328
101328
101328
101328
101328
101328
101328
101326
101326
101326
101327
101327
101327
101327
101327
101327
101327
101327
101327
101327
101327
101328
101328
101328
101328
101328
101326
101326
101327
101327
101327
101327
101327
101327
101327
101327
101327
101327
101327
101327
101327
101327
101327
101328
101328
101326
101326
101327
101327
101327
101327
101327
101327
101327
101327
101327
101327
101327
101327
101327
101327
101327
101327
101327
101326
101326
101326
101327
101327
101327
101327
101327
101327
101327
101327
101327
101327
101327
101327
101327
101327
101327
101327
101326
101326
101326
101326
101327
101327
101327
101327
101327
101327
101327
101327
101327
101327
101327
101327
101327
101327
101327
101326
101326
101326
101326
101326
101327
101327
101327
101327
101327
101327
101327
101327
101327
101327
101327
101327
101327
101327
101326
101326
101326
101326
101326
101326
101326
101327
101327
101327
101327
101327
101327
101327
101327
101327
101327
101327
101327
101326
101326
101326
101326
101326
101326
101326
101326
101326
101327
101327
101327
101327
101327
101327
101327
101327
101327
101327
101326
101326
101326
101326
101326
101326
101326
101326
101326
101326
101326
101327
101327
101327
101327
101327
101327
101327
101327
101326
101326
101326
101326
101326
101326
101326
101326
101326
101326
101326
101326
101327
101327
101327
101327
101327
101327
101327
101326
101325
101326
101326
101326
101326
101326
101326
101326
101326
101326
101326
101326
101327
101327
101327
101327
101327
101327
101325
101325
101325
101325
101325
101326
101326
101326
101326
101326
101326
101326
101326
101327
101327
101327
101327
101327
101327
101325
101325
101325
101325
101325
101325
101326
101326
101326
101326
101326
101326
101326
101326
101327
101327
101327
101327
101327
101325
101325
101325
101325
101325
101325
101325
101326
101326
101326
101326
101326
101326
101326
101327
101327
101327
101327
101327
101325
101325
101325
101325
101325
101325
101325
101325
101326
101326
101326
101326
101326
101326
101326
101327
101327
101327
101327
101325
101325
101325
101325
101325
101325
101325
101325
101325
101326
101326
101326
101326
101326
101326
101327
101327
101327
101327
101325
101325
101325
101325
101325
101325
101325
101325
101325
101326
101326
101326
101326
101326
101326
101327
101327
101327
101327
101325
101325
101325
101325
101325
101325
101325
101325
101325
101325
101326
101326
101326
101326
101326
101326
101327
101326
101327
101325
101325
101325
101325
101325
101325
101325
101325
101325
101325
101326
101326
101326
101326
101326
101326
101327
101326
101326
101325
101325
101325
101325
101325
101325
101325
101325
101325
101325
101325
101326
101326
101326
101326
101326
101326
101326
101326
101325
101325
101325
101325
101325
101325
101325
101325
101325
101325
101325
101326
101326
101326
101326
101326
101326
101326
101326
101325
101325
101325
101325
101325
101325
101325
101325
101325
101325
101325
101325
101326
101326
101326
101326
101326
101326
101326
101325
101325
101325
101325
101325
101325
101325
101325
101325
101325
101325
101325
101325
101326
101326
101326
101326
101326
101326
101325
101325
101325
101325
101325
101325
101325
101325
101325
101325
101325
101325
101325
101325
101325
101326
101326
101326
101326
101325
101325
101325
101325
101325
101325
101325
101325
101325
101325
101325
101325
101325
101325
101325
101325
101325
101325
101325
101325
101325
101325
101325
101325
101325
101325
101325
101325
101325
101325
101325
101325
101325
101325
101325
101325
101325
101325
)
;

boundaryField
{
    leftWall
    {
        type            zeroGradient;
    }
    rightWall
    {
        type            zeroGradient;
    }
    lowerWall
    {
        type            zeroGradient;
    }
    atmosphere
    {
        type            fixedValue;
        value           uniform 101325;
    }
    defaultFaces
    {
        type            empty;
    }
}


// ************************************************************************* //
