/*--------------------------------*- C++ -*----------------------------------*\
| =========                 |                                                 |
| \\      /  F ield         | OpenFOAM: The Open Source CFD Toolbox           |
|  \\    /   O peration     | Version:  2012                                  |
|   \\  /    A nd           | Website:  www.openfoam.com                      |
|    \\/     M anipulation  |                                                 |
\*---------------------------------------------------------------------------*/
FoamFile
{
    version     2.0;
    format      ascii;
    class       volScalarField;
    location    "0.95";
    object      rhogh;
}
// * * * * * * * * * * * * * * * * * * * * * * * * * * * * * * * * * * * * * //

dimensions      [1 -1 -2 0 0 0 0];


internalField   nonuniform List<scalar> 
2268
(
-29.4294
-29.4294
-29.4294
-29.4294
-29.4294
-29.4294
-29.4294
-29.4294
-29.4294
-29.4294
-29.4294
-29.4294
-29.4294
-29.4294
-29.4294
-29.4294
-29.4294
-29.4294
-29.4294
-29.4294
-29.4294
-29.4294
-29.427
-88.2881
-88.2881
-88.2881
-88.2881
-88.2881
-88.2881
-88.2881
-88.2881
-88.2881
-88.2881
-88.2881
-88.2881
-88.2881
-88.2881
-88.2881
-88.2881
-88.2881
-88.2881
-88.2881
-88.2881
-88.2881
-88.2881
-88.27
-147.147
-147.147
-147.147
-147.147
-147.147
-147.147
-147.147
-147.147
-147.147
-147.147
-147.147
-147.147
-147.147
-147.147
-147.147
-147.147
-147.147
-147.147
-147.147
-147.147
-147.147
-147.147
-147.113
-206.006
-206.006
-206.006
-206.006
-206.006
-206.006
-206.006
-206.006
-206.006
-206.006
-206.006
-206.006
-206.006
-206.006
-206.006
-206.006
-206.006
-206.005
-206.006
-206.006
-206.006
-206.006
-205.959
-264.864
-264.864
-264.864
-264.864
-264.864
-264.864
-264.864
-264.864
-264.864
-264.864
-264.864
-264.864
-264.864
-264.864
-264.864
-264.864
-264.864
-264.864
-264.864
-264.864
-264.864
-264.864
-264.804
-323.723
-323.723
-323.723
-323.723
-323.723
-323.723
-323.723
-323.723
-323.723
-323.723
-323.723
-323.723
-323.723
-323.723
-323.723
-323.723
-323.723
-323.723
-323.722
-323.722
-323.723
-323.723
-323.661
-382.582
-382.582
-382.582
-382.582
-382.582
-382.582
-382.582
-382.582
-382.582
-382.582
-382.582
-382.582
-382.582
-382.582
-382.582
-382.582
-382.581
-382.553
-382.354
-382.437
-382.57
-382.58
-382.573
-441.44
-441.44
-441.44
-441.44
-441.44
-441.44
-441.44
-441.44
-441.44
-441.44
-441.44
-441.44
-441.44
-441.44
-441.419
-441.066
-438.852
-421.059
-387.257
-400.401
-441.439
-441.439
-441.439
-11.3214
-19.4588
-23.1357
-22.9912
-23.1696
-25.6047
-27.4069
-28.4433
-28.8226
-28.1415
-25.0822
-24.2212
-26.9026
-28.6668
-28.6668
-28.6665
-28.6787
-28.8326
-28.833
-33.9552
-13.2736
-8.76204
-7.56219
-15.2257
-30.1232
-66.1919
-86.5073
-86.5071
-86.5071
-86.5069
-78.4793
-81.9908
-65.9861
-59.7987
-55.6978
-49.5654
-72.1381
-86.8807
-92.0426
-6.02047
-0.453345
-8.37719
-21.9726
-30.575
-101.894
-144.179
-144.179
-144.178
-144.179
-142.578
-142.578
-126.811
-93.7599
-41.0085
-30.8336
-93.1585
-144.801
-130.295
-18.7463
-0.266981
-15.0349
-131.605
-158.393
-201.85
-201.851
-201.85
-201.85
-200.385
-198.412
-199.61
-199.566
-190.593
-87.0686
-43.167
-164.595
-202.816
-161.688
-23.8863
-0.343261
-0.343261
-123.49
-190.24
-259.522
-259.521
-259.511
-225.716
-140.865
-117.277
-182.096
-249.949
-249.949
-141.087
-136.102
-239.406
-262.477
-204.631
-21.5876
-0.419541
-0.419541
-17.5289
-66.8028
-303.693
-317.194
-270.995
-76.3338
-22.7811
-27.1507
-61.5053
-187.869
-291.833
-222.146
-272.647
-319.691
-320.805
-278.22
-21.4869
-12.3578
-43.4722
-7.66787
-41.7052
-297.832
-367.858
-142.805
-20.7177
-20.7814
-31.6462
-31.6458
-43.5734
-259.867
-336.73
-367.266
-371.58
-375.833
-336.369
-39.1145
-79.293
-86.9892
-8.84771
-33.5098
-310
-390.923
-69.3411
-23.9046
-123.759
-199.044
-119.898
-50.2693
-144.729
-392.567
-396.062
-415.964
-400.777
-533.467
-533.467
-533.467
-533.467
-533.467
-533.467
-533.467
-533.467
-533.467
-533.467
-533.451
-533.337
-533.103
-531.416
-519.419
-453.372
-335.398
-228.769
-177.224
-197.12
-290.725
-453.325
-529.941
-658.662
-658.662
-658.662
-658.662
-658.662
-658.662
-658.662
-658.662
-658.662
-648.195
-634.389
-625.636
-599.634
-496.528
-271.761
-88.608
-3.94401
-0.0781747
-0.0957668
-2.25567
-76.0471
-244.301
-643.092
-783.856
-783.856
-783.847
-783.856
-756.974
-560.497
-431.534
-489.294
-618.556
-657.907
-620.777
-494.503
-218.283
-38.7769
-2.63673e-05
-2.63673e-05
-0.087471
-3.47185
-62.5798
-344.302
-472.67
-386.634
-573.902
-909.051
-908.951
-887
-586.195
-259.594
-163.641
-146.327
-133.301
-269.498
-434.65
-429.077
-123.218
-0.0341878
-0.034189
-0.252345
-3.53738e-05
-0.2872
-54.5174
-551.358
-864.249
-864.245
-756.69
-626.845
-1034.22
-1020.85
-695.373
-104.649
-59.2534
-59.9806
-60.0514
-27.7666
-37.812
-73.896
-40.5982
-27.2637
-46.101
-102.924
-42.2937
-3.76101e-05
-3.3524
-318.142
-962.242
-983.302
-983.272
-890.99
-785.594
-1156.03
-960.935
-228.578
-87.7916
-121.814
-155.342
-92.153
-8.93212e-05
-0.519076
-1.08926
-1.78878
-96.3798
-281.35
-284.255
-218.499
-4.21585e-05
-10.8073
-505.388
-1102.33
-1102.33
-1102.33
-1102.3
-1102.27
-1272.96
-831.372
-98.482
-97.2721
-171.254
-98.4897
-9.89659e-05
-9.89659e-05
-9.89659e-05
-0.00635401
-14.5137
-224.564
-314.949
-314.949
-253.068
-31.8127
-3.66969
-324.318
-1104.95
-1221.37
-1221.36
-1203.94
-1221.3
-1395.84
-801.915
-0.00595082
-38.0458
-16.0232
-0.0586223
-1.19653
-0.902471
-0.000108611
-0.000108611
-8.85435
-105.599
-204.707
-161.281
-7.30099
-1.83147
-2.59216
-134.134
-755.33
-1200.16
-1319.88
-1060.63
-1027.46
-1519.79
-797.715
-0.00644717
-2.17893
-0.0182764
-0.0638205
-0.409636
-0.458866
-0.239118
-9.90755
-15.7145
-0.857963
-2.04719e-07
-2.04719e-07
-2.04719e-07
-0.00866934
-10.2833
-21.6729
-8.49241
-219.251
-895.843
-1154.82
-627.658
-1458.61
-552.46
-0.00697216
-0.00697231
-0.000228088
-0.00217855
-0.000790424
-0.015207
-2.01209
-4.48302
-1.27064
-5.26754e-05
-5.28103e-05
-8.92924e-06
-2.74586e-05
-1.14348
-5.37904
-1.75916
-2.21416e-07
-2.21416e-07
-13.6261
-530.376
-722.418
-485.783
-80.3599
-0.173534
-8.49583e-05
-2.04247e-07
-1.64926e-06
-1.92891e-06
-0.0391708
-1.30303
-1.82461
-3.91599e-05
-0.000275252
-0.00090474
-0.000104592
-2.38112e-07
-2.38112e-07
-2.38112e-07
-2.38112e-07
-2.13448e-06
-0.000814612
-0.656876
-39.6693
-427.767
-6.80286
-1.7776
-1.16517
-0.000309608
-2.1365e-07
-4.89889e-07
-2.01029e-05
-0.0100796
-0.0662595
-0.00244558
-5.44159e-05
-0.00129952
-0.00129958
-0.000252072
-2.54809e-07
-2.23624e-06
-9.25632e-06
-1.56255e-05
-1.57532e-05
-5.55773e-05
-0.0255228
-2.90717
-62.1432
-0.16952
-0.169517
-1.423
-2.48599e-05
-2.25939e-07
-1.7258e-06
-5.12182e-05
-0.000593114
-1.73453e-06
-1.54263e-06
-2.42718e-05
-0.000266469
-0.00084536
-3.32788e-05
-2.71534e-07
-2.59704e-06
-1.13486e-05
-2.42729e-05
-2.40643e-05
-2.84619e-05
-0.0166306
-0.276968
-2.0351
-109.373
-1.3262e-08
-0.663995
-2.10024e-07
-2.10002e-07
-1.99369e-06
-6.07341e-06
-1.25304e-06
-1.24943e-06
-1.6375e-06
-2.02598e-06
-3.59631e-07
-3.59618e-07
-3.59692e-07
-2.01189e-06
-1.93363e-06
-2.72405e-06
-7.46025e-06
-1.0838e-05
-4.71245e-06
-1.40304e-07
-1.40026e-07
-1.40304e-07
-393.071
1.46407e-21
-0.00155063
-0.00231643
-2.22022e-07
-8.65583e-07
-7.5679e-07
-6.03011e-07
-1.39877e-06
-3.55878e-06
-1.11886e-05
-1.12498e-05
-2.98255e-06
-8.40721e-07
-1.87239e-06
-1.51391e-06
-5.01281e-07
-1.47845e-07
-1.47844e-07
-1.47845e-07
-1.53775e-07
-1.91988e-07
-1.48141e-07
-419.368
-1.47987e-08
-0.00107121
-0.00392843
-1.44733e-05
-1.288e-07
-3.51905e-07
-6.03057e-07
-1.38016e-06
-4.03154e-06
-9.2063e-06
-7.69229e-06
-5.85132e-07
-7.40551e-07
-1.09941e-06
-9.63484e-07
-4.58595e-07
-2.46181e-07
-1.67893e-07
-1.62113e-07
-1.77026e-07
-1.77021e-07
-5.57523e-07
-441.15
-0.00993166
-8.54122e-05
-0.00410238
-9.51191e-05
-1.35473e-07
-2.62246e-07
-5.72379e-07
-1.35078e-06
-3.15251e-06
-4.47334e-06
-2.73596e-06
-7.03665e-07
-4.69421e-07
-5.05731e-07
-3.58219e-07
-2.22617e-07
-1.74658e-07
-1.78171e-07
-2.36385e-07
-5.59414e-07
-1.44352e-06
-7.98656e-06
-332.397
-0.440725
-5.16178e-06
-0.000533883
-0.000174901
-1.41762e-07
-2.4625e-07
-5.21325e-07
-1.35957e-06
-2.24037e-06
-2.25733e-06
-8.19138e-07
-3.65718e-07
-2.95419e-07
-2.7497e-07
-1.5755e-07
-1.03614e-07
-9.48347e-08
-1.42721e-07
-4.77563e-07
-3.46818e-06
-2.18445e-05
-3.02284e-05
-21.4932
-0.217457
-5.40419e-06
-5.40456e-06
-4.13801e-05
-1.48446e-07
-2.39444e-07
-4.32317e-07
-1.1678e-06
-1.72296e-06
-1.58233e-06
-4.4508e-07
-1.99478e-07
-1.64852e-07
-1.28842e-07
-7.70699e-08
-7.07752e-08
-9.66033e-08
-2.34714e-07
-6.27061e-07
-1.07514e-06
-1.23938e-06
-8.77202e-07
-0.0203298
-0.13356
-5.64734e-06
-0.000404561
-1.28777e-07
-1.5511e-07
-2.04497e-07
-3.60429e-07
-8.91751e-07
-1.16071e-06
-9.31939e-07
-2.38932e-07
-1.14041e-07
-8.38753e-08
-6.2699e-08
-5.9281e-08
-9.79457e-08
-3.52264e-07
-1.15993e-06
-3.42259e-06
-9.18749e-06
-1.68613e-05
-2.01756e-05
-0.000561474
-0.00849396
-0.000467597
-0.00118713
-1.34344e-07
-1.34313e-07
-1.44225e-07
-2.96439e-07
-6.6008e-07
-7.8548e-07
-4.77531e-07
-1.21565e-07
-5.95618e-08
-4.40801e-08
-4.75941e-08
-1.09579e-07
-5.02892e-07
-2.36761e-06
-1.17575e-05
-3.91889e-05
-5.53532e-05
-5.24909e-05
-4.04652e-05
-2.71232e-05
-4.69241e-05
-0.000428118
-0.00124121
-3.66151e-07
-6.01388e-06
-3.62575e-08
-2.12919e-07
-4.86854e-07
-5.55533e-07
-2.40065e-07
-6.33537e-08
-3.52788e-08
-3.6235e-08
-7.8218e-08
-3.65567e-07
-1.65645e-06
-1.03364e-05
-8.43745e-05
-0.000177392
-0.000116471
-2.12367e-05
-1.7352e-05
-2.81969e-05
-2.81969e-05
-2.81969e-05
-0.000411995
-3.83764e-07
-8.9592e-05
-3.7076e-08
-1.3685e-07
-3.28632e-07
-3.53573e-07
-1.23287e-07
-3.60568e-08
-2.94668e-08
-5.85976e-08
-2.71141e-07
-1.33565e-06
-9.48889e-06
-0.000109054
-0.00020279
-0.000194145
-3.46192e-05
-1.2395e-07
-2.19605e-06
-2.97377e-05
-0.00013762
-0.00101555
-0.000425189
-0.000829962
-0.000530673
-3.8539e-08
-8.69895e-08
-2.19269e-07
-2.22452e-07
-6.91908e-08
-2.44102e-08
-3.53545e-08
-1.73006e-07
-9.17295e-07
-7.39977e-06
-9.86278e-05
-0.000210512
-0.000210321
-7.48528e-05
-9.53805e-08
-1.28677e-07
-2.6418e-07
-3.94392e-05
-7.55948e-05
-0.00925395
-0.00181915
-0.006271
-0.00271921
-3.05103e-08
-6.29267e-08
-1.56733e-07
-1.33705e-07
-3.6517e-08
-1.25981e-08
-1.15033e-08
-1.00685e-08
-1.00644e-08
-1.91069e-05
-0.000173498
-0.000218036
-0.00012605
-9.88793e-08
-9.87718e-08
-1.41315e-07
-1.71804e-07
-1.95058e-05
-0.0073722
-0.00999999
-0.00223159
-0.0292479
-0.00957611
-3.15899e-08
-4.55522e-08
-1.17796e-07
-8.41374e-08
-3.63097e-08
-9.0317e-08
-5.6581e-07
-4.38353e-06
-5.43342e-05
-0.00020786
-0.00020786
-8.70544e-05
-3.45931e-06
-2.2069e-07
-1.51624e-07
-1.43975e-07
-1.46883e-07
-1.89559e-05
-0.00826774
-0.00826843
-0.00178247
-0.0953259
-0.0217009
-3.26694e-08
-3.27436e-08
-8.43595e-08
-4.5872e-08
-3.43544e-08
-2.1664e-07
-1.81852e-06
-3.37558e-05
-0.000236727
-0.000317358
-0.000172687
-3.81412e-08
-3.26078e-07
-2.75816e-07
-1.36106e-07
-1.00505e-07
-8.03493e-08
-1.95823e-05
-0.00212987
-0.000770381
-0.000720484
-0.201477
-0.0253166
-3.74096e-06
-3.37519e-08
-5.87196e-08
-2.5871e-08
-2.87363e-08
-1.59455e-07
-1.63482e-06
-3.84229e-05
-0.000280341
-0.000327848
-5.01648e-05
-3.94012e-08
-8.14035e-08
-1.14472e-07
-6.56466e-08
-3.4793e-08
-1.97655e-08
-2.02087e-05
-2.02087e-05
-2.02087e-05
-0.399616
-0.247469
-0.00294735
-5.70574e-07
-3.24673e-08
-4.32065e-08
-2.67745e-08
-2.98727e-08
-1.76581e-08
-1.76624e-08
-4.39769e-06
-0.000161277
-0.000113577
-1.05602e-06
-4.0662e-08
-4.16464e-08
-2.80725e-08
-1.56494e-08
-7.22878e-09
-3.33033e-09
-2.08351e-05
-0.0306876
-0.320658
-0.504386
-0.191865
-0.000829058
-1.70094e-07
-3.23171e-08
-2.6772e-08
-6.02592e-08
-3.31451e-07
-1.24336e-06
-4.83649e-05
-0.000237817
-7.17015e-05
-1.34403e-08
-1.22243e-06
-1.43604e-07
-2.67286e-08
-6.57823e-09
-2.83163e-09
-1.01984e-09
-3.36163e-10
-0.507181
-0.564963
-0.565053
-0.460536
-0.0423986
-0.000179197
-1.92533e-07
-3.06324e-08
-2.75771e-08
-2.05421e-07
-2.63468e-06
-6.54899e-05
-0.000521543
-0.000616073
-4.90184e-05
-1.38446e-08
-4.3988e-07
-1.31831e-07
-1.73215e-08
-1.51633e-09
-4.05673e-10
-9.93898e-11
-2.09323e-11
-0.314351
-0.455325
-0.467023
-0.108768
-0.00421747
-3.02619e-05
-2.64534e-07
-2.55028e-08
-3.03924e-08
-3.41025e-07
-8.35034e-06
-0.000323134
-0.000819567
-0.000633987
-1.42487e-08
-3.99027e-08
-1.30397e-07
-5.50844e-08
-5.82207e-09
-3.21236e-10
-4.59322e-11
-6.76971e-12
-9.61897e-13
-0.0071374
-0.052161
-0.0435973
-0.00477749
-0.000384782
-9.06097e-06
-2.35886e-07
-2.16242e-08
-4.26324e-08
-4.82405e-07
-2.42041e-05
-0.000592574
-0.000842639
-0.000374002
-1.46526e-08
-2.07268e-08
-3.59215e-08
-1.20015e-08
-1.27452e-09
-5.765e-11
-4.18608e-12
-3.40148e-13
-5.75511e-14
-3.2808e-06
-9.49371e-06
-1.05786e-05
-1.48772e-05
-8.76464e-06
-1.42568e-06
-7.48327e-08
-2.19747e-08
-7.1078e-08
-5.35777e-07
-1.94758e-05
-0.000433984
-0.000698401
-9.657e-06
-1.50568e-08
-1.70856e-08
-8.94374e-09
-2.36508e-09
-2.21133e-10
-7.82659e-12
-2.73247e-13
-1.09526e-14
-3.73189e-15
-1.22527e-08
-3.71075e-09
-6.97208e-09
-6.36905e-08
-4.2509e-07
-2.02333e-07
-2.76007e-08
-4.6063e-08
-1.09377e-07
-3.49042e-07
-4.57028e-06
-3.89166e-05
-0.000104608
-2.42952e-06
-1.54607e-08
-1.98486e-08
-3.29808e-09
-4.91339e-10
-3.28715e-11
-8.04744e-13
-1.20177e-14
-7.71588e-16
-2.28221e-16
-2.47191e-09
-1.11434e-09
-3.12157e-09
-1.77538e-08
-8.43992e-08
-3.44094e-08
-2.89135e-08
-1.02688e-07
-6.70025e-08
-6.88708e-08
-6.88645e-08
-0.000208056
-5.98081e-09
-9.42421e-07
-1.21932e-07
-1.96961e-08
-1.55264e-09
-1.10451e-10
-4.15366e-12
-5.54885e-14
-2.65071e-16
-4.24858e-17
-1.13342e-17
-5.20413e-10
-3.96257e-10
-1.22496e-09
-5.46901e-09
-1.74711e-08
-1.64914e-08
-9.13317e-08
-4.13346e-07
-6.00586e-08
-6.00555e-08
-0.000542171
-0.000292729
-6.10517e-09
-2.77137e-07
-1.10678e-07
-1.42142e-08
-6.42576e-10
-2.51904e-11
-4.65522e-13
-2.38598e-15
-1.90599e-17
-2.32086e-18
-5.17068e-19
-1.10073e-10
-1.23908e-10
-3.87372e-10
-1.77375e-09
-6.73055e-09
-2.34564e-08
-2.16538e-07
-3.85359e-06
-0.000143815
-0.00152235
-0.00190439
-0.000132296
-6.28547e-09
-8.07291e-08
-4.92268e-08
-4.96611e-09
-1.95773e-10
-4.80077e-12
-3.99864e-14
-3.20893e-17
-8.05601e-19
-8.52049e-20
-1.75348e-20
-2.30953e-11
-3.77584e-11
-2.14864e-10
-1.65621e-09
-9.66349e-09
-5.20818e-08
-3.30803e-07
-1.21356e-05
-0.00105043
-0.00210646
-0.00199548
-1.22758e-08
-1.22752e-08
-4.03308e-08
-1.61373e-08
-1.18214e-09
-4.6668e-11
-7.41334e-13
-2.40258e-15
-5.75998e-19
-3.19707e-20
-2.74335e-21
-4.87184e-22
-5.1991e-12
-2.55978e-11
-3.12212e-10
-3.59022e-09
-2.88945e-08
-1.45079e-07
-4.412e-07
-1.53836e-05
-0.00116999
-0.0021561
-0.000981096
-1.25644e-08
-2.16001e-08
-3.01999e-08
-6.9602e-09
-2.36289e-10
-8.60191e-12
-8.26784e-14
-7.08682e-17
-9.79719e-21
-4.83866e-22
-4.12246e-23
-7.8079e-24
-3.40436e-12
-4.62043e-11
-8.88566e-10
-1.1237e-08
-9.11539e-08
-2.70912e-07
-2.70935e-07
-2.7087e-07
-0.000354879
-0.00132046
-6.22548e-05
-1.286e-08
-2.70585e-08
-2.30527e-08
-2.86739e-09
-4.29084e-11
-1.30958e-12
-6.67837e-15
-3.52556e-19
-8.21522e-23
-3.03868e-24
-2.76326e-25
-6.2106e-26
-7.3251e-12
-2.31566e-10
-4.06707e-09
-4.53187e-08
-3.66087e-07
-4.104e-06
-0.000117799
-0.000514755
-0.000650016
-3.00729e-05
-2.43826e-06
-1.31506e-08
-2.50563e-08
-9.87824e-09
-7.51249e-10
-6.32957e-12
-1.44092e-13
-3.31852e-16
-1.51496e-26
-1.70078e-30
-1.47472e-32
-1.6632e-33
-1.92286e-34
-531.417
-531.424
-411.831
-406.345
-648.564
-505.562
-492.562
-501.741
-565.462
-565.566
-724.657
-736.794
-674.186
-864.206
-864.188
-857.571
-979.853
-983.233
-983.232
-921.449
-1102.27
-1102.26
-1058.85
-687.675
-1221.28
-939.971
-338.626
-95.7809
-1087.86
-450.577
-25.9146
-5.68886
-241.953
-182.47
-140.054
-96.7662
-302.567
-86.2622
-80.9233
-67.4672
-443.527
-326.388
-121.634
-138.741
-300.21
-254.705
-153.447
-148.467
-9.52417
-18.8966
-25.8394
-26.8556
-0.157204
-0.638124
-1.6987
-3.66481
-1.48433e-07
-0.884786
-1.7903
-0.312066
-0.0351709
-0.741498
-1.08513
-0.052538
-0.00984625
-0.145243
-0.307091
-0.307067
-3.30499e-06
-4.05601e-07
-0.00431266
-0.0448245
-4.29495e-07
-4.24678e-07
-3.26605e-07
-3.26589e-07
-1.84414e-05
-1.29958e-05
-9.08695e-06
-6.21857e-06
-4.60213e-05
-4.45901e-05
-1.20869e-05
-2.43154e-06
-1.37011e-05
-5.53533e-07
-7.72424e-07
-5.44795e-07
-1.60105e-06
-2.00612e-07
-1.03671e-07
-8.73822e-08
-2.2004e-07
-1.25125e-07
-1.03755e-07
-8.89544e-08
-1.57797e-07
-1.16976e-07
-8.76832e-08
-6.32979e-08
-1.09818e-07
-7.53562e-08
-4.94921e-08
-3.13385e-08
-4.23252e-08
-2.61225e-08
-1.58808e-08
-9.65412e-09
-9.97228e-09
-5.9748e-09
-3.47564e-09
-2.03589e-09
-1.44224e-09
-8.04877e-10
-4.41814e-10
-2.5476e-10
-1.08752e-10
-5.46607e-11
-3.07509e-11
-2.12922e-11
-5.54902e-12
-3.48054e-12
-2.51595e-12
-1.81985e-12
-4.06819e-13
-2.94241e-13
-2.12735e-13
-1.54834e-13
-3.05683e-14
-2.1903e-14
-1.57802e-14
-1.15066e-14
-1.92497e-15
-1.37361e-15
-9.90153e-16
-7.25069e-16
-1.11874e-16
-7.87253e-17
-5.62882e-17
-4.10889e-17
-5.39271e-18
-3.7615e-18
-2.67236e-18
-1.94301e-18
-2.31219e-19
-1.58425e-19
-1.1108e-19
-7.99726e-20
-7.62348e-21
-5.14294e-21
-3.56017e-21
-2.53885e-21
-2.02282e-22
-1.33389e-22
-9.03458e-23
-6.3234e-23
-3.28403e-24
-2.15547e-24
-1.45448e-24
-1.01627e-24
-2.6893e-26
-1.77102e-26
-1.19681e-26
-8.34651e-27
-3.46013e-35
-1.47474e-35
-6.45913e-36
-3.01115e-36
-415.104
-209.648
-116.997
-39.9505
-7.86824
-26.9531
-371.406
-376.714
-44.6746
-36.5009
-290.251
-396.25
-327.177
-211.098
-275.33
-475.343
-475.342
-421.013
-366.663
-512.52
-309.503
-106.108
-117.598
-9.71463
-144.913
-497.977
-218.449
-35.3841
-46.0266
-339.81
-489.243
-476.124
-464.559
-427.371
-391.825
-242.549
-119.723
-76.0529
-538.787
-349.317
-486.978
-696.004
-607.654
-680.993
-561.512
-76.3847
-42.1012
-163.991
-267.916
-163.01
-50.8881
-22.4342
-33.2145
-22.6032
-0.00803675
-0.00800895
-0.00803675
-602.695
-405.11
-807.45
-807.167
-780.985
-789.761
-777.201
-250.761
-48.8354
-57.3706
-107.492
-21.9842
-0.00881641
-0.00881641
-0.00881641
-0.00881641
-0.0290724
-0.1197
-0.109085
-567.601
-309.641
-389.447
-181.483
-204.755
-422.806
-607.063
-654.751
-654.643
-560.13
-308.44
-26.5146
-0.957557
-0.0716427
-0.0101432
-0.225655
-0.474232
-0.0772929
-0.0901388
-291.372
-22.9274
-9.65269
-9.65376
-12.7211
-9.91464
-29.8905
-205.778
-109.161
-49.0673
-63.3754
-71.247
-24.6196
-13.1363
-1.6199
-0.429091
-0.532707
-0.0866504
-0.0927025
-20.9946
-1.02957
-1.65944
-25.6145
-41.0549
-10.9864
-0.0585891
-0.0585455
-0.0585526
-0.0578549
-0.0578085
-3.40999
-44.9769
-44.9769
-30.0774
-1.66183
-0.161513
-0.0897095
-0.0904708
-1.12991
-1.13011
-1.12991
-26.2359
-45.1037
-6.90494
-0.0650239
-0.127239
-0.236428
-0.178824
-0.0634498
-0.369013
-16.5817
-42.6082
-36.6942
-2.83317
-0.0482479
-0.111999
-0.0324755
-104.434
-110.691
-135.65
-135.049
-46.8691
-0.0918658
-0.0918645
-0.0423117
-0.0468451
-0.000645191
-0.000644092
-0.000643117
-0.000644094
-0.000643117
-0.000644094
-0.438149
-0.0194875
-0.0857748
-1.83069e-07
-64.5671
-203.661
-203.694
-193.617
-30.4054
-0.108442
-0.0193611
-0.0308032
-0.00465006
-0.000696624
-0.000697926
-0.000696625
-0.000696189
-0.0042192
-0.00572298
-0.00180984
-0.000778517
-0.000245935
-1.98019e-07
-39.8889
-21.5976
-46.6347
-1.37739
-1.37738
-0.0190896
-0.0187186
-0.00597846
-0.000755564
-0.000754765
-0.00136075
-0.00092034
-0.000190924
-0.000270463
-1.14629e-05
-1.12202e-05
-1.12203e-05
-4.905e-07
-6.99527e-07
-92.6632
-23.0884
-1.59861
-1.59869
-1.59519
-0.116535
-0.000809034
-0.010769
-0.00186533
-0.000866008
-0.00145619
-0.000299017
-2.39448e-05
-2.39399e-05
-3.43824e-05
-0.000109424
-1.66715e-05
-2.43937e-06
-2.47521e-05
-23.1475
-28.516
-25.3805
-12.3855
-0.047961
-0.492384
-0.000860249
-0.00829833
-0.00290367
-0.00124955
-0.000787936
-9.59516e-05
-8.6101e-05
-0.000234394
-0.000286346
-0.000157668
-1.27593e-05
-5.7682e-06
-0.000406186
-7.6523
-19.6593
-21.5642
-6.72558
-0.0509799
-0.527803
-0.000932847
-0.000936744
-0.00149922
-0.00209369
-0.000221235
-2.40953e-05
-0.000274807
-0.00041662
-0.000416791
-8.04312e-05
-4.31875e-07
-3.56999e-05
-0.000636671
-0.000203208
-0.000203197
-0.619525
-0.390702
-0.0953916
-0.276526
-0.000991028
-0.00188732
-0.00199036
-0.00198022
-0.000404503
-2.54917e-05
-6.53515e-05
-0.000337339
-0.000340459
-5.54523e-05
-4.56896e-07
-0.000264366
-0.000673329
-0.000214325
-0.000243554
-0.00113795
-0.00611878
-0.0185827
-0.00644278
-0.00825889
-0.00633493
-0.00190897
-6.58617e-05
-3.00526e-05
-1.55629e-05
-4.92168e-07
-4.94997e-07
-7.43363e-07
-1.82856e-05
-4.81915e-07
-0.000460826
-0.00071044
-0.165527
-0.000239751
-0.000238417
-0.000249085
-0.00100917
-0.0047173
-0.00709185
-7.55629e-08
-7.55907e-08
-7.55629e-08
-7.55907e-08
-5.31186e-07
-4.50493e-06
-1.44759e-06
-1.40188e-06
-3.05304e-06
-5.06936e-07
-0.000324613
-0.000348391
-0.0809599
-0.0904002
-0.0552322
-3.87085e-05
-5.62731e-05
-0.0002492
-8.28641e-08
-9.13422e-08
-9.40083e-07
-3.05082e-06
-3.60747e-06
-1.20365e-05
-0.000275406
-0.000308563
-4.90562e-05
-4.64188e-06
-7.69991e-07
-1.89956e-05
-5.3268e-06
-3.26605e-07
-1.96907e-06
-8.75619e-07
-8.4683e-05
-1.19731e-07
-1.07963e-07
-1.07963e-07
-4.63077e-07
-2.15064e-06
-1.46688e-05
-4.81463e-05
-6.17928e-05
-0.000809381
-0.00156395
-0.000743673
-3.7734e-05
-2.15299e-06
-1.95479e-06
-5.57735e-06
-3.51807e-06
-1.34062e-06
-9.15321e-07
-1.06003e-06
-1.22849e-06
-4.5007e-07
-2.87087e-07
-7.1438e-07
-2.34504e-06
-2.46995e-05
-0.000192375
-0.000216814
-0.000776596
-0.00166963
-0.00166984
-0.000308637
-1.08985e-05
-6.43594e-06
-9.24895e-06
-3.00374e-06
-1.86634e-06
-9.98676e-07
-4.12691e-07
-2.11881e-07
-1.50325e-07
-2.74881e-07
-6.64664e-07
-1.59543e-06
-1.08106e-05
-0.000227602
-0.000615327
-0.000615327
-0.000775953
-0.00174141
-0.00081941
-4.21029e-05
-1.49261e-05
-1.75896e-05
-3.54351e-07
-1.64214e-07
-8.93025e-08
-3.86574e-08
-3.92111e-08
-7.59498e-08
-1.67204e-07
-3.48591e-07
-7.63984e-07
-3.14527e-06
-6.83036e-05
-0.000973403
-0.00127842
-0.000444305
-0.00181338
-0.00129158
-9.68382e-05
-3.19469e-05
-2.38657e-05
-6.16296e-08
-3.40611e-08
-2.00334e-08
-1.56727e-08
-1.80831e-08
-3.47785e-08
-6.85247e-08
-1.24302e-07
-1.92304e-07
-2.23158e-07
-1.98733e-06
-0.000792958
-0.00226029
-0.0004629
-0.00146181
-0.00160994
-0.000200355
-8.46303e-05
-5.27031e-05
-6.04587e-08
-2.46364e-08
-8.88485e-09
-5.60181e-09
-6.01872e-09
-1.14305e-08
-2.16775e-08
-3.71135e-08
-7.2378e-08
-2.35243e-07
-3.06925e-06
-0.00018988
-0.00227894
-0.00243962
-0.000986145
-0.00167146
-0.000348303
-0.00011848
-0.000476463
-3.5121e-08
-9.78645e-09
-2.67438e-09
-1.42869e-09
-1.45056e-09
-2.78396e-09
-5.68618e-09
-1.26616e-08
-3.92132e-08
-1.36583e-07
-2.06311e-07
-2.06333e-07
-0.00094618
-0.00940837
-0.00175334
-0.00167359
-0.000464171
-0.000347319
-0.000614608
-1.53966e-08
-3.40696e-09
-7.39383e-10
-2.85704e-10
-2.58831e-10
-4.97505e-10
-1.21178e-09
-3.50493e-09
-1.2352e-08
-4.10093e-08
-1.00186e-07
-9.45873e-07
-0.000487743
-0.0146665
-0.0194485
-0.00115435
-0.000609329
-0.000636355
-0.000636462
-4.55736e-09
-9.90133e-10
-1.90863e-10
-4.89169e-11
-3.47347e-11
-6.40256e-11
-1.99802e-10
-7.39563e-10
-3.09278e-09
-1.28913e-08
-5.20256e-08
-2.10713e-07
-3.25968e-05
-0.00728806
-0.0247406
-0.00167737
-0.000520102
-0.000577553
-0.000473062
-9.56944e-10
-2.32315e-10
-4.3691e-11
-7.96377e-12
-3.71758e-12
-5.94684e-12
-2.38353e-11
-1.14299e-10
-7.3147e-10
-6.33832e-09
-5.5902e-08
-4.62974e-07
-2.14308e-05
-0.00170646
-0.019981
-0.00327078
-0.00035103
-0.000150339
-0.000137489
-1.30888e-10
-3.71274e-11
-7.85798e-12
-1.28467e-12
-3.31821e-13
-3.64273e-13
-2.06307e-12
-1.88989e-11
-2.61659e-10
-4.03816e-09
-5.61562e-08
-6.2403e-07
-4.04917e-06
-3.42807e-07
-3.33057e-07
-0.00380087
-0.000302957
-3.33954e-05
-9.99053e-05
-1.2239e-11
-4.16574e-12
-1.07898e-12
-1.97819e-13
-3.22302e-14
-1.80702e-14
-1.87506e-13
-3.52131e-12
-6.98035e-11
-1.24691e-09
-1.7931e-08
-1.14247e-07
-7.26539e-08
-1.5908e-06
-0.00261509
-0.023783
-0.000961737
-3.44297e-05
-0.00224952
-1.08711e-12
-4.15873e-13
-1.25778e-13
-2.66981e-14
-4.08555e-15
-9.56976e-16
-1.16257e-14
-2.63172e-13
-5.08829e-12
-7.86261e-11
-8.08799e-10
-2.10316e-09
-1.35165e-10
-3.80191e-07
-0.00696338
-0.153861
-0.00692888
-3.54658e-05
-0.00441796
-9.40929e-14
-3.8171e-14
-1.26503e-14
-2.98818e-15
-4.78312e-16
-4.91604e-17
-3.47774e-17
-5.38313e-16
-8.28653e-15
-9.05979e-14
-2.68719e-13
-1.5631e-12
-1.39116e-10
-1.87083e-07
-0.00655496
-0.159398
-0.025862
-0.00023252
-0.004547
-7.06741e-15
-2.99456e-15
-1.06731e-15
-2.7766e-16
-4.82195e-17
-4.09908e-18
-4.90296e-19
-6.03282e-20
-3.39284e-19
-4.51669e-17
-5.37139e-15
-5.03007e-13
-4.2666e-11
-3.24671e-08
-0.00135209
-0.133337
-0.0586853
-0.000567563
-0.00467592
-4.50796e-16
-1.9899e-16
-7.61667e-17
-2.17372e-17
-4.2155e-18
-3.08692e-19
-3.50149e-20
-4.94392e-21
-2.6894e-22
-3.10687e-20
-1.85015e-17
-8.24183e-15
-2.71132e-12
-3.1993e-10
5.45827e-23
1.56628e-21
-0.10734
-0.0060425
-0.00416105
-2.56565e-17
-1.16589e-17
-4.77443e-18
-1.49656e-18
-3.29346e-19
-2.09906e-20
-2.00376e-21
-3.39692e-22
-1.71031e-23
-8.12929e-25
-3.28978e-26
7.85707e-46
1.43672e-27
1.32676e-24
3.16421e-22
1.33341e-20
-0.150134
-0.017258
-0.00152371
-1.21398e-18
-5.6037e-19
-2.41926e-19
-8.32031e-20
-2.12378e-20
-1.28329e-21
-1.01201e-22
-1.76806e-23
-1.40254e-24
-8.72853e-26
-4.65589e-27
-2.44813e-28
-1.2507e-29
2.80807e-25
1.10046e-22
1.73122e-20
-0.154059
-0.033135
-0.000398618
-4.96488e-20
-2.3074e-20
-1.04167e-20
-3.88606e-21
-1.14655e-21
-7.45566e-23
-5.91719e-24
-7.98576e-25
-8.17246e-26
-6.26051e-27
-3.96578e-28
-1.9004e-29
-8.48298e-31
4.88809e-26
3.16883e-23
1.15993e-20
-0.157883
-0.0449646
-0.000163
-1.56758e-21
-7.32013e-22
-3.41347e-22
-1.34506e-22
-4.41533e-23
-3.50871e-24
-2.91805e-25
-3.15804e-26
-3.25002e-27
-2.74595e-28
-1.96061e-29
-1.09759e-30
-5.47215e-32
6.82848e-27
7.5812e-24
3.82144e-21
-0.16168
-0.0627185
-0.00011618
-3.84274e-23
-1.79539e-23
-8.73066e-24
-3.60341e-24
-1.31855e-24
-1.39615e-25
-1.22407e-26
-1.12612e-27
-1.06144e-28
-9.04895e-30
-6.79613e-31
-4.15853e-32
-2.25116e-33
7.03582e-28
1.40271e-24
3.16815e-22
-0.165522
-0.0861669
-0.000111977
-6.18488e-25
-2.93079e-25
-1.45266e-25
-6.13212e-26
-2.28928e-26
-2.63705e-27
-2.42387e-28
-2.17256e-29
-1.94804e-30
-1.62759e-31
-1.22584e-32
-7.76543e-34
-4.35972e-35
4.80335e-29
1.66733e-25
6.49713e-23
-0.161611
-0.0775884
-0.000114642
-5.05882e-27
-2.41868e-27
-1.2347e-27
-5.36296e-28
-2.13636e-28
-3.1047e-29
-3.18538e-30
-2.83788e-31
-2.39859e-32
-1.91497e-33
-1.40699e-34
-8.97334e-36
-5.11568e-37
1.48356e-30
9.1118e-27
1.96053e-23
-0.0411318
-0.0805842
-0.00253198
-1.0806e-36
-1.53032e-37
-2.00318e-38
-1.4556e-39
-8.73361e-41
-4.48108e-42
-2.29849e-43
-7.836e-45
-1.42639e-46
-7.13433e-49
9.95496e-48
4.57462e-48
1.50342e-48
7.27732e-49
1.04574e-48
2.47559e-24
4.83753e-25
-0.123779
-0.0103321
)
;

boundaryField
{
    leftWall
    {
        type            calculated;
        value           nonuniform List<scalar> 
50
(
-29.4294
-88.2881
-147.147
-206.006
-264.864
-323.723
-382.582
-441.44
-533.467
-658.662
-783.856
-909.051
-1034.22
-1156.03
-1272.96
-1395.84
-1519.79
-1458.61
-485.783
-6.80286
-0.16952
-109.373
-393.071
-419.368
-441.15
-332.397
-21.4932
-0.0203298
-0.000561474
-2.71232e-05
-2.81969e-05
-2.97377e-05
-3.94392e-05
-1.95058e-05
-1.89559e-05
-1.95823e-05
-2.02087e-05
-2.08351e-05
-0.507181
-0.314351
-0.0071374
-3.2808e-06
-1.22527e-08
-2.47191e-09
-5.20413e-10
-1.10073e-10
-2.30953e-11
-5.1991e-12
-3.40436e-12
-7.3251e-12
)
;
    }
    rightWall
    {
        type            calculated;
        value           nonuniform List<scalar> 
50
(
-28.833
-86.8807
-144.801
-202.816
-262.477
-320.805
-375.833
-400.777
-366.663
-76.0529
-0.00803675
-0.109085
-0.0901388
-0.0927025
-0.0904708
-0.0324755
-1.83069e-07
-1.98019e-07
-6.99527e-07
-2.47521e-05
-0.000406186
-0.000636671
-0.000673329
-0.00071044
-0.000348391
-5.3268e-06
-5.57735e-06
-9.24895e-06
-1.75896e-05
-2.38657e-05
-5.27031e-05
-0.000476463
-0.000614608
-0.000636462
-0.000473062
-0.000137489
-9.99053e-05
-0.00224952
-0.00441796
-0.004547
-0.00467592
-0.00416105
-0.00152371
-0.000398618
-0.000163
-0.00011618
-0.000111977
-0.000114642
-0.00253198
-0.0103321
)
;
    }
    lowerWall
    {
        type            calculated;
        value           nonuniform List<scalar> 
62
(
0
0
0
0
0
0
0
0
0
0
0
0
0
0
0
0
0
0
0
0
0
0
0
-29.427
-88.27
-147.113
-205.959
-264.804
-323.661
-382.573
-441.439
-469.06
-469.066
-363.507
-358.664
-11.3214
-33.9552
-92.0426
-130.295
-161.688
-204.631
-278.22
-336.369
0
0
0
0
0
0
0
0
0
0
0
0
0
0
0
0
0
0
0
)
;
    }
    atmosphere
    {
        type            calculated;
        value           nonuniform List<scalar> 
46
(
-7.40602e-12
-2.34125e-10
-4.112e-09
-4.58193e-08
-3.70131e-07
-4.14933e-06
-0.000119101
-0.000520441
-0.000657197
-3.04052e-05
-2.4652e-06
-1.32958e-08
-2.53331e-08
-9.98736e-09
-7.59548e-10
-6.39949e-12
-1.45684e-13
-3.35518e-16
-0
-0
-0
-0
-0
-0
-0
-0
-0
-0
-0
-0
-0
-0
-0
-0
-0
-0
-0
-0
-0
-0
-0
-0
-0
-0
-0.125146
-0.0104462
)
;
    }
    defaultFaces
    {
        type            empty;
    }
}


// ************************************************************************* //
