/*--------------------------------*- C++ -*----------------------------------*\
| =========                 |                                                 |
| \\      /  F ield         | OpenFOAM: The Open Source CFD Toolbox           |
|  \\    /   O peration     | Version:  2012                                  |
|   \\  /    A nd           | Website:  www.openfoam.com                      |
|    \\/     M anipulation  |                                                 |
\*---------------------------------------------------------------------------*/
FoamFile
{
    version     2.0;
    format      ascii;
    class       volVectorField;
    location    "0.95";
    object      U;
}
// * * * * * * * * * * * * * * * * * * * * * * * * * * * * * * * * * * * * * //

dimensions      [0 1 -1 0 0 0 0];


internalField   nonuniform List<vector> 
2268
(
(-0.000730701 0.00124983 0)
(-0.00512849 0.00131416 0)
(-0.009297 0.00158797 0)
(-0.017595 0.00163705 0)
(-0.0271697 0.00124752 0)
(-0.039118 0.00159098 0)
(-0.0531572 0.00255194 0)
(-0.0648687 0.00254192 0)
(-0.0769039 0.0022406 0)
(-0.0798616 0.00084393 0)
(-0.0795044 -0.000902354 0)
(-0.0701526 -0.00292109 0)
(-0.0580765 -0.00404098 0)
(-0.0390708 -0.00548153 0)
(-0.0193885 -0.00627746 0)
(0.00553722 -0.00735701 0)
(0.0316581 -0.00769257 0)
(0.0566571 -0.00715881 0)
(0.0768256 -0.00625094 0)
(0.086317 -0.00572616 0)
(0.0868114 -0.00352934 0)
(0.0501124 -0.00390538 0)
(0.03381 0.00713611 0)
(-0.000359437 0.00154068 0)
(-0.00499076 0.00271967 0)
(-0.00926892 0.00435545 0)
(-0.0172315 0.00678203 0)
(-0.026444 0.0089718 0)
(-0.0381681 0.0106717 0)
(-0.0529195 0.00965121 0)
(-0.0652767 0.00867776 0)
(-0.077845 0.00487106 0)
(-0.0813325 0.000372811 0)
(-0.0807852 -0.00365861 0)
(-0.0713615 -0.00722742 0)
(-0.0594688 -0.0106099 0)
(-0.0398882 -0.0128308 0)
(-0.01971 -0.0147532 0)
(0.00627896 -0.0168137 0)
(0.0321521 -0.016391 0)
(0.0587237 -0.0142699 0)
(0.0794187 -0.00765573 0)
(0.0889445 0.000877025 0)
(0.087755 0.0207277 0)
(0.0547286 0.0288711 0)
(0.0290976 0.0324896 0)
(-0.00079172 0.00374709 0)
(-0.0044854 0.00545221 0)
(-0.00772391 0.00737143 0)
(-0.0159546 0.0096669 0)
(-0.0259254 0.0111538 0)
(-0.0392632 0.0140455 0)
(-0.0547416 0.0153576 0)
(-0.0678774 0.0142593 0)
(-0.0805532 0.00982924 0)
(-0.0837061 0.00217928 0)
(-0.0836507 -0.00560822 0)
(-0.0738363 -0.0130443 0)
(-0.0611594 -0.0189148 0)
(-0.0402255 -0.0243348 0)
(-0.0200803 -0.028084 0)
(0.00806833 -0.031935 0)
(0.0333521 -0.0324357 0)
(0.0630617 -0.0295715 0)
(0.0843274 -0.0204435 0)
(0.0958798 -0.00966231 0)
(0.0986912 0.0127137 0)
(0.0645009 0.0238836 0)
(0.0288074 0.0468388 0)
(0.000254735 0.00411207 0)
(-0.00295348 0.00603521 0)
(-0.0056112 0.00989083 0)
(-0.0130719 0.0154126 0)
(-0.0231938 0.0200805 0)
(-0.0365969 0.024311 0)
(-0.0537762 0.0232512 0)
(-0.0688596 0.0209406 0)
(-0.083574 0.0124016 0)
(-0.0881899 0.00186856 0)
(-0.0885066 -0.00827959 0)
(-0.0781769 -0.0178454 0)
(-0.0652969 -0.0264229 0)
(-0.0436762 -0.0322244 0)
(-0.0228576 -0.0374883 0)
(0.0070233 -0.0420702 0)
(0.0330858 -0.0422612 0)
(0.0665309 -0.0384308 0)
(0.0901862 -0.0230183 0)
(0.108102 -0.00619065 0)
(0.110646 0.0357228 0)
(0.075276 0.0617203 0)
(0.0252811 0.0764398 0)
(-0.000535132 0.00493567 0)
(-0.00221498 0.00808194 0)
(-0.0038572 0.0120983 0)
(-0.0118684 0.0178112 0)
(-0.0225399 0.0222404 0)
(-0.0386031 0.0283889 0)
(-0.0567624 0.0305488 0)
(-0.0731267 0.0282165 0)
(-0.0890464 0.0189269 0)
(-0.0934012 0.00441628 0)
(-0.0943267 -0.0103543 0)
(-0.0832955 -0.0240899 0)
(-0.0687156 -0.0352653 0)
(-0.0452582 -0.0445016 0)
(-0.0230782 -0.0520969 0)
(0.0102916 -0.0584836 0)
(0.0370851 -0.0606045 0)
(0.0735656 -0.0566736 0)
(0.0974682 -0.0400314 0)
(0.125385 -0.0191748 0)
(0.134054 0.0281809 0)
(0.0966879 0.0642839 0)
(0.0431112 0.0945259 0)
(0.00201596 0.00555486 0)
(-3.7277e-05 0.00770166 0)
(-0.000411612 0.014653 0)
(-0.00703129 0.0243383 0)
(-0.0187924 0.0328776 0)
(-0.0344345 0.0405631 0)
(-0.0551119 0.0397026 0)
(-0.075027 0.0363513 0)
(-0.0949697 0.0220523 0)
(-0.102176 0.00446261 0)
(-0.103021 -0.0130169 0)
(-0.0907999 -0.0298908 0)
(-0.0758059 -0.0442988 0)
(-0.0519621 -0.0536934 0)
(-0.0274035 -0.0636041 0)
(0.0066276 -0.0704136 0)
(0.0350956 -0.0719352 0)
(0.0731946 -0.0669253 0)
(0.100987 -0.0473167 0)
(0.135258 -0.024026 0)
(0.141272 0.0496901 0)
(0.0990253 0.104618 0)
(0.0357137 0.142361 0)
(0.00144179 0.00385132 0)
(0.00430278 0.00899865 0)
(0.00505547 0.0152882 0)
(-0.00235623 0.0262212 0)
(-0.0142463 0.0350979 0)
(-0.0357268 0.0453624 0)
(-0.0585756 0.0496063 0)
(-0.0803766 0.0468556 0)
(-0.103165 0.0316656 0)
(-0.110601 0.00807467 0)
(-0.111905 -0.0157535 0)
(-0.0998448 -0.0370598 0)
(-0.0820817 -0.05372 0)
(-0.054483 -0.0675531 0)
(-0.0269252 -0.0799377 0)
(0.00889558 -0.0882245 0)
(0.0349682 -0.0923305 0)
(0.0699297 -0.0881206 0)
(0.0850141 -0.0692993 0)
(0.118718 -0.0377466 0)
(0.141586 0.0449656 0)
(0.112614 0.113958 0)
(0.0555391 0.15813 0)
(0.00260731 0.00305824 0)
(0.00114393 0.00614771 0)
(0.0068417 0.0181064 0)
(0.0031785 0.0336443 0)
(-0.0110714 0.0489072 0)
(-0.0299999 0.0616896 0)
(-0.0557236 0.0610137 0)
(-0.0838008 0.0577017 0)
(-0.113577 0.0364146 0)
(-0.124599 0.00879987 0)
(-0.124662 -0.0181122 0)
(-0.109982 -0.0438581 0)
(-0.0904759 -0.0656148 0)
(-0.0623451 -0.0795421 0)
(-0.0384054 -0.0933582 0)
(-0.00882914 -0.0993938 0)
(0.0143017 -0.100321 0)
(0.0508188 -0.09021 0)
(0.0514749 -0.0703058 0)
(0.0650499 -0.0519867 0)
(0.0945108 0.0534387 0)
(0.0887922 0.145597 0)
(0.054395 0.222165 0)
(-0.644233 0.23697 0)
(-1.47594 0.0703987 0)
(-1.61573 -0.0172569 0)
(-1.57658 -0.00235745 0)
(-1.39174 0.0229492 0)
(-1.20937 -0.0123694 0)
(-0.881683 -0.0769336 0)
(-0.397525 -0.101074 0)
(-0.0542039 -0.0681332 0)
(0.157119 -0.050732 0)
(0.273589 0.00266386 0)
(0.231816 0.0747595 0)
(-0.240397 0.087228 0)
(-0.551167 0.0599147 0)
(-0.677494 0.0571546 0)
(-0.690818 0.00995521 0)
(-0.647072 -0.0576806 0)
(-0.45305 -0.08139 0)
(-0.139049 -0.0724378 0)
(-0.111292 0.659377 0)
(-1.12231 0.340765 0)
(-1.59801 0.0599525 0)
(-1.51641 -0.0922103 0)
(-1.22776 -0.179075 0)
(-0.975291 -0.206267 0)
(-0.612501 -0.269625 0)
(-0.301538 -0.252845 0)
(-0.066617 -0.167318 0)
(0.0932763 -0.0892186 0)
(0.154023 -0.0337052 0)
(0.298881 0.144171 0)
(0.0276793 0.2457 0)
(-0.326846 0.126241 0)
(-0.5146 0.00176032 0)
(-0.5095 -0.0238072 0)
(-0.483802 -0.0431353 0)
(-0.227276 -0.135033 0)
(-0.105149 -0.180007 0)
(-0.0856929 0.749981 0)
(0.0899811 0.727841 0)
(-0.910364 0.118828 0)
(-0.646102 -0.162603 0)
(-0.475474 -0.209865 0)
(-0.47719 -0.267619 0)
(-0.362257 -0.361777 0)
(-0.213117 -0.33341 0)
(-0.0754348 -0.234791 0)
(0.062828 -0.144896 0)
(0.143137 -0.084654 0)
(0.250887 0.127523 0)
(0.37928 0.349679 0)
(0.218512 0.291998 0)
(0.0367064 0.135833 0)
(-0.20656 -0.00353542 0)
(-0.295317 -0.176411 0)
(-0.0145438 -0.243937 0)
(0.0036794 -0.213207 0)
(-0.0936828 0.650569 0)
(0.511219 0.711938 0)
(0.246809 0.402359 0)
(-0.238019 -0.267142 0)
(-0.282704 -0.251361 0)
(-0.288509 -0.259135 0)
(-0.232582 -0.383693 0)
(-0.176163 -0.375992 0)
(-0.0803911 -0.284535 0)
(0.0339128 -0.182206 0)
(0.0898506 -0.113104 0)
(0.131285 0.0441653 0)
(0.405661 0.262367 0)
(0.506816 0.272734 0)
(0.474855 0.181096 0)
(0.364423 0.115639 0)
(0.143346 -0.122915 0)
(0.130645 -0.261721 0)
(0.0753068 -0.184731 0)
(-0.128979 0.564983 0)
(0.483599 0.609107 0)
(0.612057 0.423253 0)
(0.344593 0.0485966 0)
(-0.213489 -0.188605 0)
(-0.245553 -0.286099 0)
(-0.17819 -0.408269 0)
(-0.166623 -0.398586 0)
(-0.0924477 -0.322795 0)
(-0.00229443 -0.218444 0)
(0.0428328 -0.125724 0)
(0.0972686 -0.00811315 0)
(0.317255 0.18718 0)
(0.495648 0.262737 0)
(0.468918 0.199329 0)
(0.395569 0.138555 0)
(0.359619 -0.074361 0)
(0.193315 -0.21636 0)
(0.101514 -0.125717 0)
(-0.165656 0.490889 0)
(0.29706 0.415818 0)
(0.557083 0.347831 0)
(0.725276 0.19734 0)
(-0.193419 -0.0145821 0)
(-0.259609 -0.275332 0)
(-0.169004 -0.418097 0)
(-0.197755 -0.413082 0)
(-0.15783 -0.355348 0)
(-0.0998215 -0.239551 0)
(-0.184069 -0.158215 0)
(0.0393569 -0.0681637 0)
(0.265043 0.0965314 0)
(0.471647 0.208552 0)
(0.409106 0.220298 0)
(0.312562 0.160098 0)
(0.314605 -0.0374832 0)
(0.167341 -0.151579 0)
(0.0770679 -0.0593483 0)
(-0.21001 0.509849 0)
(-0.0260925 0.318637 0)
(0.103097 0.267654 0)
(0.138802 0.329254 0)
(-0.119207 0.201838 0)
(-0.243501 -0.295227 0)
(-0.174403 -0.434211 0)
(-0.234657 -0.404346 0)
(-0.223427 -0.360941 0)
(-0.46822 -0.207082 0)
(-0.561541 -0.173111 0)
(-0.449333 -0.209594 0)
(-0.105011 -0.00614026 0)
(0.327128 0.205536 0)
(0.261367 0.268826 0)
(0.173225 0.179664 0)
(0.216951 -0.0124944 0)
(0.0440756 -0.115079 0)
(0.0448673 -0.0220733 0)
(-0.197569 0.588244 0)
(-0.141917 0.279376 0)
(-0.102801 0.256971 0)
(0.0773214 0.313893 0)
(0.075541 0.178637 0)
(-0.0997243 -0.251512 0)
(-0.170477 -0.422972 0)
(-0.257659 -0.393339 0)
(-0.318755 -0.257482 0)
(-0.774123 -0.0964983 0)
(-0.718942 -0.177838 0)
(-0.707712 -0.25533 0)
(-0.630405 -0.221352 0)
(-0.197377 0.0461942 0)
(-0.00148007 0.281857 0)
(0.0192018 0.178531 0)
(0.058493 0.0167444 0)
(-0.043976 -0.0784763 0)
(-0.0282404 -0.0210893 0)
(0.00418641 0.00119635 0)
(0.0146054 0.00695871 0)
(0.01962 0.0119309 0)
(0.0138943 0.0346189 0)
(-0.000758545 0.0515653 0)
(-0.0349249 0.0686466 0)
(-0.062109 0.0825906 0)
(-0.0915267 0.0830535 0)
(-0.126892 0.0588674 0)
(-0.137218 0.0154917 0)
(-0.138587 -0.0251989 0)
(-0.125995 -0.0587164 0)
(-0.104474 -0.0824736 0)
(-0.0854511 -0.0996896 0)
(-0.0691276 -0.112359 0)
(-0.0301645 -0.121475 0)
(0.00616002 -0.133182 0)
(0.0348224 -0.116071 0)
(-0.06196 -0.0788332 0)
(-0.0384152 -0.059228 0)
(0.0171214 0.021426 0)
(0.141098 0.124599 0)
(0.1473 0.226595 0)
(0.00641922 -0.0148391 0)
(0.0177114 -0.00958181 0)
(0.0489154 0.0216545 0)
(0.0458327 0.0539879 0)
(0.0211402 0.097485 0)
(0.00511332 0.121258 0)
(-0.0319576 0.110508 0)
(-0.0856006 0.114351 0)
(-0.155971 0.0741705 0)
(-0.187604 0.0187349 0)
(-0.19228 -0.0272167 0)
(-0.178139 -0.0724654 0)
(-0.157318 -0.100238 0)
(-0.137266 -0.107317 0)
(-0.101236 -0.14207 0)
(-0.0409781 -0.167258 0)
(-0.130011 -0.145511 0)
(-0.755473 0.0699045 0)
(-0.336127 -0.0678312 0)
(-0.0537409 -0.179957 0)
(0.0560051 -0.107534 0)
(0.11877 0.0232748 0)
(0.0653299 0.169778 0)
(0.00209323 -0.0232839 0)
(0.016792 -0.0364859 0)
(0.0439647 -0.0163817 0)
(0.0473203 0.0615395 0)
(0.0229483 0.0923648 0)
(0.0294556 0.121095 0)
(0.0666202 0.173072 0)
(0.00682631 0.207528 0)
(-0.150499 0.161078 0)
(-0.258644 0.0514896 0)
(-0.309419 -0.0341717 0)
(-0.292515 -0.093973 0)
(-0.202518 -0.12375 0)
(-0.00809393 -0.158995 0)
(0.524788 -0.218096 0)
(0.0569339 -0.0529036 0)
(-0.808651 0.545666 0)
(-0.295496 -0.156539 0)
(-0.101841 -0.521583 0)
(0.0461285 -0.409025 0)
(0.113907 -0.158209 0)
(0.180103 0.115639 0)
(0.0156175 0.239364 0)
(-0.0044263 -0.0333786 0)
(-0.00775565 -0.0518731 0)
(-0.0422911 -0.0078606 0)
(-0.0735349 0.0757006 0)
(-0.00457225 0.116014 0)
(0.0906826 0.0781543 0)
(0.239614 0.133842 0)
(0.263221 0.33329 0)
(-0.032506 0.340131 0)
(-0.218624 0.180327 0)
(-0.312512 0.00445066 0)
(-0.401827 -0.178454 0)
(-0.527218 -0.310209 0)
(-0.435328 -0.733615 0)
(0.020278 -0.256478 0)
(-0.291413 1.29629 0)
(-0.522368 0.19938 0)
(-0.111881 -0.481497 0)
(-0.169509 -0.497818 0)
(-0.139472 -0.44415 0)
(-0.102298 -0.237691 0)
(-0.0674251 0.121108 0)
(-0.19392 0.3628 0)
(-0.0432935 -0.0110198 0)
(-0.138727 0.000561554 0)
(-0.279225 0.050465 0)
(-0.387905 0.0177544 0)
(-0.426472 -0.0714064 0)
(-0.220591 -0.126896 0)
(-0.0859079 -0.00310119 0)
(0.285363 0.484422 0)
(-0.227866 0.639149 0)
(-0.706456 0.333174 0)
(-1.23738 0.170345 0)
(-1.2967 0.249031 0)
(-0.930053 -0.536476 0)
(-0.884363 -0.662164 0)
(-0.889925 -0.581476 0)
(-0.541188 0.777145 0)
(-0.357518 -0.0194313 0)
(-0.379205 -0.450443 0)
(-0.417482 -0.492219 0)
(-0.41288 -0.477028 0)
(-0.456015 -0.229321 0)
(-0.510088 0.207857 0)
(-0.582325 0.554313 0)
(-0.0919526 0.150476 0)
(-0.315739 0.183808 0)
(-0.569281 0.248139 0)
(-0.921637 0.234414 0)
(-0.971643 -0.0468159 0)
(-0.992365 -0.263792 0)
(-0.926848 -0.389943 0)
(-0.38747 0.477178 0)
(-1.01713 1.29678 0)
(-1.68972 1.20057 0)
(-1.77486 0.492101 0)
(-1.08488 -0.464901 0)
(-0.964431 -0.652229 0)
(-0.905158 -0.693696 0)
(-0.908603 -0.649988 0)
(-0.696628 1.11544 0)
(-0.524816 -0.0537209 0)
(-0.599752 -0.399377 0)
(-0.623529 -0.461883 0)
(-0.667761 -0.406462 0)
(-0.734777 -0.13474 0)
(-0.786323 0.249924 0)
(-0.779723 0.526824 0)
(-0.13066 0.398313 0)
(-0.361264 0.476962 0)
(-0.666672 0.669189 0)
(-1.34757 0.392804 0)
(-1.36276 0.00240638 0)
(-1.46026 -0.187235 0)
(-1.25512 -0.633517 0)
(-1.943 0.728541 0)
(-1.95325 1.91722 0)
(-2.02128 1.0846 0)
(-1.16049 -0.35791 0)
(-1.01698 -0.602239 0)
(-0.942787 -0.708951 0)
(-0.898568 -0.72445 0)
(-0.855405 -0.669373 0)
(-0.89075 -0.0592438 0)
(-0.682008 -0.000927853 0)
(-0.73637 -0.35936 0)
(-0.75825 -0.424853 0)
(-0.770949 -0.366569 0)
(-0.815596 -0.110646 0)
(-0.808558 0.251929 0)
(-0.771288 0.517755 0)
(-0.116388 0.645474 0)
(-0.311718 0.706992 0)
(-0.599631 1.1918 0)
(-1.42531 0.901741 0)
(-1.4457 0.0713429 0)
(-1.43053 -0.382132 0)
(-2.00888 0.152319 0)
(-2.33793 1.01415 0)
(-2.16566 1.51935 0)
(-1.1639 0.501745 0)
(-1.01912 -0.524082 0)
(-0.999784 -0.68788 0)
(-0.940448 -0.768857 0)
(-0.895763 -0.785271 0)
(-0.822594 -0.637849 0)
(-1.05813 0.826949 0)
(-0.899159 -0.0682084 0)
(-0.873841 -0.386597 0)
(-0.821215 -0.422107 0)
(-0.748717 -0.348533 0)
(-0.712734 -0.0961268 0)
(-0.722905 0.205978 0)
(-0.693038 0.470665 0)
(-0.094269 0.828039 0)
(-0.224807 0.836262 0)
(-0.265811 2.16118 0)
(-1.29987 1.13471 0)
(-1.01014 0.0641669 0)
(-1.51483 0.254609 0)
(-1.7112 0.388513 0)
(-1.82083 0.87594 0)
(-1.29187 0.660148 0)
(-0.931284 -0.12062 0)
(-1.05068 -0.511008 0)
(-1.0509 -0.676614 0)
(-0.998786 -0.813871 0)
(-0.948538 -0.836817 0)
(-1.26616 -0.441734 0)
(-0.993424 0.157706 0)
(-0.8283 -0.0656753 0)
(-0.857128 -0.452252 0)
(-0.803617 -0.552458 0)
(-0.633899 -0.471872 0)
(-0.554515 -0.137343 0)
(-0.507254 0.229608 0)
(-0.477916 0.465672 0)
(-0.064222 0.965482 0)
(-0.134357 0.846184 0)
(0.0176131 2.37503 0)
(-0.652598 1.5735 0)
(-0.829129 0.282911 0)
(-1.01011 0.355886 0)
(-1.04775 0.389148 0)
(-0.949921 0.619552 0)
(-0.680441 0.617783 0)
(-0.750926 0.25843 0)
(-0.947301 -0.416646 0)
(-0.754229 -0.778404 0)
(-0.837003 -0.828058 0)
(-0.884643 -0.662927 0)
(-1.04793 -0.424744 0)
(-0.81642 0.0426299 0)
(-0.687277 -0.149106 0)
(-0.595398 -0.436378 0)
(-0.5695 -0.634372 0)
(-0.472609 -0.60837 0)
(-0.464376 -0.195723 0)
(-0.372752 0.129309 0)
(-0.296631 0.405738 0)
(-0.0465106 1.02695 0)
(-0.0696543 0.785977 0)
(0.00992703 2.51405 0)
(0.00692626 2.05576 0)
(-0.513401 0.438936 0)
(-0.470492 0.450474 0)
(-0.607217 0.380395 0)
(-0.471726 0.48918 0)
(-0.331512 0.496041 0)
(-0.26509 0.152764 0)
(-0.171685 -0.513112 0)
(-0.296564 -0.752081 0)
(-0.473793 -0.678958 0)
(-0.610594 -0.599201 0)
(-0.732448 -0.457314 0)
(-0.637475 -0.213207 0)
(-0.444238 -0.25721 0)
(-0.422472 -0.57779 0)
(-0.438665 -0.656012 0)
(-0.517069 -0.611456 0)
(-0.420168 -0.267351 0)
(-0.340886 0.0546444 0)
(-0.27004 0.260126 0)
(-0.000974317 1.07859 0)
(-0.00693691 0.807685 0)
(-0.249138 2.2868 0)
(0.239738 2.17306 0)
(-0.296604 0.704597 0)
(-0.19869 0.489439 0)
(-0.354575 0.346168 0)
(-0.137563 0.354466 0)
(-0.090138 0.373586 0)
(0.186642 0.102813 0)
(0.0585 -0.38579 0)
(-0.110066 -0.500037 0)
(-0.335241 -0.501852 0)
(-0.422576 -0.44905 0)
(-0.533714 -0.369905 0)
(-0.513499 -0.298597 0)
(-0.427359 -0.34305 0)
(-0.42817 -0.467282 0)
(-0.569375 -0.533063 0)
(-0.632037 -0.616324 0)
(-0.684557 -0.338764 0)
(-0.501782 -0.0223322 0)
(-0.343523 0.158005 0)
(0.0636499 0.947731 0)
(-0.131755 1.14666 0)
(-0.564275 2.13943 0)
(0.0998421 2.17213 0)
(-0.345366 0.834272 0)
(-0.08414 0.538627 0)
(-0.31465 0.308779 0)
(-0.0378303 0.243981 0)
(-0.107583 0.170569 0)
(0.186262 0.0217336 0)
(-0.01215 -0.22781 0)
(-0.0987356 -0.336645 0)
(-0.290126 -0.368382 0)
(-0.351953 -0.386886 0)
(-0.448681 -0.349292 0)
(-0.450978 -0.330345 0)
(-0.463423 -0.317315 0)
(-0.493826 -0.43726 0)
(-0.573958 -0.449533 0)
(-0.667427 -0.494822 0)
(-0.75475 -0.421698 0)
(-0.637777 -0.28088 0)
(-0.469852 -0.0399087 0)
(-0.318721 1.21375 0)
(-0.0718256 1.47674 0)
(-0.747805 2.00825 0)
(-0.0488363 2.00864 0)
(-0.368101 0.82869 0)
(-0.0243949 0.504263 0)
(-0.26405 0.256576 0)
(0.0340635 0.170245 0)
(-0.128469 0.116002 0)
(0.0920728 0.0243928 0)
(-0.100957 -0.115288 0)
(-0.100596 -0.217956 0)
(-0.268087 -0.253066 0)
(-0.30586 -0.296878 0)
(-0.410613 -0.270704 0)
(-0.435273 -0.294986 0)
(-0.473784 -0.301531 0)
(-0.497969 -0.359683 0)
(-0.600512 -0.362992 0)
(-0.657411 -0.426127 0)
(-0.749971 -0.364491 0)
(-0.765576 -0.303058 0)
(-0.717195 -0.181234 0)
(-0.348166 1.26412 0)
(0.218372 1.67862 0)
(-0.753695 2.03342 0)
(-0.000561177 1.85498 0)
(-0.378295 0.764862 0)
(0.0475153 0.474616 0)
(-0.249067 0.223883 0)
(0.0235484 0.136735 0)
(-0.181377 0.094126 0)
(-0.0154405 0.0184654 0)
(-0.174363 -0.0517665 0)
(-0.153659 -0.149011 0)
(-0.294468 -0.17275 0)
(-0.3175 -0.23122 0)
(-0.420524 -0.22008 0)
(-0.436635 -0.261689 0)
(-0.508751 -0.250537 0)
(-0.55061 -0.305212 0)
(-0.631842 -0.290876 0)
(-0.703587 -0.340489 0)
(-0.796368 -0.32222 0)
(-0.824619 -0.307343 0)
(-0.831353 -0.250061 0)
(-0.367234 1.31267 0)
(0.25333 1.95276 0)
(-0.744844 2.12703 0)
(0.0610715 1.69385 0)
(-0.373345 0.72284 0)
(0.0636614 0.41704 0)
(-0.247447 0.240011 0)
(-0.0165749 0.131157 0)
(-0.223903 0.126326 0)
(-0.09919 0.0375382 0)
(-0.235674 0.00528123 0)
(-0.207064 -0.0853435 0)
(-0.322274 -0.0999371 0)
(-0.337832 -0.164596 0)
(-0.429303 -0.158489 0)
(-0.45593 -0.204864 0)
(-0.527539 -0.193542 0)
(-0.567791 -0.233675 0)
(-0.644707 -0.215668 0)
(-0.700089 -0.256216 0)
(-0.793346 -0.24618 0)
(-0.862298 -0.264905 0)
(-0.932857 -0.258008 0)
(-0.372952 1.35316 0)
(0.31027 2.14098 0)
(-0.677221 2.16241 0)
(0.0964195 1.54398 0)
(-0.358785 0.718503 0)
(0.0209267 0.390128 0)
(-0.277609 0.272689 0)
(-0.0941627 0.143942 0)
(-0.277639 0.153885 0)
(-0.177242 0.0532001 0)
(-0.291612 0.039101 0)
(-0.262448 -0.045335 0)
(-0.357434 -0.0531454 0)
(-0.364497 -0.112094 0)
(-0.445493 -0.107839 0)
(-0.467015 -0.154707 0)
(-0.537929 -0.141562 0)
(-0.573334 -0.180385 0)
(-0.639294 -0.161263 0)
(-0.683533 -0.185373 0)
(-0.761603 -0.162906 0)
(-0.825876 -0.162299 0)
(-0.92216 -0.142656 0)
(-0.369528 1.35494 0)
(0.364674 2.30983 0)
(-0.625229 2.26867 0)
(0.0321661 1.42761 0)
(-0.366282 0.745581 0)
(-0.0753859 0.377947 0)
(-0.324537 0.317196 0)
(-0.177632 0.161029 0)
(-0.326406 0.183515 0)
(-0.245158 0.071698 0)
(-0.34153 0.0736772 0)
(-0.31508 -0.00614155 0)
(-0.395052 -0.00881762 0)
(-0.401133 -0.067853 0)
(-0.471097 -0.0636865 0)
(-0.493078 -0.106868 0)
(-0.553764 -0.0935438 0)
(-0.585999 -0.127865 0)
(-0.643138 -0.11097 0)
(-0.680756 -0.130005 0)
(-0.737815 -0.108051 0)
(-0.778667 -0.101775 0)
(-0.83386 -0.0770159 0)
(-0.364565 1.34086 0)
(0.120205 2.46034 0)
(-0.631451 2.43184 0)
(-0.138298 1.34279 0)
(-0.413468 0.779068 0)
(-0.21141 0.39073 0)
(-0.385057 0.342182 0)
(-0.259262 0.174127 0)
(-0.366354 0.199591 0)
(-0.298414 0.087439 0)
(-0.376751 0.0943161 0)
(-0.354895 0.0214777 0)
(-0.423248 0.02328 0)
(-0.429355 -0.0265334 0)
(-0.493292 -0.0219834 0)
(-0.515059 -0.0645849 0)
(-0.57176 -0.0526189 0)
(-0.601222 -0.0845233 0)
(-0.653874 -0.0693442 0)
(-0.69016 -0.0851004 0)
(-0.743157 -0.0665175 0)
(-0.780809 -0.0618346 0)
(-0.823111 -0.0424832 0)
(-0.369904 1.57314 0)
(-0.346116 2.62718 0)
(-0.705795 2.47009 0)
(-0.385915 1.25948 0)
(-0.519488 0.772089 0)
(-0.361356 0.38903 0)
(-0.44992 0.332835 0)
(-0.34236 0.168064 0)
(-0.40779 0.201816 0)
(-0.349869 0.0988449 0)
(-0.407147 0.11675 0)
(-0.387084 0.0514152 0)
(-0.44186 0.0568758 0)
(-0.446274 0.00967348 0)
(-0.497211 0.0157951 0)
(-0.517402 -0.0231538 0)
(-0.565751 -0.0123574 0)
(-0.593924 -0.041851 0)
(-0.644655 -0.0262178 0)
(-0.684546 -0.0379986 0)
(-0.741472 -0.0206194 0)
(-0.785966 -0.0205128 0)
(-0.836766 -0.00735788 0)
(-0.385449 2.06376 0)
(-0.624158 2.82079 0)
(-0.753181 2.42601 0)
(-0.61343 1.20024 0)
(-0.653494 0.712847 0)
(-0.497456 0.354732 0)
(-0.506691 0.29582 0)
(-0.409484 0.153064 0)
(-0.43675 0.189919 0)
(-0.388344 0.10068 0)
(-0.430228 0.120515 0)
(-0.415639 0.0657042 0)
(-0.464089 0.0754747 0)
(-0.473711 0.0355878 0)
(-0.521459 0.0445892 0)
(-0.544132 0.0093799 0)
(-0.588953 0.0207437 0)
(-0.620432 -0.000802569 0)
(-0.67121 0.0191567 0)
(-0.715344 0.0159236 0)
(-0.774536 0.0341102 0)
(-0.82435 0.0365593 0)
(-0.886286 0.048883 0)
(-0.337429 2.57946 0)
(-0.6567 3.0273 0)
(-0.75803 2.42862 0)
(-0.754262 1.19353 0)
(-0.762973 0.626196 0)
(-0.600781 0.268206 0)
(-0.545018 0.222902 0)
(-0.455512 0.115494 0)
(-0.451468 0.166383 0)
(-0.407714 0.10375 0)
(-0.436755 0.134706 0)
(-0.428359 0.0928636 0)
(-0.47038 0.108861 0)
(-0.484486 0.0722239 0)
(-0.527659 0.081893 0)
(-0.554451 0.0481831 0)
(-0.603543 0.0605516 0)
(-0.649957 0.0433466 0)
(-0.717283 0.0659418 0)
(-0.776604 0.0673733 0)
(-0.841047 0.0863746 0)
(-0.899378 0.0922737 0)
(-0.96806 0.111249 0)
(-0.286674 3.05077 0)
(-0.599011 3.26148 0)
(-0.738351 2.49648 0)
(-0.821561 1.23031 0)
(-0.819928 0.534203 0)
(-0.655471 0.154902 0)
(-0.557542 0.134027 0)
(-0.469885 0.07131 0)
(-0.454466 0.131489 0)
(-0.42134 0.094584 0)
(-0.443172 0.134272 0)
(-0.44245 0.105608 0)
(-0.478094 0.127354 0)
(-0.498903 0.0973849 0)
(-0.541044 0.111794 0)
(-0.578398 0.0891179 0)
(-0.63549 0.114124 0)
(-0.696407 0.116658 0)
(-0.770109 0.144659 0)
(-0.833671 0.142874 0)
(-0.89614 0.156696 0)
(-0.956804 0.166023 0)
(-1.02286 0.183779 0)
(-0.243689 3.46029 0)
(-0.491271 3.49448 0)
(-0.652798 2.63688 0)
(-0.793868 1.29213 0)
(-0.795409 0.442817 0)
(-0.631795 0.0181394 0)
(-0.522334 0.0251841 0)
(-0.436986 0.0206994 0)
(-0.420698 0.109874 0)
(-0.401121 0.0987836 0)
(-0.424794 0.150133 0)
(-0.438009 0.132194 0)
(-0.473964 0.161637 0)
(-0.50554 0.138375 0)
(-0.550846 0.15871 0)
(-0.603327 0.145533 0)
(-0.673464 0.176336 0)
(-0.74349 0.180507 0)
(-0.807398 0.201614 0)
(-0.85999 0.194945 0)
(-0.911302 0.20829 0)
(-0.965546 0.219986 0)
(-1.01794 0.234705 0)
(-0.112576 3.78777 0)
(-0.280696 3.68183 0)
(-0.406865 2.79029 0)
(-0.60637 1.38475 0)
(-0.639939 0.359877 0)
(-0.510996 -0.11152 0)
(-0.429128 -0.068979 0)
(-0.3788 -0.0247087 0)
(-0.371882 0.090243 0)
(-0.377192 0.103683 0)
(-0.402847 0.167626 0)
(-0.434928 0.158797 0)
(-0.47375 0.192629 0)
(-0.518112 0.177536 0)
(-0.572095 0.207833 0)
(-0.638049 0.214917 0)
(-0.711679 0.253108 0)
(-0.776286 0.253434 0)
(-0.828715 0.260704 0)
(-0.869456 0.249037 0)
(-0.912463 0.262134 0)
(-0.949244 0.274492 0)
(-0.97934 0.278163 0)
(0.0150104 3.85012 0)
(0.00922667 3.79304 0)
(0.00968113 2.9656 0)
(-0.19116 1.53117 0)
(-0.280964 0.337647 0)
(-0.273649 -0.191717 0)
(-0.25615 -0.112928 0)
(-0.267421 -0.0326796 0)
(-0.287296 0.10394 0)
(-0.325571 0.13335 0)
(-0.363599 0.20485 0)
(-0.412912 0.205643 0)
(-0.460931 0.242856 0)
(-0.519404 0.239083 0)
(-0.587336 0.277091 0)
(-0.66541 0.287624 0)
(-0.732237 0.313424 0)
(-0.781649 0.299275 0)
(-0.817299 0.293816 0)
(-0.844306 0.279776 0)
(-0.878194 0.287272 0)
(-0.896831 0.287354 0)
(-0.906165 0.283876 0)
(0.072145 3.76609 0)
(0.177575 3.68173 0)
(0.391239 2.99019 0)
(0.272702 1.69771 0)
(0.166142 0.441627 0)
(0.0227089 -0.133477 0)
(-0.0511959 -0.0771209 0)
(-0.144839 0.0103313 0)
(-0.203293 0.146596 0)
(-0.27778 0.183225 0)
(-0.334985 0.25364 0)
(-0.402469 0.258862 0)
(-0.463056 0.298104 0)
(-0.535293 0.306492 0)
(-0.613253 0.352857 0)
(-0.688276 0.362167 0)
(-0.744464 0.368781 0)
(-0.779722 0.340234 0)
(-0.800942 0.322839 0)
(-0.818828 0.31128 0)
(-0.833597 0.314668 0)
(-0.832429 0.303371 0)
(-0.817656 0.279882 0)
(0.111266 3.59979 0)
(0.257725 3.47577 0)
(0.557606 2.8661 0)
(0.537338 1.7703 0)
(0.500451 0.582446 0)
(0.282732 0.0274827 0)
(0.1396 0.0519484 0)
(-0.0148146 0.122423 0)
(-0.11057 0.235766 0)
(-0.213517 0.267145 0)
(-0.291031 0.328733 0)
(-0.373652 0.335641 0)
(-0.44877 0.374935 0)
(-0.533976 0.391486 0)
(-0.617395 0.429692 0)
(-0.685372 0.420628 0)
(-0.730651 0.404475 0)
(-0.750468 0.356958 0)
(-0.772542 0.331995 0)
(-0.784262 0.313415 0)
(-0.78551 0.300108 0)
(-0.761455 0.271184 0)
(-0.722818 0.225241 0)
(0.106137 3.39331 0)
(0.312194 3.23185 0)
(0.598012 2.70267 0)
(0.666344 1.75794 0)
(0.693074 0.698508 0)
(0.448305 0.227064 0)
(0.264397 0.221302 0)
(0.066215 0.262896 0)
(-0.0551247 0.345452 0)
(-0.18218 0.365829 0)
(-0.27478 0.41346 0)
(-0.370751 0.418528 0)
(-0.457444 0.457895 0)
(-0.551441 0.476769 0)
(-0.629654 0.503979 0)
(-0.687639 0.476511 0)
(-0.716859 0.433453 0)
(-0.727813 0.382664 0)
(-0.748308 0.356609 0)
(-0.742413 0.324586 0)
(-0.728021 0.291719 0)
(-0.681774 0.241173 0)
(-0.628749 0.175249 0)
(0.0997906 3.18052 0)
(0.319508 2.97931 0)
(0.598351 2.50955 0)
(0.733643 1.6779 0)
(0.78649 0.800596 0)
(0.529204 0.456598 0)
(0.336683 0.435063 0)
(0.125702 0.444048 0)
(-0.0071066 0.485086 0)
(-0.145816 0.488781 0)
(-0.248401 0.51795 0)
(-0.353612 0.520406 0)
(-0.451089 0.556063 0)
(-0.548051 0.565848 0)
(-0.623193 0.566363 0)
(-0.669157 0.509279 0)
(-0.68671 0.444354 0)
(-0.702778 0.389504 0)
(-0.712989 0.346106 0)
(-0.694284 0.293263 0)
(-0.667424 0.23841 0)
(-0.610034 0.171035 0)
(-0.557049 0.101292 0)
(0.130048 2.97128 0)
(0.321456 2.72777 0)
(0.627852 2.2872 0)
(0.769247 1.56819 0)
(0.784075 0.907353 0)
(0.519434 0.676269 0)
(0.331213 0.627677 0)
(0.124141 0.607727 0)
(-0.0099417 0.617887 0)
(-0.152689 0.608155 0)
(-0.259584 0.621216 0)
(-0.369627 0.622193 0)
(-0.470989 0.65197 0)
(-0.5635 0.649587 0)
(-0.626734 0.624912 0)
(-0.649035 0.539813 0)
(-0.665994 0.467084 0)
(-0.674345 0.408858 0)
(-0.665729 0.347759 0)
(-0.63568 0.279398 0)
(-0.595976 0.207251 0)
(-0.540278 0.131255 0)
(-0.488578 0.0552418 0)
(0.179377 2.72814 0)
(0.371561 2.47501 0)
(0.656208 2.065 0)
(0.749003 1.51762 0)
(0.704785 1.05424 0)
(0.461854 0.90926 0)
(0.300187 0.833829 0)
(0.112753 0.786749 0)
(-0.0147697 0.764388 0)
(-0.152394 0.740526 0)
(-0.259095 0.736732 0)
(-0.373094 0.734127 0)
(-0.474896 0.751402 0)
(-0.560444 0.723769 0)
(-0.608764 0.652573 0)
(-0.616055 0.549704 0)
(-0.640248 0.469907 0)
(-0.634876 0.389666 0)
(-0.619699 0.306862 0)
(-0.583544 0.223031 0)
(-0.543002 0.141507 0)
(-0.491767 0.0625071 0)
(-0.439935 -0.0141537 0)
(0.198323 2.4198 0)
(0.390513 2.24748 0)
(0.595631 1.90895 0)
(0.64539 1.51548 0)
(0.544956 1.19987 0)
(0.350564 1.07955 0)
(0.216143 0.979731 0)
(0.0553577 0.922408 0)
(-0.0623433 0.883987 0)
(-0.190919 0.852407 0)
(-0.294688 0.841791 0)
(-0.405496 0.838089 0)
(-0.499285 0.838865 0)
(-0.569652 0.783629 0)
(-0.588886 0.679242 0)
(-0.599726 0.571597 0)
(-0.608292 0.484902 0)
(-0.589872 0.388543 0)
(-0.564845 0.296074 0)
(-0.52459 0.203183 0)
(-0.482232 0.115482 0)
(-0.43211 0.0287184 0)
(-0.381766 -0.0543857 0)
(0.142669 2.13757 0)
(0.308683 2.06841 0)
(0.455151 1.81471 0)
(0.469886 1.56496 0)
(0.381723 1.35406 0)
(0.250089 1.23744 0)
(0.142391 1.13305 0)
(0.00857488 1.06635 0)
(-0.0969578 1.01377 0)
(-0.213167 0.975048 0)
(-0.315457 0.953862 0)
(-0.424717 0.941148 0)
(-0.509557 0.917655 0)
(-0.557829 0.814858 0)
(-0.561497 0.683808 0)
(-0.578151 0.569993 0)
(-0.570631 0.460114 0)
(-0.550989 0.346215 0)
(-0.521388 0.240507 0)
(-0.483524 0.139525 0)
(-0.441292 0.047438 0)
(-0.392665 -0.0392046 0)
(-0.343552 -0.11881 0)
(0.0712482 1.9661 0)
(0.199313 1.93164 0)
(0.285579 1.75022 0)
(0.280866 1.5854 0)
(0.224851 1.42224 0)
(0.131122 1.31819 0)
(0.0410045 1.22304 0)
(-0.0693909 1.16103 0)
(-0.165202 1.10639 0)
(-0.270647 1.07001 0)
(-0.366228 1.053 0)
(-0.462824 1.03171 0)
(-0.531776 0.971321 0)
(-0.54319 0.834344 0)
(-0.549215 0.699116 0)
(-0.550844 0.579834 0)
(-0.530298 0.457423 0)
(-0.503687 0.33943 0)
(-0.467517 0.228709 0)
(-0.426844 0.123652 0)
(-0.382284 0.0249803 0)
(-0.337294 -0.0685195 0)
(-0.29286 -0.152814 0)
(0.0301588 1.86706 0)
(0.120734 1.85157 0)
(0.168003 1.73372 0)
(0.164418 1.62545 0)
(0.123924 1.5064 0)
(0.0513877 1.42159 0)
(-0.0255609 1.33632 0)
(-0.118944 1.27386 0)
(-0.205636 1.21803 0)
(-0.302651 1.17859 0)
(-0.395966 1.1488 0)
(-0.483939 1.10929 0)
(-0.526025 0.999552 0)
(-0.523276 0.834122 0)
(-0.533008 0.692105 0)
(-0.519844 0.551604 0)
(-0.498059 0.41258 0)
(-0.467971 0.282654 0)
(-0.433139 0.162383 0)
(-0.393872 0.0528932 0)
(-0.351013 -0.0437122 0)
(-0.306349 -0.130051 0)
(-0.265257 -0.209741 0)
(0.00629157 1.81483 0)
(0.0530055 1.7929 0)
(0.0660921 1.70761 0)
(0.0516816 1.62872 0)
(0.0100074 1.53656 0)
(-0.0522712 1.46725 0)
(-0.120886 1.39428 0)
(-0.20221 1.34017 0)
(-0.2833 1.28999 0)
(-0.371129 1.25873 0)
(-0.451787 1.23366 0)
(-0.518185 1.16074 0)
(-0.520306 1.00897 0)
(-0.517125 0.840664 0)
(-0.511728 0.694479 0)
(-0.485669 0.544775 0)
(-0.457806 0.405498 0)
(-0.42057 0.275073 0)
(-0.382615 0.15513 0)
(-0.339597 0.0423722 0)
(-0.301272 -0.0619134 0)
(-0.261509 -0.153572 0)
(-0.225065 -0.23561 0)
(-0.000451665 1.80721 0)
(0.0176982 1.79035 0)
(0.0116126 1.7351 0)
(-0.0100246 1.6812 0)
(-0.0506816 1.61158 0)
(-0.106831 1.55309 0)
(-0.168935 1.48865 0)
(-0.243651 1.43813 0)
(-0.318738 1.39031 0)
(-0.403423 1.35011 0)
(-0.480003 1.29853 0)
(-0.520388 1.18002 0)
(-0.508055 1.00007 0)
(-0.508395 0.826332 0)
(-0.488494 0.660885 0)
(-0.461761 0.497295 0)
(-0.430701 0.346299 0)
(-0.394291 0.206043 0)
(-0.358756 0.0796685 0)
(-0.318942 -0.0302253 0)
(-0.281548 -0.123524 0)
(-0.244158 -0.207966 0)
(-0.210244 -0.285688 0)
(-0.00915236 1.79799 0)
(-0.0196998 1.7812 0)
(-0.0463459 1.73598 0)
(-0.0812848 1.69086 0)
(-0.129197 1.63382 0)
(-0.187597 1.58462 0)
(-0.251491 1.53053 0)
(-0.324748 1.48836 0)
(-0.398869 1.44819 0)
(-0.472072 1.41806 0)
(-0.530058 1.34961 0)
(-0.531122 1.18661 0)
(-0.511715 0.99631 0)
(-0.495026 0.820153 0)
(-0.463156 0.647926 0)
(-0.429305 0.487221 0)
(-0.392037 0.338943 0)
(-0.352093 0.204106 0)
(-0.31329 0.0809772 0)
(-0.276004 -0.0337338 0)
(-0.245217 -0.135543 0)
(-0.210631 -0.223762 0)
(-0.181069 -0.304512 0)
(-0.0117205 1.83725 0)
(-0.0317079 1.82835 0)
(-0.0653345 1.79863 0)
(-0.10602 1.76583 0)
(-0.156458 1.72084 0)
(-0.215802 1.67839 0)
(-0.278706 1.62984 0)
(-0.351987 1.58917 0)
(-0.422443 1.5422 0)
(-0.497922 1.48416 0)
(-0.537264 1.36045 0)
(-0.51921 1.16255 0)