/*--------------------------------*- C++ -*----------------------------------*\
| =========                 |                                                 |
| \\      /  F ield         | OpenFOAM: The Open Source CFD Toolbox           |
|  \\    /   O peration     | Version:  2012                                  |
|   \\  /    A nd           | Website:  www.openfoam.com                      |
|    \\/     M anipulation  |                                                 |
\*---------------------------------------------------------------------------*/
FoamFile
{
    version     2.0;
    format      ascii;
    class       volScalarField;
    location    "0.7";
    object      maxKappa;
}
// * * * * * * * * * * * * * * * * * * * * * * * * * * * * * * * * * * * * * //

dimensions      [0 0 0 0 0 0 0];


internalField   nonuniform List<scalar> 
2268
(
2.54088e-07
4.50698e-07
7.1449e-07
1.08323e-06
1.50327e-06
1.86372e-06
2.2425e-06
2.72646e-06
3.16976e-06
3.59356e-06
3.99044e-06
4.33088e-06
4.53411e-06
4.61964e-06
4.61964e-06
4.61354e-06
4.55942e-06
4.39529e-06
4.08818e-06
3.62282e-06
2.86218e-06
2.06111e-06
1.01865e-06
3.2751e-07
4.99776e-07
7.63556e-07
1.12135e-06
1.52186e-06
1.87621e-06
2.26433e-06
2.74669e-06
3.17186e-06
3.5985e-06
4.00595e-06
4.3377e-06
4.54718e-06
4.64671e-06
4.64671e-06
4.64628e-06
4.58759e-06
4.42038e-06
4.13075e-06
3.71397e-06
3.05016e-06
2.42754e-06
1.40644e-06
3.62792e-07
5.05962e-07
7.63564e-07
1.10671e-06
1.4938e-06
1.86904e-06
2.30543e-06
2.81222e-06
3.25116e-06
3.68336e-06
4.07332e-06
4.38182e-06
4.57379e-06
4.67641e-06
4.68175e-06
4.68175e-06
4.62786e-06
4.45217e-06
4.16078e-06
3.75916e-06
3.12121e-06
2.5938e-06
1.7122e-06
4.81301e-07
6.01237e-07
8.81062e-07
1.222e-06
1.57038e-06
1.92687e-06
2.371e-06
2.84926e-06
3.26652e-06
3.70119e-06
4.10002e-06
4.43606e-06
4.66543e-06
4.78587e-06
4.78587e-06
4.78058e-06
4.71637e-06
4.55669e-06
4.30837e-06
3.97187e-06
3.40491e-06
2.97381e-06
2.14001e-06
5.12067e-07
6.08319e-07
8.80938e-07
1.20217e-06
1.52713e-06
1.91893e-06
2.43929e-06
2.96036e-06
3.41553e-06
3.86347e-06
4.23607e-06
4.54171e-06
4.73252e-06
4.83556e-06
4.83556e-06
4.83116e-06
4.79428e-06
4.65285e-06
4.44704e-06
4.17831e-06
3.73412e-06
3.52528e-06
2.74075e-06
6.30007e-07
7.39126e-07
1.04226e-06
1.37577e-06
1.67746e-06
2.05722e-06
2.55818e-06
3.00867e-06
3.42346e-06
3.88691e-06
4.29708e-06
4.66062e-06
4.90604e-06
5.01084e-06
5.01084e-06
4.97754e-06
4.93536e-06
4.82342e-06
4.67147e-06
4.47154e-06
4.17357e-06
4.17357e-06
3.22687e-06
6.68763e-07
7.66667e-07
1.03199e-06
1.32086e-06
1.59995e-06
2.03404e-06
2.62188e-06
3.16114e-06
3.66214e-06
4.13869e-06
4.50375e-06
4.81647e-06
5.00299e-06
5.07433e-06
5.07433e-06
5.05429e-06
5.05429e-06
4.97923e-06
4.89778e-06
4.77591e-06
5.11245e-06
5.11245e-06
4.06752e-06
2.02186e-06
2.08903e-06
1.94171e-06
1.67923e-06
1.86827e-06
2.26677e-06
2.8081e-06
3.26645e-06
3.71641e-06
4.17031e-06
4.59174e-06
5.01542e-06
5.26092e-06
5.29129e-06
5.29129e-06
5.21213e-06
5.21213e-06
5.17854e-06
5.1478e-06
5.2174e-06
6.07677e-06
6.07677e-06
5.07742e-06
0.000323856
0.000523993
0.000602868
0.000602868
0.000350283
0.000208977
0.000172462
0.000171683
0.000295138
0.000337647
0.000337647
0.000329239
0.000329239
0.000329435
0.000329435
0.000328306
0.000319167
0.000279134
0.00020513
0.000193504
0.000252604
0.000351959
0.000351959
0.000276083
0.000162549
0.000130781
0.000168624
0.000236794
0.000405964
0.000500056
0.000525391
0.000525391
0.000452517
0.000356123
0.000325113
0.000317906
0.000329908
0.000329908
0.000202864
0.00021082
0.000318918
0.000318918
0.000313296
0.0002169
8.7632e-05
0.000244193
0.000452238
0.000617966
0.000881986
0.00120724
0.00127302
0.00127302
0.00114796
0.00108312
0.00108312
0.00103482
0.000882213
0.00023903
0.000541258
0.000885381
0.000959759
0.000959759
0.000544021
7.57841e-05
7.92717e-05
0.000373835
0.000477006
0.000477006
0.000445643
0.000312967
0.000625682
0.00111525
0.00139166
0.00139166
0.00122753
0.000443155
0.00028164
0.000758617
0.00102106
0.00102106
0.000871942
0.000442252
0.000122414
2.42666e-05
7.03179e-05
0.00024805
0.000512119
0.000847063
0.00106839
0.00106839
0.000916168
0.000785667
0.00052258
0.000497182
0.000372301
0.000494633
0.000856877
0.000856877
0.000496186
0.000307031
0.000307031
5.14116e-05
2.76978e-05
3.59174e-05
4.41544e-05
5.93615e-05
0.000126159
0.000355592
0.000733829
0.0011045
0.0011045
0.00109196
0.000848326
0.000383628
0.000580739
0.00077683
0.00077683
0.00059688
0.000569566
0.000282354
4.85495e-05
2.99055e-05
3.58898e-05
4.21864e-05
4.60292e-05
4.90701e-05
5.31105e-05
8.1267e-05
0.000263949
0.000504712
0.000504712
0.000399568
0.00027511
0.000560267
0.000832851
0.000832851
0.000628147
0.000407757
0.000126813
5.3055e-05
0.000144536
0.000217622
0.000264641
0.000264641
0.00024435
0.000190049
8.11659e-05
7.92687e-05
7.34253e-05
9.7168e-05
0.000145448
0.000182174
1.48199e-05
2.49444e-05
3.7564e-05
5.89589e-05
6.78376e-05
5.70842e-05
4.63697e-05
3.58259e-05
1.99257e-05
1.122e-05
9.84256e-06
8.36664e-06
6.6852e-06
5.43416e-06
5.35432e-06
5.35986e-06
5.77178e-06
5.5877e-06
6.0697e-06
6.32929e-06
8.21857e-06
9.57879e-06
1.41786e-05
3.99063e-05
5.63019e-05
9.56528e-05
0.000137478
0.000141953
0.000141953
0.000135113
0.000133753
0.000132909
0.000122124
9.80744e-05
7.24246e-05
4.5679e-05
1.68257e-05
1.18562e-05
8.67897e-06
7.40879e-06
6.14906e-06
6.67162e-06
7.94317e-06
9.95977e-06
1.37807e-05
2.78624e-05
6.78437e-05
9.4696e-05
0.000125317
0.000125317
0.000125819
0.000135663
0.000162754
0.000187271
0.000228192
0.000266609
0.000274311
0.000265819
0.000254896
0.000211351
0.000152553
0.000109654
8.78138e-05
4.453e-05
2.33501e-05
1.37531e-05
1.36275e-05
9.58214e-06
1.42174e-05
8.80177e-05
9.45527e-05
0.000107768
0.000107609
0.000116188
0.000157603
0.00019541
0.000237955
0.000290654
0.000336563
0.000361304
0.000397407
0.000440959
0.000468602
0.000482068
0.000530823
0.00065954
0.000690344
0.000635205
0.00040605
0.000261423
6.36399e-05
2.92459e-05
0.000112447
0.000117424
0.000128636
0.000137574
0.000164328
0.000191741
0.000225676
0.000264558
0.000302967
0.000349149
0.000424333
0.000514553
0.000615642
0.000753365
0.000941851
0.0012157
0.00151516
0.00157623
0.00168741
0.00132083
0.000966221
0.000626624
0.000421153
0.000134019
0.00013786
0.000148018
0.000156347
0.000182324
0.000215907
0.0002514
0.000294549
0.000348779
0.000420912
0.000517395
0.00063637
0.000800757
0.00104874
0.00139829
0.00175643
0.00191473
0.00193562
0.00198975
0.00191509
0.0015079
0.00131439
0.00111106
0.000156277
0.000159894
0.000169223
0.000180334
0.000204106
0.000229737
0.00025835
0.000293514
0.000339983
0.000400899
0.00047636
0.000578261
0.000730509
0.000986435
0.00126337
0.00150107
0.00169168
0.00175011
0.00198975
0.00172098
0.00157927
0.00155475
0.00154142
0.000176295
0.000179691
0.000188278
0.000198119
0.000217952
0.000243378
0.000272715
0.000308002
0.000351392
0.000403945
0.000467507
0.000546742
0.000664019
0.000812372
0.00102582
0.00119291
0.00118233
0.00131101
0.00156301
0.00145634
0.00149882
0.00132399
0.00129233
0.000195177
0.000198091
0.000205558
0.000215724
0.000234033
0.000255308
0.000280619
0.000311285
0.000349576
0.000396942
0.000455537
0.000527379
0.000628723
0.000755442
0.000857444
0.000940493
0.000844536
0.00075457
0.00108625
0.00122658
0.00143966
0.00128382
0.000752999
0.000211477
0.000214111
0.000220863
0.000229424
0.000244224
0.000263639
0.000287125
0.000315168
0.000348821
0.000387373
0.000432552
0.000484566
0.000552099
0.000643806
0.000752484
0.000817465
0.000759854
0.000638828
0.000531543
0.000874442
0.00111737
0.00115272
0.00115272
0.000225842
0.000228218
0.000234379
0.000242564
0.000256383
0.000272697
0.000292637
0.000316164
0.000344898
0.000378302
0.000417274
0.000461609
0.000512567
0.000571598
0.000643109
0.000700561
0.00070498
0.000604638
0.000473173
0.000434833
0.000688665
0.000989198
0.00111461
0.000238244
0.000240361
0.000245505
0.000251911
0.000262714
0.000276836
0.000294276
0.000314573
0.000338503
0.000365443
0.000395131
0.000427281
0.000465484
0.000513708
0.00056514
0.000608232
0.000630099
0.000590876
0.000550282
0.000503214
0.000495673
0.00059465
0.000863884
0.000248695
0.000250457
0.000254818
0.000260377
0.000270297
0.000281817
0.000296048
0.000312368
0.000331569
0.000353445
0.000377848
0.000404143
0.000431778
0.000466462
0.000500148
0.000533566
0.000557637
0.000557095
0.000521235
0.000548528
0.000576134
0.000571751
0.000540392
0.000257475
0.000258788
0.000262165
0.000266603
0.000273928
0.000283311
0.000294914
0.000308065
0.000323044
0.000339646
0.000357938
0.000381264
0.000403213
0.000430201
0.000453135
0.000477405
0.000493672
0.00050945
0.000510407
0.000548212
0.000591669
0.000606182
0.000606182
0.000264707
0.000265729
0.00026843
0.000272039
0.000277566
0.000284617
0.000293283
0.000303023
0.000313993
0.000327459
0.000340969
0.000359302
0.000374604
0.000395768
0.000411847
0.000432865
0.000446122
0.000464257
0.000477593
0.000498094
0.000545466
0.000586061
0.000586107
0.000270813
0.000271481
0.000273413
0.000276062
0.00027989
0.00028499
0.000291344
0.000298345
0.000305944
0.000317013
0.000325885
0.000339722
0.000349378
0.000365377
0.000375905
0.000392583
0.000403629
0.000420674
0.000436607
0.000457745
0.000490841
0.000536391
0.00055478
0.000276043
0.0002764
0.000277735
0.000279613
0.000281024
0.000284665
0.000287142
0.000294042
0.00029766
0.000306088
0.000310604
0.000320299
0.000325163
0.000336286
0.000342995
0.000356032
0.000365948
0.000381498
0.000397602
0.000419006
0.000443691
0.00047864
0.000512047
0.000280824
0.000280855
0.000281613
0.000282606
0.000282771
0.000284675
0.000286094
0.000290343
0.000290653
0.000296039
0.000296354
0.000301901
0.000302638
0.000308961
0.000312111
0.000320925
0.000328869
0.000342918
0.000358189
0.000380399
0.000402776
0.000430281
0.000462677
0.000285463
0.000285175
0.000285421
0.00028559
0.000284552
0.000285069
0.000283285
0.00028614
0.000283352
0.000285868
0.000282364
0.000283954
0.000280935
0.00028285
0.000282773
0.000287866
0.000293857
0.000306496
0.000321315
0.000344403
0.000369182
0.000396052
0.000431617
0.000290594
0.000290067
0.00028981
0.000289179
0.000287104
0.000286016
0.000283217
0.000282583
0.000277847
0.000276805
0.000269762
0.000267386
0.000260369
0.000257751
0.000253868
0.000255089
0.000258579
0.000269789
0.000284435
0.000308148
0.000335895
0.000369148
0.000403403
0.000296412
0.000295775
0.000294881
0.000293504
0.000290426
0.000287824
0.000281729
0.000279435
0.000271425
0.000267733
0.000257344
0.000251219
0.000240198
0.000233376
0.000225236
0.000222627
0.000223387
0.000233354
0.000248796
0.000274138
0.000307278
0.000347886
0.000381603
0.00030369
0.000303052
0.000301477
0.000299511
0.000295643
0.0002917
0.000285451
0.000279826
0.00027207
0.000262799
0.000251434
0.00023803
0.000222925
0.000210256
0.00019656
0.000189201
0.000186408
0.00019505
0.000212179
0.000243049
0.000284238
0.000330429
0.000364853
0.000312878
0.000312311
0.000310146
0.000307725
0.000303174
0.00029806
0.000289839
0.000281663
0.000269635
0.000257206
0.000242125
0.00022543
0.000205479
0.000188062
0.000167585
0.000153928
0.000145702
0.00015248
0.000172442
0.000209204
0.000259018
0.000314082
0.000351197
0.000324616
0.000324123
0.000321569
0.000318916
0.000313965
0.000308246
0.000299693
0.000290438
0.000278088
0.000265145
0.00024887
0.000229507
0.000206415
0.000179924
0.000150175
0.000119716
0.000100925
0.000103296
0.00012863
0.000179287
0.000237621
0.00030044
0.00033982
0.000339237
0.000338799
0.000336188
0.000333549
0.000328575
0.000322747
0.000314275
0.000304633
0.000290905
0.000276488
0.000256065
0.000235627
0.000207416
0.000179378
0.000145806
0.000109022
6.75245e-05
4.22784e-05
8.79548e-05
0.000148729
0.000214229
0.00028358
0.000327376
0.000357081
0.000356687
0.000354305
0.0003519
0.000347305
0.000341917
0.000334128
0.000325104
0.000312639
0.000299154
0.000280468
0.000261258
0.000235638
0.00021053
0.00017902
0.000150692
0.000119093
0.000104231
0.000115741
0.000155279
0.000218698
0.000289073
0.000336468
0.000378215
0.000377934
0.000376014
0.000374039
0.000370129
0.000365511
0.000358764
0.000350846
0.000340041
0.000328151
0.000312201
0.000295902
0.00027511
0.00025501
0.000230819
0.000210847
0.000191577
0.000186467
0.00019408
0.000223063
0.00026071
0.00031877
0.000374316
0.000402675
0.000402568
0.00040122
0.000399831
0.00039685
0.000393323
0.000388017
0.000381739
0.000373198
0.000363715
0.000351281
0.00033855
0.000322802
0.000308083
0.000292352
0.000281276
0.000273916
0.000279813
0.000294511
0.00032064
0.000351173
0.000398006
0.00044352
0.000430578
0.00043068
0.000429937
0.000429212
0.000427249
0.000424909
0.000421136
0.000416589
0.000410314
0.000403258
0.00039435
0.000385595
0.000375843
0.000368025
0.000361638
0.000361572
0.000369686
0.000391289
0.000411536
0.000433542
0.000460668
0.000499166
0.000539929
0.000461383
0.000461814
0.000461808
0.000461948
0.000461186
0.000460257
0.000458244
0.000455742
0.000452131
0.000448198
0.000443631
0.000439794
0.000436686
0.000437082
0.000444289
0.000461195
0.000486613
0.000508205
0.000517918
0.000537392
0.000564764
0.000603069
0.000645068
0.000495893
0.00049651
0.000497033
0.000497909
0.000498257
0.000498744
0.000498557
0.000498277
0.000497557
0.000497051
0.000497113
0.000498998
0.000504624
0.000517364
0.000541849
0.000576414
0.00060237
0.000598902
0.000601779
0.00062294
0.000655947
0.000697532
0.000744651
0.000532125
0.000533218
0.000534677
0.000536804
0.000538718
0.000541075
0.000543165
0.000545619
0.00054835
0.000552233
0.000558414
0.000569082
0.000587419
0.000617768
0.000655427
0.000682292
0.000670457
0.000654725
0.00066809
0.000693878
0.000733757
0.000781356
0.000836944
0.000572496
0.000573973
0.000576075
0.000578989
0.000582061
0.000586105
0.000590357
0.000595619
0.000602142
0.000611074
0.000624451
0.00064508
0.000677075
0.000719825
0.000755429
0.000742551
0.000705497
0.000702401
0.000718886
0.00075135
0.000796299
0.000853077
0.000919057
0.000613163
0.000615054
0.000618038
0.000622398
0.000627513
0.000634257
0.000641881
0.000651216
0.000662784
0.000678249
0.000700468
0.000731953
0.000774203
0.000814114
0.000811724
0.000767964
0.00073137
0.000736191
0.000754184
0.000795583
0.000850889
0.000918262
0.000992328
0.000657761
0.000660214
0.000664346
0.000670547
0.000677864
0.000686983
0.00069721
0.000709909
0.00072617
0.000748002
0.000778902
0.000819745
0.000864878
0.000882615
0.000839707
0.000789806
0.00075061
0.000753176
0.000785398
0.000836237
0.000902375
0.000981203
0.00105604
0.00070194
0.000704796
0.000709716
0.000717159
0.000726187
0.000737678
0.000751059
0.000768205
0.000790055
0.000818317
0.000856735
0.000901167
0.000937788
0.000912841
0.00085994
0.000790591
0.000754098
0.000765727
0.000806956
0.000867667
0.000944887
0.00103418
0.00111008
0.000748467
0.000752115
0.000758654
0.000768514
0.000780589
0.000795748
0.000813232
0.000834737
0.000860398
0.000893406
0.000936564
0.000978493
0.000990757
0.000941026
0.000863137
0.000788265
0.000754892
0.000774477
0.000824276
0.000894666
0.00098168
0.0010799
0.00115608
0.000794526
0.000798618
0.000806104
0.000817457
0.000831347
0.000848892
0.000869465
0.000895194
0.000926132
0.000967478
0.00101607
0.00105154
0.00102377
0.000950394
0.000841162
0.000764407
0.000740664
0.000773103
0.000834146
0.000915458
0.00101173
0.00111889
0.00119316
0.000840198
0.000845496
0.000855302
0.000869888
0.000887555
0.00090951
0.000935142
0.000967028
0.00100463
0.00105126
0.00109476
0.00110628
0.0010585
0.000959347
0.00083313
0.000755393
0.000730786
0.000773895
0.000842322
0.000930958
0.0010338
0.00114761
0.00122665
0.000883516
0.000889505
0.000900726
0.000917229
0.00093746
0.000963836
0.000994953
0.00103106
0.00107205
0.00111961
0.00115675
0.00114642
0.00106412
0.000923007
0.000785644
0.000717044
0.000717324
0.000775365
0.000856016
0.000953382
0.0010626
0.00118104
0.00125267
0.000925245
0.000931994
0.00094477
0.000963891
0.000988537
0.00102017
0.00105703
0.00110066
0.00115009
0.00120016
0.0012257
0.00118
0.00109488
0.00093336
0.000786128
0.000703842
0.000708686
0.000771603
0.000857391
0.000959394
0.0010731
0.00119559
0.00128316
0.000955294
0.00096685
0.0009859
0.00101237
0.00104662
0.0010881
0.00113538
0.00118633
0.00123426
0.00126119
0.00126119
0.00122576
0.00108053
0.000872052
0.000718103
0.000664083
0.000708158
0.000786851
0.000883793
0.000993356
0.00111246
0.00123879
0.00128316
2.87759e-05
0.000125831
0.000277299
0.000387088
0.000106031
0.000252255
0.000548861
0.00064674
3.56093e-05
0.000252255
0.000548861
0.00064674
2.11842e-05
3.59852e-05
0.000236261
0.000350492
0.000208871
0.000141242
8.94324e-05
7.91369e-05
0.000809771
0.000455405
0.000375609
0.000346311
0.00122945
0.000713533
0.000575358
0.000565381
0.00122945
0.000713533
0.000575358
0.000860167
0.000650145
0.000612254
0.000544044
0.000860167
0.000859412
0.000562894
0.000555633
0.000524995
0.00103224
0.00103293
0.00103649
0.000868421
0.00103224
0.00103293
0.00103649
0.000887611
0.000632286
0.000780699
0.000860842
0.000887611
0.000559946
0.000498865
0.000517105
0.000506612
0.000559946
0.00052287
0.000502844
0.000484703
0.000543138
0.00052287
0.000502844
0.000487417
0.00051796
0.000513998
0.000501959
0.00049029
0.000474236
0.000482979
0.000486138
0.00049029
0.000448448
0.000460445
0.000470941
0.000481653
0.000428173
0.00044361
0.000459954
0.000476286
0.000412513
0.000432025
0.000451864
0.000472717
0.000401172
0.000424793
0.00044851
0.000474213
0.000392512
0.00041941
0.000448101
0.000478968
0.00038662
0.000416864
0.000448101
0.000480216
0.000378745
0.000411779
0.000447844
0.000483561
0.000386746
0.000420125
0.000456307
0.000491341
0.000415807
0.000444964
0.000477921
0.000509405
0.000475813
0.000499646
0.000528149
0.000553268
0.000568077
0.000588039
0.000612524
0.00063233
0.000673633
0.000693215
0.000715825
0.000736484
0.000777485
0.000800441
0.000825034
0.000850662
0.000877335
0.000905529
0.000934159
0.000964447
0.000968721
0.00100235
0.00103586
0.00107019
0.00105138
0.00109008
0.00112856
0.00116658
0.00112337
0.0011666
0.00120964
0.00125125
0.00118483
0.00123204
0.00127928
0.00132457
0.00123753
0.00128803
0.00133872
0.00138725
0.0012805
0.00133407
0.00138761
0.00143894
0.00131785
0.00137392
0.00142958
0.00148326
0.00134636
0.00140427
0.00146141
0.0015169
0.00137892
0.00143841
0.00149658
0.00155342
0.00137892
0.00143841
0.00149658
0.00155342
0.000526183
0.000621664
0.000596519
0.000404128
0.00015408
0.000102926
0.000376116
0.000545699
0.000651055
0.000770057
0.00086979
0.000919686
0.000919686
0.000915256
0.000863265
0.000730848
0.000366901
0.00022746
0.00021478
0.000610988
0.000610988
0.000344457
0.00015653
6.76576e-05
0.000343952
0.000624662
0.000624662
0.000455515
0.00049225
0.000622106
0.000797667
0.000935714
0.00100625
0.00100625
0.000857358
0.000731367
0.000500183
0.000275586
0.000609148
0.000337041
9.06086e-05
4.66663e-05
0.000147499
0.000616813
0.000791411
0.000898971
0.00101225
0.00104047
0.000961264
0.000948595
0.000828403
0.000857919
0.00102617
0.00121692
0.00111115
0.000747984
0.000314545
0.000213047
4.14055e-05
3.29753e-05
0.000200023
0.000510949
0.000919167
0.00128359
0.00143482
0.00157342
0.00162128
0.00170614
0.00173737
0.00173737
0.0017199
0.00171617
0.00159708
0.00137229
0.00076526
0.000391322
6.31674e-05
0.000117953
0.000207429
0.000488148
0.00101271
0.0015583
0.00175075
0.00180636
0.00180793
0.00180793
0.00187563
0.0020257
0.00204827
0.00204827
0.00187937
0.00136414
0.000800664
0.000538356
0.000396832
0.000447059
0.000500068
0.000637131
0.00100482
0.00171318
0.00192507
0.00192507
0.00190349
0.00173027
0.00152287
0.00139464
0.00152667
0.00155956
0.00139927
0.00118811
0.000732853
0.000429244
0.000330897
0.000396832
0.00102123
0.000940674
0.0012203
0.00163701
0.001828
0.001828
0.00170608
0.00126018
0.00103485
0.000950355
0.000844294
0.000917042
0.000929874
0.000766454
0.000883841
0.000883841
0.000616006
0.000360643
0.000372914
0.00129171
0.00136766
0.0015509
0.0015509
0.00150789
0.00147556
0.00113737
0.000698933
0.000606094
0.000606094
0.000544546
0.000385682
0.000629684
0.000630428
0.000682061
0.000713205
0.000626186
0.000509908
0.000327255
0.00128944
0.0013195
0.0013195
0.00123203
0.001154
0.00102168
0.00049523
0.000436042
0.000373792
0.000409504
0.000447535
0.000426007
0.000441081
0.000383824
0.000250691
0.000285013
0.000523685
0.000523685
0.000341477
0.000546753
0.000608988
0.000986728
0.000978269
0.000834017
0.000397545
0.000173785
0.00025304
0.000180253
0.00022034
0.000379091
0.00032153
0.000182287
7.34884e-05
5.93738e-05
5.91486e-05
0.00014404
0.000316791
0.000216872
0.000609738
0.000421351
0.000395486
0.000467315
0.000457216
0.000319472
0.000198086
0.000207244
0.000272773
0.000352832
0.000295923
0.000238588
0.000380385
0.000524549
0.000275969
6.92097e-05
5.09422e-05
5.49678e-05
7.45255e-05
0.000918985
0.000918985
0.0006212
0.000382997
0.000318609
0.000279929
0.000311046
0.00049046
0.00061489
0.00061489
0.000721862
0.000905637
0.00104034
0.00094093
0.000843753
0.00014884
6.04508e-05
4.67191e-05
3.75153e-05
0.000959007
0.000959007
0.000887382
0.000819905
0.000816316
0.000723498
0.00059608
0.000595963
0.000699275
0.000870157
0.00123499
0.00151627
0.00151627
0.00135834
0.0013012
0.000821957
0.000248192
8.69701e-05
5.62324e-05
0.000485556
0.000587728
0.000564595
0.000558285
0.000617647
0.000757557
0.000820697
0.000866739
0.000995209
0.00127341
0.00160691
0.00172663
0.00187544
0.00187544
0.00179808
0.00148573
0.00107291
0.000600921
0.000335968
0.000432875
0.000427755
0.000234944
0.000286022
0.000558584
0.000799167
0.000933445
0.000955582
0.00102199
0.00114812
0.00120662
0.00141827
0.00187938
0.00188628
0.00188628
0.00176977
0.0016324
0.00135569
0.00106238
0.000445804
0.000375737
0.000272591
0.00029295
0.0004023
0.000520183
0.000660862
0.000711862
0.000704864
0.000741244
0.000784147
0.000967981
0.00177373
0.00192852
0.00192852
0.00179907
0.00163588
0.00156955
0.001564
0.000508221
0.000508221
0.000460429
0.000491258
0.000556447
0.000524459
0.000419174
0.000453619
0.000434323
0.000325643
0.000301036
0.000690857
0.00123245
0.00146369
0.00147422
0.00155853
0.00155853
0.00148007
0.00128021
0.000537506
0.000552174
0.000600972
0.000690903
0.000739128
0.000784247
0.000724295
0.000618749
0.000558992
0.000496863
0.000545324
0.000731647
0.000921507
0.00123309
0.00151298
0.00165819
0.00165819
0.00155712
0.00122191
0.000576752
0.000621928
0.000696325
0.000816966
0.00095308
0.0010102
0.0010102
0.000993005
0.000938193
0.000850815
0.000830634
0.000882356
0.000886896
0.000907495
0.00115864
0.00144979
0.00163134
0.00175644
0.00136337
0.000579561
0.000637923
0.000715805
0.000822956
0.000964122
0.00107909
0.00113013
0.00113013
0.00113013
0.00110393
0.0010729
0.00104129
0.00099892
0.000919021
0.000948284
0.00126572
0.00165973
0.00178095
0.00140937
0.000598761
0.000667844
0.000749984
0.000847805
0.000967282
0.00108338
0.00115866
0.00117983
0.00117983
0.00116408
0.0011338
0.00108558
0.00101374
0.000917516
0.000838777
0.00111607
0.00159375
0.00178095
0.00140733
0.000603881
0.000678368
0.000759925
0.000847335
0.000945058
0.00104279
0.00111874
0.00115471
0.00115523
0.00115523
0.00113041
0.00108097
0.00100352
0.000899889
0.000776598
0.00099649
0.00142067
0.00155482
0.00131438
0.000622268
0.000704729
0.000789764
0.000875085
0.000962031
0.00104076
0.00110666
0.00114391
0.00114391
0.00114232
0.00111669
0.0010658
0.000987362
0.000883802
0.000758886
0.000876272
0.00128457
0.00144315
0.00144315
0.000637102
0.000726715
0.000815767
0.000902472
0.000986067
0.00105254
0.0011061
0.00113728
0.00113728
0.00113255
0.00110395
0.0010525
0.000976997
0.000877526
0.000759565
0.000746453
0.00110363
0.00149362
0.00156184
0.000646263
0.00074435
0.000841501
0.00093324
0.00101945
0.00108841
0.00113441
0.00115827
0.00115827
0.00115217
0.00111735
0.00105843
0.000975855
0.000875713
0.000754032
0.000617854
0.000983535
0.00159282
0.00159749
0.000659312
0.000763555
0.000866364
0.000963741
0.00105399
0.00112909
0.00117765
0.00119649
0.00119649
0.00118846
0.00114988
0.00108618
0.00100071
0.000900614
0.000778574
0.000630871
0.000800686
0.00156115
0.00159924
0.000666183
0.000772392
0.00087687
0.000978954
0.0010747
0.00115661
0.00121628
0.00124219
0.00124219
0.00123821
0.00120075
0.00113462
0.0010484
0.000953187
0.000847569
0.000728904
0.000728085
0.00148629
0.00159924
0.000688457
0.000791385
0.000893273
0.000997844
0.00109892
0.00118758
0.00125925
0.00129748
0.00130051
0.00130051
0.00126851
0.00120316
0.00112193
0.00103041
0.000941222
0.000843566
0.000774992
0.00131641
0.00150716
0.00074039
0.000828763
0.000911256
0.00100014
0.00108961
0.00117568
0.00126081
0.00132909
0.00135898
0.00135898
0.00134149
0.00128055
0.0012019
0.00110855
0.001023
0.000903149
0.0007636
0.000904688
0.00135209
0.000846447
0.000924045
0.000985057
0.00104694
0.00110392
0.00116738
0.00124329
0.00132626
0.00139429
0.00141139
0.00141139
0.00136422
0.00129257
0.00119914
0.0011121
0.000980482
0.000818325
0.000730627
0.00121995
0.000970415
0.00104078
0.00108882
0.0011251
0.00113743
0.00115521
0.00119946
0.00127759
0.00138253
0.00146177
0.00146177
0.00145491
0.00139789
0.00130682
0.00122009
0.00108784
0.000932393
0.000656524
0.00116979
0.0011057
0.00117936
0.00122956
0.00124674
0.00124674
0.0012165
0.00119005
0.00123719
0.00133541
0.00146098
0.00151327
0.00151327
0.00148671
0.0014087
0.00132428
0.00120076
0.00105745
0.000749828
0.00113467
0.00123407
0.00131352
0.00136579
0.00136579
0.00135974
0.00128798
0.00121681
0.00117536
0.00126295
0.00143069
0.00155882
0.00158437
0.00158437
0.00152728
0.00145523
0.00134226
0.0012235
0.000898681
0.00112353
0.00135736
0.00144199
0.00149657
0.00149657
0.00147324
0.00138228
0.00129914
0.0012175
0.00121032
0.00137025
0.00155695
0.00164799
0.00164799
0.00162373
0.00156498
0.00147224
0.00138807
0.00113092
0.00100812
0.00146379
0.00155129
0.00160595
0.00160595
0.00157277
0.00148415
0.0014085
0.00130379
0.00119191
0.0013019
0.00154619
0.00171489
0.00173041
0.00173041
0.00168275
0.0015935
0.00149233
0.00126294
0.000892925
0.00156188
0.0016538
0.00171019
0.00171019
0.00168431
0.00161914
0.00156503
0.00146004
0.00129343
0.0012269
0.00147786
0.00172093
0.00178899
0.00178899
0.00176155
0.00168764
0.00158448
0.00135986
0.000786546
0.00164413
0.00173825
0.00179559
0.00179559
0.00178228
0.00174162
0.00170721
0.00160308
0.00136346
0.00115606
0.00143257
0.00173684
0.00185333
0.00185333
0.00183639
0.0017665
0.00166143
0.0014417
0.000748949
0.00171719
0.00181612
0.00187951
0.00188148
0.00188148
0.00186433
0.00185382
0.00175666
0.00147573
0.00108379
0.00131302
0.00168004
0.00185983
0.0018802
0.0018802
0.00183287
0.00172986
0.00151111
0.000853273
0.00177433
0.00187729
0.00194545
0.00195755
0.00195917
0.00196301
0.00196301
0.00186909
0.00155383
0.000998868
0.00120243
0.00164221
0.00186402
0.00191315
0.00191315
0.00188701
0.00179149
0.00157688
0.000977723
0.00182981
0.00193767
0.00201099
0.00203154
0.00204722
0.00205882
0.00205882
0.00198211
0.00165837
0.00101859
0.000994278
0.00152663
0.00179928
0.00189658
0.0019104
0.0019104
0.00185027
0.00167414
0.00117527
0.00186078
0.00197176
0.00204902
0.0020758
0.00209921
0.00211428
0.00211428
0.00204732
0.00170936
0.000994352
0.000884742
0.00144816
0.00176215
0.00189211
0.00193323
0.00193323
0.0018939
0.00173903
0.00125557
0.00192012
0.00203395
0.00211505
0.00214651
0.00217511
0.00219431
0.00219431
0.0021257
0.0018045
0.00107478
0.000747733
0.00126302
0.0016264
0.00181948
0.00191827
0.00193625
0.00193625
0.00185153
0.00152341
)
;

boundaryField
{
    leftWall
    {
        type            calculated;
        value           uniform 0;
    }
    rightWall
    {
        type            calculated;
        value           uniform 0;
    }
    lowerWall
    {
        type            calculated;
        value           uniform 0;
    }
    atmosphere
    {
        type            calculated;
        value           uniform 0;
    }
    defaultFaces
    {
        type            empty;
    }
}


// ************************************************************************* //
