/*--------------------------------*- C++ -*----------------------------------*\
| =========                 |                                                 |
| \\      /  F ield         | OpenFOAM: The Open Source CFD Toolbox           |
|  \\    /   O peration     | Version:  2012                                  |
|   \\  /    A nd           | Website:  www.openfoam.com                      |
|    \\/     M anipulation  |                                                 |
\*---------------------------------------------------------------------------*/
FoamFile
{
    version     2.0;
    format      ascii;
    class       volScalarField;
    location    "0.7";
    object      minKappa;
}
// * * * * * * * * * * * * * * * * * * * * * * * * * * * * * * * * * * * * * //

dimensions      [0 0 0 0 0 0 0];


internalField   nonuniform List<scalar> 
2268
(
1.03424e-07
1.71436e-07
2.77753e-07
4.20766e-07
6.21119e-07
8.08567e-07
9.58949e-07
1.17102e-06
1.41567e-06
1.58149e-06
1.81764e-06
1.96166e-06
2.13537e-06
2.15673e-06
2.22286e-06
2.15364e-06
2.16953e-06
1.99704e-06
1.88745e-06
1.5801e-06
1.21416e-06
9.07286e-07
2.3901e-07
1.03424e-07
1.71436e-07
2.77753e-07
4.20766e-07
6.21119e-07
8.02472e-07
9.58949e-07
1.17102e-06
1.41567e-06
1.58149e-06
1.81764e-06
1.96166e-06
2.13537e-06
2.15673e-06
2.22286e-06
2.15364e-06
2.16953e-06
1.99704e-06
1.88745e-06
1.5801e-06
1.21416e-06
9.07286e-07
2.3901e-07
1.42395e-07
1.83837e-07
2.91469e-07
4.30242e-07
6.22738e-07
8.02472e-07
9.67553e-07
1.19215e-06
1.43506e-06
1.60056e-06
1.841e-06
1.97746e-06
2.14364e-06
2.16721e-06
2.23921e-06
2.16953e-06
2.18598e-06
2.00746e-06
1.91133e-06
1.62063e-06
1.29603e-06
1.07748e-06
3.97283e-07
1.94416e-07
2.04495e-07
3.1876e-07
4.58481e-07
6.42057e-07
8.04934e-07
9.87881e-07
1.22222e-06
1.45345e-06
1.6269e-06
1.86319e-06
1.99972e-06
2.16786e-06
2.19888e-06
2.27331e-06
2.19891e-06
2.21748e-06
2.04039e-06
1.96234e-06
1.6915e-06
1.39281e-06
1.23879e-06
5.83256e-07
2.43834e-07
2.25623e-07
3.46004e-07
4.86706e-07
6.58941e-07
8.04934e-07
1.01259e-06
1.26077e-06
1.48491e-06
1.67312e-06
1.90208e-06
2.03773e-06
2.20541e-06
2.23635e-06
2.31107e-06
2.23177e-06
2.26326e-06
2.08944e-06
2.04857e-06
1.80336e-06
1.5706e-06
1.50096e-06
8.05719e-07
2.84556e-07
2.55175e-07
3.81614e-07
5.27272e-07
6.91038e-07
8.23431e-07
1.05569e-06
1.30612e-06
1.51487e-06
1.71731e-06
1.94566e-06
2.08729e-06
2.26198e-06
2.2935e-06
2.36025e-06
2.27568e-06
2.32286e-06
2.15591e-06
2.15372e-06
1.93437e-06
1.7957e-06
1.84275e-06
9.77359e-07
3.1944e-07
2.94342e-07
4.17279e-07
5.62992e-07
7.11407e-07
8.37472e-07
1.09604e-06
1.35206e-06
1.56382e-06
1.7849e-06
2.00812e-06
2.15132e-06
2.3278e-06
2.35552e-06
2.41109e-06
2.32454e-06
2.39691e-06
2.23613e-06
2.28653e-06
2.08399e-06
2.09291e-06
2.2956e-06
1.15155e-06
4.09277e-07
3.97619e-07
4.92435e-07
5.95129e-07
7.29958e-07
8.75811e-07
1.15671e-06
1.40947e-06
1.62821e-06
1.85894e-06
2.068e-06
2.2307e-06
2.41612e-06
2.43493e-06
2.46423e-06
2.3756e-06
2.47666e-06
2.32423e-06
2.42357e-06
2.23574e-06
2.44166e-06
2.84625e-06
1.47537e-06
7.57364e-05
0.000121488
0.000167922
0.000228715
9.86558e-05
6.99155e-05
5.92491e-05
5.85682e-05
8.82439e-05
0.00016237
0.000145096
0.000152267
0.000151256
0.000141229
0.000135379
0.000133033
0.000128605
0.000105921
9.94649e-05
7.57364e-05
8.42401e-05
0.000121028
0.000168403
9.1974e-05
5.66637e-05
3.61624e-05
4.71727e-05
8.26772e-05
0.000138565
0.000145096
0.000152267
0.000151256
0.000141229
0.000135379
0.000133033
0.000128605
0.000105921
9.94649e-05
8.44094e-05
8.42401e-05
0.000121028
0.000168403
9.1974e-05
5.66637e-05
1.64915e-05
1.89313e-05
8.26772e-05
0.000138565
0.000244232
0.000322773
0.000312967
0.000266724
0.000214426
0.00020223
0.000212535
0.000198296
0.000192128
0.000103285
8.46313e-05
0.000183924
0.000206106
0.00021568
7.57841e-05
1.64915e-05
7.08075e-06
3.3612e-05
0.000113911
0.000176642
0.000241
0.000246379
0.000246379
0.000353014
0.000451139
0.000363942
0.000372585
0.000147778
0.000117462
0.000183928
0.000372257
0.000242859
0.000262875
8.7821e-05
1.12794e-05
7.08075e-06
1.34849e-05
2.56637e-05
4.064e-05
8.06022e-05
0.000206841
0.000306468
0.000353014
0.000440394
0.000242539
0.000332598
0.000144051
0.000142775
0.000304448
0.000336533
0.000128947
0.000250714
5.14116e-05
1.12015e-05
8.62627e-06
1.34103e-05
1.7151e-05
1.95685e-05
2.35464e-05
3.37568e-05
5.09683e-05
0.000167784
0.000308121
0.000242539
0.000205703
0.000127262
0.000205428
0.000395366
0.000286037
0.000128947
0.00017912
3.67751e-05
1.12015e-05
1.10668e-05
1.34103e-05
1.7151e-05
1.95685e-05
2.35464e-05
2.94366e-05
2.50425e-05
3.6939e-05
5.11279e-05
7.43319e-05
6.10852e-05
0.000111736
0.000205428
0.000436847
0.000286037
0.000235529
0.000117817
3.67751e-05
1.33914e-05
1.88459e-05
2.34274e-05
3.01941e-05
3.19807e-05
3.17956e-05
2.94366e-05
2.50425e-05
3.6939e-05
5.11279e-05
7.34253e-05
5.92684e-05
0.000111736
2.02186e-06
2.08903e-06
1.94171e-06
1.67923e-06
1.86827e-06
2.19148e-06
2.57878e-06
2.73995e-06
2.76173e-06
2.9358e-06
3.30197e-06
3.63464e-06
3.93021e-06
3.92695e-06
3.9231e-06
3.78042e-06
3.99265e-06
3.76575e-06
3.98398e-06
3.70746e-06
4.52866e-06
5.12253e-06
4.50833e-06
1.48199e-05
2.49444e-05
3.7564e-05
5.89589e-05
6.78376e-05
5.70842e-05
4.63697e-05
3.58259e-05
1.99257e-05
1.122e-05
9.84256e-06
8.36664e-06
6.5901e-06
5.08808e-06
5.08808e-06
5.24165e-06
5.6236e-06
5.5877e-06
6.0697e-06
6.10523e-06
7.94317e-06
9.27793e-06
1.37807e-05
3.99063e-05
5.63019e-05
8.92886e-05
0.000107609
9.64362e-05
0.000116377
0.000135113
0.000133753
0.000132909
0.000122124
9.80744e-05
7.24246e-05
4.5679e-05
1.68257e-05
1.18562e-05
8.67897e-06
7.40879e-06
5.94986e-06
5.68593e-06
5.68593e-06
6.36935e-06
7.50846e-06
9.58214e-06
6.72314e-05
7.62106e-05
8.61612e-05
7.95004e-05
7.95004e-05
0.000108018
0.000155578
0.000187271
0.000228192
0.000266609
0.000274311
0.000265819
0.000254896
0.000211351
0.000152553
0.000109654
8.78138e-05
4.453e-05
2.33501e-05
1.37531e-05
1.36275e-05
7.89123e-06
8.31239e-06
8.80177e-05
9.45527e-05
0.000107768
0.000102014
0.000116188
0.000157603
0.00019161
0.000225676
0.000264558
0.000299621
0.000348144
0.000397407
0.000440959
0.000468602
0.000482068
0.000530823
0.00065954
0.000690344
0.000635205
0.00040605
0.000261423
6.36399e-05
2.92459e-05
0.000112447
0.000117424
0.000128636
0.000134238
0.000154208
0.000182324
0.000215907
0.0002514
0.000294549
0.000348779
0.000420912
0.000514553
0.000615642
0.000753365
0.000941851
0.0012157
0.00151516
0.00157623
0.00168741
0.00132083
0.000966221
0.000626624
0.000421153
0.000134019
0.00013786
0.000148018
0.000156347
0.000179874
0.000204106
0.000229737
0.00025835
0.000293514
0.000339983
0.000400899
0.00047636
0.000578261
0.000730509
0.000986435
0.00119291
0.00118233
0.00131101
0.00156301
0.00145634
0.00144646
0.00131439
0.000919754
0.000156277
0.000159894
0.000169223
0.000178941
0.000196976
0.000217952
0.000243378
0.000272715
0.000308002
0.000351392
0.000403945
0.000467507
0.000546742
0.000664019
0.000812372
0.000940493
0.000844536
0.00075457
0.00108625
0.00122658
0.00125975
0.00113802
0.000725655
0.000176295
0.000179691
0.000188278
0.000198119
0.000215724
0.000234033
0.000255308
0.000280619
0.000311285
0.000349576
0.000396942
0.000455537
0.000527379
0.000628723
0.000752484
0.000817465
0.000602927
0.000486309
0.000531543
0.000874442
0.00111737
0.000752999
0.000358017
0.000195177
0.000198091
0.000205558
0.000214831
0.000228208
0.000244224
0.000263639
0.000287125
0.000315168
0.000348821
0.000387373
0.000432552
0.000484566
0.000552099
0.000636445
0.000700561
0.000638828
0.000377843
0.000311653
0.000416381
0.000688665
0.000989198
0.00062551
0.000211477
0.000214111
0.000220863
0.000229424
0.000242564
0.000256383
0.000272697
0.000292637
0.000316164
0.000344898
0.000378302
0.000417274
0.000461609
0.000512567
0.00056514
0.000608232
0.000604638
0.000473173
0.000311653
0.000326034
0.000334548
0.00059465
0.000768726
0.000225842
0.000228218
0.000234379
0.00024196
0.000251052
0.000262714
0.000276836
0.000294276
0.000314573
0.000338503
0.000365443
0.000395131
0.000427281
0.000463264
0.000500148
0.000533566
0.000557637
0.000550282
0.000457692
0.000367863
0.000369174
0.000369174
0.000512547
0.000238244
0.000240361
0.000245505
0.000251911
0.000260377
0.000270297
0.000281817
0.000296048
0.000312368
0.000331569
0.000353445
0.000377848
0.000403213
0.000430201
0.000453135
0.000477405
0.000493672
0.00050945
0.000510407
0.000503214
0.000495673
0.000428349
0.000220691
0.000248695
0.000250457
0.000254818
0.000260102
0.000265891
0.000273928
0.000283311
0.000294914
0.000308065
0.000323044
0.000339646
0.000357938
0.000374604
0.000395768
0.000411847
0.000432865
0.000446122
0.000464257
0.000477593
0.000498094
0.000545466
0.000571751
0.000431653
0.000257475
0.000258788
0.000262165
0.00026645
0.000271148
0.000277566
0.000284617
0.000293283
0.000303023
0.000313993
0.000325885
0.000339672
0.000349378
0.000365377
0.000375905
0.000392583
0.000403629
0.000420674
0.000436607
0.000457745
0.000490232
0.000533991
0.000400605
0.000264707
0.000265729
0.00026843
0.000271776
0.000275107
0.00027989
0.00028499
0.000291344
0.00029766
0.000305944
0.000310604
0.000320299
0.000325163
0.000336286
0.000342995
0.000356032
0.000365948
0.000381498
0.000397602
0.000419006
0.000443691
0.00047864
0.000399771
0.000270813
0.000271481
0.000273413
0.000275435
0.000277502
0.000280598
0.000283452
0.000287142
0.000290653
0.000295382
0.000296354
0.000301901
0.000302638
0.000308961
0.000312111
0.000320925
0.000328869
0.000342918
0.000358189
0.000380399
0.000402776
0.000429576
0.00035556
0.000276043
0.0002764
0.000277735
0.000279613
0.000280831
0.000282771
0.000283285
0.000286094
0.000283352
0.000285868
0.000282364
0.000283954
0.000280935
0.00028285
0.000282773
0.000287866
0.000293857
0.000306496
0.000321315
0.000344403
0.000369182
0.000396052
0.000333055
0.000280824
0.000280855
0.000281613
0.000282128
0.000282128
0.000281513
0.000281006
0.000279556
0.000277116
0.000275962
0.000269762
0.000267386
0.000260369
0.000257751
0.000253868
0.000255089
0.000258579
0.000269789
0.000284435
0.000308148
0.00033539
0.000362074
0.000315336
0.000285463
0.000285175
0.000285421
0.00028559
0.000284552
0.000283217
0.000281245
0.000277847
0.000271425
0.000267733
0.000257344
0.000251219
0.000240198
0.000233376
0.000225236
0.000222627
0.000223387
0.000233354
0.000248796
0.000274138
0.000305005
0.000334738
0.000299564
0.000290594
0.000290067
0.00028981
0.000288245
0.000285732
0.000281729
0.000277143
0.000270738
0.000263251
0.000254533
0.000244727
0.00023441
0.000221847
0.000210256
0.00019656
0.000189201
0.000186408
0.00019505
0.000212179
0.000240511
0.000271759
0.000307278
0.000289475
0.000296412
0.000295775
0.000294881
0.000293297
0.000290141
0.000285451
0.000279826
0.00027207
0.000262799
0.000251434
0.00023803
0.000222925
0.000204849
0.000188062
0.000167585
0.000153928
0.000145702
0.00015248
0.000172442
0.000205821
0.000243049
0.000284238
0.000280317
0.00030369
0.000303052
0.000301477
0.000299419
0.000294775
0.00028822
0.000280176
0.000269635
0.000257206
0.000242125
0.000224865
0.000205479
0.000184541
0.00016301
0.000142435
0.000119716
0.000100925
0.000103296
0.000128194
0.00016753
0.000209204
0.000259018
0.00027443
0.000312878
0.000312311
0.000310146
0.000307725
0.000303174
0.000297202
0.000288887
0.000278088
0.000265145
0.00024887
0.000229507
0.000206415
0.000179924
0.000150175
0.000118868
9.15224e-05
6.16813e-05
4.22784e-05
8.23085e-05
0.00012863
0.000179287
0.000237621
0.000269296
0.000324616
0.000324123
0.000321569
0.000318916
0.000313965
0.000308149
0.000298688
0.000286381
0.000271496
0.000253071
0.000231648
0.00020668
0.000178394
0.000145806
0.000109022
6.75245e-05
2.52532e-05
2.52532e-05
3.2234e-05
8.79548e-05
0.000148729
0.000214229
0.000260978
0.000339237
0.000338799
0.000336188
0.000333549
0.000328575
0.000322747
0.000314275
0.000304633
0.000290905
0.000276488
0.000256065
0.000234182
0.000206458
0.000174082
0.000138472
0.000101389
6.31776e-05
3.38439e-05
6.84594e-05
0.000102666
0.000155279
0.000218698
0.000265193
0.000357081
0.000356687
0.000354305
0.0003519
0.000347305
0.000341917
0.000334128
0.000325104
0.000312639
0.000299154
0.000280468
0.000260168
0.000235638
0.00021053
0.00017902
0.000150692
0.000119093
0.000104231
0.000115741
0.000155018
0.000201831
0.000253574
0.000277911
0.000378215
0.000377934
0.000376014
0.000374039
0.000370129
0.000365511
0.000358764
0.000350846
0.000340041
0.000328151
0.000312201
0.000295902
0.00027511
0.00025501
0.000230819
0.000210847
0.000191577
0.000186467
0.00019408
0.000223063
0.00026071
0.00031877
0.000312394
0.000402675
0.000402568
0.00040122
0.000399831
0.00039685
0.000393323
0.000388017
0.000381739
0.000373198
0.000363715
0.000351281
0.00033855
0.000322802
0.000308083
0.000292352
0.000281276
0.000273916
0.000279813
0.000294511
0.00032064
0.000351173
0.000398006
0.000370602
0.000430578
0.00043068
0.000429937
0.000429212
0.000427249
0.000424909
0.000421136
0.000416589
0.000410314
0.000403258
0.00039435
0.000385595
0.000375843
0.000368025
0.000361638
0.000361572
0.000369686
0.000391289
0.000411536
0.000433542
0.000460668
0.000499166
0.000449907
0.000461383
0.000461814
0.000461808
0.000461948
0.000461186
0.000460257
0.000458244
0.000455742
0.000452131
0.000448198
0.000443631
0.000439794
0.000436686
0.000437082
0.000444289
0.000461195
0.000486613
0.000508205
0.000517918
0.000537392
0.000564764
0.000603069
0.000525124
0.000495893
0.00049651
0.000497033
0.000497909
0.000498257
0.000498744
0.000498557
0.000498277
0.000497557
0.000497051
0.000497113
0.000498998
0.000504624
0.000517364
0.000541849
0.000576414
0.00060237
0.000598902
0.000601779
0.00062294
0.000655947
0.000697532
0.000600286
0.000532125
0.000533218
0.000534677
0.000536804
0.000538718
0.000541075
0.000543165
0.000545619
0.00054835
0.000552233
0.000558414
0.000569082
0.000587419
0.000617768
0.000655427
0.000682292
0.000670457
0.000654725
0.00066809
0.000693878
0.000733757
0.000781356
0.000668203
0.000572496
0.000573973
0.000576075
0.000578989
0.000582061
0.000586105
0.000590357
0.000595619
0.000602142
0.000611074
0.000624451
0.00064508
0.000677075
0.000719825
0.000755429
0.00072891
0.00070328
0.000702401
0.000718886
0.00075135
0.000795583
0.000850889
0.000730297
0.000613163
0.000615054
0.000618038
0.000622398
0.000627513
0.000634257
0.000641881
0.000651216
0.000662784
0.000678249
0.000700468
0.000731953
0.000774203
0.000814114
0.000789806
0.000748433
0.00073137
0.000736191
0.000753176
0.000785398
0.000836237
0.000902375
0.00078544
0.000657761
0.000660214
0.000664346
0.000670547
0.000677864
0.000686983
0.00069721
0.000709909
0.00072617
0.000748002
0.000778902
0.000819745
0.000864878
0.00085994
0.000790591
0.000754098
0.000749022
0.000749022
0.000765727
0.000806956
0.000867667
0.000944887
0.000832437
0.00070194
0.000704796
0.000709716
0.000717159
0.000726187
0.000737678
0.000751059
0.000768205
0.000790055
0.000818317
0.000856735
0.000901167
0.000937788
0.000863137
0.000788265
0.000754892
0.000740664
0.000749766
0.000774477
0.000824276
0.000894666
0.00098168
0.000872541
0.000748467
0.000752115
0.000758654
0.000768514
0.000780589
0.000795748
0.000813232
0.000834737
0.000860398
0.000893406
0.000936564
0.000978493
0.000950394
0.000841162
0.000764407
0.000734397
0.00072536
0.000737074
0.000773103
0.000834146
0.000915458
0.00101173
0.000907099
0.000794526
0.000798618
0.000806104
0.000817457
0.000831347
0.000848892
0.000869465
0.000895194
0.000926132
0.000967478
0.00101607
0.00105154
0.000959347
0.00083313
0.000755393
0.000717044
0.000709392
0.000730786
0.000773895
0.000842322
0.000930958
0.0010338
0.000933227
0.000840198
0.000845496
0.000855302
0.000869888
0.000887555
0.00090951
0.000935142
0.000967028
0.00100463
0.00105126
0.00109476
0.00106412
0.000923007
0.000785644
0.000713851
0.000689816
0.000692838
0.000717324
0.000775365
0.000856016
0.000953382
0.0010626
0.000960631
0.000883516
0.000889505
0.000900726
0.000917229
0.000936772
0.00095849
0.000985105
0.00101778
0.00105917
0.00110977
0.00115675
0.00109488
0.00093336
0.000786128
0.000703842
0.000664083
0.000680275
0.000708686
0.000771603
0.000857391
0.000959394
0.0010731
0.00097422
0.000925245
0.000931994
0.00094477
0.000963891
0.000988537
0.00102017
0.00105703
0.00110066
0.00115009
0.00120016
0.0012257
0.00108053
0.000872052
0.000718103
0.000654522
0.000654522
0.000657681
0.000708158
0.000786851
0.000883793
0.000993356
0.00111246
0.00100812
5.60795e-06
6.55891e-06
4.53089e-05
0.000118842
2.78624e-05
0.000106031
0.000226758
0.000276127
1.04033e-05
1.80737e-05
0.000141273
0.00028133
6.3535e-06
6.3535e-06
1.36232e-05
5.15766e-05
2.08877e-05
1.83073e-05
1.64491e-05
1.64491e-05
0.000199409
0.000141242
8.94324e-05
7.91369e-05
0.000337124
0.000238971
0.000217784
0.000217784
0.000572604
0.00040865
0.000366844
0.000366844
0.000218106
0.00021413
0.00021413
0.000259852
0.000236309
0.000202122
0.000195216
0.000195216
0.000490898
0.000486492
0.000434032
0.000434032
0.000477599
0.000477599
0.00046819
0.00046819
0.00018632
0.00018632
0.000286336
0.000352464
0.000247577
0.000190529
0.000128446
0.000128446
0.000247654
0.000238122
0.000233194
0.000233194
0.000252971
0.000243539
0.000230513
0.000230513
0.000231696
0.000231696
0.000233565
0.000234068
0.000217832
0.000217832
0.000221521
0.000224428
0.000209014
0.000209014
0.000215864
0.000222893
0.000200339
0.000200339
0.000208377
0.000216666
0.000196177
0.000196177
0.000206576
0.000217142
0.000191537
0.000191537
0.000203316
0.000215202
0.000189566
0.000189566
0.000203222
0.000217008
0.000187692
0.000187692
0.000202857
0.000218173
0.00018363
0.00018363
0.000200209
0.000216977
0.00018649
0.00018649
0.000203416
0.00022062
0.000192933
0.000192933
0.000208672
0.000224893
0.000212172
0.000212172
0.000225619
0.000239646
0.000247232
0.000247232
0.000258455
0.000269639
0.000297464
0.000297464
0.000307282
0.000317009
0.00034641
0.00034641
0.00035667
0.000367547
0.000396916
0.000396916
0.000409313
0.000422379
0.000443057
0.000443057
0.000457748
0.000472785
0.000485781
0.000485781
0.000503092
0.000520414
0.000523577
0.000523577
0.000543042
0.000562199
0.000556007
0.000556007
0.000577636
0.000598833
0.000583633
0.000583633
0.000606985
0.000629885
0.000607528
0.000607528
0.00063235
0.000656721
0.000625829
0.000625829
0.00065199
0.000677571
0.000644252
0.000644252
0.000671272
0.000697765
0.000653774
0.000653774
0.000681508
0.00070865
0.000676127
0.000676127
0.000704402
0.000732047
0.000295307
0.000522231
0.000328104
0.00015408
4.94903e-05
4.88101e-05
4.15696e-05
0.000127701
0.000172852
0.000240661
0.000252306
0.000236549
0.000188927
8.11659e-05
7.92687e-05
7.23119e-05
7.38498e-05
5.92684e-05
0.000174193
0.00051117
0.000267162
9.06086e-05
4.48098e-05
4.09198e-05
6.76576e-05
0.000343952
0.000455515
0.000351105
0.000351105
0.000449556
0.000477594
0.000436849
0.000479274
0.000677775
0.000594197
0.000342606
0.00022746
0.00021478
0.000213047
4.14055e-05
2.0928e-05
3.52128e-05
4.09198e-05
0.000147499
0.000576947
0.000576176
0.000448042
0.00049225
0.000398888
0.000217753
0.000133462
0.000133462
0.00035626
0.000792671
0.000731367
0.00029187
0.000253194
2.8612e-05
1.25775e-05
1.43406e-05
3.29753e-05
0.000107808
0.000510949
0.000791411
0.000898971
0.00101225
0.00104047
0.000961264
0.000948595
0.000828403
0.000857919
0.00102617
0.00113541
0.00076526
0.000318371
0.000314545
2.04411e-05
1.25775e-05
2.61277e-05
0.000166228
0.000460959
0.000919167
0.00128359
0.00141575
0.00153345
0.0014668
0.00139464
0.00152667
0.00155956
0.00139927
0.00118811
0.000714043
0.000375827
0.000330897
0.000368599
6.31674e-05
0.000117953
0.000183212
0.00037471
0.000977624
0.00149488
0.00164014
0.00123319
0.00103485
0.000950355
0.000844294
0.000917042
0.000929874
0.000755765
0.000732853
0.000429244
0.000290807
0.000290807
0.000322196
0.000376686
0.000500068
0.000637131
0.000838372
0.00150365
0.00147556
0.0010989
0.000629468
0.000558533
0.000593509
0.000448825
0.000385682
0.000557891
0.000606672
0.000682061
0.000616006
0.000292303
0.000292393
0.000321595
0.000695633
0.000929636
0.00116517
0.00123203
0.001154
0.00102168
0.000492799
0.000436042
0.000373792
0.000409504
0.000328625
0.000242446
0.000381328
0.000383824
0.000250691
0.000285013
0.00043728
0.000315807
0.000280178
0.000546753
0.000608988
0.000986728
0.000978269
0.00081027
0.000397545
0.000173785
0.00025304
0.000179985
0.000198251
0.000363182
0.000242446
0.000145583
6.4519e-05
5.48161e-05
5.91486e-05
0.00014404
0.000316791
0.000216872
0.000314183
0.000349918
0.000395486
0.000467315
0.000394053
0.000121355
0.000111736
0.000152685
0.000166089
0.000180253
0.00022034
0.000182287
5.1811e-05
4.48183e-05
4.48183e-05
4.77032e-05
4.56784e-05
5.49678e-05
7.45255e-05
0.000405028
0.000346167
0.000310171
0.000278981
0.000239538
0.000182035
0.000111736
0.000152685
0.000167602
0.000196598
0.000205942
0.000183305
0.000132352
7.34884e-05
5.93738e-05
4.77032e-05
4.12252e-05
3.50322e-05
3.21874e-05
0.000609738
0.000421351
0.000323611
0.000271582
0.000224682
0.000188573
0.000177519
0.000207244
0.000272773
0.000352832
0.000295923
0.000238588
0.000380385
0.000524549
0.00014884
5.46497e-05
4.44951e-05
3.50322e-05
3.21874e-05
0.000485556
0.000587728
0.000557243
0.000382997
0.000318609
0.000279929
0.000281705
0.000399162
0.000544664
0.000603365
0.000721862
0.000905637
0.00104034
0.00094093
0.000821957
0.00012972
6.04508e-05
4.05341e-05
3.31072e-05
0.00013698
0.000225075
0.000234944
0.000256857
0.000430198
0.000610832
0.00057858
0.000595963
0.000699275
0.000824735
0.00112106
0.001336
0.00148325
0.00132133
0.0013012
0.000776547
0.000248192
8.69701e-05
5.62324e-05
0.000274308
0.000225334
0.000119608
0.000123908
0.000286022
0.000520183
0.000660862
0.000711862
0.000704864
0.000741244
0.000784147
0.00073019
0.00141827
0.00175228
0.0015738
0.00137041
0.00105099
0.000600921
0.000335968
0.000358464
0.000232603
0.000119608
0.000158315
0.000275726
0.0004023
0.000398171
0.000453619
0.000434323
0.000325643
0.000301036
0.000367811
0.000967981
0.00146369
0.00142208
0.00151999
0.00135097
0.00124033
0.00106238
0.000388921
0.00035484
0.000272591
0.00029295
0.000378168
0.00038505
0.00036191
0.000354974
0.000266594
0.000158645
0.000158645
0.000260294
0.000690857
0.00112458
0.00130067
0.00147422
0.00135097
0.00128021
0.00105722
0.000379002
0.000464466
0.000452515
0.000491258
0.000556447
0.000524459
0.000419174
0.000354974
0.000309343
0.000219981
0.000255217
0.000467245
0.000731647
0.000857619
0.00108415
0.00132139
0.00135568
0.00122191
0.00105722
0.000384867
0.00051497
0.000548556
0.000626316
0.000739128
0.000784247
0.000724295
0.000618749
0.000558992
0.000496863
0.000545324
0.000684524
0.000776961
0.000786989
0.00082316
0.00108948
0.00135568
0.00136337
0.00107184
0.000377565
0.000543444
0.000598155
0.000681426
0.000804596
0.000933304
0.00096122
0.000964038
0.000912381
0.000850815
0.000830634
0.00085778
0.000848087
0.000784705
0.000742212
0.000875079
0.00126455
0.00140937
0.00109651
0.000382196
0.000559593
0.00062402
0.000704807
0.000810014
0.000921373
0.00100846
0.0010575
0.00104047
0.00101948
0.000984099
0.000946132
0.000874327
0.000773853
0.000668302
0.000759347
0.00111607
0.00140733
0.00108686
0.000381062
0.000575172
0.000645531
0.00072386
0.000813789
0.000908963
0.000982759
0.00103838
0.00104961
0.0010376
0.0010039
0.000946126
0.00086145
0.000756994
0.000635375
0.000678402
0.00099649
0.00131438
0.00108686
0.000387157
0.000589521
0.000665076
0.00074095
0.000822089
0.000908963
0.000978797
0.00103113
0.00104106
0.00102546
0.000991761
0.000932273
0.000851518
0.000747343
0.000630295
0.000603106
0.00086364
0.00128457
0.00111668
0.000391708
0.000608313
0.000689927
0.000766825
0.000846712
0.000922204
0.000978797
0.00103113
0.00104106
0.00102546
0.000989638
0.000927224
0.000845694
0.000745481
0.000627638
0.000545007
0.000668605
0.00110363
0.00140068
0.000392199
0.000622482
0.000711304
0.000792035
0.000874025
0.000947166
0.000997641
0.00103792
0.00104751
0.00102785
0.000989638
0.000927224
0.000845694
0.000745481
0.000617854
0.000523222
0.000443267
0.000983535
0.00156184
0.000399091
0.000635029
0.000731616
0.000817109
0.000904089
0.000978381
0.00103593
0.00106482
0.00107465
0.00105155
0.00100747
0.000939593
0.00085428
0.000757231
0.000630871
0.000466848
0.000319736
0.000800686
0.00156115
0.000404839
0.000644816
0.000746476
0.000833555
0.000928472
0.00100364
0.00107244
0.00110296
0.00111316
0.00109129
0.00104327
0.0009726
0.000886558
0.000794623
0.000679135
0.000512463
0.000319736
0.000728085
0.00148629
0.000425953
0.000656907
0.000758551
0.000844808
0.000947186
0.00102489
0.00110379
0.00114581
0.00116247
0.00114401
0.00109821
0.00102354
0.000945108
0.000853274
0.000767347
0.000678393
0.000413031
0.00065681
0.00131641
0.000471136
0.000686824
0.000778215
0.0008548
0.000954952
0.00102036
0.00110489
0.00116932
0.00121342
0.00120297
0.00116695
0.00108691
0.00102049
0.000918253
0.000860845
0.000728718
0.000583328
0.00031974
0.000904688
0.000549024
0.000754612
0.000828652
0.000885549
0.000966757
0.00102036
0.00108355
0.00113334
0.00123283
0.00125766
0.00124195
0.0011577
0.00110386
0.000987183
0.000946024
0.000760025
0.000491104
0.000143274
0.000730627
0.000636153
0.000856553
0.00091642
0.000956284
0.00100698
0.00102115
0.00107257
0.00109391
0.0011901
0.0012797
0.00131791
0.00123928
0.00119923
0.0010707
0.0010401
0.000831741
0.000497121
0.000143274
0.000656524
0.000730606
0.000972824
0.00102867
0.00106266
0.00107925
0.00104865
0.00107257
0.00105755
0.00113142
0.00122821
0.00137374
0.00131812
0.00129543
0.00116328
0.00113845
0.000931625
0.000673585
0.00019407
0.000749828
0.000817816
0.00109268
0.00115281
0.00118613
0.00116522
0.00109635
0.00107841
0.00104552
0.00108349
0.00116152
0.00138149
0.00138834
0.00139281
0.00126415
0.00124892
0.00105162
0.000898681
0.00041423
0.000888416
0.000900819
0.00120746
0.00127303
0.00130425
0.00124842
0.00115997
0.00111248
0.00104552
0.00105762
0.00109107
0.00133427
0.00144268
0.00148329
0.00136677
0.00136242
0.00118059
0.00113092
0.000657212
0.000809039
0.000973179
0.00131206
0.00138171
0.00140958
0.00133251
0.00125037
0.00119232
0.00108602
0.00105762
0.00103575
0.00126116
0.00147805
0.00156426
0.00146751
0.00146557
0.00130252
0.00126294
0.000861456
0.00053609
0.0010375
0.00140602
0.00147795
0.00150414
0.00142558
0.00136814
0.00131159
0.00118297
0.00106558
0.00096484
0.00117709
0.00145822
0.00162633
0.00155284
0.00155601
0.00140497
0.00135986
0.000786546
0.000320679
0.00109189
0.00148964
0.00156217
0.00159011
0.00152655
0.0014964
0.00144949
0.00131195
0.00108855
0.00088303
0.00108396
0.00141234
0.00166724
0.00162039
0.00162507
0.00149117
0.0014417
0.000748949
0.000291795
0.00113907
0.00156208
0.00163535
0.00166886
0.00162438
0.00161655
0.00158613
0.00143903
0.00108379
0.000734988
0.000913025
0.00131302
0.0016602
0.0016704
0.00167987
0.00156585
0.00150571
0.000853273
0.000291795
0.0011758
0.00162343
0.00169874
0.0017399
0.00171047
0.0017246
0.00170521
0.00155383
0.000998868
0.000618638
0.000695404
0.00120243
0.00160928
0.00169118
0.00172097
0.001631
0.00154024
0.000977723
0.000415134
0.00121128
0.00167653
0.0017544
0.00180194
0.00178277
0.00181614
0.00179581
0.00165837
0.00101859
0.00056326
0.000516579
0.000994278
0.00152663
0.00166666
0.00173922
0.00167979
0.00159772
0.00117527
0.000613116
0.00123059
0.00171769
0.00179795
0.00185128
0.00183948
0.00188511
0.00186226
0.00170936
0.000994352
0.000534074
0.000440095
0.000884742
0.00143697
0.00161385
0.00172675
0.00171568
0.00165408
0.00125557
0.000772244
0.00127058
0.00175983
0.00184136
0.00190034
0.00189262
0.00194581
0.00192238
0.0018045
0.00107478
0.000533924
0.000440095
0.000747733
0.00126302
0.00161385
0.00172675
0.00173898
0.00170716
0.00152341
0.000975057
)
;

boundaryField
{
    leftWall
    {
        type            calculated;
        value           uniform 0;
    }
    rightWall
    {
        type            calculated;
        value           uniform 0;
    }
    lowerWall
    {
        type            calculated;
        value           uniform 0;
    }
    atmosphere
    {
        type            calculated;
        value           uniform 0;
    }
    defaultFaces
    {
        type            empty;
    }
}


// ************************************************************************* //
