/*--------------------------------*- C++ -*----------------------------------*\
| =========                 |                                                 |
| \\      /  F ield         | OpenFOAM: The Open Source CFD Toolbox           |
|  \\    /   O peration     | Version:  2012                                  |
|   \\  /    A nd           | Website:  www.openfoam.com                      |
|    \\/     M anipulation  |                                                 |
\*---------------------------------------------------------------------------*/
FoamFile
{
    version     2.0;
    format      ascii;
    class       volScalarField;
    location    "0.7";
    object      p_rgh;
}
// * * * * * * * * * * * * * * * * * * * * * * * * * * * * * * * * * * * * * //

dimensions      [1 -1 -2 0 0 0 0];


internalField   nonuniform List<scalar> 
2268
(
101882
101885
101892
101902
101915
101931
101949
101970
101992
102016
102038
102065
102086
102115
102133
102163
102178
102209
102220
102249
102253
102274
102269
101881
101884
101891
101901
101914
101930
101949
101969
101991
102016
102038
102065
102086
102115
102133
102163
102178
102209
102220
102250
102255
102276
102271
101879
101883
101889
101899
101913
101929
101947
101969
101991
102015
102038
102065
102086
102115
102133
102163
102178
102209
102221
102251
102255
102276
102269
101877
101880
101887
101898
101911
101927
101946
101967
101990
102015
102038
102065
102086
102115
102134
102164
102179
102211
102223
102254
102259
102283
102274
101874
101877
101884
101894
101908
101924
101944
101966
101989
102014
102037
102065
102086
102115
102134
102164
102179
102211
102223
102255
102259
102283
102269
101870
101873
101881
101891
101905
101922
101941
101963
101987
102013
102037
102064
102087
102115
102135
102164
102180
102213
102226
102262
102267
102296
102278
101865
101869
101876
101886
101900
101917
101937
101960
101985
102012
102036
102064
102087
102115
102135
102165
102180
102213
102225
102263
102266
102297
102267
101844
101849
101863
101881
101897
101914
101934
101957
101982
102010
102036
102064
102087
102116
102136
102165
102182
102216
102230
102272
102277
102313
102280
102894
102270
102049
102004
102014
102269
102588
102572
102358
102114
101997
101945
101931
101940
101945
101989
102049
102432
103008
102844
102209
102020
101971
101990
102276
102676
102565
102322
102097
101966
101928
101916
101932
101940
101975
101985
102241
102877
102554
102064
101966
101911
101977
102228
102606
102576
102312
102025
101915
101856
101841
101856
101868
101877
101878
102126
102703
102309
101919
101835
101793
101841
102178
102620
102583
102262
102034
101876
101845
101835
101835
101831
101829
101824
101896
102479
102174
101778
101788
101770
101791
102071
102525
102562
102402
102160
102023
101938
101860
101833
101827
101829
101824
101848
102391
102074
101774
101788
101769
101789
102131
102509
102446
102328
102186
102123
102106
102074
102000
101901
101834
101824
101931
102504
102079
101780
101788
101770
101865
102157
102397
102365
102287
102170
102126
102117
102122
102138
102127
102080
102014
102288
102659
102120
101788
101789
101769
102064
102219
102332
102200
102105
102016
102010
102031
102073
102129
102158
102210
102376
102607
102971
101575
101588
101614
101655
101714
101772
101837
101905
101967
102009
102035
102064
102088
102117
102137
102165
102179
102215
102226
102274
102270
102339
102237
101331
101332
101333
101336
101349
101377
101421
101493
101596
101743
101872
101973
102056
102118
102141
102166
102184
102217
102241
102295
102324
102383
102355
101331
101331
101331
101331
101331
101331
101332
101334
101341
101364
101427
101523
101629
101773
101906
102002
102063
102167
102214
102284
102292
102386
102402
101331
101331
101331
101331
101331
101331
101331
101332
101332
101332
101336
101344
101360
101380
101413
101445
101463
101533
101674
101925
102115
102388
102490
101331
101331
101331
101331
101331
101331
101331
101331
101331
101332
101332
101332
101332
101332
101332
101332
101332
101334
101340
101399
101486
101707
101943
101331
101331
101331
101331
101331
101331
101331
101331
101332
101332
101332
101332
101332
101332
101332
101332
101331
101334
101339
101425
101580
101644
101622
101331
101331
101331
101331
101331
101331
101331
101331
101331
101331
101332
101332
101332
101332
101332
101331
101330
101329
101362
101503
101547
101489
101530
101331
101331
101331
101331
101331
101331
101331
101331
101331
101331
101331
101331
101331
101331
101331
101330
101329
101327
101329
101328
101431
101750
101874
101331
101331
101331
101331
101331
101331
101331
101331
101331
101331
101331
101331
101331
101331
101331
101330
101329
101328
101329
101329
101330
101555
102275
101331
101331
101331
101331
101331
101331
101331
101331
101331
101331
101331
101331
101331
101331
101330
101330
101329
101328
101329
101329
101330
101329
101376
101331
101331
101331
101331
101331
101331
101331
101331
101331
101331
101331
101331
101331
101331
101330
101330
101330
101329
101329
101329
101330
101329
101330
101331
101331
101331
101331
101331
101331
101331
101331
101331
101331
101331
101331
101331
101330
101330
101330
101330
101329
101330
101329
101330
101330
101329
101331
101331
101331
101331
101331
101331
101331
101331
101331
101331
101331
101331
101330
101330
101330
101330
101330
101330
101330
101330
101330
101329
101330
101330
101330
101330
101330
101330
101330
101330
101330
101330
101330
101330
101330
101330
101330
101330
101330
101330
101330
101330
101330
101330
101330
101329
101330
101330
101330
101330
101330
101330
101330
101330
101330
101330
101330
101330
101330
101330
101330
101330
101330
101330
101330
101330
101330
101330
101330
101330
101330
101330
101330
101330
101330
101330
101330
101330
101330
101330
101330
101330
101330
101330
101330
101330
101330
101330
101330
101330
101330
101330
101330
101330
101330
101330
101330
101330
101330
101330
101330
101330
101330
101330
101330
101330
101330
101330
101330
101330
101330
101330
101330
101330
101330
101330
101330
101330
101330
101330
101330
101330
101330
101330
101330
101330
101330
101330
101330
101330
101330
101330
101330
101330
101330
101330
101330
101330
101330
101330
101330
101330
101330
101330
101330
101330
101330
101330
101330
101330
101330
101330
101330
101330
101330
101330
101330
101330
101330
101330
101330
101330
101330
101330
101330
101330
101330
101330
101330
101330
101330
101330
101330
101330
101330
101330
101330
101330
101330
101330
101330
101330
101330
101330
101330
101330
101330
101330
101330
101330
101330
101330
101330
101330
101330
101330
101330
101330
101330
101330
101330
101330
101330
101330
101330
101330
101330
101330
101330
101330
101330
101330
101330
101330
101330
101330
101330
101330
101330
101330
101330
101330
101330
101330
101330
101330
101330
101330
101330
101330
101329
101329
101329
101329
101329
101330
101330
101330
101330
101330
101330
101330
101330
101330
101330
101330
101330
101330
101330
101330
101330
101330
101330
101329
101329
101329
101329
101329
101329
101329
101329
101329
101330
101330
101330
101330
101330
101330
101330
101330
101330
101330
101330
101330
101330
101330
101329
101329
101329
101329
101329
101329
101329
101329
101329
101329
101329
101329
101330
101330
101330
101330
101330
101330
101330
101330
101330
101330
101330
101329
101329
101329
101329
101329
101329
101329
101329
101329
101329
101329
101329
101329
101330
101330
101330
101330
101330
101330
101330
101330
101330
101330
101329
101329
101329
101329
101329
101329
101329
101329
101329
101329
101329
101329
101329
101329
101329
101330
101330
101330
101330
101330
101330
101330
101330
101329
101329
101329
101329
101329
101329
101329
101329
101329
101329
101329
101329
101329
101329
101329
101329
101330
101330
101330
101330
101330
101330
101330
101329
101329
101329
101329
101329
101329
101329
101329
101329
101329
101329
101329
101329
101329
101329
101329
101329
101330
101330
101330
101330
101330
101330
101328
101328
101328
101328
101328
101329
101329
101329
101329
101329
101329
101329
101329
101329
101329
101329
101329
101329
101329
101329
101330
101330
101330
101328
101328
101328
101328
101328
101328
101328
101328
101328
101329
101329
101329
101329
101329
101329
101329
101329
101329
101329
101329
101329
101329
101329
101328
101328
101328
101328
101328
101328
101328
101328
101328
101328
101328
101328
101329
101329
101329
101329
101329
101329
101329
101329
101329
101329
101329
101328
101328
101328
101328
101328
101328
101328
101328
101328
101328
101328
101328
101328
101328
101328
101328
101328
101329
101329
101329
101329
101329
101329
101328
101328
101328
101328
101328
101328
101328
101328
101328
101328
101328
101328
101328
101328
101328
101328
101328
101328
101328
101328
101328
101328
101328
101327
101327
101327
101327
101327
101327
101327
101328
101328
101328
101328
101328
101328
101328
101328
101328
101328
101328
101328
101328
101328
101328
101328
101327
101327
101327
101327
101327
101327
101327
101327
101327
101327
101327
101327
101327
101327
101327
101327
101327
101327
101327
101328
101328
101328
101328
101327
101327
101327
101327
101327
101327
101327
101327
101327
101327
101327
101327
101327
101327
101327
101327
101327
101327
101327
101327
101327
101327
101327
101327
101327
101327
101327
101327
101327
101327
101327
101327
101327
101327
101327
101327
101327
101327
101327
101327
101327
101327
101327
101327
101327
101327
101326
101326
101326
101326
101326
101326
101326
101326
101326
101326
101326
101326
101326
101326
101326
101326
101326
101326
101326
101326
101326
101326
101326
101326
101326
101326
101326
101326
101326
101326
101326
101326
101326
101326
101326
101326
101326
101326
101326
101326
101326
101326
101326
101326
101326
101326
101325
101325
101325
101325
101325
101325
101325
101325
101326
101326
101326
101326
101326
101326
101326
101326
101326
101326
101326
101326
101326
101326
101326
101325
101325
101325
101325
101325
101325
101325
101326
101326
101325
101325
101325
101325
101325
101325
101325
101325
101325
101325
101325
101325
101325
101325
102337
102123
102081
101837
102297
101871
101929
102101
102518
102307
101934
101888
102586
102619
102501
102381
102412
102517
102593
102617
101949
102176
102334
102389
101642
102254
102354
102396
101702
101828
102217
102249
102450
102496
102551
102000
102168
102490
102536
102579
101330
101330
101474
101981
101329
101329
101330
101330
101329
101329
101330
101330
101329
101329
101330
101330
101330
101330
101330
101330
101330
101330
101330
101330
101330
101330
101330
101330
101330
101330
101330
101330
101330
101330
101330
101330
101330
101330
101330
101330
101330
101330
101330
101330
101330
101330
101330
101330
101330
101330
101330
101330
101330
101330
101330
101330
101330
101330
101330
101330
101330
101330
101330
101330
101330
101330
101330
101330
101330
101330
101330
101330
101330
101330
101330
101330
101330
101330
101330
101330
101329
101329
101329
101330
101329
101329
101329
101329
101329
101329
101329
101329
101328
101328
101329
101329
101328
101328
101328
101328
101328
101328
101328
101328
101327
101327
101327
101327
101327
101327
101327
101327
101326
101326
101326
101326
101326
101326
101326
101326
101326
101326
101326
101326
101325
101325
101325
101325
102071
101760
101787
101916
102220
102229
102087
101854
101757
101703
101685
101689
101712
101759
101824
101934
102336
102700
103023
101947
101768
101906
102323
102363
102180
101739
101638
101639
101638
101638
101638
101639
101639
101644
101656
101929
102336
102721
101911
101978
102510
102449
102410
101792
101637
101639
101638
101639
101638
101637
101638
101638
101640
101643
101676
101922
102437
102410
102634
102628
102426
101897
101635
101638
101637
101638
101638
101638
101638
101638
101639
101640
101643
101651
101729
102273
102700
102583
102346
101738
101634
101634
101635
101636
101637
101638
101639
101638
101639
101640
101642
101645
101647
101665
102330
102348
102113
101748
101632
101633
101633
101635
101635
101636
101638
101638
101638
101639
101640
101642
101644
101645
101645
102373
102003
101631
101633
101630
101633
101632
101633
101632
101634
101639
101639
101638
101639
101641
101647
101650
101646
101647
102419
101641
101632
101630
101633
101632
101631
101633
101640
101698
101712
101640
101638
101651
101737
102005
101975
101660
101645
102472
101752
101691
101647
101633
101633
101632
101633
101803
102374
102341
101713
101662
102115
102619
102992
102956
102134
101751
102475
102668
102624
101957
101633
101630
101632
101710
102447
102713
102694
102280
102257
102992
103203
103218
103195
103129
102724
102720
102401
102683
102759
102742
102445
102420
102680
102669
102599
102462
102579
102722
102678
102618
103118
103237
103259
103287
103231
101330
101758
102412
102674
102730
102723
102462
101924
101566
101521
101684
101765
101477
101458
102172
103284
103315
103371
103384
101330
101330
101331
101395
101504
101460
101331
101331
101331
101331
101331
101332
101334
101337
101564
102591
103299
103421
103472
101330
101330
101331
101331
101331
101330
101330
101330
101330
101330
101329
101329
101335
101371
101463
101599
102080
102896
103300
101330
101330
101331
101331
101330
101330
101330
101330
101330
101329
101328
101328
101330
101399
101435
101370
101382
101574
101978
101330
101330
101331
101331
101330
101330
101330
101329
101329
101329
101327
101326
101327
101338
101353
101358
101392
101425
101500
101330
101330
101330
101330
101330
101330
101329
101329
101329
101329
101328
101327
101327
101328
101328
101344
101522
101621
102157
101330
101330
101330
101330
101330
101330
101329
101329
101329
101328
101328
101327
101327
101328
101329
101332
101443
101735
102429
101330
101330
101330
101330
101330
101329
101329
101329
101329
101329
101328
101328
101328
101329
101328
101329
101329
101391
102443
101330
101330
101330
101330
101330
101330
101329
101329
101329
101329
101328
101328
101328
101329
101329
101329
101329
101335
102495
101330
101330
101330
101330
101330
101330
101329
101329
101329
101329
101329
101329
101329
101329
101329
101330
101329
101332
102545
101330
101330
101330
101330
101330
101330
101329
101329
101329
101329
101329
101329
101329
101329
101329
101330
101330
101330
102596
101330
101330
101330
101330
101330
101330
101330
101329
101329
101329
101329
101329
101329
101329
101330
101331
101331
101330
102198
101330
101330
101330
101330
101330
101330
101330
101329
101329
101329
101329
101329
101330
101330
101330
101331
101331
101330
101612
101330
101330
101330
101330
101330
101330
101330
101329
101329
101329
101329
101329
101330
101330
101330
101331
101331
101335
101465
101330
101330
101330
101330
101330
101330
101330
101329
101329
101329
101329
101329
101330
101330
101330
101331
101331
101343
101347
101330
101330
101330
101330
101330
101330
101329
101329
101329
101329
101329
101329
101330
101329
101330
101330
101330
101343
101336
101330
101330
101330
101330
101330
101329
101329
101329
101329
101329
101329
101329
101330
101329
101330
101330
101330
101335
101339
101330
101330
101330
101330
101330
101329
101329
101329
101329
101329
101329
101329
101329
101329
101330
101329
101331
101329
101572
101330
101330
101330
101329
101329
101329
101329
101329
101329
101329
101329
101329
101329
101329
101330
101329
101331
101329
101776
101330
101329
101329
101329
101329
101329
101329
101328
101328
101328
101328
101329
101329
101329
101329
101329
101330
101329
101789
101329
101329
101329
101329
101329
101328
101328
101328
101328
101328
101328
101328
101328
101328
101329
101328
101330
101328
101801
101329
101329
101329
101329
101328
101328
101328
101328
101327
101327
101327
101328
101328
101328
101329
101328
101329
101328
101492
101329
101328
101328
101328
101328
101328
101327
101327
101327
101327
101327
101327
101327
101327
101328
101328
101328
101327
101327
101328
101328
101328
101328
101328
101327
101327
101327
101326
101326
101326
101326
101327
101327
101328
101327
101328
101327
101327
101328
101328
101328
101327
101327
101327
101327
101326
101326
101326
101325
101326
101326
101327
101327
101327
101328
101328
101328
101327
101327
101327
101327
101327
101327
101326
101326
101325
101325
101325
101325
101326
101326
101327
101327
101327
101327
101328
101327
101327
101327
101326
101326
101326
101326
101325
101324
101325
101325
101325
101325
101326
101326
101326
101327
101327
101328
101326
101326
101326
101326
101326
101326
101325
101325
101324
101325
101324
101325
101325
101325
101326
101326
101326
101327
101327
101326
101326
101326
101326
101326
101325
101325
101325
101324
101324
101324
101325
101325
101325
101325
101326
101326
101326
101327
101326
101326
101326
101326
101325
101325
101325
101325
101324
101325
101325
101325
101325
101325
101325
101325
101325
101326
101326
101325
101325
101325
101325
101325
101325
101325
101325
101324
101325
101325
101325
101325
101325
101325
101325
101325
101326
101326
)
;

boundaryField
{
    leftWall
    {
        type            zeroGradient;
    }
    rightWall
    {
        type            zeroGradient;
    }
    lowerWall
    {
        type            zeroGradient;
    }
    atmosphere
    {
        type            fixedValue;
        value           uniform 101325;
    }
    defaultFaces
    {
        type            empty;
    }
}


// ************************************************************************* //
