/*--------------------------------*- C++ -*----------------------------------*\
| =========                 |                                                 |
| \\      /  F ield         | OpenFOAM: The Open Source CFD Toolbox           |
|  \\    /   O peration     | Version:  2012                                  |
|   \\  /    A nd           | Website:  www.openfoam.com                      |
|    \\/     M anipulation  |                                                 |
\*---------------------------------------------------------------------------*/
FoamFile
{
    version     2.0;
    format      ascii;
    class       surfaceScalarField;
    location    "0.7";
    object      phi;
}
// * * * * * * * * * * * * * * * * * * * * * * * * * * * * * * * * * * * * * //

dimensions      [0 3 -1 0 0 0 0];
oriented        oriented;


internalField   nonuniform List<scalar> 
4432
(
-5.94258e-07
5.94257e-07
-1.06048e-06
4.66218e-07
-1.6812e-06
6.20719e-07
-2.54976e-06
8.68568e-07
-3.54048e-06
9.9072e-07
-4.3904e-06
8.49911e-07
-5.28255e-06
8.92154e-07
-6.42098e-06
1.13843e-06
-7.46695e-06
1.04597e-06
-8.46224e-06
9.95291e-07
-9.40205e-06
9.39804e-07
-1.01984e-05
7.96362e-07
-1.06882e-05
4.89748e-07
-1.08791e-05
1.90958e-07
-1.08789e-05
-2.03653e-10
-1.0735e-05
-1.43905e-07
-1.03658e-05
-3.69191e-07
-9.61801e-06
-7.47816e-07
-8.53683e-06
-1.08119e-06
-6.70466e-06
-1.83217e-06
-4.78482e-06
-1.91985e-06
-1.48556e-06
-3.29926e-06
-1.48559e-06
-6.13004e-07
1.20726e-06
-1.08321e-06
9.3642e-07
-1.68888e-06
1.22639e-06
-2.52533e-06
1.70501e-06
-3.49626e-06
1.96165e-06
-4.3555e-06
1.70915e-06
-5.2682e-06
1.80486e-06
-6.41168e-06
2.2819e-06
-7.43501e-06
2.0693e-06
-8.44837e-06
2.00866e-06
-9.42329e-06
1.91472e-06
-1.02082e-05
1.58131e-06
-1.07174e-05
9.98868e-07
-1.09428e-05
4.16443e-07
-1.0956e-05
1.29856e-08
-1.08015e-05
-2.98452e-07
-1.04216e-05
-7.49105e-07
-9.71001e-06
-1.45939e-06
-8.71193e-06
-2.07928e-06
-7.08428e-06
-3.45983e-06
-5.45322e-06
-3.55091e-06
-2.5692e-06
-6.18329e-06
-4.05482e-06
-6.08512e-07
1.81577e-06
-1.04923e-06
1.37714e-06
-1.62767e-06
1.80483e-06
-2.42084e-06
2.49818e-06
-3.38186e-06
2.92268e-06
-4.3085e-06
2.63579e-06
-5.32199e-06
2.81835e-06
-6.51491e-06
3.47482e-06
-7.57225e-06
3.12664e-06
-8.59792e-06
3.03433e-06
-9.53947e-06
2.85627e-06
-1.02863e-05
2.32811e-06
-1.07705e-05
1.48309e-06
-1.10112e-05
6.57173e-07
-1.10384e-05
4.01948e-08
-1.08895e-05
-4.47404e-07
-1.04739e-05
-1.16466e-06
-9.72466e-06
-2.20867e-06
-8.6879e-06
-3.11603e-06
-7.01124e-06
-5.1365e-06
-5.22095e-06
-5.34121e-06
-2.08365e-06
-9.3206e-06
-6.1385e-06
-6.06615e-07
2.42239e-06
-1.05328e-06
1.82381e-06
-1.64278e-06
2.39433e-06
-2.38861e-06
3.244e-06
-3.28845e-06
3.82252e-06
-4.21925e-06
3.56659e-06
-5.25846e-06
3.85756e-06
-6.42417e-06
4.64053e-06
-7.49492e-06
4.19739e-06
-8.56529e-06
4.1047e-06
-9.56164e-06
3.85262e-06
-1.0399e-05
3.1655e-06
-1.09823e-05
2.06638e-06
-1.12686e-05
9.43494e-07
-1.12714e-05
4.29076e-08
-1.10977e-05
-6.21039e-07
-1.07091e-05
-1.55334e-06
-1.00484e-05
-2.86937e-06
-9.08774e-06
-4.07666e-06
-7.51297e-06
-6.71127e-06
-5.59614e-06
-7.25805e-06
-2.16315e-06
-1.27536e-05
-8.30169e-06
-5.1575e-07
2.93814e-06
-9.67197e-07
2.27525e-06
-1.53637e-06
2.9635e-06
-2.23278e-06
3.94041e-06
-3.0941e-06
4.68384e-06
-4.1278e-06
4.60029e-06
-5.33819e-06
5.06795e-06
-6.59432e-06
5.89666e-06
-7.74734e-06
5.35041e-06
-8.84399e-06
5.20134e-06
-9.79088e-06
4.79951e-06
-1.05878e-05
3.96245e-06
-1.11163e-05
2.59488e-06
-1.13814e-05
1.20857e-06
-1.13879e-05
4.94545e-08
-1.12675e-05
-7.4149e-07
-1.08988e-05
-1.92201e-06
-1.02839e-05
-3.48428e-06
-9.3723e-06
-4.98828e-06
-7.89106e-06
-8.19251e-06
-5.84174e-06
-9.30738e-06
-1.58892e-06
-1.70064e-05
-9.89062e-06
-4.21185e-07
3.35932e-06
-9.86471e-07
2.84054e-06
-1.59082e-06
3.56785e-06
-2.23806e-06
4.58765e-06
-2.98786e-06
5.43364e-06
-3.99479e-06
5.60722e-06
-5.19553e-06
6.26868e-06
-6.37935e-06
7.08049e-06
-7.55754e-06
6.5286e-06
-8.77872e-06
6.42253e-06
-9.87894e-06
5.89973e-06
-1.08514e-05
4.93488e-06
-1.15224e-05
3.26594e-06
-1.17942e-05
1.48032e-06
-1.17337e-05
-1.10758e-08
-1.16021e-05
-8.73042e-07
-1.12914e-05
-2.23275e-06
-1.07956e-05
-3.98007e-06
-9.973e-06
-5.81087e-06
-8.72666e-06
-9.43886e-06
-6.46878e-06
-1.15653e-05
-1.40659e-06
-2.20686e-05
-1.12972e-05
-2.43361e-07
3.60268e-06
-8.08641e-07
3.40582e-06
-1.4041e-06
4.1633e-06
-1.9891e-06
5.17266e-06
-2.68216e-06
6.1267e-06
-3.82124e-06
6.7463e-06
-5.24742e-06
7.69486e-06
-6.62932e-06
8.46239e-06
-7.9647e-06
7.86397e-06
-9.19097e-06
7.6488e-06
-1.01994e-05
6.90815e-06
-1.11045e-05
5.83997e-06
-1.17065e-05
3.86796e-06
-1.19372e-05
1.71103e-06
-1.18819e-05
-6.64179e-08
-1.18651e-05
-8.89775e-07
-1.16218e-05
-2.47606e-06
-1.12306e-05
-4.37133e-06
-1.05011e-05
-6.54032e-06
-9.49998e-06
-1.044e-05
-7.11696e-06
-1.39483e-05
-1.16214e-06
-2.80234e-05
-1.24594e-05
-1.28776e-07
3.73119e-06
-6.72869e-07
3.94965e-06
-1.28177e-06
4.77206e-06
-1.83615e-06
5.72703e-06
-2.44884e-06
6.73939e-06
-3.56912e-06
7.86658e-06
-4.94608e-06
9.07183e-06
-6.32471e-06
9.84102e-06
-7.7704e-06
9.30967e-06
-9.1147e-06
8.99309e-06
-1.03557e-05
8.14917e-06
-1.15686e-05
7.05284e-06
-1.23188e-05
4.61815e-06
-1.24497e-05
1.84191e-06
-1.22522e-05
-2.63919e-07
-1.22463e-05
-8.95688e-07
-1.20964e-05
-2.62594e-06
-1.18322e-05
-4.63553e-06
-1.1221e-05
-7.15147e-06
-1.07163e-05
-1.09448e-05
-8.31717e-06
-1.63474e-05
-5.73413e-06
-3.06065e-05
-1.81935e-05
-8.15274e-05
8.13115e-05
-0.000121418
3.96199e-05
-0.000140072
1.84871e-05
-0.000143283
3.06622e-06
-0.000135219
-8.09185e-06
-0.000118306
-1.69067e-05
-0.000105244
-1.31002e-05
-0.000108958
3.67363e-06
-0.000125034
1.59824e-05
-0.000138011
1.28407e-05
-0.000144172
6.07527e-06
-0.000145721
1.46977e-06
-0.000145475
-3.1654e-07
-0.000145241
-3.07957e-07
-0.000144668
-6.41074e-07
-0.000140507
-4.22218e-06
-0.000122848
-1.76861e-05
-8.86711e-05
-3.4127e-05
-8.87529e-05
-6.49217e-05
0.000146118
-9.41451e-05
6.87285e-05
-0.000105549
2.97924e-05
-0.000107529
4.90878e-06
-0.000103322
-1.23279e-05
-8.80703e-05
-3.21584e-05
-7.71514e-05
-2.40642e-05
-8.72402e-05
1.36991e-05
-0.000105201
3.38584e-05
-0.000116364
2.38653e-05
-0.000122136
1.16955e-05
-0.000123132
2.29927e-06
-0.000122278
-1.32174e-06
-0.000121801
-9.02717e-07
-0.000121631
-8.96182e-07
-0.00011897
-6.97384e-06
-0.000104674
-3.20384e-05
-8.47455e-05
-5.40183e-05
-0.0001737
-5.49644e-05
0.000201076
-7.0509e-05
8.41987e-05
-7.93442e-05
3.85e-05
-8.27785e-05
8.22277e-06
-7.49555e-05
-2.02261e-05
-4.65928e-05
-6.05632e-05
-1.77163e-05
-5.29804e-05
-2.36174e-05
1.94003e-05
-4.85646e-05
5.84413e-05
-7.09492e-05
4.59216e-05
-9.48237e-05
3.51955e-05
-0.000113572
2.06202e-05
-0.000123912
8.61758e-06
-0.000125162
-2.09616e-08
-0.000124685
-1.70355e-06
-0.00012569
-6.29833e-06
-0.000118382
-3.96134e-05
-7.59482e-05
-9.64615e-05
-0.000250293
-4.02693e-05
0.000241304
-6.14514e-05
0.000105203
-8.81631e-05
6.49168e-05
-9.46885e-05
1.44478e-05
-6.31381e-05
-5.20127e-05
-2.06215e-05
-0.000103263
7.25415e-06
-8.08823e-05
3.93291e-05
-1.26909e-05
5.57102e-05
4.19904e-05
4.8402e-05
5.30441e-05
3.79333e-05
4.53181e-05
1.48469e-05
4.33523e-05
-2.02531e-05
4.33586e-05
-5.58788e-05
3.52317e-05
-0.000100805
4.28243e-05
-0.000122388
1.48859e-05
-0.000109239
-5.31077e-05
-4.59213e-05
-0.000160011
-0.000296321
-2.31553e-05
0.000264417
-5.4077e-05
0.000135845
-8.78021e-05
9.83711e-05
-7.82786e-05
4.64979e-06
-2.4052e-05
-0.000106511
1.07389e-05
-0.000138219
2.11191e-05
-9.12925e-05
4.30583e-05
-3.46311e-05
6.63745e-05
1.86688e-05
8.32923e-05
3.6086e-05
9.32114e-05
3.52536e-05
0.000100015
3.63004e-05
0.000101011
4.20293e-05
8.47404e-05
5.11613e-05
6.86215e-05
5.8581e-05
3.62413e-05
4.68992e-05
-1.1683e-06
-1.6056e-05
-3.84496e-06
-0.000157653
-0.000300226
2.27161e-06
0.000262074
-3.10865e-05
0.000168876
-3.01462e-05
9.72044e-05
1.90861e-06
-2.76744e-05
1.62722e-05
-0.000121138
2.52818e-05
-0.000147324
3.51193e-05
-0.000101131
5.34731e-05
-5.29858e-05
7.1233e-05
9.08275e-07
8.47821e-05
2.25361e-05
9.26038e-05
2.74289e-05
9.87375e-05
3.0151e-05
0.000103601
3.70854e-05
0.000107062
4.75079e-05
0.000109549
5.58031e-05
0.000102399
5.36757e-05
7.73871e-05
8.58989e-06
3.47377e-05
-0.000115177
-0.000265529
3.84349e-06
0.000258084
-1.8787e-05
0.000191183
8.38798e-06
6.9777e-05
4.54284e-05
-6.49785e-05
3.97557e-05
-0.000115618
3.48659e-05
-0.000142496
4.22346e-05
-0.000108501
5.60405e-05
-6.67928e-05
7.1194e-05
-1.42464e-05
8.39723e-05
9.75691e-06
9.14275e-05
1.99727e-05
9.72495e-05
2.43278e-05
0.000102231
3.21022e-05
0.000106139
4.35974e-05
0.000110067
5.18239e-05
0.000111169
5.24082e-05
9.96414e-05
1.99183e-05
4.44921e-05
-6.01221e-05
-0.000220982
2.53743e-06
0.000255389
-1.67408e-05
0.000210138
2.05551e-06
5.0726e-05
4.34828e-05
-9.71344e-05
4.18358e-05
-0.000114091
3.89062e-05
-0.000139589
4.67481e-05
-0.00011635
5.94126e-05
-7.95224e-05
7.17103e-05
-2.66218e-05
8.12359e-05
1.39849e-07
8.74846e-05
1.36353e-05
9.29478e-05
1.87892e-05
9.77242e-05
2.72786e-05
0.000102596
3.8719e-05
0.00010615
4.82637e-05
0.000104937
5.36144e-05
9.08009e-05
3.40235e-05
3.32997e-05
-2.6575e-06
-0.000187738
2.57305e-07
3.47444e-06
-4.48542e-07
4.65658e-06
-1.36672e-06
5.6925e-06
-2.52078e-06
6.88368e-06
-3.91923e-06
8.138e-06
-6.04124e-06
9.98775e-06
-8.52315e-06
1.15521e-05
-1.15001e-05
1.28163e-05
-1.51608e-05
1.29698e-05
-1.89458e-05
1.27781e-05
-2.25289e-05
1.17322e-05
-2.55009e-05
1.00248e-05
-2.68376e-05
5.95487e-06
-2.67754e-05
1.77969e-06
-2.62638e-05
-7.75531e-07
-2.6733e-05
-4.26481e-07
-2.67459e-05
-2.61306e-06
-2.63456e-05
-5.03577e-06
-2.54229e-05
-8.07419e-06
-2.72489e-05
-9.11879e-06
-2.72646e-05
-1.63317e-05
-3.57216e-05
-2.21495e-05
-2.90043e-05
-2.49109e-05
-5.30898e-06
8.77983e-06
-1.03694e-05
9.71519e-06
-1.89113e-05
1.42351e-05
-2.77453e-05
1.57242e-05
-2.87295e-05
9.14087e-06
-2.46678e-05
5.95554e-06
-2.21379e-05
9.06181e-06
-2.16978e-05
1.24222e-05
-2.25804e-05
1.38961e-05
-2.37778e-05
1.39975e-05
-2.46269e-05
1.25861e-05
-2.48518e-05
1.02495e-05
-2.47901e-05
5.89241e-06
-2.52462e-05
2.23574e-06
-2.6267e-05
2.45223e-07
-2.81226e-05
1.42913e-06
-2.93118e-05
-1.42389e-06
-3.0117e-05
-4.2306e-06
-3.26997e-05
-5.49149e-06
-3.86131e-05
-3.20538e-06
-4.82026e-05
-6.74224e-06
-6.46328e-05
-5.71925e-06
-1.0585e-05
-8.30529e-05
-8.21845e-06
1.69908e-05
-1.56656e-05
1.71549e-05
-2.27326e-05
2.12949e-05
-2.67388e-05
1.97232e-05
-2.91537e-05
1.15492e-05
-3.31415e-05
9.93794e-06
-3.51445e-05
1.1063e-05
-3.66239e-05
1.3907e-05
-4.0776e-05
1.80661e-05
-4.36405e-05
1.69095e-05
-4.39346e-05
1.29466e-05
-4.39216e-05
1.02953e-05
-4.17044e-05
3.71402e-06
-3.53365e-05
-4.11835e-06
-2.76113e-05
-7.48394e-06
-2.21604e-05
-4.0267e-06
-1.99288e-05
-3.65783e-06
-2.23942e-05
-1.76771e-06
-2.58586e-05
-2.02796e-06
-3.15418e-05
2.47787e-06
-3.73781e-05
-9.06147e-07
-4.77523e-05
4.65489e-06
5.87004e-06
-6.42074e-05
-5.18557e-06
2.21689e-05
-1.05372e-05
2.2499e-05
-1.26253e-05
2.33755e-05
-1.30796e-05
2.01701e-05
-2.12447e-05
1.97068e-05
-3.49324e-05
2.3618e-05
-4.68001e-05
2.29233e-05
-5.57154e-05
2.28151e-05
-6.3243e-05
2.55873e-05
-7.0186e-05
2.38489e-05
-7.53462e-05
1.81107e-05
-7.99633e-05
1.49266e-05
-8.07442e-05
4.51056e-06
-7.32064e-05
-1.16495e-05
-6.32307e-05
-1.74584e-05
-5.7056e-05
-1.02099e-05
-4.90659e-05
-1.16468e-05
-3.93258e-05
-1.1498e-05
-3.4348e-05
-7.02166e-06
-3.34487e-05
1.51575e-06
-3.15709e-05
-2.79408e-06
-3.69867e-05
1.00637e-05
2.17078e-05
-5.28244e-05
-6.48007e-06
2.86416e-05
-1.27156e-05
2.87271e-05
-1.86235e-05
2.92761e-05
-2.58965e-05
2.74357e-05
-3.40349e-05
2.78377e-05
-4.14292e-05
3.10048e-05
-5.13501e-05
3.28368e-05
-6.26049e-05
3.40622e-05
-7.24684e-05
3.54432e-05
-8.619e-05
3.75628e-05
-0.000105017
3.69301e-05
-0.000124361
3.42644e-05
-0.000143788
2.39327e-05
-0.000162575
7.1287e-06
-0.000191314
1.12733e-05
-0.000244372
4.28403e-05
-0.000297649
4.16292e-05
-0.00028625
-2.28965e-05
-0.000229744
-6.34452e-05
-0.000166973
-6.11129e-05
-0.00011243
-5.7105e-05
-7.15994e-05
-3.0618e-05
1.52654e-05
-6.50893e-05
-5.45002e-06
3.40843e-05
-1.09657e-05
3.42355e-05
-1.67387e-05
3.50418e-05
-2.40343e-05
3.47239e-05
-3.25113e-05
3.63074e-05
-4.13438e-05
3.98299e-05
-5.11115e-05
4.25971e-05
-6.28562e-05
4.57995e-05
-7.71281e-05
4.97075e-05
-9.61272e-05
5.65544e-05
-0.000123116
6.39115e-05
-0.000157647
6.87882e-05
-0.000204078
7.03561e-05
-0.000269782
7.28263e-05
-0.000356184
9.76716e-05
-0.0004459
0.000132551
-0.000493001
8.87323e-05
-0.000457543
-5.83479e-05
-0.00040114
-0.000119669
-0.000339656
-0.000122047
-0.00028444
-0.000112121
-0.000223764
-9.15136e-05
-3.47432e-05
-0.000173701
-5.77508e-06
3.98521e-05
-1.16249e-05
4.00781e-05
-1.74801e-05
4.08897e-05
-2.41592e-05
4.13957e-05
-3.13685e-05
4.35094e-05
-3.82984e-05
4.67524e-05
-4.57201e-05
5.00113e-05
-5.42706e-05
5.43425e-05
-6.42669e-05
5.96961e-05
-7.64161e-05
6.86959e-05
-9.23932e-05
7.98809e-05
-0.000117047
9.34342e-05
-0.000155025
0.000108327
-0.000217068
0.000134863
-0.000284895
0.000165492
-0.000337728
0.000185376
-0.000366267
0.000117259
-0.000374372
-5.01885e-05
-0.000374437
-0.000119175
-0.000368858
-0.000127619
-0.000362599
-0.000118686
-0.000345376
-0.000108486
-8.09818e-05
-0.000298924
-5.11878e-06
4.49637e-05
-1.03969e-05
4.5349e-05
-1.59029e-05
4.63884e-05
-2.20334e-05
4.7519e-05
-2.84e-05
4.98688e-05
-3.49783e-05
5.33235e-05
-4.20514e-05
5.70771e-05
-4.9949e-05
6.22327e-05
-5.85906e-05
6.83305e-05
-6.7505e-05
7.76029e-05
-7.67507e-05
8.91193e-05
-8.86698e-05
0.000105346
-0.000104857
0.000124507
-0.00012846
0.000158458
-0.000153526
0.000190554
-0.000174348
0.000206192
-0.000224508
0.00016741
-0.000295333
2.06211e-05
-0.000315128
-9.9392e-05
-0.000314995
-0.000127609
-0.000319547
-0.000113398
-0.000323905
-0.00010393
-9.22203e-05
-0.000313036
-4.84384e-06
4.98005e-05
-9.69334e-06
5.01914e-05
-1.45042e-05
5.11922e-05
-1.95988e-05
5.26064e-05
-2.48293e-05
5.50923e-05
-2.99908e-05
5.84778e-05
-3.5271e-05
6.23501e-05
-4.09113e-05
6.78658e-05
-4.68396e-05
7.42513e-05
-5.28484e-05
8.36044e-05
-5.80083e-05
9.42717e-05
-6.24522e-05
0.000109782
-6.55953e-05
0.000127642
-6.39706e-05
0.000156826
-6.17367e-05
0.000188313
-6.15277e-05
0.000205977
-8.246e-05
0.000188335
-0.000150111
8.82618e-05
-0.000227572
-2.19398e-05
-0.000271739
-8.34506e-05
-0.00028234
-0.000102493
-0.000276089
-0.000108832
-9.57293e-05
-0.000272643
-4.19367e-06
5.39872e-05
-8.44329e-06
5.44341e-05
-1.27689e-05
5.55109e-05
-1.72278e-05
5.70583e-05
-2.16157e-05
5.94731e-05
-2.5919e-05
6.27739e-05
-3.01422e-05
6.65662e-05
-3.43141e-05
7.20306e-05
-3.81882e-05
7.81182e-05
-4.1541e-05
8.695e-05
-4.35145e-05
9.6238e-05
-4.29518e-05
0.000109213
-3.85676e-05
0.000123251
-2.47453e-05
0.000142997
-9.14791e-07
0.000164476
2.66793e-05
0.000178376
4.02783e-05
0.000174729
-2.11848e-07
0.000128741
-9.20405e-05
6.9878e-05
-0.000190071
1.45695e-05
-0.000242796
-4.97787e-05
-0.000262385
-8.91964e-05
-9.97291e-05
-0.000256865
-3.66264e-06
5.76429e-05
-7.32703e-06
5.80916e-05
-1.101e-05
5.9187e-05
-1.46679e-05
6.07092e-05
-1.81393e-05
6.29376e-05
-2.13767e-05
6.60044e-05
-2.4294e-05
6.94764e-05
-2.68596e-05
7.45892e-05
-2.87548e-05
8.00063e-05
-2.97619e-05
8.795e-05
-2.95663e-05
9.60351e-05
-2.70565e-05
0.000106695
-2.14181e-05
0.000117605
-9.5627e-06
0.000131134
1.01724e-05
0.000144733
3.46246e-05
0.000153915
5.57027e-05
0.000153644
5.33771e-05
0.000131058
1.90955e-05
0.000104151
-5.59914e-05
8.96469e-05
-0.000157886
5.21051e-05
-0.000226482
-2.06109e-05
-7.85224e-05
-0.000247699
-3.19562e-06
6.08318e-05
-6.38201e-06
6.12712e-05
-9.45798e-06
6.22562e-05
-1.24002e-05
6.36446e-05
-1.50889e-05
6.56195e-05
-1.75209e-05
6.84295e-05
-1.95078e-05
7.14564e-05
-2.09922e-05
7.60667e-05
-2.16309e-05
8.0638e-05
-2.10275e-05
8.73395e-05
-1.88946e-05
9.38951e-05
-1.4439e-05
0.000102233
-6.98904e-06
0.000110148
4.81088e-06
0.000119327
2.22705e-05
0.000127266
4.32272e-05
0.000132951
6.32275e-05
0.000133635
6.80739e-05
0.000126203
5.77437e-05
0.000114471
3.33497e-05
0.000114032
-3.04013e-05
0.000115847
-0.00012366
7.26367e-05
1.70689e-05
-0.00021926
-2.65266e-06
6.34778e-05
-5.25107e-06
6.3863e-05
-7.74963e-06
6.47481e-05
-1.01098e-05
6.59981e-05
-1.21713e-05
6.76743e-05
-1.39079e-05
7.01594e-05
-1.50914e-05
7.26331e-05
-1.56345e-05
7.6603e-05
-1.5257e-05
8.02535e-05
-1.36336e-05
8.57092e-05
-1.05346e-05
9.0789e-05
-5.66814e-06
9.73593e-05
1.34045e-06
0.000103132
1.09813e-05
0.000109679
2.38657e-05
0.000114374
3.91473e-05
0.000117662
5.54973e-05
0.000117277
6.68245e-05
0.000114867
7.14356e-05
0.000109851
7.44687e-05
0.00011099
7.08679e-05
0.000119439
2.9537e-05
0.000113958
9.29178e-05
-4.63228e-05
-2.2585e-06
6.57298e-05
-4.42766e-06
6.60256e-05
-6.42024e-06
6.67341e-05
-8.21713e-06
6.77884e-05
-9.66567e-06
6.91162e-05
-1.07616e-05
7.12487e-05
-1.1271e-05
7.31359e-05
-1.10969e-05
7.64221e-05
-1.00143e-05
7.91641e-05
-7.70348e-06
8.33916e-05
-3.93447e-06
8.70131e-05
1.55415e-06
9.18637e-05
9.04901e-06
9.563e-05
1.8525e-05
0.000100196
3.01485e-05
0.000102743
4.2893e-05
0.00010491
5.61209e-05
0.000104041
6.81661e-05
0.000102814
7.81847e-05
9.98242e-05
8.99857e-05
9.91799e-05
0.00010679
0.000102625
0.00012203
9.87099e-05
8.30986e-05
0.00013184
-1.82973e-06
6.75531e-05
-3.59991e-06
6.77894e-05
-5.2422e-06
6.837e-05
-6.70563e-06
6.92455e-05
-7.82325e-06
7.02274e-05
-8.55298e-06
7.1972e-05
-8.67663e-06
7.3253e-05
-8.12321e-06
7.58621e-05
-6.66838e-06
7.77026e-05
-4.16462e-06
8.08811e-05
-3.9156e-07
8.32332e-05
4.74984e-06
8.67154e-05
1.14962e-05
8.88766e-05
1.98213e-05
9.18636e-05
2.96685e-05
9.28885e-05
4.06409e-05
9.39304e-05
5.20435e-05
9.26308e-05
6.34922e-05
9.13576e-05
7.45406e-05
8.87675e-05
8.67845e-05
8.69276e-05
0.000103554
8.58472e-05
0.000118349
8.39057e-05
7.36968e-05
0.000127742
-1.56126e-06
6.91082e-05
-3.04043e-06
6.92623e-05
-4.35721e-06
6.96805e-05
-5.44858e-06
7.03306e-05
-6.1655e-06
7.0938e-05
-6.47038e-06
7.22705e-05
-6.17098e-06
7.29472e-05
-5.22258e-06
7.49073e-05
-3.39524e-06
7.58688e-05
-6.73548e-07
7.81529e-05
3.23055e-06
7.93224e-05
8.34727e-06
8.1592e-05
1.48286e-05
8.23885e-05
2.27359e-05
8.39493e-05
3.17738e-05
8.38435e-05
4.17978e-05
8.38992e-05
5.21781e-05
8.22429e-05
6.2992e-05
8.05361e-05
7.39487e-05
7.78028e-05
8.55785e-05
7.52897e-05
9.95243e-05
7.1893e-05
0.000114624
6.87977e-05
6.28348e-05
0.000125477
-1.32226e-06
7.04244e-05
-2.56863e-06
7.05026e-05
-3.67968e-06
7.07855e-05
-4.59982e-06
7.12446e-05
-5.19545e-06
7.15275e-05
-5.40666e-06
7.24756e-05
-5.05553e-06
7.25898e-05
-4.13289e-06
7.39784e-05
-2.36127e-06
7.40908e-05
2.35333e-07
7.55498e-05
3.93855e-06
7.56127e-05
8.75629e-06
7.67677e-05
1.4684e-05
7.6454e-05
2.18551e-05
7.67714e-05
2.99631e-05
7.57284e-05
3.91098e-05
7.47455e-05
4.87949e-05
7.25504e-05
5.89828e-05
7.03408e-05
6.95507e-05
6.72272e-05
8.03857e-05
6.44468e-05
9.18346e-05
6.0436e-05
0.00010406
5.65643e-05
5.22724e-05
0.000114614
-1.21164e-06
7.16301e-05
-2.34054e-06
7.16256e-05
-3.33187e-06
7.17709e-05
-4.09707e-06
7.20039e-05
-4.53613e-06
7.19606e-05
-4.55314e-06
7.24866e-05
-4.08493e-06
7.21156e-05
-3.02372e-06
7.29111e-05
-1.17463e-06
7.22355e-05
1.4398e-06
7.29292e-05
5.04984e-06
7.19964e-05
9.67541e-06
7.21357e-05
1.52975e-05
7.08254e-05
2.20009e-05
7.00614e-05
2.95741e-05
6.81484e-05
3.80843e-05
6.62284e-05
4.72081e-05
6.34195e-05
5.69329e-05
6.06088e-05
6.71725e-05
5.69802e-05
7.77513e-05
5.38604e-05
8.81499e-05
5.00296e-05
9.89335e-05
4.57728e-05
4.32726e-05
0.000107925
-1.17501e-06
7.27994e-05
-2.26593e-06
7.27108e-05
-3.22435e-06
7.27236e-05
-3.96383e-06
7.27376e-05
-4.41509e-06
7.24061e-05
-4.46706e-06
7.25327e-05
-4.07648e-06
7.17191e-05
-3.09244e-06
7.19211e-05
-1.42759e-06
7.05647e-05
9.46966e-07
7.05486e-05
4.19928e-06
6.87379e-05
8.38877e-06
6.794e-05
1.35474e-05
6.56604e-05
1.97153e-05
6.3887e-05
2.67984e-05
6.10588e-05
3.48082e-05
5.82119e-05
4.3564e-05
5.46567e-05
5.30006e-05
5.11653e-05
6.30043e-05
4.69694e-05
7.35262e-05
4.33312e-05
8.4018e-05
3.95303e-05
9.49626e-05
3.48206e-05
3.28937e-05
0.000105334
-1.29708e-06
7.4091e-05
-2.52603e-06
7.39342e-05
-3.61762e-06
7.38097e-05
-4.48978e-06
7.36042e-05
-5.08516e-06
7.29959e-05
-5.2579e-06
7.26998e-05
-4.99991e-06
7.14555e-05
-4.11657e-06
7.1032e-05
-2.59588e-06
6.90382e-05
-2.296e-07
6.81764e-05
2.94305e-06
6.55593e-05
6.97624e-06
6.39007e-05
1.19272e-05
6.07034e-05
1.77372e-05
5.80707e-05
2.44992e-05
5.42904e-05
3.21121e-05
5.05925e-05
4.05504e-05
4.62118e-05
4.97392e-05
4.19697e-05
5.95338e-05
3.71679e-05
7.00018e-05
3.28561e-05
8.05521e-05
2.89728e-05
9.13885e-05
2.39769e-05
2.2115e-05
0.00010216
-1.4784e-06
7.5564e-05
-2.91609e-06
7.53666e-05
-4.16851e-06
7.50567e-05
-5.19971e-06
7.463e-05
-5.9325e-06
7.37233e-05
-6.23333e-06
7.29952e-05
-6.13995e-06
7.13566e-05
-5.41907e-06
7.03056e-05
-4.15782e-06
6.77714e-05
-2.126e-06
6.61389e-05
5.95615e-07
6.2832e-05
4.12878e-06
6.03617e-05
8.58351e-06
5.62427e-05
1.39064e-05
5.27418e-05
2.03035e-05
4.78872e-05
2.76075e-05
4.32823e-05
3.58791e-05
3.79339e-05
4.50572e-05
3.27851e-05
5.49983e-05
2.72201e-05
6.58158e-05
2.20319e-05
7.71014e-05
1.76803e-05
8.88836e-05
1.21877e-05
9.8453e-06
0.000101146
-1.84514e-06
7.7404e-05
-3.66857e-06
7.71849e-05
-5.27819e-06
7.66612e-05
-6.68081e-06
7.60274e-05
-7.81184e-06
7.48491e-05
-8.52504e-06
7.37032e-05
-8.8538e-06
7.16801e-05
-8.53981e-06
6.99863e-05
-7.7026e-06
6.69287e-05
-6.06389e-06
6.44947e-05
-3.64497e-06
6.04075e-05
-3.00328e-07
5.70115e-05
4.0071e-06
5.19296e-05
9.18712e-06
4.7556e-05
1.54639e-05
4.16045e-05
2.26274e-05
3.61128e-05
3.08623e-05
2.96929e-05
4.01137e-05
2.35275e-05
5.02552e-05
1.70722e-05
6.14286e-05
1.0852e-05
7.33059e-05
5.79649e-06
8.58726e-05
-3.85834e-07
-3.347e-06
9.90581e-05
-2.3424e-06
7.97415e-05
-4.67002e-06
7.95075e-05
-6.78102e-06
7.87672e-05
-8.67994e-06
7.79214e-05
-1.02767e-05
7.64408e-05
-1.14292e-05
7.48507e-05
-1.21787e-05
7.24245e-05
-1.22939e-05
7.00963e-05
-1.19096e-05
6.65393e-05
-1.07581e-05
6.3338e-05
-8.88972e-06
5.85338e-05
-6.1487e-06
5.42651e-05
-2.498e-06
4.82734e-05
2.12725e-06
4.29252e-05
7.94647e-06
3.57796e-05
1.4762e-05
2.92914e-05
2.28634e-05
2.15857e-05
3.21676e-05
1.42174e-05
4.26243e-05
6.60933e-06
5.44354e-05
-9.65377e-07
6.73591e-05
-7.13349e-06
8.13783e-05
-1.44114e-05
-1.83189e-05
9.63437e-05
-2.98257e-06
8.27193e-05
-5.93835e-06
8.24586e-05
-8.69921e-06
8.15234e-05
-1.12592e-05
8.04767e-05
-1.35263e-05
7.87031e-05
-1.54046e-05
7.67242e-05
-1.69121e-05
7.39271e-05
-1.78342e-05
7.10135e-05
-1.8227e-05
6.69271e-05
-1.78226e-05
6.29286e-05
-1.6652e-05
5.73581e-05
-1.44968e-05
5.21047e-05
-1.13585e-05
4.51299e-05
-7.08497e-06
3.86463e-05
-1.59901e-06
3.02883e-05
5.0421e-06
2.26448e-05
1.31825e-05
1.34397e-05
2.26027e-05
4.79141e-06
3.33943e-05
-4.18807e-06
4.57506e-05
-1.33275e-05
5.94838e-05
-2.08727e-05
7.46392e-05
-2.9573e-05
-3.47483e-05
9.10625e-05
-3.73624e-06
8.64511e-05
-7.42774e-06
8.61456e-05
-1.09788e-05
8.50699e-05
-1.43435e-05
8.38367e-05
-1.74397e-05
8.17947e-05
-2.0172e-05
7.9452e-05
-2.25046e-05
7.62551e-05
-2.42528e-05
7.27571e-05
-2.54522e-05
6.81217e-05
-2.58951e-05
6.33668e-05
-2.56614e-05
5.71195e-05
-2.45476e-05
5.0986e-05
-2.25393e-05
4.31166e-05
-1.93778e-05
3.54797e-05
-1.50455e-05
2.59509e-05
-9.31295e-06
1.6907e-05
-1.94793e-06
6.0693e-06
7.0269e-06
-4.18886e-06
1.79878e-05
-1.51545e-05
3.08363e-05
-2.61818e-05
4.53945e-05
-3.54367e-05
6.19093e-05
-4.60938e-05
-5.30538e-05
8.02088e-05
-4.54056e-06
9.09874e-05
-9.02158e-06
9.06224e-05
-1.3411e-05
8.94551e-05
-1.76303e-05
8.80518e-05
-2.16266e-05
8.57867e-05
-2.53141e-05
8.31352e-05
-2.86429e-05
7.95795e-05
-3.14785e-05
7.55882e-05
-3.38244e-05
7.04632e-05
-3.54713e-05
6.50092e-05
-3.63872e-05
5.80308e-05
-3.62689e-05
5.0863e-05
-3.50901e-05
4.19332e-05
-3.25912e-05
3.2976e-05
-2.88877e-05
2.22424e-05
-2.36705e-05
1.16848e-05
-1.69416e-05
-6.64611e-07
-8.46686e-06
-1.26688e-05
2.2223e-06
-2.58489e-05
1.48232e-05
-3.87881e-05
2.96488e-05
-5.02678e-05
4.69819e-05
-6.34326e-05
-7.26468e-05
6.6569e-05
-5.41431e-06
9.63977e-05
-1.07799e-05
9.59839e-05
-1.60997e-05
9.47708e-05
-2.12792e-05
9.32272e-05
-2.62813e-05
9.07848e-05
-3.10171e-05
8.78669e-05
-3.54217e-05
8.398e-05
-3.93704e-05
7.95328e-05
-4.28111e-05
7.38997e-05
-4.55583e-05
6.77521e-05
-4.76126e-05
6.00808e-05
-4.87792e-05
5.20252e-05
-4.90968e-05
4.22463e-05
-4.82656e-05
3.21403e-05
-4.62063e-05
2.01786e-05
-4.23061e-05
7.77992e-06
-3.66298e-05
-6.34574e-06
-2.87839e-05
-2.05195e-05
-1.88318e-05
-3.58061e-05
-6.84483e-06
-5.07803e-05
7.98508e-06
-6.51029e-05
2.56622e-05
-8.11149e-05
-9.29735e-05
4.59837e-05
-6.23013e-06
0.000102624
-1.24218e-05
0.000102172
-1.85893e-05
0.000100935
-2.4644e-05
9.92781e-05
-3.05675e-05
9.67045e-05
-3.62856e-05
9.35812e-05
-4.1742e-05
8.94326e-05
-4.68347e-05
8.46216e-05
-5.15087e-05
7.85698e-05
-5.56034e-05
7.18428e-05
-5.90831e-05
6.35565e-05
-6.16917e-05
5.46297e-05
-6.32888e-05
4.38392e-05
-6.34685e-05
3.23157e-05
-6.23034e-05
1.90091e-05
-5.95486e-05
5.02085e-06
-5.52208e-05
-1.06781e-05
-4.90874e-05
-2.66575e-05
-4.16325e-05
-4.32655e-05
-3.20314e-05
-6.03858e-05
-1.88077e-05
-7.83312e-05
-2.65763e-06
-9.72695e-05
-0.000112512
1.68757e-05
-7.16619e-06
0.000109787
-1.43085e-05
0.000109311
-2.14455e-05
0.000108068
-2.85041e-05
0.000106333
-3.54684e-05
0.000103665
-4.22721e-05
0.000100381
-4.88547e-05
9.60117e-05
-5.51247e-05
9.08879e-05
-6.09971e-05
8.44385e-05
-6.6318e-05
7.716e-05
-7.10253e-05
6.826e-05
-7.49492e-05
5.85498e-05
-7.81179e-05
4.7004e-05
-8.03999e-05
3.45939e-05
-8.16699e-05
2.02751e-05
-8.16272e-05
4.97398e-06
-8.08807e-05
-1.14286e-05
-7.93787e-05
-2.81635e-05
-7.54522e-05
-4.71959e-05
-6.67507e-05
-6.90914e-05
-5.35612e-05
-9.15253e-05
-3.7521e-05
-0.000113315
-0.000132063
-1.79749e-05
-7.85243e-06
0.000117636
-1.5711e-05
0.000117166
-2.36027e-05
0.000115957
-3.14771e-05
0.000114204
-3.93205e-05
0.000111505
-4.70835e-05
0.000108141
-5.4707e-05
0.000103632
-6.21195e-05
9.82972e-05
-6.92538e-05
9.15694e-05
-7.60094e-05
8.39121e-05
-8.23693e-05
7.46165e-05
-8.81697e-05
6.43467e-05
-9.33211e-05
5.21519e-05
-9.7551e-05
3.88201e-05
-0.00010122
2.394e-05
-0.000105007
8.75821e-06
-0.000109506
-6.93392e-06
-0.000111287
-2.63853e-05
-0.000106115
-5.23731e-05
-9.52869e-05
-7.99237e-05
-8.12291e-05
-0.000105588
-6.48111e-05
-0.000129737
-0.000151396
-4.54822e-05
-8.87801e-06
0.000126511
-1.77459e-05
0.000126031
-2.66271e-05
0.000124835
-3.55026e-05
0.000123077
-4.4374e-05
0.000120374
-5.32187e-05
0.000116983
-6.1998e-05
0.000112408
-7.06638e-05
0.00010696
-7.91657e-05
0.000100068
-8.7414e-05
9.21573e-05
-9.53667e-05
8.2566e-05
-0.00010298
7.19568e-05
-0.000110538
5.97069e-05
-0.000118767
4.70461e-05
-0.00012808
3.3249e-05
-0.000137559
1.82343e-05
-0.000142739
-1.75672e-06
-0.000138464
-3.06649e-05
-0.000128535
-6.23054e-05
-0.000116971
-9.14917e-05
-0.000103555
-0.000119007
-8.80932e-05
-0.000145203
-0.000169846
-6.96476e-05
-9.25725e-06
0.000135766
-1.85795e-05
0.000135351
-2.80208e-05
0.000134274
-3.75918e-05
0.000132645
-4.72931e-05
0.000130073
-5.71106e-05
0.000126798
-6.7008e-05
0.000122303
-7.69596e-05
0.000116909
-8.69331e-05
0.000110039
-9.69155e-05
0.000102137
-0.000106969
9.26173e-05
-0.000117228
8.22123e-05
-0.000128051
7.05275e-05
-0.00013997
5.89622e-05
-0.000153336
4.6613e-05
-0.00016338
2.82753e-05
-0.000162036
-3.10507e-06
-0.0001535
-3.92044e-05
-0.000144551
-7.12576e-05
-0.000134294
-0.000101752
-0.000121767
-0.000131538
-0.000106311
-0.000160663
-0.000188711
-8.74504e-05
-1.03713e-05
0.000146135
-2.08079e-05
0.000145785
-3.13439e-05
0.000144807
-4.19742e-05
0.000143273
-5.27312e-05
0.000140827
-6.36714e-05
0.000137735
-7.48011e-05
0.00013343
-8.61229e-05
0.000128228
-9.77091e-05
0.000121623
-0.000109663
0.000114089
-0.000122351
0.000105302
-0.000136204
9.6063e-05
-0.000152061
8.63817e-05
-0.000168641
7.55409e-05
-0.000180765
5.87345e-05
-0.000180889
2.83962e-05
-0.000173286
-1.07123e-05
-0.000166451
-4.60418e-05
-0.000158569
-7.91426e-05
-0.000147976
-0.000112348
-0.000134824
-0.000144694
-0.000118756
-0.000176735
-0.000207806
-9.96645e-05
-1.04594e-05
0.000156592
-2.10039e-05
0.000156327
-3.17283e-05
0.00015553
-4.27299e-05
0.000154273
-5.40763e-05
0.000152172
-6.58254e-05
0.000149482
-7.80298e-05
0.000145633
-9.07173e-05
0.000140914
-0.000103916
0.000134819
-0.00011774
0.000127911
-0.000132547
0.000120108
-0.000148807
0.000112321
-0.00016677
0.000104343
-0.000184069
9.28388e-05
-0.000191798
6.64602e-05
-0.000187404
2.39993e-05
-0.000181614
-1.65052e-05
-0.000175318
-5.23396e-05
-0.000166
-8.84641e-05
-0.000154592
-0.000123759
-0.000140768
-0.00015852
-0.000124841
-0.000192665
-0.00022623
-0.000106422
-1.13781e-05
0.000167968
-2.28879e-05
0.000167835
-3.46682e-05
0.000167308
-4.68835e-05
0.000166486
-5.96179e-05
0.000164904
-7.28879e-05
0.000162751
-8.67121e-05
0.000159455
-0.000101215
0.000155415
-0.000116631
0.000150233
-0.000133183
0.000144461
-0.000151215
0.000138138
-0.00017053
0.000131635
-0.000189201
0.000123013
-0.000199997
0.000103633
-0.000198188
6.46484e-05
-0.000192793
1.86011e-05
-0.000187519
-2.17809e-05
-0.000179339
-6.05219e-05
-0.000169282
-9.85236e-05
-0.000157667
-0.000135377
-0.000144327
-0.000171863
-0.000129381
-0.000207615
-0.000242935
-0.000112679
-1.15168e-05
0.000179484
-2.31569e-05
0.000179474
-3.50351e-05
0.000179185
-4.72688e-05
0.000178719
-5.99808e-05
0.000177615
-7.33043e-05
0.000176073
-8.73857e-05
0.000173535
-0.000102446
0.000170475
-0.000118774
0.000166559
-0.000136736
0.000162421
-0.000156682
0.000158083
-0.000177741
0.000152694
-0.000196237
0.000141507
-0.000203445
0.000110839
-0.00019954
6.07412e-05
-0.000194228
1.32871e-05
-0.000187624
-2.83863e-05
-0.000178449
-6.9699e-05
-0.00016825
-0.000108725
-0.00015668
-0.000146949
-0.000144047
-0.000184498
-0.000130213
-0.000221452
-0.000257821
-0.00011533
-1.16872e-05
0.00019117
-2.35908e-05
0.000191376
-3.5939e-05
0.000191532
-4.89382e-05
0.000191716
-6.27639e-05
0.00019144
-7.758e-05
0.000190888
-9.35314e-05
0.000189485
-0.000110672
0.000187614
-0.000128873
0.000184759
-0.000148481
0.000182028
-0.000169488
0.000179089
-0.000190235
0.000173442
-0.000204203
0.000155473
-0.000204726
0.000111359
-0.000199802
5.58156e-05
-0.00019406
7.54361e-06
-0.000185724
-3.6724e-05