/*--------------------------------*- C++ -*----------------------------------*\
| =========                 |                                                 |
| \\      /  F ield         | OpenFOAM: The Open Source CFD Toolbox           |
|  \\    /   O peration     | Version:  2012                                  |
|   \\  /    A nd           | Website:  www.openfoam.com                      |
|    \\/     M anipulation  |                                                 |
\*---------------------------------------------------------------------------*/
FoamFile
{
    version     2.0;
    format      ascii;
    class       volScalarField;
    location    "0.7";
    object      rho;
}
// * * * * * * * * * * * * * * * * * * * * * * * * * * * * * * * * * * * * * //

dimensions      [1 -3 0 0 0 0 0];


internalField   nonuniform List<scalar> 
2268
(
1000.05
1000.05
1000.05
1000.05
1000.05
1000.05
1000.05
1000.05
1000.05
1000.05
1000.05
1000.05
1000.05
1000.05
1000.05
1000.05
1000.05
1000.05
1000.05
1000.05
1000.05
1000.05
999.837
1000.05
1000.05
1000.05
1000.05
1000.05
1000.05
1000.05
1000.05
1000.05
1000.05
1000.05
1000.05
1000.05
1000.05
1000.05
1000.05
1000.05
1000.05
1000.05
1000.05
1000.05
1000.02
999.766
1000.05
1000.05
1000.05
1000.05
1000.05
1000.05
1000.05
1000.05
1000.05
1000.05
1000.05
1000.05
1000.05
1000.05
1000.05
1000.05
1000.05
1000.05
1000.05
1000.05
1000.05
1000.03
999.766
1000.05
1000.05
1000.05
1000.05
1000.05
1000.05
1000.05
1000.05
1000.05
1000.05
1000.05
1000.05
1000.05
1000.05
1000.05
1000.05
1000.05
1000.05
1000.05
1000.05
1000.05
1000.03
999.77
1000.05
1000.05
1000.05
1000.05
1000.05
1000.05
1000.05
1000.05
1000.05
1000.05
1000.05
1000.05
1000.05
1000.05
1000.05
1000.05
1000.05
1000.05
1000.05
1000.05
1000.05
1000.05
1000.02
1000.05
1000.05
1000.05
1000.05
1000.05
1000.05
1000.05
1000.05
1000.05
1000.05
1000.05
1000.05
1000.05
1000.05
1000.05
1000.05
1000.05
1000.05
1000.05
1000.05
1000.05
1000.05
1000.05
1000.05
1000.05
1000.05
1000.05
1000.05
1000.05
1000.05
1000.05
1000.05
1000.05
1000.05
1000.05
1000.05
1000.05
1000.05
1000.05
1000.05
1000.05
1000.05
1000.05
1000.05
1000.05
1000.05
961.449
965.494
982.619
999.216
1000.05
1000.05
1000.05
1000.05
1000.05
1000.05
1000.05
1000.05
1000.05
1000.05
1000.05
1000.05
1000.05
1000.05
1000.05
1000.05
1000.05
1000.05
1000.05
709.259
647.155
647.155
648.759
877.076
909.875
909.876
909.876
868.496
759.301
835.982
835.977
835.736
835.257
834.972
834.972
834.972
834.96
834.962
812.725
812.143
778.49
648.764
868.521
909.875
902.974
870.083
864.4
758.949
686.258
647.898
655.178
739.575
789.932
800.618
792.794
764.245
616.48
812.728
812.735
697.295
656.665
731.807
829.902
900.95
490.784
259.21
259.208
239.507
71.1577
59.5402
133.343
232.08
261.983
239.28
265.127
291.568
812.723
496.869
172.856
100.094
138.079
550.256
945.362
948.956
599.236
349.901
74.2581
1.88519
1.88487
2.20126
4.45648
3.45187
1.88463
87.8947
767.261
812.714
37.1005
1.84036
1.48061
3.22228
558.985
933.484
997.43
981.872
859.647
660.925
406.057
126.562
1.88501
1.88484
1.88476
1.88475
64.5935
800.309
684.319
17.7157
1.29823
1.29759
2.27145
806.404
997.43
997.43
997.43
997.308
992.828
965.9
842.181
571.94
244.212
18.2763
1.88485
281.47
799.864
626.833
28.7033
1.29818
1.29773
205.279
869.557
997.43
997.264
996.12
997.384
997.388
997.384
997.388
992.911
905.381
710.135
531.429
755.967
800.309
677.495
44.111
1.29807
1.29771
641.654
948.038
986.677
866.821
800.787
729.762
759.909
813.759
891.787
986.251
986.249
986.26
957.326
931.336
737.166
410.614
432.3
475.077
542.899
636.823
721.522
814.848
903.705
973.847
1000.05
1000.05
1000.05
1000.05
1000.05
1000.05
1000.05
1000.05
1000.05
1000.05
1000.05
1000.05
1000.05
999.965
1.76081
2.26201
3.36484
7.93918
24.8231
63.824
125.603
224.552
366.557
565.48
730.135
848.836
941.79
998.495
1000.05
1000.05
999.985
999.975
1000.05
1000.05
1000.05
1000.05
997.586
1.29333
1.29334
1.29339
1.29403
1.29777
1.32062
1.63208
3.70927
12.1723
39.3914
113.644
224.7
347.362
514.865
668.864
775.235
843.107
944.677
981.112
1000.05
998.656
1000.05
1000.02
1.29328
1.29328
1.29329
1.29328
1.29328
1.29336
1.2947
1.30941
1.42951
2.15916
5.20057
13.6485
29.2537
50.0284
84.073
117.884
136.873
206.652
350.111
554.879
713.182
960.042
1000.05
1.29326
1.29326
1.29326
1.29326
1.29326
1.29327
1.29329
1.29331
1.29348
1.2946
1.29906
1.30334
1.30133
1.29335
1.29335
1.29336
1.29336
1.29335
6.4325
47.6595
147.097
332.008
563.666
1.29326
1.29326
1.29326
1.29326
1.29326
1.29326
1.29326
1.29327
1.29328
1.29335
1.29386
1.2945
1.29392
1.29332
1.29332
1.29327
1.29318
1.32771
5.45518
55.6077
172.35
227.561
186.026
1.29325
1.29325
1.29325
1.29325
1.29325
1.29325
1.29326
1.29326
1.29326
1.29328
1.29415
1.2952
1.29367
1.29329
1.29327
1.2932
1.29313
1.3334
26.8212
133.024
171.168
104.994
105.461
1.29325
1.29325
1.29325
1.29325
1.29325
1.29325
1.29325
1.29325
1.29325
1.29335
1.29491
1.29521
1.29433
1.29327
1.29327
1.29321
1.2945
1.35568
1.35322
1.29525
74.0222
295.253
322.809
1.29325
1.29325
1.29325
1.29325
1.29325
1.29325
1.29325
1.29325
1.29325
1.2933
1.29405
1.29469
1.2938
1.29326
1.29326
1.29329
1.29341
1.29508
1.2935
1.29529
1.78381
143.8
615.373
1.29325
1.29325
1.29325
1.29325
1.29325
1.29325
1.29325
1.29325
1.29325
1.29326
1.29327
1.2933
1.29327
1.29325
1.29325
1.29328
1.29352
1.29359
1.29357
1.2939
1.29389
1.29387
28.6508
1.29324
1.29324
1.29324
1.29324
1.29324
1.29324
1.29324
1.29325
1.29325
1.29325
1.29324
1.29324
1.29324
1.29325
1.29325
1.29326
1.29339
1.29353
1.29357
1.29356
1.29655
1.29877
1.29432
1.29324
1.29324
1.29324
1.29324
1.29324
1.29324
1.29324
1.29324
1.29324
1.29324
1.29324
1.29324
1.29324
1.29324
1.29324
1.29325
1.29325
1.29331
1.29334
1.29332
1.29465
1.30064
1.29898
1.29324
1.29324
1.29324
1.29324
1.29324
1.29324
1.29324
1.29324
1.29324
1.29324
1.29324
1.29324
1.29324
1.29324
1.29324
1.29324
1.29324
1.29324
1.29324
1.29324
1.29323
1.29529
1.30185
1.29324
1.29324
1.29324
1.29324
1.29324
1.29324
1.29324
1.29324
1.29324
1.29324
1.29324
1.29324
1.29324
1.29323
1.29323
1.29323
1.29323
1.29323
1.29323
1.29323
1.29323
1.29322
1.29465
1.29323
1.29323
1.29323
1.29323
1.29323
1.29323
1.29323
1.29323
1.29323
1.29323
1.29323
1.29323
1.29323
1.29323
1.29323
1.29323
1.29323
1.29323
1.29323
1.29323
1.29323
1.29323
1.29325
1.29323
1.29323
1.29323
1.29323
1.29323
1.29323
1.29323
1.29323
1.29323
1.29323
1.29323
1.29323
1.29323
1.29323
1.29323
1.29323
1.29323
1.29323
1.29323
1.29323
1.29323
1.29323
1.29323
1.29323
1.29323
1.29323
1.29323
1.29323
1.29323
1.29323
1.29323
1.29323
1.29323
1.29323
1.29323
1.29323
1.29323
1.29323
1.29323
1.29323
1.29323
1.29323
1.29323
1.29323
1.29323
1.29323
1.29322
1.29322
1.29322
1.29322
1.29322
1.29322
1.29322
1.29322
1.29322
1.29322
1.29322
1.29322
1.29322
1.29322
1.29322
1.29322
1.29322
1.29322
1.29322
1.29322
1.29322
1.29322
1.29323
1.29322
1.29322
1.29322
1.29322
1.29322
1.29322
1.29322
1.29322
1.29322
1.29322
1.29322
1.29322
1.29322
1.29322
1.29322
1.29322
1.29322
1.29322
1.29322
1.29322
1.29322
1.29322
1.29322
1.29321
1.29321
1.29321
1.29321
1.29321
1.29321
1.29321
1.29321
1.29321
1.29321
1.29322
1.29322
1.29322
1.29322
1.29322
1.29322
1.29322
1.29322
1.29322
1.29322
1.29322
1.29322
1.29322
1.2932
1.2932
1.2932
1.2932
1.2932
1.2932
1.2932
1.2932
1.2932
1.29321
1.29321
1.29321
1.29321
1.29321
1.29321
1.29321
1.29321
1.29322
1.29322
1.29322
1.29322
1.29322
1.29322
1.29318
1.29318
1.29318
1.29319
1.29319
1.29319
1.29319
1.29319
1.29319
1.29319
1.2932
1.2932
1.2932
1.2932
1.2932
1.2932
1.29321
1.29321
1.29321
1.29321
1.29321
1.29321
1.29322
1.29316
1.29317
1.29317
1.29317
1.29317
1.29317
1.29317
1.29317
1.29317
1.29318
1.29318
1.29318
1.29318
1.29318
1.29319
1.29319
1.29319
1.29319
1.29319
1.2932
1.2932
1.2932
1.2932
1.29315
1.29315
1.29315
1.29315
1.29315
1.29315
1.29315
1.29315
1.29315
1.29315
1.29316
1.29316
1.29316
1.29316
1.29316
1.29316
1.29316
1.29316
1.29317
1.29317
1.29317
1.29317
1.29317
1.29313
1.29313
1.29313
1.29313
1.29313
1.29313
1.29314
1.29314
1.29314
1.29314
1.29314
1.29314
1.29314
1.29314
1.29314
1.29314
1.29314
1.29314
1.29314
1.29314
1.29314
1.29314
1.29315
1.29312
1.29312
1.29312
1.29312
1.29312
1.29312
1.29312
1.29312
1.29312
1.29312
1.29313
1.29313
1.29313
1.29313
1.29313
1.29313
1.29313
1.29313
1.29313
1.29313
1.29314
1.29314
1.29314
1.29311
1.29311
1.29311
1.29311
1.29311
1.29311
1.29312
1.29312
1.29312
1.29312
1.29312
1.29312
1.29312
1.29312
1.29312
1.29312
1.29312
1.29313
1.29313
1.29314
1.29315
1.29315
1.29315
1.29311
1.29311
1.29311
1.29311
1.29311
1.29311
1.29311
1.29311
1.29311
1.29311
1.29311
1.29311
1.29311
1.29312
1.29312
1.29312
1.29313
1.29314
1.29315
1.29316
1.29317
1.2934
1.29345
1.2931
1.2931
1.2931
1.2931
1.2931
1.2931
1.2931
1.29311
1.29311
1.29311
1.29311
1.29311
1.29311
1.29312
1.29312
1.29313
1.29314
1.29317
1.29339
1.29422
1.29454
1.29447
1.29402
1.2931
1.2931
1.2931
1.2931
1.2931
1.2931
1.2931
1.2931
1.2931
1.29311
1.29311
1.29311
1.29312
1.29312
1.29313
1.29315
1.2932
1.29388
1.29564
1.29581
1.29569
1.29364
1.29313
1.2931
1.2931
1.2931
1.2931
1.2931
1.2931
1.2931
1.2931
1.2931
1.2931
1.29311
1.29311
1.29312
1.29313
1.29314
1.2932
1.29449
1.29604
1.29603
1.2946
1.29312
1.29312
1.29312
1.29309
1.29309
1.29309
1.29309
1.29309
1.2931
1.2931
1.2931
1.2931
1.29311
1.29311
1.29312
1.29313
1.29314
1.29318
1.29479
1.29596
1.29567
1.29342
1.29311
1.29312
1.29311
1.29311
1.29309
1.29309
1.29309
1.29309
1.29309
1.2931
1.2931
1.2931
1.2931
1.29311
1.29311
1.29312
1.29313
1.29318
1.29476
1.2958
1.29535
1.29311
1.2931
1.29311
1.29311
1.2931
1.2931
1.29309
1.29309
1.29309
1.29309
1.2931
1.2931
1.2931
1.2931
1.29311
1.29311
1.29312
1.29312
1.29314
1.29386
1.29582
1.29564
1.29324
1.29309
1.2931
1.2931
1.2931
1.29309
1.29309
1.29309
1.29309
1.29309
1.2931
1.2931
1.2931
1.2931
1.2931
1.29311
1.29311
1.29312
1.29312
1.29347
1.29541
1.29581
1.29378
1.29308
1.29309
1.29309
1.29309
1.29309
1.29309
1.29308
1.2931
1.2931
1.2931
1.2931
1.2931
1.2931
1.2931
1.2931
1.2931
1.29311
1.29311
1.29312
1.29449
1.29583
1.29485
1.29305
1.29307
1.29308
1.29308
1.29308
1.29308
1.29308
1.29307
1.2931
1.2931
1.2931
1.2931
1.2931
1.2931
1.2931
1.2931
1.2931
1.29311
1.29311
1.29311
1.2947
1.29581
1.29305
1.29304
1.29306
1.29307
1.29307
1.29307
1.29308
1.29307
1.29307
1.2931
1.2931
1.2931
1.2931
1.2931
1.2931
1.2931
1.2931
1.2931
1.2931
1.2931
1.29329
1.29427
1.29356
1.29301
1.29303
1.29305
1.29306
1.29307
1.29307
1.29307
1.29307
1.29306
1.2931
1.2931
1.2931
1.2931
1.2931
1.2931
1.2931
1.2931
1.2931
1.2931
1.2931
1.29335
1.29337
1.29299
1.29299
1.29302
1.29304
1.29305
1.29306
1.29306
1.29306
1.29306
1.29306
1.2931
1.2931
1.2931
1.2931
1.2931
1.2931
1.2931
1.2931
1.2931
1.29309
1.29311
1.29325
1.29302
1.29296
1.29297
1.293
1.29303
1.29304
1.29305
1.29306
1.29306
1.29306
1.29305
1.2931
1.2931
1.2931
1.2931
1.2931
1.2931
1.2931
1.2931
1.2931
1.29309
1.29312
1.29308
1.29295
1.29293
1.29294
1.29299
1.29302
1.29304
1.29305
1.29305
1.29306
1.29305
1.29305
1.29313
1.29313
1.29313
1.29313
1.29312
1.29312
1.29312
1.29311
1.29311
1.29309
1.29306
1.29296
1.2929
1.29288
1.29291
1.29297
1.29301
1.29303
1.29304
1.29304
1.29305
1.29304
1.29304
989.537
820.499
638.229
674.323
750.857
215.362
176.042
249.612
990.664
679.18
146.227
106.429
1000.05
992.926
802.387
616.336
877.748
930.566
929.775
929.772
398.42
539.975
623.127
624.648
167.228
584.817
623.121
619.349
162.915
225.967
473.709
445.796
682.913
682.872
677.521
294.835
488.144
676.919
683.136
683.146
1.2943
1.2943
79.7971
353.659
1.29467
1.29468
1.29392
1.29391
1.30878
1.30667
1.29393
1.29435
1.29744
1.2976
1.29501
1.30117
1.29326
1.29326
1.29327
1.2938
1.29323
1.29323
1.29323
1.29323
1.29323
1.29323
1.29323
1.29323
1.29323
1.29323
1.29323
1.29323
1.29322
1.29322
1.29322
1.29322
1.29322
1.29322
1.29322
1.29322
1.29322
1.29322
1.29322
1.29322
1.29322
1.29322
1.29322
1.29322
1.2932
1.2932
1.29321
1.29321
1.29317
1.29317
1.29317
1.29317
1.29315
1.29315
1.29315
1.29315
1.29315
1.29315
1.29315
1.29315
1.29316
1.2932
1.29326
1.29329
1.29353
1.29367
1.29367
1.29354
1.29391
1.29363
1.29334
1.29316
1.29313
1.29313
1.29313
1.29313
1.29312
1.29311
1.29311
1.29311
1.2931
1.2931
1.2931
1.2931
1.29309
1.29309
1.29309
1.29308
1.29308
1.29308
1.29308
1.29307
1.29308
1.29307
1.29307
1.29307
1.29307
1.29307
1.29306
1.29306
1.29306
1.29306
1.29306
1.29305
1.29306
1.29305
1.29305
1.29305
1.29305
1.29305
1.29305
1.29304
1.29305
1.29304
1.29304
1.29304
1.29304
1.29304
1.29304
1.29303
1.29303
1.29303
1.29303
1.29302
674.111
1.29758
1.29787
302.001
912.364
948.046
700.055
350.096
200.172
108.173
79.0319
87.2655
126.581
203.789
301.532
427.569
735.814
758.393
723.482
268.253
1.29751
206.371
892.609
974.624
810.655
143.005
1.29618
1.29621
1.29619
1.29618
1.32702
1.54298
2.37507
4.88125
11.6132
276.973
447.679
766.632
106.452
302.166
929.54
963.067
940.214
196.868
1.29714
1.36727
1.29788
1.2966
1.30881
1.3131
1.30571
1.29853
1.30647
2.33423
35.8404
285.779
766.631
627.304
975.348
975.37
822.152
275.795
1.29646
1.29712
1.29675
1.29602
1.29592
1.29593
1.29603
1.29619
1.29633
1.29917
1.5589
5.57864
67.8986
703.939
928.969
842.912
660.41
100.036
1.29652
1.2966
1.29677
1.29606
1.29597
1.29588
1.29582
1.29581
1.29587
1.29592
1.29626
1.31488
2.34527
17.6127
662.246
562.21
394.45
99.6003
1.29636
1.2963
1.29622
1.29622
1.29611
1.29613
1.29608
1.29597
1.29587
1.29583
1.29585
1.29614
1.29657
1.29594
1.29564
629.556
290.002
1.29713
1.29686
1.2969
1.29656
1.2963
1.29625
1.30618
1.36765
1.40609
1.3046
1.29746
1.3203
1.73257
4.68075
4.28725
1.39036
1.29583
603.353
9.25843
1.29677
1.29992
1.29701
1.2972
1.30201
1.72694
6.87988
47.4226
54.8205
2.69581
1.51581
10.6532
73.9108
270.574
245.006
12.938
1.2959
591.502
99.0348
42.7599
10.5124
1.40817
1.29718
1.30446
2.88171
114.807
497.337
470.476
52.3605
18.8654
324.436
671.152
905.732
877.783
345.034
74.7246
574.011
683.137
632.357
199.225
1.29717
1.29695
1.29703
50.1795
515.438
697.762
697.749
421.933
405.079
861.168
990.268
990.268
990.268
943.956
686.687
696.279
583.264
700.827
700.738
645.259
472.235
458.977
628.318
663.996
661.664
592.762
639.543
722.936
709.796
669.516
911.541
990.268
990.268
990.268
959.409
1.2939
217.697
549.559
677.063
695.569
695.51
574.809
302.391
120.557
97.8917
180.812
221.928
72.0018
46.888
403.642
981.263
990.268
990.268
990.268
1.29548
1.29363
1.29363
32.0146
83.8296
63.9155
1.6884
1.29315
1.29311
1.29307
1.29301
1.29296
1.29299
1.31851
101.667
605.791
940.26
987.1
990.268
1.30347
1.29818
1.29364
1.29318
1.29317
1.29316
1.29315
1.29314
1.2931
1.293
1.29295
1.29306
1.72142
16.8297
56.3599
124.647
335.631
691.575
862.471
1.29419
1.29497
1.29721
1.29441
1.29316
1.29317
1.29318
1.29318
1.29311
1.29304
1.29301
1.29313
2.36551
31.0756
43.8
14.2139
14.208
90.3768
209.38
1.29324
1.2933
1.29347
1.29509
1.29321
1.29844
1.30158
1.29925
1.29315
1.29309
1.29305
1.29321
1.55391
5.61119
11.0181
14.2172
22.558
22.5565
24.9026
1.29323
1.29323
1.29323
1.29366
1.29778
1.30261
1.33483
1.33483
1.3038
1.29315
1.29309
1.29312
1.29771
1.29326
1.29331
7.09074
76.8525
120.489
326.994
1.29323
1.29323
1.29323
1.29322
1.29652
1.2942
1.32022
1.33524
1.33524
1.31413
1.29481
1.29334
1.2932
1.29325
1.31119
2.58139
43.1887
149.243
401.674
1.29322
1.29322
1.29322
1.29322
1.29355
1.29327
1.29577
1.29748
1.31483
1.32262
1.31867
1.29553
1.29349
1.29324
1.3421
1.30027
1.30008
22.7641
401.674
1.29322
1.29322
1.29322
1.29322
1.29322
1.29321
1.2932
1.29321
1.29387
1.29562
1.29537
1.29472
1.29337
1.29332
1.35175
1.30067
1.30673
3.11826
401.674
1.29322
1.29322
1.29322
1.29322
1.29322
1.29321
1.29321
1.2932
1.2932
1.29319
1.29318
1.29318
1.29318
1.29319
1.34131
1.33563
1.34081
1.90559
401.674
1.29322
1.29322
1.29322
1.29322
1.29322
1.29321
1.29321
1.29321
1.29321
1.2932
1.2932
1.29319
1.29319
1.29319
1.2932
1.49294
1.40426
1.29285
401.608
1.29321
1.29321
1.29321
1.29321
1.29321
1.29321
1.29321
1.29321
1.29321
1.2932
1.2932
1.2932
1.2932
1.2932
1.2932
1.57419
1.51078
1.29288
265.154
1.29318
1.29318
1.29319
1.2932
1.2932
1.29321
1.29321
1.29321
1.29321
1.29321
1.2932
1.2932
1.2932
1.2932
1.29321
1.57387
1.51835
1.30269
83.9697
1.29315
1.29315
1.29316
1.29316
1.29317
1.29318
1.29319
1.2932
1.2932
1.2932
1.2932
1.2932
1.2932
1.2932
1.29321
1.51526
1.42591
2.65224
39.4398
1.29316
1.29316
1.29315
1.29315
1.29315
1.29315
1.29316
1.29317
1.29319
1.2932
1.2932
1.2932
1.2932
1.2932
1.29321
1.47952
1.38075
4.8748
5.952
1.29326
1.29321
1.29317
1.29316
1.29316
1.29315
1.29315
1.29315
1.29316
1.29318
1.29319
1.2932
1.2932
1.2932
1.29321
1.4498
1.37663
4.87492
3.20146
1.29327
1.29319
1.29318
1.29316
1.29316
1.29316
1.29315
1.29315
1.29315
1.29315
1.29317
1.29319
1.2932
1.2932
1.2932
1.37614
1.32361
2.82769
3.3779
1.29314
1.29314
1.29316
1.29319
1.29317
1.29316
1.29316
1.29315
1.29315
1.29315
1.29316
1.29317
1.29319
1.29319
1.2932
1.31285
1.3236
1.29312
60.4167
1.29312
1.29312
1.29312
1.29318
1.29318
1.29315
1.29314
1.29315
1.29315
1.29315
1.29315
1.29316
1.29318
1.29318
1.2932
1.29463
1.3304
1.29312
108.117
1.29311
1.2931
1.2931
1.29312
1.29379
1.29361
1.29326
1.29315
1.29316
1.29315
1.29315
1.29315
1.29316
1.29317
1.29319
1.29318
1.33023
1.29312
108.117
1.29309
1.29309
1.29308
1.29307
1.29414
1.29415
1.29373
1.29375
1.29347
1.29313
1.29314
1.29314
1.29315
1.29316
1.29318
1.29719
1.31663
1.29311
108.014
1.29308
1.29307
1.29306
1.29306
1.29365
1.29412
1.29336
1.2947
1.29601
1.29475
1.29327
1.29314
1.29314
1.29315
1.29317
1.29739
1.29516
1.2931
37.343
1.29307
1.29306
1.29305
1.29304
1.29303
1.29331
1.29313
1.29304
1.29999
1.29882
1.29408
1.29315
1.29313
1.29314
1.29316
1.29364
1.29317
1.2931
1.2931
1.29306
1.29305
1.29304
1.29303
1.29302
1.29301
1.29302
1.29302
1.29967
1.3126
1.29843
1.29313
1.29312
1.29314
1.29316
1.29316
1.31063
1.29794
1.29332
1.29305
1.29304
1.29303
1.29302
1.293
1.29299
1.29299
1.29299
1.29349
1.32261
1.30488
1.29454
1.29314
1.29313
1.29315
1.29417
1.33538
1.31317
1.29335
1.29305
1.29304
1.29302
1.29301
1.29299
1.29298
1.29297
1.29297
1.29299
1.41189
1.38335
1.30142
1.29318
1.29312
1.29314
1.29601
1.33539
1.31728
1.29338
1.29304
1.29303
1.29302
1.293
1.29298
1.29297
1.29295
1.29295
1.29918
1.47475
1.48322
1.33562
1.29347
1.29311
1.29313
1.29529
1.32292
1.30422
1.29799
1.29304
1.29303
1.29301
1.29299
1.29297
1.29296
1.29294
1.29293
1.29425
1.47686
1.48322
1.38642
1.29387
1.29311
1.29312
1.29409
1.29471
1.29399
1.30428
1.29303
1.29302
1.293
1.29298
1.29297
1.29295
1.29293
1.29293
1.29294
1.45187
1.48322
1.44078
1.29765
1.2931
1.29312
1.29314
1.29314
1.29395
1.30437
1.29303
1.29302
1.293
1.29298
1.29296
1.29294
1.29293
1.29292
1.29293
1.42048
1.48322
1.40669
1.29518
1.2931
1.29312
1.29313
1.29313
1.29687
1.30438
1.29301
1.293
1.29299
1.29297
1.29295
1.29293
1.29292
1.29291
1.29292
1.30263
1.4101
1.32936
1.29352
1.2931
1.29312
1.29314
1.29314
1.29954
1.29872
)
;

boundaryField
{
    leftWall
    {
        type            calculated;
        value           nonuniform List<scalar> 
50
(
1000.05
1000.05
1000.05
1000.05
1000.05
1000.05
1000.05
961.449
410.614
1.76081
1.29333
1.29328
1.29326
1.29326
1.29325
1.29325
1.29325
1.29325
1.29324
1.29324
1.29324
1.29324
1.29323
1.29323
1.29323
1.29322
1.29322
1.29321
1.2932
1.29318
1.29316
1.29315
1.29313
1.29312
1.29311
1.29311
1.2931
1.2931
1.2931
1.29309
1.29309
1.29309
1.29309
1.2931
1.2931
1.2931
1.2931
1.2931
1.2931
1.29313
)
;
    }
    rightWall
    {
        type            calculated;
        value           nonuniform List<scalar> 
50
(
834.962
616.48
291.568
767.261
800.309
799.864
800.309
737.166
723.482
766.632
766.631
703.939
662.246
629.556
603.353
591.502
574.011
696.279
959.409
990.268
990.268
862.471
209.38
24.9026
326.994
401.674
401.674
401.674
401.674
401.608
265.154
83.9697
39.4398
5.952
3.20146
3.3779
60.4167
108.117
108.117
108.014
37.343
1.2931
1.29332
1.29335
1.29338
1.29799
1.30428
1.30437
1.30438
1.29872
)
;
    }
    lowerWall
    {
        type            calculated;
        value           nonuniform List<scalar> 
62
(
1000.05
1000.05
1000.05
1000.05
1000.05
1000.05
1000.05
1000.05
1000.05
1000.05
1000.05
1000.05
1000.05
1000.05
1000.05
1000.05
1000.05
1000.05
1000.05
1000.05
1000.05
1000.05
999.837
999.837
999.766
999.766
999.77
1000.02
1000.05
1000.05
1000.05
989.537
820.499
638.229
674.323
709.259
812.725
812.728
812.723
812.714
684.319
626.833
677.495
709.259
647.155
647.155
648.759
877.076
909.875
909.876
909.876
868.496
759.301
835.982
835.977
835.736
835.257
834.972
834.972
834.972
834.96
834.962
)
;
    }
    atmosphere
    {
        type            calculated;
        value           nonuniform List<scalar> 
46
(
1.29322
1.29322
1.29322
1.29321
1.29321
1.29321
1.29321
1.2932
1.29319
1.29318
1.29314
1.29305
1.29299
1.29298
1.293
1.29306
1.2931
1.29312
1.29313
1.29314
1.29314
1.29314
1.29313
1.29313
1.29312
1.29312
1.29312
1.29311
1.2931
1.29309
1.29307
1.29305
1.29303
1.29302
1.29301
1.29302
1.29306
1.4102
1.32946
1.29362
1.29319
1.29321
1.29323
1.29323
1.29963
1.2988
)
;
    }
    defaultFaces
    {
        type            empty;
    }
}


// ************************************************************************* //
