/*--------------------------------*- C++ -*----------------------------------*\
| =========                 |                                                 |
| \\      /  F ield         | OpenFOAM: The Open Source CFD Toolbox           |
|  \\    /   O peration     | Version:  2012                                  |
|   \\  /    A nd           | Website:  www.openfoam.com                      |
|    \\/     M anipulation  |                                                 |
\*---------------------------------------------------------------------------*/
FoamFile
{
    version     2.0;
    format      ascii;
    class       volScalarField;
    location    "0.7";
    object      rhogh;
}
// * * * * * * * * * * * * * * * * * * * * * * * * * * * * * * * * * * * * * //

dimensions      [1 -1 -2 0 0 0 0];


internalField   nonuniform List<scalar> 
2268
(
-29.4294
-29.4294
-29.4294
-29.4294
-29.4294
-29.4294
-29.4294
-29.4294
-29.4294
-29.4294
-29.4294
-29.4294
-29.4294
-29.4294
-29.4294
-29.4294
-29.4294
-29.4294
-29.4294
-29.4294
-29.4294
-29.4291
-29.423
-88.2881
-88.2881
-88.2881
-88.2881
-88.2881
-88.2881
-88.2881
-88.2881
-88.2881
-88.2881
-88.2881
-88.2881
-88.2881
-88.2881
-88.2881
-88.2881
-88.2881
-88.2881
-88.2881
-88.2881
-88.2881
-88.2849
-88.2626
-147.147
-147.147
-147.147
-147.147
-147.147
-147.147
-147.147
-147.147
-147.147
-147.147
-147.147
-147.147
-147.147
-147.147
-147.147
-147.147
-147.147
-147.147
-147.147
-147.147
-147.147
-147.143
-147.104
-206.006
-206.006
-206.006
-206.006
-206.006
-206.006
-206.006
-206.006
-206.006
-206.006
-206.006
-206.006
-206.006
-206.006
-206.006
-206.006
-206.006
-206.006
-206.006
-206.006
-206.006
-206.002
-205.947
-264.864
-264.864
-264.864
-264.864
-264.864
-264.864
-264.864
-264.864
-264.864
-264.864
-264.864
-264.864
-264.864
-264.864
-264.864
-264.864
-264.864
-264.864
-264.864
-264.864
-264.864
-264.863
-264.856
-323.723
-323.723
-323.723
-323.723
-323.723
-323.723
-323.723
-323.723
-323.723
-323.723
-323.723
-323.723
-323.723
-323.723
-323.723
-323.723
-323.723
-323.723
-323.723
-323.723
-323.723
-323.723
-323.723
-382.582
-382.582
-382.582
-382.582
-382.582
-382.582
-382.582
-382.582
-382.582
-382.582
-382.582
-382.582
-382.582
-382.582
-382.582
-382.582
-382.582
-382.582
-382.582
-382.582
-382.582
-382.582
-382.582
-424.378
-426.165
-433.734
-441.07
-441.44
-441.44
-441.44
-441.44
-441.44
-441.44
-441.44
-441.44
-441.44
-441.44
-441.44
-441.44
-441.44
-441.44
-441.44
-441.44
-441.44
-441.44
-441.44
-20.8606
-19.0308
-19.0308
-19.0781
-25.8057
-26.7721
-26.7721
-26.7721
-25.5528
-22.3353
-24.5948
-24.5947
-24.5876
-24.5735
-24.565
-24.565
-24.565
-24.5647
-24.5647
-71.7283
-71.6771
-68.7022
-57.2347
-76.6608
-80.3164
-79.7063
-76.7988
-76.2965
-66.9748
-60.5491
-57.1582
-57.8017
-65.2623
-69.7137
-70.6583
-69.9667
-67.4429
-54.3804
-119.548
-119.549
-102.541
-96.5552
-107.626
-122.078
-132.546
-72.1153
-37.9975
-37.9977
-35.0952
-10.2924
-8.58078
-19.4541
-34.001
-38.4067
-35.0619
-38.8696
-42.7644
-167.366
-102.218
-35.3858
-20.3779
-28.2126
-113.229
-194.725
-195.466
-123.332
-71.9033
-15.0487
-0.120979
-0.120979
-0.186273
-0.651408
-0.444211
-0.120979
-17.8614
-157.989
-215.183
-9.49454
-0.143731
-0.0484197
-0.510216
-147.895
-247.21
-264.169
-260.043
-227.629
-174.929
-107.34
-33.2191
-0.155545
-0.155545
-0.155545
-0.155545
-16.7854
-211.893
-221.385
-5.32133
4.34792e-20
-3.59312e-21
-0.315494
-260.956
-322.873
-322.873
-322.873
-322.833
-321.381
-312.653
-272.552
-184.96
-78.7347
-5.50292
-0.19011
-90.811
-258.836
-239.616
-10.4977
2.69288e-20
1.49206e-35
-78.1363
-332.594
-381.577
-381.513
-381.075
-381.559
-381.561
-381.559
-381.561
-379.846
-346.316
-271.526
-203.071
-289.082
-306.067
-298.873
-18.9229
1.86517e-36
1.58177e-16
-283.031
-418.45
-435.528
-382.553
-353.366
-321.974
-335.299
-359.1
-393.588
-435.34
-435.339
-435.344
-422.555
-411.068
-325.245
-218.63
-230.213
-253.061
-289.287
-339.455
-384.695
-434.543
-482.005
-519.469
-533.467
-533.467
-533.467
-533.467
-533.467
-533.467
-533.467
-533.467
-533.467
-533.467
-533.467
-533.467
-533.467
-533.42
-0.308265
-0.638791
-1.36609
-4.38277
-15.5174
-41.2376
-81.9798
-147.234
-240.884
-372.069
-480.655
-558.936
-620.238
-657.633
-658.662
-658.662
-658.617
-658.609
-658.657
-658.662
-658.662
-658.662
-657.034
-5.3658e-07
-3.89231e-06
-4.27687e-05
-0.000551889
-0.00349854
-0.0214149
-0.265832
-1.89606
-8.53807
-29.9004
-88.1762
-175.336
-271.604
-403.066
-523.929
-607.412
-660.68
-740.395
-768.99
-783.856
-782.759
-783.856
-783.833
-1.55067e-12
-2.33306e-11
-3.71688e-10
-9.94566e-09
-1.19197e-06
-6.26222e-05
-0.00125296
-0.0146287
-0.123936
-0.788042
-3.55626
-11.2454
-25.4489
-44.3576
-75.3442
-106.119
-123.402
-186.913
-317.486
-503.862
-647.946
-872.633
-909.051
-6.19376e-13
-2.28353e-11
-4.39544e-10
-7.71177e-09
-1.44447e-07
-1.63694e-06
-5.09617e-06
-1.93611e-05
-0.000188947
-0.00133378
-0.00594475
-0.0103678
-0.00828068
1.88944e-22
1.95435e-30
-6.80067e-30
-1.14057e-26
-1.35883e-17
-5.32176
-48.0134
-150.984
-342.464
-582.353
-2.28118e-13
-9.18496e-12
-2.09719e-10
-3.18073e-09
-3.42018e-08
-1.49797e-07
-1.7002e-07
-5.22036e-07
-6.90074e-06
-8.24097e-05
-0.000658066
-0.00139576
-0.000709017
-1.41742e-28
-5.18058e-11
-1.32576e-10
-2.31738e-07
-0.0401004
-4.83158
-63.0521
-198.575
-262.669
-214.451
-2.49534e-13
-1.05745e-11
-2.08852e-10
-2.37692e-09
-1.57204e-08
-5.75962e-08
-1.0878e-07
-1.89584e-07
-4.29234e-07
-2.34293e-05
-0.00113065
-0.00247865
-0.000500141
-2.37431e-29
-3.36865e-12
-3.36138e-12
-3.36075e-12
-0.0518515
-32.835
-169.436
-218.498
-133.382
-133.982
-1.46796e-13
-6.66106e-12
-1.35818e-10
-1.51106e-09
-1.00723e-08
-4.32814e-08
-1.34837e-07
-3.04564e-07
-6.28929e-07
-0.000138263
-0.0023338
-0.00274897
-0.00151214
-2.37585e-24
-5.35383e-06
-3.5089e-06
-0.00193257
-0.0883201
-0.084822
-0.00299598
-102.663
-414.947
-453.844
-6.27673e-14
-2.85725e-12
-5.95941e-11
-7.27633e-10
-5.73617e-09
-3.32478e-08
-1.64365e-07
-6.03739e-07
-1.74242e-06
-6.87807e-05
-0.00123348
-0.00221138
-0.000844523
9.55384e-26
-5.71746e-06
-7.23335e-05
-0.00034156
-0.00295013
-0.000507451
-0.00326606
-0.754106
-219.022
-943.797
-1.99022e-14
-9.38098e-13
-2.09671e-11
-2.8963e-10
-2.84699e-09
-2.31094e-08
-1.65883e-07
-9.82854e-07
-5.92133e-06
-2.39557e-05
-3.12507e-05
-9.40153e-05
-3.79872e-05
-9.61752e-06
-5.97286e-06
-6.91473e-05
-0.000482923
-0.000629097
-0.000596701
-0.00117913
-0.00117494
-0.00117697
-45.4761
-6.31046e-15
-2.988e-13
-6.92942e-12
-1.05392e-10
-1.26143e-09
-1.35768e-08
-1.30832e-07
-9.86587e-07
-3.88973e-06
-4.28958e-06
-5.93768e-07
-3.39445e-07
-6.47544e-07
-5.24819e-06
-6.26903e-06
-4.07575e-05
-0.000267647
-0.000536246
-0.000594213
-0.000600325
-0.00600279
-0.0100038
-0.0020482
-1.76433e-15
-8.31141e-14
-1.95132e-12
-3.10643e-11
-4.12947e-10
-5.15869e-09
-5.93566e-08
-5.0709e-07
-1.27697e-06
-1.31763e-06
-4.46839e-07
-2.44997e-07
-3.0304e-07
-1.33279e-06
-5.41779e-06
-2.58016e-05
-3.48465e-05
-0.000155998
-0.000211212
-0.000158502
-0.00273843
-0.0142691
-0.0111066
-4.4927e-16
-2.08087e-14
-4.86301e-13
-7.78838e-12
-1.07085e-10
-1.40616e-09
-1.62692e-08
-1.3571e-07
-3.70279e-07
-4.47128e-07
-2.92325e-07
-2.39546e-07
-2.75635e-07
-7.14231e-07
-2.7389e-06
-8.27499e-06
-5.85946e-06
-6.48345e-06
-8.14039e-06
-2.34463e-05
-3.13704e-07
-0.00425019
-0.0176622
-1.03035e-16
-4.67841e-15
-1.08118e-13
-1.70057e-12
-2.31506e-11
-3.08011e-10
-3.62321e-09
-3.06113e-08
-9.42709e-08
-1.3017e-07
-1.17598e-07
-1.4892e-07
-1.98008e-07
-3.88597e-07
-9.44968e-07
-2.22712e-06
-2.32817e-06
-1.94979e-06
-1.5336e-06
-1.50452e-06
-3.32988e-07
-3.32995e-07
-0.00310691
-2.13649e-17
-9.52726e-16
-2.18685e-14
-3.36454e-13
-4.45037e-12
-5.87409e-11
-6.99492e-10
-6.02632e-09
-2.05321e-08
-3.23377e-08
-3.63119e-08
-4.82522e-08
-7.66239e-08
-1.50403e-07
-3.25156e-07
-6.67681e-07
-9.37384e-07
-1.20372e-06
-1.14036e-06
-8.89908e-07
-3.47319e-07
-3.13095e-06
-4.47327e-05
-4.02681e-18
-1.76186e-16
-4.02802e-15
-6.06632e-14
-7.71955e-13
-9.94891e-12
-1.19201e-10
-1.05274e-09
-3.83862e-09
-6.88707e-09
-9.09891e-09
-1.25779e-08
-2.05111e-08
-4.27737e-08
-9.47638e-08
-1.91583e-07
-3.09804e-07
-4.67715e-07
-5.98737e-07
-6.54532e-07
-4.13872e-07
-1.78069e-06
-1.53512e-06
-6.89749e-19
-2.96357e-17
-6.78201e-16
-1.00763e-14
-1.23929e-13
-1.55351e-12
-1.86141e-11
-1.66102e-10
-6.27476e-10
-1.26585e-09
-1.88958e-09
-2.73269e-09
-4.50759e-09
-9.56496e-09
-2.22848e-08
-4.70441e-08
-8.40538e-08
-1.39906e-07
-2.04759e-07
-3.10651e-07
-3.0983e-07
-6.51753e-07
-6.85591e-07
-1.07847e-19
-4.55377e-18
-1.04584e-16
-1.54178e-15
-1.84322e-14
-2.24196e-13
-2.67794e-12
-2.36421e-11
-9.04454e-11
-2.0136e-10
-3.28129e-10
-4.96037e-10
-8.20703e-10
-1.7349e-09
-4.20107e-09
-9.39104e-09
-1.82739e-08
-3.30735e-08
-5.36453e-08
-8.48529e-08
-1.19709e-07
-2.027e-07
-2.49096e-07
-1.54343e-20
-6.41707e-19
-1.48156e-17
-2.17888e-16
-2.55365e-15
-3.02191e-14
-3.59278e-13
-3.05619e-12
-1.15966e-11
-2.78836e-11
-4.8127e-11
-7.55898e-11
-1.25016e-10
-2.61338e-10
-6.4505e-10
-1.51553e-09
-3.1642e-09
-6.14212e-09
-1.08189e-08
-1.79557e-08
-2.72231e-08
-4.42503e-08
-6.21315e-08
-2.04072e-21
-8.39026e-20
-1.94777e-18
-2.86757e-17
-3.31984e-16
-3.83348e-15
-4.50643e-14
-3.60849e-13
-1.33312e-12
-3.38e-12
-6.01369e-12
-9.71769e-12
-1.59793e-11
-3.29244e-11
-8.11013e-11
-1.96543e-10
-4.31083e-10
-8.79281e-10
-1.64352e-09
-2.84448e-09
-4.51528e-09
-7.09863e-09
-1.0471e-08
-2.50143e-22
-1.02232e-20
-2.38294e-19
-3.5159e-18
-4.03686e-17
-4.55485e-16
-5.24115e-15
-3.89675e-14
-1.38067e-13
-3.5992e-13
-6.44137e-13
-1.05907e-12
-1.71728e-12
-3.48503e-12
-8.39542e-12
-2.04942e-11
-4.5877e-11
-9.54863e-11
-1.83545e-10
-3.2312e-10
-5.25007e-10
-7.97394e-10
-1.1841e-09
-2.88077e-23
-1.17782e-21
-2.75041e-20
-4.06948e-19
-4.65412e-18
-5.14531e-17
-5.68943e-16
-3.87923e-15
-1.30139e-14
-3.40009e-14
-5.98843e-14
-9.87144e-14
-1.55805e-13
-3.09898e-13
-7.12269e-13
-1.69844e-12
-3.72369e-12
-7.56375e-12
-1.4238e-11
-2.42268e-11
-3.85636e-11
-5.45965e-11
-7.98518e-11
-3.15245e-24
-1.29706e-22
-3.02669e-21
-4.48764e-20
-5.11666e-19
-5.52874e-18
-5.75519e-17
-3.57247e-16
-1.1233e-15
-2.86956e-15
-4.86751e-15
-7.90439e-15
-1.19197e-14
-2.29866e-14
-4.8907e-14
-1.09689e-13
-2.21678e-13
-4.08836e-13
-6.85229e-13
-1.0024e-12
-1.51225e-12
-2.63403e-12
-6.90877e-12
-3.32022e-25
-1.3809e-23
-3.21232e-22
-4.7656e-21
-5.41098e-20
-5.68421e-19
-5.46292e-18
-3.06774e-17
-8.96561e-17
-2.18748e-16
-3.5028e-16
-5.49522e-16
-7.77584e-16
-1.42056e-15
-2.66653e-15
-5.32262e-15
-8.76678e-15
-1.2765e-14
-3.8259e-13
-5.53426e-12
-2.46704e-11
-8.61221e-11
-3.32879e-10
-3.40959e-26
-1.43718e-24
-3.32666e-23
-4.92582e-22
-5.5483e-21
-5.61278e-20
-4.90349e-19
-2.48009e-18
-6.70386e-18
-1.52246e-17
-2.26208e-17
-3.33634e-17
-4.21542e-17
-6.9585e-17
-1.11158e-16
-2.80101e-16
-6.84081e-15
-3.4058e-12
-7.20616e-11
-3.17448e-10
-8.76684e-10
-2.24809e-09
-9.24756e-09
-3.44668e-27
-1.47302e-25
-3.38696e-24
-4.98677e-23
-5.53629e-22
-5.33466e-21
-4.19635e-20
-1.90475e-19
-4.68876e-19
-9.29747e-19
-1.2938e-18
-2.66149e-18
-3.07031e-17
-8.29965e-16
-2.38621e-14
-6.62665e-13
-1.94451e-11
-4.51432e-10
-2.62717e-09
-6.71216e-09
-1.38292e-08
-3.21208e-08
-1.41386e-07
-3.46904e-28
-1.50191e-26
-3.41933e-25
-4.95253e-24
-5.25756e-23
-4.5685e-22
-3.28611e-21
-1.52986e-20
-9.73889e-20
-1.97659e-18
-5.09977e-17
-1.25511e-15
-2.76903e-14
-5.43136e-13
-9.49264e-12
-1.48842e-10
-2.19828e-09
-1.60955e-08
-4.4549e-08
-8.66947e-08
-1.78236e-07
-2.85965e-06
-9.65018e-06
-3.23347e-29
-1.42303e-27
-3.43281e-26
-6.83305e-25
-1.88545e-23
-6.99512e-22
-2.58464e-20
-8.76798e-19
-2.55523e-17
-6.37324e-16
-1.3743e-14
-2.57249e-13
-4.19765e-12
-5.94956e-11
-7.36503e-10
-8.07681e-09
-8.2997e-08
-4.24588e-07
-3.5187e-06
-2.1558e-05
-5.5241e-05
-0.000974284
-0.00116164
-3.33726e-29
-6.06264e-27
-7.25778e-25
-5.79138e-23
-3.35731e-21
-1.49581e-19
-5.32449e-18
-1.55451e-16
-3.79871e-15
-7.88078e-14
-1.4058e-12
-2.17165e-11
-2.93096e-10
-3.4794e-09
-3.71818e-08
-3.84739e-07
-4.86694e-06
-6.96173e-05
-0.000953417
-0.00433878
-0.0056438
-0.0053829
-0.0035427
-4.22937e-27
-9.87118e-25
-1.10881e-22
-7.95952e-21
-4.10419e-19
-1.61794e-17
-5.07369e-16
-1.29937e-14
-2.77094e-13
-4.98297e-12
-7.62772e-11
-9.95853e-10
-1.10917e-08
-1.04992e-07
-9.06775e-07
-1.35972e-05
-0.000214273
-0.00305879
-0.0104501
-0.0111971
-0.0107017
-0.00212042
-5.50643e-08
-5.09552e-25
-1.04135e-22
-1.02307e-20
-6.42019e-19
-2.88776e-17
-9.88953e-16
-2.67513e-14
-5.84485e-13
-1.04605e-11
-1.54168e-10
-1.86995e-09
-1.84549e-08
-1.45169e-07
-9.10182e-07
-1.05394e-05
-0.000233566
-0.00581704
-0.0125636
-0.0125299
-0.00638331
-5.67178e-08
-5.67198e-08
-1.99113e-07
-2.23218e-23
-4.21825e-21
-3.79818e-19
-2.15935e-17
-8.67498e-16
-2.6107e-14
-6.09214e-13
-1.12423e-11
-1.65758e-10
-1.95156e-09
-1.81454e-08
-1.29488e-07
-6.90442e-07
-4.68854e-06
-0.000193718
-0.007374
-0.0126265
-0.0113705
-0.00137142
-1.59715e-07
-2.64837e-07
-9.81562e-07
-1.60641e-06
-6.10172e-22
-9.81925e-20
-7.47374e-18
-3.56562e-16
-1.19309e-14
-2.96408e-13
-5.64171e-12
-8.35452e-11
-9.67876e-10
-8.7131e-09
-5.94343e-08
-2.77112e-07
-1.50727e-06
-0.000249016
-0.00748714
-0.0123448
-0.0103242
-7.50547e-05
-2.62654e-07
-3.94325e-07
-9.15453e-07
-1.10884e-06
-1.04126e-06
-3.89271e-21
-5.91066e-19
-4.24317e-17
-1.90637e-15
-5.98166e-14
-1.38473e-12
-2.43677e-11
-3.30308e-10
-3.46193e-09
-2.81514e-08
-1.83767e-07
-1.49655e-06
-6.79134e-05
-0.00352885
-0.0127897
-0.0120176
-0.000738904
-1.56107e-07
-2.69903e-07
-5.10199e-07
-4.21795e-07
-2.56449e-07
-1.77268e-07
-1.85323e-20
-2.60007e-18
-1.72234e-16
-7.13049e-15
-2.0588e-13
-4.38417e-12
-6.95858e-11
-8.23084e-10
-7.23905e-09
-4.6832e-08
-2.63856e-07
-1.94373e-05
-0.00172651
-0.0111837
-0.0131802
-0.00346846
-3.94766e-08
-1.60294e-07
-2.25953e-07
-1.5659e-07
-7.24566e-08
-4.57534e-08
-4.42372e-08
-4.87631e-20
-6.30978e-18
-3.82297e-16
-1.43197e-14
-3.68693e-13
-6.84815e-12
-9.47563e-11
-9.92867e-10
-7.86207e-09
-4.58084e-08
-2.36768e-07
-4.56773e-05
-0.00692134
-0.0136687
-0.00889258
-1.45343e-08
-4.05089e-08
-7.58646e-08
-5.87115e-08
-2.3648e-08
-1.26737e-08
-1.02035e-08
-1.33704e-08
-1.09816e-19
-1.37126e-17
-7.9687e-16
-2.83732e-14
-6.87384e-13
-1.19279e-11
-1.52748e-10
-1.46526e-09
-1.04757e-08
-5.2435e-08
-1.93802e-07
-8.42311e-05
-0.00833844
-0.014017
-0.00012522
-1.48121e-08
-2.10187e-08
-2.30999e-08
-8.44638e-09
-3.65875e-09
-2.25938e-09
-2.08896e-09
-3.65822e-09
-3.5633e-19
-4.29125e-17
-2.40128e-15
-8.2334e-14
-1.92471e-12
-3.23772e-11
-4.04935e-10
-3.86279e-09
-2.90432e-08
-1.84353e-07
-6.96255e-06
-0.0011416
-0.00641755
-0.00287169
-1.518e-08
-1.51787e-08
-1.51793e-08
-5.28562e-09
-1.19699e-09
-4.91734e-10
-3.37815e-10
-3.62006e-10
-7.65081e-10
-8.41983e-19
-1.07989e-16
-6.44763e-15
-2.35767e-13
-5.86654e-12
-1.04578e-10
-1.36923e-09
-1.32261e-08
-9.44459e-08
-8.43823e-07
-9.24954e-05
-0.00163183
-0.00194597
-1.57024e-08
-1.57027e-08
-1.82208e-08
-1.53153e-08
-1.58365e-09
-1.49563e-10
-5.09043e-11
-3.77513e-11
-4.84548e-11
-1.04473e-10
-2.91943e-18
-3.5084e-16
-1.9823e-14
-6.99572e-13
-1.72433e-11
-3.07783e-10
-4.09792e-09
-4.19333e-08
-3.42673e-07
-4.95609e-06
-0.000254629
-0.00130444
-0.000258678
-1.60715e-08
-2.66102e-08
-4.20092e-08
-1.53283e-08
-5.61297e-10
-1.57693e-11
-3.66389e-12
-2.83085e-12
-3.91923e-12
-6.85768e-12
-3.86013e-18
-5.19731e-16
-3.19956e-14
-1.23455e-12
-3.28026e-11
-6.27295e-10
-8.81744e-09
-9.21997e-08
-7.99813e-07
-1.95713e-05
-0.000385605
-0.000568482
-8.39603e-06
-1.65274e-08
-6.98266e-08
-7.80975e-08
-9.66192e-09
-1.10329e-10
-8.58853e-13
-1.41798e-13
-1.15161e-13
-1.24946e-13
-1.02788e-13
-3.69652e-18
-5.97935e-16
-4.56283e-14
-2.09771e-12
-6.48037e-11
-1.4159e-09
-2.24682e-08
-2.65548e-07
-2.7996e-06
-4.1525e-05
-0.000172047
-5.97124e-05
-4.32535e-06
-3.32602e-07
-4.8378e-07
-9.29757e-08
-1.19652e-09
-1.00608e-34
-9.01025e-17
-9.30504e-18
-2.92096e-19
-5.3783e-21
5.65334e-39
-527.85
-437.561
-340.205
-359.484
-494.321
-141.172
-115.241
-163.758
-776.487
-532.024
-113.745
-82.51
-909.051
-902.563
-729.137
-559.797
-907.594
-962.288
-961.47
-961.466
-461.014
-625.342
-721.871
-723.637
-213.428
-750.544
-799.811
-794.959
-228.139
-317.143
-666.85
-627.448
-1047.6
-1047.54
-1039.31
-451.151
-809.282
-1123.08
-1133.41
-1133.43
-0.00204857
-0.0020482
-140.336
-629.899
-0.00285045
-0.00285442
-0.00139817
-0.00139853
-0.0317963
-0.0274868
-0.00149017
-0.00234481
-0.00916019
-0.00950984
-0.00391368
-0.0172233
-8.6955e-05
-8.7393e-05
-0.000101707
-0.00133624
-1.42456e-06
-1.18167e-06
-1.26815e-06
-3.19555e-06
-6.12444e-07
-4.96492e-07
-6.3344e-07
-6.35463e-07
-2.40577e-07
-2.25628e-07
-2.62382e-07
-2.81016e-07
-6.41505e-08
-6.52376e-08
-7.13078e-08
-7.79321e-08
-1.19097e-08
-1.28344e-08
-1.41041e-08
-1.57098e-08
-1.46689e-09
-1.6549e-09
-1.86784e-09
-2.14547e-09
-1.01301e-10
-1.18158e-10
-1.37953e-10
-1.65579e-10
-1.2466e-11
-1.79406e-11
-3.04922e-11
-5.39161e-11
-6.14873e-10
-8.89368e-10
-1.65629e-09
-2.95294e-09
-1.60367e-08
-2.3835e-08
-4.72903e-08
-7.48716e-08
-2.51261e-07
-9.09379e-07
-2.74627e-06
-3.99338e-06
-2.09193e-05
-0.000183895
-0.000386384
-0.000505487
-0.00147167
-0.00203063
-0.00202761
-0.00152549
-0.0030935
-0.00198714
-0.000775444
-7.32985e-05
-5.50623e-08
-5.50643e-08
-5.50623e-08
-5.50643e-08
-8.27729e-07
-1.80742e-06
-2.93031e-06
-3.85679e-06
-2.13874e-06
-2.73317e-06
-3.35724e-06
-3.97974e-06
-8.75496e-07
-8.69985e-07
-1.001e-06
-1.38624e-06
-1.92607e-07
-2.56948e-07
-3.37607e-07
-4.59474e-07
-7.07897e-08
-1.0025e-07
-1.28371e-07
-1.65264e-07
-2.48928e-08
-3.37345e-08
-4.14389e-08
-4.9695e-08
-6.90246e-09
-8.67792e-09
-9.87261e-09
-1.0768e-08
-1.33954e-09
-1.52199e-09
-1.5531e-09
-1.48375e-09
-1.55004e-10
-1.58983e-10
-1.45931e-10
-1.20509e-10
-8.05303e-12
-7.46046e-12
-6.16476e-12
-5.41503e-12
-4.57561e-14
-2.81549e-14
-2.54311e-14
-3.8606e-14
-3.31466e-21
-3.73684e-20
-2.37327e-19
-1.27969e-18
-359.371
3.60504e-18
3.77487e-17
-160.615
-486.629
-505.688
-373.228
-186.305
-106.226
-57.086
-41.5207
-45.9185
-66.9179
-108.157
-160.365
-227.685
-392.328
-404.387
-385.74
-176.052
2.29917e-18
-135.242
-587.804
-641.891
-533.756
-93.4539
-4.67419e-06
-4.67419e-06
-4.67419e-06
-4.67419e-06
-0.02033
-0.162688
-0.711304
-2.36391
-6.80331
-181.803
-294.379
-504.723
-82.5277
-236.131
-728.515
-754.828
-736.892
-153.49
-0.000800296
-0.0558442
-0.00142193
-0.000436765
-0.010027
-0.0133934
-0.00754178
-0.00184365
-0.00791194
-0.814265
-27.1109
-223.271
-600.658
-569.779
-886.563
-886.584
-747.127
-249.843
-0.000487401
-0.00092812
-0.00064081
-3.27215e-05
-2.7556e-08
-2.7556e-08
-2.7556e-08
-2.7556e-08
-6.20847e-05
-0.00259785
-0.238937
-3.89769
-60.6202
-639.532
-960.634
-871.519
-682.533
-102.248
-0.00026341
-0.000554502
-0.00071424
-5.61474e-08
-5.68612e-08
-2.28271e-07
-8.82822e-07
-1.43629e-06
-1.43444e-06
-5.10667e-06
-0.000363223
-0.0197631
-1.08678
-16.8965
-684.435
-651.154
-456.405
-114.119
-0.000295296
-0.00029532
-0.000162926
-0.000126735
-6.37442e-08
-1.66748e-07
-4.61075e-07
-7.62526e-07
-1.63047e-06
-6.52352e-06
-3.67471e-05
-0.000320796
-0.000838344
-0.000126603
-0.000126556
-729.336
-371.342
-0.0011894
-0.00118881
-0.00118876
-0.000606942
-0.000242722
-0.000140392
-0.0129216
-0.0919904
-0.141347
-0.0108758
-0.0018039
-0.031263
-0.561567
-4.35329
-3.84718
-0.121325
-0.000140273
-774.385
-11.2394
-0.00131551
-0.00561853
-0.00137364
-0.00157989
-0.00833852
-0.608037
-7.88166
-65.111
-75.5537
-1.97551
-0.310003
-13.208
-102.502
-380.109
-344.017
-16.433
-0.000153887
-833.124
-150.218
-63.727
-14.1649
-0.172588
-0.00172007
-0.0128515
-2.43671
-174.458
-762.381
-721.098
-78.4821
-27.0023
-496.644
-1029.52
-1390.06
-1347.1
-528.302
-112.854
-880.224
-1133.41
-1049
-329.014
-0.00189583
-0.00186078
-0.00189583
-81.2577
-854.65
-1157.72
-1157.7
-699.217
-671.202
-1429.35
-1643.95
-1643.95
-1643.95
-1566.97
-1139.31
-1155.26
-1040.35
-1250.51
-1250.35
-1151.17
-841.867
-818.166
-1120.88
-1184.67
-1180.5
-1057.33
-1140.95
-1290.03
-1266.54
-1194.53
-1627.18
-1767.92
-1767.92
-1767.92
-1712.75
-0.00139817
-413.975
-1048.82
-1292.73
-1328.13
-1328.02
-1097.12
-575.993
-228.149
-184.791
-343.416
-422.069
-135.264
-87.2215
-769.683
-1874.66
-1891.89
-1891.89
-1891.89
-0.0046635
-0.000895007
-0.000895261
-62.6203
-168.236
-127.645
-0.805555
-7.81908e-07
-7.81908e-07
-7.81908e-07
-7.81908e-07
-7.81908e-07
-7.81908e-07
-0.0518806
-204.594
-1232.17
-1913.92
-2009.4
-2015.85
-0.0222063
-0.010747
-0.000950904
-8.29993e-07
-8.29993e-07
-8.29993e-07
-8.29993e-07
-8.92021e-07
-1.12489e-06
-8.29993e-07
-8.29993e-07
-0.000170275
-0.926611
-33.6159
-119.146
-266.898
-723.398
-1493.55
-1863.31
-0.0022186
-0.00399783
-0.00913752
-0.00282569
-8.78078e-07
-8.78078e-07
-8.78078e-07
-3.87869e-05
-6.17789e-06
-8.78077e-07
-8.78077e-07
-0.000128152
-2.45464
-68.1725
-97.2989
-29.5754
-29.5618
-203.914
-476.312
-4.07951e-05
-0.000186323
-0.000603385
-0.00461558
-8.73289e-05
-0.0126952
-0.0202538
-0.014644
-9.26162e-07
-9.26162e-07
-2.00811e-06
-0.000373143
-0.629579
-10.4251
-23.4793
-31.2033
-51.3409
-51.3364
-56.9989
-1.90541e-06
-5.70242e-06
-1.4836e-06
-0.00116441
-0.0116864
-0.0239554
-0.105781
-0.105781
-0.0269792
-9.74247e-07
-9.74247e-07
-0.000115836
-0.0116301
-9.26417e-05
-9.43661e-05
-14.7239
-191.9
-302.726
-827.193
-6.1146e-07
-1.87167e-06
-1.55679e-06
-9.83132e-08
-0.00885985
-0.00271216
-0.0720677
-0.112116
-0.112114
-0.0558632
-0.00438245
-0.000542056
-0.000161288
-0.000161216
-0.0478716
-3.43311
-111.655
-394.298
-1067.04
-2.39851e-07
-1.06603e-06
-1.12944e-06
-1.02937e-07
-0.000940186
-0.000220736
-0.00722711
-0.0120077
-0.060434
-0.0821809
-0.0711728
-0.00659854
-0.000880427
-0.000168874
-0.136457
-0.0198146
-0.0197125
-59.9136
-1117.23
-6.49783e-08
-2.99473e-07
-5.27537e-07
-3.17228e-07
-1.3326e-06
-1.25695e-05
-8.99891e-06
-6.06754e-05
-0.00200917
-0.00710781
-0.00640313
-0.00451085
-0.000556874
-0.000380887
-0.170716
-0.0218249
-0.0400747
-5.32235
-1167.42
-1.01422e-08
-4.85506e-08
-1.0426e-07
-1.34975e-07
-2.04503e-08
-2.86114e-06
-3.80609e-06
-6.05668e-06
-1.07656e-05
-7.68309e-06
-3.75918e-08
-3.759e-08
-3.75918e-08
-3.759e-08
-0.1463
-0.12902
-0.145309
-1.86338
-1217.61
-8.19237e-10
-4.22074e-09
-1.01768e-08
-1.91966e-08
-1.12262e-08
-3.65774e-07
-1.40943e-06
-1.61169e-06
-1.25784e-06
-6.52102e-07
-3.25865e-07
-5.62777e-07
-1.03579e-07
-4.00813e-08
-3.5967e-08
-0.632452
-0.352001
-5.24992e-19
-1267.59
-2.09643e-10
-5.17914e-10
-7.12967e-10
-1.17246e-09
-2.0202e-09
-2.70967e-08
-1.36409e-07
-2.28052e-07
-2.13981e-07
-1.7593e-07
-1.54889e-07
-2.94618e-07
-3.88077e-07
-1.72195e-07
-3.73922e-08
-0.924965
-0.716445
-1.34129e-19
-868.585
-1.06952e-08
-2.79386e-08
-2.48675e-08
-1.11563e-08
-3.29112e-09
-2.44602e-09
-6.99081e-09
-1.68788e-08
-2.82531e-08
-4.22093e-08
-6.29798e-08
-1.34566e-07
-1.36541e-07
-5.29437e-08
-3.88146e-08
-0.959076
-0.769519
-0.0333974
-282.521
-3.175e-07
-8.98446e-07
-7.51433e-07
-3.41888e-07
-1.07083e-07
-2.57304e-08
-5.72389e-09
-3.56984e-09
-4.76011e-09
-1.08705e-08
-2.56512e-08
-7.33837e-08
-9.15028e-08
-4.83649e-08
-4.01395e-08
-0.786615
-0.470226
-4.81536
-135.136
-2.51534e-05
-3.33843e-05
-1.31729e-05
-3.3726e-06
-1.21187e-06
-4.32469e-07
-1.24083e-07
-2.71086e-08
-7.84853e-09
-6.36006e-09
-1.09043e-08
-4.36577e-08
-6.78404e-08
-4.17976e-08
-4.15614e-08
-0.683357
-0.321218
-13.1377
-17.0882
-0.000405916
-0.000193199
-4.12886e-05
-9.71783e-06
-5.11359e-06
-2.77564e-06
-1.14127e-06
-3.52365e-07
-9.32326e-08
-2.26628e-08
-1.25445e-08
-2.79422e-08
-5.54487e-08
-4.28765e-08
-4.29801e-08
-0.594021
-0.316565
-13.5868
-7.23934
-0.000458508
-0.000138372
-8.90138e-05
-3.43345e-05
-2.11967e-05
-1.29673e-05
-6.22413e-06
-2.39438e-06
-7.751e-07
-2.16066e-07
-5.19119e-08
-3.47713e-08
-4.42958e-08
-4.4295e-08
-4.42934e-08
-0.325
-0.119213
-6.01335
-8.17031
-5.58049e-07
-1.51869e-05
-8.27303e-05
-0.000178216
-9.75274e-05
-3.83323e-05
-1.76416e-05
-8.71804e-06
-3.29069e-06
-1.04349e-06
-2.89082e-07
-8.59532e-08
-5.78787e-08
-4.57103e-08
-4.58207e-08
-0.0794998
-0.122954
-2.05491e-19
-239.093
-5.74794e-07
-5.75347e-07
-1.32343e-05
-0.000286669
-0.000279773
-0.000103307
-4.81202e-05
-2.77437e-05
-9.23749e-06
-3.00932e-06
-1.08401e-06
-3.36072e-07
-1.38943e-07
-5.01886e-08
-4.72428e-08
-0.00601246
-0.155097
-1.57562e-19
-445.378
-4.5331e-06
-4.14306e-06
-3.31261e-06
-0.000142771
-0.00298285
-0.00220729
-0.000674131
-0.000180154
-0.000111311
-4.55832e-05
-7.61737e-06
-1.68471e-06
-4.04983e-07
-8.58541e-08
-4.86613e-08
-4.87813e-08
-0.159045
-1.22926e-19
-458.769
-4.64173e-06
-4.87974e-06
-3.40934e-06
-1.00412e-06
-0.00473786
-0.00475022
-0.00289204
-0.00291667
-0.00161672
-6.7179e-06
-9.86319e-07
-9.86069e-07
-8.01049e-07
-3.73353e-07
-5.02051e-08
-0.0177462
-0.103608
2.54387e-21
-471.706
-2.21288e-06
-4.08489e-06
-3.4846e-06
-1.03259e-06
-0.00271852
-0.00488238
-0.00137406
-0.00743463
-0.013319
-0.00751505
-0.000685206
-1.40756e-05
-1.59741e-06
-7.80324e-07
-7.12089e-08
-0.0191546
-0.00897986
-2.98901e-21
-163.859
-7.34416e-07
-1.57526e-06
-2.97378e-06
-1.06696e-06
-1.04696e-07
-0.0013179
-0.000467401
-9.40078e-06
-0.0323806
-0.0268308
-0.00452976
-0.000144074
-1.78898e-06
-7.05814e-07
-7.04442e-08
-0.0022033
3.86366e-27
2.52194e-22
-5.10803e-28
-2.39365e-07
-4.90969e-07
-1.14388e-06
-9.18444e-07
-1.07506e-07
-1.07506e-07
-7.51317e-05
-1.07506e-07
-0.0318388
-0.093742
-0.0256318
-8.96249e-05
-2.01223e-06
-1.46293e-06
-3.13871e-07
-3.13673e-07
-0.083754
-0.023162
-0.001266
-6.51277e-08
-1.15837e-07
-2.05297e-07
-2.62557e-07
-1.44582e-07
-9.02426e-07
-1.10316e-07
-1.10316e-07
-0.00235747
-0.14554
-0.058109
-0.00710035
-0.000107638
-1.89942e-06
-6.08928e-08
-0.00500423
-0.20779
-0.0986821
-0.00146032
-1.2152e-08
-1.68021e-08
-2.76165e-08
-5.13524e-08
-1.88368e-07
-2.10244e-06
-1.55275e-05
-1.42002e-06
-1.4204e-06
-0.599902
-0.455686
-0.0420948
-0.000383568
-1.86913e-06
-6.30217e-08
-0.0144468
-0.213147
-0.121928
-0.00167814
-1.34609e-09
-1.26432e-09
-2.5018e-09
-1.31406e-08
-1.23848e-07
-1.88033e-06
-1.82414e-05
-1.1636e-07
-0.0320551
-0.939956
-0.983624
-0.220067
-0.00193748
-1.48697e-06
-6.39948e-08
-0.011114
-0.153992
-0.0574286
-0.0255939
-9.89918e-11
-1.07271e-10
-4.84883e-10
-3.8143e-09
-3.80513e-08
-4.436e-07
-1.00425e-05
-1.19216e-07
-0.0068305
-0.973934
-1.00746
-0.494532
-0.00416802
-8.46324e-07
-6.61523e-08
-0.0050614
-0.00833016
-0.00463953
-0.0594922
-5.39437e-12
-1.31413e-11
-7.47778e-11
-5.39249e-10
-5.38712e-09
-6.18006e-08
-7.34388e-07
-2.73206e-05
6.30209e-24
-0.861486
-1.0313
-0.801032
-0.024741
-8.52827e-07
-4.10184e-07
-3.96606e-05
-1.78159e-06
-0.00451374
-0.061362
-1.15293e-13
-4.62164e-13
-1.86873e-12
-1.103e-11
-2.17121e-10
-7.26258e-09
-3.53634e-07
-1.83208e-05
-5.89046e-25
-0.707347
-1.05514
-0.63043
-0.0116368
-1.57197e-06
-4.20929e-06
-5.18287e-06
-1.82278e-06
-0.0208138
-0.0627826
-9.63999e-18
-1.03053e-16
-1.18827e-15
-1.32833e-14
-6.03238e-14
4.06578e-68
2.93877e-66
2.25581e-64
-5.67566e-88
-0.0548693
-0.664253
-0.20602
-0.00254237
-3.68143e-06
-2.84052e-05
-2.91204e-05
-1.86396e-06
-0.0363779
-0.031904
)
;

boundaryField
{
    leftWall
    {
        type            calculated;
        value           nonuniform List<scalar> 
50
(
-29.4294
-88.2881
-147.147
-206.006
-264.864
-323.723
-382.582
-424.378
-218.63
-0.308265
-5.3658e-07
-1.55067e-12
-6.19376e-13
-2.28118e-13
-2.49534e-13
-1.46796e-13
-6.27673e-14
-1.99022e-14
-6.31046e-15
-1.76433e-15
-4.4927e-16
-1.03035e-16
-2.13649e-17
-4.02681e-18
-6.89749e-19
-1.07847e-19
-1.54343e-20
-2.04072e-21
-2.50143e-22
-2.88077e-23
-3.15245e-24
-3.32022e-25
-3.40959e-26
-3.44668e-27
-3.46904e-28
-3.23347e-29
-3.33726e-29
-4.22937e-27
-5.09552e-25
-2.23218e-23
-6.10172e-22
-3.89271e-21
-1.85323e-20
-4.87631e-20
-1.09816e-19
-3.5633e-19
-8.41983e-19
-2.91943e-18
-3.86013e-18
-3.69652e-18
)
;
    }
    rightWall
    {
        type            calculated;
        value           nonuniform List<scalar> 
50
(
-24.5647
-54.3804
-42.7644
-157.989
-211.893
-258.836
-306.067
-325.245
-385.74
-504.723
-600.658
-639.532
-684.435
-729.336
-774.385
-833.124
-880.224
-1155.26
-1712.75
-1891.89
-2015.85
-1863.31
-476.312
-56.9989
-827.193
-1067.04
-1117.23
-1167.42
-1217.61
-1267.59
-868.585
-282.521
-135.136
-17.0882
-7.23934
-8.17031
-239.093
-445.378
-458.769
-471.706
-163.859
-5.10803e-28
-0.001266
-0.00146032
-0.00167814
-0.0255939
-0.0594922
-0.061362
-0.0627826
-0.031904
)
;
    }
    lowerWall
    {
        type            calculated;
        value           nonuniform List<scalar> 
62
(
0
0
0
0
0
0
0
0
0
0
0
0
0
0
0
0
0
0
0
0
0
0
0
-29.423
-88.2626
-147.104
-205.947
-264.856
-323.723
-382.582
-441.44
-465.912
-386.218
-300.285
-317.302
-20.8606
-71.7283
-119.548
-167.366
-215.183
-221.385
-239.616
-298.873
0
0
0
0
0
0
0
0
0
0
0
0
0
0
0
0
0
0
0
)
;
    }
    atmosphere
    {
        type            calculated;
        value           nonuniform List<scalar> 
46
(
-3.73735e-18
-6.0454e-16
-4.61324e-14
-2.12088e-12
-6.55196e-11
-1.43154e-09
-2.27164e-08
-2.68482e-07
-2.83052e-06
-4.19837e-05
-0.000173948
-6.0372e-05
-4.37313e-06
-3.36276e-07
-4.89124e-07
-0
-0
-0
-0
-0
-0
-0
-0
-0
-0
-0
-0
-0
-0
-0
-0
-0
-0
-0
-0
-0
-0
-0.671591
-0.208296
-0.00257045
-3.7221e-06
-2.8719e-05
-2.94421e-05
-1.88455e-06
-0.0367798
-0.0322565
)
;
    }
    defaultFaces
    {
        type            empty;
    }
}


// ************************************************************************* //
