/*--------------------------------*- C++ -*----------------------------------*\
| =========                 |                                                 |
| \\      /  F ield         | OpenFOAM: The Open Source CFD Toolbox           |
|  \\    /   O peration     | Version:  2012                                  |
|   \\  /    A nd           | Website:  www.openfoam.com                      |
|    \\/     M anipulation  |                                                 |
\*---------------------------------------------------------------------------*/
FoamFile
{
    version     2.0;
    format      ascii;
    class       volVectorField;
    location    "0.7";
    object      U;
}
// * * * * * * * * * * * * * * * * * * * * * * * * * * * * * * * * * * * * * //

dimensions      [0 1 -1 0 0 0 0];


internalField   nonuniform List<vector> 
2268
(
(-0.00444862 0.000874957 0)
(-0.0091193 0.000498087 0)
(-0.0150906 0.000747849 0)
(-0.0232912 0.00119413 0)
(-0.0349198 0.00128309 0)
(-0.0459095 0.000735035 0)
(-0.0543253 0.000876013 0)
(-0.0662667 0.00177148 0)
(-0.0803382 0.0021113 0)
(-0.0901027 0.00246836 0)
(-0.10313 0.00266027 0)
(-0.11145 0.00283308 0)
(-0.121464 0.00191202 0)
(-0.122415 0.000862655 0)
(-0.12608 -0.000136692 0)
(-0.122087 -0.000897681 0)
(-0.123153 -0.00195115 0)
(-0.113222 -0.00298441 0)
(-0.106542 -0.00472441 0)
(-0.0880117 -0.00618276 0)
(-0.0652482 -0.0079288 0)
(-0.0436726 -0.0113895 0)
(0.00961278 0.000436676 0)
(-0.00465963 0.00553754 0)
(-0.00933636 0.00453339 0)
(-0.0153924 0.0059517 0)
(-0.0231651 0.00818052 0)
(-0.0344877 0.00941005 0)
(-0.0453321 0.00843738 0)
(-0.0541062 0.00874956 0)
(-0.0661584 0.0105092 0)
(-0.080234 0.00917056 0)
(-0.0894777 0.00826819 0)
(-0.103437 0.00747939 0)
(-0.111629 0.00575844 0)
(-0.121508 0.00337151 0)
(-0.12304 0.00119659 0)
(-0.126909 0.000134381 0)
(-0.123021 -0.000655218 0)
(-0.123735 -0.00202806 0)
(-0.113915 -0.00508048 0)
(-0.107948 -0.00692602 0)
(-0.0905992 -0.0135603 0)
(-0.0713309 -0.012745 0)
(-0.0528367 -0.0241435 0)
(-0.00597026 -0.016375 0)
(-0.00493898 0.007487 0)
(-0.00895458 0.00556764 0)
(-0.0149986 0.00727578 0)
(-0.0221619 0.0102092 0)
(-0.0331054 0.0117471 0)
(-0.0441028 0.00999757 0)
(-0.0542624 0.0107229 0)
(-0.0672303 0.0141143 0)
(-0.081518 0.0131612 0)
(-0.0913287 0.0134052 0)
(-0.105001 0.0131748 0)
(-0.11272 0.0112981 0)
(-0.122197 0.00739787 0)
(-0.123568 0.00328529 0)
(-0.127941 -1.08201e-05 0)
(-0.123872 -0.00258407 0)
(-0.124894 -0.00608189 0)
(-0.113947 -0.0106928 0)
(-0.108254 -0.015555 0)
(-0.0897341 -0.0238259 0)
(-0.0705317 -0.0256385 0)
(-0.0483075 -0.0426647 0)
(0.000564843 -0.0274813 0)
(-0.00515259 0.0121071 0)
(-0.00869789 0.00929516 0)
(-0.0153471 0.0122058 0)
(-0.0221589 0.0167568 0)
(-0.0323714 0.0198019 0)
(-0.042705 0.0184519 0)
(-0.0536235 0.0196875 0)
(-0.066419 0.0233723 0)
(-0.0802578 0.0205626 0)
(-0.0908237 0.0193261 0)
(-0.104758 0.0176419 0)
(-0.113474 0.0138163 0)
(-0.124014 0.00860036 0)
(-0.126593 0.00380185 0)
(-0.13079 0.000444374 0)
(-0.126346 -0.00224398 0)
(-0.127172 -0.00647093 0)
(-0.117043 -0.013126 0)
(-0.112545 -0.018011 0)
(-0.0945626 -0.0315133 0)
(-0.0771623 -0.0318467 0)
(-0.0501964 -0.0576861 0)
(0.000611216 -0.0384548 0)
(-0.00403054 0.0140261 0)
(-0.0077453 0.0103772 0)
(-0.0143349 0.0136162 0)
(-0.0207419 0.0182273 0)
(-0.030231 0.0214184 0)
(-0.0404089 0.020011 0)
(-0.053831 0.0219251 0)
(-0.068032 0.0266985 0)
(-0.0825272 0.0247353 0)
(-0.0943196 0.024967 0)
(-0.107626 0.023919 0)
(-0.115841 0.0203317 0)
(-0.125954 0.0136801 0)
(-0.127718 0.00635613 0)
(-0.132239 -1.4428e-05 0)
(-0.12756 -0.00449155 0)
(-0.129842 -0.0103508 0)
(-0.118691 -0.0178905 0)
(-0.116292 -0.0260831 0)
(-0.0972812 -0.0410207 0)
(-0.0830929 -0.0466327 0)
(-0.0498009 -0.0801206 0)
(0.0132632 -0.051368 0)
(-0.0020051 0.0176793 0)
(-0.00761212 0.0141793 0)
(-0.0149076 0.0183754 0)
(-0.0214131 0.0243135 0)
(-0.029678 0.0291524 0)
(-0.0385388 0.0296529 0)
(-0.0526652 0.0327703 0)
(-0.0659415 0.0369209 0)
(-0.0797101 0.0329748 0)
(-0.092804 0.0311353 0)
(-0.107646 0.0278599 0)
(-0.117841 0.0224092 0)
(-0.129965 0.0143098 0)
(-0.132988 0.00667753 0)
(-0.136388 0.000547459 0)
(-0.131317 -0.00351579 0)
(-0.133719 -0.0103614 0)
(-0.123787 -0.0196855 0)
(-0.122874 -0.0276412 0)
(-0.104397 -0.0472382 0)
(-0.0950622 -0.05353 0)
(-0.0520607 -0.102991 0)
(0.0196428 -0.0547524 0)
(0.000102665 0.0185633 0)
(-0.00566009 0.0164603 0)
(-0.0128004 0.0200997 0)
(-0.0192574 0.025152 0)
(-0.0261507 0.0294265 0)
(-0.0350886 0.0308015 0)
(-0.0521526 0.0348355 0)
(-0.0676378 0.039468 0)
(-0.0837175 0.0374826 0)
(-0.0980941 0.0381789 0)
(-0.111771 0.0357929 0)
(-0.121035 0.0308329 0)
(-0.132547 0.0209092 0)
(-0.134617 0.00926124 0)
(-0.138023 -0.000715777 0)
(-0.133067 -0.00595275 0)
(-0.137991 -0.0138286 0)
(-0.127035 -0.0233473 0)
(-0.129593 -0.0352383 0)
(-0.109677 -0.0548032 0)
(-0.107481 -0.0715416 0)
(-0.0542912 -0.135412 0)
(0.0273295 -0.0675816 0)
(0.00138728 0.0203035 0)
(-0.00432749 0.0202912 0)
(-0.0110351 0.0248441 0)
(-0.0182321 0.0307047 0)
(-0.0236765 0.0367436 0)
(-0.0322403 0.0420522 0)
(-0.0492448 0.0482362 0)
(-0.0636675 0.051848 0)
(-0.0807351 0.0473375 0)
(-0.0966412 0.0443087 0)
(-0.111474 0.0387243 0)
(-0.124915 0.0321539 0)
(-0.139256 0.0208106 0)
(-0.141896 0.0091928 0)
(-0.142437 -4.0113e-06 0)
(-0.137127 -0.00366402 0)
(-0.142619 -0.012851 0)
(-0.133261 -0.0237981 0)
(-0.137098 -0.0351921 0)
(-0.118581 -0.0576659 0)
(-0.126357 -0.078571 0)
(-0.0627178 -0.166677 0)
(-0.0686194 -0.0657359 0)
(-0.661045 0.260639 0)
(-1.20816 0.0866291 0)
(-1.56063 0.0368256 0)
(-1.63583 0.0110829 0)
(-1.63743 -0.0147548 0)
(-1.45241 -0.0398839 0)
(-1.25374 -0.0115156 0)
(-1.15773 0.0866579 0)
(-1.3372 0.0769405 0)
(-1.52302 0.01748 0)
(-1.62958 0.015005 0)
(-1.66219 0.00205128 0)
(-1.66479 0.00359823 0)
(-1.65658 0.00428631 0)
(-1.65988 -0.00120252 0)
(-1.64297 -0.0195334 0)
(-1.56698 -0.0547393 0)
(-1.23712 -0.0827176 0)
(-0.784102 -0.247091 0)
(-0.540128 0.533675 0)
(-0.949041 0.300213 0)
(-1.19737 0.144139 0)
(-1.21141 0.0204809 0)
(-1.24574 -0.0629934 0)
(-1.11599 -0.122047 0)
(-0.898855 -0.111649 0)
(-0.873187 -0.052228 0)
(-1.12587 0.0763895 0)
(-1.28091 0.107195 0)
(-1.37828 0.0432681 0)
(-1.40982 0.0127598 0)
(-1.40151 -0.00601534 0)
(-1.39022 -0.00658885 0)
(-1.39105 -0.00437994 0)
(-1.38563 -0.0207207 0)
(-1.3325 -0.117933 0)
(-1.05875 -0.253694 0)
(-0.869884 -0.616428 0)
(-0.551239 0.883508 0)
(-0.709118 0.368365 0)
(-0.897175 0.148175 0)
(-0.914742 0.0293258 0)
(-0.976149 -0.0523981 0)
(-0.738997 -0.188297 0)
(-0.331091 -0.124461 0)
(-0.0849089 0.189196 0)
(-0.471312 0.262847 0)
(-0.655909 0.125052 0)
(-0.968844 0.0719829 0)
(-1.19646 0.0107908 0)
(-1.39694 -0.00643251 0)
(-1.43068 -0.00110265 0)
(-1.42762 -0.00348944 0)
(-1.41908 -0.0476932 0)
(-1.45625 -0.193437 0)
(-1.24882 -0.260667 0)
(-0.473843 -1.06255 0)
(-0.453307 1.07063 0)
(-0.470465 0.452684 0)
(-0.927791 0.228226 0)
(-1.08921 0.0539405 0)
(-1.07854 -0.140213 0)
(-0.365757 -0.390832 0)
(-0.113942 -0.384871 0)
(0.269763 -0.00223501 0)
(0.618737 0.295309 0)
(0.644249 0.322213 0)
(0.440743 0.267241 0)
(0.38965 0.218316 0)
(-0.0833926 0.153083 0)
(-0.351609 0.0366556 0)
(-0.951294 0.0119609 0)
(-1.34986 -0.0173891 0)
(-1.6015 -0.255833 0)
(-0.787183 -0.703084 0)
(-0.240746 -1.37491 0)
(-0.426351 1.2756 0)
(-0.130388 0.564297 0)
(-0.967396 0.375365 0)
(-1.27515 0.104786 0)
(-0.55741 -0.404579 0)
(0.115817 -0.608485 0)
(0.119315 -0.40146 0)
(0.35373 -0.11704 0)
(0.623434 0.121758 0)
(0.886765 0.199629 0)
(1.01163 0.184593 0)
(1.11575 0.188273 0)
(1.16727 0.215888 0)
(1.15832 0.269749 0)
(0.712947 0.343632 0)
(0.886901 0.184744 0)
(-0.129523 -0.181689 0)
(0.099894 -0.839012 0)
(-0.158823 -1.50014 0)
(-0.438108 1.29259 0)
(0.460649 0.771803 0)
(-0.958348 0.640301 0)
(-0.0697276 -0.0575658 0)
(0.145152 -0.584809 0)
(0.28373 -0.731511 0)
(0.285489 -0.484295 0)
(0.507549 -0.219813 0)
(0.708967 0.0607814 0)
(0.913987 0.156681 0)
(1.0197 0.166243 0)
(1.0935 0.173486 0)
(1.15939 0.202618 0)
(1.20476 0.248001 0)
(1.23947 0.280262 0)
(1.26394 0.270408 0)
(1.00536 0.0148139 0)
(0.815902 -0.686516 0)
(-0.0113061 -1.41081 0)
(-0.451055 1.25432 0)
(0.523942 0.87007 0)
(-0.768155 0.306872 0)
(0.652309 -0.140144 0)
(0.505268 -0.564662 0)
(0.392311 -0.707739 0)
(0.396523 -0.502599 0)
(0.56107 -0.293956 0)
(0.715477 -0.047706 0)
(0.907778 0.0683713 0)
(1.00852 0.108679 0)
(1.0781 0.128649 0)
(1.14102 0.167544 0)
(1.1916 0.223817 0)
(1.23006 0.271909 0)
(1.28111 0.263223 0)
(1.25455 0.0932604 0)
(1.02211 -0.421435 0)
(-0.00171676 -1.16753 0)
(-0.483455 1.25298 0)
(0.53435 0.991602 0)
(-0.737398 0.431886 0)
(0.537344 -0.476134 0)
(0.519477 -0.557184 0)
(0.427088 -0.683214 0)
(0.454713 -0.5549 0)
(0.606925 -0.357131 0)
(0.747814 -0.0900698 0)
(0.888618 0.0311204 0)
(0.966065 0.0929077 0)
(1.03098 0.116721 0)
(1.09034 0.154431 0)
(1.13964 0.210366 0)
(1.2013 0.243167 0)
(1.21982 0.258956 0)
(1.17423 0.115394 0)
(0.897715 -0.154868 0)
(-0.133001 -0.967691 0)
(0.00341471 0.0195688 0)
(-0.000650537 0.0232673 0)
(-0.00417252 0.0274312 0)
(-0.0105108 0.0310588 0)
(-0.0165355 0.0352981 0)
(-0.0255374 0.0430506 0)
(-0.0393146 0.0502847 0)
(-0.0521525 0.0556775 0)
(-0.0712851 0.0564002 0)
(-0.0914054 0.0575302 0)
(-0.111973 0.0551241 0)
(-0.129809 0.050591 0)
(-0.143953 0.0336088 0)
(-0.144034 0.0114498 0)
(-0.143459 -0.00454892 0)
(-0.138286 -0.00741168 0)
(-0.148847 -0.0171837 0)
(-0.137896 -0.027769 0)
(-0.145199 -0.046218 0)
(-0.12701 -0.0623865 0)
(-0.166095 -0.109547 0)
(-0.12477 -0.161752 0)
(-0.260847 -0.168829 0)
(-0.0168937 0.0165323 0)
(-0.0399861 0.0260957 0)
(-0.0715985 0.0336862 0)
(-0.13143 0.0431744 0)
(-0.166159 0.0524198 0)
(-0.142042 0.0645555 0)
(-0.122727 0.0741723 0)
(-0.114856 0.0824027 0)
(-0.118022 0.083375 0)
(-0.124277 0.0802423 0)
(-0.130939 0.0714144 0)
(-0.133373 0.0575392 0)
(-0.133411 0.030622 0)
(-0.132631 0.00773113 0)
(-0.138398 -0.00383121 0)
(-0.143475 0.00277375 0)
(-0.158497 -0.0109525 0)
(-0.155936 -0.0265484 0)
(-0.167521 -0.0406982 0)
(-0.183011 -0.0357952 0)
(-0.231643 -0.0658475 0)
(-0.284757 -0.077019 0)
(-0.410146 -0.142605 0)
(-0.0238938 0.0813456 0)
(-0.0643274 0.0808992 0)
(-0.104028 0.120618 0)
(-0.139971 0.125919 0)
(-0.147215 0.0449972 0)
(-0.166204 -0.00143159 0)
(-0.190043 0.0231906 0)
(-0.187269 0.0516076 0)
(-0.205908 0.0663086 0)
(-0.231605 0.0706456 0)
(-0.236455 0.0643691 0)
(-0.234952 0.0530689 0)
(-0.236475 0.0330039 0)
(-0.211146 0.0164109 0)
(-0.168204 0.00642933 0)
(-0.128115 0.0125588 0)
(-0.10991 -0.00461835 0)
(-0.103823 -0.0192961 0)
(-0.136775 -0.0189019 0)
(-0.1402 0.000660169 0)
(-0.199051 -0.00823181 0)
(-0.200958 0.0145633 0)
(-0.312719 0.0272462 0)
(-0.014311 0.0996994 0)
(-0.0413829 0.102585 0)
(-0.0717753 0.108806 0)
(-0.0639239 0.0878154 0)
(-0.0766235 0.0815139 0)
(-0.151763 0.110539 0)
(-0.223614 0.0969784 0)
(-0.279455 0.0980619 0)
(-0.31929 0.128219 0)
(-0.360331 0.111203 0)
(-0.39353 0.0747233 0)
(-0.415105 0.0573987 0)
(-0.443131 0.00656924 0)
(-0.423729 -0.0610361 0)
(-0.36199 -0.0870479 0)
(-0.316706 -0.0560832 0)
(-0.296036 -0.0349999 0)
(-0.230461 -0.000141788 0)
(-0.192511 -0.00318006 0)
(-0.175012 0.0266085 0)
(-0.184155 3.39856e-05 0)
(-0.154837 0.0361216 0)
(-0.242343 0.0370409 0)
(-0.0182175 0.140996 0)
(-0.0514067 0.141242 0)
(-0.0853081 0.143623 0)
(-0.114786 0.129289 0)
(-0.163609 0.129652 0)
(-0.2021 0.142286 0)
(-0.243299 0.148171 0)
(-0.30836 0.146574 0)
(-0.364679 0.146125 0)
(-0.414163 0.144261 0)
(-0.512519 0.118409 0)
(-0.616092 0.100721 0)
(-0.720303 0.0382286 0)
(-0.823829 -0.0677418 0)
(-0.925677 -0.104381 0)
(-1.12514 -0.048778 0)
(-1.50714 -0.080087 0)
(-1.67004 -0.119713 0)
(-1.42431 -0.0737092 0)
(-1.01938 -0.0171234 0)
(-0.778796 -0.0376334 0)
(-0.426761 0.068949 0)
(-0.346046 0.192116 0)
(-0.015607 0.167437 0)
(-0.0429999 0.168353 0)
(-0.0748753 0.172408 0)
(-0.10513 0.167279 0)
(-0.153235 0.171789 0)
(-0.196318 0.193475 0)
(-0.248165 0.207459 0)
(-0.301341 0.221896 0)
(-0.37442 0.237433 0)
(-0.454641 0.262446 0)
(-0.578641 0.282199 0)
(-0.744451 0.272473 0)
(-0.948606 0.225586 0)
(-1.24337 0.149973 0)
(-1.65195 0.232624 0)
(-2.17453 0.504636 0)
(-2.62692 0.514841 0)
(-2.6403 -0.113739 0)
(-2.30499 -0.604765 0)
(-1.96744 -0.631408 0)
(-1.68023 -0.569665 0)
(-1.37757 -0.397406 0)
(-1.02931 -0.0240642 0)
(-0.0163213 0.201076 0)
(-0.0457841 0.201611 0)
(-0.0792706 0.205844 0)
(-0.108706 0.207175 0)
(-0.151179 0.219211 0)
(-0.186129 0.235237 0)
(-0.225842 0.250756 0)
(-0.265792 0.270801 0)
(-0.31799 0.297061 0)
(-0.373087 0.345599 0)
(-0.448692 0.404703 0)
(-0.544593 0.46667 0)
(-0.713115 0.529571 0)
(-0.951459 0.632116 0)
(-1.38045 0.815126 0)
(-1.67843 0.927078 0)
(-1.94708 0.444724 0)
(-1.99409 -0.551966 0)
(-2.01761 -0.693179 0)
(-2.0005 -0.690885 0)
(-1.96247 -0.646666 0)
(-1.93219 -0.591953 0)
(-1.78152 -0.357151 0)
(-0.0148826 0.229152 0)
(-0.0402121 0.231143 0)
(-0.0716432 0.235897 0)
(-0.0995051 0.240185 0)
(-0.137547 0.251224 0)
(-0.168047 0.270236 0)
(-0.208311 0.289953 0)
(-0.244133 0.316487 0)
(-0.29327 0.347938 0)
(-0.337074 0.396265 0)
(-0.388937 0.457675 0)
(-0.436839 0.541207 0)
(-0.516012 0.638501 0)
(-0.611379 0.820314 0)
(-0.76619 0.967767 0)
(-0.888475 1.06036 0)
(-0.983607 0.804287 0)
(-1.44165 0.00788034 0)
(-1.71166 -0.592007 0)
(-1.68274 -0.677277 0)
(-1.69774 -0.628516 0)
(-1.73668 -0.576606 0)
(-1.74387 -0.516674 0)
(-0.014501 0.256626 0)
(-0.0376473 0.258708 0)
(-0.0667266 0.264953 0)
(-0.0894214 0.272673 0)
(-0.121622 0.286683 0)
(-0.145675 0.304773 0)
(-0.177275 0.325328 0)
(-0.202449 0.354325 0)
(-0.238081 0.388506 0)
(-0.266197 0.440185 0)
(-0.302802 0.502856 0)
(-0.321746 0.594789 0)
(-0.350363 0.704248 0)
(-0.355655 0.890049 0)
(-0.332536 1.0888 0)
(-0.333913 1.17328 0)
(-0.32982 1.01237 0)
(-0.564367 0.228005 0)
(-1.04461 -0.491115 0)
(-1.40271 -0.707933 0)
(-1.53027 -0.585057 0)
(-1.483 -0.541091 0)
(-1.48428 -0.476796 0)
(-0.0132218 0.28149 0)
(-0.0319715 0.283656 0)
(-0.0589853 0.288308 0)
(-0.078605 0.295894 0)
(-0.107004 0.308811 0)
(-0.125898 0.32724 0)
(-0.153396 0.348462 0)
(-0.171404 0.378858 0)
(-0.198391 0.413455 0)
(-0.213212 0.462469 0)
(-0.23443 0.514737 0)
(-0.234945 0.589545 0)
(-0.227743 0.672395 0)
(-0.189525 0.799832 0)
(-0.0765779 0.940495 0)
(0.0595398 1.04085 0)
(0.227372 1.01214 0)
(0.189399 0.709957 0)
(-0.18223 0.254457 0)
(-0.819288 -0.199799 0)
(-1.21705 -0.535524 0)
(-1.40426 -0.633978 0)
(-1.41717 -0.539389 0)
(-0.0119211 0.301838 0)
(-0.0275773 0.304451 0)
(-0.0514453 0.311304 0)
(-0.0672826 0.320314 0)
(-0.0909312 0.333285 0)
(-0.1047 0.350356 0)
(-0.125934 0.36991 0)
(-0.136175 0.398383 0)
(-0.153724 0.42937 0)
(-0.156743 0.475591 0)
(-0.164689 0.52345 0)
(-0.1551 0.588788 0)
(-0.137527 0.657458 0)
(-0.0956796 0.744003 0)
(-0.00925768 0.835099 0)
(0.113384 0.888309 0)
(0.255148 0.876192 0)
(0.335618 0.687757 0)
(0.234042 0.495131 0)
(-0.0356212 0.354801 0)
(-0.570893 -0.012409 0)
(-1.1372 -0.348952 0)
(-1.3001 -0.544907 0)
(-0.010627 0.321326 0)
(-0.0238746 0.32356 0)
(-0.0450132 0.328564 0)
(-0.0571033 0.335985 0)
(-0.0767956 0.347091 0)
(-0.0861629 0.363088 0)
(-0.103143 0.380971 0)
(-0.107682 0.407584 0)
(-0.11934 0.434932 0)
(-0.114777 0.474267 0)
(-0.113053 0.513427 0)
(-0.0923713 0.56275 0)
(-0.0650272 0.611359 0)
(-0.0137365 0.669814 0)
(0.0629651 0.724731 0)
(0.170093 0.767836 0)
(0.291631 0.776852 0)
(0.377656 0.717026 0)
(0.351274 0.625133 0)
(0.259458 0.606645 0)
(0.0912865 0.570458 0)
(-0.426655 0.123171 0)
(-0.918561 -0.321724 0)
(-0.00925149 0.336217 0)
(-0.019427 0.338701 0)
(-0.0373533 0.344263 0)
(-0.0464438 0.351767 0)
(-0.0629265 0.361872 0)
(-0.0687566 0.376119 0)
(-0.0818393 0.3908 0)
(-0.0816535 0.413857 0)
(-0.087952 0.435761 0)
(-0.0778635 0.468668 0)
(-0.0707492 0.500214 0)
(-0.0450816 0.540861 0)
(-0.0184872 0.577719 0)
(0.0291013 0.618594 0)
(0.0856337 0.649429 0)
(0.165218 0.668451 0)
(0.251135 0.666099 0)
(0.337246 0.647013 0)
(0.375503 0.609752 0)
(0.382415 0.622839 0)
(0.409989 0.677642 0)
(0.337115 0.654662 0)
(-0.0304793 0.51001 0)
(-0.00813602 0.350298 0)
(-0.0163224 0.351971 0)
(-0.0316289 0.355973 0)
(-0.0379317 0.361951 0)
(-0.0511451 0.36994 0)
(-0.0536946 0.382484 0)
(-0.0631719 0.39447 0)
(-0.0593818 0.414188 0)
(-0.0615953 0.431592 0)
(-0.0480203 0.457444 0)
(-0.0370802 0.480535 0)
(-0.00797065 0.510583 0)
(0.0216747 0.535677 0)
(0.071656 0.565025 0)
(0.12361 0.584311 0)
(0.19478 0.600045 0)
(0.26126 0.597927 0)
(0.334279 0.590211 0)
(0.391653 0.5734 0)
(0.439249 0.573041 0)
(0.518738 0.60946 0)
(0.616153 0.575536 0)
(0.683361 0.489455 0)
(-0.00689744 0.360547 0)
(-0.0129623 0.362055 0)
(-0.0261239 0.365662 0)
(-0.0308052 0.371028 0)
(-0.042083 0.377309 0)
(-0.0430087 0.387731 0)
(-0.0501987 0.396047 0)
(-0.0445554 0.411744 0)
(-0.0445637 0.42388 0)
(-0.0292114 0.443602 0)
(-0.0179859 0.459579 0)
(0.0108694 0.481848 0)
(0.0370085 0.497462 0)
(0.0825363 0.517413 0)
(0.126415 0.525752 0)
(0.186947 0.53342 0)
(0.244546 0.526159 0)
(0.307431 0.520521 0)
(0.368102 0.505429 0)
(0.423637 0.498592 0)
(0.499976 0.499855 0)
(0.600481 0.491919 0)
(0.659509 0.412904 0)
(-0.0060482 0.370337 0)
(-0.0109366 0.371378 0)
(-0.0221491 0.374042 0)
(-0.0253016 0.378117 0)
(-0.0341037 0.382436 0)
(-0.033229 0.39082 0)
(-0.0376422 0.396317 0)
(-0.0302616 0.408736 0)
(-0.0277573 0.416419 0)
(-0.0109293 0.43093 0)
(0.00113667 0.44024 0)
(0.0306079 0.455447 0)
(0.0557476 0.462972 0)
(0.0996282 0.47511 0)
(0.140354 0.477565 0)
(0.195835 0.481023 0)
(0.24772 0.47405 0)
(0.306184 0.46604 0)
(0.363554 0.453008 0)
(0.422417 0.440361 0)
(0.488114 0.427549 0)
(0.570388 0.415033 0)
(0.649458 0.383214 0)
(-0.00517306 0.377455 0)
(-0.0092475 0.378073 0)
(-0.0187838 0.379905 0)
(-0.0213994 0.38283 0)
(-0.0289135 0.385036 0)
(-0.0280181 0.391011 0)
(-0.03146 0.392783 0)
(-0.0244855 0.401503 0)
(-0.0218662 0.404173 0)
(-0.00574271 0.414308 0)
(0.00567663 0.417627 0)
(0.0336445 0.42692 0)
(0.0570755 0.428058 0)
(0.0967503 0.432787 0)
(0.133761 0.42933 0)
(0.183055 0.426477 0)
(0.231668 0.415774 0)
(0.286066 0.40536 0)
(0.340761 0.389269 0)
(0.398322 0.374984 0)
(0.456761 0.351721 0)
(0.519803 0.331355 0)
(0.587663 0.300356 0)
(-0.00469846 0.384821 0)
(-0.00853748 0.385047 0)
(-0.0170451 0.386271 0)
(-0.0194137 0.388298 0)
(-0.0255 0.389156 0)
(-0.024367 0.393409 0)
(-0.0259427 0.392887 0)
(-0.0195976 0.399145 0)
(-0.014841 0.397691 0)
(-3.82841e-05 0.40328 0)
(0.0129027 0.400624 0)
(0.0383697 0.403773 0)
(0.0621925 0.399202 0)
(0.0983093 0.397899 0)
(0.133723 0.390047 0)
(0.17912 0.38237 0)
(0.224565 0.369389 0)
(0.276482 0.356166 0)
(0.328377 0.338765 0)
(0.385722 0.323422 0)
(0.44126 0.303685 0)
(0.49666 0.28292 0)
(0.556217 0.267996 0)
(-0.00435714 0.390683 0)
(-0.00848435 0.39041 0)
(-0.0162972 0.390751 0)
(-0.0190004 0.391239 0)
(-0.0244797 0.3899 0)
(-0.0240789 0.391302 0)
(-0.0253061 0.387798 0)
(-0.0201326 0.390118 0)
(-0.0150346 0.384293 0)
(-0.00253613 0.386223 0)
(0.0101271 0.378854 0)
(0.032052 0.377264 0)
(0.0547449 0.36779 0)
(0.0870349 0.360928 0)
(0.120558 0.348292 0)
(0.162603 0.335354 0)
(0.206085 0.318259 0)
(0.256056 0.30133 0)
(0.306877 0.27995 0)
(0.362835 0.261952 0)
(0.41928 0.240946 0)
(0.474836 0.216257 0)
(0.536216 0.205064 0)
(-0.00447789 0.397653 0)
(-0.00967268 0.396971 0)
(-0.017895 0.396776 0)
(-0.0216213 0.396447 0)
(-0.0274922 0.394239 0)
(-0.0282441 0.394243 0)
(-0.0296123 0.389025 0)
(-0.0257165 0.388934 0)
(-0.0204194 0.380169 0)
(-0.00966312 0.378089 0)
(0.00466665 0.365955 0)
(0.0240935 0.35897 0)
(0.0475959 0.343877 0)
(0.0769074 0.331672 0)
(0.109543 0.313856 0)
(0.149124 0.296216 0)
(0.190778 0.275088 0)
(0.239307 0.25459 0)
(0.288862 0.230939 0)
(0.344045 0.210077 0)
(0.400615 0.190456 0)
(0.456957 0.164942 0)
(0.516267 0.155919 0)
(-0.00461483 0.404872 0)
(-0.0114761 0.403867 0)
(-0.0202735 0.40272 0)
(-0.0251377 0.400838 0)
(-0.0315872 0.39647 0)
(-0.0332223 0.39326 0)
(-0.0350834 0.385035 0)
(-0.0324472 0.38056 0)
(-0.0276367 0.367824 0)
(-0.0191552 0.360651 0)
(-0.00613839 0.344613 0)
(0.00977782 0.333797 0)
(0.0314494 0.314528 0)
(0.0572728 0.298468 0)
(0.0882114 0.27568 0)
(0.125583 0.253606 0)
(0.1662 0.227717 0)
(0.213988 0.202698 0)
(0.264269 0.174893 0)
(0.320306 0.149586 0)
(0.379919 0.127806 0)
(0.4411 0.0998796 0)
(0.505911 0.0894689 0)
(-0.00533918 0.413739 0)
(-0.0146856 0.412617 0)
(-0.0251285 0.410436 0)
(-0.032184 0.407733 0)
(-0.0404122 0.402363 0)
(-0.0445477 0.397771 0)
(-0.0483131 0.388397 0)
(-0.0483096 0.381614 0)
(-0.0452116 0.367104 0)
(-0.0395703 0.356749 0)
(-0.0279127 0.337193 0)
(-0.013877 0.321433 0)
(0.00767032 0.296335 0)
(0.0320609 0.274715 0)
(0.0629302 0.245242 0)
(0.0991086 0.217794 0)
(0.139451 0.186172 0)
(0.187162 0.1559 0)
(0.238353 0.123957 0)
(0.295696 0.0936723 0)
(0.357862 0.0689119 0)
(0.422944 0.0381157 0)
(0.492277 0.0238071 0)
(-0.00653455 0.424983 0)
(-0.0188208 0.423746 0)
(-0.0317312 0.420283 0)
(-0.0416898 0.416161 0)
(-0.0523418 0.408821 0)
(-0.0590371 0.401059 0)
(-0.0649621 0.388601 0)
(-0.0672941 0.377121 0)
(-0.066467 0.358653 0)
(-0.0633941 0.342789 0)
(-0.0543914 0.318309 0)
(-0.0435867 0.297535 0)
(-0.0252669 0.267949 0)
(-0.00467643 0.242562 0)
(0.0240709 0.208034 0)
(0.0574759 0.176465 0)
(0.0969113 0.139082 0)
(0.144107 0.103122 0)
(0.19646 0.0657477 0)
(0.256027 0.0292809 0)
(0.322918 -7.32557e-05 0)
(0.3945 -0.035541 0)
(0.473047 -0.0526436 0)
(-0.00823259 0.439117 0)
(-0.0239887 0.437837 0)
(-0.0401618 0.433332 0)
(-0.0538294 0.428356 0)
(-0.067854 0.41977 0)
(-0.0783708 0.410436 0)
(-0.0882442 0.396806 0)
(-0.0947639 0.383262 0)
(-0.0983862 0.363477 0)
(-0.0992015 0.344927 0)
(-0.0943076 0.317709 0)
(-0.0868723 0.292557 0)
(-0.0714505 0.257621 0)
(-0.0534471 0.225425 0)
(-0.0258542 0.182997 0)
(0.00514166 0.144725 0)
(0.0451759 0.0991903 0)
(0.0921908 0.0559016 0)
(0.146051 0.011502 0)
(0.207707 -0.0334095 0)
(0.27843 -0.0702165 0)
(0.354901 -0.112823 0)
(0.440798 -0.137393 0)
(-0.0103857 0.457391 0)
(-0.0299174 0.455864 0)
(-0.0502033 0.45029 0)
(-0.0682299 0.443989 0)
(-0.0865264 0.433454 0)
(-0.101657 0.421461 0)
(-0.116079 0.404929 0)
(-0.126887 0.387068 0)
(-0.135086 0.362788 0)
(-0.139961 0.338242 0)
(-0.140094 0.305415 0)
(-0.137668 0.273981 0)
(-0.128396 0.233803 0)
(-0.116342 0.196241 0)
(-0.094718 0.148718 0)
(-0.0700939 0.104795 0)
(-0.0334391 0.051261 0)
(0.00868942 0.00155403 0)
(0.0626731 -0.0506291 0)
(0.126059 -0.10397 0)
(0.200387 -0.148192 0)
(0.282122 -0.199038 0)
(0.377414 -0.229842 0)
(-0.0126486 0.479478 0)
(-0.03628 0.47772 0)
(-0.0609307 0.471711 0)
(-0.0835815 0.464743 0)
(-0.106416 0.453302 0)
(-0.126662 0.440087 0)
(-0.146206 0.422216 0)
(-0.162579 0.402438 0)
(-0.176865 0.376833 0)
(-0.18795 0.350219 0)
(-0.194772 0.315807 0)
(-0.197983 0.281231 0)
(-0.193735 0.236669 0)
(-0.185558 0.191972 0)
(-0.167129 0.136841 0)
(-0.146073 0.0833269 0)
(-0.111284 0.0201838 0)
(-0.0741675 -0.0405765 0)
(-0.0204363 -0.106386 0)
(0.0402515 -0.171721 0)
(0.114708 -0.226981 0)
(0.199172 -0.290745 0)
(0.300563 -0.334622 0)
(-0.0150331 0.506658 0)
(-0.0432646 0.504484 0)
(-0.0727999 0.497909 0)
(-0.100541 0.489753 0)
(-0.128583 0.476776 0)
(-0.154405 0.46141 0)
(-0.179616 0.440948 0)
(-0.201853 0.417705 0)
(-0.222212 0.388066 0)
(-0.238957 0.355895 0)
(-0.251921 0.315081 0)
(-0.261187 0.272408 0)
(-0.264672 0.22074 0)
(-0.264774 0.168987 0)
(-0.255981 0.108529 0)
(-0.242841 0.048439 0)
(-0.214369 -0.0214625 0)
(-0.182078 -0.0898768 0)
(-0.130358 -0.166028 0)
(-0.0754608 -0.239943 0)
(-0.00182974 -0.308218 0)
(0.0835646 -0.386086 0)
(0.187723 -0.44121 0)
(-0.0172152 0.537852 0)
(-0.0498298 0.535577 0)
(-0.0838379 0.529095 0)
(-0.116193 0.520644 0)
(-0.149006 0.507333 0)
(-0.179932 0.491297 0)
(-0.210574 0.469915 0)
(-0.238653 0.445281 0)
(-0.265442 0.41426 0)
(-0.288972 0.380241 0)
(-0.309608 0.338443 0)
(-0.326474 0.294383 0)
(-0.337818 0.240739 0)
(-0.34379 0.18362 0)
(-0.339938 0.115198 0)
(-0.331505 0.0416233 0)
(-0.310461 -0.0405743 0)
(-0.285356 -0.124938 0)
(-0.244652 -0.213348 0)
(-0.205642 -0.300728 0)
(-0.141609 -0.386603 0)
(-0.0639285 -0.481207 0)
(0.0316218 -0.55368 0)
(-0.0196864 0.57424 0)
(-0.0573962 0.571637 0)
(-0.096502 0.564775 0)
(-0.134152 0.555361 0)
(-0.172437 0.540922 0)
(-0.209048 0.523283 0)
(-0.245646 0.499943 0)
(-0.279844 0.472719 0)
(-0.313136 0.438516 0)
(-0.343013 0.400036 0)
(-0.370446 0.35253 0)
(-0.393677 0.300371 0)
(-0.412771 0.237699 0)
(-0.427818 0.170642 0)
(-0.43749 0.0956786 0)
(-0.441511 0.0186688 0)
(-0.437338 -0.0683928 0)
(-0.433492 -0.155998 0)
(-0.421499 -0.246612 0)
(-0.391417 -0.343611 0)
(-0.328262 -0.451159 0)
(-0.249911 -0.56053 0)
(-0.156291 -0.652187 0)
(-0.0214926 0.614994 0)
(-0.062945 0.612483 0)
(-0.105984 0.605986 0)
(-0.147788 0.596744 0)
(-0.190667 0.582475 0)
(-0.232103 0.564772 0)
(-0.274168 0.541063 0)
(-0.314048 0.513116 0)
(-0.353921 0.477843 0)
(-0.390732 0.437922 0)
(-0.426638 0.38953 0)
(-0.459096 0.337094 0)
(-0.489099 0.27539 0)
(-0.51449 0.208768 0)
(-0.53468 0.129463 0)
(-0.554068 0.0414458 0)
(-0.575319 -0.0480712 0)
(-0.602707 -0.14103 0)
(-0.594384 -0.255415 0)
(-0.547456 -0.394511 0)
(-0.478136 -0.528592 0)
(-0.396738 -0.654028 0)
(-0.302016 -0.764278 0)
(-0.0242211 0.659428 0)
(-0.0712136 0.656865 0)
(-0.119538 0.650304 0)
(-0.166661 0.640638 0)
(-0.214957 0.625793 0)
(-0.261996 0.607217 0)
(-0.310054 0.582314 0)
(-0.356337 0.552759 0)
(-0.403241 0.515529 0)
(-0.447695 0.472928 0)
(-0.491946 0.421159 0)
(-0.533158 0.362906 0)
(-0.573833 0.293168 0)
(-0.614399 0.216043 0)
(-0.66236 0.134944 0)
(-0.71432 0.0595414 0)
(-0.76446 -0.0202405 0)
(-0.769817 -0.136676 0)
(-0.718907 -0.302589 0)
(-0.663117 -0.460305 0)
(-0.595103 -0.602968 0)
(-0.519027 -0.737777 0)
(-0.429378 -0.860986 0)
(-0.0251802 0.710505 0)
(-0.0743169 0.707912 0)
(-0.125353 0.701625 0)
(-0.175769 0.692393 0)
(-0.228225 0.678161 0)
(-0.279998 0.660243 0)
(-0.333757 0.635888 0)
(-0.386315 0.60677 0)
(-0.440747 0.569746 0)
(-0.493433 0.527114 0)
(-0.548085 0.475503 0)
(-0.601399 0.419443 0)
(-0.658395 0.357174 0)
(-0.717605 0.297993 0)
(-0.786491 0.230477 0)
(-0.861256 0.143845 0)
(-0.894253 0.00836483 0)
(-0.847149 -0.187203 0)
(-0.802514 -0.362273 0)
(-0.751295 -0.519361 0)
(-0.692534 -0.673258 0)
(-0.616807 -0.820828 0)
(-0.526809 -0.96316 0)
(-0.0281491 0.759723 0)
(-0.083294 0.75784 0)
(-0.140274 0.752517 0)
(-0.196475 0.744201 0)
(-0.254515 0.730691 0)
(-0.312017 0.713305 0)
(-0.372085 0.689213 0)
(-0.43155 0.660199 0)
(-0.493763 0.623197 0)
(-0.555973 0.580679 0)
(-0.622228 0.529737 0)
(-0.692221 0.473664 0)
(-0.771038 0.410032 0)
(-0.862583 0.344382 0)
(-0.949128 0.278783 0)
(-0.992577 0.167962 0)
(-0.951028 -0.035211 0)
(-0.910558 -0.228658 0)
(-0.878065 -0.399245 0)
(-0.825906 -0.570887 0)
(-0.764518 -0.738088 0)
(-0.684696 -0.904458 0)
(-0.592218 -1.06448 0)
(-0.0283715 0.822363 0)
(-0.0840061 0.820477 0)
(-0.141645 0.815258 0)
(-0.199202 0.807042 0)
(-0.259842 0.794209 0)
(-0.321066 0.778291 0)
(-0.386083 0.756 0)
(-0.452115 0.728973 0)
(-0.522416 0.694789 0)
(-0.593811 0.656117 0)
(-0.670971 0.612345 0)
(-0.752745 0.568886 0)
(-0.845741 0.5282 0)
(-0.945424 0.477345 0)
(-1.03178 0.361636 0)
(-1.02828 0.145288 0)
(-0.984957 -0.0733477 0)
(-0.965732 -0.260747 0)
(-0.917986 -0.447233 0)
(-0.865385 -0.633538 0)
(-0.795853 -0.815131 0)
(-0.716888 -0.994227 0)
(-0.625079 -1.16923 0)
(-0.0307842 0.872396 0)
(-0.0914346 0.871465 0)
(-0.154409 0.86815 0)
(-0.217957 0.862906 0)
(-0.285622 0.853181 0)
(-0.3547 0.840214 0)
(-0.428173 0.821104 0)
(-0.50313 0.79734 0)
(-0.583982 0.765891 0)
(-0.668607 0.730158 0)
(-0.76179 0.689888 0)
(-0.862161 0.649405 0)
(-0.969268 0.604084 0)
(-1.06281 0.530565 0)
(-1.08473 0.362227 0)
(-1.04433 0.120214 0)
(-1.02581 -0.0974048 0)
(-0.988693 -0.296846 0)
(-0.937557 -0.499635 0)
(-0.881014 -0.694033 0)
(-0.812912 -0.88721 0)
(-0.73781 -1.07627 0)
(-0.652611 -1.26315 0)
(-0.0311468 0.94607 0)
(-0.0925461 0.945535 0)
(-0.156165 0.943096 0)
(-0.2201 0.939393 0)
(-0.287574 0.931949 0)
(-0.356588 0.921585 0)
(-0.430692 0.905071 0)
(-0.507748 0.885256 0)
(-0.592465 0.860824 0)
(-0.68302 0.834362 0)
(-0.785399 0.806551 0)
(-0.897094 0.777088 0)
(-1.01164 0.729707 0)
(-1.09551 0.594425 0)
(-1.08949 0.341918 0)
(-1.05315 0.0877048 0)
(-1.03275 -0.130593 0)
(-0.982362 -0.348758 0)
(-0.93424 -0.555887 0)
(-0.872989 -0.758884 0)
(-0.810085 -0.959158 0)
(-0.737432 -1.15563 0)
(-0.661608 -1.34958 0)
(-0.0315269 0.994911 0)
(-0.0939774 0.995415 0)
(-0.159363 0.994877 0)
(-0.226567 0.993745 0)
(-0.298964 0.989538 0)
(-0.37501 0.98353 0)
(-0.458069 0.97294 0)
(-0.54627 0.959953 0)
(-0.642112 0.942363 0)
(-0.741664 0.924317 0)
(-0.852697 0.905369 0)
(-0.967061 0.876701 0)
(-1.07594 0.803168 0)
(-1.11616 0.608014 0)
(-1.08279 0.32019 0)
(-1.06203 0.0627526 0)
(-1.02232 -0.168419 0)
(-0.971862 -0.39565 0)
(-0.921188 -0.609374 0)
(-0.860254 -0.818485 0)
(-0.801737 -1.02305 0)
(-0.735382 -1.22503 0)
(-0.667874 -1.42326 0)
(-0.0330742 1.07527 0)
(-0.0987046 1.07694 0)
(-0.166688 1.07904 0)
(-0.236057 1.08201 0)
(-0.309597 1.08303 0)
(-0.385534 1.08289 0)
(-0.46724 1.07813 0)
(-0.553378 1.0708 0)
(-0.648383 1.05742 0)
(-0.749416 1.04608 0)
(-0.864691 1.03347 0)
(-0.980525 1.00152 0)
(-1.0807 0.881408 0)
(-1.09399 0.600274 0)
(-1.05323 0.288895 0)
(-1.03406 0.0255292 0)
(-0.983932 -0.220783 0)
(-0.938592 -0.451418 0)
(-0.88396 -0.668486 0)
(-0.831796 -0.879957 0)
(-0.774952 -1.08572 0)
(-0.719019 -1.29134 0)
(-0.65709 -1.493 0)
(-0.0299413 1.12274 0)
(-0.0900133 1.12521 0)
(-0.153958 1.1287 0)
(-0.221857 1.13348 0)
(-0.29671 1.1364 0)
(-0.377586 1.13907 0)
(-0.46695 1.13943 0)
(-0.564478 1.1402 0)
(-0.673771 1.13837 0)
(-0.795779 1.14062 0)
(-0.92344 1.13674 0)
(-1.03972 1.09223 0)
(-1.10591 0.916167 0)
(-1.0881 0.579906 0)
(-1.053 0.261259 0)
(-1.01645 -0.00721183 0)
(-0.958766 -0.262759 0)
(-0.912192 -0.495657 0)
(-0.853903 -0.714891 0)
(-0.805861 -0.926641 0)
(-0.749954 -1.13412 0)
(-0.700838 -1.3414 0)
(-0.64491 -1.54636 0)
(-0.0320872 1.20227 0)
(-0.0959115 1.20794 0)
(-0.162975 1.21776 0)
(-0.232763 1.23148 0)
(-0.308458 1.24515 0)
(-0.389876 1.25918 0)
(-0.4794 1.27039 0)
(-0.574108 1.28273 0)
(-0.676524 1.29265 0)
(-0.787805 1.30015 0)