/*--------------------------------*- C++ -*----------------------------------*\
| =========                 |                                                 |
| \\      /  F ield         | OpenFOAM: The Open Source CFD Toolbox           |
|  \\    /   O peration     | Version:  2012                                  |
|   \\  /    A nd           | Website:  www.openfoam.com                      |
|    \\/     M anipulation  |                                                 |
\*---------------------------------------------------------------------------*/
FoamFile
{
    version     2.0;
    format      ascii;
    class       volVectorField;
    location    "0.7";
    object      Uc;
}
// * * * * * * * * * * * * * * * * * * * * * * * * * * * * * * * * * * * * * //

dimensions      [0 1 -1 0 0 0 0];


internalField   nonuniform List<vector> 
2268
(
(-0.00339196 0.00160301 0)
(-0.00944503 0.00125762 0)
(-0.0156491 0.00167439 0)
(-0.0241498 0.00234297 0)
(-0.0347624 0.00267247 0)
(-0.0452686 0.00229264 0)
(-0.0552121 0.00240659 0)
(-0.0668024 0.00307092 0)
(-0.0792707 0.00282151 0)
(-0.090922 0.0026848 0)
(-0.101967 0.00253512 0)
(-0.111877 0.00214819 0)
(-0.119218 0.0013211 0)
(-0.123104 0.00051511 0)
(-0.124192 -5.49354e-07 0)
(-0.12337 -0.000388186 0)
(-0.120441 -0.000995893 0)
(-0.114065 -0.00201724 0)
(-0.103626 -0.00291652 0)
(-0.0869966 -0.00494229 0)
(-0.0655806 -0.00517879 0)
(-0.0357906 -0.00889977 0)
(-0.00847941 -0.00400738 0)
(-0.00349896 0.0048596 0)
(-0.00968178 0.00378362 0)
(-0.0158228 0.00498259 0)
(-0.0240542 0.00694225 0)
(-0.0343705 0.00796403 0)
(-0.0448169 0.00690308 0)
(-0.054931 0.00727521 0)
(-0.0666674 0.00922635 0)
(-0.0790353 0.00840346 0)
(-0.0906605 0.00810317 0)
(-0.102009 0.00770008 0)
(-0.112055 0.00641378 0)
(-0.119441 0.00401555 0)
(-0.123634 0.00163847 0)
(-0.124996 3.44794e-05 0)
(-0.124189 -0.00119326 0)
(-0.121139 -0.00301661 0)
(-0.114909 -0.00595394 0)
(-0.10515 -0.00852537 0)
(-0.090163 -0.0142752 0)
(-0.0715626 -0.0147574 0)
(-0.045791 -0.0255792 0)
(-0.0146647 -0.0149453 0)
(-0.00347332 0.00815465 0)
(-0.00946223 0.00624084 0)
(-0.0152795 0.00817674 0)
(-0.0231084 0.0113381 0)
(-0.0331211 0.0131755 0)
(-0.0438957 0.0117205 0)
(-0.0549698 0.0124711 0)
(-0.0675637 0.0155288 0)
(-0.0804079 0.0140161 0)
(-0.0922975 0.0136035 0)
(-0.103526 0.0128698 0)
(-0.113163 0.0105457 0)
(-0.12019 0.00669508 0)
(-0.124328 0.00289608 0)
(-0.125857 0.000143454 0)
(-0.125162 -0.00201195 0)
(-0.12194 -0.00516239 0)
(-0.115291 -0.00989459 0)
(-0.105097 -0.0140144 0)
(-0.0896089 -0.0231886 0)
(-0.0698199 -0.0239865 0)
(-0.0416938 -0.0418218 0)
(-0.0118932 -0.0274965 0)
(-0.00346249 0.0114325 0)
(-0.00947449 0.00863457 0)
(-0.0153888 0.0113273 0)
(-0.0230107 0.0154895 0)
(-0.032404 0.0181952 0)
(-0.0428531 0.016731 0)
(-0.0540977 0.0180083 0)
(-0.0666831 0.0218912 0)
(-0.0794485 0.0197566 0)
(-0.0916698 0.0192575 0)
(-0.103466 0.0180973 0)
(-0.113933 0.014819 0)
(-0.122042 0.0095747 0)
(-0.127006 0.00431781 0)
(-0.128656 0.000224169 0)
(-0.12768 -0.00288213 0)
(-0.124471 -0.0073318 0)
(-0.118481 -0.013698 0)
(-0.109227 -0.0194023 0)
(-0.0947549 -0.0319594 0)
(-0.0748253 -0.0339865 0)
(-0.0442891 -0.0595452 0)
(-0.012347 -0.0389525 0)
(-0.00294384 0.01446 0)
(-0.00846449 0.0110572 0)
(-0.0142901 0.0144528 0)
(-0.0215138 0.01938 0)
(-0.0304052 0.0229459 0)
(-0.0412218 0.0220302 0)
(-0.0540308 0.0240766 0)
(-0.0681094 0.0284241 0)
(-0.0818606 0.0257552 0)
(-0.0947014 0.0251031 0)
(-0.106366 0.0233392 0)
(-0.116319 0.0192277 0)
(-0.123885 0.0125738 0)
(-0.128414 0.0058052 0)
(-0.129965 0.000249147 0)
(-0.129315 -0.00367543 0)
(-0.126523 -0.00937477 0)
(-0.120909 -0.017139 0)
(-0.112195 -0.0244527 0)
(-0.0985373 -0.040203 0)
(-0.0783853 -0.0446853 0)
(-0.0424133 -0.0802777 0)
(-0.00906937 -0.0490738 0)
(-0.00240407 0.0169874 0)
(-0.00803474 0.0137999 0)
(-0.0147109 0.0176183 0)
(-0.0218548 0.0230045 0)
(-0.029829 0.027292 0)
(-0.0398562 0.0275348 0)
(-0.0524573 0.0305806 0)
(-0.0660681 0.0350059 0)
(-0.0795502 0.0320437 0)
(-0.0932455 0.0313554 0)
(-0.106496 0.0288612 0)
(-0.118326 0.0240006 0)
(-0.127707 0.0158096 0)
(-0.133089 0.0072533 0)
(-0.134294 0.000103527 0)
(-0.133198 -0.00435521 0)
(-0.130673 -0.0112075 0)
(-0.12607 -0.0201351 0)
(-0.118545 -0.0291308 0)
(-0.106736 -0.0475607 0)
(-0.0867339 -0.056304 0)
(-0.0449517 -0.105405 0)
(-0.00802865 -0.0571543 0)
(-0.00138907 0.01878 0)
(-0.0060047 0.0168496 0)
(-0.01263 0.0208548 0)
(-0.019368 0.0263285 0)
(-0.026663 0.0311841 0)
(-0.0371206 0.0333237 0)
(-0.0517628 0.0376667 0)
(-0.0677911 0.041927 0)
(-0.083301 0.038824 0)
(-0.0979226 0.0379575 0)
(-0.110678 0.0345493 0)
(-0.1216 0.0290652 0)
(-0.130203 0.0192437 0)
(-0.134956 0.00860869 0)
(-0.135957 -0.000209039 0)
(-0.135545 -0.0047552 0)
(-0.134061 -0.0127021 0)
(-0.130439 -0.0225279 0)
(-0.124042 -0.0333174 0)
(-0.114164 -0.0536233 0)
(-0.0948476 -0.0688229 0)
(-0.0472562 -0.135124 0)
(-0.00663337 -0.0640835 0)
(-0.000735036 0.0197831 0)
(-0.0045757 0.0198414 0)
(-0.0111569 0.0241032 0)
(-0.0177967 0.029402 0)
(-0.0244582 0.0347063 0)
(-0.0343498 0.0394183 0)
(-0.0486038 0.0452282 0)
(-0.0643324 0.0493735 0)
(-0.0804533 0.046326 0)
(-0.0963782 0.0448916 0)
(-0.111135 0.0406172 0)
(-0.125141 0.0347784 0)
(-0.136346 0.0228913 0)
(-0.141375 0.00958408 0)
(-0.140995 -0.000891085 0)
(-0.139834 -0.00481629 0)
(-0.138945 -0.0137627 0)
(-0.136582 -0.024296 0)
(-0.131585 -0.0369337 0)
(-0.125216 -0.0576855 0)
(-0.108641 -0.0817227 0)
(-0.0802032 -0.158154 0)
(-0.0327298 -0.0826862 0)
(-0.465349 0.197418 0)
(-1.15839 0.0961941 0)
(-1.49256 0.0448853 0)
(-1.61736 0.00744454 0)
(-1.58965 -0.0196464 0)
(-1.44709 -0.0410483 0)
(-1.276 -0.0318064 0)
(-1.22264 0.00891929 0)
(-1.3356 0.038804 0)
(-1.50144 0.0311762 0)
(-1.61067 0.0147503 0)
(-1.65468 0.00356848 0)
(-1.66212 -0.000768535 0)
(-1.65938 -0.000747697 0)
(-1.65477 -0.00155648 0)
(-1.62775 -0.0102511 0)
(-1.5032 -0.0429405 0)
(-1.20732 -0.0828577 0)
(-0.506124 -0.215485 0)
(-0.370566 0.55218 0)
(-0.907935 0.263062 0)
(-1.13983 0.117219 0)
(-1.21622 0.0193627 0)
(-1.20351 -0.0495777 0)
(-1.09244 -0.119127 0)
(-0.943067 -0.0902325 0)
(-0.938328 0.0421796 0)
(-1.09843 0.12101 0)
(-1.26467 0.0891193 0)
(-1.36133 0.0431462 0)
(-1.39996 0.00915094 0)
(-1.40077 -0.00397762 0)
(-1.39317 -0.00293942 0)
(-1.38948 -0.00373234 0)
(-1.37332 -0.0271831 0)
(-1.27654 -0.120727 0)
(-1.08119 -0.21401 0)
(-0.483718 -0.637216 0)
(-0.313731 0.84296 0)
(-0.716188 0.371296 0)
(-0.855345 0.165809 0)
(-0.925378 0.0318824 0)
(-0.900328 -0.0790387 0)
(-0.693784 -0.225121 0)
(-0.367069 -0.187059 0)
(-0.235928 0.0803629 0)
(-0.412006 0.224097 0)
(-0.682171 0.169437 0)
(-0.946213 0.113848 0)
(-1.1895 0.0556467 0)
(-1.35553 0.0177137 0)
(-1.42168 -0.00224262 0)
(-1.4261 -0.00631196 0)
(-1.42911 -0.0322238 0)
(-1.39313 -0.173965 0)
(-1.10921 -0.365354 0)
(-0.433504 -1.02942 0)
(-0.229852 1.07406 0)
(-0.58061 0.459853 0)
(-0.853982 0.251088 0)
(-1.0437 0.0550424 0)
(-0.900856 -0.17539 0)
(-0.47809 -0.397759 0)
(-0.0762992 -0.325008 0)
(0.265892 0.0162901 0)
(0.542474 0.243841 0)
(0.594261 0.240281 0)
(0.492792 0.195481 0)
(0.301263 0.15532 0)
(-0.0308583 0.126194 0)
(-0.434552 0.0854891 0)
(-0.894336 0.099838 0)
(-1.27396 0.02085 0)
(-1.3221 -0.22512 0)
(-0.885639 -0.622697 0)
(-0.262113 -1.32714 0)
(-0.132168 1.22785 0)
(-0.440834 0.585247 0)
(-0.80983 0.39645 0)
(-0.94797 0.0463675 0)
(-0.584091 -0.384884 0)
(-0.0759895 -0.586302 0)
(0.181842 -0.418027 0)
(0.366317 -0.114894 0)
(0.62463 0.147276 0)
(0.854281 0.216401 0)
(1.00746 0.195622 0)
(1.10291 0.193391 0)
(1.14743 0.207315 0)
(1.06025 0.209756 0)
(0.875372 0.246204 0)
(0.598545 0.15001 0)
(0.200193 -0.167924 0)
(-0.0286151 -0.771265 0)
(-0.0219466 -1.44837 0)
(0.0129661 1.27828 0)
(-0.164472 0.73984 0)
(-0.349509 0.474842 0)
(-0.161177 -0.0559021 0)
(0.103774 -0.552714 0)
(0.237185 -0.693278 0)
(0.344762 -0.467191 0)
(0.505675 -0.212727 0)
(0.711808 0.0475317 0)
(0.890516 0.14233 0)
(1.0125 0.152188 0)
(1.09215 0.161339 0)
(1.15493 0.192084 0)
(1.20244 0.239561 0)
(1.23639 0.277716 0)
(1.20977 0.244188 0)
(1.0262 -0.0181272 0)
(0.639996 -0.662409 0)
(0.198279 -1.37361 0)
(0.0219382 1.2629 0)
(-0.0852956 0.874197 0)
(-0.0593562 0.405418 0)
(0.307178 -0.224954 0)
(0.486221 -0.574824 0)
(0.425932 -0.703661 0)
(0.440081 -0.508973 0)
(0.560943 -0.290813 0)
(0.72624 -0.0323841 0)
(0.885672 0.0784049 0)
(1.00116 0.115087 0)
(1.07695 0.13227 0)
(1.13861 0.167982 0)
(1.18935 0.221197 0)
(1.23407 0.26131 0)
(1.26279 0.257564 0)
(1.20328 0.0692158 0)
(0.822697 -0.425612 0)
(0.253956 -1.18121 0)
(0.0144834 1.24667 0)
(-0.0810711 0.974379 0)
(-0.0838218 0.292572 0)
(0.259927 -0.393598 0)
(0.486989 -0.557715 0)
(0.460866 -0.684882 0)
(0.488905 -0.545922 0)
(0.605953 -0.355242 0)
(0.748435 -0.099225 0)
(0.873 0.0240286 0)
(0.963038 0.0815977 0)
(1.02989 0.104685 0)
(1.08833 0.144172 0)
(1.14341 0.199858 0)
(1.1915 0.243005 0)
(1.20486 0.257415 0)
(1.11725 0.130967 0)
(0.708352 -0.152424 0)
(0.190071 -0.99234 0)
(0.000690477 0.0194372 0)
(-0.000513183 0.0232154 0)
(-0.00487124 0.0282282 0)
(-0.0104321 0.0340174 0)
(-0.0172817 0.0401318 0)
(-0.0267289 0.0481621 0)
(-0.0390835 0.0556331 0)
(-0.0537322 0.0611183 0)
(-0.0715443 0.0600988 0)
(-0.091525 0.0587278 0)
(-0.111297 0.0536302 0)
(-0.128888 0.0460671 0)
(-0.14045 0.0285208 0)
(-0.14387 0.00976929 0)
(-0.14233 -0.00280392 0)
(-0.142217 -0.00356656 0)
(-0.14351 -0.0141322 0)
(-0.142471 -0.0260884 0)
(-0.138921 -0.0410713 0)
(-0.141345 -0.0541215 0)
(-0.146287 -0.088152 0)
(-0.169023 -0.142309 0)
(-0.162707 -0.127316 0)
(-0.0142466 0.0330559 0)
(-0.0420728 0.0387679 0)
(-0.0785745 0.0537548 0)
(-0.125203 0.0609848 0)
(-0.15155 0.0466098 0)
(-0.143291 0.0430071 0)
(-0.125603 0.0556061 0)
(-0.117633 0.0680811 0)
(-0.11882 0.0724707 0)
(-0.124402 0.0722273 0)
(-0.129894 0.0655987 0)
(-0.132776 0.0546903 0)
(-0.133214 0.0319581 0)
(-0.134272 0.0108317 0)
(-0.138236 -0.00143051 0)
(-0.145954 0.00270465 0)
(-0.154125 -0.0108897 0)
(-0.159477 -0.0249961 0)
(-0.168568 -0.0365935 0)
(-0.191368 -0.0332445 0)
(-0.232969 -0.0622421 0)
(-0.302793 -0.075176 0)
(-0.396314 -0.106792 0)
(-0.0220542 0.0695164 0)
(-0.0640927 0.0724822 0)
(-0.103041 0.0958423 0)
(-0.132756 0.0956196 0)
(-0.149987 0.0558114 0)
(-0.167169 0.0428727 0)
(-0.183245 0.0542869 0)
(-0.19259 0.0710232 0)
(-0.207702 0.0862182 0)
(-0.226531 0.0833718 0)
(-0.235007 0.0688745 0)
(-0.235762 0.0554199 0)
(-0.229777 0.0259134 0)
(-0.206739 -0.00507834 0)
(-0.16892 -0.0195265 0)
(-0.133562 -0.00700695 0)
(-0.112946 -0.013708 0)
(-0.113573 -0.0161805 0)
(-0.129486 -0.0202837 0)
(-0.154034 -0.00196247 0)
(-0.184946 -0.0206315 0)
(-0.228447 -0.00287112 0)
(-0.300443 -0.0127187 0)
(-0.0139155 0.105633 0)
(-0.042192 0.106967 0)
(-0.0621565 0.120499 0)
(-0.0689791 0.107612 0)
(-0.0921092 0.084313 0)
(-0.150751 0.0905174 0)
(-0.219329 0.0916784 0)
(-0.2751 0.099058 0)
(-0.319224 0.117755 0)
(-0.358056 0.109946 0)
(-0.390535 0.0837771 0)
(-0.416772 0.0680363 0)
(-0.431258 0.0221858 0)
(-0.413126 -0.0425338 0)
(-0.366128 -0.0672821 0)
(-0.322789 -0.0384034 0)
(-0.284778 -0.0412842 0)
(-0.237199 -0.0357844 0)
(-0.197703 -0.0244114 0)
(-0.181932 0.0107728 0)
(-0.17448 -0.00998137 0)
(-0.183974 0.0397034 0)
(-0.241008 0.0743913 0)
(-0.0173892 0.137062 0)
(-0.0515114 0.138183 0)
(-0.0840983 0.142028 0)
(-0.119469 0.128417 0)
(-0.160826 0.128251 0)
(-0.202508 0.147345 0)
(-0.248973 0.150413 0)
(-0.305798 0.153427 0)
(-0.362468 0.16463 0)
(-0.425759 0.165658 0)
(-0.513102 0.148473 0)
(-0.615533 0.132693 0)
(-0.719577 0.0767259 0)
(-0.822124 -0.0121948 0)
(-0.949659 -0.0166844 0)
(-1.16916 0.0880206 0)
(-1.45451 0.0808778 0)
(-1.56689 -0.0927793 0)
(-1.38467 -0.190085 0)
(-1.06459 -0.160764 0)
(-0.749777 -0.161578 0)
(-0.493842 -0.0554454 0)
(-0.366804 0.0997352 0)
(-0.0146251 0.169203 0)
(-0.0440514 0.169842 0)
(-0.0743445 0.173498 0)
(-0.109414 0.167676 0)
(-0.15174 0.173032 0)
(-0.19819 0.191077 0)
(-0.248103 0.203483 0)
(-0.305832 0.215427 0)
(-0.375647 0.229694 0)
(-0.46493 0.253882 0)
(-0.588338 0.272021 0)
(-0.753426 0.277985 0)
(-0.970687 0.254344 0)
(-1.2716 0.215679 0)
(-1.67978 0.293879 0)
(-2.15239 0.473118 0)
(-2.51954 0.351651 0)
(-2.55078 -0.219157 0)
(-2.30427 -0.493952 0)
(-1.98792 -0.494074 0)
(-1.67476 -0.456487 0)
(-1.36376 -0.32945 0)
(-1.06659 -0.0525416 0)
(-0.0154974 0.199444 0)
(-0.0466928 0.200461 0)
(-0.0781031 0.204826 0)
(-0.111739 0.205333 0)
(-0.149008 0.215306 0)
(-0.186951 0.233556 0)
(-0.225463 0.249812 0)
(-0.268325 0.270133 0)
(-0.318095 0.295117 0)
(-0.377522 0.337863 0)
(-0.452999 0.387881 0)
(-0.562031 0.437596 0)
(-0.730105 0.481998 0)
(-0.998512 0.560242 0)
(-1.34701 0.709886 0)
(-1.6708 0.857609 0)
(-1.88917 0.555661 0)
(-1.9875 -0.292778 0)
(-2.00943 -0.644282 0)
(-1.99463 -0.673475 0)
(-1.96286 -0.622601 0)
(-1.89985 -0.539498 0)
(-1.72897 -0.312169 0)
(-0.0137362 0.228791 0)
(-0.0416363 0.23044 0)
(-0.0705753 0.235433 0)
(-0.101802 0.239848 0)
(-0.135338 0.251888 0)
(-0.170075 0.269955 0)
(-0.206709 0.288871 0)
(-0.246882 0.314462 0)
(-0.291265 0.345352 0)
(-0.338377 0.394642 0)
(-0.387109 0.455879 0)
(-0.443905 0.53621 0)
(-0.519329 0.62807 0)
(-0.626105 0.791235 0)
(-0.756707 0.960436 0)
(-0.879848 1.05626 0)
(-1.07033 0.767896 0)
(-1.39499 -0.0797581 0)
(-1.63817 -0.589584 0)
(-1.69093 -0.688479 0)
(-1.70279 -0.626047 0)
(-1.7267 -0.572991 0)
(-1.70923 -0.467213 0)
(-0.0129984 0.255627 0)
(-0.0390105 0.257721 0)
(-0.064934 0.263224 0)
(-0.0915152 0.270089 0)
(-0.119223 0.283133 0)
(-0.147109 0.301584 0)
(-0.17513 0.322155 0)
(-0.204435 0.350941 0)
(-0.235479 0.384615 0)
(-0.267512 0.434857 0)
(-0.297484 0.494698 0)
(-0.323255 0.58031 0)
(-0.343615 0.680173 0)
(-0.347689 0.850482 0)
(-0.337335 1.022 0)
(-0.330779 1.11183 0)
(-0.38639 0.959624 0)
(-0.624103 0.293712 0)
(-1.01351 -0.327293 0)
(-1.3399 -0.569335 0)
(-1.48687 -0.582368 0)
(-1.49854 -0.573926 0)
(-1.47252 -0.506995 0)
(-0.0112537 0.279968 0)
(-0.0339112 0.282228 0)
(-0.0569229 0.287832 0)
(-0.0804961 0.295821 0)
(-0.104236 0.309041 0)
(-0.127559 0.327077 0)
(-0.15044 0.347752 0)
(-0.172968 0.377371 0)
(-0.19456 0.411018 0)
(-0.213953 0.460071 0)
(-0.228246 0.513901 0)
(-0.232032 0.59074 0)
(-0.218757 0.676785 0)
(-0.1699 0.808775 0)
(-0.0688588 0.95165 0)
(0.0691389 1.03679 0)
(0.17968 0.979366 0)
(0.107518 0.585367 0)
(-0.247559 0.129313 0)
(-0.757044 -0.185807 0)
(-1.16159 -0.410754 0)
(-1.35565 -0.534183 0)
(-1.39341 -0.52725 0)
(-0.00982867 0.301123 0)
(-0.0294907 0.303538 0)
(-0.0492074 0.309398 0)
(-0.0689066 0.317678 0)
(-0.088038 0.330203 0)
(-0.106041 0.34738 0)
(-0.122557 0.366976 0)
(-0.13727 0.395508 0)
(-0.149241 0.426542 0)
(-0.157029 0.471793 0)
(-0.159207 0.518657 0)
(-0.151947 0.582413 0)
(-0.130081 0.649709 0)
(-0.0831369 0.73947 0)
(0.00163621 0.834092 0)
(0.120213 0.896357 0)
(0.242393 0.885787 0)
(0.292715 0.700811 0)
(0.19448 0.469443 0)
(-0.0990101 0.281124 0)
(-0.57394 0.00627539 0)
(-1.03145 -0.296206 0)
(-1.27246 -0.480834 0)
(-0.00857542 0.319586 0)
(-0.0257015 0.321982 0)
(-0.0425065 0.327593 0)
(-0.0586562 0.335445 0)
(-0.0737667 0.346783 0)
(-0.0875083 0.362636 0)
(-0.0993663 0.380167 0)
(-0.108681 0.406395 0)
(-0.114379 0.433338 0)
(-0.114474 0.472844 0)
(-0.107131 0.512338 0)
(-0.0894505 0.563585 0)
(-0.057502 0.614364 0)
(-0.00584507 0.675621 0)
(0.0726728 0.733719 0)
(0.175763 0.773824 0)
(0.285671 0.774935 0)
(0.352347 0.693964 0)
(0.337631 0.589734 0)
(0.244449 0.549424 0)
(0.007912 0.453051 0)
(-0.413422 0.14034 0)
(-0.920224 -0.165771 0)
(-0.00711839 0.335326 0)
(-0.0212096 0.33755 0)
(-0.0348873 0.342594 0)
(-0.0479257 0.349712 0)
(-0.0597913 0.35956 0)
(-0.0699835 0.373844 0)
(-0.0778195 0.388682 0)
(-0.0824528 0.411827 0)
(-0.0828971 0.434005 0)
(-0.0775277 0.4668 0)
(-0.0648551 0.498186 0)
(-0.0434799 0.538401 0)
(-0.0116133 0.575323 0)
(0.0330654 0.617745 0)
(0.0935118 0.651825 0)
(0.169095 0.676031 0)
(0.253978 0.676837 0)
(0.32825 0.650289 0)
(0.37102 0.605111 0)
(0.391534 0.606996 0)
(0.39001 0.634684 0)
(0.269436 0.503341 0)
(-0.0450446 0.29669 0)
(-0.00606067 0.348538 0)
(-0.0179423 0.350375 0)
(-0.0291103 0.354674 0)
(-0.0392793 0.36089 0)
(-0.0479884 0.368993 0)
(-0.0548164 0.381449 0)
(-0.0591244 0.393212 0)
(-0.0600241 0.412786 0)
(-0.0566516 0.43003 0)
(-0.0475455 0.45615 0)
(-0.0312304 0.479622 0)
(-0.00638757 0.51043 0)
(0.0284535 0.536161 0)
(0.0739948 0.566138 0)
(0.130615 0.585674 0)
(0.196006 0.60039 0)
(0.265703 0.597007 0)
(0.333524 0.587197 0)
(0.392732 0.565601 0)
(0.451284 0.566933 0)
(0.528047 0.599018 0)
(0.614037 0.573673 0)
(0.681258 0.474805 0)
(-0.00491008 0.359531 0)
(-0.0145704 0.360966 0)
(-0.0237278 0.364444 0)
(-0.0320619 0.36965 0)
(-0.0389882 0.37588 0)
(-0.0439455 0.386338 0)
(-0.0462356 0.394884 0)
(-0.0450823 0.410787 0)
(-0.0396932 0.423149 0)
(-0.0290703 0.443126 0)
(-0.0122265 0.45924 0)
(0.0116954 0.481718 0)
(0.0435961 0.497707 0)
(0.0840403 0.518081 0)
(0.132806 0.527717 0)
(0.188675 0.536373 0)
(0.248718 0.530523 0)
(0.310039 0.52378 0)
(0.37041 0.508727 0)
(0.432915 0.502026 0)
(0.510772 0.508405 0)
(0.595476 0.492606 0)
(0.660385 0.422956 0)
(-0.00418964 0.368644 0)
(-0.0123486 0.369698 0)
(-0.0198515 0.372392 0)
(-0.0263138 0.376507 0)
(-0.0311663 0.380794 0)
(-0.0339083 0.389095 0)
(-0.033923 0.394376 0)
(-0.0305746 0.406701 0)
(-0.0231259 0.414259 0)
(-0.0109186 0.428995 0)
(0.00686169 0.438495 0)
(0.031069 0.45401 0)
(0.0621922 0.461988 0)
(0.100804 0.474256 0)
(0.146276 0.476735 0)
(0.197429 0.479696 0)
(0.252184 0.471722 0)
(0.309058 0.463684 0)
(0.36748 0.449324 0)
(0.42809 0.437582 0)
(0.496722 0.425505 0)
(0.574665 0.411918 0)
(0.644309 0.368295 0)
(-0.00354829 0.37639 0)
(-0.0104412 0.377017 0)
(-0.0167673 0.378908 0)
(-0.022218 0.3819 0)
(-0.0262856 0.384301 0)
(-0.0284507 0.390453 0)
(-0.0280752 0.392587 0)
(-0.0246571 0.40162 0)
(-0.0174271 0.404517 0)
(-0.00570495 0.414614 0)
(0.0112006 0.417938 0)
(0.0340665 0.427176 0)
(0.062902 0.428478 0)
(0.0980526 0.433545 0)
(0.139054 0.430446 0)
(0.185357 0.427945 0)
(0.235892 0.417555 0)
(0.289221 0.406991 0)
(0.344919 0.391219 0)
(0.402354 0.37694 0)
(0.462152 0.356958 0)
(0.525682 0.338164 0)
(0.586809 0.310502 0)
(-0.00325142 0.383193 0)
(-0.00953224 0.383392 0)
(-0.0152219 0.384547 0)
(-0.0199355 0.386413 0)
(-0.0231671 0.38706 0)
(-0.024391 0.391036 0)
(-0.0231802 0.390343 0)
(-0.019076 0.396235 0)
(-0.0112663 0.394716 0)
(0.000711586 0.400523 0)
(0.0174149 0.398176 0)
(0.0395151 0.401667 0)
(0.0670147 0.397287 0)
(0.10009 0.396082 0)
(0.138401 0.388108 0)
(0.181561 0.380278 0)
(0.228882 0.366779 0)
(0.279462 0.353237 0)
(0.333036 0.33505 0)
(0.388902 0.319134 0)
(0.445195 0.297981 0)
(0.502038 0.276055 0)
(0.555104 0.257733 0)
(-0.00315312 0.389599 0)
(-0.00923374 0.389348 0)
(-0.0147331 0.389775 0)
(-0.0192894 0.390441 0)
(-0.0224848 0.38943 0)
(-0.0238352 0.39119 0)
(-0.0229266 0.387995 0)
(-0.0192378 0.390685 0)
(-0.0121295 0.385204 0)
(-0.00128976 0.387032 0)
(0.0138099 0.379631 0)
(0.0337799 0.377855 0)
(0.0588655 0.368171 0)
(0.0892603 0.361326 0)
(0.124819 0.348537 0)
(0.165321 0.335678 0)
(0.210311 0.318511 0)
(0.259131 0.301511 0)
(0.311298 0.280404 0)
(0.366379 0.262175 0)
(0.422769 0.241588 0)
(0.480293 0.217401 0)
(0.537494 0.205459 0)
(-0.0034807 0.396237 0)
(-0.0102593 0.395576 0)
(-0.0164865 0.395274 0)
(-0.0217562 0.394757 0)
(-0.0256943 0.392222 0)
(-0.0277556 0.391765 0)
(-0.0275268 0.386214 0)
(-0.024464 0.385617 0)
(-0.0180128 0.376579 0)
(-0.00758217 0.374211 0)
(0.00728153 0.362267 0)
(0.0266184 0.355641 0)
(0.0507273 0.340867 0)
(0.0796043 0.328981 0)
(0.113341 0.311155 0)
(0.151916 0.2935 0)
(0.194989 0.272093 0)
(0.242292 0.251232 0)
(0.293233 0.226961 0)
(0.347608 0.205515 0)
(0.404011 0.184788 0)
(0.461402 0.158606 0)
(0.519385 0.148386 0)
(-0.00396728 0.403695 0)
(-0.0117926 0.40274 0)
(-0.0190115 0.401568 0)
(-0.0251396 0.399862 0)
(-0.0298732 0.395776 0)
(-0.0326469 0.393013 0)
(-0.0332036 0.385236 0)
(-0.0310186 0.381259 0)
(-0.0256995 0.369044 0)
(-0.0168626 0.362316 0)
(-0.00410677 0.346336 0)
(0.0126779 0.335199 0)
(0.0341134 0.315463 0)
(0.0603516 0.298917 0)
(0.0918021 0.275625 0)
(0.128569 0.253228 0)
(0.170366 0.226983 0)
(0.217192 0.201652 0)
(0.268498 0.173687 0)
(0.324204 0.14806 0)
(0.383517 0.125847 0)
(0.44542 0.0975541 0)
(0.509944 0.086213 0)
(-0.00495144 0.412632 0)
(-0.014796 0.411508 0)
(-0.0240086 0.40926 0)
(-0.0320919 0.406399 0)
(-0.0388909 0.400775 0)
(-0.0438399 0.39572 0)
(-0.046636 0.385842 0)
(-0.0466757 0.378438 0)
(-0.0435864 0.363354 0)
(-0.0369423 0.352385 0)
(-0.0260537 0.332439 0)
(-0.0105872 0.316615 0)
(0.00994709 0.291795 0)
(0.0354066 0.270554 0)
(0.0661509 0.241404 0)
(0.102218 0.214168 0)
(0.14354 0.182424 0)
(0.190464 0.151904 0)
(0.242505 0.119479 0)
(0.299703 0.0887043 0)
(0.361559 0.0633289 0)
(0.427155 0.0318355 0)
(0.496261 0.0175292 0)
(-0.00628581 0.423901 0)
(-0.0188178 0.422678 0)
(-0.0307288 0.419269 0)
(-0.0414894 0.415278 0)
(-0.0508699 0.408105 0)
(-0.0582476 0.400725 0)
(-0.0633518 0.388723 0)
(-0.0656721 0.377873 0)
(-0.06495 0.360031 0)
(-0.0608288 0.344829 0)
(-0.0527249 0.320845 0)
(-0.0403555 0.300169 0)
(-0.0232034 0.270298 0)
(-0.000994884 0.244073 0)
(0.0270328 0.208744 0)
(0.0609382 0.176428 0)
(0.100968 0.138324 0)
(0.147675 0.101817 0)
(0.200704 0.063881 0)
(0.260459 0.0266691 0)
(0.326835 -0.00360655 0)
(0.399136 -0.0399157 0)
(0.476916 -0.0584437 0)
(-0.0080037 0.438239 0)
(-0.0239392 0.436904 0)
(-0.0392798 0.432385 0)
(-0.0535584 0.427279 0)
(-0.0665118 0.418501 0)
(-0.0776359 0.408874 0)
(-0.0867217 0.394784 0)
(-0.0932416 0.380644 0)
(-0.0967701 0.360026 0)
(-0.096739 0.340605 0)
(-0.0925125 0.312619 0)
(-0.0835875 0.286933 0)
(-0.0693825 0.251956 0)
(-0.049493 0.22004 0)
(-0.0233034 0.178218 0)
(0.00923952 0.140098 0)
(0.0489057 0.0944811 0)
(0.0960296 0.0512763 0)
(0.150268 0.00653135 0)
(0.212385 -0.0385552 0)
(0.282396 -0.0755469 0)
(0.359919 -0.118648 0)
(0.44466 -0.143149 0)
(-0.0100262 0.456338 0)
(-0.0299585 0.454811 0)
(-0.049394 0.449386 0)
(-0.0679523 0.443236 0)
(-0.08529 0.432943 0)
(-0.100931 0.421286 0)
(-0.114523 0.405117 0)
(-0.125473 0.387822 0)
(-0.133383 0.364295 0)
(-0.13779 0.340683 0)
(-0.138352 0.308804 0)
(-0.134736 0.278088 0)
(-0.126358 0.238045 0)
(-0.112484 0.199955 0)
(-0.0923747 0.151705 0)
(-0.0653658 0.106691 0)
(-0.0302185 0.0526255 0)
(0.0136294 0.00162537 0)
(0.0671267 -0.0521766 0)
(0.131019 -0.106577 0)
(0.204565 -0.151895 0)
(0.287949 -0.204111 0)
(0.381373 -0.236847 0)
(-0.0121846 0.478641 0)
(-0.036394 0.476832 0)
(-0.0601977 0.470782 0)
(-0.0832991 0.46367 0)
(-0.105346 0.452052 0)
(-0.125965 0.43858 0)
(-0.144794 0.420364 0)
(-0.161336 0.400162 0)
(-0.17524 0.373833 0)
(-0.185955 0.346295 0)
(-0.192832 0.310618 0)
(-0.194972 0.274738 0)
(-0.191491 0.229422 0)
(-0.181622 0.184659 0)
(-0.164978 0.130002 0)
(-0.141039 0.0771264 0)
(-0.108982 0.0145792 0)
(-0.0681835 -0.0454735 0)
(-0.0167573 -0.110607 0)
(0.0457415 -0.175257 0)
(0.11934 -0.231188 0)
(0.205638 -0.295448 0)
(0.304713 -0.339078 0)
(-0.0145293 0.505472 0)
(-0.0434571 0.503371 0)
(-0.0721313 0.49695 0)
(-0.100306 0.489001 0)
(-0.127628 0.476302 0)
(-0.15376 0.461279 0)
(-0.178288 0.441203 0)
(-0.200704 0.418439 0)
(-0.220534 0.389419 0)
(-0.237139 0.358124 0)
(-0.250024 0.318607 0)
(-0.258667 0.277541 0)
(-0.26265 0.227074 0)
(-0.261272 0.175651 0)
(-0.253515 0.114431 0)
(-0.237523 0.0525062 0)
(-0.211824 -0.0189104 0)
(-0.175537 -0.0895254 0)
(-0.127777 -0.166314 0)
(-0.0689032 -0.241611 0)
(0.00305986 -0.311213 0)
(0.0902924 -0.389918 0)
(0.192261 -0.446762 0)
(-0.0167185 0.536862 0)
(-0.0500523 0.534526 0)
(-0.0832182 0.527916 0)
(-0.116016 0.519284 0)
(-0.14816 0.505753 0)
(-0.1794 0.489457 0)
(-0.209387 0.467781 0)
(-0.237695 0.442807 0)
(-0.263904 0.411287 0)
(-0.287435 0.376558 0)
(-0.307761 0.333512 0)
(-0.324099 0.287702 0)
(-0.335385 0.232216 0)
(-0.340153 0.17387 0)
(-0.337508 0.105709 0)
(-0.326989 0.0345301 0)
(-0.307983 -0.0459219 0)
(-0.27991 -0.12726 0)
(-0.243446 -0.213296 0)
(-0.197677 -0.299871 0)
(-0.136426 -0.386914 0)
(-0.057602 -0.481193 0)
(0.0381541 -0.554297 0)
(-0.0192304 0.572979 0)
(-0.0576272 0.570475 0)
(-0.0959455 0.563786 0)
(-0.134039 0.554637 0)
(-0.17167 0.540499 0)
(-0.208616 0.523215 0)
(-0.244538 0.500237 0)
(-0.279028 0.473438 0)
(-0.311612 0.439715 0)
(-0.341649 0.401936 0)
(-0.36856 0.355576 0)
(-0.391722 0.305302 0)
(-0.410755 0.24505 0)
(-0.425382 0.180489 0)
(-0.434914 0.105969 0)
(-0.438207 0.0269611 0)
(-0.436089 -0.0596331 0)
(-0.430055 -0.14788 0)
(-0.415488 -0.24402 0)
(-0.381601 -0.349265 0)
(-0.322857 -0.458189 0)
(-0.244419 -0.568052 0)
(-0.148923 -0.65974 0)
(-0.021072 0.613474 0)
(-0.0632323 0.610922 0)
(-0.105498 0.604308 0)
(-0.147806 0.594901 0)
(-0.189985 0.580424 0)
(-0.231865 0.56249 0)
(-0.273154 0.538539 0)
(-0.313503 0.510328 0)
(-0.35254 0.474782 0)
(-0.389813 0.434493 0)
(-0.425008 0.38541 0)
(-0.45764 0.331514 0)
(-0.48703 0.267474 0)
(-0.512204 0.198034 0)
(-0.5334 0.11927 0)
(-0.553409 0.0370426 0)
(-0.575645 -0.0495331 0)
(-0.592497 -0.147146 0)
(-0.583397 -0.268588 0)
(-0.54046 -0.401969 0)
(-0.47368 -0.531713 0)
(-0.391898 -0.655633 0)
(-0.295972 -0.764631 0)
(-0.0238241 0.658588 0)
(-0.0714451 0.656025 0)
(-0.119075 0.649536 0)
(-0.166725 0.640068 0)
(-0.214348 0.625496 0)
(-0.26189 0.607273 0)
(-0.309183 0.582769 0)
(-0.355997 0.553682 0)
(-0.402067 0.516943 0)
(-0.447016 0.474948 0)
(-0.490491 0.424 0)
(-0.532262 0.367679 0)
(-0.572974 0.30174 0)
(-0.61534 0.231624 0)
(-0.662413 0.154267 0)
(-0.712839 0.0728123 0)
(-0.752177 -0.023443 0)
(-0.754606 -0.153893 0)
(-0.71649 -0.309346 0)
(-0.658815 -0.462394 0)
(-0.591781 -0.605846 0)
(-0.514287 -0.741653 0)
(-0.423297 -0.866551 0)
(-0.0248418 0.707493 0)
(-0.0746997 0.705078 0)
(-0.125052 0.698946 0)
(-0.176071 0.689812 0)
(-0.227788 0.675581 0)
(-0.280167 0.657599 0)
(-0.333072 0.633134 0)
(-0.386336 0.603887 0)
(-0.439805 0.566765 0)
(-0.493357 0.52411 0)
(-0.547124 0.472558 0)
(-0.601633 0.415872 0)
(-0.658206 0.351308 0)
(-0.719235 0.285958 0)
(-0.787087 0.215428 0)
(-0.849908 0.12546 0)
(-0.873252 -0.0131147 0)
(-0.846738 -0.188473 0)
(-0.799818 -0.360287 0)
(-0.748279 -0.521275 0)
(-0.687137 -0.675849 0)
(-0.612045 -0.825074 0)
(-0.519958 -0.967207 0)
(-0.0278312 0.760427 0)
(-0.0836692 0.758364 0)
(-0.139949 0.752821 0)
(-0.196749 0.744291 0)
(-0.254142 0.730754 0)
(-0.312366 0.713579 0)
(-0.37159 0.689841 0)
(-0.431839 0.661259 0)
(-0.493312 0.624909 0)
(-0.556483 0.58327 0)
(-0.622609 0.533889 0)
(-0.693831 0.480898 0)
(-0.773557 0.423263 0)
(-0.860602 0.362823 0)
(-0.93763 0.284175 0)
(-0.970499 0.152871 0)
(-0.950427 -0.0372725 0)
(-0.911682 -0.229952 0)
(-0.872189 -0.405705 0)
(-0.822611 -0.577536 0)
(-0.758892 -0.745137 0)
(-0.680481 -0.91013 0)
(-0.58613 -1.06961 0)
(-0.0280677 0.816606 0)
(-0.0844317 0.814949 0)
(-0.141507 0.810159 0)
(-0.199808 0.802632 0)
(-0.259779 0.790366 0)
(-0.321756 0.774771 0)
(-0.386035 0.752773 0)
(-0.452832 0.726012 0)
(-0.522296 0.691753 0)
(-0.59481 0.652794 0)
(-0.671643 0.608045 0)
(-0.755013 0.562116 0)
(-0.846849 0.514481 0)
(-0.941475 0.454205 0)
(-1.00864 0.337713 0)
(-1.01759 0.141337 0)
(-0.990259 -0.0734195 0)
(-0.957827 -0.265384 0)
(-0.915925 -0.45212 0)
(-0.860306 -0.636901 0)
(-0.792598 -0.81792 0)
(-0.712763 -0.996457 0)
(-0.620593 -1.17081 0)
(-0.0305331 0.875503 0)
(-0.0919525 0.874431 0)
(-0.154452 0.870856 0)
(-0.218844 0.865249 0)
(-0.285796 0.855314 0)
(-0.355579 0.84225 0)
(-0.428286 0.822975 0)
(-0.504303 0.799349 0)
(-0.58459 0.768929 0)
(-0.670375 0.734723 0)
(-0.76318 0.69662 0)
(-0.863401 0.658072 0)
(-0.965336 0.613294 0)
(-1.04441 0.529984 0)
(-1.06853 0.353666 0)
(-1.0492 0.114915 0)
(-1.02057 -0.103277 0)
(-0.984462 -0.304444 0)
(-0.935524 -0.5044 0)
(-0.877368 -0.699021 0)
(-0.810402 -0.89121 0)
(-0.734495 -1.07976 0)
(-0.649566 -1.26557 0)
(-0.0309052 0.937253 0)
(-0.0930466 0.936869 0)
(-0.156158 0.934667 0)
(-0.220862 0.931192 0)
(-0.287804 0.923948 0)
(-0.35767 0.913977 0)
(-0.431211 0.898242 0)
(-0.509413 0.879089 0)
(-0.593643 0.854548 0)
(-0.68566 0.827816 0)
(-0.787385 0.799056 0)
(-0.897422 0.766979 0)
(-1.00357 0.713544 0)
(-1.07254 0.578538 0)
(-1.08141 0.338239 0)
(-1.05667 0.0860184 0)
(-1.0247 -0.135326 0)
(-0.982355 -0.351271 0)
(-0.930364 -0.559055 0)
(-0.871946 -0.761577 0)
(-0.806999 -0.961287 0)
(-0.735975 -1.15741 0)
(-0.658912 -1.35079 0)
(-0.0313624 0.999839 0)
(-0.0946681 1.00037 0)
(-0.159748 1.00001 0)
(-0.227768 0.99925 0)
(-0.299752 0.995527 0)
(-0.376612 0.989877 0)
(-0.459177 0.979249 0)
(-0.54798 0.965946 0)
(-0.64282 0.947682 0)
(-0.744278 0.929153 0)
(-0.853267 0.909523 0)
(-0.965315 0.879752 0)
(-1.05847 0.801107 0)
(-1.09736 0.599379 0)
(-1.08555 0.314412 0)
(-1.05693 0.0561909 0)
(-1.01915 -0.175635 0)
(-0.971369 -0.401574 0)
(-0.918112 -0.614573 0)
(-0.860359 -0.822862 0)
(-0.799238 -1.02676 0)
(-0.734549 -1.22839 0)
(-0.665704 -1.42652 0)
(-0.0329338 1.06446 0)
(-0.0992581 1.06604 0)
(-0.166979 1.06782 0)
(-0.237021 1.07021 0)
(-0.310098 1.07038 0)
(-0.386856 1.06944 0)
(-0.46821 1.06445 0)
(-0.555433 1.05768 0)
(-0.649713 1.04605 0)
(-0.752786 1.03638 0)
(-0.864623 1.02427 0)
(-0.976362 0.989957 0)
(-1.05871 0.867315 0)
(-1.08012 0.593768 0)
(-1.05836 0.286258 0)
(-1.02601 0.0230393 0)
(-0.984761 -0.221943 0)
(-0.935923 -0.452405 0)
(-0.884169 -0.669321 0)
(-0.830229 -0.880414 0)
(-0.774746 -1.08644 0)
(-0.717088 -1.29172 0)
(-0.65635 -1.49348 0)
(-0.0299806 1.1277 0)
(-0.0909564 1.13076 0)
(-0.154904 1.13545 0)
(-0.223539 1.14197 0)
(-0.298143 1.14706 0)
(-0.379627 1.15181 0)
(-0.468888 1.15357 0)
(-0.567328 1.15518 0)
(-0.676823 1.15338 0)
(-0.797066 1.15353 0)
(-0.920394 1.14352 0)
(-1.02702 1.09022 0)
(-1.08472 0.907821 0)
(-1.08357 0.57362 0)
(-1.05247 0.253258 0)
(-1.01089 -0.0182971 0)
(-0.961309 -0.27192 0)
(-0.908993 -0.504125 0)
(-0.856177 -0.722735 0)
(-0.803598 -0.934096 0)
(-0.751333 -1.1411 0)
(-0.698811 -1.34785 0)
(-0.64539 -1.55214 0)
(-0.0319952 1.19 0)
(-0.0967068 1.1948 0)
(-0.163633 1.20296 0)
(-0.234207 1.21439 0)
(-0.309848 1.22566 0)
(-0.391851 1.23754 0)
(-0.480633 1.24681 0)
(-0.575971 1.25673 0)
(-0.678662 1.26512 0)
(-0.78865 1.27322 0)