/*--------------------------------*- C++ -*----------------------------------*\
| =========                 |                                                 |
| \\      /  F ield         | OpenFOAM: The Open Source CFD Toolbox           |
|  \\    /   O peration     | Version:  2012                                  |
|   \\  /    A nd           | Website:  www.openfoam.com                      |
|    \\/     M anipulation  |                                                 |
\*---------------------------------------------------------------------------*/
FoamFile
{
    version     2.0;
    format      ascii;
    class       volScalarField;
    location    "0.51";
    object      minKappa;
}
// * * * * * * * * * * * * * * * * * * * * * * * * * * * * * * * * * * * * * //

dimensions      [0 0 0 0 0 0 0];


internalField   nonuniform List<scalar> 
2268
(
4.45432e-07
1.08079e-06
1.69892e-06
2.29757e-06
2.85388e-06
3.4452e-06
4.06941e-06
4.4584e-06
4.94089e-06
5.27923e-06
5.53285e-06
5.73741e-06
5.86014e-06
5.93869e-06
5.87006e-06
5.69716e-06
5.44527e-06
5.06858e-06
4.60529e-06
3.96554e-06
3.1098e-06
2.18711e-06
1.08701e-06
4.45432e-07
1.08079e-06
1.69892e-06
2.29757e-06
2.85388e-06
3.4452e-06
4.06941e-06
4.4584e-06
4.94089e-06
5.27923e-06
5.53285e-06
5.73741e-06
5.86014e-06
5.93869e-06
5.87006e-06
5.69716e-06
5.44527e-06
5.06858e-06
4.60529e-06
3.96554e-06
3.1098e-06
2.18711e-06
1.08701e-06
6.90022e-07
1.21269e-06
1.77667e-06
2.36139e-06
2.91028e-06
3.50057e-06
4.09271e-06
4.48415e-06
4.97688e-06
5.3066e-06
5.55718e-06
5.78755e-06
5.90975e-06
5.9535e-06
5.90275e-06
5.74468e-06
5.51903e-06
5.15877e-06
4.71817e-06
4.09613e-06
3.27133e-06
2.37285e-06
1.39159e-06
9.74016e-07
1.41545e-06
1.90599e-06
2.46435e-06
3.00162e-06
3.59026e-06
4.13516e-06
4.53254e-06
5.03913e-06
5.34183e-06
5.62212e-06
5.84084e-06
5.96376e-06
5.97845e-06
5.94146e-06
5.80328e-06
5.59932e-06
5.25764e-06
4.84072e-06
4.2929e-06
3.566e-06
2.91498e-06
2.07367e-06
1.27043e-06
1.66401e-06
2.07481e-06
2.5984e-06
3.1219e-06
3.70741e-06
4.19739e-06
4.60781e-06
5.12295e-06
5.39785e-06
5.70787e-06
5.91366e-06
6.03534e-06
6.04748e-06
6.0217e-06
5.88746e-06
5.71147e-06
5.39585e-06
5.01782e-06
4.5358e-06
3.90956e-06
3.48348e-06
2.72571e-06
1.57739e-06
1.93781e-06
2.27654e-06
2.76192e-06
3.271e-06
3.84904e-06
4.28574e-06
4.71885e-06
5.22909e-06
5.47492e-06
5.80611e-06
6.00689e-06
6.11666e-06
6.13131e-06
6.10546e-06
5.9775e-06
5.82961e-06
5.55613e-06
5.22942e-06
4.83842e-06
4.30617e-06
4.16889e-06
3.59895e-06
1.89599e-06
2.22338e-06
2.5052e-06
2.95151e-06
3.44664e-06
4.00994e-06
4.40163e-06
4.86299e-06
5.34675e-06
5.57097e-06
5.93149e-06
6.11981e-06
6.23697e-06
6.24903e-06
6.2305e-06
6.08957e-06
5.96927e-06
5.73253e-06
5.47559e-06
5.19058e-06
4.77774e-06
4.93162e-06
4.49138e-06
2.22573e-06
2.51597e-06
2.75799e-06
3.16777e-06
3.64999e-06
4.18703e-06
4.54926e-06
5.03697e-06
5.47194e-06
5.69287e-06
6.09626e-06
6.24097e-06
6.38968e-06
6.38044e-06
6.36934e-06
6.212e-06
6.1245e-06
5.93756e-06
5.75642e-06
5.58193e-06
5.26969e-06
5.78237e-06
5.70817e-06
2.75716e-05
0.000125892
0.000131635
0.000246168
0.000349236
0.000934841
0.00117147
0.000897259
0.00075082
0.00077074
0.000812167
0.000791588
0.000663307
0.000585271
0.000557315
0.000544043
0.000418688
0.000261307
0.00014239
2.75716e-05
0.000125892
0.000131635
0.000202942
0.000208002
0.000434295
0.000513715
0.000656363
0.000695993
0.00077074
0.000812167
0.000791588
0.000663307
0.000585271
0.000557315
0.000544043
0.000418688
0.000259149
0.00014239
5.04485e-05
0.000134113
0.000139828
0.000187185
0.000200424
0.000434295
0.000411281
0.000418709
0.000695993
0.000943622
0.00116107
0.00145705
0.00136497
0.00112582
0.000925565
0.000726788
0.000547569
0.000259149
0.000168706
7.66522e-05
0.000150115
0.000156111
0.000146042
0.000200424
0.000490192
0.000411281
0.000418709
0.000674337
0.00103309
0.00117572
0.0011863
0.00118558
0.00113977
0.00104937
0.0010549
0.000761477
0.000530289
0.000199085
0.000102648
0.000167246
0.000135387
0.000146042
0.000270819
0.000546888
0.000733051
0.000460571
0.000634653
0.000764002
0.000742482
0.000725598
0.000726611
0.000715976
0.000552569
0.000582579
0.00076743
0.000734095
0.000248807
0.000126792
0.00019451
0.000135387
0.000211983
0.000323978
0.000548003
0.000904722
0.000730576
0.000634653
0.00062709
0.000435914
0.000436603
0.000403371
0.000446257
0.000264749
0.000293763
0.000567423
0.000913485
0.000447915
0.000146457
0.00016648
0.000149831
0.000347823
0.00035593
0.000423767
0.00100017
0.00108246
0.000785776
0.00062709
0.000298153
0.000161356
0.000201565
0.000269272
0.00023151
0.000226634
0.000429395
0.00102533
0.000410194
0.000159083
0.00016648
0.000293724
0.000307309
0.000376985
0.000423767
0.00100017
0.00135694
0.00104247
0.000665381
0.000298153
0.000161356
0.000201565
0.000269272
0.00023151
0.000226634
0.000429395
0.00100585
0.000410194
4.55586e-06
4.98523e-06
5.30993e-06
5.90264e-06
6.61488e-06
7.36559e-06
7.79685e-06
8.52984e-06
9.03338e-06
9.33568e-06
9.94136e-06
1.00355e-05
1.02947e-05
1.02208e-05
1.02342e-05
9.93644e-06
9.86795e-06
9.58037e-06
9.5735e-06
9.4651e-06
9.64781e-06
1.10101e-05
1.28624e-05
3.69917e-05
3.81966e-05
3.78626e-05
3.85244e-05
3.88367e-05
3.85228e-05
3.60249e-05
3.58428e-05
3.32189e-05
3.13756e-05
2.94233e-05
2.57934e-05
2.27231e-05
1.83904e-05
1.53375e-05
1.41534e-05
1.42475e-05
1.38519e-05
1.40191e-05
1.40191e-05
1.46257e-05
1.57786e-05
1.64177e-05
0.00015538
0.000153326
0.000157469
0.00016243
0.000166018
0.000162103
0.00015445
0.000150247
0.00014925
0.000179703
0.000176573
0.000160665
0.00013723
8.73949e-05
4.60509e-05
3.12032e-05
2.10948e-05
1.51549e-05
1.49402e-05
1.47447e-05
1.60996e-05
1.70021e-05
1.69243e-05
0.000185386
0.00017962
0.000179072
0.000168008
0.000154671
0.000143594
0.000138457
0.000138457
0.00015723
0.000152859
9.93723e-05
6.66142e-05
8.76243e-05
0.00010011
0.00010011
0.000101744
0.000100247
3.49918e-05
3.03617e-05
2.08377e-05
1.67888e-05
1.69562e-05
1.50973e-05
0.000191656
0.000185758
0.000184548
0.000179824
0.000168124
0.00016027
0.000146591
0.000134706
0.000113366
7.54597e-05
3.54265e-05
3.54265e-05
8.55324e-05
0.000124715
0.000154924
0.000174069
0.00010897
0.00010897
0.000152882
9.46436e-05
3.67024e-05
3.64411e-05
3.20012e-05
0.000188363
0.000184742
0.000181177
0.000174729
0.000167021
0.000159486
0.000154074
0.000150874
0.000138681
0.000129661
9.12026e-05
8.00464e-05
9.64867e-05
0.000173008
0.000190326
0.000143212
0.00012807
0.000126369
0.000165843
0.000151371
0.000148381
0.000148381
0.000158622
0.000191731
0.000188274
0.00018411
0.000178232
0.000170656
0.000160305
0.000149824
0.000136608
0.000123035
0.000108084
9.71783e-05
8.5361e-05
8.39815e-05
8.39815e-05
0.000127202
0.000140911
0.000161151
0.000185203
0.00023103
0.000226027
0.000227168
0.000205378
0.000153224
0.000193035
0.000190335
0.000187671
0.000183428
0.000177757
0.000172803
0.00016165
0.000157342
0.000144164
0.000139495
0.000123821
0.000127319
0.000108228
0.000129311
0.000134291
0.000122891
0.000122891
0.000129843
0.000159202
0.000184939
0.000228325
0.000283191
0.000253796
0.000196689
0.00019453
0.000191668
0.00018703
0.00018163
0.000174316
0.000166566
0.000157928
0.000148571
0.000139531
0.000133434
0.000128943
0.000126448
0.000126448
0.000134253
0.000130308
0.000133234
0.000136621
0.000132401
0.000132401
0.000137266
0.000167232
0.000197123
0.000202049
0.000200899
0.000198028
0.000196222
0.000189792
0.000187202
0.000178226
0.000175091
0.000165437
0.000161313
0.000151299
0.000152846
0.00014408
0.00014868
0.000151192
0.000145868
0.000146128
0.000143283
0.000149097
0.000144001
0.000146487
0.000135246
0.000108322
0.000208274
0.000207539
0.00020482
0.00020201
0.000197662
0.000193179
0.000187742
0.000182409
0.00017689
0.000171403
0.000167953
0.000165896
0.00016383
0.000165239
0.000164104
0.000159654
0.000158255
0.000153142
0.000142991
0.000131489
0.000121419
0.000108931
6.42173e-05
0.000216334
0.00021575
0.000213304
0.000212167
0.000207025
0.000205497
0.000199283
0.000196605
0.000190758
0.00018809
0.000181959
0.000182995
0.000178223
0.000181286
0.000178458
0.000178163
0.000174389
0.000169551
0.000164897
0.000155189
0.000146538
0.000133432
8.33121e-05
0.000225396
0.000224917
0.0002228
0.000222051
0.000217788
0.00021666
0.000211826
0.000209422
0.000205108
0.000202392
0.000198211
0.000196782
0.000193732
0.000192213
0.000189753
0.000185873
0.0001799
0.000172865
0.000162416
0.000149805
0.000132515
0.000111609
5.98057e-05
0.000235942
0.000235627
0.000233765
0.000233283
0.000229533
0.000228518
0.00022446
0.000222012
0.000218416
0.000216252
0.000212087
0.000211525
0.000207068
0.000207367
0.000202332
0.000201989
0.000194863
0.000191973
0.000183108
0.000175881
0.000162842
0.000149312
0.000113695
0.000247647
0.000247506
0.000245963
0.000245715
0.000242581
0.000241664
0.000238542
0.000236261
0.000233615
0.000231568
0.000228284
0.000227517
0.000223542
0.000223396
0.000218398
0.000217358
0.000210744
0.000206381
0.000198189
0.000188599
0.000176554
0.000164413
0.000110419
0.000260453
0.000260453
0.000258965
0.000258885
0.000256161
0.00025529
0.000252826
0.000250664
0.000248719
0.000246708
0.000244233
0.000243175
0.000240033
0.000239588
0.000235348
0.00023518
0.000228743
0.000228482
0.000219532
0.000217712
0.000206607
0.000202936
0.000169462
0.000274781
0.000274887
0.000273502
0.000273549
0.00027135
0.000270592
0.000268883
0.000266956
0.000265772
0.000263915
0.000262256
0.00026135
0.000259139
0.000258711
0.000255779
0.000255688
0.000251146
0.000252015
0.00024506
0.00024703
0.000238544
0.000242133
0.000183863
0.000289864
0.00029006
0.000288787
0.000288907
0.000287148
0.000286474
0.00028537
0.000283636
0.000283133
0.000281464
0.000280687
0.000279975
0.000278772
0.000278614
0.000277049
0.000277468
0.000274939
0.000276704
0.0002724
0.000276926
0.000271745
0.000280639
0.000237516
0.000306681
0.00030698
0.000305729
0.000305887
0.000304535
0.000304001
0.000303487
0.000302032
0.000302295
0.000301075
0.000301278
0.000301086
0.000300972
0.000301389
0.000301469
0.000302489
0.000302483
0.000305197
0.000304633
0.000311338
0.000310824
0.000324721
0.000260785
0.000324141
0.00032451
0.000323286
0.000323436
0.000322452
0.000322069
0.00032207
0.000320939
0.000321961
0.000321196
0.000322432
0.00032287
0.000323929
0.000325279
0.000326924
0.000328967
0.000331267
0.000335002
0.00033799
0.000345993
0.000350144
0.000366874
0.00030962
0.000342785
0.000343194
0.000342086
0.000342215
0.000341627
0.000341401
0.000341866
0.000341153
0.000342972
0.000342785
0.000345154
0.000346425
0.000348803
0.000351409
0.000354801
0.000358256
0.000362976
0.000368213
0.000374698
0.000384184
0.000393057
0.000412083
0.00033631
0.000361791
0.000362126
0.000361166
0.000361236
0.000360923
0.000360834
0.000361687
0.00036137
0.000363873
0.000364222
0.000367773
0.000369898
0.000373752
0.000377839
0.000382981
0.000388275
0.000395296
0.000402542
0.000412291
0.000423508
0.000436782
0.000457011
0.000382748
0.000380971
0.000381063
0.000380485
0.000380484
0.000380452
0.000380548
0.000381774
0.000381875
0.000384948
0.000385797
0.000390417
0.000393317
0.000398678
0.00040424
0.000411289
0.000418762
0.000428376
0.000438539
0.000451771
0.000465873
0.000483578
0.000505629
0.00041489
0.000399616
0.00039936
0.000399256
0.000399082
0.000399285
0.000399517
0.00040099
0.000401405
0.000404761
0.000405897
0.000411321
0.000414763
0.000421576
0.000428559
0.000437653
0.000447521
0.000459963
0.000473315
0.000489946
0.000507195
0.000529118
0.000553282
0.000460004
0.000417246
0.000416726
0.000417066
0.000416768
0.00041728
0.000417702
0.000419423
0.000420175
0.000423724
0.000425156
0.000431144
0.000435026
0.000443149
0.000451213
0.00046203
0.000473827
0.000488654
0.000504906
0.000524589
0.000545554
0.000571783
0.000599271
0.000492136
0.000433479
0.000432874
0.000433453
0.000433118
0.000433899
0.000434444
0.000436339
0.000437404
0.000441202
0.00044304
0.000449376
0.000453439
0.00046237
0.000470803
0.000482757
0.000495823
0.000512195
0.000531229
0.000553386
0.000578944
0.000608875
0.00064064
0.000531226
0.000448178
0.000447624
0.000448283
0.00044807
0.000449134
0.000449924
0.000452149
0.000453705
0.000457909
0.000460406
0.000467216
0.000471734
0.000481348
0.00048993
0.000502729
0.000516536
0.000533757
0.000553009
0.000575561
0.000602346
0.000633742
0.00066853
0.000556317
0.000461155
0.000460705
0.00046139
0.000461409
0.000462764
0.000463868
0.000466497
0.000468595
0.000473276
0.0004765
0.000483823
0.000488944
0.000499037
0.000507514
0.000518717
0.000531698
0.000547251
0.000566038
0.000588677
0.000616642
0.00064999
0.000688116
0.000580184
0.000472586
0.000472229
0.00047295
0.00047323
0.000474915
0.000476426
0.000479631
0.000482467
0.000487912
0.000492196
0.00050035
0.000506532
0.000517437
0.0005264
0.000540062
0.000553447
0.000571586
0.000590684
0.000612519
0.000638985
0.000670152
0.000706755
0.000595457
0.000482447
0.000482156
0.000482926
0.000483456
0.000485518
0.000487485
0.00049137
0.000495005
0.000501323
0.000506717
0.000515015
0.000523185
0.000533184
0.000543908
0.000555799
0.000569116
0.000583822
0.000600966
0.00062115
0.000645013
0.000673424
0.000708463
0.000599695
0.000490937
0.000490694
0.000491546
0.000492307
0.000494802
0.00049723
0.000501866
0.000506317
0.000513612
0.000520216
0.000530396
0.000539226
0.000552109
0.00056303
0.00057838
0.000592018
0.000610111
0.00062824
0.00065114
0.000674965
0.000701225
0.000732815
0.000610345
0.000498163
0.000497946
0.000498905
0.000499859
0.000502726
0.000505657
0.000509961
0.00051544
0.0005224
0.000530674
0.000540441
0.000551464
0.00056375
0.000576966
0.000591215
0.00060622
0.000622037
0.000638857
0.000656141
0.000675097
0.000696564
0.000722377
0.000598702
0.000504254
0.000504067
0.00050517
0.000506299
0.000509396
0.000512913
0.000518084
0.000524555
0.000532698
0.000542343
0.00055365
0.000566403
0.000580539
0.000595366
0.000612056
0.000627606
0.000646468
0.000663193
0.000682775
0.000702387
0.000724979
0.000748348
0.00061511
0.000509323
0.000509172
0.00051011
0.000511347
0.00051388
0.000517534
0.000522738
0.000529334
0.000537643
0.000547424
0.000558875
0.000571676
0.000585748
0.000600695
0.000616375
0.000632407
0.000648672
0.000664573
0.000679503
0.000693325
0.000706052
0.00072026
0.000586528
0.000513187
0.000513187
0.000513911
0.000515423
0.000518343
0.00052247
0.000528266
0.000535537
0.000544657
0.000555348
0.000567873
0.000581801
0.000597123
0.00061329
0.000630232
0.000647428
0.000664703
0.00068108
0.000696173
0.000700215
0.000708331
0.000713179
0.000619569
0.000515795
0.000515795
0.00051645
0.00051784
0.000520629
0.000524588
0.000530203
0.000537231
0.000546079
0.000556401
0.000568481
0.000581745
0.000596214
0.00061111
0.000626455
0.000641381
0.000655749
0.000668033
0.000677581
0.000682447
0.000682805
0.00068228
0.000593493
0.000517324
0.000517324
0.000518125
0.000519725
0.000522774
0.000527017
0.000532988
0.000540428
0.000549773
0.000560646
0.00057334
0.000587236
0.000602345
0.00061781
0.000633626
0.000647116
0.000661173
0.000662769
0.00066695
0.000653586
0.000644993
0.000645925
0.000621629
0.000518219
0.000518219
0.000518841
0.000520172
0.000522887
0.000526721
0.000532223
0.000539083
0.00054772
0.000557687
0.000569243
0.000581661
0.000594915
0.000607942
0.000620703
0.000631811
0.000640872
0.000643281
0.000632538
0.000614205
0.000593441
0.000606124
0.00059423
0.000518
0.000518
0.000518654
0.000520081
0.000522945
0.000526944
0.000532644
0.000539728
0.000548619
0.000558882
0.00057074
0.000583508
0.000597067
0.00060787
0.000620767
0.000623522
0.00062947
0.000617146
0.000600525
0.000554579
0.000512028
0.000526072
0.000669917
0.000517594
0.000517594
0.000517976
0.000518971
0.000521285
0.000524647
0.000529569
0.000535681
0.000543349
0.000552099
0.000562065
0.000572479
0.000583111
0.000592675
0.000601009
0.000605801
0.000597933
0.000576127
0.000533409
0.000473955
0.000425527
0.000443521
0.000526433
0.000516077
0.000516077
0.000516483
0.000517526
0.000519902
0.000523319
0.000528308
0.000534526
0.000542327
0.000551275
0.000561469
0.000570841
0.000582236
0.000587177
0.000596075
0.000592745
0.000591406
0.000567488
0.000518257
0.00044168
0.000374566
0.000417477
0.00058204
0.000515025
0.000515025
0.000515166
0.000515761
0.000517485
0.000520056
0.000523957
0.000528847
0.000535014
0.000542004
0.00054984
0.000557797
0.000565586
0.000571815
0.000576633
0.000572237
0.000557038
0.000523594
0.000462689
0.000382567
0.000374566
0.000463189
0.000826144
8.80654e-06
6.80479e-06
4.8767e-06
4.8767e-06
1.08064e-05
1.08064e-05
1.11369e-05
1.13059e-05
1.13135e-05
1.13135e-05
1.16465e-05
1.19071e-05
1.02305e-05
1.02305e-05
1.07667e-05
1.12509e-05
1.78959e-05
1.55033e-05
1.50084e-05
1.50084e-05
0.000100968
7.36959e-05
6.97063e-05
6.64823e-05
8.19783e-05
6.54268e-05
5.57423e-05
5.57423e-05
0.000154636
0.000142889
0.000128074
0.000128074
0.00014375
0.00014375
0.000158858
0.000177138
7.13364e-05
7.13364e-05
7.52338e-05
8.17836e-05
3.49332e-05
2.92622e-05
2.35801e-05
2.35801e-05
4.72459e-05
4.164e-05
3.58776e-05
3.58776e-05
3.07264e-05
2.23598e-05
1.65004e-05
1.65004e-05
7.02122e-05
6.76282e-05
6.54227e-05
6.54227e-05
6.82084e-05
6.59169e-05
6.48675e-05
6.48675e-05
0.000109717
0.000109717
0.000111317
0.00011396
0.000119802
0.000119802
0.000122325
0.000126267
0.000156299
0.000156299
0.000160958
0.000166704
0.000171796
0.000171796
0.000177047
0.000183353
0.000204577
0.000204577
0.000211325
0.000218885
0.000221959
0.000221959
0.000228977
0.000236689
0.000252735
0.000252735
0.000260748
0.00026929
0.000273444
0.000273444
0.000281413
0.000289752
0.000303319
0.000303319
0.000312092
0.00032118
0.000324539
0.000324539
0.000333918
0.000343557
0.000350893
0.000350893
0.000361601
0.000372494
0.000368059
0.000368059
0.000379924
0.000391993
0.000385045
0.000385045
0.000398756
0.000412703
0.000395543
0.000395543
0.000410326
0.00042553
0.000399679
0.000399679
0.000416568
0.000434518
0.000406171
0.000406171
0.00042369
0.000443762
0.000400516
0.000400516
0.000421914
0.000448733
0.000413033
0.000413033
0.000440002
0.000476281
0.000401123
0.000401123
0.000440178
0.000489118
0.000432433
0.000432433
0.000478643
0.000521226
0.000420942
0.000420942
0.00045887
0.000476835
0.000437213
0.000437213
0.000466738
0.000485428
0.000421375
0.000421375
0.000451989
0.000484401
0.000493792
0.000493792
0.000565525
0.000647534
0.000424632
0.000424632
0.000528449
0.000631961
0.000566341
0.000566341
0.000683934
0.000787679
0.000720476
0.000720476
0.000813736
0.000883649
1.28321e-05
0.000168831
7.97802e-05
5.52802e-05
0.000180786
0.00053001
0.0006161
0.00180635
0.00201467
0.00135268
0.000707992
0.000262433
0.000373039
0.000353649
0.000413183
0.000380354
0.00066089
0.000816158
0.000481195
2.28044e-05
3.48809e-05
2.97197e-05
3.05492e-05
4.81053e-05
0.000260999
0.000606644
0.0012437
0.0024929
0.00220558
0.00180405
0.00117652
0.000988383
0.0006542
0.000656042
0.000562264
0.000667181
0.000807415
0.000604736
2.01081e-05
2.72497e-05
2.8328e-05
2.72093e-05
2.70166e-05
0.000101749
0.000542877
0.000636204
0.00180958
0.001893
0.00175562
0.00134459
0.00110002
0.000749873
0.000723777
0.000428513
0.00050378
0.00071757
0.000531703
1.9548e-05
2.68788e-05
2.60987e-05
2.34051e-05
1.8992e-05
4.61896e-05
0.000372103
0.000416455
0.00106726
0.00149073
0.00146479
0.00122627
0.00107678
0.000739093
0.000531776
0.000278053
0.000374464
0.000610658
0.000372626
2.35035e-05
2.68788e-05
2.59387e-05
2.15958e-05
1.71431e-05
1.88624e-05
0.00013314
0.000404189
0.000970989
0.00135944
0.0012962
0.00114349
0.000926916
0.000716439
0.00048375
0.000222242
0.000379794
0.000459083
0.00021633
5.86305e-05
4.97792e-05
3.81649e-05
2.51085e-05
1.63181e-05
1.42108e-05
2.34866e-05
0.00034902
0.000659742
0.00095555
0.0010379
0.00110612
0.000981764
0.000721394
0.000440257
0.000222242
0.000342532
0.000292315
9.86254e-05
0.000103065
0.00020248
0.000158332
8.15821e-05
2.79537e-05
1.42108e-05
1.98907e-05
6.31828e-05
0.000526546
0.000641186
0.000674398
0.000920392
0.000899114
0.000773721
0.000612216
0.000276095
0.000580751
0.000153017
5.55091e-05
0.000153353
0.000229055
0.00033547
0.00036235
0.000120605
3.98453e-05
2.70978e-05
3.63033e-05
8.17959e-05
0.000314433
0.000644233
0.000872759
0.000899114
0.000844621
0.000749065
0.000629544
0.000518845
7.31022e-05
3.51141e-05
0.000288684
0.000369057
0.00033547
0.000386506
0.000482009
0.000240907
7.16105e-05
5.21358e-05
0.000144693
0.000178942
0.000223785
0.000284865
0.000341269
0.000343977
0.000285394
0.000157351
8.33053e-05
3.56702e-05
1.93237e-05
0.000135326
0.000242608
0.000329666
0.000392433
0.000319261
0.000339493
0.000281143
0.000258647
0.000194744
0.0001808
0.000170984
0.000170984
0.000188234
0.000182084
9.26719e-05
5.73866e-05
4.31299e-05
2.43983e-05
1.48628e-05
2.98252e-05
7.14063e-05
9.32181e-05
0.000125456
0.000319261
0.000230532
0.000230532
0.000352772
0.000526013
0.00030088
0.000202526
0.000184213
0.000214843
0.000221425
0.000173848
9.25233e-05
5.56547e-05
2.79637e-05
1.48628e-05
4.63816e-05
4.55205e-05
4.55205e-05
6.89401e-05
0.000150284
0.000311975
0.00037276
0.00105476
0.00131049
0.00107215
0.000786221
0.000416558
0.000297461
0.000439157
0.000509795
0.000415726
0.000216353
4.68815e-05
2.4915e-05
3.35919e-05
9.18495e-05
0.000155362
0.000241165
0.000376536
0.000812315
0.00121288
0.0020425
0.00203301
0.00188564
0.00117722
0.000396031
0.000230248
0.000186618
0.00030344
0.000306733
0.000110152
3.28599e-05
3.40994e-05
0.000102088
0.000172421
0.000235958
0.000370556
0.000629742
0.00111372
0.00156996
0.00155183
0.00121991
0.00130683
0.000474207
0.000183795
0.000143872
0.000125309
6.62035e-05
4.60632e-05
1.84617e-05
2.28596e-05
4.18095e-05
0.000111365
0.00018846
0.000281912
0.000432762
0.000676679
0.00101607
0.00140576
0.00133212
0.000885179
0.00117519
0.000995387
0.000338852
0.00017984
6.55281e-05
3.36008e-05
1.96009e-05
1.23812e-05
1.79777e-05
3.95086e-05
0.000198266
0.000259588
0.000363511
0.00051403
0.000760696
0.00108764
0.00139059
0.00108303
0.000787615
0.000927061
0.00110231
0.00100933
0.000595463
0.00025818
7.37703e-05
3.57393e-05
1.23812e-05
1.56566e-05
3.34694e-05
0.000221467
0.000338287
0.000435232
0.000569913
0.000748432
0.00100312
0.00133414
0.00126106
0.000782251
0.000782251
0.000822691
0.00115955
0.0011649
0.000865912
0.000436392
0.000159844
3.55087e-05
2.14953e-05
4.16574e-05
0.000291761
0.000406461
0.000502842
0.000629192
0.000804034
0.00102033
0.00123706
0.00147507
0.00111546
0.000717009
0.000572198
0.000572198
0.000877539
0.0010598
0.000777352
0.000585301
0.000187055
3.74465e-05
3.74465e-05
0.000320364
0.000472537
0.000563157
0.000681965
0.000827975
0.000998704
0.00116313
0.00135238
0.00144498
0.00116649
0.000755682
0.000699812
0.000578108
0.000621203
0.000789605
0.000719311
0.000314867
9.08249e-05
5.18489e-05
0.00038182
0.00053171
0.000619096
0.000724779
0.000850171
0.00100165
0.00113361
0.0012687
0.00137827
0.00135781
0.0012211
0.000875555
0.000568768
0.000456745
0.000398825
0.000826442
0.00059928
0.000231194
0.000176121
0.000411741
0.000590356
0.000676374
0.000770832
0.000883252
0.00100836
0.00112575
0.0012264
0.00131426
0.00134151
0.00129576
0.00106689
0.000776562
0.000350137
0.000314738
0.00041223
0.00067197
0.000439492
0.000324439
0.00046771
0.000644729
0.000729869
0.000814708
0.000914945
0.0010202
0.00112575
0.00122024
0.0012935
0.00130856
0.00131666
0.00116999
0.000956802
0.00066301
0.000314738
0.000226322
0.000512261
0.000427381
0.000342748
0.00050146
0.000700778
0.000785552
0.000866416
0.000960462
0.00105126
0.00114218
0.00122024
0.0012935
0.00129103
0.00131008
0.00120522
0.00107722
0.000851645
0.000514522
0.000226322
0.00046538
0.000452926
0.000322041
0.000555076
0.000754726
0.000837814
0.000915578
0.00100852
0.00108763
0.00117165
0.00122751
0.0012967
0.00128025
0.00129989
0.00123855
0.00115249
0.00100888
0.000833221
0.000448154
0.000393016
0.000535397
0.000317256
0.000593117
0.000814447
0.000897414
0.000974304
0.00106745
0.00113579
0.00121622
0.00124545
0.00130863
0.00128025
0.00129666
0.00124112
0.00119008
0.00108258
0.000948903
0.000622801
0.000332237
0.000418705
0.000298272
0.000643455
0.000875773
0.000962483
0.00104106
0.00113635
0.00119882
0.00127661
0.00128173
0.00133247
0.00128751
0.00129666
0.00124631
0.00121113
0.00112063
0.000954625
0.000574341
0.000279517
0.000341523
0.000261735
0.000678067
0.000940468
0.0010353
0.00111866
0.00121997
0.00128353
0.00135658
0.00134727
0.00137399
0.00131531
0.00130583
0.00126099
0.00124736
0.00117395
0.000997599
0.000592976
0.000199533
0.000293648
0.000256608
0.000716291
0.00100457
0.00111195
0.00120784
0.00132449
0.00139008
0.00146065
0.00144249
0.00144949
0.00137531
0.00136364
0.00131633
0.00135187
0.00129438
0.001065
0.000527974
0.000179121
0.000249988
0.000244719
0.000741254
0.00107038
0.00119981
0.00132321
0.00145222
0.00151534
0.00157987
0.00155598
0.00155196
0.00147335
0.00147783
0.00144506
0.00153954
0.00155083
0.001239
0.000671423
0.000179121
0.000331258
0.000220934
0.000763967
0.00114266
0.00131174
0.00145755
0.00158249
0.00164046
0.00170134
0.00168383
0.00169238
0.00162585
0.00167614
0.00167777
0.00184023
0.00197908
0.00151942
0.000748899
0.000499887
0.000445558
0.000150886
0.000787907
0.0012302
0.00143348
0.00156167
0.00166079
0.00170015
0.00178559
0.00180198
0.00186055
0.00183289
0.00195417
0.00201782
0.00232222
0.00245069
0.00118444
0.000669955
0.000807307
0.000465316
0.000150886
0.000813898
0.00132288
0.00146207
0.00147525
0.00151037
0.00156152
0.00175474
0.00188247
0.00204119
0.00207229
0.00226944
0.00241473
0.00285873
0.0019718
0.000776948
0.000669955
0.000807307
0.000636804
0.000256801
0.000876224
0.00130668
0.00129664
0.00125065
0.00124432
0.00132198
0.00168882
0.00192529
0.00222572
0.00234682
0.00258948
0.00275402
0.00321785
0.00192509
0.000675737
0.000681259
0.000745315
0.000580629
0.000469731
0.000897872
0.00117506
0.00112009
0.000959169
0.000798935
0.000966705
0.00154998
0.00196916
0.00236855
0.00259293
0.00286063
0.00301651
0.00340132
0.00182424
0.000642751
0.000806158
0.000957165
0.000527817
0.000264929
0.000911547
0.00111391
0.00102315
0.000718174
0.000554099
0.000666103
0.00122116
0.0020284
0.00250908
0.00276572
0.00304207
0.00312711
0.00339441
0.00188754
0.000633815
0.000968186
0.00102895
0.000383041
0.00015726
0.000811457
0.00111391
0.00107633
0.00086291
0.000554099
0.00083433
0.00143597
0.00219791
0.00260183
0.0028371
0.00298281
0.00299319
0.00317091
0.00182975
0.000633815
0.00107674
0.00101212
0.000272594
7.6679e-05
0.000854205
0.00125267
0.00133542
0.00130103
0.00113004
0.00138021
0.00191549
0.00239574
0.00261399
0.00269942
0.00277908
0.00278514
0.00282874
0.00189718
0.000788139
0.00135774
0.000863054
0.000212676
6.69359e-05
0.000894516
0.00154469
0.00179931
0.00195978
0.00200248
0.00208713
0.00232366
0.00244248
0.00256011
0.00256164
0.0025999
0.00254646
0.00249939
0.00154386
0.000812376
0.00113431
0.000669415
0.000195831
6.69359e-05
0.00122512
0.00193018
0.00226761
0.00251833
0.00264006
0.00258204
0.00258329
0.00255301
0.00244141
0.00240937
0.00237622
0.0022867
0.0020734
0.00125759
0.000753355
0.000769096
0.000658731
0.000457841
0.000166492
0.0012174
0.00217232
0.00250445
0.00275533
0.00284196
0.00277744
0.00252221
0.00232051
0.00217959
0.00212647
0.00207118
0.00198566
0.00151253
0.00078693
0.000523761
0.000627515
0.000577892
0.00033774
0.000318956
0.00147312
0.00227558
0.00235497
0.00238366
0.00234017
0.00218475
0.00193087
0.00176579
0.00170817
0.00169076
0.00165781
0.00158822
0.00106693
0.000463416
0.000416449
0.000517327
0.000517327
0.000661129
0.000431418
0.001556
0.00227558
0.00225167
0.00215716
0.00198778
0.00176595
0.00158608
0.00152929
0.00152929
0.00154167
0.0015055
0.00118553
0.000599978
0.000392728
0.000392728
0.000597902
0.000650443
0.00122543
0.00106857
)
;

boundaryField
{
    leftWall
    {
        type            calculated;
        value           uniform 0;
    }
    rightWall
    {
        type            calculated;
        value           uniform 0;
    }
    lowerWall
    {
        type            calculated;
        value           uniform 0;
    }
    atmosphere
    {
        type            calculated;
        value           uniform 0;
    }
    defaultFaces
    {
        type            empty;
    }
}


// ************************************************************************* //
