/*--------------------------------*- C++ -*----------------------------------*\
| =========                 |                                                 |
| \\      /  F ield         | OpenFOAM: The Open Source CFD Toolbox           |
|  \\    /   O peration     | Version:  2012                                  |
|   \\  /    A nd           | Website:  www.openfoam.com                      |
|    \\/     M anipulation  |                                                 |
\*---------------------------------------------------------------------------*/
FoamFile
{
    version     2.0;
    format      ascii;
    class       volScalarField;
    location    "0.51";
    object      p_rgh;
}
// * * * * * * * * * * * * * * * * * * * * * * * * * * * * * * * * * * * * * //

dimensions      [1 -1 -2 0 0 0 0];


internalField   nonuniform List<scalar> 
2268
(
101993
101994
101996
101999
102004
102010
102017
102026
102038
102051
102068
102087
102110
102134
102163
102192
102226
102259
102295
102326
102360
102381
102398
101993
101994
101996
101999
102003
102009
102016
102026
102038
102050
102068
102086
102109
102133
102162
102192
102226
102259
102295
102326
102360
102382
102399
101992
101993
101995
101998
102002
102008
102015
102025
102036
102049
102066
102085
102108
102132
102161
102191
102225
102258
102295
102327
102363
102386
102405
101990
101991
101993
101996
102000
102006
102013
102023
102034
102047
102064
102083
102105
102130
102159
102190
102224
102258
102296
102328
102364
102389
102407
101988
101989
101991
101994
101998
102004
102011
102020
102032
102045
102062
102080
102103
102128
102157
102187
102222
102256
102295
102329
102368
102394
102420
101985
101986
101988
101991
101995
102001
102008
102017
102028
102041
102058
102076
102099
102124
102154
102185
102221
102256
102295
102331
102370
102401
102424
101982
101983
101985
101988
101992
101997
102004
102013
102025
102038
102054
102073
102096
102121
102150
102181
102218
102253
102294
102330
102375
102404
102443
101979
101979
101982
101984
101988
101994
102001
102009
102019
102032
102048
102067
102089
102115
102145
102178
102215
102252
102294
102333
102378
102416
102451
102349
102349
102349
102350
102350
102350
102347
102363
102365
102361
102360
102362
102371
102392
102404
102434
102551
102934
103643
102349
102349
102349
102349
102350
102345
102343
102341
102340
102337
102337
102336
102344
102365
102388
102409
102472
102769
103418
102349
102349
102349
102349
102350
102348
102344
102343
102341
102337
102336
102335
102338
102341
102346
102352
102377
102590
103217
102349
102349
102349
102349
102349
102346
102344
102341
102340
102336
102335
102334
102335
102336
102338
102336
102343
102419
103004
102349
102348
102349
102349
102349
102347
102344
102342
102341
102336
102335
102334
102335
102336
102337
102337
102342
102366
102804
102349
102348
102348
102348
102349
102346
102344
102340
102339
102335
102334
102334
102335
102335
102337
102336
102339
102348
102583
102348
102348
102348
102352
102350
102346
102344
102339
102339
102334
102334
102334
102335
102335
102337
102337
102337
102344
102565
102348
102348
102352
102483
102421
102351
102343
102337
102337
102334
102333
102334
102335
102335
102337
102336
102337
102339
102712
101954
101954
101958
101962
101968
101975
101985
101995
102008
102023
102040
102060
102082
102109
102137
102169
102209
102245
102292
102329
102386
102412
102483
101578
101580
101588
101597
101611
101629
101658
101690
101739
101788
101844
101909
101983
102054
102115
102158
102200
102241
102282
102331
102379
102435
102501
101330
101330
101330
101330
101330
101330
101330
101331
101330
101342
101366
101400
101452
101534
101672
101875
102126
102227
102274
102322
102370
102418
102487
101330
101330
101330
101330
101330
101330
101330
101330
101330
101330
101331
101331
101331
101331
101337
101364
101444
101623
101901
102235
102351
102404
102464
101330
101330
101330
101330
101330
101330
101330
101330
101330
101330
101330
101330
101331
101331
101331
101331
101331
101339
101382
101478
101644
101874
102232
101330
101330
101330
101330
101330
101330
101330
101330
101330
101330
101330
101330
101331
101331
101331
101331
101331
101331
101332
101332
101338
101358
101423
101330
101330
101330
101330
101330
101330
101330
101330
101330
101330
101330
101330
101331
101331
101331
101331
101331
101331
101331
101331
101332
101332
101332
101330
101330
101330
101330
101330
101330
101330
101330
101330
101330
101330
101330
101330
101331
101331
101331
101331
101331
101331
101331
101332
101332
101332
101330
101330
101330
101330
101330
101330
101330
101330
101330
101330
101330
101330
101330
101331
101331
101331
101331
101331
101331
101331
101332
101332
101332
101330
101330
101330
101330
101330
101330
101330
101330
101330
101330
101330
101330
101330
101330
101331
101331
101331
101331
101331
101331
101331
101332
101332
101330
101330
101330
101330
101330
101330
101330
101330
101330
101330
101330
101330
101330
101330
101330
101331
101331
101331
101331
101331
101331
101332
101332
101330
101330
101330
101330
101330
101330
101330
101330
101330
101330
101330
101330
101330
101330
101330
101330
101331
101331
101331
101331
101331
101331
101332
101330
101330
101330
101330
101330
101330
101330
101330
101330
101330
101330
101330
101330
101330
101330
101330
101331
101331
101331
101331
101331
101331
101332
101330
101330
101330
101330
101330
101330
101330
101330
101330
101330
101330
101330
101330
101330
101330
101330
101330
101330
101331
101331
101331
101331
101331
101329
101329
101329
101329
101329
101329
101330
101330
101330
101330
101330
101330
101330
101330
101330
101330
101330
101330
101331
101331
101331
101331
101331
101329
101329
101329
101329
101329
101329
101329
101329
101330
101330
101330
101330
101330
101330
101330
101330
101330
101330
101330
101330
101331
101331
101331
101329
101329
101329
101329
101329
101329
101329
101329
101329
101329
101329
101330
101330
101330
101330
101330
101330
101330
101330
101330
101330
101331
101331
101329
101329
101329
101329
101329
101329
101329
101329
101329
101329
101329
101329
101329
101330
101330
101330
101330
101330
101330
101330
101330
101330
101330
101329
101329
101329
101329
101329
101329
101329
101329
101329
101329
101329
101329
101329
101329
101329
101330
101330
101330
101330
101330
101330
101330
101330
101329
101329
101329
101329
101329
101329
101329
101329
101329
101329
101329
101329
101329
101329
101329
101329
101329
101330
101330
101330
101330
101330
101330
101329
101329
101329
101329
101329
101329
101329
101329
101329
101329
101329
101329
101329
101329
101329
101329
101329
101329
101329
101329
101330
101330
101330
101329
101329
101329
101329
101329
101329
101329
101329
101329
101329
101329
101329
101329
101329
101329
101329
101329
101329
101329
101329
101329
101329
101329
101328
101328
101328
101328
101328
101328
101328
101328
101329
101329
101329
101329
101329
101329
101329
101329
101329
101329
101329
101329
101329
101329
101329
101328
101328
101328
101328
101328
101328
101328
101328
101328
101328
101328
101328
101328
101329
101329
101329
101329
101329
101329
101329
101329
101329
101329
101328
101328
101328
101328
101328
101328
101328
101328
101328
101328
101328
101328
101328
101328
101328
101328
101328
101328
101329
101329
101329
101329
101329
101328
101328
101328
101328
101328
101328
101328
101328
101328
101328
101328
101328
101328
101328
101328
101328
101328
101328
101328
101328
101328
101328
101328
101328
101328
101328
101328
101328
101328
101328
101328
101328
101328
101328
101328
101328
101328
101328
101328
101328
101328
101328
101328
101328
101328
101328
101328
101328
101328
101328
101328
101328
101328
101328
101328
101328
101328
101328
101328
101328
101328
101328
101328
101328
101328
101328
101328
101328
101328
101327
101327
101327
101327
101327
101327
101327
101327
101327
101327
101328
101328
101328
101328
101328
101328
101328
101328
101328
101328
101328
101327
101327
101327
101327
101327
101327
101327
101327
101327
101327
101327
101327
101327
101327
101327
101327
101327
101327
101327
101327
101327
101327
101327
101327
101327
101327
101327
101327
101327
101327
101327
101327
101327
101327
101327
101327
101327
101327
101327
101327
101327
101327
101327
101327
101327
101327
101327
101327
101327
101327
101327
101327
101327
101327
101327
101327
101327
101327
101327
101327
101327
101327
101327
101327
101327
101327
101327
101327
101327
101327
101327
101327
101327
101327
101327
101327
101327
101327
101327
101327
101327
101327
101327
101327
101327
101327
101327
101327
101327
101327
101327
101327
101326
101326
101327
101327
101327
101327
101327
101327
101327
101327
101327
101327
101327
101327
101327
101327
101327
101327
101327
101327
101327
101327
101326
101326
101326
101326
101326
101326
101326
101326
101326
101326
101326
101326
101326
101326
101326
101326
101326
101326
101326
101326
101326
101326
101326
101326
101326
101326
101326
101326
101326
101326
101326
101326
101326
101326
101326
101326
101326
101326
101326
101326
101326
101326
101326
101326
101326
101326
101326
101326
101326
101326
101326
101326
101326
101326
101326
101326
101326
101326
101326
101326
101326
101326
101326
101326
101326
101326
101326
101326
101326
101326
101326
101326
101326
101326
101326
101326
101326
101326
101326
101326
101326
101326
101326
101326
101326
101326
101326
101326
101326
101326
101326
101326
101326
101326
101326
101326
101326
101326
101326
101326
101326
101326
101326
101326
101326
101326
101326
101326
101326
101326
101326
101326
101326
101326
101326
101326
101326
101326
101325
101325
101325
101325
101325
101325
101325
101325
101325
101325
101325
101326
101326
101326
101326
101326
101326
101326
101326
101326
101326
101326
101326
101325
101325
101325
101325
101325
101325
101325
101325
101325
101325
101325
101325
101325
101325
101325
101325
101325
101325
101325
101325
101325
101325
101326
101325
101325
101325
101325
101325
101325
101325
101325
101325
101325
101325
101325
101325
101325
101325
101325
101325
101325
101325
101325
101325
101325
101326
102452
102617
102645
102771
102562
102601
102650
102693
102518
102565
102598
102642
102506
102532
102565
102593
102402
102450
102480
102508
101487
101545
101614
101688
101332
101333
101333
101333
101332
101332
101333
101333
101332
101332
101332
101333
101332
101332
101332
101332
101332
101332
101332
101332
101332
101332
101332
101332
101332
101332
101332
101332
101331
101332
101332
101332
101331
101331
101331
101332
101331
101331
101331
101331
101331
101331
101331
101331
101331
101331
101331
101331
101330
101330
101330
101331
101330
101330
101330
101330
101330
101330
101330
101330
101329
101330
101330
101330
101329
101329
101329
101329
101329
101329
101329
101329
101329
101329
101329
101329
101328
101328
101328
101328
101328
101328
101328
101328
101328
101328
101328
101328
101327
101327
101327
101327
101327
101327
101327
101327
101327
101327
101327
101326
101326
101326
101326
101326
101326
101326
101326
101326
101326
101326
101326
101326
101326
101326
101325
101325
101326
101326
101326
101325
101326
101326
101325
101325
101326
101326
101326
101326
101326
101326
101326
101326
101326
101326
101326
101326
101326
101326
101326
101326
101326
101326
101326
101326
102465
102396
102527
102742
102652
102378
102336
102336
102336
102334
102334
102334
102335
102335
102337
102336
102338
102335
102735
102766
102861
102866
102902
102895
102471
102332
102334
102334
102335
102334
102334
102335
102335
102336
102336
102337
102336
102825
102715
102782
102841
102915
102996
102578
102335
102333
102333
102335
102335
102335
102336
102336
102337
102336
102337
102336
102915
102652
102730
102792
102904
103055
102719
102342
102333
102333
102335
102335
102335
102336
102336
102336
102336
102337
102336
103046
102566
102651
102733
102862
102991
103084
102430
102334
102333
102334
102335
102335
102336
102335
102336
102336
102337
102352
103247
101909
102232
102437
102704
102941
103169
102911
102344
102333
102334
102334
102334
102335
102335
102336
102335
102337
102555
103463
101333
101343
101435
101852
102597
103026
103285
102894
102333
102331
102334
102334
102335
102335
102336
102335
102337
102956
103731
101333
101333
101334
101334
101475
102243
103027
103349
103197
102493
102334
102334
102335
102335
102335
102335
102429
103443
103927
101333
101333
101333
101334
101334
101385
101857
102825
103105
103371
103110
102624
102457
102464
102544
102827
103507
103990
104165
101333
101333
101334
101334
101334
101335
101337
101591
102239
102874
103308
103572
103644
103679
103773
103872
103980
104097
104247
101332
101333
101333
101333
101334
101333
101334
101336
101393
101717
102368
102973
103156
103178
103238
103416
103783
104033
104185
101332
101333
101333
101333
101334
101334
101336
101337
101348
101403
101590
101857
102010
102028
102070
102134
102705
103807
104100
101332
101332
101333
101333
101334
101333
101333
101332
101336
101514
102189
102624
102698
102333
102098
102112
102994
103894
104036
101332
101332
101333
101333
101333
101333
101333
101332
101330
101347
101954
103254
103586
103679
103421
103276
103797
104003
103955
101332
101332
101332
101332
101333
101332
101332
101331
101331
101333
101395
101942
102846
103446
103850
103927
103989
103973
103914
101331
101332
101332
101332
101332
101332
101331
101330
101329
101331
101330
101329
101330
101733
102911
103725
103927
103971
103955
101331
101331
101332
101332
101332
101332
101331
101330
101329
101330
101329
101330
101331
101331
101332
102378
103465
103423
103980
101331
101331
101331
101331
101331
101331
101331
101330
101329
101329
101329
101329
101330
101331
101335
101504
102736
103396
104026
101331
101331
101331
101331
101331
101331
101331
101330
101330
101330
101330
101330
101331
101331
101332
101424
102407
103272
103627
101330
101330
101330
101330
101330
101330
101330
101330
101330
101330
101330
101330
101331
101331
101332
101360
101776
102302
101973
101330
101330
101330
101330
101330
101330
101330
101330
101330
101330
101330
101330
101331
101331
101332
101333
101438
101867
101853
101330
101330
101330
101330
101330
101330
101330
101330
101330
101330
101330
101330
101331
101331
101332
101331
101363
101550
101860
101329
101329
101329
101329
101329
101329
101330
101330
101330
101330
101330
101330
101331
101331
101332
101332
101337
101331
101902
101329
101329
101329
101329
101329
101329
101329
101329
101329
101330
101330
101330
101331
101331
101332
101331
101332
101331
102011
101329
101329
101329
101329
101329
101329
101329
101329
101329
101329
101330
101330
101331
101331
101332
101331
101332
101331
102054
101328
101328
101328
101328
101328
101328
101328
101329
101329
101329
101330
101330
101331
101331
101332
101331
101333
101331
102048
101328
101328
101328
101328
101328
101328
101328
101328
101329
101329
101329
101329
101330
101330
101332
101331
101333
101331
101915
101328
101327
101327
101327
101327
101327
101327
101328
101328
101328
101329
101329
101330
101330
101332
101332
101333
101332
101780
101327
101327
101327
101327
101327
101327
101327
101327
101327
101328
101328
101329
101330
101330
101332
101332
101333
101339
102048
101327
101326
101326
101326
101326
101326
101326
101326
101327
101327
101328
101328
101329
101329
101331
101332
101349
101518
102292
101326
101326
101326
101325
101325
101325
101325
101325
101326
101326
101327
101327
101327
101326
101330
101384
101597
101680
102331
101326
101325
101325
101324
101324
101323
101324
101324
101325
101325
101326
101326
101325
101325
101322
101425
101769
102332
101730
101325
101325
101324
101323
101323
101322
101323
101323
101324
101324
101325
101325
101324
101324
101322
101323
101407
102514
101747
101325
101324
101323
101322
101321
101321
101322
101322
101322
101323
101324
101324
101323
101323
101321
101323
101322
102461
102856
101325
101324
101323
101321
101320
101320
101321
101322
101322
101323
101323
101324
101323
101322
101320
101322
101322
102148
103580
101325
101324
101323
101321
101320
101319
101320
101321
101322
101323
101323
101324
101323
101323
101321
101322
101322
102124
103628
101325
101324
101323
101321
101321
101320
101321
101321
101322
101323
101323
101324
101324
101323
101322
101323
101323
101778
103648
101325
101325
101323
101322
101321
101321
101321
101322
101323
101323
101324
101325
101325
101325
101324
101324
101324
101545
103615
101325
101325
101324
101323
101323
101322
101323
101323
101324
101325
101325
101326
101325
101326
101325
101325
101324
101326
103346
101326
101325
101324
101324
101323
101323
101324
101324
101324
101325
101325
101325
101325
101325
101325
101325
101325
101325
103395
101325
101325
101325
101324
101324
101325
101325
101325
101325
101325
101326
101326
101326
101326
101325
101326
101324
101326
103188
101325
101325
101325
101325
101325
101325
101325
101325
101325
101325
101325
101325
101325
101325
101325
101325
101324
101325
101708
)
;

boundaryField
{
    leftWall
    {
        type            zeroGradient;
    }
    rightWall
    {
        type            zeroGradient;
    }
    lowerWall
    {
        type            zeroGradient;
    }
    atmosphere
    {
        type            fixedValue;
        value           uniform 101325;
    }
    defaultFaces
    {
        type            empty;
    }
}


// ************************************************************************* //
