/*--------------------------------*- C++ -*----------------------------------*\
| =========                 |                                                 |
| \\      /  F ield         | OpenFOAM: The Open Source CFD Toolbox           |
|  \\    /   O peration     | Version:  2012                                  |
|   \\  /    A nd           | Website:  www.openfoam.com                      |
|    \\/     M anipulation  |                                                 |
\*---------------------------------------------------------------------------*/
FoamFile
{
    version     2.0;
    format      ascii;
    class       volScalarField;
    location    "0.51";
    object      rho;
}
// * * * * * * * * * * * * * * * * * * * * * * * * * * * * * * * * * * * * * //

dimensions      [1 -3 0 0 0 0 0];


internalField   nonuniform List<scalar> 
2268
(
1000.05
1000.05
1000.05
1000.05
1000.05
1000.05
1000.05
1000.05
1000.05
1000.05
1000.05
1000.05
1000.05
1000.05
1000.05
1000.05
1000.05
1000.05
1000.05
1000.05
1000.05
1000.05
999.741
1000.05
1000.05
1000.05
1000.05
1000.05
1000.05
1000.05
1000.05
1000.05
1000.05
1000.05
1000.05
1000.05
1000.05
1000.05
1000.05
1000.05
1000.05
1000.05
1000.05
1000.05
1000.05
999.712
1000.05
1000.05
1000.05
1000.05
1000.05
1000.05
1000.05
1000.05
1000.05
1000.05
1000.05
1000.05
1000.05
1000.05
1000.05
1000.05
1000.05
1000.05
1000.05
1000.05
1000.05
1000.05
999.712
1000.05
1000.05
1000.05
1000.05
1000.05
1000.05
1000.05
1000.05
1000.05
1000.05
1000.05
1000.05
1000.05
1000.05
1000.05
1000.05
1000.05
1000.05
1000.05
1000.05
1000.05
1000.05
999.853
1000.05
1000.05
1000.05
1000.05
1000.05
1000.05
1000.05
1000.05
1000.05
1000.05
1000.05
1000.05
1000.05
1000.05
1000.05
1000.05
1000.05
1000.05
1000.05
1000.05
1000.05
1000.05
1000.05
1000.05
1000.05
1000.05
1000.05
1000.05
1000.05
1000.05
1000.05
1000.05
1000.05
1000.05
1000.05
1000.05
1000.05
1000.05
1000.05
1000.05
1000.05
1000.05
1000.05
1000.05
1000.05
1000.05
1000.05
1000.05
1000.05
1000.05
1000.05
1000.05
1000.05
1000.05
1000.05
1000.05
1000.05
1000.05
1000.05
1000.05
1000.05
1000.05
1000.05
1000.05
1000.05
1000.05
1000.05
1000.05
1000.05
1000.04
1000.04
1000.04
1000.04
1000.05
1000.05
1000.05
1000.05
1000.05
1000.05
1000.05
1000.05
1000.05
1000.05
1000.05
1000.05
1000.05
1000.05
1000.05
1000.05
1000.05
1000.05
1000.05
1.30254
1.30254
1.30254
1.30256
1.30278
1.67565
67.2838
340.878
413.905
412.859
406.5
466.346
571.871
609.634
608.993
599.022
674.475
718.543
693.189
1.30254
1.30254
1.30254
1.30254
1.30262
1.52771
3.05002
1.9111
1.30257
1.30166
1.30223
3.60922
55.5758
236.55
394.66
485.426
573.347
718.699
719.931
1.30254
1.30254
1.30254
1.30255
1.30255
1.3293
1.53753
1.75616
1.34116
1.30254
1.31227
6.12402
18.5478
29.2962
53.0801
82.7246
120.198
392.828
719.996
1.30254
1.30254
1.30258
1.30277
1.30259
1.30279
1.31827
1.34777
1.31841
1.30296
1.30319
1.30245
1.30193
1.30172
1.30181
1.3027
1.30463
139.393
719.995
1.30254
1.30255
1.30276
1.30366
1.3032
1.30261
1.30323
1.30349
1.3025
1.30276
1.30258
1.30242
1.3024
1.30231
1.30233
1.31012
2.31999
58.1458
621.925
1.30254
1.30257
1.303
1.30791
1.30461
1.30281
1.30275
1.30273
1.30227
1.30254
1.30246
1.3024
1.30245
1.3025
1.30251
1.3025
1.53706
22.7262
146.442
1.30253
1.30257
1.37249
10.1474
4.70144
1.67915
1.322
1.3035
1.3024
1.30253
1.30261
1.30252
1.3025
1.30252
1.30253
1.30248
1.33485
10.9019
204.999
1.30253
1.30264
10.3303
319.348
176.638
16.8141
1.65243
1.30314
1.30265
1.3027
1.30287
1.30281
1.30263
1.30256
1.30254
1.30248
1.30238
9.10166
734.387
962.025
962.028
965.624
969.403
973.827
978.38
984.461
988.011
991.533
994.5
996.822
998.646
999.614
999.975
1000.05
1000.05
1000.05
1000.05
1000.05
1000.05
1000.05
1000.05
1000.05
345.223
347.307
358.427
371.502
390.69
415.05
455.696
499.821
568.026
632.327
702.762
784.193
870.896
945.521
989.596
1000.05
1000.05
1000.05
1000.05
1000.05
1000.05
1000.05
999.991
1.29336
1.29336
1.29336
1.29335
1.29335
1.29336
1.29336
1.29337
1.2934
15.2771
43.5322
83.9756
144.902
241.631
403.295
638.192
919.168
1000.05
1000.05
1000.05
1000.05
1000.05
1000.02
1.29329
1.29329
1.29329
1.29329
1.29329
1.29329
1.2933
1.2933
1.29331
1.29332
1.29333
1.29334
1.29336
1.29337
7.57852
35.65
117.418
301.276
582.849
912.016
1000.05
1000.05
1000.05
1.29326
1.29326
1.29326
1.29326
1.29326
1.29326
1.29326
1.29326
1.29326
1.29326
1.29329
1.29331
1.29336
1.29344
1.29328
1.29329
1.29333
8.64545
47.9636
134.387
284.78
491.402
806.628
1.29325
1.29325
1.29325
1.29325
1.29325
1.29325
1.29325
1.29325
1.29325
1.29325
1.2933
1.29435
1.29523
1.29562
1.29493
1.29335
1.29327
1.30327
1.44157
1.65167
7.00492
22.6266
75.9269
1.29324
1.29324
1.29324
1.29324
1.29324
1.29324
1.29324
1.29324
1.29325
1.29325
1.29325
1.29517
1.29562
1.29562
1.2945
1.29332
1.29326
1.29326
1.29327
1.29335
1.29894
1.29328
1.2933
1.29324
1.29324
1.29324
1.29324
1.29324
1.29324
1.29324
1.29324
1.29324
1.29324
1.29333
1.29328
1.29364
1.29325
1.29325
1.29326
1.29329
1.29328
1.29326
1.29328
1.29333
1.29352
1.29357
1.29324
1.29324
1.29324
1.29324
1.29324
1.29324
1.29324
1.29324
1.29324
1.29325
1.29324
1.29324
1.29324
1.29325
1.29325
1.29325
1.29329
1.29329
1.29327
1.29328
1.29326
1.29326
1.29341
1.29324
1.29324
1.29324
1.29324
1.29324
1.29324
1.29324
1.29324
1.29324
1.29324
1.29324
1.29324
1.29324
1.29324
1.29324
1.29325
1.29325
1.29327
1.29326
1.29325
1.29325
1.29325
1.29331
1.29323
1.29323
1.29323
1.29324
1.29324
1.29324
1.29324
1.29324
1.29324
1.29324
1.29324
1.29324
1.29324
1.29324
1.29324
1.29324
1.29324
1.29325
1.29325
1.29325
1.29325
1.29325
1.29325
1.29323
1.29323
1.29323
1.29323
1.29323
1.29323
1.29323
1.29323
1.29323
1.29324
1.29324
1.29324
1.29324
1.29324
1.29324
1.29324
1.29324
1.29324
1.29324
1.29324
1.29325
1.29325
1.29325
1.29323
1.29323
1.29323
1.29323
1.29323
1.29323
1.29323
1.29323
1.29323
1.29323
1.29323
1.29323
1.29323
1.29324
1.29324
1.29324
1.29324
1.29324
1.29324
1.29324
1.29324
1.29325
1.29325
1.29323
1.29323
1.29323
1.29323
1.29323
1.29323
1.29323
1.29323
1.29323
1.29323
1.29323
1.29323
1.29323
1.29323
1.29323
1.29323
1.29324
1.29324
1.29324
1.29324
1.29324
1.29324
1.29324
1.29322
1.29322
1.29322
1.29322
1.29322
1.29322
1.29323
1.29323
1.29323
1.29323
1.29323
1.29323
1.29323
1.29323
1.29323
1.29323
1.29323
1.29323
1.29324
1.29324
1.29324
1.29324
1.29324
1.29322
1.29322
1.29322
1.29322
1.29322
1.29322
1.29322
1.29322
1.29322
1.29322
1.29322
1.29322
1.29323
1.29323
1.29323
1.29323
1.29323
1.29323
1.29323
1.29323
1.29323
1.29324
1.29324
1.29322
1.29322
1.29322
1.29322
1.29322
1.29322
1.29322
1.29322
1.29322
1.29322
1.29322
1.29322
1.29322
1.29322
1.29322
1.29323
1.29323
1.29323
1.29323
1.29323
1.29323
1.29323
1.29323
1.29321
1.29321
1.29321
1.29321
1.29321
1.29321
1.29321
1.29322
1.29322
1.29322
1.29322
1.29322
1.29322
1.29322
1.29322
1.29322
1.29322
1.29322
1.29322
1.29323
1.29323
1.29323
1.29323
1.29321
1.29321
1.29321
1.29321
1.29321
1.29321
1.29321
1.29321
1.29321
1.29321
1.29321
1.29321
1.29321
1.29322
1.29322
1.29322
1.29322
1.29322
1.29322
1.29322
1.29322
1.29322
1.29323
1.2932
1.2932
1.2932
1.2932
1.2932
1.2932
1.2932
1.2932
1.29321
1.29321
1.29321
1.29321
1.29321
1.29321
1.29321
1.29321
1.29321
1.29322
1.29322
1.29322
1.29322
1.29322
1.29322
1.29319
1.29319
1.29319
1.29319
1.29319
1.29319
1.2932
1.2932
1.2932
1.2932
1.2932
1.2932
1.2932
1.2932
1.29321
1.29321
1.29321
1.29321
1.29321
1.29321
1.29321
1.29322
1.29322
1.29318
1.29318
1.29318
1.29318
1.29318
1.29318
1.29318
1.29319
1.29319
1.29319
1.29319
1.29319
1.29319
1.2932
1.2932
1.2932
1.2932
1.2932
1.29321
1.29321
1.29321
1.29321
1.29321
1.29316
1.29316
1.29316
1.29316
1.29316
1.29317
1.29317
1.29317
1.29317
1.29317
1.29318
1.29318
1.29318
1.29318
1.29319
1.29319
1.29319
1.29319
1.2932
1.2932
1.2932
1.2932
1.29321
1.29314
1.29314
1.29314
1.29314
1.29315
1.29315
1.29315
1.29315
1.29315
1.29315
1.29316
1.29316
1.29316
1.29317
1.29317
1.29317
1.29318
1.29318
1.29318
1.29319
1.29319
1.29319
1.2932
1.29313
1.29313
1.29313
1.29313
1.29313
1.29313
1.29313
1.29313
1.29313
1.29314
1.29314
1.29314
1.29314
1.29315
1.29315
1.29315
1.29316
1.29316
1.29317
1.29317
1.29318
1.29318
1.29319
1.29312
1.29312
1.29312
1.29312
1.29312
1.29312
1.29312
1.29312
1.29312
1.29312
1.29312
1.29312
1.29313
1.29313
1.29313
1.29313
1.29314
1.29314
1.29315
1.29315
1.29316
1.29317
1.29317
1.29311
1.29311
1.29311
1.29311
1.29311
1.29311
1.29311
1.29311
1.29311
1.29311
1.29311
1.29311
1.29311
1.29312
1.29312
1.29312
1.29312
1.29313
1.29313
1.29314
1.29314
1.29315
1.29316
1.2931
1.2931
1.2931
1.2931
1.2931
1.2931
1.2931
1.2931
1.2931
1.2931
1.2931
1.2931
1.2931
1.29311
1.29311
1.29311
1.29311
1.29311
1.29312
1.29312
1.29313
1.29313
1.29314
1.29309
1.29309
1.29309
1.29309
1.29309
1.29309
1.29309
1.29309
1.29309
1.29309
1.2931
1.2931
1.2931
1.2931
1.2931
1.2931
1.2931
1.29311
1.29311
1.29311
1.29312
1.29312
1.29313
1.29309
1.29309
1.29309
1.29309
1.29309
1.29309
1.29309
1.29309
1.29309
1.29309
1.29309
1.29309
1.29309
1.29309
1.29309
1.2931
1.2931
1.2931
1.2931
1.29311
1.29311
1.29312
1.29312
1.29308
1.29308
1.29308
1.29308
1.29308
1.29308
1.29309
1.29309
1.29309
1.29309
1.29309
1.29309
1.29309
1.29309
1.29309
1.29309
1.29309
1.2931
1.2931
1.2931
1.29311
1.29311
1.29312
1.29308
1.29308
1.29308
1.29308
1.29308
1.29308
1.29308
1.29308
1.29308
1.29308
1.29309
1.29309
1.29309
1.29309
1.29309
1.29309
1.29309
1.29309
1.2931
1.2931
1.29311
1.29311
1.29312
1.29308
1.29308
1.29308
1.29308
1.29308
1.29308
1.29308
1.29308
1.29309
1.29309
1.29309
1.29309
1.29309
1.29309
1.29309
1.29309
1.29309
1.2931
1.2931
1.2931
1.29311
1.29311
1.29312
1.29309
1.29309
1.29309
1.29309
1.29309
1.29309
1.29309
1.29309
1.29309
1.29309
1.29309
1.29309
1.29309
1.29309
1.29309
1.2931
1.2931
1.2931
1.2931
1.29311
1.29311
1.29312
1.29313
1.29309
1.29309
1.29309
1.29309
1.29309
1.29309
1.29309
1.29309
1.29309
1.29309
1.29309
1.29309
1.29309
1.29309
1.29309
1.2931
1.2931
1.2931
1.2931
1.29311
1.29311
1.29312
1.29314
1.29309
1.29309
1.29309
1.29309
1.29309
1.29309
1.29309
1.29309
1.29309
1.29309
1.29309
1.29309
1.29309
1.29309
1.2931
1.2931
1.2931
1.2931
1.29311
1.29311
1.29312
1.29313
1.29315
1.29309
1.29309
1.29309
1.29309
1.29309
1.29309
1.29309
1.29309
1.29309
1.29309
1.29309
1.29309
1.29309
1.29309
1.29309
1.2931
1.2931
1.2931
1.29311
1.29312
1.29313
1.29314
1.29315
1.29309
1.29309
1.29309
1.29309
1.29309
1.29309
1.29309
1.29309
1.29309
1.29309
1.29309
1.29309
1.29309
1.29309
1.29309
1.2931
1.2931
1.2931
1.29311
1.29312
1.29314
1.29315
1.29316
1.29309
1.29309
1.29309
1.29309
1.29309
1.29309
1.29309
1.29309
1.29309
1.29309
1.29309
1.29309
1.29309
1.29309
1.29309
1.29309
1.2931
1.2931
1.29311
1.29312
1.29314
1.29316
1.29316
1.29309
1.29309
1.29309
1.29309
1.29309
1.29309
1.29309
1.29309
1.29309
1.29309
1.29309
1.29309
1.29309
1.29309
1.29309
1.2931
1.2931
1.29311
1.29312
1.29313
1.29315
1.29317
1.29317
1.29309
1.29309
1.29309
1.29309
1.29309
1.29309
1.29309
1.29309
1.29309
1.29309
1.29309
1.29309
1.29309
1.29309
1.29309
1.29309
1.2931
1.2931
1.29311
1.29313
1.29316
1.29317
1.29319
1.29309
1.29309
1.29309
1.29309
1.29309
1.29309
1.29309
1.29309
1.29309
1.29309
1.29309
1.29309
1.29309
1.29309
1.29309
1.29309
1.2931
1.2931
1.29312
1.29314
1.29317
1.2932
1.29321
999.576
999.832
999.864
999.864
999.504
999.504
999.855
999.864
999.928
999.933
999.913
999.842
1000.05
1000.05
1000.05
1000.05
947.883
976.025
983.386
986.38
127.946
175.419
231.47
291.574
1.29332
1.29333
1.29335
1.29337
1.29352
1.29344
1.29335
1.29329
1.29924
1.30051
1.30052
1.30052
1.29333
1.2937
1.29372
1.29336
1.29325
1.29325
1.29326
1.29326
1.29325
1.29325
1.29325
1.29325
1.29325
1.29325
1.29325
1.29325
1.29325
1.29325
1.29325
1.29325
1.29324
1.29324
1.29324
1.29324
1.29324
1.29324
1.29324
1.29324
1.29323
1.29324
1.29324
1.29324
1.29323
1.29323
1.29323
1.29323
1.29323
1.29323
1.29323
1.29323
1.29322
1.29322
1.29322
1.29322
1.29322
1.29322
1.29322
1.29322
1.29321
1.29321
1.29321
1.29321
1.29321
1.29321
1.29321
1.29321
1.2932
1.2932
1.2932
1.2932
1.29319
1.29319
1.29319
1.29319
1.29318
1.29318
1.29318
1.29318
1.29316
1.29317
1.29317
1.29317
1.29315
1.29315
1.29316
1.29316
1.29314
1.29314
1.29315
1.29315
1.29313
1.29313
1.29314
1.29314
1.29313
1.29313
1.29314
1.29315
1.29313
1.29313
1.29314
1.29315
1.29313
1.29314
1.29315
1.29316
1.29314
1.29315
1.29316
1.29315
1.29315
1.29315
1.29315
1.29316
1.29316
1.29315
1.29316
1.29319
1.29315
1.29315
1.29316
1.29319
1.29316
1.29315
1.29318
1.29323
1.29316
1.29315
1.29318
1.29333
1.29319
1.29318
1.29317
1.2934
1.29321
1.29318
1.29318
1.29383
1.2932
1.29322
1.29328
1.29364
248.752
104.058
392.132
817.006
604.857
76.6702
1.84827
1.30277
1.30269
1.30281
1.30287
1.3028
1.30268
1.30258
1.30255
1.30247
1.3024
1.3026
744.724
930.328
942.93
1000.05
1000.05
914.771
210.355
3.28321
1.30253
1.30249
1.3027
1.30269
1.30261
1.30254
1.3025
1.30249
1.30242
1.30239
1.30265
742.638
1000.02
1000.05
1000.05
1000.05
980.832
317.127
5.72418
1.30301
1.30245
1.30252
1.3025
1.30247
1.30246
1.30244
1.30244
1.3024
1.30243
1.30277
738.059
1000.01
1000.02
1000.05
1000.05
1000.05
439.214
12.7201
1.30259
1.30244
1.30244
1.30242
1.30242
1.30242
1.30241
1.30242
1.30239
1.30244
1.30367
780.777
993.675
997.974
999.528
1000
1000.05
807.416
96.2344
1.30288
1.30246
1.30242
1.30241
1.3024
1.3024
1.3024
1.30241
1.3024
1.3025
16.5736
867.788
471.896
733.89
870.192
974.072
998.196
999.779
517.754
12.5666
1.37186
1.30243
1.30237
1.30235
1.30235
1.30235
1.3024
1.30265
1.30258
190.573
932.626
1.29338
8.3594
76.6864
386.785
893.524
999.775
979.675
442.476
1.30159
1.30199
1.30203
1.30203
1.30201
1.302
1.30217
1.3024
1.30256
481.463
982.261
1.29331
1.29334
1.29339
1.29339
97.7594
609.629
980.226
980.226
644.014
118.408
1.30035
1.30023
1.30053
1.30076
1.30079
1.30035
67.5805
757.012
991.986
1.29759
1.29333
1.29535
1.29416
1.2935
33.4788
332.681
854.652
854.653
816.107
530.517
198.675
84.4363
89.8718
142.579
334.871
763.436
993.832
994.897
1.29337
1.31713
1.32919
1.31374
1.29347
1.29331
2.14445
151.141
506.581
784.927
884.35
884.344
858.05
873.482
925.299
985.986
994.897
994.897
994.897
1.30175
1.32917
1.32918
1.3089
1.29335
1.29328
1.2933
2.61139
31.1983
186.111
437.637
648.411
688.722
688.659
696.985
772.914
912.136
978.509
994.897
1.29338
1.29991
1.30112
1.29556
1.29331
1.29327
1.29517
1.59531
4.33959
15.1147
41.9427
78.3517
81.0854
74.4189
74.4195
99.4187
349.563
895.044
994.897
1.29325
1.29325
1.29326
1.29326
1.29327
1.29323
1.29358
1.30292
1.84363
76.7534
321.071
412.292
398.436
221.677
99.0669
99.0659
518.814
950.497
993.122
1.29325
1.29325
1.29326
1.29326
1.29326
1.29323
1.29321
1.29342
1.33259
8.22893
275.276
831.757
909.325
909.327
733.707
653.147
884.356
989.239
953.604
1.29325
1.29325
1.29325
1.29325
1.29326
1.29323
1.29318
1.29316
1.29488
2.46598
29.0648
261.633
647.481
871.499
987.579
987.579
990.338
990.338
952.203
1.29324
1.29324
1.29325
1.29325
1.29325
1.29324
1.2932
1.29317
1.44299
1.74916
1.29327
1.29325
1.29327
163.254
637.675
925.26
972.555
990.338
964.369
1.29324
1.29324
1.29324
1.29324
1.29324
1.29324
1.29322
1.29319
1.31464
1.29874
1.30389
1.30282
1.29322
1.29321
1.29317
407.303
799.793
778.161
979.012
1.29323
1.29323
1.29324
1.29324
1.29324
1.29323
1.29323
1.29321
1.29319
1.29434
1.38484
1.34445
1.29322
1.29391
2.58291
65.5823
521.405
758.219
979.029
1.29323
1.29323
1.29323
1.29323
1.29323
1.29323
1.29323
1.29322
1.29321
1.29321
1.33173
1.32666
1.30116
1.29388
1.42618
34.2722
384.985
682.953
806.912
1.29322
1.29322
1.29323
1.29323
1.29323
1.29322
1.29322
1.29322
1.29322
1.29321
1.29331
1.29355
1.29323
1.29323
1.32658
11.0506
153.053
329.618
203.989
1.29322
1.29322
1.29322
1.29322
1.29322
1.29322
1.29322
1.29322
1.29322
1.29322
1.29322
1.29322
1.29323
1.29323
1.29363
1.78678
36.6204
173.759
163.875
1.29321
1.29321
1.29322
1.29322
1.29322
1.29322
1.29322
1.29322
1.29322
1.29322
1.29322
1.29322
1.29323
1.29322
1.29323
1.31908
11.1035
69.3228
163.677
1.29321
1.29321
1.29321
1.29321
1.29321
1.29321
1.29321
1.29321
1.29321
1.29321
1.29323
1.2933
1.29327
1.29322
1.29323
1.51177
2.86744
1.2933
174.542
1.2932
1.2932
1.29321
1.29321
1.29321
1.29321
1.29321
1.29321
1.29321
1.29321
1.29334
1.29336
1.29333
1.29322
1.29323
1.33349
1.29323
1.29323
200.34
1.2932
1.2932
1.2932
1.2932
1.2932
1.2932
1.2932
1.2932
1.2932
1.29322
1.29335
1.29335
1.29326
1.29321
1.29323
1.29322
1.29323
1.30557
205.372
1.29319
1.29319
1.29319
1.29319
1.29319
1.29319
1.2932
1.2932
1.2932
1.29324
1.29328
1.29323
1.29321
1.29321
1.29324
1.29322
1.29323
1.29323
196.451
1.29318
1.29318
1.29319
1.29319
1.29319
1.29319
1.29319
1.29319
1.29321
1.29321
1.29321
1.2932
1.29322
1.29352
1.29326
1.29322
1.29323
1.29323
154.965
1.29317
1.29318
1.29318
1.29318
1.29318
1.29318
1.29318
1.29319
1.2932
1.29319
1.2932
1.29372
1.29723
1.29462
1.29322
1.29322
1.29329
1.29321
115.469
1.29316
1.29317
1.29317
1.29317
1.29317
1.29317
1.29318
1.29318
1.29319
1.29318
1.29319
1.29716
1.29768
1.29436
1.29322
1.29322
1.35541
3.05363
178.974
1.29316
1.29317
1.29317
1.29316
1.29316
1.29316
1.29316
1.29316
1.29317
1.29317
1.29363
1.29766
1.29767
1.29352
1.30028
1.4676
5.1474
47.1443
230.651
1.29316
1.29316
1.29316
1.29315
1.29315
1.29348
1.29348
1.29317
1.29315
1.29316
1.29365
1.29765
1.29506
1.29337
1.50422
14.3254
63.1693
83.3863
228.261
1.29316
1.29315
1.29314
1.29313
1.29324
1.29311
1.29312
1.29312
1.29313
1.29314
1.29349
1.29486
1.29324
1.29323
1.48541
24.0965
102.105
227.437
87.7742
1.29315
1.29315
1.29314
1.29311
1.29309
1.30364
1.37612
1.30322
1.2937
1.29324
1.29318
1.29315
1.29315
1.30046
1.37649
1.29325
19.8351
262.829
87.89
1.29315
1.29317
1.29313
1.29308
1.29307
1.41256
1.47515
1.43378
1.30499
1.29326
1.29315
1.29314
1.29313
1.30045
1.30772
1.29321
1.29337
245.049
327.226
1.29319
1.29315
1.29309
1.29307
1.32219
1.47513
1.47513
1.47515
1.31507
1.2931
1.29328
1.29313
1.29314
1.29731
1.29378
1.29358
1.29325
173.586
467.466
1.29319
1.29311
1.29308
1.2942
1.40187
1.47512
1.47512
1.47515
1.30221
1.2931
1.29313
1.29311
1.29311
1.29345
1.29335
1.29446
1.29314
164.28
467.466
1.29318
1.2931
1.29308
1.29439
1.37204
1.47513
1.47514
1.38866
1.29309
1.2931
1.29311
1.31121
1.29638
1.29366
1.29337
1.29445
1.29304
91.5556
460.195
1.29319
1.2931
1.29309
1.29391
1.30369
1.34012
1.34909
1.2958
1.29323
1.2971
1.31405
1.31823
1.31705
1.29421
1.29385
1.2938
1.40904
43.6025
443.548
1.2934
1.29319
1.2931
1.29309
1.29308
1.29312
1.29314
1.29313
1.29692
1.31823
1.31823
1.31824
1.31748
1.29618
1.29607
1.29589
1.29376
1.29297
383.426
1.29414
1.29424
1.29311
1.29318
1.29327
1.29319
1.29311
1.29312
1.29416
1.31029
1.31819
1.3116
1.29864
1.29607
1.29308
1.29261
1.29267
1.29283
383.404
1.29443
1.29435
1.29364
1.29961
1.30333
1.30336
1.30236
1.29955
1.29769
1.29559
1.29697
1.29551
1.29374
1.293
1.29253
1.29257
1.29257
1.29277
338.366
1.29438
1.2945
1.29324
1.29344
1.29586
1.30129
1.3036
1.3036
1.30347
1.29392
1.2933
1.29315
1.29298
1.29258
1.29252
1.29251
1.29253
1.29269
69.8524
)
;

boundaryField
{
    leftWall
    {
        type            calculated;
        value           nonuniform List<scalar> 
50
(
1000.05
1000.05
1000.05
1000.05
1000.05
1000.05
1000.05
1000.04
962.025
345.223
1.29336
1.29329
1.29326
1.29325
1.29324
1.29324
1.29324
1.29324
1.29323
1.29323
1.29323
1.29323
1.29322
1.29322
1.29322
1.29321
1.29321
1.2932
1.29319
1.29318
1.29316
1.29314
1.29313
1.29312
1.29311
1.2931
1.29309
1.29309
1.29308
1.29308
1.29308
1.29309
1.29309
1.29309
1.29309
1.29309
1.29309
1.29309
1.29309
1.29309
)
;
    }
    rightWall
    {
        type            calculated;
        value           nonuniform List<scalar> 
50
(
693.189
719.931
719.996
719.995
621.925
146.442
204.999
734.387
744.724
742.638
738.059
780.777
867.788
932.626
982.261
991.986
994.897
994.897
994.897
994.897
993.122
953.604
952.203
964.369
979.012
979.029
806.912
203.989
163.875
163.677
174.542
200.34
205.372
196.451
154.965
115.469
178.974
230.651
228.261
87.7742
87.89
327.226
467.466
467.466
460.195
443.548
383.426
383.404
338.366
69.8524
)
;
    }
    lowerWall
    {
        type            calculated;
        value           nonuniform List<scalar> 
62
(
1000.05
1000.05
1000.05
1000.05
1000.05
1000.05
1000.05
1000.05
1000.05
1000.05
1000.05
1000.05
1000.05
1000.05
1000.05
1000.05
1000.05
1000.05
1000.05
1000.05
1000.05
1000.05
999.741
999.741
999.712
999.712
999.853
1000.05
1000.05
1000.05
1000.05
999.576
999.832
999.864
999.864
1.30254
1.30254
1.30254
1.30254
1.30254
1.30254
1.30253
1.30253
1.30254
1.30254
1.30254
1.30256
1.30278
1.67565
67.2838
340.878
413.905
412.859
406.5
466.346
571.871
609.634
608.994
599.022
674.475
718.543
693.189
)
;
    }
    atmosphere
    {
        type            calculated;
        value           nonuniform List<scalar> 
46
(
1.29318
1.29318
1.29318
1.29318
1.29318
1.29318
1.29318
1.29318
1.29318
1.29318
1.29318
1.29318
1.29318
1.29318
1.29318
1.29318
1.29319
1.2932
1.29321
1.29323
1.29326
1.29329
1.29329
1.29328
1.2933
1.29337
1.29373
1.29446
1.2946
1.29333
1.29314
1.29315
1.29316
1.3037
1.3037
1.30356
1.29402
1.2934
1.29325
1.29307
1.29267
1.29262
1.29261
1.29264
1.29278
69.8526
)
;
    }
    defaultFaces
    {
        type            empty;
    }
}


// ************************************************************************* //
