/*--------------------------------*- C++ -*----------------------------------*\
| =========                 |                                                 |
| \\      /  F ield         | OpenFOAM: The Open Source CFD Toolbox           |
|  \\    /   O peration     | Version:  2012                                  |
|   \\  /    A nd           | Website:  www.openfoam.com                      |
|    \\/     M anipulation  |                                                 |
\*---------------------------------------------------------------------------*/
FoamFile
{
    version     2.0;
    format      ascii;
    class       volScalarField;
    location    "0.51";
    object      rho2;
}
// * * * * * * * * * * * * * * * * * * * * * * * * * * * * * * * * * * * * * //

dimensions      [1 -3 0 0 0 0 0];


internalField   nonuniform List<scalar> 
2268
(
1.30137
1.30138
1.30141
1.30145
1.3015
1.30158
1.30167
1.30179
1.30195
1.30211
1.30233
1.30257
1.30286
1.30317
1.30354
1.30391
1.30435
1.30476
1.30523
1.30562
1.30605
1.30632
1.30654
1.30061
1.30063
1.30065
1.30069
1.30075
1.30082
1.30092
1.30104
1.30119
1.30135
1.30157
1.3018
1.3021
1.30241
1.30278
1.30316
1.30359
1.30401
1.30448
1.30487
1.3053
1.30558
1.3058
1.29985
1.29986
1.29989
1.29992
1.29998
1.30006
1.30015
1.30027
1.30042
1.30058
1.3008
1.30104
1.30133
1.30165
1.30201
1.30239
1.30283
1.30325
1.30373
1.30413
1.30459
1.30488
1.30512
1.29908
1.29909
1.29912
1.29915
1.29921
1.29928
1.29938
1.29949
1.29964
1.2998
1.30002
1.30026
1.30055
1.30087
1.30124
1.30162
1.30207
1.30249
1.30298
1.30339
1.30385
1.30416
1.30439
1.2983
1.29831
1.29834
1.29837
1.29843
1.2985
1.29859
1.29871
1.29886
1.29902
1.29924
1.29948
1.29977
1.30009
1.30046
1.30084
1.30129
1.30172
1.30222
1.30265
1.30315
1.30348
1.30381
1.29752
1.29753
1.29756
1.29759
1.29765
1.29772
1.29781
1.29792
1.29806
1.29823
1.29844
1.29867
1.29896
1.29929
1.29966
1.30007
1.30052
1.30097
1.30147
1.30193
1.30243
1.30281
1.30311
1.29673
1.29674
1.29677
1.2968
1.29685
1.29692
1.29701
1.29713
1.29727
1.29744
1.29765
1.29789
1.29817
1.2985
1.29887
1.29926
1.29973
1.30018
1.30071
1.30116
1.30174
1.3021
1.3026
1.29595
1.29596
1.29599
1.29602
1.29607
1.29614
1.29623
1.29633
1.29646
1.29662
1.29682
1.29706
1.29734
1.29767
1.29805
1.29847
1.29895
1.29942
1.29994
1.30044
1.30102
1.3015
1.30196
1.30254
1.30254
1.30254
1.30256
1.30278
1.30403
1.30515
1.30561
1.30535
1.30513
1.30511
1.30523
1.30554
1.30618
1.30659
1.30702
1.3084
1.31314
1.32227
1.30254
1.30254
1.30254
1.30254
1.30259
1.30325
1.30394
1.3034
1.30192
1.30166
1.30222
1.30309
1.30438
1.30501
1.30546
1.30573
1.30627
1.30998
1.31869
1.30254
1.30254
1.30254
1.30255
1.30255
1.30278
1.30352
1.30282
1.30191
1.30254
1.3042
1.30482
1.30493
1.30467
1.30445
1.30434
1.30479
1.3078
1.31554
1.30254
1.30254
1.30258
1.30277
1.30259
1.30258
1.30311
1.30263
1.30229
1.30296
1.30311
1.30245
1.30193
1.30172
1.30181
1.3027
1.30463
1.30646
1.31223
1.30254
1.30255
1.30276
1.30366
1.3032
1.30261
1.30291
1.30269
1.30225
1.30266
1.30257
1.30241
1.30238
1.3023
1.30227
1.30254
1.30388
1.30601
1.30947
1.30254
1.30257
1.303
1.30476
1.30409
1.30281
1.30275
1.30272
1.30226
1.30249
1.30246
1.30238
1.30242
1.30246
1.30249
1.30247
1.30305
1.30505
1.30814
1.30253
1.30257
1.30433
1.30647
1.30558
1.30347
1.30277
1.30273
1.3024
1.30253
1.30261
1.30251
1.3025
1.30252
1.30253
1.30248
1.30254
1.30364
1.30752
1.30253
1.30264
1.30658
1.30735
1.30656
1.30548
1.30329
1.3028
1.30265
1.3027
1.30287
1.30281
1.30263
1.30255
1.30254
1.30248
1.30238
1.30276
1.30626
1.29476
1.29476
1.29479
1.29481
1.29485
1.29491
1.295
1.2951
1.29524
1.2954
1.2956
1.29583
1.29611
1.29643
1.29679
1.2972
1.2977
1.29815
1.29875
1.29922
1.29995
1.30029
1.30119
1.29365
1.29365
1.29366
1.29367
1.29368
1.2937
1.29374
1.29377
1.29383
1.29391
1.29402
1.29417
1.29438
1.29465
1.29504
1.29549
1.29601
1.29652
1.29703
1.29766
1.29826
1.29898
1.29982
1.29336
1.29336
1.29336
1.29335
1.29335
1.29336
1.29336
1.29337
1.2934
1.2934
1.29343
1.29346
1.29351
1.29358
1.29372
1.29395
1.29433
1.29478
1.29537
1.29597
1.29656
1.29717
1.29805
1.29329
1.29329
1.29329
1.29329
1.29329
1.29329
1.2933
1.2933
1.29331
1.29332
1.29333
1.29334
1.29336
1.29337
1.29337
1.2934
1.29348
1.29363
1.29391
1.29434
1.29478
1.29543
1.29618
1.29326
1.29326
1.29326
1.29326
1.29326
1.29326
1.29326
1.29326
1.29326
1.29326
1.29327
1.29327
1.29328
1.29328
1.29328
1.29329
1.29333
1.29338
1.29342
1.2935
1.29363
1.29383
1.29422
1.29325
1.29325
1.29325
1.29325
1.29325
1.29325
1.29325
1.29325
1.29325
1.29325
1.29325
1.29325
1.29325
1.29325
1.29325
1.29326
1.29326
1.29328
1.2933
1.29332
1.29335
1.29338
1.29343
1.29324
1.29324
1.29324
1.29324
1.29324
1.29324
1.29324
1.29324
1.29324
1.29325
1.29325
1.29325
1.29325
1.29325
1.29325
1.29325
1.29325
1.29325
1.29326
1.29326
1.29327
1.29328
1.2933
1.29324
1.29324
1.29324
1.29324
1.29324
1.29324
1.29324
1.29324
1.29324
1.29324
1.29324
1.29325
1.29325
1.29325
1.29325
1.29325
1.29325
1.29325
1.29325
1.29325
1.29326
1.29326
1.29326
1.29324
1.29324
1.29324
1.29324
1.29324
1.29324
1.29324
1.29324
1.29324
1.29324
1.29324
1.29324
1.29324
1.29325
1.29325
1.29325
1.29325
1.29325
1.29325
1.29325
1.29325
1.29326
1.29326
1.29324
1.29324
1.29324
1.29324
1.29324
1.29324
1.29324
1.29324
1.29324
1.29324
1.29324
1.29324
1.29324
1.29324
1.29324
1.29325
1.29325
1.29325
1.29325
1.29325
1.29325
1.29325
1.29325
1.29323
1.29323
1.29323
1.29324
1.29324
1.29324
1.29324
1.29324
1.29324
1.29324
1.29324
1.29324
1.29324
1.29324
1.29324
1.29324
1.29324
1.29325
1.29325
1.29325
1.29325
1.29325
1.29325
1.29323
1.29323
1.29323
1.29323
1.29323
1.29323
1.29323
1.29323
1.29323
1.29324
1.29324
1.29324
1.29324
1.29324
1.29324
1.29324
1.29324
1.29324
1.29324
1.29324
1.29325
1.29325
1.29325
1.29323
1.29323
1.29323
1.29323
1.29323
1.29323
1.29323
1.29323
1.29323
1.29323
1.29323
1.29323
1.29323
1.29324
1.29324
1.29324
1.29324
1.29324
1.29324
1.29324
1.29324
1.29325
1.29325
1.29323
1.29323
1.29323
1.29323
1.29323
1.29323
1.29323
1.29323
1.29323
1.29323
1.29323
1.29323
1.29323
1.29323
1.29323
1.29323
1.29324
1.29324
1.29324
1.29324
1.29324
1.29324
1.29324
1.29322
1.29322
1.29322
1.29322
1.29322
1.29322
1.29323
1.29323
1.29323
1.29323
1.29323
1.29323
1.29323
1.29323
1.29323
1.29323
1.29323
1.29323
1.29324
1.29324
1.29324
1.29324
1.29324
1.29322
1.29322
1.29322
1.29322
1.29322
1.29322
1.29322
1.29322
1.29322
1.29322
1.29322
1.29322
1.29323
1.29323
1.29323
1.29323
1.29323
1.29323
1.29323
1.29323
1.29323
1.29324
1.29324
1.29322
1.29322
1.29322
1.29322
1.29322
1.29322
1.29322
1.29322
1.29322
1.29322
1.29322
1.29322
1.29322
1.29322
1.29322
1.29323
1.29323
1.29323
1.29323
1.29323
1.29323
1.29323
1.29323
1.29321
1.29321
1.29321
1.29321
1.29321
1.29321
1.29321
1.29322
1.29322
1.29322
1.29322
1.29322
1.29322
1.29322
1.29322
1.29322
1.29322
1.29322
1.29322
1.29323
1.29323
1.29323
1.29323
1.29321
1.29321
1.29321
1.29321
1.29321
1.29321
1.29321
1.29321
1.29321
1.29321
1.29321
1.29321
1.29321
1.29322
1.29322
1.29322
1.29322
1.29322
1.29322
1.29322
1.29322
1.29322
1.29323
1.2932
1.2932
1.2932
1.2932
1.2932
1.2932
1.2932
1.2932
1.29321
1.29321
1.29321
1.29321
1.29321
1.29321
1.29321
1.29321
1.29321
1.29322
1.29322
1.29322
1.29322
1.29322
1.29322
1.29319
1.29319
1.29319
1.29319
1.29319
1.29319
1.2932
1.2932
1.2932
1.2932
1.2932
1.2932
1.2932
1.2932
1.29321
1.29321
1.29321
1.29321
1.29321
1.29321
1.29321
1.29322
1.29322
1.29318
1.29318
1.29318
1.29318
1.29318
1.29318
1.29318
1.29319
1.29319
1.29319
1.29319
1.29319
1.29319
1.2932
1.2932
1.2932
1.2932
1.2932
1.29321
1.29321
1.29321
1.29321
1.29321
1.29316
1.29316
1.29316
1.29316
1.29316
1.29317
1.29317
1.29317
1.29317
1.29317
1.29318
1.29318
1.29318
1.29318
1.29319
1.29319
1.29319
1.29319
1.2932
1.2932
1.2932
1.2932
1.29321
1.29314
1.29314
1.29314
1.29314
1.29315
1.29315
1.29315
1.29315
1.29315
1.29315
1.29316
1.29316
1.29316
1.29317
1.29317
1.29317
1.29318
1.29318
1.29318
1.29319
1.29319
1.29319
1.2932
1.29313
1.29313
1.29313
1.29313
1.29313
1.29313
1.29313
1.29313
1.29313
1.29314
1.29314
1.29314
1.29314
1.29315
1.29315
1.29315
1.29316
1.29316
1.29317
1.29317
1.29318
1.29318
1.29319
1.29312
1.29312
1.29312
1.29312
1.29312
1.29312
1.29312
1.29312
1.29312
1.29312
1.29312
1.29312
1.29313
1.29313
1.29313
1.29313
1.29314
1.29314
1.29315
1.29315
1.29316
1.29317
1.29317
1.29311
1.29311
1.29311
1.29311
1.29311
1.29311
1.29311
1.29311
1.29311
1.29311
1.29311
1.29311
1.29311
1.29312
1.29312
1.29312
1.29312
1.29313
1.29313
1.29314
1.29314
1.29315
1.29316
1.2931
1.2931
1.2931
1.2931
1.2931
1.2931
1.2931
1.2931
1.2931
1.2931
1.2931
1.2931
1.2931
1.29311
1.29311
1.29311
1.29311
1.29311
1.29312
1.29312
1.29313
1.29313
1.29314
1.29309
1.29309
1.29309
1.29309
1.29309
1.29309
1.29309
1.29309
1.29309
1.29309
1.2931
1.2931
1.2931
1.2931
1.2931
1.2931
1.2931
1.29311
1.29311
1.29311
1.29312
1.29312
1.29313
1.29309
1.29309
1.29309
1.29309
1.29309
1.29309
1.29309
1.29309
1.29309
1.29309
1.29309
1.29309
1.29309
1.29309
1.29309
1.2931
1.2931
1.2931
1.2931
1.29311
1.29311
1.29312
1.29312
1.29308
1.29308
1.29308
1.29308
1.29308
1.29308
1.29309
1.29309
1.29309
1.29309
1.29309
1.29309
1.29309
1.29309
1.29309
1.29309
1.29309
1.2931
1.2931
1.2931
1.29311
1.29311
1.29312
1.29308
1.29308
1.29308
1.29308
1.29308
1.29308
1.29308
1.29308
1.29308
1.29308
1.29309
1.29309
1.29309
1.29309
1.29309
1.29309
1.29309
1.29309
1.2931
1.2931
1.29311
1.29311
1.29312
1.29308
1.29308
1.29308
1.29308
1.29308
1.29308
1.29308
1.29308
1.29309
1.29309
1.29309
1.29309
1.29309
1.29309
1.29309
1.29309
1.29309
1.2931
1.2931
1.2931
1.29311
1.29311
1.29312
1.29309
1.29309
1.29309
1.29309
1.29309
1.29309
1.29309
1.29309
1.29309
1.29309
1.29309
1.29309
1.29309
1.29309
1.29309
1.2931
1.2931
1.2931
1.2931
1.29311
1.29311
1.29312
1.29313
1.29309
1.29309
1.29309
1.29309
1.29309
1.29309
1.29309
1.29309
1.29309
1.29309
1.29309
1.29309
1.29309
1.29309
1.29309
1.2931
1.2931
1.2931
1.2931
1.29311
1.29311
1.29312
1.29314
1.29309
1.29309
1.29309
1.29309
1.29309
1.29309
1.29309
1.29309
1.29309
1.29309
1.29309
1.29309
1.29309
1.29309
1.2931
1.2931
1.2931
1.2931
1.29311
1.29311
1.29312
1.29313
1.29315
1.29309
1.29309
1.29309
1.29309
1.29309
1.29309
1.29309
1.29309
1.29309
1.29309
1.29309
1.29309
1.29309
1.29309
1.29309
1.2931
1.2931
1.2931
1.29311
1.29312
1.29313
1.29314
1.29315
1.29309
1.29309
1.29309
1.29309
1.29309
1.29309
1.29309
1.29309
1.29309
1.29309
1.29309
1.29309
1.29309
1.29309
1.29309
1.2931
1.2931
1.2931
1.29311
1.29312
1.29314
1.29315
1.29316
1.29309
1.29309
1.29309
1.29309
1.29309
1.29309
1.29309
1.29309
1.29309
1.29309
1.29309
1.29309
1.29309
1.29309
1.29309
1.29309
1.2931
1.2931
1.29311
1.29312
1.29314
1.29316
1.29316
1.29309
1.29309
1.29309
1.29309
1.29309
1.29309
1.29309
1.29309
1.29309
1.29309
1.29309
1.29309
1.29309
1.29309
1.29309
1.2931
1.2931
1.29311
1.29312
1.29313
1.29315
1.29317
1.29317
1.29309
1.29309
1.29309
1.29309
1.29309
1.29309
1.29309
1.29309
1.29309
1.29309
1.29309
1.29309
1.29309
1.29309
1.29309
1.29309
1.2931
1.2931
1.29311
1.29313
1.29316
1.29317
1.29318
1.29309
1.29309
1.29309
1.29309
1.29309
1.29309
1.29309
1.29309
1.29309
1.29309
1.29309
1.29309
1.29309
1.29309
1.29309
1.29309
1.2931
1.2931
1.29312
1.29314
1.29317
1.2932
1.2932
1.30079
1.3029
1.30326
1.3051
1.3006
1.3011
1.30172
1.30228
1.29844
1.29904
1.29946
1.30003
1.2967
1.29703
1.29746
1.29781
1.29453
1.29477
1.29504
1.29535
1.29348
1.29352
1.29357
1.29362
1.29332
1.29333
1.29335
1.29337
1.29327
1.29327
1.29328
1.29329
1.29326
1.29326
1.29326
1.29327
1.29326
1.29326
1.29326
1.29326
1.29325
1.29325
1.29326
1.29326
1.29325
1.29325
1.29325
1.29325
1.29325
1.29325
1.29325
1.29325
1.29325
1.29325
1.29325
1.29325
1.29324
1.29324
1.29324
1.29324
1.29324
1.29324
1.29324
1.29324
1.29323
1.29324
1.29324
1.29324
1.29323
1.29323
1.29323
1.29323
1.29323
1.29323
1.29323
1.29323
1.29322
1.29322
1.29322
1.29322
1.29322
1.29322
1.29322
1.29322
1.29321
1.29321
1.29321
1.29321
1.29321
1.29321
1.29321
1.29321
1.2932
1.2932
1.2932
1.2932
1.29319
1.29319
1.29319
1.29319
1.29318
1.29318
1.29318
1.29318
1.29316
1.29317
1.29317
1.29317
1.29315
1.29315
1.29316
1.29316
1.29314
1.29314
1.29315
1.29315
1.29313
1.29313
1.29314
1.29314
1.29313
1.29313
1.29314
1.29315
1.29313
1.29313
1.29314
1.29315
1.29313
1.29314
1.29315
1.29316
1.29314
1.29315
1.29316
1.29315
1.29315
1.29315
1.29315
1.29314
1.29316
1.29315
1.29314
1.29313
1.29315
1.29315
1.29313
1.29313
1.29315
1.29314
1.29313
1.29312
1.29315
1.29314
1.29313
1.29312
1.29316
1.29314
1.29313
1.29312
1.29316
1.29314
1.29312
1.29311
1.29318
1.29315
1.29313
1.29311
1.30606
1.30697
1.3074
1.30695
1.30628
1.30523
1.30277
1.30268
1.30269
1.30281
1.30287
1.3028
1.30268
1.30258
1.30255
1.30247
1.30239
1.3026
1.30557
1.30392
1.30534
1.30491
1.30517
1.30553
1.30563
1.30326
1.30239
1.30249
1.3027
1.30269
1.30261
1.30254
1.3025
1.30249
1.30242
1.30238
1.30265
1.3055
1.30097
1.30186
1.3026
1.30345
1.30476
1.30661
1.30546
1.30263
1.30245
1.30252
1.3025
1.30247
1.30246
1.30244
1.30244
1.30239
1.30241
1.30277
1.30548
1.29857
1.29956
1.30034
1.30169
1.30373
1.30666
1.30626
1.30259
1.30244
1.30244
1.30242
1.30242
1.30242
1.30241
1.30242
1.30238
1.30243
1.30367
1.30548
1.29599
1.29701
1.29803
1.2996
1.30116
1.30517
1.30695
1.30288
1.30246
1.30242
1.30241
1.3024
1.3024
1.3024
1.30241
1.30239
1.3025
1.30485
1.30569
1.29377
1.29402
1.29461
1.29645
1.299
1.30196
1.30626
1.30704
1.3028
1.30243
1.30237
1.30235
1.30234
1.30234
1.3024
1.30264
1.30258
1.30494
1.30616
1.29338
1.2934
1.29346
1.29369
1.29482
1.29851
1.30224
1.30573
1.30159
1.30199
1.30203
1.30203
1.30201
1.302
1.30217
1.3024
1.30256
1.30517
1.30744
1.29331
1.29334
1.29339
1.29339
1.29345
1.29401
1.29731
1.30132
1.30416
1.30401
1.30035
1.30023
1.30053
1.30076
1.30079
1.30035
1.30345
1.30612
1.30829
1.29327
1.29329
1.29331
1.29332
1.29334
1.2934
1.29353
1.29559
1.29887
1.30233
1.30202
1.3019
1.30224
1.3026
1.30319
1.3041
1.30549
1.30744
1.3097
1.29326
1.29327
1.29328
1.29329
1.2933
1.29331
1.29336
1.29344
1.29408
1.29596
1.29856
1.3013
1.30279
1.30307
1.30353
1.30407
1.30569
1.30726
1.3092
1.29326
1.29326
1.29327
1.29328
1.29329
1.29328
1.2933
1.29331
1.29337
1.29389
1.29628
1.29897
1.30039
1.30071
1.30138
1.30205
1.30362
1.30529
1.30686
1.29326
1.29326
1.29326
1.29327
1.29328
1.29327
1.29329
1.29331
1.29334
1.29367
1.2953
1.29774
1.2996
1.3
1.30053
1.30083
1.30213
1.30289
1.3042
1.29325
1.29325
1.29326
1.29326
1.29326
1.29323
1.29318
1.29312
1.29312
1.29345
1.29576
1.29898
1.30028
1.30017
1.30029
1.3005
1.3009
1.30117
1.30184
1.29325
1.29325
1.29326
1.29326
1.29326
1.29323
1.29317
1.29313
1.29311
1.2932
1.29364
1.29491
1.29701
1.29818
1.29968
1.30002
1.30028
1.30002
1.30031
1.29325
1.29325
1.29325
1.29325
1.29325
1.29323
1.29318
1.29315
1.29318
1.29324
1.29328
1.29349
1.29377
1.29486
1.29661
1.29757
1.29826
1.29804
1.29828
1.29324
1.29324
1.29325
1.29325
1.29325
1.29324
1.2932
1.29316
1.29317
1.29324
1.29327
1.29325
1.29327
1.29339
1.29377
1.29519
1.29628
1.29639
1.29686
1.29324
1.29324
1.29324
1.29324
1.29324
1.29324
1.29322
1.29319
1.29318
1.29321
1.29322
1.29322
1.29322
1.29321
1.29317
1.29309
1.29407
1.29442
1.29509
1.29323
1.29323
1.29324
1.29324
1.29324
1.29323
1.29323
1.29321
1.29319
1.29319
1.2932
1.29321
1.29322
1.29321
1.29309
1.29279
1.29266
1.29308
1.29398
1.29323
1.29323
1.29323
1.29323
1.29323
1.29323
1.29323
1.29322
1.29321
1.29321
1.29321
1.29321
1.29323
1.29322
1.29313
1.29279
1.29235
1.29259
1.2932
1.29322
1.29322
1.29323
1.29323
1.29323
1.29322
1.29322
1.29322
1.29322
1.29321
1.29321
1.29322
1.29323
1.29323
1.2932
1.29308
1.2926
1.29216
1.29266
1.29322
1.29322
1.29322
1.29322
1.29322
1.29322
1.29322
1.29322
1.29322
1.29322
1.29322
1.29322
1.29323
1.29323
1.29323
1.29321
1.29308
1.29255
1.29202
1.29321
1.29321
1.29322
1.29322
1.29322
1.29322
1.29322
1.29321
1.29322
1.29322
1.29322
1.29322
1.29323
1.29322
1.29323
1.29323
1.29324
1.29315
1.29262
1.29321
1.29321
1.29321
1.29321
1.29321
1.29321
1.29321
1.29321
1.29321
1.29321
1.29322
1.29321
1.29322
1.29322
1.29323
1.29322
1.29327
1.2933
1.29297
1.2932
1.2932
1.29321
1.29321
1.29321
1.29321
1.29321
1.29321
1.29321
1.29321
1.29321
1.29321
1.29322
1.29322
1.29323
1.29322
1.29323
1.29323
1.29304
1.2932
1.2932
1.2932
1.2932
1.2932
1.2932
1.2932
1.2932
1.2932
1.2932
1.29321
1.29321
1.29322
1.29321
1.29323
1.29322
1.29323
1.29323
1.29303
1.29319
1.29319
1.29319
1.29319
1.29319
1.29319
1.2932
1.2932
1.2932
1.2932
1.2932
1.2932
1.29321
1.29321
1.29322
1.29322
1.29323
1.29323
1.29308
1.29318
1.29318
1.29319
1.29319
1.29319
1.29319
1.29319
1.29319
1.29319
1.29319
1.2932
1.29319
1.2932
1.2932
1.29322
1.29322
1.29323
1.29323
1.29311
1.29317
1.29318
1.29318
1.29318
1.29318
1.29318
1.29318
1.29318
1.29318
1.29318
1.29319
1.29319
1.2932
1.2932
1.29322
1.29322
1.29324
1.29321
1.29314
1.29316
1.29317
1.29317
1.29317
1.29317
1.29317
1.29317
1.29317
1.29318
1.29318
1.29318
1.29318
1.29319
1.29319
1.29322
1.29322
1.29321
1.29311
1.29308
1.29316
1.29317
1.29317
1.29316
1.29316
1.29316
1.29316
1.29316
1.29316
1.29316
1.29317
1.29317
1.29318
1.29318
1.29321
1.29317
1.29309
1.29296
1.29312
1.29316
1.29316
1.29316
1.29315
1.29314
1.29314
1.29314
1.29314
1.29315
1.29315
1.29316
1.29316
1.29316
1.29315
1.29315
1.29309
1.29313
1.29297
1.2933
1.29316
1.29315
1.29314
1.29313
1.29312
1.29311
1.29311
1.29312
1.29313
1.29314
1.29314
1.29314
1.29314
1.29313
1.29307
1.29319
1.29331
1.29319
1.29317
1.29315
1.29314
1.29312
1.2931
1.29309
1.29308
1.29309
1.29309
1.29311
1.29312
1.29313
1.29313
1.29313
1.29311
1.29308
1.29325
1.29342
1.29334
1.29337
1.29314
1.29312
1.2931
1.29308
1.29307
1.29306
1.29306
1.29307
1.29309
1.29311
1.29312
1.29312
1.29312
1.29311
1.29308
1.29321
1.29337
1.2934
1.2932
1.29313
1.29311
1.29309
1.29306
1.29304
1.29303
1.29303
1.29305
1.29308
1.2931
1.29311
1.29312
1.29311
1.2931
1.29307
1.29315
1.29325
1.29339
1.29336
1.29312
1.2931
1.29308
1.29305
1.29303
1.29302
1.29303
1.29305
1.29308
1.2931
1.29311
1.29311
1.29311
1.2931
1.29308
1.29312
1.29314
1.29335
1.29314
1.29311
1.2931
1.29308
1.29306
1.29304
1.29303
1.29304
1.29306
1.29309
1.2931
1.29311
1.29312
1.29311
1.29311
1.2931
1.29311
1.29304
1.29321
1.29311
1.29312
1.2931
1.29308
1.29307
1.29306
1.29305
1.29306
1.29308
1.29309
1.2931
1.29311
1.29312
1.29312
1.29312
1.29314
1.29309
1.29297
1.29315
1.29302
1.29311
1.29311
1.2931
1.29309
1.29308
1.29308
1.29309
1.2931
1.29311
1.29312
1.29312
1.29313
1.29313
1.29313
1.293
1.29283
1.29284
1.29297
1.29291
1.29312
1.29311
1.2931
1.2931
1.2931
1.29311
1.29311
1.29311
1.29312
1.29312
1.29312
1.29313
1.29312
1.29304
1.29263
1.29256
1.29262
1.29283
1.29284
1.2931
1.2931
1.29309
1.2931
1.2931
1.29312
1.29312
1.29313
1.29313
1.29313
1.29313
1.29313
1.29309
1.29271
1.29253
1.29252
1.29256
1.29277
1.29268
1.29309
1.29306
1.29304
1.29304
1.29305
1.29307
1.29308
1.29308
1.29305
1.29303
1.29302
1.29298
1.29285
1.29258
1.29252
1.29251
1.29253
1.29269
1.29253
)
;

boundaryField
{
    leftWall
    {
        type            calculated;
        value           nonuniform List<scalar> 
50
(
1.30137
1.30061
1.29985
1.29908
1.2983
1.29752
1.29673
1.29595
1.29476
1.29365
1.29336
1.29329
1.29326
1.29325
1.29324
1.29324
1.29324
1.29324
1.29323
1.29323
1.29323
1.29323
1.29322
1.29322
1.29322
1.29321
1.29321
1.2932
1.29319
1.29318
1.29316
1.29314
1.29313
1.29312
1.29311
1.2931
1.29309
1.29309
1.29308
1.29308
1.29308
1.29309
1.29309
1.29309
1.29309
1.29309
1.29309
1.29309
1.29309
1.29309
)
;
    }
    rightWall
    {
        type            calculated;
        value           nonuniform List<scalar> 
50
(
1.32227
1.31869
1.31554
1.31223
1.30947
1.30814
1.30752
1.30626
1.30557
1.3055
1.30548
1.30548
1.30569
1.30616
1.30744
1.30829
1.3097
1.3092
1.30686
1.3042
1.30184
1.30031
1.29828
1.29686
1.29509
1.29398
1.2932
1.29266
1.29202
1.29262
1.29297
1.29304
1.29303
1.29308
1.29311
1.29314
1.29308
1.29312
1.2933
1.29317
1.29337
1.2932
1.29336
1.29314
1.29311
1.29302
1.29291
1.29284
1.29268
1.29253
)
;
    }
    lowerWall
    {
        type            calculated;
        value           nonuniform List<scalar> 
62
(
1.30175
1.30176
1.30178
1.30182
1.30188
1.30196
1.30205
1.30217
1.30232
1.30249
1.30271
1.30294
1.30323
1.30354
1.30391
1.30429
1.30472
1.30513
1.3056
1.30599
1.30643
1.3067
1.30691
1.30654
1.3058
1.30512
1.30439
1.30381
1.30311
1.3026
1.30196
1.30159
1.3037
1.30406
1.3059
1.30254
1.30254
1.30254
1.30254
1.30254
1.30254
1.30253
1.30253
1.30254
1.30254
1.30254
1.30256
1.30278
1.30403
1.30518
1.30573
1.30551
1.30529
1.30526
1.30541
1.30576
1.30641
1.30682
1.30725
1.30865
1.31341
1.32253
)
;
    }
    atmosphere
    {
        type            calculated;
        value           nonuniform List<scalar> 
46
(
1.29318
1.29318
1.29318
1.29318
1.29318
1.29318
1.29318
1.29318
1.29318
1.29318
1.29318
1.29318
1.29318
1.29318
1.29318
1.29318
1.29319
1.2932
1.29321
1.29323
1.29326
1.29329
1.29329
1.29327
1.29324
1.29322
1.2932
1.29318
1.29315
1.29314
1.29314
1.29315
1.29316
1.29317
1.29317
1.29315
1.29313
1.29311
1.29308
1.29294
1.29267
1.29262
1.29261
1.29264
1.29278
1.2927
)
;
    }
    defaultFaces
    {
        type            empty;
    }
}


// ************************************************************************* //
