/*--------------------------------*- C++ -*----------------------------------*\
| =========                 |                                                 |
| \\      /  F ield         | OpenFOAM: The Open Source CFD Toolbox           |
|  \\    /   O peration     | Version:  2012                                  |
|   \\  /    A nd           | Website:  www.openfoam.com                      |
|    \\/     M anipulation  |                                                 |
\*---------------------------------------------------------------------------*/
FoamFile
{
    version     2.0;
    format      ascii;
    class       volScalarField;
    location    "0.7";
    object      minKappa;
}
// * * * * * * * * * * * * * * * * * * * * * * * * * * * * * * * * * * * * * //

dimensions      [0 0 0 0 0 0 0];


internalField   nonuniform List<scalar> 
20400
(
2.60701e-09
2.60701e-09
3.77111e-09
3.56417e-09
5.24557e-09
7.3322e-09
8.35893e-09
1.025e-08
1.14405e-08
1.29237e-08
1.40877e-08
1.53712e-08
1.64685e-08
1.7585e-08
1.85737e-08
1.95411e-08
2.04156e-08
2.12482e-08
2.20183e-08
2.27341e-08
2.33975e-08
2.40117e-08
2.45799e-08
2.51051e-08
2.55902e-08
2.60379e-08
2.6451e-08
2.68319e-08
2.71831e-08
2.75068e-08
2.78052e-08
2.80804e-08
2.8334e-08
2.85677e-08
2.87831e-08
2.89816e-08
2.91645e-08
2.9333e-08
2.94884e-08
2.96315e-08
2.97634e-08
2.98849e-08
2.9997e-08
3.01001e-08
3.01953e-08
3.0283e-08
3.03639e-08
3.04385e-08
3.05072e-08
3.05706e-08
3.0629e-08
3.06829e-08
3.07325e-08
3.07783e-08
3.08205e-08
3.08594e-08
3.08953e-08
3.09283e-08
3.09589e-08
3.0987e-08
3.1013e-08
3.10368e-08
3.1059e-08
3.10793e-08
3.10982e-08
3.11155e-08
3.11315e-08
3.11463e-08
3.11598e-08
3.11724e-08
3.1184e-08
3.11946e-08
3.12045e-08
3.12135e-08
3.12219e-08
3.12296e-08
3.12367e-08
3.12433e-08
3.12493e-08
3.12549e-08
3.12601e-08
3.12648e-08
3.12692e-08
3.12732e-08
3.1277e-08
3.12804e-08
3.12836e-08
3.12865e-08
3.12892e-08
3.12917e-08
3.1294e-08
3.12961e-08
3.12981e-08
3.12999e-08
3.13016e-08
3.13031e-08
3.13045e-08
3.13058e-08
3.1307e-08
3.13081e-08
3.13092e-08
3.13101e-08
3.1311e-08
3.13118e-08
3.13126e-08
3.13132e-08
3.13139e-08
3.13145e-08
3.1315e-08
3.13155e-08
3.1316e-08
3.13165e-08
3.13169e-08
3.13173e-08
3.13176e-08
3.13179e-08
3.13183e-08
3.13186e-08
3.13189e-08
3.13191e-08
3.13193e-08
3.13196e-08
3.13198e-08
3.132e-08
3.13202e-08
3.13204e-08
3.13206e-08
3.13208e-08
3.1321e-08
3.1321e-08
3.13211e-08
3.13213e-08
3.13214e-08
3.13214e-08
3.13215e-08
3.13216e-08
3.13216e-08
3.13218e-08
3.13219e-08
3.13219e-08
3.13219e-08
3.1322e-08
3.1322e-08
3.13222e-08
3.13223e-08
3.13225e-08
3.13226e-08
3.13227e-08
3.13226e-08
3.13226e-08
3.13226e-08
3.13226e-08
3.13226e-08
3.13226e-08
3.13227e-08
3.13228e-08
3.13228e-08
3.13229e-08
3.13229e-08
3.1323e-08
3.13231e-08
3.13231e-08
3.13232e-08
3.13233e-08
3.13233e-08
3.13233e-08
3.13233e-08
3.13233e-08
3.13233e-08
3.13232e-08
3.13232e-08
3.13233e-08
3.13233e-08
3.13234e-08
3.13234e-08
3.13234e-08
3.13233e-08
3.13233e-08
3.13233e-08
3.13233e-08
3.13234e-08
3.13234e-08
3.13234e-08
3.13234e-08
3.13233e-08
3.13233e-08
3.13234e-08
3.13235e-08
3.13236e-08
3.13236e-08
3.13236e-08
3.13237e-08
3.13238e-08
3.13238e-08
3.13238e-08
3.13238e-08
3.13238e-08
3.13238e-08
3.13237e-08
3.13237e-08
3.13237e-08
3.13237e-08
3.13237e-08
3.13237e-08
3.13238e-08
3.13238e-08
3.13238e-08
3.13239e-08
3.13239e-08
3.13239e-08
3.1324e-08
3.13239e-08
3.13238e-08
3.13238e-08
3.13239e-08
3.13239e-08
3.1324e-08
3.1324e-08
3.13239e-08
3.13239e-08
3.13239e-08
3.13239e-08
3.1324e-08
3.1324e-08
3.1324e-08
3.1324e-08
3.1324e-08
3.1324e-08
3.1324e-08
3.13241e-08
3.13241e-08
3.13242e-08
3.13241e-08
3.13241e-08
3.13241e-08
3.13241e-08
3.13241e-08
3.13241e-08
3.13241e-08
3.13241e-08
3.13241e-08
3.13242e-08
3.13242e-08
3.13242e-08
3.13242e-08
3.13242e-08
3.13242e-08
3.13242e-08
3.13243e-08
3.13243e-08
3.13243e-08
3.13244e-08
3.13245e-08
3.13245e-08
3.13245e-08
3.13244e-08
3.13243e-08
3.13243e-08
3.13244e-08
3.13245e-08
3.13245e-08
3.13245e-08
3.13245e-08
3.13245e-08
3.13245e-08
3.13246e-08
3.13245e-08
3.13245e-08
3.13246e-08
3.13244e-08
3.13244e-08
3.13244e-08
3.13245e-08
3.13245e-08
3.13246e-08
3.13246e-08
3.13246e-08
3.13246e-08
3.13246e-08
3.13246e-08
3.13246e-08
3.13246e-08
3.13247e-08
3.13246e-08
3.13246e-08
3.13246e-08
3.13247e-08
3.13247e-08
3.13247e-08
3.13247e-08
3.13247e-08
3.13247e-08
3.13246e-08
3.13245e-08
3.13245e-08
3.13245e-08
3.13245e-08
3.13245e-08
3.13246e-08
3.13247e-08
3.13247e-08
3.13248e-08
3.13248e-08
3.13247e-08
3.13246e-08
3.13246e-08
3.13247e-08
3.13247e-08
3.13246e-08
3.13246e-08
3.13247e-08
3.13248e-08
3.13248e-08
3.13248e-08
3.13248e-08
3.13248e-08
3.13248e-08
3.13248e-08
3.13248e-08
3.13248e-08
3.13248e-08
3.13248e-08
3.13249e-08
3.1325e-08
3.13251e-08
3.13251e-08
3.13251e-08
3.13251e-08
3.13251e-08
3.13251e-08
3.13251e-08
3.13251e-08
3.13251e-08
3.13251e-08
3.1325e-08
3.1325e-08
3.1325e-08
3.1325e-08
3.1325e-08
3.1325e-08
3.1325e-08
3.1325e-08
3.1325e-08
3.1325e-08
3.1325e-08
3.1325e-08
3.13251e-08
3.13251e-08
3.13252e-08
3.13251e-08
3.13251e-08
3.13251e-08
3.13252e-08
3.13252e-08
3.13253e-08
3.13254e-08
3.13254e-08
3.13254e-08
3.13254e-08
3.13254e-08
3.13254e-08
3.13254e-08
3.13253e-08
3.13253e-08
3.13253e-08
3.13255e-08
3.13254e-08
3.13253e-08
3.13253e-08
3.13253e-08
3.13253e-08
3.13253e-08
3.13253e-08
3.13253e-08
3.13253e-08
3.13254e-08
3.13254e-08
3.13255e-08
3.13255e-08
3.13256e-08
3.13255e-08
3.13255e-08
3.13256e-08
3.13256e-08
3.13256e-08
3.13256e-08
3.13255e-08
3.13255e-08
3.13255e-08
3.13255e-08
3.13256e-08
3.13256e-08
3.13256e-08
3.13256e-08
3.13256e-08
3.13256e-08
3.13256e-08
3.13256e-08
3.13257e-08
3.13256e-08
3.13256e-08
3.13256e-08
3.13255e-08
3.13254e-08
3.13254e-08
3.13255e-08
3.13255e-08
3.13254e-08
3.13253e-08
3.13253e-08
3.13253e-08
3.13254e-08
3.13255e-08
3.13256e-08
3.13257e-08
3.13257e-08
3.13257e-08
3.13257e-08
3.13257e-08
3.13257e-08
3.13257e-08
3.13257e-08
3.13257e-08
3.13257e-08
3.13257e-08
3.13257e-08
3.13256e-08
3.13255e-08
3.13255e-08
3.13255e-08
3.13257e-08
3.13257e-08
3.13257e-08
3.13257e-08
3.13258e-08
3.13257e-08
3.13257e-08
3.13257e-08
3.13257e-08
3.13257e-08
3.13255e-08
3.13255e-08
3.13256e-08
3.13255e-08
3.13255e-08
3.13255e-08
3.13256e-08
3.13256e-08
3.13255e-08
3.13255e-08
3.13256e-08
3.13255e-08
3.13255e-08
3.13255e-08
3.13255e-08
3.13255e-08
3.13255e-08
3.13255e-08
3.13255e-08
3.13256e-08
3.13256e-08
3.13255e-08
3.13255e-08
3.13255e-08
3.13255e-08
3.13256e-08
3.13256e-08
3.13256e-08
3.13256e-08
3.13256e-08
3.13256e-08
3.13256e-08
3.13256e-08
3.13255e-08
3.13255e-08
3.13255e-08
3.13256e-08
3.13257e-08
3.13257e-08
3.13257e-08
3.13257e-08
3.13257e-08
3.13257e-08
3.13255e-08
3.13255e-08
3.13253e-08
3.13253e-08
3.1325e-08
3.1325e-08
3.13247e-08
3.13247e-08
3.1325e-08
3.13236e-08
3.13236e-08
3.13207e-08
3.13207e-08
3.13155e-08
3.13155e-08
3.1309e-08
3.1309e-08
4.87483e-09
2.62532e-09
6.71797e-09
3.56417e-09
8.66131e-09
8.59435e-09
1.29107e-08
1.31522e-08
1.58834e-08
1.67861e-08
1.88023e-08
1.99591e-08
2.15497e-08
2.27344e-08
2.40337e-08
2.51531e-08
2.62399e-08
2.72434e-08
2.81786e-08
2.90467e-08
2.98518e-08
3.05975e-08
3.12876e-08
3.19256e-08
3.25151e-08
3.30595e-08
3.35621e-08
3.40258e-08
3.44535e-08
3.4848e-08
3.52117e-08
3.55471e-08
3.58563e-08
3.61414e-08
3.64041e-08
3.66464e-08
3.68694e-08
3.70754e-08
3.72648e-08
3.74398e-08
3.7601e-08
3.77493e-08
3.78867e-08
3.80126e-08
3.81295e-08
3.82364e-08
3.83359e-08
3.84267e-08
3.85114e-08
3.85886e-08
3.86604e-08
3.87265e-08
3.8787e-08
3.88436e-08
3.88948e-08
3.89431e-08
3.89866e-08
3.90277e-08
3.90646e-08
3.90996e-08
3.91311e-08
3.91606e-08
3.91878e-08
3.92125e-08
3.92358e-08
3.92569e-08
3.92766e-08
3.92947e-08
3.93112e-08
3.93268e-08
3.93408e-08
3.93541e-08
3.9366e-08
3.93774e-08
3.93874e-08
3.93971e-08
3.94056e-08
3.94139e-08
3.94211e-08
3.94282e-08
3.94344e-08
3.94403e-08
3.94457e-08
3.94506e-08
3.94553e-08
3.94594e-08
3.94634e-08
3.94669e-08
3.94703e-08
3.94733e-08
3.94762e-08
3.94788e-08
3.94813e-08
3.94834e-08
3.94855e-08
3.94873e-08
3.94892e-08
3.94907e-08
3.94923e-08
3.94935e-08
3.94949e-08
3.9496e-08
3.94971e-08
3.94981e-08
3.9499e-08
3.94998e-08
3.95007e-08
3.95014e-08
3.9502e-08
3.95027e-08
3.95032e-08
3.95038e-08
3.95043e-08
3.95047e-08
3.95052e-08
3.95055e-08
3.9506e-08
3.95063e-08
3.95066e-08
3.95069e-08
3.95072e-08
3.95075e-08
3.95077e-08
3.95079e-08
3.95082e-08
3.95084e-08
3.95086e-08
3.95088e-08
3.9509e-08
3.95091e-08
3.95092e-08
3.95093e-08
3.95094e-08
3.95095e-08
3.95096e-08
3.95097e-08
3.95098e-08
3.95099e-08
3.951e-08
3.951e-08
3.95101e-08
3.95102e-08
3.95103e-08
3.95104e-08
3.95104e-08
3.95106e-08
3.95106e-08
3.95107e-08
3.95107e-08
3.95108e-08
3.95108e-08
3.95108e-08
3.95108e-08
3.95108e-08
3.95109e-08
3.95109e-08
3.9511e-08
3.9511e-08
3.95109e-08
3.95111e-08
3.95111e-08
3.95111e-08
3.95112e-08
3.95112e-08
3.95113e-08
3.95113e-08
3.95113e-08
3.95114e-08
3.95113e-08
3.95114e-08
3.95114e-08
3.95115e-08
3.95114e-08
3.95115e-08
3.95114e-08
3.95115e-08
3.95114e-08
3.95115e-08
3.95114e-08
3.95114e-08
3.95114e-08
3.95114e-08
3.95113e-08
3.95113e-08
3.95114e-08
3.95113e-08
3.95113e-08
3.95114e-08
3.95113e-08
3.95114e-08
3.95114e-08
3.95116e-08
3.95116e-08
3.95116e-08
3.95116e-08
3.95117e-08
3.95116e-08
3.95116e-08
3.95116e-08
3.95116e-08
3.95116e-08
3.95116e-08
3.95116e-08
3.95115e-08
3.95116e-08
3.95115e-08
3.95116e-08
3.95116e-08
3.95117e-08
3.95116e-08
3.95117e-08
3.95117e-08
3.95116e-08
3.95117e-08
3.95117e-08
3.95117e-08
3.95117e-08
3.95117e-08
3.95116e-08
3.95116e-08
3.95116e-08
3.95116e-08
3.95116e-08
3.95116e-08
3.95117e-08
3.95117e-08
3.95117e-08
3.95116e-08
3.95117e-08
3.95116e-08
3.95117e-08
3.95117e-08
3.95117e-08
3.95117e-08
3.95117e-08
3.95117e-08
3.95117e-08
3.95117e-08
3.95117e-08
3.95118e-08
3.95118e-08
3.95118e-08
3.95117e-08
3.95119e-08
3.95118e-08
3.95118e-08
3.95117e-08
3.95118e-08
3.95119e-08
3.95118e-08
3.95118e-08
3.95119e-08
3.95119e-08
3.95119e-08
3.95118e-08
3.95119e-08
3.95118e-08
3.95118e-08
3.95119e-08
3.95119e-08
3.95119e-08
3.95119e-08
3.9512e-08
3.95119e-08
3.9512e-08
3.95119e-08
3.9512e-08
3.95119e-08
3.95119e-08
3.95118e-08
3.95119e-08
3.95119e-08
3.95119e-08
3.95119e-08
3.9512e-08
3.95119e-08
3.9512e-08
3.9512e-08
3.95119e-08
3.9512e-08
3.95119e-08
3.9512e-08
3.95119e-08
3.95119e-08
3.95119e-08
3.9512e-08
3.9512e-08
3.95121e-08
3.9512e-08
3.95121e-08
3.9512e-08
3.9512e-08
3.9512e-08
3.95118e-08
3.95119e-08
3.95118e-08
3.95119e-08
3.95118e-08
3.9512e-08
3.95119e-08
3.9512e-08
3.9512e-08
3.9512e-08
3.9512e-08
3.95119e-08
3.95119e-08
3.9512e-08
3.9512e-08
3.95119e-08
3.9512e-08
3.9512e-08
3.9512e-08
3.9512e-08
3.9512e-08
3.9512e-08
3.9512e-08
3.9512e-08
3.9512e-08
3.95121e-08
3.9512e-08
3.95121e-08
3.95121e-08
3.95122e-08
3.95122e-08
3.95123e-08
3.95122e-08
3.95123e-08
3.95123e-08
3.95123e-08
3.95123e-08
3.95123e-08
3.95122e-08
3.95123e-08
3.95121e-08
3.95122e-08
3.95121e-08
3.95122e-08
3.95121e-08
3.95121e-08
3.9512e-08
3.95121e-08
3.95121e-08
3.95121e-08
3.95121e-08
3.95121e-08
3.95122e-08
3.95122e-08
3.95122e-08
3.95122e-08
3.95122e-08
3.95122e-08
3.95122e-08
3.95124e-08
3.95123e-08
3.95124e-08
3.95123e-08
3.95124e-08
3.95124e-08
3.95125e-08
3.95124e-08
3.95125e-08
3.95124e-08
3.95125e-08
3.95123e-08
3.95125e-08
3.95123e-08
3.95124e-08
3.95123e-08
3.95124e-08
3.95123e-08
3.95123e-08
3.95123e-08
3.95122e-08
3.95124e-08
3.95123e-08
3.95126e-08
3.95123e-08
3.95126e-08
3.95123e-08
3.95127e-08
3.95124e-08
3.95127e-08
3.95124e-08
3.95126e-08
3.95123e-08
3.95125e-08
3.95124e-08
3.95125e-08
3.95125e-08
3.95124e-08
3.95125e-08
3.95124e-08
3.95126e-08
3.95125e-08
3.95126e-08
3.95125e-08
3.95126e-08
3.95125e-08
3.95126e-08
3.95125e-08
3.95126e-08
3.95125e-08
3.95125e-08
3.95124e-08
3.95125e-08
3.95124e-08
3.95125e-08
3.95123e-08
3.95125e-08
3.95124e-08
3.95125e-08
3.95123e-08
3.95127e-08
3.95125e-08
3.95127e-08
3.95125e-08
3.95127e-08
3.95125e-08
3.95127e-08
3.95125e-08
3.95127e-08
3.95125e-08
3.95127e-08
3.95126e-08
3.95126e-08
3.95125e-08
3.95125e-08
3.95124e-08
3.95124e-08
3.95125e-08
3.95124e-08
3.95126e-08
3.95125e-08
3.95127e-08
3.95125e-08
3.95127e-08
3.95125e-08
3.95126e-08
3.95125e-08
3.95126e-08
3.95124e-08
3.95124e-08
3.95124e-08
3.95123e-08
3.95123e-08
3.95124e-08
3.95124e-08
3.95123e-08
3.95124e-08
3.95123e-08
3.95123e-08
3.95122e-08
3.95122e-08
3.95123e-08
3.95123e-08
3.95123e-08
3.95123e-08
3.95123e-08
3.95124e-08
3.95123e-08
3.95124e-08
3.95124e-08
3.95124e-08
3.95124e-08
3.95124e-08
3.95124e-08
3.95124e-08
3.95124e-08
3.95125e-08
3.95125e-08
3.95124e-08
3.95124e-08
3.95124e-08
3.95124e-08
3.95124e-08
3.95124e-08
3.95124e-08
3.95125e-08
3.95124e-08
3.95126e-08
3.95124e-08
3.95127e-08
3.95121e-08
3.95131e-08
3.95115e-08
3.95138e-08
3.95102e-08
3.95151e-08
3.95082e-08
3.95167e-08
3.95059e-08
3.95178e-08
3.95053e-08
3.95157e-08
3.95083e-08
3.95065e-08
3.95186e-08
3.94849e-08
3.9526e-08
3.94768e-08
6.39762e-09
4.87265e-09
8.48882e-09
5.82134e-09
1.03706e-08
1.14294e-08
1.4585e-08
1.67246e-08
1.90144e-08
2.10565e-08
2.29851e-08
2.48768e-08
2.66095e-08
2.82391e-08
2.98014e-08
3.11796e-08
3.25028e-08
3.37291e-08
3.48723e-08
3.59343e-08
3.69202e-08
3.78341e-08
3.86806e-08
3.94639e-08
4.01883e-08
4.08579e-08
4.14765e-08
4.20477e-08
4.25751e-08
4.30619e-08
4.3511e-08
4.39253e-08
4.43074e-08
4.46598e-08
4.49848e-08
4.52847e-08
4.5561e-08
4.58161e-08
4.60512e-08
4.62681e-08
4.64682e-08
4.66525e-08
4.6823e-08
4.69795e-08
4.71247e-08
4.72577e-08
4.73813e-08
4.74944e-08
4.75996e-08
4.76958e-08
4.77851e-08
4.78673e-08
4.79428e-08
4.80132e-08
4.80771e-08
4.81371e-08
4.81915e-08
4.82426e-08
4.82887e-08
4.83322e-08
4.83716e-08
4.84083e-08
4.84421e-08
4.84731e-08
4.8502e-08
4.85283e-08
4.85529e-08
4.85755e-08
4.85961e-08
4.86155e-08
4.8633e-08
4.86496e-08
4.86643e-08
4.86785e-08
4.86911e-08
4.87032e-08
4.87138e-08
4.87241e-08
4.87332e-08
4.8742e-08
4.87497e-08
4.87571e-08
4.87639e-08
4.877e-08
4.87758e-08
4.8781e-08
4.8786e-08
4.87904e-08
4.87947e-08
4.87984e-08
4.8802e-08
4.88052e-08
4.88083e-08
4.8811e-08
4.88136e-08
4.88159e-08
4.88182e-08
4.88201e-08
4.8822e-08
4.88236e-08
4.88253e-08
4.88267e-08
4.88281e-08
4.88293e-08
4.88305e-08
4.88315e-08
4.88325e-08
4.88334e-08
4.88342e-08
4.8835e-08
4.88357e-08
4.88363e-08
4.88369e-08
4.88375e-08
4.8838e-08
4.88385e-08
4.8839e-08
4.88393e-08
4.88397e-08
4.884e-08
4.88404e-08
4.88407e-08
4.8841e-08
4.88412e-08
4.88415e-08
4.88418e-08
4.8842e-08
4.88421e-08
4.88424e-08
4.88425e-08
4.88426e-08
4.88428e-08
4.88429e-08
4.8843e-08
4.88431e-08
4.88433e-08
4.88434e-08
4.88434e-08
4.88435e-08
4.88436e-08
4.88437e-08
4.88439e-08
4.88438e-08
4.88439e-08
4.88439e-08
4.88439e-08
4.8844e-08
4.88441e-08
4.88441e-08
4.88443e-08
4.88442e-08
4.88443e-08
4.88444e-08
4.88444e-08
4.88444e-08
4.88444e-08
4.88444e-08
4.88444e-08
4.88444e-08
4.88444e-08
4.88445e-08
4.88444e-08
4.88445e-08
4.88445e-08
4.88445e-08
4.88446e-08
4.88446e-08
4.88447e-08
4.88446e-08
4.88448e-08
4.88447e-08
4.88448e-08
4.88447e-08
4.88447e-08
4.88447e-08
4.88448e-08
4.88447e-08
4.88447e-08
4.88447e-08
4.88447e-08
4.88446e-08
4.88447e-08
4.88446e-08
4.88447e-08
4.88446e-08
4.88446e-08
4.88446e-08
4.88446e-08
4.88446e-08
4.88446e-08
4.88446e-08
4.88447e-08
4.88446e-08
4.88447e-08
4.88446e-08
4.88447e-08
4.88446e-08
4.88446e-08
4.88447e-08
4.88446e-08
4.88447e-08
4.88446e-08
4.88447e-08
4.88446e-08
4.88447e-08
4.88446e-08
4.88446e-08
4.88446e-08
4.88447e-08
4.88446e-08
4.88447e-08
4.88446e-08
4.88448e-08
4.88447e-08
4.88447e-08
4.88446e-08
4.88446e-08
4.88446e-08
4.88446e-08
4.88446e-08
4.88446e-08
4.88445e-08
4.88446e-08
4.88445e-08
4.88446e-08
4.88446e-08
4.88446e-08
4.88446e-08
4.88446e-08
4.88445e-08
4.88446e-08
4.88445e-08
4.88446e-08
4.88446e-08
4.88446e-08
4.88445e-08
4.88446e-08
4.88446e-08
4.88446e-08
4.88446e-08
4.88446e-08
4.88446e-08
4.88446e-08
4.88446e-08
4.88446e-08
4.88446e-08
4.88446e-08
4.88446e-08
4.88446e-08
4.88446e-08
4.88446e-08
4.88446e-08
4.88445e-08
4.88446e-08
4.88446e-08
4.88446e-08
4.88446e-08
4.88446e-08
4.88446e-08
4.88446e-08
4.88446e-08
4.88445e-08
4.88447e-08
4.88446e-08
4.88447e-08
4.88446e-08
4.88446e-08
4.88446e-08
4.88446e-08
4.88446e-08
4.88447e-08
4.88446e-08
4.88446e-08
4.88446e-08
4.88446e-08
4.88446e-08
4.88446e-08
4.88446e-08
4.88445e-08
4.88446e-08
4.88445e-08
4.88446e-08
4.88445e-08
4.88446e-08
4.88446e-08
4.88446e-08
4.88446e-08
4.88446e-08
4.88446e-08
4.88446e-08
4.88446e-08
4.88445e-08
4.88446e-08
4.88446e-08
4.88446e-08
4.88445e-08
4.88446e-08
4.88445e-08
4.88445e-08
4.88445e-08
4.88445e-08
4.88445e-08
4.88445e-08
4.88445e-08
4.88445e-08
4.88445e-08
4.88445e-08
4.88445e-08
4.88445e-08
4.88446e-08
4.88445e-08
4.88445e-08
4.88445e-08
4.88445e-08
4.88445e-08
4.88445e-08
4.88446e-08
4.88446e-08
4.88446e-08
4.88446e-08
4.88446e-08
4.88446e-08
4.88447e-08
4.88446e-08
4.88447e-08
4.88446e-08
4.88446e-08
4.88446e-08
4.88446e-08
4.88446e-08
4.88446e-08
4.88446e-08
4.88446e-08
4.88445e-08
4.88446e-08
4.88445e-08
4.88446e-08
4.88445e-08
4.88446e-08
4.88444e-08
4.88445e-08
4.88445e-08
4.88445e-08
4.88445e-08
4.88445e-08
4.88445e-08
4.88445e-08
4.88445e-08
4.88445e-08
4.88446e-08
4.88446e-08
4.88446e-08
4.88446e-08
4.88446e-08
4.88446e-08
4.88446e-08
4.88446e-08
4.88446e-08
4.88446e-08
4.88446e-08
4.88447e-08
4.88446e-08
4.88447e-08
4.88445e-08
4.88447e-08
4.88445e-08
4.88446e-08
4.88445e-08
4.88446e-08
4.88446e-08
4.88446e-08
4.88446e-08
4.88445e-08
4.88448e-08
4.88445e-08
4.88448e-08
4.88445e-08
4.88448e-08
4.88445e-08
4.88448e-08
4.88445e-08
4.88448e-08
4.88445e-08
4.88448e-08
4.88445e-08
4.88447e-08
4.88446e-08
4.88446e-08
4.88446e-08
4.88446e-08
4.88447e-08
4.88446e-08
4.88447e-08
4.88446e-08
4.88448e-08
4.88446e-08
4.88447e-08
4.88446e-08
4.88447e-08
4.88446e-08
4.88447e-08
4.88447e-08
4.88447e-08
4.88447e-08
4.88447e-08
4.88445e-08
4.88446e-08
4.88444e-08
4.88449e-08
4.88446e-08
4.88449e-08
4.88445e-08
4.88449e-08
4.88445e-08
4.88448e-08
4.88445e-08
4.88448e-08
4.88446e-08
4.88448e-08
4.88446e-08
4.88448e-08
4.88446e-08
4.88447e-08
4.88445e-08
4.88447e-08
4.88446e-08
4.88446e-08
4.88446e-08
4.88446e-08
4.88447e-08
4.88445e-08
4.88447e-08
4.88445e-08
4.88447e-08
4.88445e-08
4.88447e-08
4.88445e-08
4.88446e-08
4.88445e-08
4.88446e-08
4.88445e-08
4.88446e-08
4.88445e-08
4.88445e-08
4.88445e-08
4.88445e-08
4.88445e-08
4.88445e-08
4.88446e-08
4.88445e-08
4.88445e-08
4.88444e-08
4.88444e-08
4.88445e-08
4.88445e-08
4.88445e-08
4.88446e-08
4.88445e-08
4.88445e-08
4.88444e-08
4.88445e-08
4.88445e-08
4.88446e-08
4.88445e-08
4.88445e-08
4.88444e-08
4.88445e-08
4.88445e-08
4.88445e-08
4.88445e-08
4.88445e-08
4.88445e-08
4.88445e-08
4.88445e-08
4.88445e-08
4.88445e-08
4.88445e-08
4.88445e-08
4.88444e-08
4.88446e-08
4.88443e-08
4.88447e-08
4.88441e-08
4.88451e-08
4.88434e-08
4.88458e-08
4.8842e-08
4.88471e-08
4.88399e-08
4.8849e-08
4.88372e-08
4.88506e-08
4.8836e-08
4.88495e-08
4.88382e-08
4.88416e-08
4.88472e-08
4.88225e-08
4.88599e-08
4.88224e-08
7.30222e-09
6.87022e-09
1.0217e-08
7.88049e-09
1.20288e-08
1.28255e-08
1.57715e-08
1.79117e-08
1.99409e-08
2.20378e-08
2.37588e-08
2.56333e-08
2.72757e-08
2.89374e-08
3.04324e-08
3.18874e-08
3.32291e-08
3.44928e-08
3.56687e-08
3.67638e-08
3.77816e-08
3.87265e-08
3.96027e-08
4.04145e-08
4.1166e-08
4.18613e-08
4.25042e-08
4.30985e-08
4.36475e-08
4.41547e-08
4.4623e-08
4.50553e-08
4.54544e-08
4.58226e-08
4.61625e-08
4.64761e-08
4.67654e-08
4.70292e-08
4.72675e-08
4.7487e-08
4.76899e-08
4.78766e-08
4.80494e-08
4.82081e-08
4.83552e-08
4.84902e-08
4.86155e-08
4.87302e-08
4.88369e-08
4.89346e-08
4.90252e-08
4.91087e-08
4.91854e-08
4.92567e-08
4.93218e-08
4.93826e-08
4.94379e-08
4.94897e-08
4.95368e-08
4.95809e-08
4.9621e-08
4.96584e-08
4.96928e-08
4.97243e-08
4.97537e-08
4.97805e-08
4.98055e-08
4.98285e-08
4.98496e-08
4.98693e-08
4.98871e-08
4.9904e-08
4.99191e-08
4.99335e-08
4.99463e-08
4.99586e-08
4.99695e-08
4.998e-08
4.99893e-08
4.99982e-08
5.00061e-08
5.00136e-08
5.00205e-08
5.00268e-08
5.00327e-08
5.0038e-08
5.00431e-08
5.00475e-08
5.00519e-08
5.00557e-08
5.00594e-08
5.00626e-08
5.00658e-08
5.00685e-08
5.00712e-08
5.00735e-08
5.00758e-08
5.00778e-08
5.00798e-08
5.00815e-08
5.00831e-08
5.00846e-08
5.0086e-08
5.00872e-08
5.00884e-08
5.00895e-08
5.00905e-08
5.00914e-08
5.00922e-08
5.0093e-08
5.00937e-08
5.00944e-08
5.0095e-08
5.00955e-08
5.00961e-08
5.00965e-08
5.0097e-08
5.00974e-08
5.00978e-08
5.00981e-08
5.00984e-08
5.00987e-08
5.0099e-08
5.00992e-08
5.00995e-08
5.00997e-08
5.00999e-08
5.01e-08
5.01002e-08
5.01003e-08
5.01005e-08
5.01007e-08
5.01009e-08
5.0101e-08
5.01011e-08
5.01011e-08
5.01012e-08
5.01014e-08
5.01014e-08
5.01015e-08
5.01016e-08
5.01016e-08
5.01017e-08
5.01018e-08
5.01017e-08
5.01018e-08
5.01018e-08
5.01019e-08
5.01019e-08
5.0102e-08
5.0102e-08
5.01021e-08
5.0102e-08
5.01021e-08
5.01022e-08
5.01021e-08
5.01022e-08
5.01021e-08
5.01022e-08
5.01022e-08
5.01022e-08
5.01023e-08
5.01022e-08
5.01022e-08
5.01021e-08
5.01023e-08
5.01021e-08
5.01023e-08
5.01022e-08
5.01023e-08
5.01022e-08
5.01023e-08
5.01022e-08
5.01023e-08
5.01022e-08
5.01023e-08
5.01023e-08
5.01023e-08
5.01023e-08
5.01024e-08
5.01023e-08
5.01024e-08
5.01023e-08
5.01024e-08
5.01023e-08
5.01024e-08
5.01023e-08
5.01024e-08
5.01024e-08
5.01024e-08
5.01023e-08
5.01023e-08
5.01023e-08
5.01023e-08
5.01022e-08
5.01023e-08
5.01023e-08
5.01023e-08
5.01023e-08
5.01023e-08
5.01023e-08
5.01023e-08
5.01024e-08
5.01023e-08
5.01023e-08
5.01023e-08
5.01024e-08
5.01023e-08
5.01023e-08
5.01022e-08
5.01023e-08
5.01022e-08
5.01024e-08
5.01023e-08
5.01024e-08
5.01022e-08
5.01023e-08
5.01022e-08
5.01024e-08
5.01023e-08
5.01023e-08
5.01023e-08
5.01024e-08
5.01023e-08
5.01023e-08
5.01023e-08
5.01023e-08
5.01023e-08
5.01024e-08
5.01023e-08
5.01023e-08
5.01022e-08
5.01023e-08
5.01023e-08
5.01023e-08
5.01023e-08
5.01024e-08
5.01023e-08
5.01023e-08
5.01023e-08
5.01023e-08
5.01023e-08
5.01023e-08
5.01023e-08
5.01022e-08
5.01023e-08
5.01023e-08
5.01023e-08
5.01023e-08
5.01023e-08
5.01023e-08
5.01023e-08
5.01023e-08
5.01023e-08
5.01023e-08
5.01023e-08
5.01023e-08
5.01023e-08
5.01023e-08
5.01023e-08
5.01024e-08
5.01023e-08
5.01023e-08
5.01022e-08
5.01023e-08
5.01022e-08
5.01023e-08
5.01023e-08
5.01023e-08
5.01023e-08
5.01023e-08
5.01023e-08
5.01023e-08
5.01023e-08
5.01023e-08
5.01023e-08
5.01023e-08
5.01023e-08
5.01023e-08
5.01023e-08
5.01023e-08
5.01023e-08
5.01023e-08
5.01024e-08
5.01023e-08
5.01023e-08
5.01022e-08
5.01022e-08
5.01022e-08
5.01022e-08
5.01023e-08
5.01023e-08
5.01023e-08
5.01024e-08
5.01023e-08
5.01023e-08
5.01023e-08
5.01024e-08
5.01023e-08
5.01023e-08
5.01023e-08
5.01023e-08
5.01022e-08
5.01022e-08
5.01023e-08
5.01023e-08
5.01022e-08
5.01023e-08
5.01022e-08
5.01023e-08
5.01023e-08
5.01023e-08
5.01023e-08
5.01023e-08
5.01023e-08
5.01023e-08
5.01024e-08
5.01023e-08
5.01023e-08
5.01023e-08
5.01023e-08
5.01022e-08
5.01023e-08
5.01022e-08
5.01022e-08
5.01022e-08
5.01022e-08
5.01022e-08
5.01022e-08
5.01022e-08
5.01022e-08
5.01022e-08
5.01022e-08
5.01023e-08
5.01023e-08
5.01022e-08
5.01023e-08
5.01022e-08
5.01023e-08
5.01022e-08
5.01024e-08
5.01023e-08
5.01023e-08
5.01023e-08
5.01023e-08
5.01023e-08
5.01022e-08
5.01022e-08
5.01022e-08
5.01023e-08
5.01023e-08
5.01023e-08
5.01021e-08
5.01022e-08
5.01021e-08
5.01022e-08
5.01022e-08
5.01022e-08
5.01022e-08
5.01022e-08
5.01022e-08
5.01022e-08
5.01023e-08
5.01021e-08
5.01023e-08
5.01022e-08
5.01023e-08
5.01022e-08
5.01023e-08
5.01023e-08
5.01023e-08
5.01023e-08
5.01022e-08
5.01024e-08
5.01021e-08
5.01025e-08
5.01021e-08
5.01024e-08
5.0102e-08
5.01024e-08
5.0102e-08
5.01024e-08
5.0102e-08
5.01023e-08
5.01022e-08
5.01024e-08
5.01022e-08
5.01023e-08
5.01022e-08
5.01023e-08
5.01023e-08
5.01022e-08
5.01023e-08
5.01022e-08
5.01023e-08
5.01021e-08
5.01023e-08
5.01021e-08
5.01023e-08
5.01022e-08
5.01023e-08
5.01022e-08
5.01023e-08
5.01022e-08
5.01023e-08
5.01022e-08
5.01023e-08
5.01023e-08
5.01024e-08
5.01022e-08
5.01024e-08
5.01022e-08
5.01024e-08
5.01021e-08
5.01024e-08
5.01021e-08
5.01024e-08
5.01021e-08
5.01024e-08
5.01021e-08
5.01024e-08
5.01021e-08
5.01023e-08
5.01021e-08
5.01023e-08
5.01023e-08
5.01023e-08
5.01023e-08
5.01023e-08
5.01024e-08
5.01022e-08
5.01023e-08
5.01021e-08
5.01023e-08
5.01021e-08
5.01022e-08
5.01021e-08
5.01022e-08
5.01021e-08
5.01023e-08
5.01022e-08
5.01023e-08
5.01022e-08
5.01023e-08
5.01022e-08
5.01023e-08
5.01022e-08
5.01023e-08
5.01022e-08
5.01022e-08
5.01023e-08
5.01023e-08
5.01023e-08
5.01022e-08
5.01023e-08
5.01022e-08
5.01024e-08
5.01022e-08
5.01023e-08
5.01021e-08
5.01023e-08
5.01022e-08
5.01023e-08
5.01021e-08
5.01023e-08
5.01022e-08
5.01022e-08
5.01022e-08
5.01021e-08
5.01021e-08
5.01022e-08
5.01022e-08
5.01022e-08
5.01022e-08
5.01022e-08
5.01022e-08
5.01021e-08
5.01022e-08
5.01021e-08
5.01022e-08
5.01019e-08
5.01023e-08
5.01017e-08
5.01027e-08
5.01009e-08
5.01034e-08
5.00996e-08
5.01048e-08
5.00974e-08
5.01069e-08
5.00948e-08
5.01087e-08
5.00933e-08
5.01083e-08
5.0095e-08
5.01022e-08
5.01032e-08
5.00879e-08
5.01193e-08
5.00819e-08
8.25523e-09
9.13678e-09
1.24303e-08
1.01396e-08
1.40609e-08
1.43443e-08
1.73169e-08
1.90301e-08
2.11325e-08
2.31005e-08
2.47288e-08
2.65152e-08
2.80768e-08
2.96667e-08
3.10954e-08
3.24907e-08
3.37814e-08
3.49968e-08
3.61294e-08
3.7185e-08
3.8167e-08
3.90792e-08
3.99257e-08
4.07104e-08
4.14372e-08
4.211e-08
4.27324e-08
4.3308e-08
4.38401e-08
4.43318e-08
4.47861e-08
4.52057e-08
4.55932e-08
4.5951e-08
4.62814e-08
4.65864e-08
4.6868e-08
4.71278e-08
4.73675e-08
4.75887e-08
4.77929e-08
4.79812e-08
4.8155e-08
4.83153e-08
4.84633e-08
4.85998e-08
4.87257e-08
4.88419e-08
4.89491e-08
4.90481e-08
4.91393e-08
4.92236e-08
4.93012e-08
4.9373e-08
4.94391e-08
4.95002e-08
4.95565e-08
4.96085e-08
4.96564e-08
4.97007e-08
4.97416e-08
4.97792e-08
4.9814e-08
4.9846e-08
4.98756e-08
4.9903e-08
4.99281e-08
4.99515e-08
4.99728e-08
4.99927e-08
5.00107e-08
5.00273e-08
5.00421e-08
5.00563e-08
5.00689e-08
5.0081e-08
5.00918e-08
5.01021e-08
5.01112e-08
5.01199e-08
5.01278e-08
5.01351e-08
5.01419e-08
5.01481e-08
5.0154e-08
5.01591e-08
5.01642e-08
5.01685e-08
5.01728e-08
5.01766e-08
5.01802e-08
5.01834e-08
5.01865e-08
5.01892e-08
5.01919e-08
5.01942e-08
5.01964e-08
5.01984e-08
5.02003e-08
5.02019e-08
5.02036e-08
5.0205e-08
5.02064e-08
5.02076e-08
5.02088e-08
5.02098e-08
5.02108e-08
5.02117e-08
5.02126e-08
5.02133e-08
5.0214e-08
5.02147e-08
5.02153e-08
5.02158e-08
5.02163e-08
5.02168e-08
5.02172e-08
5.02176e-08
5.0218e-08
5.02184e-08
5.02187e-08
5.02189e-08
5.02192e-08
5.02194e-08
5.02197e-08
5.02199e-08
5.02201e-08
5.02202e-08
5.02204e-08
5.02205e-08
5.02207e-08
5.02208e-08
5.0221e-08
5.02211e-08
5.02212e-08
5.02213e-08
5.02214e-08
5.02215e-08
5.02215e-08
5.02216e-08
5.02216e-08
5.02217e-08
5.02217e-08
5.02218e-08
5.02218e-08
5.02219e-08
5.02218e-08
5.02219e-08
5.02219e-08
5.0222e-08
5.0222e-08
5.02221e-08
5.02221e-08
5.02221e-08
5.02221e-08
5.02222e-08
5.02222e-08
5.02222e-08
5.02222e-08
5.02222e-08
5.02222e-08
5.02223e-08
5.02222e-08
5.02222e-08
5.02222e-08
5.02223e-08
5.02222e-08
5.02222e-08
5.02222e-08
5.02222e-08
5.02223e-08
5.02222e-08
5.02223e-08
5.02222e-08
5.02223e-08
5.02222e-08
5.02223e-08
5.02223e-08
5.02223e-08
5.02224e-08
5.02223e-08
5.02224e-08
5.02224e-08
5.02224e-08
5.02223e-08
5.02225e-08
5.02223e-08
5.02224e-08
5.02223e-08
5.02224e-08
5.02223e-08
5.02223e-08
5.02223e-08
5.02223e-08
5.02223e-08
5.02223e-08
5.02223e-08
5.02223e-08
5.02223e-08
5.02223e-08
5.02223e-08
5.02223e-08
5.02224e-08
5.02223e-08
5.02224e-08
5.02224e-08
5.02224e-08
5.02223e-08
5.02224e-08
5.02223e-08
5.02223e-08
5.02223e-08
5.02224e-08
5.02222e-08
5.02224e-08
5.02222e-08
5.02224e-08
5.02223e-08
5.02224e-08
5.02223e-08
5.02224e-08
5.02223e-08
5.02224e-08
5.02224e-08
5.02224e-08
5.02223e-08
5.02223e-08
5.02223e-08
5.02224e-08
5.02223e-08
5.02223e-08
5.02223e-08
5.02223e-08
5.02223e-08
5.02224e-08
5.02224e-08
5.02224e-08
5.02224e-08
5.02223e-08
5.02224e-08
5.02223e-08
5.02223e-08
5.02223e-08
5.02223e-08
5.02223e-08
5.02223e-08
5.02223e-08
5.02223e-08
5.02223e-08
5.02223e-08
5.02223e-08
5.02223e-08
5.02223e-08
5.02223e-08
5.02224e-08
5.02223e-08
5.02224e-08
5.02223e-08
5.02224e-08
5.02223e-08
5.02224e-08
5.02223e-08
5.02223e-08
5.02223e-08
5.02223e-08
5.02223e-08
5.02223e-08
5.02223e-08
5.02224e-08
5.02223e-08
5.02224e-08
5.02224e-08
5.02224e-08
5.02223e-08
5.02223e-08
5.02223e-08
5.02223e-08
5.02223e-08
5.02223e-08
5.02224e-08
5.02223e-08
5.02224e-08
5.02223e-08
5.02224e-08
5.02223e-08
5.02223e-08
5.02223e-08
5.02223e-08
5.02223e-08
5.02223e-08
5.02223e-08
5.02224e-08
5.02223e-08
5.02224e-08
5.02223e-08
5.02224e-08
5.02223e-08
5.02224e-08
5.02223e-08
5.02224e-08
5.02223e-08
5.02224e-08
5.02223e-08
5.02223e-08
5.02224e-08
5.02224e-08
5.02222e-08
5.02224e-08
5.02223e-08
5.02223e-08
5.02224e-08
5.02224e-08
5.02223e-08
5.02223e-08
5.02224e-08
5.02223e-08
5.02224e-08
5.02223e-08
5.02224e-08
5.02223e-08
5.02224e-08
5.02223e-08
5.02223e-08
5.02223e-08
5.02223e-08
5.02222e-08
5.02223e-08
5.02223e-08
5.02223e-08
5.02223e-08
5.02223e-08
5.02222e-08
5.02223e-08
5.02224e-08
5.02224e-08
5.02223e-08
5.02224e-08
5.02223e-08
5.02224e-08
5.02223e-08
5.02224e-08
5.02223e-08
5.02224e-08
5.02224e-08
5.02223e-08
5.02223e-08
5.02223e-08
5.02223e-08
5.02223e-08
5.02223e-08
5.02222e-08
5.02224e-08
5.02222e-08
5.02223e-08
5.02222e-08
5.02223e-08
5.02222e-08
5.02223e-08
5.02222e-08
5.02223e-08
5.02222e-08
5.02223e-08
5.02223e-08
5.02223e-08
5.02223e-08
5.02223e-08
5.02223e-08
5.02223e-08
5.02223e-08
5.02223e-08
5.02222e-08
5.02224e-08
5.02223e-08
5.02225e-08
5.02221e-08
5.02225e-08
5.02221e-08
5.02225e-08
5.0222e-08
5.02225e-08
5.02221e-08
5.02225e-08
5.02221e-08
5.02224e-08
5.02221e-08
5.02224e-08
5.02222e-08
5.02223e-08
5.02223e-08
5.02223e-08
5.02223e-08
5.02222e-08
5.02223e-08
5.02222e-08
5.02223e-08
5.02222e-08
5.02223e-08
5.02221e-08
5.02223e-08
5.02221e-08
5.02223e-08
5.02222e-08
5.02223e-08
5.02222e-08
5.02223e-08
5.02223e-08
5.02224e-08
5.02223e-08
5.02224e-08
5.02222e-08
5.02224e-08
5.02222e-08
5.02224e-08
5.02221e-08
5.02224e-08
5.02221e-08
5.02224e-08
5.02221e-08
5.02224e-08
5.02221e-08
5.02225e-08
5.02221e-08
5.02224e-08
5.02222e-08
5.02224e-08
5.02223e-08
5.02224e-08
5.02224e-08
5.02224e-08
5.02223e-08
5.02223e-08
5.02223e-08
5.02222e-08
5.02223e-08
5.02222e-08
5.02223e-08
5.02222e-08
5.02223e-08
5.02222e-08
5.02223e-08
5.02222e-08
5.02224e-08