/*--------------------------------*- C++ -*----------------------------------*\
| =========                 |                                                 |
| \\      /  F ield         | OpenFOAM: The Open Source CFD Toolbox           |
|  \\    /   O peration     | Version:  2012                                  |
|   \\  /    A nd           | Website:  www.openfoam.com                      |
|    \\/     M anipulation  |                                                 |
\*---------------------------------------------------------------------------*/
FoamFile
{
    version     2.0;
    format      ascii;
    class       volScalarField;
    location    "0.7";
    object      rho2;
}
// * * * * * * * * * * * * * * * * * * * * * * * * * * * * * * * * * * * * * //

dimensions      [1 -3 0 0 0 0 0];


internalField   nonuniform List<scalar> 
20400
(
0.0122572
0.0122599
0.0122551
0.0122636
0.0122562
0.0122641
0.012258
0.0122631
0.0122598
0.0122622
0.0122607
0.0122613
0.0122606
0.0122605
0.01226
0.0122596
0.0122591
0.0122586
0.012258
0.0122573
0.0122567
0.012256
0.0122552
0.0122545
0.0122537
0.012253
0.0122522
0.0122514
0.0122506
0.0122497
0.0122489
0.0122481
0.0122473
0.0122464
0.0122456
0.0122448
0.012244
0.0122431
0.0122423
0.0122415
0.0122407
0.0122398
0.012239
0.0122382
0.0122374
0.0122366
0.0122358
0.0122349
0.0122341
0.0122333
0.0122325
0.0122317
0.0122309
0.0122301
0.0122293
0.0122285
0.0122277
0.012227
0.0122262
0.0122254
0.0122246
0.0122238
0.012223
0.0122222
0.0122215
0.0122207
0.0122199
0.0122191
0.0122184
0.0122176
0.0122168
0.012216
0.0122153
0.0122145
0.0122137
0.012213
0.0122122
0.0122114
0.0122107
0.0122099
0.0122091
0.0122084
0.0122076
0.0122068
0.0122061
0.0122053
0.0122046
0.0122038
0.012203
0.0122023
0.0122015
0.0122008
0.0122
0.0121992
0.0121985
0.0121977
0.012197
0.0121962
0.0121954
0.0121947
0.0121939
0.0121932
0.0121924
0.0121917
0.0121909
0.0121901
0.0121894
0.0121886
0.0121879
0.0121871
0.0121863
0.0121856
0.0121848
0.0121841
0.0121833
0.0121826
0.0121818
0.0121811
0.0121803
0.0121795
0.0121788
0.012178
0.0121773
0.0121765
0.0121758
0.012175
0.0121742
0.0121735
0.0121727
0.012172
0.0121712
0.0121705
0.0121697
0.0121689
0.0121682
0.0121674
0.0121667
0.0121659
0.0121652
0.0121644
0.0121637
0.0121629
0.0121621
0.0121614
0.0121606
0.0121599
0.0121591
0.0121584
0.0121576
0.0121569
0.0121561
0.0121553
0.0121546
0.0121538
0.0121531
0.0121523
0.0121516
0.0121508
0.01215
0.0121493
0.0121485
0.0121478
0.012147
0.0121463
0.0121455
0.0121448
0.012144
0.0121432
0.0121425
0.0121417
0.012141
0.0121402
0.0121395
0.0121387
0.012138
0.0121372
0.0121364
0.0121357
0.0121349
0.0121342
0.0121334
0.0121327
0.0121319
0.0121311
0.0121304
0.0121296
0.0121289
0.0121281
0.0121274
0.0121266
0.0121259
0.0121251
0.0121243
0.0121236
0.0121228
0.0121221
0.0121213
0.0121206
0.0121198
0.0121191
0.0121183
0.0121175
0.0121168
0.012116
0.0121153
0.0121145
0.0121138
0.012113
0.0121122
0.0121115
0.0121107
0.01211
0.0121092
0.0121085
0.0121077
0.012107
0.0121062
0.0121054
0.0121047
0.0121039
0.0121032
0.0121024
0.0121017
0.0121009
0.0121002
0.0120994
0.0120986
0.0120979
0.0120971
0.0120964
0.0120956
0.0120949
0.0120941
0.0120933
0.0120926
0.0120918
0.0120911
0.0120903
0.0120896
0.0120888
0.0120881
0.0120873
0.0120865
0.0120858
0.012085
0.0120843
0.0120835
0.0120828
0.012082
0.0120812
0.0120805
0.0120797
0.012079
0.0120782
0.0120775
0.0120767
0.012076
0.0120752
0.0120744
0.0120737
0.0120729
0.0120722
0.0120714
0.0120707
0.0120699
0.0120692
0.0120684
0.0120676
0.0120669
0.0120661
0.0120654
0.0120646
0.0120639
0.0120631
0.0120623
0.0120616
0.0120608
0.0120601
0.0120593
0.0120586
0.0120578
0.0120571
0.0120563
0.0120555
0.0120548
0.012054
0.0120533
0.0120525
0.0120518
0.012051
0.0120503
0.0120495
0.0120487
0.012048
0.0120472
0.0120465
0.0120457
0.012045
0.0120442
0.0120434
0.0120427
0.0120419
0.0120412
0.0120404
0.0120397
0.0120389
0.0120382
0.0120374
0.0120366
0.0120359
0.0120351
0.0120344
0.0120336
0.0120329
0.0120321
0.0120314
0.0120306
0.0120298
0.0120291
0.0120283
0.0120276
0.0120268
0.0120261
0.0120253
0.0120245
0.0120238
0.012023
0.0120223
0.0120215
0.0120208
0.01202
0.0120193
0.0120185
0.0120177
0.012017
0.0120162
0.0120155
0.0120147
0.012014
0.0120132
0.0120125
0.0120117
0.0120109
0.0120102
0.0120094
0.0120087
0.0120079
0.0120072
0.0120064
0.0120056
0.0120049
0.0120041
0.0120034
0.0120026
0.0120019
0.0120011
0.0120004
0.0119996
0.0119988
0.0119981
0.0119973
0.0119966
0.0119958
0.0119951
0.0119943
0.0119936
0.0119928
0.011992
0.0119913
0.0119905
0.0119898
0.011989
0.0119883
0.0119875
0.0119867
0.011986
0.0119852
0.0119845
0.0119837
0.011983
0.0119822
0.0119815
0.0119807
0.0119799
0.0119792
0.0119784
0.0119777
0.0119769
0.0119762
0.0119754
0.0119747
0.0119739
0.0119731
0.0119724
0.0119716
0.0119709
0.0119701
0.0119694
0.0119686
0.0119678
0.0119671
0.0119663
0.0119656
0.0119648
0.0119641
0.0119633
0.0119626
0.0119618
0.011961
0.0119603
0.0119595
0.0119588
0.011958
0.0119573
0.0119565
0.0119558
0.011955
0.0119542
0.0119535
0.0119527
0.011952
0.0119512
0.0119505
0.0119497
0.0119489
0.0119482
0.0119474
0.0119467
0.0119459
0.0119452
0.0119444
0.0119437
0.0119429
0.0119421
0.0119414
0.0119406
0.0119399
0.0119391
0.0119384
0.0119376
0.0119369
0.0119361
0.0119353
0.0119346
0.0119338
0.0119331
0.0119323
0.0119316
0.0119308
0.01193
0.0119293
0.0119285
0.0119278
0.011927
0.0119263
0.0119255
0.0119248
0.011924
0.0119232
0.0119225
0.0119217
0.011921
0.0119202
0.0119195
0.0119187
0.011918
0.0119172
0.0119164
0.0119157
0.0119149
0.0119142
0.0119134
0.0119127
0.0119119
0.0119111
0.0119104
0.0119096
0.0119089
0.0119081
0.0119074
0.0119066
0.0119059
0.0119051
0.0119043
0.0119036
0.0119028
0.0119021
0.0119013
0.0119006
0.0118998
0.011899
0.0118983
0.0118975
0.0118968
0.011896
0.0118952
0.0118945
0.0118937
0.0118931
0.0118921
0.0122556
0.0122599
0.0122537
0.0122628
0.0122546
0.0122632
0.0122566
0.0122621
0.0122588
0.0122613
0.0122599
0.0122606
0.0122601
0.01226
0.0122597
0.0122593
0.0122589
0.0122584
0.0122578
0.0122572
0.0122565
0.0122559
0.0122552
0.0122544
0.0122537
0.0122529
0.0122521
0.0122513
0.0122505
0.0122497
0.0122489
0.012248
0.0122472
0.0122464
0.0122456
0.0122447
0.0122439
0.0122431
0.0122422
0.0122414
0.0122406
0.0122398
0.012239
0.0122381
0.0122373
0.0122365
0.0122357
0.0122349
0.0122341
0.0122333
0.0122325
0.0122317
0.0122309
0.0122301
0.0122293
0.0122285
0.0122277
0.0122269
0.0122261
0.0122254
0.0122246
0.0122238
0.012223
0.0122222
0.0122215
0.0122207
0.0122199
0.0122191
0.0122184
0.0122176
0.0122168
0.012216
0.0122153
0.0122145
0.0122137
0.012213
0.0122122
0.0122114
0.0122107
0.0122099
0.0122091
0.0122084
0.0122076
0.0122068
0.0122061
0.0122053
0.0122046
0.0122038
0.012203
0.0122023
0.0122015
0.0122008
0.0122
0.0121992
0.0121985
0.0121977
0.012197
0.0121962
0.0121954
0.0121947
0.0121939
0.0121932
0.0121924
0.0121917
0.0121909
0.0121901
0.0121894
0.0121886
0.0121879
0.0121871
0.0121863
0.0121856
0.0121848
0.0121841
0.0121833
0.0121826
0.0121818
0.0121811
0.0121803
0.0121795
0.0121788
0.012178
0.0121773
0.0121765
0.0121758
0.012175
0.0121742
0.0121735
0.0121727
0.012172
0.0121712
0.0121705
0.0121697
0.0121689
0.0121682
0.0121674
0.0121667
0.0121659
0.0121652
0.0121644
0.0121637
0.0121629
0.0121621
0.0121614
0.0121606
0.0121599
0.0121591
0.0121584
0.0121576
0.0121569
0.0121561
0.0121553
0.0121546
0.0121538
0.0121531
0.0121523
0.0121516
0.0121508
0.01215
0.0121493
0.0121485
0.0121478
0.012147
0.0121463
0.0121455
0.0121448
0.012144
0.0121432
0.0121425
0.0121417
0.012141
0.0121402
0.0121395
0.0121387
0.012138
0.0121372
0.0121364
0.0121357
0.0121349
0.0121342
0.0121334
0.0121327
0.0121319
0.0121311
0.0121304
0.0121296
0.0121289
0.0121281
0.0121274
0.0121266
0.0121259
0.0121251
0.0121243
0.0121236
0.0121228
0.0121221
0.0121213
0.0121206
0.0121198
0.0121191
0.0121183
0.0121175
0.0121168
0.012116
0.0121153
0.0121145
0.0121138
0.012113
0.0121122
0.0121115
0.0121107
0.01211
0.0121092
0.0121085
0.0121077
0.012107
0.0121062
0.0121054
0.0121047
0.0121039
0.0121032
0.0121024
0.0121017
0.0121009
0.0121002
0.0120994
0.0120986
0.0120979
0.0120971
0.0120964
0.0120956
0.0120949
0.0120941
0.0120933
0.0120926
0.0120918
0.0120911
0.0120903
0.0120896
0.0120888
0.0120881
0.0120873
0.0120865
0.0120858
0.012085
0.0120843
0.0120835
0.0120828
0.012082
0.0120812
0.0120805
0.0120797
0.012079
0.0120782
0.0120775
0.0120767
0.012076
0.0120752
0.0120744
0.0120737
0.0120729
0.0120722
0.0120714
0.0120707
0.0120699
0.0120692
0.0120684
0.0120676
0.0120669
0.0120661
0.0120654
0.0120646
0.0120639
0.0120631
0.0120623
0.0120616
0.0120608
0.0120601
0.0120593
0.0120586
0.0120578
0.0120571
0.0120563
0.0120555
0.0120548
0.012054
0.0120533
0.0120525
0.0120518
0.012051
0.0120503
0.0120495
0.0120487
0.012048
0.0120472
0.0120465
0.0120457
0.012045
0.0120442
0.0120434
0.0120427
0.0120419
0.0120412
0.0120404
0.0120397
0.0120389
0.0120382
0.0120374
0.0120366
0.0120359
0.0120351
0.0120344
0.0120336
0.0120329
0.0120321
0.0120314
0.0120306
0.0120298
0.0120291
0.0120283
0.0120276
0.0120268
0.0120261
0.0120253
0.0120245
0.0120238
0.012023
0.0120223
0.0120215
0.0120208
0.01202
0.0120193
0.0120185
0.0120177
0.012017
0.0120162
0.0120155
0.0120147
0.012014
0.0120132
0.0120125
0.0120117
0.0120109
0.0120102
0.0120094
0.0120087
0.0120079
0.0120072
0.0120064
0.0120056
0.0120049
0.0120041
0.0120034
0.0120026
0.0120019
0.0120011
0.0120004
0.0119996
0.0119988
0.0119981
0.0119973
0.0119966
0.0119958
0.0119951
0.0119943
0.0119936
0.0119928
0.011992
0.0119913
0.0119905
0.0119898
0.011989
0.0119883
0.0119875
0.0119867
0.011986
0.0119852
0.0119845
0.0119837
0.011983
0.0119822
0.0119815
0.0119807
0.0119799
0.0119792
0.0119784
0.0119777
0.0119769
0.0119762
0.0119754
0.0119747
0.0119739
0.0119731
0.0119724
0.0119716
0.0119709
0.0119701
0.0119694
0.0119686
0.0119678
0.0119671
0.0119663
0.0119656
0.0119648
0.0119641
0.0119633
0.0119626
0.0119618
0.011961
0.0119603
0.0119595
0.0119588
0.011958
0.0119573
0.0119565
0.0119558
0.011955
0.0119542
0.0119535
0.0119527
0.011952
0.0119512
0.0119505
0.0119497
0.0119489
0.0119482
0.0119474
0.0119467
0.0119459
0.0119452
0.0119444
0.0119437
0.0119429
0.0119421
0.0119414
0.0119406
0.0119399
0.0119391
0.0119384
0.0119376
0.0119369
0.0119361
0.0119353
0.0119346
0.0119338
0.0119331
0.0119323
0.0119316
0.0119308
0.01193
0.0119293
0.0119285
0.0119278
0.011927
0.0119263
0.0119255
0.0119248
0.011924
0.0119232
0.0119225
0.0119217
0.011921
0.0119202
0.0119195
0.0119187
0.011918
0.0119172
0.0119164
0.0119157
0.0119149
0.0119142
0.0119134
0.0119127
0.0119119
0.0119111
0.0119104
0.0119096
0.0119089
0.0119081
0.0119074
0.0119066
0.0119059
0.0119051
0.0119043
0.0119036
0.0119028
0.0119021
0.0119013
0.0119006
0.0118998
0.011899
0.0118983
0.0118975
0.0118968
0.011896
0.0118952
0.0118945
0.0118937
0.0118931
0.0118921
0.0122554
0.0122593
0.0122533
0.0122625
0.0122541
0.012263
0.0122561
0.0122618
0.0122583
0.0122609
0.0122594
0.0122601
0.0122595
0.0122594
0.012259
0.0122586
0.0122582
0.0122577
0.0122571
0.0122565
0.0122559
0.0122553
0.0122546
0.0122539
0.0122532
0.0122525
0.0122517
0.012251
0.0122502
0.0122494
0.0122486
0.0122478
0.012247
0.0122462
0.0122454
0.0122446
0.0122438
0.012243
0.0122422
0.0122414
0.0122406
0.0122397
0.0122389
0.0122381
0.0122373
0.0122365
0.0122357
0.0122349
0.0122341
0.0122333
0.0122325
0.0122317
0.0122309
0.0122301
0.0122293
0.0122285
0.0122277
0.0122269
0.0122261
0.0122254
0.0122246
0.0122238
0.012223
0.0122222
0.0122214
0.0122207
0.0122199
0.0122191
0.0122183
0.0122176
0.0122168
0.012216
0.0122153
0.0122145
0.0122137
0.012213
0.0122122
0.0122114
0.0122107
0.0122099
0.0122091
0.0122084
0.0122076
0.0122068
0.0122061
0.0122053
0.0122046
0.0122038
0.012203
0.0122023
0.0122015
0.0122008
0.0122
0.0121992
0.0121985
0.0121977
0.012197
0.0121962
0.0121954
0.0121947
0.0121939
0.0121932
0.0121924
0.0121916
0.0121909
0.0121901
0.0121894
0.0121886
0.0121879
0.0121871
0.0121863
0.0121856
0.0121848
0.0121841
0.0121833
0.0121826
0.0121818
0.0121811
0.0121803
0.0121795
0.0121788
0.012178
0.0121773
0.0121765
0.0121758
0.012175
0.0121742
0.0121735
0.0121727
0.012172
0.0121712
0.0121705
0.0121697
0.0121689
0.0121682
0.0121674
0.0121667
0.0121659
0.0121652
0.0121644
0.0121637
0.0121629
0.0121621
0.0121614
0.0121606
0.0121599
0.0121591
0.0121584
0.0121576
0.0121569
0.0121561
0.0121553
0.0121546
0.0121538
0.0121531
0.0121523
0.0121516
0.0121508
0.01215
0.0121493
0.0121485
0.0121478
0.012147
0.0121463
0.0121455
0.0121448
0.012144
0.0121432
0.0121425
0.0121417
0.012141
0.0121402
0.0121395
0.0121387
0.012138
0.0121372
0.0121364
0.0121357
0.0121349
0.0121342
0.0121334
0.0121327
0.0121319
0.0121311
0.0121304
0.0121296
0.0121289
0.0121281
0.0121274
0.0121266
0.0121259
0.0121251
0.0121243
0.0121236
0.0121228
0.0121221
0.0121213
0.0121206
0.0121198
0.0121191
0.0121183
0.0121175
0.0121168
0.012116
0.0121153
0.0121145
0.0121138
0.012113
0.0121122
0.0121115
0.0121107
0.01211
0.0121092
0.0121085
0.0121077
0.012107
0.0121062
0.0121054
0.0121047
0.0121039
0.0121032
0.0121024
0.0121017
0.0121009
0.0121002
0.0120994
0.0120986
0.0120979
0.0120971
0.0120964
0.0120956
0.0120949
0.0120941
0.0120933
0.0120926
0.0120918
0.0120911
0.0120903
0.0120896
0.0120888
0.0120881
0.0120873
0.0120865
0.0120858
0.012085
0.0120843
0.0120835
0.0120828
0.012082
0.0120812
0.0120805
0.0120797
0.012079
0.0120782
0.0120775
0.0120767
0.012076
0.0120752
0.0120744
0.0120737
0.0120729
0.0120722
0.0120714
0.0120707
0.0120699
0.0120692
0.0120684
0.0120676
0.0120669
0.0120661
0.0120654
0.0120646
0.0120639
0.0120631
0.0120623
0.0120616
0.0120608
0.0120601
0.0120593
0.0120586
0.0120578
0.0120571
0.0120563
0.0120555
0.0120548
0.012054
0.0120533
0.0120525
0.0120518
0.012051
0.0120503
0.0120495
0.0120487
0.012048
0.0120472
0.0120465
0.0120457
0.012045
0.0120442
0.0120434
0.0120427
0.0120419
0.0120412
0.0120404
0.0120397
0.0120389
0.0120382
0.0120374
0.0120366
0.0120359
0.0120351
0.0120344
0.0120336
0.0120329
0.0120321
0.0120314
0.0120306
0.0120298
0.0120291
0.0120283
0.0120276
0.0120268
0.0120261
0.0120253
0.0120245
0.0120238
0.012023
0.0120223
0.0120215
0.0120208
0.01202
0.0120193
0.0120185
0.0120177
0.012017
0.0120162
0.0120155
0.0120147
0.012014
0.0120132
0.0120125
0.0120117
0.0120109
0.0120102
0.0120094
0.0120087
0.0120079
0.0120072
0.0120064
0.0120056
0.0120049
0.0120041
0.0120034
0.0120026
0.0120019
0.0120011
0.0120004
0.0119996
0.0119988
0.0119981
0.0119973
0.0119966
0.0119958
0.0119951
0.0119943
0.0119936
0.0119928
0.011992
0.0119913
0.0119905
0.0119898
0.011989
0.0119883
0.0119875
0.0119867
0.011986
0.0119852
0.0119845
0.0119837
0.011983
0.0119822
0.0119815
0.0119807
0.0119799
0.0119792
0.0119784
0.0119777
0.0119769
0.0119762
0.0119754
0.0119747
0.0119739
0.0119731
0.0119724
0.0119716
0.0119709
0.0119701
0.0119694
0.0119686
0.0119678
0.0119671
0.0119663
0.0119656
0.0119648
0.0119641
0.0119633
0.0119626
0.0119618
0.011961
0.0119603
0.0119595
0.0119588
0.011958
0.0119573
0.0119565
0.0119558
0.011955
0.0119542
0.0119535
0.0119527
0.011952
0.0119512
0.0119505
0.0119497
0.0119489
0.0119482
0.0119474
0.0119467
0.0119459
0.0119452
0.0119444
0.0119437
0.0119429
0.0119421
0.0119414
0.0119406
0.0119399
0.0119391
0.0119384
0.0119376
0.0119369
0.0119361
0.0119353
0.0119346
0.0119338
0.0119331
0.0119323
0.0119316
0.0119308
0.01193
0.0119293
0.0119285
0.0119278
0.011927
0.0119263
0.0119255
0.0119248
0.011924
0.0119232
0.0119225
0.0119217
0.011921
0.0119202
0.0119195
0.0119187
0.011918
0.0119172
0.0119164
0.0119157
0.0119149
0.0119142
0.0119134
0.0119127
0.0119119
0.0119111
0.0119104
0.0119096
0.0119089
0.0119081
0.0119074
0.0119066
0.0119059
0.0119051
0.0119043
0.0119036
0.0119028
0.0119021
0.0119013
0.0119006
0.0118998
0.011899
0.0118983
0.0118975
0.0118968
0.011896
0.0118952
0.0118945
0.0118937
0.0118931
0.0118921
0.0122539
0.0122579
0.0122519
0.0122614
0.0122529
0.0122621
0.0122551
0.012261
0.0122575
0.0122602
0.0122588
0.0122596
0.0122591
0.012259
0.0122587
0.0122583
0.0122579
0.0122574
0.0122569
0.0122564
0.0122558
0.0122551
0.0122545
0.0122538
0.0122531
0.0122523
0.0122516
0.0122508
0.0122501
0.0122493
0.0122485
0.0122477
0.0122469
0.0122461
0.0122453
0.0122445
0.0122437
0.0122429
0.012242
0.0122412
0.0122404
0.0122396
0.0122388
0.012238
0.0122372
0.0122364
0.0122356
0.0122348
0.012234
0.0122332
0.0122324
0.0122316
0.0122308
0.01223
0.0122292
0.0122285
0.0122277
0.0122269
0.0122261
0.0122253
0.0122245
0.0122238
0.012223
0.0122222
0.0122214
0.0122207
0.0122199
0.0122191
0.0122183
0.0122176
0.0122168
0.012216
0.0122153
0.0122145
0.0122137
0.012213
0.0122122
0.0122114
0.0122107
0.0122099
0.0122091
0.0122084
0.0122076
0.0122068
0.0122061
0.0122053
0.0122046
0.0122038
0.012203
0.0122023
0.0122015
0.0122008
0.0122
0.0121992
0.0121985
0.0121977
0.012197
0.0121962
0.0121954
0.0121947
0.0121939
0.0121932
0.0121924
0.0121916
0.0121909
0.0121901
0.0121894
0.0121886
0.0121879
0.0121871
0.0121863
0.0121856
0.0121848
0.0121841
0.0121833
0.0121826
0.0121818
0.0121811
0.0121803
0.0121795
0.0121788
0.012178
0.0121773
0.0121765
0.0121758
0.012175
0.0121742
0.0121735
0.0121727
0.012172
0.0121712
0.0121705
0.0121697
0.0121689
0.0121682
0.0121674
0.0121667
0.0121659
0.0121652
0.0121644
0.0121637
0.0121629
0.0121621
0.0121614
0.0121606
0.0121599
0.0121591
0.0121584
0.0121576
0.0121569
0.0121561
0.0121553
0.0121546
0.0121538
0.0121531
0.0121523
0.0121516
0.0121508
0.01215
0.0121493
0.0121485
0.0121478
0.012147
0.0121463
0.0121455
0.0121448
0.012144
0.0121432
0.0121425
0.0121417
0.012141
0.0121402
0.0121395
0.0121387
0.012138
0.0121372
0.0121364
0.0121357
0.0121349
0.0121342
0.0121334
0.0121327
0.0121319
0.0121311
0.0121304
0.0121296
0.0121289
0.0121281
0.0121274
0.0121266
0.0121259
0.0121251
0.0121243
0.0121236
0.0121228
0.0121221
0.0121213
0.0121206
0.0121198
0.0121191
0.0121183
0.0121175
0.0121168
0.012116
0.0121153
0.0121145
0.0121138
0.012113
0.0121122
0.0121115
0.0121107
0.01211
0.0121092
0.0121085
0.0121077
0.012107
0.0121062
0.0121054
0.0121047
0.0121039
0.0121032
0.0121024
0.0121017
0.0121009
0.0121002
0.0120994
0.0120986
0.0120979
0.0120971
0.0120964
0.0120956
0.0120949
0.0120941
0.0120933
0.0120926
0.0120918
0.0120911
0.0120903
0.0120896
0.0120888
0.0120881
0.0120873
0.0120865
0.0120858
0.012085
0.0120843
0.0120835
0.0120828
0.012082
0.0120812
0.0120805
0.0120797
0.012079
0.0120782
0.0120775
0.0120767
0.012076
0.0120752
0.0120744
0.0120737
0.0120729
0.0120722
0.0120714
0.0120707
0.0120699
0.0120692
0.0120684
0.0120676
0.0120669
0.0120661
0.0120654
0.0120646
0.0120639
0.0120631
0.0120623
0.0120616
0.0120608
0.0120601
0.0120593
0.0120586
0.0120578
0.0120571
0.0120563
0.0120555
0.0120548
0.012054
0.0120533
0.0120525
0.0120518
0.012051
0.0120503
0.0120495
0.0120487
0.012048
0.0120472
0.0120465
0.0120457
0.012045
0.0120442
0.0120434
0.0120427
0.0120419
0.0120412
0.0120404
0.0120397
0.0120389
0.0120382
0.0120374
0.0120366
0.0120359
0.0120351
0.0120344
0.0120336
0.0120329
0.0120321
0.0120314
0.0120306
0.0120298
0.0120291
0.0120283
0.0120276
0.0120268
0.0120261
0.0120253
0.0120245
0.0120238
0.012023
0.0120223
0.0120215
0.0120208
0.01202
0.0120193
0.0120185
0.0120177
0.012017
0.0120162
0.0120155
0.0120147
0.012014
0.0120132
0.0120125
0.0120117
0.0120109
0.0120102
0.0120094
0.0120087
0.0120079
0.0120072
0.0120064
0.0120056
0.0120049
0.0120041
0.0120034
0.0120026
0.0120019
0.0120011
0.0120004
0.0119996
0.0119988
0.0119981
0.0119973
0.0119966
0.0119958
0.0119951
0.0119943
0.0119936
0.0119928
0.011992
0.0119913
0.0119905
0.0119898
0.011989
0.0119883
0.0119875
0.0119867
0.011986
0.0119852
0.0119845
0.0119837
0.011983
0.0119822
0.0119815
0.0119807
0.0119799
0.0119792
0.0119784
0.0119777
0.0119769
0.0119762
0.0119754
0.0119747
0.0119739
0.0119731
0.0119724
0.0119716
0.0119709
0.0119701
0.0119694
0.0119686
0.0119678
0.0119671
0.0119663
0.0119656
0.0119648
0.0119641
0.0119633
0.0119626
0.0119618
0.011961
0.0119603
0.0119595
0.0119588
0.011958
0.0119573
0.0119565
0.0119558
0.011955
0.0119542
0.0119535
0.0119527
0.011952
0.0119512
0.0119505
0.0119497
0.0119489
0.0119482
0.0119474
0.0119467
0.0119459
0.0119452
0.0119444
0.0119437
0.0119429
0.0119421
0.0119414
0.0119406
0.0119399
0.0119391
0.0119384
0.0119376
0.0119369
0.0119361
0.0119353
0.0119346
0.0119338
0.0119331
0.0119323
0.0119316
0.0119308
0.01193
0.0119293
0.0119285
0.0119278
0.011927
0.0119263
0.0119255
0.0119248
0.011924
0.0119232
0.0119225
0.0119217
0.011921
0.0119202
0.0119195
0.0119187
0.011918
0.0119172
0.0119164
0.0119157
0.0119149
0.0119142
0.0119134
0.0119127
0.0119119
0.0119111
0.0119104
0.0119096
0.0119089
0.0119081
0.0119074
0.0119066
0.0119059
0.0119051
0.0119043
0.0119036
0.0119028
0.0119021
0.0119013
0.0119006
0.0118998
0.011899
0.0118983
0.0118975
0.0118968
0.011896
0.0118952
0.0118945
0.0118937
0.0118931
0.0118921
0.0122536
0.0122572
0.0122512
0.0122609
0.0122523
0.0122617
0.0122546
0.0122606
0.0122571
0.0122598
0.0122583
0.0122591
0.0122586
0.0122585
0.0122582
0.0122579
0.0122575
0.0122571
0.0122566
0.012256
0.0122555
0.0122548
0.0122542
0.0122535
0.0122528
0.0122521
0.0122514
0.0122506
0.0122499
0.0122491
0.0122483
0.0122476
0.0122468
0.012246
0.0122452
0.0122444
0.0122436
0.0122428
0.012242
0.0122412
0.0122404
0.0122396
0.0122388
0.012238
0.0122372
0.0122364
0.0122356
0.0122348
0.012234
0.0122332
0.0122324
0.0122316
0.0122308
0.01223
0.0122292
0.0122284
0.0122276
0.0122269
0.0122261
0.0122253
0.0122245
0.0122237
0.012223
0.0122222
0.0122214
0.0122206
0.0122199
0.0122191
0.0122183
0.0122176
0.0122168
0.012216
0.0122152
0.0122145
0.0122137
0.0122129
0.0122122
0.0122114
0.0122106
0.0122099
0.0122091
0.0122084
0.0122076
0.0122068
0.0122061
0.0122053
0.0122046
0.0122038
0.012203
0.0122023
0.0122015
0.0122007
0.0122
0.0121992
0.0121985
0.0121977
0.012197
0.0121962
0.0121954
0.0121947
0.0121939
0.0121932
0.0121924
0.0121916
0.0121909
0.0121901
0.0121894
0.0121886
0.0121879
0.0121871
0.0121863
0.0121856
0.0121848
0.0121841
0.0121833
0.0121826
0.0121818
0.0121811
0.0121803
0.0121795
0.0121788
0.012178
0.0121773
0.0121765
0.0121758
0.012175
0.0121742
0.0121735
0.0121727
0.012172
0.0121712
0.0121705
0.0121697
0.0121689
0.0121682
0.0121674
0.0121667
0.0121659
0.0121652
0.0121644
0.0121637
0.0121629
0.0121621
0.0121614
0.0121606
0.0121599
0.0121591
0.0121584
0.0121576
0.0121569
0.0121561
0.0121553
0.0121546
0.0121538
0.0121531
0.0121523
0.0121516
0.0121508
0.01215
0.0121493
0.0121485
0.0121478
0.012147
0.0121463
0.0121455
0.0121448
0.012144
0.0121432
0.0121425
0.0121417
0.012141
0.0121402
0.0121395
0.0121387
0.012138
0.0121372
0.0121364
0.0121357
0.0121349
0.0121342
0.0121334
0.0121327
0.0121319
0.0121311
0.0121304
0.0121296
0.0121289
0.0121281
0.0121274
0.0121266
0.0121259
0.0121251
0.0121243
0.0121236
0.0121228
0.0121221
0.0121213
0.0121206
0.0121198
0.0121191
0.0121183
0.0121175
0.0121168
0.012116
0.0121153
0.0121145
0.0121138
0.012113
0.0121122
0.0121115
0.0121107
0.01211
0.0121092
0.0121085
0.0121077
0.012107
0.0121062
0.0121054
0.0121047
0.0121039
0.0121032
0.0121024
0.0121017
0.0121009
0.0121002
0.0120994
0.0120986
0.0120979
0.0120971
0.0120964
0.0120956
0.0120949
0.0120941
0.0120933
0.0120926
0.0120918
0.0120911
0.0120903
0.0120896
0.0120888
0.0120881
0.0120873
0.0120865
0.0120858
0.012085
0.0120843
0.0120835
0.0120828
0.012082
0.0120812
0.0120805
0.0120797
0.012079
0.0120782
0.0120775
0.0120767
0.012076
0.0120752
0.0120744
0.0120737
0.0120729
0.0120722
0.0120714
0.0120707
0.0120699
0.0120692
0.0120684
0.0120676
0.0120669
0.0120661
0.0120654
0.0120646
0.0120639
0.0120631
0.0120623
0.0120616
0.0120608
0.0120601
0.0120593
0.0120586
0.0120578
0.0120571
0.0120563
0.0120555
0.0120548
0.012054
0.0120533
0.0120525
0.0120518
0.012051
0.0120503
0.0120495
0.0120487
0.012048
0.0120472
0.0120465
0.0120457
0.012045
0.0120442
0.0120434
0.0120427
0.0120419
0.0120412
0.0120404
0.0120397
0.0120389
0.0120382
0.0120374
0.0120366
0.0120359
0.0120351
0.0120344
0.0120336
0.0120329
0.0120321
0.0120314
0.0120306
0.0120298
0.0120291
0.0120283
0.0120276
0.0120268
0.0120261
0.0120253
0.0120245
0.0120238
0.012023
0.0120223
0.0120215
0.0120208
0.01202
0.0120193
0.0120185
0.0120177
0.012017
0.0120162
0.0120155
0.0120147
0.012014
0.0120132
0.0120125
0.0120117
0.0120109
0.0120102
0.0120094
0.0120087
0.0120079
0.0120072
0.0120064
0.0120056
0.0120049
0.0120041
0.0120034
0.0120026
0.0120019
0.0120011
0.0120004
0.0119996
0.0119988
0.0119981
0.0119973
0.0119966
0.0119958
0.0119951
0.0119943
0.0119936
0.0119928
0.011992
0.0119913
0.0119905
0.0119898
0.011989
0.0119883
0.0119875
0.0119867
0.011986
0.0119852
0.0119845
0.0119837
0.011983
0.0119822
0.0119815
0.0119807
0.0119799
0.0119792
0.0119784
0.0119777
0.0119769
0.0119762
0.0119754
0.0119747
0.0119739
0.0119731
0.0119724
0.0119716
0.0119709
0.0119701
0.0119694
0.0119686
0.0119678
0.0119671
0.0119663
0.0119656
0.0119648
0.0119641
0.0119633
0.0119626
0.0119618
0.011961
0.0119603
0.0119595
0.0119588
0.011958
0.0119573
0.0119565
0.0119558
0.011955
0.0119542
0.0119535
0.0119527
0.011952
0.0119512
0.0119505
0.0119497
0.0119489
0.0119482
0.0119474
0.0119467
0.0119459
0.0119452
0.0119444
0.0119437
0.0119429
0.0119421
0.0119414
0.0119406
0.0119399
0.0119391
0.0119384
0.0119376
0.0119369
0.0119361
0.0119353
0.0119346
0.0119338
0.0119331
0.0119323
0.0119316
0.0119308
0.01193
0.0119293
0.0119285
0.0119278
0.011927
0.0119263
0.0119255
0.0119248
0.011924
0.0119232
0.0119225
0.0119217
0.011921
0.0119202
0.0119195
0.0119187
0.011918
0.0119172
0.0119164
0.0119157
0.0119149
0.0119142
0.0119134
0.0119127
0.0119119
0.0119111
0.0119104
0.0119096
0.0119089
0.0119081
0.0119074
0.0119066
0.0119059
0.0119051
0.0119043
0.0119036
0.0119028
0.0119021
0.0119013
0.0119006
0.0118998
0.011899
0.0118983
0.0118975
0.0118968
0.011896
0.0118953
0.0118945
0.0118937
0.0118931
0.0118922
0.0122521
0.0122555
0.0122496
0.0122594
0.0122509
0.0122604
0.0122534
0.0122596
0.0122562
0.012259
0.0122577
0.0122585
0.0122582
0.0122581
0.0122579
0.0122576
0.0122572
0.0122568
0.0122563
0.0122558
0.0122552
0.0122546
0.012254
0.0122533
0.0122527
0.012252
0.0122512
0.0122505
0.0122497
0.012249
0.0122482
0.0122474
0.0122467
0.0122459
0.0122451
0.0122443
0.0122435
0.0122427
0.0122419
0.0122411
0.0122403
0.0122395
0.0122387
0.0122379
0.0122371
0.0122363
0.0122355
0.0122347
0.0122339
0.0122331
0.0122323
0.0122315
0.0122308
0.01223
0.0122292
0.0122284
0.0122276
0.0122268
0.0122261
0.0122253
0.0122245
0.0122237
0.0122229
0.0122222
0.0122214
0.0122206
0.0122199
0.0122191
0.0122183
0.0122175
0.0122168
0.012216
0.0122152
0.0122145
0.0122137
0.0122129
0.0122122
0.0122114
0.0122106
0.0122099
0.0122091
0.0122084
0.0122076
0.0122068
0.0122061
0.0122053
0.0122045
0.0122038
0.012203
0.0122023
0.0122015
0.0122007
0.0122
0.0121992
0.0121985
0.0121977
0.012197
0.0121962
0.0121954
0.0121947
0.0121939
0.0121932
0.0121924
0.0121916
0.0121909
0.0121901
0.0121894
0.0121886
0.0121879
0.0121871
0.0121863
0.0121856
0.0121848
0.0121841
0.0121833
0.0121826
0.0121818
0.012181
0.0121803
0.0121795
0.0121788
0.012178
0.0121773
0.0121765
0.0121758
0.012175
0.0121742
0.0121735
0.0121727
0.012172
0.0121712
0.0121705
0.0121697
0.0121689
0.0121682
0.0121674
0.0121667
0.0121659
0.0121652
0.0121644
0.0121637
0.0121629
0.0121621
0.0121614
0.0121606
0.0121599
0.0121591
0.0121584
0.0121576
0.0121569
0.0121561
0.0121553
0.0121546
0.0121538
0.0121531
0.0121523
0.0121516
0.0121508
0.01215
0.0121493
0.0121485
0.0121478
0.012147
0.0121463
0.0121455
0.0121448
0.012144
0.0121432
0.0121425
0.0121417
0.012141
0.0121402
0.0121395
0.0121387
0.012138
0.0121372
0.0121364
0.0121357
0.0121349
0.0121342
0.0121334
0.0121327
0.0121319
0.0121311
0.0121304
0.0121296
0.0121289
0.0121281
0.0121274
0.0121266
0.0121259
0.0121251
0.0121243
0.0121236
0.0121228
0.0121221
0.0121213
0.0121206
0.0121198
0.0121191
0.0121183
0.0121175
0.0121168
0.012116
0.0121153
0.0121145
0.0121138
0.012113
0.0121122
0.0121115
0.0121107
0.01211
0.0121092
0.0121085
0.0121077
0.012107
0.0121062
0.0121054
0.0121047
0.0121039
0.0121032
0.0121024
0.0121017
0.0121009
0.0121002
0.0120994
0.0120986
0.0120979
0.0120971
0.0120964
0.0120956
0.0120949
0.0120941
0.0120933
0.0120926
0.0120918
0.0120911
0.0120903
0.0120896
0.0120888
0.0120881
0.0120873
0.0120865
0.0120858
0.012085
0.0120843
0.0120835
0.0120828
0.012082
0.0120812
0.0120805
0.0120797
0.012079
0.0120782
0.0120775
0.0120767
0.012076
0.0120752
0.0120744
0.0120737
0.0120729
0.0120722
0.0120714
0.0120707
0.0120699
0.0120692
0.0120684
0.0120676
0.0120669
0.0120661
0.0120654
0.0120646
0.0120639
0.0120631
0.0120623
0.0120616
0.0120608
0.0120601
0.0120593
0.0120586
0.0120578
0.0120571
0.0120563
0.0120555
0.0120548
0.012054
0.0120533
0.0120525
0.0120518
0.012051
0.0120503
0.0120495
0.0120487
0.012048
0.0120472
0.0120465
0.0120457
0.012045
0.0120442
0.0120434
0.0120427
0.0120419
0.0120412
0.0120404
0.0120397
0.0120389
0.0120382
0.0120374
0.0120366
0.0120359
0.0120351
0.0120344
0.0120336
0.0120329
0.0120321
0.0120314
0.0120306
0.0120298
0.0120291
0.0120283
0.0120276
0.0120268
0.0120261
0.0120253
0.0120245
0.0120238
0.012023
0.0120223
0.0120215
0.0120208
0.01202
0.0120193
0.0120185
0.0120177
0.012017
0.0120162
0.0120155
0.0120147
0.012014
0.0120132
0.0120125
0.0120117
0.0120109
0.0120102
0.0120094
0.0120087
0.0120079
0.0120072
0.0120064
0.0120056
0.0120049
0.0120041
0.0120034
0.0120026
0.0120019
0.0120011
0.0120004
0.0119996
0.0119988
0.0119981
0.0119973
0.0119966
0.0119958
0.0119951
0.0119943
0.0119936
0.0119928
0.011992
0.0119913
0.0119905
0.0119898
0.011989
0.0119883
0.0119875
0.0119867
0.011986
0.0119852
0.0119845
0.0119837
0.011983
0.0119822
0.0119815
0.0119807
0.0119799
0.0119792
0.0119784
0.0119777
0.0119769
0.0119762
0.0119754
0.0119747
0.0119739
0.0119731
0.0119724
0.0119716
0.0119709
0.0119701
0.0119694
0.0119686
0.0119678
0.0119671
0.0119663
0.0119656
0.0119648
0.0119641
0.0119633
0.0119626
0.0119618
0.011961
0.0119603
0.0119595
0.0119588
0.011958
0.0119573
0.0119565
0.0119558
0.011955
0.0119542
0.0119535
0.0119527
0.011952
0.0119512
0.0119505
0.0119497
0.0119489
0.0119482
0.0119474
0.0119467
0.0119459
0.0119452
0.0119444
0.0119437
0.0119429
0.0119421
0.0119414
0.0119406
0.0119399
0.0119391
0.0119384
0.0119376
0.0119369
0.0119361
0.0119353
0.0119346
0.0119338
0.0119331
0.0119323