/*--------------------------------*- C++ -*----------------------------------*\
| =========                 |                                                 |
| \\      /  F ield         | OpenFOAM: The Open Source CFD Toolbox           |
|  \\    /   O peration     | Version:  2012                                  |
|   \\  /    A nd           | Website:  www.openfoam.com                      |
|    \\/     M anipulation  |                                                 |
\*---------------------------------------------------------------------------*/
FoamFile
{
    version     2.0;
    format      ascii;
    class       volVectorField;
    location    "0.7";
    object      U;
}
// * * * * * * * * * * * * * * * * * * * * * * * * * * * * * * * * * * * * * //

dimensions      [0 1 -1 0 0 0 0];


internalField   nonuniform List<vector> 
20400
(
(0.00385808 -0.000745731 0)
(-0.00129289 -0.00042755 0)
(0.00628619 0.000272093 0)
(0.00230301 -0.000512986 0)
(0.00828537 0.000158053 0)
(0.00658949 -0.00025618 0)
(0.0103704 9.24405e-05 0)
(0.0104324 -6.686e-05 0)
(0.012787 3.72298e-05 0)
(0.0134429 -1.28679e-05 0)
(0.0151497 2.0747e-05 0)
(0.016048 -2.18034e-06 0)
(0.0173767 -3.44969e-06 0)
(0.0183142 -1.08827e-05 0)
(0.0193834 -1.63577e-05 0)
(0.0202777 -2.34675e-05 0)
(0.0211585 -2.68767e-05 0)
(0.0219675 -3.07683e-05 0)
(0.0227215 -3.39521e-05 0)
(0.0234204 -3.6583e-05 0)
(0.0240679 -3.86011e-05 0)
(0.0246671 -3.99843e-05 0)
(0.0252211 -4.08054e-05 0)
(0.0257331 -4.12065e-05 0)
(0.0262057 -4.12966e-05 0)
(0.0266419 -4.11244e-05 0)
(0.0270442 -4.05841e-05 0)
(0.0274151 -3.97399e-05 0)
(0.0277569 -3.84612e-05 0)
(0.0280721 -3.67371e-05 0)
(0.0283627 -3.48474e-05 0)
(0.0286306 -3.28998e-05 0)
(0.0288775 -3.09977e-05 0)
(0.029105 -2.90948e-05 0)
(0.0293146 -2.7235e-05 0)
(0.0295079 -2.54097e-05 0)
(0.0296857 -2.36444e-05 0)
(0.02985 -2.19709e-05 0)
(0.0300011 -2.0434e-05 0)
(0.0301404 -1.89151e-05 0)
(0.030269 -1.73526e-05 0)
(0.0303869 -1.59369e-05 0)
(0.0304964 -1.44745e-05 0)
(0.0305964 -1.30603e-05 0)
(0.0306896 -1.1711e-05 0)
(0.0307744 -1.0396e-05 0)
(0.0308537 -9.20225e-06 0)
(0.0309258 -8.04106e-06 0)
(0.0309932 -7.01622e-06 0)
(0.0310545 -6.05517e-06 0)
(0.0311116 -5.24519e-06 0)
(0.0311641 -4.49984e-06 0)
(0.0312121 -3.85402e-06 0)
(0.0312571 -3.26938e-06 0)
(0.0312977 -2.76355e-06 0)
(0.0313361 -2.35288e-06 0)
(0.0313705 -1.94951e-06 0)
(0.0314033 -1.64762e-06 0)
(0.0314325 -1.35493e-06 0)
(0.0314603 -1.16217e-06 0)
(0.0314853 -9.66902e-07 0)
(0.0315087 -8.30429e-07 0)
(0.0315303 -7.25852e-07 0)
(0.03155 -6.29593e-07 0)
(0.0315685 -5.55863e-07 0)
(0.0315852 -4.91004e-07 0)
(0.0316009 -4.49172e-07 0)
(0.0316153 -4.0993e-07 0)
(0.0316284 -4.01631e-07 0)
(0.0316408 -3.6457e-07 0)
(0.0316518 -3.74409e-07 0)
(0.0316625 -3.25535e-07 0)
(0.0316718 -3.5634e-07 0)
(0.0316809 -3.47774e-07 0)
(0.0316888 -3.35772e-07 0)
(0.0316965 -3.10193e-07 0)
(0.0317032 -3.07735e-07 0)
(0.0317098 -2.983e-07 0)
(0.0317155 -2.97845e-07 0)
(0.0317211 -2.97981e-07 0)
(0.031726 -3.00544e-07 0)
(0.0317308 -2.9086e-07 0)
(0.0317349 -3.07e-07 0)
(0.0317389 -2.80299e-07 0)
(0.0317425 -3.00754e-07 0)
(0.0317458 -2.6029e-07 0)
(0.031749 -2.86906e-07 0)
(0.0317518 -2.3998e-07 0)
(0.0317545 -2.66142e-07 0)
(0.0317568 -2.15803e-07 0)
(0.0317591 -2.26832e-07 0)
(0.0317611 -2.0567e-07 0)
(0.0317631 -1.84228e-07 0)
(0.0317648 -1.93919e-07 0)
(0.0317665 -1.90855e-07 0)
(0.0317679 -1.63993e-07 0)
(0.0317694 -1.75609e-07 0)
(0.0317706 -1.46513e-07 0)
(0.0317718 -1.50702e-07 0)
(0.0317729 -1.38305e-07 0)
(0.0317739 -1.2851e-07 0)
(0.0317748 -1.17389e-07 0)
(0.0317757 -1.18835e-07 0)
(0.0317764 -9.41294e-08 0)
(0.0317772 -1.08948e-07 0)
(0.0317778 -7.67646e-08 0)
(0.0317785 -9.64967e-08 0)
(0.0317791 -6.18326e-08 0)
(0.0317796 -7.97747e-08 0)
(0.0317801 -7.56365e-08 0)
(0.0317806 -6.27557e-08 0)
(0.031781 -7.63575e-08 0)
(0.0317814 -4.47468e-08 0)
(0.0317818 -4.41067e-08 0)
(0.0317821 -4.97937e-08 0)
(0.0317824 -2.69097e-08 0)
(0.0317827 -4.71018e-08 0)
(0.031783 -3.22859e-08 0)
(0.0317833 -5.23555e-09 0)
(0.0317834 -2.1076e-08 0)
(0.0317837 -2.48392e-09 0)
(0.0317839 8.91491e-09 0)
(0.0317842 -1.96045e-08 0)
(0.0317842 -3.25628e-08 0)
(0.0317845 2.19596e-09 0)
(0.0317846 -1.39215e-08 0)
(0.0317848 -2.44644e-08 0)
(0.031785 -1.01538e-08 0)
(0.0317851 -4.55062e-08 0)
(0.0317852 1.04354e-08 0)
(0.0317854 8.75638e-09 0)
(0.0317854 -1.2097e-09 0)
(0.0317855 3.02677e-09 0)
(0.0317856 -6.72671e-09 0)
(0.0317857 -5.32189e-09 0)
(0.0317857 3.64871e-09 0)
(0.0317858 1.07698e-08 0)
(0.0317859 -1.85723e-08 0)
(0.031786 -2.58821e-08 0)
(0.031786 -3.13196e-08 0)
(0.0317861 1.01242e-09 0)
(0.0317861 -1.56449e-08 0)
(0.0317862 -7.96676e-09 0)
(0.0317863 -1.4918e-08 0)
(0.0317863 -4.54916e-08 0)
(0.0317864 -3.28498e-08 0)
(0.0317865 -3.73173e-08 0)
(0.0317866 -2.92623e-08 0)
(0.0317866 6.29914e-10 0)
(0.0317866 -1.32121e-08 0)
(0.0317866 -1.09495e-08 0)
(0.0317867 -1.02899e-08 0)
(0.0317867 9.8212e-09 0)
(0.0317867 1.1501e-08 0)
(0.0317867 -1.59068e-08 0)
(0.0317868 1.78408e-08 0)
(0.0317868 -3.05511e-08 0)
(0.0317869 -2.2243e-08 0)
(0.0317869 -7.23227e-08 0)
(0.0317869 -6.92096e-08 0)
(0.0317869 -5.50719e-08 0)
(0.0317869 -6.05611e-08 0)
(0.0317869 -4.11411e-08 0)
(0.031787 -6.87713e-08 0)
(0.031787 1.23104e-08 0)
(0.031787 2.43655e-08 0)
(0.0317871 2.50795e-08 0)
(0.031787 -5.0002e-09 0)
(0.0317871 -6.421e-08 0)
(0.0317871 4.02627e-09 0)
(0.0317871 -8.65364e-09 0)
(0.0317872 -1.02631e-08 0)
(0.0317872 -2.93808e-08 0)
(0.0317872 -9.47571e-09 0)
(0.0317872 -1.30896e-08 0)
(0.0317872 8.80371e-09 0)
(0.0317872 1.51887e-08 0)
(0.0317872 1.05704e-08 0)
(0.0317872 -6.88829e-09 0)
(0.0317872 1.0218e-08 0)
(0.0317872 9.29623e-09 0)
(0.0317873 -3.31285e-09 0)
(0.0317872 -2.36592e-08 0)
(0.0317873 -5.02299e-08 0)
(0.0317873 -7.584e-08 0)
(0.0317873 -2.81335e-08 0)
(0.0317872 -2.94028e-08 0)
(0.0317874 -3.70269e-08 0)
(0.0317873 -2.43693e-08 0)
(0.0317874 -3.37849e-08 0)
(0.0317874 2.30574e-09 0)
(0.0317875 -8.75581e-10 0)
(0.0317875 -4.18607e-09 0)
(0.0317875 1.93583e-08 0)
(0.0317875 -9.96399e-10 0)
(0.0317876 -1.56546e-08 0)
(0.0317876 -1.92847e-08 0)
(0.0317876 -1.34197e-08 0)
(0.0317876 -2.57291e-08 0)
(0.0317876 1.59945e-08 0)
(0.0317876 5.74531e-09 0)
(0.0317877 -8.63666e-09 0)
(0.0317876 3.62635e-08 0)
(0.0317876 -8.50078e-10 0)
(0.0317876 -3.01309e-08 0)
(0.0317876 -4.27844e-08 0)
(0.0317876 -2.32757e-08 0)
(0.0317876 3.02391e-08 0)
(0.0317877 -4.74727e-09 0)
(0.0317877 3.17056e-08 0)
(0.0317877 -4.22253e-10 0)
(0.0317877 -3.97182e-09 0)
(0.0317876 -2.7872e-08 0)
(0.0317877 -3.61726e-08 0)
(0.0317877 -2.78741e-08 0)
(0.0317878 -2.84635e-08 0)
(0.0317878 -4.31691e-09 0)
(0.0317878 1.44119e-08 0)
(0.0317877 3.98699e-08 0)
(0.0317877 3.24188e-08 0)
(0.0317877 3.67768e-09 0)
(0.0317878 1.9769e-08 0)
(0.0317878 4.46582e-08 0)
(0.0317878 3.32204e-08 0)
(0.0317878 2.35002e-08 0)
(0.0317878 -5.80305e-10 0)
(0.0317878 -9.81327e-09 0)
(0.0317878 3.79341e-08 0)
(0.0317878 2.65872e-08 0)
(0.0317879 5.23196e-08 0)
(0.0317879 3.52224e-08 0)
(0.0317879 6.67663e-08 0)
(0.0317879 3.95232e-08 0)
(0.0317878 -9.44755e-09 0)
(0.0317879 1.15103e-08 0)
(0.0317879 -1.58236e-09 0)
(0.0317879 -3.18672e-08 0)
(0.0317879 4.22371e-09 0)
(0.0317879 4.16988e-09 0)
(0.031788 5.71256e-09 0)
(0.0317879 1.73385e-08 0)
(0.0317881 1.1564e-08 0)
(0.031788 1.86193e-08 0)
(0.0317881 4.39897e-08 0)
(0.0317881 1.53538e-08 0)
(0.0317881 2.25176e-08 0)
(0.0317881 9.1978e-10 0)
(0.0317881 1.10994e-08 0)
(0.0317881 -4.01253e-09 0)
(0.0317881 -3.32154e-08 0)
(0.0317881 -2.0569e-08 0)
(0.0317882 -7.77137e-09 0)
(0.0317881 -1.7469e-08 0)
(0.0317882 -6.25714e-09 0)
(0.0317881 -1.04231e-08 0)
(0.0317881 1.20328e-08 0)
(0.0317881 2.58717e-09 0)
(0.0317881 -2.08334e-09 0)
(0.0317881 2.29304e-08 0)
(0.0317881 1.40941e-08 0)
(0.0317882 6.02857e-08 0)
(0.0317881 7.16433e-08 0)
(0.0317882 7.25495e-08 0)
(0.0317882 7.26155e-08 0)
(0.0317882 2.35102e-08 0)
(0.0317882 5.6259e-08 0)
(0.0317883 5.17767e-08 0)
(0.0317883 4.22929e-08 0)
(0.0317883 3.97229e-08 0)
(0.0317883 1.00236e-08 0)
(0.0317883 -1.81618e-09 0)
(0.0317883 -2.47719e-08 0)
(0.0317883 -7.8565e-09 0)
(0.0317883 -1.95676e-08 0)
(0.0317883 -4.6799e-08 0)
(0.0317883 -3.99431e-08 0)
(0.0317882 -3.17741e-08 0)
(0.0317883 2.1023e-08 0)
(0.0317883 1.44163e-08 0)
(0.0317883 4.11597e-08 0)
(0.0317883 5.88471e-08 0)
(0.0317884 6.17461e-08 0)
(0.0317884 2.88066e-08 0)
(0.0317884 3.54315e-08 0)
(0.0317884 1.12339e-08 0)
(0.0317884 1.91072e-08 0)
(0.0317884 -3.72577e-09 0)
(0.0317885 -3.22205e-08 0)
(0.0317884 -1.69922e-08 0)
(0.0317884 -5.50265e-09 0)
(0.0317884 1.39032e-08 0)
(0.0317884 6.04485e-08 0)
(0.0317884 3.79855e-08 0)
(0.0317884 2.27032e-08 0)
(0.0317885 -5.60939e-09 0)
(0.0317884 1.17426e-08 0)
(0.0317885 2.33249e-08 0)
(0.0317884 4.64167e-08 0)
(0.0317885 2.16439e-08 0)
(0.0317885 3.80303e-08 0)
(0.0317886 2.84692e-08 0)
(0.0317885 4.47635e-08 0)
(0.0317886 4.56788e-08 0)
(0.0317885 6.8985e-08 0)
(0.0317885 6.43221e-08 0)
(0.0317885 3.16885e-08 0)
(0.0317886 6.42706e-08 0)
(0.0317885 5.90034e-08 0)
(0.0317885 2.78599e-08 0)
(0.0317886 -3.02231e-09 0)
(0.0317885 -7.15491e-08 0)
(0.0317886 -3.63569e-08 0)
(0.0317886 -8.21367e-08 0)
(0.0317886 -4.69316e-08 0)
(0.0317886 -4.75549e-08 0)
(0.0317886 -6.70289e-09 0)
(0.0317887 -4.44118e-09 0)
(0.0317887 -4.27024e-08 0)
(0.0317887 -2.73657e-08 0)
(0.0317887 -2.79776e-08 0)
(0.0317888 -4.44372e-08 0)
(0.0317888 -6.23838e-08 0)
(0.0317888 -7.39417e-08 0)
(0.0317887 -2.83906e-08 0)
(0.0317888 -2.55853e-08 0)
(0.0317888 -2.37701e-08 0)
(0.0317888 -5.47101e-08 0)
(0.0317888 -4.31059e-08 0)
(0.0317888 -2.08746e-08 0)
(0.0317888 -3.58985e-09 0)
(0.0317888 1.51784e-08 0)
(0.0317888 2.27026e-08 0)
(0.0317889 9.55715e-09 0)
(0.0317888 1.28446e-08 0)
(0.0317888 -1.44818e-08 0)
(0.0317888 -9.92523e-10 0)
(0.0317888 -3.44542e-08 0)
(0.0317887 -6.92326e-08 0)
(0.0317887 -2.54329e-08 0)
(0.0317887 4.15244e-08 0)
(0.0317888 -7.34797e-08 0)
(0.0317888 -7.75054e-08 0)
(0.0317889 -1.28579e-07 0)
(0.0317888 -1.24182e-07 0)
(0.0317888 -9.74003e-08 0)
(0.0317888 -1.03084e-07 0)
(0.0317888 -1.01569e-07 0)
(0.0317888 -4.22061e-08 0)
(0.0317889 -6.94248e-08 0)
(0.0317888 -1.05713e-07 0)
(0.0317888 -5.86523e-08 0)
(0.0317889 -1.33442e-07 0)
(0.031789 -7.39229e-08 0)
(0.0317888 -1.0362e-07 0)
(0.031789 -5.6831e-08 0)
(0.031789 -3.84938e-08 0)
(0.0317891 -3.40174e-08 0)
(0.031789 -1.31573e-07 0)
(0.0317891 -1.23942e-07 0)
(0.031789 -9.61342e-08 0)
(0.0317892 -1.26607e-07 0)
(0.031789 -6.31628e-08 0)
(0.0317892 -7.96167e-08 0)
(0.031789 3.28646e-08 0)
(0.0317893 1.6074e-08 0)
(0.031789 1.02553e-07 0)
(0.0317892 5.62762e-08 0)
(0.031789 2.5668e-08 0)
(0.0317892 1.55874e-09 0)
(0.031789 1.23881e-08 0)
(0.031789 -7.7364e-08 0)
(0.0317891 -1.14026e-07 0)
(0.031789 -8.45107e-08 0)
(0.0317891 -3.33257e-08 0)
(0.031789 1.57637e-08 0)
(0.0317892 -3.68468e-08 0)
(0.0317889 1.05006e-07 0)
(0.0317893 7.92978e-08 0)
(0.031789 1.17157e-07 0)
(0.0317894 7.23775e-08 0)
(0.031789 7.76632e-08 0)
(0.0317893 7.86215e-08 0)
(0.0317891 7.88342e-08 0)
(0.0317893 9.58509e-08 0)
(0.0317892 5.01764e-08 0)
(0.0317892 2.15444e-08 0)
(0.0317892 -1.03109e-08 0)
(0.0317892 2.57325e-08 0)
(0.0317892 -1.06131e-08 0)
(0.0317891 3.86346e-08 0)
(0.0317892 2.6857e-08 0)
(0.0317892 8.16392e-08 0)
(0.0317893 3.08215e-08 0)
(0.0317892 -6.01618e-08 0)
(0.0317893 -2.66886e-10 0)
(0.0317891 1.1932e-08 0)
(0.0317894 5.63705e-08 0)
(0.0317892 3.58823e-08 0)
(0.0317894 2.09469e-08 0)
(0.0317892 -1.46107e-08 0)
(0.0317893 3.32079e-08 0)
(0.0317892 9.09204e-09 0)
(0.0317892 1.66229e-08 0)
(0.0317892 3.67707e-08 0)
(0.0317893 3.20096e-08 0)
(0.0317892 -1.68096e-08 0)
(0.0317893 -1.63545e-08 0)
(0.0317892 -1.5238e-08 0)
(0.0317892 -4.17937e-08 0)
(0.0317891 -1.10223e-08 0)
(0.0317893 -3.36335e-08 0)
(0.0317892 2.34129e-08 0)
(0.0317894 2.81833e-08 0)
(0.0317892 2.01705e-08 0)
(0.0317895 4.68426e-08 0)
(0.0317893 1.81574e-08 0)
(0.0317895 -7.83183e-08 0)
(0.0317893 -4.79332e-08 0)
(0.0317894 -4.75477e-08 0)
(0.0317893 8.46378e-08 0)
(0.0317895 6.28347e-08 0)
(0.0317893 3.02352e-08 0)
(0.0317895 2.37019e-08 0)
(0.0317893 4.27404e-08 0)
(0.0317894 2.43362e-08 0)
(0.0317894 3.40823e-08 0)
(0.0317894 7.88016e-08 0)
(0.0317893 6.45295e-08 0)
(0.0317892 7.66028e-08 0)
(0.0317893 9.74838e-08 0)
(0.0317893 1.26144e-07 0)
(0.0317895 1.57042e-07 0)
(0.0317893 1.45758e-07 0)
(0.0317895 1.77349e-07 0)
(0.0317893 1.13532e-07 0)
(0.0317895 1.76257e-07 0)
(0.0317893 1.44361e-07 0)
(0.0317894 2.10126e-07 0)
(0.0317893 1.73448e-07 0)
(0.0317895 1.63058e-07 0)
(0.0317894 9.10229e-08 0)
(0.0317894 5.98212e-08 0)
(0.0317894 -5.05761e-08 0)
(0.0317893 -3.74867e-08 0)
(0.0317893 -9.30997e-09 0)
(0.0317893 -2.43915e-08 0)
(0.0317893 7.32358e-08 0)
(0.0317893 5.00932e-08 0)
(0.0317893 5.035e-08 0)
(0.0317893 3.02995e-08 0)
(0.0317894 -5.26846e-09 0)
(0.0317893 -5.34501e-08 0)
(0.0317893 -1.50274e-07 0)
(0.0317892 -8.83105e-08 0)
(0.0317893 -9.20412e-08 0)
(0.0317892 -2.4522e-09 0)
(0.0317893 4.44876e-08 0)
(0.0317893 1.11735e-07 0)
(0.0317893 8.23241e-08 0)
(0.0317893 7.73041e-08 0)
(0.0317893 5.82006e-08 0)
(0.0317893 5.31035e-08 0)
(0.0317893 -3.88548e-08 0)
(0.0317892 -3.27853e-08 0)
(0.0317893 -3.76264e-08 0)
(0.0317893 -6.91893e-08 0)
(0.0317893 -5.95627e-08 0)
(0.0317894 -6.52127e-08 0)
(0.0317894 -3.11014e-08 0)
(0.0317894 -2.7456e-08 0)
(0.0317894 2.31378e-08 0)
(0.0317895 1.2876e-08 0)
(0.0317894 5.38152e-08 0)
(0.0317894 -1.60973e-08 0)
(0.0317894 1.42013e-08 0)
(0.0317895 -1.29109e-08 0)
(0.0317894 2.05714e-09 0)
(0.0317895 -2.30384e-08 0)
(0.0317894 -2.29406e-08 0)
(0.0317895 2.92152e-09 0)
(0.0317894 1.60055e-08 0)
(0.0317898 -4.42562e-09 0)
(0.0317892 1.41823e-08 0)
(0.0317901 -1.37553e-08 0)
(0.0317887 5.06704e-08 0)
(0.0317909 -5.81915e-08 0)
(0.0317876 1.2826e-07 0)
(0.0317923 -1.08086e-07 0)
(0.0317859 2.37945e-07 0)
(0.031794 -2.79908e-07 0)
(0.0317843 3.47167e-07 0)
(0.0317951 -4.50618e-07 0)
(0.0317845 4.60253e-07 0)
(0.0317932 -4.66228e-07 0)
(0.0317886 3.42681e-07 0)
(0.0317853 -5.77921e-07 0)
(0.0318017 7.39444e-09 0)
(0.0317616 -1.12566e-06 0)
(0.0318357 1.40378e-05 0)
(0.0316864 2.27087e-05 0)
(0.00578485 -0.00145286 0)
(-0.00289281 -0.00271414 0)
(0.00943124 -0.00212792 0)
(0.0039322 -0.00288022 0)
(0.01251 -0.00221633 0)
(0.0105436 -0.00255393 0)
(0.0156884 -0.00213316 0)
(0.0161105 -0.00220645 0)
(0.0193464 -0.00200296 0)
(0.0205356 -0.00192923 0)
(0.022941 -0.00179945 0)
(0.0244032 -0.00168178 0)
(0.0263136 -0.00157399 0)
(0.0277898 -0.00145329 0)
(0.029364 -0.00135746 0)
(0.0307474 -0.00125766 0)
(0.032077 -0.00116492 0)
(0.0333084 -0.00107757 0)
(0.0344556 -0.000995378 0)
(0.035521 -0.000918465 0)
(0.0365097 -0.000846858 0)
(0.0374258 -0.000780572 0)
(0.0382736 -0.000719225 0)
(0.0390578 -0.000662481 0)
(0.0397826 -0.000609996 0)
(0.0404521 -0.000561479 0)
(0.0410705 -0.000516895 0)
(0.0416412 -0.000475762 0)
(0.0421679 -0.000438141 0)
(0.0426538 -0.000403913 0)
(0.0431018 -0.000372451 0)
(0.0435149 -0.000343481 0)
(0.0438957 -0.000316735 0)
(0.044247 -0.000292222 0)
(0.0445707 -0.000269706 0)
(0.0448693 -0.000248707 0)
(0.0451441 -0.000229406 0)
(0.0453981 -0.000211477 0)
(0.0456315 -0.000194929 0)
(0.0458473 -0.000179766 0)
(0.0460461 -0.000166027 0)
(0.0462292 -0.000153241 0)
(0.0463986 -0.00014152 0)
(0.0465541 -0.000130863 0)
(0.0466984 -0.000120878 0)
(0.0468303 -0.000111878 0)
(0.0469532 -0.000103342 0)
(0.0470653 -9.56768e-05 0)
(0.0471698 -8.84129e-05 0)
(0.0472652 -8.18248e-05 0)
(0.0473538 -7.55812e-05 0)
(0.0474354 -6.98656e-05 0)
(0.0475103 -6.45523e-05 0)
(0.0475801 -5.96649e-05 0)
(0.0476436 -5.5112e-05 0)
(0.0477031 -5.08445e-05 0)
(0.047757 -4.70082e-05 0)
(0.0478077 -4.33461e-05 0)
(0.0478535 -4.00732e-05 0)
(0.0478966 -3.68871e-05 0)
(0.0479356 -3.41321e-05 0)
(0.0479721 -3.14087e-05 0)
(0.0480056 -2.901e-05 0)
(0.0480362 -2.66998e-05 0)
(0.0480649 -2.46219e-05 0)
(0.0480909 -2.26709e-05 0)
(0.0481153 -2.08666e-05 0)
(0.0481376 -1.92349e-05 0)
(0.0481581 -1.76752e-05 0)
(0.0481773 -1.6302e-05 0)
(0.0481946 -1.49783e-05 0)
(0.0482111 -1.3873e-05 0)
(0.0482257 -1.2688e-05 0)
(0.0482398 -1.16966e-05 0)
(0.0482523 -1.079e-05 0)
(0.0482643 -9.92777e-06 0)
(0.0482748 -9.17358e-06 0)
(0.048285 -8.41574e-06 0)
(0.048294 -7.77516e-06 0)
(0.0483027 -7.11376e-06 0)
(0.0483104 -6.59312e-06 0)
(0.0483177 -6.00447e-06 0)
(0.0483244 -5.59093e-06 0)
(0.0483305 -5.06083e-06 0)
(0.0483363 -4.76452e-06 0)
(0.0483414 -4.26896e-06 0)
(0.0483464 -4.05795e-06 0)
(0.0483507 -3.60391e-06 0)
(0.0483549 -3.45703e-06 0)
(0.0483586 -3.06922e-06 0)
(0.0483622 -2.91513e-06 0)
(0.0483654 -2.64016e-06 0)
(0.0483684 -2.46495e-06 0)
(0.0483711 -2.24967e-06 0)
(0.0483737 -2.08254e-06 0)
(0.048376 -1.89823e-06 0)
(0.0483782 -1.78067e-06 0)
(0.0483801 -1.62218e-06 0)
(0.0483821 -1.51705e-06 0)
(0.0483836 -1.38901e-06 0)
(0.0483853 -1.2907e-06 0)
(0.0483867 -1.17984e-06 0)
(0.0483881 -1.10704e-06 0)
(0.0483892 -1.00646e-06 0)
(0.0483904 -9.44226e-07 0)
(0.0483914 -8.57925e-07 0)
(0.0483924 -8.25397e-07 0)
(0.0483933 -7.22815e-07 0)
(0.0483941 -7.02477e-07 0)
(0.0483949 -6.47224e-07 0)
(0.0483956 -5.75602e-07 0)
(0.0483962 -5.51126e-07 0)
(0.0483968 -5.10785e-07 0)
(0.0483974 -4.70906e-07 0)
(0.0483979 -4.54826e-07 0)
(0.0483983 -4.06265e-07 0)
(0.0483988 -3.74845e-07 0)
(0.0483992 -3.78178e-07 0)
(0.0483996 -3.34128e-07 0)
(0.0483999 -3.1229e-07 0)
(0.0484002 -3.16834e-07 0)
(0.0484006 -2.70387e-07 0)
(0.0484009 -2.39685e-07 0)
(0.048401 -2.9258e-07 0)
(0.0484013 -2.38196e-07 0)
(0.0484016 -2.26935e-07 0)
(0.0484018 -2.39316e-07 0)
(0.048402 -1.60422e-07 0)
(0.0484022 -2.12343e-07 0)
(0.0484023 -1.31879e-07 0)
(0.0484025 -1.42015e-07 0)
(0.0484026 -1.22751e-07 0)
(0.0484027 -9.85763e-08 0)
(0.0484028 -9.16239e-08 0)
(0.048403 -1.07606e-07 0)
(0.0484031 -1.12641e-07 0)
(0.0484032 -9.37316e-08 0)
(0.0484033 -1.23741e-07 0)
(0.0484033 -7.66294e-08 0)
(0.0484034 -6.15983e-08 0)
(0.0484035 -8.43474e-08 0)
(0.0484036 -7.68245e-08 0)
(0.0484036 -7.08195e-08 0)
(0.0484037 -8.98321e-08 0)
(0.0484038 -9.14536e-08 0)
(0.0484038 -1.00348e-07 0)
(0.0484038 -7.91921e-08 0)
(0.048404 -7.97918e-08 0)
(0.0484039 -5.64724e-08 0)
(0.048404 -4.66922e-08 0)
(0.048404 -2.31278e-08 0)
(0.048404 -1.54311e-09 0)
(0.0484041 -2.20832e-08 0)
(0.0484041 1.22575e-09 0)
(0.0484041 -7.41885e-08 0)
(0.0484042 -5.37104e-08 0)
(0.0484042 -7.64862e-08 0)
(0.0484041 -4.87556e-08 0)
(0.0484041 1.15067e-09 0)
(0.0484042 2.47092e-08 0)
(0.0484042 1.70171e-08 0)
(0.0484043 -1.9138e-08 0)
(0.0484043 2.37835e-09 0)
(0.0484043 -6.01857e-08 0)
(0.0484044 -1.64601e-08 0)
(0.0484044 -6.60777e-08 0)
(0.0484043 -3.60102e-08 0)
(0.0484045 -2.57353e-08 0)
(0.0484043 -3.67012e-08 0)
(0.0484045 2.25796e-08 0)
(0.0484044 -5.09231e-08 0)
(0.0484045 -4.2233e-08 0)
(0.0484044 -2.11803e-08 0)
(0.0484045 6.77311e-10 0)
(0.0484044 -1.22445e-10 0)
(0.0484045 -6.9344e-09 0)
(0.0484044 5.48198e-09 0)
(0.0484044 -2.41911e-08 0)
(0.0484044 -4.58859e-09 0)
(0.0484044 -2.69013e-09 0)
(0.0484043 -3.0316e-09 0)
(0.0484044 -9.82155e-09 0)
(0.0484043 1.62089e-08 0)
(0.0484043 1.23916e-08 0)
(0.0484043 2.35653e-08 0)
(0.0484043 4.96209e-08 0)
(0.0484043 -8.26179e-08 0)
(0.0484043 -3.97208e-08 0)
(0.0484043 -5.31322e-08 0)
(0.0484043 -4.03183e-08 0)
(0.0484043 -3.10816e-08 0)
(0.0484043 -4.99626e-08 0)
(0.0484043 -3.54484e-08 0)
(0.0484044 -2.02718e-08 0)
(0.0484044 -3.70566e-08 0)
(0.0484044 -1.99793e-08 0)
(0.0484044 -4.47803e-09 0)
(0.0484044 7.09586e-09 0)
(0.0484044 -3.22371e-08 0)
(0.0484043 -4.6849e-09 0)
(0.0484044 -1.2004e-08 0)
(0.0484044 -2.86534e-08 0)
(0.0484044 1.026e-08 0)
(0.0484044 6.46346e-10 0)
(0.0484044 4.11675e-08 0)
(0.0484044 1.7628e-08 0)
(0.0484044 -2.59334e-08 0)
(0.0484043 -3.23184e-08 0)
(0.0484044 -6.63074e-08 0)
(0.0484043 -5.44667e-09 0)
(0.0484044 -1.67675e-08 0)
(0.0484044 1.49297e-08 0)
(0.0484045 4.47665e-09 0)
(0.0484044 -4.27203e-08 0)
(0.0484045 -2.80134e-08 0)
(0.0484044 -3.58501e-08 0)
(0.0484044 2.13086e-09 0)
(0.0484044 6.21312e-09 0)
(0.0484043 1.36425e-08 0)
(0.0484043 -1.2222e-08 0)
(0.0484043 -4.73235e-09 0)
(0.0484042 -3.25036e-08 0)
(0.0484042 -1.79483e-08 0)
(0.0484042 -2.83001e-08 0)
(0.0484042 -1.15277e-08 0)
(0.0484043 -2.71436e-08 0)
(0.0484043 -3.16902e-08 0)
(0.0484043 -3.00034e-08 0)
(0.0484043 -3.4971e-08 0)
(0.0484043 -5.70648e-08 0)
(0.0484043 -4.45449e-08 0)
(0.0484042 -2.04648e-08 0)
(0.0484043 3.38195e-08 0)
(0.0484043 -1.6175e-08 0)
(0.0484042 -5.29375e-09 0)
(0.0484043 -7.33917e-09 0)
(0.0484043 -2.43777e-08 0)
(0.0484043 1.06138e-08 0)
(0.0484043 -6.37995e-08 0)
(0.0484043 -5.65107e-08 0)
(0.0484043 -4.9015e-08 0)
(0.0484043 -3.73433e-08 0)
(0.0484043 -2.88633e-08 0)
(0.0484044 -8.23241e-08 0)
(0.0484043 -5.42541e-08 0)
(0.0484043 -1.79307e-08 0)
(0.0484043 -7.57669e-09 0)
(0.0484043 -1.38851e-10 0)
(0.0484043 5.53114e-09 0)
(0.0484044 1.26363e-08 0)
(0.0484043 -1.06036e-08 0)
(0.0484044 -2.27999e-08 0)
(0.0484043 -5.99402e-09 0)
(0.0484044 1.02855e-08 0)
(0.0484043 3.54444e-08 0)
(0.0484043 1.04554e-08 0)
(0.0484043 1.24277e-08 0)
(0.0484043 9.9117e-09 0)
(0.0484044 1.31064e-08 0)
(0.0484043 -5.0461e-08 0)
(0.0484043 -2.47565e-08 0)
(0.0484042 -7.37118e-08 0)
(0.0484043 -6.91896e-08 0)
(0.0484043 -6.0647e-08 0)
(0.0484043 -4.37986e-08 0)
(0.0484043 -5.67846e-08 0)
(0.0484043 -4.25015e-08 0)
(0.0484043 -5.23394e-08 0)
(0.0484043 -2.43303e-08 0)
(0.0484042 1.78543e-08 0)
(0.0484042 -5.63144e-09 0)
(0.0484042 2.0015e-08 0)
(0.0484043 3.31675e-10 0)
(0.0484043 -5.5272e-09 0)
(0.0484043 4.17375e-10 0)
(0.0484043 4.13476e-08 0)
(0.0484043 4.49267e-09 0)
(0.0484044 -6.64057e-08 0)
(0.0484042 -9.676e-09 0)
(0.0484044 -2.46129e-08 0)
(0.0484043 -4.88454e-08 0)
(0.0484044 -5.32036e-08 0)
(0.0484042 -5.10201e-08 0)
(0.0484043 -3.46096e-08 0)
(0.0484043 2.84773e-08 0)
(0.0484043 6.32508e-09 0)
(0.0484043 -5.18777e-08 0)
(0.0484043 4.8001e-09 0)
(0.0484043 2.88553e-08 0)
(0.0484044 2.62333e-08 0)
(0.0484043 1.54064e-09 0)
(0.0484043 -5.36396e-08 0)
(0.0484043 -3.34837e-08 0)
(0.0484042 -4.60533e-08 0)
(0.0484043 1.23238e-08 0)
(0.0484042 -3.71603e-08 0)
(0.0484043 -1.98699e-08 0)
(0.0484043 -5.21487e-08 0)
(0.0484043 -6.36167e-08 0)
(0.0484043 -5.4993e-08 0)
(0.0484043 -2.81741e-08 0)
(0.0484043 -2.47093e-08 0)
(0.0484043 -2.47924e-08 0)
(0.0484043 5.41954e-09 0)
(0.0484042 2.17327e-08 0)
(0.0484042 -1.05851e-07 0)
(0.0484042 -4.25512e-08 0)
(0.0484042 4.24634e-08 0)
(0.0484042 -3.7344e-08 0)
(0.0484042 4.39856e-09 0)
(0.0484042 -9.7954e-09 0)
(0.0484042 5.96174e-09 0)
(0.0484042 2.48033e-08 0)
(0.0484042 -1.26445e-08 0)
(0.0484042 4.99251e-09 0)
(0.0484043 -3.60123e-08 0)
(0.0484043 -5.51641e-08 0)
(0.0484042 -1.14801e-08 0)
(0.0484043 3.4419e-08 0)
(0.0484043 -4.99893e-08 0)
(0.0484044 -3.8056e-08 0)
(0.0484043 2.26709e-08 0)
(0.0484044 3.64981e-08 0)
(0.0484043 -7.01773e-09 0)
(0.0484044 -2.02974e-08 0)
(0.0484043 -1.48079e-08 0)
(0.0484044 5.75804e-08 0)
(0.0484043 9.48361e-09 0)
(0.0484044 -4.52746e-09 0)
(0.0484043 1.37778e-09 0)
(0.0484044 -8.69255e-10 0)
(0.0484043 -2.17448e-08 0)
(0.0484043 -2.64348e-08 0)
(0.0484043 8.34953e-09 0)
(0.0484043 1.00478e-08 0)
(0.0484042 3.24715e-08 0)
(0.0484043 6.55997e-08 0)
(0.0484042 1.01951e-07 0)
(0.0484042 3.00172e-08 0)
(0.0484042 -1.10411e-07 0)
(0.0484041 -2.86528e-08 0)
(0.0484041 -5.29311e-09 0)
(0.0484041 7.64189e-08 0)
(0.0484041 7.36312e-08 0)
(0.0484041 7.15253e-08 0)
(0.0484042 2.69222e-08 0)
(0.0484042 3.13553e-08 0)
(0.0484043 -3.62667e-08 0)
(0.0484042 2.84329e-08 0)
(0.0484042 9.3683e-08 0)
(0.0484043 -3.44386e-08 0)
(0.0484042 -5.55029e-08 0)
(0.0484044 1.07127e-07 0)
(0.0484043 2.1499e-09 0)
(0.0484043 -6.07839e-08 0)
(0.0484042 -7.397e-09 0)
(0.0484043 -1.82061e-08 0)
(0.0484042 2.17616e-08 0)
(0.0484044 7.67853e-08 0)
(0.0484043 4.14656e-08 0)
(0.0484044 2.66264e-08 0)
(0.0484043 2.60935e-08 0)
(0.0484044 3.12247e-08 0)
(0.0484043 -2.8594e-08 0)
(0.0484043 -4.97989e-08 0)
(0.0484042 2.76038e-08 0)
(0.0484043 -3.18081e-08 0)
(0.0484042 -2.82525e-08 0)
(0.0484043 4.78741e-09 0)
(0.0484042 1.46653e-07 0)
(0.0484043 2.81772e-08 0)
(0.0484043 2.30537e-08 0)
(0.0484042 3.21762e-08 0)
(0.0484043 -3.75803e-09 0)
(0.0484042 -4.93001e-08 0)
(0.0484044 -1.26059e-10 0)
(0.0484043 -1.02295e-07 0)
(0.0484045 -1.15308e-07 0)
(0.0484042 -5.45282e-08 0)
(0.0484045 -2.00605e-08 0)
(0.0484042 -3.0189e-08 0)
(0.0484045 -3.86337e-08 0)
(0.0484043 -5.58824e-08 0)
(0.0484044 -6.31234e-08 0)
(0.0484042 1.02693e-08 0)
(0.0484043 3.15343e-08 0)
(0.0484042 -3.96017e-09 0)
(0.0484043 -2.83502e-08 0)
(0.0484044 3.90493e-08 0)
(0.0484043 -6.91269e-09 0)
(0.0484044 -4.47092e-08 0)
(0.0484042 -5.00369e-08 0)
(0.0484044 -8.49112e-08 0)
(0.0484042 4.77001e-08 0)
(0.0484045 5.66552e-08 0)
(0.0484043 -6.765e-08 0)
(0.0484044 -6.23406e-08 0)
(0.0484043 -3.01614e-08 0)
(0.0484044 1.12389e-09 0)
(0.0484044 4.93572e-08 0)
(0.0484044 -5.37052e-09 0)
(0.0484043 2.10556e-08 0)
(0.0484044 -6.56745e-09 0)
(0.0484043 -2.69325e-08 0)
(0.0484043 -3.80392e-09 0)
(0.0484042 4.56397e-08 0)
(0.0484044 -9.24085e-09 0)
(0.0484041 8.08547e-08 0)
(0.0484045 4.29153e-08 0)
(0.0484043 -8.40574e-08 0)
(0.0484045 -5.91278e-08 0)
(0.0484042 -7.19539e-08 0)
(0.0484045 -4.52935e-08 0)
(0.0484043 -1.63188e-08 0)
(0.0484045 -5.71843e-08 0)
(0.0484042 -3.94509e-08 0)
(0.0484045 4.48175e-08 0)
(0.0484043 6.98528e-08 0)
(0.0484045 2.82103e-08 0)
(0.0484043 -5.49456e-08 0)
(0.0484044 -8.03203e-08 0)
(0.0484043 -1.09477e-08 0)
(0.0484045 1.50673e-08 0)
(0.0484043 2.35214e-09 0)
(0.0484043 -5.67121e-09 0)
(0.0484043 -2.09331e-08 0)
(0.0484042 2.16734e-08 0)
(0.0484043 9.85719e-08 0)
(0.0484043 -2.49491e-08 0)
(0.0484044 -1.44252e-07 0)
(0.0484042 -1.08716e-07 0)
(0.0484044 -1.16788e-07 0)
(0.0484042 -8.99786e-08 0)
(0.0484044 -1.06027e-07 0)
(0.0484042 -2.58371e-08 0)
(0.0484045 -5.77516e-08 0)
(0.0484042 -2.89137e-08 0)
(0.0484044 -9.25748e-08 0)
(0.0484042 -1.05455e-07 0)
(0.0484043 -9.37181e-08 0)
(0.0484041 -3.36403e-10 0)
(0.0484041 -3.85713e-09 0)
(0.0484041 7.95471e-08 0)
(0.0484042 8.88897e-08 0)
(0.0484043 4.50611e-08 0)
(0.0484042 8.64465e-09 0)
(0.0484043 -4.25052e-08 0)
(0.0484042 -5.66766e-08 0)
(0.0484042 -5.84712e-08 0)
(0.0484041 -2.50049e-08 0)
(0.0484041 1.93543e-08 0)
(0.048404 9.16618e-08 0)
(0.0484041 1.04464e-07 0)
(0.0484042 3.86924e-08 0)
(0.0484042 1.45135e-08 0)
(0.0484042 3.4931e-08 0)
(0.0484042 -8.86642e-08 0)
(0.0484041 -1.00704e-07 0)
(0.0484042 -9.58674e-08 0)
(0.0484041 -2.53247e-08 0)
(0.0484042 2.50826e-08 0)
(0.0484041 5.50383e-10 0)
(0.0484042 5.41775e-08 0)
(0.0484041 -3.89292e-08 0)
(0.0484042 -2.93244e-08 0)
(0.0484041 1.2636e-08 0)
(0.0484042 -1.67026e-08 0)
(0.0484041 -3.33713e-08 0)
(0.0484042 -2.29725e-08 0)
(0.0484042 -5.327e-09 0)
(0.0484043 -2.66945e-08 0)
(0.0484042 -8.68749e-09 0)
(0.0484042 -1.42796e-08 0)
(0.0484042 2.46227e-08 0)
(0.0484042 3.82054e-09 0)
(0.0484043 -7.58177e-09 0)
(0.0484042 -2.46723e-08 0)
(0.0484043 -1.65773e-08 0)
(0.0484043 -3.69803e-08 0)
(0.0484044 -3.58425e-08 0)
(0.0484042 -4.61602e-08 0)
(0.0484046 -1.08427e-08 0)
(0.0484039 1.65798e-08 0)
(0.048405 -4.40504e-08 0)
(0.0484033 3.27622e-09 0)
(0.0484057 -4.12317e-08 0)
(0.0484021 6.25562e-08 0)
(0.0484072 -9.15845e-08 0)
(0.0484 1.65703e-07 0)
(0.0484092 -2.36019e-07 0)
(0.0483977 3.30673e-07 0)
(0.0484109 -4.21732e-07 0)
(0.048397 7.46441e-07 0)
(0.0484102 -9.326e-07 0)
(0.0483997 1.53094e-06 0)
(0.0484026 -1.19024e-06 0)
(0.0484102 3.46459e-06 0)
(0.0483823 -2.41478e-06 0)
(0.048434 1.60677e-05 0)
(0.048343 3.74859e-06 0)
(0.00620871 -0.00336463 0)
(-0.0026277 -0.00530817 0)
(0.0100507 -0.0051781 0)
(0.00429759 -0.00545005 0)
(0.0131564 -0.00509289 0)
(0.0112105 -0.00517809 0)
(0.0165539 -0.00486344 0)
(0.0170324 -0.00475429 0)
(0.0204141 -0.00452212 0)
(0.0216868 -0.00430766 0)
(0.0241984 -0.00408757 0)
(0.0257438 -0.003845 0)
(0.027743 -0.00362554 0)
(0.0292921 -0.00338343 0)
(0.0309292 -0.00315861 0)
(0.0323767 -0.00293725 0)
(0.0337605 -0.00272496 0)
(0.0350409 -0.00252232 0)
(0.0362327 -0.00233074 0)
(0.0373383 -0.00215077 0)
(0.0383633 -0.00198221 0)
(0.0393127 -0.00182492 0)
(0.0401916 -0.00167907 0)
(0.0410043 -0.00154415 0)
(0.0417557 -0.00141963 0)
(0.04245 -0.00130496 0)
(0.0430912 -0.00119935 0)
(0.0436832 -0.00110223 0)
(0.0442297 -0.00101288 0)
(0.0447341 -0.000930728 0)
(0.0451994 -0.000855234 0)
(0.0456287 -0.000785894 0)
(0.0460247 -0.000722154 0)
(0.04639 -0.000663352 0)
(0.0467268 -0.000609214 0)
(0.0470375 -0.000559901 0)
(0.0473242 -0.000515053 0)
(0.0475886 -0.000473541 0)
(0.0478327 -0.000436096 0)
(0.0480575 -0.000401092 0)
(0.0482652 -0.00036928 0)
(0.0484564 -0.000339797 0)
(0.0486332 -0.000312801 0)
(0.0487957 -0.00028795 0)
(0.0489462 -0.00026505 0)
(0.0490843 -0.000244091 0)
(0.0492125 -0.000224662 0)
(0.0493299 -0.000206996 0)
(0.049439 -0.000190514 0)
(0.049539 -0.000175653 0)
(0.0496316 -0.000161749 0)
(0.049717 -0.000149103 0)
(0.0497953 -0.000137453 0)
(0.0498683 -0.000126678 0)
(0.0499348 -0.00011685 0)
(0.049997 -0.000107677 0)
(0.0500534 -9.94476e-05 0)
(0.0501064 -9.16026e-05 0)
(0.0501544 -8.46226e-05 0)
(0.0501995 -7.79697e-05 0)
(0.0502404 -7.20623e-05 0)
(0.0502786 -6.64011e-05 0)
(0.0503137 -6.13637e-05 0)
(0.0503459 -5.66165e-05 0)
(0.0503759 -5.23053e-05 0)
(0.0504033 -4.83065e-05 0)
(0.0504288 -4.45602e-05 0)
(0.0504522 -4.11897e-05 0)
(0.0504737 -3.796e-05 0)
(0.0504938 -3.51318e-05 0)
(0.0505119 -3.23451e-05 0)
(0.0505292 -2.99171e-05 0)
(0.0505445 -2.7645e-05 0)
(0.0505592 -2.54543e-05 0)
(0.0505723 -2.35177e-05 0)
(0.0505848 -2.16644e-05 0)
(0.0505959 -2.00567e-05 0)
(0.0506066 -1.8488e-05 0)
(0.0506161 -1.71364e-05 0)
(0.0506251 -1.57602e-05 0)
(0.0506332 -1.46148e-05 0)
(0.0506409 -1.34183e-05 0)
(0.0506479 -1.24836e-05 0)
(0.0506543 -1.14288e-05 0)
(0.0506603 -1.06544e-05 0)
(0.0506657 -9.74455e-06 0)
(0.0506709 -9.08906e-06 0)
(0.0506754 -8.30359e-06 0)
(0.0506799 -7.73543e-06 0)
(0.0506837 -7.07542e-06 0)
(0.0506875 -6.58826e-06 0)
(0.0506907 -6.02672e-06 0)
(0.050694 -5.5667e-06 0)
(0.0506968 -5.15394e-06 0)
(0.0506995 -4.72378e-06 0)
(0.0507019 -4.40187e-06 0)
(0.0507042 -4.01504e-06 0)
(0.0507062 -3.7377e-06 0)
(0.0507083 -3.41359e-06 0)