# vtk DataFile Version 2.0
gauge_2
ASCII
DATASET POLYDATA
POINTS 43 double
0.2 0.0359992 0.005
0.2 0.0419991 0.005
0.2 0.047999 0.005
0.2 0.0607609 0.005
0.2 0.0735228 0.005
0.2 0.0862847 0.005
0.2 0.0990467 0.005
0.2 0.111809 0.005
0.2 0.124571 0.005
0.2 0.137332 0.005
0.2 0.150094 0.005
0.2 0.162856 0.005
0.2 0.175618 0.005
0.2 0.18838 0.005
0.2 0.201142 0.005
0.2 0.213904 0.005
0.2 0.226666 0.005
0.2 0.239428 0.005
0.2 0.25219 0.005
0.2 0.264952 0.005
0.2 0.277714 0.005
0.2 0.290476 0.005
0.2 0.303238 0.005
0.2 0.315999 0.005
0.2 0.328761 0.005
0.2 0.341523 0.005
0.2 0.354285 0.005
0.2 0.367047 0.005
0.2 0.379809 0.005
0.2 0.392571 0.005
0.2 0.405333 0.005
0.2 0.418095 0.005
0.2 0.430857 0.005
0.2 0.443619 0.005
0.2 0.456381 0.005
0.2 0.469143 0.005
0.2 0.481905 0.005
0.2 0.494666 0.005
0.2 0.507428 0.005
0.2 0.52019 0.005
0.2 0.532952 0.005
0.2 0.545714 0.005
0.2 0.558476 0.005
POINT_DATA 43
 FIELD attributes 1
alpha.water 1 43 float
1 1 1 1 0.780664 0.283473 0.00281133 5.86533e-06 5.08377e-06 9.93003e-07 1.22464e-07 7.33623e-08 7.75898e-08 4.16979e-08 5.57442e-09 7.37903e-10 2.497e-10 7.23089e-11 2.91467e-11 1.32908e-11 3.73921e-12 5.20933e-13 4.30355e-14 3.46219e-15 2.79373e-16 2.15063e-17 1.55905e-18 1.06924e-19 7.00113e-21 4.48903e-22 2.99606e-23 2.28358e-24 2.06307e-25 2.02909e-26 1.97312e-27 1.87276e-28 1.78513e-29 1.69022e-30 1.47736e-31 1.07678e-32 6.05407e-34 2.63429e-35 9.92072e-37
