# vtk DataFile Version 2.0
gauge_2
ASCII
DATASET POLYDATA
POINTS 43 double
0.2 0.0359992 0.005
0.2 0.0419991 0.005
0.2 0.047999 0.005
0.2 0.0607609 0.005
0.2 0.0735228 0.005
0.2 0.0862847 0.005
0.2 0.0990467 0.005
0.2 0.111809 0.005
0.2 0.124571 0.005
0.2 0.137332 0.005
0.2 0.150094 0.005
0.2 0.162856 0.005
0.2 0.175618 0.005
0.2 0.18838 0.005
0.2 0.201142 0.005
0.2 0.213904 0.005
0.2 0.226666 0.005
0.2 0.239428 0.005
0.2 0.25219 0.005
0.2 0.264952 0.005
0.2 0.277714 0.005
0.2 0.290476 0.005
0.2 0.303238 0.005
0.2 0.315999 0.005
0.2 0.328761 0.005
0.2 0.341523 0.005
0.2 0.354285 0.005
0.2 0.367047 0.005
0.2 0.379809 0.005
0.2 0.392571 0.005
0.2 0.405333 0.005
0.2 0.418095 0.005
0.2 0.430857 0.005
0.2 0.443619 0.005
0.2 0.456381 0.005
0.2 0.469143 0.005
0.2 0.481905 0.005
0.2 0.494666 0.005
0.2 0.507428 0.005
0.2 0.52019 0.005
0.2 0.532952 0.005
0.2 0.545714 0.005
0.2 0.558476 0.005
POINT_DATA 43
 FIELD attributes 1
alpha.water 1 43 float
1 1 1 0.995138 0.761553 0.372906 0.111888 0.00589708 0.000808708 0.00038424 0.000110372 4.72956e-05 1.96697e-05 7.97443e-06 5.17041e-07 4.25403e-08 5.54387e-09 7.5096e-10 1.57138e-10 7.005e-11 4.96574e-11 3.04472e-11 1.42295e-11 4.80008e-12 1.04544e-12 1.29991e-13 1.13632e-14 8.30434e-16 4.31892e-17 2.25003e-18 1.46697e-19 9.87995e-21 6.33268e-22 3.76062e-23 2.11773e-24 1.1412e-25 5.90386e-27 2.94904e-28 1.43576e-29 6.90973e-31 3.33599e-32 1.62417e-33 7.78792e-35
