/*--------------------------------*- C++ -*----------------------------------*\
| =========                 |                                                 |
| \\      /  F ield         | OpenFOAM: The Open Source CFD Toolbox           |
|  \\    /   O peration     | Version:  2012                                  |
|   \\  /    A nd           | Website:  www.openfoam.com                      |
|    \\/     M anipulation  |                                                 |
\*---------------------------------------------------------------------------*/
FoamFile
{
    version     2.0;
    format      ascii;
    class       volScalarField;
    location    "0.82";
    object      p_rgh;
}
// * * * * * * * * * * * * * * * * * * * * * * * * * * * * * * * * * * * * * //

dimensions      [1 -1 -2 0 0 0 0];


internalField   nonuniform List<scalar> 
2268
(
102204
102208
102214
102224
102233
102244
102253
102259
102263
102265
102267
102267
102270
102270
102273
102271
102272
102266
102257
102243
102227
102212
102210
102201
102205
102212
102223
102233
102244
102253
102259
102264
102266
102267
102267
102270
102269
102273
102272
102272
102266
102258
102243
102226
102211
102208
102198
102202
102210
102221
102231
102244
102253
102260
102264
102266
102267
102267
102269
102269
102273
102271
102272
102266
102257
102242
102223
102206
102206
102190
102195
102204
102217
102229
102244
102255
102262
102266
102267
102267
102266
102268
102268
102272
102271
102272
102266
102257
102242
102220
102202
102199
102184
102189
102198
102213
102227
102244
102254
102264
102267
102268
102267
102267
102268
102268
102272
102271
102272
102266
102256
102239
102212
102191
102191
102170
102176
102187
102206
102223
102245
102259
102267
102270
102269
102266
102265
102266
102266
102270
102271
102272
102266
102256
102237
102204
102182
102178
102158
102165
102178
102198
102219
102243
102258
102270
102271
102271
102265
102265
102264
102266
102271
102270
102272
102266
102253
102230
102184
102155
102147
102138
102147
102162
102188
102212
102249
102267
102275
102276
102273
102264
102261
102262
102261
102267
102269
102271
102266
102254
102225
102167
102124
102128
103341
102787
102425
102257
102245
102428
102262
102210
102157
102137
102137
102163
102402
102466
102374
102442
102496
102609
102677
103313
102737
102375
102219
102247
102454
102282
102199
102127
102098
102082
102174
102248
102433
102367
102357
102418
102560
102643
103050
102561
102285
102159
102233
102408
102251
102126
102064
102062
102057
102101
102356
102422
102295
102336
102382
102550
102632
102888
102446
102181
102093
102253
102469
102171
102070
102054
102055
102052
102160
102325
102486
102431
102426
102446
102520
102612
102658
102238
101969
101949
102211
102432
102151
102063
102052
102058
102076
102271
102398
102345
102269
102361
102373
102545
102623
102554
102162
101877
101852
102078
102476
102389
102073
102054
102056
102271
102352
102254
102107
102029
102162
102268
102475
102590
102413
102040
101874
101835
102023
102306
102400
102240
102079
102224
102464
102377
102108
101904
101829
101943
102033
102432
102575
102397
102027
101877
101835
102050
102251
102413
102444
102351
102567
102538
102342
102015
101892
101831
101945
101983
102362
102449
102110
102120
102138
102169
102203
102236
102265
102284
102279
102275
102261
102263
102255
102261
102270
102270
102273
102266
102251
102206
102071
101924
101989
101814
101849
101917
102016
102120
102260
102291
102302
102286
102273
102221
102216
102236
102236
102246
102249
102263
102267
102265
102178
101837
101664
101653
101374
101390
101429
101516
101645
101813
101991
102024
101964
101890
101880
101937
101934
101968
102030
102132
102220
102267
102250
102128
101775
101640
101974
101338
101340
101348
101384
101511
101702
101696
101701
101653
101828
101812
101700
101631
101645
101843
101940
101963
101984
102001
102012
101830
101632
101590
101336
101336
101338
101344
101352
101430
101839
101903
101896
101596
101389
101393
101389
101382
101372
101364
101366
101381
101395
101461
101595
101668
101620
101335
101335
101336
101336
101329
101343
101442
101502
101431
101331
101351
101443
101537
101462
101358
101350
101350
101349
101349
101348
101348
101509
101606
101332
101332
101331
101329
101325
101324
101324
101323
101324
101324
101329
101625
101924
101916
101526
101383
101352
101350
101350
101349
101349
101348
101349
101331
101330
101329
101325
101324
101323
101323
101323
101324
101324
101326
101479
101883
101985
101982
101657
101373
101349
101348
101348
101347
101346
101346
101329
101328
101327
101325
101324
101323
101323
101323
101323
101323
101324
101324
101325
101575
101793
101822
101827
101374
101366
101349
101349
101346
101351
101328
101328
101327
101325
101324
101323
101323
101323
101323
101323
101324
101325
101325
101326
101326
101485
101689
101746
101674
101389
101374
101365
101384
101328
101328
101327
101326
101325
101325
101324
101324
101324
101324
101325
101325
101326
101326
101327
101327
101386
101754
101864
101860
101739
101728
101817
101327
101327
101327
101326
101326
101325
101325
101325
101325
101325
101325
101326
101326
101326
101327
101327
101327
101328
101327
101329
101547
102018
102018
101327
101327
101327
101327
101326
101326
101326
101325
101326
101325
101326
101326
101326
101326
101327
101327
101327
101327
101327
101327
101327
101328
101328
101327
101327
101327
101327
101326
101326
101326
101326
101326
101326
101326
101326
101326
101327
101327
101327
101327
101327
101327
101327
101327
101328
101328
101327
101327
101327
101327
101327
101327
101326
101326
101326
101326
101326
101327
101327
101327
101327
101327
101327
101327
101327
101328
101328
101328
101328
101327
101327
101327
101327
101327
101327
101327
101327
101327
101327
101327
101327
101327
101327
101327
101327
101327
101327
101328
101328
101328
101328
101328
101327
101327
101327
101327
101327
101327
101327
101327
101327
101327
101327
101327
101327
101327
101327
101327
101327
101328
101328
101328
101328
101328
101328
101327
101327
101327
101327
101327
101327
101327
101327
101327
101327
101327
101327
101327
101327
101327
101327
101328
101328
101328
101328
101328
101328
101328
101327
101327
101327
101327
101327
101327
101327
101327
101327
101327
101327
101327
101327
101327
101327
101328
101328
101328
101328
101328
101328
101328
101328
101327
101327
101327
101327
101327
101327
101327
101327
101327
101327
101327
101327
101327
101327
101327
101328
101328
101328
101328
101328
101328
101328
101328
101327
101327
101327
101327
101327
101327
101327
101327
101327
101327
101327
101327
101327
101327
101328
101328
101328
101328
101328
101328
101328
101328
101328
101327
101327
101327
101327
101327
101327
101327
101327
101327
101327
101327
101327
101327
101327
101328
101328
101328
101328
101328
101328
101328
101328
101328
101327
101327
101327
101327
101327
101327
101327
101327
101327
101327
101327
101327
101327
101328
101328
101328
101328
101328
101328
101328
101328
101328
101328
101327
101327
101327
101327
101327
101327
101327
101327
101327
101327
101327
101327
101327
101327
101328
101328
101328
101328
101328
101328
101328
101328
101328
101327
101327
101327
101327
101327
101327
101327
101327
101327
101327
101327
101327
101327
101327
101328
101328
101328
101328
101328
101328
101328
101328
101328
101327
101327
101327
101327
101327
101327
101327
101327
101327
101327
101327
101327
101327
101327
101327
101328
101328
101328
101328
101328
101328
101328
101328
101327
101327
101327
101327
101327
101327
101327
101327
101327
101327
101327
101327
101327
101327
101327
101328
101328
101328
101328
101328
101328
101328
101328
101327
101327
101327
101327
101327
101327
101327
101327
101327
101327
101327
101327
101327
101327
101327
101327
101327
101327
101328
101328
101328
101328
101328
101327
101327
101327
101327
101327
101327
101327
101327
101327
101327
101327
101327
101327
101327
101327
101327
101327
101327
101327
101327
101327
101328
101328
101327
101327
101327
101327
101327
101327
101327
101327
101327
101327
101327
101327
101327
101327
101327
101327
101327
101327
101327
101327
101327
101327
101327
101327
101327
101327
101327
101327
101327
101327
101327
101327
101327
101327
101327
101327
101327
101327
101327
101327
101327
101327
101327
101327
101327
101327
101327
101327
101327
101327
101327
101327
101327
101327
101327
101327
101327
101327
101327
101327
101327
101327
101327
101327
101327
101327
101327
101327
101327
101327
101327
101327
101327
101327
101327
101327
101327
101327
101327
101327
101327
101327
101327
101327
101327
101327
101327
101327
101327
101327
101327
101327
101326
101326
101327
101327
101327
101327
101327
101327
101327
101327
101327
101327
101326
101326
101326
101326
101326
101326
101326
101326
101326
101326
101327
101326
101326
101326
101326
101326
101326
101326
101326
101326
101326
101326
101326
101326
101326
101326
101326
101326
101326
101326
101326
101326
101326
101326
101326
101326
101326
101326
101326
101326
101326
101326
101326
101326
101326
101326
101326
101326
101326
101326
101326
101326
101326
101326
101326
101326
101326
101326
101326
101326
101326
101326
101326
101326
101326
101326
101326
101326
101326
101326
101326
101326
101326
101326
101326
101326
101326
101326
101326
101326
101326
101326
101326
101326
101326
101326
101326
101326
101326
101326
101326
101326
101326
101326
101326
101326
101326
101326
101326
101326
101326
101326
101326
101326
101326
101326
101326
101326
101326
101326
101326
101326
101326
101326
101326
101326
101326
101326
101326
101326
101326
101326
101326
101326
101326
101326
101326
101326
101326
101326
101326
101326
101326
101326
101326
101326
101325
101325
101325
101325
101325
101325
101325
101325
101325
101325
101325
101325
101325
101325
101325
101325
101325
101325
101325
101325
101325
101325
101325
101325
101325
101325
101325
101325
101325
101325
101325
101325
101325
101325
101325
101325
101326
101326
101326
101326
101326
101326
101325
101325
101325
101325
101325
101325
101325
101325
101325
101325
101325
101325
101325
101325
101325
101325
101325
101783
101809
102043
101966
101793
101927
102097
102040
101931
101952
102063
102109
101675
101813
102039
102176
101863
102064
102153
102134
101617
101772
101917
101955
101356
101364
101397
101458
101346
101347
101347
101347
101351
101349
101350
101352
101350
101351
101363
101369
101455
101386
101680
101888
101962
101483
101922
102168
101328
101328
101329
101329
101328
101328
101328
101329
101328
101328
101329
101329
101328
101328
101329
101329
101328
101329
101329
101329
101328
101329
101329
101329
101328
101329
101329
101329
101328
101329
101329
101329
101328
101329
101329
101329
101328
101328
101329
101329
101328
101328
101329
101329
101328
101328
101328
101328
101328
101328
101328
101328
101328
101328
101328
101328
101328
101328
101328
101328
101328
101328
101328
101328
101328
101328
101328
101328
101327
101327
101328
101328
101327
101327
101327
101327
101327
101327
101327
101327
101327
101327
101327
101327
101327
101327
101327
101327
101326
101326
101327
101327
101326
101326
101326
101326
101326
101326
101326
101326
101326
101326
101326
101326
101326
101326
101326
101326
101325
101325
101325
101325
101325
101325
101325
101325
101325
101325
101325
101325
102326
102040
101873
101866
102051
101962
102240
102451
102691
102725
102595
102405
102235
101975
101796
101986
102145
102377
102254
102317
101890
102064
102005
101824
101817
101980
102376
102600
102593
102495
102532
102400
102177
101955
102119
102095
102030
102304
102208
101904
102028
101881
101842
101797
102186
102520
102577
102651
102547
102503
102421
102051
101725
101775
101781
102021
102507
101942
101846
101950
101678
101897
102125
102425
102264
102152
101851
102092
102271
102391
102122
101852
101692
101753
102071
102510
101894
101788
101582
101562
101860
102417
102466
102320
101493
101390
101484
101594
101939
102188
102260
102210
102177
102212
102123
101975
101528
101399
101381
101588
102148
102397
102454
101513
101360
101358
101358
101343
101580
101936
102047
102004
101637
101398
101543
101367
101364
101355
101367
101749
102330
102261
101705
101361
101409
101362
101341
101336
101337
101336
101337
101338
101339
101359
101361
101363
101363
101360
101639
102087
101543
101464
101429
101423
101410
101340
101335
101335
101334
101336
101338
101342
101354
101354
101358
101356
101356
101647
101367
101332
101329
101414
101328
101341
101332
101335
101334
101335
101336
101337
101340
101373
101368
101366
101364
101430
101709
101336
101331
101329
101329
101327
101328
101332
101332
101333
101332
101332
101334
101366
101825
101547
101431
101405
101783
101665
101343
101331
101329
101329
101328
101329
101330
101331
101332
101332
101332
101331
101516
102168
102094
101588
101460
101403
101330
101331
101330
101330
101330
101329
101329
101331
101331
101331
101331
101331
101331
101532
101329
101329
101329
101329
101330
101329
101330
101330
101329
101329
101329
101329
101330
101330
101331
101331
101331
101331
101545
101329
101329
101329
101330
101330
101332
101331
101330
101329
101329
101329
101329
101330
101330
101330
101330
101331
101331
101526
101329
101329
101329
101329
101330
101331
101330
101329
101328
101329
101329
101329
101329
101330
101330
101330
101330
101331
101337
101329
101329
101329
101330
101330
101330
101329
101329
101329
101329
101329
101329
101330
101330
101330
101330
101330
101331
101330
101329
101329
101329
101329
101330
101329
101329
101329
101329
101329
101329
101329
101329
101330
101330
101330
101330
101331
101330
101329
101329
101329
101330
101330
101330
101330
101329
101329
101329
101329
101329
101330
101330
101330
101330
101331
101330
101331
101329
101329
101329
101329
101330
101330
101330
101329
101329
101329
101329
101330
101330
101330
101330
101330
101331
101331
101331
101329
101329
101329
101329
101329
101330
101330
101330
101330
101330
101330
101330
101330
101330
101330
101330
101331
101331
101331
101329
101329
101329
101329
101329
101330
101330
101330
101330
101330
101330
101330
101330
101330
101330
101331
101331
101331
101331
101329
101329
101329
101329
101329
101330
101330
101330
101330
101330
101330
101330
101330
101330
101330
101331
101331
101331
101331
101329
101329
101329
101329
101329
101330
101330
101330
101330
101330
101330
101330
101330
101330
101330
101331
101331
101331
101331
101329
101329
101329
101329
101329
101329
101330
101330
101330
101330
101330
101330
101330
101330
101330
101331
101331
101331
101331
101329
101329
101329
101329
101329
101329
101329
101330
101330
101330
101330
101330
101330
101330
101330
101331
101331
101331
101331
101328
101328
101329
101329
101329
101329
101329
101329
101330
101330
101330
101330
101330
101330
101330
101330
101331
101331
101331
101328
101328
101329
101329
101329
101329
101329
101329
101329
101330
101330
101330
101330
101330
101330
101330
101331
101331
101331
101328
101328
101328
101328
101329
101329
101329
101329
101329
101329
101330
101330
101330
101330
101330
101330
101331
101331
101331
101328
101328
101328
101328
101328
101329
101329
101329
101329
101329
101330
101330
101330
101330
101330
101330
101330
101330
101331
101328
101328
101328
101328
101328
101328
101328
101329
101329
101329
101329
101329
101330
101330
101330
101330
101330
101330
101330
101327
101328
101328
101328
101328
101328
101328
101328
101329
101329
101329
101329
101330
101330
101330
101330
101330
101330
101330
101327
101327
101327
101327
101328
101328
101328
101328
101328
101329
101329
101329
101329
101329
101330
101330
101330
101330
101330
101327
101327
101327
101327
101327
101328
101328
101328
101328
101328
101329
101329
101329
101329
101329
101329
101330
101330
101330
101327
101327
101327
101327
101327
101327
101327
101328
101328
101328
101328
101328
101329
101329
101329
101329
101329
101329
101329
101327
101327
101327
101327
101327
101327
101327
101327
101327
101328
101328
101328
101328
101328
101328
101328
101329
101329
101329
101326
101326
101326
101327
101327
101327
101327
101327
101327
101327
101327
101327
101328
101328
101328
101328
101328
101328
101328
101326
101326
101326
101326
101326
101326
101327
101327
101327
101327
101327
101327
101327
101327
101327
101327
101327
101327
101328
101326
101326
101326
101326
101326
101326
101326
101326
101326
101326
101326
101326
101326
101326
101326
101326
101327
101327
101327
101326
101326
101326
101326
101326
101326
101326
101326
101326
101326
101326
101326
101326
101326
101325
101326
101326
101326
101326
101325
101325
101325
101325
101325
101326
101326
101326
101326
101326
101326
101325
101325
101325
101325
101325
101325
101326
101326
101325
101325
101325
101325
101326
101326
101326
101326
101326
101326
101325
101325
101325
101325
101325
101325
101325
101325
101325
101325
101325
101325
101325
101325
101325
101325
101325
101325
101325
101325
101325
101325
101325
101325
101325
101325
101325
101325
)
;

boundaryField
{
    leftWall
    {
        type            zeroGradient;
    }
    rightWall
    {
        type            zeroGradient;
    }
    lowerWall
    {
        type            zeroGradient;
    }
    atmosphere
    {
        type            fixedValue;
        value           uniform 101325;
    }
    defaultFaces
    {
        type            empty;
    }
}


// ************************************************************************* //
