/*--------------------------------*- C++ -*----------------------------------*\
| =========                 |                                                 |
| \\      /  F ield         | OpenFOAM: The Open Source CFD Toolbox           |
|  \\    /   O peration     | Version:  2012                                  |
|   \\  /    A nd           | Website:  www.openfoam.com                      |
|    \\/     M anipulation  |                                                 |
\*---------------------------------------------------------------------------*/
FoamFile
{
    version     2.0;
    format      ascii;
    class       surfaceScalarField;
    location    "0.82";
    object      phi;
}
// * * * * * * * * * * * * * * * * * * * * * * * * * * * * * * * * * * * * * //

dimensions      [0 3 -1 0 0 0 0];
oriented        oriented;


internalField   nonuniform List<scalar> 
4432
(
-4.70619e-06
4.70618e-06
-9.21074e-06
4.50455e-06
-1.35509e-05
4.34014e-06
-1.74822e-05
3.93136e-06
-2.0739e-05
3.25676e-06
-2.32806e-05
2.5416e-06
-2.51518e-05
1.87123e-06
-2.62581e-05
1.1063e-06
-2.66446e-05
3.86439e-07
-2.64683e-05
-1.76229e-07
-2.57761e-05
-6.9222e-07
-2.4571e-05
-1.20507e-06
-2.301e-05
-1.56099e-06
-2.10636e-05
-1.94641e-06
-1.87521e-05
-2.31158e-06
-1.58851e-05
-2.86694e-06
-1.24026e-05
-3.48246e-06
-8.46915e-06
-3.9335e-06
-4.19133e-06
-4.27782e-06
-3.57858e-07
-3.83347e-06
1.84187e-06
-2.19973e-06
2.96596e-06
-1.12409e-06
2.96597e-06
-4.74201e-06
9.44819e-06
-9.27736e-06
9.0399e-06
-1.36378e-05
8.70057e-06
-1.75847e-05
7.87822e-06
-2.08687e-05
6.54077e-06
-2.34302e-05
5.10311e-06
-2.52775e-05
3.71854e-06
-2.63563e-05
2.18512e-06
-2.67472e-05
7.77322e-07
-2.65648e-05
-3.58648e-07
-2.58378e-05
-1.41922e-06
-2.46242e-05
-2.41863e-06
-2.30803e-05
-3.10489e-06
-2.11588e-05
-3.86792e-06
-1.88501e-05
-4.6203e-06
-1.59778e-05
-5.73924e-06
-1.24757e-05
-6.98456e-06
-8.50303e-06
-7.90615e-06
-4.18789e-06
-8.59296e-06
-2.90697e-07
-7.73066e-06
1.98656e-06
-4.47698e-06
2.59584e-06
-1.73336e-06
5.56183e-06
-4.84567e-06
1.42939e-05
-9.42421e-06
1.36184e-05
-1.3818e-05
1.30943e-05
-1.78291e-05
1.18893e-05
-2.11949e-05
9.90658e-06
-2.38108e-05
7.71903e-06
-2.56945e-05
5.60221e-06
-2.67728e-05
3.26342e-06
-2.71214e-05
1.12594e-06
-2.68595e-05
-6.20496e-07
-2.6071e-05
-2.20774e-06
-2.48518e-05
-3.63781e-06
-2.33062e-05
-4.65055e-06
-2.13796e-05
-5.79446e-06
-1.90292e-05
-6.97076e-06
-1.60944e-05
-8.67401e-06
-1.25169e-05
-1.05621e-05
-8.37063e-06
-1.20524e-05
-3.82377e-06
-1.31398e-05
7.04497e-07
-1.22589e-05
3.60358e-06
-7.37606e-06
3.76876e-06
-1.89854e-06
9.3306e-06
-4.92326e-06
1.92171e-05
-9.57194e-06
1.82671e-05
-1.40449e-05
1.75673e-05
-1.8119e-05
1.59634e-05
-2.15685e-05
1.33561e-05
-2.42478e-05
1.03984e-05
-2.61012e-05
7.45562e-06
-2.71193e-05
4.28145e-06
-2.7431e-05
1.43769e-06
-2.71373e-05
-9.14234e-07
-2.63017e-05
-3.04336e-06
-2.50723e-05
-4.86718e-06
-2.35257e-05
-6.19711e-06
-2.16572e-05
-7.663e-06
-1.93942e-05
-9.23368e-06
-1.65467e-05
-1.15215e-05
-1.29715e-05
-1.41373e-05
-8.68764e-06
-1.63363e-05
-3.77471e-06
-1.80528e-05
1.48435e-06
-1.7518e-05
5.20475e-06
-1.10965e-05
5.11655e-06
-1.81034e-06
1.44472e-05
-5.09319e-06
2.43103e-05
-9.8872e-06
2.30611e-05
-1.44948e-05
2.21749e-05
-1.87029e-05
2.01715e-05
-2.22746e-05
1.69278e-05
-2.50371e-05
1.31608e-05
-2.69421e-05
9.36058e-06
-2.79223e-05
5.26164e-06
-2.81202e-05
1.63566e-06
-2.7686e-05
-1.34844e-06
-2.67737e-05
-3.95564e-06
-2.55305e-05
-6.11043e-06
-2.39826e-05
-7.745e-06
-2.21308e-05
-9.51479e-06
-1.98418e-05
-1.15227e-05
-1.69217e-05
-1.44416e-05
-1.32306e-05
-1.78284e-05
-8.62038e-06
-2.09465e-05
-3.21038e-06
-2.34628e-05
3.26367e-06
-2.3992e-05
8.22353e-06
-1.60563e-05
7.52117e-06
-1.10797e-06
2.19683e-05
-5.18583e-06
2.94961e-05
-1.01212e-05
2.79965e-05
-1.48419e-05
2.68955e-05
-1.91678e-05
2.44974e-05
-2.2928e-05
2.06881e-05
-2.58354e-05
1.60682e-05
-2.7697e-05
1.12222e-05
-2.85723e-05
6.1369e-06
-2.86883e-05
1.75167e-06
-2.81644e-05
-1.87233e-06
-2.71408e-05
-4.97917e-06
-2.58166e-05
-7.43469e-06
-2.42523e-05
-9.30923e-06
-2.25329e-05
-1.12342e-05
-2.04255e-05
-1.363e-05
-1.76693e-05
-1.71978e-05
-1.40258e-05
-2.14719e-05
-9.36435e-06
-2.5608e-05
-3.34363e-06
-2.94835e-05
4.40948e-06
-3.17451e-05
1.0617e-05
-2.22638e-05
9.75492e-06
-2.45913e-07
3.17233e-05
-5.43868e-06
3.49348e-05
-1.06963e-05
3.32541e-05
-1.56235e-05
3.18228e-05
-2.00815e-05
2.89553e-05
-2.39003e-05
2.45069e-05
-2.68809e-05
1.90487e-05
-2.88501e-05
1.31915e-05
-2.97024e-05
6.98916e-06
-2.96513e-05
1.70054e-06
-2.89248e-05
-2.5988e-06
-2.78167e-05
-6.08729e-06
-2.64808e-05
-8.77051e-06
-2.50119e-05
-1.07782e-05
-2.34301e-05
-1.2816e-05
-2.13456e-05
-1.57146e-05
-1.84562e-05
-2.00871e-05
-1.46328e-05
-2.52952e-05
-9.75049e-06
-3.04904e-05
-3.25696e-06
-3.5977e-05
5.54268e-06
-4.05448e-05
1.27928e-05
-2.95139e-05
1.2139e-05
4.07828e-07
4.38623e-05
-5.52597e-06
4.04608e-05
-1.10411e-05
3.87692e-05
-1.62404e-05
3.70221e-05
-2.10909e-05
3.38058e-05
-2.54652e-05
2.88812e-05
-2.86998e-05
2.22833e-05
-3.04014e-05
1.4893e-05
-3.08647e-05
7.45248e-06
-3.05323e-05
1.36814e-06
-2.96218e-05
-3.50931e-06
-2.82981e-05
-7.41093e-06
-2.67828e-05
-1.02859e-05
-2.53217e-05
-1.22393e-05
-2.39334e-05
-1.42043e-05
-2.20758e-05
-1.75722e-05
-1.93205e-05
-2.28425e-05
-1.56736e-05
-2.89421e-05
-1.10928e-05
-3.50711e-05
-4.59071e-06
-4.24791e-05
4.42306e-06
-4.95585e-05
1.259e-05
-3.76806e-05
1.23809e-05
6.17978e-07
5.62432e-05
-6.55075e-05
6.5488e-05
-0.000105992
4.04531e-05
-0.000129608
2.35924e-05
-0.000140229
1.06191e-05
-0.000142278
2.11896e-06
-0.000145654
3.36271e-06
-0.000157458
1.18153e-05
-0.000168381
1.09283e-05
-0.000175372
7.00337e-06
-0.00018067
5.32368e-06
-0.000183396
2.75502e-06
-0.000178983
-4.30509e-06
-0.000158971
-2.00371e-05
-0.000132148
-2.68644e-05
-0.000107948
-2.41803e-05
-8.14614e-05
-2.64707e-05
-5.46523e-05
-2.67961e-05
-2.81146e-05
-2.65268e-05
-2.81018e-05
-5.52499e-05
0.000120723
-9.4375e-05
7.95519e-05
-0.000117042
4.62299e-05
-0.000125668
1.92532e-05
-0.000124361
8.78836e-07
-0.000123245
2.24217e-06
-0.000135423
2.4e-05
-0.000153606
2.91088e-05
-0.000172587
2.60289e-05
-0.000190933
2.37299e-05
-0.000200375
1.23678e-05
-0.000174011
-3.05333e-05
-0.00011609
-7.75461e-05
-7.82306e-05
-6.50739e-05
-6.54735e-05
-3.69933e-05
-4.9776e-05
-4.21626e-05
-3.40498e-05
-4.24845e-05
-2.0273e-05
-4.02971e-05
-4.83725e-05
-5.07192e-05
0.000171458
-8.13096e-05
0.000110135
-9.66343e-05
6.15408e-05
-0.00010075
2.33889e-05
-9.9619e-05
-1.68462e-07
-0.000105128
7.76355e-06
-0.000125133
4.40069e-05
-0.000149183
5.31904e-05
-0.00016997
4.6958e-05
-0.000178495
3.23755e-05
-0.000114045
-5.19339e-05
-1.78291e-05
-0.000126599
3.26769e-05
-0.000128271
5.30494e-05
-8.54014e-05
5.15174e-05
-3.52458e-05
3.29007e-05
-2.34065e-05
1.26609e-05
-2.21324e-05
5.74747e-07
-2.81861e-05
-4.77957e-05
-3.84092e-05
0.000209877
-6.2237e-05
0.000133956
-7.30936e-05
7.23866e-05
-7.0646e-05
2.09666e-05
-5.94804e-05
-1.12967e-05
-6.42701e-05
1.25556e-05
-8.97786e-05
6.95925e-05
-0.000119126
8.26596e-05
-0.000124382
5.23254e-05
-6.05426e-05
-3.13579e-05
5.69986e-06
-0.000118054
3.29625e-05
-0.000153714
4.3606e-05
-0.00013886
5.41445e-05
-9.59661e-05
5.76361e-05
-3.87272e-05
5.11984e-05
-1.69604e-05
3.56537e-05
-6.58289e-06
1.74888e-05
-1.00082e-05
-3.03033e-05
-2.87159e-05
0.000238617
-5.13325e-05
0.000156588
-6.89235e-05
9.00992e-05
-6.21723e-05
1.43254e-05
-3.16913e-05
-4.17367e-05
-9.23716e-06
-9.88406e-06
-5.70424e-06
6.61726e-05
-1.70942e-05
9.41508e-05
-9.91494e-06
4.52431e-05
2.18982e-05
-6.30777e-05
3.05335e-05
-0.000126468
3.6171e-05
-0.000159316
4.76335e-05
-0.000150323
5.87661e-05
-0.000107099
6.19019e-05
-4.18618e-05
5.68095e-05
-1.18671e-05
4.31851e-05
7.04255e-06
2.52121e-05
7.96551e-06
-5.09011e-06
-1.84714e-05
0.000257101
-2.77546e-05
0.000165877
-5.39416e-05
0.00011636
-4.93072e-05
9.80408e-06
-9.5341e-06
-8.14564e-05
5.51879e-06
-2.49254e-05
1.97236e-05
5.19637e-05
3.52188e-05
7.88161e-05
3.24881e-05
4.8073e-05
2.74243e-05
-5.78488e-05
2.4919e-05
-0.000123859
2.91914e-05
-0.000163575
4.44262e-05
-0.000165556
5.89355e-05
-0.000121667
6.17677e-05
-4.47102e-05
5.57396e-05
-5.86e-06
4.25805e-05
2.02028e-05
2.41697e-05
2.63769e-05
1.90803e-05
-1.0031e-05
0.00026715
3.3617e-06
0.000152582
-7.45153e-06
0.000127233
-1.26888e-05
1.51074e-05
1.9848e-05
-0.000113944
1.86839e-05
-2.37463e-05
1.95339e-05
5.11218e-05
2.19453e-05
7.63911e-05
2.36314e-05
4.65037e-05
1.86905e-05
-5.27669e-05
1.13423e-05
-0.000116502
1.00545e-05
-0.000162273
1.89748e-05
-0.000174523
3.17752e-05
-0.000134368
3.37116e-05
-4.65733e-05
3.00373e-05
-2.14286e-06
2.46067e-05
2.56832e-05
1.55754e-05
3.54073e-05
3.46565e-05
-2.43769e-07
0.000267397
1.07052e-05
0.00014167
2.70898e-05
0.000110914
2.90558e-05
1.3207e-05
3.32144e-05
-0.000118131
3.0972e-05
-2.1506e-05
2.60418e-05
5.60575e-05
2.06945e-05
8.17407e-05
1.78706e-05
4.93254e-05
6.44427e-06
-4.13318e-05
-5.50548e-06
-0.00010454
-9.88394e-06
-0.000157867
-1.06613e-05
-0.000173485
-6.70556e-06
-0.000138238
-8.31052e-06
-4.49587e-05
-7.6495e-06
-2.75817e-06
2.31931e-06
1.57403e-05
4.60329e-06
3.31337e-05
3.92863e-05
-1.22536e-05
5.27143e-05
-2.45343e-05
5.10499e-05
-3.59125e-05
4.84003e-05
-4.63313e-05
4.42245e-05
-5.56596e-05
3.82096e-05
-6.3256e-05
2.98797e-05
-6.81232e-05
1.97602e-05
-6.9695e-05
9.02433e-06
-6.85316e-05
2.04754e-07
-6.55022e-05
-6.53873e-06
-6.17392e-05
-1.1174e-05
-5.8188e-05
-1.3837e-05
-5.57116e-05
-1.47156e-05
-5.37004e-05
-1.62156e-05
-5.03665e-05
-2.09061e-05
-4.49869e-05
-2.8222e-05
-3.78731e-05
-3.60559e-05
-2.76738e-05
-4.52704e-05
-1.27997e-05
-5.73532e-05
6.85685e-06
-6.92147e-05
3.07373e-05
-6.15585e-05
4.92952e-05
-1.79116e-05
4.21745e-05
6.3378e-05
-1.49545e-05
6.77059e-05
-2.99886e-05
6.61063e-05
-4.40816e-05
6.24902e-05
-5.74302e-05
5.75603e-05
-6.93653e-05
5.01294e-05
-7.60963e-05
3.66003e-05
-7.69838e-05
2.0648e-05
-7.44154e-05
6.45492e-06
-7.0095e-05
-4.11292e-06
-6.46183e-05
-1.20167e-05
-5.96076e-05
-1.61791e-05
-5.64867e-05
-1.69582e-05
-5.51172e-05
-1.60836e-05
-5.52678e-05
-1.60641e-05
-5.42916e-05
-2.18812e-05
-5.05517e-05
-3.19598e-05
-4.55872e-05
-4.10191e-05
-3.90522e-05
-5.18049e-05
-3.09711e-05
-6.54343e-05
-2.28972e-05
-7.72873e-05
-8.25673e-06
-7.62013e-05
9.14921e-06
-3.52709e-05
1.2842e-05
3.85675e-05
-1.94482e-05
8.73648e-05
-4.16506e-05
8.85358e-05
-6.47268e-05
8.57942e-05
-8.39652e-05
7.70078e-05
-0.000101327
6.76774e-05
-0.000119566
5.50309e-05
-0.000132453
3.35165e-05
-0.000133194
7.2528e-06
-0.000123144
-1.41728e-05
-0.000111106
-2.39195e-05
-0.000100406
-2.67855e-05
-9.0303e-05
-2.69848e-05
-8.56373e-05
-2.07132e-05
-8.40573e-05
-1.75917e-05
-8.04151e-05
-2.54788e-05
-7.52497e-05
-3.70938e-05
-7.22524e-05
-4.40072e-05
-7.18882e-05
-5.2168e-05
-7.45026e-05
-6.28198e-05
-7.94447e-05
-7.23728e-05
-8.23379e-05
-7.33197e-05
-7.18674e-05
-4.5524e-05
-1.33805e-05
-4.56517e-05
-5.7137e-05
0.000144522
-0.000141857
0.000173289
-0.000241314
0.00018532
-0.000308775
0.000144757
-0.000332682
9.20189e-05
-0.000326775
4.88986e-05
-0.000305986
1.2897e-05
-0.000278997
-1.96611e-05
-0.000250018
-4.24784e-05
-0.000224837
-4.9052e-05
-0.000211523
-4.01626e-05
-0.000199286
-3.95634e-05
-0.000178146
-4.19128e-05
-0.000158139
-3.74414e-05
-0.000144781
-3.87776e-05
-0.000132887
-4.90544e-05
-0.000121373
-5.56147e-05
-0.000110963
-6.26884e-05
-0.000104233
-6.96711e-05
-0.000107055
-6.9674e-05
-0.000117878
-6.26269e-05
-0.00012431
-3.90646e-05
-1.31853e-05
-0.000124331
-9.52638e-05
0.000239788
-0.000215962
0.000293996
-0.000321084
0.000290471
-0.000385245
0.000208998
-0.00040233
0.000109365
-0.000375965
2.40699e-05
-0.000342752
-2.02963e-05
-0.000312997
-4.94234e-05
-0.000295256
-6.05558e-05
-0.000308825
-3.62497e-05
-0.000325701
-2.32258e-05
-0.00029501
-6.99025e-05
-0.000239969
-9.68071e-05
-0.000185393
-9.17607e-05
-0.000147115
-7.69534e-05
-0.000151082
-4.50014e-05
-0.000158509
-4.81372e-05
-0.000143312
-7.78361e-05
-0.000120369
-9.25596e-05
-0.000104139
-8.58347e-05
-0.000100087
-6.6723e-05
-0.000105796
-3.33566e-05
1.13802e-06
-0.000119903
-0.000103813
0.00034361
-0.000201111
0.000391305
-0.000269599
0.000358974
-0.000319947
0.000259364
-0.000352143
0.000141614
-0.000356942
2.91661e-05
-0.000350851
-2.60414e-05
-0.00034877
-5.16908e-05
-0.000372152
-3.76928e-05
-0.000397061
-1.12826e-05
-0.000360265
-5.96953e-05
-0.000316332
-0.000113359
-0.0002862
-0.000126412
-0.000250607
-0.000127066
-0.000207043
-0.000120377
-0.000165305
-8.66821e-05
-0.00014225
-7.11494e-05
-0.000137513
-8.25294e-05
-0.00012499
-0.000105042
-0.000109538
-0.000101247
-9.99161e-05
-7.61964e-05
-7.54317e-05
-5.77862e-05
-4.47248e-06
-6.97712e-05
-7.13351e-05
0.000414957
-0.000132488
0.000452473
-0.000197131
0.000423643
-0.000254602
0.000316857
-0.000307233
0.000194255
-0.000348906
7.08483e-05
-0.000374091
-8.43109e-07
-0.000391212
-3.45639e-05
-0.000401743
-2.71397e-05
-0.000358263
-5.47736e-05
-0.00030259
-0.000114882
-0.000289362
-0.000125585
-0.000285296
-0.000130474
-0.000280091
-0.000132606
-0.000269998
-0.000130275
-0.000237767
-0.000118725
-0.000206872
-0.000101993
-0.000212272
-7.70878e-05
-0.000224547
-9.27255e-05
-0.000212997
-0.000112755
-0.000188112
-0.000101043
-0.000158592
-8.72682e-05
-6.88143e-05
-9.42064e-05
-2.14614e-05
0.000436432
-3.89573e-05
0.000469983
-8.09604e-05
0.000465669
-0.000138033
0.000373945
-0.000201855
0.000258084
-0.00027812
0.000147117
-0.00033527
5.63114e-05
-0.000358095
-1.17295e-05
-0.000336048
-4.91844e-05
-0.000302157
-8.86556e-05
-0.000288693
-0.000128128
-0.0002761
-0.000137411
-0.000267467
-0.000139332
-0.000261629
-0.000138644
-0.000260451
-0.000131737
-0.000259063
-0.000120686
-0.000257689
-0.000102941
-0.000255239
-7.94852e-05
-0.000276334
-7.15866e-05
-0.000327458
-6.15917e-05
-0.00036244
-6.60284e-05
-0.000370815
-7.88574e-05
-0.000110884
-0.000328709
1.46761e-05
0.000421767
3.97393e-05
0.000444933
4.69389e-05
0.000458485
1.60767e-05
0.000404822
-3.85112e-05
0.000312681
-0.000108433
0.000217044
-0.00017778
0.000125665
-0.000239267
4.97622e-05
-0.000285716
-2.7245e-06
-0.000307072
-6.72956e-05
-0.000298993
-0.000136198
-0.000274555
-0.000161841
-0.000257565
-0.000155974
-0.000245353
-0.000150646
-0.000240652
-0.000136858
-0.00024267
-0.000118871
-0.000247489
-9.88899e-05
-0.000245591
-8.10488e-05
-0.000254049
-6.29792e-05
-0.000296576
-1.90054e-05
-0.000350347
-1.22148e-05
-0.000384761
-4.43875e-05
-5.86835e-05
-0.000436896
2.974e-05
0.000392037
7.36778e-05
0.000401005
0.000123267
0.000408908
0.000150702
0.0003774
0.000149381
0.000314012
0.000125832
0.000240603
8.10335e-05
0.000170471
1.60584e-05
0.000114743
-5.59396e-05
6.92778e-05
-0.000114557
-8.67322e-06
-0.000164779
-8.597e-05
-0.000202303
-0.00012431
-0.000222728
-0.000135541
-0.000230009
-0.000143365
-0.000229913
-0.000136774
-0.000231722
-0.000116775
-0.000237681
-9.3001e-05
-0.000240715
-7.80293e-05
-0.000234989
-6.90995e-05
-0.000204385
-4.93715e-05
-0.000171942
-4.44709e-05
-0.000159513
-5.66124e-05
-6.33303e-05
-0.000154653
3.36642e-05
0.000358382
7.6536e-05
0.000358142
0.000127528
0.000357925
0.000168014
0.000336922
0.000188007
0.00029403
0.000191027
0.000237592
0.000179284
0.000182222
0.000159599
0.000134435
0.000135326
9.3558e-05
8.39892e-05
4.26677e-05
1.24327e-05
-1.44084e-05
-5.01888e-05
-6.16845e-05
-9.61058e-05
-8.96179e-05
-0.000132281
-0.000107182
-0.000184825
-8.42208e-05
-0.000231411
-7.01156e-05
-0.000227937
-9.58146e-05
-0.000214187
-9.17902e-05
-0.000200957
-8.26258e-05
-0.000186349
-6.4348e-05
-0.000168198
-6.26295e-05
-0.000158636
-6.57951e-05
-6.56896e-05
-0.000156441
3.39828e-05
0.000324407
7.17791e-05
0.000320353
0.000115381
0.000314331
0.000155663
0.000296647
0.000181373
0.000268329
0.000191183
0.000227791
0.000187924
0.000185488
0.000174881
0.000147486
0.000155775
0.00011267
0.00012956
6.88878e-05
9.23761e-05
2.27806e-05
5.2634e-05
-2.19373e-05
1.68235e-05
-5.38022e-05
-2.1578e-05
-6.87753e-05
-6.00058e-05
-4.57874e-05
-8.86713e-05
-4.14433e-05
-0.000113174
-7.13054e-05
-0.000149373
-5.55883e-05
-0.000186213
-4.57842e-05
-0.000191075
-5.92789e-05
-0.000172586
-8.04381e-05
-0.000151294
-8.74495e-05
-8.8132e-05
-0.000129249
3.06379e-05
0.000293777
6.19554e-05
0.000289044
9.54295e-05
0.000280865
0.000127686
0.000264398
0.000153824
0.000242198
0.000169363
0.000212259
0.00017451
0.000180348
0.000171201
0.000150801
0.00016208
0.000121798
0.000143712
8.7262e-05
0.000116889
4.96089e-05
8.30486e-05
1.19085e-05
4.68535e-05
-1.76011e-05
1.54133e-05
-3.73292e-05
1.14126e-05
-4.17806e-05
1.1036e-05
-4.10604e-05
-2.01256e-05
-4.01387e-05
-5.95326e-05
-1.61745e-05
-9.58412e-05
-9.46889e-06
-0.000119812
-3.53006e-05
-0.000134151
-6.60941e-05
-0.000142551
-7.90519e-05
-8.11929e-05
-0.000149492
2.6483e-05
0.000267301
5.27389e-05
0.000262795
7.90921e-05
0.000254519
0.000103396
0.000240101
0.000123952
0.000221648
0.000138609
0.000197608
0.000147165
0.000171799
0.000149916
0.000148057
0.000147288
0.000124432
0.00013897
9.55855e-05
0.000124338
6.42467e-05
0.000104672
3.15798e-05
8.26374e-05
4.439e-06
6.03553e-05
-1.50416e-05
3.95631e-05
-2.09828e-05
2.09639e-05
-2.24554e-05
8.98582e-06
-2.81551e-05
1.58277e-05
-2.30106e-05
2.92278e-05
-2.28632e-05
2.51694e-05
-3.12366e-05
1.63731e-06
-4.2556e-05
-2.8585e-05
-4.8824e-05
-5.21953e-05
-5.75764e-05
2.20683e-05
0.00024524
4.35107e-05
0.000241359
6.4437e-05
0.0002336
8.3241e-05
0.000221304
9.90939e-05
0.000205802
0.000110513
0.000186196
0.000118244
0.000164073
0.000123753
0.000142555
0.000126156
0.000122034
0.000122843
9.89046e-05
0.000113915
7.31806e-05
9.9179e-05
4.63217e-05
8.05838e-05
2.30398e-05
5.98718e-05
5.67623e-06
4.39135e-05
-5.01887e-06
3.14869e-05
-1.00229e-05
1.72794e-05
-1.39421e-05
7.31683e-06
-1.30421e-05
1.00045e-06
-1.65412e-05
-3.48479e-06
-2.67455e-05
-9.23172e-06
-3.68033e-05
-1.48587e-05
-4.31914e-05
-4.73811e-05
-1.96672e-05
1.82575e-05
0.000226989
3.59472e-05
0.000223676
5.28637e-05
0.00021669
6.79294e-05
0.000206245
8.08006e-05
0.000192937
9.02631e-05
0.00017674
9.62172e-05
0.000158125
9.97747e-05
0.000139003
0.000101879
0.000119936
0.000101246
9.95431e-05
9.61184e-05
7.83143e-05
8.62469e-05
5.61988e-05
7.29225e-05
3.63699e-05
5.83521e-05
2.02522e-05
4.42124e-05
9.12643e-06
3.2331e-05
1.86397e-06
2.41484e-05
-5.75404e-06
2.16913e-05
-1.05797e-05
2.09641e-05
-1.58085e-05
1.66809e-05
-2.2457e-05
8.19833e-06
-2.83154e-05
-1.58559e-06
-3.34024e-05
-3.63549e-05
-1.26065e-05
1.46038e-05
0.000212392
2.86958e-05
0.000209591
4.20153e-05
0.000203377
5.38191e-05
0.000194448
6.39211e-05
0.000182841
7.1575e-05
0.000169092
7.66322e-05
0.000153074
7.93201e-05
0.000136321
8.02061e-05
0.000119056
7.87778e-05
0.000100977
7.42895e-05
8.28083e-05
6.61497e-05
6.43443e-05
5.52456e-05
4.72796e-05
4.3073e-05
3.24305e-05
3.17316e-05
2.04733e-05
2.24094e-05
1.11918e-05
1.3329e-05
3.33189e-06
6.02503e-06
-3.27018e-06
1.99676e-08
-9.798e-06
-4.54768e-06
-1.7884e-05
-8.17609e-06
-2.46816e-05
-1.08208e-05
-3.07524e-05
-3.41989e-05
-1.29715e-05
1.17702e-05
0.000200628
2.31306e-05
0.000198237
3.37613e-05
0.000192753
4.3109e-05
0.000185106
5.10173e-05
0.000174939
5.69886e-05
0.000163127
6.08786e-05
0.00014919
6.27411e-05
0.000134465
6.28514e-05
0.000118951
6.1088e-05
0.000102746
5.73021e-05
8.65999e-05
5.13385e-05
7.03134e-05
4.35073e-05
5.51164e-05
3.46487e-05
4.12946e-05
2.58282e-05
2.92992e-05
1.81456e-05
1.88797e-05
1.19473e-05
9.53553e-06
7.44678e-06
1.23551e-06
3.8746e-06
-6.22062e-06
-4.48155e-07
-1.35561e-05
-5.60138e-06
-1.95233e-05
-1.02953e-05
-2.60536e-05
-3.05096e-05
-1.39796e-05
8.93711e-06
0.000191697
1.76154e-05
0.000189565
2.56767e-05
0.000184697
3.27459e-05
0.000178043
3.86273e-05
0.000169064
4.29879e-05
0.000158772
4.56629e-05
0.000146521
4.66038e-05
0.00013353
4.58989e-05
0.000119662
4.34641e-05
0.000105187
3.93706e-05
9.0699e-05
3.36329e-05
7.60566e-05
2.66624e-05
6.20924e-05
1.91107e-05
4.88516e-05
1.14772e-05
3.69381e-05
4.50036e-06
2.58619e-05
-2.1236e-06
1.61648e-05
-7.68136e-06
6.7985e-06
-1.21403e-05
-1.75648e-06
-1.54031e-05
-1.02882e-05
-1.76226e-05
-1.72986e-05
-1.90835e-05
-2.45877e-05
-3.04246e-05
-1.91636e-05
6.79765e-06
0.000184906
1.33967e-05
0.000182972
1.942e-05
0.00017868
2.46256e-05
0.000172844
2.88272e-05
0.000164868
3.17772e-05
0.000155828
3.338e-05
0.000144924
3.35885e-05
0.000133327
3.24985e-05
0.000120758
3.00824e-05
0.000107608
2.64956e-05
9.42913e-05
2.17501e-05
8.08075e-05
1.6146e-05
6.77018e-05
1.00109e-05
5.4992e-05
3.77517e-06
4.31791e-05
-2.10144e-06
3.17436e-05
-7.26732e-06
2.13358e-05
-1.16699e-05
1.12061e-05
-1.5172e-05
1.75057e-06
-1.80565e-05
-7.39877e-06
-2.02662e-05
-1.50841e-05
-2.16575e-05
-2.31917e-05
-3.02469e-05
-2.18304e-05
4.67204e-06
0.000180239
9.12533e-06
0.000178524
1.31047e-05
0.000174707
1.64537e-05
0.0001695
1.89756e-05
0.000162352
2.05449e-05
0.000154265
2.10479e-05
0.000144427
2.03616e-05
0.000134019
1.85695e-05
0.000122555
1.5586e-05
0.000110597
1.15989e-05
9.82837e-05
6.71574e-06
8.5696e-05
1.12831e-06
7.32944e-05
-4.66881e-06
6.07943e-05
-1.04937e-05
4.90091e-05
-1.59302e-05
3.71852e-05
-2.08299e-05
2.62405e-05
-2.49259e-05
1.5307e-05
-2.79496e-05
4.77916e-06
-2.97315e-05
-5.61203e-06
-3.01603e-05
-1.46505e-05
-2.94442e-05
-2.3903e-05
-3.20266e-05
-2.76599e-05
3.06496e-06
0.00017718
5.92154e-06
0.000175673
8.27581e-06
0.000172358
1.00892e-05
0.000167693
1.11742e-05
0.000161273
1.15207e-05
0.000153924
1.10207e-05
0.000144932
9.59079e-06
0.000135454
7.34936e-06
0.000124802
4.16652e-06
0.000113785
3.24468e-07
0.000102131
-4.18444e-06
9.02101e-05
-9.12397e-06
7.82391e-05
-1.43001e-05
6.59755e-05
-1.94667e-05
5.41806e-05
-2.43683e-05
4.20917e-05
-2.87318e-05
3.06088e-05
-3.24546e-05
1.90346e-05
-3.53943e-05
7.72359e-06
-3.75256e-05
-3.47606e-06
-3.858e-05
-1.35915e-05
-3.84238e-05
-2.40547e-05
-3.32404e-05
-3.72056e-05
1.14842e-06
0.000176037
2.39801e-06
0.000174429
3.23342e-06
0.000171528
3.63798e-06
0.000167293
3.39403e-06
0.000161522
2.53799e-06
0.000154785
9.20366e-07
0.000146555
-1.48608e-06
0.000137866
-4.59301e-06
0.000127914
-8.48831e-06
0.000117686
-1.29347e-05
0.000106582
-1.79081e-05
9.51884e-05
-2.31714e-05
8.35073e-05
-2.84796e-05
7.12885e-05
-3.36603e-05
5.93662e-05
-3.84921e-05
4.69282e-05
-4.27958e-05
3.49173e-05
-4.63967e-05
2.26402e-05
-4.92191e-05
1.05507e-05
-5.1294e-05
-1.39662e-06
-5.23154e-05
-1.25657e-05
-5.25075e-05
-2.38583e-05
-3.34275e-05
-5.23162e-05
-3.72083e-07
0.000176414
-6.75777e-07
0.000174738
-1.20416e-06
0.000172062
-2.04163e-06
0.000168136
-3.4134e-06
0.000162899
-5.28918e-06
0.000156666
-7.78075e-06
0.000149052
-1.08474e-05
0.000140938
-1.44586e-05
0.00013153
-1.86524e-05
0.000121885
-2.32699e-05
0.000111205
-2.82675e-05
0.000100191
-3.34972e-05
8.87418e-05
-3.89044e-05
7.67006e-05
-4.4185e-05
6.46515e-05
-4.92703e-05
5.20183e-05
-5.39935e-05
3.96451e-05
-5.83246e-05
2.6976e-05
-6.234e-05
1.45706e-05
-6.5971e-05
2.23862e-06
-6.92111e-05
-9.32146e-06
-7.27119e-05
-2.03534e-05
-3.05797e-05
-7.55556e-05
-1.48275e-06
0.000177902
-3.19727e-06
0.000176458
-5.12561e-06
0.000173995
-7.2843e-06
0.0001703
-9.86905e-06
0.000165489
-1.29195e-05
0.000159721
-1.65766e-05
0.000152714
-2.07556e-05
0.000145121
-2.54657e-05
0.000136245
-3.06284e-05
0.000127052
-3.61684e-05
0.00011675
-4.196e-05
0.000105987
-4.78308e-05
9.46172e-05
-5.37283e-05
8.26027e-05
-5.96424e-05
7.05702e-05
-6.56276e-05
5.80082e-05
-7.15161e-05
4.55382e-05
-7.73634e-05
3.28275e-05
-8.30519e-05
2.02631e-05
-8.90184e-05
8.20923e-06
-9.49084e-05
-3.4272e-06
-9.93269e-05
-1.59306e-05
-2.93049e-05
-0.000100597
-2.68506e-06
0.000180592
-5.60338e-06
0.000179381
-8.75542e-06
0.000177152
-1.21382e-05
0.000173688
-1.58246e-05
0.00016918
-1.98217e-05
0.000163723
-2.42623e-05
0.000157159
-2.90648e-05
0.000149929
-3.43203e-05
0.000141505
-3.99084e-05
0.000132645
-4.59015e-05
0.000122748
-5.2218e-05
0.000112308
-5.88741e-05
0.000101278
-6.59015e-05
8.96348e-05
-7.31334e-05
7.78067e-05
-8.06803e-05
6.55592e-05
-8.84812e-05
5.33429e-05
-9.65443e-05
4.08945e-05
-0.000105262
2.89856e-05
-0.000113505
1.64554e-05
-0.000118873
1.94493e-06
-0.00012018
-1.46194e-05
-3.19593e-05
-0.000117522
-3.88871e-06
0.000184486
-7.94444e-06
0.000183441
-1.22132e-05
0.000181425
-1.67596e-05
0.000178239
-2.16657e-05
0.00017409
-2.69453e-05
0.000169007
-3.26972e-05
0.000162916
-3.87988e-05
0.000156035
-4.53519e-05
0.000148063
-5.22034e-05
0.000139501
-5.9426e-05
0.000129974
-6.6934e-05
0.000119821
-7.46766e-05
0.000109025
-8.28905e-05
9.78528e-05
-9.16113e-05
8.65314e-05
-0.00010077
7.47217e-05
-0.000110679
6.32559e-05
-0.000121496
5.17157e-05
-0.000130704
3.81983e-05
-0.000135679
2.14346e-05
-0.000136154
2.42312e-06
-0.000132599
-1.81704e-05
-3.82213e-05
-0.000126334
-5.14937e-06
0.000189639
-1.0395e-05
0.000188691
-1.57707e-05
0.000186805
-2.13455e-05
0.000183818
-2.71615e-05
0.000179911
-3.32411e-05
0.000175091
-3.96891e-05
0.000169368
-4.64672e-05
0.000162817
-5.37233e-05
0.000155323
-6.13779e-05
0.00014716
-6.95906e-05
0.000138192
-7.83585e-05
0.000128593
-8.77943e-05
0.000118465
-9.79044e-05
0.000107967
-0.000108741
9.73716e-05
-0.000120616
8.66005e-05
-0.000132878
7.55224e-05
-0.000142556
6.13979e-05
-0.000147184
4.28301e-05
-0.000147352
2.16063e-05
-0.000143887
-1.03883e-06
-0.000138148
-2.39054e-05
-4.50868e-05
-0.000131279
-6.36355e-06
0.000196007
-1.28142e-05
0.000195146
-1.94083e-05
0.000193404
-2.62655e-05
0.000190679
-3.34471e-05
0.000187096
-4.09626e-05
0.000182611
-4.88826e-05
0.000177292
-5.71337e-05
0.000171072
-6.58366e-05
0.00016403
-7.48832e-05
0.00015621
-8.4399e-05
0.000147711
-9.45038e-05
0.000138701
-0.000105342
0.000129307
-0.00011723
0.000119858
-0.000130142
0.000110288
-0.000143513
9.99754e-05
-0.000153484
8.54976e-05
-0.000157093
6.50107e-05
-0.000156523
4.22635e-05
-0.000152633
1.772e-05
-0.000146583
-7.08572e-06
-0.000140099
-3.03858e-05
-5.17743e-05
-0.000133409
-7.55164e-06
0.000203563
-1.51451e-05
0.000202744
-2.27838e-05
0.000201046
-3.05806e-05
0.00019848
-3.85911e-05
0.000195111
-4.68965e-05
0.000190921
-5.55989e-05
0.000185998
-6.47472e-05
0.000180225
-7.44528e-05
0.00017374
-8.47082e-05
0.00016647
-9.55654e-05
0.000158572
-0.000107033
0.000150172
-0.000119475
0.000141752
-0.000133148
0.000133536
-0.000147163
0.000124306
-0.000157618
0.000110434
-0.000161325
8.9208e-05
-0.000161294
6.49832e-05
-0.000158136
3.91083e-05
-0.000152659
1.22469e-05
-0.000146962
-1.27798e-05
-0.000140991
-3.63534e-05
-5.76907e-05
-0.000135072
-8.89003e-06
0.000212457
-1.78635e-05
0.000211721
-2.69585e-05
0.000210145
-3.62804e-05
0.000207806
-4.58576e-05
0.000204692
-5.57285e-05
0.000200795
-6.59643e-05
0.000196238
-7.65995e-05
0.000190864
-8.78167e-05
0.000184961
-9.96409e-05
0.000178297
-0.000112261
0.000171196
-0.000125557
0.000163472
-0.00013961
0.00015581
-0.000153907
0.000147836
-0.000164568
0.000134971
-0.000167726
0.000113596
-0.000166843
8.83284e-05
-0.000163476
6.16192e-05
-0.000157905
3.35406e-05
-0.000152165
6.50933e-06
-0.000145963
-1.89784e-05
-0.000139503
-4.28106e-05
-6.43744e-05
-0.000132816
-9.8938e-06
0.000222354
-1.98264e-05
0.000221657
-2.982e-05
0.000220142
-3.99862e-05
0.000217975
-5.03814e-05
0.000215091
-6.10877e-05
0.000211505
-7.21509e-05
0.000207305
-8.36303e-05
0.000202346
-9.55935e-05
0.000196927
-0.000108218
0.000190925
-0.000121683
0.000184663
-0.000136316
0.000178109
-0.000151599
0.000171096
-0.000163638
0.000159878
-0.000167494
0.000138829
-0.000166654
0.000112759
-0.00016433
8.60072e-05
-0.00015939
5.66827e-05
-0.000153737
2.78898e-05
-0.000147605
3.80755e-07
-0.000140877
-2.57044e-05
-0.000133825
-4.98593e-05
-7.19524e-05
-0.000126245
-1.15215e-05
0.000233879
-2.31091e-05
0.000233248
-3.4802e-05
0.000231839
-4.66701e-05
0.000229847
-5.87591e-05
0.000227183
-7.11262e-05
0.000223875
-8.37602e-05
0.000219942
-9.66606e-05
0.00021525
-0.000109877
0.000210147
-0.000123476
0.000204527
-0.000137775
0.000198966
-0.000152617
0.000192954
-0.000165223
0.000183706
-0.000169854
0.000164512
-0.00016865
0.000137628
-0.000166208
0.00011032
-0.000160997
8.07988e-05
-0.000154621
5.03092e-05
-0.000147966
2.12372e-05
-0.000140777
-6.80565e-06
-0.000133325
-3.31536e-05
-0.0001256
-5.75819e-05
-7.99302e-05
-0.00011762
-1.21049e-05
0.000245987
-2.42849e-05
0.000245431
-3.6628e-05
0.000244185
-4.91516e-05
0.000242373
-6.18845e-05
0.000239919
-7.49095e-05
0.000236903
-8.82566e-05
0.000233292
-0.000101965
0.000228961
-0.000116087
0.000224272
-0.000130647
0.00021909
-0.00014577
0.000214092
-0.000160069
0.000207256
-0.000167455
0.000191095
-0.000167066
0.000164126
-0.000165117
0.000135682
-0.000161086
0.000106291
-0.000154638
7.43538e-05
-0.000147752
4.34252e-05
-0.000140382
1.38696e-05
-0.000132751
-1.4434e-05
-0.000124922
-4.09807e-05
-0.000116975
-6.5527e-05
-8.80875e-05
-0.000108816
-1.42495e-05
0.000260239
-2.84433e-05
0.000259628
-4.25853e-05
0.00025833
-5.673e-05
0.000256521
-7.10008e-05
0.000254192
-8.54377e-05
0.000251343
-9.99902e-05
0.000247847
-0.000114771
0.000243744
-0.000129738
0.000239242
-0.00014445
0.000233805
-0.000158321
0.000227965
-0.000167165
0.000216103
-0.0001679
0.000191833
-0.000165217
0.000161445
-0.000161021
0.000131489
-0.000153948
9.92198e-05
-0.000146186
6.65945e-05
-0.000138417
3.56583e-05
-0.000130305
5.75921e-06
-0.000122342
-2.23944e-05
-0.000114239
-4.90823e-05
-0.000106124
-7.36396e-05
-9.63522e-05
-9.78578e-05
-1.43416e-05
0.000274583
-2.87261e-05
0.000274015
-4.3178e-05
0.000272784
-5.77495e-05
0.000271095
-7.24563e-05
0.000268902
-8.7303e-05
0.000266193
-0.00010231
0.000262857
-0.000117664
0.000259101
-0.000133254
0.000254834
-0.000148617
0.000249171
-0.000161338
0.000240689
-0.000165306
0.000220073
-0.00016301
0.00018954
-0.000159619
0.000158056
-0.000153691
0.000125563
-0.000146121
9.16522e-05
-0.000138382
5.88581e-05
-0.000130505
2.7783e-05
-0.000122333
-2.41079e-06
-0.000114121
-3.06054e-05
-0.000105977
-5.72248e-05
-9.77864e-05
-8.18283e-05
-0.000104597
-8.95401e-05
-1.66927e-05
0.000291278
-3.33673e-05
0.000290692
-4.99422e-05
0.000289361
-6.63103e-05
0.000287466
-8.24909e-05
0.000285085
-9.85436e-05
0.000282247
-0.000114459
0.000278774
-0.000130292
0.000274936
-0.000145449
0.000269994
-0.000158623
0.000262348
-0.000165086
0.000247154
-0.000163756
0.000218745