/*--------------------------------*- C++ -*----------------------------------*\
| =========                 |                                                 |
| \\      /  F ield         | OpenFOAM: The Open Source CFD Toolbox           |
|  \\    /   O peration     | Version:  2012                                  |
|   \\  /    A nd           | Website:  www.openfoam.com                      |
|    \\/     M anipulation  |                                                 |
\*---------------------------------------------------------------------------*/
FoamFile
{
    version     2.0;
    format      ascii;
    class       volScalarField;
    location    "0.82";
    object      rho;
}
// * * * * * * * * * * * * * * * * * * * * * * * * * * * * * * * * * * * * * //

dimensions      [1 -3 0 0 0 0 0];


internalField   nonuniform List<scalar> 
2268
(
1000.05
1000.05
1000.05
1000.05
1000.05
1000.05
1000.05
1000.05
1000.05
1000.05
1000.05
1000.05
1000.05
1000.05
1000.05
1000.05
1000.05
1000.05
1000.05
1000.05
1000.05
1000.03
999.85
1000.05
1000.05
1000.05
1000.05
1000.05
1000.05
1000.05
1000.05
1000.05
1000.05
1000.05
1000.05
1000.05
1000.05
1000.05
1000.05
1000.05
1000.05
1000.05
1000.05
1000.05
999.989
999.765
1000.05
1000.05
1000.05
1000.05
1000.05
1000.05
1000.05
1000.05
1000.05
1000.05
1000.05
1000.05
1000.05
1000.05
1000.05
1000.05
1000.05
1000.05
1000.05
1000.05
1000.05
1000.04
999.765
1000.05
1000.05
1000.05
1000.05
1000.05
1000.05
1000.05
1000.05
1000.05
1000.05
1000.05
1000.05
1000.05
1000.05
1000.05
1000.05
1000.05
1000.05
1000.05
1000.05
1000.05
1000.05
999.787
1000.05
1000.05
1000.05
1000.05
1000.05
1000.05
1000.05
1000.05
1000.05
1000.05
1000.05
1000.05
1000.05
1000.05
1000.05
1000.05
1000.05
1000.05
1000.05
1000.05
1000.05
1000.05
1000
1000.05
1000.05
1000.05
1000.05
1000.05
1000.05
1000.05
1000.05
1000.05
1000.05
1000.05
1000.05
1000.05
1000.05
1000.05
1000.05
1000.05
1000.05
1000.05
1000.05
1000.05
1000.05
1000.05
1000.05
1000.05
1000.05
1000.05
1000.05
1000.05
1000.05
1000.05
1000.05
1000.05
1000.05
1000.05
1000.05
1000.05
1000.05
1000.05
1000.05
1000.05
1000.05
999.944
999.984
1000.02
1000.05
1000.05
1000.05
1000.05
1000.05
1000.05
1000.05
1000.05
1000.05
1000.05
1000.05
1000.05
1000.05
1000.05
1000.05
1000.05
1000.05
1000.05
1000.05
1000.05
999.36
993.383
976.961
1000.05
923.824
928.081
923.104
790.087
782.542
815.611
847.099
847.099
847.099
818.122
785.167
763.585
748.444
754.458
841.883
906.144
942.944
953.895
928.525
927.985
928.064
884.224
740.726
793.429
847.099
847.099
773.009
502.592
338.196
226.06
159.235
138.353
138.356
208.638
420.687
759.243
970.107
986.513
928.057
928.114
884.81
708.587
708.582
744.92
725.548
307.161
57.9765
21.0159
16.2822
16.2969
95.5535
188.035
101.993
101.995
364.302
851.902
986.511
928.098
925.184
785.622
712.928
812.302
683.496
108.943
32.6928
3.53723
2.26036
5.14785
231.137
729.289
882.875
785.297
809.147
946.015
896.343
970.736
928.047
804.756
287.439
304.717
700.339
887.047
256.887
1.888
1.88777
1.88776
108.85
793.271
989.822
991.056
991.056
991.056
991.056
991.056
991.056
927.46
681.999
8.63972
26.0022
311.871
885.146
855.242
43.9191
1.88779
3.7879
714.649
912.765
884.833
660.424
601.696
707.215
885.401
983.881
991.056
920.242
505.96
8.63955
7.17203
312.789
647.756
920.805
534.794
73.267
493.821
954.458
904.658
509.383
227.254
227.253
227.254
418.446
859.994
991.056
916.55
425.319
8.76805
5.13276
399.802
525.377
920.772
899.195
659.356
954.458
954.459
725.822
326.495
227.253
227.253
227.254
294.833
859.994
745.446
1000.05
1000.05
1000.05
1000.05
1000.05
1000.05
1000.05
1000.05
1000.05
1000.05
1000.04
1000.03
1000.04
1000.05
1000.04
1000.01
999.952
999.861
999.961
996.053
891.138
691.746
927.896
620.229
656.281
721.942
806.489
894.189
953.93
979.319
985.22
982.786
972.974
957.439
956.822
975.042
984.039
975.407
969.53
979.22
994.93
999.125
965.663
592.696
404.451
404.777
43.379
58.6884
96.4098
166.741
279.268
438.714
557.422
566.118
503.699
463.595
485.385
565.207
601
616.454
671.036
810.014
930.106
982.093
988.384
876.581
500.253
356.614
804.879
1.36914
1.64607
3.92469
29.3306
143.266
198.138
176.352
166.003
166.034
358.255
463.451
332.741
213.734
261.73
498.523
605.506
629.257
650.69
670.897
688.541
525.399
291.854
294.317
1.2934
1.29397
2.54879
11.8657
15.2398
69.5232
386.151
476.526
476.557
234.501
9.30585
12.3773
11.7425
11.7421
9.89557
5.15722
13.0184
27.9537
42.4905
103.025
233.716
291.854
237.229
1.29336
1.29359
2.69532
5.91847
3.82588
17.625
98.0091
147.838
86.3906
4.20082
4.54354
69.088
121.144
78.9077
3.43989
1.29331
1.29332
1.29333
1.29332
1.29331
1.29329
134.625
214.086
1.29332
1.29717
2.3946
3.25263
2.00279
1.56884
1.29307
1.29307
1.29302
1.29294
3.92785
216.643
453.653
453.21
141.602
23.8976
1.29336
1.31199
1.29347
1.29329
1.29337
1.29321
1.29322
1.29329
1.30441
1.72393
1.48896
1.37789
1.40563
1.35274
1.29308
1.29318
1.29926
2.97918
106.39
381.927
462.037
462.334
228.999
19.1733
1.30332
1.3033
1.29595
1.29359
1.29324
1.32403
1.29326
1.29711
1.30607
1.29651
1.29388
1.29482
1.30477
1.29626
1.29626
1.36395
1.39806
1.29311
1.29312
157.078
298.673
319.922
318.259
17.1719
11.7047
1.41738
1.29361
1.29949
1.30371
1.29324
1.29347
1.29327
1.29324
1.2932
1.29316
1.29312
1.29345
1.29559
1.29551
1.2931
1.29313
1.29315
1.29316
1.29313
95.973
226.57
257.122
217.849
28.0723
18.4682
12.6215
24.611
1.29322
1.29322
1.29322
1.29323
1.29322
1.29321
1.29319
1.29316
1.29337
1.2946
1.29371
1.29312
1.29317
1.29323
1.2932
1.29316
33.8798
232.315
292.59
292.722
237.12
235.791
289.389
1.29321
1.29321
1.29321
1.29321
1.29322
1.29321
1.2932
1.29319
1.29318
1.29316
1.29314
1.29314
1.29387
1.29417
1.29327
1.2932
1.2932
1.29319
1.29316
2.13392
112.518
351.472
351.525
1.29321
1.29321
1.29321
1.2932
1.29321
1.29321
1.29321
1.29321
1.2932
1.29318
1.29316
1.2934
1.29452
1.29453
1.29346
1.2932
1.2932
1.29326
1.29333
1.2932
1.29319
1.2932
1.2932
1.2932
1.2932
1.2932
1.2932
1.2932
1.2932
1.29321
1.29321
1.2932
1.29319
1.29319
1.29402
1.29453
1.29454
1.29355
1.29321
1.29321
1.29321
1.29321
1.2933
1.29335
1.29336
1.29424
1.2932
1.2932
1.2932
1.2932
1.2932
1.2932
1.2932
1.2932
1.2932
1.2932
1.2932
1.29374
1.29439
1.29375
1.29324
1.29321
1.29321
1.29321
1.29321
1.29321
1.29322
1.29322
1.29321
1.2932
1.2932
1.2932
1.2932
1.2932
1.2932
1.2932
1.2932
1.2932
1.2932
1.29321
1.29329
1.29329
1.29322
1.29321
1.29321
1.29321
1.29321
1.29321
1.29321
1.29321
1.29321
1.29321
1.2932
1.2932
1.2932
1.2932
1.2932
1.2932
1.2932
1.2932
1.2932
1.2932
1.2932
1.2932
1.2932
1.2932
1.2932
1.2932
1.2932
1.29321
1.29321
1.29321
1.29321
1.29321
1.29321
1.2932
1.2932
1.2932
1.2932
1.29319
1.29319
1.29319
1.29319
1.2932
1.2932
1.2932
1.2932
1.2932
1.2932
1.2932
1.2932
1.2932
1.2932
1.2932
1.29321
1.29321
1.29321
1.29321
1.29319
1.29319
1.29319
1.29319
1.29319
1.29319
1.29319
1.29319
1.29319
1.2932
1.2932
1.2932
1.2932
1.2932
1.2932
1.2932
1.2932
1.2932
1.2932
1.2932
1.29321
1.29321
1.29321
1.29319
1.29319
1.29319
1.29319
1.29319
1.29319
1.29319
1.29319
1.29319
1.29319
1.29319
1.29319
1.2932
1.2932
1.2932
1.2932
1.2932
1.2932
1.2932
1.2932
1.2932
1.2932
1.2932
1.29319
1.29319
1.29319
1.29319
1.29319
1.29319
1.29319
1.29319
1.29319
1.29319
1.29319
1.29319
1.29319
1.29319
1.2932
1.2932
1.2932
1.2932
1.2932
1.2932
1.2932
1.2932
1.2932
1.29319
1.29319
1.29319
1.29319
1.29319
1.29319
1.29319
1.29319
1.29319
1.29319
1.29319
1.29319
1.29319
1.29319
1.29319
1.29319
1.29319
1.29319
1.29319
1.29319
1.29319
1.29318
1.29317
1.29318
1.29318
1.29318
1.29319
1.29319
1.29319
1.29319
1.29319
1.29319
1.29319
1.29319
1.29319
1.29319
1.29319
1.29319
1.29319
1.29319
1.29319
1.29318
1.29317
1.29316
1.29315
1.29315
1.29318
1.29318
1.29318
1.29318
1.29318
1.29318
1.29318
1.29318
1.29318
1.29318
1.29318
1.29318
1.29318
1.29318
1.29318
1.29318
1.29317
1.29317
1.29315
1.29314
1.29313
1.29314
1.29315
1.29318
1.29318
1.29318
1.29318
1.29318
1.29318
1.29318
1.29318
1.29318
1.29318
1.29318
1.29318
1.29318
1.29317
1.29317
1.29316
1.29314
1.29313
1.29312
1.29313
1.29315
1.2932
1.29325
1.29317
1.29317
1.29317
1.29317
1.29317
1.29317
1.29317
1.29317
1.29317
1.29317
1.29317
1.29317
1.29316
1.29316
1.29314
1.29313
1.29312
1.29312
1.29314
1.29327
1.29331
1.2933
1.29313
1.29317
1.29317
1.29317
1.29317
1.29317
1.29317
1.29317
1.29316
1.29316
1.29316
1.29316
1.29315
1.29314
1.29313
1.29312
1.29312
1.29312
1.29325
1.29342
1.29341
1.29318
1.29308
1.29307
1.29316
1.29316
1.29316
1.29316
1.29316
1.29316
1.29316
1.29315
1.29315
1.29315
1.29314
1.29313
1.29312
1.29311
1.29311
1.29314
1.29348
1.29348
1.29335
1.29309
1.29308
1.29307
1.29306
1.29315
1.29315
1.29315
1.29315
1.29315
1.29314
1.29314
1.29314
1.29313
1.29313
1.29312
1.29311
1.29311
1.29311
1.29318
1.29361
1.2936
1.29335
1.29308
1.29307
1.29307
1.29306
1.29306
1.29313
1.29313
1.29313
1.29313
1.29313
1.29313
1.29313
1.29312
1.29311
1.29311
1.2931
1.2931
1.29311
1.29323
1.29388
1.29387
1.29336
1.29308
1.29307
1.29306
1.29306
1.29306
1.29305
1.29312
1.29312
1.29312
1.29312
1.29312
1.29311
1.29311
1.2931
1.2931
1.2931
1.2931
1.2931
1.29318
1.29379
1.29387
1.29358
1.29308
1.29307
1.29307
1.29306
1.29306
1.29306
1.29305
1.29311
1.2931
1.2931
1.2931
1.2931
1.2931
1.2931
1.29309
1.29309
1.29309
1.2931
1.29313
1.29378
1.29408
1.29355
1.29308
1.29307
1.29306
1.29306
1.29306
1.29306
1.29306
1.29305
1.29309
1.29309
1.29309
1.29309
1.29309
1.29309
1.29309
1.29309
1.29309
1.29309
1.2931
1.29361
1.29461
1.29407
1.29308
1.29307
1.29307
1.29306
1.29306
1.29306
1.29306
1.29306
1.29306
1.29309
1.29309
1.29308
1.29308
1.29308
1.29308
1.29308
1.29308
1.29309
1.29309
1.29309
1.29362
1.2946
1.29361
1.29307
1.29307
1.29306
1.29306
1.29306
1.29306
1.29306
1.29306
1.29306
1.29308
1.29308
1.29308
1.29308
1.29308
1.29308
1.29308
1.29308
1.29309
1.29309
1.29334
1.29452
1.29338
1.29308
1.29307
1.29307
1.29306
1.29307
1.29307
1.29307
1.29307
1.29307
1.29306
1.29307
1.29307
1.29307
1.29307
1.29307
1.29307
1.29307
1.29308
1.29309
1.29322
1.29438
1.29451
1.29307
1.29307
1.29306
1.29306
1.29307
1.29307
1.29307
1.29307
1.29307
1.29307
1.29307
1.29307
1.29307
1.29307
1.29307
1.29307
1.29307
1.29307
1.29308
1.29308
1.29338
1.29437
1.294
1.29307
1.29306
1.29306
1.29307
1.29307
1.29307
1.29307
1.29307
1.29307
1.29307
1.29307
1.29306
1.29306
1.29306
1.29306
1.29307
1.29307
1.29307
1.29308
1.29323
1.2945
1.29411
1.29306
1.29306
1.29306
1.29306
1.29307
1.29307
1.29307
1.29307
1.29307
1.29307
1.29307
1.29307
1.29306
1.29306
1.29306
1.29306
1.29306
1.29306
1.29307
1.29309
1.29369
1.2945
1.29374
1.29306
1.29306
1.29306
1.29307
1.29307
1.29307
1.29308
1.29308
1.29308
1.29308
1.29308
1.29308
1.29306
1.29306
1.29306
1.29306
1.29306
1.29307
1.29307
1.29338
1.2945
1.29449
1.29313
1.29305
1.29306
1.29306
1.29307
1.29307
1.29308
1.29308
1.29308
1.29308
1.29308
1.29308
1.29308
1.29305
1.29305
1.29305
1.29305
1.29305
1.29306
1.29306
1.29351
1.29449
1.2942
1.29305
1.29305
1.29306
1.29306
1.29307
1.29308
1.29308
1.29309
1.29309
1.29309
1.29309
1.29308
1.29308
1.29305
1.29305
1.29305
1.29306
1.29306
1.29307
1.29307
1.29346
1.29409
1.29329
1.29305
1.29305
1.29306
1.29307
1.29308
1.29308
1.29309
1.29309
1.29309
1.29308
1.29308
1.29308
1.29308
572.828
650.878
845.344
920.912
513.193
812.447
920.912
920.911
824.114
891.372
920.911
920.913
381.346
522.422
738.207
796.026
459.34
612.854
670.814
604.976
215.484
345.565
458.834
481.142
7.08138
12.2351
36.8693
83.3407
1.41157
1.56915
1.66717
1.81957
1.29408
1.29403
1.29403
1.29402
3.80534
4.93994
12.1865
13.8133
65.4519
31.0488
196.092
321.244
322.748
79.0432
302.418
426.946
1.2932
1.29321
1.29321
1.29321
1.29424
1.29391
1.29321
1.2934
1.29332
1.29322
1.29328
1.29367
1.29321
1.29321
1.29322
1.29322
1.29321
1.29321
1.29321
1.29322
1.29321
1.29321
1.29321
1.29321
1.29321
1.29321
1.29321
1.29321
1.2932
1.29321
1.29321
1.29321
1.29319
1.29319
1.29319
1.29319
1.29317
1.29316
1.29316
1.29316
1.29315
1.29315
1.29316
1.29318
1.29319
1.29323
1.29324
1.29324
1.29324
1.29324
1.2932
1.29312
1.29308
1.29308
1.29307
1.29307
1.29307
1.29306
1.29306
1.29306
1.29306
1.29305
1.29305
1.29305
1.29305
1.29305
1.29305
1.29304
1.29305
1.29304
1.29304
1.29304
1.29305
1.29304
1.29304
1.29304
1.29305
1.29305
1.29304
1.29304
1.29305
1.29305
1.29305
1.29305
1.29306
1.29305
1.29305
1.29305
1.29306
1.29306
1.29306
1.29305
1.29306
1.29306
1.29306
1.29306
1.29307
1.29307
1.29307
1.29306
1.29307
1.29307
1.29307
1.29307
1.29308
1.29308
1.29307
1.29307
1.29308
1.29308
1.29307
1.29307
1.29308
1.29308
1.29308
1.29308
1.29308
1.29307
1.29307
1.29307
920.911
401.685
4.63806
69.1404
371.767
323.298
476.416
852.597
951.657
953.921
826.258
752.617
734.131
414.407
227.252
383.402
691.739
705.118
307.165
899.76
278.061
319.216
331.404
23.7313
14.5197
222.233
607.822
732.658
730.126
802.795
990.172
990.172
761.906
454.442
643.191
543.745
370.848
455.721
796.937
278.056
336.124
115.981
5.02701
11.6932
211.471
745.1
962.201
990.1
990.172
990.172
982.735
550.103
158.823
158.824
213.068
437.486
977.234
526.098
341.353
277.535
14.3563
116.076
366.144
363.023
344.561
615.545
547.914
717.067
885.22
956.91
697.194
254.736
129.293
129.361
548.173
977.234
451.634
306.233
129.808
4.18538
310.717
697.273
697.273
400.042
68.3329
14.1154
77.2991
248.268
526.308
768.224
768.473
679.669
667.653
728.092
698.645
476.716
132.951
21.6209
4.18404
157.8
569.104
697.273
697.273
114.298
14.1264
17.0556
12.8522
7.04278
203.039
493.095
584.776
547.79
245.532
46.424
145.341
12.8543
3.04591
2.50138
8.03431
297.431
697.272
651.144
284.333
27.97
40.1488
32.0261
3.289
1.30292
1.30297
1.30299
1.30302
1.30302
1.303
1.9533
1.71864
1.34659
1.49256
1.99226
198.943
513.47
144.772
94.7174
62.7358
65.5225
52.2609
3.63482
1.3029
1.30388
1.31871
1.63832
2.02773
1.67915
1.29399
1.29393
1.29395
1.29708
1.29734
191.055
26.3228
1.29364
1.29361
55.3987
3.29163
8.82933
1.56237
1.30303
1.47872
1.67112
2.49527
2.49586
2.45915
7.51075
1.56868
1.2931
1.29326
40.389
223.401
4.56327
1.29363
1.29381
1.29378
1.30144
1.33933
1.38316
1.53779
1.53764
1.47574
1.30853
2.16263
22.8777
284.907
114.754
41.7589
29.8787
241.928
184.092
8.67201
1.29363
1.29933
1.30154
1.30292
1.30335
1.30368
1.2934
1.29322
1.29323
1.29323
1.719
104.347
426.943
389.139
132.448
66.3814
38.9951
1.55935
1.63036
1.4089
1.40166
1.31937
1.29393
1.29394
1.29621
1.29868
1.29401
1.29322
1.29323
1.36853
106.23
1.29322
1.29321
1.29318
1.40331
1.31518
1.55935
2.01777
1.47675
1.29321
1.30015
1.29601
1.30591
1.32355
1.32419
1.29536
1.29322
1.29323
1.29344
106.23
1.29346
1.29329
1.29325
1.2938
1.68865
2.05153
2.05152
1.42474
1.2932
1.29319
1.30225
1.32478
1.3248
1.32482
1.29695
1.29323
1.29323
1.32972
91.3565
1.29367
1.29344
1.29362
1.29495
1.4741
1.93046
1.76419
1.29316
1.29312
1.29309
1.29547
1.32457
1.32478
1.31422
1.29491
1.29323
1.29322
1.64199
4.45626
1.29322
1.29322
1.29353
1.2945
1.30252
1.34795
1.35328
1.29573
1.29417
1.29309
1.2931
1.30271
1.32279
1.29841
1.29327
1.29322
1.29322
1.62253
1.31135
1.29322
1.29322
1.29322
1.2935
1.29318
1.29356
1.29457
1.29585
1.29465
1.29354
1.29344
1.29617
1.29335
1.29414
1.2934
1.29322
1.29322
1.51687
1.31128
1.29321
1.29322
1.29322
1.29322
1.29321
1.29319
1.29417
1.29503
1.29339
1.29512
1.29597
1.29444
1.2932
1.29321
1.29322
1.29322
1.29322
1.35842
1.31884
1.29321
1.29321
1.29322
1.29322
1.29322
1.29322
1.29335
1.29338
1.29333
1.2932
1.29323
1.29321
1.29321
1.29321
1.29322
1.29322
1.29322
1.30043
1.30248
1.29321
1.29321
1.29321
1.29321
1.29321
1.29321
1.29321
1.29321
1.29321
1.29321
1.29321
1.29321
1.29321
1.29321
1.29322
1.29323
1.29322
1.29579
1.29326
1.29319
1.29319
1.29319
1.29319
1.29319
1.29319
1.29319
1.29319
1.29319
1.29319
1.29319
1.29319
1.2932
1.2932
1.29321
1.29324
1.29322
1.29371
1.29325
1.29316
1.29317
1.29317
1.29317
1.29316
1.29316
1.29316
1.29315
1.29315
1.29316
1.29316
1.29316
1.29317
1.29318
1.29319
1.29323
1.29324
1.29323
1.29323
1.29319
1.29319
1.29317
1.29314
1.29313
1.29312
1.29311
1.29311
1.29311
1.29312
1.29313
1.29314
1.29315
1.29316
1.29318
1.2932
1.29336
1.29325
1.29323
1.29322
1.29315
1.2931
1.29308
1.29308
1.29307
1.29307
1.29306
1.29306
1.29307
1.29322
1.29335
1.29323
1.29316
1.29317
1.29318
1.29341
1.29342
1.29324
1.29309
1.29307
1.29306
1.29305
1.29305
1.29304
1.29303
1.29302
1.29302
1.29302
1.29337
1.29364
1.29367
1.29326
1.29316
1.29317
1.29332
1.29362
1.29331
1.29306
1.29305
1.29304
1.29303
1.29302
1.29301
1.293
1.29299
1.29298
1.29299
1.29308
1.29355
1.29367
1.29361
1.29319
1.29316
1.29333
1.29365
1.29365
1.29305
1.29304
1.29303
1.29302
1.29301
1.29299
1.29298
1.29297
1.29296
1.29296
1.29297
1.29298
1.29356
1.29369
1.29337
1.29315
1.29322
1.29345
1.29438
1.29304
1.29303
1.29302
1.293
1.29299
1.29298
1.29297
1.29296
1.29295
1.29294
1.29295
1.29296
1.29304
1.29365
1.29349
1.29316
1.29321
1.29331
1.2947
1.29303
1.29302
1.29301
1.293
1.29299
1.29298
1.29296
1.29295
1.29294
1.29292
1.29293
1.293
1.29298
1.2932
1.29345
1.2932
1.29319
1.29319
1.29437
1.29303
1.29302
1.29301
1.29299
1.29298
1.29297
1.29296
1.29294
1.29293
1.29291
1.2929
1.29309
1.29297
1.29298
1.29314
1.29317
1.29316
1.29318
1.29419
1.29303
1.29302
1.29301
1.29299
1.29298
1.29297
1.29296
1.29294
1.29292
1.2929
1.29289
1.29302
1.29323
1.29298
1.29301
1.29309
1.29314
1.29318
1.30482
1.29304
1.29302
1.29301
1.293
1.29298
1.29297
1.29296
1.29294
1.29292
1.2929
1.29287
1.29287
1.29533
1.29369
1.2931
1.29305
1.29312
1.29527
1.30964
1.29304
1.29303
1.29302
1.293
1.29299
1.29297
1.29296
1.29294
1.29292
1.29289
1.29287
1.29286
1.29547
1.29563
1.2937
1.29303
1.2931
1.30652
1.30964
1.29304
1.29303
1.29302
1.29301
1.29299
1.29298
1.29296
1.29294
1.29292
1.29289
1.29286
1.29284
1.29345
1.29913
1.2962
1.29308
1.29308
1.3096
1.30963
1.29305
1.29304
1.29303
1.29301
1.29299
1.29298
1.29296
1.29294
1.29291
1.29288
1.29285
1.29282
1.29283
1.3039
1.30317
1.29408
1.29306
1.30022
1.3048
1.29305
1.29304
1.29303
1.29301
1.293
1.29298
1.29296
1.29294
1.29291
1.29288
1.29284
1.29281
1.29281
1.31923
1.31827
1.29743
1.29306
1.29323
1.29361
1.29306
1.29305
1.29303
1.29302
1.293
1.29299
1.29297
1.29294
1.29291
1.29287
1.29283
1.29279
1.29279
1.34859
1.3609
1.30555
1.2931
1.29312
1.29314
1.29306
1.29305
1.29304
1.29302
1.293
1.29299
1.29297
1.29294
1.29291
1.29287
1.29282
1.29278
1.29278
1.36704
1.40824
1.32705
1.29315
1.29311
1.29313
1.29307
1.29306
1.29304
1.29303
1.29301
1.29299
1.29297
1.29294
1.29291
1.29287
1.29282
1.29277
1.29276
1.36883
1.40821
1.35028
1.29308
1.2931
1.29312
1.29307
1.29306
1.29304
1.29303
1.29301
1.29299
1.29297
1.29294
1.2929
1.29286
1.29281
1.29276
1.29274
1.31925
1.40824
1.34807
1.29302
1.29309
1.29312
1.29307
1.29306
1.29305
1.29303
1.29301
1.29299
1.29297
1.29294
1.29291
1.29286
1.29281
1.29275
1.29273
1.29276
1.4078
1.33693
1.29301
1.29309
1.29311
1.29306
1.29305
1.29304
1.29302
1.293
1.29298
1.29296
1.29293
1.2929
1.29285
1.2928
1.29275
1.29273
1.29276
1.37337
1.31858
1.29301
1.2931
1.29324
)
;

boundaryField
{
    leftWall
    {
        type            calculated;
        value           nonuniform List<scalar> 
50
(
1000.05
1000.05
1000.05
1000.05
1000.05
1000.05
1000.05
1000.05
1000.05
620.229
43.379
1.36914
1.2934
1.29336
1.29332
1.29329
1.29326
1.29324
1.29322
1.29321
1.29321
1.2932
1.2932
1.2932
1.2932
1.2932
1.29319
1.29319
1.29319
1.29319
1.29318
1.29318
1.29318
1.29317
1.29317
1.29316
1.29315
1.29313
1.29312
1.29311
1.29309
1.29309
1.29308
1.29307
1.29307
1.29306
1.29306
1.29306
1.29305
1.29305
)
;
    }
    rightWall
    {
        type            calculated;
        value           nonuniform List<scalar> 
50
(
928.525
986.513
986.511
970.736
991.056
991.056
991.056
745.446
307.165
455.721
977.234
977.234
698.645
46.424
1.303
1.67915
2.45915
22.8777
104.347
106.23
106.23
91.3565
4.45626
1.31135
1.31128
1.31884
1.30248
1.29326
1.29325
1.29323
1.29323
1.29324
1.29331
1.29365
1.29438
1.2947
1.29437
1.29419
1.30482
1.30964
1.30964
1.30963
1.3048
1.29361
1.29314
1.29313
1.29312
1.29312
1.29311
1.29324
)
;
    }
    lowerWall
    {
        type            calculated;
        value           nonuniform List<scalar> 
62
(
1000.05
1000.05
1000.05
1000.05
1000.05
1000.05
1000.05
1000.05
1000.05
1000.05
1000.05
1000.05
1000.05
1000.05
1000.05
1000.05
1000.05
1000.05
1000.05
1000.05
1000.05
1000.03
999.85
999.85
999.765
999.765
999.787
1000
1000.05
1000.05
1000.05
572.828
650.878
845.344
920.912
923.824
927.985
928.057
928.098
928.047
927.46
920.242
916.55
923.824
928.081
923.104
790.087
782.543
815.611
847.099
847.099
847.099
818.122
785.167
763.585
748.444
754.458
841.883
906.144
942.944
953.895
928.525
)
;
    }
    atmosphere
    {
        type            calculated;
        value           nonuniform List<scalar> 
46
(
1.29314
1.29314
1.29314
1.29314
1.29315
1.29315
1.29316
1.29354
1.29418
1.29338
1.29314
1.29315
1.29316
1.29316
1.29317
1.29318
1.29318
1.29318
1.29318
1.29318
1.29318
1.29317
1.29317
1.29317
1.29317
1.29317
1.29316
1.29316
1.29315
1.29314
1.29312
1.2931
1.29308
1.29306
1.29303
1.29299
1.29295
1.29289
1.29284
1.29282
1.29285
1.37347
1.31867
1.2931
1.29319
1.29333
)
;
    }
    defaultFaces
    {
        type            empty;
    }
}


// ************************************************************************* //
