/*--------------------------------*- C++ -*----------------------------------*\
| =========                 |                                                 |
| \\      /  F ield         | OpenFOAM: The Open Source CFD Toolbox           |
|  \\    /   O peration     | Version:  2012                                  |
|   \\  /    A nd           | Website:  www.openfoam.com                      |
|    \\/     M anipulation  |                                                 |
\*---------------------------------------------------------------------------*/
FoamFile
{
    version     2.0;
    format      ascii;
    class       volScalarField;
    location    "0.82";
    object      rho2;
}
// * * * * * * * * * * * * * * * * * * * * * * * * * * * * * * * * * * * * * //

dimensions      [1 -3 0 0 0 0 0];


internalField   nonuniform List<scalar> 
2268
(
1.30406
1.30411
1.30419
1.30431
1.30444
1.30458
1.30468
1.30476
1.30482
1.30485
1.30487
1.30487
1.3049
1.3049
1.30494
1.30492
1.30493
1.30485
1.30474
1.30456
1.30435
1.30416
1.30413
1.30328
1.30333
1.30341
1.30355
1.30368
1.30383
1.30394
1.30402
1.30408
1.3041
1.30412
1.30411
1.30415
1.30414
1.30419
1.30417
1.30418
1.3041
1.30399
1.30381
1.30359
1.3034
1.30336
1.30249
1.30254
1.30263
1.30277
1.30291
1.30307
1.30318
1.30328
1.30333
1.30336
1.30336
1.30336
1.30339
1.30339
1.30344
1.30342
1.30342
1.30334
1.30323
1.30304
1.3028
1.30259
1.30258
1.30163
1.3017
1.3018
1.30197
1.30213
1.30232
1.30246
1.30254
1.3026
1.30261
1.30261
1.3026
1.30263
1.30263
1.30267
1.30267
1.30267
1.3026
1.30249
1.30229
1.30201
1.30179
1.30175
1.3008
1.30086
1.30098
1.30117
1.30135
1.30156
1.3017
1.30182
1.30186
1.30188
1.30186
1.30186
1.30187
1.30187
1.30192
1.30191
1.30192
1.30184
1.30171
1.3015
1.30115
1.30088
1.30088
1.29987
1.29996
1.3001
1.30033
1.30055
1.30083
1.30101
1.3011
1.30115
1.30114
1.3011
1.30108
1.30109
1.30109
1.30114
1.30116
1.30117
1.3011
1.30097
1.30072
1.30029
1.3
1.29997
1.29898
1.29907
1.29923
1.29949
1.29975
1.30005
1.30024
1.3004
1.30041
1.30041
1.30034
1.30034
1.30032
1.30034
1.30041
1.3004
1.30042
1.30034
1.30018
1.29986
1.29925
1.29883
1.2988
1.29798
1.29809
1.29828
1.29861
1.29892
1.29938
1.29961
1.29972
1.29973
1.29969
1.29957
1.29954
1.29954
1.29954
1.29961
1.29964
1.29967
1.2996
1.29944
1.29903
1.29822
1.29766
1.29778
1.31776
1.31051
1.30581
1.30368
1.30352
1.30584
1.30376
1.30316
1.30257
1.30237
1.30244
1.3028
1.30587
1.3067
1.30554
1.3064
1.30709
1.30844
1.30924
1.31675
1.30926
1.30461
1.3027
1.30295
1.30553
1.30339
1.30254
1.30201
1.30184
1.30173
1.30288
1.30381
1.30617
1.30538
1.30521
1.30574
1.30736
1.30813
1.31274
1.30651
1.3031
1.30176
1.30248
1.30455
1.30259
1.30183
1.30149
1.30143
1.3013
1.30185
1.30507
1.30579
1.30429
1.30495
1.30536
1.30686
1.30737
1.31004
1.30453
1.30158
1.30067
1.30241
1.3051
1.30258
1.30151
1.30138
1.3013
1.30119
1.30222
1.3033
1.30503
1.30456
1.30444
1.30441
1.30573
1.30654
1.30646
1.30162
1.29998
1.29971
1.30175
1.3039
1.30185
1.30149
1.30125
1.30124
1.30125
1.3019
1.30297
1.30232
1.3014
1.30264
1.3029
1.30519
1.30596
1.30447
1.30053
1.29962
1.29924
1.30109
1.30386
1.3026
1.30147
1.30128
1.30132
1.30157
1.30199
1.30084
1.29989
1.2992
1.30056
1.30129
1.30362
1.30482
1.30202
1.29933
1.29944
1.29894
1.3001
1.30216
1.30201
1.30142
1.30129
1.30138
1.30257
1.30167
1.30008
1.29886
1.29797
1.29954
1.29992
1.30297
1.30383
1.30116
1.29925
1.29938
1.299
1.29968
1.30164
1.30152
1.30189
1.30177
1.30314
1.30284
1.30149
1.29953
1.2985
1.29782
1.29943
1.29972
1.30145
1.30277
1.29649
1.29662
1.29684
1.29723
1.29766
1.29807
1.29843
1.29867
1.29862
1.29856
1.29838
1.2984
1.29831
1.29838
1.29849
1.29849
1.29853
1.29844
1.29822
1.2976
1.2964
1.29572
1.29515
1.29432
1.29446
1.29477
1.29533
1.29592
1.2972
1.29739
1.29748
1.2973
1.29721
1.29667
1.29661
1.2967
1.29662
1.29681
1.2969
1.29699
1.29689
1.29678
1.29576
1.29433
1.29361
1.29343
1.29348
1.29352
1.29365
1.29405
1.29458
1.29514
1.29623
1.29656
1.29641
1.29583
1.29545
1.29536
1.29497
1.29526
1.2955
1.29541
1.29533
1.29538
1.29501
1.29436
1.29346
1.29313
1.29294
1.29342
1.29343
1.2935
1.29367
1.29398
1.29574
1.29583
1.29593
1.29528
1.29526
1.29384
1.29393
1.29443
1.29407
1.29387
1.29388
1.2939
1.29393
1.29386
1.29366
1.29311
1.29324
1.2927
1.29339
1.29339
1.29337
1.29329
1.29323
1.29342
1.29443
1.29406
1.29397
1.29334
1.29364
1.29362
1.29357
1.29349
1.29343
1.29342
1.29336
1.29335
1.29334
1.29336
1.29326
1.29329
1.29334
1.29336
1.29336
1.29334
1.29321
1.29304
1.29298
1.29306
1.29311
1.29311
1.29297
1.29314
1.29334
1.29377
1.29346
1.2933
1.29327
1.29329
1.29329
1.29328
1.29328
1.29325
1.29331
1.29326
1.29332
1.29332
1.29328
1.29315
1.29305
1.29303
1.29306
1.29305
1.29301
1.29293
1.29291
1.29318
1.29311
1.29302
1.29319
1.29332
1.29332
1.29331
1.2933
1.29325
1.29322
1.29318
1.29318
1.29329
1.29329
1.29327
1.29317
1.29307
1.29303
1.29305
1.29307
1.29308
1.29306
1.29302
1.29309
1.29325
1.29309
1.29303
1.29309
1.29326
1.29327
1.29324
1.29319
1.29311
1.29304
1.29298
1.29326
1.29326
1.29325
1.29322
1.29313
1.29307
1.29305
1.29306
1.29308
1.29309
1.2931
1.29311
1.29312
1.29322
1.29318
1.29308
1.29316
1.29327
1.29325
1.29322
1.29313
1.29303
1.293
1.29324
1.29324
1.29324
1.29323
1.2932
1.29316
1.29312
1.29309
1.29307
1.29307
1.2931
1.29313
1.29315
1.29315
1.29313
1.29309
1.29287
1.29292
1.29283
1.29321
1.29321
1.29319
1.29317
1.29322
1.29322
1.29322
1.29323
1.29322
1.2932
1.29319
1.29316
1.29312
1.29309
1.29309
1.2931
1.29314
1.29317
1.29319
1.29316
1.29312
1.29327
1.29324
1.29313
1.29284
1.29271
1.29262
1.29321
1.29321
1.29321
1.29321
1.29322
1.29321
1.2932
1.29319
1.29317
1.29314
1.29312
1.29313
1.29314
1.29317
1.29319
1.2932
1.2932
1.29319
1.29316
1.29314
1.29321
1.29341
1.2934
1.29321
1.29321
1.29321
1.2932
1.29321
1.29321
1.29321
1.2932
1.2932
1.29318
1.29316
1.29316
1.29317
1.29319
1.2932
1.2932
1.2932
1.29321
1.2932
1.2932
1.29319
1.2932
1.2932
1.2932
1.2932
1.2932
1.2932
1.2932
1.2932
1.29321
1.2932
1.2932
1.29319
1.29319
1.29319
1.29319
1.2932
1.2932
1.2932
1.29321
1.29321
1.29321
1.29321
1.29321
1.29321
1.29321
1.2932
1.2932
1.2932
1.2932
1.2932
1.2932
1.2932
1.2932
1.2932
1.2932
1.2932
1.2932
1.2932
1.2932
1.2932
1.2932
1.2932
1.29321
1.29321
1.29321
1.29321
1.29321
1.29321
1.2932
1.2932
1.2932
1.2932
1.2932
1.2932
1.2932
1.2932
1.2932
1.2932
1.2932
1.2932
1.2932
1.2932
1.2932
1.2932
1.2932
1.29321
1.29321
1.29321
1.29321
1.29321
1.29321
1.2932
1.2932
1.2932
1.2932
1.2932
1.2932
1.2932
1.2932
1.2932
1.2932
1.2932
1.2932
1.2932
1.2932
1.2932
1.2932
1.2932
1.2932
1.29321
1.29321
1.29321
1.29321
1.29321
1.2932
1.2932
1.2932
1.2932
1.29319
1.29319
1.29319
1.29319
1.29319
1.2932
1.2932
1.2932
1.2932
1.2932
1.2932
1.2932
1.2932
1.2932
1.2932
1.29321
1.29321
1.29321
1.29321
1.29319
1.29319
1.29319
1.29319
1.29319
1.29319
1.29319
1.29319
1.29319
1.29319
1.2932
1.2932
1.2932
1.2932
1.2932
1.2932
1.2932
1.2932
1.2932
1.2932
1.29321
1.29321
1.29321
1.29319
1.29319
1.29319
1.29319
1.29319
1.29319
1.29319
1.29319
1.29319
1.29319
1.29319
1.29319
1.2932
1.2932
1.2932
1.2932
1.2932
1.2932
1.2932
1.2932
1.2932
1.2932
1.2932
1.29319
1.29319
1.29319
1.29319
1.29319
1.29319
1.29319
1.29319
1.29319
1.29319
1.29319
1.29319
1.29319
1.29319
1.2932
1.2932
1.2932
1.2932
1.2932
1.2932
1.2932
1.2932
1.2932
1.29319
1.29319
1.29319
1.29319
1.29319
1.29319
1.29319
1.29319
1.29319
1.29319
1.29319
1.29319
1.29319
1.29319
1.29319
1.29319
1.29319
1.29319
1.29319
1.29319
1.29319
1.29318
1.29317
1.29318
1.29318
1.29318
1.29319
1.29319
1.29319
1.29319
1.29319
1.29319
1.29319
1.29319
1.29319
1.29319
1.29319
1.29319
1.29319
1.29319
1.29319
1.29318
1.29317
1.29316
1.29315
1.29315
1.29318
1.29318
1.29318
1.29318
1.29318
1.29318
1.29318
1.29318
1.29318
1.29318
1.29318
1.29318
1.29318
1.29318
1.29318
1.29318
1.29317
1.29317
1.29315
1.29314
1.29313
1.29313
1.29313
1.29318
1.29318
1.29318
1.29318
1.29318
1.29318
1.29318
1.29318
1.29318
1.29318
1.29318
1.29318
1.29318
1.29317
1.29317
1.29316
1.29314
1.29313
1.29312
1.29313
1.29313
1.29313
1.29312
1.29317
1.29317
1.29317
1.29317
1.29317
1.29317
1.29317
1.29317
1.29317
1.29317
1.29317
1.29317
1.29316
1.29316
1.29314
1.29313
1.29312
1.29312
1.29312
1.29313
1.29312
1.29311
1.29309
1.29317
1.29317
1.29317
1.29317
1.29317
1.29317
1.29317
1.29316
1.29316
1.29316
1.29316
1.29315
1.29314
1.29313
1.29312
1.29312
1.29312
1.29312
1.29312
1.29311
1.2931
1.29308
1.29307
1.29316
1.29316
1.29316
1.29316
1.29316
1.29316
1.29316
1.29315
1.29315
1.29315
1.29314
1.29313
1.29312
1.29311
1.29311
1.29312
1.29312
1.29311
1.2931
1.29309
1.29308
1.29307
1.29306
1.29315
1.29315
1.29315
1.29315
1.29315
1.29314
1.29314
1.29314
1.29313
1.29313
1.29312
1.29311
1.29311
1.29311
1.29311
1.29311
1.29311
1.2931
1.29308
1.29307
1.29307
1.29306
1.29306
1.29313
1.29313
1.29313
1.29313
1.29313
1.29313
1.29313
1.29312
1.29311
1.29311
1.2931
1.2931
1.29311
1.29311
1.29311
1.2931
1.29309
1.29308
1.29307
1.29306
1.29306
1.29306
1.29305
1.29312
1.29312
1.29312
1.29312
1.29312
1.29311
1.29311
1.2931
1.2931
1.2931
1.2931
1.2931
1.2931
1.2931
1.2931
1.29309
1.29308
1.29307
1.29306
1.29306
1.29306
1.29306
1.29305
1.29311
1.2931
1.2931
1.2931
1.2931
1.2931
1.2931
1.29309
1.29309
1.29309
1.2931
1.2931
1.2931
1.2931
1.29309
1.29308
1.29307
1.29306
1.29306
1.29306
1.29306
1.29306
1.29305
1.29309
1.29309
1.29309
1.29309
1.29309
1.29309
1.29309
1.29309
1.29309
1.29309
1.2931
1.2931
1.2931
1.29309
1.29308
1.29307
1.29307
1.29306
1.29306
1.29306
1.29306
1.29306
1.29306
1.29309
1.29309
1.29308
1.29308
1.29308
1.29308
1.29308
1.29308
1.29309
1.29309
1.29309
1.29309
1.29309
1.29308
1.29307
1.29307
1.29306
1.29306
1.29306
1.29306
1.29306
1.29306
1.29306
1.29308
1.29308
1.29308
1.29308
1.29308
1.29308
1.29308
1.29308
1.29308
1.29309
1.29309
1.29308
1.29308
1.29307
1.29307
1.29307
1.29306
1.29307
1.29307
1.29307
1.29307
1.29307
1.29306
1.29307
1.29307
1.29307
1.29307
1.29307
1.29307
1.29307
1.29308
1.29308
1.29309
1.29308
1.29308
1.29307
1.29307
1.29306
1.29306
1.29307
1.29307
1.29307
1.29307
1.29307
1.29307
1.29307
1.29307
1.29307
1.29307
1.29307
1.29307
1.29307
1.29307
1.29308
1.29308
1.29308
1.29307
1.29307
1.29307
1.29306
1.29306
1.29307
1.29307
1.29307
1.29307
1.29307
1.29307
1.29307
1.29307
1.29306
1.29306
1.29306
1.29306
1.29307
1.29307
1.29307
1.29308
1.29308
1.29307
1.29307
1.29306
1.29306
1.29306
1.29306
1.29307
1.29307
1.29307
1.29307
1.29307
1.29307
1.29307
1.29307
1.29306
1.29306
1.29306
1.29306
1.29306
1.29306
1.29307
1.29307
1.29307
1.29306
1.29306
1.29306
1.29306
1.29306
1.29307
1.29307
1.29307
1.29308
1.29308
1.29308
1.29308
1.29308
1.29308
1.29306
1.29306
1.29306
1.29306
1.29306
1.29307
1.29307
1.29307
1.29306
1.29306
1.29305
1.29305
1.29306
1.29306
1.29307
1.29307
1.29308
1.29308
1.29308
1.29308
1.29308
1.29308
1.29308
1.29305
1.29305
1.29305
1.29305
1.29305
1.29306
1.29306
1.29306
1.29305
1.29305
1.29305
1.29305
1.29306
1.29306
1.29307
1.29308
1.29308
1.29309
1.29309
1.29309
1.29309
1.29308
1.29308
1.29305
1.29305
1.29305
1.29306
1.29306
1.29307
1.29306
1.29306
1.29305
1.29304
1.29305
1.29305
1.29306
1.29307
1.29308
1.29308
1.29309
1.29309
1.29309
1.29308
1.29308
1.29308
1.29308
1.29491
1.29466
1.29626
1.29464
1.29431
1.29353
1.29484
1.29409
1.29222
1.29181
1.29293
1.29352
1.2928
1.29292
1.2933
1.29438
1.29354
1.29409
1.29447
1.29511
1.29331
1.29335
1.29352
1.29368
1.29319
1.29319
1.29317
1.29316
1.29295
1.29292
1.29288
1.29285
1.29294
1.2929
1.29289
1.29288
1.29316
1.29311
1.29308
1.29311
1.29309
1.293
1.29299
1.29281
1.29337
1.29318
1.29334
1.29344
1.2932
1.29321
1.29321
1.29321
1.29321
1.29321
1.29321
1.29321
1.29322
1.29322
1.29322
1.29322
1.29321
1.29321
1.29321
1.29322
1.29321
1.29321
1.29321
1.29322
1.29321
1.29321
1.29321
1.29321
1.29321
1.29321
1.29321
1.29321
1.2932
1.29321
1.29321
1.29321
1.29319
1.29319
1.29319
1.29319
1.29317
1.29316
1.29316
1.29316
1.29314
1.29314
1.29314
1.29314
1.29313
1.29313
1.29313
1.29312
1.29311
1.29311
1.2931
1.2931
1.29308
1.29308
1.29307
1.29307
1.29307
1.29306
1.29306
1.29306
1.29306
1.29305
1.29305
1.29305
1.29305
1.29305
1.29305
1.29304
1.29305
1.29304
1.29304
1.29304
1.29305
1.29304
1.29304
1.29304
1.29305
1.29305
1.29304
1.29304
1.29305
1.29305
1.29305
1.29305
1.29306
1.29305
1.29305
1.29305
1.29306
1.29306
1.29306
1.29305
1.29306
1.29306
1.29306
1.29306
1.29307
1.29307
1.29307
1.29306
1.29307
1.29307
1.29307
1.29307
1.29308
1.29308
1.29307
1.29307
1.29308
1.29308
1.29307
1.29307
1.29308
1.29308
1.29308
1.29308
1.29308
1.29307
1.29307
1.29307
1.29917
1.29906
1.29902
1.29888
1.29934
1.29864
1.30124
1.30136
1.30369
1.30416
1.30323
1.30126
1.29919
1.298
1.29712
1.2987
1.29869
1.30141
1.30207
1.29779
1.29761
1.2993
1.29848
1.29863
1.29856
1.29926
1.30108
1.3028
1.30262
1.30083
1.2998
1.29802
1.29689
1.29661
1.29721
1.29765
1.29825
1.30108
1.29604
1.2974
1.29829
1.29793
1.2988
1.29842
1.30147
1.30044
1.29897
1.29974
1.29856
1.29803
1.2969
1.2961
1.29557
1.29611
1.2956
1.29646
1.2981
1.29456
1.2955
1.29715
1.29633
1.29816
1.29841
1.30227
1.30039
1.29603
1.29315
1.29441
1.2948
1.29543
1.29466
1.29584
1.29495
1.29564
1.29518
1.2968
1.29409
1.29466
1.29377
1.29499
1.29524
1.29744
1.29805
1.29998
1.29376
1.2932
1.29392
1.2932
1.29396
1.29385
1.29465
1.29509
1.29482
1.29467
1.29411
1.29401
1.29335
1.29283
1.29282
1.2938
1.2949
1.29617
1.2969
1.29331
1.29283
1.29286
1.29325
1.29323
1.29335
1.2936
1.29368
1.2937
1.29353
1.29347
1.29316
1.29287
1.29269
1.29268
1.29333
1.29341
1.29432
1.29424
1.29307
1.29269
1.29314
1.29281
1.29321
1.29323
1.29328
1.29331
1.29333
1.29333
1.29332
1.29292
1.29283
1.29277
1.29294
1.29337
1.29334
1.29352
1.29329
1.29316
1.29312
1.29306
1.29319
1.29322
1.29321
1.29325
1.29325
1.29325
1.2932
1.29313
1.29286
1.2928
1.29282
1.29304
1.29329
1.29329
1.29313
1.29322
1.2932
1.2932
1.29315
1.29314
1.29318
1.29322
1.29323
1.29324
1.29323
1.29313
1.29298
1.29323
1.29319
1.2931
1.29326
1.29337
1.2931
1.29316
1.29321
1.29319
1.29316
1.29313
1.29314
1.29319
1.2932
1.29323
1.29323
1.29322
1.29312
1.29284
1.29284
1.29318
1.29333
1.29325
1.29316
1.29322
1.29317
1.29321
1.29316
1.29315
1.29314
1.29316
1.29319
1.29322
1.29322
1.29323
1.29323
1.29318
1.29288
1.29346
1.29343
1.29324
1.29319
1.29315
1.29319
1.29322
1.29321
1.29318
1.29316
1.29316
1.29317
1.2932
1.29321
1.29322
1.29322
1.29323
1.29321
1.29302
1.29322
1.29321
1.29318
1.29316
1.29318
1.29319
1.29321
1.29321
1.29318
1.29318
1.29317
1.29318
1.29319
1.2932
1.29322
1.29322
1.29323
1.29321
1.2932
1.29321
1.2932
1.29316
1.29315
1.29315
1.2932
1.2932
1.29319
1.29317
1.29316
1.29316
1.29315
1.29318
1.2932
1.29322
1.29322
1.29323
1.29321
1.29335
1.29322
1.29321
1.29318
1.29312
1.29312
1.29315
1.29316
1.29314
1.29309
1.29307
1.29309
1.29312
1.29316
1.29319
1.29321
1.29322
1.29322
1.29321
1.29339
1.29322
1.29322
1.29321
1.29315
1.29311
1.2931
1.2931
1.29309
1.29306
1.29305
1.29307
1.2931
1.29316
1.29319
1.29322
1.29322
1.29322
1.29321
1.29335
1.29322
1.29322
1.29322
1.29321
1.29317
1.29312
1.2931
1.29308
1.29307
1.29308
1.2931
1.29314
1.29318
1.2932
1.29322
1.29322
1.29322
1.29321
1.29328
1.29321
1.29322
1.29322
1.29322
1.29321
1.29319
1.29316
1.29313
1.29314
1.29315
1.29317
1.29319
1.2932
1.29321
1.29322
1.29322
1.29322
1.29322
1.29325
1.29321
1.29321
1.29322
1.29322
1.29322
1.29322
1.29321
1.29321
1.2932
1.2932
1.2932
1.29321
1.29321
1.29321
1.29322
1.29322
1.29322
1.29322
1.29324
1.29321
1.29321
1.29321
1.29321
1.29321
1.29321
1.29321
1.29321
1.29321
1.29321
1.29321
1.29321
1.29321
1.29321
1.29322
1.29322
1.29322
1.29322
1.29323
1.29319
1.29319
1.29319
1.29319
1.29319
1.29319
1.29319
1.29319
1.29319
1.29319
1.29319
1.29319
1.2932
1.2932
1.29321
1.29322
1.29322
1.29322
1.29323
1.29316
1.29316
1.29316
1.29315
1.29315
1.29315
1.29315
1.29315
1.29315
1.29315
1.29316
1.29316
1.29317
1.29318
1.29319
1.29321
1.29322
1.29322
1.29322
1.29314
1.29313
1.29313
1.29312
1.29312
1.29311
1.29311
1.29311
1.29311
1.29311
1.29312
1.29313
1.29315
1.29316
1.29318
1.2932
1.29321
1.29321
1.29322
1.29312
1.29311
1.29309
1.29308
1.29308
1.29307
1.29306
1.29306
1.29306
1.29307
1.29308
1.2931
1.29312
1.29314
1.29317
1.29318
1.29321
1.29321
1.29321
1.29309
1.29307
1.29306
1.29305
1.29305
1.29303
1.29303
1.29302
1.29302
1.29302
1.29304
1.29306
1.29309
1.29313
1.29315
1.29317
1.2932
1.29321
1.29321
1.29306
1.29305
1.29304
1.29303
1.29302
1.29301
1.293
1.29299
1.29298
1.29299
1.293
1.29302
1.29305
1.2931
1.29314
1.29316
1.29319
1.2932
1.29321
1.29305
1.29304
1.29303
1.29302
1.293
1.29299
1.29298
1.29297
1.29296
1.29296
1.29297
1.29298
1.29301
1.29306
1.29312
1.29315
1.29318
1.2932
1.2932
1.29304
1.29303
1.29302
1.293
1.29299
1.29298
1.29297
1.29296
1.29295
1.29294
1.29294
1.29296
1.29298
1.29302
1.29309
1.29314
1.29317
1.29319
1.2932
1.29303
1.29302
1.29301
1.293
1.29299
1.29298
1.29296
1.29295
1.29294
1.29292
1.29292
1.29293
1.29295
1.29299
1.29305
1.29312
1.29317
1.29319
1.29319
1.29303
1.29302
1.29301
1.29299
1.29298
1.29297
1.29296
1.29294
1.29293
1.29291
1.2929
1.29291
1.29293
1.29296
1.29302
1.29309
1.29315
1.29318
1.29319
1.29303
1.29302
1.29301
1.29299
1.29298
1.29297
1.29296
1.29294
1.29292
1.2929
1.29289
1.29289
1.29291
1.29293
1.29299
1.29307
1.29314
1.29318
1.29318
1.29304
1.29302
1.29301
1.293
1.29298
1.29297
1.29296
1.29294
1.29292
1.2929
1.29287
1.29287
1.29289
1.29291
1.29296
1.29304
1.29312
1.29317
1.29318
1.29304
1.29303
1.29302
1.293
1.29299
1.29297
1.29296
1.29294
1.29292
1.29289
1.29287
1.29286
1.29287
1.29289
1.29293
1.293
1.2931
1.29316
1.29317
1.29304
1.29303
1.29302
1.29301
1.29299
1.29298
1.29296
1.29294
1.29292
1.29289
1.29286
1.29284
1.29285
1.29287
1.29291
1.29298
1.29308
1.29315
1.29316
1.29305
1.29304
1.29303
1.29301
1.29299
1.29298
1.29296
1.29294
1.29291
1.29288
1.29285
1.29282
1.29283
1.29285
1.29289
1.29295
1.29306
1.29314
1.29316
1.29305
1.29304
1.29303
1.29301
1.293
1.29298
1.29296
1.29294
1.29291
1.29288
1.29284
1.29281
1.29281
1.29283
1.29287
1.29293
1.29304
1.29313
1.29315
1.29306
1.29305
1.29303
1.29302
1.293
1.29299
1.29297
1.29294
1.29291
1.29287
1.29283
1.29279
1.29279
1.29282
1.29285
1.29291
1.29301
1.29312
1.29314
1.29306
1.29305
1.29304
1.29302
1.293
1.29299
1.29297
1.29294
1.29291
1.29287
1.29282
1.29278
1.29278
1.2928
1.29284
1.2929
1.293
1.29311
1.29313
1.29307
1.29306
1.29304
1.29303
1.29301
1.29299
1.29297
1.29294
1.29291
1.29287
1.29282
1.29277
1.29276
1.29279
1.29284
1.29289
1.29299
1.2931
1.29312
1.29307
1.29306
1.29304
1.29303
1.29301
1.29299
1.29297
1.29294
1.2929
1.29286
1.29281
1.29276
1.29274
1.29278
1.29284
1.2929
1.29299
1.29309
1.29312
1.29307
1.29306
1.29305
1.29303
1.29301
1.29299
1.29297
1.29294
1.29291
1.29286
1.29281
1.29275
1.29273
1.29276
1.29284
1.2929
1.29299
1.29309
1.29311
1.29306
1.29305
1.29304
1.29302
1.293
1.29298
1.29296
1.29293
1.2929
1.29285
1.2928
1.29275
1.29273
1.29276
1.29284
1.29291
1.293
1.29309
1.2931
)
;

boundaryField
{
    leftWall
    {
        type            calculated;
        value           nonuniform List<scalar> 
50
(
1.30406
1.30328
1.30249
1.30163
1.3008
1.29987
1.29898
1.29798
1.29649
1.29432
1.29348
1.29342
1.29339
1.29336
1.29332
1.29329
1.29326
1.29324
1.29322
1.29321
1.29321
1.2932
1.2932
1.2932
1.2932
1.2932
1.29319
1.29319
1.29319
1.29319
1.29318
1.29318
1.29318
1.29317
1.29317
1.29316
1.29315
1.29313
1.29312
1.29311
1.29309
1.29309
1.29308
1.29307
1.29307
1.29306
1.29306
1.29306
1.29305
1.29305
)
;
    }
    rightWall
    {
        type            calculated;
        value           nonuniform List<scalar> 
50
(
1.30924
1.30813
1.30737
1.30654
1.30596
1.30482
1.30383
1.30277
1.30207
1.30108
1.2981
1.2968
1.29411
1.29347
1.29332
1.29313
1.29298
1.29284
1.29288
1.29302
1.2932
1.29335
1.29339
1.29335
1.29328
1.29325
1.29324
1.29323
1.29323
1.29322
1.29322
1.29321
1.29321
1.29321
1.2932
1.2932
1.29319
1.29319
1.29318
1.29318
1.29317
1.29316
1.29316
1.29315
1.29314
1.29313
1.29312
1.29312
1.29311
1.2931
)
;
    }
    lowerWall
    {
        type            calculated;
        value           nonuniform List<scalar> 
62
(
1.30444
1.30448
1.30457
1.30469
1.30481
1.30495
1.30506
1.30514
1.3052
1.30522
1.30524
1.30524
1.30528
1.30527
1.30532
1.3053
1.3053
1.30522
1.30512
1.30494
1.30472
1.30454
1.30451
1.30413
1.30336
1.30258
1.30175
1.30088
1.29997
1.2988
1.29778
1.29536
1.29518
1.29693
1.29537
1.31776
1.31675
1.31274
1.31004
1.30646
1.30447
1.30202
1.30116
1.31811
1.31085
1.30615
1.30398
1.30381
1.30615
1.30408
1.30348
1.30289
1.30268
1.30273
1.30309
1.30616
1.30698
1.30585
1.30674
1.30745
1.3088
1.30959
)
;
    }
    atmosphere
    {
        type            calculated;
        value           nonuniform List<scalar> 
46
(
1.29314
1.29314
1.29314
1.29314
1.29315
1.29315
1.29315
1.29314
1.29314
1.29314
1.29314
1.29315
1.29316
1.29316
1.29317
1.29318
1.29318
1.29318
1.29318
1.29318
1.29318
1.29317
1.29317
1.29317
1.29317
1.29317
1.29316
1.29316
1.29315
1.29314
1.29312
1.2931
1.29308
1.29306
1.29303
1.29299
1.29295
1.29289
1.29284
1.29282
1.29285
1.29294
1.29301
1.29309
1.29318
1.29319
)
;
    }
    defaultFaces
    {
        type            empty;
    }
}


// ************************************************************************* //
