/*--------------------------------*- C++ -*----------------------------------*\
| =========                 |                                                 |
| \\      /  F ield         | OpenFOAM: The Open Source CFD Toolbox           |
|  \\    /   O peration     | Version:  2012                                  |
|   \\  /    A nd           | Website:  www.openfoam.com                      |
|    \\/     M anipulation  |                                                 |
\*---------------------------------------------------------------------------*/
FoamFile
{
    version     2.0;
    format      ascii;
    class       volVectorField;
    location    "0.82";
    object      Uc;
}
// * * * * * * * * * * * * * * * * * * * * * * * * * * * * * * * * * * * * * //

dimensions      [0 1 -1 0 0 0 0];


internalField   nonuniform List<vector> 
2268
(
(-0.0268624 0.0126949 0)
(-0.0794362 0.012151 0)
(-0.129921 0.0117075 0)
(-0.177134 0.0106049 0)
(-0.218163 0.00878511 0)
(-0.251259 0.00685598 0)
(-0.276447 0.00504765 0)
(-0.293442 0.00298424 0)
(-0.301963 0.00104242 0)
(-0.303162 -0.000475379 0)
(-0.298205 -0.00186727 0)
(-0.287376 -0.00325069 0)
(-0.271587 -0.00421079 0)
(-0.251568 -0.00525045 0)
(-0.227263 -0.00623551 0)
(-0.197705 -0.00773358 0)
(-0.161463 -0.00939396 0)
(-0.119134 -0.0106106 0)
(-0.0722646 -0.0115394 0)
(-0.0259663 -0.0103408 0)
(0.00847059 -0.00593378 0)
(0.0274426 -0.00303222 0)
(0.0169294 0.00800072 0)
(-0.0270668 0.0381815 0)
(-0.080021 0.0365362 0)
(-0.130797 0.0351774 0)
(-0.178214 0.0318564 0)
(-0.219487 0.0264289 0)
(-0.252853 0.0206216 0)
(-0.278018 0.0150784 0)
(-0.29472 0.0088786 0)
(-0.303109 0.00313925 0)
(-0.304299 -0.00144283 0)
(-0.299108 -0.00569562 0)
(-0.288031 -0.00977496 0)
(-0.272292 -0.0125862 0)
(-0.252512 -0.0156842 0)
(-0.228366 -0.0186988 0)
(-0.198794 -0.0232152 0)
(-0.162409 -0.0282348 0)
(-0.119744 -0.0319375 0)
(-0.0724383 -0.034719 0)
(-0.0255632 -0.0311943 0)
(0.00967977 -0.0180105 0)
(0.0261558 -0.00770798 0)
(0.0148167 0.0230038 0)
(-0.0276585 0.0640442 0)
(-0.0814508 0.061121 0)
(-0.132664 0.0587918 0)
(-0.180638 0.053323 0)
(-0.222744 0.0443668 0)
(-0.256887 0.0345878 0)
(-0.28257 0.0251428 0)
(-0.299477 0.0146975 0)
(-0.307622 0.00513405 0)
(-0.308117 -0.00264125 0)
(-0.302122 -0.00978374 0)
(-0.290662 -0.0163373 0)
(-0.27488 -0.0209203 0)
(-0.255062 -0.0260643 0)
(-0.230649 -0.0312669 0)
(-0.200481 -0.0388798 0)
(-0.16331 -0.0473321 0)
(-0.119224 -0.0538384 0)
(-0.0696042 -0.0586243 0)
(-0.0178044 -0.053922 0)
(0.02459 -0.0319736 0)
(0.0420805 -0.00979706 0)
(0.0215116 0.0401724 0)
(-0.0281014 0.090396 0)
(-0.082737 0.0860114 0)
(-0.134802 0.0827098 0)
(-0.183588 0.0751329 0)
(-0.226532 0.0627511 0)
(-0.261514 0.0488717 0)
(-0.287387 0.0352235 0)
(-0.303777 0.0203523 0)
(-0.311367 0.0069154 0)
(-0.31147 -0.00413994 0)
(-0.305023 -0.0141648 0)
(-0.293237 -0.0229422 0)
(-0.277392 -0.0292616 0)
(-0.257899 -0.0363016 0)
(-0.234317 -0.0437115 0)
(-0.205147 -0.0544775 0)
(-0.168487 -0.0666265 0)
(-0.123628 -0.0765788 0)
(-0.0711337 -0.0841421 0)
(-0.0130731 -0.0803233 0)
(0.0381806 -0.0498297 0)
(0.0589128 -0.0100047 0)
(0.0292047 0.0641406 0)
(-0.0290714 0.117415 0)
(-0.0855064 0.111483 0)
(-0.13917 0.107205 0)
(-0.189489 0.0974741 0)
(-0.233895 0.081691 0)
(-0.27005 0.063551 0)
(-0.296691 0.0453618 0)
(-0.313159 0.0257425 0)
(-0.319884 0.00829038 0)
(-0.318536 -0.00610358 0)
(-0.31085 -0.0188798 0)
(-0.298547 -0.0296121 0)
(-0.282615 -0.0376089 0)
(-0.26321 -0.0463372 0)
(-0.239575 -0.0559904 0)
(-0.209842 -0.0700356 0)
(-0.172106 -0.0862274 0)
(-0.124723 -0.100571 0)
(-0.0675287 -0.111988 0)
(0.000304179 -0.111973 0)
(0.0655677 -0.0732448 0)
(0.089869 -0.00787214 0)
(0.04293 0.098231 0)
(-0.0296001 0.145143 0)
(-0.0873707 0.137728 0)
(-0.142486 0.132368 0)
(-0.194123 0.120494 0)
(-0.240278 0.101469 0)
(-0.278336 0.0788453 0)
(-0.305557 0.0555222 0)
(-0.321179 0.0307476 0)
(-0.326837 0.00913733 0)
(-0.324508 -0.00868805 0)
(-0.315676 -0.0241017 0)
(-0.302275 -0.036538 0)
(-0.285788 -0.0460039 0)
(-0.267045 -0.0559706 0)
(-0.245202 -0.0678496 0)
(-0.217441 -0.0853474 0)
(-0.180913 -0.106013 0)
(-0.133509 -0.125581 0)
(-0.0725357 -0.142823 0)
(0.00608379 -0.150351 0)
(0.0857693 -0.103369 0)
(0.11628 -0.00365211 0)
(0.05568 0.144833 0)
(-0.0310434 0.173803 0)
(-0.0920965 0.165224 0)
(-0.15023 0.158393 0)
(-0.2038 0.144189 0)
(-0.251043 0.121914 0)
(-0.289853 0.094728 0)
(-0.318106 0.065856 0)
(-0.334211 0.0354076 0)
(-0.338784 0.00931234 0)
(-0.334345 -0.0120609 0)
(-0.323874 -0.0298518 0)
(-0.309924 -0.0437136 0)
(-0.293914 -0.054186 0)
(-0.276501 -0.0648755 0)
(-0.255574 -0.0791573 0)
(-0.227184 -0.100576 0)
(-0.188868 -0.126154 0)
(-0.139177 -0.151326 0)
(-0.0742451 -0.17658 0)
(0.0130466 -0.195002 0)
(0.104657 -0.139671 0)
(0.142308 0.000436766 0)
(0.0692882 0.203892 0)
(-0.0315416 0.20338 0)
(-0.0945629 0.194283 0)
(-0.15572 0.185709 0)
(-0.213083 0.169298 0)
(-0.265737 0.144015 0)
(-0.309168 0.111493 0)
(-0.337343 0.0757581 0)
(-0.3497 0.0389564 0)
(-0.350447 0.00827777 0)
(-0.343353 -0.0164766 0)
(-0.3306 -0.0364115 0)
(-0.314396 -0.0514046 0)
(-0.297407 -0.0620898 0)
(-0.281142 -0.0728873 0)
(-0.262615 -0.0897914 0)
(-0.236285 -0.115803 0)
(-0.199742 -0.146305 0)
(-0.152779 -0.176852 0)
(-0.0895196 -0.211636 0)
(-0.000956951 -0.243054 0)
(0.0971087 -0.181257 0)
(0.142531 0.00276712 0)
(0.0706686 0.270035 0)
(-0.373909 0.159 0)
(-0.978902 0.098217 0)
(-1.34478 0.0572806 0)
(-1.5402 0.0257824 0)
(-1.61252 0.00514468 0)
(-1.64348 0.00816441 0)
(-1.73013 0.0286867 0)
(-1.85985 0.0265332 0)
(-1.9621 0.0170036 0)
(-2.03224 0.0129255 0)
(-2.07805 0.00668897 0)
(-2.06842 -0.0104524 0)
(-1.929 -0.0486487 0)
(-1.66167 -0.0652246 0)
(-1.37044 -0.058708 0)
(-1.08113 -0.0642688 0)
(-0.776922 -0.065059 0)
(-0.472424 -0.064405 0)
(-0.160475 -0.0682289 0)
(-0.31536 0.452105 0)
(-0.854042 0.291363 0)
(-1.20674 0.169523 0)
(-1.38536 0.0725277 0)
(-1.42714 0.00727842 0)
(-1.4133 0.0136082 0)
(-1.47645 0.086957 0)
(-1.64974 0.0972071 0)
(-1.86187 0.0802 0)
(-2.07493 0.0705399 0)
(-2.23354 0.0367169 0)
(-2.13695 -0.084585 0)
(-1.65586 -0.236925 0)
(-1.10916 -0.223219 0)
(-0.820246 -0.148525 0)
(-0.657831 -0.166636 0)
(-0.478468 -0.168208 0)
(-0.310068 -0.162243 0)
(-0.115716 -0.185674 0)
(-0.289499 0.709394 0)
(-0.753605 0.460545 0)
(-1.01568 0.261659 0)
(-1.12665 0.103532 0)
(-1.14369 0.00172473 0)
(-1.16867 0.0242931 0)
(-1.3143 0.165116 0)
(-1.56576 0.199816 0)
(-1.82169 0.177207 0)
(-1.989 0.13622 0)
(-1.66979 -0.0960637 0)
(-0.752724 -0.381506 0)
(0.0847499 -0.499707 0)
(0.489316 -0.365342 0)
(0.596855 -0.175391 0)
(0.481849 -0.159197 0)
(0.260061 -0.156885 0)
(0.0755477 -0.166272 0)
(0.00328059 -0.233489 0)
(-0.219235 0.925854 0)
(-0.574477 0.592633 0)
(-0.772452 0.325166 0)
(-0.82045 0.107692 0)
(-0.742747 -0.0278364 0)
(-0.706354 0.0493334 0)
(-0.879292 0.275811 0)
(-1.1924 0.329834 0)
(-1.38991 0.241052 0)
(-1.05553 0.00247069 0)
(-0.313036 -0.412718 0)
(0.22068 -0.680579 0)
(0.437044 -0.648572 0)
(0.557948 -0.440346 0)
(0.638031 -0.179601 0)
(0.621215 -0.0980077 0)
(0.495742 -0.0697185 0)
(0.303331 -0.0927327 0)
(0.0998239 -0.189618 0)
(-0.163907 1.08891 0)
(-0.456907 0.705418 0)
(-0.686408 0.394503 0)
(-0.74828 0.0856863 0)
(-0.535763 -0.128761 0)
(-0.233615 0.00648638 0)
(-0.0852838 0.329627 0)
(-0.130131 0.429282 0)
(-0.154165 0.236889 0)
(0.0683992 -0.229282 0)
(0.299274 -0.593681 0)
(0.380742 -0.760013 0)
(0.478346 -0.702113 0)
(0.607317 -0.493026 0)
(0.688759 -0.195664 0)
(0.677591 -0.069991 0)
(0.570758 0.00111602 0)
(0.390404 -0.0049594 0)
(0.143908 -0.0859326 0)
(-0.105433 1.20357 0)
(-0.263853 0.782922 0)
(-0.466313 0.501268 0)
(-0.589332 0.0585846 0)
(-0.335859 -0.299104 0)
(-0.0229189 -0.0845148 0)
(0.14408 0.286826 0)
(0.313605 0.41995 0)
(0.386463 0.226564 0)
(0.341973 -0.2936 0)
(0.298769 -0.607776 0)
(0.308856 -0.783956 0)
(0.420201 -0.766929 0)
(0.589977 -0.555426 0)
(0.68896 -0.21019 0)
(0.670718 -0.0430401 0)
(0.5612 0.0661496 0)
(0.381003 0.0833809 0)
(0.137958 0.033967 0)
(-0.0572558 1.27284 0)
(-0.0380676 0.773196 0)
(-0.0233443 0.591425 0)
(-0.114959 0.0604831 0)
(0.040864 -0.474418 0)
(0.219936 -0.118171 0)
(0.218143 0.250284 0)
(0.236758 0.376831 0)
(0.260146 0.229625 0)
(0.241569 -0.268567 0)
(0.171424 -0.58358 0)
(0.122131 -0.791136 0)
(0.165696 -0.825684 0)
(0.289675 -0.621634 0)
(0.373791 -0.221629 0)
(0.363872 -0.0194303 0)
(0.311902 0.111408 0)
(0.229355 0.150008 0)
(0.0889026 0.130469 0)
(-0.0013914 1.29784 0)
(0.0597124 0.714422 0)
(0.215729 0.578203 0)
(0.320473 0.0687453 0)
(0.355432 -0.563462 0)
(0.366369 -0.109869 0)
(0.325428 0.260223 0)
(0.266765 0.383932 0)
(0.220125 0.232666 0)
(0.138787 -0.228465 0)
(0.00535851 -0.536674 0)
(-0.0878411 -0.777276 0)
(-0.11727 -0.844936 0)
(-0.0991281 -0.661866 0)
(-0.0857101 -0.222233 0)
(-0.091098 -0.0118993 0)
(-0.0304242 0.100573 0)
(0.0395134 0.166412 0)
(0.0262751 0.179527 0)
(-0.0328824 0.25134 0)
(-0.09872 0.242287 0)
(-0.162209 0.230427 0)
(-0.220701 0.210487 0)
(-0.273692 0.180978 0)
(-0.31911 0.14071 0)
(-0.352555 0.0934772 0)
(-0.369834 0.0444463 0)
(-0.370931 0.00424288 0)
(-0.359679 -0.0271046 0)
(-0.341452 -0.0501328 0)
(-0.321824 -0.0650716 0)
(-0.305649 -0.0727109 0)
(-0.293606 -0.0820578 0)
(-0.279263 -0.103795 0)
(-0.25588 -0.137747 0)
(-0.222354 -0.175333 0)
(-0.175895 -0.216722 0)
(-0.10861 -0.269298 0)
(-0.0159476 -0.320391 0)
(0.100884 -0.267698 0)
(0.214767 -0.0466496 0)
(0.302358 0.265482 0)
(-0.0401304 0.324834 0)
(-0.120605 0.316029 0)
(-0.198767 0.299128 0)
(-0.272406 0.274565 0)
(-0.340255 0.238295 0)
(-0.390345 0.17933 0)
(-0.41079 0.109001 0)
(-0.406279 0.0417553 0)
(-0.387793 -0.0105423 0)
(-0.361503 -0.0500534 0)
(-0.33336 -0.0737849 0)
(-0.311539 -0.0830703 0)
(-0.299489 -0.083081 0)
(-0.296218 -0.0870745 0)
(-0.294002 -0.115419 0)
(-0.281347 -0.162341 0)
(-0.257988 -0.20791 0)
(-0.227129 -0.261861 0)
(-0.187907 -0.33122 0)
(-0.144555 -0.39519 0)
(-0.0836015 -0.371608 0)
(0.00239498 -0.14346 0)
(0.128048 0.148407 0)
(-0.0521893 0.418304 0)
(-0.163958 0.417148 0)
(-0.285463 0.399998 0)
(-0.399014 0.362998 0)
(-0.49723 0.317784 0)
(-0.592765 0.247175 0)
(-0.676294 0.146109 0)
(-0.712864 0.0369766 0)
(-0.687883 -0.0493258 0)
(-0.628609 -0.0969382 0)
(-0.567592 -0.115897 0)
(-0.511768 -0.118536 0)
(-0.472135 -0.0992595 0)
(-0.455375 -0.0907865 0)
(-0.441361 -0.127754 0)
(-0.417726 -0.186272 0)
(-0.395821 -0.229359 0)
(-0.386801 -0.280467 0)
(-0.392839 -0.345966 0)
(-0.413117 -0.403709 0)
(-0.434143 -0.403334 0)
(-0.413809 -0.217945 0)
(-0.315362 -0.00145266 0)
(-0.153327 0.625516 0)
(-0.533999 0.706275 0)
(-1.02824 0.731333 0)
(-1.47616 0.598212 0)
(-1.72135 0.430781 0)
(-1.76965 0.28035 0)
(-1.69801 0.125201 0)
(-1.5698 -0.0334715 0)
(-1.41961 -0.152817 0)
(-1.27427 -0.196841 0)
(-1.17097 -0.180593 0)
(-1.1024 -0.179514 0)
(-1.01284 -0.168934 0)
(-0.902419 -0.148452 0)
(-0.812883 -0.173332 0)
(-0.745121 -0.232385 0)
(-0.682306 -0.26873 0)
(-0.623471 -0.309826 0)
(-0.577477 -0.357395 0)
(-0.56699 -0.383172 0)
(-0.603605 -0.366717 0)
(-0.649909 -0.228178 0)
(-0.667228 -0.0716614 0)
(-0.25564 1.03668 0)
(-0.835174 1.2605 0)
(-1.44116 1.28345 0)
(-1.89543 0.954257 0)
(-2.11346 0.543235 0)
(-2.08855 0.196833 0)
(-1.92867 -0.0199596 0)
(-1.7597 -0.186356 0)
(-1.63225 -0.277935 0)
(-1.62105 -0.230102 0)
(-1.70275 -0.170991 0)
(-1.66568 -0.295285 0)
(-1.43562 -0.374198 0)
(-1.14146 -0.348523 0)
(-0.892282 -0.312185 0)
(-0.800209 -0.253716 0)
(-0.830785 -0.279871 0)
(-0.809936 -0.379066 0)
(-0.707588 -0.437618 0)
(-0.602466 -0.419485 0)
(-0.54804 -0.348922 0)
(-0.552486 -0.195357 0)
(-0.605663 -0.0324977 0)
(-0.278582 1.57372 0)
(-0.818262 1.8486 0)
(-1.26315 1.75188 0)
(-1.58205 1.26341 0)
(-1.80355 0.677018 0)
(-1.90283 0.143605 0)
(-1.89936 -0.124996 0)
(-1.87743 -0.272756 0)
(-1.93459 -0.265026 0)
(-2.06418 -0.128218 0)
(-2.03228 -0.22368 0)
(-1.81564 -0.494347 0)
(-1.61689 -0.602134 0)
(-1.44052 -0.590286 0)
(-1.2281 -0.532299 0)
(-0.999193 -0.355217 0)
(-0.825323 -0.321776 0)
(-0.750743 -0.432587 0)
(-0.704425 -0.533031 0)
(-0.629353 -0.504653 0)
(-0.562068 -0.385526 0)
(-0.470545 -0.245858 0)
(-0.389651 -0.00899472 0)
(-0.191427 2.04624 0)
(-0.546957 2.2761 0)
(-0.884531 2.11111 0)
(-1.21222 1.55436 0)
(-1.50768 0.90601 0)
(-1.76075 0.269789 0)
(-1.94016 -0.0725212 0)
(-2.05369 -0.232672 0)
(-2.12789 -0.174886 0)
(-2.03947 -0.178187 0)
(-1.7734 -0.470924 0)
(-1.5885 -0.644552 0)
(-1.54209 -0.69295 0)
(-1.51721 -0.700468 0)
(-1.47616 -0.676133 0)
(-1.36258 -0.554085 0)
(-1.19318 -0.467051 0)
(-1.12477 -0.430568 0)
(-1.1722 -0.533479 0)
(-1.17415 -0.577272 0)
(-1.07637 -0.478103 0)
(-0.930377 -0.391285 0)
(-0.678383 -0.197691 0)
(-0.0575916 2.29662 0)
(-0.162133 2.48833 0)
(-0.321798 2.39892 0)
(-0.587667 1.86344 0)
(-0.912088 1.22019 0)
(-1.28801 0.587963 0)
(-1.64603 0.149626 0)
(-1.86064 -0.124877 0)
(-1.86273 -0.205885 0)
(-1.71262 -0.386901 0)
(-1.58554 -0.655521 0)
(-1.51562 -0.709435 0)
(-1.45866 -0.727804 0)
(-1.41983 -0.7317 0)
(-1.401 -0.706778 0)
(-1.39411 -0.645811 0)
(-1.3867 -0.552811 0)
(-1.37644 -0.422356 0)
(-1.42647 -0.443233 0)
(-1.62027 -0.470301 0)
(-1.85134 -0.450675 0)
(-1.96769 -0.448124 0)
(-1.87717 -0.484736 0)
(0.0393832 2.315 0)
(0.146023 2.46799 0)
(0.232601 2.49291 0)
(0.169102 2.10073 0)
(-0.0602029 1.53964 0)
(-0.394324 0.982328 0)
(-0.768052 0.490882 0)
(-1.11914 0.102593 0)
(-1.40879 -0.140025 0)
(-1.59074 -0.420679 0)
(-1.62637 -0.713021 0)
(-1.53911 -0.807235 0)
(-1.42794 -0.79659 0)
(-1.34958 -0.780363 0)
(-1.30419 -0.724536 0)
(-1.29699 -0.646206 0)
(-1.31534 -0.544441 0)
(-1.32318 -0.433041 0)
(-1.34078 -0.362992 0)
(-1.4776 -0.217411 0)
(-1.73601 -0.211062 0)
(-1.97266 -0.332454 0)
(-2.20491 -0.457408 0)
(0.0798071 2.19524 0)
(0.277521 2.28192 0)
(0.5285 2.3398 0)
(0.735193 2.11005 0)
(0.805271 1.69051 0)
(0.738533 1.23451 0)
(0.555122 0.798827 0)
(0.260546 0.443753 0)
(-0.107021 0.179528 0)
(-0.457526 -0.204926 0)
(-0.749595 -0.5993 0)
(-0.985063 -0.771893 0)
(-1.14057 -0.786363 0)
(-1.21492 -0.793096 0)
(-1.2342 -0.738124 0)
(-1.2388 -0.635656 0)
(-1.25964 -0.517626 0)
(-1.28377 -0.429114 0)
(-1.27655 -0.356283 0)
(-1.17906 -0.184447 0)
(-1.00987 -0.15291 0)
(-0.889458 -0.272448 0)
(-0.843063 -0.329132 0)
(0.0903378 2.02426 0)
(0.295722 2.0478 0)
(0.547604 2.06854 0)
(0.793084 1.92689 0)
(0.95538 1.6402 0)
(1.01714 1.28993 0)
(0.993729 0.95139 0)
(0.909393 0.672158 0)
(0.791431 0.43925 0)
(0.588531 0.0917002 0)
(0.258748 -0.270771 0)
(-0.101318 -0.50172 0)
(-0.392581 -0.607367 0)
(-0.612876 -0.675849 0)
(-0.850953 -0.596135 0)
(-1.11697 -0.504139 0)
(-1.23266 -0.509331 0)
(-1.18644 -0.458089 0)
(-1.11404 -0.40928 0)
(-1.03933 -0.306759 0)
(-0.951425 -0.288904 0)
(-0.877057 -0.330195 0)
(-0.845508 -0.348032 0)
(0.0911927 1.84183 0)
(0.283811 1.83024 0)
(0.502242 1.81341 0)
(0.727345 1.70905 0)
(0.904436 1.51697 0)
(0.999752 1.25537 0)
(1.01733 0.9919 0)
(0.973586 0.760482 0)
(0.887314 0.5563 0)
(0.765697 0.300921 0)
(0.595565 0.0225841 0)
(0.389134 -0.22557 0)
(0.186389 -0.386876 0)
(-0.0127586 -0.474645 0)
(-0.21893 -0.350698 0)
(-0.398974 -0.300931 0)
(-0.541651 -0.450807 0)
(-0.704544 -0.397554 0)
(-0.900544 -0.346386 0)
(-1.01245 -0.333484 0)
(-0.975883 -0.385926 0)
(-0.869131 -0.413378 0)
(-0.752835 -0.414935 0)
(0.0822167 1.66755 0)
(0.248474 1.64385 0)
(0.422342 1.60555 0)
(0.59873 1.51342 0)
(0.755431 1.37715 0)
(0.867271 1.18704 0)
(0.922782 0.986845 0)
(0.927715 0.80463 0)
(0.894359 0.632476 0)
(0.820592 0.421215 0)
(0.699322 0.195271 0)
(0.536531 -0.0270525 0)
(0.348591 -0.192611 0)
(0.167093 -0.286217 0)
(0.0719873 -0.236215 0)
(0.0602407 -0.222554 0)
(-0.0243919 -0.300621 0)
(-0.213762 -0.19358 0)
(-0.416945 -0.149045 0)
(-0.578704 -0.255129 0)
(-0.681508 -0.395271 0)
(-0.742528 -0.449138 0)
(-0.783694 -0.456755 0)
(0.0710671 1.51351 0)
(0.212592 1.48859 0)
(0.353768 1.4442 0)
(0.489705 1.36089 0)
(0.610087 1.25123 0)
(0.704582 1.10562 0)
(0.766873 0.949918 0)
(0.797214 0.806171 0)
(0.797543 0.664205 0)
(0.768171 0.493232 0)
(0.706585 0.307126 0)
(0.614546 0.11731 0)
(0.502644 -0.0355048 0)
(0.38372 -0.14127 0)
(0.268131 -0.169305 0)
(0.162424 -0.171334 0)
(0.0803699 -0.184223 0)
(0.0665869 -0.105702 0)
(0.120906 -0.0872161 0)
(0.145975 -0.179485 0)
(0.0719357 -0.293084 0)
(-0.0723139 -0.344946 0)
(-0.231214 -0.359815 0)
(0.0592202 1.38258 0)
(0.175981 1.35996 0)
(0.289677 1.3167 0)
(0.396293 1.24464 0)
(0.489295 1.15305 0)
(0.562478 1.03531 0)
(0.613869 0.906017 0)
(0.649398 0.783926 0)
(0.670629 0.664843 0)
(0.668189 0.524638 0)
(0.63534 0.370711 0)
(0.571837 0.21014 0)
(0.482393 0.0741243 0)
(0.376912 -0.0252631 0)
(0.278507 -0.0701396 0)
(0.202337 -0.0876105 0)
(0.130864 -0.113557 0)
(0.066004 -0.0972525 0)
(0.0223194 -0.106294 0)
(-0.0066667 -0.156407 0)
(-0.0341247 -0.214072 0)
(-0.0646464 -0.248212 0)
(-0.0926499 -0.268608 0)
(0.0489938 1.27384 0)
(0.145458 1.25444 0)
(0.238324 1.21466 0)
(0.324148 1.15332 0)
(0.399116 1.0756 0)
(0.459049 0.979021 0)
(0.500419 0.869133 0)
(0.525943 0.759504 0)
(0.541137 0.652716 0)
(0.545085 0.535314 0)
(0.529627 0.408658 0)
(0.489376 0.27655 0)
(0.42713 0.160258 0)
(0.352275 0.069942 0)
(0.275231 0.0110802 0)
(0.205404 -0.0220087 0)
(0.151562 -0.0531305 0)
(0.123011 -0.0637199 0)
(0.114466 -0.0872635 0)
(0.10102 -0.132724 0)
(0.0667634 -0.175658 0)
(0.0177453 -0.206612 0)
(-0.0380843 -0.225878 0)
(0.0391891 1.18523 0)
(0.116194 1.16874 0)
(0.189753 1.13313 0)
(0.257171 1.08087 0)
(0.315955 1.01366 0)
(0.363603 0.932884 0)
(0.397713 0.839463 0)
(0.418497 0.74269 0)
(0.428088 0.644682 0)
(0.426633 0.540904 0)
(0.410756 0.434629 0)
(0.376868 0.325166 0)
(0.325764 0.225645 0)
(0.263837 0.142112 0)
(0.200738 0.0798455 0)
(0.145287 0.035218 0)
(0.0959037 -0.00653376 0)
(0.0519364 -0.03736 0)
(0.0162217 -0.0690737 0)
(-0.0121501 -0.10882 0)
(-0.0341442 -0.142959 0)
(-0.050978 -0.173058 0)
(-0.0638463 -0.190319 0)
(0.0315853 1.11412 0)
(0.0936561 1.10012 0)
(0.152669 1.06856 0)
(0.206281 1.02385 0)
(0.252587 0.965115 0)
(0.289833 0.896163 0)
(0.316296 0.815361 0)
(0.331733 0.730448 0)
(0.337027 0.642026 0)
(0.332591 0.549545 0)
(0.317699 0.456979 0)
(0.291536 0.36324 0)
(0.254518 0.276214 0)
(0.209731 0.198874 0)
(0.162289 0.134262 0)
(0.118003 0.0811181 0)
(0.0807541 0.0347099 0)
(0.0520438 -0.00548854 0)
(0.0303809 -0.0432103 0)
(0.00919485 -0.0848097 0)
(-0.0162339 -0.119243 0)
(-0.0426586 -0.153234 0)
(-0.0651415 -0.174551 0)
(0.0239827 1.0583 0)
(0.0712534 1.0461 0)
(0.116174 1.01817 0)
(0.156777 0.979598 0)
(0.19153 0.92795 0)
(0.219014 0.868325 0)
(0.237894 0.797684 0)
(0.247597 0.722917 0)
(0.248231 0.643661 0)
(0.239805 0.560901 0)
(0.222287 0.478265 0)
(0.195905 0.394834 0)
(0.161802 0.316171 0)
(0.122832 0.24317 0)
(0.0820826 0.178676 0)
(0.0428757 0.120691 0)
(0.00637802 0.0693267 0)
(-0.0263116 0.0216718 0)
(-0.0531912 -0.0215183 0)
(-0.0739124 -0.0643201 0)
(-0.0886244 -0.0993271 0)
(-0.0985008 -0.136605 0)
(-0.102636 -0.16437 0)
(0.0182415 1.01589 0)
(0.0541914 1.00492 0)
(0.0880634 0.980213 0)
(0.118196 0.946519 0)
(0.143441 0.900783 0)
(0.162632 0.848636 0)
(0.174849 0.786175 0)
(0.17971 0.719847 0)
(0.177344 0.648533 0)
(0.167936 0.574016 0)
(0.151827 0.499012 0)
(0.129467 0.423142 0)
(0.101694 0.35012 0)
(0.070192 0.280119 0)
(0.0369949 0.216117 0)
(0.00449145 0.155391 0)
(-0.025141 0.101158 0)
(-0.0508179 0.0485674 0)
(-0.07203 -1.59571e-05 0)
(-0.0891685 -0.0477106 0)
(-0.102839 -0.0873525 0)
(-0.112502 -0.128885 0)
(-0.1167 -0.163662 0)
(0.0125374 0.98498 0)
(0.0370252 0.975137 0)
(0.0596541 0.953262 0)
(0.0793198 0.923475 0)
(0.0950743 0.882678 0)
(0.106053 0.836477 0)
(0.111614 0.780526 0)
(0.111122 0.721167 0)
(0.104471 0.656337 0)
(0.0916562 0.588611 0)
(0.0729507 0.519472 0)
(0.0491473 0.449144 0)
(0.0210495 0.380338 0)
(-0.00950093 0.312334 0)
(-0.0406885 0.248678 0)
(-0.0709084 0.185936 0)
(-0.0986457 0.128337 0)
(-0.122786 0.0715192 0)
(-0.141891 0.017614 0)
(-0.154787 -0.0350967 0)
(-0.160719 -0.0802093 0)
(-0.159948 -0.127038 0)
(-0.153239 -0.167983 0)
(0.00822481 0.96414 0)
(0.0241152 0.95545 0)
(0.0380985 0.936208 0)
(0.0492823 0.90958 0)
(0.0570602 0.872979 0)
(0.0609016 0.831339 0)
(0.0604897 0.780547 0)
(0.0553109 0.726905 0)
(0.0454588 0.667247 0)
(0.0309028 0.605273 0)
(0.0120516 0.54062 0)
(-0.0103582 0.474507 0)
(-0.0357131 0.408762 0)
(-0.0628585 0.341962 0)
(-0.0906131 0.278355 0)
(-0.117631 0.21385 0)
(-0.142494 0.153351 0)
(-0.164193 0.0926366 0)
(-0.182072 0.0337262 0)
(-0.19568 -0.0245152 0)
(-0.204229 -0.0761829 0)
(-0.206639 -0.129366 0)
(-0.202951 -0.176058 0)
(0.00308178 0.952804 0)
(0.00951683 0.944403 0)
(0.0151119 0.927634 0)
(0.0184394 0.903626 0)
(0.0188704 0.870739 0)
(0.0159186 0.832743 0)
(0.00928048 0.786288 0)
(-0.0015181 0.737282 0)
(-0.0163132 0.681702 0)
(-0.0351037 0.624395 0)
(-0.0574886 0.563005 0)
(-0.0827665 0.500113 0)
(-0.110237 0.436311 0)
(-0.138605 0.37027 0)
(-0.166752 0.306293 0)
(-0.193621 0.240132 0)
(-0.218135 0.176757 0)
(-0.239348 0.112418 0)
(-0.256585 0.049295 0)
(-0.269726 -0.0131441 0)
(-0.278035 -0.070559 0)
(-0.281292 -0.129246 0)
(-0.281294 -0.179837 0)
(-0.000998483 0.950739 0)
(-0.00281193 0.941881 0)
(-0.0050448 0.926834 0)
(-0.00871005 0.904823 0)
(-0.0146385 0.875126 0)
(-0.0233534 0.840141 0)
(-0.0350731 0.797401 0)
(-0.0499884 0.752073 0)
(-0.0679084 0.699852 0)
(-0.0888531 0.646242 0)
(-0.112498 0.587482 0)
(-0.1383 0.527037 0)
(-0.165745 0.464643 0)
(-0.194289 0.399201 0)
(-0.22297 0.334538 0)
(-0.250787 0.266909 0)
(-0.277108 0.201132 0)
(-0.301405 0.13384 0)
(-0.323803 0.0677648 0)
(-0.344322 0.00227128 0)
(-0.36276 -0.0590407 0)
(-0.380849 -0.119261 0)
(-0.397875 -0.17266 0)
(-0.00397896 0.955771 0)
(-0.0125588 0.947353 0)
(-0.0223344 0.933489 0)
(-0.0333019 0.912933 0)
(-0.0460309 0.885827 0)
(-0.061153 0.853456 0)
(-0.0791526 0.814014 0)
(-0.100181 0.771645 0)
(-0.124035 0.722325 0)
(-0.150528 0.671508 0)
(-0.179249 0.614909 0)
(-0.209657 0.556166 0)
(-0.240953 0.494612 0)
(-0.272534 0.429721 0)
(-0.30423 0.364761 0)
(-0.336162 0.296797 0)
(-0.368025 0.229782 0)
(-0.399518 0.16132 0)
(-0.430474 0.0939641 0)
(-0.46175 0.0281831 0)
(-0.493567 -0.0343896 0)
(-0.521229 -0.0978762 0)
(-0.536496 -0.161539 0)
(-0.00720535 0.96704 0)
(-0.022242 0.959876 0)
(-0.0385318 0.94722 0)
(-0.0560679 0.927908 0)
(-0.075038 0.902769 0)
(-0.0956565 0.872494 0)
(-0.118299 0.835883 0)
(-0.143103 0.795899 0)
(-0.170094 0.749233 0)
(-0.199192 0.700533 0)
(-0.23027 0.646045 0)
(-0.263303 0.588853 0)
(-0.298115 0.528428 0)
(-0.334835 0.464611 0)
(-0.373099 0.400247 0)
(-0.412758 0.333324 0)
(-0.453944 0.266732 0)
(-0.496515 0.198866 0)
(-0.541547 0.132849 0)
(-0.58706 0.066533 0)
(-0.623583 -0.00399843 0)
(-0.641496 -0.0824088 0)
(-0.637871 -0.165261 0)
(-0.0104353 0.984799 0)
(-0.0317542 0.978715 0)
(-0.054093 0.967264 0)
(-0.0777485 0.949322 0)
(-0.103114 0.925973 0)
(-0.130447 0.897543 0)
(-0.16005 0.863403 0)
(-0.191859 0.825338 0)
(-0.225818 0.781112 0)
(-0.261789 0.734114 0)
(-0.299557 0.681719 0)
(-0.339086 0.626169 0)
(-0.380011 0.567293 0)
(-0.42283 0.505749 0)
(-0.468275 0.443303 0)
(-0.516254 0.378408 0)
(-0.567421 0.314526 0)
(-0.623039 0.249817 0)
(-0.676777 0.181229 0)
(-0.714838 0.102209 0)
(-0.729463 0.0117828 0)
(-0.721197 -0.0884507 0)
(-0.694845 -0.189313 0)
(-0.0138183 1.0092 0)
(-0.0417132 1.00383 0)
(-0.0702154 0.993304 0)
(-0.0996011 0.976649 0)
(-0.130168 0.95492 0)
(-0.16209 0.928208 0)
(-0.195708 0.896336 0)
(-0.2312 0.860105 0)
(-0.268861 0.818386 0)
(-0.308873 0.773268 0)
(-0.351453 0.723379 0)
(-0.397021 0.670096 0)
(-0.44587 0.613655 0)
(-0.498321 0.555199 0)
(-0.554531 0.496079 0)
(-0.615477 0.435167 0)
(-0.680249 0.374355 0)
(-0.739126 0.305124 0)
(-0.777517 0.218575 0)
(-0.790387 0.116103 0)
(-0.781539 0.00373412 0)
(-0.75684 -0.1135 0)
(-0.723008 -0.224724 0)
(-0.0170765 1.04028 0)
(-0.0514633 1.0354 0)
(-0.0864688 1.02562 0)
(-0.122565 1.01021 0)
(-0.160238 0.990004 0)
(-0.199678 0.964904 0)
(-0.241099 0.935117 0)
(-0.284494 0.900668 0)
(-0.32999 0.861458 0)
(-0.377621 0.818342 0)
(-0.427433 0.771225 0)
(-0.480085 0.721027 0)
(-0.536286 0.668365 0)
(-0.597271 0.614559 0)
(-0.663821 0.560162 0)
(-0.734351 0.503289 0)
(-0.796989 0.434352 0)
(-0.833432 0.340988 0)
(-0.841588 0.229541 0)
(-0.82962 0.106083 0)
(-0.802946 -0.021916 0)
(-0.769311 -0.146451 0)
(-0.733958 -0.261283 0)
(-0.0202648 1.07784 0)
(-0.0609066 1.07331 0)
(-0.101782 1.06403 0)
(-0.143203 1.04976 0)
(-0.185622 1.03101 0)
(-0.229406 1.0076 0)
(-0.275046 0.979978 0)
(-0.322948 0.947625 0)
(-0.373543 0.911137 0)
(-0.427108 0.870431 0)
(-0.483763 0.826201 0)
(-0.543671 0.779238 0)
(-0.607831 0.731183 0)
(-0.677912 0.683531 0)
(-0.752214 0.632818 0)
(-0.817878 0.56758 0)
(-0.855882 0.471269 0)
(-0.865747 0.350659 0)
(-0.857188 0.219501 0)
(-0.834016 0.080836 0)
(-0.804032 -0.0535872 0)
(-0.772721 -0.180029 0)
(-0.740813 -0.295282 0)
(-0.0238564 1.12221 0)
(-0.0717929 1.11802 0)
(-0.12028 1.10919 0)
(-0.169701 1.09596 0)
(-0.220417 1.07847 0)
(-0.272606 1.05666 0)
(-0.326562 1.03108 0)
(-0.382569 1.00101 0)
(-0.44121 0.967597 0)
(-0.503041 0.93001 0)
(-0.568637 0.88955 0)
(-0.638182 0.846056 0)
(-0.711575 0.802674 0)
(-0.787653 0.759001 0)
(-0.854625 0.699401 0)
(-0.891708 0.604322 0)
(-0.897815 0.478905 0)
(-0.88641 0.341511 0)
(-0.862425 0.195971 0)
(-0.83207 0.0505951 0)
(-0.800024 -0.0856677 0)
(-0.766046 -0.213545 0)
(-0.730768 -0.329271 0)
(-0.02655 1.1729 0)
(-0.0797541 1.16904 0)
(-0.133226 1.1607 0)
(-0.187325 1.14855 0)
(-0.242501 1.13237 0)
(-0.299127 1.11218 0)
(-0.357545 1.08856 0)
(-0.418038 1.06069 0)
(-0.480946 1.03014 0)
(-0.546928 0.995979 0)
(-0.616938 0.959931 0)
(-0.692339 0.921414 0)
(-0.77262 0.88183 0)
(-0.845939 0.830061 0)
(-0.888591 0.738576 0)
(-0.896683 0.610594 0)
(-0.888193 0.470271 0)
(-0.868701 0.31912 0)
(-0.840275 0.165709 0)
(-0.80865 0.018586 0)
(-0.77414 -0.120532 0)
(-0.737161 -0.249977 0)
(-0.697897 -0.367742 0)
(-0.0309178 1.23069 0)
(-0.0929309 1.22711 0)
(-0.155404 1.21922 0)
(-0.21863 1.208 0)
(-0.282919 1.19303 0)
(-0.348547 1.17444 0)
(-0.415637 1.1525 0)
(-0.484158 1.12647 0)
(-0.554244 1.09808 0)
(-0.626201 1.06673 0)
(-0.701064 1.03484 0)
(-0.779266 1.00094 0)
(-0.852924 0.95708 0)
(-0.899179 0.875046 0)
(-0.908376 0.745745 0)
(-0.898591 0.601757 0)
(-0.878054 0.44996 0)
(-0.846959 0.288611 0)
(-0.811989 0.13252 0)
(-0.774838 -0.0173312 0)
(-0.73555 -0.15877 0)
(-0.694823 -0.289823 0)
(-0.652679 -0.409704 0)
(-0.0324836 1.29444 0)
(-0.0976518 1.29124 0)
(-0.163459 1.28408 0)
(-0.230189 1.27382 0)
(-0.297965 1.26001 0)
(-0.367086 1.24295 0)
(-0.437855 1.2226 0)
(-0.510458 1.19826 0)
(-0.58514 1.17185 0)
(-0.66211 1.14271 0)
(-0.741764 1.11422 0)
(-0.820717 1.07957 0)
(-0.87891 1.01103 0)
(-0.897687 0.886503 0)
(-0.891412 0.737255 0)
(-0.875365 0.584309 0)
(-0.847244 0.418525 0)
(-0.811463 0.252849 0)
(-0.773206 0.0947006 0)
(-0.732951 -0.0572939 0)
(-0.691465 -0.199978 0)
(-0.649129 -0.332087 0)
(-0.605908 -0.453229 0)
(-0.0382385 1.36555 0)
(-0.114566 1.3624 0)
(-0.190605 1.35553 0)
(-0.266512 1.34577 0)
(-0.342765 1.33287 0)
(-0.419802 1.31705 0)
(-0.497595 1.29787 0)
(-0.576311 1.27512 0)
(-0.656139 1.25033 0)
(-0.735782 1.22169 0)
(-0.812483 1.19245 0)
(-0.873438 1.14201 0)
(-0.899145 1.03295 0)
(-0.893918 0.878228 0)
(-0.875459 0.720695 0)
(-0.845218 0.554366 0)
(-0.805408 0.380209 0)
(-0.763732 0.213328 0)
(-0.721113 0.0529487 0)
(-0.677977 -0.0993446 0)
(-0.634864 -0.242945 0)
(-0.591343 -0.375403 0)
(-0.547385 -0.497527 0)
(-0.0384856 1.44269 0)
(-0.115572 1.4395 0)
(-0.192954 1.43268 0)
(-0.270838 1.42325 0)
(-0.349407 1.41105 0)
(-0.428714 1.39605 0)
(-0.508826 1.37763 0)
(-0.5903 1.35643 0)
(-0.673337 1.33277 0)
(-0.756399 1.30283 0)
(-0.831764 1.2642 0)
(-0.876548 1.17659 0)
(-0.881033 1.02876 0)
(-0.865772 0.861855 0)
(-0.840764 0.693399 0)
(-0.804543 0.514878 0)
(-0.763463 0.338409 0)
(-0.721559 0.171133 0)
(-0.678491 0.00903236 0)
(-0.634523 -0.142967 0)
(-0.59063 -0.286764 0)
(-0.546797 -0.419375 0)
(-0.50269 -0.542061 0)
(-0.0447948 1.52641 0)
(-0.134336 1.5233 0)
(-0.223561 1.51639 0)
(-0.311963 1.50672 0)
(-0.399307 1.49438 0)
(-0.485805 1.47942 0)
(-0.571592 1.46105 0)
(-0.656787 1.44057 0)
(-0.739949 1.41573 0)
(-0.815976 1.37982 0)
(-0.868673 1.31596 0)
(-0.882447 1.18371 0)
(-0.867037 1.01067 0)
(-0.838915 0.836354 0)
(-0.799981 0.654647 0)
(-0.754376 0.471399 0)
(-0.708743 0.294744 0)
(-0.663061 0.126774 0)
(-0.618261 -0.0349162 0)
(-0.574315 -0.187374 0)
(-0.530367 -0.330641 0)
(-0.486718 -0.463421 0)
(-0.442864 -0.586422 0)
(-0.0440807 1.61577 0)
(-0.132245 1.6126 0)
(-0.220413 1.60543 0)
(-0.308494 1.59511 0)
(-0.396449 1.58223 0)
(-0.48422 1.56677 0)
(-0.571845 1.54804 0)
(-0.658754 1.52661 0)
(-0.742781 1.49777 0)
(-0.815273 1.4471 0)
(-0.853547 1.34015 0)
(-0.851449 1.17128 0)
(-0.829519 0.985589 0)
(-0.797173 0.800672 0)
(-0.756508 0.610333 0)
(-0.713293 0.426447 0)
(-0.669999 0.250321 0)
(-0.626017 0.081081 0)
(-0.581043 -0.0794505 0)
(-0.536652 -0.231624 0)
(-0.492849 -0.374588 0)
(-0.449446 -0.506969 0)
(-0.40623 -0.630387 0)
(-0.051094 1.71145 0)
(-0.153081 1.70809 0)
(-0.254466 1.70051 0)
(-0.354627 1.68928 0)
(-0.452786 1.67517 0)
(-0.548522 1.65832 0)
(-0.641332 1.63789 0)
(-0.728764 1.61203 0)
(-0.804493 1.57297 0)
(-0.853535 1.4941 0)
(-0.862697 1.34086 0)
(-0.840803 1.14647 0)
(-0.804554 0.951929 0)
(-0.759868 0.756915 0)
(-0.711213 0.564319 0)
(-0.66253 0.380098 0)
(-0.614241 0.204623 0)
(-0.567556 0.0356508 0)
(-0.522425 -0.124583 0)
(-0.478652 -0.275105 0)
(-0.435958 -0.418046 0)
(-0.393823 -0.549488 0)
(-0.352055 -0.673288 0)
(-0.0495346 1.81261 0)
(-0.148408 1.80885 0)
(-0.246732 1.80052 0)
(-0.344361 1.78811 0)
(-0.441357 1.77253 0)
(-0.537326 1.75369 0)
(-0.630859 1.72986 0)
(-0.719326 1.6969 0)
(-0.793417 1.63871 0)
(-0.831128 1.51557 0)
(-0.82662 1.32408 0)
(-0.800701 1.11521 0)
(-0.76514 0.911024 0)
(-0.722084 0.709633 0)
(-0.676094 0.516475 0)
(-0.629685 0.332365 0)
(-0.583025 0.156922 0)
(-0.536515 -0.010322 0)
(-0.491356 -0.169363 0)
(-0.448059 -0.317844 0)
(-0.406419 -0.460076 0)
(-0.36607 -0.590367 0)
(-0.32636 -0.714309 0)
(-0.0570021 1.91972 0)
(-0.170719 1.91547 0)
(-0.283693 1.90632 0)
(-0.395496 1.89285 0)