/*--------------------------------*- C++ -*----------------------------------*\
| =========                 |                                                 |
| \\      /  F ield         | OpenFOAM: The Open Source CFD Toolbox           |
|  \\    /   O peration     | Version:  2012                                  |
|   \\  /    A nd           | Website:  www.openfoam.com                      |
|    \\/     M anipulation  |                                                 |
\*---------------------------------------------------------------------------*/
FoamFile
{
    version     2.0;
    format      ascii;
    class       volScalarField;
    location    "1";
    object      maxKappa;
}
// * * * * * * * * * * * * * * * * * * * * * * * * * * * * * * * * * * * * * //

dimensions      [0 0 0 0 0 0 0];


internalField   nonuniform List<scalar> 
20400
(
2.42972e-09
2.08414e-09
5.37149e-09
4.32207e-09
8.33056e-09
8.17473e-09
1.13782e-08
1.19259e-08
1.43175e-08
1.52721e-08
1.7131e-08
1.82402e-08
1.97475e-08
2.08593e-08
2.21001e-08
2.31499e-08
2.41796e-08
2.51272e-08
2.60106e-08
2.68297e-08
2.75887e-08
2.82911e-08
2.89404e-08
2.95402e-08
3.00938e-08
3.06046e-08
3.10756e-08
3.15097e-08
3.19097e-08
3.22783e-08
3.2618e-08
3.29308e-08
3.32193e-08
3.34844e-08
3.37295e-08
3.39541e-08
3.41624e-08
3.43526e-08
3.45295e-08
3.46908e-08
3.48408e-08
3.4978e-08
3.51046e-08
3.52217e-08
3.53285e-08
3.54284e-08
3.55186e-08
3.56037e-08
3.56801e-08
3.57523e-08
3.58172e-08
3.58784e-08
3.59337e-08
3.59852e-08
3.60327e-08
3.6076e-08
3.61165e-08
3.61534e-08
3.61875e-08
3.62192e-08
3.62477e-08
3.62749e-08
3.6299e-08
3.63222e-08
3.63426e-08
3.63624e-08
3.63796e-08
3.63965e-08
3.64111e-08
3.64254e-08
3.64379e-08
3.645e-08
3.64607e-08
3.64708e-08
3.64801e-08
3.64885e-08
3.64965e-08
3.65035e-08
3.65104e-08
3.65163e-08
3.65222e-08
3.65272e-08
3.65322e-08
3.65365e-08
3.65408e-08
3.65444e-08
3.6548e-08
3.65511e-08
3.65541e-08
3.65567e-08
3.65594e-08
3.65616e-08
3.65638e-08
3.65657e-08
3.65676e-08
3.65691e-08
3.65708e-08
3.65721e-08
3.65735e-08
3.65746e-08
3.65758e-08
3.65768e-08
3.65778e-08
3.65786e-08
3.65794e-08
3.65801e-08
3.65809e-08
3.65815e-08
3.65821e-08
3.65826e-08
3.65831e-08
3.65835e-08
3.6584e-08
3.65844e-08
3.65848e-08
3.65851e-08
3.65854e-08
3.65857e-08
3.6586e-08
3.65863e-08
3.65865e-08
3.65868e-08
3.6587e-08
3.65872e-08
3.65874e-08
3.65876e-08
3.65877e-08
3.65879e-08
3.6588e-08
3.65882e-08
3.65883e-08
3.65884e-08
3.65886e-08
3.65886e-08
3.65887e-08
3.65888e-08
3.65889e-08
3.6589e-08
3.65891e-08
3.65891e-08
3.65891e-08
3.65892e-08
3.65893e-08
3.65894e-08
3.65895e-08
3.65895e-08
3.65895e-08
3.65897e-08
3.65897e-08
3.65897e-08
3.65898e-08
3.65898e-08
3.65898e-08
3.65899e-08
3.65899e-08
3.65899e-08
3.659e-08
3.659e-08
3.65901e-08
3.65901e-08
3.65901e-08
3.65902e-08
3.65901e-08
3.65902e-08
3.65902e-08
3.65902e-08
3.65903e-08
3.65903e-08
3.65903e-08
3.65904e-08
3.65904e-08
3.65904e-08
3.65904e-08
3.65905e-08
3.65904e-08
3.65905e-08
3.65905e-08
3.65904e-08
3.65904e-08
3.65904e-08
3.65904e-08
3.65904e-08
3.65903e-08
3.65903e-08
3.65903e-08
3.65903e-08
3.65904e-08
3.65904e-08
3.65904e-08
3.65904e-08
3.65903e-08
3.65903e-08
3.65904e-08
3.65904e-08
3.65904e-08
3.65905e-08
3.65904e-08
3.65905e-08
3.65904e-08
3.65905e-08
3.65905e-08
3.65905e-08
3.65906e-08
3.65905e-08
3.65905e-08
3.65905e-08
3.65905e-08
3.65905e-08
3.65905e-08
3.65905e-08
3.65906e-08
3.65906e-08
3.65906e-08
3.65906e-08
3.65906e-08
3.65906e-08
3.65906e-08
3.65905e-08
3.65905e-08
3.65905e-08
3.65904e-08
3.65904e-08
3.65904e-08
3.65904e-08
3.65905e-08
3.65905e-08
3.65905e-08
3.65905e-08
3.65905e-08
3.65906e-08
3.65905e-08
3.65905e-08
3.65906e-08
3.65905e-08
3.65906e-08
3.65906e-08
3.65905e-08
3.65906e-08
3.65906e-08
3.65906e-08
3.65906e-08
3.65906e-08
3.65906e-08
3.65906e-08
3.65906e-08
3.65907e-08
3.65906e-08
3.65907e-08
3.65907e-08
3.65907e-08
3.65907e-08
3.65907e-08
3.65907e-08
3.65907e-08
3.65907e-08
3.65907e-08
3.65907e-08
3.65907e-08
3.65907e-08
3.65907e-08
3.65907e-08
3.65907e-08
3.65907e-08
3.65908e-08
3.65907e-08
3.65907e-08
3.65908e-08
3.65907e-08
3.65907e-08
3.65907e-08
3.65907e-08
3.65907e-08
3.65907e-08
3.65907e-08
3.65907e-08
3.65907e-08
3.65907e-08
3.65907e-08
3.65907e-08
3.65908e-08
3.65907e-08
3.65908e-08
3.65908e-08
3.65908e-08
3.65907e-08
3.65908e-08
3.65908e-08
3.65908e-08
3.65908e-08
3.65908e-08
3.65908e-08
3.65908e-08
3.65908e-08
3.65908e-08
3.65908e-08
3.65908e-08
3.65907e-08
3.65908e-08
3.65908e-08
3.65908e-08
3.65908e-08
3.65908e-08
3.65908e-08
3.65908e-08
3.65907e-08
3.65907e-08
3.65908e-08
3.65907e-08
3.65908e-08
3.65908e-08
3.65907e-08
3.65908e-08
3.65907e-08
3.65907e-08
3.65908e-08
3.65907e-08
3.65908e-08
3.65908e-08
3.65909e-08
3.65909e-08
3.65909e-08
3.65909e-08
3.6591e-08
3.65909e-08
3.65909e-08
3.65909e-08
3.65909e-08
3.65909e-08
3.65911e-08
3.6591e-08
3.6591e-08
3.65909e-08
3.6591e-08
3.6591e-08
3.65909e-08
3.65909e-08
3.65909e-08
3.65909e-08
3.65909e-08
3.65908e-08
3.65909e-08
3.65908e-08
3.65908e-08
3.65909e-08
3.65909e-08
3.65909e-08
3.65909e-08
3.65909e-08
3.6591e-08
3.65909e-08
3.6591e-08
3.6591e-08
3.6591e-08
3.6591e-08
3.65911e-08
3.6591e-08
3.65911e-08
3.6591e-08
3.65911e-08
3.65911e-08
3.65911e-08
3.65912e-08
3.65912e-08
3.65911e-08
3.65912e-08
3.65911e-08
3.65912e-08
3.65911e-08
3.65912e-08
3.65912e-08
3.65911e-08
3.65911e-08
3.65911e-08
3.65911e-08
3.65911e-08
3.65913e-08
3.65912e-08
3.65914e-08
3.65913e-08
3.65914e-08
3.65913e-08
3.65914e-08
3.65913e-08
3.65914e-08
3.65912e-08
3.65912e-08
3.65912e-08
3.65913e-08
3.65912e-08
3.65912e-08
3.65913e-08
3.65912e-08
3.65913e-08
3.65912e-08
3.65913e-08
3.65912e-08
3.65913e-08
3.65912e-08
3.65913e-08
3.65913e-08
3.65913e-08
3.65912e-08
3.65911e-08
3.65911e-08
3.65911e-08
3.65911e-08
3.65912e-08
3.65911e-08
3.65913e-08
3.65912e-08
3.65913e-08
3.65913e-08
3.65914e-08
3.65914e-08
3.65915e-08
3.65914e-08
3.65915e-08
3.65914e-08
3.65915e-08
3.65913e-08
3.65913e-08
3.65913e-08
3.65913e-08
3.65913e-08
3.65912e-08
3.65911e-08
3.65911e-08
3.6591e-08
3.65911e-08
3.65911e-08
3.65911e-08
3.65912e-08
3.65912e-08
3.65913e-08
3.65913e-08
3.65913e-08
3.65913e-08
3.65913e-08
3.65913e-08
3.65912e-08
3.65911e-08
3.65911e-08
3.65911e-08
3.65911e-08
3.65911e-08
3.6591e-08
3.6591e-08
3.6591e-08
3.6591e-08
3.6591e-08
3.65911e-08
3.65909e-08
3.65909e-08
3.6591e-08
3.6591e-08
3.6591e-08
3.6591e-08
3.65909e-08
3.6591e-08
3.6591e-08
3.6591e-08
3.6591e-08
3.6591e-08
3.6591e-08
3.6591e-08
3.65911e-08
3.65911e-08
3.65911e-08
3.65911e-08
3.65911e-08
3.65911e-08
3.65911e-08
3.65911e-08
3.65911e-08
3.65911e-08
3.65911e-08
3.65911e-08
3.65912e-08
3.65911e-08
3.65914e-08
3.65912e-08
3.65915e-08
3.6591e-08
3.65917e-08
3.65907e-08
3.6592e-08
3.65902e-08
3.65923e-08
3.65895e-08
3.65923e-08
3.65893e-08
3.65914e-08
3.659e-08
3.65887e-08
3.6593e-08
3.65808e-08
3.6601e-08
3.65641e-08
3.66041e-08
3.65578e-08
3.59718e-09
4.73911e-09
7.87861e-09
8.01605e-09
1.14499e-08
1.24775e-08
1.52759e-08
1.66216e-08
1.90309e-08
2.04608e-08
2.26564e-08
2.4143e-08
2.60395e-08
2.75105e-08
2.90854e-08
3.04649e-08
3.17953e-08
3.30271e-08
3.41758e-08
3.52428e-08
3.6233e-08
3.71506e-08
3.80002e-08
3.8786e-08
3.95124e-08
4.01833e-08
4.08029e-08
4.13747e-08
4.19024e-08
4.23891e-08
4.2838e-08
4.32519e-08
4.36336e-08
4.39851e-08
4.43098e-08
4.46081e-08
4.48843e-08
4.51373e-08
4.53721e-08
4.5587e-08
4.57863e-08
4.59691e-08
4.61378e-08
4.62937e-08
4.64363e-08
4.65693e-08
4.669e-08
4.68032e-08
4.69056e-08
4.70018e-08
4.70888e-08
4.71704e-08
4.72446e-08
4.73135e-08
4.7377e-08
4.74351e-08
4.74892e-08
4.75387e-08
4.75844e-08
4.76268e-08
4.76653e-08
4.77016e-08
4.77341e-08
4.7765e-08
4.77925e-08
4.78189e-08
4.78422e-08
4.78647e-08
4.78845e-08
4.79035e-08
4.79204e-08
4.79366e-08
4.7951e-08
4.79646e-08
4.7977e-08
4.79883e-08
4.79991e-08
4.80086e-08
4.80178e-08
4.80259e-08
4.80337e-08
4.80406e-08
4.80473e-08
4.8053e-08
4.80588e-08
4.80637e-08
4.80685e-08
4.80727e-08
4.80768e-08
4.80803e-08
4.80839e-08
4.80869e-08
4.80899e-08
4.80924e-08
4.80949e-08
4.80971e-08
4.80993e-08
4.81011e-08
4.8103e-08
4.81045e-08
4.81061e-08
4.81074e-08
4.81087e-08
4.81099e-08
4.8111e-08
4.8112e-08
4.81129e-08
4.81137e-08
4.81146e-08
4.81153e-08
4.81159e-08
4.81165e-08
4.81171e-08
4.81176e-08
4.81181e-08
4.81186e-08
4.8119e-08
4.81194e-08
4.81197e-08
4.812e-08
4.81204e-08
4.81207e-08
4.81209e-08
4.81212e-08
4.81214e-08
4.81216e-08
4.81219e-08
4.8122e-08
4.81222e-08
4.81224e-08
4.81225e-08
4.81227e-08
4.81228e-08
4.81229e-08
4.8123e-08
4.81231e-08
4.81232e-08
4.81233e-08
4.81234e-08
4.81235e-08
4.81236e-08
4.81236e-08
4.81238e-08
4.81238e-08
4.81239e-08
4.81239e-08
4.8124e-08
4.81241e-08
4.81241e-08
4.81241e-08
4.81242e-08
4.81242e-08
4.81242e-08
4.81243e-08
4.81244e-08
4.81244e-08
4.81244e-08
4.81244e-08
4.81245e-08
4.81244e-08
4.81244e-08
4.81245e-08
4.81245e-08
4.81245e-08
4.81245e-08
4.81246e-08
4.81246e-08
4.81247e-08
4.81246e-08
4.81247e-08
4.81247e-08
4.81247e-08
4.81246e-08
4.81247e-08
4.81247e-08
4.81247e-08
4.81247e-08
4.81247e-08
4.81247e-08
4.81247e-08
4.81246e-08
4.81247e-08
4.81246e-08
4.81246e-08
4.81247e-08
4.81246e-08
4.81246e-08
4.81246e-08
4.81246e-08
4.81246e-08
4.81246e-08
4.81246e-08
4.81246e-08
4.81246e-08
4.81246e-08
4.81246e-08
4.81246e-08
4.81247e-08
4.81246e-08
4.81246e-08
4.81246e-08
4.81246e-08
4.81247e-08
4.81246e-08
4.81246e-08
4.81246e-08
4.81247e-08
4.81246e-08
4.81247e-08
4.81246e-08
4.81247e-08
4.81246e-08
4.81247e-08
4.81246e-08
4.81247e-08
4.81246e-08
4.81247e-08
4.81246e-08
4.81246e-08
4.81246e-08
4.81246e-08
4.81245e-08
4.81245e-08
4.81245e-08
4.81246e-08
4.81246e-08
4.81246e-08
4.81246e-08
4.81246e-08
4.81246e-08
4.81245e-08
4.81246e-08
4.81246e-08
4.81246e-08
4.81247e-08
4.81246e-08
4.81246e-08
4.81246e-08
4.81246e-08
4.81245e-08
4.81246e-08
4.81246e-08
4.81246e-08
4.81246e-08
4.81246e-08
4.81246e-08
4.81246e-08
4.81246e-08
4.81246e-08
4.81246e-08
4.81246e-08
4.81246e-08
4.81246e-08
4.81246e-08
4.81246e-08
4.81246e-08
4.81246e-08
4.81246e-08
4.81247e-08
4.81247e-08
4.81247e-08
4.81246e-08
4.81246e-08
4.81247e-08
4.81246e-08
4.81246e-08
4.81247e-08
4.81246e-08
4.81246e-08
4.81246e-08
4.81246e-08
4.81246e-08
4.81246e-08
4.81246e-08
4.81246e-08
4.81246e-08
4.81246e-08
4.81246e-08
4.81246e-08
4.81246e-08
4.81246e-08
4.81246e-08
4.81246e-08
4.81246e-08
4.81246e-08
4.81246e-08
4.81246e-08
4.81246e-08
4.81246e-08
4.81247e-08
4.81247e-08
4.81247e-08
4.81247e-08
4.81246e-08
4.81247e-08
4.81247e-08
4.81246e-08
4.81246e-08
4.81245e-08
4.81245e-08
4.81246e-08
4.81246e-08
4.81246e-08
4.81246e-08
4.81246e-08
4.81246e-08
4.81246e-08
4.81245e-08
4.81245e-08
4.81246e-08
4.81246e-08
4.81246e-08
4.81246e-08
4.81246e-08
4.81246e-08
4.81246e-08
4.81246e-08
4.81246e-08
4.81246e-08
4.81247e-08
4.81246e-08
4.81247e-08
4.81248e-08
4.81246e-08
4.81247e-08
4.81247e-08
4.81247e-08
4.81246e-08
4.81246e-08
4.81246e-08
4.81247e-08
4.81246e-08
4.81246e-08
4.81246e-08
4.81246e-08
4.81246e-08
4.81246e-08
4.81246e-08
4.81246e-08
4.81246e-08
4.81245e-08
4.81245e-08
4.81245e-08
4.81245e-08
4.81245e-08
4.81246e-08
4.81246e-08
4.81246e-08
4.81246e-08
4.81246e-08
4.81246e-08
4.81246e-08
4.81246e-08
4.81247e-08
4.81247e-08
4.81247e-08
4.81247e-08
4.81246e-08
4.81247e-08
4.81247e-08
4.81247e-08
4.81247e-08
4.81247e-08
4.81247e-08
4.81247e-08
4.81247e-08
4.81248e-08
4.81247e-08
4.81247e-08
4.81247e-08
4.81247e-08
4.81247e-08
4.81247e-08
4.81247e-08
4.81247e-08
4.81248e-08
4.81247e-08
4.81249e-08
4.81248e-08
4.81249e-08
4.81248e-08
4.81248e-08
4.81248e-08
4.81249e-08
4.81247e-08
4.81248e-08
4.81247e-08
4.81248e-08
4.81247e-08
4.81248e-08
4.81248e-08
4.81247e-08
4.81248e-08
4.81247e-08
4.81248e-08
4.81247e-08
4.81247e-08
4.81247e-08
4.81247e-08
4.81247e-08
4.81248e-08
4.81248e-08
4.81247e-08
4.81247e-08
4.81248e-08
4.81247e-08
4.81248e-08
4.81247e-08
4.81249e-08
4.81248e-08
4.81249e-08
4.81248e-08
4.81249e-08
4.81248e-08
4.81249e-08
4.81248e-08
4.81249e-08
4.81248e-08
4.81249e-08
4.81248e-08
4.81248e-08
4.81247e-08
4.81247e-08
4.81247e-08
4.81246e-08
4.81246e-08
4.81246e-08
4.81247e-08
4.81247e-08
4.81247e-08
4.81246e-08
4.81247e-08
4.81246e-08
4.81247e-08
4.81247e-08
4.81247e-08
4.81247e-08
4.81247e-08
4.81247e-08
4.81247e-08
4.81246e-08
4.81247e-08
4.81246e-08
4.81246e-08
4.81246e-08
4.81246e-08
4.81245e-08
4.81245e-08
4.81245e-08
4.81245e-08
4.81245e-08
4.81245e-08
4.81245e-08
4.81245e-08
4.81246e-08
4.81246e-08
4.81246e-08
4.81245e-08
4.81245e-08
4.81245e-08
4.81245e-08
4.81245e-08
4.81246e-08
4.81246e-08
4.81246e-08
4.81246e-08
4.81246e-08
4.81246e-08
4.81246e-08
4.81246e-08
4.81246e-08
4.81245e-08
4.81246e-08
4.81246e-08
4.81246e-08
4.81246e-08
4.81245e-08
4.81246e-08
4.81245e-08
4.81248e-08
4.81245e-08
4.81249e-08
4.81244e-08
4.81251e-08
4.8124e-08
4.81253e-08
4.81234e-08
4.81256e-08
4.81227e-08
4.81257e-08
4.81223e-08
4.8125e-08
4.81228e-08
4.81226e-08
4.81253e-08
4.81157e-08
4.8132e-08
4.81002e-08
4.81401e-08
4.81006e-08
4.60525e-09
6.61219e-09
9.57802e-09
9.84149e-09
1.29452e-08
1.42565e-08
1.67266e-08
1.85254e-08
2.0689e-08
2.25465e-08
2.44887e-08
2.62256e-08
2.79549e-08
2.95189e-08
3.10361e-08
3.24307e-08
3.3748e-08
3.49728e-08
3.61134e-08
3.71729e-08
3.81561e-08
3.90675e-08
3.99115e-08
4.06923e-08
4.14143e-08
4.20815e-08
4.2698e-08
4.32789e-08
4.38227e-08
4.43246e-08
4.47876e-08
4.52148e-08
4.56089e-08
4.5972e-08
4.63074e-08
4.66159e-08
4.69014e-08
4.71633e-08
4.74061e-08
4.76286e-08
4.7835e-08
4.80243e-08
4.81992e-08
4.83607e-08
4.85086e-08
4.86464e-08
4.87717e-08
4.8889e-08
4.89954e-08
4.90952e-08
4.91856e-08
4.92703e-08
4.93474e-08
4.94189e-08
4.94849e-08
4.95454e-08
4.96016e-08
4.96531e-08
4.97006e-08
4.97447e-08
4.97848e-08
4.98226e-08
4.98565e-08
4.98887e-08
4.99175e-08
4.99449e-08
4.99693e-08
4.99926e-08
5.00133e-08
5.00332e-08
5.00508e-08
5.00676e-08
5.00827e-08
5.00968e-08
5.01098e-08
5.01217e-08
5.01329e-08
5.01428e-08
5.01524e-08
5.01608e-08
5.0169e-08
5.01761e-08
5.01831e-08
5.01892e-08
5.01951e-08
5.02002e-08
5.02053e-08
5.02096e-08
5.0214e-08
5.02176e-08
5.02213e-08
5.02244e-08
5.02276e-08
5.02302e-08
5.02329e-08
5.02352e-08
5.02374e-08
5.02393e-08
5.02412e-08
5.02429e-08
5.02445e-08
5.02459e-08
5.02473e-08
5.02485e-08
5.02496e-08
5.02507e-08
5.02517e-08
5.02525e-08
5.02534e-08
5.02541e-08
5.02548e-08
5.02554e-08
5.0256e-08
5.02566e-08
5.02571e-08
5.02575e-08
5.0258e-08
5.02584e-08
5.02587e-08
5.0259e-08
5.02594e-08
5.02597e-08
5.02599e-08
5.02602e-08
5.02604e-08
5.02606e-08
5.02608e-08
5.02609e-08
5.02611e-08
5.02613e-08
5.02614e-08
5.02615e-08
5.02616e-08
5.02618e-08
5.02619e-08
5.0262e-08
5.02621e-08
5.02621e-08
5.02622e-08
5.02623e-08
5.02624e-08
5.02625e-08
5.02625e-08
5.02626e-08
5.02626e-08
5.02627e-08
5.02627e-08
5.02627e-08
5.02628e-08
5.02628e-08
5.02628e-08
5.02629e-08
5.02629e-08
5.0263e-08
5.0263e-08
5.0263e-08
5.0263e-08
5.0263e-08
5.02631e-08
5.02631e-08
5.02631e-08
5.02631e-08
5.02631e-08
5.02631e-08
5.02631e-08
5.02631e-08
5.02631e-08
5.02631e-08
5.02631e-08
5.02631e-08
5.02631e-08
5.02632e-08
5.02631e-08
5.02631e-08
5.02631e-08
5.02631e-08
5.02631e-08
5.02632e-08
5.02632e-08
5.02632e-08
5.02632e-08
5.02632e-08
5.02632e-08
5.02632e-08
5.02632e-08
5.02632e-08
5.02632e-08
5.02632e-08
5.02632e-08
5.02632e-08
5.02632e-08
5.02632e-08
5.02632e-08
5.02632e-08
5.02632e-08
5.02632e-08
5.02632e-08
5.02632e-08
5.02632e-08
5.02632e-08
5.02632e-08
5.02631e-08
5.02632e-08
5.02632e-08
5.02632e-08
5.02632e-08
5.02632e-08
5.02632e-08
5.02632e-08
5.02632e-08
5.02632e-08
5.02631e-08
5.02632e-08
5.02632e-08
5.02632e-08
5.02631e-08
5.02632e-08
5.02632e-08
5.02632e-08
5.02632e-08
5.02632e-08
5.02632e-08
5.02632e-08
5.02632e-08
5.02632e-08
5.02631e-08
5.02632e-08
5.02631e-08
5.02631e-08
5.02631e-08
5.02632e-08
5.02632e-08
5.02632e-08
5.02632e-08
5.02632e-08
5.02632e-08
5.02632e-08
5.02632e-08
5.02632e-08
5.02632e-08
5.02632e-08
5.02632e-08
5.02632e-08
5.02631e-08
5.02631e-08
5.02632e-08
5.02632e-08
5.02632e-08
5.02631e-08
5.02632e-08
5.02632e-08
5.02632e-08
5.02632e-08
5.02632e-08
5.02632e-08
5.02632e-08
5.02632e-08
5.02632e-08
5.02632e-08
5.02632e-08
5.02632e-08
5.02632e-08
5.02632e-08
5.02632e-08
5.02632e-08
5.02632e-08
5.02632e-08
5.02632e-08
5.02632e-08
5.02632e-08
5.02632e-08
5.02632e-08
5.02632e-08
5.02631e-08
5.02632e-08
5.02632e-08
5.02632e-08
5.02632e-08
5.02632e-08
5.02632e-08
5.02632e-08
5.02632e-08
5.02631e-08
5.02632e-08
5.02632e-08
5.02632e-08
5.02631e-08
5.02631e-08
5.02631e-08
5.02632e-08
5.02632e-08
5.02632e-08
5.02632e-08
5.02632e-08
5.02632e-08
5.02632e-08
5.02631e-08
5.02632e-08
5.02632e-08
5.02632e-08
5.02631e-08
5.02631e-08
5.02631e-08
5.02631e-08
5.02631e-08
5.02631e-08
5.02631e-08
5.02631e-08
5.02631e-08
5.02632e-08
5.02632e-08
5.02632e-08
5.02632e-08
5.02632e-08
5.02632e-08
5.02632e-08
5.02632e-08
5.02632e-08
5.02632e-08
5.02631e-08
5.02631e-08
5.02631e-08
5.02632e-08
5.02631e-08
5.02632e-08
5.02632e-08
5.02632e-08
5.02631e-08
5.02631e-08
5.02631e-08
5.02631e-08
5.02631e-08
5.02631e-08
5.02632e-08
5.02632e-08
5.02631e-08
5.02631e-08
5.02631e-08
5.02632e-08
5.02632e-08
5.02632e-08
5.02632e-08
5.02632e-08
5.02632e-08
5.02632e-08
5.02632e-08
5.02631e-08
5.02631e-08
5.02631e-08
5.02631e-08
5.02631e-08
5.02631e-08
5.02631e-08
5.02631e-08
5.0263e-08
5.02631e-08
5.02631e-08
5.02631e-08
5.02632e-08
5.02632e-08
5.02631e-08
5.02631e-08
5.02631e-08
5.02631e-08
5.02632e-08
5.02631e-08
5.02631e-08
5.02631e-08
5.02631e-08
5.02632e-08
5.02632e-08
5.02632e-08
5.02632e-08
5.02633e-08
5.02632e-08
5.02632e-08
5.02631e-08
5.02632e-08
5.0263e-08
5.02632e-08
5.02631e-08
5.02632e-08
5.0263e-08
5.02632e-08
5.02631e-08
5.02632e-08
5.02632e-08
5.02632e-08
5.02631e-08
5.02632e-08
5.02632e-08
5.02632e-08
5.02632e-08
5.02631e-08
5.02632e-08
5.02631e-08
5.02631e-08
5.02631e-08
5.02631e-08
5.02631e-08
5.02631e-08
5.02631e-08
5.02632e-08
5.02632e-08
5.02632e-08
5.02632e-08
5.02632e-08
5.02632e-08
5.02632e-08
5.02631e-08
5.02632e-08
5.02631e-08
5.02632e-08
5.02631e-08
5.02632e-08
5.02631e-08
5.02632e-08
5.02631e-08
5.02632e-08
5.02631e-08
5.02632e-08
5.02631e-08
5.02632e-08
5.02631e-08
5.02632e-08
5.02632e-08
5.02632e-08
5.02632e-08
5.02632e-08
5.02632e-08
5.02632e-08
5.02632e-08
5.02631e-08
5.02631e-08
5.0263e-08
5.02631e-08
5.0263e-08
5.02631e-08
5.0263e-08
5.02631e-08
5.02631e-08
5.02632e-08
5.02631e-08
5.02631e-08
5.02631e-08
5.02632e-08
5.02631e-08
5.02632e-08
5.02632e-08
5.02631e-08
5.02631e-08
5.02632e-08
5.02632e-08
5.02631e-08
5.02631e-08
5.02631e-08
5.02632e-08
5.02632e-08
5.02632e-08
5.02631e-08
5.02632e-08
5.02631e-08
5.02631e-08
5.02631e-08
5.02631e-08
5.02631e-08
5.02631e-08
5.0263e-08
5.0263e-08
5.0263e-08
5.02631e-08
5.02631e-08
5.02631e-08
5.02631e-08
5.02631e-08
5.02631e-08
5.02631e-08
5.02631e-08
5.0263e-08
5.02631e-08
5.02628e-08
5.02632e-08
5.02626e-08
5.02633e-08
5.02623e-08
5.02636e-08
5.02617e-08
5.02639e-08
5.0261e-08
5.02642e-08
5.02606e-08
5.02637e-08
5.0261e-08
5.02617e-08
5.02631e-08
5.02564e-08
5.02692e-08
5.02446e-08
5.02801e-08
5.02431e-08
5.86203e-09
8.53655e-09
1.14316e-08
1.14491e-08
1.44542e-08
1.5454e-08
1.79721e-08
1.95144e-08
2.16139e-08
2.34215e-08
2.53247e-08
2.70239e-08
2.87232e-08
3.02592e-08
3.17523e-08
3.3129e-08
3.44272e-08
3.56353e-08
3.67608e-08
3.78069e-08
3.8778e-08
3.96785e-08
4.05126e-08
4.12846e-08
4.19984e-08
4.26583e-08
4.32681e-08
4.38313e-08
4.43513e-08
4.48312e-08
4.5274e-08
4.56824e-08
4.60591e-08
4.64066e-08
4.67269e-08
4.70225e-08
4.72948e-08
4.75461e-08
4.77777e-08
4.79912e-08
4.81882e-08
4.83696e-08
4.85371e-08
4.86913e-08
4.88336e-08
4.89647e-08
4.90857e-08
4.91972e-08
4.93e-08
4.93949e-08
4.94822e-08
4.95643e-08
4.96404e-08
4.97111e-08
4.97762e-08
4.98359e-08
4.98915e-08
4.99423e-08
4.99893e-08
5.00328e-08
5.00725e-08
5.01097e-08
5.01433e-08
5.01751e-08
5.02035e-08
5.02306e-08
5.02547e-08
5.02778e-08
5.02983e-08
5.03179e-08
5.03354e-08
5.0352e-08
5.03669e-08
5.03809e-08
5.03938e-08
5.04055e-08
5.04166e-08
5.04264e-08
5.04359e-08
5.04442e-08
5.04524e-08
5.04594e-08
5.04663e-08
5.04723e-08
5.04782e-08
5.04833e-08
5.04883e-08
5.04926e-08
5.04969e-08
5.05005e-08
5.05041e-08
5.05073e-08
5.05103e-08
5.0513e-08
5.05156e-08
5.05179e-08
5.05201e-08
5.0522e-08
5.05239e-08
5.05255e-08
5.05271e-08
5.05285e-08
5.05299e-08
5.05311e-08
5.05322e-08
5.05332e-08
5.05342e-08
5.05351e-08
5.05359e-08
5.05366e-08
5.05373e-08
5.0538e-08
5.05386e-08
5.05391e-08
5.05396e-08
5.054e-08
5.05405e-08
5.05409e-08
5.05412e-08
5.05415e-08
5.05418e-08
5.05421e-08
5.05424e-08
5.05426e-08
5.05428e-08
5.0543e-08
5.05432e-08
5.05434e-08
5.05435e-08
5.05437e-08
5.05438e-08
5.05439e-08
5.0544e-08
5.05442e-08
5.05443e-08
5.05443e-08
5.05444e-08
5.05445e-08
5.05446e-08
5.05446e-08
5.05447e-08
5.05447e-08
5.05448e-08
5.05448e-08
5.05449e-08
5.0545e-08
5.0545e-08
5.0545e-08
5.0545e-08
5.05451e-08
5.05451e-08
5.05451e-08
5.05452e-08
5.05452e-08
5.05452e-08
5.05452e-08
5.05452e-08
5.05452e-08
5.05452e-08
5.05453e-08
5.05452e-08
5.05453e-08
5.05452e-08
5.05453e-08
5.05453e-08
5.05453e-08
5.05453e-08
5.05453e-08
5.05453e-08
5.05453e-08
5.05453e-08
5.05453e-08
5.05453e-08
5.05453e-08
5.05453e-08
5.05453e-08
5.05453e-08
5.05453e-08
5.05453e-08
5.05454e-08
5.05453e-08
5.05454e-08
5.05454e-08
5.05454e-08
5.05454e-08
5.05454e-08
5.05454e-08
5.05454e-08
5.05454e-08
5.05454e-08
5.05454e-08
5.05454e-08
5.05454e-08
5.05454e-08
5.05454e-08
5.05454e-08
5.05454e-08
5.05454e-08
5.05454e-08
5.05454e-08
5.05454e-08
5.05453e-08
5.05454e-08
5.05453e-08
5.05454e-08
5.05454e-08
5.05454e-08
5.05454e-08
5.05454e-08
5.05454e-08
5.05454e-08
5.05453e-08
5.05454e-08
5.05453e-08
5.05454e-08
5.05453e-08
5.05454e-08
5.05453e-08
5.05454e-08
5.05454e-08
5.05454e-08
5.05454e-08
5.05454e-08
5.05454e-08
5.05454e-08
5.05454e-08
5.05454e-08
5.05454e-08
5.05454e-08
5.05454e-08
5.05454e-08
5.05454e-08
5.05454e-08
5.05454e-08
5.05454e-08
5.05454e-08
5.05454e-08
5.05454e-08
5.05454e-08
5.05454e-08
5.05454e-08
5.05454e-08
5.05454e-08
5.05454e-08
5.05453e-08
5.05454e-08
5.05453e-08
5.05454e-08
5.05454e-08
5.05454e-08
5.05454e-08
5.05454e-08
5.05454e-08
5.05454e-08
5.05454e-08
5.05454e-08
5.05454e-08
5.05454e-08
5.05454e-08
5.05453e-08
5.05454e-08
5.05454e-08
5.05454e-08
5.05454e-08
5.05454e-08
5.05453e-08
5.05454e-08
5.05454e-08
5.05454e-08
5.05454e-08
5.05454e-08
5.05454e-08
5.05454e-08
5.05454e-08
5.05454e-08
5.05454e-08
5.05454e-08
5.05454e-08
5.05454e-08
5.05454e-08
5.05454e-08
5.05454e-08
5.05454e-08
5.05454e-08
5.05453e-08
5.05453e-08
5.05453e-08
5.05453e-08
5.05454e-08
5.05454e-08
5.05454e-08
5.05454e-08
5.05453e-08
5.05454e-08
5.05453e-08
5.05454e-08
5.05453e-08
5.05454e-08
5.05454e-08
5.05454e-08
5.05453e-08
5.05454e-08
5.05453e-08
5.05453e-08
5.05454e-08
5.05454e-08
5.05453e-08
5.05454e-08
5.05454e-08
5.05453e-08
5.05454e-08
5.05454e-08
5.05454e-08
5.05454e-08
5.05454e-08
5.05454e-08
5.05454e-08
5.05453e-08
5.05454e-08
5.05453e-08
5.05454e-08
5.05453e-08
5.05454e-08
5.05454e-08
5.05454e-08
5.05453e-08
5.05454e-08
5.05454e-08
5.05453e-08
5.05453e-08
5.05453e-08
5.05453e-08
5.05453e-08
5.05454e-08
5.05454e-08
5.05454e-08
5.05454e-08
5.05453e-08
5.05454e-08
5.05454e-08
5.05454e-08
5.05454e-08
5.05454e-08
5.05454e-08
5.05454e-08
5.05454e-08
5.05454e-08
5.05454e-08
5.05453e-08
5.05453e-08
5.05453e-08
5.05453e-08
5.05453e-08
5.05453e-08
5.05453e-08
5.05453e-08
5.05453e-08
5.05453e-08
5.05453e-08
5.05453e-08
5.05453e-08
5.05453e-08
5.05453e-08
5.05453e-08
5.05453e-08
5.05453e-08
5.05453e-08
5.05453e-08
5.05453e-08
5.05453e-08
5.05453e-08
5.05454e-08
5.05454e-08
5.05454e-08
5.05453e-08
5.05454e-08
5.05452e-08
5.05453e-08
5.05452e-08
5.05453e-08
5.05452e-08
5.05453e-08
5.05452e-08
5.05453e-08
5.05452e-08
5.05453e-08
5.05453e-08
5.05453e-08
5.05453e-08
5.05453e-08
5.05453e-08
5.05453e-08
5.05453e-08
5.05453e-08
5.05453e-08
5.05453e-08
5.05453e-08
5.05452e-08
5.05453e-08
5.05452e-08
5.05453e-08
5.05453e-08
5.05454e-08
5.05453e-08
5.05454e-08
5.05454e-08
5.05454e-08
5.05453e-08
5.05453e-08
5.05453e-08
5.05453e-08
5.05453e-08
5.05453e-08
5.05452e-08
5.05453e-08
5.05452e-08
5.05453e-08
5.05452e-08
5.05453e-08
5.05452e-08
5.05454e-08
5.05453e-08
5.05454e-08
5.05453e-08
5.05454e-08
5.05454e-08
5.05455e-08
5.05455e-08
5.05454e-08
5.05454e-08
5.05454e-08
5.05454e-08
5.05453e-08
5.05453e-08
5.05452e-08
5.05452e-08
5.05452e-08
5.05453e-08
5.05453e-08
5.05453e-08
5.05453e-08
5.05454e-08
5.05453e-08
5.05454e-08
5.05453e-08
5.05454e-08
5.05453e-08
5.05454e-08
5.05453e-08
5.05453e-08
5.05453e-08
5.05454e-08
5.05454e-08
5.05454e-08
5.05454e-08
5.05453e-08
5.05454e-08
5.05454e-08
5.05454e-08
5.05454e-08
5.05454e-08
5.05453e-08
5.05453e-08
5.05453e-08
5.05453e-08
5.05453e-08
5.05453e-08
5.05453e-08
5.05453e-08
5.05453e-08
5.05453e-08
5.05453e-08
5.05453e-08
5.05453e-08
5.05453e-08
5.05453e-08
5.05452e-08
5.05453e-08
5.05452e-08
5.05453e-08
5.0545e-08
5.05453e-08
5.05448e-08
5.05455e-08
5.05444e-08
5.05458e-08
5.05438e-08
5.05462e-08
5.05432e-08
5.05466e-08
5.05428e-08
5.05463e-08
5.0543e-08
5.05447e-08
5.05449e-08
5.05407e-08
5.05503e-08
5.05327e-08
5.05635e-08
5.0524e-08
7.66668e-09
1.06609e-08
1.35451e-08
1.34396e-08
1.62638e-08
1.6976e-08
1.94694e-08
2.07171e-08
2.27708e-08
2.43959e-08
2.62111e-08
2.78303e-08
2.9461e-08
3.09336e-08
3.23691e-08
3.36965e-08
3.49477e-08
3.61137e-08
3.72008e-08
3.8212e-08
3.91514e-08
4.00229e-08
4.08309e-08
4.15794e-08
4.22723e-08
4.29131e-08
4.35052e-08
4.40522e-08
4.45575e-08
4.50241e-08
4.54549e-08
4.58524e-08
4.62192e-08
4.65577e-08
4.68698e-08
4.71578e-08
4.74233e-08
4.76683e-08
4.78943e-08
4.81026e-08
4.82948e-08
4.8472e-08
4.86355e-08
4.87861e-08
4.89251e-08
4.90532e-08
4.91714e-08
4.92804e-08
4.93809e-08
4.94736e-08
4.95589e-08
4.96378e-08
4.97104e-08
4.97775e-08
4.98391e-08
4.98961e-08
4.99487e-08
4.9997e-08
5.00418e-08
5.00829e-08
5.01209e-08
5.01559e-08
5.01881e-08
5.02179e-08
5.02453e-08
5.02707e-08
5.0294e-08
5.03155e-08
5.03353e-08
5.03536e-08
5.03705e-08
5.03861e-08
5.04005e-08
5.04141e-08
5.04267e-08
5.04381e-08
5.04489e-08
5.04585e-08
5.04678e-08
5.04759e-08
5.04838e-08
5.04906e-08
5.04974e-08
5.05032e-08
5.0509e-08
5.05139e-08
5.05188e-08
5.0523e-08
5.05272e-08
5.05308e-08
5.05343e-08
5.05373e-08
5.05403e-08
5.05429e-08
5.05455e-08
5.05477e-08
5.05499e-08
5.05517e-08
5.05536e-08
5.05552e-08
5.05567e-08
5.05581e-08
5.05594e-08
5.05606e-08
5.05617e-08
5.05627e-08
5.05636e-08
5.05645e-08
5.05653e-08
5.0566e-08
5.05667e-08
5.05673e-08
5.05679e-08
5.05684e-08
5.05689e-08
5.05693e-08
5.05697e-08
5.05701e-08
5.05705e-08
5.05708e-08
5.05711e-08
5.05714e-08
5.05716e-08
5.05718e-08
5.0572e-08
5.05722e-08
5.05724e-08
5.05726e-08
5.05727e-08
5.05729e-08
5.0573e-08
5.05731e-08
5.05732e-08
5.05733e-08
5.05734e-08
5.05735e-08
5.05736e-08
5.05737e-08
5.05737e-08
5.05738e-08
5.05738e-08
5.05739e-08
5.05739e-08
5.0574e-08
5.0574e-08
5.05741e-08
5.05741e-08
5.05741e-08
5.05741e-08
5.05742e-08
5.05742e-08
5.05742e-08
5.05743e-08
5.05743e-08
5.05743e-08
5.05743e-08
5.05743e-08
5.05743e-08
5.05743e-08
5.05743e-08
5.05743e-08
5.05743e-08
5.05743e-08
5.05744e-08
5.05743e-08
5.05744e-08
5.05744e-08
5.05744e-08
5.05744e-08
5.05744e-08
5.05744e-08
5.05744e-08
5.05744e-08
5.05744e-08
5.05744e-08
5.05744e-08
5.05744e-08
5.05744e-08
5.05744e-08
5.05744e-08
5.05744e-08
5.05745e-08
5.05744e-08
5.05745e-08
5.05745e-08
5.05745e-08
5.05745e-08
5.05745e-08
5.05745e-08
5.05745e-08
5.05745e-08
5.05745e-08
5.05745e-08
5.05745e-08
5.05745e-08
5.05745e-08
5.05745e-08
5.05745e-08
5.05745e-08
5.05745e-08
5.05745e-08
5.05745e-08
5.05744e-08
5.05745e-08
5.05745e-08
5.05745e-08
5.05745e-08
5.05745e-08
5.05745e-08
5.05745e-08
5.05745e-08
5.05744e-08
5.05745e-08
5.05744e-08
5.05745e-08
5.05744e-08
5.05745e-08
5.05744e-08
5.05745e-08
5.05745e-08
5.05745e-08
5.05745e-08
5.05745e-08
5.05745e-08
5.05745e-08
5.05745e-08
5.05745e-08
5.05745e-08
5.05745e-08
5.05745e-08
5.05745e-08
5.05745e-08
5.05745e-08
5.05745e-08
5.05745e-08
5.05745e-08
5.05745e-08
5.05745e-08
5.05745e-08
5.05745e-08
5.05745e-08
5.05745e-08
5.05745e-08
5.05745e-08
5.05745e-08
5.05745e-08
5.05745e-08
5.05744e-08
5.05745e-08
5.05745e-08
5.05745e-08
5.05744e-08
5.05745e-08
5.05744e-08
5.05745e-08
5.05744e-08
5.05745e-08
5.05744e-08
5.05745e-08
5.05744e-08
5.05745e-08
5.05744e-08
5.05745e-08
5.05744e-08
5.05745e-08
5.05745e-08
5.05745e-08
5.05745e-08
5.05745e-08
5.05745e-08
5.05745e-08
5.05745e-08
5.05745e-08
5.05745e-08
5.05745e-08
5.05745e-08
5.05745e-08
5.05745e-08
5.05745e-08
5.05745e-08
5.05745e-08
5.05745e-08
5.05744e-08
5.05745e-08
5.05744e-08
5.05744e-08
5.05744e-08
5.05745e-08
5.05745e-08
5.05745e-08
5.05744e-08
5.05745e-08
5.05744e-08
5.05744e-08
5.05744e-08
5.05745e-08
5.05744e-08
5.05745e-08
5.05745e-08
5.05745e-08
5.05744e-08
5.05745e-08
5.05745e-08
5.05745e-08
5.05745e-08
5.05745e-08
5.05744e-08
5.05745e-08
5.05745e-08
5.05745e-08
5.05745e-08
5.05745e-08
5.05745e-08
5.05745e-08
5.05745e-08
5.05745e-08
5.05745e-08
5.05744e-08
5.05745e-08
5.05745e-08
5.05745e-08
5.05745e-08
5.05745e-08
5.05745e-08
5.05745e-08
5.05744e-08
5.05744e-08
5.05744e-08
5.05744e-08
5.05744e-08
5.05744e-08
5.05744e-08
5.05744e-08
5.05744e-08
5.05745e-08
5.05744e-08
5.05745e-08
5.05745e-08
5.05745e-08
5.05744e-08
5.05745e-08
5.05745e-08
5.05745e-08
5.05744e-08
5.05745e-08
5.05744e-08
5.05745e-08
5.05745e-08
5.05745e-08
5.05745e-08
5.05744e-08
5.05744e-08
5.05744e-08
5.05745e-08
5.05744e-08
5.05745e-08
5.05744e-08
5.05745e-08
5.05744e-08
5.05744e-08
5.05743e-08
5.05744e-08
5.05743e-08
5.05744e-08
5.05744e-08
5.05744e-08
5.05744e-08
5.05744e-08
5.05744e-08
5.05744e-08
5.05744e-08
5.05745e-08
5.05744e-08
5.05745e-08
5.05744e-08
5.05744e-08
5.05743e-08
5.05744e-08
5.05743e-08
5.05744e-08
5.05743e-08
5.05744e-08
5.05744e-08
5.05744e-08
5.05743e-08
5.05744e-08
5.05744e-08
5.05744e-08
5.05744e-08
5.05744e-08
5.05744e-08
5.05744e-08
5.05744e-08
5.05744e-08
5.05744e-08
5.05744e-08
5.05744e-08
5.05744e-08
5.05744e-08
5.05744e-08
5.05744e-08
5.05744e-08
5.05744e-08
5.05744e-08
5.05745e-08
5.05744e-08
5.05745e-08
5.05744e-08
5.05744e-08
5.05744e-08
5.05744e-08
5.05744e-08
5.05744e-08
5.05743e-08
5.05744e-08
5.05743e-08
5.05744e-08
5.05743e-08
5.05744e-08
5.05743e-08
5.05744e-08
5.05744e-08
5.05745e-08
5.05744e-08
5.05745e-08
5.05745e-08
5.05746e-08
5.05745e-08
5.05745e-08
5.05744e-08
5.05744e-08
5.05744e-08
5.05744e-08
5.05744e-08
5.05744e-08
5.05744e-08
5.05744e-08
5.05744e-08
5.05744e-08