/*--------------------------------*- C++ -*----------------------------------*\
| =========                 |                                                 |
| \\      /  F ield         | OpenFOAM: The Open Source CFD Toolbox           |
|  \\    /   O peration     | Version:  2012                                  |
|   \\  /    A nd           | Website:  www.openfoam.com                      |
|    \\/     M anipulation  |                                                 |
\*---------------------------------------------------------------------------*/
FoamFile
{
    version     2.0;
    format      ascii;
    class       volScalarField;
    location    "1";
    object      rho2;
}
// * * * * * * * * * * * * * * * * * * * * * * * * * * * * * * * * * * * * * //

dimensions      [1 -3 0 0 0 0 0];


internalField   nonuniform List<scalar> 
20400
(
0.0122067
0.0122079
0.0122064
0.0122105
0.0122071
0.0122117
0.012208
0.0122114
0.0122093
0.012211
0.01221
0.0122104
0.0122099
0.0122098
0.0122094
0.012209
0.0122085
0.0122081
0.0122075
0.0122069
0.0122063
0.0122057
0.012205
0.0122044
0.0122037
0.012203
0.0122023
0.0122016
0.0122008
0.0122001
0.0121994
0.0121986
0.0121979
0.0121972
0.0121964
0.0121957
0.012195
0.0121942
0.0121935
0.0121928
0.0121921
0.0121913
0.0121906
0.0121899
0.0121892
0.0121885
0.0121877
0.012187
0.0121863
0.0121856
0.0121849
0.0121842
0.0121835
0.0121828
0.0121822
0.0121815
0.0121808
0.0121801
0.0121794
0.0121787
0.0121781
0.0121774
0.0121767
0.012176
0.0121754
0.0121747
0.012174
0.0121734
0.0121727
0.012172
0.0121713
0.0121707
0.01217
0.0121694
0.0121687
0.012168
0.0121674
0.0121667
0.0121661
0.0121654
0.0121647
0.0121641
0.0121634
0.0121628
0.0121621
0.0121615
0.0121608
0.0121601
0.0121595
0.0121588
0.0121582
0.0121575
0.0121569
0.0121562
0.0121556
0.0121549
0.0121543
0.0121536
0.012153
0.0121523
0.0121516
0.012151
0.0121503
0.0121497
0.012149
0.0121484
0.0121477
0.0121471
0.0121464
0.0121458
0.0121451
0.0121445
0.0121438
0.0121432
0.0121425
0.0121419
0.0121412
0.0121406
0.0121399
0.0121393
0.0121386
0.012138
0.0121373
0.0121367
0.012136
0.0121354
0.0121347
0.0121341
0.0121334
0.0121328
0.0121321
0.0121315
0.0121308
0.0121302
0.0121295
0.0121289
0.0121282
0.0121276
0.0121269
0.0121263
0.0121256
0.012125
0.0121243
0.0121237
0.012123
0.0121224
0.0121217
0.0121211
0.0121204
0.0121198
0.0121191
0.0121185
0.0121178
0.0121172
0.0121165
0.0121159
0.0121152
0.0121146
0.0121139
0.0121133
0.0121126
0.012112
0.0121113
0.0121107
0.01211
0.0121094
0.0121087
0.0121081
0.0121074
0.0121068
0.0121061
0.0121055
0.0121048
0.0121042
0.0121035
0.0121029
0.0121022
0.0121016
0.0121009
0.0121003
0.0120996
0.012099
0.0120983
0.0120977
0.012097
0.0120964
0.0120957
0.0120951
0.0120944
0.0120938
0.0120931
0.0120925
0.0120918
0.0120912
0.0120905
0.0120899
0.0120892
0.0120886
0.0120879
0.0120873
0.0120866
0.0120859
0.0120853
0.0120846
0.012084
0.0120833
0.0120827
0.012082
0.0120814
0.0120807
0.0120801
0.0120794
0.0120788
0.0120781
0.0120775
0.0120768
0.0120762
0.0120755
0.0120749
0.0120742
0.0120736
0.0120729
0.0120723
0.0120716
0.012071
0.0120703
0.0120697
0.012069
0.0120684
0.0120677
0.0120671
0.0120664
0.0120658
0.0120651
0.0120645
0.0120638
0.0120632
0.0120625
0.0120619
0.0120612
0.0120606
0.0120599
0.0120593
0.0120586
0.012058
0.0120573
0.0120567
0.012056
0.0120554
0.0120547
0.0120541
0.0120534
0.0120528
0.0120521
0.0120515
0.0120508
0.0120502
0.0120495
0.0120489
0.0120482
0.0120476
0.0120469
0.0120463
0.0120456
0.012045
0.0120443
0.0120437
0.012043
0.0120424
0.0120417
0.0120411
0.0120404
0.0120398
0.0120391
0.0120385
0.0120378
0.0120372
0.0120365
0.0120359
0.0120352
0.0120346
0.0120339
0.0120333
0.0120326
0.012032
0.0120313
0.0120307
0.01203
0.0120294
0.0120287
0.0120281
0.0120274
0.0120268
0.0120261
0.0120255
0.0120248
0.0120242
0.0120235
0.0120229
0.0120222
0.0120216
0.0120209
0.0120203
0.0120196
0.012019
0.0120183
0.0120177
0.012017
0.0120164
0.0120157
0.0120151
0.0120144
0.0120138
0.0120131
0.0120125
0.0120118
0.0120112
0.0120105
0.0120099
0.0120092
0.0120086
0.0120079
0.0120073
0.0120066
0.012006
0.0120053
0.0120047
0.012004
0.0120034
0.0120027
0.0120021
0.0120014
0.0120008
0.0120001
0.0119995
0.0119988
0.0119982
0.0119975
0.0119969
0.0119962
0.0119956
0.0119949
0.0119943
0.0119936
0.011993
0.0119923
0.0119917
0.011991
0.0119904
0.0119897
0.0119891
0.0119884
0.0119878
0.0119871
0.0119865
0.0119858
0.0119852
0.0119845
0.0119839
0.0119832
0.0119826
0.0119819
0.0119813
0.0119806
0.01198
0.0119793
0.0119787
0.011978
0.0119774
0.0119767
0.0119761
0.0119754
0.0119748
0.0119741
0.0119735
0.0119728
0.0119722
0.0119715
0.0119709
0.0119702
0.0119696
0.0119689
0.0119683
0.0119676
0.011967
0.0119663
0.0119657
0.011965
0.0119644
0.0119637
0.0119631
0.0119624
0.0119618
0.0119611
0.0119605
0.0119598
0.0119592
0.0119585
0.0119579
0.0119572
0.0119566
0.0119559
0.0119553
0.0119546
0.011954
0.0119533
0.0119527
0.011952
0.0119514
0.0119507
0.0119501
0.0119494
0.0119488
0.0119481
0.0119475
0.0119468
0.0119462
0.0119455
0.0119449
0.0119442
0.0119436
0.0119429
0.0119423
0.0119416
0.011941
0.0119403
0.0119397
0.011939
0.0119384
0.0119377
0.0119371
0.0119364
0.0119358
0.0119351
0.0119345
0.0119338
0.0119332
0.0119325
0.0119319
0.0119312
0.0119306
0.0119299
0.0119293
0.0119286
0.011928
0.0119273
0.0119267
0.011926
0.0119254
0.0119247
0.0119241
0.0119234
0.0119228
0.0119221
0.0119215
0.0119208
0.0119202
0.0119195
0.0119189
0.0119182
0.0119176
0.0119169
0.0119163
0.0119156
0.0119149
0.0119143
0.0119136
0.011913
0.0119123
0.0119117
0.011911
0.0119104
0.0119097
0.0119091
0.0119084
0.0119078
0.0119071
0.0119065
0.0119058
0.0119052
0.0119045
0.0119039
0.0119032
0.0119026
0.0119019
0.0119013
0.0119006
0.0119
0.0118993
0.0118987
0.011898
0.0118974
0.0118967
0.0118961
0.0118954
0.0118948
0.0118942
0.0118934
0.0118929
0.0118921
0.0122056
0.0122078
0.0122051
0.0122098
0.0122059
0.012211
0.012207
0.0122108
0.0122087
0.0122105
0.0122095
0.01221
0.0122096
0.0122095
0.0122092
0.0122088
0.0122084
0.0122079
0.0122074
0.0122068
0.0122062
0.0122056
0.0122049
0.0122043
0.0122036
0.0122029
0.0122022
0.0122014
0.0122007
0.0122
0.0121993
0.0121985
0.0121978
0.0121971
0.0121963
0.0121956
0.0121949
0.0121942
0.0121934
0.0121927
0.012192
0.0121913
0.0121905
0.0121898
0.0121891
0.0121884
0.0121877
0.012187
0.0121863
0.0121856
0.0121849
0.0121842
0.0121835
0.0121828
0.0121821
0.0121815
0.0121808
0.0121801
0.0121794
0.0121787
0.012178
0.0121774
0.0121767
0.012176
0.0121754
0.0121747
0.012174
0.0121733
0.0121727
0.012172
0.0121713
0.0121707
0.01217
0.0121694
0.0121687
0.012168
0.0121674
0.0121667
0.0121661
0.0121654
0.0121647
0.0121641
0.0121634
0.0121628
0.0121621
0.0121614
0.0121608
0.0121601
0.0121595
0.0121588
0.0121582
0.0121575
0.0121569
0.0121562
0.0121556
0.0121549
0.0121543
0.0121536
0.0121529
0.0121523
0.0121516
0.012151
0.0121503
0.0121497
0.012149
0.0121484
0.0121477
0.0121471
0.0121464
0.0121458
0.0121451
0.0121445
0.0121438
0.0121432
0.0121425
0.0121419
0.0121412
0.0121406
0.0121399
0.0121393
0.0121386
0.012138
0.0121373
0.0121367
0.012136
0.0121354
0.0121347
0.0121341
0.0121334
0.0121328
0.0121321
0.0121315
0.0121308
0.0121302
0.0121295
0.0121289
0.0121282
0.0121276
0.0121269
0.0121263
0.0121256
0.012125
0.0121243
0.0121237
0.012123
0.0121224
0.0121217
0.0121211
0.0121204
0.0121198
0.0121191
0.0121185
0.0121178
0.0121172
0.0121165
0.0121159
0.0121152
0.0121146
0.0121139
0.0121133
0.0121126
0.012112
0.0121113
0.0121107
0.01211
0.0121094
0.0121087
0.0121081
0.0121074
0.0121068
0.0121061
0.0121055
0.0121048
0.0121042
0.0121035
0.0121029
0.0121022
0.0121016
0.0121009
0.0121003
0.0120996
0.012099
0.0120983
0.0120977
0.012097
0.0120964
0.0120957
0.0120951
0.0120944
0.0120938
0.0120931
0.0120925
0.0120918
0.0120912
0.0120905
0.0120899
0.0120892
0.0120886
0.0120879
0.0120873
0.0120866
0.0120859
0.0120853
0.0120846
0.012084
0.0120833
0.0120827
0.012082
0.0120814
0.0120807
0.0120801
0.0120794
0.0120788
0.0120781
0.0120775
0.0120768
0.0120762
0.0120755
0.0120749
0.0120742
0.0120736
0.0120729
0.0120723
0.0120716
0.012071
0.0120703
0.0120697
0.012069
0.0120684
0.0120677
0.0120671
0.0120664
0.0120658
0.0120651
0.0120645
0.0120638
0.0120632
0.0120625
0.0120619
0.0120612
0.0120606
0.0120599
0.0120593
0.0120586
0.012058
0.0120573
0.0120567
0.012056
0.0120554
0.0120547
0.0120541
0.0120534
0.0120528
0.0120521
0.0120515
0.0120508
0.0120502
0.0120495
0.0120489
0.0120482
0.0120476
0.0120469
0.0120463
0.0120456
0.012045
0.0120443
0.0120437
0.012043
0.0120424
0.0120417
0.0120411
0.0120404
0.0120398
0.0120391
0.0120385
0.0120378
0.0120372
0.0120365
0.0120359
0.0120352
0.0120346
0.0120339
0.0120333
0.0120326
0.012032
0.0120313
0.0120307
0.01203
0.0120294
0.0120287
0.0120281
0.0120274
0.0120268
0.0120261
0.0120255
0.0120248
0.0120242
0.0120235
0.0120229
0.0120222
0.0120216
0.0120209
0.0120203
0.0120196
0.012019
0.0120183
0.0120177
0.012017
0.0120164
0.0120157
0.0120151
0.0120144
0.0120138
0.0120131
0.0120125
0.0120118
0.0120112
0.0120105
0.0120099
0.0120092
0.0120086
0.0120079
0.0120073
0.0120066
0.012006
0.0120053
0.0120047
0.012004
0.0120034
0.0120027
0.0120021
0.0120014
0.0120008
0.0120001
0.0119995
0.0119988
0.0119982
0.0119975
0.0119969
0.0119962
0.0119956
0.0119949
0.0119943
0.0119936
0.011993
0.0119923
0.0119917
0.011991
0.0119904
0.0119897
0.0119891
0.0119884
0.0119878
0.0119871
0.0119865
0.0119858
0.0119852
0.0119845
0.0119839
0.0119832
0.0119826
0.0119819
0.0119813
0.0119806
0.01198
0.0119793
0.0119787
0.011978
0.0119774
0.0119767
0.0119761
0.0119754
0.0119748
0.0119741
0.0119735
0.0119728
0.0119722
0.0119715
0.0119709
0.0119702
0.0119696
0.0119689
0.0119683
0.0119676
0.011967
0.0119663
0.0119657
0.011965
0.0119644
0.0119637
0.0119631
0.0119624
0.0119618
0.0119611
0.0119605
0.0119598
0.0119592
0.0119585
0.0119579
0.0119572
0.0119566
0.0119559
0.0119553
0.0119546
0.011954
0.0119533
0.0119527
0.011952
0.0119514
0.0119507
0.0119501
0.0119494
0.0119488
0.0119481
0.0119475
0.0119468
0.0119462
0.0119455
0.0119449
0.0119442
0.0119436
0.0119429
0.0119423
0.0119416
0.011941
0.0119403
0.0119397
0.011939
0.0119384
0.0119377
0.0119371
0.0119364
0.0119358
0.0119351
0.0119345
0.0119338
0.0119332
0.0119325
0.0119319
0.0119312
0.0119306
0.0119299
0.0119293
0.0119286
0.011928
0.0119273
0.0119267
0.011926
0.0119254
0.0119247
0.0119241
0.0119234
0.0119228
0.0119221
0.0119215
0.0119208
0.0119202
0.0119195
0.0119189
0.0119182
0.0119176
0.0119169
0.0119163
0.0119156
0.0119149
0.0119143
0.0119136
0.011913
0.0119123
0.0119117
0.011911
0.0119104
0.0119097
0.0119091
0.0119084
0.0119078
0.0119071
0.0119065
0.0119058
0.0119052
0.0119045
0.0119039
0.0119032
0.0119026
0.0119019
0.0119013
0.0119006
0.0119
0.0118993
0.0118987
0.011898
0.0118974
0.0118967
0.0118961
0.0118954
0.0118948
0.0118942
0.0118934
0.0118929
0.0118921
0.0122054
0.0122067
0.012205
0.0122095
0.0122054
0.0122106
0.0122064
0.0122103
0.0122081
0.0122099
0.0122089
0.0122093
0.0122089
0.0122088
0.0122085
0.0122081
0.0122077
0.0122073
0.0122068
0.0122063
0.0122057
0.0122052
0.0122046
0.0122039
0.0122033
0.0122026
0.012202
0.0122013
0.0122006
0.0121999
0.0121992
0.0121985
0.0121977
0.012197
0.0121963
0.0121956
0.0121949
0.0121941
0.0121934
0.0121927
0.012192
0.0121912
0.0121905
0.0121898
0.0121891
0.0121884
0.0121877
0.012187
0.0121863
0.0121856
0.0121849
0.0121842
0.0121835
0.0121828
0.0121821
0.0121814
0.0121808
0.0121801
0.0121794
0.0121787
0.012178
0.0121774
0.0121767
0.012176
0.0121753
0.0121747
0.012174
0.0121733
0.0121727
0.012172
0.0121713
0.0121707
0.01217
0.0121693
0.0121687
0.012168
0.0121674
0.0121667
0.012166
0.0121654
0.0121647
0.0121641
0.0121634
0.0121628
0.0121621
0.0121614
0.0121608
0.0121601
0.0121595
0.0121588
0.0121582
0.0121575
0.0121569
0.0121562
0.0121556
0.0121549
0.0121543
0.0121536
0.0121529
0.0121523
0.0121516
0.012151
0.0121503
0.0121497
0.012149
0.0121484
0.0121477
0.0121471
0.0121464
0.0121458
0.0121451
0.0121445
0.0121438
0.0121432
0.0121425
0.0121419
0.0121412
0.0121406
0.0121399
0.0121393
0.0121386
0.012138
0.0121373
0.0121367
0.012136
0.0121354
0.0121347
0.0121341
0.0121334
0.0121328
0.0121321
0.0121315
0.0121308
0.0121302
0.0121295
0.0121289
0.0121282
0.0121276
0.0121269
0.0121263
0.0121256
0.012125
0.0121243
0.0121237
0.012123
0.0121224
0.0121217
0.0121211
0.0121204
0.0121198
0.0121191
0.0121185
0.0121178
0.0121172
0.0121165
0.0121159
0.0121152
0.0121146
0.0121139
0.0121133
0.0121126
0.012112
0.0121113
0.0121107
0.01211
0.0121094
0.0121087
0.0121081
0.0121074
0.0121068
0.0121061
0.0121055
0.0121048
0.0121042
0.0121035
0.0121029
0.0121022
0.0121016
0.0121009
0.0121003
0.0120996
0.012099
0.0120983
0.0120977
0.012097
0.0120964
0.0120957
0.0120951
0.0120944
0.0120938
0.0120931
0.0120925
0.0120918
0.0120912
0.0120905
0.0120899
0.0120892
0.0120886
0.0120879
0.0120873
0.0120866
0.0120859
0.0120853
0.0120846
0.012084
0.0120833
0.0120827
0.012082
0.0120814
0.0120807
0.0120801
0.0120794
0.0120788
0.0120781
0.0120775
0.0120768
0.0120762
0.0120755
0.0120749
0.0120742
0.0120736
0.0120729
0.0120723
0.0120716
0.012071
0.0120703
0.0120697
0.012069
0.0120684
0.0120677
0.0120671
0.0120664
0.0120658
0.0120651
0.0120645
0.0120638
0.0120632
0.0120625
0.0120619
0.0120612
0.0120606
0.0120599
0.0120593
0.0120586
0.012058
0.0120573
0.0120567
0.012056
0.0120554
0.0120547
0.0120541
0.0120534
0.0120528
0.0120521
0.0120515
0.0120508
0.0120502
0.0120495
0.0120489
0.0120482
0.0120476
0.0120469
0.0120463
0.0120456
0.012045
0.0120443
0.0120437
0.012043
0.0120424
0.0120417
0.0120411
0.0120404
0.0120398
0.0120391
0.0120385
0.0120378
0.0120372
0.0120365
0.0120359
0.0120352
0.0120346
0.0120339
0.0120333
0.0120326
0.012032
0.0120313
0.0120307
0.01203
0.0120294
0.0120287
0.0120281
0.0120274
0.0120268
0.0120261
0.0120255
0.0120248
0.0120242
0.0120235
0.0120229
0.0120222
0.0120216
0.0120209
0.0120203
0.0120196
0.012019
0.0120183
0.0120177
0.012017
0.0120164
0.0120157
0.0120151
0.0120144
0.0120138
0.0120131
0.0120125
0.0120118
0.0120112
0.0120105
0.0120099
0.0120092
0.0120086
0.0120079
0.0120073
0.0120066
0.012006
0.0120053
0.0120047
0.012004
0.0120034
0.0120027
0.0120021
0.0120014
0.0120008
0.0120001
0.0119995
0.0119988
0.0119982
0.0119975
0.0119969
0.0119962
0.0119956
0.0119949
0.0119943
0.0119936
0.011993
0.0119923
0.0119917
0.011991
0.0119904
0.0119897
0.0119891
0.0119884
0.0119878
0.0119871
0.0119865
0.0119858
0.0119852
0.0119845
0.0119839
0.0119832
0.0119826
0.0119819
0.0119813
0.0119806
0.01198
0.0119793
0.0119787
0.011978
0.0119774
0.0119767
0.0119761
0.0119754
0.0119748
0.0119741
0.0119735
0.0119728
0.0119722
0.0119715
0.0119709
0.0119702
0.0119696
0.0119689
0.0119683
0.0119676
0.011967
0.0119663
0.0119657
0.011965
0.0119644
0.0119637
0.0119631
0.0119624
0.0119618
0.0119611
0.0119605
0.0119598
0.0119592
0.0119585
0.0119579
0.0119572
0.0119566
0.0119559
0.0119553
0.0119546
0.011954
0.0119533
0.0119527
0.011952
0.0119514
0.0119507
0.0119501
0.0119494
0.0119488
0.0119481
0.0119475
0.0119468
0.0119462
0.0119455
0.0119449
0.0119442
0.0119436
0.0119429
0.0119423
0.0119416
0.011941
0.0119403
0.0119397
0.011939
0.0119384
0.0119377
0.0119371
0.0119364
0.0119358
0.0119351
0.0119345
0.0119338
0.0119332
0.0119325
0.0119319
0.0119312
0.0119306
0.0119299
0.0119293
0.0119286
0.011928
0.0119273
0.0119267
0.011926
0.0119254
0.0119247
0.0119241
0.0119234
0.0119228
0.0119221
0.0119215
0.0119208
0.0119202
0.0119195
0.0119189
0.0119182
0.0119176
0.0119169
0.0119163
0.0119156
0.0119149
0.0119143
0.0119136
0.011913
0.0119123
0.0119117
0.011911
0.0119104
0.0119097
0.0119091
0.0119084
0.0119078
0.0119071
0.0119065
0.0119058
0.0119052
0.0119045
0.0119039
0.0119032
0.0119026
0.0119019
0.0119013
0.0119006
0.0119
0.0118993
0.0118987
0.011898
0.0118974
0.0118967
0.0118961
0.0118955
0.0118948
0.0118942
0.0118935
0.0118929
0.0118921
0.0122046
0.0122057
0.012204
0.0122085
0.0122043
0.0122097
0.0122057
0.0122098
0.0122076
0.0122094
0.0122085
0.012209
0.0122086
0.0122085
0.0122082
0.0122079
0.0122075
0.0122071
0.0122066
0.0122061
0.0122055
0.012205
0.0122044
0.0122037
0.0122031
0.0122024
0.0122017
0.0122011
0.0122004
0.0121997
0.0121989
0.0121982
0.0121975
0.0121968
0.0121961
0.0121954
0.0121947
0.012194
0.0121933
0.0121925
0.0121918
0.0121911
0.0121904
0.0121897
0.012189
0.0121883
0.0121876
0.0121869
0.0121862
0.0121855
0.0121848
0.0121842
0.0121835
0.0121828
0.0121821
0.0121814
0.0121807
0.0121801
0.0121794
0.0121787
0.012178
0.0121774
0.0121767
0.012176
0.0121753
0.0121747
0.012174
0.0121733
0.0121727
0.012172
0.0121713
0.0121707
0.01217
0.0121693
0.0121687
0.012168
0.0121674
0.0121667
0.012166
0.0121654
0.0121647
0.0121641
0.0121634
0.0121628
0.0121621
0.0121614
0.0121608
0.0121601
0.0121595
0.0121588
0.0121582
0.0121575
0.0121569
0.0121562
0.0121556
0.0121549
0.0121543
0.0121536
0.0121529
0.0121523
0.0121516
0.012151
0.0121503
0.0121497
0.012149
0.0121484
0.0121477
0.0121471
0.0121464
0.0121458
0.0121451
0.0121445
0.0121438
0.0121432
0.0121425
0.0121419
0.0121412
0.0121406
0.0121399
0.0121393
0.0121386
0.012138
0.0121373
0.0121367
0.012136
0.0121354
0.0121347
0.0121341
0.0121334
0.0121328
0.0121321
0.0121315
0.0121308
0.0121302
0.0121295
0.0121289
0.0121282
0.0121276
0.0121269
0.0121263
0.0121256
0.012125
0.0121243
0.0121237
0.012123
0.0121224
0.0121217
0.0121211
0.0121204
0.0121198
0.0121191
0.0121185
0.0121178
0.0121172
0.0121165
0.0121159
0.0121152
0.0121146
0.0121139
0.0121133
0.0121126
0.012112
0.0121113
0.0121107
0.01211
0.0121094
0.0121087
0.0121081
0.0121074
0.0121068
0.0121061
0.0121055
0.0121048
0.0121042
0.0121035
0.0121029
0.0121022
0.0121016
0.0121009
0.0121003
0.0120996
0.012099
0.0120983
0.0120977
0.012097
0.0120964
0.0120957
0.0120951
0.0120944
0.0120938
0.0120931
0.0120925
0.0120918
0.0120912
0.0120905
0.0120899
0.0120892
0.0120886
0.0120879
0.0120873
0.0120866
0.0120859
0.0120853
0.0120846
0.012084
0.0120833
0.0120827
0.012082
0.0120814
0.0120807
0.0120801
0.0120794
0.0120788
0.0120781
0.0120775
0.0120768
0.0120762
0.0120755
0.0120749
0.0120742
0.0120736
0.0120729
0.0120723
0.0120716
0.012071
0.0120703
0.0120697
0.012069
0.0120684
0.0120677
0.0120671
0.0120664
0.0120658
0.0120651
0.0120645
0.0120638
0.0120632
0.0120625
0.0120619
0.0120612
0.0120606
0.0120599
0.0120593
0.0120586
0.012058
0.0120573
0.0120567
0.012056
0.0120554
0.0120547
0.0120541
0.0120534
0.0120528
0.0120521
0.0120515
0.0120508
0.0120502
0.0120495
0.0120489
0.0120482
0.0120476
0.0120469
0.0120463
0.0120456
0.012045
0.0120443
0.0120437
0.012043
0.0120424
0.0120417
0.0120411
0.0120404
0.0120398
0.0120391
0.0120385
0.0120378
0.0120372
0.0120365
0.0120359
0.0120352
0.0120346
0.0120339
0.0120333
0.0120326
0.012032
0.0120313
0.0120307
0.01203
0.0120294
0.0120287
0.0120281
0.0120274
0.0120268
0.0120261
0.0120255
0.0120248
0.0120242
0.0120235
0.0120229
0.0120222
0.0120216
0.0120209
0.0120203
0.0120196
0.012019
0.0120183
0.0120177
0.012017
0.0120164
0.0120157
0.0120151
0.0120144
0.0120138
0.0120131
0.0120125
0.0120118
0.0120112
0.0120105
0.0120099
0.0120092
0.0120086
0.0120079
0.0120073
0.0120066
0.012006
0.0120053
0.0120047
0.012004
0.0120034
0.0120027
0.0120021
0.0120014
0.0120008
0.0120001
0.0119995
0.0119988
0.0119982
0.0119975
0.0119969
0.0119962
0.0119956
0.0119949
0.0119943
0.0119936
0.011993
0.0119923
0.0119917
0.011991
0.0119904
0.0119897
0.0119891
0.0119884
0.0119878
0.0119871
0.0119865
0.0119858
0.0119852
0.0119845
0.0119839
0.0119832
0.0119826
0.0119819
0.0119813
0.0119806
0.01198
0.0119793
0.0119787
0.011978
0.0119774
0.0119767
0.0119761
0.0119754
0.0119748
0.0119741
0.0119735
0.0119728
0.0119722
0.0119715
0.0119709
0.0119702
0.0119696
0.0119689
0.0119683
0.0119676
0.011967
0.0119663
0.0119657
0.011965
0.0119644
0.0119637
0.0119631
0.0119624
0.0119618
0.0119611
0.0119605
0.0119598
0.0119592
0.0119585
0.0119579
0.0119572
0.0119566
0.0119559
0.0119553
0.0119546
0.011954
0.0119533
0.0119527
0.011952
0.0119514
0.0119507
0.0119501
0.0119494
0.0119488
0.0119481
0.0119475
0.0119468
0.0119462
0.0119455
0.0119449
0.0119442
0.0119436
0.0119429
0.0119423
0.0119416
0.011941
0.0119403
0.0119397
0.011939
0.0119384
0.0119377
0.0119371
0.0119364
0.0119358
0.0119351
0.0119345
0.0119338
0.0119332
0.0119325
0.0119319
0.0119312
0.0119306
0.0119299
0.0119293
0.0119286
0.011928
0.0119273
0.0119267
0.011926
0.0119254
0.0119247
0.0119241
0.0119234
0.0119228
0.0119221
0.0119215
0.0119208
0.0119202
0.0119195
0.0119189
0.0119182
0.0119176
0.0119169
0.0119163
0.0119156
0.0119149
0.0119143
0.0119136
0.011913
0.0119123
0.0119117
0.011911
0.0119104
0.0119097
0.0119091
0.0119084
0.0119078
0.0119071
0.0119065
0.0119058
0.0119052
0.0119045
0.0119039
0.0119032
0.0119026
0.0119019
0.0119013
0.0119006
0.0119
0.0118993
0.0118987
0.011898
0.0118974
0.0118967
0.0118961
0.0118955
0.0118948
0.0118942
0.0118935
0.0118929
0.0118921
0.0122045
0.0122037
0.0122036
0.012208
0.0122036
0.0122091
0.0122052
0.0122093
0.012207
0.0122089
0.012208
0.0122085
0.0122082
0.0122081
0.0122078
0.0122075
0.0122072
0.0122068
0.0122063
0.0122058
0.0122053
0.0122047
0.0122041
0.0122035
0.0122029
0.0122022
0.0122016
0.0122009
0.0122002
0.0121995
0.0121988
0.0121981
0.0121974
0.0121967
0.012196
0.0121953
0.0121946
0.0121939
0.0121932
0.0121925
0.0121918
0.0121911
0.0121904
0.0121897
0.012189
0.0121883
0.0121876
0.0121869
0.0121862
0.0121855
0.0121848
0.0121841
0.0121834
0.0121827
0.0121821
0.0121814
0.0121807
0.01218
0.0121793
0.0121787
0.012178
0.0121773
0.0121766
0.012176
0.0121753
0.0121746
0.012174
0.0121733
0.0121726
0.012172
0.0121713
0.0121707
0.01217
0.0121693
0.0121687
0.012168
0.0121674
0.0121667
0.012166
0.0121654
0.0121647
0.0121641
0.0121634
0.0121628
0.0121621
0.0121614
0.0121608
0.0121601
0.0121595
0.0121588
0.0121582
0.0121575
0.0121569
0.0121562
0.0121556
0.0121549
0.0121543
0.0121536
0.0121529
0.0121523
0.0121516
0.012151
0.0121503
0.0121497
0.012149
0.0121484
0.0121477
0.0121471
0.0121464
0.0121458
0.0121451
0.0121445
0.0121438
0.0121432
0.0121425
0.0121419
0.0121412
0.0121406
0.0121399
0.0121393
0.0121386
0.012138
0.0121373
0.0121367
0.012136
0.0121354
0.0121347
0.0121341
0.0121334
0.0121328
0.0121321
0.0121315
0.0121308
0.0121302
0.0121295
0.0121289
0.0121282
0.0121276
0.0121269
0.0121263
0.0121256
0.012125
0.0121243
0.0121237
0.012123
0.0121224
0.0121217
0.0121211
0.0121204
0.0121198
0.0121191
0.0121185
0.0121178
0.0121172
0.0121165
0.0121159
0.0121152
0.0121146
0.0121139
0.0121133
0.0121126
0.012112
0.0121113
0.0121107
0.01211
0.0121094
0.0121087
0.0121081
0.0121074
0.0121068
0.0121061
0.0121055
0.0121048
0.0121042
0.0121035
0.0121029
0.0121022
0.0121016
0.0121009
0.0121003
0.0120996
0.012099
0.0120983
0.0120977
0.012097
0.0120964
0.0120957
0.0120951
0.0120944
0.0120938
0.0120931
0.0120925
0.0120918
0.0120912
0.0120905
0.0120899
0.0120892
0.0120886
0.0120879
0.0120873
0.0120866
0.0120859
0.0120853
0.0120846
0.012084
0.0120833
0.0120827
0.012082
0.0120814
0.0120807
0.0120801
0.0120794
0.0120788
0.0120781
0.0120775
0.0120768
0.0120762
0.0120755
0.0120749
0.0120742
0.0120736
0.0120729
0.0120723
0.0120716
0.012071
0.0120703
0.0120697
0.012069
0.0120684
0.0120677
0.0120671
0.0120664
0.0120658
0.0120651
0.0120645
0.0120638
0.0120632
0.0120625
0.0120619
0.0120612
0.0120606
0.0120599
0.0120593
0.0120586
0.012058
0.0120573
0.0120567
0.012056
0.0120554
0.0120547
0.0120541
0.0120534
0.0120528
0.0120521
0.0120515
0.0120508
0.0120502
0.0120495
0.0120489
0.0120482
0.0120476
0.0120469
0.0120463
0.0120456
0.012045
0.0120443
0.0120437
0.012043
0.0120424
0.0120417
0.0120411
0.0120404
0.0120398
0.0120391
0.0120385
0.0120378
0.0120372
0.0120365
0.0120359
0.0120352
0.0120346
0.0120339
0.0120333
0.0120326
0.012032
0.0120313
0.0120307
0.01203
0.0120294
0.0120287
0.0120281
0.0120274
0.0120268
0.0120261
0.0120255
0.0120248
0.0120242
0.0120235
0.0120229
0.0120222
0.0120216
0.0120209
0.0120203
0.0120196
0.012019
0.0120183
0.0120177
0.012017
0.0120164
0.0120157
0.0120151
0.0120144
0.0120138
0.0120131
0.0120125
0.0120118
0.0120112
0.0120105
0.0120099
0.0120092
0.0120086
0.0120079
0.0120073
0.0120066
0.012006
0.0120053
0.0120047
0.012004
0.0120034
0.0120027
0.0120021
0.0120014
0.0120008
0.0120001
0.0119995
0.0119988
0.0119982
0.0119975
0.0119969
0.0119962
0.0119956
0.0119949
0.0119943
0.0119936
0.011993
0.0119923
0.0119917
0.011991
0.0119904
0.0119897
0.0119891
0.0119884
0.0119878
0.0119871
0.0119865
0.0119858
0.0119852
0.0119845
0.0119839
0.0119832
0.0119826
0.0119819
0.0119813
0.0119806
0.01198
0.0119793
0.0119787
0.011978
0.0119774
0.0119767
0.0119761
0.0119754
0.0119748
0.0119741
0.0119735
0.0119728
0.0119722
0.0119715
0.0119709
0.0119702
0.0119696
0.0119689
0.0119683
0.0119676
0.011967
0.0119663
0.0119657
0.011965
0.0119644
0.0119637
0.0119631
0.0119624
0.0119618
0.0119611
0.0119605
0.0119598
0.0119592
0.0119585
0.0119579
0.0119572
0.0119566
0.0119559
0.0119553
0.0119546
0.011954
0.0119533
0.0119527
0.011952
0.0119514
0.0119507
0.0119501
0.0119494
0.0119488
0.0119481
0.0119475
0.0119468
0.0119462
0.0119455
0.0119449
0.0119442
0.0119436
0.0119429
0.0119423
0.0119416
0.011941
0.0119403
0.0119397
0.011939
0.0119384
0.0119377
0.0119371
0.0119364
0.0119358
0.0119351
0.0119345
0.0119338
0.0119332
0.0119325
0.0119319
0.0119312
0.0119306
0.0119299
0.0119293
0.0119286
0.011928
0.0119273
0.0119267
0.011926
0.0119254
0.0119247
0.0119241
0.0119234
0.0119228
0.0119221
0.0119215
0.0119208
0.0119202
0.0119195
0.0119189
0.0119182
0.0119176
0.0119169
0.0119163
0.0119156
0.0119149
0.0119143
0.0119136
0.011913
0.0119123
0.0119117
0.011911
0.0119104
0.0119097
0.0119091
0.0119084
0.0119078
0.0119071
0.0119065
0.0119058
0.0119052
0.0119045
0.0119039
0.0119032
0.0119026
0.0119019
0.0119013
0.0119006
0.0119
0.0118993
0.0118987
0.011898
0.0118974
0.0118967
0.0118961
0.0118955
0.0118948
0.0118942
0.0118935
0.0118929
0.0118921
0.0122031
0.0122023
0.0122028
0.0122066
0.0122023
0.0122078
0.0122045
0.0122085
0.0122064
0.0122084
0.0122075
0.0122081
0.0122078
0.0122077
0.0122075
0.0122072
0.0122069
0.0122065
0.0122061
0.0122056
0.0122051
0.0122045
0.0122039
0.0122033
0.0122027
0.0122021
0.0122014
0.0122007
0.0122001
0.0121994
0.0121987
0.012198
0.0121973
0.0121966
0.0121959
0.0121952
0.0121945
0.0121938
0.0121931
0.0121924
0.0121917
0.012191
0.0121903
0.0121896
0.0121889
0.0121882
0.0121875
0.0121868
0.0121861
0.0121855
0.0121848
0.0121841
0.0121834
0.0121827
0.012182
0.0121814
0.0121807
0.01218
0.0121793
0.0121787
0.012178
0.0121773
0.0121766
0.012176
0.0121753
0.0121746
0.012174
0.0121733
0.0121726
0.012172
0.0121713
0.0121707
0.01217
0.0121693
0.0121687
0.012168
0.0121673
0.0121667
0.012166
0.0121654
0.0121647
0.0121641
0.0121634
0.0121627
0.0121621
0.0121614
0.0121608
0.0121601
0.0121595
0.0121588
0.0121582
0.0121575
0.0121569
0.0121562
0.0121556
0.0121549
0.0121543
0.0121536
0.0121529
0.0121523
0.0121516
0.012151
0.0121503
0.0121497
0.012149
0.0121484
0.0121477
0.0121471
0.0121464
0.0121458
0.0121451
0.0121445
0.0121438
0.0121432
0.0121425
0.0121419
0.0121412
0.0121406
0.0121399
0.0121393
0.0121386
0.012138
0.0121373
0.0121367
0.012136
0.0121354
0.0121347
0.0121341
0.0121334
0.0121328
0.0121321
0.0121315
0.0121308
0.0121302
0.0121295
0.0121289
0.0121282
0.0121276
0.0121269
0.0121263
0.0121256
0.012125
0.0121243
0.0121237
0.012123
0.0121224
0.0121217
0.0121211
0.0121204
0.0121198
0.0121191
0.0121185
0.0121178
0.0121172
0.0121165
0.0121159
0.0121152
0.0121146
0.0121139
0.0121133
0.0121126
0.012112
0.0121113
0.0121107
0.01211
0.0121094
0.0121087
0.0121081
0.0121074
0.0121068
0.0121061
0.0121055
0.0121048
0.0121042
0.0121035
0.0121029
0.0121022
0.0121016
0.0121009
0.0121003
0.0120996
0.012099
0.0120983
0.0120977
0.012097
0.0120964
0.0120957
0.0120951
0.0120944
0.0120938
0.0120931
0.0120925
0.0120918
0.0120912
0.0120905
0.0120899
0.0120892
0.0120886
0.0120879
0.0120873
0.0120866
0.0120859
0.0120853
0.0120846
0.012084
0.0120833
0.0120827
0.012082
0.0120814
0.0120807
0.0120801
0.0120794
0.0120788
0.0120781
0.0120775
0.0120768
0.0120762
0.0120755
0.0120749
0.0120742
0.0120736
0.0120729
0.0120723
0.0120716
0.012071
0.0120703
0.0120697
0.012069
0.0120684
0.0120677
0.0120671
0.0120664
0.0120658
0.0120651
0.0120645
0.0120638
0.0120632
0.0120625
0.0120619
0.0120612
0.0120606
0.0120599
0.0120593
0.0120586
0.012058
0.0120573
0.0120567
0.012056
0.0120554
0.0120547
0.0120541
0.0120534
0.0120528
0.0120521
0.0120515
0.0120508
0.0120502
0.0120495
0.0120489
0.0120482
0.0120476
0.0120469
0.0120463
0.0120456
0.012045
0.0120443
0.0120437
0.012043
0.0120424
0.0120417
0.0120411
0.0120404
0.0120398
0.0120391
0.0120385
0.0120378
0.0120372
0.0120365
0.0120359
0.0120352
0.0120346
0.0120339
0.0120333
0.0120326
0.012032
0.0120313
0.0120307
0.01203
0.0120294
0.0120287
0.0120281
0.0120274
0.0120268
0.0120261
0.0120255
0.0120248
0.0120242
0.0120235
0.0120229
0.0120222
0.0120216
0.0120209
0.0120203
0.0120196
0.012019
0.0120183
0.0120177
0.012017
0.0120164
0.0120157
0.0120151
0.0120144
0.0120138
0.0120131
0.0120125
0.0120118
0.0120112
0.0120105
0.0120099
0.0120092
0.0120086
0.0120079
0.0120073
0.0120066
0.012006
0.0120053
0.0120047
0.012004
0.0120034
0.0120027
0.0120021
0.0120014
0.0120008
0.0120001
0.0119995
0.0119988
0.0119982
0.0119975
0.0119969
0.0119962
0.0119956
0.0119949
0.0119943
0.0119936
0.011993
0.0119923
0.0119917
0.011991
0.0119904
0.0119897
0.0119891
0.0119884
0.0119878
0.0119871
0.0119865
0.0119858
0.0119852
0.0119845
0.0119839
0.0119832
0.0119826
0.0119819
0.0119813
0.0119806
0.01198
0.0119793
0.0119787
0.011978
0.0119774
0.0119767
0.0119761
0.0119754
0.0119748
0.0119741
0.0119735
0.0119728
0.0119722
0.0119715
0.0119709
0.0119702
0.0119696
0.0119689
0.0119683
0.0119676
0.011967
0.0119663
0.0119657
0.011965
0.0119644
0.0119637
0.0119631
0.0119624
0.0119618
0.0119611
0.0119605
0.0119598
0.0119592
0.0119585
0.0119579
0.0119572
0.0119566
0.0119559
0.0119553
0.0119546
0.011954
0.0119533
0.0119527
0.011952
0.0119514
0.0119507
0.0119501
0.0119494
0.0119488
0.0119481
0.0119475
0.0119468
0.0119462
0.0119455
0.0119449
0.0119442
0.0119436
0.0119429
0.0119423
0.0119416
0.011941
0.0119403
0.0119397
0.011939
0.0119384
0.0119377
0.0119371
0.0119364
0.0119358
0.0119351
0.0119345
0.0119338
0.0119332
0.0119325
0.0119319
0.0119312
0.0119306
0.0119299
0.0119293
0.0119286
0.011928
0.0119273
0.0119267
0.011926
0.0119254