/*--------------------------------*- C++ -*----------------------------------*\
| =========                 |                                                 |
| \\      /  F ield         | OpenFOAM: The Open Source CFD Toolbox           |
|  \\    /   O peration     | Version:  2012                                  |
|   \\  /    A nd           | Website:  www.openfoam.com                      |
|    \\/     M anipulation  |                                                 |
\*---------------------------------------------------------------------------*/
FoamFile
{
    version     2.0;
    format      ascii;
    class       volVectorField;
    location    "1";
    object      U;
}
// * * * * * * * * * * * * * * * * * * * * * * * * * * * * * * * * * * * * * //

dimensions      [0 1 -1 0 0 0 0];


internalField   nonuniform List<vector> 
20400
(
(0.00178323 -0.000478547 0)
(-7.67477e-05 -0.000431353 0)
(0.00378654 0.00019956 0)
(0.00261859 -0.000308712 0)
(0.00613349 0.000146838 0)
(0.00585615 -0.000155608 0)
(0.00850086 0.000115074 0)
(0.00878951 -4.59711e-05 0)
(0.0107383 2.71274e-05 0)
(0.011377 -3.76845e-05 0)
(0.0128603 -1.77663e-05 0)
(0.0136478 -4.00649e-05 0)
(0.01483 -4.03942e-05 0)
(0.0156387 -4.50495e-05 0)
(0.0165973 -4.71165e-05 0)
(0.0173709 -5.22594e-05 0)
(0.0181484 -5.17471e-05 0)
(0.0188578 -5.26773e-05 0)
(0.0195192 -5.26296e-05 0)
(0.0201312 -5.20951e-05 0)
(0.0206975 -5.10296e-05 0)
(0.0212208 -4.9514e-05 0)
(0.0217039 -4.76336e-05 0)
(0.0221497 -4.5515e-05 0)
(0.0225607 -4.32563e-05 0)
(0.0229394 -4.09085e-05 0)
(0.0232883 -3.84605e-05 0)
(0.0236096 -3.60017e-05 0)
(0.0239055 -3.35399e-05 0)
(0.0241778 -3.10597e-05 0)
(0.0244285 -2.84773e-05 0)
(0.0246591 -2.58674e-05 0)
(0.0248718 -2.32275e-05 0)
(0.0250669 -2.06754e-05 0)
(0.0252474 -1.82338e-05 0)
(0.0254123 -1.58506e-05 0)
(0.0255655 -1.37237e-05 0)
(0.0257051 -1.16384e-05 0)
(0.0258351 -9.92252e-06 0)
(0.0259532 -8.19818e-06 0)
(0.0260633 -6.86026e-06 0)
(0.0261637 -5.5133e-06 0)
(0.0262563 -4.52598e-06 0)
(0.0263421 -3.52466e-06 0)
(0.02642 -2.78357e-06 0)
(0.0264932 -2.11007e-06 0)
(0.0265588 -1.57656e-06 0)
(0.0266211 -1.17031e-06 0)
(0.0266766 -8.11768e-07 0)
(0.0267295 -6.10726e-07 0)
(0.0267765 -4.19415e-07 0)
(0.0268212 -3.65733e-07 0)
(0.0268614 -3.0354e-07 0)
(0.0268988 -3.1321e-07 0)
(0.0269334 -3.23123e-07 0)
(0.0269647 -3.63582e-07 0)
(0.0269942 -3.74184e-07 0)
(0.0270208 -3.99149e-07 0)
(0.0270456 -3.99809e-07 0)
(0.0270686 -4.40629e-07 0)
(0.0270892 -4.48673e-07 0)
(0.0271091 -4.72756e-07 0)
(0.0271265 -4.74491e-07 0)
(0.0271435 -4.78956e-07 0)
(0.0271582 -4.70821e-07 0)
(0.0271727 -4.62878e-07 0)
(0.0271851 -4.54425e-07 0)
(0.0271974 -4.42174e-07 0)
(0.027208 -4.37415e-07 0)
(0.0272184 -4.18328e-07 0)
(0.0272274 -4.14472e-07 0)
(0.0272362 -3.87812e-07 0)
(0.0272439 -3.92115e-07 0)
(0.0272513 -3.77449e-07 0)
(0.0272579 -3.73899e-07 0)
(0.027264 -3.40883e-07 0)
(0.0272698 -3.41698e-07 0)
(0.0272749 -3.15023e-07 0)
(0.0272799 -3.17769e-07 0)
(0.0272841 -2.95809e-07 0)
(0.0272884 -3.00708e-07 0)
(0.027292 -2.74153e-07 0)
(0.0272956 -2.84078e-07 0)
(0.0272986 -2.51308e-07 0)
(0.0273017 -2.62296e-07 0)
(0.0273043 -2.24054e-07 0)
(0.0273069 -2.37643e-07 0)
(0.0273091 -1.98114e-07 0)
(0.0273114 -2.11833e-07 0)
(0.0273132 -1.72554e-07 0)
(0.0273151 -1.78012e-07 0)
(0.0273167 -1.54583e-07 0)
(0.0273183 -1.45792e-07 0)
(0.0273196 -1.37204e-07 0)
(0.027321 -1.39527e-07 0)
(0.0273221 -1.16748e-07 0)
(0.0273233 -1.23534e-07 0)
(0.0273243 -1.01676e-07 0)
(0.0273253 -1.05017e-07 0)
(0.0273261 -9.26471e-08 0)
(0.0273269 -8.87579e-08 0)
(0.0273276 -7.66025e-08 0)
(0.0273283 -7.92688e-08 0)
(0.0273289 -6.27706e-08 0)
(0.0273295 -6.92281e-08 0)
(0.02733 -5.0792e-08 0)
(0.0273306 -6.15591e-08 0)
(0.027331 -3.85115e-08 0)
(0.0273314 -5.18441e-08 0)
(0.0273318 -4.18532e-08 0)
(0.0273322 -4.28388e-08 0)
(0.0273325 -4.05894e-08 0)
(0.0273328 -3.1959e-08 0)
(0.0273331 -2.31623e-08 0)
(0.0273334 -2.79935e-08 0)
(0.0273336 -1.48298e-08 0)
(0.0273339 -2.51609e-08 0)
(0.0273341 -1.88372e-08 0)
(0.0273343 3.71374e-09 0)
(0.0273345 -4.57153e-09 0)
(0.0273346 -7.85341e-09 0)
(0.0273348 1.13426e-08 0)
(0.027335 5.65718e-09 0)
(0.0273351 -1.44239e-08 0)
(0.0273353 2.07409e-08 0)
(0.0273354 -1.18786e-08 0)
(0.0273356 -8.90112e-09 0)
(0.0273357 -1.17504e-08 0)
(0.0273358 -7.90719e-09 0)
(0.0273359 1.38361e-08 0)
(0.027336 7.91827e-09 0)
(0.027336 -2.82106e-09 0)
(0.0273361 4.32408e-10 0)
(0.0273362 -2.38475e-09 0)
(0.0273363 -7.00042e-09 0)
(0.0273363 8.17393e-09 0)
(0.0273364 -3.69348e-09 0)
(0.0273364 -7.90214e-09 0)
(0.0273365 -1.41951e-08 0)
(0.0273365 -1.66137e-08 0)
(0.0273366 -1.32606e-08 0)
(0.0273367 -4.95689e-10 0)
(0.0273367 8.49131e-09 0)
(0.0273367 -7.22446e-09 0)
(0.0273368 -2.5829e-08 0)
(0.0273369 -3.5978e-08 0)
(0.0273369 -1.74142e-08 0)
(0.027337 -1.3637e-08 0)
(0.027337 3.05237e-09 0)
(0.0273371 -3.44967e-09 0)
(0.0273371 7.20113e-09 0)
(0.0273371 -9.77827e-09 0)
(0.0273371 6.23118e-10 0)
(0.0273371 -6.60389e-10 0)
(0.0273372 -3.70781e-09 0)
(0.0273372 6.06266e-09 0)
(0.0273372 -7.53936e-09 0)
(0.0273373 -7.49323e-09 0)
(0.0273373 -2.81669e-08 0)
(0.0273373 -4.59907e-08 0)
(0.0273373 -3.76398e-08 0)
(0.0273373 -2.59754e-08 0)
(0.0273373 -2.56087e-08 0)
(0.0273374 -3.95058e-08 0)
(0.0273374 -1.0556e-08 0)
(0.0273374 -7.28464e-10 0)
(0.0273375 3.61467e-08 0)
(0.0273374 1.31534e-08 0)
(0.0273375 -3.35963e-08 0)
(0.0273375 -7.62119e-09 0)
(0.0273375 -9.69993e-09 0)
(0.0273376 3.65715e-09 0)
(0.0273376 -6.42871e-09 0)
(0.0273376 -5.11488e-09 0)
(0.0273376 -1.2651e-08 0)
(0.0273376 -1.13316e-09 0)
(0.0273376 -2.056e-09 0)
(0.0273376 -9.91757e-09 0)
(0.0273376 -8.04033e-09 0)
(0.0273376 1.33039e-09 0)
(0.0273376 9.31881e-09 0)
(0.0273376 -1.48099e-09 0)
(0.0273376 -1.59564e-08 0)
(0.0273376 -3.91862e-08 0)
(0.0273376 -4.86649e-08 0)
(0.0273376 -2.3811e-08 0)
(0.0273376 -2.232e-08 0)
(0.0273377 -3.0684e-08 0)
(0.0273376 -2.35151e-08 0)
(0.0273377 -2.22284e-08 0)
(0.0273377 4.81606e-09 0)
(0.0273377 4.10431e-09 0)
(0.0273378 3.16219e-09 0)
(0.0273378 1.29333e-08 0)
(0.0273378 2.61652e-09 0)
(0.0273378 -1.40046e-08 0)
(0.0273378 -7.57916e-09 0)
(0.0273378 -4.40156e-09 0)
(0.0273378 -2.08691e-08 0)
(0.0273379 5.03852e-10 0)
(0.0273379 -1.553e-09 0)
(0.0273379 -1.71316e-09 0)
(0.0273379 1.66916e-08 0)
(0.0273379 1.63787e-08 0)
(0.0273379 -9.97861e-10 0)
(0.0273378 -2.36474e-08 0)
(0.0273379 -1.38598e-08 0)
(0.0273379 1.17347e-08 0)
(0.0273379 9.12395e-09 0)
(0.0273379 2.35062e-08 0)
(0.0273379 9.28379e-09 0)
(0.0273379 3.17781e-09 0)
(0.0273379 -6.82412e-09 0)
(0.0273379 -1.11569e-08 0)
(0.0273379 -2.0111e-08 0)
(0.027338 -1.84205e-08 0)
(0.027338 -8.42214e-10 0)
(0.027338 9.212e-09 0)
(0.0273379 2.92344e-08 0)
(0.0273379 1.32012e-08 0)
(0.0273379 -1.78129e-09 0)
(0.0273379 1.12808e-08 0)
(0.0273379 2.33816e-08 0)
(0.0273379 2.29383e-08 0)
(0.0273379 6.66965e-09 0)
(0.027338 1.33984e-08 0)
(0.027338 6.87597e-09 0)
(0.027338 1.84962e-08 0)
(0.027338 2.4161e-08 0)
(0.027338 2.4161e-08 0)
(0.027338 1.66378e-08 0)
(0.027338 4.74222e-08 0)
(0.027338 3.49156e-08 0)
(0.027338 8.22442e-10 0)
(0.027338 1.09978e-08 0)
(0.027338 5.10332e-11 0)
(0.027338 -1.66302e-08 0)
(0.0273381 1.57414e-09 0)
(0.0273381 4.39235e-09 0)
(0.0273381 1.04245e-08 0)
(0.0273381 1.10249e-08 0)
(0.0273381 -6.5612e-10 0)
(0.0273381 1.50814e-08 0)
(0.0273382 1.18491e-08 0)
(0.0273382 1.36456e-08 0)
(0.0273382 1.59332e-08 0)
(0.0273382 2.8323e-09 0)
(0.0273382 1.90343e-08 0)
(0.0273382 -2.98408e-09 0)
(0.0273382 -2.01161e-08 0)
(0.0273382 -1.33758e-08 0)
(0.0273383 -1.11186e-08 0)
(0.0273383 -9.06892e-09 0)
(0.0273383 -9.55132e-09 0)
(0.0273383 -1.04621e-08 0)
(0.0273383 2.27654e-09 0)
(0.0273382 4.90155e-09 0)
(0.0273382 -6.35776e-09 0)
(0.0273382 1.06003e-09 0)
(0.0273382 9.80735e-09 0)
(0.0273382 4.13273e-08 0)
(0.0273382 5.11421e-08 0)
(0.0273383 4.81011e-08 0)
(0.0273383 4.58238e-08 0)
(0.0273383 3.01065e-08 0)
(0.0273383 4.12774e-08 0)
(0.0273383 4.20618e-08 0)
(0.0273383 3.01061e-08 0)
(0.0273384 3.0493e-08 0)
(0.0273383 3.09972e-08 0)
(0.0273383 1.88301e-08 0)
(0.0273383 -6.66217e-09 0)
(0.0273383 -6.21796e-09 0)
(0.0273383 -1.65031e-08 0)
(0.0273383 -2.34553e-08 0)
(0.0273383 -1.89153e-08 0)
(0.0273383 -1.38853e-08 0)
(0.0273383 5.13083e-09 0)
(0.0273384 1.27628e-08 0)
(0.0273383 4.22901e-08 0)
(0.0273383 3.68893e-08 0)
(0.0273384 2.63134e-08 0)
(0.0273384 1.03884e-08 0)
(0.0273384 1.87895e-08 0)
(0.0273384 8.72204e-09 0)
(0.0273384 1.02216e-08 0)
(0.0273384 1.83009e-09 0)
(0.0273385 -2.28727e-08 0)
(0.0273384 -7.73105e-09 0)
(0.0273384 -1.81527e-09 0)
(0.0273384 6.53923e-09 0)
(0.0273384 3.6689e-08 0)
(0.0273384 2.03649e-08 0)
(0.0273384 1.58714e-08 0)
(0.0273384 9.55282e-09 0)
(0.0273384 4.00914e-09 0)
(0.0273385 9.22208e-09 0)
(0.0273384 3.03386e-08 0)
(0.0273385 2.32399e-08 0)
(0.0273385 2.49115e-08 0)
(0.0273385 2.06335e-08 0)
(0.0273385 2.90055e-08 0)
(0.0273385 3.90986e-08 0)
(0.0273385 4.65311e-08 0)
(0.0273385 4.41381e-08 0)
(0.0273384 2.1927e-08 0)
(0.0273385 3.62295e-08 0)
(0.0273385 4.52535e-08 0)
(0.0273385 1.27413e-08 0)
(0.0273385 4.94509e-09 0)
(0.0273385 -3.52295e-08 0)
(0.0273385 -2.88754e-08 0)
(0.0273385 -4.12235e-08 0)
(0.0273385 -3.53746e-08 0)
(0.0273385 -2.84847e-08 0)
(0.0273385 -2.1195e-08 0)
(0.0273386 -2.25108e-08 0)
(0.0273386 -1.61593e-08 0)
(0.0273386 -7.20057e-11 0)
(0.0273386 -3.58211e-09 0)
(0.0273387 -2.40726e-08 0)
(0.0273387 -2.27423e-08 0)
(0.0273387 -1.81848e-08 0)
(0.0273386 -1.56942e-08 0)
(0.0273387 -2.14145e-08 0)
(0.0273387 -3.18273e-08 0)
(0.0273387 -4.13357e-08 0)
(0.0273387 -3.36319e-08 0)
(0.0273388 -2.14406e-08 0)
(0.0273387 -5.80551e-09 0)
(0.0273387 1.25854e-09 0)
(0.0273387 9.69842e-09 0)
(0.0273387 1.00161e-09 0)
(0.0273387 -3.19043e-09 0)
(0.0273387 -4.41209e-09 0)
(0.0273387 2.92187e-09 0)
(0.0273387 -1.92298e-08 0)
(0.0273386 -3.36302e-08 0)
(0.0273386 -3.64355e-08 0)
(0.0273386 -9.4626e-09 0)
(0.0273387 -4.90106e-08 0)
(0.0273387 -5.05582e-08 0)
(0.0273387 -6.5855e-08 0)
(0.0273387 -7.6846e-08 0)
(0.0273387 -6.93938e-08 0)
(0.0273387 -7.58695e-08 0)
(0.0273387 -5.6634e-08 0)
(0.0273387 -3.47237e-08 0)
(0.0273387 -4.59338e-08 0)
(0.0273387 -5.86112e-08 0)
(0.0273387 -5.79918e-08 0)
(0.0273388 -7.42566e-08 0)
(0.0273388 -6.64311e-08 0)
(0.0273388 -6.59951e-08 0)
(0.0273388 -5.09357e-08 0)
(0.0273388 -4.86656e-08 0)
(0.0273389 -4.7977e-08 0)
(0.0273389 -8.44821e-08 0)
(0.027339 -8.02004e-08 0)
(0.0273389 -6.96925e-08 0)
(0.027339 -7.47134e-08 0)
(0.0273389 -4.57592e-08 0)
(0.027339 -5.7586e-08 0)
(0.0273389 -9.00791e-09 0)
(0.027339 1.80273e-08 0)
(0.0273389 5.87254e-08 0)
(0.027339 3.73741e-08 0)
(0.0273389 8.43937e-09 0)
(0.027339 -1.1944e-08 0)
(0.0273389 -1.21702e-09 0)
(0.0273389 -5.44511e-08 0)
(0.0273389 -6.56332e-08 0)
(0.0273389 -4.97298e-08 0)
(0.0273389 -3.14998e-08 0)
(0.0273389 3.35914e-11 0)
(0.027339 -1.25183e-08 0)
(0.0273389 4.61294e-08 0)
(0.0273391 4.46014e-08 0)
(0.027339 6.59294e-08 0)
(0.0273391 4.75344e-08 0)
(0.027339 4.18239e-08 0)
(0.0273391 4.53956e-08 0)
(0.027339 3.95142e-08 0)
(0.0273391 4.68507e-08 0)
(0.0273391 2.52354e-08 0)
(0.0273391 4.26058e-09 0)
(0.027339 -6.24936e-09 0)
(0.0273391 1.07047e-08 0)
(0.0273391 1.19623e-08 0)
(0.027339 2.51009e-08 0)
(0.027339 1.76858e-08 0)
(0.027339 4.68537e-08 0)
(0.0273391 6.24104e-09 0)
(0.0273391 -2.19154e-08 0)
(0.0273391 -1.2599e-10 0)
(0.0273391 3.68084e-09 0)
(0.0273391 2.25595e-08 0)
(0.0273391 1.95579e-08 0)
(0.0273392 1.71159e-08 0)
(0.0273391 9.92942e-09 0)
(0.0273391 2.14685e-08 0)
(0.027339 1.09117e-08 0)
(0.027339 4.17365e-10 0)
(0.027339 3.17579e-10 0)
(0.027339 1.8799e-08 0)
(0.027339 9.06436e-10 0)
(0.027339 -2.12145e-08 0)
(0.027339 -1.52517e-08 0)
(0.027339 -2.69426e-08 0)
(0.0273389 -2.00094e-08 0)
(0.027339 -1.08631e-08 0)
(0.027339 5.89094e-09 0)
(0.0273391 6.16561e-09 0)
(0.0273391 5.18047e-09 0)
(0.0273392 1.88594e-08 0)
(0.0273392 5.7457e-09 0)
(0.0273393 -3.25728e-08 0)
(0.0273392 -3.02161e-08 0)
(0.0273392 -2.20755e-08 0)
(0.0273391 3.44758e-08 0)
(0.0273392 3.96799e-08 0)
(0.0273392 1.92448e-08 0)
(0.0273392 1.4048e-08 0)
(0.0273392 4.53337e-09 0)
(0.0273392 2.19965e-08 0)
(0.0273391 4.02008e-08 0)
(0.0273391 6.50414e-08 0)
(0.027339 4.94531e-08 0)
(0.027339 4.14679e-08 0)
(0.027339 6.18574e-08 0)
(0.027339 7.51971e-08 0)
(0.0273391 8.35789e-08 0)
(0.0273391 8.27938e-08 0)
(0.0273392 1.04898e-07 0)
(0.0273392 8.99533e-08 0)
(0.0273392 1.08226e-07 0)
(0.0273392 9.74549e-08 0)
(0.0273392 1.24391e-07 0)
(0.0273391 1.0503e-07 0)
(0.0273392 1.08578e-07 0)
(0.0273391 7.30293e-08 0)
(0.0273391 5.74782e-08 0)
(0.0273391 -1.3092e-08 0)
(0.027339 -7.46835e-09 0)
(0.027339 -1.47435e-08 0)
(0.027339 -1.81212e-08 0)
(0.027339 3.03099e-08 0)
(0.027339 3.08365e-08 0)
(0.027339 2.18639e-08 0)
(0.027339 2.06519e-08 0)
(0.0273391 1.33318e-08 0)
(0.027339 -2.11505e-08 0)
(0.027339 -7.76265e-08 0)
(0.0273389 -4.86663e-08 0)
(0.027339 -4.30859e-08 0)
(0.0273389 -1.00626e-08 0)
(0.0273389 2.67865e-08 0)
(0.027339 5.69862e-08 0)
(0.027339 5.63183e-08 0)
(0.027339 5.09061e-08 0)
(0.027339 5.48385e-08 0)
(0.027339 4.08692e-08 0)
(0.027339 -2.66723e-09 0)
(0.027339 -1.04036e-08 0)
(0.027339 -2.13864e-08 0)
(0.027339 -2.77859e-08 0)
(0.027339 -2.25663e-08 0)
(0.0273391 -3.65323e-08 0)
(0.0273391 -2.99611e-08 0)
(0.0273391 -2.60345e-08 0)
(0.0273391 -6.21971e-09 0)
(0.0273391 1.96744e-09 0)
(0.0273391 2.81846e-08 0)
(0.0273391 1.7631e-09 0)
(0.0273391 1.43276e-08 0)
(0.0273392 1.71801e-08 0)
(0.0273391 2.14403e-09 0)
(0.0273393 -2.57894e-08 0)
(0.0273391 -1.50973e-08 0)
(0.0273393 -2.5069e-09 0)
(0.0273392 8.24169e-09 0)
(0.0273395 -4.57259e-09 0)
(0.027339 1.61223e-08 0)
(0.0273397 -1.71817e-08 0)
(0.0273388 3.55072e-08 0)
(0.0273401 -3.85052e-08 0)
(0.0273384 7.25527e-08 0)
(0.0273404 -5.60513e-08 0)
(0.027338 1.1195e-07 0)
(0.0273406 -1.11643e-07 0)
(0.0273382 1.15074e-07 0)
(0.0273401 -1.3746e-07 0)
(0.0273393 1.64068e-07 0)
(0.0273379 -1.13687e-07 0)
(0.0273432 -9.55685e-08 0)
(0.027331 -2.66874e-08 0)
(0.0273534 -1.70905e-07 0)
(0.0273128 -2.78538e-07 0)
(0.0273777 9.05016e-06 0)
(0.0272545 1.18705e-05 0)
(0.00287001 -0.00113157 0)
(-0.00066104 -0.00241972 0)
(0.00683773 -0.00194922 0)
(0.00489942 -0.00249254 0)
(0.0105905 -0.00197112 0)
(0.0104914 -0.00226489 0)
(0.0144739 -0.0018493 0)
(0.0152922 -0.00194258 0)
(0.0182371 -0.0017466 0)
(0.0195471 -0.00168099 0)
(0.0218526 -0.00156767 0)
(0.0233267 -0.00146427 0)
(0.0252118 -0.001383 0)
(0.0266671 -0.00127215 0)
(0.028232 -0.00119357 0)
(0.0295935 -0.00110625 0)
(0.0309096 -0.00102542 0)
(0.0321266 -0.000949166 0)
(0.0332605 -0.000877596 0)
(0.034313 -0.000810635 0)
(0.0352889 -0.000748265 0)
(0.0361926 -0.000690449 0)
(0.0370283 -0.000636957 0)
(0.0378008 -0.000587513 0)
(0.0385142 -0.000541854 0)
(0.0391728 -0.000499729 0)
(0.0397804 -0.00046069 0)
(0.0403405 -0.000424231 0)
(0.040857 -0.000390521 0)
(0.0413332 -0.000359635 0)
(0.0417721 -0.000331391 0)
(0.0421766 -0.00030572 0)
(0.0425495 -0.000281849 0)
(0.0428928 -0.000260319 0)
(0.0432098 -0.000240109 0)
(0.0435008 -0.000221848 0)
(0.0437704 -0.000204727 0)
(0.0440171 -0.000189216 0)
(0.0442461 -0.000174525 0)
(0.0444554 -0.000161283 0)
(0.0446498 -0.000148751 0)
(0.0448279 -0.00013738 0)
(0.0449923 -0.000126629 0)
(0.0451442 -0.000116858 0)
(0.0452831 -0.000107728 0)
(0.0454127 -9.93155e-05 0)
(0.0455302 -9.15311e-05 0)
(0.0456405 -8.42882e-05 0)
(0.0457401 -7.76717e-05 0)
(0.0458338 -7.14484e-05 0)
(0.0459184 -6.57873e-05 0)
(0.0459979 -6.0438e-05 0)
(0.0460701 -5.56091e-05 0)
(0.0461372 -5.10973e-05 0)
(0.046199 -4.69744e-05 0)
(0.0462556 -4.31705e-05 0)
(0.0463083 -3.97332e-05 0)
(0.0463565 -3.65789e-05 0)
(0.046401 -3.36822e-05 0)
(0.0464423 -3.09963e-05 0)
(0.0464796 -2.85767e-05 0)
(0.0465149 -2.62925e-05 0)
(0.0465464 -2.42018e-05 0)
(0.0465765 -2.22664e-05 0)
(0.0466032 -2.04732e-05 0)
(0.0466288 -1.8848e-05 0)
(0.0466515 -1.73118e-05 0)
(0.0466733 -1.59538e-05 0)
(0.0466925 -1.46433e-05 0)
(0.046711 -1.35041e-05 0)
(0.0467274 -1.2396e-05 0)
(0.0467431 -1.14625e-05 0)
(0.0467571 -1.05049e-05 0)
(0.0467704 -9.65427e-06 0)
(0.0467825 -8.91452e-06 0)
(0.0467935 -8.17933e-06 0)
(0.0468039 -7.57943e-06 0)
(0.0468132 -6.93447e-06 0)
(0.0468221 -6.43884e-06 0)
(0.0468299 -5.87071e-06 0)
(0.0468376 -5.47131e-06 0)
(0.0468442 -4.96796e-06 0)
(0.0468507 -4.64785e-06 0)
(0.0468563 -4.20329e-06 0)
(0.0468618 -3.95676e-06 0)
(0.0468666 -3.55949e-06 0)
(0.0468713 -3.3663e-06 0)
(0.0468753 -3.01327e-06 0)
(0.0468794 -2.86311e-06 0)
(0.0468828 -2.56355e-06 0)
(0.0468862 -2.42293e-06 0)
(0.0468891 -2.18852e-06 0)
(0.046892 -2.0534e-06 0)
(0.0468945 -1.85689e-06 0)
(0.046897 -1.73607e-06 0)
(0.046899 -1.56632e-06 0)
(0.0469012 -1.47787e-06 0)
(0.0469029 -1.33407e-06 0)
(0.0469047 -1.25552e-06 0)
(0.0469062 -1.13751e-06 0)
(0.0469078 -1.06565e-06 0)
(0.046909 -9.63355e-07 0)
(0.0469103 -9.06819e-07 0)
(0.0469114 -8.21868e-07 0)
(0.0469125 -7.68756e-07 0)
(0.0469135 -6.98046e-07 0)
(0.0469144 -6.69085e-07 0)
(0.0469152 -5.87411e-07 0)
(0.046916 -5.72375e-07 0)
(0.0469166 -5.14782e-07 0)
(0.0469173 -4.79872e-07 0)
(0.0469179 -4.33622e-07 0)
(0.0469185 -4.18712e-07 0)
(0.046919 -3.75378e-07 0)
(0.0469195 -3.73465e-07 0)
(0.0469199 -3.30299e-07 0)
(0.0469203 -3.1572e-07 0)
(0.0469207 -3.05349e-07 0)
(0.046921 -2.73781e-07 0)
(0.0469213 -2.52308e-07 0)
(0.0469216 -2.57064e-07 0)
(0.0469219 -2.26276e-07 0)
(0.0469222 -2.00113e-07 0)
(0.0469224 -2.4448e-07 0)
(0.0469226 -1.97362e-07 0)
(0.0469229 -1.85228e-07 0)
(0.0469231 -2.04736e-07 0)
(0.0469233 -1.64724e-07 0)
(0.0469234 -1.47745e-07 0)
(0.0469236 -1.33072e-07 0)
(0.0469238 -1.09751e-07 0)
(0.0469239 -1.16798e-07 0)
(0.046924 -9.01583e-08 0)
(0.0469241 -8.56794e-08 0)
(0.0469242 -8.84311e-08 0)
(0.0469243 -9.58768e-08 0)
(0.0469245 -8.91678e-08 0)
(0.0469246 -9.11662e-08 0)
(0.0469246 -7.31793e-08 0)
(0.0469247 -5.86662e-08 0)
(0.0469248 -7.59528e-08 0)
(0.0469249 -7.21972e-08 0)
(0.0469249 -5.20251e-08 0)
(0.046925 -7.52406e-08 0)
(0.0469251 -6.70351e-08 0)
(0.0469251 -8.92779e-08 0)
(0.0469252 -5.14574e-08 0)
(0.0469252 -5.87924e-08 0)
(0.0469253 -4.42583e-08 0)
(0.0469254 -5.28868e-08 0)
(0.0469254 -4.0756e-08 0)
(0.0469254 -2.17515e-08 0)
(0.0469255 -3.54361e-08 0)
(0.0469255 -2.29793e-08 0)
(0.0469255 -5.91881e-08 0)
(0.0469256 -5.02323e-08 0)
(0.0469256 -4.98951e-08 0)
(0.0469256 -1.99299e-08 0)
(0.0469256 -9.12594e-09 0)
(0.0469256 1.36663e-09 0)
(0.0469256 4.12232e-09 0)
(0.0469257 -1.57579e-08 0)
(0.0469257 -2.11743e-08 0)
(0.0469257 -4.01646e-08 0)
(0.0469257 -1.92316e-08 0)
(0.0469257 -3.77126e-08 0)
(0.0469257 -2.45762e-08 0)
(0.0469259 -2.88535e-08 0)
(0.0469258 -5.30945e-08 0)
(0.0469259 -2.36586e-08 0)
(0.0469258 -4.0345e-08 0)
(0.0469259 -2.97272e-08 0)
(0.0469259 -1.25616e-08 0)
(0.0469259 -8.9401e-10 0)
(0.0469259 2.2654e-09 0)
(0.0469259 -1.90738e-09 0)
(0.0469259 4.56569e-09 0)
(0.0469259 -1.0043e-08 0)
(0.0469259 -2.40193e-09 0)
(0.0469259 6.07284e-09 0)
(0.0469258 2.61693e-08 0)
(0.0469258 2.25757e-08 0)
(0.0469258 2.88782e-08 0)
(0.0469258 1.22227e-08 0)
(0.0469258 1.34775e-08 0)
(0.0469258 1.5969e-08 0)
(0.0469258 -5.76744e-08 0)
(0.0469258 -5.79041e-08 0)
(0.0469258 -4.44421e-08 0)
(0.0469258 -3.38098e-08 0)
(0.0469258 -1.81936e-08 0)
(0.0469258 -1.20227e-08 0)
(0.0469258 -1.9457e-08 0)
(0.0469258 -1.57941e-08 0)
(0.0469258 -2.84074e-08 0)
(0.0469258 -2.64387e-08 0)
(0.0469258 -6.93264e-10 0)
(0.0469258 -2.72962e-09 0)
(0.0469258 -2.414e-08 0)
(0.0469258 -1.85989e-08 0)
(0.0469258 -2.34726e-08 0)
(0.0469258 -2.66038e-08 0)
(0.0469258 -4.6696e-09 0)
(0.0469259 1.21433e-08 0)
(0.0469259 2.52473e-08 0)
(0.0469259 1.68203e-08 0)
(0.0469259 -5.47818e-09 0)
(0.0469258 -2.27148e-08 0)
(0.0469259 -4.51029e-08 0)
(0.0469258 -1.92989e-08 0)
(0.0469259 -1.6747e-08 0)
(0.0469259 3.90084e-09 0)
(0.0469259 7.87982e-10 0)
(0.046926 -2.21731e-08 0)
(0.0469259 -2.46654e-08 0)
(0.0469259 -1.87557e-08 0)
(0.0469259 1.33094e-08 0)
(0.0469258 2.13304e-08 0)
(0.0469258 2.32529e-08 0)
(0.0469258 1.06702e-09 0)
(0.0469257 -1.68268e-09 0)
(0.0469257 -1.20264e-08 0)
(0.0469257 -1.64405e-08 0)
(0.0469257 -2.43362e-08 0)
(0.0469257 -2.58626e-08 0)
(0.0469257 -1.42448e-08 0)
(0.0469257 -1.31134e-08 0)
(0.0469257 -1.8436e-08 0)
(0.0469258 -2.53094e-08 0)
(0.0469258 -5.02686e-08 0)
(0.0469258 -4.05036e-08 0)
(0.0469258 -1.84721e-08 0)
(0.0469258 2.30726e-10 0)
(0.0469258 -1.26077e-08 0)
(0.0469258 9.65625e-10 0)
(0.0469258 -1.56663e-08 0)
(0.0469258 -2.30277e-08 0)
(0.0469258 -3.95986e-10 0)
(0.0469258 -3.68835e-08 0)
(0.0469258 -3.36082e-08 0)
(0.0469258 -3.0382e-08 0)
(0.0469258 -3.21666e-08 0)
(0.0469258 -2.61194e-08 0)
(0.0469258 -5.84869e-08 0)
(0.0469258 -2.55997e-08 0)
(0.0469258 3.80187e-09 0)
(0.0469258 6.40377e-09 0)
(0.0469258 2.79976e-09 0)
(0.0469258 -1.19452e-08 0)
(0.0469259 -1.10042e-08 0)
(0.0469258 -2.26769e-08 0)
(0.0469259 -3.02805e-08 0)
(0.0469259 -1.55386e-08 0)
(0.0469259 1.31975e-08 0)
(0.0469259 2.54875e-08 0)
(0.0469259 1.75655e-08 0)
(0.0469259 1.62713e-08 0)
(0.0469259 9.30066e-09 0)
(0.0469259 9.63112e-09 0)
(0.0469258 -2.49165e-08 0)
(0.0469258 -2.18942e-08 0)
(0.0469258 -4.51243e-08 0)
(0.0469259 -5.88108e-08 0)
(0.0469258 -5.12799e-08 0)
(0.0469259 -4.52589e-08 0)
(0.0469259 -4.19478e-08 0)
(0.0469259 -2.90488e-08 0)
(0.0469259 -3.0298e-08 0)
(0.0469258 -6.46228e-09 0)
(0.0469258 2.17185e-08 0)
(0.0469258 1.81593e-08 0)
(0.0469258 1.23616e-08 0)
(0.0469258 -1.71936e-08 0)
(0.0469258 -2.06341e-08 0)
(0.0469258 -1.19945e-09 0)
(0.0469258 1.97277e-08 0)
(0.0469258 3.16578e-09 0)
(0.0469258 -3.07936e-08 0)
(0.0469258 -4.56769e-09 0)
(0.0469259 2.4782e-09 0)
(0.0469258 -2.63893e-08 0)
(0.0469259 -4.83917e-08 0)
(0.0469258 -5.57766e-08 0)
(0.0469258 -3.00412e-08 0)
(0.0469258 3.15543e-09 0)
(0.0469259 2.23304e-09 0)
(0.0469259 -3.20352e-08 0)
(0.0469259 -2.25707e-08 0)
(0.0469259 2.67027e-08 0)
(0.0469259 2.11957e-08 0)
(0.0469259 1.25872e-08 0)
(0.0469259 -1.28505e-08 0)
(0.0469259 -1.26853e-08 0)
(0.0469258 -1.25163e-08 0)
(0.0469259 2.98761e-09 0)
(0.0469258 -2.29008e-08 0)
(0.0469258 -3.03895e-08 0)
(0.0469258 -3.52028e-08 0)
(0.0469258 -4.80722e-08 0)
(0.0469258 -3.90653e-08 0)
(0.0469258 -2.3828e-08 0)
(0.0469258 -2.21955e-08 0)
(0.0469258 -5.01007e-09 0)
(0.0469258 1.29188e-08 0)
(0.0469258 1.7981e-08 0)
(0.0469257 -3.20374e-08 0)
(0.0469258 -4.81881e-08 0)
(0.0469258 5.42175e-09 0)
(0.0469258 -1.68746e-08 0)
(0.0469258 1.26076e-08 0)
(0.0469258 1.22016e-08 0)
(0.0469258 1.09398e-08 0)
(0.0469258 1.38922e-08 0)
(0.0469258 1.03508e-09 0)
(0.0469258 -6.02461e-09 0)
(0.0469258 -2.16989e-08 0)
(0.0469258 -5.29512e-08 0)
(0.0469258 -2.88424e-08 0)
(0.0469259 5.63137e-09 0)
(0.0469259 -3.59243e-08 0)
(0.0469259 -4.11976e-08 0)
(0.0469259 -3.61837e-09 0)
(0.046926 2.55272e-08 0)
(0.046926 -8.73539e-09 0)
(0.046926 -2.60518e-08 0)
(0.0469259 -3.27811e-08 0)
(0.046926 5.2848e-09 0)
(0.0469259 -7.1907e-09 0)
(0.046926 -4.11326e-09 0)
(0.0469259 1.02443e-08 0)
(0.046926 1.62692e-08 0)
(0.0469259 1.79978e-08 0)
(0.0469259 -7.76087e-09 0)
(0.0469259 1.27253e-08 0)
(0.0469259 2.23831e-08 0)
(0.0469258 3.97841e-08 0)
(0.0469258 4.75256e-08 0)
(0.0469258 7.04741e-08 0)
(0.0469258 2.66666e-08 0)
(0.0469258 -5.08162e-08 0)
(0.0469257 -3.46358e-08 0)
(0.0469257 -6.64887e-09 0)
(0.0469257 4.44583e-08 0)
(0.0469257 4.72515e-08 0)
(0.0469257 4.75799e-08 0)
(0.0469258 1.45501e-08 0)
(0.0469258 1.14552e-08 0)
(0.0469258 -1.31378e-08 0)
(0.0469258 3.72813e-09 0)
(0.0469258 3.93207e-08 0)
(0.0469258 -1.87417e-08 0)
(0.0469258 -4.09215e-08 0)
(0.0469259 3.45986e-08 0)
(0.0469259 2.22599e-08 0)
(0.0469259 -2.00345e-08 0)
(0.0469259 -1.82184e-08 0)
(0.0469259 -1.59822e-08 0)
(0.0469259 -6.51868e-09 0)
(0.046926 3.20571e-08 0)
(0.046926 2.86383e-08 0)
(0.046926 1.65772e-08 0)
(0.046926 2.88641e-08 0)
(0.046926 2.33904e-08 0)
(0.046926 7.36754e-09 0)
(0.0469259 -9.8478e-09 0)
(0.0469259 5.12115e-09 0)
(0.046926 -6.87941e-11 0)
(0.046926 -2.59685e-08 0)
(0.046926 -5.41787e-09 0)
(0.0469259 7.68253e-08 0)
(0.0469259 4.69482e-08 0)
(0.0469259 1.61773e-08 0)
(0.0469258 2.39435e-08 0)
(0.0469259 -1.9417e-08 0)
(0.0469259 -4.36298e-08 0)
(0.046926 -3.61499e-08 0)
(0.046926 -7.06605e-08 0)
(0.0469261 -7.9095e-08 0)
(0.046926 -4.8008e-08 0)
(0.0469261 -2.07213e-08 0)
(0.0469261 -1.74677e-08 0)
(0.0469262 -2.03247e-08 0)
(0.0469261 -2.97886e-08 0)
(0.0469261 -2.57162e-08 0)
(0.046926 1.23059e-08 0)
(0.046926 2.94398e-08 0)
(0.0469259 -2.48506e-11 0)
(0.046926 -1.36405e-08 0)
(0.046926 2.86854e-08 0)
(0.046926 5.51949e-09 0)
(0.046926 -1.89493e-08 0)
(0.046926 -2.98541e-08 0)
(0.0469261 -5.87593e-08 0)
(0.046926 8.74565e-10 0)
(0.0469261 2.57085e-08 0)
(0.0469261 -2.84313e-08 0)
(0.0469261 -3.56076e-08 0)
(0.046926 -2.30989e-08 0)
(0.0469261 5.85085e-09 0)
(0.046926 3.67583e-08 0)
(0.0469261 2.82176e-08 0)
(0.046926 2.62681e-08 0)
(0.046926 2.28428e-08 0)
(0.046926 1.04794e-09 0)
(0.046926 2.25701e-08 0)
(0.0469259 2.03423e-08 0)
(0.046926 2.40348e-10 0)
(0.0469259 4.77856e-08 0)
(0.0469261 3.39348e-08 0)
(0.046926 -3.42737e-08 0)
(0.0469261 -5.50536e-08 0)
(0.046926 -7.75918e-08 0)
(0.0469261 -6.25613e-08 0)
(0.0469261 -5.55416e-08 0)
(0.0469262 -4.98501e-08 0)
(0.0469261 -3.44435e-08 0)
(0.0469262 1.28537e-08 0)
(0.0469261 4.14934e-08 0)
(0.0469262 2.42305e-08 0)
(0.0469261 -3.57405e-09 0)
(0.0469261 -2.89573e-08 0)
(0.0469261 -1.04702e-08 0)
(0.0469261 1.42685e-08 0)
(0.046926 1.41024e-08 0)
(0.046926 2.60036e-08 0)
(0.0469259 2.71845e-08 0)
(0.0469259 4.44866e-08 0)
(0.0469259 6.25791e-08 0)
(0.0469259 -6.45938e-10 0)
(0.046926 -9.14691e-08 0)
(0.046926 -1.11428e-07 0)
(0.046926 -1.1496e-07 0)
(0.0469259 -9.84944e-08 0)
(0.046926 -7.48554e-08 0)
(0.046926 -4.73604e-08 0)
(0.0469261 -3.12973e-08 0)
(0.046926 -1.03375e-08 0)
(0.046926 -3.83669e-08 0)
(0.046926 -5.47269e-08 0)
(0.0469259 -3.67543e-08 0)
(0.0469258 3.20379e-08 0)
(0.0469258 2.07302e-08 0)
(0.0469258 3.98588e-08 0)
(0.0469258 4.99071e-08 0)
(0.0469259 4.40942e-08 0)
(0.0469258 1.73422e-09 0)
(0.0469259 -2.21322e-08 0)
(0.0469258 -3.49499e-08 0)
(0.0469258 -4.56391e-08 0)
(0.0469258 -1.21877e-08 0)
(0.0469257 1.89738e-08 0)
(0.0469257 5.9634e-08 0)
(0.0469257 6.88548e-08 0)
(0.0469258 2.931e-08 0)
(0.0469258 6.9487e-09 0)
(0.0469259 3.91157e-08 0)
(0.0469258 -3.09497e-08 0)
(0.0469258 -5.696e-08 0)
(0.0469258 -7.21667e-08 0)
(0.0469257 -3.9861e-08 0)
(0.0469258 -2.53241e-09 0)
(0.0469258 -5.83204e-09 0)
(0.0469258 2.15528e-08 0)
(0.0469258 -1.31948e-08 0)
(0.0469258 -2.69715e-08 0)
(0.0469258 -1.09303e-08 0)
(0.0469259 -6.51942e-09 0)
(0.0469259 -3.06069e-08 0)
(0.0469259 -2.33657e-08 0)
(0.0469259 -7.47448e-09 0)
(0.0469259 -3.20013e-09 0)
(0.0469259 -7.41902e-09 0)
(0.0469258 -1.36115e-08 0)
(0.0469259 -2.25559e-09 0)
(0.0469259 -7.7669e-09 0)
(0.0469259 -4.77537e-09 0)
(0.0469259 -4.79057e-08 0)
(0.046926 -5.47556e-08 0)
(0.0469259 -5.40345e-08 0)
(0.0469261 -4.95046e-08 0)
(0.0469259 -4.73052e-08 0)
(0.0469263 -2.42369e-08 0)
(0.0469258 7.64868e-10 0)
(0.0469265 -2.43709e-08 0)
(0.0469255 -1.3085e-09 0)
(0.0469268 -2.46609e-08 0)
(0.046925 3.26337e-08 0)
(0.0469272 -3.76354e-08 0)
(0.0469244 7.79216e-08 0)
(0.0469274 -1.14839e-07 0)
(0.0469242 1.50301e-07 0)
(0.046927 -2.15122e-07 0)
(0.046925 4.80441e-07 0)
(0.0469249 -4.65371e-07 0)
(0.0469281 8.77127e-07 0)
(0.046918 -6.60465e-07 0)
(0.0469362 2.85512e-06 0)
(0.0469014 -1.30334e-06 0)
(0.0469539 1.38492e-05 0)
(0.0468667 2.3534e-06 0)
(0.00333759 -0.00257557 0)
(-0.000452348 -0.00451723 0)
(0.00743565 -0.00485503 0)
(0.00549751 -0.00511362 0)
(0.0115025 -0.00480647 0)
(0.0115243 -0.00490025 0)
(0.0157585 -0.00458736 0)
(0.0166981 -0.00450407 0)
(0.0198488 -0.00427956 0)
(0.0213001 -0.00407572 0)
(0.0237623 -0.00386857 0)
(0.0253707 -0.00362627 0)
(0.0273884 -0.00341544 0)
(0.0289647 -0.00317786 0)
(0.0306323 -0.00296269 0)
(0.0321004 -0.00275018 0)
(0.0335091 -0.00254775 0)
(0.0348123 -0.00235564 0)
(0.0360263 -0.00217471 0)
(0.0371529 -0.00200529 0)
(0.0381978 -0.00184717 0)
(0.0391658 -0.00169999 0)
(0.0400618 -0.0015636 0)
(0.0408905 -0.00143741 0)
(0.0416563 -0.0013206 0)
(0.0423638 -0.0012129 0)
(0.0430172 -0.0011141 0)
(0.0436204 -0.00102392 0)
(0.0441772 -0.000941362 0)
(0.0446908 -0.000865544 0)
(0.0451646 -0.000795809 0)
(0.0456015 -0.000731559 0)
(0.0460044 -0.000672624 0)
(0.0463756 -0.000618369 0)
(0.0467183 -0.000568584 0)
(0.0470334 -0.000522877 0)
(0.0473249 -0.000480877 0)
(0.0475923 -0.000442306 0)
(0.0478402 -0.000406883 0)
(0.0480672 -0.000374531 0)
(0.0482777 -0.000344561 0)
(0.0484709 -0.000317355 0)
(0.0486491 -0.00029209 0)
(0.0488138 -0.000269062 0)
(0.0489645 -0.000247845 0)
(0.0491049 -0.000228294 0)
(0.0492325 -0.000210452 0)
(0.0493521 -0.000193851 0)
(0.0494603 -0.000178811 0)
(0.0495619 -0.000164731 0)
(0.0496538 -0.000152065 0)
(0.0497401 -0.000140125 0)
(0.0498184 -0.000129383 0)
(0.0498912 -0.000119194 0)
(0.0499583 -0.000109986 0)
(0.0500197 -0.000101331 0)
(0.0500769 -9.34939e-05 0)
(0.0501291 -8.6134e-05 0)
(0.0501774 -7.94336e-05 0)
(0.0502223 -7.31881e-05 0)
(0.050263 -6.75221e-05 0)
(0.0503013 -6.22109e-05 0)
(0.0503357 -5.74234e-05 0)
(0.0503685 -5.29243e-05 0)
(0.0503976 -4.88725e-05 0)
(0.0504255 -4.50405e-05 0)
(0.0504502 -4.1578e-05 0)
(0.050474 -3.83148e-05 0)
(0.050495 -3.53663e-05 0)
(0.0505151 -3.2604e-05 0)
(0.050533 -3.0083e-05 0)
(0.0505501 -2.77058e-05 0)
(0.0505653 -2.56205e-05 0)
(0.0505797 -2.3531e-05 0)
(0.0505928 -2.17323e-05 0)
(0.0506048 -1.99584e-05 0)
(0.0506162 -1.84446e-05 0)
(0.0506263 -1.69522e-05 0)
(0.050636 -1.56731e-05 0)
(0.0506446 -1.43876e-05 0)
(0.0506529 -1.32933e-05 0)
(0.0506601 -1.21965e-05 0)
(0.0506672 -1.12773e-05 0)
(0.0506733 -1.03417e-05 0)
(0.0506794 -9.57602e-06 0)
(0.0506846 -8.78516e-06 0)
(0.0506897 -8.14127e-06 0)
(0.0506941 -7.46531e-06 0)
(0.0506985 -6.915e-06 0)
(0.0507022 -6.34515e-06 0)
(0.050706 -5.8769e-06 0)
(0.0507091 -5.39473e-06 0)
(0.0507123 -4.96746e-06 0)
(0.050715 -4.59104e-06 0)
(0.0507177 -4.21439e-06 0)
(0.05072 -3.90608e-06 0)
(0.0507223 -3.58058e-06 0)
(0.0507242 -3.31516e-06 0)
(0.0507262 -3.03931e-06 0)
(0.0507278 -2.81617e-06 0)
(0.0507295 -2.58299e-06 0)
(0.0507309 -2.38838e-06 0)