/*--------------------------------*- C++ -*----------------------------------*\
| =========                 |                                                 |
| \\      /  F ield         | OpenFOAM: The Open Source CFD Toolbox           |
|  \\    /   O peration     | Version:  2012                                  |
|   \\  /    A nd           | Website:  www.openfoam.com                      |
|    \\/     M anipulation  |                                                 |
\*---------------------------------------------------------------------------*/
FoamFile
{
    version     2.0;
    format      ascii;
    class       volScalarField;
    location    "1";
    object      p;
}
// * * * * * * * * * * * * * * * * * * * * * * * * * * * * * * * * * * * * * //

dimensions      [1 -1 -2 0 0 0 0];


internalField   nonuniform List<scalar> 
2268
(
849.687
848.08
848.103
849.179
851.143
854.567
855.209
849.888
844.103
838.9
836.461
838.987
850.18
870.036
898.162
931.939
964.591
994.484
1019.99
1035.73
1040.86
1038.9
1033.11
791.019
788.854
788.729
789.418
791.443
795.573
796.762
791.123
785.147
779.36
776.256
778.107
789.112
810.277
840.035
873.501
903.235
932.863
962.306
978.249
981.214
977.274
971.737
732.746
730.915
729.429
728.657
730.598
736.118
738.494
732.714
725.913
719.042
714.529
714.838
725.1
747.633
779.784
813.944
846.463
880.687
909.548
922.341
921.763
914.788
908.49
673.857
672.094
669.757
667.435
668.817
676.236
680.588
674.922
666.886
658.158
651.351
649.201
657.683
679.552
713.841
754.417
795.132
833.63
860.592
868.093
862.381
851.525
843.74
614.268
612.516
609.755
606.552
607.457
616.872
623.64
617.966
608.093
596.885
587.045
581.086
587.037
607.334
643.054
694.429
747.815
791.24
815.034
815.978
803.167
786.926
777.223
554.543
552.733
549.921
546.849
548.228
559.341
567.755
561.955
549.683
535.375
521.431
510.702
513.26
531.557
568.837
633.655
701.722
751.877
773.514
765.774
743.019
719.857
708.245
494.865
493.075
490.445
488.729
491.916
503.894
512.621
506.249
491.678
473.692
454.604
437.641
435.969
450.78
488.897
572.417
658.19
717.515
737.929
719.188
683.03
650.771
637.089
434.862
433.387
431.473
432.773
438.941
450.746
457.535
449.945
433.904
411.817
386.038
362.051
354.461
361.874
399.361
506.808
615.702
688.798
713.356
679.726
625.093
580.904
562.458
763.752
734.96
719.163
744.925
723.536
632.418
573.227
531.435
451.397
385.394
391.567
435.912
410.284
343.005
293.392
275.319
277.976
288.412
316.808
708.852
673.389
658.888
689.31
652.227
562.459
516.042
477.558
396.547
331.849
343.765
398.146
361.931
286.846
240.947
229.879
235
245.418
280.149
655.288
614.98
604.389
634.796
579.935
493.638
465.173
438.987
351.145
275.61
291.53
347.502
305.16
232.412
199.832
191.555
198.172
201.93
242.747
602.17
560.415
549.029
578.302
520.273
440.979
422.227
391.59
300.83
222.547
240.553
287.357
249.948
186.223
159.441
163.2
174.618
166.502
203.059
550.709
510.222
494.629
530.502
486.618
405.994
378.353
340.008
250.134
179.695
195.712
234.639
205.503
145.562
136.082
151.078
163.323
155.165
163.41
502.011
465.979
443.074
496.055
473.052
372.709
324.503
280.081
202.196
147.35
161.031
190.583
164.238
112.248
121.505
139.619
152.356
149.065
136.292
456.13
427.54
399.539
465.909
468.349
331.582
258.825
213.474
156.233
120.476
130.057
148.621
121.211
90.4604
104.914
123.329
139.842
138.246
125.445
410.566
388.211
363.308
427.646
443.535
283.445
201.908
156.455
117.911
88.6171
102.06
109.936
77.9977
74.0272
85.986
102.935
124.022
124.196
116.922
352.655
344.932
338.658
346.806
360.773
372.228
372.233
360.723
343.982
315.715
276.729
237.856
219.487
216.099
282.692
436.178
575.369
666.482
669.559
612.283
528.944
461.542
424.918
254.912
236.401
233.71
246.461
264.638
273.293
257.1
243.873
238.786
201.337
138.188
110.986
125.121
143.61
180.683
263.682
388.473
486.101
511.795
446.099
345.013
274.607
242.361
178.074
136.925
141.982
162.229
175.591
184.03
164.824
136.658
123.149
98.9078
80.9391
80.42
89.2544
95.8058
101.098
98.0236
115.408
178.271
251.185
230.867
156.488
106.33
84.975
108.139
66.7079
57.8236
53.5091
93.1145
101.836
79.9884
62.0332
61.8379
60.0525
57.9007
62.0037
65.5696
55.5247
38.9634
25.7294
26.948
45.7254
70.551
93.2885
76.6798
75.9415
77.8821
54.9094
36.3726
32.3097
21.925
32.3567
39.5764
38.2513
40.1169
43.2056
41.8914
37.1263
38.1209
38.7342
29.6469
18.295
13.6094
13.4554
12.7086
15.1953
38.0837
58.1303
56.7276
57.532
59.5249
35.6443
21.8649
15.8784
18.4225
22.4124
25.5672
29.8088
31.6188
27.8272
20.4138
19.5839
20.4872
19.7669
14.109
10.1534
8.14432
6.09946
4.4477
8.48925
38.0434
53.3908
56.2955
52.2852
24.5292
13.3826
9.88461
12.0794
15.5594
15.9943
18.2227
20.1154
17.3146
13.1132
12.0571
12.3082
10.6432
5.74205
3.94037
2.5075
2.15758
1.2091
1.1523
11.5167
36.5107
47.8423
24.2368
12.8346
9.29661
7.90394
8.17169
8.65495
6.73309
7.07904
8.4588
5.32527
4.32871
4.46659
4.20783
0.91002
-0.311001
-0.0549264
0.308651
0.360159
0.0820888
0.412507
6.51499
23.5278
30.3147
11.2398
7.24033
6.59692
5.93928
5.2969
3.33301
0.310861
-0.626643
-0.574878
-1.16783
-0.6546
-0.736301
-0.575584
-0.787519
-0.787875
-0.599037
-0.307288
-0.275145
-0.524788
-0.555642
-0.790589
0.621283
15.0074
7.54598
4.5847
4.40291
3.85759
2.90629
2.35259
1.50629
-1.16611
-1.97859
-1.61605
-1.41297
-1.43544
-1.43182
-1.32929
-1.11358
-0.92648
-0.820519
-0.865148
-0.960126
-1.06482
-1.30608
-1.52636
-1.61704
4.91482
2.56612
2.41376
1.54427
0.196161
-0.871951
-1.69813
-2.10887
-2.11123
-1.9344
-1.80839
-1.75714
-1.71051
-1.63721
-1.51934
-1.39185
-1.31222
-1.30504
-1.32516
-1.38148
-1.49051
-1.59168
-1.69527
1.7762
0.560438
0.602504
-0.223548
-0.989973
-1.52677
-1.94172
-2.19116
-2.27226
-2.21939
-2.13409
-2.04906
-1.95982
-1.86621
-1.7678
-1.67724
-1.61084
-1.58531
-1.60321
-1.65397
-1.71881
-1.77706
-1.82161
0.0767193
-0.452599
-0.591979
-1.04987
-1.50707
-1.91629
-2.22821
-2.42298
-2.49608
-2.47615
-2.4132
-2.3291
-2.23104
-2.12499
-2.01883
-1.92632
-1.86171
-1.83422
-1.84217
-1.87551
-1.92007
-1.96393
-1.9951
-0.311059
-0.536975
-1.29424
-1.52468
-1.942
-2.24579
-2.49865
-2.67072
-2.7546
-2.7667
-2.72999
-2.65516
-2.54896
-2.42411
-2.29848
-2.19157
-2.1181
-2.08318
-2.08119
-2.10091
-2.13047
-2.15963
-2.18172
-0.986689
-1.59802
-2.05792
-2.04598
-2.42344
-2.63532
-2.83903
-2.99394
-3.1056
-3.16746
-3.16913
-3.10247
-2.97625
-2.81095
-2.63775
-2.4909
-2.38967
-2.33712
-2.32221
-2.33
-2.34807
-2.36742
-2.38361
-2.36114
-4.08692
-2.89387
-2.70423
-2.98299
-3.12444
-3.30783
-3.48034
-3.65449
-3.79402
-3.84841
-3.78518
-3.61362
-3.35776
-3.08209
-2.8518
-2.69211
-2.60492
-2.57049
-2.56523
-2.57253
-2.58274
-2.59166
-1.5234
-4.29246
-3.31991
-3.39979
-3.60305
-3.73303
-3.94092
-4.19365
-4.49612
-4.76712
-4.91445
-4.85163
-4.57176
-4.13462
-3.67108
-3.28842
-3.02725
-2.88618
-2.82627
-2.80637
-2.80308
-2.8043
-2.80525
-1.75144
-3.68258
-3.56434
-4.02963
-4.24767
-4.44904
-4.7552
-5.17796
-5.70007
-6.19052
-6.46238
-6.3465
-5.85169
-5.14343
-4.4238
-3.82774
-3.40466
-3.17257
-3.08432
-3.05345
-3.03967
-3.03124
-3.02297
-1.56086
-3.40473
-3.9235
-4.6405
-4.90874
-5.24048
-5.71031
-6.35886
-7.1378
-7.88962
-8.25821
-8.01345
-7.23664
-6.20354
-5.21738
-4.42142
-3.83846
-3.48089
-3.34602
-3.31033
-3.28552
-3.26493
-3.24516
-1.61656
-3.15095
-4.49687
-5.28894
-5.59276
-6.05715
-6.68569
-7.51497
-8.47594
-9.39368
-9.79965
-9.4774
-8.4806
-7.12848
-5.89201
-4.96696
-4.30597
-3.85156
-3.64486
-3.58656
-3.54548
-3.50721
-3.47192
3.36689
-3.63055
-5.81113
-6.02125
-6.31375
-6.8357
-7.54496
-8.44723
-9.49936
-10.4517
-10.8294
-10.4552
-9.31455
-7.80726
-6.4592
-5.49027
-4.8061
-4.30992
-4.0165
-3.89715
-3.823
-3.75825
-3.70196
7.02681
-7.58761
-7.24415
-6.85017
-7.05198
-7.50259
-8.19727
-9.10322
-10.1457
-10.9749
-11.2496
-10.8099
-9.60303
-8.18084
-6.95576
-6.0587
-5.38073
-4.83547
-4.45333
-4.23977
-4.11219
-4.01267
-3.93089
-3.45869
-10.7083
-7.83797
-7.56473
-7.63943
-7.95855
-8.5845
-9.46204
-10.3557
-10.9649
-11.0474
-10.4937
-9.38713
-8.26774
-7.35349
-6.62266
-5.96692
-5.3511
-4.87959
-4.57876
-4.39426
-4.25793
-4.15048
-8.9487
-9.74325
-7.70693
-7.92321
-7.86837
-8.11313
-8.64296
-9.42065
-10.1074
-10.4219
-10.2577
-9.64038
-8.83987
-8.11962
-7.51729
-6.95203
-6.3439
-5.69806
-5.1939
-4.86173
-4.64091
-4.47787
-4.35166
-9.21555
-8.43198
-7.41144
-7.88644
-7.74478
-7.97519
-8.36843
-8.92535
-9.36451
-9.42095
-9.10611
-8.59115
-8.09975
-7.68717
-7.30322
-6.8814
-6.33839
-5.79083
-5.36062
-5.05973
-4.83351
-4.66152
-4.52722
-8.53102
-7.50809
-7.0735
-7.63528
-7.47152
-7.65641
-7.8607
-8.12865
-8.2881
-8.18651
-7.93193
-7.61357
-7.32391
-7.07036
-6.81323
-6.50496
-6.10983
-5.75119
-5.42965
-5.16893
-4.9731
-4.80723
-4.67528
-3.02351
-5.75294
-6.43097
-7.29153
-7.20162
-7.31257
-7.34271
-7.35622
-7.31837
-7.21727
-7.07462
-6.89889
-6.713
-6.52655
-6.3452
-6.15336
-5.928
-5.68044
-5.44388
-5.2377
-5.06717
-4.91914
-4.79758
8.57141
-4.92413
-6.30688
-6.98222
-6.97909
-7.04799
-6.9783
-6.84895
-6.73741
-6.66415
-6.59964
-6.48771
-6.35451
-6.22151
-6.09786
-5.96082
-5.79611
-5.61782
-5.4437
-5.28142
-5.13637
-5.00789
-4.89719
11.8777
-7.07992
-6.70441
-6.8593
-6.88364
-6.91522
-6.80897
-6.65241
-6.52997
-6.46354
-6.40072
-6.29786
-6.17765
-6.0633
-5.95643
-5.83817
-5.70958
-5.57587
-5.44103
-5.3109
-5.18986
-5.07984
-4.98191
8.45382
-8.19005
-6.63569
-6.88495
-6.92775
-6.93752
-6.85493
-6.72316
-6.58825
-6.46767
-6.34697
-6.21452
-6.08349
-5.96599
-5.86049
-5.75792
-5.65417
-5.54724
-5.43949
-5.33406
-5.23375
-5.14056
-5.05566
2.08726
-7.58588
-6.31174
-6.93507
-7.09112
-7.13903
-7.09659
-6.9689
-6.77313
-6.54986
-6.34324
-6.16754
-6.01907
-5.89714
-5.79556
-5.70414
-5.61579
-5.52805
-5.44072
-5.35488
-5.27211
-5.19393
-5.12142
-4.86653
-7.03936
-6.1678
-7.04142
-7.34987
-7.41479
-7.35909
-7.20905
-6.92357
-6.59789
-6.32051
-6.11437
-5.95936
-5.83961
-5.74429
-5.66277
-5.58795
-5.51594
-5.44512
-5.37544
-5.30764
-5.24276
-5.18165
-5.69148
-6.07714
-6.2909
-6.93259
-7.27133
-7.36738
-7.37724
-7.24028
-6.90063
-6.53757
-6.2368
-6.02982
-5.88593
-5.779
-5.69635
-5.6281
-5.56713
-5.50935
-5.45284
-5.39705
-5.34225
-5.28913
-5.23839
-5.85716
-5.92408
-5.80894
-7.23255
-7.57371
-7.56352
-7.28114
-7.03495
-6.68811
-6.35454
-6.0835
-5.91054
-5.79654
-5.71365
-5.65031
-5.5983
-5.55187
-5.50771
-5.46418
-5.42068
-5.37732
-5.33463
-5.29326
-5.73886
-5.60453
-5.34882
-6.51546
-7.5796
-8.13351
-6.90551
-6.4564
-6.27839
-6.05784
-5.87658
-5.76927
-5.69966
-5.64835
-5.6081
-5.57394
-5.54235
-5.51125
-5.4796
-5.44707
-5.41385
-5.38045
-5.3475
-5.6095
-5.56925
-5.45635
-5.40688
-5.87838
-6.52892
-5.87079
-5.76993
-5.79457
-5.7285
-5.66836
-5.63403
-5.6104
-5.5911
-5.57391
-5.5572
-5.5397
-5.52063
-5.49966
-5.47685
-5.45258
-5.42744
-5.40204
-5.49097
-5.4961
-5.40371
-5.03418
-4.73711
-4.91675
-5.19241
-5.3704
-5.45638
-5.49035
-5.51396
-5.53164
-5.54369
-5.55034
-5.55246
-5.55066
-5.5453
-5.53661
-5.52487
-5.51049
-5.49402
-5.47614
-5.45745
-5.37876
-5.35624
-5.21076
-4.78307
-4.48907
-4.5924
-4.89857
-5.13172
-5.26608
-5.35875
-5.4261
-5.47251
-5.50767
-5.53156
-5.54715
-5.55634
-5.56031
-5.55988
-5.55566
-5.5483
-5.53845
-5.52682
-5.514
-5.33834
-5.29247
-5.16443
-4.89025
-4.70663
-4.75827
-4.93674
-5.1021
-5.22962
-5.32887
-5.40556
-5.46434
-5.50579
-5.53707
-5.55972
-5.57543
-5.58555
-5.59098
-5.59243
-5.59058
-5.58614
-5.57975
-5.57196
-5.39296
-5.35772
-5.26002
-5.10622
-5.00355
-5.01753
-5.10344
-5.2047
-5.29788
-5.37742
-5.44294
-5.49519
-5.5353
-5.56625
-5.58997
-5.60791
-5.621
-5.6299
-5.6352
-5.63749
-5.63737
-5.63538
-5.63197
-5.50601
-5.48348
-5.42754
-5.34564
-5.29046
-5.28932
-5.32655
-5.37898
-5.43318
-5.48345
-5.52721
-5.56356
-5.59277
-5.61625
-5.63508
-5.65108
-5.66435
-5.67481
-5.68264
-5.68808
-5.6915
-5.69326
-5.69368
-5.65299
-5.64911
-5.6327
-5.60888
-5.58956
-5.58055
-5.58525
-5.59816
-5.61477
-5.63218
-5.64854
-5.66279
-5.67443
-5.68307
-5.6921
-5.7029
-5.71387
-5.72381
-5.7323
-5.73929
-5.74491
-5.74933
-5.75277
394.905
380.151
368.913
360.5
233.047
231.679
231.435
227.969
71.4139
69.2751
77.1561
94.9579
89.3223
92.9253
82.4559
73.0742
57.8474
58.2486
59.4584
61.4454
56.4367
55.8688
55.7155
56.6981
52.3464
52.3066
51.8881
51.203
28.0914
28.9002
34.3913
32.1237
17.4669
12.2201
9.70553
7.44175
-1.59717
-1.57449
-1.55646
-1.54471
-1.70048
-1.6903
-1.68401
-1.68146
-1.82953
-1.83371
-1.83747
-1.83961
-2.00884
-2.01511
-2.01873
-2.01981
-2.19237
-2.19778
-2.20177
-2.20392
-2.39152
-2.39516
-2.39753
-2.39857
-2.59538
-2.59688
-2.5976
-2.59749
-2.80415
-2.80292
-2.80127
-2.79925
-3.01602
-3.01138
-3.00669
-3.00202
-3.23085
-3.22182
-3.21311
-3.20482
-3.44805
-3.43343
-3.41961
-3.40671
-3.66605
-3.64453
-3.62454
-3.60616
-3.88122
-3.8519
-3.82509
-3.80075
-4.08785
-4.05076
-4.01728
-3.98719
-4.27817
-4.2352
-4.19652
-4.16181
-4.4476
-4.40129
-4.3595
-4.32184
-4.59458
-4.54748
-4.50472
-4.46595
-4.71993
-4.67428
-4.6325
-4.59429
-4.82627
-4.7839
-4.74463
-4.70831
-4.9183
-4.87991
-4.84393
-4.81033
-4.9995
-4.96533
-4.93305
-4.90264
-5.07264
-5.04275
-5.01429
-4.98729
-5.13996
-5.11425
-5.08961
-5.06606
-5.20332
-5.18158
-5.16061
-5.14045
-5.26429
-5.24623
-5.22871
-5.21175
-5.3241
-5.30941
-5.29506
-5.28108
-5.38366
-5.37203
-5.36057
-5.34931
-5.44359
-5.4347
-5.42584
-5.41706
-5.50413
-5.4977
-5.49118
-5.48462
-5.56558
-5.56132
-5.55692
-5.5524
-5.62872
-5.62643
-5.62396
-5.62134
-5.69322
-5.69271
-5.69199
-5.69108
-5.75469
-5.75575
-5.75664
-5.75736
347.952
323.952
310.459
347.169
368.372
207.863
158.209
128.236
104.736
108.609
102.962
78.9254
58.9598
57.666
58.7847
69.877
95.4029
101.523
101.242
210.485
157.827
117.285
126.855
197.736
160.662
136.218
103.57
95.6832
88.9935
75.2766
62.1125
57.2516
53.9
53.1879
57.6505
69.8868
74.2575
80.722
125.872
129.304
88.7474
36.53
122.504
152.826
143.071
114.02
97.4761
85.0675
71.7708
61.8007
56.7132
53.3578
52.2464
54.8082
64.9014
66.9256
69.1106
71.8202
74.0009
75.205
94.9523
147.357
164.403
160.862
136.268
94.4607
70.8989
57.5064
55.1804
54.4065
52.8045
51.418
53.4563
65.102
70.3765
70.0522
64.6074
68.1179
76.017
97.2122
130.016
154.935
154.721
122.21
52.1946
21.595
35.5471
46.0423
51.368
52.1856
52.0188
53.3675
61.9939
70.1099
73.5549
58.7498
62.3703
70.4099
87.891
110.387
119.2
105.461
90.1045
34.5732
27.8171
36.32
44.5584
50.4687
52.7196
53.5481
54.6185
58.9855
64.2446
70.8207
47.0794
44.5436
46.3538
48.7519
43.747
21.2741
14.3932
37.3861
19.0555
39.3177
43.8788
47.5586
51.2039
53.3657
54.3909
55.5704
58.5957
61.8442
64.8504
27.2772
22.8822
19.5704
10.0668
2.8147
0.0777694
-0.0821427
0.260043
0.34874
45.429
46.894
49.5238
51.8636
53.6933
54.5139
54.8846
55.5478
57.6769
56.7347
8.4531
5.67675
1.02239
-0.710801
-0.881361
-0.580282
-0.567662
-1.1473
-2.44166
49.335
48.9428
50.2325
52.0593
53.7602
54.0064
50.3435
38.0663
34.8515
31.2444
-1.55028
-1.5513
-1.53398
-1.20769
-1.07306
-0.946767
-0.827464
-1.05126
1.29089
49.8066
49.5143
50.3383
51.8583
53.0417
49.1325
22.6886
-8.92006
-10.5624
5.73389
-1.67828
-1.67269
-1.62397
-1.46864
-1.31447
-1.2539
-1.11992
-1.35125
1.41598
49.5266
49.6297
49.9212
51.0555
46.3165
22.8086
-6.63492
-16.8201
-21.8882
-4.80863
-1.83902
-1.82486
-1.78007
-1.6963
-1.60691
-1.54929
-1.52085
-1.74626
0.987501
45.0816
48.9415
48.9845
42.686
23.0894
-1.30026
-7.86942
-12.2317
-13.301
-5.74292
-2.01865
-2.00559
-1.97689
-1.93393
-1.89489
-1.8928
-1.90204
-1.97922
-7.07726
13.2412
39.376
35.6777
21.5517
1.96872
-4.80866
-6.41578
-7.67343
-6.38526
-3.83518
-2.20476
-2.19724
-2.18122
-2.16258
-2.15657
-2.16949
-2.19618
-2.54963
-2.88097
11.0927
14.6189
18.4146
8.03884
-4.48978
-5.02164
-5.42394
-5.50714
-4.25259
-3.30044
-2.39874
-2.39433
-2.38701
-2.38258
-2.38878
-2.40444
-2.46023
-2.61203
-2.71465
-3.486
4.80044
6.81741
-4.29937
-4.72857
-4.80072
-4.94041
-4.89308
-4.19732
-3.65361
-2.59655
-2.59342
-2.59091
-2.59406
-2.60886
-2.64293
-2.72631
-2.88318
-3.17426
-3.74497
-4.33872
-4.57897
-4.65388
-4.62755
-4.55864
-4.63512
-4.63031
-4.31389
-3.99361
-2.79579
-2.79153
-2.79029
-2.79612
-2.8144
-2.85239
-2.92229
-3.03794
-3.25909
-3.60558
-3.9288
-4.10232
-4.1608
-4.2081
-4.22443
-4.34207
-4.40992
-4.3146
-4.14061
-2.99467
-2.98692
-2.98376
-2.98853
-3.00569
-3.04085
-3.09982
-3.18977
-3.32648
-3.48823
-3.62718
-3.70855
-3.75824
-3.85138
-3.97985
-4.13494
-4.23905
-4.24471
-4.17587
-3.192
-3.17852
-3.17108
-3.17227
-3.18516
-3.21299
-3.25916
-3.32612
-3.41042
-3.49342
-3.55969
-3.60211
-3.64819
-3.74586
-3.89519
-4.04166
-4.13209
-4.14877
-4.16421
-3.38688
-3.36577
-3.35236
-3.34837
-3.35548
-3.37533
-3.40923
-3.45557
-3.50392
-3.54163
-3.57283
-3.60961
-3.67144
-3.77192
-3.90537
-4.03064
-4.10351
-4.12264
-4.16142
-3.5781
-3.54804
-3.52757
-3.51738
-3.51799
-3.53
-3.55344
-3.58489
-3.61507
-3.63766
-3.65939
-3.69226
-3.74893
-3.83713
-3.95035
-4.06701
-4.14221
-4.15993
-4.17415
-3.76392
-3.72444
-3.69642
-3.67956
-3.67354
-3.67824
-3.69306
-3.71423
-3.73519
-3.75453
-3.77767
-3.81004
-3.85747
-3.92403
-4.01082
-4.11215
-4.19292
-4.20576
-4.19766
-3.94198
-3.89352
-3.85807
-3.83449
-3.82187
-3.81968
-3.82708
-3.84111
-3.859
-3.88295
-3.91268
-3.94387
-3.97954
-4.02326
-4.07761
-4.14735
-4.22111
-4.23877
-4.22464
-4.10974
-4.05362
-4.01148
-3.98158
-3.96269
-3.95402
-3.95465
-3.96259
-3.97841
-4.00717
-4.04311
-4.07253
-4.09592
-4.11803
-4.14171
-4.17646
-4.21469
-4.25975
-4.25772
-4.26517
-4.20338
-4.15583
-4.12052
-4.09597
-4.08119
-4.07515
-4.07654
-4.08789
-4.11573
-4.15197
-4.17807
-4.19222
-4.19923
-4.20492
-4.22316
-4.25423
-4.29595
-4.30178
-4.40722
-4.34211
-4.29086
-4.25142
-4.22219
-4.20192
-4.18941
-4.18346
-4.18664
-4.20496
-4.23224
-4.25308
-4.26417
-4.2703
-4.27704
-4.29355
-4.3219
-4.35023
-4.35792
-4.53589
-4.46988
-4.41683
-4.37481
-4.34219
-4.31755
-4.29944
-4.28651
-4.27995
-4.2832
-4.29379
-4.30598
-4.322
-4.34373
-4.36551
-4.38359
-4.40129
-4.41712
-4.42282
-4.65223
-4.58752
-4.53449
-4.49148
-4.45697
-4.42947
-4.4075
-4.38961
-4.37547
-4.3655
-4.36004
-4.36385
-4.38675
-4.42501
-4.45965
-4.47549
-4.48059
-4.48922
-4.49338
-4.75792
-4.69626
-4.64483
-4.60229
-4.5673
-4.53852
-4.51465
-4.49446
-4.47679
-4.46029
-4.44655
-4.44549
-4.46786
-4.5079
-4.54197
-4.55637
-4.55898
-4.56504
-4.56842
-4.85479
-4.79745
-4.74884
-4.70793
-4.67365
-4.64489
-4.62068
-4.60006
-4.5819
-4.56483
-4.55055
-4.54741
-4.56254
-4.59426
-4.62063
-4.63315
-4.63863
-4.64457
-4.64769
-4.94451
-4.89231
-4.84738
-4.80897
-4.77627
-4.74849
-4.72493
-4.70487
-4.68746
-4.67202
-4.66023
-4.65709
-4.6656
-4.68548
-4.70381
-4.71478
-4.7222
-4.7278
-4.73068
-5.02848
-4.98191
-4.9412
-4.90589
-4.87542
-4.84926
-4.82697
-4.808
-4.79182
-4.77812
-4.76834
-4.76508
-4.76929
-4.78228
-4.79376
-4.80205
-4.80935
-4.81414
-4.81666
-5.10803
-5.06723
-5.03103
-4.99919
-4.97138
-4.94728
-4.92665
-4.90907
-4.89432
-4.88223
-4.87393
-4.87048
-4.87244
-4.88101
-4.88766
-4.8929
-4.89925
-4.90282
-4.905
-5.1843
-5.14918
-5.11758
-5.08942
-5.06452
-5.04276
-5.02402
-5.00802
-4.99476
-4.98411
-4.97693
-4.9734
-4.97437
-4.9792
-4.98274
-4.98608
-4.9905
-4.99311
-4.99504
-5.25828
-5.22863
-5.20158
-5.17714
-5.15528
-5.13601
-5.1193
-5.10499
-5.0932
-5.08381
-5.07746
-5.07389
-5.07402
-5.07607
-5.07778
-5.08004
-5.08261
-5.08448
-5.08593
-5.33081
-5.30633
-5.28367
-5.26291
-5.24412
-5.2274
-5.21278
-5.20021
-5.18986
-5.18156
-5.17578
-5.17214
-5.17117
-5.17145
-5.17203
-5.17386
-5.17523
-5.17658
-5.17732
-5.40248
-5.38283
-5.36435
-5.34716
-5.33142
-5.31726
-5.30476
-5.29396
-5.28498
-5.27769
-5.27238
-5.26871
-5.26674
-5.26611
-5.26593
-5.26736
-5.26814
-5.26911
-5.26928
-5.47362
-5.45846
-5.44394
-5.43021
-5.41746
-5.40585
-5.39549
-5.38643
-5.3788
-5.37249
-5.3677
-5.36413
-5.36175
-5.36064
-5.36006
-5.3608
-5.3612
-5.3618
-5.36167
-5.5447
-5.53377
-5.52302
-5.51263
-5.50279
-5.49368
-5.4854
-5.47803
-5.4717
-5.46634
-5.4621
-5.45876
-5.4564
-5.45494
-5.45416
-5.45425
-5.45424
-5.4545
-5.45425
-5.61673
-5.60978
-5.60259
-5.59536
-5.5883
-5.58155
-5.57523
-5.56946
-5.56433
-5.55986
-5.55615
-5.55307
-5.5508
-5.54911
-5.54814
-5.54774
-5.54743
-5.54742
-5.54706
-5.68928
-5.68602
-5.68219
-5.67798
-5.67355
-5.66907
-5.66466
-5.66043
-5.65648
-5.65287
-5.64969
-5.6469
-5.64468
-5.64285
-5.64168
-5.64099
-5.64048
-5.64031
-5.6398
-5.75827
-5.75864
-5.75818
-5.75702
-5.7553
-5.75317
-5.75076
-5.74817
-5.7455
-5.74282
-5.74027
-5.73777
-5.73566
-5.73362
-5.73232
-5.73154
-5.73094
-5.7307
-5.72993
)
;

boundaryField
{
    leftWall
    {
        type            calculated;
        value           nonuniform List<scalar> 
50
(
849.687
791.019
732.746
673.857
614.268
554.543
494.865
434.862
352.655
254.912
178.074
108.139
54.9094
59.5249
52.2852
24.2368
11.2398
7.54598
4.91482
1.7762
0.0767193
-0.311059
-0.986689
-2.36114
-1.5234
-1.75144
-1.56086
-1.61656
3.36689
7.02681
-3.45869
-8.9487
-9.21555
-8.53102
-3.02351
8.57141
11.8777
8.45382
2.08726
-4.86653
-5.69148
-5.85716
-5.73886
-5.6095
-5.49097
-5.37876
-5.33834
-5.39296
-5.50601
-5.65299
)
;
    }
    rightWall
    {
        type            calculated;
        value           nonuniform List<scalar> 
50
(
316.808
280.149
242.747
203.059
163.41
136.292
125.445
116.922
101.242
80.722
69.1106
70.0522
73.5549
70.8207
64.8504
56.7347
31.2444
5.73389
-4.80863
-5.74292
-3.83518
-3.30044
-3.65361
-3.99361
-4.14061
-4.17587
-4.16421
-4.16142
-4.17415
-4.19766
-4.22464
-4.25772
-4.30178
-4.35792
-4.42282
-4.49338
-4.56842
-4.64769
-4.73068
-4.81666
-4.905
-4.99504
-5.08593
-5.17732
-5.26928
-5.36167
-5.45425
-5.54706
-5.6398
-5.72993
)
;
    }
    lowerWall
    {
        type            calculated;
        value           nonuniform List<scalar> 
62
(
879.116
877.509
877.532
878.608
880.572
883.997
884.638
879.317
873.532
868.329
865.891
868.416
879.61
899.411
926.914
960.515
993.721
1023.59
1048.73
1064.55
1070.17
1068.33
1062.54
1033.11
971.737
908.49
843.74
777.223
708.245
637.089
562.458
456.039
441.269
430.012
419.846
763.752
708.852
655.288
602.17
550.709
502.011
456.13
410.566
792.879
764.086
746.756
771.039
752.251
661.245
602.054
560.262
478.721
408.58
413.011
455.347
434.836
368.689
319.057
299.19
300.637
310.629
338.642
)
;
    }
    atmosphere
    {
        type            calculated;
        value           nonuniform List<scalar> 
46
(
-5.72919
-5.72919
-5.73028
-5.73825
-5.74071
-5.73234
-5.72972
-5.72915
-5.72905
-5.72904
-5.72904
-5.72904
-5.72904
-5.72904
-5.73101
-5.73633
-5.74307
-5.75013
-5.75693
-5.76321
-5.76888
-5.77398
-5.77854
-5.78158
-5.78344
-5.78518
-5.78678
-5.78907
-5.79133
-5.79266
-5.79314
-5.79293
-5.79213
-5.79085
-5.78921
-5.78731
-5.78518
-5.78308
-5.78068
-5.77878
-5.77644
-5.77516
-5.7745
-5.77389
-5.77378
-5.77262
)
;
    }
    defaultFaces
    {
        type            empty;
    }
}


// ************************************************************************* //
