/*--------------------------------*- C++ -*----------------------------------*\
| =========                 |                                                 |
| \\      /  F ield         | OpenFOAM: The Open Source CFD Toolbox           |
|  \\    /   O peration     | Version:  2012                                  |
|   \\  /    A nd           | Website:  www.openfoam.com                      |
|    \\/     M anipulation  |                                                 |
\*---------------------------------------------------------------------------*/
FoamFile
{
    version     2.0;
    format      ascii;
    class       volScalarField;
    location    "1";
    object      p_rgh;
}
// * * * * * * * * * * * * * * * * * * * * * * * * * * * * * * * * * * * * * //

dimensions      [1 -1 -2 0 0 0 0];


internalField   nonuniform List<scalar> 
2268
(
879.116
877.509
877.532
878.608
880.572
883.997
884.638
879.317
873.532
868.329
865.891
868.416
879.61
899.411
926.914
960.515
993.721
1023.59
1048.73
1064.55
1070.17
1068.33
1062.54
879.307
877.142
877.017
877.706
879.731
883.861
885.05
879.411
873.435
867.648
864.544
866.395
877.399
896.413
924.244
957.696
988.74
1018.47
1047.57
1063.51
1067.41
1065.56
1060.02
879.893
878.061
876.576
875.804
877.745
883.264
885.64
879.861
873.059
866.189
861.676
861.985
872.247
894.111
921.232
954.292
986.789
1021.11
1054.37
1068.5
1068.91
1061.92
1055.64
879.862
878.1
875.763
873.44
874.822
882.241
886.594
880.928
872.892
864.164
857.356
855.206
863.688
885.557
919.159
955.224
996.073
1039.03
1066.6
1074.1
1068.39
1057.53
1049.74
879.132
877.38
874.619
871.417
872.322
881.736
888.505
882.83
872.957
861.749
851.909
845.951
851.901
872.198
907.918
959.268
1012.67
1056.1
1079.9
1080.84
1068.03
1051.79
1042.09
878.266
876.455
873.644
870.572
871.951
883.009
891.358
885.676
873.406
859.098
845.154
834.424
836.983
855.28
892.56
957.377
1025.44
1075.6
1097.24
1089.5
1066.74
1043.58
1031.97
877.446
875.657
873.027
871.311
874.498
886.325
894.701
888.764
874.26
856.274
837.186
820.222
818.551
833.362
871.478
954.999
1040.77
1100.1
1120.51
1101.54
1065.54
1033.35
1019.67
876.303
874.828
872.913
874.214
880.382
892.103
898.395
891.162
875.344
853.257
827.478
803.492
795.901
803.314
840.801
948.248
1057.14
1130.24
1151.21
1117.14
1065.97
1022.19
1003.89
792.879
764.086
746.756
771.039
752.251
661.245
602.054
560.262
478.721
408.58
413.011
455.347
434.836
368.689
319.057
299.19
300.637
310.629
338.642
796.231
756.922
726.314
756.733
737.29
648.938
602.523
564.039
454.804
383.652
395.568
455.322
438.751
363.68
295.783
276.451
284.66
294.899
329.293
800.806
746.29
716.762
747.195
720.683
637.704
609.304
533.907
445.421
386.21
385.168
465.843
433.062
339.806
274.232
264.031
278.007
295.171
347.77
804.743
725.44
706.387
767.136
710.588
636.981
585.145
524.491
463.191
387.74
409.067
458.107
421.987
297.479
246.741
200.306
194.92
227.194
370.981
808.064
722.796
732.198
786.59
726.695
649.558
562.854
511.715
462.85
393.207
410.985
451.673
374.7
272.847
162.692
166.705
178.968
171.029
374.589
819.294
726.753
753.414
809.478
772.469
663.079
558.897
513.429
461.339
407.555
421.991
453.39
401.661
196.912
138.566
157.802
172.866
169.554
219.025
832.415
744.275
753.287
836.89
823.915
654.341
498.417
443.005
461.622
426.736
437.571
455.358
379.85
121.539
123.43
147.778
172.357
170.75
148.866
844.74
796.306
788.43
857.583
869.127
580.302
361.067
326.417
387.767
435.208
455.182
461.091
264.658
78.904
106.134
139.756
161.5
161.735
143.801
778.459
838.459
872.125
880.273
894.167
905.683
905.695
894.183
877.449
849.182
810.196
771.323
752.954
675.667
590.312
726.594
858.766
1069
1178.84
1142.03
1061.51
985.899
946.504
545.948
527.203
606.332
853.487
923.24
931.949
915.758
902.531
897.447
859.999
767.561
384.204
214.756
213.831
260.232
450.823
948.032
1128.18
1161.28
1097.4
998.812
910.089
866.208
527.921
482.674
534.798
876.691
959.303
967.761
948.673
920.51
733.621
376.365
189.259
157.552
166.052
169.307
180.237
388.216
690.062
735.789
910.472
998.194
923.703
845.472
817.873
592.005
502.582
591.465
760.513
1000.52
1010.7
646.341
265.383
136.241
113.231
151.294
171.308
160.815
140.757
133.28
207.477
112.574
116.403
638.806
971.52
747.57
463.086
451.365
507.53
83.9274
172.76
672.246
841.998
383.294
108.888
101.854
99.6962
93.3827
159.935
161.864
162.969
127.27
54.0206
45.9562
31.7249
30.8033
394.74
759.876
385.488
73.1139
73.8657
366.446
84.1833
135.005
206.992
183.596
104.838
103.191
100.467
95.0673
84.2164
81.2749
124.99
135.024
89.2798
58.4601
48.1013
28.7634
10.3023
47.3431
243.393
388.325
74.7993
74.6653
367.488
42.862
36.6625
22.1997
46.1676
131.012
136.25
138.051
137.77
115.871
29.8347
27.4363
44.7095
82.616
77.3481
70.0751
21.649
5.23029
5.36024
19.2622
351.46
493.172
218.392
322.216
16.4546
13.1479
14.3277
63.1261
140.63
138.713
139.054
139.965
120.098
13.6582
20.6491
61.7443
56.6164
6.99216
5.91231
6.03637
3.28106
2.52685
3.10215
240.706
536.278
543.065
406.741
10.4038
9.80411
10.1326
36.2423
143.911
144.005
142.558
112.732
4.99404
5.61084
6.18515
5.76893
1.20182
1.2669
1.65075
2.14642
2.90158
2.37871
1.1796
0.77028
53.3327
414.29
671.76
7.75701
7.34715
7.32635
21.3505
83.6696
106.651
42.3297
5.75475
0.154138
0.286496
0.238827
0.235754
0.819513
2.04204
2.23634
2.36365
2.32543
1.40816
0.879777
0.359758
0.134485
0.0431812
723.821
5.92905
5.24199
7.00581
10.575
2.70154
1.80233
-0.0625579
-0.239805
-0.138846
-0.0205756
0.0286285
0.0747657
0.157991
0.598036
1.19466
1.19851
0.639545
0.620284
0.809769
0.699762
0.242385
0.100346
771.093
4.38343
3.65636
4.79062
2.2967
0.522125
0.03908
-0.24716
-0.352802
-0.307937
-0.223411
-0.138433
-0.0491916
0.0444188
0.142829
0.233391
0.299799
0.325338
0.30744
0.258259
0.192605
0.288633
0.126724
819.526
2.43262
2.09758
1.91248
0.664056
0.152638
-0.179417
-0.38253
-0.459346
-0.440253
-0.377357
-0.293268
-0.195213
-0.0891598
0.0170059
0.109519
0.174129
0.201629
0.193681
0.160332
0.115792
0.0821847
0.0408358
868.306
4.03877
1.30226
0.780314
0.254224
-0.0757463
-0.334627
-0.508946
-0.593496
-0.605643
-0.568941
-0.494118
-0.38793
-0.263064
-0.137416
-0.0304988
0.042959
0.0778656
0.0798576
0.0601325
0.0305789
0.00141165
-0.0205895
916.393
16.0841
0.375118
0.283801
-0.127668
-0.34628
-0.551935
-0.70748
-0.819238
-0.881151
-0.882761
-0.815952
-0.689902
-0.524436
-0.351094
-0.204234
-0.103194
-0.0508258
-0.0359613
-0.0437278
-0.0617979
-0.0811826
-0.0973715
963.121
18.2635
-0.312422
-0.195476
-0.532582
-0.711946
-0.895788
-1.06846
-1.24283
-1.38246
-1.43581
-1.36352
-1.19377
-0.943139
-0.666759
-0.436718
-0.278784
-0.193144
-0.159023
-0.153781
-0.161083
-0.171301
-0.180276
886.29
1.80556
-0.447519
-0.435015
-0.908234
-1.195
-1.40324
-1.65639
-1.95908
-2.22975
-2.27436
-1.87622
-1.52847
-1.2719
-0.910818
-0.658228
-0.478197
-0.347683
-0.28958
-0.269782
-0.2665
-0.26772
-0.268673
493.791
-0.54228
-0.444288
-0.839862
-1.45187
-1.78537
-2.09191
-2.5144
-3.03236
-3.28102
-3.01211
-2.87299
-2.31453
-1.57315
-0.789876
-0.178531
-0.292986
-0.498162
-0.421886
-0.391661
-0.377896
-0.369462
-0.361193
743.037
-0.13239
-0.639835
-1.29781
-2.10086
-2.4512
-2.92105
-3.56594
-4.23369
-4.326
-4.66155
-4.57158
-4.1273
-2.73795
-1.3784
-0.371317
0.249015
-0.051449
-0.537975
-0.519507
-0.49849
-0.477961
-0.458192
940.469
0.781848
-1.08121
-1.79036
-2.67158
-3.14224
-3.7702
-4.5958
-5.48479
-5.83589
-6.50321
-6.31648
-5.31984
-3.96765
-2.73126
-1.14901
0.00163306
0.467432
-0.284238
-0.665014
-0.633155
-0.595038
-0.559754
985.953
6.64309
-2.3777
-2.36779
-3.27132
-3.79487
-4.50347
-5.36855
-6.17226
-7.12292
-7.50058
-7.10824
-6.01775
-4.51141
-3.16162
-2.17848
-0.380882
0.194818
0.0862162
-0.834446
-0.785608
-0.720893
-0.664605
1030.11
17.3207
-3.77932
-3.33893
-3.88315
-4.33573
-5.0224
-5.71278
-5.70068
-7.38697
-7.36295
-6.4803
-6.11574
-4.74734
-3.51337
-2.26873
-0.690312
-0.145052
0.0270352
-1.03581
-0.949587
-0.850119
-0.768343
414.067
26.9599
-4.28947
-4.24246
-4.34405
-4.66421
-5.24871
-4.9435
-5.69359
-6.28817
-6.38815
-5.85307
-5.82033
-4.73003
-3.69145
-1.7543
-1.09091
-0.475007
-0.68975
-1.28284
-1.10649
-0.970182
-0.862734
15.5145
36.9452
-4.16996
-4.46076
-4.44833
-4.69323
-5.03313
-4.58103
-5.25261
-5.56048
-5.40287
-6.04601
-5.25008
-4.51154
-2.60587
-1.90486
-1.28954
-0.63637
-1.49535
-1.44877
-1.22797
-1.06493
-0.938716
14.6221
17.7947
-3.81635
-4.27524
-4.1996
-4.43073
-4.61984
-3.89345
-4.32475
-4.38358
-4.60688
-5.01614
-4.44522
-3.07582
-2.13381
-1.67685
-1.10608
-1.51825
-1.82248
-1.52159
-1.29537
-1.12338
-0.989089
57.274
-3.55722
-3.38156
-3.9474
-3.80167
-3.98674
-4.18727
-3.04121
-3.07815
-3.32818
-4.23042
-3.93336
-3.36275
-1.87697
-1.52033
-1.20385
-1.62823
-2.08786
-1.76632
-1.5056
-1.30977
-1.14389
-1.01195
560.886
-1.32488
-2.6294
-3.49691
-3.40658
-3.51754
-3.54767
-3.2279
-2.78101
-3.196
-3.26877
-3.09874
-2.60497
-1.57649
-1.68969
-2.1762
-2.13948
-1.89192
-1.65536
-1.44918
-1.27865
-1.13062
-1.00906
675.811
13.0515
-2.37544
-3.06123
-3.05881
-3.12755
-3.05788
-2.92396
-2.77675
-2.67767
-2.65768
-2.56735
-2.43386
-2.30775
-2.18414
-2.0471
-1.88239
-1.7041
-1.52998
-1.3677
-1.22265
-1.09417
-0.983469
703.008
31.4451
-2.62151
-2.81433
-2.83779
-2.86937
-2.76308
-2.60519
-2.4096
-2.28059
-2.27882
-2.25823
-2.13869
-2.02439
-1.91752
-1.79926
-1.67067
-1.53696
-1.40212
-1.27199
-1.15094
-1.04092
-0.943
720.068
66.5556
-2.41991
-2.71147
-2.75642
-2.76622
-2.68358
-2.54207
-2.27414
-2.15507
-2.15176
-2.05011
-1.91935
-1.80188
-1.69638
-1.59381
-1.49006
-1.38313
-1.27538
-1.16995
-1.06964
-0.976447
-0.891556
599.52
162.619
-1.87922
-2.63108
-2.79434
-2.84227
-2.79983
-2.65319
-2.32332
-2.13214
-2.04556
-1.87799
-1.72974
-1.60783
-1.50626
-1.41483
-1.32649
-1.23875
-1.15142
-1.06557
-0.982806
-0.90463
-0.832115
43.8137
167.788
1.68656
-2.57461
-2.92587
-2.99256
-2.93692
-2.78679
-2.33335
-2.08947
-1.90138
-1.69955
-1.54482
-1.42511
-1.32979
-1.24827
-1.17345
-1.10144
-1.03062
-0.960938
-0.893147
-0.828262
-0.767157
1.80483
170.544
124.118
-1.64564
-2.67758
-2.81773
-2.82957
-2.54195
-2.12927
-1.90479
-1.68899
-1.48958
-1.34615
-1.2393
-1.15666
-1.08841
-1.02744
-0.969657
-0.913148
-0.857357
-0.802562
-0.749438
-0.698702
-0.321147
159.379
153.639
108.822
51.4276
41.6437
22.9683
-0.876459
-1.80627
-1.63566
-1.41006
-1.24458
-1.13152
-1.04875
-0.985425
-0.933416
-0.886979
-0.842827
-0.799295
-0.75579
-0.71243
-0.669745
-0.628372
-0.656681
31.8987
124.607
125.051
108.402
96.9887
57.2021
1.96967
-1.1668
-1.20799
-1.07707
-0.977928
-0.909442
-0.858259
-0.818022
-0.783862
-0.752271
-0.721173
-0.689522
-0.65699
-0.623765
-0.590371
-0.557424
-0.587371
-0.409183
34.6296
82.3843
101.794
74.6226
33.6679
0.202151
-0.660711
-0.774825
-0.747384
-0.718044
-0.695048
-0.675816
-0.658638
-0.641924
-0.624422
-0.60535
-0.584382
-0.561577
-0.537306
-0.512163
-0.486768
-0.425985
-0.374185
1.1172
15.9729
20.1603
17.2276
4.03716
0.561459
-0.346293
-0.438566
-0.471931
-0.490986
-0.5032
-0.509869
-0.511985
-0.510188
-0.504827
-0.49614
-0.484402
-0.470021
-0.453554
-0.435666
-0.416979
-0.207217
-0.150296
0.349627
2.16343
2.56921
1.6396
0.652746
0.183134
-0.0810107
-0.19072
-0.260141
-0.306813
-0.342004
-0.365891
-0.381485
-0.390672
-0.394649
-0.394213
-0.389997
-0.382632
-0.37279
-0.361155
-0.348334
-0.0460302
0.0134157
0.247767
0.862498
1.04902
0.777408
0.437912
0.2113
0.0649867
-0.037556
-0.114654
-0.173472
-0.214931
-0.246215
-0.268859
-0.284573
-0.294695
-0.300124
-0.301566
-0.299719
-0.295278
-0.288888
-0.281099
0.023398
0.0610118
0.182388
0.418885
0.516761
0.450078
0.329829
0.215521
0.118839
0.0387074
-0.0268806
-0.0791357
-0.119251
-0.150197
-0.173921
-0.191855
-0.204943
-0.213845
-0.219142
-0.221434
-0.221316
-0.219329
-0.21592
0.0353771
0.0580621
0.11909
0.221078
0.278276
0.263213
0.217889
0.162931
0.108165
0.0578079
0.0140396
-0.0223132
-0.0515176
-0.0749972
-0.0938319
-0.109828
-0.123098
-0.133566
-0.141387
-0.146835
-0.150252
-0.15201
-0.152431
0.0135953
0.0174769
0.03497
0.066667
0.0884219
0.0891569
0.0818691
0.0683865
0.0516897
0.034268
0.0179065
0.00365755
-0.00798727
-0.016629
-0.025655
-0.036454
-0.0474233
-0.0573673
-0.0658571
-0.0728514
-0.0784648
-0.082892
-0.0863238
915.908
901.017
889.612
866.259
858.119
845.15
834.543
830.716
812.431
800.246
799.279
814.204
679.93
748.052
562.347
301.923
74.1893
74.576
75.8
77.8664
74.7568
74.1888
74.1232
75.3056
127.177
99.5326
75.45
173.021
540.841
445.364
130.095
433.914
462.144
330.56
271.737
224.572
0.0630495
0.0857244
0.10376
0.115511
0.0849285
0.095112
0.101395
0.103948
0.0810901
0.0769607
0.07314
0.0709974
0.0280907
0.0212489
0.0170723
0.0159928
-0.0301679
-0.0360843
-0.0407715
-0.0429217
-0.105005
-0.108957
-0.111316
-0.112375
-0.183999
-0.185499
-0.186203
-0.186105
-0.267573
-0.266341
-0.264691
-0.262667
-0.35425
-0.349607
-0.344914
-0.340245
-0.443877
-0.434854
-0.426144
-0.417856
-0.535886
-0.521267
-0.507447
-0.494548
-0.62869
-0.607169
-0.58718
-0.568802
-0.718663
-0.689346
-0.662535
-0.638202
-0.800106
-0.76301
-0.729533
-0.699445
-0.865234
-0.82226
-0.783582
-0.748868
-0.909468
-0.863158
-0.821361
-0.783705
-0.931246
-0.884147
-0.841391
-0.802616
-0.93141
-0.885756
-0.843976
-0.805761
-0.912553
-0.870182
-0.830911
-0.794593
-0.87939
-0.840992
-0.805015
-0.771412
-0.835393
-0.801226
-0.76894
-0.738529
-0.783342
-0.753451
-0.72499
-0.697987
-0.725465
-0.699755
-0.675112
-0.651567
-0.663632
-0.641889
-0.620922
-0.600753
-0.599402
-0.581342
-0.563824
-0.546863
-0.534014
-0.519327
-0.50498
-0.490997
-0.468389
-0.456758
-0.445294
-0.434036
-0.403115
-0.394234
-0.385373
-0.376585
-0.338464
-0.332034
-0.325513
-0.318956
-0.274719
-0.270465
-0.266057
-0.261541
-0.212662
-0.210379
-0.207911
-0.205288
-0.151974
-0.15146
-0.150737
-0.14983
-0.0882489
-0.0893088
-0.0901981
-0.0909187
867.924
845.52
832.027
867.615
887.39
552.75
215.117
171.807
139.103
302.788
393.09
249.586
69.4098
61.5598
87.6675
104.027
140.237
146.814
129.552
849.535
801.653
749.751
768.916
838.671
542.238
240.093
184.381
100.076
93.428
88.7521
65.2545
59.2184
55.5653
54.8905
59.4231
92.2511
127.029
115.055
845.85
802.561
634.359
609.326
780.202
341.758
236.361
167.42
103.67
89.9243
75.3813
64.1412
58.6949
55.3398
54.2268
65.0699
74.2321
77.1353
110.867
157.68
108.248
127.784
216.427
328.643
211.45
212.215
179.314
125.456
87.7415
66.0379
57.9124
56.726
55.102
56.3198
67.8579
75.8333
81.1869
120.388
81.2135
85.0404
93.8489
117.648
156.33
199.28
262.153
481.288
439.777
162.133
42.3208
49.5234
54.0415
54.7251
54.425
67.7926
75.4808
82.9536
130.823
77.7465
87.1907
125.182
235.777
344.331
389.059
661.225
779.45
724.576
338.046
45.2384
48.3815
53.3752
55.4196
56.1951
57.3203
62.2831
76.3882
134.593
267.534
329.113
390.934
482.34
477.574
431.41
313.166
801.894
783.563
506.284
57.6783
50.9586
54.2309
56.298
57.3066
58.5031
61.6486
65.2294
131.911
429.068
424.673
417.543
251.213
96.7994
1.49018
1.33424
460.424
839.362
595.364
60.0479
52.7694
55.0741
56.8952
57.7195
59.1047
66.0164
61.5506
92.544
253.453
184.521
77.1896
0.824223
0.653687
0.956183
0.970173
14.6665
903.469
570.581
57.8424
53.7119
55.538
57.2459
57.4884
102.329
121.985
71.1766
41.9232
0.109939
0.108921
0.12624
0.452529
0.587157
0.714379
0.834314
0.630161
947.996
522.274
53.2775
54.0993
55.6215
56.8048
135.062
133.649
82.0193
23.1259
13.0733
0.107132
0.112719
0.161445
0.316779
0.471088
0.543007
0.676294
13.445
1013.95
546.105
53.6817
53.9681
55.4815
257.805
254.996
111.714
-11.348
-4.99723
1.25436
0.0715919
0.085748
0.130539
0.214306
0.303723
0.365852
0.423148
44.6144
1003.08
690.389
53.3609
53.5677
394.506
486.467
252.926
-4.88894
-8.06405
-8.88337
-2.21314
0.0171488
0.0302115
0.058911
0.101869
0.140936
0.143899
0.157077
22.7466
194.232
807.698
313.591
426.389
637.757
500.343
18.3678
-4.14744
-4.70015
-3.43021
-1.00785
-0.0437674
-0.0362457
-0.0202191
-0.00157903
0.00442999
-0.00841664
-0.0346266
-0.364424
0.707488
708.65
779.231
782.721
664.234
13.8497
-2.8283
-3.16555
-2.94773
-1.56248
-0.577172
-0.112551
-0.108135
-0.100816
-0.0963906
-0.102583
-0.118215
-0.174037
-0.326388
-0.428618
-1.20278
381.056
438.853
-2.01007
-2.43182
-2.49718
-2.60297
-2.41155
-1.47271
-0.827421
-0.185162
-0.182033
-0.179529
-0.182671
-0.197472
-0.231547
-0.314935
-0.471803
-0.762877
-1.33356
-1.92717
-2.1669
-2.24086
-2.20714
-2.13549
-2.1906
-1.91537
-1.34444
-1.0219
-0.259207
-0.254952
-0.253708
-0.259545
-0.277824
-0.315815
-0.385709
-0.501358
-0.722503
-1.06892
-1.38626
-1.54996
-1.60824
-1.6694
-1.68322
-1.75002
-1.65968
-1.58776
-1.56165
-0.332898
-0.325151
-0.321987
-0.326753
-0.34392
-0.379072
-0.438043
-0.527974
-0.664659
-0.826195
-0.964815
-1.04498
-1.09355
-1.18825
-1.31474
-1.45467
-1.56465
-1.57226
-1.50342
-0.405029
-0.391554
-0.384115
-0.385302
-0.398189
-0.426023
-0.472187
-0.539027
-0.621821
-0.702872
-0.770192
-0.813814
-0.859898
-0.957569
-1.10681
-1.25273
-1.34116
-1.16904
-1.36013
-0.474716
-0.453606
-0.4402
-0.436206
-0.443313
-0.463164
-0.497069
-0.542957
-0.587348
-0.624881
-0.656081
-0.692976
-0.757874
-0.858277
-0.991627
-1.10647
-0.821347
-0.735062
-1.23801
-0.540747
-0.510687
-0.490211
-0.480021
-0.480634
-0.492644
-0.516086
-0.546847
-0.573409
-0.595514
-0.617248
-0.65019
-0.708683
-0.798122
-0.911013
-0.832545
-0.680103
-0.836081
-1.13626
-0.60137
-0.561887
-0.533867
-0.517011
-0.510987
-0.515692
-0.5305
-0.550983
-0.571868
-0.590745
-0.612795
-0.642663
-0.690107
-0.757134
-0.844248
-0.749372
-0.628785
-1.04315
-1.03457
-0.654236
-0.60577
-0.570325
-0.546739
-0.534121
-0.531938
-0.539309
-0.552829
-0.570416
-0.594605
-0.624664
-0.65546
-0.687957
-0.73378
-0.777622
-0.743587
-0.843751
-0.950967
-0.936836
-0.696797
-0.640674
-0.598535
-0.568637
-0.549747
-0.541075
-0.541704
-0.548836
-0.558403
-0.587399
-0.629911
-0.659331
-0.682715
-0.704753
-0.716207
-0.695255
-0.786323
-0.846745
-0.844719
-0.727038
-0.665245
-0.617698
-0.582383
-0.557839
-0.54305
-0.537015
-0.537106
-0.541327
-0.569155
-0.612063
-0.639665
-0.653787
-0.651255
-0.598844
-0.631981
-0.715998
-0.757744
-0.763577
-0.743889
-0.678778
-0.627527
-0.588088
-0.55886
-0.538593
-0.526076
-0.519649
-0.514982
-0.53289
-0.563506
-0.58944
-0.592215
-0.540968
-0.543362
-0.57129
-0.658449
-0.685844
-0.694502
-0.747369
-0.681358
-0.628302
-0.586281
-0.553669
-0.529027
-0.510913
-0.497979
-0.489051
-0.485637
-0.498973
-0.515667
-0.487406
-0.482478
-0.505593
-0.585665
-0.603384
-0.626696
-0.634206
-0.738508
-0.673797
-0.620769
-0.577765
-0.543252
-0.515754
-0.493776
-0.475891
-0.46147
-0.442793
-0.434982
-0.445477
-0.439439
-0.461045
-0.523064
-0.544772
-0.549698
-0.573557
-0.579563
-0.719005
-0.657346
-0.605918
-0.563377
-0.528387
-0.499609
-0.47574
-0.455542
-0.437871
-0.418011
-0.395956
-0.395493
-0.422862
-0.462931
-0.488666
-0.494125
-0.508071
-0.525262
-0.529404
-0.690686
-0.633346
-0.584734
-0.543826
-0.509537
-0.480782
-0.456569
-0.435948
-0.417792
-0.400173
-0.374901
-0.369641
-0.389191
-0.414499
-0.432602
-0.446544
-0.472731
-0.478598
-0.482859
-0.655205
-0.603011
-0.558078
-0.519667
-0.486971
-0.459186
-0.435624
-0.415564
-0.39816
-0.382712
-0.370924
-0.357011
-0.354626
-0.374504
-0.393756
-0.424645
-0.431093
-0.435561
-0.4401
-0.613985
-0.567415
-0.526707
-0.491391
-0.460922
-0.434762
-0.41247
-0.3935
-0.377321
-0.363627
-0.353841
-0.35058
-0.354055
-0.360312
-0.379245
-0.386891
-0.392194
-0.396619
-0.401597
-0.568334
-0.52754
-0.49134
-0.459498
-0.431686
-0.40759
-0.386955
-0.369378
-0.35463
-0.342541
-0.334234
-0.33079
-0.332747
-0.341314
-0.347959
-0.351366
-0.356757
-0.361532
-0.365277
-0.519411
-0.484294
-0.452698
-0.424531
-0.399633
-0.377877
-0.359135
-0.343134
-0.329876
-0.319221
-0.31204
-0.308518
-0.309475
-0.314298
-0.317836
-0.318687
-0.323796
-0.328221
-0.330149
-0.4682
-0.438549
-0.411498
-0.38706
-0.365201
-0.34593
-0.329215
-0.314906
-0.303122
-0.293729
-0.287375
-0.283808
-0.283238
-0.280158
-0.283687
-0.288776
-0.292533
-0.294401
-0.295848
-0.415534
-0.391054
-0.368393
-0.347636
-0.328846
-0.312123
-0.297502
-0.284939
-0.274582
-0.266288
-0.260505
-0.256866
-0.253592
-0.243172
-0.247821
-0.258585
-0.259958
-0.261305
-0.262044
-0.362008
-0.342358
-0.323876
-0.306694
-0.290948
-0.276788
-0.264292
-0.253485
-0.244511
-0.237221
-0.231912
-0.228236
-0.223469
-0.212278
-0.223197
-0.22689
-0.227673
-0.228644
-0.228807
-0.307952
-0.292798
-0.278276
-0.264548
-0.251794
-0.240189
-0.229825
-0.220764
-0.213136
-0.206828
-0.202034
-0.198461
-0.194742
-0.185365
-0.194398
-0.195138
-0.195531
-0.196136
-0.196009
-0.253843
-0.242915
-0.232165
-0.221767
-0.211929
-0.202818
-0.194538
-0.187173
-0.180837
-0.175481
-0.171239
-0.167894
-0.165476
-0.164083
-0.163301
-0.163386
-0.163378
-0.163639
-0.163394
-0.200678
-0.193723
-0.186538
-0.179311
-0.172242
-0.165492
-0.159179
-0.153409
-0.148279
-0.143808
-0.140096
-0.13702
-0.134747
-0.133059
-0.132077
-0.131686
-0.131372
-0.131371
-0.13101
-0.148032
-0.144771
-0.140946
-0.13673
-0.132304
-0.127821
-0.123409
-0.119181
-0.115232
-0.111622
-0.108442
-0.105648
-0.103429
-0.101601
-0.100432
-0.0997381
-0.099233
-0.099058
-0.0985502
-0.0918305
-0.0921988
-0.0917396
-0.090573
-0.0888551
-0.0867308
-0.0843162
-0.0817259
-0.0790597
-0.0763798
-0.0738309
-0.0713242
-0.0692174
-0.0671789
-0.0658795
-0.0651007
-0.0645015
-0.0642592
-0.0634908
)
;

boundaryField
{
    leftWall
    {
        type            fixedFluxPressure;
        gradient        uniform 0;
        value           nonuniform List<scalar> 
50
(
879.116
879.307
879.893
879.862
879.132
878.266
877.446
876.303
778.459
545.948
527.921
592.005
507.53
366.446
367.488
322.216
406.741
671.76
723.821
771.093
819.526
868.306
916.393
963.121
886.29
493.791
743.037
940.469
985.953
1030.11
414.067
15.5145
14.6221
57.274
560.886
675.811
703.008
720.068
599.52
43.8137
1.80483
-0.321147
-0.656681
-0.587371
-0.425985
-0.207217
-0.0460302
0.023398
0.0353771
0.0135953
)
;
    }
    rightWall
    {
        type            fixedFluxPressure;
        gradient        uniform 0;
        value           nonuniform List<scalar> 
50
(
338.642
329.293
347.77
370.981
374.589
219.025
148.866
143.801
129.552
115.055
110.867
120.388
130.823
134.593
131.911
92.544
41.9232
13.0733
1.25436
-2.21314
-1.00785
-0.577172
-0.827421
-1.0219
-1.56165
-1.50342
-1.36013
-1.23801
-1.13626
-1.03457
-0.936836
-0.844719
-0.763577
-0.694502
-0.634206
-0.579563
-0.529404
-0.482859
-0.4401
-0.401597
-0.365277
-0.330149
-0.295848
-0.262044
-0.228807
-0.196009
-0.163394
-0.13101
-0.0985502
-0.0634908
)
;
    }
    lowerWall
    {
        type            fixedFluxPressure;
        gradient        uniform 0;
        value           nonuniform List<scalar> 
62
(
879.116
877.509
877.532
878.608
880.572
883.997
884.638
879.317
873.532
868.329
865.891
868.416
879.61
899.411
926.914
960.515
993.721
1023.59
1048.73
1064.55
1070.17
1068.33
1062.54
1062.54
1060.02
1055.64
1049.74
1042.09
1031.97
1019.67
1003.89
915.908
901.017
889.612
866.259
792.879
796.231
800.806
804.743
808.064
819.294
832.415
844.74
792.879
764.086
746.756
771.039
752.251
661.245
602.054
560.262
478.721
408.58
413.011
455.347
434.836
368.689
319.057
299.19
300.637
310.629
338.642
)
;
    }
    atmosphere
    {
        type            totalPressure;
        rho             rho;
        psi             none;
        gamma           1;
        p0              uniform 0;
        value           nonuniform List<scalar> 
46
(
0
0
0
0
0
0
0
0
0
0
0
0
0
0
-0.00196955
-0.00728785
-0.0140317
-0.0210932
-0.0278928
-0.0341711
-0.0398436
-0.0449352
-0.0495007
-0.0525386
-0.0543962
-0.0561385
-0.0577354
-0.060027
-0.0622916
-0.0636229
-0.0641047
-0.0638909
-0.0630899
-0.0618137
-0.0601724
-0.0582732
-0.0561359
-0.054039
-0.0516389
-0.0497376
-0.047398
-0.0461187
-0.0454617
-0.0448513
-0.044735
-0.0435837
)
;
    }
    defaultFaces
    {
        type            empty;
    }
}


// ************************************************************************* //
