# vtk DataFile Version 2.0
gauge_2
ASCII
DATASET POLYDATA
POINTS 43 double
0.2 0.0359992 0.005
0.2 0.0419991 0.005
0.2 0.047999 0.005
0.2 0.0607609 0.005
0.2 0.0735228 0.005
0.2 0.0862847 0.005
0.2 0.0990467 0.005
0.2 0.111809 0.005
0.2 0.124571 0.005
0.2 0.137332 0.005
0.2 0.150094 0.005
0.2 0.162856 0.005
0.2 0.175618 0.005
0.2 0.18838 0.005
0.2 0.201142 0.005
0.2 0.213904 0.005
0.2 0.226666 0.005
0.2 0.239428 0.005
0.2 0.25219 0.005
0.2 0.264952 0.005
0.2 0.277714 0.005
0.2 0.290476 0.005
0.2 0.303238 0.005
0.2 0.315999 0.005
0.2 0.328761 0.005
0.2 0.341523 0.005
0.2 0.354285 0.005
0.2 0.367047 0.005
0.2 0.379809 0.005
0.2 0.392571 0.005
0.2 0.405333 0.005
0.2 0.418095 0.005
0.2 0.430857 0.005
0.2 0.443619 0.005
0.2 0.456381 0.005
0.2 0.469143 0.005
0.2 0.481905 0.005
0.2 0.494666 0.005
0.2 0.507428 0.005
0.2 0.52019 0.005
0.2 0.532952 0.005
0.2 0.545714 0.005
0.2 0.558476 0.005
POINT_DATA 43
 FIELD attributes 1
alpha.water 1 43 float
0.999999 0.999999 0.818714 0.483719 0.444241 0.316974 0.09958 0.0274115 0.034611 0.0222224 0.00184627 0.000704516 0.000673801 0.000219193 1.65838e-08 2.5488e-08 1.09901e-07 7.69001e-07 1.50898e-05 0.000174469 0.000388596 0.000405543 0.000268719 0.000227125 0.000376323 0.000480839 0.000476649 0.000432111 0.000213992 1.86055e-05 3.89089e-11 2.18604e-10 4.29968e-10 2.72997e-10 3.62349e-11 2.16907e-11 1.84933e-11 1.11867e-11 3.77701e-12 6.66732e-13 7.52556e-14 6.22034e-15 3.44663e-16
