/*--------------------------------*- C++ -*----------------------------------*\
| =========                 |                                                 |
| \\      /  F ield         | OpenFOAM: The Open Source CFD Toolbox           |
|  \\    /   O peration     | Version:  2012                                  |
|   \\  /    A nd           | Website:  www.openfoam.com                      |
|    \\/     M anipulation  |                                                 |
\*---------------------------------------------------------------------------*/
FoamFile
{
    version     2.0;
    format      ascii;
    class       volScalarField;
    location    "0.05";
    object      minKappa;
}
// * * * * * * * * * * * * * * * * * * * * * * * * * * * * * * * * * * * * * //

dimensions      [0 0 0 0 0 0 0];


internalField   nonuniform List<scalar> 
2268
(
1.78722e-07
3.79383e-07
6.3717e-07
8.74194e-07
1.16111e-06
1.43308e-06
1.76005e-06
2.10057e-06
2.49517e-06
2.96325e-06
3.49539e-06
4.2291e-06
5.18675e-06
1.64099e-05
9.55186e-05
0.000190474
0.000167751
0.000131597
9.22878e-05
6.59959e-05
4.56677e-05
2.84685e-05
1.27493e-05
1.78722e-07
3.79383e-07
6.3717e-07
8.74194e-07
1.16111e-06
1.43308e-06
1.76005e-06
2.10057e-06
2.49517e-06
2.95697e-06
3.49155e-06
4.1896e-06
5.03676e-06
2.07902e-05
0.000120138
0.000182728
0.000149906
0.000117099
8.82578e-05
6.53281e-05
4.56677e-05
2.84685e-05
1.27493e-05
2.65108e-07
4.27275e-07
6.67253e-07
8.95758e-07
1.17793e-06
1.44488e-06
1.77055e-06
2.10507e-06
2.49943e-06
2.94728e-06
3.47912e-06
4.14178e-06
5.03676e-06
2.49057e-05
0.000149977
0.000158028
0.000126955
0.000104065
8.47125e-05
6.49312e-05
4.70727e-05
3.15772e-05
1.91134e-05
3.67544e-07
4.9689e-07
7.14248e-07
9.30352e-07
1.20515e-06
1.46418e-06
1.78781e-06
2.11216e-06
2.50667e-06
2.93519e-06
3.45844e-06
4.08459e-06
5.44763e-06
3.95777e-05
0.000149871
0.000136974
0.0001043
9.64399e-05
8.21182e-05
6.49312e-05
4.9239e-05
3.62188e-05
2.68291e-05
4.74403e-07
5.79864e-07
7.74511e-07
9.76163e-07
1.24155e-06
1.49043e-06
1.811e-06
2.12178e-06
2.51639e-06
2.92226e-06
3.43318e-06
4.01914e-06
9.05884e-06
6.63671e-05
0.000139394
0.000119856
9.0348e-05
9.1961e-05
7.95514e-05
6.56547e-05
5.22551e-05
4.17399e-05
3.45731e-05
5.82208e-07
6.70479e-07
8.44553e-07
1.03126e-06
1.2858e-06
1.52319e-06
1.8392e-06
2.13476e-06
2.52823e-06
2.90779e-06
3.40422e-06
3.94231e-06
1.31155e-05
8.4686e-05
0.000127792
0.000101859
8.50452e-05
8.8076e-05
7.76987e-05
6.65142e-05
5.54588e-05
4.78558e-05
4.32494e-05
6.89451e-07
7.6507e-07
9.21263e-07
1.09356e-06
1.33624e-06
1.56151e-06
1.87099e-06
2.15083e-06
2.54017e-06
2.8934e-06
3.3743e-06
3.85917e-06
1.40568e-05
9.6922e-05
0.000115378
8.40709e-05
8.44559e-05
8.45015e-05
7.6395e-05
6.74934e-05
5.90403e-05
5.41106e-05
5.10835e-05
7.95375e-07
8.61411e-07
1.00225e-06
1.16118e-06
1.3914e-06
1.60454e-06
1.90542e-06
2.16998e-06
2.55167e-06
2.8934e-06
3.3743e-06
3.85917e-06
1.47893e-05
0.000100064
0.000115378
8.40709e-05
8.44559e-05
8.45015e-05
7.6395e-05
6.83805e-05
6.26088e-05
6.1564e-05
6.19314e-05
2.27246e-06
6.20504e-06
8.75289e-06
1.00809e-05
1.10406e-05
1.08387e-05
1.06972e-05
9.94887e-06
9.29698e-06
8.3902e-06
7.55081e-06
6.62263e-06
5.73548e-06
4.82671e-06
3.94381e-06
3.063e-06
2.20119e-06
1.35641e-06
5.83805e-07
2.27246e-06
6.20504e-06
8.75289e-06
1.00809e-05
1.10406e-05
1.08387e-05
1.06972e-05
9.94887e-06
9.29698e-06
8.3902e-06
7.55081e-06
6.62263e-06
5.73548e-06
4.82671e-06
3.94381e-06
3.063e-06
2.20119e-06
1.35641e-06
5.83805e-07
3.35488e-06
6.96444e-06
9.20082e-06
1.03681e-05
1.12448e-05
1.09627e-05
1.07833e-05
1.00059e-05
9.34235e-06
8.42745e-06
7.58568e-06
6.65749e-06
5.77317e-06
4.8696e-06
3.99521e-06
3.12819e-06
2.29049e-06
1.49579e-06
8.55882e-07
5.06202e-06
8.15544e-06
9.91645e-06
1.07717e-05
1.15419e-05
1.11353e-05
1.09134e-05
1.00934e-05
9.41382e-06
8.48737e-06
7.64253e-06
6.71475e-06
5.8352e-06
4.94012e-06
4.07931e-06
3.23383e-06
2.43201e-06
1.70364e-06
1.18276e-06
6.42338e-06
9.80412e-06
1.09597e-05
1.14114e-05
1.19923e-05
1.14014e-05
1.11069e-05
1.02225e-05
9.51657e-06
8.5724e-06
7.72229e-06
6.79456e-06
5.9211e-06
5.03723e-06
4.19415e-06
3.37602e-06
2.61716e-06
1.95824e-06
1.52769e-06
8.69056e-06
1.17563e-05
1.22789e-05
1.21277e-05
1.25154e-05
1.17052e-05
1.1333e-05
1.03769e-05
9.6416e-06
8.67782e-06
7.82206e-06
6.89509e-06
6.02924e-06
5.15907e-06
4.33695e-06
3.55007e-06
2.83708e-06
2.24323e-06
1.87968e-06
1.02763e-05
1.45187e-05
1.40321e-05
1.31047e-05
1.31898e-05
1.21019e-05
1.16152e-05
1.05705e-05
9.7956e-06
8.80716e-06
7.94329e-06
7.01663e-06
6.15895e-06
5.3041e-06
4.505e-06
3.75133e-06
3.08397e-06
2.54782e-06
2.23461e-06
1.60178e-05
1.76928e-05
1.62691e-05
1.4102e-05
1.38993e-05
1.25196e-05
1.19132e-05
1.07816e-05
9.96525e-06
8.95312e-06
8.08119e-06
7.15608e-06
6.30767e-06
5.46972e-06
4.695e-06
3.97512e-06
3.35125e-06
2.86499e-06
2.59044e-06
1.40638e-06
1.49835e-06
1.69845e-06
1.92865e-06
2.26898e-06
2.58473e-06
3.03884e-06
3.4318e-06
4.01152e-06
4.51089e-06
5.2371e-06
5.91462e-06
1.56615e-05
0.000114713
0.000158047
0.000110727
0.000132281
0.000126884
0.000117885
0.000107624
0.000103361
0.000107823
0.000121497
2.36807e-06
2.4698e-06
2.69495e-06
2.9644e-06
3.30798e-06
3.67741e-06
4.12138e-06
4.6144e-06
5.18472e-06
5.80212e-06
6.50248e-06
7.2456e-06
1.65471e-05
0.000124673
0.000129566
0.000122601
0.000144086
0.00014675
0.000143161
0.000134894
0.000134954
0.000129036
0.000108786
2.7959e-06
2.88131e-06
3.06922e-06
3.30398e-06
3.61631e-06
3.94268e-06
4.33622e-06
4.77741e-06
5.28703e-06
5.8312e-06
6.44652e-06
7.07918e-06
1.71395e-05
0.000130945
9.59863e-05
0.000116665
0.000139453
0.00013748
0.000136259
0.000127331
0.000127068
0.000118601
9.51792e-05
3.19353e-06
3.26722e-06
3.42574e-06
3.63322e-06
3.91445e-06
4.20316e-06
4.55071e-06
4.94442e-06
5.39725e-06
5.87647e-06
6.41591e-06
6.96173e-06
1.7595e-05
0.000124216
7.40444e-05
0.00010491
0.000134806
0.000129856
0.000126546
0.000119671
0.000115903
0.000109133
7.88583e-05
3.55912e-06
3.62375e-06
3.75846e-06
3.94349e-06
4.19109e-06
4.44657e-06
4.75295e-06
5.10273e-06
5.50254e-06
5.9242e-06
6.39495e-06
6.86962e-06
1.79207e-05
0.000112987
6.39277e-05
9.69495e-05
0.000127722
0.000123722
0.000119733
0.000113326
0.000109474
0.000102286
7.21375e-05
3.89256e-06
3.94982e-06
4.06506e-06
4.23095e-06
4.44992e-06
4.67642e-06
4.94656e-06
5.25663e-06
5.60887e-06
5.98085e-06
6.39153e-06
6.80757e-06
1.81793e-05
0.000108824
6.39277e-05
9.4207e-05
0.000120288
0.000117699
0.000112301
0.000106955
0.000101116
9.48979e-05
6.5265e-05
4.1928e-06
4.24381e-06
4.34287e-06
4.49195e-06
4.67945e-06
4.88031e-06
5.11851e-06
5.3935e-06
5.70383e-06
6.03337e-06
6.39245e-06
6.76042e-06
1.83932e-05
0.000109332
6.4648e-05
9.56912e-05
0.000114414
0.000112604
0.000107067
0.000102104
9.63823e-05
9.03952e-05
6.18345e-05
4.46298e-06
4.50862e-06
4.59433e-06
4.72855e-06
4.89396e-06
5.07349e-06
5.28393e-06
5.52791e-06
5.80083e-06
6.09275e-06
6.40608e-06
6.73119e-06
1.85832e-05
0.0001111
7.10264e-05
9.84186e-05
0.000109784
0.00010762
0.000101842
9.67637e-05
9.09083e-05
8.51362e-05
5.82228e-05
4.70043e-06
4.74132e-06
4.81573e-06
4.93664e-06
5.07159e-06
5.2306e-06
5.41689e-06
5.63453e-06
5.87611e-06
6.138e-06
6.41509e-06
6.708e-06
1.8753e-05
0.000112997
7.91163e-05
0.000101527
0.000106017
0.000103976
9.82112e-05
9.32756e-05
8.7566e-05
8.20355e-05
5.61019e-05
4.91258e-06
4.94941e-06
5.01459e-06
5.12389e-06
5.24871e-06
5.392e-06
5.55765e-06
5.7519e-06
5.96477e-06
6.19766e-06
6.4397e-06
6.69849e-06
1.89085e-05
0.000112961
8.67737e-05
0.00010413
0.000103253
0.000100305
9.43324e-05
8.94691e-05
8.38505e-05
7.85858e-05
5.38352e-05
5.09203e-06
5.12527e-06
5.18252e-06
5.27266e-06
5.36987e-06
5.49766e-06
5.64533e-06
5.8207e-06
6.01138e-06
6.2248e-06
6.44385e-06
6.68486e-06
1.90461e-05
0.000111838
9.39366e-05
0.000105684
0.000101003
9.75299e-05
9.19375e-05
8.70157e-05
8.15765e-05
7.64073e-05
5.23979e-05
5.2523e-06
5.28255e-06
5.33346e-06
5.4238e-06
5.52009e-06
5.6366e-06
5.76979e-06
5.92816e-06
6.09745e-06
6.28761e-06
6.47835e-06
6.68872e-06
1.91836e-05
0.000105759
9.97653e-05
0.000105629
9.866e-05
9.44217e-05
8.87809e-05
8.39832e-05
7.87526e-05
7.3822e-05
5.07258e-05
5.37981e-06
5.40738e-06
5.44242e-06
5.50232e-06
5.58088e-06
5.68561e-06
5.80493e-06
5.95037e-06
6.10526e-06
6.28584e-06
6.46617e-06
6.6754e-06
1.93001e-05
8.03334e-05
0.000101131
0.000101434
9.73756e-05
9.26229e-05
8.77533e-05
8.24942e-05
7.73827e-05
7.23159e-05
4.96982e-05
5.49378e-06
5.51908e-06
5.55985e-06
5.63597e-06
5.71206e-06
5.81022e-06
5.92141e-06
6.05568e-06
6.19631e-06
6.35897e-06
6.51647e-06
6.69251e-06
1.94665e-05
6.60735e-05
8.23653e-05
9.91118e-05
9.4182e-05
8.93666e-05
8.45921e-05
7.97076e-05
7.49187e-05
7.013e-05
4.82851e-05
5.56909e-06
5.56909e-06
5.59826e-06
5.65034e-06
5.71782e-06
5.80864e-06
5.91057e-06
6.03686e-06
6.1678e-06
6.32504e-06
6.47486e-06
6.65849e-06
1.9606e-05
3.75121e-05
9.02847e-05
9.41168e-05
9.59884e-05
9.00086e-05
8.53056e-05
7.94283e-05
7.4321e-05
6.91297e-05
4.74892e-05
5.64937e-06
5.67155e-06
5.70607e-06
5.77223e-06
5.83583e-06
5.92149e-06
6.01755e-06
6.13553e-06
6.25614e-06
6.39748e-06
6.52714e-06
6.6671e-06
2.01763e-05
3.75121e-05
5.28234e-05
9.33819e-05
9.15317e-05
8.66178e-05
8.20492e-05
7.68057e-05
7.20557e-05
6.71716e-05
4.61903e-05
5.68616e-06
5.68616e-06
5.71352e-06
5.7625e-06
5.82602e-06
5.91201e-06
6.00907e-06
6.12999e-06
6.25648e-06
6.40949e-06
6.57083e-06
7.14126e-06
2.36467e-05
4.01204e-05
9.17989e-05
0.000100194
9.92675e-05
9.12212e-05
8.43162e-05
7.7435e-05
7.16555e-05
6.62515e-05
4.53447e-05
7.85768e-06
7.90437e-06
7.98187e-06
8.12565e-06
8.27482e-06
8.52304e-06
8.72937e-06
9.09938e-06
9.3383e-06
9.90385e-06
1.05028e-05
1.54972e-05
7.66844e-05
7.01062e-05
8.14905e-05
9.45068e-05
9.53191e-05
8.85728e-05
8.24291e-05
7.57401e-05
7.00111e-05
6.45937e-05
4.41416e-05
4.22556e-05
4.26036e-05
4.31856e-05
4.42371e-05
4.5358e-05
4.71747e-05
4.87323e-05
5.14326e-05
5.3306e-05
5.78505e-05
6.40366e-05
9.06934e-05
0.000143005
0.000104633
9.56846e-05
0.000122729
0.000108494
9.34178e-05
8.298e-05
7.47078e-05
6.82425e-05
6.27524e-05
4.27917e-05
0.000105978
0.000106535
0.000107569
0.000109277
0.000111569
0.000114537
0.000118729
0.000123135
0.000130914
0.000138658
0.000154724
0.000187436
0.000186157
0.000163633
0.000168621
0.000154478
0.000121757
9.94106e-05
8.56162e-05
7.50142e-05
6.75943e-05
6.14316e-05
4.16592e-05
9.84461e-05
9.84461e-05
9.90955e-05
0.000100197
0.000101857
0.000104008
0.000107138
0.000110825
0.000116824
0.000123384
0.00013656
0.000153656
0.000200969
0.000197756
0.00015462
0.000121316
0.000100739
8.62283e-05
7.63759e-05
6.86169e-05
6.2621e-05
5.76446e-05
3.93942e-05
9.40906e-05
9.44472e-05
9.5172e-05
9.62341e-05
9.79088e-05
9.96455e-05
0.000102896
0.000105201
0.00011165
0.000114395
0.000127076
0.000130238
0.000152224
0.000153637
0.000127904
0.000111939
9.67072e-05
8.3938e-05
7.51135e-05
6.70606e-05
6.11286e-05
5.59513e-05
3.80799e-05
8.7628e-05
8.76777e-05
8.80942e-05
8.87719e-05
8.98461e-05
9.11494e-05
9.31826e-05
9.52907e-05
9.9116e-05
0.00010079
0.000109855
0.00010933
0.000121839
0.000121005
0.000102913
9.4978e-05
8.25403e-05
7.36326e-05
6.62602e-05
6.03097e-05
5.54733e-05
5.14299e-05
3.53565e-05
8.23039e-05
8.24861e-05
8.2877e-05
8.3389e-05
8.43185e-05
8.50234e-05
8.68588e-05
8.73816e-05
9.08157e-05
9.03101e-05
9.57594e-05
9.37807e-05
9.78397e-05
9.57897e-05
8.6794e-05
8.19435e-05
7.28402e-05
6.7369e-05
6.11804e-05
5.6449e-05
5.21544e-05
4.85828e-05
3.36225e-05
7.62829e-05
7.63849e-05
7.66066e-05
7.68721e-05
7.74263e-05
7.77043e-05
7.88708e-05
7.88051e-05
8.10834e-05
8.00517e-05
8.34437e-05
8.13235e-05
8.34112e-05
8.11173e-05
7.46443e-05
7.0704e-05
6.37885e-05
5.99061e-05
5.4761e-05
5.12115e-05
4.75896e-05
4.47351e-05
3.10361e-05
7.138e-05
7.14229e-05
7.15155e-05
7.16039e-05
7.18645e-05
7.18504e-05
7.24505e-05
7.2005e-05
7.31715e-05
7.18292e-05
7.32658e-05
7.11125e-05
7.08268e-05
6.84304e-05
6.44123e-05
6.13067e-05
5.64575e-05
5.34334e-05
4.93338e-05
4.65402e-05
4.35077e-05
4.11826e-05
2.90317e-05
6.6099e-05
6.60858e-05
6.60541e-05
6.59806e-05
6.59723e-05
6.5719e-05
6.58602e-05
6.51867e-05
6.5616e-05
6.42281e-05
6.46711e-05
6.2688e-05
6.20024e-05
5.97612e-05
5.65977e-05
5.38403e-05
5.00598e-05
4.75078e-05
4.42138e-05
4.19713e-05
3.94823e-05
3.76198e-05
2.66945e-05
6.17851e-05
6.17293e-05
6.16024e-05
6.14057e-05
6.11868e-05
6.07494e-05
6.0511e-05
5.96477e-05
5.9445e-05
5.79672e-05
5.75725e-05
5.55787e-05
5.42861e-05
5.2056e-05
4.95924e-05
4.72002e-05
4.43795e-05
4.22267e-05
3.9657e-05
3.7813e-05
3.58043e-05
3.42977e-05
2.46581e-05
5.73684e-05
5.72738e-05
5.7065e-05
5.67602e-05
5.6369e-05
5.57856e-05
5.52664e-05
5.42866e-05
5.3682e-05
5.22041e-05
5.13913e-05
4.95328e-05
4.81582e-05
4.61136e-05
4.39667e-05
4.18299e-05
3.94822e-05
3.75748e-05
3.54786e-05
3.39197e-05
3.23008e-05
3.10895e-05
2.25547e-05
5.37197e-05
5.35955e-05
5.33242e-05
5.29368e-05
5.24122e-05
5.17142e-05
5.09735e-05
4.98894e-05
4.89647e-05
4.7442e-05
4.6274e-05
4.44057e-05
4.28271e-05
4.08236e-05
3.88916e-05
3.6947e-05
3.49965e-05
3.33285e-05
3.16336e-05
3.03239e-05
2.90397e-05
2.80791e-05
2.0619e-05
5.01612e-05
5.00101e-05
4.9687e-05
4.92255e-05
4.85955e-05
4.77985e-05
4.68972e-05
4.57302e-05
4.46006e-05
4.30598e-05
4.17074e-05
3.99067e-05
3.83016e-05
3.64143e-05
3.46093e-05
3.28086e-05
3.10743e-05
2.95625e-05
2.81239e-05
2.69972e-05
2.59697e-05
2.52183e-05
1.87232e-05
4.71915e-05
4.70202e-05
4.66579e-05
4.61406e-05
4.54306e-05
4.45573e-05
4.35324e-05
4.22946e-05
4.10019e-05
3.9422e-05
3.79021e-05
3.60824e-05
3.43766e-05
3.25067e-05
3.0755e-05
2.90419e-05
2.74634e-05
2.60839e-05
2.48507e-05
2.38882e-05
2.30789e-05
2.25171e-05
1.69388e-05
4.4421e-05
4.4231e-05
4.38353e-05
4.32661e-05
4.24907e-05
4.1546e-05
4.0427e-05
3.91216e-05
3.7717e-05
3.60992e-05
3.44824e-05
3.26709e-05
3.09326e-05
2.91012e-05
2.73812e-05
2.57247e-05
2.42294e-05
2.29323e-05
2.18308e-05
2.09915e-05
2.03523e-05
1.99553e-05
1.52275e-05
4.21069e-05
4.19033e-05
4.14832e-05
4.08755e-05
4.00514e-05
3.90522e-05
3.7861e-05
3.64991e-05
3.5003e-05
3.3339e-05
3.16242e-05
2.97746e-05
2.79592e-05
2.61046e-05
2.43626e-05
2.27152e-05
2.12539e-05
2.00066e-05
1.89967e-05
1.82608e-05
1.77671e-05
1.75253e-05
1.36029e-05
4.00348e-05
3.98179e-05
3.93751e-05
3.87305e-05
3.78631e-05
3.68111e-05
3.55596e-05
3.41408e-05
3.25735e-05
3.08613e-05
2.90768e-05
2.7194e-05
2.53254e-05
2.34457e-05
2.16695e-05
2.00042e-05
1.85365e-05
1.73011e-05
1.63391e-05
1.56789e-05
1.5306e-05
1.52094e-05
1.20645e-05
3.83391e-05
3.81128e-05
3.76539e-05
3.69822e-05
3.60826e-05
3.49826e-05
3.36314e-05
3.21192e-05
3.04602e-05
2.86884e-05
2.68286e-05
2.49245e-05
2.30204e-05
2.11444e-05
1.92947e-05
1.75691e-05
1.60496e-05
1.47852e-05
1.38325e-05
1.3225e-05
1.29594e-05
1.30094e-05
1.05952e-05
3.68864e-05
3.66506e-05
3.61754e-05
3.54775e-05
3.4548e-05
3.33601e-05
3.19571e-05
3.03867e-05
2.86683e-05
2.68349e-05
2.49149e-05
2.29501e-05
2.09822e-05
1.90608e-05
1.71902e-05
1.53773e-05
1.37688e-05
1.24325e-05
1.14469e-05
1.08658e-05
1.0699e-05
1.0905e-05
9.23923e-06
3.57677e-05
3.55201e-05
3.49243e-05
3.40999e-05
3.30584e-05
3.18112e-05
3.03736e-05
2.87648e-05
2.70051e-05
2.51235e-05
2.31483e-05
2.11186e-05
1.90746e-05
1.70669e-05
1.51533e-05
1.34007e-05
1.1732e-05
1.02677e-05
9.19245e-06
8.60278e-06
8.53361e-06
8.922e-06
7.94008e-06
3.48758e-05
3.46271e-05
3.41018e-05
3.32642e-05
3.22015e-05
3.09248e-05
2.94498e-05
2.77956e-05
2.59836e-05
2.40416e-05
2.19979e-05
1.98883e-05
1.77507e-05
1.56311e-05
1.35836e-05
1.16759e-05
9.94563e-06
8.2904e-06
7.04492e-06
6.39179e-06
6.4342e-06
7.06114e-06
6.82291e-06
3.40996e-05
3.37201e-05
3.30958e-05
3.22347e-05
3.11487e-05
2.98498e-05
2.83534e-05
2.66774e-05
2.48424e-05
2.28728e-05
2.0795e-05
1.86404e-05
1.64419e-05
1.4239e-05
1.20775e-05
1.00173e-05
8.14482e-06
6.59775e-06
5.07286e-06
4.24882e-06
4.44793e-06
5.42371e-06
5.7888e-06
3.38817e-05
3.35532e-05
3.29294e-05
3.20635e-05
3.09648e-05
2.96441e-05
2.81174e-05
2.64028e-05
2.45214e-05
2.24976e-05
2.03575e-05
1.81304e-05
1.58461e-05
1.35382e-05
1.12426e-05
9.00391e-06
6.88666e-06
5.01728e-06
3.47361e-06
2.15224e-06
2.69478e-06
4.09392e-06
5.09226e-06
3.32551e-05
3.28781e-05
3.22543e-05
3.13895e-05
3.02943e-05
2.89805e-05
2.74635e-05
2.57606e-05
2.3892e-05
2.18806e-05
1.97506e-05
1.75286e-05
1.52412e-05
1.29166e-05
1.05817e-05
8.26444e-06
5.99299e-06
3.8091e-06
1.90439e-06
1.45969e-06
1.45969e-06
2.74762e-06
4.52415e-06
6.07182e-05
4.6165e-05
4.52764e-05
4.52764e-05
6.56306e-05
6.06123e-05
5.55118e-05
5.55118e-05
5.69254e-05
5.10976e-05
4.60117e-05
4.60117e-05
4.85494e-05
4.57348e-05
4.28495e-05
4.28495e-05
4.41582e-05
4.14816e-05
3.89187e-05
3.89187e-05
4.02568e-05
3.83866e-05
3.65472e-05
3.65472e-05
3.81056e-05
3.63779e-05
3.47029e-05
3.47029e-05
3.59961e-05
3.45537e-05
3.31536e-05
3.31536e-05
3.47105e-05
3.33709e-05
3.20738e-05
3.20738e-05
3.33681e-05
3.21629e-05
3.09983e-05
3.09983e-05
3.24966e-05
3.13548e-05
3.0252e-05
3.0252e-05
3.14963e-05
3.04388e-05
2.94155e-05
2.94155e-05
3.08523e-05
2.98263e-05
2.88335e-05
2.88335e-05
3.00017e-05
2.90378e-05
2.81017e-05
2.81017e-05
2.94753e-05
2.85143e-05
2.75845e-05
2.75845e-05
2.86857e-05
2.77682e-05
2.6881e-05
2.6881e-05
2.81197e-05
2.71947e-05
2.63093e-05
2.63093e-05
2.73608e-05
2.64546e-05
2.55916e-05
2.55916e-05
2.65208e-05
2.56427e-05
2.48125e-05
2.48125e-05
2.57651e-05
2.48826e-05
2.40557e-05
2.40557e-05
2.44519e-05
2.36805e-05
2.29539e-05
2.29539e-05
2.36001e-05
2.28324e-05
2.21162e-05
2.21162e-05
2.20139e-05
2.13845e-05
2.07943e-05
2.07943e-05
2.09475e-05
2.03613e-05
1.98126e-05
1.98126e-05
1.94082e-05
1.89304e-05
1.84842e-05
1.84842e-05
1.81916e-05
1.77772e-05
1.73905e-05
1.73905e-05
1.67779e-05
1.64446e-05
1.61358e-05
1.61358e-05
1.5538e-05
1.52678e-05
1.50184e-05
1.50184e-05
1.42513e-05
1.40434e-05
1.38541e-05
1.38541e-05
1.30661e-05
1.29134e-05
1.27767e-05
1.27767e-05
1.18985e-05
1.17954e-05
1.17072e-05
1.17072e-05
1.08008e-05
1.07448e-05
1.07022e-05
1.07022e-05
9.74408e-06
9.73035e-06
9.7296e-06
9.7296e-06
8.74306e-06
8.74306e-06
8.7711e-06
8.81138e-06
7.7949e-06
7.7949e-06
7.86287e-06
7.94294e-06
6.89269e-06
6.89269e-06
7.00145e-06
7.12156e-06
6.06465e-06
6.06465e-06
6.21575e-06
6.37744e-06
5.27661e-06
5.27661e-06
5.47194e-06
5.6757e-06
4.61049e-06
4.61049e-06
4.85391e-06
5.10262e-06
4.0002e-06
4.0002e-06
4.29047e-06
4.58046e-06
3.60621e-06
3.60621e-06
3.94087e-06
4.26901e-06
3.32043e-06
3.32043e-06
3.67767e-06
4.02325e-06
4.68468e-05
3.51079e-05
3.0185e-05
2.41387e-05
2.30488e-05
2.03556e-05
1.9165e-05
1.72451e-05
1.58893e-05
1.42652e-05
1.28851e-05
1.14404e-05
1.01281e-05
8.84518e-06
7.67215e-06
6.59789e-06
5.68443e-06
4.98949e-06
4.60637e-06
8.52239e-05
6.1284e-05
4.98567e-05
3.8602e-05
3.48525e-05
3.00337e-05
2.76661e-05
2.4675e-05
2.25905e-05
2.02765e-05
1.83495e-05
1.63963e-05
1.46538e-05
1.29897e-05
1.15014e-05
1.01772e-05
9.08849e-06
8.29178e-06
7.86728e-06
6.99494e-05
6.1284e-05
5.14035e-05
4.12546e-05
3.69096e-05
3.18886e-05
2.90604e-05
2.58909e-05
2.36124e-05
2.12369e-05
1.92669e-05
1.73353e-05
1.5635e-05
1.40503e-05
1.26604e-05
1.14554e-05
1.04904e-05
9.80396e-06
9.4461e-06
6.69158e-05
6.1385e-05
5.26219e-05
4.37263e-05
3.87548e-05
3.36793e-05
3.04354e-05
2.7145e-05
2.46885e-05
2.22722e-05
2.02635e-05
1.8359e-05
1.66989e-05
1.51881e-05
1.38842e-05
1.27785e-05
1.19102e-05
1.13048e-05
1.09934e-05
6.09589e-05
6.043e-05
5.23458e-05
4.49543e-05
3.97981e-05
3.49547e-05
3.15258e-05
2.82592e-05
2.57086e-05
2.33052e-05
2.12846e-05
1.94217e-05
1.78058e-05
1.6365e-05
1.51365e-05
1.41135e-05
1.33215e-05
1.27772e-05
1.24997e-05
5.80207e-05
5.94276e-05
5.20354e-05
4.57579e-05
4.06071e-05
3.60687e-05
3.25334e-05
2.93304e-05
2.67195e-05
2.43445e-05
2.23238e-05
2.05049e-05
1.8932e-05
1.75544e-05
1.63908e-05
1.5436e-05
1.47048e-05
1.42075e-05
1.39556e-05
5.52716e-05
5.8127e-05
5.15024e-05
4.61735e-05
4.11515e-05
3.68949e-05
3.33622e-05
3.02631e-05
2.76516e-05
2.53318e-05
2.33359e-05
2.157e-05
2.00447e-05
1.8727e-05
1.76217e-05
1.6725e-05
1.60435e-05
1.55837e-05
1.53519e-05
5.31517e-05
5.69984e-05
5.10439e-05
4.62341e-05
4.15058e-05
3.75335e-05
3.40775e-05
3.10985e-05
2.85228e-05
2.62689e-05
2.4312e-05
2.26018e-05
2.11259e-05
1.9864e-05
1.88111e-05
1.79642e-05
1.73244e-05
1.68953e-05
1.66796e-05
5.15442e-05
5.58696e-05
5.0484e-05
4.60412e-05
4.17492e-05
3.80086e-05
3.4673e-05
3.18168e-05
2.93078e-05
2.71298e-05
2.52272e-05
2.35773e-05
2.21542e-05
2.09461e-05
1.99421e-05
1.91396e-05
1.8536e-05
1.81328e-05
1.79307e-05
4.99832e-05
5.48516e-05
4.99421e-05
4.57867e-05
4.18542e-05
3.83372e-05
3.51526e-05
3.24252e-05
3.00042e-05
2.79088e-05
2.60708e-05
2.44836e-05
2.31156e-05
2.19598e-05
2.10021e-05
2.02401e-05
1.96687e-05
1.92882e-05
1.90978e-05
4.8853e-05
5.38671e-05
4.93423e-05
4.54432e-05
4.17937e-05
3.85544e-05
3.55292e-05
3.29273e-05
3.06062e-05
2.8597e-05
2.68309e-05
2.53089e-05
2.3998e-05
2.28937e-05
2.19808e-05
2.12565e-05
2.07147e-05
2.03548e-05
2.01748e-05
4.75957e-05
5.29271e-05
4.87226e-05
4.50459e-05
4.16299e-05
3.86552e-05
3.57943e-05
3.33198e-05
3.11069e-05
2.91877e-05
2.7499e-05
2.60443e-05
2.47922e-05
2.37391e-05
2.28701e-05
2.21818e-05
2.1668e-05
2.13271e-05
2.11568e-05
4.66869e-05
5.19907e-05
4.80506e-05
4.4575e-05
4.13704e-05
3.85638e-05
3.59596e-05
3.36092e-05
3.1507e-05
2.96791e-05
2.80706e-05
2.66844e-05
2.54922e-05
2.44902e-05
2.36645e-05
2.30113e-05
2.25243e-05
2.22014e-05
2.20403e-05
4.55605e-05
5.10386e-05
4.73262e-05
4.40353e-05
4.1024e-05
3.8372e-05
3.59752e-05
3.37914e-05
3.18016e-05
3.00668e-05
2.8541e-05
2.72247e-05
2.60934e-05
2.51428e-05
2.43601e-05
2.37415e-05
2.32806e-05
2.29752e-05
2.28229e-05
4.47214e-05
5.00529e-05
4.65376e-05
4.34178e-05
4.05844e-05
3.80818e-05
3.5829e-05
3.38457e-05
3.19928e-05
3.03517e-05
2.89092e-05
2.76638e-05
2.6594e-05
2.5695e-05
2.49554e-05
2.4371e-05
2.39359e-05
2.36477e-05
2.3504e-05
4.36146e-05
4.89939e-05
4.56636e-05
4.27103e-05
4.00475e-05
3.76923e-05
3.55807e-05
3.37185e-05
3.20629e-05
3.05327e-05
2.91745e-05
2.80008e-05
2.69932e-05
2.61463e-05
2.545e-05
2.48998e-05
2.44904e-05
2.42192e-05
2.40841e-05
4.26745e-05
4.78714e-05
4.47096e-05
4.19161e-05
3.9416e-05
3.7206e-05
3.52326e-05
3.34913e-05
3.19464e-05
3.05913e-05
2.93384e-05
2.82373e-05
2.72924e-05
2.64981e-05
2.58452e-05
2.53293e-05
2.49456e-05
2.46914e-05
2.45648e-05
4.15175e-05
4.66133e-05
4.36356e-05
4.10124e-05
3.86789e-05
3.66179e-05
3.47839e-05
3.31655e-05
3.17322e-05
3.04744e-05
2.93727e-05
2.83755e-05
2.7494e-05
2.67527e-05
2.61436e-05
2.56623e-05
2.53043e-05
2.50673e-05
2.49492e-05
4.02697e-05
4.52759e-05
4.24734e-05
4.00186e-05
3.78493e-05
3.59373e-05
3.42424e-05
3.27474e-05
3.14261e-05
3.02665e-05
2.92517e-05
2.83731e-05
2.76016e-05
2.69139e-05
2.6349e-05
2.59025e-05
2.55705e-05
2.53506e-05
2.52411e-05
3.9029e-05
4.3763e-05
4.11717e-05
3.89073e-05
3.69141e-05
3.51592e-05
3.36077e-05
3.22396e-05
3.10321e-05
2.99723e-05
2.90455e-05
2.82429e-05
2.75551e-05
2.69764e-05
2.64663e-05
2.60549e-05
2.57491e-05
2.55465e-05
2.54455e-05
3.73261e-05
4.21659e-05
3.97863e-05
3.77127e-05
3.58961e-05
3.42994e-05
3.28919e-05
3.16517e-05
3.05588e-05
2.95998e-05
2.87616e-05
2.80356e-05
2.74136e-05
2.689e-05
2.64598e-05
2.61197e-05
2.58456e-05
2.56604e-05
2.55683e-05
3.5953e-05
4.04265e-05
3.82843e-05
3.64183e-05
3.4789e-05
3.33574e-05
3.20981e-05
3.09887e-05
3.00123e-05
2.91552e-05
2.84066e-05
2.77579e-05
2.72021e-05
2.67341e-05
2.63495e-05
2.60454e-05
2.58191e-05
2.56692e-05
2.55936e-05
3.39228e-05
3.85992e-05
3.67056e-05
3.50533e-05
3.36141e-05
3.23497e-05
3.124e-05
3.02624e-05
2.9403e-05
2.86485e-05
2.79898e-05
2.74187e-05
2.69294e-05
2.65171e-05
2.61783e-05
2.59101e-05
2.57104e-05
2.5578e-05
2.55119e-05
3.23445e-05
3.67168e-05
3.50676e-05
3.36291e-05
3.23811e-05
3.12853e-05
3.03258e-05
2.94808e-05
2.87389e-05
2.80874e-05
2.75187e-05
2.70254e-05
2.66027e-05
2.62462e-05
2.5953e-05
2.57207e-05
2.55478e-05
2.54331e-05
2.53762e-05
3.02751e-05
3.4769e-05
3.33753e-05
3.21568e-05
3.11027e-05
3.0177e-05
2.93683e-05
2.86562e-05
2.80316e-05
2.74829e-05
2.7004e-05
2.65882e-05
2.62316e-05
2.59306e-05
2.56829e-05
2.54865e-05
2.53402e-05
2.52432e-05
2.51951e-05
2.85345e-05
3.28285e-05
3.16728e-05
3.06647e-05
2.97985e-05
2.90396e-05
2.83794e-05
2.77986e-05
2.72902e-05
2.68434e-05
2.64535e-05
2.61146e-05
2.58237e-05
2.55778e-05
2.53752e-05
2.52144e-05
2.50945e-05
2.5015e-05
2.49755e-05
2.65549e-05
3.0869e-05
2.99529e-05
2.91559e-05
2.8477e-05
2.78839e-05
2.73708e-05
2.692e-05
2.65263e-05
2.61802e-05
2.58781e-05
2.5615e-05
2.53888e-05
2.51972e-05
2.5039e-05
2.49133e-05
2.48194e-05
2.4757e-05
2.47259e-05
2.47759e-05
2.89491e-05
2.82551e-05
2.76579e-05
2.71582e-05
2.67253e-05
2.63552e-05
2.60313e-05
2.57499e-05
2.55025e-05
2.52864e-05
2.50977e-05
2.4935e-05
2.47966e-05
2.4682e-05
2.45906e-05
2.45221e-05
2.44765e-05
2.44538e-05
2.29227e-05
2.70534e-05
2.65759e-05
2.61743e-05
2.58497e-05
2.55735e-05
2.5343e-05
2.5143e-05
2.4971e-05
2.48197e-05
2.46875e-05
2.45712e-05
2.44703e-05
2.43837e-05
2.43115e-05
2.42533e-05
2.42096e-05
2.41803e-05
2.41657e-05
2.12019e-05
2.52178e-05
2.49431e-05
2.47269e-05
2.45696e-05
2.4444e-05
2.4348e-05
2.42678e-05
2.42017e-05
2.41434e-05
2.40924e-05
2.40462e-05
2.40051e-05
2.39686e-05
2.39372e-05
2.39113e-05
2.38915e-05
2.38779e-05
2.38711e-05
1.94899e-05
2.34367e-05
2.33569e-05
2.33197e-05
2.33236e-05
2.33432e-05
2.33767e-05
2.34117e-05
2.34472e-05
2.34783e-05
2.3505e-05
2.3526e-05
2.3542e-05
2.35534e-05
2.35613e-05
2.35662e-05
2.35691e-05
2.35706e-05
2.35713e-05
1.78805e-05
2.17338e-05
2.18394e-05
2.19731e-05
2.21311e-05
2.22898e-05
2.24472e-05
2.25924e-05
2.27251e-05
2.28414e-05
2.29423e-05
2.30272e-05
2.30977e-05
2.31547e-05
2.31997e-05
2.32338e-05
2.32584e-05
2.32742e-05
2.3282e-05
1.63208e-05
2.01062e-05
2.03899e-05
2.06873e-05
2.09924e-05
2.12833e-05
2.15581e-05
2.18073e-05
2.20314e-05
2.22278e-05
2.23983e-05
2.25431e-05
2.26646e-05
2.27642e-05
2.2844e-05
2.29055e-05
2.29503e-05
2.29795e-05
2.29939e-05
1.48499e-05
1.85786e-05
1.90343e-05
1.9489e-05
1.99344e-05
2.03508e-05
2.07364e-05
2.10836e-05
2.13936e-05
2.1665e-05
2.19004e-05
2.21012e-05
2.227e-05
2.24093e-05
2.25213e-05
2.26082e-05
2.26718e-05
2.27134e-05
2.27339e-05
1.3461e-05
1.71453e-05
1.77662e-05
1.837e-05
1.89471e-05
1.94803e-05
1.99683e-05
2.04055e-05
2.0794e-05
2.11338e-05
2.14283e-05
2.16798e-05
2.18917e-05
2.20668e-05
2.22081e-05
2.23179e-05
2.23985e-05
2.24513e-05
2.24774e-05
1.21501e-05
1.58431e-05
1.66238e-05
1.73692e-05
1.807e-05
1.87116e-05
1.92941e-05
1.98136e-05
2.02736e-05
2.06754e-05
2.10233e-05
2.13204e-05
2.15709e-05
2.17782e-05
2.19457e-05
2.20761e-05
2.21718e-05
2.22346e-05
2.22656e-05
1.09711e-05
1.46621e-05
1.5593e-05
1.64687e-05
1.72809e-05
1.80191e-05
1.86846e-05
1.92761e-05
1.97983e-05
2.02538e-05
2.06479e-05
2.09846e-05
2.12685e-05
2.15037e-05
2.16938e-05
2.1842e-05
2.19509e-05
2.20225e-05
2.20579e-05
9.86146e-06
1.36571e-05
1.47277e-05
1.57212e-05
1.66328e-05
1.74557e-05
1.81936e-05
1.88473e-05
1.94229e-05
1.99243e-05
2.03577e-05
2.07277e-05
2.10397e-05
2.12981e-05
2.15071e-05
2.167e-05
2.17898e-05
2.18689e-05
2.19082e-05
8.97072e-06
1.28155e-05
1.40061e-05
1.50981e-05
1.60907e-05
1.69819e-05
1.77773e-05
1.84801e-05
1.90976e-05
1.9635e-05
2.00992e-05
2.04957e-05
2.08302e-05
2.11073e-05
2.13317e-05
2.15067e-05
2.16353e-05
2.172e-05
2.17619e-05
8.15604e-06
1.22054e-05
1.3492e-05
1.46609e-05
1.5716e-05
1.66591e-05
1.74978e-05
1.82375e-05
1.88864e-05
1.94508e-05
1.99381e-05
2.03545e-05
2.07057e-05
2.09969e-05
2.12328e-05
2.14168e-05
2.15521e-05
2.16409e-05
2.16847e-05
7.68897e-06
1.17923e-05
1.3137e-05
1.43514e-05
1.54428e-05
1.64159e-05
1.72796e-05
1.80406e-05
1.87075e-05
1.92873e-05
1.97874e-05
2.02143e-05
2.05743e-05
2.08727e-05
2.11141e-05
2.13025e-05
2.1441e-05
2.1532e-05
2.15771e-05
7.29976e-06
1.17923e-05
1.3137e-05
1.43514e-05
1.54428e-05
1.64159e-05
1.72796e-05
1.80406e-05
1.87075e-05
1.92873e-05
1.97874e-05
2.02143e-05
2.05743e-05
2.08727e-05
2.11141e-05
2.13025e-05
2.1441e-05
2.1532e-05
2.15771e-05
)
;

boundaryField
{
    leftWall
    {
        type            calculated;
        value           uniform 0;
    }
    rightWall
    {
        type            calculated;
        value           uniform 0;
    }
    lowerWall
    {
        type            calculated;
        value           uniform 0;
    }
    atmosphere
    {
        type            calculated;
        value           uniform 0;
    }
    defaultFaces
    {
        type            empty;
    }
}


// ************************************************************************* //
