/*--------------------------------*- C++ -*----------------------------------*\
| =========                 |                                                 |
| \\      /  F ield         | OpenFOAM: The Open Source CFD Toolbox           |
|  \\    /   O peration     | Version:  2012                                  |
|   \\  /    A nd           | Website:  www.openfoam.com                      |
|    \\/     M anipulation  |                                                 |
\*---------------------------------------------------------------------------*/
FoamFile
{
    version     2.0;
    format      ascii;
    class       surfaceScalarField;
    location    "0.05";
    object      phi;
}
// * * * * * * * * * * * * * * * * * * * * * * * * * * * * * * * * * * * * * //

dimensions      [0 3 -1 0 0 0 0];
oriented        oriented;


internalField   nonuniform List<scalar> 
4432
(
3.22992e-06
-3.22993e-06
6.5006e-06
-3.27068e-06
9.87266e-06
-3.37207e-06
1.33738e-05
-3.5011e-06
1.71114e-05
-3.73762e-06
2.10952e-05
-3.98387e-06
2.55292e-05
-4.43398e-06
3.04294e-05
-4.90024e-06
3.61415e-05
-5.71207e-06
4.28094e-05
-6.6679e-06
5.12265e-05
-8.41711e-06
6.29565e-05
-1.173e-05
7.63147e-05
-1.33582e-05
8.90684e-05
-1.2753e-05
0.000102329
-1.32379e-05
0.000112983
-1.0635e-05
0.000106011
6.97288e-06
7.92804e-05
2.67305e-05
5.45711e-05
2.47092e-05
3.78439e-05
1.6727e-05
2.45513e-05
1.32924e-05
1.22466e-05
1.23044e-05
1.22464e-05
3.2197e-06
-6.44963e-06
6.47989e-06
-6.53088e-06
9.83935e-06
-6.73153e-06
1.3327e-05
-6.98879e-06
1.70453e-05
-7.45591e-06
2.10077e-05
-7.9463e-06
2.54067e-05
-8.83294e-06
3.02642e-05
-9.75775e-06
3.58938e-05
-1.13417e-05
4.24897e-05
-1.32638e-05
5.05547e-05
-1.64821e-05
6.1181e-05
-2.23564e-05
7.35912e-05
-2.57683e-05
8.67541e-05
-2.59115e-05
9.98473e-05
-2.62851e-05
0.000106507
-1.7282e-05
9.54908e-05
1.79896e-05
7.17751e-05
5.04462e-05
5.17495e-05
4.47347e-05
3.6954e-05
3.15223e-05
2.42981e-05
2.5948e-05
1.21867e-05
2.44156e-05
2.44328e-05
3.19932e-06
-9.64896e-06
6.43855e-06
-9.77012e-06
9.77293e-06
-1.00659e-05
1.32339e-05
-1.04498e-05
1.69136e-05
-1.11356e-05
2.08344e-05
-1.18671e-05
2.51617e-05
-1.31603e-05
2.99368e-05
-1.45329e-05
3.54093e-05
-1.68141e-05
4.18167e-05
-1.96712e-05
4.94296e-05
-2.4095e-05
5.88852e-05
-3.1812e-05
7.03028e-05
-3.67693e-05
8.39534e-05
-3.95521e-05
9.73296e-05
-3.96041e-05
9.85127e-05
-1.84595e-05
8.13382e-05
3.51644e-05
6.10082e-05
7.07763e-05
4.68506e-05
5.88921e-05
3.48332e-05
4.35395e-05
2.36339e-05
3.71472e-05
1.21031e-05
3.59462e-05
3.65356e-05
3.16927e-06
-1.28182e-05
6.3776e-06
-1.29785e-05
9.67514e-06
-1.33635e-05
1.30971e-05
-1.38717e-05
1.67202e-05
-1.47587e-05
2.05816e-05
-1.57285e-05
2.48024e-05
-1.73811e-05
2.94596e-05
-1.919e-05
3.47143e-05
-2.20689e-05
4.08202e-05
-2.57772e-05
4.79056e-05
-3.11804e-05
5.62171e-05
-4.01235e-05
6.62867e-05
-4.68395e-05
7.88245e-05
-5.20406e-05
9.04328e-05
-5.11648e-05
8.51181e-05
-1.31426e-05
6.55259e-05
5.47568e-05
5.26455e-05
8.36568e-05
4.32908e-05
6.82467e-05
3.31618e-05
5.36684e-05
2.2962e-05
4.73468e-05
1.1902e-05
4.7006e-05
4.84374e-05
3.12961e-06
-1.59478e-05
6.29708e-06
-1.61459e-05
9.54624e-06
-1.66126e-05
1.29165e-05
-1.7242e-05
1.6466e-05
-1.83082e-05
2.02497e-05
-1.95122e-05
2.43348e-05
-2.14663e-05
2.88437e-05
-2.36989e-05
3.38373e-05
-2.70625e-05
3.95576e-05
-3.14975e-05
4.60683e-05
-3.7691e-05
5.32689e-05
-4.73241e-05
6.19989e-05
-5.55701e-05
7.22714e-05
-6.22346e-05
8.18405e-05
-6.06976e-05
7.16187e-05
-2.91971e-06
5.31687e-05
7.32069e-05
4.63996e-05
9.04259e-05
3.99224e-05
7.47239e-05
3.19587e-05
6.1632e-05
2.31153e-05
5.61901e-05
1.25468e-05
5.75743e-05
6.09841e-05
3.08148e-06
-1.90293e-05
6.19939e-06
-1.92638e-05
9.39038e-06
-1.98036e-05
1.26984e-05
-2.055e-05
1.61611e-05
-2.1771e-05
1.98512e-05
-2.32023e-05
2.37824e-05
-2.53974e-05
2.81182e-05
-2.80347e-05
3.28202e-05
-3.17646e-05
3.81113e-05
-3.67886e-05
4.40083e-05
-4.3588e-05
5.01699e-05
-5.34858e-05
5.7616e-05
-6.3015e-05
6.53709e-05
-6.98922e-05
7.23365e-05
-6.76355e-05
5.91584e-05
1.02591e-05
4.40624e-05
8.83032e-05
4.12731e-05
9.32152e-05
3.65484e-05
7.94486e-05
3.00643e-05
6.8116e-05
2.20463e-05
6.4208e-05
1.19674e-05
6.76532e-05
7.29514e-05
3.02444e-06
-2.20538e-05
6.08336e-06
-2.23228e-05
9.20584e-06
-2.29261e-05
1.24394e-05
-2.37835e-05
1.58013e-05
-2.51329e-05
1.93789e-05
-2.67799e-05
2.31365e-05
-2.91551e-05
2.72676e-05
-3.21657e-05
3.16486e-05
-3.61456e-05
3.64856e-05
-4.16256e-05
4.17241e-05
-4.88265e-05
4.69479e-05
-5.87096e-05
5.31583e-05
-6.92208e-05
5.85405e-05
-7.51731e-05
6.2524e-05
-7.15977e-05
4.85405e-05
2.42431e-05
3.81658e-05
9.86781e-05
3.76558e-05
9.37253e-05
3.46526e-05
8.24518e-05
3.00895e-05
7.26791e-05
2.40059e-05
7.02916e-05
1.43729e-05
7.72862e-05
8.73243e-05
2.95979e-06
-2.50136e-05
5.95185e-06
-2.53148e-05
8.99761e-06
-2.59719e-05
1.21476e-05
-2.69335e-05
1.53996e-05
-2.83849e-05
1.88531e-05
-3.02334e-05
2.24311e-05
-3.2733e-05
2.63431e-05
-3.60778e-05
3.04061e-05
-4.02086e-05
3.48095e-05
-4.6029e-05
3.94085e-05
-5.34255e-05
4.38209e-05
-6.3122e-05
4.87115e-05
-7.40987e-05
5.21133e-05
-7.84752e-05
5.28468e-05
-7.23154e-05
3.94625e-05
3.76278e-05
3.39746e-05
0.000104166
3.42538e-05
9.34462e-05
3.22383e-05
8.44673e-05
2.8693e-05
7.62244e-05
2.37806e-05
7.5204e-05
1.47365e-05
8.63304e-05
0.000102061
2.49215e-06
-2.4922e-06
5.00938e-06
-2.5173e-06
6.36241e-06
-1.35309e-06
7.22988e-06
-8.67524e-07
7.45515e-06
-2.25333e-07
7.38354e-06
7.1573e-08
7.05438e-06
3.29099e-07
6.59676e-06
4.57563e-07
6.04934e-06
5.47355e-07
5.46019e-06
5.89081e-07
4.84785e-06
6.12285e-07
4.2285e-06
6.19293e-07
3.60897e-06
6.19483e-07
2.99402e-06
6.1487e-07
2.3851e-06
6.08886e-07
1.78236e-06
6.02666e-07
1.18505e-06
5.97315e-07
5.91449e-07
5.9348e-07
5.91473e-07
2.47947e-06
-4.97173e-06
5.07975e-06
-5.11765e-06
6.44505e-06
-2.71844e-06
7.29533e-06
-1.71785e-06
7.50881e-06
-4.38867e-07
7.41814e-06
1.622e-07
7.07626e-06
6.70897e-07
6.60987e-06
9.23894e-07
6.05702e-06
1.10013e-06
5.46401e-06
1.18203e-06
4.84932e-06
1.22693e-06
4.22851e-06
1.24002e-06
3.60825e-06
1.23971e-06
2.99297e-06
1.23005e-06
2.38404e-06
1.21784e-06
1.78143e-06
1.20516e-06
1.18438e-06
1.19438e-06
5.91098e-07
1.18659e-06
1.18261e-06
2.70958e-06
-7.68136e-06
5.44483e-06
-7.85295e-06
6.78047e-06
-4.05413e-06
7.54328e-06
-2.48069e-06
7.6785e-06
-5.74142e-07
7.52264e-06
3.18022e-07
7.13935e-06
1.05412e-06
6.64531e-06
1.41789e-06
6.07651e-06
1.66887e-06
5.47346e-06
1.78504e-06
4.85307e-06
1.84728e-06
4.22894e-06
1.86407e-06
3.60699e-06
1.86163e-06
2.99093e-06
1.84602e-06
2.38188e-06
1.82691e-06
1.77953e-06
1.80739e-06
1.183e-06
1.79094e-06
5.90386e-07
1.77909e-06
1.77301e-06
2.60258e-06
-1.0284e-05
5.6219e-06
-1.08723e-05
7.02964e-06
-5.46191e-06
7.73292e-06
-3.184e-06
7.82705e-06
-6.68325e-07
7.61765e-06
5.27379e-07
7.20296e-06
1.46875e-06
6.68225e-06
1.93857e-06
6.09758e-06
2.2535e-06
5.4835e-06
2.39907e-06
4.85654e-06
2.47419e-06
4.22842e-06
2.49211e-06
3.60446e-06
2.48558e-06
2.98756e-06
2.46285e-06
2.3785e-06
2.43599e-06
1.77663e-06
2.40913e-06
1.18092e-06
2.3867e-06
5.89312e-07
2.3706e-06
2.36229e-06
3.24245e-06
-1.35265e-05
6.52915e-06
-1.41591e-05
7.77909e-06
-6.71189e-06
8.25657e-06
-3.66153e-06
8.16556e-06
-5.7738e-07
7.82229e-06
8.70608e-07
7.32444e-06
1.96655e-06
6.74936e-06
2.51362e-06
6.13357e-06
2.86925e-06
5.50027e-06
3.03231e-06
4.86258e-06
3.11183e-06
4.22826e-06
3.12637e-06
3.60126e-06
3.11257e-06
2.98307e-06
3.08098e-06
2.37393e-06
3.04514e-06
1.7727e-06
3.01025e-06
1.17809e-06
2.98136e-06
5.87842e-07
2.96072e-06
2.9501e-06
2.85451e-06
-1.6381e-05
6.7648e-06
-1.80694e-05
8.22037e-06
-8.16752e-06
8.55197e-06
-3.99319e-06
8.38825e-06
-4.13728e-07
7.95823e-06
1.30058e-06
7.41363e-06
2.51109e-06
6.80001e-06
3.12721e-06
6.1613e-06
3.50791e-06
5.51224e-06
3.6813e-06
4.86535e-06
3.75868e-06
4.2255e-06
3.76615e-06
3.59583e-06
3.74224e-06
2.97667e-06
3.70006e-06
2.36778e-06
3.65403e-06
1.76756e-06
3.61038e-06
1.17442e-06
3.57453e-06
5.85949e-07
3.54908e-06
3.53605e-06
4.96038e-06
-2.13415e-05
8.68493e-06
-2.1794e-05
9.52118e-06
-9.00384e-06
9.38221e-06
-3.85429e-06
8.88811e-06
8.03031e-08
8.24766e-06
1.94097e-06
7.57855e-06
3.18016e-06
6.88914e-06
3.81657e-06
6.20735e-06
4.18963e-06
5.53223e-06
4.35635e-06
4.87101e-06
4.41985e-06
4.22305e-06
4.41406e-06
3.58954e-06
4.37573e-06
2.96898e-06
4.32055e-06
2.36031e-06
4.26268e-06
1.76129e-06
4.20931e-06
1.16995e-06
4.16587e-06
5.83646e-07
4.1353e-06
4.11969e-06
8.44907e-06
-2.97906e-05
9.76561e-06
-2.31106e-05
1.03843e-05
-9.62265e-06
9.74677e-06
-3.21679e-06
9.14168e-06
6.85326e-07
8.39031e-06
2.6923e-06
7.66759e-06
3.90284e-06
6.93718e-06
4.54693e-06
6.2309e-06
4.89585e-06
5.53941e-06
5.04778e-06
4.8687e-06
5.09052e-06
4.21532e-06
5.06739e-06
3.57946e-06
5.01155e-06
2.95847e-06
4.94145e-06
2.35072e-06
4.8704e-06
1.75349e-06
4.80646e-06
1.16447e-06
4.75485e-06
5.80846e-07
4.71889e-06
4.70048e-06
6.0624e-06
-3.1076e-05
1.21853e-05
-3.14378e-05
1.83913e-05
-3.21779e-05
2.47921e-05
-3.33344e-05
3.13331e-05
-3.49259e-05
3.82402e-05
-3.71406e-05
4.52728e-05
-3.97656e-05
5.28591e-05
-4.36642e-05
6.05293e-05
-4.78787e-05
6.86108e-05
-5.41105e-05
7.65417e-05
-6.13565e-05
8.3861e-05
-7.04413e-05
9.07473e-05
-8.09264e-05
9.57252e-05
-8.32709e-05
8.78227e-05
-6.43926e-05
6.42259e-05
6.12254e-05
6.3514e-05
0.000104878
6.58416e-05
9.11189e-05
6.58696e-05
8.44394e-05
6.57658e-05
7.63282e-05
6.74299e-05
7.354e-05
7.80944e-05
7.5666e-05
8.27461e-05
9.74098e-05
5.68523e-06
-3.67612e-05
1.14164e-05
-3.7169e-05
1.71933e-05
-3.79548e-05
2.31149e-05
-3.9256e-05
2.90941e-05
-4.09051e-05
3.53274e-05
-4.33739e-05
4.15553e-05
-4.59936e-05
4.81058e-05
-5.02146e-05
5.45296e-05
-5.43026e-05
6.10165e-05
-6.05974e-05
6.69467e-05
-6.72867e-05
7.2211e-05
-7.57056e-05
7.62865e-05
-8.48923e-05
7.91132e-05
-8.59443e-05
6.14708e-05
-4.67415e-05
4.64153e-05
7.62815e-05
5.26918e-05
9.86014e-05
5.57103e-05
8.81007e-05
5.78965e-05
8.22532e-05
5.93925e-05
7.48323e-05
6.20379e-05
7.08947e-05
7.25705e-05
6.51334e-05
6.4727e-05
9.05896e-05
5.27686e-06
-4.20381e-05
1.05842e-05
-4.24763e-05
1.59078e-05
-4.32783e-05
2.13231e-05
-4.46714e-05
2.67372e-05
-4.63191e-05
3.22911e-05
-4.89279e-05
3.77636e-05
-5.1466e-05
4.33451e-05
-5.57961e-05
4.86851e-05
-5.96426e-05
5.38354e-05
-6.57477e-05
5.82613e-05
-7.17125e-05
6.20289e-05
-7.94732e-05
6.431e-05
-8.70222e-05
6.55161e-05
-8.70111e-05
4.47103e-05
-2.59313e-05
3.7707e-05
8.32853e-05
4.55531e-05
9.07553e-05
4.89319e-05
8.47221e-05
5.2323e-05
7.88622e-05
5.48805e-05
7.22749e-05
5.82362e-05
6.75389e-05
6.36354e-05
5.97343e-05
5.64084e-05
7.1954e-05
4.84819e-06
-4.68863e-05
9.71219e-06
-4.73404e-05
1.45708e-05
-4.8137e-05
1.94722e-05
-4.95727e-05
2.43336e-05
-5.11806e-05
2.92371e-05
-5.38313e-05
3.40225e-05
-5.62514e-05
3.8749e-05
-6.05227e-05
4.31848e-05
-6.40784e-05
4.72956e-05
-6.98585e-05
5.06552e-05
-7.50722e-05
5.34032e-05
-8.22212e-05
5.48004e-05
-8.82353e-05
5.55006e-05
-8.75865e-05
3.54883e-05
-5.91619e-06
3.29575e-05
8.58166e-05
3.92477e-05
8.44652e-05
4.23121e-05
8.16578e-05
4.56628e-05
7.55116e-05
4.8114e-05
6.98237e-05
5.09915e-05
6.46615e-05
5.3621e-05
5.71048e-05
5.18709e-05
5.81585e-05
4.41223e-06
-5.12985e-05
8.82771e-06
-5.17559e-05
1.32228e-05
-5.25321e-05
1.76199e-05
-5.39698e-05
2.19524e-05
-5.55131e-05
2.62515e-05
-5.81304e-05
3.04141e-05
-6.04141e-05
3.44007e-05
-6.45094e-05
3.80832e-05
-6.77608e-05
4.13786e-05
-7.31541e-05
4.39592e-05
-7.76527e-05
4.59761e-05
-8.42381e-05
4.69006e-05
-8.89543e-05
4.72338e-05
-8.7812e-05
2.94652e-05
1.18544e-05
2.96086e-05
8.56735e-05
3.44464e-05
7.96276e-05
3.72745e-05
7.88299e-05
4.03924e-05
7.23938e-05
4.25661e-05
6.76502e-05
4.49172e-05
6.23104e-05
4.62925e-05
5.57296e-05
5.03377e-05
4.78256e-05
3.98384e-06
-5.52824e-05
7.96067e-06
-5.57327e-05
1.19067e-05
-5.64782e-05
1.58225e-05
-5.78856e-05
1.9659e-05
-5.93496e-05
2.34075e-05
-6.18789e-05
2.7008e-05
-6.40146e-05
3.03695e-05
-6.78708e-05
3.343e-05
-7.08214e-05
3.60918e-05
-7.58158e-05
3.81101e-05
-7.96711e-05
3.9618e-05
-8.5746e-05
4.03185e-05
-8.94345e-05
4.03502e-05
-8.77517e-05
2.53738e-05
2.68324e-05
2.65404e-05
8.45072e-05
2.98971e-05
7.62712e-05
3.23043e-05
7.64228e-05
3.48404e-05
6.98578e-05
3.6631e-05
6.58596e-05
3.84874e-05
6.04541e-05
3.951e-05
5.47071e-05
4.93452e-05
4.05025e-05
3.55968e-06
-5.88421e-05
7.10558e-06
-5.92786e-05
1.06157e-05
-5.99883e-05
1.40748e-05
-6.13447e-05
1.74493e-05
-6.27241e-05
2.07028e-05
-6.51324e-05
2.38069e-05
-6.71188e-05
2.66479e-05
-7.07118e-05
2.92001e-05
-7.33736e-05
3.13661e-05
-7.79818e-05
3.29659e-05
-8.1271e-05
3.40972e-05
-8.68772e-05
3.46474e-05
-8.97557e-05
3.43673e-05
-8.73939e-05
2.21469e-05
3.90541e-05
2.34993e-05
8.3155e-05
2.59359e-05
7.38351e-05
2.80407e-05
7.43182e-05
3.01342e-05
6.77645e-05
3.17014e-05
6.42926e-05
3.31137e-05
5.90419e-05
3.37871e-05
5.40337e-05
4.90224e-05
3.411e-05
3.16648e-06
-6.20086e-05
6.31345e-06
-6.24256e-05
9.41934e-06
-6.30942e-05
1.24584e-05
-6.43837e-05
1.54072e-05
-6.56729e-05
1.82149e-05
-6.79401e-05
2.08717e-05
-6.97757e-05
2.32628e-05
-7.31029e-05
2.53807e-05
-7.54915e-05
2.71438e-05
-7.97449e-05
2.84196e-05
-8.25467e-05
2.92822e-05
-8.77398e-05
2.97226e-05
-8.99638e-05
2.89099e-05
-8.65164e-05
1.89453e-05
4.90196e-05
2.02336e-05
8.18669e-05
2.19563e-05
7.21127e-05
2.37688e-05
7.25058e-05
2.53938e-05
6.61397e-05
2.67443e-05
6.29421e-05
2.78701e-05
5.79162e-05
2.8519e-05
5.33849e-05
4.87063e-05
2.88351e-05
2.76703e-06
-6.47756e-05
5.5141e-06
-6.51727e-05
8.22319e-06
-6.58033e-05
1.08639e-05
-6.70245e-05
1.34216e-05
-6.82306e-05
1.58377e-05
-7.03561e-05
1.81141e-05
-7.2052e-05
2.01408e-05
-7.51296e-05
2.19193e-05
-7.72699e-05
2.33763e-05
-8.1202e-05
2.44165e-05
-8.35868e-05
2.50763e-05
-8.83996e-05
2.5427e-05
-9.00838e-05
2.3604e-05
-8.46401e-05
1.55908e-05
5.70335e-05
1.67338e-05
8.0724e-05
1.80889e-05
7.0758e-05
1.9752e-05
7.08428e-05
2.11136e-05
6.47782e-05
2.23605e-05
6.16954e-05
2.3289e-05
5.69878e-05
2.38594e-05
5.28145e-05
4.84941e-05
2.40716e-05
2.42702e-06
-6.72026e-05
4.83095e-06
-6.75766e-05
7.19319e-06
-6.81656e-05
9.48025e-06
-6.93115e-05
1.16807e-05
-7.04311e-05
1.37367e-05
-7.24121e-05
1.56536e-05
-7.3969e-05
1.73385e-05
-7.68145e-05
1.87934e-05
-7.87249e-05
1.99695e-05
-8.2378e-05
2.07918e-05
-8.44092e-05
2.13067e-05
-8.89144e-05
2.15618e-05
-9.0115e-05
1.79859e-05
-8.10216e-05
1.14863e-05
6.35338e-05
1.31869e-05
7.90236e-05
1.4188e-05
6.97572e-05
1.58134e-05
6.92176e-05
1.68955e-05
6.36963e-05
1.80355e-05
6.05555e-05
1.88492e-05
5.61742e-05
1.94536e-05
5.22102e-05
4.81952e-05
1.97526e-05
2.04676e-06
-6.92494e-05
4.07454e-06
-6.96044e-05
6.06937e-06
-7.01604e-05
8.00175e-06
-7.12439e-05
9.86616e-06
-7.22955e-05
1.16075e-05
-7.41534e-05
1.32354e-05
-7.55969e-05
1.46658e-05
-7.82448e-05
1.59034e-05
-7.99625e-05
1.6895e-05
-8.33696e-05
1.75898e-05
-8.51041e-05
1.79935e-05
-8.93181e-05
1.81877e-05
-9.00967e-05
1.15748e-05
-7.43755e-05
6.97232e-06
6.81367e-05
9.14711e-06
7.68489e-05
1.00671e-05
6.88375e-05
1.1864e-05
6.74207e-05
1.28914e-05
6.2669e-05
1.40882e-05
5.93587e-05
1.48716e-05
5.53909e-05
1.55166e-05
5.15654e-05
4.7846e-05
1.58658e-05
1.77271e-06
-7.10221e-05
3.5227e-06
-7.13544e-05
5.23315e-06
-7.18708e-05
6.87154e-06
-7.28823e-05
8.43119e-06
-7.38552e-05
9.8584e-06
-7.55806e-05
1.11664e-05
-7.6905e-05
1.22951e-05
-7.93735e-05
1.32484e-05
-8.09158e-05
1.40047e-05
-8.41259e-05
1.45193e-05
-8.56187e-05
1.48477e-05
-8.96465e-05
1.49763e-05
-9.00299e-05
5.82831e-06
-6.52031e-05
2.82044e-06
7.1145e-05
6.10671e-06
7.35627e-05
6.69016e-06
6.82543e-05
8.34151e-06
6.57695e-05
9.09599e-06
6.19147e-05
1.01623e-05
5.82925e-05
1.09027e-05
5.46506e-05
1.15931e-05
5.0875e-05
4.73767e-05
1.20625e-05
1.40775e-06
-7.24299e-05
2.7986e-06
-7.27452e-05
4.16158e-06
-7.32338e-05
5.47292e-06
-7.41936e-05
6.73146e-06
-7.51137e-05
7.89799e-06
-7.67472e-05
8.98355e-06
-7.79905e-05
9.93017e-06
-8.03201e-05
1.075e-05
-8.17356e-05
1.14113e-05
-8.47872e-05
1.18859e-05
-8.60933e-05
1.21399e-05
-8.99005e-05
1.23779e-05
-9.00935e-05
-1.8085e-06
-5.09992e-05
-2.34225e-06
7.16791e-05
1.57621e-06
6.96443e-05
2.28054e-06
6.75502e-05
4.40668e-06
6.36435e-05
5.30835e-06
6.10132e-05
6.57181e-06
5.70292e-05
7.37004e-06
5.38525e-05
8.16123e-06
5.00839e-05
4.68132e-05
8.7248e-06
1.17269e-06
-7.36026e-05
2.32962e-06
-7.39022e-05
3.45886e-06
-7.43631e-05
4.53664e-06
-7.52714e-05
5.55793e-06
-7.6135e-05
6.48534e-06
-7.76746e-05
7.32657e-06
-7.88318e-05
8.03384e-06
-8.10274e-05
8.6075e-06
-8.23093e-05
9.02433e-06
-8.52041e-05
9.23392e-06
-8.63029e-05
9.31597e-06
-8.99825e-05
9.72154e-06
-9.03483e-05
-3.88783e-07
-4.08771e-05
-1.12881e-06
7.24192e-05
3.24149e-07
6.81914e-05
4.33989e-07
6.74404e-05
1.21405e-06
6.28635e-05
1.87498e-06
6.03523e-05
2.76684e-06
5.61374e-05
3.62072e-06
5.29987e-05
4.45703e-06
4.92477e-05
4.60664e-05
5.20387e-06
9.05687e-07
-7.45082e-05
1.79832e-06
-7.47948e-05
2.66869e-06
-7.52334e-05
3.499e-06
-7.61017e-05
4.28835e-06
-7.69243e-05
5.01213e-06
-7.83984e-05
5.67259e-06
-7.94922e-05
6.24326e-06
-8.1598e-05
6.70961e-06
-8.27756e-05
7.04681e-06
-8.55413e-05
7.20818e-06
-8.64643e-05
7.11014e-06
-8.98845e-05
8.77914e-06
-9.18945e-05
-1.01156e-05
-2.19736e-05
-8.65729e-06
7.0961e-05
-4.31756e-06
6.38517e-05
-3.74606e-06
6.68691e-05
-2.22726e-06
6.13448e-05
-1.52851e-06
5.96537e-05
-3.97979e-07
5.5007e-05
4.7958e-07
5.21212e-05
1.43391e-06
4.82934e-05
4.5233e-05
2.26737e-06
6.42361e-07
-7.51506e-05
1.27382e-06
-7.54263e-05
1.88723e-06
-7.58469e-05
2.46515e-06
-7.66797e-05
3.0061e-06
-7.74653e-05
3.48147e-06
-7.88738e-05
3.90238e-06
-7.99131e-05
4.22695e-06
-8.19226e-05
4.47646e-06
-8.30252e-05
4.58599e-06
-8.56508e-05
4.56729e-06
-8.64456e-05
4.38887e-06
-8.91862e-05
4.03791e-06
-9.14128e-05
1.64759e-06
-1.95794e-05
1.0879e-06
7.15205e-05
-4.1687e-06
6.91083e-05
-5.16629e-06
6.78666e-05
-6.1621e-06
6.23407e-05
-5.46806e-06
5.89597e-05
-4.73286e-06
5.42719e-05
-3.49613e-06
5.08845e-05
-2.35482e-06
4.71522e-05
4.40563e-05
-1.17807e-06
4.2268e-07
-7.55734e-05
8.3761e-07
-7.58413e-05
1.24036e-06
-7.62497e-05
1.62577e-06
-7.70652e-05
1.99207e-06
-7.78317e-05
2.33692e-06
-7.92187e-05
2.65681e-06
-8.02332e-05
2.97486e-06
-8.22408e-05
3.26448e-06
-8.3315e-05
3.61083e-06
-8.59974e-05
3.92077e-06
-8.67558e-05
4.71143e-06
-8.99801e-05
4.5903e-06
-9.11635e-05
-1.02476e-05
-4.7352e-06
-7.85521e-06
6.91282e-05
-7.39405e-06
6.86473e-05
-8.49e-06
6.89627e-05
-8.44653e-06
6.22974e-05
-8.16786e-06
5.86811e-05
-7.30101e-06
5.34051e-05
-6.2207e-06
4.98043e-05
-4.97001e-06
4.59015e-05
4.28272e-05
-3.74086e-06
1.9902e-07
-7.58693e-05
3.99365e-07
-7.61402e-05
5.96631e-07
-7.65484e-05
7.77813e-07
-7.73536e-05
9.34683e-07
-7.81022e-05
1.05065e-06
-7.9458e-05
1.12617e-06
-8.04411e-05
1.12891e-06
-8.23912e-05
1.125e-06
-8.347e-05
1.33385e-06
-8.63929e-05
2.28535e-06
-8.79425e-05
8.23138e-06
-9.63745e-05
-1.42682e-06
-8.12905e-05
-3.5372e-06
-2.6244e-06
3.01265e-06
6.25777e-05
-1.18021e-05
8.3462e-05
-1.57235e-05
7.2884e-05
-1.64841e-05
6.30581e-05
-1.49581e-05
5.71552e-05
-1.31818e-05
5.16289e-05
-1.10159e-05
4.76385e-05
-9.08362e-06
4.39694e-05
4.0981e-05
-7.23738e-06
5.20553e-08
-7.6495e-05
9.7162e-08
-7.67586e-05
1.27408e-07
-7.71506e-05
1.36973e-07
-7.79336e-05
1.39488e-07
-7.86724e-05
1.31131e-07
-8.00144e-05
1.40787e-07
-8.10111e-05
2.16212e-07
-8.30216e-05
7.54218e-07
-8.45581e-05
2.72257e-06
-8.89019e-05
1.13168e-05
-9.70442e-05
3.18611e-05
-0.000117324
5.87564e-05
-0.000108452
4.57072e-05
1.0585e-05
1.2885e-05
9.5407e-05
-8.18088e-06
0.000104529
-1.52093e-05
7.99127e-05
-1.72401e-05
6.50892e-05
-1.67881e-05
5.67034e-05
-1.5173e-05
5.00139e-05
-1.32251e-05
4.56907e-05
-1.12138e-05
4.19581e-05
3.91015e-05
-9.33423e-06
-4.03755e-06
-7.24605e-05
-8.17812e-06
-7.2621e-05
-1.24607e-05
-7.2871e-05
-1.70506e-05
-7.33467e-05
-2.18879e-05
-7.3838e-05
-2.72655e-05
-7.46398e-05
-3.28834e-05
-7.5396e-05
-3.92737e-05
-7.66342e-05
-4.55106e-05
-7.83238e-05
-5.30725e-05
-8.13429e-05
-5.98563e-05
-9.02626e-05
-7.2492e-05
-0.000104692
-7.80892e-05
-0.000102856
-9.43174e-05
2.68161e-05
-8.68117e-05
8.79037e-05
-5.79667e-05
7.56844e-05
-4.4174e-05
6.61204e-05
-3.41918e-05
5.51073e-05
-2.77398e-05
5.02515e-05
-2.26277e-05
4.49019e-05
-1.86888e-05
4.17519e-05
-1.53958e-05
3.86652e-05
3.63778e-05
-1.26721e-05
-3.93615e-06
-6.85243e-05
-7.9644e-06
-6.85927e-05
-1.21457e-05
-6.86897e-05
-1.66322e-05
-6.88602e-05
-2.14452e-05
-6.9025e-05
-2.68848e-05
-6.92002e-05
-3.28401e-05
-6.94406e-05
-4.0063e-05
-6.94113e-05
-4.82025e-05
-7.01843e-05
-6.04051e-05
-6.91403e-05
-7.92845e-05
-7.1383e-05
-0.000117548
-6.64283e-05
-0.000158698
-6.17043e-05
-0.000135256
3.37549e-06
-9.21255e-05
4.47737e-05
-6.39075e-05
4.74668e-05
-4.69011e-05
4.91143e-05
-3.66798e-05
4.48862e-05
-2.92615e-05
4.28334e-05
-2.41702e-05
3.98106e-05
-2.00521e-05
3.76339e-05
-1.68162e-05
3.54294e-05
3.36301e-05
-1.40684e-05
-4.18468e-06
-6.43396e-05
-8.45446e-06
-6.43229e-05
-1.28659e-05
-6.42782e-05
-1.75419e-05
-6.41842e-05
-2.25083e-05
-6.40585e-05
-2.79655e-05
-6.37429e-05
-3.39255e-05
-6.34804e-05
-4.07525e-05
-6.25841e-05
-4.87061e-05
-6.22305e-05
-5.81981e-05
-5.9648e-05
-7.06365e-05
-5.89444e-05
-8.72307e-05
-4.98336e-05
-0.000105978
-4.29568e-05
-0.000103626
1.02423e-06
-8.1556e-05
2.27042e-05
-6.50426e-05
3.09538e-05
-5.15996e-05
3.56716e-05
-4.17926e-05
3.50794e-05
-3.42457e-05
3.52867e-05
-2.82833e-05
3.38483e-05
-2.35488e-05
3.28995e-05
-1.96708e-05
3.15515e-05
3.04193e-05
-1.646e-05
-4.01225e-06
-6.03273e-05
-8.09774e-06
-6.02374e-05
-1.23233e-05
-6.00527e-05
-1.67891e-05
-5.97184e-05
-2.15612e-05
-5.92864e-05
-2.68228e-05
-5.84812e-05
-3.26243e-05
-5.7679e-05
-3.9368e-05
-5.58403e-05
-4.70946e-05
-5.45039e-05
-5.65654e-05
-5.01771e-05
-6.78651e-05
-4.76446e-05
-8.0956e-05
-3.67425e-05
-9.39415e-05
-2.99711e-05
-8.63383e-05
-6.57861e-06
-7.25283e-05
8.89444e-06
-6.04473e-05
1.88731e-05
-4.92257e-05
2.44501e-05
-4.08645e-05
2.67184e-05
-3.38602e-05
2.82826e-05
-2.84065e-05
2.83948e-05
-2.38737e-05
2.83668e-05
-2.02026e-05
2.78804e-05
2.73237e-05
-1.71069e-05
-4.04468e-06
-5.62826e-05
-8.14804e-06
-5.6134e-05
-1.23607e-05
-5.58399e-05
-1.67483e-05
-5.53308e-05
-2.13555e-05
-5.46792e-05
-2.62482e-05
-5.35885e-05
-3.14827e-05
-5.24443e-05
-3.70809e-05
-5.0242e-05
-4.3191e-05
-4.83936e-05
-4.95971e-05
-4.37709e-05
-5.66712e-05
-4.05703e-05
-6.22059e-05
-3.12076e-05
-6.7455e-05
-2.47218e-05
-6.65565e-05
-7.47683e-06
-6.0391e-05
2.72916e-06
-5.3463e-05
1.19453e-05
-4.58552e-05
1.68425e-05
-3.95165e-05
2.03798e-05
-3.37255e-05
2.24917e-05
-2.88858e-05
2.35552e-05
-2.47017e-05
2.41828e-05
-2.11439e-05
2.43227e-05
2.42639e-05
-1.80841e-05
-3.8035e-06
-5.24791e-05
-7.65318e-06
-5.22844e-05
-1.16018e-05
-5.18913e-05
-1.5693e-05
-5.12396e-05
-1.99873e-05
-5.03849e-05
-2.45281e-05
-4.90476e-05
-2.93757e-05
-4.75968e-05
-3.45407e-05
-4.50768e-05
-4.00846e-05
-4.28498e-05
-4.57207e-05
-3.81348e-05
-5.16337e-05
-3.46572e-05
-5.64085e-05
-2.64327e-05
-6.05208e-05
-2.06094e-05
-5.84029e-05
-9.59456e-06
-5.41419e-05
-1.53171e-06
-4.84519e-05
6.25549e-06
-4.25932e-05
1.09839e-05
-3.72535e-05
1.50401e-05
-3.22744e-05
1.75127e-05
-2.80013e-05
1.92822e-05
-2.42031e-05
2.03847e-05
-2.09412e-05
2.10608e-05
2.14109e-05
-1.80881e-05
-3.65198e-06
-4.88271e-05
-7.33413e-06
-4.86022e-05
-1.10759e-05
-4.81494e-05
-1.48984e-05
-4.74171e-05
-1.88312e-05
-4.6452e-05
-2.28594e-05
-4.50194e-05
-2.70318e-05
-4.34243e-05
-3.12187e-05
-4.08899e-05
-3.55715e-05
-3.84968e-05
-3.95636e-05
-3.41426e-05
-4.35989e-05
-3.06218e-05
-4.61669e-05
-2.38645e-05
-4.80846e-05
-1.86916e-05
-4.76988e-05
-9.9802e-06
-4.54504e-05
-3.78007e-06
-4.20856e-05
2.89083e-06
-3.81971e-05
7.09556e-06
-3.4266e-05
1.11092e-05
-3.03812e-05
1.3628e-05
-2.68333e-05
1.57343e-05
-2.3561e-05
1.71125e-05
-2.06418e-05
1.81416e-05
1.87955e-05
-1.80263e-05
-3.38799e-06
-4.54391e-05
-6.79604e-06
-4.51942e-05
-1.02518e-05
-4.46937e-05
-1.37609e-05
-4.39081e-05
-1.73578e-05
-4.28551e-05
-2.10123e-05
-4.13649e-05
-2.47715e-05
-3.9665e-05
-2.85006e-05
-3.71608e-05
-3.23044e-05
-3.4693e-05
-3.57377e-05
-3.07092e-05
-3.90737e-05
-2.72857e-05
-4.13051e-05
-2.16331e-05
-4.29434e-05
-1.70532e-05
-4.23677e-05
-1.05559e-05
-4.07803e-05
-5.36732e-06
-3.80164e-05
1.2701e-07
-3.49407e-05
4.0199e-06
-3.16374e-05
7.80596e-06
-2.83938e-05
1.03845e-05
-2.5326e-05
1.26665e-05
-2.2465e-05
1.42515e-05
-1.98621e-05
1.55387e-05
1.6433e-05
-1.74996e-05
-3.15183e-06
-4.22873e-05
-6.31297e-06
-4.2033e-05
-9.49433e-06
-4.15123e-05
-1.26923e-05
-4.07101e-05
-1.59193e-05
-3.96281e-05
-1.91304e-05
-3.81538e-05
-2.23563e-05
-3.64391e-05
-2.5443e-05
-3.4074e-05
-2.84929e-05
-3.16431e-05
-3.1091e-05
-2.8111e-05
-3.34955e-05
-2.48812e-05
-3.4985e-05
-2.01435e-05
-3.59555e-05
-1.60827e-05
-3.58226e-05
-1.06887e-05
-3.48524e-05
-6.33743e-06
-3.31024e-05
-1.62293e-06
-3.09792e-05
1.8968e-06
-2.85446e-05
5.37145e-06
-2.60432e-05
7.88308e-06
-2.35539e-05
1.01772e-05
-2.1161e-05
1.18588e-05
-1.89104e-05
1.32882e-05
1.4346e-05
-1.68234e-05
-2.8768e-06
-3.94105e-05
-5.75638e-06
-3.91535e-05
-8.64459e-06
-3.86241e-05
-1.15322e-05
-3.78224e-05
-1.44267e-05
-3.67336e-05
-1.72853e-05
-3.52952e-05
-2.01263e-05
-3.35981e-05
-2.28257e-05
-3.13746e-05
-2.54444e-05
-2.90243e-05
-2.76926e-05
-2.58628e-05
-2.97322e-05
-2.28416e-05
-3.10617e-05
-1.88139e-05
-3.19388e-05
-1.52056e-05
-3.1815e-05
-1.08124e-05
-3.1126e-05
-7.02636e-06
-2.97242e-05
-3.02468e-06
-2.80248e-05
1.97394e-07
-2.6008e-05
3.35477e-06
-2.39277e-05
5.80285e-06
-2.1807e-05
8.05661e-06
-1.97511e-05
9.80279e-06
-1.77834e-05
1.13205e-05
1.25017e-05
-1.5939e-05
-2.61858e-06
-3.67919e-05
-5.2341e-06
-3.65379e-05
-7.84341e-06
-3.60148e-05
-1.04342e-05
-3.52316e-05
-1.30026e-05
-3.41651e-05
-1.55065e-05
-3.27913e-05
-1.79524e-05
-3.11521e-05
-2.02291e-05
-2.90979e-05
-2.23829e-05
-2.68705e-05
-2.41801e-05
-2.40655e-05
-2.57426e-05
-2.12791e-05
-2.67444e-05
-1.78121e-05
-2.73746e-05
-1.45754e-05
-2.73822e-05
-1.08047e-05
-2.69394e-05
-7.46914e-06
-2.59915e-05
-3.97256e-06
-2.47594e-05
-1.03465e-06
-2.32435e-05
1.83896e-06
-2.16191e-05
4.17848e-06
-1.99068e-05
6.34439e-06
-1.82033e-05
8.0993e-06
-1.65314e-05
9.6486e-06
1.09048e-05
-1.49345e-05
-2.34995e-06
-3.44419e-05
-4.69361e-06
-3.41942e-05
-7.02391e-06
-3.36844e-05
-9.32832e-06
-3.29272e-05
-1.15976e-05
-3.18958e-05
-1.37991e-05
-3.05898e-05
-1.59274e-05
-2.90237e-05
-1.79059e-05
-2.71194e-05
-1.9751e-05
-2.50253e-05
-2.13133e-05
-2.25032e-05
-2.26591e-05
-1.99332e-05
-2.35651e-05
-1.6906e-05
-2.41427e-05
-1.39978e-05
-2.4187e-05
-1.07603e-05
-2.38742e-05
-7.782e-06
-2.31314e-05
-4.71529e-06
-2.21472e-05
-2.01873e-06
-2.09093e-05
6.01069e-07
-1.95648e-05
2.83401e-06
-1.81261e-05
4.90573e-06
-1.66785e-05
6.65179e-06
-1.52393e-05
8.20941e-06
9.51548e-06
-1.385e-05
-2.10039e-06
-3.23415e-05
-4.19186e-06
-3.21027e-05
-6.26377e-06
-3.16125e-05
-8.30286e-06
-3.0888e-05
-1.02959e-05
-2.99026e-05
-1.22136e-05
-2.86721e-05
-1.40462e-05
-2.71911e-05
-1.57302e-05
-2.54353e-05
-1.72748e-05
-2.34808e-05
-1.85647e-05
-2.12133e-05
-1.96461e-05
-1.88518e-05
-2.0377e-05
-1.61751e-05
-2.08402e-05
-1.35345e-05
-2.09253e-05
-1.06752e-05
-2.07257e-05
-7.98157e-06
-2.02016e-05
-5.2394e-06
-1.94645e-05
-2.75578e-06
-1.85134e-05
-3.49936e-07
-1.74488e-05
1.76941e-06
-1.62846e-05
3.74152e-06
-1.5088e-05
5.45524e-06
-1.38769e-05
6.99844e-06
8.32792e-06
-1.26893e-05
-1.84876e-06
-3.04927e-05
-3.68794e-06
-3.02635e-05
-5.50571e-06
-2.97947e-05
-7.29025e-06
-2.91034e-05
-9.02625e-06
-2.81666e-05
-1.06922e-05
-2.70061e-05
-1.22727e-05
-2.56106e-05
-1.37266e-05
-2.39814e-05
-1.50481e-05
-2.21593e-05
-1.61678e-05
-2.00935e-05
-1.71026e-05
-1.7917e-05
-1.77595e-05
-1.55181e-05
-1.81808e-05
-1.31132e-05
-1.82894e-05
-1.05666e-05
-1.81571e-05
-8.11385e-06
-1.77561e-05
-5.64041e-06
-1.71711e-05
-3.34074e-06
-1.64037e-05
-1.11735e-06
-1.55297e-05
8.95412e-07
-1.45634e-05
2.77522e-06
-1.35581e-05
4.44997e-06
-1.25307e-05
5.971e-06
7.31014e-06
-1.15129e-05
-1.62162e-06
-2.88711e-05
-3.23261e-06
-2.86524e-05
-4.82022e-06
-2.8207e-05
-6.37292e-06
-2.75507e-05
-7.87519e-06
-2.66643e-05
-9.30879e-06
-2.55725e-05
-1.06584e-05
-2.4261e-05
-1.18915e-05
-2.27482e-05
-1.30005e-05
-2.10502e-05
-1.39343e-05
-1.91597e-05
-1.47035e-05
-1.71478e-05
-1.52489e-05
-1.49726e-05
-1.56019e-05
-1.27602e-05
-1.57173e-05
-1.04511e-05
-1.56387e-05
-8.19243e-06
-1.53499e-05
-5.92915e-06
-1.49047e-05
-3.78594e-06
-1.43078e-05
-1.71427e-06
-1.36114e-05
1.9908e-07
-1.28298e-05
1.99367e-06
-1.20031e-05
3.62326e-06
-1.11475e-05
5.11532e-06
6.45187e-06
-1.02892e-05
-1.3896e-06
-2.74814e-05
-2.76984e-06
-2.72721e-05
-4.12912e-06
-2.68477e-05
-5.45762e-06
-2.62221e-05
-6.74051e-06
-2.53813e-05
-7.96401e-06
-2.4349e-05
-9.11199e-06
-2.3113e-05
-1.01631e-05
-2.16971e-05
-1.11049e-05
-2.01083e-05
-1.19066e-05
-1.83579e-05
-1.25664e-05
-1.6488e-05
-1.30477e-05
-1.44913e-05
-1.33634e-05
-1.24445e-05
-1.3486e-05
-1.03285e-05
-1.34439e-05
-8.23447e-06
-1.32299e-05
-6.14313e-06
-1.28819e-05
-4.13391e-06
-1.24071e-05
-2.18914e-06
-1.18432e-05
-3.6477e-07
-1.12044e-05
1.3549e-06
-1.05211e-05
2.93991e-06
-9.80814e-06
4.40228e-06
5.73036e-06
-9.08661e-06
-1.18572e-06
-2.62956e-05
-2.36176e-06
-2.6096e-05
-3.51678e-06
-2.56926e-05
-4.64161e-06
-2.50973e-05
-5.72298e-06
-2.42999e-05
-6.74965e-06
-2.33223e-05
-7.70762e-06
-2.2155e-05
-8.58082e-06
-2.08239e-05
-9.35832e-06
-1.93308e-05
-1.00184e-05
-1.76978e-05
-1.05587e-05
-1.59477e-05
-1.09562e-05
-1.40938e-05
-1.12197e-05
-1.21809e-05
-1.13332e-05
-1.0215e-05
-1.13147e-05
-8.25297e-06
-1.11607e-05
-6.29705e-06
-1.08961e-05
-4.39846e-06
-1.0528e-05
-2.55725e-06
-1.00826e-05
-8.10117e-07
-9.57232e-06
8.44647e-07
-9.01958e-06
2.38716e-06
-8.43754e-06
3.82019e-06
5.13582e-06
-7.84299e-06
-9.72439e-07
-2.53231e-05
-1.93785e-06
-2.51305e-05
-2.88738e-06
-2.4743e-05
-3.81367e-06
-2.41709e-05
-4.70516e-06
-2.34084e-05
-5.55289e-06
-2.24745e-05
-6.34404e-06
-2.13638e-05
-7.06736e-06
-2.01006e-05
-7.71166e-06
-1.86865e-05
-8.26325e-06
-1.71462e-05
-8.716e-06
-1.5495e-05
-9.05606e-06
-1.37537e-05
-9.28521e-06
-1.19517e-05
-9.39472e-06
-1.01054e-05
-9.39541e-06
-8.25225e-06
-9.28737e-06
-6.40505e-06
-9.08742e-06
-4.59838e-06
-8.80291e-06
-2.84173e-06
-8.4526e-06