/*--------------------------------*- C++ -*----------------------------------*\
| =========                 |                                                 |
| \\      /  F ield         | OpenFOAM: The Open Source CFD Toolbox           |
|  \\    /   O peration     | Version:  2012                                  |
|   \\  /    A nd           | Website:  www.openfoam.com                      |
|    \\/     M anipulation  |                                                 |
\*---------------------------------------------------------------------------*/
FoamFile
{
    version     2.0;
    format      ascii;
    class       volVectorField;
    location    "0.05";
    object      Uc;
}
// * * * * * * * * * * * * * * * * * * * * * * * * * * * * * * * * * * * * * //

dimensions      [0 1 -1 0 0 0 0];


internalField   nonuniform List<vector> 
2268
(
(0.018436 -0.00871274 0)
(0.0555407 -0.00882269 0)
(0.0934567 -0.00909616 0)
(0.132688 -0.00944423 0)
(0.174006 -0.0100822 0)
(0.218079 -0.0107465 0)
(0.266127 -0.0119607 0)
(0.319406 -0.0132184 0)
(0.379979 -0.0154083 0)
(0.450643 -0.0179867 0)
(0.536746 -0.0227052 0)
(0.651744 -0.0316418 0)
(0.794944 -0.0360338 0)
(0.943988 -0.0344012 0)
(1.09248 -0.0357093 0)
(1.22898 -0.028688 0)
(1.24999 0.0188094 0)
(1.05762 0.0721056 0)
(0.764009 0.0666531 0)
(0.527494 0.0451212 0)
(0.356144 0.0358562 0)
(0.210038 0.0331911 0)
(0.0699023 0.0330346 0)
(0.0183777 -0.0261106 0)
(0.0553642 -0.0264398 0)
(0.0931484 -0.0272545 0)
(0.132231 -0.0282965 0)
(0.173362 -0.0301946 0)
(0.217202 -0.0321817 0)
(0.264928 -0.0357876 0)
(0.317763 -0.03954 0)
(0.377622 -0.0460026 0)
(0.447404 -0.0537659 0)
(0.531087 -0.0671656 0)
(0.637775 -0.0919482 0)
(0.769265 -0.105544 0)
(0.915233 -0.104298 0)
(1.0651 -0.106613 0)
(1.17785 -0.0753062 0)
(1.15298 0.0673363 0)
(0.954735 0.208184 0)
(0.705064 0.187325 0)
(0.50631 0.130153 0)
(0.349621 0.105851 0)
(0.208251 0.0990523 0)
(0.0695601 0.0989421 0)
(0.0182614 -0.043426 0)
(0.0550119 -0.043972 0)
(0.0925333 -0.0453112 0)
(0.131321 -0.0470407 0)
(0.172079 -0.0501506 0)
(0.215461 -0.0534466 0)
(0.262541 -0.0593269 0)
(0.314496 -0.0655241 0)
(0.372988 -0.0759505 0)
(0.440797 -0.0888424 0)
(0.520823 -0.109457 0)
(0.618249 -0.146119 0)
(0.73739 -0.168696 0)
(0.880477 -0.176588 0)
(1.03474 -0.177736 0)
(1.11785 -0.0964129 0)
(1.02657 0.143383 0)
(0.812497 0.326998 0)
(0.615646 0.279534 0)
(0.466242 0.20248 0)
(0.333723 0.1702 0)
(0.203982 0.162826 0)
(0.069083 0.164463 0)
(0.0180898 -0.0606053 0)
(0.0544924 -0.0613644 0)
(0.0916272 -0.0632009 0)
(0.129981 -0.0656074 0)
(0.170193 -0.0698499 0)
(0.212914 -0.0744392 0)
(0.259047 -0.0823857 0)
(0.309721 -0.0909676 0)
(0.366297 -0.104887 0)
(0.431142 -0.122597 0)
(0.506437 -0.149106 0)
(0.594321 -0.194046 0)
(0.699238 -0.225535 0)
(0.828278 -0.247072 0)
(0.966101 -0.24485 0)
(1.00202 -0.085247 0)
(0.859859 0.242563 0)
(0.674509 0.416584 0)
(0.547593 0.342958 0)
(0.436383 0.262219 0)
(0.320348 0.227923 0)
(0.199 0.223764 0)
(0.0679352 0.229215 0)
(0.0178634 -0.0775966 0)
(0.0538065 -0.0785632 0)
(0.0904319 -0.0808607 0)
(0.128215 -0.0839294 0)
(0.167712 -0.0891982 0)
(0.209569 -0.095062 0)
(0.254483 -0.104791 0)
(0.303537 -0.115693 0)
(0.357776 -0.132532 0)
(0.41893 -0.154499 0)
(0.488743 -0.185781 0)
(0.567005 -0.23589 0)
(0.657935 -0.27625 0)
(0.7664 -0.308258 0)
(0.879654 -0.30175 0)
(0.875928 -0.0433283 0)
(0.712272 0.345183 0)
(0.568325 0.469589 0)
(0.492716 0.385664 0)
(0.41029 0.311023 0)
(0.314356 0.279291 0)
(0.203555 0.282106 0)
(0.0716158 0.295165 0)
(0.0175888 -0.0943511 0)
(0.0529741 -0.095518 0)
(0.0889846 -0.098233 0)
(0.12608 -0.101944 0)
(0.164727 -0.108114 0)
(0.205554 -0.115223 0)
(0.249056 -0.126415 0)
(0.296242 -0.139552 0)
(0.347829 -0.158686 0)
(0.404869 -0.184202 0)
(0.468729 -0.219251 0)
(0.537559 -0.271935 0)
(0.61523 -0.319884 0)
(0.701995 -0.356413 0)
(0.786018 -0.346179 0)
(0.750558 0.0197979 0)
(0.589173 0.435674 0)
(0.487085 0.495373 0)
(0.444196 0.415881 0)
(0.380218 0.349996 0)
(0.297442 0.324775 0)
(0.194146 0.337802 0)
(0.0683084 0.361292 0)
(0.0172632 -0.110822 0)
(0.0519863 -0.11218 0)
(0.087269 -0.115264 0)
(0.123548 -0.11959 0)
(0.161194 -0.126524 0)
(0.200804 -0.134827 0)
(0.242673 -0.147156 0)
(0.287701 -0.162391 0)
(0.336287 -0.183188 0)
(0.388902 -0.211522 0)
(0.446412 -0.249289 0)
(0.50613 -0.302648 0)
(0.571395 -0.356707 0)
(0.637564 -0.391314 0)
(0.691022 -0.375582 0)
(0.633943 0.0930696 0)
(0.494909 0.504383 0)
(0.432781 0.504273 0)
(0.412728 0.436727 0)
(0.369541 0.379795 0)
(0.308771 0.362813 0)
(0.219062 0.390975 0)
(0.0820391 0.432344 0)
(0.0168941 -0.126964 0)
(0.0508666 -0.128503 0)
(0.0853298 -0.131903 0)
(0.120695 -0.136809 0)
(0.157236 -0.144365 0)
(0.19551 -0.153794 0)
(0.235645 -0.166943 0)
(0.278397 -0.184087 0)
(0.323918 -0.205966 0)
(0.372244 -0.236448 0)
(0.423628 -0.275825 0)
(0.475064 -0.328641 0)
(0.528164 -0.386605 0)
(0.575496 -0.414467 0)
(0.5991 -0.388206 0)
(0.526891 0.166897 0)
(0.419171 0.547173 0)
(0.38944 0.504896 0)
(0.379529 0.450265 0)
(0.347789 0.401668 0)
(0.299514 0.392475 0)
(0.219851 0.441357 0)
(0.0841142 0.510867 0)
(0.0142249 -0.00605087 0)
(0.0428178 -0.00611181 0)
(0.0649088 -0.0032852 0)
(0.0775832 -0.00210628 0)
(0.0838205 -0.00054709 0)
(0.0846976 0.000173774 0)
(0.08241 0.000799027 0)
(0.0779192 0.00111093 0)
(0.0721825 0.00132894 0)
(0.0656951 0.00143024 0)
(0.0588371 0.00148658 0)
(0.0518067 0.0015036 0)
(0.0447354 0.00150406 0)
(0.0376891 0.00149286 0)
(0.0307034 0.00147833 0)
(0.0237874 0.00146323 0)
(0.0169376 0.00145024 0)
(0.01014 0.00144093 0)
(0.00337592 0.00143605 0)
(0.0141525 -0.0181218 0)
(0.0431471 -0.0185371 0)
(0.0657822 -0.00988538 0)
(0.0784285 -0.00627709 0)
(0.0845003 -0.00161263 0)
(0.0852013 0.000567584 0)
(0.0827324 0.00242791 0)
(0.0781189 0.00335407 0)
(0.0723011 0.00399996 0)
(0.0657607 0.00430013 0)
(0.0588673 0.00446547 0)
(0.0518152 0.00451426 0)
(0.0447313 0.00451397 0)
(0.037679 0.00447933 0)
(0.0306914 0.00443516 0)
(0.023776 0.00438927 0)
(0.0169285 0.00435011 0)
(0.0101342 0.00432187 0)
(0.00337392 0.00430734 0)
(0.015466 -0.0307207 0)
(0.0465444 -0.0314916 0)
(0.0697806 -0.0164433 0)
(0.0817583 -0.0101937 0)
(0.0868842 -0.00245951 0)
(0.0867664 0.00116594 0)
(0.0836889 0.00418821 0)
(0.0786813 0.00568566 0)
(0.0726147 0.00672292 0)
(0.0659259 0.00720383 0)
(0.0589426 0.00746395 0)
(0.0518391 0.00753648 0)
(0.0447266 0.00752982 0)
(0.0376602 0.00746848 0)
(0.0306674 0.00739244 0)
(0.0237528 0.00731425 0)
(0.0169098 0.00724814 0)
(0.0101223 0.00720045 0)
(0.00336986 0.00717601 0)
(0.0148552 -0.0436185 0)
(0.0469444 -0.0454635 0)
(0.0722136 -0.0231042 0)
(0.084263 -0.0137534 0)
(0.0888145 -0.00301662 0)
(0.0881566 0.00205257 0)
(0.0845944 0.00612534 0)
(0.0792552 0.00814922 0)
(0.0729458 0.00952323 0)
(0.0661035 0.0101587 0)
(0.0590198 0.0104922 0)
(0.0518559 0.0105765 0)
(0.0447092 0.0105547 0)
(0.0376265 0.0104616 0)
(0.0306289 0.01035 0)
(0.023717 0.0102374 0)
(0.0168813 0.010143 0)
(0.0101043 0.0100751 0)
(0.00336373 0.0100402 0)
(0.0185075 -0.05781 0)
(0.0557752 -0.0607743 0)
(0.0816698 -0.0295571 0)
(0.0915297 -0.0166204 0)
(0.0937356 -0.00302448 0)
(0.0912568 0.00339421 0)
(0.0864558 0.00834064 0)
(0.0803316 0.0108096 0)
(0.0735343 0.0124377 0)
(0.0664046 0.013187 0)
(0.05915 0.0135624 0)
(0.0518895 0.0136412 0)
(0.04469 0.0135919 0)
(0.0375826 0.01346 0)
(0.0305771 0.0133078 0)
(0.0236685 0.0131578 0)
(0.0168428 0.0130333 0)
(0.0100797 0.012944 0)
(0.00335533 0.0128981 0)
(0.0162932 -0.0726132 0)
(0.0549059 -0.0782482 0)
(0.0855336 -0.0361261 0)
(0.0957346 -0.0185851 0)
(0.0966928 -0.00240634 0)
(0.0933038 0.00527148 0)
(0.0877408 0.0108714 0)
(0.0811298 0.0136955 0)
(0.0739817 0.0154833 0)
(0.0666312 0.0163001 0)
(0.0592341 0.0166811 0)
(0.0518895 0.0167345 0)
(0.0446433 0.016643 0)
(0.0375151 0.0164639 0)
(0.0305055 0.0162651 0)
(0.023604 0.0160744 0)
(0.0167925 0.0159172 0)
(0.010048 0.0158053 0)
(0.00334453 0.0157479 0)
(0.0283133 -0.0915873 0)
(0.0778859 -0.0967853 0)
(0.103918 -0.0416908 0)
(0.107898 -0.0190531 0)
(0.104285 -0.000809531 0)
(0.097809 0.00787024 0)
(0.0903342 0.0138179 0)
(0.0825799 0.016859 0)
(0.0747532 0.018689 0)
(0.0670082 0.0195148 0)
(0.0593805 0.0198569 0)
(0.0519078 0.0198609 0)
(0.0445934 0.0197098 0)
(0.0374353 0.0194734 0)
(0.0304189 0.0192212 0)
(0.0235256 0.0189856 0)
(0.0167312 0.0187931 0)
(0.0100093 0.0186571 0)
(0.00333138 0.0185876 0)
(0.0482264 -0.124145 0)
(0.103967 -0.109025 0)
(0.115014 -0.0452237 0)
(0.114906 -0.017168 0)
(0.107813 0.00185889 0)
(0.100071 0.0112492 0)
(0.0916567 0.017197 0)
(0.0833624 0.020306 0)
(0.0751619 0.0220589 0)
(0.0671836 0.0228325 0)
(0.0594083 0.0230905 0)
(0.0518506 0.0230202 0)
(0.0444917 0.0227916 0)
(0.0373178 0.0224874 0)
(0.0303042 0.0221744 0)
(0.0234264 0.0218896 0)
(0.0166554 0.0216588 0)
(0.00996205 0.0214973 0)
(0.0033154 0.0214147 0)
(0.0162684 -0.151302 0)
(0.0489677 -0.15309 0)
(0.0820524 -0.156859 0)
(0.115883 -0.162573 0)
(0.150612 -0.170781 0)
(0.1867 -0.181742 0)
(0.224107 -0.195565 0)
(0.263337 -0.215104 0)
(0.304277 -0.237616 0)
(0.346547 -0.270127 0)
(0.389516 -0.309625 0)
(0.43044 -0.360287 0)
(0.468561 -0.418181 0)
(0.500398 -0.436311 0)
(0.49255 -0.36877 0)
(0.408022 0.266657 0)
(0.342789 0.563898 0)
(0.347125 0.497865 0)
(0.353446 0.455626 0)
(0.353243 0.411511 0)
(0.35743 0.401238 0)
(0.390514 0.436986 0)
(0.470965 0.498518 0)
(0.0152563 -0.182991 0)
(0.0458921 -0.185067 0)
(0.0767739 -0.189183 0)
(0.108167 -0.195813 0)
(0.140103 -0.204554 0)
(0.172875 -0.217188 0)
(0.206314 -0.231336 0)
(0.240605 -0.253238 0)
(0.275422 -0.275635 0)
(0.310067 -0.309425 0)
(0.343389 -0.347015 0)
(0.373429 -0.394232 0)
(0.398492 -0.447297 0)
(0.417014 -0.456459 0)
(0.377256 -0.299785 0)
(0.289512 0.370926 0)
(0.265953 0.548887 0)
(0.290896 0.483446 0)
(0.304863 0.449654 0)
(0.314744 0.407756 0)
(0.325858 0.389613 0)
(0.361221 0.379807 0)
(0.437839 0.397809 0)
(0.0141604 -0.212562 0)
(0.0425631 -0.214844 0)
(0.0710911 -0.219127 0)
(0.0999088 -0.226394 0)
(0.128969 -0.235288 0)
(0.158402 -0.248984 0)
(0.187991 -0.262898 0)
(0.217655 -0.285965 0)
(0.246962 -0.307368 0)
(0.275113 -0.340816 0)
(0.300811 -0.374951 0)
(0.322798 -0.418596 0)
(0.33903 -0.46374 0)
(0.348388 -0.466548 0)
(0.295792 -0.196035 0)
(0.221166 0.430432 0)
(0.223428 0.510791 0)
(0.25355 0.46619 0)
(0.271717 0.434609 0)
(0.28768 0.396822 0)
(0.303548 0.373425 0)
(0.327042 0.336831 0)
(0.363853 0.326763 0)
(0.0130101 -0.239874 0)
(0.0390727 -0.242281 0)
(0.0651634 -0.246593 0)
(0.0913544 -0.254224 0)
(0.117553 -0.263006 0)
(0.143757 -0.277193 0)
(0.169757 -0.290568 0)
(0.195282 -0.313771 0)
(0.219869 -0.333738 0)
(0.242804 -0.365798 0)
(0.262851 -0.395952 0)
(0.27924 -0.436172 0)
(0.290364 -0.472758 0)
(0.295992 -0.470978 0)
(0.244168 -0.0859088 0)
(0.183674 0.456153 0)
(0.193762 0.472658 0)
(0.218865 0.44881 0)
(0.23608 0.416424 0)
(0.25165 0.383312 0)
(0.265949 0.356611 0)
(0.280727 0.315174 0)
(0.29996 0.292084 0)
(0.0118402 -0.264854 0)
(0.0355293 -0.267312 0)
(0.0591726 -0.271555 0)
(0.0827662 -0.279306 0)
(0.106192 -0.287807 0)
(0.129355 -0.302017 0)
(0.152062 -0.314706 0)
(0.17393 -0.337275 0)
(0.19451 -0.355637 0)
(0.213235 -0.385777 0)
(0.229004 -0.411976 0)
(0.241341 -0.449025 0)
(0.249234 -0.477969 0)
(0.252609 -0.473138 0)
(0.205821 0.0160184 0)
(0.158524 0.462595 0)
(0.171891 0.442641 0)
(0.192463 0.432916 0)
(0.208419 0.398975 0)
(0.222619 0.370836 0)
(0.234761 0.342507 0)
(0.244761 0.304371 0)
(0.252566 0.275708 0)
(0.0106906 -0.287502 0)
(0.032053 -0.289951 0)
(0.053314 -0.294056 0)
(0.0744112 -0.30173 0)
(0.0952144 -0.309843 0)
(0.115569 -0.323726 0)
(0.13529 -0.335647 0)
(0.153972 -0.357096 0)
(0.171206 -0.373826 0)
(0.186561 -0.401847 0)
(0.19912 -0.424382 0)
(0.208583 -0.458533 0)
(0.214509 -0.481204 0)
(0.216474 -0.473584 0)
(0.17637 0.104358 0)
(0.139312 0.459063 0)
(0.15145 0.420538 0)
(0.166917 0.418795 0)
(0.180182 0.383724 0)
(0.191793 0.360143 0)
(0.20158 0.331158 0)
(0.209306 0.297903 0)
(0.214713 0.268895 0)
(0.00955239 -0.307851 0)
(0.0286202 -0.310243 0)
(0.047555 -0.314169 0)
(0.0662568 -0.321624 0)
(0.0845949 -0.329294 0)
(0.102381 -0.342614 0)
(0.119442 -0.353733 0)
(0.135395 -0.373827 0)
(0.149868 -0.388966 0)
(0.162529 -0.41487 0)
(0.172635 -0.434142 0)
(0.179964 -0.465652 0)
(0.184476 -0.483366 0)
(0.185201 -0.472456 0)
(0.151656 0.177729 0)
(0.122491 0.452269 0)
(0.132659 0.404912 0)
(0.144846 0.406624 0)
(0.156112 0.371237 0)
(0.165936 0.351086 0)
(0.173931 0.322341 0)
(0.179528 0.293329 0)
(0.182201 0.265347 0)
(0.00849724 -0.325995 0)
(0.0254394 -0.328298 0)
(0.0422189 -0.332016 0)
(0.0587088 -0.339153 0)
(0.0747771 -0.346352 0)
(0.0902246 -0.358963 0)
(0.104889 -0.369273 0)
(0.118435 -0.387941 0)
(0.130535 -0.401564 0)
(0.140949 -0.425468 0)
(0.149104 -0.441899 0)
(0.154842 -0.47103 0)
(0.158339 -0.484794 0)
(0.15734 -0.469124 0)
(0.128419 0.237579 0)
(0.105136 0.445147 0)
(0.113216 0.393695 0)
(0.122703 0.396058 0)
(0.131928 0.361207 0)
(0.139912 0.343216 0)
(0.146557 0.315495 0)
(0.15132 0.289762 0)
(0.153909 0.263623 0)
(0.00742531 -0.342001 0)
(0.0222224 -0.344197 0)
(0.036864 -0.347702 0)
(0.0512202 -0.354474 0)
(0.0651701 -0.361205 0)
(0.0785172 -0.373055 0)
(0.0911093 -0.382581 0)
(0.102657 -0.399858 0)
(0.112868 -0.412074 0)
(0.121551 -0.434155 0)
(0.128252 -0.448146 0)
(0.132814 -0.475137 0)
(0.135525 -0.485679 0)
(0.131574 -0.461695 0)
(0.105179 0.286079 0)
(0.0867431 0.43859 0)
(0.0934467 0.385394 0)
(0.101546 0.386684 0)
(0.109663 0.353152 0)
(0.116663 0.33621 0)
(0.1225 0.309954 0)
(0.126523 0.286473 0)
(0.128623 0.262199 0)
(0.00651289 -0.356012 0)
(0.0194767 -0.358092 0)
(0.0322667 -0.361382 0)
(0.0447431 -0.367767 0)
(0.0567853 -0.374041 0)
(0.0682074 -0.385118 0)
(0.0788687 -0.393892 0)
(0.0885341 -0.40987 0)
(0.0969597 -0.420797 0)
(0.10402 -0.441258 0)
(0.109383 -0.45317 0)
(0.112971 -0.478305 0)
(0.115037 -0.486087 0)
(0.106126 -0.446873 0)
(0.0790885 0.325231 0)
(0.0662104 0.43092 0)
(0.0734604 0.37904 0)
(0.0805086 0.377814 0)
(0.0877741 0.34656 0)
(0.0937372 0.329772 0)
(0.0989799 0.305255 0)
(0.102785 0.283305 0)
(0.10521 0.26082 0)
(0.00549247 -0.36808 0)
(0.0164265 -0.370046 0)
(0.0272211 -0.373135 0)
(0.0377598 -0.379149 0)
(0.0479485 -0.385006 0)
(0.0576244 -0.395361 0)
(0.0666658 -0.403455 0)
(0.0748727 -0.418273 0)
(0.0820321 -0.42806 0)
(0.0880141 -0.447105 0)
(0.0925398 -0.457263 0)
(0.0954877 -0.480783 0)
(0.0970922 -0.486122 0)
(0.0798675 -0.419185 0)
(0.049771 0.355182 0)
(0.0432564 0.420467 0)
(0.0515611 0.37386 0)
(0.0588518 0.368582 0)
(0.0664309 0.340871 0)
(0.0723997 0.323469 0)
(0.0777137 0.300947 0)
(0.0815468 0.279935 0)
(0.0842147 0.259072 0)
(0.00475706 -0.378383 0)
(0.0142102 -0.380237 0)
(0.0234963 -0.38313 0)
(0.0324829 -0.388781 0)
(0.0410648 -0.394242 0)
(0.04908 -0.403908 0)
(0.0564201 -0.411375 0)
(0.0629589 -0.425176 0)
(0.0685458 -0.43397 0)
(0.0731336 -0.45182 0)
(0.0765441 -0.460526 0)
(0.0788063 -0.482758 0)
(0.0800326 -0.485892 0)
(0.0558291 -0.376514 0)
(0.0232089 0.375713 0)
(0.023956 0.405736 0)
(0.0343403 0.369806 0)
(0.0403374 0.359281 0)
(0.0467934 0.336065 0)
(0.0516796 0.317365 0)
(0.056528 0.296838 0)
(0.0603676 0.276333 0)
(0.0634797 0.256864 0)
(0.00377769 -0.386962 0)
(0.0112877 -0.388709 0)
(0.0186776 -0.39142 0)
(0.0258541 -0.396738 0)
(0.0327504 -0.401844 0)
(0.0392581 -0.410905 0)
(0.0453015 -0.417831 0)
(0.0507549 -0.430774 0)
(0.0554951 -0.438753 0)
(0.0594697 -0.455644 0)
(0.062518 -0.463194 0)
(0.0644732 -0.484329 0)
(0.0657934 -0.485883 0)
(0.0283629 -0.313456 0)
(-0.0111385 0.385269 0)
(-0.00205567 0.386301 0)
(0.0103496 0.366333 0)
(0.0179451 0.349092 0)
(0.0260702 0.331598 0)
(0.0318804 0.311081 0)
(0.0374129 0.292688 0)
(0.0416781 0.272337 0)
(0.0453136 0.254078 0)
(0.00314691 -0.393923 0)
(0.00939843 -0.395582 0)
(0.0155334 -0.398143 0)
(0.0214559 -0.403183 0)
(0.0270887 -0.407994 0)
(0.032318 -0.416553 0)
(0.0370642 -0.423029 0)
(0.0412196 -0.435235 0)
(0.0446569 -0.442512 0)
(0.0473149 -0.458552 0)
(0.0489959 -0.46504 0)
(0.0497785 -0.485235 0)
(0.0510871 -0.486742 0)
(0.0250444 -0.247837 0)
(-0.00407244 0.388706 0)
(-0.00215929 0.371812 0)
(0.00203446 0.364138 0)
(0.0044225 0.341253 0)
(0.0082894 0.327384 0)
(0.0124563 0.305267 0)
(0.017141 0.288232 0)
(0.0216766 0.267947 0)
(0.025925 0.250543 0)
(0.00243041 -0.39953 0)
(0.0072562 -0.401111 0)
(0.0119872 -0.403537 0)
(0.0165509 -0.40833 0)
(0.0208973 -0.412878 0)
(0.0249578 -0.421008 0)
(0.0286724 -0.42708 0)
(0.0319761 -0.438683 0)
(0.034759 -0.445317 0)
(0.0369153 -0.460586 0)
(0.0382532 -0.46604 0)
(0.0384231 -0.485192 0)
(0.0426388 -0.491601 0)
(-0.00358645 -0.16954 0)
(-0.050377 0.386769 0)
(-0.034818 0.356187 0)
(-0.0216387 0.3623 0)
(-0.0160294 0.335052 0)
(-0.0100786 0.323717 0)
(-0.00516972 0.299812 0)
(0.000218976 0.283561 0)
(0.00513484 0.263117 0)
(0.00993236 0.246281 0)
(0.00172377 -0.403705 0)
(0.00514205 -0.405222 0)
(0.00848264 -0.40754 0)
(0.0116796 -0.412128 0)
(0.0146821 -0.416467 0)
(0.0174094 -0.424242 0)
(0.0198145 -0.429997 0)
(0.021815 -0.441098 0)
(0.0233556 -0.447248 0)
(0.024319 -0.461791 0)
(0.0245628 -0.466425 0)
(0.0240338 -0.483044 0)
(0.0226132 -0.494472 0)
(0.015257 -0.11209 0)
(0.00734067 0.384344 0)
(-0.0082673 0.35866 0)
(-0.0250504 0.36345 0)
(-0.0303997 0.333642 0)
(-0.0312095 0.31996 0)
(-0.0273741 0.29478 0)
(-0.0220824 0.277859 0)
(-0.015701 0.257465 0)
(-0.00948049 0.240858 0)
(0.00113426 -0.406579 0)
(0.00338198 -0.408045 0)
(0.00557621 -0.410281 0)
(0.00769122 -0.414727 0)
(0.00970845 -0.418914 0)
(0.0116168 -0.426455 0)
(0.0134007 -0.431995 0)
(0.0151126 -0.442832 0)
(0.0167433 -0.448703 0)
(0.0184499 -0.463022 0)
(0.020211 -0.467212 0)
(0.0231645 -0.483302 0)
(0.0249612 -0.4925 0)
(-0.0151813 -0.0655889 0)
(-0.0485788 0.3794 0)
(-0.0409213 0.371596 0)
(-0.0426248 0.369098 0)
(-0.0454491 0.336212 0)
(-0.0445846 0.317337 0)
(-0.0415107 0.290459 0)
(-0.0362855 0.271609 0)
(-0.0300302 0.251013 0)
(-0.0233756 0.234369 0)
(0.00053407 -0.408517 0)
(0.00160576 -0.409971 0)
(0.00267275 -0.412174 0)
(0.00368831 -0.416545 0)
(0.00459548 -0.420632 0)
(0.00532762 -0.428031 0)
(0.00584147 -0.433419 0)
(0.00605149 -0.444096 0)
(0.00604835 -0.449903 0)
(0.00659832 -0.465023 0)
(0.00971212 -0.47125 0)
(0.0282216 -0.502692 0)
(0.01826 -0.465195 0)
(-0.0133209 -0.0198526 0)
(-0.00140763 0.355277 0)
(-0.0235865 0.410316 0)
(-0.0738649 0.382632 0)
(-0.086429 0.338147 0)
(-0.0843752 0.312469 0)
(-0.0755133 0.28333 0)
(-0.0649343 0.262852 0)
(-0.0539369 0.242427 0)
(-0.0437973 0.226073 0)
(0.00013969 -0.411003 0)
(0.000400424 -0.412445 0)
(0.000602631 -0.414604 0)
(0.000709464 -0.418888 0)
(0.000741883 -0.4229 0)
(0.000726205 -0.430178 0)
(0.00072969 -0.435518 0)
(0.000958005 -0.446202 0)
(0.00260414 -0.453257 0)
(0.00932994 -0.472858 0)
(0.0376746 -0.499002 0)
(0.115868 -0.576451 0)
(0.243172 -0.511831 0)
(0.280328 0.0214737 0)
(0.157232 0.426165 0)
(0.0126236 0.507105 0)
(-0.0627674 0.41217 0)
(-0.0870778 0.345678 0)
(-0.0913146 0.307134 0)
(-0.0857674 0.274182 0)
(-0.0762061 0.251756 0)
(-0.0655817 0.23179 0)
(-0.0551406 0.216023 0)
(-0.0108347 -0.401808 0)
(-0.0327807 -0.402952 0)
(-0.055384 -0.404684 0)
(-0.0791932 -0.408079 0)
(-0.104491 -0.411397 0)
(-0.131903 -0.41718 0)
(-0.161409 -0.421909 0)
(-0.193633 -0.430672 0)
(-0.227518 -0.439375 0)
(-0.264547 -0.459236 0)
(-0.303044 -0.505261 0)
(-0.355156 -0.598887 0)
(-0.404084 -0.570003 0)
(-0.462652 0.10089 0)
(-0.486059 0.494482 0)
(-0.388512 0.486125 0)
(-0.274094 0.393925 0)
(-0.210294 0.324231 0)
(-0.166193 0.288511 0)
(-0.135161 0.256036 0)
(-0.110873 0.235877 0)
(-0.0914659 0.217482 0)
(-0.0753201 0.203606 0)
(-0.0105626 -0.380307 0)
(-0.0319351 -0.380925 0)
(-0.0539652 -0.381861 0)
(-0.0772252 -0.383604 0)
(-0.10218 -0.385373 0)
(-0.129693 -0.388009 0)
(-0.160271 -0.390697 0)
(-0.195635 -0.393958 0)
(-0.23686 -0.400601 0)
(-0.291448 -0.405929 0)
(-0.374856 -0.43604 0)
(-0.528198 -0.461597 0)
(-0.741304 -0.443901 0)
(-0.788824 0.0814421 0)
(-0.610177 0.357898 0)
(-0.418714 0.332201 0)
(-0.297354 0.310846 0)
(-0.224289 0.269733 0)
(-0.176953 0.251097 0)
(-0.143384 0.228512 0)
(-0.11867 0.214143 0)
(-0.0989358 0.19987 0)
(-0.0828785 0.188847 0)
(-0.0112296 -0.358401 0)
(-0.0339171 -0.35854 0)
(-0.0572131 -0.358682 0)
(-0.0815992 -0.358888 0)
(-0.107475 -0.358993 0)
(-0.135446 -0.358614 0)
(-0.166084 -0.358555 0)
(-0.200398 -0.356058 0)
(-0.240062 -0.357189 0)
(-0.286877 -0.347407 0)
(-0.345727 -0.351559 0)
(-0.423636 -0.313617 0)
(-0.518474 -0.282324 0)
(-0.562471 0.0118683 0)
(-0.496935 0.182022 0)
(-0.393397 0.21154 0)
(-0.313009 0.22871 0)
(-0.250618 0.215708 0)
(-0.204049 0.210729 0)
(-0.167796 0.198695 0)
(-0.139091 0.190264 0)
(-0.11598 0.180681 0)
(-0.0969569 0.172774 0)
(-0.0107669 -0.33629 0)
(-0.0324971 -0.336002 0)
(-0.0547998 -0.335383 0)
(-0.0781232 -0.334228 0)
(-0.102913 -0.332723 0)
(-0.129838 -0.3297 0)
(-0.159526 -0.326828 0)
(-0.193191 -0.31945 0)
(-0.232022 -0.314892 0)
(-0.278171 -0.296254 0)
(-0.333909 -0.287524 0)
(-0.399361 -0.23354 0)
(-0.469337 -0.196723 0)
(-0.48378 -0.014983 0)
(-0.426318 0.0852375 0)
(-0.356839 0.134408 0)
(-0.294307 0.162179 0)
(-0.241756 0.1667 0)
(-0.200523 0.171478 0)
(-0.167092 0.167901 0)
(-0.140294 0.165266 0)
(-0.118279 0.160318 0)
(-0.10012 0.155762 0)
(-0.0108539 -0.314556 0)
(-0.0327191 -0.313912 0)
(-0.0550352 -0.312621 0)
(-0.078114 -0.310346 0)
(-0.102251 -0.307423 0)
(-0.127744 -0.302309 0)
(-0.154921 -0.297058 0)
(-0.18399 -0.286157 0)
(-0.215409 -0.277566 0)
(-0.248996 -0.253425 0)
(-0.28517 -0.23796 0)
(-0.319006 -0.183296 0)
(-0.347944 -0.147534 0)
(-0.359619 -0.0379146 0)
(-0.340663 0.0313547 0)
(-0.305527 0.0831328 0)
(-0.26652 0.111387 0)
(-0.229095 0.127048 0)
(-0.196545 0.136964 0)
(-0.168017 0.140135 0)
(-0.143802 0.141753 0)
(-0.123026 0.140818 0)
(-0.105268 0.139158 0)
(-0.0102067 -0.293385 0)
(-0.030744 -0.292459 0)
(-0.0516707 -0.290605 0)
(-0.0732455 -0.287474 0)
(-0.0957478 -0.283411 0)
(-0.119457 -0.276861 0)
(-0.14465 -0.269861 0)
(-0.171519 -0.257123 0)
(-0.200257 -0.246129 0)
(-0.230258 -0.220941 0)
(-0.26125 -0.202926 0)
(-0.289931 -0.155485 0)
(-0.313779 -0.122281 0)
(-0.319131 -0.0460501 0)
(-0.302013 0.00323012 0)
(-0.27531 0.0490967 0)
(-0.244319 0.0750619 0)
(-0.214268 0.0955455 0)
(-0.186578 0.107912 0)
(-0.161749 0.115554 0)
(-0.14009 0.120221 0)
(-0.121144 0.122422 0)
(-0.104735 0.123208 0)
(-0.00980008 -0.273274 0)
(-0.0294812 -0.272142 0)
(-0.0494034 -0.26986 0)
(-0.0697019 -0.266127 0)
(-0.0905132 -0.261218 0)
(-0.111877 -0.253746 0)
(-0.133883 -0.24553 0)
(-0.156315 -0.231896 0)
(-0.179231 -0.219433 0)
(-0.201625 -0.194968 0)
(-0.223166 -0.17609 0)
(-0.240886 -0.135677 0)
(-0.252923 -0.106015 0)
(-0.257034 -0.052803 0)
(-0.249965 -0.0143286 0)
(-0.234902 0.0246722 0)
(-0.215438 0.0487695 0)
(-0.194455 0.0705379 0)
(-0.173481 0.0840023 0)
(-0.153535 0.0944569 0)
(-0.135233 0.101149 0)
(-0.118618 0.105748 0)
(-0.103765 0.108457 0)
(-0.00909167 -0.254284 0)
(-0.0273288 -0.253016 0)
(-0.0457478 -0.250445 0)
(-0.0644378 -0.24635 0)
(-0.0835067 -0.240906 0)
(-0.102966 -0.233022 0)
(-0.122861 -0.224134 0)
(-0.142955 -0.210542 0)
(-0.16317 -0.19743 0)
(-0.182591 -0.174938 0)
(-0.200756 -0.156206 0)
(-0.215696 -0.12273 0)
(-0.226081 -0.0964218 0)
(-0.228932 -0.0553961 0)
(-0.223127 -0.0246751 0)
(-0.211451 0.00814064 0)
(-0.19578 0.029984 0)
(-0.178662 0.0510236 0)
(-0.161093 0.0647738 0)
(-0.144157 0.0766112 0)
(-0.128247 0.0846045 0)
(-0.113585 0.0908528 0)
(-0.10026 0.0950289 0)
(-0.00845792 -0.236642 0)
(-0.0253987 -0.235296 0)
(-0.0424188 -0.232541 0)
(-0.0595378 -0.228258 0)
(-0.0767791 -0.222499 0)
(-0.0940556 -0.214502 0)
(-0.111329 -0.205291 0)
(-0.128269 -0.192156 0)
(-0.144737 -0.178942 0)
(-0.159893 -0.158668 0)
(-0.173317 -0.14072 0)
(-0.183767 -0.112693 0)
(-0.190368 -0.0893843 0)
(-0.192616 -0.0573072 0)
(-0.189656 -0.0315736 0)
(-0.182356 -0.00403526 0)
(-0.171963 0.0159603 0)
(-0.159732 0.0355461 0)
(-0.146486 0.0492768 0)
(-0.133093 0.0616212 0)
(-0.119992 0.0704326 0)
(-0.107531 0.0777607 0)
(-0.0958913 0.0830265 0)
(-0.00771987 -0.22038 0)
(-0.0231671 -0.219001 0)
(-0.0386449 -0.216168 0)
(-0.0541444 -0.211842 0)
(-0.0696607 -0.205986 0)
(-0.0850991 -0.198129 0)
(-0.100394 -0.188925 0)
(-0.115262 -0.176548 0)
(-0.129533 -0.163651 0)
(-0.142593 -0.145595 0)
(-0.154099 -0.128732 0)
(-0.16314 -0.105088 0)
(-0.169062 -0.0844003 0)
(-0.171083 -0.0579992 0)
(-0.168902 -0.0360489 0)
(-0.163291 -0.012537 0)
(-0.154969 0.00564909 0)
(-0.144997 0.023539 0)
(-0.134002 0.0369179 0)
(-0.122729 0.0491859 0)
(-0.111521 0.0584321 0)
(-0.100723 0.066382 0)
(-0.0904937 0.0724218 0)
(-0.00702695 -0.205556 0)
(-0.0210726 -0.204178 0)
(-0.0350935 -0.201339 0)
(-0.0490479 -0.197063 0)
(-0.0628926 -0.19125 0)
(-0.076504 -0.183664 0)
(-0.0897868 -0.174664 0)
(-0.10246 -0.163125 0)
(-0.114349 -0.150777 0)
(-0.124952 -0.134682 0)
(-0.133967 -0.119016 0)
(-0.140849 -0.0987988 0)
(-0.145228 -0.0803343 0)
(-0.14694 -0.0583121 0)
(-0.145772 -0.0391017 0)
(-0.14204 -0.0188751 0)
(-0.13619 -0.0022585 0)
(-0.128816 0.0140101 0)
(-0.120389 0.0269247 0)
(-0.111435 0.0388467 0)
(-0.102268 0.048291 0)
(-0.0932105 0.0565643 0)
(-0.0844385 0.063139 0)
(-0.00630607 -0.192154 0)
(-0.0189013 -0.1908 0)
(-0.0314439 -0.188014 0)
(-0.0438811 -0.183859 0)
(-0.0561547 -0.1782 0)
(-0.0681521 -0.170971 0)
(-0.0797709 -0.162324 0)
(-0.0907914 -0.151646 0)
(-0.101052 -0.139989 0)
(-0.110196 -0.125619 0)
(-0.118 -0.11117 0)
(-0.124042 -0.0936521 0)
(-0.128024 -0.0770761 0)
(-0.129693 -0.0581716 0)
(-0.128972 -0.04114 0)
(-0.126139 -0.0234355 0)
(-0.121505 -0.00823651 0)
(-0.115542 0.00658199 0)
(-0.108612 0.0189162 0)
(-0.101143 0.0303472 0)
(-0.0933981 0.0397911 0)
(-0.0856514 0.0481721 0)
(-0.0780611 0.0550837 0)
(-0.00563638 -0.180149 0)
(-0.0168852 -0.178836 0)
(-0.0280576 -0.176139 0)
(-0.0390895 -0.172142 0)
(-0.0499098 -0.166701 0)
(-0.0604043 -0.159859 0)
(-0.0704681 -0.15164 0)
(-0.079905 -0.141766 0)
(-0.0885688 -0.130845 0)
(-0.0961751 -0.117925 0)
(-0.102539 -0.104623 0)
(-0.107402 -0.0892363 0)
(-0.110606 -0.0742684 0)
(-0.112078 -0.0578223 0)
(-0.11177 -0.0425223 0)
(-0.109828 -0.0268528 0)
(-0.106444 -0.0128793 0)
(-0.101913 0.000677433 0)
(-0.0965045 0.0124178 0)
(-0.0905233 0.023326 0)
(-0.084188 0.0326588 0)
(-0.0777271 0.0410232 0)
(-0.0712904 0.0481327 0)
(-0.00496114 -0.169496 0)
(-0.0148577 -0.168233 0)
(-0.0246711 -0.165646 0)
(-0.0343379 -0.161827 0)
(-0.0437852 -0.156642 0)
(-0.0529143 -0.150192 0)
(-0.061626 -0.142433 0)
(-0.0697688 -0.133302 0)
(-0.0772165 -0.123114 0)
(-0.0837676 -0.111425 0)
(-0.0892809 -0.0991838 0)
(-0.0935521 -0.0854925 0)
(-0.0964456 -0.0718822 0)
(-0.0978677 -0.0572997 0)
(-0.0978041 -0.0434175 0)
(-0.0963729 -0.0293483 0)
(-0.0937269 -0.0164454 0)
(-0.0900977 -0.00395802 0)
(-0.0856929 0.00718837 0)
(-0.0807545 0.0175789 0)
(-0.0754639 0.0267193 0)
(-0.0700091 0.0349851 0)
(-0.0645207 0.0421837 0)
(-0.00435162 -0.160134 0)
(-0.0130263 -0.158926 0)
(-0.0216097 -0.15646 0)
(-0.0300368 -0.152825 0)
(-0.0382347 -0.147907 0)
(-0.0461131 -0.141831 0)
(-0.0535817 -0.134529 0)
(-0.0605123 -0.126053 0)
(-0.0667976 -0.116558 0)
(-0.0722796 -0.105886 0)
(-0.0768495 -0.0945875 0)
(-0.0803772 -0.082249 0)
(-0.0827881 -0.0697935 0)
(-0.084045 -0.0566953 0)
(-0.0841438 -0.0439863 0)
(-0.0831579 -0.0312089 0)
(-0.0811882 -0.0192242 0)
(-0.0783916 -0.00763831 0)
(-0.074921 0.0029524 0)
(-0.0709549 0.0128641 0)
(-0.0666391 0.0217776 0)
(-0.0621245 0.0299054 0)
(-0.0575251 0.0371231 0)
(-0.00372898 -0.152011 0)
(-0.0111618 -0.150857 0)
(-0.0185133 -0.14851 0)
(-0.025726 -0.145052 0)
(-0.0327336 -0.140393 0)
(-0.0394595 -0.134663 0)
(-0.0458234 -0.127792 0)
(-0.0517245 -0.119892 0)
(-0.0570726 -0.111025 0)
(-0.0617514 -0.101204 0)
(-0.0656734 -0.0907329 0)
(-0.0687355 -0.0794792 0)
(-0.0708743 -0.0679897 0)
(-0.0720504 -0.0560531 0)
(-0.0722664 -0.0443116 0)
(-0.0715792 -0.032565 0)
(-0.0700711 -0.0213638 0)
(-0.0678629 -0.0105295 0)
(-0.0650756 -0.000446949 0)
(-0.0618483 0.0090328 0)
(-0.0583005 0.0177042 0)
(-0.0545535 0.0256738 0)
(-0.050704 0.0328616 0)
(-0.00318187 -0.145064 0)
(-0.00951965 -0.143961 0)
(-0.015775 -0.141728 0)
(-0.021893 -0.138434 0)
(-0.0278133 -0.134015 0)
(-0.0334702 -0.128593 0)
(-0.038796 -0.122111 0)
(-0.04371 -0.114701 0)
(-0.0481396 -0.106387 0)
(-0.0519973 -0.0972606 0)
(-0.0552185 -0.0874956 0)
(-0.0577352 -0.0771083 0)
(-0.0595091 -0.0664272 0)
(-0.0605208 -0.0554161 0)
(-0.0607755 -0.044475 0)
(-0.0603125 -0.0335574 0)
(-0.0591893 -0.0230161 0)
(-0.0574914 -0.0128034 0)
(-0.0553083 -0.00316926 0)
(-0.0527439 0.0059333 0)
(-0.0498913 0.0143698 0)
(-0.0468461 0.0221802 0)
(-0.0436887 0.0293116 0)
(-0.00260954 -0.139242 0)
(-0.00780975 -0.138184 0)
(-0.0129485 -0.13605 0)
(-0.0179822 -0.132901 0)
(-0.0228602 -0.128693 0)
(-0.0275274 -0.123537 0)
(-0.0319254 -0.117392 0)
(-0.0359894 -0.110394 0)
(-0.0396594 -0.102552 0)
(-0.0428686 -0.0939919 0)
(-0.0455637 -0.0848168 0)
(-0.0476912 -0.0751185 0)
(-0.0492187 -0.065098 0)
(-0.0501275 -0.0548144 0)
(-0.0504232 -0.0445229 0)
(-0.0501352 -0.034264 0)
(-0.0493087 -0.024269 0)
(-0.0480086 -0.0145638 0)
(-0.0463051 -0.00531564 0)
(-0.0442779 0.0034641 0)
(-0.0420017 0.0116834 0)
(-0.0395513 0.0193422 0)
(-0.0369922 0.0264032 0)
(-0.00211292 -0.134494 0)
(-0.00631895 -0.133475 0)
(-0.0104632 -0.131427 0)
(-0.0145066 -0.1284 0)
(-0.0184076 -0.12437 0)
(-0.022124 -0.119433 0)
(-0.0256115 -0.113569 0)
(-0.0288225 -0.106903 0)
(-0.0317125 -0.0994475 0)
(-0.0342338 -0.0913354 0)
(-0.0363489 -0.0826377 0)
(-0.0380219 -0.0734769 0)
(-0.0392323 -0.0639869 0)
(-0.0399693 -0.0542706 0)
(-0.0402378 -0.0444991 0)
(-0.0400584 -0.0347573 0)
(-0.0394629 -0.0252046 0)
(-0.038497 -0.0159054 0)
(-0.0372118 -0.00697832 0)
(-0.035665 0.00153386 0)
(-0.033912 0.00956339 0)
(-0.0320099 0.017087 0)
(-0.0300102 0.0240758 0)
(-0.00158269 -0.130779 0)
(-0.00473835 -0.12979 0)
(-0.00786089 -0.127807 0)
(-0.0109242 -0.124875 0)
(-0.013896 -0.120985 0)
(-0.0167414 -0.116221 0)
(-0.0194234 -0.110578 0)
(-0.0219037 -0.104172 0)
(-0.0241458 -0.0970192 0)
(-0.0261129 -0.0892514 0)
(-0.0277745 -0.0809248 0)
(-0.0291032 -0.0721719 0)
(-0.0300822 -0.0630906 0)