/*--------------------------------*- C++ -*----------------------------------*\
| =========                 |                                                 |
| \\      /  F ield         | OpenFOAM: The Open Source CFD Toolbox           |
|  \\    /   O peration     | Version:  2012                                  |
|   \\  /    A nd           | Website:  www.openfoam.com                      |
|    \\/     M anipulation  |                                                 |
\*---------------------------------------------------------------------------*/
FoamFile
{
    version     2.0;
    format      ascii;
    class       volScalarField;
    location    "0.05";
    object      volumeFraction1;
}
// * * * * * * * * * * * * * * * * * * * * * * * * * * * * * * * * * * * * * //

dimensions      [0 0 0 0 0 0 0];


internalField   nonuniform List<scalar> 
2268
(
1
1
1
1
1
1
1
1
1
1
1
1
1
0.926372
0.356959
0.0106167
4.31573e-06
1.77288e-12
6.26669e-15
7.79483e-16
4.74917e-17
1.59342e-18
2.5466e-20
1
1
1
1
1
1
1
1
1
1
1
1
1
0.776355
0.167998
0.00489274
3.15683e-06
2.35502e-12
9.32212e-15
9.9736e-16
5.53563e-17
1.75492e-18
2.55368e-20
1
1
1
1
1
1
1
1
1
1
1
1
1
0.606108
0.0551259
0.000624436
6.57178e-07
3.90977e-12
2.81847e-14
1.90093e-15
7.88713e-17
2.07875e-18
2.70643e-20
1
1
1
1
1
1
1
1
1
1
1
1
0.977439
0.449212
0.0202104
5.09503e-05
1.79168e-08
1.18558e-12
3.90029e-14
1.66878e-15
5.86328e-17
1.46972e-18
1.87885e-20
1
1
1
1
1
1
1
1
1
1
1
1
0.939001
0.329782
0.00877318
6.28195e-06
5.51861e-10
2.3897e-13
1.40201e-14
6.60514e-16
2.45395e-17
6.41581e-19
8.57962e-21
1
1
1
1
1
1
1
1
1
1
1
1
0.893959
0.240717
0.0037702
8.86813e-07
2.30077e-11
6.46585e-14
3.88165e-15
1.9059e-16
7.26946e-18
1.93923e-19
2.66568e-21
1
1
1
1
1
1
1
1
1
1
1
1
0.84666
0.17486
0.00158571
1.24551e-07
1.30915e-12
1.86822e-14
1.07298e-15
5.3441e-17
2.20986e-18
6.95024e-20
1.17033e-21
1
1
1
1
1
1
1
1
1
1
1
1
0.801482
0.128383
0.000669203
1.60023e-08
1.18839e-13
4.66858e-15
2.7837e-16
1.55979e-17
7.45421e-19
2.68844e-20
8.72082e-22
1.11345e-44
4.1489e-46
2.17321e-48
1.02179e-50
3.88952e-53
1.35406e-55
4.53046e-58
1.407e-60
3.97383e-63
1.0019e-65
2.22166e-68
4.26555e-71
6.97233e-74
9.50102e-77
1.04989e-79
9.03987e-83
5.69307e-86
2.33393e-89
9.35938e-93
7.50262e-42
2.8531e-43
1.57102e-45
7.71103e-48
3.05088e-50
1.10126e-52
3.80432e-55
1.21628e-57
3.52819e-60
9.12049e-63
2.0705e-65
4.06496e-68
6.78721e-71
9.43915e-74
1.06371e-76
9.33379e-80
5.98681e-83
2.49884e-86
5.09862e-90
2.44135e-39
9.30264e-41
5.47467e-43
2.83313e-45
1.17971e-47
4.48696e-50
1.6165e-52
5.354e-55
1.60117e-57
4.25338e-60
9.89804e-63
1.98835e-65
3.39204e-68
4.81427e-71
5.53122e-74
4.94427e-77
3.2283e-80
1.37084e-83
2.84408e-87
4.94998e-37
1.88235e-38
1.18631e-40
6.49921e-43
2.8486e-45
1.141e-47
4.29282e-50
1.47712e-52
4.56793e-55
1.25064e-57
2.9915e-60
6.16401e-63
1.07672e-65
1.56256e-68
1.83346e-71
1.67209e-74
1.11291e-77
4.81372e-81
1.01662e-84
7.19954e-35
2.63981e-36
1.83185e-38
1.0797e-40
5.10267e-43
2.20319e-45
8.77387e-48
3.15835e-50
1.0133e-52
2.86253e-55
7.03659e-58
1.48578e-60
2.65374e-63
3.93121e-66
4.70221e-69
4.36672e-72
2.9568e-75
1.3001e-78
2.78939e-82
7.6497e-33
2.63475e-34
1.97855e-36
1.25084e-38
6.27158e-41
2.88396e-43
1.20901e-45
4.55016e-48
1.51694e-50
4.43366e-53
1.12358e-55
2.43912e-58
4.46877e-61
6.77821e-64
8.2887e-67
7.85925e-70
5.42775e-73
2.4319e-76
5.31258e-80
6.43378e-31
1.96934e-32
1.67927e-34
1.1695e-36
6.54054e-39
3.30821e-41
1.48773e-43
5.90991e-46
2.05685e-48
6.23012e-51
1.6275e-53
3.62827e-56
6.80673e-59
1.05485e-61
1.31558e-64
1.27044e-67
8.92534e-71
4.06409e-74
9.01559e-78
3.99244e-29
1.00994e-30
9.36728e-33
7.12581e-35
4.31429e-37
2.33152e-39
1.10578e-41
4.59891e-44
1.66521e-46
5.22344e-49
1.40774e-51
3.22807e-54
6.21366e-57
9.86032e-60
1.2571e-62
1.23921e-65
8.87631e-69
4.11666e-72
9.29355e-76
1
1
1
1
1
1
1
1
1
1
1
1
0.735631
0.0825582
0.000222267
1.25581e-09
1.45652e-14
9.88622e-16
7.78427e-17
5.52207e-18
3.31636e-19
1.71822e-20
8.74414e-22
1
1
1
1
1
1
1
1
1
1
1
1
0.647852
0.0414706
4.42729e-05
5.67693e-11
3.45853e-15
3.61425e-16
3.18322e-17
2.21283e-18
1.26272e-19
6.35808e-21
3.54005e-22
1
1
1
1
1
1
1
1
1
1
1
1
0.565519
0.0200449
9.255e-06
3.30443e-12
1.90187e-15
2.1207e-16
1.63528e-17
9.8595e-19
4.9645e-20
2.21268e-21
9.64878e-23
1
1
1
1
1
1
1
1
1
1
1
1
0.490352
0.0111437
2.79517e-06
5.99928e-13
1.46807e-15
1.31845e-16
8.10253e-18
3.99398e-19
1.67754e-20
6.283e-22
2.20646e-23
1
1
1
1
1
1
1
1
1
1
1
1
0.423866
0.00706976
9.69829e-07
2.30201e-13
1.17962e-15
7.88501e-17
3.78214e-18
1.50551e-19
5.20988e-21
1.62511e-22
4.66777e-24
1
1
1
1
1
1
1
1
1
1
1
1
0.366546
0.00450884
3.44625e-07
1.04674e-13
8.83112e-16
4.22083e-17
1.546e-18
4.87589e-20
1.36956e-21
3.52427e-23
8.39848e-25
1
1
1
1
1
1
1
1
1
1
1
1
0.31654
0.00287258
1.21197e-07
4.80366e-14
5.7612e-16
1.94776e-17
5.44654e-19
1.36631e-20
3.13829e-22
6.70933e-24
1.33815e-25
1
1
1
1
1
1
1
1
1
1
1
1
0.272723
0.00182154
4.13472e-08
2.09254e-14
3.01924e-16
7.24407e-18
1.55419e-19
3.11782e-21
5.90704e-23
1.06321e-24
1.81497e-26
1
1
1
1
1
1
1
1
1
1
1
1
0.234122
0.00114466
1.33073e-08
8.25324e-15
1.18093e-16
2.075e-18
3.51059e-20
5.79747e-22
9.34333e-24
1.4591e-25
2.1918e-27
1
1
1
1
1
1
1
1
1
1
1
1
0.199754
0.000707353
3.84728e-09
2.70325e-15
3.30534e-17
4.4222e-19
6.15252e-21
8.72135e-23
1.24846e-24
1.76198e-26
2.41576e-28
1
1
1
1
1
1
1
1
1
1
1
1
0.168909
0.000427991
8.87854e-10
6.05665e-16
5.77179e-18
6.48342e-20
8.4517e-22
1.15417e-23
1.59706e-25
2.13863e-27
2.73283e-29
1
1
1
1
1
1
1
1
1
1
1
1
0.140474
0.000248475
1.43502e-10
8.34195e-17
7.78229e-19
9.18571e-21
1.25774e-22
1.67555e-24
2.16179e-26
2.61181e-28
2.96307e-30
1
1
1
1
1
1
1
1
1
1
1
1
0.115135
0.000140728
6.2146e-20
9.03383e-18
1.73887e-19
2.03564e-21
2.6519e-23
3.05725e-25
3.34919e-27
3.36679e-29
3.17699e-31
1
1
1
1
1
1
1
1
1
1
1
1
0.0924875
7.61708e-05
6.19753e-20
2.45304e-18
6.93895e-20
5.99019e-22
5.04369e-24
4.13959e-26
3.41361e-28
2.73658e-30
2.13103e-32
1
1
1
1
1
1
1
1
1
1
1
1
0.0751435
5.42018e-05
6.2146e-20
6.48742e-18
6.5978e-20
3.41804e-22
1.35937e-24
5.20677e-27
2.51927e-29
1.51354e-31
9.69803e-34
1
1
1
1
1
1
1
1
1
1
1
1
0.0620652
1.83892e-05
5.58426e-13
2.49804e-17
5.48115e-20
1.14679e-22
2.6496e-25
5.76654e-28
1.79603e-30
7.16921e-33
3.34522e-35
0.999815
0.99981
0.9998
0.999784
0.999764
0.999733
0.9997
0.999645
0.999598
0.999482
0.999147
0.988347
0.0777793
8.64768e-05
9.87533e-19
5.81986e-18
1.8734e-19
1.11886e-22
3.47088e-26
4.72337e-29
1.05625e-31
3.01123e-34
1.0462e-36
0.913798
0.912855
0.911131
0.908238
0.904883
0.899913
0.895188
0.887831
0.882087
0.869607
0.846056
0.744232
0.0794272
9.8783e-19
9.86636e-19
8.88631e-15
8.08642e-20
5.3849e-23
3.53552e-27
2.92923e-30
5.01724e-33
1.09296e-35
2.9307e-38
0.25277
0.251249
0.24852
0.244057
0.238982
0.231759
0.225123
0.215287
0.20773
0.192066
0.163567
0.109838
0.102518
0.00912838
1.51185e-06
1.93253e-13
8.48361e-24
8.48352e-24
3.0368e-28
1.44718e-31
1.94172e-34
3.39212e-37
7.24937e-40
4.04855e-37
2.64012e-37
-7.49742e-38
3.69859e-38
-3.67149e-38
1.52805e-36
-2.81908e-37
-2.12551e-33
-1.85226e-32
-1.61459e-30
1.33678e-29
3.36479e-28
3.02541e-22
0.000539173
6.19611e-24
5.37644e-14
6.22046e-19
7.46385e-25
2.15874e-29
5.83362e-33
6.24087e-36
8.99674e-39
1.57666e-41
2.31215e-19
2.25401e-19
2.14137e-19
2.00493e-19
2.19783e-19
2.47328e-18
1.20991e-16
4.68245e-15
1.31779e-13
2.69087e-12
3.7998e-11
3.80243e-10
2.69949e-09
6.60755e-09
4.69354e-24
5.23989e-15
3.05729e-19
4.51925e-26
1.19086e-30
1.86384e-34
1.63791e-37
2.00184e-40
2.96393e-43
5.4939e-33
1.74638e-30
4.04143e-28
4.95005e-26
3.98281e-24
2.19146e-22
8.22894e-21
2.03479e-19
2.75249e-18
4.75114e-18
4.76937e-18
4.86604e-18
5.88607e-18
1.88913e-13
3.41242e-17
2.62433e-16
2.9129e-20
1.92427e-27
4.86913e-32
4.72086e-36
3.50384e-39
3.73885e-42
4.79715e-45
1.6633e-35
9.19857e-33
2.37732e-30
3.78553e-28
4.12272e-26
3.232e-24
1.86448e-22
7.99405e-21
2.52576e-19
5.84692e-18
9.20955e-17
9.21533e-16
4.43114e-15
6.52939e-15
1.94253e-18
7.3262e-18
1.34606e-21
5.5909e-29
1.45822e-33
9.30076e-38
6.0344e-41
5.76884e-44
6.59207e-47
2.17468e-43
1.07195e-40
2.44281e-38
3.39282e-36
3.18722e-34
2.12802e-32
1.03239e-30
3.66406e-29
9.46627e-28
1.74227e-26
1.01718e-25
3.35182e-27
4.61446e-24
5.62423e-22
2.18375e-20
1.10007e-19
3.29366e-23
1.09993e-30
3.13593e-35
1.41974e-39
8.32524e-43
7.34195e-46
7.66562e-49
2.0296e-48
1.10515e-45
2.80431e-43
4.38165e-41
4.70817e-39
3.69469e-37
2.21936e-35
1.08131e-33
4.66648e-32
1.96927e-30
8.36638e-29
3.36447e-27
1.18743e-25
3.6664e-24
1.05455e-22
9.38096e-22
4.60314e-25
1.49138e-32
4.85934e-37
1.67679e-41
9.18119e-45
7.66636e-48
7.49703e-51
1.92423e-53
1.15849e-50
3.41081e-48
6.69833e-46
1.01602e-43
1.2952e-41
1.44146e-39
1.40236e-37
1.18194e-35
8.52663e-34
5.28681e-32
2.81314e-30
1.31723e-28
5.47746e-27
2.0849e-25
3.83983e-24
3.64205e-27
1.36676e-34
5.3645e-39
1.5219e-43
8.05331e-47
6.55184e-50
6.14949e-53
4.72641e-58
4.82779e-55
2.44884e-52
8.1168e-50
1.95868e-47
3.63728e-45
5.3864e-43
6.50297e-41
6.52731e-39
5.50816e-37
3.97902e-35
2.47961e-33
1.36589e-31
6.72347e-30
3.07423e-28
6.78061e-27
1.66001e-29
8.54393e-37
4.24999e-41
1.06354e-45
5.62526e-49
4.58022e-52
4.22375e-55
1.34812e-62
1.56856e-59
8.83395e-57
3.19862e-54
8.35427e-52
1.67325e-49
2.67443e-47
3.4977e-45
3.82845e-43
3.55091e-41
2.84619e-39
1.98532e-37
1.22913e-35
6.79038e-34
3.37564e-32
7.76086e-31
3.92333e-32
3.5002e-39
2.38527e-43
5.67157e-48
3.11783e-51
2.61422e-54
2.42647e-57
4.9196e-70
5.06733e-67
2.79837e-64
1.08895e-61
3.26979e-59
7.86333e-57
1.55015e-54
2.54583e-52
3.54688e-50
4.24321e-48
4.4416e-46
4.10866e-44
3.43175e-42
2.61777e-40
1.8686e-38
1.26225e-36
4.16065e-35
9.25932e-42
9.50077e-46
2.31115e-50
1.37461e-53
1.22014e-56
1.16717e-59
5.64008e-75
8.58319e-72
6.40455e-69
3.10378e-66
1.09489e-63
2.99011e-61
6.58451e-59
1.20098e-56
1.85822e-54
2.47655e-52
2.9e-50
3.01624e-48
2.83907e-46
2.44137e-44
1.95039e-42
1.46075e-40
5.32116e-39
1.44857e-44
2.62089e-48
7.11624e-53
4.80388e-56
4.6525e-59
4.70317e-62
1.49648e-82
1.30641e-79
5.33516e-77
1.35142e-74
2.37302e-72
3.05576e-70
2.97858e-68
2.23422e-66
1.30626e-64
6.11931e-63
2.64403e-61
1.56194e-59
1.51371e-57
1.72008e-55
1.92973e-53
2.09861e-51
2.24089e-49
1.19702e-47
4.92031e-51
1.65125e-55
1.33305e-58
1.45339e-61
1.59215e-64
1.89345e-88
1.82474e-85
8.22622e-83
2.30277e-80
4.48223e-78
6.4528e-76
7.20336e-74
6.64873e-72
5.83889e-70
6.08281e-68
8.11504e-66
1.19195e-63
1.72009e-61
2.36429e-59
3.1179e-57
3.99101e-55
5.02318e-53
3.17646e-51
5.95506e-54
2.84392e-58
2.92616e-61
3.72146e-64
4.53795e-67
2.31331e-94
2.47883e-91
1.24045e-88
3.84624e-86
8.25863e-84
1.29946e-81
1.54494e-79
1.40802e-77
9.865e-76
5.26108e-74
2.09677e-72
6.22274e-71
1.74952e-69
1.11629e-67
1.46476e-65
2.2258e-63
3.49429e-61
5.48721e-59
4.3277e-57
3.59424e-61
5.08197e-64
7.83975e-67
1.09386e-69
3.01923e-100
3.66672e-97
2.07915e-94
7.30611e-92
1.77859e-89
3.17514e-87
4.28673e-85
4.44207e-83
3.54585e-81
2.171e-79
1.04344e-77
5.19516e-76
5.75354e-74
1.12374e-71
2.28392e-69
4.48582e-67
8.60061e-65
1.62365e-62
1.53679e-60
3.25099e-64
6.95749e-67
1.36228e-69
2.23976e-72
1.44435e-106
2.03778e-103
1.34214e-100
5.47768e-98
1.54868e-95
3.21154e-93
5.03989e-91
6.09198e-89
5.76732e-87
4.56244e-85
4.07453e-83
6.63931e-81
1.59295e-78
3.94987e-76
9.42458e-74
2.17108e-71
4.91359e-69
1.1017e-66
1.26205e-64
2.04336e-67
7.50441e-70
1.96334e-72
3.9217e-75
7.04638e-113
1.15978e-109
8.90844e-107
4.23974e-104
1.39765e-101
3.37825e-99
6.17091e-97
8.63946e-95
9.278e-93
7.53975e-91
4.48466e-89
1.81771e-87
4.23095e-86
3.46149e-85
4.02143e-83
1.35914e-80
4.5277e-78
1.50258e-75
5.00956e-73
8.49698e-71
6.36373e-73
2.36088e-75
5.9161e-78
9.46052e-123
1.65263e-119
1.32896e-116
6.51166e-114
2.1648e-111
5.14302e-109
8.95184e-107
1.166e-104
1.28181e-102
2.17308e-100
8.50404e-98
4.08446e-95
1.89143e-92
8.35753e-90
3.56488e-87
1.48328e-84
6.08435e-82
2.48988e-79
1.02425e-76
2.14693e-74
4.25024e-76
2.39102e-78
7.76688e-81
3.50386e-134
2.29129e-130
7.39603e-127
1.57694e-123
2.50634e-120
3.17967e-117
3.36633e-114
3.07207e-111
2.47738e-108
1.80147e-105
1.20181e-102
7.4665e-100
4.38061e-97
2.45723e-94
1.33327e-91
7.06916e-89
3.70158e-86
1.94304e-83
1.02779e-80
2.78527e-78
2.24484e-79
2.06334e-81
8.97768e-84
9.07624e-141
7.77553e-137
3.27622e-133
9.08128e-130
1.86903e-126
3.06024e-123
4.17082e-120
4.89197e-117
5.06574e-114
4.72963e-111
4.05317e-108
3.23951e-105
2.45118e-102
1.77984e-99
1.25497e-96
8.68223e-94
5.96928e-91
4.20724e-88
3.00759e-85
1.12906e-82
9.50044e-83
1.54228e-84
9.27189e-87
3.49151e-149
1.94441e-145
1.01518e-141
3.55969e-138
9.58706e-135
2.14625e-131
4.1824e-128
7.25588e-125
1.12758e-121
1.56809e-118
1.94682e-115
2.15565e-112
2.13117e-109
1.8884e-106
1.51407e-103
1.12353e-100
8.12053e-98
6.24799e-95
5.58383e-92
5.79489e-89
3.28549e-86
1.01858e-87
8.69722e-90
6.9039e-159
7.71666e-155
4.34798e-151
1.68065e-147
1.01374e-143
5.02061e-140
2.0769e-136
7.40046e-133
2.32431e-129
6.55712e-126
1.68796e-122
4.02096e-119
8.97719e-116
1.90057e-112
3.85765e-109
7.58151e-106
1.45646e-102
2.761e-99
5.22774e-96
9.9485e-93
9.63307e-90
6.09967e-91
7.55791e-93
8.08376e-172
3.09793e-167
5.80307e-163
7.14458e-159
6.59633e-155
4.95566e-151
3.19002e-147
3.63919e-143
3.69803e-139
3.37171e-135
2.80684e-131
2.16668e-127
1.57269e-123
1.08706e-119
7.23889e-116
4.69243e-112
2.98939e-108
1.89022e-104
1.20047e-100
7.69102e-97
2.51908e-93
3.40583e-94
6.2047e-96
6.72345e-23
5.74084e-24
4.00032e-25
2.50711e-26
2.67753e-23
2.61065e-24
2.16882e-25
1.49906e-26
5.58342e-24
4.25843e-25
2.77074e-26
1.53603e-27
1.01316e-24
6.40027e-26
3.58933e-27
1.75281e-28
1.70095e-25
8.63443e-27
3.96896e-28
1.62692e-29
2.54466e-26
1.09092e-27
4.29854e-29
1.53371e-30
3.39239e-27
1.23122e-28
4.15729e-30
1.28998e-31
3.98392e-28
1.26697e-29
3.78369e-31
1.0482e-32
4.26718e-29
1.21322e-30
3.25558e-32
8.14359e-34
4.30451e-30
1.11813e-31
2.7319e-33
6.20852e-35
4.4619e-31
1.04744e-32
2.29072e-34
4.63894e-36
4.26306e-32
8.76368e-34
1.67429e-35
2.967e-37
3.81537e-33
6.56333e-35
1.0561e-36
1.59255e-38
2.1778e-34
3.20809e-36
4.459e-38
5.8672e-40
8.48357e-36
1.07792e-37
1.31227e-39
1.5339e-41
2.31944e-37
2.48797e-39
2.6244e-41
2.78347e-43
5.77801e-39
5.26003e-41
4.84551e-43
4.5708e-45
1.30409e-40
1.01637e-42
8.23531e-45
6.93511e-47
2.64681e-42
1.78368e-44
1.27958e-46
9.65474e-49
4.80256e-44
2.83117e-46
1.80917e-48
1.22895e-50
7.68966e-46
4.01591e-48
2.30151e-50
1.41588e-52
1.08089e-47
5.06395e-50
2.62257e-52
1.47105e-54
1.31697e-49
5.60651e-52
2.64645e-54
1.36393e-56
1.38525e-51
5.42568e-54
2.35616e-56
1.1249e-58
1.24945e-53
4.55646e-56
1.83798e-58
8.19731e-61
9.63312e-56
3.30925e-58
1.2525e-60
5.26384e-63
6.33261e-58
2.07218e-60
7.43297e-63
2.96909e-65
3.5444e-60
1.11701e-62
3.83603e-65
1.4692e-67
1.6895e-62
5.18267e-65
1.72098e-67
6.37458e-70
6.86182e-65
2.07072e-67
6.71509e-70
2.42637e-72
2.38031e-67
7.13958e-70
2.28304e-72
8.11569e-75
7.06997e-70
2.12954e-72
6.77994e-75
2.39112e-77
1.80589e-72
5.51772e-75
1.76558e-77
6.2287e-80
3.98596e-75
1.24782e-77
4.05044e-80
1.44098e-82
7.65297e-78
2.47879e-80
8.23627e-83
2.97797e-85
1.28789e-80
4.3574e-83
1.495e-85
5.53506e-88
1.91803e-83
6.84052e-86
2.44343e-88
9.32888e-91
2.55567e-86
9.68977e-89
3.631e-91
1.43883e-93
3.08722e-89
1.25386e-91
4.96252e-94
2.05269e-96
3.43003e-92
1.50192e-94
6.31439e-97
2.73954e-99
3.5646e-95
1.69115e-97
7.5863e-100
3.46513e-102
3.52111e-98
1.81578e-100
8.71697e-103
4.20214e-105
8.70901e-28
1.58307e-29
1.96798e-31
1.8743e-33
1.4153e-35
8.87122e-38
4.67966e-40
2.10662e-42
8.10693e-45
2.6692e-47
7.48235e-50
1.773e-52
3.50905e-55
5.70376e-58
7.4262e-61
7.45832e-64
5.43253e-67
2.55818e-70
5.85676e-74
5.37173e-28
9.52453e-30
1.14334e-31
1.03346e-33
7.41632e-36
4.41812e-38
2.21586e-40
9.48649e-43
3.47352e-45
1.08887e-47
2.90862e-50
6.57472e-53
1.24284e-55
1.93221e-58
2.40983e-61
2.32221e-64
1.62574e-67
7.37145e-71
1.62803e-74
4.28299e-29
6.54105e-31
7.67483e-33
7.18701e-35
5.42851e-37
3.38568e-39
1.76059e-41
7.71919e-44
2.86501e-46
9.02567e-49
2.4072e-51
5.40657e-54
1.01199e-56
1.55414e-59
1.91172e-62
1.81525e-65
1.25168e-68
5.58964e-72
1.21616e-75
4.47071e-30
6.3995e-32
7.18023e-34
6.4533e-36
4.71067e-38
2.84759e-40
1.44003e-42
6.1549e-45
2.23127e-47
6.87437e-50
1.79481e-52
3.94893e-55
7.24524e-58
1.09125e-60
1.31725e-63
1.22812e-66
8.32027e-70
3.65301e-73
7.81989e-77
3.5605e-31
4.5869e-33
4.8356e-35
4.19281e-37
3.00716e-39
1.80079e-41
9.05694e-44
3.84949e-46
1.38632e-48
4.2347e-51
1.09437e-53
2.37955e-56
4.30977e-59
6.40248e-62
7.61866e-65
7.00003e-68
4.67286e-71
2.02149e-74
4.26419e-78
2.97098e-32
3.47205e-34
3.39537e-36
2.77145e-38
1.89584e-40
1.09238e-42
5.32575e-45
2.20545e-47
7.7692e-50
2.32741e-52
5.90949e-55
1.2638e-57
2.25275e-60
3.29443e-63
3.85915e-66
3.48995e-69
2.29236e-72
9.75445e-76
2.02313e-79
2.20449e-33
2.33354e-35
2.11672e-37
1.63378e-39
1.07244e-41
5.98736e-44
2.84765e-46
1.15468e-48
3.99189e-51
1.17448e-53
2.92932e-56
6.15113e-59
1.07592e-61
1.54271e-64
1.77036e-67
1.56698e-70
1.00654e-73
4.18501e-77
8.47489e-81
1.61329e-34
1.5623e-36
1.3158e-38
9.54327e-41
5.94731e-43
3.17666e-45
1.45434e-47
5.70042e-50
1.91066e-52
5.45971e-55
1.32386e-57
2.70339e-60
4.59798e-63
6.40786e-66
7.14292e-69
6.13698e-72
3.82371e-75
1.54097e-78
3.02265e-82
1.13624e-35
1.00905e-37
7.8816e-40
5.3568e-42
3.15451e-44
1.60206e-46
7.00526e-49
2.63012e-51
8.46049e-54
2.32258e-56
5.41335e-59
1.0627e-61
1.73751e-64
2.32726e-67
2.49276e-70
2.05743e-73
1.2312e-76
4.76466e-80
8.97351e-84
7.85523e-37
6.36264e-39
4.56258e-41
2.86546e-43
1.56862e-45
7.44482e-48
3.05601e-50
1.08114e-52
3.28692e-55
8.54842e-58
1.89109e-60
3.52867e-63
5.4899e-66
7.00322e-69
7.14904e-72
5.6268e-75
3.21254e-78
1.1867e-81
2.13425e-85
5.21656e-38
3.77829e-40
2.44041e-42
1.39148e-44
6.96547e-47
3.04294e-49
1.15619e-51
3.80434e-54
1.08008e-56
2.63204e-59
5.47135e-62
9.6165e-65
1.41218e-67
1.7034e-70
1.64682e-73
1.22926e-76
6.66456e-80
2.34052e-83
4.00647e-87
2.92215e-39
1.87158e-41
1.07876e-43
5.53758e-46
2.5152e-48
1.00425e-50
3.50936e-53
1.06798e-55
2.81776e-58
6.4079e-61
1.24749e-63
2.05978e-66
2.84908e-69
3.24454e-72
2.96751e-75
2.09939e-78
1.08056e-81
3.60813e-85
5.8811e-89
1.3448e-40
7.50126e-43
3.8163e-45
1.74986e-47
7.17079e-50
2.60602e-52
8.3508e-55
2.34549e-57
5.74273e-60
1.21769e-62
2.21936e-65
3.4428e-68
4.48775e-71
4.82926e-74
4.18369e-77
2.80951e-80
1.37531e-83
4.37552e-87
6.80647e-91
4.33524e-42
2.1499e-44
9.83094e-47
4.08736e-49
1.52973e-51
5.11045e-54
1.51385e-56
3.95084e-59
9.02847e-62
1.79401e-64
3.07495e-67
4.5001e-70
5.5495e-73
5.66392e-76
4.66433e-79
2.98371e-82
1.39395e-85
4.24009e-89
6.31675e-93
1.00705e-43
4.51454e-46
1.8827e-48
7.18664e-51
2.48267e-53
7.69427e-56
2.12381e-58
5.18629e-61
1.11308e-63
2.08436e-66
3.37716e-69
4.68501e-72
5.49048e-75
5.33749e-78
4.19546e-81
2.56659e-84
1.14878e-87
3.35339e-91
4.80217e-95
1.65532e-45
6.90811e-48
2.68665e-50
9.58149e-53
3.09906e-55
9.01611e-58
2.34228e-60
5.39804e-63
1.0962e-65
1.94724e-68
2.9999e-71
3.96596e-74
4.43845e-77
4.1284e-80
3.11054e-83
1.8271e-86
7.86491e-90
2.21136e-93
3.05481e-97
2.38752e-47
8.6567e-50
3.0204e-52
1.01415e-54
3.09482e-57
8.51183e-60
2.09466e-62
4.58296e-65
8.85463e-68
1.49969e-70
2.20735e-73
2.79343e-76
2.99802e-79
2.67881e-82
1.94201e-85
1.09924e-88
4.56638e-92
1.24079e-95
1.6587e-99
3.20619e-49
1.01587e-51
3.13495e-54
9.36506e-57
2.55946e-59
6.59386e-62
1.54755e-64
3.23534e-67
5.9819e-70
9.71063e-73
1.37205e-75
1.6694e-78
1.72513e-81
1.48634e-84
1.04043e-87
5.69392e-91
2.2898e-94
6.03085e-98
7.82429e-102
3.97947e-51
1.109e-53
3.048e-56
8.15135e-59
2.00747e-61
4.69825e-64
1.00606e-66
1.94374e-69
3.45292e-72
5.39415e-75
7.34458e-78
8.62301e-81
8.60957e-84
7.176e-87
4.8651e-90
2.58174e-93
1.00787e-96
2.57963e-100
3.25584e-104
4.54934e-53
1.12239e-55
2.76545e-58
6.66208e-61
1.4874e-63
3.1807e-66
6.24736e-69
1.11388e-71
1.83425e-74
2.66961e-77
3.43815e-80
3.9082e-83
3.78264e-86
3.05934e-89
2.01464e-92
1.03942e-95
3.94881e-99
9.84505e-103
1.21162e-106
4.74515e-55
1.04514e-57
2.3267e-60
5.08522e-63
1.03615e-65
2.0369e-68
3.69048e-71
6.10471e-74
9.36271e-77
1.27497e-79
1.54405e-82
1.65712e-85
1.52095e-88
1.1716e-91
7.4847e-95
3.76305e-98
1.39424e-101
3.39261e-105
4.07771e-109
4.50138e-57
8.92582e-60
1.80948e-62
3.61368e-65
6.76505e-68
1.23014e-70
2.06769e-73
3.18987e-76
4.57829e-79
5.85854e-82
6.69892e-85
6.81164e-88
5.94698e-91
4.37495e-94
2.68058e-97
1.29726e-100
4.64448e-104
1.09623e-107
1.28289e-111
3.847e-59
6.93994e-62
1.29304e-64
2.37901e-67
4.12269e-70
6.98039e-73
1.09512e-75
1.5845e-78
2.13886e-81
2.58349e-84
2.8003e-87
2.70744e-90
2.25558e-93
1.58904e-96
9.36092e-100
4.36914e-103
1.51388e-106
3.47009e-110
3.9572e-114
2.95357e-61
4.89947e-64
8.46848e-67
1.44733e-69
2.33941e-72
3.71288e-75
5.47028e-78
7.46464e-81
9.52447e-84
1.09087e-86
1.12559e-89
1.03852e-92
8.28231e-96
5.60322e-99
3.18063e-102
1.43455e-105
4.81799e-109
1.07375e-112
1.19417e-116
2.02402e-63
3.12413e-66
5.06102e-69
8.10757e-72
1.23234e-74
1.84627e-77
2.571e-80
3.32797e-83
4.03464e-86
4.40209e-89
4.34193e-92
3.83691e-95
2.93868e-98
1.91453e-101
1.04983e-104
4.58448e-108
1.49478e-111
3.24274e-115
3.51997e-119
1.23519e-65
1.79579e-68
2.75507e-71
4.17476e-74
6.01669e-77
8.56953e-80
1.13522e-82
1.40204e-85
1.62346e-88
1.69525e-91
1.605e-94
1.36342e-97
1.00605e-100
6.32945e-104
3.36069e-107
1.42368e-110
4.51339e-114
9.54199e-118
1.01173e-121
6.69122e-68
9.27984e-71
1.3629e-73
1.97206e-76
2.71802e-79
3.70716e-82
4.70277e-85
5.57455e-88
6.19775e-91
6.22307e-94
5.67891e-97
4.65438e-100
3.31941e-103
2.02234e-106
1.0421e-109
4.29076e-113
1.32461e-116
2.7322e-120
2.8318e-124
3.21419e-70
4.30774e-73
6.12255e-76
8.54055e-79
1.13541e-81
1.49376e-84
1.82663e-87
2.09047e-90
2.2433e-93
2.17599e-96
1.9219e-99
1.52526e-102
1.05468e-105
6.23963e-109
3.12734e-112
1.25388e-115
3.775e-119
7.60508e-123
7.71053e-127
1.36821e-72
1.79539e-75
2.49654e-78
3.38969e-81
4.38442e-84
5.60464e-87
6.65036e-90
7.39141e-93
7.69581e-96
7.24486e-99
6.2186e-102
4.79591e-105
3.22532e-108
1.85798e-111
9.0774e-115
3.55055e-118
1.04398e-121
2.05638e-125
2.04087e-129
5.16433e-75
6.72327e-78
9.24651e-81
1.2337e-83
1.56588e-86
1.95898e-89
2.2703e-92
2.4647e-95
2.50262e-98
2.29689e-101
1.92365e-104
1.44673e-107
9.49138e-111
5.33801e-114
2.54759e-117
9.73846e-121
2.80047e-124
5.39901e-128
5.24862e-132
1.73107e-77
2.26535e-80
3.11459e-83
4.12231e-86
5.17758e-89
6.38443e-92
7.27283e-95
7.75601e-98
7.71868e-101
6.93697e-104
5.69066e-107
4.18772e-110
2.68803e-113
1.47972e-116
6.91284e-120
2.58697e-123
7.28553e-127
1.37609e-130
1.31122e-134
5.16544e-80
6.88405e-83
9.56195e-86
1.26707e-88
1.58769e-91
1.94306e-94
2.18919e-97
2.30594e-100
2.26005e-103
1.99743e-106
1.61097e-109
1.16378e-112
7.32927e-116
3.95887e-119
1.81398e-122
6.65667e-126
1.83831e-129
3.40503e-133
3.18209e-137
1.37695e-82
1.89281e-85
2.68338e-88
3.59192e-91
4.52564e-94
5.53378e-97
6.2032e-100
6.48767e-103
6.29109e-106
5.48993e-109
4.36867e-112
3.10771e-115
1.92543e-118
1.02284e-121
4.60546e-125
1.65984e-128
4.50043e-132
8.18206e-136
7.50359e-140
3.29332e-85
4.72799e-88
6.90885e-91
9.42243e-94
1.20265e-96
1.47865e-99
1.65845e-102
1.73077e-105
1.66777e-108
1.44254e-111
1.13639e-114
7.98348e-118
4.87829e-121
2.55425e-124
1.13214e-127
4.01328e-131
1.06958e-134
1.91028e-138
1.72011e-142
7.10645e-88
1.07826e-90
1.63937e-93
2.29648e-96
2.99018e-99
3.71879e-102
4.1954e-105
4.38922e-108
4.21995e-111
3.63077e-114
2.84029e-117
1.97597e-120
1.19359e-123
6.17219e-127
2.6975e-130
9.41802e-134
2.46981e-137
4.33677e-141
3.83619e-145
1.39231e-90
2.2581e-93
3.60362e-96
5.22428e-99
6.98432e-102
8.83499e-105
1.00744e-107
1.06111e-110
1.0217e-113
8.77279e-117
6.83454e-120
4.72015e-123
2.82464e-126
1.44521e-129
6.23725e-133
2.14749e-136
5.54692e-140
9.58277e-144
8.6762e-148
2.49571e-93
4.37199e-96
7.38278e-99
1.11531e-101
1.53989e-104
1.99123e-107
2.30502e-110
2.45363e-113
2.37397e-116
2.04027e-119
1.58701e-122
1.0905e-125
6.47731e-129
3.28444e-132
1.4017e-135
4.76455e-139
1.21323e-142
2.06398e-146
3.96243e-150
4.12719e-96
7.88349e-99
1.41888e-101
2.24732e-104
3.22103e-107
4.27657e-110
5.04501e-113
5.44569e-116
5.31009e-119
4.57977e-122
3.56487e-125
2.44197e-128
1.44217e-131
7.258e-135
3.06665e-138
1.03014e-141
2.58797e-145
7.30845e-149
1.84793e-152
6.35845e-99
1.33523e-101
2.57733e-104
4.30236e-107
6.42943e-110
8.79784e-113
1.06115e-115
1.16482e-118
1.14757e-121
9.95425e-125
7.76869e-128
5.314e-131
3.12482e-134
1.56279e-137
6.54404e-141
2.17425e-144
5.76257e-148
3.26373e-151
8.54872e-155
9.21837e-102
2.14264e-104
4.45836e-107
7.87763e-110
1.23182e-112
1.74255e-115
2.15466e-118
2.41079e-121
2.4046e-124
2.10157e-127
1.64707e-130
1.12661e-133
6.60437e-137
3.28578e-140
1.3648e-143
4.51503e-147
2.61113e-150
1.42499e-153
3.83688e-157
1.27235e-104
3.29017e-107
7.40832e-110
1.39001e-112
2.28038e-115
3.3425e-118
4.24539e-121
4.85001e-124
4.90512e-127
4.32534e-130
3.40829e-133
2.33369e-136
1.3651e-139
6.76186e-143
2.78819e-146
1.79589e-149
1.19454e-152
6.11738e-156
1.6669e-159
1.6884e-107
4.87336e-110
1.1903e-112
2.37644e-115
4.09724e-118
6.23208e-121
8.14153e-124
9.50767e-127
9.76031e-130
8.69196e-133
6.89192e-136
4.72731e-139
2.76111e-142
1.36283e-145
8.98062e-149
7.61378e-152
5.38862e-155
2.59479e-158
7.03834e-162
)
;

boundaryField
{
    leftWall
    {
        type            zeroGradient;
    }
    rightWall
    {
        type            zeroGradient;
    }
    lowerWall
    {
        type            zeroGradient;
    }
    atmosphere
    {
        type            inletOutlet;
        inletValue      uniform 0;
        value           nonuniform List<scalar> 
46
(
0
0
0
0
0
0
0
0
0
0
0
0
0
0
0
0
0
0
0
0
2.51908e-93
3.40583e-94
6.2047e-96
3.52111e-98
1.81578e-100
8.71697e-103
4.20214e-105
1.6884e-107
4.87336e-110
1.1903e-112
2.37644e-115
4.09724e-118
6.23208e-121
8.14153e-124
9.50767e-127
9.76031e-130
8.69196e-133
6.89192e-136
4.72731e-139
2.76111e-142
1.36283e-145
8.98062e-149
7.61378e-152
5.38862e-155
2.59479e-158
7.03834e-162
)
;
    }
    defaultFaces
    {
        type            empty;
    }
}


// ************************************************************************* //
