/*--------------------------------*- C++ -*----------------------------------*\
| =========                 |                                                 |
| \\      /  F ield         | OpenFOAM: The Open Source CFD Toolbox           |
|  \\    /   O peration     | Version:  2012                                  |
|   \\  /    A nd           | Website:  www.openfoam.com                      |
|    \\/     M anipulation  |                                                 |
\*---------------------------------------------------------------------------*/
FoamFile
{
    version     2.0;
    format      ascii;
    class       volScalarField;
    location    "0.66";
    object      maxKappa;
}
// * * * * * * * * * * * * * * * * * * * * * * * * * * * * * * * * * * * * * //

dimensions      [0 0 0 0 0 0 0];


internalField   nonuniform List<scalar> 
2268
(
1.9112e-07
4.01616e-07
5.25082e-07
5.25082e-07
4.79852e-07
3.24858e-07
2.39414e-07
3.04959e-07
7.22699e-07
1.18459e-06
1.70162e-06
2.21956e-06
2.61755e-06
2.86981e-06
3.02522e-06
3.12203e-06
3.13375e-06
3.13375e-06
2.98058e-06
2.68816e-06
2.15418e-06
1.52337e-06
8.53737e-07
1.91259e-07
3.97047e-07
5.27405e-07
5.27405e-07
5.22161e-07
3.90725e-07
3.32411e-07
4.91803e-07
7.69424e-07
1.20673e-06
1.73165e-06
2.22406e-06
2.6202e-06
2.89768e-06
3.0662e-06
3.15902e-06
3.15902e-06
3.15213e-06
3.00101e-06
2.76359e-06
2.35778e-06
1.97711e-06
1.39429e-06
3.24366e-07
4.89021e-07
5.81833e-07
5.81833e-07
5.78971e-07
4.54621e-07
3.45347e-07
5.3918e-07
8.67792e-07
1.34907e-06
1.8637e-06
2.30689e-06
2.65957e-06
2.93192e-06
3.10978e-06
3.20397e-06
3.20397e-06
3.17762e-06
2.99989e-06
2.7452e-06
2.33413e-06
1.96227e-06
1.36199e-06
3.51257e-07
5.16137e-07
5.94543e-07
6.55358e-07
6.55358e-07
5.98289e-07
6.31388e-07
8.01934e-07
1.00787e-06
1.4191e-06
1.89071e-06
2.34849e-06
2.7531e-06
3.07106e-06
3.24566e-06
3.31172e-06
3.31172e-06
3.26192e-06
3.10589e-06
2.88701e-06
2.51656e-06
2.20883e-06
1.90696e-06
5.15327e-07
6.64197e-07
6.90137e-07
7.35126e-07
7.35126e-07
7.03257e-07
6.37986e-07
8.349e-07
1.14606e-06
1.66023e-06
2.14527e-06
2.55208e-06
2.88071e-06
3.13665e-06
3.29627e-06
3.39676e-06
3.39676e-06
3.36653e-06
3.22615e-06
3.04845e-06
2.77433e-06
2.56365e-06
2.15792e-06
5.78315e-07
6.9403e-07
6.96057e-07
7.95281e-07
8.71602e-07
8.75025e-07
1.01144e-06
1.18535e-06
1.36869e-06
1.76149e-06
2.18766e-06
2.63567e-06
3.06266e-06
3.36953e-06
3.50289e-06
3.56891e-06
3.56891e-06
3.51267e-06
3.37243e-06
3.19046e-06
2.96447e-06
2.94768e-06
2.76566e-06
7.82141e-07
8.59543e-07
8.59543e-07
9.38188e-07
1.04151e-06
1.04151e-06
1.00771e-06
1.1848e-06
1.54127e-06
2.11279e-06
2.58725e-06
2.96919e-06
3.26333e-06
3.45405e-06
3.56236e-06
3.71213e-06
3.71836e-06
3.71836e-06
3.61636e-06
3.47296e-06
3.60102e-06
3.60102e-06
3.20536e-06
3.08388e-06
3.04686e-06
2.52692e-06
2.10799e-06
2.07013e-06
2.00249e-06
1.75357e-06
1.84355e-06
1.91335e-06
2.2375e-06
2.59728e-06
3.08051e-06
3.52809e-06
3.76e-06
3.80811e-06
3.9111e-06
3.9111e-06
3.89537e-06
3.76152e-06
3.56617e-06
4.12328e-06
4.12328e-06
4.05125e-06
0.000430352
0.000526911
0.000611202
0.000832765
0.00089119
0.00089119
0.000730738
0.000501987
0.000509282
0.00055766
0.00055766
0.000547088
0.000558517
0.000558517
0.000558497
0.000541743
0.00050823
0.000439912
0.000311542
0.000391142
0.000420681
0.000420681
0.000406827
0.000480287
0.000491705
0.000491705
0.000350707
0.000449411
0.000591475
0.000665798
0.000720555
0.000773639
0.000777359
0.000777359
0.000676083
0.0005266
0.000363325
0.000274608
0.000468354
0.000911394
0.000911394
0.000845345
0.000542882
0.00027332
9.10659e-05
0.000288721
0.000631726
0.000856247
0.00113526
0.00149027
0.00190773
0.00201081
0.00201081
0.00188112
0.00158332
0.000954904
0.000350124
0.000824388
0.00132409
0.0016075
0.0016075
0.0015294
0.000928899
0.000181682
8.76375e-05
0.00058388
0.0010142
0.00113227
0.00113227
0.000879808
0.000565203
0.00143642
0.00204218
0.00204218
0.00158558
0.000647877
0.00155873
0.00157204
0.00157204
0.000963844
0.000960397
0.000960397
0.000337081
5.03863e-05
7.73759e-05
0.000236052
0.000558427
0.00109477
0.00172666
0.00202134
0.00202134
0.0013576
0.00122913
0.00122913
0.00108032
0.00116811
0.0017501
0.00182512
0.00182512
0.00102478
0.000575546
0.0001869
5.0177e-05
6.34425e-05
7.651e-05
8.49983e-05
0.000108949
0.000276078
0.000703974
0.00148818
0.00234951
0.00234951
0.00180407
0.000744701
0.00114934
0.00190675
0.00190675
0.00155147
0.000900623
0.000566968
0.000113363
5.41089e-05
9.05525e-05
0.000170499
0.000170499
0.000156629
0.000155389
0.000164388
0.000247774
0.00110862
0.00110862
0.00100189
0.000432145
0.00123306
0.00123306
0.00123086
0.000885083
0.000885083
0.00038833
7.7295e-05
9.53198e-05
0.000503085
0.000884322
0.00103782
0.0010697
0.0010697
0.00104131
0.000730635
0.000801238
0.00111438
0.00104557
0.000562727
3.45872e-05
6.7745e-05
9.90619e-05
0.000143513
0.000169779
9.48663e-05
5.28269e-05
3.39135e-05
2.54691e-05
1.39635e-05
8.98918e-06
7.73082e-06
5.81847e-06
3.97918e-06
3.84633e-06
4.10091e-06
4.69656e-06
4.48837e-06
4.38048e-06
4.00301e-06
4.89249e-06
6.82291e-06
9.20799e-06
9.56605e-05
0.000160225
0.000247663
0.000328979
0.000328979
0.00030872
0.00017322
0.000144227
0.000133767
0.000126994
0.000128899
0.000103925
7.16995e-05
2.80909e-05
1.3429e-05
9.22035e-06
6.47192e-06
4.88589e-06
4.7536e-06
4.75945e-06
5.2166e-06
7.5094e-06
9.20799e-06
0.000136615
0.000151814
0.000182891
0.000220084
0.000253007
0.000223851
0.000210914
0.000212849
0.00022588
0.00025283
0.000315807
0.000346
0.000341733
0.000291957
0.000207234
0.000141957
0.000118509
4.56861e-05
1.67299e-05
5.92539e-06
4.56211e-06
3.89182e-06
7.25853e-06
7.71731e-05
8.15512e-05
0.00010119
0.000107415
0.000108652
0.000171451
0.000207346
0.00024508
0.000291094
0.000346654
0.000429734
0.000490553
0.000494232
0.00049466
0.000531861
0.000557567
0.000601125
0.000521571
0.000419189
0.000248724
0.000202561
7.41841e-05
2.70029e-05
0.000117853
0.000119581
0.000119581
0.000122109
0.000135714
0.0001575
0.000185867
0.000217809
0.000277562
0.000319984
0.000366611
0.00043939
0.000515886
0.000618468
0.000744775
0.000841504
0.000877049
0.000983661
0.00112678
0.00113695
0.00123083
0.00119585
0.00113833
0.000100464
0.000102089
0.000108699
0.000112073
0.000131165
0.000175649
0.000212176
0.000236724
0.000259601
0.000292508
0.000328096
0.000369763
0.000432809
0.0005015
0.000655847
0.000794845
0.000988345
0.0012892
0.00159606
0.00201124
0.0023983
0.00263766
0.0029204
0.000128387
0.000131392
0.000135192
0.000142627
0.000155522
0.000176134
0.000199819
0.00022808
0.000262619
0.000299457
0.00033359
0.000353632
0.000378336
0.00045019
0.000552038
0.000689242
0.000948245
0.00138178
0.00194738
0.00250597
0.00291354
0.00318828
0.00318828
0.000134978
0.000137039
0.000143698
0.000149715
0.000166023
0.000190122
0.000215062
0.000240092
0.000268042
0.00030067
0.000337744
0.000372526
0.000419871
0.000495537
0.000580162
0.00068134
0.000866248
0.00112674
0.00146231
0.00189634
0.00225616
0.00247453
0.00270456
0.000153243
0.000154975
0.000160852
0.000167175
0.000180042
0.000195124
0.000214464
0.000237044
0.000264701
0.000295525
0.000330502
0.000366716
0.000409938
0.000472603
0.000550566
0.000645807
0.000795323
0.000986002
0.00117784
0.00136347
0.00143164
0.00146135
0.00182423
0.000164563
0.000166379
0.000172353
0.00017846
0.000192097
0.000209255
0.000229392
0.000251884
0.000278367
0.000308852
0.00034333
0.000381936
0.000427855
0.000488396
0.000563011
0.000648855
0.00076505
0.000912081
0.00105385
0.00116582
0.00116107
0.00103262
0.00138145
0.000178107
0.000179796
0.00018513
0.000190633
0.000201164
0.000212866
0.000229091
0.000248022
0.000271452
0.000298869
0.000330245
0.0003659
0.000407537
0.000458521
0.000524128
0.000602889
0.000703783
0.000830255
0.000981205
0.00112859
0.00117067
0.00118384
0.000928997
0.000187671
0.000189351
0.000194149
0.000200167
0.000211286
0.000224542
0.000241094
0.000260082
0.000282228
0.000308382
0.000338363
0.00037319
0.000414386
0.000463395
0.000523212
0.000592547
0.000677718
0.000777887
0.000902787
0.00106025
0.00121984
0.00126035
0.00115182
0.000197104
0.000198529
0.00020265
0.000207507
0.000215256
0.000225139
0.000238346
0.000254082
0.000273031
0.000295548
0.000321864
0.000352725
0.000389353
0.00043239
0.000485078
0.000547163
0.00062405
0.000714468
0.000819381
0.000948947
0.00111806
0.00126473
0.00128084
0.000203867
0.000205115
0.000208701
0.00021475
0.000223643
0.000233952
0.000247142
0.000262531
0.000280302
0.000301473
0.000326062
0.000354666
0.000388744
0.000428306
0.000475875
0.000530832
0.000596786
0.000674392
0.00076281
0.000868219
0.00099763
0.00115449
0.00128084
0.000209842
0.000210889
0.000214001
0.000218186
0.000223234
0.00023202
0.000241316
0.000253652
0.000268284
0.000285917
0.000306764
0.0003312
0.000360718
0.000395242
0.000437491
0.000486762
0.00054491
0.000612742
0.000688055
0.000773834
0.000873306
0.000999387
0.001138
0.000213854
0.000215073
0.000218671
0.000223135
0.000229965
0.00023742
0.000247284
0.000258646
0.000271896
0.000287842
0.000306497
0.000328294
0.000354436
0.000385129
0.000421938
0.00046544
0.000516375
0.000576487
0.000643429
0.000718241
0.000798282
0.000883773
0.000980986
0.000217208
0.000217793
0.000220001
0.000223359
0.000225968
0.000233213
0.00023839
0.000250336
0.000257358
0.000273871
0.000285914
0.000307742
0.00032621
0.00035649
0.000385206
0.000426351
0.000470097
0.000523565
0.000583337
0.000650764
0.000723358
0.000801987
0.00088176
0.000219517
0.000220854
0.000223589
0.000226445
0.000231152
0.00023566
0.000242057
0.00024905
0.000257439
0.000267544
0.000279584
0.000294652
0.000313225
0.000336624
0.000364915
0.000400211
0.000441686
0.000491016
0.000546561
0.000608368
0.000672272
0.000740871
0.000808012
0.000221358
0.000221404
0.00022268
0.000224712
0.00022569
0.000231719
0.000232514
0.000242117
0.000243715
0.000256095
0.000261025
0.000277204
0.000288171
0.000311237
0.000332324
0.000365104
0.000400557
0.000447284
0.000500833
0.000561232
0.000624837
0.000694224
0.000759169
0.000223443
0.000223954
0.000225442
0.000226477
0.000228491
0.000229874
0.000232427
0.000236117
0.000237595
0.000244635
0.000246766
0.000258946
0.000266596
0.000285863
0.000305411
0.000335241
0.000372076
0.000417089
0.000468968
0.000527864
0.00058988
0.000657069
0.000716983
0.000226466
0.000226492
0.000226087
0.000226423
0.000224669
0.000226892
0.000224576
0.000228806
0.000225543
0.000231397
0.000230029
0.000238491
0.000242893
0.000258345
0.000274217
0.000300949
0.000333528
0.00037963
0.000433818
0.000495715
0.000562324
0.000634205
0.00068732
0.000231373
0.000231549
0.000230134
0.000229623
0.000228038
0.00022689
0.000224429
0.000221855
0.000217923
0.000217355
0.000212022
0.000215532
0.000215542
0.000226692
0.00023973
0.000264792
0.000301364
0.000349639
0.000406334
0.000470978
0.000540799
0.000615024
0.000667484
0.000238556
0.000238823
0.000236666
0.00023561
0.000231707
0.000228248
0.000220904
0.000216121
0.000206773
0.000203231
0.00019245
0.000189629
0.000183318
0.000188425
0.000197414
0.000220779
0.000254801
0.000304476
0.000368016
0.000440332
0.000518879
0.000601649
0.000653384
0.000248906
0.000249158
0.000246713
0.000245356
0.000240964
0.000236533
0.000229891
0.000222853
0.000212964
0.000201054
0.000185855
0.000168363
0.000150714
0.00014572
0.000146589
0.000167106
0.000204972
0.000264805
0.000336064
0.000416042
0.00050239
0.000593051
0.000646207
0.000262641
0.000262839
0.000260529
0.000259106
0.000254707
0.000250043
0.000241824
0.00023292
0.000218403
0.000203771
0.00018042
0.000157526
0.000126803
0.000104875
8.69315e-05
9.98226e-05
0.000143027
0.000205259
0.000285602
0.000373111
0.00046737
0.00056755
0.000633253
0.000279706
0.000279965
0.000278158
0.00027705
0.000273262
0.000269136
0.000261799
0.00025341
0.000240189
0.000225952
0.000205697
0.000182411
0.000152907
0.000120979
8.38093e-05
6.12577e-05
0.000106873
0.000182078
0.000267537
0.000358298
0.000457855
0.00056552
0.000623486
0.000300616
0.000301001
0.000299765
0.000299089
0.000296099
0.000292841
0.000286837
0.000279779
0.00026885
0.000256807
0.000239386
0.000221566
0.000198283
0.000176962
0.000155564
0.000147477
0.000161813
0.00020056
0.000273349
0.000357237
0.000455309
0.000563597
0.000644834
0.000324549
0.000325193
0.000324738
0.000324863
0.000323125
0.000321258
0.000317147
0.000312099
0.000304218
0.000295281
0.000282925
0.0002705
0.000255862
0.000244269
0.000235447
0.000237387
0.000253747
0.000288479
0.000343269
0.000410864
0.000505679
0.000612093
0.000687175
0.000352486
0.000353391
0.000353621
0.000354501
0.000353886
0.000353382
0.000351159
0.000348384
0.000343845
0.000338629
0.000332082
0.00032602
0.000320639
0.000318669
0.000321826
0.000333567
0.000356446
0.000393977
0.000446768
0.000512038
0.000584317
0.000675489
0.000759477
0.000382707
0.000384
0.000385106
0.000387108
0.000388056
0.000389513
0.000389797
0.000390028
0.000389421
0.000388668
0.000388297
0.000388802
0.000392404
0.000399858
0.000415168
0.000439265
0.000477517
0.000528109
0.000590197
0.000655338
0.000724246
0.000809734
0.000889717
0.000416925
0.000418604
0.000420503
0.000423574
0.000425969
0.000429311
0.000431949
0.000435216
0.000438653
0.000442949
0.000449484
0.000458307
0.000473196
0.000493098
0.000523485
0.000563598
0.000622259
0.000694538
0.000766839
0.000830056
0.000902445
0.000984545
0.00106461
0.000452531
0.000454655
0.000457468
0.000461921
0.000466215
0.000472202
0.000478167
0.000485859
0.000494675
0.000505586
0.000520103
0.000538537
0.000564731
0.000598661
0.000647787
0.000715287
0.000800803
0.000881012
0.000933917
0.000998047
0.00107735
0.00116621
0.00125002
0.000491731
0.000494385
0.000498263
0.000504384
0.000510872
0.000519673
0.000528887
0.000540626
0.000554171
0.000571347
0.000593911
0.000622932
0.000662837
0.000716323
0.000790169
0.000885102
0.000981221
0.00103406
0.00106631
0.00114382
0.00123318
0.0013326
0.0014238
0.000531342
0.000534484
0.000539343
0.000547021
0.000555605
0.0005674
0.000580571
0.000597849
0.00061856
0.000644966
0.000678495
0.000720529
0.000777337
0.000851888
0.000949995
0.00105522
0.00111432
0.00112114
0.00117534
0.00126979
0.00137277
0.00148334
0.00158878
0.000573044
0.000576919
0.000583299
0.000593451
0.000605367
0.000621449
0.000639539
0.000662529
0.000689239
0.000722267
0.000763164
0.000815851
0.000888077
0.000982235
0.00109556
0.00118485
0.00118369
0.00118742
0.00127291
0.0013765
0.00149306
0.00161421
0.00173532
0.000614499
0.000618963
0.000626531
0.000638372
0.000652396
0.000671333
0.000693046
0.00072097
0.00075419
0.000796393
0.00085062
0.000920092
0.00101195
0.00112018
0.00122666
0.00125471
0.00120868
0.00125722
0.0013599
0.00147733
0.00160495
0.00173395
0.00186073
0.000654739
0.000660013
0.000669429
0.000684369
0.000702482
0.000726785
0.000755106
0.000791435
0.00083459
0.00088874
0.000955715
0.00103869
0.0011452
0.00125615
0.00133148
0.00128182
0.00124435
0.0013177
0.00142689
0.00155714
0.00169692
0.00183999
0.00196597
0.000694049
0.000700146
0.000710828
0.000727542
0.000749605
0.000780628
0.000817708
0.000861654
0.000913445
0.000975065
0.00104964
0.00114462
0.00125889
0.00136148
0.00138373
0.00131412
0.00125425
0.00134424
0.0014678
0.00161549
0.00177054
0.00192999
0.00205229
0.000728113
0.000735278
0.000748095
0.000767476
0.000791802
0.000825143
0.000864947
0.000916384
0.000977322
0.00105375
0.00114523
0.00125556
0.00136812
0.00143642
0.00139509
0.00132496
0.00127578
0.00137401
0.00150842
0.0016653
0.00183013
0.00199973
0.00212308
0.000759525
0.000767003
0.000781422
0.000807528
0.000841742
0.000884993
0.000938752
0.00100421
0.00108171
0.00117099
0.00127072
0.00137035
0.0014515
0.0015091
0.00141706
0.00129063
0.00124331
0.00136259
0.00151934
0.00169473
0.00187603
0.00205995
0.00217453
0.000783879
0.000792213
0.000807258
0.000831678
0.000863548
0.000907311
0.000960363
0.00102944
0.00111169
0.00121492
0.0013343
0.00147122
0.00158614
0.00161258
0.0014934
0.00134402
0.00126368
0.00138233
0.00154106
0.00171879
0.00190452
0.00209318
0.0022223
0.000800221
0.000813975
0.000836878
0.000869352
0.000913057
0.000969383
0.00104091
0.00112998
0.0012391
0.00136927
0.00151225
0.00163706
0.0016771
0.0016771
0.00153114
0.00126146
0.00120411
0.00136094
0.00154882
0.00174698
0.00194848
0.00214908
0.0022223
9.3456e-06
1.16862e-05
0.000145378
0.000700264
9.42266e-06
1.16862e-05
7.41345e-05
0.000493181
9.42266e-06
1.13562e-05
2.4006e-05
0.000137081
1.69203e-05
1.91851e-05
2.20287e-05
2.11223e-05
0.000900797
0.00075035
0.000572413
0.000442764
0.00267061
0.00240468
0.00208428
0.00177675
0.00295248
0.00281251
0.00242234
0.00232823
0.00295248
0.00281251
0.00242234
0.00232823
0.00209149
0.00226813
0.00190303
0.00170659
0.00172064
0.00202911
0.00181275
0.00168869
0.00141481
0.00164198
0.00174592
0.00168869
0.000872929
0.00125082
0.00151561
0.00164455
0.00118191
0.00104572
0.000967672
0.00116578
0.00118191
0.00116195
0.00113459
0.00101708
0.00118186
0.00116195
0.00113459
0.00101708
0.00104245
0.00105256
0.00104589
0.00100791
0.000927038
0.000954555
0.000965502
0.000967791
0.000844396
0.000872343
0.000884737
0.000903548
0.000796299
0.000826138
0.000844075
0.000862347
0.000760513
0.000791623
0.000818366
0.00084179
0.000736011
0.000769089
0.000800078
0.000829511
0.000722118
0.000757656
0.000792794
0.000828877
0.000714228
0.000756621
0.00080011
0.000842143
0.000714228
0.000756621
0.000805038
0.0008517
0.000709092
0.000757914
0.00081173
0.000863166
0.000708028
0.000762383
0.00081818
0.000872914
0.000727385
0.000781647
0.000837236
0.000893699
0.000761147
0.000812736
0.000866366
0.00092187
0.000821816
0.000868797
0.000917214
0.000966437
0.00094222
0.000980149
0.00101937
0.00105556
0.0011134
0.00114265
0.00117571
0.00120058
0.00130104
0.00132818
0.00136045
0.001383
0.001484
0.00151563
0.00155046
0.00157755
0.00165986
0.0016992
0.00173801
0.00177271
0.00181624
0.00186452
0.00190968
0.00195416
0.00195372
0.00201193
0.00206665
0.00212145
0.00207254
0.0021395
0.00220377
0.00226596
0.00217133
0.00224521
0.00231766
0.00238511
0.00225319
0.00233299
0.00241246
0.00248441
0.00231351
0.0023981
0.0024834
0.00255934
0.0023683
0.00245629
0.00254628
0.00262574
0.0023683
0.00245629
0.00254628
0.00262574
0.00138339
0.00138339
0.00107679
0.000826009
0.000454263
8.97261e-05
0.000119148
0.000734347
0.00120834
0.00148739
0.00167005
0.00182556
0.00195408
0.00205609
0.00205609
0.00204011
0.00226012
0.00170764
0.0008444
0.00111588
0.000853355
0.000555151
8.7601e-05
6.98011e-05
0.000110816
0.00081515
0.0010244
0.0010244
0.00116
0.00136603
0.00150422
0.00161741
0.00173535
0.00176647
0.00224614
0.00234491
0.00231461
0.000960664
0.000406159
0.000257268
5.65545e-05
3.05447e-05
6.57318e-05
0.000485023
0.00103699
0.00103699
0.000953053
0.00105031
0.00110829
0.00104289
0.00108459
0.00114121
0.00156889
0.00192745
0.00298253
0.00241429
0.000972365
3.99212e-05
2.23056e-05
1.96404e-05
5.16739e-05
0.000145323
0.0010455
0.00107638
0.00121335
0.00147116
0.00181272
0.00207991
0.00214248
0.0022333
0.0025441
0.00311571
0.00375033
0.00375033
0.0021973
0.000518049
0.000281454
0.000238309
0.00014435
0.000217662
0.000674177
0.00108607
0.00136726
0.00194861
0.00219164
0.00219164
0.00218192
0.00218354
0.00220152
0.00234345
0.00247662
0.0027191
0.00256995
0.00152569
0.000559905
0.00127946
0.000859399
0.000467194
0.000570244
0.00103664
0.00123837
0.00185947
0.00195932
0.00209161
0.00213463
0.00213622
0.00213622
0.0020853
0.00188124
0.00172672
0.00158832
0.000806742
0.00131057
0.000512957
0.00193719
0.00161252
0.000804291
0.001108
0.00142436
0.00165203
0.0018485
0.00199364
0.00199364
0.00186487
0.00156058
0.00159937
0.0015423
0.00141691
0.00113203
0.000491452
0.0010696
0.00124803
0.000440841
0.00193719
0.0018661
0.00124229
0.00143704
0.00167216
0.00167216
0.00167972
0.00172628
0.00159062
0.0011559
0.000787174
0.000757313
0.000798505
0.000865951
0.000667579
0.00068396
0.000895433
0.00108158
0.000370641
0.00159174
0.00151743
0.00135501
0.00126621
0.00148794
0.00153181
0.0014883
0.00132494
0.000848389
0.000703029
0.000657727
0.000380139
0.000556317
0.000786991
0.000846855
0.000846855
0.000784399
0.000875348
0.000293314
0.00141203
0.00118818
0.000988614
0.0008531
0.000863878
0.0011786
0.00114687
0.000746499
0.000508741
0.000535031
0.000486777
0.000480125
0.000491064
0.000555873
0.000682365
0.000759543
0.000759543
0.000742294
0.000254739
0.00161903
0.0015561
0.000785326
0.000562188
0.000468311
0.000460901
0.000612415
0.000333062
0.000285099
0.000297925
0.00036257
0.000512386
0.000512386
0.000413023
0.000384326
0.000433115
0.000542468
0.000511716
0.0002385
0.00177202
0.00177202
0.00159438
0.00101657
0.000588445
0.000480194
0.00041717
0.000394166
0.00041718
0.000471962
0.000618688
0.000559976
0.000458189
0.000242088
0.00012889
0.000102291
0.00020118
0.000310283
0.00016264
0.00162398
0.00172758
0.00172758
0.00157826
0.00141008
0.00101822
0.000862001
0.000907115
0.000985205
0.00102678
0.00104156
0.000777949
0.000631784
0.000731914
0.00061178
0.000115442
6.21765e-05
6.98642e-05
3.54107e-05
0.000877736
0.00102033
0.00118347
0.00113541
0.00106276
0.00114383
0.00120961
0.00128797
0.00129072
0.00119233
0.00122568
0.00122568
0.00103811
0.00113632
0.00113632
0.000695785
0.00011898
5.43436e-05
3.77059e-05
0.000930322
0.000930322
0.00062245
0.000595854
0.000907235
0.00131553
0.00152971
0.00158758
0.00158758
0.00155013
0.00146684
0.00136348
0.0012258
0.00129231
0.00143855
0.00122175
0.000188641
6.3201e-05
4.5453e-05
0.000927476
0.000888489
0.000580715
0.000399683
0.000776913
0.00114288
0.00133558
0.00141062
0.00144671
0.00144671
0.00143894
0.001409
0.00152845
0.00179536
0.00221981
0.00192568
0.00105345
0.000184736
0.000113577
0.000996692
0.000996692
0.000880585
0.000804125
0.000832957
0.000746578
0.00075416
0.000959682
0.00111882
0.00127107
0.00138791
0.00159081
0.00199646
0.00253087
0.00274273
0.00274273
0.00221676
0.00125
0.000741892
0.000982202
0.000982202
0.000992831
0.00108703
0.00113923
0.00110494
0.000965018
0.000691192
0.000749554
0.000910466
0.00101251
0.00137088
0.00178844
0.00244002
0.00286948
0.00286948
0.00276991
0.0023155
0.00167387
0.00101379
0.00106493
0.0011382
0.00127688
0.00139887
0.00139887
0.00139037
0.00125503
0.00101946
0.000686234
0.000462311
0.00066802
0.000954863
0.00200452
0.00258306
0.00258306
0.00223399
0.00212255
0.00177243
0.000995132
0.00106801
0.00115529
0.00128842
0.00143916
0.00150286
0.00150286
0.00145978
0.00132515
0.00108171
0.000820518
0.000642545
0.000784357
0.0017212
0.00257939
0.00257939
0.00222964
0.00204283
0.00173617
0.00101837
0.00110542
0.00119896
0.00131331
0.00144851
0.00153835
0.00154198
0.00154198
0.00146349
0.00131027
0.00113751
0.000979076
0.000925908
0.00139372
0.00250815
0.00262138
0.00262138
0.00234418
0.00208999
0.00101623
0.00110651
0.00119946
0.0013026
0.00141173
0.00149382
0.00151559
0.00151559
0.00147442
0.00138231
0.00126786
0.00115957
0.00105586
0.0011626
0.00185628
0.00218679
0.00218679
0.00207516
0.0016604
0.00104568
0.00114454
0.00124266
0.00133969
0.00143389
0.00151055
0.00153907
0.00153907
0.00151913
0.00146249
0.00138152
0.00129313
0.00117429
0.00103525
0.0014927
0.00207766
0.0022409
0.00230795
0.00176954
0.00107241
0.00117745
0.00127807
0.00136911
0.00145015
0.00151762
0.00154651
0.00154651
0.00153314
0.00149192
0.00143232
0.00137288
0.00127942
0.0011576
0.00130523
0.00191364
0.00223928
0.00234095
0.00180813
0.00109858
0.00121923
0.00133321
0.00143188
0.00151103
0.00157029
0.00160136
0.00160136
0.00159607
0.00155828
0.00149893
0.0014394
0.00136106
0.00126813
0.00110777
0.00165888
0.00223925
0.00234095
0.00184339
0.00113286
0.001267
0.00139169
0.00149939
0.00158279
0.00163831
0.00166654
0.00166654
0.00166297
0.00163251
0.00157831
0.0015273
0.00145999
0.0013876
0.00117008
0.00140429
0.00207682
0.00212139
0.00183826
0.00114436
0.00129019
0.00142946
0.00155723
0.00166287
0.00173152
0.00176622
0.0017682
0.0017682
0.00174125
0.00168554
0.0016347
0.00157152
0.00151302
0.00133366
0.00124662
0.00200093
0.00205494
0.00192397
0.00119305
0.00134888
0.00150092
0.00163967
0.00175421
0.00183618
0.00187882
0.00187949
0.00187949
0.0018558
0.00180195
0.0017517
0.00168908
0.00162914
0.00148299
0.00114752
0.00182783
0.0020065
0.00181796
0.00121289
0.00137551
0.00153714
0.00169044
0.00182779
0.00193574
0.00200167
0.00201655
0.00201655
0.00199593
0.00193646
0.00187832
0.00181143
0.00174484
0.00161277
0.00126876
0.00170083
0.00203603
0.00178661
0.0012698
0.00141814
0.00157455
0.00173772
0.00189948
0.0020374
0.00212676
0.00215527
0.00215527
0.00214088
0.0020808
0.00201427
0.00193756
0.00185592
0.00172018
0.00139192
0.00139323
0.00203603
0.00192891
0.00135434
0.00146564
0.00157891
0.00171103
0.0018673
0.00205021
0.002219
0.00230125
0.00230453
0.00230453
0.00224357
0.00216331
0.00207597
0.0019862
0.00185836
0.00158465
0.00116979
0.00210381
0.00210381
0.00154476
0.0016152
0.00167011
0.00174653
0.00186554
0.00202592
0.00222005
0.00238472
0.00244479
0.00244479
0.00240068
0.00231412
0.00221085
0.00210627
0.00196435
0.00169778
0.0011637
0.00159012
0.00194502
0.00173237
0.00176777
0.00176777
0.0017693
0.00181048
0.00192538
0.00214135
0.00240978
0.00257599
0.00257599
0.00257346
0.00248529
0.00236749
0.00224745
0.00210529
0.00184641
0.00131866
0.00131323
0.00167204
0.00196759
0.00200604
0.00200604
0.0019892
0.00193551
0.00189211
0.00204288
0.00232129
0.00259638
0.00268817
0.00268817
0.00261751
0.00249053
0.00235146
0.00221032
0.00197269
0.00148814
0.00106591
0.00148523
0.00218445
0.00224199
0.00224199
0.00221997
0.0021137
0.00192506
0.0019247
0.00228103
0.00257773
0.00278691
0.00278691
0.00277984
0.00265384
0.00249806
0.00235158
0.00210594
0.00163549
0.000874486
0.00139056
0.00241684
0.00249859
0.00249859
0.00249047
0.00235765
0.00209662
0.00184515
0.0021089
0.00246557
0.00274247
0.0028305
0.0028305
0.00274554
0.00258922
0.00244753
0.00223326
0.00181694
0.000849147
0.00131096
0.00260425
0.00269777
0.00269777
0.00269389
0.00252797
0.00222493
0.00185805
0.00171403
0.00228999
0.00269276
0.00286649
0.00286649
0.00284299
0.00270672
0.00256604
0.00235887
0.00200225
0.00109579
0.00127366
0.00277523
0.00288395
0.00289666
0.00289666
0.0027388
0.00243742
0.00206729
0.00155807
0.00184054
0.00245445
0.00276482
0.0028185
0.0028185
0.00273581
0.00264432
0.00249217
0.00225686
0.00150649
0.0011706
0.00289877
0.00301398
0.00303625
0.00303625
0.00287463
0.00256276
0.00219334
0.00153671
0.00145486
0.00228025
0.00267956
0.00280271
0.00280271
0.00276808
0.00269897
0.00256878
0.00231769
0.00169221
0.00104618
0.00301725
0.00314264
0.00317678
0.00317678
0.00302517
0.00272508
0.00236741
0.00173643
0.00095454
0.00194376
0.00243875
0.00265018
0.00269063
0.00269063
0.00267539
0.00259573
0.00238243
0.00182107
0.000892148
0.00308012
0.00320768
0.00324586
0.00324586
0.00309664
0.00279444
0.00243369
0.00177037
0.000805815
0.00178435
0.00232766
0.00259772
0.00268107
0.00268534
0.00268534
0.00261813
0.00242538
0.00192664
0.00116944
0.00318146
0.00331687
0.00336288
0.00336288
0.00322319
0.00293032
0.0025889
0.00200307
0.000900976
0.00141351
0.00204931
0.00239419
0.00256192
0.00262804
0.00262804
0.00260806
0.00245808
0.00193494
0.00145205
)
;

boundaryField
{
    leftWall
    {
        type            calculated;
        value           uniform 0;
    }
    rightWall
    {
        type            calculated;
        value           uniform 0;
    }
    lowerWall
    {
        type            calculated;
        value           uniform 0;
    }
    atmosphere
    {
        type            calculated;
        value           uniform 0;
    }
    defaultFaces
    {
        type            empty;
    }
}


// ************************************************************************* //
