/*--------------------------------*- C++ -*----------------------------------*\
| =========                 |                                                 |
| \\      /  F ield         | OpenFOAM: The Open Source CFD Toolbox           |
|  \\    /   O peration     | Version:  2012                                  |
|   \\  /    A nd           | Website:  www.openfoam.com                      |
|    \\/     M anipulation  |                                                 |
\*---------------------------------------------------------------------------*/
FoamFile
{
    version     2.0;
    format      ascii;
    class       volScalarField;
    location    "0.66";
    object      minKappa;
}
// * * * * * * * * * * * * * * * * * * * * * * * * * * * * * * * * * * * * * //

dimensions      [0 0 0 0 0 0 0];


internalField   nonuniform List<scalar> 
2268
(
3.43919e-08
1.46318e-07
2.31126e-07
2.66275e-07
2.07272e-07
1.30908e-07
1.29125e-07
9.95135e-08
2.77031e-07
4.28139e-07
7.01993e-07
9.20576e-07
1.1795e-06
1.29589e-06
1.42987e-06
1.44899e-06
1.51951e-06
1.45127e-06
1.37569e-06
1.20085e-06
9.3152e-07
7.2281e-07
3.40298e-07
3.43919e-08
1.46318e-07
2.31126e-07
2.66275e-07
2.07272e-07
1.30908e-07
1.29125e-07
9.95135e-08
2.77031e-07
4.28139e-07
7.01993e-07
9.20576e-07
1.1795e-06
1.29589e-06
1.42987e-06
1.44899e-06
1.51951e-06
1.45127e-06
1.37569e-06
1.20085e-06
9.3152e-07
7.2281e-07
3.40298e-07
6.61867e-08
1.77494e-07
2.41256e-07
2.82964e-07
2.37425e-07
1.6208e-07
1.45504e-07
1.74799e-07
3.12435e-07
4.61303e-07
7.4656e-07
9.52601e-07
1.18874e-06
1.3065e-06
1.44861e-06
1.47021e-06
1.53701e-06
1.4545e-06
1.38158e-06
1.22191e-06
9.95499e-07
8.66329e-07
4.37595e-07
9.82146e-08
2.21079e-07
2.53951e-07
3.01998e-07
2.81339e-07
2.1626e-07
1.94696e-07
2.669e-07
3.66897e-07
5.19525e-07
7.88701e-07
9.85626e-07
1.21452e-06
1.34353e-06
1.49352e-06
1.51012e-06
1.56926e-06
1.47413e-06
1.41151e-06
1.2503e-06
1.04214e-06
9.29193e-07
6.17621e-07
1.32276e-07
2.77264e-07
2.80553e-07
3.2658e-07
3.30556e-07
2.84548e-07
2.48101e-07
3.51794e-07
4.21757e-07
5.96173e-07
8.59099e-07
1.04829e-06
1.26773e-06
1.39483e-06
1.53898e-06
1.5528e-06
1.6177e-06
1.51497e-06
1.4776e-06
1.32753e-06
1.17295e-06
1.08256e-06
8.39828e-07
1.84326e-07
3.3252e-07
3.09367e-07
3.45741e-07
3.77523e-07
3.66747e-07
3.29172e-07
4.50328e-07
5.04414e-07
6.84029e-07
9.33048e-07
1.11467e-06
1.33705e-06
1.4718e-06
1.60307e-06
1.61028e-06
1.68177e-06
1.56941e-06
1.54913e-06
1.39941e-06
1.31275e-06
1.29189e-06
1.03489e-06
2.59308e-07
3.83497e-07
3.50624e-07
3.7744e-07
4.41788e-07
4.62335e-07
4.17399e-07
5.36831e-07
5.83267e-07
7.91941e-07
1.039e-06
1.21759e-06
1.43125e-06
1.55842e-06
1.66645e-06
1.67266e-06
1.76845e-06
1.64902e-06
1.65394e-06
1.49523e-06
1.52986e-06
1.56503e-06
1.25679e-06
4.32301e-07
5.27513e-07
4.72673e-07
4.63534e-07
5.46566e-07
5.88502e-07
5.40716e-07
6.60283e-07
7.09885e-07
9.22711e-07
1.13318e-06
1.31699e-06
1.54209e-06
1.66756e-06
1.74186e-06
1.7415e-06
1.86133e-06
1.73701e-06
1.74984e-06
1.5769e-06
1.72323e-06
1.92724e-06
1.50211e-06
0.000158039
0.000191866
0.000208898
0.00022571
0.000262
0.00030476
0.000218912
0.000161681
0.000181159
0.000227319
0.00023571
0.000234295
0.000245099
0.000250348
0.000245585
0.000221492
0.000195954
0.000146334
0.000103204
0.000158039
0.000191866
0.000208898
0.000179114
0.000171466
0.000124242
6.49995e-05
8.48023e-05
0.0001512
0.000210023
0.00023571
0.000234295
0.000245099
0.000250348
0.000245585
0.000221492
0.000195954
0.000146334
0.000103204
0.000183605
0.000228114
0.00021359
0.000179114
0.000171466
9.10659e-05
2.62688e-05
1.61978e-05
0.0001512
0.000210023
0.000293562
0.000369425
0.000464571
0.000511751
0.000493722
0.00037054
0.000281153
0.000150483
0.000115335
0.000264544
0.00039522
0.000544834
0.0003435
0.000300464
9.69759e-05
2.62688e-05
1.13298e-05
3.8803e-05
0.000138438
0.000266907
0.000405641
0.000456088
0.000536099
0.000559465
0.000633545
0.000580129
0.000383728
0.000150154
0.00054573
0.000542221
0.000690349
0.0003435
0.000360523
0.000260626
3.92677e-05
1.13298e-05
2.19109e-05
3.67974e-05
5.45334e-05
7.81491e-05
0.000146967
0.000415577
0.000559465
0.000599161
0.000580129
0.000546597
0.000300915
0.000441848
0.000651576
0.000825229
0.000364883
0.000280172
0.0001869
2.5613e-05
1.56126e-05
2.19109e-05
3.67974e-05
4.20476e-05
4.33446e-05
6.72351e-05
9.27989e-05
0.000128129
0.000378538
0.000749692
0.000209957
0.00035926
0.000422735
0.000725661
0.000528153
0.000396225
0.000280172
0.000113363
2.2535e-05
1.97344e-05
2.42726e-05
3.8188e-05
4.20476e-05
4.33446e-05
6.72351e-05
9.27989e-05
0.000106321
0.000247774
0.000699861
9.96647e-05
0.000357809
0.000422735
0.000840284
0.000374409
0.000396225
0.00036418
5.99958e-05
2.2535e-05
2.20292e-05
4.50101e-05
0.000151949
0.00016524
0.000139382
0.000116385
0.000118472
0.000106321
0.00026361
0.000699861
9.96647e-05
0.000357809
3.08388e-06
3.04686e-06
2.52692e-06
2.10799e-06
2.07013e-06
2.00249e-06
1.75357e-06
1.84355e-06
1.69003e-06
1.74038e-06
1.92197e-06
2.28448e-06
2.63265e-06
2.77806e-06
2.81948e-06
2.81119e-06
3.05865e-06
2.86628e-06
2.83804e-06
2.51679e-06
2.94001e-06
3.48424e-06
3.81262e-06
3.45872e-05
6.7745e-05
9.90619e-05
0.000143513
0.000169779
9.48663e-05
5.28269e-05
3.39135e-05
2.54691e-05
1.39635e-05
8.98918e-06
7.73082e-06
5.81847e-06
3.79007e-06
3.69726e-06
3.89357e-06
4.6006e-06
4.16418e-06
4.19326e-06
3.52807e-06
4.50582e-06
3.89182e-06
7.25853e-06
7.71731e-05
8.15512e-05
0.00010119
0.000107415
0.000108652
0.000171451
0.000147962
0.000144227
0.000133767
0.000126994
0.000128899
0.000103925
7.16995e-05
2.80909e-05
1.3429e-05
9.22035e-06
6.47192e-06
4.12066e-06
3.27491e-06
3.27491e-06
3.13711e-06
2.41036e-06
2.4222e-06
2.13336e-05
2.13336e-05
3.00286e-05
5.44171e-05
7.34839e-05
8.44118e-05
0.000144614
0.000203816
0.00022588
0.00025283
0.000315807
0.000346
0.000341733
0.000291957
0.000207234
0.000141957
0.000118509
4.56861e-05
1.67299e-05
5.92539e-06
4.56211e-06
1.94671e-06
1.84502e-06
6.69941e-05
7.28856e-05
7.74805e-05
9.7162e-05
9.94744e-05
0.000121831
0.0001575
0.000176286
0.000217809
0.000277562
0.000319984
0.000366611
0.000432809
0.000487937
0.000531861
0.000557567
0.000601125
0.000521571
0.000419189
0.000248724
0.000202561
7.41841e-05
2.70029e-05
7.31735e-05
7.31735e-05
7.83503e-05
8.44735e-05
9.8416e-05
0.000131165
0.000175649
0.000204664
0.000236724
0.000259601
0.000292508
0.000327464
0.000358673
0.000399501
0.0005015
0.000655847
0.000794845
0.000983661
0.00112678
0.00113695
0.00123083
0.00119585
0.00113833
0.000100464
0.000102089
0.000108699
0.000112073
0.000130206
0.000155522
0.000176134
0.000199819
0.00022808
0.000262619
0.000299457
0.00033359
0.000351891
0.000378336
0.00045019
0.000552038
0.000689242
0.000948245
0.00138178
0.00189634
0.00225616
0.00247453
0.00257233
0.000119951
0.000119951
0.000125417
0.000133249
0.000146263
0.000166023
0.000190122
0.000215062
0.000240092
0.000268042
0.00030067
0.000337744
0.000372526
0.000419871
0.000495537
0.000580162
0.00068134
0.000866248
0.00112674
0.00136347
0.00143164
0.00146135
0.00160678
0.000134978
0.000137039
0.000143698
0.000149715
0.000165289
0.000179067
0.000195124
0.000214464
0.000237044
0.000264701
0.000295525
0.000330502
0.000366716
0.000409938
0.000472603
0.000550566
0.000645807
0.000795323
0.000986002
0.00114358
0.00110563
0.000989954
0.0012745
0.000153243
0.000154975
0.000160344
0.000166607
0.000177769
0.000192097
0.000209255
0.000229392
0.000251884
0.000278367
0.000308852
0.00034333
0.000381936
0.000427855
0.000488396
0.000563011
0.000648855
0.00076505
0.000912081
0.00105385
0.00100938
0.000983787
0.000928997
0.000164563
0.000166379
0.000172353
0.00017846
0.000189747
0.000200002
0.000212866
0.000229091
0.000248022
0.000271452
0.000298869
0.000330245
0.0003659
0.000407537
0.000458521
0.000524128
0.000602889
0.000703783
0.000830255
0.000981205
0.00112859
0.000869357
0.000763335
0.000178107
0.000179796
0.00018513
0.000190633
0.000200167
0.000211286
0.000224542
0.000241094
0.000260082
0.000282228
0.000308382
0.000338363
0.00037319
0.000414386
0.000463395
0.000523212
0.000592547
0.000677718
0.000777887
0.000902787
0.00106025
0.00113983
0.00048807
0.000187671
0.000189351
0.000194149
0.000199433
0.000206019
0.000214681
0.000224969
0.000238346
0.000254082
0.000273031
0.000295548
0.000321864
0.000352725
0.000389353
0.00043239
0.000485078
0.000547163
0.00062405
0.000714468
0.000819381
0.000948947
0.00111806
0.000860763
0.000197104
0.000198529
0.00020265
0.000207507
0.00021475
0.000223643
0.000233952
0.000247142
0.000262531
0.000280302
0.000301473
0.000326062
0.000354666
0.000388744
0.000428306
0.000475875
0.000530832
0.000596786
0.000674392
0.00076281
0.000868219
0.00099763
0.000918748
0.000203867
0.000205115
0.000207842
0.00021151
0.000216233
0.000223179
0.000230944
0.000241316
0.000253652
0.000268284
0.000285917
0.000306764
0.0003312
0.000360718
0.000395242
0.000437491
0.000486762
0.00054491
0.000612742
0.000688055
0.000772288
0.000867201
0.000792501
0.000209842
0.000210889
0.000214001
0.000218186
0.000223135
0.000229965
0.00023742
0.000247284
0.000257358
0.000271896
0.000285914
0.000306497
0.00032621
0.000354436
0.000384353
0.000421938
0.00046544
0.000516375
0.000576487
0.000643429
0.000718241
0.000798282
0.000705439
0.000213478
0.000213478
0.000214918
0.000217727
0.00022081
0.000225917
0.000231082
0.00023839
0.000246744
0.000256942
0.000269455
0.000284539
0.000302873
0.000325266
0.000352468
0.000385206
0.0004245
0.000470097
0.000523565
0.000583337
0.000649344
0.000719503
0.000630845
0.000217208
0.000217793
0.000220001
0.000223359
0.00022569
0.000231152
0.000232514
0.000242057
0.000243715
0.000256095
0.000261025
0.000277204
0.000288171
0.000311237
0.000332324
0.000364915
0.000400211
0.000441686
0.000491016
0.000546561
0.000608368
0.000672272
0.000588378
0.000217349
0.000217349
0.000218086
0.000219893
0.000221329
0.000224158
0.000226452
0.000230414
0.000234579
0.000240101
0.000246356
0.000256187
0.000266596
0.000283414
0.000303938
0.000329223
0.00036168
0.000400557
0.000447284
0.000500833
0.000561232
0.000624837
0.000559904
0.000221358
0.000221404
0.00022268
0.000224712
0.000224432
0.000226892
0.000224576
0.000228806
0.000225543
0.000231397
0.000230029
0.000238491
0.000242893
0.000258345
0.000274217
0.000300949
0.000333528
0.000372076
0.000417089
0.000468968
0.000527864
0.00058988
0.000532739
0.000221385
0.000221269
0.000221269
0.000220969
0.000220757
0.000219522
0.000218879
0.00021762
0.000215742
0.000217242
0.000212022
0.000215532
0.000215542
0.000226692
0.00023973
0.000264792
0.000296002
0.000333245
0.00037963
0.000433818
0.000495715
0.000562324
0.000521426
0.000226466
0.000226492
0.000226087
0.000226423
0.000224669
0.000224429
0.000218838
0.000216121
0.000206773
0.000203231
0.00019245
0.000189629
0.000183318
0.000188425
0.000197414
0.000220779
0.000254801
0.000300687
0.000349639
0.000406334
0.000470978
0.000540799
0.000509374
0.000231304
0.00023033
0.000228693
0.000226103
0.000222451
0.000217148
0.000211077
0.000202999
0.000194248
0.000184252
0.000174307
0.00016631
0.000150714
0.00014572
0.000146589
0.000167106
0.00020395
0.000251077
0.000304476
0.000368016
0.000440332
0.000518879
0.000506332
0.000238556
0.000238823
0.000236666
0.00023561
0.000231707
0.000228248
0.000220904
0.000212964
0.000201054
0.000185855
0.000168363
0.00014964
0.000125257
0.000104875
8.69315e-05
9.98226e-05
0.000143027
0.000200495
0.000264805
0.000336064
0.000416042
0.00050239
0.00050618
0.000248906
0.000249158
0.000246713
0.000245007
0.000239894
0.000232742
0.000223474
0.000210977
0.000195818
0.000176569
0.000153826
0.000126803
9.62714e-05
6.64346e-05
5.01134e-05
3.61083e-05
8.22107e-05
0.000136623
0.000205259
0.000285602
0.000373111
0.00046737
0.000495322
0.000262641
0.000262839
0.000260529
0.000259106
0.000254707
0.000250043
0.000241824
0.00023292
0.000218403
0.000203771
0.00018042
0.000152907
0.000116894
7.36011e-05
3.10709e-05
3.10709e-05
4.33338e-05
0.000106873
0.000182078
0.000267537
0.000358298
0.000457855
0.000499017
0.000279706
0.000279965
0.000278158
0.00027705
0.000273262
0.000269136
0.000261799
0.00025301
0.000239524
0.000222429
0.000202265
0.000179064
0.000151423
0.000120979
8.38093e-05
6.12577e-05
9.93548e-05
0.000145351
0.000200008
0.000273349
0.000357237
0.000455309
0.000497413
0.000300616
0.000301001
0.000299765
0.000299089
0.000296099
0.000292841
0.000286837
0.000279779
0.00026885
0.000256807
0.000239386
0.000221566
0.000198283
0.000176962
0.000155564
0.000147477
0.000161813
0.00020056
0.000263011
0.000329145
0.00040858
0.000505679
0.000529115
0.000324549
0.000325193
0.000324738
0.000324863
0.000323125
0.000321258
0.000317147
0.000312099
0.000304218
0.000295281
0.000282925
0.0002705
0.000255862
0.000244269
0.000235447
0.000237387
0.000253747
0.000288479
0.000343269
0.000410864
0.000489084
0.000570955
0.000551623
0.000352486
0.000353391
0.000353621
0.000354501
0.000353886
0.000353382
0.000351159
0.000348384
0.000343845
0.000338629
0.000332082
0.00032602
0.000320639
0.000318669
0.000321826
0.000333567
0.000356446
0.000393977
0.000446768
0.000512038
0.000584317
0.000675489
0.000624748
0.000382707
0.000384
0.000385106
0.000387108
0.000388056
0.000389513
0.000389797
0.000390028
0.000389421
0.000388668
0.000388297
0.000388802
0.000392404
0.000399858
0.000415168
0.000439265
0.000477517
0.000528109
0.000590197
0.000655338
0.000724246
0.000809734
0.000733839
0.000416925
0.000418604
0.000420503
0.000423574
0.000425969
0.000429311
0.000431949
0.000435216
0.000438653
0.000442949
0.000449484
0.000458307
0.000473196
0.000493098
0.000523485
0.000563598
0.000622259
0.000694538
0.000766839
0.000830056
0.000902445
0.000984545
0.000878796
0.000452531
0.000454655
0.000457468
0.000461921
0.000466215
0.000472202
0.000478167
0.000485859
0.000494675
0.000505586
0.000520103
0.000538537
0.000564731
0.000598661
0.000647787
0.000715287
0.000800803
0.000881012
0.000933917
0.000998047
0.00107735
0.00116621
0.00100814
0.000491731
0.000494385
0.000498263
0.000504384
0.000510872
0.000519673
0.000528887
0.000540626
0.000554171
0.000571347
0.000593911
0.000622932
0.000662837
0.000716323
0.000790169
0.000885102
0.000981221
0.00103406
0.00106631
0.00114382
0.00123318
0.0013326
0.00114314
0.000531342
0.000534484
0.000539343
0.000547021
0.000555605
0.0005674
0.000580571
0.000597849
0.00061856
0.000644966
0.000678495
0.000720529
0.000777337
0.000851888
0.000949995
0.00105522
0.00111432
0.00112114
0.00117534
0.00126979
0.00137277
0.00148334
0.00126132
0.000573044
0.000576919
0.000583299
0.000593451
0.000605367
0.000621449
0.000639539
0.000662529
0.000689239
0.000722267
0.000763164
0.000815851
0.000888077
0.000982235
0.00109271
0.0011824
0.00118369
0.00118742
0.00125722
0.0013599
0.00147733
0.00160495
0.00136834
0.000614499
0.000618963
0.000626531
0.000638372
0.000652396
0.000671333
0.000693046
0.00072097
0.00075419
0.000796393
0.00085062
0.000920092
0.00101195
0.00112018
0.00122666
0.00124435
0.00120868
0.00124276
0.0013177
0.00142689
0.00155714
0.00169692
0.00145783
0.000654739
0.000660013
0.000669429
0.000684369
0.000702482
0.000726785
0.000755106
0.000791435
0.00083459
0.00088874
0.000955715
0.00103869
0.00114462
0.00125233
0.00131412
0.0012425
0.00122503
0.00125425
0.00134424
0.0014678
0.00161549
0.00177054
0.00153691
0.000694049
0.000700146
0.000710828
0.000727542
0.000746352
0.000769512
0.000799035
0.000836047
0.000882347
0.000941392
0.00101892
0.00111955
0.00124089
0.00135272
0.00132496
0.00124324
0.00122429
0.00127578
0.00137401
0.00150842
0.0016653
0.00183013
0.00159747
0.000728113
0.000735278
0.000748095
0.000767476
0.000791802
0.000825143
0.000864947
0.000916384
0.000977322
0.00105375
0.00114523
0.00125556
0.00136812
0.00141563
0.00129063
0.00120073
0.00120073
0.00124331
0.00136259
0.00151934
0.00169473
0.00187603
0.00165264
0.000759525
0.000767003
0.000780527
0.000796956
0.000820608
0.000852333
0.000892568
0.000942855
0.0010047
0.00108052
0.00117221
0.00128439
0.00140969
0.0014934
0.00134402
0.00119562
0.00118608
0.00126368
0.00138233
0.00154106
0.00171879
0.00190452
0.00168224
0.000783879
0.000792213
0.000807258
0.000831678
0.000863548
0.000907311
0.000960363
0.00102944
0.00111169
0.00121492
0.0013343
0.00147122
0.00158614
0.00153114
0.00126146
0.00113161
0.00113161
0.00120411
0.00136094
0.00154882
0.00174698
0.00194848
0.00173086
3.93623e-06
3.93623e-06
9.7122e-06
0.000145378
5.86465e-06
5.86465e-06
1.10069e-05
7.41345e-05
3.90121e-06
3.90121e-06
5.04138e-06
1.03718e-05
1.84502e-06
1.95104e-06
2.9473e-06
3.92334e-06
1.69203e-05
1.91851e-05
2.20287e-05
2.11223e-05
0.000797073
0.000647481
0.000507896
0.000442764
0.00157382
0.00145226
0.00131168
0.00131168
0.00114151
0.00103083
0.000981163
0.000981163
0.000909437
0.000888212
0.000731378
0.000731378
0.000807982
0.000807982
0.000925481
0.000925481
0.000630931
0.000630931
0.000708323
0.000752629
0.000367006
0.000367006
0.000586494
0.00073122
0.000464066
0.000317064
0.000272678
0.000272678
0.000584052
0.000568245
0.000520486
0.000520486
0.000517799
0.000510932
0.00049207
0.00049207
0.000466728
0.000466728
0.0004726
0.0004726
0.000417414
0.000417414
0.000427149
0.000435576
0.000389134
0.000389134
0.00039824
0.000404354
0.000373026
0.000373026
0.000386287
0.000397105
0.000355956
0.000355956
0.000369798
0.00038248
0.000350811
0.000350811
0.000366993
0.000382622
0.000343902
0.000343902
0.00036084
0.000377695
0.00034418
0.00034418
0.000363339
0.000382416
0.000346017
0.000346017
0.000367085
0.000388064
0.000341615
0.000341615
0.000365467
0.000389228
0.00034572
0.00034572
0.000371328
0.000396839
0.000344918
0.000344918
0.000370914
0.000397157
0.000364246
0.000364246
0.00038973
0.000415968
0.000375916
0.000375916
0.000399765
0.000424651
0.000419916
0.000419916
0.000440722
0.000461561
0.000485838
0.000485838
0.000501247
0.0005157
0.000577865
0.000577865
0.0005919
0.000604616
0.000661896
0.000661896
0.000676289
0.000689624
0.000752509
0.000752509
0.000769948
0.00078631
0.000831404
0.000831404
0.000851378
0.000870263
0.00090432
0.00090432
0.000929045
0.000953101
0.000965934
0.000965934
0.000995182
0.00102354
0.0010208
0.0010208
0.00105422
0.00108632
0.00106264
0.00106264
0.00109905
0.00113378
0.00110126
0.00110126
0.00114081
0.00117837
0.00112201
0.00112201
0.00116344
0.00120281
0.00115523
0.00115523
0.00119864
0.00124011
0.000700264
0.000853355
0.000374409
8.7601e-05
6.98011e-05
4.72536e-05
3.63667e-05
6.11814e-05
0.00031048
0.000618536
0.000775401
0.00083421
0.000858168
0.000841892
0.000635505
0.000500128
0.00111438
0.000471716
0.000562214
0.000355274
0.000257268
5.65545e-05
2.50923e-05
3.28127e-05
4.36428e-05
0.000110816
0.000705824
0.000828258
0.000780714
0.000782061
0.000716606
0.000826348
0.000821441
0.00111661
0.0010814
0.00224614
0.000960664
0.000625211
3.99212e-05
2.23056e-05
1.41928e-05
2.21412e-05
2.93122e-05
6.57318e-05
0.000485023
0.000904069
0.000784883
0.000565622
0.000287399
0.000197412
0.000197412
0.00021535
0.000438603
0.000737257
0.00169083
0.000972365
0.000518049
8.58125e-06
8.19647e-06
1.23075e-05
1.96404e-05
2.93122e-05
0.000145323
0.00100175
0.000904069
0.000867626
0.00105031
0.00110829
0.00104289
0.00108459
0.00114121
0.00156889
0.00192745
0.0021973
0.000365741
0.000365741
2.1182e-05
8.19647e-06
1.25871e-05
5.16739e-05
7.8712e-05
0.000674177
0.00100175
0.00121335
0.00147116
0.00172856
0.00188936
0.00197356
0.00190838
0.00180205
0.00172672
0.00158832
0.000806742
0.000559905
0.000343948
0.000281454
0.000238309
0.00014435
0.000217662
0.000569995
0.000802482
0.00123837
0.00162353
0.00186759
0.00172674
0.00156058
0.00159937
0.0015423
0.00141691
0.00101324
0.000491452
0.000462585
0.000512957
0.000279138
0.00127946
0.000804291
0.000450231
0.000570244
0.00103664
0.00099124
0.00147169
0.00172628
0.00152964
0.0011559
0.000787174
0.000757313
0.000798505
0.000865951
0.000479405
0.000335246
0.000462585
0.000440841
0.000234478
0.00158295
0.00118765
0.000711886
0.00101886
0.00129574
0.00151505
0.00130432
0.00132494
0.000848389
0.000659804
0.000361695
0.000207896
0.000342175
0.000459534
0.000561388
0.000335246
0.000659778
0.000370641
0.000193658
0.00116295
0.00104484
0.000963627
0.0008531
0.000863878
0.0011786
0.00114687
0.000637746
0.000508741
0.000535031
0.000380139
0.000207896
0.000324822
0.000500812
0.000650485
0.000611719
0.000659778
0.000293314
0.000152439
0.00118818
0.000988614
0.00060473
0.000495321
0.000419495
0.000460901
0.000612415
0.000286168
0.000285099
0.00028376
0.000311494
0.000294004
0.000421998
0.000372545
0.000384326
0.000433115
0.000542468
0.000254739
0.000135024
0.00126533
0.000785326
0.000562188
0.000468311
0.000381539
0.000337863
0.000301823
0.000258825
0.000265943
0.000271465
0.000297925
0.00036257
0.000318754
0.000172593
0.000108344
0.000102291
0.00020118
0.0002385
0.000120032
0.00130992
0.00139425
0.000710943
0.000527712
0.000414378
0.000348148
0.000301823
0.000258825
0.000265943
0.000296512
0.000350282
0.000458189
0.000242088
0.000113406
7.78041e-05
6.32892e-05
5.85898e-05
6.98642e-05
3.54107e-05
0.000683928
0.00102033
0.00118347
0.000914238
0.000588445
0.000480194
0.00041717
0.000394166
0.00041718
0.000471962
0.000618688
0.000555547
0.000358275
0.000226827
0.000115442
6.21765e-05
4.77464e-05
3.48703e-05
2.69769e-05
0.000473621
0.000473621
0.00062245
0.000595854
0.00075106
0.000899805
0.000862001
0.000907115
0.000985205
0.000958154
0.00104156
0.000685875
0.000631784
0.000731914
0.00061178
0.000112081
5.37381e-05
3.77059e-05
2.69769e-05
0.000693171
0.000578324
0.000364246
0.00019782
0.000475429
0.000907235
0.00119605
0.00128797
0.00129072
0.00119233
0.00116751
0.00107214
0.000951185
0.00105522
0.00112242
0.000188641
6.22593e-05
4.40507e-05
3.13973e-05
0.000763853
0.000580715
0.000260244
0.00019782
0.000341582
0.000742487
0.00075416
0.000959682
0.00110436
0.00121875
0.00123334
0.00122663
0.00115754
0.00129231
0.00143855
0.00105345
0.000140055
5.77082e-05
4.17188e-05
0.000738691
0.000783719
0.000539752
0.000399683
0.000561728
0.000507681
0.000507681
0.000496166
0.000749554
0.000910466
0.000964802
0.00120801
0.00142011
0.00179536
0.00221981
0.00192568
0.00101661
0.000184736
0.000113577
0.000688586
0.000877545
0.000798526
0.000804125
0.000832957
0.000746578
0.000526014
0.000496166
0.00050357
0.000578409
0.000462311
0.00066802
0.000932329
0.00159991
0.00244002
0.0023727
0.00201213
0.00121175
0.000741892
0.000683181
0.000914338
0.000928858
0.00100093
0.00113923
0.00110494
0.000965018
0.000691192
0.000686234
0.000346122
0.000235359
0.000235359
0.000390995
0.000954863
0.00200452
0.00223399
0.00189388
0.00177243
0.00118262
0.000661235
0.000935764
0.000996633
0.00108109
0.00124289
0.00132855
0.00129358
0.001167
0.000951164
0.000648476
0.000408574
0.000358686
0.000469767
0.000784357
0.0017212
0.00222964
0.00189388
0.00173617
0.00132082
0.000666376
0.000946808
0.0010228
0.00111071
0.00124078
0.00135277
0.00138714
0.00133564
0.00119321
0.000976197
0.000799014
0.000642545
0.0006704
0.00074267
0.00139372
0.00216408
0.00196752
0.00183865
0.0014086
0.000660379
0.000961585
0.00104344
0.00113074
0.00124078
0.00133606
0.00138928
0.00137648
0.00128908
0.00115361
0.00102776
0.000910855
0.000885115
0.00074267
0.0011626
0.00185628
0.00192238
0.0016604
0.00134705
0.000672313
0.000977934
0.00106316
0.00115135
0.00124487
0.00133606
0.00138928
0.00138175
0.00133386
0.00124648
0.00115592
0.00106737
0.000953787
0.000849584
0.000855139
0.0014927
0.00192238
0.00176954
0.00134705
0.000684852
0.00100767
0.00109835
0.00118815
0.00126909
0.00134725
0.00140001
0.00139922
0.00136972
0.00131005
0.00124153
0.00117515
0.00104852
0.000938071
0.00078044
0.00130523
0.00188248
0.00180813
0.00139343
0.000691769
0.00103697
0.0011376
0.0012319
0.00130983
0.00137724
0.00142475
0.00143126
0.00140737
0.00135902
0.00129875
0.00125019
0.00114227
0.00102383
0.00078044
0.00104945
0.00165888
0.00184339
0.00140637
0.000707796
0.0010703
0.00118558
0.00128768
0.00137314
0.00143507
0.00147699
0.00148834
0.00146827
0.00142562
0.00136432
0.00132427
0.00123136
0.00117008
0.000875547
0.000814437
0.00140429
0.00183826
0.00141076
0.000710222
0.00109594
0.00122381
0.00133688
0.0014386
0.0015085
0.00155076
0.00156476
0.00154828
0.00151157
0.00144743
0.00141793
0.00132801
0.0012981
0.00102209
0.000747876
0.00124662
0.00192397
0.00147822
0.000741925
0.00112731
0.00126588
0.00139329
0.0015098
0.00159402
0.00164584
0.00166309
0.00164688
0.00161565
0.00154601
0.00152247
0.00143064
0.00141387
0.00112702
0.000747876
0.00114752
0.00181796
0.00143083
0.000754932
0.00116125
0.00130814
0.00144787
0.00157577
0.00167849
0.00174811
0.00177547
0.00176035
0.00173333
0.00165571
0.00163327
0.00153677
0.00151726
0.00126876
0.000835003
0.000915891
0.00170083
0.00143083
0.000809389
0.00119295
0.00133739
0.00148383
0.00162768
0.0017588
0.00185189
0.00189791
0.00188889
0.00186359
0.00177806
0.00174844
0.00164609
0.00161269
0.00139192
0.000953083
0.000631502
0.00139323
0.00147402
0.000889631
0.0012455
0.00136389
0.00149272
0.00162157
0.00176621
0.00192937
0.00201889
0.00202675
0.0020056
0.00191406
0.00187006
0.00176329
0.00171324
0.00154859
0.000983197
0.000615193
0.00116979
0.00188676
0.00103551
0.00135608
0.00142845
0.00151154
0.00161551
0.00171759
0.00187113
0.00209235
0.00215836
0.00214963
0.00205941
0.00199545
0.00188432
0.00181787
0.00164024
0.0011637
0.000615193
0.00107191
0.00159012
0.00117856
0.00151421
0.00153954
0.00156663
0.00161551
0.00167477
0.00178943
0.00201229
0.00226106
0.0022924
0.00221438
0.00213077
0.0020115
0.00192581
0.00175355
0.00131866
0.000765155
0.000738432
0.00131323
0.00134368
0.00169829
0.00170392
0.00168586
0.00166265
0.00165702
0.00169703
0.00189671
0.00222682
0.00240679
0.0023592
0.00225884
0.00213463
0.00202287
0.00187716
0.00148814
0.000875356
0.000432589
0.00106591
0.00148827
0.0019065
0.00191874
0.00187549
0.00177864
0.00165702
0.0016125
0.00182264
0.00216053
0.00243143
0.002494
0.00238766
0.00226219
0.0021198
0.00200073
0.00163549
0.000833418
0.000208357
0.000874486
0.00163588
0.00211861
0.00214655
0.00209502
0.00193495
0.00169761
0.0015442
0.00151713
0.00194527
0.00237284
0.00257258
0.00249873
0.00237881
0.00221566
0.00211684
0.00180138
0.000849147
0.000208357
0.000733805
0.00175988
0.00231486
0.00235907
0.00230368
0.00209556
0.00180091
0.00153932
0.00124029
0.00153448
0.00219857
0.00251182
0.00256605
0.00247849
0.00230153
0.00222229
0.00192243
0.00109579
0.000232303
0.000861937
0.0018705
0.00248086
0.00253943
0.00248661
0.00225081
0.00194547
0.00155807
0.00108245
0.00103421
0.00184054
0.00238762
0.0025239
0.00253641
0.00237359
0.00232524
0.00205054
0.00150649
0.000559941
0.000969481
0.00195334
0.00261684
0.00268785
0.00264623
0.00240059
0.00209578
0.00153671
0.000992834
0.000528818
0.00145486
0.00221003
0.00241385
0.00250053
0.00241851
0.00239839
0.00216512
0.00169221
0.000940625
0.000586582
0.00203173
0.00272749
0.00280955
0.00277637
0.00252825
0.00222763
0.00173643
0.000789283
0.000217686
0.00095454
0.00194376
0.00228929
0.00244
0.00240031
0.00242458
0.00223088
0.00182107
0.000892148
0.000547205
0.00207482
0.00281
0.00290131
0.00287333
0.00263131
0.00233368
0.00177037
0.00074263
0.000177515
0.000805815
0.00178435
0.00214043
0.00235783
0.0023659
0.00242204
0.00226873
0.00192664
0.00116944
0.000547205
0.00214082
0.00288398
0.00298269
0.00295803
0.00272352
0.00242523
0.00200307
0.000900976
0.000177515
0.000592103
0.00141351
0.00204931
0.00235783
0.0023659
0.00242204
0.00228792
0.00193494
0.00137053
0.000998129
)
;

boundaryField
{
    leftWall
    {
        type            calculated;
        value           uniform 0;
    }
    rightWall
    {
        type            calculated;
        value           uniform 0;
    }
    lowerWall
    {
        type            calculated;
        value           uniform 0;
    }
    atmosphere
    {
        type            calculated;
        value           uniform 0;
    }
    defaultFaces
    {
        type            empty;
    }
}


// ************************************************************************* //
