/*--------------------------------*- C++ -*----------------------------------*\
| =========                 |                                                 |
| \\      /  F ield         | OpenFOAM: The Open Source CFD Toolbox           |
|  \\    /   O peration     | Version:  2012                                  |
|   \\  /    A nd           | Website:  www.openfoam.com                      |
|    \\/     M anipulation  |                                                 |
\*---------------------------------------------------------------------------*/
FoamFile
{
    version     2.0;
    format      ascii;
    class       volScalarField;
    location    "0.66";
    object      p;
}
// * * * * * * * * * * * * * * * * * * * * * * * * * * * * * * * * * * * * * //

dimensions      [1 -1 -2 0 0 0 0];


internalField   nonuniform List<scalar> 
2268
(
101842
101844
101849
101857
101868
101881
101896
101915
101934
101957
101979
102003
102026
102052
102072
102098
102115
102139
102151
102172
102179
102193
102194
101782
101785
101790
101798
101808
101822
101837
101855
101875
101897
101920
101944
101967
101993
102013
102039
102056
102080
102093
102114
102121
102135
102136
101722
101725
101730
101738
101748
101761
101777
101795
101815
101838
101860
101885
101908
101934
101955
101981
101998
102022
102035
102057
102063
102079
102078
101662
101664
101669
101677
101688
101701
101717
101735
101755
101778
101801
101826
101849
101876
101897
101922
101940
101964
101978
101999
102007
102022
102022
101600
101603
101608
101616
101626
101639
101655
101674
101695
101718
101741
101767
101790
101817
101839
101865
101882
101908
101920
101944
101950
101969
101966
101539
101541
101546
101554
101565
101578
101595
101613
101634
101658
101681
101707
101732
101759
101781
101807
101825
101850
101864
101887
101896
101915
101912
101476
101478
101484
101491
101502
101515
101531
101550
101572
101597
101621
101648
101673
101701
101724
101751
101768
101794
101807
101833
101839
101864
101855
101414
101417
101422
101429
101440
101453
101470
101489
101511
101536
101561
101588
101614
101643
101667
101693
101712
101737
101752
101777
101788
101813
101805
102723
101926
101892
101815
101889
101983
102318
102454
102275
102045
101919
101773
101732
101688
101722
101739
101857
102224
102840
102492
101744
101801
101755
101834
101938
102360
102425
102217
101966
101851
101726
101679
101645
101671
101665
101749
102049
102606
101980
101695
101748
101702
101775
101865
102220
102392
102282
101949
101820
101670
101643
101612
101641
101622
101660
101853
102429
101804
101678
101735
101688
101738
101814
102175
102332
102088
101890
101795
101682
101645
101617
101638
101615
101640
101660
102227
101809
101685
101733
101687
101732
101743
102056
102186
102119
101879
101755
101631
101624
101606
101638
101618
101640
101619
102029
101822
101688
101733
101688
101733
101691
102007
102045
101889
101726
101649
101595
101591
101587
101621
101611
101639
101550
101878
101781
101685
101733
101687
101732
101704
101858
101881
101797
101628
101570
101528
101530
101527
101562
101570
101673
101495
101851
101762
101677
101733
101687
101724
101659
101779
101724
101599
101499
101481
101474
101474
101477
101492
101519
101658
101531
101952
101353
101354
101356
101359
101365
101373
101384
101399
101418
101441
101467
101495
101523
101553
101578
101606
101623
101651
101663
101695
101696
101744
101708
101327
101327
101327
101327
101327
101329
101331
101335
101341
101350
101364
101384
101407
101433
101460
101485
101504
101529
101551
101576
101601
101636
101681
101327
101327
101327
101327
101327
101327
101327
101327
101327
101328
101329
101334
101341
101354
101370
101386
101397
101415
101431
101457
101471
101522
101533
101327
101327
101327
101327
101327
101327
101327
101327
101327
101327
101327
101327
101328
101329
101331
101335
101337
101342
101351
101360
101368
101397
101428
101327
101327
101327
101327
101327
101327
101327
101327
101327
101327
101327
101327
101327
101327
101327
101327
101327
101327
101327
101327
101326
101331
101336
101327
101327
101327
101327
101327
101327
101327
101327
101327
101327
101327
101327
101327
101327
101327
101327
101327
101327
101327
101327
101327
101327
101329
101326
101326
101326
101326
101326
101326
101326
101326
101326
101326
101326
101327
101327
101327
101327
101327
101327
101327
101327
101326
101325
101324
101325
101326
101326
101326
101326
101326
101326
101326
101326
101326
101326
101326
101326
101326
101326
101326
101326
101326
101326
101326
101326
101324
101324
101323
101326
101326
101326
101326
101326
101326
101326
101326
101326
101326
101326
101326
101326
101326
101326
101326
101326
101326
101325
101325
101324
101324
101324
101326
101326
101326
101326
101326
101326
101326
101326
101326
101326
101326
101326
101326
101326
101326
101326
101326
101325
101325
101325
101324
101323
101323
101326
101326
101326
101326
101326
101326
101326
101326
101326
101326
101326
101326
101326
101326
101326
101325
101325
101325
101325
101324
101324
101323
101323
101325
101325
101325
101325
101325
101325
101325
101325
101325
101325
101325
101325
101325
101325
101325
101325
101325
101325
101325
101324
101324
101323
101323
101325
101325
101325
101325
101325
101325
101325
101325
101325
101325
101325
101325
101325
101325
101325
101325
101325
101325
101325
101324
101324
101323
101323
101325
101325
101325
101325
101325
101325
101325
101325
101325
101325
101325
101325
101325
101325
101325
101325
101325
101325
101324
101324
101324
101324
101323
101325
101325
101325
101325
101325
101325
101325
101325
101325
101325
101325
101325
101325
101325
101325
101325
101325
101324
101324
101324
101324
101324
101323
101325
101325
101325
101325
101325
101325
101325
101325
101325
101325
101325
101325
101324
101324
101324
101324
101324
101324
101324
101324
101324
101324
101323
101324
101324
101324
101324
101324
101324
101324
101324
101324
101324
101324
101324
101324
101324
101324
101324
101324
101324
101324
101324
101324
101324
101324
101324
101324
101324
101324
101324
101324
101324
101324
101324
101324
101324
101324
101324
101324
101324
101324
101324
101324
101324
101324
101324
101324
101324
101324
101324
101324
101324
101324
101324
101324
101324
101324
101324
101324
101324
101324
101324
101324
101324
101324
101324
101324
101324
101324
101324
101324
101324
101324
101324
101324
101324
101324
101324
101324
101324
101324
101324
101324
101324
101324
101324
101324
101324
101324
101324
101324
101324
101324
101323
101324
101324
101324
101324
101324
101324
101324
101324
101324
101324
101324
101324
101324
101324
101324
101324
101324
101324
101324
101324
101324
101323
101323
101323
101323
101323
101323
101323
101323
101323
101323
101323
101323
101323
101323
101323
101323
101324
101324
101324
101324
101324
101323
101323
101323
101323
101323
101323
101323
101323
101323
101323
101323
101323
101323
101323
101323
101323
101323
101323
101323
101323
101323
101323
101323
101323
101323
101323
101323
101323
101323
101323
101323
101323
101323
101323
101323
101323
101323
101323
101323
101323
101323
101323
101323
101323
101323
101323
101323
101323
101323
101323
101323
101323
101323
101323
101323
101323
101323
101323
101323
101323
101323
101323
101323
101323
101323
101323
101323
101323
101323
101323
101323
101323
101323
101322
101322
101322
101322
101323
101323
101323
101323
101323
101323
101323
101323
101323
101323
101323
101323
101323
101323
101323
101323
101323
101323
101323
101322
101322
101322
101322
101322
101322
101322
101322
101322
101322
101323
101323
101323
101323
101323
101323
101323
101323
101323
101323
101323
101323
101323
101322
101322
101322
101322
101322
101322
101322
101322
101322
101322
101322
101322
101322
101323
101323
101323
101323
101323
101323
101323
101323
101323
101323
101322
101322
101322
101322
101322
101322
101322
101322
101322
101322
101322
101322
101322
101322
101322
101322
101323
101323
101323
101323
101323
101323
101323
101322
101322
101322
101322
101322
101322
101322
101322
101322
101322
101322
101322
101322
101322
101322
101322
101322
101322
101323
101323
101323
101323
101323
101321
101321
101321
101321
101321
101321
101321
101321
101322
101322
101322
101322
101322
101322
101322
101322
101322
101322
101322
101322
101322
101322
101322
101321
101321
101321
101321
101321
101321
101321
101321
101321
101321
101321
101322
101322
101322
101322
101322
101322
101322
101322
101322
101322
101322
101322
101321
101321
101321
101321
101321
101321
101321
101321
101321
101321
101321
101321
101321
101321
101321
101322
101322
101322
101322
101322
101322
101322
101322
101320
101320
101320
101321
101321
101321
101321
101321
101321
101321
101321
101321
101321
101321
101321
101321
101321
101321
101321
101322
101322
101322
101322
101320
101320
101320
101320
101320
101320
101320
101320
101320
101320
101321
101321
101321
101321
101321
101321
101321
101321
101321
101321
101321
101321
101321
101320
101320
101320
101320
101320
101320
101320
101320
101320
101320
101320
101320
101320
101320
101321
101321
101321
101321
101321
101321
101321
101321
101321
101319
101319
101319
101320
101320
101320
101320
101320
101320
101320
101320
101320
101320
101320
101320
101320
101320
101320
101320
101320
101320
101320
101320
101319
101319
101319
101319
101319
101319
101319
101319
101319
101320
101320
101320
101320
101320
101320
101320
101320
101320
101320
101320
101320
101320
101320
101319
101319
101319
101319
101319
101319
101319
101319
101319
101319
101319
101319
101319
101319
101319
101319
101319
101319
101319
101319
101319
101319
101319
101319
101319
101319
101319
101319
101319
101319
101319
101319
101319
101319
101319
101319
101319
101319
101319
101319
101319
101319
101319
101319
101319
101319
101318
101318
101318
101318
101318
101318
101318
101318
101318
101318
101318
101318
101318
101318
101318
101318
101318
101318
101318
101318
101318
101318
101318
101318
101318
101318
101318
101318
101318
101318
101318
101318
101318
101318
101318
101318
101318
101318
101318
101318
101318
101318
101318
101318
101318
101317
101791
101723
101797
101678
101710
101759
101761
101845
101596
101596
101651
101644
101472
101497
101528
101564
101361
101362
101391
101406
101332
101332
101353
101396
101332
101335
101357
101370
101324
101323
101335
101369
101324
101324
101328
101340
101323
101323
101323
101329
101323
101323
101323
101323
101323
101323
101322
101322
101323
101323
101323
101323
101323
101323
101322
101322
101323
101323
101323
101323
101323
101323
101323
101323
101324
101323
101323
101323
101323
101323
101323
101323
101323
101323
101323
101323
101323
101323
101323
101323
101323
101323
101323
101323
101323
101323
101323
101323
101323
101323
101323
101323
101323
101323
101323
101323
101323
101323
101323
101323
101323
101323
101323
101323
101323
101323
101323
101323
101323
101323
101323
101323
101323
101323
101323
101323
101323
101323
101323
101323
101322
101322
101322
101322
101322
101322
101322
101322
101322
101322
101322
101322
101321
101321
101321
101321
101321
101321
101321
101321
101321
101321
101321
101321
101320
101320
101320
101320
101320
101320
101320
101320
101319
101319
101319
101319
101319
101319
101319
101319
101318
101318
101318
101318
101317
101317
101317
101317
101710
101676
101733
101670
101676
101624
101624
101537
101483
101467
101467
101465
101466
101464
101467
101472
101527
101517
101781
101743
101695
101715
101695
101674
101568
101493
101468
101466
101465
101465
101464
101465
101464
101465
101465
101477
101493
101498
101752
101648
101721
101650
101614
101501
101469
101465
101465
101464
101465
101464
101464
101462
101463
101462
101467
101496
101468
101599
101646
101662
101626
101522
101474
101466
101465
101465
101465
101465
101464
101465
101464
101465
101466
101468
101486
101470
101488
101558
101627
101584
101469
101465
101467
101464
101465
101465
101465
101464
101465
101464
101466
101464
101464
101486
101469
101467
101547
101583
101492
101467
101464
101465
101465
101465
101464
101465
101464
101465
101465
101465
101465
101461
101465
101469
101394
101455
101501
101466
101465
101465
101465
101464
101465
101465
101465
101464
101465
101465
101466
101465
101464
101466
101479
101426
101449
101452
101463
101464
101465
101464
101464
101464
101464
101465
101464
101465
101465
101465
101465
101462
101465
101481
101381
101430
101434
101436
101458
101465
101464
101464
101464
101464
101465
101464
101464
101464
101465
101465
101464
101464
101480
101332
101367
101399
101419
101443
101456
101464
101462
101451
101439
101440
101449
101450
101452
101454
101453
101461
101423
101473
101323
101330
101357
101370
101405
101425
101428
101429
101435
101430
101422
101442
101441
101441
101447
101422
101421
101418
101424
101323
101323
101337
101352
101361
101371
101393
101384
101377
101374
101367
101381
101378
101385
101407
101388
101394
101387
101409
101323
101323
101324
101324
101338
101348
101350
101346
101338
101335
101338
101353
101359
101362
101392
101380
101393
101391
101395
101323
101323
101324
101324
101324
101324
101323
101323
101323
101323
101325
101325
101324
101325
101332
101354
101368
101389
101407
101323
101323
101324
101324
101324
101323
101323
101323
101323
101323
101323
101324
101324
101324
101324
101329
101351
101383
101395
101323
101323
101324
101324
101324
101323
101323
101322
101323
101323
101323
101323
101323
101324
101323
101334
101405
101396
101403
101323
101323
101324
101324
101323
101323
101322
101322
101322
101323
101323
101323
101323
101324
101326
101331
101372
101443
101424
101323
101323
101323
101323
101323
101322
101322
101322
101322
101322
101323
101322
101321
101321
101322
101327
101448
101432
101419
101323
101323
101323
101323
101323
101322
101322
101322
101322
101322
101322
101322
101321
101320
101321
101319
101353
101378
101386
101323
101323
101323
101323
101323
101322
101322
101322
101322
101322
101322
101322
101321
101320
101321
101322
101358
101392
101408
101323
101323
101323
101323
101323
101322
101322
101322
101322
101322
101322
101322
101321
101321
101321
101322
101327
101326
101363
101323
101323
101323
101323
101323
101322
101322
101322
101322
101322
101322
101322
101321
101321
101321
101322
101321
101322
101331
101323
101323
101323
101323
101323
101322
101322
101322
101322
101322
101322
101322
101321
101321
101321
101321
101322
101321
101325
101323
101323
101323
101323
101323
101322
101322
101322
101322
101322
101322
101322
101321
101321
101321
101322
101321
101322
101322
101323
101323
101323
101323
101322
101322
101322
101322
101322
101322
101322
101322
101321
101321
101321
101321
101321
101321
101321
101323
101323
101323
101323
101322
101322
101322
101322
101322
101322
101322
101322
101321
101321
101321
101321
101321
101321
101321
101323
101323
101323
101322
101322
101322
101322
101322
101322
101322
101322
101321
101321
101321
101321
101321
101321
101321
101321
101323
101323
101322
101322
101322
101322
101322
101322
101322
101321
101321
101321
101321
101321
101321
101321
101321
101321
101321
101323
101323
101322
101322
101322
101322
101322
101321
101321
101321
101321
101321
101321
101321
101321
101321
101321
101322
101317
101322
101322
101322
101322
101322
101321
101321
101321
101321
101321
101321
101321
101321
101321
101321
101321
101322
101322
101330
101322
101322
101322
101322
101321
101321
101321
101321
101321
101321
101321
101321
101321
101321
101321
101321
101321
101320
101321
101322
101322
101322
101321
101321
101321
101320
101320
101320
101320
101320
101320
101321
101320
101321
101321
101321
101321
101321
101322
101322
101321
101321
101321
101320
101320
101320
101320
101320
101320
101320
101320
101320
101321
101320
101322
101320
101323
101321
101321
101321
101320
101320
101320
101319
101319
101319
101319
101319
101319
101320
101320
101321
101320
101321
101320
101322
101321
101321
101320
101320
101320
101319
101319
101318
101318
101318
101319
101319
101320
101319
101320
101320
101321
101320
101322
101320
101320
101320
101319
101319
101318
101318
101317
101317
101318
101318
101318
101319
101319
101320
101319
101321
101320
101321
101320
101320
101319
101319
101318
101318
101317
101316
101316
101317
101318
101318
101319
101319
101319
101319
101320
101319
101320
101319
101319
101319
101318
101318
101317
101317
101316
101316
101316
101317
101318
101318
101318
101319
101319
101319
101318
101318
101319
101319
101319
101318
101318
101317
101317
101316
101316
101316
101317
101317
101318
101318
101318
101318
101318
101318
101318
101318
101318
101318
101318
101317
101317
101317
101316
101316
101316
101317
101317
101318
101318
101318
101318
101319
101319
101319
101318
101318
101318
101318
101318
101317
101317
101317
101317
101317
101317
101318
101318
101318
101318
101318
101318
101317
101318
101317
101317
101317
101317
101317
101317
101317
101317
101317
101317
101317
101317
101317
101318
101318
101318
101318
101318
101319
)
;

boundaryField
{
    leftWall
    {
        type            zeroGradient;
    }
    rightWall
    {
        type            zeroGradient;
    }
    lowerWall
    {
        type            zeroGradient;
    }
    atmosphere
    {
        type            fixedValue;
        value           uniform 101325;
    }
    defaultFaces
    {
        type            empty;
    }
}


// ************************************************************************* //
