/*--------------------------------*- C++ -*----------------------------------*\
| =========                 |                                                 |
| \\      /  F ield         | OpenFOAM: The Open Source CFD Toolbox           |
|  \\    /   O peration     | Version:  2012                                  |
|   \\  /    A nd           | Website:  www.openfoam.com                      |
|    \\/     M anipulation  |                                                 |
\*---------------------------------------------------------------------------*/
FoamFile
{
    version     2.0;
    format      ascii;
    class       surfaceScalarField;
    location    "0.66";
    object      phi;
}
// * * * * * * * * * * * * * * * * * * * * * * * * * * * * * * * * * * * * * //

dimensions      [0 3 -1 0 0 0 0];
oriented        oriented;


internalField   nonuniform List<scalar> 
4432
(
2.33114e-07
-2.33114e-07
5.97474e-07
-3.6436e-07
7.96009e-07
-1.98536e-07
7.30525e-07
6.54835e-08
4.90984e-07
2.39541e-07
3.5871e-07
1.32274e-07
1.26508e-07
2.32201e-07
-4.6157e-07
5.88078e-07
-1.09792e-06
6.36353e-07
-1.79906e-06
7.01136e-07
-2.587e-06
7.87935e-07
-3.37629e-06
7.89295e-07
-3.99013e-06
6.13836e-07
-4.37344e-06
3.83305e-07
-4.61568e-06
2.42241e-07
-4.75755e-06
1.41869e-07
-4.77993e-06
2.23816e-08
-4.53649e-06
-2.43451e-07
-4.09291e-06
-4.43577e-07
-3.26063e-06
-8.32287e-07
-2.26992e-06
-9.90717e-07
-6.04788e-07
-1.66513e-06
-6.04813e-07
2.17895e-07
-4.51009e-07
5.81816e-07
-7.28281e-07
7.98443e-07
-4.15162e-07
7.6663e-07
9.72958e-08
5.47325e-07
4.58846e-07
4.04903e-07
2.74695e-07
1.53802e-07
4.83302e-07
-4.39291e-07
1.18117e-06
-1.04129e-06
1.23836e-06
-1.75191e-06
1.41175e-06
-2.5872e-06
1.62322e-06
-3.36073e-06
1.56283e-06
-3.98557e-06
1.23867e-06
-4.41285e-06
8.10583e-07
-4.67601e-06
5.05393e-07
-4.81304e-06
2.78903e-07
-4.80848e-06
1.78127e-08
-4.56814e-06
-4.83791e-07
-4.19761e-06
-8.14108e-07
-3.54772e-06
-1.48218e-06
-2.8933e-06
-1.64514e-06
-1.79236e-06
-2.76608e-06
-2.3972e-06
2.16864e-07
-6.67874e-07
6.08976e-07
-1.12039e-06
8.558e-07
-6.61987e-07
8.7478e-07
7.83163e-08
6.84202e-07
6.49423e-07
5.01021e-07
4.57875e-07
1.68974e-07
8.15348e-07
-4.6412e-07
1.81426e-06
-1.10722e-06
1.88145e-06
-1.85069e-06
2.15522e-06
-2.66684e-06
2.43937e-06
-3.39879e-06
2.29477e-06
-3.99965e-06
1.83953e-06
-4.44708e-06
1.25801e-06
-4.73883e-06
7.97145e-07
-4.88162e-06
4.21689e-07
-4.8408e-06
-2.30125e-08
-4.54459e-06
-7.80004e-07
-4.11813e-06
-1.24056e-06
-3.42134e-06
-2.17898e-06
-2.66614e-06
-2.40034e-06
-1.44728e-06
-3.98495e-06
-3.84451e-06
2.30417e-07
-8.98291e-07
6.28086e-07
-1.51806e-06
8.74373e-07
-9.08274e-07
9.43968e-07
8.72071e-09
8.13402e-07
7.79989e-07
6.25563e-07
6.45713e-07
2.60052e-07
1.18086e-06
-3.30099e-07
2.40441e-06
-9.56424e-07
2.50778e-06
-1.72502e-06
2.92381e-06
-2.58566e-06
3.30001e-06
-3.40902e-06
3.11814e-06
-4.11978e-06
2.55029e-06
-4.64836e-06
1.78659e-06
-4.93879e-06
1.08758e-06
-5.04374e-06
5.26634e-07
-4.96943e-06
-9.73254e-08
-4.70346e-06
-1.04598e-06
-4.30066e-06
-1.64337e-06
-3.62661e-06
-2.85304e-06
-2.82087e-06
-3.20608e-06
-1.63892e-06
-5.1669e-06
-5.48347e-06
3.0897e-07
-1.20726e-06
6.95969e-07
-1.90506e-06
9.67318e-07
-1.17962e-06
1.10109e-06
-1.25047e-07
1.04204e-06
8.39037e-07
8.05948e-07
8.81802e-07
3.18679e-07
1.66813e-06
-3.32588e-07
3.05568e-06
-1.05297e-06
3.22816e-06
-1.90038e-06
3.77122e-06
-2.74123e-06
4.14087e-06
-3.52891e-06
3.90582e-06
-4.20395e-06
3.22533e-06
-4.70473e-06
2.28737e-06
-5.00948e-06
1.39232e-06
-5.17348e-06
6.90638e-07
-5.1168e-06
-1.54016e-07
-4.84946e-06
-1.31332e-06
-4.46847e-06
-2.02435e-06
-3.88447e-06
-3.43705e-06
-3.14014e-06
-3.95042e-06
-1.5128e-06
-6.79425e-06
-6.99629e-06
4.2497e-07
-1.63223e-06
7.18967e-07
-2.19906e-06
9.76222e-07
-1.43688e-06
1.16192e-06
-3.10747e-07
1.2065e-06
7.94454e-07
9.93273e-07
1.09503e-06
5.11541e-07
2.14986e-06
-4.04921e-08
3.60771e-06
-7.26062e-07
3.91373e-06
-1.65458e-06
4.69974e-06
-2.62908e-06
5.11536e-06
-3.59312e-06
4.86986e-06
-4.46173e-06
4.09393e-06
-5.04824e-06
2.87388e-06
-5.31154e-06
1.65562e-06
-5.43175e-06
8.10849e-07
-5.34008e-06
-2.4569e-07
-5.07187e-06
-1.58152e-06
-4.65402e-06
-2.44221e-06
-4.11236e-06
-3.97872e-06
-3.29916e-06
-4.76362e-06
-1.52816e-06
-8.56525e-06
-8.52445e-06
5.72418e-07
-2.20465e-06
8.57406e-07
-2.48405e-06
1.13139e-06
-1.71086e-06
1.40706e-06
-5.86417e-07
1.55228e-06
6.49227e-07
1.28002e-06
1.3673e-06
6.78968e-07
2.75091e-06
-3.61233e-09
4.29029e-06
-8.94041e-07
4.80415e-06
-1.93045e-06
5.73615e-06
-2.87038e-06
6.05529e-06
-3.76606e-06
5.76553e-06
-4.56367e-06
4.89155e-06
-5.10681e-06
3.41702e-06
-5.39736e-06
1.94616e-06
-5.65073e-06
1.06422e-06
-5.63796e-06
-2.58466e-07
-5.39342e-06
-1.82607e-06
-5.00305e-06
-2.83258e-06
-4.70147e-06
-4.28031e-06
-4.11042e-06
-5.35467e-06
-1.63733e-06
-1.10383e-05
-1.01618e-05
6.97781e-07
-2.90275e-06
1.01175e-06
-2.79831e-06
1.30179e-06
-2.00107e-06
1.63523e-06
-9.1993e-07
1.86225e-06
4.22176e-07
1.61812e-06
1.6114e-06
1.11632e-06
3.25271e-06
5.04985e-07
4.90163e-06
-4.34268e-07
5.74341e-06
-1.52707e-06
6.82895e-06
-2.66003e-06
7.18825e-06
-3.90274e-06
7.00825e-06
-4.98101e-06
5.96981e-06
-5.56945e-06
4.00547e-06
-5.7483e-06
2.12501e-06
-5.94383e-06
1.25976e-06
-5.9105e-06
-2.91798e-07
-5.61994e-06
-2.11664e-06
-5.15643e-06
-3.29609e-06
-4.89791e-06
-4.53883e-06
-4.18589e-06
-6.0667e-06
-2.0747e-06
-1.31495e-05
-1.22365e-05
-0.000106608
0.000106346
-0.000134615
2.78918e-05
-0.000145289
1.05511e-05
-0.000145567
1.57521e-07
-0.00013982
-5.87823e-06
-0.000125468
-1.43928e-05
-0.000109867
-1.5688e-05
-0.000104805
-5.21462e-06
-0.000117908
1.29123e-05
-0.000136181
1.80992e-05
-0.000146933
1.0579e-05
-0.000153764
6.70702e-06
-0.000156947
3.04975e-06
-0.000156967
-9.1813e-08
-0.000152209
-4.87439e-06
-0.000142721
-9.59242e-06
-0.000123324
-1.94646e-05
-8.52839e-05
-3.80417e-05
-8.54279e-05
-8.04645e-05
0.00018664
-9.54707e-05
4.27721e-05
-9.96308e-05
1.46014e-05
-9.71231e-05
-2.44426e-06
-9.3843e-05
-9.25625e-06
-8.30923e-05
-2.51951e-05
-7.33851e-05
-2.55354e-05
-8.05369e-05
1.78967e-06
-9.98185e-05
3.20072e-05
-0.000114981
3.30676e-05
-0.000123816
1.91857e-05
-0.00012911
1.17899e-05
-0.000132058
5.7667e-06
-0.000131972
-3.89695e-07
-0.000126777
-1.02878e-05
-0.000117228
-1.93066e-05
-9.57034e-05
-4.11006e-05
-6.4174e-05
-6.9624e-05
-0.000149752
-5.94733e-05
0.000246138
-6.58698e-05
4.88051e-05
-7.52966e-05
2.3678e-05
-6.8767e-05
-9.2336e-06
-5.79113e-05
-2.02586e-05
-3.56535e-05
-4.75126e-05
-4.88012e-06
-5.63484e-05
-7.65257e-06
4.36598e-06
-3.52724e-05
5.9041e-05
-5.7391e-05
5.46284e-05
-8.49851e-05
4.61616e-05
-0.000110431
3.67151e-05
-0.000126318
2.10331e-05
-0.00012995
2.66683e-06
-0.000121862
-1.90284e-05
-0.000111466
-3.02992e-05
-8.94454e-05
-6.35691e-05
-5.07067e-05
-0.000108611
-0.000200636
-3.56142e-06
0.000249584
-2.47389e-05
6.95402e-05
-8.45137e-05
8.29986e-05
-9.49787e-05
8.24175e-07
-6.31251e-05
-5.25155e-05
-2.26343e-05
-8.82879e-05
9.99445e-06
-8.90237e-05
4.20849e-05
-2.7736e-05
7.24962e-05
2.8531e-05
8.40349e-05
4.27988e-05
7.21449e-05
5.76425e-05
4.6466e-05
6.18457e-05
4.33493e-06
6.263e-05
-4.23998e-05
4.88456e-05
-8.04608e-05
1.84376e-05
-0.000128244
1.69282e-05
-8.90203e-05
-0.000103325
-4.6235e-05
-0.000151756
-0.000247241
9.2461e-06
0.00024
-3.11646e-05
0.000109526
-3.95295e-05
9.1009e-05
-5.70402e-05
1.79834e-05
-2.65131e-05
-8.33693e-05
1.57609e-05
-0.000130921
2.75209e-05
-0.000100883
4.8234e-05
-4.8451e-05
7.57101e-05
1.05182e-06
9.81711e-05
2.03128e-05
0.000110767
4.49523e-05
0.000119431
5.29474e-05
0.00012508
5.65452e-05
0.000118465
5.48919e-05
7.84788e-05
5.78482e-05
1.36924e-05
8.11516e-05
-2.45714e-05
-6.56958e-05
-4.03521e-05
-0.000136557
-0.000288108
4.7254e-06
0.000234764
-4.99446e-05
0.000163782
4.6027e-06
3.61252e-05
2.57687e-05
-3.54308e-06
1.98051e-05
-7.77598e-05
3.39685e-05
-0.000145262
4.19005e-05
-0.000108842
6.09411e-05
-6.74935e-05
8.21545e-05
-2.01629e-05
9.81238e-05
4.342e-06
0.000107645
3.54293e-05
0.000114971
4.56192e-05
0.000121637
4.98472e-05
0.00012707
4.93254e-05
0.000128893
5.56788e-05
0.000139999
6.95666e-05
5.75529e-05
1.60822e-05
-2.42612e-05
-5.52366e-05
-0.00031263
2.40709e-06
0.000232097
-5.47736e-05
0.000220556
-2.01969e-05
1.20357e-06
4.18509e-05
-6.59601e-05
5.21773e-05
-8.83978e-05
4.40418e-05
-0.000137289
4.94458e-05
-0.000114252
6.33493e-05
-8.13991e-05
8.05072e-05
-3.73257e-05
9.49919e-05
-1.01798e-05
0.000103816
2.6568e-05
0.000110341
3.90679e-05
0.000116496
4.36671e-05
0.00012314
4.26569e-05
0.000126075
5.27161e-05
0.00012792
6.7536e-05
6.64094e-05
7.70543e-05
-2.32138e-06
1.29681e-05
-0.000315092
1.48946e-06
0.000230327
1.45158e-05
0.000207134
3.07587e-05
-1.54744e-05
4.65917e-05
-8.21105e-05
4.97378e-05
-9.18731e-05
4.66654e-05
-0.000134268
5.2923e-05
-0.000120512
6.5859e-05
-9.43374e-05
7.9874e-05
-5.14787e-05
9.13457e-05
-2.19489e-05
9.90499e-05
1.85184e-05
0.000105733
3.20433e-05
0.000112885
3.61837e-05
0.000120688
3.45484e-05
0.000123377
4.98233e-05
0.000123238
6.74849e-05
7.41526e-05
0.000125657
9.27901e-06
7.72614e-05
-0.000306277
1.90236e-06
-4.81867e-06
2.85652e-06
-3.76478e-06
3.82705e-06
-2.98241e-06
4.71382e-06
-1.81329e-06
5.22653e-06
-9.85558e-08
5.00066e-06
1.83132e-06
4.41285e-06
3.83669e-06
3.07479e-06
6.23692e-06
5.72659e-07
8.24369e-06
-2.44995e-06
9.85103e-06
-5.74464e-06
1.04829e-05
-8.73908e-06
1.00027e-05
-1.0777e-05
8.0077e-06
-1.18234e-05
5.05194e-06
-1.22639e-05
2.56546e-06
-1.32666e-05
2.26245e-06
-1.36509e-05
9.25212e-08
-1.26777e-05
-3.0899e-06
-1.11736e-05
-4.80016e-06
-1.12326e-05
-4.47986e-06
-1.08554e-05
-6.44386e-06
-1.62472e-05
-7.75781e-06
-6.67155e-06
-2.18121e-05
-1.36554e-05
8.82922e-06
-2.65122e-05
9.08466e-06
-4.13159e-05
1.1814e-05
-5.20749e-05
8.93915e-06
-4.24869e-05
-9.68328e-06
-2.39722e-05
-1.66795e-05
-1.35987e-05
-6.52968e-06
-8.24621e-06
8.99053e-07
-6.3436e-06
6.36178e-06
-6.5767e-06
1.01068e-05
-7.60531e-06
1.1524e-05
-8.34737e-06
1.07457e-05
-8.79856e-06
8.45692e-06
-1.01144e-05
6.36707e-06
-1.22017e-05
4.65269e-06
-1.46772e-05
4.73798e-06
-1.56421e-05
1.0574e-06
-1.47422e-05
-3.98975e-06
-1.38774e-05
-5.66505e-06
-1.47535e-05
-3.60375e-06
-1.64574e-05
-4.73995e-06
-2.42796e-05
6.43752e-08
4.54015e-06
-3.54913e-05
-3.72634e-06
1.2548e-05
-7.20577e-06
1.25564e-05
-1.07563e-05
1.53569e-05
-1.33052e-05
1.14803e-05
-1.66199e-05
-6.37626e-06
-2.14072e-05
-1.19001e-05
-2.79188e-05
-2.58252e-08
-2.98414e-05
2.81636e-06
-2.66901e-05
3.20988e-06
-2.82893e-05
1.17154e-05
-3.07835e-05
1.40486e-05
-3.02264e-05
1.02361e-05
-2.84958e-05
6.7706e-06
-2.4741e-05
2.6432e-06
-1.91944e-05
-8.89523e-07
-1.37732e-05
-6.87379e-07
-9.02677e-06
-3.69338e-06
-7.67152e-06
-5.34727e-06
-8.2806e-06
-5.05659e-06
-9.41027e-06
-2.47431e-06
-9.5145e-06
-4.63601e-06
-1.03374e-05
8.87314e-07
4.03508e-06
-9.83238e-06
1.5394e-06
1.10012e-05
3.02028e-06
1.10681e-05
7.70375e-06
1.0666e-05
1.10389e-05
8.13764e-06
-6.70532e-07
5.32573e-06
-1.89248e-05
6.34645e-06
-3.09312e-05
1.19727e-05
-3.97861e-05
1.16634e-05
-4.69224e-05
1.03384e-05
-5.24277e-05
1.72131e-05
-5.9856e-05
2.14713e-05
-6.69071e-05
1.72875e-05
-6.76718e-05
7.54368e-06
-6.12551e-05
-3.75506e-06
-5.24906e-05
-9.62884e-06
-4.92256e-05
-3.9433e-06
-4.27588e-05
-1.01661e-05
-2.77607e-05
-2.03679e-05
-1.39152e-05
-1.89385e-05
-4.93485e-06
-1.14843e-05
8.33119e-07
-1.0433e-05
1.98936e-06
-2.77972e-07
6.52432e-06
-5.04246e-07
-4.53144e-06
1.55252e-05
-8.73143e-06
1.52607e-05
-1.30384e-05
1.49654e-05
-1.78838e-05
1.29756e-05
-2.23386e-05
9.773e-06
-2.57691e-05
9.76923e-06
-2.76113e-05
1.38071e-05
-3.30823e-05
1.71265e-05
-4.22522e-05
1.95003e-05
-4.78073e-05
2.276e-05
-5.51425e-05
2.87979e-05
-7.00936e-05
3.22306e-05
-8.53763e-05
2.28184e-05
-0.000102556
1.34151e-05
-0.000123851
1.16569e-05
-0.00014006
1.22566e-05
-0.000140922
-9.31362e-06
-0.00012966
-3.16414e-05
-0.000104731
-4.38783e-05
-7.52549e-05
-4.04092e-05
-5.11751e-05
-3.45011e-05
-2.82582e-05
-2.31906e-05
-1.49006e-05
-6.81859e-06
-9.44975e-07
1.64629e-05
-2.13077e-06
1.64392e-05
-3.72474e-06
1.6552e-05
-6.87757e-06
1.6121e-05
-1.34847e-05
1.63726e-05
-2.15255e-05
1.78024e-05
-2.79095e-05
2.01834e-05
-3.26713e-05
2.18804e-05
-3.6169e-05
2.29899e-05
-3.9599e-05
2.61818e-05
-4.14699e-05
3.06601e-05
-4.64332e-05
3.71854e-05
-5.71285e-05
3.35047e-05
-7.63749e-05
3.26516e-05
-0.000104648
3.99205e-05
-0.000131189
3.87876e-05
-0.000163747
2.32325e-05
-0.000211498
1.60986e-05
-0.000261163
5.77609e-06
-0.000306
4.41654e-06
-0.000342018
1.50651e-06
-0.000330878
-3.43381e-05
-7.72707e-05
-0.000268478
-3.76376e-06
2.02193e-05
-7.54034e-06
2.02084e-05
-1.1244e-05
2.02484e-05
-1.51497e-05
2.00192e-05
-1.89293e-05
2.01447e-05
-2.24802e-05
2.13457e-05
-2.57448e-05
2.34403e-05
-2.97527e-05
2.58806e-05
-3.49085e-05
2.81377e-05
-4.02608e-05
3.1526e-05
-4.41838e-05
3.45749e-05
-4.71101e-05
4.01032e-05
-5.30294e-05
3.94153e-05
-6.30485e-05
4.26615e-05
-7.73274e-05
5.41903e-05
-0.000101515
6.29654e-05
-0.000147438
6.91454e-05
-0.000221999
9.06502e-05
-0.000319692
0.000103461
-0.000416317
0.000101033
-0.000487718
7.28913e-05
-0.000504834
-1.72342e-05
-0.000114099
-0.000467934
-1.88652e-06
2.20986e-05
-3.94717e-06
2.22618e-05
-6.33194e-06
2.26259e-05
-9.36285e-06
2.30427e-05
-1.32307e-05
2.40051e-05
-1.74527e-05
2.55602e-05
-2.14487e-05
2.74287e-05
-2.53694e-05
2.97935e-05
-2.91735e-05
3.19338e-05
-3.34777e-05
3.58221e-05
-3.7743e-05
3.88318e-05
-4.19498e-05
4.43014e-05
-4.9707e-05
4.71635e-05
-5.94361e-05
5.23815e-05
-6.8409e-05
6.31536e-05
-8.07585e-05
7.5305e-05
-0.000100802
8.91782e-05
-0.000133758
0.000123596
-0.000183268
0.000152961
-0.000240233
0.000157989
-0.000287165
0.00011981
-0.000315043
1.06293e-05
-0.000109142
-0.000320014
-2.96959e-06
2.5061e-05
-5.90875e-06
2.51937e-05
-8.80228e-06
2.55121e-05
-1.17717e-05
2.60049e-05
-1.47192e-05
2.69452e-05
-1.75922e-05
2.84258e-05
-2.04205e-05
3.02493e-05
-2.35314e-05
3.28967e-05
-2.69656e-05
3.53602e-05
-3.07454e-05
3.95939e-05
-3.49586e-05
4.30369e-05
-3.9035e-05
4.83694e-05
-4.46615e-05
5.27815e-05
-5.15517e-05
5.9263e-05
-5.75339e-05
6.91267e-05
-6.50107e-05
8.27728e-05
-7.31996e-05
9.73578e-05
-7.63975e-05
0.000126784
-8.30095e-05
0.000159564
-0.00010516
0.000180131
-0.000148628
0.000163269
-0.000208833
7.0822e-05
-6.54352e-05
-0.000252553
-1.87931e-06
2.69332e-05
-3.83905e-06
2.71463e-05
-6.01562e-06
2.76815e-05
-8.42472e-06
2.84068e-05
-1.10484e-05
2.95616e-05
-1.38049e-05
3.11749e-05
-1.65061e-05
3.2943e-05
-1.93208e-05
3.57038e-05
-2.2121e-05
3.81526e-05
-2.50421e-05
4.2507e-05
-2.83904e-05
4.63771e-05
-3.1974e-05
5.19446e-05
-3.64003e-05
5.71992e-05
-4.17573e-05
6.46112e-05
-4.63857e-05
7.37459e-05
-5.07558e-05
8.71334e-05
-5.47201e-05
0.000101312
-5.23119e-05
0.000124366
-4.43155e-05
0.000151557
-4.30787e-05
0.000178883
-6.91556e-05
0.000189335
-0.000143838
0.000145494
7.70939e-06
-0.000216997
-2.21023e-06
2.91363e-05
-4.41801e-06
2.9347e-05
-6.61463e-06
2.9871e-05
-8.80881e-06
3.05938e-05
-1.09325e-05
3.1678e-05
-1.30387e-05
3.32738e-05
-1.50664e-05
3.49633e-05
-1.71523e-05
3.77822e-05
-1.92555e-05
4.02482e-05
-2.12509e-05
4.44946e-05
-2.33696e-05
4.84878e-05
-2.55723e-05
5.41392e-05
-2.81623e-05
5.97808e-05
-3.10013e-05
6.74417e-05
-3.33101e-05
7.60459e-05
-3.46306e-05
8.84451e-05
-3.49509e-05
0.000101624
-3.13456e-05
0.000120751
-2.15563e-05
0.000141759
-1.18005e-05
0.000169118
-1.57117e-05
0.000193237
-6.38754e-05
0.000193647
0.000100887
-0.000157065
-1.56867e-06
3.06981e-05
-3.16624e-06
3.09376e-05
-4.79451e-06
3.14923e-05
-6.47181e-06
3.2264e-05
-8.1542e-06
3.33533e-05
-9.88914e-06
3.50015e-05
-1.15131e-05
3.65799e-05
-1.31345e-05
3.93962e-05
-1.465e-05
4.17561e-05
-1.59358e-05
4.57726e-05
-1.70344e-05
4.95785e-05
-1.79445e-05
5.50412e-05
-1.87967e-05
6.06248e-05
-1.95744e-05
6.82108e-05
-1.98676e-05
7.63304e-05
-1.8895e-05
8.74635e-05
-1.63376e-05
9.90569e-05
-1.08277e-05
0.000115232
-4.62896e-07
0.000131384
1.56429e-05
0.000153002
3.29317e-05
0.000175937
2.56393e-05
0.000200929
0.00017867
-5.21561e-05
-1.53304e-06
3.22242e-05
-3.03892e-06
3.24366e-05
-4.5047e-06
3.29511e-05
-5.95028e-06
3.37026e-05
-7.29107e-06
3.4687e-05
-8.59843e-06
3.63018e-05
-9.74783e-06
3.77221e-05
-1.0794e-05
4.0435e-05
-1.1689e-05
4.26437e-05
-1.23308e-05
4.64068e-05
-1.26816e-05
4.99216e-05
-1.26552e-05
5.5007e-05
-1.2161e-05
6.01225e-05
-1.10842e-05
6.71258e-05
-9.09511e-06
7.43329e-05
-5.76848e-06
8.41283e-05
-7.59507e-07
9.40391e-05
6.99869e-06
0.000107465
1.77626e-05
0.000120611
3.44842e-05
0.000136271
5.77091e-05
0.000152703
8.56217e-05
0.000173006
0.000179639
8.46433e-05
-1.09792e-06
3.33154e-05
-2.17843e-06
3.35104e-05
-3.23009e-06
3.3996e-05
-4.26423e-06
3.47299e-05
-5.18891e-06
3.56048e-05
-6.07268e-06
3.71786e-05
-6.74731e-06
3.83896e-05
-7.28214e-06
4.09627e-05
-7.55395e-06
4.29082e-05
-7.51075e-06
4.63561e-05
-7.06995e-06
4.94732e-05
-6.14375e-06
5.4073e-05
-4.57756e-06
5.85483e-05
-2.25992e-06
6.48e-05
1.09447e-06
7.09701e-05
5.80331e-06
7.94109e-05
1.23252e-05
8.75084e-05
2.1596e-05
9.81851e-05
3.39744e-05
0.000108223
5.08418e-05
0.000119394
7.38516e-05
0.000129683
0.00010655
0.000140298
0.000145214
0.000140964
-9.58245e-07
3.4267e-05
-1.89016e-06
3.44356e-05
-2.78504e-06
3.48842e-05
-3.63364e-06
3.55718e-05
-4.33125e-06
3.62956e-05
-4.93866e-06
3.77791e-05
-5.29143e-06
3.87354e-05
-5.45492e-06
4.11191e-05
-5.24789e-06
4.2694e-05
-4.72489e-06
4.58258e-05
-3.6679e-06
4.84088e-05
-2.07726e-06
5.24748e-05
2.86771e-07
5.61765e-05
3.55905e-06
6.15198e-05
7.94502e-06
6.6576e-05
1.38371e-05
7.35104e-05
2.13146e-05
8.00224e-05
3.12379e-05
8.82531e-05
4.35454e-05
9.59067e-05
5.91915e-05
0.000103739
7.85577e-05
0.000110307
0.000103228
0.000115619
0.000116596
0.000131835
-6.41502e-07
3.4902e-05
-1.24802e-06
3.50356e-05
-1.8045e-06
3.54341e-05
-2.29967e-06
3.60604e-05
-2.63608e-06
3.66254e-05
-2.86649e-06
3.80028e-05
-2.82366e-06
3.86858e-05
-2.56581e-06
4.08544e-05
-1.86953e-06
4.19907e-05
-8.25892e-07
4.47751e-05
8.21821e-07
4.67538e-05
3.03348e-06
5.02557e-05
6.02555e-06
5.31768e-05
9.93709e-06
5.76005e-05
1.48853e-05
6.16198e-05
2.13519e-05
6.70357e-05
2.92627e-05
7.21032e-05
3.93396e-05
7.81676e-05
5.14456e-05
8.37919e-05
6.59658e-05
8.921e-05
8.26435e-05
9.36202e-05
0.000101905
9.63476e-05
9.65879e-05
0.000121904
-5.20361e-07
3.5416e-05
-1.00359e-06
3.55125e-05
-1.43279e-06
3.58569e-05
-1.79583e-06
3.6417e-05
-1.99565e-06
3.68187e-05
-2.03767e-06
3.80383e-05
-1.78608e-06
3.84276e-05
-1.2675e-06
4.0329e-05
-2.857e-07
4.1002e-05
1.0952e-06
4.33872e-05
3.16763e-06
4.46742e-05
5.86459e-06
4.75515e-05
9.41261e-06
4.96214e-05
1.39007e-05
5.31049e-05
1.94225e-05
5.60902e-05
2.63441e-05
6.01062e-05
3.4515e-05
6.39242e-05
4.45205e-05
6.81538e-05
5.61034e-05
7.22004e-05
6.94845e-05
7.58201e-05
8.43488e-05
7.8747e-05
0.000100631
8.00566e-05
8.05742e-05
0.000116635
-3.25264e-07
3.5735e-05
-6.02788e-07
3.57838e-05
-8.17638e-07
3.60655e-05
-9.32216e-07
3.65253e-05
-8.82298e-07
3.67625e-05
-6.18057e-07
3.77676e-05
-8.71196e-08
3.78902e-05
7.60946e-07
3.94744e-05
2.0462e-06
3.97101e-05
3.77139e-06
4.16552e-05
6.13746e-06
4.23012e-05
9.14497e-06
4.45369e-05
1.30118e-05
4.57474e-05
1.77886e-05
4.83207e-05
2.36027e-05
5.02686e-05
3.07061e-05
5.29951e-05
3.89893e-05
5.56331e-05
4.88044e-05
5.83306e-05
5.98346e-05
6.1162e-05
7.22562e-05
6.339e-05
8.54015e-05
6.55929e-05
9.95324e-05
6.59168e-05
6.76537e-05
0.000112444
-3.02859e-07
3.60318e-05
-5.63034e-07
3.60379e-05
-7.41136e-07
3.62375e-05
-7.9701e-07
3.6575e-05
-6.79154e-07
3.66384e-05
-2.95133e-07
3.73774e-05
3.3394e-07
3.72548e-05
1.35305e-06
3.84489e-05
2.79522e-06
3.82614e-05
4.7633e-06
3.96805e-05
7.37279e-06
3.9685e-05
1.06686e-05
4.12343e-05
1.48328e-05
4.15761e-05
1.98671e-05
4.32793e-05
2.59683e-05
4.416e-05
3.31985e-05
4.57575e-05
4.16039e-05
4.722e-05
5.12863e-05
4.86403e-05
6.21067e-05
5.03335e-05
7.40794e-05
5.14091e-05
8.67597e-05
5.29041e-05
0.000100099
5.25691e-05
5.4657e-05
0.000113087
-3.30558e-07
3.63565e-05
-6.38941e-07
3.63404e-05
-8.20901e-07
3.64136e-05
-8.5654e-07
3.66047e-05
-7.05827e-07
3.64817e-05
-2.29547e-07
3.68951e-05
5.09013e-07
3.65101e-05
1.74884e-06
3.72029e-05
3.39552e-06
3.66085e-05
5.63163e-06
3.7438e-05
8.4548e-06
3.68553e-05
1.20185e-05
3.7664e-05
1.63997e-05
3.71881e-05
2.16246e-05
3.80474e-05
2.79348e-05
3.78427e-05
3.52247e-05
3.84603e-05
4.36456e-05
3.87917e-05
5.31571e-05
3.91211e-05
6.36393e-05
3.98436e-05
7.50965e-05
3.99439e-05
8.70446e-05
4.09478e-05
9.94686e-05
4.01368e-05
4.24286e-05
0.000111688
-4.59262e-07
3.68101e-05
-9.26284e-07
3.68017e-05
-1.22225e-06
3.67038e-05
-1.3654e-06
3.67421e-05
-1.30799e-06
3.64185e-05
-9.05933e-07
3.64871e-05
-2.12994e-07
3.58112e-05
1.00777e-06
3.59761e-05
2.64448e-06
3.49656e-05
4.91743e-06
3.51589e-05
7.77981e-06
3.39866e-05
1.14282e-05
3.40091e-05
1.59014e-05
3.27083e-05
2.12796e-05
3.26625e-05
2.77663e-05
3.13492e-05
3.51904e-05
3.10292e-05
4.38322e-05
3.01428e-05
5.34981e-05
2.94479e-05
6.41839e-05
2.91503e-05
7.57916e-05
2.83285e-05
8.80534e-05
2.86782e-05
0.000100764
2.74183e-05
2.95296e-05
0.000113655
-8.01522e-07
3.76061e-05
-1.61389e-06
3.76085e-05
-2.23113e-06
3.73155e-05
-2.67601e-06
3.71814e-05
-2.87343e-06
3.66103e-05
-2.67732e-06
3.62853e-05
-2.15131e-06
3.52795e-05
-1.04911e-06
3.48681e-05
5.29001e-07
3.33817e-05
2.8479e-06
3.2834e-05
5.86614e-06
3.09623e-05
9.72698e-06
3.01421e-05
1.4411e-05
2.8018e-05
2.00744e-05
2.69926e-05
2.67964e-05
2.46207e-05
3.44706e-05
2.33482e-05
4.33633e-05
2.12432e-05
5.32163e-05
1.95878e-05
6.40821e-05
1.82773e-05
7.58641e-05
1.65391e-05
8.83151e-05
1.62196e-05
0.000101159
1.45664e-05
1.64232e-05
0.000114258
-1.14591e-06
3.87467e-05
-2.28057e-06
3.87378e-05
-3.23512e-06
3.82647e-05
-4.02571e-06
3.79666e-05
-4.56356e-06
3.71427e-05
-4.73754e-06
3.64538e-05
-4.57453e-06
3.51109e-05
-3.84309e-06
3.4131e-05
-2.62625e-06
3.21591e-05
-6.86391e-07
3.08883e-05
1.96611e-06
2.83039e-05
5.50739e-06
2.65948e-05
9.96031e-06
2.3559e-05
1.55052e-05
2.14415e-05
2.21734e-05
1.79461e-05
2.99773e-05
1.55378e-05
3.91449e-05
1.20689e-05
4.9397e-05
9.32896e-06
6.09233e-05
6.74397e-06
7.35445e-05
3.9108e-06
8.70315e-05
2.72532e-06
0.00010103
5.60233e-07
1.94733e-06
0.000115499
-1.70488e-06
4.04465e-05
-3.36938e-06
4.03972e-05
-4.89957e-06
3.97898e-05
-6.26179e-06
3.93237e-05
-7.37777e-06
3.82535e-05
-8.15081e-06
3.72216e-05
-8.55398e-06
3.55088e-05
-8.37323e-06
3.39449e-05
-7.63244e-06
3.14129e-05
-6.07363e-06
2.9324e-05
-3.72454e-06
2.59492e-05
-3.73888e-07
2.32384e-05
4.00775e-06
1.91715e-05
9.59993e-06
1.58434e-05
1.63923e-05
1.11476e-05
2.44891e-05
7.43475e-06
3.39795e-05
2.5721e-06
4.46692e-05
-1.36725e-06
5.684e-05
-5.43353e-06
7.02548e-05
-9.51074e-06
8.47042e-05
-1.1731e-05
9.9907e-05
-1.46496e-05
-1.40008e-05
0.000115848
-2.22759e-06
4.26691e-05
-4.39694e-06
4.25617e-05
-6.47716e-06
4.18651e-05
-8.38571e-06
4.12273e-05
-1.00626e-05
3.99255e-05
-1.14194e-05
3.85733e-05
-1.24138e-05
3.64982e-05
-1.28887e-05
3.44146e-05
-1.28499e-05
3.13688e-05
-1.20632e-05
2.8532e-05
-1.05408e-05
2.44214e-05
-8.05603e-06
2.07481e-05
-4.56916e-06
1.56791e-05
1.60795e-07
1.11077e-05
6.20147e-06
5.10112e-06
1.37765e-05
-1.46219e-07
2.29896e-05
-6.64706e-06
3.38123e-05
-1.21962e-05
4.65407e-05
-1.81682e-05
6.07661e-05
-2.37426e-05
7.63873e-05
-2.73589e-05
9.33253e-05
-3.15943e-05
-3.21404e-05
0.000111458
-2.82389e-06
4.54884e-05
-5.5971e-06
4.53303e-05
-8.3213e-06
4.45846e-05
-1.09027e-05
4.38039e-05
-1.3303e-05
4.23211e-05
-1.54347e-05
4.07003e-05
-1.72389e-05
3.82975e-05
-1.85653e-05
3.57361e-05
-1.9372e-05
3.21707e-05
-1.94106e-05
2.85655e-05
-1.86329e-05
2.36386e-05
-1.67401e-05
1.88501e-05
-1.36961e-05
1.26298e-05
-9.29635e-06
6.7025e-06
-3.56262e-06
-6.38136e-07
3.74861e-06
-7.46309e-06
1.27291e-05
-1.56333e-05
2.35388e-05
-2.30118e-05
3.64258e-05
-3.10614e-05
5.10578e-05
-3.83808e-05
6.76409e-05
-4.39483e-05
8.61792e-05
-5.01391e-05
-5.22809e-05
0.000106313
-3.41442e-06
4.88984e-05
-6.78727e-06
4.86987e-05
-1.01223e-05
4.79152e-05
-1.33264e-05
4.70036e-05
-1.63674e-05
4.53576e-05
-1.91644e-05
4.34927e-05
-2.16608e-05
4.07894e-05
-2.37301e-05
3.78007e-05
-2.53242e-05
3.37601e-05
-2.62546e-05
2.94911e-05
-2.6502e-05
2.38812e-05
-2.58109e-05
1.81541e-05
-2.41087e-05
1.09226e-05
-2.10743e-05
3.66294e-06
-1.66354e-05
-5.08233e-06
-1.03829e-05
-1.37209e-05
-2.20667e-06
-2.3815e-05
8.14799e-06
-3.33721e-05
2.08854e-05
-4.38045e-05
3.57525e-05
-5.32538e-05
5.32238e-05
-6.14257e-05
7.32619e-05
-7.01836e-05
-7.43124e-05
9.52869e-05
-3.9743e-06
5.28686e-05
-7.92621e-06
5.26465e-05
-1.1872e-05
5.18569e-05
-1.57411e-05
5.08685e-05
-1.95137e-05
4.9126e-05
-2.31172e-05
4.70919e-05
-2.64912e-05
4.41591e-05
-2.95201e-05
4.08253e-05
-3.2133e-05
3.63686e-05
-3.4137e-05
3.14907e-05
-3.54505e-05
2.51901e-05
-3.58015e-05
1.85005e-05
-3.50835e-05
1.01998e-05
-3.29208e-05
1.49542e-06
-2.91811e-05
-8.82698e-06
-2.35264e-05
-1.93806e-05
-1.59557e-05
-3.13909e-05
-6.02457e-06
-4.33086e-05
6.44259e-06
-5.62771e-05
2.1522e-05
-6.8339e-05
3.96354e-05
-7.9545e-05
6.05519e-05
-9.1106e-05
-9.76591e-05
8.38929e-05
-4.57508e-06
5.74397e-05
-9.13839e-06
5.72058e-05
-1.37016e-05
5.64162e-05
-1.82099e-05
5.53728e-05
-2.26363e-05
5.35484e-05
-2.69259e-05
5.13775e-05
-3.10162e-05
4.82454e-05
-3.48261e-05
4.46312e-05
-3.82759e-05
3.98141e-05
-4.12106e-05
3.44212e-05
-4.35646e-05
2.75397e-05
-4.51204e-05
2.00519e-05
-4.58176e-05
1.08927e-05
-4.53339e-05
1.00717e-06
-4.3529e-05
-1.06365e-05
-3.99168e-05
-2.29975e-05
-3.42548e-05
-3.70578e-05
-2.60632e-05
-5.15052e-05
-1.54631e-05
-6.68823e-05
-2.09787e-06
-8.17093e-05
1.48167e-05
-9.64647e-05
3.55241e-05
-0.000111818
-0.000122193
6.0053e-05
-5.03762e-06
6.24737e-05
-1.0088e-05
6.22526e-05
-1.51782e-05
6.15027e-05
-2.02849e-05
6.04759e-05
-2.54005e-05
5.86602e-05
-3.0495e-05
5.64683e-05
-3.55184e-05
5.32649e-05
-4.04084e-05
4.95175e-05
-4.50751e-05
4.4477e-05
-4.93889e-05
3.87311e-05
-5.32383e-05
3.13851e-05
-5.63769e-05
2.31865e-05
-5.86481e-05
1.31598e-05
-5.97379e-05
2.09282e-06
-5.9419e-05
-1.09597e-05
-5.72785e-05
-2.51424e-05
-5.34048e-05
-4.09361e-05
-4.79861e-05
-5.69285e-05
-4.16121e-05
-7.32608e-05
-3.22207e-05
-9.1105e-05
-1.7525e-05
-0.000111164
2.47281e-06
-0.000131821
-0.000147863
2.81381e-05
-5.60497e-06
6.80754e-05
-1.12369e-05
6.78812e-05
-1.69253e-05
6.71878e-05
-2.26671e-05
6.62144e-05
-2.84619e-05
6.44516e-05
-3.43012e-05
6.23042e-05
-4.01336e-05
5.9094e-05
-4.5928e-05
5.53084e-05
-5.16006e-05
5.01461e-05
-5.70631e-05
4.419e-05
-6.2216e-05
3.65344e-05
-6.69106e-05
2.78774e-05
-7.11032e-05
1.73486e-05
-7.46362e-05
5.62196e-06
-7.74885e-05
-8.11143e-06
-7.98243e-05
-2.28107e-05
-8.19635e-05
-3.88009e-05
-8.38843e-05
-5.50117e-05
-8.22899e-05
-7.48588e-05
-7.25701e-05
-0.000100829
-5.51095e-05
-0.00012863
-3.27556e-05
-0.00015418
-0.000174856
-5.7682e-06
-5.96455e-06
7.40369e-05
-1.19759e-05
7.38895e-05
-1.80835e-05
7.32924e-05
-2.43206e-05
7.24485e-05
-3.07115e-05
7.08394e-05
-3.72904e-05
6.88801e-05
-4.40464e-05
6.58468e-05
-5.10002e-05
6.22591e-05
-5.81096e-05
5.72524e-05
-6.53226e-05
5.13998e-05
-7.25763e-05
4.37847e-05
-7.97564e-05
3.50542e-05
-8.67262e-05
2.4315e-05
-9.33224e-05
1.22146e-05
-9.97101e-05
-1.72741e-06
-0.000106639
-1.58853e-05
-0.000114979
-3.04645e-05
-0.000120524
-4.94689e-05
-0.00011551
-7.98773e-05
-0.000100053
-0.000116291
-7.95553e-05
-0.000149133
-5.63669e-05
-0.000177373
-0.00020055
-3.06781e-05
-6.40506e-06
8.04392e-05
-1.2884e-05
8.03657e-05
-1.95103e-05
7.9916e-05
-2.63591e-05
7.92945e-05
-3.3487e-05
7.79646e-05
-4.09443e-05
7.63345e-05
-4.8741e-05
7.36408e-05
-5.68851e-05
7.04003e-05
-6.5348e-05
6.57124e-05
-7.40982e-05
6.0147e-05
-8.31386e-05
5.28222e-05
-9.24279e-05
4.43404e-05
-0.000102188
3.40718e-05
-0.000112853
2.28769e-05
-0.000125782
1.1198e-05
-0.000140841
-8.2905e-07
-0.000152546
-1.87613e-05
-0.000150787
-5.1233e-05
-0.000136755
-9.39138e-05
-0.000119482
-0.000133569
-0.000101631
-0.000166989
-8.22195e-05
-0.000196788
-0.000222533
-6.02406e-05
-6.68473e-06
8.71216e-05
-1.34594e-05
8.7138e-05
-2.04143e-05
8.68685e-05
-2.76323e-05
8.65101e-05
-3.51837e-05
8.55136e-05
-4.31478e-05
8.42963e-05
-5.16014e-05
8.20919e-05
-6.06468e-05
7.94432e-05
-7.03993e-05
7.54623e-05
-8.09614e-05
7.07066e-05
-9.24236e-05
6.42818e-05
-0.000104824
5.6738e-05
-0.000118574
4.78189e-05
-0.000133975
3.82752e-05
-0.000151147
2.83683e-05
-0.000167435
1.54569e-05
-0.000173278
-1.29213e-05
-0.000163935
-6.05801e-05
-0.000150415
-0.000107439
-0.000137695
-0.000146291
-0.00012315
-0.000181536
-0.000105912
-0.000214031
-0.000243335
-8.51131e-05
-6.77121e-06
9.38907e-05
-1.3676e-05
9.40406e-05
-2.08566e-05
9.4047e-05
-2.84701e-05
9.41214e-05
-3.66683e-05
9.37097e-05
-4.55949e-05
9.32208e-05
-5.53652e-05
9.18599e-05
-6.6073e-05
9.01488e-05
-7.77791e-05
8.71663e-05
-9.05181e-05
8.34434e-05
-0.000104388
7.81491e-05
-0.000119695
7.20427e-05
-0.000137135
6.52567e-05
-0.000157291
5.84294e-05
-0.000178646
4.9722e-05
-0.000191648
2.84559e-05
-0.000187476
-1.70964e-05
-0.000176505
-7.15545e-05
-0.000167246
-0.000116701
-0.000156051
-0.000157489
-0.000142067
-0.000195524
-0.000125417
-0.000230684
-0.000262709
-0.000106047
-7.0719e-06
0.000100961
-1.42912e-05
0.000101258
-2.18133e-05
0.000101567
-2.97545e-05
0.000102061
-3.82266e-05
0.00010218
-4.73532e-05
0.000102346
-5.72712e-05
0.000101776
-6.81254e-05
0.000101001
-8.00939e-05
9.91329e-05
-9.34158e-05
9.67634e-05
-0.000108567
9.32985e-05
-0.000126038
8.95121e-05
-0.000146387
8.56034e-05
-0.000169051
8.1093e-05
-0.000190278
7.09478e-05
-0.000198493
3.66679e-05
-0.00019287
-2.27223e-05
-0.000185748
-7.86815e-05
-0.000177535
-0.000124915
-0.000166066
-0.000168961
-0.000152706
-0.000208887
-0.000137315
-0.000246079
-0.000280136
-0.00011989
-6.45651e-06
0.000107416
-1.30941e-05
0.000107894
-2.01333e-05
0.000108605
-2.78347e-05
0.000109761
-3.64203e-05
0.000110764
-4.61233e-05
0.000112047
-5.71705e-05
0.000112822
-6.98258e-05
0.000113655
-8.43399e-05
0.000113646
-0.000101052
0.000113474
-0.000120072
0.000112317
-0.000141535
0.000110973
-0.000165211
0.000109279
-0.000189196
0.000105078
-0.000205895
8.76449e-05
-0.000206324
3.70943e-05
-0.000199808
-2.92421e-05
-0.00019343
-8.50618e-05
-0.000184553
-0.000133793
-0.000173891