/*--------------------------------*- C++ -*----------------------------------*\
| =========                 |                                                 |
| \\      /  F ield         | OpenFOAM: The Open Source CFD Toolbox           |
|  \\    /   O peration     | Version:  2012                                  |
|   \\  /    A nd           | Website:  www.openfoam.com                      |
|    \\/     M anipulation  |                                                 |
\*---------------------------------------------------------------------------*/
FoamFile
{
    version     2.0;
    format      ascii;
    class       volScalarField;
    location    "0.66";
    object      rho2;
}
// * * * * * * * * * * * * * * * * * * * * * * * * * * * * * * * * * * * * * //

dimensions      [1 -3 0 0 0 0 0];


internalField   nonuniform List<scalar> 
2268
(
1.29981
1.29984
1.29991
1.30001
1.30015
1.30031
1.30051
1.30074
1.30099
1.30128
1.30156
1.30188
1.30216
1.30249
1.30275
1.30308
1.3033
1.3036
1.30376
1.30403
1.30412
1.3043
1.30431
1.29905
1.29909
1.29915
1.29925
1.29939
1.29956
1.29975
1.29999
1.30024
1.30052
1.30081
1.30112
1.30141
1.30174
1.302
1.30233
1.30255
1.30285
1.30302
1.30328
1.30338
1.30356
1.30357
1.29829
1.29832
1.29839
1.29849
1.29862
1.29879
1.29899
1.29922
1.29948
1.29976
1.30005
1.30037
1.30066
1.301
1.30126
1.30159
1.30181
1.30212
1.30228
1.30256
1.30264
1.30284
1.30283
1.29751
1.29755
1.29762
1.29772
1.29785
1.29802
1.29822
1.29845
1.29871
1.299
1.29929
1.29962
1.29991
1.30025
1.30051
1.30084
1.30107
1.30137
1.30155
1.30182
1.30192
1.30212
1.30212
1.29673
1.29677
1.29683
1.29693
1.29706
1.29723
1.29743
1.29767
1.29794
1.29824
1.29853
1.29886
1.29916
1.2995
1.29978
1.30011
1.30033
1.30066
1.30081
1.30112
1.30119
1.30143
1.30139
1.29596
1.29599
1.29606
1.29616
1.29629
1.29646
1.29666
1.2969
1.29717
1.29747
1.29777
1.2981
1.29841
1.29876
1.29904
1.29937
1.2996
1.29992
1.3001
1.30039
1.3005
1.30075
1.30071
1.29519
1.29522
1.29528
1.29537
1.2955
1.29567
1.29587
1.29611
1.29639
1.2967
1.29701
1.29735
1.29766
1.29802
1.29831
1.29865
1.29887
1.29921
1.29937
1.29971
1.29977
1.3001
1.29998
1.29443
1.29446
1.29452
1.29462
1.29475
1.29491
1.29512
1.29536
1.29563
1.29593
1.29624
1.29659
1.29692
1.29728
1.29758
1.29791
1.29815
1.29847
1.29867
1.29899
1.29912
1.29945
1.29934
1.31056
1.30039
1.29995
1.29895
1.29988
1.30107
1.30531
1.30703
1.30472
1.30178
1.30015
1.29828
1.29773
1.29715
1.29753
1.29768
1.29912
1.30375
1.31157
1.30759
1.29801
1.29876
1.29822
1.29925
1.3006
1.30587
1.3066
1.30395
1.30072
1.29922
1.29759
1.29692
1.29641
1.29664
1.29649
1.29753
1.30135
1.30844
1.301
1.29724
1.29801
1.29762
1.2987
1.29997
1.30457
1.3064
1.30467
1.30042
1.29869
1.29668
1.29625
1.29575
1.29603
1.2958
1.29633
1.29879
1.30613
1.29873
1.29683
1.2979
1.29743
1.29794
1.29916
1.30395
1.30604
1.30256
1.29984
1.29851
1.29696
1.29658
1.29596
1.29593
1.29585
1.29608
1.29634
1.30354
1.29877
1.29686
1.29768
1.29702
1.29776
1.29809
1.30239
1.30424
1.30336
1.30017
1.2984
1.29663
1.29642
1.29593
1.29619
1.29587
1.29593
1.29583
1.30101
1.29891
1.29681
1.29749
1.29674
1.29761
1.2974
1.30177
1.30242
1.30051
1.29843
1.2974
1.29659
1.29634
1.29605
1.29634
1.2959
1.29599
1.29493
1.29909
1.29836
1.29665
1.29726
1.29678
1.29764
1.29767
1.29994
1.30034
1.2993
1.29718
1.29645
1.29589
1.29585
1.2957
1.29593
1.29568
1.29653
1.29426
1.29872
1.29808
1.29651
1.29721
1.29686
1.29757
1.29723
1.29898
1.29829
1.29666
1.2954
1.29527
1.29521
1.29519
1.29516
1.29523
1.29534
1.29648
1.29477
1.29999
1.29367
1.29368
1.29371
1.29375
1.29381
1.29391
1.29405
1.29424
1.29448
1.29476
1.29508
1.29544
1.29577
1.29615
1.29646
1.29681
1.29703
1.29738
1.29753
1.29794
1.29796
1.29856
1.2981
1.29335
1.29336
1.29335
1.29334
1.29334
1.29336
1.2934
1.29345
1.29353
1.29364
1.29382
1.29407
1.29434
1.29467
1.29499
1.29529
1.29554
1.29584
1.29611
1.29643
1.29675
1.29719
1.29776
1.29328
1.29329
1.29329
1.29328
1.29328
1.2933
1.29333
1.29335
1.29335
1.29335
1.29336
1.29343
1.29353
1.29369
1.29389
1.29409
1.29421
1.29444
1.29462
1.29495
1.29511
1.29575
1.29588
1.29325
1.29325
1.29325
1.29325
1.29325
1.29325
1.29327
1.29329
1.2933
1.2933
1.2933
1.29332
1.29332
1.29333
1.29338
1.29344
1.29347
1.29353
1.29364
1.29376
1.29386
1.29421
1.29458
1.29323
1.29323
1.29323
1.29323
1.29323
1.29323
1.29324
1.29325
1.29325
1.29325
1.29326
1.29328
1.29328
1.29328
1.29331
1.29332
1.29331
1.29333
1.29334
1.29334
1.29333
1.29339
1.29345
1.29323
1.29323
1.29323
1.29323
1.29323
1.29323
1.29323
1.29323
1.29323
1.29323
1.29323
1.29324
1.29325
1.29324
1.29326
1.29326
1.29326
1.29329
1.29331
1.29332
1.29331
1.29329
1.29327
1.29322
1.29322
1.29322
1.29322
1.29322
1.29322
1.29323
1.29323
1.29323
1.29323
1.29323
1.29323
1.29323
1.29323
1.29324
1.29324
1.29324
1.29326
1.29327
1.29325
1.29318
1.29312
1.2931
1.29322
1.29322
1.29322
1.29322
1.29322
1.29322
1.29322
1.29322
1.29322
1.29322
1.29322
1.29322
1.29322
1.29322
1.29323
1.29323
1.29323
1.29323
1.29324
1.29323
1.29317
1.2931
1.29306
1.29322
1.29322
1.29322
1.29322
1.29322
1.29322
1.29322
1.29322
1.29322
1.29322
1.29322
1.29322
1.29322
1.29322
1.29322
1.29322
1.29322
1.29322
1.29323
1.29322
1.2932
1.29313
1.29309
1.29322
1.29322
1.29322
1.29322
1.29322
1.29322
1.29322
1.29322
1.29322
1.29322
1.29322
1.29322
1.29322
1.29322
1.29322
1.29322
1.29322
1.29322
1.29322
1.29322
1.29321
1.29316
1.29311
1.29322
1.29322
1.29322
1.29322
1.29322
1.29322
1.29322
1.29322
1.29322
1.29322
1.29322
1.29322
1.29322
1.29322
1.29322
1.29322
1.29322
1.29321
1.29321
1.29321
1.29321
1.29318
1.29313
1.29322
1.29322
1.29322
1.29322
1.29322
1.29322
1.29322
1.29322
1.29322
1.29322
1.29322
1.29322
1.29322
1.29322
1.29321
1.29321
1.29321
1.29321
1.29321
1.29321
1.2932
1.29319
1.29315
1.29321
1.29321
1.29321
1.29321
1.29321
1.29321
1.29321
1.29321
1.29321
1.29321
1.29321
1.29321
1.29321
1.29321
1.29321
1.29321
1.29321
1.29321
1.29321
1.2932
1.2932
1.2932
1.29318
1.29321
1.29321
1.29321
1.29321
1.29321
1.29321
1.29321
1.29321
1.29321
1.29321
1.29321
1.29321
1.29321
1.29321
1.29321
1.29321
1.29321
1.29321
1.29321
1.2932
1.2932
1.2932
1.29319
1.29321
1.29321
1.29321
1.29321
1.29321
1.29321
1.29321
1.29321
1.29321
1.29321
1.29321
1.29321
1.29321
1.29321
1.29321
1.29321
1.29321
1.29321
1.2932
1.2932
1.2932
1.2932
1.2932
1.29321
1.29321
1.29321
1.29321
1.29321
1.29321
1.29321
1.29321
1.29321
1.29321
1.29321
1.29321
1.29321
1.29321
1.29321
1.29321
1.2932
1.2932
1.2932
1.2932
1.2932
1.2932
1.2932
1.2932
1.2932
1.2932
1.2932
1.2932
1.2932
1.2932
1.2932
1.2932
1.2932
1.2932
1.2932
1.2932
1.2932
1.2932
1.2932
1.2932
1.2932
1.2932
1.2932
1.2932
1.2932
1.2932
1.2932
1.2932
1.2932
1.2932
1.2932
1.2932
1.2932
1.2932
1.2932
1.2932
1.2932
1.2932
1.2932
1.2932
1.2932
1.2932
1.2932
1.2932
1.2932
1.2932
1.2932
1.2932
1.2932
1.29319
1.29319
1.29319
1.29319
1.29319
1.29319
1.29319
1.29319
1.29319
1.2932
1.2932
1.2932
1.2932
1.2932
1.2932
1.2932
1.2932
1.2932
1.2932
1.2932
1.2932
1.2932
1.2932
1.29318
1.29318
1.29318
1.29318
1.29318
1.29318
1.29319
1.29319
1.29319
1.29319
1.29319
1.29319
1.29319
1.29319
1.29319
1.2932
1.2932
1.2932
1.2932
1.2932
1.2932
1.2932
1.2932
1.29317
1.29317
1.29317
1.29317
1.29317
1.29317
1.29317
1.29317
1.29318
1.29318
1.29318
1.29318
1.29318
1.29319
1.29319
1.29319
1.29319
1.29319
1.29319
1.29319
1.29319
1.29319
1.29319
1.29315
1.29315
1.29315
1.29315
1.29315
1.29315
1.29315
1.29316
1.29316
1.29316
1.29316
1.29317
1.29317
1.29317
1.29318
1.29318
1.29318
1.29318
1.29319
1.29319
1.29319
1.29319
1.29319
1.29313
1.29313
1.29313
1.29313
1.29313
1.29313
1.29313
1.29314
1.29314
1.29314
1.29314
1.29315
1.29315
1.29315
1.29315
1.29316
1.29316
1.29317
1.29317
1.29317
1.29318
1.29318
1.29318
1.29312
1.29312
1.29312
1.29312
1.29312
1.29312
1.29312
1.29312
1.29312
1.29312
1.29312
1.29313
1.29313
1.29313
1.29313
1.29313
1.29314
1.29314
1.29314
1.29315
1.29315
1.29316
1.29316
1.29311
1.29311
1.29311
1.29311
1.29311
1.29311
1.29311
1.29311
1.29311
1.29311
1.29311
1.29311
1.29311
1.29311
1.29312
1.29312
1.29312
1.29312
1.29312
1.29312
1.29313
1.29313
1.29313
1.2931
1.2931
1.2931
1.2931
1.2931
1.2931
1.2931
1.2931
1.2931
1.2931
1.2931
1.2931
1.29311
1.29311
1.29311
1.29311
1.29311
1.29311
1.29311
1.29311
1.29312
1.29312
1.29312
1.29309
1.29309
1.29309
1.2931
1.2931
1.2931
1.2931
1.2931
1.2931
1.2931
1.2931
1.2931
1.2931
1.2931
1.2931
1.2931
1.29311
1.29311
1.29311
1.29311
1.29311
1.29312
1.29312
1.29309
1.29309
1.29309
1.29309
1.29309
1.29309
1.29309
1.29309
1.29309
1.29309
1.2931
1.2931
1.2931
1.2931
1.2931
1.2931
1.29311
1.29311
1.29311
1.29312
1.29312
1.29313
1.29313
1.29309
1.29309
1.29309
1.29309
1.29309
1.29309
1.29309
1.29309
1.29309
1.29309
1.29309
1.2931
1.2931
1.2931
1.2931
1.29311
1.29311
1.29312
1.29313
1.29314
1.29314
1.29314
1.29314
1.29309
1.29309
1.29309
1.29309
1.29309
1.29309
1.29309
1.29309
1.29309
1.29309
1.2931
1.2931
1.2931
1.29311
1.29311
1.29312
1.29312
1.29314
1.29314
1.29314
1.29314
1.29313
1.29313
1.29309
1.29309
1.29309
1.29309
1.29309
1.29309
1.29309
1.29309
1.29309
1.2931
1.2931
1.2931
1.29311
1.29311
1.29312
1.29312
1.29314
1.29314
1.29314
1.29313
1.29311
1.29311
1.29312
1.29309
1.29309
1.29309
1.29309
1.29309
1.29309
1.29309
1.29309
1.2931
1.2931
1.2931
1.29311
1.29311
1.29311
1.29312
1.29314
1.29314
1.29314
1.29311
1.29309
1.29309
1.2931
1.29311
1.29309
1.29309
1.29309
1.29309
1.29309
1.29309
1.2931
1.2931
1.2931
1.2931
1.2931
1.29311
1.29311
1.29312
1.29313
1.29314
1.29313
1.29309
1.29307
1.29307
1.29309
1.2931
1.29311
1.29309
1.29309
1.29309
1.2931
1.2931
1.2931
1.2931
1.2931
1.2931
1.2931
1.2931
1.29311
1.29311
1.29313
1.29313
1.29312
1.29308
1.29305
1.29305
1.29307
1.29309
1.2931
1.2931
1.2931
1.2931
1.2931
1.2931
1.2931
1.2931
1.2931
1.2931
1.2931
1.2931
1.2931
1.29311
1.29312
1.29312
1.29312
1.29308
1.29304
1.29303
1.29305
1.29308
1.29309
1.29309
1.29309
1.2931
1.2931
1.2931
1.2931
1.2931
1.2931
1.2931
1.2931
1.2931
1.2931
1.29311
1.29311
1.29312
1.29312
1.29309
1.29304
1.29301
1.29302
1.29305
1.29307
1.29308
1.29309
1.29309
1.2931
1.2931
1.2931
1.2931
1.2931
1.2931
1.2931
1.2931
1.2931
1.2931
1.29311
1.29311
1.29311
1.2931
1.29305
1.293
1.29299
1.29301
1.29305
1.29307
1.29308
1.29308
1.29308
1.2931
1.2931
1.2931
1.2931
1.2931
1.2931
1.2931
1.2931
1.2931
1.2931
1.29311
1.29311
1.29311
1.29308
1.29301
1.29297
1.29297
1.293
1.29304
1.29306
1.29307
1.29307
1.29307
1.2931
1.2931
1.2931
1.2931
1.2931
1.2931
1.2931
1.2931
1.2931
1.2931
1.29311
1.29311
1.2931
1.29304
1.29297
1.29295
1.29295
1.29299
1.29303
1.29305
1.29306
1.29306
1.29306
1.29311
1.29311
1.29311
1.29311
1.29311
1.29311
1.29311
1.29311
1.29311
1.29311
1.29311
1.29311
1.29309
1.29302
1.29295
1.29292
1.29292
1.29298
1.29302
1.29304
1.29305
1.29306
1.29306
1.29312
1.29312
1.29312
1.29312
1.29312
1.29312
1.29312
1.29312
1.29312
1.29312
1.29311
1.29311
1.29308
1.29299
1.29291
1.29288
1.2929
1.29297
1.29301
1.29304
1.29305
1.29305
1.29305
1.29315
1.29315
1.29315
1.29316
1.29316
1.29316
1.29316
1.29316
1.29315
1.29315
1.29314
1.29313
1.29307
1.29295
1.29286
1.29283
1.29287
1.29295
1.293
1.29302
1.29304
1.29304
1.29304
1.29913
1.29807
1.29844
1.29668
1.29813
1.29867
1.29833
1.29892
1.29668
1.29667
1.29735
1.29706
1.29513
1.29544
1.29583
1.29627
1.29376
1.29378
1.29414
1.29434
1.29331
1.29333
1.29362
1.29418
1.29319
1.29324
1.29352
1.29368
1.29305
1.29304
1.2932
1.29363
1.29308
1.29308
1.29315
1.2933
1.29311
1.29313
1.29313
1.29321
1.29312
1.29314
1.29315
1.29315
1.29312
1.29313
1.29313
1.29313
1.29316
1.29315
1.29314
1.29313
1.29319
1.29318
1.29317
1.29316
1.29319
1.29319
1.29319
1.29319
1.2932
1.29319
1.29319
1.29319
1.2932
1.2932
1.2932
1.2932
1.2932
1.2932
1.2932
1.2932
1.2932
1.2932
1.2932
1.29319
1.2932
1.29319
1.29319
1.29319
1.29319
1.29319
1.29319
1.29319
1.29319
1.29319
1.29319
1.29319
1.29318
1.29319
1.29319
1.29319
1.29317
1.29317
1.29317
1.29317
1.29313
1.29314
1.29314
1.29314
1.29312
1.29312
1.29312
1.29312
1.29312
1.29312
1.29312
1.29312
1.29313
1.29314
1.29314
1.29314
1.29314
1.29314
1.29314
1.29314
1.29313
1.29313
1.29313
1.29313
1.29312
1.29312
1.29312
1.29313
1.29312
1.29312
1.29312
1.29312
1.29311
1.29311
1.29311
1.29311
1.2931
1.2931
1.2931
1.2931
1.29309
1.29309
1.29309
1.29308
1.29308
1.29308
1.29308
1.29307
1.29308
1.29307
1.29307
1.29307
1.29307
1.29306
1.29306
1.29306
1.29306
1.29306
1.29306
1.29305
1.29305
1.29305
1.29305
1.29304
1.29305
1.29305
1.29304
1.29304
1.29304
1.29304
1.29303
1.29303
1.29724
1.29646
1.29717
1.29668
1.29733
1.29697
1.29699
1.29575
1.295
1.29478
1.29483
1.29491
1.29493
1.29487
1.29485
1.29475
1.29501
1.29445
1.29777
1.29746
1.2968
1.29743
1.29777
1.29767
1.2963
1.29515
1.29463
1.29464
1.29464
1.29466
1.2947
1.29475
1.29474
1.29476
1.2947
1.29438
1.29451
1.29413
1.29792
1.29689
1.29821
1.2974
1.29693
1.29535
1.29467
1.29453
1.29452
1.29451
1.29456
1.29454
1.29457
1.29456
1.29452
1.29452
1.29419
1.29443
1.29373
1.29658
1.29729
1.29755
1.29712
1.29572
1.29488
1.29456
1.29446
1.29451
1.29455
1.29456
1.29455
1.29449
1.2944
1.29437
1.29434
1.29405
1.2939
1.29377
1.29536
1.29627
1.29715
1.29655
1.29474
1.29463
1.29447
1.29451
1.29456
1.29458
1.29459
1.29457
1.29454
1.29443
1.29434
1.29422
1.29388
1.29357
1.29384
1.2951
1.29613
1.29654
1.29499
1.29416
1.29432
1.29451
1.29455
1.29459
1.2946
1.29462
1.2946
1.29458
1.2945
1.2944
1.29429
1.29406
1.29348
1.29396
1.29399
1.29477
1.29516
1.29421
1.29383
1.29435
1.29452
1.29458
1.29462
1.29464
1.29466
1.29464
1.2946
1.29454
1.29451
1.29441
1.29406
1.29367
1.29423
1.29433
1.29455
1.29429
1.294
1.29382
1.29437
1.29451
1.29456
1.29458
1.29454
1.2946
1.29462
1.29452
1.29442
1.29434
1.29434
1.29417
1.29384
1.29438
1.29382
1.29441
1.29436
1.29412
1.29418
1.29417
1.29447
1.29451
1.29441
1.29433
1.29428
1.29447
1.29417
1.29402
1.29396
1.29402
1.29416
1.29395
1.29447
1.29324
1.29364
1.294
1.29415
1.29429
1.2942
1.29392
1.29405
1.29431
1.29412
1.29398
1.29419
1.29396
1.29378
1.2938
1.29383
1.294
1.29356
1.2945
1.29314
1.2932
1.29349
1.29357
1.29387
1.29397
1.2939
1.2939
1.29407
1.29411
1.29401
1.29414
1.29407
1.29392
1.29402
1.29378
1.2938
1.29383
1.2941
1.29314
1.29314
1.2933
1.29345
1.2935
1.2936
1.29387
1.29377
1.29369
1.29363
1.29349
1.29361
1.29351
1.29356
1.29383
1.29362
1.29383
1.29379
1.29407
1.29314
1.29315
1.29316
1.29317
1.29333
1.29346
1.29347
1.2934
1.29325
1.29316
1.29313
1.29328
1.29331
1.29328
1.2936
1.29344
1.29381
1.29389
1.29393
1.29316
1.29315
1.29316
1.29316
1.29315
1.29314
1.29314
1.29313
1.29308
1.29305
1.29304
1.293
1.29294
1.29283
1.29281
1.29306
1.29337
1.29385
1.29409
1.29318
1.29318
1.29318
1.29315
1.29313
1.29311
1.29311
1.29312
1.29312
1.29313
1.29312
1.29309
1.293
1.29287
1.29278
1.29278
1.29311
1.29368
1.2939
1.29319
1.29319
1.29319
1.29316
1.29315
1.29314
1.29315
1.29315
1.29315
1.29316
1.29316
1.29313
1.29305
1.29296
1.29288
1.29296
1.29382
1.29377
1.29393
1.29319
1.29319
1.29319
1.29317
1.29315
1.29315
1.29315
1.29314
1.29315
1.29316
1.29317
1.29315
1.29307
1.29301
1.29298
1.293
1.29348
1.29437
1.29417
1.29319
1.29319
1.29319
1.29318
1.29316
1.29315
1.29314
1.29314
1.29314
1.29315
1.29316
1.29314
1.29306
1.29303
1.29303
1.29303
1.29454
1.29437
1.29416
1.29319
1.29319
1.29319
1.29319
1.29317
1.29316
1.29315
1.29314
1.29314
1.29315
1.29316
1.29316
1.29312
1.29309
1.29312
1.29312
1.29355
1.29386
1.2938
1.29319
1.29319
1.29319
1.29319
1.29318
1.29317
1.29316
1.29315
1.29315
1.29315
1.29315
1.29316
1.29316
1.29314
1.29317
1.29328
1.29374
1.2942
1.29412
1.29319
1.29319
1.29319
1.29319
1.29319
1.29318
1.29317
1.29316
1.29316
1.29316
1.29316
1.29316
1.29317
1.29316
1.29317
1.29332
1.29336
1.29342
1.29354
1.29319
1.29319
1.29319
1.29319
1.29319
1.29318
1.29318
1.29318
1.29317
1.29317
1.29316
1.29316
1.29317
1.29317
1.29317
1.29328
1.29318
1.29337
1.29313
1.29319
1.29319
1.29319
1.29319
1.29319
1.29318
1.29318
1.29318
1.29318
1.29317
1.29317
1.29317
1.29317
1.29317
1.29317
1.29317
1.29297
1.29313
1.29311
1.29318
1.29318
1.29318
1.29318
1.29318
1.29318
1.29318
1.29318
1.29318
1.29318
1.29317
1.29317
1.29317
1.29317
1.29317
1.29314
1.29288
1.29295
1.2931
1.29315
1.29316
1.29317
1.29317
1.29318
1.29318
1.29318
1.29318
1.29318
1.29318
1.29317
1.29317
1.29317
1.29317
1.29318
1.29314
1.29286
1.2928
1.29309
1.29312
1.29313
1.29314
1.29315
1.29316
1.29317
1.29317
1.29318
1.29318
1.29318
1.29318
1.29317
1.29317
1.29317
1.29318
1.29314
1.29288
1.29272
1.29305
1.29312
1.29312
1.29312
1.29312
1.29313
1.29314
1.29316
1.29317
1.29317
1.29317
1.29317
1.29317
1.29317
1.29317
1.29317
1.29314
1.29294
1.29271
1.29301
1.29314
1.29313
1.29313
1.29313
1.29312
1.29312
1.29313
1.29315
1.29316
1.29317
1.29317
1.29317
1.29317
1.29317
1.29317
1.29315
1.29301
1.29272
1.29301
1.29314
1.29314
1.29314
1.29314
1.29313
1.29313
1.29312
1.29313
1.29314
1.29316
1.29317
1.29317
1.29317
1.29317
1.29317
1.29315
1.29305
1.29276
1.29296
1.29314
1.29314
1.29314
1.29314
1.29314
1.29314
1.29313
1.29313
1.29313
1.29314
1.29316
1.29316
1.29317
1.29317
1.29317
1.29316
1.29308
1.29282
1.29315
1.29313
1.29313
1.29313
1.29313
1.29313
1.29313
1.29313
1.29313
1.29313
1.29313
1.29314
1.29316
1.29317
1.29316
1.29317
1.29315
1.2931
1.29291
1.29301
1.29312
1.29312
1.29312
1.29312
1.29312
1.29312
1.29312
1.29313
1.29313
1.29313
1.29314
1.29315
1.29316
1.29316
1.29317
1.29315
1.29312
1.29297
1.29283
1.29311
1.2931
1.2931
1.2931
1.2931
1.2931
1.29311
1.29312
1.29312
1.29312
1.29313
1.29314
1.29316
1.29315
1.29317
1.29315
1.29314
1.29299
1.29281
1.29309
1.29309
1.29308
1.29308
1.29308
1.29308
1.29309
1.2931
1.29311
1.29311
1.29312
1.29313
1.29315
1.29315
1.29316
1.29315
1.29314
1.293
1.29281
1.29308
1.29307
1.29307
1.29306
1.29306
1.29306
1.29307
1.29308
1.2931
1.29311
1.29312
1.29312
1.29314
1.29314
1.29316
1.29315
1.29315
1.29301
1.29281
1.29307
1.29306
1.29305
1.29304
1.29304
1.29304
1.29306
1.29306
1.29307
1.29309
1.29311
1.29312
1.29313
1.29314
1.29315
1.29314
1.29314
1.29302
1.29283
1.29306
1.29305
1.29304
1.29303
1.29303
1.29303
1.29304
1.29305
1.29306
1.29308
1.2931
1.29311
1.29313
1.29313
1.29315
1.29314
1.29314
1.29302
1.29292
1.29305
1.29304
1.29303
1.29302
1.29301
1.29301
1.29303
1.29304
1.29305
1.29307
1.29309
1.29311
1.29312
1.29313
1.29314
1.29314
1.29313
1.29302
1.29296
1.29305
1.29304
1.29303
1.29301
1.293
1.293
1.29301
1.29304
1.29305
1.29306
1.29309
1.2931
1.29312
1.29313
1.29314
1.29313
1.29312
1.29305
1.29296
1.29304
1.29303
1.29302
1.29301
1.29299
1.29298
1.29299
1.29302
1.29305
1.29306
1.29308
1.2931
1.29312
1.29313
1.29314
1.29313
1.29313
1.29307
1.29302
1.29304
1.29303
1.29302
1.293
1.29299
1.29298
1.29298
1.293
1.29305
1.29307
1.29309
1.2931
1.29312
1.29312
1.29313
1.29313
1.29312
1.29309
1.29305
1.29302
1.29301
1.29301
1.29299
1.29298
1.29297
1.29297
1.29298
1.29301
1.29305
1.29307
1.29309
1.29311
1.29312
1.29313
1.29314
1.29314
1.29314
1.29311
)
;

boundaryField
{
    leftWall
    {
        type            calculated;
        value           nonuniform List<scalar> 
50
(
1.29981
1.29905
1.29829
1.29751
1.29673
1.29596
1.29519
1.29443
1.29367
1.29335
1.29328
1.29325
1.29323
1.29323
1.29322
1.29322
1.29322
1.29322
1.29322
1.29322
1.29321
1.29321
1.29321
1.29321
1.2932
1.2932
1.29319
1.29318
1.29317
1.29315
1.29313
1.29312
1.29311
1.2931
1.29309
1.29309
1.29309
1.29309
1.29309
1.29309
1.29309
1.29309
1.2931
1.2931
1.2931
1.2931
1.2931
1.29311
1.29312
1.29315
)
;
    }
    rightWall
    {
        type            calculated;
        value           nonuniform List<scalar> 
50
(
1.31157
1.30844
1.30613
1.30354
1.30101
1.29909
1.29872
1.29999
1.29777
1.29413
1.29373
1.29377
1.29384
1.29396
1.29423
1.29438
1.29447
1.2945
1.2941
1.29407
1.29393
1.29409
1.2939
1.29393
1.29417
1.29416
1.2938
1.29412
1.29354
1.29313
1.29311
1.2931
1.29309
1.29305
1.29301
1.29301
1.29296
1.29315
1.29301
1.29283
1.29281
1.29281
1.29281
1.29283
1.29292
1.29296
1.29296
1.29302
1.29305
1.29311
)
;
    }
    lowerWall
    {
        type            calculated;
        value           nonuniform List<scalar> 
62
(
1.30019
1.30022
1.30029
1.30039
1.30052
1.30069
1.30089
1.30112
1.30137
1.30165
1.30194
1.30225
1.30254
1.30287
1.30313
1.30346
1.30367
1.30398
1.30414
1.30441
1.30449
1.30467
1.30468
1.30431
1.30357
1.30283
1.30212
1.30139
1.30071
1.29998
1.29934
1.29993
1.29886
1.29901
1.29692
1.31056
1.30759
1.301
1.29873
1.29877
1.29891
1.29836
1.29808
1.31087
1.3007
1.30026
1.29923
1.30013
1.30132
1.30559
1.30732
1.30502
1.30207
1.30046
1.29859
1.29804
1.29746
1.29784
1.29799
1.29943
1.30407
1.31188
)
;
    }
    atmosphere
    {
        type            calculated;
        value           nonuniform List<scalar> 
46
(
1.29325
1.29325
1.29325
1.29325
1.29325
1.29325
1.29325
1.29324
1.29324
1.29324
1.29323
1.29321
1.29316
1.29304
1.29295
1.29293
1.29296
1.29305
1.29309
1.29312
1.29313
1.29314
1.29314
1.29314
1.29313
1.29313
1.29313
1.29312
1.29311
1.2931
1.29309
1.29308
1.29308
1.29307
1.29308
1.29311
1.29315
1.29317
1.29319
1.29321
1.29322
1.29322
1.29323
1.29323
1.29323
1.29319
)
;
    }
    defaultFaces
    {
        type            empty;
    }
}


// ************************************************************************* //
