/*--------------------------------*- C++ -*----------------------------------*\
| =========                 |                                                 |
| \\      /  F ield         | OpenFOAM: The Open Source CFD Toolbox           |
|  \\    /   O peration     | Version:  2012                                  |
|   \\  /    A nd           | Website:  www.openfoam.com                      |
|    \\/     M anipulation  |                                                 |
\*---------------------------------------------------------------------------*/
FoamFile
{
    version     2.0;
    format      ascii;
    class       volScalarField;
    location    "0.66";
    object      rhogh;
}
// * * * * * * * * * * * * * * * * * * * * * * * * * * * * * * * * * * * * * //

dimensions      [1 -1 -2 0 0 0 0];


internalField   nonuniform List<scalar> 
2268
(
-29.4294
-29.4294
-29.4294
-29.4294
-29.4294
-29.4294
-29.4294
-29.4294
-29.4294
-29.4294
-29.4294
-29.4294
-29.4294
-29.4294
-29.4294
-29.4294
-29.4294
-29.4294
-29.4294
-29.4294
-29.4294
-29.4293
-29.4232
-88.2881
-88.2881
-88.2881
-88.2881
-88.2881
-88.2881
-88.2881
-88.2881
-88.2881
-88.2881
-88.2881
-88.2881
-88.2881
-88.2881
-88.2881
-88.2881
-88.2881
-88.2881
-88.2881
-88.2881
-88.2881
-88.2871
-88.2627
-147.147
-147.147
-147.147
-147.147
-147.147
-147.147
-147.147
-147.147
-147.147
-147.147
-147.147
-147.147
-147.147
-147.147
-147.147
-147.147
-147.147
-147.147
-147.147
-147.147
-147.147
-147.146
-147.104
-206.006
-206.006
-206.006
-206.006
-206.006
-206.006
-206.006
-206.006
-206.006
-206.006
-206.006
-206.006
-206.006
-206.006
-206.006
-206.006
-206.006
-206.006
-206.006
-206.006
-206.006
-206.004
-205.946
-264.864
-264.864
-264.864
-264.864
-264.864
-264.864
-264.864
-264.864
-264.864
-264.864
-264.864
-264.864
-264.864
-264.864
-264.864
-264.864
-264.864
-264.864
-264.864
-264.864
-264.864
-264.864
-264.838
-323.723
-323.723
-323.723
-323.723
-323.723
-323.723
-323.723
-323.723
-323.723
-323.723
-323.723
-323.723
-323.723
-323.723
-323.723
-323.723
-323.723
-323.723
-323.723
-323.723
-323.723
-323.723
-323.723
-382.569
-382.57
-382.577
-382.58
-382.582
-382.582
-382.582
-382.582
-382.582
-382.582
-382.582
-382.582
-382.582
-382.582
-382.582
-382.582
-382.582
-382.582
-382.582
-382.582
-382.582
-382.582
-382.582
-422.992
-424.421
-429.953
-435.851
-438.839
-440.046
-441.44
-441.44
-441.44
-441.44
-441.44
-441.44
-441.44
-441.44
-441.44
-441.44
-441.44
-441.44
-441.44
-441.44
-441.44
-441.44
-441.44
-23.8425
-23.8425
-23.8425
-21.695
-19.5639
-19.564
-21.4969
-23.1785
-23.1796
-23.1793
-23.8687
-24.4694
-24.4694
-24.4692
-24.4692
-24.4692
-24.469
-24.4669
-24.3517
-71.5275
-63.4454
-70.7813
-70.7753
-68.1906
-58.9866
-63.7646
-69.5011
-69.5051
-65.9962
-64.3826
-63.4304
-61.8748
-60.7603
-61.5232
-66.5347
-70.4605
-73.4028
-73.4028
-116.962
-19.9276
-45.0324
-65.6567
-99.8843
-124.446
-136.138
-102.553
-28.5175
-28.5138
-28.6025
-39.3264
-23.4719
-18.5889
-16.5015
-20.5147
-40.0455
-87.9952
-122.338
-123.197
-3.89012
-0.436147
-0.411714
-12.172
-84.6393
-190.593
-202.189
-147.991
-90.0911
-57.063
-8.25503
-0.120979
-0.120979
-0.120979
-0.120979
-0.120979
-37.7619
-151.681
-49.2611
-6.52735
-1.80911e-18
-1.69095e-05
-1.3994e-06
-43.2776
-222.958
-264.139
-263.53
-251.255
-222.05
-166.014
-95.8111
-23.3085
-0.155545
-0.155545
-0.533746
-20.5934
-140.586
-151.199
-8.06135
-5.37357e-24
-0.000212126
-1.90254e-06
-163.854
-312.82
-322.836
-322.872
-322.872
-322.872
-322.59
-310.443
-268.701
-179.526
-37.9586
-3.75201
-26.0367
-209.637
-207.579
-8.21595
-3.14065e-22
-0.000294747
-2.02135e-06
-276.771
-379.065
-381.534
-379.528
-356.906
-359.907
-367.366
-369.204
-369.201
-369.204
-288.347
-67.3984
-33.6747
-256.331
-239.515
-9.21079
-0.586396
-0.000340111
-106.643
-396.358
-440.106
-440.106
-349.107
-228.764
-185.708
-190.655
-205.772
-235.38
-324.925
-332.692
-152.23
-21.7759
-292.928
-221.456
-228.816
-245.811
-273.36
-312.281
-348.645
-393.474
-440.722
-485.035
-522.546
-533.467
-533.467
-533.467
-533.467
-533.467
-533.467
-533.467
-533.467
-533.467
-533.467
-533.467
-533.467
-533.467
-4.74843e-34
-1.27195e-34
5.3792e-33
-5.01583e-19
-2.80691
-19.2533
-43.1855
-81.4045
-143.554
-230.332
-348.269
-460.853
-559.317
-641.9
-658.662
-658.662
-658.662
-658.646
-658.661
-658.662
-658.662
-658.662
-658.662
-2.65472e-16
-1.21655e-14
-2.65131e-13
-1.60767e-12
-6.87978e-28
-2.4272e-27
-8.08966e-23
-0.0381339
-1.18505
-6.50507
-23.8919
-75.2706
-159.362
-289.544
-459.764
-578.92
-648.104
-750.741
-775.836
-781.744
-781.94
-783.856
-783.856
-4.37845e-15
-2.07415e-13
-6.21488e-12
-1.19582e-10
-1.86351e-09
-1.62234e-08
-2.59728e-06
-0.000114004
-0.00217063
-0.0293728
-0.28393
-1.76728
-7.07992
-21.7316
-59.9606
-113.855
-142.404
-216.193
-344.88
-478.231
-591.668
-793.975
-879.301
-8.76002e-14
-4.02886e-12
-8.70649e-11
-1.06066e-09
-7.30783e-09
-2.67513e-08
-1.74194e-07
-9.83174e-07
-1.11996e-06
-1.57361e-05
-0.000146614
-0.000655355
-0.00110268
2.60821e-23
-9.23267e-25
-2.12443e-26
2.51132e-21
6.22974e-21
1.12446e-30
2.76063e-18
-15.1723
-109.627
-200.637
-3.41048e-14
-1.66092e-12
-4.68757e-11
-7.80521e-10
-7.26294e-09
-3.25493e-08
-7.05123e-08
-1.02268e-07
-1.29942e-07
-9.57019e-06
-0.000277216
-0.000445541
-0.00131746
-0.00202831
-0.000271035
-1.18816e-05
1.63512e-23
3.52656e-29
-1.06433e-10
-2.31224e-06
-1.38796e-09
-1.38796e-09
-1.15119
-4.04232e-14
-2.01325e-12
-4.78673e-11
-6.81963e-10
-5.83744e-09
-2.55656e-08
-5.63914e-08
-1.72793e-07
-2.63255e-07
-1.89741e-06
-0.000526036
-0.0026774
-0.00267726
-0.00266241
-0.000122282
-1.06433e-05
-3.59023e-05
-0.000301053
-0.000267981
-1.53783e-09
-1.53783e-09
-0.000619017
-1.18712
-1.62112e-14
-8.30143e-13
-2.03723e-11
-3.10358e-10
-2.99907e-09
-1.59075e-08
-5.93728e-08
-3.40279e-07
-1.09679e-06
-7.52576e-06
-0.000279132
-0.00138224
-0.00174893
-0.000554329
-5.18345e-05
-1.16794e-05
-2.67638e-05
-0.000417255
-0.000588074
-0.000244881
-1.12213e-05
-4.50134e-05
-6.66125e-07
-6.6028e-15
-3.19299e-13
-7.63648e-12
-1.14556e-10
-1.14996e-09
-7.07397e-09
-3.97015e-08
-3.56863e-07
-2.12668e-06
-1.08129e-05
-2.68431e-05
-1.42158e-05
-2.68511e-05
-9.61737e-06
-8.38833e-06
-2.23378e-05
-3.80138e-05
-0.00026384
-0.00064111
-0.000607155
-2.1809e-07
-2.18063e-07
-7.2606e-07
-2.08016e-15
-9.96838e-14
-2.41781e-12
-3.67217e-11
-4.02992e-10
-3.32325e-09
-2.89969e-08
-3.20295e-07
-2.16336e-06
-5.63352e-06
-2.14874e-06
-3.44808e-07
-2.57881e-07
-4.80518e-07
-2.37951e-06
-2.31196e-05
-5.2352e-05
-6.89727e-05
-0.000252374
-0.000353378
-5.28227e-05
-2.35877e-07
-3.5341e-06
-6.41611e-16
-2.94908e-14
-6.94152e-13
-1.01428e-11
-1.12933e-10
-1.12408e-09
-1.31615e-08
-1.70934e-07
-9.10365e-07
-1.35271e-06
-7.30324e-07
-3.28824e-07
-2.6181e-07
-5.10439e-07
-1.37404e-06
-9.418e-06
-2.76568e-05
-2.07988e-05
-5.74974e-06
-1.739e-05
-0.000342302
-0.00032116
-0.00756394
-1.65145e-16
-7.36058e-15
-1.72244e-13
-2.45898e-12
-2.69267e-11
-2.81737e-10
-3.46602e-09
-4.52444e-08
-1.95392e-07
-2.87121e-07
-2.48144e-07
-2.21738e-07
-2.32636e-07
-4.58775e-07
-8.80761e-07
-1.91141e-06
-4.46221e-06
-5.64872e-06
-2.03572e-06
-1.07483e-06
-0.000210368
-0.00165905
-0.00230727
-3.72064e-17
-1.59108e-15
-3.69232e-14
-5.17879e-13
-5.50802e-12
-5.6431e-11
-6.9281e-10
-9.06256e-09
-3.66881e-08
-5.92089e-08
-6.94772e-08
-7.70909e-08
-1.14976e-07
-2.35661e-07
-4.63278e-07
-7.07482e-07
-1.13201e-06
-1.6824e-06
-1.46096e-06
-7.76525e-07
-7.66002e-06
-0.000780129
-0.00229231
-7.13288e-18
-2.94264e-16
-6.83877e-15
-9.56415e-14
-1.0046e-12
-1.00272e-11
-1.21686e-10
-1.50182e-09
-6.02684e-09
-1.14681e-08
-1.65973e-08
-2.0537e-08
-3.05523e-08
-6.05398e-08
-1.44857e-07
-2.59676e-07
-4.18582e-07
-6.40768e-07
-7.75563e-07
-7.12674e-07
-3.55832e-07
-4.49625e-05
-0.000931035
-1.1727e-18
-4.67858e-17
-1.09256e-15
-1.53796e-14
-1.62501e-13
-1.60766e-12
-2.01573e-11
-2.13091e-10
-8.54698e-10
-1.91437e-09
-3.21375e-09
-4.33814e-09
-6.54928e-09
-1.25125e-08
-3.26033e-08
-7.14578e-08
-1.35353e-07
-2.35833e-07
-3.53497e-07
-4.81979e-07
-3.76445e-07
-3.59014e-06
-8.16737e-06
-1.62209e-19
-6.28631e-18
-1.48354e-16
-2.11939e-15
-2.2779e-14
-2.23284e-13
-3.02137e-12
-2.61209e-11
-1.03081e-10
-2.60902e-10
-4.87027e-10
-7.17039e-10
-1.1361e-09
-2.17864e-09
-5.83011e-09
-1.49094e-08
-3.36575e-08
-6.89865e-08
-1.25397e-07
-1.96326e-07
-2.75841e-07
-6.80828e-07
-4.13026e-07
-1.89637e-20
-7.19923e-19
-1.7253e-17
-2.5204e-16
-2.78071e-15
-2.69994e-14
-3.92212e-13
-2.83659e-12
-1.06941e-11
-2.8971e-11
-5.79595e-11
-9.33216e-11
-1.58617e-10
-3.19023e-10
-8.70101e-10
-2.46377e-09
-6.44306e-09
-1.52786e-08
-3.27688e-08
-5.8552e-08
-9.64969e-08
-1.83541e-07
-1.72883e-07
-1.8547e-21
-6.9564e-20
-1.70284e-18
-2.55945e-17
-2.90958e-16
-2.78355e-15
-4.16292e-14
-2.69982e-13
-9.59774e-13
-2.65602e-12
-5.51002e-12
-9.67964e-12
-1.78224e-11
-3.88329e-11
-1.09546e-10
-3.31231e-10
-9.6678e-10
-2.57007e-09
-6.3158e-09
-1.2754e-08
-2.24745e-08
-3.95392e-08
-5.23007e-08
-1.52507e-22
-5.71921e-21
-1.43642e-19
-2.23109e-18
-2.61339e-17
-2.48728e-16
-3.59797e-15
-2.21143e-14
-7.425e-14
-2.0431e-13
-4.27964e-13
-8.14294e-13
-1.62526e-12
-3.90614e-12
-1.1571e-11
-3.66168e-11
-1.15241e-10
-3.32222e-10
-9.09757e-10
-2.03982e-09
-3.96236e-09
-6.96663e-09
-1.10063e-08
-1.05541e-23
-4.00246e-22
-1.03418e-20
-1.66196e-19
-1.99717e-18
-1.90387e-17
-2.54124e-16
-1.52578e-15
-4.8797e-15
-1.32451e-14
-2.74807e-14
-5.61215e-14
-1.20564e-13
-3.21078e-13
-1.00196e-12
-3.28805e-12
-1.08608e-11
-3.30004e-11
-9.81413e-11
-2.39864e-10
-5.15304e-10
-9.54975e-10
-1.67925e-09
-6.19788e-25
-2.40036e-23
-6.37657e-22
-1.0582e-20
-1.29565e-19
-1.24011e-18
-1.48445e-17
-8.78051e-17
-2.69101e-16
-7.21703e-16
-1.46569e-15
-3.18049e-15
-7.25765e-15
-2.12649e-14
-6.91198e-14
-2.33887e-13
-7.94191e-13
-2.48588e-12
-7.85114e-12
-2.05232e-11
-4.86033e-11
-9.68733e-11
-1.88775e-10
-3.15263e-26
-1.25878e-24
-3.42131e-23
-5.8315e-22
-7.20739e-21
-6.90379e-20
-7.31801e-19
-4.23135e-18
-1.24118e-17
-3.29575e-17
-6.48883e-17
-1.47773e-16
-3.50358e-16
-1.10663e-15
-3.64706e-15
-1.25966e-14
-4.29372e-14
-1.35624e-13
-4.44971e-13
-1.21834e-12
-3.16053e-12
-6.80695e-12
-1.4935e-11
-1.41223e-27
-5.83462e-26
-1.61146e-24
-2.80037e-23
-3.45961e-22
-3.2851e-21
-3.08364e-20
-1.72233e-19
-4.8035e-19
-1.25469e-18
-2.36379e-18
-5.55572e-18
-1.32523e-17
-4.36654e-17
-1.39895e-16
-4.82569e-16
-1.58895e-15
-4.92615e-15
-1.62869e-14
-4.50868e-14
-1.26707e-13
-2.92987e-13
-7.45609e-13
-5.73216e-29
-2.45649e-27
-6.8415e-26
-1.20129e-24
-1.46828e-23
-1.36636e-22
-1.13727e-21
-6.0326e-21
-1.58391e-20
-4.01987e-20
-7.12636e-20
-1.67855e-19
-3.83793e-19
-1.25041e-18
-3.6232e-18
-1.17505e-17
-3.39415e-17
-1.03638e-16
-1.20562e-15
-1.53988e-14
-7.75916e-14
-2.78092e-13
-3.03957e-13
-2.15365e-30
-9.54978e-29
-2.66367e-27
-4.68201e-26
-5.60885e-25
-5.05197e-24
-3.74189e-23
-1.85525e-22
-4.52413e-22
-1.09344e-21
-1.78157e-21
-4.0277e-21
-8.17476e-21
-2.39463e-20
-6.3746e-20
-1.30928e-18
-3.75713e-16
-2.11128e-14
-4.65816e-13
-3.23162e-12
-1.21052e-11
-3.0946e-11
-3.63832e-11
-7.67323e-32
-3.50671e-30
-9.73626e-29
-1.69751e-27
-1.97688e-26
-1.7044e-25
-1.12627e-24
-5.14515e-24
-1.15017e-23
-2.53836e-23
-3.77741e-23
-1.20964e-22
-2.70667e-21
-1.40574e-19
-8.91132e-18
-1.53265e-15
-1.05378e-13
-2.57327e-12
-3.14417e-11
-1.41505e-10
-4.04191e-10
-8.14559e-10
-9.86732e-10
-2.64366e-33
-1.23795e-31
-3.40289e-30
-5.83772e-29
-6.56212e-28
-5.34218e-27
-3.10704e-26
-1.36118e-25
-7.35331e-25
-2.97495e-23
-1.59102e-21
-7.84811e-20
-3.47215e-18
-1.4783e-16
-7.58593e-15
-3.30141e-13
-8.35956e-12
-1.22605e-10
-9.50048e-10
-2.87969e-09
-6.02705e-09
-9.70006e-09
-1.2819e-08
-8.7005e-35
-4.23703e-33
-1.12656e-31
-1.96933e-30
-3.08938e-29
-1.16013e-27
-7.954e-26
-5.36417e-24
-3.17808e-22
-1.61939e-20
-7.13292e-19
-2.73305e-17
-9.32567e-16
-2.96862e-14
-9.79006e-13
-2.35168e-11
-3.6825e-10
-3.38332e-09
-1.64936e-08
-3.24165e-08
-4.89969e-08
-6.87174e-08
-1.22547e-07
-8.78119e-36
-9.29357e-34
-1.85941e-31
-2.767e-29
-3.15309e-27
-2.81772e-25
-2.04556e-23
-1.23435e-21
-6.28062e-20
-2.71379e-18
-1.00279e-16
-3.18438e-15
-8.81595e-14
-2.17844e-12
-5.06234e-11
-8.50786e-10
-9.5037e-09
-6.1332e-08
-1.92727e-07
-4.03439e-07
-3.55073e-06
-1.25955e-05
-3.75795e-05
-5.05397e-34
-2.28144e-31
-4.97537e-29
-6.97114e-27
-7.06574e-25
-5.51992e-23
-3.45596e-21
-1.77579e-19
-7.60261e-18
-2.73344e-16
-8.30146e-15
-2.13506e-13
-4.68719e-12
-8.89126e-11
-1.50201e-09
-1.9105e-08
-1.65315e-07
-9.98102e-07
-1.04588e-05
-0.000126201
-0.00128339
-0.00430868
-0.00509182
-6.52648e-32
-2.72697e-29
-5.47332e-27
-7.01864e-25
-6.46228e-23
-4.54665e-21
-2.53955e-19
-1.15353e-17
-4.32693e-16
-1.35148e-14
-3.5327e-13
-7.7337e-12
-1.42112e-10
-2.19632e-09
-2.89274e-08
-3.06867e-07
-2.99554e-06
-5.0646e-05
-0.000974747
-0.00789775
-0.0132565
-0.0132567
-0.00884821
-6.54065e-30
-2.5029e-27
-4.59225e-25
-5.36332e-23
-4.46998e-21
-2.82392e-19
-1.40255e-17
-5.60243e-16
-1.82606e-14
-4.89303e-13
-1.08211e-11
-1.97143e-10
-2.9488e-09
-3.59976e-08
-3.65493e-07
-4.45927e-06
-8.82778e-05
-0.00187615
-0.0131772
-0.0177597
-0.0177603
-0.00713037
-5.83732e-08
-2.74377e-28
-9.96986e-26
-1.72648e-23
-1.88732e-21
-1.45554e-19
-8.38715e-18
-3.73631e-16
-1.31352e-14
-3.69272e-13
-8.35081e-12
-1.52113e-10
-2.21494e-09
-2.54092e-08
-2.24724e-07
-2.20639e-06
-8.30225e-05
-0.00272151
-0.0157214
-0.0169047
-0.0125703
-0.000504559
-2.46074e-07
-5.82674e-07
-5.95826e-27
-1.8939e-24
-2.85411e-22
-2.69849e-20
-1.78794e-18
-8.78573e-17
-3.3097e-15
-9.73947e-14
-2.26363e-12
-4.16808e-11
-6.07045e-10
-6.77854e-09
-5.56327e-08
-3.71359e-07
-2.74033e-05
-0.00209661
-0.0155181
-0.0170121
-0.0107675
-1.02785e-07
-1.02781e-07
-1.28675e-06
-3.54506e-06
-3.70306e-26
-1.11534e-23
-1.57598e-21
-1.37856e-19
-8.30821e-18
-3.63679e-16
-1.1906e-14
-2.95901e-13
-5.62118e-12
-8.1473e-11
-8.93154e-10
-7.35311e-09
-4.3807e-08
-3.96693e-07
-0.000294806
-0.0113766
-0.0174571
-0.0119416
-1.11574e-07
-1.60515e-07
-7.47839e-07
-2.125e-06
-3.36324e-06
-2.13661e-25
-5.70268e-23
-7.1131e-21
-5.46438e-19
-2.88083e-17
-1.10047e-15
-3.1406e-14
-6.8027e-13
-1.12639e-11
-1.4215e-10
-1.34733e-09
-9.19223e-09
-4.14404e-08
-7.32162e-07
-0.000558435
-0.0123831
-0.0154612
-3.309e-08
-1.14487e-07
-3.51952e-07
-8.89247e-07
-1.04904e-06
-9.7561e-07
-4.19038e-25
-1.17047e-22
-1.52414e-20
-1.21773e-18
-6.62784e-17
-2.59261e-15
-7.53402e-14
-1.66587e-12
-2.86641e-11
-3.922e-10
-4.33411e-09
-3.82813e-08
-2.85155e-07
-2.22797e-05
-0.00286976
-0.00595034
-0.000644088
-3.3932e-08
-1.39359e-07
-2.74065e-07
-2.94474e-07
-2.80658e-07
-2.27581e-07
-2.15584e-24
-6.03946e-22
-7.8902e-20
-6.46567e-18
-3.73941e-16
-1.59644e-14
-5.06264e-13
-1.20064e-11
-2.13406e-10
-2.84464e-09
-2.87291e-08
-2.29564e-07
-4.80473e-06
-0.000423289
-0.00225987
-0.000813696
-1.67689e-08
-3.97463e-08
-7.55039e-08
-6.87599e-08
-6.44245e-08
-5.33359e-08
-4.00992e-08
-2.20799e-24
-6.52445e-22
-1.07143e-19
-1.08564e-17
-7.48535e-16
-3.68345e-14
-1.32815e-12
-3.53009e-11
-6.88734e-10
-9.73019e-09
-9.74338e-08
-7.43046e-07
-2.12081e-05
-0.000570019
-0.00087626
-2.89962e-05
-1.71752e-08
-6.1864e-08
-3.13117e-08
-1.29315e-08
-9.71885e-09
-6.90928e-09
-5.03754e-09
-5.00989e-24
-1.85572e-21
-3.23358e-19
-3.41701e-17
-2.40209e-15
-1.17075e-13
-4.02481e-12
-9.77995e-11
-1.74257e-09
-2.3893e-08
-2.49913e-07
-2.84943e-06
-8.07557e-05
-0.000434715
-0.000242712
-4.21317e-08
-4.43304e-08
-1.03299e-07
-1.19759e-08
-1.63896e-09
-9.37566e-10
-5.59529e-10
-4.70413e-10
-1.93768e-24
-8.18538e-22
-1.63101e-19
-1.99658e-17
-1.64821e-15
-9.59846e-14
-4.09415e-12
-1.31593e-10
-3.06248e-09
-4.94406e-08
-5.65767e-07
-6.25019e-06
-8.23606e-05
-0.000164221
-2.39227e-05
-4.31103e-08
-4.96789e-07
-7.61296e-08
-1.97062e-09
-9.70579e-11
-4.25322e-11
-2.65332e-11
-4.84464e-11
-3.20942e-25
-1.68935e-22
-4.3348e-20
-6.97787e-18
-7.69143e-16
-5.95982e-14
-3.21552e-12
-1.19506e-10
-3.08432e-09
-5.56318e-08
-7.35714e-07
-8.36959e-06
-3.66369e-05
-3.31106e-05
-2.59355e-05
-1.1213e-05
-1.20898e-06
-1.11659e-32
-3.20514e-14
-1.63094e-13
-2.90483e-14
-3.07223e-15
-6.63845e-17
-533.467
-530.868
-382.817
-157.372
-658.662
-658.049
-577.437
-266.88
-783.856
-783.831
-780.64
-723.219
-909.051
-909.051
-909.051
-909.051
-377.201
-434.556
-580.012
-642.557
-17.4426
-32.2318
-56.9452
-115.372
-23.6073
-40.2299
-16.0337
-13.9449
-0.791478
-112.069
-276.927
-276.474
-0.090021
-37.6993
-340.916
-487.652
-0.0411562
-0.411867
-8.25262
-200.306
-0.0667355
-0.0432032
-0.00477741
-0.00477738
-0.0412672
-0.0559784
-0.00617712
-0.00511241
-0.00320488
-0.0257318
-0.0623723
-0.042434
-0.000635393
-4.48882e-05
-0.0205603
-0.0202235
-1.25504e-05
-4.74865e-05
-0.000184707
-2.90088e-08
-5.68458e-07
-7.26293e-06
-1.83073e-06
-3.09663e-08
-1.82387e-07
-3.22781e-07
-7.69447e-08
-3.48767e-07
-5.49843e-08
-5.80096e-08
-9.15563e-09
-9.81839e-07
-1.29057e-08
-1.34447e-08
-7.37154e-09
-3.98295e-07
-2.18559e-09
-2.41544e-09
-3.1463e-09
-4.14431e-08
-2.6474e-10
-3.17992e-10
-4.8048e-10
-3.12133e-09
-2.24714e-11
-2.90359e-11
-4.60643e-11
-1.84397e-10
-1.20876e-12
-1.68201e-12
-2.7281e-12
-7.90226e-12
-3.35673e-13
-3.89173e-13
-5.331e-13
-8.16434e-13
-4.28688e-11
-6.19529e-11
-1.03137e-10
-2.02015e-10
-1.34762e-09
-2.52892e-09
-4.95403e-09
-1.23571e-08
-2.50925e-08
-5.3584e-08
-1.38591e-07
-5.50092e-07
-1.97295e-06
-3.91393e-06
-2.24407e-05
-7.36336e-05
-0.00060085
-0.000807792
-0.000923048
-0.000761084
-0.00460529
-0.00302536
-0.00128385
-0.000490471
-0.0028193
-0.00054454
-4.83495e-05
-9.6406e-07
-5.83753e-08
-5.83732e-08
-5.83753e-08
-9.9185e-07
-3.31481e-06
-5.34207e-06
-6.89764e-06
-7.57002e-06
-6.53947e-06
-7.77964e-06
-8.56723e-06
-9.39619e-06
-3.6125e-06
-3.58448e-06
-3.93564e-06
-4.97532e-06
-8.93547e-07
-9.24621e-07
-1.13221e-06
-1.47863e-06
-2.05747e-07
-2.38273e-07
-3.30086e-07
-4.53293e-07
-4.0307e-08
-6.25386e-08
-1.12461e-07
-2.22341e-07
-7.29764e-09
-1.78254e-08
-4.53993e-08
-1.24101e-07
-1.46067e-09
-4.6457e-09
-1.25749e-08
-3.40174e-08
-2.27554e-10
-6.38432e-10
-9.55247e-10
-1.00833e-09
1.08479e-26
1.44261e-26
1.85404e-26
2.29204e-26
-114.461
-10.3379
-13.6483
-149.404
-397.059
-531.272
-530.259
-331.478
-111.981
-17.8893
-9.32772
-7.10624
-6.94851
-8.95705
-25.3902
-72.9025
-71.5134
-22.7302
-335.893
-89.3298
-79.1711
-347.59
-658.662
-658.662
-658.662
-382.908
-26.3936
-4.67419e-06
-4.67419e-06
-4.67419e-06
-0.00224391
-0.0142137
-0.0376595
-0.0916966
-0.683468
-6.30607
-3.52392
-443.461
-540.998
-664.186
-781.393
-783.719
-783.856
-662.692
-92.1495
-0.00376898
-0.00376899
-0.0012902
-0.0109096
-0.0383999
-0.000466361
-0.000574305
-0.00323503
-0.0221533
-0.0367959
-1.96828e-13
-587.675
-909.051
-909.051
-908.33
-877.55
-887.842
-144.873
-0.00386751
-0.0532322
-0.0106492
-0.00404228
-0.00477607
-0.00155829
-5.30899e-08
-9.34772e-07
-6.54131e-06
-2.73686e-06
-2.2825e-13
-2.28928e-13
-709.577
-833.012
-838.817
-843.036
-760.102
-574.674
-2.77813e-13
-0.00440003
-0.0122896
-0.00117606
-6.9405e-08
-1.50401e-05
-6.04014e-08
-6.04039e-08
-2.44544e-08
-1.18386e-08
-6.59255e-07
-0.0714225
-27.805
-839.453
-204.881
-294.61
-627.305
-659.56
-52.0448
-3.11444e-13
-0.0109602
-0.0125164
-7.3969e-08
-7.78058e-08
-2.41204e-07
-3.2141e-07
-2.38729e-07
-6.95019e-08
-2.91475e-13
-2.91444e-13
-2.91475e-13
-104.532
-972.079
-13.9386
-356.391
-695.04
-370.64
-3.44816e-13
-0.00411106
-0.016706
-0.0139011
-8.19561e-08
-8.19561e-08
-1.40124e-07
-7.56017e-07
-4.47343e-06
-1.19303e-05
-1.8767e-05
-2.16983e-05
-3.22905e-13
-171.234
-1096.06
-168.167
-173.456
-463.218
-258.732
-3.78774e-13
-0.00154002
-0.00702341
-0.00424063
-0.000423379
-0.00377928
-0.000747026
-0.000341707
-0.00283513
-0.00338016
-0.00578052
-0.0013152
-3.54421e-13
-229.037
-1207.25
-486.816
-442.674
-416.596
-416.601
-224.046
-5.68969e-06
-5.69317e-06
-5.68969e-06
-4.35786
-20.3761
-8.66057
-2.56663
-10.4375
-10.9841
-14.0527
-5.82858
-3.85855e-13
-285.976
-1314.45
-525.89
-835.77
-835.77
-855.343
-897.493
-296.667
-6.15373e-06
-28.6826
-309.479
-689.87
-505.557
-276.788
-323.658
-395.321
-449.837
-287.252
-22.5313
-385.806
-1369.11
-0.0322796
-557.945
-1259.63
-1263.44
-1263.44
-1232.75
-1020.42
-986.806
-1195.58
-1252.26
-1206.71
-632.411
-752.527
-1065.26
-1270.02
-1247.03
-869.226
-635.587
-1279.51
-0.00511245
-0.00511245
-389.988
-1125.23
-1352.04
-1352.04
-1352.04
-1352.04
-1352.04
-1312.14
-1086.59
-843.285
-1353.33
-1676.1
-1834.71
-1869.29
-1745.6
-1277.53
-1482.58
-0.00544745
-0.00578213
-0.00509562
-0.476193
-439.651
-793.317
-868.063
-739.258
-485.115
-327.823
-360.674
-941.911
-1152.92
-1104.42
-1505.82
-2011.67
-2015.61
-1996.74
-2012.23
-0.0230244
-0.0280639
-0.00540902
-8.29993e-07
-8.29993e-07
-8.29993e-07
-8.29993e-07
-8.29993e-07
-8.29993e-07
-8.29993e-07
-40.9403
-52.029
-8.29993e-07
-8.29993e-07
-298.761
-1625.69
-2139.57
-2139.57
-2135.97
-0.00574162
-0.0174111
-0.0102226
-0.00977747
-0.000888163
-8.78078e-07
-8.72541e-06
-7.42529e-06
-1.28606e-05
-8.78078e-07
-8.78078e-07
-8.78078e-07
-0.00017394
-0.00259224
-0.00259168
-728.506
-2259.77
-2263.52
-2261.68
-0.000302017
-0.000286886
-1.77349e-06
-0.0105294
-0.00699171
-0.000573063
-0.0134502
-0.0218553
-0.00357405
-9.26162e-07
-2.42679e-05
-0.000214979
-0.00487129
-0.0679185
-9.60408
-209.985
-1482.2
-2344.97
-2359.37
-1.62357e-05
-1.40993e-05
-5.89371e-07
-0.0019459
-0.0225784
-0.0225784
-0.065953
-0.10683
-0.065298
-9.74247e-07
-4.22596e-05
-0.000157628
-0.0108188
-0.234095
-6.65721
-20.2827
-268.256
-1146.47
-1544.07
-3.57794e-06
-2.79597e-06
-6.18477e-07
-6.49397e-08
-0.009841
-0.0101602
-0.111022
-0.112103
-0.112103
-0.0134727
-4.4347e-05
-0.000119993
-0.0157731
-0.389442
-14.7949
-74.9839
-74.9801
-112.765
-44.512
-8.45856e-07
-6.91526e-07
-3.09608e-07
-6.79965e-08
-2.40824e-08
-0.00174947
-0.0144819
-0.0709628
-0.108543
-0.0333749
-0.000120448
-0.000693903
-0.0237444
-0.318851
-5.35229
-306.536
-601.194
-275.001
-35.2228
-1.22559e-07
-1.12131e-07
-7.22875e-08
-3.5888e-08
-2.51652e-08
-0.000111078
-0.00034566
-0.00760649
-0.00596622
-0.00161709
-1.37516e-07
-0.00418526
-0.0358744
-0.00376818
-3.25929
-279.836
-670.489
-670.492
-37.1237
-1.21438e-08
-1.31001e-08
-1.30871e-08
-1.9179e-08
-2.62464e-08
-7.62474e-07
-6.53469e-06
-1.05955e-05
-1.07383e-05
-6.5587e-06
-1.43422e-07
-0.00022602
-0.0108412
-1.19204e-07
-2.96622
-32.9258
-204.352
-315.357
-286.681
-7.9119e-10
-1.18089e-09
-2.01076e-09
-6.97271e-09
-1.91706e-08
-5.9709e-08
-2.6435e-07
-2.26829e-07
-1.97644e-07
-1.75459e-07
-1.4934e-07
-1.11938e-05
-1.67915e-05
-1.23382e-07
-2.92073
-0.0019796
-0.00192739
-0.333751
-1199.62
-3.40234e-11
-8.1571e-11
-2.56322e-10
-1.43307e-09
-6.09057e-09
-1.67413e-08
-5.2525e-08
-1.04887e-07
-1.47856e-07
-1.54794e-07
-1.61731e-07
-3.61292e-07
-4.90482e-07
-1.28266e-07
-2.02513
-0.0954798
-0.0103451
-56.0816
-1316.51
-1.68927e-12
-4.00446e-12
-2.49548e-11
-2.06675e-10
-1.16319e-09
-4.37023e-09
-1.50024e-08
-3.9887e-08
-8.30376e-08
-1.21338e-07
-1.5776e-07
-2.15277e-07
-3.55799e-07
-1.3315e-07
-1.90811
-0.457268
-0.011459
-28.2391
-1366.64
-4.4337e-10
-2.21431e-10
-3.68809e-11
-2.98761e-11
-1.70991e-10
-9.59917e-10
-4.23574e-09
-1.40505e-08
-3.60964e-08
-7.39927e-08
-1.32203e-07
-2.83987e-07
-2.89773e-07
-1.37216e-07
-1.95141
-0.767025
-0.00691678
-1.85676
-1416.77
-3.12866e-08
-2.3743e-08
-7.68973e-09
-9.67399e-10
-2.06845e-10
-2.29992e-10
-1.01459e-09
-4.48001e-09
-1.45346e-08
-3.8315e-08
-1.21147e-07
-3.15083e-07
-2.88622e-07
-1.4207e-07
-2.01646
-0.991481
-0.0063045
-5.61434e-22
-1331.28
-1.11628e-06
-7.41146e-07
-2.73152e-07
-6.57023e-08
-1.11415e-08
-1.72925e-09
-8.00087e-10
-1.40576e-09
-5.60846e-09
-2.0344e-08
-8.80267e-08
-3.25839e-07
-2.95369e-07
-1.46926e-07
-1.42083
-1.03148
-0.0382711
2.99142e-21
-1126.92
-5.04347e-05
-1.12546e-05
-2.85143e-06
-9.78306e-07
-2.69428e-07
-6.04618e-08
-1.19816e-08
-2.98699e-09
-3.16467e-09
-1.12875e-08
-6.11309e-08
-3.07152e-07
-2.87532e-07
-1.50879e-07
-0.764248
-0.815929
-0.088081
2.83738e-18
-1232.39
-0.000246624
-3.81602e-05
-1.0557e-05
-6.1492e-06
-2.49968e-06
-7.25125e-07
-1.891e-07
-4.42326e-08
-1.03999e-08
-9.86154e-09
-4.08592e-08
-2.67954e-07
-2.61119e-07
-1.55705e-07
-0.411247
-0.688905
-0.131204
-4.56212
-1271.83
-0.000271663
-0.000173914
-8.36556e-05
-3.91263e-05
-1.98468e-05
-7.45364e-06
-2.1602e-06
-6.75426e-07
-1.89965e-07
-4.87049e-08
-4.87802e-08
-2.24987e-07
-2.21544e-07
-1.60532e-07
-0.26528
-0.562644
-0.108831
-19.8512
-730.109
-8.99901e-05
-0.000218292
-0.000169272
-6.72595e-05
-0.000115091
-8.59788e-05
-1.27551e-05
-5.08482e-09
-5.08621e-09
-5.08482e-09
-2.56684e-08
-1.64378e-07
-1.64374e-07
-1.64374e-07
-0.135447
-0.463069
-0.114549
-11.7305
-2.39476
-9.92199e-07
-0.000152956
-0.000143648
-6.92217e-05
-0.000204176
-0.000770225
-0.000578968
-0.000238972
-5.83169e-05
-5.09902e-06
-7.3177e-07
-2.69934e-07
-1.69418e-07
-1.70185e-07
-0.00321366
-0.310796
-0.228489
1.39312e-21
-8.35812
-7.33167e-06
-7.31367e-06
-0.000573692
-0.000101869
-6.81152e-05
-0.0053527
-0.00518287
-0.00294304
-5.87892e-05
-2.31695e-06
-9.46684e-07
-4.26861e-07
-2.86039e-07
-1.77522e-07
-1.77519e-07
-0.318681
-0.219479
7.1206e-21
-318.777
-1.05709e-05
-8.47008e-06
-0.000605141
-0.00222144
-6.99767e-05
-0.00488993
-0.0506511
-0.000834474
-4.02644e-07
-4.02642e-07
-4.02644e-07
-4.05383e-07
-4.83891e-07
-3.30416e-07
-1.82411e-07
-0.279225
-0.175485
3.90058e-21
-516.072
-8.80313e-06
-2.33781e-05
-0.00013709
-0.00802366
-0.00676813
-7.27442e-05
-0.0951456
-0.736056
-0.268236
-0.00481094
-0.000128265
-1.55101e-06
-6.02654e-07
-3.54441e-07
-1.8829e-07
-0.0386617
-0.0263013
-1.28823e-20
-529.922
-3.12042e-06
-1.40498e-05
-1.40501e-05
-0.00720735
-0.0212068
-7.46232e-05
-0.109188
-0.760409
-0.832696
-0.157141
-0.00213849
-9.97411e-07
-5.1801e-07
-3.637e-07
-0.000308796
-0.000396448
-0.000388518
-1.33376e-20
-535.571
-7.58686e-07
-1.62517e-06
-4.44255e-05
-0.000860885
-0.0217462
-0.0133454
-0.000376341
-0.517036
-0.959744
-0.462369
-0.00336368
-8.33108e-07
-5.82007e-07
-5.07808e-07
-0.000402488
-0.000150739
-0.0001149
-0.0208898
-141.904
-6.23029e-07
-2.36403e-06
-1.58296e-05
-7.96619e-05
-0.00607327
-0.0125031
-0.000284213
-0.57106
-0.983557
-0.569435
-0.00850407
-2.72916e-06
-8.70441e-07
-5.20427e-07
-0.000255966
-3.63468e-05
-0.000117754
-0.26254
-0.0134606
-5.0445e-07
-1.82224e-06
-4.48941e-06
-9.51496e-06
-1.15721e-07
-0.000294907
-0.000294916
-0.465239
-1.00742
-0.788789
-0.0479684
-2.28622e-05
-1.38692e-06
-2.75702e-06
-1.7691e-05
-5.16721e-06
-5.16753e-06
-0.156971
-0.0137862
-1.22657e-07
-2.41057e-07
-7.67857e-11
-7.62873e-11
-1.18429e-07
-2.65057e-07
-0.00148601
-0.00148636
-1.02859
-1.02859
-0.117428
-1.13235e-05
-1.82491e-06
-5.27313e-06
-4.97737e-06
-1.78159e-06
-2.92498e-05
-0.00310244
-0.00112436
-5.43186e-10
2.73569e-28
-1.94591e-10
-1.31673e-08
-3.26395e-07
-2.78019e-06
-2.36941e-07
-0.00202872
-0.458258
-0.676143
-0.0930413
-4.11569e-06
-1.94747e-06
-5.67149e-06
-5.27448e-06
-1.82278e-06
-1.82278e-06
-0.00224502
-0.00115037
2.70415e-26
3.75507e-26
4.23631e-26
3.10662e-26
4.38139e-28
-9.36449e-10
-7.3271e-08
-9.47188e-06
-0.000887468
-0.0164464
-0.0333383
-0.00270957
-4.98282e-06
-4.16468e-06
-1.86396e-06
-0.000735082
-0.00302576
-0.00244484
-0.170056
)
;

boundaryField
{
    leftWall
    {
        type            calculated;
        value           nonuniform List<scalar> 
50
(
-29.4294
-88.2881
-147.147
-206.006
-264.864
-323.723
-382.569
-422.992
-221.456
-4.74843e-34
-2.65472e-16
-4.37845e-15
-8.76002e-14
-3.41048e-14
-4.04232e-14
-1.62112e-14
-6.6028e-15
-2.08016e-15
-6.41611e-16
-1.65145e-16
-3.72064e-17
-7.13288e-18
-1.1727e-18
-1.62209e-19
-1.89637e-20
-1.8547e-21
-1.52507e-22
-1.05541e-23
-6.19788e-25
-3.15263e-26
-1.41223e-27
-5.73216e-29
-2.15365e-30
-7.67323e-32
-2.64366e-33
-8.7005e-35
-8.78119e-36
-5.05397e-34
-6.52648e-32
-6.54065e-30
-2.74377e-28
-5.95826e-27
-3.70306e-26
-2.13661e-25
-4.19038e-25
-2.15584e-24
-2.20799e-24
-5.00989e-24
-1.93768e-24
-3.20942e-25
)
;
    }
    rightWall
    {
        type            calculated;
        value           nonuniform List<scalar> 
50
(
-24.3517
-73.4028
-122.338
-151.681
-140.586
-209.637
-256.331
-292.928
-335.893
-443.461
-587.675
-709.577
-839.453
-972.079
-1096.06
-1207.25
-1314.45
-1369.11
-1279.51
-1482.58
-2012.23
-2135.97
-2261.68
-2359.37
-1544.07
-44.512
-35.2228
-37.1237
-286.681
-1199.62
-1316.51
-1366.64
-1416.77
-1331.28
-1126.92
-1232.39
-1271.83
-730.109
-2.39476
-8.35812
-318.777
-516.072
-529.922
-535.571
-141.904
-0.0134606
-0.0137862
-0.00112436
-0.00115037
-0.170056
)
;
    }
    lowerWall
    {
        type            calculated;
        value           nonuniform List<scalar> 
62
(
0
0
0
0
0
0
0
0
0
0
0
0
0
0
0
0
0
0
0
0
0
0
0
-29.4232
-88.2627
-147.104
-205.946
-264.838
-323.723
-382.582
-441.44
-470.87
-468.576
-337.897
-138.906
-23.8425
-71.5275
-116.962
-123.197
-49.2611
-151.199
-207.579
-239.515
0
0
0
0
0
0
0
0
0
0
0
0
0
0
0
0
0
0
0
)
;
    }
    atmosphere
    {
        type            calculated;
        value           nonuniform List<scalar> 
46
(
-3.24487e-25
-1.70801e-22
-4.38269e-20
-7.05496e-18
-7.77639e-16
-6.02566e-14
-3.25105e-12
-1.20826e-10
-3.11839e-09
-5.62464e-08
-7.43842e-07
-8.46205e-06
-3.70417e-05
-3.34764e-05
-2.6222e-05
-1.13368e-05
-0
-0
-0
-0
-0
-0
-0
-0
-0
-0
-0
-0
-0
-0
-0
-0
-0
-0
-0
-0
-0.0166281
-0.0337066
-0.0027395
-5.03786e-06
-4.21069e-06
-1.88455e-06
-0.000743203
-0.00305919
-0.00247185
-0.171935
)
;
    }
    defaultFaces
    {
        type            empty;
    }
}


// ************************************************************************* //
