/*--------------------------------*- C++ -*----------------------------------*\
| =========                 |                                                 |
| \\      /  F ield         | OpenFOAM: The Open Source CFD Toolbox           |
|  \\    /   O peration     | Version:  2012                                  |
|   \\  /    A nd           | Website:  www.openfoam.com                      |
|    \\/     M anipulation  |                                                 |
\*---------------------------------------------------------------------------*/
FoamFile
{
    version     2.0;
    format      ascii;
    class       volVectorField;
    location    "0.66";
    object      Uc;
}
// * * * * * * * * * * * * * * * * * * * * * * * * * * * * * * * * * * * * * //

dimensions      [0 1 -1 0 0 0 0];


internalField   nonuniform List<vector> 
2268
(
(0.00133059 -0.000628827 0)
(0.0047409 -0.000982862 0)
(0.00795384 -0.00053555 0)
(0.00871328 0.000176642 0)
(0.00697223 0.000646162 0)
(0.00484996 0.000356809 0)
(0.00276957 0.000626364 0)
(-0.0019125 0.00158634 0)
(-0.00890142 0.00171656 0)
(-0.0165357 0.00189132 0)
(-0.0250351 0.00212546 0)
(-0.0340378 0.00212913 0)
(-0.0420467 0.00165582 0)
(-0.0477383 0.00103397 0)
(-0.0513089 0.000653446 0)
(-0.0535013 0.000382691 0)
(-0.0544389 6.03744e-05 0)
(-0.0531771 -0.00065671 0)
(-0.0492556 -0.00119655 0)
(-0.0419732 -0.0022451 0)
(-0.0315677 -0.00267246 0)
(-0.0164085 -0.0044917 0)
(-0.00345206 -0.00163149 0)
(0.00124372 -0.00184543 0)
(0.00456466 -0.0029474 0)
(0.00787836 -0.00165545 0)
(0.00893326 0.000439098 0)
(0.0074999 0.0018839 0)
(0.00543521 0.0010978 0)
(0.00318902 0.00193007 0)
(-0.00162954 0.00477255 0)
(-0.00845101 0.00505703 0)
(-0.0159433 0.00569952 0)
(-0.0247671 0.0065041 0)
(-0.0339501 0.00634487 0)
(-0.0419319 0.00499715 0)
(-0.0479373 0.00322052 0)
(-0.0518782 0.00201675 0)
(-0.0541624 0.00113503 0)
(-0.0549185 0.000108424 0)
(-0.0535206 -0.00196174 0)
(-0.0500339 -0.00339261 0)
(-0.0442094 -0.0062433 0)
(-0.0367646 -0.00711023 0)
(-0.0267452 -0.0119532 0)
(-0.0102306 -0.00809795 0)
(0.00123784 -0.00301819 0)
(0.0047138 -0.00498681 0)
(0.00836078 -0.00290562 0)
(0.00987795 0.000473714 0)
(0.00889849 0.00298956 0)
(0.00676512 0.00197611 0)
(0.00382426 0.00350311 0)
(-0.00168466 0.0080802 0)
(-0.00896901 0.00841569 0)
(-0.0168834 0.00962192 0)
(-0.0257856 0.0109589 0)
(-0.0346219 0.0104059 0)
(-0.0422294 0.00830347 0)
(-0.0482129 0.00558005 0)
(-0.0524321 0.0035136 0)
(-0.0549124 0.00188985 0)
(-0.0554944 -1.40265e-05 0)
(-0.0535707 -0.00340909 0)
(-0.0494458 -0.00554249 0)
(-0.0430344 -0.00987602 0)
(-0.0347466 -0.0109127 0)
(-0.0234789 -0.0182109 0)
(-0.00826091 -0.0168371 0)
(0.00131519 -0.00422473 0)
(0.00490024 -0.00711725 0)
(0.00857587 -0.00423578 0)
(0.0103789 0.000234783 0)
(0.0100309 0.00385584 0)
(0.00821345 0.00297693 0)
(0.00505499 0.00538478 0)
(-0.000399819 0.0113799 0)
(-0.00734333 0.01184 0)
(-0.0153054 0.0137007 0)
(-0.0246048 0.015482 0)
(-0.0342169 0.0146014 0)
(-0.0429736 0.0118416 0)
(-0.0500476 0.00821282 0)
(-0.0547224 0.00508405 0)
(-0.0569792 0.00255811 0)
(-0.057154 -0.000324612 0)
(-0.0552118 -0.00492559 0)
(-0.0513945 -0.00777942 0)
(-0.045248 -0.0135739 0)
(-0.0368015 -0.0151234 0)
(-0.025456 -0.0246872 0)
(-0.00935479 -0.0251623 0)
(0.00176357 -0.00567974 0)
(0.00573608 -0.0092339 0)
(0.00949385 -0.00563211 0)
(0.0118062 -0.000313791 0)
(0.0122327 0.00436733 0)
(0.0105481 0.00412048 0)
(0.00641925 0.00768515 0)
(-7.93911e-05 0.0147286 0)
(-0.0079086 0.0154727 0)
(-0.0168573 0.0180599 0)
(-0.0264938 0.0200718 0)
(-0.0357893 0.0189472 0)
(-0.0441383 0.0155798 0)
(-0.0508497 0.0109895 0)
(-0.0554476 0.00668954 0)
(-0.0581232 0.0032836 0)
(-0.0587357 -0.000677995 0)
(-0.0568862 -0.0063642 0)
(-0.0531857 -0.0098937 0)
(-0.0476776 -0.0169675 0)
(-0.0400957 -0.0193047 0)
(-0.0265585 -0.0322653 0)
(-0.0086349 -0.0336642 0)
(0.00242568 -0.00765954 0)
(0.00652946 -0.0110709 0)
(0.00967595 -0.00705802 0)
(0.0122043 -0.00117556 0)
(0.0135187 0.00440635 0)
(0.0125561 0.00533252 0)
(0.00858931 0.010299 0)
(0.0026887 0.0179745 0)
(-0.00437541 0.0192653 0)
(-0.0135885 0.0228505 0)
(-0.0244507 0.0249687 0)
(-0.0355156 0.0236724 0)
(-0.0459761 0.0197437 0)
(-0.0542818 0.0139225 0)
(-0.0591324 0.00822184 0)
(-0.0613215 0.00405027 0)
(-0.0614844 -0.00107821 0)
(-0.0594302 -0.00780885 0)
(-0.0555143 -0.0120486 0)
(-0.0500375 -0.020004 0)
(-0.0423041 -0.0235061 0)
(-0.0275538 -0.0414323 0)
(-0.00872255 -0.0418673 0)
(0.0032673 -0.01035 0)
(0.00816127 -0.0126327 0)
(0.0113518 -0.00849104 0)
(0.0144892 -0.0024201 0)
(0.0168916 0.00389433 0)
(0.0161665 0.00664215 0)
(0.0111817 0.0132198 0)
(0.00385485 0.0213049 0)
(-0.0051237 0.0235165 0)
(-0.0161218 0.0281508 0)
(-0.0274026 0.0301329 0)
(-0.03788 0.028689 0)
(-0.0475451 0.0242384 0)
(-0.055198 0.0169697 0)
(-0.0599566 0.00971583 0)
(-0.0630612 0.00505802 0)
(-0.0644346 -0.00135996 0)
(-0.0629658 -0.009192 0)
(-0.0593419 -0.0142288 0)
(-0.0553923 -0.0222787 0)
(-0.0502972 -0.0272941 0)
(-0.0328075 -0.0528808 0)
(-0.00934569 -0.0504062 0)
(0.00398285 -0.0137772 0)
(0.00975783 -0.0142492 0)
(0.0132054 -0.010013 0)
(0.0167642 -0.00406338 0)
(0.0199632 0.00289011 0)
(0.0198655 0.00803506 0)
(0.0156079 0.0161948 0)
(0.00925424 0.0247953 0)
(0.000403646 0.0284521 0)
(-0.0111951 0.0338944 0)
(-0.0238995 0.0357245 0)
(-0.0374595 0.0344573 0)
(-0.0507075 0.0292986 0)
(-0.0602209 0.0200222 0)
(-0.0646005 0.010982 0)
(-0.0667374 0.00626895 0)
(-0.0676632 -0.00148434 0)
(-0.0658145 -0.0106355 0)
(-0.0615103 -0.0165321 0)
(-0.0573891 -0.0237897 0)
(-0.0518493 -0.0308092 0)
(-0.0357347 -0.0652469 0)
(-0.0118421 -0.0604195 0)
(-0.608507 0.2582 0)
(-1.37687 0.0677192 0)
(-1.59766 0.0256174 0)
(-1.66017 0.00038245 0)
(-1.62895 -0.0142719 0)
(-1.51423 -0.0349446 0)
(-1.34326 -0.0380892 0)
(-1.22532 -0.0126607 0)
(-1.27122 0.0313501 0)
(-1.45031 0.0439436 0)
(-1.61598 0.0256849 0)
(-1.71635 0.0162841 0)
(-1.77351 0.00740456 0)
(-1.79179 -0.000222915 0)
(-1.76474 -0.0118346 0)
(-1.68342 -0.0232897 0)
(-1.51855 -0.0472586 0)
(-1.19071 -0.0923625 0)
(-0.486791 -0.207413 0)
(-0.459282 0.711348 0)
(-1.00422 0.171567 0)
(-1.11362 0.0610686 0)
(-1.12305 -0.00555204 0)
(-1.09001 -0.0367454 0)
(-1.00993 -0.0961164 0)
(-0.893155 -0.100087 0)
(-0.87857 -0.00831552 0)
(-1.02945 0.109061 0)
(-1.22605 0.124229 0)
(-1.36303 0.0722664 0)
(-1.44368 0.0449091 0)
(-1.49072 0.0214057 0)
(-1.50705 -0.00116906 0)
(-1.47691 -0.0368126 0)
(-1.39275 -0.0701647 0)
(-1.21539 -0.147048 0)
(-0.912562 -0.261404 0)
(-0.366298 -0.571 0)
(-0.339467 1.05075 0)
(-0.715444 0.222342 0)
(-0.805762 0.0929396 0)
(-0.822298 -0.028353 0)
(-0.723065 -0.0716597 0)
(-0.534057 -0.176529 0)
(-0.231361 -0.198808 0)
(-0.0715352 0.0149454 0)
(-0.245011 0.221058 0)
(-0.528912 0.212919 0)
(-0.812667 0.158658 0)
(-1.11541 0.117766 0)
(-1.35134 0.065068 0)
(-1.46275 0.00552872 0)
(-1.43731 -0.0711775 0)
(-1.33181 -0.120439 0)
(-1.14678 -0.25413 0)
(-0.799972 -0.43274 0)
(-0.289428 -0.850717 0)
(-0.0203282 1.20357 0)
(-0.161535 0.287333 0)
(-0.623602 0.259003 0)
(-1.02452 -0.0204174 0)
(-0.902438 -0.17669 0)
(-0.489505 -0.329713 0)
(-0.0721468 -0.352952 0)
(0.297263 -0.0567406 0)
(0.654015 0.212618 0)
(0.893461 0.236546 0)
(0.891456 0.252029 0)
(0.677017 0.239298 0)
(0.289966 0.203128 0)
(-0.21727 0.125068 0)
(-0.701274 -0.00143453 0)
(-1.19127 -0.0324638 0)
(-1.24012 -0.405206 0)
(-0.772022 -0.632151 0)
(-0.263904 -1.08741 0)
(0.0527757 1.18867 0)
(-0.125108 0.434758 0)
(-0.403514 0.422477 0)
(-0.551209 0.0456634 0)
(-0.476913 -0.329918 0)
(-0.0613721 -0.532221 0)
(0.247048 -0.461078 0)
(0.4324 -0.184976 0)
(0.707459 0.0718249 0)
(0.992495 0.15323 0)
(1.1926 0.249092 0)
(1.31394 0.278709 0)
(1.39564 0.289348 0)
(1.39013 0.251867 0)
(1.12413 0.185216 0)
(0.526103 0.23813 0)
(-0.0620957 -0.410369 0)
(-0.370576 -0.700001 0)
(-0.230325 -1.29979 0)
(0.026972 1.15269 0)
(-0.258106 0.663569 0)
(-0.258806 0.308672 0)
(0.173356 0.0350601 0)
(0.26013 -0.391209 0)
(0.306934 -0.670551 0)
(0.433052 -0.509195 0)
(0.587008 -0.281505 0)
(0.816773 -0.0464002 0)
(1.02901 0.05986 0)
(1.17451 0.19516 0)
(1.27067 0.239312 0)
(1.35053 0.258312 0)
(1.41959 0.253032 0)
(1.46101 0.275635 0)
(1.5348 0.365932 0)
(1.1276 -0.120458 0)
(0.190025 -0.465659 0)
(-0.13848 -1.45855 0)
(0.0137394 1.1335 0)
(-0.298902 0.933142 0)
(-0.427923 0.0906314 0)
(0.123599 -0.168748 0)
(0.536702 -0.403418 0)
(0.549207 -0.686012 0)
(0.533616 -0.541655 0)
(0.643822 -0.3615 0)
(0.821117 -0.139578 0)
(1.00173 -0.0141738 0)
(1.13477 0.150525 0)
(1.22238 0.205614 0)
(1.29476 0.227046 0)
(1.36782 0.223326 0)
(1.42249 0.263175 0)
(1.44978 0.332875 0)
(1.10921 0.226128 0)
(0.365807 -0.102625 0)
(-0.0132502 -1.52406 0)
(0.00850166 1.12273 0)
(0.0913563 1.0384 0)
(0.258422 -0.0346485 0)
(0.441507 -0.359504 0)
(0.549838 -0.437684 0)
(0.550258 -0.659319 0)
(0.568439 -0.569988 0)
(0.677995 -0.426675 0)
(0.831827 -0.21561 0)
(0.977302 -0.0780062 0)
(1.08676 0.109466 0)
(1.16888 0.172653 0)
(1.24785 0.193872 0)
(1.33321 0.187449 0)
(1.39309 0.248958 0)
(1.40764 0.327821 0)
(1.12668 0.492167 0)
(0.476218 0.219071 0)
(0.0529635 -1.50864 0)
(0.00510498 -0.0208286 0)
(0.0127704 -0.017704 0)
(0.0179353 -0.013443 0)
(0.0229194 -0.00737287 0)
(0.0266749 0.000872967 0)
(0.0274446 0.00928675 0)
(0.0252611 0.0191237 0)
(0.020093 0.0300463 0)
(0.00978791 0.0377302 0)
(-0.00503771 0.0449943 0)
(-0.0219901 0.0476681 0)
(-0.038867 0.0458871 0)
(-0.0523712 0.0377044 0)
(-0.0606481 0.0244324 0)
(-0.0646383 0.0126526 0)
(-0.068511 0.00950118 0)
(-0.072233 -0.00053755 0)
(-0.0706526 -0.0140447 0)
(-0.0640047 -0.0218397 0)
(-0.0601268 -0.0243279 0)
(-0.059273 -0.0337473 0)
(-0.0727297 -0.0563977 0)
(-0.102132 -0.0510045 0)
(-0.0366443 0.0108185 0)
(-0.10779 0.0143504 0)
(-0.182016 0.0238233 0)
(-0.250614 0.019222 0)
(-0.253756 -0.0263866 0)
(-0.178343 -0.040053 0)
(-0.100821 -0.00726437 0)
(-0.0586207 0.0192493 0)
(-0.0391517 0.0393983 0)
(-0.0346716 0.0538364 0)
(-0.0380573 0.0593638 0)
(-0.0428089 0.055969 0)
(-0.046011 0.0444134 0)
(-0.050753 0.0308028 0)
(-0.0598852 0.019471 0)
(-0.0721293 0.0188837 0)
(-0.0813617 0.00310193 0)
(-0.0815362 -0.0190974 0)
(-0.0768006 -0.02823 0)
(-0.0768307 -0.0218056 0)
(-0.0837542 -0.0301684 0)
(-0.109317 -0.0207531 0)
(-0.160395 -0.00574945 0)
(-0.00999962 0.0576651 0)
(-0.0293363 0.0583769 0)
(-0.0482012 0.0732936 0)
(-0.064569 0.0550816 0)
(-0.0803039 -0.0433207 0)
(-0.102045 -0.0770935 0)
(-0.132366 -0.0176835 0)
(-0.154999 0.0100223 0)
(-0.151702 0.0258196 0)
(-0.147537 0.0588656 0)
(-0.158522 0.0689822 0)
(-0.16372 0.0565986 0)
(-0.157581 0.0410763 0)
(-0.142861 0.0243053 0)
(-0.117901 0.0101512 0)
(-0.0884684 0.0109265 0)
(-0.0611835 -0.00711056 0)
(-0.0448098 -0.0251867 0)
(-0.0428074 -0.0289217 0)
(-0.0474734 -0.0163956 0)
(-0.0507845 -0.0252917 0)
(-0.0532726 0.00256719 0)
(-0.0541256 0.0231317 0)
(0.00413098 0.0635239 0)
(0.0122359 0.0637274 0)
(0.0287779 0.0701967 0)
(0.0502959 0.0529195 0)
(0.0278236 -0.00283381 0)
(-0.052584 -0.0149809 0)
(-0.133788 0.0322269 0)
(-0.189769 0.0390591 0)
(-0.232682 0.0365465 0)
(-0.266605 0.0780348 0)
(-0.301313 0.0958149 0)
(-0.340168 0.0742452 0)
(-0.361142 0.0386129 0)
(-0.345975 -0.00299923 0)
(-0.305236 -0.0283733 0)
(-0.272955 -0.0124913 0)
(-0.24684 -0.0373859 0)
(-0.189239 -0.0693667 0)
(-0.111837 -0.0647269 0)
(-0.050584 -0.0376533 0)
(-0.011007 -0.0406487 0)
(0.00757411 0.0016437 0)
(0.00398529 0.028484 0)
(-0.0121601 0.071555 0)
(-0.0355909 0.0710222 0)
(-0.0584191 0.0691408 0)
(-0.0829795 0.056953 0)
(-0.107937 0.0407289 0)
(-0.129097 0.0434721 0)
(-0.143246 0.0695413 0)
(-0.162871 0.0776607 0)
(-0.20216 0.08049 0)
(-0.241674 0.107828 0)
(-0.276265 0.135601 0)
(-0.336071 0.133575 0)
(-0.417203 0.0819017 0)
(-0.504316 0.026058 0)
(-0.607562 0.00547057 0)
(-0.708202 0.0224251 0)
(-0.754014 -0.0525465 0)
(-0.726106 -0.140295 0)
(-0.628987 -0.169449 0)
(-0.482992 -0.139983 0)
(-0.339274 -0.12121 0)
(-0.213159 -0.0633067 0)
(-0.0941284 -0.0225951 0)
(-0.00253584 0.086288 0)
(-0.00825374 0.0855106 0)
(-0.0157132 0.0850185 0)
(-0.0284512 0.0784882 0)
(-0.054642 0.0705279 0)
(-0.0939496 0.0743747 0)
(-0.132659 0.0916896 0)
(-0.162568 0.105221 0)
(-0.184733 0.114617 0)
(-0.203323 0.132021 0)
(-0.217548 0.160388 0)
(-0.235888 0.18725 0)
(-0.277907 0.151932 0)
(-0.358256 0.124265 0)
(-0.485775 0.13913 0)
(-0.632868 0.137692 0)
(-0.791459 0.0375462 0)
(-1.00697 -0.0419269 0)
(-1.26838 -0.102781 0)
(-1.52198 -0.0970905 0)
(-1.73895 -0.0890031 0)
(-1.80571 -0.155184 0)
(-1.60837 -0.248632 0)
(-0.0101 0.0989503 0)
(-0.0303345 0.098857 0)
(-0.0504078 0.0992693 0)
(-0.0708274 0.0974882 0)
(-0.0914507 0.0985056 0)
(-0.111122 0.105602 0)
(-0.129411 0.117675 0)
(-0.148927 0.128835 0)
(-0.173518 0.137917 0)
(-0.201716 0.155667 0)
(-0.226607 0.175972 0)
(-0.244987 0.208486 0)
(-0.268724 0.196702 0)
(-0.311494 0.203158 0)
(-0.376698 0.253864 0)
(-0.479922 0.274479 0)
(-0.668062 0.24919 0)
(-0.991383 0.287955 0)
(-1.45363 0.294667 0)
(-1.97508 0.284451 0)
(-2.42597 0.200688 0)
(-2.66351 -0.139116 0)
(-2.61042 -0.516221 0)
(-0.00506247 0.114153 0)
(-0.0156547 0.114564 0)
(-0.0275839 0.115653 0)
(-0.0421169 0.11616 0)
(-0.0606296 0.119094 0)
(-0.0823386 0.126529 0)
(-0.104392 0.137219 0)
(-0.125636 0.150181 0)
(-0.146366 0.162043 0)
(-0.168124 0.181672 0)
(-0.19112 0.198015 0)
(-0.213855 0.227682 0)
(-0.245961 0.233547 0)
(-0.292885 0.256379 0)
(-0.343072 0.316535 0)
(-0.40029 0.372985 0)
(-0.487216 0.427079 0)
(-0.62944 0.577929 0)
(-0.850739 0.6917 0)
(-1.13646 0.698713 0)
(-1.41527 0.519813 0)
(-1.61602 -0.0178168 0)
(-1.70417 -0.602194 0)
(-0.00796888 0.127213 0)
(-0.023825 0.128012 0)
(-0.039477 0.129852 0)
(-0.0552103 0.132306 0)
(-0.0710883 0.137439 0)
(-0.0867076 0.145627 0)
(-0.102007 0.155587 0)
(-0.117945 0.169107 0)
(-0.135508 0.181526 0)
(-0.154867 0.203435 0)
(-0.176316 0.220841 0)
(-0.198562 0.24998 0)
(-0.224599 0.269602 0)
(-0.258188 0.301161 0)
(-0.292731 0.356826 0)
(-0.328848 0.426416 0)
(-0.370887 0.503182 0)
(-0.401443 0.6754 0)
(-0.427768 0.843038 0)
(-0.504952 0.912079 0)
(-0.681038 0.763607 0)
(-0.959245 0.219715 0)
(-1.23813 -0.470922 0)
(-0.00504311 0.140254 0)
(-0.0153452 0.141188 0)
(-0.0264449 0.14349 0)
(-0.0387506 0.146776 0)
(-0.0522559 0.152427 0)
(-0.0666936 0.160773 0)
(-0.0813394 0.170462 0)
(-0.0961412 0.18505 0)
(-0.111209 0.198301 0)
(-0.126562 0.221467 0)
(-0.143386 0.241195 0)
(-0.161988 0.270598 0)
(-0.183482 0.296673 0)
(-0.209736 0.334151 0)
(-0.236531 0.385399 0)
(-0.260679 0.458323 0)
(-0.283044 0.535914 0)
(-0.28722 0.677478 0)
(-0.259299 0.839251 0)
(-0.234522 0.968442 0)
(-0.30118 0.951151 0)
(-0.571567 0.583512 0)
(-0.968298 -0.155716 0)
(-0.00593115 0.151248 0)
(-0.0177869 0.152391 0)
(-0.029606 0.155248 0)
(-0.0413887 0.159154 0)
(-0.0529757 0.165194 0)
(-0.0643266 0.173851 0)
(-0.0754198 0.183178 0)
(-0.0864587 0.198229 0)
(-0.0977004 0.211487 0)
(-0.108699 0.234687 0)
(-0.119739 0.255899 0)
(-0.131336 0.286162 0)
(-0.144197 0.315554 0)
(-0.158765 0.356213 0)
(-0.172579 0.404064 0)
(-0.182318 0.473624 0)
(-0.186722 0.547421 0)
(-0.177906 0.661205 0)
(-0.141962 0.791221 0)
(-0.089513 0.938736 0)
(-0.0738288 1.03199 0)
(-0.213572 0.914833 0)
(-0.592894 0.292938 0)
(-0.00420952 0.161404 0)
(-0.0127061 0.162618 0)
(-0.0213626 0.165528 0)
(-0.0302331 0.169559 0)
(-0.0392488 0.175422 0)
(-0.0484192 0.184173 0)
(-0.0574327 0.192988 0)
(-0.0661415 0.208189 0)
(-0.0745594 0.221207 0)
(-0.0820766 0.243496 0)
(-0.0884752 0.264534 0)
(-0.0938655 0.294515 0)
(-0.0985948 0.324794 0)
(-0.102969 0.365923 0)
(-0.105842 0.411036 0)
(-0.104019 0.474514 0)
(-0.0945463 0.541337 0)
(-0.0728978 0.636566 0)
(-0.0302982 0.736803 0)
(0.0407354 0.868921 0)
(0.13035 0.995848 0)
(0.157175 1.06437 0)
(-0.0711578 0.754107 0)
(-0.0041139 0.169733 0)
(-0.0122688 0.170952 0)
(-0.0202433 0.173836 0)
(-0.0280559 0.177945 0)
(-0.0355331 0.183539 0)
(-0.0426394 0.192341 0)
(-0.0492321 0.20043 0)
(-0.0551239 0.215345 0)
(-0.0603331 0.227669 0)
(-0.064457 0.248654 0)
(-0.0671205 0.268402 0)
(-0.0679912 0.296855 0)
(-0.0665943 0.325716 0)
(-0.0623785 0.365071 0)
(-0.0541512 0.406415 0)
(-0.0398864 0.462869 0)
(-0.0175178 0.520877 0)
(0.0167428 0.600726 0)
(0.0664468 0.679757 0)
(0.140204 0.780317 0)
(0.2474 0.886508 0)
(0.384627 1.00869 0)
(0.456905 0.966541 0)
(-0.00294625 0.176793 0)
(-0.00879207 0.177892 0)
(-0.0145137 0.18059 0)
(-0.020111 0.184597 0)
(-0.0253675 0.189613 0)
(-0.0302204 0.198214 0)
(-0.0344024 0.205312 0)
(-0.037648 0.219571 0)
(-0.0398126 0.230777 0)
(-0.0404261 0.250228 0)
(-0.0391272 0.268118 0)
(-0.0354589 0.294244 0)
(-0.0287706 0.320115 0)
(-0.0183484 0.35587 0)
(-0.00312748 0.391955 0)
(0.0185102 0.441147 0)
(0.0486478 0.489725 0)
(0.0910273 0.554741 0)
(0.149123 0.617281 0)
(0.227604 0.689659 0)
(0.334614 0.761737 0)
(0.484106 0.84514 0)
(0.664202 0.876293 0)
(-0.00257144 0.182304 0)
(-0.00764367 0.183285 0)
(-0.0125459 0.185805 0)
(-0.0172245 0.189639 0)
(-0.0213737 0.193952 0)
(-0.0248758 0.202199 0)
(-0.0274524 0.208045 0)
(-0.0288378 0.221416 0)
(-0.0287209 0.230912 0)
(-0.0267619 0.248661 0)
(-0.022522 0.264037 0)
(-0.0154171 0.287413 0)
(-0.00480477 0.309471 0)
(0.0103202 0.340748 0)
(0.0308711 0.371031 0)
(0.0584523 0.412506 0)
(0.0943296 0.451915 0)
(0.141024 0.502918 0)
(0.200681 0.550641 0)
(0.275694 0.601904 0)
(0.369649 0.647375 0)
(0.48782 0.690337 0)
(0.63079 0.706236 0)
(-0.00172147 0.186584 0)
(-0.00507052 0.187399 0)
(-0.00819143 0.189684 0)
(-0.0110135 0.193228 0)
(-0.0132451 0.196705 0)
(-0.0147661 0.204422 0)
(-0.0152695 0.208844 0)
(-0.0144626 0.221124 0)
(-0.0119022 0.228437 0)
(-0.00723317 0.244396 0)
(-1.09252e-05 0.256701 0)
(0.0103457 0.277116 0)
(0.0243099 0.294981 0)
(0.0428357 0.321328 0)
(0.0666107 0.345809 0)
(0.0972424 0.379124 0)
(0.135824 0.410359 0)
(0.184094 0.448921 0)
(0.243622 0.484738 0)
(0.315073 0.520481 0)
(0.398792 0.550095 0)
(0.495235 0.57178 0)
(0.600589 0.575066 0)
(-0.00139639 0.189683 0)
(-0.00408951 0.190304 0)
(-0.00653801 0.192308 0)
(-0.00866399 0.195508 0)
(-0.0101744 0.198116 0)
(-0.0108234 0.205121 0)
(-0.010261 0.208014 0)
(-0.00819426 0.218993 0)
(-0.004168 0.223873 0)
(0.00217228 0.237818 0)
(0.0114393 0.246627 0)
(0.0242379 0.263835 0)
(0.0409963 0.277299 0)
(0.0625611 0.298628 0)
(0.0894226 0.317523 0)
(0.122814 0.342966 0)
(0.163315 0.366935 0)
(0.212091 0.394703 0)
(0.270024 0.42079 0)
(0.337015 0.445169 0)
(0.412811 0.464961 0)
(0.496391 0.475851 0)
(0.58303 0.477896 0)
(-0.000872845 0.19193 0)
(-0.00249042 0.192322 0)
(-0.00381171 0.194011 0)
(-0.00469572 0.196762 0)
(-0.00486924 0.198486 0)
(-0.00402619 0.204487 0)
(-0.00189234 0.205867 0)
(0.00180821 0.21527 0)
(0.00753295 0.217721 0)
(0.0156115 0.229402 0)
(0.0265903 0.234617 0)
(0.0410103 0.248409 0)
(0.0594575 0.257258 0)
(0.0826527 0.273596 0)
(0.111073 0.286903 0)
(0.145737 0.305091 0)
(0.187027 0.322506 0)
(0.235594 0.341192 0)
(0.291532 0.359746 0)
(0.354465 0.37552 0)
(0.423074 0.389357 0)
(0.496269 0.393764 0)
(0.568837 0.399845 0)
(-0.00081272 0.193591 0)
(-0.00232362 0.193739 0)
(-0.00349973 0.195038 0)
(-0.00412761 0.197188 0)
(-0.00396128 0.197999 0)
(-0.0026145 0.202704 0)
(0.000104137 0.202704 0)
(0.00452704 0.210198 0)
(0.0111319 0.210329 0)
(0.0202832 0.219403 0)
(0.0325672 0.221158 0)
(0.0484139 0.231368 0)
(0.0684329 0.235555 0)
(0.0931171 0.247091 0)
(0.122999 0.254722 0)
(0.158774 0.266386 0)
(0.200732 0.277447 0)
(0.24927 0.288554 0)
(0.30429 0.30076 0)
(0.365455 0.309671 0)
(0.431611 0.319646 0)
(0.501434 0.319616 0)
(0.572082 0.329934 0)
(-0.000887052 0.195268 0)
(-0.00260165 0.195241 0)
(-0.00391748 0.195977 0)
(-0.0045014 0.197403 0)
(-0.0041926 0.197242 0)
(-0.00251007 0.20035 0)
(0.000749944 0.198981 0)
(0.00605893 0.204071 0)
(0.0138049 0.201962 0)
(0.0242243 0.208028 0)
(0.0378008 0.206468 0)
(0.0549399 0.212828 0)
(0.07626 0.212467 0)
(0.102038 0.219379 0)
(0.132992 0.221203 0)
(0.169488 0.227178 0)
(0.211648 0.232017 0)
(0.25977 0.236737 0)
(0.313423 0.243253 0)
(0.372297 0.246425 0)
(0.435105 0.253166 0)
(0.500507 0.250075 0)
(0.566639 0.261889 0)
(-0.00123243 0.197367 0)
(-0.0037181 0.197301 0)
(-0.00576557 0.197234 0)
(-0.00694393 0.197853 0)
(-0.00717402 0.196649 0)
(-0.00594105 0.197949 0)
(-0.00300263 0.195087 0)
(0.00213278 0.197401 0)
(0.00980079 0.193071 0)
(0.0202923 0.19583 0)
(0.034073 0.191096 0)
(0.0515446 0.193338 0)
(0.0733389 0.188546 0)
(0.0997752 0.19074 0)
(0.131615 0.186646 0)
(0.168944 0.187448 0)
(0.212057 0.185951 0)
(0.261185 0.184965 0)
(0.315799 0.186111 0)
(0.375624 0.184165 0)
(0.439677 0.187816 0)
(0.50669 0.18223 0)
(0.575391 0.194108 0)
(-0.00215088 0.200738 0)
(-0.00648175 0.200722 0)
(-0.0103181 0.199667 0)
(-0.0131683 0.199409 0)
(-0.0148919 0.196995 0)
(-0.0148954 0.196304 0)
(-0.0129576 0.191767 0)
(-0.00858831 0.191102 0)
(-0.0013957 0.184367 0)
(0.0090619 0.183411 0)
(0.0233841 0.1752 0)
(0.0418441 0.173048 0)
(0.064774 0.16381 0)
(0.0925413 0.16092 0)
(0.125778 0.150979 0)
(0.16441 0.146683 0)
(0.208867 0.138614 0)
(0.259171 0.132274 0)
(0.31477 0.127936 0)
(0.375545 0.12103 0)
(0.440574 0.121112 0)
(0.508454 0.113254 0)
(0.578071 0.123958 0)
(-0.00307505 0.205962 0)
(-0.00919495 0.205945 0)
(-0.0148013 0.203878 0)
(-0.0194844 0.202712 0)
(-0.0230493 0.198949 0)
(-0.0249595 0.196214 0)
(-0.0249889 0.189878 0)
(-0.0225887 0.186125 0)
(-0.0173604 0.176796 0)
(-0.00888945 0.171891 0)
(0.00343411 0.159871 0)
(0.0200551 0.153048 0)
(0.0415075 0.139129 0)
(0.0683364 0.130651 0)
(0.10111 0.114824 0)
(0.139946 0.104895 0)
(0.185489 0.0898597 0)
(0.237602 0.0780032 0)
(0.296044 0.0674949 0)
(0.360844 0.0551636 0)
(0.430905 0.0511041 0)
(0.504663 0.0408041 0)
(0.581054 0.0495546 0)
(-0.00457504 0.213624 0)
(-0.0136167 0.213467 0)
(-0.0221897 0.210552 0)
(-0.0299515 0.208491 0)
(-0.0366017 0.203382 0)
(-0.0416709 0.19874 0)
(-0.0448272 0.190497 0)
(-0.0454241 0.183635 0)
(-0.0429511 0.171486 0)
(-0.0367802 0.162423 0)
(-0.0262933 0.146348 0)
(-0.0109981 0.134425 0)
(0.00975145 0.115266 0)
(0.0365161 0.100576 0)
(0.0697499 0.0784804 0)
(0.109705 0.0619685 0)
(0.1569 0.0394942 0)
(0.211053 0.0214768 0)
(0.272399 0.00353492 0)
(0.341058 -0.0151059 0)
(0.415832 -0.024293 0)
(0.495403 -0.0380062 0)
(0.578977 -0.0325143 0)
(-0.00597772 0.224205 0)
(-0.0177769 0.223782 0)
(-0.0291806 0.220264 0)
(-0.0398844 0.217286 0)
(-0.0495061 0.210888 0)
(-0.0576468 0.204457 0)
(-0.0639563 0.194239 0)
(-0.0678992 0.1844 0)
(-0.0690693 0.169354 0)
(-0.0668542 0.156067 0)
(-0.0606579 0.135875 0)
(-0.0499046 0.118654 0)
(-0.0338796 0.0940096 0)
(-0.0118298 0.0727006 0)
(0.0170731 0.0438311 0)
(0.0536107 0.0196608 0)
(0.0986615 -0.0109922 0)
(0.152428 -0.0365875 0)
(0.215627 -0.0636658 0)
(0.287957 -0.0897011 0)
(0.36805 -0.105445 0)
(0.455423 -0.124743 0)
(0.549535 -0.124466 0)
(-0.00757788 0.237805 0)
(-0.0225977 0.237089 0)
(-0.03735 0.233198 0)
(-0.0515874 0.229372 0)
(-0.0649558 0.221861 0)
(-0.0771176 0.213841 0)
(-0.0876795 0.201762 0)
(-0.0960803 0.189232 0)
(-0.101805 0.171398 0)
(-0.104073 0.154021 0)
(-0.102089 0.129642 0)
(-0.0949232 0.106816 0)
(-0.0816755 0.0763633 0)
(-0.0617002 0.0480431 0)
(-0.034507 0.0120389 0)
(0.000499106 -0.0205262 0)
(0.0442178 -0.0601014 0)
(0.0973246 -0.0949738 0)
(0.160915 -0.132797 0)
(0.234762 -0.167578 0)
(0.318527 -0.192352 0)
(0.412775 -0.220476 0)
(0.516552 -0.227727 0)
(-0.00916257 0.254609 0)
(-0.0273762 0.253644 0)
(-0.0453768 0.249519 0)
(-0.0629247 0.244954 0)
(-0.0796833 0.236514 0)
(-0.0953493 0.227111 0)
(-0.109554 0.213337 0)
(-0.121806 0.198366 0)
(-0.131637 0.177849 0)
(-0.138411 0.156608 0)
(-0.141572 0.128185 0)
(-0.140381 0.0998189 0)
(-0.133959 0.0635327 0)
(-0.121248 0.0279608 0)
(-0.101194 -0.015431 0)
(-0.0725033 -0.057144 0)
(-0.033784 -0.106412 0)
(0.0159435 -0.152096 0)
(0.0779109 -0.201951 0)
(0.151987 -0.247185 0)
(0.238767 -0.284247 0)
(0.339424 -0.324571 0)
(0.4523 -0.341486 0)
(-0.010665 0.274517 0)
(-0.031935 0.273379 0)
(-0.0531284 0.269136 0)
(-0.0740997 0.26401 0)
(-0.0946062 0.25487 0)
(-0.1144 0.244352 0)
(-0.133124 0.229149 0)
(-0.150306 0.212094 0)
(-0.165446 0.189172 0)
(-0.177835 0.164499 0)
(-0.186738 0.13237 0)
(-0.191204 0.0988757 0)
(-0.19022 0.0569779 0)
(-0.182489 0.0139147 0)
(-0.16665 -0.0375204 0)
(-0.14144 -0.0892916 0)
(-0.10595 -0.148918 0)
(-0.0589839 -0.206847 0)
(0.00112175 -0.26997 0)
(0.0750428 -0.327997 0)
(0.164116 -0.380269 0)
(0.268852 -0.435079 0)
(0.387617 -0.463894 0)
(-0.0122772 0.297557 0)
(-0.0368 0.296327 0)
(-0.0612911 0.292067 0)
(-0.0856344 0.286586 0)
(-0.10961 0.276965 0)
(-0.133 0.265622 0)
(-0.155487 0.249261 0)
(-0.176687 0.230519 0)
(-0.196169 0.205503 0)
(-0.213302 0.177798 0)
(-0.227494 0.142239 0)
(-0.237986 0.103995 0)
(-0.244032 0.0568972 0)
(-0.244605 0.00675073 0)
(-0.238463 -0.0525029 0)
(-0.223926 -0.114315 0)
(-0.199039 -0.184641 0)
(-0.161863 -0.255761 0)
(-0.111436 -0.332223 0)
(-0.0471248 -0.404756 0)
(0.0341311 -0.474787 0)
(0.135089 -0.547389 0)
(0.256481 -0.593052 0)
(-0.0135184 0.323467 0)
(-0.0405896 0.32224 0)
(-0.0678017 0.318087 0)
(-0.0951652 0.312502 0)
(-0.122597 0.302683 0)
(-0.149995 0.290915 0)
(-0.177147 0.273824 0)
(-0.203749 0.253966 0)
(-0.229395 0.227376 0)
(-0.253494 0.197329 0)
(-0.2754 0.15895 0)
(-0.294152 0.116636 0)
(-0.308669 0.0648816 0)
(-0.317688 0.00836222 0)
(-0.319757 -0.058256 0)
(-0.313157 -0.129858 0)
(-0.297018 -0.210389 0)
(-0.272082 -0.2925 0)
(-0.240436 -0.378037 0)
(-0.19813 -0.466168 0)
(-0.133492 -0.56008 0)
(-0.0403925 -0.657217 0)
(0.0821442 -0.728479 0)
(-0.0150409 0.352157 0)
(-0.0451952 0.351036 0)
(-0.0755731 0.347143 0)
(-0.106246 0.341748 0)
(-0.137205 0.332095 0)
(-0.168424 0.320389 0)
(-0.199745 0.303089 0)
(-0.230946 0.282768 0)
(-0.261718 0.255246 0)
(-0.291599 0.22368 0)
(-0.320085 0.183213 0)
(-0.346511 0.137745 0)
(-0.370359 0.0822965 0)
(-0.391091 0.0208107 0)
(-0.408226 -0.0514445 0)
(-0.422148 -0.129354 0)
(-0.434157 -0.215091 0)
(-0.445052 -0.301959 0)
(-0.445928 -0.399553 0)
(-0.415566 -0.517742 0)
(-0.342627 -0.646848 0)
(-0.235785 -0.771488 0)
(-0.103378 -0.870538 0)
(-0.0160058 0.383349 0)
(-0.048143 0.382427 0)
(-0.0806642 0.378946 0)
(-0.113791 0.374044 0)
(-0.147678 0.364948 0)
(-0.182483 0.35387 0)
(-0.218267 0.337028 0)
(-0.255057 0.317139 0)
(-0.292796 0.289708 0)
(-0.33123 0.257854 0)
(-0.370051 0.216661 0)
(-0.408784 0.169758 0)
(-0.446755 0.112388 0)
(-0.48316 0.0481143 0)
(-0.518002 -0.0265403 0)
(-0.553737 -0.104383 0)
(-0.594711 -0.186844 0)
(-0.631972 -0.281837 0)
(-0.633398 -0.417401 0)
(-0.578464 -0.585682 0)
(-0.481978 -0.749268 0)
(-0.364747 -0.894366 0)
(-0.233585 -1.01266 0)
(-0.017188 0.4167 0)
(-0.0517621 0.416104 0)
(-0.0869301 0.41328 0)
(-0.12309 0.409327 0)
(-0.160597 0.401399 0)
(-0.199736 0.391717 0)
(-0.24067 0.376268 0)
(-0.283447 0.357849 0)
(-0.328012 0.331698 0)
(-0.374203 0.300898 0)
(-0.421944 0.260598 0)
(-0.471132 0.214167 0)
(-0.52225 0.157499 0)
(-0.577062 0.0946597 0)
(-0.640377 0.025547 0)
(-0.715481 -0.045087 0)
(-0.787304 -0.132787 0)
(-0.813993 -0.271644 0)
(-0.771617 -0.468802 0)
(-0.687611 -0.673998 0)
(-0.593356 -0.85274 0)
(-0.493362 -1.0093 0)
(-0.382291 -1.14127 0)
(-0.0179384 0.451996 0)
(-0.0540566 0.451842 0)
(-0.0908998 0.449902 0)
(-0.128933 0.447258 0)
(-0.168566 0.440983 0)
(-0.210202 0.433302 0)
(-0.254259 0.420089 0)
(-0.301218 0.404204 0)
(-0.351661 0.380819 0)
(-0.406176 0.352978 0)
(-0.465278 0.315888 0)
(-0.529312 0.272659 0)
(-0.599487 0.220901 0)
(-0.677712 0.164958 0)
(-0.765123 0.10673 0)
(-0.854913 0.0394588 0)
(-0.914302 -0.0854638 0)
(-0.904911 -0.301616 0)
(-0.843558 -0.543149 0)
(-0.773142 -0.754923 0)
(-0.699977 -0.940148 0)
(-0.614686 -1.10819 0)
(-0.512614 -1.25668 0)
(-0.0181705 0.488281 0)
(-0.0548699 0.48873 0)
(-0.0926679 0.48802 0)
(-0.132368 0.487254 0)
(-0.174798 0.483455 0)
(-0.220753 0.478853 0)
(-0.270926 0.469236 0)
(-0.325879 0.457475 0)
(-0.386026 0.438691 0)
(-0.451625 0.41582 0)
(-0.523029 0.384208 0)
(-0.601325 0.347387 0)
(-0.689201 0.305022 0)
(-0.790091 0.260861 0)
(-0.901485 0.210649 0)
(-0.99368 0.118455 0)
(-1.01738 -0.0809729 0)
(-0.976742 -0.356434 0)
(-0.922456 -0.604618 0)
(-0.867567 -0.819449 0)
(-0.799997 -1.01712 0)
(-0.71779 -1.19962 0)
(-0.621131 -1.36505 0)
(-0.0189774 0.525613 0)
(-0.0573278 0.526819 0)
(-0.0968862 0.52767 0)
(-0.138382 0.529202 0)
(-0.182427 0.528413 0)
(-0.229653 0.527541 0)
(-0.280759 0.522334 0)
(-0.336501 0.515628 0)
(-0.397746 0.502543 0)
(-0.465612 0.486108 0)
(-0.54202 0.462481 0)
(-0.629562 0.435795 0)
(-0.731052 0.406946 0)
(-0.846477 0.376362 0)
(-0.964257 0.325507 0)
(-1.04326 0.175672 0)
(-1.05022 -0.107411 0)
(-1.01602 -0.405262 0)
(-0.974866 -0.651759 0)
(-0.92205 -0.8806 0)
(-0.855421 -1.0909 0)
(-0.778269 -1.28607 0)
(-0.690209 -1.46433 0)
(-0.017326 0.562097 0)
(-0.0524639 0.564189 0)
(-0.0891655 0.566941 0)
(-0.128722 0.57139 0)
(-0.172428 0.574418 0)
(-0.221506 0.578325 0)
(-0.277188 0.578879 0)
(-0.340794 0.579036 0)
(-0.413703 0.573971 0)
(-0.497498 0.567116 0)
(-0.593385 0.554648 0)
(-0.70202 0.54081 0)
(-0.82315 0.525695 0)
(-0.951049 0.502197 0)
(-1.06023 0.427804 0)
(-1.10619 0.198974 0)
(-1.08985 -0.140174 0)
(-1.05525 -0.441698 0)
(-1.01432 -0.697866 0)
(-0.961881 -0.940313 0)
(-0.900893 -1.1595 0)
(-0.831697 -1.36462 0)
(-0.752953 -1.55349 0)
(-0.0182719 0.597873 0)
(-0.0553889 0.60103 0)
(-0.0940586 0.60585 0)
(-0.135113 0.613497 0)
(-0.179734 0.621084 0)
(-0.22947 0.630975 0)
(-0.28585 0.638862 0)
(-0.350222 0.647684 0)
(-0.423612 0.652372 0)
(-0.507292 0.65705 0)
(-0.603347 0.657643 0)
(-0.715092 0.659333 0)
(-0.842493 0.656992 0)
(-0.973453 0.63111 0)
(-1.07372 0.509422 0)
(-1.10619 0.196175 0)
(-1.08828 -0.171836 0)
(-1.05717 -0.476116 0)
(-1.01638 -0.745621 0)
(-0.966767 -0.995155 0)
(-0.910972 -1.22208 0)
(-0.84831 -1.43462 0)
(-0.778392 -1.63296 0)
(-0.0143636 0.630673 0)
(-0.0437742 0.635093 0)
(-0.0752982 0.642335 0)
(-0.110132 0.653284 0)
(-0.14935 0.665562 0)
(-0.194591 0.681958 0)
(-0.248042 0.698271 0)
(-0.312455 0.71772 0)
(-0.39078 0.734832 0)
(-0.485386 0.753795 0)
(-0.597732 0.770376 0)
(-0.728623 0.790496 0)
(-0.871635 0.797651 0)
(-1.00561 0.756775 0)
(-1.09324 0.57262 0)
(-1.11395 0.186418 0)
(-1.09644 -0.19772 0)