/*--------------------------------*- C++ -*----------------------------------*\
| =========                 |                                                 |
| \\      /  F ield         | OpenFOAM: The Open Source CFD Toolbox           |
|  \\    /   O peration     | Version:  2012                                  |
|   \\  /    A nd           | Website:  www.openfoam.com                      |
|    \\/     M anipulation  |                                                 |
\*---------------------------------------------------------------------------*/
FoamFile
{
    version     2.0;
    format      ascii;
    class       volScalarField;
    location    "0.66";
    object      volumeFraction1;
}
// * * * * * * * * * * * * * * * * * * * * * * * * * * * * * * * * * * * * * //

dimensions      [0 0 0 0 0 0 0];


internalField   nonuniform List<scalar> 
2268
(
1
1
1
1
1
1
1
1
1
1
1
1
1
1
1
1
1
1
1
1
1
0.999999
0.99979
1
1
1
1
1
1
1
1
1
1
1
1
1
1
1
1
1
1
1
1
1
0.999989
0.999712
1
1
1
1
1
1
1
1
1
1
1
1
1
1
1
1
1
1
1
1
1
0.999992
0.999712
1
1
1
1
1
1
1
1
1
1
1
1
1
1
1
1
1
1
1
1
1
0.999993
0.999712
1
1
1
1
1
1
1
1
1
1
1
1
1
1
1
1
1
1
1
1
1
0.999998
0.999899
1
1
1
1
1
1
1
1
1
1
1
1
1
1
1
1
1
1
1
1
1
1
1
0.999968
0.99997
0.999987
0.999997
1
1
1
1
1
1
1
1
1
1
1
1
1
1
1
1
1
1
1
0.958208
0.961445
0.973976
0.987339
0.994107
0.996842
1
1
1
1
1
1
1
1
1
1
1
1
1
1
1
1
1
0.81016
0.81016
0.81016
0.737189
0.664775
0.664778
0.730458
0.787597
0.787634
0.787624
0.81105
0.831461
0.831461
0.831456
0.831456
0.831454
0.831449
0.831378
0.827463
0.81016
0.718617
0.801708
0.801641
0.772365
0.668115
0.722233
0.787208
0.787254
0.74751
0.729233
0.718448
0.700829
0.688204
0.696846
0.753609
0.798075
0.831401
0.831401
0.794865
0.135426
0.306037
0.446199
0.678807
0.845724
0.925186
0.696943
0.193803
0.193778
0.19438
0.267259
0.159513
0.126329
0.112143
0.139417
0.272147
0.59801
0.831401
0.59803
0.0188836
0.00211716
0.00199856
0.059086
0.410859
0.925186
0.981473
0.718383
0.437324
0.276998
0.0400719
0.000587263
0.000587263
0.000587263
0.000587263
0.000587263
0.183305
0.736296
0.185986
0.0246441
6.83032e-21
6.38422e-08
5.28345e-09
0.163395
0.841783
0.997261
0.994962
0.948618
0.838355
0.626791
0.361736
0.0880015
0.000587263
0.000587263
0.00201517
0.0777508
0.530784
0.467062
0.024902
1.65993e-26
6.55271e-07
5.87705e-09
0.506155
0.966321
0.99726
0.997373
0.997372
0.997373
0.9965
0.958977
0.830035
0.554567
0.117257
0.0115902
0.0804288
0.647581
0.542575
0.021475
8.2091e-25
7.70417e-07
5.28345e-09
0.723431
0.990807
0.997261
0.992018
0.932888
0.940733
0.960229
0.965034
0.965025
0.965034
0.753687
0.176167
0.0880196
0.670003
0.542576
0.0208653
0.00132837
7.70457e-07
0.24158
0.897874
0.996977
0.996977
0.790837
0.518221
0.420687
0.431892
0.466137
0.53321
0.736056
0.753651
0.344849
0.0493293
0.663573
0.415126
0.428922
0.460779
0.512421
0.585381
0.653546
0.73758
0.826146
0.909212
0.979528
1
1
1
1
1
1
1
1
1
1
1
1
1
7.20921e-37
1.93111e-37
-8.16686e-36
7.61519e-22
0.00426154
0.0292309
0.0655655
0.123591
0.217949
0.349697
0.528752
0.699682
0.849172
0.974553
1
1
1
0.999977
0.999999
1
1
1
1
3.38674e-19
1.552e-17
3.38239e-16
2.05098e-15
8.77684e-31
3.09648e-30
1.03203e-25
4.86491e-05
0.00151182
0.0082988
0.03048
0.096026
0.203305
0.369385
0.586541
0.738554
0.826815
0.957754
0.989769
0.997306
0.997555
1
1
4.81651e-18
2.28166e-16
6.83667e-15
1.31546e-13
2.04995e-12
1.78465e-11
2.85714e-09
1.2541e-07
2.3878e-06
3.23116e-05
0.000312337
0.00194409
0.00778825
0.0239058
0.0659596
0.125246
0.156651
0.237822
0.379384
0.526077
0.650864
0.873411
0.967274
8.46997e-17
3.89546e-15
8.4182e-14
1.02554e-12
7.06586e-12
2.58655e-11
1.68426e-10
9.5062e-10
1.08288e-09
1.5215e-08
1.41759e-07
6.33655e-07
1.06617e-06
-2.52185e-26
8.92696e-28
2.05409e-29
-2.42817e-24
-6.02346e-24
-1.08722e-33
-2.66922e-21
0.0146699
0.105997
0.193994
2.94149e-17
1.43252e-15
4.04297e-14
6.73188e-13
6.26418e-12
2.80733e-11
6.08158e-11
8.82049e-11
1.12073e-10
8.25415e-09
2.39095e-07
3.84273e-07
1.13629e-06
1.74939e-06
2.33764e-07
1.02477e-08
-1.41026e-26
-3.04161e-32
9.17973e-14
1.99427e-09
1.1971e-12
1.1971e-12
0.000992884
3.14667e-17
1.56718e-15
3.72615e-14
5.30862e-13
4.54405e-12
1.99011e-11
4.38969e-11
1.34507e-10
2.04926e-10
1.477e-09
4.09483e-07
2.08417e-06
2.08407e-06
2.0725e-06
9.51884e-08
8.28505e-09
2.79475e-08
2.34349e-07
2.08605e-07
1.1971e-12
1.1971e-12
4.81862e-07
0.00092409
1.14987e-17
5.88826e-16
1.44502e-14
2.20139e-13
2.12726e-12
1.12833e-11
4.21134e-11
2.41362e-10
7.77957e-10
5.33807e-09
1.9799e-07
9.8043e-07
1.24053e-06
3.93189e-07
3.67665e-08
8.28426e-09
1.89838e-08
2.95961e-07
4.17124e-07
1.73696e-07
7.95931e-09
3.19282e-08
4.72486e-10
4.30144e-18
2.08009e-16
4.97483e-15
7.46279e-14
7.49147e-13
4.60838e-12
2.58637e-11
2.3248e-10
1.38544e-09
7.0441e-09
1.74871e-08
9.26096e-09
1.74923e-08
6.26529e-09
5.46463e-09
1.45521e-08
2.47643e-08
1.7188e-07
4.17655e-07
3.95534e-07
1.42076e-10
1.42058e-10
4.72996e-10
1.25295e-18
6.00426e-17
1.45632e-15
2.21186e-14
2.42734e-13
2.00169e-12
1.74657e-11
1.92923e-10
1.30306e-09
3.39324e-09
1.29425e-09
2.07689e-10
1.5533e-10
2.89431e-10
1.43325e-09
1.39257e-08
3.15332e-08
4.15444e-08
1.52013e-07
2.12851e-07
3.18167e-08
1.42076e-10
2.1287e-09
3.59363e-19
1.65176e-17
3.88791e-16
5.68091e-15
6.32534e-14
6.29592e-13
7.37168e-12
9.57393e-11
5.0989e-10
7.57647e-10
4.09051e-10
1.84173e-10
1.46638e-10
2.85894e-10
7.69593e-10
5.27497e-09
1.54904e-08
1.16493e-08
3.2204e-09
9.74003e-09
1.91722e-07
1.7988e-07
4.23652e-06
8.64356e-20
3.85248e-18
9.01514e-17
1.28702e-15
1.40933e-14
1.47459e-13
1.81409e-12
2.36806e-11
1.02267e-10
1.50277e-10
1.29877e-10
1.16056e-10
1.2176e-10
2.4012e-10
4.60985e-10
1.00042e-09
2.33549e-09
2.95651e-09
1.06548e-09
5.62558e-10
1.10105e-07
8.68336e-07
1.20761e-06
1.82761e-20
7.81548e-19
1.81369e-17
2.54386e-16
2.70558e-15
2.77193e-14
3.40313e-13
4.45159e-12
1.80215e-11
2.90838e-11
3.41277e-11
3.78676e-11
5.64768e-11
1.15758e-10
2.27566e-10
3.4752e-10
5.56053e-10
8.26406e-10
7.17635e-10
3.81435e-10
3.76266e-09
3.83205e-07
1.126e-06
3.30074e-21
1.3617e-19
3.16464e-18
4.42581e-17
4.64877e-16
4.64007e-15
5.63101e-14
6.94967e-13
2.78892e-12
5.30688e-12
7.68038e-12
9.5035e-12
1.4138e-11
2.80148e-11
6.70324e-11
1.20165e-10
1.93699e-10
2.96515e-10
3.58892e-10
3.29789e-10
1.64661e-10
2.08064e-08
4.30836e-07
5.12947e-22
2.04645e-20
4.77897e-19
6.72718e-18
7.10793e-17
7.03204e-16
8.81697e-15
9.32079e-14
3.73852e-13
8.37364e-13
1.40572e-12
1.89754e-12
2.86471e-12
5.47306e-12
1.4261e-11
3.12563e-11
5.92044e-11
1.03156e-10
1.54623e-10
2.10822e-10
1.6466e-10
1.57036e-09
3.57248e-09
6.72681e-23
2.60693e-21
6.15222e-20
8.78909e-19
9.44642e-18
9.25959e-17
1.25296e-15
1.08323e-14
4.27476e-14
1.08196e-13
2.0197e-13
2.97356e-13
4.71139e-13
9.0348e-13
2.41774e-12
6.18293e-12
1.39578e-11
2.86086e-11
5.20019e-11
8.14164e-11
1.14391e-10
2.82339e-10
1.71282e-10
7.47607e-24
2.83816e-22
6.8017e-21
9.93621e-20
1.09624e-18
1.0644e-17
1.54622e-16
1.11827e-15
4.21594e-15
1.14213e-14
2.28495e-14
3.67903e-14
6.25318e-14
1.25769e-13
3.43022e-13
9.71296e-13
2.54006e-12
6.02329e-12
1.29185e-11
2.30831e-11
3.80421e-11
7.23577e-11
6.8156e-11
6.96791e-25
2.61344e-23
6.39737e-22
9.61558e-21
1.0931e-19
1.04575e-18
1.56397e-17
1.01429e-16
3.60577e-16
9.97838e-16
2.07006e-15
3.63654e-15
6.69568e-15
1.45891e-14
4.11553e-14
1.2444e-13
3.63209e-13
9.65548e-13
2.37278e-12
4.79154e-12
8.44342e-12
1.48545e-11
1.96488e-11
5.47216e-26
2.05213e-24
5.15406e-23
8.00545e-22
9.37719e-21
8.92466e-20
1.291e-18
7.9349e-18
2.66418e-17
7.33092e-17
1.53559e-16
2.92179e-16
5.83164e-16
1.40157e-15
4.15181e-15
1.31386e-14
4.135e-14
1.19206e-13
3.26433e-13
7.31915e-13
1.42175e-12
2.49972e-12
3.94919e-12
3.62415e-27
1.37439e-25
3.55123e-24
5.70697e-23
6.85803e-22
6.53765e-21
8.7263e-20
5.23935e-19
1.67563e-18
4.5482e-18
9.43651e-18
1.92714e-17
4.14001e-17
1.10254e-16
3.4406e-16
1.12907e-15
3.72948e-15
1.13319e-14
3.37005e-14
8.23662e-14
1.76949e-13
3.27926e-13
5.76634e-13
2.04055e-28
7.9028e-27
2.09938e-25
3.48394e-24
4.26571e-23
4.08285e-22
4.88732e-21
2.89084e-20
8.85972e-20
2.37609e-19
4.82553e-19
1.04712e-18
2.38946e-18
7.00112e-18
2.27566e-17
7.70035e-17
2.61474e-16
8.18436e-16
2.58486e-15
6.75692e-15
1.60018e-14
3.18939e-14
6.21509e-14
9.96862e-30
3.98027e-28
1.08182e-26
1.84392e-25
2.27898e-24
2.18298e-23
2.31396e-22
1.33796e-21
3.92463e-21
1.04212e-20
2.05177e-20
4.67259e-20
1.10783e-19
3.49916e-19
1.1532e-18
3.98306e-18
1.35768e-17
4.28843e-17
1.407e-16
3.85238e-16
9.99359e-16
2.15236e-15
4.72246e-15
4.29543e-31
1.77466e-29
4.90141e-28
8.5176e-27
1.05227e-25
9.99194e-25
9.37919e-24
5.23864e-23
1.46103e-22
3.81625e-22
7.18969e-22
1.68983e-21
4.03082e-21
1.32812e-20
4.25504e-20
1.46778e-19
4.83294e-19
1.49834e-18
4.9538e-18
1.37136e-17
3.85391e-17
8.91149e-17
2.26784e-16
1.67954e-32
7.19758e-31
2.00458e-29
3.51982e-28
4.30209e-27
4.00345e-26
3.33222e-25
1.76756e-24
4.64088e-24
1.17783e-23
2.08804e-23
4.91819e-23
1.12452e-22
3.66373e-22
1.06161e-21
3.44291e-21
9.94494e-21
3.03661e-20
3.53249e-19
4.51189e-18
2.27345e-17
8.14816e-17
8.90601e-17
6.08695e-34
2.6991e-32
7.52846e-31
1.3233e-29
1.58525e-28
1.42786e-27
1.05759e-26
5.24357e-26
1.27868e-25
3.09044e-25
5.03534e-25
1.13837e-24
2.31047e-24
6.76806e-24
1.80168e-23
3.70049e-22
1.0619e-19
5.96722e-18
1.31656e-16
9.13367e-16
3.42135e-15
8.74642e-15
1.02832e-14
2.09461e-35
9.57247e-34
2.65776e-32
4.63379e-31
5.3964e-30
4.65259e-29
3.07444e-28
1.4045e-27
3.13968e-27
6.92911e-27
1.03114e-26
3.30202e-26
7.38855e-25
3.83733e-23
2.43257e-21
4.18376e-19
2.87658e-17
7.02441e-16
8.58281e-15
3.86275e-14
1.10334e-13
2.22355e-13
2.69354e-13
6.97808e-37
3.26764e-35
8.9821e-34
1.5409e-32
1.7321e-31
1.4101e-30
8.20119e-30
3.5929e-29
1.94094e-28
7.85253e-27
4.19958e-25
2.07155e-23
9.1649e-22
3.90205e-20
2.00234e-18
8.71424e-17
2.20655e-15
3.23622e-14
2.5077e-13
7.60108e-13
1.59087e-12
2.56038e-12
3.38364e-12
2.22308e-38
1.08261e-36
2.87849e-35
5.03185e-34
7.89373e-33
2.96426e-31
2.03234e-29
1.37061e-27
8.12036e-26
4.13774e-24
1.82254e-22
6.98327e-21
2.38282e-19
7.58517e-18
2.50147e-16
6.00881e-15
9.40921e-14
8.64477e-13
4.2143e-12
8.28278e-12
1.25193e-11
1.75581e-11
3.13121e-11
2.17415e-39
2.30101e-37
4.60374e-35
6.85086e-33
7.80677e-31
6.97643e-29
5.06462e-27
3.05614e-25
1.55503e-23
6.7191e-22
2.48282e-20
7.88425e-19
2.18275e-17
5.39362e-16
1.25339e-14
2.10647e-13
2.35303e-12
1.51853e-11
4.77175e-11
9.9888e-11
8.7913e-10
3.11854e-09
9.30435e-09
1.2137e-37
5.47883e-35
1.19482e-32
1.6741e-30
1.69682e-28
1.3256e-26
8.29941e-25
4.26451e-23
1.82575e-21
6.5643e-20
1.99357e-18
5.12728e-17
1.12562e-15
2.13521e-14
3.60704e-13
4.58801e-12
3.96999e-11
2.39692e-10
2.51166e-09
3.03067e-08
3.08204e-07
1.03472e-06
1.22279e-06
1.52157e-35
6.35761e-33
1.27604e-30
1.63631e-28
1.5066e-26
1.06e-24
5.92067e-23
2.68932e-21
1.00877e-19
3.15082e-18
8.23606e-17
1.80302e-15
3.31317e-14
5.12045e-13
6.74409e-12
7.15425e-11
6.98373e-10
1.18075e-08
2.27251e-07
1.84127e-06
3.0906e-06
3.09064e-06
2.06286e-06
1.48163e-33
5.66972e-31
1.04027e-28
1.21493e-26
1.01257e-24
6.39692e-23
3.17716e-21
1.2691e-19
4.13651e-18
1.1084e-16
2.45127e-15
4.46581e-14
6.6798e-13
8.1544e-12
8.27939e-11
1.01014e-09
1.99972e-08
4.24998e-07
2.98498e-06
4.02304e-06
4.02317e-06
1.61522e-06
1.32231e-11
6.04396e-32
2.19615e-29
3.80308e-27
4.15738e-25
3.20625e-23
1.84752e-21
8.23032e-20
2.89341e-18
8.1343e-17
1.83951e-15
3.35074e-14
4.87905e-13
5.59713e-12
4.95019e-11
4.86022e-10
1.82881e-08
5.99493e-07
3.46311e-06
3.72375e-06
2.76898e-06
1.11144e-07
5.4205e-11
1.28351e-10
1.27726e-30
4.05991e-28
6.11827e-26
5.78468e-24
3.83276e-22
1.88337e-20
7.09493e-19
2.08783e-17
4.85248e-16
8.935e-15
1.30131e-13
1.4531e-12
1.19258e-11
7.96073e-11
5.87438e-09
4.49444e-07
3.32658e-06
3.64685e-06
2.3082e-06
2.20337e-11
2.20329e-11
2.75837e-10
7.59946e-10
7.73069e-30
2.32844e-27
3.29009e-25
2.87795e-23
1.73446e-21
7.59234e-20
2.48555e-18
6.17736e-17
1.1735e-15
1.70087e-14
1.86459e-13
1.53507e-12
9.14535e-12
8.28155e-11
6.15452e-08
2.37503e-06
3.64442e-06
2.49299e-06
2.32926e-11
3.35098e-11
1.56122e-10
4.43624e-10
7.02125e-10
4.34687e-29
1.16019e-26
1.44714e-24
1.11171e-22
5.86098e-21
2.23888e-19
6.38947e-18
1.38399e-16
2.29162e-15
2.89201e-14
2.74111e-13
1.87014e-12
8.43093e-12
1.48956e-10
1.13612e-07
2.51931e-06
3.14555e-06
6.73208e-12
2.32921e-11
7.16037e-11
1.80915e-10
2.13424e-10
1.98485e-10
8.31347e-29
2.32215e-26
3.02381e-24
2.41591e-22
1.31493e-20
5.14358e-19
1.49471e-17
3.30499e-16
5.6868e-15
7.78103e-14
8.59862e-13
7.59479e-12
5.6573e-11
4.42017e-09
5.69344e-07
1.18051e-06
1.27783e-07
6.73192e-12
2.7648e-11
5.43729e-11
5.8422e-11
5.56808e-11
4.51507e-11
4.17341e-28
1.16915e-25
1.52743e-23
1.25166e-21
7.23896e-20
3.09048e-18
9.80056e-17
2.32426e-15
4.13124e-14
5.50683e-13
5.56155e-12
4.44404e-11
9.30127e-10
8.19427e-08
4.37479e-07
1.5752e-07
3.24622e-12
7.69433e-12
1.46165e-11
1.3311e-11
1.24717e-11
1.03251e-11
7.76265e-12
4.17321e-28
1.23315e-25
2.02506e-23
2.05192e-21
1.41477e-19
6.96192e-18
2.51027e-16
6.67205e-15
1.30174e-13
1.83906e-12
1.84155e-11
1.4044e-10
4.00844e-09
1.07737e-07
1.65618e-07
5.48043e-09
3.24621e-12
1.16926e-11
5.91808e-12
2.44412e-12
1.83691e-12
1.30589e-12
9.5212e-13
9.25007e-28
3.42634e-25
5.97035e-23
6.30904e-21
4.43513e-19
2.16164e-17
7.43125e-16
1.80573e-14
3.21742e-13
4.41151e-12
4.6143e-11
5.26108e-10
1.49104e-08
8.02641e-08
4.48134e-08
7.77904e-12
8.18499e-12
1.90727e-11
2.21118e-12
3.02611e-13
1.73109e-13
1.03309e-13
8.68552e-14
3.49683e-28
1.47717e-25
2.9434e-23
3.60312e-21
2.97444e-19
1.73218e-17
7.38849e-16
2.37479e-14
5.5267e-13
8.92228e-12
1.02101e-10
1.12794e-09
1.48632e-08
2.96361e-08
4.3172e-09
7.77988e-12
8.96529e-11
1.37387e-11
3.55628e-13
1.75155e-14
7.67556e-15
4.7883e-15
8.74286e-15
5.66391e-29
2.98133e-26
7.64995e-24
1.23144e-21
1.35736e-19
1.05178e-17
5.67468e-16
2.10902e-14
5.44313e-13
9.81777e-12
1.29837e-10
1.47704e-09
6.4656e-09
5.84328e-09
4.57704e-09
1.97884e-09
2.13358e-10
1.97053e-36
5.65635e-18
2.87825e-17
5.12637e-18
5.42179e-19
1.17154e-20
0.999999
0.995129
0.717602
0.294999
1
0.999071
0.876682
0.405185
1
0.999968
0.995897
0.922643
1
1
1
1
0.364712
0.420167
0.560807
0.621281
0.015044
0.0277995
0.0491144
0.0995069
0.0183767
0.0313162
0.0124812
0.0108552
0.0005614
0.0794912
0.196426
0.196105
5.86447e-05
0.0245594
0.222092
0.317684
2.47896e-05
0.00024808
0.00497081
0.12065
3.73782e-05
2.41979e-05
2.6758e-06
2.67578e-06
2.1599e-05
2.92988e-05
3.23307e-06
2.6758e-06
1.57426e-06
1.26397e-05
3.06377e-05
2.08439e-05
2.94028e-07
2.0772e-08
9.51428e-06
9.35841e-06
5.48968e-09
2.0771e-08
8.07925e-08
1.26887e-11
2.35739e-10
3.01193e-09
7.59202e-10
1.28417e-11
7.19026e-11
1.27251e-10
3.03341e-11
1.37495e-10
2.0657e-11
2.17936e-11
3.43967e-12
3.68866e-10
4.63073e-12
4.82412e-12
2.645e-12
1.42913e-10
7.50504e-13
8.29432e-13
1.0804e-12
1.42311e-11
8.71613e-14
1.04694e-13
1.5819e-13
1.02765e-12
7.10546e-15
9.18117e-15
1.45655e-14
5.83065e-14
3.67658e-16
5.116e-16
8.29777e-16
2.40355e-15
9.83529e-17
1.14029e-16
1.56199e-16
2.39217e-16
1.21162e-14
1.751e-14
2.915e-14
5.70965e-14
3.67868e-13
6.90334e-13
1.35233e-12
3.3732e-12
6.62328e-12
1.41438e-11
3.65817e-11
1.452e-10
5.04113e-10
1.00005e-09
5.73385e-09
1.88142e-08
1.48765e-07
2.00002e-07
2.28539e-07
1.88438e-07
1.10595e-06
7.26532e-07
3.08313e-07
1.17785e-07
6.57286e-07
1.26953e-07
1.12721e-08
2.24759e-10
1.32235e-11
1.32231e-11
1.32235e-11
2.2468e-10
7.30184e-10
1.17675e-09
1.51941e-09
1.66752e-09
1.40185e-09
1.6677e-09
1.83654e-09
2.01424e-09
7.54162e-10
7.48314e-10
8.21622e-10
1.03867e-09
1.8179e-10
1.88112e-10
2.30344e-10
3.00823e-10
4.0819e-11
4.7272e-11
6.54872e-11
8.99308e-11
7.80286e-12
1.21066e-11
2.17709e-11
4.3042e-11
1.37929e-12
3.36909e-12
8.58071e-12
2.34558e-11
2.69693e-13
8.57765e-13
2.32179e-12
6.28084e-12
4.10654e-14
1.15215e-13
1.72388e-13
1.81967e-13
-1.9144e-30
-2.54589e-30
-3.27196e-30
-4.04494e-30
0.214561
0.0193787
0.0255842
0.280061
0.744299
0.995886
0.993986
0.621365
0.209911
0.033534
0.0174851
0.0133209
0.0130252
0.0167903
0.0475948
0.136658
0.134054
0.0426084
0.629642
0.135623
0.1202
0.527721
1
1
1
0.581343
0.0400716
7.0965e-09
7.0965e-09
7.0965e-09
3.40678e-06
2.15796e-05
5.71758e-05
0.000139217
0.00103766
0.00957407
0.00535013
0.673276
0.690175
0.847331
0.996858
0.999825
1
0.845425
0.117559
4.80826e-06
4.80826e-06
1.64596e-06
1.39179e-05
4.89885e-05
5.94957e-07
7.32666e-07
4.12708e-06
2.8262e-05
4.69422e-05
2.51102e-16
0.749723
1
1
0.999207
0.965348
0.97667
0.159367
4.25445e-06
5.8558e-05
1.17146e-05
4.4467e-06
5.25391e-06
1.7142e-06
5.84015e-11
1.02829e-09
7.19576e-09
3.01068e-09
2.51086e-16
2.51832e-16
0.78057
0.80543
0.811042
0.815122
0.734934
0.555646
2.68615e-16
4.25434e-06
1.18827e-05
1.13712e-06
6.71069e-11
1.45421e-08
5.84015e-11
5.84038e-11
2.36446e-11
1.14466e-11
6.37426e-10
6.90577e-05
0.0268843
0.811657
0.176707
0.254097
0.541042
0.568861
0.0448879
2.68616e-16
9.453e-06
1.07952e-05
6.37972e-11
6.71063e-11
2.08035e-10
2.77212e-10
2.05901e-10
5.99444e-11
2.51393e-16
2.51366e-16
2.51393e-16
0.0901574
0.838404
0.0108503
0.277426
0.541041
0.288518
2.68415e-16
3.20018e-06
1.30045e-05
1.08211e-05
6.37972e-11
6.37972e-11
1.09077e-10
5.88507e-10
3.48226e-09
9.28689e-09
1.46088e-08
1.68906e-08
2.51359e-16
0.133294
0.853204
0.119282
0.123034
0.328564
0.18352
2.68667e-16
1.09234e-06
4.98175e-06
3.0079e-06
3.00305e-07
2.68067e-06
5.2987e-07
2.42375e-07
2.01097e-06
2.39757e-06
4.10016e-06
9.32876e-07
2.51393e-16
0.162457
0.856308
0.317139
0.288383
0.271394
0.271397
0.145956
3.70658e-09
3.70885e-09
3.70658e-09
0.00283896
0.0132741
0.00564198
0.00167204
0.00679955
0.00715563
0.0091547
0.00379706
2.51367e-16
0.186301
0.856308
0.31676
0.50341
0.50341
0.515199
0.540587
0.178692
3.70658e-09
0.0172764
0.186409
0.41553
0.304513
0.166718
0.194949
0.238114
0.27095
0.173021
0.0135713
0.232383
0.824654
1.80797e-05
0.312502
0.705514
0.707649
0.707648
0.690459
0.571534
0.552705
0.669638
0.701382
0.675874
0.35421
0.421486
0.596648
0.711334
0.698456
0.486849
0.355989
0.716644
2.67583e-06
2.67583e-06
0.204117
0.588937
0.707649
0.707648
0.707649
0.707648
0.707649
0.686765
0.568715
0.44137
0.708324
0.877259
0.960275
0.978375
0.913634
0.668653
0.775974
2.67583e-06
2.84022e-06
2.503e-06
0.000233909
0.21596
0.389683
0.426398
0.363129
0.238292
0.161029
0.177166
0.462673
0.566321
0.542498
0.73967
0.988147
0.990083
0.980814
0.98842
1.06546e-05
1.29866e-05
2.50302e-06
3.84079e-10
3.84079e-10
3.84079e-10
3.84079e-10
3.84079e-10
3.84079e-10
3.84079e-10
0.0189451
0.0240764
3.84079e-10
3.84079e-10
0.138251
0.752286
0.990083
0.990083
0.988419
2.51143e-06
7.61577e-06
4.47147e-06
4.27675e-06
3.8849e-07
3.84079e-10
3.81657e-09
3.24789e-09
5.62533e-09
3.84079e-10
3.84079e-10
3.84079e-10
7.60829e-08
1.13387e-06
1.13362e-06
0.318655
0.988442
0.990083
0.989277
1.25246e-07
1.18971e-07
7.35466e-10
4.36655e-06
2.89946e-06
2.37649e-07
5.57778e-06
9.06339e-06
1.48216e-06
3.84079e-10
1.00639e-08
8.91518e-08
2.02012e-06
2.81657e-05
0.00398281
0.0870806
0.614669
0.972458
0.978431
6.40063e-09
5.55841e-09
2.32349e-10
7.67136e-07
8.90113e-06
8.90114e-06
2.60008e-05
4.21158e-05
2.57425e-05
3.84079e-10
1.66601e-08
6.2142e-08
4.26511e-06
9.22878e-05
0.00262448
0.00799609
0.105755
0.451976
0.60872
1.34419e-09
1.05042e-09
2.32355e-10
2.43971e-11
3.69716e-06
3.81706e-06
4.17098e-05
4.21158e-05
4.21158e-05
5.06156e-06
1.66607e-08
4.50802e-08
5.92577e-06
0.000146309
0.00555827
0.0281706
0.0281692
0.0423648
0.0167227
3.03504e-10
2.48128e-10
1.11091e-10
2.4398e-11
8.64106e-12
6.27734e-07
5.19628e-06
2.54624e-05
3.89465e-05
1.19753e-05
4.32184e-08
2.48981e-07
8.51979e-06
0.000114408
0.00192047
0.109989
0.215716
0.0986738
0.0126384
4.20852e-11
3.85044e-11
2.48226e-11
1.23235e-11
8.64143e-12
3.81427e-08
1.18695e-07
2.61197e-06
2.04872e-06
5.55288e-07
4.72213e-11
1.43717e-06
1.23188e-05
1.29395e-06
0.0011192
0.0960923
0.230237
0.230239
0.0127478
3.99815e-12
4.313e-12
4.30873e-12
6.31438e-12
8.64119e-12
2.51032e-10
2.15144e-09
3.4884e-09
3.53541e-09
2.15935e-09
4.72192e-11
7.44134e-08
3.56929e-06
3.92458e-11
0.000976577
0.0108403
0.0672794
0.103826
0.094385
2.50174e-13
3.73399e-13
6.35804e-13
2.20477e-12
6.06174e-12
1.888e-11
8.35875e-11
7.17234e-11
6.24951e-11
5.54803e-11
4.72213e-11
3.53948e-09
5.30949e-09
3.90134e-11
0.000923537
6.25951e-07
6.09441e-07
0.000105532
0.379321
1.03486e-14
2.48106e-14
7.79628e-14
4.35883e-13
1.8525e-12
5.09202e-12
1.5976e-11
3.19024e-11
4.49719e-11
4.7082e-11
4.9192e-11
1.09891e-10
1.49185e-10
3.90132e-11
0.000615962
2.90411e-05
3.14655e-06
0.0170578
0.400429
4.94959e-16
1.17332e-15
7.31182e-15
6.05564e-14
3.40818e-13
1.28049e-12
4.39574e-12
1.1687e-11
2.43302e-11
3.55522e-11
4.62241e-11
6.30766e-11
1.0425e-10
3.90134e-11
0.000559079
0.000133981
3.35753e-06
0.00827411
0.400429
1.25312e-13
6.25841e-14
1.04238e-14
8.44401e-15
4.83281e-14
2.71306e-13
1.19717e-12
3.97115e-12
1.02021e-11
2.09129e-11
3.73652e-11
8.02646e-11
8.18999e-11
3.87819e-11
0.000551536
0.000216788
1.95492e-06
0.000524784
0.400429
8.54049e-12
6.48126e-12
2.09911e-12
2.64076e-13
5.64637e-14
6.27822e-14
2.76959e-13
1.22293e-12
3.9676e-12
1.04591e-11
3.30701e-11
8.601e-11
7.87867e-11
3.87818e-11
0.000550446
0.00027065
1.72098e-06
1.53258e-25
0.363406
2.94647e-10
1.95629e-10
7.20997e-11
1.73424e-11
2.94086e-12
4.56443e-13
2.11187e-13
3.71057e-13
1.48038e-12
5.3699e-12
2.32351e-11
8.60067e-11
7.79641e-11
3.87819e-11
0.000375036
0.000272265
1.01019e-05
-7.89601e-25
0.297457
1.28866e-08
2.87567e-09
7.28573e-10
2.49968e-10
6.88418e-11
1.54487e-11
3.06143e-12
7.63211e-13
8.0861e-13
2.88409e-12
1.56196e-11
7.84808e-11
7.34678e-11
3.85514e-11
0.000195274
0.000208479
2.25057e-05
-7.24982e-22
0.314891
6.10619e-08
9.44815e-09
2.61383e-09
1.52249e-09
6.189e-10
1.79535e-10
4.68195e-11
1.09516e-11
2.57493e-12
2.44163e-12
1.01164e-11
6.6343e-11
6.46508e-11
3.85513e-11
0.000101821
0.000170567
3.2485e-05
0.00112954
0.314894
6.52393e-08
4.17651e-08
2.00897e-08
9.39609e-09
4.76615e-09
1.78997e-09
5.18767e-10
1.62202e-10
4.56196e-11
1.16963e-11
1.17144e-11
5.40301e-11
5.32033e-11
3.85514e-11
6.37063e-05
0.000135117
2.61355e-05
0.00476721
0.175334
2.09801e-08
5.08921e-08
3.94637e-08
1.56807e-08
2.68321e-08
2.00449e-08
2.97371e-09
1.18547e-12
1.18579e-12
1.18547e-12
5.98429e-12
3.83229e-11
3.83218e-11
3.83219e-11
3.15779e-05
0.000107959
2.67057e-05
0.00273483
0.000558311
2.24759e-10
3.46486e-08
3.254e-08
1.56805e-08
4.62512e-08
1.74476e-07
1.31152e-07
5.41334e-08
1.32103e-08
1.15506e-09
1.65765e-10
6.11471e-11
3.83776e-11
3.85514e-11
7.27978e-07
7.04034e-05
5.17588e-05
-3.15579e-25
0.00189333
1.61502e-09
1.61105e-09
1.26373e-07
2.24397e-08
1.50044e-08
1.17909e-06
1.14168e-06
6.4829e-07
1.295e-08
5.10376e-10
2.08535e-10
9.40286e-11
6.30084e-11
3.91045e-11
3.91037e-11
7.01988e-05
4.83466e-05
-1.56852e-24
0.0702199
2.26606e-09
1.81571e-09
1.29722e-07
4.76204e-07
1.50007e-08
1.04824e-06
1.08579e-05
1.78884e-07
8.63137e-11
8.63132e-11
8.63137e-11
8.69008e-11
1.03731e-10
7.08305e-11
3.91031e-11
5.98567e-05
3.76183e-05
-8.36157e-25
0.110629
1.83778e-09
4.88053e-09
2.86196e-08
1.67506e-06
1.41295e-06
1.51864e-08
1.98631e-05
0.000153663
5.59982e-05
1.00435e-06
2.67772e-08
3.23795e-10
1.25813e-10
7.39947e-11
3.93083e-11
8.0712e-06
5.49078e-06
2.68937e-24
0.110629
6.34842e-10
2.85839e-09
2.85846e-09
1.46632e-06
4.31448e-06
1.51819e-08
2.22141e-05
0.000154703
0.00016941
3.19699e-05
4.3507e-07
2.02921e-10
1.05388e-10
7.39939e-11
6.28238e-08
8.06562e-08
7.9043e-08
2.71349e-24
0.10896
1.50519e-10
3.22423e-10
8.81376e-09
1.70795e-07
4.31432e-06
2.64764e-06
7.46639e-08
0.000102577
0.000190408
9.17314e-05
6.67334e-07
1.65284e-10
1.15467e-10
1.00746e-10
7.98513e-08
2.99058e-08
2.27956e-08
4.14442e-06
0.0281529
1.2061e-10
4.57642e-10
3.06439e-09
1.54214e-08
1.1757e-06
2.42042e-06
5.50196e-08
0.000110549
0.000190403
0.000110235
1.64627e-06
5.28326e-10
1.68505e-10
1.00747e-10
4.95514e-08
7.03622e-09
2.27955e-08
5.0824e-05
2.60578e-06
9.53437e-11
3.44413e-10
8.48521e-10
1.79838e-09
2.18718e-11
5.5739e-08
5.57406e-08
8.79326e-05
0.000190408
0.000149085
9.06628e-06
4.32107e-09
2.62135e-10
5.21091e-10
3.34369e-09
9.7663e-10
9.7669e-10
2.96683e-05
2.60566e-06
2.26469e-11
4.45079e-11
1.41774e-14
1.40854e-14
2.18663e-11
4.89391e-11
2.74371e-07
2.74436e-07
0.000189915
0.000189916
2.16814e-05
2.09072e-09
3.36944e-10
9.73611e-10
9.19003e-10
3.28947e-10
5.40057e-09
5.72823e-07
2.07598e-07
9.80259e-14
-4.93695e-32
3.51168e-14
2.37624e-12
5.89029e-11
5.01727e-10
4.27595e-11
3.66112e-07
8.26994e-05
0.00012202
1.67907e-05
7.42737e-10
3.51449e-10
1.0235e-09
9.51857e-10
3.28947e-10
3.28947e-10
4.05146e-07
2.07601e-07
-4.77222e-30
-6.62686e-30
-7.47614e-30
-5.48248e-30
-7.73217e-32
1.65262e-13
1.29307e-11
1.67157e-09
1.56618e-07
2.90242e-06
5.88346e-06
4.78177e-07
8.79356e-10
7.34973e-10
3.28947e-10
1.29726e-07
5.33979e-07
4.31459e-07
3.00111e-05
)
;

boundaryField
{
    leftWall
    {
        type            zeroGradient;
    }
    rightWall
    {
        type            zeroGradient;
    }
    lowerWall
    {
        type            zeroGradient;
    }
    atmosphere
    {
        type            inletOutlet;
        inletValue      uniform 0;
        value           nonuniform List<scalar> 
46
(
5.66391e-29
2.98133e-26
7.64995e-24
1.23144e-21
1.35736e-19
1.05178e-17
5.67468e-16
2.10902e-14
5.44313e-13
9.81777e-12
1.29837e-10
1.47704e-09
6.4656e-09
5.84328e-09
4.57704e-09
1.97884e-09
0
0
0
0
0
0
0
0
0
0
0
0
0
0
0
0
0
0
0
0
2.90242e-06
5.88346e-06
4.78177e-07
8.79356e-10
7.34973e-10
3.28947e-10
1.29726e-07
5.33979e-07
4.31459e-07
3.00111e-05
)
;
    }
    defaultFaces
    {
        type            empty;
    }
}


// ************************************************************************* //
