/*--------------------------------*- C++ -*----------------------------------*\
| =========                 |                                                 |
| \\      /  F ield         | OpenFOAM: The Open Source CFD Toolbox           |
|  \\    /   O peration     | Version:  2012                                  |
|   \\  /    A nd           | Website:  www.openfoam.com                      |
|    \\/     M anipulation  |                                                 |
\*---------------------------------------------------------------------------*/
FoamFile
{
    version     2.0;
    format      ascii;
    class       volScalarField;
    location    "0.2";
    object      minKappa;
}
// * * * * * * * * * * * * * * * * * * * * * * * * * * * * * * * * * * * * * //

dimensions      [0 0 0 0 0 0 0];


internalField   nonuniform List<scalar> 
1000
(
1.416062106e-14
8.640916867e-15
8.640916867e-15
1.345054957e-14
3.187957774e-14
5.045210146e-14
5.513972741e-14
5.891157543e-14
7.254400891e-14
8.427154027e-14
8.515371529e-14
8.515371529e-14
8.885424658e-14
9.621699542e-14
9.94274912e-14
1.001476617e-13
1.006642064e-13
1.006642064e-13
1.056314706e-13
1.157679477e-13
1.164768488e-13
1.099564363e-13
1.031013303e-13
9.316075338e-14
8.216825234e-14
7.714529112e-14
7.31732741e-14
6.15597551e-14
4.917541018e-14
4.523779122e-14
4.209841007e-14
3.918580471e-14
3.918580471e-14
4.08118411e-14
4.543982757e-14
3.252434161e-14
1.584885451e-14
7.100072594e-15
4.373780259e-15
4.373780259e-15
1.20618249e-14
2.174522163e-14
2.832336416e-14
2.639006306e-14
2.118339752e-14
1.359072385e-14
6.922678265e-15
6.922678265e-15
1.427918713e-14
2.793804976e-14
3.012282243e-14
3.621102177e-14
5.619780456e-14
7.178631969e-14
7.088683991e-14
7.088683991e-14
7.437574865e-14
8.61942564e-14
9.161203311e-14
9.173079065e-14
8.398240574e-14
7.027417582e-14
5.862597887e-14
5.1567793e-14
4.187615163e-14
2.993005393e-14
2.110812768e-14
1.807399599e-14
1.807399599e-14
2.31782346e-14
1.506742643e-14
1.079698606e-14
7.499471118e-15
7.499471118e-15
9.437096186e-15
1.023882733e-14
5.875726305e-15
5.875726305e-15
1.363142373e-14
2.415043693e-14
2.332291443e-14
1.931184818e-14
1.669458386e-14
1.669458386e-14
1.918401865e-14
3.739339832e-14
5.340769286e-14
4.958362289e-14
4.958362289e-14
5.081964048e-14
5.752051504e-14
6.491780296e-14
4.136651665e-14
2.0278393e-14
2.0278393e-14
2.501990278e-14
3.386288684e-14
3.710614702e-14
3.21905848e-14
3.21905848e-14
3.417881256e-14
4.461058543e-14
3.830875975e-14
3.014918118e-14
3.014918118e-14
3.593228621e-14
5.103290847e-14
6.219799851e-14
5.89594781e-14
4.405185059e-14
3.180030922e-14
3.180030922e-14
3.181647058e-14
3.770008541e-14
3.565883565e-14
3.448783559e-14
3.435863229e-14
3.435863229e-14
4.940524678e-14
7.982271044e-14
1.018062361e-13
1.054329918e-13
1.032657942e-13
1.032657942e-13
1.045233378e-13
9.711591779e-14
9.115988702e-14
9.115988702e-14
1.025620601e-13
1.085382745e-13
1.087448744e-13
1.215882844e-13
1.400371494e-13
1.529357035e-13
1.548217015e-13
1.548217015e-13
1.563177964e-13
1.38454973e-13
1.38454973e-13
1.438011539e-13
1.596541154e-13
1.725986433e-13
1.791848726e-13
1.857341699e-13
1.989403194e-13
2.051355496e-13
2.051355496e-13
2.084832122e-13
2.146300785e-13
2.16284365e-13
2.236274063e-13
2.284234115e-13
2.190975165e-13
2.053954487e-13
1.909315538e-13
1.902940561e-13
1.902940561e-13
1.792910169e-13
1.620058548e-13
1.453121084e-13
1.201463536e-13
9.425314358e-14
7.588075075e-14
6.399122787e-14
5.757583803e-14
5.757583803e-14
6.786334942e-14
8.955027981e-14
1.069029566e-13
1.201530809e-13
1.032622384e-13
8.45288331e-14
8.067256205e-14
7.91754966e-14
7.481828122e-14
7.481828122e-14
7.62560655e-14
8.393832316e-14
8.196416631e-14
7.986668933e-14
7.986668933e-14
8.735967421e-14
9.77115641e-14
1.166404322e-13
1.320927704e-13
1.418159132e-13
1.512431817e-13
1.568164913e-13
1.575877505e-13
1.430631853e-13
1.243378258e-13
9.980772509e-14
6.912903011e-14
5.436091068e-14
5.436091068e-14
1.377008125e-13
3.447282458e-13
7.17907982e-13
1.395921121e-12
2.592277819e-12
4.721681287e-12
8.548628782e-12
1.536815613e-11
2.741855711e-11
4.860624407e-11
8.566628652e-11
1.501993866e-10
2.620159185e-10
4.547361876e-10
7.851114151e-10
1.348421312e-09
2.303662946e-09
3.914622686e-09
6.616336531e-09
1.112184239e-08
1.859258058e-08
3.090854236e-08
5.10934141e-08
8.397893582e-08
1.372352413e-07
2.229566398e-07
3.600835798e-07
5.780721394e-07
9.224080596e-07
1.462822997e-06
2.305431024e-06
3.61049552e-06
5.61819784e-06
8.685652791e-06
1.333954925e-05
2.035023334e-05
3.083483402e-05
4.63991773e-05
6.933072733e-05
0.0001028575552
0.0001514912076
0.0002214740435
0.0003213536806
0.0004627080205
0.0006610430372
0.0009368810834
0.001317048668
0.001836158267
0.002538257677
0.003478592187
0.004725389797
0.006361539635
0.008485992361
0.01121467436
0.01468068302
0.01903352719
0.02443720492
0.03106697546
0.03910478797
0.04873346872
0.06012992826
0.07345780834
0.08886011643
0.1064524671
0.1263175415
0.1485012822
0.1730111738
0.1998167336
0.2288521032
0.2600204145
0.2931994489
0.3282480274
0.3650125675
0.4033333122
0.4430498534
0.4840057054
0.5260518236
0.5690490755
0.6128697588
0.6573983135
0.7025313989
0.7481775074
0.7942562722
0.8406976017
0.8874407497
0.9344332401
0.9816283789
1
1
1
1
1
1
1
1
1
1
1
1
1
1
1
1
1
1
1
1
1
1
1
1
1
1
1
1
1
1
1
1
1
1
1
1
1
1
1
1
1
1
1
1
1
1
1
1
1
1
1
1
1
1
1
1
1
1
1
1
1
1
1
1
1
1
1
1
1
1
1
1
1
1
1
1
1
1
1
1
1
1
1
1
1
1
1
1
1
1
1
1
1
1
1
1
1
1
1
1
1
1
1
1
1
1
1
1
1
1
1
1
1
1
1
1
1
1
1
1
1
1
1
1
1
1
1
1
1
1
1
1
1
1
1
1
1
1
1
1
1
1
1
1
1
1
1
1
1
1
1
1
1
1
1
1
1
1
1
1
1
1
1
1
1
1
1
1
1
1
1
1
1
1
1
1
1
1
1
1
1
1
1
1
1
1
1
1
1
1
1
1
1
1
1
1
1
1
1
1
1
1
1
1
1
1
1
1
1
1
1
1
1
1
1
1
1
1
1
1
1
1
1
1
1
1
1
1
1
1
1
1
1
1
1
1
1
1
1
1
1
1
1
1
1
1
1
1
1
1
1
1
1
1
1
1
1
1
1
1
1
1
1
1
1
1
1
1
1
1
1
1
1
1
1
1
1
1
1
1
1
1
1
1
1
1
1
1
1
1
1
1
1
1
1
1
1
1
1
1
1
1
1
1
1
1
1
1
1
1
1
1
1
1
1
1
1
1
1
1
1
1
1
1
1
1
1
1
1
1
1
1
1
1
1
1
1
1
1
1
1
1
1
1
1
1
1
1
1
1
1
1
1
1
1
1
1
1
1
1
1
1
1
1
1
1
1
1
1
1
1
1
1
1
1
1
1
1
1
1
1
1
1
1
1
1
1
1
1
1
1
1
1
1
1
1
1
1
1
1
1
1
1
1
1
1
1
1
1
1
1
1
1
1
1
1
1
1
1
1
1
1
1
1
1
1
1
1
1
1
1
1
1
1
1
1
1
1
1
1
1
1
1
1
1
1
1
1
1
1
1
1
1
1
1
1
1
1
1
1
1
1
1
1
1
1
1
1
1
1
1
1
1
1
1
1
1
1
1
1
1
1
1
1
1
1
1
1
1
1
1
1
1
1
1
1
1
1
1
1
1
1
1
1
1
1
1
1
1
1
1
1
1
1
1
1
1
1
1
1
1
1
1
1
1
1
1
1
1
1
1
1
1
1
1
1
1
1
1
1
1
1
1
1
1
1
1
1
1
1
1
1
1
1
1
1
1
1
1
1
1
1
1
1
1
1
1
1
1
1
1
0.3449300594
0.07669170266
0.01623085826
0.003397337484
0.0007094608431
0.0001480834654
3.090575271e-05
6.450037829e-06
1.346118166e-06
2.809336637e-07
5.863063288e-08
1.223622696e-08
2.553773841e-09
5.330551266e-10
1.113275606e-10
2.331972372e-11
4.979734755e-12
1.169889919e-12
3.806955965e-13
2.302270166e-13
2.017673073e-13
1.899765866e-13
1.739634245e-13
1.704043042e-13
1.704043042e-13
1.685494467e-13
1.367713441e-13
1.097245872e-13
9.973913915e-14
9.461072082e-14
8.630012145e-14
7.651664843e-14
7.651664843e-14
7.688730657e-14
9.505422267e-14
1.11288231e-13
8.85737846e-14
5.054034702e-14
2.852046929e-14
2.530854083e-14
2.125833174e-14
1.01848392e-14
4.496221667e-15
4.496221667e-15
1.110776553e-14
4.655134121e-15
4.595322777e-15
4.595322777e-15
7.474550513e-15
1.328101676e-14
2.574766077e-14
3.015195439e-14
1.961267594e-14
6.623504577e-15
5.885667562e-15
5.885667562e-15
1.247787236e-14
1.320770005e-14
1.186165898e-14
1.186165898e-14
1.360692548e-14
1.394005952e-14
7.361082811e-15
5.124148195e-15
4.655535178e-15
4.655535178e-15
1.186517164e-14
1.068898066e-14
1.031325571e-14
1.031325571e-14
2.387901625e-14
4.055718226e-14
5.784359506e-14
7.406809367e-14
8.409525154e-14
8.659602459e-14
8.768306447e-14
8.310274572e-14
7.798034222e-14
7.798034222e-14
8.288890648e-14
8.621683552e-14
9.321713938e-14
8.653760757e-14
5.98647263e-14
3.714092707e-14
3.297556265e-14
3.297556265e-14
3.760343226e-14
4.340344554e-14
4.948178336e-14
5.239323531e-14
5.563000297e-14
6.678881733e-14
8.1004682e-14
8.184115585e-14
8.184115585e-14
8.993563545e-14
1.038607257e-13
1.118391542e-13
1.243855392e-13
1.236961927e-13
1.145940391e-13
1.145940391e-13
1.260179088e-13
1.430657936e-13
1.350930712e-13
1.197073203e-13
1.134319577e-13
1.134319577e-13
1.147519536e-13
1.276401071e-13
1.392989957e-13
1.141035e-13
1.082978599e-13
1.082978599e-13
1.189969878e-13
1.120923954e-13
1.107493127e-13
1.107493127e-13
1.193860537e-13
1.262033769e-13
1.30721577e-13
1.398997181e-13
1.476273617e-13
1.546706603e-13
1.664071592e-13
1.582463695e-13
1.408268341e-13
1.182190872e-13
9.369053191e-14
8.762302311e-14
8.762302311e-14
1.042155403e-13
1.216344231e-13
1.055767458e-13
7.78196832e-14
4.890325735e-14
2.539023108e-14
1.209761999e-14
1.209761999e-14
2.520273925e-14
5.073068104e-14
5.655892416e-14
2.656913319e-14
1.23260682e-14
1.23260682e-14
)
;

boundaryField
{
    sides
    {
        type            calculated;
        value           uniform 0;
    }
    empty
    {
        type            empty;
    }
}


// ************************************************************************* //
