/*--------------------------------*- C++ -*----------------------------------*\
| =========                 |                                                 |
| \\      /  F ield         | OpenFOAM: The Open Source CFD Toolbox           |
|  \\    /   O peration     | Version:  v2012                                 |
|   \\  /    A nd           | Website:  www.openfoam.com                      |
|    \\/     M anipulation  |                                                 |
\*---------------------------------------------------------------------------*/
FoamFile
{
    version     2.0;
    format      ascii;
    class       volScalarField;
    location    "0.2";
    object      p;
}
// * * * * * * * * * * * * * * * * * * * * * * * * * * * * * * * * * * * * * //

dimensions      [1 -1 -2 0 0 0 0];


internalField   nonuniform List<scalar> 
1000
(
1
1
1
1
1
1
1
1
1
1
1
1
1
1
1
1
1
1
1
1
1
1
1
1
1
1
1
1
1
1
1
1
1
1
1
1
1
1
1
1
1
1
1
1
1
1
1
1
1
1
1
1
1
1
1
1
1
1
1
1
1
1
1
1
1
1
1
1
1
1
1
1
1
1
1
1
1
1
1
1
1
1
1
1
1
1
1
1
1
1
1
1
1
1
1
1
1
1
1
1
1
1
1
1
1
1
1
1
1
1
1
1
1
1
1
1
1
1
1
1
1
1
1
1
1
1
1
1
1
1
1
1
1
1
1
1
1
1
1
1
1
1
1
1
1
1
1
1
1
1
1
1
1
1
1
1
1
1
1
1
1
1
1
1
1
1
1
1
1
1
1
1
1
1
1
1
1
1
1
1
1
1
1
1
1
1
1
1
1
1
1
1
1
1
1
1
1
1
1
1
1
1
1
1
1
1
1
1
0.9999999999
0.9999999999
0.9999999998
0.9999999997
0.9999999995
0.9999999992
0.9999999986
0.9999999977
0.9999999962
0.9999999938
0.9999999899
0.9999999835
0.9999999734
0.9999999572
0.9999999315
0.9999998912
0.9999998281
0.9999997303
0.9999995794
0.9999993483
0.9999989969
0.9999984663
0.9999976706
0.9999964864
0.999994737
0.9999921722
0.9999884411
0.9999830563
0.9999753478
0.999964404
0.999948999
0.9999275023
0.9998977722
0.9998570309
0.9998017235
0.999727365
0.9996283812
0.9994979538
0.9993278841
0.9991084909
0.9988285643
0.9984753955
0.9980349027
0.9974918689
0.9968302985
0.9960338907
0.9950866107
0.9939733278
0.992680477
0.9911966891
0.989513335
0.987624934
0.9855293869
0.9832280152
0.9807254078
0.9780290944
0.9751490865
0.9720973311
0.9688871292
0.9655325659
0.9620479904
0.9584475723
0.9547449486
0.9509529656
0.9470835084
0.9431474087
0.9391544146
0.9351132084
0.9310314574
0.9269158843
0.9227723482
0.9186059255
0.9144209575
0.9102214858
0.9060117688
0.9017939483
0.8975699768
0.8933414322
0.8891100753
0.8848789015
0.8806509319
0.8764279678
0.8722112399
0.8680017487
0.8638003858
0.8596079396
0.8554251119
0.8512525301
0.8470907571
0.8429402978
0.8388016054
0.8346750855
0.8305610997
0.8264599688
0.8223719747
0.8182973641
0.8142363521
0.8101891291
0.8061558699
0.8021367466
0.798131943
0.7941416441
0.7901659911
0.7862050856
0.7822590247
0.7783278926
0.7744117633
0.7705107011
0.7666247621
0.762753994
0.7588984377
0.7550581272
0.7512330904
0.7474233497
0.7436289221
0.73984982
0.7360860511
0.7323376194
0.7286045248
0.7248867638
0.7211843297
0.7174972128
0.7138254005
0.7101688779
0.7065276273
0.702901629
0.6992908613
0.6956953002
0.6921149204
0.6885496944
0.6849995936
0.6814645874
0.6779446444
0.6744397314
0.6709498142
0.6674748575
0.6640148247
0.6605696783
0.65713938
0.6537238903
0.6503231691
0.6469371752
0.6435658668
0.6402092015
0.6368671359
0.633539626
0.6302266274
0.6269280949
0.6236439828
0.6203742448
0.6171188342
0.6138777039
0.6106508063
0.6074380933
0.6042395167
0.6010550276
0.5978845773
0.5947281163
0.5915855954
0.5884569649
0.585342175
0.582241176
0.5791539177
0.5760803504
0.5730204241
0.5699740889
0.5669412949
0.5639219925
0.5609161322
0.5579236644
0.5549445399
0.5519787097
0.5490261251
0.5460867374
0.5431604985
0.5402473603
0.5373472752
0.534460196
0.5315860755
0.5287248671
0.5258765246
0.523041002
0.5202182539
0.5174082351
0.5146109008
0.5118262062
0.5090541067
0.506294558
0.5035475165
0.5008129408
0.4980907918
0.4953810351
0.4926836405
0.4899985831
0.487325842
0.4846653994
0.4820172382
0.4793813418
0.4767576959
0.4741462972
0.471547162
0.4689603029
0.4663856845
0.4638232806
0.4612730526
0.4587349283
0.4562089452
0.4536950337
0.4511930644
0.4487032197
0.4462254617
0.4437594393
0.4413055391
0.4388639353
0.436433881
0.4340157598
0.4316102844
0.4292164129
0.4268339224
0.4244641229
0.4221064308
0.4197597058
0.4174249642
0.4151029659
0.4127922567
0.4104924773
0.408205347
0.4059307778
0.4036669216
0.4014142645
0.3991748304
0.3969476506
0.3947308132
0.3925257051
0.3903343661
0.3881548293
0.3859853158
0.3838281068
0.3816852443
0.379553752
0.3774318592
0.3753228029
0.3732284294
0.371145422
0.3690717226
0.3670109622
0.3649651596
0.3629310911
0.3609059396
0.3588930907
0.3568958083
0.3549103459
0.3529325806
0.3509681502
0.3490197361
0.3470804722
0.3451521668
0.3432388682
0.3413368917
0.3394436482
0.3375665351
0.3357035031
0.3338479223
0.3320081709
0.3301840726
0.328371654
0.3265746291
0.3247930992
0.3230282868
0.3212819048
0.3195572
0.3178583818
0.3161910837
0.3145623489
0.3129813816
0.311460024
0.3100131202
0.3086586858
0.3074170351
0.3063095617
0.3053557193
0.3045695598
0.3039554209
0.3035056934
0.3032004496
0.3030114204
0.3029068661
0.3028577241
0.3028401684
0.3028373731
0.3028417915
0.3028579478
0.3028911838
0.3029320794
0.3029609345
0.3029824626
0.3030012464
0.3030180592
0.3030327463
0.3030451831
0.3030554723
0.303063943
0.3030710628
0.3030772946
0.303082979
0.3030882378
0.3030929903
0.303097038
0.3031002196
0.3031024933
0.3031039734
0.3031048557
0.3031053599
0.3031057035
0.3031060555
0.3031067569
0.3031083657
0.3031102381
0.3031110918
0.3031116001
0.3031121458
0.3031129773
0.3031142059
0.303115015
0.3031152798
0.3031149991
0.3031150864
0.303115502
0.303115949
0.3031155862
0.3031155359
0.3031155415
0.3031154803
0.3031153571
0.3031152995
0.3031152744
0.3031151804
0.3031150235
0.303114938
0.3031148322
0.3031146976
0.3031145792
0.3031144559
0.3031143116
0.30311414
0.303113946
0.3031137398
0.3031135235
0.3031133212
0.3031131009
0.3031128487
0.3031125604
0.3031122461
0.3031119637
0.3031117154
0.3031114791
0.3031112296
0.3031109787
0.3031107224
0.3031104973
0.3031103037
0.3031101234
0.3031099277
0.3031097295
0.3031095544
0.3031094012
0.3031092457
0.3031090918
0.3031089568
0.3031088286
0.303108687
0.3031085655
0.3031084558
0.3031083315
0.3031082329
0.3031081347
0.3031080453
0.3031079621
0.3031078847
0.3031078294
0.3031077797
0.3031077167
0.3031076566
0.3031076125
0.3031075654
0.303107538
0.3031075069
0.3031074951
0.3031074721
0.3031074659
0.3031074521
0.3031074522
0.3031074439
0.3031074455
0.3031074373
0.3031074405
0.3031074281
0.3031074378
0.3031074639
0.3031075021
0.3031075473
0.3031074864
0.3031075138
0.3031075814
0.3031075008
0.3031075317
0.3031076132
0.303107493
0.3031075235
0.3031076042
0.3031077095
0.3031075934
0.3031076001
0.3031076426
0.3031077165
0.3031076938
0.3031076543
0.303107676
0.303107748
0.3031078342
0.3031077174
0.3031077403
0.3031078079
0.30310788
0.3031078096
0.3031078266
0.3031078647
0.3031079121
0.303107889
0.3031079253
0.3031079198
0.3031079687
0.3031079467
0.303108006
0.3031079701
0.3031080387
0.3031079901
0.3031080699
0.303108008
0.3031081095
0.30310802
0.3031081738
0.3031080121
0.3031082963
0.3031079393
0.3031085406
0.3031077067
0.3031090584
0.3031071335
0.3031101724
0.3031058533
0.3031124686
0.3031031887
0.3031169599
0.3030979853
0.303125236
0.3030884293
0.3031395166
0.3030720383
0.3031625115
0.3030459518
0.3031967206
0.3030078101
0.3032430651
0.3029575175
0.3032990491
0.3028995522
0.3033570625
0.3028449087
0.3034043099
0.3028106316
0.3034252933
0.3028149997
0.3034064248
0.3028690799
0.3033368736
0.302987339
0.3032052366
0.3031083813
0.3029927419
0.3031053264
0.3031235526
0.3031170347
0.3031144089
0.3031140567
0.3031138024
0.3031136171
0.3031134859
0.3031133972
0.3031133361
0.3031132949
0.3031132742
0.3031132698
0.3031132718
0.3031132779
0.3031132881
0.3031133014
0.3031133145
0.3031133254
0.3031133349
0.3031133435
0.3031133515
0.3031133596
0.3031133682
0.3031133781
0.3031133896
0.3031134021
0.3031134154
0.3031134293
0.3031134432
0.3031134563
0.3031134672
0.3031134764
0.3031134842
0.303113491
0.3031134977
0.3031135047
0.3031135124
0.3031135208
0.30311353
0.3031135402
0.3031135512
0.3031135632
0.3031135757
0.3031135872
0.3031135975
0.3031136066
0.303113615
0.3031136235
0.3031136322
0.3031136411
0.30311365
0.3031136583
0.3031136663
0.3031136753
0.3031136854
0.3031136959
0.3031137052
0.3031137129
0.3031137192
0.3031137252
0.3031137317
0.3031137384
0.3031137444
0.3031137489
0.3031137525
0.3031137578
0.3031137656
0.3031137748
0.3031137842
0.303113793
0.3031138024
0.3031138127
0.3031138227
0.303113832
0.3031138339
0.3031138382
0.3031138469
0.3031138606
0.3031138751
0.3031138852
0.3031138833
0.3031138797
0.3031138746
0.3031138785
0.3031138944
0.3031139114
0.3031139128
0.3031139099
0.3031139031
0.3031139056
0.3031139228
0.3031139449
0.3031139601
0.3031139603
0.3031139532
0.3031139448
0.3031139522
0.3031139794
0.3031140072
0.3031140168
0.3031139992
0.3031139795
0.3031139799
0.3031140067
0.3031140573
0.3031140911
0.303114059
0.3031140109
0.303113986
0.3031140121
0.3031140967
0.3031141487
0.3031141115
0.3031140095
0.3031139455
0.3031139633
0.3031140715
0.3031141473
0.3031141085
0.3031139718
0.3031138936
0.3031139199
0.3031140594
0.3031141482
0.3031140817
0.3031138947
0.3031138146
0.3031138412
0.303114016
0.3031141207
0.3031140081
0.3031137681
0.3031136814
0.3031137091
0.3031139278
0.3031140347
0.3031138732
0.3031135726
0.303113484
0.3031135183
0.3031137853
0.3031138659
0.3031136343
0.3031132586
0.3031132066
0.3031132766
0.3031135163
0.3031134039
0.3031126962
0.3031118698
0.3031097213
0.3031058371
0.3030939875
0.3030645326
0.3029915983
0.302803309
0.3023349026
0.3011451458
0.2981651076
0.2907927464
0.2731234508
0.2340654
0.1673916652
0.1194883985
0.1044952956
0.1009614176
0.100202392
0.100042474
0.1000089079
0.1000018679
0.1000003917
0.1000000821
0.1000000172
0.1000000036
0.1000000008
0.1000000002
0.1
0.1
0.1
0.1
0.1
0.1
0.1
0.1
0.1
0.1
0.1
0.1
0.1
0.1
0.1
0.1
0.1
0.1
0.1
0.1
0.1
0.1
0.1
0.1
0.1
0.1
0.1
0.1
0.1
0.1
0.1
0.1
0.1
0.1
0.1
0.1
0.1
0.1
0.1
0.1
0.1
0.1
0.1
0.1
0.1
0.1
0.1
0.1
0.1
0.1
0.1
0.1
0.1
0.1
0.1
0.1
0.1
0.1
0.1
0.1
0.1
0.1
0.1
0.1
0.1
0.1
0.1
0.1
0.1
0.1
0.1
0.1
0.1
0.1
0.1
0.1
0.1
0.1
0.1
0.1
0.1
0.1
0.1
0.1
0.1
0.1
0.1
0.1
0.1
0.1
0.1
0.1
0.1
0.1
0.1
0.1
0.1
0.1
0.1
0.1
0.1
0.1
0.1
0.1
0.1
0.1
0.1
0.1
0.1
0.1
0.1
0.1
0.1
0.1
0.1
0.1
0.1
0.1
0.1
0.1
0.1
0.1
0.1
0.1
0.1
0.1
0.1
0.1
0.1
0.1
0.1
0.1
0.1
0.1
0.1
)
;

boundaryField
{
    sides
    {
        type            zeroGradient;
    }
    empty
    {
        type            empty;
    }
}


// ************************************************************************* //
