/*--------------------------------*- C++ -*----------------------------------*\
| =========                 |                                                 |
| \\      /  F ield         | OpenFOAM: The Open Source CFD Toolbox           |
|  \\    /   O peration     | Version:  2012                                  |
|   \\  /    A nd           | Website:  www.openfoam.com                      |
|    \\/     M anipulation  |                                                 |
\*---------------------------------------------------------------------------*/
FoamFile
{
    version     2.0;
    format      ascii;
    class       volScalarField;
    location    "0.2";
    object      p;
}
// * * * * * * * * * * * * * * * * * * * * * * * * * * * * * * * * * * * * * //

dimensions      [1 -1 -2 0 0 0 0];


internalField   nonuniform List<scalar> 
1000
(
1
1
1
1
1
1
1
1
1
1
1
1
1
1
1
1
1
1
1
1
1
1
1
1
1
1
1
1
1
1
1
1
1
1
1
1
1
1
1
1
1
1
1
1
1
1
1
1
1
1
1
1
1
1
1
1
1
1
1
1
1
1
1
1
1
1
1
1
1
1
1
1
1
1
1
1
1
1
1
1
1
1
1
1
1
1
1
1
1
1
1
1
1
1
1
1
1
1
1
1
1
1
1
1
1
1
1
1
1
1
1
1
1
1
1
1
1
1
1
1
1
1
1
1
1
1
1
1
1
1
1
1
1
1
1
1
1
1
1
1
1
1
1
1
1
1
1
1
1
1
1
1
1
1
1
1
1
1
1
1
1
1
1
1
1
1
1
1
1
1
1
1
1
1
1
1
1
1
1
1
1
1
1
1
1
1
1
1
1
1
1
1
1
1
1
1
1
1
1
1
1
1
1
1
1
1
1
1
0.9999999999
0.9999999999
0.9999999998
0.9999999997
0.9999999996
0.9999999993
0.9999999987
0.9999999979
0.9999999965
0.9999999943
0.9999999906
0.9999999847
0.9999999752
0.99999996
0.9999999359
0.999999898
0.9999998387
0.9999997465
0.9999996041
0.9999993856
0.9999990529
0.9999985495
0.9999977936
0.9999966668
0.9999949994
0.9999925509
0.9999889833
0.9999838263
0.9999764319
0.9999659173
0.9999510928
0.999930373
0.9999016715
0.9998622768
0.9998087118
0.9997365807
0.9996404085
0.9995134839
0.9993477184
0.9991335391
0.9988598352
0.9985139785
0.9980819403
0.9975485194
0.9968976904
0.9961130707
0.9951784886
0.9940786241
0.9927996759
0.9913300039
0.9896606881
0.9877859547
0.9857034272
0.983414183
0.9809226118
0.9782360993
0.975364571
0.9723199442
0.9691155412
0.965765511
0.9622842983
0.9586861899
0.9549849512
0.9511935599
0.9473240287
0.943387308
0.9393932532
0.9353506405
0.9312672176
0.9271497744
0.9230042248
0.9188356893
0.9146485432
0.9104468562
0.9062349141
0.9020148673
0.8977886732
0.8935579115
0.8893243709
0.8850910666
0.8808610322
0.8766360559
0.8724173687
0.868205971
0.8640027544
0.8598085066
0.8556239283
0.8514496459
0.8472862208
0.8431341568
0.8389939055
0.8348658707
0.8307504124
0.8266478491
0.8225584607
0.8184824914
0.8144201545
0.810371639
0.8063371201
0.802316771
0.7983107786
0.7943193267
0.7903425503
0.7863805505
0.7824334236
0.7785012526
0.7745841107
0.7706820616
0.7667951602
0.7629234537
0.759066982
0.7552257785
0.7513998702
0.7475892789
0.743794021
0.7400141081
0.7362495475
0.7325003423
0.7287664921
0.7250479926
0.7213448368
0.7176570141
0.7139845117
0.710327314
0.7066854029
0.7030587583
0.6994473577
0.6958511772
0.6922701904
0.6887043699
0.6851536862
0.6816181086
0.678097605
0.674592142
0.6711016848
0.6676261978
0.664165644
0.6607199855
0.6572891835
0.6538731981
0.6504719887
0.647085514
0.6437137316
0.6403565986
0.6370140714
0.6336861056
0.6303726565
0.6270736783
0.6237891251
0.6205189503
0.6172631069
0.6140215472
0.6107942236
0.6075810875
0.6043820906
0.6011971837
0.5980263178
0.5948694435
0.5917265111
0.5885974708
0.585482273
0.5823808675
0.5792932046
0.5762192341
0.5731589063
0.5701121712
0.5670789793
0.5640592808
0.5610530264
0.558060167
0.5550806534
0.552114437
0.5491614695
0.5462217027
0.5432950888
0.5403815807
0.5374811311
0.5345936935
0.5317192216
0.5288576695
0.5260089914
0.5231731421
0.5203500768
0.5175397508
0.51474212
0.5119571403
0.5091847683
0.5064249617
0.5036776795
0.5009428839
0.4982205403
0.4955106184
0.4928130922
0.49012794
0.4874551434
0.4847946867
0.4821465565
0.4795107429
0.4768872428
0.4742760631
0.4716771983
0.4690906034
0.466516245
0.4639541084
0.4614041188
0.4588662563
0.4563405619
0.4538269012
0.4513252624
0.4488358743
0.4463584521
0.4438928553
0.4414396406
0.4389983974
0.436568646
0.4341512431
0.4317461261
0.4293523082
0.4269703762
0.4246012092
0.4222436043
0.4198971295
0.4175633342
0.4152418648
0.4129311932
0.4106320922
0.4083459633
0.4060715615
0.4038076713
0.4015559504
0.3993173334
0.397090022
0.3948731908
0.3926692771
0.390478617
0.3882985519
0.3861290333
0.3839730444
0.3818305164
0.3796981263
0.3775761969
0.3754684182
0.3733744262
0.3712903046
0.369216441
0.3671568309
0.3651113141
0.3630757699
0.3610498834
0.3590376751
0.357040498
0.355053324
0.353074623
0.3511099466
0.3491607034
0.3472211471
0.3452908413
0.3433759663
0.3414738727
0.3395793906
0.3377006768
0.3358364386
0.3339799479
0.3321391152
0.3303141728
0.3285010258
0.32670322
0.3249212884
0.3231563124
0.321410053
0.3196858292
0.317987834
0.3163216052
0.3146939923
0.3131139278
0.3115929316
0.3101454644
0.3087891471
0.3075439669
0.3064311923
0.3054704696
0.3046764078
0.3040541892
0.3035971303
0.3032860296
0.3030929322
0.3029859694
0.3029356633
0.3029176865
0.3029148133
0.3029193186
0.3029357285
0.3029694009
0.3030106202
0.3030398056
0.3030618415
0.3030811233
0.303098289
0.3031131499
0.3031256098
0.3031358351
0.3031442007
0.3031511972
0.303157287
0.3031628015
0.3031678607
0.3031723882
0.3031762057
0.3031791621
0.3031812431
0.3031825713
0.3031833582
0.30318384
0.3031842355
0.3031847498
0.3031857734
0.3031878003
0.3031895831
0.3031901194
0.3031902868
0.3031902307
0.303190569
0.3031919688
0.3031928315
0.3031926983
0.3031927253
0.3031928252
0.3031931036
0.3031934769
0.3031930051
0.3031930356
0.303193162
0.303192908
0.3031928432
0.3031928086
0.303192741
0.3031926319
0.3031925215
0.3031924641
0.3031923598
0.3031922166
0.303192069
0.30319191
0.3031917349
0.3031915498
0.3031913481
0.3031911064
0.3031908191
0.3031904942
0.3031901527
0.3031898498
0.3031895612
0.3031892944
0.303189046
0.3031887973
0.3031885237
0.3031882486
0.3031880202
0.3031878204
0.3031876303
0.3031874263
0.3031872092
0.3031870048
0.3031868194
0.3031866442
0.3031864562
0.3031862524
0.3031860439
0.303185868
0.3031857222
0.3031855807
0.3031854259
0.3031852861
0.3031851717
0.3031850603
0.3031849319
0.3031848237
0.3031847314
0.3031846319
0.3031845429
0.3031844672
0.3031844006
0.3031843588
0.3031843118
0.30318425
0.3031841979
0.3031841713
0.3031841312
0.3031840843
0.3031840557
0.3031840255
0.3031840038
0.303183974
0.3031839515
0.303183924
0.3031839107
0.3031838875
0.3031838858
0.3031838621
0.3031838655
0.3031838436
0.3031838503
0.3031838324
0.30318384
0.3031838262
0.3031838345
0.3031838236
0.3031838341
0.3031838241
0.3031838384
0.3031838297
0.3031838482
0.3031838376
0.3031838588
0.3031838701
0.3031839031
0.3031838775
0.3031838994
0.3031839154
0.3031839531
0.3031839305
0.3031839548
0.3031839592
0.3031839905
0.3031839723
0.3031839965
0.3031839788
0.3031840019
0.3031839757
0.3031840001
0.3031839676
0.3031839987
0.3031839588
0.3031840014
0.3031839513
0.3031840091
0.3031839479
0.303184025
0.3031839476
0.303184051
0.3031839384
0.3031840934
0.3031839039
0.3031841888
0.3031838088
0.3031844151
0.3031835657
0.3031849289
0.3031829962
0.3031860477
0.303181727
0.3031883414
0.3031790682
0.3031928052
0.3031738604
0.3032010299
0.3031642989
0.3032152571
0.3031479005
0.3032382124
0.3031217914
0.3032724148
0.3030835969
0.303318803
0.3030331956
0.3033748685
0.3029750834
0.3034329863
0.3029203182
0.3034803177
0.30288607
0.3035013266
0.3028907012
0.303482359
0.3029452996
0.3034124084
0.3030644633
0.3032799579
0.3031842173
0.303066219
0.303184824
0.3031992834
0.3031925954
0.3031901488
0.3031897977
0.3031895514
0.3031893827
0.3031892775
0.3031892211
0.3031891931
0.303189179
0.3031891703
0.3031891614
0.3031891509
0.30318914
0.3031891269
0.3031891233
0.3031891319
0.3031891518
0.3031891794
0.3031892105
0.3031892421
0.303189269
0.3031892884
0.3031892992
0.3031893061
0.3031893175
0.3031893382
0.3031893638
0.3031893925
0.3031894047
0.3031894491
0.3031894636
0.3031894816
0.3031895171
0.303189546
0.3031895739
0.3031896064
0.3031896341
0.3031896634
0.3031896924
0.3031897214
0.3031897499
0.3031897767
0.3031898018
0.3031898253
0.303189847
0.3031898665
0.3031898829
0.3031898963
0.3031899081
0.3031899207
0.3031899339
0.3031899466
0.303189957
0.3031899676
0.303189986
0.3031900172
0.3031900556
0.3031900943
0.3031901236
0.3031901396
0.3031901409
0.3031901396
0.3031901519
0.3031901849
0.3031902261
0.3031902609
0.3031902901
0.3031902909
0.3031903029
0.3031903303
0.3031903748
0.3031904127
0.3031904331
0.3031904552
0.3031904792
0.3031905133
0.303190562
0.3031906071
0.3031906305
0.3031906491
0.3031906699
0.3031906977
0.3031907242
0.3031907328
0.3031907252
0.3031907234
0.3031907274
0.3031907527
0.3031908006
0.3031908479
0.3031908662
0.3031908668
0.303190865
0.3031908797
0.3031909352
0.3031909905
0.3031910335
0.303191061
0.303191071
0.3031910621
0.3031910786
0.3031911331
0.303191192
0.3031912369
0.3031912569
0.3031912602
0.3031912704
0.3031913196
0.303191383
0.303191423
0.3031914443
0.3031914519
0.3031914665
0.3031915233
0.3031915873
0.3031916359
0.3031916718
0.3031916752
0.3031916961
0.3031917319
0.3031917523
0.3031917371
0.3031916731
0.3031916343
0.3031916536
0.3031917414
0.3031918344
0.3031918778
0.303191894
0.3031918533
0.303191802
0.3031917696
0.3031917797
0.3031918506
0.3031920054
0.3031920767
0.3031919826
0.3031917582
0.3031916957
0.3031918645
0.3031921597
0.303192212
0.3031919274
0.3031916293
0.3031916384
0.303191808
0.3031920026
0.3031916767
0.3031908617
0.3031886808
0.3031850968
0.3031746298
0.3031482256
0.3030820614
0.3029111825
0.3024857187
0.3014030727
0.298688571
0.2919489208
0.2756913126
0.2392444392
0.1741012354
0.1220902608
0.1051452378
0.1010987122
0.1002303363
0.1000481155
0.1000100437
0.1000020962
0.1000004375
0.1000000913
0.1000000191
0.100000004
0.1000000008
0.1000000002
0.1
0.1
0.1
0.1
0.1
0.1
0.1
0.1
0.1
0.1
0.1
0.1
0.1
0.1
0.1
0.1
0.1
0.1
0.1
0.1
0.1
0.1
0.1
0.1
0.1
0.1
0.1
0.1
0.1
0.1
0.1
0.1
0.1
0.1
0.1
0.1
0.1
0.1
0.1
0.1
0.1
0.1
0.1
0.1
0.1
0.1
0.1
0.1
0.1
0.1
0.1
0.1
0.1
0.1
0.1
0.1
0.1
0.1
0.1
0.1
0.1
0.1
0.1
0.1
0.1
0.1
0.1
0.1
0.1
0.1
0.1
0.1
0.1
0.1
0.1
0.1
0.1
0.1
0.1
0.1
0.1
0.1
0.1
0.1
0.1
0.1
0.1
0.1
0.1
0.1
0.1
0.1
0.1
0.1
0.1
0.1
0.1
0.1
0.1
0.1
0.1
0.1
0.1
0.1
0.1
0.1
0.1
0.1
0.1
0.1
0.1
0.1
0.1
0.1
0.1
0.1
0.1
0.1
0.1
0.1
0.1
0.1
0.1
0.1
0.1
0.1
0.1
0.1
0.1
0.1
0.1
0.1
0.1
0.1
0.1
)
;

boundaryField
{
    sides
    {
        type            zeroGradient;
    }
    empty
    {
        type            empty;
    }
}


// ************************************************************************* //
