/*--------------------------------*- C++ -*----------------------------------*\
| =========                 |                                                 |
| \\      /  F ield         | OpenFOAM: The Open Source CFD Toolbox           |
|  \\    /   O peration     | Version:  2012                                  |
|   \\  /    A nd           | Website:  www.openfoam.com                      |
|    \\/     M anipulation  |                                                 |
\*---------------------------------------------------------------------------*/
FoamFile
{
    version     2.0;
    format      ascii;
    class       surfaceScalarField;
    location    "0.2";
    object      phi1_own_;
}
// * * * * * * * * * * * * * * * * * * * * * * * * * * * * * * * * * * * * * //

dimensions      [1 0 -1 0 0 0 0];
oriented        oriented;


internalField   nonuniform List<scalar> 
999
(
10772.37315
10772.37315
10772.37315
10772.37315
10772.37315
10772.37315
10772.37315
10772.37315
10772.37315
10772.37315
10772.37315
10772.37315
10772.37315
10772.37315
10772.37315
10772.37315
10772.37315
10772.37315
10772.37315
10772.37315
10772.37315
10772.37315
10772.37315
10772.37315
10772.37315
10772.37315
10772.37315
10772.37315
10772.37315
10772.37315
10772.37315
10772.37315
10772.37315
10772.37315
10772.37315
10772.37315
10772.37315
10772.37315
10772.37315
10772.37315
10772.37315
10772.37315
10772.37315
10772.37315
10772.37315
10772.37315
10772.37315
10772.37315
10772.37315
10772.37315
10772.37315
10772.37315
10772.37315
10772.37315
10772.37315
10772.37315
10772.37315
10772.37315
10772.37315
10772.37315
10772.37315
10772.37315
10772.37315
10772.37315
10772.37315
10772.37315
10772.37315
10772.37315
10772.37315
10772.37315
10772.37315
10772.37315
10772.37315
10772.37315
10772.37315
10772.37315
10772.37315
10772.37315
10772.37315
10772.37315
10772.37315
10772.37315
10772.37315
10772.37315
10772.37315
10772.37315
10772.37315
10772.37315
10772.37315
10772.37315
10772.37315
10772.37315
10772.37315
10772.37315
10772.37315
10772.37315
10772.37315
10772.37315
10772.37315
10772.37315
10772.37315
10772.37315
10772.37315
10772.37315
10772.37315
10772.37315
10772.37315
10772.37315
10772.37315
10772.37315
10772.37315
10772.37315
10772.37315
10772.37315
10772.37315
10772.37315
10772.37315
10772.37315
10772.37315
10772.37315
10772.37315
10772.37315
10772.37315
10772.37315
10772.37315
10772.37315
10772.37315
10772.37315
10772.37315
10772.37315
10772.37315
10772.37315
10772.37315
10772.37315
10772.37315
10772.37315
10772.37315
10772.37315
10772.37315
10772.37315
10772.37315
10772.37315
10772.37315
10772.37315
10772.37315
10772.37315
10772.37315
10772.37315
10772.37315
10772.37315
10772.37315
10772.37315
10772.37315
10772.37315
10772.37315
10772.37315
10772.37315
10772.37315
10772.37315
10772.37315
10772.37315
10772.37315
10772.37315
10772.37315
10772.37315
10772.37315
10772.37315
10772.37315
10772.37315
10772.37315
10772.37315
10772.37315
10772.37315
10772.37315
10772.37315
10772.37315
10772.37315
10772.37315
10772.37315
10772.37315
10772.37315
10772.37315
10772.37315
10772.37315
10772.37315
10772.37315
10772.37315
10772.37315
10772.37315
10772.37315
10772.37315
10772.37315
10772.37315
10772.37315
10772.37315
10772.37315
10772.37315
10772.37315
10772.37315
10772.37315
10772.37315
10772.37315
10772.37315
10772.37315
10772.37315
10772.37315
10772.37315
10772.37315
10772.37315
10772.37315
10772.37315
10772.37315
10772.37315
10772.37315
10772.37315
10772.37315
10772.37316
10772.37316
10772.37316
10772.37316
10772.37316
10772.37316
10772.37317
10772.37317
10772.37318
10772.3732
10772.37322
10772.37326
10772.37332
10772.37341
10772.37355
10772.37376
10772.37407
10772.37453
10772.37521
10772.37621
10772.37764
10772.3797
10772.38263
10772.38676
10772.39253
10772.40052
10772.41146
10772.42632
10772.44629
10772.47284
10772.50775
10772.55318
10772.61161
10772.6859
10772.77922
10772.89503
10773.037
10773.20886
10773.41429
10773.65677
10773.93941
10774.26478
10774.6348
10775.05067
10775.51277
10776.02069
10776.57331
10777.16881
10777.8049
10778.47887
10779.18777
10779.92855
10780.69815
10781.49361
10782.31214
10783.15115
10784.00829
10784.88147
10785.7688
10786.66865
10787.57959
10788.50036
10789.4299
10790.36726
10791.31159
10792.26228
10793.21861
10794.17991
10795.14598
10796.11673
10797.09184
10798.0699
10799.0507
10800.03408
10801.02
10802.00819
10802.99846
10803.99066
10804.98465
10805.98028
10806.97744
10807.97602
10808.97591
10809.97703
10810.97929
10811.98262
10812.98696
10813.99223
10814.9984
10816.0054
10817.01317
10818.02161
10819.03065
10820.04034
10821.05067
10822.06158
10823.07304
10824.08503
10825.0975
10826.11045
10827.12383
10828.13764
10829.15185
10830.16644
10831.1814
10832.1967
10833.21233
10834.22827
10835.24452
10836.26106
10837.27788
10838.29496
10839.3123
10840.32988
10841.3477
10842.36575
10843.38401
10844.40249
10845.42117
10846.44004
10847.45911
10848.47836
10849.49779
10850.51739
10851.53716
10852.55709
10853.57718
10854.59743
10855.61783
10856.63837
10857.65906
10858.67989
10859.70086
10860.72196
10861.7432
10862.76457
10863.78606
10864.80769
10865.82944
10866.85131
10867.87331
10868.89543
10869.91767
10870.94003
10871.96251
10872.98511
10874.00783
10875.03067
10876.05363
10877.07671
10878.0999
10879.12322
10880.14665
10881.17021
10882.19389
10883.21769
10884.24161
10885.26565
10886.28981
10887.3141
10888.33851
10889.36305
10890.38771
10891.4125
10892.43741
10893.46245
10894.48762
10895.51291
10896.53833
10897.56387
10898.58954
10899.61534
10900.64126
10901.66731
10902.69349
10903.71979
10904.74621
10905.77276
10906.79943
10907.82621
10908.85311
10909.88012
10910.90724
10911.93445
10912.96175
10913.98913
10915.01659
10916.0441
10917.07165
10918.09921
10919.1268
10920.15442
10921.18205
10922.20962
10923.23723
10924.26482
10925.29221
10926.31971
10927.34732
10928.37427
10929.40142
10930.42938
10931.4557
10932.48205
10933.51042
10934.53657
10935.56136
10936.58928
10937.61623
10938.63989
10939.66442
10940.69369
10941.71778
10942.73879
10943.76648
10944.79268
10945.81327
10946.83349
10947.86283
10948.88566
10949.90202
10950.9233
10951.95254
10952.97154
10953.98366
10955.00617
10956.03382
10957.0483
10958.05552
10959.07837
10960.10424
10961.11392
10962.11504
10963.13687
10964.16082
10965.16639
10966.16076
10967.17816
10968.20061
10969.20357
10970.19083
10971.20037
10972.22098
10973.2249
10974.2036
10975.20582
10976.22129
10977.21062
10978.19922
10979.19437
10980.19032
10981.17549
10982.1705
10983.16441
10984.13122
10985.11845
10986.09938
10987.0695
10988.03731
10989.00528
10989.96905
10990.92503
10991.87096
10992.8053
10993.72484
10994.62431
10995.49743
10996.33634
10997.13216
10997.87381
10998.54854
10999.14405
10999.65066
11000.06037
11000.37615
11000.60062
11000.75137
11000.84045
11000.89068
11000.9112
11000.92177
11000.93602
11000.95492
11000.95951
11000.94466
11000.88578
11000.85911
11000.84658
11000.838
11000.83032
11000.82327
11000.8169
11000.81151
11000.80714
11000.80392
11000.80181
11000.80059
11000.79996
11000.79958
11000.79936
11000.79923
11000.7993
11000.79968
11000.80036
11000.80166
11000.80356
11000.80616
11000.80958
11000.80968
11000.80854
11000.80943
11000.81071
11000.81328
11000.81838
11000.81709
11000.81621
11000.81779
11000.81983
11000.82225
11000.82663
11000.82652
11000.82835
11000.83141
11000.83212
11000.83402
11000.8359
11000.83797
11000.84007
11000.8424
11000.84481
11000.84713
11000.84971
11000.85254
11000.85551
11000.85884
11000.86201
11000.86494
11000.86763
11000.87031
11000.8727
11000.87526
11000.8778
11000.8804
11000.88311
11000.8859
11000.88879
11000.89174
11000.89487
11000.89803
11000.90119
11000.90437
11000.90758
11000.91087
11000.91421
11000.91761
11000.92108
11000.92459
11000.92823
11000.93198
11000.93572
11000.93937
11000.94295
11000.94652
11000.95014
11000.95384
11000.95766
11000.96161
11000.9658
11000.97009
11000.97445
11000.97893
11000.98341
11000.98791
11000.9924
11000.99691
11001.00152
11001.00633
11001.01127
11001.01635
11001.02167
11001.02716
11001.03274
11001.03842
11001.04415
11001.04992
11001.05571
11001.06151
11001.06734
11001.07328
11001.0793
11001.08558
11001.09196
11001.09873
11001.1056
11001.11283
11001.12015
11001.12779
11001.13549
11001.14347
11001.15149
11001.15981
11001.16819
11001.1769
11001.18567
11001.19483
11001.20408
11001.21369
11001.22343
11001.23365
11001.24395
11001.25464
11001.26549
11001.27683
11001.28823
11001.30004
11001.31195
11001.32434
11001.33675
11001.34967
11001.36264
11001.3762
11001.38983
11001.40418
11001.4186
11001.43396
11001.44944
11001.46615
11001.48302
11001.50149
11001.52015
11001.54087
11001.56181
11001.58537
11001.6092
11001.63677
11001.66472
11001.69929
11001.73447
11001.78367
11001.83406
11001.91623
11002.00164
11002.15897
11002.32517
11002.65053
11002.99662
11003.68136
11004.41219
11005.82912
11007.34323
11010.17675
11013.20479
11018.63592
11024.43721
11034.37543
11044.984
11062.30749
11080.78528
11109.50743
11140.44316
11185.34449
11234.37151
11301.01687
11374.39186
11468.17642
11571.6255
11696.45881
11833.53262
11990.12931
12160.27596
12344.38334
12546.54578
12721.56393
12869.88416
12992.94785
13093.02668
13173.2247
13236.5656
13285.89907
13323.8094
13352.56387
13374.09732
13390.02198
13401.6531
13410.04328
13416.02032
13420.22452
13423.14349
13425.1432
13426.49416
13427.39352
13427.983
13428.36315
13428.60419
13428.75459
13428.84729
13428.90433
13428.94031
13428.96478
13428.98384
13429.00073
13429.01771
13429.03499
13429.05348
13429.07464
13429.09965
13429.12955
13429.16518
13429.20658
13429.25313
13429.30521
13429.35214
13429.39354
13429.43024
13429.46295
13429.49221
13429.51845
13429.54202
13429.56324
13429.58235
13429.59958
13429.61513
13429.62916
13429.64183
13429.65326
13429.66351
13429.67263
13429.68076
13429.68797
13429.69428
13429.6998
13429.70457
13429.70858
13429.7121
13429.71509
13429.71763
13429.71988
13429.72182
13429.72362
13429.72512
13429.72646
13429.72783
13429.72916
13429.73048
13429.73163
13429.73287
13429.73418
13429.73542
13429.73663
13429.73785
13429.73888
13429.73981
13429.74071
13429.7416
13429.74244
13429.74331
13429.74406
13429.74489
13429.74579
13429.74673
13429.74777
13429.74878
13429.74988
13429.75078
13429.75161
13429.75233
13429.75312
13429.75373
13429.75423
13429.7547
13429.75524
13429.75576
13429.75637
13429.7571
13429.75775
13429.75835
13429.75912
13429.75993
13429.76063
13429.76137
13429.76186
13429.76236
13429.76268
13429.76302
13429.76338
13429.76388
13429.76433
13429.76471
13429.76516
13429.76572
13429.76646
13429.76726
13429.76811
13429.76891
13429.76936
13429.76983
13429.77036
13429.77076
13429.77122
13429.77143
13429.77148
13429.77185
13429.77209
13429.7726
13429.77318
13429.77385
13429.77472
13429.77585
13429.77618
13429.77609
13429.77644
13429.77686
13429.77743
13429.77779
13429.77618
13429.77536
13429.77513
13429.77538
13429.7762
13429.77596
13429.77302
13429.76987
13429.76122
13429.74448
13429.67937
13429.53374
13429.1615
13428.20031
13425.82701
13419.71075
13404.35043
13365.37073
13266.59747
13016.81723
12399.12088
11020.74528
10050.97722
9734.031473
9656.145158
9639.254481
9635.70346
9634.961423
9634.806528
9634.7742
9634.767453
9634.766045
9634.765751
9634.76569
9634.765677
9634.765674
9634.765674
9634.765674
9634.765674
9634.765674
9634.765674
9634.765674
9634.765674
9634.765674
9634.765674
9634.765674
9634.765674
9634.765674
9634.765674
9634.765674
9634.765674
9634.765674
9634.765674
9634.765674
9634.765674
9634.765674
9634.765674
9634.765674
9634.765674
9634.765674
9634.765674
9634.765674
9634.765674
9634.765674
9634.765674
9634.765674
9634.765674
9634.765674
9634.765674
9634.765674
9634.765674
9634.765674
9634.765674
9634.765674
9634.765674
9634.765674
9634.765674
9634.765674
9634.765674
9634.765674
9634.765674
9634.765674
9634.765674
9634.765674
9634.765674
9634.765674
9634.765674
9634.765674
9634.765674
9634.765674
9634.765674
9634.765674
9634.765674
9634.765674
9634.765674
9634.765674
9634.765674
9634.765674
9634.765674
9634.765674
9634.765674
9634.765674
9634.765674
9634.765674
9634.765674
9634.765674
9634.765674
9634.765674
9634.765674
9634.765674
9634.765674
9634.765674
9634.765674
9634.765674
9634.765674
9634.765674
9634.765674
9634.765674
9634.765674
9634.765674
9634.765674
9634.765674
9634.765674
9634.765674
9634.765674
9634.765674
9634.765674
9634.765674
9634.765674
9634.765674
9634.765674
9634.765674
9634.765674
9634.765674
9634.765674
9634.765674
9634.765674
9634.765674
9634.765674
9634.765674
9634.765674
9634.765674
9634.765674
9634.765674
9634.765674
9634.765674
9634.765674
9634.765674
9634.765674
9634.765674
9634.765674
9634.765674
9634.765674
9634.765674
9634.765674
9634.765674
9634.765674
9634.765674
9634.765674
9634.765674
9634.765674
9634.765674
9634.765674
9634.765674
9634.765674
9634.765674
9634.765674
9634.765674
9634.765674
)
;

boundaryField
{
    sides
    {
        type            calculated;
        value           nonuniform List<scalar> 2(9634.765674 10772.37315);
    }
    empty
    {
        type            empty;
        value           nonuniform List<scalar> 0();
    }
}


// ************************************************************************* //
