/*--------------------------------*- C++ -*----------------------------------*\
| =========                 |                                                 |
| \\      /  F ield         | OpenFOAM: The Open Source CFD Toolbox           |
|  \\    /   O peration     | Version:  2012                                  |
|   \\  /    A nd           | Website:  www.openfoam.com                      |
|    \\/     M anipulation  |                                                 |
\*---------------------------------------------------------------------------*/
FoamFile
{
    version     2.0;
    format      ascii;
    class       surfaceScalarField;
    location    "0.2";
    object      phi1_nei_;
}
// * * * * * * * * * * * * * * * * * * * * * * * * * * * * * * * * * * * * * //

dimensions      [1 0 -1 0 0 0 0];
oriented        oriented;


internalField   nonuniform List<scalar> 
999
(
-10772.37315
-10772.37315
-10772.37315
-10772.37315
-10772.37315
-10772.37315
-10772.37315
-10772.37315
-10772.37315
-10772.37315
-10772.37315
-10772.37315
-10772.37315
-10772.37315
-10772.37315
-10772.37315
-10772.37315
-10772.37315
-10772.37315
-10772.37315
-10772.37315
-10772.37315
-10772.37315
-10772.37315
-10772.37315
-10772.37315
-10772.37315
-10772.37315
-10772.37315
-10772.37315
-10772.37315
-10772.37315
-10772.37315
-10772.37315
-10772.37315
-10772.37315
-10772.37315
-10772.37315
-10772.37315
-10772.37315
-10772.37315
-10772.37315
-10772.37315
-10772.37315
-10772.37315
-10772.37315
-10772.37315
-10772.37315
-10772.37315
-10772.37315
-10772.37315
-10772.37315
-10772.37315
-10772.37315
-10772.37315
-10772.37315
-10772.37315
-10772.37315
-10772.37315
-10772.37315
-10772.37315
-10772.37315
-10772.37315
-10772.37315
-10772.37315
-10772.37315
-10772.37315
-10772.37315
-10772.37315
-10772.37315
-10772.37315
-10772.37315
-10772.37315
-10772.37315
-10772.37315
-10772.37315
-10772.37315
-10772.37315
-10772.37315
-10772.37315
-10772.37315
-10772.37315
-10772.37315
-10772.37315
-10772.37315
-10772.37315
-10772.37315
-10772.37315
-10772.37315
-10772.37315
-10772.37315
-10772.37315
-10772.37315
-10772.37315
-10772.37315
-10772.37315
-10772.37315
-10772.37315
-10772.37315
-10772.37315
-10772.37315
-10772.37315
-10772.37315
-10772.37315
-10772.37315
-10772.37315
-10772.37315
-10772.37315
-10772.37315
-10772.37315
-10772.37315
-10772.37315
-10772.37315
-10772.37315
-10772.37315
-10772.37315
-10772.37315
-10772.37315
-10772.37315
-10772.37315
-10772.37315
-10772.37315
-10772.37315
-10772.37315
-10772.37315
-10772.37315
-10772.37315
-10772.37315
-10772.37315
-10772.37315
-10772.37315
-10772.37315
-10772.37315
-10772.37315
-10772.37315
-10772.37315
-10772.37315
-10772.37315
-10772.37315
-10772.37315
-10772.37315
-10772.37315
-10772.37315
-10772.37315
-10772.37315
-10772.37315
-10772.37315
-10772.37315
-10772.37315
-10772.37315
-10772.37315
-10772.37315
-10772.37315
-10772.37315
-10772.37315
-10772.37315
-10772.37315
-10772.37315
-10772.37315
-10772.37315
-10772.37315
-10772.37315
-10772.37315
-10772.37315
-10772.37315
-10772.37315
-10772.37315
-10772.37315
-10772.37315
-10772.37315
-10772.37315
-10772.37315
-10772.37315
-10772.37315
-10772.37315
-10772.37315
-10772.37315
-10772.37315
-10772.37315
-10772.37315
-10772.37315
-10772.37315
-10772.37315
-10772.37315
-10772.37315
-10772.37315
-10772.37315
-10772.37315
-10772.37315
-10772.37315
-10772.37315
-10772.37315
-10772.37315
-10772.37315
-10772.37315
-10772.37315
-10772.37315
-10772.37315
-10772.37315
-10772.37315
-10772.37315
-10772.37315
-10772.37315
-10772.37315
-10772.37315
-10772.37315
-10772.37315
-10772.37315
-10772.37315
-10772.37315
-10772.37315
-10772.37315
-10772.37315
-10772.37315
-10772.37315
-10772.37315
-10772.37314
-10772.37313
-10772.37312
-10772.37309
-10772.37305
-10772.37299
-10772.37289
-10772.37273
-10772.37249
-10772.37211
-10772.37154
-10772.37065
-10772.36931
-10772.36728
-10772.36426
-10772.35976
-10772.35313
-10772.34343
-10772.32935
-10772.30908
-10772.28014
-10772.23915
-10772.18161
-10772.10155
-10771.99114
-10771.84028
-10771.63613
-10771.36253
-10770.99953
-10770.52286
-10769.90349
-10769.10738
-10768.09536
-10766.82335
-10765.24285
-10763.30187
-10760.94622
-10758.12115
-10754.77331
-10750.85285
-10746.3156
-10741.125
-10735.25379
-10728.68515
-10721.41331
-10713.44344
-10704.79105
-10695.48077
-10685.54482
-10675.02119
-10663.95181
-10652.38074
-10640.35259
-10627.91119
-10615.0985
-10601.95392
-10588.51376
-10574.81104
-10560.87541
-10546.73323
-10532.40774
-10517.91929
-10503.28561
-10488.522
-10473.64202
-10458.65891
-10443.5841
-10428.42348
-10413.18275
-10397.86699
-10382.48342
-10367.0443
-10351.55742
-10336.02743
-10320.45815
-10304.85286
-10289.21445
-10273.54554
-10257.84846
-10242.12532
-10226.37807
-10210.60844
-10194.81802
-10179.00824
-10163.18042
-10147.33572
-10131.47518
-10115.59973
-10099.71022
-10083.80742
-10067.89209
-10051.96498
-10036.02691
-10020.0787
-10004.12096
-9988.154198
-9972.1789
-9956.195529
-9940.204507
-9924.206231
-9908.201068
-9892.18936
-9876.171428
-9860.14757
-9844.118064
-9828.083173
-9812.04314
-9795.998193
-9779.948547
-9763.894403
-9747.835949
-9731.773362
-9715.706809
-9699.636446
-9683.56242
-9667.484868
-9651.40392
-9635.319699
-9619.23232
-9603.14189
-9587.048511
-9570.952279
-9554.853285
-9538.751611
-9522.647339
-9506.540541
-9490.431288
-9474.319645
-9458.205673
-9442.089428
-9425.970964
-9409.85033
-9393.727571
-9377.602727
-9361.475839
-9345.346941
-9329.216063
-9313.083236
-9296.948484
-9280.81183
-9264.673293
-9248.532891
-9232.390637
-9216.246544
-9200.10062
-9183.952873
-9167.803308
-9151.651928
-9135.498733
-9119.343724
-9103.186897
-9087.02825
-9070.867778
-9054.705475
-9038.541334
-9022.375348
-9006.20751
-8990.037812
-8973.866244
-8957.6928
-8941.517471
-8925.340249
-8909.161128
-8892.9801
-8876.797162
-8860.612308
-8844.425535
-8828.236841
-8812.046227
-8795.853692
-8779.659239
-8763.462871
-8747.264592
-8731.06441
-8714.862331
-8698.658364
-8682.45252
-8666.244811
-8650.035251
-8633.823863
-8617.610684
-8601.395766
-8585.179187
-8568.961051
-8552.741492
-8536.520665
-8520.298748
-8504.075936
-8487.852443
-8471.628513
-8455.404395
-8439.180546
-8422.957036
-8406.733939
-8390.511288
-8374.289325
-8358.068034
-8341.847266
-8325.627801
-8309.409614
-8293.192068
-8276.977112
-8260.764443
-8244.552429
-8228.343479
-8212.13831
-8195.934267
-8179.732452
-8163.536395
-8147.343769
-8131.151915
-8114.967038
-8098.789051
-8082.611866
-8066.438881
-8050.274511
-8034.115753
-8017.957778
-8001.808223
-7985.668409
-7969.532473
-7953.400124
-7937.280248
-7921.173104
-7905.069347
-7888.972333
-7872.890946
-7856.824641
-7840.761269
-7824.708075
-7808.674612
-7792.659058
-7776.646123
-7760.64752
-7744.673709
-7728.719558
-7712.767493
-7696.833932
-7680.927783
-7665.041711
-7649.158861
-7633.294901
-7617.465155
-7601.654948
-7585.831652
-7570.064146
-7554.31779
-7538.561245
-7522.859932
-7507.183832
-7491.507693
-7475.860428
-7460.271405
-7444.701613
-7429.142061
-7413.652148
-7398.200381
-7382.793646
-7367.448572
-7352.170734
-7336.973134
-7321.880484
-7306.927923
-7292.157749
-7277.626865
-7263.407913
-7249.596411
-7236.31366
-7223.710754
-7211.968395
-7201.287156
-7191.871099
-7183.894529
-7177.463049
-7172.581104
-7169.129236
-7166.88879
-7165.575444
-7164.905177
-7164.627222
-7164.558149
-7164.573371
-7164.671736
-7164.903893
-7165.301751
-7165.600686
-7165.814728
-7166.001896
-7166.170901
-7166.31909
-7166.444573
-7166.547776
-7166.631891
-7166.701323
-7166.761108
-7166.815149
-7166.865472
-7166.911812
-7166.952311
-7166.985064
-7167.009147
-7167.025296
-7167.03537
-7167.04169
-7167.046965
-7167.05287
-7167.061751
-7167.078919
-7167.102344
-7167.111095
-7167.114817
-7167.116142
-7167.119158
-7167.132045
-7167.145311
-7167.146178
-7167.147434
-7167.149803
-7167.153622
-7167.162168
-7167.161336
-7167.160945
-7167.164703
-7167.165124
-7167.165332
-7167.166821
-7167.168495
-7167.169801
-7167.170854
-7167.172566
-7167.174226
-7167.175594
-7167.176911
-7167.178396
-7167.180105
-7167.18152
-7167.182575
-7167.183119
-7167.183193
-7167.18255
-7167.18162
-7167.181002
-7167.180679
-7167.180677
-7167.180981
-7167.181458
-7167.181928
-7167.182239
-7167.182961
-7167.184055
-7167.185329
-7167.186622
-7167.187827
-7167.189072
-7167.190612
-7167.192364
-7167.194174
-7167.195968
-7167.197687
-7167.199593
-7167.201765
-7167.204
-7167.206166
-7167.208329
-7167.210853
-7167.213567
-7167.21636
-7167.219363
-7167.22267
-7167.226065
-7167.229557
-7167.233217
-7167.236942
-7167.240918
-7167.244971
-7167.249042
-7167.25322
-7167.257822
-7167.262587
-7167.267446
-7167.272587
-7167.277876
-7167.283336
-7167.288831
-7167.294358
-7167.299902
-7167.305535
-7167.3112
-7167.317055
-7167.322987
-7167.32918
-7167.335506
-7167.342208
-7167.349058
-7167.356263
-7167.363601
-7167.371239
-7167.378975
-7167.386981
-7167.395059
-7167.403425
-7167.411869
-7167.420641
-7167.429488
-7167.438688
-7167.448145
-7167.457984
-7167.467767
-7167.477947
-7167.48849
-7167.499467
-7167.51038
-7167.521735
-7167.53334
-7167.545386
-7167.557418
-7167.569894
-7167.582435
-7167.595444
-7167.608504
-7167.622122
-7167.63581
-7167.650204
-7167.664695
-7167.680108
-7167.695657
-7167.712419
-7167.729382
-7167.747912
-7167.766672
-7167.787442
-7167.8084
-7167.831968
-7167.855628
-7167.883156
-7167.910515
-7167.944962
-7167.978624
-7168.027493
-7168.07448
-7168.155839
-7168.234111
-7168.389471
-7168.541705
-7168.862617
-7169.183422
-7169.858848
-7170.547351
-7171.945926
-7173.395334
-7176.194809
-7179.13432
-7184.505944
-7190.203052
-7200.043218
-7210.555847
-7227.726981
-7246.157823
-7274.655285
-7305.639091
-7350.222418
-7399.416651
-7465.624412
-7539.256802
-7632.453474
-7736.171942
-7860.238911
-7997.549324
-8153.187164
-8323.456326
-8507.465032
-8712.515397
-8888.808148
-9037.031157
-9159.671921
-9259.541251
-9339.602503
-9402.853661
-9452.130062
-9490.005098
-9518.738298
-9540.259245
-9556.17669
-9567.803672
-9576.191461
-9582.16701
-9586.370287
-9589.288556
-9591.287762
-9592.638433
-9593.53761
-9594.126924
-9594.506853
-9594.747593
-9594.897616
-9594.98989
-9595.046457
-9595.081999
-9595.106183
-9595.125141
-9595.141952
-9595.158629
-9595.175786
-9595.194219
-9595.215015
-9595.239805
-9595.269535
-9595.304844
-9595.346001
-9595.392316
-9595.44421
-9595.49098
-9595.532225
-9595.568779
-9595.601306
-9595.630341
-9595.656315
-9595.679582
-9595.700441
-9595.719143
-9595.735911
-9595.750965
-9595.764502
-9595.776718
-9595.787703
-9595.797498
-9595.806139
-9595.813762
-9595.820649
-9595.826822
-9595.832218
-9595.836786
-9595.840449
-9595.843467
-9595.845867
-9595.847764
-9595.849777
-9595.851694
-9595.853481
-9595.854861
-9595.855813
-9595.856686
-9595.857681
-9595.858978
-9595.860142
-9595.861186
-9595.862218
-9595.863139
-9595.864077
-9595.865302
-9595.866373
-9595.867137
-9595.867714
-9595.868202
-9595.868763
-9595.869374
-9595.869706
-9595.869911
-9595.870075
-9595.870298
-9595.870662
-9595.871542
-9595.872619
-9595.873209
-9595.873477
-9595.873491
-9595.873388
-9595.87386
-9595.874404
-9595.874781
-9595.875024
-9595.875033
-9595.874898
-9595.874681
-9595.87517
-9595.875874
-9595.876614
-9595.877109
-9595.877241
-9595.87714
-9595.87742
-9595.878013
-9595.87833
-9595.878395
-9595.878287
-9595.87804
-9595.878308
-9595.878938
-9595.87945
-9595.879901
-9595.880163
-9595.880379
-9595.881015
-9595.881612
-9595.881567
-9595.881044
-9595.880142
-9595.879765
-9595.88024
-9595.881363
-9595.881646
-9595.881967
-9595.881744
-9595.881132
-9595.880763
-9595.880836
-9595.881744
-9595.884063
-9595.885806
-9595.88556
-9595.88361
-9595.881707
-9595.882511
-9595.886149
-9595.887345
-9595.886081
-9595.88105
-9595.880554
-9595.882697
-9595.887613
-9595.888805
-9595.88929
-9595.889301
-9595.897886
-9595.918218
-9595.965114
-9596.086853
-9596.375061
-9597.137992
-9599.034672
-9603.82917
-9615.815507
-9644.767648
-9709.538534
-9829.644768
-9976.9431
-9758.915667
-9666.828809
-9641.763944
-9636.236404
-9635.072847
-9634.829781
-9634.779053
-9634.768466
-9634.766256
-9634.765795
-9634.765699
-9634.765679
-9634.765675
-9634.765674
-9634.765674
-9634.765674
-9634.765674
-9634.765674
-9634.765674
-9634.765674
-9634.765674
-9634.765674
-9634.765674
-9634.765674
-9634.765674
-9634.765674
-9634.765674
-9634.765674
-9634.765674
-9634.765674
-9634.765674
-9634.765674
-9634.765674
-9634.765674
-9634.765674
-9634.765674
-9634.765674
-9634.765674
-9634.765674
-9634.765674
-9634.765674
-9634.765674
-9634.765674
-9634.765674
-9634.765674
-9634.765674
-9634.765674
-9634.765674
-9634.765674
-9634.765674
-9634.765674
-9634.765674
-9634.765674
-9634.765674
-9634.765674
-9634.765674
-9634.765674
-9634.765674
-9634.765674
-9634.765674
-9634.765674
-9634.765674
-9634.765674
-9634.765674
-9634.765674
-9634.765674
-9634.765674
-9634.765674
-9634.765674
-9634.765674
-9634.765674
-9634.765674
-9634.765674
-9634.765674
-9634.765674
-9634.765674
-9634.765674
-9634.765674
-9634.765674
-9634.765674
-9634.765674
-9634.765674
-9634.765674
-9634.765674
-9634.765674
-9634.765674
-9634.765674
-9634.765674
-9634.765674
-9634.765674
-9634.765674
-9634.765674
-9634.765674
-9634.765674
-9634.765674
-9634.765674
-9634.765674
-9634.765674
-9634.765674
-9634.765674
-9634.765674
-9634.765674
-9634.765674
-9634.765674
-9634.765674
-9634.765674
-9634.765674
-9634.765674
-9634.765674
-9634.765674
-9634.765674
-9634.765674
-9634.765674
-9634.765674
-9634.765674
-9634.765674
-9634.765674
-9634.765674
-9634.765674
-9634.765674
-9634.765674
-9634.765674
-9634.765674
-9634.765674
-9634.765674
-9634.765674
-9634.765674
-9634.765674
-9634.765674
-9634.765674
-9634.765674
-9634.765674
-9634.765674
-9634.765674
-9634.765674
-9634.765674
-9634.765674
-9634.765674
-9634.765674
-9634.765674
-9634.765674
-9634.765674
-9634.765674
-9634.765674
-9634.765674
-9634.765674
-9634.765674
)
;

boundaryField
{
    sides
    {
        type            calculated;
        value           nonuniform List<scalar> 2(-9634.765674 -10772.37315);
    }
    empty
    {
        type            empty;
        value           nonuniform List<scalar> 0();
    }
}


// ************************************************************************* //
