/*--------------------------------*- C++ -*----------------------------------*\
| =========                 |                                                 |
| \\      /  F ield         | OpenFOAM: The Open Source CFD Toolbox           |
|  \\    /   O peration     | Version:  2012                                  |
|   \\  /    A nd           | Website:  www.openfoam.com                      |
|    \\/     M anipulation  |                                                 |
\*---------------------------------------------------------------------------*/
FoamFile
{
    version     2.0;
    format      ascii;
    class       surfaceScalarField;
    location    "0.2";
    object      phi2_nei_;
}
// * * * * * * * * * * * * * * * * * * * * * * * * * * * * * * * * * * * * * //

dimensions      [1 0 -1 0 0 0 0];
oriented        oriented;


internalField   nonuniform List<scalar> 
999
(
-2.365222226
-2.365222226
-2.365222226
-2.365222226
-2.365222226
-2.365222226
-2.365222226
-2.365222226
-2.365222226
-2.365222226
-2.365222226
-2.365222226
-2.365222226
-2.365222226
-2.365222226
-2.365222226
-2.365222226
-2.365222226
-2.365222226
-2.365222226
-2.365222226
-2.365222226
-2.365222226
-2.365222226
-2.365222226
-2.365222226
-2.365222226
-2.365222226
-2.365222226
-2.365222226
-2.365222226
-2.365222226
-2.365222226
-2.365222226
-2.365222226
-2.365222226
-2.365222226
-2.365222226
-2.365222226
-2.365222226
-2.365222226
-2.365222226
-2.365222226
-2.365222226
-2.365222226
-2.365222226
-2.365222226
-2.365222226
-2.365222226
-2.365222226
-2.365222226
-2.365222226
-2.365222226
-2.365222226
-2.365222226
-2.365222226
-2.365222226
-2.365222226
-2.365222226
-2.365222226
-2.365222226
-2.365222226
-2.365222226
-2.365222226
-2.365222226
-2.365222226
-2.365222226
-2.365222226
-2.365222226
-2.365222226
-2.365222226
-2.365222226
-2.365222226
-2.365222226
-2.365222226
-2.365222226
-2.365222226
-2.365222226
-2.365222226
-2.365222226
-2.365222226
-2.365222226
-2.365222226
-2.365222226
-2.365222226
-2.365222226
-2.365222226
-2.365222226
-2.365222226
-2.365222226
-2.365222226
-2.365222226
-2.365222226
-2.365222226
-2.365222226
-2.365222226
-2.365222226
-2.365222226
-2.365222226
-2.365222226
-2.365222226
-2.365222226
-2.365222226
-2.365222226
-2.365222226
-2.365222226
-2.365222226
-2.365222226
-2.365222226
-2.365222226
-2.365222226
-2.365222226
-2.365222226
-2.365222226
-2.365222226
-2.365222226
-2.365222226
-2.365222226
-2.365222226
-2.365222226
-2.365222226
-2.365222226
-2.365222226
-2.365222226
-2.365222226
-2.365222226
-2.365222226
-2.365222226
-2.365222226
-2.365222226
-2.365222226
-2.365222226
-2.365222226
-2.365222226
-2.365222226
-2.365222226
-2.365222226
-2.365222226
-2.365222226
-2.365222226
-2.365222226
-2.365222226
-2.365222226
-2.365222226
-2.365222226
-2.365222226
-2.365222226
-2.365222226
-2.365222226
-2.365222226
-2.365222226
-2.365222226
-2.365222226
-2.365222226
-2.365222226
-2.365222226
-2.365222226
-2.365222226
-2.365222226
-2.365222226
-2.365222226
-2.365222226
-2.365222226
-2.365222226
-2.365222226
-2.365222226
-2.365222226
-2.365222226
-2.365222226
-2.365222226
-2.365222226
-2.365222226
-2.365222226
-2.365222226
-2.365222226
-2.365222226
-2.365222226
-2.365222226
-2.365222226
-2.365222226
-2.365222226
-2.365222226
-2.365222226
-2.365222226
-2.365222226
-2.365222226
-2.365222226
-2.365222226
-2.365222226
-2.365222226
-2.365222226
-2.365222226
-2.365222226
-2.365222226
-2.365222226
-2.365222226
-2.365222226
-2.365222226
-2.365222226
-2.365222226
-2.365222226
-2.365222226
-2.365222226
-2.365222226
-2.365222226
-2.365222226
-2.365222226
-2.365222225
-2.365222225
-2.365222225
-2.365222225
-2.365222224
-2.365222224
-2.365222222
-2.36522222
-2.365222216
-2.365222209
-2.365222198
-2.365222181
-2.365222153
-2.365222109
-2.365222038
-2.365221927
-2.365221751
-2.365221477
-2.365221053
-2.3652204
-2.365219401
-2.365217886
-2.365215601
-2.365212182
-2.365207104
-2.365199618
-2.365188666
-2.36517277
-2.365149881
-2.365117194
-2.365070905
-2.365005917
-2.364915476
-2.364790748
-2.364620328
-2.364389688
-2.364080591
-2.3636705
-2.363132011
-2.362432384
-2.361533238
-2.360390472
-2.358954523
-2.357170996
-2.354981743
-2.352326392
-2.349144293
-2.345376799
-2.34096974
-2.335875897
-2.330057282
-2.323486997
-2.316150517
-2.308046256
-2.299185394
-2.289590983
-2.279296464
-2.268343739
-2.256781007
-2.244660543
-2.232036599
-2.218963547
-2.205494345
-2.191679369
-2.177565592
-2.163196093
-2.148609834
-2.133841643
-2.118922365
-2.103879096
-2.08873549
-2.073512071
-2.058226518
-2.042894287
-2.027530296
-2.012148343
-1.996755027
-1.981356781
-1.96595886
-1.950568213
-1.935200969
-1.919864568
-1.904563943
-1.88930305
-1.874085334
-1.85891384
-1.843791265
-1.828720006
-1.813702205
-1.798739776
-1.783834428
-1.768987685
-1.754200902
-1.739475273
-1.724811846
-1.710211529
-1.695675102
-1.681203243
-1.666796554
-1.652455611
-1.638181048
-1.623973527
-1.609833533
-1.595761407
-1.581757459
-1.567821956
-1.553955121
-1.540157143
-1.526428177
-1.512768345
-1.499177745
-1.485656447
-1.472204498
-1.458821923
-1.445508727
-1.432264898
-1.419090406
-1.405985205
-1.392949235
-1.379982424
-1.367084685
-1.354255922
-1.341496028
-1.328804886
-1.316182368
-1.303628341
-1.291142662
-1.278725181
-1.266375742
-1.254094182
-1.241880332
-1.229734019
-1.217655062
-1.205643279
-1.193698479
-1.181820471
-1.170009059
-1.15826404
-1.146585213
-1.134972369
-1.123425298
-1.111943788
-1.100527622
-1.089176583
-1.077890449
-1.066668998
-1.055512004
-1.044419241
-1.033390478
-1.022425487
-1.011524034
-1.000685885
-0.9899108066
-0.9791985613
-0.9685489121
-0.9579616208
-0.9474364484
-0.9369731551
-0.9265715009
-0.9162312451
-0.9059521468
-0.895733965
-0.8855764589
-0.8754793876
-0.8654425104
-0.8554655873
-0.8455483786
-0.8356906452
-0.8258921487
-0.8161526516
-0.8064719171
-0.7968497097
-0.7872857947
-0.7777799389
-0.7683319101
-0.7589414776
-0.749608412
-0.7403324853
-0.7311134705
-0.7219511422
-0.712845276
-0.7037956489
-0.6948020393
-0.6858642268
-0.6769819919
-0.6681551164
-0.6593833834
-0.6506665783
-0.6420044909
-0.6333969181
-0.6248436666
-0.6163445557
-0.6078994179
-0.599508099
-0.5911704559
-0.5828863544
-0.5746556672
-0.5664782748
-0.5583540727
-0.5502829862
-0.5422649517
-0.5342997759
-0.526387263
-0.5185272522
-0.5107195138
-0.5029638476
-0.4952601425
-0.4876081665
-0.4800077507
-0.4724589874
-0.4649615704
-0.4575152246
-0.4501202652
-0.4427761807
-0.4354825649
-0.4282399246
-0.4210478864
-0.4139058307
-0.4068142447
-0.3997732527
-0.3927818654
-0.3858402569
-0.3789490247
-0.3721071671
-0.3653140599
-0.3585705931
-0.3518766187
-0.3452310879
-0.338634168
-0.3320865274
-0.3255876986
-0.3191369364
-0.3127351547
-0.3063827343
-0.3000784909
-0.2938216366
-0.2876139988
-0.281455414
-0.27534449
-0.2692806575
-0.2632661945
-0.2573005836
-0.2513822507
-0.2455109373
-0.2396888387
-0.233914895
-0.2281877926
-0.2225072713
-0.2168749504
-0.211289694
-0.2057512546
-0.2002591333
-0.1948128511
-0.1894114508
-0.1840611546
-0.178755789
-0.1734898825
-0.1682773903
-0.163113423
-0.1579863507
-0.1529076494
-0.147881995
-0.1428990462
-0.1379619766
-0.1330778813
-0.1282426589
-0.1234584002
-0.118727707
-0.11405216
-0.1094353278
-0.1048843786
-0.1004088128
-0.09602049412
-0.09173468236
-0.08757142127
-0.08355646876
-0.07972243017
-0.07610929592
-0.07276408216
-0.06973839292
-0.06708315441
-0.06484057872
-0.06303429916
-0.06166076999
-0.06068557655
-0.06004731261
-0.05966894031
-0.0594716537
-0.0593869336
-0.05936188347
-0.05936443756
-0.05939135772
-0.05945559795
-0.05956648366
-0.05964950071
-0.05970897327
-0.05976080516
-0.05980756253
-0.0598485497
-0.05988323271
-0.05991172124
-0.05993488487
-0.05995394769
-0.05997030604
-0.05998504045
-0.05999873256
-0.06001130899
-0.06002226385
-0.06003105202
-0.06003742932
-0.06004160476
-0.06004408785
-0.06004553003
-0.0600466473
-0.06004792662
-0.06005002146
-0.06005448081
-0.06006058406
-0.06006272629
-0.06006324554
-0.06006357755
-0.06006391595
-0.06006721817
-0.06007029959
-0.06007062471
-0.06007040522
-0.06007067421
-0.06007136581
-0.06007279446
-0.06007299269
-0.06007203938
-0.06007254353
-0.06007271271
-0.06007217077
-0.06007222909
-0.06007229542
-0.06007225398
-0.06007210367
-0.06007209831
-0.06007212851
-0.06007200396
-0.06007181336
-0.06007165986
-0.06007149908
-0.06007129804
-0.06007102742
-0.06007065056
-0.06007019081
-0.06006955474
-0.06006886074
-0.06006821191
-0.06006763802
-0.06006713256
-0.0600666967
-0.06006628335
-0.06006586992
-0.06006536893
-0.06006496541
-0.0600646652
-0.06006441438
-0.06006416799
-0.06006387791
-0.06006357775
-0.06006335906
-0.06006317846
-0.06006300882
-0.06006280917
-0.06006257057
-0.06006238199
-0.06006227308
-0.06006220002
-0.06006212171
-0.06006201276
-0.06006199847
-0.06006201069
-0.06006202683
-0.06006203853
-0.06006212312
-0.06006221866
-0.06006231405
-0.06006245351
-0.0600626174
-0.06006283653
-0.06006307812
-0.06006331141
-0.06006352299
-0.06006383007
-0.06006415483
-0.06006445911
-0.06006480938
-0.06006517961
-0.06006557646
-0.06006597944
-0.06006637234
-0.06006677891
-0.06006719392
-0.06006762573
-0.06006807193
-0.06006854399
-0.06006901259
-0.06006952341
-0.06007003689
-0.06007059508
-0.06007115715
-0.06007175885
-0.06007236244
-0.06007300058
-0.06007363836
-0.06007430922
-0.06007497677
-0.0600756823
-0.06007638412
-0.06007712777
-0.06007786094
-0.06007865352
-0.06007948167
-0.06008032223
-0.06008109845
-0.06008198371
-0.06008291138
-0.06008385123
-0.06008472749
-0.06008569945
-0.06008669883
-0.06008772867
-0.0600887099
-0.06008976998
-0.06009080069
-0.06009190082
-0.06009296726
-0.06009411948
-0.06009524163
-0.06009646801
-0.06009766352
-0.06009899165
-0.06010028161
-0.06010174469
-0.06010316067
-0.06010479716
-0.06010636495
-0.06010821867
-0.06010995098
-0.06011210422
-0.06011403481
-0.06011669836
-0.06011889314
-0.06012259513
-0.06012523562
-0.06013125712
-0.06013489828
-0.06014618108
-0.06015226749
-0.06017521676
-0.06018737877
-0.06023523072
-0.06026189165
-0.06036044093
-0.06041968349
-0.06061618036
-0.06074430135
-0.06111972217
-0.06138458077
-0.06206770567
-0.06258697657
-0.06376549825
-0.0647265131
-0.06664590513
-0.0683166464
-0.07125409364
-0.07396616203
-0.07816944542
-0.08225074119
-0.08784529628
-0.09349556204
-0.1003897062
-0.1075313703
-0.1153732385
-0.123568662
-0.1320724857
-0.1402494037
-0.1495805792
-0.1564483779
-0.1617442705
-0.1658754583
-0.1690853408
-0.1715595855
-0.1734543625
-0.1748949222
-0.175981487
-0.1767940254
-0.1773960621
-0.1778377746
-0.1781585199
-0.1783889063
-0.1785525121
-0.1786673363
-0.1787469144
-0.1788013728
-0.1788381532
-0.1788626361
-0.1788786783
-0.1788890124
-0.1788955461
-0.1788995977
-0.1789020652
-0.1789035522
-0.178904471
-0.1789051073
-0.1789056362
-0.1789060955
-0.178906538
-0.1789070025
-0.1789074993
-0.1789080427
-0.1789087069
-0.1789095102
-0.1789104556
-0.1789115647
-0.178912816
-0.1789142209
-0.1789154924
-0.1789166157
-0.1789176102
-0.1789184903
-0.1789192697
-0.1789199603
-0.1789205715
-0.17892111
-0.1789215814
-0.178921992
-0.1789223509
-0.1789226696
-0.1789229594
-0.1789232156
-0.1789234363
-0.1789236182
-0.1789237717
-0.1789239396
-0.1789241197
-0.1789242799
-0.1789244028
-0.1789244718
-0.1789244966
-0.1789244882
-0.1789244797
-0.1789245118
-0.1789245927
-0.1789246704
-0.1789246999
-0.1789246929
-0.1789246613
-0.178924664
-0.1789247304
-0.1789247724
-0.1789247961
-0.1789248043
-0.1789248061
-0.1789248193
-0.1789248923
-0.1789249395
-0.1789249598
-0.17892495
-0.178924934
-0.1789249257
-0.1789249327
-0.1789249047
-0.1789248367
-0.1789247501
-0.178924678
-0.1789246237
-0.1789246523
-0.178924705
-0.1789247086
-0.1789246497
-0.1789245726
-0.1789244899
-0.178924487
-0.17892455
-0.178924576
-0.1789245662
-0.178924513
-0.1789244277
-0.1789243284
-0.1789243303
-0.178924408
-0.1789244452
-0.1789244364
-0.1789243816
-0.1789243097
-0.1789242896
-0.178924366
-0.1789243953
-0.1789243802
-0.1789243204
-0.1789242547
-0.1789242531
-0.1789243442
-0.1789243956
-0.1789244131
-0.1789243805
-0.1789243218
-0.178924331
-0.1789243392
-0.1789242842
-0.1789241464
-0.1789239077
-0.178923809
-0.1789238735
-0.1789240677
-0.1789241389
-0.1789241332
-0.1789240832
-0.1789238981
-0.1789237429
-0.1789236843
-0.1789237524
-0.1789241076
-0.1789243183
-0.1789242802
-0.1789238667
-0.1789234336
-0.1789235834
-0.1789243326
-0.1789246526
-0.178924538
-0.1789235747
-0.1789233822
-0.178923755
-0.1789246554
-0.1789250228
-0.1789251799
-0.1789254178
-0.1789283898
-0.1789357986
-0.1789534672
-0.1789990999
-0.1791104691
-0.1793980695
-0.1801178883
-0.1819204888
-0.186355667
-0.1967082941
-0.2179544627
-0.265716573
-0.2866892947
-0.2730676857
-0.2665995273
-0.2649114754
-0.2645392609
-0.2644606713
-0.2644442314
-0.2644407988
-0.2644400824
-0.2644399328
-0.2644399016
-0.2644398951
-0.2644398938
-0.2644398935
-0.2644398934
-0.2644398934
-0.2644398934
-0.2644398934
-0.2644398934
-0.2644398934
-0.2644398934
-0.2644398934
-0.2644398934
-0.2644398934
-0.2644398934
-0.2644398934
-0.2644398934
-0.2644398934
-0.2644398934
-0.2644398934
-0.2644398934
-0.2644398934
-0.2644398934
-0.2644398934
-0.2644398934
-0.2644398934
-0.2644398934
-0.2644398934
-0.2644398934
-0.2644398934
-0.2644398934
-0.2644398934
-0.2644398934
-0.2644398934
-0.2644398934
-0.2644398934
-0.2644398934
-0.2644398934
-0.2644398934
-0.2644398934
-0.2644398934
-0.2644398934
-0.2644398934
-0.2644398934
-0.2644398934
-0.2644398934
-0.2644398934
-0.2644398934
-0.2644398934
-0.2644398934
-0.2644398934
-0.2644398934
-0.2644398934
-0.2644398934
-0.2644398934
-0.2644398934
-0.2644398934
-0.2644398934
-0.2644398934
-0.2644398934
-0.2644398934
-0.2644398934
-0.2644398934
-0.2644398934
-0.2644398934
-0.2644398934
-0.2644398934
-0.2644398934
-0.2644398934
-0.2644398934
-0.2644398934
-0.2644398934
-0.2644398934
-0.2644398934
-0.2644398934
-0.2644398934
-0.2644398934
-0.2644398934
-0.2644398934
-0.2644398934
-0.2644398934
-0.2644398934
-0.2644398934
-0.2644398934
-0.2644398934
-0.2644398934
-0.2644398934
-0.2644398934
-0.2644398934
-0.2644398934
-0.2644398934
-0.2644398934
-0.2644398934
-0.2644398934
-0.2644398934
-0.2644398934
-0.2644398934
-0.2644398934
-0.2644398934
-0.2644398934
-0.2644398934
-0.2644398934
-0.2644398934
-0.2644398934
-0.2644398934
-0.2644398934
-0.2644398934
-0.2644398934
-0.2644398934
-0.2644398934
-0.2644398934
-0.2644398934
-0.2644398934
-0.2644398934
-0.2644398934
-0.2644398934
-0.2644398934
-0.2644398934
-0.2644398934
-0.2644398934
-0.2644398934
-0.2644398934
-0.2644398934
-0.2644398934
-0.2644398934
-0.2644398934
-0.2644398934
-0.2644398934
-0.2644398934
-0.2644398934
-0.2644398934
-0.2644398934
-0.2644398934
-0.2644398934
-0.2644398934
-0.2644398934
-0.2644398934
-0.2644398934
)
;

boundaryField
{
    sides
    {
        type            calculated;
        value           nonuniform List<scalar> 2(-0.2644398934 -2.365222226);
    }
    empty
    {
        type            empty;
        value           nonuniform List<scalar> 0();
    }
}


// ************************************************************************* //
