/*--------------------------------*- C++ -*----------------------------------*\
| =========                 |                                                 |
| \\      /  F ield         | OpenFOAM: The Open Source CFD Toolbox           |
|  \\    /   O peration     | Version:  2012                                  |
|   \\  /    A nd           | Website:  www.openfoam.com                      |
|    \\/     M anipulation  |                                                 |
\*---------------------------------------------------------------------------*/
FoamFile
{
    version     2.0;
    format      ascii;
    class       volScalarField;
    location    "0.2";
    object      rho;
}
// * * * * * * * * * * * * * * * * * * * * * * * * * * * * * * * * * * * * * //

dimensions      [1 -3 0 0 0 0 0];


internalField   nonuniform List<scalar> 
1000
(
0.9989740407
0.9989740407
0.9989740407
0.9989740407
0.9989740407
0.9989740407
0.9989740407
0.9989740407
0.9989740407
0.9989740407
0.9989740407
0.9989740407
0.9989740407
0.9989740407
0.9989740407
0.9989740407
0.9989740407
0.9989740407
0.9989740407
0.9989740407
0.9989740407
0.9989740407
0.9989740407
0.9989740407
0.9989740407
0.9989740407
0.9989740407
0.9989740407
0.9989740407
0.9989740407
0.9989740407
0.9989740407
0.9989740407
0.9989740407
0.9989740407
0.9989740407
0.9989740407
0.9989740407
0.9989740407
0.9989740407
0.9989740407
0.9989740407
0.9989740407
0.9989740407
0.9989740407
0.9989740407
0.9989740407
0.9989740407
0.9989740407
0.9989740407
0.9989740407
0.9989740407
0.9989740407
0.9989740407
0.9989740407
0.9989740407
0.9989740407
0.9989740407
0.9989740407
0.9989740407
0.9989740407
0.9989740407
0.9989740407
0.9989740407
0.9989740407
0.9989740407
0.9989740407
0.9989740407
0.9989740407
0.9989740407
0.9989740407
0.9989740407
0.9989740407
0.9989740407
0.9989740407
0.9989740407
0.9989740407
0.9989740407
0.9989740407
0.9989740407
0.9989740407
0.9989740407
0.9989740407
0.9989740407
0.9989740407
0.9989740407
0.9989740407
0.9989740407
0.9989740407
0.9989740407
0.9989740407
0.9989740407
0.9989740407
0.9989740407
0.9989740407
0.9989740407
0.9989740407
0.9989740407
0.9989740407
0.9989740407
0.9989740407
0.9989740407
0.9989740407
0.9989740407
0.9989740407
0.9989740407
0.9989740407
0.9989740407
0.9989740407
0.9989740407
0.9989740407
0.9989740407
0.9989740407
0.9989740407
0.9989740407
0.9989740407
0.9989740407
0.9989740407
0.9989740407
0.9989740407
0.9989740407
0.9989740407
0.9989740407
0.9989740407
0.9989740407
0.9989740407
0.9989740407
0.9989740407
0.9989740407
0.9989740407
0.9989740407
0.9989740407
0.9989740407
0.9989740407
0.9989740407
0.9989740407
0.9989740407
0.9989740407
0.9989740407
0.9989740407
0.9989740407
0.9989740407
0.9989740407
0.9989740407
0.9989740407
0.9989740407
0.9989740407
0.9989740407
0.9989740407
0.9989740407
0.9989740407
0.9989740407
0.9989740407
0.9989740407
0.9989740407
0.9989740407
0.9989740407
0.9989740407
0.9989740407
0.9989740407
0.9989740407
0.9989740407
0.9989740407
0.9989740407
0.9989740407
0.9989740407
0.9989740407
0.9989740407
0.9989740407
0.9989740407
0.9989740407
0.9989740407
0.9989740407
0.9989740407
0.9989740407
0.9989740407
0.9989740407
0.9989740407
0.9989740407
0.9989740407
0.9989740407
0.9989740407
0.9989740407
0.9989740407
0.9989740407
0.9989740407
0.9989740407
0.9989740407
0.9989740407
0.9989740407
0.9989740407
0.9989740407
0.9989740407
0.9989740407
0.9989740407
0.9989740407
0.9989740407
0.9989740407
0.9989740407
0.9989740407
0.9989740407
0.9989740407
0.9989740407
0.9989740407
0.9989740407
0.9989740407
0.9989740407
0.9989740407
0.9989740406
0.9989740406
0.9989740406
0.9989740405
0.9989740404
0.9989740401
0.9989740398
0.9989740392
0.9989740382
0.9989740367
0.9989740341
0.9989740299
0.9989740233
0.9989740126
0.9989739957
0.9989739691
0.9989739274
0.9989738626
0.9989737624
0.9989736086
0.9989733744
0.9989730198
0.9989724871
0.9989716927
0.9989705166
0.9989687888
0.9989662702
0.9989626276
0.9989574024
0.9989499688
0.9989394831
0.9989248205
0.9989044996
0.9988765941
0.9988386321
0.9987874863
0.9987192591
0.9986291685
0.998511447
0.9983592624
0.9981646771
0.9979186598
0.9976111658
0.9972312958
0.9967675415
0.9962081152
0.9955413538
0.9947561744
0.9938425504
0.9927919722
0.9915978485
0.9902558156
0.9887639217
0.9871226732
0.9853349403
0.9834057366
0.981341899
0.9791517003
0.9768444342
0.9744300037
0.9719185436
0.9693200964
0.9666443533
0.9639004616
0.9610968979
0.9582413966
0.955340925
0.952401693
0.9494291872
0.9464282203
0.9434029881
0.9403571264
0.9372937357
0.9342156739
0.9311261322
0.928026573
0.9249183838
0.9218026514
0.9186806004
0.9155544503
0.9124264822
0.9092980299
0.9061699591
0.9030429941
0.8999177906
0.8967949312
0.8936749382
0.8905582817
0.8874453858
0.8843366343
0.8812323737
0.8781329171
0.875038546
0.8719495126
0.8688660411
0.8657883302
0.8627165562
0.8596508778
0.8565914442
0.8535384103
0.8504919423
0.8474521915
0.8444192744
0.8413932885
0.838374328
0.8353624778
0.8323578153
0.8293604112
0.82637033
0.8233876305
0.8204123664
0.8174445862
0.8144843343
0.811531651
0.8085865727
0.8056491323
0.8027193596
0.7997972813
0.7968829214
0.7939763011
0.7910774395
0.7881863533
0.7853030571
0.7824275637
0.779559884
0.7767000273
0.7738480011
0.7710038118
0.768167464
0.7653389612
0.7625183057
0.7597054985
0.7569005397
0.7541034283
0.7513141622
0.7485327384
0.7457591533
0.742993402
0.7402354792
0.7374853786
0.7347430933
0.7320086155
0.7292819371
0.7265630489
0.7238519416
0.7211486048
0.7184530279
0.7157651996
0.7130851081
0.7104127412
0.707748086
0.7050911295
0.702441858
0.6998002575
0.6971663139
0.6945400122
0.6919213377
0.689310275
0.6867068087
0.684110923
0.681522602
0.6789418297
0.67636859
0.6738028665
0.671244643
0.6686939031
0.6661506304
0.6636148086
0.6610864214
0.6585654527
0.6560518862
0.6535457059
0.6510468961
0.6485554411
0.6460713255
0.6435945339
0.6411250514
0.6386628633
0.6362079548
0.6337603116
0.6313199195
0.6288867645
0.6264608329
0.6240421112
0.6216305859
0.619226244
0.6168290726
0.6144390599
0.6120561953
0.6096804706
0.6073118805
0.6049504234
0.6025961013
0.6002489199
0.5979088878
0.5955760162
0.5932503187
0.5909318124
0.5886205201
0.5863164731
0.5840196908
0.5817301579
0.5794478728
0.5771728492
0.5749050358
0.5726444594
0.57039118
0.5681450678
0.5659061919
0.5636747868
0.5614505135
0.5592333977
0.5570240046
0.5548217599
0.5526264313
0.5504389582
0.5482589993
0.546085723
0.543920047
0.5417625299
0.5396118468
0.5374680716
0.5353327073
0.5332049692
0.5310836024
0.5289698666
0.5268647008
0.5247666193
0.5226749742
0.5205916506
0.5185169716
0.5164490468
0.5143878253
0.5123357603
0.5102924054
0.5082552439
0.5062252046
0.5042049442
0.5021935736
0.5001880598
0.498189911
0.4962022553
0.494223726
0.4922509174
0.4902855884
0.4883309605
0.4863857716
0.4844465497
0.4825142803
0.4805925647
0.4786812534
0.4767757729
0.4748764633
0.472988557
0.4711102002
0.469239612
0.4673748643
0.4655217612
0.4636783553
0.4618392447
0.4600131424
0.4581969046
0.4563864644
0.4545888418
0.4528026562
0.4510259262
0.449261721
0.4475101007
0.4457723337
0.4440503232
0.4423474744
0.4406679556
0.4390174374
0.43740277
0.435833035
0.4343198549
0.4328778915
0.4315250066
0.4302814338
0.4291688542
0.4282072177
0.4274115761
0.4267875345
0.426328561
0.4260159447
0.4258215025
0.4257137311
0.4256627315
0.4256444998
0.4256411902
0.4256455756
0.4256618875
0.4256955472
0.425736921
0.4257662103
0.4257882277
0.4258074516
0.4258245541
0.4258393545
0.4258517475
0.425861898
0.425870171
0.4258770625
0.4258830308
0.4258884118
0.425893334
0.4258977217
0.4259014015
0.4259042145
0.4259061545
0.4259073417
0.4259079834
0.4259083146
0.4259085456
0.4259088905
0.4259097392
0.4259115956
0.425913235
0.4259136268
0.425913592
0.4259134091
0.425913577
0.425914806
0.4259155135
0.4259152195
0.4259150874
0.4259149989
0.4259150767
0.4259151852
0.4259145144
0.4259144135
0.4259143342
0.4259139011
0.4259136689
0.4259134517
0.4259131836
0.4259128744
0.425912545
0.4259122704
0.4259119373
0.4259115487
0.4259111387
0.4259106979
0.425910224
0.4259097673
0.4259093158
0.4259088394
0.4259083275
0.4259077949
0.4259072244
0.425906694
0.4259061812
0.4259056817
0.4259051839
0.4259046633
0.4259041151
0.4259035595
0.4259030493
0.4259025663
0.4259020879
0.425901591
0.4259010748
0.425900566
0.425900068
0.4258995729
0.4258990559
0.4258985155
0.4258979616
0.4258974474
0.4258969722
0.425896503
0.4258960159
0.4258955375
0.4258950781
0.4258946078
0.4258941016
0.4258936035
0.4258931125
0.4258926043
0.4258921006
0.4258916105
0.4258911279
0.4258906701
0.425890199
0.4258897008
0.4258891944
0.4258887013
0.4258881753
0.4258876234
0.4258870793
0.4258865204
0.4258859651
0.4258853959
0.4258848343
0.4258842634
0.4258837077
0.4258831309
0.4258825704
0.4258819675
0.4258813786
0.4258807363
0.4258801054
0.4258794213
0.4258787464
0.4258780263
0.4258773155
0.4258765658
0.4258758266
0.4258750472
0.4258742808
0.425873468
0.4258726692
0.4258718114
0.4258709693
0.4258701044
0.4258692355
0.4258682572
0.4258673178
0.4258663557
0.4258653866
0.4258643091
0.4258632678
0.4258621844
0.4258611053
0.4258599361
0.4258587985
0.4258575863
0.4258563972
0.4258551202
0.4258538743
0.4258525244
0.4258512134
0.4258497706
0.4258483775
0.4258468109
0.425845308
0.4258435806
0.4258419341
0.4258399995
0.4258381772
0.4258359675
0.4258339497
0.4258313435
0.4258291247
0.4258258167
0.42582337
0.4258185833
0.4258157591
0.4258076395
0.4258038871
0.4257881978
0.4257818624
0.4257494927
0.4257362144
0.425668627
0.4256379799
0.425499537
0.4254286178
0.4251548994
0.4249972284
0.4244791457
0.424147409
0.4232130931
0.4225559531
0.4209562333
0.4197338624
0.4171421571
0.4150130917
0.4110547412
0.4075958558
0.4019198826
0.3967031599
0.3890949962
0.381826139
0.3723332163
0.3630091393
0.3520439013
0.341031332
0.3292934071
0.3174080997
0.3063758975
0.2972744909
0.289954273
0.2841347368
0.2795523001
0.2759770902
0.273214514
0.2711008923
0.2695001313
0.2683003618
0.2674106976
0.2667581752
0.2662849315
0.2659456474
0.2657052754
0.2655370528
0.2654208201
0.2653415729
0.2652882939
0.2652530019
0.265229989
0.2652152281
0.2652059149
0.2652001231
0.2651965496
0.2651943296
0.2651928977
0.265191888
0.2651910683
0.2651903176
0.2651895523
0.2651887782
0.2651878985
0.2651868742
0.2651856548
0.2651841822
0.2651824368
0.2651804324
0.2651782103
0.2651759448
0.2651739307
0.2651721537
0.2651705779
0.2651691741
0.2651679196
0.2651667962
0.2651657886
0.2651648834
0.265164069
0.2651633355
0.2651626742
0.2651620799
0.2651615457
0.2651610662
0.2651606375
0.2651602587
0.2651599306
0.265159652
0.2651594163
0.2651592159
0.2651590423
0.2651588916
0.2651587535
0.2651586362
0.2651585471
0.2651584834
0.2651584352
0.2651583895
0.2651583528
0.265158302
0.2651582599
0.2651582287
0.2651582094
0.2651581885
0.2651581537
0.2651581203
0.2651580917
0.265158071
0.265158061
0.2651580541
0.265158037
0.2651580204
0.2651580072
0.2651579992
0.2651579913
0.2651579753
0.2651579453
0.2651579183
0.2651578918
0.2651578761
0.265157873
0.2651578692
0.2651578541
0.2651578325
0.2651578154
0.265157811
0.2651578354
0.2651578589
0.2651578774
0.2651578855
0.2651578827
0.2651578642
0.2651578612
0.2651578801
0.2651578994
0.2651579051
0.2651578964
0.2651578822
0.2651578769
0.2651578988
0.2651579332
0.2651579541
0.2651579649
0.2651579664
0.2651579709
0.2651580004
0.2651580324
0.2651580502
0.2651580581
0.2651580376
0.2651580285
0.2651580288
0.2651580227
0.2651580031
0.2651579576
0.2651579261
0.2651579351
0.2651579875
0.265158043
0.265158069
0.2651580706
0.2651580377
0.2651579923
0.265157954
0.2651579397
0.2651579561
0.2651580241
0.2651580473
0.2651579844
0.2651578316
0.2651577908
0.2651578959
0.2651580919
0.2651581523
0.2651579879
0.2651578033
0.2651577896
0.2651578697
0.2651579807
0.2651577485
0.2651571999
0.2651557306
0.2651534121
0.265146663
0.2651296542
0.2650871587
0.2649770937
0.2647033647
0.2640059971
0.2622554776
0.257897931
0.2473158754
0.2231959485
0.1777798311
0.1413075056
0.1288304881
0.1257254187
0.1250512861
0.1249093034
0.124879603
0.1248734004
0.1248721056
0.1248718353
0.1248717789
0.1248717671
0.1248717647
0.1248717642
0.1248717641
0.124871764
0.124871764
0.124871764
0.124871764
0.124871764
0.124871764
0.124871764
0.124871764
0.124871764
0.124871764
0.124871764
0.124871764
0.124871764
0.124871764
0.124871764
0.124871764
0.124871764
0.124871764
0.124871764
0.124871764
0.124871764
0.124871764
0.124871764
0.124871764
0.124871764
0.124871764
0.124871764
0.124871764
0.124871764
0.124871764
0.124871764
0.124871764
0.124871764
0.124871764
0.124871764
0.124871764
0.124871764
0.124871764
0.124871764
0.124871764
0.124871764
0.124871764
0.124871764
0.124871764
0.124871764
0.124871764
0.124871764
0.124871764
0.124871764
0.124871764
0.124871764
0.124871764
0.124871764
0.124871764
0.124871764
0.124871764
0.124871764
0.124871764
0.124871764
0.124871764
0.124871764
0.124871764
0.124871764
0.124871764
0.124871764
0.124871764
0.124871764
0.124871764
0.124871764
0.124871764
0.124871764
0.124871764
0.124871764
0.124871764
0.124871764
0.124871764
0.124871764
0.124871764
0.124871764
0.124871764
0.124871764
0.124871764
0.124871764
0.124871764
0.124871764
0.124871764
0.124871764
0.124871764
0.124871764
0.124871764
0.124871764
0.124871764
0.124871764
0.124871764
0.124871764
0.124871764
0.124871764
0.124871764
0.124871764
0.124871764
0.124871764
0.124871764
0.124871764
0.124871764
0.124871764
0.124871764
0.124871764
0.124871764
0.124871764
0.124871764
0.124871764
0.124871764
0.124871764
0.124871764
0.124871764
0.124871764
0.124871764
0.124871764
0.124871764
0.124871764
0.124871764
0.124871764
0.124871764
0.124871764
0.124871764
0.124871764
0.124871764
0.124871764
0.124871764
0.124871764
0.124871764
0.124871764
0.124871764
0.124871764
)
;

boundaryField
{
    sides
    {
        type            calculated;
        value           nonuniform List<scalar> 2(0.124871764 0.9989740407);
    }
    empty
    {
        type            empty;
    }
}


// ************************************************************************* //
