/*--------------------------------*- C++ -*----------------------------------*\
| =========                 |                                                 |
| \\      /  F ield         | OpenFOAM: The Open Source CFD Toolbox           |
|  \\    /   O peration     | Version:  v2012                                 |
|   \\  /    A nd           | Website:  www.openfoam.com                      |
|    \\/     M anipulation  |                                                 |
\*---------------------------------------------------------------------------*/
FoamFile
{
    version     2.0;
    format      ascii;
    class       volScalarField;
    location    "0.2";
    object      rho1;
}
// * * * * * * * * * * * * * * * * * * * * * * * * * * * * * * * * * * * * * //

dimensions      [1 -3 0 0 0 0 0];


internalField   nonuniform List<scalar> 
1000
(
1000.044889
1000.044889
1000.044889
1000.044889
1000.044889
1000.044889
1000.044889
1000.044889
1000.044889
1000.044889
1000.044889
1000.044889
1000.044889
1000.044889
1000.044889
1000.044889
1000.044889
1000.044889
1000.044889
1000.044889
1000.044889
1000.044889
1000.044889
1000.044889
1000.044889
1000.044889
1000.044889
1000.044889
1000.044889
1000.044889
1000.044889
1000.044889
1000.044889
1000.044889
1000.044889
1000.044889
1000.044889
1000.044889
1000.044889
1000.044889
1000.044889
1000.044889
1000.044889
1000.044889
1000.044889
1000.044889
1000.044889
1000.044889
1000.044889
1000.044889
1000.044889
1000.044889
1000.044889
1000.044889
1000.044889
1000.044889
1000.044889
1000.044889
1000.044889
1000.044889
1000.044889
1000.044889
1000.044889
1000.044889
1000.044889
1000.044889
1000.044889
1000.044889
1000.044889
1000.044889
1000.044889
1000.044889
1000.044889
1000.044889
1000.044889
1000.044889
1000.044889
1000.044889
1000.044889
1000.044889
1000.044889
1000.044889
1000.044889
1000.044889
1000.044889
1000.044889
1000.044889
1000.044889
1000.044889
1000.044889
1000.044889
1000.044889
1000.044889
1000.044889
1000.044889
1000.044889
1000.044889
1000.044889
1000.044889
1000.044889
1000.044889
1000.044889
1000.044889
1000.044889
1000.044889
1000.044889
1000.044889
1000.044889
1000.044889
1000.044889
1000.044889
1000.044889
1000.044889
1000.044889
1000.044889
1000.044889
1000.044889
1000.044889
1000.044889
1000.044889
1000.044889
1000.044889
1000.044889
1000.044889
1000.044889
1000.044889
1000.044889
1000.044889
1000.044889
1000.044889
1000.044889
1000.044889
1000.044889
1000.044889
1000.044889
1000.044889
1000.044889
1000.044889
1000.044889
1000.044889
1000.044889
1000.044889
1000.044889
1000.044889
1000.044889
1000.044889
1000.044889
1000.044889
1000.044889
1000.044889
1000.044889
1000.044889
1000.044889
1000.044889
1000.044889
1000.044889
1000.044889
1000.044889
1000.044889
1000.044889
1000.044889
1000.044889
1000.044889
1000.044889
1000.044889
1000.044889
1000.044889
1000.044889
1000.044889
1000.044889
1000.044889
1000.044889
1000.044889
1000.044889
1000.044889
1000.044889
1000.044889
1000.044889
1000.044889
1000.044889
1000.044889
1000.044889
1000.044889
1000.044889
1000.044889
1000.044889
1000.044889
1000.044889
1000.044889
1000.044889
1000.044889
1000.044889
1000.044889
1000.044889
1000.044889
1000.044889
1000.044889
1000.044889
1000.044889
1000.044889
1000.044889
1000.044889
1000.044889
1000.044889
1000.044889
1000.044889
1000.044889
1000.044889
1000.044889
1000.044889
1000.044889
1000.044889
1000.044889
1000.044889
1000.044889
1000.044889
1000.044889
1000.044889
1000.044889
1000.044889
1000.044889
1000.044889
1000.044889
1000.044889
1000.044889
1000.044889
1000.044889
1000.044889
1000.044889
1000.044889
1000.044889
1000.044889
1000.044889
1000.044889
1000.044889
1000.044888
1000.044888
1000.044888
1000.044887
1000.044887
1000.044886
1000.044884
1000.044883
1000.04488
1000.044877
1000.044873
1000.044868
1000.044861
1000.044852
1000.04484
1000.044826
1000.044809
1000.044788
1000.044762
1000.044732
1000.044696
1000.044655
1000.044607
1000.044553
1000.044492
1000.044425
1000.044351
1000.04427
1000.044183
1000.04409
1000.043992
1000.043888
1000.043779
1000.043666
1000.043549
1000.043429
1000.043306
1000.04318
1000.043052
1000.042921
1000.042789
1000.042656
1000.042521
1000.042385
1000.042249
1000.042111
1000.041973
1000.041834
1000.041695
1000.041555
1000.041416
1000.041275
1000.041135
1000.040995
1000.040854
1000.040714
1000.040573
1000.040433
1000.040293
1000.040153
1000.040013
1000.039873
1000.039733
1000.039594
1000.039455
1000.039316
1000.039177
1000.039039
1000.0389
1000.038762
1000.038625
1000.038487
1000.03835
1000.038213
1000.038077
1000.037941
1000.037805
1000.037669
1000.037534
1000.037399
1000.037264
1000.03713
1000.036996
1000.036862
1000.036729
1000.036596
1000.036464
1000.036331
1000.036199
1000.036068
1000.035937
1000.035806
1000.035675
1000.035545
1000.035415
1000.035286
1000.035156
1000.035028
1000.034899
1000.034771
1000.034643
1000.034516
1000.034389
1000.034262
1000.034136
1000.03401
1000.033884
1000.033759
1000.033634
1000.033509
1000.033385
1000.033261
1000.033138
1000.033015
1000.032892
1000.032769
1000.032647
1000.032525
1000.032404
1000.032283
1000.032162
1000.032042
1000.031922
1000.031802
1000.031683
1000.031564
1000.031445
1000.031327
1000.031209
1000.031091
1000.030974
1000.030857
1000.03074
1000.030624
1000.030508
1000.030392
1000.030277
1000.030162
1000.030048
1000.029933
1000.029819
1000.029706
1000.029593
1000.02948
1000.029367
1000.029255
1000.029143
1000.029031
1000.02892
1000.028809
1000.028698
1000.028588
1000.028478
1000.028369
1000.028259
1000.02815
1000.028042
1000.027933
1000.027825
1000.027718
1000.02761
1000.027503
1000.027396
1000.02729
1000.027184
1000.027078
1000.026973
1000.026868
1000.026763
1000.026658
1000.026554
1000.02645
1000.026347
1000.026244
1000.026141
1000.026038
1000.025936
1000.025834
1000.025732
1000.025631
1000.02553
1000.02543
1000.025329
1000.025229
1000.02513
1000.02503
1000.024931
1000.024833
1000.024734
1000.024637
1000.024539
1000.024442
1000.024345
1000.024248
1000.024152
1000.024056
1000.02396
1000.023865
1000.02377
1000.023675
1000.023581
1000.023487
1000.023393
1000.0233
1000.023207
1000.023114
1000.023022
1000.02293
1000.022839
1000.022747
1000.022657
1000.022566
1000.022476
1000.022386
1000.022297
1000.022208
1000.02212
1000.022031
1000.021943
1000.021856
1000.021769
1000.021682
1000.021596
1000.02151
1000.021424
1000.021339
1000.021254
1000.02117
1000.021086
1000.021002
1000.020919
1000.020836
1000.020753
1000.020671
1000.02059
1000.020509
1000.020428
1000.020348
1000.020268
1000.020189
1000.02011
1000.020032
1000.019954
1000.019878
1000.019802
1000.019728
1000.019655
1000.019585
1000.019517
1000.019452
1000.019391
1000.019336
1000.019286
1000.019243
1000.019208
1000.01918
1000.01916
1000.019146
1000.019137
1000.019133
1000.01913
1000.01913
1000.019129
1000.01913
1000.01913
1000.019132
1000.019134
1000.019135
1000.019136
1000.019137
1000.019138
1000.019138
1000.019139
1000.019139
1000.01914
1000.01914
1000.01914
1000.01914
1000.019141
1000.019141
1000.019141
1000.019141
1000.019141
1000.019141
1000.019141
1000.019141
1000.019141
1000.019141
1000.019141
1000.019141
1000.019142
1000.019142
1000.019142
1000.019142
1000.019142
1000.019142
1000.019142
1000.019142
1000.019142
1000.019142
1000.019142
1000.019142
1000.019142
1000.019142
1000.019142
1000.019142
1000.019142
1000.019142
1000.019142
1000.019142
1000.019142
1000.019142
1000.019142
1000.019142
1000.019142
1000.019142
1000.019142
1000.019141
1000.019141
1000.019141
1000.019141
1000.019141
1000.019141
1000.019141
1000.019141
1000.019141
1000.019141
1000.019141
1000.019141
1000.019141
1000.019141
1000.019141
1000.019141
1000.019141
1000.019141
1000.019141
1000.019141
1000.019141
1000.019141
1000.019141
1000.019141
1000.019141
1000.019141
1000.019141
1000.019141
1000.019141
1000.019141
1000.019141
1000.019141
1000.019141
1000.019141
1000.019141
1000.019141
1000.019141
1000.019141
1000.019141
1000.019141
1000.019141
1000.019141
1000.019141
1000.019141
1000.019141
1000.019141
1000.019141
1000.01914
1000.01914
1000.01914
1000.01914
1000.01914
1000.01914
1000.01914
1000.01914
1000.01914
1000.01914
1000.01914
1000.01914
1000.01914
1000.01914
1000.01914
1000.01914
1000.01914
1000.01914
1000.01914
1000.01914
1000.01914
1000.01914
1000.01914
1000.01914
1000.01914
1000.01914
1000.01914
1000.01914
1000.01914
1000.01914
1000.01914
1000.019139
1000.019139
1000.019139
1000.019139
1000.019139
1000.019139
1000.019139
1000.019139
1000.019139
1000.019139
1000.019139
1000.019139
1000.019139
1000.019139
1000.019139
1000.019139
1000.019139
1000.019138
1000.019138
1000.019138
1000.019138
1000.019138
1000.019138
1000.019138
1000.019138
1000.019138
1000.019137
1000.019137
1000.019136
1000.019136
1000.019135
1000.019134
1000.019131
1000.01913
1000.019124
1000.01912
1000.019108
1000.019101
1000.019078
1000.019063
1000.019021
1000.018992
1000.01892
1000.018865
1000.018749
1000.018653
1000.018476
1000.018321
1000.018066
1000.017833
1000.017491
1000.017165
1000.01674
1000.016321
1000.015829
1000.015335
1000.014808
1000.014274
1000.013777
1000.013366
1000.013035
1000.012773
1000.012566
1000.012404
1000.01228
1000.012184
1000.012112
1000.012058
1000.012018
1000.011989
1000.011967
1000.011952
1000.011941
1000.011933
1000.011928
1000.011925
1000.011922
1000.011921
1000.01192
1000.011919
1000.011919
1000.011918
1000.011918
1000.011918
1000.011918
1000.011918
1000.011918
1000.011918
1000.011918
1000.011918
1000.011918
1000.011918
1000.011918
1000.011917
1000.011917
1000.011917
1000.011917
1000.011917
1000.011917
1000.011917
1000.011917
1000.011917
1000.011917
1000.011917
1000.011917
1000.011917
1000.011917
1000.011917
1000.011916
1000.011916
1000.011916
1000.011916
1000.011916
1000.011916
1000.011916
1000.011916
1000.011916
1000.011916
1000.011916
1000.011916
1000.011916
1000.011916
1000.011916
1000.011916
1000.011916
1000.011916
1000.011916
1000.011916
1000.011916
1000.011916
1000.011916
1000.011916
1000.011916
1000.011916
1000.011916
1000.011916
1000.011916
1000.011916
1000.011916
1000.011916
1000.011916
1000.011916
1000.011916
1000.011916
1000.011916
1000.011916
1000.011916
1000.011916
1000.011916
1000.011916
1000.011916
1000.011916
1000.011916
1000.011916
1000.011916
1000.011916
1000.011916
1000.011916
1000.011916
1000.011916
1000.011916
1000.011916
1000.011916
1000.011916
1000.011916
1000.011916
1000.011916
1000.011916
1000.011916
1000.011916
1000.011916
1000.011916
1000.011916
1000.011916
1000.011916
1000.011916
1000.011916
1000.011916
1000.011916
1000.011916
1000.011916
1000.011916
1000.011916
1000.011916
1000.011916
1000.011916
1000.011916
1000.011916
1000.011916
1000.011916
1000.011916
1000.011916
1000.011916
1000.011916
1000.011916
1000.011916
1000.011916
1000.011916
1000.011916
1000.011916
1000.011916
1000.011916
1000.011916
1000.011916
1000.011916
1000.011916
1000.011916
1000.011916
1000.011916
1000.011916
1000.011916
1000.011916
1000.011915
1000.011913
1000.011907
1000.011894
1000.011859
1000.011773
1000.011558
1000.011039
1000.00987
1000.00777
1000.006264
1000.005766
1000.005645
1000.005618
1000.005613
1000.005611
1000.005611
1000.005611
1000.005611
1000.005611
1000.005611
1000.005611
1000.005611
1000.005611
1000.005611
1000.005611
1000.005611
1000.005611
1000.005611
1000.005611
1000.005611
1000.005611
1000.005611
1000.005611
1000.005611
1000.005611
1000.005611
1000.005611
1000.005611
1000.005611
1000.005611
1000.005611
1000.005611
1000.005611
1000.005611
1000.005611
1000.005611
1000.005611
1000.005611
1000.005611
1000.005611
1000.005611
1000.005611
1000.005611
1000.005611
1000.005611
1000.005611
1000.005611
1000.005611
1000.005611
1000.005611
1000.005611
1000.005611
1000.005611
1000.005611
1000.005611
1000.005611
1000.005611
1000.005611
1000.005611
1000.005611
1000.005611
1000.005611
1000.005611
1000.005611
1000.005611
1000.005611
1000.005611
1000.005611
1000.005611
1000.005611
1000.005611
1000.005611
1000.005611
1000.005611
1000.005611
1000.005611
1000.005611
1000.005611
1000.005611
1000.005611
1000.005611
1000.005611
1000.005611
1000.005611
1000.005611
1000.005611
1000.005611
1000.005611
1000.005611
1000.005611
1000.005611
1000.005611
1000.005611
1000.005611
1000.005611
1000.005611
1000.005611
1000.005611
1000.005611
1000.005611
1000.005611
1000.005611
1000.005611
1000.005611
1000.005611
1000.005611
1000.005611
1000.005611
1000.005611
1000.005611
1000.005611
1000.005611
1000.005611
1000.005611
1000.005611
1000.005611
1000.005611
1000.005611
1000.005611
1000.005611
1000.005611
1000.005611
1000.005611
1000.005611
1000.005611
1000.005611
1000.005611
1000.005611
1000.005611
1000.005611
1000.005611
1000.005611
1000.005611
1000.005611
1000.005611
1000.005611
1000.005611
1000.005611
1000.005611
1000.005611
1000.005611
1000.005611
1000.005611
1000.005611
1000.005611
1000.005611
1000.005611
)
;

boundaryField
{
    sides
    {
        type            calculated;
        value           nonuniform List<scalar> 2(1000.005611 1000.044889);
    }
    empty
    {
        type            empty;
    }
}


// ************************************************************************* //
