/*--------------------------------*- C++ -*----------------------------------*\
| =========                 |                                                 |
| \\      /  F ield         | OpenFOAM: The Open Source CFD Toolbox           |
|  \\    /   O peration     | Version:  2012                                  |
|   \\  /    A nd           | Website:  www.openfoam.com                      |
|    \\/     M anipulation  |                                                 |
\*---------------------------------------------------------------------------*/
FoamFile
{
    version     2.0;
    format      ascii;
    class       volScalarField;
    location    "0.2";
    object      rho1;
}
// * * * * * * * * * * * * * * * * * * * * * * * * * * * * * * * * * * * * * //

dimensions      [1 -3 0 0 0 0 0];


internalField   nonuniform List<scalar> 
1000
(
1033.041348
1033.041348
1033.041348
1033.041348
1033.041348
1033.041348
1033.041348
1033.041348
1033.041348
1033.041348
1033.041348
1033.041348
1033.041348
1033.041348
1033.041348
1033.041348
1033.041348
1033.041348
1033.041348
1033.041348
1033.041348
1033.041348
1033.041348
1033.041348
1033.041348
1033.041348
1033.041348
1033.041348
1033.041348
1033.041348
1033.041348
1033.041348
1033.041348
1033.041348
1033.041348
1033.041348
1033.041348
1033.041348
1033.041348
1033.041348
1033.041348
1033.041348
1033.041348
1033.041348
1033.041348
1033.041348
1033.041348
1033.041348
1033.041348
1033.041348
1033.041348
1033.041348
1033.041348
1033.041348
1033.041348
1033.041348
1033.041348
1033.041348
1033.041348
1033.041348
1033.041348
1033.041348
1033.041348
1033.041348
1033.041348
1033.041348
1033.041348
1033.041348
1033.041348
1033.041348
1033.041348
1033.041348
1033.041348
1033.041348
1033.041348
1033.041348
1033.041348
1033.041348
1033.041348
1033.041348
1033.041348
1033.041348
1033.041348
1033.041348
1033.041348
1033.041348
1033.041348
1033.041348
1033.041348
1033.041348
1033.041348
1033.041348
1033.041348
1033.041348
1033.041348
1033.041348
1033.041348
1033.041348
1033.041348
1033.041348
1033.041348
1033.041348
1033.041348
1033.041348
1033.041348
1033.041348
1033.041348
1033.041348
1033.041348
1033.041348
1033.041348
1033.041348
1033.041348
1033.041348
1033.041348
1033.041348
1033.041348
1033.041348
1033.041348
1033.041348
1033.041348
1033.041348
1033.041348
1033.041348
1033.041348
1033.041348
1033.041348
1033.041348
1033.041348
1033.041348
1033.041348
1033.041348
1033.041348
1033.041348
1033.041348
1033.041348
1033.041348
1033.041348
1033.041348
1033.041348
1033.041348
1033.041348
1033.041348
1033.041348
1033.041348
1033.041348
1033.041348
1033.041348
1033.041348
1033.041348
1033.041348
1033.041348
1033.041348
1033.041348
1033.041348
1033.041348
1033.041348
1033.041348
1033.041348
1033.041348
1033.041348
1033.041348
1033.041348
1033.041348
1033.041348
1033.041348
1033.041348
1033.041348
1033.041348
1033.041348
1033.041348
1033.041348
1033.041348
1033.041348
1033.041348
1033.041348
1033.041348
1033.041348
1033.041348
1033.041348
1033.041348
1033.041348
1033.041348
1033.041348
1033.041348
1033.041348
1033.041348
1033.041348
1033.041348
1033.041348
1033.041348
1033.041348
1033.041348
1033.041348
1033.041348
1033.041348
1033.041348
1033.041348
1033.041348
1033.041348
1033.041348
1033.041348
1033.041348
1033.041348
1033.041348
1033.041348
1033.041348
1033.041348
1033.041348
1033.041348
1033.041348
1033.041348
1033.041348
1033.041348
1033.041348
1033.041348
1033.041348
1033.041348
1033.041348
1033.041348
1033.041348
1033.041348
1033.041348
1033.041348
1033.041348
1033.041348
1033.041348
1033.041348
1033.041348
1033.041348
1033.041348
1033.041348
1033.041348
1033.041348
1033.041347
1033.041347
1033.041347
1033.041347
1033.041346
1033.041346
1033.041345
1033.041344
1033.041342
1033.04134
1033.041337
1033.041334
1033.041329
1033.041322
1033.041314
1033.041304
1033.041291
1033.041276
1033.041256
1033.041233
1033.041206
1033.041173
1033.041135
1033.041092
1033.041042
1033.040987
1033.040925
1033.040857
1033.040783
1033.040703
1033.040618
1033.040527
1033.040432
1033.040332
1033.040228
1033.04012
1033.04001
1033.039896
1033.03978
1033.039662
1033.039542
1033.03942
1033.039297
1033.039173
1033.039048
1033.038922
1033.038795
1033.038667
1033.03854
1033.038411
1033.038283
1033.038154
1033.038024
1033.037895
1033.037766
1033.037636
1033.037507
1033.037377
1033.037248
1033.037119
1033.036989
1033.03686
1033.036732
1033.036603
1033.036474
1033.036346
1033.036218
1033.03609
1033.035963
1033.035835
1033.035708
1033.035581
1033.035455
1033.035328
1033.035202
1033.035076
1033.034951
1033.034825
1033.034701
1033.034576
1033.034451
1033.034327
1033.034204
1033.03408
1033.033957
1033.033834
1033.033712
1033.033589
1033.033468
1033.033346
1033.033225
1033.033104
1033.032983
1033.032863
1033.032743
1033.032623
1033.032504
1033.032385
1033.032266
1033.032148
1033.03203
1033.031912
1033.031795
1033.031678
1033.031561
1033.031444
1033.031328
1033.031213
1033.031097
1033.030982
1033.030867
1033.030753
1033.030639
1033.030525
1033.030411
1033.030298
1033.030185
1033.030073
1033.02996
1033.029849
1033.029737
1033.029626
1033.029515
1033.029404
1033.029294
1033.029184
1033.029074
1033.028965
1033.028856
1033.028747
1033.028639
1033.028531
1033.028423
1033.028316
1033.028208
1033.028102
1033.027995
1033.027889
1033.027783
1033.027677
1033.027572
1033.027467
1033.027363
1033.027258
1033.027154
1033.02705
1033.026947
1033.026844
1033.026741
1033.026639
1033.026536
1033.026434
1033.026333
1033.026231
1033.02613
1033.02603
1033.025929
1033.025829
1033.025729
1033.02563
1033.025531
1033.025432
1033.025333
1033.025235
1033.025137
1033.025039
1033.024942
1033.024844
1033.024748
1033.024651
1033.024555
1033.024459
1033.024363
1033.024268
1033.024173
1033.024078
1033.023983
1033.023889
1033.023795
1033.023702
1033.023609
1033.023516
1033.023423
1033.023331
1033.023239
1033.023147
1033.023055
1033.022964
1033.022873
1033.022783
1033.022693
1033.022603
1033.022513
1033.022424
1033.022335
1033.022246
1033.022158
1033.022069
1033.021982
1033.021894
1033.021807
1033.02172
1033.021634
1033.021547
1033.021462
1033.021376
1033.021291
1033.021206
1033.021121
1033.021037
1033.020953
1033.020869
1033.020786
1033.020703
1033.02062
1033.020538
1033.020456
1033.020374
1033.020293
1033.020212
1033.020132
1033.020051
1033.019971
1033.019892
1033.019813
1033.019734
1033.019655
1033.019577
1033.019499
1033.019422
1033.019345
1033.019268
1033.019192
1033.019116
1033.01904
1033.018965
1033.01889
1033.018816
1033.018742
1033.018668
1033.018595
1033.018523
1033.018451
1033.018379
1033.018309
1033.018239
1033.018171
1033.018104
1033.018039
1033.017977
1033.017917
1033.017861
1033.017809
1033.017763
1033.017724
1033.017691
1033.017665
1033.017646
1033.017633
1033.017625
1033.01762
1033.017618
1033.017618
1033.017617
1033.017618
1033.017618
1033.01762
1033.017621
1033.017623
1033.017623
1033.017624
1033.017625
1033.017626
1033.017626
1033.017627
1033.017627
1033.017627
1033.017627
1033.017628
1033.017628
1033.017628
1033.017628
1033.017628
1033.017628
1033.017628
1033.017628
1033.017628
1033.017628
1033.017628
1033.017629
1033.017629
1033.017629
1033.017629
1033.017629
1033.017629
1033.017629
1033.017629
1033.017629
1033.017629
1033.017629
1033.017629
1033.017629
1033.017629
1033.017629
1033.017629
1033.017629
1033.017629
1033.017629
1033.017629
1033.017629
1033.017629
1033.017629
1033.017629
1033.017629
1033.017629
1033.017629
1033.017629
1033.017629
1033.017629
1033.017628
1033.017628
1033.017628
1033.017628
1033.017628
1033.017628
1033.017628
1033.017628
1033.017628
1033.017628
1033.017628
1033.017628
1033.017628
1033.017628
1033.017628
1033.017628
1033.017628
1033.017628
1033.017628
1033.017628
1033.017628
1033.017628
1033.017628
1033.017628
1033.017628
1033.017628
1033.017628
1033.017628
1033.017628
1033.017628
1033.017628
1033.017628
1033.017628
1033.017628
1033.017628
1033.017628
1033.017628
1033.017628
1033.017628
1033.017628
1033.017628
1033.017628
1033.017628
1033.017628
1033.017628
1033.017628
1033.017628
1033.017628
1033.017627
1033.017627
1033.017627
1033.017627
1033.017627
1033.017627
1033.017627
1033.017627
1033.017627
1033.017627
1033.017627
1033.017627
1033.017627
1033.017627
1033.017627
1033.017627
1033.017627
1033.017627
1033.017627
1033.017627
1033.017627
1033.017627
1033.017627
1033.017627
1033.017627
1033.017627
1033.017627
1033.017627
1033.017627
1033.017627
1033.017627
1033.017626
1033.017626
1033.017626
1033.017626
1033.017626
1033.017626
1033.017626
1033.017626
1033.017626
1033.017626
1033.017626
1033.017626
1033.017626
1033.017626
1033.017626
1033.017626
1033.017625
1033.017625
1033.017625
1033.017625
1033.017625
1033.017625
1033.017625
1033.017625
1033.017624
1033.017624
1033.017623
1033.017623
1033.017622
1033.017621
1033.017619
1033.017617
1033.017612
1033.017609
1033.017597
1033.017591
1033.017569
1033.017556
1033.017517
1033.01749
1033.017423
1033.017373
1033.017266
1033.017177
1033.017014
1033.01687
1033.016636
1033.01642
1033.016105
1033.015804
1033.015411
1033.015025
1033.014571
1033.014115
1033.01363
1033.013138
1033.012681
1033.012304
1033.012001
1033.01176
1033.011571
1033.011423
1033.011308
1033.011221
1033.011155
1033.011105
1033.011068
1033.011041
1033.011022
1033.011008
1033.010998
1033.010991
1033.010986
1033.010983
1033.01098
1033.010979
1033.010978
1033.010977
1033.010977
1033.010977
1033.010977
1033.010976
1033.010976
1033.010976
1033.010976
1033.010976
1033.010976
1033.010976
1033.010976
1033.010976
1033.010976
1033.010976
1033.010976
1033.010976
1033.010976
1033.010976
1033.010976
1033.010976
1033.010975
1033.010975
1033.010975
1033.010975
1033.010975
1033.010975
1033.010975
1033.010975
1033.010975
1033.010975
1033.010975
1033.010975
1033.010975
1033.010975
1033.010975
1033.010975
1033.010975
1033.010975
1033.010975
1033.010975
1033.010975
1033.010975
1033.010975
1033.010975
1033.010975
1033.010975
1033.010975
1033.010975
1033.010975
1033.010975
1033.010975
1033.010975
1033.010975
1033.010975
1033.010975
1033.010975
1033.010975
1033.010975
1033.010975
1033.010975
1033.010975
1033.010975
1033.010975
1033.010975
1033.010975
1033.010975
1033.010975
1033.010975
1033.010975
1033.010975
1033.010975
1033.010975
1033.010975
1033.010975
1033.010975
1033.010975
1033.010975
1033.010975
1033.010975
1033.010975
1033.010975
1033.010975
1033.010975
1033.010975
1033.010975
1033.010975
1033.010975
1033.010975
1033.010975
1033.010975
1033.010975
1033.010975
1033.010975
1033.010975
1033.010975
1033.010975
1033.010975
1033.010975
1033.010975
1033.010975
1033.010975
1033.010975
1033.010975
1033.010975
1033.010975
1033.010975
1033.010975
1033.010975
1033.010975
1033.010975
1033.010975
1033.010975
1033.010975
1033.010975
1033.010975
1033.010975
1033.010975
1033.010975
1033.010975
1033.010975
1033.010975
1033.010975
1033.010975
1033.010975
1033.010975
1033.010975
1033.010975
1033.010975
1033.010975
1033.010975
1033.010975
1033.010974
1033.010974
1033.010972
1033.010967
1033.010956
1033.010927
1033.010855
1033.010674
1033.010236
1033.009238
1033.007358
1033.005849
1033.005332
1033.005204
1033.005176
1033.00517
1033.005169
1033.005169
1033.005168
1033.005168
1033.005168
1033.005168
1033.005168
1033.005168
1033.005168
1033.005168
1033.005168
1033.005168
1033.005168
1033.005168
1033.005168
1033.005168
1033.005168
1033.005168
1033.005168
1033.005168
1033.005168
1033.005168
1033.005168
1033.005168
1033.005168
1033.005168
1033.005168
1033.005168
1033.005168
1033.005168
1033.005168
1033.005168
1033.005168
1033.005168
1033.005168
1033.005168
1033.005168
1033.005168
1033.005168
1033.005168
1033.005168
1033.005168
1033.005168
1033.005168
1033.005168
1033.005168
1033.005168
1033.005168
1033.005168
1033.005168
1033.005168
1033.005168
1033.005168
1033.005168
1033.005168
1033.005168
1033.005168
1033.005168
1033.005168
1033.005168
1033.005168
1033.005168
1033.005168
1033.005168
1033.005168
1033.005168
1033.005168
1033.005168
1033.005168
1033.005168
1033.005168
1033.005168
1033.005168
1033.005168
1033.005168
1033.005168
1033.005168
1033.005168
1033.005168
1033.005168
1033.005168
1033.005168
1033.005168
1033.005168
1033.005168
1033.005168
1033.005168
1033.005168
1033.005168
1033.005168
1033.005168
1033.005168
1033.005168
1033.005168
1033.005168
1033.005168
1033.005168
1033.005168
1033.005168
1033.005168
1033.005168
1033.005168
1033.005168
1033.005168
1033.005168
1033.005168
1033.005168
1033.005168
1033.005168
1033.005168
1033.005168
1033.005168
1033.005168
1033.005168
1033.005168
1033.005168
1033.005168
1033.005168
1033.005168
1033.005168
1033.005168
1033.005168
1033.005168
1033.005168
1033.005168
1033.005168
1033.005168
1033.005168
1033.005168
1033.005168
1033.005168
1033.005168
1033.005168
1033.005168
1033.005168
1033.005168
1033.005168
1033.005168
1033.005168
1033.005168
1033.005168
1033.005168
1033.005168
)
;

boundaryField
{
    sides
    {
        type            calculated;
        value           nonuniform List<scalar> 2(1033.005168 1033.041348);
    }
    empty
    {
        type            empty;
    }
}


// ************************************************************************* //
