/*--------------------------------*- C++ -*----------------------------------*\
| =========                 |                                                 |
| \\      /  F ield         | OpenFOAM: The Open Source CFD Toolbox           |
|  \\    /   O peration     | Version:  v2012                                 |
|   \\  /    A nd           | Website:  www.openfoam.com                      |
|    \\/     M anipulation  |                                                 |
\*---------------------------------------------------------------------------*/
FoamFile
{
    version     2.0;
    format      ascii;
    class       volScalarField;
    location    "0.2";
    object      rho2;
}
// * * * * * * * * * * * * * * * * * * * * * * * * * * * * * * * * * * * * * //

dimensions      [1 -3 0 0 0 0 0];


internalField   nonuniform List<scalar> 
1000
(
0.9989740407
0.9989740407
0.9989740407
0.9989740407
0.9989740407
0.9989740407
0.9989740407
0.9989740407
0.9989740407
0.9989740407
0.9989740407
0.9989740407
0.9989740407
0.9989740407
0.9989740407
0.9989740407
0.9989740407
0.9989740407
0.9989740407
0.9989740407
0.9989740407
0.9989740407
0.9989740407
0.9989740407
0.9989740407
0.9989740407
0.9989740407
0.9989740407
0.9989740407
0.9989740407
0.9989740407
0.9989740407
0.9989740407
0.9989740407
0.9989740407
0.9989740407
0.9989740407
0.9989740407
0.9989740407
0.9989740407
0.9989740407
0.9989740407
0.9989740407
0.9989740407
0.9989740407
0.9989740407
0.9989740407
0.9989740407
0.9989740407
0.9989740407
0.9989740407
0.9989740407
0.9989740407
0.9989740407
0.9989740407
0.9989740407
0.9989740407
0.9989740407
0.9989740407
0.9989740407
0.9989740407
0.9989740407
0.9989740407
0.9989740407
0.9989740407
0.9989740407
0.9989740407
0.9989740407
0.9989740407
0.9989740407
0.9989740407
0.9989740407
0.9989740407
0.9989740407
0.9989740407
0.9989740407
0.9989740407
0.9989740407
0.9989740407
0.9989740407
0.9989740407
0.9989740407
0.9989740407
0.9989740407
0.9989740407
0.9989740407
0.9989740407
0.9989740407
0.9989740407
0.9989740407
0.9989740407
0.9989740407
0.9989740407
0.9989740407
0.9989740407
0.9989740407
0.9989740407
0.9989740407
0.9989740407
0.9989740407
0.9989740407
0.9989740407
0.9989740407
0.9989740407
0.9989740407
0.9989740407
0.9989740407
0.9989740407
0.9989740407
0.9989740407
0.9989740407
0.9989740407
0.9989740407
0.9989740407
0.9989740407
0.9989740407
0.9989740407
0.9989740407
0.9989740407
0.9989740407
0.9989740407
0.9989740407
0.9989740407
0.9989740407
0.9989740407
0.9989740407
0.9989740407
0.9989740407
0.9989740407
0.9989740407
0.9989740407
0.9989740407
0.9989740407
0.9989740407
0.9989740407
0.9989740407
0.9989740407
0.9989740407
0.9989740407
0.9989740407
0.9989740407
0.9989740407
0.9989740407
0.9989740407
0.9989740407
0.9989740407
0.9989740407
0.9989740407
0.9989740407
0.9989740407
0.9989740407
0.9989740407
0.9989740407
0.9989740407
0.9989740407
0.9989740407
0.9989740407
0.9989740407
0.9989740407
0.9989740407
0.9989740407
0.9989740407
0.9989740407
0.9989740407
0.9989740407
0.9989740407
0.9989740407
0.9989740407
0.9989740407
0.9989740407
0.9989740407
0.9989740407
0.9989740407
0.9989740407
0.9989740407
0.9989740407
0.9989740407
0.9989740407
0.9989740407
0.9989740407
0.9989740407
0.9989740407
0.9989740407
0.9989740407
0.9989740407
0.9989740407
0.9989740407
0.9989740407
0.9989740407
0.9989740407
0.9989740407
0.9989740407
0.9989740407
0.9989740407
0.9989740407
0.9989740407
0.9989740407
0.9989740407
0.9989740407
0.9989740407
0.9989740407
0.9989740407
0.9989740407
0.9989740407
0.9989740407
0.9989740407
0.9989740407
0.9989740407
0.9989740406
0.9989740406
0.9989740406
0.9989740405
0.9989740403
0.9989740401
0.9989740397
0.9989740391
0.998974038
0.9989740363
0.9989740334
0.9989740289
0.9989740216
0.99897401
0.9989739917
0.9989739628
0.9989739176
0.9989738475
0.9989737393
0.9989735737
0.9989733217
0.998972941
0.9989723702
0.9989715203
0.9989702646
0.9989684232
0.9989657438
0.9989618761
0.9989563383
0.9989484747
0.9989374034
0.9989219514
0.9989005775
0.9988712827
0.9988315083
0.9987780259
0.9987068228
0.9986129903
0.9984906258
0.9983327593
0.9981313205
0.99787716
0.9975601408
0.9971693089
0.9966931509
0.9961199334
0.9954381134
0.9946367959
0.9937062068
0.9926381428
0.991426358
0.9900668527
0.9885580362
0.9869007503
0.9850981563
0.9831554991
0.9810797782
0.9788793588
0.9765635587
0.9741422457
0.9716254715
0.9690231598
0.9663448599
0.9635995664
0.9607956015
0.9579405507
0.9550412431
0.9521037639
0.9491334903
0.9461351406
0.9431128302
0.9400701278
0.9370100751
0.9339355104
0.9308495282
0.9277535633
0.9246489806
0.9215368475
0.9184183235
0.9152956113
0.9121710004
0.9090458687
0.905921077
0.9027973484
0.8996753367
0.8965556236
0.8934387312
0.8903251299
0.8872152444
0.8841094588
0.8810081202
0.8779115415
0.874820004
0.8717337593
0.8686530309
0.8655780176
0.8625088964
0.8594458294
0.8563889716
0.8533384866
0.8502945467
0.8472573021
0.8442268682
0.8412033452
0.8381868291
0.8351774061
0.8321751553
0.8291801486
0.8261924512
0.823212123
0.820239218
0.8172737853
0.8143158695
0.8113655106
0.808422745
0.8054876053
0.8025601204
0.7996403166
0.7967282168
0.7938238416
0.7909272087
0.7880383337
0.78515723
0.7822839089
0.7794183799
0.7765606509
0.7737107278
0.7708686154
0.768034317
0.7652078345
0.7623891687
0.7595783193
0.7567752847
0.7539800627
0.75119265
0.7484130425
0.7456412352
0.7428772226
0.7401209983
0.7373725553
0.734631886
0.7318989823
0.7291738355
0.7264564364
0.7237467753
0.7210448422
0.7183506267
0.7156641179
0.7129853049
0.7103141761
0.7076507201
0.704994925
0.7023467789
0.6997062696
0.6970733852
0.6944481134
0.6918304421
0.6892203592
0.6866178527
0.6840229107
0.6814355214
0.6788556734
0.6762833554
0.6737185564
0.6711612661
0.6686114743
0.6660691714
0.6635343486
0.6610069974
0.6584871104
0.6559746805
0.6534697015
0.6509721678
0.648482074
0.6459994154
0.643524187
0.6410563837
0.6385959997
0.6361430283
0.6336974617
0.6312592902
0.6288285023
0.6264050848
0.6239890226
0.6215802999
0.6191789009
0.6167848137
0.614398029
0.6120185498
0.6096463871
0.607281556
0.6049241338
0.6025740439
0.6002313491
0.5978961713
0.595568202
0.5932476701
0.5909347752
0.5886289674
0.5863305
0.5840397688
0.5817561174
0.5794795728
0.5772107441
0.5749491896
0.5726945233
0.5704473508
0.5682078019
0.5659751432
0.5637495708
0.5615318477
0.5593213923
0.5571176221
0.5549214165
0.5527330764
0.5505514813
0.5483767169
0.5462099528
0.5440507022
0.5418979042
0.5397523339
0.5376150168
0.5354848796
0.5333610578
0.531244948
0.5291372339
0.5270363098
0.5249416705
0.5228552154
0.5207771706
0.5187055965
0.5166403798
0.5145837386
0.5125355787
0.5104936892
0.5084581707
0.5064315545
0.5044136682
0.5024020191
0.5003966501
0.4984005072
0.4964136912
0.4944331252
0.4924584642
0.4904932138
0.4885377505
0.4865890018
0.4846457531
0.4827118526
0.4807887927
0.4788737676
0.4769641228
0.4750635097
0.4731746595
0.4712955976
0.4694225026
0.4675579732
0.465706436
0.4638668248
0.4620351983
0.4602132475
0.4584041344
0.4566091516
0.454826452
0.4530556577
0.4513004141
0.4495632176
0.4478444498
0.4461457763
0.4444723267
0.4428281183
0.4412177057
0.4396462288
0.4381218173
0.4366523031
0.4352473073
0.4339157983
0.4326688571
0.4315158778
0.4304665406
0.4295269354
0.428702266
0.4279932111
0.4273981978
0.4269103554
0.4265215775
0.4262200766
0.4259937769
0.4258292156
0.4257142595
0.4256372219
0.4255884676
0.4255598906
0.4255448663
0.4255385493
0.4255366862
0.4255369066
0.4255401192
0.4255480577
0.4255610686
0.4255754153
0.4255867919
0.4255955961
0.4256026025
0.4256083396
0.425613169
0.4256173222
0.4256209687
0.4256242314
0.4256271894
0.425629896
0.4256323859
0.4256346845
0.4256368095
0.4256387805
0.4256406118
0.4256423071
0.4256438583
0.425645253
0.4256464923
0.4256475837
0.425648537
0.4256493561
0.4256500455
0.425650615
0.425651077
0.4256514459
0.4256517331
0.4256519505
0.4256521007
0.4256522034
0.4256522576
0.425652274
0.4256522129
0.4256521472
0.4256520494
0.425651896
0.4256517432
0.4256515663
0.4256513674
0.4256511726
0.425650977
0.425650764
0.4256505533
0.4256503363
0.4256501097
0.4256498676
0.4256496059
0.4256493217
0.4256490143
0.4256486931
0.4256483561
0.4256480051
0.4256476425
0.4256472691
0.4256468888
0.4256465035
0.4256461089
0.4256457042
0.425645285
0.4256448663
0.425644451
0.4256440332
0.4256436102
0.4256431809
0.4256427446
0.4256423009
0.4256418508
0.4256413954
0.4256409354
0.425640471
0.425640001
0.4256395225
0.4256390315
0.4256385261
0.4256380185
0.4256375202
0.425637028
0.4256365414
0.4256360603
0.4256355833
0.4256351063
0.4256346238
0.4256341328
0.4256336307
0.4256331173
0.4256325934
0.4256320594
0.4256315147
0.4256309573
0.425630386
0.4256297999
0.4256291997
0.425628586
0.4256279615
0.4256273289
0.4256266935
0.4256260606
0.4256254333
0.4256248144
0.4256242023
0.4256235943
0.4256229866
0.4256223728
0.4256217484
0.4256211086
0.4256204496
0.4256197685
0.4256190632
0.4256183326
0.4256175751
0.4256167891
0.4256159736
0.4256151287
0.4256142509
0.4256133417
0.4256124047
0.4256114434
0.4256104618
0.4256094637
0.4256084524
0.4256074299
0.4256063948
0.4256053472
0.4256042853
0.4256032054
0.4256021031
0.4256009701
0.4255998005
0.4255985881
0.4255973275
0.4255960137
0.4255946426
0.4255932102
0.4255917126
0.425590146
0.4255885068
0.4255867903
0.4255849903
0.4255830951
0.425581088
0.425578955
0.4255766702
0.4255741957
0.4255714725
0.425568407
0.4255648494
0.4255605688
0.425555219
0.425548274
0.4255389418
0.4255260448
0.4255078527
0.4254818416
0.4254443926
0.4253903642
0.4253125528
0.4252010224
0.4250421824
0.4248179097
0.4245041181
0.4240697925
0.4234751434
0.4226708535
0.4215962424
0.4201793508
0.4183367103
0.415973162
0.4129894876
0.4092776862
0.4047397149
0.3992835261
0.3928393995
0.3853692523
0.3768748861
0.3674054058
0.357061201
0.3459957974
0.3343887237
0.3224358901
0.3106960992
0.3007118855
0.2926577061
0.2862474393
0.2811984432
0.2772584495
0.2742125002
0.2718803851
0.2701128005
0.2687866896
0.2678021171
0.2670790529
0.2665539968
0.2661771499
0.2659099508
0.2657229104
0.2655937601
0.2655058947
0.2654470893
0.2654084557
0.2653836157
0.2653680527
0.2653586132
0.2653531272
0.2653501218
0.265348617
0.2653479723
0.2653477793
0.2653477694
0.2653478489
0.2653480285
0.2653482048
0.2653482595
0.2653482464
0.2653481747
0.2653479925
0.2653476646
0.2653471581
0.2653464598
0.2653455704
0.2653444989
0.2653432716
0.2653419214
0.2653405042
0.2653391588
0.2653379239
0.2653367797
0.2653357159
0.2653347279
0.2653338142
0.2653329748
0.2653322095
0.2653315168
0.2653308954
0.2653303435
0.2653298583
0.2653294362
0.2653290738
0.2653287673
0.2653285127
0.2653283046
0.2653281387
0.2653280094
0.2653279122
0.2653278428
0.2653277958
0.2653277671
0.265327752
0.2653277451
0.2653277407
0.265327738
0.2653277399
0.2653277483
0.2653277659
0.265327794
0.2653278321
0.2653278784
0.2653279254
0.2653279617
0.2653279879
0.2653280059
0.2653280176
0.2653280262
0.2653280355
0.2653280438
0.2653280497
0.2653280535
0.2653280498
0.2653280441
0.2653280346
0.265328022
0.2653280051
0.265327984
0.2653279596
0.2653279326
0.2653279041
0.2653278752
0.2653278462
0.2653278167
0.2653277852
0.265327757
0.2653277296
0.2653277062
0.2653276871
0.2653276718
0.2653276582
0.2653276434
0.2653276324
0.2653276263
0.2653276221
0.2653276201
0.265327615
0.2653276038
0.2653275914
0.2653275832
0.2653275775
0.2653275679
0.2653275484
0.2653275158
0.2653274828
0.2653274729
0.2653274849
0.2653274997
0.2653275007
0.265327492
0.2653274769
0.2653274757
0.2653275012
0.2653275183
0.2653275219
0.2653275109
0.2653275114
0.2653275424
0.265327566
0.2653275449
0.2653274665
0.2653274173
0.265327458
0.2653275832
0.265327633
0.265327506
0.2653272783
0.2653271856
0.2653273988
0.2653277526
0.2653279014
0.2653275474
0.2653269163
0.2653268553
0.2653272135
0.2653279069
0.2653271971
0.2653235253
0.2653165759
0.2653014112
0.2652601605
0.2651444265
0.2648267837
0.2639792867
0.2617146947
0.2557647613
0.240912312
0.2074898961
0.1581832708
0.1340167981
0.1269269136
0.1253105098
0.1249642986
0.1248912175
0.1248758502
0.1248726221
0.1248719442
0.1248718019
0.124871772
0.1248717657
0.1248717644
0.1248717641
0.124871764
0.124871764
0.124871764
0.124871764
0.124871764
0.124871764
0.124871764
0.124871764
0.124871764
0.124871764
0.124871764
0.124871764
0.124871764
0.124871764
0.124871764
0.124871764
0.124871764
0.124871764
0.124871764
0.124871764
0.124871764
0.124871764
0.124871764
0.124871764
0.124871764
0.124871764
0.124871764
0.124871764
0.124871764
0.124871764
0.124871764
0.124871764
0.124871764
0.124871764
0.124871764
0.124871764
0.124871764
0.124871764
0.124871764
0.124871764
0.124871764
0.124871764
0.124871764
0.124871764
0.124871764
0.124871764
0.124871764
0.124871764
0.124871764
0.124871764
0.124871764
0.124871764
0.124871764
0.124871764
0.124871764
0.124871764
0.124871764
0.124871764
0.124871764
0.124871764
0.124871764
0.124871764
0.124871764
0.124871764
0.124871764
0.124871764
0.124871764
0.124871764
0.124871764
0.124871764
0.124871764
0.124871764
0.124871764
0.124871764
0.124871764
0.124871764
0.124871764
0.124871764
0.124871764
0.124871764
0.124871764
0.124871764
0.124871764
0.124871764
0.124871764
0.124871764
0.124871764
0.124871764
0.124871764
0.124871764
0.124871764
0.124871764
0.124871764
0.124871764
0.124871764
0.124871764
0.124871764
0.124871764
0.124871764
0.124871764
0.124871764
0.124871764
0.124871764
0.124871764
0.124871764
0.124871764
0.124871764
0.124871764
0.124871764
0.124871764
0.124871764
0.124871764
0.124871764
0.124871764
0.124871764
0.124871764
0.124871764
0.124871764
0.124871764
0.124871764
0.124871764
0.124871764
0.124871764
0.124871764
0.124871764
0.124871764
0.124871764
0.124871764
0.124871764
0.124871764
0.124871764
0.124871764
0.124871764
0.124871764
0.124871764
)
;

boundaryField
{
    sides
    {
        type            calculated;
        value           nonuniform List<scalar> 2(0.124871764 0.9989740407);
    }
    empty
    {
        type            empty;
    }
}


// ************************************************************************* //
