/*--------------------------------*- C++ -*----------------------------------*\
| =========                 |                                                 |
| \\      /  F ield         | OpenFOAM: The Open Source CFD Toolbox           |
|  \\    /   O peration     | Version:  2012                                  |
|   \\  /    A nd           | Website:  www.openfoam.com                      |
|    \\/     M anipulation  |                                                 |
\*---------------------------------------------------------------------------*/
FoamFile
{
    version     2.0;
    format      ascii;
    class       volScalarField;
    location    "0.2";
    object      rho2;
}
// * * * * * * * * * * * * * * * * * * * * * * * * * * * * * * * * * * * * * //

dimensions      [1 -3 0 0 0 0 0];


internalField   nonuniform List<scalar> 
1000
(
0.9989740407
0.9989740407
0.9989740407
0.9989740407
0.9989740407
0.9989740407
0.9989740407
0.9989740407
0.9989740407
0.9989740407
0.9989740407
0.9989740407
0.9989740407
0.9989740407
0.9989740407
0.9989740407
0.9989740407
0.9989740407
0.9989740407
0.9989740407
0.9989740407
0.9989740407
0.9989740407
0.9989740407
0.9989740407
0.9989740407
0.9989740407
0.9989740407
0.9989740407
0.9989740407
0.9989740407
0.9989740407
0.9989740407
0.9989740407
0.9989740407
0.9989740407
0.9989740407
0.9989740407
0.9989740407
0.9989740407
0.9989740407
0.9989740407
0.9989740407
0.9989740407
0.9989740407
0.9989740407
0.9989740407
0.9989740407
0.9989740407
0.9989740407
0.9989740407
0.9989740407
0.9989740407
0.9989740407
0.9989740407
0.9989740407
0.9989740407
0.9989740407
0.9989740407
0.9989740407
0.9989740407
0.9989740407
0.9989740407
0.9989740407
0.9989740407
0.9989740407
0.9989740407
0.9989740407
0.9989740407
0.9989740407
0.9989740407
0.9989740407
0.9989740407
0.9989740407
0.9989740407
0.9989740407
0.9989740407
0.9989740407
0.9989740407
0.9989740407
0.9989740407
0.9989740407
0.9989740407
0.9989740407
0.9989740407
0.9989740407
0.9989740407
0.9989740407
0.9989740407
0.9989740407
0.9989740407
0.9989740407
0.9989740407
0.9989740407
0.9989740407
0.9989740407
0.9989740407
0.9989740407
0.9989740407
0.9989740407
0.9989740407
0.9989740407
0.9989740407
0.9989740407
0.9989740407
0.9989740407
0.9989740407
0.9989740407
0.9989740407
0.9989740407
0.9989740407
0.9989740407
0.9989740407
0.9989740407
0.9989740407
0.9989740407
0.9989740407
0.9989740407
0.9989740407
0.9989740407
0.9989740407
0.9989740407
0.9989740407
0.9989740407
0.9989740407
0.9989740407
0.9989740407
0.9989740407
0.9989740407
0.9989740407
0.9989740407
0.9989740407
0.9989740407
0.9989740407
0.9989740407
0.9989740407
0.9989740407
0.9989740407
0.9989740407
0.9989740407
0.9989740407
0.9989740407
0.9989740407
0.9989740407
0.9989740407
0.9989740407
0.9989740407
0.9989740407
0.9989740407
0.9989740407
0.9989740407
0.9989740407
0.9989740407
0.9989740407
0.9989740407
0.9989740407
0.9989740407
0.9989740407
0.9989740407
0.9989740407
0.9989740407
0.9989740407
0.9989740407
0.9989740407
0.9989740407
0.9989740407
0.9989740407
0.9989740407
0.9989740407
0.9989740407
0.9989740407
0.9989740407
0.9989740407
0.9989740407
0.9989740407
0.9989740407
0.9989740407
0.9989740407
0.9989740407
0.9989740407
0.9989740407
0.9989740407
0.9989740407
0.9989740407
0.9989740407
0.9989740407
0.9989740407
0.9989740407
0.9989740407
0.9989740407
0.9989740407
0.9989740407
0.9989740407
0.9989740407
0.9989740407
0.9989740407
0.9989740407
0.9989740407
0.9989740407
0.9989740407
0.9989740407
0.9989740407
0.9989740407
0.9989740407
0.9989740407
0.9989740407
0.9989740407
0.9989740407
0.9989740406
0.9989740406
0.9989740406
0.9989740405
0.9989740404
0.9989740401
0.9989740398
0.9989740392
0.9989740382
0.9989740367
0.9989740341
0.9989740299
0.9989740233
0.9989740126
0.9989739957
0.9989739691
0.9989739274
0.9989738626
0.9989737624
0.9989736087
0.9989733744
0.9989730199
0.9989724872
0.9989716928
0.9989705168
0.9989687891
0.9989662705
0.9989626281
0.998957403
0.9989499697
0.9989394842
0.998924822
0.9989045016
0.9988765967
0.9988386354
0.9987874906
0.9987192645
0.9986291753
0.9985114554
0.9983592726
0.9981646893
0.9979186744
0.9976111829
0.9972313156
0.9967675641
0.9962081406
0.995541382
0.9947562051
0.9938425835
0.9927920072
0.991597885
0.990255853
0.9887639594
0.9871227106
0.9853349766
0.9834057714
0.9813419314
0.97915173
0.9768444607
0.9744300265
0.9719185624
0.9693201112
0.9666443638
0.9639004679
0.9610968999
0.9582413945
0.9553409189
0.952401683
0.9494291735
0.9464282032
0.9434029676
0.9403571028
0.9372937092
0.9342156448
0.9311261006
0.9280265391
0.9249183476
0.9218026131
0.9186805602
0.9155544086
0.9124264392
0.9092979859
0.9061699142
0.9030429484
0.8999177443
0.8967948844
0.893674891
0.8905582342
0.8874453383
0.8843365866
0.8812323261
0.8781328696
0.8750384986
0.8719494654
0.8688659942
0.8657882838
0.8627165101
0.8596508321
0.856591399
0.8535383657
0.8504918982
0.8474521481
0.8444192316
0.8413932464
0.8383742866
0.8353624371
0.8323577753
0.829360372
0.8263702916
0.8233875929
0.8204123295
0.8174445502
0.8144842991
0.8115316166
0.8085865391
0.8056490996
0.8027193277
0.7997972503
0.7968828912
0.7939762717
0.791077411
0.7881863256
0.7853030302
0.7824275376
0.7795598588
0.7767000029
0.7738479776
0.771003789
0.768167442
0.7653389401
0.7625182853
0.759705479
0.756900521
0.7541034103
0.751314145
0.748532722
0.7457591376
0.7429933871
0.7402354651
0.7374853652
0.7347430806
0.7320086036
0.7292819259
0.7265630385
0.7238519319
0.7211485959
0.7184530197
0.7157651921
0.7130851014
0.7104127351
0.7077480807
0.7050911249
0.7024418541
0.6998002544
0.6971663114
0.6945400105
0.6919213367
0.6893102748
0.6867068092
0.6841109242
0.681522604
0.6789418324
0.6763685934
0.6738028707
0.6712446479
0.6686939087
0.6661506368
0.6636148158
0.6610864294
0.6585654614
0.6560518956
0.6535457161
0.6510469071
0.6485554528
0.6460713379
0.6435945471
0.6411250653
0.6386628778
0.63620797
0.6337603275
0.631319936
0.6288867817
0.6264608507
0.6240421295
0.6216306049
0.6192262635
0.6168290927
0.6144390805
0.6120562164
0.6096804921
0.6073119022
0.6049504451
0.6025961231
0.6002489417
0.5979089097
0.5955760384
0.5932503412
0.5909318349
0.5886205421
0.5863164937
0.5840197098
0.5817301756
0.5794478895
0.5771728655
0.5749050522
0.5726444765
0.5703911979
0.5681450866
0.5659062108
0.5636748045
0.56145053
0.5592334114
0.5570240137
0.5548217671
0.5526264354
0.5504389582
0.5482590006
0.5460857251
0.5439200479
0.5417625335
0.539611854
0.5374680795
0.5353327134
0.5332049744
0.5310836077
0.5289698659
0.5268646938
0.5247666137
0.5226749675
0.5205916385
0.5185169605
0.5164490403
0.5143878181
0.5123357489
0.5102923957
0.508255241
0.506225201
0.5042049376
0.5021935738
0.500188069
0.4981899203
0.4962022616
0.4942237365
0.4922509359
0.4902856037
0.4883309711
0.4863857864
0.4844465737
0.4825143056
0.4805925884
0.478681282
0.4767758124
0.4748765024
0.4729886011
0.4711102512
0.4692396639
0.4673749294
0.4655218326
0.4636784299
0.4618393246
0.4600132293
0.4581969992
0.4563865582
0.4545889399
0.4528027579
0.4510260271
0.4492618224
0.4475102005
0.4457724299
0.4440504138
0.4423475574
0.4406680296
0.439017502
0.4374028259
0.4358330849
0.4343199028
0.4328779434
0.4315250705
0.4302815184
0.4291689683
0.4282073678
0.4274117656
0.4267877615
0.4263288195
0.4260162255
0.4258217957
0.4257140287
0.4256630276
0.4256447927
0.4256414803
0.4256458598
0.4256621575
0.4256957955
0.4257371521
0.4257664319
0.4257884386
0.425807652
0.4258247438
0.4258395331
0.4258519146
0.4258620543
0.4258703183
0.4258772038
0.4258831694
0.42588855
0.4258934724
0.4258978592
0.4259015361
0.4259043447
0.4259062798
0.425907463
0.4259081022
0.4259084322
0.4259086626
0.4259090078
0.4259098588
0.4259117182
0.4259133453
0.425913727
0.4259137291
0.4259135117
0.4259136877
0.4259149232
0.4259156285
0.4259153333
0.4259152009
0.4259151121
0.425915187
0.425915293
0.4259146219
0.425914521
0.425914442
0.4259140077
0.4259137762
0.4259135595
0.4259132912
0.4259129821
0.4259126534
0.4259123793
0.4259120469
0.4259116586
0.4259112489
0.4259108088
0.4259103344
0.425909874
0.4259094185
0.4259089388
0.4259084236
0.4259078913
0.4259073303
0.4259068059
0.4259062835
0.4259057734
0.425905274
0.4259047621
0.4259042179
0.4259036588
0.4259031476
0.4259026635
0.4259021853
0.4259016881
0.4259011711
0.4259006604
0.4259001629
0.4258996681
0.4258991508
0.4258986096
0.4258980556
0.4258975395
0.4258970627
0.4258965929
0.4258961073
0.4258956298
0.4258951715
0.4258947011
0.4258941952
0.4258936971
0.4258932055
0.425892696
0.4258921931
0.4258917035
0.4258912194
0.425890762
0.4258902909
0.4258897923
0.4258892859
0.4258887927
0.4258882662
0.4258877135
0.4258871688
0.4258866095
0.4258860536
0.4258854837
0.4258849214
0.4258843499
0.4258837935
0.4258832167
0.4258826565
0.4258820543
0.4258814663
0.4258808252
0.4258801956
0.4258795126
0.4258788391
0.4258781195
0.4258774095
0.4258766597
0.4258759206
0.4258751406
0.4258743735
0.4258735603
0.425872761
0.4258719054
0.4258710654
0.4258701895
0.425869317
0.4258683494
0.4258674131
0.4258664416
0.4258654709
0.425864401
0.4258633631
0.425862274
0.4258611925
0.4258600272
0.4258588902
0.4258576765
0.4258564865
0.4258552076
0.4258539599
0.4258526076
0.4258512943
0.4258498489
0.4258484532
0.425846884
0.4258453786
0.4258436485
0.4258419995
0.4258400616
0.4258382363
0.4258360224
0.4258340008
0.4258313894
0.4258291656
0.4258258518
0.4258233992
0.4258186069
0.4258157764
0.4258076517
0.4258038933
0.4257882001
0.4257818595
0.4257494877
0.4257362052
0.4256686171
0.4256379663
0.4254995241
0.4254286006
0.425154883
0.424997205
0.4244791225
0.4241473741
0.4232130565
0.4225558983
0.4209561726
0.4197337757
0.4171420574
0.4150129572
0.411054582
0.4075956527
0.4019196404
0.3967028671
0.3890946503
0.3818257422
0.372332753
0.3630086474
0.3520432995
0.3410307586
0.3292927613
0.3174074513
0.3063753645
0.2972740705
0.289953956
0.2841345014
0.2795521348
0.2759769822
0.2732144525
0.2711008683
0.2695001377
0.2683003928
0.2674107483
0.266758242
0.2662850112
0.2659457374
0.2657053737
0.2655371578
0.2654209306
0.2653416871
0.265288411
0.2652531209
0.2652301096
0.2652153498
0.2652060373
0.265200246
0.2651966728
0.2651944534
0.2651930219
0.2651920124
0.2651911929
0.2651904419
0.2651896776
0.265188905
0.2651880243
0.2651869997
0.2651857807
0.2651843071
0.2651825621
0.2651805581
0.2651783359
0.2651760701
0.2651740557
0.2651722785
0.2651707026
0.2651692987
0.2651680442
0.2651669207
0.2651659129
0.2651650073
0.2651641924
0.2651634584
0.2651627971
0.2651622031
0.2651616694
0.2651611906
0.2651607625
0.2651603839
0.2651600557
0.2651597772
0.2651595416
0.2651593415
0.2651591687
0.2651590184
0.2651588807
0.2651587634
0.2651586744
0.2651586107
0.2651585626
0.2651585171
0.2651584805
0.2651584297
0.2651583876
0.2651583565
0.2651583375
0.2651583167
0.2651582822
0.2651582489
0.2651582205
0.2651582
0.2651581902
0.2651581836
0.2651581668
0.2651581505
0.2651581374
0.2651581294
0.2651581212
0.2651581046
0.2651580745
0.2651580472
0.2651580209
0.2651580055
0.265158003
0.2651579997
0.2651579853
0.265157964
0.2651579469
0.2651579419
0.2651579649
0.2651579899
0.2651580087
0.265158017
0.2651580149
0.2651579963
0.2651579933
0.265158012
0.2651580314
0.2651580373
0.2651580288
0.2651580148
0.2651580097
0.2651580321
0.2651580667
0.2651580879
0.2651580987
0.2651581002
0.2651581044
0.2651581338
0.2651581662
0.2651581843
0.2651581926
0.2651581728
0.2651581635
0.2651581637
0.2651581571
0.2651581373
0.2651580908
0.2651580596
0.2651580697
0.2651581231
0.2651581798
0.2651582063
0.2651582082
0.265158176
0.2651581301
0.2651580899
0.265158075
0.2651580917
0.2651581617
0.2651581861
0.2651581232
0.2651579703
0.2651579304
0.265158036
0.2651582322
0.2651582925
0.2651581282
0.2651579432
0.2651579297
0.2651580097
0.2651581206
0.2651578887
0.2651573394
0.2651558713
0.2651535545
0.2651468047
0.2651298015
0.2650873073
0.2649772398
0.2647035219
0.264006175
0.2622557167
0.2578982824
0.2473165281
0.2231972584
0.1777817222
0.1413082171
0.1288305409
0.1257253492
0.1250512501
0.1249092913
0.1248795995
0.1248733995
0.1248721054
0.1248718353
0.1248717789
0.1248717671
0.1248717647
0.1248717642
0.1248717641
0.124871764
0.124871764
0.124871764
0.124871764
0.124871764
0.124871764
0.124871764
0.124871764
0.124871764
0.124871764
0.124871764
0.124871764
0.124871764
0.124871764
0.124871764
0.124871764
0.124871764
0.124871764
0.124871764
0.124871764
0.124871764
0.124871764
0.124871764
0.124871764
0.124871764
0.124871764
0.124871764
0.124871764
0.124871764
0.124871764
0.124871764
0.124871764
0.124871764
0.124871764
0.124871764
0.124871764
0.124871764
0.124871764
0.124871764
0.124871764
0.124871764
0.124871764
0.124871764
0.124871764
0.124871764
0.124871764
0.124871764
0.124871764
0.124871764
0.124871764
0.124871764
0.124871764
0.124871764
0.124871764
0.124871764
0.124871764
0.124871764
0.124871764
0.124871764
0.124871764
0.124871764
0.124871764
0.124871764
0.124871764
0.124871764
0.124871764
0.124871764
0.124871764
0.124871764
0.124871764
0.124871764
0.124871764
0.124871764
0.124871764
0.124871764
0.124871764
0.124871764
0.124871764
0.124871764
0.124871764
0.124871764
0.124871764
0.124871764
0.124871764
0.124871764
0.124871764
0.124871764
0.124871764
0.124871764
0.124871764
0.124871764
0.124871764
0.124871764
0.124871764
0.124871764
0.124871764
0.124871764
0.124871764
0.124871764
0.124871764
0.124871764
0.124871764
0.124871764
0.124871764
0.124871764
0.124871764
0.124871764
0.124871764
0.124871764
0.124871764
0.124871764
0.124871764
0.124871764
0.124871764
0.124871764
0.124871764
0.124871764
0.124871764
0.124871764
0.124871764
0.124871764
0.124871764
0.124871764
0.124871764
0.124871764
0.124871764
0.124871764
0.124871764
0.124871764
0.124871764
0.124871764
0.124871764
0.124871764
0.124871764
)
;

boundaryField
{
    sides
    {
        type            calculated;
        value           nonuniform List<scalar> 2(0.124871764 0.9989740407);
    }
    empty
    {
        type            empty;
    }
}


// ************************************************************************* //
