/*--------------------------------*- C++ -*----------------------------------*\
| =========                 |                                                 |
| \\      /  F ield         | OpenFOAM: The Open Source CFD Toolbox           |
|  \\    /   O peration     | Version:  v2012                                 |
|   \\  /    A nd           | Website:  www.openfoam.com                      |
|    \\/     M anipulation  |                                                 |
\*---------------------------------------------------------------------------*/
FoamFile
{
    version     2.0;
    format      ascii;
    class       volScalarField;
    location    "0.2";
    object      T;
}
// * * * * * * * * * * * * * * * * * * * * * * * * * * * * * * * * * * * * * //

dimensions      [0 0 0 1 0 0 0];


internalField   nonuniform List<scalar> 
1000
(
0.003487899
0.003487899
0.003487899
0.003487899
0.003487899
0.003487899
0.003487899
0.003487899
0.003487899
0.003487899
0.003487899
0.003487899
0.003487899
0.003487899
0.003487899
0.003487899
0.003487899
0.003487899
0.003487899
0.003487899
0.003487899
0.003487899
0.003487899
0.003487899
0.003487899
0.003487899
0.003487899
0.003487899
0.003487899
0.003487899
0.003487899
0.003487899
0.003487899
0.003487899
0.003487899
0.003487899
0.003487899
0.003487899
0.003487899
0.003487899
0.003487899
0.003487899
0.003487899
0.003487899
0.003487899
0.003487899
0.003487899
0.003487899
0.003487899
0.003487899
0.003487899
0.003487899
0.003487899
0.003487899
0.003487899
0.003487899
0.003487899
0.003487899
0.003487899
0.003487899
0.003487899
0.003487899
0.003487899
0.003487899
0.003487899
0.003487899
0.003487899
0.003487899
0.003487899
0.003487899
0.003487899
0.003487899
0.003487899
0.003487899
0.003487899
0.003487899
0.003487899
0.003487899
0.003487899
0.003487899
0.003487899
0.003487899
0.003487899
0.003487899
0.003487899
0.003487899
0.003487899
0.003487899
0.003487899
0.003487899
0.003487899
0.003487899
0.003487899
0.003487899
0.003487899
0.003487899
0.003487899
0.003487899
0.003487899
0.003487899
0.003487899
0.003487899
0.003487899
0.003487899
0.003487899
0.003487899
0.003487899
0.003487899
0.003487899
0.003487899
0.003487899
0.003487899
0.003487899
0.003487899
0.003487899
0.003487899
0.003487899
0.003487899
0.003487899
0.003487899
0.003487899
0.003487899
0.003487899
0.003487899
0.003487899
0.003487899
0.003487899
0.003487899
0.003487899
0.003487899
0.003487899
0.003487899
0.003487899
0.003487899
0.003487899
0.003487899
0.003487899
0.003487899
0.003487899
0.003487899
0.003487899
0.003487899
0.003487899
0.003487899
0.003487899
0.003487899
0.003487899
0.003487899
0.003487899
0.003487899
0.003487899
0.003487899
0.003487899
0.003487899
0.003487899
0.003487899
0.003487899
0.003487899
0.003487899
0.003487899
0.003487899
0.003487899
0.003487899
0.003487899
0.003487899
0.003487899
0.003487899
0.003487899
0.003487899
0.003487899
0.003487899
0.003487899
0.003487899
0.003487899
0.003487899
0.003487899
0.003487899
0.003487899
0.003487899
0.003487899
0.003487899
0.003487899
0.003487899
0.003487899
0.003487899
0.003487899
0.003487899
0.003487899
0.003487899
0.003487899
0.003487899
0.003487899
0.003487899
0.003487899
0.003487899
0.003487899
0.003487899
0.003487899
0.003487899
0.003487899
0.003487899
0.003487899
0.003487899
0.003487899
0.003487899
0.003487899
0.003487899
0.003487899
0.003487899
0.003487899
0.003487899
0.003487899
0.003487898999
0.003487898999
0.003487898999
0.003487898998
0.003487898996
0.003487898994
0.003487898989
0.003487898983
0.003487898972
0.003487898955
0.003487898929
0.003487898887
0.003487898822
0.00348789872
0.003487898564
0.003487898325
0.003487897963
0.003487897415
0.003487896596
0.003487895378
0.00348789358
0.003487890948
0.003487887122
0.003487881608
0.003487873723
0.003487862542
0.003487846821
0.003487824909
0.003487794642
0.003487753213
0.003487697038
0.003487621603
0.003487521303
0.003487389292
0.003487217349
0.003486995779
0.003486713363
0.003486357395
0.003485913797
0.003485367355
0.003484702062
0.003483901573
0.00348294976
0.003481831319
0.003480532412
0.003479041272
0.003477348732
0.003475448624
0.003473338019
0.003471017281
0.003468489939
0.003465762399
0.003462843525
0.003459744129
0.003456476429
0.003453053505
0.003449488805
0.003445795706
0.003441987172
0.003438075485
0.00343407207
0.003429987393
0.003425830914
0.003421611094
0.003417335432
0.003413010525
0.003408642141
0.003404235286
0.003399794281
0.003395323302
0.003390826227
0.003386305361
0.003381762613
0.003377199617
0.003372618313
0.003368021719
0.003363412789
0.003358793295
0.003354164649
0.003349527935
0.003344884102
0.003340233995
0.003335578369
0.003330917903
0.003326253217
0.00332158487
0.003316913373
0.003312239186
0.003307562731
0.003302884385
0.003298204486
0.003293523339
0.003288841216
0.003284158364
0.003279475017
0.003274791387
0.003270107698
0.003265424223
0.0032607412
0.003256058787
0.003251377142
0.003246696411
0.003242016729
0.003237338221
0.003232661003
0.003227985185
0.003223310867
0.003218638144
0.003213967105
0.003209297833
0.003204630404
0.003199964893
0.003195301366
0.003190639887
0.003185980516
0.00318132331
0.00317666832
0.003172015598
0.003167365189
0.003162717138
0.003158071486
0.003153428272
0.003148787532
0.003144149302
0.003139513613
0.003134880497
0.003130249982
0.003125622096
0.003120996864
0.003116374311
0.003111754459
0.00310713733
0.003102522943
0.003097911317
0.003093302471
0.00308869642
0.003084093179
0.003079492763
0.003074895186
0.003070300458
0.003065708592
0.003061119598
0.003056533485
0.003051950261
0.003047369935
0.003042792512
0.003038218
0.003033646403
0.003029077726
0.003024511972
0.003019949146
0.003015389249
0.003010832283
0.003006278251
0.003001727152
0.002997178988
0.002992633759
0.002988091464
0.002983552103
0.002979015675
0.00297448218
0.002969951615
0.00296542398
0.002960899273
0.002956377494
0.00295185864
0.002947342711
0.002942829705
0.002938319621
0.002933812459
0.002929308217
0.002924806896
0.002920308495
0.002915813014
0.002911320454
0.002906830816
0.0029023441
0.002897860308
0.002893379442
0.002888901506
0.0028844265
0.002879954429
0.002875485295
0.002871019101
0.00286655585
0.002862095549
0.002857638211
0.002853183852
0.002848732499
0.002844284188
0.00283983896
0.002835396864
0.002830957949
0.002826522263
0.002822089859
0.002817660809
0.002813235227
0.002808813225
0.002804394826
0.002799980048
0.00279556895
0.002791161466
0.002786757665
0.002782357681
0.002777961301
0.002773568681
0.002769180284
0.002764795522
0.002760414455
0.002756038329
0.002751666161
0.002747297284
0.002742933971
0.002738575584
0.002734219851
0.002729869281
0.00272552498
0.002721183932
0.002716846188
0.002712515388
0.002708189916
0.002703866631
0.002699548734
0.002695238761
0.002690933143
0.002686629473
0.002682333433
0.002678046017
0.002673761914
0.002669480441
0.002665208929
0.002660946384
0.002656685934
0.0026524292
0.002648184879
0.002643949966
0.002639715553
0.002635485931
0.002631270957
0.002627066258
0.002622861272
0.002618661346
0.002614477888
0.002610306008
0.00260613383
0.002601964963
0.002597814392
0.002593677388
0.002589537692
0.002585400469
0.002581293006
0.002577181856
0.002573078015
0.002568993997
0.002564912261
0.002560836041
0.002556776808
0.002552736435
0.002548692981
0.002544664659
0.002540661117
0.002536664743
0.002532685105
0.002528725265
0.00252478817
0.00252087711
0.002516999289
0.002513165024
0.002509387185
0.00250568296
0.002502074001
0.00249858876
0.002495262593
0.002492138744
0.002489266568
0.002486697792
0.00248448086
0.002482650835
0.002481219882
0.002480172603
0.002479461738
0.002479023296
0.002478780964
0.002478668864
0.00247862882
0.002478624737
0.002478635911
0.002478674746
0.00247875349
0.002478849348
0.002478916955
0.002478967967
0.002479012706
0.002479052772
0.0024790878
0.002479117521
0.002479142255
0.00247916279
0.002479180226
0.002479195672
0.002479209852
0.002479223066
0.002479235071
0.002479245405
0.002479253728
0.002479259867
0.002479264118
0.002479266983
0.002479268981
0.002479270736
0.002479272563
0.002479275261
0.002479280096
0.002479285497
0.002479288415
0.002479290541
0.00247929276
0.002479295676
0.002479299666
0.002479302087
0.002479304173
0.002479304541
0.002479305538
0.002479307468
0.002479309842
0.002479309948
0.002479310625
0.002479311556
0.002479312471
0.002479313435
0.002479314622
0.002479316095
0.002479317193
0.002479318042
0.002479318955
0.002479319852
0.002479320755
0.002479321753
0.002479322831
0.002479323946
0.002479325024
0.002479325997
0.002479326854
0.00247932767
0.002479328507
0.002479329289
0.002479330043
0.002479330709
0.002479331401
0.002479332215
0.002479333142
0.002479334144
0.002479335159
0.002479336187
0.002479337239
0.002479338363
0.002479339571
0.002479340854
0.002479342178
0.002479343586
0.0024793451
0.002479346691
0.002479348233
0.002479349713
0.002479351182
0.002479352635
0.002479354074
0.002479355573
0.002479357144
0.002479358787
0.002479360554
0.002479362433
0.002479364417
0.002479366484
0.002479368629
0.002479370836
0.002479373082
0.002479375325
0.002479377616
0.002479379961
0.002479382366
0.002479384845
0.002479387396
0.002479390025
0.002479392708
0.002479395468
0.002479398287
0.002479401179
0.002479404119
0.00247940712
0.002479410157
0.002479413248
0.002479416369
0.002479419578
0.002479422899
0.00247942634
0.002479429867
0.002479433393
0.002479437173
0.002479441179
0.002479445098
0.002479449291
0.002479453777
0.002479457874
0.002479462248
0.002479466835
0.002479471578
0.002479475777
0.002479480235
0.002479484946
0.002479489815
0.0024794947
0.002479499717
0.002479504987
0.002479510584
0.002479516401
0.002479522095
0.002479528121
0.002479534425
0.002479540857
0.002479547066
0.002479553461
0.002479559998
0.002479566602
0.002479573219
0.00247958001
0.002479586919
0.002479594077
0.002479601402
0.002479609105
0.002479617057
0.002479625513
0.002479634291
0.002479643684
0.002479653458
0.002479663967
0.002479674913
0.002479686808
0.002479699242
0.002479713158
0.002479727881
0.002479745502
0.002479764706
0.002479790406
0.002479819794
0.002479864324
0.002479917803
0.00248000607
0.002480115643
0.002480302149
0.002480537176
0.002480934372
0.002481436347
0.002482262875
0.002483303556
0.00248495969
0.002487029957
0.002490204583
0.002494137296
0.002499942563
0.002507061897
0.00251717638
0.00252944692
0.002546226992
0.002566350895
0.002592848365
0.00262423324
0.002664042165
0.002710547544
0.002767402993
0.002832778065
0.00290984474
0.002996851368
0.00309564434
0.003204800566
0.003323398616
0.003444665268
0.003550777588
0.003640734017
0.00371559332
0.003776753359
0.003825879358
0.003864717364
0.00389496413
0.003918185515
0.003935770201
0.003948910726
0.003958603856
0.003965663416
0.003970740225
0.003974345112
0.003976872196
0.003978620676
0.003979814223
0.003980617602
0.003981150472
0.003981498516
0.003981722238
0.003981863781
0.003981952102
0.003982006834
0.003982041093
0.003982063493
0.003982079555
0.003982092724
0.003982104969
0.003982117197
0.003982129892
0.003982143849
0.003982160015
0.003982179296
0.003982202373
0.00398222957
0.003982260778
0.003982295305
0.003982330677
0.003982362252
0.003982390143
0.003982414913
0.003982436995
0.00398245673
0.003982474392
0.0039824902
0.003982504335
0.003982516954
0.003982528201
0.003982538203
0.003982547071
0.003982554914
0.003982561842
0.003982567959
0.003982573358
0.003982578118
0.003982582316
0.00398258602
0.003982589293
0.003982592195
0.003982594785
0.003982597103
0.003982599176
0.003982601035
0.00398260271
0.003982604228
0.003982605615
0.00398260688
0.003982608032
0.003982609088
0.003982610054
0.003982610953
0.003982611813
0.003982612595
0.003982613314
0.003982614019
0.003982614713
0.00398261541
0.003982616077
0.003982616705
0.003982617293
0.003982617819
0.003982618329
0.003982618852
0.003982619412
0.00398261996
0.003982620427
0.00398262084
0.003982621246
0.003982621672
0.003982622152
0.003982622642
0.003982623106
0.003982623534
0.003982623893
0.003982624275
0.003982624705
0.003982625209
0.003982625723
0.003982626158
0.003982626442
0.003982626737
0.003982627052
0.00398262744
0.003982627894
0.003982628239
0.003982628325
0.003982628333
0.003982628462
0.003982628743
0.003982629232
0.003982629606
0.003982629578
0.003982629355
0.003982629383
0.003982629557
0.003982630096
0.003982630529
0.003982630436
0.003982630038
0.003982630011
0.003982630211
0.003982630861
0.003982631344
0.003982631146
0.003982630607
0.003982630711
0.003982631011
0.003982631861
0.003982632545
0.003982632249
0.003982631656
0.00398263185
0.00398263226
0.003982633294
0.003982633955
0.003982633421
0.003982632491
0.003982632575
0.003982632924
0.003982634001
0.003982634281
0.003982633382
0.003982632241
0.003982632262
0.00398263275
0.003982633619
0.003982633166
0.003982630897
0.003982627955
0.003982620978
0.00398260719
0.003982566273
0.003982464805
0.003982211447
0.003981561952
0.003979937655
0.00397580704
0.003965394842
0.003939184039
0.00387358503
0.003712808019
0.003372843814
0.002986538416
0.002837433781
0.002800472783
0.002792457004
0.002790767518
0.002790413049
0.00279033872
0.002790323135
0.002790319867
0.002790319182
0.002790319038
0.002790319008
0.002790319002
0.002790319
0.002790319
0.002790319
0.002790319
0.002790319
0.002790319
0.002790319
0.002790319
0.002790319
0.002790319
0.002790319
0.002790319
0.002790319
0.002790319
0.002790319
0.002790319
0.002790319
0.002790319
0.002790319
0.002790319
0.002790319
0.002790319
0.002790319
0.002790319
0.002790319
0.002790319
0.002790319
0.002790319
0.002790319
0.002790319
0.002790319
0.002790319
0.002790319
0.002790319
0.002790319
0.002790319
0.002790319
0.002790319
0.002790319
0.002790319
0.002790319
0.002790319
0.002790319
0.002790319
0.002790319
0.002790319
0.002790319
0.002790319
0.002790319
0.002790319
0.002790319
0.002790319
0.002790319
0.002790319
0.002790319
0.002790319
0.002790319
0.002790319
0.002790319
0.002790319
0.002790319
0.002790319
0.002790319
0.002790319
0.002790319
0.002790319
0.002790319
0.002790319
0.002790319
0.002790319
0.002790319
0.002790319
0.002790319
0.002790319
0.002790319
0.002790319
0.002790319
0.002790319
0.002790319
0.002790319
0.002790319
0.002790319
0.002790319
0.002790319
0.002790319
0.002790319
0.002790319
0.002790319
0.002790319
0.002790319
0.002790319
0.002790319
0.002790319
0.002790319
0.002790319
0.002790319
0.002790319
0.002790319
0.002790319
0.002790319
0.002790319
0.002790319
0.002790319
0.002790319
0.002790319
0.002790319
0.002790319
0.002790319
0.002790319
0.002790319
0.002790319
0.002790319
0.002790319
0.002790319
0.002790319
0.002790319
0.002790319
0.002790319
0.002790319
0.002790319
0.002790319
0.002790319
0.002790319
0.002790319
0.002790319
0.002790319
0.002790319
0.002790319
0.002790319
0.002790319
0.002790319
0.002790319
0.002790319
0.002790319
0.002790319
)
;

boundaryField
{
    sides
    {
        type            zeroGradient;
    }
    empty
    {
        type            empty;
    }
}


// ************************************************************************* //
