/*--------------------------------*- C++ -*----------------------------------*\
| =========                 |                                                 |
| \\      /  F ield         | OpenFOAM: The Open Source CFD Toolbox           |
|  \\    /   O peration     | Version:  2012                                  |
|   \\  /    A nd           | Website:  www.openfoam.com                      |
|    \\/     M anipulation  |                                                 |
\*---------------------------------------------------------------------------*/
FoamFile
{
    version     2.0;
    format      ascii;
    class       volScalarField;
    location    "0.2";
    object      T;
}
// * * * * * * * * * * * * * * * * * * * * * * * * * * * * * * * * * * * * * //

dimensions      [0 0 0 1 0 0 0];


internalField   nonuniform List<scalar> 
1000
(
0.003487899
0.003487899
0.003487899
0.003487899
0.003487899
0.003487899
0.003487899
0.003487899
0.003487899
0.003487899
0.003487899
0.003487899
0.003487899
0.003487899
0.003487899
0.003487899
0.003487899
0.003487899
0.003487899
0.003487899
0.003487899
0.003487899
0.003487899
0.003487899
0.003487899
0.003487899
0.003487899
0.003487899
0.003487899
0.003487899
0.003487899
0.003487899
0.003487899
0.003487899
0.003487899
0.003487899
0.003487899
0.003487899
0.003487899
0.003487899
0.003487899
0.003487899
0.003487899
0.003487899
0.003487899
0.003487899
0.003487899
0.003487899
0.003487899
0.003487899
0.003487899
0.003487899
0.003487899
0.003487899
0.003487899
0.003487899
0.003487899
0.003487899
0.003487899
0.003487899
0.003487899
0.003487899
0.003487899
0.003487899
0.003487899
0.003487899
0.003487899
0.003487899
0.003487899
0.003487899
0.003487899
0.003487899
0.003487899
0.003487899
0.003487899
0.003487899
0.003487899
0.003487899
0.003487899
0.003487899
0.003487899
0.003487899
0.003487899
0.003487899
0.003487899
0.003487899
0.003487899
0.003487899
0.003487899
0.003487899
0.003487899
0.003487899
0.003487899
0.003487899
0.003487899
0.003487899
0.003487899
0.003487899
0.003487899
0.003487899
0.003487899
0.003487899
0.003487899
0.003487899
0.003487899
0.003487899
0.003487899
0.003487899
0.003487899
0.003487899
0.003487899
0.003487899
0.003487899
0.003487899
0.003487899
0.003487899
0.003487899
0.003487899
0.003487899
0.003487899
0.003487899
0.003487899
0.003487899
0.003487899
0.003487899
0.003487899
0.003487899
0.003487899
0.003487899
0.003487899
0.003487899
0.003487899
0.003487899
0.003487899
0.003487899
0.003487899
0.003487899
0.003487899
0.003487899
0.003487899
0.003487899
0.003487899
0.003487899
0.003487899
0.003487899
0.003487899
0.003487899
0.003487899
0.003487899
0.003487899
0.003487899
0.003487899
0.003487899
0.003487899
0.003487899
0.003487899
0.003487899
0.003487899
0.003487899
0.003487899
0.003487899
0.003487899
0.003487899
0.003487899
0.003487899
0.003487899
0.003487899
0.003487899
0.003487899
0.003487899
0.003487899
0.003487899
0.003487899
0.003487899
0.003487899
0.003487899
0.003487899
0.003487899
0.003487899
0.003487899
0.003487899
0.003487899
0.003487899
0.003487899
0.003487899
0.003487899
0.003487899
0.003487899
0.003487899
0.003487899
0.003487899
0.003487899
0.003487899
0.003487899
0.003487899
0.003487899
0.003487899
0.003487899
0.003487899
0.003487899
0.003487899
0.003487899
0.003487899
0.003487899
0.003487899
0.003487899
0.003487899
0.003487899
0.003487899
0.003487899
0.003487899
0.003487899
0.003487899
0.003487898999
0.003487898999
0.003487898998
0.003487898996
0.003487898994
0.00348789899
0.003487898984
0.003487898974
0.003487898958
0.003487898934
0.003487898894
0.003487898833
0.003487898738
0.003487898591
0.003487898365
0.003487898023
0.003487897505
0.003487896728
0.003487895572
0.003487893862
0.003487891354
0.003487887704
0.003487882434
0.003487874886
0.003487864166
0.003487849068
0.003487827991
0.003487798828
0.003487758846
0.003487704545
0.003487631506
0.003487534235
0.003487406002
0.00348723871
0.003487022784
0.003486747122
0.003486399114
0.003485964755
0.003485428866
0.00348477543
0.003483988043
0.003483050458
0.003481947202
0.003480664219
0.003479189485
0.003477513549
0.003475629957
0.003473535501
0.003471230291
0.003468717647
0.003466003811
0.003463097537
0.003460009584
0.003456752164
0.003453338395
0.003449781795
0.003446095837
0.00344229359
0.003438387453
0.003434388965
0.003430308699
0.003426156212
0.003421940053
0.003417667796
0.003413346103
0.003408980791
0.003404576912
0.003400138815
0.003395670706
0.00339117649
0.003386658477
0.003382118582
0.003377558445
0.003372980035
0.003368386378
0.003363780433
0.003359163969
0.003354538398
0.003349904806
0.00334526414
0.003340617244
0.003335964871
0.003331307702
0.003326646352
0.003321981381
0.003317313296
0.003312642559
0.003307969586
0.003303294754
0.003298618398
0.003293940822
0.003289262293
0.00328458306
0.003279903355
0.003275223389
0.003270543391
0.003265863643
0.003261184365
0.003256505718
0.00325182786
0.003247150935
0.003242475076
0.003237800408
0.003233127046
0.0032284551
0.003223784669
0.003219115847
0.003214448722
0.003209783377
0.003205119888
0.003200458327
0.003195798762
0.003191141255
0.003186485866
0.003181832652
0.003177181663
0.003172532949
0.003167886556
0.003163242529
0.003158600907
0.00315396173
0.003149325033
0.003144690851
0.003140059216
0.003135430158
0.003130803706
0.003126179887
0.003121558725
0.003116940245
0.003112324468
0.003107711416
0.003103101109
0.003098493564
0.003093888799
0.00308928683
0.003084687671
0.003080091337
0.00307549784
0.003070907192
0.003066319404
0.003061734485
0.003057152445
0.003052573291
0.003047997032
0.003043423672
0.003038853218
0.003034285675
0.003029721047
0.003025159337
0.003020600548
0.003016044684
0.003011491744
0.003006941731
0.003002394646
0.002997850488
0.002993309258
0.002988770955
0.00298423558
0.00297970313
0.002975173606
0.002970647006
0.00296612333
0.002961602576
0.002957084743
0.00295256983
0.002948057836
0.002943548761
0.002939042605
0.002934539366
0.002930039046
0.002925541646
0.002921047165
0.002916555605
0.002912066969
0.002907581257
0.002903098473
0.002898618618
0.002894141697
0.002889667713
0.002885196669
0.00288072857
0.00287626342
0.002871801226
0.002867341996
0.002862885743
0.002858432487
0.002853982252
0.002849535074
0.002845090993
0.002840650055
0.002836212312
0.002831777821
0.002827346642
0.00282291885
0.002818494541
0.00281407379
0.00280965661
0.002805243012
0.002800833051
0.002796426732
0.002792024014
0.002787625067
0.002783229915
0.002778838365
0.002774450891
0.002770067615
0.00276568776
0.002761312218
0.002756941475
0.00275257391
0.002748210458
0.002743852633
0.00273949859
0.002735147684
0.002730802945
0.002726463586
0.002722126683
0.002717794883
0.00271347012
0.002709149038
0.002704830525
0.002700519225
0.00269621476
0.002691912676
0.002687614532
0.002683325136
0.002679042498
0.002674761586
0.00267048637
0.002666221727
0.002661962962
0.00265770516
0.002653455118
0.002649217328
0.002644985094
0.002640752956
0.002636530362
0.002632322353
0.00262811982
0.002623916399
0.002619723445
0.002615546945
0.00261137644
0.002607204629
0.002603041292
0.002598897416
0.002594761655
0.002590621269
0.002586488558
0.002582384513
0.002578276889
0.002574173112
0.002570087705
0.002566012041
0.002561937428
0.002557877329
0.002553839962
0.002549797266
0.002545770575
0.002541769993
0.002537775668
0.002533798086
0.002529841607
0.00252590808
0.002522001152
0.002518128308
0.002514299819
0.00251052832
0.002506830504
0.002503227344
0.002499746501
0.002496422453
0.002493297486
0.002490420156
0.00248784181
0.002485611217
0.002483764735
0.002482316405
0.00248125314
0.002480529342
0.002480081915
0.00247983428
0.002479719615
0.002479678691
0.002479674468
0.002479685834
0.002479725218
0.002479804882
0.002479901338
0.002479969639
0.002480021787
0.002480067663
0.002480108577
0.002480144038
0.002480173876
0.002480198486
0.002480218801
0.002480235944
0.002480251024
0.002480264805
0.002480277529
0.002480289022
0.00248029884
0.00248030667
0.002480312425
0.002480316401
0.002480319116
0.002480321136
0.00248032303
0.002480325227
0.002480328645
0.002480334399
0.002480339508
0.002480341672
0.002480343029
0.002480343837
0.002480345579
0.002480349836
0.002480352786
0.002480353415
0.002480354407
0.002480355741
0.002480357583
0.002480360019
0.002480360068
0.002480360905
0.0024803624
0.002480362851
0.002480363669
0.002480364647
0.002480365657
0.002480366564
0.002480367575
0.002480368702
0.002480369785
0.002480370875
0.002480372053
0.002480373315
0.002480374645
0.002480375813
0.002480376815
0.002480377632
0.002480378282
0.002480378723
0.002480379198
0.002480379773
0.002480380454
0.002480381242
0.002480382118
0.002480383065
0.002480383995
0.002480385001
0.00248038611
0.002480387295
0.002480388524
0.002480389751
0.002480390986
0.002480392288
0.002480393669
0.002480395118
0.002480396592
0.002480398077
0.002480399597
0.002480401164
0.002480402748
0.002480404326
0.002480405888
0.002480407525
0.002480409259
0.002480411086
0.002480412983
0.002480414998
0.002480417106
0.002480419259
0.002480421461
0.002480423692
0.002480425967
0.002480428289
0.002480430648
0.002480433047
0.002480435569
0.002480438224
0.002480440963
0.002480443798
0.002480446736
0.002480449746
0.002480452808
0.002480455882
0.002480458973
0.002480462077
0.002480465209
0.002480468378
0.002480471627
0.002480474941
0.002480478393
0.002480481948
0.00248048567
0.002480489501
0.002480493487
0.002480497564
0.002480501768
0.002480506046
0.002480510437
0.002480514899
0.002480519483
0.002480524149
0.002480528956
0.002480533852
0.002480538918
0.002480544112
0.002480549464
0.002480554891
0.002480560524
0.002480566314
0.002480572276
0.002480578323
0.002480584567
0.002480590948
0.002480597503
0.002480604142
0.002480610963
0.002480617888
0.002480625009
0.002480632244
0.002480639712
0.002480647323
0.002480655227
0.002480663321
0.002480671799
0.002480680531
0.002480689773
0.002480699351
0.002480709588
0.002480720244
0.002480731723
0.002480743699
0.002480756745
0.002480770407
0.002480785693
0.002480801889
0.002480821139
0.002480842109
0.002480869755
0.002480901276
0.002480948144
0.002481004227
0.002481095301
0.002481208059
0.002481397897
0.002481636822
0.002482037941
0.002482544725
0.002483375946
0.002484422746
0.002486084909
0.002488163571
0.002491347051
0.002495292598
0.00250111274
0.002508253499
0.00251839464
0.002530702173
0.002547529598
0.002567716158
0.002594293395
0.002625779022
0.002665712802
0.002712369075
0.002769404222
0.002834987056
0.002912289004
0.002999556422
0.003098619597
0.003208060198
0.003326890571
0.00344803544
0.003553769404
0.003643406724
0.003717998564
0.003778938929
0.003827890204
0.003866592669
0.00389673644
0.003919880875
0.00393740884
0.003950507958
0.003960171018
0.003967208756
0.003972269688
0.003975862959
0.003978381469
0.003980123545
0.003981312309
0.003982112111
0.003982642265
0.003982988208
0.003983210285
0.003983350505
0.003983437747
0.003983491561
0.003983524989
0.003983546641
0.003983562078
0.003983574724
0.003983586383
0.003983598024
0.003983610213
0.003983623633
0.003983639262
0.003983658038
0.003983680555
0.003983707136
0.003983737669
0.003983771417
0.003983805841
0.003983836484
0.003983863566
0.003983887617
0.003983909061
0.003983928239
0.003983945427
0.003983960855
0.003983974715
0.003983987174
0.00398399838
0.00398400847
0.003984017561
0.003984025753
0.003984033114
0.003984039681
0.003984045509
0.003984050684
0.003984055279
0.003984059322
0.003984062837
0.003984065818
0.003984068286
0.003984070373
0.003984072118
0.003984073617
0.003984075008
0.003984076271
0.003984077414
0.003984078347
0.00398407912
0.003984079911
0.003984080737
0.003984081608
0.003984082418
0.003984083205
0.003984083995
0.003984084738
0.003984085494
0.003984086282
0.003984086973
0.003984087533
0.003984088023
0.003984088493
0.00398408898
0.003984089449
0.003984089812
0.003984090164
0.003984090551
0.003984090999
0.003984091562
0.003984092231
0.003984092901
0.003984093358
0.003984093685
0.003984093919
0.003984094187
0.003984094571
0.003984094922
0.003984095204
0.003984095442
0.003984095603
0.003984095766
0.003984096029
0.003984096464
0.003984096946
0.003984097448
0.003984097838
0.003984098092
0.003984098303
0.003984098612
0.003984098926
0.003984099134
0.00398409925
0.003984099328
0.003984099456
0.00398409976
0.003984100115
0.003984100482
0.003984100828
0.003984101171
0.003984101585
0.003984102053
0.00398410242
0.003984102518
0.003984102375
0.003984102335
0.003984102437
0.003984102788
0.003984103159
0.00398410333
0.003984103514
0.003984103463
0.003984103479
0.003984103657
0.003984104014
0.003984104694
0.003984105677
0.003984106246
0.003984105955
0.003984105304
0.003984105083
0.003984105714
0.003984106646
0.003984106426
0.003984105156
0.003984104017
0.003984104341
0.003984105365
0.003984106258
0.003984105459
0.003984103003
0.003984096403
0.003984084118
0.003984047993
0.003983956494
0.003983725467
0.003983133272
0.003981651625
0.003977880147
0.003968366224
0.003944359836
0.003884078898
0.003734832245
0.003412187182
0.003010452005
0.002843733412
0.002801824162
0.002792731948
0.002790822861
0.002790424157
0.002790340946
0.00279032358
0.002790319956
0.002790319199
0.002790319042
0.002790319009
0.002790319002
0.002790319
0.002790319
0.002790319
0.002790319
0.002790319
0.002790319
0.002790319
0.002790319
0.002790319
0.002790319
0.002790319
0.002790319
0.002790319
0.002790319
0.002790319
0.002790319
0.002790319
0.002790319
0.002790319
0.002790319
0.002790319
0.002790319
0.002790319
0.002790319
0.002790319
0.002790319
0.002790319
0.002790319
0.002790319
0.002790319
0.002790319
0.002790319
0.002790319
0.002790319
0.002790319
0.002790319
0.002790319
0.002790319
0.002790319
0.002790319
0.002790319
0.002790319
0.002790319
0.002790319
0.002790319
0.002790319
0.002790319
0.002790319
0.002790319
0.002790319
0.002790319
0.002790319
0.002790319
0.002790319
0.002790319
0.002790319
0.002790319
0.002790319
0.002790319
0.002790319
0.002790319
0.002790319
0.002790319
0.002790319
0.002790319
0.002790319
0.002790319
0.002790319
0.002790319
0.002790319
0.002790319
0.002790319
0.002790319
0.002790319
0.002790319
0.002790319
0.002790319
0.002790319
0.002790319
0.002790319
0.002790319
0.002790319
0.002790319
0.002790319
0.002790319
0.002790319
0.002790319
0.002790319
0.002790319
0.002790319
0.002790319
0.002790319
0.002790319
0.002790319
0.002790319
0.002790319
0.002790319
0.002790319
0.002790319
0.002790319
0.002790319
0.002790319
0.002790319
0.002790319
0.002790319
0.002790319
0.002790319
0.002790319
0.002790319
0.002790319
0.002790319
0.002790319
0.002790319
0.002790319
0.002790319
0.002790319
0.002790319
0.002790319
0.002790319
0.002790319
0.002790319
0.002790319
0.002790319
0.002790319
0.002790319
0.002790319
0.002790319
0.002790319
0.002790319
0.002790319
0.002790319
0.002790319
0.002790319
0.002790319
0.002790319
)
;

boundaryField
{
    sides
    {
        type            zeroGradient;
    }
    empty
    {
        type            empty;
    }
}


// ************************************************************************* //
