/*--------------------------------*- C++ -*----------------------------------*\
| =========                 |                                                 |
| \\      /  F ield         | OpenFOAM: The Open Source CFD Toolbox           |
|  \\    /   O peration     | Version:  2012                                  |
|   \\  /    A nd           | Website:  www.openfoam.com                      |
|    \\/     M anipulation  |                                                 |
\*---------------------------------------------------------------------------*/
FoamFile
{
    version     2.0;
    format      ascii;
    class       volVectorField;
    location    "0.2";
    object      U;
}
// * * * * * * * * * * * * * * * * * * * * * * * * * * * * * * * * * * * * * //

dimensions      [0 1 -1 0 0 0 0];


internalField   nonuniform List<vector> 
1000
(
(1.38431663e-15 0 0)
(7.532909747e-16 0 0)
(-5.53376748e-16 0 0)
(-1.465936021e-15 0 0)
(-3.320512247e-15 0 0)
(-4.302063636e-15 0 0)
(-4.051253811e-15 0 0)
(-4.836471013e-15 0 0)
(-6.096409253e-15 0 0)
(-6.606627234e-15 0 0)
(-6.441226599e-15 0 0)
(-6.405663322e-15 0 0)
(-7.022859331e-15 0 0)
(-7.516575082e-15 0 0)
(-7.461237591e-15 0 0)
(-7.61383044e-15 0 0)
(-7.626636972e-15 0 0)
(-7.560654299e-15 0 0)
(-8.375265126e-15 0 0)
(-9.113878375e-15 0 0)
(-9.010169596e-15 0 0)
(-8.560253472e-15 0 0)
(-8.030953441e-15 0 0)
(-7.525016528e-15 0 0)
(-6.528289721e-15 0 0)
(-5.89324794e-15 0 0)
(-5.74600058e-15 0 0)
(-5.269877013e-15 0 0)
(-4.007228115e-15 0 0)
(-3.388527977e-15 0 0)
(-3.447403252e-15 0 0)
(-2.927021992e-15 0 0)
(-2.949273711e-15 0 0)
(-3.208899567e-15 0 0)
(-3.646514882e-15 0 0)
(-3.38511402e-15 0 0)
(-1.533119401e-15 0 0)
(-8.462274359e-16 0 0)
(-2.371561482e-16 0 0)
(-4.095636613e-16 0 0)
(-1.433166514e-15 0 0)
(-1.895955869e-15 0 0)
(-2.331322989e-15 0 0)
(-2.255941753e-15 0 0)
(-1.772151468e-15 0 0)
(-1.434615481e-15 0 0)
(-5.802487724e-16 0 0)
(4.520149246e-16 0 0)
(1.678502042e-15 0 0)
(2.513344621e-15 0 0)
(2.065235762e-15 0 0)
(3.407096878e-15 0 0)
(5.036381401e-15 0 0)
(5.77206228e-15 0 0)
(5.639685277e-15 0 0)
(5.078179637e-15 0 0)
(6.130212757e-15 0 0)
(6.897456387e-15 0 0)
(6.911865039e-15 0 0)
(7.04356482e-15 0 0)
(6.819935861e-15 0 0)
(5.849556337e-15 0 0)
(4.741005383e-15 0 0)
(4.104306788e-15 0 0)
(3.676677405e-15 0 0)
(2.617888743e-15 0 0)
(1.89745349e-15 0 0)
(1.310815571e-15 0 0)
(1.38166195e-15 0 0)
(2.160919876e-15 0 0)
(1.369569381e-15 0 0)
(9.033956486e-16 0 0)
(7.648067418e-16 0 0)
(-4.572817664e-16 0 0)
(-1.051096922e-15 0 0)
(-1.207640314e-15 0 0)
(-2.930705252e-16 0 0)
(6.110795881e-16 0 0)
(1.447367128e-15 0 0)
(2.195324996e-15 0 0)
(1.934839169e-15 0 0)
(1.584796131e-15 0 0)
(1.292124037e-15 0 0)
(1.24924387e-15 0 0)
(1.681218992e-15 0 0)
(3.91490971e-15 0 0)
(4.274665099e-15 0 0)
(3.817722075e-15 0 0)
(3.70861538e-15 0 0)
(3.947107766e-15 0 0)
(4.707237945e-15 0 0)
(5.240124161e-15 0 0)
(4.553199642e-15 0 0)
(1.640862568e-15 0 0)
(-1.359642367e-15 0 0)
(-2.404169105e-15 0 0)
(-2.729965801e-15 0 0)
(-2.987460965e-15 0 0)
(-2.622934833e-15 0 0)
(-2.222903947e-15 0 0)
(-2.908991405e-15 0 0)
(-3.832967929e-15 0 0)
(-3.373710091e-15 0 0)
(-2.406038692e-15 0 0)
(-2.131432525e-15 0 0)
(-3.265366137e-15 0 0)
(-4.457405561e-15 0 0)
(-4.951476185e-15 0 0)
(-4.884294953e-15 0 0)
(-3.999329709e-15 0 0)
(-2.646803068e-15 0 0)
(-2.160200018e-15 0 0)
(-2.639864919e-15 0 0)
(-3.050064422e-15 0 0)
(-2.74825725e-15 0 0)
(-2.632042042e-15 0 0)
(-2.571478693e-15 0 0)
(-2.63525392e-15 0 0)
(-4.829204769e-15 0 0)
(-7.17841315e-15 0 0)
(-8.170403229e-15 0 0)
(-8.101467675e-15 0 0)
(-7.793484435e-15 0 0)
(-7.774187844e-15 0 0)
(-8.029272979e-15 0 0)
(-7.962257329e-15 0 0)
(-6.645179415e-15 0 0)
(-7.085861439e-15 0 0)
(-8.41019048e-15 0 0)
(-7.964430234e-15 0 0)
(-8.44062201e-15 0 0)
(-9.903438694e-15 0 0)
(-1.122472392e-14 0 0)
(-1.184927663e-14 0 0)
(-1.151417071e-14 0 0)
(-1.18440749e-14 0 0)
(-1.279829889e-14 0 0)
(-1.077383426e-14 0 0)
(-1.012602094e-14 0 0)
(-1.159254902e-14 0 0)
(-1.248256621e-14 0 0)
(-1.353430885e-14 0 0)
(-1.349730841e-14 0 0)
(-1.454792049e-14 0 0)
(-1.547948834e-14 0 0)
(-1.559517413e-14 0 0)
(-1.535361282e-14 0 0)
(-1.611202788e-14 0 0)
(-1.628102207e-14 0 0)
(-1.633756347e-14 0 0)
(-1.738929834e-14 0 0)
(-1.74117625e-14 0 0)
(-1.705043425e-14 0 0)
(-1.602815375e-14 0 0)
(-1.493651194e-14 0 0)
(-1.384548644e-14 0 0)
(-1.488701792e-14 0 0)
(-1.437735618e-14 0 0)
(-1.266108134e-14 0 0)
(-1.180651326e-14 0 0)
(-1.013675953e-14 0 0)
(-7.990092091e-15 0 0)
(-6.207463693e-15 0 0)
(-5.275243021e-15 0 0)
(-4.428940164e-15 0 0)
(-4.210081637e-15 0 0)
(-5.982176231e-15 0 0)
(-7.589442938e-15 0 0)
(-8.552347272e-15 0 0)
(-9.528074423e-15 0 0)
(-8.813850224e-15 0 0)
(-6.776846304e-15 0 0)
(-6.009131829e-15 0 0)
(-6.149930981e-15 0 0)
(-5.760817619e-15 0 0)
(-5.53866085e-15 0 0)
(-5.965846916e-15 0 0)
(-6.698368109e-15 0 0)
(-6.632508057e-15 0 0)
(-5.721216913e-15 0 0)
(-6.32794916e-15 0 0)
(-6.851856671e-15 0 0)
(-7.865753577e-15 0 0)
(-9.73228174e-15 0 0)
(-1.022016945e-14 0 0)
(-1.117533206e-14 0 0)
(-1.163111277e-14 0 0)
(-1.201511338e-14 0 0)
(-1.249343447e-14 0 0)
(-1.127066577e-14 0 0)
(-1.028896648e-14 0 0)
(-8.493049172e-15 0 0)
(-6.588031467e-15 0 0)
(-3.841343518e-15 0 0)
(4.310836562e-15 0 0)
(1.646551159e-14 0 0)
(3.556187451e-14 0 0)
(7.275591283e-14 0 0)
(1.378661515e-13 0 0)
(2.532342187e-13 0 0)
(4.591097508e-13 0 0)
(8.306322176e-13 0 0)
(1.4880233e-12 0 0)
(2.6486465e-12 0 0)
(4.684621048e-12 0 0)
(8.240037573e-12 0 0)
(1.442080853e-11 0 0)
(2.510987036e-11 0 0)
(4.349681525e-11 0 0)
(7.495404899e-11 0 0)
(1.284840499e-10 0 0)
(2.190724905e-10 0 0)
(3.715314476e-10 0 0)
(6.26683022e-10 0 0)
(1.051281802e-09 0 0)
(1.753800801e-09 0 0)
(2.909402799e-09 0 0)
(4.799110775e-09 0 0)
(7.87086988e-09 0 0)
(1.283393328e-08 0 0)
(2.080372386e-08 0 0)
(3.352237549e-08 0 0)
(5.369180908e-08 0 0)
(8.547256111e-08 0 0)
(1.352245446e-07 0 0)
(2.125973271e-07 0 0)
(3.321203517e-07 0 0)
(5.155004527e-07 0 0)
(7.949088941e-07 0 0)
(1.217636288e-06 0 0)
(1.852614734e-06 0 0)
(2.79945453e-06 0 0)
(4.200818656e-06 0 0)
(6.259158567e-06 0 0)
(9.259051613e-06 0 0)
(1.359659749e-05 0 0)
(1.981752184e-05 0 0)
(2.866575987e-05 0 0)
(4.114429619e-05 0 0)
(5.858984744e-05 0 0)
(8.276250618e-05 0 0)
(0.0001159506238 0 0)
(0.0001610899076 0 0)
(0.0002218938767 0 0)
(0.0003029904531 0 0)
(0.0004100566253 0 0)
(0.0005499400191 0 0)
(0.0007307531808 0 0)
(0.0009619239452 0 0)
(0.001254184057 0 0)
(0.001619478952 0 0)
(0.002070784892 0 0)
(0.002621825885 0 0)
(0.003286691869 0 0)
(0.004079370851 0 0)
(0.005013219719 0 0)
(0.00610040937 0 0)
(0.007351387637 0 0)
(0.008774406325 0 0)
(0.01037515511 0 0)
(0.01215653581 0 0)
(0.01411859617 0 0)
(0.01625862484 0 0)
(0.01857139291 0 0)
(0.02104951266 0 0)
(0.02368387546 0 0)
(0.02646412696 0 0)
(0.0293791402 0 0)
(0.03241745364 0 0)
(0.0355676503 0 0)
(0.03881866437 0 0)
(0.04216001089 0 0)
(0.04558194167 0 0)
(0.04907553593 0 0)
(0.052632737 0 0)
(0.05624634775 0 0)
(0.05990999671 0 0)
(0.06361808568 0 0)
(0.06736572789 0 0)
(0.07114868395 0 0)
(0.074963274 0 0)
(0.07880608057 0 0)
(0.08267371305 0 0)
(0.08656426132 0 0)
(0.09047607314 0 0)
(0.09440785553 0 0)
(0.09835827053 0 0)
(0.102324087 0 0)
(0.1063031245 0 0)
(0.110293862 0 0)
(0.1142952266 0 0)
(0.1183062893 0 0)
(0.122326249 0 0)
(0.1263543975 0 0)
(0.1303900982 0 0)
(0.1344327764 0 0)
(0.1384819119 0 0)
(0.142537032 0 0)
(0.1465977077 0 0)
(0.1506635495 0 0)
(0.1547342049 0 0)
(0.1588093563 0 0)
(0.1628887192 0 0)
(0.1669720391 0 0)
(0.1710590878 0 0)
(0.1751496567 0 0)
(0.1792435469 0 0)
(0.1833405554 0 0)
(0.1874404666 0 0)
(0.1915430798 0 0)
(0.1956482327 0 0)
(0.1997557809 0 0)
(0.2038655917 0 0)
(0.2079775427 0 0)
(0.21209152 0 0)
(0.2162074181 0 0)
(0.2203251388 0 0)
(0.2244445905 0 0)
(0.2285656878 0 0)
(0.232688351 0 0)
(0.2368125056 0 0)
(0.2409380822 0 0)
(0.2450650157 0 0)
(0.2491932452 0 0)
(0.2533227136 0 0)
(0.2574533675 0 0)
(0.2615851566 0 0)
(0.265718034 0 0)
(0.2698519554 0 0)
(0.2739868792 0 0)
(0.2781227665 0 0)
(0.2822595805 0 0)
(0.2863972869 0 0)
(0.2905358531 0 0)
(0.2946752486 0 0)
(0.2988154448 0 0)
(0.3029564145 0 0)
(0.3070981324 0 0)
(0.3112405746 0 0)
(0.3153837186 0 0)
(0.3195275434 0 0)
(0.3236720292 0 0)
(0.3278171575 0 0)
(0.3319629109 0 0)
(0.3361092731 0 0)
(0.3402562291 0 0)
(0.3444037647 0 0)
(0.3485518668 0 0)
(0.3527005232 0 0)
(0.3568497229 0 0)
(0.3609994555 0 0)
(0.3651497115 0 0)
(0.3693004826 0 0)
(0.3734517608 0 0)
(0.3776035394 0 0)
(0.381755812 0 0)
(0.3859085734 0 0)
(0.3900618188 0 0)
(0.3942155441 0 0)
(0.3983697461 0 0)
(0.402524422 0 0)
(0.4066795698 0 0)
(0.4108351879 0 0)
(0.4149912753 0 0)
(0.4191478314 0 0)
(0.4233048564 0 0)
(0.4274623503 0 0)
(0.4316203141 0 0)
(0.4357787488 0 0)
(0.4399376557 0 0)
(0.4440970363 0 0)
(0.4482568926 0 0)
(0.4524172263 0 0)
(0.4565780397 0 0)
(0.4607393346 0 0)
(0.4649011133 0 0)
(0.4690633779 0 0)
(0.4732261303 0 0)
(0.4773893724 0 0)
(0.4815531059 0 0)
(0.4857173325 0 0)
(0.4898820532 0 0)
(0.4940472691 0 0)
(0.4982129808 0 0)
(0.5023791886 0 0)
(0.5065458925 0 0)
(0.5107130922 0 0)
(0.5148807871 0 0)
(0.519048976 0 0)
(0.5232176576 0 0)
(0.5273868302 0 0)
(0.5315564916 0 0)
(0.5357266394 0 0)
(0.5398972708 0 0)
(0.544068382 0 0)
(0.5482399679 0 0)
(0.5524120207 0 0)
(0.5565845285 0 0)
(0.5607574741 0 0)
(0.5649308337 0 0)
(0.5691045771 0 0)
(0.5732786671 0 0)
(0.577453061 0 0)
(0.581627711 0 0)
(0.5858025643 0 0)
(0.5899775603 0 0)
(0.5941526291 0 0)
(0.5983276995 0 0)
(0.6025027073 0 0)
(0.606677621 0 0)
(0.610852416 0 0)
(0.6150270988 0 0)
(0.6192015854 0 0)
(0.6233758729 0 0)
(0.6275500375 0 0)
(0.6317238298 0 0)
(0.6358971907 0 0)
(0.6400704442 0 0)
(0.6442430754 0 0)
(0.6484148333 0 0)
(0.6525865995 0 0)
(0.6567577658 0 0)
(0.6609274462 0 0)
(0.665096932 0 0)
(0.669266297 0 0)
(0.6734336284 0 0)
(0.6775998024 0 0)
(0.6817663186 0 0)
(0.6859312635 0 0)
(0.6900935132 0 0)
(0.6942556461 0 0)
(0.698417798 0 0)
(0.7025767706 0 0)
(0.7067337459 0 0)
(0.7108912061 0 0)
(0.7150473745 0 0)
(0.7191994042 0 0)
(0.723350028 0 0)
(0.7275012777 0 0)
(0.7316494696 0 0)
(0.7357924015 0 0)
(0.7399343711 0 0)
(0.7440770388 0 0)
(0.7482148294 0 0)
(0.7523466097 0 0)
(0.7564777334 0 0)
(0.7606093994 0 0)
(0.7647345061 0 0)
(0.7688525273 0 0)
(0.7729700083 0 0)
(0.7770876937 0 0)
(0.781197409 0 0)
(0.7852992582 0 0)
(0.7894001921 0 0)
(0.7935009757 0 0)
(0.7975938368 0 0)
(0.8016781129 0 0)
(0.8057601736 0 0)
(0.8098422926 0 0)
(0.8139163983 0 0)
(0.8179826713 0 0)
(0.8220466103 0 0)
(0.8261027066 0 0)
(0.8301575179 0 0)
(0.8342053657 0 0)
(0.8382406346 0 0)
(0.8422746508 0 0)
(0.8463060321 0 0)
(0.8503258862 0 0)
(0.8543357227 0 0)
(0.8583403066 0 0)
(0.8623343628 0 0)
(0.8663162961 0 0)
(0.870286669 0 0)
(0.8742425009 0 0)
(0.8781819459 0 0)
(0.8821035389 0 0)
(0.8860013163 0 0)
(0.8898674507 0 0)
(0.8936917671 0 0)
(0.8974621378 0 0)
(0.9011616423 0 0)
(0.9047687703 0 0)
(0.9082555848 0 0)
(0.9115872593 0 0)
(0.9147215092 0 0)
(0.9176092957 0 0)
(0.9201987187 0 0)
(0.9224407493 0 0)
(0.9242988836 0 0)
(0.925757844 0 0)
(0.926831828 0 0)
(0.9275634639 0 0)
(0.9280184339 0 0)
(0.9282701627 0 0)
(0.9283891727 0 0)
(0.928431194 0 0)
(0.9284385127 0 0)
(0.9284279715 0 0)
(0.9283893665 0 0)
(0.9283095717 0 0)
(0.9282126114 0 0)
(0.9281439777 0 0)
(0.9280921862 0 0)
(0.9280468442 0 0)
(0.9280064511 0 0)
(0.9279714854 0 0)
(0.9279421518 0 0)
(0.9279180862 0 0)
(0.9278983825 0 0)
(0.9278819215 0 0)
(0.9278675885 0 0)
(0.9278546225 0 0)
(0.9278427171 0 0)
(0.92783206 0 0)
(0.9278230748 0 0)
(0.927816118 0 0)
(0.9278112371 0 0)
(0.9278081364 0 0)
(0.9278063164 0 0)
(0.9278052066 0 0)
(0.9278043079 0 0)
(0.9278031298 0 0)
(0.9278007448 0 0)
(0.927795902 0 0)
(0.9277917975 0 0)
(0.927790419 0 0)
(0.9277901348 0 0)
(0.9277902984 0 0)
(0.9277894634 0 0)
(0.9277860096 0 0)
(0.9277841369 0 0)
(0.927784374 0 0)
(0.9277843224 0 0)
(0.9277841316 0 0)
(0.9277834567 0 0)
(0.9277826189 0 0)
(0.9277837032 0 0)
(0.9277836013 0 0)
(0.9277833093 0 0)
(0.9277838909 0 0)
(0.9277840023 0 0)
(0.927784079 0 0)
(0.9277842312 0 0)
(0.9277844869 0 0)
(0.9277847432 0 0)
(0.9277848737 0 0)
(0.9277851206 0 0)
(0.9277854589 0 0)
(0.9277858056 0 0)
(0.927786182 0 0)
(0.9277865931 0 0)
(0.9277870283 0 0)
(0.927787513 0 0)
(0.9277880964 0 0)
(0.9277887781 0 0)
(0.9277895669 0 0)
(0.9277903862 0 0)
(0.9277911029 0 0)
(0.9277917885 0 0)
(0.9277924189 0 0)
(0.9277930072 0 0)
(0.9277935915 0 0)
(0.9277942383 0 0)
(0.9277948878 0 0)
(0.9277954295 0 0)
(0.9277959057 0 0)
(0.9277963606 0 0)
(0.9277968468 0 0)
(0.9277973588 0 0)
(0.927797839 0 0)
(0.9277982702 0 0)
(0.9277986765 0 0)
(0.9277991092 0 0)
(0.9277995767 0 0)
(0.9278000507 0 0)
(0.9278004556 0 0)
(0.9278007898 0 0)
(0.9278011146 0 0)
(0.9278014702 0 0)
(0.9278017928 0 0)
(0.9278020628 0 0)
(0.9278023276 0 0)
(0.9278026292 0 0)
(0.9278028869 0 0)
(0.9278031144 0 0)
(0.9278033562 0 0)
(0.927803577 0 0)
(0.9278037625 0 0)
(0.9278039312 0 0)
(0.9278040379 0 0)
(0.9278041554 0 0)
(0.9278043053 0 0)
(0.9278044268 0 0)
(0.9278044951 0 0)
(0.9278045918 0 0)
(0.9278046967 0 0)
(0.9278047654 0 0)
(0.927804832 0 0)
(0.9278048802 0 0)
(0.9278049484 0 0)
(0.9278049968 0 0)
(0.9278050585 0 0)
(0.9278050846 0 0)
(0.927805133 0 0)
(0.9278051322 0 0)
(0.9278051805 0 0)
(0.9278051696 0 0)
(0.9278052126 0 0)
(0.9278051937 0 0)
(0.9278052252 0 0)
(0.9278052019 0 0)
(0.9278052231 0 0)
(0.9278051956 0 0)
(0.9278052098 0 0)
(0.9278051763 0 0)
(0.9278051895 0 0)
(0.9278051488 0 0)
(0.9278051607 0 0)
(0.9278051128 0 0)
(0.9278051306 0 0)
(0.9278050759 0 0)
(0.927805046 0 0)
(0.9278049733 0 0)
(0.9278050251 0 0)
(0.9278049661 0 0)
(0.9278049253 0 0)
(0.9278048421 0 0)
(0.9278048827 0 0)
(0.9278048188 0 0)
(0.9278047961 0 0)
(0.927804711 0 0)
(0.9278047335 0 0)
(0.9278046593 0 0)
(0.9278046801 0 0)
(0.927804608 0 0)
(0.9278046484 0 0)
(0.9278045724 0 0)
(0.9278046284 0 0)
(0.9278045375 0 0)
(0.9278046118 0 0)
(0.9278044959 0 0)
(0.9278045954 0 0)
(0.9278044475 0 0)
(0.9278045763 0 0)
(0.9278043888 0 0)
(0.9278045655 0 0)
(0.9278043219 0 0)
(0.9278046107 0 0)
(0.9278042517 0 0)
(0.9278047953 0 0)
(0.9278041393 0 0)
(0.9278052983 0 0)
(0.927803901 0 0)
(0.927806524 0 0)
(0.9278033798 0 0)
(0.9278092814 0 0)
(0.9278022435 0 0)
(0.9278151539 0 0)
(0.9277999134 0 0)
(0.9278269388 0 0)
(0.9277953416 0 0)
(0.9278491213 0 0)
(0.9277867709 0 0)
(0.9278882299 0 0)
(0.9277716183 0 0)
(0.9279524618 0 0)
(0.9277465217 0 0)
(0.9280499309 0 0)
(0.927708018 0 0)
(0.9281849397 0 0)
(0.9276542899 0 0)
(0.9283525222 0 0)
(0.9275883019 0 0)
(0.9285338729 0 0)
(0.9275224449 0 0)
(0.9286973945 0 0)
(0.9274832177 0 0)
(0.9288094813 0 0)
(0.9275123759 0 0)
(0.9288526358 0 0)
(0.9276591054 0 0)
(0.9288322469 0 0)
(0.9279650558 0 0)
(0.928747482 0 0)
(0.9284453203 0 0)
(0.9286470523 0 0)
(0.9282941152 0 0)
(0.9275548733 0 0)
(0.9275673554 0 0)
(0.927656111 0 0)
(0.9277218172 0 0)
(0.9277625196 0 0)
(0.9277898107 0 0)
(0.9278074743 0 0)
(0.9278185669 0 0)
(0.9278253572 0 0)
(0.9278294107 0 0)
(0.9278317791 0 0)
(0.9278331449 0 0)
(0.9278339325 0 0)
(0.9278344019 0 0)
(0.9278347017 0 0)
(0.9278348946 0 0)
(0.9278350483 0 0)
(0.9278351496 0 0)
(0.9278352054 0 0)
(0.9278352471 0 0)
(0.9278352948 0 0)
(0.9278353597 0 0)
(0.9278354426 0 0)
(0.927835541 0 0)
(0.9278356486 0 0)
(0.927835758 0 0)
(0.9278358495 0 0)
(0.927835898 0 0)
(0.9278359123 0 0)
(0.927835951 0 0)
(0.9278360338 0 0)
(0.9278360262 0 0)
(0.9278360871 0 0)
(0.9278361681 0 0)
(0.9278362 0 0)
(0.9278362635 0 0)
(0.9278363365 0 0)
(0.9278363876 0 0)
(0.9278364423 0 0)
(0.9278364838 0 0)
(0.9278365202 0 0)
(0.9278365563 0 0)
(0.9278365971 0 0)
(0.9278366465 0 0)
(0.9278367057 0 0)
(0.9278367752 0 0)
(0.9278368558 0 0)
(0.927836949 0 0)
(0.9278370547 0 0)
(0.92783717 0 0)
(0.9278372891 0 0)
(0.9278374045 0 0)
(0.9278375115 0 0)
(0.9278376205 0 0)
(0.927837733 0 0)
(0.9278378518 0 0)
(0.9278379583 0 0)
(0.9278380145 0 0)
(0.9278380399 0 0)
(0.92783808 0 0)
(0.9278381472 0 0)
(0.9278382524 0 0)
(0.927838382 0 0)
(0.9278385256 0 0)
(0.9278386499 0 0)
(0.9278386721 0 0)
(0.9278386706 0 0)
(0.9278386859 0 0)
(0.9278387533 0 0)
(0.9278388647 0 0)
(0.9278389589 0 0)
(0.9278390147 0 0)
(0.9278389929 0 0)
(0.9278390272 0 0)
(0.9278390865 0 0)
(0.9278391518 0 0)
(0.9278392272 0 0)
(0.9278392717 0 0)
(0.9278392411 0 0)
(0.9278392681 0 0)
(0.9278393312 0 0)
(0.9278394135 0 0)
(0.9278395044 0 0)
(0.92783956 0 0)
(0.9278396449 0 0)
(0.9278397724 0 0)
(0.9278399429 0 0)
(0.9278401076 0 0)
(0.9278402727 0 0)
(0.9278403973 0 0)
(0.9278403886 0 0)
(0.9278404358 0 0)
(0.9278405469 0 0)
(0.9278406992 0 0)
(0.9278408766 0 0)
(0.9278410466 0 0)
(0.9278410135 0 0)
(0.9278410287 0 0)
(0.927841079 0 0)
(0.9278411773 0 0)
(0.9278413256 0 0)
(0.9278415275 0 0)
(0.9278416967 0 0)
(0.9278416675 0 0)
(0.9278416575 0 0)
(0.9278417068 0 0)
(0.9278418179 0 0)
(0.9278419701 0 0)
(0.9278421434 0 0)
(0.9278421267 0 0)
(0.9278421024 0 0)
(0.9278421483 0 0)
(0.9278422412 0 0)
(0.9278423711 0 0)
(0.9278425329 0 0)
(0.9278424878 0 0)
(0.9278424386 0 0)
(0.9278424515 0 0)
(0.9278425292 0 0)
(0.9278426625 0 0)
(0.9278427645 0 0)
(0.9278427969 0 0)
(0.9278428854 0 0)
(0.9278430525 0 0)
(0.9278433889 0 0)
(0.9278436344 0 0)
(0.9278437606 0 0)
(0.927843597 0 0)
(0.9278434498 0 0)
(0.9278434406 0 0)
(0.9278434992 0 0)
(0.9278437134 0 0)
(0.9278439629 0 0)
(0.92784414 0 0)
(0.9278442405 0 0)
(0.9278440917 0 0)
(0.9278436841 0 0)
(0.9278435301 0 0)
(0.9278438385 0 0)
(0.9278445521 0 0)
(0.927844804 0 0)
(0.927844289 0 0)
(0.9278434514 0 0)
(0.9278430941 0 0)
(0.927843931 0 0)
(0.9278447011 0 0)
(0.9278445583 0 0)
(0.9278437044 0 0)
(0.927842392 0 0)
(0.9278417251 0 0)
(0.9278401326 0 0)
(0.9278369516 0 0)
(0.9278224798 0 0)
(0.927790839 0 0)
(0.9277102414 0 0)
(0.9275036513 0 0)
(0.9269928752 0 0)
(0.9256758881 0 0)
(0.9223739815 0 0)
(0.9140140132 0 0)
(0.8930013155 0 0)
(0.8409464735 0 0)
(0.7161376615 0 0)
(0.4434811775 0 0)
(0.1448508512 0 0)
(0.03539618507 0 0)
(0.007706996046 0 0)
(0.001623637439 0 0)
(0.0003395194857 0 0)
(7.088696803e-05 0 0)
(1.479538766e-05 0 0)
(3.08784415e-06 0 0)
(6.444326377e-07 0 0)
(1.344925636e-07 0 0)
(2.806847516e-08 0 0)
(5.857865539e-09 0 0)
(1.22253473e-09 0 0)
(2.551465094e-10 0 0)
(5.325440464e-11 0 0)
(1.111883187e-11 0 0)
(2.325368338e-12 0 0)
(4.907580283e-13 0 0)
(1.10631327e-13 0 0)
(3.062135746e-14 0 0)
(1.534280311e-14 0 0)
(1.247016465e-14 0 0)
(1.186459573e-14 0 0)
(1.105870466e-14 0 0)
(9.95692618e-15 0 0)
(1.05923262e-14 0 0)
(1.100512416e-14 0 0)
(9.355240282e-15 0 0)
(7.175424083e-15 0 0)
(6.079929134e-15 0 0)
(5.946031364e-15 0 0)
(5.444013577e-15 0 0)
(4.966182245e-15 0 0)
(4.28053458e-15 0 0)
(4.999603408e-15 0 0)
(6.472841814e-15 0 0)
(6.95939888e-15 0 0)
(6.508811352e-15 0 0)
(4.181233407e-15 0 0)
(1.931619688e-15 0 0)
(1.52221844e-15 0 0)
(1.520983183e-15 0 0)
(1.033610423e-15 0 0)
(1.897270136e-16 0 0)
(-3.408571453e-16 0 0)
(-1.002459586e-15 0 0)
(-3.502056213e-16 0 0)
(2.351067318e-16 0 0)
(3.313704551e-16 0 0)
(5.648416074e-16 0 0)
(1.05589617e-15 0 0)
(2.052251358e-15 0 0)
(2.063496709e-15 0 0)
(1.565450911e-15 0 0)
(8.002232308e-16 0 0)
(1.036287101e-17 0 0)
(-7.104161322e-16 0 0)
(-7.737202921e-16 0 0)
(-8.129152646e-16 0 0)
(-8.11546764e-16 0 0)
(-6.137186912e-16 0 0)
(-1.033825477e-15 0 0)
(-1.302704036e-15 0 0)
(-3.798929203e-16 0 0)
(5.147323246e-16 0 0)
(1.041958727e-16 0 0)
(-4.587307526e-16 0 0)
(-9.562127109e-16 0 0)
(-9.231414065e-16 0 0)
(-3.850455245e-16 0 0)
(8.846210136e-16 0 0)
(2.004076758e-15 0 0)
(2.896873153e-15 0 0)
(4.073139478e-15 0 0)
(4.848180072e-15 0 0)
(5.307578595e-15 0 0)
(5.144413428e-15 0 0)
(5.44419527e-15 0 0)
(5.471302535e-15 0 0)
(4.558718453e-15 0 0)
(4.841372984e-15 0 0)
(5.157329986e-15 0 0)
(5.278215006e-15 0 0)
(5.990480942e-15 0 0)
(5.857183029e-15 0 0)
(4.576237735e-15 0 0)
(2.655001989e-15 0 0)
(1.827234626e-15 0 0)
(2.135277821e-15 0 0)
(2.397526792e-15 0 0)
(2.853023789e-15 0 0)
(3.12536987e-15 0 0)
(3.203923082e-15 0 0)
(3.53392408e-15 0 0)
(4.509680805e-15 0 0)
(5.249280397e-15 0 0)
(4.864937599e-15 0 0)
(5.007485202e-15 0 0)
(5.847320826e-15 0 0)
(6.694233123e-15 0 0)
(6.804380332e-15 0 0)
(8.208101257e-15 0 0)
(8.199105806e-15 0 0)
(6.735865443e-15 0 0)
(7.105418055e-15 0 0)
(8.093257281e-15 0 0)
(9.169412313e-15 0 0)
(8.714049417e-15 0 0)
(7.596154323e-15 0 0)
(6.846715046e-15 0 0)
(6.821323569e-15 0 0)
(7.03615589e-15 0 0)
(8.387240543e-15 0 0)
(9.233008538e-15 0 0)
(7.602972492e-15 0 0)
(6.169600088e-15 0 0)
(6.883936781e-15 0 0)
(7.4792435e-15 0 0)
(7.017273208e-15 0 0)
(6.517533825e-15 0 0)
(6.844035513e-15 0 0)
(7.547588561e-15 0 0)
(7.695844531e-15 0 0)
(8.099508941e-15 0 0)
(8.768394124e-15 0 0)
(9.049702661e-15 0 0)
(9.636211797e-15 0 0)
(1.044860899e-14 0 0)
(1.003307738e-14 0 0)
(9.049047885e-15 0 0)
(7.960342313e-15 0 0)
(6.331671072e-15 0 0)
(4.964591603e-15 0 0)
(5.588017515e-15 0 0)
(7.002058058e-15 0 0)
(7.690365634e-15 0 0)
(7.114165792e-15 0 0)
(5.634629957e-15 0 0)
(3.733527208e-15 0 0)
(2.162764168e-15 0 0)
(9.079801519e-16 0 0)
(-5.453800691e-16 0 0)
(-2.489706843e-15 0 0)
(-3.627583439e-15 0 0)
(-3.899274768e-15 0 0)
(-2.934022605e-15 0 0)
(-2.844411083e-16 0 0)
(1.190423795e-15 0 0)
)
;

boundaryField
{
    sides
    {
        type            fixedValue;
        value           uniform (0 0 0);
    }
    empty
    {
        type            empty;
    }
}


// ************************************************************************* //
