/*--------------------------------*- C++ -*----------------------------------*\
| =========                 |                                                 |
| \\      /  F ield         | OpenFOAM: The Open Source CFD Toolbox           |
|  \\    /   O peration     | Version:  2012                                  |
|   \\  /    A nd           | Website:  www.openfoam.com                      |
|    \\/     M anipulation  |                                                 |
\*---------------------------------------------------------------------------*/
FoamFile
{
    version     2.0;
    format      ascii;
    class       volVectorField;
    location    "0.2";
    object      U;
}
// * * * * * * * * * * * * * * * * * * * * * * * * * * * * * * * * * * * * * //

dimensions      [0 1 -1 0 0 0 0];


internalField   nonuniform List<vector> 
1000
(
(-1.088022812e-15 0 0)
(-3.455534529e-15 0 0)
(-4.362737453e-15 0 0)
(-4.711075859e-15 0 0)
(-4.326569115e-15 0 0)
(-4.705208611e-15 0 0)
(-5.390666329e-15 0 0)
(-6.375417562e-15 0 0)
(-8.857915079e-15 0 0)
(-1.030309019e-14 0 0)
(-1.072313723e-14 0 0)
(-1.229364432e-14 0 0)
(-1.323448822e-14 0 0)
(-1.434154288e-14 0 0)
(-1.495612877e-14 0 0)
(-1.372564145e-14 0 0)
(-1.245124213e-14 0 0)
(-1.273939219e-14 0 0)
(-1.280969441e-14 0 0)
(-1.231315194e-14 0 0)
(-1.188089919e-14 0 0)
(-1.164890091e-14 0 0)
(-1.148640718e-14 0 0)
(-1.165863552e-14 0 0)
(-1.164228241e-14 0 0)
(-1.121717618e-14 0 0)
(-1.049402957e-14 0 0)
(-9.997956328e-15 0 0)
(-9.1814449e-15 0 0)
(-8.75146541e-15 0 0)
(-8.98574047e-15 0 0)
(-1.012231158e-14 0 0)
(-1.069252354e-14 0 0)
(-9.945880996e-15 0 0)
(-9.763818117e-15 0 0)
(-9.370142055e-15 0 0)
(-9.092962106e-15 0 0)
(-8.872571149e-15 0 0)
(-8.402287017e-15 0 0)
(-7.522494854e-15 0 0)
(-6.985997879e-15 0 0)
(-5.94593227e-15 0 0)
(-4.587014348e-15 0 0)
(-4.17061078e-15 0 0)
(-4.335922891e-15 0 0)
(-4.066588534e-15 0 0)
(-3.081464889e-15 0 0)
(-2.676815537e-15 0 0)
(-3.131131465e-15 0 0)
(-4.724272218e-15 0 0)
(-5.505207605e-15 0 0)
(-5.412319902e-15 0 0)
(-6.275073849e-15 0 0)
(-7.544078987e-15 0 0)
(-7.471861489e-15 0 0)
(-7.244672396e-15 0 0)
(-6.410886907e-15 0 0)
(-5.531618263e-15 0 0)
(-5.417859097e-15 0 0)
(-5.251097452e-15 0 0)
(-5.821836063e-15 0 0)
(-6.132760141e-15 0 0)
(-5.905655949e-15 0 0)
(-6.70617976e-15 0 0)
(-8.196847489e-15 0 0)
(-8.805277887e-15 0 0)
(-8.971611703e-15 0 0)
(-8.824243343e-15 0 0)
(-7.271852277e-15 0 0)
(-5.732146401e-15 0 0)
(-3.414835565e-15 0 0)
(-9.286803913e-16 0 0)
(1.788474696e-15 0 0)
(4.839740072e-15 0 0)
(7.715493909e-15 0 0)
(1.037190475e-14 0 0)
(1.158186346e-14 0 0)
(1.165738618e-14 0 0)
(1.080747107e-14 0 0)
(9.849019341e-15 0 0)
(8.868003823e-15 0 0)
(7.917113007e-15 0 0)
(6.446956757e-15 0 0)
(3.000717173e-15 0 0)
(9.576511192e-16 0 0)
(1.24814289e-15 0 0)
(1.372372907e-15 0 0)
(1.379012868e-15 0 0)
(1.499835948e-15 0 0)
(1.526061174e-15 0 0)
(1.347420551e-15 0 0)
(1.026879781e-15 0 0)
(1.726152779e-15 0 0)
(2.477454524e-15 0 0)
(2.429501699e-15 0 0)
(2.509879793e-15 0 0)
(2.843521687e-15 0 0)
(3.163959115e-15 0 0)
(5.613796606e-15 0 0)
(8.397604265e-15 0 0)
(8.946679324e-15 0 0)
(8.505605636e-15 0 0)
(7.185048223e-15 0 0)
(4.291046616e-15 0 0)
(2.921217992e-15 0 0)
(3.051680365e-15 0 0)
(2.005473337e-15 0 0)
(8.997163314e-16 0 0)
(-1.88868088e-17 0 0)
(-1.025721287e-15 0 0)
(-1.958889954e-15 0 0)
(-2.293935157e-15 0 0)
(-2.961191649e-15 0 0)
(-5.868971819e-15 0 0)
(-9.751910382e-15 0 0)
(-1.09270389e-14 0 0)
(-9.863538049e-15 0 0)
(-8.208226755e-15 0 0)
(-5.548700531e-15 0 0)
(-2.560979549e-15 0 0)
(-1.153403583e-15 0 0)
(-6.364861741e-16 0 0)
(7.029579364e-16 0 0)
(1.828467322e-15 0 0)
(2.747672559e-15 0 0)
(2.515504734e-15 0 0)
(2.500545479e-15 0 0)
(3.462394131e-15 0 0)
(6.072679954e-15 0 0)
(9.297699239e-15 0 0)
(1.027428316e-14 0 0)
(1.028518532e-14 0 0)
(1.077389081e-14 0 0)
(1.166524542e-14 0 0)
(1.241210427e-14 0 0)
(1.15332936e-14 0 0)
(1.033583189e-14 0 0)
(1.006389279e-14 0 0)
(1.051681182e-14 0 0)
(1.053173127e-14 0 0)
(9.98598575e-15 0 0)
(9.418733099e-15 0 0)
(9.418291803e-15 0 0)
(8.698777905e-15 0 0)
(7.122134302e-15 0 0)
(6.083547784e-15 0 0)
(3.886266721e-15 0 0)
(1.602414859e-15 0 0)
(-5.663998223e-16 0 0)
(-3.657756429e-15 0 0)
(-7.115544221e-15 0 0)
(-8.85936311e-15 0 0)
(-7.978120773e-15 0 0)
(-7.913711513e-15 0 0)
(-8.207083004e-15 0 0)
(-8.191200609e-15 0 0)
(-8.216168321e-15 0 0)
(-9.531794869e-15 0 0)
(-1.159907766e-14 0 0)
(-1.254537597e-14 0 0)
(-1.313049782e-14 0 0)
(-1.270656696e-14 0 0)
(-1.258355617e-14 0 0)
(-1.252059143e-14 0 0)
(-1.247387136e-14 0 0)
(-1.23422505e-14 0 0)
(-1.159803022e-14 0 0)
(-1.07536971e-14 0 0)
(-1.106095094e-14 0 0)
(-1.127723554e-14 0 0)
(-9.799843567e-15 0 0)
(-7.941000235e-15 0 0)
(-7.105570803e-15 0 0)
(-6.035999035e-15 0 0)
(-5.494031665e-15 0 0)
(-5.184553822e-15 0 0)
(-4.551456739e-15 0 0)
(-4.241201916e-15 0 0)
(-5.373776279e-15 0 0)
(-5.96262013e-15 0 0)
(-5.854666098e-15 0 0)
(-6.176015072e-15 0 0)
(-6.72367574e-15 0 0)
(-6.087703743e-15 0 0)
(-4.882052692e-15 0 0)
(-3.742203952e-15 0 0)
(-2.033912851e-15 0 0)
(-1.839459026e-15 0 0)
(-1.032388784e-15 0 0)
(-3.164523996e-16 0 0)
(2.525603042e-16 0 0)
(2.828180861e-15 0 0)
(5.459923465e-15 0 0)
(8.468803498e-15 0 0)
(1.505343274e-14 0 0)
(2.51864559e-14 0 0)
(4.26054691e-14 0 0)
(7.790909709e-14 0 0)
(1.429173182e-13 0 0)
(2.586738316e-13 0 0)
(4.65189546e-13 0 0)
(8.356160611e-13 0 0)
(1.489123096e-12 0 0)
(2.646945054e-12 0 0)
(4.681992589e-12 0 0)
(8.239435013e-12 0 0)
(1.442248739e-11 0 0)
(2.511254901e-11 0 0)
(4.349879404e-11 0 0)
(7.495926013e-11 0 0)
(1.284927213e-10 0 0)
(2.190916995e-10 0 0)
(3.715698901e-10 0 0)
(6.267507643e-10 0 0)
(1.051397146e-09 0 0)
(1.753990899e-09 0 0)
(2.909705127e-09 0 0)
(4.799591383e-09 0 0)
(7.871626428e-09 0 0)
(1.283511669e-08 0 0)
(2.080556283e-08 0 0)
(3.352521098e-08 0 0)
(5.369614353e-08 0 0)
(8.54791412e-08 0 0)
(1.352344556e-07 0 0)
(2.126121464e-07 0 0)
(3.321423432e-07 0 0)
(5.155328456e-07 0 0)
(7.949562522e-07 0 0)
(1.217705006e-06 0 0)
(1.85271366e-06 0 0)
(2.799595808e-06 0 0)
(4.201018784e-06 0 0)
(6.259439709e-06 0 0)
(9.259443222e-06 0 0)
(1.359713824e-05 0 0)
(1.981826191e-05 0 0)
(2.866676355e-05 0 0)
(4.114564469e-05 0 0)
(5.859164191e-05 0 0)
(8.276487068e-05 0 0)
(0.000115953708 0 0)
(0.0001610938888 0 0)
(0.0002218989609 0 0)
(0.0003029968746 0 0)
(0.000410064644 0 0)
(0.0005499499153 0 0)
(0.0007307652472 0 0)
(0.0009619384757 0 0)
(0.001254201332 0 0)
(0.001619499219 0 0)
(0.00207080835 0 0)
(0.00262185266 0 0)
(0.003286721996 0 0)
(0.004079404256 0 0)
(0.005013256209 0 0)
(0.00610044862 0 0)
(0.0073514292 0 0)
(0.008774449635 0 0)
(0.0103751995 0 0)
(0.01215658055 0 0)
(0.01411864045 0 0)
(0.01625866787 0 0)
(0.01857143389 0 0)
(0.02104955087 0 0)
(0.02368391021 0 0)
(0.02646415766 0 0)
(0.02937916637 0 0)
(0.0324174749 0 0)
(0.03556766638 0 0)
(0.03881867509 0 0)
(0.04216001617 0 0)
(0.0455819415 0 0)
(0.04907553037 0 0)
(0.05263272617 0 0)
(0.05624633181 0 0)
(0.05990997585 0 0)
(0.0636180601 0 0)
(0.06736569781 0 0)
(0.0711486496 0 0)
(0.0749632356 0 0)
(0.07880603838 0 0)
(0.08267366729 0 0)
(0.08656421213 0 0)
(0.09047602065 0 0)
(0.09440779987 0 0)
(0.09835821195 0 0)
(0.1023240261 0 0)
(0.1063030614 0 0)
(0.1102937971 0 0)
(0.1142951599 0 0)
(0.1183062212 0 0)
(0.1223261795 0 0)
(0.1263543269 0 0)
(0.1303900266 0 0)
(0.134432704 0 0)
(0.1384818387 0 0)
(0.1425369582 0 0)
(0.1465976334 0 0)
(0.1506634748 0 0)
(0.1547341299 0 0)
(0.1588092811 0 0)
(0.1628886438 0 0)
(0.1669719637 0 0)
(0.1710590125 0 0)
(0.1751495815 0 0)
(0.1792434718 0 0)
(0.1833404805 0 0)
(0.187440392 0 0)
(0.1915430055 0 0)
(0.1956481588 0 0)
(0.1997557075 0 0)
(0.2038655188 0 0)
(0.2079774703 0 0)
(0.2120914482 0 0)
(0.2162073469 0 0)
(0.2203250682 0 0)
(0.2244445206 0 0)
(0.2285656185 0 0)
(0.2326882824 0 0)
(0.2368124378 0 0)
(0.2409380151 0 0)
(0.2450649493 0 0)
(0.2491931795 0 0)
(0.2533226487 0 0)
(0.2574533034 0 0)
(0.2615850934 0 0)
(0.2657179716 0 0)
(0.2698518938 0 0)
(0.2739868184 0 0)
(0.2781227065 0 0)
(0.2822595214 0 0)
(0.2863972286 0 0)
(0.2905357956 0 0)
(0.294675192 0 0)
(0.298815389 0 0)
(0.3029563596 0 0)
(0.3070980784 0 0)
(0.3112405214 0 0)
(0.3153836663 0 0)
(0.319527492 0 0)
(0.3236719786 0 0)
(0.3278171078 0 0)
(0.331962862 0 0)
(0.3361092252 0 0)
(0.340256182 0 0)
(0.3444037185 0 0)
(0.3485518214 0 0)
(0.3527004788 0 0)
(0.3568496793 0 0)
(0.3609994128 0 0)
(0.3651496698 0 0)
(0.3693004417 0 0)
(0.3734517209 0 0)
(0.3776035003 0 0)
(0.3817557739 0 0)
(0.3859085362 0 0)
(0.3900617825 0 0)
(0.3942155088 0 0)
(0.3983697117 0 0)
(0.4025243886 0 0)
(0.4066795373 0 0)
(0.4108351564 0 0)
(0.4149912448 0 0)
(0.419147802 0 0)
(0.4233048279 0 0)
(0.4274623229 0 0)
(0.4316202877 0 0)
(0.4357787235 0 0)
(0.4399376314 0 0)
(0.4440970132 0 0)
(0.4482568705 0 0)
(0.4524172054 0 0)
(0.4565780198 0 0)
(0.4607393159 0 0)
(0.4649010958 0 0)
(0.4690633615 0 0)
(0.4732261151 0 0)
(0.4773893584 0 0)
(0.4815530932 0 0)
(0.4857173209 0 0)
(0.4898820429 0 0)
(0.49404726 0 0)
(0.4982129729 0 0)
(0.5023791819 0 0)
(0.506545887 0 0)
(0.5107130879 0 0)
(0.5148807838 0 0)
(0.5190489739 0 0)
(0.5232176566 0 0)
(0.5273868302 0 0)
(0.5315564927 0 0)
(0.5357266416 0 0)
(0.539897274 0 0)
(0.5440683862 0 0)
(0.5482399731 0 0)
(0.5524120268 0 0)
(0.5565845353 0 0)
(0.5607574814 0 0)
(0.5649308413 0 0)
(0.5691045847 0 0)
(0.5732786749 0 0)
(0.5774530691 0 0)
(0.5816277197 0 0)
(0.5858025735 0 0)
(0.5899775696 0 0)
(0.5941526374 0 0)
(0.5983277059 0 0)
(0.6025027109 0 0)
(0.6066776222 0 0)
(0.6108524155 0 0)
(0.6150270977 0 0)
(0.6192015846 0 0)
(0.6233758735 0 0)
(0.6275500401 0 0)
(0.6317238336 0 0)
(0.6358971948 0 0)
(0.6400704477 0 0)
(0.6442430747 0 0)
(0.6484148271 0 0)
(0.6525865889 0 0)
(0.656757747 0 0)
(0.6609274212 0 0)
(0.6650969061 0 0)
(0.6692662678 0 0)
(0.6734335975 0 0)
(0.6775997774 0 0)
(0.6817662983 0 0)
(0.6859312429 0 0)
(0.6900934951 0 0)
(0.6942556328 0 0)
(0.6984177821 0 0)
(0.7025767431 0 0)
(0.706733713 0 0)
(0.7108911732 0 0)
(0.7150473308 0 0)
(0.7191993522 0 0)
(0.7233499811 0 0)
(0.7275012348 0 0)
(0.7316494185 0 0)
(0.7357923498 0 0)
(0.739934329 0 0)
(0.7440770003 0 0)
(0.748214781 0 0)
(0.7523465654 0 0)
(0.756477707 0 0)
(0.7606093799 0 0)
(0.7647344801 0 0)
(0.7688525092 0 0)
(0.7729700102 0 0)
(0.7770877001 0 0)
(0.7811974009 0 0)
(0.7852992517 0 0)
(0.7894002044 0 0)
(0.7935009935 0 0)
(0.7975938446 0 0)
(0.8016781257 0 0)
(0.8057602112 0 0)
(0.8098423443 0 0)
(0.8139164407 0 0)
(0.8179827216 0 0)
(0.8220466864 0 0)
(0.826102795 0 0)
(0.8301576108 0 0)
(0.8342054736 0 0)
(0.8382407675 0 0)
(0.84227479 0 0)
(0.8463061838 0 0)
(0.8503260611 0 0)
(0.8543358998 0 0)
(0.85834049 0 0)
(0.8623345625 0 0)
(0.8663164991 0 0)
(0.8702868722 0 0)
(0.8742427052 0 0)
(0.8781821479 0 0)
(0.8821037353 0 0)
(0.8860015009 0 0)
(0.8898676182 0 0)
(0.8936919149 0 0)
(0.8974622647 0 0)
(0.9011617507 0 0)
(0.9047688646 0 0)
(0.9082556753 0 0)
(0.9115873598 0 0)
(0.9147216383 0 0)
(0.9176094741 0 0)
(0.9201989664 0 0)
(0.9224410817 0 0)
(0.9242993085 0 0)
(0.9257583571 0 0)
(0.9268324154 0 0)
(0.927564104 0 0)
(0.9280191039 0 0)
(0.9282708428 0 0)
(0.9283898507 0 0)
(0.9284318645 0 0)
(0.9284391773 0 0)
(0.9284286225 0 0)
(0.9283899841 0 0)
(0.9283101379 0 0)
(0.9282131379 0 0)
(0.9281444826 0 0)
(0.9280926663 0 0)
(0.9280472994 0 0)
(0.9280068808 0 0)
(0.9279718885 0 0)
(0.9279425278 0 0)
(0.9279184363 0 0)
(0.927898711 0 0)
(0.9278822354 0 0)
(0.9278678956 0 0)
(0.9278549286 0 0)
(0.9278430239 0 0)
(0.927832365 0 0)
(0.9278233732 0 0)
(0.927816406 0 0)
(0.9278115134 0 0)
(0.9278084025 0 0)
(0.9278065757 0 0)
(0.9278054628 0 0)
(0.9278045633 0 0)
(0.9278033869 0 0)
(0.9278010087 0 0)
(0.9277961793 0 0)
(0.9277920134 0 0)
(0.9277906722 0 0)
(0.9277904405 0 0)
(0.9277905321 0 0)
(0.9277897088 0 0)
(0.9277862663 0 0)
(0.9277843895 0 0)
(0.9277846241 0 0)
(0.9277845723 0 0)
(0.927784381 0 0)
(0.9277836994 0 0)
(0.9277828563 0 0)
(0.9277839396 0 0)
(0.9277838377 0 0)
(0.9277835461 0 0)
(0.9277841256 0 0)
(0.9277842384 0 0)
(0.9277843164 0 0)
(0.9277844676 0 0)
(0.9277847231 0 0)
(0.9277849804 0 0)
(0.9277851113 0 0)
(0.9277853583 0 0)
(0.9277856958 0 0)
(0.9277860417 0 0)
(0.9277864185 0 0)
(0.9277868288 0 0)
(0.9277872623 0 0)
(0.9277877417 0 0)
(0.9277883133 0 0)
(0.9277889892 0 0)
(0.9277897816 0 0)
(0.9277906219 0 0)
(0.92779135 0 0)
(0.9277920147 0 0)
(0.9277926219 0 0)
(0.9277932056 0 0)
(0.9277938149 0 0)
(0.9277944652 0 0)
(0.9277951069 0 0)
(0.9277956447 0 0)
(0.9277961174 0 0)
(0.9277965726 0 0)
(0.9277970602 0 0)
(0.9277975709 0 0)
(0.9277980465 0 0)
(0.9277984777 0 0)
(0.9277988836 0 0)
(0.9277993146 0 0)
(0.9277997802 0 0)
(0.9278002558 0 0)
(0.9278006601 0 0)
(0.9278009927 0 0)
(0.9278013166 0 0)
(0.9278016733 0 0)
(0.9278019959 0 0)
(0.9278022651 0 0)
(0.9278025278 0 0)
(0.9278028291 0 0)
(0.9278030865 0 0)
(0.9278033128 0 0)
(0.9278035524 0 0)
(0.9278037748 0 0)
(0.9278039606 0 0)
(0.9278041252 0 0)
(0.9278042318 0 0)
(0.9278043489 0 0)
(0.9278044976 0 0)
(0.9278046187 0 0)
(0.9278046864 0 0)
(0.9278047822 0 0)
(0.9278048857 0 0)
(0.9278049532 0 0)
(0.9278050195 0 0)
(0.9278050665 0 0)
(0.9278051337 0 0)
(0.9278051808 0 0)
(0.9278052416 0 0)
(0.9278052663 0 0)
(0.9278053142 0 0)
(0.927805313 0 0)
(0.927805361 0 0)
(0.9278053495 0 0)
(0.9278053924 0 0)
(0.9278053733 0 0)
(0.9278054043 0 0)
(0.9278053811 0 0)
(0.9278054015 0 0)
(0.9278053742 0 0)
(0.9278053878 0 0)
(0.9278053546 0 0)
(0.9278053675 0 0)
(0.9278053268 0 0)
(0.9278053394 0 0)
(0.9278052924 0 0)
(0.927805316 0 0)
(0.9278052615 0 0)
(0.9278052107 0 0)
(0.9278051354 0 0)
(0.9278052075 0 0)
(0.9278051516 0 0)
(0.9278050888 0 0)
(0.9278050045 0 0)
(0.9278050587 0 0)
(0.9278049971 0 0)
(0.927804963 0 0)
(0.927804876 0 0)
(0.9278049046 0 0)
(0.9278048303 0 0)
(0.9278048482 0 0)
(0.9278047753 0 0)
(0.9278048145 0 0)
(0.9278047381 0 0)
(0.9278047936 0 0)
(0.9278047025 0 0)
(0.9278047766 0 0)
(0.9278046607 0 0)
(0.92780476 0 0)
(0.9278046123 0 0)
(0.9278047408 0 0)
(0.9278045537 0 0)
(0.9278047298 0 0)
(0.9278044867 0 0)
(0.9278047747 0 0)
(0.927804416 0 0)
(0.9278049586 0 0)
(0.9278043025 0 0)
(0.927805461 0 0)
(0.9278040633 0 0)
(0.927806687 0 0)
(0.9278035418 0 0)
(0.9278094447 0 0)
(0.9278024052 0 0)
(0.9278153173 0 0)
(0.9278000746 0 0)
(0.9278271019 0 0)
(0.9277955015 0 0)
(0.9278492835 0 0)
(0.9277869287 0 0)
(0.9278883919 0 0)
(0.9277717747 0 0)
(0.9279526246 0 0)
(0.9277466767 0 0)
(0.9280500958 0 0)
(0.9277081726 0 0)
(0.9281851085 0 0)
(0.9276544458 0 0)
(0.9283526954 0 0)
(0.9275884608 0 0)
(0.9285340505 0 0)
(0.9275226086 0 0)
(0.9286975722 0 0)
(0.9274833843 0 0)
(0.9288096521 0 0)
(0.9275125412 0 0)
(0.9288527902 0 0)
(0.9276592635 0 0)
(0.9288323543 0 0)
(0.9279652124 0 0)
(0.9287475056 0 0)
(0.9284454765 0 0)
(0.9286471089 0 0)
(0.9282942144 0 0)
(0.9275549118 0 0)
(0.9275673654 0 0)
(0.9276560818 0 0)
(0.9277217518 0 0)
(0.9277624496 0 0)
(0.9277897378 0 0)
(0.9278073978 0 0)
(0.9278184872 0 0)
(0.9278252746 0 0)
(0.9278293256 0 0)
(0.9278316936 0 0)
(0.9278330592 0 0)
(0.9278338476 0 0)
(0.9278343182 0 0)
(0.9278346192 0 0)
(0.9278348137 0 0)
(0.9278349669 0 0)
(0.9278350693 0 0)
(0.9278351246 0 0)
(0.927835165 0 0)
(0.9278352112 0 0)
(0.9278352744 0 0)
(0.9278353557 0 0)
(0.9278354527 0 0)
(0.9278355595 0 0)
(0.9278356683 0 0)
(0.9278357616 0 0)
(0.9278358116 0 0)
(0.9278358241 0 0)
(0.9278358625 0 0)
(0.9278359467 0 0)
(0.9278359388 0 0)
(0.9278359971 0 0)
(0.9278360794 0 0)
(0.9278361131 0 0)
(0.9278361764 0 0)
(0.9278362486 0 0)
(0.9278362985 0 0)
(0.9278363519 0 0)
(0.9278363934 0 0)
(0.9278364304 0 0)
(0.9278364674 0 0)
(0.9278365087 0 0)
(0.927836558 0 0)
(0.9278366166 0 0)
(0.9278366846 0 0)
(0.9278367633 0 0)
(0.927836854 0 0)
(0.927836957 0 0)
(0.92783707 0 0)
(0.927837187 0 0)
(0.9278373031 0 0)
(0.9278374138 0 0)
(0.9278375257 0 0)
(0.92783764 0 0)
(0.9278377591 0 0)
(0.9278378629 0 0)
(0.9278379165 0 0)
(0.9278379415 0 0)
(0.9278379821 0 0)
(0.9278380501 0 0)
(0.9278381563 0 0)
(0.9278382863 0 0)
(0.9278384299 0 0)
(0.9278385534 0 0)
(0.9278385715 0 0)
(0.9278385713 0 0)
(0.9278385863 0 0)
(0.9278386527 0 0)
(0.9278387626 0 0)
(0.9278388552 0 0)
(0.9278389099 0 0)
(0.9278388888 0 0)
(0.9278389234 0 0)
(0.9278389832 0 0)
(0.927839049 0 0)
(0.9278391249 0 0)
(0.9278391693 0 0)
(0.9278391387 0 0)
(0.9278391657 0 0)
(0.9278392288 0 0)
(0.9278393109 0 0)
(0.9278394014 0 0)
(0.927839455 0 0)
(0.9278395371 0 0)
(0.9278396626 0 0)
(0.9278398309 0 0)
(0.9278399939 0 0)
(0.9278401579 0 0)
(0.9278402841 0 0)
(0.9278402767 0 0)
(0.9278403254 0 0)
(0.9278404382 0 0)
(0.9278405913 0 0)
(0.9278407691 0 0)
(0.9278409335 0 0)
(0.9278408939 0 0)
(0.9278409141 0 0)
(0.9278409659 0 0)
(0.9278410646 0 0)
(0.9278412128 0 0)
(0.9278414147 0 0)
(0.9278415839 0 0)
(0.9278415535 0 0)
(0.9278415435 0 0)
(0.9278415922 0 0)
(0.9278417027 0 0)
(0.9278418543 0 0)
(0.9278420267 0 0)
(0.927842011 0 0)
(0.9278419857 0 0)
(0.9278420309 0 0)
(0.9278421225 0 0)
(0.9278422507 0 0)
(0.9278424099 0 0)
(0.9278423639 0 0)
(0.9278423158 0 0)
(0.9278423289 0 0)
(0.927842408 0 0)
(0.9278425442 0 0)
(0.9278426422 0 0)
(0.9278426699 0 0)
(0.9278427547 0 0)
(0.9278429152 0 0)
(0.9278432457 0 0)
(0.9278434901 0 0)
(0.9278436218 0 0)
(0.927843461 0 0)
(0.927843318 0 0)
(0.9278433113 0 0)
(0.9278433697 0 0)
(0.9278435865 0 0)
(0.9278438319 0 0)
(0.9278440029 0 0)
(0.9278440964 0 0)
(0.9278439491 0 0)
(0.9278435498 0 0)
(0.9278433965 0 0)
(0.9278437035 0 0)
(0.9278444155 0 0)
(0.9278446662 0 0)
(0.9278441517 0 0)
(0.9278433127 0 0)
(0.9278429526 0 0)
(0.92784379 0 0)
(0.9278445587 0 0)
(0.9278444157 0 0)
(0.927843562 0 0)
(0.9278422484 0 0)
(0.9278415832 0 0)
(0.9278399856 0 0)
(0.9278368076 0 0)
(0.9278223376 0 0)
(0.9277906841 0 0)
(0.9277101013 0 0)
(0.9275034957 0 0)
(0.9269926674 0 0)
(0.9256756452 0 0)
(0.9223736225 0 0)
(0.9140134343 0 0)
(0.8930000286 0 0)
(0.8409437127 0 0)
(0.7161309774 0 0)
(0.4434681001 0 0)
(0.1448443585 0 0)
(0.03539566229 0 0)
(0.007707573992 0 0)
(0.001623958441 0 0)
(0.0003396304212 0 0)
(7.091924224e-05 0 0)
(1.480402023e-05 0 0)
(3.090041296e-06 0 0)
(6.449737141e-07 0 0)
(1.346227092e-07 0 0)
(2.809923149e-08 0 0)
(5.865036127e-09 0 0)
(1.224186122e-09 0 0)
(2.555222004e-10 0 0)
(5.333471365e-11 0 0)
(1.11308206e-11 0 0)
(2.322922128e-12 0 0)
(4.845583117e-13 0 0)
(1.013642015e-13 0 0)
(2.069684066e-14 0 0)
(3.785852458e-15 0 0)
(-2.470850829e-16 0 0)
(-1.495412115e-15 0 0)
(-1.962767457e-15 0 0)
(-1.790156261e-15 0 0)
(-8.465099937e-16 0 0)
(-2.045683873e-16 0 0)
(-6.770420333e-16 0 0)
(-4.265831772e-16 0 0)
(9.755040405e-16 0 0)
(1.495377568e-15 0 0)
(1.023108271e-15 0 0)
(7.370183215e-16 0 0)
(7.014692212e-16 0 0)
(5.134610972e-16 0 0)
(9.559353086e-17 0 0)
(-7.225504758e-16 0 0)
(-7.922455791e-16 0 0)
(-1.354740514e-16 0 0)
(6.408858449e-16 0 0)
(8.949157693e-16 0 0)
(6.683053336e-16 0 0)
(2.335496425e-15 0 0)
(4.820866065e-15 0 0)
(6.739907748e-15 0 0)
(7.294942898e-15 0 0)
(7.159784761e-15 0 0)
(7.696548679e-15 0 0)
(7.751168041e-15 0 0)
(7.238882137e-15 0 0)
(6.900569451e-15 0 0)
(6.228010056e-15 0 0)
(3.937416688e-15 0 0)
(1.002861787e-15 0 0)
(-2.028835597e-16 0 0)
(-7.328990572e-16 0 0)
(-1.303667966e-15 0 0)
(-1.715024032e-15 0 0)
(-1.746560957e-15 0 0)
(-2.507363878e-16 0 0)
(8.76124696e-16 0 0)
(1.2477967e-15 0 0)
(1.898989369e-15 0 0)
(3.35965421e-15 0 0)
(4.465465506e-15 0 0)
(4.352242228e-15 0 0)
(3.39126954e-15 0 0)
(3.220781091e-15 0 0)
(3.645288383e-15 0 0)
(3.90065281e-15 0 0)
(3.7918089e-15 0 0)
(2.781858303e-15 0 0)
(1.917805499e-15 0 0)
(2.511732075e-15 0 0)
(2.81366671e-15 0 0)
(2.184930386e-15 0 0)
(1.112448568e-15 0 0)
(-9.289609282e-17 0 0)
(-1.756816289e-16 0 0)
(6.249570131e-16 0 0)
(1.480793844e-15 0 0)
(1.4692384e-15 0 0)
(1.47774143e-15 0 0)
(2.197968867e-15 0 0)
(2.728289599e-15 0 0)
(2.677214242e-15 0 0)
(3.120748e-15 0 0)
(3.291980996e-15 0 0)
(2.536037952e-15 0 0)
(1.984300216e-15 0 0)
(2.100554411e-15 0 0)
(2.083509611e-15 0 0)
(1.538427611e-15 0 0)
(1.298939139e-15 0 0)
(1.455514016e-15 0 0)
(1.141856163e-15 0 0)
(5.323882703e-16 0 0)
(2.655841745e-16 0 0)
(1.152389482e-15 0 0)
(1.338939258e-15 0 0)
(7.257332776e-16 0 0)
(-1.276105235e-15 0 0)
(-2.964789552e-15 0 0)
(-2.613252519e-15 0 0)
(-2.940602038e-15 0 0)
(-3.124033942e-15 0 0)
(-1.914436798e-15 0 0)
(-7.191454867e-16 0 0)
(-7.82435604e-16 0 0)
(-1.496722772e-15 0 0)
(-1.809705563e-15 0 0)
(-2.489941236e-15 0 0)
(-1.856524278e-15 0 0)
(-1.105919882e-15 0 0)
(-1.606729998e-15 0 0)
(-2.198673476e-15 0 0)
(-2.678207207e-15 0 0)
(-3.883789692e-15 0 0)
(-4.996011029e-15 0 0)
(-5.273228503e-15 0 0)
(-4.475084605e-15 0 0)
(-3.227906183e-15 0 0)
(-2.913491705e-15 0 0)
(-2.871123248e-15 0 0)
(-1.960151644e-15 0 0)
(-1.461964809e-15 0 0)
(-1.645515027e-15 0 0)
(-1.72191673e-15 0 0)
(-1.158576317e-15 0 0)
(-1.090109869e-15 0 0)
(-1.346710198e-15 0 0)
(-3.942654798e-16 0 0)
(4.162213886e-17 0 0)
(-1.941093343e-15 0 0)
(-3.848901476e-15 0 0)
(-3.442561421e-15 0 0)
(-2.160316458e-15 0 0)
(-7.152253394e-16 0 0)
(4.321330504e-16 0 0)
(6.367360217e-17 0 0)
(1.070391797e-16 0 0)
(1.04860339e-16 0 0)
(-1.198782682e-15 0 0)
(-1.713472415e-15 0 0)
(-1.166710084e-15 0 0)
(-6.650079693e-16 0 0)
(-7.858028562e-16 0 0)
(-1.167704794e-15 0 0)
)
;

boundaryField
{
    sides
    {
        type            fixedValue;
        value           uniform (0 0 0);
    }
    empty
    {
        type            empty;
    }
}


// ************************************************************************* //
