/*--------------------------------*- C++ -*----------------------------------*\
| =========                 |                                                 |
| \\      /  F ield         | OpenFOAM: The Open Source CFD Toolbox           |
|  \\    /   O peration     | Version:  2012                                  |
|   \\  /    A nd           | Website:  www.openfoam.com                      |
|    \\/     M anipulation  |                                                 |
\*---------------------------------------------------------------------------*/
FoamFile
{
    version     2.0;
    format      ascii;
    class       volVectorField;
    location    "0.2";
    object      Uc;
}
// * * * * * * * * * * * * * * * * * * * * * * * * * * * * * * * * * * * * * //

dimensions      [0 1 -1 0 0 0 0];


internalField   nonuniform List<vector> 
1000
(
(5.489987431e-10 0 0)
(2.196551831e-09 0 0)
(4.397503711e-09 0 0)
(6.600446374e-09 0 0)
(8.788250258e-09 0 0)
(1.095046831e-08 0 0)
(1.310078432e-08 0 0)
(1.526013057e-08 0 0)
(1.742924679e-08 0 0)
(1.959325789e-08 0 0)
(2.174985596e-08 0 0)
(2.390911299e-08 0 0)
(2.607088818e-08 0 0)
(2.822056813e-08 0 0)
(3.035183183e-08 0 0)
(3.248150589e-08 0 0)
(3.462586465e-08 0 0)
(3.678294509e-08 0 0)
(3.894757335e-08 0 0)
(4.11182954e-08 0 0)
(4.32962209e-08 0 0)
(4.548805157e-08 0 0)
(4.769587973e-08 0 0)
(4.990553453e-08 0 0)
(5.210503553e-08 0 0)
(5.430337657e-08 0 0)
(5.650461965e-08 0 0)
(5.869341815e-08 0 0)
(6.086898186e-08 0 0)
(6.304724685e-08 0 0)
(6.522236458e-08 0 0)
(6.738124737e-08 0 0)
(6.953425454e-08 0 0)
(7.168866683e-08 0 0)
(7.38385789e-08 0 0)
(7.5988957e-08 0 0)
(7.8152974e-08 0 0)
(8.033008895e-08 0 0)
(8.25032078e-08 0 0)
(8.466646874e-08 0 0)
(8.683492656e-08 0 0)
(8.901294754e-08 0 0)
(9.118473072e-08 0 0)
(9.334645148e-08 0 0)
(9.551542045e-08 0 0)
(9.770087518e-08 0 0)
(9.989458654e-08 0 0)
(1.020860917e-07 0 0)
(1.04261524e-07 0 0)
(1.064075273e-07 0 0)
(1.085354073e-07 0 0)
(1.106718722e-07 0 0)
(1.128222981e-07 0 0)
(1.149708798e-07 0 0)
(1.171053543e-07 0 0)
(1.192284436e-07 0 0)
(1.213579408e-07 0 0)
(1.235090139e-07 0 0)
(1.256714623e-07 0 0)
(1.278247739e-07 0 0)
(1.299694689e-07 0 0)
(1.321195253e-07 0 0)
(1.342821325e-07 0 0)
(1.364551978e-07 0 0)
(1.386280886e-07 0 0)
(1.407915214e-07 0 0)
(1.429432015e-07 0 0)
(1.450776421e-07 0 0)
(1.471884891e-07 0 0)
(1.492843665e-07 0 0)
(1.513904573e-07 0 0)
(1.535217128e-07 0 0)
(1.55662264e-07 0 0)
(1.577920514e-07 0 0)
(1.599109645e-07 0 0)
(1.6202675e-07 0 0)
(1.641517474e-07 0 0)
(1.662932498e-07 0 0)
(1.684336293e-07 0 0)
(1.705566891e-07 0 0)
(1.726748231e-07 0 0)
(1.747979733e-07 0 0)
(1.769135804e-07 0 0)
(1.790107238e-07 0 0)
(1.810903777e-07 0 0)
(1.831574666e-07 0 0)
(1.852168955e-07 0 0)
(1.872747653e-07 0 0)
(1.89339439e-07 0 0)
(1.914123468e-07 0 0)
(1.934868014e-07 0 0)
(1.955590066e-07 0 0)
(1.976308538e-07 0 0)
(1.997054493e-07 0 0)
(2.017850535e-07 0 0)
(2.038696571e-07 0 0)
(2.059501885e-07 0 0)
(2.080141806e-07 0 0)
(2.100629023e-07 0 0)
(2.121051559e-07 0 0)
(2.141422714e-07 0 0)
(2.161735624e-07 0 0)
(2.18201526e-07 0 0)
(2.202279865e-07 0 0)
(2.222557412e-07 0 0)
(2.242883365e-07 0 0)
(2.263225123e-07 0 0)
(2.283504007e-07 0 0)
(2.303702987e-07 0 0)
(2.323849556e-07 0 0)
(2.343943707e-07 0 0)
(2.363976745e-07 0 0)
(2.383940593e-07 0 0)
(2.403832406e-07 0 0)
(2.423717315e-07 0 0)
(2.44365359e-07 0 0)
(2.463577826e-07 0 0)
(2.483440628e-07 0 0)
(2.503290379e-07 0 0)
(2.523133931e-07 0 0)
(2.54289274e-07 0 0)
(2.562507211e-07 0 0)
(2.581984747e-07 0 0)
(2.601347392e-07 0 0)
(2.620620829e-07 0 0)
(2.639844988e-07 0 0)
(2.659045656e-07 0 0)
(2.678197365e-07 0 0)
(2.69724723e-07 0 0)
(2.71627464e-07 0 0)
(2.735456094e-07 0 0)
(2.754805948e-07 0 0)
(2.774133797e-07 0 0)
(2.793245688e-07 0 0)
(2.812151096e-07 0 0)
(2.830967905e-07 0 0)
(2.849729233e-07 0 0)
(2.868473092e-07 0 0)
(2.887292706e-07 0 0)
(2.906242586e-07 0 0)
(2.925221434e-07 0 0)
(2.944003765e-07 0 0)
(2.962580871e-07 0 0)
(2.981170788e-07 0 0)
(2.999803531e-07 0 0)
(3.01828818e-07 0 0)
(3.036574172e-07 0 0)
(3.054899543e-07 0 0)
(3.073442063e-07 0 0)
(3.092007528e-07 0 0)
(3.110379838e-07 0 0)
(3.128658565e-07 0 0)
(3.147018649e-07 0 0)
(3.165488274e-07 0 0)
(3.183911358e-07 0 0)
(3.202071744e-07 0 0)
(3.219998125e-07 0 0)
(3.237926931e-07 0 0)
(3.256014042e-07 0 0)
(3.274246157e-07 0 0)
(3.292507299e-07 0 0)
(3.310721683e-07 0 0)
(3.328886821e-07 0 0)
(3.346955526e-07 0 0)
(3.364846064e-07 0 0)
(3.38258115e-07 0 0)
(3.400312349e-07 0 0)
(3.41813367e-07 0 0)
(3.435929642e-07 0 0)
(3.453536285e-07 0 0)
(3.470945498e-07 0 0)
(3.488219081e-07 0 0)
(3.505350107e-07 0 0)
(3.522354603e-07 0 0)
(3.539354286e-07 0 0)
(3.556411486e-07 0 0)
(3.573450726e-07 0 0)
(3.590395225e-07 0 0)
(3.607216443e-07 0 0)
(3.62398477e-07 0 0)
(3.64088574e-07 0 0)
(3.657944959e-07 0 0)
(3.674972947e-07 0 0)
(3.691903031e-07 0 0)
(3.708803649e-07 0 0)
(3.725704331e-07 0 0)
(3.742605297e-07 0 0)
(3.759406732e-07 0 0)
(3.776014954e-07 0 0)
(3.792563364e-07 0 0)
(3.809202029e-07 0 0)
(3.825892818e-07 0 0)
(3.842540439e-07 0 0)
(3.859081669e-07 0 0)
(3.875514495e-07 0 0)
(3.891889891e-07 0 0)
(3.908223054e-07 0 0)
(3.924497245e-07 0 0)
(3.940712118e-07 0 0)
(3.956868256e-07 0 0)
(3.972961772e-07 0 0)
(3.988997222e-07 0 0)
(4.004984059e-07 0 0)
(4.020928047e-07 0 0)
(4.036829646e-07 0 0)
(4.052688288e-07 0 0)
(4.06851062e-07 0 0)
(4.084319694e-07 0 0)
(4.100158346e-07 0 0)
(4.116088602e-07 0 0)
(4.132202115e-07 0 0)
(4.148650037e-07 0 0)
(4.165691813e-07 0 0)
(4.183763993e-07 0 0)
(4.2035808e-07 0 0)
(4.226293936e-07 0 0)
(4.253751628e-07 0 0)
(4.288911967e-07 0 0)
(4.336489018e-07 0 0)
(4.403943407e-07 0 0)
(4.502992626e-07 0 0)
(4.651904679e-07 0 0)
(4.878959717e-07 0 0)
(5.227631431e-07 0 0)
(5.764272464e-07 0 0)
(6.589403653e-07 0 0)
(7.854139724e-07 0 0)
(9.783869809e-07 0 0)
(1.271207865e-06 0 0)
(1.712816319e-06 0 0)
(2.374429939e-06 0 0)
(3.358789229e-06 0 0)
(4.812790234e-06 0 0)
(6.944532841e-06 0 0)
(1.004602556e-05 0 0)
(1.452299758e-05 0 0)
(2.093344916e-05 0 0)
(3.003668169e-05 0 0)
(4.285453291e-05 0 0)
(6.074633318e-05 0 0)
(8.549860704e-05 0 0)
(0.00011942968 0 0)
(0.0001655080297 0 0)
(0.0002274813885 0 0)
(0.0003100112507 0 0)
(0.0004188046584 0 0)
(0.0005607321175 0 0)
(0.0007439176074 0 0)
(0.0009777843758 0 0)
(0.001273039193 0 0)
(0.00164157864 0 0)
(0.002096304387 0 0)
(0.002650840638 0 0)
(0.003319155778 0 0)
(0.004115101119 0 0)
(0.005051891165 0 0)
(0.006141560155 0 0)
(0.007394437103 0 0)
(0.008818683909 0 0)
(0.01041993775 0 0)
(0.01220108992 0 0)
(0.01416221963 0 0)
(0.01630068451 0 0)
(0.01861135407 0 0)
(0.02108695808 0 0)
(0.02371851332 0 0)
(0.02649578849 0 0)
(0.02940776895 0 0)
(0.03244308879 0 0)
(0.03559040692 0 0)
(0.03883871291 0 0)
(0.04217755793 0 0)
(0.0455972132 0 0)
(0.04908876375 0 0)
(0.05264414862 0 0)
(0.05625615936 0 0)
(0.05991840895 0 0)
(0.06362528167 0 0)
(0.0673718731 0 0)
(0.07115392995 0 0)
(0.0749678562 0 0)
(0.07881002495 0 0)
(0.08267717508 0 0)
(0.0865671986 0 0)
(0.09047858709 0 0)
(0.09441016665 0 0)
(0.09836034207 0 0)
(0.1023266568 0 0)
(0.1063063764 0 0)
(0.1102976185 0 0)
(0.1142993786 0 0)
(0.1183107724 0 0)
(0.1223310257 0 0)
(0.1263594353 0 0)
(0.1303953691 0 0)
(0.1344382561 0 0)
(0.1384875784 0 0)
(0.1425428654 0 0)
(0.1466036895 0 0)
(0.1506696626 0 0)
(0.1547404331 0 0)
(0.1588156846 0 0)
(0.1628951342 0 0)
(0.1669785297 0 0)
(0.1710656465 0 0)
(0.1751562804 0 0)
(0.1792502364 0 0)
(0.1833473089 0 0)
(0.1874472767 0 0)
(0.1915499355 0 0)
(0.1956551226 0 0)
(0.1997626993 0 0)
(0.2038725342 0 0)
(0.2079845048 0 0)
(0.2120984979 0 0)
(0.2162144083 0 0)
(0.2203321379 0 0)
(0.2244515954 0 0)
(0.2285726957 0 0)
(0.2326953592 0 0)
(0.2368195117 0 0)
(0.2409450839 0 0)
(0.2450720108 0 0)
(0.2492002317 0 0)
(0.2533296896 0 0)
(0.2574603313 0 0)
(0.2615921066 0 0)
(0.2657249685 0 0)
(0.269858873 0 0)
(0.2739937785 0 0)
(0.2781296462 0 0)
(0.2822664394 0 0)
(0.2864041237 0 0)
(0.2905426668 0 0)
(0.2946820381 0 0)
(0.2988222091 0 0)
(0.3029631526 0 0)
(0.3071048434 0 0)
(0.3112472576 0 0)
(0.3153903728 0 0)
(0.3195341679 0 0)
(0.3236786232 0 0)
(0.3278237203 0 0)
(0.3319694417 0 0)
(0.3361157712 0 0)
(0.3402626938 0 0)
(0.3444101953 0 0)
(0.3485582627 0 0)
(0.3527068837 0 0)
(0.3568560474 0 0)
(0.3610057434 0 0)
(0.3651559622 0 0)
(0.3693066955 0 0)
(0.3734579354 0 0)
(0.377609675 0 0)
(0.3817619082 0 0)
(0.3859146296 0 0)
(0.3900678344 0 0)
(0.3942215188 0 0)
(0.3983756793 0 0)
(0.4025303133 0 0)
(0.4066854186 0 0)
(0.4108409938 0 0)
(0.4149970379 0 0)
(0.4191535504 0 0)
(0.4233105312 0 0)
(0.4274679807 0 0)
(0.4316258996 0 0)
(0.435784289 0 0)
(0.4399431503 0 0)
(0.4441024851 0 0)
(0.4482622952 0 0)
(0.4524225824 0 0)
(0.4565833489 0 0)
(0.4607445968 0 0)
(0.4649063282 0 0)
(0.4690685451 0 0)
(0.4732312497 0 0)
(0.4773944437 0 0)
(0.481558129 0 0)
(0.485722307 0 0)
(0.489886979 0 0)
(0.494052146 0 0)
(0.4982178085 0 0)
(0.502383967 0 0)
(0.5065506213 0 0)
(0.5107177712 0 0)
(0.5148854161 0 0)
(0.5190535547 0 0)
(0.5232221859 0 0)
(0.5273913077 0 0)
(0.5315609182 0 0)
(0.5357310149 0 0)
(0.5399015949 0 0)
(0.544072655 0 0)
(0.5482441902 0 0)
(0.552416193 0 0)
(0.5565886519 0 0)
(0.5607615497 0 0)
(0.5649348629 0 0)
(0.5691085608 0 0)
(0.573282606 0 0)
(0.5774569558 0 0)
(0.5816315623 0 0)
(0.585806373 0 0)
(0.5899813287 0 0)
(0.5941563583 0 0)
(0.5983313793 0 0)
(0.6025063322 0 0)
(0.6066811919 0 0)
(0.6108559381 0 0)
(0.6150305485 0 0)
(0.6192049894 0 0)
(0.6233792513 0 0)
(0.6275533124 0 0)
(0.6317270615 0 0)
(0.6359004731 0 0)
(0.6400735568 0 0)
(0.6442460826 0 0)
(0.6484180267 0 0)
(0.652589606 0 0)
(0.6567604811 0 0)
(0.6609304518 0 0)
(0.6650999792 0 0)
(0.6692687888 0 0)
(0.6734362508 0 0)
(0.6776028674 0 0)
(0.6817688894 0 0)
(0.6859333696 0 0)
(0.6900962542 0 0)
(0.6942585186 0 0)
(0.6984197004 0 0)
(0.7025787815 0 0)
(0.7067365588 0 0)
(0.7108936444 0 0)
(0.7150487808 0 0)
(0.7192014262 0 0)
(0.7233528904 0 0)
(0.7275032166 0 0)
(0.7316504571 0 0)
(0.7357945016 0 0)
(0.7399372787 0 0)
(0.744078379 0 0)
(0.7482153836 0 0)
(0.7523487557 0 0)
(0.7564806945 0 0)
(0.7606102185 0 0)
(0.7647345608 0 0)
(0.7688546441 0 0)
(0.7729729367 0 0)
(0.7770880268 0 0)
(0.7811969448 0 0)
(0.7853010618 0 0)
(0.789402897 0 0)
(0.7935010602 0 0)
(0.7975928362 0 0)
(0.8016791683 0 0)
(0.8057625739 0 0)
(0.8098421052 0 0)
(0.8139151123 0 0)
(0.8179832109 0 0)
(0.8220466625 0 0)
(0.8261028132 0 0)
(0.8301562097 0 0)
(0.8342043371 0 0)
(0.8382417594 0 0)
(0.8422749102 0 0)
(0.8463050884 0 0)
(0.8503252333 0 0)
(0.8543348506 0 0)
(0.8583388629 0 0)
(0.8623336276 0 0)
(0.8663151676 0 0)
(0.8702851167 0 0)
(0.8742410712 0 0)
(0.8781803778 0 0)
(0.8821009402 0 0)
(0.8859973981 0 0)
(0.8898617762 0 0)
(0.8936840456 0 0)
(0.8974514236 0 0)
(0.9011471137 0 0)
(0.9047491738 0 0)
(0.9082295526 0 0)
(0.9115531932 0 0)
(0.914677812 0 0)
(0.9175550292 0 0)
(0.9201339495 0 0)
(0.9223675062 0 0)
(0.9242210246 0 0)
(0.925681261 0 0)
(0.9267624673 0 0)
(0.9275065556 0 0)
(0.9279760612 0 0)
(0.9282422422 0 0)
(0.9283728282 0 0)
(0.9284238121 0 0)
(0.9284367125 0 0)
(0.9284295748 0 0)
(0.9283946992 0 0)
(0.9283187075 0 0)
(0.9282238236 0 0)
(0.9281484392 0 0)
(0.928094191 0 0)
(0.9280484353 0 0)
(0.9280081327 0 0)
(0.9279732262 0 0)
(0.92794384 0 0)
(0.9279196043 0 0)
(0.9278996797 0 0)
(0.9278829858 0 0)
(0.9278684854 0 0)
(0.9278554397 0 0)
(0.9278435611 0 0)
(0.927832988 0 0)
(0.9278240835 0 0)
(0.9278171487 0 0)
(0.9278122168 0 0)
(0.9278090196 0 0)
(0.9278070839 0 0)
(0.9278058656 0 0)
(0.927804901 0 0)
(0.927803739 0 0)
(0.927801502 0 0)
(0.9277971486 0 0)
(0.9277930126 0 0)
(0.927791285 0 0)
(0.9277906842 0 0)
(0.9277905007 0 0)
(0.9277899489 0 0)
(0.9277874958 0 0)
(0.9277850542 0 0)
(0.9277847361 0 0)
(0.9277848911 0 0)
(0.9277846137 0 0)
(0.9277840644 0 0)
(0.9277834609 0 0)
(0.9277837699 0 0)
(0.9277842232 0 0)
(0.9277840086 0 0)
(0.927784253 0 0)
(0.9277846436 0 0)
(0.9277847028 0 0)
(0.9277848295 0 0)
(0.9277850742 0 0)
(0.9277853209 0 0)
(0.9277854918 0 0)
(0.9277856981 0 0)
(0.9277860298 0 0)
(0.9277863971 0 0)
(0.9277867711 0 0)
(0.927787192 0 0)
(0.9277876528 0 0)
(0.9277881481 0 0)
(0.9277887163 0 0)
(0.9277894044 0 0)
(0.9277901694 0 0)
(0.9277909575 0 0)
(0.9277917146 0 0)
(0.9277923971 0 0)
(0.9277930249 0 0)
(0.9277936058 0 0)
(0.9277941822 0 0)
(0.9277948129 0 0)
(0.927795457 0 0)
(0.9277960171 0 0)
(0.9277964982 0 0)
(0.9277969501 0 0)
(0.9277974225 0 0)
(0.9277979361 0 0)
(0.9277984294 0 0)
(0.9277988663 0 0)
(0.9277992671 0 0)
(0.9277996825 0 0)
(0.9278001472 0 0)
(0.9278006158 0 0)
(0.9278010208 0 0)
(0.9278013629 0 0)
(0.9278016917 0 0)
(0.9278020418 0 0)
(0.9278023747 0 0)
(0.9278026491 0 0)
(0.9278029059 0 0)
(0.9278031995 0 0)
(0.9278034785 0 0)
(0.9278036976 0 0)
(0.9278039234 0 0)
(0.9278041464 0 0)
(0.9278043363 0 0)
(0.9278044935 0 0)
(0.9278046092 0 0)
(0.92780472 0 0)
(0.9278048702 0 0)
(0.9278050096 0 0)
(0.9278050783 0 0)
(0.9278051496 0 0)
(0.927805261 0 0)
(0.9278053402 0 0)
(0.9278053954 0 0)
(0.9278054474 0 0)
(0.9278054993 0 0)
(0.927805557 0 0)
(0.9278056069 0 0)
(0.9278056457 0 0)
(0.9278056825 0 0)
(0.9278057008 0 0)
(0.9278057269 0 0)
(0.9278057404 0 0)
(0.9278057556 0 0)
(0.927805762 0 0)
(0.927805764 0 0)
(0.9278057649 0 0)
(0.9278057575 0 0)
(0.9278057515 0 0)
(0.9278057388 0 0)
(0.9278057255 0 0)
(0.9278057108 0 0)
(0.927805692 0 0)
(0.9278056741 0 0)
(0.9278056513 0 0)
(0.9278056364 0 0)
(0.92780562 0 0)
(0.9278055704 0 0)
(0.9278055021 0 0)
(0.9278054988 0 0)
(0.9278055131 0 0)
(0.9278054546 0 0)
(0.9278053668 0 0)
(0.9278053467 0 0)
(0.9278053485 0 0)
(0.9278052991 0 0)
(0.927805234 0 0)
(0.9278052037 0 0)
(0.9278051851 0 0)
(0.927805162 0 0)
(0.9278051384 0 0)
(0.9278051245 0 0)
(0.927805106 0 0)
(0.9278050943 0 0)
(0.9278050703 0 0)
(0.9278050578 0 0)
(0.9278050256 0 0)
(0.9278050127 0 0)
(0.9278049735 0 0)
(0.9278049569 0 0)
(0.9278049095 0 0)
(0.9278048888 0 0)
(0.9278048339 0 0)
(0.927804815 0 0)
(0.92780474 0 0)
(0.9278047195 0 0)
(0.9278045607 0 0)
(0.9278045413 0 0)
(0.9278041648 0 0)
(0.9278041748 0 0)
(0.9278032993 0 0)
(0.9278034166 0 0)
(0.9278014624 0 0)
(0.9278019244 0 0)
(0.927797802 0 0)
(0.9277991462 0 0)
(0.9277908767 0 0)
(0.9277942034 0 0)
(0.927778506 0 0)
(0.9277859233 0 0)
(0.9277579333 0 0)
(0.9277730822 0 0)
(0.9277264973 0 0)
(0.9277550728 0 0)
(0.9276834569 0 0)
(0.9277333109 0 0)
(0.9276332511 0 0)
(0.9277133066 0 0)
(0.9275896913 0 0)
(0.9277068693 0 0)
(0.9275791782 0 0)
(0.9277328781 0 0)
(0.9276386986 0 0)
(0.9278141157 0 0)
(0.9278043327 0 0)
(0.9279684952 0 0)
(0.9280894949 0 0)
(0.9281981223 0 0)
(0.9284678308 0 0)
(0.9284508022 0 0)
(0.9288895276 0 0)
(0.9286025413 0 0)
(0.9286772399 0 0)
(0.9282981316 0 0)
(0.9282499456 0 0)
(0.9282452937 0 0)
(0.9282273247 0 0)
(0.928193746 0 0)
(0.9281492823 0 0)
(0.9281016369 0 0)
(0.9280552149 0 0)
(0.9280127169 0 0)
(0.9279755306 0 0)
(0.9279441146 0 0)
(0.9279183276 0 0)
(0.9278976768 0 0)
(0.9278814929 0 0)
(0.9278690557 0 0)
(0.9278596629 0 0)
(0.9278526755 0 0)
(0.9278475528 0 0)
(0.9278438538 0 0)
(0.9278412286 0 0)
(0.927839404 0 0)
(0.9278381685 0 0)
(0.9278373608 0 0)
(0.92783686 0 0)
(0.9278365711 0 0)
(0.9278364136 0 0)
(0.9278363251 0 0)
(0.927836276 0 0)
(0.9278362544 0 0)
(0.9278362645 0 0)
(0.9278363329 0 0)
(0.9278363747 0 0)
(0.9278364415 0 0)
(0.9278365753 0 0)
(0.9278366516 0 0)
(0.9278367177 0 0)
(0.927836798 0 0)
(0.9278368388 0 0)
(0.9278368971 0 0)
(0.9278369495 0 0)
(0.9278369577 0 0)
(0.9278369758 0 0)
(0.9278370023 0 0)
(0.9278370398 0 0)
(0.9278370889 0 0)
(0.9278371498 0 0)
(0.9278372229 0 0)
(0.9278373094 0 0)
(0.9278374089 0 0)
(0.9278375185 0 0)
(0.927837631 0 0)
(0.9278377404 0 0)
(0.927837847 0 0)
(0.9278379544 0 0)
(0.9278380659 0 0)
(0.9278381721 0 0)
(0.9278382557 0 0)
(0.9278383127 0 0)
(0.9278383546 0 0)
(0.927838399 0 0)
(0.9278384644 0 0)
(0.9278385662 0 0)
(0.9278386978 0 0)
(0.9278388224 0 0)
(0.9278389054 0 0)
(0.9278389438 0 0)
(0.9278389649 0 0)
(0.9278389925 0 0)
(0.9278390375 0 0)
(0.927839129 0 0)
(0.9278392273 0 0)
(0.9278392728 0 0)
(0.9278392875 0 0)
(0.9278393039 0 0)
(0.927839362 0 0)
(0.927839444 0 0)
(0.9278395037 0 0)
(0.9278395323 0 0)
(0.927839538 0 0)
(0.927839548 0 0)
(0.9278396041 0 0)
(0.9278396938 0 0)
(0.9278397716 0 0)
(0.9278398405 0 0)
(0.927839917 0 0)
(0.9278400395 0 0)
(0.9278402148 0 0)
(0.9278403944 0 0)
(0.927840541 0 0)
(0.9278406287 0 0)
(0.9278406641 0 0)
(0.9278407003 0 0)
(0.9278408023 0 0)
(0.9278409694 0 0)
(0.9278411355 0 0)
(0.9278412657 0 0)
(0.9278413026 0 0)
(0.9278413009 0 0)
(0.9278413559 0 0)
(0.9278414545 0 0)
(0.9278415977 0 0)
(0.9278417745 0 0)
(0.9278419187 0 0)
(0.9278419476 0 0)
(0.9278419373 0 0)
(0.927841977 0 0)
(0.9278420765 0 0)
(0.9278422253 0 0)
(0.9278423612 0 0)
(0.9278423998 0 0)
(0.9278423817 0 0)
(0.9278424194 0 0)
(0.9278425165 0 0)
(0.9278426464 0 0)
(0.9278427609 0 0)
(0.9278427674 0 0)
(0.9278427176 0 0)
(0.9278427227 0 0)
(0.9278427765 0 0)
(0.9278428891 0 0)
(0.9278429972 0 0)
(0.9278430558 0 0)
(0.9278431492 0 0)
(0.9278433403 0 0)
(0.9278436346 0 0)
(0.92784389 0 0)
(0.9278439815 0 0)
(0.9278438812 0 0)
(0.9278437285 0 0)
(0.9278437119 0 0)
(0.9278437873 0 0)
(0.9278439657 0 0)
(0.9278442309 0 0)
(0.9278444175 0 0)
(0.9278444606 0 0)
(0.9278443252 0 0)
(0.9278440268 0 0)
(0.9278438649 0 0)
(0.9278441511 0 0)
(0.9278447034 0 0)
(0.9278449642 0 0)
(0.927844542 0 0)
(0.9278438078 0 0)
(0.9278435339 0 0)
(0.9278441441 0 0)
(0.9278448448 0 0)
(0.9278447984 0 0)
(0.9278440331 0 0)
(0.9278429301 0 0)
(0.9278420904 0 0)
(0.9278409594 0 0)
(0.9278377267 0 0)
(0.9278264936 0 0)
(0.9277982806 0 0)
(0.9277290734 0 0)
(0.9275530788 0 0)
(0.9271110737 0 0)
(0.9259858265 0 0)
(0.9231403219 0 0)
(0.9159345103 0 0)
(0.8976820348 0 0)
(0.8515547637 0 0)
(0.7343127379 0 0)
(0.4783638459 0 0)
(0.2002566476 0 0)
(0.05777142212 0 0)
(0.01313115751 0 0)
(0.002794696433 0 0)
(0.0005857315168 0 0)
(0.0001222637264 0 0)
(2.542115557e-05 0 0)
(5.204774283e-06 0 0)
(9.857053486e-07 0 0)
(1.055411173e-07 0 0)
(-7.777900501e-08 0 0)
(-1.156614399e-07 0 0)
(-1.23182908e-07 0 0)
(-1.243599291e-07 0 0)
(-1.242061638e-07 0 0)
(-1.23769304e-07 0 0)
(-1.232682917e-07 0 0)
(-1.22748048e-07 0 0)
(-1.222164091e-07 0 0)
(-1.216740147e-07 0 0)
(-1.211214813e-07 0 0)
(-1.205594015e-07 0 0)
(-1.199892595e-07 0 0)
(-1.194144994e-07 0 0)
(-1.188362098e-07 0 0)
(-1.182510729e-07 0 0)
(-1.176565817e-07 0 0)
(-1.170536014e-07 0 0)
(-1.164425211e-07 0 0)
(-1.158209004e-07 0 0)
(-1.151868853e-07 0 0)
(-1.145420821e-07 0 0)
(-1.138913765e-07 0 0)
(-1.132397962e-07 0 0)
(-1.125869903e-07 0 0)
(-1.119277106e-07 0 0)
(-1.112576443e-07 0 0)
(-1.105762131e-07 0 0)
(-1.09886137e-07 0 0)
(-1.09191789e-07 0 0)
(-1.084961878e-07 0 0)
(-1.077960382e-07 0 0)
(-1.070826883e-07 0 0)
(-1.063523256e-07 0 0)
(-1.056116759e-07 0 0)
(-1.04869391e-07 0 0)
(-1.041242548e-07 0 0)
(-1.033675456e-07 0 0)
(-1.025956951e-07 0 0)
(-1.018148107e-07 0 0)
(-1.010336429e-07 0 0)
(-1.002542065e-07 0 0)
(-9.947001684e-08 0 0)
(-9.867287823e-08 0 0)
(-9.786025397e-08 0 0)
(-9.703774603e-08 0 0)
(-9.62146038e-08 0 0)
(-9.539712586e-08 0 0)
(-9.458518699e-08 0 0)
(-9.377117382e-08 0 0)
(-9.294470041e-08 0 0)
(-9.210140605e-08 0 0)
(-9.124573952e-08 0 0)
(-9.038371068e-08 0 0)
(-8.951515747e-08 0 0)
(-8.863595699e-08 0 0)
(-8.774616846e-08 0 0)
(-8.6850497e-08 0 0)
(-8.595089781e-08 0 0)
(-8.504449591e-08 0 0)
(-8.41272082e-08 0 0)
(-8.319704992e-08 0 0)
(-8.225671287e-08 0 0)
(-8.131167619e-08 0 0)
(-8.036821584e-08 0 0)
(-7.94330529e-08 0 0)
(-7.850471065e-08 0 0)
(-7.757153191e-08 0 0)
(-7.662693156e-08 0 0)
(-7.567162637e-08 0 0)
(-7.470311838e-08 0 0)
(-7.37215692e-08 0 0)
(-7.273662389e-08 0 0)
(-7.175336254e-08 0 0)
(-7.076424429e-08 0 0)
(-6.976420722e-08 0 0)
(-6.875821053e-08 0 0)
(-6.774913456e-08 0 0)
(-6.673159312e-08 0 0)
(-6.57022309e-08 0 0)
(-6.466438769e-08 0 0)
(-6.361980263e-08 0 0)
(-6.257058296e-08 0 0)
(-6.152280261e-08 0 0)
(-6.047920499e-08 0 0)
(-5.943797763e-08 0 0)
(-5.839357155e-08 0 0)
(-5.733856439e-08 0 0)
(-5.627121652e-08 0 0)
(-5.519617746e-08 0 0)
(-5.412101105e-08 0 0)
(-5.30499724e-08 0 0)
(-5.197953633e-08 0 0)
(-5.090320023e-08 0 0)
(-4.981686928e-08 0 0)
(-4.872279545e-08 0 0)
(-4.762564325e-08 0 0)
(-4.652464551e-08 0 0)
(-4.541724834e-08 0 0)
(-4.430459516e-08 0 0)
(-4.319017143e-08 0 0)
(-4.207635798e-08 0 0)
(-4.096191883e-08 0 0)
(-3.98429824e-08 0 0)
(-3.871738113e-08 0 0)
(-3.758695481e-08 0 0)
(-3.645448353e-08 0 0)
(-3.532031989e-08 0 0)
(-3.4183021e-08 0 0)
(-3.304197574e-08 0 0)
(-3.189675992e-08 0 0)
(-3.074342173e-08 0 0)
(-2.958124567e-08 0 0)
(-2.84167463e-08 0 0)
(-2.72498132e-08 0 0)
(-2.607652088e-08 0 0)
(-2.490317049e-08 0 0)
(-2.373535036e-08 0 0)
(-2.256721758e-08 0 0)
(-2.139096574e-08 0 0)
(-2.020707455e-08 0 0)
(-1.902294194e-08 0 0)
(-1.784336855e-08 0 0)
(-1.666751509e-08 0 0)
(-1.549361435e-08 0 0)
(-1.431965933e-08 0 0)
(-1.314116587e-08 0 0)
(-1.195263202e-08 0 0)
(-1.075216127e-08 0 0)
(-9.543344058e-09 0 0)
(-8.333464985e-09 0 0)
(-7.129977431e-09 0 0)
(-5.934955721e-09 0 0)
(-4.745078749e-09 0 0)
(-3.557935479e-09 0 0)
(-2.373256975e-09 0 0)
(-1.188304589e-09 0 0)
(-2.976136418e-10 0 0)
)
;

boundaryField
{
    sides
    {
        type            extrapolatedCalculated;
        value           nonuniform List<vector> 2((-2.976136418e-10 0 0) (5.489987431e-10 0 0));
    }
    empty
    {
        type            empty;
    }
}


// ************************************************************************* //
