/*--------------------------------*- C++ -*----------------------------------*\
| =========                 |                                                 |
| \\      /  F ield         | OpenFOAM: The Open Source CFD Toolbox           |
|  \\    /   O peration     | Version:  2012                                  |
|   \\  /    A nd           | Website:  www.openfoam.com                      |
|    \\/     M anipulation  |                                                 |
\*---------------------------------------------------------------------------*/
FoamFile
{
    version     2.0;
    format      ascii;
    class       volVectorField;
    location    "0.25";
    object      U;
}
// * * * * * * * * * * * * * * * * * * * * * * * * * * * * * * * * * * * * * //

dimensions      [0 1 -1 0 0 0 0];


internalField   nonuniform List<vector> 
2268
(
(0.0242234 -0.0116811 0)
(0.0741928 -0.0116247 0)
(0.122156 -0.0116625 0)
(0.172396 -0.0118472 0)
(0.221742 -0.0116117 0)
(0.269878 -0.0117106 0)
(0.319739 -0.0117141 0)
(0.367805 -0.0117459 0)
(0.417377 -0.0113195 0)
(0.461658 -0.0112807 0)
(0.509843 -0.0103791 0)
(0.545932 -0.0101303 0)
(0.591064 -0.00976461 0)
(0.622558 -0.00741922 0)
(0.641605 -0.0056287 0)
(0.661407 -0.0042506 0)
(0.659622 -0.00145348 0)
(0.641748 -9.53368e-05 0)
(0.601561 0.00295725 0)
(0.531505 0.00337552 0)
(0.424095 0.00847222 0)
(0.285597 0.0148888 0)
(0.0942322 0.0456254 0)
(0.0241237 -0.0348269 0)
(0.0741986 -0.0346611 0)
(0.122196 -0.0347365 0)
(0.172367 -0.0352305 0)
(0.221754 -0.0344376 0)
(0.269949 -0.0346192 0)
(0.319791 -0.0345478 0)
(0.367939 -0.0344096 0)
(0.417604 -0.0330244 0)
(0.462157 -0.0324151 0)
(0.510133 -0.0294694 0)
(0.546734 -0.0281825 0)
(0.593374 -0.0265674 0)
(0.620988 -0.0162836 0)
(0.646368 -0.0129213 0)
(0.663045 -0.00401212 0)
(0.664184 0.0105281 0)
(0.645878 0.0278526 0)
(0.604712 0.0489424 0)
(0.532765 0.0808873 0)
(0.41865 0.107643 0)
(0.272664 0.141316 0)
(0.0797862 0.133725 0)
(0.0239827 -0.05815 0)
(0.0742559 -0.057982 0)
(0.122288 -0.0580506 0)
(0.172341 -0.0589172 0)
(0.221848 -0.0577142 0)
(0.27018 -0.0580648 0)
(0.320035 -0.0580117 0)
(0.368396 -0.0579911 0)
(0.418248 -0.0558429 0)
(0.463365 -0.0550165 0)
(0.511365 -0.050381 0)
(0.54937 -0.0494173 0)
(0.596593 -0.0450053 0)
(0.62357 -0.032322 0)
(0.654625 -0.0257208 0)
(0.670151 -0.0125647 0)
(0.675784 0.00638095 0)
(0.661257 0.0280775 0)
(0.62695 0.0559733 0)
(0.564646 0.0912215 0)
(0.464675 0.130753 0)
(0.323563 0.174709 0)
(0.11446 0.212263 0)
(0.0238545 -0.0812449 0)
(0.0742876 -0.0811178 0)
(0.122292 -0.0810733 0)
(0.172145 -0.0822891 0)
(0.221789 -0.0806505 0)
(0.270304 -0.0810314 0)
(0.320165 -0.0809403 0)
(0.36876 -0.0808283 0)
(0.418683 -0.0778865 0)
(0.464524 -0.0764084 0)
(0.512872 -0.0701175 0)
(0.552236 -0.0683753 0)
(0.599365 -0.0617137 0)
(0.626923 -0.043493 0)
(0.659502 -0.0350871 0)
(0.678879 -0.0136447 0)
(0.685041 0.0145991 0)
(0.671681 0.0515084 0)
(0.634269 0.094667 0)
(0.570069 0.158578 0)
(0.46391 0.222135 0)
(0.325573 0.308185 0)
(0.11193 0.340533 0)
(0.0237748 -0.10454 0)
(0.0743311 -0.104519 0)
(0.12234 -0.104299 0)
(0.172042 -0.105964 0)
(0.221846 -0.104098 0)
(0.270654 -0.104586 0)
(0.320641 -0.104537 0)
(0.369599 -0.104579 0)
(0.419719 -0.101106 0)
(0.466645 -0.0995532 0)
(0.515563 -0.0918757 0)
(0.557086 -0.0902751 0)
(0.604976 -0.0804622 0)
(0.634026 -0.0606572 0)
(0.672759 -0.0505336 0)
(0.691421 -0.0246018 0)
(0.705788 0.00937441 0)
(0.699884 0.0519073 0)
(0.675073 0.10323 0)
(0.6217 0.170888 0)
(0.529132 0.244743 0)
(0.391617 0.339018 0)
(0.158595 0.418579 0)
(0.0236888 -0.127593 0)
(0.0742404 -0.12769 0)
(0.12222 -0.127226 0)
(0.171769 -0.129314 0)
(0.221595 -0.127223 0)
(0.270681 -0.127721 0)
(0.320746 -0.12767 0)
(0.370015 -0.127644 0)
(0.420201 -0.12372 0)
(0.468272 -0.121677 0)
(0.517361 -0.112839 0)
(0.561117 -0.110534 0)
(0.60968 -0.0981117 0)
(0.640731 -0.075277 0)
(0.684887 -0.062332 0)
(0.702342 -0.0287741 0)
(0.718772 0.0105098 0)
(0.718424 0.0668536 0)
(0.69443 0.131946 0)
(0.642746 0.229486 0)
(0.542133 0.332482 0)
(0.409619 0.487355 0)
(0.145944 0.601987 0)
(0.0236729 -0.150838 0)
(0.0741749 -0.151108 0)
(0.122218 -0.1504 0)
(0.171709 -0.152961 0)
(0.221638 -0.150846 0)
(0.271047 -0.151482 0)
(0.32134 -0.151488 0)
(0.371056 -0.151622 0)
(0.421627 -0.147556 0)
(0.471061 -0.145516 0)
(0.520773 -0.135801 0)
(0.567469 -0.133932 0)
(0.617304 -0.118243 0)
(0.65138 -0.0961852 0)
(0.702362 -0.0799176 0)
(0.720014 -0.0406804 0)
(0.750025 0.00135306 0)
(0.754232 0.0630549 0)
(0.750761 0.137997 0)
(0.713298 0.241175 0)
(0.635216 0.352062 0)
(0.518888 0.520708 0)
(0.236049 0.677219 0)
(0.0237024 -0.173809 0)
(0.0738886 -0.174242 0)
(0.121991 -0.173286 0)
(0.171381 -0.176286 0)
(0.221246 -0.174131 0)
(0.270861 -0.174826 0)
(0.321232 -0.174895 0)
(0.37135 -0.175018 0)
(0.422141 -0.170943 0)
(0.472819 -0.168492 0)
(0.522937 -0.15836 0)
(0.572408 -0.156049 0)
(0.622078 -0.137753 0)
(0.660621 -0.115196 0)
(0.715772 -0.0948769 0)
(0.735921 -0.0507117 0)
(0.773581 -0.00582172 0)
(0.781911 0.0675717 0)
(0.780611 0.151626 0)
(0.757787 0.28693 0)
(0.673472 0.426956 0)
(0.565953 0.6845 0)
(0.255944 0.966479 0)
(0.0151144 0.0185362 0)
(-0.161566 -0.0274936 0)
(-0.181028 -0.0468173 0)
(-0.255345 -0.0545722 0)
(-0.245075 -0.0262927 0)
(-0.23835 -0.0304358 0)
(-0.222907 -0.0154296 0)
(-0.1773 -0.0179315 0)
(-0.160957 -0.0124427 0)
(-0.102468 -0.0138533 0)
(-0.0893193 -0.010979 0)
(-0.0385098 -0.0107701 0)
(-0.0315661 -0.00867217 0)
(0.00193153 -0.0075634 0)
(0.000715567 -0.00613039 0)
(0.0167545 -0.0051431 0)
(0.00810802 -0.00403593 0)
(0.0125207 -0.00308234 0)
(-0.00021364 -0.00262422 0)
(-0.00944533 0.0439635 0)
(-0.180686 0.108294 0)
(-0.199626 0.0879343 0)
(-0.257427 0.0801863 0)
(-0.243753 0.0198657 0)
(-0.237174 0.020268 0)
(-0.220002 -0.010568 0)
(-0.176834 -0.00837176 0)
(-0.159381 -0.0202119 0)
(-0.101997 -0.0160644 0)
(-0.0878596 -0.0174389 0)
(-0.03747 -0.0130929 0)
(-0.0300654 -0.00977187 0)
(0.00310967 -0.00557921 0)
(0.00183082 -0.00121826 0)
(0.0177461 0.00231714 0)
(0.00899402 0.00510952 0)
(0.0131355 0.00660038 0)
(-3.04454e-05 0.00748176 0)
(0.026402 0.100159 0)
(-0.176295 0.0538207 0)
(-0.199897 -0.0114818 0)
(-0.276364 -0.0392277 0)
(-0.262133 -0.0331876 0)
(-0.246419 -0.0425741 0)
(-0.234056 -0.0412308 0)
(-0.180985 -0.0440623 0)
(-0.165083 -0.045289 0)
(-0.102477 -0.0438042 0)
(-0.0885535 -0.0397122 0)
(-0.0361134 -0.0346491 0)
(-0.0285342 -0.0271731 0)
(0.00523895 -0.020517 0)
(0.00375932 -0.0133689 0)
(0.0193032 -0.0078414 0)
(0.00989847 -0.00277335 0)
(0.0135934 0.000770243 0)
(0.000166405 0.00260839 0)
(-0.0167813 0.10774 0)
(-0.204157 0.19855 0)
(-0.230354 0.131029 0)
(-0.273095 0.106786 0)
(-0.253471 0.00732645 0)
(-0.246136 0.00876078 0)
(-0.224974 -0.0381703 0)
(-0.179414 -0.037294 0)
(-0.158995 -0.0541696 0)
(-0.0994237 -0.047953 0)
(-0.0829305 -0.0467878 0)
(-0.0316716 -0.0378821 0)
(-0.0233669 -0.028605 0)
(0.00940922 -0.0187242 0)
(0.00753755 -0.00828014 0)
(0.02257 6.67637e-06 0)
(0.0126176 0.00677825 0)
(0.0154029 0.0106877 0)
(0.000699357 0.0129224 0)
(0.053453 0.19496 0)
(-0.20834 0.147901 0)
(-0.25915 0.0213553 0)
(-0.323815 -0.0356224 0)
(-0.293853 -0.0421433 0)
(-0.260232 -0.058085 0)
(-0.253121 -0.0700384 0)
(-0.186663 -0.0728731 0)
(-0.170344 -0.0806944 0)
(-0.101156 -0.0757876 0)
(-0.0848935 -0.0700081 0)
(-0.0296337 -0.0593023 0)
(-0.0207797 -0.0459531 0)
(0.0133002 -0.0330355 0)
(0.0111113 -0.0199785 0)
(0.0254344 -0.00962393 0)
(0.014441 -0.000402685 0)
(0.0163953 0.00588859 0)
(0.00112239 0.00914793 0)
(-0.0310622 0.174726 0)
(-0.256913 0.320992 0)
(-0.299674 0.181748 0)
(-0.30729 0.12419 0)
(-0.276447 -0.0194819 0)
(-0.268854 -0.00728711 0)
(-0.239528 -0.0684648 0)
(-0.18534 -0.0718438 0)
(-0.160398 -0.090566 0)
(-0.0949465 -0.0835004 0)
(-0.0740746 -0.0781139 0)
(-0.0209124 -0.0643031 0)
(-0.0112032 -0.0480655 0)
(0.0210401 -0.0316445 0)
(0.0180595 -0.0145427 0)
(0.0313663 -0.00110343 0)
(0.0190646 0.00983129 0)
(0.0194146 0.0162799 0)
(0.00197778 0.0199304 0)
(0.114466 0.317155 0)
(-0.269371 0.269526 0)
(-0.384192 0.0458942 0)
(-0.415206 -0.0561974 0)
(-0.352166 -0.0556107 0)
(-0.285124 -0.0780983 0)
(-0.283647 -0.106927 0)
(-0.19705 -0.107503 0)
(-0.178098 -0.121256 0)
(-0.0986213 -0.112225 0)
(-0.0767601 -0.10337 0)
(-0.0182089 -0.085424 0)
(-0.00715829 -0.0652626 0)
(0.0268161 -0.0448709 0)
(0.0232883 -0.0254217 0)
(0.0354396 -0.00965793 0)
(0.0219152 0.00401099 0)
(0.0210359 0.0132325 0)
(0.00265745 0.0179636 0)
(-0.0191369 0.244698 0)
(-0.343739 0.514746 0)
(-0.434761 0.248805 0)
(-0.365361 0.117263 0)
(-0.320578 -0.073733 0)
(-0.318337 -0.035297 0)
(-0.274385 -0.102975 0)
(-0.198307 -0.116103 0)
(-0.170673 -0.131417 0)
(-0.0896418 -0.125603 0)
(-0.0632243 -0.112792 0)
(-0.0049562 -0.0928443 0)
(0.00655305 -0.0682973 0)
(0.0386083 -0.0438291 0)
(0.0340467 -0.0192996 0)
(0.0445801 -0.000170074 0)
(0.0283742 0.015149 0)
(0.0252789 0.0243953 0)
(0.00380149 0.0295448 0)
(0.0238641 -0.210051 0)
(0.0735487 -0.210752 0)
(0.121949 -0.209577 0)
(0.171254 -0.213225 0)
(0.221223 -0.211255 0)
(0.271255 -0.212282 0)
(0.322132 -0.212572 0)
(0.373054 -0.21308 0)
(0.42499 -0.209382 0)
(0.477639 -0.207145 0)
(0.530049 -0.196745 0)
(0.583867 -0.194842 0)
(0.635503 -0.172657 0)
(0.68368 -0.154788 0)
(0.744664 -0.127594 0)
(0.771968 -0.0778371 0)
(0.838007 -0.0292782 0)
(0.845208 0.0546458 0)
(0.899657 0.146336 0)
(0.887736 0.291116 0)
(0.968995 0.44541 0)
(0.956319 0.720388 0)
(1.15031 1.09993 0)
(0.0239139 -0.258626 0)
(0.0726564 -0.259649 0)
(0.121105 -0.258369 0)
(0.170056 -0.262746 0)
(0.219927 -0.261218 0)
(0.270277 -0.262747 0)
(0.321649 -0.263599 0)
(0.373566 -0.264674 0)
(0.426686 -0.262185 0)
(0.481476 -0.260131 0)
(0.536408 -0.251261 0)
(0.594093 -0.247953 0)
(0.648806 -0.225483 0)
(0.710956 -0.210275 0)
(0.769345 -0.172121 0)
(0.822728 -0.133749 0)
(0.893859 -0.0718901 0)
(0.915592 0.0124467 0)
(0.981692 0.109715 0)
(0.974931 0.2209 0)
(1.04934 0.351787 0)
(1.03932 0.507691 0)
(1.24491 0.781909 0)
(0.0240091 -0.307174 0)
(0.0718363 -0.308511 0)
(0.120369 -0.307518 0)
(0.168934 -0.312633 0)
(0.218785 -0.312018 0)
(0.269321 -0.314604 0)
(0.321354 -0.316401 0)
(0.374196 -0.318727 0)
(0.429006 -0.317837 0)
(0.486404 -0.31752 0)
(0.545949 -0.309933 0)
(0.608078 -0.307986 0)
(0.671953 -0.290192 0)
(0.743285 -0.276188 0)
(0.811683 -0.240103 0)
(0.892414 -0.202882 0)
(0.959948 -0.123334 0)
(1.02383 -0.033047 0)
(1.1023 0.0850231 0)
(1.14724 0.223147 0)
(1.2434 0.375263 0)
(1.2884 0.519637 0)
(1.43816 0.757599 0)
(0.0238187 -0.35491 0)
(0.070291 -0.356456 0)
(0.118392 -0.355908 0)
(0.166191 -0.361626 0)
(0.215583 -0.362069 0)
(0.266094 -0.365813 0)
(0.318393 -0.368987 0)
(0.37232 -0.372869 0)
(0.428037 -0.374984 0)
(0.487324 -0.377677 0)
(0.549107 -0.373575 0)
(0.614694 -0.374494 0)
(0.684522 -0.361269 0)
(0.764504 -0.350537 0)
(0.851428 -0.321851 0)
(0.949249 -0.28265 0)
(1.03 -0.204428 0)
(1.1304 -0.130415 0)
(1.18488 -0.0154116 0)
(1.27072 0.0804005 0)
(1.30906 0.210821 0)
(1.36579 0.318488 0)
(1.44044 0.514131 0)
(0.0238399 -0.40184 0)
(0.0689869 -0.403655 0)
(0.117083 -0.403979 0)
(0.164108 -0.410415 0)
(0.213115 -0.412493 0)
(0.263299 -0.41803 0)
(0.315548 -0.423196 0)
(0.369575 -0.428978 0)
(0.426209 -0.433368 0)
(0.486738 -0.439233 0)
(0.554272 -0.437833 0)
(0.627353 -0.444265 0)
(0.706351 -0.440949 0)
(0.793988 -0.444508 0)
(0.888941 -0.426462 0)
(0.979795 -0.383458 0)
(1.05966 -0.306197 0)
(1.12274 -0.189909 0)
(1.19665 -0.0568146 0)
(1.27852 0.0967302 0)
(1.32538 0.27724 0)
(1.41998 0.383862 0)
(1.47819 0.54781 0)
(0.023771 -0.448149 0)
(0.0671076 -0.450117 0)
(0.114769 -0.451446 0)
(0.160626 -0.458075 0)
(0.208684 -0.461693 0)
(0.258517 -0.468699 0)
(0.310861 -0.475763 0)
(0.366262 -0.484106 0)
(0.424887 -0.49284 0)
(0.487021 -0.506559 0)
(0.552515 -0.515285 0)
(0.622196 -0.527524 0)
(0.69339 -0.528932 0)
(0.76526 -0.534244 0)
(0.845008 -0.508323 0)
(0.872321 -0.450245 0)
(0.940445 -0.342651 0)
(1.20011 -0.262079 0)
(1.39021 -0.163046 0)
(1.64036 -0.029504 0)
(1.45477 0.0852404 0)
(1.42762 0.177543 0)
(1.46368 0.380742 0)
(0.0238689 -0.493266 0)
(0.0657013 -0.495214 0)
(0.113192 -0.498072 0)
(0.158785 -0.504925 0)
(0.20697 -0.511011 0)
(0.256855 -0.520893 0)
(0.308607 -0.531662 0)
(0.360882 -0.543718 0)
(0.41613 -0.554807 0)
(0.471534 -0.567592 0)
(0.531703 -0.573324 0)
(0.6061 -0.585871 0)
(0.733827 -0.585528 0)
(0.777467 -0.596065 0)
(0.585982 -0.534536 0)
(0.650943 -0.481231 0)
(0.87635 -0.649168 0)
(1.13242 -0.655814 0)
(1.39791 -0.501184 0)
(1.63913 -0.0283772 0)
(1.7794 0.470105 0)
(1.77723 0.365041 0)
(1.67155 0.405355 0)
(0.0237372 -0.538181 0)
(0.0643892 -0.539908 0)
(0.110817 -0.545004 0)
(0.155897 -0.552322 0)
(0.202491 -0.560246 0)
(0.249754 -0.570819 0)
(0.298511 -0.580165 0)
(0.352896 -0.592078 0)
(0.423422 -0.604082 0)
(0.583445 -0.625162 0)
(0.757483 -0.653867 0)
(0.915131 -0.745212 0)
(1.03157 -0.667085 0)
(1.01677 -0.408743 0)
(0.857931 -0.375424 0)
(0.869216 -0.735744 0)
(0.974648 -0.821708 0)
(1.04016 -0.780553 0)
(1.10443 -0.665211 0)
(1.14137 -0.382567 0)
(1.42341 -0.0344464 0)
(1.68379 0.278202 0)
(1.82265 0.527447 0)
(0.0236529 -0.581829 0)
(0.0645629 -0.582728 0)
(0.112205 -0.590032 0)
(0.16541 -0.597125 0)
(0.23239 -0.605423 0)
(0.341068 -0.619702 0)
(0.443274 -0.636607 0)
(0.577711 -0.670696 0)
(0.740341 -0.793419 0)
(0.912926 -0.879064 0)
(1.13033 -0.909719 0)
(1.26244 -0.860797 0)
(1.32076 -0.692564 0)
(1.35193 -0.418308 0)
(1.38816 -0.388224 0)
(1.27985 -0.604462 0)
(1.06498 -0.82208 0)
(1.04457 -0.788689 0)
(0.987971 -0.605159 0)
(0.986537 -0.353078 0)
(1.08987 -0.0841778 0)
(1.30797 -0.0160698 0)
(1.61562 0.130521 0)
(0.0287284 -0.626966 0)
(0.0976659 -0.628986 0)
(0.160704 -0.646087 0)
(0.242705 -0.672581 0)
(0.322642 -0.734197 0)
(0.424907 -0.779138 0)
(0.541829 -0.817804 0)
(0.686255 -0.887929 0)
(0.84415 -0.9477 0)
(0.998541 -1.02184 0)
(1.17576 -1.01268 0)
(1.30076 -0.933997 0)
(1.40012 -0.757054 0)
(1.48077 -0.476969 0)
(1.50189 -0.301868 0)
(1.45366 -0.404111 0)
(1.28446 -0.587112 0)
(1.10159 -0.694816 0)
(1.03256 -0.608414 0)
(1.031 -0.481318 0)
(1.17942 -0.354874 0)
(1.36789 -0.254951 0)
(1.60067 -0.15058 0)
(0.0343823 -0.709257 0)
(0.107865 -0.716169 0)
(0.181616 -0.737014 0)
(0.261485 -0.763819 0)
(0.340809 -0.790417 0)
(0.399807 -0.844329 0)
(0.494878 -0.897215 0)
(0.580188 -0.978833 0)
(0.7096 -1.09904 0)
(0.862438 -1.21216 0)
(1.01934 -1.20899 0)
(1.13651 -1.08931 0)
(1.25729 -0.873041 0)
(1.31556 -0.522352 0)
(1.36578 -0.36097 0)
(1.38038 -0.391647 0)
(1.32151 -0.466605 0)
(1.17944 -0.54374 0)
(1.11379 -0.534387 0)
(1.14667 -0.503391 0)
(1.26267 -0.430423 0)
(1.41351 -0.43301 0)
(1.64537 -0.397107 0)
(0.0333803 -0.769416 0)
(0.0748856 -0.777036 0)
(0.143712 -0.798665 0)
(0.182613 -0.83066 0)
(0.256164 -0.870495 0)
(0.301897 -0.933967 0)
(0.386192 -0.999296 0)
(0.456797 -1.10426 0)
(0.571666 -1.23608 0)
(0.658104 -1.3343 0)
(0.692828 -1.29082 0)
(0.724839 -1.17281 0)
(0.754002 -0.939278 0)
(0.804461 -0.585277 0)
(0.890073 -0.369168 0)
(0.931609 -0.35729 0)
(0.947849 -0.387269 0)
(0.952881 -0.483049 0)
(1.00068 -0.57542 0)
(1.10868 -0.629034 0)
(1.28225 -0.620422 0)
(1.46781 -0.638776 0)
(1.70134 -0.653589 0)
(0.0284926 -0.818936 0)
(0.0586141 -0.828319 0)
(0.118597 -0.846425 0)
(0.144624 -0.878952 0)
(0.203565 -0.911412 0)
(0.225544 -0.97712 0)
(0.281965 -1.05149 0)
(0.313429 -1.16724 0)
(0.365194 -1.29791 0)
(0.340431 -1.33497 0)
(0.31111 -1.27384 0)
(0.252326 -1.15155 0)
(0.227461 -0.950618 0)
(0.244938 -0.656526 0)
(0.363377 -0.488184 0)
(0.470899 -0.450651 0)
(0.601038 -0.486873 0)
(0.74265 -0.597727 0)
(0.901241 -0.691517 0)
(1.05709 -0.787792 0)
(1.2725 -0.795242 0)
(1.49025 -0.85176 0)
(1.77228 -0.924937 0)
(0.0232413 -0.856468 0)
(0.0446643 -0.867794 0)
(0.0910859 -0.883814 0)
(0.108028 -0.9164 0)
(0.149594 -0.950265 0)
(0.163742 -1.01321 0)
(0.190603 -1.0873 0)
(0.192364 -1.18808 0)
(0.172872 -1.26502 0)
(0.10574 -1.28018 0)
(0.0447364 -1.2033 0)
(-0.0266159 -1.08886 0)
(-0.0542375 -0.934076 0)
(-0.0342657 -0.721469 0)
(0.0940421 -0.598668 0)
(0.248015 -0.595474 0)
(0.44419 -0.661814 0)
(0.620201 -0.785843 0)
(0.81682 -0.890648 0)
(0.980596 -1.00155 0)
(1.20786 -1.0559 0)
(1.46327 -1.13857 0)
(1.77686 -1.27453 0)
(0.0200905 -0.887904 0)
(0.0349097 -0.897445 0)
(0.0703958 -0.910645 0)
(0.0803924 -0.938932 0)
(0.106181 -0.967684 0)
(0.108305 -1.01995 0)
(0.111188 -1.07961 0)
(0.0832752 -1.15153 0)
(0.0386813 -1.20891 0)
(-0.0349304 -1.20767 0)
(-0.094125 -1.13942 0)
(-0.140338 -1.05326 0)
(-0.145981 -0.941616 0)
(-0.103287 -0.804897 0)
(0.0533044 -0.772355 0)
(0.218992 -0.802955 0)
(0.411166 -0.861397 0)
(0.565669 -0.971994 0)
(0.741854 -1.05518 0)
(0.893368 -1.18047 0)
(1.09995 -1.28386 0)
(1.36168 -1.42159 0)
(1.68717 -1.64766 0)
(0.0140819 -0.911511 0)
(0.0242885 -0.91857 0)
(0.0482698 -0.92894 0)
(0.0548757 -0.952883 0)
(0.0696087 -0.977516 0)
(0.0671402 -1.01874 0)
(0.0571265 -1.06163 0)
(0.0251687 -1.1154 0)
(-0.025318 -1.14695 0)
(-0.0898081 -1.14723 0)
(-0.13304 -1.09818 0)
(-0.151526 -1.03695 0)
(-0.133284 -0.973377 0)
(-0.0568471 -0.922476 0)
(0.0723173 -0.924348 0)
(0.198392 -0.955229 0)
(0.332871 -1.01159 0)
(0.467392 -1.1181 0)
(0.599697 -1.22105 0)
(0.773603 -1.35971 0)
(0.936645 -1.52847 0)
(1.22705 -1.72444 0)
(1.5112 -2.04722 0)
(0.00936346 -0.926985 0)
(0.015741 -0.932544 0)
(0.032727 -0.941646 0)
(0.037344 -0.961301 0)
(0.0450006 -0.980062 0)
(0.0407507 -1.00865 0)
(0.0284436 -1.03715 0)
(0.00113065 -1.07009 0)
(-0.0424255 -1.09251 0)
(-0.0871781 -1.10033 0)
(-0.116026 -1.077 0)
(-0.110169 -1.05363 0)
(-0.0830485 -1.03577 0)
(-0.0160548 -1.01121 0)
(0.0629816 -1.02871 0)
(0.159268 -1.06426 0)
(0.25163 -1.13273 0)
(0.372691 -1.23897 0)
(0.463758 -1.36505 0)
(0.629248 -1.5177 0)
(0.745164 -1.74334 0)
(0.997507 -1.9972 0)
(1.18393 -2.39431 0)
(0.00556328 -0.936701 0)
(0.00977452 -0.942266 0)
(0.0209266 -0.950427 0)
(0.0229912 -0.965651 0)
(0.0257846 -0.980552 0)
(0.021641 -1.00255 0)
(0.0112242 -1.02147 0)
(-0.00644419 -1.04464 0)
(-0.0329316 -1.05829 0)
(-0.059168 -1.07379 0)
(-0.0747923 -1.07476 0)
(-0.0695376 -1.07073 0)
(-0.0543525 -1.06886 0)
(-0.0117181 -1.06971 0)
(0.0408883 -1.10168 0)
(0.107461 -1.14542 0)
(0.169861 -1.22682 0)
(0.254714 -1.33188 0)
(0.315106 -1.47906 0)
(0.418326 -1.64246 0)
(0.497211 -1.8976 0)
(0.627406 -2.16283 0)
(0.737038 -2.60017 0)
(0.00380431 -0.942828 0)
(0.00627363 -0.948578 0)
(0.0112153 -0.95512 0)
(0.0107481 -0.966924 0)
(0.0102284 -0.978751 0)
(0.00593653 -0.994942 0)
(-0.00221164 -1.0088 0)
(-0.013678 -1.02659 0)
(-0.0310311 -1.03919 0)
(-0.0458199 -1.05901 0)
(-0.0606884 -1.06668 0)
(-0.0600022 -1.07457 0)
(-0.0517105 -1.09337 0)
(-0.0225647 -1.1071 0)
(0.00358647 -1.14817 0)
(0.0415547 -1.19351 0)
(0.0761573 -1.28096 0)
(0.127099 -1.38451 0)
(0.153626 -1.53002 0)
(0.203014 -1.70078 0)
(0.22759 -1.9547 0)
(0.264024 -2.24007 0)
(0.295184 -2.67964 0)
(0.00238619 -0.946882 0)
(0.000867542 -0.949894 0)
(0.00137069 -0.954903 0)
(-0.00177087 -0.965031 0)
(-0.00528601 -0.975549 0)
(-0.0114277 -0.990473 0)
(-0.0194506 -1.00154 0)
(-0.0289409 -1.01627 0)
(-0.0394475 -1.02594 0)
(-0.0504759 -1.04467 0)
(-0.0624525 -1.06041 0)
(-0.0619569 -1.08046 0)
(-0.0623548 -1.1068 0)
(-0.0513934 -1.12592 0)
(-0.0476126 -1.16681 0)
(-0.0291418 -1.21915 0)
(-0.0160635 -1.31353 0)
(0.00169144 -1.41003 0)
(0.00284654 -1.55621 0)
(0.00208827 -1.71553 0)
(-0.0225231 -1.95989 0)
(-0.0772931 -2.22587 0)
(-0.147878 -2.63815 0)
(-0.00118202 -0.946443 0)
(-0.00519292 -0.948102 0)
(-0.00744088 -0.952617 0)
(-0.0121114 -0.960834 0)
(-0.0173546 -0.969097 0)
(-0.0250033 -0.981447 0)
(-0.0345899 -0.991148 0)
(-0.0446393 -1.00716 0)
(-0.0551224 -1.01725 0)
(-0.0633326 -1.03643 0)
(-0.0741172 -1.05493 0)
(-0.0795412 -1.07508 0)
(-0.0928057 -1.1038 0)
(-0.0963349 -1.12229 0)
(-0.102752 -1.1703 0)
(-0.100587 -1.22495 0)
(-0.110859 -1.31218 0)
(-0.119575 -1.40306 0)
(-0.143574 -1.53144 0)
(-0.181101 -1.6751 0)
(-0.239701 -1.87765 0)
(-0.354916 -2.115 0)
(-0.493118 -2.43171 0)
(-0.00209257 -0.940589 0)
(-0.00802144 -0.943792 0)
(-0.0121445 -0.948006 0)
(-0.0189526 -0.955418 0)
(-0.0257513 -0.962547 0)
(-0.0345038 -0.97358 0)
(-0.0445148 -0.981753 0)
(-0.0547385 -0.99624 0)
(-0.0674742 -1.00724 0)
(-0.0767781 -1.02628 0)
(-0.0937793 -1.04415 0)
(-0.104931 -1.06245 0)
(-0.12387 -1.09004 0)
(-0.134643 -1.11647 0)
(-0.150675 -1.16292 0)
(-0.16701 -1.21173 0)
(-0.196255 -1.29485 0)
(-0.232127 -1.37724 0)
(-0.284026 -1.49454 0)
(-0.356094 -1.61705 0)
(-0.44926 -1.78482 0)
(-0.595599 -1.96492 0)
(-0.78314 -2.19474 0)
(-0.00191784 -0.936589 0)
(-0.00839447 -0.938435 0)
(-0.0140101 -0.941791 0)
(-0.0220441 -0.947663 0)
(-0.0303133 -0.953525 0)
(-0.0404825 -0.963161 0)
(-0.0519072 -0.970735 0)
(-0.0640407 -0.984614 0)
(-0.0790049 -0.994878 0)
(-0.093044 -1.0105 0)
(-0.112835 -1.02643 0)
(-0.128033 -1.04526 0)
(-0.150347 -1.07372 0)
(-0.168063 -1.09577 0)
(-0.195155 -1.13764 0)
(-0.221941 -1.17917 0)
(-0.262913 -1.2472 0)
(-0.316065 -1.31491 0)
(-0.387187 -1.40863 0)
(-0.486525 -1.50964 0)
(-0.609113 -1.64143 0)
(-0.78692 -1.78077 0)
(-1.00075 -1.94569 0)
(-0.00340663 -0.930342 0)
(-0.0121185 -0.931849 0)
(-0.0194954 -0.93435 0)
(-0.0293123 -0.939343 0)
(-0.0387681 -0.944015 0)
(-0.0504875 -0.952287 0)
(-0.0631069 -0.958077 0)
(-0.0771476 -0.969548 0)
(-0.0942277 -0.978135 0)
(-0.110168 -0.992858 0)
(-0.132099 -1.00902 0)
(-0.150424 -1.02539 0)
(-0.178827 -1.04993 0)
(-0.20461 -1.07199 0)
(-0.238808 -1.10898 0)
(-0.276005 -1.14407 0)
(-0.324626 -1.20032 0)
(-0.387086 -1.25212 0)
(-0.464415 -1.32292 0)
(-0.57055 -1.39215 0)
(-0.699973 -1.48136 0)
(-0.88607 -1.56616 0)
(-1.10872 -1.65729 0)
(-0.00423164 -0.921271 0)
(-0.014315 -0.922642 0)
(-0.0232731 -0.92469 0)
(-0.0341794 -0.928744 0)
(-0.0450284 -0.932327 0)
(-0.0578251 -0.939196 0)
(-0.0717538 -0.943918 0)
(-0.0865751 -0.953824 0)
(-0.104529 -0.961591 0)
(-0.121327 -0.972948 0)
(-0.145649 -0.985837 0)
(-0.168126 -0.998731 0)
(-0.199044 -1.01908 0)
(-0.229792 -1.03586 0)
(-0.270616 -1.06579 0)
(-0.31648 -1.09308 0)
(-0.375113 -1.13589 0)
(-0.44842 -1.17441 0)
(-0.536361 -1.22541 0)
(-0.649576 -1.27321 0)
(-0.782215 -1.32782 0)
(-0.960274 -1.37251 0)
(-1.16463 -1.40681 0)
(-0.00466075 -0.911833 0)
(-0.015462 -0.912919 0)
(-0.0254354 -0.914459 0)
(-0.0371499 -0.917764 0)
(-0.0490143 -0.920279 0)
(-0.0624634 -0.925798 0)
(-0.0775394 -0.929197 0)
(-0.0932503 -0.937058 0)
(-0.113283 -0.943207 0)
(-0.132476 -0.952019 0)
(-0.158342 -0.962028 0)
(-0.182846 -0.972306 0)
(-0.215681 -0.988114 0)
(-0.24917 -1.00066 0)
(-0.291448 -1.02221 0)
(-0.339731 -1.03967 0)
(-0.399273 -1.06825 0)
(-0.473078 -1.09051 0)
(-0.56071 -1.12129 0)
(-0.671656 -1.14454 0)
(-0.801535 -1.16842 0)
(-0.969328 -1.17797 0)
(-1.16066 -1.17406 0)
(-0.00485583 -0.901299 0)
(-0.0163204 -0.902088 0)
(-0.0266818 -0.903065 0)
(-0.0391948 -0.905429 0)
(-0.0515915 -0.906974 0)
(-0.0660328 -0.910946 0)
(-0.0818638 -0.912981 0)
(-0.098858 -0.918334 0)
(-0.119717 -0.922118 0)
(-0.1407 -0.928082 0)
(-0.167625 -0.935085 0)
(-0.194734 -0.941404 0)
(-0.229805 -0.952177 0)
(-0.266898 -0.959817 0)
(-0.312636 -0.974425 0)
(-0.364374 -0.984491 0)
(-0.426125 -1.00152 0)
(-0.500536 -1.01162 0)
(-0.586282 -1.02594 0)
(-0.691703 -1.03097 0)
(-0.810674 -1.03056 0)
(-0.957732 -1.01366 0)
(-1.11818 -0.977174 0)
(-0.00525223 -0.890681 0)
(-0.0170523 -0.891176 0)
(-0.0281713 -0.891549 0)
(-0.0409459 -0.892987 0)
(-0.0539779 -0.893351 0)
(-0.068654 -0.895704 0)
(-0.0850349 -0.896237 0)
(-0.102316 -0.899418 0)
(-0.123401 -0.901194 0)
(-0.144565 -0.904358 0)
(-0.17173 -0.907842 0)
(-0.199305 -0.910423 0)
(-0.234057 -0.915893 0)
(-0.271167 -0.918165 0)
(-0.316274 -0.924836 0)
(-0.367451 -0.926498 0)
(-0.427788 -0.932298 0)
(-0.498972 -0.930379 0)
(-0.580462 -0.930048 0)
(-0.678109 -0.91907 0)
(-0.787403 -0.900969 0)
(-0.917135 -0.866823 0)
(-1.05684 -0.814461 0)
(-0.005333 -0.879104 0)
(-0.0174289 -0.879335 0)
(-0.0286763 -0.879212 0)
(-0.0417166 -0.879821 0)
(-0.0547848 -0.879222 0)
(-0.0696889 -0.880092 0)
(-0.0859999 -0.879178 0)
(-0.103709 -0.880135 0)
(-0.124816 -0.879608 0)
(-0.146968 -0.879813 0)
(-0.174218 -0.87992 0)
(-0.202794 -0.878929 0)
(-0.237627 -0.87966 0)
(-0.275361 -0.877123 0)
(-0.320128 -0.877218 0)
(-0.370552 -0.872063 0)
(-0.428743 -0.868863 0)
(-0.496121 -0.857639 0)
(-0.571637 -0.845749 0)
(-0.659934 -0.822747 0)
(-0.756118 -0.791209 0)
(-0.866682 -0.743785 0)
(-0.98284 -0.679664 0)
(-0.00522607 -0.867929 0)
(-0.0168659 -0.867891 0)
(-0.0279336 -0.867222 0)
(-0.0406142 -0.866975 0)
(-0.0535956 -0.865287 0)
(-0.0682649 -0.864616 0)
(-0.0845102 -0.862079 0)
(-0.102085 -0.860754 0)
(-0.122948 -0.857773 0)
(-0.144776 -0.855143 0)
(-0.171296 -0.851876 0)
(-0.199184 -0.847245 0)
(-0.232907 -0.843269 0)
(-0.269311 -0.835933 0)
(-0.31223 -0.829695 0)
(-0.359914 -0.818114 0)
(-0.414597 -0.806824 0)
(-0.476607 -0.787473 0)
(-0.545593 -0.766133 0)
(-0.624255 -0.733924 0)
(-0.709081 -0.693473 0)
(-0.803174 -0.638287 0)
(-0.900704 -0.568259 0)
(-0.00504349 -0.857108 0)
(-0.016399 -0.856756 0)
(-0.0271348 -0.855497 0)
(-0.0395997 -0.854312 0)
(-0.0522453 -0.851535 0)
(-0.0666759 -0.849331 0)
(-0.0823799 -0.845242 0)
(-0.0996331 -0.841816 0)
(-0.119592 -0.836701 0)
(-0.140938 -0.831492 0)
(-0.166379 -0.825157 0)
(-0.193637 -0.817171 0)
(-0.225987 -0.808991 0)
(-0.26113 -0.797395 0)
(-0.301798 -0.785871 0)
(-0.346783 -0.768986 0)
(-0.397565 -0.751269 0)
(-0.454339 -0.725667 0)
(-0.516435 -0.697192 0)
(-0.58585 -0.658203 0)
(-0.659351 -0.61163 0)
(-0.739005 -0.551341 0)
(-0.82004 -0.479261 0)
(-0.00470447 -0.84647 0)
(-0.0151343 -0.845809 0)
(-0.0252117 -0.84396 0)
(-0.036775 -0.84191 0)
(-0.0487676 -0.838106 0)
(-0.0622866 -0.834548 0)
(-0.0772387 -0.828972 0)
(-0.093592 -0.823618 0)
(-0.112694 -0.816284 0)
(-0.133172 -0.808436 0)
(-0.157431 -0.798988 0)
(-0.183214 -0.787727 0)
(-0.2136 -0.775623 0)
(-0.246319 -0.760221 0)
(-0.284106 -0.743947 0)
(-0.325355 -0.722409 0)
(-0.371709 -0.699204 0)
(-0.422596 -0.668531 0)
(-0.477881 -0.634495 0)
(-0.538335 -0.590654 0)
(-0.601733 -0.539988 0)
(-0.668706 -0.476843 0)
(-0.735814 -0.403666 0)
(-0.00411705 -0.837399 0)
(-0.0134285 -0.836396 0)
(-0.0224219 -0.833932 0)
(-0.033012 -0.830918 0)
(-0.0440614 -0.826033 0)
(-0.0567839 -0.821009 0)
(-0.0708817 -0.813875 0)
(-0.086487 -0.806477 0)
(-0.104421 -0.79698 0)
(-0.123749 -0.786807 0)
(-0.146261 -0.774878 0)
(-0.170368 -0.760937 0)
(-0.198463 -0.745518 0)
(-0.228919 -0.726636 0)
(-0.263701 -0.706313 0)
(-0.301441 -0.680908 0)
(-0.343369 -0.65337 0)
(-0.388864 -0.618809 0)
(-0.437764 -0.580722 0)
(-0.490383 -0.533528 0)
(-0.544823 -0.480556 0)
(-0.601374 -0.416431 0)
(-0.657181 -0.344699 0)
(-0.00357322 -0.828846 0)
(-0.0115388 -0.827443 0)
(-0.0193999 -0.824261 0)
(-0.0285427 -0.820236 0)
(-0.0383005 -0.814186 0)
(-0.0494652 -0.807713 0)
(-0.0621764 -0.79909 0)
(-0.0762584 -0.790073 0)
(-0.0926575 -0.778813 0)
(-0.110406 -0.766582 0)
(-0.131369 -0.752135 0)
(-0.153722 -0.735492 0)
(-0.1796 -0.716839 0)
(-0.20717 -0.694945 0)
(-0.238582 -0.671228 0)
(-0.272292 -0.642689 0)
(-0.309617 -0.611626 0)
(-0.349582 -0.57404 0)
(-0.39237 -0.532841 0)
(-0.437568 -0.483421 0)
(-0.483986 -0.428856 0)
(-0.531383 -0.364235 0)
(-0.577546 -0.293277 0)
(-0.00274927 -0.822483 0)
(-0.00898234 -0.820778 0)
(-0.0151443 -0.817076 0)
(-0.0224746 -0.812227 0)
(-0.030441 -0.8052 0)
(-0.0398117 -0.79732 0)
(-0.0507455 -0.787099 0)
(-0.0632782 -0.776136 0)
(-0.0782213 -0.762771 0)
(-0.0946457 -0.748179 0)
(-0.113879 -0.731429 0)
(-0.134408 -0.712714 0)
(-0.157914 -0.691856 0)
(-0.182907 -0.667538 0)
(-0.211151 -0.640862 0)
(-0.241264 -0.609593 0)
(-0.274361 -0.57563 0)
(-0.309432 -0.535607 0)
(-0.346673 -0.492189 0)
(-0.385532 -0.441324 0)
(-0.425147 -0.386143 0)
(-0.46506 -0.32221 0)
(-0.503478 -0.253453 0)
(-0.0021467 -0.816967 0)
(-0.00689439 -0.814917 0)
(-0.0116262 -0.810601 0)
(-0.0171612 -0.804831 0)
(-0.0233629 -0.796658 0)
(-0.0306643 -0.787313 0)
(-0.0394765 -0.775407 0)
(-0.0495952 -0.762506 0)
(-0.0620786 -0.747209 0)
(-0.0759397 -0.730824 0)
(-0.092783 -0.712109 0)
(-0.111053 -0.691335 0)
(-0.132475 -0.668062 0)
(-0.155042 -0.641577 0)
(-0.180267 -0.612614 0)
(-0.206732 -0.579347 0)
(-0.235629 -0.543245 0)
(-0.265855 -0.501606 0)
(-0.297867 -0.456584 0)
(-0.330838 -0.40484 0)
(-0.364317 -0.349232 0)
(-0.397681 -0.28584 0)
(-0.429569 -0.218346 0)
(-0.00139085 -0.813721 0)
(-0.00449871 -0.811583 0)
(-0.00764193 -0.807044 0)
(-0.0114015 -0.800766 0)
(-0.0158146 -0.791879 0)
(-0.0211002 -0.781457 0)
(-0.0277364 -0.768291 0)
(-0.0354648 -0.753742 0)
(-0.045338 -0.736476 0)
(-0.0566145 -0.717621 0)
(-0.0707103 -0.696296 0)
(-0.0862501 -0.673103 0)
(-0.10473 -0.64778 0)
(-0.124575 -0.619732 0)
(-0.147015 -0.588998 0)
(-0.170487 -0.554106 0)
(-0.19592 -0.516241 0)
(-0.222089 -0.473118 0)
(-0.249542 -0.426845 0)
(-0.27748 -0.374503 0)
(-0.305717 -0.318866 0)
(-0.333604 -0.256511 0)
(-0.36009 -0.190971 0)
(-0.000974309 -0.810846 0)
(-0.00303871 -0.808454 0)
(-0.00521242 -0.803468 0)
(-0.00774999 -0.796475 0)
(-0.0109071 -0.786724 0)
(-0.0146186 -0.775221 0)
(-0.0194224 -0.760789 0)
(-0.0249127 -0.744733 0)
(-0.0320841 -0.725786 0)
(-0.0401355 -0.70527 0)
(-0.0504708 -0.682173 0)
(-0.0620561 -0.657109 0)
(-0.0764542 -0.629415 0)
(-0.0923416 -0.59908 0)
(-0.110995 -0.566403 0)
(-0.130826 -0.530244 0)
(-0.152698 -0.491385 0)
(-0.175163 -0.447819 0)
(-0.198622 -0.401003 0)
(-0.222163 -0.348556 0)
(-0.245828 -0.292998 0)
(-0.269019 -0.231437 0)
(-0.291056 -0.167022 0)
(-0.000524699 -0.810078 0)
(-0.00163724 -0.807711 0)
(-0.00305058 -0.802656 0)
(-0.00466613 -0.795418 0)
(-0.00678135 -0.78529 0)
(-0.00920172 -0.773264 0)
(-0.0123945 -0.758233 0)
(-0.0159606 -0.741374 0)
(-0.020648 -0.721437 0)
(-0.0258985 -0.699481 0)
(-0.0328301 -0.674505 0)
(-0.0407154 -0.647312 0)
(-0.0507587 -0.617562 0)
(-0.0620262 -0.585295 0)
(-0.0758128 -0.550488 0)
(-0.0910646 -0.512403 0)
(-0.108692 -0.471791 0)
(-0.127418 -0.427087 0)
(-0.147542 -0.379637 0)
(-0.16768 -0.32709 0)
(-0.187786 -0.271725 0)
(-0.207081 -0.211004 0)
(-0.225159 -0.147938 0)
(-0.000372707 -0.808351 0)
(-0.00118487 -0.805613 0)
(-0.0022985 -0.800119 0)
(-0.00352882 -0.792454 0)