/*--------------------------------*- C++ -*----------------------------------*\
| =========                 |                                                 |
| \\      /  F ield         | OpenFOAM: The Open Source CFD Toolbox           |
|  \\    /   O peration     | Version:  3.0.1                                 |
|   \\  /    A nd           | Web:      www.OpenFOAM.org                      |
|    \\/     M anipulation  |                                                 |
\*---------------------------------------------------------------------------*/
FoamFile
{
    version     2.0;
    format      ascii;
    class       volScalarField;
    location    "0.0002";
    object      maxKappa;
}
// * * * * * * * * * * * * * * * * * * * * * * * * * * * * * * * * * * * * * //

dimensions      [0 0 0 0 0 0 0];

internalField   nonuniform List<scalar> 
1000
(
3.35756e-08
8.14627e-08
1.64955e-07
3.20472e-07
6.12182e-07
1.15728e-06
2.16745e-06
4.02161e-06
7.38961e-06
1.34399e-05
2.41809e-05
4.30112e-05
7.55829e-05
0.00013112
0.000224369
0.000378362
0.000628161
0.00102561
0.00164484
0.00258787
0.0039888
0.0060144
0.00885812
0.012724
0.0177981
0.0242072
0.0319677
0.0409333
0.0507549
0.0608701
0.0705415
0.0789978
0.0856037
0.0901606
0.0928912
0.0944096
0.095328
0.0958702
0.0961318
0.0963046
0.0964667
0.0965244
0.0965244
0.0965119
0.0965057
0.0964997
0.0964693
0.0964374
0.0964085
0.096343
0.09606
0.0947711
0.0930905
0.0923009
0.0921691
0.0921629
0.0921848
0.0921958
0.0922069
0.0922069
0.0922145
0.0922145
0.0921801
0.0920199
0.0917094
0.0914659
0.0907735
0.0895047
0.086985
0.082619
0.0760472
0.0673491
0.0571294
0.046341
0.0359939
0.0268448
0.0192962
0.0134201
0.00906371
0.0059639
0.00383385
0.00241338
0.00149054
0.000904654
0.000540299
0.000317906
0.000184464
0.000105646
5.97674e-05
3.34231e-05
1.84874e-05
1.01205e-05
5.48598e-06
2.94599e-06
1.56779e-06
8.26854e-07
4.31679e-07
2.21667e-07
1.09254e-07
4.497e-08
3.3568e-08
8.14442e-08
1.64917e-07
3.20398e-07
6.12039e-07
1.157e-06
2.16694e-06
4.02065e-06
7.38784e-06
1.34366e-05
2.4175e-05
4.30007e-05
7.55644e-05
0.000131088
0.000224314
0.00037827
0.000628009
0.00102536
0.00164446
0.00258728
0.00398791
0.00601312
0.00885635
0.0127217
0.0177953
0.024204
0.0319645
0.040931
0.0507541
0.0608723
0.0705482
0.0790092
0.0856214
0.0901826
0.0929123
0.094426
0.0953364
0.0958701
0.0961229
0.0962907
0.0964478
0.0965176
0.096527
0.0965435
0.0965737
0.0965946
0.0966091
0.0966111
0.0966351
0.0966802
0.0966802
0.0958466
0.0938561
0.0925662
0.0923098
0.0922935
0.0922663
0.0922575
0.0922398
0.09223
0.0922194
0.0922194
0.0921732
0.0920142
0.0917017
0.0914572
0.0907779
0.0895181
0.0870041
0.082639
0.076064
0.0673604
0.0571349
0.0463436
0.035994
0.0268428
0.0192936
0.0134175
0.00906153
0.00596222
0.00383263
0.00241254
0.00148997
0.00090429
0.00054007
0.000317766
0.00018438
0.000105597
5.97386e-05
3.34066e-05
1.84781e-05
1.01154e-05
5.48315e-06
2.94446e-06
1.56697e-06
8.26416e-07
4.31449e-07
2.21549e-07
1.09195e-07
4.49458e-08
3.35542e-08
8.14106e-08
1.64849e-07
3.20265e-07
6.11786e-07
1.15653e-06
2.16604e-06
4.01899e-06
7.3848e-06
1.34311e-05
2.41652e-05
4.29834e-05
7.55343e-05
0.000131037
0.000224228
0.000378127
0.000627779
0.001025
0.0016439
0.00258645
0.00398672
0.0060115
0.00885424
0.0127191
0.0177925
0.0242014
0.0319629
0.0409311
0.0507572
0.0608815
0.070564
0.0790327
0.0856486
0.0902078
0.0929263
0.0944268
0.0953345
0.0958646
0.0961154
0.0962818
0.0964326
0.0965014
0.0965073
0.0965259
0.0965547
0.0965566
0.0965566
0.0965472
0.0965142
0.0964302
0.0960197
0.0947332
0.0932086
0.0925371
0.0924041
0.0923652
0.0923281
0.0923114
0.0922811
0.0922594
0.092229
0.092229
0.0921843
0.0920245
0.0917053
0.0914523
0.0907739
0.0895207
0.0870191
0.082661
0.0760877
0.0673812
0.0571494
0.0463511
0.0359969
0.0268434
0.0192922
0.0134153
0.00905921
0.00596021
0.00383105
0.00241138
0.00148917
0.000903751
0.000539722
0.000317547
0.000184245
0.000105516
5.96908e-05
3.33789e-05
1.84623e-05
1.01064e-05
5.47819e-06
2.94173e-06
1.56549e-06
8.25622e-07
4.31028e-07
2.2133e-07
1.09086e-07
4.49006e-08
3.35358e-08
8.13659e-08
1.64758e-07
3.2009e-07
6.11451e-07
1.15589e-06
2.16486e-06
4.01681e-06
7.38081e-06
1.34239e-05
2.41523e-05
4.29607e-05
7.54949e-05
0.000130969
0.000224114
0.00037794
0.000627477
0.00102452
0.00164317
0.00258536
0.00398514
0.00600929
0.0088513
0.0127154
0.0177881
0.0241969
0.0319589
0.0409292
0.0507607
0.0608885
0.0705801
0.0790559
0.0856761
0.0902335
0.0929408
0.0944296
0.0953265
0.0958503
0.0960881
0.0962403
0.096385
0.0964475
0.0964578
0.0964686
0.0964847
0.0964872
0.0964927
0.0965281
0.096604
0.096604
0.0965502
0.0955955
0.093707
0.0925752
0.0923575
0.0923434
0.0923172
0.0923053
0.0922832
0.0922665
0.0922146
0.0922137
0.0921558
0.0919783
0.0916643
0.0914226
0.0907534
0.0895199
0.0870327
0.0826837
0.0761125
0.0674025
0.0571651
0.04636
0.0359989
0.0268414
0.0192888
0.0134116
0.00905577
0.00595738
0.00382889
0.00240982
0.00148809
0.000903033
0.000539257
0.000317254
0.000184065
0.000105407
5.96266e-05
3.33415e-05
1.84409e-05
1.00943e-05
5.47143e-06
2.93801e-06
1.56346e-06
8.24531e-07
4.30448e-07
2.21027e-07
1.08935e-07
4.48379e-08
3.35154e-08
8.13165e-08
1.64658e-07
3.19896e-07
6.11082e-07
1.1552e-06
2.16357e-06
4.01442e-06
7.37645e-06
1.34161e-05
2.41383e-05
4.29361e-05
7.54523e-05
0.000130897
0.000223993
0.00037774
0.000627154
0.00102402
0.00164239
0.00258419
0.00398346
0.00600696
0.00884821
0.0127115
0.0177836
0.0241922
0.0319549
0.0409273
0.0507615
0.060897
0.0705949
0.0790793
0.0857055
0.0902647
0.0929663
0.0944473
0.0953405
0.0958641
0.0960992
0.0962619
0.0964137
0.0964765
0.0964847
0.0964981
0.0965157
0.0965157
0.096519
0.0965603
0.0966563
0.0966563
0.0965366
0.0954358
0.0936312
0.092598
0.0923501
0.0922923
0.0922543
0.0922543
0.0922412
0.0922268
0.0921836
0.0921836
0.0921401
0.0919788
0.0916581
0.0914208
0.0907616
0.089536
0.0870576
0.0827124
0.0761397
0.0674242
0.0571793
0.0463676
0.0360009
0.02684
0.0192854
0.0134077
0.00905215
0.00595437
0.00382657
0.00240814
0.00148692
0.00090225
0.000538748
0.000316932
0.000183866
0.000105286
5.95546e-05
3.32994e-05
1.84166e-05
1.00806e-05
5.46372e-06
2.93374e-06
1.56113e-06
8.2327e-07
4.29775e-07
2.20675e-07
1.08758e-07
4.47645e-08
3.34954e-08
8.12682e-08
1.64561e-07
3.19708e-07
6.10725e-07
1.15453e-06
2.16231e-06
4.01212e-06
7.37226e-06
1.34085e-05
2.41249e-05
4.29126e-05
7.54117e-05
0.000130828
0.000223877
0.00037755
0.000626849
0.00102354
0.00164165
0.00258309
0.00398188
0.00600475
0.00884527
0.0127078
0.0177792
0.0241874
0.0319503
0.0409239
0.0507608
0.0609004
0.0706047
0.0790956
0.0857279
0.0902904
0.0929904
0.0944668
0.0953539
0.0958721
0.0961042
0.0962637
0.0964084
0.0964732
0.0964808
0.0964959
0.0965207
0.096534
0.0965628
0.0966104
0.0966544
0.0966544
0.0965217
0.0953598
0.0936657
0.0926943
0.092467
0.0924198
0.0923699
0.0923458
0.0923044
0.0922703
0.0922066
0.0922044
0.0921578
0.0919889
0.0916632
0.0914279
0.0907753
0.0895554
0.0870807
0.0827354
0.07616
0.0674398
0.0571895
0.0463716
0.0360011
0.0268375
0.0192817
0.0134038
0.0090486
0.00595146
0.00382434
0.00240652
0.00148579
0.00090149
0.000538251
0.000316616
0.000183669
0.000105166
5.94828e-05
3.32572e-05
1.83922e-05
1.00666e-05
5.45588e-06
2.92938e-06
1.55873e-06
8.21971e-07
4.29079e-07
2.20309e-07
1.08574e-07
4.4688e-08
3.34779e-08
8.12259e-08
1.64476e-07
3.19543e-07
6.10413e-07
1.15394e-06
2.16123e-06
4.01013e-06
7.36865e-06
1.3402e-05
2.41135e-05
4.28925e-05
7.53771e-05
0.000130769
0.000223779
0.00037739
0.000626592
0.00102313
0.00164103
0.00258217
0.00398054
0.0060029
0.00884278
0.0127046
0.0177754
0.0241831
0.031946
0.0409202
0.0507588
0.0609008
0.0706079
0.0791029
0.0857397
0.0903054
0.0930102
0.094488
0.0953759
0.0958901
0.0961219
0.0962834
0.0964379
0.0965112
0.0965242
0.0965548
0.096592
0.0966182
0.0966349
0.0966372
0.0966372
0.0966244
0.0965272
0.0955689
0.093738
0.092621
0.0924209
0.0923933
0.0923493
0.0923204
0.0922803
0.0922532
0.0922013
0.0922013
0.0921592
0.0919954
0.0916736
0.0914416
0.0907924
0.0895739
0.0870987
0.0827511
0.0761726
0.0674488
0.0571938
0.0463734
0.0360005
0.026835
0.0192784
0.0134003
0.00904554
0.00594896
0.00382243
0.00240512
0.00148481
0.000900826
0.000537815
0.000316336
0.000183494
0.000105059
5.94183e-05
3.32191e-05
1.837e-05
1.00539e-05
5.44868e-06
2.92536e-06
1.55652e-06
8.20763e-07
4.28429e-07
2.19967e-07
1.08402e-07
4.46159e-08
3.34642e-08
8.11928e-08
1.64409e-07
3.19415e-07
6.10171e-07
1.15349e-06
2.16039e-06
4.0086e-06
7.36588e-06
1.33971e-05
2.41047e-05
4.28772e-05
7.53507e-05
0.000130724
0.000223705
0.000377269
0.000626398
0.00102283
0.00164057
0.00258148
0.00397954
0.0060015
0.0088409
0.0127022
0.0177724
0.0241796
0.0319422
0.0409166
0.0507558
0.060899
0.0706081
0.0791048
0.0857434
0.0903138
0.0930247
0.0945091
0.0953994
0.0959149
0.0961483
0.0963076
0.0964499
0.0965101
0.0965101
0.0965206
0.0965351
0.0965351
0.0965259
0.0965054
0.0964798
0.0963761
0.0959615
0.0946023
0.0930437
0.0924261
0.0923292
0.0923208
0.0922975
0.0922916
0.0922682
0.0922477
0.0921999
0.0921999
0.0921641
0.092009
0.0916944
0.0914595
0.0908055
0.0895824
0.0871047
0.082756
0.0761761
0.0674508
0.0571955
0.0463729
0.0359985
0.0268323
0.0192754
0.0133975
0.00904311
0.005947
0.00382093
0.00240403
0.00148404
0.000900304
0.00053747
0.000316114
0.000183354
0.000104973
5.93661e-05
3.3188e-05
1.83518e-05
1.00434e-05
5.44275e-06
2.92204e-06
1.55468e-06
8.19758e-07
4.27887e-07
2.1968e-07
1.08257e-07
4.45554e-08
3.34551e-08
8.11707e-08
1.64365e-07
3.1933e-07
6.1001e-07
1.15319e-06
2.15984e-06
4.00759e-06
7.36405e-06
1.33938e-05
2.40989e-05
4.28672e-05
7.53336e-05
0.000130695
0.000223657
0.000377191
0.000626274
0.00102263
0.00164027
0.00258104
0.00397891
0.00600062
0.00883971
0.0127007
0.0177705
0.0241774
0.0319397
0.0409139
0.0507531
0.0608966
0.0706062
0.0791037
0.085744
0.0903157
0.0930302
0.0945178
0.0954103
0.0959264
0.0961588
0.0963153
0.0964617
0.0965164
0.0965214
0.0965464
0.096578
0.0965967
0.0966114
0.0966114
0.0966116
0.0966116
0.0965399
0.0955792
0.0937133
0.0925898
0.0923688
0.0923471
0.0923132
0.0922973
0.092267
0.0922449
0.0922021
0.0922021
0.0921676
0.0920148
0.0917002
0.0914679
0.0908137
0.0895891
0.087107
0.0827564
0.0761761
0.0674508
0.0571948
0.0463719
0.0359972
0.0268306
0.0192736
0.0133958
0.00904162
0.00594578
0.00381998
0.00240332
0.00148354
0.000899959
0.00053724
0.000315964
0.000183259
0.000104914
5.93302e-05
3.31666e-05
1.83392e-05
1.00362e-05
5.43859e-06
2.91971e-06
1.55338e-06
8.19047e-07
4.27503e-07
2.19477e-07
1.08154e-07
4.45124e-08
3.34504e-08
8.11595e-08
1.64343e-07
3.19287e-07
6.09928e-07
1.15304e-06
2.15956e-06
4.00707e-06
7.3631e-06
1.33921e-05
2.40959e-05
4.28619e-05
7.53245e-05
0.00013068
0.000223631
0.000377148
0.000626206
0.00102253
0.00164011
0.0025808
0.00397855
0.00600011
0.00883901
0.0126997
0.0177693
0.0241759
0.031938
0.0409119
0.0507509
0.0608942
0.0706037
0.0791015
0.0857425
0.0903158
0.0930311
0.0945199
0.0954149
0.0959352
0.0961692
0.0963243
0.0964645
0.0965148
0.0965148
0.0965051
0.0965078
0.0965078
0.0964988
0.0965501
0.0966189
0.0966189
0.0964746
0.0953353
0.0935828
0.092557
0.0923199
0.0922702
0.0922293
0.0922261
0.0922185
0.0922159
0.0921965
0.0921965
0.0921657
0.0920153
0.0917001
0.0914674
0.0908133
0.0895876
0.0871054
0.0827546
0.0761743
0.0674492
0.0571933
0.0463704
0.0359956
0.0268291
0.0192722
0.0133946
0.00904057
0.00594495
0.00381936
0.00240287
0.00148323
0.000899747
0.0005371
0.000315875
0.000183203
0.000104879
5.93095e-05
3.31543e-05
1.83321e-05
1.00321e-05
5.43627e-06
2.91841e-06
1.55267e-06
8.18657e-07
4.27293e-07
2.19366e-07
1.08099e-07
4.44891e-08
)
;

boundaryField
{
    sides1
    {
        type            calculated;
        value           uniform 0;
    }
    sides2
    {
        type            calculated;
        value           uniform 0;
    }
    empty
    {
        type            empty;
    }
}


// ************************************************************************* //
