/*--------------------------------*- C++ -*----------------------------------*\
| =========                 |                                                 |
| \\      /  F ield         | OpenFOAM: The Open Source CFD Toolbox           |
|  \\    /   O peration     | Version:  3.0.1                                 |
|   \\  /    A nd           | Web:      www.OpenFOAM.org                      |
|    \\/     M anipulation  |                                                 |
\*---------------------------------------------------------------------------*/
FoamFile
{
    version     2.0;
    format      ascii;
    class       volScalarField;
    location    "0.0002";
    object      p;
}
// * * * * * * * * * * * * * * * * * * * * * * * * * * * * * * * * * * * * * //

dimensions      [1 -1 -2 0 0 0 0];

internalField   nonuniform List<scalar> 
1000
(
68970
68970
68970
68970
68970
68970
68969.9
68969.9
68969.7
68969.5
68969.1
68968.4
68967.1
68965
68961.3
68955.2
68945.2
68929.1
68903.7
68864.5
68805.4
68718.6
68594.5
68422.6
68192.2
67894.3
67524.2
67084.2
66585.9
66052.2
65517.1
65020.2
64602
64281.6
64073
63936.8
63864.6
63820.7
63791.6
63776.3
63767.2
63762.5
63757.1
63756.2
63756
63756.7
63755.7
63755.6
63753.5
63751
63745.9
63738.5
63743.9
63736.7
63733.2
63731
63728.7
63726.8
63724.9
63724
63720.8
63715.7
63709
63699.2
63673.6
63629.2
63570.6
63434.2
63219.9
62892.8
62460.2
61946.8
61399.3
60868.3
60394.5
60000.4
59691.3
59460.4
59294.9
59180.2
59103.2
59052.8
59020.6
59000.4
58988
58980.5
58976
58973.4
58971.9
58971.1
58970.6
58970.3
58970.2
58970.1
58970
58970
58970
58970
58970
58970
68970
68970
68970
68970
68970
68970
68969.9
68969.9
68969.7
68969.5
68969.1
68968.4
68967.1
68965
68961.3
68955.2
68945.2
68929.1
68903.7
68864.5
68805.5
68718.6
68594.6
68422.7
68192.3
67894.4
67524.4
67084.3
66585.9
66052
65516.7
65019.6
64601.1
64280.5
64071.8
63935.7
63864.1
63820.5
63792
63777.4
63768.4
63763.6
63758
63756.4
63755.9
63755.8
63754.5
63753.2
63750.5
63747.7
63744.5
63740.8
63741
63736.6
63733.2
63730.9
63728.8
63727
63725
63724
63720.8
63715.2
63708.4
63698.2
63673
63629.1
63571
63435.1
63221
62893.8
62460.9
61947.3
61399.6
60868.4
60394.4
60000.3
59691.2
59460.3
59294.8
59180.2
59103.2
59052.8
59020.6
59000.4
58988
58980.5
58976
58973.4
58971.9
58971.1
58970.6
58970.3
58970.2
58970.1
58970
58970
58970
58970
58970
58970
68970
68970
68970
68970
68970
68970
68969.9
68969.9
68969.7
68969.5
68969.1
68968.4
68967.1
68965
68961.3
68955.2
68945.2
68929.1
68903.8
68864.6
68805.5
68718.7
68594.7
68422.8
68192.4
67894.5
67524.4
67084.2
66585.7
66051.7
65516.1
65018.5
64599.7
64279.1
64071
63935.4
63864.5
63821.5
63793.1
63778.8
63770.4
63765.8
63760.4
63758.8
63758.2
63758
63756.6
63756.2
63754.6
63753.5
63746.8
63738.4
63741
63735.1
63731.5
63729.8
63727.9
63725.8
63723.9
63722.9
63719.6
63714.1
63707.2
63696.9
63671.5
63628
63570.5
63435.2
63221.9
62895
62462.1
61948.3
61400.2
60868.7
60394.6
60000.3
59691.1
59460.2
59294.7
59180.1
59103.1
59052.7
59020.5
59000.3
58988
58980.5
58976
58973.4
58971.9
58971.1
58970.6
58970.3
58970.2
58970.1
58970
58970
58970
58970
58970
58970
68970
68970
68970
68970
68970
68970
68969.9
68969.9
68969.7
68969.5
68969.1
68968.4
68967.1
68965
68961.3
68955.2
68945.2
68929.2
68903.8
68864.6
68805.6
68718.8
68594.8
68422.9
68192.6
67894.7
67524.6
67084.3
66585.6
66051.2
65515.2
65017.3
64598.3
64277.5
64069.9
63934.7
63864.5
63822.1
63793.9
63779.9
63771.8
63766.9
63761.2
63759.2
63758.1
63757.5
63755.9
63753.8
63750.2
63747.7
63744.9
63739.8
63740.7
63735.1
63732.5
63730.3
63727.9
63726.5
63724.6
63723.5
63719.9
63714
63706.3
63695.5
63670.3
63626.9
63569.9
63435.7
63222.9
62896.3
62463.4
61949.2
61400.8
60869
60394.6
60000.2
59691
59460.1
59294.6
59180
59103.1
59052.7
59020.5
59000.3
58987.9
58980.5
58976
58973.4
58971.9
58971.1
58970.6
58970.3
58970.2
58970.1
58970
58970
58970
58970
58970
58970
68970
68970
68970
68970
68970
68970
68969.9
68969.9
68969.7
68969.5
68969.1
68968.4
68967.1
68965
68961.3
68955.2
68945.3
68929.2
68903.8
68864.7
68805.6
68718.9
68594.9
68423.1
68192.7
67894.9
67524.7
67084.4
66585.5
66050.9
65514.6
65016.2
64596.7
64275.8
64068.5
63933.7
63864.1
63822.2
63794.1
63780.3
63772.5
63767.9
63762.5
63760.7
63760
63759.6
63758
63755.7
63751.8
63748.4
63745.8
63740.5
63742
63735
63732
63729.6
63727.3
63725.5
63723.4
63722.2
63718.7
63712.9
63705.2
63694.4
63669.2
63626.2
63570.3
63436.6
63224.3
62897.8
62464.7
61950.3
61401.4
60869.3
60394.7
60000.2
59690.8
59459.9
59294.4
59179.9
59103
59052.6
59020.4
59000.3
58987.9
58980.5
58976
58973.4
58971.9
58971.1
58970.6
58970.3
58970.2
58970.1
58970
58970
58970
58970
58970
58970
68970
68970
68970
68970
68970
68970
68969.9
68969.9
68969.7
68969.5
68969.1
68968.4
68967.1
68965
68961.3
68955.2
68945.3
68929.2
68903.8
68864.7
68805.7
68719
68595
68423.3
68192.9
67895.1
67525
67084.5
66585.5
66050.8
65514.1
65015.4
64595.6
64274.3
64067
63932.3
63862.9
63821.4
63793.5
63780
63772.5
63768.3
63763.1
63761.5
63761
63760.6
63759.1
63757.2
63753.7
63751.6
63746.7
63740.7
63742.8
63734.9
63731.8
63729.2
63726.8
63724.8
63722.7
63721.5
63718.3
63712.6
63704.9
63694.3
63669.1
63626.6
63571.3
63437.8
63225.7
62899.1
62465.8
61951
61401.9
60869.4
60394.7
60000
59690.7
59459.8
59294.3
59179.8
59102.9
59052.6
59020.4
59000.3
58987.9
58980.4
58976
58973.4
58971.9
58971.1
58970.6
58970.3
58970.2
58970.1
58970
58970
58970
58970
58970
58970
68970
68970
68970
68970
68970
68970
68969.9
68969.9
68969.7
68969.5
68969.1
68968.4
68967.1
68965
68961.3
68955.2
68945.3
68929.2
68903.9
68864.7
68805.7
68719
68595.1
68423.4
68193.1
67895.3
67525.2
67084.7
66585.7
66050.8
65513.9
65015
64594.9
64273.4
64065.7
63930.8
63861.4
63819.8
63792.2
63778.8
63771.3
63767.2
63761.9
63760.5
63760.2
63759.8
63758
63755.8
63752.6
63748.9
63745.9
63740.7
63741.1
63735.5
63732.8
63730
63727
63724.7
63722.5
63721.4
63718.4
63712.9
63705.4
63695.1
63670.3
63627.9
63572.7
63439.1
63226.9
62900
62466.5
61951.4
61402.1
60869.5
60394.6
59999.9
59690.5
59459.6
59294.2
59179.7
59102.8
59052.5
59020.4
59000.3
58987.9
58980.4
58976
58973.4
58971.9
58971.1
58970.6
58970.3
58970.2
58970.1
58970
58970
58970
58970
58970
58970
68970
68970
68970
68970
68970
68970
68969.9
68969.9
68969.7
68969.5
68969.1
68968.4
68967.1
68965
68961.3
68955.3
68945.3
68929.2
68903.9
68864.8
68805.8
68719.1
68595.2
68423.5
68193.2
67895.5
67525.4
67084.9
66585.9
66050.9
65514
65014.9
64594.7
64273
64065
63929.7
63859.9
63818.2
63790.5
63777.2
63769.8
63766
63761.2
63760.2
63760.1
63760.1
63758.8
63758.1
63755.6
63753.1
63746.8
63738.5
63741.3
63734.5
63730.8
63728.7
63726.5
63724.5
63722.8
63721.9
63718.9
63713.8
63706.6
63696.5
63672
63629.5
63573.7
63439.9
63227.4
62900.4
62466.7
61951.6
61402.1
60869.5
60394.5
59999.8
59690.4
59459.5
59294.1
59179.6
59102.8
59052.5
59020.3
59000.2
58987.9
58980.4
58976
58973.4
58971.9
58971.1
58970.6
58970.3
58970.2
58970.1
58970
58970
58970
58970
58970
58970
68970
68970
68970
68970
68970
68970
68969.9
68969.9
68969.7
68969.5
68969.1
68968.4
68967.1
68965
68961.3
68955.3
68945.3
68929.2
68903.9
68864.8
68805.8
68719.1
68595.3
68423.6
68193.3
67895.6
67525.5
67085.1
66586
66051
65514.1
65015
64594.7
64272.8
64064.6
63929.1
63859
63817
63789.3
63775.8
63768.2
63764.4
63759.6
63758.5
63758.2
63758.1
63756.7
63755.1
63752.2
63749
63745.5
63740.4
63741.1
63735.3
63732.5
63729.9
63727.4
63725.5
63723.8
63723.2
63720.6
63715.6
63708.2
63697.8
63673.1
63630.4
63574.3
63440.3
63227.6
62900.5
62466.7
61951.6
61402.1
60869.4
60394.4
59999.7
59690.3
59459.4
59294
59179.6
59102.7
59052.5
59020.3
59000.2
58987.9
58980.4
58976
58973.4
58971.9
58971.1
58970.6
58970.3
58970.2
58970.1
58970
58970
58970
58970
58970
58970
68970
68970
68970
68970
68970
68970
68969.9
68969.9
68969.7
68969.5
68969.1
68968.4
68967.1
68965
68961.3
68955.3
68945.3
68929.2
68903.9
68864.8
68805.8
68719.2
68595.3
68423.6
68193.4
67895.7
67525.6
67085.2
66586.2
66051.2
65514.3
65015.2
64594.9
64272.9
64064.6
63929
63858.9
63816.7
63788.7
63775.1
63767.6
63763.8
63759.1
63758.2
63758.1
63758.2
63757.1
63755.5
63751.5
63748.3
63744.9
63740
63741.6
63735
63732.2
63729.8
63727.5
63725.8
63724.4
63724
63721.4
63716.3
63708.8
63698.3
63673.6
63630.7
63574.5
63440.4
63227.5
62900.4
62466.6
61951.5
61402
60869.3
60394.4
59999.6
59690.3
59459.4
59294
59179.6
59102.7
59052.4
59020.3
59000.2
58987.9
58980.4
58976
58973.4
58971.9
58971.1
58970.6
58970.3
58970.2
58970.1
58970
58970
58970
58970
58970
58970
)
;

boundaryField
{
    sides1
    {
        type            zeroGradient;
    }
    sides2
    {
        type            slip;
    }
    empty
    {
        type            empty;
    }
}


// ************************************************************************* //
