/*--------------------------------*- C++ -*----------------------------------*\
| =========                 |                                                 |
| \\      /  F ield         | OpenFOAM: The Open Source CFD Toolbox           |
|  \\    /   O peration     | Version:  3.0.1                                 |
|   \\  /    A nd           | Web:      www.OpenFOAM.org                      |
|    \\/     M anipulation  |                                                 |
\*---------------------------------------------------------------------------*/
FoamFile
{
    version     2.0;
    format      ascii;
    class       surfaceScalarField;
    location    "0.0002";
    object      phi;
}
// * * * * * * * * * * * * * * * * * * * * * * * * * * * * * * * * * * * * * //

dimensions      [1 0 -1 0 0 0 0];

internalField   nonuniform List<scalar> 
1890
(
6.37859e-10
-8.02657e-14
1.54761e-09
-1.25023e-13
3.13376e-09
-2.24114e-13
6.08823e-09
-4.29237e-13
1.16301e-08
-8.27387e-13
2.19856e-08
-1.58937e-12
4.11766e-08
-3.03065e-12
7.64014e-08
-5.72868e-12
1.40386e-07
-1.07278e-11
2.55326e-07
-1.98884e-11
4.59381e-07
-3.64789e-11
8.1711e-07
-6.61489e-11
1.43589e-06
-1.18492e-10
2.49094e-06
-2.09487e-10
4.26236e-06
-3.65157e-10
7.1876e-06
-6.26841e-10
1.19325e-05
-1.05832e-09
1.94811e-05
-1.75469e-09
3.124e-05
-2.85194e-09
4.91429e-05
-4.5347e-09
7.57278e-05
-7.03673e-09
0.000114143
-1.06256e-08
0.000168026
-1.55591e-08
0.000241183
-2.19976e-08
0.000337035
-2.98624e-08
0.000457819
-3.86394e-08
0.000603623
-4.7168e-08
0.000771425
-5.35476e-08
0.0009544
-5.25463e-08
0.00114184
-3.74128e-08
0.00131999
5.25218e-09
0.0014748
4.07394e-08
0.00159483
9.37738e-08
0.00167725
1.61633e-07
0.00172638
2.08273e-07
0.00175308
2.86502e-07
0.00176979
2.57097e-07
0.00177915
2.44859e-07
0.00178376
2.09084e-07
0.00178677
3.16152e-07
0.00178976
7.77792e-08
0.00179073
1.59402e-07
0.00179037
2.3561e-07
0.00179028
3.91632e-07
0.0017902
4.57047e-07
0.00178956
6.37456e-07
0.00178894
6.58262e-07
0.00178829
4.73767e-07
0.00178698
1.08275e-06
0.00178108
3.40432e-06
0.0017554
3.74669e-06
0.00172354
-2.50399e-06
0.00170917
-3.8319e-06
0.001707
-9.51201e-07
0.00170678
-4.37859e-07
0.00170681
-5.59589e-07
0.0017071
-6.17002e-07
0.00170734
-5.59667e-07
0.00170744
-5.20025e-07
0.00170719
-4.2916e-07
0.00170745
-2.83054e-07
0.0017068
-3.04703e-07
0.00170327
-2.41445e-07
0.00169739
-2.09027e-07
0.00169123
-2.86237e-07
0.00167719
-1.60545e-07
0.00164934
-2.7701e-07
0.00159664
-2.35644e-07
0.00150595
-1.99837e-07
0.00137242
-1.47091e-07
0.00119984
-9.06593e-08
0.0010028
-4.43018e-08
0.000801069
1.27083e-08
0.000613318
2.12859e-08
0.000451745
3.74747e-08
0.00032144
3.613e-08
0.000221819
3.09618e-08
0.000148957
2.44531e-08
9.76188e-05
1.81432e-08
6.25807e-05
1.28177e-08
3.93221e-05
8.70197e-09
2.42571e-05
5.71459e-09
1.47114e-05
3.64759e-09
8.7822e-06
2.2713e-09
5.1659e-06
1.38366e-09
2.99699e-06
8.26555e-10
1.71627e-06
4.85081e-10
9.70889e-07
2.80116e-10
5.42922e-07
1.59375e-10
3.00302e-07
8.94456e-11
1.64392e-07
4.95661e-11
8.91106e-08
2.71442e-11
4.78526e-08
1.4702e-11
2.5466e-08
7.88135e-12
1.34308e-08
4.18522e-12
7.01187e-09
2.20432e-12
3.6006e-09
1.15648e-12
1.77463e-09
6.10549e-13
7.30458e-10
3.4426e-13
2.23051e-13
6.37714e-10
-1.48237e-13
1.54725e-09
-2.30744e-13
3.13304e-09
-4.13015e-13
6.08682e-09
-7.90132e-13
1.16273e-08
-1.52087e-12
2.19804e-08
-2.91804e-12
4.11668e-08
-5.55633e-12
7.63831e-08
-1.04885e-11
1.40352e-07
-1.96125e-11
2.55265e-07
-3.6304e-11
4.59269e-07
-6.64834e-11
8.1691e-07
-1.20355e-10
1.43553e-06
-2.1522e-10
2.49033e-06
-3.79801e-10
4.26131e-06
-6.60774e-10
7.18584e-06
-1.13205e-09
1.19296e-05
-1.90732e-09
1.94764e-05
-3.15549e-09
3.12327e-05
-5.11715e-09
4.91316e-05
-8.11742e-09
7.57109e-05
-1.25656e-08
0.000114119
-1.89266e-08
0.000167992
-2.76412e-08
0.000241139
-3.89717e-08
0.00033698
-5.27548e-08
0.000457757
-6.80916e-08
0.000603561
-8.31657e-08
0.000771381
-9.63396e-08
0.000954383
-7.66768e-08
0.00114188
-5.412e-08
0.00132011
-2.31688e-08
0.00147501
4.83714e-08
0.00159515
1.55508e-07
0.00167766
2.84419e-07
0.00172676
3.55208e-07
0.00175338
4.87005e-07
0.00176995
4.42169e-07
0.00177915
4.06331e-07
0.00178361
3.33319e-07
0.00178653
3.86048e-07
0.00178943
1.78195e-07
0.00179062
3.02411e-07
0.0017907
1.94897e-07
0.00179101
2.2457e-07
0.00179159
2.42824e-07
0.00179197
2.70607e-07
0.00179224
3.54692e-07
0.00179219
4.27962e-07
0.00179256
5.56638e-07
0.001793
-1.37164e-06
0.00177657
-1.41665e-06
0.00173854
2.75781e-06
0.00171423
2.29202e-06
0.00170972
5.51547e-08
0.00170934
-6.12618e-07
0.00170887
-5.57122e-07
0.00170852
-5.69123e-07
0.00170822
-4.98688e-07
0.00170789
-5.03627e-07
0.00170744
-5.16624e-07
0.00170753
-5.61799e-07
0.00170667
-4.87849e-07
0.00170314
-5.28815e-07
0.00169722
-2.965e-07
0.00169105
-3.88773e-07
0.00167727
-3.11032e-07
0.00164962
-4.81347e-07
0.00159704
-4.16961e-07
0.00150636
-3.61542e-07
0.00137276
-2.61311e-07
0.00120006
-1.56204e-07
0.0010029
-5.50177e-08
0.000801118
4.08261e-09
0.000613319
1.92729e-08
0.000451709
7.38123e-08
0.000321394
6.40322e-08
0.000221775
5.4659e-08
0.000148921
4.33661e-08
9.7591e-05
3.23512e-08
6.25606e-05
2.29736e-08
3.93083e-05
1.5672e-08
2.42479e-05
1.03382e-08
1.47055e-05
6.62675e-09
8.77849e-06
4.14282e-09
5.16362e-06
2.53329e-09
2.99562e-06
1.5187e-09
1.71546e-06
8.94286e-10
9.70421e-07
5.18069e-10
5.42654e-07
2.95655e-10
3.00151e-07
1.66407e-10
1.64308e-07
9.24647e-11
8.90647e-08
5.0768e-11
4.78276e-08
2.75639e-11
2.54526e-08
1.4811e-11
1.34237e-08
7.8818e-12
7.00812e-09
4.16011e-12
3.59866e-09
2.18678e-12
1.77368e-09
1.15677e-12
7.30064e-10
6.53512e-13
4.24259e-13
6.37452e-10
-1.95179e-13
1.54662e-09
-3.03105e-13
3.13175e-09
-5.41886e-13
6.08431e-09
-1.03478e-12
1.16225e-08
-1.98935e-12
2.19714e-08
-3.81099e-12
4.11498e-08
-7.24631e-12
7.63517e-08
-1.3659e-11
1.40294e-07
-2.5503e-11
2.5516e-07
-4.71411e-11
4.59082e-07
-8.62e-11
8.16581e-07
-1.55827e-10
1.43496e-06
-2.78245e-10
2.48935e-06
-4.90332e-10
4.25967e-06
-8.51892e-10
7.18313e-06
-1.45754e-09
1.19252e-05
-2.45266e-09
1.94695e-05
-4.05311e-09
3.12221e-05
-6.56648e-09
4.91159e-05
-1.04091e-08
7.56885e-05
-1.61071e-08
0.000114088
-2.42641e-08
0.000167952
-3.54666e-08
0.00024109
-5.00982e-08
0.000336928
-6.80317e-08
0.000457709
-8.81801e-08
0.000603532
-1.07874e-07
0.000771382
-1.21461e-07
0.000954442
-1.09588e-07
0.00114205
-1.46728e-07
0.0013204
-5.70428e-08
0.00147544
4.59603e-08
0.00159565
1.59588e-07
0.00167812
3.05664e-07
0.00172703
3.91617e-07
0.0017534
5.51652e-07
0.00176993
4.60718e-07
0.00177907
5.59691e-07
0.0017835
3.93507e-07
0.0017864
4.75252e-07
0.00178919
3.52948e-07
0.00179037
3.95961e-07
0.00179038
3.70411e-07
0.00179074
2.41202e-07
0.00179129
2.05853e-07
0.00179129
3.40713e-07
0.0017911
5.92737e-07
0.00179039
1.13519e-06
0.00178874
2.33592e-06
0.00178036
4.4507e-06
0.0017546
2.56152e-06
0.00172572
-2.77195e-06
0.00171373
-4.12391e-06
0.00171156
-9.83387e-07
0.0017107
-3.29854e-07
0.00171007
-4.0212e-07
0.00170954
-5.18581e-07
0.00170903
-1.90453e-07
0.00170844
-2.15418e-07
0.00170779
-4.13458e-07
0.00170769
-6.03358e-07
0.00170685
-6.9919e-07
0.0017033
-8.0101e-07
0.00169726
-2.48472e-07
0.00169092
-3.10194e-07
0.00167718
-4.48291e-07
0.00164966
-4.87595e-07
0.00159735
-4.79078e-07
0.00150681
-4.04109e-07
0.00137323
-2.90413e-07
0.00120046
-1.63129e-07
0.00100318
-6.49422e-08
0.000801255
2.60725e-08
0.000613371
2.95964e-08
0.00045172
8.33062e-08
0.000321371
8.39211e-08
0.000221737
7.19301e-08
0.000148883
5.6744e-08
9.75578e-05
4.21705e-08
6.25347e-05
2.99065e-08
3.92894e-05
2.04108e-08
2.42348e-05
1.34862e-08
1.46967e-05
8.66531e-09
8.77282e-06
5.43281e-09
5.16005e-06
3.33261e-09
2.99343e-06
2.00453e-09
1.71414e-06
1.18438e-09
9.69644e-07
6.8847e-10
5.42203e-07
3.94235e-10
2.99894e-07
2.22631e-10
1.64163e-07
1.2411e-10
8.8984e-08
6.83582e-11
4.77834e-08
3.72297e-11
2.54286e-08
2.00624e-11
1.34108e-08
1.0708e-11
7.00129e-09
5.66675e-12
3.59511e-09
2.98709e-12
1.7719e-09
1.58425e-12
7.2933e-10
8.97508e-13
5.83581e-13
6.37103e-10
-2.1644e-13
1.54577e-09
-3.35312e-13
3.13003e-09
-5.98046e-13
6.08097e-09
-1.13964e-12
1.16162e-08
-2.18627e-12
2.19594e-08
-4.18022e-12
4.11274e-08
-7.93327e-12
7.63102e-08
-1.49243e-11
1.40218e-07
-2.78142e-11
2.55023e-07
-5.13119e-11
4.58838e-07
-9.36541e-11
8.1615e-07
-1.68976e-10
1.43421e-06
-3.01168e-10
2.48807e-06
-5.29743e-10
4.25752e-06
-9.18714e-10
7.17959e-06
-1.56913e-09
1.19195e-05
-2.63608e-09
1.94605e-05
-4.34955e-09
3.12082e-05
-7.03724e-09
4.90951e-05
-1.11429e-08
7.56584e-05
-1.72296e-08
0.000114046
-2.59472e-08
0.000167897
-3.794e-08
0.00024102
-5.36585e-08
0.000336846
-7.3049e-08
0.000457623
-9.5109e-08
0.000603456
-1.1735e-07
0.000771345
-1.35417e-07
0.000954505
-1.44974e-07
0.00114218
-1.06401e-07
0.00132069
-7.14056e-08
0.00147586
-6.03377e-09
0.00159615
1.14904e-07
0.00167859
2.63567e-07
0.0017273
3.67061e-07
0.00175344
5.30526e-07
0.00176978
5.00987e-07
0.00177881
6.43339e-07
0.00178299
5.32842e-07
0.00178564
6.99826e-07
0.00178828
5.47005e-07
0.00178933
6.7906e-07
0.00178943
6.01944e-07
0.00178962
5.66837e-07
0.00178994
5.0975e-07
0.00178992
4.64706e-07
0.00179002
5.64819e-07
0.00179057
7.93287e-07
0.00179198
9.87327e-07
0.00179049
1.57948e-06
0.00177168
-4.75256e-07
0.00173558
2.40822e-08
0.00171438
-1.14695e-06
0.00171066
-7.17221e-07
0.00171029
-6.00713e-07
0.00170984
-4.02486e-07
0.00170944
-2.43777e-07
0.00170908
-2.53339e-07
0.00170859
-3.11202e-07
0.00170774
-3.87306e-07
0.0017074
-4.97524e-07
0.00170632
-5.06986e-07
0.00170237
-5.35552e-07
0.00169641
-4.06483e-07
0.0016903
-5.61259e-07
0.00167674
-4.87816e-07
0.00164965
-5.62397e-07
0.00159763
-4.8493e-07
0.00150727
-3.8186e-07
0.00137373
-2.57088e-07
0.00120088
-1.34662e-07
0.00100348
-2.12594e-08
0.000801419
3.80354e-08
0.000613409
5.3443e-08
0.000451687
9.89098e-08
0.000321312
9.26211e-08
0.000221674
7.85585e-08
0.000148826
6.17945e-08
9.75112e-05
4.59137e-08
6.24993e-05
3.2605e-08
3.92639e-05
2.23067e-08
2.42172e-05
1.47862e-08
1.4685e-05
9.53605e-09
8.76527e-06
6.00313e-09
5.1553e-06
3.69824e-09
2.99051e-06
2.23421e-09
1.71238e-06
1.32592e-09
9.686e-07
7.74125e-10
5.41596e-07
4.45194e-10
2.99546e-07
2.52468e-10
1.63966e-07
1.41318e-10
8.88743e-08
7.81446e-11
4.77229e-08
4.27197e-11
2.53957e-08
2.31067e-11
1.33931e-08
1.23748e-11
6.99186e-09
6.5714e-12
3.59019e-09
3.47524e-12
1.76945e-09
1.84894e-12
7.28312e-10
1.05109e-12
6.84878e-13
6.36716e-10
-2.11796e-13
1.54483e-09
-3.27096e-13
3.12813e-09
-5.81913e-13
6.07729e-09
-1.10641e-12
1.16092e-08
-2.11764e-12
2.19462e-08
-4.04053e-12
4.11028e-08
-7.65076e-12
7.62648e-08
-1.4363e-11
1.40136e-07
-2.67075e-11
2.54874e-07
-4.91659e-11
4.58572e-07
-8.95344e-11
8.15683e-07
-1.61194e-10
1.4334e-06
-2.86656e-10
2.48669e-06
-5.03119e-10
4.25521e-06
-8.70641e-10
7.17578e-06
-1.48388e-09
1.19133e-05
-2.48778e-09
1.94508e-05
-4.09705e-09
3.11934e-05
-6.61742e-09
4.9073e-05
-1.04635e-08
7.56265e-05
-1.61633e-08
0.000114002
-2.43337e-08
0.000167838
-3.56029e-08
0.000240947
-5.04563e-08
0.000336761
-6.89812e-08
0.000457534
-9.05104e-08
0.000603381
-1.13201e-07
0.000771308
-1.3366e-07
0.000954518
-1.46479e-07
0.00114233
-1.34747e-07
0.00132096
-1.11519e-07
0.00147629
-5.76264e-08
0.00159668
2.0235e-08
0.00167916
1.30135e-07
0.00172777
2.30504e-07
0.00175377
3.73538e-07
0.00177005
4.34562e-07
0.00177908
5.8223e-07
0.00178321
5.71897e-07
0.00178607
7.17675e-07
0.00178887
6.11875e-07
0.00178994
8.47729e-07
0.00178999
7.3474e-07
0.00179025
7.88062e-07
0.0017906
7.45963e-07
0.0017905
7.26686e-07
0.0017906
6.62655e-07
0.00179125
4.32954e-07
0.00179303
-5.8928e-07
0.00179028
2.90298e-07
0.00176861
-6.58114e-07
0.00173412
1.20359e-06
0.00171484
1.14846e-07
0.00171058
1.21361e-07
0.00170928
-9.3022e-08
0.00170856
-3.44121e-07
0.00170842
-5.15972e-07
0.00170823
-5.68212e-07
0.00170778
-5.43849e-07
0.00170701
-5.41367e-07
0.00170678
-5.71681e-07
0.00170598
-5.56453e-07
0.00170235
-6.05874e-07
0.0016963
-5.43451e-07
0.00169025
-6.30822e-07
0.00167691
-4.79552e-07
0.00164997
-4.83081e-07
0.00159814
-3.704e-07
0.00150786
-2.65752e-07
0.00137427
-1.55253e-07
0.00120131
-5.8058e-08
0.00100375
1.36366e-08
0.000801559
6.21469e-08
0.000613444
8.59735e-08
0.000451662
1.00458e-07
0.000321256
9.16415e-08
0.000221609
7.63655e-08
0.000148765
5.95956e-08
9.74616e-05
4.41778e-08
6.24614e-05
3.14016e-08
3.92365e-05
2.1545e-08
2.41982e-05
1.43387e-08
1.46723e-05
9.29107e-09
8.75699e-06
5.87876e-09
5.15006e-06
3.6408e-09
2.98727e-06
2.21129e-09
1.71041e-06
1.3193e-09
9.67431e-07
7.74285e-10
5.40912e-07
4.47552e-10
2.99152e-07
2.55055e-10
1.63743e-07
1.43443e-10
8.87491e-08
7.96789e-11
4.76536e-08
4.37493e-11
2.53578e-08
2.376e-11
1.33726e-08
1.27759e-11
6.98093e-09
6.80976e-12
3.58447e-09
3.61431e-12
1.76658e-09
1.93001e-12
7.27119e-10
1.10106e-12
7.19112e-13
6.36337e-10
-1.87211e-13
1.54391e-09
-2.88046e-13
3.12628e-09
-5.11003e-13
6.07371e-09
-9.68451e-13
1.16024e-08
-1.84863e-12
2.19334e-08
-3.51675e-12
4.1079e-08
-6.64134e-12
7.62211e-08
-1.24317e-11
1.40056e-07
-2.3053e-11
2.54731e-07
-4.23156e-11
4.58317e-07
-7.68439e-11
8.15237e-07
-1.37945e-10
1.43263e-06
-2.44612e-10
2.48538e-06
-4.28084e-10
4.25301e-06
-7.38675e-10
7.17218e-06
-1.25539e-09
1.19076e-05
-2.0989e-09
1.94417e-05
-3.44751e-09
3.11794e-05
-5.55474e-09
4.90522e-05
-8.76453e-09
7.55964e-05
-1.35166e-08
0.00011396
-2.03302e-08
0.000167782
-2.97496e-08
0.000240876
-4.22349e-08
0.000336677
-5.79838e-08
0.000457444
-7.66862e-08
0.000603295
-9.72372e-08
0.000771245
-1.17459e-07
0.000954504
-1.33911e-07
0.0011424
-1.41856e-07
0.00132114
-1.38389e-07
0.00147659
-1.02458e-07
0.00159708
-6.44812e-08
0.00167962
-2.08891e-08
0.0017282
6.55963e-08
0.00175411
1.56288e-07
0.00177029
2.93646e-07
0.00177922
4.14751e-07
0.0017833
4.86503e-07
0.0017861
6.59477e-07
0.00178878
6.79103e-07
0.00178989
8.48769e-07
0.00178993
8.18262e-07
0.00179023
9.43138e-07
0.00179072
8.61732e-07
0.00179092
7.77969e-07
0.00179146
4.58932e-07
0.00179227
1.31692e-08
0.0017931
-1.2061e-06
0.00179004
-8.4443e-07
0.00176715
1.9852e-07
0.0017348
-1.32297e-09
0.00171673
-7.94969e-08
0.00171283
5.01853e-07
0.00171176
1.18888e-07
0.00171086
-1.43373e-07
0.00171019
-3.55545e-07
0.00170946
-3.89027e-07
0.00170862
-3.90018e-07
0.00170754
-4.35952e-07
0.00170718
-4.98731e-07
0.00170631
-4.96719e-07
0.00170254
-5.31091e-07
0.0016964
-4.75894e-07
0.00169039
-4.90805e-07
0.00167721
-3.42283e-07
0.00165038
-2.63831e-07
0.00159862
-1.62278e-07
0.00150833
-9.67412e-08
0.00137468
-3.74437e-08
0.00120161
1.73428e-08
0.00100394
5.21437e-08
0.000801634
9.07933e-08
0.000613449
9.48864e-08
0.000451619
9.14929e-08
0.000321193
8.06246e-08
0.000221543
6.61773e-08
0.000148706
5.13487e-08
9.74136e-05
3.80439e-08
6.24248e-05
2.71091e-08
3.921e-05
1.86794e-08
2.41798e-05
1.24975e-08
1.46599e-05
8.14536e-09
8.74891e-06
5.18523e-09
5.14492e-06
3.23101e-09
2.98407e-06
1.97429e-09
1.70846e-06
1.18486e-09
9.66266e-07
6.99343e-10
5.40227e-07
4.0644e-10
2.98755e-07
2.32829e-10
1.63517e-07
1.3159e-10
8.86217e-08
7.34366e-11
4.75828e-08
4.04985e-11
2.53189e-08
2.20872e-11
1.33515e-08
1.19224e-11
6.96962e-09
6.37843e-12
3.57853e-09
3.39777e-12
1.7636e-09
1.82028e-12
7.25877e-10
1.0423e-12
6.82212e-13
6.36004e-10
-1.47935e-13
1.54311e-09
-2.26798e-13
3.12467e-09
-4.01139e-13
6.07059e-09
-7.58013e-13
1.15965e-08
-1.44277e-12
2.19223e-08
-2.7376e-12
4.10585e-08
-5.15478e-12
7.61833e-08
-9.62303e-12
1.39987e-07
-1.77923e-11
2.54608e-07
-3.25651e-11
4.58099e-07
-5.89581e-11
8.14855e-07
-1.05516e-10
1.43198e-06
-1.86516e-10
2.48426e-06
-3.25371e-10
4.25115e-06
-5.59604e-10
7.16913e-06
-9.47924e-10
1.19027e-05
-1.57959e-09
1.9434e-05
-2.58606e-09
3.11677e-05
-4.15362e-09
4.90347e-05
-6.53466e-09
7.55712e-05
-1.00523e-08
0.000113925
-1.5091e-08
0.000167735
-2.20635e-08
0.000240816
-3.13441e-08
0.000336605
-4.31622e-08
0.000457363
-5.74628e-08
0.000603213
-7.37533e-08
0.000771176
-9.0983e-08
0.000954466
-1.07542e-07
0.0011424
-1.2145e-07
0.0013212
-1.29787e-07
0.00147672
-1.28951e-07
0.0015973
-1.19084e-07
0.00167989
-8.38489e-08
0.00172854
-4.11507e-08
0.00175449
2.61864e-08
0.00177067
1.21663e-07
0.00177953
2.37084e-07
0.00178361
3.14355e-07
0.00178645
4.34045e-07
0.00178932
4.25347e-07
0.0017906
5.32664e-07
0.00179075
5.24678e-07
0.00179136
6.15368e-07
0.00179208
5.66632e-07
0.00179254
4.48593e-07
0.00179285
3.42755e-07
0.00179277
2.25221e-07
0.00179239
-7.60101e-07
0.00179004
-2.7e-06
0.00177121
-2.83433e-06
0.0017362
2.04732e-06
0.0017153
3.23667e-06
0.00171195
6.06932e-07
0.00171127
5.79459e-08
0.00171048
-4.53241e-08
0.0017097
-1.05752e-07
0.00170898
-2.41655e-07
0.00170828
-3.09821e-07
0.00170733
-2.98858e-07
0.00170712
-4.6543e-07
0.00170634
-3.64247e-07
0.00170269
-3.5361e-07
0.00169663
-2.82674e-07
0.00169069
-2.67814e-07
0.00167758
-1.703e-07
0.00165077
-5.95863e-08
0.001599
-3.36077e-09
0.00150865
1.89878e-08
0.00137494
3.8287e-08
0.00120179
5.22116e-08
0.00100402
8.73166e-08
0.000801668
8.24338e-08
0.000613438
8.1304e-08
0.000451575
7.38218e-08
0.000321135
6.30998e-08
0.000221486
5.10967e-08
0.000148656
3.94746e-08
9.73723e-05
2.92709e-08
6.23933e-05
2.09369e-08
3.91871e-05
1.45047e-08
2.41638e-05
9.76517e-09
1.46491e-05
6.4066e-09
8.74181e-06
4.10552e-09
5.14038e-06
2.57493e-09
2.98123e-06
1.58332e-09
1.70672e-06
9.55934e-10
9.65217e-07
5.67439e-10
5.39607e-07
3.3155e-10
2.98395e-07
1.90887e-10
1.6331e-07
1.08394e-10
8.85047e-08
6.07589e-11
4.75175e-08
3.3646e-11
2.52829e-08
1.84199e-11
1.33319e-08
9.97908e-12
6.95907e-09
5.35666e-12
3.57297e-09
2.86253e-12
1.7608e-09
1.53838e-12
7.24707e-10
8.83613e-13
5.79346e-13
6.35744e-10
-1.00869e-13
1.54248e-09
-1.54335e-13
3.1234e-09
-2.72164e-13
6.06816e-09
-5.12946e-13
1.15919e-08
-9.73737e-13
2.19137e-08
-1.84269e-12
4.10426e-08
-3.461e-12
7.61542e-08
-6.44297e-12
1.39935e-07
-1.188e-11
2.54513e-07
-2.16807e-11
4.57932e-07
-3.9136e-11
8.14564e-07
-6.98229e-11
1.43148e-06
-1.23029e-10
2.48342e-06
-2.13902e-10
4.24974e-06
-3.66621e-10
7.16683e-06
-6.18811e-10
1.1899e-05
-1.02741e-09
1.94283e-05
-1.67582e-09
3.11588e-05
-2.68174e-09
4.90216e-05
-4.20407e-09
7.55522e-05
-6.44615e-09
0.000113899
-9.65128e-09
0.0001677
-1.40859e-08
0.00024077
-2.00061e-08
0.000336548
-2.76083e-08
0.000457297
-3.69686e-08
0.000603143
-4.79894e-08
0.000771108
-6.03841e-08
0.00095441
-7.37e-08
0.00114237
-8.75162e-08
0.0013212
-1.01145e-07
0.00147675
-1.12922e-07
0.00159736
-1.12107e-07
0.00168004
-1.12301e-07
0.0017288
-8.36618e-08
0.00175487
-5.4905e-08
0.00177109
3.64571e-09
0.00177997
5.65285e-08
0.00178408
9.92996e-08
0.00178688
1.67664e-07
0.00178952
2.42508e-07
0.00179055
2.5497e-07
0.00179044
3.67158e-07
0.00179068
4.13575e-07
0.00179098
4.12901e-07
0.00179076
4.81195e-07
0.00179036
5.59012e-07
0.00178976
6.95788e-07
0.0017877
1.23413e-06
0.00177921
3.40072e-06
0.00175207
2.45418e-06
0.00172251
-2.83003e-06
0.00171155
-4.10381e-06
0.00171004
-1.01279e-06
0.00170981
-3.41569e-07
0.00170942
-2.15088e-07
0.00170912
-1.79113e-07
0.00170874
-2.44181e-07
0.00170818
-3.1747e-07
0.00170734
-2.12307e-07
0.00170712
-1.23009e-07
0.00170646
-4.50665e-08
0.00170299
-2.03345e-08
0.00169707
-3.27207e-08
0.00169108
4.35625e-09
0.00167786
-8.66436e-10
0.00165096
4.13979e-08
0.00159913
2.76202e-08
0.00150876
6.05023e-08
0.00137501
6.58862e-08
0.00120183
7.10421e-08
0.00100405
7.25984e-08
0.000801658
6.63181e-08
0.000613403
5.83279e-08
0.000451527
5.03875e-08
0.000321085
4.20394e-08
0.000221439
3.3729e-08
0.000148615
2.60325e-08
9.734e-05
1.93702e-08
6.23688e-05
1.39337e-08
3.91692e-05
9.71731e-09
2.41513e-05
6.58766e-09
1.46406e-05
4.35176e-09
8.7362e-06
2.80721e-09
5.13676e-06
1.77168e-09
2.97895e-06
1.09578e-09
1.70532e-06
6.65177e-10
9.64369e-07
3.96832e-10
5.39103e-07
2.32942e-10
2.981e-07
1.34687e-10
1.6314e-07
7.67826e-11
8.84083e-08
4.31954e-11
4.74635e-08
2.39992e-11
2.5253e-08
1.31794e-11
1.33155e-08
7.15986e-12
6.95026e-09
3.85354e-12
3.56832e-09
2.06433e-12
1.75845e-09
1.11196e-12
7.23724e-10
6.40195e-13
4.20363e-13
6.35569e-10
-5.0725e-14
1.54206e-09
-7.73583e-14
3.12256e-09
-1.36289e-13
6.06654e-09
-2.563e-13
1.15888e-08
-4.85795e-13
2.1908e-08
-9.17634e-13
4.1032e-08
-1.72001e-12
7.6135e-08
-3.19552e-12
1.399e-07
-5.87888e-12
2.54451e-07
-1.07034e-11
4.57823e-07
-1.92712e-11
8.14374e-07
-3.42874e-11
1.43115e-06
-6.02337e-11
2.48287e-06
-1.04386e-10
4.24883e-06
-1.78282e-10
7.16535e-06
-2.99761e-10
1.18966e-05
-4.95602e-10
1.94246e-05
-8.04679e-10
3.11532e-05
-1.28127e-09
4.90133e-05
-1.99773e-09
7.55402e-05
-3.04537e-09
0.000113882
-4.53166e-09
0.000167677
-6.57246e-09
0.000240741
-9.27835e-09
0.000336512
-1.27373e-08
0.000457255
-1.69993e-08
0.000603095
-2.20752e-08
0.000771058
-2.79547e-08
0.000954361
-3.46547e-08
0.00114233
-4.21979e-08
0.00132117
-5.03657e-08
0.00147673
-5.8685e-08
0.00159737
-6.35658e-08
0.00168006
-6.96841e-08
0.00172889
-7.7269e-08
0.00175502
-5.774e-08
0.00177128
-1.64265e-08
0.00178016
7.51802e-09
0.00178425
6.51961e-09
0.00178699
6.28107e-08
0.0017897
3.14445e-08
0.00179063
4.10822e-08
0.00179064
1.72676e-08
0.00179113
-6.91606e-08
0.00179175
-8.53304e-08
0.00179208
-8.80217e-08
0.00179235
8.37986e-08
0.00179216
7.63953e-07
0.00179216
1.18615e-06
0.00179029
8.74167e-07
0.0017714
-4.97723e-07
0.00173572
-2.90019e-07
0.00171468
-1.26494e-06
0.00171091
-6.75235e-07
0.00171036
-4.51512e-07
0.00170976
-1.63854e-07
0.00170926
3.62187e-08
0.00170873
8.11585e-08
0.00170815
5.33334e-08
0.00170739
3.07436e-08
0.0017072
2.05561e-08
0.00170658
2.91847e-09
0.00170314
1.97951e-08
0.00169721
2.1636e-08
0.00169127
4.35814e-08
0.00167803
4.12521e-08
0.00165111
4.75789e-08
0.00159918
4.77261e-08
0.00150877
5.3859e-08
0.00137501
4.92771e-08
0.00120183
4.69562e-08
0.00100404
4.05955e-08
0.000801641
3.41816e-08
0.000613378
2.89071e-08
0.000451498
2.44181e-08
0.000321054
2.02502e-08
0.00022141
1.62901e-08
0.00014859
1.26534e-08
9.73198e-05
9.48725e-09
6.23532e-05
6.87757e-09
3.91577e-05
4.83174e-09
2.41431e-05
3.29775e-09
1.4635e-05
2.1918e-09
8.73245e-06
1.42163e-09
5.13433e-06
9.01611e-10
2.97741e-06
5.6008e-10
1.70436e-06
3.41312e-10
9.63786e-07
2.04327e-10
5.38755e-07
1.20312e-10
2.97895e-07
6.97567e-11
1.63022e-07
3.98651e-11
8.83409e-08
2.24763e-11
4.74256e-08
1.25127e-11
2.5232e-08
6.88347e-12
1.3304e-08
3.74559e-12
6.94403e-09
2.01877e-12
3.56501e-09
1.08289e-12
1.75678e-09
5.84029e-13
7.23024e-10
3.36634e-13
2.21186e-13
6.35482e-10
1.54185e-09
3.12213e-09
6.06572e-09
1.15872e-08
2.19051e-08
4.10266e-08
7.6125e-08
1.39882e-07
2.54419e-07
4.57766e-07
8.14274e-07
1.43098e-06
2.48257e-06
4.24834e-06
7.16455e-06
1.18953e-05
1.94226e-05
3.11501e-05
4.90086e-05
7.55334e-05
0.000113872
0.000167664
0.000240724
0.00033649
0.000457228
0.000603063
0.000771021
0.00095432
0.00114228
0.00132112
0.00147669
0.00159734
0.00168007
0.00172892
0.00175505
0.00177136
0.00178032
0.00178443
0.00178714
0.00178974
0.00179058
0.0017903
0.00179032
0.00179042
0.00179017
0.0017902
0.00179104
0.00179232
0.00178904
0.00176663
0.00173317
0.00171404
0.00171
0.00170885
0.00170811
0.00170787
0.00170778
0.0017076
0.0017071
0.00170711
0.00170656
0.00170317
0.00169722
0.00169127
0.00167803
0.00165108
0.00159915
0.00150873
0.00137498
0.0012018
0.00100401
0.000801612
0.000613351
0.000451472
0.00032103
0.000221389
0.000148573
9.73062e-05
6.2343e-05
3.91504e-05
2.4138e-05
1.46315e-05
8.73018e-06
5.13287e-06
2.9765e-06
1.7038e-06
9.63449e-07
5.38555e-07
2.97779e-07
1.62955e-07
8.83031e-08
4.74045e-08
2.52203e-08
1.32976e-08
6.94062e-09
3.56322e-09
1.75587e-09
7.22647e-10
)
;

boundaryField
{
    sides1
    {
        type            calculated;
        value           nonuniform List<scalar> 
20
(
4.27491e-11
4.27238e-11
4.26754e-11
4.26073e-11
4.25267e-11
4.24418e-11
4.23607e-11
4.2292e-11
4.22427e-11
4.22165e-11
-3.76371e-11
-3.76277e-11
-3.76106e-11
-3.75876e-11
-3.75623e-11
-3.75378e-11
-3.75164e-11
-3.75e-11
-3.74889e-11
-3.74837e-11
)
;
    }
    sides2
    {
        type            calculated;
        value           uniform 0;
    }
    empty
    {
        type            empty;
        value           nonuniform 0();
    }
}


// ************************************************************************* //
