/*--------------------------------*- C++ -*----------------------------------*\
| =========                 |                                                 |
| \\      /  F ield         | OpenFOAM: The Open Source CFD Toolbox           |
|  \\    /   O peration     | Version:  3.0.1                                 |
|   \\  /    A nd           | Web:      www.OpenFOAM.org                      |
|    \\/     M anipulation  |                                                 |
\*---------------------------------------------------------------------------*/
FoamFile
{
    version     2.0;
    format      ascii;
    class       volVectorField;
    location    "0.0002";
    object      U;
}
// * * * * * * * * * * * * * * * * * * * * * * * * * * * * * * * * * * * * * //

dimensions      [0 1 -1 0 0 0 0];

internalField   nonuniform List<vector> 
1000
(
(1.11704e-06 -2.6584e-10 0)
(1.13325e-05 -4.17795e-10 0)
(2.24132e-05 -7.5767e-10 0)
(4.48358e-05 -1.46679e-09 0)
(8.61554e-05 -2.85864e-09 0)
(0.000163962 -5.55403e-09 0)
(0.000308888 -1.0718e-08 0)
(0.000576595 -2.0518e-08 0)
(0.00106608 -3.89442e-08 0)
(0.00195147 -7.32422e-08 0)
(0.00353466 -1.36418e-07 0)
(0.00633115 -2.51472e-07 0)
(0.0112067 -4.58503e-07 0)
(0.019589 -8.26237e-07 0)
(0.0337862 -1.47036e-06 0)
(0.0574478 -2.58174e-06 0)
(0.0962049 -4.46812e-06 0)
(0.158508 -7.61325e-06 0)
(0.256646 -1.27554e-05 0)
(0.40786 -2.09831e-05 0)
(0.635339 -3.38371e-05 0)
(0.968747 -5.33924e-05 0)
(1.44376 -8.2272e-05 0)
(2.10001 -0.00012353 0)
(2.97676 -0.000180351 0)
(4.10606 -0.000255719 0)
(5.50355 -0.000353824 0)
(7.15765 -0.000466453 0)
(9.01988 -0.000531288 0)
(10.9963 -0.00056105 0)
(12.9568 -0.000565102 0)
(14.7311 -0.00046871 0)
(16.2213 -0.000246765 0)
(17.2419 0.000142046 0)
(18.0335 0.000707046 0)
(18.3392 0.00148508 0)
(18.6884 0.0017712 0)
(18.7708 0.00234659 0)
(18.9018 0.00194754 0)
(18.9113 0.00225327 0)
(18.9703 0.00223284 0)
(18.9832 0.00140864 0)
(18.9841 0.00193333 0)
(18.9848 0.00122559 0)
(18.9857 0.00305231 0)
(18.9747 0.00407881 0)
(18.9754 0.000289507 0)
(18.9572 -0.00812788 0)
(18.9531 -0.0300256 0)
(18.8116 -0.0731107 0)
(18.4965 0.0235389 0)
(18.3561 0.122137 0)
(18.6239 0.0646342 0)
(18.9441 0.0160602 0)
(18.9247 0.0149241 0)
(18.9409 0.00981454 0)
(18.9258 0.00142648 0)
(18.948 -0.0055548 0)
(18.9317 -0.00676011 0)
(18.9498 -0.00681072 0)
(18.93 -0.0053226 0)
(18.9494 -0.00298334 0)
(18.9007 -0.00162967 0)
(18.8876 -0.00260929 0)
(18.7582 -0.00208119 0)
(18.7298 -0.00216208 0)
(18.3627 -0.00187602 0)
(18.0709 -0.00165079 0)
(17.2622 -0.000796158 0)
(16.1405 -0.000292651 0)
(14.5376 5.01553e-05 0)
(12.5776 0.000276619 0)
(10.4072 0.000385795 0)
(8.23519 0.000411514 0)
(6.24577 0.000382369 0)
(4.5571 0.00034561 0)
(3.21182 0.000243712 0)
(2.19528 0.000170792 0)
(1.46022 0.000116416 0)
(0.948004 7.70027e-05 0)
(0.60218 4.95457e-05 0)
(0.375009 3.10994e-05 0)
(0.229342 1.90927e-05 0)
(0.137932 1.14897e-05 0)
(0.0816795 6.79024e-06 0)
(0.047674 3.94715e-06 0)
(0.027452 2.25991e-06 0)
(0.0156079 1.2759e-06 0)
(0.00876837 7.11055e-07 0)
(0.00487063 3.91506e-07 0)
(0.00267676 2.13141e-07 0)
(0.00145624 1.14815e-07 0)
(0.000784648 6.12359e-08 0)
(0.000418903 3.23578e-08 0)
(0.000221666 1.69501e-08 0)
(0.000116148 8.81395e-09 0)
(6.02877e-05 4.56653e-09 0)
(3.00764e-05 2.38177e-09 0)
(1.5169e-05 1.32594e-09 0)
(1.49139e-06 8.52744e-10 0)
(1.11678e-06 -2.33484e-09 0)
(1.13299e-05 -3.64591e-09 0)
(2.2408e-05 -6.56294e-09 0)
(4.48254e-05 -1.26202e-08 0)
(8.61353e-05 -2.4425e-08 0)
(0.000163924 -4.71134e-08 0)
(0.000308814 -9.02233e-08 0)
(0.000576457 -1.71324e-07 0)
(0.00106582 -3.22367e-07 0)
(0.00195099 -6.00682e-07 0)
(0.00353379 -1.1077e-06 0)
(0.0063296 -2.02018e-06 0)
(0.0112039 -3.64088e-06 0)
(0.0195842 -6.47898e-06 0)
(0.0337778 -1.13729e-05 0)
(0.0574337 -1.96712e-05 0)
(0.0961813 -3.34848e-05 0)
(0.158469 -5.60152e-05 0)
(0.256584 -9.19382e-05 0)
(0.407764 -0.000147771 0)
(0.635194 -0.000232065 0)
(0.968534 -0.000355127 0)
(1.44346 -0.000527802 0)
(2.0996 -0.000758636 0)
(2.97624 -0.00104857 0)
(4.10545 -0.00138213 0)
(5.5029 -0.00171271 0)
(7.15711 -0.00195797 0)
(9.01962 -0.00210646 0)
(10.9964 -0.0019351 0)
(12.9578 -0.00123909 0)
(14.733 0.000143092 0)
(16.2245 0.00218698 0)
(17.2457 0.00501489 0)
(18.0387 0.00734578 0)
(18.3413 0.0101045 0)
(18.6921 0.00944199 0)
(18.7702 0.0125683 0)
(18.9015 0.00955459 0)
(18.9083 0.0120705 0)
(18.9685 0.00675695 0)
(18.9789 0.0123456 0)
(18.9902 0.00802857 0)
(18.9878 0.0130523 0)
(18.9981 0.0127067 0)
(18.9957 0.0152735 0)
(19.008 0.0195492 0)
(19.0001 0.0207023 0)
(18.9944 0.0456795 0)
(18.9054 0.07808 0)
(18.7399 0.0385879 0)
(18.6107 -0.0591902 0)
(18.7301 -0.0814218 0)
(18.961 -0.0846934 0)
(18.9538 -0.0738924 0)
(18.9677 -0.05672 0)
(18.9451 -0.0401352 0)
(18.9588 -0.0292055 0)
(18.9386 -0.023783 0)
(18.9529 -0.0212493 0)
(18.9313 -0.0178965 0)
(18.9497 -0.0106109 0)
(18.8985 -0.00990104 0)
(18.887 -0.00873347 0)
(18.7562 -0.0105482 0)
(18.7289 -0.0104885 0)
(18.3649 -0.0111757 0)
(18.0741 -0.00920361 0)
(17.2665 -0.00766899 0)
(16.1446 -0.00505308 0)
(14.5408 -0.00247049 0)
(12.5795 -0.000414976 0)
(10.4081 0.000728928 0)
(8.23555 0.00136389 0)
(6.24558 0.00159841 0)
(4.55661 0.00147228 0)
(3.21129 0.00126931 0)
(2.1948 0.000989976 0)
(1.45983 0.000723649 0)
(0.947716 0.000504009 0)
(0.601977 0.000337748 0)
(0.374871 0.000219199 0)
(0.229251 0.000138426 0)
(0.137875 8.53612e-05 0)
(0.0816438 5.15413e-05 0)
(0.0476524 3.05388e-05 0)
(0.0274391 1.77879e-05 0)
(0.0156004 1.02005e-05 0)
(0.00876406 5.76616e-06 0)
(0.00486819 3.2166e-06 0)
(0.00267539 1.7724e-06 0)
(0.00145549 9.65478e-07 0)
(0.000784238 5.2031e-07 0)
(0.000418682 2.77604e-07 0)
(0.000221548 1.46752e-07 0)
(0.000116085 7.69596e-08 0)
(6.02552e-05 4.02056e-08 0)
(3.00601e-05 2.11379e-08 0)
(1.51607e-05 1.18652e-08 0)
(1.49056e-06 7.67202e-09 0)
(1.11631e-06 -3.38688e-09 0)
(1.13252e-05 -5.26735e-09 0)
(2.23987e-05 -9.42588e-09 0)
(4.48068e-05 -1.80233e-08 0)
(8.60995e-05 -3.46825e-08 0)
(0.000163855 -6.65173e-08 0)
(0.000308686 -1.26609e-07 0)
(0.000576218 -2.38894e-07 0)
(0.00106538 -4.46505e-07 0)
(0.00195019 -8.26117e-07 0)
(0.00353234 -1.51204e-06 0)
(0.00632701 -2.73568e-06 0)
(0.0111994 -4.88876e-06 0)
(0.0195764 -8.62112e-06 0)
(0.0337646 -1.4987e-05 0)
(0.0574116 -2.56533e-05 0)
(0.0961452 -4.3179e-05 0)
(0.158412 -7.13574e-05 0)
(0.256495 -0.000115578 0)
(0.407629 -0.000183101 0)
(0.634996 -0.000283026 0)
(0.968257 -0.000425618 0)
(1.44309 -0.000620469 0)
(2.09914 -0.000872886 0)
(2.97571 -0.00117793 0)
(4.10492 -0.00151189 0)
(5.50252 -0.0018213 0)
(7.157 -0.00203781 0)
(9.01993 -0.00198821 0)
(10.9977 -0.0015337 0)
(12.9606 -0.000459764 0)
(14.7371 0.00149448 0)
(16.2301 0.00408177 0)
(17.2499 0.00702788 0)
(18.0433 0.00843368 0)
(18.3419 0.0112046 0)
(18.6918 0.00928828 0)
(18.7709 0.0104354 0)
(18.8994 0.00647919 0)
(18.907 0.00699595 0)
(18.9655 0.00204646 0)
(18.9755 0.00227894 0)
(18.9868 -0.000203775 0)
(18.9837 -0.00687083 0)
(18.9959 -0.00812466 0)
(18.9914 -0.0103895 0)
(18.9964 -0.00836147 0)
(18.9822 0.00175367 0)
(18.9676 0.0240698 0)
(18.8066 0.0388379 0)
(18.4782 0.0186871 0)
(18.355 0.00353031 0)
(18.6644 0.010015 0)
(18.9934 0.00391128 0)
(18.9726 -0.00293784 0)
(18.9814 -0.00770144 0)
(18.9567 -0.0105489 0)
(18.9713 -0.0103838 0)
(18.9454 -0.0105798 0)
(18.9588 -0.0103981 0)
(18.9333 -0.0127515 0)
(18.9519 -0.0145742 0)
(18.9007 -0.0154763 0)
(18.8893 -0.00418522 0)
(18.756 -0.0062114 0)
(18.7281 -0.00877161 0)
(18.3634 -0.0097894 0)
(18.0769 -0.0100387 0)
(17.2697 -0.00898232 0)
(16.1498 -0.00666535 0)
(14.5456 -0.00406775 0)
(12.5835 -0.00177192 0)
(10.4106 0.000115388 0)
(8.23664 0.00120329 0)
(6.24598 0.00155693 0)
(4.55657 0.0015752 0)
(3.21093 0.00139417 0)
(2.19434 0.00112346 0)
(1.4594 0.000845691 0)
(0.947358 0.000604358 0)
(0.601706 0.000414285 0)
(0.374677 0.00027436 0)
(0.22912 0.00017644 0)
(0.137788 0.000110615 0)
(0.0815887 6.78066e-05 0)
(0.0476182 4.07389e-05 0)
(0.0274184 2.40364e-05 0)
(0.0155881 1.39495e-05 0)
(0.00875684 7.97377e-06 0)
(0.00486404 4.49467e-06 0)
(0.00267304 2.50093e-06 0)
(0.00145417 1.37487e-06 0)
(0.000783514 7.47352e-07 0)
(0.000418287 4.01992e-07 0)
(0.000221335 2.14146e-07 0)
(0.000115972 1.13125e-07 0)
(6.01955e-05 5.95185e-08 0)
(3.00301e-05 3.15075e-08 0)
(1.51452e-05 1.78151e-08 0)
(1.48899e-06 1.15714e-08 0)
(1.11567e-06 -4.09375e-09 0)
(1.13189e-05 -6.35216e-09 0)
(2.23864e-05 -1.13491e-08 0)
(4.47821e-05 -2.1662e-08 0)
(8.6052e-05 -4.16199e-08 0)
(0.000163765 -7.96997e-08 0)
(0.000308516 -1.5148e-07 0)
(0.000575902 -2.85422e-07 0)
(0.0010648 -5.32754e-07 0)
(0.00194913 -9.8446e-07 0)
(0.00353044 -1.79976e-06 0)
(0.00632363 -3.25288e-06 0)
(0.0111935 -5.80784e-06 0)
(0.0195661 -1.02347e-05 0)
(0.0337472 -1.77838e-05 0)
(0.0573827 -3.04356e-05 0)
(0.096098 -5.12402e-05 0)
(0.158336 -8.47416e-05 0)
(0.256377 -0.000137449 0)
(0.407451 -0.000218246 0)
(0.634734 -0.00033852 0)
(0.967884 -0.000511659 0)
(1.44259 -0.000751382 0)
(2.09849 -0.00106828 0)
(2.97491 -0.00146396 0)
(4.10404 -0.00192265 0)
(5.50165 -0.00240188 0)
(7.15638 -0.00280275 0)
(9.02023 -0.00293295 0)
(10.999 -0.00259265 0)
(12.963 -0.00159641 0)
(14.7412 0.000196288 0)
(16.2358 0.00263758 0)
(17.2542 0.00579276 0)
(18.0486 0.00780189 0)
(18.3417 0.0113084 0)
(18.6921 0.00959373 0)
(18.7684 0.013022 0)
(18.8954 0.0103612 0)
(18.8994 0.0134109 0)
(18.9572 0.0110691 0)
(18.9638 0.0109832 0)
(18.9783 0.0103114 0)
(18.9735 0.00893202 0)
(18.9836 0.0107073 0)
(18.9747 0.0130559 0)
(18.9869 0.0165008 0)
(18.9795 0.0231426 0)
(18.9849 0.0257714 0)
(18.888 -0.015912 0)
(18.6967 -0.0104643 0)
(18.5543 0.00950635 0)
(18.7098 -0.0364975 0)
(18.9809 -0.0166082 0)
(18.9639 -0.00200205 0)
(18.9783 0.00465416 0)
(18.9555 0.00433564 0)
(18.9695 -0.000723305 0)
(18.9472 -0.0047225 0)
(18.9601 -0.00867005 0)
(18.9311 -0.011713 0)
(18.9483 -0.0157708 0)
(18.8907 -0.0159087 0)
(18.8801 -0.0081643 0)
(18.7483 -0.0088955 0)
(18.7217 -0.0105171 0)
(18.363 -0.0113088 0)
(18.0766 -0.0107213 0)
(17.2741 -0.00869775 0)
(16.1548 -0.006048 0)
(14.5507 -0.00320348 0)
(12.5876 -0.000793725 0)
(10.4133 0.000931407 0)
(8.23794 0.00195487 0)
(6.24603 0.00225185 0)
(4.55603 0.00215955 0)
(3.21021 0.00181022 0)
(2.19362 0.00141541 0)
(1.45877 0.00104745 0)
(0.946864 0.000741235 0)
(0.601339 0.00050538 0)
(0.374419 0.000333835 0)
(0.228944 0.000214549 0)
(0.137673 0.000134591 0)
(0.0815154 8.26292e-05 0)
(0.0475726 4.97503e-05 0)
(0.0273906 2.94281e-05 0)
(0.0155715 1.71268e-05 0)
(0.00874713 9.81948e-06 0)
(0.00485844 5.55229e-06 0)
(0.00266986 3.09917e-06 0)
(0.00145239 1.70914e-06 0)
(0.000782527 9.31969e-07 0)
(0.000417748 5.02844e-07 0)
(0.000221043 2.68682e-07 0)
(0.000115816 1.42356e-07 0)
(6.01132e-05 7.51183e-08 0)
(2.99885e-05 3.98824e-08 0)
(1.51237e-05 2.26197e-08 0)
(1.48681e-06 1.472e-08 0)
(1.11497e-06 -4.25826e-09 0)
(1.13119e-05 -6.58674e-09 0)
(2.23727e-05 -1.17376e-08 0)
(4.47548e-05 -2.23457e-08 0)
(8.59997e-05 -4.28353e-08 0)
(0.000163666 -8.18364e-08 0)
(0.00030833 -1.55191e-07 0)
(0.000575556 -2.91743e-07 0)
(0.00106416 -5.43304e-07 0)
(0.00194798 -1.00163e-06 0)
(0.00352837 -1.82687e-06 0)
(0.00631996 -3.2941e-06 0)
(0.0111871 -5.86745e-06 0)
(0.0195551 -1.03149e-05 2.13177e-31)
(0.0337286 -1.78799e-05 0)
(0.0573517 -3.05262e-05 0)
(0.0960474 -5.12685e-05 0)
(0.158255 -8.45855e-05 0)
(0.256252 -0.000136874 0)
(0.407261 -0.000216838 0)
(0.634455 -0.000335611 0)
(0.96749 -0.000506245 0)
(1.44205 -0.000742085 0)
(2.0978 -0.00105336 0)
(2.97409 -0.00144133 0)
(4.10313 -0.00188956 0)
(5.5008 -0.00235197 0)
(7.15585 -0.00273632 0)
(9.02012 -0.00297442 0)
(11 -0.00281222 0)
(12.9656 -0.00212606 0)
(14.7452 -0.000738207 2.08548e-31)
(16.2417 0.00155876 0)
(17.2594 0.00462314 0)
(18.0552 0.0073245 0)
(18.3448 0.0106468 0)
(18.6955 0.0111583 -2.14299e-31)
(18.7718 0.0143915 0)
(18.8981 0.0129092 0)
(18.9026 0.0170021 2.08758e-31)
(18.9625 0.0131881 0)
(18.9707 0.0210541 0)
(18.9829 0.0173667 0)
(18.9785 0.0182144 -2.07856e-31)
(18.9902 0.0162894 0)
(18.9806 0.0154829 0)
(18.9925 0.0170394 0)
(18.9844 0.020466 0)
(18.9955 0.0254682 0)
(18.8941 0.0330185 0)
(18.6794 0.00898051 0)
(18.5267 -0.0294203 0)
(18.7024 -0.0173799 0)
(18.9899 -0.0180621 0)
(18.9555 -0.0184126 0)
(18.9642 -0.0182 -9.38947e-32)
(18.943 -0.0174062 9.38937e-32)
(18.9608 -0.0155517 0)
(18.9382 -0.014026 0)
(18.9521 -0.012925 -9.38987e-32)
(18.9238 -0.0136747 0)
(18.943 -0.0125685 0)
(18.8899 -0.0136224 0)
(18.8813 -0.0130358 0)
(18.7468 -0.0144493 0)
(18.7231 -0.0118297 0)
(18.3629 -0.0126668 0)
(18.0821 -0.0102656 0)
(17.2795 -0.00764137 0)
(16.161 -0.00486168 0)
(14.5561 -0.00222266 0)
(12.5915 2.27655e-06 1.08228e-31)
(10.4158 0.00138502 0)
(8.239 0.00204344 0)
(6.24611 0.00230729 0)
(4.55558 0.00212792 0)
(3.20949 0.00180383 0)
(2.19287 0.00141811 0)
(1.45811 0.00105409 0)
(0.946337 0.000749347 0)
(0.600945 0.00051343 0)
(0.374139 0.00034093 0)
(0.228754 0.000220301 0)
(0.137547 0.000138967 0)
(0.0814348 8.57909e-05 0)
(0.0475222 5.19393e-05 0)
(0.0273598 3.08898e-05 0)
(0.015553 1.80727e-05 0)
(0.00873623 1.0415e-05 0)
(0.00485212 5.91822e-06 0)
(0.00266625 3.31917e-06 0)
(0.00145036 1.83883e-06 -1.06595e-31)
(0.000781397 1.00707e-06 0)
(0.000417127 5.4563e-07 -1.06594e-31)
(0.000220707 2.92707e-07 0)
(0.000115636 1.55673e-07 0)
(6.00174e-05 8.24516e-08 0)
(2.994e-05 4.3933e-08 0)
(1.50985e-05 2.50113e-08 0)
(1.48425e-06 1.6314e-08 0)
(1.11429e-06 -3.95487e-09 0)
(1.13051e-05 -6.09818e-09 0)
(2.23594e-05 -1.08363e-08 0)
(4.47282e-05 -2.05774e-08 0)
(8.5949e-05 -3.93431e-08 0)
(0.00016357 -7.49828e-08 0)
(0.00030815 -1.41839e-07 0)
(0.000575223 -2.65991e-07 0)
(0.00106355 -4.94125e-07 0)
(0.00194687 -9.08707e-07 0)
(0.00352638 -1.65328e-06 0)
(0.00631646 -2.97368e-06 0)
(0.011181 -5.28358e-06 0)
(0.0195446 -9.26562e-06 -2.13177e-31)
(0.0337109 -1.6022e-05 0)
(0.0573223 -2.72895e-05 0)
(0.0959997 -4.5729e-05 0)
(0.158179 -7.52879e-05 0)
(0.256134 -0.000121603 0)
(0.407082 -0.000192359 0)
(0.634193 -0.000297439 0)
(0.967118 -0.000448595 0)
(1.44155 -0.000658246 0)
(2.09714 -0.000936971 0)
(2.97328 -0.00128926 0)
(4.10222 -0.0017074 0)
(5.49988 -0.00216412 0)
(7.15508 -0.00260724 0)
(9.01976 -0.00291403 0)
(11.0003 -0.00311961 0)
(12.967 -0.00280449 0)
(14.748 -0.00207901 -2.08548e-31)
(16.2458 -0.00091315 0)
(17.2642 0.00066899 0)
(18.0604 0.00289352 0)
(18.3489 0.00461015 0)
(18.6987 0.00710355 2.14329e-31)
(18.7742 0.00888625 0)
(18.899 0.0102958 0)
(18.9039 0.0128939 -2.08819e-31)
(18.9617 0.0128704 0)
(18.97 0.0146438 0)
(18.982 0.0145161 0)
(18.9777 0.0163908 2.07627e-31)
(18.9899 0.0164356 0)
(18.9831 0.0157843 0)
(18.9985 0.00955365 0)
(18.9971 -0.00559477 0)
(18.9998 -0.0215324 0)
(18.8895 -0.0527262 0)
(18.674 -0.0170078 0)
(18.5185 0.0327236 0)
(18.716 0.0320613 0)
(19.013 0.0167564 0)
(18.9821 0.0128784 0)
(18.9922 0.00449492 9.38788e-32)
(18.9655 -0.00452459 -9.38802e-32)
(18.9766 -0.00894669 0)
(18.9491 -0.00985866 0)
(18.9592 -0.0105987 9.38955e-32)
(18.9283 -0.0110299 0)
(18.947 -0.0112959 0)
(18.8929 -0.0114303 0)
(18.8832 -0.0101818 0)
(18.7487 -0.0105418 0)
(18.7254 -0.00911879 0)
(18.3653 -0.00855315 0)
(18.0873 -0.00642033 0)
(17.2843 -0.00435108 0)
(16.1658 -0.00207305 0)
(14.5601 -0.000252341 0)
(12.5944 0.00100659 -1.08227e-31)
(10.4174 0.00188576 0)
(8.2395 0.00223619 0)
(6.24594 0.00220756 0)
(4.55497 0.00200788 0)
(3.20873 0.00166218 0)
(2.19213 0.0012948 0)
(1.45747 0.00096006 0)
(0.945829 0.00068331 0)
(0.600567 0.000469716 0)
(0.37387 0.000313302 0)
(0.228569 0.000203497 0)
(0.137425 0.000129079 0)
(0.081356 8.01405e-05 0)
(0.0474727 4.87954e-05 0)
(0.0273293 2.91833e-05 0)
(0.0155346 1.71679e-05 0)
(0.00872534 9.94604e-06 0)
(0.00484577 5.68052e-06 0)
(0.00266261 3.20138e-06 0)
(0.0014483 1.78182e-06 1.06595e-31)
(0.000780246 9.80153e-07 0)
(0.000416492 5.33274e-07 1.06594e-31)
(0.00022036 2.87212e-07 0)
(0.000115449 1.5333e-07 0)
(5.99181e-05 8.15069e-08 0)
(2.98896e-05 4.35825e-08 0)
(1.50722e-05 2.49033e-08 0)
(1.48157e-06 1.62783e-08 0)
(1.11369e-06 -3.30569e-09 0)
(1.12991e-05 -5.07811e-09 0)
(2.23478e-05 -8.99848e-09 0)
(4.4705e-05 -1.70364e-08 0)
(8.59048e-05 -3.24866e-08 0)
(0.000163487 -6.1754e-08 0)
(0.000307995 -1.1651e-07 0)
(0.000574936 -2.17919e-07 0)
(0.00106303 -4.0375e-07 0)
(0.00194592 -7.40531e-07 0)
(0.00352469 -1.34368e-06 0)
(0.00631347 -2.41029e-06 0)
(0.0111758 -4.27091e-06 0)
(0.0195357 -7.46938e-06 0)
(0.0336959 -1.28811e-05 0)
(0.0572975 -2.18815e-05 0)
(0.0959594 -3.65728e-05 0)
(0.158116 -6.0068e-05 0)
(0.256035 -9.68098e-05 0)
(0.406932 -0.000152864 0)
(0.633973 -0.000236073 0)
(0.966806 -0.000355882 0)
(1.44112 -0.000522579 0)
(2.09658 -0.000745651 0)
(2.97259 -0.001031 0)
(4.10142 -0.00137692 0)
(5.49902 -0.00176896 0)
(7.15428 -0.00217422 0)
(9.01922 -0.00253806 0)
(11.0002 -0.00268134 0)
(12.9675 -0.00286083 0)
(14.7491 -0.0026997 0)
(16.2476 -0.00224149 0)
(17.2675 -0.00139636 0)
(18.0635 9.8358e-05 0)
(18.3536 0.00223205 0)
(18.7025 0.00489178 0)
(18.7785 0.00801285 0)
(18.9019 0.00878864 0)
(18.9083 0.0130966 0)
(18.9662 0.0116077 0)
(18.9776 0.0175059 0)
(18.989 0.0156599 0)
(18.9878 0.0185299 0)
(19.0026 0.016319 0)
(18.999 0.0121527 0)
(19.0152 0.00469051 0)
(19.0081 0.00137616 0)
(18.9956 -0.0236069 0)
(18.8846 0.0291446 0)
(18.6971 0.0142505 0)
(18.5578 -0.0286697 0)
(18.719 -0.00462702 0)
(18.997 -0.0133399 0)
(18.9747 -0.0217179 0)
(18.9879 -0.0193438 0)
(18.9603 -0.0122222 0)
(18.9712 -0.00720457 0)
(18.9442 -0.00728865 0)
(18.9561 -0.00838231 0)
(18.9271 -0.0106323 0)
(18.9468 -0.0102465 0)
(18.8944 -0.0112301 0)
(18.8849 -0.00917834 0)
(18.7511 -0.00863205 0)
(18.729 -0.00611431 0)
(18.369 -0.00350036 0)
(18.0915 -0.00171288 0)
(17.2881 -0.000411732 0)
(16.1689 0.000595932 0)
(14.5625 0.00127561 0)
(12.5959 0.00179497 0)
(10.4181 0.00202516 0)
(8.23969 0.0020877 0)
(6.24565 0.00196732 0)
(4.55439 0.00170839 0)
(3.20806 0.00138998 0)
(2.19149 0.00107326 0)
(1.45692 0.000793399 0)
(0.945394 0.000565051 0)
(0.600241 0.000389545 0)
(0.373637 0.000260929 0)
(0.228409 0.000170328 0)
(0.137318 0.000108622 0)
(0.0812868 6.78128e-05 0)
(0.0474288 4.15173e-05 0)
(0.0273021 2.49646e-05 0)
(0.0155182 1.47629e-05 0)
(0.00871552 8.59554e-06 0)
(0.00484002 4.93262e-06 0)
(0.00265929 2.79246e-06 0)
(0.00144641 1.56086e-06 0)
(0.000779187 8.62069e-07 0)
(0.000415905 4.70804e-07 0)
(0.000220039 2.54472e-07 0)
(0.000115276 1.36308e-07 0)
(5.98253e-05 7.26919e-08 0)
(2.98423e-05 3.899e-08 0)
(1.50475e-05 2.23488e-08 0)
(1.47903e-06 1.46351e-08 0)
(1.11322e-06 -2.42348e-09 0)
(1.12945e-05 -3.70976e-09 0)
(2.23387e-05 -6.55451e-09 0)
(4.4687e-05 -1.23749e-08 0)
(8.58704e-05 -2.35332e-08 0)
(0.000163422 -4.46097e-08 0)
(0.000307874 -8.39298e-08 0)
(0.000574714 -1.56529e-07 0)
(0.00106262 -2.89148e-07 0)
(0.00194519 -5.28699e-07 0)
(0.00352339 -9.56242e-07 0)
(0.00631118 -1.70956e-06 0)
(0.0111718 -3.01868e-06 0)
(0.019529 -5.26007e-06 0)
(0.0336845 -9.0365e-06 0)
(0.0572787 -1.52895e-05 0)
(0.0959291 -2.54495e-05 0)
(0.158067 -4.16215e-05 0)
(0.25596 -6.67913e-05 0)
(0.40682 -0.000105014 0)
(0.633809 -0.000161517 0)
(0.966572 -0.000242604 0)
(1.4408 -0.000355241 0)
(2.09616 -0.000506178 0)
(2.97205 -0.000700538 0)
(4.10078 -0.000939908 0)
(5.49831 -0.00122021 0)
(7.15356 -0.00152994 0)
(9.01857 -0.00185045 0)
(10.9997 -0.00217189 0)
(12.9673 -0.00232231 0)
(14.7494 -0.00245374 0)
(16.2482 -0.00242406 0)
(17.2689 -0.00229325 0)
(18.0659 -0.00151643 0)
(18.3573 -0.00087315 0)
(18.7074 0.000943962 0)
(18.783 0.00249089 0)
(18.9073 0.00421506 0)
(18.9134 0.00655768 0)
(18.9697 0.007698 0)
(18.9791 0.00914638 0)
(18.9862 0.0087891 0)
(18.9836 0.00988183 0)
(18.9933 0.00943413 0)
(18.9851 0.00843839 0)
(18.9899 0.00866514 0)
(18.9725 0.0078384 0)
(18.9631 0.0115552 0)
(18.8008 0.0114334 0)
(18.4602 0.00634596 0)
(18.3209 0.00114067 0)
(18.6293 0.000208575 0)
(18.9745 -0.000694167 0)
(18.9605 -0.000451286 0)
(18.9735 -0.000777209 0)
(18.9514 -0.00350998 0)
(18.9677 -0.00607126 0)
(18.9429 -0.00696733 0)
(18.9548 -0.00717519 0)
(18.9277 -0.00629733 0)
(18.947 -0.00598646 0)
(18.897 -0.00594966 0)
(18.8881 -0.00448528 0)
(18.7549 -0.00319582 0)
(18.7325 -0.00201687 0)
(18.3727 -6.53207e-05 0)
(18.0926 0.00039455 0)
(17.2895 0.00107682 0)
(16.1698 0.00133074 0)
(14.563 0.00155389 0)
(12.5963 0.00163156 0)
(10.4182 0.00162372 0)
(8.23946 0.00155139 0)
(6.2452 0.00139239 0)
(4.55383 0.00117627 0)
(3.20749 0.000951354 0)
(2.19097 0.000737188 0)
(1.45649 0.000549234 0)
(0.945055 0.00039493 0)
(0.599988 0.000275033 0)
(0.373456 0.000186079 0)
(0.228284 0.000122636 0)
(0.137234 7.89137e-05 0)
(0.0812318 4.96791e-05 0)
(0.0473938 3.06505e-05 0)
(0.0272804 1.85614e-05 0)
(0.0155049 1.10479e-05 0)
(0.00870756 6.47097e-06 0)
(0.00483533 3.73373e-06 0)
(0.00265657 2.12432e-06 0)
(0.00144486 1.19283e-06 0)
(0.000778312 6.61566e-07 0)
(0.000415419 3.62691e-07 0)
(0.000219772 1.96726e-07 0)
(0.000115131 1.05718e-07 0)
(5.97476e-05 5.65507e-08 0)
(2.98027e-05 3.04168e-08 0)
(1.50267e-05 1.74859e-08 0)
(1.47689e-06 1.14689e-08 0)
(1.11291e-06 -1.51283e-09 0)
(1.12913e-05 -2.31178e-09 0)
(2.23326e-05 -4.08966e-09 0)
(4.4675e-05 -7.72898e-09 0)
(8.58476e-05 -1.47166e-08 0)
(0.000163379 -2.79337e-08 0)
(0.000307795 -5.26275e-08 0)
(0.000574567 -9.82996e-08 0)
(0.00106236 -1.81881e-07 0)
(0.00194471 -3.33161e-07 0)
(0.00352253 -6.03739e-07 0)
(0.00630969 -1.08161e-06 0)
(0.0111692 -1.91415e-06 0)
(0.0195246 -3.34353e-06 0)
(0.0336771 -5.75905e-06 0)
(0.0572667 -9.77183e-06 0)
(0.0959096 -1.63155e-05 0)
(0.158037 -2.67733e-05 0)
(0.255913 -4.31236e-05 0)
(0.406749 -6.80825e-05 0)
(0.633705 -0.000105202 0)
(0.966425 -0.00015886 0)
(1.4406 -0.000234071 0)
(2.09589 -0.000336043 0)
(2.97172 -0.000469459 0)
(4.10037 -0.000637581 0)
(5.49784 -0.000841403 0)
(7.15304 -0.00107918 0)
(9.01804 -0.00134697 0)
(10.9992 -0.00163898 0)
(12.9669 -0.00195108 0)
(14.7492 -0.00221267 0)
(16.248 -0.00239285 0)
(17.2695 -0.00253932 0)
(18.0663 -0.00254558 0)
(18.3592 -0.00235263 0)
(18.7092 -0.00191671 0)
(18.7849 -0.000928364 0)
(18.9098 2.42749e-05 0)
(18.9149 0.00109228 0)
(18.9717 0.00188893 0)
(18.981 0.00146929 0)
(18.9879 0.00208898 0)
(18.9872 0.000150254 0)
(18.9999 6.55079e-05 0)
(18.9956 0.00138745 0)
(19.009 0.00464725 0)
(19 0.0120445 0)
(18.9933 0.00609286 0)
(18.8865 -0.0302295 0)
(18.7021 -0.0290584 0)
(18.556 0.0198238 0)
(18.7127 -0.0169173 0)
(18.9843 -0.00735791 0)
(18.9639 -0.00185348 0)
(18.9786 0.00137808 0)
(18.9541 0.00256548 0)
(18.967 0.00167918 0)
(18.942 0.000594843 0)
(18.9549 0.000144242 0)
(18.928 0.000200582 0)
(18.9477 -0.000173997 0)
(18.8982 0.00051228 0)
(18.8894 0.000525309 0)
(18.7565 0.00148221 0)
(18.7341 0.0013332 0)
(18.3749 0.00221652 0)
(18.0932 0.00215542 0)
(17.29 0.00217938 0)
(16.1698 0.0019375 0)
(14.563 0.00171892 0)
(12.5962 0.00153602 0)
(10.4181 0.00140725 0)
(8.23923 0.00124328 0)
(6.2449 0.00106609 0)
(4.55349 0.000882864 0)
(3.20715 0.000702937 0)
(2.19066 0.000538331 0)
(1.45623 0.000397439 0)
(0.944842 0.00028368 0)
(0.599826 0.000196333 0)
(0.373338 0.000132113 0)
(0.228201 8.66465e-05 0)
(0.137178 5.55066e-05 0)
(0.0811951 3.47981e-05 0)
(0.0473703 2.13852e-05 0)
(0.0272656 1.29022e-05 0)
(0.0154958 7.65211e-06 0)
(0.00870208 4.46659e-06 0)
(0.00483209 2.56868e-06 0)
(0.00265468 1.45679e-06 0)
(0.00144377 8.15476e-07 0)
(0.000777699 4.50919e-07 0)
(0.000415076 2.46484e-07 0)
(0.000219583 1.33314e-07 0)
(0.000115028 7.14402e-08 0)
(5.96926e-05 3.81071e-08 0)
(2.97746e-05 2.04386e-08 0)
(1.50119e-05 1.17138e-08 0)
(1.47536e-06 7.66623e-09 0)
(1.11275e-06 -1.61588e-10 0)
(1.12898e-05 -2.46397e-10 0)
(2.23296e-05 -4.37646e-10 0)
(4.46689e-05 -8.29371e-10 0)
(8.5836e-05 -1.58503e-09 0)
(0.000163357 -3.01959e-09 0)
(0.000307754 -5.71037e-09 0)
(0.000574492 -1.07095e-08 0)
(0.00106222 -1.99021e-08 0)
(0.00194446 -3.66261e-08 0)
(0.00352209 -6.67055e-08 0)
(0.00630891 -1.2015e-07 0)
(0.0111679 -2.13872e-07 0)
(0.0195222 -3.75924e-07 0)
(0.0336732 -6.51904e-07 0)
(0.0572602 -1.11427e-06 0)
(0.0958991 -1.87527e-06 0)
(0.15802 -3.10396e-06 0)
(0.255887 -5.04686e-06 0)
(0.406709 -8.05038e-06 0)
(0.633646 -1.2581e-05 0)
(0.966341 -1.92368e-05 0)
(1.44048 -2.87407e-05 0)
(2.09574 -4.19102e-05 0)
(2.97151 -5.96037e-05 0)
(4.10011 -8.26633e-05 0)
(5.49753 -0.000111914 0)
(7.15268 -0.00014825 0)
(9.01762 -0.000193166 0)
(10.9988 -0.000248368 0)
(12.9664 -0.000320041 0)
(14.7486 -0.000403686 0)
(16.2478 -0.000530048 0)
(17.2692 -0.000505987 0)
(18.0666 -0.000630692 0)
(18.3593 -0.000438113 0)
(18.7103 -0.000723952 0)
(18.7861 -0.000437216 0)
(18.9122 -0.000994714 0)
(18.9163 -0.000150201 0)
(18.9731 -0.0011322 0)
(18.9811 -0.000488867 0)
(18.9854 -0.00111351 0)
(18.9817 -0.00189537 0)
(18.9896 -0.00325799 0)
(18.9769 -0.00293938 0)
(18.9894 0.00287109 0)
(18.9789 0.020588 0)
(18.9926 0.0421729 0)
(18.882 0.0944122 0)
(18.6609 0.0116371 0)
(18.513 -0.048099 0)
(18.6962 -0.0394739 0)
(18.9821 -0.0255815 0)
(18.949 -0.0217359 0)
(18.9604 -0.0130326 0)
(18.9369 -0.00383653 0)
(18.9549 0.00116785 0)
(18.9338 0.00235236 0)
(18.9505 0.00219603 0)
(18.9255 0.00172561 0)
(18.9474 0.00132724 0)
(18.898 0.00118562 0)
(18.8897 0.000866731 0)
(18.7562 0.000928394 0)
(18.734 0.000696568 0)
(18.375 0.000724992 0)
(18.0927 0.000589093 0)
(17.2897 0.000531819 0)
(16.1693 0.000468167 0)
(14.5627 0.000402836 0)
(12.5959 0.000341456 0)
(10.4178 0.000271182 0)
(8.23892 0.000216875 0)
(6.2446 0.000173584 0)
(4.5532 0.000136407 0)
(3.20688 0.000104254 0)
(2.19043 7.72464e-05 0)
(1.45604 5.54875e-05 0)
(0.944701 3.86957e-05 0)
(0.599722 2.62493e-05 0)
(0.373264 1.73557e-05 0)
(0.22815 1.12066e-05 0)
(0.137144 7.07936e-06 0)
(0.081173 4.38236e-06 0)
(0.0473562 2.66228e-06 0)
(0.0272569 1.58929e-06 0)
(0.0154905 9.3342e-07 0)
(0.00869892 5.39931e-07 0)
(0.00483023 3.079e-07 0)
(0.00265361 1.7325e-07 0)
(0.00144316 9.62671e-08 0)
(0.000777357 5.28623e-08 0)
(0.000414887 2.8707e-08 0)
(0.000219479 1.54302e-08 0)
(0.000114972 8.21995e-09 0)
(5.96626e-05 4.35907e-09 0)
(2.97593e-05 2.32484e-09 0)
(1.50039e-05 1.32426e-09 0)
(1.47454e-06 8.63482e-10 0)
)
;

boundaryField
{
    sides1
    {
        type            zeroGradient;
    }
    sides2
    {
        type            slip;
    }
    empty
    {
        type            empty;
    }
}


// ************************************************************************* //
