/*--------------------------------*- C++ -*----------------------------------*\
| =========                 |                                                 |
| \\      /  F ield         | OpenFOAM: The Open Source CFD Toolbox           |
|  \\    /   O peration     | Version:  2012                                  |
|   \\  /    A nd           | Website:  www.openfoam.com                      |
|    \\/     M anipulation  |                                                 |
\*---------------------------------------------------------------------------*/
FoamFile
{
    version     2.0;
    format      ascii;
    class       volScalarField;
    location    "4220";
    object      minKappa;
}
// * * * * * * * * * * * * * * * * * * * * * * * * * * * * * * * * * * * * * //

dimensions      [0 0 0 0 0 0 0];


internalField   nonuniform List<scalar> 
20400
(
3.39559e-12
3.39559e-12
3.7364e-12
1.05278e-11
2.80352e-11
5.22176e-11
8.0727e-11
1.12157e-10
1.44768e-10
1.78031e-10
2.11261e-10
2.44209e-10
2.77032e-10
3.09534e-10
3.4187e-10
3.74043e-10
4.06105e-10
4.38079e-10
4.69983e-10
5.01792e-10
5.33443e-10
5.64905e-10
5.96186e-10
6.27293e-10
6.58215e-10
6.8894e-10
7.19461e-10
7.49772e-10
7.79879e-10
8.09794e-10
8.39532e-10
8.69097e-10
8.98448e-10
9.27439e-10
9.55911e-10
9.84017e-10
1.01236e-09
1.04064e-09
1.06849e-09
1.0961e-09
1.1234e-09
1.15045e-09
1.17727e-09
1.20388e-09
1.23033e-09
1.25662e-09
1.28278e-09
1.30879e-09
1.33467e-09
1.3604e-09
1.38599e-09
1.41143e-09
1.43673e-09
1.4619e-09
1.48696e-09
1.51191e-09
1.53678e-09
1.56152e-09
1.58603e-09
1.61054e-09
1.6353e-09
1.66022e-09
1.68508e-09
1.70984e-09
1.73452e-09
1.75908e-09
1.78351e-09
1.80782e-09
1.83202e-09
1.85613e-09
1.88015e-09
1.90411e-09
1.92801e-09
1.95185e-09
1.97565e-09
1.99939e-09
2.02309e-09
2.04674e-09
2.07035e-09
2.0939e-09
2.11741e-09
2.14088e-09
2.16431e-09
2.18769e-09
2.21096e-09
2.23398e-09
2.25662e-09
2.27933e-09
2.30219e-09
2.32487e-09
2.3474e-09
2.36967e-09
2.39159e-09
2.41314e-09
2.43472e-09
2.45622e-09
2.47746e-09
2.49842e-09
2.51902e-09
2.53923e-09
2.559e-09
2.57827e-09
2.59702e-09
2.61513e-09
2.6327e-09
2.64956e-09
2.66595e-09
2.68142e-09
2.69657e-09
2.71049e-09
2.72408e-09
2.73619e-09
2.74688e-09
2.75486e-09
2.76063e-09
2.76519e-09
2.76756e-09
2.76699e-09
2.76397e-09
2.75874e-09
2.75142e-09
2.74184e-09
2.72975e-09
2.71515e-09
2.69767e-09
2.67726e-09
2.65338e-09
2.62585e-09
2.59399e-09
2.55711e-09
2.51617e-09
2.46956e-09
2.42008e-09
2.36832e-09
2.31793e-09
2.27304e-09
2.22783e-09
2.17829e-09
2.12385e-09
2.06575e-09
2.00354e-09
1.93854e-09
1.87074e-09
1.80079e-09
1.72895e-09
1.65529e-09
1.57859e-09
1.49829e-09
1.41367e-09
1.3284e-09
1.23208e-09
1.13342e-09
1.03645e-09
9.3777e-10
8.35225e-10
7.28703e-10
6.0191e-10
4.81681e-10
4.07336e-10
3.3133e-10
2.43591e-10
1.56717e-10
7.96729e-11
6.68118e-11
6.68118e-11
1.36025e-10
2.24293e-10
3.13627e-10
4.02259e-10
4.8922e-10
5.74848e-10
6.58152e-10
7.39874e-10
8.18913e-10
8.96223e-10
9.70658e-10
1.04324e-09
1.11285e-09
1.18048e-09
1.24518e-09
1.30772e-09
1.36737e-09
1.42476e-09
1.47929e-09
1.53156e-09
1.58098e-09
1.62814e-09
1.67265e-09
1.71484e-09
1.75452e-09
1.79195e-09
1.82698e-09
1.85985e-09
1.89046e-09
1.91902e-09
1.94545e-09
1.96996e-09
1.9925e-09
2.01326e-09
2.0322e-09
2.04943e-09
2.06506e-09
2.07912e-09
2.0917e-09
2.10283e-09
2.11262e-09
2.12112e-09
2.12839e-09
2.13451e-09
2.13952e-09
2.14351e-09
2.14657e-09
2.14874e-09
2.15007e-09
2.15048e-09
2.14956e-09
2.14798e-09
2.14583e-09
2.14309e-09
2.13989e-09
2.13619e-09
2.13214e-09
2.12771e-09
2.123e-09
2.11799e-09
2.11275e-09
2.10728e-09
2.10164e-09
2.09584e-09
2.08991e-09
2.08389e-09
2.07779e-09
2.07165e-09
2.06546e-09
2.05928e-09
2.05307e-09
2.04694e-09
2.04079e-09
2.03478e-09
2.02876e-09
2.0229e-09
2.01709e-09
2.0114e-09
2.00581e-09
2.00036e-09
1.99504e-09
1.98988e-09
1.98487e-09
1.98002e-09
1.97534e-09
1.97084e-09
1.9665e-09
1.96234e-09
1.95836e-09
1.95456e-09
1.95094e-09
1.94751e-09
1.94426e-09
1.94121e-09
1.93834e-09
1.93567e-09
1.93318e-09
1.93088e-09
1.92877e-09
1.92684e-09
1.9251e-09
1.92354e-09
1.92217e-09
1.92097e-09
1.91996e-09
1.91911e-09
1.91845e-09
1.91794e-09
1.91763e-09
1.91744e-09
1.91743e-09
1.91743e-09
1.91759e-09
1.9179e-09
1.91835e-09
1.91894e-09
1.91969e-09
1.92059e-09
1.9216e-09
1.92277e-09
1.92406e-09
1.9255e-09
1.92705e-09
1.92872e-09
1.93051e-09
1.93241e-09
1.93441e-09
1.93652e-09
1.93873e-09
1.94105e-09
1.94343e-09
1.94593e-09
1.94848e-09
1.95114e-09
1.95385e-09
1.95667e-09
1.95952e-09
1.96248e-09
1.96547e-09
1.96854e-09
1.97166e-09
1.97485e-09
1.97808e-09
1.98138e-09
1.98472e-09
1.98811e-09
1.99154e-09
1.99501e-09
1.99851e-09
2.00205e-09
2.00562e-09
2.00922e-09
2.01284e-09
2.01649e-09
2.02015e-09
2.02384e-09
2.02754e-09
2.03126e-09
2.03498e-09
2.03872e-09
2.04246e-09
2.04621e-09
2.04997e-09
2.05372e-09
2.05748e-09
2.06123e-09
2.06498e-09
2.06872e-09
2.07247e-09
2.0762e-09
2.07992e-09
2.08363e-09
2.08734e-09
2.09103e-09
2.09471e-09
2.09837e-09
2.10202e-09
2.10564e-09
2.10926e-09
2.11285e-09
2.11643e-09
2.11998e-09
2.12352e-09
2.12703e-09
2.13053e-09
2.13399e-09
2.13744e-09
2.14085e-09
2.14425e-09
2.14762e-09
2.15096e-09
2.15428e-09
2.15758e-09
2.16084e-09
2.16409e-09
2.1673e-09
2.17048e-09
2.17364e-09
2.17677e-09
2.17988e-09
2.18295e-09
2.186e-09
2.18902e-09
2.19201e-09
2.19497e-09
2.1979e-09
2.20081e-09
2.20368e-09
2.20653e-09
2.20935e-09
2.21214e-09
2.2149e-09
2.21764e-09
2.22035e-09
2.22302e-09
2.22568e-09
2.2283e-09
2.23089e-09
2.23346e-09
2.236e-09
2.23852e-09
2.24101e-09
2.24347e-09
2.2459e-09
2.24831e-09
2.25069e-09
2.25304e-09
2.25537e-09
2.25768e-09
2.25996e-09
2.26221e-09
2.26444e-09
2.26665e-09
2.26883e-09
2.27098e-09
2.27312e-09
2.27522e-09
2.27731e-09
2.27937e-09
2.28141e-09
2.28343e-09
2.28542e-09
2.2874e-09
2.28935e-09
2.29127e-09
2.29318e-09
2.29507e-09
2.29693e-09
2.29878e-09
2.3006e-09
2.30241e-09
2.30419e-09
2.30596e-09
2.3077e-09
2.30943e-09
2.31113e-09
2.31282e-09
2.31449e-09
2.31614e-09
2.31777e-09
2.31939e-09
2.32099e-09
2.32257e-09
2.32413e-09
2.32567e-09
2.3272e-09
2.32871e-09
2.33021e-09
2.33169e-09
2.33315e-09
2.3346e-09
2.33603e-09
2.33745e-09
2.33885e-09
2.34023e-09
2.3416e-09
2.34296e-09
2.3443e-09
2.34562e-09
2.34694e-09
2.34823e-09
2.34952e-09
2.35079e-09
2.35205e-09
2.35329e-09
2.35452e-09
2.35574e-09
2.35694e-09
2.35813e-09
2.35931e-09
2.36047e-09
2.36162e-09
2.36276e-09
2.36389e-09
2.36501e-09
2.36611e-09
2.3672e-09
2.36828e-09
2.36935e-09
2.37041e-09
2.37145e-09
2.37248e-09
2.37351e-09
2.37452e-09
2.37552e-09
2.3765e-09
2.37748e-09
2.37845e-09
2.37941e-09
2.38035e-09
2.38129e-09
2.38221e-09
2.38312e-09
2.38403e-09
2.38492e-09
2.3858e-09
2.38667e-09
2.38754e-09
2.38839e-09
2.38923e-09
2.39006e-09
2.39088e-09
2.39169e-09
2.39249e-09
2.39327e-09
2.39406e-09
2.39481e-09
2.39559e-09
2.3963e-09
2.39708e-09
2.39775e-09
2.39854e-09
2.39919e-09
2.40015e-09
2.40079e-09
3.41825e-12
7.74008e-12
2.52338e-11
5.67167e-11
1.00067e-10
1.50811e-10
2.07795e-10
2.67979e-10
3.29833e-10
3.9282e-10
4.55303e-10
5.18207e-10
5.80497e-10
6.4247e-10
7.03982e-10
7.65129e-10
8.25918e-10
8.8636e-10
9.46488e-10
1.00616e-09
1.06526e-09
1.12382e-09
1.18185e-09
1.23936e-09
1.29631e-09
1.35272e-09
1.40858e-09
1.46389e-09
1.51871e-09
1.57303e-09
1.62691e-09
1.68033e-09
1.73324e-09
1.7854e-09
1.83678e-09
1.8885e-09
1.93995e-09
1.9909e-09
2.04151e-09
2.09165e-09
2.14135e-09
2.19061e-09
2.23942e-09
2.28781e-09
2.33579e-09
2.38337e-09
2.43056e-09
2.47738e-09
2.52386e-09
2.57001e-09
2.61585e-09
2.66143e-09
2.70676e-09
2.75185e-09
2.79678e-09
2.84145e-09
2.88598e-09
2.93012e-09
2.97389e-09
3.01725e-09
3.05991e-09
3.10249e-09
3.1444e-09
3.18633e-09
3.22806e-09
3.26969e-09
3.31117e-09
3.35251e-09
3.3937e-09
3.43472e-09
3.47556e-09
3.51622e-09
3.5567e-09
3.59698e-09
3.63708e-09
3.67697e-09
3.71666e-09
3.75613e-09
3.7954e-09
3.83444e-09
3.87327e-09
3.91186e-09
3.95023e-09
3.9883e-09
4.02608e-09
4.06338e-09
4.10033e-09
4.13737e-09
4.17409e-09
4.21035e-09
4.2462e-09
4.28129e-09
4.31584e-09
4.34948e-09
4.3828e-09
4.41514e-09
4.44704e-09
4.47769e-09
4.50777e-09
4.53637e-09
4.56435e-09
4.59039e-09
4.61574e-09
4.63861e-09
4.66104e-09
4.68032e-09
4.6991e-09
4.71397e-09
4.72805e-09
4.73801e-09
4.74718e-09
4.75041e-09
4.75229e-09
4.74989e-09
4.75253e-09
4.748e-09
4.74416e-09
4.73201e-09
4.7203e-09
4.70002e-09
4.68014e-09
4.65131e-09
4.62318e-09
4.58541e-09
4.54895e-09
4.50174e-09
4.45693e-09
4.39979e-09
4.34647e-09
4.27893e-09
4.21589e-09
4.138e-09
4.06324e-09
3.97382e-09
3.88802e-09
3.78875e-09
3.68371e-09
3.57345e-09
3.45883e-09
3.33982e-09
3.21715e-09
3.08872e-09
2.95728e-09
2.81883e-09
2.6775e-09
2.52525e-09
2.37516e-09
2.19887e-09
2.04715e-09
1.86767e-09
1.72781e-09
1.58281e-09
1.4336e-09
1.27672e-09
1.0948e-09
8.8516e-10
7.6343e-10
6.18923e-10
4.02544e-10
2.83978e-10
2.81608e-10
3.20641e-10
3.78947e-10
4.65928e-10
5.95894e-10
7.62861e-10
9.10299e-10
1.07541e-09
1.21968e-09
1.37945e-09
1.51895e-09
1.67156e-09
1.80547e-09
1.9498e-09
2.07754e-09
2.21287e-09
2.33396e-09
2.45991e-09
2.57392e-09
2.69026e-09
2.79672e-09
2.90368e-09
3.00206e-09
3.09978e-09
3.18996e-09
3.27851e-09
3.3605e-09
3.44024e-09
3.51404e-09
3.58525e-09
3.65111e-09
3.71412e-09
3.77234e-09
3.82755e-09
3.87849e-09
3.92631e-09
3.97037e-09
4.01127e-09
4.04893e-09
4.08341e-09
4.11499e-09
4.14361e-09
4.16953e-09
4.19279e-09
4.21349e-09
4.23183e-09
4.2478e-09
4.26164e-09
4.27335e-09
4.28311e-09
4.29103e-09
4.29721e-09
4.30172e-09
4.30471e-09
4.30633e-09
4.3065e-09
4.30529e-09
4.30277e-09
4.29935e-09
4.29467e-09
4.28937e-09
4.28287e-09
4.27607e-09
4.26807e-09
4.26002e-09
4.25079e-09
4.24172e-09
4.23151e-09
4.22167e-09
4.21069e-09
4.20028e-09
4.18879e-09
4.17798e-09
4.16618e-09
4.1551e-09
4.14318e-09
4.13194e-09
4.1201e-09
4.10878e-09
4.09724e-09
4.08591e-09
4.07475e-09
4.06355e-09
4.05276e-09
4.04185e-09
4.03147e-09
4.02098e-09
4.0111e-09
4.00111e-09
3.99177e-09
3.98233e-09
3.97356e-09
3.96471e-09
3.95655e-09
3.9483e-09
3.94079e-09
3.93317e-09
3.92632e-09
3.91936e-09
3.91319e-09
3.90689e-09
3.9014e-09
3.89577e-09
3.89097e-09
3.88602e-09
3.88189e-09
3.87762e-09
3.87416e-09
3.87056e-09
3.86774e-09
3.86482e-09
3.86263e-09
3.86038e-09
3.85878e-09
3.85719e-09
3.85617e-09
3.8552e-09
3.85478e-09
3.85439e-09
3.85449e-09
3.85468e-09
3.85534e-09
3.8561e-09
3.85724e-09
3.85854e-09
3.86017e-09
3.86198e-09
3.86407e-09
3.86634e-09
3.86885e-09
3.87157e-09
3.87452e-09
3.87766e-09
3.881e-09
3.88453e-09
3.8882e-09
3.89209e-09
3.89605e-09
3.90033e-09
3.90451e-09
3.90916e-09
3.91356e-09
3.91855e-09
3.92316e-09
3.92844e-09
3.93326e-09
3.93882e-09
3.94384e-09
3.94964e-09
3.95484e-09
3.96086e-09
3.96622e-09
3.97242e-09
3.97794e-09
3.98429e-09
3.98993e-09
3.99641e-09
4.00217e-09
4.00875e-09
4.01461e-09
4.02128e-09
4.02723e-09
4.03397e-09
4.03999e-09
4.04677e-09
4.05285e-09
4.05967e-09
4.06578e-09
4.07262e-09
4.07877e-09
4.08562e-09
4.09177e-09
4.09862e-09
4.10478e-09
4.11161e-09
4.11777e-09
4.12456e-09
4.13073e-09
4.13746e-09
4.14362e-09
4.15028e-09
4.15644e-09
4.16302e-09
4.16916e-09
4.17565e-09
4.18178e-09
4.18817e-09
4.19427e-09
4.20056e-09
4.20663e-09
4.21282e-09
4.21885e-09
4.22492e-09
4.23091e-09
4.23688e-09
4.2428e-09
4.24868e-09
4.25452e-09
4.26031e-09
4.26606e-09
4.27177e-09
4.27743e-09
4.28304e-09
4.28861e-09
4.29413e-09
4.2996e-09
4.30503e-09
4.31041e-09
4.31574e-09
4.32102e-09
4.32626e-09
4.33144e-09
4.33658e-09
4.34167e-09
4.34671e-09
4.3517e-09
4.35664e-09
4.36153e-09
4.36638e-09
4.37118e-09
4.37593e-09
4.38063e-09
4.38528e-09
4.38989e-09
4.39445e-09
4.39896e-09
4.40342e-09
4.40784e-09
4.41221e-09
4.41654e-09
4.42082e-09
4.42505e-09
4.42924e-09
4.43339e-09
4.43749e-09
4.44154e-09
4.44556e-09
4.44953e-09
4.45345e-09
4.45734e-09
4.46118e-09
4.46498e-09
4.46874e-09
4.47246e-09
4.47614e-09
4.47977e-09
4.48337e-09
4.48693e-09
4.49045e-09
4.49393e-09
4.49737e-09
4.50078e-09
4.50415e-09
4.50748e-09
4.51078e-09
4.51404e-09
4.51726e-09
4.52045e-09
4.5236e-09
4.52672e-09
4.52981e-09
4.53286e-09
4.53588e-09
4.53886e-09
4.54181e-09
4.54474e-09
4.54763e-09
4.55048e-09
4.55331e-09
4.55611e-09
4.55887e-09
4.56161e-09
4.56432e-09
4.56699e-09
4.56964e-09
4.57226e-09
4.57485e-09
4.57742e-09
4.57995e-09
4.58246e-09
4.58494e-09
4.5874e-09
4.58983e-09
4.59223e-09
4.59461e-09
4.59696e-09
4.59929e-09
4.60159e-09
4.60386e-09
4.60612e-09
4.60835e-09
4.61055e-09
4.61273e-09
4.61489e-09
4.61702e-09
4.61914e-09
4.62122e-09
4.62329e-09
4.62533e-09
4.62736e-09
4.62936e-09
4.63134e-09
4.63329e-09
4.63523e-09
4.63714e-09
4.63904e-09
4.64091e-09
4.64277e-09
4.6446e-09
4.64641e-09
4.64821e-09
4.64998e-09
4.65173e-09
4.65347e-09
4.65518e-09
4.65688e-09
4.65855e-09
4.66021e-09
4.66185e-09
4.66347e-09
4.66507e-09
4.66665e-09
4.66822e-09
4.66976e-09
4.67129e-09
4.67279e-09
4.6743e-09
4.67573e-09
4.67723e-09
4.67859e-09
4.6801e-09
4.68136e-09
4.68292e-09
4.68403e-09
4.68569e-09
4.68658e-09
4.68846e-09
4.689e-09
4.69142e-09
4.69126e-09
4.21908e-12
2.72826e-11
8.36312e-11
1.54051e-10
2.40634e-10
3.3859e-10
4.46047e-10
5.59019e-10
6.75518e-10
7.93861e-10
9.12354e-10
1.03111e-09
1.14899e-09
1.26609e-09
1.38221e-09
1.49732e-09
1.61143e-09
1.72446e-09
1.83629e-09
1.94692e-09
2.05653e-09
2.16504e-09
2.27248e-09
2.37879e-09
2.48397e-09
2.588e-09
2.69087e-09
2.7926e-09
2.89323e-09
2.99276e-09
3.09124e-09
3.18864e-09
3.285e-09
3.38032e-09
3.47484e-09
3.56854e-09
3.66057e-09
3.75182e-09
3.84206e-09
3.93132e-09
4.01956e-09
4.10685e-09
4.19316e-09
4.27865e-09
4.36331e-09
4.4472e-09
4.53032e-09
4.61268e-09
4.69429e-09
4.77516e-09
4.85531e-09
4.93475e-09
5.01351e-09
5.09155e-09
5.169e-09
5.24561e-09
5.32184e-09
5.3972e-09
5.47278e-09
5.54708e-09
5.62072e-09
5.69417e-09
5.76682e-09
5.839e-09
5.91051e-09
5.98142e-09
6.05172e-09
6.12142e-09
6.19053e-09
6.25906e-09
6.32701e-09
6.39437e-09
6.46115e-09
6.52731e-09
6.59288e-09
6.65779e-09
6.72209e-09
6.7857e-09
6.84865e-09
6.91084e-09
6.97236e-09
7.03303e-09
7.09297e-09
7.15193e-09
7.2101e-09
7.26732e-09
7.32394e-09
7.37912e-09
7.43314e-09
7.48545e-09
7.53697e-09
7.58705e-09
7.63616e-09
7.68343e-09
7.72898e-09
7.7721e-09
7.81428e-09
7.85373e-09
7.89175e-09
7.92652e-09
7.95966e-09
7.98922e-09
8.01665e-09
8.03994e-09
8.06137e-09
8.07742e-09
8.09204e-09
8.10012e-09
8.10714e-09
8.10654e-09
8.10644e-09
8.09521e-09
8.08536e-09
8.06156e-09
8.03853e-09
8.00456e-09
7.96902e-09
7.92307e-09
7.87472e-09
7.81501e-09
7.75284e-09
7.67824e-09
7.60144e-09
7.51117e-09
7.41915e-09
7.31235e-09
7.20448e-09
7.08031e-09
6.95518e-09
6.81284e-09
6.66437e-09
6.50649e-09
6.33235e-09
6.15516e-09
5.96798e-09
5.78728e-09
5.6081e-09
5.40145e-09
5.19734e-09
4.9724e-09
4.75073e-09
4.45929e-09
4.13828e-09
3.80248e-09
3.47365e-09
3.13012e-09
2.80396e-09
2.46294e-09
2.1454e-09
1.83194e-09
1.54831e-09
1.32917e-09
1.23121e-09
9.81264e-10
7.43033e-10
6.24797e-10
6.24797e-10
6.98053e-10
7.67914e-10
8.09696e-10
9.54668e-10
1.20399e-09
1.46377e-09
1.75348e-09
2.02031e-09
2.30846e-09
2.57144e-09
2.85299e-09
3.10905e-09
3.38083e-09
3.62829e-09
3.88839e-09
4.12604e-09
4.37294e-09
4.5998e-09
4.83249e-09
5.04779e-09
5.26535e-09
5.46838e-09
5.67061e-09
5.86035e-09
6.04749e-09
6.22326e-09
6.39535e-09
6.55692e-09
6.71405e-09
6.86143e-09
7.00385e-09
7.13721e-09
7.26528e-09
7.38495e-09
7.49912e-09
7.60555e-09
7.70639e-09
7.80014e-09
7.8883e-09
7.96998e-09
8.04618e-09
8.11648e-09
8.18146e-09
8.2411e-09
8.29561e-09
8.34522e-09
8.39009e-09
8.4304e-09
8.46639e-09
8.49814e-09
8.52597e-09
8.54995e-09
8.57036e-09
8.58732e-09
8.60099e-09
8.61158e-09
8.61928e-09
8.62429e-09
8.62677e-09
8.62668e-09
8.62391e-09
8.6193e-09
8.61258e-09
8.60433e-09
8.59419e-09
8.58284e-09
8.56971e-09
8.55571e-09
8.5401e-09
8.52392e-09
8.5063e-09
8.48842e-09
8.46917e-09
8.44995e-09
8.42951e-09
8.4093e-09
8.38801e-09
8.36712e-09
8.34529e-09
8.32397e-09
8.30196e-09
8.28039e-09
8.25855e-09
8.2369e-09
8.21547e-09
8.19398e-09
8.17303e-09
8.15194e-09
8.13163e-09
8.11117e-09
8.09159e-09
8.07191e-09
8.05315e-09
8.03437e-09
8.01654e-09
7.99872e-09
7.98191e-09
7.96513e-09
7.94941e-09
7.93373e-09
7.91915e-09
7.9046e-09
7.8912e-09
7.87783e-09
7.86563e-09
7.85346e-09
7.84247e-09
7.83152e-09
7.82174e-09
7.81201e-09
7.80345e-09
7.79493e-09
7.78756e-09
7.78026e-09
7.77405e-09
7.76795e-09
7.76289e-09
7.75796e-09
7.75401e-09
7.75022e-09
7.74739e-09
7.74468e-09
7.74287e-09
7.74124e-09
7.74046e-09
7.73989e-09
7.74005e-09
7.74046e-09
7.74153e-09
7.74295e-09
7.74489e-09
7.74719e-09
7.74994e-09
7.7531e-09
7.75669e-09
7.76066e-09
7.76502e-09
7.76971e-09
7.77476e-09
7.78014e-09
7.78582e-09
7.79189e-09
7.79811e-09
7.80484e-09
7.81155e-09
7.81889e-09
7.82609e-09
7.834e-09
7.84165e-09
7.85009e-09
7.85817e-09
7.86709e-09
7.87556e-09
7.8849e-09
7.89374e-09
7.90344e-09
7.9126e-09
7.92262e-09
7.93208e-09
7.94238e-09
7.9521e-09
7.96264e-09
7.97258e-09
7.98333e-09
7.99347e-09
8.0044e-09
8.0147e-09
8.02578e-09
8.03622e-09
8.04741e-09
8.05796e-09
8.06923e-09
8.07987e-09
8.0912e-09
8.1019e-09
8.11328e-09
8.12402e-09
8.1354e-09
8.14617e-09
8.15755e-09
8.16832e-09
8.17967e-09
8.19044e-09
8.20172e-09
8.21248e-09
8.22368e-09
8.23442e-09
8.24552e-09
8.25622e-09
8.2672e-09
8.27787e-09
8.28872e-09
8.29933e-09
8.31004e-09
8.32059e-09
8.33114e-09
8.34161e-09
8.35203e-09
8.36238e-09
8.37267e-09
8.38289e-09
8.39304e-09
8.40312e-09
8.41314e-09
8.42308e-09
8.43295e-09
8.44274e-09
8.45246e-09
8.4621e-09
8.47166e-09
8.48115e-09
8.49056e-09
8.49989e-09
8.50914e-09
8.5183e-09
8.52739e-09
8.5364e-09
8.54532e-09
8.55417e-09
8.56293e-09
8.57161e-09
8.58021e-09
8.58873e-09
8.59717e-09
8.60552e-09
8.6138e-09
8.62199e-09
8.6301e-09
8.63813e-09
8.64608e-09
8.65396e-09
8.66175e-09
8.66946e-09
8.67709e-09
8.68465e-09
8.69213e-09
8.69953e-09
8.70685e-09
8.7141e-09
8.72127e-09
8.72837e-09
8.73539e-09
8.74234e-09
8.74921e-09
8.75601e-09
8.76274e-09
8.7694e-09
8.77599e-09
8.7825e-09
8.78895e-09
8.79533e-09
8.80164e-09
8.80788e-09
8.81406e-09
8.82017e-09
8.82621e-09
8.83219e-09
8.8381e-09
8.84395e-09
8.84974e-09
8.85546e-09
8.86113e-09
8.86673e-09
8.87227e-09
8.87776e-09
8.88318e-09
8.88854e-09
8.89385e-09
8.8991e-09
8.9043e-09
8.90944e-09
8.91452e-09
8.91955e-09
8.92452e-09
8.92945e-09
8.93431e-09
8.93913e-09
8.9439e-09
8.94861e-09
8.95328e-09
8.95789e-09
8.96245e-09
8.96697e-09
8.97144e-09
8.97586e-09
8.98023e-09
8.98456e-09
8.98884e-09
8.99307e-09
8.99726e-09
9.00141e-09
9.00551e-09
9.00957e-09
9.01358e-09
9.01755e-09
9.02148e-09
9.02537e-09
9.02922e-09
9.03302e-09
9.03679e-09
9.04051e-09
9.04419e-09
9.04784e-09
9.05144e-09
9.05501e-09
9.05854e-09
9.06203e-09
9.06548e-09
9.0689e-09
9.07227e-09
9.07561e-09
9.07892e-09
9.08219e-09
9.08542e-09
9.08862e-09
9.09178e-09
9.09491e-09
9.098e-09
9.10106e-09
9.10408e-09
9.10707e-09
9.11002e-09
9.11295e-09
9.11584e-09
9.11869e-09
9.12152e-09
9.12429e-09
9.12706e-09
9.12977e-09
9.13248e-09
9.1351e-09
9.13777e-09
9.14029e-09
9.14294e-09
9.14532e-09
9.14799e-09
9.15019e-09
9.15293e-09
9.15488e-09
9.1578e-09
9.15935e-09
9.16259e-09
9.16345e-09
1.3146e-11
6.56567e-11
1.67761e-10
2.86894e-10
4.17181e-10
5.5982e-10
7.12757e-10
8.72291e-10
1.03615e-09
1.2024e-09
1.36961e-09
1.53685e-09
1.70291e-09
1.86753e-09
2.03054e-09
2.19182e-09
2.35129e-09
2.50874e-09
2.66396e-09
2.81702e-09
2.96821e-09
3.11748e-09
3.2648e-09
3.41017e-09
3.55354e-09
3.69492e-09
3.83435e-09
3.97182e-09
4.10747e-09
4.24126e-09
4.37334e-09
4.50364e-09
4.63242e-09
4.75981e-09
4.88604e-09
5.00975e-09
5.13236e-09
5.25349e-09
5.3732e-09
5.49147e-09
5.60826e-09
5.72363e-09
5.83749e-09
5.94997e-09
6.06101e-09
6.17069e-09
6.27902e-09
6.38604e-09
6.4918e-09
6.59632e-09
6.69966e-09
6.80184e-09
6.90292e-09
7.0029e-09
7.10194e-09
7.19988e-09
7.29713e-09
7.39319e-09
7.48871e-09
7.58195e-09
7.6728e-09
7.76298e-09
7.85145e-09
7.93944e-09
8.02634e-09
8.11248e-09
8.19766e-09
8.28182e-09
8.36496e-09
8.44701e-09
8.52798e-09
8.60778e-09
8.68646e-09
8.76391e-09
8.84019e-09
8.91516e-09
8.98889e-09
9.06126e-09
9.13231e-09
9.20187e-09
9.27009e-09
9.33669e-09
9.40189e-09
9.46534e-09
9.52727e-09
9.58726e-09
9.64542e-09
9.70156e-09
9.75613e-09
9.80801e-09
9.85802e-09
9.90483e-09
9.94996e-09
9.99151e-09
1.00309e-08
1.00661e-08
1.00989e-08
1.01269e-08
1.01528e-08
1.01732e-08
1.01912e-08
1.02033e-08
1.02123e-08
1.0214e-08
1.0214e-08
1.02048e-08
1.01939e-08
1.01728e-08
1.01498e-08
1.01147e-08
1.00755e-08
1.00287e-08
9.96182e-09
9.90164e-09
9.84712e-09
9.76894e-09
9.69093e-09
9.59405e-09
9.49631e-09
9.38157e-09
9.26466e-09
9.13112e-09
8.94627e-09
8.72666e-09
8.5031e-09
8.261e-09
8.01701e-09
7.75235e-09
7.48891e-09
7.20324e-09
6.92247e-09
6.61888e-09
6.3162e-09
6.00289e-09
5.675e-09
5.319e-09
4.95988e-09
4.59781e-09
4.23555e-09
3.86648e-09
3.50048e-09
3.13142e-09
2.77503e-09
2.43305e-09
2.1341e-09
1.89731e-09
1.75114e-09
1.66965e-09
1.33596e-09
1.0553e-09
9.07471e-10
9.07471e-10
9.43005e-10
1.13561e-09
1.21805e-09
1.29874e-09
1.47262e-09
1.76077e-09
2.07513e-09
2.44227e-09
2.79457e-09
3.17454e-09
3.53072e-09
3.90877e-09
4.2605e-09
4.63186e-09
4.97635e-09
5.33752e-09
5.67214e-09
6.02013e-09
6.34328e-09
6.67637e-09
6.98674e-09
7.3034e-09
7.59999e-09
7.899e-09
8.18077e-09
8.46145e-09
8.72713e-09
8.98941e-09
9.23791e-09
9.48171e-09
9.71251e-09
9.93768e-09
1.01505e-08
1.03571e-08
1.0552e-08
1.07402e-08
1.09173e-08
1.10874e-08
1.12472e-08
1.13997e-08
1.15426e-08
1.16782e-08
1.18048e-08
1.19242e-08
1.20352e-08
1.21392e-08
1.22354e-08
1.23249e-08
1.24072e-08
1.2483e-08
1.25522e-08
1.26152e-08
1.26722e-08
1.27233e-08
1.27689e-08
1.28091e-08
1.28442e-08
1.28744e-08
1.28999e-08
1.29209e-08
1.29377e-08
1.29505e-08
1.29595e-08
1.29649e-08
1.29671e-08
1.29655e-08
1.2961e-08
1.29537e-08
1.2944e-08
1.29318e-08
1.29176e-08
1.29011e-08
1.28829e-08
1.28627e-08
1.28413e-08
1.28181e-08
1.27939e-08
1.27682e-08
1.27418e-08
1.27142e-08
1.26861e-08
1.26569e-08
1.26277e-08
1.25975e-08
1.25673e-08
1.25365e-08
1.25058e-08
1.24748e-08
1.24438e-08
1.2413e-08
1.23821e-08
1.23517e-08
1.23212e-08
1.22915e-08
1.22615e-08
1.22326e-08
1.22035e-08
1.21755e-08
1.21475e-08
1.21206e-08
1.20937e-08
1.20681e-08
1.20425e-08
1.20182e-08
1.19941e-08
1.19712e-08
1.19485e-08
1.19272e-08
1.19061e-08
1.18863e-08
1.18668e-08
1.18486e-08
1.18306e-08
1.18141e-08
1.17978e-08
1.17829e-08
1.17682e-08
1.17549e-08
1.17419e-08
1.17302e-08
1.17188e-08
1.17087e-08
1.16988e-08
1.16903e-08
1.1682e-08
1.1675e-08
1.16682e-08
1.16627e-08
1.16574e-08
1.16533e-08
1.16495e-08
1.16468e-08
1.16443e-08
1.16429e-08
1.16418e-08
1.16416e-08
1.16418e-08
1.16428e-08
1.16443e-08
1.16464e-08
1.16491e-08
1.16522e-08
1.16559e-08
1.16602e-08
1.16649e-08
1.16701e-08
1.16758e-08
1.16819e-08
1.16885e-08
1.16953e-08
1.17028e-08
1.17104e-08
1.17187e-08
1.1727e-08
1.17361e-08
1.17451e-08
1.17548e-08
1.17644e-08
1.17748e-08
1.1785e-08
1.1796e-08
1.18067e-08
1.18181e-08
1.18293e-08
1.18412e-08
1.18528e-08
1.18651e-08
1.1877e-08
1.18897e-08
1.1902e-08
1.1915e-08
1.19276e-08
1.19408e-08
1.19536e-08
1.19671e-08
1.19801e-08
1.19938e-08
1.2007e-08
1.20208e-08
1.20342e-08
1.20481e-08
1.20615e-08
1.20756e-08
1.20891e-08
1.21032e-08
1.21168e-08
1.21309e-08
1.21445e-08
1.21586e-08
1.21722e-08
1.21863e-08
1.21999e-08
1.22139e-08
1.22275e-08
1.22414e-08
1.22549e-08
1.22687e-08
1.22823e-08
1.22959e-08
1.23094e-08
1.23229e-08
1.23363e-08
1.23496e-08
1.23629e-08
1.23761e-08
1.23892e-08
1.24023e-08
1.24153e-08
1.24282e-08
1.2441e-08
1.24538e-08
1.24664e-08
1.2479e-08
1.24915e-08
1.25039e-08
1.25162e-08
1.25284e-08
1.25405e-08
1.25525e-08
1.25645e-08
1.25763e-08
1.2588e-08
1.25996e-08
1.26112e-08
1.26226e-08
1.26339e-08
1.26452e-08
1.26563e-08
1.26674e-08
1.26783e-08
1.26891e-08
1.26999e-08
1.27105e-08
1.2721e-08
1.27315e-08
1.27418e-08
1.2752e-08
1.27621e-08
1.27722e-08
1.27821e-08
1.2792e-08
1.28017e-08
1.28113e-08
1.28209e-08
1.28303e-08
1.28397e-08
1.28489e-08
1.28581e-08
1.28672e-08
1.28761e-08
1.2885e-08
1.28938e-08
1.29025e-08
1.29111e-08
1.29196e-08
1.29281e-08
1.29364e-08
1.29447e-08
1.29528e-08
1.29609e-08
1.29689e-08
1.29768e-08
1.29847e-08
1.29924e-08
1.30001e-08
1.30077e-08
1.30152e-08
1.30226e-08
1.30299e-08
1.30372e-08
1.30444e-08
1.30515e-08
1.30585e-08
1.30655e-08
1.30724e-08
1.30792e-08
1.3086e-08
1.30926e-08
1.30992e-08
1.31058e-08
1.31122e-08
1.31186e-08
1.3125e-08
1.31312e-08
1.31374e-08
1.31436e-08
1.31496e-08
1.31556e-08
1.31616e-08
1.31674e-08
1.31733e-08
1.3179e-08
1.31847e-08
1.31903e-08
1.31959e-08
1.32014e-08
1.32069e-08
1.32123e-08
1.32176e-08
1.32229e-08
1.32281e-08
1.32333e-08
1.32384e-08
1.32434e-08
1.32485e-08
1.32534e-08
1.32583e-08
1.32632e-08
1.3268e-08
1.32727e-08
1.32774e-08
1.3282e-08
1.32866e-08
1.32912e-08
1.32957e-08
1.33001e-08
1.33045e-08
1.33089e-08
1.33132e-08
1.33174e-08
1.33216e-08
1.33258e-08
1.33299e-08
1.3334e-08
1.3338e-08
1.3342e-08
1.33459e-08
1.33498e-08
1.33537e-08
1.33575e-08
1.33612e-08
1.33649e-08
1.33686e-08
1.33722e-08
1.33759e-08
1.33794e-08
1.33829e-08
1.33863e-08
1.33898e-08
1.3393e-08
1.33965e-08
1.33996e-08
1.3403e-08
1.34059e-08
1.34094e-08
1.34119e-08
1.34156e-08
1.34175e-08
3.66387e-11
1.24391e-10
2.80382e-10
4.54726e-10
6.28207e-10
8.12434e-10
1.00562e-09
1.20535e-09
1.40912e-09
1.61565e-09
1.82295e-09
2.02977e-09
2.23504e-09
2.43816e-09
2.63873e-09
2.83652e-09
3.03126e-09
3.22264e-09
3.41076e-09
3.59594e-09
3.77867e-09
3.95839e-09
4.13559e-09
4.31001e-09
4.48165e-09
4.65058e-09
4.81683e-09
4.98046e-09
5.14152e-09
5.3001e-09
5.45634e-09
5.61021e-09
5.76188e-09
5.91134e-09
6.0586e-09
6.20355e-09
6.34544e-09
6.48523e-09
6.62282e-09
6.75819e-09
6.89129e-09
7.02232e-09
7.15122e-09
7.27832e-09
7.40351e-09
7.527e-09
7.64872e-09
7.76865e-09
7.88681e-09
8.0032e-09
8.11784e-09
8.23076e-09
8.34192e-09
8.45137e-09
8.55895e-09
8.66505e-09
8.7691e-09
8.87172e-09
8.9725e-09
9.07162e-09
9.17e-09
9.26639e-09
9.36205e-09
9.45501e-09
9.54637e-09
9.63585e-09
9.7236e-09
9.80955e-09
9.89378e-09
9.97616e-09
1.00568e-08
1.01355e-08
1.02124e-08
1.02872e-08
1.03602e-08
1.0431e-08
1.04998e-08
1.05664e-08
1.06309e-08
1.06928e-08
1.07528e-08
1.08099e-08
1.0865e-08
1.09171e-08
1.09671e-08
1.10137e-08
1.10579e-08
1.10981e-08
1.11354e-08
1.11678e-08
1.11982e-08
1.12243e-08
1.12477e-08
1.1266e-08
1.12818e-08
1.12908e-08
1.12973e-08
1.12955e-08
1.12924e-08
1.12803e-08
1.12415e-08
1.11681e-08
1.10935e-08
1.10046e-08
1.09145e-08
1.08093e-08
1.07028e-08
1.058e-08
1.04572e-08
1.03155e-08
1.01768e-08
1.00193e-08
9.86504e-09
9.68903e-09
9.49405e-09
9.29387e-09
9.08495e-09
8.86446e-09
8.63654e-09
8.39431e-09
8.14563e-09
7.88111e-09
7.61111e-09
7.32445e-09
7.03332e-09
6.72483e-09
6.41397e-09
6.08412e-09
5.75465e-09
5.40625e-09
5.05975e-09
4.69892e-09
4.33932e-09
3.975e-09
3.61926e-09
3.27272e-09
2.95089e-09
2.66592e-09
2.43854e-09
2.28169e-09
2.19109e-09
1.98872e-09
1.66089e-09
1.39378e-09
1.23795e-09
1.23268e-09
1.23268e-09
1.38624e-09
1.65722e-09
1.69016e-09
1.77394e-09
1.97869e-09
2.26079e-09
2.62895e-09
3.01578e-09
3.44309e-09
3.85758e-09
4.29918e-09
4.7192e-09
5.17017e-09
5.59083e-09
6.03427e-09
6.44925e-09
6.88424e-09
7.29097e-09
7.71432e-09
8.1111e-09
8.52183e-09
8.90666e-09
9.30195e-09
9.67299e-09
1.0051e-08
1.04071e-08
1.07663e-08
1.11066e-08
1.14461e-08
1.1769e-08
1.20885e-08
1.23928e-08
1.2692e-08
1.29768e-08
1.32556e-08
1.35205e-08
1.37786e-08
1.40235e-08
1.42609e-08
1.44856e-08
1.47025e-08
1.49074e-08
1.51042e-08
1.52896e-08
1.54667e-08
1.56331e-08
1.57912e-08
1.59393e-08
1.60791e-08
1.62096e-08
1.63321e-08
1.64457e-08
1.65517e-08
1.66494e-08
1.67397e-08
1.68224e-08
1.6898e-08
1.69665e-08
1.70283e-08
1.70836e-08
1.71326e-08
1.71756e-08
1.72128e-08
1.72444e-08
1.72707e-08
1.7292e-08
1.73085e-08
1.73205e-08
1.73281e-08
1.73318e-08
1.73312e-08
1.73267e-08
1.73188e-08
1.7308e-08
1.7294e-08
1.72774e-08
1.7258e-08
1.72365e-08
1.72125e-08
1.71867e-08
1.71588e-08
1.71294e-08
1.70981e-08
1.70657e-08
1.70318e-08
1.69971e-08
1.6961e-08
1.69245e-08
1.68868e-08
1.68489e-08
1.68102e-08
1.67714e-08
1.67321e-08
1.66928e-08
1.66534e-08
1.66138e-08
1.65747e-08
1.65353e-08
1.64967e-08
1.64578e-08
1.64199e-08
1.63818e-08
1.63448e-08
1.63078e-08
1.62719e-08
1.62362e-08
1.62017e-08
1.61673e-08
1.61343e-08
1.61015e-08
1.60701e-08
1.6039e-08
1.60093e-08
1.59799e-08
1.5952e-08
1.59245e-08
1.58985e-08
1.58728e-08
1.58487e-08
1.5825e-08
1.58028e-08
1.5781e-08
1.57607e-08
1.57409e-08
1.57225e-08
1.57046e-08
1.56882e-08
1.56722e-08
1.56577e-08
1.56436e-08
1.5631e-08
1.56187e-08
1.56079e-08
1.55975e-08
1.55885e-08
1.55798e-08
1.55725e-08
1.55655e-08
1.55599e-08
1.55546e-08
1.55506e-08
1.55468e-08
1.55442e-08
1.55422e-08
1.5541e-08
1.55404e-08
1.55406e-08
1.55414e-08
1.55429e-08
1.5545e-08
1.55478e-08
1.55511e-08
1.5555e-08
1.55595e-08
1.55644e-08
1.55701e-08
1.55761e-08
1.55828e-08
1.55897e-08
1.55975e-08
1.56053e-08
1.56139e-08
1.56226e-08
1.5632e-08
1.56415e-08
1.56517e-08
1.56618e-08
1.56727e-08
1.56836e-08
1.56951e-08
1.57065e-08
1.57186e-08
1.57306e-08
1.57432e-08
1.57556e-08
1.57687e-08
1.57816e-08
1.57951e-08
1.58083e-08
1.58222e-08
1.58358e-08
1.58499e-08
1.58638e-08
1.58782e-08
1.58923e-08
1.5907e-08
1.59213e-08
1.59361e-08
1.59506e-08
1.59656e-08
1.59802e-08
1.59953e-08
1.601e-08
1.60252e-08
1.60399e-08
1.60551e-08
1.607e-08
1.60852e-08
1.61e-08
1.61152e-08
1.613e-08
1.61451e-08
1.616e-08
1.6175e-08
1.61898e-08
1.62047e-08
1.62195e-08
1.62343e-08
1.6249e-08
1.62636e-08
1.62782e-08
1.62928e-08
1.63072e-08
1.63216e-08
1.63359e-08
1.63502e-08
1.63643e-08
1.63784e-08
1.63924e-08
1.64063e-08
1.64201e-08
1.64338e-08
1.64474e-08
1.6461e-08
1.64744e-08
1.64878e-08
1.6501e-08
1.65141e-08
1.65272e-08
1.65401e-08
1.6553e-08
1.65657e-08
1.65783e-08
1.65908e-08
1.66032e-08
1.66155e-08
1.66277e-08
1.66398e-08
1.66518e-08
1.66637e-08
1.66755e-08
1.66871e-08
1.66987e-08
1.67101e-08
1.67215e-08
1.67327e-08
1.67438e-08
1.67549e-08
1.67658e-08
1.67766e-08
1.67873e-08
1.67979e-08
1.68084e-08
1.68188e-08
1.68291e-08
1.68393e-08
1.68494e-08
1.68593e-08
1.68692e-08
1.6879e-08
1.68887e-08
1.68983e-08
1.69078e-08
1.69172e-08
1.69265e-08
1.69357e-08
1.69448e-08
1.69538e-08
1.69627e-08
1.69715e-08
1.69803e-08
1.69889e-08
1.69975e-08
1.70059e-08
1.70143e-08
1.70226e-08
1.70308e-08
1.70389e-08
1.7047e-08
1.70549e-08
1.70628e-08
1.70706e-08
1.70783e-08
1.70859e-08
1.70935e-08
1.71009e-08
1.71083e-08
1.71156e-08
1.71229e-08
1.713e-08
1.71371e-08
1.71441e-08
1.71511e-08
1.71579e-08
1.71647e-08
1.71714e-08
1.71781e-08
1.71847e-08
1.71912e-08
1.71976e-08
1.7204e-08
1.72103e-08
1.72166e-08