/*--------------------------------*- C++ -*----------------------------------*\
| =========                 |                                                 |
| \\      /  F ield         | OpenFOAM: The Open Source CFD Toolbox           |
|  \\    /   O peration     | Version:  2012                                  |
|   \\  /    A nd           | Website:  www.openfoam.com                      |
|    \\/     M anipulation  |                                                 |
\*---------------------------------------------------------------------------*/
FoamFile
{
    version     2.0;
    format      ascii;
    class       surfaceScalarField;
    location    "0.29";
    object      phi;
}
// * * * * * * * * * * * * * * * * * * * * * * * * * * * * * * * * * * * * * //

dimensions      [0 3 -1 0 0 0 0];
oriented        oriented;


internalField   nonuniform List<scalar> 
4432
(
4.16138e-06
-4.16138e-06
8.29595e-06
-4.13456e-06
1.23937e-05
-4.09772e-06
1.65687e-05
-4.17498e-06
2.06352e-05
-4.06655e-06
2.46241e-05
-3.98889e-06
2.85467e-05
-3.92262e-06
3.24689e-05
-3.9222e-06
3.61244e-05
-3.65552e-06
3.97345e-05
-3.61005e-06
4.28922e-05
-3.15768e-06
4.55363e-05
-2.64414e-06
4.82294e-05
-2.6931e-06
5.01655e-05
-1.93613e-06
5.11786e-05
-1.0131e-06
5.11532e-05
2.54071e-08
4.99593e-05
1.19394e-06
4.73448e-05
2.61453e-06
4.29575e-05
4.38725e-06
3.60948e-05
6.86275e-06
2.6962e-05
9.13278e-06
1.46501e-05
1.23119e-05
1.46503e-05
4.15744e-06
-8.31882e-06
8.30046e-06
-8.27758e-06
1.24008e-05
-8.19808e-06
1.65747e-05
-8.34889e-06
2.0647e-05
-8.13883e-06
2.46425e-05
-7.98434e-06
2.85719e-05
-7.85205e-06
3.24951e-05
-7.84542e-06
3.61673e-05
-7.32768e-06
3.97975e-05
-7.24026e-06
4.29582e-05
-6.31838e-06
4.57272e-05
-5.41315e-06
4.83637e-05
-5.32958e-06
5.01581e-05
-3.7305e-06
5.13332e-05
-2.18817e-06
5.14712e-05
-1.12645e-07
5.03104e-05
2.35477e-06
4.76146e-05
5.31033e-06
4.3029e-05
8.97289e-06
3.57575e-05
1.41342e-05
2.58833e-05
1.9007e-05
1.28284e-05
2.53669e-05
2.74788e-05
4.15552e-06
-1.24743e-05
8.31307e-06
-1.24351e-05
1.24152e-05
-1.23002e-05
1.65888e-05
-1.25224e-05
2.06755e-05
-1.22256e-05
2.46859e-05
-1.19947e-05
2.86325e-05
-1.17986e-05
3.25638e-05
-1.17767e-05
3.62693e-05
-1.10331e-05
3.99323e-05
-1.09032e-05
4.31224e-05
-9.50854e-06
4.60332e-05
-8.32392e-06
4.8662e-05
-7.9584e-06
5.04886e-05
-5.5571e-06
5.18658e-05
-3.5654e-06
5.22465e-05
-4.93291e-07
5.13765e-05
3.22474e-06
4.90577e-05
7.62913e-06
4.50997e-05
1.2931e-05
3.86535e-05
2.05803e-05
2.95252e-05
2.81353e-05
1.60396e-05
3.88525e-05
4.35187e-05
4.15571e-06
-1.663e-05
8.3261e-06
-1.66055e-05
1.24267e-05
-1.64008e-05
1.65961e-05
-1.66919e-05
2.06988e-05
-1.63282e-05
2.47305e-05
-1.60265e-05
2.87e-05
-1.57681e-05
3.26387e-05
-1.57154e-05
3.63801e-05
-1.47745e-05
4.0082e-05
-1.46051e-05
4.33194e-05
-1.27459e-05
4.63591e-05
-1.13636e-05
4.90371e-05
-1.06364e-05
5.08918e-05
-7.41177e-06
5.23196e-05
-4.99319e-06
5.27807e-05
-9.54349e-07
5.20818e-05
3.92362e-06
4.96867e-05
1.00242e-05
4.54904e-05
1.71273e-05
3.87448e-05
2.73259e-05
2.94837e-05
3.73965e-05
1.60357e-05
5.23005e-05
5.95547e-05
4.15975e-06
-2.07898e-05
8.34518e-06
-2.07909e-05
1.24508e-05
-2.05064e-05
1.66201e-05
-2.08613e-05
2.07433e-05
-2.04514e-05
2.4808e-05
-2.00912e-05
2.88143e-05
-1.97745e-05
3.27712e-05
-1.96723e-05
3.65705e-05
-1.85739e-05
4.03253e-05
-1.83599e-05
4.36407e-05
-1.60613e-05
4.68684e-05
-1.45913e-05
4.96407e-05
-1.34088e-05
5.1685e-05
-9.45601e-06
5.33393e-05
-6.64747e-06
5.41373e-05
-1.75234e-06
5.40012e-05
4.05969e-06
5.23469e-05
1.16785e-05
4.90305e-05
2.04437e-05
4.31366e-05
3.32198e-05
3.44451e-05
4.6088e-05
2.03727e-05
6.63728e-05
7.99277e-05
4.16085e-06
-2.49506e-05
8.35565e-06
-2.49857e-05
1.24678e-05
-2.46185e-05
1.66362e-05
-2.50297e-05
2.07737e-05
-2.45889e-05
2.48678e-05
-2.41852e-05
2.89074e-05
-2.38141e-05
3.28802e-05
-2.36451e-05
3.67366e-05
-2.24302e-05
4.05378e-05
-2.21611e-05
4.39424e-05
-1.9466e-05
4.7347e-05
-1.79959e-05
5.02062e-05
-1.62679e-05
5.24657e-05
-1.17155e-05
5.43541e-05
-8.53589e-06
5.51426e-05
-2.54078e-06
5.51048e-05
4.09748e-06
5.3507e-05
1.32763e-05
5.0201e-05
2.37496e-05
4.41149e-05
3.9306e-05
3.53231e-05
5.48798e-05
2.0419e-05
8.1277e-05
0.000100347
4.16773e-06
-2.91184e-05
8.37617e-06
-2.91942e-05
1.25023e-05
-2.87446e-05
1.66802e-05
-2.92075e-05
2.0843e-05
-2.87517e-05
2.49762e-05
-2.83184e-05
2.90644e-05
-2.79024e-05
3.30736e-05
-2.76542e-05
3.70106e-05
-2.63672e-05
4.08689e-05
-2.60194e-05
4.44055e-05
-2.30025e-05
4.80349e-05
-2.16252e-05
5.09939e-05
-1.9227e-05
5.35995e-05
-1.43211e-05
5.57413e-05
-1.06778e-05
5.69562e-05
-3.75567e-06
5.75666e-05
3.48708e-06
5.68996e-05
1.39434e-05
5.49265e-05
2.57226e-05
5.02252e-05
4.40073e-05
4.29227e-05
6.21823e-05
2.77757e-05
9.64239e-05
0.000128123
4.17059e-06
-3.3289e-05
8.38095e-06
-3.34045e-05
1.25219e-05
-3.28856e-05
1.67056e-05
-3.33912e-05
2.08832e-05
-3.29293e-05
2.50429e-05
-3.24782e-05
2.9168e-05
-3.20274e-05
3.32185e-05
-3.17048e-05
3.72242e-05
-3.03729e-05
4.11321e-05
-2.99273e-05
4.48342e-05
-2.67046e-05
4.86191e-05
-2.54102e-05
5.16795e-05
-2.22874e-05
5.46586e-05
-1.73002e-05
5.70629e-05
-1.3082e-05
5.84645e-05
-5.15737e-06
5.94141e-05
2.53751e-06
5.89276e-05
1.44299e-05
5.74857e-05
2.71646e-05
5.29511e-05
4.85419e-05
4.56054e-05
6.9528e-05
2.9958e-05
0.000112071
0.000158082
-4.87158e-06
4.9084e-06
-9.60014e-06
4.76533e-06
-1.29776e-05
3.41398e-06
-1.42441e-05
1.30298e-06
-1.42713e-05
6.31019e-08
-1.20678e-05
-2.16758e-06
-1.02111e-05
-1.82157e-06
-7.39191e-06
-2.78419e-06
-4.63344e-06
-2.72425e-06
-1.78771e-06
-2.81175e-06
8.82903e-07
-2.6374e-06
3.06589e-06
-2.1501e-06
4.76121e-06
-1.66314e-06
5.61097e-06
-8.17903e-07
5.76136e-06
-1.191e-07
5.07291e-06
7.19473e-07
3.79333e-06
1.3102e-06
2.01179e-06
1.81205e-06
2.04214e-06
-6.30196e-06
1.12472e-05
-1.12925e-05
9.79268e-06
-1.42671e-05
6.42512e-06
-1.44846e-05
1.55693e-06
-1.40878e-05
-2.97795e-07
-1.19096e-05
-4.30995e-06
-1.01942e-05
-3.5019e-06
-7.41636e-06
-5.527e-06
-4.59113e-06
-5.51529e-06
-1.74089e-06
-5.62804e-06
9.69973e-07
-5.31507e-06
3.17496e-06
-4.32224e-06
4.89405e-06
-3.35006e-06
5.7477e-06
-1.63973e-06
5.90184e-06
-2.4198e-07
5.21679e-06
1.43551e-06
3.91336e-06
2.64422e-06
2.07773e-06
3.67814e-06
4.15019e-06
-5.87278e-06
1.71568e-05
-1.03441e-05
1.43008e-05
-1.373e-05
9.84751e-06
-1.54677e-05
3.33108e-06
-1.54104e-05
-3.19158e-07
-1.27381e-05
-6.94648e-06
-1.0564e-05
-5.64085e-06
-7.62648e-06
-8.42956e-06
-4.78062e-06
-8.32701e-06
-1.79164e-06
-8.58309e-06
1.03537e-06
-8.10895e-06
3.31769e-06
-6.57177e-06
5.11991e-06
-5.12018e-06
6.00176e-06
-2.48982e-06
6.14594e-06
-3.54989e-07
5.385e-06
2.22736e-06
4.01254e-06
4.04719e-06
2.12499e-06
5.59606e-06
6.30541e-06
-7.30481e-06
2.44984e-05
-1.28202e-05
1.98529e-05
-1.59197e-05
1.29836e-05
-1.55545e-05
3.00227e-06
-1.46873e-05
-1.15051e-06
-1.22742e-05
-9.32384e-06
-1.05457e-05
-7.33436e-06
-7.68005e-06
-1.12602e-05
-4.52694e-06
-1.1446e-05
-1.52009e-06
-1.15561e-05
1.41961e-06
-1.10156e-05
3.7601e-06
-8.87955e-06
5.60799e-06
-6.93606e-06
6.48659e-06
-3.33676e-06
6.61793e-06
-4.55265e-07
5.83139e-06
3.0447e-06
4.36707e-06
5.54189e-06
2.31509e-06
7.6783e-06
8.65061e-06
-7.05141e-06
3.15867e-05
-1.25862e-05
2.54244e-05
-1.64776e-05
1.69115e-05
-1.82452e-05
4.80622e-06
-1.77039e-05
-1.65594e-06
-1.39037e-05
-1.30882e-05
-1.10726e-05
-1.01305e-05
-7.96858e-06
-1.43294e-05
-4.94105e-06
-1.44396e-05
-1.70124e-06
-1.47621e-05
1.49035e-06
-1.41742e-05
3.97531e-06
-1.13319e-05
6.00485e-06
-8.9337e-06
6.95182e-06
-4.25221e-06
7.08074e-06
-5.53264e-07
6.17491e-06
3.98119e-06
4.5939e-06
7.15313e-06
2.43063e-06
9.87167e-06
1.11112e-05
-9.73588e-06
4.13594e-05
-1.63303e-05
3.20556e-05
-1.91234e-05
1.97411e-05
-1.79814e-05
3.70057e-06
-1.65288e-05
-3.07285e-06
-1.32093e-05
-1.6372e-05
-1.14478e-05
-1.18571e-05
-8.48083e-06
-1.72616e-05
-4.57913e-06
-1.83073e-05
-1.13412e-06
-1.81735e-05
2.23181e-06
-1.75072e-05
4.83091e-06
-1.38985e-05
6.916e-06
-1.0987e-05
7.85243e-06
-5.15728e-06
7.94701e-06
-6.17098e-07
6.95377e-06
5.00489e-06
5.18428e-06
8.95265e-06
2.7405e-06
1.23453e-05
1.38814e-05
-9.55743e-06
5.09536e-05
-1.73e-05
3.98349e-05
-2.20395e-05
2.45171e-05
-2.35819e-05
5.27925e-06
-2.22423e-05
-4.37675e-06
-1.60422e-05
-2.25363e-05
-1.19426e-05
-1.59219e-05
-8.81057e-06
-2.03588e-05
-5.39634e-06
-2.16878e-05
-1.61455e-06
-2.19217e-05
2.26668e-06
-2.13558e-05
5.11393e-06
-1.67134e-05
7.50311e-06
-1.33446e-05
8.55132e-06
-6.17432e-06
8.64907e-06
-6.84323e-07
7.51199e-06
6.17221e-06
5.58633e-06
1.09081e-05
2.95399e-06
1.50073e-05
1.68649e-05
-1.39722e-05
6.49626e-05
-2.33755e-05
4.92749e-05
-2.55239e-05
2.6702e-05
-2.36513e-05
3.44287e-06
-2.07799e-05
-7.2126e-06
-1.48117e-05
-2.84689e-05
-1.2943e-05
-1.7756e-05
-1.03029e-05
-2.29642e-05
-5.21321e-06
-2.67438e-05
-8.80885e-07
-2.62206e-05
3.21393e-06
-2.5418e-05
6.33491e-06
-1.98023e-05
8.80754e-06
-1.57859e-05
9.91301e-06
-7.24885e-06
9.98478e-06
-7.25806e-07
8.65691e-06
7.53005e-06
6.40389e-06
1.31906e-05
3.3767e-06
1.80639e-05
2.02708e-05
8.90129e-06
-4.21902e-05
1.78748e-05
-4.2378e-05
2.67688e-05
-4.17796e-05
3.5727e-05
-4.23494e-05
4.47085e-05
-4.19107e-05
5.37109e-05
-4.14806e-05
6.26836e-05
-4.10001e-05
7.15573e-05
-4.05785e-05
8.0407e-05
-3.92226e-05
8.90354e-05
-3.85558e-05
9.75734e-05
-3.52426e-05
0.000106031
-3.38679e-05
0.000113057
-2.93135e-05
0.000120895
-2.51382e-05
0.000126916
-1.91026e-05
0.000132241
-1.04828e-05
0.000136551
-1.77191e-06
0.000140514
1.04669e-05
0.000143228
2.44504e-05
0.000148221
4.35484e-05
0.000153466
6.42832e-05
0.000168155
9.73824e-05
0.000144537
0.000181704
8.92005e-06
-5.11103e-05
1.78911e-05
-5.13491e-05
2.68627e-05
-5.07512e-05
3.5868e-05
-5.13547e-05
4.49356e-05
-5.09783e-05
5.40779e-05
-5.06229e-05
6.32539e-05
-5.0176e-05
7.24022e-05
-4.97268e-05
8.15915e-05
-4.84118e-05
9.07004e-05
-4.76647e-05
0.000100044
-4.45857e-05
0.000108969
-4.27933e-05
0.000117569
-3.79134e-05
0.000126467
-3.40365e-05
0.000133592
-2.62275e-05
0.000141309
-1.82e-05
0.000146882
-7.34476e-06
0.00015123
6.11881e-06
0.00015331
2.23703e-05
0.000156643
4.02155e-05
0.000161524
5.94025e-05
0.000177672
8.12344e-05
0.000117407
0.000204802
8.94492e-06
-6.00552e-05
1.79235e-05
-6.03277e-05
2.69918e-05
-5.98195e-05
3.60887e-05
-6.04516e-05
4.53049e-05
-6.01944e-05
5.46853e-05
-6.00033e-05
6.4198e-05
-5.96888e-05
7.38079e-05
-5.93367e-05
8.35487e-05
-5.81526e-05
9.34079e-05
-5.75239e-05
0.000103513
-5.46907e-05
0.000113463
-5.27437e-05
0.000123653
-4.81028e-05
0.000133332
-4.37161e-05
0.000142842
-3.57369e-05
0.000152957
-2.8315e-05
0.000161009
-1.53969e-05
0.000168979
-1.85168e-06
0.000175704
1.56815e-05
0.000183656
3.22632e-05
0.000192939
5.01192e-05
0.000208017
6.61569e-05
9.45821e-05
0.000230841
8.95647e-06
-6.90117e-05
1.79314e-05
-6.93026e-05
2.70764e-05
-6.89645e-05
3.62252e-05
-6.96004e-05
4.55254e-05
-6.94946e-05
5.50354e-05
-6.95134e-05
6.47349e-05
-6.93882e-05
7.46157e-05
-6.92175e-05
8.47483e-05
-6.82852e-05
9.51537e-05
-6.79292e-05
0.000106036
-6.55727e-05
0.000117251
-6.3959e-05
0.000128925
-5.97765e-05
0.000140898
-5.569e-05
0.000153924
-4.87649e-05
0.000165505
-3.98999e-05
0.000176138
-2.60336e-05
0.000184357
-1.00727e-05
0.000188634
1.13949e-05
0.000192518
2.83704e-05
0.000200083
4.87201e-05
0.000210561
5.56789e-05
7.71116e-05
0.000228032
8.98303e-06
-7.79947e-05
1.79583e-05
-7.82779e-05
2.72113e-05
-7.82176e-05
3.64616e-05
-7.88507e-05
4.59145e-05
-7.89476e-05
5.56649e-05
-7.92638e-05
6.5697e-05
-7.94206e-05
7.60618e-05
-7.9583e-05
8.68258e-05
-7.90512e-05
9.7913e-05
-7.90279e-05
0.000109355
-7.70507e-05
0.000121083
-7.57615e-05
0.000133158
-7.19629e-05
0.000145408
-6.80515e-05
0.000156873
-6.03017e-05
0.000167833
-5.08639e-05
0.000178496
-3.66848e-05
0.000184139
-1.56424e-05
0.000190542
5.08614e-06
0.000198062
2.09636e-05
0.000205568
4.12689e-05
0.00021761
4.36385e-05
6.53648e-05
0.000229318
8.97312e-06
-8.69964e-05
1.79017e-05
-8.72388e-05
2.72014e-05
-8.75596e-05
3.65147e-05
-8.82255e-05
4.60284e-05
-8.85515e-05
5.58428e-05
-8.92103e-05
6.59073e-05
-8.96719e-05
7.61124e-05
-9.00358e-05
8.64262e-05
-8.96427e-05
9.69134e-05
-8.97345e-05
0.000108232
-8.84934e-05
0.000121858
-8.94096e-05
0.00014117
-9.12146e-05
0.000160496
-8.51987e-05
0.000169518
-6.932e-05
0.000161869
-4.32073e-05
0.000135447
-1.02537e-05
0.000121027
-1.2102e-06
0.000145795
-1.96361e-05
0.000182369
-1.55332e-05
0.000205908
1.78676e-05
0.000218019
3.17395e-05
5.5825e-05
0.000227796
8.85635e-06
-9.62065e-05
1.7665e-05
-9.63907e-05
2.69584e-05
-9.71688e-05
3.63506e-05
-9.78882e-05
4.60779e-05
-9.84914e-05
5.66628e-05
-9.99345e-05
6.90267e-05
-0.000102099
8.61685e-05
-0.000107167
0.000104955
-0.000107797
0.000125658
-0.00011044
0.000150642
-0.000113476
0.000177957
-0.000116721
0.000202719
-0.00011597
0.000219138
-0.000101611
0.000223804
-7.39782e-05
0.000206843
-2.62367e-05
0.000176226
2.03752e-05
0.0001607
1.43257e-05
0.000171972
-3.08952e-05
0.000197455
-4.10039e-05
0.000229958
-1.46156e-05
0.000250453
1.12745e-05
5.47842e-05
0.000251551
9.46897e-06
-0.000105684
1.92009e-05
-0.000106131
2.96517e-05
-0.000107627
4.07532e-05
-0.000108996
5.22751e-05
-0.000110018
6.50988e-05
-0.000112761
7.94344e-05
-0.000116435
9.6553e-05
-0.000124285
0.000117802
-0.000129044
0.000144069
-0.000136705
0.000175542
-0.000144945
0.000206624
-0.000147799
0.000229686
-0.000139026
0.000245251
-0.000117169
0.000255093
-8.3813e-05
0.000261148
-3.22826e-05
0.000268561
1.29733e-05
0.000268121
1.47785e-05
0.000246909
-9.67135e-06
0.000232638
-2.67218e-05
0.000245148
-2.71073e-05
0.000270891
-1.44465e-05
2.31446e-05
0.000302552
9.91398e-06
-0.000115602
2.0176e-05
-0.000116397
3.04919e-05
-0.000117947
4.21155e-05
-0.000120623
5.41436e-05
-0.000122049
6.78323e-05
-0.000126452
8.25102e-05
-0.000131114
9.72165e-05
-0.000138992
0.000115988
-0.000147815
0.000139308
-0.000160023
0.000163787
-0.000169422
0.00018594
-0.000169948
0.000207906
-0.000160987
0.000231547
-0.000140803
0.000255303
-0.000107561
0.000280313
-5.72836e-05
0.000301934
-8.63717e-06
0.000310196
6.52856e-06
0.000303279
-2.74158e-06
0.000290865
-1.42931e-05
0.00028305
-1.92775e-05
0.0002875
-1.88788e-05
-5.00541e-06
0.000315669
9.55972e-06
-0.000125166
1.91101e-05
-0.000125951
2.81631e-05
-0.000127004
3.75438e-05
-0.000130007
4.71038e-05
-0.000131611
5.70907e-05
-0.000136441
6.83561e-05
-0.00014238
8.12059e-05
-0.000151842
9.67198e-05
-0.000163329
0.000112882
-0.000176183
0.000124857
-0.000181394
0.00013406
-0.000179147
0.000145282
-0.000172204
0.000160783
-0.000156298
0.000181087
-0.000127856
0.000209103
-8.5291e-05
0.000241798
-4.13222e-05
0.000268016
-1.96774e-05
0.000283599
-1.83122e-05
0.000290696
-2.13757e-05
0.000296133
-2.46991e-05
0.000304125
-2.68538e-05
-1.71063e-05
0.000316244
8.49682e-06
-0.000133667
1.69713e-05
-0.000134429
2.53544e-05
-0.00013539
3.34774e-05
-0.000138133
4.18101e-05
-0.000139946
5.01427e-05
-0.000144775
5.88009e-05
-0.000151039
6.73455e-05
-0.000160387
7.60049e-05
-0.000171987
8.13016e-05
-0.000181478
8.28295e-05
-0.000182919
8.39214e-05
-0.000180234
8.65202e-05
-0.000174797
9.11167e-05
-0.000160889
0.000101422
-0.000138155
0.000122494
-0.000106354
0.000154794
-7.36117e-05
0.000187428
-5.23004e-05
0.000213388
-4.42592e-05
0.000235908
-4.3882e-05
0.000259586
-4.8362e-05
0.000285924
-5.31749e-05
-4.74812e-05
0.000316317
7.28934e-06
-0.00014096
1.45572e-05
-0.000141701
2.17881e-05
-0.000142624
2.88573e-05
-0.000145205
3.61921e-05
-0.000147283
4.32302e-05
-0.000151815
4.98723e-05
-0.000157682
5.54896e-05
-0.000166004
5.82494e-05
-0.000174746
5.78472e-05
-0.000181073
5.68836e-05
-0.000181952
5.62748e-05
-0.000179621
5.54837e-05
-0.000174001
5.53588e-05
-0.000160757
6.01918e-05
-0.00014298
7.49146e-05
-0.000121068
0.000101252
-9.99395e-05
0.000134706
-8.5743e-05
0.000170245
-7.97854e-05
0.000204431
-7.80551e-05
0.000238354
-8.227e-05
0.000272861
-8.76654e-05
-8.43016e-05
0.000309698
7.08242e-06
-0.000148045
1.40663e-05
-0.000148688
2.09901e-05
-0.00014955
2.76418e-05
-0.000151859
3.42709e-05
-0.000153914
4.00448e-05
-0.00015759
4.46374e-05
-0.000162275
4.71189e-05
-0.000168485
4.72897e-05
-0.000174915
4.63713e-05
-0.000180153
4.51549e-05
-0.000180732
4.38413e-05
-0.000178304
4.28314e-05
-0.000172986
4.44253e-05
-0.000162345
5.29379e-05
-0.000151486
7.02051e-05
-0.000138327
9.62981e-05
-0.000126023
0.000128106
-0.00011754
0.000163266
-0.000114934
0.000200735
-0.000115511
0.00023782
-0.000119341
0.000274896
-0.000124726
-0.000124372
0.000314983
6.27262e-06
-0.000154321
1.24438e-05
-0.000154862
1.86324e-05
-0.000155742
2.45228e-05
-0.000157751
3.03464e-05
-0.000159739
3.55279e-05
-0.000162773
3.95391e-05
-0.000166287
4.18018e-05
-0.000170747
4.23539e-05
-0.000175466
4.2127e-05
-0.000179924
4.19498e-05
-0.000180552
4.25418e-05
-0.000178892
4.52547e-05
-0.000175694
5.23445e-05
-0.000169429
6.51583e-05
-0.000164292
8.35643e-05
-0.000156725
0.00010843
-0.00015088
0.000137971
-0.000147071
0.000170976
-0.000147927
0.000205788
-0.00015031
0.000240995
-0.000154534
0.000277818
-0.000161534
-0.000164574
0.000318036
5.75457e-06
-0.000160078
1.15052e-05
-0.000160615
1.72951e-05
-0.000161534
2.28446e-05
-0.000163303
2.83048e-05
-0.000165201
3.32941e-05
-0.000167763
3.73867e-05
-0.000170379
4.01846e-05
-0.000173545
4.15821e-05
-0.000176862
4.25865e-05
-0.000180926
4.45192e-05
-0.000182482
4.82567e-05
-0.000182625
5.49995e-05
-0.000182432
6.49143e-05
-0.000179338
7.78807e-05
-0.000177252
9.46355e-05
-0.000173472
0.000116089
-0.000172324
0.00014128
-0.000172251
0.000169563
-0.000176199
0.000201272
-0.000182007
0.00023548
-0.000188729
0.00027369
-0.00019973
-0.000207152
0.000316283
5.20563e-06
-0.000165286
1.04209e-05
-0.000165833
1.56155e-05
-0.000166731
2.06122e-05
-0.000168301
2.54403e-05
-0.00017003
3.00055e-05
-0.000172329
3.41774e-05
-0.000174551
3.78869e-05
-0.000177254
4.07756e-05
-0.00017975
4.32765e-05
-0.000183425
4.68232e-05
-0.000186025
5.18417e-05
-0.00018764
5.88917e-05
-0.000189477
6.81746e-05
-0.000188614
8.03806e-05
-0.000189451
9.5827e-05
-0.000188911
0.000115165
-0.000191654
0.000138116
-0.000195192
0.000164188
-0.00020226
0.000194036
-0.000211844
0.00022733
-0.00022201
0.000265704
-0.000238091
-0.000250783
0.00030935
4.86735e-06
-0.000170156
9.67243e-06
-0.00017064
1.4413e-05
-0.000171473
1.89985e-05
-0.000172888
2.34895e-05
-0.000174522
2.79221e-05
-0.000176762
3.22751e-05
-0.000178904
3.66951e-05
-0.000181673
4.07694e-05
-0.000183822
4.46003e-05
-0.000187253
4.90862e-05
-0.000190508
5.44458e-05
-0.000192995
6.14071e-05
-0.000196433
7.016e-05
-0.000197362
8.11369e-05
-0.000200421
9.48683e-05
-0.000202634
0.000111867
-0.000208644
0.000132498
-0.000215814
0.000156039
-0.00022579
0.000183676
-0.00023947
0.00021509
-0.000253412
0.000252153
-0.000275142
-0.000294244
0.000295628
4.33266e-06
-0.00017449
8.59324e-06
-0.000174902
1.27999e-05
-0.000175681
1.69461e-05
-0.000177036
2.10241e-05
-0.000178601
2.50467e-05
-0.000180785
2.89696e-05
-0.000182827
3.30345e-05
-0.000185737
3.74704e-05
-0.000188256
4.18459e-05
-0.000191626
4.66861e-05
-0.000195345
5.23038e-05
-0.000198609
5.88675e-05
-0.000202992
6.69425e-05
-0.000205431
7.67993e-05
-0.000210271
8.93829e-05
-0.000215211
0.000104244
-0.000223497
0.000122503
-0.000234065
0.000142962
-0.000246239
0.000167582
-0.00026408
0.000195739
-0.000281558
0.000230017
-0.000309407
-0.000335023
0.000270809
3.89211e-06
-0.000178384
7.76825e-06
-0.000178779
1.16542e-05
-0.000179568
1.5522e-05
-0.000180904
1.93278e-05
-0.000182407
2.31185e-05
-0.000184575
2.68759e-05
-0.000186583
3.07218e-05
-0.000189581
3.47519e-05
-0.000192284
3.89222e-05
-0.000195794
4.3379e-05
-0.000199798
4.82116e-05
-0.000203437
5.36198e-05
-0.000208395
6.07186e-05
-0.000212524
6.93288e-05
-0.000218875
8.06203e-05
-0.000226495
9.33597e-05
-0.000236228
0.000109117
-0.000249813
0.000126431
-0.000263544
0.000147715
-0.000285354
0.000171744
-0.000305576
0.000201387
-0.000339039
-0.000370225
0.000236601
3.52223e-06
-0.000181907
7.06395e-06
-0.000182322
1.05939e-05
-0.000183099
1.40759e-05
-0.000184387
1.74892e-05
-0.000185821
2.0869e-05
-0.000187955
2.42347e-05
-0.000189948
2.76302e-05
-0.000192975
3.12137e-05
-0.000195866
3.50006e-05
-0.000199578
3.89048e-05
-0.000203699
4.32995e-05
-0.000207827
4.82082e-05
-0.000213299
5.46857e-05
-0.000218996
6.22303e-05
-0.000226413
7.15096e-05
-0.000235767
8.16353e-05
-0.000246346
9.37076e-05
-0.000261877
0.000107255
-0.000277083
0.000123385
-0.000301475
0.000142075
-0.000324256
0.000164614
-0.000361568
-0.000397048
0.000191449
3.2033e-06
-0.000185111
6.40298e-06
-0.000185522
9.54576e-06
-0.000186242
1.26375e-05
-0.000187478
1.5653e-05
-0.000188836
1.86413e-05
-0.000190942
2.16261e-05
-0.000192931
2.46087e-05
-0.000195956
2.76394e-05
-0.000198894
3.0684e-05
-0.000202619
3.38269e-05
-0.000206838
3.75797e-05
-0.000211576
4.17773e-05
-0.000217491
4.69854e-05
-0.000224198
5.25852e-05
-0.000232007
5.92e-05
-0.000242375
6.6551e-05
-0.00025369
7.49041e-05
-0.000270223
8.45371e-05
-0.000286707
9.50719e-05
-0.000312
0.000107654
-0.000336828
0.000121156
-0.00037506
-0.000413389
0.000137508
2.81102e-06
-0.000187923
5.59617e-06
-0.000188308
8.33407e-06
-0.00018898
1.10268e-05
-0.000190171
1.36599e-05
-0.000191468
1.62479e-05
-0.000193529
1.87957e-05
-0.000195478
2.1294e-05
-0.000198452
2.38029e-05
-0.0002014
2.64062e-05
-0.000205219
2.91086e-05
-0.000209536
3.21512e-05
-0.000214614
3.52146e-05
-0.00022055
3.86868e-05
-0.000227665
4.25033e-05
-0.000235817
4.68957e-05
-0.000246761
5.16565e-05
-0.000258443
5.6479e-05
-0.000275037
6.19093e-05
-0.000292129
6.68308e-05
-0.000316913
7.26213e-05
-0.000342609
7.69135e-05
-0.000379343
-0.000419117
8.26516e-05
2.41952e-06
-0.000190342
4.82734e-06
-0.000190716
7.20335e-06
-0.000191356
9.53652e-06
-0.000192503
1.18028e-05
-0.000193734
1.39789e-05
-0.000195704
1.609e-05
-0.000197587
1.81025e-05
-0.000200462
2.00666e-05
-0.000203361
2.20133e-05
-0.000207162
2.38347e-05
-0.000211354
2.57217e-05
-0.000216496
2.75577e-05
-0.00022238
2.96416e-05
-0.000229743
3.17863e-05
-0.000237955
3.38369e-05
-0.000248805
3.58054e-05
-0.000260404
3.72165e-05
-0.000276441
3.84726e-05
-0.000293377
3.82258e-05
-0.000316658
3.74357e-05
-0.00034181
3.33799e-05
-0.000375278
-0.000414339
2.86121e-05
2.09439e-06
-0.000192436
4.17829e-06
-0.000192799
6.21954e-06
-0.000193396
8.1921e-06
-0.000194475
1.00723e-05
-0.000195613
1.18311e-05
-0.000197461
1.3491e-05
-0.000199245
1.49964e-05
-0.000201965
1.63655e-05
-0.000204727
1.76099e-05
-0.000208403
1.8657e-05
-0.000212397
1.96171e-05
-0.000217452
2.03664e-05
-0.000223124
2.09108e-05
-0.000230282
2.11439e-05
-0.000238182
2.09566e-05
-0.000248611
2.03214e-05
-0.000259762
1.86464e-05
-0.000274758
1.61377e-05
-0.00029086
1.14446e-05
-0.000311957
5.13239e-06
-0.00033549
-5.57388e-06
-0.000364563
-0.000400463
-1.94406e-05
1.79939e-06
-0.000194235
3.56865e-06
-0.000194568
5.27611e-06
-0.000195103
6.88715e-06
-0.000196085
8.39197e-06
-0.000197116
9.74368e-06
-0.000198811
1.09675e-05
-0.000200466
1.19879e-05
-0.000202983
1.27973e-05
-0.000205533
1.33962e-05
-0.000208998
1.37085e-05
-0.000212704
1.37161e-05
-0.000217454
1.32926e-05
-0.000222695
1.24306e-05
-0.000229414
1.09891e-05
-0.000236734
8.73897e-06
-0.000246354
5.65651e-06
-0.000256673
1.0894e-06
-0.000270184
-4.83351e-06
-0.00028493
-1.33412e-05
-0.000303441
-2.43068e-05
-0.000324516
-3.98315e-05
-0.00034903
-0.000379161
-6.11253e-05
1.50488e-06
-0.000195739
2.97055e-06
-0.000196032
4.36695e-06
-0.000196498
5.65913e-06
-0.000197376
6.82379e-06
-0.000198279
7.80208e-06
-0.000199787
8.60437e-06
-0.000201266
9.15267e-06
-0.000203528
9.43226e-06
-0.000205809
9.38548e-06
-0.000208947
8.95609e-06
-0.000212271
8.10737e-06
-0.000216601
6.70934e-06
-0.000221292
4.66965e-06
-0.000227369
1.82342e-06
-0.000233882
-2.21002e-06
-0.000242314
-7.46655e-06
-0.000251409
-1.45485e-05
-0.000263095
-2.35251e-05
-0.000275946
-3.53175e-05
-0.000291641
-5.01739e-05
-0.000309651
-6.91432e-05
-0.000330053
-0.000354445
-9.3851e-05
1.25581e-06
-0.000196994
2.47095e-06
-0.000197246
3.60801e-06
-0.000197634
4.62174e-06
-0.000198388
5.48333e-06
-0.000199139
6.12354e-06
-0.000200425
6.53388e-06
-0.000201674
6.63261e-06
-0.000203624
6.40485e-06
-0.000205578
5.78108e-06
-0.00020832
4.67682e-06
-0.000211162
3.03971e-06
-0.000214959
7.53005e-07
-0.000219
-2.38431e-06
-0.000224225
-6.42721e-06
-0.000229833
-1.17117e-05
-0.000237023
-1.84615e-05
-0.000244653
-2.735e-05
-0.000254199
-3.8614e-05
-0.000264674
-5.31611e-05
-0.000277087
-7.14881e-05
-0.000291317
-9.44511e-05
-0.000307082
-0.000325824
-0.000123063
1.06584e-06
-0.000198058
2.079e-06
-0.000198258
2.99292e-06
-0.000198547
3.75661e-06
-0.00019915
4.34546e-06
-0.000199725
4.69107e-06
-0.000200768
4.77769e-06
-0.000201757
4.49957e-06
-0.000203342
3.81859e-06
-0.000204893
2.6574e-06
-0.000207154
9.41602e-07
-0.000209441
-1.45773e-06
-0.000212554
-4.59692e-06
-0.000215855
-8.64568e-06
-0.000220171
-1.37779e-05
-0.000224694
-2.0313e-05
-0.000230482
-2.82979e-05
-0.000236661
-3.8315e-05
-0.000244175
-5.06387e-05
-0.000252344
-6.60771e-05
-0.000261641
-8.53714e-05
-0.000272015
-0.000109504
-0.000282942
-0.000295417
-0.000139904
9.27532e-07
-0.000198985
1.78614e-06
-0.000199115
2.52288e-06
-0.000199282
3.07929e-06
-0.000199705
3.4405e-06
-0.000200084
3.5375e-06
-0.000200863
3.34874e-06
-0.000201566
2.78726e-06
-0.000202777
1.80509e-06
-0.000203907
2.93752e-07
-0.000205639
-1.80979e-06
-0.000207333
-4.65827e-06
-0.000209701
-8.38991e-06
-0.000212118
-1.32034e-05
-0.000215352
-1.91677e-05
-0.000218724
-2.66736e-05
-0.00022297
-3.58986e-05
-0.00022743
-4.72869e-05
-0.00023278
-6.11175e-05
-0.000238506
-7.79746e-05
-0.000244777
-9.84207e-05
-0.000251562
-0.000123266
-0.00025809
-0.000264959
-0.000153717
8.27366e-07
-0.00019981
1.58169e-06
-0.000199868
2.20116e-06
-0.000199899
2.61896e-06
-0.00020012
2.80832e-06
-0.000200272
2.69157e-06
-0.000200743
2.2327e-06
-0.000201104
1.34636e-06
-0.000201888
1.12865e-08
-0.000202568
-1.87209e-06
-0.000203751
-4.35356e-06
-0.000204847
-7.582e-06
-0.000206467
-1.16493e-05
-0.000208046
-1.68015e-05
-0.000210194
-2.31699e-05
-0.00021235
-3.10421e-05
-0.000215091
-4.06131e-05
-0.000217852
-5.23447e-05
-0.000221042
-6.6524e-05
-0.00022432
-8.36783e-05
-0.000227616
-0.000104225
-0.000231009
-0.000128734
-0.000233574
-0.000235842
-0.000157844
7.90564e-07
-0.000200599
1.50675e-06
-0.000200583
2.08953e-06
-0.00020048
2.4638e-06
-0.000200493
2.58036e-06
-0.000200386
2.35362e-06
-0.000200514
1.74914e-06
-0.000200496
6.83408e-07
-0.000200819
-8.79991e-07
-0.000201001
-3.04209e-06
-0.000201585
-5.85013e-06
-0.000202035
-9.44343e-06
-0.000202869
-1.39119e-05
-0.000203572
-1.94431e-05
-0.000204657
-2.61501e-05
-0.000205637
-3.43243e-05
-0.000206911
-4.41131e-05
-0.000208057
-5.58888e-05
-0.000209261
-6.99132e-05
-0.000210289
-8.665e-05
-0.000210873
-0.000106523
-0.000211129
-0.000130066
-0.000210024
-0.000208131
-0.00015777
8.00036e-07
-0.000201398
1.53088e-06
-0.000201312
2.13634e-06
-0.000201084
2.53927e-06
-0.000200894
2.6816e-06
-0.000200526
2.4577e-06
-0.000200288
1.83207e-06
-0.000199868
7.13983e-07
-0.000199697
-9.3221e-07
-0.000199351
-3.21274e-06
-0.0001993
-6.1667e-06
-0.000199076
-9.91104e-06
-0.00019912
-1.4519e-05
-0.000198959
-2.0193e-05
-0.000198978
-2.70456e-05
-0.000198779
-3.53094e-05
-0.000198642
-4.51323e-05
-0.000198229
-5.6813e-05
-0.000197574
-7.05444e-05
-0.000196552
-8.66544e-05
-0.000194757
-0.000105397
-0.00019238
-0.000127136
-0.000188279
-0.00018312
-0.000152141
7.94951e-07
-0.000202191
1.5331e-06
-0.000202048
2.16072e-06
-0.00020171
2.6006e-06
-0.000201331
2.80133e-06
-0.000200724
2.65953e-06
-0.000200143
2.11252e-06
-0.000199318
1.05178e-06
-0.000198633
-5.89259e-07
-0.000197707
-2.91669e-06
-0.000196969
-5.96735e-06
-0.000196021
-9.82446e-06
-0.000195259
-1.45217e-05
-0.000194257
-2.019e-05
-0.000193305
-2.69334e-05
-0.00019203
-3.49656e-05
-0.000190604
-4.44275e-05
-0.000188761
-5.55799e-05
-0.000186416
-6.86085e-05
-0.000183518
-8.37815e-05
-0.000179578
-0.000101287
-0.000174869
-0.000121315
-0.000168246
-0.000160453
-0.000143976
7.91268e-07
-0.000202981
1.53303e-06
-0.000202789
2.18032e-06
-0.000202355
2.66068e-06
-0.00020181
2.932e-06
-0.000200994
2.9267e-06
-0.000200136
2.57594e-06
-0.000198965
1.74641e-06
-0.000197801
3.61177e-07
-0.000196318
-1.70974e-06
-0.000194895
-4.5336e-06
-0.000193194
-8.2307e-06
-0.000191557
-1.28422e-05
-0.000189641
-1.84536e-05
-0.000187689
-2.50952e-05
-0.000185384
-3.29077e-05
-0.000182787
-4.19874e-05
-0.000179676
-5.25296e-05
-0.000175869
-6.46705e-05
-0.000171372
-7.85946e-05
-0.000165649
-9.44536e-05
-0.000159005
-0.000112363
-0.000150332
-0.000140438
-0.000132373
7.60326e-07
-0.00020374
1.47465e-06
-0.000203501
2.1044e-06
-0.000202984
2.59282e-06
-0.000202297
2.90259e-06
-0.000201302
2.97091e-06
-0.000200202
2.76011e-06
-0.000198752
2.16404e-06
-0.000197202
1.10453e-06
-0.000195256
-5.55894e-07
-0.000193231
-2.91956e-06
-0.000190826
-6.13407e-06
-0.000188339
-1.02855e-05
-0.000185486
-1.54857e-05
-0.000182484
-2.17712e-05
-0.000179094
-2.92126e-05
-0.000175341
-3.78247e-05
-0.00017106
-4.76928e-05
-0.000165996
-5.89107e-05
-0.000160149
-7.16169e-05
-0.000152938
-8.59045e-05
-0.000144712
-0.000101825
-0.000134406
-0.000122876
-0.000119383
6.57381e-07
-0.000204396
1.27349e-06
-0.000204116
1.82328e-06
-0.000203532
2.27148e-06
-0.000202743
2.58865e-06
-0.000201617
2.71242e-06
-0.000200324
2.59977e-06
-0.000198637
2.18517e-06
-0.000196785
1.4147e-06
-0.000194483
1.73533e-07
-0.000191987
-1.64424e-06
-0.000189005
-4.19236e-06
-0.000185787
-7.57904e-06
-0.000182095
-1.19618e-05
-0.000178097
-1.74389e-05
-0.000173613
-2.41165e-05
-0.000168659
-3.20059e-05
-0.000163166
-4.1106e-05
-0.000156892
-5.13863e-05
-0.000149865
-6.28707e-05
-0.00014145
-7.5597e-05
-0.000131982
-8.95706e-05
-0.000120429
-0.000107631
-0.000104812
5.57077e-07
-0.000204952
1.07486e-06
-0.000204633
1.53642e-06
-0.000203993
1.91822e-06
-0.000203124
2.20028e-06
-0.000201898
2.33859e-06
-0.00020046
2.29757e-06
-0.000198594
2.03436e-06
-0.00019652
1.52272e-06
-0.000193969
6.868e-07
-0.000191148
-5.55457e-07
-0.00018776
-2.35199e-06
-0.000183988
-4.83754e-06
-0.000179606
-8.18779e-06
-0.000174744
-1.25365e-05
-0.000169261