/*--------------------------------*- C++ -*----------------------------------*\
| =========                 |                                                 |
| \\      /  F ield         | OpenFOAM: The Open Source CFD Toolbox           |
|  \\    /   O peration     | Version:  2012                                  |
|   \\  /    A nd           | Website:  www.openfoam.com                      |
|    \\/     M anipulation  |                                                 |
\*---------------------------------------------------------------------------*/
FoamFile
{
    version     2.0;
    format      ascii;
    class       volScalarField;
    location    "0.97";
    object      maxKappa;
}
// * * * * * * * * * * * * * * * * * * * * * * * * * * * * * * * * * * * * * //

dimensions      [0 0 0 0 0 0 0];


internalField   nonuniform List<scalar> 
2268
(
8.4669e-08
1.02217e-07
1.08048e-07
2.23906e-07
5.52398e-07
9.77012e-07
1.38518e-06
1.71008e-06
1.82535e-06
1.82535e-06
1.69329e-06
1.33785e-06
8.28433e-07
5.17519e-07
1.11313e-06
1.75175e-06
2.31822e-06
2.75393e-06
2.98383e-06
2.98383e-06
2.9344e-06
2.21153e-06
1.33518e-06
1.07474e-07
1.23738e-07
1.7797e-07
3.16416e-07
6.16018e-07
1.0217e-06
1.42623e-06
1.75547e-06
1.87883e-06
1.87883e-06
1.75218e-06
1.40225e-06
9.30304e-07
6.5563e-07
1.20633e-06
1.82819e-06
2.3954e-06
2.85136e-06
3.07211e-06
3.07211e-06
3.03108e-06
2.45381e-06
1.63693e-06
1.35173e-07
1.76562e-07
2.21788e-07
3.30171e-07
6.6129e-07
1.12057e-06
1.55362e-06
1.88146e-06
1.98608e-06
1.98608e-06
1.86557e-06
1.55783e-06
1.16298e-06
9.97329e-07
1.46472e-06
2.02457e-06
2.54401e-06
2.97875e-06
3.23386e-06
3.26861e-06
3.26861e-06
2.69213e-06
1.95512e-06
2.12085e-07
2.76685e-07
3.8924e-07
5.49565e-07
8.60008e-07
1.26842e-06
1.68036e-06
2.02295e-06
2.15086e-06
2.15086e-06
2.05984e-06
1.76776e-06
1.39973e-06
1.19521e-06
1.62544e-06
2.16073e-06
2.70904e-06
3.19527e-06
3.5143e-06
3.70052e-06
3.70052e-06
3.38675e-06
2.73235e-06
2.88503e-07
3.58403e-07
4.54001e-07
5.92542e-07
9.60112e-07
1.46191e-06
1.92566e-06
2.27265e-06
2.3796e-06
2.3796e-06
2.29294e-06
2.05711e-06
1.76441e-06
1.63816e-06
2.05306e-06
2.54509e-06
2.97908e-06
3.34356e-06
3.85244e-06
4.31417e-06
4.31417e-06
4.01531e-06
3.39431e-06
4.14969e-07
5.20376e-07
7.03162e-07
9.33409e-07
1.3071e-06
1.74213e-06
2.17255e-06
2.5524e-06
2.70524e-06
2.70524e-06
2.64949e-06
2.40336e-06
2.09689e-06
1.90911e-06
2.26544e-06
2.67667e-06
3.09021e-06
3.51064e-06
4.0024e-06
4.52743e-06
4.60615e-06
4.60615e-06
4.42424e-06
6.25292e-07
7.62903e-07
9.03488e-07
1.06767e-06
1.47252e-06
2.0352e-06
2.56142e-06
2.94784e-06
3.07592e-06
3.07592e-06
3.01909e-06
2.84448e-06
2.61343e-06
2.43308e-06
2.77047e-06
3.04926e-06
3.10387e-06
3.10387e-06
3.38169e-06
4.25935e-06
4.76599e-06
4.86805e-06
4.86805e-06
7.54484e-07
8.83402e-07
1.18283e-06
1.5302e-06
2.01897e-06
2.51397e-06
2.99094e-06
3.44908e-06
3.62791e-06
3.62791e-06
3.55947e-06
3.31469e-06
3.02108e-06
2.80572e-06
2.81059e-06
3.7139e-06
5.27819e-06
1.15723e-05
2.35699e-05
8.79113e-06
4.28859e-06
5.83345e-06
5.83345e-06
0.000302703
0.000361753
0.00038711
0.00038711
0.000305115
0.000172833
7.20384e-05
2.42464e-05
8.63338e-06
2.02545e-05
4.35648e-05
4.35648e-05
3.87101e-05
3.94242e-05
4.41146e-05
4.61352e-05
4.61352e-05
3.30212e-05
1.64405e-05
0.000552328
0.000979969
0.00110642
0.00110642
0.000785134
0.000400309
8.0585e-05
2.25831e-05
1.03788e-05
9.25737e-06
1.94911e-05
3.53641e-05
5.15255e-05
0.000150742
0.000218448
0.000242051
0.000242051
0.000127216
1.89163e-05
0.000675676
0.000675676
0.000732288
0.000732288
0.000370822
0.000205196
5.29743e-05
2.21425e-05
1.32497e-05
9.05206e-06
1.35356e-05
2.23052e-05
2.92676e-05
7.47571e-05
0.00015105
0.000241114
0.000241114
0.000161584
2.32652e-05
0.000630435
0.00070664
0.00070664
0.000518897
0.000188441
4.08935e-05
2.7099e-05
2.30665e-05
1.59737e-05
1.08513e-05
1.32628e-05
2.09378e-05
2.96555e-05
3.60787e-05
6.65422e-05
0.000156061
0.000156061
0.000104645
2.10299e-05
0.000351763
0.000562768
0.000562768
0.000426549
0.000316855
0.000264298
5.25502e-05
2.54426e-05
5.44626e-05
9.12742e-05
8.8222e-05
8.8222e-05
6.5022e-05
3.45112e-05
4.18594e-05
0.000135503
0.000135503
7.29148e-05
1.45487e-05
0.000288993
0.000518255
0.00085818
0.00085818
0.00075181
0.000367564
0.000115866
6.46739e-05
0.000298148
0.000298148
0.000289804
0.000246195
0.000246195
0.000224047
4.68152e-05
7.97137e-05
7.97137e-05
2.27719e-05
7.96365e-06
0.000253404
0.000584149
0.000672125
0.000672125
0.000439698
0.000325827
0.000178259
0.000175507
0.000507599
0.000542599
0.000542599
0.000440035
0.000326942
0.000315229
0.000212358
7.18402e-05
2.39316e-05
1.08448e-05
4.89442e-06
0.000184309
0.000313965
0.000313965
0.000311953
0.000309017
0.000273748
0.00016772
0.000322665
0.000510139
0.000510139
0.000277039
0.000305002
0.000305002
0.000269797
0.000151411
4.57858e-05
1.49778e-05
8.68948e-06
5.28151e-06
1.6853e-06
1.86662e-06
2.39195e-06
2.62692e-06
3.11738e-06
3.94703e-06
4.34284e-06
4.98305e-06
5.37887e-06
6.04077e-06
6.91358e-06
7.37747e-06
7.89332e-06
1.00976e-05
2.90351e-05
5.68421e-05
0.000319887
0.000252885
0.000189855
0.000105656
5.98784e-05
3.77189e-05
9.47508e-06
2.7564e-06
3.12821e-06
3.54596e-06
3.80344e-06
4.59534e-06
9.3237e-06
1.2899e-05
1.13383e-05
1.08561e-05
1.87575e-05
3.65028e-05
6.03924e-05
8.73063e-05
0.000179549
0.000168371
0.000595858
0.00068542
0.000602466
0.000385255
0.000228032
0.000154741
0.000111335
2.14323e-05
4.08123e-06
4.54738e-06
4.04304e-06
6.17738e-06
1.40616e-05
6.89014e-05
0.000112326
9.16999e-05
6.09148e-05
7.58596e-05
0.000196337
0.000324833
0.000407889
0.000428168
0.000814571
0.00108171
0.000864047
0.000570995
0.000330551
0.00011548
7.96599e-05
0.000111335
7.53542e-05
5.22827e-06
5.89434e-06
1.77726e-05
6.83408e-05
0.000118885
0.000182668
0.000275693
0.000347799
0.000342248
0.000397542
0.000513987
0.000578385
0.000590027
0.000907574
0.00155267
0.00121439
0.000751444
0.00035158
7.66036e-05
4.30123e-05
3.08677e-05
0.000104127
0.000145345
6.02742e-06
2.73219e-05
0.000191117
0.000339531
0.000329828
0.000321952
0.000447519
0.000863313
0.00102131
0.000902248
0.000721165
0.000652587
0.000656696
0.00125149
0.00170163
0.00110564
0.000452195
0.000149527
6.33941e-05
5.56944e-05
8.38963e-05
0.000164622
0.000164622
1.67449e-05
0.000184393
0.00047868
0.000709542
0.000715315
0.000668475
0.000875597
0.00144345
0.00130182
0.00121371
0.000817516
0.00072189
0.00072126
0.00117083
0.00170163
0.00110513
0.000522754
0.000119142
6.78995e-05
6.34159e-05
7.21845e-05
0.000107191
0.000114908
4.17582e-05
0.000388929
0.00075554
0.00100016
0.000886768
0.00110585
0.001469
0.00160828
0.00144339
0.0010281
0.000831638
0.000818173
0.00079678
0.00120774
0.00163375
0.00117438
0.000789549
0.000469928
0.000118071
7.80967e-05
6.65206e-05
7.13523e-05
8.97846e-05
8.00671e-05
0.000517408
0.000887939
0.00106175
0.00106217
0.00153325
0.00156529
0.00160828
0.00110276
0.000897515
0.00077794
0.000855162
0.000899856
0.00116932
0.00151631
0.000996735
0.000834862
0.000834862
0.00057138
0.000240799
0.000100491
0.000115136
0.000285507
9.17783e-05
0.000745508
0.0011581
0.00106175
0.00108286
0.00132274
0.00148614
0.00120837
0.000940415
0.000897515
0.000795626
0.000855162
0.000823474
0.00102827
0.00107991
0.000622523
0.000825669
0.000707704
0.000626309
0.000501599
0.00021184
0.000191839
0.000368377
9.72733e-05
0.000794776
0.00136095
0.00110182
0.000857893
0.00113567
0.00107883
0.000962144
0.000757912
0.000805073
0.000718235
0.000801233
0.000722091
0.000817747
0.000706877
0.000495319
0.000585281
0.000632754
0.000583204
0.000492715
0.000365365
0.000232297
0.000352437
0.000109393
0.000962709
0.00155709
0.00128942
0.000888277
0.000861614
0.000626279
0.000654725
0.000486745
0.000528761
0.000591964
0.000621927
0.000590013
0.000569778
0.000476634
0.00029934
0.00045867
0.000545488
0.000548724
0.000472295
0.000418029
0.000312732
0.000230354
0.000489239
0.00105059
0.00170736
0.00142835
0.00090865
0.000656331
0.000436728
0.000373105
0.000182071
0.000229516
0.00041889
0.000414538
0.000436695
0.000413131
0.000340648
0.000308567
0.000415725
0.000496262
0.000527847
0.000508696
0.000450643
0.000414581
0.00029376
0.00059934
0.00114128
0.00181046
0.00157423
0.000942836
0.000513177
0.00034941
0.000249564
0.000122089
0.000161873
0.000282663
0.000275285
0.000350281
0.000320566
0.000313682
0.00032481
0.000396361
0.000452636
0.000517382
0.00051078
0.000491621
0.000442206
0.000375503
0.00059934
0.00125156
0.00186037
0.00159191
0.000953388
0.000475251
0.000316179
0.000202394
0.000136742
0.000110262
0.000198225
0.000211947
0.000290028
0.000281349
0.000315604
0.000336291
0.000394987
0.000450166
0.000497885
0.000527508
0.00054911
0.000540113
0.000503216
0.00068313
0.00137991
0.00186037
0.00155372
0.000948907
0.000461944
0.000285856
0.00017465
0.000147442
9.18097e-05
0.000182403
0.000194519
0.000263732
0.000276886
0.00031984
0.000348452
0.000402636
0.000454822
0.000515514
0.000554488
0.000585922
0.000625933
0.000686533
0.000934434
0.00128531
0.00175764
0.0014189
0.000905532
0.000435963
0.000275064
0.000171398
0.000190313
0.000132471
0.000209421
0.000203621
0.000263927
0.000281746
0.000324882
0.00035526
0.000402185
0.000446682
0.000504497
0.000562748
0.000625791
0.000706282
0.000752156
0.000969889
0.00128199
0.00157628
0.00133539
0.000853772
0.000403686
0.000274489
0.000179185
0.000237463
0.000168128
0.000244176
0.000222465
0.000283538
0.000289659
0.00033674
0.000358557
0.000399339
0.000436369
0.00048397
0.000535945
0.000602546
0.00068628
0.000752156
0.00104185
0.00133395
0.00144678
0.00128352
0.000809914
0.000395439
0.000310225
0.000220545
0.000282587
0.00021479
0.000279438
0.000256511
0.000308399
0.000312872
0.000354804
0.000373365
0.000408203
0.000438451
0.00047472
0.000509445
0.000551643
0.000608574
0.00068278
0.00113565
0.00147549
0.00143512
0.00122216
0.000767947
0.000403936
0.000368283
0.000268384
0.000323877
0.000254435
0.000311411
0.000283919
0.000330101
0.000333569
0.000367481
0.000389352
0.000421129
0.000450147
0.000485166
0.000517952
0.000552743
0.00058576
0.000618523
0.00126157
0.00162413
0.00148954
0.00119108
0.000749421
0.000449785
0.0004233
0.000323226
0.000362981
0.000299316
0.000342357
0.000311051
0.000353526
0.000346775
0.000383408
0.000391859
0.000426022
0.00044957
0.000487233
0.00052419
0.000566453
0.000609475
0.000658303
0.00134675
0.00167756
0.00154632
0.00119293
0.000747495
0.000510456
0.000468442
0.000374391
0.000395547
0.000337467
0.000369172
0.000340587
0.000376875
0.000373023
0.000404332
0.000415518
0.000450894
0.000477679
0.000524206
0.000562996
0.000612754
0.00066275
0.000718655
0.00132623
0.00169134
0.001593
0.00118936
0.000761024
0.000565893
0.00050072
0.000418565
0.00042122
0.000371049
0.000392224
0.000365248
0.000396699
0.000392631
0.000424234
0.000439477
0.000484205
0.000522316
0.000573466
0.000616932
0.000669078
0.000719576
0.000767027
0.00150432
0.00180667
0.00162321
0.00119427
0.000797014
0.000612623
0.000517543
0.00045301
0.000436737
0.000398379
0.000409542
0.000387745
0.000414949
0.000414778
0.000448675
0.000475625
0.00052557
0.00056929
0.000617407
0.000665553
0.000715102
0.000757986
0.000775847
0.00176175
0.00195604
0.00168957
0.0012199
0.000842368
0.000649233
0.000536275
0.000472144
0.000442013
0.000414016
0.000420907
0.00040654
0.000431861
0.000439927
0.00047945
0.000517098
0.000566813
0.000604361
0.000644635
0.000685293
0.000723044
0.000751052
0.000775847
0.00206745
0.00212894
0.00179323
0.00128299
0.00089227
0.000675274
0.000548898
0.000478266
0.000442013
0.000421774
0.000425254
0.000423507
0.000446878
0.000471178
0.000514285
0.000558822
0.000598625
0.000630746
0.000660848
0.000687988
0.000709224
0.000733428
0.000748501
0.0023594
0.00230757
0.00193546
0.00136144
0.000923776
0.0006739
0.000537301
0.000462005
0.000435722
0.000414814
0.000425254
0.000435713
0.000464488
0.000502984
0.000547732
0.000583524
0.000610505
0.000631019
0.000648944
0.000669818
0.000690086
0.000698275
0.000693527
0.00261436
0.00245999
0.0020734
0.00142611
0.000913245
0.000628286
0.000490273
0.000421934
0.000415929
0.00040819
0.000426673
0.000452486
0.000491338
0.000536057
0.000575537
0.000601324
0.000615445
0.000623694
0.000639588
0.000647464
0.000654873
0.000643992
0.000615156
0.00273982
0.0026418
0.00218993
0.0014647
0.000843572
0.000512996
0.000402198
0.000374103
0.00038084
0.000393804
0.000424913
0.000463953
0.000510881
0.000555377
0.000587657
0.000601355
0.000612806
0.000613783
0.000621199
0.000617284
0.000609513
0.000576545
0.00052562
0.00273982
0.0027089
0.00230324
0.00152506
0.00074557
0.000344048
0.000295575
0.000307226
0.000336859
0.000384556
0.000430931
0.000482384
0.000534324
0.000574578
0.000597495
0.000601355
0.000605151
0.000598553
0.000599132
0.000581348
0.000555958
0.000502882
0.000440906
0.00271975
0.00263956
0.00229926
0.0016103
0.000823309
0.000253573
0.000166339
0.00024174
0.000318064
0.000381736
0.000440508
0.000499386
0.000551345
0.000586537
0.000604753
0.000599055
0.000591196
0.000581242
0.000571099
0.000538186
0.000497796
0.000433412
0.000374078
0.00261624
0.00249729
0.00220592
0.00164378
0.000975358
0.000436873
0.000228916
0.000258721
0.00033676
0.000404838
0.000469104
0.000529935
0.000578493
0.000605317
0.000605857
0.000594814
0.000575614
0.000560025
0.000534399
0.000489085
0.000438463
0.00037688
0.000322865
0.0024599
0.00233979
0.00208351
0.00164466
0.00111494
0.00060704
0.000376119
0.000363808
0.000410106
0.000453149
0.000510969
0.000564659
0.000612762
0.000623848
0.000605857
0.000580716
0.000558479
0.000530113
0.000490778
0.000438196
0.000385668
0.000333671
0.000288626
0.0022813
0.00217011
0.00195736
0.00163251
0.00116557
0.000710385
0.000516437
0.000484712
0.000502589
0.000528445
0.000573343
0.000617716
0.000649894
0.000636892
0.000613667
0.00057564
0.000540493
0.000499014
0.000447522
0.000393698
0.000340525
0.00029244
0.000255397
0.00213816
0.00207876
0.00190606
0.0016008
0.00116044
0.00080355
0.00064087
0.000600993
0.000597871
0.000610553
0.000642775
0.000675198
0.000686413
0.000650143
0.00060679
0.000557426
0.000511712
0.000457825
0.000402313
0.000349896
0.00030298
0.000264799
0.00023946
0.00204265
0.00193727
0.00175995
0.00148553
0.00112344
0.000861683
0.00075108
0.000709175
0.00069164
0.000695421
0.000715098
0.000732774
0.000714029
0.000672286
0.00060969
0.000551412
0.000492404
0.000428401
0.000367399
0.000311055
0.000263766
0.000235156
0.000224806
0.00182865
0.00174197
0.00157273
0.00136672
0.00113254
0.00095402
0.00085149
0.00080516
0.000778625
0.000777482
0.000786774
0.000785718
0.000738521
0.000675716
0.000597769
0.000528349
0.00045611
0.000386628
0.000325477
0.000275694
0.000240648
0.00022235
0.000227139
0.00164865
0.00159134
0.00145777
0.00130048
0.00113097
0.00100371
0.000929187
0.000891287
0.000861336
0.000855844
0.00085325
0.000823623
0.000770536
0.000684001
0.000597526
0.000516489
0.000434873
0.000359967
0.000294116
0.000241575
0.000214854
0.000214147
0.000236694
0.00151514
0.00149188
0.00139662
0.00128745
0.00117722
0.0010837
0.00101199
0.00096673
0.000936874
0.000928499
0.000912258
0.000857234
0.000779855
0.000676767
0.000580141
0.000485814
0.000396676
0.000319612
0.000259472
0.000221489
0.000211579
0.00023249
0.000248891
0.00142831
0.00141764
0.00134074
0.00125944
0.00117865
0.00112111
0.00106695
0.00103685
0.00100736
0.000994101
0.000955043
0.000896823
0.000793873
0.000679261
0.000573087
0.0004707
0.000377701
0.000297469
0.000234304
0.000196439
0.0002019
0.000231294
0.00026295
0.00138443
0.00137637
0.001344
0.00129306
0.00123727
0.00118244
0.00113365
0.00109884
0.00107193
0.00105358
0.00099603
0.00090701
0.000782566
0.000660348
0.000545006
0.000435994
0.000340285
0.000262995
0.000213593
0.000198619
0.000222135
0.000255599
0.000277157
0.00137203
0.00136303
0.00132698
0.00129529
0.00125323
0.00122255
0.00118746
0.00116632
0.0011382
0.00109939
0.0010355
0.000923343
0.000787689
0.00065913
0.000535886
0.000422452
0.000325036
0.00024767
0.000195684
0.000189038
0.000218694
0.000256674
0.000292591
0.00138278
0.00138278
0.00136549
0.00133979
0.00131055
0.00128012
0.00125111
0.00122412
0.00119555
0.00114751
0.00104918
0.000906661
0.000762266
0.000626258
0.000499935
0.000389037
0.000297524
0.00023002
0.000192248
0.000208419
0.000243669
0.000283726
0.000292591
5.33744e-06
5.35468e-06
3.38995e-05
7.04166e-05
1.01095e-05
5.9386e-05
6.20317e-05
8.49665e-05
9.22244e-05
5.9386e-05
6.20317e-05
9.94003e-05
9.43468e-05
6.38356e-05
6.56338e-05
0.000185651
7.48224e-05
6.91965e-05
9.21784e-05
0.000331977
9.26385e-05
0.000126756
0.000340571
0.000544595
0.000339468
0.00056714
0.000617848
0.00057217
0.000585768
0.00056714
0.000617848
0.00057217
0.000585768
0.000557385
0.000497527
0.000422271
0.000427901
0.000357473
0.000306277
0.000274423
0.000240476
0.00022523
0.000190633
0.000173701
0.000182977
0.000151964
9.52947e-05
9.20005e-05
0.000299732
0.000256806
0.000238787
0.000219318
0.000498129
0.000459358
0.000401135
0.000369941
0.00069621
0.000638044
0.000625402
0.0006229
0.000813053
0.000781897
0.000799788
0.000817095
0.000813053
0.000781897
0.000799788
0.000826667
0.00074922
0.000779786
0.000799714
0.000826667
0.0006615
0.000689378
0.000714645
0.000737047
0.000694667
0.000718743
0.000740818
0.000762327
0.000755815
0.000776875
0.000793358
0.000807454
0.000792245
0.000801677
0.000807792
0.000810943
0.000792245
0.000801677
0.000807792
0.000810943
0.000783688
0.000781665
0.00077955
0.000774254
0.00073993
0.000731141
0.000721697
0.000710445
0.000668017
0.00065291
0.000636042
0.000621041
0.000574449
0.000554436
0.000532697
0.000517566
0.000476982
0.000455121
0.000432142
0.0004189
0.000392739
0.000371803
0.000350371
0.000339176
0.000330875
0.000312418
0.000294075
0.000285507
0.000286448
0.000272035
0.000259029
0.000254741
0.000257882
0.000248669
0.000242282
0.000242906
0.000238761
0.000235477
0.000238661
0.000248601
0.000230209
0.000236897
0.000247288
0.000260651
0.000235198
0.000247013
0.000260191
0.00027587
0.00024558
0.000260294
0.000275341
0.000292452
0.000259108
0.000275775
0.000291972
0.000310004
0.000273733
0.000291633
0.00030855
0.000327077
0.000289759
0.000308387
0.000325946
0.000344727
0.000305126
0.000324055
0.000341931
0.000360781
0.000321744
0.000341134
0.000359427
0.000378522
0.000321744
0.000341134
0.000359427
0.000378522
0.000150942
0.000177759
0.000197993
0.000358602
0.000358602
0.000354147
0.00014432
0.000319032
0.00046248
0.000422429
0.00023678
0.00024134
0.000334888
0.000334888
0.000200683
4.66891e-05
2.9106e-05
6.26077e-05
3.27564e-05
0.000179906
0.000203508
0.000181491
0.00017545
0.000295538
0.000196323
8.95739e-05
0.000240652
0.00046248
0.000402937
0.000201218
0.000237916
0.000280153
0.000240355
0.000174427
0.000167238
0.000217729
0.000199307
0.000108189
0.00024713
0.00024713
0.000132573
8.9206e-05
0.000114273
5.36369e-05
0.000143473
0.000362562
0.000448003
0.000257372
0.000281399
0.000373082
0.000365204
0.0003766
0.000372383
0.000426683
0.000367079
0.00033235
0.000217099
0.000289066
0.000238115
0.00012957
0.000149649
9.75224e-05
6.77487e-05
6.25609e-05
0.000242704
0.000444872
0.000468737
0.000503595
0.000607373
0.000607373
0.000579049
0.000616368
0.000616368
0.000533828
0.000312906
0.000257122
0.0004413
0.000437363
0.000631136
0.000558369
0.00041327
0.000261373
0.000180699
0.000119943
0.000140815
0.000224868
0.000409517
0.000569408
0.000613044
0.000619091
0.000631864
0.000631864
0.000527701
0.000359011
0.000258614
0.000602439
0.000812585
0.000863837
0.000863837
0.000695631
0.000433635
0.000282758
0.000291375
0.000230627
0.000378521
0.00047181
0.000518762
0.000518762
0.000515819
0.000490671
0.000524622
0.000600703
0.000546907
0.000327785
0.000682038
0.000682038
0.000690673
0.000795968
0.000795968
0.000724732
0.000390223
0.000337935
0.000337935
0.000248441
0.000283661
0.000341855
0.000457375
0.00048919
0.000471229
0.000470268
0.000630982
0.000597777
0.00041348
0.000560763
0.000369615
0.000369824
0.000589913
0.000747254
0.000714542
0.000529985
0.000321079
0.000398097
0.000421534
0.000464777
0.000530361
0.000597734
0.000586605
0.000529604
0.000460991
0.000731687
0.0007102
0.0004802
0.000351674
0.000254973
0.000390699
0.000488366
0.000567003
0.000486867
0.000535141
0.000535141
0.000490726
0.000506535
0.000591227
0.000671915
0.000751619
0.000751619
0.000672416
0.000722046
0.000731687
0.00071777
0.000384634
0.0002497
0.000375861
0.000441344
0.000543757
0.000543757
0.000465608
0.000698745
0.000614964
0.000614964
0.000598273
0.000631574
0.000680809
0.000747886
0.000813557
0.000813557
0.000748424
0.000686801
0.000453787
0.000187646
0.000394214
0.000522074
0.000522074
0.000483466
0.000692068
0.000931438
0.000931438
0.000851679
0.000648659
0.00054855
0.000516137
0.000513791
0.000549544
0.00057583
0.000607769
0.000501388
0.00044167
0.000235163
9.92778e-05
0.000359016
0.000466498
0.000398098
0.000647496
0.000933827
0.000933827
0.000856253
0.000665963
0.000556404
0.000511379
0.000495061
0.000462255
0.000416922
0.000368107
0.000368042
0.000323238
0.000222902
9.87872e-05
4.45202e-05
0.000320643
0.000340534
0.000341965
0.00054481
0.000771396
0.000811184
0.000723113
0.000577095
0.000576859
0.000576859
0.00053501
0.00046629
0.000391542
0.00031385
0.000235526
0.000168898
9.21138e-05
2.70364e-05
2.47453e-05
0.000375098
0.000396477
0.000500489
0.000798701
0.000871582
0.000852512
0.00065369
0.000633762
0.000639228
0.000639228
0.000596757
0.000516193
0.000424384
0.000319761
0.000221909
0.000140527
7.62304e-05
4.3746e-05
2.84114e-05
0.000638964
0.000673877
0.000929534
0.000985794
0.000985794
0.000796443
0.000609987
0.000702528
0.000702528
0.000692047
0.00064382
0.000555038
0.000454119
0.00034394
0.000243455
0.000157506
0.000102346
7.11128e-05
3.9789e-05
0.00091038
0.000990779
0.00102563
0.00102563
0.000961354
0.000622407
0.000661416
0.000749933
0.000749933
0.000748872
0.000711045
0.000616498
0.000496569
0.000366256
0.000253451
0.000170792
0.000117473
8.71598e-05
6.03154e-05
0.00102182
0.00102182
0.00100514
0.000952195
0.000743301
0.000486119
0.000662273
0.000760107
0.000801564
0.000801564
0.000789261
0.000701913
0.000553812
0.000393624
0.000262946
0.000170204
0.000122914
0.000114539
9.49509e-05
0.00091574
0.00091574
0.000907619
0.000812341
0.000629363
0.000613559
0.000734473
0.000828546
0.000884679
0.00089199
0.00089199
0.000815931
0.00064962
0.000447338
0.000270117
0.00015016
0.000126235
0.000137009
0.000122107
0.000808788
0.000822155
0.000822155
0.000783458
0.000700684
0.000748974
0.000840587
0.000923968
0.000978716
0.000993398
0.000993398
0.000929433
0.000750934
0.000512032
0.000297031
0.000144299
0.000143656
0.000156967
0.000147855
0.00086505
0.000882543
0.000882543
0.00086303
0.000819386
0.00084402
0.000921178
0.00100393
0.0010657
0.00109128
0.00109128
0.00105048
0.000880334
0.00060731
0.000344307
0.000150239
0.00016141
0.000175556
0.000168973
0.000905738
0.000905738
0.00090058
0.000877138
0.000850711
0.000902795
0.00098406
0.00107371
0.00114303
0.00117861
0.00117861
0.00115492
0.001011
0.000730642
0.000415869
0.000163764
0.000176117
0.000192156
0.000191641
0.000906684
0.000906684
0.000887555
0.000870115
0.00087561
0.000934653
0.00102333
0.00112168
0.00120203
0.00124956
0.00124956
0.00124377
0.001138
0.000871924
0.000506512
0.000185988
0.000184229
0.000211155
0.000211155
0.000862927
0.000862927
0.00084351
0.000830371
0.000857816
0.000935243
0.00103851
0.00115119
0.00124477
0.0013061
0.00131792
0.00131792
0.00124477
0.0010093
0.000619317
0.000236642
0.00018557
0.000224397
0.000224397
0.000799102
0.000799102
0.000775281
0.000765119
0.000811519
0.000900164
0.00102094
0.00115463
0.00126909
0.00134596
0.00137423
0.00137423
0.00132738
0.00113586
0.000754125
0.000311293
0.000189013
0.000236575
0.000236575
0.00070182
0.00070182
0.00067933
0.000699133
0.000757574
0.000850107
0.000973905
0.00112241
0.0012646
0.00136698
0.00141295
0.00141295
0.00138876
0.00124135
0.000891712
0.000406035
0.000189035
0.000245083
0.000245083
0.000598163
0.000597502
0.000610363
0.000655208
0.000726308
0.000821616
0.00093945
0.00108123
0.00123396
0.00136311
0.00143403
0.00143403
0.0014318
0.00132135
0.00101844
0.000519712
0.000192906
0.000259991
0.000259991
0.000495624
0.000506127
0.0005457
0.000609692
0.000694432
0.000796337
0.000913743
0.00104941
0.0011995
0.00134359
0.0014384
0.00145932
0.00145932
0.0013803
0.00112927
0.000642384
0.000228544
0.000276199
0.000276199
0.00040383
0.000434019
0.000491064
0.000572023
0.000669788
0.000777536
0.000893959
0.00102361
0.00116756
0.00131778
0.00143312
0.00147527
0.00147527
0.00142172
0.0012212
0.000762134
0.000280722
0.000297977
0.000297977
0.000335708
0.000375245
0.000443367
0.000533714
0.000642494
0.000757933
0.000875923
0.00100258
0.00113895
0.00128872
0.00142068
0.0014828
0.0014828
0.00144918
0.00129045
0.000877219
0.000334029
0.00032126
0.000321657
0.000305083
0.000349895
0.000420239
0.000511061
0.000623733
0.000744169
0.000862827
0.000987109
0.00111757
0.00126095
0.00140178
0.00148189
0.00148189
0.00146462
0.00133591
0.000976617
0.000394026
0.000349493
0.000355116
0.000291997
0.000339386
0.000407622
0.000493366
0.000605477
0.000729754
0.000849978
0.000973037
0.00109969
0.00123659
0.00138167
0.00147676
0.00147676
0.00147165
0.00136285
0.00105353
0.000467695
0.00038265
0.000394493
0.000303141
0.000351976
0.00041538
0.00049321
0.00059954
0.00072334
0.000844182
0.00096547
0.00108852
0.00121796
0.00136216
0.00146902
0.00147577
0.00147577
0.00138057
0.00110898
0.00053772
0.000419657
0.000440383
0.000311081
0.000362111
0.000422676
0.000493391
0.000593099
0.000715396
0.000837339
0.000957923
0.00107876
0.00120303
0.00134478
0.00145936
0.00147515
0.00147515
0.0013896
0.00115158
0.000612054
0.00045725
0.000494375
0.000333999
0.000384358
0.000441392
0.000507045
0.000599736
0.000717581
0.000839035
0.000958288
0.00107607
0.00119514
0.00133239
0.00145198
0.0014758
0.0014758
0.00139665
0.00118364
0.000674489
0.000503576
0.000555104
0.000348062
0.000399719
0.000454841
0.000516133
0.000602682
0.000716417
0.000837554
0.000956545
0.00107279
0.00118901
0.0013225
0.00144453
0.0014735
0.0014735
0.00140008
0.00120556
0.000729557
0.000542125
0.00062311
0.000373185
0.0004235
0.000476786
0.000535538
0.000617575
0.000726904
0.000846053
0.000963604
0.00107738
0.00119043
0.00131932
0.00144199
0.00147467
0.00147467
0.00140385
0.00122084
0.000768694
0.000595489
0.000696772
0.000387502
0.000438453
0.000491281
0.00054851
0.000626573
0.000731657
0.000849076
0.000966237
0.00107897
0.00119038
0.00131651
0.00143938
0.00147436
0.00147436
0.00140656
0.00123161
0.000803743
0.000637765
0.000777634
0.000413253
0.000462702
0.000514262
0.000569864
0.000645596
0.00074827
0.000863439
0.000978876
0.00108964
0.00119878
0.00132154
0.00144346
0.00147967
0.00147967
0.00141263
0.001242
0.00082325
0.000704957
0.000864248
0.000425903
0.000475884
0.000527776
0.000582802
0.000656522
0.000756742
0.000869887
0.000984524
0.00109446
0.00120242
0.00132372
0.00144554
0.00148315
0.00148315
0.0014187
0.00125435
0.000850754
0.000760458
0.000964062
0.000453241
0.000501968
0.000552791
0.000606474
0.000678177
0.000776675
0.000887915
0.00100086
0.00110909
0.00121522
0.00133443
0.00145503
0.0014928
0.0014928
0.00142879
0.00126911
0.000861461
0.000854681
0.00105941
0.000461648
0.000510932
0.000562277
0.000616169
0.000687151
0.000784581
0.000894414
0.00100659
0.00111418
0.00121948
0.00133805
0.00145855
0.00149747
0.00149747
0.00143519
0.00128241
0.000884347
0.000908487
0.00117755
0.000493689
0.000542376
0.000592729
0.000645451
0.000714229
0.000809171
0.000916615
0.00102675
0.00113222
0.00123558
0.00135227
0.00147134
0.00150967
0.00150967
0.0014482
0.00129839
0.000895576
0.00103392
0.00117755
)
;

boundaryField
{
    leftWall
    {
        type            calculated;
        value           uniform 0;
    }
    rightWall
    {
        type            calculated;
        value           uniform 0;
    }
    lowerWall
    {
        type            calculated;
        value           uniform 0;
    }
    atmosphere
    {
        type            calculated;
        value           uniform 0;
    }
    defaultFaces
    {
        type            empty;
    }
}


// ************************************************************************* //
