/*--------------------------------*- C++ -*----------------------------------*\
| =========                 |                                                 |
| \\      /  F ield         | OpenFOAM: The Open Source CFD Toolbox           |
|  \\    /   O peration     | Version:  2012                                  |
|   \\  /    A nd           | Website:  www.openfoam.com                      |
|    \\/     M anipulation  |                                                 |
\*---------------------------------------------------------------------------*/
FoamFile
{
    version     2.0;
    format      ascii;
    class       volScalarField;
    location    "0.97";
    object      minKappa;
}
// * * * * * * * * * * * * * * * * * * * * * * * * * * * * * * * * * * * * * //

dimensions      [0 0 0 0 0 0 0];


internalField   nonuniform List<scalar> 
2268
(
4.49603e-08
4.58449e-08
6.09398e-08
7.42297e-08
1.81122e-07
3.71065e-07
5.73526e-07
7.55157e-07
8.82687e-07
8.67938e-07
7.60417e-07
5.34568e-07
2.96607e-07
1.64942e-07
3.89481e-07
7.06699e-07
9.85201e-07
1.24251e-06
1.40665e-06
1.4555e-06
1.36388e-06
8.41008e-07
5.64046e-07
4.49603e-08
4.58449e-08
6.09398e-08
7.42297e-08
1.81122e-07
3.71065e-07
5.73526e-07
7.55157e-07
8.82687e-07
8.67938e-07
7.60417e-07
5.34568e-07
2.96607e-07
1.64942e-07
3.89481e-07
7.06699e-07
9.85201e-07
1.24251e-06
1.40665e-06
1.4555e-06
1.36388e-06
8.41008e-07
5.64046e-07
5.84942e-08
5.6179e-08
8.57407e-08
1.03182e-07
2.0239e-07
4.01258e-07
6.11175e-07
7.9711e-07
9.21732e-07
9.0486e-07
8.04913e-07
5.94031e-07
3.95245e-07
3.05084e-07
4.76089e-07
7.86244e-07
1.03458e-06
1.29983e-06
1.45557e-06
1.52476e-06
1.45259e-06
9.79438e-07
7.19813e-07
8.0641e-08
8.3471e-08
1.30731e-07
1.58036e-07
2.57717e-07
4.61234e-07
6.67789e-07
8.60596e-07
9.84659e-07
9.705e-07
8.84676e-07
6.87002e-07
5.24118e-07
4.537e-07
5.8247e-07
8.77927e-07
1.10005e-06
1.38259e-06
1.53534e-06
1.65398e-06
1.63975e-06
1.23316e-06
9.8454e-07
1.17205e-07
1.1937e-07
1.8077e-07
2.1774e-07
3.22006e-07
5.38163e-07
7.52173e-07
9.52035e-07
1.0781e-06
1.06305e-06
9.94108e-07
8.13526e-07
6.81815e-07
6.13933e-07
7.25075e-07
1.01336e-06
1.21061e-06
1.47764e-06
1.61269e-06
1.869e-06
1.91892e-06
1.57936e-06
1.31931e-06
1.62515e-07
1.6994e-07
2.45366e-07
3.01501e-07
4.19643e-07
6.51807e-07
8.62392e-07
1.07442e-06
1.20594e-06
1.19722e-06
1.13861e-06
9.6941e-07
8.55398e-07
7.86844e-07
8.89529e-07
1.15136e-06
1.31644e-06
1.52662e-06
1.54399e-06
1.92536e-06
2.15377e-06
1.92076e-06
1.77854e-06
2.34259e-07
2.5736e-07
3.49113e-07
4.10181e-07
5.35502e-07
7.78098e-07
1.00702e-06
1.23024e-06
1.36922e-06
1.36304e-06
1.31599e-06
1.16414e-06
1.0619e-06
9.7778e-07
1.07424e-06
1.30567e-06
1.40037e-06
1.52662e-06
1.54399e-06
1.77373e-06
1.89935e-06
2.20477e-06
2.18832e-06
3.20572e-07
3.31497e-07
4.46541e-07
5.39443e-07
6.88274e-07
9.61725e-07
1.18813e-06
1.43589e-06
1.58736e-06
1.58098e-06
1.52812e-06
1.38269e-06
1.28009e-06
1.19345e-06
1.24578e-06
1.38535e-06
1.45525e-06
1.80042e-06
1.83095e-06
1.77373e-06
1.89935e-06
2.37969e-06
2.6774e-06
0.00013714
0.000166828
0.000230788
0.000202717
0.000121534
5.7008e-05
1.63785e-05
5.33642e-06
2.52832e-06
4.572e-06
7.78892e-06
1.96971e-05
1.37111e-05
1.92168e-05
2.64681e-05
2.94528e-05
2.93346e-05
1.13337e-05
3.87561e-06
0.00013714
0.000166828
0.000230788
0.000202717
0.000121534
5.7008e-05
1.37992e-05
5.33642e-06
2.52832e-06
3.69439e-06
3.98515e-06
1.02454e-05
1.00676e-05
1.92168e-05
2.64681e-05
2.94528e-05
2.93346e-05
1.13337e-05
3.87561e-06
0.000320692
0.000216599
0.000348965
0.000190222
5.47491e-05
2.19347e-05
1.14447e-05
6.46594e-06
3.58343e-06
3.5974e-06
3.98515e-06
6.54183e-06
1.00676e-05
1.4803e-05
2.2404e-05
7.26843e-05
9.07412e-05
2.32652e-05
4.44844e-06
0.000162721
0.000216599
0.000254235
0.000146973
4.08935e-05
2.19347e-05
1.14447e-05
7.7839e-06
4.64457e-06
3.5974e-06
4.27974e-06
6.54183e-06
1.18081e-05
1.29466e-05
1.31792e-05
5.61675e-05
6.58103e-05
2.03213e-05
3.7082e-06
0.00011663
0.000207459
0.000244249
0.000146973
5.28026e-05
2.37678e-05
1.15667e-05
9.06433e-06
7.74065e-06
8.10152e-06
1.32628e-05
9.0584e-06
1.43251e-05
1.29466e-05
1.17165e-05
4.18594e-05
4.06631e-05
7.30053e-06
2.62669e-06
9.75452e-05
0.000177172
0.000244249
0.000305112
0.000144553
0.000115866
1.57845e-05
1.22799e-05
4.11374e-05
9.12742e-05
5.72028e-05
4.52262e-05
5.66764e-05
2.06289e-05
1.17165e-05
2.68444e-05
1.18117e-05
3.94756e-06
1.5698e-06
7.91312e-05
0.000164942
0.000220694
0.000196323
0.000120389
0.000134028
4.33824e-05
3.42358e-05
0.000118703
0.000224699
0.000114048
0.000119047
0.000127821
9.94512e-05
1.64315e-05
1.19495e-05
5.3454e-06
2.76149e-06
1.0828e-06
7.91312e-05
0.000164942
0.000147881
0.000196323
0.000120389
0.000134028
6.72411e-05
6.86169e-05
0.000193894
0.000231207
0.000114048
0.000134464
0.000135447
0.000113364
4.57858e-05
1.19495e-05
5.3454e-06
2.76149e-06
1.0828e-06
6.56153e-07
6.99433e-07
9.16609e-07
1.0875e-06
1.35976e-06
1.81935e-06
2.23397e-06
2.64414e-06
2.86823e-06
2.82105e-06
2.75569e-06
2.57313e-06
2.44989e-06
2.27555e-06
2.65564e-06
3.7139e-06
5.27819e-06
1.15723e-05
2.35699e-05
8.02846e-06
3.03483e-06
4.95287e-06
5.01729e-06
1.6853e-06
1.86662e-06
2.39195e-06
2.62692e-06
3.11738e-06
3.94703e-06
4.34284e-06
4.98305e-06
5.37887e-06
6.04077e-06
6.91358e-06
7.37747e-06
7.89332e-06
1.00976e-05
2.90351e-05
5.68421e-05
0.000319887
0.000252885
0.000189855
0.000105656
5.98784e-05
2.14323e-05
3.19558e-06
2.7564e-06
3.12821e-06
3.21598e-06
3.80344e-06
4.44943e-06
9.13727e-06
1.2899e-05
1.13383e-05
1.08561e-05
1.87575e-05
3.65028e-05
6.03924e-05
8.73063e-05
0.000179549
0.000168371
0.000595858
0.000538865
0.000330551
6.97047e-05
4.21141e-05
1.61663e-05
7.0714e-05
1.88038e-05
4.08123e-06
3.81257e-06
3.21598e-06
6.17738e-06
1.40616e-05
6.89014e-05
0.000112326
9.16999e-05
6.09148e-05
7.58596e-05
0.000196337
0.000324833
0.000407889
0.000428168
0.000814571
0.000751444
0.000319246
7.66036e-05
4.02442e-05
2.46941e-05
1.61663e-05
2.33528e-05
7.53542e-05
4.44045e-06
5.89434e-06
1.77726e-05
6.83408e-05
0.000102265
0.000107942
0.000219268
0.000347799
0.000342248
0.000397542
0.000513987
0.000578385
0.000590027
0.000606371
0.00110564
0.000452195
0.000149527
6.33941e-05
5.12135e-05
4.30123e-05
3.08677e-05
8.38963e-05
5.81733e-05
4.44045e-06
1.67449e-05
0.000184393
0.000339531
0.000329828
0.000321952
0.000447519
0.000863313
0.00102131
0.000817516
0.000668693
0.000647908
0.000649443
0.000669195
0.00110513
0.000500652
0.000119142
6.61109e-05
6.18485e-05
5.56944e-05
5.6846e-05
7.13523e-05
5.37701e-05
7.7971e-06
4.17582e-05
0.000388929
0.000709542
0.000715315
0.000668475
0.000874979
0.00144339
0.000997188
0.000831638
0.000744663
0.00072189
0.00072126
0.000711786
0.00117438
0.000629052
0.000433685
0.000104901
6.69873e-05
6.32189e-05
6.26985e-05
6.35506e-05
6.57929e-05
2.17931e-05
8.00671e-05
0.000517408
0.000859779
0.000799458
0.00106217
0.00144649
0.00110276
0.000838689
0.000731772
0.000724049
0.00077794
0.00071094
0.000888198
0.000996735
0.000540161
0.00076021
0.000469928
0.000118071
7.80967e-05
6.65206e-05
6.92188e-05
8.97846e-05
3.44533e-05
9.17783e-05
0.000745508
0.00094417
0.000816659
0.00108286
0.00107883
0.000940415
0.000748667
0.000795626
0.000717658
0.00076885
0.00069938
0.000817747
0.000622523
0.0004167
0.000585281
0.000626309
0.00049006
0.000203308
0.000100491
0.000107903
0.000191839
4.44778e-05
9.72733e-05
0.000794776
0.000857893
0.000717284
0.000851989
0.000626279
0.000654725
0.000486745
0.000528761
0.000591964
0.000621927
0.000590013
0.000569778
0.000476634
0.000266082
0.000411011
0.000532487
0.000492715
0.000365365
0.00021184
0.000163565
0.000215615
5.46102e-05
0.000108
0.000962709
0.000888277
0.000640282
0.000596898
0.000379563
0.000373105
0.000170951
0.000216956
0.000403168
0.000414538
0.000436695
0.000413131
0.000278459
0.000211846
0.00029934
0.00045867
0.000472295
0.000417702
0.000311613
0.000197742
0.000128463
0.000109393
0.000363665
0.00105059
0.00090865
0.000562699
0.000436728
0.000276325
0.000182071
5.34027e-05
8.95323e-05
0.000229516
0.000275285
0.000350281
0.000320566
0.000273033
0.000211846
0.000308567
0.000415725
0.000496262
0.000448862
0.000414581
0.00029376
0.000127605
0.000489239
0.000512226
0.00114128
0.000942836
0.000499829
0.00034941
0.000223323
0.000122089
5.34027e-05
7.36902e-05
0.000161873
0.00018297
0.000258364
0.000266624
0.000291433
0.000257103
0.00032481
0.000396361
0.000452636
0.000481407
0.000434085
0.000375503
0.000189177
0.000483055
0.000569944
0.00125156
0.000953388
0.000475251
0.000316179
0.000202394
0.000136742
6.72146e-05
2.95731e-05
0.000110262
0.000145127
0.000211947
0.000245979
0.000281349
0.000285646
0.000336291
0.000394987
0.000450166
0.000497885
0.000491621
0.000442206
0.000284622
0.000483055
0.00068313
0.00137991
0.000948907
0.000461944
0.000285856
0.00017465
0.000136333
7.00918e-05
2.95731e-05
9.18097e-05
0.000144344
0.000194519
0.000242274
0.000276886
0.000304693
0.000348452
0.000402636
0.000454822
0.000515514
0.00054911
0.000540113
0.000453443
0.000633953
0.000934434
0.00128531
0.000905532
0.000435963
0.000275064
0.000171398
0.000132951
0.000119498
4.32143e-05
0.000132471
0.000144344
0.000203621
0.000242274
0.000281746
0.0003177
0.00035526
0.000402185
0.000446682
0.000504497
0.000562748
0.000625791
0.000567686
0.000858175
0.000969889
0.00128199
0.000853772
0.000403686
0.000274489
0.000179185
0.000132951
0.000162193
9.29557e-05
0.000168128
0.000164853
0.000222465
0.000250196
0.000289659
0.000326886
0.000358557
0.000399339
0.000436369
0.00048397
0.000535945
0.000602546
0.000591189
0.000858175
0.00104185
0.00128352
0.000809914
0.000395439
0.000291023
0.000220545
0.000145215
0.000211075
0.000140984
0.00021479
0.000198449
0.000256511
0.000269779
0.000312872
0.000340654
0.000373365
0.00040809
0.000438451
0.00047472
0.000509445
0.000549148
0.000485773
0.000880608
0.00113565
0.00122216
0.000767947
0.000403936
0.000302666
0.000268384
0.000181195
0.000250205
0.000188607
0.000250532
0.000235416
0.000283919
0.000295911
0.000333569
0.000359786
0.000389352
0.000421129
0.000450147
0.000485166
0.000517952
0.000552743
0.000459945
0.000903423
0.00126157
0.00119108
0.000749421
0.000449785
0.000318232
0.000323226
0.000226305
0.000297025
0.000232918
0.000290653
0.000268553
0.000311051
0.000317299
0.000346775
0.000370482
0.000391859
0.000420276
0.00044957
0.000486836
0.00052419
0.000564487
0.000476718
0.000969577
0.00134675
0.00119293
0.000747495
0.000510456
0.000361034
0.000374391
0.000277846
0.000337467
0.000277324
0.000325439
0.000302139
0.000340587
0.000341055
0.000373023
0.000386822
0.000415518
0.000444634
0.000475992
0.000514885
0.00055601
0.000602685
0.000521145
0.000969577
0.00132623
0.00118936
0.000761024
0.000565893
0.000419122
0.000418565
0.000328621
0.000371049
0.000316925
0.000356683
0.000333299
0.000365248
0.000366253
0.000392631
0.000409853
0.000439477
0.000477616
0.000518912
0.000562996
0.000611206
0.00066275
0.000565764
0.00113435
0.00150432
0.00119427
0.000797014
0.000612623
0.000481069
0.00045301
0.00037554
0.000398379
0.000352575
0.000383776
0.000360917
0.000387745
0.000388338
0.000414778
0.000437003
0.000475625
0.000522103
0.00056929
0.000616932
0.000665553
0.000715102
0.000580048
0.00143919
0.00168957
0.0012199
0.000842368
0.000649233
0.000534204
0.000472144
0.000412798
0.000414016
0.000380354
0.000401488
0.000384196
0.00040654
0.000411449
0.000439927
0.00047373
0.000517098
0.000563353
0.000604361
0.000644635
0.000685293
0.000723044
0.000561494
0.00176175
0.00179323
0.00128299
0.00089227
0.000675274
0.000548898
0.000478266
0.000435915
0.000421774
0.000398683
0.000413271
0.000403238
0.000423507
0.000437378
0.000471178
0.000514285
0.000558822
0.000598625
0.000630746
0.000660848
0.000687988
0.000698275
0.000524046
0.00206745
0.00193546
0.00136144
0.000923776
0.0006739
0.000537301
0.000462005
0.000418154
0.000414814
0.000402389
0.000412923
0.000417524
0.000435713
0.000464488
0.000502984
0.000547075
0.000583524
0.000610505
0.000631019
0.000647464
0.000654873
0.000643992
0.000464596
0.0023594
0.0020734
0.00142611
0.000913245
0.000628286
0.000487473
0.000402198
0.000374103
0.00038084
0.000389612
0.00040819
0.000426673
0.000452486
0.000491338
0.000536057
0.000575537
0.000601324
0.000613783
0.000621199
0.000617284
0.000609513
0.000576545
0.000394606
0.00261436
0.00218993
0.0014647
0.000843572
0.000504114
0.000344048
0.000295575
0.000307226
0.000336654
0.000367293
0.000393804
0.000424913
0.000463953
0.000510881
0.000555377
0.000586088
0.000600522
0.000598553
0.000599132
0.000581348
0.000555958
0.000502882
0.000325952
0.0027089
0.00230324
0.00152506
0.00074557
0.000328959
0.000155483
0.000166339
0.00023394
0.000290127
0.000336859
0.000384556
0.000430931
0.000482384
0.000534324
0.000574578
0.00059591
0.000591196
0.000581242
0.000571099
0.000538186
0.000494329
0.000431535
0.000271255
0.00261624
0.00229926
0.0016103
0.000823309
0.000253573
7.76006e-05
7.76006e-05
0.000148374
0.00024174
0.000318064
0.000381736
0.000440508
0.000499386
0.000551345
0.000584238
0.000584509
0.000572488
0.000558484
0.000530223
0.000487231
0.000431022
0.000370851
0.000233149
0.0024599
0.00220592
0.00164378
0.000975358
0.000436873
0.000140682
0.000123986
0.000178167
0.000255853
0.00033676
0.000404838
0.000469104
0.000529935
0.00057799
0.000594814
0.000574849
0.000556405
0.000529312
0.00048696
0.000434556
0.00037688
0.000322149
0.000203076
0.0022813
0.00208351
0.00164466
0.00111494
0.00060704
0.000319418
0.000228916
0.000258721
0.000336411
0.000391865
0.000448259
0.000507767
0.000563165
0.000599916
0.000580716
0.000553304
0.000525834
0.000485489
0.000436362
0.000384222
0.000333671
0.000288626
0.000187212
0.00213816
0.00195736
0.00163251
0.00116557
0.000710385
0.000479197
0.000376119
0.000363808
0.000410106
0.000453149
0.000510969
0.000563165
0.00060888
0.000613667
0.00057564
0.000540493
0.000499014
0.000447522
0.000393698
0.000340525
0.00029244
0.000253946
0.000170125
0.00204265
0.00190606
0.0016008
0.00116044
0.00080355
0.000613193
0.000516437
0.000484712
0.000502589
0.000528445
0.000573343
0.000617716
0.000649894
0.00060679
0.000557426
0.000511712
0.000457825
0.000402313
0.000349896
0.00030298
0.000263766
0.000235156
0.000169759
0.00182865
0.00174197
0.00148553
0.00112344
0.000861683
0.000728114
0.00064087
0.000600993
0.000597871
0.000610553
0.000642775
0.000675198
0.000672286
0.00060969
0.000551412
0.000492404
0.000428401
0.000367399
0.000311055
0.000263705
0.000231072
0.000217849
0.000163869
0.00164865
0.00157273
0.00136672
0.00113254
0.00095402
0.000835661
0.00075108
0.000709175
0.00069164
0.000695421
0.000715098
0.000732774
0.000675716
0.000597769
0.000528349
0.00045611
0.000386628
0.000325477
0.000275694
0.000238018
0.000214854
0.000211686
0.000174927
0.00151514
0.00145777
0.00130048
0.00113097
0.00100081
0.000918409
0.000845826
0.00080516
0.000778625
0.000777482
0.000786774
0.000770536
0.000684001
0.000597526
0.000516489
0.000434873
0.000359967
0.000294116
0.000241575
0.000209506
0.000201856
0.000201856
0.000176246
0.00142831
0.00139662
0.00128745
0.00117722
0.00108358
0.00100371
0.000929187
0.000891287
0.000861336
0.000855844
0.00085325
0.000779855
0.000676767
0.000580141
0.000485814
0.000396676
0.000319612
0.000259472
0.000221489
0.000196439
0.000198478
0.000211579
0.000192954
0.00138443
0.00134074
0.00125944
0.00117865
0.00110934
0.00105289
0.00100115
0.00096673
0.000936874
0.000928499
0.000896823
0.000793873
0.000679261
0.000573087
0.0004707
0.000377701
0.000297469
0.000234304
0.000195033
0.000186426
0.000186426
0.0002019
0.000196584
0.00136752
0.001344
0.00129306
0.00123727
0.00117137
0.00112111
0.00106695
0.00103685
0.00100736
0.000994101
0.00090701
0.000782566
0.000660348
0.000545006
0.000435994
0.000340285
0.000262995
0.000213593
0.000188088
0.000184229
0.000198619
0.000222135
0.000215593
0.00135416
0.00132604
0.00128342
0.00123819
0.00119509
0.00115748
0.00112404
0.00109884
0.00107193
0.0010355
0.000923343
0.000787689
0.00065913
0.000535886
0.000422452
0.000325036
0.00024767
0.000195684
0.000176784
0.000176784
0.000189038
0.000218694
0.000218595
0.00137203
0.00136303
0.00132698
0.00129529
0.00125323
0.00122255
0.00118746
0.00116632
0.0011382
0.00104918
0.000906661
0.000762266
0.000626258
0.000499935
0.000389037
0.000297524
0.00023002
0.000192248
0.000180331
0.000185166
0.000208419
0.000243669
0.000239484
2.09409e-06
2.09409e-06
3.3103e-06
1.4715e-05
2.82156e-06
2.82156e-06
1.61744e-05
3.36952e-05
1.01095e-05
3.42887e-05
3.42887e-05
3.658e-05
3.31992e-05
2.8581e-05
2.8581e-05
3.71053e-05
3.19931e-05
3.19931e-05
3.2291e-05
4.6017e-05
3.30097e-05
3.30097e-05
4.33442e-05
0.000140656
7.25433e-05
0.000126756
0.000261123
0.000293088
0.000281751
0.000297167
0.000265237
0.000265237
0.000237638
0.000198441
0.000165412
0.000165412
0.000131771
0.000113635
0.000107494
0.000107494
9.32667e-05
8.38906e-05
6.53279e-05
6.53279e-05
6.03444e-05
3.2914e-05
1.47063e-05
1.47063e-05
9.22321e-05
7.58402e-05
7.51311e-05
7.51311e-05
0.000172044
0.000156238
0.000138182
0.000138182
0.000280759
0.000245106
0.000232804
0.000232804
0.000349209
0.00034788
0.00034788
0.000353076
0.000391298
0.000391298
0.000393818
0.000404972
0.000328322
0.000328322
0.000346861
0.000361278
0.000305096
0.000305096
0.00031452
0.000323228
0.000316426
0.000316426
0.000327213
0.000338008
0.000346209
0.000346209
0.000356983
0.000366538
0.000372406
0.000372406
0.00037914
0.000383807
0.000374931
0.000374931
0.000374928
0.000374928
0.000359088
0.000356624
0.000353482
0.000353482
0.000330876
0.000324703
0.00031805
0.00031805
0.000288844
0.000279937
0.00027156
0.00027156
0.000240932
0.000230183
0.000221196
0.000221196
0.000196607
0.000186266
0.000178215
0.000178215
0.000162342
0.000152764
0.000145513
0.000145513
0.000139707
0.000132024
0.000126695
0.000126695
0.000122567
0.000117427
0.000114683
0.000114683
0.000115395
0.000113253
0.000113253
0.000113335
0.000107448
0.000107448
0.000108296
0.000111147
0.000110072
0.000110072
0.000113235
0.00011796
0.000109052
0.000109052
0.000114435
0.000120918
0.000117704
0.000117704
0.000124111
0.000131238
0.000120219
0.000120219
0.000127847
0.000135886
0.000131395
0.000131395
0.000139264
0.000147367
0.000134588
0.000134588
0.000143138
0.000151752
0.000146865
0.000146865
0.000155382
0.00016391
0.00014921
0.00014921
0.000158053
0.000166852
0.000162779
0.000162779
0.000171713
0.000180556
5.48303e-05
0.000131936
0.000130581
0.00017545
0.000222941
0.00014432
8.47487e-05
7.1289e-05
0.000319032
0.00023678
0.000142823
0.000158428
0.000209782
0.000141242
4.66891e-05
1.39866e-05
6.19413e-06
6.70495e-06
4.48485e-06
8.49665e-05
0.000161485
8.96851e-05
6.38253e-05
0.000114273
5.2498e-05
3.28017e-05
3.28017e-05
0.000240652
0.000176123
0.000143946
0.00017813
0.000197293
0.000174427
0.000104238
2.92056e-05
2.9106e-05
6.26077e-05
3.27564e-05
7.64074e-05
0.000132573
7.69036e-05
6.38253e-05
5.36369e-05
3.38834e-05
4.52489e-05
0.000101978
0.000257372
0.000125422
0.000125422
0.00017813
0.000197293
0.000190658
0.000149159
0.000167238
0.000217729
0.000199307
9.42377e-05
0.000133087
0.000105459
7.69036e-05
7.17481e-05
5.02133e-05
3.38834e-05
4.41996e-05
6.25198e-05
0.000140815
0.000224868
0.000281399
0.000373082
0.000365204
0.0003766
0.000372383
0.000426683
0.000312906
0.00021706
0.000211894
0.000213009
0.000211303
0.00012957
0.000149649
9.75224e-05
6.77487e-05
6.25609e-05
5.9173e-05
5.9173e-05
9.20997e-05
0.00019754
0.000409517
0.000496444
0.000511673
0.000488449
0.000474951
0.000359011
0.000236509
0.000178483
0.000386513
0.000437363
0.000631136
0.000558369
0.000411228
0.000237645
0.000179831
0.000119943
7.56003e-05
0.000166948
0.000281337
0.000341855
0.000410611
0.000464503
0.000404909
0.00029545
0.000476458
0.000327785
0.000178483
0.000491518
0.000369615
0.000361275
0.00050067
0.000695631
0.000359548
0.000251647
0.000243573
0.000205978
0.000166517
0.000166517
0.000217483
0.000319048
0.000457375
0.000354566
0.000210027
0.000470268
0.00041348
0.000214652
0.000345333
0.000143788
0.000201999
0.000369824
0.000567003
0.000486867
0.000235726
0.000235726
0.000285178
0.000248441
0.000283661
0.000331659
0.000435536
0.00048919
0.000333689
0.000210027
0.000460991
0.0004802
0.00023135
0.000193489
0.000143788
0.000254973
0.000390699
0.000408176
0.000205115
0.000378291
0.000321079
0.00037753
0.000374913
0.000464777
0.000488897
0.000597734
0.000586605
0.000455442
0.000356273
0.000686801
0.000366096
0.000152006
0.00017079
0.000214821
0.000310142
0.00043441
0.000349458
0.000205115
0.000347344
0.000512762
0.00048706
0.000453451
0.000506131
0.000513791
0.000549544
0.00057583
0.000607769
0.000501388
0.00044167
0.000181049
7.84826e-05
0.000115931
0.000375861
0.000364785
0.0003718
0.000461314
0.000465608
0.000698745
0.000602025
0.000489297
0.000469609
0.000444621
0.000421392
0.000402654
0.000368107
0.000368042
0.000323238
0.000222902
7.93668e-05
4.45202e-05
6.8628e-05
0.000340534
0.000285239
0.00034633
0.000627233
0.000811184
0.000620946
0.000505653
0.000489297
0.000469609
0.000444621
0.000392934
0.000337563
0.000268333
0.000233898
0.000168898
9.21138e-05
2.17656e-05
2.47453e-05
0.000164346
0.000291444
0.000251446
0.000341965
0.00054481
0.000720263
0.000532758
0.000505653
0.000498968
0.000484652
0.000445932
0.000391542
0.00031385
0.000235526
0.000157762
8.41628e-05
2.70364e-05
1.37523e-05
1.37523e-05
0.000217509
0.000305892
0.000251446
0.000492773
0.000751626
0.000622044
0.000475556
0.000519649
0.000553516
0.000544856
0.000477181
0.000410116
0.000319761
0.000221909
0.000140527
7.62304e-05
4.22054e-05
1.93976e-05
1.79649e-05
0.000375098
0.000396477
0.000500489
0.000791265
0.000796443
0.000431587
0.000475556
0.000605133
0.000601603
0.000600347
0.000519553
0.00044778
0.00034394
0.000243455
0.000157506
0.000102346
5.87925e-05
3.9789e-05
1.79649e-05
0.000602095
0.000673877
0.000820567
0.000881608
0.000622407
0.000333191
0.000458637
0.000661416
0.000646182
0.000654557
0.000568403
0.000489236
0.000366256
0.000253451
0.000170792
0.000117473
7.89195e-05
6.03154e-05
2.72081e-05
0.000697613
0.000892042
0.000844716
0.000743301
0.000469858
0.000333191
0.000486119
0.000662273
0.000688614
0.000711112
0.000643315
0.000546759
0.000393624
0.000262946
0.000170204
0.000112881
9.10695e-05
8.71598e-05
5.33051e-05
0.00062532
0.000794606
0.000775523
0.000629363
0.000488377
0.000424001
0.000570339
0.000692065
0.000743155
0.000779557
0.00073835
0.00063175
0.000447338
0.000270117
0.00015016
9.17302e-05
9.99517e-05
0.000114539
8.18009e-05
0.000553886
0.000774793
0.000772356
0.000672796
0.00053348
0.000572198
0.000660812
0.000763467
0.000820239
0.000862686
0.000839449
0.000735935
0.000512032
0.000297031
0.000144299
7.55445e-05
0.000107116
0.000137009
0.000107157
0.00058359
0.000774793
0.000772356
0.000721746
0.000656791
0.000689945
0.00075204
0.000841382
0.000900983
0.000945467
0.000936476
0.000850446
0.00060731
0.000344307
0.000150239
6.1372e-05
0.000107479
0.000156967
0.000129558
0.000627151
0.000816318
0.000798867
0.000776722
0.000735997
0.000762945
0.000818354
0.000904865
0.000972812
0.00102199
0.00102701
0.000963285
0.000730642
0.000415869
0.000163764
5.02681e-05
0.000103712
0.000175556
0.000150536
0.000647308
0.000796892
0.000774066
0.000768385
0.000759841
0.00080077
0.000862412
0.000953044
0.00103089
0.00108687
0.00110478
0.00105974
0.000871924
0.000506512
0.000185988
5.02681e-05
9.96576e-05
0.000184229
0.000172043
0.000625532
0.000745035
0.000723538
0.000717474
0.000723737
0.000787674
0.000872845
0.000982408
0.0010713
0.00113808
0.00116835
0.00114277
0.00100714
0.000619317
0.000236642
5.60407e-05
0.000106567
0.00018557
0.0001899
0.000585442
0.00066992
0.000649073
0.000651344
0.000674682
0.000745316
0.000837571
0.000965293
0.00109125
0.00117546
0.00121756
0.00121069
0.00110981
0.000754125
0.000311293
8.04726e-05
0.000120545
0.000189013
0.000203669
0.000521935
0.000580033
0.000571908
0.00059327
0.000632624
0.000709689
0.000801595
0.000927063
0.00106263
0.00119208
0.00125176
0.00126174
0.00118797
0.000891712
0.000406035
0.000119654
0.000115281
0.000189035
0.000214161
0.00044333
0.000492202
0.000502258
0.000544314
0.000600136
0.000684575
0.000777617
0.000896202
0.0010271
0.00116836
0.00127031
0.00129658
0.0012463
0.00101844
0.000519712
0.000178649
0.00011128
0.000192906
0.000226522
0.000360063
0.000411816
0.000439347
0.000498807
0.000569959
0.000663214
0.000758707
0.00087359
0.000997267
0.00113782
0.00126157
0.00131682
0.00128895
0.00112927
0.000642384
0.000228544
0.000105049
0.000195737
0.000244557
0.00028993
0.000345111
0.000387248
0.000457978
0.000541729
0.00064413
0.000742713
0.000855046
0.000973164
0.00110691
0.00124256
0.00132621
0.00131793
0.00120701
0.000762134
0.000280722
9.19922e-05
0.000198859
0.000267251
0.000236858
0.000302682
0.000353307
0.000427596
0.000516718
0.000627219
0.000729157
0.000840152
0.000954773
0.00107987
0.00121797
0.00132464
0.00133585
0.00125044
0.000877219
0.000334029
7.8583e-05
0.000197612
0.000293198
0.000208699
0.000285025
0.00033835
0.000410042
0.000497598
0.000612659
0.000718
0.000827598
0.000940365
0.00105856
0.00119195
0.00131512
0.0013453
0.00127896
0.000976617
0.000394026
7.8583e-05
0.000204014
0.000321657
0.000192644
0.000285025
0.00033835
0.000404992
0.000486349
0.000601863
0.000709764
0.000818753
0.000929411
0.00104303
0.00116845
0.00130256
0.00134885
0.00129504
0.00105353
0.000467695
8.78172e-05
0.000232106
0.000355116
0.000194262
0.000286261
0.000338848
0.000404992
0.000482314
0.000594567
0.000703916
0.00081298
0.000921306
0.001032
0.00114897
0.00128848
0.00134733
0.00130403
0.00110898
0.00053772
0.000124597
0.000271153
0.000394493
0.000194274
0.000297129
0.0003484
0.000408916
0.000482314
0.00059197
0.000701153
0.000810903
0.000916679
0.00102516
0.00113499
0.00127533
0.00134475
0.00130866
0.00115158
0.000612054
0.000185055
0.000322293
0.000440383
0.000207842
0.000312629
0.00036205
0.000418649
0.000484952
0.00059197
0.000700818
0.000810903
0.000914876
0.00102135
0.00112592
0.00126404
0.00134234
0.00131078
0.00118364
0.000674489
0.000256028
0.000372477
0.000494375
0.000214914
0.000330571
0.00037799
0.000431661
0.000492371
0.00059309
0.000700818
0.000811261
0.000914876
0.00102096
0.00112208
0.00125609
0.00134117
0.00131126
0.00120556
0.000729557
0.000323571
0.000389784
0.000542125
0.000232765
0.000348862
0.000394961
0.000446553
0.000503099
0.000598353
0.000703881
0.000814458
0.000916428
0.00102096
0.00112169
0.00125134
0.00134117
0.00131126
0.00121208
0.000768694
0.000382149
0.000405134
0.000595489
0.000241596
0.000366835
0.000411891
0.000462441
0.000516344
0.000606621
0.000709373
0.000819418
0.000920319
0.00102281
0.00112169
0.00125046
0.0013415
0.0013119
0.00121747
0.000803743
0.000431411
0.000418083
0.000637765
0.000260781
0.000384834
0.000429202
0.000478868
0.000530796
0.000617425
0.000717848
0.000826657
0.000926908
0.00102737
0.0011248
0.00125046
0.00134399
0.0013142
0.00122335
0.00082325
0.000467732
0.000436014
0.000704957
0.000268806
0.000401894
0.000445877
0.000495067
0.000545516
0.000629722
0.000728186
0.000835115
0.000934984
0.00103333
0.00112979
0.00125214
0.00134807
0.00131827
0.00123042
0.000850754
0.00049624
0.000460139
0.000760458
0.000288951
0.000419733
0.000463386
0.000512224
0.000561328
0.000643242
0.000740228
0.000845098
0.000944787
0.00104105
0.00113691
0.00125669
0.00135404
0.00132425
0.00123912
0.000861461
0.000510562
0.000496312
0.000854681
0.000294258
0.000435724
0.000478999
0.000527711
0.000575941
0.000656254
0.000752321
0.000855122
0.000954662
0.00104896
0.0011444
0.00126214
0.00136037
0.00133088
0.0012474
0.000884347
0.000523645
0.000531312
0.000908487
0.000317229
0.000453978
0.000497085
0.000545524
0.000593176
0.000671418
0.000766334
0.000866854
0.000966136
0.0010582
0.00115339
0.00126913
0.00136798
0.00133837
0.0012573
0.000895576
0.000537967
0.000573404
0.00103392
)
;

boundaryField
{
    leftWall
    {
        type            calculated;
        value           uniform 0;
    }
    rightWall
    {
        type            calculated;
        value           uniform 0;
    }
    lowerWall
    {
        type            calculated;
        value           uniform 0;
    }
    atmosphere
    {
        type            calculated;
        value           uniform 0;
    }
    defaultFaces
    {
        type            empty;
    }
}


// ************************************************************************* //
