/*--------------------------------*- C++ -*----------------------------------*\
| =========                 |                                                 |
| \\      /  F ield         | OpenFOAM: The Open Source CFD Toolbox           |
|  \\    /   O peration     | Version:  2012                                  |
|   \\  /    A nd           | Website:  www.openfoam.com                      |
|    \\/     M anipulation  |                                                 |
\*---------------------------------------------------------------------------*/
FoamFile
{
    version     2.0;
    format      ascii;
    class       volScalarField;
    location    "0.97";
    object      p;
}
// * * * * * * * * * * * * * * * * * * * * * * * * * * * * * * * * * * * * * //

dimensions      [1 -1 -2 0 0 0 0];


internalField   nonuniform List<scalar> 
2268
(
102286
102283
102278
102269
102261
102249
102238
102222
102206
102184
102161
102133
102104
102074
102047
102022
102008
101994
101997
101991
102003
102006
102015
102228
102225
102220
102211
102203
102191
102179
102164
102148
102127
102103
102075
102045
102015
101987
101963
101947
101933
101935
101931
101943
101946
101956
102171
102167
102162
102152
102144
102132
102121
102106
102090
102069
102044
102016
101985
101954
101925
101901
101885
101872
101877
101872
101884
101889
101899
102114
102111
102105
102095
102086
102075
102063
102050
102034
102014
101988
101960
101927
101895
101863
101839
101820
101808
101810
101807
101822
101829
101840
102057
102053
102047
102037
102028
102016
102005
101992
101976
101957
101929
101901
101864
101833
101797
101773
101754
101744
101754
101748
101763
101771
101787
102003
101999
101991
101981
101971
101960
101948
101939
101923
101905
101877
101848
101808
101773
101732
101709
101685
101675
101678
101679
101698
101711
101729
101947
101942
101934
101922
101912
101901
101889
101881
101865
101850
101817
101788
101742
101710
101663
101638
101611
101609
101630
101618
101635
101651
101676
101895
101889
101879
101867
101855
101844
101833
101830
101816
101801
101770
101739
101690
101649
101594
101574
101541
101537
101545
101548
101570
101594
101625
102243
101635
101632
101613
101746
101855
102026
102037
101908
101896
101820
101880
101857
101717
101679
101680
101694
101821
101894
101965
101547
101597
101585
101698
101781
101931
101950
101833
101825
101756
101814
101789
101649
101619
101626
101640
101759
101819
101749
101510
101591
101560
101664
101726
101842
101866
101753
101756
101691
101733
101683
101587
101588
101600
101607
101695
101754
101704
101530
101578
101562
101616
101662
101759
101780
101669
101674
101601
101634
101605
101538
101541
101577
101601
101665
101700
101721
101543
101576
101561
101574
101610
101683
101707
101585
101616
101578
101559
101520
101530
101552
101577
101593
101616
101640
101693
101571
101581
101560
101575
101570
101628
101628
101538
101596
101539
101555
101501
101462
101522
101547
101575
101574
101584
101694
101584
101585
101562
101565
101558
101588
101603
101527
101596
101556
101524
101477
101469
101506
101535
101542
101527
101520
101657
101600
101587
101559
101567
101548
101559
101560
101523
101567
101513
101502
101469
101414
101484
101495
101498
101474
101467
101811
101803
101791
101775
101762
101750
101737
101740
101726
101718
101673
101642
101575
101546
101484
101465
101435
101479
101549
101507
101501
101505
101547
101707
101696
101677
101656
101636
101625
101615
101634
101634
101628
101599
101567
101504
101442
101380
101419
101418
101423
101440
101460
101454
101447
101473
101605
101587
101554
101522
101497
101483
101474
101516
101520
101549
101483
101463
101389
101402
101375
101402
101399
101425
101416
101357
101383
101353
101387
101521
101488
101447
101404
101381
101380
101375
101425
101459
101487
101491
101503
101440
101396
101361
101399
101381
101381
101316
101222
101149
101240
101299
101459
101423
101365
101354
101352
101352
101343
101375
101420
101500
101450
101441
101383
101377
101357
101380
101369
101343
101267
101129
101070
101134
101211
101440
101396
101357
101346
101337
101327
101322
101333
101353
101388
101414
101392
101369
101336
101349
101341
101351
101320
101273
101186
101163
101200
101257
101416
101380
101348
101331
101326
101323
101326
101326
101330
101332
101336
101338
101331
101318
101340
101321
101338
101330
101280
101264
101261
101265
101315
101380
101346
101330
101328
101327
101326
101325
101328
101326
101326
101326
101325
101327
101323
101331
101319
101327
101330
101332
101293
101340
101330
101343
101367
101331
101327
101328
101326
101326
101325
101326
101326
101325
101326
101325
101326
101323
101331
101321
101325
101323
101324
101326
101338
101370
101323
101344
101327
101327
101326
101326
101325
101325
101324
101324
101324
101325
101325
101326
101324
101327
101323
101325
101324
101325
101324
101328
101345
101322
101339
101327
101326
101326
101325
101325
101324
101324
101324
101324
101325
101324
101325
101324
101326
101324
101325
101324
101324
101324
101324
101329
101323
101344
101325
101325
101325
101325
101324
101324
101324
101324
101324
101325
101324
101325
101324
101325
101324
101325
101324
101324
101324
101324
101324
101330
101324
101322
101324
101324
101324
101324
101324
101324
101324
101324
101324
101324
101325
101324
101325
101324
101324
101324
101324
101324
101324
101324
101324
101325
101322
101324
101323
101324
101324
101324
101324
101324
101324
101324
101324
101324
101324
101324
101324
101324
101324
101324
101323
101323
101323
101323
101323
101322
101324
101323
101324
101323
101324
101323
101324
101323
101324
101324
101324
101324
101324
101323
101324
101323
101323
101323
101323
101323
101323
101323
101323
101324
101323
101324
101323
101324
101323
101324
101323
101324
101323
101324
101323
101324
101323
101323
101323
101323
101323
101323
101323
101323
101327
101323
101325
101323
101324
101323
101324
101323
101324
101323
101324
101323
101323
101323
101323
101323
101323
101323
101323
101323
101323
101323
101323
101324
101323
101324
101323
101324
101323
101324
101323
101323
101323
101323
101323
101323
101323
101323
101323
101323
101323
101323
101323
101323
101323
101323
101324
101323
101324
101323
101324
101323
101324
101323
101323
101323
101323
101323
101323
101323
101323
101323
101323
101323
101323
101323
101322
101322
101322
101325
101322
101324
101323
101324
101322
101323
101322
101323
101322
101323
101322
101323
101322
101323
101322
101322
101322
101322
101322
101322
101322
101322
101323
101322
101324
101322
101323
101322
101323
101322
101323
101322
101323
101322
101322
101322
101322
101322
101322
101322
101322
101322
101322
101322
101322
101322
101322
101323
101322
101323
101322
101323
101322
101322
101322
101322
101322
101322
101322
101322
101322
101322
101322
101322
101322
101322
101322
101322
101322
101322
101323
101322
101323
101322
101322
101322
101322
101322
101322
101322
101322
101322
101322
101322
101322
101322
101322
101322
101322
101322
101321
101322
101322
101322
101321
101322
101321
101322
101321
101322
101321
101322
101321
101322
101321
101322
101321
101321
101321
101321
101321
101321
101321
101321
101322
101321
101321
101321
101321
101321
101321
101321
101321
101321
101321
101321
101321
101321
101321
101321
101321
101321
101321
101321
101321
101321
101321
101321
101320
101320
101320
101320
101320
101321
101321
101321
101321
101321
101321
101321
101321
101321
101321
101321
101321
101321
101321
101321
101321
101321
101320
101319
101319
101319
101319
101320
101320
101320
101320
101320
101321
101321
101321
101321
101321
101321
101321
101321
101321
101321
101321
101321
101320
101319
101318
101318
101318
101318
101319
101320
101320
101320
101320
101320
101320
101321
101320
101321
101321
101321
101320
101320
101320
101320
101320
101320
101318
101318
101317
101317
101317
101318
101319
101320
101320
101320
101320
101320
101320
101320
101320
101320
101320
101320
101320
101320
101320
101320
101320
101318
101318
101317
101317
101317
101318
101319
101319
101320
101320
101320
101320
101320
101320
101320
101320
101320
101320
101320
101320
101320
101320
101320
101318
101318
101318
101318
101318
101319
101319
101319
101320
101320
101320
101320
101320
101320
101320
101320
101320
101320
101320
101320
101320
101320
101320
101319
101319
101318
101318
101318
101319
101319
101319
101320
101320
101320
101320
101320
101320
101320
101320
101320
101320
101320
101320
101320
101320
101319
101319
101319
101319
101319
101319
101319
101319
101319
101319
101319
101320
101320
101319
101319
101319
101319
101319
101319
101319
101319
101319
101319
101319
101319
101319
101319
101319
101319
101319
101319
101319
101319
101319
101319
101319
101319
101319
101319
101319
101319
101319
101319
101319
101319
101319
101319
101319
101319
101319
101319
101319
101319
101319
101319
101319
101319
101319
101319
101319
101319
101319
101319
101319
101319
101319
101319
101319
101319
101319
101319
101319
101319
101319
101319
101319
101319
101319
101319
101319
101319
101319
101319
101319
101319
101319
101319
101319
101319
101319
101319
101319
101319
101319
101319
101319
101319
101319
101319
101319
101319
101319
101319
101319
101319
101319
101319
101319
101319
101319
101319
101319
101319
101319
101319
101319
101319
101319
101319
101319
101319
101319
101319
101319
101319
101319
101319
101319
101319
101319
101318
101318
101318
101318
101318
101318
101318
101318
101318
101319
101319
101319
101319
101319
101319
101319
101319
101318
101318
101318
101318
101318
101318
101318
101318
101318
101318
101318
101318
101318
101318
101318
101318
101318
101318
101318
101318
101318
101318
101318
101318
101318
101318
101318
101318
101318
101318
101318
101318
101318
101318
101318
101318
101318
101318
101318
101318
101318
101318
101318
101318
101318
101318
101318
101318
101318
101318
101318
101318
101318
101318
101318
101318
101318
101318
101318
101318
101318
101318
101318
101318
101318
101318
101318
101318
101318
101318
101318
101318
101318
101318
101318
101318
101318
101318
101318
101318
101318
101318
101318
101318
101562
101579
101592
101579
101502
101504
101520
101526
101424
101419
101435
101440
101332
101351
101376
101383
101276
101296
101321
101330
101288
101308
101316
101325
101312
101324
101323
101322
101323
101321
101321
101321
101318
101318
101318
101319
101321
101321
101322
101322
101315
101317
101317
101317
101329
101328
101327
101327
101324
101324
101324
101324
101323
101323
101323
101323
101323
101323
101323
101323
101323
101323
101323
101323
101323
101323
101323
101323
101323
101323
101323
101323
101322
101322
101322
101322
101322
101322
101322
101322
101322
101322
101322
101322
101322
101322
101322
101322
101321
101321
101321
101321
101321
101321
101321
101321
101321
101321
101321
101321
101321
101321
101321
101321
101320
101320
101320
101320
101320
101320
101320
101320
101320
101320
101320
101320
101320
101320
101320
101320
101320
101320
101320
101320
101319
101319
101319
101319
101319
101319
101319
101319
101319
101319
101319
101319
101319
101319
101319
101319
101319
101319
101319
101319
101319
101319
101319
101319
101318
101318
101318
101318
101318
101318
101318
101318
101318
101318
101318
101318
101318
101318
101318
101318
101318
101318
101318
101318
101629
101586
101576
101550
101558
101547
101554
101536
101500
101507
101460
101458
101413
101458
101436
101446
101422
101397
101390
101565
101567
101558
101538
101561
101538
101503
101435
101439
101406
101405
101382
101365
101366
101366
101360
101345
101338
101338
101535
101509
101508
101475
101513
101479
101435
101433
101429
101387
101336
101332
101331
101332
101331
101330
101330
101330
101330
101433
101404
101417
101391
101405
101405
101393
101392
101398
101357
101341
101331
101332
101331
101331
101330
101330
101330
101330
101345
101341
101338
101335
101347
101342
101350
101368
101379
101353
101348
101335
101332
101331
101330
101330
101329
101329
101329
101327
101323
101325
101325
101328
101328
101328
101329
101331
101327
101327
101327
101330
101329
101329
101329
101329
101329
101329
101321
101322
101320
101323
101329
101327
101327
101326
101327
101326
101327
101326
101327
101327
101327
101327
101327
101328
101328
101319
101322
101319
101322
101327
101326
101327
101326
101326
101326
101326
101326
101326
101325
101325
101325
101327
101327
101327
101318
101318
101314
101319
101327
101326
101326
101326
101326
101326
101326
101326
101325
101325
101325
101325
101326
101326
101327
101325
101327
101329
101328
101324
101326
101326
101326
101326
101326
101326
101325
101326
101325
101325
101326
101326
101326
101326
101321
101322
101324
101325
101324
101324
101325
101325
101325
101325
101325
101325
101325
101325
101325
101326
101326
101326
101326
101325
101324
101324
101324
101324
101324
101325
101325
101325
101325
101325
101325
101325
101325
101325
101325
101326
101326
101326
101324
101324
101324
101324
101324
101324
101325
101325
101325
101325
101325
101325
101325
101325
101325
101325
101325
101325
101325
101323
101323
101323
101323
101324
101324
101324
101324
101324
101325
101325
101325
101325
101325
101325
101325
101325
101325
101325
101323
101322
101322
101323
101323
101324
101324
101324
101324
101324
101324
101324
101324
101324
101324
101325
101325
101325
101325
101323
101322
101323
101323
101323
101324
101324
101324
101324
101324
101324
101324
101324
101324
101324
101324
101324
101324
101324
101323
101323
101323
101323
101323
101323
101324
101324
101324
101324
101324
101324
101324
101324
101324
101324
101324
101324
101324
101322
101323
101323
101323
101323
101323
101323
101323
101324
101324
101324
101324
101324
101324
101324
101324
101324
101324
101324
101322
101322
101323
101323
101323
101323
101323
101323
101323
101323
101323
101323
101323
101323
101323
101323
101323
101323
101323
101322
101322
101322
101322
101323
101323
101323
101323
101323
101323
101323
101323
101323
101323
101323
101323
101323
101323
101323
101322
101322
101322
101322
101322
101322
101322
101323
101323
101323
101323
101323
101323
101323
101323
101323
101323
101323
101323
101322
101322
101322
101322
101322
101322
101322
101322
101322
101322
101322
101322
101323
101323
101323
101323
101323
101323
101323
101321
101321
101321
101322
101322
101322
101322
101322
101322
101322
101322
101322
101322
101322
101322
101322
101322
101322
101322
101321
101321
101321
101321
101321
101321
101321
101321
101322
101322
101322
101322
101322
101322
101322
101322
101322
101322
101322
101321
101321
101321
101321
101321
101321
101321
101321
101321
101321
101322
101322
101322
101322
101322
101322
101322
101322
101322
101321
101321
101321
101321
101321
101321
101321
101321
101321
101321
101321
101321
101322
101322
101322
101322
101322
101322
101322
101320
101320
101320
101320
101320
101320
101321
101321
101321
101321
101321
101321
101321
101321
101322
101322
101322
101322
101322
101320
101320
101320
101320
101320
101320
101320
101320
101320
101321
101321
101321
101321
101321
101321
101321
101321
101321
101321
101320
101320
101320
101320
101320
101320
101320
101320
101320
101320
101321
101321
101321
101321
101321
101321
101321
101321
101321
101320
101320
101320
101320
101320
101320
101320
101320
101320
101320
101320
101320
101321
101321
101321
101321
101321
101321
101321
101320
101320
101320
101320
101320
101320
101320
101320
101320
101320
101320
101320
101320
101321
101321
101321
101321
101321
101321
101319
101319
101319
101319
101319
101319
101319
101320
101320
101320
101320
101320
101320
101320
101320
101321
101321
101321
101321
101319
101319
101319
101319
101319
101319
101319
101319
101319
101320
101320
101320
101320
101320
101320
101320
101320
101320
101320
101319
101319
101319
101319
101319
101319
101319
101319
101319
101319
101319
101320
101320
101320
101320
101320
101320
101320
101320
101319
101319
101319
101319
101319
101319
101319
101319
101319
101319
101319
101319
101319
101320
101320
101320
101320
101320
101320
101319
101319
101319
101319
101319
101319
101319
101319
101319
101319
101319
101319
101319
101319
101320
101320
101320
101320
101320
101319
101319
101319
101319
101319
101319
101319
101319
101319
101319
101319
101319
101319
101319
101319
101319
101319
101319
101319
101318
101318
101318
101318
101318
101318
101318
101318
101318
101319
101319
101319
101319
101319
101319
101319
101319
101319
101319
101318
101318
101318
101318
101318
101318
101318
101318
101318
101318
101318
101318
101319
101319
101319
101319
101319
101319
101319
101318
101318
101318
101318
101318
101318
101318
101318
101318
101318
101318
101318
101318
101318
101318
101318
101319
101319
101319
101318
101318
101318
101318
101318
101318
101318
101318
101318
101318
101318
101318
101318
101318
101318
101318
101318
101318
101318
101318
101318
101318
101318
101318
101318
101318
101318
101318
101318
101318
101318
101318
101318
101318
101318
101318
101318
101318
)
;

boundaryField
{
    leftWall
    {
        type            zeroGradient;
    }
    rightWall
    {
        type            zeroGradient;
    }
    lowerWall
    {
        type            zeroGradient;
    }
    atmosphere
    {
        type            fixedValue;
        value           uniform 101325;
    }
    defaultFaces
    {
        type            empty;
    }
}


// ************************************************************************* //
