/*--------------------------------*- C++ -*----------------------------------*\
| =========                 |                                                 |
| \\      /  F ield         | OpenFOAM: The Open Source CFD Toolbox           |
|  \\    /   O peration     | Version:  2012                                  |
|   \\  /    A nd           | Website:  www.openfoam.com                      |
|    \\/     M anipulation  |                                                 |
\*---------------------------------------------------------------------------*/
FoamFile
{
    version     2.0;
    format      ascii;
    class       volScalarField;
    location    "0.97";
    object      rho2;
}
// * * * * * * * * * * * * * * * * * * * * * * * * * * * * * * * * * * * * * //

dimensions      [1 -3 0 0 0 0 0];


internalField   nonuniform List<scalar> 
2268
(
1.30549
1.30545
1.30538
1.30527
1.30517
1.30501
1.30487
1.30467
1.30446
1.30419
1.30388
1.30353
1.30316
1.30277
1.30243
1.30212
1.30193
1.30175
1.30179
1.30172
1.30187
1.30191
1.30202
1.30475
1.3047
1.30464
1.30453
1.30442
1.30426
1.30412
1.30393
1.30372
1.30345
1.30315
1.30279
1.30241
1.30202
1.30166
1.30136
1.30116
1.30098
1.30101
1.30095
1.3011
1.30115
1.30127
1.30401
1.30396
1.3039
1.30378
1.30367
1.30352
1.30337
1.30318
1.30298
1.30271
1.30239
1.30203
1.30164
1.30125
1.30088
1.30056
1.30036
1.3002
1.30027
1.30019
1.30036
1.30042
1.30055
1.30329
1.30324
1.30317
1.30305
1.30293
1.30279
1.30264
1.30247
1.30226
1.30201
1.30169
1.30132
1.3009
1.30049
1.30008
1.29978
1.29954
1.29938
1.2994
1.29937
1.29956
1.29964
1.29979
1.30256
1.30251
1.30243
1.3023
1.30219
1.30204
1.3019
1.30174
1.30153
1.30128
1.30093
1.30056
1.3001
1.2997
1.29925
1.29894
1.29869
1.29856
1.29868
1.29859
1.29879
1.29891
1.29911
1.30187
1.30181
1.30172
1.30159
1.30146
1.30132
1.30117
1.30105
1.30085
1.30062
1.30026
1.29989
1.29939
1.29895
1.29843
1.29813
1.29781
1.29766
1.29766
1.29763
1.29792
1.29813
1.29837
1.30116
1.30109
1.301
1.30084
1.30071
1.30057
1.30042
1.30032
1.30012
1.29992
1.2995
1.29913
1.29856
1.29814
1.29754
1.29721
1.29683
1.29673
1.29692
1.2967
1.29702
1.29733
1.2977
1.30049
1.30042
1.3003
1.30014
1.29998
1.29985
1.2997
1.29966
1.29949
1.2993
1.29891
1.29852
1.2979
1.29737
1.29666
1.29636
1.29586
1.29572
1.29573
1.2957
1.29607
1.29655
1.29703
1.30417
1.29645
1.29643
1.29621
1.29792
1.29934
1.30155
1.3017
1.30006
1.2999
1.29889
1.29959
1.2993
1.29755
1.29709
1.29714
1.29735
1.29901
1.29998
1.30062
1.29531
1.29597
1.29582
1.29728
1.29838
1.30036
1.30065
1.29916
1.29905
1.29815
1.2988
1.29843
1.29667
1.29633
1.29641
1.29656
1.29818
1.29907
1.29785
1.29486
1.29592
1.29553
1.29688
1.29771
1.29924
1.2996
1.29816
1.29816
1.29728
1.29779
1.2971
1.29587
1.29587
1.29597
1.29605
1.29728
1.29823
1.29725
1.29509
1.29581
1.29562
1.29631
1.29695
1.29823
1.29851
1.29707
1.29708
1.29611
1.29651
1.29613
1.29526
1.29528
1.29571
1.29598
1.29689
1.29753
1.29744
1.29522
1.29576
1.29565
1.29578
1.2963
1.29729
1.29758
1.29596
1.29633
1.29582
1.29556
1.29504
1.29516
1.29543
1.29574
1.29592
1.29633
1.29682
1.29704
1.29552
1.29578
1.29561
1.2958
1.29578
1.2966
1.29656
1.29535
1.29608
1.29538
1.29558
1.29484
1.29432
1.29507
1.29536
1.29571
1.29587
1.29612
1.29703
1.29568
1.29581
1.29556
1.29564
1.29559
1.29609
1.29623
1.29522
1.29611
1.29562
1.29521
1.29459
1.29444
1.29487
1.29521
1.29532
1.29535
1.29531
1.29655
1.29587
1.2958
1.29549
1.29564
1.29543
1.29571
1.29567
1.29516
1.29573
1.29505
1.29489
1.29447
1.29372
1.29459
1.2947
1.29497
1.29473
1.29458
1.29943
1.29933
1.29918
1.29897
1.29881
1.29865
1.2985
1.29854
1.29836
1.29827
1.29768
1.29729
1.29642
1.29603
1.29519
1.29487
1.2944
1.29488
1.29567
1.29508
1.29503
1.29522
1.29596
1.29813
1.298
1.29775
1.29747
1.29723
1.29709
1.29698
1.29721
1.29721
1.29712
1.29674
1.29629
1.29542
1.29455
1.29369
1.2941
1.29395
1.29394
1.29416
1.29438
1.29438
1.29429
1.29487
1.29685
1.29661
1.2962
1.29579
1.29546
1.29527
1.29512
1.29564
1.2957
1.29605
1.29514
1.29476
1.29369
1.29383
1.29356
1.29381
1.2937
1.294
1.29391
1.29315
1.29348
1.29308
1.29365
1.29578
1.29533
1.29477
1.29415
1.29382
1.29378
1.2937
1.29435
1.29482
1.29516
1.29509
1.29511
1.29423
1.2937
1.29331
1.29374
1.29339
1.29341
1.29259
1.29139
1.29047
1.29167
1.29245
1.29496
1.29439
1.29359
1.29344
1.29339
1.29339
1.29326
1.29368
1.29422
1.29512
1.29444
1.29439
1.29369
1.29357
1.29332
1.29344
1.2932
1.29293
1.29196
1.29016
1.28942
1.29025
1.29115
1.29466
1.29398
1.29344
1.2933
1.29321
1.29309
1.29301
1.29307
1.29325
1.29369
1.29418
1.29398
1.29368
1.29317
1.29318
1.29291
1.29304
1.29266
1.29204
1.29085
1.29052
1.29097
1.29162
1.29433
1.29375
1.29335
1.29317
1.29311
1.29299
1.29297
1.29294
1.29298
1.29315
1.29333
1.29338
1.29328
1.29298
1.29303
1.29273
1.29303
1.29293
1.29221
1.29184
1.29174
1.29176
1.29238
1.29386
1.29332
1.29314
1.29312
1.29302
1.29297
1.29294
1.29297
1.29302
1.29319
1.29326
1.29324
1.29323
1.29302
1.29299
1.29289
1.29313
1.29318
1.29311
1.29234
1.29277
1.29261
1.29282
1.29369
1.29315
1.2931
1.29312
1.29302
1.29298
1.29295
1.29298
1.29311
1.2932
1.29322
1.29321
1.29321
1.29311
1.29311
1.29305
1.29321
1.29319
1.29317
1.29303
1.29288
1.29316
1.29257
1.2934
1.2931
1.29312
1.29313
1.29307
1.293
1.29298
1.293
1.29312
1.29319
1.29321
1.29321
1.29322
1.2932
1.2932
1.29317
1.29322
1.2932
1.2932
1.29315
1.29302
1.29296
1.29256
1.29331
1.29306
1.29311
1.29315
1.29315
1.2931
1.29308
1.29306
1.29311
1.29317
1.2932
1.2932
1.29322
1.2932
1.29322
1.2932
1.29321
1.2932
1.29319
1.29316
1.29309
1.29297
1.29267
1.29333
1.29298
1.2931
1.29315
1.29319
1.29318
1.29319
1.29316
1.29318
1.29319
1.29321
1.2932
1.29321
1.2932
1.29321
1.2932
1.29321
1.2932
1.29319
1.29316
1.2931
1.29299
1.29289
1.29306
1.29295
1.29308
1.29313
1.29319
1.29321
1.29321
1.2932
1.29321
1.2932
1.29321
1.2932
1.29321
1.2932
1.29321
1.2932
1.2932
1.2932
1.29319
1.29316
1.29313
1.2931
1.29303
1.29311
1.29298
1.29308
1.29311
1.2932
1.29321
1.29322
1.29321
1.29321
1.29321
1.29321
1.2932
1.2932
1.2932
1.2932
1.2932
1.2932
1.2932
1.29319
1.29316
1.29314
1.29312
1.2931
1.29314
1.293
1.29309
1.29311
1.29321
1.29321
1.29321
1.2932
1.29321
1.2932
1.2932
1.2932
1.2932
1.2932
1.2932
1.2932
1.2932
1.29319
1.29319
1.29317
1.29315
1.29314
1.29313
1.2931
1.29301
1.29309
1.29313
1.29321
1.29321
1.29321
1.2932
1.2932
1.2932
1.2932
1.29319
1.2932
1.2932
1.2932
1.2932
1.2932
1.29319
1.29319
1.29318
1.29316
1.29314
1.29314
1.2931
1.29301
1.29312
1.29315
1.29322
1.2932
1.2932
1.29319
1.2932
1.29319
1.2932
1.29319
1.2932
1.29319
1.29319
1.29319
1.29319
1.29319
1.29319
1.29318
1.29317
1.29315
1.29314
1.29301
1.29301
1.29313
1.29317
1.29321
1.2932
1.2932
1.29319
1.2932
1.29319
1.29319
1.29319
1.29319
1.29319
1.29319
1.29319
1.29319
1.29319
1.29319
1.29318
1.29318
1.29317
1.29316
1.29294
1.29301
1.29314
1.29318
1.29321
1.29319
1.2932
1.29319
1.29319
1.29319
1.29319
1.29319
1.29319
1.29319
1.29319
1.29319
1.29318
1.29318
1.29318
1.29318
1.29318
1.29318
1.29318
1.29285
1.293
1.29314
1.29318
1.2932
1.29318
1.29319
1.29318
1.29319
1.29318
1.29319
1.29318
1.29319
1.29318
1.29319
1.29318
1.29318
1.29317
1.29316
1.29316
1.29315
1.29315
1.29315
1.29282
1.293
1.29315
1.29318
1.2932
1.29318
1.29319
1.29318
1.29319
1.29318
1.29319
1.29318
1.29318
1.29318
1.29318
1.29317
1.29316
1.29314
1.29313
1.29313
1.29312
1.29311
1.29309
1.29287
1.29303
1.29316
1.29318
1.29319
1.29318
1.29319
1.29318
1.29318
1.29318
1.29318
1.29318
1.29318
1.29318
1.29317
1.29316
1.29314
1.29312
1.29311
1.29309
1.29307
1.29305
1.29302
1.29293
1.29307
1.29316
1.29317
1.29317
1.29317
1.29318
1.29317
1.29318
1.29318
1.29318
1.29318
1.29318
1.29317
1.29315
1.29313
1.29312
1.2931
1.29308
1.29306
1.29303
1.293
1.29297
1.29296
1.29309
1.29316
1.29315
1.29316
1.29317
1.29318
1.29317
1.29317
1.29317
1.29317
1.29317
1.29317
1.29315
1.29313
1.29311
1.29309
1.29307
1.29305
1.29302
1.293
1.29297
1.29295
1.29298
1.29311
1.29314
1.29313
1.29314
1.29316
1.29317
1.29317
1.29317
1.29317
1.29317
1.29316
1.29316
1.29314
1.29311
1.29309
1.29307
1.29305
1.29302
1.293
1.29298
1.29296
1.29295
1.293
1.29311
1.29312
1.29311
1.29312
1.29315
1.29316
1.29316
1.29317
1.29316
1.29316
1.29316
1.29314
1.29312
1.2931
1.29307
1.29305
1.29302
1.293
1.29299
1.29297
1.29296
1.29295
1.293
1.2931
1.2931
1.29308
1.29309
1.29313
1.29315
1.29316
1.29316
1.29316
1.29316
1.29315
1.29313
1.2931
1.29308
1.29305
1.29303
1.29301
1.29299
1.29298
1.29297
1.29296
1.29295
1.29299
1.29308
1.29308
1.29306
1.29306
1.29311
1.29315
1.29316
1.29316
1.29316
1.29315
1.29314
1.29311
1.29309
1.29306
1.29304
1.29302
1.293
1.29299
1.29298
1.29297
1.29296
1.29296
1.29298
1.29307
1.29308
1.29305
1.29305
1.29309
1.29314
1.29315
1.29315
1.29315
1.29314
1.29312
1.2931
1.29307
1.29305
1.29303
1.29301
1.293
1.29299
1.29298
1.29297
1.29297
1.29297
1.29296
1.29306
1.29308
1.29306
1.29304
1.29308
1.29313
1.29315
1.29315
1.29315
1.29314
1.29311
1.29309
1.29306
1.29304
1.29302
1.29301
1.293
1.29299
1.29299
1.29298
1.29298
1.29299
1.29296
1.29304
1.29307
1.29306
1.29305
1.29308
1.29313
1.29315
1.29315
1.29314
1.29313
1.2931
1.29307
1.29305
1.29303
1.29302
1.29301
1.293
1.293
1.293
1.293
1.29301
1.29301
1.29296
1.29301
1.29306
1.29305
1.29304
1.29308
1.29314
1.29315
1.29315
1.29314
1.29312
1.29309
1.29306
1.29304
1.29303
1.29302
1.29301
1.29301
1.29302
1.29302
1.29302
1.29303
1.29303
1.29296
1.29299
1.29304
1.29304
1.29305
1.2931
1.29314
1.29315
1.29314
1.29313
1.2931
1.29308
1.29305
1.29304
1.29303
1.29302
1.29302
1.29303
1.29303
1.29304
1.29304
1.29305
1.29305
1.29296
1.29299
1.29302
1.29303
1.29306
1.29312
1.29314
1.29315
1.29314
1.29312
1.29309
1.29307
1.29304
1.29303
1.29303
1.29303
1.29303
1.29304
1.29305
1.29305
1.29306
1.29306
1.29307
1.29297
1.29299
1.29301
1.29304
1.29309
1.29313
1.29314
1.29314
1.29313
1.29311
1.29308
1.29306
1.29304
1.29303
1.29303
1.29303
1.29304
1.29305
1.29306
1.29307
1.29307
1.29308
1.29308
1.29299
1.293
1.29303
1.29307
1.29312
1.29314
1.29314
1.29314
1.29312
1.2931
1.29307
1.29305
1.29304
1.29303
1.29303
1.29304
1.29305
1.29306
1.29307
1.29308
1.29308
1.29309
1.29309
1.29303
1.29304
1.29306
1.29311
1.29313
1.29314
1.29314
1.29313
1.29311
1.29308
1.29306
1.29304
1.29303
1.29303
1.29304
1.29305
1.29306
1.29307
1.29308
1.29309
1.29309
1.2931
1.2931
1.29308
1.29309
1.29311
1.29313
1.29314
1.29314
1.29313
1.29312
1.2931
1.29307
1.29305
1.29304
1.29303
1.29304
1.29305
1.29306
1.29307
1.29308
1.29309
1.2931
1.2931
1.2931
1.29311
1.29312
1.29312
1.29313
1.29313
1.29313
1.29313
1.29312
1.29311
1.29308
1.29306
1.29304
1.29304
1.29303
1.29304
1.29305
1.29307
1.29308
1.29309
1.2931
1.2931
1.29311
1.29311
1.29311
1.29313
1.29313
1.29313
1.29313
1.29313
1.29312
1.29311
1.29309
1.29307
1.29305
1.29304
1.29304
1.29304
1.29305
1.29306
1.29308
1.29309
1.2931
1.2931
1.29311
1.29311
1.29311
1.29311
1.29313
1.29313
1.29312
1.29312
1.29312
1.29311
1.2931
1.29308
1.29306
1.29304
1.29304
1.29303
1.29304
1.29305
1.29307
1.29308
1.29309
1.2931
1.29311
1.29311
1.29311
1.29311
1.29311
1.29312
1.29312
1.29312
1.29312
1.29311
1.2931
1.29308
1.29306
1.29305
1.29304
1.29303
1.29304
1.29305
1.29307
1.29308
1.29309
1.2931
1.2931
1.2931
1.2931
1.2931
1.29311
1.2931
1.29613
1.29633
1.29645
1.2958
1.29531
1.29529
1.29517
1.29495
1.29415
1.29376
1.2938
1.29382
1.29265
1.29274
1.29302
1.29311
1.2918
1.29202
1.29234
1.29254
1.29197
1.29224
1.29245
1.29268
1.29238
1.29263
1.2927
1.29273
1.29267
1.29268
1.2927
1.29271
1.2926
1.29264
1.29265
1.29265
1.29257
1.29258
1.2926
1.2926
1.29249
1.29252
1.29252
1.29252
1.2928
1.29278
1.29278
1.29278
1.293
1.293
1.293
1.29296
1.29309
1.29309
1.29308
1.29307
1.29313
1.29314
1.29313
1.29313
1.29314
1.29314
1.29313
1.29313
1.29313
1.29313
1.29313
1.29313
1.29314
1.29314
1.29314
1.29313
1.29317
1.29317
1.29317
1.29316
1.29314
1.29313
1.29311
1.29309
1.29306
1.29303
1.29301
1.29299
1.29299
1.29297
1.29296
1.29295
1.29295
1.29294
1.29294
1.29293
1.29294
1.29294
1.29293
1.29293
1.29294
1.29294
1.29294
1.29294
1.29294
1.29294
1.29294
1.29295
1.29295
1.29295
1.29295
1.29296
1.29296
1.29296
1.29296
1.29297
1.29297
1.29298
1.29298
1.29298
1.29299
1.29299
1.293
1.293
1.29301
1.29302
1.29302
1.29302
1.29304
1.29304
1.29304
1.29304
1.29306
1.29306
1.29306
1.29306
1.29307
1.29307
1.29307
1.29307
1.29308
1.29308
1.29309
1.29309
1.29309
1.29309
1.29309
1.29309
1.2931
1.2931
1.2931
1.2931
1.29311
1.2931
1.2931
1.2931
1.29311
1.29311
1.29311
1.2931
1.29311
1.29311
1.2931
1.2931
1.29311
1.2931
1.2931
1.2931
1.2931
1.2931
1.2931
1.2931
1.29618
1.29571
1.2957
1.2954
1.29553
1.2954
1.29566
1.29537
1.29484
1.29492
1.29432
1.29431
1.29375
1.29433
1.29404
1.29419
1.294
1.29378
1.29377
1.29536
1.29555
1.29554
1.2953
1.2956
1.2954
1.29507
1.29407
1.29399
1.29354
1.29361
1.29336
1.29317
1.29317
1.29316
1.2932
1.2932
1.29324
1.29331
1.29505
1.29497
1.29505
1.29464
1.29514
1.29479
1.29425
1.29419
1.29396
1.29351
1.29297
1.29294
1.29296
1.29299
1.293
1.2931
1.2932
1.29324
1.29328
1.29387
1.29373
1.29396
1.29365
1.29384
1.29385
1.2937
1.29376
1.29378
1.29332
1.29313
1.29296
1.29296
1.29297
1.29304
1.29314
1.29326
1.29331
1.29331
1.29292
1.29308
1.2931
1.29305
1.29323
1.29325
1.29328
1.2934
1.29354
1.29327
1.29321
1.29301
1.29292
1.2929
1.29292
1.29307
1.29325
1.29328
1.29327
1.29282
1.29282
1.29276
1.29273
1.2929
1.29315
1.29316
1.29315
1.29317
1.29314
1.29311
1.29307
1.29305
1.29295
1.29293
1.29308
1.29324
1.29325
1.29325
1.29274
1.29273
1.29256
1.29255
1.29281
1.29313
1.29316
1.29316
1.29317
1.29315
1.29311
1.29312
1.29312
1.29308
1.29298
1.293
1.29314
1.2932
1.29324
1.2927
1.29269
1.29256
1.2925
1.29272
1.29313
1.29317
1.29316
1.29316
1.29316
1.29316
1.29315
1.29314
1.2931
1.29305
1.293
1.29312
1.2932
1.29323
1.29265
1.29258
1.29251
1.29249
1.29265
1.29309
1.29316
1.29316
1.29316
1.29316
1.29316
1.29315
1.29314
1.29313
1.29311
1.29308
1.29315
1.29321
1.29323
1.29263
1.29268
1.29268
1.29262
1.2927
1.29302
1.29316
1.29316
1.29316
1.29316
1.29317
1.29317
1.29318
1.29319
1.29319
1.29319
1.2932
1.29322
1.29322
1.29263
1.29272
1.29267
1.29266
1.29305
1.29313
1.29315
1.29314
1.29314
1.29314
1.29316
1.29317
1.29318
1.29319
1.2932
1.29321
1.29321
1.29321
1.29322
1.29288
1.29277
1.29263
1.29281
1.29311
1.29314
1.29312
1.29312
1.29312
1.29313
1.29314
1.29315
1.29317
1.29318
1.29319
1.2932
1.29321
1.29321
1.29321
1.29291
1.29272
1.29266
1.29295
1.29312
1.29312
1.29311
1.29311
1.29312
1.29312
1.29313
1.29314
1.29316
1.29317
1.29318
1.29319
1.2932
1.29321
1.29321
1.29305
1.29298
1.29293
1.29307
1.29312
1.29311
1.29311
1.29311
1.2931
1.29309
1.2931
1.29311
1.29314
1.29316
1.29318
1.29319
1.2932
1.2932
1.29321
1.29312
1.2931
1.29308
1.2931
1.29311
1.29311
1.2931
1.29308
1.29304
1.29301
1.29301
1.29304
1.29308
1.29313
1.29316
1.29318
1.29319
1.2932
1.2932
1.29312
1.29311
1.2931
1.29311
1.29311
1.29311
1.29309
1.293
1.29296
1.29294
1.29294
1.29296
1.29301
1.29307
1.29313
1.29316
1.29318
1.29319
1.2932
1.29313
1.29312
1.29311
1.29311
1.29311
1.2931
1.29301
1.29293
1.2929
1.29289
1.29289
1.29291
1.29296
1.29302
1.29308
1.29313
1.29317
1.29319
1.2932
1.29313
1.29313
1.29312
1.29311
1.29308
1.29299
1.29292
1.29289
1.29287
1.29286
1.29286
1.29287
1.29291
1.29298
1.29304
1.29311
1.29316
1.29318
1.29319
1.29315
1.29312
1.29308
1.29302
1.29296
1.29291
1.29289
1.29287
1.29285
1.29284
1.29284
1.29284
1.29287
1.29295
1.29302
1.29309
1.29314
1.29318
1.29319
1.29305
1.293
1.29295
1.29292
1.29291
1.29289
1.29288
1.29286
1.29285
1.29283
1.29282
1.29282
1.29284
1.29291
1.29299
1.29307
1.29313
1.29317
1.29318
1.29296
1.29294
1.29292
1.29291
1.2929
1.29289
1.29288
1.29287
1.29285
1.29283
1.29281
1.29281
1.29281
1.29287
1.29297
1.29305
1.29312
1.29316
1.29318
1.29293
1.29292
1.29291
1.2929
1.2929
1.2929
1.2929
1.29288
1.29286
1.29283
1.29281
1.2928
1.29279
1.29283
1.29294
1.29304
1.29311
1.29316
1.29318
1.29292
1.29292
1.29291
1.29292
1.29292
1.29292
1.29292
1.29291
1.29288
1.29285
1.29281
1.29279
1.29278
1.2928
1.29289
1.29302
1.2931
1.29315
1.29317
1.29293
1.29293
1.29293
1.29294
1.29294
1.29294
1.29294
1.29293
1.29291
1.29288
1.29283
1.29279
1.29277
1.29277
1.29285
1.29299
1.2931
1.29315
1.29317
1.29294
1.29294
1.29295
1.29296
1.29296
1.29296
1.29295
1.29295
1.29293
1.2929
1.29285
1.2928
1.29277
1.29276
1.2928
1.29295
1.29308
1.29314
1.29317
1.29295
1.29296
1.29297
1.29297
1.29298
1.29298
1.29297
1.29296
1.29294
1.29292
1.29288
1.29282
1.29277
1.29275
1.29276
1.2929
1.29306
1.29314
1.29316
1.29296
1.29297
1.29298
1.29299
1.29299
1.29299
1.29298
1.29298
1.29296
1.29293
1.2929
1.29284
1.29278
1.29274
1.29274
1.29284
1.29303
1.29313
1.29316
1.29297
1.29298
1.29299
1.293
1.293
1.293
1.293
1.29299
1.29297
1.29295
1.29291
1.29286
1.29279
1.29274
1.29273
1.2928
1.29299
1.29311
1.29315
1.29299
1.29299
1.293
1.29301
1.29301
1.29301
1.29301
1.293
1.29298
1.29296
1.29293
1.29288
1.29281
1.29275
1.29272
1.29276
1.29294
1.2931
1.29315
1.293
1.29301
1.29301
1.29302
1.29302
1.29302
1.29302
1.29301
1.29299
1.29297
1.29294
1.2929
1.29283
1.29276
1.29271
1.29273
1.29289
1.29308
1.29314
1.29302
1.29303
1.29303
1.29303
1.29303
1.29303
1.29303
1.29302
1.293
1.29298
1.29295
1.29291
1.29285
1.29277
1.29271
1.29271
1.29284
1.29305
1.29314
1.29304
1.29304
1.29304
1.29304
1.29304
1.29304
1.29303
1.29302
1.29301
1.29299
1.29296
1.29292
1.29286
1.29278
1.29271
1.2927
1.2928
1.29301
1.29313
1.29306
1.29306
1.29306
1.29305
1.29305
1.29304
1.29304
1.29303
1.29301
1.29299
1.29296
1.29293
1.29287
1.2928
1.29272
1.29268
1.29276
1.29297
1.29312
1.29307
1.29307
1.29307
1.29306
1.29305
1.29305
1.29304
1.29303
1.29302
1.293
1.29297
1.29293
1.29288
1.29281
1.29273
1.29267
1.29273
1.29293
1.29311
1.29308
1.29308
1.29307
1.29307
1.29306
1.29305
1.29304
1.29303
1.29302
1.293
1.29297
1.29294
1.29288
1.29281
1.29273
1.29267
1.29271
1.29289
1.2931
1.29309
1.29309
1.29308
1.29307
1.29306
1.29306
1.29305
1.29303
1.29302
1.293
1.29298
1.29294
1.29289
1.29282
1.29274
1.29266
1.29269
1.29285
1.29308
1.2931
1.29309
1.29308
1.29307
1.29307
1.29306
1.29305
1.29304
1.29302
1.293
1.29298
1.29294
1.29289
1.29282
1.29274
1.29266
1.29267
1.29281
1.29306
1.2931
1.29309
1.29308
1.29308
1.29307
1.29306
1.29305
1.29304
1.29302
1.293
1.29298
1.29294
1.29289
1.29283
1.29274
1.29266
1.29266
1.29278
1.29304
1.2931
1.29309
1.29308
1.29308
1.29307
1.29306
1.29305
1.29303
1.29302
1.293
1.29298
1.29294
1.29289
1.29283
1.29274
1.29266
1.29264
1.29275
1.29302
1.2931
1.29309
1.29308
1.29307
1.29306
1.29305
1.29304
1.29303
1.29302
1.293
1.29298
1.29294
1.29289
1.29282
1.29274
1.29266
1.29263
1.29273
1.293
1.2931
1.29309
1.29308
1.29307
1.29306
1.29305
1.29304
1.29303
1.29302
1.293
1.29297
1.29294
1.29289
1.29282
1.29274
1.29265
1.29262
1.2927
1.29297
1.29309
1.29309
1.29308
1.29307
1.29306
1.29305
1.29304
1.29303
1.29301
1.293
1.29297
1.29294
1.29289
1.29282
1.29274
1.29265
1.29262
1.29267
1.29294
)
;

boundaryField
{
    leftWall
    {
        type            calculated;
        value           nonuniform List<scalar> 
50
(
1.30549
1.30475
1.30401
1.30329
1.30256
1.30187
1.30116
1.30049
1.29943
1.29813
1.29685
1.29578
1.29496
1.29466
1.29433
1.29386
1.29369
1.2934
1.29331
1.29333
1.29306
1.29311
1.29314
1.2931
1.2931
1.29301
1.29294
1.29285
1.29282
1.29287
1.29293
1.29296
1.29298
1.293
1.293
1.29299
1.29298
1.29296
1.29296
1.29296
1.29296
1.29296
1.29297
1.29299
1.29303
1.29308
1.29312
1.29313
1.29313
1.29312
)
;
    }
    rightWall
    {
        type            calculated;
        value           nonuniform List<scalar> 
50
(
1.29998
1.29907
1.29823
1.29753
1.29682
1.29612
1.29531
1.29458
1.29377
1.29331
1.29328
1.29331
1.29327
1.29325
1.29324
1.29323
1.29323
1.29322
1.29322
1.29321
1.29321
1.29321
1.2932
1.2932
1.2932
1.29319
1.29319
1.29318
1.29318
1.29318
1.29317
1.29317
1.29317
1.29316
1.29316
1.29315
1.29315
1.29314
1.29314
1.29313
1.29312
1.29311
1.2931
1.29308
1.29306
1.29304
1.29302
1.293
1.29297
1.29294
)
;
    }
    lowerWall
    {
        type            calculated;
        value           nonuniform List<scalar> 
62
(
1.30586
1.30582
1.30576
1.30564
1.30554
1.30538
1.30524
1.30504
1.30483
1.30456
1.30426
1.3039
1.30353
1.30315
1.30281
1.3025
1.30231
1.30213
1.30217
1.3021
1.30225
1.30228
1.3024
1.30202
1.30127
1.30055
1.29979
1.29911
1.29837
1.2977
1.29703
1.29693
1.29713
1.29713
1.29639
1.30417
1.30062
1.29785
1.29725
1.29744
1.29704
1.29703
1.29655
1.30446
1.29674
1.29672
1.29649
1.29823
1.29968
1.30191
1.30207
1.30043
1.30027
1.29922
1.29991
1.29964
1.29791
1.29746
1.29751
1.29771
1.29938
1.30035
)
;
    }
    atmosphere
    {
        type            calculated;
        value           nonuniform List<scalar> 
46
(
1.29321
1.29321
1.29321
1.29321
1.2932
1.29319
1.29317
1.29315
1.29314
1.29313
1.29313
1.29313
1.29314
1.29316
1.29318
1.29319
1.29319
1.2932
1.2932
1.2932
1.2932
1.2932
1.2932
1.2932
1.2932
1.29319
1.29319
1.29319
1.29318
1.29317
1.29316
1.29315
1.29314
1.29313
1.29312
1.29311
1.29309
1.29307
1.29303
1.29298
1.29291
1.29283
1.29274
1.29271
1.29276
1.29303
)
;
    }
    defaultFaces
    {
        type            empty;
    }
}


// ************************************************************************* //
