/*--------------------------------*- C++ -*----------------------------------*\
| =========                 |                                                 |
| \\      /  F ield         | OpenFOAM: The Open Source CFD Toolbox           |
|  \\    /   O peration     | Version:  2012                                  |
|   \\  /    A nd           | Website:  www.openfoam.com                      |
|    \\/     M anipulation  |                                                 |
\*---------------------------------------------------------------------------*/
FoamFile
{
    version     2.0;
    format      ascii;
    class       volScalarField;
    location    "0.97";
    object      rhogh;
}
// * * * * * * * * * * * * * * * * * * * * * * * * * * * * * * * * * * * * * //

dimensions      [1 -1 -2 0 0 0 0];


internalField   nonuniform List<scalar> 
2268
(
-29.4294
-29.4294
-29.4294
-29.4294
-29.4294
-29.4294
-29.4294
-29.4294
-29.4294
-29.4294
-29.4294
-29.4294
-29.4294
-29.4294
-29.4294
-29.4294
-29.4294
-29.4294
-29.4294
-29.4294
-29.4294
-29.4294
-29.4274
-88.2881
-88.2881
-88.2881
-88.2881
-88.2881
-88.2881
-88.2881
-88.2881
-88.2881
-88.2881
-88.2881
-88.2881
-88.2881
-88.2881
-88.2881
-88.2881
-88.2881
-88.2881
-88.2881
-88.2881
-88.2881
-88.2881
-88.2718
-147.147
-147.147
-147.147
-147.147
-147.147
-147.147
-147.147
-147.147
-147.147
-147.147
-147.147
-147.147
-147.147
-147.147
-147.147
-147.147
-147.147
-147.147
-147.147
-147.147
-147.147
-147.147
-147.115
-206.006
-206.006
-206.006
-206.006
-206.006
-206.006
-206.006
-206.006
-206.006
-206.006
-206.006
-206.006
-206.006
-206.006
-206.006
-206.006
-206.006
-206.005
-206.006
-206.006
-206.006
-206.006
-205.961
-264.864
-264.864
-264.864
-264.864
-264.864
-264.864
-264.864
-264.864
-264.864
-264.864
-264.864
-264.864
-264.864
-264.864
-264.864
-264.864
-264.864
-264.864
-264.864
-264.864
-264.864
-264.864
-264.807
-323.723
-323.723
-323.723
-323.723
-323.723
-323.723
-323.723
-323.723
-323.723
-323.723
-323.723
-323.723
-323.723
-323.723
-323.723
-323.723
-323.723
-323.723
-323.722
-323.722
-323.723
-323.723
-323.653
-382.582
-382.582
-382.582
-382.582
-382.582
-382.582
-382.582
-382.582
-382.582
-382.582
-382.582
-382.582
-382.582
-382.582
-382.582
-382.582
-382.576
-382.448
-382.03
-382.262
-382.548
-382.581
-382.563
-441.44
-441.44
-441.44
-441.44
-441.44
-441.44
-441.44
-441.44
-441.44
-441.44
-441.44
-441.44
-441.44
-441.435
-441.316
-440.27
-433.812
-403.457
-365.357
-382.548
-441.44
-441.44
-441.44
-22.6868
-22.6868
-22.3781
-21.8476
-24.5004
-26.7219
-28.3561
-28.8414
-28.8414
-28.784
-25.6471
-24.6132
-26.7303
-28.6668
-28.6668
-28.5559
-28.4012
-28.8723
-28.8857
-48.6042
-25.3557
-10.1655
-13.5811
-27.9888
-59.0817
-84.8383
-86.5241
-86.5241
-86.5241
-86.5241
-76.0351
-80.8024
-66.395
-56.4493
-47.1462
-44.3327
-72.4096
-86.974
-13.4483
-2.29533
-1.03353
-25.4012
-74.1838
-103.17
-142.983
-144.207
-144.207
-144.207
-144.207
-143.887
-143.78
-114.495
-75.8055
-31.4334
-31.4334
-92.4007
-144.957
-68.5087
-7.13389
-1.44696
-32.7945
-168.267
-200.136
-201.89
-201.89
-201.89
-199.878
-190.851
-201.493
-201.493
-199.057
-190.444
-116.706
-46.231
-161.843
-202.939
-173.684
-56.2181
-2.45036
-0.343261
-47.4609
-132.731
-259.572
-259.572
-227.061
-125.483
-82.2699
-134.558
-238.745
-258.569
-258.569
-180.447
-164.224
-241.136
-262.323
-212.281
-115.188
-3.18319
-0.419541
-1.6513
-67.3416
-288.469
-299.201
-79.0456
-20.2479
-20.2565
-20.2479
-80.2185
-233.925
-316.028
-235.319
-268.684
-318.844
-320.617
-250.88
-76.326
-3.76264
-7.35427
-7.03062
-48.7177
-283.621
-273.095
-20.5528
-25.7851
-78.0525
-82.3769
-55.4572
-62.0167
-268.742
-328.089
-367.82
-375.562
-375.847
-305.866
-37.0109
-20.3235
-37.2721
-14.5167
-32.736
-295.366
-234.18
-23.7137
-142.613
-306.001
-263.705
-85.1055
-55.4821
-157.926
-395.545
-400.512
-411.828
-401.052
-533.467
-533.467
-533.467
-533.467
-533.467
-533.467
-533.467
-533.467
-533.467
-533.463
-533.408
-533.192
-532.241
-527.204
-488.518
-395.756
-274.601
-208.946
-152.986
-170.419
-293.019
-468.833
-530.086
-658.662
-658.662
-658.662
-658.662
-658.662
-658.662
-658.662
-658.662
-658.662
-646.967
-629.452
-603.196
-519.117
-384.189
-164.072
-35.2725
-1.11895
-3.56868
-16.6909
-69.1568
-66.3451
-232.54
-634.981
-783.856
-783.85
-783.759
-783.856
-783.856
-671.322
-603.028
-673.099
-714.138
-681.25
-545.577
-250.112
-85.4278
-9.29971
-0.388372
-0.925068
-2.27
-65.6774
-436.249
-638.466
-551.769
-325.088
-597.719
-909.046
-908.488
-883.511
-631.803
-365.76
-233.792
-215.581
-338.412
-531.922
-533.76
-188.502
-29.0139
-29.013
-17.1581
-0.450423
-0.776061
-36.0958
-505.646
-865.341
-865.341
-863.098
-678.233
-665.28
-1033.89
-998.159
-494.756
-69.3669
-69.3669
-73.2404
-64.2809
-92.3845
-160.11
-103.5
-99.3825
-163.549
-253.58
-109.095
-0.323364
-2.28613
-267.029
-938.615
-984.516
-984.516
-947.744
-771.638
-791.673
-1148.86
-731.909
-149.564
-97.9808
-68.7199
-40.4204
-6.31133
-1.56114
-7.67571
-77.4279
-284.234
-284.276
-284.275
-166.119
-0.377866
-6.38284
-431.005
-1099.26
-1103.73
-1103.69
-1098.62
-1057.07
-1067.58
-1239.81
-517.516
-78.7426
-68.0706
-12.1497
-0.000416657
-0.128412
-0.0006497
-0.253253
-33.7899
-196.667
-265.555
-103.658
-10.2199
-2.25156
-4.31086
-208.459
-883.249
-1222.91
-1222.91
-1222.72
-1222.87
-1222.87
-1337.8
-413.674
-8.1626e-08
-16.2429
-0.0317819
-0.000457186
-0.000457262
-0.000457186
-2.4092
-7.57584
-1.88022e-07
-1.88022e-07
-1.88022e-07
-0.00704117
-1.4079
-2.01358
-26.3089
-152.911
-670.604
-1159.44
-1284.6
-1275.38
-1067.21
-1466.3
-468.11
-8.90084e-08
-0.548832
-0.116675
-0.049068
-0.72958
-4.38313
-5.25652
-2.6076
-2.04719e-07
-9.48114e-07
-1.3891e-05
-0.00563263
-2.61431
-4.9676
-1.4322
-2.80805e-07
-2.80805e-07
-372.236
-1162.35
-1204.35
-430.464
-1585.89
-578.962
-9.6123e-08
-0.00961678
-0.0251653
-0.082822
-0.412508
-3.58162
-4.91568
-0.112387
-2.21416e-07
-0.000106912
-0.000220567
-0.0343752
-2.02254
-3.44572
-3.23849e-07
-3.83666e-07
-2.0372e-06
-2.03696e-06
-296.787
-824.535
-519.776
-1692.41
-472.191
-1.03527e-07
-3.25781e-05
-0.00104209
-0.019243
-0.0706991
-1.09064
-1.88942
-0.673026
-2.38112e-07
-0.000717066
-0.000837625
-0.00710547
-0.0567109
-0.0287508
-3.46371e-07
-3.6621e-06
-1.62861e-05
-0.35255
-9.47842
-240.844
-582.805
-967.416
-126.012
-0.0472415
-1.10375e-07
-1.1529e-05
-0.000241282
-0.00895238
-0.0735325
-0.0888655
-1.45427e-06
-0.000280056
-0.000974998
-0.000871524
-2.55008e-07
-2.55005e-07
-2.55008e-07
-8.94746e-06
-1.10482e-05
-5.40154e-05
-0.00812372
-0.875788
-21.7509
-224.288
-41.8443
-8.5264
-1.17608e-07
-1.17608e-07
-2.64775e-07
-2.08661e-05
-0.000540642
-0.00084315
-8.31926e-06
-1.54956e-06
-1.86389e-05
-0.000132761
-8.19241e-05
-2.71714e-07
-1.1785e-06
-6.18857e-06
-1.19365e-05
-1.07129e-05
-1.15189e-05
-0.00259848
-0.106631
-1.1553
-11.7255
-0.187946
-0.294405
-0.181568
-1.1503e-07
-3.81159e-07
-5.34194e-06
-1.41444e-05
-1.28422e-06
-1.31633e-06
-1.62357e-06
-1.07045e-06
-3.59618e-07
-3.59631e-07
-1.00868e-06
-1.87279e-06
-1.87279e-06
-3.09473e-06
-4.03774e-06
-1.79893e-06
-1.39749e-07
-1.39748e-07
-1.39749e-07
-1.39748e-07
-0.105452
-0.10554
-0.692522
-1.21713e-07
-3.75801e-07
-2.17116e-06
-1.1624e-06
-6.40696e-07
-1.54344e-06
-4.89156e-06
-1.06179e-05
-7.8531e-06
-1.4322e-06
-1.14891e-06
-1.50911e-06
-6.82291e-07
-1.86587e-07
-1.47844e-07
-1.47845e-07
-1.47844e-07
-3.54968e-06
-0.00397759
-0.338863
-157.411
-1.0031e-19
-0.731095
-1.28358e-07
-2.14495e-07
-5.86882e-07
-4.74212e-07
-6.75783e-07
-1.74003e-06
-5.51796e-06
-9.03574e-06
-4.29506e-06
-5.6579e-07
-8.076e-07
-8.55394e-07
-5.08869e-07
-2.63178e-07
-1.85917e-07
-1.75475e-07
-1.55941e-07
-1.79131e-06
-0.0942539
-0.455737
-437.801
-1.5567e-08
-0.328391
-1.35044e-07
-1.35022e-07
-1.48545e-07
-3.33587e-07
-7.25019e-07
-1.91513e-06
-3.89093e-06
-4.26158e-06
-1.62128e-06
-5.45452e-07
-4.36732e-07
-3.79342e-07
-2.26618e-07
-1.76706e-07
-1.96545e-07
-3.64685e-07
-7.16636e-07
-5.20528e-05
-0.00506009
-0.115515
-459.601
1.01802e-22
-0.000169674
-0.00203245
-2.972e-05
-8.23328e-08
-3.05056e-07
-7.79216e-07
-1.81098e-06
-2.36443e-06
-1.81258e-06
-5.74168e-07
-3.25107e-07
-2.57013e-07
-1.8501e-07
-1.18207e-07
-1.20046e-07
-2.88753e-07
-1.42844e-06
-7.76431e-06
-1.29241e-05
-3.11934e-07
-3.11918e-07
-481.224
-0.181182
-2.23933e-06
-0.00243864
-4.79673e-05
-8.40068e-08
-3.07477e-07
-7.81533e-07
-1.56778e-06
-1.76599e-06
-1.11196e-06
-3.12278e-07
-1.81828e-07
-1.33277e-07
-9.4613e-08
-8.42416e-08
-1.13976e-07
-2.91742e-07
-7.34397e-07
-1.05258e-06
-1.04675e-06
-5.89237e-07
-3.54359e-07
-338.226
-1.04979
-2.33614e-06
-0.000838348
-3.67855e-05
-8.76809e-08
-3.03052e-07
-7.08254e-07
-1.17932e-06
-1.1781e-06
-6.20259e-07
-1.72309e-07
-9.80995e-08
-7.50346e-08
-7.55234e-08
-1.1669e-07
-3.71906e-07
-1.1691e-06
-3.24394e-06
-9.62898e-06
-1.69565e-05
-1.86717e-05
-1.22229e-05
-15.4687
-0.754054
-2.44052e-06
-5.71352e-05
-5.20764e-06
-9.14278e-08
-2.8511e-07
-5.88036e-07
-8.16988e-07
-7.21674e-07
-3.02192e-07
-8.87095e-08
-5.75077e-08
-6.28725e-08
-1.41155e-07
-5.68006e-07
-2.23436e-06
-8.74065e-06
-3.06411e-05
-5.11922e-05
-5.39008e-05
-4.9933e-05
-1.34653e-05
-0.048127
-0.432692
-2.537e-06
-0.000221999
-8.71651e-08
-8.88589e-08
-2.1012e-07
-4.56329e-07
-5.77732e-07
-4.41991e-07
-1.50239e-07
-5.31255e-08
-5.10998e-08
-9.14852e-08
-3.68588e-07
-1.49606e-06
-8.28128e-06
-7.10653e-05
-0.000152409
-0.000114229
-1.6912e-05
-6.61823e-06
-7.33928e-06
-0.000188635
-0.00449518
-0.000201344
-0.000267319
-9.06135e-08
-6.28312e-08
-9.15015e-08
-3.05114e-07
-3.79948e-07
-2.52695e-07
-7.97848e-08
-4.37884e-08
-7.14409e-08
-2.79917e-07
-1.27032e-06
-7.93072e-06
-7.89757e-05
-0.000187918
-0.00017934
-3.73775e-05
-1.75925e-07
-1.47312e-06
-1.40237e-06
-3.2761e-05
-0.000107261
-0.000282519
-0.000154038
-9.40662e-08
-3.28422e-05
-2.54405e-08
-1.81523e-07
-2.43047e-07
-1.49936e-07
-5.36389e-08
-4.95217e-08
-1.91468e-07
-8.95027e-07
-5.51095e-06
-6.47649e-05
-0.000195073
-0.000195209
-9.6504e-05
-1.00465e-07
-1.8263e-07
-3.81654e-07
-3.08215e-07
-3.39621e-05
-6.03728e-05
-0.000195085
-9.77163e-08
-9.75085e-08
-0.000428394
-2.63742e-08
-1.08485e-07
-1.58188e-07
-8.09826e-08
-2.59773e-08
-2.16992e-08
-4.22666e-08
-2.87713e-07
-9.25743e-06
-0.000132107
-0.00020237
-0.000163395
-6.64836e-07
-1.04396e-07
-1.42181e-07
-1.83614e-07
-1.41546e-07
-3.51623e-05
-3.33645e-05
-0.000168712
-0.000465673
-0.00219729
-0.00157799
-2.73069e-08
-6.91762e-08
-1.09651e-07
-7.20641e-08
-8.15829e-08
-3.80471e-07
-1.72528e-06
-9.15414e-06
-0.000103327
-0.00023351
-0.000116492
-1.61477e-05
-1.19648e-07
-1.19646e-07
-1.42414e-07
-1.44299e-07
-9.63753e-08
-3.63655e-05
-2.96042e-05
-0.00089439
-0.0158877
-0.019631
-0.00514837
-2.82407e-08
-4.2187e-08
-7.83573e-08
-6.93538e-08
-2.20628e-07
-1.22547e-06
-1.0354e-05
-0.000132542
-0.000289836
-0.000241322
-1.94571e-06
-1.42142e-07
-1.8263e-07
-1.55852e-07
-1.19907e-07
-9.62515e-08
-5.00286e-08
-3.18394e-05
-3.05767e-05
-0.00368623
-0.0226635
-0.0603288
-0.0184541
-2.91734e-08
-3.03299e-08
-5.48871e-08
-4.99364e-08
-2.31671e-07
-1.81635e-06
-3.58547e-05
-0.000253435
-0.000298955
-0.000167517
-3.94012e-08
-8.85016e-08
-1.58546e-07
-1.15142e-07
-6.55434e-08
-3.68984e-08
-1.55601e-08
-2.15756e-05
-0.000313782
-0.00950272
-0.0126569
-0.127987
-0.0444497
-3.01072e-08
-3.01066e-08
-4.2933e-08
-3.91913e-08
-1.15757e-07
-9.77624e-07
-1.71016e-05
-0.000188606
-0.000288503
-3.11082e-05
-4.0662e-08
-5.21627e-08
-6.97471e-08
-4.07241e-08
-1.89511e-08
-8.82406e-09
-3.09224e-09
-2.0835e-05
-0.00412992
-0.00733892
-0.00244974
-0.288378
-0.078756
-3.10398e-08
-3.10404e-08
-3.68103e-08
-6.94312e-08
-9.43532e-08
-9.43567e-08
-4.48889e-06
-8.54842e-05
-6.53399e-05
-2.54038e-06
-5.91041e-08
-4.25941e-08
-1.97789e-08
-9.19413e-09
-3.81887e-09
-1.36609e-09
-3.48006e-10
-2.14614e-05
-0.00399843
-0.000956493
-0.000928651
-0.376559
-0.0991507
-4.15045e-05
-3.1973e-08
-5.34747e-08
-4.27247e-07
-3.94234e-06
-3.00387e-05
-8.26278e-05
-0.000168097
-3.99816e-06
-3.29852e-07
-2.54513e-07
-4.22515e-08
-7.69945e-09
-1.78905e-09
-5.57506e-10
-1.35933e-10
-2.10262e-11
-2.20878e-05
-0.000386424
-0.000243508
-0.263376
-0.3878
-0.0688251
-5.38743e-05
-3.46019e-08
-6.63375e-08
-7.6592e-07
-9.78707e-06
-0.000197144
-0.000725533
-0.000128473
-1.2649e-08
-1.72381e-07
-1.9143e-07
-3.00734e-08
-3.00974e-09
-3.11808e-10
-5.96848e-11
-8.38597e-12
-6.4647e-13
-2.27142e-05
-2.27142e-05
-0.118576
-0.489167
-0.337092
-0.0143685
-1.07217e-05
-3.72569e-08
-9.21625e-08
-2.10209e-06
-0.000107024
-0.000770815
-0.000790138
-0.000144315
-1.30076e-08
-6.1615e-08
-6.73049e-08
-1.08833e-08
-9.04473e-10
-5.07992e-11
-4.8979e-12
-3.12956e-13
-3.22962e-14
-0.329653
-0.360003
-0.502658
-0.50354
-0.128624
-0.00188228
-1.53085e-06
-4.68794e-08
-1.11944e-07
-3.5232e-06
-0.000277443
-0.000822621
-0.000811861
-1.33663e-08
-1.33765e-08
-2.45009e-08
-1.62064e-08
-2.68469e-09
-1.99967e-10
-7.01024e-12
-2.7972e-13
-5.99259e-15
-1.9319e-15
-0.220879
-0.375356
-0.456081
-0.250455
-0.0148677
-0.000288318
-9.00283e-07
-5.68724e-08
-1.83306e-07
-4.39038e-06
-0.000230529
-0.000826153
-0.000361846
-1.3725e-08
-1.3725e-08
-1.37324e-08
-3.95038e-09
-5.80994e-10
-3.50006e-11
-7.70847e-13
-9.4386e-15
-3.94133e-16
-1.10511e-16
-0.00799756
-0.0451976
-0.065095
-0.00964582
-0.00126145
-5.93165e-05
-7.57903e-07
-6.07414e-08
-2.41102e-07
-4.68677e-06
-9.87061e-05
-0.000186171
-2.39168e-05
-1.40837e-08
-2.42304e-08
-8.66116e-09
-1.21907e-09
-1.1848e-10
-4.80052e-12
-5.56119e-14
-1.2956e-16
-2.01476e-17
-5.10588e-18
-4.78869e-06
-2.82734e-05
-9.46014e-06
-1.77449e-05
-1.33078e-05
-6.40983e-06
-3.44696e-07
-7.35573e-08
-1.90017e-07
-2.32947e-06
-2.43726e-05
-7.26917e-05
-3.72719e-08
-1.71951e-07
-4.18309e-08
-6.76678e-09
-4.68689e-10
-2.49244e-11
-5.50003e-13
-2.26301e-15
-8.97178e-18
-1.0383e-18
-2.19345e-19
-2.52797e-08
-1.64366e-08
-5.26534e-09
-4.83237e-08
-3.38076e-07
-8.27281e-07
-1.50453e-07
-6.99004e-08
-6.97577e-08
-6.3747e-08
-6.37441e-08
-5.27907e-05
-3.04308e-08
-1.87733e-07
-3.88034e-08
-4.35978e-09
-1.6701e-10
-4.87719e-12
-4.73977e-14
-1.65699e-17
-3.57184e-19
-3.56559e-20
-6.92583e-21
-9.60925e-09
-4.37944e-09
-2.72745e-09
-1.62714e-08
-1.05192e-07
-1.73719e-07
-2.28973e-07
-6.5289e-08
-6.5292e-08
-0.000155376
-0.000310361
-7.83844e-07
-3.21188e-08
-1.11453e-07
-2.27164e-08
-1.60416e-09
-4.92639e-11
-8.33793e-13
-2.91437e-15
-2.81432e-19
-1.37522e-20
-1.09422e-21
-1.82369e-22
-3.00964e-09
-1.28514e-09
-1.19378e-09
-6.68463e-09
-3.80945e-08
-1.07785e-07
-9.8923e-07
-2.37281e-05
-0.000362632
-0.00207592
-0.00112287
-1.25584e-08
-2.608e-08
-4.29318e-08
-8.21362e-09
-4.24174e-10
-1.1089e-11
-1.05836e-13
-8.49994e-17
-4.50431e-21
-1.96532e-22
-1.55624e-23
-2.74118e-24
-8.14439e-10
-3.61482e-10
-7.16501e-10
-5.24581e-09
-3.01439e-08
-9.55334e-08
-1.62116e-06
-0.000270547
-0.00196833
-0.00212626
-0.000780889
-1.28487e-08
-1.9254e-08
-2.38304e-08
-3.0929e-09
-9.16552e-11
-1.98861e-12
-9.79873e-15
-2.25213e-19
-3.66944e-23
-1.20143e-24
-1.01944e-25
-2.08506e-26
-1.74167e-10
-1.84685e-10
-1.55065e-09
-1.80099e-08
-1.71233e-07
-1.35502e-06
-1.55806e-05
-0.00040143
-0.00194963
-0.00129494
-2.45891e-05
-1.3139e-08
-1.93942e-08
-9.3894e-09
-8.83214e-10
-1.4347e-11
-2.4536e-13
-5.47698e-16
8.78167e-56
-7.36328e-31
-4.7151e-33
-4.39365e-34
-4.14718e-35
-531.424
-531.42
-455.964
-396.775
-656.134
-545.351
-510.603
-542.437
-581.39
-581.43
-709.689
-709.703
-710.705
-864.272
-864.272
-760.23
-983.299
-983.299
-982.617
-729.422
-1102.33
-1102.33
-908.179
-405.086
-1015.58
-454.222
-172.561
-33.5745
-175.544
-6.89134
-6.89141
-1.29298
-39.4142
-8.64303
-7.71047
-36.2605
-61.4104
-40.4207
-43.5405
-46.3514
-320.747
-164.106
-100.095
-130.693
-366.987
-225.483
-113.384
-139.858
-44.0735
-39.8328
-27.8583
-22.0761
-0.310243
-1.01765
-0.906946
-1.8074
-0.94769
-0.602761
-0.000203197
-0.000203208
-0.341423
-0.000719728
-0.000719588
-0.0011409
-0.309802
-0.0690687
-0.000767332
-0.00307447
-0.000637478
-0.0513895
-0.083568
-0.0835438
-3.26589e-07
-3.26605e-07
-3.26589e-07
-3.26605e-07
-4.11848e-06
-2.97465e-06
-2.23551e-06
-1.69324e-06
-1.15961e-06
-1.29476e-06
-1.97068e-06
-1.96566e-06
-4.94687e-07
-4.4599e-07
-4.2631e-07
-3.15709e-07
-1.36191e-07
-9.2712e-08
-6.68972e-08
-4.73469e-08
-8.28327e-08
-6.04442e-08
-4.37024e-08
-3.11194e-08
-6.31236e-08
-4.29249e-08
-2.82156e-08
-1.82919e-08
-4.17401e-08
-2.55257e-08
-1.51645e-08
-9.09082e-09
-1.85938e-08
-1.04762e-08
-5.80828e-09
-3.2887e-09
-5.40142e-09
-2.83946e-09
-1.47236e-09
-7.97223e-10
-9.03234e-10
-4.23839e-10
-2.03123e-10
-1.12955e-10
-7.00018e-11
-2.87174e-11
-1.58037e-11
-1.0335e-11
-3.11452e-12
-1.93064e-12
-1.30136e-12
-8.81647e-13
-2.24139e-13
-1.52733e-13
-1.03863e-13
-7.13246e-14
-1.57616e-14
-1.07061e-14
-7.29507e-15
-5.04124e-15
-9.22922e-16
-6.27183e-16
-4.29308e-16
-2.98857e-16
-5.03668e-17
-3.38585e-17
-2.30567e-17
-1.6033e-17
-2.26067e-18
-1.50786e-18
-1.02193e-18
-7.09023e-19
-9.14167e-20
-5.99174e-20
-4.00951e-20
-2.75565e-20
-2.79879e-21
-1.80715e-21
-1.19541e-21
-8.14946e-22
-7.01015e-23
-4.41959e-23
-2.86081e-23
-1.91569e-23
-1.06129e-24
-6.65701e-25
-4.29227e-25
-2.86876e-25
-8.25922e-27
-5.18454e-27
-3.33829e-27
-2.22187e-27
-6.3162e-36
-2.53031e-36
-1.04602e-36
-4.63008e-37
-387.679
-123.396
-99.2831
-60.2093
-7.86813
-21.683
-355.382
-187.869
-29.4182
-258.169
-384.493
-384.428
-275.509
-179.681
-358.592
-478.226
-462.568
-383.466
-346.986
-479.584
-183.565
-107.696
-107.693
-9.71477
-139.337
-434.33
-129.408
-35.3769
-174.502
-443.087
-411.507
-339.234
-361.294
-365.113
-308.351
-156.611
-81.3208
-64.6453
-519.666
-317.019
-624.976
-649.533
-544.808
-664.749
-475.598
-42.1012
-42.1097
-183.162
-186.093
-33.9163
-0.00760221
-0.00760221
-0.00760221
-0.00760221
-0.00760221
-0.00760221
-0.121691
-561.898
-549.395
-765.489
-753.27
-742.082
-770.891
-729.584
-232.788
-50.0618
-65.5265
-123.124
-35.0287
-0.91677
-0.0271587
-0.00907437
-0.00881641
-0.00977945
-0.0819767
-0.0868511
-445.476
-275.154
-241.482
-103.136
-141.277
-235.171
-385.833
-604.73
-604.759
-575.999
-359.139
-81.2704
-15.7791
-5.06362
-0.612305
-0.131176
-0.198662
-0.11447
-0.0815545
-115.265
-0.929236
-8.43716
-5.18529
-1.65165
-0.0135945
-0.0135946
-48.0782
-77.2167
-0.000479587
-0.000479613
-27.1729
-39.8382
-36.2623
-16.4667
-1.03254
-0.53188
-0.107424
-0.0904062
-7.19883
-1.02975
-6.23596
-19.1067
-23.4475
-1.24013
-0.0150626
-0.000503101
-0.000503101
-0.0032463
-0.000531405
-0.000490949
-22.4809
-41.8025
-41.7671
-10.6656
-0.43191
-0.0862582
-0.0792185
-1.29427
-1.47128
-9.33501
-103.503
-58.5188
-0.0231619
-0.0231619
-0.149408
-0.177681
-0.0727199
-0.000490375
-0.000538767
-0.000538794
-9.50764
-24.4359
-8.7686
-0.210119
-0.112904
-0.0328774
-72.8348
-95.5437
-151.501
-152.439
-68.7236
-0.0669336
-0.0358999
-0.0383552
-0.0204647
-0.000460003
-0.000533906
-0.00062542
-0.000625424
-0.000601186
-0.00060116
-1.15679
-0.0837197
-0.0694936
-1.83069e-07
-88.3429
-146.513
-162.818
-132.298
-34.4983
-0.34058
-0.00234126
-0.00458876
-0.00049752
-0.000497467
-0.000496791
-0.00049016
-0.00123328
-0.00173229
-0.00314261
-0.00540741
-0.0168204
-0.0066218
-1.98e-07
-41.3975
-13.689
-17.091
-0.0205061
-0.0205189
-0.0438477
-0.00251754
-0.0005394
-0.000536203
-0.00081286
-0.000812677
-6.50972e-05
-9.05107e-06
-9.05064e-06
-9.04354e-06
-9.04401e-06
-9.04404e-06
-4.4253e-06
-9.57916e-07
-97.9898
-14.6485
-1.03798
-1.038
-0.216239
-0.00259586
-0.00259615
-0.00448291
-0.00241945
-0.000825599
-0.000569806
-2.60016e-05
-4.22761e-05
-6.06419e-05
-8.37523e-05
-8.82824e-05
-5.77483e-06
-3.62589e-06
-5.24658e-05
-9.78364
-24.8626
-24.8578
-2.16136
-0.0289817
-0.0291015
-0.000891409
-0.00313542
-0.00302953
-0.00121059
-5.50392e-05
-2.77047e-05
-0.000173849
-0.000364606
-0.000390238
-0.000137241
-6.01412e-06
-6.48943e-06
-0.000469973
-4.04105
-16.3945
-18.4091
-1.66113
-0.0307295
-0.082166
-0.000946429
-0.000946101
-0.000717894
-0.00125627
-0.000182212
-1.30104e-05
-0.000123486
-0.00041306
-0.000414237
-0.000105325
-4.31876e-07
-3.88401e-05
-0.000636463
-0.000203197
-0.000203208
-0.923688
-1.06669
-0.0716919
-0.0871736
-0.00124609
-0.00117832
-0.000180209
-0.000161395
-0.000114174
-1.37643e-05
-1.75995e-06
-7.92355e-05
-0.00020601
-6.96413e-05
-4.56895e-07
-0.000238525
-0.000673438
-0.00113383
-0.0073576
-0.0253695
-0.0757404
-0.101406
-0.0277081
-0.00365285
-0.00104072
-2.19074e-05
-4.52377e-07
-4.46964e-07
-6.252e-06
-2.27204e-06
-4.92168e-07
-4.94997e-07
-7.46336e-06
-4.81916e-07
-0.000389877
-0.000710208
-0.00428251
-0.00144421
-0.000416442
-0.00198457
-0.00990165
-0.00200611
-0.00105379
-2.81362e-07
-9.43497e-07
-7.17473e-06
-2.10341e-06
-1.11928e-05
-0.000136386
-0.000115373
-1.07141e-05
-2.41654e-06
-5.06935e-07
-0.000292694
-0.000361832
-0.0822772
-0.0130262
-1.64325e-05
-1.64324e-05
-1.85006e-05
-1.35599e-07
-1.3636e-07
-1.16056e-06
-9.17249e-06
-4.91118e-05
-3.69295e-05
-5.14736e-05
-0.000708558
-0.00124924
-0.000315297
-1.41176e-05
-9.64868e-07
-2.96061e-05
-7.28619e-06
-3.26589e-07
-3.26605e-07
-1.72569e-05
-2.20243e-05
-1.94811e-07
-1.94514e-07
-4.46835e-07
-1.45345e-06
-5.20441e-06
-7.69399e-05
-0.000378712
-0.000439143
-0.000892977
-0.00143285
-0.00140736
-0.000129057
-2.53107e-06
-2.5311e-06
-4.80157e-06
-1.23277e-06
-8.943e-07
-7.85748e-07
-7.04511e-07
-3.9002e-07
-3.20806e-07
-5.32973e-07
-9.3442e-07
-1.77444e-06
-2.08589e-05
-0.000633796
-0.00110859
-0.000620144
-0.00107487
-0.00166891
-0.000561049
-1.23979e-05
-4.38624e-06
-7.79379e-06
-1.59912e-06
-5.99561e-07
-2.24633e-07
-1.26032e-07
-1.23727e-07
-1.68657e-07
-2.76538e-07
-3.73462e-07
-5.82501e-07
-5.79889e-06
-0.000271481
-0.00115618
-0.000649891
-0.000441201
-0.00174064
-0.00102953
-4.51965e-05
-9.99682e-06
-1.51047e-05
-1.7175e-07
-5.5946e-08
-3.58106e-08
-3.34659e-08
-4.7705e-08
-7.24429e-08
-9.95329e-08
-1.44839e-07
-2.81538e-07
-6.79214e-07
-6.79268e-07
-0.00116872
-0.00335512
-0.00045965
-0.00145534
-0.00143905
-0.000121648
-2.20669e-05
-1.76317e-05
-2.94212e-08
-1.61404e-08
-1.2605e-08
-1.22312e-08
-1.6276e-08
-2.33734e-08
-3.26045e-08
-5.55346e-08
-1.25294e-07
-2.60739e-07
-1.92071e-06
-0.000398937
-0.00462226
-0.00297421
-0.0013566
-0.00160642
-0.000275397
-5.34964e-05
-1.83296e-05
-1.82383e-08
-7.08358e-09
-3.91662e-09
-3.38891e-09
-4.11056e-09
-6.38146e-09
-1.03646e-08
-2.19074e-08
-5.66418e-08
-1.08309e-07
-1.34763e-07
-1.34767e-07
-0.00479829
-0.0157254
-0.00377917
-0.00164001
-0.000386052
-5.89921e-05
-0.000273021
-9.32945e-09
-2.416e-09
-9.35044e-10
-7.0207e-10
-7.9932e-10
-1.40468e-09
-2.71933e-09
-6.53125e-09
-1.81173e-08
-5.36223e-08
-1.79074e-07
-9.95869e-06
-0.00206737
-0.0184347
-0.0184731
-0.0011892
-0.000450701
-0.000183891
-0.000614711
-4.23129e-09
-8.15726e-10
-2.02787e-10
-1.14771e-10
-1.19029e-10
-2.39557e-10
-5.90975e-10
-1.98714e-09
-9.17391e-09
-4.92656e-08
-2.43461e-07
-1.42675e-06
-3.31639e-05
-0.00472341
-0.019087
-0.00113719
-0.000613353
-0.000632432
-0.000636462
-1.45667e-09
-2.574e-10
-4.55816e-11
-1.5276e-11
-1.39284e-11
-3.25331e-11
-1.19499e-10
-6.51313e-10
-4.54532e-09
-3.16832e-08
-1.81899e-07
-4.18654e-07
-4.18675e-07
-8.85849e-05
-0.0133701
-0.000943271
-0.000536266
-0.000658213
-0.000658213
-3.55898e-10
-6.71218e-11
-1.0408e-11
-1.97504e-12
-1.30621e-12
-3.71818e-12
-2.28922e-11
-1.86436e-10
-1.57846e-09
-1.14579e-08
-6.47298e-08
-4.04271e-07
-6.6886e-06
-7.94409e-05
-0.000477244
-0.00174941
-0.000410205
-0.000303812
-0.000260286
-5.43974e-11
-1.20769e-11
-2.03548e-12
-2.87405e-13
-1.05953e-13
-3.71569e-13
-3.54351e-12
-3.58175e-11
-3.32243e-10
-2.51417e-09
-1.32846e-08
-2.58227e-08
-1.62014e-08
-7.91114e-05
-0.020372
-0.0554081
-0.000668655
-3.57536e-05
-3.5207e-05
-5.41077e-12
-1.48448e-12
-3.07393e-13
-4.52254e-14
-9.00032e-15
-2.63676e-14
-3.11211e-13
-3.38992e-12
-3.14714e-11
-2.28648e-10
-8.70154e-10
-1.43159e-09
-6.2899e-09
-8.54284e-06
-0.0293167
-0.140477
-0.0027777
-3.62983e-05
-3.62981e-05
-4.83695e-13
-1.53308e-13
-3.77936e-14
-6.45369e-15
-8.85448e-16
-7.84487e-16
-9.54683e-15
-1.05432e-13
-9.44731e-13
-6.33636e-12
-3.75823e-11
-7.2323e-10
-1.83242e-08
-1.11192e-05
-0.0141625
-0.144711
-0.0127236
-8.69101e-05
-0.00206565
-4.00933e-14
-1.37615e-14
-3.80901e-15
-7.45774e-16
-9.49089e-17
-8.32892e-18
-1.04691e-17
-1.13782e-16
-2.47205e-15
-2.12385e-13
-2.09951e-11
-1.43117e-09
-5.89368e-08
-4.85896e-06
-0.00221787
-0.043779
-0.029355
-0.000319205
-0.00454689
-2.87591e-15
-1.04477e-15
-3.16618e-16
-6.98035e-17
-9.95679e-18
-5.97751e-19
-5.96148e-20
-1.63763e-18
-3.76946e-16
-7.69972e-14
-1.27035e-11
-1.37428e-09
-8.70088e-08
-1.29976e-06
1.6875e-22
1.5111e-22
-0.0754826
-0.00443648
-0.00467564
-1.73126e-16
-6.61709e-17
-2.18782e-17
-5.39543e-18
-8.84496e-19
-4.698e-20
-3.72342e-21
-4.78975e-22
-1.29988e-20
-1.88273e-18
-1.99851e-16
-3.44796e-15
1.2162e-25
7.63528e-24
3.12335e-22
1.06445e-20
-0.141311
-0.0135042
-0.00460632
-9.34333e-18
-3.69619e-18
-1.31831e-18
-3.60689e-19
-6.8488e-20
-3.27246e-21
-2.21829e-22
-2.68742e-23
-1.12337e-24
-4.48009e-26
8.40598e-46
4.1127e-30
4.90045e-27
6.16315e-25
6.14535e-23
9.79217e-21
-0.145103
-0.0272134
-0.00353819
-4.14453e-19
-1.67488e-19
-6.3446e-20
-1.9172e-20
-4.28981e-21
-2.02764e-22
-1.28734e-23
-1.50977e-24
-1.07499e-25
-5.96283e-27
-4.5824e-28
-2.74139e-29
-1.17987e-30
2.16508e-26
1.32192e-23
5.8672e-21
-0.148859
-0.0452014
-0.00187204
-1.60167e-20
-6.5386e-21
-2.60017e-21
-8.52472e-22
-2.19965e-22
-1.31758e-23
-8.73739e-25
-7.90181e-26
-6.67068e-27
-4.59206e-28
-2.6534e-29
-1.19141e-30
-4.54621e-32
3.21826e-27
3.12652e-24
2.27393e-21
-0.152628
-0.0514896
-0.000647602
-4.71924e-22
-1.94269e-22
-8.00046e-23
-2.77316e-23
-7.99055e-24
-6.09045e-25
-4.45896e-26
-3.58032e-27
-2.93772e-28
-2.18497e-29
-1.42431e-30
-7.55746e-32
-3.40064e-33
3.84816e-28
6.09946e-25
4.99425e-22
-0.15635
-0.060462
-0.000663733
-1.09268e-23
-4.5122e-24
-1.93781e-24
-6.99849e-25
-2.27211e-25
-2.31645e-26
-1.86928e-27
-1.41765e-28
-1.07562e-29
-7.874e-31
-5.29879e-32
-3.04441e-33
-1.50805e-34
3.41792e-29
9.02512e-26
5.2531e-23
-0.114465
-0.110736
-0.00246536
-1.63765e-25
-6.85563e-26
-2.99828e-26
-1.10599e-26
-3.67065e-27
-4.02557e-28
-3.4452e-29
-2.6856e-30
-2.0255e-31
-1.47973e-32
-1.00691e-33
-6.00827e-35
-3.12696e-36
2.02457e-30
8.75013e-27
1.10045e-23
-0.00366117
-0.112045
-0.00637226
-1.2607e-27
-5.32091e-28
-2.39812e-28
-9.06418e-29
-3.23641e-29
-4.42979e-30
-4.30064e-31
-3.51754e-32
-2.62856e-33
-1.87153e-34
-1.24255e-35
-7.38139e-37
-3.87016e-38
5.52293e-32
3.96988e-28
1.90633e-24
8.10835e-25
-0.0255414
-0.00649594
-1.56042e-37
-1.88142e-38
-2.11804e-39
-1.28133e-40
-7.98195e-42
-4.15807e-43
-2.22513e-44
-7.05272e-46
-1.06214e-47
-1.79769e-50
5.80084e-49
3.13727e-49
1.06504e-49
4.65965e-50
7.15929e-50
1.65689e-25
2.9479e-25
-0.0886721
-0.00986596
)
;

boundaryField
{
    leftWall
    {
        type            calculated;
        value           nonuniform List<scalar> 
50
(
-29.4294
-88.2881
-147.147
-206.006
-264.864
-323.723
-382.582
-441.44
-533.467
-658.662
-783.856
-909.046
-1033.89
-1148.86
-1239.81
-1337.8
-1466.3
-1585.89
-1692.41
-967.416
-41.8443
-0.187946
-0.105452
-157.411
-437.801
-459.601
-481.224
-338.226
-15.4687
-0.048127
-0.000188635
-3.2761e-05
-3.39621e-05
-3.51623e-05
-3.63655e-05
-3.18394e-05
-2.15756e-05
-2.0835e-05
-2.14614e-05
-2.20878e-05
-2.27142e-05
-0.329653
-0.220879
-0.00799756
-4.78869e-06
-2.52797e-08
-9.60925e-09
-3.00964e-09
-8.14439e-10
-1.74167e-10
)
;
    }
    rightWall
    {
        type            calculated;
        value           nonuniform List<scalar> 
50
(
-28.8857
-86.974
-144.957
-202.939
-262.323
-320.617
-375.847
-401.052
-346.986
-64.6453
-0.121691
-0.0868511
-0.0815545
-0.0904062
-0.0792185
-0.0328774
-1.83069e-07
-1.98e-07
-9.57916e-07
-5.24658e-05
-0.000469973
-0.000636463
-0.000673438
-0.000710208
-0.000361832
-7.28619e-06
-4.80157e-06
-7.79379e-06
-1.51047e-05
-1.76317e-05
-1.83296e-05
-0.000273021
-0.000614711
-0.000636462
-0.000658213
-0.000260286
-3.5207e-05
-3.62981e-05
-0.00206565
-0.00454689
-0.00467564
-0.00460632
-0.00353819
-0.00187204
-0.000647602
-0.000663733
-0.00246536
-0.00637226
-0.00649594
-0.00986596
)
;
    }
    lowerWall
    {
        type            calculated;
        value           nonuniform List<scalar> 
62
(
0
0
0
0
0
0
0
0
0
0
0
0
0
0
0
0
0
0
0
0
0
0
0
-29.4274
-88.2718
-147.115
-205.961
-264.807
-323.653
-382.563
-441.44
-469.066
-469.063
-402.461
-350.217
-22.6868
-48.6042
-13.4483
-68.5087
-173.684
-212.281
-250.88
-305.866
0
0
0
0
0
0
0
0
0
0
0
0
0
0
0
0
0
0
0
)
;
    }
    atmosphere
    {
        type            calculated;
        value           nonuniform List<scalar> 
46
(
-1.76091e-10
-1.86726e-10
-1.56778e-09
-1.82089e-08
-1.73124e-07
-1.36999e-06
-1.57527e-05
-0.000405864
-0.00197117
-0.00130924
-2.48607e-05
-1.32842e-08
-1.96084e-08
-9.49313e-09
-8.9297e-10
-1.45055e-11
-2.48071e-13
-5.53748e-16
-0
-0
-0
-0
-0
-0
-0
-0
-0
-0
-0
-0
-0
-0
-0
-0
-0
-0
-0
-0
-0
-0
-0
-0
-0
-0
-0.0896517
-0.00997495
)
;
    }
    defaultFaces
    {
        type            empty;
    }
}


// ************************************************************************* //
