/*--------------------------------*- C++ -*----------------------------------*\
| =========                 |                                                 |
| \\      /  F ield         | OpenFOAM: The Open Source CFD Toolbox           |
|  \\    /   O peration     | Version:  2012                                  |
|   \\  /    A nd           | Website:  www.openfoam.com                      |
|    \\/     M anipulation  |                                                 |
\*---------------------------------------------------------------------------*/
FoamFile
{
    version     2.0;
    format      ascii;
    class       volScalarField;
    location    "0.97";
    object      volumeFraction1;
}
// * * * * * * * * * * * * * * * * * * * * * * * * * * * * * * * * * * * * * //

dimensions      [0 0 0 0 0 0 0];


internalField   nonuniform List<scalar> 
2268
(
1
1
1
1
1
1
1
1
1
1
1
1
1
1
1
1
1
1
1
1
1
1
0.999932
1
1
1
1
1
1
1
1
1
1
1
1
1
1
1
1
1
1
1
1
1
1
0.999816
1
1
1
1
1
1
1
1
1
1
1
1
1
1
1
1
1
1
1
1
1
1
0.999784
1
1
1
1
1
1
1
1
1
1
1
1
1
1
1
1
1
1
1
1
1
1
0.999784
1
1
1
1
1
1
1
1
1
1
1
1
1
1
1
1
1
1
1
1
1
1
0.999784
1
1
1
1
1
1
1
1
1
1
1
1
1
1
1
1
1
1
0.999997
0.999997
1
1
0.999784
1
1
1
1
1
1
1
1
1
1
1
1
1
1
1
1
0.999985
0.99965
0.998557
0.999164
0.999911
0.999998
0.999952
1
1
1
1
1
1
1
1
1
1
1
1
1
0.999988
0.999717
0.997347
0.982718
0.913957
0.827648
0.866591
0.999998
0.999998
0.999998
0.770891
0.770891
0.760402
0.742374
0.832516
0.908
0.963531
0.98002
0.98002
0.978072
0.87148
0.836347
0.908287
0.974089
0.974089
0.97032
0.965062
0.981071
0.981526
0.550518
0.287193
0.11514
0.153827
0.317017
0.669192
0.960926
0.98002
0.98002
0.98002
0.98002
0.861216
0.915212
0.752027
0.639376
0.534004
0.502137
0.820151
0.985116
0.0913939
0.0155989
0.00702383
0.172625
0.504148
0.701134
0.971705
0.98002
0.98002
0.98002
0.98002
0.977848
0.977119
0.778101
0.515169
0.213619
0.213619
0.627949
0.985116
0.332558
0.0346296
0.0070239
0.159193
0.816807
0.971506
0.98002
0.98002
0.98002
0.970258
0.926438
0.978094
0.978094
0.96627
0.92446
0.566517
0.224416
0.785626
0.985116
0.655746
0.212253
0.00925136
0.00129599
0.179189
0.50113
0.98002
0.98002
0.857274
0.473765
0.310612
0.508025
0.901388
0.976231
0.976234
0.68128
0.620033
0.910414
0.990405
0.655749
0.355821
0.00983306
0.00129599
0.00510097
0.208022
0.891097
0.924252
0.244177
0.0625469
0.0625735
0.0625469
0.2478
0.722609
0.976231
0.726914
0.829982
0.984928
0.990405
0.655755
0.199502
0.00983488
0.0192227
0.0183768
0.127339
0.741335
0.713821
0.0537213
0.0673975
0.204015
0.215319
0.144955
0.1621
0.702444
0.857565
0.961416
0.981651
0.982397
0.692881
0.0838412
0.0460392
0.0844329
0.032885
0.0741573
0.669095
0.530491
0.0537189
0.323062
0.693188
0.597375
0.19279
0.125684
0.357752
0.896033
0.907285
0.932918
0.908507
1
1
1
1
1
1
1
1
1
0.999992
0.99989
0.999485
0.997701
0.988259
0.915742
0.741857
0.514748
0.391676
0.286777
0.319455
0.549273
0.878841
0.993663
1
1
1
1
1
1
1
1
1
0.982245
0.955654
0.915791
0.788139
0.583287
0.2491
0.0535518
0.00169882
0.00541808
0.0253406
0.104996
0.100727
0.353049
0.964047
1
0.999993
0.999876
1
1
0.856436
0.76931
0.858702
0.911058
0.869101
0.696016
0.319079
0.108984
0.0118641
0.000495463
0.00118015
0.00289594
0.0837876
0.556542
0.81452
0.703916
0.414729
0.762536
0.999995
0.999381
0.971905
0.695014
0.402353
0.257183
0.237149
0.37227
0.58514
0.587162
0.207362
0.0319167
0.0319158
0.0188747
0.000495487
0.000853705
0.0397071
0.556235
0.951917
0.951917
0.94945
0.74609
0.73184
0.999657
0.965108
0.478374
0.0670701
0.0670701
0.0708153
0.0621525
0.0893256
0.154808
0.100073
0.0960919
0.158134
0.245184
0.105483
0.000312657
0.00221043
0.258187
0.907536
0.951917
0.951917
0.916363
0.746088
0.76546
0.990879
0.631261
0.128997
0.084507
0.0592699
0.034862
0.00544343
0.00134646
0.00662018
0.0667804
0.245147
0.245184
0.245183
0.143275
0.000325904
0.00550511
0.371736
0.948094
0.95195
0.951917
0.947541
0.911705
0.920774
0.96511
0.402851
0.0612957
0.0529883
0.00945772
3.24339e-07
9.996e-05
5.05747e-07
0.00019714
0.0263032
0.153092
0.206716
0.0806903
0.00795551
0.00175269
0.00335571
0.162271
0.687549
0.951949
0.95195
0.951808
0.951917
0.951917
0.948907
0.293421
5.78978e-11
0.0115212
2.25431e-05
3.24285e-07
3.24339e-07
3.24285e-07
0.00170886
0.00537359
1.33365e-10
1.33365e-10
1.33365e-10
4.99434e-06
0.000998634
0.00142824
0.0186611
0.10846
0.475664
0.8224
0.911175
0.904637
0.75698
0.955233
0.304953
5.79851e-11
0.00035754
7.60089e-05
3.19656e-05
0.000475289
0.00285542
0.00342439
0.00169873
1.33365e-10
6.17654e-10
9.04939e-09
3.66941e-06
0.00170311
0.00323617
0.000933013
1.82932e-10
1.82932e-10
0.242495
0.757221
0.784579
0.280429
0.955232
0.348727
5.78978e-11
5.79248e-06
1.51579e-05
4.98862e-05
0.000248466
0.00215732
0.00296086
6.7694e-05
1.33365e-10
6.43965e-08
1.32854e-07
2.07052e-05
0.00121824
0.00207546
1.95064e-10
2.31094e-10
1.22707e-09
1.22693e-09
0.178764
0.496643
0.313077
0.94791
0.264472
5.79851e-11
1.82468e-08
5.83668e-07
1.07779e-05
3.95982e-05
0.00061086
0.00105825
0.000376958
1.33365e-10
4.01625e-07
4.69149e-07
3.97974e-06
3.17635e-05
1.61031e-05
1.94001e-10
2.05112e-09
9.12176e-09
0.000197461
0.00530881
0.134895
0.326426
0.50634
0.065954
2.47259e-05
5.77699e-11
6.03419e-09
1.26285e-07
4.68562e-06
3.84865e-05
4.65117e-05
7.61158e-10
1.4658e-07
5.10308e-07
4.5615e-07
1.3347e-10
1.33468e-10
1.3347e-10
4.68304e-09
5.78256e-09
2.82713e-08
4.25191e-06
0.000458382
0.0113843
0.117391
0.0205542
0.00418823
5.77699e-11
5.77697e-11
1.30059e-10
1.02496e-08
2.65567e-07
4.14161e-07
4.08648e-09
7.61155e-10
9.15554e-09
6.5213e-08
4.02417e-08
1.33468e-10
5.7889e-10
3.03987e-09
5.86331e-09
5.26225e-09
5.65814e-09
1.27639e-06
5.2378e-05
0.000567492
0.00575964
8.69719e-05
0.000136236
8.40206e-05
5.32301e-11
1.76381e-10
2.47198e-09
6.5453e-09
5.94272e-10
6.09131e-10
7.51305e-10
4.9535e-10
1.66413e-10
1.66419e-10
4.66766e-10
8.66635e-10
8.66632e-10
1.43208e-09
1.86846e-09
8.32454e-10
6.46688e-11
6.46685e-11
6.46688e-11
6.46685e-11
4.61258e-05
4.61641e-05
0.000302915
5.32385e-11
1.64379e-10
9.49686e-10
5.08444e-10
2.80246e-10
6.75116e-10
2.13961e-09
4.64438e-09
3.43501e-09
6.26459e-10
5.02544e-10
6.601e-10
2.9844e-10
8.16148e-11
6.46685e-11
6.46688e-11
6.46685e-11
1.55266e-09
1.73983e-06
0.000148222
0.0652781
4.15985e-23
0.000303185
5.32301e-11
8.89511e-11
2.4338e-10
1.96656e-10
2.80247e-10
7.21592e-10
2.28829e-09
3.74712e-09
1.78116e-09
2.34633e-10
3.34911e-10
3.54731e-10
2.11028e-10
1.0914e-10
7.70998e-11
7.27693e-11
6.46688e-11
7.42854e-10
3.9087e-05
0.000188994
0.172595
6.13699e-12
0.000129462
5.32385e-11
5.32301e-11
5.85612e-11
1.3151e-10
2.85826e-10
7.55004e-10
1.53393e-09
1.68005e-09
6.39158e-10
2.15034e-10
1.72174e-10
1.49549e-10
8.93399e-11
6.9663e-11
7.74842e-11
1.4377e-10
2.82521e-10
2.05209e-08
1.99485e-06
4.55398e-05
0.172667
-3.8246e-26
6.37446e-08
7.63571e-07
1.11655e-08
3.09316e-11
1.14606e-10
2.92743e-10
6.80367e-10
8.8829e-10
6.80969e-10
2.15709e-10
1.22139e-10
9.65569e-11
6.95061e-11
4.44092e-11
4.51001e-11
1.08481e-10
5.3665e-10
2.91697e-09
4.85543e-09
1.1719e-10
1.17184e-10
0.17267
6.50104e-05
8.035e-10
8.75015e-07
1.72113e-08
3.01427e-11
1.10327e-10
2.80424e-10
5.62538e-10
6.33661e-10
3.98984e-10
1.12049e-10
6.52422e-11
4.78215e-11
3.39483e-11
3.0227e-11
4.08961e-11
1.04681e-10
2.63511e-10
3.77679e-10
3.75587e-10
2.11426e-10
1.27149e-10
0.116143
0.000360484
8.022e-10
2.87878e-07
1.26317e-08
3.01085e-11
1.04064e-10
2.43205e-10
4.04963e-10
4.04546e-10
2.12989e-10
5.91686e-11
3.36861e-11
2.57659e-11
2.59338e-11
4.00698e-11
1.27708e-10
4.01456e-10
1.11393e-09
3.30647e-09
5.82266e-09
6.41162e-09
4.19721e-09
0.00509282
0.00024826
8.035e-10
1.88108e-08
1.71453e-09
3.01011e-11
9.38679e-11
1.93601e-10
2.6898e-10
2.37599e-10
9.94919e-11
2.92061e-11
1.89335e-11
2.06997e-11
4.64728e-11
1.87007e-10
7.35625e-10
2.87772e-09
1.00881e-08
1.68542e-08
1.77459e-08
1.64396e-08
4.43324e-09
1.52178e-05
0.000136817
8.022e-10
7.01962e-08
2.75616e-11
2.80972e-11
6.64401e-11
1.44291e-10
1.82679e-10
1.39758e-10
4.75056e-11
1.67983e-11
1.61578e-11
2.89276e-11
1.16547e-10
4.73056e-10
2.61854e-09
2.24709e-08
4.81917e-08
3.61194e-08
5.34759e-09
2.09269e-09
2.32068e-09
5.73752e-08
1.36725e-06
6.12408e-08
8.13076e-08
2.7561e-11
1.91107e-11
2.78311e-11
9.28034e-11
1.15565e-10
7.68596e-11
2.42673e-11
1.33187e-11
2.17294e-11
8.51396e-11
3.8638e-10
2.41221e-09
2.40212e-08
5.7157e-08
5.4548e-08
1.13687e-08
5.35094e-11
4.48064e-10
4.26543e-10
9.59905e-09
3.14278e-08
8.27786e-08
4.51336e-08
2.75616e-11
9.62285e-09
7.45413e-12
5.31867e-11
7.12133e-11
4.39315e-11
1.57163e-11
1.451e-11
5.61006e-11
2.62245e-10
1.61472e-09
1.89763e-08
5.7157e-08
5.71968e-08
2.82759e-08
2.94364e-11
5.3511e-11
1.11826e-10
9.03076e-11
9.59886e-09
1.70634e-08
5.51378e-08
2.7618e-11
2.75593e-11
1.21079e-07
7.45427e-12
3.06616e-11
4.47094e-11
2.28885e-11
7.3421e-12
6.13295e-12
1.1946e-11
8.13176e-11
2.61647e-09
3.73379e-08
5.71968e-08
4.61812e-08
1.87906e-10
2.95059e-11
4.01854e-11
5.18958e-11
4.00059e-11
9.59845e-09
9.10769e-09
4.60541e-08
1.27117e-07
5.99806e-07
4.30754e-07
7.45413e-12
1.88834e-11
2.99322e-11
1.96718e-11
2.22701e-11
1.03859e-10
4.70961e-10
2.49886e-09
2.82056e-08
6.37425e-08
3.17995e-08
4.40793e-09
3.2661e-11
3.26604e-11
3.88755e-11
3.93901e-11
2.63081e-11
9.59886e-09
7.81418e-09
2.36079e-07
4.19363e-06
5.18169e-06
1.35894e-06
7.45427e-12
1.11355e-11
2.06828e-11
1.83063e-11
5.82358e-11
3.23468e-10
2.733e-09
3.49851e-08
7.65036e-08
6.3698e-08
5.13579e-10
3.75191e-11
4.82061e-11
4.1138e-11
3.16499e-11
2.54061e-11
1.32053e-11
8.13534e-09
7.81271e-09
9.41874e-07
5.79079e-06
1.54147e-05
4.71522e-06
7.45413e-12
7.74963e-12
1.40243e-11
1.27593e-11
5.91945e-11
4.64097e-10
9.16129e-09
6.47555e-08
7.63865e-08
4.28024e-08
1.00674e-11
2.26132e-11
4.05102e-11
2.94202e-11
1.67471e-11
9.42796e-12
3.97578e-12
5.34193e-09
7.76896e-08
2.35279e-06
3.13375e-06
3.16884e-05
1.10054e-05
7.45427e-12
7.45413e-12
1.06298e-11
9.70342e-12
2.86604e-11
2.42051e-10
4.2342e-09
4.66972e-08
7.14309e-08
7.70212e-09
1.00676e-11
1.2915e-11
1.72688e-11
1.00829e-11
4.69213e-12
2.18476e-12
7.65611e-13
5.00348e-09
9.91789e-07
1.76242e-06
5.883e-07
6.92532e-05
1.89131e-05
7.45413e-12
7.45427e-12
8.8399e-12
1.66737e-11
2.26587e-11
2.26595e-11
1.078e-09
2.05288e-08
1.56912e-08
6.10067e-10
1.41937e-11
1.02289e-11
4.74986e-12
2.20795e-12
9.17093e-13
3.28062e-13
8.35727e-14
5.00348e-09
9.32186e-07
2.22995e-07
2.16504e-07
8.77903e-05
2.31158e-05
9.67629e-09
7.45413e-12
1.2467e-11
9.96077e-11
9.1911e-10
7.00317e-09
1.92637e-08
3.91898e-08
9.32124e-10
7.69012e-11
5.93366e-11
9.85044e-12
1.79504e-12
4.17095e-13
1.29976e-13
3.16912e-14
4.90201e-15
5.00348e-09
8.75351e-08
5.5161e-08
5.96615e-05
8.78469e-05
1.55907e-05
1.22039e-08
7.83824e-12
1.50272e-11
1.73501e-10
2.21703e-09
4.46583e-08
1.64352e-07
2.91025e-08
2.86533e-12
3.90489e-11
4.33639e-11
6.81242e-12
6.81786e-13
7.06327e-14
1.35202e-14
1.89964e-15
1.46443e-16
5.00348e-09
5.00348e-09
2.61199e-05
0.000107753
7.42544e-05
3.16509e-06
2.36178e-09
8.20693e-12
2.03015e-11
4.63047e-10
2.35753e-08
1.69795e-07
1.74051e-07
3.17897e-08
2.8653e-12
1.35725e-11
1.48259e-11
2.39736e-12
1.99237e-13
1.119e-14
1.07891e-15
6.89377e-17
7.11417e-18
7.06669e-05
7.71729e-05
0.000107753
0.000107943
2.75727e-05
4.035e-07
3.28164e-10
1.00494e-11
2.39972e-11
7.55261e-10
5.94748e-08
1.76343e-07
1.74037e-07
2.8653e-12
2.86748e-12
5.25219e-12
3.47413e-12
5.75511e-13
4.28665e-14
1.50277e-15
5.99629e-17
1.28462e-18
4.14137e-19
4.61118e-05
7.83612e-05
9.52136e-05
5.22861e-05
3.10385e-06
6.01906e-08
1.87947e-10
1.18729e-11
3.82678e-11
9.16557e-10
4.81264e-08
1.72472e-07
7.55406e-08
2.86529e-12
2.8653e-12
2.86684e-12
8.247e-13
1.21291e-13
7.30688e-15
1.60926e-16
1.97045e-18
8.2281e-20
2.30708e-20
1.62708e-06
9.19533e-06
1.32434e-05
1.96242e-06
2.56639e-07
1.20678e-08
1.54193e-10
1.23577e-11
4.90517e-11
9.53511e-10
2.00815e-08
3.7876e-08
4.86581e-09
2.8653e-12
4.92961e-12
1.76209e-12
2.48016e-13
2.41044e-14
9.76654e-16
1.13141e-17
2.63586e-20
4.09898e-21
1.03878e-21
9.50049e-10
5.60928e-09
1.87684e-09
3.52048e-09
2.64019e-09
1.27167e-09
6.83856e-11
1.45933e-11
3.76984e-11
4.62154e-10
4.83538e-09
1.44216e-08
7.39452e-12
3.4114e-11
8.29901e-12
1.34249e-12
9.29852e-14
4.94486e-15
1.09117e-16
4.48968e-19
1.77995e-21
2.05993e-22
4.35168e-23
4.8938e-12
3.18189e-12
1.01929e-12
9.3548e-12
6.54467e-11
1.6015e-10
2.91255e-11
1.35317e-11
1.35041e-11
1.23405e-11
1.234e-11
1.02195e-08
5.89097e-12
3.63426e-11
7.51179e-12
8.43992e-13
3.23309e-14
9.44155e-16
9.17554e-18
3.2077e-21
6.91458e-23
6.90247e-24
1.34074e-24
1.8162e-12
8.27737e-13
5.15502e-13
3.07537e-12
1.98819e-11
3.28337e-11
4.32771e-11
1.234e-11
1.23405e-11
2.93668e-08
5.86598e-08
1.48151e-10
6.07063e-12
2.10651e-11
4.29352e-12
3.03194e-13
9.31114e-15
1.57591e-16
5.50831e-19
5.31921e-23
2.59923e-24
2.06813e-25
3.44687e-26
5.55688e-13
2.37283e-13
2.20415e-13
1.23422e-12
7.03363e-12
1.99011e-11
1.82648e-10
4.38106e-09
6.6955e-08
3.8329e-07
2.07323e-07
2.31874e-12
4.81531e-12
7.92677e-12
1.51653e-12
7.8318e-14
2.04743e-15
1.95412e-17
1.5694e-20
8.3166e-25
3.6287e-26
2.87338e-27
5.06122e-28
1.46978e-13
6.52348e-14
1.29303e-13
9.46684e-13
5.43992e-12
1.72404e-11
2.92563e-10
4.88242e-08
3.55215e-07
3.83715e-07
1.40923e-07
2.31874e-12
3.47466e-12
4.30055e-12
5.58159e-13
1.65405e-14
3.58875e-16
1.76833e-18
4.0643e-23
6.62204e-27
2.16816e-28
1.83973e-29
3.76281e-30
3.07365e-14
3.25928e-14
2.73655e-13
3.17835e-12
3.02187e-11
2.39131e-10
2.74962e-09
7.08433e-08
3.44066e-07
2.28528e-07
4.33943e-09
2.31874e-12
3.42264e-12
1.65702e-12
1.55867e-13
2.53192e-15
4.33005e-17
9.66564e-20
-1.54977e-59
1.29945e-34
8.32109e-37
7.75381e-38
7.31884e-39
0.99617
0.996162
0.854718
0.743766
0.996162
0.827968
0.775213
0.823545
0.741706
0.741756
0.905382
0.9054
0.78181
0.950741
0.950741
0.83629
0.950741
0.950741
0.950082
0.70527
0.950741
0.950741
0.783291
0.349381
0.790556
0.353581
0.134327
0.0261354
0.124515
0.00488807
0.00488812
0.000917117
0.0256766
0.00563056
0.00502303
0.0236221
0.0369894
0.0243466
0.0262258
0.0279188
0.179649
0.0919151
0.0560627
0.0732007
0.192079
0.118016
0.0593442
0.0732006
0.0216492
0.0195662
0.0136842
0.0108439
0.000143565
0.000470919
0.000419689
0.000836375
0.000414528
0.000263653
8.88803e-08
8.88848e-08
0.000141588
2.98471e-07
2.98413e-07
4.7313e-07
0.000122134
2.72291e-05
3.02507e-07
1.21206e-06
2.39494e-07
1.93065e-05
3.13956e-05
3.13865e-05
1.17184e-10
1.1719e-10
1.17184e-10
1.1719e-10
1.41423e-09
1.02146e-09
7.67647e-10
5.81438e-10
3.81784e-10
4.2628e-10
6.48815e-10
6.47163e-10
1.5642e-10
1.41022e-10
1.34799e-10
9.98274e-11
4.14237e-11
2.81993e-11
2.03474e-11
1.4401e-11
2.42702e-11
1.77103e-11
1.28049e-11
9.11805e-12
1.78409e-11
1.21321e-11
7.9747e-12
5.16992e-12
1.1394e-11
6.9679e-12
4.13955e-12
2.48157e-12
4.90792e-12
2.76524e-12
1.53312e-12
8.6807e-13
1.38012e-12
7.25513e-13
3.76204e-13
2.037e-13
2.23633e-13
1.04939e-13
5.02916e-14
2.79667e-14
1.68108e-14
6.8964e-15
3.79522e-15
2.48193e-15
7.26114e-16
4.50106e-16
3.03396e-16
2.05545e-16
5.07734e-17
3.4598e-17
2.35277e-17
1.61569e-17
3.47195e-18
2.35833e-18
1.60695e-18
1.11048e-18
1.97845e-19
1.34448e-19
9.20297e-20
6.40652e-20
1.05148e-20
7.06845e-21
4.81342e-21
3.34712e-21
4.59927e-22
3.06769e-22
2.07909e-22
1.44249e-22
1.81365e-23
1.18873e-23
7.95464e-24
5.46705e-24
5.41806e-25
3.49839e-25
2.31415e-25
1.57762e-25
1.32496e-26
8.35326e-27
5.40707e-27
3.62075e-27
1.95953e-28
1.22913e-28
7.92509e-29
5.29678e-29
1.4905e-30
9.35628e-31
6.02444e-31
4.0097e-31
1.11467e-39
4.46544e-40
1.84599e-40
8.17106e-41
0.726716
0.231309
0.186109
0.112864
0.014749
0.0406454
0.666175
0.352165
0.0551452
0.483946
0.720743
0.720623
0.516451
0.336817
0.672192
0.896448
0.867098
0.718819
0.650436
0.728118
0.278695
0.163508
0.163503
0.0147493
0.211545
0.659412
0.19647
0.0537103
0.264935
0.672707
0.624762
0.515035
0.548528
0.554325
0.468147
0.237772
0.123464
0.0981465
0.662961
0.404435
0.79731
0.828638
0.695036
0.848049
0.606741
0.0537103
0.0537213
0.233668
0.237407
0.0432686
9.69848e-06
9.69848e-06
9.69848e-06
9.69848e-06
9.69848e-06
9.69848e-06
0.000155246
0.618115
0.604361
0.842075
0.828634
0.816327
0.848018
0.802578
0.256078
0.0550705
0.0720823
0.135443
0.0385333
0.00100849
2.98759e-05
9.98225e-06
9.69848e-06
1.07579e-05
9.01784e-05
9.55404e-05
0.430726
0.266043
0.233487
0.0997211
0.136599
0.227384
0.373057
0.584707
0.584735
0.556927
0.347248
0.0785794
0.0152566
0.00489596
0.00059203
0.000126832
0.000192084
0.00011068
7.88541e-05
0.0994146
0.000801453
0.00727693
0.00447224
0.00142452
1.1725e-05
1.17251e-05
0.0414667
0.0665983
4.13637e-07
4.13659e-07
0.0234363
0.0343599
0.0312757
0.0142023
0.000890548
0.000458739
9.26514e-05
7.7974e-05
0.0056038
0.000801592
0.00485427
0.0148733
0.0182523
0.000965358
1.17252e-05
3.9163e-07
3.91629e-07
2.52703e-06
4.13662e-07
3.8217e-07
0.0174998
0.0325404
0.0325128
0.00830243
0.000336212
6.71461e-05
6.16662e-05
0.000918031
0.00104359
0.00662138
0.0734156
0.0415077
1.64289e-05
1.64289e-05
0.000105976
0.000126031
5.15807e-05
3.47826e-07
3.8215e-07
3.8217e-07
0.00674383
0.0173325
0.00621962
0.000149039
8.00832e-05
2.33201e-05
0.0474487
0.0622425
0.0986961
0.0993075
0.0447704
4.36043e-05
2.33872e-05
2.49867e-05
1.33318e-05
2.99671e-07
3.47816e-07
4.07434e-07
4.07436e-07
3.91646e-07
3.91629e-07
0.000753596
5.45397e-05
4.5272e-05
1.19261e-10
0.0532116
0.0882494
0.09807
0.079687
0.0207794
0.000205142
1.41021e-06
2.76395e-06
2.99671e-07
2.9964e-07
2.99232e-07
2.95239e-07
7.4284e-07
1.04341e-06
1.89289e-06
3.25705e-06
1.01314e-05
3.98852e-06
1.19261e-10
0.0231865
0.00766711
0.00957261
1.14854e-05
1.14925e-05
2.45589e-05
1.41006e-06
3.02115e-07
3.00325e-07
4.55279e-07
4.55176e-07
3.64606e-08
5.06946e-09
5.06922e-09
5.06524e-09
5.0655e-09
5.06552e-09
2.47859e-09
5.36523e-10
0.0512873
0.00766695
0.000543274
0.000543284
0.000113178
1.35866e-06
1.35881e-06
2.34633e-06
1.26632e-06
4.32113e-07
2.98233e-07
1.36091e-08
2.2127e-08
3.17396e-08
4.38354e-08
4.62065e-08
3.02251e-09
1.89777e-09
2.74603e-08
0.00480579
0.0122127
0.0122103
0.00106168
1.4236e-05
1.42949e-05
4.37867e-07
1.54014e-06
1.48813e-06
5.9465e-07
2.70357e-08
1.36087e-08
8.53959e-08
1.79097e-07
1.91688e-07
6.74136e-08
2.95418e-09
3.18766e-09
2.30854e-07
0.00186999
0.00758653
0.00851878
0.000768686
1.42201e-05
3.80223e-05
4.3796e-07
4.37808e-07
3.32205e-07
5.81339e-07
8.43185e-08
6.02054e-09
5.71429e-08
1.91143e-07
1.91688e-07
4.87391e-08
1.9985e-10
1.79732e-08
2.94523e-07
8.88803e-08
8.88848e-08
0.000404029
0.000466579
3.13587e-05
3.81305e-05
5.4505e-07
5.15408e-07
7.88252e-08
7.05955e-08
4.99408e-08
6.02061e-09
7.69818e-10
3.46583e-08
9.01108e-08
3.04617e-08
1.9985e-10
1.04333e-07
2.94568e-07
4.702e-07
3.05119e-06
1.05207e-05
3.14095e-05
4.20532e-05
1.14906e-05
1.51483e-06
4.31585e-07
9.08499e-09
1.87601e-10
1.85356e-10
2.5927e-09
9.42213e-10
2.04102e-10
2.05275e-10
3.09505e-09
1.9985e-10
1.61682e-07
2.94523e-07
1.6883e-06
5.69353e-07
1.64174e-07
7.82382e-07
3.90354e-06
7.90874e-07
4.15439e-07
1.10922e-10
3.71957e-10
2.8285e-09
8.2923e-10
4.41255e-09
5.37676e-08
4.54836e-08
4.22382e-09
9.52676e-10
1.9985e-10
1.15389e-07
1.42646e-07
3.09107e-05
4.89379e-06
6.1735e-09
6.17348e-09
6.95046e-09
5.09432e-11
5.12288e-11
4.36009e-10
3.446e-09
1.84508e-08
1.3874e-08
1.93381e-08
2.66198e-07
4.69325e-07
1.18454e-07
5.30383e-09
3.62491e-10
1.11227e-08
2.73734e-09
1.17184e-10
1.1719e-10
6.19198e-09
7.90261e-09
6.99006e-11
6.97942e-11
1.6033e-10
5.21517e-10
1.86741e-09
2.7607e-08
1.35887e-07
1.5757e-07
3.20411e-07
5.14123e-07
5.0498e-07
4.63071e-08
9.08182e-10
9.08192e-10
1.72287e-09
4.23318e-10
3.07091e-10
2.69816e-10
2.4192e-10
1.33928e-10
1.10161e-10
1.83016e-10
3.20868e-10
6.09321e-10
7.1627e-09
2.17638e-07
3.80676e-07
2.12949e-07
3.69098e-07
5.73081e-07
1.92657e-07
4.25729e-09
1.50618e-09
2.67629e-09
5.26483e-10
1.97396e-10
7.39566e-11
4.1494e-11
4.0735e-11
5.55276e-11
9.10457e-11
1.22956e-10
1.91779e-10
1.90919e-09
8.93808e-08
3.80652e-07
2.13966e-07
1.45258e-07
5.73076e-07
3.38956e-07
1.48802e-08
3.29129e-09
4.97298e-09
5.43073e-11
1.76901e-11
1.13233e-11
1.05819e-11
1.50843e-11
2.29065e-11
3.14723e-11
4.57981e-11
8.90223e-11
2.14768e-10
2.14785e-10
3.69549e-07
1.06089e-06
1.45342e-07
4.6018e-07
4.55027e-07
3.84652e-08
6.97755e-09
5.57514e-09
8.94873e-12
4.90927e-12
3.83392e-12
3.72024e-12
4.9505e-12
7.10925e-12
9.91698e-12
1.68914e-11
3.81095e-11
7.93063e-11
5.84203e-10
1.2134e-07
1.40591e-06
9.04634e-07
4.12622e-07
4.88607e-07
8.37648e-08
1.62715e-08
5.57511e-09
5.34387e-12
2.07551e-12
1.14758e-12
9.92958e-13
1.2044e-12
1.86978e-12
3.03685e-12
6.41893e-12
1.65962e-11
3.17348e-11
3.9486e-11
3.9487e-11
1.40591e-06
4.60758e-06
1.10731e-06
4.80526e-07
1.13114e-07
1.72848e-08
7.99957e-08
2.63683e-12
6.82845e-13
2.64276e-13
1.98429e-13
2.25916e-13
3.97012e-13
7.68578e-13
1.84596e-12
5.12059e-12
1.51555e-11
5.06125e-11
2.81467e-09
5.84311e-07
5.21028e-06
5.22115e-06
3.36109e-07
1.27384e-07
5.19741e-08
1.73739e-07
1.15504e-12
2.22673e-13
5.53559e-14
3.13298e-14
3.24921e-14
6.53933e-14
1.61322e-13
5.42442e-13
2.50425e-12
1.34483e-11
6.64589e-11
3.89469e-10
9.05293e-09
1.28938e-06
5.21028e-06
3.10425e-07
1.6743e-07
1.72638e-07
1.73739e-07
3.84495e-13
6.79419e-14
1.20315e-14
4.03218e-15
3.67646e-15
8.58727e-15
3.15424e-14
1.71917e-13
1.19976e-12
8.36295e-12
4.80132e-11
1.10506e-10
1.10511e-10
2.33824e-08
3.52911e-06
2.48981e-07
1.4155e-07
1.73739e-07
1.73739e-07
9.09359e-14
1.71504e-14
2.65935e-15
5.04646e-16
3.33752e-16
9.50037e-16
5.84922e-15
4.76366e-14
4.03314e-13
2.92763e-12
1.65392e-11
1.03296e-10
1.70901e-09
2.02981e-08
1.21941e-07
4.46994e-07
1.04812e-07
7.76274e-08
6.6506e-08
1.34683e-14
2.99014e-15
5.03968e-16
7.1159e-17
2.62331e-17
9.19973e-17
8.77342e-16
8.86811e-15
8.22605e-14
6.22486e-13
3.28914e-12
6.39348e-12
4.01132e-12
1.95873e-08
5.04394e-06
1.37186e-05
1.65553e-07
8.85229e-09
8.71694e-09
1.29938e-15
3.56493e-16
7.38197e-17
1.08608e-17
2.1614e-18
6.3321e-18
7.47365e-17
8.14079e-16
7.55779e-15
5.49093e-14
2.08965e-13
3.43793e-13
1.5105e-12
2.05154e-09
7.04032e-06
3.37353e-05
6.67058e-07
8.71694e-09
8.7169e-09
1.12768e-16
3.5742e-17
8.81114e-18
1.5046e-18
2.06432e-19
1.82894e-19
2.22573e-18
2.45802e-17
2.20253e-16
1.47725e-15
8.76186e-15
1.68612e-13
4.27207e-12
2.59231e-09
3.30181e-06
3.37378e-05
2.96636e-06
2.02621e-08
4.81582e-07
9.08219e-18
3.11735e-18
8.62841e-19
1.68937e-19
2.14994e-20
1.88672e-21
2.37153e-21
2.57746e-20
5.59986e-19
4.81109e-17
4.75594e-15
3.24198e-13
1.33507e-11
1.10068e-09
5.02406e-07
9.91709e-06
6.64968e-06
7.23084e-08
1.02999e-06
6.33503e-19
2.30142e-19
6.97444e-20
1.53763e-20
2.19327e-21
1.31672e-22
1.31319e-23
3.60736e-22
8.30333e-20
1.69609e-17
2.79831e-15
3.02725e-13
1.91662e-11
2.86309e-10
-3.71721e-26
-3.32864e-26
1.66272e-05
9.77265e-07
1.02995e-06
3.71127e-20
1.41849e-20
4.68998e-21
1.1566e-21
1.89607e-22
1.0071e-23
7.9818e-25
1.02677e-25
2.78653e-24
4.03595e-22
4.28416e-20
7.39131e-19
-2.60714e-29
-1.63676e-27
-6.69545e-26
-2.28184e-24
3.02925e-05
2.89487e-06
9.87445e-07
1.95056e-21
7.71635e-22
2.75216e-22
7.52991e-23
1.42979e-23
6.83174e-25
4.63101e-26
5.61038e-27
2.34519e-28
9.35285e-30
-1.75487e-49
-8.58586e-34
-1.02304e-30
-1.28665e-28
-1.28293e-26
-2.04426e-24
3.02923e-05
5.68121e-06
7.38649e-07
8.43194e-23
3.40751e-23
1.29079e-23
3.9005e-24
8.7275e-25
4.12518e-26
2.61906e-27
3.07159e-28
2.18703e-29
1.21312e-30
9.32278e-32
5.57729e-33
2.40041e-34
-4.40481e-30
-2.6894e-27
-1.19367e-24
3.02849e-05
9.19612e-06
3.80862e-07
3.17762e-24
1.29722e-24
5.15858e-25
1.69126e-25
4.36397e-26
2.614e-27
1.73345e-28
1.56767e-29
1.32342e-30
9.11038e-32
5.26419e-33
2.3637e-34
9.01941e-36
-6.38484e-31
-6.20283e-28
-4.51134e-25
3.02805e-05
1.02152e-05
1.2848e-07
9.13578e-26
3.76077e-26
1.54878e-26
5.36845e-27
1.54686e-27
1.17902e-28
8.63192e-30
6.93099e-31
5.68702e-32
4.22979e-33
2.75726e-34
1.46302e-35
6.58315e-37
-7.4495e-32
-1.18077e-28
-9.66816e-26
3.02672e-05
1.17046e-05
1.28489e-07
2.06521e-27
8.5283e-28
3.66256e-28
1.32275e-28
4.29441e-29
4.37822e-30
3.53304e-31
2.67943e-32
2.03299e-33
1.48823e-34
1.0015e-35
5.75409e-37
2.8503e-38
-6.46004e-33
-1.70579e-29
-9.92863e-27
2.16344e-05
2.09298e-05
4.65966e-07
3.0237e-29
1.2658e-29
5.53591e-30
2.04206e-30
6.77736e-31
7.43266e-32
6.36109e-33
4.95859e-34
3.73981e-35
2.73212e-36
1.85912e-37
1.10934e-38
5.77351e-40
-3.7381e-34
-1.61559e-30
-2.03183e-27
6.75986e-07
2.06875e-05
1.17655e-06
2.27513e-31
9.60237e-32
4.32777e-32
1.63576e-32
5.84059e-33
7.9942e-34
7.76114e-35
6.34791e-36
4.74363e-37
3.37745e-38
2.24236e-39
1.33208e-40
6.98427e-42
-9.96695e-36
-7.16423e-32
-3.44025e-28
-1.46327e-28
4.60933e-06
1.17229e-06
2.75379e-41
3.32029e-42
3.73786e-43
2.26127e-44
1.40863e-45
7.33805e-47
3.92686e-48
1.24465e-49
1.87443e-51
3.17251e-54
-1.02372e-52
-5.53659e-53
-1.87956e-53
-8.22324e-54
-1.26345e-53
-2.92405e-29
-5.20239e-29
1.56486e-05
1.74112e-06
)
;

boundaryField
{
    leftWall
    {
        type            zeroGradient;
    }
    rightWall
    {
        type            zeroGradient;
    }
    lowerWall
    {
        type            zeroGradient;
    }
    atmosphere
    {
        type            inletOutlet;
        inletValue      uniform 0;
        value           nonuniform List<scalar> 
46
(
3.07365e-14
3.25928e-14
2.73655e-13
3.17835e-12
3.02187e-11
2.39131e-10
2.74962e-09
7.08433e-08
3.44066e-07
2.28528e-07
4.33943e-09
2.31874e-12
3.42264e-12
1.65702e-12
1.55867e-13
2.53192e-15
4.33005e-17
9.66564e-20
0
0
0
0
0
0
0
0
0
0
0
0
0
0
0
0
0
0
0
0
0
0
0
0
0
0
1.56486e-05
1.74112e-06
)
;
    }
    defaultFaces
    {
        type            empty;
    }
}


// ************************************************************************* //
