/*--------------------------------*- C++ -*----------------------------------*\
| =========                 |                                                 |
| \\      /  F ield         | OpenFOAM: The Open Source CFD Toolbox           |
|  \\    /   O peration     | Version:  3.0.1                                 |
|   \\  /    A nd           | Web:      www.OpenFOAM.org                      |
|    \\/     M anipulation  |                                                 |
\*---------------------------------------------------------------------------*/
FoamFile
{
    version     2.0;
    format      ascii;
    class       volScalarField;
    location    "0.0001";
    object      minKappa;
}
// * * * * * * * * * * * * * * * * * * * * * * * * * * * * * * * * * * * * * //

dimensions      [0 0 0 0 0 0 0];

internalField   nonuniform List<scalar> 
1000
(
4.01798e-11
3.71743e-11
3.73279e-11
4.0458e-11
4.8351e-11
6.96448e-11
6.88663e-11
7.66412e-11
8.64236e-11
1.99982e-11
6.0127e-11
7.02231e-10
2.00312e-09
1.53399e-09
1.68277e-09
1.4198e-09
1.69003e-09
3.08812e-09
4.9059e-09
7.13484e-09
9.68571e-09
1.17302e-08
1.22811e-08
8.72013e-09
5.41226e-09
3.9748e-08
1.09741e-07
2.39917e-07
5.09939e-07
8.38897e-07
1.13189e-06
1.93098e-06
2.84049e-06
4.24896e-06
6.379e-06
9.01953e-06
1.23731e-05
1.60195e-05
2.03427e-05
2.33724e-05
1.98169e-05
1.05568e-05
9.59419e-06
3.83292e-05
7.04516e-05
0.000286511
0.000375504
0.000731242
0.00032679
0.00349817
0.000459312
0.000806045
0.00020603
0.000179065
7.44827e-05
4.36939e-05
1.20588e-05
3.52587e-05
5.97538e-05
5.1499e-05
4.02614e-05
3.11564e-05
2.09555e-05
1.33421e-05
7.13816e-06
3.24278e-06
3.55737e-06
5.3366e-07
7.76338e-07
1.17707e-06
1.03063e-06
1.30213e-06
5.90543e-07
7.03637e-07
5.57257e-07
3.82436e-07
2.73887e-07
1.95505e-07
1.42048e-07
9.89026e-08
5.2968e-08
5.49328e-08
2.01535e-08
1.96703e-08
1.35518e-08
8.2484e-09
5.35253e-09
3.45302e-09
2.17828e-09
1.36969e-09
8.52896e-10
5.1991e-10
3.07246e-10
1.73031e-10
9.57189e-11
4.61512e-11
1.85031e-11
3.96003e-12
5.69943e-12
6.5142e-12
4.01798e-11
3.71743e-11
3.73279e-11
4.0458e-11
4.8351e-11
6.96448e-11
6.88663e-11
7.66412e-11
8.64236e-11
1.99982e-11
6.0127e-11
5.06083e-10
4.84423e-10
1.26074e-09
1.22577e-09
7.25537e-10
1.16733e-09
1.4389e-09
1.96651e-09
2.06232e-09
5.26613e-10
2.88675e-09
1.22811e-08
8.72013e-09
5.41226e-09
3.9748e-08
1.09741e-07
2.39917e-07
5.09939e-07
8.38897e-07
1.13189e-06
1.93098e-06
2.84049e-06
4.24896e-06
6.379e-06
9.01953e-06
1.23731e-05
1.60195e-05
2.03427e-05
2.33724e-05
1.98169e-05
1.05568e-05
9.59419e-06
3.83292e-05
4.62731e-05
9.46436e-05
0.000217633
0.000731242
0.00032679
0.00349817
0.000459312
0.000806045
0.00020603
0.000179065
7.44827e-05
1.52566e-05
1.20588e-05
1.5648e-05
5.97538e-05
5.1499e-05
4.02614e-05
3.11564e-05
2.09555e-05
1.33421e-05
1.82231e-06
3.24278e-06
3.32902e-06
1.07385e-07
7.76338e-07
1.17707e-06
1.03063e-06
1.30213e-06
5.90543e-07
7.03637e-07
5.57257e-07
3.82436e-07
2.73887e-07
1.95505e-07
1.42048e-07
9.89026e-08
5.2968e-08
5.31756e-08
2.01535e-08
1.96703e-08
1.35518e-08
8.2484e-09
5.35253e-09
3.37756e-09
2.11212e-09
1.19287e-09
6.88449e-10
3.89663e-10
1.69378e-10
8.65715e-11
2.1646e-11
5.7982e-12
1.85031e-11
3.96003e-12
5.69943e-12
6.5142e-12
5.61495e-11
5.97945e-11
6.62711e-11
7.29376e-11
6.72492e-11
1.85651e-10
2.03265e-10
2.59568e-10
3.27438e-10
4.33085e-10
6.25641e-10
5.06083e-10
4.84423e-10
1.26074e-09
1.22577e-09
7.25537e-10
1.16733e-09
1.4389e-09
1.96651e-09
2.06232e-09
5.26613e-10
2.88675e-09
1.79742e-08
1.78174e-08
5.01973e-08
1.27677e-07
2.69897e-07
4.76468e-07
7.17618e-07
1.26868e-06
2.12109e-06
3.16598e-06
4.66135e-06
6.85226e-06
9.7365e-06
1.36704e-05
1.81839e-05
2.40995e-05
3.0479e-05
3.76221e-05
2.95102e-05
1.44824e-05
3.05054e-05
4.37886e-05
4.62731e-05
9.46436e-05
0.000217633
0.000931057
0.000241286
0.00258571
0.000460428
0.000926423
0.000278302
0.000189679
0.000103216
1.52566e-05
2.68031e-05
1.5648e-05
6.03712e-05
5.29551e-05
3.43165e-05
3.71633e-05
3.21248e-05
1.98839e-05
1.82231e-06
5.75187e-06
3.32902e-06
1.07385e-07
1.52863e-06
2.88105e-07
7.16287e-07
5.75104e-07
3.69609e-07
3.49434e-07
2.88866e-07
2.05615e-07
1.21924e-07
8.50859e-08
5.94258e-08
3.82069e-08
1.62771e-08
1.31221e-08
7.94858e-09
1.37316e-09
1.76338e-09
1.674e-09
8.81375e-10
1.16711e-09
1.39594e-09
1.00278e-09
6.88449e-10
3.89663e-10
1.69378e-10
8.65715e-11
2.1646e-11
5.7982e-12
2.14922e-11
3.06903e-11
2.66032e-11
3.22213e-11
9.71888e-11
9.9729e-11
1.17726e-10
1.6145e-10
2.18618e-10
3.07008e-10
4.21971e-10
5.82526e-10
8.1033e-10
1.13997e-09
1.55891e-09
1.95691e-09
3.22039e-09
4.37832e-09
4.6366e-09
8.17571e-09
1.12514e-08
1.52694e-08
1.91786e-08
2.73026e-08
3.68986e-08
6.62803e-08
7.10924e-08
1.3438e-07
1.95524e-07
2.52667e-07
4.67313e-07
7.75054e-07
1.05119e-06
1.59148e-06
3.44575e-06
4.58764e-06
5.14268e-06
7.07823e-06
9.97697e-06
1.52186e-05
1.95637e-05
2.76645e-05
3.65126e-05
3.76773e-05
4.10029e-05
5.40919e-05
5.36923e-05
8.39473e-05
0.000125932
0.000179487
0.000122348
8.7123e-05
9.42287e-05
0.000520092
0.000460428
0.000108
0.00021844
0.000181402
4.80436e-05
0.000165497
6.7121e-05
0.00012657
9.37853e-05
7.60375e-05
3.43165e-05
4.72362e-05
3.68829e-05
1.6773e-05
4.10491e-06
5.75187e-06
5.90491e-06
1.16579e-06
1.99893e-06
2.88105e-07
7.16287e-07
5.75104e-07
3.69609e-07
3.49434e-07
2.88866e-07
2.05615e-07
1.21924e-07
8.50859e-08
5.94258e-08
3.82069e-08
1.62771e-08
1.31221e-08
7.94858e-09
1.37316e-09
1.76338e-09
1.674e-09
8.81375e-10
1.16711e-09
1.39594e-09
1.00278e-09
8.60993e-10
6.92608e-10
5.15375e-10
4.73974e-10
2.72313e-10
2.65156e-10
1.75592e-10
1.22503e-10
1.28835e-10
1.07844e-10
1.34244e-10
1.51394e-10
1.88523e-10
2.52267e-10
3.51002e-10
5.00288e-10
7.08769e-10
1.00333e-09
1.41487e-09
2.04174e-09
2.9947e-09
4.40274e-09
7.53825e-09
8.99712e-09
1.05782e-08
1.89722e-08
2.25294e-08
4.06549e-08
4.70708e-08
7.29037e-08
1.15735e-07
1.24678e-07
2.26206e-07
2.63996e-07
3.83217e-07
5.56874e-07
6.3874e-07
8.6899e-07
1.0626e-06
1.77659e-06
3.44575e-06
5.49449e-06
5.23847e-06
5.47842e-06
8.89996e-06
1.38133e-05
8.16722e-06
1.88801e-05
2.16351e-05
3.25178e-05
2.74256e-05
3.41142e-05
3.98926e-05
3.64435e-05
2.72702e-05
1.64801e-05
1.77218e-05
1.67677e-05
1.28039e-05
0.000260279
8.51668e-06
0.000108
0.000126778
0.000162451
4.80436e-05
7.18152e-05
3.53141e-05
3.95328e-05
4.71033e-05
7.66735e-05
5.15365e-05
9.9976e-06
1.76303e-05
1.6773e-05
4.10491e-06
7.13186e-06
1.31414e-05
4.13869e-06
5.20934e-06
2.09029e-06
1.84088e-06
1.6054e-06
7.4182e-07
9.21897e-07
5.66882e-07
3.84002e-07
2.70389e-07
2.19055e-07
1.93736e-07
1.13809e-07
9.996e-08
6.81613e-08
4.9022e-08
3.51269e-08
2.60464e-08
2.04036e-08
1.35314e-08
9.87489e-09
7.17708e-09
4.97747e-09
3.47306e-09
2.54349e-09
1.87318e-09
1.11681e-09
9.36697e-10
6.0176e-10
4.5313e-10
3.3333e-10
2.32607e-10
2.36981e-10
1.7091e-10
1.97083e-10
2.51783e-10
3.44486e-10
4.89626e-10
7.07343e-10
1.02975e-09
1.50406e-09
2.19e-09
3.19589e-09
4.79524e-09
6.88864e-09
1.02349e-08
1.50885e-08
2.07689e-08
2.96487e-08
4.2899e-08
6.07113e-08
8.95637e-08
1.24481e-07
1.79388e-07
2.55734e-07
3.5193e-07
4.76274e-07
6.69315e-07
9.0968e-07
1.20548e-06
1.52864e-06
2.0668e-06
2.91076e-06
4.01509e-06
4.54157e-06
6.73927e-06
5.47842e-06
6.96803e-06
8.0349e-06
8.16722e-06
7.22066e-06
1.8841e-07
3.77571e-06
6.94891e-06
8.7173e-06
5.38747e-06
9.5595e-06
2.72702e-05
1.64801e-05
1.77218e-05
1.67677e-05
1.28039e-05
0.000260279
8.51668e-06
0.000126768
3.17532e-05
0.000162451
7.48412e-06
7.18152e-05
9.42317e-06
1.84439e-05
4.71033e-05
3.58874e-05
1.70617e-05
9.9976e-06
1.76303e-05
2.23759e-05
2.71875e-05
2.19017e-05
1.76289e-05
1.52285e-05
1.133e-05
9.31283e-06
6.06333e-06
4.43382e-06
3.67487e-06
2.53997e-06
1.97881e-06
1.36095e-06
1.02444e-06
6.60325e-07
4.74045e-07
3.66863e-07
2.38598e-07
1.83143e-07
1.17434e-07
8.35116e-08
6.49499e-08
4.14487e-08
3.14171e-08
1.86097e-08
1.4064e-08
1.02848e-08
7.43029e-09
4.74584e-09
3.15586e-09
2.25493e-09
1.5338e-09
1.07127e-09
7.63963e-10
5.41794e-10
4.20817e-10
3.64374e-10
1.79185e-10
2.12102e-10
2.8084e-10
3.97267e-10
5.79574e-10
8.53127e-10
1.2593e-09
1.8626e-09
2.75161e-09
4.01609e-09
5.86787e-09
8.70215e-09
1.28205e-08
1.86036e-08
2.61151e-08
3.88978e-08
5.62153e-08
7.97091e-08
1.12635e-07
1.62526e-07
2.29789e-07
3.24075e-07
4.44318e-07
6.18908e-07
8.45705e-07
1.14204e-06
1.5201e-06
1.99034e-06
2.51327e-06
3.33772e-06
4.14377e-06
4.54157e-06
5.48115e-06
5.65081e-06
5.93129e-06
5.37447e-06
2.41493e-06
3.87056e-06
1.8841e-07
3.09244e-06
2.57303e-06
8.7173e-06
5.38747e-06
9.5595e-06
6.09402e-05
0.000101071
0.000216372
0.000292701
0.00028157
0.00156596
0.000556906
0.000126768
3.17532e-05
5.51851e-05
7.48412e-06
0.000119354
9.42317e-06
1.84439e-05
6.24023e-05
2.67037e-05
1.49956e-05
1.08546e-05
2.62622e-05
3.49007e-05
3.28432e-05
2.83917e-05
2.56942e-05
2.00287e-05
1.59931e-05
1.24371e-05
9.24342e-06
7.3301e-06
5.41956e-06
3.89924e-06
2.90049e-06
2.12987e-06
1.5303e-06
1.05608e-06
7.60938e-07
5.44101e-07
3.80326e-07
2.71774e-07
1.84344e-07
1.29172e-07
9.12276e-08
6.25863e-08
4.40497e-08
2.94515e-08
2.03085e-08
1.43442e-08
9.67441e-09
6.70082e-09
4.51814e-09
2.99096e-09
2.1032e-09
1.46505e-09
9.96401e-10
7.12973e-10
5.25629e-10
4.5588e-10
1.38924e-10
1.65124e-10
2.22309e-10
3.16589e-10
4.65535e-10
6.93557e-10
1.03818e-09
1.55371e-09
2.31963e-09
3.45432e-09
5.14094e-09
7.60709e-09
1.10252e-08
1.62208e-08
2.38467e-08
3.42405e-08
4.95924e-08
7.14946e-08
1.027e-07
1.46248e-07
2.0451e-07
2.86146e-07
3.99708e-07
5.43688e-07
7.38369e-07
9.89931e-07
1.30731e-06
1.7004e-06
2.17855e-06
2.73261e-06
3.29018e-06
3.93967e-06
4.35958e-06
4.49303e-06
4.52587e-06
4.20777e-06
2.41493e-06
2.20974e-06
3.78014e-07
1.64322e-06
2.57303e-06
1.26437e-05
2.08268e-05
2.16418e-05
4.79332e-05
5.57707e-05
2.65901e-05
0.000784948
0.000273808
0.00216487
0.000556906
0.00071733
0.000332823
5.51851e-05
6.03637e-05
3.22993e-05
3.87996e-05
3.09841e-05
2.46524e-05
1.15369e-05
2.42198e-07
1.08546e-05
2.37231e-05
2.94133e-05
2.91663e-05
2.64491e-05
2.2659e-05
1.87764e-05
1.5134e-05
1.18907e-05
9.20833e-06
7.01014e-06
5.25179e-06
3.8874e-06
2.83821e-06
2.06293e-06
1.48648e-06
1.06031e-06
7.54614e-07
5.30278e-07
3.7206e-07
2.60118e-07
1.80632e-07
1.25885e-07
8.65885e-08
5.96669e-08
4.10534e-08
2.80542e-08
1.93036e-08
1.31083e-08
8.8864e-09
6.0599e-09
4.09654e-09
2.77803e-09
1.86435e-09
1.26359e-09
8.70839e-10
6.14599e-10
4.63473e-10
3.88518e-10
7.11497e-11
8.28131e-11
1.11807e-10
1.66569e-10
2.54569e-10
3.86571e-10
5.85062e-10
8.83075e-10
1.326e-09
1.98164e-09
2.9468e-09
4.3445e-09
6.35655e-09
9.35938e-09
1.36938e-08
1.98369e-08
2.8751e-08
4.15034e-08
5.95184e-08
8.4416e-08
1.18374e-07
1.66016e-07
2.30625e-07
3.14615e-07
4.26077e-07
5.69984e-07
7.50776e-07
9.72773e-07
1.23547e-06
1.52454e-06
1.80971e-06
2.06934e-06
2.25701e-06
2.30063e-06
2.23578e-06
1.95486e-06
2.23425e-06
2.1689e-07
2.10656e-07
1.64322e-06
8.37077e-06
1.26437e-05
2.08268e-05
2.16418e-05
4.79332e-05
5.57707e-05
2.65901e-05
0.000784948
0.000236711
0.00272937
0.000826204
0.00101895
0.000354048
0.000142317
6.03637e-05
3.22993e-05
3.87996e-05
2.95645e-05
2.40071e-05
1.15369e-05
2.42198e-07
6.15634e-06
1.29832e-05
1.55826e-05
1.58541e-05
1.48172e-05
1.30386e-05
1.09521e-05
8.87736e-06
6.995e-06
5.42461e-06
4.13973e-06
3.10758e-06
2.29977e-06
1.68059e-06
1.21952e-06
8.77779e-07
6.26286e-07
4.4463e-07
3.12788e-07
2.19032e-07
1.52798e-07
1.06078e-07
7.35954e-08
5.07179e-08
3.48708e-08
2.39334e-08
1.63628e-08
1.11995e-08
7.61865e-09
5.16198e-09
3.50125e-09
2.36712e-09
1.59649e-09
1.07218e-09
7.22907e-10
4.94006e-10
3.46793e-10
2.59527e-10
2.1657e-10
7.11497e-11
8.28131e-11
1.11807e-10
1.66569e-10
2.54569e-10
3.86571e-10
5.85062e-10
8.83075e-10
1.326e-09
1.98164e-09
2.9468e-09
4.3445e-09
6.35655e-09
9.35938e-09
1.36938e-08
1.98369e-08
2.8751e-08
4.15034e-08
5.95184e-08
8.4416e-08
1.18374e-07
1.66016e-07
2.30625e-07
3.14615e-07
4.26077e-07
5.69984e-07
7.50776e-07
9.72773e-07
1.23547e-06
1.52454e-06
1.80971e-06
2.06934e-06
2.25701e-06
2.30063e-06
2.23578e-06
1.95486e-06
2.23425e-06
2.1689e-07
2.10656e-07
2.83022e-06
8.37077e-06
1.54815e-05
3.12689e-05
6.71989e-05
9.302e-05
0.000428685
0.00037678
0.00106978
0.000236711
0.00272937
0.000826204
0.00101895
0.000493781
0.000168876
0.000182421
8.96629e-05
4.61984e-05
2.95645e-05
2.40071e-05
1.62228e-05
8.56997e-06
6.15634e-06
1.29832e-05
1.55826e-05
1.58541e-05
1.48172e-05
1.30386e-05
1.09521e-05
8.87736e-06
6.995e-06
5.42461e-06
4.13973e-06
3.10758e-06
2.29977e-06
1.68059e-06
1.21952e-06
8.77779e-07
6.26286e-07
4.4463e-07
3.12788e-07
2.19032e-07
1.52798e-07
1.06078e-07
7.35954e-08
5.07179e-08
3.48708e-08
2.39334e-08
1.63628e-08
1.11995e-08
7.61865e-09
5.16198e-09
3.50125e-09
2.36712e-09
1.59649e-09
1.07218e-09
7.22907e-10
4.94006e-10
3.46793e-10
2.59527e-10
2.1657e-10
)
;

boundaryField
{
    sides1
    {
        type            calculated;
        value           uniform 0;
    }
    sides2
    {
        type            calculated;
        value           uniform 0;
    }
    empty
    {
        type            empty;
    }
}


// ************************************************************************* //
