/*--------------------------------*- C++ -*----------------------------------*\
| =========                 |                                                 |
| \\      /  F ield         | OpenFOAM: The Open Source CFD Toolbox           |
|  \\    /   O peration     | Version:  3.0.1                                 |
|   \\  /    A nd           | Web:      www.OpenFOAM.org                      |
|    \\/     M anipulation  |                                                 |
\*---------------------------------------------------------------------------*/
FoamFile
{
    version     2.0;
    format      ascii;
    class       volScalarField;
    location    "0.0001";
    object      p;
}
// * * * * * * * * * * * * * * * * * * * * * * * * * * * * * * * * * * * * * //

dimensions      [1 -1 -2 0 0 0 0];

internalField   nonuniform List<scalar> 
1000
(
68970
68970
68970
68970
68970
68970
68969.9
68969.9
68969.9
68969.8
68969.7
68969.6
68969.4
68969.2
68968.9
68968.4
68967.8
68966.8
68965.5
68963.7
68961.2
68957.7
68952.9
68946.3
68937.2
68924.8
68908
68885.3
68854.8
68814.2
68760.5
68689.9
68598.2
68480
68329.5
68140.1
67905.3
67618.6
67275.4
66873.4
66415.2
65909.9
65374.4
64837.3
64348.8
63955.9
63802.5
63664.6
63761.8
63769
63795.7
63656.3
63729
63724.8
63633.8
63422.9
63083.6
62654.1
62177.1
61693.2
61231.8
60813.3
60447.6
60137.6
59881.2
59673.3
59507.6
59377.5
59276.5
59198.9
59140
59095.4
59062.1
59037.3
59019
59005.5
58995.6
58988.5
58983.2
58979.5
58976.8
58974.8
58973.4
58972.4
58971.7
58971.2
58970.8
58970.6
58970.4
58970.3
58970.2
58970.1
58970.1
58970.1
58970
58970
58970
58970
58970
58970
68970
68970
68970
68970
68970
68970
68969.9
68969.9
68969.9
68969.8
68969.7
68969.6
68969.4
68969.2
68968.9
68968.4
68967.8
68966.8
68965.5
68963.7
68961.2
68957.7
68952.9
68946.3
68937.2
68924.8
68908
68885.3
68854.8
68814.2
68760.5
68690
68598.3
68480.2
68329.7
68140.4
67905.5
67618.9
67275.6
66873.4
66414.5
65908.1
65372.1
64836.8
64350.1
63965.9
63808.1
63688
63731
63794.2
63698.6
63690.2
63739.3
63741.6
63646.2
63436.2
63092.9
62658.3
62178.6
61693.2
61231.3
60812.6
60447
60137.1
59880.9
59673.1
59507.5
59377.4
59276.5
59198.9
59140
59095.5
59062.2
59037.4
59019
59005.5
58995.7
58988.5
58983.2
58979.5
58976.8
58974.8
58973.4
58972.4
58971.7
58971.2
58970.8
58970.6
58970.4
58970.3
58970.2
58970.1
58970.1
58970.1
58970
58970
58970
58970
58970
58970
68970
68970
68970
68970
68970
68970
68969.9
68969.9
68969.9
68969.8
68969.7
68969.6
68969.4
68969.2
68968.9
68968.4
68967.8
68966.8
68965.5
68963.7
68961.2
68957.7
68952.9
68946.3
68937.2
68924.8
68908
68885.3
68854.9
68814.3
68760.6
68690.2
68598.5
68480.4
68330
68140.7
67905.9
67619.1
67275.6
66873.1
66413.9
65907
65370.9
64836.1
64348.8
63951.8
63792.6
63645.4
63737.1
63736.6
63771.6
63660.2
63747.5
63748.3
63657.7
63446.7
63101.2
62663.8
62181.5
61693.9
61230.8
60811.4
60445.6
60135.9
59879.8
59672.4
59507.1
59377.2
59276.3
59198.9
59139.9
59095.4
59062.1
59037.3
59019
59005.5
58995.7
58988.5
58983.2
58979.5
58976.8
58974.8
58973.4
58972.4
58971.7
58971.2
58970.8
58970.6
58970.4
58970.3
58970.2
58970.1
58970.1
58970.1
58970
58970
58970
58970
58970
58970
68970
68970
68970
68970
68970
68970
68969.9
68969.9
68969.9
68969.8
68969.7
68969.6
68969.4
68969.2
68968.9
68968.4
68967.8
68966.8
68965.5
68963.7
68961.2
68957.7
68952.9
68946.3
68937.2
68924.8
68908
68885.4
68854.9
68814.4
68760.8
68690.4
68598.8
68480.9
68330.7
68141.5
67906.6
67620
67276.3
66873.2
66413.8
65907.4
65372.3
64838.6
64352.6
63965.1
63802.6
63674.1
63704.3
63757.8
63690
63698.6
63751.7
63756
63659.1
63449.8
63101.7
62660.7
62175.7
61688.1
61226.2
60808.3
60443.4
60134.3
59878.9
59671.7
59506.6
59376.8
59276
59198.7
59139.8
59095.4
59062.1
59037.3
59019
59005.5
58995.6
58988.5
58983.2
58979.5
58976.7
58974.8
58973.4
58972.4
58971.7
58971.2
58970.8
58970.6
58970.4
58970.3
58970.2
58970.1
58970.1
58970.1
58970
58970
58970
58970
58970
58970
68970
68970
68970
68970
68970
68970
68969.9
68969.9
68969.9
68969.8
68969.7
68969.6
68969.4
68969.2
68968.9
68968.4
68967.8
68966.8
68965.5
68963.7
68961.2
68957.8
68952.9
68946.3
68937.2
68924.9
68908.1
68885.4
68855
68814.5
68760.9
68690.6
68599.1
68481.2
68331.2
68142.2
67907.3
67621.2
67277.8
66874.2
66414.3
65907.9
65372.8
64840.2
64355.2
63968.8
63805.4
63675.4
63699
63750.6
63705.7
63727
63765.2
63759.7
63665.5
63449.9
63097.5
62654.2
62169.6
61683.2
61222.4
60805.5
60441.3
60132.5
59877.6
59671
59506.1
59376.5
59275.8
59198.5
59139.7
59095.3
59062.1
59037.3
59019
59005.5
58995.6
58988.4
58983.2
58979.5
58976.7
58974.8
58973.4
58972.4
58971.7
58971.2
58970.8
58970.6
58970.4
58970.3
58970.2
58970.1
58970.1
58970.1
58970
58970
58970
58970
58970
58970
68970
68970
68970
68970
68970
68970
68969.9
68969.9
68969.9
68969.8
68969.7
68969.6
68969.5
68969.2
68968.9
68968.4
68967.8
68966.8
68965.6
68963.7
68961.2
68957.8
68952.9
68946.3
68937.3
68924.9
68908.1
68885.5
68855.1
68814.6
68761
68690.8
68599.3
68481.5
68331.5
68142.5
67907.7
67621.5
67278.4
66874.9
66415
65908.4
65373.5
64840.8
64355.2
63968.1
63803.3
63672.2
63696.2
63742.4
63699.2
63714.4
63763.7
63767.9
63666.4
63456.7
63102.1
62655.5
62168.9
61683
61222.8
60805
60440.6
60132
59877
59670.3
59505.6
59376.1
59275.5
59198.2
59139.5
59095.2
59061.9
59037.2
59018.9
59005.5
58995.6
58988.4
58983.2
58979.4
58976.7
58974.8
58973.4
58972.4
58971.7
58971.2
58970.8
58970.6
58970.4
58970.3
58970.2
58970.1
58970.1
58970.1
58970
58970
58970
58970
58970
58970
68970
68970
68970
68970
68970
68970
68969.9
68969.9
68969.9
68969.8
68969.7
68969.6
68969.5
68969.2
68968.9
68968.4
68967.8
68966.8
68965.6
68963.8
68961.2
68957.8
68953
68946.3
68937.3
68924.9
68908.1
68885.5
68855.1
68814.7
68761.1
68690.8
68599.3
68481.5
68331.4
68142.3
67907.6
67621.1
67277.6
66874.4
66414.9
65908.4
65373.1
64839.3
64352
63963.4
63797.6
63677.3
63704.7
63760.4
63684.6
63697.5
63751.7
63756.8
63658.2
63454.1
63106.5
62664.4
62177
61688.3
61225.7
60807.1
60441.9
60132.8
59877.4
59670.4
59505.5
59375.9
59275.3
59198.1
59139.4
59095
59061.8
59037.1
59018.8
59005.4
58995.6
58988.4
58983.2
58979.4
58976.7
58974.8
58973.4
58972.4
58971.7
58971.2
58970.8
58970.6
58970.4
58970.3
58970.2
58970.1
58970.1
58970.1
58970
58970
58970
58970
58970
58970
68970
68970
68970
68970
68970
68970
68969.9
68969.9
68969.9
68969.8
68969.7
68969.6
68969.5
68969.2
68968.9
68968.4
68967.8
68966.8
68965.6
68963.8
68961.3
68957.8
68953
68946.4
68937.3
68925
68908.2
68885.5
68855.2
68814.7
68761.1
68690.8
68599.3
68481.4
68331.2
68142
67907.3
67620.6
67277
66874.3
66414.8
65907.7
65371.5
64835.9
64347.4
63948.8
63786.1
63638
63730.4
63730
63767.1
63657.8
63751.2
63751.5
63662.6
63453.7
63108.3
62668.8
62183.8
61694
61229.4
60809.6
60443.6
60133.8
59877.9
59670.6
59505.5
59375.8
59275.2
59197.9
59139.2
59094.9
59061.7
59037
59018.8
59005.4
58995.5
58988.4
58983.2
58979.4
58976.7
58974.8
58973.4
58972.4
58971.7
58971.2
58970.8
58970.6
58970.4
58970.3
58970.2
58970.1
58970.1
58970.1
58970
58970
58970
58970
58970
58970
68970
68970
68970
68970
68970
68970
68969.9
68969.9
68969.9
68969.8
68969.7
68969.6
68969.5
68969.2
68968.9
68968.4
68967.8
68966.8
68965.6
68963.8
68961.3
68957.8
68953
68946.4
68937.3
68925
68908.2
68885.6
68855.2
68814.7
68761.2
68690.8
68599.3
68481.4
68331.1
68141.9
67907.1
67620.4
67276.8
66874.1
66414.4
65907.1
65370.6
64835.3
64346.9
63957.9
63797.8
63673.9
63718.3
63782.5
63688.2
63689.3
63744.6
63748.7
63657.8
63452
63108.7
62670.6
62186.2
61696.7
61231.7
60811.2
60444.6
60134.4
59878.2
59670.7
59505.4
59375.7
59275
59197.8
59139.1
59094.8
59061.6
59037
59018.7
59005.3
58995.5
58988.3
58983.2
58979.4
58976.7
58974.8
58973.4
58972.4
58971.7
58971.2
58970.8
58970.6
58970.4
58970.3
58970.2
58970.1
58970.1
58970.1
58970
58970
58970
58970
58970
58970
68970
68970
68970
68970
68970
68970
68969.9
68969.9
68969.9
68969.8
68969.7
68969.6
68969.5
68969.2
68968.9
68968.4
68967.8
68966.9
68965.6
68963.8
68961.3
68957.8
68953
68946.4
68937.3
68925
68908.2
68885.6
68855.2
68814.8
68761.2
68690.9
68599.3
68481.4
68331.1
68141.9
67907.1
67620.4
67276.7
66873.9
66414.1
65906.5
65369.5
64833
64343.4
63944.5
63784.6
63638.8
63739.8
63747.7
63766.9
63656.5
63746.7
63747.4
63662
63453.8
63109.9
62672
62187.3
61697.5
61232.4
60811.5
60444.7
60134.3
59877.9
59670.4
59505.2
59375.4
59274.8
59197.6
59138.9
59094.7
59061.5
59036.9
59018.7
59005.3
58995.5
58988.3
58983.1
58979.4
58976.7
58974.8
58973.4
58972.4
58971.7
58971.2
58970.8
58970.6
58970.4
58970.3
58970.2
58970.1
58970.1
58970.1
58970
58970
58970
58970
58970
58970
)
;

boundaryField
{
    sides1
    {
        type            zeroGradient;
    }
    sides2
    {
        type            slip;
    }
    empty
    {
        type            empty;
    }
}


// ************************************************************************* //
