/*--------------------------------*- C++ -*----------------------------------*\
| =========                 |                                                 |
| \\      /  F ield         | OpenFOAM: The Open Source CFD Toolbox           |
|  \\    /   O peration     | Version:  3.0.1                                 |
|   \\  /    A nd           | Web:      www.OpenFOAM.org                      |
|    \\/     M anipulation  |                                                 |
\*---------------------------------------------------------------------------*/
FoamFile
{
    version     2.0;
    format      ascii;
    class       volScalarField;
    location    "0.0001";
    object      T;
}
// * * * * * * * * * * * * * * * * * * * * * * * * * * * * * * * * * * * * * //

dimensions      [0 0 0 1 0 0 0];

internalField   nonuniform List<scalar> 
1000
(
289
289
289
289
289
289
289
289
289
289
289
289
289
289
289
289
289
288.999
288.999
288.999
288.998
288.997
288.996
288.994
288.992
288.988
288.983
288.975
288.965
288.95
288.93
288.902
288.862
288.808
288.734
288.634
288.5
288.322
288.088
287.785
287.4
286.92
286.339
285.652
284.869
284.025
283.216
282.608
283.03
280.576
290.906
294.781
295.24
295.021
294.416
293.684
292.924
292.192
291.531
290.968
290.506
290.136
289.847
289.625
289.458
289.333
289.24
289.172
289.123
289.088
289.062
289.044
289.031
289.022
289.015
289.01
289.007
289.005
289.004
289.002
289.002
289.001
289.001
289.001
289
289
289
289
289
289
289
289
289
289
289
289
289
289
289
289
289
289
289
289
289
289
289
289
289
289
289
289
289
289
289
289
289
288.999
288.999
288.999
288.998
288.997
288.996
288.994
288.992
288.988
288.983
288.975
288.965
288.95
288.93
288.902
288.862
288.808
288.734
288.634
288.5
288.322
288.088
287.786
287.4
286.92
286.335
285.645
284.863
284.042
283.243
282.678
282.678
282.999
289.113
294.641
295.276
295.029
294.425
293.698
292.928
292.19
291.53
290.967
290.504
290.135
289.847
289.625
289.458
289.333
289.24
289.173
289.123
289.088
289.062
289.044
289.031
289.022
289.015
289.011
289.007
289.005
289.004
289.002
289.002
289.001
289.001
289.001
289
289
289
289
289
289
289
289
289
289
289
289
289
289
289
289
289
289
289
289
289
289
289
289
289
289
289
289
289
289
289
289
289
288.999
288.999
288.999
288.998
288.997
288.996
288.994
288.992
288.988
288.983
288.975
288.965
288.95
288.93
288.902
288.862
288.808
288.735
288.635
288.501
288.323
288.089
287.786
287.401
286.919
286.333
285.64
284.859
284.044
283.252
282.608
282.92
280.563
290.929
294.824
295.168
295.008
294.46
293.723
292.939
292.191
291.527
290.964
290.502
290.133
289.846
289.625
289.458
289.333
289.24
289.173
289.123
289.088
289.062
289.044
289.031
289.022
289.015
289.011
289.007
289.005
289.004
289.002
289.002
289.001
289.001
289.001
289
289
289
289
289
289
289
289
289
289
289
289
289
289
289
289
289
289
289
289
289
289
289
289
289
289
289
289
289
289
289
289
289
288.999
288.999
288.999
288.998
288.997
288.996
288.994
288.992
288.988
288.983
288.975
288.965
288.95
288.93
288.902
288.863
288.809
288.735
288.635
288.502
288.324
288.09
287.788
287.401
286.919
286.334
285.644
284.866
284.037
283.25
282.68
282.674
282.983
289.107
294.653
295.245
295.065
294.46
293.709
292.92
292.177
291.52
290.959
290.499
290.132
289.844
289.624
289.457
289.333
289.24
289.173
289.123
289.088
289.062
289.044
289.031
289.022
289.015
289.011
289.007
289.005
289.004
289.002
289.002
289.001
289.001
289.001
289
289
289
289
289
289
289
289
289
289
289
289
289
289
289
289
289
289
289
289
289
289
289
289
289
289
289
289
289
289
289
289
289
288.999
288.999
288.999
288.998
288.997
288.996
288.994
288.992
288.988
288.983
288.975
288.965
288.95
288.93
288.902
288.863
288.809
288.735
288.636
288.503
288.324
288.092
287.792
287.403
286.918
286.334
285.644
284.863
284.041
283.261
282.691
282.675
282.998
289.116
294.704
295.315
295.048
294.439
293.686
292.895
292.162
291.511
290.953
290.495
290.128
289.842
289.624
289.457
289.333
289.24
289.172
289.123
289.088
289.062
289.044
289.031
289.022
289.015
289.011
289.007
289.005
289.004
289.002
289.002
289.001
289.001
289.001
289
289
289
289
289
289
289
289
289
289
289
289
289
289
289
289
289
289
289
289
289
289
289
289
289
289
289
289
289
289
289
289
289
288.999
288.999
288.999
288.998
288.997
288.996
288.994
288.992
288.988
288.983
288.975
288.965
288.951
288.93
288.902
288.863
288.809
288.735
288.636
288.504
288.325
288.092
287.793
287.404
286.919
286.335
285.645
284.865
284.042
283.261
282.691
282.674
282.998
289.129
294.661
295.254
295.099
294.48
293.69
292.892
292.154
291.508
290.955
290.494
290.128
289.842
289.622
289.457
289.332
289.24
289.172
289.123
289.088
289.062
289.044
289.031
289.022
289.015
289.011
289.007
289.005
289.004
289.002
289.002
289.001
289.001
289.001
289
289
289
289
289
289
289
289
289
289
289
289
289
289
289
289
289
289
289
289
289
289
289
289
289
289
289
289
289
289
289
289
289
288.999
288.999
288.999
288.998
288.997
288.996
288.994
288.992
288.988
288.983
288.975
288.965
288.951
288.93
288.902
288.863
288.809
288.736
288.636
288.503
288.325
288.092
287.79
287.403
286.921
286.337
285.645
284.865
284.046
283.289
282.767
282.569
282.969
289.1
294.756
295.214
295.014
294.439
293.707
292.916
292.17
291.513
290.956
290.496
290.129
289.842
289.622
289.456
289.331
289.239
289.172
289.123
289.087
289.062
289.044
289.031
289.022
289.015
289.01
289.007
289.005
289.003
289.002
289.002
289.001
289.001
289.001
289
289
289
289
289
289
289
289
289
289
289
289
289
289
289
289
289
289
289
289
289
289
289
289
289
289
289
289
289
289
289
289
289
288.999
288.999
288.999
288.998
288.997
288.996
288.994
288.992
288.988
288.983
288.975
288.965
288.951
288.93
288.902
288.863
288.809
288.736
288.636
288.502
288.325
288.091
287.789
287.404
286.922
286.337
285.645
284.864
284.048
283.256
282.614
282.918
280.563
290.919
294.817
295.168
295.008
294.463
293.724
292.935
292.186
291.521
290.959
290.497
290.129
289.842
289.622
289.455
289.331
289.239
289.171
289.122
289.087
289.062
289.044
289.031
289.021
289.015
289.01
289.007
289.005
289.003
289.002
289.002
289.001
289.001
289.001
289
289
289
289
289
289
289
289
289
289
289
289
289
289
289
289
289
289
289
289
289
289
289
289
289
289
289
289
289
289
289
289
289
288.999
288.999
288.999
288.998
288.997
288.996
288.994
288.992
288.988
288.983
288.976
288.965
288.951
288.93
288.902
288.863
288.809
288.736
288.636
288.502
288.325
288.091
287.789
287.403
286.922
286.336
285.645
284.869
284.048
283.241
282.669
282.663
282.98
289.082
294.655
295.272
295.042
294.443
293.711
292.933
292.188
291.524
290.959
290.497
290.128
289.841
289.621
289.454
289.33
289.238
289.171
289.122
289.087
289.061
289.043
289.03
289.021
289.015
289.01
289.007
289.005
289.003
289.002
289.002
289.001
289.001
289.001
289
289
289
289
289
289
289
289
289
289
289
289
289
289
289
289
289
289
289
289
289
289
289
289
289
289
289
289
289
289
289
289
289
288.999
288.999
288.999
288.998
288.997
288.996
288.994
288.992
288.988
288.983
288.976
288.965
288.951
288.93
288.902
288.863
288.809
288.736
288.636
288.502
288.325
288.091
287.789
287.403
286.922
286.336
285.646
284.865
284.037
283.214
282.604
282.944
280.569
290.871
294.844
295.179
294.998
294.448
293.716
292.934
292.189
291.524
290.959
290.496
290.128
289.84
289.62
289.454
289.329
289.238
289.171
289.122
289.087
289.061
289.043
289.03
289.021
289.015
289.01
289.007
289.005
289.003
289.002
289.002
289.001
289.001
289.001
289
289
289
289
289
289
289
289
289
289
289
289
289
289
289
289
)
;

boundaryField
{
    sides1
    {
        type            zeroGradient;
    }
    sides2
    {
        type            slip;
    }
    empty
    {
        type            empty;
    }
}


// ************************************************************************* //
