/*--------------------------------*- C++ -*----------------------------------*\
| =========                 |                                                 |
| \\      /  F ield         | OpenFOAM: The Open Source CFD Toolbox           |
|  \\    /   O peration     | Version:  2012                                  |
|   \\  /    A nd           | Website:  www.openfoam.com                      |
|    \\/     M anipulation  |                                                 |
\*---------------------------------------------------------------------------*/
FoamFile
{
    version     2.0;
    format      ascii;
    class       volScalarField;
    location    "0.31";
    object      maxKappa;
}
// * * * * * * * * * * * * * * * * * * * * * * * * * * * * * * * * * * * * * //

dimensions      [0 0 0 0 0 0 0];


internalField   nonuniform List<scalar> 
2268
(
4.52819e-06
8.7711e-06
1.30203e-05
1.7369e-05
2.16183e-05
2.57447e-05
2.97565e-05
3.37816e-05
3.74669e-05
4.11141e-05
4.43271e-05
4.68695e-05
4.93196e-05
5.12405e-05
5.21795e-05
5.21795e-05
5.19347e-05
5.05133e-05
4.76876e-05
4.31101e-05
3.61469e-05
2.70374e-05
1.5307e-05
5.51926e-06
9.25855e-06
1.33516e-05
1.76173e-05
2.18139e-05
2.59105e-05
2.99098e-05
3.39122e-05
3.75937e-05
4.12531e-05
4.44473e-05
4.70856e-05
4.95576e-05
5.12634e-05
5.22569e-05
5.22569e-05
5.22256e-05
5.08742e-05
4.80592e-05
4.34866e-05
3.65144e-05
2.76951e-05
1.73787e-05
6.97944e-06
1.01703e-05
1.39983e-05
1.81137e-05
2.22151e-05
2.6256e-05
3.02321e-05
3.41968e-05
3.78739e-05
4.15432e-05
4.47127e-05
4.74658e-05
4.99591e-05
5.16206e-05
5.27628e-05
5.30301e-05
5.30301e-05
5.1989e-05
4.95967e-05
4.57014e-05
3.96582e-05
3.18082e-05
2.27439e-05
8.65001e-06
1.13725e-05
1.48914e-05
1.88082e-05
2.27718e-05
2.67328e-05
3.06738e-05
3.45828e-05
3.82465e-05
4.19146e-05
4.50525e-05
4.7905e-05
5.04317e-05
5.21171e-05
5.32686e-05
5.35212e-05
5.35212e-05
5.26805e-05
5.03929e-05
4.68142e-05
4.15429e-05
3.61403e-05
3.06089e-05
1.04697e-05
1.28118e-05
1.6024e-05
1.97265e-05
2.35329e-05
2.73998e-05
3.12977e-05
3.51408e-05
3.88003e-05
4.24617e-05
4.55724e-05
4.85723e-05
5.11545e-05
5.2971e-05
5.43263e-05
5.49292e-05
5.49292e-05
5.46754e-05
5.3203e-05
5.05568e-05
4.61954e-05
4.128e-05
3.62613e-05
1.23508e-05
1.43817e-05
1.73051e-05
2.07869e-05
2.44141e-05
2.81632e-05
3.19979e-05
3.57608e-05
3.9409e-05
4.30415e-05
4.61294e-05
4.92775e-05
5.18998e-05
5.38017e-05
5.53571e-05
5.59721e-05
5.59721e-05
5.58651e-05
5.45692e-05
5.25388e-05
4.93301e-05
4.76547e-05
4.73798e-05
1.43049e-05
1.60898e-05
1.87583e-05
2.20375e-05
2.54975e-05
2.91293e-05
3.28997e-05
3.65855e-05
4.02318e-05
4.3819e-05
4.69125e-05
5.02451e-05
5.28921e-05
5.50571e-05
5.68268e-05
5.78311e-05
5.83701e-05
5.83701e-05
5.80809e-05
5.73318e-05
5.53693e-05
5.45807e-05
5.39149e-05
1.62788e-05
1.78545e-05
2.02915e-05
2.33736e-05
2.66519e-05
3.01463e-05
3.38233e-05
3.74389e-05
4.10803e-05
4.45954e-05
4.77455e-05
5.12209e-05
5.38744e-05
5.62655e-05
5.82167e-05
5.93291e-05
6.01927e-05
6.01927e-05
6.03863e-05
6.03863e-05
6.26307e-05
7.0747e-05
7.0747e-05
0.00011799
0.000214355
0.000303695
0.000338458
0.000338458
0.00032958
0.000294318
0.000234049
0.000179912
0.00011415
5.16898e-05
8.08143e-05
0.000123869
0.000152171
0.000158547
0.000158547
0.000143961
0.000109291
5.90199e-05
0.000156803
0.00026814
0.000349067
0.000352147
0.000352147
0.000324744
0.000289864
0.000232465
0.000183658
0.000121346
6.20874e-05
8.65354e-05
0.00012736
0.000155358
0.000162963
0.000162963
0.000150102
0.000117697
7.33218e-05
0.000193134
0.00023693
0.000313604
0.000361162
0.000361162
0.000358048
0.000321641
0.000254392
0.000199123
0.00014497
9.85586e-05
0.000112034
0.000142982
0.000166268
0.000170264
0.000170264
0.000154251
0.000121776
8.147e-05
0.000229154
0.000323934
0.000408138
0.000408138
0.000387653
0.000340368
0.000309612
0.000250993
0.000209868
0.000161778
0.000113402
0.000127372
0.0001553
0.000177672
0.000184435
0.000184435
0.00017223
0.000144372
0.000110032
0.000297989
0.000308246
0.00037754
0.000421099
0.000421099
0.000414174
0.000372399
0.000289626
0.000232388
0.000196303
0.00016042
0.000162825
0.000181227
0.000197523
0.000198683
0.000198683
0.000182035
0.000154772
0.000125185
0.000344961
0.000424064
0.000509063
0.000509063
0.00046259
0.000389632
0.000358943
0.000295521
0.000260112
0.000225172
0.000176818
0.00018732
0.000203741
0.000218737
0.000224027
0.000224027
0.000211863
0.000188771
0.000162037
0.000450926
0.000450926
0.000507518
0.000539324
0.000539324
0.000520601
0.000460382
0.00034227
0.000278613
0.00026787
0.000237948
0.00022835
0.000237434
0.000247507
0.000247507
0.000246529
0.000229933
0.000208569
0.000186761
0.00052124
0.000596345
0.000696024
0.000696024
0.000618785
0.000498998
0.000453106
0.000358996
0.000318987
0.000307355
0.000252857
0.000263722
0.000270243
0.000279146
0.000284695
0.000284695
0.000272051
0.000253647
0.000232978
2.11961e-05
2.22476e-05
2.36424e-05
2.62557e-05
2.89893e-05
3.21068e-05
3.56626e-05
3.92028e-05
4.28373e-05
4.62799e-05
4.95956e-05
5.31352e-05
5.62864e-05
5.88476e-05
6.27575e-05
6.3658e-05
6.75995e-05
6.75836e-05
7.20264e-05
7.57262e-05
8.50916e-05
0.000105569
0.000117336
2.56702e-05
2.65833e-05
2.77353e-05
3.00663e-05
3.25186e-05
3.53533e-05
3.85065e-05
4.19706e-05
4.52895e-05
4.91049e-05
5.22978e-05
5.62998e-05
5.92784e-05
6.30407e-05
6.62232e-05
6.87581e-05
7.29147e-05
7.38626e-05
7.86536e-05
7.96732e-05
8.74898e-05
9.63042e-05
0.000117336
3.01921e-05
3.10019e-05
3.20279e-05
3.41364e-05
3.63784e-05
3.90518e-05
4.20918e-05
4.55396e-05
4.90689e-05
5.3521e-05
5.79936e-05
6.42446e-05
7.2554e-05
8.58027e-05
9.87293e-05
0.000115633
0.000124742
0.000129725
0.000126733
0.000111136
9.59075e-05
0.000106877
0.000112767
3.72335e-05
3.81762e-05
3.97129e-05
4.3107e-05
4.78766e-05
5.49349e-05
6.45559e-05
7.7303e-05
9.2849e-05
0.000114643
0.000141771
0.00018586
0.000264234
0.00042395
0.000581545
0.000724743
0.000799768
0.000851135
0.000779604
0.000556033
0.000241011
0.000225619
0.000203432
0.000113669
0.000118298
0.000129032
0.000153697
0.000197942
0.000282075
0.000387605
0.000499246
0.000630711
0.000798285
0.000980418
0.00110097
0.00130265
0.00152287
0.00170059
0.00182026
0.00187992
0.00186071
0.00188661
0.00193085
0.00186283
0.00168534
0.00139049
0.000677494
0.000695597
0.000735461
0.000796029
0.000865861
0.000952317
0.00105024
0.00117611
0.00133112
0.00149973
0.00154299
0.00165734
0.00184414
0.00204784
0.00220068
0.00228216
0.00231025
0.00213725
0.00199388
0.00213989
0.00224676
0.0023617
0.00250518
0.000948228
0.000961661
0.000988262
0.0010211
0.00105717
0.00110967
0.00117279
0.00125633
0.00136816
0.00153685
0.00173871
0.00195524
0.00217773
0.00236158
0.0024705
0.00251284
0.00256867
0.00255364
0.00246357
0.00231828
0.0025516
0.00277659
0.00291024
0.00103576
0.00104986
0.00107189
0.00110531
0.00113554
0.00118511
0.00125231
0.00135859
0.00150591
0.00168716
0.00188089
0.00206773
0.00222052
0.0023269
0.00242473
0.00252563
0.00265352
0.00276525
0.00291577
0.00299773
0.00307295
0.00313262
0.00319834
0.0011236
0.00113569
0.00115199
0.00118644
0.00121409
0.00126075
0.00133043
0.00143798
0.00157736
0.0017423
0.00189242
0.00198526
0.00209768
0.00218686
0.00224986
0.00235272
0.00246813
0.00281048
0.00310423
0.00329387
0.00335762
0.00338384
0.00341898
0.00120809
0.00121709
0.00123133
0.00125971
0.00128547
0.00132798
0.00139968
0.001496
0.00161878
0.00173453
0.00181337
0.00188553
0.00191919
0.00193976
0.00194055
0.00196946
0.0020152
0.00225493
0.00264343
0.00294788
0.00316171
0.00327382
0.00341898
0.00128195
0.00128898
0.00130214
0.00132709
0.00135348
0.00139399
0.00145075
0.00153766
0.00163719
0.0017071
0.00176115
0.00177614
0.00178028
0.00176174
0.0017074
0.00164113
0.00158393
0.00165337
0.00196271
0.00230462
0.00261279
0.00289141
0.00315933
0.00135531
0.00136192
0.0013743
0.00139816
0.00142464
0.00146261
0.00151268
0.00158076
0.00164818
0.00169618
0.00172609
0.0017334
0.00173223
0.0016956
0.00163514
0.00157812
0.00153254
0.00154698
0.00166654
0.00193056
0.00227679
0.00263385
0.00290384
0.00142409
0.00143009
0.00144197
0.00146392
0.00148869
0.00152261
0.00156041
0.00160638
0.00165677
0.00170701
0.00173633
0.00174778
0.00175384
0.00174265
0.00173612
0.00173078
0.0017428
0.00180169
0.00192898
0.00214962
0.00245839
0.00279154
0.0030597
0.00149011
0.00149601
0.00150762
0.00152758
0.00155045
0.00158192
0.00161394
0.001654
0.00169152
0.00173776
0.00177244
0.00179876
0.00182606
0.00184365
0.00186572
0.00189128
0.00193505
0.00202094
0.00215337
0.00236986
0.0026498
0.00296313
0.00321905
0.00155171
0.0015578
0.00156893
0.00158761
0.00160885
0.00163813
0.00166649
0.00170359
0.00173495
0.00178177
0.00182385
0.00186288
0.0019046
0.00193693
0.00197408
0.00202013
0.00208683
0.00219316
0.00234249
0.00255508
0.00281537
0.00311809
0.00338918
0.00161176
0.00161729
0.00162736
0.00164451
0.001664
0.00169198
0.00171856
0.00175651
0.00178849
0.00183381
0.00187827
0.00192292
0.00197211
0.00201597
0.00206661
0.00212998
0.00221366
0.00233713
0.00250459
0.00271945
0.00298119
0.00329569
0.0035687
0.00166725
0.00167226
0.00168182
0.00169828
0.00171699
0.00174453
0.00177021
0.00180781
0.00184015
0.00188464
0.00193094
0.00197948
0.00203371
0.00208564
0.00214639
0.00222526
0.00232971
0.00247141
0.00265371
0.00287432
0.00313932
0.00346237
0.00373541
0.0017198
0.00172467
0.00173399
0.00174996
0.00176768
0.0017943
0.00181883
0.0018554
0.00188936
0.00193312
0.00198002
0.0020295
0.00208519
0.00214607
0.00221912
0.00231363
0.00243726
0.00258841
0.00277627
0.00300269
0.0032751
0.00361413
0.00387946
0.00176891
0.00177387
0.00178293
0.00179836
0.00181514
0.00184098
0.00186483
0.00190075
0.00193469
0.00197789
0.00202443
0.00207634
0.00213518
0.00220591
0.00229331
0.00239807
0.0025299
0.00268621
0.00287828
0.00311076
0.00339028
0.00374027
0.00398454
0.00181563
0.00182046
0.00182891
0.00184357
0.0018594
0.00188427
0.00190755
0.00194225
0.00197618
0.00201944
0.00206845
0.00212496
0.0021927
0.00226907
0.00236309
0.00247044
0.00260449
0.00276222
0.00295735
0.00319232
0.00347662
0.00383075
0.00403975
0.00185842
0.00186302
0.00187089
0.00188497
0.00189996
0.00192398
0.00194654
0.0019802
0.00201345
0.00205634
0.00210635
0.00216491
0.00223498
0.00231277
0.00240729
0.00251655
0.00265288
0.00281368
0.00301121
0.00324521
0.00353157
0.00387605
0.00405064
0.001898
0.00190242
0.00190992
0.00192341
0.00193769
0.00196054
0.00198229
0.00201453
0.00204796
0.00209231
0.00214418
0.00220265
0.00227152
0.00234964
0.00244533
0.00255746
0.00269241
0.00285189
0.00304328
0.00327144
0.00354803
0.0038767
0.00405064
0.00193425
0.00193851
0.00194556
0.00195831
0.0019717
0.00199312
0.0020139
0.00204439
0.0020784
0.00212096
0.00217017
0.00222669
0.00229442
0.00237343
0.00246714
0.00257586
0.00270494
0.00285965
0.00304382
0.00326599
0.00352942
0.00384546
0.00403223
0.00196771
0.00197165
0.00197813
0.00198991
0.00200233
0.0020221
0.00204171
0.00207001
0.00210377
0.00214461
0.00219267
0.00224868
0.0023142
0.00238948
0.00247756
0.00258261
0.00270618
0.00285492
0.00302801
0.00323889
0.00348478
0.00378265
0.00398395
0.00199817
0.00200169
0.00200746
0.00201812
0.00202949
0.00204744
0.0020656
0.00209134
0.00212396
0.00216241
0.00220699
0.0022587
0.00231906
0.00239077
0.00247468
0.00257345
0.00268703
0.00282461
0.00298358
0.00318072
0.00340604
0.00368785
0.00390372
0.00202609
0.00202916
0.00203413
0.00204348
0.00205355
0.00206944
0.00208584
0.00210967
0.00213921
0.00217418
0.00221505
0.00226358
0.0023202
0.00238632
0.00246188
0.00255257
0.00265681
0.00278344
0.00292609
0.00310316
0.00330469
0.00355771
0.00378594
0.00205185
0.00205436
0.00205834
0.00206607
0.00207446
0.00208795
0.00210224
0.0021236
0.00214979
0.00218095
0.00221708
0.00225961
0.00230872
0.00236784
0.00243655
0.00251861
0.00261092
0.00272327
0.00284986
0.00300388
0.00317823
0.00339456
0.00362359
0.00207585
0.00207771
0.00208059
0.00208651
0.00209298
0.00210372
0.00211544
0.00213341
0.00215583
0.00218259
0.00221363
0.00225082
0.00229398
0.00234487
0.00240262
0.00247382
0.00255563
0.00265452
0.00276624
0.00290096
0.0030524
0.00323362
0.00344014
0.00209832
0.00209951
0.00210123
0.00210532
0.0021097
0.00211739
0.00212589
0.00213978
0.00215802
0.00217998
0.00220532
0.00223531
0.00226977
0.00231223
0.00236065
0.00241869
0.00248713
0.0025667
0.00266811
0.00277839
0.00291991
0.00306978
0.00325923
0.00211964
0.0021202
0.00212081
0.00212308
0.00212533
0.00212987
0.00213485
0.00214262
0.00215561
0.00217215
0.00219169
0.00221567
0.00224431
0.00227583
0.0023193
0.00236156
0.00242365
0.00248026
0.00257023
0.00265076
0.00278139
0.00289996
0.00308054
0.00213992
0.00213991
0.00213946
0.00213994
0.00213998
0.00214133
0.00214259
0.0021457
0.00215176
0.00216335
0.00217817
0.00219489
0.00221761
0.00224034
0.00227375
0.00230506
0.00235419
0.00239689
0.00246732
0.00252895
0.00263166
0.00272845
0.00287931
0.00215903
0.00215851
0.00215712
0.0021559
0.00215384
0.00215231
0.00215017
0.00214872
0.00214978
0.00215522
0.00216318
0.00217214
0.0021863
0.00219981
0.00222263
0.00224224
0.00227714
0.00230615
0.00235827
0.00240301
0.00248019
0.00255336
0.00266819
0.00217658
0.0021756
0.0021734
0.00217071
0.00216673
0.00216266
0.00215753
0.00215208
0.00214744
0.00214652
0.00214721
0.00214791
0.002153
0.00215682
0.00216848
0.00217646
0.00219649
0.00221076
0.00224367
0.00227076
0.00232416
0.00237717
0.00246308
0.00219222
0.00219083
0.00218794
0.00218416
0.00217876
0.00217262
0.00216476
0.00215586
0.00214581
0.00213893
0.00213248
0.00212451
0.00211938
0.00211234
0.00211163
0.00210727
0.002113
0.00211304
0.0021271
0.00213517
0.00216368
0.00219294
0.00225022
0.00220545
0.00220366
0.00220017
0.00219551
0.002189
0.0021812
0.00217112
0.00215982
0.00214836
0.00213493
0.0021208
0.00210513
0.00209009
0.00207144
0.00205689
0.00203831
0.002028
0.00201287
0.00200918
0.0020001
0.00200594
0.00201183
0.00203971
0.00221602
0.00221393
0.00220997
0.00220467
0.0021973
0.00218839
0.00217691
0.00216333
0.00214923
0.00213279
0.00211394
0.00209166
0.00206665
0.00203761
0.0020096
0.0019758
0.00194712
0.00191343
0.00188959
0.00186211
0.0018469
0.00183094
0.00183235
0.00222388
0.00222149
0.00221711
0.00221124
0.00220319
0.00219353
0.00218276
0.00216961
0.00215374
0.00213468
0.00211225
0.00208561
0.00205476
0.0020184
0.00197625
0.00192718
0.00187883
0.00182509
0.00177784
0.00172753
0.0016892
0.00165197
0.00162891
0.00222933
0.00222672
0.00222201
0.00221573
0.00220719
0.00219694
0.00218472
0.0021707
0.0021539
0.00213353
0.00210926
0.00208003
0.0020456
0.00200453
0.00195627
0.00189905
0.00183297
0.00175787
0.00168209
0.00160512
0.00153809
0.00147495
0.00142801
0.00223242
0.00222956
0.00222452
0.0022179
0.00221021
0.00220077
0.00218903
0.00217458
0.00215714
0.00213603
0.00211071
0.00207985
0.0020429
0.00199854
0.00194649
0.00188492
0.00181272
0.00172807
0.00163136
0.00152351
0.00140959
0.0013117
0.00123293
0.00223411
0.00223114
0.00222588
0.00221898
0.00220974
0.00219955
0.00218705
0.00217199
0.002154
0.00213233
0.00210651
0.00207509
0.00203714
0.00199096
0.00193609
0.00187081
0.001794
0.00170346
0.0015981
0.00147709
0.00134163
0.00119498
0.0010579
0.00223413
0.00223114
0.00222622
0.00222016
0.00221207
0.00220191
0.00218941
0.00217427
0.00215614
0.00213427
0.00210814
0.00207634
0.00203796
0.00199115
0.00193523
0.00186854
0.00179014
0.00169794
0.00159016
0.00146446
0.00132005
0.00115703
0.000978058
0.00223413
0.00223106
0.00222559
0.00221835
0.00220872
0.00219732
0.00218403
0.00216832
0.00214968
0.00212734
0.00210074
0.00206846
0.00202955
0.00198223
0.00192559
0.00185766
0.00177732
0.00168254
0.00157203
0.00144364
0.00129603
0.00112819
0.000940356
0.000111752
9.23466e-05
8.16867e-05
0.000362011
0.000116918
0.000116715
0.000116451
0.000159343
0.000117172
0.000119673
0.000121818
0.000122478
0.000176104
0.000160762
0.00013608
0.000122478
0.00107369
0.00089164
0.000487861
0.000298335
0.0025086
0.00247304
0.00241819
0.00234324
0.00302869
0.0029994
0.00292351
0.00288326
0.00331153
0.0033543
0.00341481
0.00346713
0.00353927
0.00362191
0.00371315
0.00380374
0.00353927
0.00362191
0.00371315
0.00380374
0.00335683
0.0034761
0.00359187
0.00370946
0.00317265
0.00333965
0.0035057
0.00367768
0.00333016
0.00349087
0.00366233
0.00383455
0.00349026
0.00364479
0.00383037
0.0040018
0.00366397
0.00382436
0.00402909
0.00420169
0.0038494
0.00402561
0.00424745
0.00443146
0.00402682
0.00422432
0.00446333
0.00468165
0.00418369
0.00440186
0.00466416
0.00494007
0.00429924
0.00453742
0.00483796
0.00516659
0.00437268
0.00462692
0.00497081
0.00528773
0.00439593
0.00464403
0.00499727
0.00528773
0.00439593
0.00464403
0.00499727
0.00520539
0.0043567
0.00458495
0.00490537
0.00501068
0.00426077
0.00448511
0.00474692
0.00482977
0.00412482
0.00435445
0.00455756
0.00466954
0.00397148
0.00418908
0.0043574
0.0045043
0.00379604
0.00398581
0.00414307
0.00430154
0.00359483
0.00375226
0.00389995
0.00408138
0.00338959
0.00351263
0.0036291
0.00380355
0.00320082
0.00329992
0.00339153
0.00351594
0.00299052
0.00307829
0.00316255
0.00326322
0.00275731
0.00282837
0.00290146
0.00298771
0.00253321
0.00258694
0.00264621
0.00271239
0.00230117
0.00234109
0.00238727
0.00243862
0.00206968
0.00209498
0.00212775
0.00216442
0.00184189
0.00185375
0.00187309
0.00189673
0.00161888
0.00161776
0.00162412
0.0016356
0.00140027
0.00138739
0.0013812
0.00138081
0.00118589
0.0011624
0.00114493
0.00113382
0.000980392
0.000941289
0.000910483
0.000889496
0.00081467
0.000748034
0.000691539
0.000649088
0.000718126
0.000624213
0.0005348
0.000454995
0.000747423
0.00101132
0.00125272
0.00108164
0.00077028
0.000700686
0.000635618
0.000404337
0.000362623
0.000383166
0.000383166
0.000370454
0.000370034
0.000352172
0.000368368
0.000361188
0.000344038
0.000338539
0.000317266
0.00103698
0.00191754
0.00197548
0.00197548
0.00147497
0.0014597
0.0011425
0.000735873
0.000608632
0.000574101
0.000469608
0.000482071
0.000482071
0.000483805
0.000492748
0.00049319
0.000477718
0.000486091
0.000460075
0.000201061
0.000403873
0.00101207
0.00157513
0.00251462
0.00251462
0.00222454
0.00191153
0.00188602
0.00147894
0.00108785
0.000855331
0.000723528
0.000621249
0.000671277
0.000672414
0.000665793
0.00069059
0.000659042
0.000140923
0.00014478
0.000195335
0.000266626
0.000686556
0.001241
0.00216099
0.00335592
0.00335592
0.00284394
0.00239255
0.00191916
0.0013582
0.00101969
0.000924893
0.000926117
0.000935042
0.000989572
0.000944123
0.00028496
0.000267962
0.000243246
0.00019146
0.000175211
0.000231532
0.00034701
0.00088469
0.00171315
0.00334572
0.00334572
0.00325673
0.00260901
0.00213042
0.00153401
0.00136147
0.00133336
0.00141888
0.00135316
0.00217229
0.00195257
0.00165133
0.00111228
0.000437933
0.00038108
0.000343076
0.00023177
0.000272661
0.000617371
0.00207443
0.00382285
0.00382285
0.00376209
0.00271275
0.00215853
0.00198177
0.00206647
0.00195034
0.00312856
0.00315949
0.00315949
0.00314791
0.00309235
0.00296093
0.00254425
0.00142563
0.000502388
0.000352791
0.000302766
0.00141081
0.0035786
0.00414921
0.00414921
0.00334001
0.00293996
0.00305474
0.00282999
0.00357321
0.0036735
0.00370533
0.00370078
0.00372229
0.00382036
0.00393258
0.00393258
0.00382956
0.00256658
0.00080812
0.000399101
0.00138715
0.00372242
0.00420144
0.00420144
0.00394674
0.00445807
0.00414265
0.00446841
0.00464092
0.00470162
0.00470162
0.00466778
0.00457729
0.00437964
0.00408955
0.00383351
0.00406503
0.00406503
0.00157397
0.000643707
0.00215366
0.00420518
0.00430388
0.00514512
0.0059714
0.00601013
0.00444856
0.00473401
0.00498084
0.00516599
0.00524487
0.00524487
0.00516775
0.00494009
0.00460238
0.00419153
0.00394011
0.00393009
0.0012674
0.000916926
0.00331593
0.0045905
0.00586409
0.00764056
0.00847236
0.00439575
0.00466057
0.00487903
0.00503534
0.00513208
0.00515777
0.00515777
0.00515651
0.00509862
0.00485385
0.00431119
0.00423775
0.00350157
0.00093603
0.00196639
0.00419908
0.00617468
0.00954819
0.0112636
0.00444982
0.00482016
0.00514496
0.00539062
0.00552424
0.00552424
0.0055172
0.00542983
0.00526943
0.00506903
0.00468911
0.00424985
0.00406545
0.00151846
0.00113086
0.00359922
0.00601555
0.0109829
0.0137908
0.00459809
0.00495952
0.00530548
0.00559237
0.00577959
0.00582817
0.00582817
0.00572339
0.00553981
0.00528081
0.00490149
0.00435818
0.00422655
0.00278561
0.00111669
0.00354785
0.00628317
0.0125493
0.0157679
0.00483255
0.00528171
0.00574028
0.00609675
0.00628707
0.00631704
0.00631704
0.00615821
0.00586528
0.00551586
0.00507522
0.00446761
0.00406902
0.00308272
0.00117884
0.00372223
0.00667766
0.0139717
0.0172998
0.00511485
0.00570053
0.00624277
0.00658221
0.00670982
0.00670982
0.00669917
0.00651013
0.00613748
0.00570031
0.00509188
0.00446944
0.00411596
0.00301927
0.00196927
0.00410574
0.00736755
0.0155011
0.0182478
0.00554952
0.00626114
0.00676058
0.00697682
0.00697682
0.00697386
0.00682373
0.00658684
0.00622924
0.00582538
0.00521929
0.00450993
0.0042125
0.00216325
0.00338048
0.00438733
0.00822892
0.0167275
0.0185731
0.00602179
0.00673067
0.00707668
0.00713655
0.00713655
0.0069719
0.00673792
0.00637276
0.006003
0.00567203
0.0051671
0.00444052
0.00323623
0.00170007
0.00313272
0.00422191
0.00923685
0.0177229
0.0185731
0.00648936
0.00702877
0.0071145
0.0071145
0.00694588
0.00644452
0.00601163
0.00581851
0.0056485
0.00541197
0.0049235
0.00435205
0.00241496
0.00160539
0.00317132
0.00456236
0.0104073
0.018464
0.0185681
0.00667557
0.00684775
0.00684775
0.006461
0.00597788
0.00538359
0.00493901
0.00492869
0.00493076
0.00493076
0.00456815
0.00414244
0.00311977
0.00286197
0.00392298
0.00531566
0.0120395
0.0190567
0.0190567
0.00658306
0.00658306
0.00625253
0.0051707
0.00422582
0.00380802
0.00422957
0.0045425
0.0045425
0.00440911
0.0045121
0.0045121
0.00432746
0.00439561
0.00462422
0.00663178
0.0135234
0.0187369
0.0187369
0.0061909
0.0061909
0.00517249
0.00304915
0.00259607
0.00396617
0.00418439
0.00418439
0.00391385
0.0038046
0.00426681
0.00428383
0.00428383
0.00413309
0.00441462
0.00851233
0.0149435
0.0177078
0.0177078
0.00553578
0.00553578
0.00369645
0.00299696
0.00430686
0.00486777
0.00486777
0.00430424
0.00362925
0.00283104
0.0021409
0.00262444
0.00292424
0.00306075
0.00606565
0.0108823
0.0149605
0.016125
0.016125
0.00521555
0.00499181
0.00256911
0.00346625
0.00501445
0.00556929
0.00556929
0.00542773
0.00535636
0.00498818
0.00434129
0.00339994
0.00330284
0.00541838
0.00846813
0.0116589
0.0138524
0.014237
0.014237
0.00490212
0.00478459
0.00236399
0.00368807
0.00475836
0.0054251
0.00548931
0.00548931
0.0054295
0.00590964
0.00590964
0.00548071
0.00502952
0.00678274
0.00897809
0.0111155
0.0122844
0.0123687
0.0123687
0.00479814
0.00479814
0.00249434
0.00404078
0.00444528
0.00452828
0.00426921
0.00374641
0.00356781
0.00378701
0.00444357
0.0046652
0.00513307
0.00694735
0.00872387
0.0101848
0.0107171
0.0107794
0.0107794
0.00477995
0.00477995
0.00302287
0.00384697
0.00384697
0.00377894
0.00374475
0.00374475
0.00373807
0.00375747
0.00375747
0.00326113
0.00461801
0.00650427
0.00801166
0.0089553
0.00933616
0.00955821
0.00955821
0.00458526
0.00458526
0.00358035
0.00347165
0.00381485
0.00381485
0.00360017
0.00335611
0.0025962
0.00276592
0.0037193
0.0037193
0.00417878
0.00595841
0.00722649
0.00795215
0.00840904
0.00866485
0.00866485
0.00457804
0.00457804
0.0041143
0.00221661
0.0036991
0.0036991
0.00362079
0.00328499
0.00256811
0.00275505
0.00401677
0.00439805
0.00554063
0.00633518
0.00692583
0.00744055
0.00779543
0.00799881
0.00799881
0.00440648
0.00440648
0.00438455
0.0033648
0.00269005
0.00370619
0.00409933
0.00409933
0.00341082
0.00395537
0.00453615
0.005424
0.00652473
0.00668543
0.0068541
0.00712877
0.00733849
0.0074684
0.0074684
0.00418402
0.00442574
0.00442574
0.00419249
0.00289114
0.00301094
0.00405709
0.00427665
0.00434124
0.00439043
0.00518495
0.00675882
0.00715548
0.00715548
0.00677577
0.00686435
0.00698737
0.00704581
0.00704581
0.00383006
0.00422033
0.00445507
0.00445507
0.00424978
0.00314735
0.00260522
0.0029105
0.00332595
0.00432842
0.0064342
0.00751264
0.00751264
0.00707226
0.00666343
0.00659183
0.0066331
0.00665579
0.00665579
0.00345331
0.00379907
0.00420829
0.00454835
0.0046173
0.0046173
0.00427763
0.00413376
0.00502022
0.00630367
0.00724536
0.00725644
0.00725644
0.00672847
0.00641741
0.006315
0.00627524
0.00628484
0.00628484
0.00309358
0.00336852
0.0037127
0.0041183
0.00450417
0.00476712
0.00501223
0.00537786
0.00585802
0.00640604
0.00673397
0.00673397
0.00655133
0.00620493
0.00604954
0.00597585
0.0059451
0.00595182
0.00595182
0.00273991
0.00296728
0.00325698
0.0036204
0.00406035
0.0044681
0.00483255
0.00522602
0.00564669
0.0059902
0.00604866
0.00604866
0.00588216
0.00574083
0.00567551
0.00562719
0.00561162
0.00561711
0.00561711
0.00239242
0.00257455
0.00281728
0.00312415
0.00350017
0.00392984
0.00435963
0.00473388
0.00503953
0.00522472
0.00528785
0.00529506
0.00529506
0.00529624
0.00529624
0.00529865
0.00531814
0.00533022
0.00533022
0.0020635
0.002213
0.00241746
0.0026747
0.00298845
0.00333648
0.00370774
0.00406329
0.00435469
0.00457197
0.00472338
0.00482035
0.00488569
0.0049301
0.00495868
0.00498927
0.00501612
0.00503342
0.00503342
0.00174725
0.00187604
0.00206599
0.00231008
0.00260122
0.00291997
0.0032532
0.00357461
0.00385992
0.00410025
0.00429079
0.00443613
0.00454613
0.00462592
0.00468666
0.00473753
0.00477599
0.00480011
0.00480011
0.00143935
0.00155182
0.00173047
0.00196472
0.00224445
0.00254757
0.00286228
0.00317216
0.00345657
0.00370416
0.00391273
0.00408272
0.00421693
0.00432016
0.00440245
0.00446649
0.00451308
0.00454214
0.00454214
0.00114689
0.00125188
0.00143296
0.00167261
0.00195548
0.00226023
0.00257327
0.00287934
0.00316442
0.00342038
0.003644
0.0038323
0.00398543
0.0041081
0.00420677
0.00428132
0.00433651
0.00436992
0.00436992
0.000883051
0.000984669
0.00118668
0.00144343
0.00173243
0.00203394
0.00233664
0.00263033
0.00290531
0.00315544
0.00337888
0.00357072
0.00373147
0.00386391
0.00397115
0.00405196
0.00411283
0.00414925
0.00414925
0.000620353
0.000702318
0.00093161
0.00121215
0.00151839
0.00183294
0.00214526
0.00244721
0.00273135
0.00299194
0.00322593
0.00342756
0.00359919
0.00374197
0.00385669
0.00394344
0.00400895
0.00404759
0.00404759
0.00036752
0.000482018
0.000767394
0.00107441
0.00138653
0.0016951
0.00199493
0.0022819
0.00255155
0.00280019
0.00302534
0.00322218
0.00339376
0.00353706
0.00365384
0.00374305
0.00381102
0.00385179
0.00385179
)
;

boundaryField
{
    leftWall
    {
        type            calculated;
        value           uniform 0;
    }
    rightWall
    {
        type            calculated;
        value           uniform 0;
    }
    lowerWall
    {
        type            calculated;
        value           uniform 0;
    }
    atmosphere
    {
        type            calculated;
        value           uniform 0;
    }
    defaultFaces
    {
        type            empty;
    }
}


// ************************************************************************* //
