/*--------------------------------*- C++ -*----------------------------------*\
| =========                 |                                                 |
| \\      /  F ield         | OpenFOAM: The Open Source CFD Toolbox           |
|  \\    /   O peration     | Version:  2012                                  |
|   \\  /    A nd           | Website:  www.openfoam.com                      |
|    \\/     M anipulation  |                                                 |
\*---------------------------------------------------------------------------*/
FoamFile
{
    version     2.0;
    format      ascii;
    class       volScalarField;
    location    "0.31";
    object      minKappa;
}
// * * * * * * * * * * * * * * * * * * * * * * * * * * * * * * * * * * * * * //

dimensions      [0 0 0 0 0 0 0];


internalField   nonuniform List<scalar> 
2268
(
1.44006e-06
3.30838e-06
5.21271e-06
7.25142e-06
9.28473e-06
1.12439e-05
1.31722e-05
1.50313e-05
1.69678e-05
1.85145e-05
2.04231e-05
2.15442e-05
2.28732e-05
2.3872e-05
2.45887e-05
2.47859e-05
2.4458e-05
2.34743e-05
2.179e-05
1.91468e-05
1.52001e-05
1.06696e-05
4.85483e-06
1.44006e-06
3.30838e-06
5.21271e-06
7.25142e-06
9.28473e-06
1.12439e-05
1.31722e-05
1.50313e-05
1.69678e-05
1.85145e-05
2.04231e-05
2.15442e-05
2.28732e-05
2.3872e-05
2.45887e-05
2.47859e-05
2.4458e-05
2.34743e-05
2.179e-05
1.91468e-05
1.52001e-05
1.06696e-05
4.85483e-06
2.20028e-06
3.70652e-06
5.47572e-06
7.45045e-06
9.43742e-06
1.1373e-05
1.32844e-05
1.51436e-05
1.70514e-05
1.86228e-05
2.05172e-05
2.1632e-05
2.30671e-05
2.39802e-05
2.46598e-05
2.49905e-05
2.47714e-05
2.38586e-05
2.23082e-05
1.98535e-05
1.61531e-05
1.19714e-05
7.1031e-06
3.09112e-06
4.29515e-06
5.88602e-06
7.76771e-06
9.68276e-06
1.15801e-05
1.34656e-05
1.53231e-05
1.71884e-05
1.8794e-05
2.06583e-05
2.17766e-05
2.33096e-05
2.41507e-05
2.48928e-05
2.52359e-05
2.51386e-05
2.43453e-05
2.29244e-05
2.08095e-05
1.75728e-05
1.45418e-05
1.10151e-05
4.02351e-06
5.01208e-06
6.41729e-06
8.19362e-06
1.00189e-05
1.18666e-05
1.37195e-05
1.55725e-05
1.73848e-05
1.90351e-05
2.08509e-05
2.199e-05
2.3619e-05
2.44062e-05
2.52758e-05
2.55923e-05
2.56804e-05
2.50738e-05
2.39009e-05
2.21285e-05
1.93441e-05
1.72474e-05
1.48286e-05
4.97397e-06
5.81038e-06
7.0409e-06
8.71052e-06
1.04368e-05
1.22245e-05
1.40373e-05
1.58802e-05
1.76335e-05
1.93355e-05
2.10828e-05
2.22669e-05
2.39908e-05
2.47283e-05
2.57501e-05
2.61056e-05
2.63262e-05
2.59338e-05
2.50154e-05
2.37199e-05
2.14326e-05
2.05991e-05
1.94196e-05
5.93424e-06
6.66231e-06
7.73792e-06
9.30549e-06
1.09338e-05
1.26558e-05
1.44231e-05
1.62512e-05
1.7945e-05
1.97003e-05
2.13591e-05
2.26237e-05
2.44245e-05
2.51159e-05
2.63489e-05
2.66893e-05
2.7115e-05
2.68923e-05
2.63633e-05
2.55751e-05
2.39142e-05
2.44043e-05
2.3815e-05
6.90216e-06
7.55042e-06
8.49079e-06
9.96373e-06
1.14977e-05
1.31491e-05
1.48666e-05
1.66701e-05
1.83189e-05
2.0116e-05
2.16775e-05
2.30688e-05
2.48978e-05
2.5576e-05
2.70537e-05
2.73367e-05
2.80553e-05
2.79987e-05
2.78855e-05
2.77632e-05
2.66354e-05
2.87601e-05
3.0597e-05
3.56016e-05
8.12973e-05
0.000123985
0.000153776
0.000140099
0.00013834
0.000110254
8.82441e-05
6.64401e-05
3.37454e-05
1.46523e-05
2.60849e-05
4.51057e-05
6.17766e-05
6.90642e-05
6.77252e-05
5.73834e-05
3.91823e-05
1.71139e-05
3.56016e-05
8.12973e-05
0.000123985
0.000153776
0.000140099
0.00013834
0.000110254
8.82441e-05
6.64401e-05
3.37454e-05
1.46523e-05
2.60849e-05
4.51057e-05
6.17766e-05
6.90642e-05
6.77252e-05
5.73834e-05
3.91823e-05
1.71139e-05
5.85387e-05
9.03197e-05
0.000124567
0.000157414
0.00014612
0.000144425
0.000115785
9.13568e-05
7.14925e-05
4.17977e-05
2.65319e-05
3.45016e-05
4.99655e-05
6.50431e-05
7.1791e-05
6.99825e-05
5.95046e-05
4.23726e-05
2.34728e-05
7.81198e-05
0.00010151
0.000137101
0.000170009
0.000148639
0.000148558
0.000120056
9.49652e-05
7.90297e-05
5.14572e-05
3.86964e-05
4.48528e-05
5.69844e-05
6.99104e-05
7.64186e-05
7.44913e-05
6.44084e-05
4.88132e-05
3.26446e-05
0.000106303
0.000117906
0.000151046
0.000183282
0.000160876
0.000160199
0.000130006
9.99956e-05
8.81439e-05
6.41709e-05
5.22854e-05
5.71696e-05
6.62664e-05
7.68932e-05
8.27311e-05
8.02721e-05
7.04509e-05
5.6808e-05
4.32434e-05
0.000134695
0.000138773
0.000172766
0.00020451
0.000171556
0.000170493
0.000140702
0.000108231
0.000101273
7.80051e-05
6.5418e-05
7.0964e-05
7.79701e-05
8.57979e-05
9.13015e-05
8.85505e-05
7.90339e-05
6.71097e-05
5.50578e-05
0.000174035
0.000164435
0.000201641
0.000230978
0.000195416
0.000191919
0.000156713
0.000114612
0.000114555
9.5155e-05
8.12222e-05
8.58006e-05
9.09968e-05
9.66777e-05
0.000101688
9.85264e-05
8.94411e-05
7.95887e-05
6.87667e-05
0.000213883
0.000199574
0.000239786
0.000272433
0.000220499
0.000213403
0.000175296
0.000123008
0.000131186
0.000113477
9.52328e-05
0.000102626
0.000106665
0.0001093
0.000114773
0.000111262
0.000102316
9.43098e-05
8.42124e-05
1.23142e-05
1.32328e-05
1.45298e-05
1.67001e-05
1.89632e-05
2.14343e-05
2.40463e-05
2.68131e-05
2.93565e-05
3.2194e-05
3.45203e-05
3.6931e-05
3.96911e-05
4.0832e-05
4.35147e-05
4.38906e-05
4.56146e-05
4.56246e-05
4.66679e-05
4.72407e-05
4.85951e-05
5.45853e-05
6.82916e-05
2.11961e-05
2.22476e-05
2.36424e-05
2.62557e-05
2.89893e-05
3.19418e-05
3.49954e-05
3.83384e-05
4.17362e-05
4.52843e-05
4.87141e-05
5.22591e-05
5.56746e-05
5.8762e-05
6.21969e-05
6.3658e-05
6.73997e-05
6.75836e-05
7.15015e-05
7.21916e-05
7.66179e-05
8.2176e-05
8.20181e-05
2.56702e-05
2.65833e-05
2.77353e-05
3.00663e-05
3.25186e-05
3.53533e-05
3.84797e-05
4.17165e-05
4.50629e-05
4.86078e-05
5.21452e-05
5.57524e-05
5.92778e-05
6.29014e-05
6.62232e-05
6.87581e-05
7.29147e-05
7.38626e-05
7.86536e-05
7.96732e-05
8.74898e-05
9.1587e-05
8.77976e-05
3.01921e-05
3.10019e-05
3.20279e-05
3.41364e-05
3.63784e-05
3.90518e-05
4.20918e-05
4.55396e-05
4.90689e-05
5.3521e-05
5.79936e-05
6.42446e-05
7.2554e-05
8.58027e-05
9.87293e-05
0.000115633
0.000124742
0.000129725
0.000126733
0.000111136
9.39574e-05
9.45351e-05
8.13706e-05
3.72335e-05
3.81762e-05
3.97129e-05
4.3107e-05
4.78766e-05
5.49349e-05
6.45559e-05
7.7303e-05
9.2849e-05
0.000114643
0.000141771
0.00018586
0.000264234
0.00042395
0.000581545
0.000724743
0.000799768
0.000851135
0.000779604
0.000556033
0.000241011
0.000225619
0.000203432
0.000113669
0.000118298
0.000129032
0.000153697
0.000197942
0.000282075
0.000387605
0.000499246
0.000630711
0.000798285
0.000980418
0.00110097
0.00130265
0.00152287
0.00170059
0.00182026
0.00187992
0.00186071
0.00186636
0.0018993
0.00186283
0.00168534
0.00139049
0.000677494
0.000695597
0.000735461
0.000796029
0.000865861
0.000952317
0.00105024
0.00114849
0.00124806
0.00136816
0.00153685
0.00165734
0.00184414
0.00204784
0.00220068
0.00228216
0.00231025
0.00213725
0.00197162
0.0018993
0.00195512
0.00230917
0.00197048
0.000948228
0.000961661
0.000988262
0.0010211
0.00105717
0.00110967
0.00117279
0.00125231
0.00135859
0.00150591
0.00168716
0.00188089
0.00206773
0.00218686
0.00224986
0.00235272
0.00245332
0.00255364
0.00246357
0.00231828
0.0025516
0.00277659
0.00238987
0.00103576
0.00104986
0.00107189
0.00110531
0.00113554
0.00118511
0.00125032
0.00133043
0.00143798
0.00157736
0.0017423
0.00188553
0.00191919
0.00193976
0.00194055
0.00196946
0.0020152
0.00225493
0.00264343
0.00294788
0.00307295
0.00313262
0.00255961
0.0011236
0.00113569
0.00115199
0.00118644
0.00121409
0.00126075
0.00132682
0.00139968
0.001496
0.00161878
0.00173453
0.00177614
0.00178028
0.00176174
0.0017074
0.00164113
0.00158393
0.00165337
0.00196271
0.00230462
0.00261279
0.00289141
0.00254142
0.00120809
0.00121709
0.00123133
0.00125971
0.00128547
0.00132798
0.00138021
0.00144888
0.00153766
0.00163719
0.0017071
0.00173259
0.0017261
0.00167533
0.00159202
0.00149256
0.00143635
0.00142248
0.00153416
0.00178822
0.00211653
0.00243889
0.00225807
0.00128195
0.00128898
0.00130214
0.00132709
0.00135348
0.00139399
0.00145075
0.00151268
0.00158076
0.00164818
0.00169618
0.00171262
0.00168847
0.00163317
0.00155413
0.00146641
0.00141551
0.00141551
0.00146319
0.00164429
0.00193056
0.00227679
0.0021974
0.00135531
0.00136192
0.0013743
0.00139816
0.00142464
0.00146261
0.00150751
0.00155246
0.00160184
0.00165677
0.00170145
0.00171984
0.00170352
0.00167302
0.00163514
0.00157812
0.00153254
0.00154698
0.00166654
0.00190368
0.00214962
0.00245839
0.00230764
0.00142409
0.00143009
0.00144197
0.00146392
0.00148869
0.00152261
0.00156041
0.00160332
0.00164614
0.00169152
0.00172977
0.00174778
0.00175384
0.00174265
0.00173612
0.00173078
0.0017428
0.00180169
0.00192898
0.00214352
0.00236986
0.0026498
0.00242934
0.00149011
0.00149601
0.00150762
0.00152758
0.00155045
0.00158192
0.00161394
0.00165368
0.00168667
0.00172466
0.00176831
0.00179876
0.00182606
0.00184365
0.00186572
0.00189128
0.00193505
0.00202094
0.00215337
0.00234249
0.00255508
0.00281537
0.002544
0.00155171
0.0015578
0.00156893
0.00158761
0.00160885
0.00163813
0.00166649
0.00170359
0.00173495
0.00178035
0.00182385
0.00186288
0.0019046
0.00193693
0.00197408
0.00202013
0.00208683
0.00219316
0.00233052
0.00250459
0.00271945
0.00298119
0.00268522
0.00161176
0.00161729
0.00162736
0.00164451
0.001664
0.00169198
0.00171856
0.00175651
0.00178849
0.00183034
0.00187484
0.00192128
0.00197197
0.00201597
0.00206661
0.00212998
0.00221366
0.00232971
0.00247141
0.00265371
0.00287432
0.00313932
0.0028167
0.00166725
0.00167226
0.00168182
0.00169828
0.00171699
0.00174453
0.00177021
0.00180781
0.00184015
0.00188308
0.00192891
0.0019768
0.00202832
0.00208301
0.00214329
0.00221912
0.00231363
0.00243726
0.00258841
0.00277627
0.00300269
0.0032751
0.00294519
0.0017198
0.00172467
0.00173399
0.00174996
0.00176768
0.0017943
0.00181883
0.00185516
0.00188936
0.00192827
0.00197267
0.0020207
0.00207384
0.00213518
0.00220516
0.00229331
0.00239807
0.0025299
0.00268621
0.00287828
0.00311076
0.00339028
0.00304671
0.00176891
0.00177387
0.00178293
0.00179836
0.00181514
0.00184098
0.00186483
0.00190025
0.00193468
0.00197347
0.00201843
0.00206845
0.00212496
0.0021927
0.00226907
0.00236309
0.00247044
0.00260449
0.00276222
0.00295735
0.00319232
0.00347662
0.00311662
0.00181563
0.00182046
0.00182891
0.00184357
0.0018594
0.00188427
0.00190755
0.00193961
0.00197352
0.00201162
0.00205537
0.00210635
0.00216491
0.00223498
0.00231277
0.00240729
0.00251655
0.00265288
0.00281368
0.00301121
0.00324521
0.00353157
0.0031529
0.00185842
0.00186302
0.00187089
0.00188497
0.00189996
0.00192398
0.00194654
0.00197743
0.00201017
0.00204796
0.00209231
0.00214418
0.00220265
0.00227152
0.00234964
0.00244533
0.00255746
0.00269241
0.00285189
0.00304328
0.00327144
0.00354803
0.00315148
0.001898
0.00190242
0.00190992
0.00192341
0.00193769
0.00196054
0.00198229
0.00200994
0.00204156
0.0020784
0.00212096
0.00217017
0.00222669
0.00229442
0.00237343
0.00246714
0.00257586
0.00270494
0.00285965
0.00304382
0.00326599
0.00352942
0.00311048
0.00193425
0.00193851
0.00194556
0.00195831
0.0019717
0.00199312
0.0020139
0.00203915
0.00206898
0.00210377
0.00214461
0.00219267
0.00224868
0.0023142
0.00238948
0.00247756
0.00258261
0.00270618
0.00285492
0.00302801
0.00323889
0.00348478
0.00303706
0.00196771
0.00197165
0.00197813
0.00198991
0.00200233
0.00202181
0.00204066
0.00206361
0.00209134
0.00212396
0.00216241
0.00220699
0.0022587
0.00231906
0.00239077
0.00247468
0.00257345
0.00268703
0.00282461
0.00298358
0.00318072
0.00340604
0.00293955
0.00199817
0.00200169
0.00200746
0.00201812
0.00202949
0.00204665
0.00206378
0.00208454
0.00210967
0.00213921
0.00217418
0.00221505
0.00226358
0.0023202
0.00238632
0.00246188
0.00255257
0.00265681
0.00278344
0.00292609
0.00310316
0.00330469
0.00282656
0.00202609
0.00202916
0.00203413
0.00204348
0.00205355
0.00206802
0.00208308
0.00210138
0.0021236
0.00214979
0.00218095
0.00221708
0.00225961
0.00230872
0.00236784
0.00243655
0.00251861
0.00261092
0.00272327
0.00284986
0.00300388
0.00317823
0.00268264
0.00205185
0.00205436
0.00205834
0.00206607
0.00207446
0.00208622
0.00209886
0.0021144
0.00213341
0.00215583
0.00218259
0.00221363
0.00225082
0.00229398
0.00234487
0.00240262
0.00247382
0.00255563
0.00265452
0.00276572
0.00290096
0.00305171
0.00253468
0.00207585
0.00207771
0.00208059
0.00208651
0.00209298
0.00210243
0.00211218
0.00212446
0.00213978
0.00215802
0.00217998
0.00220532
0.00223531
0.00226977
0.00231223
0.00236065
0.00241869
0.00248026
0.0025667
0.00265076
0.00277839
0.00289968
0.00238869
0.00209832
0.00209951
0.00210123
0.00210532
0.0021097
0.00211669
0.00212307
0.00213143
0.00214233
0.00215561
0.00217215
0.00219169
0.00221567
0.00224034
0.00227375
0.00230506
0.00235419
0.00239689
0.00246732
0.00252895
0.00263166
0.00272845
0.00225886
0.00211964
0.0021202
0.00212081
0.00212308
0.00212533
0.00212987
0.0021337
0.00213804
0.00214405
0.00215154
0.00216149
0.00217214
0.0021863
0.00219981
0.00222263
0.00224224
0.00227714
0.00230615
0.00235827
0.00240301
0.00248019
0.00255336
0.00208143
0.00213992
0.00213991
0.00213946
0.00213994
0.00213998
0.00214133
0.0021423
0.0021423
0.00214349
0.00214554
0.00214721
0.00214791
0.002153
0.00215682
0.00216848
0.00217646
0.00219649
0.00221076
0.00224367
0.00227076
0.00232416
0.00237717
0.00192461
0.00215903
0.00215851
0.00215712
0.0021559
0.00215384
0.00215231
0.0021487
0.00214477
0.00214052
0.00213681
0.00213248
0.00212451
0.00211938
0.00211234
0.00211163
0.00210727
0.002113
0.00211304
0.0021271
0.00213517
0.00216368
0.00219294
0.00175984
0.00217658
0.0021756
0.0021734
0.00217071
0.00216622
0.00216013
0.00215311
0.00214529
0.00213637
0.00212675
0.00211578
0.00210448
0.00209009
0.00207144
0.00205689
0.00203831
0.002028
0.00201287
0.00200918
0.0020001
0.00200594
0.00201183
0.00159196
0.00219222
0.00219083
0.00218794
0.00218408
0.00217765
0.00216965
0.00215982
0.00214836
0.00213493
0.00211979
0.00210235
0.00208301
0.00206112
0.00203761
0.0020096
0.0019758
0.00194712
0.00191343
0.00188959
0.00186211
0.0018469
0.00183094
0.00142934
0.00220545
0.00220366
0.00219933
0.00219315
0.00218516
0.00217519
0.00216319
0.00214923
0.00213279
0.00211394
0.00209166
0.00206585
0.00203543
0.00200133
0.0019633
0.00192341
0.00187883
0.00182509
0.00177784
0.00172753
0.0016892
0.00165197
0.00126699
0.00221602
0.00221305
0.00220822
0.00220164
0.00219327
0.00218276
0.00216961
0.00215374
0.00213468
0.00211225
0.00208561
0.00205476
0.0020184
0.00197625
0.00192718
0.0018725
0.00181283
0.00175089
0.00168209
0.00160512
0.00153809
0.00147495
0.00111127
0.00222227
0.00221862
0.00221313
0.00220572
0.0021963
0.00218472
0.0021707
0.0021539
0.00213353
0.00210926
0.00208003
0.0020456
0.00200453
0.00195627
0.00189905
0.00183297
0.00175787
0.00167556
0.00158842
0.00150121
0.00140959
0.0013117
0.000954711
0.00222696
0.00222324
0.00221768
0.00221021
0.00220077
0.00218903
0.00217458
0.00215714
0.00213603
0.00211071
0.00207985
0.0020429
0.00199854
0.00194649
0.00188492
0.00181272
0.00172807
0.00163136
0.00152351
0.00140803
0.00129149
0.00118
0.000806048
0.00222821
0.002224
0.00221786
0.00220974
0.00219955
0.00218705
0.00217199
0.002154
0.00213233
0.00210651
0.00207509
0.00203714
0.00199096
0.00193609
0.00187081
0.001794
0.00170346
0.0015981
0.00147709
0.00134163
0.00119498
0.00104552
0.000667837
0.00223026
0.00222622
0.00222016
0.00221207
0.00220191
0.00218941
0.00217427
0.00215614
0.00213427
0.00210814
0.00207634
0.00203796
0.00199115
0.00193523
0.00186854
0.00179014
0.00169794
0.00159016
0.00146446
0.00132005
0.00115703
0.000978058
0.000582491
0.00222815
0.00222364
0.00221695
0.00220813
0.00219722
0.00218403
0.00216832
0.00214968
0.00212734
0.00210074
0.00206846
0.00202955
0.00198223
0.00192559
0.00185766
0.00177732
0.00168254
0.00157203
0.00144364
0.00129603
0.00112819
0.000940356
0.000541048
4.28473e-05
2.98202e-05
2.98202e-05
3.98262e-05
5.30083e-05
5.13696e-05
5.13696e-05
5.36185e-05
5.75839e-05
5.75839e-05
5.78188e-05
5.78188e-05
5.39274e-05
5.39274e-05
5.56124e-05
5.70515e-05
0.000176104
0.000125894
6.38759e-05
6.38759e-05
0.00105713
0.00089164
0.000487861
0.000298335
0.00128504
0.00128504
0.00129131
0.00129536
0.00153114
0.00149662
0.00148484
0.00148484
0.00167553
0.00167553
0.00171822
0.00176426
0.00167286
0.00167286
0.00171072
0.00174883
0.00152208
0.00152208
0.00159345
0.0016638
0.00148961
0.00148961
0.00156736
0.00164598
0.00156007
0.00156007
0.00163738
0.00171603
0.00163606
0.00163606
0.00171338
0.0017946
0.00170917
0.00170917
0.0017902
0.00187512
0.00180419
0.00180419
0.00189327
0.00198405
0.00189358
0.00189358
0.00199023
0.00208864
0.00198459
0.00198459
0.00209209
0.00220734
0.00205534
0.00205534
0.00217333
0.00231052
0.00210792
0.00210792
0.00224384
0.00240319
0.00213743
0.00213743
0.0022846
0.00243802
0.00213189
0.00213189
0.00227016
0.00238352
0.00209498
0.00209498
0.00221783
0.00230762
0.00204239
0.00204239
0.00215152
0.00222644
0.00197049
0.00197049
0.0020677
0.00214246
0.00189013
0.00189013
0.00197621
0.00205016
0.00178808
0.00178808
0.00186629
0.00194109
0.00168181
0.00168181
0.00174764
0.00182783
0.00157556
0.00157556
0.00162248
0.00167927
0.00149026
0.00149026
0.00153286
0.00157743
0.00137014
0.00137014
0.00140811
0.00145003
0.00126108
0.00126108
0.00129045
0.00132293
0.00114979
0.00114979
0.00117305
0.00119899
0.00103526
0.00103526
0.00105197
0.00107132
0.000924466
0.000924466
0.000934572
0.000947335
0.000814225
0.000814225
0.000818347
0.000825316
0.000708341
0.000706297
0.000706297
0.000707304
0.000602956
0.000595697
0.000591247
0.000591247
0.000501668
0.000489391
0.000480124
0.000480124
0.00040233
0.000381511
0.000366207
0.000366207
0.000332864
0.000295593
0.000264202
0.000264202
0.000298721
0.000249618
0.000201299
0.000201299
0.000362011
0.000367772
0.000420791
0.000464765
0.000376858
0.00037281
0.000307654
0.000189131
0.000218007
0.000211231
0.000180335
0.000189696
0.000192
0.000194325
0.00020231
0.000197441
0.000183842
0.000174771
0.000159725
0.000159343
0.000403873
0.00101207
0.00108164
0.00077028
0.00059869
0.000560717
0.000338767
0.000362623
0.000349703
0.000303502
0.000370454
0.000370034
0.000352172
0.000368368
0.000361188
0.000344038
0.000338539
0.000317266
9.7193e-05
0.000141596
0.000195335
0.000266626
0.000686556
0.001241
0.0011425
0.000735873
0.000608632
0.000574101
0.000469608
0.000473295
0.00047901
0.000483805
0.000492748
0.00049319
0.000477718
0.000486091
0.000460075
9.7521e-05
0.000128638
0.000132941
0.000139343
0.000175211
0.000231532
0.00034701
0.00088469
0.00171315
0.00147894
0.00108785
0.000855331
0.000723528
0.000611738
0.000671277
0.000672414
0.000665793
0.00069059
0.000659042
9.51852e-05
0.000128638
0.000132941
0.000139343
0.000148243
0.000148036
0.000158385
0.000197274
0.000272661
0.000617371
0.00198423
0.00191916
0.0013582
0.00101969
0.000924893
0.000926117
0.000935042
0.000989572
0.000944123
0.00028496
0.000267962
0.000243246
0.00019146
0.000148243
0.000148036
0.000158385
0.000172293
0.00016955
0.000190827
0.000302766
0.00127243
0.00260901
0.00213042
0.00153401
0.00136147
0.00133336
0.00141888
0.00135316
0.00217229
0.00195257
0.00165133
0.00111228
0.000437933
0.00038108
0.000343076
0.00023177
0.00016955
0.000190149
0.000190149
0.000275054
0.00103903
0.00333419
0.00270357
0.00215853
0.00198177
0.00206647
0.00195034
0.00247974
0.0029402
0.00304731
0.00308958
0.00305687
0.00296093
0.00254425
0.00142563
0.000502388
0.000352791
0.000205728
0.000331556
0.000399101
0.00138715
0.00372242
0.00310154
0.00293996
0.00305474
0.00282999
0.00302591
0.0036735
0.00370533
0.00370078
0.00364329
0.00360123
0.00352819
0.00345223
0.00327542
0.00256658
0.00080812
0.000383114
0.0004958
0.000643707
0.00215366
0.00385265
0.00377433
0.00445807
0.00414265
0.00299434
0.00415849
0.00436
0.00446062
0.0045004
0.00444911
0.00424728
0.00397284
0.00362389
0.003682
0.00343663
0.0012674
0.000514757
0.000563505
0.000916926
0.00331593
0.00400823
0.00586409
0.00601013
0.00290123
0.00415849
0.00440082
0.00458591
0.00471373
0.00474509
0.00466469
0.00453367
0.00430262
0.00392639
0.00357991
0.00350157
0.00093603
0.000563505
0.000732847
0.00196639
0.00419908
0.00617468
0.00847236
0.00288717
0.00418033
0.00445356
0.00468122
0.00482428
0.00489253
0.00483902
0.00480795
0.00463635
0.00439728
0.00379424
0.00370238
0.00151846
0.000630481
0.000716144
0.00113086
0.00359922
0.00601555
0.0109829
0.00300159
0.00429168
0.00461272
0.00491054
0.00510528
0.0052068
0.00514024
0.00502574
0.00482087
0.0046011
0.0041258
0.00370238
0.00278561
0.000963354
0.000716144
0.00111669
0.00354785
0.00628317
0.0125493
0.00313655
0.00447899
0.00484305
0.00522235
0.00543905
0.00557409
0.00550827
0.00532448
0.00506506
0.00476129
0.00431148
0.00371156
0.00308272
0.00110778
0.000718586
0.00117884
0.00372223
0.00667766
0.0139717
0.00327845
0.00475383
0.00523995
0.00567925
0.00588793
0.00598055
0.00590217
0.00564906
0.00528218
0.00492025
0.0043106
0.00379886
0.00301927
0.00164362
0.000886599
0.00196927
0.00410574
0.00736755
0.0155011
0.00348033
0.00514525
0.00573545
0.00611007
0.00626137
0.00623732
0.00609206
0.00571102
0.00540702
0.00502641
0.0043106
0.00372871
0.00216325
0.00135056
0.00181825
0.00338048
0.00393007
0.00822892
0.0167275
0.00369118
0.00563417
0.00617632
0.00642489
0.00634266
0.00590602
0.00571358
0.0053697
0.0052006
0.00483861
0.00429575
0.00323623
0.00170007
0.00128905
0.00162317
0.00313272
0.00393007
0.00923685
0.0177229
0.00394825
0.00608437
0.00630184
0.00603261
0.00573542
0.00504429
0.00490719
0.00474012
0.00483031
0.00451642
0.00406378
0.00241496
0.00149486
0.00128905
0.00160539
0.00317132
0.00429135
0.0104073
0.0182675
0.00416467
0.00612752
0.00571821
0.0048242
0.00422582
0.00380802
0.00405252
0.0041385
0.00440629
0.00401729
0.00389161
0.00311977
0.00175942
0.0014491
0.00234907
0.00392298
0.00521219
0.0120395
0.0175235
0.00431129
0.00572643
0.00457215
0.00291277
0.00227581
0.00329095
0.0037436
0.00381722
0.00369849
0.00333286
0.00389161
0.00388037
0.0030644
0.00286197
0.00353612
0.00421954
0.00663178
0.0135234
0.0163513
0.00429035
0.00505223
0.00294785
0.0016627
0.0016627
0.00259607
0.00375206
0.00363669
0.00288943
0.00229863
0.0021409
0.00262444
0.00292424
0.00282935
0.00352109
0.00441462
0.00851233
0.0149435
0.0148873
0.00410846
0.00369645
0.00138071
0.0019219
0.00229937
0.003947
0.00402449
0.00330701
0.00219834
0.00123308
0.00123308
0.00129397
0.00203953
0.00227819
0.00306075
0.00584298
0.0108823
0.013711
0.0132551
0.00393168
0.00256911
0.000552856
0.00167663
0.00346625
0.00480171
0.00465451
0.00414974
0.00362925
0.00283104
0.0019554
0.0019607
0.00223744
0.00281361
0.0048388
0.00822633
0.0113452
0.0120072
0.0116734
0.00376572
0.00236399
0.000363377
0.00181163
0.00368807
0.00452828
0.00422091
0.00374641
0.00356781
0.00378701
0.00434129
0.00339994
0.00315243
0.00439884
0.00662925
0.00889295
0.0102343
0.0103525
0.0102892
0.00361552
0.00249434
0.000363377
0.00215188
0.00356024
0.00377894
0.00331437
0.00280815
0.00267825
0.00267825
0.0031376
0.00326113
0.00349037
0.00513307
0.00681074
0.00826812
0.00892304
0.00903672
0.0091272
0.00347849
0.00302287
0.000750493
0.00260611
0.00350351
0.003278
0.00322404
0.00306995
0.0024142
0.00247995
0.00265051
0.00239342
0.00276811
0.00461801
0.00634084
0.00737674
0.00780658
0.00809132
0.00820151
0.00331126
0.00358035
0.00177612
0.00164032
0.00347165
0.003278
0.00322404
0.0025962
0.00218809
0.0021822
0.00276592
0.00239342
0.00304642
0.00417878
0.00595841
0.00671251
0.00710452
0.00741797
0.00749197
0.00318156
0.00410239
0.00217971
0.00143877
0.00221661
0.00325488
0.00323974
0.00256811
0.00218809
0.0021822
0.00275505
0.00341678
0.00369288
0.00505237
0.00596764
0.00640967
0.00666406
0.00690348
0.00694429
0.00292487
0.00402293
0.0033648
0.00143877
0.00169912
0.00262661
0.00336453
0.00290592
0.00236167
0.00243505
0.00369024
0.00396937
0.00510542
0.00572941
0.00596764
0.00620043
0.00635563
0.00649108
0.00651029
0.00273162
0.00379187
0.00393768
0.00289114
0.00169912
0.00207186
0.00241284
0.00288007
0.00311728
0.00328928
0.00395819
0.00486667
0.00626048
0.0060157
0.00601665
0.00598898
0.00607842
0.00613917
0.00614054
0.00250671
0.00344187
0.00381538
0.00380085
0.00267158
0.0020191
0.0020191
0.00214966
0.00276441
0.00316789
0.00420318
0.00610668
0.00648749
0.00591489
0.00584022
0.00575432
0.00577873
0.00580462
0.00579896
0.00227967
0.0030783
0.00341258
0.00376843
0.00394881
0.0031034
0.00260522
0.0029105
0.00332595
0.00406638
0.00551358
0.00644275
0.00599176
0.0056432
0.00556693
0.00547893
0.00548003
0.00549036
0.0054872
0.00205908
0.00273483
0.00300533
0.00331637
0.00371204
0.00407817
0.00403621
0.00410257
0.00452499
0.00532259
0.00578753
0.00575086
0.00545523
0.00530008
0.00524899
0.00518351
0.00518704
0.00519163
0.00519165
0.00183427
0.00239892
0.00262323
0.00288742
0.00323908
0.00363715
0.00400253
0.00435226
0.00468744
0.00499461
0.00514857
0.00508829
0.00499068
0.00494948
0.00492604
0.00489437
0.00490648
0.00491286
0.0049167
0.00161505
0.00207718
0.00226203
0.00248727
0.0027798
0.00311671
0.00348445
0.00383951
0.00413855
0.00436956
0.00449036
0.00455068
0.00457333
0.00459962
0.00460805
0.00461411
0.004637
0.00465053
0.00465854
0.00140148
0.00177342
0.00193279
0.00213466
0.00239082
0.00268394
0.00299354
0.0033191
0.00360133
0.00383363
0.00400645
0.00413349
0.00421667
0.00428411
0.00432206
0.00435881
0.00439028
0.00441284
0.00442324
0.00119446
0.00148157
0.00162526
0.00181844
0.00206011
0.00233502
0.00262192
0.00291918
0.00318932
0.00342915
0.00362405
0.00378287
0.003902
0.00399689
0.00406132
0.00412061
0.00416018
0.00419293
0.00420426
0.000991365
0.00120222
0.00133864
0.00152956
0.00176813
0.00203837
0.00231713
0.00260438
0.00287121
0.0031152
0.00332142
0.00350025
0.00363946
0.00375426
0.00383831
0.00391287
0.00395911
0.00400081
0.00401206
0.000797275
0.000941286
0.00108516
0.00128869
0.00153427
0.00180568
0.00208176
0.00236096
0.00262163
0.00286396
0.00307503
0.00326341
0.00341372
0.0035422
0.00363961
0.00372389
0.00377603
0.00382518
0.00383605
0.00060079
0.000682001
0.000845916
0.00107245
0.00133188
0.00161042
0.00188813
0.00216505
0.00242447
0.00266763
0.00288265
0.00307716
0.00323412
0.00337336
0.00347879
0.00357011
0.00362673
0.00368116
0.0036919
0.00036752
0.000431649
0.000640274
0.000897072
0.00117139
0.00145571
0.00173389
0.00200778
0.00226439
0.0025059
0.00272161
0.00291743
0.00307812
0.00322391
0.00333308
0.00342975
0.00348905
0.00354764
0.00355857
0.000267523
0.000312346
0.000482018
0.000767394
0.00107441
0.00138653
0.0016951
0.00199493
0.00226439
0.0025059
0.00272161
0.00291743
0.00307812
0.00322391
0.00333308
0.00342975
0.00348905
0.00354764
0.00355857
)
;

boundaryField
{
    leftWall
    {
        type            calculated;
        value           uniform 0;
    }
    rightWall
    {
        type            calculated;
        value           uniform 0;
    }
    lowerWall
    {
        type            calculated;
        value           uniform 0;
    }
    atmosphere
    {
        type            calculated;
        value           uniform 0;
    }
    defaultFaces
    {
        type            empty;
    }
}


// ************************************************************************* //
