/*--------------------------------*- C++ -*----------------------------------*\
| =========                 |                                                 |
| \\      /  F ield         | OpenFOAM: The Open Source CFD Toolbox           |
|  \\    /   O peration     | Version:  2012                                  |
|   \\  /    A nd           | Website:  www.openfoam.com                      |
|    \\/     M anipulation  |                                                 |
\*---------------------------------------------------------------------------*/
FoamFile
{
    version     2.0;
    format      ascii;
    class       volScalarField;
    location    "0.31";
    object      rhogh;
}
// * * * * * * * * * * * * * * * * * * * * * * * * * * * * * * * * * * * * * //

dimensions      [1 -1 -2 0 0 0 0];


internalField   nonuniform List<scalar> 
2268
(
-29.4294
-29.4294
-29.4294
-29.4294
-29.4294
-29.4294
-29.4294
-29.4294
-29.4294
-29.4294
-29.4294
-29.4294
-29.4294
-29.4294
-29.4294
-29.4294
-29.4294
-29.4294
-29.4294
-29.4294
-29.4294
-29.4294
-29.3813
-88.2881
-88.2881
-88.2881
-88.2881
-88.2881
-88.2881
-88.2881
-88.2881
-88.2881
-88.2881
-88.2881
-88.2881
-88.2881
-88.2881
-88.2881
-88.2881
-88.2881
-88.2881
-88.2881
-88.2881
-88.2881
-88.2881
-88.1647
-147.147
-147.147
-147.147
-147.147
-147.147
-147.147
-147.147
-147.147
-147.147
-147.147
-147.147
-147.147
-147.147
-147.147
-147.147
-147.147
-147.147
-147.147
-147.147
-147.147
-147.147
-147.147
-146.743
-206.006
-206.006
-206.006
-206.006
-206.006
-206.006
-206.006
-206.006
-206.006
-206.006
-206.006
-206.006
-206.006
-206.006
-206.006
-206.006
-206.006
-206.006
-206.006
-206.006
-206.006
-206.006
-205.407
-264.864
-264.864
-264.864
-264.864
-264.864
-264.864
-264.864
-264.864
-264.864
-264.864
-264.864
-264.864
-264.864
-264.864
-264.864
-264.864
-264.864
-264.864
-264.864
-264.864
-264.864
-264.864
-264.095
-323.723
-323.723
-323.723
-323.723
-323.723
-323.723
-323.723
-323.723
-323.723
-323.723
-323.723
-323.723
-323.723
-323.723
-323.723
-323.723
-323.723
-323.723
-323.723
-323.723
-323.723
-323.723
-323.089
-382.582
-382.582
-382.582
-382.582
-382.582
-382.582
-382.582
-382.582
-382.582
-382.582
-382.582
-382.582
-382.582
-382.582
-382.582
-382.582
-382.582
-382.582
-382.582
-382.582
-382.582
-382.582
-382.08
-441.44
-441.44
-441.44
-441.44
-441.44
-441.44
-441.44
-441.44
-441.44
-441.44
-441.44
-441.44
-441.44
-441.44
-441.44
-441.44
-441.44
-441.44
-441.44
-441.44
-441.44
-441.44
-440.384
-1.85305e-23
-4.2252e-23
-2.51332e-22
-4.16845e-21
-1.01145e-19
-8.61279e-19
-1.76116e-19
-1.76116e-19
-1.83847e-20
-1.54929e-21
-7.49001e-23
-2.788e-24
-6.78746e-26
-1.05708e-27
-1.05622e-29
-9.05321e-32
-6.53276e-34
-3.27102e-36
-1.62972e-38
-2.08882e-21
-1.45048e-20
-1.56924e-19
-2.85733e-18
-6.32267e-17
-4.06695e-16
-4.14042e-17
-7.00511e-17
-7.8143e-18
-6.80241e-19
-4.06001e-20
-1.87711e-21
-5.45831e-23
-9.59487e-25
-1.0394e-26
-9.52821e-29
-7.3426e-31
-3.93181e-33
-1.04519e-35
-1.28318e-19
-1.68029e-18
-2.62183e-17
-4.83501e-16
-9.00362e-15
-4.8797e-14
-4.27059e-15
-7.19738e-15
-8.50241e-16
-7.59621e-17
-5.58355e-18
-3.26614e-19
-1.16393e-20
-2.36562e-22
-2.83381e-24
-2.82905e-26
-2.34473e-28
-1.33969e-30
-3.79136e-33
-9.2792e-18
-2.00715e-16
-3.34314e-15
-4.93627e-14
-7.53134e-13
-2.84326e-12
-2.23884e-13
-3.57939e-13
-4.64588e-14
-4.36461e-15
-3.90431e-16
-2.91017e-17
-1.30326e-18
-3.14381e-20
-4.30038e-22
-4.85927e-24
-4.55464e-26
-2.94894e-28
-9.43143e-31
-8.6738e-16
-1.98238e-14
-2.87433e-13
-3.36469e-12
-3.52139e-11
-9.97651e-11
-7.66309e-12
-1.10829e-11
-1.56104e-12
-1.55142e-13
-1.67605e-14
-1.59952e-15
-9.2204e-17
-2.70332e-18
-4.25194e-20
-5.41672e-22
-5.65712e-24
-4.04935e-26
-1.42648e-28
-9.18167e-14
-1.5477e-12
-1.59816e-11
-1.3915e-10
-1.10764e-09
-2.18471e-09
-1.74154e-10
-2.18928e-10
-3.46376e-11
-3.80044e-12
-4.87901e-13
-5.93625e-14
-4.5021e-15
-1.66932e-16
-3.15738e-18
-4.78296e-20
-5.90756e-22
-4.99109e-24
-2.06402e-26
-4.58615e-12
-7.36237e-11
-6.43964e-10
-4.68877e-09
-2.12995e-08
-3.21633e-08
-2.83669e-09
-3.1077e-09
-5.28277e-10
-6.506e-11
-9.89832e-12
-1.53462e-12
-1.55195e-13
-7.55805e-15
-1.71274e-16
-3.02068e-18
-4.29923e-20
-4.15846e-22
-1.95973e-24
-1.97436e-10
-2.8101e-09
-2.02055e-08
-1.08792e-07
-2.70729e-07
-3.23777e-07
-3.05411e-08
-3.1488e-08
-5.53283e-09
-8.14614e-10
-1.46133e-10
-2.8625e-11
-3.88075e-12
-2.6661e-13
-7.72645e-15
-1.68726e-16
-2.93868e-18
-3.4387e-20
-1.94011e-22
-533.467
-533.467
-533.467
-533.467
-533.467
-533.467
-533.467
-533.467
-533.467
-533.467
-533.467
-533.467
-533.467
-533.467
-533.467
-533.467
-533.467
-533.467
-533.467
-533.467
-533.467
-533.467
-532.044
-658.662
-658.662
-658.662
-658.662
-658.662
-658.662
-658.662
-658.662
-658.662
-658.662
-658.662
-658.662
-658.662
-658.662
-658.662
-658.662
-658.662
-658.662
-658.662
-658.662
-658.662
-658.662
-658.147
-783.856
-783.856
-783.856
-783.856
-783.856
-783.856
-783.856
-783.856
-783.856
-783.856
-783.855
-783.853
-783.843
-783.801
-783.714
-783.556
-783.488
-783.855
-783.856
-783.856
-783.856
-783.856
-783.84
-909.048
-909.047
-909.046
-909.041
-909.029
-908.987
-908.859
-908.502
-907.686
-905.886
-902.723
-896.969
-883.299
-857.01
-826.967
-790.177
-773.399
-773.905
-802.156
-858.205
-909.051
-909.051
-909.051
-1021.46
-1020.52
-1017.99
-1010.99
-997.747
-974.803
-939.328
-888.446
-824.559
-742.261
-651.461
-527.892
-409.709
-305.093
-236.076
-165.254
-142.78
-131.449
-159.982
-223.505
-354.245
-531.208
-746.506
-602.912
-587.005
-549.844
-492.146
-426.11
-352.152
-274.68
-196.661
-128.235
-64.0198
-12.5673
8.88535e-18
9.62386e-26
4.40851e-25
-2.40658e-25
1.16967e-25
-1.20908e-26
-6.06741e-26
-0.305026
-1.64836
-6.6704
-15.4105
-79.0474
-1.12517e-31
-1.12503e-31
-1.12039e-31
-1.64222e-31
3.14041e-29
-2.39878e-28
-9.8843e-27
-4.28626e-27
-1.27751e-26
-2.20936e-25
2.03412e-25
-2.66413e-08
-1.93067e-07
-4.28474e-06
-7.8203e-06
-1.98166e-06
-2.83768e-07
-6.58313e-08
-7.23374e-07
5.43493e-20
-1.46134
-3.05303
-2.92743
-4.33036e-17
-3.09201e-15
-2.30956e-13
-1.05762e-11
-2.56989e-10
-5.24622e-09
-2.40157e-08
-1.82761e-08
-5.92346e-08
-7.42544e-07
-1.51625e-06
-4.95547e-06
-1.51254e-05
-1.46502e-05
-5.03566e-05
-6.85698e-05
-2.28371e-05
-9.4187e-24
-1.26369e-25
5.5057e-22
-0.24197
-1.26067
-1.2654
-1.06734e-15
-9.50409e-14
-4.63913e-12
-1.43137e-10
-2.55251e-09
-4.08776e-08
-8.73531e-08
-3.92163e-08
-3.92163e-08
-0.00014816
-0.00107193
-0.000757813
-0.000110897
-2.36058e-06
-2.36919e-06
-0.00795538
-0.018983
-0.0151633
-0.00847037
-0.0033917
-0.0031461
-0.00117019
-0.00128724
-4.49425e-15
-3.98248e-13
-1.83379e-11
-4.97682e-10
-8.5938e-09
-1.01349e-07
-1.17571e-07
-3.09447e-08
-1.11331e-05
-0.00269191
-0.00427663
-0.00221052
-3.68611e-05
-2.56243e-06
-2.551e-06
-0.0405572
-0.0672156
-0.0672382
-0.0672156
-0.0522962
-0.00398861
-5.82346e-06
-5.37354e-06
-9.29742e-15
-7.89684e-13
-3.35947e-11
-8.26702e-10
-1.44149e-08
-1.32994e-07
-1.1902e-07
-3.32558e-08
-0.00102857
-0.00459912
-0.00459912
-0.00181364
-0.000104707
-2.83428e-06
-0.00386573
-0.0117254
-0.0409988
-0.0490658
-0.0275431
-0.00356983
-0.000344968
-7.73094e-06
-3.07484e-06
-1.23657e-14
-1.02291e-12
-4.1955e-11
-9.91669e-10
-1.67774e-08
-1.40744e-07
-1.11888e-07
-3.56117e-08
-0.001339
-0.00485305
-0.00314262
-0.000267705
-0.000126851
-0.000579809
-3.93837e-08
-5.74483e-13
-5.89835e-13
-5.74483e-13
-5.89835e-13
-5.74483e-13
-5.89835e-13
-1.03096e-06
-7.05115e-07
-1.33897e-14
-1.09176e-12
-4.38196e-11
-9.99391e-10
-1.33127e-08
-1.16696e-07
-7.22208e-08
-3.79197e-08
-0.000116877
-0.00084694
-2.30569e-08
-1.90532e-05
-3.21078e-06
-3.21082e-06
-9.72114e-07
-2.2241e-07
-5.26327e-08
-1.26593e-08
-3.1268e-09
-7.61009e-10
-2.24222e-10
-1.02202e-10
-8.12816e-09
-1.06809e-14
-8.27413e-13
-3.08269e-11
-6.3067e-10
-7.1247e-09
-5.24729e-08
-3.03405e-08
-8.43704e-06
-2.44748e-08
-2.44748e-08
-2.44748e-08
-1.63322e-05
-1.29596e-05
-5.26265e-06
-2.01678e-06
-5.39458e-07
-1.33207e-07
-3.19697e-08
-7.72307e-09
-1.91989e-09
-4.30646e-10
-1.08485e-10
-9.6739e-11
-4.92286e-15
-3.64981e-13
-1.30772e-11
-2.59102e-10
-2.98091e-09
-2.05935e-08
-3.20984e-08
-9.62445e-06
-3.7026e-06
-3.06503e-07
-2.58928e-08
-7.61904e-06
-1.40981e-05
-1.03243e-05
-2.89627e-06
-6.71592e-07
-1.61202e-07
-3.79466e-08
-8.91046e-09
-2.10328e-09
-4.92988e-10
-1.28023e-10
-2.08971e-10
-1.68327e-15
-1.22224e-13
-4.315e-12
-8.50448e-11
-1.0195e-09
-8.51863e-09
-9.24101e-09
-4.50532e-06
-2.02059e-06
-2.74709e-07
-3.07736e-08
-1.70577e-06
-7.36708e-06
-5.78866e-06
-2.50276e-06
-5.6717e-07
-1.22449e-07
-2.56321e-08
-5.26881e-09
-1.07719e-09
-2.04101e-10
-1.27659e-10
-7.59306e-10
-4.24937e-16
-3.0726e-14
-1.08935e-12
-2.21058e-11
-2.89293e-10
-3.03476e-09
-4.40278e-08
-1.06633e-09
-1.06621e-09
-1.82224e-08
-4.71355e-08
-6.27658e-07
-1.22401e-06
-1.28155e-06
-7.65959e-07
-1.95784e-07
-4.206e-08
-8.33987e-09
-1.60836e-09
-2.96196e-10
-6.6669e-11
-1.88244e-10
-2.95841e-09
-7.52838e-17
-5.59966e-15
-2.06288e-13
-4.53802e-12
-6.83861e-11
-7.93587e-10
-1.45367e-08
-4.30226e-09
-1.12255e-09
-5.55884e-09
-5.38593e-08
-3.37851e-07
-2.97236e-07
-2.32051e-07
-1.31374e-07
-3.84835e-08
-8.69999e-09
-1.68997e-09
-3.07205e-10
-4.74386e-11
-3.79822e-11
-5.43203e-10
-7.2225e-09
-8.59947e-18
-7.01373e-16
-2.85428e-14
-7.22512e-13
-1.2711e-11
-1.5669e-10
-1.26878e-09
-8.41334e-10
-7.56646e-10
-2.28742e-09
-2.48055e-08
-6.74372e-08
-4.54469e-08
-3.24001e-08
-1.99049e-08
-6.42016e-09
-1.41932e-09
-2.57223e-10
-4.16277e-11
-7.65401e-12
-4.0344e-11
-9.17012e-10
-1.06023e-08
-5.52218e-19
-5.61244e-17
-2.7678e-15
-8.32579e-14
-1.62582e-12
-1.93152e-11
-8.01455e-11
-3.96192e-11
-8.63709e-11
-4.98965e-10
-3.79841e-09
-4.60866e-09
-2.64725e-09
-3.59759e-09
-2.93981e-09
-1.08737e-09
-2.03346e-10
-3.14823e-11
-4.05271e-12
-2.6811e-12
-5.88414e-11
-1.1276e-09
-1.30808e-08
-1.65999e-20
-2.37018e-18
-1.50858e-16
-5.23553e-15
-1.04425e-13
-1.05433e-12
-2.86669e-12
-2.86567e-12
-1.41428e-11
-7.32195e-11
-2.26227e-10
-7.41684e-11
-7.06643e-12
-2.92911e-10
-2.70593e-10
-1.00261e-10
-1.63186e-11
-2.14132e-12
-2.69124e-13
-1.80476e-12
-6.30904e-11
-1.1962e-09
-1.57993e-08
-1.69037e-22
-1.3978e-20
-6.04836e-19
-1.78801e-17
-4.17242e-16
-6.18365e-15
-4.03474e-14
-2.51906e-13
-1.57267e-12
-6.59592e-12
-8.89821e-12
-5.59118e-12
-1.3538e-12
-1.61109e-11
-1.46699e-11
-4.99961e-12
-6.99662e-13
-7.2663e-14
-3.24948e-14
-1.36593e-12
-4.92652e-11
-1.19876e-09
-2.38573e-08
-1.57636e-23
-1.41681e-21
-6.45395e-20
-1.97465e-18
-4.89583e-17
-8.14717e-16
-4.88901e-15
-2.25768e-14
-1.0813e-13
-2.67832e-13
-2.56584e-13
-2.56706e-13
-1.20818e-13
-1.36072e-14
-1.1455e-13
-5.77101e-14
-7.93589e-15
-9.29617e-16
-1.33693e-14
-8.7796e-13
-4.33107e-11
-1.5884e-09
-4.32125e-08
-7.27575e-25
-6.74056e-23
-2.9531e-21
-7.8251e-20
-1.41307e-18
-1.78101e-17
-1.65873e-16
-1.09416e-15
-5.15704e-15
-1.24391e-14
-1.6571e-14
-2.10126e-14
-9.13936e-15
-1.04073e-15
-7.41752e-17
-3.78814e-18
-3.69467e-18
-1.57487e-16
-1.04023e-14
-8.49609e-13
-5.29453e-11
-2.19717e-09
-5.45316e-08
-3.87489e-30
-2.43055e-28
-7.02744e-27
-1.18699e-25
-1.2356e-24
-3.81979e-24
-4.11731e-24
-3.6241e-23
-1.45966e-22
-4.83956e-22
-1.12985e-21
-1.18129e-21
-1.11743e-21
-6.2655e-22
-1.06385e-21
-4.46769e-20
-2.25337e-18
-1.14355e-16
-9.63931e-15
-9.91238e-13
-6.41707e-11
-2.32151e-09
-4.65204e-08
-3.42473e-34
-2.86849e-32
-1.19004e-30
-3.25451e-29
-6.97954e-28
-1.40875e-26
-5.79438e-25
-1.21633e-23
-9.59177e-23
-3.88726e-22
-7.30136e-22
-7.60467e-22
-2.62054e-22
-4.07218e-23
-3.90028e-22
-2.63456e-20
-1.37492e-18
-6.54659e-17
-5.36136e-15
-7.21256e-13
-5.0349e-11
-1.04294e-09
-1.07314e-08
-2.28141e-37
-1.83601e-35
-7.04746e-34
-1.67735e-32
-2.78554e-31
-3.34991e-30
-3.05717e-29
-2.09838e-28
-1.13135e-27
-4.92968e-27
-2.06561e-26
-2.38913e-25
-5.10425e-26
-1.91598e-24
-1.86578e-22
-1.3898e-20
-7.59202e-19
-3.03395e-17
-9.21032e-16
-2.09681e-14
-3.67889e-13
-4.64209e-12
-4.58901e-11
-7.94884e-43
-8.16559e-41
-4.09535e-39
-1.31164e-37
-3.03414e-36
-5.31942e-35
-7.43603e-34
-8.35274e-33
-7.76683e-32
-5.88997e-31
-3.74131e-30
-4.38282e-29
-4.92605e-27
-7.00531e-25
-7.72608e-23
-6.32264e-21
-3.81932e-19
-1.55557e-17
-4.49309e-16
-1.07386e-14
-2.45012e-13
-4.93549e-12
-6.66038e-11
-3.12873e-46
-3.43563e-44
-1.84967e-42
-6.43592e-41
-1.64633e-39
-3.29184e-38
-5.45149e-37
-7.58024e-36
-9.01048e-35
-9.49888e-34
-2.87118e-32
-5.73272e-30
-1.22135e-27
-2.04955e-25
-2.58635e-23
-2.36615e-21
-1.33736e-19
-4.93625e-18
-1.26538e-16
-2.3542e-15
-3.29082e-14
-3.60743e-13
-3.25643e-12
-1.52018e-52
-2.03274e-50
-1.48792e-48
-7.85862e-47
-3.28372e-45
-1.09804e-43
-2.99715e-42
-9.39993e-41
-1.72476e-38
-7.2872e-36
-2.77622e-33
-9.059e-31
-2.32488e-28
-4.74313e-26
-6.85012e-24
-5.67112e-22
-2.98597e-20
-1.08424e-18
-2.84451e-17
-5.58895e-16
-8.50913e-15
-1.0538e-13
-1.13261e-12
-1.02886e-57
-2.2319e-55
-2.4898e-53
-1.86274e-51
-1.06207e-49
-6.8012e-48
-1.99146e-45
-1.32024e-42
-8.40992e-40
-4.69016e-37
-2.26812e-34
-9.21401e-32
-2.94009e-29
-7.37047e-27
-1.02097e-24
-8.17663e-23
-4.32563e-21
-1.61415e-19
-4.43875e-18
-9.30259e-17
-1.52797e-15
-2.01929e-14
-2.18258e-13
-7.46753e-62
-2.30493e-59
-3.5677e-57
-3.72172e-55
-4.07432e-53
-1.77203e-50
-1.72832e-47
-1.66562e-44
-1.45709e-41
-1.12875e-38
-7.69182e-36
-4.28191e-33
-1.94694e-30
-5.97697e-28
-8.65667e-26
-7.37894e-24
-4.20084e-22
-1.69803e-20
-5.08095e-19
-1.16149e-17
-2.0842e-16
-3.01117e-15
-3.57058e-14
-2.36665e-66
-1.05645e-63
-2.58967e-61
-6.32731e-59
-4.28808e-56
-6.02033e-53
-8.63129e-50
-1.15132e-46
-1.41184e-43
-1.53551e-40
-1.45391e-37
-1.09469e-34
-6.48277e-32
-2.47549e-29
-4.11522e-27
-3.91983e-25
-2.47086e-23
-1.10629e-21
-3.68239e-20
-9.40506e-19
-1.89079e-17
-3.06202e-16
-4.06611e-15
-4.35377e-70
-2.40673e-67
-7.56612e-65
-2.61634e-62
-2.5551e-59
-4.70452e-56
-9.45744e-53
-1.81011e-49
-3.2302e-46
-5.29198e-43
-7.25878e-40
-8.50155e-37
-7.74054e-34
-4.83686e-31
-1.10768e-28
-1.3149e-26
-9.87102e-25
-5.12468e-23
-1.94583e-21
-5.61419e-20
-1.26868e-18
-2.30193e-17
-3.41874e-16
-2.5479e-74
-1.9731e-71
-8.86063e-69
-4.13967e-66
-5.07663e-63
-1.34006e-59
-3.95115e-56
-1.18877e-52
-3.20133e-49
-7.82862e-46
-1.6198e-42
-2.91638e-39
-3.74802e-36
-3.7445e-33
-1.38253e-30
-2.25982e-28
-2.19739e-26
-1.42057e-24
-6.52507e-23
-2.22954e-21
-5.87601e-20
-1.22963e-18
-2.08866e-17
-9.21357e-79
-9.95929e-76
-6.30036e-73
-3.75019e-70
-5.02442e-67
-1.7359e-63
-7.28771e-60
-3.15368e-56
-1.2655e-52
-4.70929e-49
-1.53067e-45
-4.16018e-42
-8.53316e-39
-1.41238e-35
-9.17658e-33
-2.20235e-30
-2.94137e-28
-2.50456e-26
-1.46552e-24
-6.19416e-23
-1.96915e-21
-4.87309e-20
-9.65558e-19
-8.48932e-84
-1.45437e-80
-1.43334e-77
-1.15234e-74
-1.31227e-71
-5.19105e-68
-3.31525e-64
-2.18462e-60
-1.4522e-56
-8.31703e-53
-4.21179e-49
-1.76018e-45
-6.22531e-42
-1.61809e-38
-2.20631e-35
-8.91715e-33
-1.81544e-30
-2.23581e-28
-1.81799e-26
-1.02911e-24
-4.22963e-23
-1.31007e-21
-3.16507e-20
-5.19375e-89
-1.37498e-85
-2.10378e-82
-2.51875e-79
-3.4892e-76
-1.56383e-72
-1.41177e-68
-1.34766e-64
-1.2904e-60
-1.08189e-56
-8.65035e-53
-5.87159e-49
-3.5226e-45
-1.6927e-41
-3.36439e-38
-1.96362e-35
-5.9061e-33
-1.07547e-30
-1.27807e-28
-1.03474e-26
-5.90326e-25
-2.44695e-23
-7.60704e-22
-5.27303e-95
-2.64053e-91
-7.22424e-88
-1.42824e-84
-2.72698e-81
-1.37645e-77
-1.79974e-73
-2.79634e-69
-4.5975e-65
-6.55816e-61
-8.69265e-57
-1.05447e-52
-9.94178e-49
-8.25714e-45
-1.79011e-41
-1.46384e-38
-6.64598e-36
-1.88037e-33
-3.50432e-31
-4.42292e-29
-3.85958e-27
-2.37292e-25
-1.05047e-23
-5.1397e-101
-4.87386e-97
-2.46732e-93
-1.59569e-89
-1.08215e-84
-3.06475e-80
-4.52399e-76
-7.35771e-72
-2.12438e-67
-8.27143e-63
-2.32356e-58
-1.48133e-54
-4.59546e-51
-8.49166e-48
-1.00237e-44
-7.80478e-42
-4.15537e-39
-1.55675e-36
-4.19617e-34
-8.15695e-32
-1.13865e-29
-1.1316e-27
-7.9568e-26
-1.82946e-105
-1.95312e-100
-1.75898e-95
-3.43536e-90
-2.73973e-84
-1.0299e-79
-1.31503e-75
-9.21986e-72
-4.20555e-68
-1.43584e-64
-3.65154e-61
-7.13105e-58
-1.09474e-54
-1.33851e-51
-1.31424e-48
-1.02831e-45
-6.35382e-43
-3.07032e-40
-1.1571e-37
-3.3872e-35
-7.62143e-33
-1.29465e-30
-1.62058e-28
-7.84668e-105
-8.79251e-100
-3.65613e-95
-7.44029e-91
-9.93271e-87
-8.37613e-83
-4.80943e-79
-2.00262e-75
-6.33846e-72
-1.57727e-68
-3.16141e-65
-5.19739e-62
-7.09428e-59
-8.12049e-56
-7.85629e-53
-6.42713e-50
-4.42024e-47
-2.53277e-44
-1.1988e-41
-4.68038e-39
-1.50467e-36
-3.9691e-34
-8.5093e-32
-532.044
-532.803
-533.467
-337.869
-656.903
-657.779
-658.662
-648.792
-783.639
-783.579
-783.769
-783.705
-909.051
-909.051
-909.051
-909.05
-876.109
-937.3
-1003.63
-1034.25
-146.497
-203.53
-268.329
-343.748
-3.14113
-3.68272
-4.78585
-6.72217
-0.833122
-0.326752
-0.138653
-0.0799324
-0.00201356
-0.00174223
-0.00116424
-0.000566192
-1.15562e-05
-9.92079e-06
-1.49418e-05
-0.000185952
-5.96342e-06
-4.22006e-06
-4.50723e-09
-2.06968e-05
-1.89706e-07
-2.11271e-08
-4.82349e-09
-1.66288e-09
-1.58624e-08
-1.93614e-08
-1.98071e-08
-1.74617e-08
-1.22438e-10
-2.04136e-10
-5.93459e-10
-5.93419e-10
-4.23736e-10
-8.1013e-10
-2.25053e-09
-4.61331e-09
-1.86199e-09
-3.658e-09
-9.01868e-09
-2.76958e-08
-7.25916e-09
-1.37979e-08
-3.27247e-08
-1.02486e-07
-1.78466e-08
-3.52809e-08
-9.48414e-08
-2.09598e-07
-2.84419e-08
-6.67412e-08
-2.71332e-07
-2.98239e-07
-4.29596e-08
-1.54018e-07
-6.41009e-07
-3.2795e-07
-8.46822e-08
-4.76447e-07
-1.39081e-06
-3.10818e-07
-2.24104e-07
-1.0752e-06
-1.88834e-06
-1.54177e-07
-3.93027e-07
-1.44102e-06
-1.96315e-06
-1.58314e-07
-4.64032e-07
-9.98197e-07
-1.22504e-06
-1.65778e-07
-2.49302e-07
-2.51545e-07
-1.60319e-07
-1.71861e-07
-3.40282e-08
-2.91637e-08
-1.83161e-08
-3.80087e-08
-4.1413e-10
-3.13077e-09
-1.82831e-08
-1.07983e-07
-5.77542e-10
-3.78706e-09
-3.0783e-08
-3.03729e-07
-2.00327e-11
-8.47597e-11
-2.76853e-10
-4.18958e-10
-8.69437e-12
-4.70037e-11
-2.4116e-10
-9.82171e-10
-1.49723e-12
-6.51727e-12
-2.91767e-11
-2.14033e-10
-2.68782e-13
-1.25513e-12
-5.15016e-12
-1.96123e-11
-3.41517e-14
-1.77427e-13
-8.13922e-13
-3.4245e-12
-3.19491e-15
-1.83693e-14
-9.37519e-14
-4.4126e-13
-2.21366e-16
-1.4345e-15
-8.29085e-15
-4.42741e-14
-1.17826e-17
-8.71042e-17
-5.75591e-16
-3.51713e-15
-4.61001e-19
-4.02291e-18
-3.14292e-17
-2.26717e-16
-1.37219e-20
-1.45441e-19
-1.37425e-18
-1.19485e-17
-2.56743e-22
-3.59116e-21
-4.41841e-20
-4.92147e-19
-2.94489e-24
-6.03225e-23
-1.06266e-21
-1.65125e-20
-1.07501e-26
-3.8663e-25
-1.17361e-23
-3.05593e-22
-1.07476e-29
-7.58242e-28
-4.64213e-26
-2.45917e-24
-1.96892e-13
-1.96884e-13
-1.96891e-13
-6.69937e-07
-9.29915e-07
-9.37128e-07
-3.26666e-07
-4.04052e-07
-6.33358e-08
-1.16277e-08
-2.4659e-09
-6.13185e-10
-1.13954e-10
-1.17581e-11
-4.69538e-13
-1.31271e-14
-2.94562e-16
-4.43132e-18
-3.18892e-20
-516.464
-293.645
-32.8645
-5.22167e-07
-5.22163e-07
-5.22167e-07
-8.67438e-07
-1.63995e-06
-5.28297e-07
-1.86053e-07
-3.87731e-08
-1.09073e-08
-2.82686e-09
-4.50503e-10
-3.07807e-11
-1.39299e-12
-4.84764e-14
-1.10247e-15
-1.17047e-17
-781.643
-760.958
-674.313
-531.868
-241.045
-11.6041
-6.29328e-07
-6.28709e-07
-6.28713e-07
-1.53498e-06
-1.69225e-07
-9.81126e-08
-4.1457e-08
-8.27105e-09
-1.05574e-09
-7.64583e-11
-3.97425e-12
-1.27413e-13
-1.88767e-15
-909.049
-908.951
-908.133
-904.963
-860.855
-774.98
-582.341
-189.429
-8.59643
-1.86383e-07
-1.86385e-07
-2.07362e-07
-1.58673e-07
-1.03867e-07
-3.07596e-08
-1.17066e-09
-4.60901e-12
-6.26288e-12
-3.2036e-13
-1034.25
-1034.25
-1034.25
-1034.25
-1034.11
-1033.25
-1026.44
-977.281
-820.534
-350.291
-25.0842
-1.80264e-07
-1.80262e-07
-7.99919e-05
-2.85566e-05
-1.33189e-09
-4.91767e-08
-7.30614e-09
-1.8176e-10
-502.341
-671.945
-842.445
-1048.8
-1150.87
-1159.44
-1159.44
-1159.44
-1159.44
-1129.44
-873.697
-241.339
-11.6137
-0.395817
-0.0198127
-0.00105122
-1.29912e-05
-2.954e-08
-7.34469e-10
-12.9647
-33.9649
-79.0835
-151.758
-233.531
-359.673
-678.581
-1145.36
-1278.86
-1284.63
-1284.63
-1145.98
-459.683
-29.7567
-1.03689
-0.0212305
-2.85735e-05
-8.95142e-09
-6.58275e-10
-0.0381294
-0.0482373
-0.173704
-0.66876
-2.04867
-6.41481
-22.2872
-66.268
-262.868
-927.195
-1364.22
-1370.59
-1258.4
-477.669
-24.7629
-0.279151
-0.000455938
-3.78957e-08
-7.22438e-10
-0.00019349
-7.70191e-05
-5.49711e-05
-5.19392e-05
-0.00134265
-7.02933e-07
-7.02938e-07
-7.02933e-07
-7.02938e-07
-18.5399
-427.932
-1343.85
-1434.52
-1205.26
-278.187
-6.51233
-0.0132728
-4.7428e-06
-1.64879e-09
-0.000245297
-0.000129667
-4.61098e-06
-1.46393e-06
-3.71168e-06
-5.73129e-06
-7.60263e-07
-0.000518996
-0.00857061
-0.0094274
-1.65611e-05
-461.455
-1475.97
-1515.66
-870.343
-63.8655
-0.662361
-0.000326109
-2.27017e-09
-0.000250242
-0.000182185
-1.51949e-05
-1.12321e-06
-8.17655e-07
-8.17649e-07
-8.17599e-07
-0.000173141
-0.00168451
-0.00111707
-1.78107e-05
-6.65666
-964.545
-1630.08
-1427.02
-420.353
-8.76859
-0.00182691
-2.44114e-09
-1.65754e-09
-1.66288e-09
-5.13817e-08
-2.95063e-07
-1.00288e-06
-1.27076e-06
-1.52823e-06
-6.01483e-06
-1.57469e-05
-6.59505e-05
-3.20773e-05
-1.91427e-07
-410.627
-1616.58
-1670.96
-863.8
-26.617
-0.00959077
-2.74363e-09
-1.51386e-07
-1.01816e-06
-7.97852e-07
-5.86553e-07
-2.39851e-06
-4.70746e-06
-4.80417e-06
-3.22152e-06
-1.89956e-06
-2.17283e-06
-3.46764e-06
-2.0397e-07
-104.706
-1435.14
-1779.89
-938.714
-28.5264
-0.0107031
-2.71288e-09
-4.80671e-08
-8.80787e-06
-2.02358e-05
-1.5844e-05
-6.69503e-06
-4.48436e-06
-1.84842e-06
-1.84889e-06
-1.84842e-06
-1.33991e-05
-1.48191e-05
-1.61221e-06
-2.16514e-07
-1168.76
-1873.52
-847.481
-22.9089
-0.00803578
-2.24664e-09
-4.61334e-09
-6.41931e-06
-6.54436e-05
-8.5264e-05
-7.09071e-05
-7.90803e-06
-5.98885e-05
-0.000642502
-0.000845415
-0.000237619
-6.84936e-06
-3.07319e-07
-2.29057e-07
-1240.41
-1597.33
-531.515
-10.5791
-0.00290274
-1.48524e-09
-3.81175e-08
-1.02822e-08
-1.02807e-08
-1.02822e-08
-0.000473574
-0.00182226
-0.00191202
-0.00191215
-0.00133738
-0.000106525
-1.43535e-06
-2.416e-07
-209.215
-1673.72
-1085.14
-102.178
-1.21659
-0.000736535
-7.78767e-10
-1.00032e-07
-3.12154e-08
-1.93555e-07
-1.08145e-08
-0.00175233
-0.0023551
-0.0015703
-0.000454483
-0.000244546
-1.03817e-05
-4.14957e-07
-2.54144e-07
-1200.16
-1828.62
-1283.83
-106.011
-0.178047
-0.000130213
-4.64351e-11
-1.21082e-07
-5.25544e-09
-5.91327e-05
-0.00027583
-0.00228855
-0.000622464
-0.000534765
-0.000444671
-0.00099934
-0.000405629
-2.66687e-07
-143.598
-1725.33
-1919.15
-1332.72
-97.1567
-0.0896792
-2.43868e-05
-4.757e-12
-1.09877e-07
-6.62613e-09
-0.00309382
-0.0112508
-0.022958
-0.00716608
-0.0388944
-0.0187444
-0.00084972
-0.000105267
-2.79231e-07
-158.664
-1200.07
-1439.76
-736.763
-34.1246
-0.0236652
-3.74904e-06
-4.98145e-12
-8.51998e-08
-0.00908096
-0.0207409
-0.151203
-0.457546
-0.355127
-0.035871
-0.00792933
-2.91774e-07
-2.91774e-07
-4.70429
-59.0409
-121.411
-114.881
-50.294
-10.3728
-0.0343921
-2.19174e-12
-5.2043e-12
-8.88286e-08
-0.0516816
-0.06028
-0.47859
-0.47859
-0.47859
-0.0567287
-0.372357
-0.306642
-1.40494
-5.3734
-2.24951
-0.4575
-0.150035
-0.166203
-1.52066
-0.00424264
-2.28674e-12
-5.29369e-12
-0.00582247
-0.0721784
-0.0336242
-0.384762
-0.498316
-0.498316
-0.498316
-0.375808
-0.451141
-0.639209
-0.126781
-0.00112253
-2.98158e-05
-7.4159e-05
-0.000781654
-0.000937634
-0.000318703
-2.38019e-12
-4.82955e-12
-0.00383838
-0.0750383
-0.0100019
-0.10812
-0.405253
-0.447005
-0.150947
-0.018957
-0.0273939
-0.000387207
-1.57053e-06
-1.46886e-07
-1.06286e-07
-4.50239e-07
-8.31604e-07
-5.2215e-07
-1.79117e-06
-2.47525e-12
-3.2904e-12
-0.0011247
-0.0288395
-0.00914271
-0.00300131
-0.0296352
-0.045727
-0.00329041
-3.38469e-05
-0.000871555
-0.00662267
-0.00732714
-1.29246e-08
-5.09988e-08
-8.83413e-08
-6.51661e-08
-3.09012e-08
-6.36142e-08
-3.03688e-12
-1.40891e-12
-1.7186e-07
-0.0117711
-0.109273
-3.41479e-07
-4.72319e-06
-3.81889e-06
-5.23445e-06
-3.41436e-07
-3.41436e-07
-3.41436e-07
-1.35551
-1.33996e-08
-7.05197e-08
-4.39652e-08
-4.92946e-08
-2.41319e-08
-4.14536e-09
-3.54304e-12
-5.35571e-13
-1.45201e-05
-0.0281389
-0.11322
-3.53562e-07
-3.53517e-07
-3.53517e-07
-3.53517e-07
-81.117
-761.144
-384.504
-36.795
-1.38728e-08
-1.43691e-08
-1.49268e-08
-2.71134e-08
-1.78469e-08
-1.81458e-10
-2.32454e-12
-1.93245e-13
-2.78996e-05
-0.0164584
-0.112558
-0.0686754
-0.00923999
-7.3683e-06
-3.65599e-07
-1183.92
-1800.65
-1765.16
-383.521
-1.57706
-2.56047e-06
-5.61028e-10
-1.24323e-08
-7.67519e-09
-6.86203e-12
-8.18898e-13
-6.64904e-14
-8.4485e-06
-0.000212313
-0.0231972
-0.113012
-0.0143669
-0.000124647
-3.7768e-07
-1342.65
-1858.49
-1860.15
-394.05
-1.56992
-5.77582e-06
-5.7949e-10
-5.45693e-09
-2.19737e-09
-1.39769e-12
-2.77776e-13
-2.18951e-14
-2.55507e-10
-2.555e-10
-2.55507e-10
-0.00933465
-0.111423
-0.000128633
-7.60192
-421.733
-1127.66
-730.96
-145.522
-1.17107
-1.32014e-06
-5.98107e-10
-2.28391e-09
-5.41708e-10
-1.29511e-12
-1.09425e-13
-6.99769e-15
-4.62965e-09
-2.62563e-08
-9.10201e-07
-0.00260152
-0.244916
-0.393723
-6.06702
-8.98879
-29.4194
-13.4224
-10.6301
-0.380019
-1.34739e-09
-3.41702e-09
-9.44907e-10
-1.34595e-10
-1.2318e-12
-5.0497e-14
-2.21388e-15
-4.05359e-09
-8.46903e-08
-2.84501e-06
-0.000342089
-0.00530957
-0.0643315
-0.053775
-0.000747735
-0.00390476
-0.00153555
-0.00967449
-0.0552842
-1.38867e-09
-5.68753e-09
-4.53165e-10
-4.89546e-11
-1.02357e-12
-2.40303e-14
-6.9945e-16
-1.08678e-10
-4.91301e-10
-4.91332e-10
-4.91276e-10
-4.94498e-10
-4.94555e-10
-3.03091e-08
-2.18747e-08
-6.6239e-08
-4.85426e-07
-3.67845e-06
-1.23093e-05
-1.00881e-07
-6.64319e-09
-2.68233e-10
-2.40309e-11
-6.38912e-13
-1.05988e-14
-2.18322e-16
-1.95544e-11
-1.26998e-10
-6.68279e-10
-2.49705e-09
-6.41999e-09
-1.1395e-08
-1.56849e-08
-2.23437e-08
-3.77456e-08
-8.59065e-08
-1.41121e-07
-1.76821e-07
-2.00266e-07
-7.7917e-09
-1.56525e-10
-1.0853e-11
-2.66568e-13
-4.12663e-15
-6.57236e-17
-2.88419e-12
-2.19065e-11
-1.36518e-10
-6.66642e-10
-2.48447e-09
-6.84818e-09
-1.37561e-08
-2.33566e-08
-4.19164e-08
-8.1166e-08
-1.33897e-07
-1.64578e-07
-1.73996e-07
-5.74566e-09
-7.57775e-11
-4.0689e-12
-9.30839e-14
-1.40253e-15
-1.85884e-17
-3.32957e-13
-2.92232e-12
-2.11087e-11
-1.21266e-10
-5.5124e-10
-1.98582e-09
-5.67369e-09
-1.30601e-08
-2.69242e-08
-4.79625e-08
-7.03606e-08
-8.18933e-08
-6.60505e-08
-2.21552e-09
-2.94261e-11
-1.28338e-12
-2.80636e-14
-4.16966e-16
-4.84682e-18
-3.06995e-14
-3.1428e-13
-2.65791e-12
-1.79702e-11
-9.62151e-11
-4.13222e-10
-1.29324e-09
-3.27931e-09
-7.6177e-09
-1.40601e-08
-1.97839e-08
-2.24675e-08
-1.35306e-08
-5.93968e-10
-9.32873e-12
-3.49513e-13
-7.42441e-15
-1.09184e-16
-1.15294e-18
-2.36091e-15
-2.87204e-14
-2.87874e-13
-2.32559e-12
-1.51348e-11
-7.29324e-11
-2.50104e-10
-6.67501e-10
-1.59601e-09
-3.17709e-09
-4.52986e-09
-5.10753e-09
-2.53248e-09
-1.39993e-10
-2.48506e-12
-8.37327e-14
-1.74268e-15
-2.53872e-17
-2.49208e-19
-1.51829e-16
-2.24898e-15
-2.73561e-14
-2.66472e-13
-2.04456e-12
-1.10492e-11
-4.16593e-11
-1.16904e-10
-2.81578e-10
-5.9288e-10
-8.74532e-10
-9.94011e-10
-4.50454e-10
-2.9399e-11
-5.72855e-13
-1.79107e-14
-3.66635e-16
-5.28825e-18
-4.89571e-20
-8.01858e-18
-1.49881e-16
-2.28518e-15
-2.81303e-14
-2.45472e-13
-1.48392e-12
-6.14519e-12
-1.82332e-11
-4.39254e-11
-9.56494e-11
-1.47019e-10
-1.70684e-10
-7.52713e-11
-5.5507e-12
-1.16588e-13
-3.45531e-15
-6.97313e-17
-9.95148e-19
-8.77013e-21
-3.70988e-19
-9.13413e-18
-1.77977e-16
-2.62658e-15
-2.61985e-14
-1.77733e-13
-8.09858e-13
-2.55714e-12
-6.21978e-12
-1.36674e-11
-2.20236e-11
-2.64112e-11
-1.17682e-11
-9.54671e-13
-2.1345e-14
-6.07575e-16
-1.20996e-17
-1.70644e-19
-1.43963e-21
-1.13372e-20
-4.28389e-19
-1.21162e-17
-2.17303e-16
-2.52458e-15
-1.93821e-14
-9.7439e-14
-3.28496e-13
-8.13822e-13
-1.78303e-12
-3.00603e-12
-3.74379e-12
-1.71626e-12
-1.50878e-13
-3.56176e-15
-9.82952e-17
-1.93361e-18
-2.69282e-20
-2.18356e-22
-1.85719e-22
-1.35353e-20
-5.8998e-19
-1.37325e-17
-1.93226e-16
-1.72012e-15
-9.66509e-15
-3.49978e-14
-8.91173e-14
-1.94568e-13
-3.41811e-13
-4.44779e-13
-2.12512e-13
-1.99175e-14
-4.90131e-16
-1.3201e-17
-2.56451e-19
-3.523e-21
-2.7571e-23
)
;

boundaryField
{
    leftWall
    {
        type            calculated;
        value           nonuniform List<scalar> 
50
(
-29.4294
-88.2881
-147.147
-206.006
-264.864
-323.723
-382.582
-441.44
-533.467
-658.662
-783.856
-909.048
-1021.46
-602.912
-1.12517e-31
-4.33036e-17
-1.06734e-15
-4.49425e-15
-9.29742e-15
-1.23657e-14
-1.33897e-14
-1.06809e-14
-4.92286e-15
-1.68327e-15
-4.24937e-16
-7.52838e-17
-8.59947e-18
-5.52218e-19
-1.65999e-20
-1.69037e-22
-1.57636e-23
-7.27575e-25
-3.87489e-30
-3.42473e-34
-2.28141e-37
-7.94884e-43
-3.12873e-46
-1.52018e-52
-1.02886e-57
-7.46753e-62
-2.36665e-66
-4.35377e-70
-2.5479e-74
-9.21357e-79
-8.48932e-84
-5.19375e-89
-5.27303e-95
-5.1397e-101
-1.82946e-105
-7.84668e-105
)
;
    }
    rightWall
    {
        type            calculated;
        value           nonuniform List<scalar> 
50
(
-1.62972e-38
-1.04519e-35
-3.79136e-33
-9.43143e-31
-1.42648e-28
-2.06402e-26
-1.95973e-24
-1.94011e-22
-3.18892e-20
-1.17047e-17
-1.88767e-15
-3.2036e-13
-1.8176e-10
-7.34469e-10
-6.58275e-10
-7.22438e-10
-1.64879e-09
-2.27017e-09
-2.44114e-09
-2.74363e-09
-2.71288e-09
-2.24664e-09
-1.48524e-09
-7.78767e-10
-4.64351e-11
-4.757e-12
-4.98145e-12
-5.2043e-12
-5.29369e-12
-4.82955e-12
-3.2904e-12
-1.40891e-12
-5.35571e-13
-1.93245e-13
-6.64904e-14
-2.18951e-14
-6.99769e-15
-2.21388e-15
-6.9945e-16
-2.18322e-16
-6.57236e-17
-1.85884e-17
-4.84682e-18
-1.15294e-18
-2.49208e-19
-4.89571e-20
-8.77013e-21
-1.43963e-21
-2.18356e-22
-2.7571e-23
)
;
    }
    lowerWall
    {
        type            calculated;
        value           nonuniform List<scalar> 
62
(
0
0
0
0
0
0
0
0
0
0
0
0
0
0
0
0
0
0
0
0
0
0
0
-29.3813
-88.1647
-146.743
-205.407
-264.095
-323.089
-382.08
-440.384
-469.613
-470.284
-470.87
-298.223
-1.85305e-23
-2.08882e-21
-1.28318e-19
-9.2792e-18
-8.6738e-16
-9.18167e-14
-4.58615e-12
-1.97436e-10
0
0
0
0
0
0
0
0
0
0
0
0
0
0
0
0
0
0
0
)
;
    }
    atmosphere
    {
        type            calculated;
        value           nonuniform List<scalar> 
46
(
-0
-0
-0
-0
-0
-0
-0
-0
-0
-0
-0
-0
-0
-0
-0
-0
-0
-0
-0
-0
-0
-0
-0
-0
-0
-0
-0
-0
-1.36848e-20
-5.96497e-19
-1.38842e-17
-1.95361e-16
-1.73912e-15
-9.77186e-15
-3.53844e-14