/*--------------------------------*- C++ -*----------------------------------*\
| =========                 |                                                 |
| \\      /  F ield         | OpenFOAM: The Open Source CFD Toolbox           |
|  \\    /   O peration     | Version:  3.0.1                                 |
|   \\  /    A nd           | Web:      www.OpenFOAM.org                      |
|    \\/     M anipulation  |                                                 |
\*---------------------------------------------------------------------------*/
FoamFile
{
    version     2.0;
    format      ascii;
    class       volScalarField;
    location    "0.12";
    object      T;
}
// * * * * * * * * * * * * * * * * * * * * * * * * * * * * * * * * * * * * * //

dimensions      [0 0 0 1 0 0 0];

internalField   nonuniform List<scalar> 
50
(
496.007
495.682
495.41
495.139
494.819
494.469
494.084
493.655
493.177
492.64
492.036
491.351
490.569
489.672
488.632
487.418
485.983
484.267
482.18
479.595
476.305
471.964
465.899
456.54
438.966
398.684
364.064
342.528
327.502
315.328
304.624
295.084
286.885
279.508
272.474
266.729
257.977
258.286
404.014
472.505
477.738
478.467
480.062
481.674
482.885
484.236
485.932
487.268
488.02
489.047
)
;

boundaryField
{
    inlet
    {
        type            totalTemperature;
        gamma           1.4;
        T0              uniform 500;
        value           uniform 496.003;
    }
    outlet
    {
        type            zeroGradient;
    }
    upperWall
    {
        type            zeroGradient;
    }
    lowerWall
    {
        type            zeroGradient;
    }
    frontAndBack
    {
        type            empty;
    }
}


// ************************************************************************* //
