/*--------------------------------*- C++ -*----------------------------------*\
| =========                 |                                                 |
| \\      /  F ield         | OpenFOAM: The Open Source CFD Toolbox           |
|  \\    /   O peration     | Version:  2012                                  |
|   \\  /    A nd           | Website:  www.openfoam.com                      |
|    \\/     M anipulation  |                                                 |
\*---------------------------------------------------------------------------*/
FoamFile
{
    version     2.0;
    format      ascii;
    class       volScalarField;
    location    "0.15";
    object      maxKappa;
}
// * * * * * * * * * * * * * * * * * * * * * * * * * * * * * * * * * * * * * //

dimensions      [0 0 0 0 0 0 0];


internalField   nonuniform List<scalar> 
2268
(
4.80541e-06
9.37146e-06
1.40903e-05
1.89127e-05
2.38616e-05
2.89955e-05
3.4275e-05
3.97844e-05
4.55185e-05
5.14299e-05
5.75178e-05
6.38515e-05
7.02263e-05
7.64516e-05
8.18751e-05
8.66799e-05
9.02532e-05
9.12845e-05
9.12845e-05
8.88124e-05
8.06314e-05
6.37302e-05
4.32278e-05
5.86226e-06
9.89928e-06
1.44379e-05
1.91698e-05
2.40665e-05
2.9166e-05
3.44222e-05
3.99159e-05
4.56406e-05
5.15521e-05
5.76475e-05
6.39778e-05
7.0374e-05
7.66418e-05
8.21815e-05
8.7209e-05
9.11327e-05
9.26168e-05
9.26168e-05
9.05295e-05
8.27972e-05
6.68939e-05
5.38389e-05
7.39994e-06
1.08605e-05
1.51028e-05
1.96705e-05
2.44684e-05
2.95016e-05
3.47129e-05
4.01758e-05
4.58815e-05
5.17927e-05
5.79052e-05
6.42428e-05
7.06905e-05
7.7027e-05
8.27894e-05
8.82335e-05
9.26814e-05
9.51252e-05
9.51252e-05
9.39107e-05
8.68567e-05
7.27193e-05
7.00228e-05
9.16852e-06
1.21378e-05
1.60406e-05
2.03957e-05
2.5058e-05
2.9997e-05
3.51436e-05
4.05614e-05
4.62378e-05
5.21457e-05
5.82769e-05
6.46422e-05
7.11441e-05
7.75461e-05
8.3645e-05
8.95868e-05
9.47719e-05
9.84075e-05
9.84075e-05
9.82201e-05
9.26363e-05
8.9322e-05
8.9322e-05
1.10553e-05
1.3627e-05
1.71946e-05
2.13118e-05
2.58127e-05
3.06352e-05
3.56999e-05
4.10611e-05
4.6699e-05
5.25998e-05
5.87585e-05
6.51716e-05
7.17567e-05
7.82999e-05
8.48297e-05
9.14349e-05
9.74832e-05
0.000102127
0.000102994
0.000102994
9.97878e-05
0.000106354
0.000106354
1.30089e-05
1.52634e-05
1.85216e-05
2.23949e-05
2.672e-05
3.14095e-05
3.63777e-05
4.16723e-05
4.7264e-05
5.31521e-05
5.93342e-05
6.58006e-05
7.24744e-05
7.92235e-05
8.62372e-05
9.35814e-05
0.000100468
0.00010585
0.000108306
0.000109048
0.000109048
0.000109362
0.000109362
1.49908e-05
1.69901e-05
1.99714e-05
2.36063e-05
2.77494e-05
3.22959e-05
3.71576e-05
4.23803e-05
4.79237e-05
5.37979e-05
6.00126e-05
6.65542e-05
7.33655e-05
8.04009e-05
8.79844e-05
9.61162e-05
0.000103738
0.000109727
0.000116957
0.000122422
0.000125533
0.000132264
0.000132264
1.69867e-05
1.87802e-05
2.15212e-05
2.49328e-05
2.88957e-05
3.32955e-05
3.80447e-05
4.31912e-05
4.8684e-05
5.45406e-05
6.0779e-05
6.73882e-05
7.43259e-05
8.16403e-05
8.97679e-05
9.84837e-05
0.000106413
0.000113097
0.0001365
0.000221407
0.000336493
0.000227257
0.000160195
0.000224102
0.000291031
0.000351054
0.000351054
0.000291255
0.000254549
0.000191329
0.000143473
9.79714e-05
6.32178e-05
4.07372e-05
2.81107e-05
2.81107e-05
2.2317e-05
2.2317e-05
2.02911e-05
2.07967e-05
2.07967e-05
1.70366e-05
0.000285666
0.000311756
0.000351279
0.000351279
0.00028519
0.000248905
0.000185948
0.000138751
9.3777e-05
5.93832e-05
3.66303e-05
2.7073e-05
2.7073e-05
2.1727e-05
2.1727e-05
2.04131e-05
2.11955e-05
2.11955e-05
1.73929e-05
0.000292879
0.000344371
0.000398231
0.000398231
0.000327151
0.000273555
0.000206999
0.000153277
0.000108539
7.1699e-05
5.13259e-05
3.12473e-05
3.12473e-05
2.28873e-05
2.28873e-05
2.0416e-05
2.09438e-05
2.09438e-05
1.70645e-05
0.000451077
0.000451077
0.000399252
0.000399252
0.000307186
0.000256415
0.00019291
0.000140599
9.78491e-05
6.19737e-05
4.48111e-05
2.84862e-05
2.84862e-05
2.11472e-05
2.11472e-05
2.10173e-05
2.2241e-05
2.2241e-05
1.82445e-05
0.000511312
0.000511312
0.000495106
0.000495106
0.000389618
0.000302169
0.00023077
0.000167676
0.000123254
8.31106e-05
6.2349e-05
3.94056e-05
3.5705e-05
2.41685e-05
2.35571e-05
2.07612e-05
2.17575e-05
2.17575e-05
1.76378e-05
0.000738906
0.000738906
0.000527079
0.000485789
0.000363126
0.000279252
0.000212866
0.000151116
0.00010998
7.1196e-05
5.49835e-05
3.35017e-05
3.24715e-05
2.17985e-05
2.29016e-05
2.29016e-05
2.42139e-05
2.42139e-05
1.99243e-05
0.000918107
0.000918107
0.000736253
0.000607232
0.000471806
0.000339894
0.000259998
0.000186655
0.000140562
9.66709e-05
7.37764e-05
4.88269e-05
4.11467e-05
2.79596e-05
2.49288e-05
2.20241e-05
2.35664e-05
2.35664e-05
1.91491e-05
0.00127049
0.00127049
0.000702171
0.000559654
0.000450475
0.000320506
0.000245865
0.000171311
0.000128576
8.60774e-05
6.77521e-05
4.50529e-05
3.96864e-05
2.94442e-05
2.98154e-05
2.73069e-05
2.74668e-05
2.74668e-05
2.28504e-05
2.18094e-05
2.28003e-05
2.4675e-05
2.73638e-05
3.08758e-05
3.50512e-05
3.96191e-05
4.4641e-05
5.00544e-05
5.58783e-05
6.21541e-05
6.88886e-05
7.60951e-05
8.39555e-05
9.29486e-05
0.000102304
0.000110763
0.000159657
0.00050109
0.00157222
0.00292984
0.00322476
0.000704758
2.6002e-05
2.68325e-05
2.84505e-05
3.0826e-05
3.38042e-05
3.76965e-05
4.20229e-05
4.68701e-05
5.21791e-05
5.79637e-05
6.42838e-05
7.11938e-05
7.8784e-05
8.73123e-05
9.68313e-05
0.000105747
0.000156172
0.000793019
0.00217449
0.00325169
0.00410318
0.004546
0.00248804
2.99988e-05
3.07171e-05
3.21467e-05
3.42859e-05
3.68643e-05
4.04692e-05
4.45721e-05
4.92486e-05
5.44537e-05
6.01942e-05
6.6545e-05
7.36353e-05
8.16065e-05
9.04826e-05
9.93977e-05
0.000150339
0.000801636
0.00223984
0.00279367
0.00299918
0.00408224
0.00493163
0.00517006
3.37677e-05
3.44032e-05
3.56895e-05
3.76459e-05
4.00021e-05
4.33388e-05
4.72519e-05
5.17741e-05
5.68807e-05
6.2578e-05
6.89723e-05
7.62214e-05
8.44224e-05
9.29219e-05
0.00011901
0.000464181
0.00207027
0.00232518
0.00241076
0.00219723
0.00367409
0.00516348
0.00531808
3.72659e-05
3.7839e-05
3.90127e-05
4.08241e-05
4.30008e-05
4.61095e-05
4.9848e-05
5.42226e-05
5.92178e-05
6.48611e-05
7.12734e-05
7.86775e-05
8.68454e-05
9.41526e-05
0.000219356
0.00169828
0.00253456
0.00230442
0.00186068
0.0019121
0.00347638
0.00502188
0.00533614
4.04677e-05
4.09928e-05
4.20752e-05
4.37655e-05
4.57963e-05
4.87842e-05
5.23764e-05
5.66224e-05
6.15134e-05
6.71366e-05
7.36081e-05
8.12283e-05
8.87168e-05
0.000165309
0.00113513
0.00233596
0.00253456
0.00198128
0.0011445
0.00150852
0.00266718
0.00448153
0.00533614
4.3337e-05
4.3825e-05
4.48317e-05
4.64138e-05
4.83315e-05
5.12015e-05
5.46587e-05
5.87554e-05
6.35572e-05
6.90833e-05
7.56194e-05
8.30684e-05
8.96629e-05
0.000244439
0.00198094
0.0023782
0.00211297
0.0012301
0.0011265
0.00130021
0.00169416
0.0033209
0.00489683
4.58565e-05
4.63188e-05
4.72549e-05
4.87417e-05
5.05929e-05
5.33742e-05
5.66828e-05
6.06141e-05
6.52778e-05
7.06656e-05
7.72764e-05
8.44313e-05
0.00018285
0.00137614
0.00233365
0.0023782
0.00156076
0.0010051
0.00121324
0.00124815
0.00125703
0.00224708
0.0037806
4.8008e-05
4.84531e-05
4.93121e-05
5.07248e-05
5.25378e-05
5.51594e-05
5.82731e-05
6.20508e-05
6.65181e-05
7.18411e-05
7.82839e-05
8.53307e-05
0.000244126
0.00198577
0.00233365
0.00186041
0.000912165
0.00124452
0.00129764
0.00131843
0.00139482
0.00201317
0.00284717
4.98041e-05
5.02345e-05
5.1013e-05
5.23596e-05
5.41436e-05
5.66069e-05
5.95327e-05
6.31174e-05
6.73303e-05
7.4007e-05
8.93953e-05
0.000170836
0.00128739
0.00228111
0.00231189
0.00136636
0.00120118
0.00127206
0.00133911
0.00136575
0.00145928
0.00186686
0.00241617
5.16598e-05
5.21636e-05
5.30315e-05
5.48083e-05
5.70414e-05
6.12716e-05
6.79458e-05
8.65259e-05
0.000113061
0.000174772
0.000322856
0.000787894
0.00203785
0.00229792
0.00189938
0.00100401
0.00126213
0.00126296
0.00133911
0.00136509
0.00144679
0.00167015
0.00208941
9.01014e-05
9.35203e-05
9.88283e-05
0.000111275
0.000127039
0.000162072
0.000227535
0.000470429
0.00069721
0.00108066
0.00139698
0.00199112
0.00227664
0.00229792
0.00152694
0.0010261
0.00126213
0.00123192
0.00132449
0.00130592
0.00141471
0.00144995
0.00176494
0.000573423
0.00060095
0.000641459
0.000728814
0.000822485
0.00097642
0.00103216
0.00126928
0.00153955
0.00162068
0.00170394
0.00187762
0.00200743
0.00210029
0.00122635
0.00117761
0.00121656
0.00120704
0.00127737
0.00123365
0.00133423
0.00129469
0.00150558
0.00114028
0.00117127
0.00121737
0.00128945
0.00136775
0.00136775
0.00129466
0.00137797
0.00154997
0.00175853
0.00183492
0.00183495
0.0017276
0.00184399
0.000924707
0.0012717
0.00116557
0.00118312
0.00121283
0.00116414
0.00124228
0.00115783
0.00131346
0.00107741
0.00108782
0.00110837
0.00114343
0.00120838
0.00131087
0.00140969
0.00155009
0.0016984
0.0017892
0.00187644
0.00170489
0.00138646
0.00158452
0.000908883
0.0013764
0.00122459
0.00119722
0.00116044
0.0011216
0.00115828
0.00107054
0.00116549
0.00109262
0.00111057
0.00113768
0.00117831
0.00123196
0.00131125
0.00141367
0.00157169
0.00173282
0.00184849
0.00195139
0.00162498
0.00111792
0.00128188
0.00118972
0.0014589
0.00130157
0.00119722
0.00114982
0.00108212
0.00108557
0.000998424
0.001053
0.00108979
0.00110336
0.00112921
0.00117299
0.00123526
0.0013289
0.00144775
0.00162279
0.00181708
0.00193351
0.00200156
0.00168728
0.00109127
0.000978828
0.00162698
0.00148643
0.00136752
0.00121686
0.00112711
0.00104264
0.00101838
0.000937608
0.000959548
0.00107693
0.00108693
0.00111511
0.00115843
0.00121701
0.00130261
0.00142813
0.00160801
0.00182653
0.00195975
0.00200156
0.00190469
0.00138934
0.00159214
0.00171695
0.00162326
0.00138776
0.00121015
0.00109042
0.00100265
0.000959276
0.000878302
0.000882465
0.00104882
0.0010605
0.00108756
0.00112108
0.00117597
0.0012555
0.00136771
0.00153002
0.00173991
0.00189708
0.00197429
0.00190679
0.00180322
0.00171051
0.00171695
0.0015098
0.00128075
0.00111838
0.00102421
0.000932351
0.000896764
0.000813789
0.000811912
0.00101622
0.00102542
0.00104843
0.00107322
0.00112231
0.00117549
0.00126444
0.00137951
0.00155336
0.0017604
0.00186398
0.00188332
0.00180063
0.00168192
0.00157876
0.00136332
0.00116309
0.00103336
0.000954709
0.000870105
0.000831403
0.000755715
0.000748205
0.000977364
0.000982542
0.00100081
0.0010215
0.00106155
0.00110451
0.00117109
0.00125338
0.00136171
0.00152882
0.00164182
0.00173313
0.00164354
0.00153097
0.00139194
0.00117269
0.00103464
0.000936527
0.0008786
0.000790276
0.000764456
0.000690049
0.000686094
0.000927577
0.000932743
0.000947522
0.00096458
0.000995147
0.00102931
0.00107678
0.00113508
0.00119622
0.00129204
0.00135895
0.001427
0.00139054
0.00129382
0.00116814
0.00100378
0.000923334
0.000844265
0.000798562
0.000719019
0.000699384
0.000634352
0.000628565
0.000875505
0.000879777
0.000890577
0.000903306
0.000924917
0.000949657
0.000981861
0.00102229
0.00105781
0.00111146
0.00113549
0.00116513
0.00113285
0.00107143
0.00097696
0.000879224
0.000827423
0.000759936
0.000725815
0.000653775
0.000641657
0.000580267
0.000577169
0.000824098
0.000826922
0.000834288
0.000842986
0.000857422
0.000873476
0.000893407
0.000918267
0.000937918
0.000967508
0.000973316
0.000980254
0.000950062
0.000905555
0.000839268
0.000781131
0.000736382
0.00068418
0.000655132
0.000593142
0.000585778
0.000529054
0.000528955
0.000771084
0.000773086
0.000778239
0.000784216
0.000793707
0.000803496
0.000814597
0.000827836
0.00083585
0.000849718
0.000845571
0.000841672
0.000810451
0.000779085
0.000729897
0.000693811
0.000652979
0.000616978
0.000588434
0.000538117
0.000533816
0.000482925
0.000484979
0.000719575
0.000720663
0.000723605
0.000726596
0.000731958
0.000736548
0.000741642
0.000746953
0.000747603
0.000751505
0.000740963
0.000733203
0.000704993
0.000681537
0.000642553
0.000617692
0.000581011
0.000555994
0.000525939
0.000488262
0.000484451
0.000440029
0.000443651
0.000671461
0.00067173
0.000672887
0.000673304
0.000675155
0.000675508
0.000675918
0.000675709
0.000671451
0.000669466
0.000655587
0.000646444
0.000619754
0.000600887
0.000568605
0.000549176
0.000517842
0.000498236
0.000469278
0.000443535
0.000437785
0.000400686
0.000405152
0.000625564
0.000625284
0.000625263
0.000623939
0.00062342
0.000620679
0.000617743
0.000613624
0.000605859
0.000600314
0.000584133
0.000573614
0.000549218
0.000533043
0.000505421
0.00048918
0.000462124
0.000445741
0.000419999
0.000402824
0.000393981
0.000364667
0.000369103
0.000583462
0.00058264
0.000581557
0.000578751
0.000576275
0.000571203
0.000565764
0.000559017
0.00054869
0.00054066
0.000523362
0.000512351
0.000489446
0.000474726
0.000450262
0.000435737
0.000412247
0.000398076
0.000376317
0.000363951
0.000353375
0.000331543
0.000335177
0.000544967
0.000543732
0.000541816
0.000537838
0.00053379
0.000527028
0.00051968
0.000511112
0.000498999
0.000489298
0.000471361
0.000459525
0.000437927
0.000423917
0.000401837
0.000388392
0.000367547
0.000355268
0.000336941
0.000327277
0.000316484
0.000301234
0.000303288
0.000509986
0.000508479
0.000505968
0.00050116
0.000495904
0.000487929
0.000479065
0.000469078
0.000455614
0.000444522
0.000426331
0.000413744
0.000393028
0.000379289
0.000358844
0.000345981
0.000327346
0.00031638
0.000300848
0.000292703
0.000282847
0.000272491
0.000273216
0.000478805
0.00047703
0.000473958
0.000468443
0.000462142
0.000453221
0.000443147
0.000432078
0.000417662
0.000405388
0.000387
0.000373705
0.000353644
0.000339818
0.000320465
0.000307979
0.000290962
0.000280923
0.000267527
0.000260508
0.000252082
0.000245138
0.000245248
0.000451095
0.000449129
0.000445627
0.000439603
0.000432481
0.000422854
0.000411813
0.000399779
0.000384611
0.000371286
0.000352782
0.000338566
0.000318783
0.000304664
0.000286057
0.00027363
0.000257736
0.00024827
0.000236524
0.000230399
0.000223541
0.000218959
0.000219194
0.000426873
0.000424745
0.000420845
0.000414382
0.000406518
0.000396263
0.000384368
0.000371496
0.000355697
0.000341322
0.000322572
0.000307596
0.000287992
0.000273372
0.000255038
0.000242472
0.000227306
0.000218185
0.000207592
0.000202261
0.000196889
0.000194101
0.000195015
0.00040596
0.000403692
0.000399451
0.000392631
0.000384159
0.000373369
0.000360796
0.00034714
0.000330793
0.000315488
0.000296483
0.000280478
0.000260654
0.000245316
0.000227034
0.000214072
0.00019924
0.000190147
0.000180394
0.000175732
0.000171713
0.000170436
0.000172368
0.000388248
0.000385845
0.000381279
0.000374117
0.000365079
0.000353785
0.000340574
0.000326191
0.000309307
0.000293005
0.000273559
0.000256646
0.000236582
0.000220404
0.000201793
0.000188167
0.000173297
0.000164015
0.000154817
0.000150689
0.000147937
0.000148035
0.000151277
0.000373663
0.000371113
0.00036623
0.000358732
0.000349194
0.000337416
0.000323658
0.000308607
0.000291244
0.000274109
0.00025425
0.000236231
0.00021556
0.000198287
0.000179092
0.000164545
0.000149261
0.000139483
0.000130503
0.000126795
0.000125236
0.000126722
0.000131495
0.000362128
0.00035941
0.000354199
0.000346343
0.000336298
0.000324006
0.000309666
0.00029391
0.000276821
0.000258934
0.000239889
0.00022015
0.000199615
0.000179161
0.000159276
0.000143245
0.000127123
0.000116499
0.000107399
0.000103988
0.000103667
0.000106666
0.000113266
0.000353614
0.000350754
0.000345275
0.000337105
0.000326761
0.000314975
0.000300875
0.00028478
0.000266753
0.000247376
0.000226786
0.000205797
0.000184553
0.000163605
0.000143046
0.000124257
0.000106872
9.49517e-05
8.52195e-05
8.19285e-05
8.29937e-05
8.77795e-05
9.65361e-05
0.000347902
0.000344973
0.000339344
0.000331157
0.000321394
0.000309157
0.000294588
0.00027807
0.000259728
0.000240068
0.000219119
0.00019743
0.000175069
0.000152746
0.000130677
0.00010957
8.98793e-05
7.50739e-05
6.40349e-05
6.06705e-05
6.35047e-05
7.06096e-05
8.19932e-05
0.000344644
0.000341769
0.000336605
0.000329613
0.000319898
0.000307617
0.000292897
0.000276036
0.000257146
0.000236706
0.000214856
0.000192213
0.000168903
0.0001455
0.000122091
9.92755e-05
7.73375e-05
5.71942e-05
4.33528e-05
3.96725e-05
4.54397e-05
5.68085e-05
7.00701e-05
0.00034299
0.000340071
0.000334827
0.000327598
0.000317758
0.00030546
0.000290835
0.000274176
0.000255584
0.000235481
0.000213926
0.000191442
0.000168096
0.00014447
0.000120636
9.71242e-05
7.39994e-05
5.17504e-05
3.08514e-05
1.99262e-05
3.26848e-05
4.96985e-05
6.20776e-05
0.00387383
0.00418564
0.00135682
0.00198558
0.00394178
0.00567417
0.00288827
0.00196274
0.00495363
0.00570725
0.0052108
0.0027295
0.00515662
0.00570725
0.00571584
0.00399614
0.00515662
0.00563381
0.00571584
0.00441216
0.0052044
0.0050962
0.00490554
0.00441216
0.0052044
0.00503224
0.00469962
0.00433838
0.0047009
0.00467977
0.00447104
0.00410025
0.00387825
0.00384983
0.00372049
0.00345198
0.00293057
0.00285142
0.00276761
0.00261353
0.00216847
0.0021071
0.00204116
0.00195142
0.00166121
0.0016634
0.00159596
0.0015401
0.00135117
0.00138544
0.00130256
0.00127927
0.00116333
0.00119901
0.00110979
0.00111563
0.00103371
0.00105839
0.000977426
0.000992906
0.000938261
0.000952008
0.000884052
0.000892461
0.000858544
0.00086472
0.000806076
0.000806709
0.000792073
0.000793721
0.00074169
0.000736322
0.000730042
0.000729468
0.000682802
0.000674712
0.000674662
0.00067285
0.000631676
0.000623288
0.000621517
0.000619082
0.000583504
0.000576305
0.000573112
0.000570995
0.000541011
0.000535765
0.000528935
0.000527414
0.000501771
0.000497989
0.000487133
0.00048661
0.00046472
0.000462358
0.000448663
0.000449107
0.000430289
0.000429033
0.000412363
0.00041364
0.000397509
0.000397179
0.000378374
0.000380271
0.00036652
0.000366986
0.000346544
0.00034887
0.000337309
0.000338448
0.000316662
0.000319193
0.000309694
0.000311341
0.000288877
0.000291294
0.000283842
0.00028576
0.000262747
0.00026483
0.000259432
0.000261333
0.000238259
0.000239998
0.000236557
0.000238282
0.000214974
0.0002166
0.000214827
0.000216505
0.000192982
0.000194795
0.000194381
0.00019628
0.000172149
0.000174353
0.000175078
0.000177408
0.00015264
0.000155415
0.00015712
0.000160062
0.000134339
0.000137807
0.0001404
0.000144072
0.000117577
0.000121861
0.000125293
0.000129784
0.000102363
0.000107546
0.000111784
0.000117135
8.93937e-05
9.55347e-05
0.000100536
0.000106729
7.89746e-05
8.60208e-05
9.16681e-05
9.86016e-05
7.2129e-05
7.98535e-05
8.59329e-05
9.33673e-05
0.00198558
0.00197212
0.00130958
0.000821347
0.000622598
0.000435762
0.000326213
0.000237147
0.000178841
0.000127312
9.61925e-05
6.70961e-05
6.19911e-05
3.6888e-05
4.84397e-05
2.59413e-05
3.81607e-05
2.63963e-05
2.88886e-05
0.00170858
0.00130248
0.000999239
0.000870791
0.000649544
0.000454984
0.000330845
0.000234335
0.000179827
0.000129971
0.000104021
7.95043e-05
7.19169e-05
5.56021e-05
5.55753e-05
4.40196e-05
4.40741e-05
3.87807e-05
3.47604e-05
0.00115137
0.00123748
0.00123748
0.000949845
0.000764434
0.000529807
0.000394107
0.000287118
0.000215021
0.000157318
0.000124913
8.86812e-05
8.71228e-05
5.60075e-05
6.56495e-05
4.39707e-05
5.17627e-05
4.04156e-05
4.19865e-05
0.0021925
0.00127142
0.00127155
0.00125365
0.000929515
0.000654855
0.000464464
0.000341592
0.000260963
0.000199612
0.000159176
0.00012732
0.000104683
8.80921e-05
7.65184e-05
6.68194e-05
6.13794e-05
5.63576e-05
5.16412e-05
0.00288476
0.0019061
0.00141705
0.00124454
0.000941326
0.000657913
0.000476301
0.000347343
0.000260617
0.000198473
0.000163251
0.000124
0.000115779
8.74212e-05
8.83538e-05
7.04574e-05
7.16818e-05
6.30147e-05
6.18796e-05
0.00310328
0.0026641
0.00193567
0.00152019
0.0011073
0.000787943
0.000581489
0.000435505
0.00033714
0.000263724
0.000212128
0.000172749
0.000143287
0.000122425
0.000104741
9.44519e-05
8.45156e-05
8.02015e-05
7.45872e-05
0.00312338
0.00282006
0.00195649
0.00140419
0.00099539
0.000718148
0.0005343
0.000407001
0.0003161
0.000252178
0.000203821
0.000170745
0.000147457
0.000126894
0.000115707
0.00010368
9.70138e-05
9.24108e-05
8.75323e-05
0.00295388
0.00262488
0.00184435
0.00135857
0.00101306
0.000771498
0.000598317
0.000470304
0.00037657
0.000305432
0.000251871
0.000211531
0.000179693
0.000157006
0.000137537
0.000125536
0.000113946
0.000109095
0.000103248
0.00262879
0.00226705
0.00165421
0.00124332
0.000941828
0.000731653
0.000571938
0.000457478
0.0003688
0.000305142
0.000254131
0.000218353
0.00018815
0.000168296
0.000150336
0.000139973
0.000129696
0.000125545
0.000120598
0.00213304
0.00179057
0.00139306
0.00110215
0.000879022
0.000710705
0.000577372
0.000475677
0.00039464
0.000332747
0.000282557
0.000244793
0.000213338
0.000190652
0.000171015
0.000158168
0.000146621
0.000140796
0.000135412
0.00167189
0.00150747
0.00124779
0.0010182
0.000833129
0.000684923
0.000566061
0.000473745
0.000397941
0.000340624
0.000292721
0.000257495
0.000227255
0.000206056
0.000187397
0.000175376
0.000164659
0.000159182
0.000154345
0.00135642
0.00125618
0.00107779
0.000907614
0.000767763
0.000647966
0.000551006
0.00047029
0.000404184
0.000351072
0.000306914
0.000272477
0.000243386
0.000221523
0.000202915
0.000189849
0.000178928
0.00017255
0.000167739
0.00113879
0.00112398
0.00099551
0.000855785
0.000736299
0.000629608
0.000543609
0.000469729
0.000409435
0.000359733
0.000318441
0.000285731
0.000258105
0.000237153
0.000219463
0.000206905
0.000196604
0.000190455
0.000186005
0.000983553
0.000979142
0.000883357
0.000770245
0.000678295
0.000591389
0.000521432
0.000457651
0.000405984
0.000361067
0.000324191
0.000293424
0.000267955
0.000247512
0.000230763
0.000218051
0.000208163
0.000201632
0.000197471
0.000905546
0.000905546
0.000831322
0.000733365
0.000656736
0.000577936
0.000515274
0.000456501
0.000409521
0.000367516
0.000333447
0.000304297
0.000280451
0.000260906
0.000245135
0.000232934
0.00022363
0.000217351
0.000213476
0.000814959
0.000814959
0.000751217
0.000666016
0.000606201
0.000540872
0.000490417
0.000440195
0.000400614
0.000363448
0.000333678
0.000307017
0.000285623
0.000267219
0.000252783
0.00024096
0.000232373
0.000226061
0.000222599
0.000766209
0.000766209
0.000710712
0.000640724
0.000589401
0.000529593
0.000484782
0.000438107
0.000401997
0.000367188
0.000339834
0.000314692
0.000294875
0.000277417
0.000263974
0.000252724
0.000244713
0.000238696
0.000235477
0.000700609
0.000700609
0.000649108
0.000589499
0.000545351
0.000494708
0.000458733
0.000419255
0.000389579
0.000359337
0.000336016
0.000313557
0.000296235
0.000280252
0.000268295
0.000257755
0.000250597
0.000244799
0.000242051
0.00066099
0.00066099
0.000616003
0.000567172
0.000528807
0.000485267
0.000452473
0.000416062
0.000389023
0.000360663
0.000339307
0.000318211
0.000302264
0.000287216
0.000276177
0.000266226
0.000259598
0.000254095
0.000251518
0.000610205
0.000610205
0.000568162
0.000526067
0.00049159
0.000454447
0.000426687
0.000396168
0.000374023
0.000350008
0.00033233
0.000313952
0.000300427
0.000287012
0.000277487
0.000268449
0.000262726
0.000257643
0.000255604
0.000573198
0.000573198
0.000537769
0.000503666
0.000474302
0.000443248
0.000418713
0.000391927
0.000371522
0.000349459
0.00033314
0.000316058
0.000303648
0.000291121
0.000282381
0.000273908
0.000268626
0.000263769
0.000261774
0.000531904
0.000531904
0.000499692
0.000469984
0.000443535
0.000416844
0.000395422
0.000372717
0.000355683
0.000337262
0.000323848
0.000309389
0.000299154
0.000288363
0.000281094
0.000273666
0.000269313
0.000265042
0.000263519
0.000497784
0.000497784
0.000471153
0.000447003
0.000425178
0.000403344
0.000385197
0.000365988
0.000350974
0.000334739
0.000322572
0.000309471
0.000300061
0.000290131
0.000283451
0.000276545
0.000272501
0.000268428
0.000266987
0.000461871
0.000461871
0.000438843
0.000418178
0.000399129
0.000380464
0.000364771
0.000348525
0.000335848
0.00032226
0.000312278
0.000301393
0.000293799
0.000285498
0.000280124
0.000274294
0.000271097
0.000267628
0.000266645
0.000431899
0.000431899
0.000412931
0.000396135
0.000380718
0.000365668
0.000352902
0.000339596
0.000328998
0.000317534
0.000308897
0.000299418
0.000292678
0.000285271
0.000280425
0.00027512
0.000272207
0.000269005
0.000268084
0.000399379
0.000399379
0.000383759
0.0003701
0.000357415
0.000345095
0.000334583
0.000323651
0.000314979
0.000305589
0.000298635
0.000290893
0.000285563
0.000279527
0.000275771
0.000271439
0.000269254
0.000266604
0.000266037
0.000372723
0.000372723
0.00036041
0.000349751
0.000339875
0.000330273
0.00032213
0.000313542
0.000306744
0.000299211
0.000293602
0.00028721
0.000282774
0.00027764
0.000274437
0.000270664
0.00026877
0.00026643
0.000265921
0.00034352
0.00034352
0.000334101
0.000326104
0.000318668
0.000311441
0.000305354
0.000298813
0.00029373
0.000287923
0.000283726
0.000278765
0.000275481
0.000271475
0.000269143
0.000266175
0.000264857
0.000262972
0.000262715
0.000319611
0.000319611
0.000312961
0.000307414
0.0003023
0.000297273
0.000293134
0.000288484
0.00028498
0.000280727
0.000277749
0.000273984
0.000271559
0.000268405
0.000266632
0.000264224
0.000263209
0.000261642
0.000261461
0.00029362
0.00029362
0.000289426
0.000286141
0.000283157
0.000280175
0.000277852
0.000274971
0.000272978
0.000270201
0.000268452
0.000265891
0.000264438
0.000262224
0.000261168
0.000259421
0.000258863
0.000257675
0.000257675
0.000272324
0.000272324
0.000270323
0.000269149
0.000268118
0.00026699
0.000266307
0.000265009
0.000264355
0.000262885
0.000262186
0.000260648
0.000259969
0.000258513
0.00025798
0.000256749
0.000256488
0.000255684
0.000255684
0.000249448
0.000249448
0.000250293
0.000251088
0.000251751
0.000252645
0.000252872
0.000253527
0.000253527
0.00025368
0.00025368
0.000253305
0.000253305
0.000252693
0.000252693
0.000252118
0.000252118
0.000251772
0.000251772
0.000230533
0.000232333
0.000235153
0.000237583
0.000239864
0.00024214
0.000243712
0.000245495
0.000246387
0.000247633
0.00024798
0.000248789
0.000248789
0.000249285
0.000249285
0.000249425
0.000249425
0.000249431
0.000249431
0.000210446
0.000214107
0.000218769
0.000222794
0.000226665
0.000230289
0.000233169
0.00023606
0.000238019
0.000240152
0.000241347
0.000242838
0.000243455
0.000244466
0.000244679
0.000245354
0.000245354
0.000245734
0.000245734
0.000193936
0.000199386
0.000205678
0.00021114
0.000216395
0.000221172
0.000225186
0.000229003
0.000231869
0.000234729
0.000236633
0.000238671
0.000239821
0.000241212
0.000241794
0.000242693
0.000242849
0.000243365
0.000243365
0.000176834
0.000184101
0.00019198
0.000198887
0.000205466
0.000211375
0.000216475
0.000221193
0.000224925
0.000228495
0.000231079
0.00023366
0.000235322
0.000237101
0.00023804
0.000239179
0.000239542
0.000240153
0.000240153
0.00016305
0.000172008
0.000181276
0.00018944
0.000197131
0.000203987
0.000209982
0.000215427
0.000219872
0.000224004
0.000227139
0.00023014
0.000232213
0.000234283
0.000235503
0.000236813
0.000237336
0.000238002
0.000238002
0.000149528
0.000160147
0.000170728
0.000180094
0.000188803
0.000196548
0.00020335
0.000209472
0.00021456
0.000219217
0.000222858
0.00022626
0.000228715
0.000231074
0.000232565
0.000234058
0.000234745
0.00023549
0.00023549
0.000139138
0.000151197
0.000162872
0.000173213
0.000182733
0.000191176
0.000198607
0.000205248
0.000210832
0.000215879
0.000219903
0.000223595
0.000226333
0.00022889
0.000230567
0.00023217
0.000232955
0.00023373
0.00023373
0.000130179
0.000143478
0.000156048
0.000167193
0.000177352
0.00018636
0.000194285
0.000201352
0.000207332
0.00021271
0.000217054
0.000221001
0.000223987
0.000226734
0.000228592
0.000230319
0.000231217
0.000232053
0.000232053
0.000124149
0.000138321
0.000151515
0.00016321
0.000173807
0.000183196
0.000191456
0.000198802
0.000205044
0.000210632
0.000215179
0.000219284
0.000222423
0.000225282
0.000227247
0.000229045
0.000230006
0.00023086
0.00023086
0.000120562
0.000135193
0.00014869
0.000160668
0.000171485
0.000181084
0.00018953
0.00019705
0.000203457
0.000209191
0.00021388
0.000218103
0.000221357
0.000224304
0.000226353
0.000228204
0.000229207
0.000230079
0.000230079
)
;

boundaryField
{
    leftWall
    {
        type            calculated;
        value           uniform 0;
    }
    rightWall
    {
        type            calculated;
        value           uniform 0;
    }
    lowerWall
    {
        type            calculated;
        value           uniform 0;
    }
    atmosphere
    {
        type            calculated;
        value           uniform 0;
    }
    defaultFaces
    {
        type            empty;
    }
}


// ************************************************************************* //
