/*--------------------------------*- C++ -*----------------------------------*\
| =========                 |                                                 |
| \\      /  F ield         | OpenFOAM: The Open Source CFD Toolbox           |
|  \\    /   O peration     | Version:  2012                                  |
|   \\  /    A nd           | Website:  www.openfoam.com                      |
|    \\/     M anipulation  |                                                 |
\*---------------------------------------------------------------------------*/
FoamFile
{
    version     2.0;
    format      ascii;
    class       volScalarField;
    location    "0.15";
    object      pcorr;
}
// * * * * * * * * * * * * * * * * * * * * * * * * * * * * * * * * * * * * * //

dimensions      [1 -1 -2 0 0 0 0];


internalField   nonuniform List<scalar> 
2268
(
103340
103352
103375
103408
103451
103500
103552
103606
103655
103694
103719
103721
103696
103638
103542
103407
103233
103031
102827
102656
102547
102495
102480
103338
103350
103373
103406
103449
103499
103552
103607
103657
103698
103724
103728
103704
103646
103551
103416
103240
103032
102819
102643
102534
102486
102471
103333
103345
103368
103402
103446
103497
103552
103608
103661
103705
103733
103740
103719
103663
103569
103433
103253
103034
102802
102615
102508
102471
102454
103325
103337
103361
103396
103441
103494
103552
103611
103667
103715
103748
103759
103741
103689
103597
103460
103275
103038
102776
102568
102465
102451
102424
103314
103327
103352
103388
103435
103490
103551
103614
103675
103728
103767
103784
103771
103723
103634
103499
103308
103048
102738
102498
102403
102435
102381
103301
103314
103340
103378
103427
103485
103550
103618
103685
103745
103791
103815
103809
103766
103681
103550
103357
103069
102684
102396
102313
102438
102314
103284
103298
103325
103365
103416
103478
103548
103622
103697
103765
103821
103854
103856
103819
103739
103614
103427
103111
102608
102249
102176
102496
102216
103265
103279
103307
103349
103404
103470
103545
103626
103709
103788
103855
103899
103911
103881
103807
103692
103526
103195
102500
102041
101955
102689
102054
101415
101415
101414
101413
101412
101411
101410
101409
101408
101407
101406
101405
101404
101403
101403
101402
101402
101402
101402
101415
101415
101414
101413
101412
101411
101410
101409
101408
101407
101406
101405
101404
101403
101403
101402
101402
101402
101402
101415
101415
101414
101413
101412
101411
101410
101409
101408
101407
101406
101405
101404
101403
101403
101402
101402
101402
101402
101415
101415
101414
101413
101412
101411
101410
101409
101408
101406
101406
101405
101404
101403
101403
101402
101402
101402
101402
101416
101415
101414
101413
101412
101411
101410
101409
101407
101406
101405
101405
101404
101403
101403
101402
101402
101402
101402
101416
101415
101414
101413
101412
101411
101410
101409
101407
101406
101405
101405
101404
101403
101403
101402
101402
101402
101401
101417
101416
101415
101414
101412
101411
101410
101408
101407
101406
101405
101404
101404
101403
101402
101402
101402
101401
101401
101417
101416
101415
101414
101412
101411
101410
101408
101407
101406
101405
101404
101404
101403
101402
101402
101402
101401
101401
103229
103244
103275
103320
103380
103453
103538
103632
103731
103828
103916
103982
104012
103994
103927
103833
103738
103453
102211
101640
101557
101556
101576
103165
103182
103216
103267
103334
103419
103519
103635
103761
103893
104021
104129
104197
104199
104119
104023
104220
102416
101585
101488
101481
101480
101455
103085
103103
103140
103196
103271
103368
103486
103626
103786
103962
104145
104318
104450
104484
104328
103917
102477
101564
101485
101476
101473
101472
101475
102986
103005
103044
103105
103188
103296
103431
103597
103794
104024
104280
104549
104799
104963
104794
102766
101583
101487
101478
101472
101468
101464
101457
102867
102887
102928
102991
103079
103195
103345
103535
103771
104059
104403
104799
105237
105779
107180
101931
101501
101482
101475
101468
101463
101457
101449
102728
102748
102788
102852
102941
103061
103220
103426
103694
104038
104474
105005
105568
105726
102894
101539
101489
101478
101471
101464
101458
101452
101445
102569
102588
102626
102686
102772
102889
103046
103256
103539
103924
104449
105179
106310
109086
101775
101508
101484
101474
101466
101459
101453
101447
101441
102391
102408
102442
102495
102571
102676
102818
103012
103282
103667
104219
104947
105389
102646
101526
101488
101476
101467
101460
101454
101448
101443
101437
102197
102210
102237
102280
102341
102425
102537
102691
102909
103242
103810
105005
108379
101716
101495
101475
101467
101460
101454
101448
101443
101438
101433
101989
101998
102018
102048
102090
102145
102214
102303
102421
102578
102766
102860
102259
101492
101468
101462
101457
101452
101447
101442
101438
101434
101429
101772
101777
101787
101803
101824
101849
101872
101886
101895
101886
101831
101644
101468
101453
101451
101449
101446
101443
101439
101436
101432
101429
101425
101550
101550
101551
101552
101556
101558
101542
101494
101435
101389
101393
101399
101411
101433
101437
101437
101436
101434
101432
101429
101427
101424
101421
101351
101348
101345
101342
101347
101368
101377
101379
101383
101391
101394
101398
101404
101415
101425
101427
101427
101426
101425
101423
101421
101419
101416
101369
101370
101370
101371
101373
101376
101378
101381
101384
101388
101392
101396
101400
101408
101415
101418
101419
101419
101418
101417
101416
101414
101412
101370
101371
101371
101372
101374
101376
101378
101380
101383
101386
101390
101393
101396
101402
101408
101411
101412
101412
101412
101412
101411
101409
101408
101371
101371
101372
101373
101374
101376
101377
101380
101382
101385
101388
101390
101393
101396
101402
101404
101406
101407
101407
101406
101406
101405
101404
101371
101371
101372
101372
101374
101375
101377
101379
101381
101383
101385
101388
101390
101393
101396
101399
101400
101401
101402
101402
101401
101401
101400
101370
101371
101371
101372
101373
101374
101376
101377
101379
101381
101383
101385
101388
101390
101392
101394
101396
101396
101397
101397
101397
101396
101396
101370
101370
101370
101371
101372
101373
101374
101376
101377
101379
101381
101383
101385
101387
101388
101390
101391
101392
101393
101393
101393
101392
101392
101369
101369
101370
101370
101371
101372
101373
101374
101376
101377
101379
101380
101382
101383
101385
101386
101387
101388
101389
101389
101389
101389
101388
101368
101368
101368
101369
101370
101370
101371
101373
101374
101375
101376
101378
101379
101380
101382
101383
101384
101384
101385
101385
101385
101385
101385
101367
101367
101367
101368
101368
101369
101370
101371
101372
101373
101374
101375
101376
101378
101379
101380
101380
101381
101381
101382
101382
101382
101382
101365
101365
101366
101366
101367
101367
101368
101369
101370
101371
101372
101373
101374
101375
101376
101376
101377
101378
101378
101378
101378
101378
101378
101364
101364
101364
101365
101365
101366
101366
101367
101368
101368
101369
101370
101371
101372
101373
101373
101374
101374
101375
101375
101375
101375
101375
101362
101362
101362
101363
101363
101364
101364
101365
101366
101366
101367
101368
101368
101369
101370
101370
101371
101371
101372
101372
101372
101372
101372
101360
101361
101361
101361
101361
101362
101362
101363
101363
101364
101365
101365
101366
101366
101367
101368
101368
101368
101369
101369
101369
101369
101369
101359
101359
101359
101359
101359
101360
101360
101361
101361
101362
101362
101363
101363
101364
101364
101365
101365
101366
101366
101366
101366
101366
101366
101357
101357
101357
101357
101357
101358
101358
101358
101359
101359
101360
101360
101361
101361
101362
101362
101362
101363
101363
101363
101363
101363
101363
101355
101355
101355
101355
101355
101356
101356
101356
101357
101357
101357
101358
101358
101359
101359
101359
101360
101360
101360
101360
101360
101361
101361
101353
101353
101353
101353
101353
101353
101354
101354
101354
101355
101355
101355
101356
101356
101356
101357
101357
101357
101357
101358
101358
101358
101358
101351
101351
101351
101351
101351
101351
101352
101352
101352
101352
101353
101353
101353
101354
101354
101354
101354
101355
101355
101355
101355
101355
101355
101349
101349
101349
101349
101349
101349
101349
101350
101350
101350
101350
101351
101351
101351
101351
101351
101352
101352
101352
101352
101352
101352
101352
101346
101346
101347
101347
101347
101347
101347
101347
101347
101348
101348
101348
101348
101349
101349
101349
101349
101349
101349
101349
101350
101350
101350
101344
101344
101344
101344
101345
101345
101345
101345
101345
101345
101345
101346
101346
101346
101346
101346
101347
101347
101347
101347
101347
101347
101347
101342
101342
101342
101342
101342
101342
101342
101343
101343
101343
101343
101343
101343
101344
101344
101344
101344
101344
101344
101344
101344
101344
101344
101340
101340
101340
101340
101340
101340
101340
101340
101340
101341
101341
101341
101341
101341
101341
101341
101341
101341
101342
101342
101342
101342
101342
101338
101338
101338
101338
101338
101338
101338
101338
101338
101338
101338
101338
101338
101339
101339
101339
101339
101339
101339
101339
101339
101339
101339
101335
101335
101335
101335
101335
101335
101336
101336
101336
101336
101336
101336
101336
101336
101336
101336
101336
101336
101336
101336
101337
101337
101337
101333
101333
101333
101333
101333
101333
101333
101333
101333
101333
101333
101334
101334
101334
101334
101334
101334
101334
101334
101334
101334
101334
101334
101331
101331
101331
101331
101331
101331
101331
101331
101331
101331
101331
101331
101331
101331
101331
101331
101331
101331
101331
101331
101331
101331
101331
101328
101328
101328
101328
101328
101328
101329
101329
101329
101329
101329
101329
101329
101329
101329
101329
101329
101329
101329
101329
101329
101329
101329
101326
101326
101326
101326
101326
101326
101326
101326
101326
101326
101326
101326
101326
101326
101326
101326
101326
101326
101326
101326
101326
101326
101326
101423
101421
101421
101420
101435
101422
101421
101421
101437
101424
101423
101422
101445
101432
101426
101424
101442
101437
101432
101428
101439
101436
101432
101429
101436
101434
101431
101428
101433
101431
101429
101426
101430
101428
101426
101424
101427
101425
101423
101421
101423
101421
101420
101418
101419
101417
101416
101415
101415
101414
101413
101411
101411
101410
101409
101408
101407
101406
101405
101404
101403
101402
101402
101401
101399
101398
101398
101397
101395
101395
101394
101394
101392
101391
101391
101391
101388
101388
101388
101387
101385
101385
101384
101384
101381
101381
101381
101381
101378
101378
101378
101378
101375
101375
101375
101375
101372
101372
101372
101372
101369
101369
101369
101369
101366
101366
101366
101366
101363
101363
101363
101363
101361
101361
101360
101360
101358
101358
101358
101358
101355
101355
101355
101355
101352
101352
101352
101352
101350
101350
101350
101350
101347
101347
101347
101347
101344
101344
101344
101344
101342
101342
101342
101342
101339
101339
101339
101339
101337
101337
101337
101337
101334
101334
101334
101334
101331
101331
101331
101331
101329
101329
101329
101329
101326
101326
101326
101326
101418
101417
101415
101414
101412
101411
101410
101408
101407
101406
101405
101404
101403
101403
101402
101402
101401
101401
101401
101420
101418
101416
101414
101413
101411
101409
101408
101407
101406
101405
101404
101403
101402
101402
101401
101401
101401
101400
101421
101419
101417
101414
101413
101411
101409
101408
101406
101405
101404
101403
101402
101402
101401
101401
101400
101400
101400
101422
101420
101417
101415
101412
101411
101409
101407
101406
101405
101404
101403
101402
101401
101400
101400
101400
101399
101399
101424
101420
101417
101415
101412
101410
101408
101407
101405
101404
101403
101402
101401
101400
101400
101399
101399
101399
101399
101425
101421
101417
101414
101412
101410
101408
101406
101405
101403
101402
101401
101400
101400
101399
101398
101398
101398
101398
101424
101420
101416
101414
101411
101409
101407
101405
101404
101402
101401
101400
101399
101399
101398
101398
101397
101397
101397
101423
101419
101415
101412
101410
101408
101406
101404
101403
101401
101400
101399
101398
101398
101397
101397
101396
101396
101396
101421
101417
101414
101411
101409
101406
101405
101403
101401
101400
101399
101398
101397
101396
101396
101395
101395
101395
101395
101419
101415
101412
101409
101407
101405
101403
101402
101400
101399
101398
101397
101396
101395
101395
101394
101394
101394
101394
101416
101413
101410
101408
101405
101403
101402
101400
101399
101397
101396
101395
101395
101394
101393
101393
101393
101392
101392
101413
101410
101408
101405
101403
101401
101400
101398
101397
101396
101395
101394
101393
101392
101392
101392
101391
101391
101391
101410
101407
101405
101403
101401
101399
101398
101397
101395
101394
101393
101392
101392
101391
101390
101390
101390
101390
101389
101406
101404
101402
101401
101399
101397
101396
101395
101393
101392
101391
101391
101390
101389
101389
101388
101388
101388
101388
101403
101401
101400
101398
101397
101395
101394
101393
101392
101391
101390
101389
101388
101388
101387
101387
101387
101386
101386
101400
101398
101397
101395
101394
101393
101392
101390
101389
101389
101388
101387
101386
101386
101385
101385
101385
101385
101385
101397
101395
101394
101393
101392
101390
101389
101388
101387
101387
101386
101385
101385
101384
101384
101383
101383
101383
101383
101393
101392
101391
101390
101389
101388
101387
101386
101385
101384
101384
101383
101383
101382
101382
101381
101381
101381
101381
101390
101389
101388
101387
101386
101385
101385
101384
101383
101382
101382
101381
101381
101380
101380
101379
101379
101379
101379
101387
101386
101385
101384
101384
101383
101382
101381
101381
101380
101379
101379
101378
101378
101378
101377
101377
101377
101377
101384
101383
101382
101382
101381
101380
101380
101379
101378
101378
101377
101377
101376
101376
101376
101375
101375
101375
101375
101381
101380
101379
101379
101378
101378
101377
101377
101376
101375
101375
101375
101374
101374
101374
101373
101373
101373
101373
101378
101377
101377
101376
101376
101375
101375
101374
101374
101373
101373
101372
101372
101372
101371
101371
101371
101371
101371
101375
101374
101374
101373
101373
101372
101372
101372
101371
101371
101370
101370
101370
101369
101369
101369
101369
101369
101369
101372
101371
101371
101371
101370
101370
101369
101369
101369
101368
101368
101368
101367
101367
101367
101367
101367
101367
101367
101369
101369
101368
101368
101368
101367
101367
101367
101366
101366
101366
101365
101365
101365
101365
101365
101364
101364
101364
101366
101366
101366
101365
101365
101365
101364
101364
101364
101363
101363
101363
101363
101363
101362
101362
101362
101362
101362
101363
101363
101363
101363
101362
101362
101362
101362
101361
101361
101361
101361
101360
101360
101360
101360
101360
101360
101360
101360
101360
101360
101360
101360
101359
101359
101359
101359
101359
101358
101358
101358
101358
101358
101358
101358
101358
101357
101358
101358
101357
101357
101357
101357
101357
101357
101356
101356
101356
101356
101356
101356
101355
101355
101355
101355
101355
101355
101355
101355
101355
101354
101354
101354
101354
101354
101354
101354
101353
101353
101353
101353
101353
101353
101353
101353
101352
101352
101352
101352
101352
101352
101352
101351
101351
101351
101351
101351
101351
101351
101351
101351
101350
101350
101350
101350
101350
101349
101349
101349
101349
101349
101349
101349
101349
101349
101348
101348
101348
101348
101348
101348
101348
101348
101347
101347
101347
101347
101347
101347
101347
101346
101346
101346
101346
101346
101346
101346
101346
101346
101346
101346
101346
101344
101344
101344
101344
101344
101344
101344
101344
101344
101344
101344
101344
101343
101343
101343
101343
101343
101343
101343
101342
101342
101342
101342
101342
101342
101341
101341
101341
101341
101341
101341
101341
101341
101341
101341
101341
101341
101341
101339
101339
101339
101339
101339
101339
101339
101339
101339
101339
101339
101339
101339
101339
101338
101338
101338
101338
101338
101337
101337
101337
101337
101336
101336
101336
101336
101336
101336
101336
101336
101336
101336
101336
101336
101336
101336
101336
101334
101334
101334
101334
101334
101334
101334
101334
101334
101334
101334
101334
101334
101334
101334
101334
101334
101334
101334
101331
101331
101331
101331
101331
101331
101331
101331
101331
101331
101331
101331
101331
101331
101331
101331
101331
101331
101331
101329
101329
101329
101329
101329
101329
101329
101329
101329
101329
101329
101329
101329
101329
101329
101329
101329
101329
101329
101326
101326
101326
101326
101326
101326
101326
101326
101326
101326
101326
101326
101326
101326
101326
101326
101326
101326
101326
)
;

boundaryField
{
    leftWall
    {
        type            zeroGradient;
    }
    rightWall
    {
        type            zeroGradient;
    }
    lowerWall
    {
        type            zeroGradient;
    }
    atmosphere
    {
        type            fixedValue;
        value           uniform 101325;
    }
    defaultFaces
    {
        type            empty;
    }
}


// ************************************************************************* //
