/*--------------------------------*- C++ -*----------------------------------*\
| =========                 |                                                 |
| \\      /  F ield         | OpenFOAM: The Open Source CFD Toolbox           |
|  \\    /   O peration     | Version:  2012                                  |
|   \\  /    A nd           | Website:  www.openfoam.com                      |
|    \\/     M anipulation  |                                                 |
\*---------------------------------------------------------------------------*/
FoamFile
{
    version     2.0;
    format      ascii;
    class       volScalarField;
    location    "0.15";
    object      rhogh;
}
// * * * * * * * * * * * * * * * * * * * * * * * * * * * * * * * * * * * * * //

dimensions      [1 -1 -2 0 0 0 0];


internalField   nonuniform List<scalar> 
2268
(
-29.4294
-29.4294
-29.4294
-29.4294
-29.4294
-29.4294
-29.4294
-29.4294
-29.4294
-29.4294
-29.4294
-29.4294
-29.4294
-29.4294
-29.4294
-29.4294
-29.4294
-29.4294
-29.4294
-29.4294
-29.4294
-29.4294
-27.7466
-88.2881
-88.2881
-88.2881
-88.2881
-88.2881
-88.2881
-88.2881
-88.2881
-88.2881
-88.2881
-88.2881
-88.2881
-88.2881
-88.2881
-88.2881
-88.2881
-88.2881
-88.2881
-88.2881
-88.2881
-88.2881
-88.2881
-82.8687
-147.147
-147.147
-147.147
-147.147
-147.147
-147.147
-147.147
-147.147
-147.147
-147.147
-147.147
-147.147
-147.147
-147.147
-147.147
-147.147
-147.147
-147.147
-147.147
-147.147
-147.147
-147.147
-137.583
-206.006
-206.006
-206.006
-206.006
-206.006
-206.006
-206.006
-206.006
-206.006
-206.006
-206.006
-206.006
-206.006
-206.006
-206.006
-206.006
-206.006
-206.006
-206.006
-206.006
-206.006
-206.006
-192.613
-264.864
-264.864
-264.864
-264.864
-264.864
-264.864
-264.864
-264.864
-264.864
-264.864
-264.864
-264.864
-264.864
-264.864
-264.864
-264.864
-264.864
-264.864
-264.864
-264.864
-264.864
-264.864
-252.179
-323.723
-323.723
-323.723
-323.723
-323.723
-323.723
-323.723
-323.723
-323.723
-323.723
-323.723
-323.723
-323.723
-323.723
-323.723
-323.723
-323.723
-323.723
-323.723
-323.723
-323.71
-323.721
-322.515
-382.582
-382.582
-382.582
-382.582
-382.582
-382.582
-382.582
-382.582
-382.582
-382.582
-382.582
-382.582
-382.582
-382.582
-382.582
-382.582
-382.582
-382.582
-382.582
-381.031
-382.581
-382.581
-382.557
-441.44
-441.44
-441.44
-441.44
-441.44
-441.44
-441.44
-441.44
-441.44
-441.44
-441.44
-441.44
-441.44
-441.44
-441.44
-441.44
-441.44
-441.44
-441.44
-430.43
-429.763
-441.44
-441.44
-4.14975e-24
-3.0565e-23
-1.05031e-25
-1.92243e-24
-9.74637e-28
-1.07495e-28
-3.67407e-31
-4.13338e-33
-2.2382e-35
-1.37998e-37
-8.74882e-40
-5.28125e-42
-3.51845e-44
-2.17103e-46
-1.25366e-48
-6.10714e-51
-2.17194e-53
-5.065e-56
-1.12298e-58
-2.19312e-21
-1.74899e-20
-4.91706e-23
-8.80401e-22
-7.86073e-25
-6.84683e-26
-2.94265e-28
-3.45831e-30
-2.07869e-32
-1.35234e-34
-8.8357e-37
-5.4339e-39
-3.65956e-41
-2.27721e-43
-1.31797e-45
-6.39001e-48
-2.25855e-50
-5.23322e-53
-5.77119e-56
-3.70716e-19
-2.54497e-18
-7.15703e-21
-1.07009e-19
-1.7317e-22
-1.13287e-23
-6.25523e-26
-7.65883e-28
-5.24027e-30
-3.66721e-32
-2.51773e-34
-1.56261e-36
-1.03674e-38
-6.20366e-41
-3.51396e-43
-1.68759e-45
-5.91594e-48
-1.36046e-50
-1.48851e-53
-2.55404e-17
-1.80628e-16
-4.68618e-19
-6.33316e-18
-1.83834e-20
-9.48224e-22
-6.75559e-24
-8.82471e-26
-6.98989e-28
-5.42358e-30
-4.08214e-32
-2.80791e-34
-1.9921e-36
-1.27641e-38
-7.48228e-41
-3.62525e-43
-1.27516e-45
-2.92591e-48
-3.19584e-51
-1.35555e-15
-7.44095e-15
-3.09265e-17
-2.30625e-16
-1.20267e-18
-4.96467e-20
-4.59686e-22
-6.4645e-24
-6.01216e-26
-5.18251e-28
-4.21315e-30
-2.97137e-32
-2.08563e-34
-1.27888e-36
-7.35222e-39
-3.54909e-41
-1.24296e-43
-2.841e-46
-3.08604e-49
-3.37967e-14
-2.09428e-13
-1.77122e-15
-5.2998e-15
-4.85165e-17
-1.74738e-18
-2.094e-20
-3.26107e-22
-3.61106e-24
-3.60674e-26
-3.40562e-28
-2.82939e-30
-2.22215e-32
-1.54513e-34
-9.49252e-37
-4.69909e-39
-1.67686e-41
-3.87276e-44
-4.25115e-47
-8.19108e-13
-3.86112e-12
-1.49565e-13
-8.22795e-14
-1.32064e-15
-4.35488e-17
-6.79611e-19
-1.18918e-20
-1.56722e-22
-1.76156e-24
-1.79764e-26
-1.52777e-28
-1.19108e-30
-7.97092e-33
-4.85792e-35
-2.41378e-37
-8.62785e-40
-1.99628e-42
-2.19026e-45
-9.83314e-12
-5.69393e-11
-5.28913e-12
-9.45353e-13
-2.39882e-14
-7.85594e-16
-1.6042e-17
-3.24073e-19
-5.27713e-21
-7.27532e-23
-8.93793e-25
-8.95905e-27
-8.1458e-29
-6.37969e-31
-4.22652e-33
-2.18799e-35
-8.08998e-38
-1.91725e-40
-2.15456e-43
-533.467
-533.467
-533.467
-533.467
-533.467
-533.467
-533.467
-533.467
-533.467
-533.467
-533.467
-533.467
-533.467
-533.467
-533.467
-533.467
-533.467
-533.467
-517.464
-411.715
-197.378
-278.265
-521.779
-658.662
-658.662
-658.662
-658.662
-658.662
-658.662
-658.662
-658.662
-658.662
-658.662
-658.662
-658.662
-658.662
-658.662
-658.662
-658.662
-658.662
-601.66
-313.298
-55.7783
-9.86717
-7.85693
-526.679
-783.856
-783.856
-783.856
-783.856
-783.856
-783.856
-783.856
-783.856
-783.856
-783.856
-783.856
-783.856
-783.856
-783.856
-783.856
-783.856
-707.945
-291.968
-18.2953
-1.34871
-0.139297
-0.0180517
-183.631
-909.051
-909.051
-909.051
-909.051
-909.051
-909.051
-909.051
-909.051
-909.051
-909.051
-909.051
-909.051
-909.051
-909.051
-909.051
-875.139
-371.117
-14.7848
-0.0312506
-0.00455543
-2.13744e-07
-0.0208947
-3.93814
-1034.25
-1034.25
-1034.25
-1034.25
-1034.25
-1034.25
-1034.25
-1034.25
-1034.25
-1034.25
-1034.25
-1034.25
-1034.25
-1034.25
-1034.25
-588.788
-32.5897
-0.00881547
-1.76911e-06
-3.67879e-06
-2.43451e-07
-0.0263609
-0.00919858
-1159.44
-1159.44
-1159.44
-1159.44
-1159.44
-1159.44
-1159.44
-1159.44
-1159.44
-1159.44
-1159.44
-1159.44
-1159.44
-1159.44
-910.959
-160.838
-2.92103
-0.0049728
-1.98326e-06
-3.27244e-07
-2.19813e-07
-0.00264107
-0.000113959
-1284.63
-1284.63
-1284.63
-1284.63
-1284.63
-1284.63
-1284.63
-1284.63
-1284.63
-1284.63
-1284.63
-1284.63
-1284.63
-1284.63
-447.064
-9.86458
-0.0325853
-9.45734e-05
-5.86526e-07
-2.11003e-07
-2.43547e-07
-2.18185e-07
-2.43174e-07
-1409.83
-1409.83
-1409.83
-1409.83
-1409.83
-1409.83
-1409.83
-1409.83
-1409.83
-1409.83
-1409.83
-1409.83
-1409.83
-941.162
-93.5419
-0.924064
-8.34738e-05
-1.81214e-06
-1.1207e-07
-9.24207e-08
-1.14314e-07
-9.4579e-08
-2.23247e-07
-1535.02
-1535.02
-1535.02
-1535.02
-1535.02
-1535.02
-1535.02
-1535.02
-1535.02
-1535.02
-1535.02
-1535.02
-1535.02
-465.77
-9.44962
-0.0119621
-3.60408e-06
-3.99315e-09
-4.59995e-08
-3.22854e-08
-4.5325e-08
-8.22391e-08
-2.5022e-07
-1660.22
-1660.22
-1660.22
-1660.22
-1660.22
-1660.22
-1660.22
-1660.22
-1660.22
-1660.21
-1660.11
-1660.22
-1148.93
-124.98
-1.21176
-0.000392642
-3.51493e-10
-4.31899e-09
-1.54393e-08
-9.61463e-09
-1.48403e-08
-3.00608e-08
-1.37106e-07
-1785.41
-1785.41
-1785.41
-1785.41
-1785.41
-1785.4
-1785.36
-1784.91
-1782.28
-1768.29
-1723.96
-1543.48
-412.477
-21.4826
-0.0847012
-2.324e-21
-3.78023e-10
-2.72892e-09
-4.35615e-09
-2.37946e-09
-3.86523e-09
-6.51774e-09
-3.11413e-08
-1908.14
-1907.55
-1906.49
-1903.42
-1898.57
-1885.69
-1858.63
-1744.21
-1565.8
-1201.57
-760.896
-369.599
-29.8149
-17.6594
-0.101535
-2.8797e-21
-2.24088e-10
-8.39179e-10
-1.03468e-09
-4.8987e-10
-8.08897e-10
-1.08393e-09
-5.31129e-09
-1646.74
-1613.6
-1564.98
-1454.1
-1333.7
-1114.9
-859.538
-531.925
-302.88
-71.5326
-4.85349e-18
-5.25138e-28
1.2984e-20
-19.3438
-0.448412
-2.64992e-21
-8.20256e-11
-2.03112e-10
-2.06851e-10
-8.35228e-11
-1.38533e-10
-1.39964e-10
-7.14665e-10
-286.95
-259.123
-222.252
-151.197
-90.73
-10.3156
6.11129e-19
5.11331e-28
-1.33387e-26
7.80952e-21
-2.71647e-07
-2.00306e-08
-1.91233e-27
-27.3477
-0.231358
-3.25709e-21
-2.13599e-11
-4.1598e-11
-3.45678e-11
-1.20163e-11
-1.97893e-11
-1.50722e-11
-7.69246e-11
3.27494e-36
1.16011e-34
1.70428e-34
7.61174e-32
1.81868e-30
1.28702e-28
-9.72544e-11
-2.49935e-09
-5.75556e-08
1.13297e-26
-0.000573815
-7.70198e-05
-1.31379e-23
-28.9298
-0.15862
-2.97584e-21
-4.31691e-12
-7.3958e-12
-4.88718e-12
-1.50341e-12
-2.3812e-12
-1.38358e-12
-6.76011e-12
-1.42839e-17
-2.45028e-16
-1.25043e-14
-4.07269e-13
-8.89937e-12
-1.34881e-10
-1.78894e-09
-2.45303e-08
-4.78963e-07
-1.33613e-23
-0.0124975
-0.0676135
3.21921e-20
-18.8774
-5.93727e-16
-7.59696e-14
-8.01428e-13
-1.14656e-12
-5.97178e-13
-1.65026e-13
-2.42952e-13
-1.10344e-13
-4.95354e-13
-5.41376e-17
-1.65451e-15
-7.90797e-14
-2.32738e-12
-4.57702e-11
-6.64269e-10
-9.30239e-09
-1.39888e-07
-2.92982e-06
-4.73206e-05
-0.0574018
-0.160874
-0.0491601
-8.54231e-32
-6.2511e-16
-3.73292e-14
-1.29221e-13
-1.53508e-13
-6.3305e-14
-1.58418e-14
-2.11102e-14
-7.66842e-15
-3.07259e-14
-7.84198e-17
-3.43116e-15
-1.58163e-13
-4.58066e-12
-1.00722e-10
-2.01736e-09
-3.74015e-08
-5.18204e-07
-1.28801e-05
-0.000400822
-0.087173
-0.168895
-0.103291
-8.10734e-34
-1.99341e-15
-1.283e-14
-2.15004e-14
-1.64483e-14
-5.748e-15
-1.30963e-15
-1.56237e-15
-4.66132e-16
-1.63236e-15
-7.01273e-17
-3.9137e-15
-1.8811e-13
-5.85852e-12
-1.53006e-10
-3.94276e-09
-8.19464e-08
-1.17395e-06
-2.61965e-05
-0.000625249
-0.0344014
-0.158322
-0.0582377
-9.50429e-32
-1.05397e-15
-4.92578e-15
-6.66821e-15
-1.41479e-15
-4.41962e-16
-9.10755e-17
-9.7841e-17
-2.45517e-17
-7.46998e-17
-2.57036e-17
-1.8499e-15
-9.69043e-14
-3.78575e-12
-1.39809e-10
-4.3024e-09
-9.25738e-08
-1.53617e-06
-3.42704e-05
-0.000176292
-0.000176299
-0.0132895
-0.0697638
-0.0388639
-2.02984e-16
-8.9699e-16
-4.41496e-15
-1.0168e-16
-2.82168e-17
-5.27752e-18
-5.11958e-18
-1.11921e-18
-2.9544e-18
-4.95105e-18
-3.59092e-16
-1.54086e-14
-3.82056e-13
-6.00132e-12
-5.90851e-11
-1.49292e-10
-1.39242e-12
-1.39268e-12
-2.24553e-05
-0.00321099
-0.00595803
-0.00877963
-0.0139928
-0.00219043
-4.33476e-21
-3.12992e-15
-6.31297e-18
-1.48548e-18
-2.52491e-19
-2.22666e-19
-4.37829e-20
-1.00861e-19
-1.07008e-21
-1.22502e-19
-6.4113e-18
-2.00073e-16
-4.06447e-15
-5.50164e-14
-5.18422e-13
-3.89981e-12
-1.06895e-11
-2.96932e-12
-2.97035e-12
-2.96932e-12
-2.97035e-12
-0.000662663
-0.000282364
-5.10194e-21
-1.20697e-15
-3.45764e-19
-6.41043e-20
-9.91252e-21
-8.04769e-21
-1.467e-21
-2.96868e-21
-4.62006e-22
-6.14221e-20
-3.77431e-18
-1.36586e-16
-3.24256e-15
-5.23789e-14
-5.70476e-13
-4.09767e-12
-1.74739e-11
-3.59449e-11
-7.5705e-11
-3.11319e-10
-6.2907e-10
-6.29046e-10
-8.55545e-06
-4.6921e-21
-2.10084e-16
-1.66011e-20
-2.29202e-21
-3.19501e-22
-2.4319e-22
-4.18966e-23
-7.53145e-23
-5.73067e-25
-8.17012e-23
-5.48396e-21
-2.30555e-19
-6.89848e-18
-1.60325e-16
-3.1254e-15
-5.40312e-14
-8.33025e-13
-1.10411e-11
-1.19542e-10
-9.23844e-10
-5.2991e-09
-2.09572e-08
-3.50376e-08
-5.50588e-21
-1.9993e-17
-6.83072e-22
-6.88131e-23
-8.47786e-24
-6.15271e-24
-1.0144e-24
-1.64237e-24
-1.58245e-28
-2.11138e-26
-1.31235e-24
-5.00612e-23
-1.30483e-21
-2.45135e-20
-3.41385e-19
-3.5912e-18
-2.88765e-17
-1.77889e-16
-4.38857e-16
-2.11341e-16
-1.87864e-18
-1.87865e-18
-1.87864e-18
-7.43486e-17
-1.12796e-18
-2.41211e-23
-1.76324e-24
-1.87782e-25
-1.30799e-25
-2.07777e-26
-3.07724e-26
-1.43419e-33
-2.31333e-31
-1.75626e-29
-8.29309e-28
-2.71583e-26
-6.52782e-25
-1.18899e-23
-1.67735e-22
-1.85528e-21
-1.62608e-20
-1.13433e-19
-6.28445e-19
-2.72962e-18
-5.39822e-18
-6.20213e-18
-4.78205e-18
-3.3758e-20
-7.48106e-25
-3.86391e-26
-3.54037e-27
-2.33811e-27
-3.59236e-28
-4.94881e-28
-1.08043e-36
-1.75819e-34
-1.35036e-32
-6.4763e-31
-2.16545e-29
-5.3447e-28
-1.00487e-26
-1.46885e-25
-1.68563e-24
-1.52529e-23
-1.08157e-22
-5.85705e-22
-2.28704e-21
-4.0808e-21
-4.55508e-21
-2.04138e-21
-6.7046e-22
-1.98574e-26
-7.13202e-28
-5.81128e-29
-3.51969e-29
-5.2532e-30
-6.83789e-30
-9.26034e-43
-1.554e-40
-1.25475e-38
-6.4898e-37
-2.41408e-35
-6.87421e-34
-1.55326e-32
-2.85341e-31
-4.32147e-30
-5.44286e-29
-5.72272e-28
-5.00978e-27
-3.64309e-26
-2.16342e-25
-1.03315e-24
-3.85743e-24
-8.24937e-24
-4.059e-28
-1.07916e-29
-8.38812e-31
-4.46484e-31
-6.53026e-32
-8.13411e-32
-1.11183e-46
-2.39619e-44
-2.45687e-42
-1.58962e-40
-7.26373e-39
-2.48753e-37
-6.61421e-36
-1.3983e-34
-2.38615e-33
-3.31723e-32
-3.77348e-31
-3.49382e-30
-2.59914e-29
-1.48186e-28
-5.96683e-28
-1.92509e-27
-1.33063e-26
-5.45891e-30
-1.29319e-31
-1.05518e-32
-4.78765e-33
-6.95339e-34
-8.36287e-34
-1.4853e-52
-3.06823e-50
-3.00068e-48
-1.84436e-46
-7.97806e-45
-2.57783e-43
-6.44585e-42
-1.27604e-40
-2.02648e-39
-2.59883e-38
-2.69215e-37
-2.23103e-36
-1.45602e-35
-7.25762e-35
-2.82338e-34
-1.31178e-33
-2.85198e-32
-4.34983e-32
-1.18575e-33
-1.1303e-34
-4.3837e-35
-6.39966e-36
-7.45591e-36
-1.94336e-60
-6.10912e-58
-9.26673e-56
-9.02596e-54
-6.34493e-52
-3.42859e-50
-1.4839e-48
-5.29082e-47
-1.58862e-45
-4.08515e-44
-9.12909e-43
-1.79427e-41
-3.14242e-40
-4.96137e-39
-7.20287e-38
-9.96344e-37
-1.43594e-35
-1.30577e-34
-8.02833e-36
-9.99141e-37
-3.48203e-37
-5.14638e-38
-5.78385e-38
-1.15514e-65
-3.56757e-63
-5.28861e-61
-5.00644e-59
-3.39926e-57
-1.76062e-55
-7.23212e-54
-2.41592e-52
-6.68194e-51
-1.55158e-49
-3.07106e-48
-5.31085e-47
-8.52094e-46
-1.49311e-44
-4.16115e-43
-2.2986e-41
-1.70545e-39
-6.32483e-38
-3.92187e-38
-7.08587e-39
-2.43282e-39
-3.66391e-40
-3.92636e-40
-4.96051e-72
-2.29674e-69
-5.17703e-67
-7.56896e-65
-8.08458e-63
-6.72771e-61
-4.55435e-59
-2.58298e-57
-1.2572e-55
-5.35618e-54
-2.03296e-52
-6.9989e-51
-2.22948e-49
-6.72935e-48
-1.98141e-46
-5.89274e-45
-1.85272e-43
-6.57421e-42
-1.27241e-40
-3.94146e-41
-1.50463e-41
-2.34343e-42
-2.35144e-42
-1.94341e-76
-1.02533e-73
-2.63427e-71
-4.39311e-69
-5.36024e-67
-5.10741e-65
-3.97182e-63
-2.60099e-61
-1.47201e-59
-7.36836e-58
-3.33789e-56
-1.40405e-54
-5.63672e-53
-2.22878e-51
-8.97128e-50
-3.79133e-48
-1.72816e-46
-8.65269e-45
-2.44898e-43
-1.70076e-43
-8.21008e-44
-1.36675e-44
-1.25538e-44
-1.08376e-82
-6.4702e-80
-1.88305e-77
-3.56345e-75
-4.95743e-73
-5.44096e-71
-4.97213e-69
-3.95836e-67
-2.87092e-65
-1.98147e-63
-1.35232e-61
-9.41391e-60
-6.81568e-58
-5.18713e-56
-4.15098e-54
-3.48042e-52
-3.03165e-50
-2.70209e-48
-2.46471e-46
-5.61813e-46
-3.93246e-46
-7.35235e-47
-6.06077e-47
-5.36145e-88
-4.76895e-85
-2.08449e-82
-5.97396e-80
-1.26722e-77
-2.12678e-75
-2.95538e-73
-3.51212e-71
-3.66458e-69
-3.43405e-67
-2.94882e-65
-2.36885e-63
-1.81424e-61
-1.35679e-59
-1.02575e-57
-8.33787e-56
-7.88642e-54
-8.98207e-52
-1.22124e-49
-1.40009e-48
-1.64238e-48
-3.67039e-49
-2.69469e-49
-7.77709e-93
-8.78347e-90
-4.87133e-87
-1.76876e-84
-4.74458e-82
-1.00414e-79
-1.75296e-77
-2.60275e-75
-3.36713e-73
-3.87349e-71
-4.0309e-69
-3.86676e-67
-3.48878e-65
-3.04029e-63
-2.6347e-61
-2.34687e-59
-2.22778e-57
-2.41013e-55
-3.57786e-53
-2.67143e-51
-5.94472e-51
-1.70305e-51
-1.12836e-51
-1.11888e-98
-1.64086e-95
-1.19362e-92
-5.75502e-90
-2.07896e-87
-6.0207e-85
-1.46198e-82
-3.0713e-80
-5.72189e-78
-9.65633e-76
-1.50466e-73
-2.20931e-71
-3.10932e-69
-4.26715e-67
-5.79026e-65
-7.89304e-63
-1.09965e-60
-1.60349e-58
-2.55558e-56
-3.948e-54
-1.87433e-53
-7.35195e-54
-4.55887e-54
-1.74699e-105
-4.21238e-102
-5.09671e-99
-4.12762e-96
-2.52165e-93
-1.23794e-90
-5.08746e-88
-1.8001e-85
-5.60531e-83
-1.56643e-80
-3.99343e-78
-9.45308e-76
-2.11056e-73
-4.5255e-71
-9.4566e-69
-1.96131e-66
-4.11387e-64
-8.91757e-62
-2.0282e-59
-4.767e-57
-5.23098e-56
-2.96373e-56
-1.81846e-56
-9.07117e-113
-3.65464e-109
-7.44333e-106
-1.02043e-102
-1.05558e-99
-8.76155e-97
-6.07479e-94
-3.62486e-91
-1.90787e-88
-9.06245e-86
-3.96056e-83
-1.62211e-80
-6.29822e-78
-2.34358e-75
-8.43016e-73
-2.97372e-70
-1.04537e-67
-3.72189e-65
-1.34981e-62
-5.05864e-60
-1.31694e-58
-1.12625e-58
-7.28992e-59
-2.79768e-121
-2.34644e-117
-9.71911e-114
-2.64254e-110
-5.31896e-107
-8.50414e-104
-1.13103e-100
-1.29687e-97
-1.31371e-94
-1.20218e-91
-1.00895e-88
-7.91049e-86
-5.87639e-83
-4.21213e-80
-2.94806e-77
-2.04593e-74
-1.42159e-71
-9.95704e-69
-6.98215e-66
-4.93285e-63
-3.08453e-61
-4.08041e-61
-2.96734e-61
-3.84859e-131
-7.99166e-127
-7.57278e-123
-4.39392e-119
-1.78662e-115
-5.54757e-112
-1.39687e-108
-3.00096e-105
-5.74293e-102
-1.02016e-98
-1.74002e-95
-2.9299e-92
-4.95077e-89
-8.4802e-86
-1.48444e-82
-2.68229e-79
-5.05812e-76
-1.00092e-72
-2.08779e-69
-4.27233e-66
-6.91844e-64
-1.42983e-63
-1.22908e-63
-140.103
-1.07609e-07
-1.79229e-07
-3.16618e-10
-250.033
-11.6071
-6.06263e-05
-3.9541e-10
-206.402
-36.8169
-0.0831644
-4.65227e-10
-22.7866
-23.9003
-2.80026
-0.00250547
-0.0351077
-0.474168
-1.22733
-0.273445
-4.97489e-06
-8.72588e-05
-1.14544e-07
-0.0645499
-1.26998e-07
-1.26913e-07
-1.26998e-07
-9.20124e-05
-2.27782e-07
-2.18296e-07
-1.97814e-07
-1.82574e-07
-2.72199e-07
-2.71204e-07
-2.51378e-07
-1.87824e-07
-1.74879e-07
-1.6519e-07
-1.45601e-07
-1.00379e-07
-3.7594e-08
-3.31827e-08
-2.63213e-08
-1.61774e-08
-5.08519e-09
-4.38963e-09
-3.09107e-09
-1.72914e-09
-5.1612e-10
-4.42521e-10
-2.70121e-10
-1.42279e-10
-4.24226e-11
-3.61321e-11
-1.89598e-11
-9.65061e-12
-2.94609e-12
-2.47046e-12
-1.12117e-12
-5.5673e-13
-1.76822e-13
-1.44334e-13
-5.74211e-14
-2.75101e-14
-9.27066e-15
-7.28929e-15
-2.57234e-15
-1.17687e-15
-4.26917e-16
-3.20459e-16
-1.01384e-16
-4.3981e-17
-1.72424e-17
-1.22824e-17
-3.51898e-18
-1.44405e-18
-6.0985e-19
-4.10232e-19
-1.07658e-19
-4.18528e-20
-1.88373e-20
-1.19369e-20
-2.90378e-21
-1.07389e-21
-5.0782e-22
-3.02969e-22
-6.91733e-23
-2.44678e-23
-1.19267e-23
-6.73295e-24
-1.45596e-24
-4.95326e-25
-2.4336e-25
-1.31209e-25
-2.70454e-26
-8.89904e-27
-4.31799e-27
-2.24352e-27
-4.43547e-28
-1.4192e-28
-6.66482e-29
-3.36569e-29
-6.42313e-30
-2.00912e-30
-8.9594e-31
-4.43213e-31
-8.22052e-32
-2.52709e-32
-1.05067e-32
-5.12906e-33
-9.31145e-34
-2.82809e-34
-1.078e-34
-5.22616e-35
-9.35727e-36
-2.82151e-36
-9.71817e-37
-4.70136e-37
-8.37144e-38
-2.51643e-38
-7.73393e-39
-3.74592e-39
-6.69413e-40
-2.01246e-40
-5.45871e-41
-2.65535e-41
-4.80604e-42
-1.44878e-42
-3.43462e-43
-1.68306e-43
-3.113e-44
-9.43252e-45
-1.93912e-45
-9.60183e-46
-1.82983e-46
-5.58904e-47
-9.90345e-48
-4.96826e-48
-9.82681e-49
-3.03574e-49
-4.62233e-50
-2.35292e-50
-4.85983e-51
-1.52399e-51
-1.99666e-52
-1.03054e-52
-2.23296e-53
-7.1337e-54
-8.10826e-55
-4.22503e-55
-9.63044e-56
-3.14423e-56
-3.15398e-57
-1.64363e-57
-3.94221e-58
-1.31834e-58
-1.2018e-59
-6.1653e-60
-1.55158e-60
-5.3188e-61
-4.59277e-62
-2.26913e-62
-5.95082e-63
-2.08863e-63
-1.79767e-64
-8.34091e-65
-2.25268e-65
-8.06226e-66
-4.85991e-10
-1.31472e-09
-1.49232e-10
-1.27433e-11
-4.79661e-13
-1.67421e-14
-4.54614e-16
-1.07343e-17
-2.12923e-19
-3.39623e-21
-4.65402e-23
-4.68025e-25
-4.15961e-27
-2.94608e-29
-1.95557e-31
-1.03361e-33
-3.87747e-36
-9.31582e-39
-1.05533e-41
-1.01267e-08
-1.29392e-08
-1.72495e-09
-1.54631e-10
-7.38596e-12
-3.13531e-13
-1.11648e-14
-3.50374e-16
-9.36523e-18
-2.07787e-19
-3.86898e-21
-5.87423e-23
-7.23e-25
-7.05968e-27
-5.35022e-29
-3.0395e-31
-1.21696e-33
-3.07692e-36
-3.68772e-39
-8.51771e-08
-5.41174e-08
-1.09964e-08
-1.11455e-09
-7.20432e-11
-3.47128e-12
-1.21654e-13
-3.31156e-15
-6.88794e-17
-1.13973e-18
-1.55076e-20
-1.74929e-22
-1.67551e-24
-1.3418e-26
-8.45618e-29
-4.05869e-31
-1.37943e-33
-2.99644e-36
-4.38865e-39
-4.00106e-07
-2.02263e-07
-3.46649e-08
-4.54756e-09
-3.84808e-10
-2.28055e-11
-1.01694e-12
-3.37038e-14
-8.56238e-16
-1.66824e-17
-2.53072e-19
-2.99564e-21
-2.77309e-23
-1.99414e-25
-1.10497e-27
-4.58325e-30
-1.3496e-32
-2.53194e-35
-2.29045e-38
-0.000228663
-9.15567e-07
-5.97951e-08
-9.32554e-09
-6.85462e-10
-3.15911e-11
-1.03325e-12
-2.56722e-14
-4.90349e-16
-7.46957e-18
-9.08996e-20
-9.04424e-22
-7.32453e-24
-4.81496e-26
-2.48267e-28
-9.78271e-31
-2.75127e-33
-4.97978e-36
-4.34917e-39
-0.0105768
-4.45054e-06
-1.55543e-07
-2.29618e-08
-1.54412e-09
-6.17672e-11
-1.78028e-12
-4.03176e-14
-7.3889e-16
-1.08629e-17
-1.27966e-19
-1.2003e-21
-8.99607e-24
-5.3441e-26
-2.482e-28
-8.74513e-31
-2.21555e-33
-3.61687e-36
-2.87648e-39
-0.00114771
-0.000114789
-4.1335e-07
-1.1225e-08
-4.55984e-10
-1.35332e-11
-3.30512e-13
-6.64007e-15
-1.07094e-16
-1.40721e-18
-1.5139e-20
-1.3409e-22
-9.50259e-25
-5.38935e-27
-2.37113e-29
-7.94193e-32
-1.90418e-34
-2.95502e-37
-2.23854e-40
-6.79369e-07
-2.0676e-06
-1.28936e-07
-3.11092e-09
-7.79672e-11
-2.24594e-12
-6.03441e-14
-1.32324e-15
-2.28669e-17
-3.13074e-19
-3.40694e-21
-2.96799e-23
-2.06427e-25
-1.14083e-27
-4.92156e-30
-1.6129e-32
-3.79827e-35
-5.7771e-38
-4.29514e-41
-7.34163e-08
-3.04638e-08
-3.01096e-09
-1.55964e-10
-6.60416e-12
-2.24185e-13
-5.85158e-15
-1.19695e-16
-1.91298e-18
-2.4523e-20
-2.50372e-22
-2.07234e-24
-1.36957e-26
-7.2656e-29
-3.00743e-31
-9.52591e-34
-2.16684e-36
-3.19876e-39
-2.30681e-42
-2.13452e-08
-3.12191e-09
-2.54548e-10
-1.45401e-11
-6.13103e-13
-2.00989e-14
-5.04484e-16
-1.00722e-17
-1.58149e-19
-2.00577e-21
-2.03061e-23
-1.66713e-25
-1.09308e-27
-5.73715e-30
-2.34895e-32
-7.33586e-35
-1.64505e-37
-2.38791e-40
-1.69358e-43
-2.94465e-09
-3.17912e-10
-2.21474e-11
-1.15629e-12
-4.42042e-14
-1.33556e-15
-3.09349e-17
-5.7839e-19
-8.51237e-21
-1.02406e-22
-9.83556e-25
-7.73811e-27
-4.85921e-29
-2.46398e-31
-9.73971e-34
-2.95666e-36
-6.44267e-39
-9.13177e-42
-6.32658e-45
-2.74042e-10
-2.58028e-11
-1.57485e-12
-7.53244e-14
-2.6282e-15
-7.43556e-17
-1.61512e-18
-2.88238e-20
-4.06096e-22
-4.72881e-24
-4.40649e-26
-3.38495e-28
-2.07877e-30
-1.03367e-32
-4.011e-35
-1.19617e-37
-2.56249e-40
-3.57053e-43
-2.43301e-46
-1.93765e-11
-1.69544e-12
-9.09431e-14
-4.00893e-15
-1.26695e-16
-3.34067e-18
-6.71528e-20
-1.13029e-21
-1.49703e-23
-1.66137e-25
-1.47293e-27
-1.08801e-29
-6.41897e-32
-3.09258e-34
-1.16215e-36
-3.37821e-39
-7.05508e-42
-9.62728e-45
-6.4308e-48
-1.0942e-12
-9.31459e-14
-4.37529e-15
-1.81112e-16
-5.21265e-18
-1.29445e-19
-2.42295e-21
-3.8773e-23
-4.86324e-25
-5.18303e-27
-4.40857e-29
-3.15403e-31
-1.80262e-33
-8.4639e-36
-3.10173e-38
-8.82492e-41
-1.80554e-43
-2.41872e-46
-1.58795e-49
-5.143e-14
-4.38411e-15
-1.75712e-16
-6.9319e-18
-1.79748e-19
-4.21794e-21
-7.287e-23
-1.10725e-24
-1.30373e-26
-1.3294e-28
-1.07546e-30
-7.41848e-33
-4.07537e-35
-1.8578e-37
-6.60119e-40
-1.8341e-42
-3.66464e-45
-4.8169e-48
-3.107e-51
-2.11463e-15
-1.8109e-16
-6.00457e-18
-2.31482e-19
-5.38534e-21
-1.20872e-22
-1.93154e-24
-2.80565e-26
-3.11185e-28
-3.05085e-30
-2.35637e-32
-1.57307e-34
-8.33638e-37
-3.69948e-39
-1.27822e-41
-3.47406e-44
-6.792e-47
-8.7671e-50
-5.56173e-53
-7.70823e-17
-6.74122e-18
-1.73449e-19
-6.74413e-21
-1.37289e-22
-2.9901e-24
-4.3704e-26
-6.10844e-28
-6.33879e-30
-5.99228e-32
-4.39769e-34
-2.84495e-36
-1.44963e-38
-6.26796e-41
-2.10223e-43
-5.59505e-46
-1.07021e-48
-1.35875e-51
-8.48949e-55
-2.52154e-18
-2.25749e-19
-4.57941e-21
-1.76463e-22
-3.0618e-24
-6.61191e-26
-8.80498e-28
-1.19679e-29
-1.16309e-31
-1.06637e-33
-7.45211e-36
-4.68845e-38
-2.30166e-40
-9.71817e-43
-3.1684e-45
-8.26778e-48
-1.54832e-50
-1.93421e-53
-1.19052e-56
-7.41964e-20
-6.78111e-21
-1.11042e-22
-4.28287e-24
-5.97842e-26
-1.2975e-27
-1.53469e-29
-2.0644e-31
-1.85915e-33
-1.66917e-35
-1.10516e-37
-6.80127e-40
-3.20971e-42
-1.32864e-44
-4.20988e-47
-1.08052e-49
-1.9841e-52
-2.44649e-55
-1.48806e-58
-1.97097e-21
-1.82897e-22
-2.47943e-24
-9.62462e-26
-1.10293e-27
-2.37335e-29
-2.39446e-31
-3.25437e-33
-2.70283e-35
-2.39984e-37
-1.50535e-39
-9.11114e-42
-4.13736e-44
-1.68418e-46
-5.18994e-49
-1.31217e-51
-2.36228e-54
-2.87508e-57
-1.72709e-60
-4.71678e-23
-4.41927e-24
-5.0838e-26
-1.99068e-27
-1.91325e-29
-4.11631e-31
-3.4876e-33
-4.71732e-35
-3.4731e-37
-3.1097e-39
-1.8272e-41
-1.10018e-43
-4.78646e-46
-1.92981e-48
-5.77797e-51
-1.4459e-53
-2.55453e-56
-3.07739e-59
-1.82543e-62
-1.01777e-24
-9.57823e-26
-9.59067e-28
-3.78945e-29
-3.1263e-31
-6.74853e-33
-4.90384e-35
-6.61092e-37
-4.22396e-39
-3.77967e-41
-2.05759e-43
-1.24511e-45
-5.18096e-48
-2.0801e-50
-6.05156e-53
-1.5035e-55
-2.60893e-58
-3.11934e-61
-1.83254e-64
-1.97588e-26
-1.86124e-27
-1.66001e-29
-6.6182e-31
-4.79281e-33
-1.03998e-34
-6.61773e-37
-8.90523e-39
-5.02757e-41
-4.47052e-43
-2.17722e-45
-1.31494e-47
-5.12143e-50
-2.07007e-52
-5.81822e-55
-1.44488e-57
-2.45848e-60
-2.92807e-63
-1.70737e-66
-3.44725e-28
-3.24633e-29
-2.63769e-31
-1.06116e-32
-6.89619e-35
-1.50499e-36
-8.55999e-39
-1.15099e-40
-5.83543e-43
-5.17472e-45
-2.27922e-47
-1.37462e-49
-4.93076e-52
-1.98778e-54
-5.3444e-57
-1.33269e-59
-2.22298e-62
-2.64456e-65
-1.53191e-68
-5.40142e-30
-5.08552e-31
-3.84237e-33
-1.56051e-34
-9.28418e-37
-2.03924e-38
-1.05663e-40
-1.42221e-42
-6.57461e-45
-5.83061e-47
-2.35303e-49
-1.41765e-51
-4.73852e-54
-1.90248e-56
-4.82749e-59
-1.19919e-61
-1.93365e-64
-2.29289e-67
-1.31048e-70
-7.5987e-32
-7.16246e-33
-5.13192e-35
-2.10607e-36
-1.16919e-38
-2.58721e-40
-1.24353e-42
-1.67807e-44
-7.1779e-47
-6.3768e-49
-2.39016e-51
-1.43812e-53
-4.52336e-56
-1.81141e-58
-4.37504e-61
-1.08214e-63
-1.69066e-66
-1.99781e-69
-1.12724e-72
-9.60432e-34
-9.08581e-35
-6.28855e-37
-2.61065e-38
-1.37603e-40
-3.07143e-42
-1.39187e-44
-1.88641e-46
-7.57138e-49
-6.74803e-51
-2.38071e-53
-1.4312e-55
-4.27372e-58
-1.70927e-60
-3.9607e-63
-9.76057e-66
-1.4822e-68
-1.74515e-71
-9.72673e-75
-1.09174e-35
-1.04021e-36
-7.07872e-39
-2.97693e-40
-1.51441e-42
-3.41459e-44
-1.48112e-46
-2.0194e-48
-7.70911e-51
-6.89797e-53
-2.31956e-55
-1.39408e-57
-3.98552e-60
-1.59296e-62
-3.56648e-65
-8.7629e-68
-1.29838e-70
-1.52287e-73
-8.39078e-77
-1.11786e-37
-1.07764e-38
-7.33148e-41
-3.12879e-42
-1.55991e-44
-3.55819e-46
-1.49767e-48
-2.05746e-50
-7.56573e-53
-6.80068e-55
-2.20458e-57
-1.32602e-59
-3.65941e-62
-1.4623e-64
-3.18391e-67
-7.80597e-70
-1.13322e-72
-1.32429e-75
-7.22149e-79
-1.0335e-39
-1.01347e-40
-7.00251e-43
-3.03849e-44
-1.50639e-46
-3.48113e-48
-1.44002e-50
-1.99604e-52
-7.15451e-55
-6.46327e-57
-2.04061e-59
-1.22952e-61
-3.30164e-64
-1.31916e-66
-2.80964e-69
-6.87649e-72
-9.82053e-75
-1.14369e-77
-6.18108e-81
-8.65619e-42
-8.68381e-43
-6.18469e-45
-2.73449e-46
-1.36654e-48
-3.2037e-50
-1.31781e-52
-1.84541e-54
-6.51789e-57
-5.92075e-59
-1.83714e-61
-1.10992e-63
-2.92219e-66
-1.16764e-68
-2.44556e-71
-5.97761e-74
-8.4291e-77
-9.78669e-80
-5.25017e-83
-6.60009e-44
-6.80491e-45
-5.06906e-47
-2.28823e-48
-1.16769e-50
-2.78027e-52
-1.14974e-54
-1.62822e-56
-5.72363e-59
-5.23063e-61
-1.60804e-63
-9.7487e-66
-2.53423e-68
-1.01286e-70
-2.09617e-73
-5.11817e-76
-7.14966e-79
-8.27936e-82
-4.41548e-85
-4.60651e-46
-4.89765e-47
-3.87112e-49
-1.78708e-50
-9.42677e-53
-2.28168e-54
-9.58274e-57
-1.37353e-58
-4.84927e-61
-4.46077e-63
-1.36857e-65
-8.33095e-68
-2.15216e-70
-8.60641e-73
-1.76774e-75
-4.31311e-78
-5.9863e-81
-6.9175e-84
-3.67289e-87
-2.96006e-48
-3.25414e-49
-2.76753e-51
-1.30804e-52
-7.21569e-55
-1.77649e-56
-7.64961e-59
-1.11032e-60
-3.96982e-63
-3.67745e-65
-1.13337e-67
-6.93029e-70
-1.78961e-72
-7.16305e-75
-1.46619e-77
-3.57593e-80
-4.94469e-83
-5.7048e-86
-3.01987e-89
-1.76172e-50
-2.00787e-51
-1.86157e-53
-9.01498e-55
-5.25727e-57
-1.31702e-58
-5.86569e-61
-8.62449e-63
-3.1463e-65
-2.93617e-67
-9.14455e-70
-5.61851e-72
-1.45794e-74
-5.84347e-77
-1.19646e-79
-2.91829e-82
-4.03067e-85
-4.64586e-88
-2.45528e-91
-9.77605e-53
-1.15821e-53
-1.18451e-55
-5.88125e-57
-3.66156e-59
-9.33425e-61
-4.33465e-63
-6.45664e-65
-2.41978e-67
-2.2754e-69
-7.20062e-72
-4.446e-74
-1.16483e-76
-4.67737e-79
-9.614e-82
-2.34637e-84
-3.2452e-87
-3.73966e-90
-1.97588e-93
-5.09386e-55
-6.29233e-56
-7.1703e-58
-3.65315e-59
-2.44894e-61
-6.35318e-63
-3.09836e-65
-4.67519e-67
-1.81101e-69
-1.71617e-71
-5.54585e-74
-3.44154e-76
-9.14262e-79
-3.68019e-81
-7.61887e-84
-1.86176e-86
-2.58483e-89
-2.98051e-92
-1.57662e-95
-2.51232e-57
-3.24558e-58
-4.15495e-60
-2.17402e-61
-1.58054e-63
-4.17287e-65
-2.15055e-67
-3.28661e-69
-1.32302e-71
-1.2635e-73
-4.18851e-76
-2.61252e-78
-7.06431e-81
-2.85241e-83
-5.96671e-86
-1.4609e-88
-2.04103e-91
-2.35714e-94
-1.25013e-97
-1.1828e-59
-1.60295e-60
-2.31969e-62
-1.24783e-63
-9.89435e-66
-2.65904e-67
-1.45567e-69
-2.25283e-71
-9.46809e-74
-9.11264e-76
-3.11169e-78
-1.95104e-80
-5.38847e-83
-2.18408e-85
-4.63035e-88
-1.13681e-90
-1.60198e-93
-1.85479e-96
-9.87627e-100
-5.36732e-62
-7.64991e-63
-1.25668e-64
-6.95662e-66
-6.04134e-68
-1.65302e-69
-9.65258e-72
-1.51257e-73
-6.66299e-76
-6.46301e-78
-2.28172e-80
-1.43843e-82
-4.07036e-85
-1.65744e-87
-3.57171e-90
-8.80027e-93
-1.25358e-95
-1.45647e-98
-7.7959e-102
-2.37039e-64
-3.56042e-65
-6.65419e-67
-3.79451e-68
-3.61883e-70
-1.00852e-71
-6.3011e-74
-9.9974e-76
-4.63063e-78
-4.52734e-80
-1.65787e-82
-1.05119e-84
-3.05617e-87
-1.25127e-89
-2.74836e-92
-6.80163e-95
-9.813e-98
-1.14505e-100
-6.16711e-104
-1.0263e-66
-1.62546e-67
-3.45513e-69
-2.03056e-70
-2.12841e-72
-6.04253e-74
-4.04633e-76
-6.49971e-78
-3.17236e-80
-3.12666e-82
-1.19058e-84
-7.59564e-87
-2.27385e-89
-9.36788e-92
-2.10193e-94
-5.2286e-97
-7.65076e-100
-8.97017e-103
-4.86341e-106
)
;

boundaryField
{
    leftWall
    {
        type            calculated;
        value           nonuniform List<scalar> 
50
(
-29.4294
-88.2881
-147.147
-206.006
-264.864
-323.723
-382.582
-441.44
-533.467
-658.662
-783.856
-909.051
-1034.25
-1159.44
-1284.63
-1409.83
-1535.02
-1660.22
-1785.41
-1908.14
-1646.74
-286.95
3.27494e-36
-1.42839e-17
-5.41376e-17
-7.84198e-17
-7.01273e-17
-2.57036e-17
-4.95105e-18
-1.07008e-21
-4.62006e-22
-5.73067e-25
-1.58245e-28
-1.43419e-33
-1.08043e-36
-9.26034e-43
-1.11183e-46
-1.4853e-52
-1.94336e-60
-1.15514e-65
-4.96051e-72
-1.94341e-76
-1.08376e-82
-5.36145e-88
-7.77709e-93
-1.11888e-98
-1.74699e-105
-9.07117e-113
-2.79768e-121
-3.84859e-131
)
;
    }
    rightWall
    {
        type            calculated;
        value           nonuniform List<scalar> 
50
(
-1.12298e-58
-5.77119e-56
-1.48851e-53
-3.19584e-51
-3.08604e-49
-4.25115e-47
-2.19026e-45
-2.15456e-43
-1.05533e-41
-3.68772e-39
-4.38865e-39
-2.29045e-38
-4.34917e-39
-2.87648e-39
-2.23854e-40
-4.29514e-41
-2.30681e-42
-1.69358e-43
-6.32658e-45
-2.43301e-46
-6.4308e-48
-1.58795e-49
-3.107e-51
-5.56173e-53
-8.48949e-55
-1.19052e-56
-1.48806e-58
-1.72709e-60
-1.82543e-62
-1.83254e-64
-1.70737e-66
-1.53191e-68
-1.31048e-70
-1.12724e-72
-9.72673e-75
-8.39078e-77
-7.22149e-79
-6.18108e-81
-5.25017e-83
-4.41548e-85
-3.67289e-87
-3.01987e-89
-2.45528e-91
-1.97588e-93
-1.57662e-95
-1.25013e-97
-9.87627e-100
-7.7959e-102
-6.16711e-104
-4.86341e-106
)
;
    }
    lowerWall
    {
        type            calculated;
        value           nonuniform List<scalar> 
62
(
0
0
0
0
0
0
0
0
0
0
0
0
0
0
0
0
0
0
0
0
0
0
0
-27.7466
-82.8687
-137.583