/*--------------------------------*- C++ -*----------------------------------*\
| =========                 |                                                 |
| \\      /  F ield         | OpenFOAM: The Open Source CFD Toolbox           |
|  \\    /   O peration     | Version:  2012                                  |
|   \\  /    A nd           | Website:  www.openfoam.com                      |
|    \\/     M anipulation  |                                                 |
\*---------------------------------------------------------------------------*/
FoamFile
{
    version     2.0;
    format      ascii;
    class       volVectorField;
    location    "0.15";
    object      U;
}
// * * * * * * * * * * * * * * * * * * * * * * * * * * * * * * * * * * * * * //

dimensions      [0 1 -1 0 0 0 0];


internalField   nonuniform List<vector> 
2268
(
(0.0329509 -0.0157756 0)
(0.100569 -0.0158604 0)
(0.167222 -0.0161325 0)
(0.23712 -0.016445 0)
(0.30641 -0.0168479 0)
(0.379815 -0.0174863 0)
(0.454392 -0.0179537 0)
(0.531966 -0.0187631 0)
(0.613159 -0.0194947 0)
(0.697219 -0.0201197 0)
(0.783536 -0.0206922 0)
(0.87269 -0.0216054 0)
(0.96612 -0.0216941 0)
(1.0565 -0.0213024 0)
(1.14571 -0.0183492 0)
(1.21297 -0.0163905 0)
(1.28438 -0.0118843 0)
(1.31612 -0.00357278 0)
(1.31413 0.00754203 0)
(1.24458 0.0275309 0)
(1.07668 0.0584819 0)
(0.752091 0.0916741 0)
(0.294674 0.123816 0)
(0.032845 -0.0473254 0)
(0.10046 -0.0475968 0)
(0.16697 -0.0483957 0)
(0.236765 -0.0493483 0)
(0.305963 -0.0505632 0)
(0.379263 -0.0524897 0)
(0.453804 -0.0539006 0)
(0.531313 -0.0563277 0)
(0.612472 -0.0585429 0)
(0.696613 -0.0604696 0)
(0.783143 -0.0621549 0)
(0.872496 -0.064774 0)
(0.965871 -0.0650857 0)
(1.05736 -0.0636783 0)
(1.14744 -0.0554534 0)
(1.21799 -0.0492985 0)
(1.29326 -0.0366345 0)
(1.33209 -0.010676 0)
(1.3363 0.0266392 0)
(1.26915 0.0847536 0)
(1.09982 0.174684 0)
(0.764418 0.278222 0)
(0.295244 0.370377 0)
(0.0326554 -0.078773 0)
(0.100221 -0.0792469 0)
(0.166452 -0.0805431 0)
(0.236042 -0.082144 0)
(0.305057 -0.084164 0)
(0.378142 -0.0873944 0)
(0.452611 -0.0897588 0)
(0.529992 -0.0938055 0)
(0.611068 -0.0975537 0)
(0.695351 -0.100848 0)
(0.782294 -0.103736 0)
(0.872114 -0.108056 0)
(0.965678 -0.108987 0)
(1.05923 -0.107243 0)
(1.15065 -0.094176 0)
(1.22781 -0.0855405 0)
(1.30987 -0.0657048 0)
(1.35883 -0.0243521 0)
(1.38149 0.0373019 0)
(1.31675 0.138936 0)
(1.1405 0.297136 0)
(0.785464 0.472009 0)
(0.30673 0.62381 0)
(0.0324365 -0.110124 0)
(0.0998173 -0.110832 0)
(0.165669 -0.112581 0)
(0.234966 -0.114868 0)
(0.303712 -0.117695 0)
(0.376463 -0.122265 0)
(0.450807 -0.125615 0)
(0.528 -0.131271 0)
(0.608926 -0.136633 0)
(0.693341 -0.141457 0)
(0.780848 -0.145615 0)
(0.871243 -0.15152 0)
(0.965665 -0.153417 0)
(1.06103 -0.151175 0)
(1.1545 -0.13494 0)
(1.24136 -0.124576 0)
(1.33009 -0.0982924 0)
(1.39643 -0.0443439 0)
(1.43781 0.0470985 0)
(1.3774 0.199364 0)
(1.20417 0.426606 0)
(0.839587 0.672927 0)
(0.328955 0.88638 0)
(0.0322389 -0.141272 0)
(0.0991666 -0.142209 0)
(0.164594 -0.144405 0)
(0.233474 -0.147393 0)
(0.301871 -0.151005 0)
(0.374154 -0.156947 0)
(0.448297 -0.161321 0)
(0.525242 -0.168585 0)
(0.605954 -0.175633 0)
(0.690451 -0.182167 0)
(0.778618 -0.187741 0)
(0.86987 -0.195492 0)
(0.965559 -0.198629 0)
(1.06337 -0.196629 0)
(1.16065 -0.179382 0)
(1.2584 -0.168853 0)
(1.35781 -0.139101 0)
(1.44214 -0.0757629 0)
(1.49819 0.0455898 0)
(1.44801 0.248332 0)
(1.29404 0.550646 0)
(0.914502 0.88532 0)
(0.373077 1.17498 0)
(0.0319864 -0.17223 0)
(0.0983575 -0.173387 0)
(0.16326 -0.176053 0)
(0.231593 -0.179762 0)
(0.299575 -0.184159 0)
(0.371258 -0.191508 0)
(0.445093 -0.196975 0)
(0.521724 -0.205835 0)
(0.60215 -0.214655 0)
(0.686632 -0.22312 0)
(0.775453 -0.230336 0)
(0.867574 -0.239931 0)
(0.964759 -0.244764 0)
(1.06507 -0.243405 0)
(1.16808 -0.226908 0)
(1.27635 -0.217637 0)
(1.38949 -0.184754 0)
(1.48937 -0.110017 0)
(1.55631 0.04522 0)
(1.53571 0.297718 0)
(1.42291 0.68106 0)
(1.04976 1.10978 0)
(0.433397 1.49481 0)
(0.0316727 -0.202865 0)
(0.0973419 -0.204242 0)
(0.161617 -0.207359 0)
(0.229231 -0.21182 0)
(0.296721 -0.216977 0)
(0.36767 -0.225748 0)
(0.441084 -0.232377 0)
(0.517328 -0.242857 0)
(0.597458 -0.253509 0)
(0.681848 -0.264133 0)
(0.771339 -0.27319 0)
(0.864548 -0.285044 0)
(0.963589 -0.291931 0)
(1.06723 -0.292867 0)
(1.177 -0.279291 0)
(1.29675 -0.273897 0)
(1.42411 -0.240166 0)
(1.53741 -0.155401 0)
(1.61687 0.0218841 0)
(1.64803 0.30929 0)
(1.59503 0.777609 0)
(1.25212 1.35235 0)
(0.587115 1.87604 0)
(0.0313172 -0.233207 0)
(0.09617 -0.234805 0)
(0.159742 -0.238384 0)
(0.226534 -0.243632 0)
(0.293443 -0.249568 0)
(0.363544 -0.259778 0)
(0.436409 -0.267666 0)
(0.512196 -0.279793 0)
(0.59197 -0.292356 0)
(0.676147 -0.305353 0)
(0.766152 -0.316617 0)
(0.860268 -0.330832 0)
(0.960972 -0.340456 0)
(1.06756 -0.344235 0)
(1.18386 -0.335171 0)
(1.31424 -0.334185 0)
(1.45153 -0.297898 0)
(1.57216 -0.199922 0)
(1.67467 -0.00526781 0)
(1.77178 0.311467 0)
(1.81429 0.873289 0)
(1.46014 1.58686 0)
(0.68051 2.36313 0)
(-0.169646 -0.0344786 0)
(-0.121691 -0.0341262 0)
(-0.258759 -0.0451292 0)
(-0.204882 -0.0267757 0)
(-0.180515 -0.0278328 0)
(-0.15655 -0.0176582 0)
(-0.0964473 -0.0181348 0)
(-0.0927203 -0.0125278 0)
(-0.0353985 -0.0118821 0)
(-0.0464385 -0.00796267 0)
(-8.06791e-05 -0.00730617 0)
(-0.0201502 -0.00459561 0)
(0.0163565 -0.00418743 0)
(-0.00837108 -0.00243579 0)
(0.0209754 -0.00223209 0)
(-0.00588972 -0.00120666 0)
(0.0189725 -0.00112474 0)
(-0.008751 -0.000652511 0)
(0.0139681 -0.000636249 0)
(-0.169483 0.158525 0)
(-0.130971 0.0725241 0)
(-0.25439 0.0812158 0)
(-0.202444 -0.00637306 0)
(-0.178471 0.00760521 0)
(-0.152956 -0.0180741 0)
(-0.0940445 -0.00893614 0)
(-0.0899297 -0.0133938 0)
(-0.0334907 -0.00774811 0)
(-0.044397 -0.00707358 0)
(0.00129694 -0.0037616 0)
(-0.0187544 -0.00247668 0)
(0.0172349 -0.000670714 0)
(-0.00750101 0.000365183 0)
(0.0214738 0.00131589 0)
(-0.00540493 0.00197574 0)
(0.0191909 0.00243142 0)
(-0.00853804 0.00274888 0)
(0.0139698 0.00288349 0)
(-0.200341 0.0921163 0)
(-0.170942 0.00141844 0)
(-0.288925 -0.0174085 0)
(-0.235592 -0.0593588 0)
(-0.187772 -0.0500261 0)
(-0.162696 -0.0535235 0)
(-0.0950361 -0.0454668 0)
(-0.0917935 -0.0382569 0)
(-0.0329516 -0.0314851 0)
(-0.0447043 -0.0228605 0)
(0.00176346 -0.0182733 0)
(-0.0187932 -0.01156 0)
(0.0175271 -0.00894442 0)
(-0.0074915 -0.00443574 0)
(0.0216505 -0.00307521 0)
(-0.00539087 -0.000390431 0)
(0.0193009 0.000229302 0)
(-0.00854876 0.00147639 0)
(0.0140238 0.00164397 0)
(-0.200931 0.318928 0)
(-0.196332 0.11183 0)
(-0.281818 0.113278 0)
(-0.224744 -0.0490089 0)
(-0.179291 -0.0215262 0)
(-0.151562 -0.0575285 0)
(-0.087635 -0.0384022 0)
(-0.0831699 -0.0397371 0)
(-0.0271109 -0.0274201 0)
(-0.0385048 -0.0217678 0)
(0.00587037 -0.014488 0)
(-0.0146386 -0.00916043 0)
(0.0201235 -0.00520043 0)
(-0.0049202 -0.00140417 0)
(0.0231238 0.000652621 0)
(-0.00395507 0.00296516 0)
(0.0199529 0.00393254 0)
(-0.00791507 0.00502206 0)
(0.0140301 0.00529928 0)
(-0.278906 0.25573 0)
(-0.303312 0.0339686 0)
(-0.352974 -0.0124084 0)
(-0.291024 -0.103403 0)
(-0.194704 -0.083904 0)
(-0.168155 -0.0923248 0)
(-0.0886091 -0.0757355 0)
(-0.0863684 -0.0639533 0)
(-0.0258504 -0.0510379 0)
(-0.0390198 -0.0370652 0)
(0.00684395 -0.0286698 0)
(-0.0146929 -0.0179072 0)
(0.0206949 -0.0131753 0)
(-0.00491252 -0.00599743 0)
(0.0234522 -0.00353045 0)
(-0.00395039 0.000731896 0)
(0.0201481 0.00186433 0)
(-0.00795038 0.00384293 0)
(0.0141326 0.00415446 0)
(-0.279613 0.576314 0)
(-0.315184 0.14603 0)
(-0.337344 0.117956 0)
(-0.268069 -0.116223 0)
(-0.180053 -0.0702206 0)
(-0.147585 -0.102947 0)
(-0.0758988 -0.0718522 0)
(-0.0712131 -0.0664258 0)
(-0.0160515 -0.0468814 0)
(-0.0284898 -0.0355483 0)
(0.0136149 -0.024347 0)
(-0.00780117 -0.0149432 0)
(0.024964 -0.0089523 0)
(-0.000690313 -0.00250587 0)
(0.0258746 0.000566231 0)
(-0.00159485 0.00443461 0)
(0.0212261 0.00586211 0)
(-0.00690959 0.00767288 0)
(0.0141462 0.00807736 0)
(-0.447056 0.49162 0)
(-0.561201 0.0553435 0)
(-0.418556 -0.0453432 0)
(-0.352032 -0.170282 0)
(-0.194985 -0.139583 0)
(-0.165873 -0.135949 0)
(-0.0746128 -0.110085 0)
(-0.0747631 -0.0892088 0)
(-0.0135943 -0.070097 0)
(-0.0290751 -0.0498826 0)
(0.015143 -0.0379059 0)
(-0.00788418 -0.0230968 0)
(0.0257707 -0.0164273 0)
(-0.000719299 -0.00675097 0)
(0.026308 -0.00328655 0)
(-0.00162597 0.00241203 0)
(0.0214777 0.0040011 0)
(-0.00698151 0.00663864 0)
(0.0142889 0.00707803 0)
(-0.447377 1.03644 0)
(-0.554338 0.136969 0)
(-0.365335 0.0460132 0)
(-0.315273 -0.212386 0)
(-0.169194 -0.143974 0)
(-0.135813 -0.155096 0)
(-0.0565118 -0.108559 0)
(-0.0526106 -0.0925765 0)
(0.000117237 -0.06529 0)
(-0.0140776 -0.0476582 0)
(0.0244649 -0.0326683 0)
(0.00167559 -0.0192983 0)
(0.0316347 -0.0114583 0)
(0.00506621 -0.00258678 0)
(0.0296321 0.00136827 0)
(0.001591 0.00662689 0)
(0.0229628 0.0084413 0)
(-0.00555934 0.0108896 0)
(0.0143128 0.0113994 0)
(0.0307137 -0.279964 0)
(0.0940682 -0.281911 0)
(0.156449 -0.286187 0)
(0.221738 -0.292701 0)
(0.287549 -0.2998 0)
(0.356141 -0.312253 0)
(0.427918 -0.32225 0)
(0.502699 -0.337052 0)
(0.581831 -0.352671 0)
(0.665413 -0.369694 0)
(0.755947 -0.384685 0)
(0.85139 -0.40331 0)
(0.954941 -0.417736 0)
(1.06687 -0.428843 0)
(1.19379 -0.430243 0)
(1.33922 -0.438491 0)
(1.48617 -0.398993 0)
(1.62628 -0.297606 0)
(1.7747 -0.115325 0)
(1.92671 0.19542 0)
(1.95247 0.929228 0)
(1.71527 2.04472 0)
(0.844331 3.15986 0)
(0.0297151 -0.341791 0)
(0.0904632 -0.344229 0)
(0.150855 -0.349485 0)
(0.213501 -0.357766 0)
(0.277367 -0.366532 0)
(0.343429 -0.382047 0)
(0.413167 -0.395247 0)
(0.485915 -0.413986 0)
(0.56364 -0.434097 0)
(0.645809 -0.457311 0)
(0.73601 -0.478946 0)
(0.832334 -0.504856 0)
(0.938397 -0.529132 0)
(1.05586 -0.553828 0)
(1.19192 -0.574606 0)
(1.34273 -0.590485 0)
(1.4818 -0.549471 0)
(1.62238 -0.454531 0)
(1.75807 -0.267844 0)
(1.88489 0.16182 0)
(1.93122 1.07322 0)
(1.33728 2.45442 0)
(0.800469 3.298 0)
(0.028465 -0.400761 0)
(0.08594 -0.40368 0)
(0.143806 -0.409844 0)
(0.203084 -0.419888 0)
(0.264408 -0.430349 0)
(0.327207 -0.448802 0)
(0.394201 -0.465388 0)
(0.463965 -0.488366 0)
(0.539456 -0.513296 0)
(0.619241 -0.543009 0)
(0.707749 -0.572104 0)
(0.803199 -0.606775 0)
(0.91067 -0.642368 0)
(1.0302 -0.683698 0)
(1.16676 -0.71872 0)
(1.30298 -0.730059 0)
(1.42211 -0.679816 0)
(1.55009 -0.578539 0)
(1.68137 -0.386538 0)
(1.71957 0.0298727 0)
(1.69969 1.43982 0)
(1.06275 3.44091 0)
(0.802206 3.45296 0)
(0.0270591 -0.456804 0)
(0.0807802 -0.460193 0)
(0.13578 -0.467243 0)
(0.191188 -0.479038 0)
(0.249455 -0.491287 0)
(0.308403 -0.512591 0)
(0.371998 -0.532679 0)
(0.437883 -0.560101 0)
(0.510057 -0.590129 0)
(0.586263 -0.626597 0)
(0.671455 -0.663794 0)
(0.764142 -0.70897 0)
(0.869667 -0.757204 0)
(0.988427 -0.81137 0)
(1.11104 -0.848863 0)
(1.22262 -0.846975 0)
(1.33871 -0.800648 0)
(1.47065 -0.719149 0)
(1.52089 -0.424516 0)
(1.32877 0.204186 0)
(0.666128 1.6805 0)
(1.16613 3.44153 0)
(0.82609 3.45463 0)
(0.0253816 -0.509143 0)
(0.0746395 -0.512957 0)
(0.126226 -0.520793 0)
(0.17702 -0.534149 0)
(0.231542 -0.548124 0)
(0.285812 -0.571986 0)
(0.345153 -0.595471 0)
(0.406056 -0.627148 0)
(0.47364 -0.662393 0)
(0.544667 -0.705203 0)
(0.62492 -0.7509 0)
(0.712769 -0.805854 0)
(0.814585 -0.86793 0)
(0.928315 -0.926164 0)
(1.0257 -0.954317 0)
(1.13169 -0.961077 0)
(1.25306 -0.933108 0)
(1.38529 -0.762938 0)
(1.13303 -0.209011 0)
(0.833112 0.799265 0)
(0.39825 1.64088 0)
(1.2662 3.21649 0)
(1.3059 3.73322 0)
(0.0235332 -0.557362 0)
(0.0680263 -0.561592 0)
(0.115834 -0.570169 0)
(0.161682 -0.584943 0)
(0.211919 -0.600658 0)
(0.261046 -0.626856 0)
(0.315346 -0.653538 0)
(0.370352 -0.689342 0)
(0.432432 -0.72942 0)
(0.496227 -0.778789 0)
(0.571618 -0.832669 0)
(0.649758 -0.899864 0)
(0.750775 -0.9738 0)
(0.84219 -1.02393 0)
(0.931425 -1.05466 0)
(1.03713 -1.07881 0)
(1.12976 -1.04526 0)
(1.09095 -0.597769 0)
(0.432412 0.149304 0)
(0.20601 0.942102 0)
(0.245965 1.25203 0)
(1.00899 2.49131 0)
(1.82134 3.55756 0)
(0.0214037 -0.601159 0)
(0.0606074 -0.605727 0)
(0.10407 -0.614905 0)
(0.144396 -0.63071 0)
(0.189679 -0.647966 0)
(0.233046 -0.675919 0)
(0.281188 -0.705299 0)
(0.329789 -0.744818 0)
(0.383806 -0.788895 0)
(0.440284 -0.845085 0)
(0.505043 -0.905153 0)
(0.574751 -0.985927 0)
(0.662887 -1.06116 0)
(0.737381 -1.10842 0)
(0.836195 -1.15142 0)
(0.934237 -1.16313 0)
(0.974522 -0.97262 0)
(0.431635 -0.0910144 0)
(-0.142038 0.697661 0)
(-0.170275 0.945509 0)
(-0.0151896 0.878135 0)
(0.306516 1.60817 0)
(1.45955 2.97141 0)
(0.0191684 -0.639811 0)
(0.0528541 -0.644711 0)
(0.0918335 -0.654414 0)
(0.126201 -0.671028 0)
(0.166513 -0.689812 0)
(0.203145 -0.71888 0)
(0.244836 -0.750833 0)
(0.285485 -0.792489 0)
(0.329922 -0.840558 0)
(0.378171 -0.900506 0)
(0.427405 -0.96804 0)
(0.492245 -1.05827 0)
(0.550939 -1.13799 0)
(0.633559 -1.1998 0)
(0.730805 -1.25388 0)
(0.801562 -1.21418 0)
(0.537085 -0.524662 0)
(-0.25813 0.510776 0)
(-0.362784 0.781095 0)
(-0.370438 0.797792 0)
(-0.277952 0.800715 0)
(-0.341757 0.960727 0)
(0.411909 2.28147 0)
(0.0168533 -0.673547 0)
(0.0446412 -0.678766 0)
(0.0789152 -0.688606 0)
(0.106634 -0.70575 0)
(0.141946 -0.725253 0)
(0.170385 -0.754613 0)
(0.20629 -0.787971 0)
(0.23612 -0.830377 0)
(0.273301 -0.881962 0)
(0.307029 -0.943257 0)
(0.345566 -1.01969 0)
(0.392551 -1.11019 0)
(0.4331 -1.20412 0)
(0.517224 -1.28956 0)
(0.587059 -1.31817 0)
(0.614977 -0.974252 0)
(-0.175222 0.0971644 0)
(-0.454174 0.794527 0)
(-0.448941 0.819383 0)
(-0.483912 0.838131 0)
(-0.485642 0.864688 0)
(-0.595701 0.902872 0)
(-0.477789 1.85072 0)
(0.0144582 -0.701621 0)
(0.0368464 -0.707094 0)
(0.0661043 -0.716755 0)
(0.0878617 -0.734406 0)
(0.117493 -0.753976 0)
(0.138411 -0.783617 0)
(0.167603 -0.817009 0)
(0.187074 -0.859896 0)
(0.216973 -0.911798 0)
(0.235649 -0.973161 0)
(0.26946 -1.05359 0)
(0.292508 -1.1469 0)
(0.342908 -1.26419 0)
(0.400023 -1.3553 0)
(0.444699 -1.34512 0)
(0.205427 -0.452335 0)
(-0.593075 0.565791 0)
(-0.463143 0.777052 0)
(-0.535129 0.828494 0)
(-0.492541 0.826475 0)
(-0.532379 0.925848 0)
(-0.575438 0.939019 0)
(-0.590912 1.56643 0)
(0.012129 -0.725141 0)
(0.0299093 -0.730687 0)
(0.0540456 -0.739897 0)
(0.0705811 -0.757343 0)
(0.0939861 -0.776029 0)
(0.10918 -0.80483 0)
(0.131971 -0.836802 0)
(0.145601 -0.8799 0)
(0.169546 -0.930777 0)
(0.181077 -0.996237 0)
(0.209858 -1.0769 0)
(0.216621 -1.1849 0)
(0.283739 -1.31125 0)
(0.330855 -1.39224 0)
(0.251006 -1.12438 0)
(-0.312084 0.0718907 0)
(-0.579567 0.762546 0)
(-0.493203 0.730558 0)
(-0.517477 0.850803 0)
(-0.483142 0.823552 0)
(-0.493739 0.953917 0)
(-0.466029 0.949426 0)
(-0.447592 1.35235 0)
(0.0100892 -0.743846 0)
(0.0243076 -0.749187 0)
(0.0442622 -0.75766 0)
(0.0574446 -0.77455 0)
(0.0761803 -0.792913 0)
(0.0885785 -0.821911 0)
(0.106276 -0.853906 0)
(0.118057 -0.897726 0)
(0.136118 -0.947735 0)
(0.149118 -1.01337 0)
(0.172799 -1.08912 0)
(0.188338 -1.2207 0)
(0.309046 -1.37865 0)
(0.272948 -1.32137 0)
(0.0915236 -0.695731 0)
(-0.485105 0.378427 0)
(-0.499909 0.760228 0)
(-0.500585 0.707124 0)
(-0.49087 0.830424 0)
(-0.460924 0.796541 0)
(-0.442931 0.919379 0)
(-0.377418 0.886242 0)
(-0.327339 1.14518 0)
(0.00881375 -0.759838 0)
(0.0208482 -0.765128 0)
(0.0377078 -0.773335 0)
(0.0488788 -0.789437 0)
(0.0641381 -0.807394 0)
(0.0760355 -0.834923 0)
(0.0918831 -0.866304 0)
(0.105562 -0.90963 0)
(0.126516 -0.961741 0)
(0.161947 -1.03325 0)
(0.279774 -1.12142 0)
(0.378159 -1.3226 0)
(0.237655 -1.39373 0)
(0.146301 -1.18052 0)
(-0.0530964 -0.352501 0)
(-0.528707 0.64898 0)
(-0.420229 0.785066 0)
(-0.496709 0.711973 0)
(-0.43936 0.815045 0)
(-0.428808 0.766787 0)
(-0.38278 0.874571 0)
(-0.315987 0.825904 0)
(-0.257757 1.0065 0)
(0.00768075 -0.77358 0)
(0.0180702 -0.77811 0)
(0.0337252 -0.785773 0)
(0.0485486 -0.800973 0)
(0.0681139 -0.820232 0)
(0.0989763 -0.849887 0)
(0.154789 -0.887227 0)
(0.236016 -0.934353 0)
(0.291185 -1.00737 0)
(0.455332 -1.16891 0)
(0.451729 -1.28148 0)
(0.598472 -1.2033 0)
(0.156842 -1.13652 0)
(0.0862115 -1.03714 0)
(-0.154341 -0.000462867 0)
(-0.527112 0.735823 0)
(-0.366618 0.741752 0)
(-0.488611 0.719626 0)
(-0.401854 0.770484 0)
(-0.413559 0.735804 0)
(-0.349254 0.812175 0)
(-0.296398 0.758298 0)
(-0.231874 0.875499 0)
(0.00883249 -0.786765 0)
(0.0262057 -0.792239 0)
(0.0460135 -0.804751 0)
(0.0742996 -0.824178 0)
(0.0988365 -0.858317 0)
(0.144118 -0.91865 0)
(0.178821 -1.00056 0)
(0.261851 -1.04468 0)
(0.331006 -1.18002 0)
(0.48527 -1.20453 0)
(0.487038 -1.27029 0)
(0.57887 -1.02129 0)
(0.18104 -0.868566 0)
(0.0487696 -0.874219 0)
(-0.186879 0.27108 0)
(-0.478469 0.851895 0)
(-0.381132 0.751869 0)
(-0.475835 0.741219 0)
(-0.401344 0.74231 0)
(-0.402436 0.709232 0)
(-0.336924 0.758567 0)
(-0.285764 0.704604 0)
(-0.222802 0.788475 0)
(-0.00104448 -0.807654 0)
(0.0186661 -0.81372 0)
(0.0161859 -0.834156 0)
(0.0402142 -0.853287 0)
(0.0410728 -0.893723 0)
(0.0734286 -0.931085 0)
(0.0665151 -1.01027 0)
(0.100393 -1.08143 0)
(0.138247 -1.23966 0)
(0.20753 -1.30931 0)
(0.333357 -1.37782 0)
(0.383249 -0.898403 0)
(0.302475 -0.602538 0)
(0.0327504 -0.672408 0)
(-0.397477 0.536735 0)
(-0.521475 0.923526 0)
(-0.458375 0.744266 0)
(-0.500179 0.736998 0)
(-0.423654 0.700111 0)
(-0.410155 0.66994 0)
(-0.341418 0.697106 0)
(-0.292148 0.643826 0)
(-0.231092 0.701712 0)
(-0.0100001 -0.805133 0)
(-0.00889838 -0.809806 0)
(-0.0270938 -0.827295 0)
(-0.0280684 -0.847791 0)
(-0.0438137 -0.891682 0)
(-0.0468206 -0.939575 0)
(-0.0561248 -1.03026 0)
(-0.0630302 -1.11542 0)
(-0.0395686 -1.29097 0)
(-0.0580936 -1.40438 0)
(0.0525266 -1.45134 0)
(-0.0554914 -0.987312 0)
(0.274406 -0.522424 0)
(-0.322183 -0.167734 0)
(-0.71987 0.821857 0)
(-0.605916 0.917232 0)
(-0.583014 0.729605 0)
(-0.51752 0.705545 0)
(-0.463633 0.652234 0)
(-0.412771 0.62522 0)
(-0.351769 0.640033 0)
(-0.295443 0.593061 0)
(-0.240902 0.636682 0)
(-0.015072 -0.788475 0)
(-0.0268563 -0.795745 0)
(-0.0523091 -0.815445 0)
(-0.0648564 -0.835593 0)
(-0.092407 -0.876678 0)
(-0.115619 -0.91794 0)
(-0.153806 -0.996992 0)
(-0.205088 -1.09276 0)
(-0.256459 -1.25023 0)
(-0.364346 -1.3903 0)
(-0.436791 -1.39043 0)
(-0.654387 -1.10675 0)
(-0.620467 -0.344177 0)
(-0.998162 0.341064 0)
(-1.03368 0.81352 0)
(-0.768412 0.788735 0)
(-0.706656 0.65421 0)
(-0.564092 0.617773 0)
(-0.511452 0.594651 0)
(-0.432411 0.5579 0)
(-0.372533 0.57906 0)
(-0.308796 0.533405 0)
(-0.257145 0.5691 0)
(-0.0144762 -0.763351 0)
(-0.0335424 -0.772502 0)
(-0.0664167 -0.78966 0)
(-0.0942253 -0.806903 0)
(-0.133726 -0.841413 0)
(-0.179085 -0.87599 0)
(-0.23453 -0.941567 0)
(-0.322318 -1.01104 0)
(-0.430646 -1.13301 0)
(-0.62773 -1.22257 0)
(-0.821429 -1.16403 0)
(-1.10576 -0.794355 0)
(-1.24517 -0.18145 0)
(-1.25431 0.255664 0)
(-1.07413 0.589882 0)
(-0.833662 0.590977 0)
(-0.71157 0.523336 0)
(-0.589106 0.51083 0)
(-0.513592 0.519275 0)
(-0.439205 0.486398 0)
(-0.376013 0.514939 0)
(-0.313062 0.478041 0)
(-0.263812 0.512201 0)
(-0.0147399 -0.740104 0)
(-0.0429757 -0.742931 0)
(-0.0794683 -0.754895 0)
(-0.116995 -0.767013 0)
(-0.162732 -0.792554 0)
(-0.218998 -0.815421 0)
(-0.285804 -0.855053 0)
(-0.388351 -0.892781 0)
(-0.512824 -0.946503 0)
(-0.732702 -0.991884 0)
(-0.961436 -0.917755 0)
(-1.21554 -0.675836 0)
(-1.25513 -0.199282 0)
(-1.18717 0.167421 0)
(-1.03862 0.388325 0)
(-0.817694 0.422145 0)
(-0.699242 0.408548 0)
(-0.59467 0.417753 0)
(-0.516687 0.443927 0)
(-0.445581 0.419528 0)
(-0.382257 0.451578 0)
(-0.322974 0.421651 0)
(-0.27312 0.454326 0)
(-0.0198358 -0.705611 0)
(-0.0536494 -0.707595 0)
(-0.0940574 -0.715656 0)
(-0.135523 -0.723048 0)
(-0.183349 -0.739395 0)
(-0.244057 -0.751592 0)
(-0.309058 -0.772118 0)
(-0.406604 -0.78219 0)
(-0.510312 -0.788427 0)
(-0.68287 -0.771096 0)
(-0.86488 -0.680292 0)
(-1.05544 -0.497507 0)
(-1.12088 -0.211277 0)
(-1.04756 0.0409857 0)
(-0.922691 0.21694 0)
(-0.755796 0.251977 0)
(-0.654608 0.298168 0)
(-0.569266 0.328994 0)
(-0.495724 0.368268 0)
(-0.42986 0.352822 0)
(-0.370838 0.390349 0)
(-0.316405 0.369897 0)
(-0.269533 0.402177 0)
(-0.019752 -0.666123 0)
(-0.0573484 -0.66787 0)
(-0.0984925 -0.672863 0)
(-0.143038 -0.676504 0)
(-0.191701 -0.684242 0)
(-0.252102 -0.687995 0)
(-0.315941 -0.692957 0)
(-0.402999 -0.688731 0)
(-0.490481 -0.670573 0)
(-0.613332 -0.63326 0)
(-0.726932 -0.546117 0)
(-0.845094 -0.416122 0)
(-0.887904 -0.209794 0)
(-0.85909 -0.0314393 0)
(-0.771489 0.0939733 0)
(-0.669043 0.152376 0)
(-0.606029 0.220633 0)
(-0.530679 0.25798 0)
(-0.47404 0.303044 0)
(-0.411242 0.294651 0)
(-0.36353 0.33636 0)
(-0.311194 0.321092 0)
(-0.270422 0.3533 0)
(-0.0192759 -0.628395 0)
(-0.0564121 -0.628576 0)
(-0.0973085 -0.629913 0)
(-0.140736 -0.629249 0)
(-0.18788 -0.630244 0)
(-0.243889 -0.626297 0)
(-0.302618 -0.621092 0)
(-0.377846 -0.606136 0)
(-0.452401 -0.57784 0)
(-0.545413 -0.53248 0)
(-0.625873 -0.448042 0)
(-0.704465 -0.335171 0)
(-0.735176 -0.197281 0)
(-0.718487 -0.074872 0)
(-0.664925 0.0251326 0)
(-0.60613 0.0871302 0)
(-0.555304 0.158002 0)
(-0.494572 0.197805 0)
(-0.446066 0.246904 0)
(-0.390508 0.243299 0)
(-0.349372 0.288279 0)
(-0.300198 0.277902 0)
(-0.264558 0.310678 0)
(-0.0196257 -0.589906 0)
(-0.0587969 -0.589067 0)
(-0.0994307 -0.588264 0)
(-0.142658 -0.584908 0)
(-0.187406 -0.581072 0)
(-0.238909 -0.571912 0)
(-0.291265 -0.559153 0)
(-0.354836 -0.537176 0)
(-0.416276 -0.503262 0)
(-0.486934 -0.457741 0)
(-0.545458 -0.387488 0)
(-0.594971 -0.304775 0)
(-0.611399 -0.196824 0)
(-0.606531 -0.101326 0)
(-0.573346 -0.0198349 0)
(-0.539421 0.04272 0)
(-0.498789 0.107631 0)
(-0.454222 0.148805 0)
(-0.413305 0.197414 0)
(-0.365835 0.198434 0)
(-0.332445 0.24433 0)
(-0.287392 0.237156 0)
(-0.25763 0.270512 0)
(-0.0192144 -0.549808 0)
(-0.0566266 -0.548422 0)
(-0.0960495 -0.545953 0)
(-0.136796 -0.540679 0)
(-0.179389 -0.53391 0)
(-0.226029 -0.521544 0)
(-0.272975 -0.505075 0)
(-0.326148 -0.479958 0)
(-0.375406 -0.445638 0)
(-0.42889 -0.40199 0)
(-0.470739 -0.339978 0)
(-0.508672 -0.268557 0)
(-0.522804 -0.186058 0)
(-0.523705 -0.112551 0)
(-0.502198 -0.0428537 0)
(-0.483128 0.013007 0)
(-0.448365 0.071525 0)
(-0.418286 0.112992 0)
(-0.380077 0.156887 0)
(-0.341677 0.163339 0)
(-0.313297 0.20804 0)
(-0.273004 0.204069 0)
(-0.247589 0.237376 0)
(-0.0178047 -0.51362 0)
(-0.0532122 -0.511577 0)
(-0.0896494 -0.507825 0)
(-0.127414 -0.500746 0)
(-0.166212 -0.491751 0)
(-0.207979 -0.477304 0)
(-0.249297 -0.459099 0)
(-0.294352 -0.433537 0)
(-0.335246 -0.400731 0)
(-0.378213 -0.361161 0)
(-0.411847 -0.308105 0)
(-0.441484 -0.251556 0)
(-0.451003 -0.182401 0)
(-0.454977 -0.121426 0)
(-0.44055 -0.0612126 0)
(-0.428507 -0.0109085 0)
(-0.40173 0.0418538 0)
(-0.379322 0.0807331 0)
(-0.345505 0.119614 0)
(-0.315916 0.132219 0)
(-0.29145 0.174249 0)
(-0.256722 0.172281 0)
(-0.235204 0.205659 0)
(-0.0170905 -0.478582 0)
(-0.050455 -0.476205 0)
(-0.0849863 -0.471633 0)
(-0.119742 -0.463583 0)
(-0.15519 -0.453297 0)
(-0.192072 -0.437752 0)
(-0.228126 -0.418702 0)
(-0.266225 -0.393173 0)
(-0.299946 -0.36183 0)
(-0.335038 -0.324543 0)
(-0.36033 -0.276858 0)
(-0.383908 -0.228897 0)
(-0.392576 -0.172966 0)
(-0.398086 -0.122685 0)
(-0.388615 -0.0699566 0)
(-0.38134 -0.0254925 0)
(-0.360062 0.0214333 0)
(-0.343186 0.0571896 0)
(-0.314163 0.0922568 0)
(-0.292625 0.109937 0)
(-0.269388 0.147412 0)
(-0.240489 0.148567 0)
(-0.222013 0.180405 0)
(-0.0156521 -0.445696 0)
(-0.0464393 -0.443141 0)
(-0.0779576 -0.438286 0)
(-0.109568 -0.429871 0)
(-0.141368 -0.4193 0)
(-0.174005 -0.403571 0)
(-0.205378 -0.384953 0)
(-0.237796 -0.360837 0)
(-0.265941 -0.332059 0)
(-0.294991 -0.29991 0)
(-0.31574 -0.259492 0)
(-0.335598 -0.218532 0)
(-0.343106 -0.168574 0)
(-0.349027 -0.124908 0)
(-0.342637 -0.0784295 0)
(-0.337831 -0.0391776 0)
(-0.321581 0.00309236 0)
(-0.308264 0.0350978 0)
(-0.284735 0.0682426 0)
(-0.268261 0.0879266 0)
(-0.246697 0.121098 0)
(-0.222991 0.125598 0)
(-0.206983 0.155926 0)
(-0.0143265 -0.416314 0)
(-0.0422492 -0.41359 0)
(-0.0709425 -0.408415 0)
(-0.0993579 -0.399749 0)
(-0.127918 -0.388849 0)
(-0.156822 -0.373206 0)
(-0.184171 -0.354968 0)
(-0.21222 -0.332008 0)
(-0.235947 -0.304766 0)
(-0.260576 -0.274159 0)
(-0.277446 -0.236502 0)
(-0.294247 -0.201141 0)
(-0.300814 -0.159929 0)
(-0.306731 -0.12289 0)
(-0.302589 -0.0816757 0)
(-0.299743 -0.0463144 0)
(-0.286906 -0.0088271 0)
(-0.276738 0.0206051 0)
(-0.257819 0.0513711 0)
(-0.244701 0.0722904 0)
(-0.225456 0.101067 0)
(-0.206566 0.109356 0)
(-0.192011 0.137085 0)
(-0.013036 -0.388777 0)
(-0.0385443 -0.386062 0)
(-0.0644317 -0.380938 0)
(-0.0899727 -0.372351 0)
(-0.115228 -0.361711 0)
(-0.140594 -0.3467 0)
(-0.164097 -0.32954 0)
(-0.188187 -0.308405 0)
(-0.208146 -0.28379 0)
(-0.2289 -0.257768 0)
(-0.243 -0.225961 0)
(-0.257077 -0.194579 0)
(-0.263272 -0.156294 0)
(-0.268996 -0.122707 0)
(-0.266553 -0.0857107 0)
(-0.264637 -0.0545527 0)
(-0.254813 -0.0203179 0)
(-0.246946 0.00629494 0)
(-0.231903 0.0356719 0)
(-0.221154 0.0559538 0)
(-0.20437 0.0822663 0)
(-0.189707 0.0926996 0)
(-0.175976 0.118249 0)
(-0.0116025 -0.364608 0)
(-0.0341725 -0.361964 0)
(-0.0571991 -0.35693 0)
(-0.0797552 -0.348635 0)
(-0.102053 -0.338235 0)
(-0.124317 -0.323939 0)
(-0.144768 -0.307448 0)
(-0.165744 -0.287523 0)
(-0.182801 -0.2642 0)
(-0.200745 -0.238898 0)
(-0.212846 -0.208589 0)
(-0.225347 -0.180585 0)
(-0.230776 -0.148367 0)
(-0.236035 -0.119401 0)
(-0.234497 -0.0864744 0)
(-0.233619 -0.0578878 0)
(-0.226085 -0.0270633 0)
(-0.220063 -0.00213541 0)
(-0.208089 0.024918 0)
(-0.199065 0.0449807 0)
(-0.184986 0.068833 0)
(-0.173141 0.0812576 0)
(-0.160775 0.104018 0)
(-0.0103217 -0.342705 0)
(-0.0305289 -0.340082 0)
(-0.0509194 -0.335142 0)
(-0.0709333 -0.32706 0)
(-0.0904302 -0.317031 0)
(-0.109876 -0.303508 0)
(-0.127441 -0.288086 0)
(-0.145448 -0.269874 0)
(-0.159984 -0.248837 0)
(-0.175124 -0.227232 0)
(-0.185298 -0.201431 0)
(-0.195602 -0.176183 0)
(-0.200656 -0.145724 0)
(-0.205599 -0.118618 0)
(-0.205114 -0.0883168 0)
(-0.204717 -0.0626636 0)
(-0.199003 -0.0341463 0)
(-0.194349 -0.0114185 0)
(-0.184865 0.014312 0)
(-0.177495 0.033178 0)
(-0.165693 0.055878 0)
(-0.156216 0.0689066 0)
(-0.144995 0.0900735 0)
(-0.00899748 -0.323672 0)
(-0.0265324 -0.321204 0)
(-0.0442641 -0.316494 0)
(-0.0616062 -0.308896 0)
(-0.0784566 -0.299312 0)
(-0.0952765 -0.286644 0)
(-0.110369 -0.271948 0)
(-0.125964 -0.254671 0)
(-0.138366 -0.23466 0)
(-0.151513 -0.213304 0)
(-0.16049 -0.188346 0)
(-0.169901 -0.165031 0)
(-0.174455 -0.138675 0)
(-0.178938 -0.114794 0)
(-0.178759 -0.087716 0)
(-0.178901 -0.0638856 0)
(-0.174588 -0.0378588 0)
(-0.17111 -0.0161667 0)
(-0.163617 0.00756028 0)
(-0.157497 0.0259318 0)
(-0.147943 0.0469721 0)
(-0.139989 0.0607234 0)
(-0.130406 0.0800206 0)
(-0.007779 -0.306931 0)
(-0.0230499 -0.304508 0)
(-0.0383649 -0.299887 0)
(-0.053419 -0.292524 0)
(-0.0679009 -0.283254 0)
(-0.0823803 -0.271228 0)
(-0.0952802 -0.257365 0)
(-0.108519 -0.241498 0)
(-0.119115 -0.223307 0)
(-0.130157 -0.204728 0)
(-0.137657 -0.183076 0)
(-0.145292 -0.161844 0)
(-0.149355 -0.136753 0)
(-0.153429 -0.113999 0)
(-0.153891 -0.088476 0)
(-0.154346 -0.0665615 0)
(-0.151229 -0.0421189 0)
(-0.148632 -0.0221294 0)
(-0.142695 0.000455457 0)
(-0.137874 0.0177837 0)
(-0.130042 0.0380625 0)
(-0.123653 0.0516949 0)
(-0.11537 0.0700685 0)
(-0.00655443 -0.292792 0)
(-0.0194002 -0.290513 0)
(-0.0323031 -0.286115 0)
(-0.0449883 -0.27921 0)
(-0.0571783 -0.270379 0)
(-0.0694117 -0.259075 0)
(-0.0802514 -0.245875 0)
(-0.0914995 -0.230628 0)
(-0.100414 -0.213138 0)
(-0.109882 -0.194578 0)
(-0.116495 -0.173403 0)
(-0.123512 -0.153209 0)
(-0.127247 -0.130785 0)
(-0.130991 -0.110164 0)
(-0.131553 -0.0870837 0)
(-0.132262 -0.0664769 0)
(-0.129994 -0.0439012 0)
(-0.128129 -0.0246417 0)
(-0.123583 -0.00357746 0)
(-0.119701 0.0133398 0)
(-0.113532 0.0323189 0)
(-0.10822 0.0461302 0)
(-0.101459 0.0632334 0)
(-0.00541117 -0.280781 0)
(-0.0161028 -0.278519 0)
(-0.0267957 -0.27415 0)
(-0.0373881 -0.267382 0)
(-0.0475358 -0.258736 0)
(-0.0577354 -0.247873 0)
(-0.0668142 -0.235237 0)
(-0.0761413 -0.221048 0)
(-0.0836416 -0.204922 0)
(-0.0914434 -0.188351 0)
(-0.0968646 -0.169453 0)
(-0.102419 -0.150793 0)
(-0.105603 -0.129304 0)
(-0.108856 -0.109428 0)
(-0.109766 -0.0872778 0)
(-0.110672 -0.0678843 0)
(-0.109248 -0.0463646 0)
(-0.108042 -0.0283133 0)
(-0.104622 -0.0081282 0)
(-0.101727 0.00796779 0)
(-0.0968578 0.0263875 0)
(-0.0927314 0.0398786 0)
(-0.087159 0.0564305 0)
(-0.00423729 -0.271263 0)
(-0.0126346 -0.269077 0)
(-0.0210652 -0.264842 0)
(-0.0294773 -0.258387 0)
(-0.0375491 -0.250069 0)
(-0.0457547 -0.239685 0)
(-0.0530494 -0.227532 0)
(-0.0606812 -0.213677 0)
(-0.0668315 -0.197935 0)
(-0.0733766 -0.18125 0)
(-0.0781107 -0.162582 0)
(-0.0831559 -0.144405 0)
(-0.0861301 -0.12454 0)
(-0.0891832 -0.105953 0)
(-0.0901563 -0.0854835 0)
(-0.0912035 -0.066963 0)
(-0.0903228 -0.0467773 0)
(-0.0896057 -0.0292467 0)
(-0.087148 -0.0101721 0)
(-0.0849787 0.00559239 0)
(-0.0813294 0.023008 0)
(-0.0780777 0.0364537 0)
(-0.0737931 0.0521071 0)
(-0.00314509 -0.263757 0)
(-0.00944492 -0.261508 0)
(-0.0157248 -0.257186 0)
(-0.0220538 -0.250696 0)
(-0.0281116 -0.242377 0)
(-0.034327 -0.232161 0)
(-0.0399543 -0.220265 0)
(-0.0458902 -0.207048 0)
(-0.0508376 -0.192206 0)
(-0.0561073 -0.176841 0)
(-0.0599737 -0.159658 0)
(-0.0639673 -0.142537 0)
(-0.0665067 -0.123277 0)
(-0.0691403 -0.105184 0)
(-0.0703483 -0.0852861 0)
(-0.0715537 -0.0675183 0)
(-0.071335 -0.0480188 0)
(-0.0711782 -0.0312962 0)
(-0.0696535 -0.0128373 0)
(-0.0683244 0.00234436 0)
(-0.0657427 0.0193818 0)
(-0.0634683 0.0325478 0)
(-0.0602091 0.0478581 0)
(-0.00207243 -0.258699 0)
(-0.0062396 -0.2565 0)
(-0.0103401 -0.252273 0)
(-0.0145039 -0.245979 0)
(-0.0184516 -0.237847 0)
(-0.0226377 -0.227799 0)
(-0.0264132 -0.21603 0)
(-0.0306092 -0.20274 0)
(-0.0341797 -0.187802 0)
(-0.0382792 -0.172075 0)
(-0.0415935 -0.154841 0)
(-0.0453723 -0.137857 0)
(-0.04803 -0.11951 0)
(-0.0507906 -0.102106 0)
(-0.0522814 -0.0832274 0)
(-0.0537576 -0.0659802 0)
(-0.0540138 -0.0473282 0)
(-0.0542384 -0.0309407 0)
(-0.0533809 -0.0132239 0)
(-0.052567 0.00166287 0)
(-0.0509331 0.0179289 0)
(-0.0494147 0.0309 0)
(-0.0472501 0.0455509 0)
(-0.00121496 -0.255329 0)
(-0.00365593 -0.253106 0)
(-0.00593308 -0.248828 0)
(-0.00829162 -0.242441 0)