/*--------------------------------*- C++ -*----------------------------------*\
| =========                 |                                                 |
| \\      /  F ield         | OpenFOAM: The Open Source CFD Toolbox           |
|  \\    /   O peration     | Version:  2012                                  |
|   \\  /    A nd           | Website:  www.openfoam.com                      |
|    \\/     M anipulation  |                                                 |
\*---------------------------------------------------------------------------*/
FoamFile
{
    version     2.0;
    format      ascii;
    class       volScalarField;
    location    "0.15";
    object      volumeFraction1;
}
// * * * * * * * * * * * * * * * * * * * * * * * * * * * * * * * * * * * * * //

dimensions      [0 0 0 0 0 0 0];


internalField   nonuniform List<scalar> 
2268
(
1
1
1
1
1
1
1
1
1
1
1
1
1
1
1
1
1
1
1
1
1
1
0.942819
1
1
1
1
1
1
1
1
1
1
1
1
1
1
1
1
1
1
1
1
1
1
0.938617
1
1
1
1
1
1
1
1
1
1
1
1
1
1
1
1
1
1
1
1
1
1
0.935002
1
1
1
1
1
1
1
1
1
1
1
1
1
1
1
1
1
1
1
1
1
1
0.93499
1
1
1
1
1
1
1
1
1
1
1
1
1
1
1
1
1
1
1
1
1
1
0.952107
1
1
1
1
1
1
1
1
1
1
1
1
1
1
1
1
1
1
1
1
0.99996
0.999994
0.99627
1
1
1
1
1
1
1
1
1
1
1
1
1
1
1
1
1
1
1
0.995947
0.999999
0.999999
0.999935
1
1
1
1
1
1
1
1
1
1
1
1
1
1
1
1
1
1
1
0.975058
0.973548
1
1
1.41007e-25
1.03859e-24
3.5689e-27
6.53236e-26
3.31178e-29
3.65264e-30
1.24844e-32
1.40451e-34
7.60535e-37
4.68913e-39
2.97282e-41
1.79455e-43
1.19556e-45
7.37709e-48
4.2599e-50
2.07519e-52
7.38017e-55
1.72107e-57
3.81586e-60
2.48406e-23
1.98101e-22
5.56934e-25
9.97191e-24
8.9035e-27
7.7551e-28
3.33301e-30
3.91707e-32
2.35444e-34
1.53174e-36
1.00078e-38
6.15474e-41
4.14502e-43
2.57929e-45
1.49281e-47
7.23768e-50
2.55816e-52
5.92744e-55
6.53677e-58
2.51936e-21
1.72954e-20
4.86387e-23
7.27224e-22
1.17686e-24
7.69892e-26
4.25101e-28
5.20489e-30
3.56125e-32
2.49221e-34
1.71103e-36
1.06194e-38
7.04563e-41
4.21597e-43
2.38806e-45
1.14688e-47
4.02043e-50
9.24558e-53
1.01158e-55
1.23979e-19
8.7681e-19
2.27478e-21
3.07427e-20
8.92373e-23
4.60291e-24
3.27933e-26
4.28372e-28
3.39306e-30
2.63273e-32
1.98157e-34
1.36303e-36
9.67014e-39
6.19601e-41
3.63208e-43
1.75978e-45
6.18991e-48
1.42031e-50
1.55134e-53
5.1179e-18
2.80934e-17
1.16764e-19
8.70728e-19
4.54069e-21
1.87442e-22
1.73555e-24
2.44068e-26
2.2699e-28
1.95667e-30
1.59068e-32
1.12185e-34
7.87433e-37
4.82844e-39
2.77584e-41
1.33997e-43
4.6928e-46
1.07262e-48
1.16514e-51
1.044e-16
6.46937e-16
5.47141e-18
1.63714e-17
1.49871e-19
5.39776e-21
6.46848e-23
1.00737e-24
1.11548e-26
1.11414e-28
1.05202e-30
8.74016e-33
6.86437e-35
4.77301e-37
2.9323e-39
1.45158e-41
5.17994e-44
1.19632e-46
1.31321e-49
2.141e-15
1.00923e-14
3.90937e-16
2.15064e-16
3.45192e-18
1.13829e-19
1.77638e-21
3.10829e-23
4.09642e-25
4.60441e-27
4.69871e-29
3.99331e-31
3.11327e-33
2.08346e-35
1.26977e-37
6.30918e-40
2.25516e-42
5.21793e-45
5.72496e-48
2.22751e-14
1.28985e-13
1.19815e-14
2.14152e-15
5.43407e-17
1.77961e-18
3.63401e-20
7.34127e-22
1.19543e-23
1.64809e-25
2.02472e-27
2.0295e-29
1.84528e-31
1.4452e-33
9.57439e-36
4.95648e-38
1.83263e-40
4.34316e-43
4.88075e-46
1
1
1
1
1
1
1
1
1
1
1
1
1
1
1
1
1
1
0.970002
0.771771
0.36999
0.521616
0.978091
1
1
1
1
1
1
1
1
1
1
1
1
1
1
1
1
1
0.913459
0.475659
0.0846842
0.0149806
0.0119286
0.799621
1
1
1
1
1
1
1
1
1
1
1
1
1
1
1
1
0.903157
0.372476
0.0233402
0.00172061
0.000177708
2.30294e-05
0.234266
1
1
1
1
1
1
1
1
1
1
1
1
1
1
1
0.962696
0.408246
0.016264
3.43772e-05
5.01119e-06
2.35129e-10
2.29852e-05
0.00433215
1
1
1
1
1
1
1
1
1
1
1
1
1
1
1
0.569293
0.0315106
8.52358e-06
1.71054e-09
3.55698e-09
2.3539e-10
2.54881e-05
8.894e-06
1
1
1
1
1
1
1
1
1
1
1
1
1
1
0.785689
0.13872
0.00251934
4.28897e-06
1.71053e-09
2.82243e-10
1.89586e-10
2.27788e-06
9.82881e-08
1
1
1
1
1
1
1
1
1
1
1
1
1
1
0.348009
0.0076789
2.53654e-05
7.36189e-08
4.5657e-10
1.64251e-10
1.89585e-10
1.69842e-10
1.89294e-10
1
1
1
1
1
1
1
1
1
1
1
1
1
0.667572
0.0663499
0.000655444
5.92085e-08
1.28536e-09
7.94921e-11
6.55546e-11
8.10838e-11
6.70854e-11
1.5835e-10
1
1
1
1
1
1
1
1
1
1
1
1
1
0.303429
0.00615601
7.79279e-06
2.3479e-09
2.60136e-12
2.99667e-11
2.10325e-11
2.95273e-11
5.35751e-11
1.63007e-10
1
1
1
1
1
1
1
1
1
0.999996
0.999936
1
0.692037
0.0752791
0.000729879
2.365e-07
2.11715e-13
2.60146e-12
9.29959e-12
5.79118e-12
8.93879e-12
1.81066e-11
8.25829e-11
1
1
1
1
0.999999
0.999995
0.999973
0.999721
0.998247
0.990409
0.965582
0.864494
0.231026
0.0120323
4.74407e-05
1.30166e-24
2.11729e-13
1.52845e-12
2.43986e-12
1.33272e-12
2.16489e-12
3.65055e-12
1.74421e-11
0.998709
0.998401
0.997847
0.996238
0.993699
0.98696
0.972795
0.91291
0.819531
0.628897
0.398248
0.193446
0.0156049
0.00924282
5.3143e-05
1.50722e-24
1.17286e-13
4.39221e-13
5.41547e-13
2.56395e-13
4.23372e-13
5.67324e-13
2.7799e-12
0.80889
0.79261
0.768729
0.714266
0.655122
0.547646
0.422211
0.261285
0.148777
0.0351373
2.38407e-21
2.57951e-31
-6.37785e-24
0.00950182
0.000220263
1.30166e-24
4.02916e-14
9.97701e-14
1.01607e-13
4.1027e-14
6.80483e-14
6.87511e-14
3.51048e-13
0.132786
0.119909
0.102847
0.0699663
0.0419853
0.00477352
-2.828e-22
-2.36618e-31
6.1725e-30
-3.61385e-24
1.25705e-10
9.26915e-12
8.84931e-31
0.0126551
0.000107061
1.50722e-24
9.88428e-15
1.92495e-14
1.59962e-14
5.56052e-15
9.15749e-15
6.97466e-15
3.55968e-14
-1.43249e-39
-5.07443e-38
-7.45469e-38
-3.32944e-35
-7.95506e-34
-5.62955e-32
4.25399e-14
1.09324e-12
2.51753e-11
-4.95571e-30
2.50992e-07
3.36891e-08
5.74665e-27
0.0126541
6.93817e-05
1.30166e-24
1.88825e-15
3.23499e-15
2.1377e-15
6.57605e-16
1.04156e-15
6.05192e-16
2.95693e-15
5.92353e-21
1.01613e-19
5.18552e-18
1.68894e-16
3.69056e-15
5.59353e-14
7.41871e-13
1.01727e-11
1.98626e-10
5.54092e-27
5.18272e-06
2.80393e-05
-1.335e-23
0.00782846
2.46218e-19
3.15045e-17
3.32352e-16
4.75479e-16
2.4765e-16
6.84362e-17
1.00752e-16
4.57596e-17
2.05423e-16
2.13427e-20
6.52261e-19
3.11757e-17
9.17527e-16
1.80441e-14
2.61876e-13
3.6673e-12
5.51484e-11
1.15503e-09
1.86553e-08
2.26296e-05
6.34216e-05
1.93805e-05
3.36765e-35
2.46438e-19
1.47164e-17
5.09431e-17
6.05178e-17
2.49568e-17
6.24532e-18
8.32233e-18
3.02313e-18
1.21131e-17
2.94615e-20
1.28905e-18
5.94203e-17
1.72091e-15
3.78402e-14
7.579e-13
1.40513e-11
1.94684e-10
4.83893e-09
1.50584e-07
3.275e-05
6.34521e-05
3.88054e-05
3.04584e-37
7.48901e-19
4.82011e-18
8.07747e-18
6.17946e-18
2.15946e-18
4.92013e-19
5.86965e-19
1.75121e-19
6.13259e-19
2.51626e-20
1.40429e-18
6.74964e-17
2.10211e-15
5.49007e-14
1.41471e-12
2.94034e-11
4.21229e-10
9.39963e-09
2.24348e-07
1.23437e-05
5.68081e-05
2.08964e-05
3.41026e-35
3.78179e-19
1.76743e-18
2.39264e-18
5.07644e-19
1.58582e-19
3.2679e-20
3.51066e-20
8.80947e-21
2.68033e-20
8.8263e-21
6.35233e-19
3.32757e-17
1.29998e-15
4.80088e-14
1.47739e-12
3.17887e-11
5.27501e-10
1.1768e-08
6.05364e-08
6.05389e-08
4.56345e-06
2.3956e-05
1.33454e-05
6.9702e-20
3.08015e-19
1.51604e-18
3.49155e-20
9.68929e-21
1.81223e-21
1.758e-21
3.84322e-22
1.0145e-21
1.63005e-21
1.18225e-19
5.07303e-18
1.25786e-16
1.97584e-15
1.94528e-14
4.91518e-14
4.58432e-16
4.58518e-16
7.39305e-09
1.05716e-06
1.96158e-06
2.89055e-06
4.6069e-06
7.21162e-07
1.42715e-24
1.03047e-18
2.07844e-21
4.89071e-22
8.31287e-23
7.33091e-23
1.44148e-23
3.32067e-23
3.38359e-25
3.87352e-23
2.02726e-21
6.32631e-20
1.28519e-18
1.73962e-17
1.63925e-16
1.23312e-15
3.38001e-15
9.389e-16
9.39225e-16
9.389e-16
9.39225e-16
2.09534e-07
8.92834e-08
1.61324e-24
3.81644e-19
1.09331e-22
2.02698e-23
3.13434e-24
2.54468e-24
4.63867e-25
9.38697e-25
1.40524e-25
1.86821e-23
1.14799e-21
4.15441e-20
9.86257e-19
1.59316e-17
1.73516e-16
1.24635e-15
5.31485e-15
1.0933e-14
2.30264e-14
9.46906e-14
1.91338e-13
1.9133e-13
2.60222e-09
1.42715e-24
6.3899e-20
5.04939e-24
6.97141e-25
9.71793e-26
7.39687e-26
1.27433e-26
2.29076e-26
1.6791e-28
2.39387e-26
1.60681e-24
6.75531e-23
2.02127e-21
4.69755e-20
9.1575e-19
1.58313e-17
2.44078e-16
3.23508e-15
3.5026e-14
2.70688e-13
1.55265e-12
6.14052e-12
1.02661e-11
1.61324e-24
5.85799e-21
2.00142e-25
2.01624e-26
2.48403e-27
1.80276e-27
2.97222e-28
4.8122e-28
4.47256e-32
5.96751e-30
3.70917e-28
1.4149e-26
3.6879e-25
6.92837e-24
9.64871e-23
1.015e-21
8.16151e-21
5.02776e-20
1.24036e-19
5.97323e-20
5.30968e-22
5.30973e-22
5.30968e-22
2.10135e-20
3.188e-22
6.81747e-27
4.98352e-28
5.30738e-29
3.69683e-29
5.87251e-30
8.69736e-30
3.91499e-37
6.31483e-35
4.79417e-33
2.26381e-31
7.41355e-30
1.78194e-28
3.24566e-27
4.57876e-26
5.06447e-25
4.43879e-24
3.09645e-23
1.7155e-22
7.45119e-22
1.47358e-21
1.69303e-21
1.30538e-21
9.21512e-24
2.04215e-28
1.05475e-29
9.66435e-31
6.38247e-31
9.80627e-32
1.35091e-31
2.85184e-40
4.64082e-38
3.56433e-36
1.70945e-34
5.71581e-33
1.41076e-31
2.6524e-30
3.87711e-29
4.44931e-28
4.02608e-27
2.85486e-26
1.546e-25
6.03676e-25
1.07715e-24
1.20234e-24
5.38832e-25
1.76971e-25
5.24145e-30
1.88253e-31
1.53392e-32
9.2904e-33
1.38661e-33
1.80489e-33
2.36612e-46
3.97064e-44
3.20603e-42
1.65822e-40
6.16825e-39
1.75644e-37
3.96876e-36
7.29079e-35
1.10419e-33
1.39071e-32
1.46222e-31
1.28006e-30
9.30852e-30
5.52779e-29
2.63982e-28
9.85617e-28
2.10781e-27
1.03712e-31
2.75739e-33
2.14326e-34
1.14082e-34
1.66856e-35
2.07836e-35
2.75281e-50
5.93276e-48
6.083e-46
3.93577e-44
1.79844e-42
6.15891e-41
1.63762e-39
3.46207e-38
5.90791e-37
8.21317e-36
9.3428e-35
8.65039e-34
6.43523e-33
3.66895e-32
1.47733e-31
4.76636e-31
3.29452e-30
1.35158e-33
3.20182e-35
2.61253e-36
1.18538e-36
1.7216e-37
2.07057e-37
3.5669e-56
7.36829e-54
7.20606e-52
4.42919e-50
1.91591e-48
6.1906e-47
1.54796e-45
3.06437e-44
4.86653e-43
6.24103e-42
6.46513e-41
5.35776e-40
3.49659e-39
1.7429e-38
6.78027e-38
3.15021e-37
6.84896e-36
1.0446e-35
2.84755e-37
2.71438e-38
1.05274e-38
1.53686e-39
1.79052e-39
4.5307e-64
1.42427e-61
2.16043e-59
2.10429e-57
1.47924e-55
7.99336e-54
3.45954e-52
1.23349e-50
3.70368e-49
9.52403e-48
2.12834e-46
4.18313e-45
7.32617e-44
1.15669e-42
1.67926e-41
2.32286e-40
3.34773e-39
3.04425e-38
1.87171e-39
2.32938e-40
8.11795e-41
1.19982e-41
1.34844e-41
2.6167e-69
8.08148e-67
1.19801e-64
1.13409e-62
7.70021e-61
3.98826e-59
1.63827e-57
5.4727e-56
1.51364e-54
3.51475e-53
6.95675e-52
1.20305e-50
1.93022e-49
3.38228e-48
9.4261e-47
5.20694e-45
3.8633e-43
1.43274e-41
8.88407e-42
1.60514e-42
5.51099e-43
8.29972e-44
8.89424e-44
1.0927e-75
5.05925e-73
1.14039e-70
1.66728e-68
1.78087e-66
1.48198e-64
1.00323e-62
5.68978e-61
2.76934e-59
1.17986e-57
4.47819e-56
1.54171e-54
4.91107e-53
1.48234e-51
4.36464e-50
1.29805e-48
4.08116e-47
1.44816e-45
2.80285e-44
8.68223e-45
3.31439e-45
5.16209e-46
5.17974e-46
4.16604e-80
2.19798e-77
5.64701e-75
9.4174e-73
1.14906e-70
1.09486e-68
8.51429e-67
5.57567e-65
3.15552e-63
1.57954e-61
7.15535e-60
3.00984e-58
1.20833e-56
4.77779e-55
1.92315e-53
8.12738e-52
3.70461e-50
1.85486e-48
5.24983e-47
3.64589e-47
1.75997e-47
2.92986e-48
2.69112e-48
2.26252e-86
1.35075e-83
3.93115e-81
7.43922e-79
1.03494e-76
1.13588e-74
1.038e-72
8.26367e-71
5.99348e-69
4.13661e-67
2.82317e-65
1.96529e-63
1.42287e-61
1.08289e-59
8.66578e-58
7.2659e-56
6.32901e-54
5.64101e-52
5.14545e-50
1.17287e-49
8.20958e-50
1.53491e-50
1.26527e-50
1.09077e-91
9.70231e-89
4.24084e-86
1.21539e-83
2.57812e-81
4.32689e-79
6.01265e-77
7.14532e-75
7.4555e-73
6.98649e-71
5.9993e-69
4.81936e-67
3.69102e-65
2.76035e-63
2.08687e-61
1.69632e-59
1.60447e-57
1.82738e-55
2.48457e-53
2.84844e-52
3.34137e-52
7.46731e-53
5.48229e-53
1.54293e-96
1.74259e-93
9.66443e-91
3.50911e-88
9.41297e-86
1.99216e-83
3.47777e-81
5.16371e-79
6.6802e-77
7.68477e-75
7.99707e-73
7.67144e-71
6.92155e-69
6.03176e-67
5.2271e-65
4.65606e-63
4.41978e-61
4.78155e-59
7.09827e-57
5.29996e-55
1.1794e-54
3.37876e-55
2.23861e-55
2.166e-102
3.17647e-99
2.31068e-96
1.11409e-93
4.02458e-91
1.16552e-88
2.83019e-86
5.94561e-84
1.10768e-81
1.86933e-79
2.91281e-77
4.27691e-75
6.0192e-73
8.2606e-71
1.12091e-68
1.52798e-66
2.12877e-64
3.10414e-62
4.94725e-60
7.64277e-58
3.62844e-57
1.42324e-57
8.82534e-58
3.30189e-109
7.96162e-106
9.63304e-103
7.80141e-100
4.76606e-97
2.33977e-94
9.61556e-92
3.40228e-89
1.05943e-86
2.96063e-84
7.54779e-82
1.78668e-79
3.98906e-77
8.55344e-75
1.78735e-72
3.70698e-70
7.77543e-68
1.68547e-65
3.8334e-63
9.00988e-61
9.88682e-60
5.60161e-60
3.43699e-60
1.67487e-116
6.7478e-113
1.37431e-109
1.88409e-106
1.94898e-103
1.6177e-100
1.12163e-97
6.69281e-95
3.52261e-92
1.67326e-89
7.31262e-87
2.99499e-84
1.16288e-81
4.3271e-79
1.55651e-76
5.49057e-74
1.93013e-71
6.87197e-69
2.49224e-66
9.34009e-64
2.43155e-62
2.07946e-62
1.34598e-62
5.04883e-125
4.2345e-121
1.75396e-117
4.76886e-114
9.59885e-111
1.5347e-107
2.04111e-104
2.3404e-101
2.37078e-98
2.16951e-95
1.82081e-92
1.42756e-89
1.06048e-86
7.60142e-84
5.32021e-81
3.69219e-78
2.56547e-75
1.7969e-72
1.26003e-69
8.90205e-67
5.56649e-65
7.36371e-65
5.355e-65
6.79189e-135
1.41035e-130
1.33643e-126
7.75428e-123
3.15299e-119
9.79021e-116
2.46516e-112
5.29603e-109
1.0135e-105
1.80035e-102
3.07074e-99
5.17061e-96
8.737e-93
1.49656e-89
2.6197e-86
4.73364e-83
8.92645e-80
1.76641e-76
3.68449e-73
7.53971e-70
1.22095e-67
2.52333e-67
2.16905e-67
0.262628
2.01716e-10
3.3597e-10
5.9351e-13
0.379608
0.0176222
9.20446e-08
6.00323e-13
0.263317
0.046969
0.000106097
5.9351e-13
0.0250664
0.0262915
0.00308042
2.75614e-06
3.39452e-05
0.000458468
0.00118669
0.000264391
4.29077e-09
7.52595e-08
9.87929e-11
5.56734e-05
9.88591e-11
9.87929e-11
9.88591e-11
7.16253e-08
1.61567e-10
1.54839e-10
1.40311e-10
1.29501e-10
1.77326e-10
1.76678e-10
1.63761e-10
1.22359e-10
1.05335e-10
9.94993e-11
8.76997e-11
6.04614e-11
2.10562e-11
1.85854e-11
1.47424e-11
9.0609e-12
2.66156e-12
2.29751e-12
1.61785e-12
9.0502e-13
2.53522e-13
2.17369e-13
1.32686e-13
6.98886e-14
1.96311e-14
1.67201e-14
8.77363e-15
4.46581e-15
1.28864e-15
1.0806e-15
4.90408e-16
2.43519e-16
7.33281e-17
5.98551e-17
2.38125e-17
1.14084e-17
3.65479e-18
2.87367e-18
1.0141e-18
4.63958e-19
1.60388e-19
1.20393e-19
3.80887e-20
1.65232e-20
6.1868e-21
4.40708e-21
1.26266e-21
5.18144e-22
2.09415e-22
1.40869e-22
3.69683e-23
1.43717e-23
6.20189e-24
3.93002e-24
9.56021e-25
3.53562e-25
1.60573e-25
9.5799e-26
2.18726e-26
7.73671e-27
3.62763e-27
2.04789e-27
4.42844e-28
1.50658e-28
7.13052e-29
3.84446e-29
7.92437e-30
2.60744e-30
1.22041e-30
6.34097e-31
1.25362e-31
4.01114e-32
1.81933e-32
9.18752e-33
1.75336e-33
5.48442e-34
2.36488e-34
1.16988e-34
2.16985e-35
6.67038e-36
2.68457e-36
1.31053e-36
2.37918e-37
7.22611e-38
2.66903e-38
1.29395e-38
2.31678e-39
6.98582e-40
2.33379e-40
1.12902e-40
2.01038e-41
6.04314e-42
1.80307e-42
8.73317e-43
1.56066e-43
4.69182e-44
1.23654e-44
6.01507e-45
1.08869e-45
3.28188e-46
7.56577e-47
3.70744e-47
6.85728e-48
2.07779e-48
4.15684e-49
2.05832e-49
3.92256e-50
1.19811e-50
2.06749e-51
1.0372e-51
2.05149e-52
6.33756e-53
9.40401e-54
4.78695e-54
9.88721e-55
3.10051e-55
3.96126e-56
2.04453e-56
4.43007e-57
1.41529e-57
1.56965e-58
8.17906e-59
1.86432e-59
6.08679e-60
5.96119e-61
3.10654e-61
7.45097e-62
2.49173e-62
2.21896e-63
1.13834e-63
2.86478e-64
9.82043e-65
8.28833e-66
4.09498e-66
1.07391e-66
3.76924e-67
3.17248e-68
1.47198e-68
3.97548e-69
1.42281e-69
9.11005e-13
2.46448e-12
2.79739e-13
2.38876e-14
8.99139e-16
3.13836e-17
8.52188e-19
2.01218e-20
3.99131e-22
6.36633e-24
8.7241e-26
8.77327e-28
7.79732e-30
5.52251e-32
3.66578e-34
1.93753e-36
7.26844e-39
1.74628e-41
1.97824e-44
1.53747e-11
1.96446e-11
2.61888e-12
2.34765e-13
1.12136e-14
4.76013e-16
1.69508e-17
5.31949e-19
1.42186e-20
3.15469e-22
5.87401e-24
8.91844e-26
1.09768e-27
1.07182e-29
8.12286e-32
4.61467e-34
1.84763e-36
4.67147e-39
5.59881e-42
1.08664e-10
6.904e-11
1.40287e-11
1.42188e-12
9.19087e-14
4.42847e-15
1.55199e-16
4.2247e-18
8.78726e-20
1.454e-21
1.97837e-23
2.23165e-25
2.13752e-27
1.71179e-29
1.07879e-31
5.17786e-34
1.7598e-36
3.82269e-39
5.59879e-42
4.40136e-10
2.22499e-10
3.81331e-11
5.00254e-12
4.23308e-13
2.50871e-14
1.11868e-15
3.70759e-17
9.41903e-19
1.83514e-20
2.78391e-22
3.29535e-24
3.05054e-26
2.19365e-28
1.21552e-30
5.04179e-33
1.48463e-35
2.78526e-38
2.51961e-41
2.21091e-07
8.85251e-10
5.78152e-11
9.01676e-12
6.62766e-13
3.05451e-14
9.99034e-16
2.48222e-17
4.74113e-19
7.22225e-21
8.78898e-23
8.74477e-25
7.08201e-27
4.65553e-29
2.40047e-31
9.45879e-34
2.66017e-36
4.81489e-39
4.20516e-42
9.12237e-06
3.83853e-09
1.34153e-10
1.98043e-11
1.33178e-12
5.32734e-14
1.53547e-15
3.47733e-17
6.37282e-19
9.36909e-21
1.10368e-22
1.03524e-24
7.75898e-27
4.60921e-29
2.14069e-31
7.54255e-34
1.91088e-36
3.1195e-39
2.48093e-42
8.93413e-07
8.93553e-08
3.21765e-10
8.7379e-12
3.54952e-13
1.05347e-14
2.57281e-16
5.16884e-18
8.33657e-20
1.09542e-21
1.17847e-23
1.0438e-25
7.39712e-28
4.19524e-30
1.84576e-32
6.18225e-35
1.48228e-37
2.30028e-40
1.74255e-43
4.8188e-10
1.46656e-09
9.14552e-11
2.2066e-12
5.53026e-14
1.59306e-15
4.28024e-17
9.38583e-19
1.62196e-20
2.22065e-22
2.41656e-24
2.10521e-26
1.4642e-28
8.09195e-31
3.49089e-33
1.14404e-35
2.69414e-38
4.09773e-41
3.04657e-44
4.78275e-11
1.98459e-11
1.96151e-12
1.01604e-13
4.30232e-15
1.46047e-16
3.81205e-18
7.79757e-20
1.24622e-21
1.59757e-23
1.63106e-25
1.35004e-27
8.92216e-30
4.73322e-32
1.95921e-34
6.20571e-37
1.4116e-39
2.08385e-42
1.50278e-45
1.28569e-11
1.88042e-12
1.53322e-13
8.75796e-15
3.69291e-16
1.21062e-17
3.03866e-19
6.06679e-21
9.52578e-23
1.20814e-24
1.2231e-26
1.00417e-28
6.58394e-31
3.45566e-33
1.41485e-35
4.41862e-38
9.90864e-41
1.43831e-43
1.02009e-46
1.64928e-12
1.78061e-13
1.24046e-14
6.47634e-16
2.47586e-17
7.48041e-19
1.73265e-20
3.23953e-22
4.76773e-24
5.73569e-26
5.50885e-28
4.33407e-30
2.72162e-32
1.38006e-34
5.45516e-37
1.65601e-39
3.60851e-42
5.11466e-45
3.54348e-48
1.43432e-13
1.3505e-14
8.24265e-16
3.94243e-17
1.37558e-18
3.89173e-20
8.45346e-22
1.50862e-23
2.12548e-25
2.47503e-27
2.30633e-29
1.77166e-31
1.08802e-33
5.41018e-36
2.09933e-38
6.26067e-41
1.34119e-43
1.86879e-46
1.27342e-49
9.51785e-15
8.3281e-16
4.46719e-17
1.96921e-18
6.22335e-20
1.64096e-21
3.29859e-23
5.55208e-25
7.35353e-27
8.16075e-29
7.23514e-31
5.34436e-33
3.15304e-35
1.5191e-37
5.70855e-40
1.6594e-42
3.4655e-45
4.72899e-48
3.15886e-51
5.06341e-16
4.31032e-17
2.02466e-18
8.38096e-20
2.41215e-21
5.99005e-23
1.12122e-24
1.79422e-26
2.25046e-28
2.39845e-30
2.04006e-32
1.45953e-34
8.3416e-37
3.91666e-39
1.43532e-41
4.08373e-44
8.35513e-47
1.11926e-49
7.34825e-53
2.24959e-17
1.91765e-18
7.6858e-20
3.03208e-21
7.86235e-23
1.84496e-24
3.1874e-26
4.8432e-28
5.70264e-30
5.81491e-32
4.70417e-34
3.24491e-36
1.7826e-38
8.12617e-41
2.88742e-43
8.0225e-46
1.60295e-48
2.10695e-51
1.35903e-54
8.76938e-19
7.50981e-20
2.49009e-21
9.59953e-23
2.2333e-24
5.01255e-26
8.01009e-28
1.1635e-29
1.29048e-31
1.26518e-33
9.77187e-36
6.5235e-38
3.45709e-40
1.53417e-42
5.30077e-45
1.44069e-47
2.81664e-50
3.63571e-53
2.30644e-56
3.03883e-20
2.6576e-21
6.83792e-23
2.65875e-24
5.41238e-26
1.17879e-27
1.72295e-29
2.40814e-31
2.49895e-33
2.36235e-35
1.73371e-37
1.12157e-39
5.71489e-42
2.47103e-44
8.28764e-47
2.20575e-49
4.21912e-52
5.35662e-55
3.34683e-58
9.47317e-22
8.48114e-23
1.72044e-24
6.62953e-26
1.15028e-27
2.48402e-29
3.30794e-31
4.4962e-33
4.3696e-35
4.00624e-37
2.79968e-39
1.7614e-41
8.64709e-44
3.65101e-46
1.19033e-48
3.10612e-51
5.81688e-54
7.2666e-57
4.47266e-60
2.66226e-23
2.43315e-24
3.98434e-26
1.53675e-27
2.14513e-29
4.65561e-31
5.50665e-33
7.40733e-35
6.67088e-37
5.9892e-39
3.96545e-41
2.44038e-43
1.15169e-45
4.76735e-48
1.51056e-50
3.87704e-53
7.11919e-56
8.77831e-59
5.33934e-62
6.76806e-25
6.28044e-26
8.51404e-28
3.30497e-29
3.78733e-31
8.14978e-33
8.22228e-35
1.11751e-36
9.28118e-39
8.24074e-41
5.16919e-43
3.12865e-45
1.42072e-47
5.78325e-50
1.78216e-52
4.50584e-55
8.11176e-58
9.87266e-61
5.93061e-64
1.55292e-26
1.45497e-27
1.67376e-29
6.55397e-31
6.29908e-33
1.35523e-34
1.14824e-36
1.5531e-38
1.14346e-40
1.02382e-42
6.01575e-45
3.62216e-47
1.57586e-49
6.35359e-52
1.9023e-54
4.76038e-57
8.41037e-60
1.01318e-62
6.00992e-66
3.21819e-28
3.02864e-29
3.03257e-31
1.19823e-32
9.88536e-35
2.13389e-36
1.5506e-38
2.09038e-40
1.33562e-42
1.19513e-44
6.5061e-47
3.93704e-49
1.63822e-51
6.5773e-54
1.9135e-56
4.75406e-59
8.24945e-62
9.86335e-65
5.79451e-68
6.00982e-30
5.66115e-31
5.04909e-33
2.01299e-34
1.45778e-36
3.16319e-38
2.01285e-40
2.70861e-42
1.52918e-44
1.35975e-46
6.62222e-49
3.99952e-51
1.55773e-53
6.29631e-56
1.76967e-58
4.39473e-61
7.47769e-64
8.90601e-67
5.19312e-70
1.01005e-31
9.51181e-33
7.7285e-35
3.10922e-36
2.0206e-38
4.40965e-40
2.5081e-42
3.37243e-44
1.7098e-46
1.51621e-48
6.67816e-51
4.02767e-53
1.44472e-55
5.82426e-58
1.56592e-60
3.90482e-63
6.51338e-66
7.74862e-69
4.48854e-72
1.52663e-33
1.43734e-34
1.08599e-36
4.41054e-38
2.62403e-40
5.7636e-42
2.98642e-44
4.01966e-46
1.85821e-48
1.64793e-50
6.65049e-53
4.00677e-55
1.33927e-57
5.37707e-60
1.36441e-62
3.38934e-65
5.46517e-68
6.4805e-71
3.70386e-74
2.07426e-35
1.95518e-36
1.40089e-38
5.74905e-40
3.1916e-42
7.06246e-44
3.39453e-46
4.58071e-48
1.95939e-50
1.74071e-52
6.52455e-55
3.92571e-57
1.23477e-59
4.94471e-62
1.19428e-64
2.95398e-67
4.6151e-70
5.45354e-73
3.07709e-76
2.53511e-37
2.39825e-38
1.65989e-40
6.89094e-42
3.63209e-44
8.10719e-46
3.6739e-48
4.97927e-50
1.9985e-52
1.78118e-54
6.284e-57
3.77771e-59
1.12807e-61
4.5117e-64
1.04545e-66
2.57635e-69
3.91233e-72
4.60642e-75
2.56742e-78
2.78953e-39
2.65785e-40
1.80869e-42
7.60639e-44
3.86949e-46
8.72466e-48
3.78443e-50
5.1598e-52
1.96977e-54
1.76251e-56
5.92675e-59
3.56203e-61
1.01835e-63
4.07019e-66
9.11276e-69
2.23902e-71
3.3175e-74
3.89112e-77
2.14394e-80
2.76773e-41
2.66813e-42
1.81521e-44
7.74661e-46
3.8622e-48
8.80977e-50
3.7081e-52
5.09409e-54
1.87321e-56
1.68379e-58
5.45834e-61
3.28311e-63
9.06037e-66
3.62052e-68
7.88309e-71
1.93269e-73
2.80574e-76
3.27883e-79
1.78798e-82
2.48192e-43
2.43383e-44
1.68163e-46
7.29686e-48
3.61755e-50
8.35983e-52
3.45818e-54
4.79344e-56
1.71814e-58
1.55214e-60
4.90048e-63
2.95265e-65
7.9288e-68
3.16794e-70
6.74728e-73
1.65137e-75
2.35838e-78
2.74654e-81
1.48437e-84
2.01809e-45
2.02453e-46
1.44189e-48
6.37515e-50
3.18593e-52
7.46905e-54
3.07232e-56
4.30235e-58
1.51957e-60
1.38035e-62
4.28308e-65
2.58765e-67
6.81274e-70
2.72221e-72
5.70154e-75
1.39361e-77
1.96515e-80
2.28165e-83
1.22402e-86
1.49509e-47
1.54149e-48
1.14828e-50
5.18344e-52
2.64512e-54
6.29804e-56
2.60446e-58
3.68835e-60
1.29655e-62
1.18488e-64
3.64264e-67
2.20834e-69
5.74071e-72
2.29439e-74
4.74838e-77
1.1594e-79
1.61959e-82
1.87549e-85
1.00022e-88
1.01472e-49
1.07885e-50
8.52728e-53
3.93658e-54
2.07652e-56
5.02607e-58
2.11088e-60
3.0256e-62
1.06819e-64
9.82616e-67
3.01468e-69
1.83514e-71
4.74077e-74
1.89581e-76
3.89397e-79
9.50088e-82
1.31866e-84
1.52378e-87
8.09062e-91
6.3454e-52
6.97581e-53
5.93269e-55
2.804e-56
1.54681e-58
3.80821e-60
1.63983e-62
2.38017e-64
8.51001e-67
7.88326e-69
2.42958e-71
1.48563e-73
3.83633e-76
1.53552e-78
3.14303e-81
7.66564e-84
1.05998e-86
1.22292e-89
6.47362e-93
3.67785e-54
4.19172e-55
3.88631e-57
1.88201e-58
1.09753e-60
2.74948e-62
1.22455e-64
1.80049e-66
6.56836e-69
6.12969e-71
1.90906e-73
1.17295e-75
3.04366e-78
1.21991e-80
2.49779e-83
6.09236e-86
8.41462e-89
9.69892e-92
5.12576e-95
1.98891e-56
2.35636e-57
2.40986e-59
1.19653e-60
7.44934e-63
1.89903e-64
8.81873e-67
1.31359e-68
4.92299e-71
4.62924e-73
1.46495e-75
9.04526e-78
2.36982e-80
9.51599e-83
1.95594e-85
4.77364e-88
6.60227e-91
7.60825e-94
4.01988e-97
1.01059e-58
1.24836e-59
1.42255e-61
7.24763e-63
4.85856e-65
1.26043e-66
6.14697e-69
9.27531e-71
3.59294e-73
3.40478e-75
1.10026e-77
6.82781e-80
1.81384e-82
7.30129e-85
1.51154e-87
3.69363e-90
5.12814e-93
5.91315e-96
3.12792e-99
4.8635e-61
6.28298e-62
8.04339e-64
4.2086e-65
3.0597e-67
8.0781e-69
4.16317e-71
6.36241e-73
2.56118e-75
2.44595e-77
8.10836e-80
5.05747e-82
1.36755e-84
5.52187e-87
1.15507e-89
2.82809e-92
3.95115e-95
4.5631e-98
2.42007e-101
2.23554e-63
3.02967e-64
4.38433e-66
2.35847e-67
1.87008e-69
5.02573e-71
2.7513e-73
4.25797e-75
1.78952e-77
1.72234e-79
5.88125e-82
3.68757e-84
1.01845e-86
4.12803e-89
8.75161e-92
2.14864e-94
3.02783e-97
3.50566e-100
1.86667e-103
9.91002e-66
1.41245e-66
2.32029e-68
1.28444e-69
1.11545e-71
3.05207e-73
1.78222e-75
2.79275e-77
1.23023e-79
1.19331e-81
4.21288e-84
2.65586e-86
7.51536e-89
3.06023e-91
6.59467e-94
1.62485e-96
2.31456e-99
2.68916e-102
1.43941e-105
4.27772e-68
6.42531e-69
1.20085e-70
6.84776e-72
6.53071e-74
1.82002e-75
1.13713e-77
1.80418e-79
8.35665e-82
8.17026e-84
2.99188e-86
1.89703e-88
5.51531e-91
2.25811e-93
4.95983e-96
1.22745e-98
1.7709e-101
2.06641e-104
1.11295e-107
1.81119e-70
2.86858e-71
6.09753e-73
3.58348e-74
3.75616e-76
1.06637e-77
7.14086e-80
1.14705e-81
5.59851e-84
5.51785e-86
2.10111e-88
1.34046e-90
4.01283e-93
1.65322e-95
3.70944e-98
9.22731e-101
1.35019e-103
1.58303e-106
8.58283e-110
)
;

boundaryField
{
    leftWall
    {
        type            zeroGradient;
    }
    rightWall
    {
        type            zeroGradient;
    }
    lowerWall
    {
        type            zeroGradient;
    }
    atmosphere
    {
        type            inletOutlet;
        inletValue      uniform 0;
        value           nonuniform List<scalar> 
46
(
0
0
0
0
0
0
0
0
0
0
0
0
0
0
0
0
0
0
3.68449e-73
7.53971e-70
1.22095e-67
2.52333e-67
2.16905e-67
3.17248e-68
1.47198e-68
3.97548e-69
1.42281e-69
1.81119e-70
2.86858e-71
6.09753e-73
3.58348e-74
3.75616e-76
1.06637e-77
7.14086e-80
1.14705e-81
5.59851e-84
5.51785e-86
2.10111e-88
1.34046e-90
4.01283e-93
1.65322e-95
3.70944e-98
9.22731e-101
1.35019e-103
1.58303e-106
8.58283e-110
)
;
    }
    defaultFaces
    {
        type            empty;
    }
}


// ************************************************************************* //
