/*--------------------------------*- C++ -*----------------------------------*\
| =========                 |                                                 |
| \\      /  F ield         | OpenFOAM: The Open Source CFD Toolbox           |
|  \\    /   O peration     | Version:  2012                                  |
|   \\  /    A nd           | Website:  www.openfoam.com                      |
|    \\/     M anipulation  |                                                 |
\*---------------------------------------------------------------------------*/
FoamFile
{
    version     2.0;
    format      ascii;
    class       volScalarField;
    location    "0.84";
    object      minKappa;
}
// * * * * * * * * * * * * * * * * * * * * * * * * * * * * * * * * * * * * * //

dimensions      [0 0 0 0 0 0 0];


internalField   nonuniform List<scalar> 
2268
(
8.83268e-07
1.92235e-06
3.00364e-06
3.97383e-06
4.74984e-06
5.32389e-06
5.72575e-06
5.96591e-06
6.05498e-06
6.04742e-06
5.89887e-06
5.66298e-06
5.31938e-06
4.93109e-06
4.3991e-06
3.78725e-06
2.95981e-06
2.04626e-06
1.06755e-06
4.35369e-07
8.83622e-07
8.46146e-07
9.41368e-07
8.83268e-07
1.92235e-06
3.00364e-06
3.97383e-06
4.74984e-06
5.32389e-06
5.72575e-06
5.96591e-06
6.05498e-06
6.04742e-06
5.89887e-06
5.66298e-06
5.31938e-06
4.93109e-06
4.3991e-06
3.78725e-06
2.95981e-06
2.04626e-06
1.06755e-06
4.35369e-07
8.83622e-07
8.46146e-07
9.41368e-07
1.33613e-06
2.16804e-06
3.16626e-06
4.08994e-06
4.84148e-06
5.40248e-06
5.79399e-06
6.02494e-06
6.11176e-06
6.09022e-06
5.93228e-06
5.69666e-06
5.36535e-06
4.98279e-06
4.46712e-06
3.86079e-06
3.07527e-06
2.20433e-06
1.345e-06
8.75087e-07
1.14508e-06
1.06421e-06
1.07845e-06
1.88664e-06
2.53379e-06
3.42826e-06
4.28583e-06
4.99607e-06
5.528e-06
5.89629e-06
6.10909e-06
6.18544e-06
6.15236e-06
5.98572e-06
5.75199e-06
5.43493e-06
5.06297e-06
4.58899e-06
4.00575e-06
3.29389e-06
2.48221e-06
1.7538e-06
1.40679e-06
1.57137e-06
1.52264e-06
1.55501e-06
2.48091e-06
2.98614e-06
3.77954e-06
4.55725e-06
5.21235e-06
5.71054e-06
6.05112e-06
6.23671e-06
6.29233e-06
6.24129e-06
6.06567e-06
5.83694e-06
5.53743e-06
5.18254e-06
4.75517e-06
4.20695e-06
3.58557e-06
2.85858e-06
2.27621e-06
2.04842e-06
2.18679e-06
2.154e-06
2.22324e-06
3.11611e-06
3.51164e-06
4.21032e-06
4.90621e-06
5.49785e-06
5.94674e-06
6.24357e-06
6.38912e-06
6.4217e-06
6.35608e-06
6.16163e-06
5.93341e-06
5.64314e-06
5.32545e-06
4.96456e-06
4.46943e-06
3.94814e-06
3.33291e-06
2.90018e-06
2.84414e-06
2.90493e-06
2.91862e-06
3.18022e-06
3.7843e-06
4.0997e-06
4.70972e-06
5.30759e-06
5.82101e-06
6.21855e-06
6.4719e-06
6.5757e-06
6.57954e-06
6.48805e-06
6.28165e-06
6.05399e-06
5.78672e-06
5.52552e-06
5.23032e-06
4.79487e-06
4.36748e-06
3.88472e-06
3.66449e-06
3.77859e-06
3.58989e-06
3.66967e-06
4.39635e-06
4.50815e-06
4.76763e-06
5.31296e-06
5.84357e-06
6.28273e-06
6.60275e-06
6.7696e-06
6.79795e-06
6.76484e-06
6.65651e-06
6.41462e-06
6.1718e-06
5.92303e-06
5.73831e-06
5.51317e-06
5.15781e-06
4.83307e-06
4.52254e-06
4.51842e-06
4.82893e-06
4.25514e-06
4.34518e-06
5.94208e-06
2.48104e-05
5.32758e-05
0.000175013
0.00022566
0.000146849
0.000152848
0.000217719
0.000296838
0.000414596
0.000507838
0.000508754
0.000284215
0.000148696
0.000125944
4.30372e-05
4.33966e-05
2.80587e-05
1.62491e-05
6.41209e-06
2.48104e-05
5.32758e-05
0.000161521
0.000199022
0.000146514
0.000152848
0.000217719
0.000296838
0.000414596
0.000507838
0.000508754
0.000153868
4.73643e-05
0.000125944
4.30372e-05
4.33966e-05
2.80587e-05
1.35621e-05
6.41209e-06
3.21372e-05
4.55755e-05
7.97698e-05
0.000137817
0.000146514
0.000160225
0.00049755
0.000668283
0.000631676
0.000447597
0.000239608
4.13554e-05
2.49196e-05
3.33787e-05
8.2576e-05
0.000163131
6.97408e-05
1.35621e-05
6.82697e-06
4.20801e-05
4.38083e-05
7.05351e-05
0.000116669
0.000112725
0.000121776
0.000305351
0.000347457
0.000278117
0.00029292
6.44107e-05
3.25922e-05
2.49196e-05
3.33787e-05
4.37643e-05
2.81082e-05
2.13223e-05
1.06887e-05
5.22644e-06
5.0326e-05
4.38083e-05
7.05351e-05
0.000116669
6.13694e-05
1.596e-05
0.00011481
0.000220784
0.000151903
0.000179596
4.35175e-05
3.25922e-05
3.9828e-05
3.96622e-05
4.37643e-05
2.81082e-05
1.64527e-05
8.81937e-06
4.03308e-06
5.73898e-05
5.69706e-05
0.000190022
0.000217527
6.13694e-05
1.596e-05
1.95036e-05
0.000118688
9.41855e-05
5.54075e-05
4.18486e-05
5.41843e-05
0.000171916
0.000149081
7.02399e-05
2.84468e-05
1.64527e-05
8.81937e-06
3.83844e-06
6.20815e-05
0.000120126
0.000304866
0.000147077
0.000103723
2.09928e-05
1.64618e-05
6.02794e-05
6.64377e-05
3.09815e-05
4.18486e-05
9.97434e-05
0.000107883
0.000169942
8.72424e-05
0.000110856
4.22371e-05
1.01084e-05
3.83844e-06
6.5086e-05
0.000156161
0.000324451
0.000147077
0.000187875
6.0418e-05
1.64618e-05
3.99548e-05
2.38709e-05
3.09815e-05
4.56748e-05
5.3402e-05
9.16736e-05
0.000175911
8.72424e-05
0.00012297
6.64459e-05
1.73412e-05
6.29626e-06
8.25397e-06
8.57791e-06
9.27738e-06
9.94669e-06
1.05065e-05
1.09063e-05
1.10568e-05
1.10001e-05
1.08739e-05
1.06326e-05
1.01858e-05
9.77388e-06
9.46391e-06
9.30113e-06
9.08739e-06
8.69079e-06
8.40097e-06
8.20467e-06
8.57568e-06
9.81709e-06
1.16516e-05
1.51285e-05
1.21104e-05
1.96759e-05
1.94818e-05
1.87507e-05
1.73314e-05
1.6894e-05
1.67424e-05
1.64576e-05
1.70463e-05
1.84667e-05
1.93867e-05
1.81021e-05
1.61752e-05
1.50448e-05
1.5656e-05
1.68234e-05
1.6538e-05
1.55829e-05
1.55558e-05
1.735e-05
3.23583e-05
0.000115264
7.0851e-05
3.1338e-05
0.00012591
0.00011496
8.61247e-05
5.77508e-05
4.72088e-05
4.82128e-05
5.77797e-05
7.93553e-05
0.000105179
0.000126397
0.000112483
8.06274e-05
6.8356e-05
6.936e-05
6.27766e-05
4.92797e-05
3.48899e-05
3.10482e-05
3.71078e-05
0.000133394
0.000314948
9.58887e-05
4.36795e-05
0.00058993
0.000773093
0.000738127
0.000622924
0.000528798
0.000522158
0.000561095
0.000579545
0.000561508
0.000639661
0.000619869
0.000463344
0.000360856
0.000318638
0.000278716
0.000222645
0.000196443
0.000207971
0.000234575
0.000367354
0.000494033
0.000336207
7.39005e-05
0.00153883
0.00183082
0.00154885
0.0011232
0.000959368
0.000915641
0.00102047
0.00133087
0.00124375
0.00136375
0.00113327
0.00105333
0.000530915
0.000116666
0.000116666
0.000177815
0.000280749
0.000336712
0.000442267
0.000506888
0.000591743
0.000376409
8.35151e-05
0.0026036
0.00200285
0.00181896
0.0014473
0.00123778
0.00123385
0.00146781
0.00199158
0.00162254
0.00110785
0.00100828
0.00100363
0.001078
0.000803744
0.000407186
0.000334649
0.000316259
0.000316259
0.000347431
0.00043917
0.000517735
0.00045056
0.000177076
0.00304796
0.00214081
0.00180618
0.00149461
0.00164669
0.00171475
0.00173068
0.00150356
0.00153893
0.00116321
0.00101046
0.000986699
0.000986699
0.00107171
0.00109033
0.000799816
0.000614938
0.000470104
0.000577794
0.000661486
0.0007308
0.000604321
0.000442319
0.00340983
0.00227511
0.00144745
0.00126713
0.00144308
0.00155733
0.00156849
0.00142922
0.00150471
0.00145078
0.00121402
0.00108213
0.00103905
0.0011794
0.0011794
0.00125605
0.00109437
0.000871314
0.00091267
0.00101241
0.00104088
0.000966612
0.000669113
0.00359644
0.0024858
0.00146038
0.00124504
0.00108309
0.000957747
0.000895067
0.000862279
0.0010594
0.00125832
0.00134809
0.00134763
0.00126783
0.00124114
0.00119925
0.00114001
0.00115001
0.00114305
0.000936637
0.000884512
0.000884512
0.000935451
0.000780233
0.0035677
0.00269759
0.00165294
0.00106505
0.000729855
0.000494609
0.000368882
0.000368882
0.000468003
0.000710122
0.000803152
0.000943798
0.00103545
0.00107993
0.00115865
0.00109002
0.0010782
0.00102334
0.000916487
0.00078748
0.000767634
0.000761215
0.000570274
0.00310296
0.00258944
0.00192675
0.00136893
0.000945244
0.000665593
0.000491602
0.000457298
0.000544292
0.000477394
0.00042994
0.000525514
0.000630618
0.00064588
0.000720574
0.000835843
0.000929019
0.000882416
0.000761934
0.000734865
0.000734199
0.000719493
0.000522562
0.00253657
0.0024283
0.00198915
0.00161246
0.00130235
0.000975987
0.000769768
0.000681616
0.000541403
0.000435522
0.000429048
0.000407395
0.00039
0.000361641
0.000392316
0.000453531
0.00048879
0.000572779
0.000710105
0.000839358
0.000770233
0.000719493
0.000630113
0.00206275
0.00204652
0.00188869
0.00160346
0.00135585
0.00113669
0.000960229
0.000813877
0.000672312
0.000526713
0.000403643
0.000316676
0.000304699
0.000308551
0.000309906
0.000273954
0.000244561
0.000244561
0.000360528
0.000493443
0.000568
0.000627083
0.000524916
0.00171452
0.00169699
0.00162181
0.00147965
0.00131529
0.0011281
0.000957715
0.000803876
0.000662015
0.000531968
0.000427738
0.000353819
0.000304699
0.000265183
0.000229794
0.00023173
0.000231516
0.000215789
0.000263334
0.000302399
0.000318331
0.000382441
0.000371597
0.00146061
0.00144425
0.00137158
0.00127093
0.00116445
0.00101733
0.000872382
0.000744464
0.000630966
0.000526194
0.000433708
0.000348525
0.000279015
0.000229488
0.000187283
0.000168005
0.000151065
0.000151065
0.000186792
0.000275224
0.000312229
0.000350755
0.000309085
0.0012724
0.00125908
0.00119533
0.00111071
0.00101906
0.000903215
0.00078037
0.000665528
0.00056456
0.000473614
0.000389219
0.000307955
0.000237113
0.00017714
0.000120375
0.000103003
0.000123666
0.000151827
0.000185683
0.000207926
0.000233065
0.000268651
0.000267059
0.00113272
0.0011212
0.00106627
0.000998118
0.000905443
0.000805005
0.000701277
0.000602151
0.000511956
0.000427794
0.000345541
0.000262362
0.00018359
0.000116818
7.1123e-05
4.27653e-05
7.78731e-05
0.00010736
0.000155914
0.000212867
0.000254851
0.000286864
0.000238919
0.00102834
0.00101786
0.000971325
0.000912095
0.000834529
0.000749337
0.000658433
0.000567578
0.000480414
0.000397734
0.000317803
0.000239239
0.000162949
8.99901e-05
3.56868e-05
3.56134e-05
4.25962e-05
8.92373e-05
0.000129725
0.000168574
0.000207598
0.000246409
0.000225347
0.000951349
0.000941472
0.000901792
0.000844896
0.00077677
0.000701649
0.000621561
0.000540065
0.000459539
0.000380677
0.000303277
0.000227355
0.000155769
9.40794e-05
6.01343e-05
3.56134e-05
7.33375e-05
0.000114711
0.000159931
0.000203247
0.000239886
0.00026933
0.000223869
0.00089508
0.000885599
0.000850107
0.000800943
0.000742062
0.000676559
0.000605883
0.000533316
0.000460633
0.000389481
0.000320535
0.0002549
0.000195074
0.000145157
9.59293e-05
8.13826e-05
0.000106931
0.000134438
0.00016516
0.000198608
0.000230495
0.000259466
0.000221656
0.000855877
0.000843959
0.00081041
0.000767696
0.000716119
0.000658271
0.000595281
0.000529687
0.000463078
0.000397353
0.000334207
0.000275842
0.000225695
0.000186093
0.000150743
0.00013774
0.000149462
0.00017462
0.000205131
0.000235965
0.000263136
0.00028744
0.000234192
0.000829419
0.000816053
0.000787143
0.000749788
0.000704558
0.000653797
0.000598762
0.000541937
0.000484556
0.000428409
0.000374866
0.000325911
0.00027655
0.000234628
0.000206836
0.000195568
0.000201713
0.000218874
0.000242718
0.000268385
0.000292015
0.00031423
0.000260752
0.000812462
0.000797685
0.000772897
0.000740444
0.000700997
0.000656061
0.000606721
0.000555112
0.000502579
0.000451436
0.000403242
0.000360494
0.00032318
0.000287668
0.000264244
0.000252579
0.000254438
0.000265867
0.000284492
0.000307972
0.000332019
0.0003565
0.000310064
0.000803198
0.000790355
0.000769514
0.000741045
0.000706407
0.000667228
0.000625135
0.000581595
0.000537755
0.000495177
0.000451842
0.000409434
0.00037227
0.00034165
0.000321888
0.000311367
0.000312517
0.000322094
0.000339906
0.000364467
0.000392283
0.000424374
0.000373726
0.000802391
0.000789923
0.000771889
0.000747767
0.000718054
0.000683379
0.000645449
0.000605841
0.000566127
0.000527878
0.00049199
0.000457093
0.000425402
0.000399485
0.000382781
0.000374701
0.000377306
0.000389845
0.000411704
0.000442865
0.000479088
0.000515652
0.000429923
0.000809316
0.000798529
0.000782443
0.00076119
0.000735769
0.000706775
0.000675836
0.000643587
0.000608193
0.000573398
0.000538241
0.000507331
0.000480259
0.000459601
0.000447606
0.000445134
0.000453789
0.000473785
0.000504463
0.000543847
0.000578417
0.000600338
0.000460218
0.000821218
0.000813495
0.000799718
0.000781174
0.000758761
0.000732974
0.000705281
0.000676443
0.000646447
0.000617214
0.0005875
0.000562318
0.000540651
0.00052651
0.000520979
0.00052657
0.000543518
0.000573861
0.000610859
0.000640158
0.000650336
0.000649542
0.000476225
0.000835908
0.000830356
0.000820252
0.000805251
0.000786498
0.0007649
0.000740502
0.000715638
0.000688932
0.000664489
0.000640149
0.00062088
0.0006057
0.000599797
0.000602916
0.00061879
0.00064627
0.000681605
0.000701055
0.000699579
0.000680531
0.000668479
0.000489803
0.000856624
0.000852366
0.000844138
0.000831436
0.000815753
0.000797724
0.000777818
0.000757415
0.000735947
0.000716815
0.000698751
0.00068657
0.000679679
0.000683517
0.000697183
0.000723937
0.000754052
0.000764597
0.000735854
0.000704451
0.00068263
0.000673501
0.000495421
0.000882706
0.000879514
0.000873095
0.000862903
0.000850426
0.000835866
0.0008201
0.000803737
0.000787486
0.000773625
0.000762477
0.000757747
0.000759609
0.000773317
0.000797083
0.000825064
0.000817258
0.000771483
0.000730454
0.00069991
0.000682462
0.000672741
0.000494647
0.00091437
0.000911942
0.000906943
0.000899032
0.000889558
0.000878566
0.000867116
0.000855403
0.000844924
0.000837125
0.000833337
0.000836599
0.000847789
0.000870549
0.000895707
0.000883045
0.000823774
0.000769133
0.000722249
0.000688929
0.000666265
0.00065095
0.000477717
0.000951354
0.000949694
0.000946141
0.000940568
0.000934026
0.000926512
0.000919328
0.000912305
0.000907742
0.00090572
0.000909244
0.000919696
0.000939807
0.000965826
0.000942852
0.000871556
0.000805475
0.000743939
0.000695798
0.00066094
0.000633511
0.000617526
0.000459808
0.000993392
0.000992349
0.00099004
0.000986688
0.000983014
0.00097905
0.000976166
0.000974024
0.000975243
0.000979241
0.000989399
0.0010068
0.00103126
0.00101719
0.000937583
0.000859461
0.000781582
0.00071283
0.000659787
0.000621807
0.000596533
0.000585245
0.000438622
0.00104128
0.00104092
0.00103986
0.00103866
0.00103764
0.00103697
0.00103784
0.00104011
0.00104631
0.00105555
0.00107118
0.00109261
0.0010882
0.00100457
0.000914789
0.000825568
0.000740023
0.000670717
0.000618821
0.000577063
0.000555937
0.000552106
0.000427133
0.00109311
0.00109358
0.00109389
0.00109475
0.00109641
0.00109907
0.00110362
0.00110988
0.00112049
0.00113383
0.00115264
0.00116809
0.00109039
0.00098986
0.000889953
0.000787814
0.000695584
0.000621521
0.000567997
0.000534133
0.000521815
0.000525907
0.000409476
0.00115253
0.00115325
0.00115434
0.00115691
0.00116083
0.00116607
0.00117316
0.00118215
0.00119526
0.00120973
0.00122692
0.00117435
0.0010664
0.000954918
0.000842169
0.000734194
0.000644161
0.000576167
0.000525031
0.000491703
0.000490248
0.000504964
0.000410996
0.00121367
0.00121493
0.00121746
0.00122191
0.00122787
0.00123573
0.00124534
0.00125703
0.00127174
0.00128506
0.00126842
0.00116493
0.00104328
0.000921244
0.00079795
0.000686313
0.000592438
0.000521583
0.000479078
0.00045861
0.000465268
0.000477417
0.000401723
0.0012851
0.00128657
0.00128926
0.0012937
0.00130082
0.00131007
0.0013206
0.00133285
0.00134429
0.0013465
0.00125975
0.00113156
0.000997592
0.000863874
0.000737533
0.000629188
0.000543449
0.000482982
0.000438882
0.000429402
0.000450865
0.000479031
0.000416879
0.00135425
0.00135616
0.00135948
0.00136524
0.00137397
0.00138433
0.00139614
0.00140783
0.00141423
0.00137283
0.00124968
0.00110649
0.000963558
0.000823568
0.000695245
0.000583379
0.000492677
0.000431932
0.000406797
0.000408047
0.000420065
0.000456421
0.000414915
0.00143831
0.00144026
0.00144354
0.00144866
0.00145597
0.0014652
0.00147502
0.00148057
0.00146132
0.00135538
0.0012078
0.00105296
0.000902218
0.000760495
0.000633902
0.000528745
0.000451648
0.000399835
0.000381101
0.000397573
0.000430274
0.000478253
0.000440618
0.00151376
0.00151578
0.00151916
0.00152433
0.00153237
0.00154204
0.00155005
0.00155102
0.00149557
0.00135675
0.00119309
0.00103065
0.000873775
0.000728087
0.000597929
0.00048768
0.000405905
0.000366503
0.000365244
0.000370698
0.000408996
0.000466274
0.000440693
0.00161268
0.00161473
0.00161818
0.00162327
0.00162967
0.00163479
0.00163447
0.00160608
0.00147672
0.00130523
0.00112913
0.000961103
0.000804403
0.000662365
0.000538812
0.000441256
0.000379036
0.00036236
0.00036236
0.000386153
0.000437925
0.000503861
0.000475132
3.58159e-05
2.82006e-05
1.3922e-05
1.3922e-05
4.69647e-05
1.446e-05
1.446e-05
2.46295e-05
2.76688e-05
2.76688e-05
3.78043e-05
5.5679e-05
4.44757e-05
4.44757e-05
5.55168e-05
6.37195e-05
4.82117e-05
4.82117e-05
5.52182e-05
7.83177e-05
7.0602e-05
7.0602e-05
7.55982e-05
0.000120089
0.00026268
0.00022456
0.000237649
0.000237649
0.000376693
0.00030476
0.000236237
0.000236237
0.000474688
0.000417489
0.000324024
0.000322722
0.000323555
0.000319773
0.000319773
0.000333023
0.000265807
0.000254066
0.000252618
0.000252618
0.000360721
0.000269784
0.000234803
0.000234803
0.000383609
0.000383609
0.000409872
0.000409872
0.000250954
0.000250954
0.000280851
0.000311646
0.000210792
0.000210792
0.000225526
0.000235166
0.000182068
0.000182068
0.00019381
0.000205508
0.000156185
0.000156185
0.000158334
0.000159458
0.000148437
0.000148437
0.000150938
0.000151699
0.000144851
0.000144523
0.000143017
0.000143017
0.000144262
0.000144262
0.000144012
0.000144012
0.000151887
0.000151887
0.00015173
0.00015173
0.000170588
0.000170588
0.000173339
0.0001751
0.000203686
0.000203686
0.000207603
0.000210789
0.000244245
0.000244245
0.000247685
0.000249969
0.000277016
0.000277016
0.000277678
0.000278117
0.000295172
0.000295172
0.000295492
0.000296431
0.000305589
0.000305589
0.000306513
0.000308355
0.000315206
0.000315206
0.000316545
0.000318279
0.000318966
0.000318966
0.000319939
0.00032098
0.000317224
0.000316904
0.000316537
0.000316537
0.000305782
0.000305147
0.000304901
0.000304901
0.000295046
0.000295046
0.000295262
0.000295932
0.000282797
0.000282797
0.000284541
0.000286786
0.000277185
0.000277185
0.000280605
0.000284555
0.000268143
0.000268143
0.000273885
0.000280078
0.000271076
0.000271076
0.00027869
0.000286679
0.000267364
0.000267364
0.000277018
0.000286964
0.000278578
0.000278578
0.000289523
0.000300629
0.000278909
0.000278909
0.000291286
0.00030363
0.000296293
0.000296293
0.000309427
0.000322381
0.000297232
0.000297232
0.000311164
0.0003248
0.000320009
0.000320009
0.000334526
0.000348667
4.77834e-05
0.000187342
0.000373329
0.00017575
0.000391728
0.000153439
3.59381e-05
2.83186e-05
2.38709e-05
4.23846e-05
5.94973e-05
5.3402e-05
7.40855e-05
0.000213532
0.000283181
0.000175092
0.00013041
4.523e-05
4.93492e-05
8.37869e-05
0.000267451
0.00026297
0.00032158
0.00035951
0.000276178
0.000161486
6.0871e-05
4.7291e-05
5.93642e-05
5.68017e-05
5.69255e-05
0.000103611
0.000398408
0.00044124
0.000321741
0.000329803
0.000175344
8.12558e-05
0.000129127
0.000436105
0.00026297
0.000627756
0.000731856
0.000405225
9.2416e-05
6.0871e-05
5.81317e-05
6.36069e-05
5.68017e-05
6.53611e-05
0.000159653
0.000596997
0.000523638
0.000411992
0.000246174
8.7276e-05
8.12558e-05
0.000142719
0.000513679
0.000606253
0.000764695
0.000339258
0.000305664
0.000179747
6.61817e-05
6.80898e-05
0.000115226
0.000163755
0.000150202
0.000508968
0.000521699
0.000323131
0.000201545
0.000191641
0.000145628
9.43311e-05
0.000320838
0.000502112
0.00082366
0.000398346
0.000289887
0.000232148
0.000184783
0.000149489
0.000235495
0.000536887
0.000444622
0.000675275
0.000560009
0.00037341
0.000247573
0.000201545
0.000201788
0.0002509
0.000312612
0.000343044
0.000502112
0.000993093
0.000655884
0.000343348
0.000263372
0.000188198
0.000149489
0.000188867
0.00050192
0.000642913
0.000561824
0.000561824
0.000577787
0.000360484
0.000309542
0.000451583
0.00149745
0.000977854
0.000354911
0.000565785
0.00135331
0.000594451
0.000619457
0.000334756
0.000260588
0.000166003
0.000328416
0.00024495
0.00033758
0.000624932
0.000513936
0.00042692
0.00071186
0.00101992
0.00150373
0.00175353
0.00184319
0.000217666
0.000693588
0.00128642
0.000575311
0.000575311
0.000567264
0.000430149
0.000216524
0.000467101
0.00024495
0.000384429
0.00030613
0.000471434
0.00042692
0.000862238
0.000784961
0.000553437
0.00149501
0.0022611
0.000217666
0.000487749
0.001373
0.000576398
0.000554771
0.000461057
0.000385457
0.000141722
0.000250858
0.000502305
0.00034239
0.00030613
0.00040573
0.000821544
0.000462957
0.000226072
0.000226072
0.00120728
0.00242602
0.000408494
0.000564611
0.000876617
0.000674598
0.0002131
0.000403488
0.000334392
0.000141722
0.000327796
0.000661523
0.000608287
0.000546079
0.000970274
0.00078798
0.000254649
0.000228735
0.000371787
0.00113267
0.00225072
0.000427001
0.000505722
0.000534873
0.000459565
0.000114337
0.000219126
0.00043581
0.000518119
0.000699452
0.00110044
0.0012152
0.00119931
0.00106253
0.000535221
0.000254649
0.00038043
0.000543439
0.00104216
0.00225805
0.000363556
0.000344546
0.000323351
0.00028594
0.000114337
0.000380828
0.000704126
0.00107519
0.00106554
0.00117028
0.00113596
0.001045
0.000662722
0.000498421
0.000318362
0.00052693
0.000552844
0.00102761
0.00196364
0.000581936
0.000425802
0.000405341
0.000382275
0.000284552
0.000724499
0.00108699
0.00111264
0.000923542
0.00082864
0.000692019
0.000678371
0.000504665
0.000568561
0.000480788
0.000654856
0.000667469
0.00107567
0.00186455
0.000567298
0.000716542
0.000720134
0.000616147
0.000729685
0.00101795
0.000977802
0.000924476
0.000637438
0.000414396
0.000362808
0.000490311
0.000504665
0.00062038
0.000652552
0.000786984
0.000774044
0.00110805
0.00173979
0.000407215
0.000582527
0.000678842
0.000731581
0.000747218
0.00078943
0.000738963
0.000617663
0.000318422
0.000271589
0.000271589
0.000409161
0.000532126
0.000722462
0.000786436
0.000869364
0.000845303
0.0010329
0.00153507
0.000363614
0.000439839
0.000443044
0.000445916
0.000418217
0.00044423
0.000450406
0.000323841
0.000314625
0.000312305
0.000427985
0.000564137
0.000685974
0.000826947
0.000868887
0.000913711
0.000844153
0.000914883
0.00130552
0.000266975
0.000307398
0.000270722
0.00023835
0.000188349
0.000260587
0.000359439
0.000407711
0.000383982
0.000543623
0.000670883
0.000741433
0.000829098
0.000903845
0.000896841
0.000871869
0.000775136
0.000801898
0.00110991
0.000252849
0.000265431
0.000203558
0.000112085
0.00011072
0.000183715
0.000316857
0.000465684
0.000666176
0.000745915
0.000823996
0.000870933
0.000918698
0.000916707
0.000844236
0.000787549
0.000685022
0.000688515
0.000935121
0.000234688
0.000237689
0.000138033
8.37829e-05
8.37829e-05
0.000168021
0.000340884
0.000535473
0.00072288
0.000811798
0.000885166
0.000913576
0.000902285
0.000856165
0.000767311
0.000696881
0.000596247
0.000578051
0.00077588
0.000238239
0.00025461
0.000189818
0.00010209
0.000105509
0.00019702
0.000331842
0.000502229
0.00068404
0.000773807
0.000853048
0.000869517
0.000848966
0.000791989
0.000697439
0.000616261
0.000512947
0.000471572
0.00062918
0.000251766
0.000274307
0.000235093
0.000174903
0.000183311
0.000259577
0.000384231
0.000524526
0.000666316
0.000745751
0.000814214
0.000824986
0.000805673
0.000744179
0.000646932
0.000553126
0.000442934
0.000372853
0.000491214
0.000295189
0.000326777
0.000306467
0.000271687
0.0002824
0.000332746
0.000421671
0.000546824
0.000665718
0.000726981
0.000779672
0.000776999
0.000755835
0.000696778
0.000602538
0.000500192
0.000383606
0.000282555
0.000359058
0.000357065
0.000409598
0.000400898
0.000384077
0.000386615
0.000426546
0.000482953
0.000573598
0.000666053
0.000726981
0.00077479
0.000749445
0.000707993
0.000642361
0.000555372
0.000451864
0.000328744
0.000218081
0.000235768
0.000421735
0.000497395
0.000496787
0.000494366
0.000504568
0.000546576
0.000588912
0.000657376
0.000720614
0.000751134
0.00077479
0.000749445
0.000696623
0.000599899
0.000513569
0.000413588
0.000284865
0.000206311
0.000130854
0.000466689
0.000570765
0.000577866
0.000587602
0.000609569
0.000668404
0.000715178
0.000779953
0.000823022
0.00082682
0.000824174
0.000770309
0.000696623
0.000585918
0.000480539
0.000407204
0.000303385
0.000169924
0.000100385
0.000498783
0.000626137
0.000637725
0.000654769
0.000686716
0.000763699
0.000829836
0.000902322
0.000939146
0.000932177
0.000913986
0.00082949
0.000725548
0.000581886
0.000459167
0.000405633
0.000342235
0.000224641
0.000100385
0.000520158
0.000666222
0.000676763
0.000696047
0.000734006
0.00083118
0.000919312
0.00100746
0.00104702
0.00104934
0.00102533
0.00091755
0.000782474
0.000590059
0.000454628
0.000405633
0.00038177
0.00032995
0.000169742
0.000536131
0.000688024
0.000691317
0.000710538
0.000758149
0.000876066
0.000983726
0.00109019
0.00114173
0.00116459
0.00114404
0.00102531
0.000860158
0.000619268
0.000454628
0.00041616
0.00043958
0.000423202
0.000283346
0.000539023
0.000681576
0.000680116
0.000704501
0.000766324
0.000900816
0.00102455
0.00115331
0.00122393
0.00126958
0.00126191
0.00114827
0.000957782
0.000672839
0.000470814
0.000437897
0.000513205
0.000527588
0.000407295
0.000529845
0.000665013
0.00066805
0.000700862
0.000769751
0.000912949
0.00104685
0.00120057
0.0012944
0.00136016
0.00137629
0.0012773
0.00107041
0.000737251
0.000501645
0.00046914
0.000597542
0.000641896
0.000538127
0.00051079
0.000653134
0.000662886
0.000700862
0.00077399
0.000924047
0.00105856
0.00123305
0.00135198
0.00143846
0.00148755
0.00140609
0.0011928
0.000825738
0.00054796
0.000511331
0.000692704
0.000767503
0.00067781
0.000497638
0.000647584
0.000662886
0.000703547
0.000783071
0.000943381
0.0010757
0.00125939
0.00140162
0.00151114
0.00159578
0.00153384
0.00131975
0.000909649
0.000603128
0.000562353
0.000799287
0.00090557
0.000829374
0.000485092
0.000647584
0.000665834
0.000712787
0.000793255
0.00096685
0.00110268
0.00128715
0.00144719
0.00158125
0.00169949
0.00166021
0.00145201
0.00101304
0.0006658
0.000621452
0.000900924
0.00105629
0.000994997
0.000484227
0.000651638
0.000678862
0.00073221
0.000808266
0.00099028
0.00113636
0.00132013
0.00149316
0.00165035
0.00179846
0.00178457
0.00158802
0.00110812
0.000731762
0.000687684
0.00101329
0.00122035
0.00118247
0.000480274
0.000662444
0.000697967
0.000759165
0.000830429
0.00101383
0.00117219
0.00135675
0.00153923
0.00171719
0.00189236
0.00190683
0.00172436
0.00121496
0.00079231
0.000755279
0.00112472
0.0013942
0.00137521
0.000494207
0.000681013
0.000723003
0.000790742
0.000859946
0.00103972
0.00120867
0.00139616
0.00158537
0.00177962
0.00198056
0.00202509
0.00185921
0.00129724
0.000848323
0.000823631
0.00124703
0.00158276
0.00157467
0.000497682
0.000703599
0.0007503
0.000823164
0.000893934
0.00106723
0.00124322
0.00143647
0.00163156
0.00183727
0.00206225
0.00213544
0.00198903
0.00138195
0.000908032
0.000880432
0.00134329
0.00177161
0.00177337
0.000522399
0.000730577
0.000781339
0.000856334
0.000930265
0.00109824
0.00127696
0.00147541
0.00167653
0.0018901
0.00213526
0.00223149
0.00210645
0.00142013
0.000904844
0.00092857
0.00144708
0.00194135
0.00196561
0.000529397
0.000757531
0.000812353
0.000887757
0.000965045
0.0011299
0.00130844
0.00151055
0.00171763
0.00193619
0.00219803
0.00231068
0.00221039
0.00147436
0.000851895
0.000942543
0.00149739
0.00209956
0.00212551
0.000561665
0.000787221
0.000845669
0.000921105
0.00100051
0.00116306
0.00134109
0.00154444
0.00175603
0.0019762
0.00225071
0.00237278
0.00229785
0.00145828
0.000796391
0.000965881
0.00160388
0.00223994
0.00226879
0.000566727
0.000813845
0.000875266
0.000950709
0.00103108
0.00119262
0.00137017
0.0015726
0.00178781
0.00200679
0.00229046
0.00241707
0.00236411
0.00149046
0.000706598
0.000972939
0.00163234
0.00234903
0.00238518
0.000607448
0.000845404
0.00090934
0.000985066
0.00106632
0.00122644
0.00140404
0.00160325
0.00182217
0.00203687
0.00232686
0.00245246
0.0024151
0.00142216
0.000706598
0.000921141
0.00170699
0.00243232
0.00248023
)
;

boundaryField
{
    leftWall
    {
        type            calculated;
        value           uniform 0;
    }
    rightWall
    {
        type            calculated;
        value           uniform 0;
    }
    lowerWall
    {
        type            calculated;
        value           uniform 0;
    }
    atmosphere
    {
        type            calculated;
        value           uniform 0;
    }
    defaultFaces
    {
        type            empty;
    }
}


// ************************************************************************* //
