/*--------------------------------*- C++ -*----------------------------------*\
| =========                 |                                                 |
| \\      /  F ield         | OpenFOAM: The Open Source CFD Toolbox           |
|  \\    /   O peration     | Version:  2012                                  |
|   \\  /    A nd           | Website:  www.openfoam.com                      |
|    \\/     M anipulation  |                                                 |
\*---------------------------------------------------------------------------*/
FoamFile
{
    version     2.0;
    format      ascii;
    class       volScalarField;
    location    "0.84";
    object      p;
}
// * * * * * * * * * * * * * * * * * * * * * * * * * * * * * * * * * * * * * //

dimensions      [1 -1 -2 0 0 0 0];


internalField   nonuniform List<scalar> 
2268
(
102373
102370
102364
102356
102345
102332
102320
102307
102297
102289
102280
102274
102267
102263
102257
102253
102243
102237
102216
102204
102177
102168
102163
102313
102311
102305
102298
102287
102274
102262
102249
102239
102231
102222
102215
102209
102204
102198
102194
102185
102178
102158
102146
102119
102110
102103
102251
102249
102244
102237
102226
102213
102200
102187
102178
102170
102161
102155
102148
102143
102137
102134
102124
102118
102096
102084
102053
102043
102038
102190
102189
102186
102179
102169
102157
102144
102130
102121
102113
102104
102097
102091
102085
102080
102076
102067
102060
102040
102025
101995
101984
101978
102125
102124
102122
102115
102105
102091
102080
102066
102058
102049
102040
102034
102026
102023
102017
102014
102003
101998
101973
101960
101918
101908
101901
102062
102063
102063
102061
102052
102039
102026
102009
102000
101995
101986
101978
101972
101964
101961
101957
101949
101941
101919
101898
101857
101846
101839
101991
101993
101995
101992
101984
101968
101959
101941
101935
101926
101918
101912
101902
101901
101894
101894
101882
101878
101847
101825
101760
101752
101734
101924
101930
101939
101942
101936
101920
101906
101883
101877
101877
101866
101859
101851
101842
101840
101835
101829
101821
101795
101761
101696
101680
101674
103293
102798
102397
102170
102140
102100
101969
101920
101904
101909
101989
102412
102507
102212
102100
102084
102164
102250
102379
103213
102699
102309
102101
102087
102065
101907
101875
101869
101881
101914
102316
102424
102204
102189
102074
102082
102172
102305
102932
102491
102167
102000
102001
101981
101884
101869
101867
101869
101920
102246
102321
102115
102021
101989
102057
102109
102237
102722
102332
102013
101903
101993
101969
101879
101866
101865
101868
101871
102090
102088
101927
102030
102004
102026
102093
102217
102449
102091
101841
101807
101886
101919
101871
101868
101867
101869
101883
101982
101892
101740
101768
101825
101949
102063
102168
102243
101936
101743
101762
101818
101903
101857
101866
101866
101868
101884
101867
101819
101660
101729
101768
101871
102012
102135
102054
101821
101731
101749
101757
101840
101838
101864
101866
101886
101904
101859
101783
101623
101659
101694
101804
101985
102068
101931
101774
101725
101753
101737
101803
101804
101860
101880
101930
101873
101798
101728
101600
101666
101708
101765
101899
102055
101797
101809
101820
101821
101820
101800
101796
101772
101775
101758
101757
101745
101733
101741
101731
101735
101720
101719
101675
101635
101520
101522
101422
101643
101670
101724
101748
101749
101713
101695
101628
101638
101694
101650
101658
101638
101616
101626
101612
101616
101603
101578
101492
101420
101400
101405
101452
101502
101525
101561
101568
101536
101542
101524
101557
101508
101554
101495
101477
101496
101477
101473
101458
101453
101430
101399
101342
101335
101255
101390
101439
101563
101594
101592
101522
101563
101372
101427
101602
101508
101539
101488
101404
101382
101375
101373
101371
101371
101373
101343
101337
101280
101363
101377
101390
101427
101408
101375
101374
101353
101410
101406
101503
101417
101373
101358
101359
101357
101357
101356
101356
101356
101354
101350
101337
101346
101344
101331
101327
101326
101320
101325
101329
101342
101429
101411
101406
101415
101368
101357
101356
101356
101355
101355
101355
101354
101357
101376
101335
101328
101323
101321
101320
101321
101320
101323
101319
101333
101353
101352
101348
101343
101356
101357
101356
101356
101355
101355
101354
101354
101356
101328
101324
101321
101320
101319
101319
101320
101321
101320
101321
101324
101335
101335
101331
101346
101355
101354
101355
101354
101354
101354
101354
101354
101325
101321
101319
101319
101319
101319
101319
101320
101319
101321
101321
101322
101322
101324
101321
101345
101347
101355
101354
101354
101353
101354
101355
101323
101321
101319
101318
101318
101318
101318
101319
101320
101321
101322
101323
101323
101323
101326
101332
101332
101312
101345
101344
101347
101349
101352
101323
101321
101320
101319
101319
101319
101319
101320
101320
101321
101322
101323
101323
101324
101324
101324
101329
101331
101339
101333
101329
101308
101334
101324
101323
101321
101321
101320
101320
101320
101321
101321
101322
101322
101323
101323
101323
101324
101324
101324
101324
101324
101326
101334
101335
101329
101324
101324
101322
101322
101321
101321
101321
101322
101322
101322
101322
101323
101323
101324
101324
101324
101324
101324
101324
101324
101325
101325
101325
101324
101324
101323
101323
101322
101322
101322
101322
101322
101323
101323
101323
101323
101323
101324
101324
101324
101324
101324
101324
101325
101325
101325
101324
101324
101323
101323
101323
101323
101323
101323
101323
101323
101323
101323
101323
101323
101324
101324
101324
101324
101324
101324
101324
101324
101325
101324
101324
101323
101323
101323
101323
101323
101323
101323
101323
101323
101323
101323
101323
101324
101324
101324
101324
101324
101324
101324
101324
101325
101324
101324
101323
101323
101323
101323
101323
101323
101323
101323
101323
101323
101323
101323
101324
101324
101324
101324
101324
101324
101324
101324
101324
101323
101323
101323
101323
101323
101323
101323
101323
101323
101323
101323
101323
101323
101323
101324
101324
101324
101324
101324
101324
101324
101324
101324
101323
101323
101323
101323
101323
101323
101323
101323
101323
101323
101323
101323
101323
101323
101323
101323
101324
101324
101324
101324
101324
101324
101324
101323
101323
101323
101323
101323
101323
101323
101323
101323
101323
101323
101323
101323
101323
101323
101323
101323
101324
101324
101324
101324
101324
101324
101323
101323
101323
101323
101323
101323
101323
101323
101323
101323
101323
101323
101323
101323
101323
101323
101323
101323
101323
101324
101324
101324
101324
101323
101323
101323
101323
101323
101323
101323
101323
101323
101323
101323
101323
101323
101323
101323
101323
101323
101323
101323
101323
101324
101324
101324
101323
101323
101323
101323
101323
101323
101323
101323
101323
101323
101323
101323
101323
101323
101323
101323
101323
101323
101323
101323
101323
101323
101324
101322
101322
101322
101322
101322
101322
101322
101322
101322
101323
101323
101323
101323
101323
101323
101323
101323
101323
101323
101323
101323
101323
101323
101322
101322
101322
101322
101322
101322
101322
101322
101322
101322
101322
101322
101323
101323
101323
101323
101323
101323
101323
101323
101323
101323
101323
101322
101322
101322
101322
101322
101322
101322
101322
101322
101322
101322
101322
101322
101322
101322
101322
101322
101323
101323
101323
101323
101323
101323
101322
101322
101322
101322
101322
101322
101322
101322
101322
101322
101322
101322
101322
101322
101322
101322
101322
101322
101322
101322
101322
101322
101323
101322
101322
101322
101322
101322
101322
101322
101322
101322
101322
101322
101322
101322
101322
101322
101322
101322
101322
101322
101322
101322
101322
101322
101321
101321
101321
101321
101321
101321
101322
101322
101322
101322
101322
101322
101322
101322
101322
101322
101322
101322
101322
101322
101322
101322
101322
101321
101321
101321
101321
101321
101321
101321
101321
101321
101321
101321
101321
101321
101321
101321
101321
101321
101321
101321
101321
101321
101322
101322
101321
101321
101321
101321
101321
101321
101321
101321
101321
101321
101321
101321
101321
101321
101321
101321
101321
101321
101321
101321
101321
101321
101321
101321
101321
101321
101321
101321
101321
101321
101321
101321
101321
101321
101321
101321
101321
101321
101321
101321
101321
101321
101321
101321
101321
101321
101321
101321
101321
101321
101321
101321
101321
101321
101321
101321
101321
101321
101321
101321
101320
101320
101320
101320
101320
101320
101321
101321
101321
101320
101320
101320
101320
101320
101320
101320
101320
101320
101320
101320
101320
101320
101320
101320
101320
101320
101320
101320
101320
101320
101320
101320
101320
101320
101320
101320
101320
101320
101320
101320
101320
101320
101320
101320
101320
101320
101320
101320
101320
101320
101320
101320
101320
101320
101320
101320
101320
101320
101320
101320
101320
101320
101320
101320
101320
101320
101320
101320
101320
101319
101319
101319
101319
101319
101319
101319
101320
101320
101319
101319
101319
101319
101319
101319
101319
101319
101319
101319
101319
101319
101319
101319
101319
101319
101319
101319
101319
101319
101319
101319
101319
101319
101319
101319
101319
101319
101319
101319
101319
101319
101319
101319
101319
101319
101319
101319
101319
101319
101319
101319
101319
101319
101319
101319
101319
101319
101319
101319
101319
101319
101319
101319
101319
101319
101319
101319
101319
101319
101319
101319
101319
101319
101319
101319
101319
101319
101319
101319
101319
101319
101319
101319
101319
101319
101319
101319
101318
101318
101318
101318
101318
101318
101318
101318
101318
101318
101318
101318
101318
101318
101318
101318
101318
101318
101318
101318
101318
101318
101318
101318
101318
101318
101318
101318
101318
101318
101318
101318
101318
101318
101318
101318
101318
101318
101318
101318
101318
101318
101318
101318
101318
101318
101318
101318
101318
101318
101318
101318
101318
101318
101318
101318
101318
101318
101318
101318
101453
101399
101544
101353
101493
101435
101510
101467
101270
101279
101309
101349
101303
101325
101358
101442
101337
101381
101407
101460
101407
101419
101429
101433
101356
101358
101357
101360
101354
101358
101361
101360
101355
101357
101357
101353
101349
101353
101352
101353
101318
101321
101314
101321
101330
101339
101345
101345
101325
101325
101325
101325
101325
101325
101325
101325
101325
101325
101325
101325
101325
101325
101325
101325
101325
101325
101325
101325
101325
101325
101325
101325
101324
101324
101324
101325
101324
101324
101324
101324
101324
101324
101324
101324
101324
101324
101324
101324
101324
101324
101324
101324
101323
101323
101324
101324
101323
101323
101323
101323
101323
101323
101323
101323
101323
101323
101323
101323
101322
101322
101322
101322
101322
101322
101322
101322
101322
101322
101322
101322
101321
101321
101321
101321
101321
101321
101321
101321
101321
101321
101321
101321
101320
101320
101320
101320
101320
101320
101320
101320
101320
101320
101320
101320
101319
101319
101319
101319
101319
101319
101319
101319
101319
101319
101319
101319
101318
101318
101318
101318
101318
101318
101318
101318
101318
101318
101318
101318
101778
101743
101737
101744
101714
101761
101766
101879
101967
101960
101871
101780
101626
101572
101593
101635
101737
101921
101982
101672
101717
101710
101716
101723
101709
101716
101828
101859
101839
101712
101643
101548
101535
101577
101603
101630
101741
101896
101614
101649
101712
101729
101704
101756
101692
101743
101684
101662
101602
101540
101484
101535
101530
101533
101540
101584
101749
101540
101639
101575
101686
101682
101719
101863
101635
101511
101310
101360
101381
101398
101464
101495
101523
101496
101508
101520
101411
101523
101497
101489
101534
101653
101621
101626
101457
101346
101348
101333
101349
101356
101392
101404
101391
101409
101759
101404
101425
101407
101354
101388
101454
101488
101476
101385
101329
101329
101329
101330
101331
101338
101337
101376
101409
101429
101362
101369
101359
101339
101348
101363
101371
101345
101333
101320
101332
101327
101331
101333
101333
101332
101329
101354
101423
101355
101348
101347
101338
101344
101338
101330
101329
101330
101330
101329
101331
101332
101331
101333
101330
101333
101329
101347
101351
101348
101349
101341
101347
101339
101329
101329
101329
101327
101326
101326
101328
101330
101330
101329
101328
101328
101330
101349
101345
101347
101342
101347
101331
101328
101328
101328
101327
101326
101325
101328
101329
101331
101328
101331
101326
101331
101330
101346
101350
101342
101347
101329
101327
101328
101328
101327
101326
101326
101328
101328
101329
101328
101328
101327
101327
101340
101332
101342
101336
101328
101327
101327
101327
101327
101326
101327
101327
101328
101328
101329
101327
101329
101327
101327
101325
101325
101325
101327
101328
101326
101327
101326
101326
101326
101326
101326
101327
101327
101328
101327
101328
101327
101327
101325
101325
101326
101327
101326
101327
101326
101326
101326
101326
101326
101326
101327
101327
101328
101327
101328
101327
101327
101325
101325
101326
101326
101327
101326
101326
101326
101325
101325
101326
101326
101327
101327
101327
101327
101327
101327
101328
101325
101325
101326
101326
101326
101326
101326
101326
101325
101325
101326
101326
101326
101326
101327
101327
101327
101327
101327
101325
101325
101326
101326
101326
101326
101326
101326
101325
101325
101326
101326
101326
101326
101327
101327
101327
101327
101327
101325
101325
101325
101326
101326
101326
101326
101326
101326
101326
101326
101326
101326
101326
101327
101327
101327
101327
101327
101325
101325
101325
101325
101326
101326
101326
101326
101326
101326
101326
101326
101326
101326
101326
101327
101327
101327
101327
101325
101325
101325
101325
101325
101326
101326
101326
101326
101326
101326
101326
101326
101326
101326
101326
101327
101327
101327
101324
101325
101325
101325
101325
101325
101325
101325
101325
101325
101326
101326
101326
101326
101326
101326
101326
101326
101327
101324
101324
101325
101325
101325
101325
101325
101325
101325
101325
101325
101325
101326
101326
101326
101326
101326
101326
101326
101324
101324
101324
101324
101325
101325
101325
101325
101325
101325
101325
101325
101325
101325
101326
101326
101326
101326
101326
101324
101324
101324
101324
101324
101325
101325
101325
101325
101325
101325
101325
101325
101325
101325
101326
101326
101326
101326
101323
101324
101324
101324
101324
101324
101324
101325
101325
101325
101325
101325
101325
101325
101325
101325
101326
101326
101326
101323
101323
101323
101324
101324
101324
101324
101324
101324
101325
101325
101325
101325
101325
101325
101325
101325
101325
101326
101323
101323
101323
101323
101323
101324
101324
101324
101324
101324
101324
101324
101325
101325
101325
101325
101325
101325
101325
101322
101323
101323
101323
101323
101323
101323
101324
101324
101324
101324
101324
101324
101324
101325
101325
101325
101325
101325
101322
101322
101322
101322
101323
101323
101323
101323
101323
101324
101324
101324
101324
101324
101324
101325
101325
101325
101325
101322
101322
101322
101322
101322
101322
101323
101323
101323
101323
101323
101324
101324
101324
101324
101324
101324
101324
101325
101321
101322
101322
101322
101322
101322
101322
101322
101323
101323
101323
101323
101324
101324
101324
101324
101324
101324
101324
101321
101321
101321
101321
101321
101322
101322
101322
101322
101322
101323
101323
101323
101323
101324
101324
101324
101324
101324
101321
101321
101321
101321
101321
101321
101321
101321
101322
101322
101322
101322
101323
101323
101323
101323
101323
101323
101324
101320
101320
101321
101321
101321
101321
101321
101321
101321
101321
101322
101322
101322
101322
101323
101323
101323
101323
101323
101320
101320
101320
101320
101320
101320
101321
101321
101321
101321
101321
101321
101322
101322
101322
101322
101322
101322
101322
101320
101320
101320
101320
101320
101320
101320
101320
101320
101321
101321
101321
101321
101321
101321
101321
101322
101322
101322
101319
101319
101320
101320
101320
101320
101320
101320
101320
101320
101320
101320
101320
101320
101320
101320
101321
101321
101321
101319
101319
101319
101319
101319
101319
101319
101319
101319
101320
101320
101320
101320
101320
101319
101320
101320
101320
101320
101319
101319
101319
101319
101319
101319
101319
101319
101319
101319
101319
101319
101319
101319
101319
101319
101319
101319
101319
101318
101318
101318
101318
101318
101318
101318
101319
101319
101319
101319
101319
101319
101318
101318
101318
101318
101319
101319
101318
101318
101318
101318
101318
101318
101318
101318
101318
101318
101318
101318
101318
101318
101317
101317
101318
101318
101318
101318
101318
101318
101318
101318
101318
101318
101318
101318
101318
101317
101318
101317
101317
101318
101317
101318
101318
101318
)
;

boundaryField
{
    leftWall
    {
        type            zeroGradient;
    }
    rightWall
    {
        type            zeroGradient;
    }
    lowerWall
    {
        type            zeroGradient;
    }
    atmosphere
    {
        type            fixedValue;
        value           uniform 101325;
    }
    defaultFaces
    {
        type            empty;
    }
}


// ************************************************************************* //
