/*--------------------------------*- C++ -*----------------------------------*\
| =========                 |                                                 |
| \\      /  F ield         | OpenFOAM: The Open Source CFD Toolbox           |
|  \\    /   O peration     | Version:  2012                                  |
|   \\  /    A nd           | Website:  www.openfoam.com                      |
|    \\/     M anipulation  |                                                 |
\*---------------------------------------------------------------------------*/
FoamFile
{
    version     2.0;
    format      ascii;
    class       volScalarField;
    location    "0.2";
    object      p;
}
// * * * * * * * * * * * * * * * * * * * * * * * * * * * * * * * * * * * * * //

dimensions      [1 -1 -2 0 0 0 0];


internalField   nonuniform List<scalar> 
20400
(
1501.47
1504.59
1499.27
1504.9
1500.46
1503.39
1501.91
1502.69
1502.18
1502.35
1502.16
1502.13
1502
1501.9
1501.78
1501.64
1501.5
1501.34
1501.17
1500.99
1500.81
1500.62
1500.42
1500.21
1499.99
1499.77
1499.54
1499.3
1499.06
1498.81
1498.56
1498.3
1498.04
1497.77
1497.49
1497.21
1496.93
1496.64
1496.34
1496.04
1495.74
1495.43
1495.11
1494.79
1494.47
1494.14
1493.81
1493.47
1493.13
1492.79
1492.44
1492.08
1491.73
1491.36
1491
1490.63
1490.25
1489.87
1489.49
1489.1
1488.71
1488.31
1487.91
1487.51
1487.1
1486.68
1486.27
1485.84
1485.42
1484.99
1484.55
1484.12
1483.67
1483.23
1482.78
1482.32
1481.86
1481.4
1480.93
1480.46
1479.98
1479.5
1479.02
1478.53
1478.03
1477.54
1477.04
1476.53
1476.02
1475.51
1474.99
1474.47
1473.94
1473.41
1472.88
1472.34
1471.8
1471.25
1470.7
1470.14
1469.58
1469.02
1468.45
1467.88
1467.3
1466.72
1466.14
1465.55
1464.96
1464.36
1463.76
1463.16
1462.55
1461.94
1461.32
1460.7
1460.08
1459.45
1458.82
1458.18
1457.54
1456.89
1456.24
1455.59
1454.93
1454.27
1453.61
1452.94
1452.27
1451.59
1450.91
1450.22
1449.54
1448.84
1448.15
1447.45
1446.74
1446.03
1445.32
1444.6
1443.88
1443.16
1442.43
1441.7
1440.96
1440.22
1439.48
1438.73
1437.98
1437.23
1436.47
1435.7
1434.94
1434.17
1433.39
1432.61
1431.83
1431.04
1430.25
1429.46
1428.66
1427.86
1427.06
1426.25
1425.44
1424.62
1423.8
1422.98
1422.15
1421.32
1420.48
1419.64
1418.8
1417.95
1417.1
1416.25
1415.39
1414.53
1413.67
1412.8
1411.93
1411.05
1410.17
1409.29
1408.4
1407.51
1406.62
1405.72
1404.82
1403.92
1403.01
1402.1
1401.18
1400.26
1399.34
1398.42
1397.49
1396.55
1395.62
1394.68
1393.73
1392.79
1391.84
1390.88
1389.93
1388.96
1388
1387.03
1386.06
1385.09
1384.11
1383.13
1382.14
1381.15
1380.16
1379.17
1378.17
1377.17
1376.16
1375.15
1374.14
1373.13
1372.11
1371.09
1370.06
1369.04
1368
1366.97
1365.93
1364.89
1363.85
1362.8
1361.75
1360.69
1359.64
1358.58
1357.51
1356.45
1355.38
1354.3
1353.23
1352.15
1351.06
1349.98
1348.89
1347.8
1346.7
1345.6
1344.5
1343.4
1342.29
1341.18
1340.07
1338.95
1337.83
1336.71
1335.58
1334.46
1333.32
1332.19
1331.05
1329.91
1328.77
1327.62
1326.47
1325.32
1324.17
1323.01
1321.85
1320.69
1319.52
1318.35
1317.18
1316.01
1314.83
1313.65
1312.46
1311.28
1310.09
1308.9
1307.7
1306.51
1305.31
1304.1
1302.9
1301.69
1300.48
1299.27
1298.05
1296.83
1295.61
1294.39
1293.16
1291.93
1290.7
1289.47
1288.23
1286.99
1285.75
1284.51
1283.26
1282.01
1280.76
1279.5
1278.25
1276.99
1275.72
1274.46
1273.19
1271.92
1270.65
1269.38
1268.1
1266.82
1265.54
1264.26
1262.97
1261.68
1260.39
1259.1
1257.8
1256.51
1255.21
1253.9
1252.6
1251.29
1249.98
1248.67
1247.36
1246.04
1244.73
1243.41
1242.09
1240.76
1239.43
1238.11
1236.77
1235.44
1234.11
1232.77
1231.43
1230.09
1228.75
1227.4
1226.05
1224.71
1223.35
1222
1220.65
1219.29
1217.93
1216.57
1215.21
1213.84
1212.47
1211.1
1209.73
1208.36
1206.99
1205.61
1204.23
1202.85
1201.47
1200.09
1198.7
1197.32
1195.93
1194.54
1193.14
1191.75
1190.35
1188.96
1187.56
1186.16
1184.75
1183.35
1181.95
1180.54
1179.13
1177.72
1176.31
1174.89
1173.48
1172.06
1170.64
1169.22
1167.8
1166.38
1164.95
1163.53
1162.1
1160.67
1159.24
1157.81
1156.38
1154.94
1153.51
1152.07
1150.63
1149.19
1147.75
1146.31
1144.86
1143.42
1141.97
1140.52
1139.08
1137.62
1136.18
1134.72
1133.27
1131.81
1130.36
1128.9
1127.44
1125.98
1124.52
1123.06
1121.6
1120.13
1118.67
1117.2
1115.73
1114.27
1112.8
1111.33
1109.85
1108.38
1106.91
1105.43
1103.96
1102.48
1101.01
1099.53
1098.05
1096.57
1095.09
1093.61
1092.13
1090.64
1089.16
1087.68
1086.19
1084.7
1083.22
1081.73
1080.24
1078.75
1077.26
1075.77
1074.28
1072.79
1071.3
1069.8
1068.31
1066.82
1065.32
1063.82
1062.33
1060.83
1059.33
1057.84
1056.34
1054.84
1053.34
1051.84
1050.34
1048.84
1047.34
1045.84
1044.34
1042.83
1041.33
1039.83
1038.32
1036.82
1035.32
1033.81
1032.31
1030.8
1029.3
1027.79
1026.28
1024.78
1023.27
1021.76
1020.26
1018.75
1017.24
1015.74
1014.21
1012.73
1011.18
1009.7
1008.16
1006.65
1005.13
1003.64
1002.09
1000.36
1500.94
1504.35
1498.96
1504.88
1500.2
1503.26
1501.69
1502.51
1501.97
1502.16
1501.97
1501.95
1501.84
1501.75
1501.64
1501.52
1501.38
1501.24
1501.08
1500.92
1500.74
1500.56
1500.36
1500.16
1499.95
1499.73
1499.51
1499.28
1499.04
1498.8
1498.55
1498.29
1498.03
1497.76
1497.49
1497.21
1496.93
1496.64
1496.34
1496.04
1495.74
1495.43
1495.12
1494.8
1494.47
1494.15
1493.81
1493.48
1493.14
1492.79
1492.44
1492.09
1491.73
1491.37
1491
1490.63
1490.25
1489.87
1489.49
1489.1
1488.71
1488.31
1487.91
1487.51
1487.1
1486.68
1486.27
1485.84
1485.42
1484.99
1484.55
1484.12
1483.67
1483.23
1482.77
1482.32
1481.86
1481.4
1480.93
1480.46
1479.98
1479.5
1479.02
1478.53
1478.03
1477.54
1477.04
1476.53
1476.02
1475.51
1474.99
1474.47
1473.94
1473.41
1472.88
1472.34
1471.8
1471.25
1470.7
1470.14
1469.58
1469.02
1468.45
1467.88
1467.3
1466.72
1466.14
1465.55
1464.96
1464.36
1463.76
1463.16
1462.55
1461.94
1461.32
1460.7
1460.08
1459.45
1458.82
1458.18
1457.54
1456.89
1456.24
1455.59
1454.93
1454.27
1453.61
1452.94
1452.27
1451.59
1450.91
1450.22
1449.54
1448.84
1448.15
1447.45
1446.74
1446.03
1445.32
1444.6
1443.88
1443.16
1442.43
1441.7
1440.96
1440.22
1439.48
1438.73
1437.98
1437.23
1436.47
1435.7
1434.94
1434.16
1433.39
1432.61
1431.83
1431.04
1430.25
1429.46
1428.66
1427.86
1427.06
1426.25
1425.44
1424.62
1423.8
1422.98
1422.15
1421.32
1420.48
1419.64
1418.8
1417.95
1417.1
1416.25
1415.39
1414.53
1413.67
1412.8
1411.93
1411.05
1410.17
1409.29
1408.4
1407.51
1406.62
1405.72
1404.82
1403.92
1403.01
1402.1
1401.18
1400.26
1399.34
1398.42
1397.49
1396.55
1395.62
1394.68
1393.73
1392.79
1391.84
1390.88
1389.93
1388.96
1388
1387.03
1386.06
1385.09
1384.11
1383.13
1382.14
1381.15
1380.16
1379.17
1378.17
1377.17
1376.16
1375.15
1374.14
1373.13
1372.11
1371.09
1370.06
1369.04
1368
1366.97
1365.93
1364.89
1363.85
1362.8
1361.75
1360.69
1359.64
1358.58
1357.51
1356.45
1355.38
1354.3
1353.23
1352.15
1351.06
1349.98
1348.89
1347.8
1346.7
1345.61
1344.5
1343.4
1342.29
1341.18
1340.07
1338.95
1337.83
1336.71
1335.58
1334.46
1333.32
1332.19
1331.05
1329.91
1328.77
1327.62
1326.47
1325.32
1324.17
1323.01
1321.85
1320.69
1319.52
1318.35
1317.18
1316
1314.83
1313.65
1312.46
1311.28
1310.09
1308.9
1307.7
1306.51
1305.31
1304.1
1302.9
1301.69
1300.48
1299.27
1298.05
1296.83
1295.61
1294.39
1293.16
1291.93
1290.7
1289.47
1288.23
1286.99
1285.75
1284.51
1283.26
1282.01
1280.76
1279.5
1278.25
1276.99
1275.72
1274.46
1273.19
1271.92
1270.65
1269.38
1268.1
1266.82
1265.54
1264.26
1262.97
1261.68
1260.39
1259.1
1257.8
1256.51
1255.21
1253.9
1252.6
1251.29
1249.98
1248.67
1247.36
1246.04
1244.73
1243.41
1242.09
1240.76
1239.43
1238.11
1236.78
1235.44
1234.11
1232.77
1231.43
1230.09
1228.75
1227.4
1226.05
1224.71
1223.35
1222
1220.65
1219.29
1217.93
1216.57
1215.21
1213.84
1212.47
1211.1
1209.73
1208.36
1206.99
1205.61
1204.23
1202.85
1201.47
1200.09
1198.7
1197.32
1195.93
1194.54
1193.14
1191.75
1190.35
1188.96
1187.56
1186.16
1184.75
1183.35
1181.95
1180.54
1179.13
1177.72
1176.31
1174.89
1173.48
1172.06
1170.64
1169.22
1167.8
1166.38
1164.95
1163.53
1162.1
1160.67
1159.24
1157.81
1156.38
1154.94
1153.51
1152.07
1150.63
1149.19
1147.75
1146.31
1144.86
1143.42
1141.97
1140.52
1139.08
1137.62
1136.17
1134.72
1133.27
1131.81
1130.36
1128.9
1127.44
1125.98
1124.52
1123.06
1121.6
1120.13
1118.67
1117.2
1115.73
1114.27
1112.8
1111.33
1109.85
1108.38
1106.91
1105.44
1103.96
1102.48
1101.01
1099.53
1098.05
1096.57
1095.09
1093.61
1092.13
1090.64
1089.16
1087.68
1086.19
1084.7
1083.22
1081.73
1080.24
1078.75
1077.26
1075.77
1074.28
1072.79
1071.3
1069.8
1068.31
1066.82
1065.32
1063.82
1062.33
1060.83
1059.33
1057.84
1056.34
1054.84
1053.34
1051.84
1050.34
1048.84
1047.34
1045.84
1044.34
1042.83
1041.33
1039.83
1038.32
1036.82
1035.32
1033.81
1032.31
1030.8
1029.3
1027.79
1026.28
1024.78
1023.27
1021.76
1020.26
1018.75
1017.24
1015.74
1014.22
1012.73
1011.18
1009.7
1008.17
1006.65
1005.14
1003.67
1002.13
1000.36
1501.07
1504.44
1498.88
1504.83
1500.13
1503.23
1501.64
1502.48
1501.94
1502.14
1501.95
1501.94
1501.83
1501.74
1501.63
1501.51
1501.38
1501.23
1501.07
1500.91
1500.73
1500.54
1500.35
1500.15
1499.94
1499.72
1499.49
1499.26
1499.02
1498.77
1498.52
1498.27
1498
1497.73
1497.46
1497.18
1496.9
1496.61
1496.31
1496.02
1495.71
1495.4
1495.09
1494.77
1494.45
1494.13
1493.8
1493.46
1493.12
1492.78
1492.43
1492.08
1491.72
1491.36
1490.99
1490.62
1490.25
1489.87
1489.48
1489.1
1488.7
1488.31
1487.91
1487.5
1487.09
1486.68
1486.26
1485.84
1485.42
1484.99
1484.55
1484.11
1483.67
1483.23
1482.77
1482.32
1481.86
1481.4
1480.93
1480.46
1479.98
1479.5
1479.02
1478.53
1478.03
1477.54
1477.04
1476.53
1476.02
1475.51
1474.99
1474.47
1473.94
1473.41
1472.88
1472.34
1471.8
1471.25
1470.7
1470.14
1469.58
1469.02
1468.45
1467.88
1467.3
1466.72
1466.14
1465.55
1464.96
1464.36
1463.76
1463.16
1462.55
1461.94
1461.32
1460.7
1460.08
1459.45
1458.82
1458.18
1457.54
1456.89
1456.24
1455.59
1454.93
1454.27
1453.61
1452.94
1452.27
1451.59
1450.91
1450.22
1449.54
1448.84
1448.15
1447.45
1446.74
1446.03
1445.32
1444.6
1443.88
1443.16
1442.43
1441.7
1440.96
1440.22
1439.48
1438.73
1437.98
1437.23
1436.47
1435.7
1434.94
1434.17
1433.39
1432.61
1431.83
1431.04
1430.25
1429.46
1428.66
1427.86
1427.06
1426.25
1425.44
1424.62
1423.8
1422.97
1422.15
1421.32
1420.48
1419.64
1418.8
1417.95
1417.1
1416.25
1415.39
1414.53
1413.67
1412.8
1411.93
1411.05
1410.17
1409.29
1408.4
1407.51
1406.62
1405.72
1404.82
1403.92
1403.01
1402.1
1401.18
1400.26
1399.34
1398.42
1397.49
1396.55
1395.62
1394.68
1393.73
1392.79
1391.84
1390.88
1389.93
1388.96
1388
1387.03
1386.06
1385.09
1384.11
1383.13
1382.14
1381.15
1380.16
1379.17
1378.17
1377.17
1376.16
1375.16
1374.14
1373.13
1372.11
1371.09
1370.06
1369.04
1368
1366.97
1365.93
1364.89
1363.85
1362.8
1361.75
1360.69
1359.64
1358.58
1357.51
1356.45
1355.38
1354.3
1353.23
1352.15
1351.06
1349.98
1348.89
1347.8
1346.7
1345.6
1344.5
1343.4
1342.29
1341.18
1340.07
1338.95
1337.83
1336.71
1335.58
1334.46
1333.33
1332.19
1331.05
1329.91
1328.77
1327.62
1326.47
1325.32
1324.17
1323.01
1321.85
1320.69
1319.52
1318.35
1317.18
1316
1314.83
1313.65
1312.46
1311.28
1310.09
1308.9
1307.7
1306.51
1305.31
1304.1
1302.9
1301.69
1300.48
1299.27
1298.05
1296.83
1295.61
1294.39
1293.16
1291.93
1290.7
1289.47
1288.23
1286.99
1285.75
1284.51
1283.26
1282.01
1280.76
1279.5
1278.25
1276.99
1275.72
1274.46
1273.19
1271.92
1270.65
1269.38
1268.1
1266.82
1265.54
1264.26
1262.97
1261.68
1260.39
1259.1
1257.8
1256.51
1255.21
1253.9
1252.6
1251.29
1249.98
1248.67
1247.36
1246.04
1244.73
1243.41
1242.09
1240.76
1239.43
1238.11
1236.78
1235.44
1234.11
1232.77
1231.43
1230.09
1228.75
1227.4
1226.05
1224.71
1223.35
1222
1220.65
1219.29
1217.93
1216.57
1215.21
1213.84
1212.47
1211.1
1209.73
1208.36
1206.99
1205.61
1204.23
1202.85
1201.47
1200.09
1198.7
1197.32
1195.93
1194.54
1193.14
1191.75
1190.35
1188.96
1187.56
1186.16
1184.75
1183.35
1181.95
1180.54
1179.13
1177.72
1176.31
1174.89
1173.48
1172.06
1170.64
1169.22
1167.8
1166.38
1164.95
1163.53
1162.1
1160.67
1159.24
1157.81
1156.38
1154.94
1153.51
1152.07
1150.63
1149.19
1147.75
1146.31
1144.86
1143.42
1141.97
1140.52
1139.08
1137.63
1136.17
1134.72
1133.27
1131.81
1130.36
1128.9
1127.44
1125.98
1124.52
1123.06
1121.6
1120.13
1118.67
1117.2
1115.73
1114.27
1112.8
1111.33
1109.85
1108.38
1106.91
1105.44
1103.96
1102.48
1101.01
1099.53
1098.05
1096.57
1095.09
1093.61
1092.13
1090.64
1089.16
1087.68
1086.19
1084.7
1083.22
1081.73
1080.24
1078.75
1077.26
1075.77
1074.28
1072.79
1071.3
1069.8
1068.31
1066.82
1065.32
1063.82
1062.33
1060.83
1059.33
1057.84
1056.34
1054.84
1053.34
1051.84
1050.34
1048.84
1047.34
1045.84
1044.34
1042.83
1041.33
1039.83
1038.32
1036.82
1035.32
1033.81
1032.31
1030.8
1029.3
1027.79
1026.28
1024.78
1023.27
1021.76
1020.26
1018.75
1017.24
1015.74
1014.22
1012.73
1011.19
1009.7
1008.17
1006.66
1005.15
1003.69
1002.15
1000.37
1500.84
1504.27
1498.72
1504.77
1500.01
1503.15
1501.55
1502.4
1501.86
1502.06
1501.88
1501.87
1501.76
1501.68
1501.57
1501.45
1501.32
1501.18
1501.03
1500.87
1500.69
1500.51
1500.32
1500.12
1499.91
1499.7
1499.47
1499.24
1499.01
1498.76
1498.51
1498.26
1498
1497.73
1497.46
1497.18
1496.9
1496.61
1496.31
1496.02
1495.71
1495.4
1495.09
1494.77
1494.45
1494.13
1493.8
1493.46
1493.12
1492.78
1492.43
1492.07
1491.72
1491.36
1490.99
1490.62
1490.24
1489.87
1489.48
1489.1
1488.7
1488.31
1487.91
1487.5
1487.09
1486.68
1486.26
1485.84
1485.42
1484.99
1484.55
1484.11
1483.67
1483.22
1482.77
1482.32
1481.86
1481.4
1480.93
1480.46
1479.98
1479.5
1479.01
1478.53
1478.03
1477.54
1477.03
1476.53
1476.02
1475.51
1474.99
1474.47
1473.94
1473.41
1472.88
1472.34
1471.79
1471.25
1470.7
1470.14
1469.58
1469.02
1468.45
1467.88
1467.3
1466.72
1466.14
1465.55
1464.96
1464.36
1463.76
1463.16
1462.55
1461.94
1461.32
1460.7
1460.08
1459.45
1458.82
1458.18
1457.54
1456.89
1456.24
1455.59
1454.93
1454.27
1453.61
1452.94
1452.27
1451.59
1450.91
1450.22
1449.54
1448.84
1448.15
1447.45
1446.74
1446.03
1445.32
1444.6
1443.88
1443.16
1442.43
1441.7
1440.96
1440.22
1439.48
1438.73
1437.98
1437.22
1436.47
1435.7
1434.94
1434.17
1433.39
1432.61
1431.83
1431.04
1430.25
1429.46
1428.66
1427.86
1427.06
1426.25
1425.44
1424.62
1423.8
1422.97
1422.15
1421.32
1420.48
1419.64
1418.8
1417.95
1417.1
1416.25
1415.39
1414.53
1413.67
1412.8
1411.93
1411.05
1410.17
1409.29
1408.4
1407.51
1406.62
1405.72
1404.82
1403.92
1403.01
1402.1
1401.18
1400.26
1399.34
1398.42
1397.49
1396.55
1395.62
1394.68
1393.73
1392.79
1391.84
1390.88
1389.93
1388.96
1388
1387.03
1386.06
1385.09
1384.11
1383.13
1382.14
1381.15
1380.16
1379.17
1378.17
1377.17
1376.16
1375.16
1374.14
1373.13
1372.11
1371.09
1370.06
1369.04
1368.01
1366.97
1365.93
1364.89
1363.85
1362.8
1361.75
1360.69
1359.64
1358.58
1357.51
1356.45
1355.38
1354.3
1353.23
1352.15
1351.06
1349.98
1348.89
1347.8
1346.7
1345.6
1344.5
1343.4
1342.29
1341.18
1340.07
1338.95
1337.83
1336.71
1335.58
1334.46
1333.32
1332.19
1331.05
1329.91
1328.77
1327.62
1326.47
1325.32
1324.17
1323.01
1321.85
1320.69
1319.52
1318.35
1317.18
1316.01
1314.83
1313.65
1312.46
1311.28
1310.09
1308.9
1307.7
1306.51
1305.31
1304.1
1302.9
1301.69
1300.48
1299.27
1298.05
1296.83
1295.61
1294.39
1293.16
1291.93
1290.7
1289.47
1288.23
1286.99
1285.75
1284.51
1283.26
1282.01
1280.76
1279.5
1278.25
1276.99
1275.72
1274.46
1273.19
1271.92
1270.65
1269.38
1268.1
1266.82
1265.54
1264.26
1262.97
1261.68
1260.39
1259.1
1257.8
1256.51
1255.21
1253.9
1252.6
1251.29
1249.98
1248.67
1247.36
1246.04
1244.73
1243.41
1242.09
1240.76
1239.43
1238.11
1236.77
1235.44
1234.11
1232.77
1231.43
1230.09
1228.75
1227.4
1226.05
1224.71
1223.35
1222
1220.65
1219.29
1217.93
1216.57
1215.21
1213.84
1212.47
1211.1
1209.73
1208.36
1206.99
1205.61
1204.23
1202.85
1201.47
1200.09
1198.7
1197.32
1195.93
1194.54
1193.14
1191.75
1190.35
1188.96
1187.56
1186.16
1184.75
1183.35
1181.95
1180.54
1179.13
1177.72
1176.31
1174.89
1173.48
1172.06
1170.64
1169.22
1167.8
1166.38
1164.95
1163.53
1162.1
1160.67
1159.24
1157.81
1156.38
1154.94
1153.51
1152.07
1150.63
1149.19
1147.75
1146.31
1144.86
1143.42
1141.97
1140.52
1139.08
1137.63
1136.17
1134.72
1133.27
1131.81
1130.36
1128.9
1127.44
1125.98
1124.52
1123.06
1121.6
1120.13
1118.67
1117.2
1115.73
1114.27
1112.8
1111.33
1109.85
1108.38
1106.91
1105.44
1103.96
1102.48
1101.01
1099.53
1098.05
1096.57
1095.09
1093.61
1092.13
1090.64
1089.16
1087.68
1086.19
1084.7
1083.22
1081.73
1080.24
1078.75
1077.26
1075.77
1074.28
1072.79
1071.3
1069.8
1068.31
1066.81
1065.32
1063.82
1062.33
1060.83
1059.33
1057.84
1056.34
1054.84
1053.34
1051.84
1050.34
1048.84
1047.34
1045.84
1044.34
1042.83
1041.33
1039.83
1038.32
1036.82
1035.32
1033.81
1032.31
1030.8
1029.3
1027.79
1026.28
1024.78
1023.27
1021.76
1020.26
1018.75
1017.24
1015.74
1014.22
1012.73
1011.19
1009.71
1008.18
1006.67
1005.16
1003.72
1002.18
1000.38
1500.82
1504.25
1498.64
1504.67
1499.93
1503.08
1501.49
1502.35
1501.82
1502.02
1501.85
1501.84
1501.74
1501.66
1501.56
1501.44
1501.31
1501.17
1501.02
1500.85
1500.68
1500.5
1500.31
1500.11
1499.9
1499.68
1499.46
1499.23
1498.99
1498.75
1498.5
1498.25
1497.99
1497.72
1497.45
1497.17
1496.89
1496.6
1496.3
1496.01
1495.7
1495.4
1495.08
1494.77
1494.45
1494.12
1493.79
1493.46
1493.12
1492.77
1492.42
1492.07
1491.71
1491.35
1490.99
1490.62
1490.24
1489.86
1489.48
1489.09
1488.7
1488.31
1487.91
1487.5
1487.09
1486.68
1486.26
1485.84
1485.41
1484.99
1484.55
1484.11
1483.67
1483.22
1482.77
1482.32
1481.86
1481.39
1480.93
1480.46
1479.98
1479.5
1479.01
1478.53
1478.03
1477.54
1477.03
1476.53
1476.02
1475.51
1474.99
1474.47
1473.94
1473.41
1472.88
1472.34
1471.79
1471.25
1470.7
1470.14
1469.58
1469.02
1468.45
1467.88
1467.3
1466.72
1466.14
1465.55
1464.96
1464.36
1463.76
1463.16
1462.55
1461.94
1461.32
1460.7
1460.08
1459.45
1458.82
1458.18
1457.54
1456.89
1456.24
1455.59
1454.93
1454.27
1453.61
1452.94
1452.27
1451.59
1450.91
1450.22
1449.54
1448.84
1448.15
1447.45
1446.74
1446.03
1445.32
1444.6
1443.88
1443.16
1442.43
1441.7
1440.96
1440.22
1439.48
1438.73
1437.98
1437.23
1436.47
1435.7
1434.94
1434.17
1433.39
1432.61
1431.83
1431.04
1430.25
1429.46
1428.66
1427.86
1427.06
1426.25
1425.44
1424.62
1423.8
1422.97
1422.15
1421.32
1420.48
1419.64
1418.8
1417.95
1417.1
1416.25
1415.39
1414.53
1413.67
1412.8
1411.93
1411.05
1410.17
1409.29
1408.4
1407.51
1406.62
1405.72
1404.82
1403.92
1403.01
1402.1
1401.18
1400.26
1399.34
1398.42
1397.49
1396.55
1395.62
1394.68
1393.73
1392.79
1391.84
1390.88
1389.93
1388.96
1388
1387.03
1386.06
1385.09
1384.11
1383.13
1382.14
1381.16
1380.16
1379.17
1378.17
1377.17
1376.16
1375.16
1374.14
1373.13
1372.11
1371.09
1370.06
1369.04
1368
1366.97
1365.93
1364.89
1363.85
1362.8
1361.75
1360.69
1359.64
1358.58
1357.51
1356.45
1355.38
1354.3
1353.23
1352.15
1351.06
1349.98
1348.89
1347.8
1346.7
1345.61
1344.5
1343.4
1342.29
1341.18
1340.07
1338.95
1337.83
1336.71
1335.59
1334.46
1333.32
1332.19
1331.05
1329.91
1328.77
1327.62
1326.47
1325.32
1324.17
1323.01
1321.85
1320.69
1319.52
1318.35
1317.18
1316.01
1314.83
1313.65
1312.46
1311.28
1310.09
1308.9
1307.7
1306.51
1305.31
1304.1
1302.9
1301.69
1300.48
1299.27
1298.05
1296.83
1295.61
1294.39
1293.16
1291.93
1290.7
1289.47
1288.23
1286.99
1285.75
1284.51
1283.26
1282.01
1280.76
1279.5
1278.25
1276.99
1275.72
1274.46
1273.19
1271.92
1270.65
1269.38
1268.1
1266.82
1265.54
1264.26
1262.97
1261.68
1260.39
1259.1
1257.8
1256.51
1255.21
1253.9
1252.6
1251.29
1249.98
1248.67
1247.36
1246.04
1244.73
1243.41
1242.08
1240.76
1239.43
1238.11
1236.78
1235.44
1234.11
1232.77
1231.43
1230.09
1228.75
1227.4
1226.05
1224.71
1223.35
1222
1220.65
1219.29
1217.93
1216.57
1215.21
1213.84
1212.47
1211.1
1209.73
1208.36
1206.99
1205.61
1204.23
1202.85
1201.47
1200.09
1198.7
1197.32
1195.93
1194.54
1193.14
1191.75
1190.35
1188.96
1187.56
1186.16
1184.75
1183.35
1181.95
1180.54
1179.13
1177.72
1176.31
1174.89
1173.48
1172.06
1170.64
1169.22
1167.8
1166.38
1164.95
1163.53
1162.1
1160.67
1159.24
1157.81
1156.38
1154.94
1153.51
1152.07
1150.63
1149.19
1147.75
1146.31
1144.86
1143.42
1141.97
1140.52
1139.08
1137.63
1136.17
1134.72
1133.27
1131.81
1130.36
1128.9
1127.44
1125.98
1124.52
1123.06
1121.6
1120.13
1118.67
1117.2
1115.73
1114.27
1112.8
1111.33
1109.85
1108.38
1106.91
1105.44
1103.96
1102.48
1101.01
1099.53
1098.05
1096.57
1095.09
1093.61
1092.13
1090.64
1089.16
1087.68
1086.19
1084.7
1083.22
1081.73
1080.24
1078.75
1077.26
1075.77
1074.28
1072.79
1071.3
1069.8
1068.31
1066.82
1065.32
1063.82
1062.33
1060.83
1059.33
1057.84
1056.34
1054.84
1053.34
1051.84
1050.34
1048.84
1047.34
1045.84
1044.34
1042.83
1041.33
1039.83
1038.32
1036.82
1035.32
1033.81
1032.31
1030.8
1029.3
1027.79
1026.29
1024.78
1023.27
1021.77
1020.26
1018.75
1017.24
1015.74
1014.22
1012.73
1011.19
1009.71
1008.18
1006.68
1005.17
1003.73
1002.19
1000.38
1500.64
1504.08
1498.51
1504.61
1499.85
1503.02
1501.43
1502.3
1501.77
1501.98
1501.81
1501.8
1501.7
1501.61
1501.51
1501.4
1501.27
1501.14
1500.99
1500.83
1500.66
1500.47
1500.29
1500.09
1499.88
1499.67
1499.45
1499.22
1498.98
1498.74
1498.49
1498.24
1497.98
1497.71
1497.44
1497.16
1496.88
1496.59
1496.3
1496
1495.7
1495.39
1495.08
1494.77
1494.44
1494.12
1493.79
1493.45
1493.11
1492.77
1492.42
1492.07
1491.71
1491.35
1490.99
1490.61
1490.24
1489.86
1489.48
1489.09
1488.7
1488.3
1487.9
1487.5
1487.09
1486.68
1486.26
1485.84
1485.41
1484.98
1484.55
1484.11
1483.67
1483.22
1482.77
1482.32
1481.86
1481.39
1480.93
1480.45
1479.98
1479.5
1479.01
1478.53
1478.03
1477.54
1477.03
1476.53
1476.02
1475.51
1474.99
1474.47
1473.94
1473.41
1472.88
1472.34
1471.79
1471.25
1470.7
1470.14
1469.58
1469.02
1468.45
1467.88
1467.3
1466.72
1466.14
1465.55
1464.96
1464.36
1463.76
1463.16
1462.55
1461.94
1461.32
1460.7
1460.08
1459.45
1458.82
1458.18
1457.54
1456.89
1456.24
1455.59
1454.93
1454.27
1453.61
1452.94
1452.27
1451.59
1450.91
1450.22
1449.54
1448.84
1448.15
1447.45
1446.74
1446.03
1445.32
1444.6
1443.88
1443.16
1442.43
1441.7
1440.96
1440.22
1439.48
1438.73
1437.98
1437.23
1436.47
1435.7
1434.94
1434.17
1433.39
1432.61
1431.83
1431.04
1430.25
1429.46
1428.66
1427.86
1427.06
1426.25
1425.44
1424.62
1423.8
1422.97
1422.15
1421.32
1420.48
1419.64
1418.8
1417.95
1417.1
1416.25
1415.39
1414.53
1413.67
1412.8
1411.93
1411.05
1410.17
1409.29
1408.4
1407.51
1406.62
1405.72
1404.82
1403.92
1403.01
1402.1
1401.18
1400.26
1399.34
1398.42
1397.49
1396.55
1395.62
1394.68
1393.73
1392.79
1391.84
1390.88
1389.93
1388.96
1388
1387.03
1386.06
1385.09
1384.11
1383.13
1382.14
1381.16
1380.16
1379.17
1378.17
1377.17
1376.16
1375.16
1374.14
1373.13
1372.11
1371.09
1370.06
1369.04
1368
1366.97
1365.93
1364.89
1363.85
1362.8
1361.75
1360.69
1359.64
1358.58
1357.51
1356.45
1355.38
1354.3
1353.23
1352.15
1351.06
1349.98
1348.89
1347.8
1346.7
1345.61
1344.5
1343.4
1342.29
1341.18
1340.07
1338.95
1337.83
1336.71
1335.59
1334.46
1333.32
1332.19
1331.05
1329.91
1328.77
1327.62
1326.47
1325.32
1324.17
1323.01
1321.85
1320.69
1319.52
1318.35
1317.18
1316.01
1314.83
1313.65
1312.46
1311.28
1310.09
1308.9
1307.7
1306.51
1305.31
1304.1
1302.9
1301.69
1300.48
1299.27
1298.05
1296.83
1295.61
1294.39
1293.16
1291.93
1290.7
1289.47
1288.23
1286.99
1285.75
1284.51
1283.26
1282.01
1280.76
1279.5
1278.25
1276.99
1275.72
1274.46
1273.19
1271.92
1270.65
1269.38
1268.1
1266.82
1265.54
1264.26
1262.97
1261.68
1260.39
1259.1
1257.8
1256.51
1255.21
1253.9
1252.6
1251.29
1249.98
1248.67
1247.36
1246.04
1244.73
1243.41
1242.08
1240.76
1239.43
1238.11
1236.78
1235.44
1234.11
1232.77
1231.43
1230.09
1228.75
1227.4
1226.05
1224.71
1223.35
1222
1220.65
1219.29
1217.93
1216.57
1215.21
1213.84
1212.47
1211.11
1209.73
1208.36
1206.99
1205.61
1204.23
1202.85
1201.47
1200.09
1198.7
1197.32
1195.93
1194.54
1193.14
1191.75
1190.35
1188.96
1187.56
1186.16
1184.75
1183.35
1181.94
1180.54
1179.13
1177.72
1176.31
1174.89
1173.48
1172.06
1170.64
1169.22
1167.8
1166.38
1164.95
1163.53
1162.1
1160.67
1159.24
1157.81
1156.38
1154.94
1153.51
1152.07
1150.63
1149.19
1147.75
1146.31
1144.86
1143.42
1141.97
1140.52
1139.08
1137.63
1136.17
1134.72
1133.27
1131.81
1130.36
1128.9
1127.44
1125.98
1124.52
1123.06
1121.6
1120.13
1118.67
1117.2
1115.73
1114.27
1112.8
1111.33
1109.85
1108.38
1106.91
1105.43
1103.96
1102.48
1101.01
1099.53
1098.05
1096.57
1095.09
1093.61
1092.13
1090.64
1089.16
1087.68
1086.19
1084.7
1083.22
1081.73
1080.24
1078.75
1077.26
1075.77
1074.28
1072.79
1071.3
1069.8
1068.31
1066.81
1065.32
1063.82
1062.33
1060.83
1059.33
1057.84
1056.34
1054.84
1053.34
1051.84
1050.34
1048.84
1047.34
1045.84
1044.34
1042.83
1041.33
1039.83
1038.32
1036.82
1035.32
1033.81
1032.31
1030.8
1029.3
1027.79
1026.29
1024.78
1023.27
1021.77
1020.26
1018.75
1017.24
1015.74
1014.22
1012.74
1011.19
1009.72
1008.19
1006.69
1005.18
1003.74
1002.2
1000.38
1500.56
1504.02
1498.42
1504.47
1499.73
1502.9
1501.32
1502.2
1501.69
1501.91
1501.76
1501.75
1501.67
1501.59
1501.49
1501.38
1501.26
1501.12
1500.98
1500.82
1500.65
1500.47
1500.28
1500.08
1499.87
1499.66
1499.44
1499.21
1498.97
1498.73
1498.48
1498.23
1497.97
1497.7
1497.43
1497.16
1496.87
1496.59
1496.3
1496
1495.7
1495.39
1495.08
1494.76
1494.44
1494.11
1493.78
1493.45
1493.11
1492.77
1492.42
1492.07
1491.71
1491.35
1490.98
1490.61
1490.24
1489.86
1489.48
1489.09
1488.7
1488.3
1487.9
1487.5
1487.09
1486.68
1486.26
1485.84
1485.41
1484.98
1484.55
1484.11
1483.67
1483.22
1482.77
1482.32
1481.86
1481.39
1480.93
1480.45
1479.98
1479.5
1479.01
1478.53
1478.03
1477.54
1477.03
1476.53
1476.02
1475.51
1474.99
1474.47
1473.94
1473.41
1472.88
1472.34
1471.79
1471.25
1470.7
1470.14
1469.58
1469.02
1468.45
1467.88
1467.3
1466.72
1466.14
1465.55
1464.96
1464.36
1463.76
1463.16
1462.55
1461.94
1461.32
1460.7
1460.08
1459.45
1458.82
1458.18
1457.54
1456.89
1456.24
1455.59
1454.93
1454.27
1453.61
1452.94
1452.27
1451.59
1450.91
1450.22
1449.54
1448.84
1448.15
1447.45
1446.74
1446.03
1445.32
1444.6
1443.88
1443.16
1442.43
1441.7
1440.96
1440.22
1439.48
1438.73
1437.98
1437.23
1436.47
1435.7
1434.94
1434.17
1433.39
1432.61
1431.83
1431.04
1430.25
1429.46
1428.66
1427.86
1427.06
1426.25
1425.43
1424.62
1423.8
1422.97
1422.15
1421.32
1420.48
1419.64
1418.8
1417.95
1417.1
1416.25
1415.39
1414.53
1413.67
1412.8
1411.93
1411.05
1410.17
1409.29
1408.4
1407.51
1406.62
1405.72
1404.82
1403.92
1403.01
1402.1
1401.18
1400.26
1399.34
1398.42
1397.49
1396.55
1395.62
1394.68
1393.73
1392.79
1391.84
1390.88
1389.93
1388.96
1388
1387.03
1386.06
1385.09
1384.11
1383.13
1382.14
1381.16
1380.16
1379.17
1378.17
1377.17
1376.16
1375.16
1374.14
1373.13
1372.11
1371.09
1370.06
1369.04
1368
1366.97
1365.93
1364.89
1363.85
1362.8
1361.75
1360.69
1359.64
1358.58
1357.51
1356.45
1355.37
1354.3
1353.23
1352.15
1351.06
1349.98
1348.89
1347.8
1346.7
1345.6
1344.5
1343.4
1342.29
1341.18
1340.07
1338.95
1337.83
1336.71
1335.59
1334.46
1333.32
1332.19
1331.05
1329.91
1328.77
1327.62
1326.48
1325.32
1324.17
1323.01
1321.85
1320.69
1319.52
1318.35
1317.18
1316.01
1314.83
1313.65
1312.46
1311.28
1310.09
1308.9
1307.7
1306.51
1305.31
1304.1
1302.9
1301.69
1300.48
1299.27
1298.05
1296.83
1295.61
1294.39
1293.16
1291.93
1290.7
1289.47
1288.23
1286.99
1285.75
1284.51
1283.26
1282.01
1280.76
1279.5
1278.25
1276.99
1275.72
1274.46
1273.19
1271.92
1270.65
1269.38
1268.1
1266.82
1265.54
1264.26
1262.97
1261.68
1260.39
1259.1
1257.8
1256.51
1255.21
1253.9
1252.6
1251.29
1249.98
1248.67
1247.36
1246.04
1244.73
1243.41
1242.08
1240.76
1239.43
1238.11
1236.78
1235.44
1234.11
1232.77
1231.43
1230.09
1228.75
1227.4
1226.05
1224.71
1223.35
1222
1220.65
1219.29
1217.93
1216.57
1215.21
1213.84
1212.47
1211.1
1209.73
1208.36
1206.99
1205.61
1204.23
1202.85
1201.47
1200.09
1198.7
1197.32
1195.93
1194.54
1193.14
1191.75
1190.35
1188.96
1187.56
1186.16
1184.75
1183.35
1181.95
1180.54
1179.13
1177.72
1176.31
1174.89
1173.48
1172.06
1170.64
1169.22
1167.8
1166.38
1164.95
1163.53
1162.1
1160.67
1159.24
1157.81
1156.38
1154.94
1153.51
1152.07
1150.63
1149.19
1147.75
1146.31
1144.86
1143.42
1141.97
1140.52
1139.08
1137.63
1136.17
1134.72
1133.27
1131.81
1130.36
1128.9
1127.44
1125.98
1124.52
1123.06
1121.6
1120.13
1118.67
1117.2
1115.73
1114.27
1112.8
1111.33
1109.85
1108.38
1106.91
1105.43
1103.96
1102.48
1101.01
1099.53
1098.05
1096.57
1095.09
1093.61
1092.13
1090.64
1089.16
1087.68
1086.19
1084.7
1083.22
1081.73
1080.24
1078.75
1077.26
1075.77
1074.28
1072.79
1071.3
1069.8
1068.31
1066.82
1065.32
1063.82
1062.33
1060.83
1059.33
1057.84
1056.34
1054.84
1053.34
1051.84
1050.34
1048.84
1047.34
1045.84
1044.34
1042.83
1041.33
1039.83
1038.33
1036.82
1035.32
1033.81
1032.31
1030.8
1029.3
1027.79
1026.29
1024.78
1023.27
1021.77
1020.26
1018.75
1017.24
1015.74
1014.22
1012.74
1011.2
1009.72
1008.19
1006.69
1005.19
1003.75
1002.2
1000.38
1500.36
1503.84
1498.29
1504.39
1499.68
1502.86
1501.29
1502.18
1501.67
1501.89
1501.74
1501.73
1501.65
1501.58
1501.48
1501.37
1501.25
1501.11
1500.96
1500.8
1500.63
1500.45
1500.26
1500.07
1499.86
1499.65
1499.43
1499.2
1498.97
1498.72
1498.48
1498.22
1497.96
1497.7
1497.43
1497.15
1496.87
1496.58
1496.29
1495.99
1495.69
1495.38
1495.07
1494.76
1494.44
1494.11
1493.78
1493.45
1493.11
1492.76
1492.42
1492.06
1491.71
1491.35
1490.98
1490.61
1490.24
1489.86
1489.48
1489.09
1488.7
1488.3
1487.9
1487.5
1487.09
1486.68
1486.26
1485.84
1485.41
1484.98
1484.55
1484.11
1483.67
1483.22
1482.77
1482.32
1481.86
1481.39
1480.93
1480.45
1479.98
1479.5
1479.01
1478.52
1478.03
1477.53
1477.03
1476.53
1476.02
1475.51
1474.99
1474.47
1473.94
1473.41
1472.88
1472.34
1471.79
1471.25
1470.7
1470.14
1469.58
1469.02
1468.45
1467.88
1467.3
1466.72
1466.14
1465.55
1464.96
1464.36
1463.76
1463.16
1462.55
1461.94
1461.32
1460.7
1460.08
1459.45
1458.82
1458.18
1457.54
1456.89
1456.24
1455.59
1454.93
1454.27
1453.61
1452.94
1452.27
1451.59
1450.91
1450.22
1449.54
1448.84
1448.15
1447.45
1446.74
1446.03
1445.32
1444.6
1443.88
1443.16
1442.43
1441.7
1440.96
1440.22
1439.48
1438.73
1437.98
1437.23
1436.47
1435.7
1434.94
1434.17
1433.39
1432.61
1431.83
1431.04
1430.25
1429.46
1428.66
1427.86
1427.06
1426.25
1425.43
1424.62
1423.8
1422.97
1422.15
1421.32
1420.48
1419.64
1418.8
1417.95
1417.1
1416.25
1415.39
1414.53
1413.67
1412.8
1411.93
1411.05
1410.17
1409.29
1408.4
1407.51
1406.62
1405.72
1404.82
1403.92
1403.01
1402.1
1401.18
1400.26
1399.34
1398.42
1397.49
1396.55
1395.62
1394.68
1393.73
1392.79
1391.84