/*--------------------------------*- C++ -*----------------------------------*\
| =========                 |                                                 |
| \\      /  F ield         | OpenFOAM: The Open Source CFD Toolbox           |
|  \\    /   O peration     | Version:  2012                                  |
|   \\  /    A nd           | Website:  www.openfoam.com                      |
|    \\/     M anipulation  |                                                 |
\*---------------------------------------------------------------------------*/
FoamFile
{
    version     2.0;
    format      ascii;
    class       volScalarField;
    location    "0.2";
    object      rho2;
}
// * * * * * * * * * * * * * * * * * * * * * * * * * * * * * * * * * * * * * //

dimensions      [1 -3 0 0 0 0 0];


internalField   nonuniform List<scalar> 
20400
(
0.0178553
0.0178924
0.0178291
0.0178961
0.0178433
0.0178781
0.0178605
0.0178698
0.0178637
0.0178658
0.0178635
0.0178631
0.0178616
0.0178604
0.017859
0.0178573
0.0178556
0.0178537
0.0178517
0.0178496
0.0178474
0.0178451
0.0178428
0.0178403
0.0178377
0.0178351
0.0178323
0.0178295
0.0178267
0.0178237
0.0178207
0.0178176
0.0178145
0.0178113
0.017808
0.0178047
0.0178013
0.0177978
0.0177943
0.0177907
0.0177871
0.0177834
0.0177797
0.0177759
0.017772
0.0177681
0.0177642
0.0177602
0.0177561
0.017752
0.0177479
0.0177437
0.0177394
0.0177351
0.0177307
0.0177263
0.0177219
0.0177174
0.0177128
0.0177082
0.0177035
0.0176988
0.017694
0.0176892
0.0176844
0.0176795
0.0176745
0.0176695
0.0176644
0.0176593
0.0176541
0.0176489
0.0176437
0.0176383
0.017633
0.0176276
0.0176221
0.0176166
0.017611
0.0176054
0.0175997
0.017594
0.0175883
0.0175825
0.0175766
0.0175707
0.0175647
0.0175587
0.0175527
0.0175465
0.0175404
0.0175342
0.0175279
0.0175216
0.0175153
0.0175089
0.0175024
0.0174959
0.0174893
0.0174827
0.0174761
0.0174694
0.0174626
0.0174558
0.017449
0.0174421
0.0174352
0.0174282
0.0174211
0.017414
0.0174069
0.0173997
0.0173925
0.0173852
0.0173779
0.0173705
0.0173631
0.0173556
0.017348
0.0173405
0.0173329
0.0173252
0.0173175
0.0173097
0.0173019
0.017294
0.0172861
0.0172782
0.0172702
0.0172621
0.017254
0.0172459
0.0172377
0.0172295
0.0172212
0.0172128
0.0172045
0.017196
0.0171876
0.0171791
0.0171705
0.0171619
0.0171532
0.0171445
0.0171358
0.017127
0.0171181
0.0171092
0.0171003
0.0170913
0.0170823
0.0170732
0.0170641
0.0170549
0.0170457
0.0170365
0.0170271
0.0170178
0.0170084
0.016999
0.0169895
0.01698
0.0169704
0.0169608
0.0169511
0.0169414
0.0169316
0.0169218
0.016912
0.0169021
0.0168922
0.0168822
0.0168722
0.0168621
0.016852
0.0168419
0.0168317
0.0168215
0.0168112
0.0168008
0.0167905
0.0167801
0.0167696
0.0167591
0.0167486
0.016738
0.0167274
0.0167167
0.0167059
0.0166952
0.0166844
0.0166736
0.0166627
0.0166518
0.0166408
0.0166298
0.0166187
0.0166076
0.0165965
0.0165853
0.0165741
0.0165628
0.0165515
0.0165402
0.0165288
0.0165174
0.0165059
0.0164944
0.0164829
0.0164713
0.0164596
0.016448
0.0164363
0.0164245
0.0164127
0.0164009
0.016389
0.0163771
0.0163652
0.0163532
0.0163411
0.0163291
0.016317
0.0163048
0.0162926
0.0162804
0.0162681
0.0162558
0.0162435
0.0162311
0.0162187
0.0162062
0.0161937
0.0161812
0.0161686
0.016156
0.0161434
0.0161307
0.016118
0.0161052
0.0160924
0.0160795
0.0160667
0.0160538
0.0160408
0.0160278
0.0160148
0.0160018
0.0159887
0.0159755
0.0159624
0.0159492
0.0159359
0.0159226
0.0159093
0.015896
0.0158826
0.0158692
0.0158557
0.0158422
0.0158287
0.0158152
0.0158016
0.0157879
0.0157743
0.0157606
0.0157469
0.0157331
0.0157193
0.0157054
0.0156916
0.0156777
0.0156637
0.0156498
0.0156358
0.0156217
0.0156077
0.0155936
0.0155794
0.0155653
0.0155511
0.0155368
0.0155225
0.0155082
0.0154939
0.0154796
0.0154652
0.0154507
0.0154363
0.0154218
0.0154073
0.0153927
0.0153781
0.0153635
0.0153489
0.0153342
0.0153195
0.0153047
0.01529
0.0152752
0.0152603
0.0152455
0.0152306
0.0152157
0.0152007
0.0151858
0.0151707
0.0151557
0.0151407
0.0151256
0.0151104
0.0150953
0.0150801
0.0150649
0.0150497
0.0150344
0.0150191
0.0150038
0.0149884
0.0149731
0.0149577
0.0149422
0.0149268
0.0149113
0.0148958
0.0148802
0.0148647
0.0148491
0.0148335
0.0148178
0.0148021
0.0147864
0.0147707
0.014755
0.0147392
0.0147234
0.0147076
0.0146917
0.0146759
0.01466
0.014644
0.0146281
0.0146121
0.0145961
0.0145801
0.014564
0.014548
0.0145319
0.0145158
0.0144996
0.0144835
0.0144673
0.0144511
0.0144348
0.0144186
0.0144023
0.014386
0.0143697
0.0143533
0.014337
0.0143206
0.0143042
0.0142878
0.0142713
0.0142548
0.0142383
0.0142218
0.0142053
0.0141887
0.0141722
0.0141555
0.0141389
0.0141223
0.0141056
0.014089
0.0140723
0.0140555
0.0140388
0.0140221
0.0140053
0.0139885
0.0139717
0.0139548
0.013938
0.0139211
0.0139042
0.0138874
0.0138704
0.0138535
0.0138365
0.0138196
0.0138026
0.0137856
0.0137685
0.0137515
0.0137344
0.0137174
0.0137003
0.0136832
0.013666
0.0136489
0.0136318
0.0136146
0.0135974
0.0135802
0.013563
0.0135457
0.0135285
0.0135113
0.013494
0.0134767
0.0134594
0.0134421
0.0134247
0.0134074
0.01339
0.0133727
0.0133553
0.0133379
0.0133205
0.013303
0.0132856
0.0132682
0.0132507
0.0132332
0.0132158
0.0131982
0.0131808
0.0131632
0.0131457
0.0131282
0.0131106
0.013093
0.0130755
0.0130579
0.0130403
0.0130227
0.0130051
0.0129874
0.0129698
0.0129522
0.0129345
0.0129168
0.0128992
0.0128815
0.0128638
0.0128461
0.0128284
0.0128107
0.0127929
0.0127752
0.0127575
0.0127397
0.012722
0.0127042
0.0126864
0.0126687
0.0126509
0.0126331
0.0126153
0.0125975
0.0125797
0.0125619
0.012544
0.0125262
0.0125084
0.0124905
0.0124727
0.0124548
0.012437
0.0124191
0.0124013
0.0123834
0.0123655
0.0123476
0.0123297
0.0123119
0.012294
0.0122761
0.0122582
0.0122403
0.0122224
0.0122044
0.0121865
0.0121686
0.0121507
0.0121328
0.0121148
0.0120969
0.012079
0.0120609
0.0120432
0.0120249
0.0120072
0.011989
0.0119709
0.0119529
0.0119352
0.0119167
0.0118961
0.017849
0.0178896
0.0178254
0.0178958
0.0178402
0.0178766
0.0178579
0.0178676
0.0178612
0.0178635
0.0178612
0.017861
0.0178597
0.0178586
0.0178573
0.0178559
0.0178543
0.0178525
0.0178507
0.0178487
0.0178466
0.0178444
0.0178421
0.0178397
0.0178372
0.0178346
0.017832
0.0178292
0.0178264
0.0178235
0.0178205
0.0178175
0.0178144
0.0178112
0.0178079
0.0178046
0.0178012
0.0177978
0.0177943
0.0177908
0.0177871
0.0177835
0.0177797
0.0177759
0.0177721
0.0177682
0.0177643
0.0177603
0.0177562
0.0177521
0.0177479
0.0177437
0.0177395
0.0177351
0.0177308
0.0177264
0.0177219
0.0177174
0.0177128
0.0177082
0.0177035
0.0176988
0.0176941
0.0176892
0.0176844
0.0176795
0.0176745
0.0176695
0.0176644
0.0176593
0.0176541
0.0176489
0.0176437
0.0176383
0.017633
0.0176276
0.0176221
0.0176166
0.017611
0.0176054
0.0175997
0.017594
0.0175883
0.0175825
0.0175766
0.0175707
0.0175647
0.0175587
0.0175527
0.0175465
0.0175404
0.0175342
0.0175279
0.0175216
0.0175153
0.0175089
0.0175024
0.0174959
0.0174893
0.0174827
0.0174761
0.0174694
0.0174626
0.0174558
0.017449
0.0174421
0.0174352
0.0174282
0.0174211
0.017414
0.0174069
0.0173997
0.0173925
0.0173852
0.0173779
0.0173705
0.017363
0.0173556
0.017348
0.0173405
0.0173329
0.0173252
0.0173175
0.0173097
0.0173019
0.017294
0.0172861
0.0172782
0.0172702
0.0172621
0.017254
0.0172459
0.0172377
0.0172295
0.0172212
0.0172128
0.0172045
0.017196
0.0171876
0.0171791
0.0171705
0.0171619
0.0171532
0.0171445
0.0171358
0.017127
0.0171181
0.0171092
0.0171003
0.0170913
0.0170823
0.0170732
0.0170641
0.0170549
0.0170457
0.0170364
0.0170271
0.0170178
0.0170084
0.016999
0.0169895
0.01698
0.0169704
0.0169608
0.0169511
0.0169414
0.0169316
0.0169218
0.016912
0.0169021
0.0168922
0.0168822
0.0168722
0.0168621
0.016852
0.0168419
0.0168317
0.0168214
0.0168112
0.0168008
0.0167905
0.0167801
0.0167696
0.0167591
0.0167486
0.016738
0.0167274
0.0167167
0.016706
0.0166952
0.0166844
0.0166736
0.0166627
0.0166518
0.0166408
0.0166298
0.0166187
0.0166076
0.0165965
0.0165853
0.0165741
0.0165629
0.0165515
0.0165402
0.0165288
0.0165174
0.0165059
0.0164944
0.0164829
0.0164713
0.0164597
0.016448
0.0164363
0.0164245
0.0164127
0.0164009
0.016389
0.0163771
0.0163652
0.0163532
0.0163411
0.0163291
0.016317
0.0163048
0.0162926
0.0162804
0.0162681
0.0162558
0.0162435
0.0162311
0.0162187
0.0162062
0.0161937
0.0161812
0.0161686
0.016156
0.0161434
0.0161307
0.016118
0.0161052
0.0160924
0.0160795
0.0160667
0.0160538
0.0160408
0.0160278
0.0160148
0.0160018
0.0159887
0.0159755
0.0159624
0.0159492
0.0159359
0.0159226
0.0159093
0.015896
0.0158826
0.0158692
0.0158557
0.0158422
0.0158287
0.0158152
0.0158016
0.0157879
0.0157743
0.0157606
0.0157468
0.0157331
0.0157193
0.0157054
0.0156916
0.0156777
0.0156637
0.0156498
0.0156358
0.0156217
0.0156077
0.0155936
0.0155794
0.0155653
0.015551
0.0155368
0.0155225
0.0155082
0.0154939
0.0154796
0.0154652
0.0154507
0.0154363
0.0154218
0.0154073
0.0153927
0.0153781
0.0153635
0.0153489
0.0153342
0.0153195
0.0153047
0.01529
0.0152752
0.0152603
0.0152455
0.0152306
0.0152157
0.0152007
0.0151858
0.0151707
0.0151557
0.0151407
0.0151256
0.0151104
0.0150953
0.0150801
0.0150649
0.0150497
0.0150344
0.0150191
0.0150038
0.0149884
0.0149731
0.0149577
0.0149422
0.0149268
0.0149113
0.0148958
0.0148802
0.0148647
0.0148491
0.0148335
0.0148178
0.0148021
0.0147864
0.0147707
0.014755
0.0147392
0.0147234
0.0147076
0.0146917
0.0146759
0.01466
0.014644
0.0146281
0.0146121
0.0145961
0.0145801
0.014564
0.014548
0.0145319
0.0145158
0.0144996
0.0144835
0.0144673
0.0144511
0.0144348
0.0144186
0.0144023
0.014386
0.0143697
0.0143533
0.014337
0.0143206
0.0143042
0.0142878
0.0142713
0.0142548
0.0142383
0.0142218
0.0142053
0.0141887
0.0141722
0.0141555
0.0141389
0.0141223
0.0141056
0.014089
0.0140723
0.0140555
0.0140388
0.0140221
0.0140053
0.0139885
0.0139717
0.0139548
0.013938
0.0139211
0.0139042
0.0138874
0.0138704
0.0138535
0.0138365
0.0138196
0.0138026
0.0137856
0.0137685
0.0137515
0.0137344
0.0137174
0.0137003
0.0136832
0.013666
0.0136489
0.0136318
0.0136146
0.0135974
0.0135802
0.013563
0.0135458
0.0135285
0.0135112
0.013494
0.0134767
0.0134594
0.0134421
0.0134247
0.0134074
0.01339
0.0133727
0.0133553
0.0133379
0.0133205
0.013303
0.0132856
0.0132682
0.0132507
0.0132332
0.0132158
0.0131982
0.0131807
0.0131632
0.0131457
0.0131282
0.0131106
0.013093
0.0130755
0.0130579
0.0130403
0.0130227
0.0130051
0.0129874
0.0129698
0.0129522
0.0129345
0.0129168
0.0128992
0.0128815
0.0128638
0.0128461
0.0128284
0.0128107
0.0127929
0.0127752
0.0127575
0.0127397
0.012722
0.0127042
0.0126864
0.0126687
0.0126509
0.0126331
0.0126153
0.0125975
0.0125797
0.0125619
0.012544
0.0125262
0.0125084
0.0124905
0.0124727
0.0124548
0.012437
0.0124191
0.0124013
0.0123834
0.0123655
0.0123476
0.0123297
0.0123119
0.012294
0.0122761
0.0122582
0.0122403
0.0122224
0.0122044
0.0121865
0.0121686
0.0121507
0.0121328
0.0121148
0.0120969
0.012079
0.0120609
0.0120432
0.0120249
0.0120072
0.011989
0.011971
0.011953
0.0119355
0.0119172
0.0118961
0.0178505
0.0178906
0.0178245
0.0178952
0.0178394
0.0178762
0.0178573
0.0178673
0.0178609
0.0178633
0.0178611
0.0178609
0.0178596
0.0178585
0.0178572
0.0178558
0.0178542
0.0178524
0.0178506
0.0178486
0.0178465
0.0178443
0.017842
0.0178395
0.017837
0.0178344
0.0178318
0.017829
0.0178262
0.0178232
0.0178202
0.0178172
0.0178141
0.0178109
0.0178076
0.0178043
0.0178009
0.0177975
0.017794
0.0177904
0.0177868
0.0177832
0.0177794
0.0177757
0.0177718
0.017768
0.017764
0.01776
0.017756
0.0177519
0.0177478
0.0177436
0.0177393
0.017735
0.0177307
0.0177263
0.0177218
0.0177173
0.0177127
0.0177081
0.0177035
0.0176988
0.017694
0.0176892
0.0176843
0.0176794
0.0176745
0.0176695
0.0176644
0.0176593
0.0176541
0.0176489
0.0176436
0.0176383
0.017633
0.0176276
0.0176221
0.0176166
0.017611
0.0176054
0.0175997
0.017594
0.0175883
0.0175825
0.0175766
0.0175707
0.0175647
0.0175587
0.0175527
0.0175465
0.0175404
0.0175342
0.0175279
0.0175216
0.0175153
0.0175089
0.0175024
0.0174959
0.0174893
0.0174827
0.0174761
0.0174694
0.0174626
0.0174558
0.017449
0.0174421
0.0174352
0.0174282
0.0174211
0.017414
0.0174069
0.0173997
0.0173925
0.0173852
0.0173779
0.0173705
0.0173631
0.0173556
0.017348
0.0173405
0.0173329
0.0173252
0.0173175
0.0173097
0.0173019
0.017294
0.0172861
0.0172782
0.0172702
0.0172621
0.017254
0.0172459
0.0172377
0.0172295
0.0172212
0.0172128
0.0172045
0.017196
0.0171876
0.017179
0.0171705
0.0171619
0.0171532
0.0171445
0.0171358
0.017127
0.0171181
0.0171092
0.0171003
0.0170913
0.0170823
0.0170732
0.0170641
0.0170549
0.0170457
0.0170364
0.0170272
0.0170178
0.0170084
0.016999
0.0169895
0.01698
0.0169704
0.0169608
0.0169511
0.0169414
0.0169316
0.0169218
0.016912
0.0169021
0.0168922
0.0168822
0.0168722
0.0168621
0.016852
0.0168419
0.0168317
0.0168214
0.0168112
0.0168008
0.0167905
0.01678
0.0167696
0.0167591
0.0167486
0.016738
0.0167274
0.0167167
0.016706
0.0166952
0.0166844
0.0166736
0.0166627
0.0166518
0.0166408
0.0166298
0.0166187
0.0166076
0.0165965
0.0165853
0.0165741
0.0165629
0.0165515
0.0165402
0.0165288
0.0165174
0.0165059
0.0164944
0.0164829
0.0164713
0.0164597
0.016448
0.0164363
0.0164245
0.0164127
0.0164009
0.016389
0.0163771
0.0163652
0.0163532
0.0163411
0.0163291
0.016317
0.0163048
0.0162926
0.0162804
0.0162681
0.0162558
0.0162435
0.0162311
0.0162187
0.0162062
0.0161937
0.0161812
0.0161686
0.016156
0.0161434
0.0161307
0.016118
0.0161052
0.0160924
0.0160796
0.0160667
0.0160538
0.0160408
0.0160278
0.0160148
0.0160018
0.0159887
0.0159755
0.0159624
0.0159492
0.0159359
0.0159227
0.0159093
0.015896
0.0158826
0.0158692
0.0158557
0.0158422
0.0158287
0.0158152
0.0158016
0.0157879
0.0157743
0.0157606
0.0157469
0.0157331
0.0157193
0.0157054
0.0156916
0.0156777
0.0156637
0.0156498
0.0156358
0.0156217
0.0156077
0.0155936
0.0155794
0.0155653
0.0155511
0.0155368
0.0155225
0.0155082
0.0154939
0.0154796
0.0154652
0.0154507
0.0154363
0.0154218
0.0154073
0.0153927
0.0153781
0.0153635
0.0153489
0.0153342
0.0153195
0.0153047
0.01529
0.0152752
0.0152603
0.0152455
0.0152306
0.0152157
0.0152007
0.0151858
0.0151708
0.0151557
0.0151407
0.0151256
0.0151104
0.0150953
0.0150801
0.0150649
0.0150497
0.0150344
0.0150191
0.0150038
0.0149884
0.0149731
0.0149577
0.0149422
0.0149268
0.0149113
0.0148958
0.0148802
0.0148647
0.0148491
0.0148335
0.0148178
0.0148021
0.0147864
0.0147707
0.014755
0.0147392
0.0147234
0.0147076
0.0146917
0.0146759
0.01466
0.014644
0.0146281
0.0146121
0.0145961
0.0145801
0.014564
0.014548
0.0145319
0.0145158
0.0144996
0.0144835
0.0144673
0.0144511
0.0144348
0.0144186
0.0144023
0.014386
0.0143697
0.0143533
0.014337
0.0143206
0.0143042
0.0142878
0.0142713
0.0142548
0.0142383
0.0142218
0.0142053
0.0141887
0.0141722
0.0141555
0.0141389
0.0141223
0.0141056
0.014089
0.0140723
0.0140555
0.0140388
0.0140221
0.0140053
0.0139885
0.0139717
0.0139548
0.013938
0.0139211
0.0139042
0.0138874
0.0138704
0.0138535
0.0138365
0.0138196
0.0138026
0.0137856
0.0137685
0.0137515
0.0137344
0.0137174
0.0137003
0.0136832
0.013666
0.0136489
0.0136318
0.0136146
0.0135974
0.0135802
0.013563
0.0135457
0.0135285
0.0135112
0.013494
0.0134767
0.0134594
0.0134421
0.0134247
0.0134074
0.01339
0.0133727
0.0133553
0.0133379
0.0133205
0.013303
0.0132856
0.0132682
0.0132507
0.0132332
0.0132158
0.0131982
0.0131807
0.0131632
0.0131457
0.0131282
0.0131106
0.013093
0.0130755
0.0130579
0.0130403
0.0130227
0.0130051
0.0129874
0.0129698
0.0129522
0.0129345
0.0129168
0.0128992
0.0128815
0.0128638
0.0128461
0.0128284
0.0128107
0.0127929
0.0127752
0.0127575
0.0127397
0.012722
0.0127042
0.0126864
0.0126687
0.0126509
0.0126331
0.0126153
0.0125975
0.0125797
0.0125619
0.012544
0.0125262
0.0125084
0.0124905
0.0124727
0.0124548
0.012437
0.0124191
0.0124013
0.0123834
0.0123655
0.0123476
0.0123297
0.0123119
0.012294
0.0122761
0.0122582
0.0122403
0.0122224
0.0122044
0.0121865
0.0121686
0.0121507
0.0121328
0.0121148
0.0120969
0.012079
0.0120609
0.0120433
0.0120249
0.0120072
0.011989
0.0119711
0.0119531
0.0119358
0.0119175
0.0118963
0.0178478
0.0178886
0.0178226
0.0178946
0.017838
0.0178753
0.0178562
0.0178663
0.0178599
0.0178623
0.0178602
0.01786
0.0178588
0.0178578
0.0178565
0.0178551
0.0178536
0.0178519
0.0178501
0.0178481
0.0178461
0.0178439
0.0178416
0.0178392
0.0178368
0.0178342
0.0178315
0.0178288
0.017826
0.0178231
0.0178201
0.0178171
0.017814
0.0178108
0.0178076
0.0178043
0.0178009
0.0177975
0.017794
0.0177904
0.0177868
0.0177832
0.0177794
0.0177757
0.0177718
0.017768
0.017764
0.01776
0.017756
0.0177519
0.0177478
0.0177436
0.0177393
0.017735
0.0177307
0.0177263
0.0177218
0.0177173
0.0177127
0.0177081
0.0177035
0.0176988
0.017694
0.0176892
0.0176843
0.0176794
0.0176745
0.0176694
0.0176644
0.0176593
0.0176541
0.0176489
0.0176436
0.0176383
0.017633
0.0176275
0.0176221
0.0176166
0.017611
0.0176054
0.0175997
0.017594
0.0175883
0.0175824
0.0175766
0.0175707
0.0175647
0.0175587
0.0175526
0.0175465
0.0175404
0.0175342
0.0175279
0.0175216
0.0175153
0.0175089
0.0175024
0.0174959
0.0174893
0.0174827
0.0174761
0.0174694
0.0174626
0.0174558
0.017449
0.0174421
0.0174352
0.0174282
0.0174211
0.017414
0.0174069
0.0173997
0.0173925
0.0173852
0.0173779
0.0173705
0.0173631
0.0173556
0.017348
0.0173405
0.0173329
0.0173252
0.0173175
0.0173097
0.0173019
0.017294
0.0172861
0.0172782
0.0172702
0.0172621
0.017254
0.0172459
0.0172377
0.0172295
0.0172212
0.0172129
0.0172045
0.017196
0.0171876
0.017179
0.0171705
0.0171619
0.0171532
0.0171445
0.0171358
0.017127
0.0171181
0.0171092
0.0171003
0.0170913
0.0170823
0.0170732
0.0170641
0.0170549
0.0170457
0.0170364
0.0170272
0.0170178
0.0170084
0.016999
0.0169895
0.01698
0.0169704
0.0169608
0.0169511
0.0169414
0.0169316
0.0169218
0.016912
0.0169021
0.0168922
0.0168822
0.0168722
0.0168621
0.016852
0.0168419
0.0168317
0.0168214
0.0168112
0.0168008
0.0167905
0.0167801
0.0167696
0.0167591
0.0167486
0.016738
0.0167274
0.0167167
0.016706
0.0166952
0.0166844
0.0166736
0.0166627
0.0166518
0.0166408
0.0166298
0.0166187
0.0166076
0.0165965
0.0165853
0.0165741
0.0165629
0.0165515
0.0165402
0.0165288
0.0165174
0.0165059
0.0164944
0.0164829
0.0164713
0.0164597
0.016448
0.0164363
0.0164245
0.0164127
0.0164009
0.016389
0.0163771
0.0163652
0.0163532
0.0163411
0.0163291
0.016317
0.0163048
0.0162926
0.0162804
0.0162681
0.0162558
0.0162435
0.0162311
0.0162187
0.0162062
0.0161937
0.0161812
0.0161686
0.016156
0.0161434
0.0161307
0.016118
0.0161052
0.0160924
0.0160796
0.0160667
0.0160538
0.0160408
0.0160278
0.0160148
0.0160018
0.0159887
0.0159755
0.0159624
0.0159492
0.0159359
0.0159226
0.0159094
0.015896
0.0158826
0.0158692
0.0158557
0.0158423
0.0158287
0.0158152
0.0158016
0.0157879
0.0157743
0.0157606
0.0157469
0.0157331
0.0157193
0.0157054
0.0156916
0.0156777
0.0156637
0.0156498
0.0156358
0.0156217
0.0156077
0.0155936
0.0155794
0.0155653
0.015551
0.0155368
0.0155225
0.0155082
0.0154939
0.0154796
0.0154652
0.0154507
0.0154363
0.0154218
0.0154073
0.0153927
0.0153781
0.0153635
0.0153489
0.0153342
0.0153195
0.0153047
0.01529
0.0152752
0.0152604
0.0152455
0.0152306
0.0152157
0.0152007
0.0151858
0.0151707
0.0151557
0.0151407
0.0151256
0.0151104
0.0150953
0.0150801
0.0150649
0.0150497
0.0150344
0.0150191
0.0150038
0.0149884
0.0149731
0.0149577
0.0149422
0.0149268
0.0149113
0.0148958
0.0148802
0.0148647
0.0148491
0.0148335
0.0148178
0.0148021
0.0147864
0.0147707
0.014755
0.0147392
0.0147234
0.0147076
0.0146917
0.0146759
0.01466
0.014644
0.0146281
0.0146121
0.0145961
0.0145801
0.014564
0.014548
0.0145319
0.0145158
0.0144996
0.0144835
0.0144673
0.0144511
0.0144348
0.0144186
0.0144023
0.014386
0.0143697
0.0143533
0.014337
0.0143206
0.0143042
0.0142878
0.0142713
0.0142548
0.0142383
0.0142218
0.0142053
0.0141887
0.0141722
0.0141555
0.0141389
0.0141223
0.0141056
0.014089
0.0140723
0.0140555
0.0140388
0.0140221
0.0140053
0.0139885
0.0139717
0.0139548
0.013938
0.0139211
0.0139042
0.0138873
0.0138704
0.0138535
0.0138365
0.0138196
0.0138026
0.0137856
0.0137685
0.0137515
0.0137344
0.0137174
0.0137003
0.0136832
0.013666
0.0136489
0.0136317
0.0136146
0.0135974
0.0135802
0.013563
0.0135457
0.0135285
0.0135112
0.013494
0.0134767
0.0134594
0.0134421
0.0134247
0.0134074
0.01339
0.0133727
0.0133553
0.0133379
0.0133205
0.013303
0.0132856
0.0132682
0.0132507
0.0132332
0.0132158
0.0131982
0.0131807
0.0131632
0.0131457
0.0131281
0.0131106
0.013093
0.0130755
0.0130579
0.0130403
0.0130227
0.0130051
0.0129874
0.0129698
0.0129522
0.0129345
0.0129168
0.0128992
0.0128815
0.0128638
0.0128461
0.0128284
0.0128107
0.0127929
0.0127752
0.0127575
0.0127397
0.012722
0.0127042
0.0126864
0.0126687
0.0126509
0.0126331
0.0126153
0.0125975
0.0125797
0.0125619
0.012544
0.0125262
0.0125084
0.0124905
0.0124727
0.0124548
0.012437
0.0124191
0.0124013
0.0123834
0.0123655
0.0123476
0.0123297
0.0123119
0.012294
0.0122761
0.0122582
0.0122403
0.0122224
0.0122045
0.0121865
0.0121686
0.0121507
0.0121328
0.0121149
0.0120969
0.012079
0.012061
0.0120433
0.0120249
0.0120073
0.0119891
0.0119712
0.0119533
0.0119361
0.0119177
0.0118964
0.0178475
0.0178883
0.0178217
0.0178934
0.017837
0.0178744
0.0178555
0.0178658
0.0178594
0.0178619
0.0178598
0.0178597
0.0178585
0.0178575
0.0178563
0.0178549
0.0178534
0.0178517
0.0178499
0.017848
0.0178459
0.0178438
0.0178415
0.0178391
0.0178366
0.0178341
0.0178314
0.0178287
0.0178259
0.017823
0.01782
0.017817
0.0178139
0.0178107
0.0178074
0.0178041
0.0178008
0.0177974
0.0177939
0.0177903
0.0177867
0.0177831
0.0177794
0.0177756
0.0177718
0.0177679
0.017764
0.01776
0.0177559
0.0177519
0.0177477
0.0177435
0.0177393
0.017735
0.0177306
0.0177262
0.0177218
0.0177173
0.0177127
0.0177081
0.0177034
0.0176987
0.017694
0.0176892
0.0176843
0.0176794
0.0176744
0.0176694
0.0176644
0.0176593
0.0176541
0.0176489
0.0176436
0.0176383
0.0176329
0.0176275
0.0176221
0.0176166
0.017611
0.0176054
0.0175997
0.017594
0.0175883
0.0175824
0.0175766
0.0175707
0.0175647
0.0175587
0.0175526
0.0175465
0.0175404
0.0175342
0.0175279
0.0175216
0.0175153
0.0175089
0.0175024
0.0174959
0.0174893
0.0174827
0.0174761
0.0174694
0.0174626
0.0174558
0.017449
0.0174421
0.0174352
0.0174282
0.0174211
0.017414
0.0174069
0.0173997
0.0173925
0.0173852
0.0173779
0.0173705
0.0173631
0.0173556
0.017348
0.0173405
0.0173329
0.0173252
0.0173175
0.0173097
0.0173019
0.017294
0.0172861
0.0172782
0.0172702
0.0172621
0.017254
0.0172459
0.0172377
0.0172295
0.0172212
0.0172128
0.0172045
0.017196
0.0171876
0.017179
0.0171705
0.0171619
0.0171532
0.0171445
0.0171358
0.017127
0.0171181
0.0171092
0.0171003
0.0170913
0.0170823
0.0170732
0.0170641
0.0170549
0.0170457
0.0170365
0.0170271
0.0170178
0.0170084
0.016999
0.0169895
0.01698
0.0169704
0.0169608
0.0169511
0.0169414
0.0169316
0.0169218
0.016912
0.0169021
0.0168922
0.0168822
0.0168722
0.0168621
0.016852
0.0168419
0.0168317
0.0168214
0.0168112
0.0168008
0.0167905
0.01678
0.0167696
0.0167591
0.0167485
0.016738
0.0167274
0.0167167
0.016706
0.0166952
0.0166844
0.0166736
0.0166627
0.0166518
0.0166408
0.0166298
0.0166187
0.0166076
0.0165965
0.0165853
0.0165741
0.0165629
0.0165515
0.0165402
0.0165288
0.0165174
0.0165059
0.0164944
0.0164829
0.0164713
0.0164597
0.016448
0.0164363
0.0164245
0.0164127
0.0164009
0.016389
0.0163771
0.0163652
0.0163532
0.0163411
0.0163291
0.016317
0.0163048
0.0162926
0.0162804
0.0162681
0.0162558
0.0162435
0.0162311
0.0162187
0.0162062
0.0161937
0.0161812
0.0161686
0.016156
0.0161434
0.0161307
0.016118
0.0161052
0.0160924
0.0160795
0.0160667
0.0160538
0.0160408
0.0160278
0.0160148
0.0160018
0.0159887
0.0159755
0.0159624
0.0159492
0.0159359
0.0159226
0.0159093
0.015896
0.0158826
0.0158692
0.0158557
0.0158423
0.0158287
0.0158152
0.0158016
0.0157879
0.0157743
0.0157606
0.0157468
0.0157331
0.0157193
0.0157054
0.0156916
0.0156777
0.0156637
0.0156498
0.0156358
0.0156217
0.0156077
0.0155935
0.0155794
0.0155653
0.015551
0.0155368
0.0155225
0.0155082
0.0154939
0.0154796
0.0154652
0.0154507
0.0154363
0.0154218
0.0154073
0.0153927
0.0153781
0.0153635
0.0153489
0.0153342
0.0153195
0.0153047
0.01529
0.0152752
0.0152604
0.0152455
0.0152306
0.0152157
0.0152007
0.0151858
0.0151708
0.0151557
0.0151407
0.0151256
0.0151104
0.0150953
0.0150801
0.0150649
0.0150497
0.0150344
0.0150191
0.0150038
0.0149884
0.0149731
0.0149577
0.0149422
0.0149268
0.0149113
0.0148958
0.0148802
0.0148647
0.0148491
0.0148334
0.0148178
0.0148021
0.0147864
0.0147707
0.014755
0.0147392
0.0147234
0.0147076
0.0146917
0.0146759
0.01466
0.014644
0.0146281
0.0146121
0.0145961
0.0145801
0.014564
0.014548
0.0145319
0.0145158
0.0144996
0.0144835
0.0144673
0.0144511
0.0144348
0.0144186
0.0144023
0.014386
0.0143697
0.0143533
0.014337
0.0143206
0.0143042
0.0142878
0.0142713
0.0142548
0.0142383
0.0142218
0.0142053
0.0141887
0.0141722
0.0141555
0.0141389
0.0141223
0.0141056
0.014089
0.0140723
0.0140555
0.0140388
0.0140221
0.0140053
0.0139885
0.0139717
0.0139548
0.013938
0.0139211
0.0139042
0.0138873
0.0138704
0.0138535
0.0138365
0.0138196
0.0138026
0.0137856
0.0137685
0.0137515
0.0137344
0.0137174
0.0137003
0.0136832
0.013666
0.0136489
0.0136318
0.0136146
0.0135974
0.0135802
0.013563
0.0135458
0.0135285
0.0135112
0.013494
0.0134767
0.0134594
0.0134421
0.0134247
0.0134074
0.01339
0.0133727
0.0133553
0.0133379
0.0133205
0.0133031
0.0132856
0.0132682
0.0132507
0.0132332
0.0132158
0.0131982
0.0131807
0.0131632
0.0131457
0.0131282
0.0131106
0.013093
0.0130755
0.0130579
0.0130403
0.0130227
0.0130051
0.0129874
0.0129698
0.0129522
0.0129345
0.0129168
0.0128992
0.0128815
0.0128638
0.0128461
0.0128284
0.0128107
0.0127929
0.0127752
0.0127575
0.0127397
0.012722
0.0127042
0.0126864
0.0126687
0.0126509
0.0126331
0.0126153
0.0125975
0.0125797
0.0125619
0.012544
0.0125262
0.0125084
0.0124905
0.0124727
0.0124548
0.012437
0.0124191
0.0124013
0.0123834
0.0123655
0.0123476
0.0123297
0.0123119
0.012294
0.0122761
0.0122582
0.0122403
0.0122224
0.0122045
0.0121865
0.0121686
0.0121507
0.0121328
0.0121149
0.0120969
0.0120791
0.012061
0.0120433
0.012025
0.0120074
0.0119892
0.0119713
0.0119534
0.0119362
0.0119179
0.0118964
0.0178454
0.0178863
0.0178201
0.0178926
0.0178361
0.0178738
0.0178548
0.0178652
0.0178589
0.0178614
0.0178593
0.0178592
0.017858
0.017857
0.0178558
0.0178545
0.017853
0.0178513
0.0178495
0.0178476
0.0178456
0.0178435
0.0178412
0.0178389
0.0178364
0.0178339
0.0178312
0.0178285
0.0178257
0.0178228
0.0178199
0.0178168
0.0178137
0.0178106
0.0178074
0.0178041
0.0178007
0.0177973
0.0177938
0.0177903
0.0177867
0.017783
0.0177793
0.0177756
0.0177717
0.0177679
0.0177639
0.01776
0.0177559
0.0177518
0.0177477
0.0177435
0.0177393
0.017735
0.0177306
0.0177262
0.0177218
0.0177172
0.0177127
0.0177081
0.0177034
0.0176987
0.017694
0.0176892
0.0176843
0.0176794
0.0176744
0.0176694
0.0176644
0.0176592
0.0176541
0.0176489
0.0176436
0.0176383
0.0176329
0.0176275
0.0176221
0.0176166
0.017611
0.0176054
0.0175997
0.017594
0.0175882
0.0175824
0.0175766
0.0175707
0.0175647
0.0175587
0.0175526
0.0175465
0.0175404
0.0175342
0.0175279
0.0175216
0.0175153
0.0175088
0.0175024
0.0174959
0.0174893
0.0174827
0.0174761
0.0174694
0.0174626
0.0174558
0.017449
0.0174421
0.0174352
0.0174282
0.0174211
0.017414
0.0174069
0.0173997
0.0173925
0.0173852
0.0173779
0.0173705
0.0173631
0.0173556
0.017348
0.0173405
0.0173329
0.0173252
0.0173175
0.0173097
0.0173019
0.017294
0.0172861
0.0172782
0.0172702
0.0172621
0.017254
0.0172459
0.0172377
0.0172295
0.0172212
0.0172128
0.0172045
0.017196
0.0171876
0.017179
0.0171705
0.0171619
0.0171532
0.0171445
0.0171358
0.017127
0.0171181
0.0171092
0.0171003
0.0170913
0.0170823
0.0170732
0.0170641
0.0170549
0.0170457
0.0170364
0.0170272
0.0170178
0.0170084
0.016999
0.0169895
0.0169799
0.0169704
0.0169608
0.0169511
0.0169414
0.0169316
0.0169218
0.016912
0.0169021
0.0168922
0.0168822
0.0168722
0.0168621
0.016852
0.0168419
0.0168317
0.0168214
0.0168112
0.0168008
0.0167905
0.01678
0.0167696
0.0167591
0.0167486
0.016738
0.0167274
0.0167167
0.016706
0.0166952
0.0166844
0.0166736
0.0166627
0.0166518
0.0166408
0.0166298
0.0166187
0.0166076
0.0165965
0.0165853
0.0165741
0.0165628
0.0165515
0.0165402
0.0165288
0.0165174
0.0165059
0.0164944
0.0164829
0.0164713
0.0164597
0.016448
0.0164363
0.0164245
0.0164127
0.0164009
0.016389
0.0163771
0.0163652
0.0163532
0.0163411
0.0163291
0.016317
0.0163048
0.0162926
0.0162804
0.0162681
0.0162558
0.0162435
0.0162311
0.0162187
0.0162062
0.0161937
0.0161812
0.0161686
0.016156
0.0161434
0.0161307
0.016118
0.0161052
0.0160924
0.0160795
0.0160667
0.0160538
0.0160408
0.0160278
0.0160148
0.0160018
0.0159887
0.0159755
0.0159624
0.0159492
0.0159359
0.0159227
0.0159093
0.015896
0.0158826
0.0158692
0.0158557
0.0158423
0.0158287
0.0158152
0.0158016
0.0157879
0.0157743
0.0157606
0.0157468
0.0157331
0.0157193
0.0157054
0.0156916
0.0156777
0.0156637
0.0156498
0.0156358
0.0156217
0.0156077
0.0155935
0.0155794
0.0155653
0.015551
0.0155368
0.0155225
0.0155082
0.0154939
0.0154796
0.0154652
0.0154507
0.0154363
0.0154218
0.0154073
0.0153927
0.0153781
0.0153635
0.0153489
0.0153342
0.0153195
0.0153047
0.01529
0.0152752
0.0152604
0.0152455
0.0152306
0.0152157
0.0152007
0.0151858
0.0151708
0.0151557
0.0151407
0.0151256
0.0151104
0.0150953
0.0150801
0.0150649
0.0150497
0.0150344
0.0150191
0.0150038
0.0149884
0.0149731
0.0149577
0.0149422
0.0149268
0.0149113
0.0148958
0.0148802
0.0148647
0.0148491
0.0148335
0.0148178
0.0148021
0.0147864
0.0147707
0.014755
0.0147392
0.0147234
0.0147076
0.0146917
0.0146759
0.01466
0.014644
0.0146281
0.0146121
0.0145961
0.0145801
0.014564
0.014548
0.0145319
0.0145158
0.0144996
0.0144835
0.0144673
0.0144511
0.0144348
0.0144186
0.0144023
0.014386
0.0143697
0.0143533
0.014337
0.0143206
0.0143042
0.0142878
0.0142713
0.0142548
0.0142383
0.0142218
0.0142053
0.0141887
0.0141722
0.0141555
0.0141389
0.0141223
0.0141056
0.014089
0.0140723
0.0140555
0.0140388
0.0140221
0.0140053
0.0139885
0.0139717
0.0139548
0.013938
0.0139211
0.0139042
0.0138873
0.0138704
0.0138535
0.0138365
0.0138196
0.0138026
0.0137856
0.0137685
0.0137515
0.0137344
0.0137174
0.0137003
0.0136832
0.013666
0.0136489
0.0136317
0.0136146
0.0135974
0.0135802
0.013563
0.0135458
0.0135285
0.0135112
0.013494
0.0134767
0.0134594
0.0134421
0.0134247
0.0134074
0.01339
0.0133727
0.0133553
0.0133379
0.0133205
0.0133031
0.0132856
0.0132682
0.0132507
0.0132332
0.0132157
0.0131983
0.0131807
0.0131632
0.0131457
0.0131281
0.0131106
0.013093
0.0130755
0.0130579
0.0130403
0.0130227
0.0130051
0.0129874
0.0129698
0.0129522
0.0129345
0.0129168
0.0128992
0.0128815
0.0128638
0.0128461
0.0128284