/*--------------------------------*- C++ -*----------------------------------*\
| =========                 |                                                 |
| \\      /  F ield         | OpenFOAM: The Open Source CFD Toolbox           |
|  \\    /   O peration     | Version:  3.0.1                                 |
|   \\  /    A nd           | Web:      www.OpenFOAM.org                      |
|    \\/     M anipulation  |                                                 |
\*---------------------------------------------------------------------------*/
FoamFile
{
    version     2.0;
    format      ascii;
    class       volScalarField;
    location    "0.00025";
    object      maxKappa;
}
// * * * * * * * * * * * * * * * * * * * * * * * * * * * * * * * * * * * * * //

dimensions      [0 0 0 0 0 0 0];

internalField   nonuniform List<scalar> 
1000
(
3.26813e-06
7.45842e-06
1.39127e-05
2.46082e-05
4.24434e-05
7.20867e-05
0.00012081
0.000199835
0.000326114
0.000524676
0.000831541
0.00129705
0.00198928
0.0029968
0.00442988
0.00641847
0.00910571
0.0126354
0.0171331
0.022681
0.0292904
0.0368747
0.0452296
0.0540267
0.0628296
0.0711378
0.0784644
0.084437
0.0888913
0.0919269
0.0938308
0.0949644
0.0956395
0.0960406
0.0962686
0.0964062
0.096503
0.0965431
0.0965596
0.0965683
0.0965805
0.0965805
0.0965754
0.0965691
0.0965665
0.0965589
0.0965373
0.0965102
0.096478
0.0964376
0.096219
0.0952664
0.0937239
0.0926625
0.0923404
0.0923541
0.0923647
0.0923648
0.0923648
0.092362
0.092352
0.0923482
0.0923316
0.0923111
0.0922815
0.092274
0.0922377
0.0921671
0.0920291
0.0918421
0.0914403
0.0907865
0.0895487
0.0873764
0.0838733
0.0787346
0.0718662
0.0634827
0.0541057
0.044439
0.0351971
0.0269297
0.0199549
0.0143612
0.0100661
0.00688947
0.00461465
0.00303087
0.00195518
0.00124051
0.000775045
0.000477311
0.000290001
0.000173948
0.000103052
6.02804e-05
3.47453e-05
1.95443e-05
1.04333e-05
4.55765e-06
3.26759e-06
7.4572e-06
1.39104e-05
2.46041e-05
4.24365e-05
7.20751e-05
0.00012079
0.000199803
0.000326063
0.000524595
0.000831416
0.00129686
0.001989
0.0029964
0.00442932
0.00641771
0.00910474
0.0126342
0.0171317
0.0226796
0.0292893
0.0368743
0.0452298
0.0540286
0.0628329
0.0711437
0.078473
0.0844476
0.088902
0.0919357
0.0938338
0.0949661
0.095638
0.0960355
0.0962612
0.0963964
0.0964876
0.0965345
0.0965533
0.0965687
0.0965866
0.0965922
0.0966059
0.09662
0.0966434
0.096672
0.0967087
0.096742
0.096742
0.0967254
0.0966834
0.0961488
0.0945473
0.0930517
0.0925622
0.0924871
0.0924664
0.09245
0.0924236
0.0923961
0.0923676
0.0923568
0.0923397
0.092323
0.0922881
0.0922756
0.0922353
0.0921608
0.0920214
0.0918361
0.0914392
0.0907842
0.0895493
0.0873808
0.0838812
0.0787438
0.0718748
0.0634895
0.0541101
0.0444414
0.0351978
0.0269297
0.0199541
0.0143601
0.0100651
0.00688857
0.00461393
0.00303032
0.00195478
0.00124024
0.000774857
0.000477187
0.000289921
0.000173898
0.000103021
6.02616e-05
3.47342e-05
1.95379e-05
1.04298e-05
4.55609e-06
3.26668e-06
7.45514e-06
1.39066e-05
2.45975e-05
4.24253e-05
7.20563e-05
0.000120759
0.000199754
0.000325984
0.000524474
0.000831233
0.00129659
0.00198861
0.00299587
0.00442861
0.00641681
0.00910367
0.0126331
0.0171307
0.0226789
0.0292892
0.0368749
0.045232
0.0540333
0.0628406
0.0711542
0.0784849
0.0844591
0.08891
0.0919381
0.0938323
0.0949583
0.0956276
0.0960227
0.0962476
0.0963847
0.0964811
0.0965305
0.0965529
0.0965629
0.0965707
0.09658
0.0965873
0.0965983
0.0966068
0.0966068
0.0965926
0.0965794
0.0965626
0.0965176
0.0962602
0.0952787
0.0938324
0.0928688
0.0926072
0.0925606
0.092526
0.0924984
0.0924693
0.0924342
0.0923947
0.0923731
0.0923512
0.0923281
0.0922957
0.0922836
0.0922398
0.0921604
0.0920167
0.0918262
0.0914252
0.0907738
0.0895431
0.0873794
0.0838845
0.0787517
0.0718849
0.0634995
0.0541184
0.0444468
0.0352007
0.0269309
0.0199544
0.0143596
0.0100643
0.00688763
0.00461308
0.00302963
0.00195425
0.00123985
0.000774587
0.000477004
0.0002898
0.000173821
0.000102972
6.02314e-05
3.47159e-05
1.95272e-05
1.04239e-05
4.55345e-06
3.26546e-06
7.45237e-06
1.39015e-05
2.45886e-05
4.24101e-05
7.2031e-05
0.000120718
0.000199687
0.000325879
0.00052431
0.000830983
0.00129622
0.00198807
0.00299512
0.00442759
0.0064155
0.00910204
0.0126312
0.0171286
0.0226769
0.0292877
0.0368746
0.0452346
0.0540383
0.0628488
0.0711654
0.0784987
0.0844734
0.0889223
0.0919461
0.0938334
0.0949536
0.0956163
0.0960122
0.0962328
0.0963683
0.0964629
0.0965149
0.0965337
0.0965403
0.0965557
0.0965581
0.0965648
0.0965724
0.0965896
0.0966114
0.0966114
0.096598
0.0966141
0.0966141
0.0965948
0.0959671
0.0943986
0.0930277
0.0925658
0.0925422
0.0925288
0.0925087
0.0924769
0.0924467
0.0924094
0.0923825
0.0923464
0.0923077
0.0922675
0.0922558
0.0922145
0.0921451
0.0920052
0.0918148
0.0914124
0.0907633
0.0895366
0.0873809
0.0838921
0.0787629
0.0718974
0.0635112
0.0541276
0.0444534
0.0352043
0.0269317
0.0199536
0.0143582
0.0100627
0.00688614
0.00461182
0.00302863
0.0019535
0.00123931
0.000774214
0.000476753
0.000289635
0.000173714
0.000102905
6.019e-05
3.46909e-05
1.95126e-05
1.04158e-05
4.54983e-06
3.26408e-06
7.44925e-06
1.38957e-05
2.45785e-05
4.23931e-05
7.20027e-05
0.000120672
0.000199612
0.00032576
0.000524127
0.000830705
0.00129581
0.00198748
0.00299429
0.00442647
0.00641404
0.00910025
0.0126291
0.0171264
0.0226749
0.0292865
0.0368749
0.0452361
0.054043
0.0628572
0.0711778
0.0785141
0.0844903
0.0889378
0.0919577
0.0938393
0.0949548
0.0956157
0.0960079
0.0962272
0.096364
0.0964602
0.0965158
0.0965391
0.0965543
0.0965733
0.0965809
0.096589
0.0965978
0.0966114
0.096623
0.0966266
0.096646
0.0966835
0.0966835
0.0966418
0.0958581
0.0943083
0.093048
0.0925706
0.0924904
0.0924638
0.0924505
0.0924356
0.0924174
0.0923902
0.092369
0.0923363
0.0923035
0.0922707
0.0922652
0.0922233
0.0921401
0.0919957
0.0918042
0.0914023
0.0907579
0.0895382
0.0873869
0.0839029
0.0787768
0.071912
0.0635242
0.0541375
0.0444597
0.0352076
0.0269326
0.019953
0.0143568
0.010061
0.00688451
0.00461042
0.00302752
0.00195267
0.00123871
0.000773794
0.000476469
0.000289448
0.000173594
0.000102829
6.01429e-05
3.46624e-05
1.94958e-05
1.04066e-05
4.54568e-06
3.2627e-06
7.44612e-06
1.389e-05
2.45685e-05
4.2376e-05
7.19743e-05
0.000120625
0.000199538
0.000325642
0.000523943
0.000830427
0.0012954
0.00198688
0.00299345
0.00442534
0.00641256
0.00909839
0.0126269
0.017124
0.0226726
0.0292845
0.0368739
0.0452371
0.0540465
0.062864
0.0711882
0.078528
0.0845065
0.0889544
0.0919724
0.0938501
0.0949613
0.0956186
0.0960084
0.0962252
0.0963598
0.0964539
0.0965062
0.0965294
0.0965438
0.0965631
0.0965756
0.0965921
0.0966085
0.096625
0.0966373
0.0966462
0.0966707
0.0967277
0.0967277
0.0966212
0.0958561
0.094327
0.0931008
0.0926996
0.0926291
0.0925851
0.0925501
0.0925165
0.092479
0.0924347
0.0924037
0.0923675
0.0923296
0.0922848
0.0922688
0.0922212
0.0921409
0.091994
0.0918001
0.0913989
0.0907572
0.0895419
0.0873955
0.0839153
0.0787909
0.0719258
0.0635358
0.0541461
0.0444648
0.03521
0.0269328
0.0199519
0.0143551
0.0100591
0.00688279
0.00460898
0.00302638
0.00195182
0.0012381
0.000773368
0.000476181
0.000289258
0.000173471
0.000102751
6.00948e-05
3.46332e-05
1.94786e-05
1.03971e-05
4.54141e-06
3.26144e-06
7.44328e-06
1.38847e-05
2.45594e-05
4.23606e-05
7.19487e-05
0.000120583
0.00019947
0.000325536
0.000523778
0.000830176
0.00129502
0.00198635
0.00299269
0.0044243
0.0064112
0.00909668
0.0126249
0.0171217
0.0226702
0.0292824
0.0368726
0.0452371
0.0540484
0.0628685
0.0711959
0.0785393
0.0845209
0.088971
0.0919895
0.0938661
0.0949745
0.0956293
0.096016
0.0962322
0.0963646
0.0964581
0.096505
0.0965271
0.0965502
0.0965777
0.0966025
0.0966321
0.096666
0.0967062
0.0967445
0.0967623
0.0967664
0.0967664
0.0967516
0.0965985
0.0959562
0.0944293
0.0930739
0.0926125
0.0925769
0.0925657
0.0925529
0.0925117
0.0924718
0.0924278
0.0923982
0.0923628
0.0923246
0.0922801
0.092264
0.0922191
0.092139
0.0919945
0.0918031
0.091404
0.0907652
0.0895526
0.0874082
0.0839291
0.0788045
0.0719378
0.0635454
0.0541526
0.0444686
0.0352113
0.0269327
0.0199507
0.0143534
0.0100574
0.00688119
0.00460765
0.00302534
0.00195104
0.00123754
0.000772979
0.000475917
0.000289084
0.000173358
0.00010268
6.00504e-05
3.46062e-05
1.94627e-05
1.03882e-05
4.53744e-06
3.26042e-06
7.44098e-06
1.38805e-05
2.4552e-05
4.23481e-05
7.19279e-05
0.000120549
0.000199416
0.000325449
0.000523644
0.000829972
0.00129472
0.00198591
0.00299207
0.00442345
0.00641006
0.00909524
0.0126231
0.0171197
0.022668
0.0292803
0.0368708
0.0452361
0.0540487
0.0628709
0.0712006
0.0785465
0.0845312
0.0889841
0.0920051
0.0938827
0.0949903
0.0956427
0.096026
0.0962391
0.0963696
0.096461
0.0965089
0.096528
0.0965449
0.0965606
0.0965765
0.0965915
0.0966079
0.0966239
0.0966239
0.0966179
0.0966042
0.0965781
0.096506
0.096223
0.0951762
0.0937014
0.0927598
0.0925414
0.0925151
0.0924933
0.0924783
0.0924617
0.0924416
0.0924131
0.0923906
0.0923581
0.0923203
0.0922763
0.0922598
0.0922154
0.0921352
0.0919931
0.0918061
0.0914111
0.0907751
0.0895642
0.0874203
0.0839405
0.0788145
0.0719459
0.0635514
0.0541567
0.0444708
0.0352115
0.0269318
0.0199493
0.0143518
0.0100558
0.00687981
0.00460652
0.00302447
0.00195039
0.00123707
0.000772656
0.000475699
0.000288939
0.000173265
0.000102621
6.00137e-05
3.45838e-05
1.94495e-05
1.03809e-05
4.53414e-06
3.25972e-06
7.43939e-06
1.38776e-05
2.45469e-05
4.23396e-05
7.19137e-05
0.000120526
0.000199378
0.00032539
0.000523553
0.000829833
0.00129452
0.00198561
0.00299165
0.00442287
0.0064093
0.00909426
0.0126219
0.0171183
0.0226666
0.0292789
0.0368696
0.0452355
0.0540489
0.0628719
0.0712032
0.078551
0.0845384
0.088994
0.0920172
0.0938972
0.0950057
0.095657
0.0960379
0.0962477
0.0963746
0.0964619
0.096506
0.0965255
0.0965471
0.0965703
0.0965893
0.096613
0.0966442
0.0966837
0.0967191
0.0967359
0.0967359
0.0967357
0.0967168
0.0966187
0.0959712
0.0944205
0.093059
0.0925984
0.092559
0.0925422
0.092522
0.09249
0.0924528
0.0924087
0.0923797
0.0923443
0.0923097
0.0922728
0.0922596
0.0922159
0.0921378
0.0919967
0.0918131
0.0914215
0.0907865
0.0895754
0.0874304
0.0839491
0.0788216
0.0719515
0.0635554
0.054159
0.0444717
0.0352119
0.0269314
0.0199484
0.0143507
0.0100547
0.00687889
0.00460576
0.00302388
0.00194995
0.00123676
0.000772435
0.000475549
0.00028884
0.0001732
0.000102579
5.9988e-05
3.45681e-05
1.94403e-05
1.03757e-05
4.53181e-06
3.25934e-06
7.43851e-06
1.3876e-05
2.45441e-05
4.23347e-05
7.19054e-05
0.000120512
0.000199356
0.000325355
0.000523497
0.000829748
0.00129439
0.00198541
0.00299137
0.00442248
0.00640876
0.00909355
0.012621
0.0171172
0.0226652
0.0292773
0.036868
0.045234
0.0540477
0.0628713
0.0712033
0.0785522
0.0845399
0.0889974
0.0920231
0.0939052
0.095016
0.0956688
0.0960507
0.09626
0.0963852
0.0964716
0.0965116
0.0965239
0.0965398
0.0965575
0.096568
0.0965803
0.0965922
0.0966059
0.0966113
0.0966113
0.0966367
0.0966848
0.0966848
0.0966077
0.0958327
0.0942829
0.0930148
0.0925509
0.0924717
0.0924414
0.092428
0.0924129
0.0923981
0.0923735
0.0923565
0.0923303
0.0923039
0.0922666
0.0922556
0.0922169
0.0921431
0.0920043
0.0918217
0.0914304
0.0907945
0.089582
0.0874357
0.0839531
0.0788242
0.0719531
0.0635561
0.0541592
0.0444714
0.0352111
0.0269304
0.0199473
0.0143497
0.0100538
0.00687817
0.0046052
0.00302346
0.00194965
0.00123654
0.00077229
0.000475452
0.000288777
0.00017316
0.000102554
5.99725e-05
3.45588e-05
1.94348e-05
1.03727e-05
4.53046e-06
)
;

boundaryField
{
    sides1
    {
        type            calculated;
        value           uniform 0;
    }
    sides2
    {
        type            calculated;
        value           uniform 0;
    }
    empty
    {
        type            empty;
    }
}


// ************************************************************************* //
