/*--------------------------------*- C++ -*----------------------------------*\
| =========                 |                                                 |
| \\      /  F ield         | OpenFOAM: The Open Source CFD Toolbox           |
|  \\    /   O peration     | Version:  3.0.1                                 |
|   \\  /    A nd           | Web:      www.OpenFOAM.org                      |
|    \\/     M anipulation  |                                                 |
\*---------------------------------------------------------------------------*/
FoamFile
{
    version     2.0;
    format      ascii;
    class       volScalarField;
    location    "0.00025";
    object      minKappa;
}
// * * * * * * * * * * * * * * * * * * * * * * * * * * * * * * * * * * * * * //

dimensions      [0 0 0 0 0 0 0];

internalField   nonuniform List<scalar> 
1000
(
1.4124e-09
2.03999e-09
3.23476e-09
5.52502e-09
9.48241e-09
1.62169e-08
2.74303e-08
4.58004e-08
7.53685e-08
1.22079e-07
1.94375e-07
3.03763e-07
4.65142e-07
6.96523e-07
1.0176e-06
1.44648e-06
1.99375e-06
2.65352e-06
3.39171e-06
4.13508e-06
4.77035e-06
5.11684e-06
4.64973e-06
7.21715e-07
1.19246e-06
4.7771e-06
1.02058e-05
1.69683e-05
2.34221e-05
3.00056e-05
3.05085e-05
3.74481e-05
2.26531e-05
1.9812e-05
9.33751e-07
7.11752e-06
1.3383e-05
1.69333e-06
2.004e-05
8.34387e-06
1.02509e-05
2.56064e-05
4.32036e-05
6.00257e-05
8.99346e-05
0.000128206
0.000128029
0.00012988
0.00013847
0.000456527
0.00077521
0.000115742
0.000685562
0.00023671
0.000212415
0.000128329
0.000124819
0.000107522
0.000101545
8.44722e-05
6.50219e-05
4.01577e-05
2.39857e-05
1.251e-05
4.72574e-06
2.2294e-06
5.71209e-07
1.16212e-06
4.32116e-06
5.57462e-06
2.41384e-05
2.26689e-05
2.72555e-05
2.69595e-05
2.37762e-05
1.87789e-05
1.29935e-05
7.56026e-06
3.35107e-06
6.51271e-07
2.43119e-06
3.70876e-06
3.52642e-06
3.08631e-06
2.51374e-06
1.9331e-06
1.41991e-06
1.00446e-06
6.88449e-07
4.59205e-07
2.99096e-07
1.90739e-07
1.19355e-07
7.3422e-08
4.44953e-08
2.66273e-08
1.58652e-08
9.49051e-09
6.11381e-09
4.29126e-09
1.4124e-09
2.03999e-09
3.23476e-09
5.52502e-09
9.48241e-09
1.62169e-08
2.74303e-08
4.58004e-08
7.53685e-08
1.22079e-07
1.94375e-07
3.03763e-07
4.65142e-07
6.96523e-07
1.0176e-06
1.44648e-06
1.99375e-06
2.65352e-06
3.39171e-06
4.13508e-06
4.77035e-06
5.11684e-06
4.64973e-06
7.21715e-07
1.092e-06
4.7771e-06
1.02058e-05
1.69683e-05
2.34221e-05
3.00056e-05
3.05085e-05
3.74481e-05
2.26531e-05
1.9812e-05
9.33751e-07
7.11752e-06
7.05951e-06
2.92166e-07
2.004e-05
8.34387e-06
1.02509e-05
1.43301e-05
1.09671e-05
3.6627e-05
3.90049e-05
3.44509e-05
2.20162e-05
1.18473e-05
0.00013847
5.6819e-07
0.000272543
0.000115742
0.000444865
0.000136956
7.23754e-05
0.000108837
0.000119473
0.000100351
0.000100311
8.44722e-05
6.50219e-05
4.01577e-05
2.39857e-05
6.23784e-06
4.72574e-06
2.2294e-06
5.71209e-07
1.16212e-06
4.32116e-06
5.57462e-06
2.41384e-05
2.26689e-05
2.72555e-05
2.69595e-05
2.37762e-05
1.87789e-05
1.29935e-05
7.56026e-06
3.35107e-06
6.51271e-07
2.42587e-06
3.70876e-06
3.52642e-06
3.08631e-06
2.51374e-06
1.9331e-06
1.41991e-06
1.00446e-06
6.88449e-07
4.59205e-07
2.99096e-07
1.90739e-07
1.19355e-07
7.3422e-08
4.44953e-08
2.66273e-08
1.58652e-08
9.49051e-09
6.11381e-09
4.29126e-09
2.62251e-09
3.78323e-09
5.99305e-09
1.02242e-08
1.75269e-08
2.99394e-08
5.05799e-08
8.4347e-08
1.38619e-07
2.24228e-07
3.56525e-07
5.56388e-07
8.50787e-07
1.27225e-06
1.85623e-06
2.63523e-06
3.62809e-06
4.8239e-06
6.16157e-06
7.5135e-06
8.71938e-06
9.95804e-06
6.51959e-06
4.8989e-06
1.092e-06
7.07377e-06
1.76353e-05
3.00799e-05
4.12332e-05
5.19227e-05
5.68189e-05
4.84237e-05
3.70689e-05
3.80755e-05
1.84616e-05
2.11618e-05
7.05951e-06
2.92166e-07
1.74531e-05
6.9797e-06
7.59945e-06
1.40791e-05
1.09671e-05
3.6627e-05
3.90049e-05
3.44509e-05
2.20162e-05
1.18473e-05
0.00016406
5.6819e-07
0.000272543
0.000248928
0.000444865
0.000136956
5.42183e-05
4.36599e-05
4.46049e-05
6.27764e-05
5.06836e-05
7.5413e-05
9.13001e-05
7.4459e-05
6.23497e-05
6.23784e-06
1.05397e-05
5.27498e-06
1.25764e-06
6.86217e-06
8.41907e-06
2.04556e-05
3.1647e-05
3.07478e-05
3.96994e-05
4.83249e-05
4.19951e-05
3.34853e-05
2.32724e-05
1.3181e-05
4.0101e-06
8.54547e-07
2.42587e-06
7.32404e-06
6.4318e-06
5.60966e-06
4.57859e-06
3.53034e-06
2.59983e-06
1.84371e-06
1.26668e-06
8.46831e-07
5.52781e-07
3.53257e-07
2.21492e-07
1.36511e-07
8.28785e-08
4.96825e-08
2.96518e-08
1.77668e-08
1.14637e-08
8.06536e-09
3.50008e-09
5.04172e-09
7.98168e-09
1.36065e-08
2.33088e-08
3.97888e-08
6.71766e-08
1.11959e-07
1.83906e-07
2.97369e-07
4.72707e-07
7.37673e-07
1.12826e-06
1.68818e-06
2.4658e-06
3.50691e-06
4.84154e-06
6.46359e-06
8.30269e-06
1.01886e-05
1.17949e-05
1.24038e-05
9.9271e-06
1.03939e-05
2.24032e-06
2.40843e-06
1.59736e-05
3.24103e-05
4.93803e-05
6.36852e-05
6.6869e-05
6.84113e-05
4.85904e-05
6.4363e-05
3.92756e-05
4.7655e-05
8.5375e-06
2.16647e-05
1.74531e-05
6.9797e-06
7.59945e-06
1.40791e-05
3.04996e-05
4.03619e-05
6.7181e-05
9.44062e-05
6.22588e-05
7.61836e-05
0.000196553
0.000121507
4.3779e-05
0.000117792
0.000171478
0.000213599
5.42183e-05
4.36599e-05
4.46049e-05
6.27764e-05
5.06836e-05
7.5413e-05
7.78097e-05
7.55001e-05
5.75432e-05
1.27302e-05
1.15536e-05
8.26511e-06
1.0111e-05
7.69037e-06
1.79556e-05
3.24607e-05
4.3531e-05
5.41804e-05
5.49419e-05
5.92623e-05
5.29051e-05
4.14414e-05
2.68176e-05
1.32377e-05
1.55447e-06
3.52418e-06
3.72106e-06
8.55768e-06
8.73599e-06
7.64701e-06
6.19868e-06
4.75369e-06
3.48947e-06
2.47067e-06
1.69656e-06
1.13447e-06
7.41059e-07
4.74058e-07
2.97599e-07
1.83669e-07
1.11672e-07
6.70454e-08
4.00793e-08
2.40538e-08
1.55477e-08
1.09557e-08
3.95942e-09
5.69538e-09
9.00511e-09
1.53326e-08
2.62338e-08
4.47048e-08
7.53605e-08
1.25428e-07
2.05799e-07
3.32494e-07
5.28309e-07
8.24487e-07
1.26192e-06
1.89109e-06
2.76951e-06
3.94685e-06
5.46219e-06
7.31679e-06
9.44106e-06
1.16554e-05
1.36278e-05
1.49048e-05
1.57348e-05
1.09801e-05
7.25967e-06
2.40843e-06
8.542e-06
2.37758e-05
4.11004e-05
5.96584e-05
7.44445e-05
8.55628e-05
7.57481e-05
8.26083e-05
8.13394e-05
9.56738e-05
5.81151e-05
6.61785e-05
3.21133e-05
6.29516e-05
3.87544e-05
6.27894e-05
6.20629e-05
6.74929e-05
7.26929e-05
9.44062e-05
7.70273e-05
3.52425e-05
1.99605e-05
0.000121507
4.3779e-05
0.000117792
7.18797e-05
8.62678e-05
2.75482e-05
5.87683e-05
6.39589e-05
6.98844e-05
7.77155e-05
7.76642e-05
7.78097e-05
7.55001e-05
5.75432e-05
1.27302e-05
1.2271e-05
1.80236e-05
4.59495e-05
3.85662e-05
4.48092e-05
5.44788e-05
6.91845e-05
6.59823e-05
7.24754e-05
6.41162e-05
5.08114e-05
3.54478e-05
2.05422e-05
7.94112e-06
1.55447e-06
4.72151e-06
6.12959e-06
1.07147e-05
1.01385e-05
8.7698e-06
7.07399e-06
5.40996e-06
3.96524e-06
2.80596e-06
1.92709e-06
1.28951e-06
8.43245e-07
5.40161e-07
3.39624e-07
2.09958e-07
1.27884e-07
7.69201e-08
4.60715e-08
2.77051e-08
1.79447e-08
1.26668e-08
3.61836e-09
5.18291e-09
8.17752e-09
1.38862e-08
2.37141e-08
4.03626e-08
6.79679e-08
1.13017e-07
1.8529e-07
2.99181e-07
4.75211e-07
7.41598e-07
1.13548e-06
1.70315e-06
2.49829e-06
3.5768e-06
4.98693e-06
6.7531e-06
8.85296e-06
1.11885e-05
1.35539e-05
1.56064e-05
1.63284e-05
1.45354e-05
1.07523e-05
3.0292e-06
6.13275e-07
1.18253e-05
2.74209e-05
4.50272e-05
6.39906e-05
8.23389e-05
9.13622e-05
0.000100478
9.6126e-05
0.000104769
8.70535e-05
9.4902e-05
6.95145e-05
0.000100156
7.65162e-05
0.000107823
0.000103379
0.000105268
0.000106164
8.81908e-05
5.25981e-05
3.33512e-05
1.99605e-05
0.000239162
4.23977e-05
5.61077e-05
3.1778e-05
8.0775e-05
2.75482e-05
2.63922e-05
5.15558e-06
8.32424e-05
7.47099e-05
6.85271e-05
6.65133e-05
6.82913e-05
7.2082e-05
6.51278e-05
6.86315e-05
6.53486e-05
6.41871e-05
7.05572e-05
7.50903e-05
6.91069e-05
8.24768e-05
7.72575e-05
6.77988e-05
5.38584e-05
3.92224e-05
2.50283e-05
1.22304e-05
1.60395e-06
1.63262e-06
7.91668e-06
9.4731e-06
1.12342e-05
1.0111e-05
8.45635e-06
6.68758e-06
5.05705e-06
3.68448e-06
2.60066e-06
1.78564e-06
1.19641e-06
7.84208e-07
5.03891e-07
3.17948e-07
1.97321e-07
1.20678e-07
7.28923e-08
4.38514e-08
2.64894e-08
1.72355e-08
1.2215e-08
2.94165e-09
4.20637e-09
6.62991e-09
1.12444e-08
1.9184e-08
3.2622e-08
5.48876e-08
9.11994e-08
1.49427e-07
2.41162e-07
3.82961e-07
5.97657e-07
9.1547e-07
1.37442e-06
2.0193e-06
2.89826e-06
4.05593e-06
5.52197e-06
7.2948e-06
9.32066e-06
1.147e-05
1.3514e-05
1.51011e-05
1.55889e-05
1.28828e-05
8.648e-06
6.13275e-07
1.83401e-06
1.37617e-05
2.86971e-05
4.66257e-05
6.50821e-05
8.28761e-05
0.000100696
0.00010889
0.000117777
0.000112828
0.000120023
9.76658e-05
0.000115953
9.02609e-05
0.000106463
7.87869e-05
6.63522e-05
5.142e-05
2.80365e-06
2.55824e-06
1.18854e-05
0.000153545
0.000340541
4.23977e-05
5.61077e-05
3.1778e-05
8.0775e-05
8.18432e-06
9.90608e-06
5.15558e-06
1.12843e-05
6.10021e-06
2.23852e-05
4.17016e-05
5.59676e-05
6.79163e-05
7.04688e-05
8.23743e-05
7.24656e-05
8.50092e-05
8.09208e-05
8.88284e-05
8.34355e-05
7.88523e-05
6.55831e-05
5.16147e-05
3.78065e-05
2.48838e-05
1.40169e-05
5.02983e-06
1.46089e-06
4.69583e-06
8.26569e-06
1.02512e-05
9.81509e-06
8.59848e-06
7.07517e-06
5.54141e-06
4.16706e-06
3.02713e-06
2.13407e-06
1.46517e-06
9.82371e-07
6.4469e-07
4.14884e-07
2.62247e-07
1.6306e-07
9.99209e-08
6.04759e-08
3.64576e-08
2.20695e-08
1.43906e-08
1.02152e-08
2.05737e-09
2.93748e-09
4.62593e-09
7.83707e-09
1.33594e-08
2.26988e-08
3.81627e-08
6.33663e-08
1.03761e-07
1.67384e-07
2.65726e-07
4.14677e-07
6.35368e-07
9.5459e-07
1.40436e-06
2.02003e-06
2.83624e-06
3.88018e-06
5.16183e-06
6.66148e-06
8.31576e-06
1.00054e-05
1.15546e-05
1.27978e-05
1.37339e-05
1.02117e-05
6.2842e-06
1.83401e-06
3.6062e-06
1.35966e-05
2.74835e-05
4.21579e-05
5.7789e-05
7.56089e-05
8.54172e-05
0.000102189
9.91779e-05
0.000114515
9.92152e-05
0.000109253
9.02609e-05
9.47261e-05
7.87869e-05
6.63522e-05
5.142e-05
2.80365e-06
2.55824e-06
1.18854e-05
0.000153545
0.000340541
0.000575089
0.000116348
0.000529686
0.000311174
8.18432e-06
9.90608e-06
9.73914e-06
1.12843e-05
6.10021e-06
2.23852e-05
3.61776e-05
4.40245e-05
5.11291e-05
6.65863e-05
8.17563e-05
8.27998e-05
8.75506e-05
8.28323e-05
8.08965e-05
6.80331e-05
5.7245e-05
4.48715e-05
3.23525e-05
2.17935e-05
1.25274e-05
5.00132e-06
2.17017e-07
1.46089e-06
5.75702e-06
8.6439e-06
8.07021e-06
7.2892e-06
6.2271e-06
5.05636e-06
3.93104e-06
2.9442e-06
2.13464e-06
1.50398e-06
1.03287e-06
6.9311e-07
4.55415e-07
2.93502e-07
1.85815e-07
1.15727e-07
7.10345e-08
4.3065e-08
2.60056e-08
1.57699e-08
1.03002e-08
7.32225e-09
1.05406e-09
1.50177e-09
2.36593e-09
4.00492e-09
6.82445e-09
1.15894e-08
1.94748e-08
3.23189e-08
5.2893e-08
8.52797e-08
1.35316e-07
2.11078e-07
3.23315e-07
4.85704e-07
7.14692e-07
1.02868e-06
1.44623e-06
1.98311e-06
2.64806e-06
3.43746e-06
4.32964e-06
5.27994e-06
6.21959e-06
7.06921e-06
7.7397e-06
7.76591e-06
5.75227e-06
3.73066e-06
1.18001e-06
4.70186e-06
9.922e-06
1.71613e-05
2.58227e-05
3.63459e-05
4.2183e-05
5.37115e-05
5.55214e-05
6.66979e-05
5.59291e-05
5.27671e-05
5.0902e-05
4.18078e-05
2.64311e-05
5.52888e-06
7.55429e-06
9.6973e-06
1.58856e-05
0.00012158
0.000173075
0.000258291
1.04016e-05
0.000124952
0.000156627
0.000221287
6.62283e-05
1.80678e-05
5.61245e-06
1.91229e-05
2.49167e-05
9.78942e-06
8.47512e-07
1.33631e-05
2.05449e-05
4.68234e-05
5.6826e-05
4.4299e-05
4.71592e-05
4.35392e-05
4.06021e-05
3.27357e-05
2.51255e-05
1.92187e-05
1.25616e-05
7.93919e-06
4.21692e-06
1.69382e-06
1.83613e-09
3.07312e-06
4.43955e-06
4.78273e-06
4.40245e-06
3.89016e-06
3.27774e-06
2.63963e-06
2.04247e-06
1.52584e-06
1.10499e-06
7.78309e-07
5.3465e-07
3.59002e-07
2.36082e-07
1.52292e-07
9.65117e-08
6.01687e-08
3.69693e-08
2.2435e-08
1.35609e-08
8.23178e-09
5.38049e-09
3.82837e-09
1.05406e-09
1.50177e-09
2.36593e-09
4.00492e-09
6.82445e-09
1.15894e-08
1.94748e-08
3.23189e-08
5.2893e-08
8.52797e-08
1.35316e-07
2.11078e-07
3.23315e-07
4.85704e-07
7.14692e-07
1.02868e-06
1.44623e-06
1.98311e-06
2.64806e-06
3.43746e-06
4.32964e-06
5.27994e-06
6.21959e-06
7.06921e-06
7.7397e-06
7.76591e-06
5.75227e-06
5.98769e-06
1.18001e-06
4.70186e-06
9.922e-06
1.71613e-05
2.58227e-05
3.63459e-05
4.2183e-05
5.37115e-05
5.55214e-05
6.66979e-05
5.59291e-05
5.27671e-05
5.0902e-05
4.18078e-05
2.64311e-05
5.52888e-06
7.55429e-06
9.6973e-06
1.58856e-05
0.000122975
0.000238055
0.000258291
1.04016e-05
0.000124952
0.000156627
0.000221287
0.000109537
3.24302e-05
5.61245e-06
2.64835e-05
2.49167e-05
9.78942e-06
8.47512e-07
1.33631e-05
2.05449e-05
4.68234e-05
5.6826e-05
4.4299e-05
4.71592e-05
4.35392e-05
4.06021e-05
3.27357e-05
2.51255e-05
1.92187e-05
1.25616e-05
7.93919e-06
4.21692e-06
1.69382e-06
1.83613e-09
3.07312e-06
4.43955e-06
4.78273e-06
4.40245e-06
3.89016e-06
3.27774e-06
2.63963e-06
2.04247e-06
1.52584e-06
1.10499e-06
7.78309e-07
5.3465e-07
3.59002e-07
2.36082e-07
1.52292e-07
9.65117e-08
6.01687e-08
3.69693e-08
2.2435e-08
1.35609e-08
8.23178e-09
5.38049e-09
3.82837e-09
)
;

boundaryField
{
    sides1
    {
        type            calculated;
        value           uniform 0;
    }
    sides2
    {
        type            calculated;
        value           uniform 0;
    }
    empty
    {
        type            empty;
    }
}


// ************************************************************************* //
