/*--------------------------------*- C++ -*----------------------------------*\
| =========                 |                                                 |
| \\      /  F ield         | OpenFOAM: The Open Source CFD Toolbox           |
|  \\    /   O peration     | Version:  3.0.1                                 |
|   \\  /    A nd           | Web:      www.OpenFOAM.org                      |
|    \\/     M anipulation  |                                                 |
\*---------------------------------------------------------------------------*/
FoamFile
{
    version     2.0;
    format      ascii;
    class       surfaceScalarField;
    location    "0.00025";
    object      phi;
}
// * * * * * * * * * * * * * * * * * * * * * * * * * * * * * * * * * * * * * //

dimensions      [1 0 -1 0 0 0 0];

internalField   nonuniform List<scalar> 
1890
(
6.20868e-08
-6.93356e-12
1.41693e-07
-1.00144e-11
2.64308e-07
-1.58795e-11
4.67497e-07
-2.71223e-11
8.06323e-07
-4.65486e-11
1.36947e-06
-7.96066e-11
2.29506e-06
-1.34648e-10
3.7963e-06
-2.24811e-10
6.1951e-06
-3.69919e-10
9.96681e-06
-5.99112e-10
1.57953e-05
-9.53732e-10
2.46358e-05
-1.49004e-09
3.77792e-05
-2.28069e-09
5.69036e-05
-3.41307e-09
8.40935e-05
-4.98191e-09
0.000121799
-7.07259e-09
0.000172707
-9.7315e-09
0.000239495
-1.29216e-08
0.00032446
-1.64662e-08
0.000429046
-1.99982e-08
0.000553316
-2.29626e-08
0.000695456
-2.44944e-08
0.00085144
-2.21186e-08
0.00101496
-3.40966e-09
0.00117778
5.59346e-09
0.00133066
2.22501e-08
0.00146473
4.72237e-08
0.00157344
7.80689e-08
0.00165403
1.07273e-07
0.00170872
1.36963e-07
0.00174288
1.38946e-07
0.00176301
1.70303e-07
0.00177516
1.02932e-07
0.00178217
8.99743e-08
0.00178627
4.23919e-09
0.00178865
3.23075e-08
0.00179041
-6.07402e-08
0.00179111
7.68495e-09
0.00179136
-9.09451e-08
0.00179154
3.78652e-08
0.00179174
-4.65195e-08
0.00179164
1.16203e-07
0.00179149
1.96058e-07
0.00179142
2.72395e-07
0.00179126
4.0812e-07
0.00179081
5.81794e-07
0.00179026
5.80983e-07
0.00178962
5.89383e-07
0.00178882
6.28349e-07
0.0017843
2.0716e-06
0.00176558
3.51784e-06
0.00173572
-5.25389e-07
0.00171569
-3.11195e-06
0.00171018
-1.07406e-06
0.00171044
-9.63926e-07
0.00171068
-5.82284e-07
0.00171083
-5.66318e-07
0.0017108
-4.87803e-07
0.00171067
-4.60662e-07
0.00171046
-3.83194e-07
0.00171031
-2.94949e-07
0.00170998
-1.82155e-07
0.0017095
-1.08795e-07
0.00170895
-5.67418e-08
0.00170866
-2.14337e-08
0.00170798
-1.01111e-08
0.00170637
-2.5905e-09
0.00170365
-5.26983e-09
0.00169935
-1.9591e-08
0.00169108
-2.52646e-08
0.00167679
-1.09341e-07
0.00165067
-1.02572e-07
0.00160486
-1.23111e-07
0.00153211
-1.21428e-07
0.00142694
-1.0665e-07
0.00128911
-8.37702e-08
0.00112478
-5.75701e-08
0.000945771
-3.32413e-08
0.000766254
-1.46167e-08
0.000599156
-2.81878e-09
0.000453271
1.04489e-08
0.000332731
1.58445e-08
0.000237682
1.49925e-08
0.000165657
1.3072e-08
0.000112908
1.0617e-08
7.54037e-05
8.14805e-09
4.94231e-05
5.97642e-09
3.1838e-05
4.22366e-09
2.01819e-05
2.89296e-09
1.26017e-05
1.92882e-09
7.75778e-06
1.25596e-09
4.71228e-06
8.00808e-10
2.8261e-06
5.01051e-10
1.67411e-06
3.08204e-10
9.79222e-07
1.86771e-10
5.64401e-07
1.11766e-10
3.17471e-07
6.65923e-11
1.69473e-07
3.98349e-11
7.40316e-08
2.56617e-11
1.80118e-11
6.20766e-08
-1.2874e-11
1.41669e-07
-1.8572e-11
2.64265e-07
-2.942e-11
4.67421e-07
-5.01903e-11
8.06192e-07
-8.60386e-11
1.36925e-06
-1.46968e-10
2.29469e-06
-2.48283e-10
3.79569e-06
-4.14017e-10
6.19413e-06
-6.8036e-10
9.96528e-06
-1.10041e-09
1.57929e-05
-1.74935e-09
2.46322e-05
-2.72924e-09
3.77739e-05
-4.17159e-09
5.68959e-05
-6.23419e-09
8.40829e-05
-9.08765e-09
0.000121785
-1.28851e-08
0.000172689
-1.77088e-08
0.000239473
-2.34906e-08
0.000324435
-2.99134e-08
0.000429021
-3.63371e-08
0.000553295
-4.19717e-08
0.000695449
-4.76693e-08
0.000851445
-3.10134e-08
0.00101499
-2.31443e-08
0.00117785
-5.12222e-09
0.00133077
3.2947e-08
0.00146489
8.16006e-08
0.00157363
1.38393e-07
0.00165423
1.88847e-07
0.00170888
2.37006e-07
0.00174294
2.58775e-07
0.00176305
2.20218e-07
0.00177514
1.68436e-07
0.00178208
1.7292e-07
0.00178614
8.38167e-08
0.00178848
9.6058e-08
0.00179013
-3.20409e-08
0.00179095
1.32597e-09
0.00179125
-1.14802e-07
0.00179154
-6.09805e-08
0.00179186
-1.51335e-07
0.00179196
6.50311e-08
0.0017922
4.97689e-08
0.00179246
1.66215e-07
0.0017929
1.77005e-07
0.00179343
1.5634e-07
0.00179413
-9.9912e-08
0.00179475
-5.37636e-08
0.00179439
7.44535e-07
0.00179334
-2.57885e-09
0.00178275
-1.23691e-06
0.00175195
1.12949e-06
0.00172367
2.01864e-06
0.00171468
6.21397e-07
0.0017133
-3.28359e-07
0.0017129
-4.93772e-07
0.00171249
-5.42014e-07
0.00171196
-4.55247e-07
0.00171134
-4.55052e-07
0.00171077
-4.50717e-07
0.00171047
-4.38225e-07
0.00171013
-3.37745e-07
0.00170973
-2.82809e-07
0.00170909
-2.82929e-08
0.00170868
4.7803e-08
0.00170792
2.39236e-08
0.00170623
5.70349e-09
0.00170349
-3.11172e-08
0.00169922
-3.81692e-08
0.00169104
-9.27056e-08
0.00167674
-1.4335e-07
0.00165067
-1.39126e-07
0.00160494
-1.79317e-07
0.00153227
-2.1766e-07
0.00142712
-1.88374e-07
0.00128928
-1.49375e-07
0.00112491
-1.03114e-07
0.000945855
-5.79553e-08
0.000766297
-1.74914e-08
0.000599169
3.6986e-09
0.000453271
1.0426e-08
0.000332718
3.12896e-08
0.000237665
2.73446e-08
0.00016564
2.37596e-08
0.000112893
1.93381e-08
7.53918e-05
1.48804e-08
4.94141e-05
1.09427e-08
3.18315e-05
7.75261e-09
2.01774e-05
5.32277e-09
1.25986e-05
3.55698e-09
7.75577e-06
2.32123e-09
4.71099e-06
1.48313e-09
2.82529e-06
9.2982e-10
1.67361e-06
5.73032e-10
9.78917e-07
3.47886e-10
5.6422e-07
2.08539e-10
3.17366e-07
1.2446e-10
1.69416e-07
7.45732e-11
7.40061e-08
4.8117e-11
3.38528e-11
6.20594e-08
-1.7182e-11
1.4163e-07
-2.475e-11
2.64193e-07
-3.91822e-11
4.67295e-07
-6.67942e-11
8.05978e-07
-1.14422e-10
1.36889e-06
-1.95318e-10
2.29411e-06
-3.29751e-10
3.79475e-06
-5.4955e-10
6.19264e-06
-9.02634e-10
9.96298e-06
-1.45935e-09
1.57894e-05
-2.31941e-09
2.4627e-05
-3.6185e-09
3.77665e-05
-5.53209e-09
5.68858e-05
-8.27234e-09
8.40694e-05
-1.20719e-08
0.000121768
-1.71471e-08
0.000172669
-2.36316e-08
0.000239451
-3.14753e-08
0.000324414
-4.03083e-08
0.000429007
-4.92745e-08
0.000553294
-5.6776e-08
0.00069546
-5.93771e-08
0.000851485
-4.72228e-08
0.00101508
-4.91044e-08
0.00117799
-1.05086e-08
0.00133096
3.3301e-08
0.00146511
9.18193e-08
0.00157384
1.61355e-07
0.00165438
2.28026e-07
0.00170892
2.90696e-07
0.00174292
3.04548e-07
0.00176291
3.11119e-07
0.00177496
2.20792e-07
0.00178186
2.92311e-07
0.0017859
1.78317e-07
0.00178827
2.16321e-07
0.00179003
3.87495e-08
0.00179089
9.83251e-08
0.00179125
-7.92063e-08
0.00179144
3.16748e-08
0.00179156
3.44868e-08
0.00179172
6.38916e-08
0.00179184
1.38407e-07
0.00179204
1.8316e-07
0.00179218
3.04861e-07
0.00179191
6.6172e-07
0.00179165
2.82517e-07
0.0017913
3.45708e-07
0.00179042
1.59948e-06
0.00178513
2.96225e-06
0.00176583
2.83486e-06
0.00173783
-1.32615e-06
0.00171975
-3.35867e-06
0.00171564
-1.9135e-06
0.00171474
-2.45983e-07
0.00171405
-1.98071e-07
0.00171342
-2.02352e-07
0.00171283
-2.84782e-07
0.00171207
-2.29918e-07
0.00171129
-3.42091e-07
0.00171078
-4.14146e-07
0.00171034
-4.5621e-07
0.00170981
-3.96053e-07
0.00170922
-8.39072e-08
0.00170883
5.24018e-08
0.001708
3.74847e-08
0.00170621
4.58538e-08
0.00170337
-3.48724e-08
0.001699
-8.14035e-08
0.00169075
-1.47111e-07
0.00167652
-1.97178e-07
0.00165054
-2.4515e-07
0.00160491
-2.48165e-07
0.00153234
-2.66924e-07
0.00142728
-2.37314e-07
0.00128948
-1.84868e-07
0.0011251
-1.23064e-07
0.00094601
-6.44728e-08
0.000766397
-2.25445e-08
0.000599222
1.52532e-08
0.000453292
1.59926e-08
0.000332723
3.656e-08
0.000237657
3.71408e-08
0.000165625
3.23888e-08
0.000112878
2.61807e-08
7.53778e-05
2.00369e-08
4.94027e-05
1.46872e-08
3.18229e-05
1.03889e-08
2.01711e-05
7.12919e-09
1.25942e-05
4.76517e-09
7.7528e-06
3.11184e-09
4.70903e-06
1.99031e-09
2.82403e-06
1.24932e-09
1.67281e-06
7.70987e-10
9.78426e-07
4.68749e-10
5.63923e-07
2.81419e-10
3.17192e-07
1.68228e-10
1.6932e-07
1.00962e-10
7.39633e-08
6.52589e-11
4.59845e-11
6.20362e-08
-1.9437e-11
1.41578e-07
-2.79588e-11
2.64096e-07
-4.42063e-11
4.67125e-07
-7.52678e-11
8.0569e-07
-1.28812e-10
1.36841e-06
-2.19685e-10
2.29332e-06
-3.70594e-10
3.79348e-06
-6.17174e-10
6.19063e-06
-1.01309e-09
9.95986e-06
-1.63718e-09
1.57847e-05
-2.60128e-09
2.462e-05
-4.05798e-09
3.77564e-05
-6.20537e-09
5.68716e-05
-9.28464e-09
8.40501e-05
-1.35637e-08
0.000121743
-1.92983e-08
0.000172638
-2.6661e-08
0.000239415
-3.56301e-08
0.000324375
-4.5835e-08
0.000428969
-5.63684e-08
0.000553265
-6.55991e-08
0.000695455
-7.13496e-08
0.000851533
-7.485e-08
0.00101517
-5.1874e-08
0.00117814
-3.40525e-08
0.00133116
1.12174e-08
0.00146536
7.39102e-08
0.00157411
1.49111e-07
0.0016546
2.26156e-07
0.00170907
3.04005e-07
0.00174294
3.4292e-07
0.00176283
3.89123e-07
0.00177476
3.44198e-07
0.00178168
3.75179e-07
0.00178563
3.69302e-07
0.00178798
4.34308e-07
0.00178969
2.63778e-07
0.00179059
3.00359e-07
0.00179089
1.45742e-07
0.001791
2.85689e-07
0.00179127
1.75873e-07
0.00179129
2.84946e-07
0.00179139
2.81644e-07
0.00179151
3.06282e-07
0.00179182
3.29875e-07
0.00179221
4.2841e-07
0.00179195
4.54921e-07
0.00179166
5.56765e-07
0.00179224
8.91973e-07
0.00179166
5.51391e-07
0.00177925
-1.98649e-07
0.00174904
-5.34514e-07
0.00172314
-7.78065e-07
0.00171481
-9.69146e-07
0.0017144
-7.29409e-07
0.00171413
-3.42089e-07
0.00171365
-2.90177e-07
0.001713
-3.17046e-07
0.00171232
-3.52559e-07
0.00171158
-3.52307e-07
0.00171096
-3.52952e-07
0.00171026
-3.42465e-07
0.00170942
-2.61006e-07
0.00170867
-5.77403e-08
0.00170827
-5.56555e-08
0.00170748
-8.17423e-08
0.0017059
-2.08382e-07
0.00170313
-1.7488e-07
0.00169876
-2.03147e-07
0.00169047
-2.46895e-07
0.0016763
-3.13376e-07
0.0016504
-2.9855e-07
0.00160494
-3.27362e-07
0.00153249
-3.00988e-07
0.0014275
-2.51193e-07
0.00128972
-1.85996e-07
0.00112533
-1.18824e-07
0.000946184
-5.82057e-08
0.000766517
-6.78042e-09
0.000599286
2.04355e-08
0.000453306
2.63442e-08
0.000332709
4.57751e-08
0.000237633
4.31036e-08
0.000165599
3.71443e-08
0.000112853
2.98776e-08
7.53571e-05
2.2803e-08
4.93864e-05
1.66897e-08
3.18107e-05
1.17987e-08
2.01623e-05
8.09792e-09
1.25882e-05
5.4164e-09
7.74871e-06
3.54094e-09
4.70634e-06
2.26783e-09
2.8223e-06
1.42574e-09
1.67173e-06
8.81344e-10
9.77755e-07
5.36799e-10
5.63517e-07
3.22867e-10
3.16955e-07
1.93379e-10
1.69189e-07
1.16288e-10
7.39046e-08
7.53199e-11
5.31666e-11
6.201e-08
-1.95221e-11
1.41518e-07
-2.80309e-11
2.63987e-07
-4.42835e-11
4.66934e-07
-7.53152e-11
8.05367e-07
-1.2878e-10
1.36787e-06
-2.1945e-10
2.29244e-06
-3.69924e-10
3.79206e-06
-6.15663e-10
6.18839e-06
-1.01009e-09
9.95638e-06
-1.63174e-09
1.57794e-05
-2.59224e-09
2.46122e-05
-4.04435e-09
3.77451e-05
-6.18747e-09
5.68558e-05
-9.26665e-09
8.40288e-05
-1.35588e-08
0.000121715
-1.93384e-08
0.000172604
-2.68133e-08
0.000239375
-3.60248e-08
0.000324334
-4.67097e-08
0.000428932
-5.81367e-08
0.000553242
-6.89448e-08
0.00069546
-7.69731e-08
0.000851561
-7.76735e-08
0.00101526
-6.86703e-08
0.00117829
-5.04349e-08
0.00133139
-1.41085e-08
0.00146564
3.95235e-08
0.00157442
1.09384e-07
0.00165488
1.88232e-07
0.00170928
2.72309e-07
0.00174305
3.39046e-07
0.00176285
4.07077e-07
0.00177476
4.15151e-07
0.00178161
4.5634e-07
0.00178554
4.36441e-07
0.00178792
4.756e-07
0.00178967
3.95134e-07
0.00179064
4.30735e-07
0.00179102
3.15487e-07
0.00179129
4.54544e-07
0.00179163
3.4725e-07
0.00179176
4.89325e-07
0.00179188
4.6915e-07
0.00179202
4.77718e-07
0.00179227
4.81778e-07
0.00179247
4.35028e-07
0.00179254
3.49541e-07
0.00179291
1.59923e-07
0.00179364
-9.05759e-08
0.00179259
-1.0854e-06
0.00177718
-4.29546e-07
0.00174727
-5.83855e-07
0.00172347
-3.26129e-07
0.00171491
3.91399e-07
0.00171339
-1.24983e-07
0.00171286
-2.66618e-07
0.00171251
-4.0426e-07
0.0017122
-5.88942e-07
0.00171174
-5.583e-07
0.0017112
-5.0383e-07
0.00171068
-4.1367e-07
0.00171005
-3.64105e-07
0.00170932
-3.38787e-07
0.00170871
-2.95401e-07
0.00170844
-3.11278e-07
0.00170765
-2.96373e-07
0.00170578
-2.9109e-07
0.00170292
-3.19943e-07
0.00169852
-3.40426e-07
0.00169026
-3.13186e-07
0.00167618
-3.73585e-07
0.00165043
-3.49566e-07
0.00160506
-3.35467e-07
0.00153271
-2.88791e-07
0.00142779
-2.27927e-07
0.00129001
-1.58135e-07
0.00112558
-9.10202e-08
0.000946371
-3.49171e-08
0.000766633
7.12133e-09
0.000599345
3.4265e-08
0.000453321
4.07143e-08
0.000332699
4.8957e-08
0.000237609
4.53227e-08
0.00016557
3.83971e-08
0.000112826
3.05722e-08
7.53341e-05
2.31993e-08
4.93682e-05
1.69286e-08
3.1797e-05
1.19524e-08
2.01525e-05
8.20226e-09
1.25813e-05
5.48968e-09
7.74409e-06
3.59303e-09
4.7033e-06
2.30471e-09
2.82034e-06
1.45149e-09
1.67049e-06
8.98999e-10
9.76989e-07
5.48674e-10
5.63054e-07
3.30711e-10
3.16683e-07
1.98517e-10
1.69039e-07
1.1965e-10
7.38371e-08
7.76749e-11
5.49387e-11
6.19836e-08
-1.77627e-11
1.41459e-07
-2.54431e-11
2.63877e-07
-4.01436e-11
4.66743e-07
-6.81673e-11
8.05043e-07
-1.16411e-10
1.36733e-06
-1.98134e-10
2.29156e-06
-3.33636e-10
3.79064e-06
-5.54745e-10
6.18614e-06
-9.09427e-10
9.9529e-06
-1.46825e-09
1.57741e-05
-2.3317e-09
2.46044e-05
-3.63775e-09
3.77338e-05
-5.56751e-09
5.68399e-05
-8.34573e-09
8.40073e-05
-1.2231e-08
0.000121687
-1.74889e-08
0.000172569
-2.43414e-08
0.000239334
-3.28852e-08
0.000324289
-4.298e-08
0.000428888
-5.41104e-08
0.000553205
-6.52433e-08
0.00069544
-7.47081e-08
0.000851579
-8.02941e-08
0.00101532
-7.54304e-08
0.00117842
-6.04278e-08
0.00133158
-4.02778e-08
0.00146589
-2.83756e-09
0.00157471
5.44034e-08
0.00165518
1.2558e-07
0.00170955
2.05521e-07
0.00174325
2.9143e-07
0.00176297
3.74455e-07
0.00177481
4.35791e-07
0.00178162
4.91756e-07
0.00178551
5.04934e-07
0.00178785
5.3465e-07
0.00178956
5.12126e-07
0.00179048
5.44755e-07
0.00179085
4.43255e-07
0.00179111
6.61715e-07
0.00179145
5.29669e-07
0.00179167
6.14021e-07
0.00179196
5.2318e-07
0.00179224
5.53836e-07
0.00179254
5.49021e-07
0.00179276
4.00214e-07
0.00179293
2.38689e-07
0.00179339
-1.51341e-07
0.00179449
-1.11666e-06
0.00179218
-1.74262e-06
0.00177708
-1.9238e-07
0.0017476
2.54592e-07
0.00172448
-1.44188e-07
0.00171743
3.66507e-07
0.00171609
3.11889e-07
0.00171523
1.19736e-07
0.00171445
-2.33887e-08
0.00171377
-3.77632e-07
0.00171295
-3.38912e-07
0.00171207
-3.10854e-07
0.00171136
-3.01707e-07
0.00171065
-3.09762e-07
0.00170982
-3.26947e-07
0.00170897
-3.19623e-07
0.00170849
-3.73606e-07
0.00170759
-3.28647e-07
0.00170578
-3.85515e-07
0.00170287
-3.66936e-07
0.00169843
-4.02709e-07
0.00169019
-3.78122e-07
0.00167616
-3.95899e-07
0.00165051
-3.55218e-07
0.00160524
-3.06241e-07
0.00153297
-2.4259e-07
0.00142807
-1.75943e-07
0.00129029
-1.11654e-07
0.00112581
-5.41922e-08
0.000946532
-7.05259e-09
0.000766727
2.04829e-08
0.000599388
3.57757e-08
0.000453326
4.85821e-08
0.00033268
4.79946e-08
0.00023758
4.29867e-08
0.000165539
3.58166e-08
0.000112798
2.82455e-08
7.53104e-05
2.13155e-08
4.93496e-05
1.55079e-08
3.17831e-05
1.09354e-08
2.01425e-05
7.5035e-09
1.25744e-05
5.02533e-09
7.7394e-06
3.29303e-09
4.70021e-06
2.11556e-09
2.81835e-06
1.33474e-09
1.66923e-06
8.28295e-10
9.76208e-07
5.06551e-10
5.62579e-07
3.05961e-10
3.16404e-07
1.84061e-10
1.68884e-07
1.11185e-10
7.37677e-08
7.23432e-11
5.12701e-11
6.19598e-08
-1.44407e-11
1.41405e-07
-2.06492e-11
2.63778e-07
-3.25464e-11
4.6657e-07
-5.51989e-11
8.0475e-07
-9.4173e-11
1.36685e-06
-1.60137e-10
2.29076e-06
-2.69428e-10
3.78936e-06
-4.47652e-10
6.18412e-06
-7.33406e-10
9.94976e-06
-1.18352e-09
1.57693e-05
-1.87906e-09
2.45973e-05
-2.93168e-09
3.77236e-05
-4.48875e-09
5.68255e-05
-6.73487e-09
8.39877e-05
-9.88599e-09
0.000121662
-1.41712e-08
0.000172537
-1.97971e-08
0.000239295
-2.68901e-08
0.000324245
-3.54153e-08
0.000428843
-4.50773e-08
0.000553166
-5.52126e-08
0.000695416
-6.4692e-08
0.000851578
-7.1835e-08
0.00101536
-7.36472e-08
0.0011785
-6.68446e-08
0.00133172
-5.48758e-08
0.0014661
-2.90762e-08
0.00157497
8.4374e-09
0.00165548
6.30237e-08
0.00170986
1.30982e-07
0.00174353
2.12341e-07
0.00176321
2.9597e-07
0.001775
3.76581e-07
0.00178176
4.57323e-07
0.00178564
4.9439e-07
0.00178794
5.64263e-07
0.00178964
5.44759e-07
0.00179046
6.22348e-07
0.00179082
4.50292e-07
0.00179126
5.26249e-07
0.00179177
4.09641e-07
0.00179222
4.83176e-07
0.00179277
3.57559e-07
0.00179339
3.0112e-07
0.00179415
2.33349e-07
0.00179487
-1.27228e-08
0.00179521
-1.16089e-08
0.00179525
-5.39339e-08
0.00179491
-6.96771e-07
0.00179169
-1.54535e-06
0.00177899
-2.80497e-06
0.00174963
5.27913e-07
0.00172404
2.40353e-06
0.00171571
1.41183e-06
0.00171507
3.71306e-08
0.00171483
-4.49409e-08
0.0017145
-4.41823e-08
0.00171368
5.11897e-08
0.0017128
-2.76721e-08
0.00171192
-1.01542e-07
0.00171123
-1.89156e-07
0.00171054
-2.53859e-07
0.0017097
-3.08049e-07
0.00170886
-3.36897e-07
0.00170838
-3.76827e-07
0.00170753
-3.87157e-07
0.00170573
-4.35541e-07
0.00170288
-3.95388e-07
0.00169848
-4.20048e-07
0.00169029
-3.8314e-07
0.00167633
-3.57169e-07
0.00165074
-2.96746e-07
0.0016055
-2.33141e-07
0.00153325
-1.7029e-07
0.00142835
-1.11624e-07
0.00129053
-6.25313e-08
0.00112599
-2.22869e-08
0.000946656
6.42362e-09
0.000766796
2.94613e-08
0.000599411
3.74127e-08
0.000453323
4.40585e-08
0.00033266
4.19319e-08
0.000237551
3.65561e-08
0.00016551
2.99666e-08
0.000112771
2.34045e-08
7.52885e-05
1.75641e-08
4.93326e-05
1.27412e-08
3.17704e-05
8.9735e-09
2.01334e-05
6.15683e-09
1.25681e-05
4.12629e-09
7.73511e-06
2.70717e-09
4.69738e-06
1.74187e-09
2.81652e-06
1.10091e-09
1.66807e-06
6.84477e-10
9.75487e-07
4.19422e-10
5.62141e-07
2.53844e-10
3.16146e-07
1.53026e-10
1.68741e-07
9.26334e-11
7.37033e-08
6.04021e-11
4.28766e-11
6.19405e-08
-1.00997e-11
1.41361e-07
-1.44202e-11
2.63697e-07
-2.27088e-11
4.6643e-07
-3.84721e-11
8.04513e-07
-6.55805e-11
1.36645e-06
-1.11425e-10
2.29012e-06
-1.8733e-10
3.78832e-06
-3.11033e-10
6.18248e-06
-5.09275e-10
9.94722e-06
-8.21449e-10
1.57655e-05
-1.30383e-09
2.45915e-05
-2.03411e-09
3.77152e-05
-3.11535e-09
5.68137e-05
-4.67765e-09
8.39715e-05
-6.87543e-09
0.00012164
-9.87707e-09
0.000172509
-1.38438e-08
0.000239262
-1.88951e-08
0.000324207
-2.506e-08
0.000428802
-3.22168e-08
0.000553125
-4.0029e-08
0.000695382
-4.78962e-08
0.000851559
-5.49646e-08
0.00101536
-6.04611e-08
0.00117854
-6.44199e-08
0.00133181
-4.75603e-08
0.00146623
-3.45037e-08
0.00157515
-1.71629e-08
0.00165571
1.65149e-08
0.00171014
6.20575e-08
0.00174383
1.25162e-07
0.00176349
1.91714e-07
0.00177524
2.62582e-07
0.00178194
3.43381e-07
0.00178576
3.87811e-07
0.00178803
4.63884e-07
0.0017897
4.50167e-07
0.00179055
5.1976e-07
0.00179085
4.53739e-07
0.00179118
4.95841e-07
0.00179145
4.58594e-07
0.00179174
4.29905e-07
0.001792
3.88102e-07
0.0017923
3.5994e-07
0.00179258
3.70651e-07
0.00179244
4.17348e-07
0.00179215
4.10046e-07
0.00179162
5.5173e-07
0.0017902
7.8541e-07
0.00178439
2.02925e-06
0.00176385
2.60988e-06
0.00173526
-1.23907e-06
0.00171761
-3.27432e-06
0.00171435
-1.98625e-06
0.00171384
-3.0047e-07
0.00171341
-8.19678e-08
0.00171302
-8.87886e-08
0.00171267
-8.67486e-08
0.00171218
-1.16833e-07
0.00171161
-1.62579e-07
0.00171106
-1.64097e-07
0.00171042
-1.99684e-07
0.0017096
-2.31902e-07
0.00170877
-3.02006e-07
0.00170829
-3.70798e-07
0.00170745
-3.75513e-07
0.00170565
-3.97038e-07
0.00170285
-3.75603e-07
0.00169855
-3.6675e-07
0.00169045
-3.08322e-07
0.00167654
-2.59298e-07
0.00165098
-2.03033e-07
0.00160576
-1.46136e-07
0.00153349
-9.81645e-08
0.00142855
-5.61961e-08
0.00129069
-2.23117e-08
0.00112611
9.61599e-10
0.000946735
1.50134e-08
0.000766837
2.5112e-08
0.000599416
3.78075e-08
0.000453309
3.46849e-08
0.000332635
3.11408e-08
0.000237524
2.64743e-08
0.000165484
2.1416e-08
0.000112748
1.6603e-08
7.52699e-05
1.24098e-08
4.93182e-05
8.98468e-09
3.17598e-05
6.32406e-09
2.01259e-05
4.34024e-09
1.25628e-05
2.91129e-09
7.73156e-06
1.91237e-09
4.69503e-06
1.23225e-09
2.815e-06
7.8005e-10
1.66711e-06
4.85786e-10
9.7489e-07
2.9817e-10
5.61777e-07
1.80763e-10
3.15931e-07
1.09155e-10
1.68622e-07
6.61917e-11
7.36496e-08
4.32333e-11
3.07338e-11
6.19271e-08
-5.1744e-12
1.41331e-07
-7.37223e-12
2.63642e-07
-1.16144e-11
4.66334e-07
-1.96601e-11
8.0435e-07
-3.35009e-11
1.36618e-06
-5.68905e-11
2.28968e-06
-9.55964e-11
3.78761e-06
-1.58637e-10
6.18136e-06
-2.59606e-10
9.94548e-06
-4.18516e-10
1.57628e-05
-6.63951e-10
2.45876e-05
-1.0354e-09
3.77095e-05
-1.58529e-09
5.68057e-05
-2.38003e-09
8.39605e-05
-3.49896e-09
0.000121626
-5.02978e-09
0.000172491
-7.05909e-09
0.000239239
-9.65707e-09
0.000324181
-1.2856e-08
0.000428774
-1.66245e-08
0.000553098
-2.08413e-08
0.00069536
-2.52752e-08
0.000851547
-2.95863e-08
0.00101537
-3.33972e-08
0.00117856
-3.63036e-08
0.00133185
-3.61692e-08
0.00146631
-2.66148e-08
0.00157528
-2.75462e-08
0.00165589
5.40392e-09
0.00171035
2.146e-08
0.00174408
4.51847e-08
0.00176376
7.80397e-08
0.00177549
1.1733e-07
0.00178215
1.65062e-07
0.00178591
1.91514e-07
0.00178812
2.43816e-07
0.00178971
2.52006e-07
0.0017905
3.02727e-07
0.00179081
2.53838e-07
0.00179123
2.39484e-07
0.00179165
2.3102e-07
0.001792
1.89743e-07
0.00179243
1.19954e-07
0.00179301
2.50914e-08
0.00179375
-3.42824e-08
0.00179441
-4.4007e-08
0.00179471
7.20892e-08
0.00179469
5.58068e-07
0.00179427
1.08032e-06
0.00179212
1.17215e-06
0.00177933
4.71979e-08
0.00174947
-5.67023e-07
0.00172375
-7.10746e-07
0.00171543
-1.00404e-06
0.00171471
-4.96983e-07
0.00171437
-1.47131e-07
0.00171388
2.54614e-08
0.00171322
1.20139e-07
0.00171239
1.13026e-07
0.00171151
4.44046e-08
0.00171083
-3.84415e-09
0.00171014
-6.06106e-08
0.00170937
-9.31829e-08
0.00170869
-2.12368e-07
0.00170828
-2.57725e-07
0.00170745
-2.00902e-07
0.0017057
-2.13863e-07
0.00170293
-1.97428e-07
0.0016987
-1.84072e-07
0.00169067
-1.48357e-07
0.00167678
-1.1381e-07
0.00165122
-8.69608e-08
0.00160597
-5.67408e-08
0.00153367
-3.57606e-08
0.0014287
-1.89166e-08
0.0012908
-7.55644e-09
0.00112619
-8.13586e-12
0.000946778
1.35128e-08
0.000766854
1.93652e-08
0.000599422
2.07007e-08
0.000453302
1.89213e-08
0.000332621
1.66194e-08
0.000237506
1.39352e-08
0.000165467
1.118e-08
0.000112733
8.62649e-09
7.52575e-05
6.43139e-09
4.93086e-05
4.6509e-09
3.17527e-05
3.27269e-09
2.01207e-05
2.24667e-09
1.25592e-05
1.50793e-09
7.72912e-06
9.91347e-10
4.69341e-06
6.39388e-10
2.81395e-06
4.05155e-10
1.66644e-06
2.52571e-10
9.74472e-07
1.5518e-10
5.61522e-07
9.41695e-11
3.15781e-07
5.69201e-11
1.68538e-07
3.45516e-11
7.36119e-08
2.25836e-11
1.60689e-11
6.19198e-08
1.41314e-07
2.63611e-07
4.66279e-07
8.04256e-07
1.36602e-06
2.28942e-06
3.78719e-06
6.18068e-06
9.94442e-06
1.57612e-05
2.45851e-05
3.77059e-05
5.68004e-05
8.39531e-05
0.000121615
0.000172477
0.000239222
0.000324159
0.000428749
0.00055307
0.00069533
0.000851519
0.00101534
0.00117855
0.00133185
0.00146633
0.00157531
0.00165595
0.00171045
0.00174423
0.00176394
0.0017757
0.00178237
0.00178613
0.0017883
0.00178988
0.0017906
0.00179076
0.00179109
0.0017914
0.00179159
0.0017918
0.001792
0.00179223
0.00179231
0.00179227
0.00179277
0.0017937
0.00179195
0.00177666
0.00174677
0.00172282
0.0017145
0.00171299
0.0017124
0.00171203
0.00171171
0.00171131
0.00171081
0.00171038
0.00170986
0.00170926
0.00170857
0.00170821
0.00170749
0.00170582
0.0017031
0.00169889
0.00169086
0.00167695
0.00165136
0.00160609
0.00153375
0.00142875
0.00129083
0.0011262
0.000946782
0.000766849
0.000599408
0.000453284
0.000332602
0.000237489
0.000165452
0.000112721
7.52483e-05
4.93017e-05
3.17477e-05
2.01172e-05
1.25568e-05
7.72756e-06
4.69239e-06
2.8133e-06
1.66603e-06
9.74221e-07
5.61371e-07
3.15692e-07
1.68489e-07
7.35899e-08
)
;

boundaryField
{
    sides1
    {
        type            calculated;
        value           nonuniform List<scalar> 
20
(
6.24887e-09
6.24632e-09
6.24189e-09
6.2358e-09
6.22877e-09
6.22153e-09
6.2148e-09
6.20919e-09
6.20523e-09
6.20299e-09
-5.32467e-09
-5.3237e-09
-5.32201e-09
-5.31974e-09
-5.3172e-09
-5.31466e-09
-5.31238e-09
-5.31055e-09
-5.3093e-09
-5.30864e-09
)
;
    }
    sides2
    {
        type            calculated;
        value           uniform 0;
    }
    empty
    {
        type            empty;
        value           nonuniform 0();
    }
}


// ************************************************************************* //
