/*--------------------------------*- C++ -*----------------------------------*\
| =========                 |                                                 |
| \\      /  F ield         | OpenFOAM: The Open Source CFD Toolbox           |
|  \\    /   O peration     | Version:  3.0.1                                 |
|   \\  /    A nd           | Web:      www.OpenFOAM.org                      |
|    \\/     M anipulation  |                                                 |
\*---------------------------------------------------------------------------*/
FoamFile
{
    version     2.0;
    format      ascii;
    class       volScalarField;
    location    "0.00025";
    object      T;
}
// * * * * * * * * * * * * * * * * * * * * * * * * * * * * * * * * * * * * * //

dimensions      [0 0 0 1 0 0 0];

internalField   nonuniform List<scalar> 
1000
(
289
289
289
288.999
288.999
288.998
288.997
288.995
288.992
288.987
288.978
288.965
288.944
288.913
288.866
288.797
288.699
288.563
288.378
288.135
287.825
287.442
286.986
286.464
285.891
285.292
284.699
284.149
283.674
283.298
283.026
282.844
282.732
282.665
282.62
282.6
282.581
282.576
282.565
282.566
282.561
282.561
282.558
282.557
282.554
282.55
282.546
282.546
282.566
282.896
284.715
288.853
293.168
295.131
295.453
295.47
295.468
295.466
295.463
295.463
295.461
295.46
295.456
295.456
295.452
295.449
295.437
295.425
295.396
295.343
295.259
295.102
294.857
294.494
294.011
293.421
292.761
292.082
291.433
290.855
290.369
289.981
289.685
289.467
289.311
289.203
289.131
289.082
289.051
289.031
289.019
289.011
289.007
289.004
289.002
289.001
289.001
289
289
289
289
289
289
288.999
288.999
288.998
288.997
288.995
288.992
288.987
288.978
288.965
288.944
288.913
288.866
288.797
288.699
288.563
288.378
288.135
287.825
287.442
286.986
286.464
285.891
285.292
284.699
284.148
283.674
283.297
283.026
282.844
282.731
282.666
282.621
282.601
282.582
282.577
282.566
282.566
282.561
282.561
282.558
282.556
282.553
282.55
282.544
282.538
282.566
282.946
284.78
288.782
293.025
295.083
295.451
295.468
295.466
295.465
295.463
295.463
295.461
295.46
295.456
295.456
295.451
295.449
295.437
295.424
295.395
295.342
295.259
295.102
294.857
294.495
294.012
293.422
292.762
292.082
291.433
290.855
290.369
289.981
289.685
289.467
289.311
289.203
289.131
289.082
289.051
289.031
289.019
289.011
289.007
289.004
289.002
289.001
289.001
289
289
289
289
289
289
288.999
288.999
288.998
288.997
288.995
288.992
288.987
288.978
288.965
288.945
288.913
288.866
288.797
288.699
288.563
288.378
288.135
287.825
287.442
286.986
286.464
285.891
285.291
284.698
284.147
283.673
283.296
283.025
282.844
282.732
282.667
282.622
282.603
282.584
282.578
282.567
282.567
282.562
282.562
282.558
282.557
282.554
282.551
282.548
282.548
282.564
282.886
284.701
288.851
293.18
295.14
295.454
295.468
295.467
295.465
295.462
295.462
295.46
295.459
295.455
295.455
295.451
295.448
295.436
295.423
295.393
295.341
295.258
295.101
294.857
294.496
294.013
293.423
292.762
292.082
291.433
290.855
290.369
289.981
289.685
289.467
289.311
289.203
289.131
289.082
289.051
289.031
289.019
289.011
289.007
289.004
289.002
289.001
289.001
289
289
289
289
289
289
288.999
288.999
288.998
288.997
288.995
288.992
288.987
288.978
288.965
288.945
288.913
288.866
288.797
288.699
288.563
288.378
288.135
287.825
287.442
286.986
286.464
285.891
285.291
284.697
284.146
283.672
283.295
283.025
282.844
282.732
282.667
282.623
282.604
282.585
282.58
282.568
282.568
282.562
282.562
282.558
282.557
282.553
282.55
282.544
282.539
282.569
282.948
284.784
288.802
293.046
295.087
295.45
295.468
295.466
295.464
295.462
295.462
295.46
295.459
295.455
295.456
295.45
295.447
295.434
295.421
295.392
295.34
295.257
295.101
294.858
294.496
294.014
293.424
292.763
292.083
291.434
290.855
290.369
289.981
289.685
289.467
289.311
289.203
289.131
289.082
289.051
289.031
289.019
289.011
289.007
289.004
289.002
289.001
289.001
289
289
289
289
289
289
288.999
288.999
288.998
288.997
288.995
288.992
288.987
288.978
288.965
288.945
288.913
288.866
288.797
288.699
288.563
288.378
288.135
287.825
287.442
286.986
286.464
285.89
285.29
284.697
284.145
283.67
283.294
283.024
282.843
282.732
282.668
282.623
282.604
282.586
282.581
282.569
282.569
282.564
282.563
282.559
282.558
282.554
282.551
282.545
282.54
282.57
282.952
284.795
288.82
293.058
295.09
295.451
295.469
295.467
295.465
295.462
295.461
295.459
295.458
295.454
295.454
295.449
295.446
295.433
295.42
295.391
295.339
295.257
295.102
294.858
294.497
294.015
293.425
292.764
292.084
291.434
290.855
290.369
289.981
289.685
289.466
289.311
289.203
289.13
289.082
289.051
289.031
289.019
289.011
289.007
289.004
289.002
289.001
289.001
289
289
289
289
289
289
288.999
288.999
288.998
288.997
288.995
288.992
288.987
288.978
288.965
288.945
288.913
288.866
288.797
288.7
288.563
288.379
288.136
287.825
287.443
286.986
286.464
285.89
285.29
284.696
284.144
283.669
283.293
283.022
282.842
282.731
282.667
282.623
282.605
282.586
282.581
282.57
282.57
282.565
282.564
282.56
282.558
282.555
282.551
282.546
282.541
282.57
282.951
284.799
288.826
293.062
295.091
295.452
295.467
295.466
295.464
295.462
295.461
295.459
295.457
295.453
295.453
295.448
295.445
295.432
295.419
295.39
295.338
295.257
295.102
294.859
294.499
294.016
293.426
292.765
292.084
291.434
290.855
290.369
289.981
289.685
289.466
289.311
289.203
289.13
289.082
289.051
289.031
289.019
289.011
289.007
289.004
289.002
289.001
289.001
289
289
289
289
289
289
288.999
288.999
288.998
288.997
288.995
288.992
288.987
288.978
288.965
288.945
288.913
288.866
288.798
288.7
288.563
288.379
288.136
287.826
287.443
286.987
286.464
285.89
285.29
284.695
284.143
283.668
283.292
283.021
282.84
282.73
282.666
282.623
282.604
282.586
282.581
282.57
282.57
282.565
282.565
282.561
282.559
282.556
282.552
282.545
282.535
282.56
282.943
284.799
288.826
293.058
295.087
295.449
295.467
295.466
295.464
295.461
295.461
295.458
295.457
295.452
295.453
295.448
295.444
295.432
295.419
295.39
295.339
295.258
295.103
294.861
294.5
294.017
293.427
292.765
292.084
291.435
290.855
290.369
289.981
289.684
289.466
289.311
289.203
289.13
289.082
289.051
289.031
289.019
289.011
289.007
289.004
289.002
289.001
289.001
289
289
289
289
289
289
288.999
288.999
288.998
288.997
288.995
288.992
288.987
288.979
288.965
288.945
288.913
288.866
288.798
288.7
288.563
288.379
288.136
287.826
287.443
286.987
286.464
285.89
285.29
284.695
284.143
283.668
283.291
283.02
282.839
282.729
282.665
282.621
282.603
282.585
282.581
282.57
282.571
282.566
282.566
282.562
282.561
282.557
282.554
282.549
282.549
282.566
282.886
284.701
288.854
293.184
295.141
295.454
295.467
295.465
295.463
295.46
295.46
295.457
295.456
295.452
295.452
295.447
295.444
295.432
295.42
295.391
295.34
295.259
295.104
294.862
294.501
294.018
293.427
292.766
292.085
291.435
290.855
290.369
289.981
289.684
289.466
289.311
289.203
289.13
289.082
289.051
289.031
289.019
289.011
289.007
289.004
289.002
289.001
289.001
289
289
289
289
289
289
288.999
288.999
288.998
288.997
288.995
288.992
288.987
288.979
288.965
288.945
288.913
288.866
288.798
288.7
288.563
288.379
288.136
287.826
287.443
286.987
286.464
285.89
285.29
284.695
284.143
283.667
283.29
283.019
282.838
282.727
282.663
282.62
282.602
282.584
282.58
282.57
282.571
282.566
282.566
282.562
282.56
282.557
282.552
282.546
282.54
282.569
282.951
284.795
288.809
293.043
295.084
295.45
295.467
295.465
295.463
295.46
295.459
295.456
295.455
295.451
295.452
295.447
295.445
295.433
295.421
295.393
295.341
295.26
295.106
294.863
294.501
294.018
293.427
292.766
292.085
291.435
290.855
290.369
289.981
289.684
289.466
289.311
289.203
289.13
289.082
289.051
289.031
289.019
289.011
289.007
289.004
289.002
289.001
289.001
289
289
289
289
289
289
288.999
288.999
288.998
288.997
288.995
288.992
288.987
288.979
288.965
288.945
288.913
288.866
288.798
288.7
288.563
288.379
288.136
287.826
287.443
286.987
286.464
285.89
285.29
284.695
284.143
283.667
283.29
283.018
282.837
282.726
282.662
282.619
282.601
282.583
282.579
282.569
282.57
282.566
282.566
282.562
282.561
282.557
282.553
282.547
282.544
282.573
282.952
284.794
288.815
293.048
295.083
295.45
295.469
295.467
295.463
295.46
295.459
295.456
295.456
295.452
295.453
295.448
295.446
295.434
295.422
295.394
295.342
295.261
295.106
294.863
294.502
294.019
293.428
292.766
292.085
291.435
290.855
290.369
289.981
289.684
289.466
289.311
289.203
289.13
289.082
289.051
289.031
289.019
289.011
289.007
289.004
289.002
289.001
289.001
289
289
289
)
;

boundaryField
{
    sides1
    {
        type            zeroGradient;
    }
    sides2
    {
        type            slip;
    }
    empty
    {
        type            empty;
    }
}


// ************************************************************************* //
