/*--------------------------------*- C++ -*----------------------------------*\
| =========                 |                                                 |
| \\      /  F ield         | OpenFOAM: The Open Source CFD Toolbox           |
|  \\    /   O peration     | Version:  2012                                  |
|   \\  /    A nd           | Website:  www.openfoam.com                      |
|    \\/     M anipulation  |                                                 |
\*---------------------------------------------------------------------------*/
FoamFile
{
    version     2.0;
    format      ascii;
    class       volScalarField;
    location    "4620";
    object      minKappa;
}
// * * * * * * * * * * * * * * * * * * * * * * * * * * * * * * * * * * * * * //

dimensions      [0 0 0 0 0 0 0];


internalField   nonuniform List<scalar> 
20400
(
3.39545e-12
3.39545e-12
3.7364e-12
1.05282e-11
2.80357e-11
5.22183e-11
8.0728e-11
1.12158e-10
1.44769e-10
1.78032e-10
2.11263e-10
2.44211e-10
2.77034e-10
3.09536e-10
3.41872e-10
3.74046e-10
4.06107e-10
4.38081e-10
4.69985e-10
5.01794e-10
5.33446e-10
5.64907e-10
5.96189e-10
6.27296e-10
6.58217e-10
6.88943e-10
7.19463e-10
7.49775e-10
7.79882e-10
8.09796e-10
8.39534e-10
8.69099e-10
8.9845e-10
9.2744e-10
9.55912e-10
9.84018e-10
1.01236e-09
1.04064e-09
1.06848e-09
1.0961e-09
1.1234e-09
1.15045e-09
1.17727e-09
1.20388e-09
1.23033e-09
1.25662e-09
1.28277e-09
1.30879e-09
1.33466e-09
1.3604e-09
1.38598e-09
1.41142e-09
1.43673e-09
1.4619e-09
1.48696e-09
1.5119e-09
1.53678e-09
1.56152e-09
1.58603e-09
1.61054e-09
1.6353e-09
1.66022e-09
1.68507e-09
1.70983e-09
1.73452e-09
1.75907e-09
1.78351e-09
1.80781e-09
1.83201e-09
1.85612e-09
1.88015e-09
1.9041e-09
1.928e-09
1.95185e-09
1.97564e-09
1.99938e-09
2.02308e-09
2.04673e-09
2.07034e-09
2.09389e-09
2.1174e-09
2.14087e-09
2.1643e-09
2.18768e-09
2.21095e-09
2.23396e-09
2.2566e-09
2.27932e-09
2.30218e-09
2.32486e-09
2.34739e-09
2.36965e-09
2.39157e-09
2.41312e-09
2.43471e-09
2.4562e-09
2.47744e-09
2.4984e-09
2.519e-09
2.5392e-09
2.55898e-09
2.57825e-09
2.59699e-09
2.61511e-09
2.63268e-09
2.64954e-09
2.66593e-09
2.68139e-09
2.69654e-09
2.71046e-09
2.72405e-09
2.73616e-09
2.74685e-09
2.75483e-09
2.7606e-09
2.76515e-09
2.76753e-09
2.76696e-09
2.76394e-09
2.75871e-09
2.75139e-09
2.74181e-09
2.72972e-09
2.71513e-09
2.69765e-09
2.67724e-09
2.65336e-09
2.62583e-09
2.59398e-09
2.5571e-09
2.51617e-09
2.46956e-09
2.42008e-09
2.36832e-09
2.31795e-09
2.27304e-09
2.22784e-09
2.1783e-09
2.12386e-09
2.06577e-09
2.00357e-09
1.93857e-09
1.87077e-09
1.80084e-09
1.729e-09
1.65534e-09
1.57865e-09
1.49835e-09
1.41375e-09
1.32848e-09
1.23217e-09
1.13352e-09
1.03655e-09
9.3788e-10
8.35342e-10
7.28831e-10
6.02047e-10
4.81804e-10
4.07452e-10
3.31457e-10
2.43723e-10
1.56849e-10
7.97506e-11
6.67587e-11
6.67587e-11
1.35884e-10
2.24141e-10
3.1347e-10
4.021e-10
4.89058e-10
5.74685e-10
6.57987e-10
7.39707e-10
8.18745e-10
8.96055e-10
9.70489e-10
1.04308e-09
1.11269e-09
1.18031e-09
1.24501e-09
1.30755e-09
1.3672e-09
1.42459e-09
1.47913e-09
1.53139e-09
1.58082e-09
1.62798e-09
1.6725e-09
1.71468e-09
1.75437e-09
1.79179e-09
1.82683e-09
1.8597e-09
1.89031e-09
1.91887e-09
1.9453e-09
1.96982e-09
1.99235e-09
2.01311e-09
2.03206e-09
2.0493e-09
2.06493e-09
2.07899e-09
2.09157e-09
2.1027e-09
2.11249e-09
2.12099e-09
2.12827e-09
2.13439e-09
2.1394e-09
2.14339e-09
2.14646e-09
2.14863e-09
2.14997e-09
2.15038e-09
2.14946e-09
2.14789e-09
2.14574e-09
2.143e-09
2.1398e-09
2.1361e-09
2.13206e-09
2.12763e-09
2.12292e-09
2.11791e-09
2.11267e-09
2.10721e-09
2.10157e-09
2.09577e-09
2.08984e-09
2.08382e-09
2.07772e-09
2.07158e-09
2.06539e-09
2.05922e-09
2.05301e-09
2.04688e-09
2.04073e-09
2.03472e-09
2.0287e-09
2.02285e-09
2.01703e-09
2.01135e-09
2.00576e-09
2.00031e-09
1.99499e-09
1.98983e-09
1.98482e-09
1.97998e-09
1.9753e-09
1.97079e-09
1.96645e-09
1.9623e-09
1.95831e-09
1.95452e-09
1.9509e-09
1.94747e-09
1.94422e-09
1.94117e-09
1.93831e-09
1.93563e-09
1.93314e-09
1.93084e-09
1.92873e-09
1.92681e-09
1.92507e-09
1.92351e-09
1.92214e-09
1.92094e-09
1.91993e-09
1.91908e-09
1.91842e-09
1.91791e-09
1.9176e-09
1.91741e-09
1.9174e-09
1.9174e-09
1.91756e-09
1.91787e-09
1.91832e-09
1.91891e-09
1.91966e-09
1.92056e-09
1.92157e-09
1.92274e-09
1.92403e-09
1.92547e-09
1.92703e-09
1.9287e-09
1.93048e-09
1.93238e-09
1.93439e-09
1.9365e-09
1.93871e-09
1.94102e-09
1.94341e-09
1.9459e-09
1.94845e-09
1.95111e-09
1.95382e-09
1.95664e-09
1.95949e-09
1.96245e-09
1.96544e-09
1.96851e-09
1.97163e-09
1.97482e-09
1.97805e-09
1.98135e-09
1.98469e-09
1.98808e-09
1.99151e-09
1.99498e-09
1.99848e-09
2.00202e-09
2.00559e-09
2.00919e-09
2.01281e-09
2.01646e-09
2.02013e-09
2.02381e-09
2.02752e-09
2.03123e-09
2.03496e-09
2.03869e-09
2.04244e-09
2.04619e-09
2.04994e-09
2.05369e-09
2.05745e-09
2.0612e-09
2.06496e-09
2.0687e-09
2.07244e-09
2.07617e-09
2.0799e-09
2.08361e-09
2.08732e-09
2.091e-09
2.09469e-09
2.09834e-09
2.102e-09
2.10562e-09
2.10924e-09
2.11283e-09
2.11641e-09
2.11996e-09
2.1235e-09
2.12701e-09
2.13051e-09
2.13397e-09
2.13742e-09
2.14083e-09
2.14423e-09
2.1476e-09
2.15094e-09
2.15426e-09
2.15756e-09
2.16082e-09
2.16407e-09
2.16728e-09
2.17046e-09
2.17362e-09
2.17675e-09
2.17986e-09
2.18293e-09
2.18598e-09
2.189e-09
2.19199e-09
2.19495e-09
2.19788e-09
2.20079e-09
2.20366e-09
2.20651e-09
2.20933e-09
2.21212e-09
2.21489e-09
2.21762e-09
2.22033e-09
2.22301e-09
2.22566e-09
2.22828e-09
2.23088e-09
2.23345e-09
2.23599e-09
2.2385e-09
2.24099e-09
2.24345e-09
2.24588e-09
2.24829e-09
2.25067e-09
2.25303e-09
2.25536e-09
2.25766e-09
2.25994e-09
2.26219e-09
2.26442e-09
2.26663e-09
2.26881e-09
2.27097e-09
2.2731e-09
2.27521e-09
2.27729e-09
2.27936e-09
2.2814e-09
2.28341e-09
2.28541e-09
2.28738e-09
2.28933e-09
2.29126e-09
2.29317e-09
2.29505e-09
2.29692e-09
2.29876e-09
2.30059e-09
2.30239e-09
2.30418e-09
2.30594e-09
2.30769e-09
2.30941e-09
2.31112e-09
2.31281e-09
2.31448e-09
2.31613e-09
2.31776e-09
2.31937e-09
2.32097e-09
2.32255e-09
2.32411e-09
2.32566e-09
2.32719e-09
2.3287e-09
2.33019e-09
2.33167e-09
2.33314e-09
2.33458e-09
2.33602e-09
2.33743e-09
2.33883e-09
2.34022e-09
2.34159e-09
2.34294e-09
2.34428e-09
2.34561e-09
2.34692e-09
2.34822e-09
2.34951e-09
2.35078e-09
2.35203e-09
2.35328e-09
2.3545e-09
2.35572e-09
2.35692e-09
2.35812e-09
2.35929e-09
2.36046e-09
2.36161e-09
2.36275e-09
2.36388e-09
2.36499e-09
2.3661e-09
2.36719e-09
2.36827e-09
2.36934e-09
2.37039e-09
2.37144e-09
2.37247e-09
2.37349e-09
2.3745e-09
2.3755e-09
2.37649e-09
2.37747e-09
2.37844e-09
2.37939e-09
2.38034e-09
2.38127e-09
2.3822e-09
2.38311e-09
2.38401e-09
2.38491e-09
2.38579e-09
2.38666e-09
2.38753e-09
2.38838e-09
2.38922e-09
2.39005e-09
2.39087e-09
2.39168e-09
2.39248e-09
2.39326e-09
2.39405e-09
2.3948e-09
2.39558e-09
2.39629e-09
2.39706e-09
2.39774e-09
2.39853e-09
2.39918e-09
2.40014e-09
2.40078e-09
3.41811e-12
7.74014e-12
2.52342e-11
5.67173e-11
1.00067e-10
1.50812e-10
2.07796e-10
2.67981e-10
3.29835e-10
3.92822e-10
4.55305e-10
5.18209e-10
5.80499e-10
6.42472e-10
7.03985e-10
7.65131e-10
8.2592e-10
8.86362e-10
9.4649e-10
1.00616e-09
1.06526e-09
1.12382e-09
1.18186e-09
1.23936e-09
1.29631e-09
1.35272e-09
1.40858e-09
1.4639e-09
1.51871e-09
1.57303e-09
1.62691e-09
1.68033e-09
1.73324e-09
1.78541e-09
1.83678e-09
1.8885e-09
1.93995e-09
1.9909e-09
2.04151e-09
2.09165e-09
2.14135e-09
2.19061e-09
2.23942e-09
2.28781e-09
2.33579e-09
2.38336e-09
2.43056e-09
2.47738e-09
2.52385e-09
2.57e-09
2.61585e-09
2.66142e-09
2.70675e-09
2.75185e-09
2.79677e-09
2.84144e-09
2.88598e-09
2.93011e-09
2.97388e-09
3.01724e-09
3.0599e-09
3.10248e-09
3.14439e-09
3.18632e-09
3.22805e-09
3.26968e-09
3.31117e-09
3.35251e-09
3.39369e-09
3.43471e-09
3.47555e-09
3.51621e-09
3.55669e-09
3.59697e-09
3.63707e-09
3.67695e-09
3.71664e-09
3.75612e-09
3.79539e-09
3.83442e-09
3.87326e-09
3.91184e-09
3.95021e-09
3.98829e-09
4.02606e-09
4.06336e-09
4.1003e-09
4.13735e-09
4.17406e-09
4.21032e-09
4.24617e-09
4.28127e-09
4.31581e-09
4.34945e-09
4.38277e-09
4.4151e-09
4.44701e-09
4.47766e-09
4.50774e-09
4.53633e-09
4.56432e-09
4.59035e-09
4.6157e-09
4.63857e-09
4.661e-09
4.68028e-09
4.69905e-09
4.71393e-09
4.72801e-09
4.73797e-09
4.74713e-09
4.75037e-09
4.75223e-09
4.74985e-09
4.75248e-09
4.74796e-09
4.74411e-09
4.73197e-09
4.72026e-09
4.69998e-09
4.6801e-09
4.65127e-09
4.62314e-09
4.58538e-09
4.54892e-09
4.50172e-09
4.45691e-09
4.39977e-09
4.34646e-09
4.27893e-09
4.21589e-09
4.138e-09
4.06326e-09
3.97384e-09
3.88806e-09
3.78878e-09
3.68374e-09
3.57349e-09
3.45888e-09
3.33989e-09
3.21723e-09
3.08881e-09
2.95738e-09
2.81894e-09
2.67761e-09
2.52539e-09
2.3753e-09
2.19902e-09
2.04732e-09
1.86783e-09
1.72795e-09
1.58296e-09
1.43378e-09
1.27691e-09
1.09511e-09
8.85379e-10
7.63511e-10
6.19221e-10
4.02777e-10
2.83987e-10
2.81601e-10
3.20548e-10
3.78826e-10
4.65747e-10
5.95628e-10
7.62584e-10
9.10015e-10
1.07512e-09
1.21938e-09
1.37915e-09
1.51865e-09
1.67126e-09
1.80517e-09
1.94949e-09
2.07723e-09
2.21256e-09
2.33364e-09
2.4596e-09
2.57361e-09
2.68995e-09
2.79641e-09
2.90337e-09
3.00175e-09
3.09947e-09
3.18966e-09
3.27821e-09
3.3602e-09
3.43994e-09
3.51375e-09
3.58496e-09
3.65083e-09
3.71384e-09
3.77206e-09
3.82727e-09
3.87821e-09
3.92603e-09
3.97011e-09
4.011e-09
4.04866e-09
4.08315e-09
4.11474e-09
4.14336e-09
4.16929e-09
4.19255e-09
4.21326e-09
4.23159e-09
4.24757e-09
4.26141e-09
4.27313e-09
4.2829e-09
4.29082e-09
4.297e-09
4.30152e-09
4.30451e-09
4.30613e-09
4.30631e-09
4.30511e-09
4.30259e-09
4.29917e-09
4.29449e-09
4.2892e-09
4.28271e-09
4.27591e-09
4.26791e-09
4.25986e-09
4.25064e-09
4.24157e-09
4.23136e-09
4.22153e-09
4.21055e-09
4.20014e-09
4.18866e-09
4.17784e-09
4.16605e-09
4.15497e-09
4.14306e-09
4.13182e-09
4.11998e-09
4.10867e-09
4.09712e-09
4.08579e-09
4.07464e-09
4.06345e-09
4.05265e-09
4.04174e-09
4.03137e-09
4.02088e-09
4.011e-09
4.00101e-09
3.99167e-09
3.98224e-09
3.97347e-09
3.96462e-09
3.95646e-09
3.94822e-09
3.9407e-09
3.93309e-09
3.92624e-09
3.91928e-09
3.91311e-09
3.90681e-09
3.90132e-09
3.89569e-09
3.89089e-09
3.88595e-09
3.88182e-09
3.87755e-09
3.87408e-09
3.87049e-09
3.86767e-09
3.86475e-09
3.86256e-09
3.86031e-09
3.85872e-09
3.85713e-09
3.8561e-09
3.85514e-09
3.85472e-09
3.85433e-09
3.85443e-09
3.85462e-09
3.85528e-09
3.85605e-09
3.85718e-09
3.85849e-09
3.86012e-09
3.86193e-09
3.86401e-09
3.86629e-09
3.8688e-09
3.87152e-09
3.87446e-09
3.8776e-09
3.88095e-09
3.88447e-09
3.88814e-09
3.89204e-09
3.896e-09
3.90027e-09
3.90445e-09
3.9091e-09
3.9135e-09
3.91849e-09
3.9231e-09
3.92839e-09
3.9332e-09
3.93877e-09
3.94378e-09
3.94959e-09
3.95479e-09
3.96081e-09
3.96617e-09
3.97237e-09
3.97788e-09
3.98423e-09
3.98988e-09
3.99635e-09
4.00212e-09
4.0087e-09
4.01456e-09
4.02123e-09
4.02718e-09
4.03392e-09
4.03994e-09
4.04672e-09
4.0528e-09
4.05962e-09
4.06573e-09
4.07258e-09
4.07872e-09
4.08557e-09
4.09173e-09
4.09857e-09
4.10474e-09
4.11156e-09
4.11773e-09
4.12451e-09
4.13068e-09
4.13741e-09
4.14358e-09
4.15024e-09
4.15639e-09
4.16297e-09
4.16912e-09
4.17561e-09
4.18173e-09
4.18813e-09
4.19423e-09
4.20052e-09
4.20659e-09
4.21278e-09
4.21881e-09
4.22488e-09
4.23087e-09
4.23684e-09
4.24276e-09
4.24864e-09
4.25448e-09
4.26027e-09
4.26602e-09
4.27173e-09
4.27739e-09
4.283e-09
4.28857e-09
4.29409e-09
4.29957e-09
4.30499e-09
4.31037e-09
4.3157e-09
4.32098e-09
4.32622e-09
4.3314e-09
4.33654e-09
4.34163e-09
4.34667e-09
4.35166e-09
4.3566e-09
4.3615e-09
4.36634e-09
4.37114e-09
4.37589e-09
4.38059e-09
4.38525e-09
4.38985e-09
4.39441e-09
4.39892e-09
4.40339e-09
4.4078e-09
4.41218e-09
4.4165e-09
4.42078e-09
4.42502e-09
4.42921e-09
4.43335e-09
4.43745e-09
4.44151e-09
4.44552e-09
4.44949e-09
4.45342e-09
4.4573e-09
4.46115e-09
4.46495e-09
4.46871e-09
4.47242e-09
4.4761e-09
4.47974e-09
4.48334e-09
4.4869e-09
4.49042e-09
4.4939e-09
4.49734e-09
4.50075e-09
4.50412e-09
4.50745e-09
4.51074e-09
4.514e-09
4.51723e-09
4.52042e-09
4.52357e-09
4.52669e-09
4.52978e-09
4.53283e-09
4.53585e-09
4.53883e-09
4.54178e-09
4.54471e-09
4.5476e-09
4.55045e-09
4.55328e-09
4.55608e-09
4.55884e-09
4.56158e-09
4.56429e-09
4.56696e-09
4.56961e-09
4.57223e-09
4.57482e-09
4.57739e-09
4.57992e-09
4.58243e-09
4.58492e-09
4.58737e-09
4.5898e-09
4.5922e-09
4.59458e-09
4.59693e-09
4.59926e-09
4.60156e-09
4.60384e-09
4.60609e-09
4.60832e-09
4.61052e-09
4.6127e-09
4.61486e-09
4.617e-09
4.61911e-09
4.6212e-09
4.62326e-09
4.62531e-09
4.62733e-09
4.62933e-09
4.63131e-09
4.63327e-09
4.6352e-09
4.63712e-09
4.63901e-09
4.64089e-09
4.64274e-09
4.64457e-09
4.64639e-09
4.64818e-09
4.64995e-09
4.65171e-09
4.65344e-09
4.65516e-09
4.65685e-09
4.65853e-09
4.66018e-09
4.66182e-09
4.66344e-09
4.66504e-09
4.66663e-09
4.66819e-09
4.66973e-09
4.67127e-09
4.67276e-09
4.67427e-09
4.67571e-09
4.67721e-09
4.67857e-09
4.68008e-09
4.68134e-09
4.6829e-09
4.684e-09
4.68567e-09
4.68655e-09
4.68844e-09
4.68898e-09
4.6914e-09
4.69124e-09
4.21907e-12
2.7283e-11
8.36317e-11
1.54051e-10
2.40635e-10
3.38591e-10
4.46048e-10
5.5902e-10
6.75519e-10
7.93862e-10
9.12355e-10
1.03112e-09
1.14899e-09
1.2661e-09
1.38221e-09
1.49733e-09
1.61143e-09
1.72447e-09
1.83629e-09
1.94692e-09
2.05654e-09
2.16504e-09
2.27248e-09
2.3788e-09
2.48397e-09
2.588e-09
2.69087e-09
2.79261e-09
2.89323e-09
2.99276e-09
3.09124e-09
3.18864e-09
3.285e-09
3.38032e-09
3.47484e-09
3.56854e-09
3.66057e-09
3.75182e-09
3.84206e-09
3.93131e-09
4.01956e-09
4.10684e-09
4.19316e-09
4.27865e-09
4.36331e-09
4.4472e-09
4.53032e-09
4.61268e-09
4.69429e-09
4.77516e-09
4.8553e-09
4.93474e-09
5.0135e-09
5.09154e-09
5.169e-09
5.2456e-09
5.32183e-09
5.39719e-09
5.47277e-09
5.54707e-09
5.62071e-09
5.69415e-09
5.76681e-09
5.83899e-09
5.9105e-09
5.9814e-09
6.05171e-09
6.1214e-09
6.19052e-09
6.25904e-09
6.327e-09
6.39435e-09
6.46113e-09
6.52729e-09
6.59286e-09
6.65777e-09
6.72207e-09
6.78567e-09
6.84863e-09
6.91081e-09
6.97233e-09
7.033e-09
7.09294e-09
7.1519e-09
7.21007e-09
7.26729e-09
7.3239e-09
7.37908e-09
7.4331e-09
7.4854e-09
7.53693e-09
7.58701e-09
7.63611e-09
7.68338e-09
7.72893e-09
7.77205e-09
7.81423e-09
7.85368e-09
7.8917e-09
7.92646e-09
7.9596e-09
7.98916e-09
8.01659e-09
8.03988e-09
8.06131e-09
8.07736e-09
8.09198e-09
8.10005e-09
8.10708e-09
8.10648e-09
8.10638e-09
8.09515e-09
8.08529e-09
8.0615e-09
8.03847e-09
8.00451e-09
7.96897e-09
7.92302e-09
7.87468e-09
7.81497e-09
7.7528e-09
7.67821e-09
7.60142e-09
7.51115e-09
7.41914e-09
7.31234e-09
7.20448e-09
7.08032e-09
6.9552e-09
6.81287e-09
6.66442e-09
6.50656e-09
6.33243e-09
6.15525e-09
5.96806e-09
5.78735e-09
5.6082e-09
5.40157e-09
5.19749e-09
4.97256e-09
4.75091e-09
4.4596e-09
4.13859e-09
3.80282e-09
3.47399e-09
3.13048e-09
2.80432e-09
2.46333e-09
2.14576e-09
1.83231e-09
1.54864e-09
1.32933e-09
1.23125e-09
9.81626e-10
7.43272e-10
6.24805e-10
6.24805e-10
6.97819e-10
7.67827e-10
8.09521e-10
9.54325e-10
1.20355e-09
1.46329e-09
1.75299e-09
2.0198e-09
2.30794e-09
2.57091e-09
2.85246e-09
3.10851e-09
3.38029e-09
3.62774e-09
3.88783e-09
4.12548e-09
4.37238e-09
4.59924e-09
4.83192e-09
5.04722e-09
5.26478e-09
5.46781e-09
5.67004e-09
5.85978e-09
6.04692e-09
6.22269e-09
6.39479e-09
6.55637e-09
6.71349e-09
6.86088e-09
7.00331e-09
7.13667e-09
7.26474e-09
7.38442e-09
7.49859e-09
7.60503e-09
7.70587e-09
7.79963e-09
7.88779e-09
7.96948e-09
8.04568e-09
8.11599e-09
8.18098e-09
8.24062e-09
8.29514e-09
8.34476e-09
8.38963e-09
8.42996e-09
8.46595e-09
8.49771e-09
8.52555e-09
8.54954e-09
8.56996e-09
8.58691e-09
8.60059e-09
8.6112e-09
8.6189e-09
8.62392e-09
8.6264e-09
8.62632e-09
8.62356e-09
8.61896e-09
8.61224e-09
8.604e-09
8.59386e-09
8.58252e-09
8.5694e-09
8.55541e-09
8.5398e-09
8.52363e-09
8.50601e-09
8.48813e-09
8.46889e-09
8.44968e-09
8.42925e-09
8.40904e-09
8.38775e-09
8.36687e-09
8.34505e-09
8.32373e-09
8.30173e-09
8.28016e-09
8.25832e-09
8.23668e-09
8.21525e-09
8.19376e-09
8.17282e-09
8.15173e-09
8.13142e-09
8.11097e-09
8.09139e-09
8.07171e-09
8.05296e-09
8.03418e-09
8.01635e-09
7.99854e-09
7.98173e-09
7.96495e-09
7.94924e-09
7.93355e-09
7.91898e-09
7.90444e-09
7.89103e-09
7.87767e-09
7.86547e-09
7.8533e-09
7.84231e-09
7.83136e-09
7.82159e-09
7.81186e-09
7.8033e-09
7.79479e-09
7.78741e-09
7.78012e-09
7.77391e-09
7.76781e-09
7.76275e-09
7.75782e-09
7.75388e-09
7.75009e-09
7.74726e-09
7.74455e-09
7.74274e-09
7.74112e-09
7.74034e-09
7.73976e-09
7.73992e-09
7.74034e-09
7.74141e-09
7.74283e-09
7.74477e-09
7.74707e-09
7.74982e-09
7.75299e-09
7.75658e-09
7.76055e-09
7.76491e-09
7.7696e-09
7.77465e-09
7.78002e-09
7.78571e-09
7.79178e-09
7.79799e-09
7.80472e-09
7.81144e-09
7.81878e-09
7.82598e-09
7.83389e-09
7.84154e-09
7.84998e-09
7.85806e-09
7.86698e-09
7.87546e-09
7.88479e-09
7.89363e-09
7.90333e-09
7.9125e-09
7.92252e-09
7.93198e-09
7.94228e-09
7.952e-09
7.96254e-09
7.97248e-09
7.98323e-09
7.99337e-09
8.0043e-09
8.01461e-09
8.02568e-09
8.03612e-09
8.04731e-09
8.05786e-09
8.06914e-09
8.07977e-09
8.09111e-09
8.10181e-09
8.11318e-09
8.12393e-09
8.13531e-09
8.14608e-09
8.15746e-09
8.16823e-09
8.17958e-09
8.19035e-09
8.20163e-09
8.21239e-09
8.22359e-09
8.23433e-09
8.24543e-09
8.25614e-09
8.26712e-09
8.27779e-09
8.28864e-09
8.29925e-09
8.30996e-09
8.32051e-09
8.33106e-09
8.34153e-09
8.35195e-09
8.3623e-09
8.37259e-09
8.38281e-09
8.39296e-09
8.40304e-09
8.41306e-09
8.423e-09
8.43287e-09
8.44266e-09
8.45238e-09
8.46202e-09
8.47159e-09
8.48107e-09
8.49048e-09
8.49981e-09
8.50906e-09
8.51823e-09
8.52732e-09
8.53632e-09
8.54525e-09
8.55409e-09
8.56286e-09
8.57154e-09
8.58014e-09
8.58866e-09
8.59709e-09
8.60545e-09
8.61372e-09
8.62192e-09
8.63003e-09
8.63806e-09
8.64601e-09
8.65389e-09
8.66168e-09
8.66939e-09
8.67702e-09
8.68458e-09
8.69206e-09
8.69946e-09
8.70678e-09
8.71403e-09
8.7212e-09
8.7283e-09
8.73532e-09
8.74227e-09
8.74915e-09
8.75595e-09
8.76268e-09
8.76933e-09
8.77592e-09
8.78244e-09
8.78889e-09
8.79526e-09
8.80157e-09
8.80782e-09
8.81399e-09
8.8201e-09
8.82615e-09
8.83212e-09
8.83804e-09
8.84389e-09
8.84968e-09
8.8554e-09
8.86107e-09
8.86667e-09
8.87221e-09
8.87769e-09
8.88312e-09
8.88848e-09
8.89379e-09
8.89904e-09
8.90424e-09
8.90938e-09
8.91446e-09
8.91949e-09
8.92446e-09
8.92939e-09
8.93426e-09
8.93907e-09
8.94384e-09
8.94855e-09
8.95322e-09
8.95783e-09
8.9624e-09
8.96691e-09
8.97138e-09
8.9758e-09
8.98018e-09
8.9845e-09
8.98878e-09
8.99302e-09
8.99721e-09
9.00136e-09
9.00546e-09
9.00951e-09
9.01353e-09
9.0175e-09
9.02143e-09
9.02532e-09
9.02916e-09
9.03297e-09
9.03673e-09
9.04046e-09
9.04414e-09
9.04779e-09
9.05139e-09
9.05496e-09
9.05849e-09
9.06198e-09
9.06543e-09
9.06884e-09
9.07222e-09
9.07556e-09
9.07887e-09
9.08214e-09
9.08537e-09
9.08857e-09
9.09173e-09
9.09486e-09
9.09795e-09
9.10101e-09
9.10403e-09
9.10702e-09
9.10998e-09
9.1129e-09
9.11579e-09
9.11864e-09
9.12147e-09
9.12425e-09
9.12702e-09
9.12972e-09
9.13243e-09
9.13505e-09
9.13773e-09
9.14024e-09
9.14289e-09
9.14528e-09
9.14794e-09
9.15015e-09
9.15289e-09
9.15484e-09
9.15775e-09
9.15931e-09
9.16254e-09
9.1634e-09
1.31463e-11
6.56573e-11
1.67762e-10
2.86895e-10
4.17182e-10
5.59821e-10
7.12758e-10
8.72292e-10
1.03615e-09
1.2024e-09
1.36961e-09
1.53685e-09
1.70291e-09
1.86754e-09
2.03054e-09
2.19182e-09
2.35129e-09
2.50875e-09
2.66397e-09
2.81702e-09
2.96821e-09
3.11748e-09
3.2648e-09
3.41018e-09
3.55354e-09
3.69492e-09
3.83435e-09
3.97182e-09
4.10747e-09
4.24126e-09
4.37334e-09
4.50364e-09
4.63242e-09
4.75981e-09
4.88604e-09
5.00975e-09
5.13235e-09
5.25348e-09
5.3732e-09
5.49147e-09
5.60826e-09
5.72363e-09
5.83749e-09
5.94997e-09
6.06101e-09
6.17068e-09
6.27901e-09
6.38603e-09
6.49179e-09
6.59631e-09
6.69965e-09
6.80183e-09
6.90291e-09
7.00289e-09
7.10193e-09
7.19987e-09
7.29712e-09
7.39318e-09
7.4887e-09
7.58194e-09
7.67279e-09
7.76297e-09
7.85144e-09
7.93943e-09
8.02632e-09
8.11246e-09
8.19764e-09
8.28181e-09
8.36494e-09
8.44699e-09
8.52796e-09
8.60776e-09
8.68644e-09
8.76389e-09
8.84016e-09
8.91514e-09
8.98887e-09
9.06123e-09
9.13228e-09
9.20184e-09
9.27006e-09
9.33666e-09
9.40186e-09
9.4653e-09
9.52723e-09
9.58722e-09
9.64538e-09
9.70151e-09
9.75608e-09
9.80797e-09
9.85797e-09
9.90478e-09
9.94991e-09
9.99146e-09
1.00309e-08
1.0066e-08
1.00988e-08
1.01268e-08
1.01527e-08
1.01731e-08
1.01912e-08
1.02032e-08
1.02122e-08
1.0214e-08
1.02139e-08
1.02047e-08
1.01939e-08
1.01728e-08
1.01497e-08
1.01147e-08
1.00754e-08
1.00286e-08
9.96175e-09
9.9016e-09
9.84709e-09
9.76891e-09
9.6909e-09
9.59403e-09
9.4963e-09
9.38157e-09
9.26466e-09
9.13113e-09
8.94637e-09
8.72677e-09
8.50322e-09
8.26113e-09
8.01716e-09
7.75251e-09
7.48909e-09
7.20343e-09
6.92267e-09
6.6191e-09
6.31643e-09
6.00315e-09
5.67526e-09
5.31932e-09
4.96022e-09
4.59816e-09
4.23591e-09
3.86685e-09
3.50086e-09
3.1318e-09
2.7754e-09
2.4334e-09
2.13439e-09
1.89752e-09
1.75124e-09
1.67008e-09
1.33636e-09
1.05561e-09
9.07541e-10
9.07541e-10
9.42783e-10
1.13521e-09
1.21794e-09
1.29851e-09
1.47224e-09
1.76026e-09
2.07454e-09
2.44166e-09
2.79394e-09
3.17388e-09
3.53005e-09
3.90809e-09
4.2598e-09
4.63115e-09
4.97563e-09
5.33679e-09
5.6714e-09
6.01938e-09
6.34252e-09
6.67561e-09
6.98598e-09
7.30264e-09
7.59921e-09
7.89823e-09
8.17999e-09
8.46068e-09
8.72635e-09
8.98863e-09
9.23713e-09
9.48094e-09
9.71174e-09
9.93691e-09
1.01498e-08
1.03563e-08
1.05513e-08
1.07394e-08
1.09166e-08
1.10867e-08
1.12465e-08
1.1399e-08
1.15419e-08
1.16775e-08
1.18041e-08
1.19235e-08
1.20345e-08
1.21385e-08
1.22348e-08
1.23243e-08
1.24066e-08
1.24824e-08
1.25516e-08
1.26146e-08
1.26715e-08
1.27227e-08
1.27683e-08
1.28085e-08
1.28436e-08
1.28738e-08
1.28993e-08
1.29204e-08
1.29372e-08
1.295e-08
1.2959e-08
1.29644e-08
1.29666e-08
1.2965e-08
1.29605e-08
1.29532e-08
1.29436e-08
1.29314e-08
1.29172e-08
1.29006e-08
1.28825e-08
1.28623e-08
1.28409e-08
1.28176e-08
1.27935e-08
1.27678e-08
1.27414e-08
1.27138e-08
1.26857e-08
1.26566e-08
1.26273e-08
1.25971e-08
1.2567e-08
1.25361e-08
1.25055e-08
1.24744e-08
1.24435e-08
1.24127e-08
1.23818e-08
1.23514e-08
1.23209e-08
1.22911e-08
1.22612e-08
1.22323e-08
1.22032e-08
1.21752e-08
1.21472e-08
1.21203e-08
1.20934e-08
1.20678e-08
1.20422e-08
1.20179e-08
1.19938e-08
1.1971e-08
1.19483e-08
1.1927e-08
1.19058e-08
1.18861e-08
1.18665e-08
1.18484e-08
1.18304e-08
1.18139e-08
1.17976e-08
1.17826e-08
1.1768e-08
1.17547e-08
1.17416e-08
1.173e-08
1.17185e-08
1.17084e-08
1.16986e-08
1.16901e-08
1.16818e-08
1.16748e-08
1.1668e-08
1.16625e-08
1.16572e-08
1.16532e-08
1.16493e-08
1.16466e-08
1.16441e-08
1.16427e-08
1.16416e-08
1.16415e-08
1.16416e-08
1.16426e-08
1.16441e-08
1.16462e-08
1.16489e-08
1.16521e-08
1.16558e-08
1.166e-08
1.16647e-08
1.16699e-08
1.16757e-08
1.16817e-08
1.16883e-08
1.16951e-08
1.17026e-08
1.17102e-08
1.17185e-08
1.17268e-08
1.17359e-08
1.17449e-08
1.17547e-08
1.17643e-08
1.17747e-08
1.17849e-08
1.17958e-08
1.18065e-08
1.1818e-08
1.18291e-08
1.1841e-08
1.18526e-08
1.18649e-08
1.18769e-08
1.18896e-08
1.19018e-08
1.19148e-08
1.19274e-08
1.19407e-08
1.19535e-08
1.1967e-08
1.198e-08
1.19937e-08
1.20069e-08
1.20207e-08
1.2034e-08
1.2048e-08
1.20614e-08
1.20754e-08
1.2089e-08
1.2103e-08
1.21166e-08
1.21307e-08
1.21443e-08
1.21584e-08
1.21721e-08
1.21861e-08
1.21997e-08
1.22137e-08
1.22273e-08
1.22412e-08
1.22548e-08
1.22686e-08
1.22821e-08
1.22958e-08
1.23092e-08
1.23227e-08
1.23361e-08
1.23495e-08
1.23628e-08
1.2376e-08
1.23891e-08
1.24022e-08
1.24152e-08
1.24281e-08
1.24409e-08
1.24536e-08
1.24663e-08
1.24789e-08
1.24914e-08
1.25038e-08
1.25161e-08
1.25283e-08
1.25404e-08
1.25524e-08
1.25643e-08
1.25762e-08
1.25879e-08
1.25995e-08
1.26111e-08
1.26225e-08
1.26338e-08
1.26451e-08
1.26562e-08
1.26672e-08
1.26782e-08
1.2689e-08
1.26997e-08
1.27104e-08
1.27209e-08
1.27313e-08
1.27417e-08
1.27519e-08
1.2762e-08
1.27721e-08
1.2782e-08
1.27918e-08
1.28016e-08
1.28112e-08
1.28208e-08
1.28302e-08
1.28396e-08
1.28488e-08
1.2858e-08
1.28671e-08
1.2876e-08
1.28849e-08
1.28937e-08
1.29024e-08
1.2911e-08
1.29195e-08
1.2928e-08
1.29363e-08
1.29446e-08
1.29527e-08
1.29608e-08
1.29688e-08
1.29767e-08
1.29846e-08
1.29923e-08
1.3e-08
1.30076e-08
1.30151e-08
1.30225e-08
1.30298e-08
1.30371e-08
1.30443e-08
1.30514e-08
1.30585e-08
1.30654e-08
1.30723e-08
1.30791e-08
1.30859e-08
1.30926e-08
1.30992e-08
1.31057e-08
1.31122e-08
1.31186e-08
1.31249e-08
1.31311e-08
1.31373e-08
1.31435e-08
1.31495e-08
1.31555e-08
1.31615e-08
1.31674e-08
1.31732e-08
1.31789e-08
1.31846e-08
1.31902e-08
1.31958e-08
1.32013e-08
1.32068e-08
1.32122e-08
1.32175e-08
1.32228e-08
1.3228e-08
1.32332e-08
1.32383e-08
1.32434e-08
1.32484e-08
1.32533e-08
1.32582e-08
1.32631e-08
1.32679e-08
1.32726e-08
1.32773e-08
1.3282e-08
1.32866e-08
1.32911e-08
1.32956e-08
1.33001e-08
1.33045e-08
1.33088e-08
1.33131e-08
1.33174e-08
1.33216e-08
1.33257e-08
1.33299e-08
1.33339e-08
1.3338e-08
1.33419e-08
1.33459e-08
1.33498e-08
1.33536e-08
1.33574e-08
1.33612e-08
1.33649e-08
1.33686e-08
1.33722e-08
1.33758e-08
1.33793e-08
1.33828e-08
1.33862e-08
1.33897e-08
1.3393e-08
1.33964e-08
1.33995e-08
1.3403e-08
1.34058e-08
1.34094e-08
1.34118e-08
1.34155e-08
1.34174e-08
3.66391e-11
1.24391e-10
2.80383e-10
4.54727e-10
6.28208e-10
8.12435e-10
1.00562e-09
1.20535e-09
1.40912e-09
1.61566e-09
1.82296e-09
2.02977e-09
2.23504e-09
2.43816e-09
2.63874e-09
2.83652e-09
3.03126e-09
3.22265e-09
3.41077e-09
3.59595e-09
3.77867e-09
3.95839e-09
4.1356e-09
4.31001e-09
4.48166e-09
4.65058e-09
4.81684e-09
4.98046e-09
5.14152e-09
5.3001e-09
5.45634e-09
5.61021e-09
5.76188e-09
5.91134e-09
6.0586e-09
6.20355e-09
6.34544e-09
6.48523e-09
6.62281e-09
6.75819e-09
6.89129e-09
7.02231e-09
7.15122e-09
7.27831e-09
7.4035e-09
7.527e-09
7.64871e-09
7.76864e-09
7.8868e-09
8.00319e-09
8.11783e-09
8.23075e-09
8.34191e-09
8.45135e-09
8.55894e-09
8.66504e-09
8.76908e-09
8.87171e-09
8.97249e-09
9.0716e-09
9.16998e-09
9.26637e-09
9.36203e-09
9.45499e-09
9.54636e-09
9.63583e-09
9.72358e-09
9.80953e-09
9.89376e-09
9.97613e-09
1.00568e-08
1.01354e-08
1.02123e-08
1.02872e-08
1.03602e-08
1.0431e-08
1.04998e-08
1.05664e-08
1.06309e-08
1.06928e-08
1.07527e-08
1.08098e-08
1.0865e-08
1.0917e-08
1.0967e-08
1.10136e-08
1.10578e-08
1.10981e-08
1.11354e-08
1.11678e-08
1.11982e-08
1.12243e-08
1.12476e-08
1.1266e-08
1.12818e-08
1.12908e-08
1.12973e-08
1.12955e-08
1.12924e-08
1.12802e-08
1.12415e-08
1.11681e-08
1.10935e-08
1.10046e-08
1.09145e-08
1.08093e-08
1.07028e-08
1.058e-08
1.04573e-08
1.03156e-08
1.01768e-08
1.00194e-08
9.86514e-09
9.68909e-09
9.49414e-09
9.29395e-09
9.08504e-09
8.86456e-09
8.63666e-09
8.39444e-09
8.14578e-09
7.88127e-09
7.61129e-09
7.32465e-09
7.03353e-09
6.72506e-09
6.41421e-09
6.08438e-09
5.75493e-09
5.40655e-09
5.06005e-09
4.69925e-09
4.33965e-09
3.97535e-09
3.61961e-09
3.27302e-09
2.9512e-09
2.66617e-09
2.43872e-09
2.28179e-09
2.19112e-09
1.98911e-09
1.66123e-09
1.39402e-09
1.23802e-09
1.23253e-09
1.23253e-09
1.38591e-09
1.65716e-09
1.69005e-09
1.7737e-09
1.97826e-09
2.26025e-09
2.62834e-09
3.01511e-09
3.44239e-09
3.85686e-09
4.29843e-09
4.71842e-09
5.16938e-09
5.59003e-09
6.03345e-09
6.44842e-09
6.88339e-09
7.29011e-09
7.71345e-09
8.11022e-09
8.52094e-09
8.90576e-09
9.30104e-09
9.67207e-09
1.00501e-08
1.04062e-08
1.07654e-08
1.11057e-08
1.14451e-08
1.17681e-08
1.20876e-08
1.23918e-08
1.26911e-08
1.29759e-08
1.32547e-08
1.35196e-08
1.37777e-08
1.40225e-08
1.42599e-08
1.44847e-08
1.47016e-08
1.49065e-08
1.51033e-08
1.52887e-08
1.54658e-08
1.56322e-08
1.57903e-08
1.59384e-08
1.60783e-08
1.62088e-08
1.63312e-08
1.64449e-08
1.65509e-08
1.66486e-08
1.67389e-08
1.68216e-08
1.68972e-08
1.69657e-08
1.70275e-08
1.70828e-08
1.71318e-08
1.71748e-08
1.7212e-08
1.72437e-08
1.727e-08
1.72913e-08
1.73079e-08
1.73198e-08
1.73275e-08
1.73311e-08
1.73306e-08
1.73261e-08
1.73182e-08
1.73073e-08
1.72934e-08
1.72768e-08
1.72575e-08
1.72359e-08
1.7212e-08
1.71862e-08
1.71582e-08
1.71288e-08
1.70976e-08
1.70652e-08
1.70313e-08
1.69966e-08
1.69605e-08
1.6924e-08
1.68864e-08
1.68485e-08
1.68098e-08
1.6771e-08
1.67317e-08
1.66924e-08
1.66529e-08
1.66134e-08
1.65743e-08
1.65349e-08
1.64963e-08
1.64574e-08
1.64195e-08
1.63814e-08
1.63444e-08
1.63074e-08
1.62716e-08
1.62358e-08
1.62013e-08
1.6167e-08
1.61339e-08
1.61011e-08
1.60698e-08
1.60386e-08
1.6009e-08
1.59796e-08
1.59517e-08
1.59242e-08
1.58982e-08
1.58725e-08
1.58484e-08
1.58247e-08
1.58025e-08
1.57807e-08
1.57604e-08
1.57406e-08
1.57223e-08
1.57043e-08
1.56879e-08
1.56719e-08
1.56575e-08
1.56434e-08
1.56307e-08
1.56185e-08
1.56077e-08
1.55972e-08
1.55882e-08
1.55796e-08
1.55723e-08
1.55653e-08
1.55596e-08
1.55543e-08
1.55503e-08
1.55466e-08
1.5544e-08
1.55419e-08
1.55408e-08
1.55402e-08
1.55404e-08
1.55411e-08
1.55426e-08
1.55448e-08
1.55475e-08
1.55509e-08
1.55548e-08
1.55593e-08
1.55642e-08
1.55699e-08
1.55758e-08
1.55826e-08
1.55895e-08
1.55972e-08
1.56051e-08
1.56137e-08
1.56224e-08
1.56318e-08
1.56412e-08
1.56514e-08
1.56616e-08
1.56725e-08
1.56834e-08
1.56949e-08
1.57063e-08
1.57184e-08
1.57304e-08
1.5743e-08
1.57554e-08
1.57685e-08
1.57814e-08
1.57949e-08
1.58081e-08
1.5822e-08
1.58356e-08
1.58497e-08
1.58636e-08
1.5878e-08
1.58921e-08
1.59068e-08
1.59211e-08
1.5936e-08
1.59504e-08
1.59654e-08
1.598e-08
1.59951e-08
1.60098e-08
1.6025e-08
1.60398e-08
1.6055e-08
1.60698e-08
1.6085e-08
1.60998e-08
1.6115e-08
1.61299e-08
1.6145e-08
1.61598e-08
1.61748e-08
1.61897e-08
1.62046e-08
1.62193e-08
1.62341e-08
1.62488e-08
1.62635e-08
1.62781e-08
1.62926e-08
1.63071e-08
1.63215e-08
1.63358e-08
1.635e-08
1.63642e-08
1.63782e-08
1.63922e-08
1.64061e-08
1.64199e-08
1.64337e-08
1.64473e-08
1.64608e-08
1.64743e-08
1.64876e-08
1.65009e-08
1.6514e-08
1.6527e-08
1.654e-08
1.65528e-08
1.65655e-08
1.65782e-08
1.65907e-08
1.66031e-08
1.66154e-08
1.66276e-08
1.66397e-08
1.66517e-08
1.66636e-08
1.66753e-08
1.6687e-08
1.66986e-08
1.671e-08
1.67213e-08
1.67326e-08
1.67437e-08
1.67547e-08
1.67657e-08
1.67765e-08
1.67872e-08
1.67978e-08
1.68083e-08
1.68187e-08
1.6829e-08
1.68391e-08
1.68492e-08
1.68592e-08
1.68691e-08
1.68789e-08
1.68886e-08
1.68982e-08
1.69076e-08
1.6917e-08
1.69263e-08
1.69355e-08
1.69446e-08
1.69537e-08
1.69626e-08
1.69714e-08
1.69801e-08
1.69888e-08
1.69973e-08
1.70058e-08
1.70142e-08
1.70225e-08
1.70307e-08
1.70388e-08
1.70469e-08
1.70548e-08
1.70627e-08
1.70705e-08
1.70782e-08
1.70858e-08
1.70933e-08
1.71008e-08
1.71082e-08
1.71155e-08
1.71228e-08
1.71299e-08
1.7137e-08
1.7144e-08
1.71509e-08
1.71578e-08
1.71646e-08
1.71713e-08
1.7178e-08
1.71846e-08
1.71911e-08
1.71975e-08
1.72039e-08
1.72102e-08
1.72164e-08
1.72226e-08
1.72287e-08
1.72348e-08