/*--------------------------------*- C++ -*----------------------------------*\
| =========                 |                                                 |
| \\      /  F ield         | OpenFOAM: The Open Source CFD Toolbox           |
|  \\    /   O peration     | Version:  2012                                  |
|   \\  /    A nd           | Website:  www.openfoam.com                      |
|    \\/     M anipulation  |                                                 |
\*---------------------------------------------------------------------------*/
FoamFile
{
    version     2.0;
    format      ascii;
    class       volScalarField;
    location    "1820";
    object      p;
}
// * * * * * * * * * * * * * * * * * * * * * * * * * * * * * * * * * * * * * //

dimensions      [1 -1 -2 0 0 0 0];


internalField   nonuniform List<scalar> 
20400
(
998.202
998.202
998.201
998.2
998.2
998.199
998.199
998.199
998.198
998.198
998.198
998.198
998.199
998.199
998.199
998.2
998.2
998.201
998.202
998.202
998.203
998.204
998.206
998.207
998.209
998.21
998.212
998.214
998.216
998.218
998.221
998.223
998.226
998.229
998.232
998.235
998.238
998.242
998.245
998.249
998.253
998.257
998.261
998.265
998.27
998.274
998.279
998.284
998.289
998.294
998.3
998.305
998.311
998.317
998.323
998.329
998.336
998.342
998.349
998.356
998.363
998.37
998.378
998.385
998.393
998.401
998.41
998.418
998.427
998.436
998.445
998.455
998.464
998.474
998.484
998.495
998.505
998.516
998.527
998.538
998.55
998.561
998.573
998.586
998.598
998.611
998.624
998.637
998.651
998.665
998.679
998.694
998.708
998.723
998.739
998.754
998.77
998.787
998.803
998.82
998.838
998.855
998.873
998.892
998.911
998.93
998.95
998.97
998.99
999.012
999.033
999.056
999.078
999.102
999.124
999.149
999.172
999.198
999.221
999.247
999.271
999.298
999.323
999.351
999.376
999.404
999.429
999.458
999.483
999.511
999.536
999.564
999.588
999.615
999.639
999.666
999.69
999.718
999.743
999.77
999.795
999.822
999.847
999.873
999.898
999.925
999.95
999.977
1000
1000.03
1000.05
1000.08
1000.1
1000.12
1000.14
1000.15
1000.17
1000.18
1000.2
1000.21
1000.23
1000.24
1000.26
1000.27
1000.28
1000.29
1000.31
1000.32
1000.33
1000.33
1000.34
1000.35
1000.36
1000.36
1000.37
1000.37
1000.38
1000.38
1000.39
1000.39
1000.4
1000.4
1000.4
1000.4
1000.4
1000.41
1000.41
1000.41
1000.41
1000.41
1000.41
1000.41
1000.41
1000.41
1000.41
1000.41
1000.41
1000.41
1000.41
1000.41
1000.41
1000.41
1000.41
1000.41
1000.41
1000.41
1000.41
1000.41
1000.41
1000.41
1000.41
1000.41
1000.41
1000.41
1000.41
1000.41
1000.41
1000.41
1000.41
1000.41
1000.41
1000.41
1000.41
1000.41
1000.41
1000.41
1000.41
1000.41
1000.41
1000.41
1000.41
1000.41
1000.41
1000.42
1000.42
1000.42
1000.42
1000.42
1000.42
1000.42
1000.42
1000.42
1000.42
1000.43
1000.43
1000.43
1000.43
1000.43
1000.43
1000.43
1000.43
1000.43
1000.44
1000.44
1000.44
1000.44
1000.44
1000.44
1000.44
1000.44
1000.45
1000.45
1000.45
1000.45
1000.45
1000.45
1000.45
1000.45
1000.45
1000.45
1000.45
1000.46
1000.46
1000.46
1000.46
1000.46
1000.46
1000.46
1000.46
1000.46
1000.46
1000.46
1000.46
1000.46
1000.46
1000.46
1000.46
1000.46
1000.46
1000.47
1000.47
1000.47
1000.47
1000.47
1000.47
1000.47
1000.47
1000.47
1000.47
1000.47
1000.47
1000.47
1000.46
1000.46
1000.46
1000.46
1000.46
1000.46
1000.46
1000.46
1000.46
1000.46
1000.46
1000.46
1000.46
1000.46
1000.46
1000.46
1000.46
1000.46
1000.45
1000.45
1000.45
1000.45
1000.45
1000.45
1000.45
1000.45
1000.45
1000.45
1000.44
1000.44
1000.44
1000.44
1000.44
1000.44
1000.44
1000.43
1000.43
1000.43
1000.43
1000.43
1000.43
1000.43
1000.42
1000.42
1000.42
1000.42
1000.42
1000.42
1000.41
1000.41
1000.41
1000.41
1000.41
1000.41
1000.4
1000.4
1000.4
1000.4
1000.4
1000.39
1000.39
1000.39
1000.39
1000.39
1000.38
1000.38
1000.38
1000.38
1000.37
1000.37
1000.37
1000.37
1000.37
1000.36
1000.36
1000.36
1000.36
1000.35
1000.35
1000.35
1000.35
1000.34
1000.34
1000.34
1000.34
1000.34
1000.33
1000.33
1000.33
1000.33
1000.32
1000.32
1000.32
1000.32
1000.31
1000.31
1000.31
1000.3
1000.3
1000.3
1000.3
1000.29
1000.29
1000.29
1000.29
1000.28
1000.28
1000.28
1000.28
1000.27
1000.27
1000.27
1000.26
1000.26
1000.26
1000.26
1000.25
1000.25
1000.25
1000.24
1000.24
1000.24
1000.24
1000.23
1000.23
1000.23
1000.22
1000.22
1000.22
1000.22
1000.21
1000.21
1000.21
1000.2
1000.2
1000.2
1000.2
1000.19
1000.19
1000.19
1000.18
1000.18
1000.18
1000.17
1000.17
1000.17
1000.16
1000.16
1000.16
1000.16
1000.15
1000.15
1000.15
1000.14
1000.14
1000.14
1000.13
1000.13
1000.13
1000.12
1000.12
1000.12
1000.12
1000.11
1000.11
1000.11
1000.1
1000.1
1000.1
1000.09
1000.09
1000.09
1000.08
1000.08
1000.08
1000.07
1000.07
1000.07
1000.06
1000.06
1000.06
1000.05
1000.05
1000.05
1000.04
1000.04
1000.04
1000.03
1000.03
1000.03
1000.02
1000.02
1000.02
1000.01
1000.01
1000.01
1000.01
1000
998.203
998.202
998.202
998.201
998.201
998.2
998.2
998.2
998.2
998.199
998.199
998.2
998.2
998.2
998.2
998.201
998.201
998.202
998.203
998.204
998.205
998.206
998.207
998.209
998.21
998.212
998.214
998.216
998.218
998.22
998.222
998.224
998.227
998.229
998.232
998.235
998.238
998.241
998.244
998.247
998.251
998.255
998.259
998.263
998.268
998.272
998.277
998.282
998.287
998.292
998.298
998.304
998.31
998.316
998.322
998.329
998.335
998.342
998.35
998.357
998.365
998.372
998.38
998.388
998.396
998.404
998.413
998.421
998.43
998.439
998.448
998.457
998.467
998.477
998.487
998.497
998.507
998.518
998.529
998.54
998.551
998.562
998.574
998.586
998.599
998.611
998.624
998.637
998.651
998.665
998.679
998.694
998.709
998.724
998.739
998.755
998.772
998.788
998.805
998.823
998.841
998.859
998.877
998.896
998.915
998.935
998.955
998.975
998.995
999.016
999.036
999.057
999.077
999.099
999.119
999.142
999.163
999.188
999.209
999.235
999.257
999.284
999.307
999.334
999.357
999.386
999.41
999.439
999.464
999.494
999.521
999.553
999.583
999.616
999.648
999.68
999.71
999.739
999.768
999.796
999.823
999.85
999.876
999.901
999.925
999.948
999.969
999.986
1000
1000.02
1000.04
1000.05
1000.07
1000.09
1000.11
1000.13
1000.15
1000.18
1000.2
1000.21
1000.23
1000.24
1000.26
1000.27
1000.28
1000.29
1000.31
1000.31
1000.32
1000.33
1000.34
1000.35
1000.36
1000.36
1000.37
1000.37
1000.38
1000.38
1000.39
1000.39
1000.39
1000.4
1000.4
1000.4
1000.4
1000.4
1000.41
1000.41
1000.41
1000.41
1000.41
1000.41
1000.41
1000.41
1000.41
1000.41
1000.41
1000.41
1000.41
1000.41
1000.41
1000.41
1000.41
1000.41
1000.41
1000.41
1000.41
1000.41
1000.41
1000.41
1000.41
1000.41
1000.41
1000.41
1000.41
1000.41
1000.41
1000.41
1000.41
1000.41
1000.41
1000.41
1000.41
1000.41
1000.41
1000.41
1000.41
1000.41
1000.41
1000.41
1000.41
1000.41
1000.41
1000.42
1000.42
1000.42
1000.42
1000.42
1000.42
1000.42
1000.42
1000.42
1000.43
1000.43
1000.43
1000.43
1000.43
1000.43
1000.43
1000.43
1000.43
1000.44
1000.44
1000.44
1000.44
1000.44
1000.44
1000.44
1000.44
1000.44
1000.45
1000.45
1000.45
1000.45
1000.45
1000.45
1000.45
1000.45
1000.45
1000.45
1000.45
1000.46
1000.46
1000.46
1000.46
1000.46
1000.46
1000.46
1000.46
1000.46
1000.46
1000.46
1000.46
1000.46
1000.46
1000.46
1000.46
1000.46
1000.46
1000.47
1000.47
1000.47
1000.47
1000.47
1000.47
1000.47
1000.47
1000.47
1000.47
1000.47
1000.47
1000.47
1000.46
1000.46
1000.46
1000.46
1000.46
1000.46
1000.46
1000.46
1000.46
1000.46
1000.46
1000.46
1000.46
1000.46
1000.46
1000.46
1000.46
1000.46
1000.45
1000.45
1000.45
1000.45
1000.45
1000.45
1000.45
1000.45
1000.45
1000.45
1000.44
1000.44
1000.44
1000.44
1000.44
1000.44
1000.44
1000.43
1000.43
1000.43
1000.43
1000.43
1000.43
1000.43
1000.42
1000.42
1000.42
1000.42
1000.42
1000.42
1000.41
1000.41
1000.41
1000.41
1000.41
1000.4
1000.4
1000.4
1000.4
1000.4
1000.4
1000.39
1000.39
1000.39
1000.39
1000.39
1000.38
1000.38
1000.38
1000.38
1000.37
1000.37
1000.37
1000.37
1000.37
1000.36
1000.36
1000.36
1000.36
1000.35
1000.35
1000.35
1000.35
1000.34
1000.34
1000.34
1000.34
1000.34
1000.33
1000.33
1000.33
1000.33
1000.32
1000.32
1000.32
1000.32
1000.31
1000.31
1000.31
1000.3
1000.3
1000.3
1000.3
1000.29
1000.29
1000.29
1000.29
1000.28
1000.28
1000.28
1000.28
1000.27
1000.27
1000.27
1000.26
1000.26
1000.26
1000.26
1000.25
1000.25
1000.25
1000.24
1000.24
1000.24
1000.24
1000.23
1000.23
1000.23
1000.22
1000.22
1000.22
1000.22
1000.21
1000.21
1000.21
1000.2
1000.2
1000.2
1000.19
1000.19
1000.19
1000.19
1000.18
1000.18
1000.18
1000.17
1000.17
1000.17
1000.16
1000.16
1000.16
1000.16
1000.15
1000.15
1000.15
1000.14
1000.14
1000.14
1000.13
1000.13
1000.13
1000.12
1000.12
1000.12
1000.12
1000.11
1000.11
1000.11
1000.1
1000.1
1000.1
1000.09
1000.09
1000.09
1000.08
1000.08
1000.08
1000.07
1000.07
1000.07
1000.06
1000.06
1000.06
1000.05
1000.05
1000.05
1000.04
1000.04
1000.04
1000.03
1000.03
1000.03
1000.02
1000.02
1000.02
1000.01
1000.01
1000.01
1000.01
1000
998.203
998.202
998.202
998.201
998.201
998.201
998.2
998.2
998.2
998.2
998.2
998.2
998.2
998.2
998.201
998.201
998.202
998.202
998.203
998.204
998.204
998.205
998.206
998.208
998.209
998.211
998.212
998.214
998.216
998.219
998.221
998.224
998.227
998.23
998.233
998.237
998.24
998.244
998.248
998.252
998.256
998.26
998.265
998.269
998.274
998.278
998.283
998.288
998.293
998.298
998.303
998.309
998.314
998.32
998.326
998.332
998.338
998.344
998.35
998.356
998.363
998.369
998.377
998.384
998.392
998.4
998.408
998.417
998.426
998.435
998.444
998.454
998.463
998.473
998.483
998.494
998.505
998.515
998.527
998.538
998.55
998.562
998.574
998.586
998.599
998.612
998.625
998.639
998.652
998.666
998.68
998.694
998.709
998.724
998.739
998.754
998.77
998.786
998.802
998.819
998.836
998.853
998.871
998.889
998.907
998.926
998.946
998.966
998.986
999.008
999.03
999.054
999.078
999.104
999.128
999.154
999.178
999.204
999.228
999.255
999.28
999.307
999.332
999.361
999.386
999.415
999.44
999.469
999.493
999.521
999.544
999.57
999.589
999.612
999.628
999.653
999.672
999.7
999.722
999.749
999.772
999.799
999.824
999.85
999.876
999.903
999.93
999.961
999.99
1000.02
1000.05
1000.07
1000.1
1000.12
1000.14
1000.15
1000.17
1000.18
1000.2
1000.21
1000.23
1000.24
1000.26
1000.27
1000.28
1000.29
1000.3
1000.31
1000.32
1000.33
1000.34
1000.35
1000.36
1000.36
1000.37
1000.37
1000.38
1000.38
1000.39
1000.39
1000.39
1000.39
1000.4
1000.4
1000.4
1000.4
1000.41
1000.41
1000.41
1000.41
1000.41
1000.41
1000.41
1000.41
1000.41
1000.41
1000.41
1000.41
1000.41
1000.41
1000.41
1000.41
1000.41
1000.41
1000.41
1000.41
1000.41
1000.41
1000.41
1000.41
1000.41
1000.41
1000.41
1000.41
1000.41
1000.41
1000.41
1000.41
1000.41
1000.41
1000.41
1000.41
1000.41
1000.41
1000.41
1000.41
1000.41
1000.41
1000.41
1000.41
1000.41
1000.41
1000.41
1000.42
1000.42
1000.42
1000.42
1000.42
1000.42
1000.42
1000.42
1000.42
1000.43
1000.43
1000.43
1000.43
1000.43
1000.43
1000.43
1000.43
1000.43
1000.44
1000.44
1000.44
1000.44
1000.44
1000.44
1000.44
1000.44
1000.44
1000.45
1000.45
1000.45
1000.45
1000.45
1000.45
1000.45
1000.45
1000.45
1000.45
1000.45
1000.46
1000.46
1000.46
1000.46
1000.46
1000.46
1000.46
1000.46
1000.46
1000.46
1000.46
1000.46
1000.46
1000.46
1000.46
1000.46
1000.46
1000.46
1000.47
1000.47
1000.47
1000.47
1000.47
1000.47
1000.47
1000.47
1000.47
1000.47
1000.47
1000.47
1000.47
1000.46
1000.46
1000.46
1000.46
1000.46
1000.46
1000.46
1000.46
1000.46
1000.46
1000.46
1000.46
1000.46
1000.46
1000.46
1000.46
1000.46
1000.46
1000.45
1000.45
1000.45
1000.45
1000.45
1000.45
1000.45
1000.45
1000.45
1000.45
1000.44
1000.44
1000.44
1000.44
1000.44
1000.44
1000.44
1000.43
1000.43
1000.43
1000.43
1000.43
1000.43
1000.43
1000.42
1000.42
1000.42
1000.42
1000.42
1000.42
1000.41
1000.41
1000.41
1000.41
1000.41
1000.4
1000.4
1000.4
1000.4
1000.4
1000.4
1000.39
1000.39
1000.39
1000.39
1000.39
1000.38
1000.38
1000.38
1000.38
1000.37
1000.37
1000.37
1000.37
1000.37
1000.36
1000.36
1000.36
1000.36
1000.35
1000.35
1000.35
1000.35
1000.34
1000.34
1000.34
1000.34
1000.34
1000.33
1000.33
1000.33
1000.33
1000.32
1000.32
1000.32
1000.32
1000.31
1000.31
1000.31
1000.3
1000.3
1000.3
1000.3
1000.29
1000.29
1000.29
1000.29
1000.28
1000.28
1000.28
1000.28
1000.27
1000.27
1000.27
1000.26
1000.26
1000.26
1000.26
1000.25
1000.25
1000.25
1000.24
1000.24
1000.24
1000.24
1000.23
1000.23
1000.23
1000.22
1000.22
1000.22
1000.22
1000.21
1000.21
1000.21
1000.2
1000.2
1000.2
1000.19
1000.19
1000.19
1000.19
1000.18
1000.18
1000.18
1000.17
1000.17
1000.17
1000.16
1000.16
1000.16
1000.16
1000.15
1000.15
1000.15
1000.14
1000.14
1000.14
1000.13
1000.13
1000.13
1000.12
1000.12
1000.12
1000.12
1000.11
1000.11
1000.11
1000.1
1000.1
1000.1
1000.09
1000.09
1000.09
1000.08
1000.08
1000.08
1000.07
1000.07
1000.07
1000.06
1000.06
1000.06
1000.05
1000.05
1000.05
1000.04
1000.04
1000.04
1000.03
1000.03
1000.03
1000.02
1000.02
1000.02
1000.01
1000.01
1000.01
1000.01
1000
998.204
998.203
998.203
998.202
998.202
998.201
998.201
998.201
998.201
998.201
998.201
998.201
998.201
998.201
998.201
998.202
998.203
998.203
998.204
998.205
998.206
998.208
998.209
998.211
998.212
998.214
998.216
998.218
998.22
998.222
998.224
998.226
998.228
998.23
998.233
998.235
998.237
998.24
998.243
998.246
998.249
998.253
998.257
998.261
998.265
998.27
998.275
998.28
998.285
998.29
998.296
998.302
998.308
998.314
998.321
998.327
998.335
998.342
998.35
998.358
998.366
998.375
998.383
998.391
998.399
998.407
998.416
998.424
998.433
998.442
998.451
998.46
998.469
998.479
998.488
998.498
998.509
998.519
998.53
998.541
998.552
998.563
998.575
998.587
998.599
998.611
998.624
998.637
998.65
998.664
998.678
998.693
998.708
998.723
998.739
998.755
998.772
998.789
998.806
998.824
998.842
998.861
998.879
998.899
998.917
998.938
998.957
998.978
998.998
999.019
999.038
999.06
999.074
999.095
999.112
999.136
999.155
999.18
999.2
999.226
999.247
999.274
999.295
999.323
999.345
999.373
999.396
999.425
999.45
999.48
999.508
999.539
999.572
999.607
999.642
999.675
999.706
999.736
999.765
999.793
999.82
999.847
999.873
999.898
999.923
999.945
999.967
999.986
1000
1000.02
1000.04
1000.06
1000.08
1000.1
1000.12
1000.13
1000.15
1000.17
1000.19
1000.21
1000.23
1000.24
1000.25
1000.27
1000.28
1000.29
1000.3
1000.31
1000.32
1000.33
1000.34
1000.34
1000.35
1000.36
1000.37
1000.37
1000.38
1000.38
1000.38
1000.39
1000.39
1000.39
1000.4
1000.4
1000.4
1000.4
1000.4
1000.4
1000.41
1000.41
1000.41
1000.41
1000.41
1000.41
1000.41
1000.41
1000.41
1000.41
1000.41
1000.41
1000.41
1000.41
1000.41
1000.41
1000.41
1000.41
1000.41
1000.41
1000.41
1000.41
1000.41
1000.41
1000.41
1000.41
1000.41
1000.41
1000.41
1000.41
1000.41
1000.41
1000.41
1000.41
1000.41
1000.41
1000.41
1000.41
1000.41
1000.41
1000.41
1000.41
1000.41
1000.41
1000.42
1000.42
1000.42
1000.42
1000.42
1000.42
1000.42
1000.42
1000.42
1000.42
1000.43
1000.43
1000.43
1000.43
1000.43
1000.43
1000.43
1000.43
1000.43
1000.44
1000.44
1000.44
1000.44
1000.44
1000.44
1000.44
1000.44
1000.44
1000.45
1000.45
1000.45
1000.45
1000.45
1000.45
1000.45
1000.45
1000.45
1000.45
1000.46
1000.46
1000.46
1000.46
1000.46
1000.46
1000.46
1000.46
1000.46
1000.46
1000.46
1000.46
1000.46
1000.46
1000.46
1000.46
1000.46
1000.46
1000.46
1000.47
1000.47
1000.47
1000.47
1000.47
1000.47
1000.47
1000.47
1000.47
1000.47
1000.47
1000.47
1000.47
1000.46
1000.46
1000.46
1000.46
1000.46
1000.46
1000.46
1000.46
1000.46
1000.46
1000.46
1000.46
1000.46
1000.46
1000.46
1000.46
1000.46
1000.46
1000.45
1000.45
1000.45
1000.45
1000.45
1000.45
1000.45
1000.45
1000.45
1000.45
1000.44
1000.44
1000.44
1000.44
1000.44
1000.44
1000.44
1000.43
1000.43
1000.43
1000.43
1000.43
1000.43
1000.43
1000.42
1000.42
1000.42
1000.42
1000.42
1000.42
1000.41
1000.41
1000.41
1000.41
1000.41
1000.4
1000.4
1000.4
1000.4
1000.4
1000.4
1000.39
1000.39
1000.39
1000.39
1000.39
1000.38
1000.38
1000.38
1000.38
1000.37
1000.37
1000.37
1000.37
1000.37
1000.36
1000.36
1000.36
1000.36
1000.35
1000.35
1000.35
1000.35
1000.34
1000.34
1000.34
1000.34
1000.34
1000.33
1000.33
1000.33
1000.33
1000.32
1000.32
1000.32
1000.32
1000.31
1000.31
1000.31
1000.3
1000.3
1000.3
1000.3
1000.29
1000.29
1000.29
1000.29
1000.28
1000.28
1000.28
1000.28
1000.27
1000.27
1000.27
1000.26
1000.26
1000.26
1000.26
1000.25
1000.25
1000.25
1000.24
1000.24
1000.24
1000.24
1000.23
1000.23
1000.23
1000.22
1000.22
1000.22
1000.22
1000.21
1000.21
1000.21
1000.2
1000.2
1000.2
1000.19
1000.19
1000.19
1000.19
1000.18
1000.18
1000.18
1000.17
1000.17
1000.17
1000.16
1000.16
1000.16
1000.16
1000.15
1000.15
1000.15
1000.14
1000.14
1000.14
1000.13
1000.13
1000.13
1000.12
1000.12
1000.12
1000.12
1000.11
1000.11
1000.11
1000.1
1000.1
1000.1
1000.09
1000.09
1000.09
1000.08
1000.08
1000.08
1000.07
1000.07
1000.07
1000.06
1000.06
1000.06
1000.05
1000.05
1000.05
1000.04
1000.04
1000.04
1000.03
1000.03
1000.03
1000.02
1000.02
1000.02
1000.01
1000.01
1000.01
1000.01
1000
998.204
998.203
998.203
998.202
998.202
998.201
998.201
998.201
998.201
998.201
998.201
998.201
998.201
998.201
998.202
998.202
998.202
998.203
998.203
998.204
998.205
998.205
998.206
998.207
998.208
998.21
998.211
998.213
998.215
998.218
998.22
998.223
998.226
998.23
998.233
998.238
998.242
998.246
998.25
998.255
998.259
998.264
998.269
998.273
998.278
998.282
998.287
998.292
998.296
998.301
998.307
998.312
998.317
998.323
998.328
998.334
998.339
998.345
998.35
998.356
998.361
998.367
998.374
998.381
998.389
998.397
998.405
998.414
998.423
998.432
998.441
998.451
998.461
998.471
998.481
998.492
998.503
998.514
998.525
998.537
998.548
998.561
998.573
998.585
998.598
998.611
998.625
998.639
998.652
998.666
998.68
998.694
998.708
998.723
998.738
998.753
998.768
998.784
998.8
998.817
998.832
998.85
998.867
998.885
998.902
998.922
998.94
998.961
998.98
999.002
999.023
999.047
999.074
999.099
999.124
999.15
999.174
999.2
999.225
999.251
999.276
999.304
999.329
999.357
999.382
999.411
999.436
999.465
999.489
999.517
999.541
999.567
999.589
999.612
999.633
999.657
999.679
999.706
999.729
999.756
999.78
999.807
999.831
999.858
999.883
999.91
999.935
999.963
999.988
1000.02
1000.04
1000.06
1000.09
1000.11
1000.13
1000.14
1000.16
1000.18
1000.2
1000.21
1000.22
1000.24
1000.25
1000.26
1000.28
1000.29
1000.3
1000.31
1000.32
1000.33
1000.34
1000.34
1000.35
1000.36
1000.36
1000.37
1000.37
1000.38
1000.38
1000.39
1000.39
1000.39
1000.4
1000.4
1000.4
1000.4
1000.4
1000.4
1000.4
1000.41
1000.41
1000.41
1000.41
1000.41
1000.41
1000.41
1000.41
1000.41
1000.41
1000.41
1000.41
1000.41
1000.41
1000.41
1000.41
1000.41
1000.41
1000.41
1000.41
1000.41
1000.41
1000.41
1000.41
1000.41
1000.41
1000.41
1000.41
1000.41
1000.41
1000.41
1000.41
1000.41
1000.41
1000.41
1000.41
1000.41
1000.41
1000.41
1000.41
1000.41
1000.41
1000.41
1000.42
1000.42
1000.42
1000.42
1000.42
1000.42
1000.42
1000.42
1000.42
1000.42
1000.43
1000.43
1000.43
1000.43
1000.43
1000.43
1000.43
1000.43
1000.43
1000.44
1000.44
1000.44
1000.44
1000.44
1000.44
1000.44
1000.44
1000.44
1000.45
1000.45
1000.45
1000.45
1000.45
1000.45
1000.45
1000.45
1000.45
1000.45
1000.46
1000.46
1000.46
1000.46
1000.46
1000.46
1000.46
1000.46
1000.46
1000.46
1000.46
1000.46
1000.46
1000.46
1000.46
1000.46
1000.46
1000.46
1000.47
1000.47
1000.47
1000.47
1000.47
1000.47
1000.47
1000.47
1000.47
1000.47
1000.47
1000.47
1000.47
1000.47
1000.47
1000.46
1000.46
1000.46
1000.46
1000.46
1000.46
1000.46
1000.46
1000.46
1000.46
1000.46
1000.46
1000.46
1000.46
1000.46
1000.46
1000.46
1000.45
1000.45
1000.45
1000.45
1000.45
1000.45
1000.45
1000.45
1000.45
1000.45
1000.44
1000.44
1000.44
1000.44
1000.44
1000.44
1000.44
1000.43
1000.43
1000.43
1000.43
1000.43
1000.43
1000.43
1000.42
1000.42
1000.42
1000.42
1000.42
1000.42
1000.41
1000.41
1000.41
1000.41
1000.41
1000.4
1000.4
1000.4
1000.4
1000.4
1000.4
1000.39
1000.39
1000.39
1000.39
1000.39
1000.38
1000.38
1000.38
1000.38
1000.37
1000.37
1000.37
1000.37
1000.37
1000.36
1000.36
1000.36
1000.36
1000.35
1000.35
1000.35
1000.35
1000.34
1000.34
1000.34
1000.34
1000.34
1000.33
1000.33
1000.33
1000.33
1000.32
1000.32
1000.32
1000.31
1000.31
1000.31
1000.31
1000.3
1000.3
1000.3
1000.3
1000.29
1000.29
1000.29
1000.29
1000.28
1000.28
1000.28
1000.28
1000.27
1000.27
1000.27
1000.26
1000.26
1000.26
1000.26
1000.25
1000.25
1000.25
1000.24
1000.24
1000.24
1000.24
1000.23
1000.23
1000.23
1000.22
1000.22
1000.22
1000.22
1000.21
1000.21
1000.21
1000.2
1000.2
1000.2
1000.19
1000.19
1000.19
1000.19
1000.18
1000.18
1000.18
1000.17
1000.17
1000.17
1000.16
1000.16
1000.16
1000.16
1000.15
1000.15
1000.15
1000.14
1000.14
1000.14
1000.13
1000.13
1000.13
1000.12
1000.12
1000.12
1000.12
1000.11
1000.11
1000.11
1000.1
1000.1
1000.1
1000.09
1000.09
1000.09
1000.08
1000.08
1000.08
1000.07
1000.07
1000.07
1000.06
1000.06
1000.06
1000.05
1000.05
1000.05
1000.04
1000.04
1000.04
1000.03
1000.03
1000.03
1000.02
1000.02
1000.02
1000.01
1000.01
1000.01
1000.01
1000
998.205
998.204
998.203
998.202
998.202
998.202
998.201
998.201
998.201
998.201
998.201
998.201
998.201
998.201
998.202
998.202
998.202
998.203
998.204
998.205
998.207
998.208
998.21
998.212
998.214
998.216
998.218
998.22
998.222
998.224
998.226
998.227
998.229
998.231
998.233
998.234
998.236
998.238
998.24
998.243
998.245
998.248
998.252
998.256
998.26
998.265
998.27
998.275
998.28
998.286
998.292
998.298
998.304
998.31
998.317
998.324
998.332
998.34
998.348
998.358
998.367
998.377
998.385
998.393
998.402
998.41
998.418
998.426
998.435
998.444
998.452
998.461
998.471
998.48
998.49
998.499
998.509
998.52
998.53
998.541
998.552
998.563
998.574
998.586
998.598
998.61
998.623
998.635
998.648
998.662
998.676
998.691
998.706
998.722
998.737
998.754
998.769
998.787
998.803
998.822
998.839
998.858
998.875
998.896
998.914
998.935
998.953
998.975
998.994
999.016
999.034
999.056
999.073
999.095
999.113
999.137
999.157
999.182
999.202
999.228
999.25
999.277
999.299
999.326
999.349
999.378
999.401
999.43
999.455
999.485
999.511
999.542
999.57
999.603
999.632
999.664
999.693
999.722
999.75
999.778
999.805
999.832
999.858
999.883
999.908
999.931
999.955
999.976
999.997
1000.02
1000.04
1000.06
1000.08
1000.1
1000.12
1000.13
1000.15
1000.17
1000.19
1000.2
1000.22
1000.23
1000.25
1000.26
1000.28
1000.28
1000.3
1000.31
1000.32
1000.32
1000.33
1000.34
1000.35
1000.35
1000.36
1000.37
1000.37
1000.37
1000.38
1000.38
1000.39
1000.39
1000.39
1000.39
1000.4
1000.4
1000.4
1000.4
1000.4
1000.4
1000.4
1000.4
1000.4
1000.4
1000.41
1000.41
1000.41
1000.41
1000.41
1000.41
1000.41
1000.4
1000.4
1000.4
1000.4
1000.4
1000.4
1000.4
1000.4
1000.4
1000.4
1000.4
1000.4
1000.4
1000.4
1000.4
1000.41
1000.41
1000.41
1000.41
1000.41
1000.41
1000.41
1000.41
1000.41
1000.41
1000.41
1000.41
1000.41
1000.41
1000.41
1000.41
1000.42
1000.42
1000.42
1000.42
1000.42
1000.42
1000.42
1000.42
1000.42
1000.42
1000.43
1000.43
1000.43
1000.43
1000.43
1000.43
1000.43
1000.43
1000.43
1000.44
1000.44
1000.44
1000.44
1000.44
1000.44
1000.44
1000.44
1000.44
1000.45
1000.45
1000.45
1000.45
1000.45
1000.45
1000.45
1000.45
1000.45
1000.45
1000.46
1000.46
1000.46
1000.46
1000.46
1000.46
1000.46
1000.46
1000.46
1000.46
1000.46
1000.46
1000.46
1000.46
1000.46
1000.46
1000.46
1000.46
1000.47
1000.47
1000.47
1000.47
1000.47
1000.47
1000.47
1000.47
1000.47
1000.47
1000.47
1000.47
1000.47
1000.47
1000.47
1000.46
1000.46
1000.46
1000.46
1000.46
1000.46
1000.46
1000.46
1000.46
1000.46
1000.46
1000.46
1000.46
1000.46
1000.46
1000.46
1000.46
1000.45
1000.45
1000.45
1000.45
1000.45
1000.45
1000.45
1000.45
1000.45
1000.45
1000.44
1000.44
1000.44
1000.44
1000.44
1000.44
1000.44
1000.43
1000.43
1000.43
1000.43
1000.43
1000.43
1000.43
1000.42
1000.42
1000.42
1000.42
1000.42
1000.42
1000.41
1000.41
1000.41
1000.41
1000.41
1000.4
1000.4
1000.4
1000.4
1000.4
1000.4
1000.39
1000.39
1000.39
1000.39
1000.39
1000.38
1000.38
1000.38
1000.38
1000.37
1000.37
1000.37
1000.37
1000.37
1000.36
1000.36
1000.36
1000.36
1000.35
1000.35
1000.35
1000.35
1000.34
1000.34
1000.34
1000.34
1000.34
1000.33
1000.33
1000.33
1000.33
1000.32
1000.32
1000.32
1000.31
1000.31
1000.31
1000.31
1000.3
1000.3
1000.3
1000.3
1000.29
1000.29
1000.29
1000.29
1000.28
1000.28
1000.28
1000.28
1000.27
1000.27
1000.27
1000.26
1000.26
1000.26
1000.26
1000.25
1000.25
1000.25
1000.24
1000.24
1000.24
1000.24
1000.23
1000.23
1000.23
1000.22
1000.22
1000.22
1000.22
1000.21
1000.21
1000.21
1000.2
1000.2
1000.2
1000.19
1000.19
1000.19
1000.19
1000.18
1000.18
1000.18
1000.17
1000.17
1000.17
1000.16
1000.16
1000.16
1000.16
1000.15
1000.15
1000.15
1000.14
1000.14
1000.14
1000.13
1000.13
1000.13
1000.12
1000.12
1000.12
1000.12
1000.11
1000.11
1000.11
1000.1
1000.1
1000.1
1000.09
1000.09
1000.09
1000.08
1000.08
1000.08
1000.07
1000.07
1000.07
1000.06
1000.06
1000.06
1000.05
1000.05
1000.05
1000.04
1000.04
1000.04
1000.03
1000.03
1000.03
1000.02
1000.02
1000.02
1000.01
1000.01
1000.01
1000.01
1000
998.205
998.203
998.203
998.202
998.201
998.201
998.201
998.201
998.201
998.2
998.2
998.2
998.201
998.201
998.201
998.202
998.202
998.203
998.203
998.204
998.204
998.204
998.205
998.205
998.206
998.207
998.208
998.21
998.212
998.214
998.217
998.22
998.223
998.227
998.232
998.236
998.242
998.247
998.252
998.257
998.262
998.267
998.272
998.277
998.281
998.286
998.29
998.295
998.3
998.305
998.31
998.315
998.32
998.325
998.331
998.336
998.342
998.347
998.352
998.356
998.361
998.366
998.373
998.38
998.388
998.396
998.404
998.413
998.421
998.431
998.44
998.45
998.459
998.469
998.48
998.49
998.501
998.512
998.523
998.535
998.546
998.559
998.571
998.584
998.596
998.61
998.622
998.637
998.649
998.664
998.677
998.692
998.706
998.721
998.735
998.751
998.766
998.783
998.798
998.815
998.831
998.85
998.866
998.885
998.902
998.922
998.94
998.961
998.98
999.003
999.022
999.047
999.068
999.094
999.116
999.142
999.165
999.191
999.214
999.242
999.265
999.293
999.316
999.345
999.369
999.398
999.422
999.451
999.475
999.504
999.528
999.556
999.58
999.606
999.63
999.656
999.68
999.707
999.732
999.758
999.783
999.81
999.835
999.861
999.886
999.911
999.937
999.961
999.986
1000.01
1000.03
1000.06
1000.08
1000.1
1000.12
1000.13
1000.16
1000.17
1000.19
1000.2
1000.22
1000.23
1000.25
1000.26
1000.27
1000.28
1000.29
1000.3
1000.31
1000.32
1000.33
1000.34
1000.35
1000.35
1000.36
1000.36
1000.37
1000.37
1000.38
1000.38
1000.38
1000.39
1000.39
1000.39
1000.39
1000.39
1000.4
1000.4
1000.4
1000.4
1000.4
1000.4
1000.4
1000.4
1000.4
1000.4
1000.4
1000.4
1000.4
1000.4
1000.4
1000.4
1000.4
1000.4
1000.4
1000.4
1000.4
1000.4
1000.4
1000.4
1000.4
1000.4
1000.4
1000.4
1000.4
1000.4
1000.4
1000.4
1000.4
1000.41
1000.41
1000.41
1000.41
1000.41
1000.41
1000.41
1000.41
1000.41
1000.41
1000.41
1000.41
1000.41
1000.41
1000.42
1000.42
1000.42
1000.42
1000.42
1000.42
1000.42
1000.42
1000.42
1000.43
1000.43
1000.43
1000.43
1000.43
1000.43
1000.43
1000.43
1000.44
1000.44
1000.44
1000.44
1000.44
1000.44
1000.44
1000.44
1000.44
1000.45
1000.45
1000.45
1000.45
1000.45
1000.45
1000.45
1000.45
1000.45
1000.45
1000.46
1000.46
1000.46
1000.46
1000.46
1000.46
1000.46
1000.46
1000.46
1000.46
1000.46
1000.46
1000.46
1000.46
1000.46
1000.46
1000.46
1000.47
1000.47
1000.47
1000.47
1000.47
1000.47
1000.47
1000.47
1000.47
1000.47
1000.47
1000.47
1000.47
1000.47
1000.47
1000.47
1000.47
1000.47
1000.46
1000.46
1000.46
1000.46
1000.46
1000.46
1000.46
1000.46
1000.46
1000.46
1000.46
1000.46
1000.46
1000.46
1000.46
1000.46
1000.45
1000.45
1000.45
1000.45
1000.45
1000.45
1000.45
1000.45
1000.45
1000.45
1000.44
1000.44
1000.44
1000.44
1000.44
1000.44
1000.44
1000.43
1000.43
1000.43
1000.43
1000.43
1000.43
1000.43
1000.42
1000.42
1000.42
1000.42
1000.42
1000.42
1000.41
1000.41
1000.41
1000.41
1000.41
1000.4
1000.4
1000.4
1000.4
1000.4
1000.4
1000.39
1000.39
1000.39
1000.39
1000.39
1000.38
1000.38
1000.38
1000.38
1000.37
1000.37
1000.37
1000.37
1000.37
1000.36
1000.36
1000.36
1000.36
1000.35
1000.35
1000.35
1000.35
1000.34
1000.34
1000.34
1000.34
1000.33
1000.33
1000.33
1000.33
1000.33
1000.32
1000.32
1000.32
1000.31
1000.31
1000.31
1000.31
1000.3
1000.3
1000.3
1000.3
1000.29
1000.29
1000.29
1000.29
1000.28
1000.28
1000.28
1000.28
1000.27
1000.27
1000.27
1000.26
1000.26
1000.26
1000.26
1000.25
1000.25
1000.25
1000.24
1000.24
1000.24
1000.24
1000.23
1000.23
1000.23
1000.22
1000.22
1000.22
1000.22
1000.21
1000.21
1000.21
1000.2
1000.2
1000.2
1000.19
1000.19
1000.19
1000.19
1000.18
1000.18
1000.18
1000.17
1000.17
1000.17
1000.16
1000.16
1000.16
1000.16
1000.15
1000.15
1000.15
1000.14
1000.14
1000.14
1000.13
1000.13
1000.13
1000.12
1000.12
1000.12
1000.11
1000.11
1000.11
1000.11
1000.1
1000.1
1000.1
1000.09
1000.09
1000.09
1000.08
1000.08
1000.08
1000.07
1000.07
1000.07
1000.06
1000.06
1000.06
1000.05
1000.05
1000.05
1000.04
1000.04
1000.04
1000.03
1000.03
1000.03
1000.02
1000.02
1000.02
1000.01
1000.01
1000.01
1000.01
1000
998.205
998.203
998.202
998.201
998.201
998.2
998.2
998.2
998.2
998.2
998.2
998.2
998.2
998.2
998.2
998.2
998.201
998.201
998.202
998.204
998.205
998.207
998.209
998.212
998.214
998.217
998.219
998.222
998.224
998.226
998.228
998.23
998.231
998.233
998.234
998.236
998.237
998.239
998.24
998.242
998.245
998.248
998.251
998.255
998.259
998.264
998.269
998.274
998.279
998.285
998.29
998.296
998.302
998.309
998.316
998.323
998.33
998.338
998.346
998.355
998.364
998.373
998.381
998.389
998.397
998.406
998.414
998.422
998.431
998.44
998.448
998.458
998.467
998.477
998.486
998.496
998.506
998.517
998.527
998.538
998.549
998.561
998.571
998.584
998.595
998.608
998.62
998.634
998.646
998.661
998.674
998.689
998.703
998.719
998.733
998.751
998.765
998.783
998.799
998.817
998.833
998.853
998.87
998.89
998.907
998.928
998.946
998.968
998.986
999.008
999.027
999.049
999.068
999.091
999.11
999.135
999.155
999.181
999.201
999.228
999.25
999.277
999.299
999.327
999.35
999.379
999.403
999.432
999.456
999.486
999.512
999.541
999.568
999.599
999.626
999.656
999.683
999.712
999.739
999.766
999.794
999.82
999.846
999.871
999.896
999.92
999.944
999.966
999.989
1000.01
1000.03
1000.05
1000.07
1000.09
1000.11
1000.13
1000.15
1000.16
1000.18
1000.2
1000.21
1000.23
1000.24
1000.25
1000.27
1000.28
1000.29
1000.3
1000.31
1000.32
1000.33
1000.33
1000.34
1000.35
1000.35
1000.36
1000.36
1000.37
1000.37
1000.37
1000.38
1000.38
1000.38
1000.39
1000.39
1000.39
1000.39
1000.39
1000.4
1000.4
1000.4
1000.4
1000.4
1000.4
1000.4
1000.4
1000.4
1000.4
1000.4