/*--------------------------------*- C++ -*----------------------------------*\
| =========                 |                                                 |
| \\      /  F ield         | OpenFOAM: The Open Source CFD Toolbox           |
|  \\    /   O peration     | Version:  2012                                  |
|   \\  /    A nd           | Website:  www.openfoam.com                      |
|    \\/     M anipulation  |                                                 |
\*---------------------------------------------------------------------------*/
FoamFile
{
    version     2.0;
    format      ascii;
    class       volVectorField;
    location    "1820";
    object      U;
}
// * * * * * * * * * * * * * * * * * * * * * * * * * * * * * * * * * * * * * //

dimensions      [0 1 -1 0 0 0 0];


internalField   nonuniform List<vector> 
20400
(
(3.52868e-06 -3.45303e-06 0)
(5.17821e-06 -1.16981e-06 0)
(-4.6735e-06 3.70713e-06 0)
(-2.50044e-05 6.36422e-06 0)
(-5.82711e-05 7.81247e-06 0)
(-9.85105e-05 7.15784e-06 0)
(-0.000144676 6.39729e-06 0)
(-0.000193532 5.47956e-06 0)
(-0.000243173 4.7105e-06 0)
(-0.000293946 4.21487e-06 0)
(-0.000343464 4.26808e-06 0)
(-0.000393376 4.19513e-06 0)
(-0.000442514 4.01935e-06 0)
(-0.00049146 3.6274e-06 0)
(-0.000540101 3.06299e-06 0)
(-0.000588554 2.27868e-06 0)
(-0.000636857 1.24939e-06 0)
(-0.000685046 3.4318e-08 0)
(-0.000733135 -1.32879e-06 0)
(-0.000781036 -2.51436e-06 0)
(-0.00082865 -3.74052e-06 0)
(-0.000875978 -4.96306e-06 0)
(-0.00092305 -6.09948e-06 0)
(-0.000969853 -7.0776e-06 0)
(-0.00101637 -7.82356e-06 0)
(-0.00106259 -8.27112e-06 0)
(-0.00110849 -8.36013e-06 0)
(-0.00115409 -8.03955e-06 0)
(-0.00119939 -7.27195e-06 0)
(-0.00124441 -6.02221e-06 0)
(-0.00128919 -4.27878e-06 0)
(-0.0013337 -2.01036e-06 0)
(-0.00137784 8.91268e-07 0)
(-0.00142121 5.54526e-06 0)
(-0.00146371 9.01686e-06 0)
(-0.00150605 1.14531e-05 0)
(-0.00154933 1.52045e-05 0)
(-0.0015914 1.89074e-05 0)
(-0.00163334 2.23889e-05 0)
(-0.00167473 2.55228e-05 0)
(-0.00171574 2.81914e-05 0)
(-0.00175639 3.03189e-05 0)
(-0.00179671 3.18917e-05 0)
(-0.00183679 3.29146e-05 0)
(-0.00187663 3.34397e-05 0)
(-0.00191628 3.3531e-05 0)
(-0.00195573 3.32562e-05 0)
(-0.00199498 3.26691e-05 0)
(-0.00203403 3.1804e-05 0)
(-0.00207286 3.06701e-05 0)
(-0.00211148 2.92521e-05 0)
(-0.00214989 2.75084e-05 0)
(-0.0021881 2.53747e-05 0)
(-0.00222612 2.2772e-05 0)
(-0.002264 1.9598e-05 0)
(-0.00230172 1.58162e-05 0)
(-0.00233934 1.13794e-05 0)
(-0.00237665 7.03403e-06 0)
(-0.00241347 5.50357e-07 0)
(-0.00245182 -5.84542e-06 0)
(-0.0024889 -1.14871e-05 0)
(-0.00252722 -1.62634e-05 0)
(-0.00256437 -1.99531e-05 0)
(-0.00260225 -2.25055e-05 0)
(-0.00263944 -2.41143e-05 0)
(-0.00267676 -2.49215e-05 0)
(-0.00271378 -2.50999e-05 0)
(-0.0027507 -2.48131e-05 0)
(-0.00278747 -2.41668e-05 0)
(-0.00282415 -2.32636e-05 0)
(-0.00286074 -2.21544e-05 0)
(-0.00289726 -2.08959e-05 0)
(-0.00293371 -1.95011e-05 0)
(-0.00297012 -1.80037e-05 0)
(-0.00300647 -1.63975e-05 0)
(-0.0030428 -1.47068e-05 0)
(-0.00307907 -1.29164e-05 0)
(-0.00311531 -1.10528e-05 0)
(-0.00315149 -9.0928e-06 0)
(-0.00318766 -7.07371e-06 0)
(-0.00322377 -4.96517e-06 0)
(-0.00325991 -2.80318e-06 0)
(-0.00329594 -5.53551e-07 0)
(-0.00333191 1.75632e-06 0)
(-0.00336744 4.57415e-06 0)
(-0.00340245 6.96214e-06 0)
(-0.00343752 8.09733e-06 0)
(-0.0034732 9.04232e-06 0)
(-0.00350801 9.59448e-06 0)
(-0.00354303 9.43051e-06 0)
(-0.00357765 8.6152e-06 0)
(-0.00361211 7.39298e-06 0)
(-0.00364586 5.83466e-06 0)
(-0.00367924 2.11719e-06 0)
(-0.0037129 -1.02442e-06 0)
(-0.00374617 -4.74789e-06 0)
(-0.00377911 -8.60274e-06 0)
(-0.00381174 -1.29319e-05 0)
(-0.00384348 -1.71477e-05 0)
(-0.00387496 -2.19742e-05 0)
(-0.00390529 -2.64056e-05 0)
(-0.00393536 -3.1691e-05 0)
(-0.00396398 -3.58551e-05 0)
(-0.00399241 -4.08309e-05 0)
(-0.00401894 -4.40991e-05 0)
(-0.00404574 -4.76733e-05 0)
(-0.00407001 -4.79571e-05 0)
(-0.00409598 -4.89096e-05 0)
(-0.00411694 -4.34698e-05 0)
(-0.00414189 -3.77003e-05 0)
(-0.00415844 -2.34239e-05 0)
(-0.00417965 -6.38925e-06 0)
(-0.00418779 1.95834e-05 0)
(-0.00420218 4.14942e-05 0)
(-0.00420629 6.61006e-05 0)
(-0.00421455 8.09031e-05 0)
(-0.00421299 0.000102433 0)
(-0.00421497 0.000111819 0)
(-0.00420831 0.000131232 0)
(-0.00420338 0.000138224 0)
(-0.00419052 0.000155893 0)
(-0.00417841 0.000162239 0)
(-0.00415792 0.000177921 0)
(-0.004138 0.000183828 0)
(-0.00410865 0.000196176 0)
(-0.00407965 0.000200384 0)
(-0.0040398 0.000206093 0)
(-0.0039997 0.000204448 0)
(-0.00394686 0.000197315 0)
(-0.00389208 0.000179392 0)
(-0.00382726 0.000149979 0)
(-0.00375527 0.000104241 0)
(-0.00368112 4.36463e-05 0)
(-0.00360031 -3.02184e-05 0)
(-0.00352732 -0.000110852 0)
(-0.00346053 -0.000174972 0)
(-0.0033841 -0.000233172 0)
(-0.00330335 -0.00026557 0)
(-0.00321172 -0.000302564 0)
(-0.00311997 -0.000318051 0)
(-0.00301595 -0.000340617 0)
(-0.00291593 -0.000345874 0)
(-0.00280438 -0.000353057 0)
(-0.0026991 -0.000343248 0)
(-0.00258424 -0.000325357 0)
(-0.00247686 -0.000280522 0)
(-0.00235607 -0.000220608 0)
(-0.00223931 -0.000117765 0)
(-0.0021028 -1.58019e-05 0)
(-0.00197286 0.00011289 0)
(-0.00179143 0.000182937 0)
(-0.00164953 0.000242255 0)
(-0.00147472 0.000261278 0)
(-0.00133064 0.000272494 0)
(-0.00114327 0.000260204 0)
(-0.000995358 0.000215602 0)
(-0.00076995 0.000137936 0)
(-0.000655016 8.07602e-06 0)
(-0.000548085 -3.11725e-05 0)
(-0.00040759 -6.08004e-05 0)
(-0.000263772 -6.87349e-05 0)
(-0.000123047 -7.12101e-05 0)
(3.18959e-05 -6.83225e-05 0)
(0.0001666 -6.02325e-05 0)
(0.000325413 -5.45601e-05 0)
(0.000455899 -4.60288e-05 0)
(0.00061018 -4.16625e-05 0)
(0.000736329 -3.48499e-05 0)
(0.000884469 -3.27685e-05 0)
(0.0010059 -2.73707e-05 0)
(0.00114636 -2.67519e-05 0)
(0.00126264 -2.22636e-05 0)
(0.0013944 -2.25312e-05 0)
(0.00150516 -1.86707e-05 0)
(0.00162763 -1.94122e-05 0)
(0.00173248 -1.60604e-05 0)
(0.00184541 -1.6951e-05 0)
(0.00194384 -1.40954e-05 0)
(0.00204739 -1.47675e-05 0)
(0.00213891 -1.28305e-05 0)
(0.00223317 -1.28365e-05 0)
(0.00231758 -1.1655e-05 0)
(0.00240238 -1.12955e-05 0)
(0.00247964 -1.03161e-05 0)
(0.00255565 -9.96226e-06 0)
(0.00262538 -9.08664e-06 0)
(0.00269301 -8.7494e-06 0)
(0.00275537 -7.94494e-06 0)
(0.00281491 -7.64018e-06 0)
(0.00287017 -6.87765e-06 0)
(0.00292196 -6.69783e-06 0)
(0.0029707 -6.0114e-06 0)
(0.00301534 -5.60385e-06 0)
(0.00305729 -5.14851e-06 0)
(0.00309547 -4.82955e-06 0)
(0.00313092 -4.41924e-06 0)
(0.00316326 -4.04647e-06 0)
(0.00319272 -3.68901e-06 0)
(0.00321944 -3.3533e-06 0)
(0.0032434 -3.01125e-06 0)
(0.00326502 -2.708e-06 0)
(0.00328398 -2.37378e-06 0)
(0.00330093 -2.10821e-06 0)
(0.00331535 -1.79875e-06 0)
(0.00332805 -1.57334e-06 0)
(0.00333839 -1.27099e-06 0)
(0.00334724 -1.03715e-06 0)
(0.003354 -7.26964e-07 0)
(0.0033594 -4.89511e-07 0)
(0.00336307 -1.59387e-07 0)
(0.00336543 -1.64931e-08 0)
(0.00336654 3.55268e-07 0)
(0.00336626 3.46475e-07 0)
(0.00336461 7.4055e-07 0)
(0.00336213 7.10958e-07 0)
(0.00335825 9.85235e-07 0)
(0.00335388 6.044e-07 0)
(0.00334799 1.02233e-06 0)
(0.00334215 4.44452e-07 0)
(0.00333453 9.54774e-07 0)
(0.00332749 3.60038e-07 0)
(0.00331866 9.35966e-07 0)
(0.00331061 3.1418e-07 0)
(0.00330082 8.76193e-07 0)
(0.00329194 2.86092e-07 0)
(0.00328144 8.21805e-07 0)
(0.00327191 2.69335e-07 0)
(0.00326094 7.6658e-07 0)
(0.00325094 2.68596e-07 0)
(0.00323967 7.02038e-07 0)
(0.00322935 2.78843e-07 0)
(0.00321795 6.28859e-07 0)
(0.00320747 2.74318e-07 0)
(0.00319606 5.43199e-07 0)
(0.00318554 2.89516e-07 0)
(0.00317428 4.37036e-07 0)
(0.00316379 2.91183e-07 0)
(0.00315281 4.26093e-07 0)
(0.00314246 2.74244e-07 0)
(0.00313182 3.53911e-07 0)
(0.00312175 2.64036e-07 0)
(0.00311144 3.49117e-07 0)
(0.00310175 2.53209e-07 0)
(0.00309182 3.84717e-07 0)
(0.00308255 2.83685e-07 0)
(0.00307309 4.59737e-07 0)
(0.00306429 3.61961e-07 0)
(0.00305536 5.79806e-07 0)
(0.00304709 4.91899e-07 0)
(0.00303869 7.30397e-07 0)
(0.00303098 6.06283e-07 0)
(0.00302312 8.32034e-07 0)
(0.00301601 6.52822e-07 0)
(0.00300871 8.59076e-07 0)
(0.00300222 6.33805e-07 0)
(0.00299552 8.33654e-07 0)
(0.00298967 5.8741e-07 0)
(0.00298358 7.91578e-07 0)
(0.00297838 5.3268e-07 0)
(0.00297289 7.39276e-07 0)
(0.00296833 4.72938e-07 0)
(0.00296345 6.74087e-07 0)
(0.00295951 4.0392e-07 0)
(0.00295522 5.76028e-07 0)
(0.0029519 3.28726e-07 0)
(0.0029482 4.74635e-07 0)
(0.00294547 2.51146e-07 0)
(0.00294237 3.71283e-07 0)
(0.00294021 1.54869e-07 0)
(0.0029377 2.66339e-07 0)
(0.0029361 5.70368e-08 0)
(0.00293415 1.64878e-07 0)
(0.00293308 -3.39711e-08 0)
(0.00293172 7.05476e-08 0)
(0.00293113 -1.18505e-07 0)
(0.00293037 -1.07693e-08 0)
(0.0029302 -2.26263e-07 0)
(0.00292995 -8.31532e-08 0)
(0.00293031 -2.83831e-07 0)
(0.00293057 -1.31612e-07 0)
(0.00293134 -3.54233e-07 0)
(0.00293206 -1.54372e-07 0)
(0.00293329 -4.30102e-07 0)
(0.00293447 -2.75369e-07 0)
(0.00293609 -4.7087e-07 0)
(0.00293771 -3.48471e-07 0)
(0.00293966 -4.02386e-07 0)
(0.00294179 -3.64004e-07 0)
(0.00294411 -3.85088e-07 0)
(0.00294659 -3.63302e-07 0)
(0.00294926 -3.8713e-07 0)
(0.00295209 -3.86384e-07 0)
(0.00295508 -4.05327e-07 0)
(0.00295823 -4.15257e-07 0)
(0.00296153 -4.27231e-07 0)
(0.00296501 -4.43505e-07 0)
(0.0029685 -4.30377e-07 0)
(0.00297236 -4.23147e-07 0)
(0.00297601 -4.89247e-07 0)
(0.00298025 -4.08955e-07 0)
(0.00298402 -5.06051e-07 0)
(0.00298859 -4.37031e-07 0)
(0.00299248 -5.41473e-07 0)
(0.00299733 -4.74041e-07 0)
(0.00300136 -5.87207e-07 0)
(0.00300644 -5.33689e-07 0)
(0.0030106 -6.22206e-07 0)
(0.00301586 -5.84606e-07 0)
(0.00302014 -6.62779e-07 0)
(0.00302555 -6.27087e-07 0)
(0.00302995 -6.99218e-07 0)
(0.0030355 -6.6338e-07 0)
(0.00304001 -7.30598e-07 0)
(0.00304569 -6.92656e-07 0)
(0.0030503 -7.56951e-07 0)
(0.00305608 -7.13462e-07 0)
(0.00306078 -7.77914e-07 0)
(0.00306666 -7.28279e-07 0)
(0.00307144 -7.93072e-07 0)
(0.00307739 -7.37518e-07 0)
(0.00308224 -7.99742e-07 0)
(0.00308824 -7.42358e-07 0)
(0.00309315 -7.97257e-07 0)
(0.00309919 -7.52735e-07 0)
(0.00310415 -7.98706e-07 0)
(0.0031102 -7.68247e-07 0)
(0.00311519 -8.08142e-07 0)
(0.00312126 -7.8219e-07 0)
(0.00312627 -8.14116e-07 0)
(0.00313232 -7.88367e-07 0)
(0.00313734 -8.1292e-07 0)
(0.00314338 -7.88336e-07 0)
(0.00314841 -8.06506e-07 0)
(0.00315442 -7.85049e-07 0)
(0.00315945 -7.97398e-07 0)
(0.00316541 -7.80361e-07 0)
(0.00317044 -7.85758e-07 0)
(0.00317634 -7.74157e-07 0)
(0.00318137 -7.78601e-07 0)
(0.00318719 -7.64517e-07 0)
(0.00319223 -7.67261e-07 0)
(0.00319796 -7.55264e-07 0)
(0.003203 -7.55005e-07 0)
(0.00320863 -7.46311e-07 0)
(0.00321366 -7.4354e-07 0)
(0.00321919 -7.36857e-07 0)
(0.00322421 -7.31464e-07 0)
(0.00322963 -7.26815e-07 0)
(0.00323463 -7.18892e-07 0)
(0.00323993 -7.16515e-07 0)
(0.00324492 -7.05982e-07 0)
(0.0032501 -7.05335e-07 0)
(0.00325507 -6.93762e-07 0)
(0.00326011 -6.92176e-07 0)
(0.00326505 -6.86943e-07 0)
(0.00326999 -6.79363e-07 0)
(0.00327488 -6.73491e-07 0)
(0.00327972 -6.67001e-07 0)
(0.00328453 -6.6087e-07 0)
(0.0032893 -6.5444e-07 0)
(0.00329402 -6.48179e-07 0)
(0.0032987 -6.41872e-07 0)
(0.00330334 -6.35692e-07 0)
(0.00330794 -6.29529e-07 0)
(0.0033125 -6.23455e-07 0)
(0.00331701 -6.17382e-07 0)
(0.00332148 -6.11353e-07 0)
(0.00332591 -6.05303e-07 0)
(0.0033303 -5.99272e-07 0)
(0.00333464 -5.93218e-07 0)
(0.00333894 -5.87184e-07 0)
(0.00334319 -5.8116e-07 0)
(0.00334741 -5.75175e-07 0)
(0.00335158 -5.69228e-07 0)
(0.00335571 -5.63334e-07 0)
(0.0033598 -5.57492e-07 0)
(0.00336384 -5.5171e-07 0)
(0.00336785 -5.45982e-07 0)
(0.00337181 -5.40312e-07 0)
(0.00337573 -5.34697e-07 0)
(0.00337961 -5.29138e-07 0)
(0.00338345 -5.23632e-07 0)
(0.00338725 -5.18182e-07 0)
(0.00339101 -5.12785e-07 0)
(0.00339473 -5.07441e-07 0)
(0.00339841 -5.02149e-07 0)
(0.00340205 -4.96908e-07 0)
(0.00340565 -4.91717e-07 0)
(0.00340921 -4.86577e-07 0)
(0.00341274 -4.81486e-07 0)
(0.00341622 -4.76445e-07 0)
(0.00341967 -4.71453e-07 0)
(0.00342308 -4.6651e-07 0)
(0.00342645 -4.61613e-07 0)
(0.00342979 -4.56764e-07 0)
(0.00343309 -4.5196e-07 0)
(0.00343635 -4.472e-07 0)
(0.00343958 -4.42484e-07 0)
(0.00344277 -4.37812e-07 0)
(0.00344593 -4.33181e-07 0)
(0.00344905 -4.28593e-07 0)
(0.00345214 -4.24046e-07 0)
(0.00345519 -4.19539e-07 0)
(0.0034582 -4.15074e-07 0)
(0.00346119 -4.1065e-07 0)
(0.00346414 -4.06267e-07 0)
(0.00346705 -4.01927e-07 0)
(0.00346994 -3.97632e-07 0)
(0.00347279 -3.93387e-07 0)
(0.0034756 -3.89209e-07 0)
(0.00347839 -3.85079e-07 0)
(0.00348114 -3.80972e-07 0)
(0.00348387 -3.76891e-07 0)
(0.00348656 -3.72841e-07 0)
(0.00348922 -3.68828e-07 0)
(0.00349185 -3.64854e-07 0)
(0.00349445 -3.60922e-07 0)
(0.00349702 -3.57032e-07 0)
(0.00349956 -3.53186e-07 0)
(0.00350207 -3.49384e-07 0)
(0.00350455 -3.45626e-07 0)
(0.00350701 -3.41914e-07 0)
(0.00350943 -3.38246e-07 0)
(0.00351183 -3.34624e-07 0)
(0.00351421 -3.31048e-07 0)
(0.00351655 -3.27518e-07 0)
(0.00351887 -3.24034e-07 0)
(0.00352116 -3.20595e-07 0)
(0.00352343 -3.17203e-07 0)
(0.00352567 -3.13856e-07 0)
(0.00352789 -3.10554e-07 0)
(0.00353008 -3.07298e-07 0)
(0.00353225 -3.04086e-07 0)
(0.00353439 -3.00919e-07 0)
(0.00353651 -2.97794e-07 0)
(0.00353861 -2.94713e-07 0)
(0.00354068 -2.91674e-07 0)
(0.00354273 -2.88676e-07 0)
(0.00354476 -2.85718e-07 0)
(0.00354677 -2.828e-07 0)
(0.00354875 -2.7992e-07 0)
(0.00355072 -2.77077e-07 0)
(0.00355266 -2.74271e-07 0)
(0.00355458 -2.71499e-07 0)
(0.00355648 -2.68762e-07 0)
(0.00355836 -2.66057e-07 0)
(0.00356022 -2.63384e-07 0)
(0.00356206 -2.60741e-07 0)
(0.00356388 -2.58127e-07 0)
(0.00356568 -2.55541e-07 0)
(0.00356746 -2.52981e-07 0)
(0.00356923 -2.50446e-07 0)
(0.00357097 -2.47935e-07 0)
(0.00357269 -2.45447e-07 0)
(0.0035744 -2.42981e-07 0)
(0.00357609 -2.40534e-07 0)
(0.00357776 -2.38107e-07 0)
(0.00357941 -2.35696e-07 0)
(0.00358104 -2.33301e-07 0)
(0.00358265 -2.30917e-07 0)
(0.00358425 -2.28537e-07 0)
(0.00358583 -2.26153e-07 0)
(0.00358739 -2.23741e-07 0)
(0.00358894 -2.21334e-07 0)
(0.00359046 -2.18965e-07 0)
(0.00359197 -2.16634e-07 0)
(0.00359346 -2.1433e-07 0)
(0.00359494 -2.12048e-07 0)
(0.0035964 -2.09781e-07 0)
(0.00359784 -2.07528e-07 0)
(0.00359926 -2.05288e-07 0)
(0.00360067 -2.03058e-07 0)
(0.00360206 -2.00838e-07 0)
(0.00360343 -1.98619e-07 0)
(0.00360479 -1.9641e-07 0)
(0.00360613 -1.941e-07 0)
(0.00360745 -1.91961e-07 0)
(0.00360876 -1.88672e-07 0)
(0.00361005 -1.91004e-07 0)
(0.00361133 -1.82169e-07 0)
(0.00361259 -1.87716e-07 0)
(0.00361383 -1.76507e-07 0)
(0.00361506 -1.8484e-07 0)
(0.00361627 -1.70809e-07 0)
(0.00361748 -1.8166e-07 0)
(0.00361863 -1.65316e-07 0)
(0.00361983 -1.78157e-07 0)
(0.00362092 -1.59248e-07 0)
(0.00362213 -1.74834e-07 0)
(0.00362312 -1.51863e-07 0)
(0.00362438 -1.72158e-07 0)
(0.00362523 -1.41441e-07 0)
(0.00362658 -1.71237e-07 0)
(0.00362723 -1.25183e-07 0)
(0.00362876 -1.77161e-07 0)
(0.0036291 -9.9422e-08 0)
(0.00363098 -2.06473e-07 0)
(0.00363086 -8.12963e-08 0)
(0.00363378 -4.31945e-07 0)
(0.00363257 -9.3806e-07 0)
(1.08628e-06 -5.2662e-06 0)
(-1.30991e-05 1.24129e-05 0)
(-5.73184e-05 4.04871e-05 0)
(-0.00013044 6.40961e-05 0)
(-0.000228685 8.26176e-05 0)
(-0.000344076 9.24934e-05 0)
(-0.000472054 9.83366e-05 0)
(-0.000606818 9.9991e-05 0)
(-0.000745373 9.9873e-05 0)
(-0.000885885 9.84174e-05 0)
(-0.00102581 9.67231e-05 0)
(-0.00116639 9.5167e-05 0)
(-0.00130572 9.39953e-05 0)
(-0.00144415 9.33379e-05 0)
(-0.00158141 9.30946e-05 0)
(-0.00171769 9.32364e-05 0)
(-0.00185299 9.37378e-05 0)
(-0.00198732 9.45386e-05 0)
(-0.00212078 9.53721e-05 0)
(-0.00225306 9.58784e-05 0)
(-0.00238391 9.6426e-05 0)
(-0.00251339 9.70654e-05 0)
(-0.00264153 9.76304e-05 0)
(-0.00276834 9.80125e-05 0)
(-0.0028938 9.81227e-05 0)
(-0.00301792 9.78979e-05 0)
(-0.00314069 9.72909e-05 0)
(-0.00326218 9.62687e-05 0)
(-0.00338244 9.48097e-05 0)
(-0.00350154 9.29138e-05 0)
(-0.00361954 9.05151e-05 0)
(-0.00373644 8.75165e-05 0)
(-0.0038522 8.33212e-05 0)
(-0.00396649 7.65136e-05 0)
(-0.00407929 7.18449e-05 0)
(-0.00419307 7.002e-05 0)
(-0.00430534 6.54686e-05 0)
(-0.0044172 6.04145e-05 0)
(-0.00452816 5.57229e-05 0)
(-0.00463826 5.15309e-05 0)
(-0.00474742 4.79771e-05 0)
(-0.00485562 4.50479e-05 0)
(-0.00496281 4.28632e-05 0)
(-0.00506901 4.13302e-05 0)
(-0.00517421 4.03883e-05 0)
(-0.00527843 3.99171e-05 0)
(-0.00538171 3.98241e-05 0)
(-0.00548411 4.0039e-05 0)
(-0.00558569 4.05231e-05 0)
(-0.00568653 4.12645e-05 0)
(-0.00578669 4.2285e-05 0)
(-0.00588626 4.3636e-05 0)
(-0.00598531 4.53927e-05 0)
(-0.00608392 4.7696e-05 0)
(-0.00618212 5.0523e-05 0)
(-0.00627983 5.41989e-05 0)
(-0.00637709 5.80702e-05 0)
(-0.00647363 6.15786e-05 0)
(-0.00656917 6.90973e-05 0)
(-0.00666319 7.55739e-05 0)
(-0.00675475 8.13317e-05 0)
(-0.0068461 8.58639e-05 0)
(-0.00693572 8.93451e-05 0)
(-0.00702562 9.17128e-05 0)
(-0.00711503 9.29301e-05 0)
(-0.00720447 9.33381e-05 0)
(-0.00729369 9.31352e-05 0)
(-0.00738271 9.24824e-05 0)
(-0.00747144 9.15469e-05 0)
(-0.00755986 9.03623e-05 0)
(-0.00764789 8.90461e-05 0)
(-0.00773554 8.75659e-05 0)
(-0.00782274 8.60218e-05 0)
(-0.00790952 8.43434e-05 0)
(-0.00799581 8.26273e-05 0)
(-0.00808165 8.07752e-05 0)
(-0.00816698 7.8909e-05 0)
(-0.00825182 7.68787e-05 0)
(-0.00833611 7.48903e-05 0)
(-0.00841991 7.27205e-05 0)
(-0.00850311 7.06577e-05 0)
(-0.00858579 6.83899e-05 0)
(-0.00866779 6.61775e-05 0)
(-0.00874918 6.33745e-05 0)
(-0.00882974 5.95445e-05 0)
(-0.00890978 5.69932e-05 0)
(-0.00898953 5.65698e-05 0)
(-0.00906876 5.49624e-05 0)
(-0.00914717 5.39999e-05 0)
(-0.00922471 5.37636e-05 0)
(-0.00930087 5.42186e-05 0)
(-0.00937568 5.41373e-05 0)
(-0.0094488 5.46149e-05 0)
(-0.0095204 5.79863e-05 0)
(-0.00958973 6.06479e-05 0)
(-0.00965793 6.31667e-05 0)
(-0.00972364 6.6318e-05 0)
(-0.00978768 6.84175e-05 0)
(-0.00984866 7.1833e-05 0)
(-0.00990794 7.38343e-05 0)
(-0.00996326 7.74765e-05 0)
(-0.0100167 7.91719e-05 0)
(-0.0100644 8.28249e-05 0)
(-0.0101108 8.32938e-05 0)
(-0.01015 8.67939e-05 0)
(-0.0101874 8.52444e-05 0)
(-0.0102161 8.78244e-05 0)
(-0.0102407 8.17931e-05 0)
(-0.0102581 8.04426e-05 0)
(-0.0102683 6.71831e-05 0)
(-0.0102716 5.61064e-05 0)
(-0.0102635 2.99238e-05 0)
(-0.0102565 7.2496e-06 0)
(-0.0102575 -2.14332e-05 0)
(-0.0102477 -4.25135e-05 0)
(-0.0102358 -6.42329e-05 0)
(-0.0102075 -8.08716e-05 0)
(-0.0101781 -9.83361e-05 0)
(-0.0101301 -0.000112671 0)
(-0.0100824 -0.000128699 0)
(-0.0100145 -0.000142023 0)
(-0.00994839 -0.00015759 0)
(-0.0098604 -0.000170196 0)
(-0.00977625 -0.000185033 0)
(-0.00966771 -0.00019642 0)
(-0.00956658 -0.000209269 0)
(-0.00943765 -0.000218115 0)
(-0.00932121 -0.000226054 0)
(-0.00917305 -0.000228476 0)
(-0.00904191 -0.000224302 0)
(-0.00887412 -0.00020894 0)
(-0.00872411 -0.000190741 0)
(-0.00852997 -0.00014483 0)
(-0.00835186 -0.000110457 0)
(-0.00812273 -2.59205e-05 0)
(-0.00786718 -3.32115e-06 0)
(-0.00760271 3.58027e-05 0)
(-0.00733003 3.25508e-05 0)
(-0.00705259 5.06511e-05 0)
(-0.0067653 4.32583e-05 0)
(-0.00647031 4.94353e-05 0)
(-0.00616348 4.13049e-05 0)
(-0.00584466 3.86252e-05 0)
(-0.00551304 2.85111e-05 0)
(-0.00515404 1.36737e-05 0)
(-0.00480032 -1.07979e-05 0)
(-0.00437939 -4.77517e-05 0)
(-0.00402915 -0.000115721 0)
(-0.00361234 -0.00017187 0)
(-0.00330476 -0.000262622 0)
(-0.00302231 -0.000292368 0)
(-0.00268083 -0.000315373 0)
(-0.00235639 -0.000327661 0)
(-0.00199366 -0.000334464 0)
(-0.00165809 -0.000343507 0)
(-0.00131144 -0.000355296 0)
(-0.000985844 -0.000379845 0)
(-0.000595154 -0.000415825 0)
(-0.000126382 -0.00040461 0)
(0.000248918 -0.000399676 0)
(0.000665804 -0.000379878 0)
(0.00102787 -0.00037063 0)
(0.00143083 -0.000358571 0)
(0.00178406 -0.000337086 0)
(0.00216539 -0.000325548 0)
(0.0025065 -0.000307949 0)
(0.00287518 -0.000303806 0)
(0.00320596 -0.000288039 0)
(0.00356119 -0.000284577 0)
(0.00388006 -0.000268754 0)
(0.00421906 -0.000265358 0)
(0.00452464 -0.000249893 0)
(0.00484531 -0.000246252 0)
(0.00513639 -0.000231615 0)
(0.00543725 -0.000227245 0)
(0.00571282 -0.000213987 0)
(0.00599288 -0.000208336 0)
(0.006252 -0.000196963 0)
(0.00651073 -0.000189979 0)
(0.0067523 -0.000179781 0)
(0.00699041 -0.000172265 0)
(0.0072132 -0.00016294 0)
(0.00743086 -0.000155308 0)
(0.00763465 -0.000146365 0)
(0.00783214 -0.000139135 0)
(0.00801696 -0.000130485 0)
(0.00819465 -0.000123728 0)
(0.00836088 -0.00011527 0)
(0.00851934 -0.000109089 0)
(0.00866753 -0.000100727 0)
(0.00880748 -9.55605e-05 0)
(0.00893844 -8.74851e-05 0)
(0.00906082 -8.21948e-05 0)
(0.00917523 -7.51239e-05 0)
(0.00928107 -6.94831e-05 0)
(0.00937922 -6.37257e-05 0)
(0.00946978 -5.81421e-05 0)
(0.00955294 -5.28125e-05 0)
(0.00962901 -4.76304e-05 0)
(0.00969809 -4.28193e-05 0)
(0.00976078 -3.80852e-05 0)
(0.00981683 -3.37131e-05 0)
(0.00986717 -2.93908e-05 0)
(0.00991129 -2.54534e-05 0)
(0.0099503 -2.15157e-05 0)
(0.00998357 -1.80108e-05 0)
(0.0100123 -1.45824e-05 0)
(0.0100358 -1.1449e-05 0)
(0.0100552 -8.60896e-06 0)
(0.0100699 -5.77455e-06 0)
(0.0100811 -3.45993e-06 0)
(0.0100879 -7.61587e-07 0)
(0.010092 1.03041e-06 0)
(0.0100922 3.64333e-06 0)
(0.0100887 5.47046e-06 0)
(0.0100829 7.62139e-06 0)
(0.0100737 9.4542e-06 0)
(0.0100627 1.13155e-05 0)
(0.0100487 1.2831e-05 0)
(0.0100333 1.42573e-05 0)
(0.0100153 1.54545e-05 0)
(0.00999626 1.64466e-05 0)
(0.00997485 1.75821e-05 0)
(0.0099528 1.82621e-05 0)
(0.00992867 1.92761e-05 0)
(0.00990417 1.96367e-05 0)
(0.0098779 2.05092e-05 0)
(0.00985154 2.06145e-05 0)
(0.00982361 2.13485e-05 0)
(0.00979589 2.12585e-05 0)
(0.00976679 2.1856e-05 0)
(0.00973809 2.16075e-05 0)
(0.00970835 2.20778e-05 0)
(0.00967896 2.17161e-05 0)
(0.00964901 2.19785e-05 0)
(0.00961925 2.16544e-05 0)
(0.00958945 2.16971e-05 0)
(0.00955966 2.12462e-05 0)
(0.00953028 2.11945e-05 0)
(0.00950076 2.07582e-05 0)
(0.00947201 2.05069e-05 0)
(0.00944301 2.01258e-05 0)
(0.00941504 1.96693e-05 0)
(0.0093868 1.93346e-05 0)
(0.00935975 1.86734e-05 0)
(0.0093325 1.8354e-05 0)
(0.0093065 1.75084e-05 0)
(0.00928044 1.71795e-05 0)
(0.00925562 1.6252e-05 0)
(0.00923078 1.59226e-05 0)
(0.00920726 1.49767e-05 0)
(0.00918372 1.4676e-05 0)
(0.00916161 1.37225e-05 0)
(0.00913949 1.34473e-05 0)
(0.00911891 1.24801e-05 0)
(0.00909832 1.2216e-05 0)
(0.00907934 1.12286e-05 0)
(0.00906031 1.09914e-05 0)
(0.00904292 9.99648e-06 0)
(0.00902547 9.7864e-06 0)
(0.00900969 8.78827e-06 0)
(0.00899382 8.60187e-06 0)
(0.00897964 7.60264e-06 0)
(0.00896536 7.49082e-06 0)
(0.00895278 6.45074e-06 0)
(0.00894008 6.38711e-06 0)
(0.00892908 5.31422e-06 0)
(0.00891795 5.30177e-06 0)
(0.00890852 4.24635e-06 0)
(0.00889895 4.23443e-06 0)
(0.00889103 3.21402e-06 0)
(0.00888301 3.19005e-06 0)
(0.00887654 2.19962e-06 0)
(0.00887003 2.18425e-06 0)
(0.00886498 1.21667e-06 0)
(0.00885994 1.24254e-06 0)
(0.00885627 2.08056e-07 0)
(0.00885264 3.50915e-07 0)
(0.00885032 -6.8272e-07 0)
(0.00884806 -4.77486e-07 0)
(0.00884703 -1.56692e-06 0)
(0.00884605 -1.47884e-06 0)
(0.00884609 -2.3596e-06 0)
(0.00884662 -2.26127e-06 0)
(0.00884777 -3.06766e-06 0)
(0.00884938 -3.08101e-06 0)
(0.00885174 -3.83401e-06 0)
(0.0088545 -4.12432e-06 0)
(0.00885794 -4.50571e-06 0)
(0.00886175 -4.84332e-06 0)
(0.00886614 -5.18811e-06 0)
(0.00887098 -5.51208e-06 0)
(0.00887632 -5.81338e-06 0)
(0.00888212 -6.10246e-06 0)
(0.00888838 -6.40475e-06 0)
(0.00889507 -6.69231e-06 0)
(0.00890209 -6.92412e-06 0)
(0.00890967 -7.20526e-06 0)
(0.00891731 -7.45715e-06 0)
(0.00892577 -7.6439e-06 0)
(0.00893401 -7.94591e-06 0)
(0.00894329 -8.00967e-06 0)
(0.0089521 -8.35802e-06 0)
(0.00896207 -8.35177e-06 0)
(0.00897143 -8.68769e-06 0)
(0.00898205 -8.6152e-06 0)
(0.00899189 -8.97964e-06 0)
(0.00900304 -8.84336e-06 0)
(0.00901333 -9.20957e-06 0)
(0.00902495 -9.07059e-06 0)
(0.00903566 -9.42495e-06 0)
(0.00904771 -9.27783e-06 0)
(0.00905881 -9.62143e-06 0)
(0.00907125 -9.46583e-06 0)
(0.00908271 -9.79227e-06 0)
(0.00909549 -9.64504e-06 0)
(0.00910727 -9.93803e-06 0)
(0.00912037 -9.80769e-06 0)
(0.00913243 -1.00595e-05 0)
(0.00914579 -9.94699e-06 0)
(0.0091581 -1.01605e-05 0)
(0.00917169 -1.00601e-05 0)
(0.0091842 -1.02537e-05 0)
(0.00919797 -1.01307e-05 0)
(0.00921064 -1.03113e-05 0)
(0.00922455 -1.01667e-05 0)
(0.00923737 -1.0324e-05 0)
(0.00925137 -1.01809e-05 0)
(0.0092643 -1.03165e-05 0)
(0.00927837 -1.01843e-05 0)
(0.00929137 -1.02978e-05 0)
(0.00930548 -1.01766e-05 0)
(0.00931852 -1.02667e-05 0)
(0.00933263 -1.01551e-05 0)
(0.0093457 -1.02201e-05 0)
(0.00935979 -1.01192e-05 0)
(0.00937286 -1.01551e-05 0)
(0.0093869 -1.00693e-05 0)
(0.00939996 -1.0079e-05 0)
(0.00941391 -1.00039e-05 0)
(0.00942696 -1.00003e-05 0)
(0.00944079 -9.92219e-06 0)
(0.00945382 -9.90797e-06 0)
(0.0094675 -9.82793e-06 0)
(0.00948049 -9.80044e-06 0)
(0.00949401 -9.72471e-06 0)
(0.00950695 -9.68363e-06 0)
(0.00952028 -9.61151e-06 0)
(0.00953315 -9.55867e-06 0)
(0.00954629 -9.4895e-06 0)
(0.00955909 -9.42498e-06 0)
(0.00957201 -9.35899e-06 0)
(0.00958472 -9.28502e-06 0)
(0.00959741 -9.21881e-06 0)
(0.00961 -9.14979e-06 0)
(0.00962252 -9.07336e-06 0)
(0.00963494 -8.99926e-06 0)
(0.00964728 -8.92292e-06 0)
(0.00965952 -8.8474e-06 0)
(0.00967167 -8.77014e-06 0)
(0.00968373 -8.69318e-06 0)
(0.00969569 -8.61454e-06 0)
(0.00970755 -8.5362e-06 0)
(0.00971932 -8.45665e-06 0)
(0.00973099 -8.37742e-06 0)
(0.00974256 -8.29749e-06 0)
(0.00975403 -8.21781e-06 0)
(0.00976539 -8.13785e-06 0)
(0.00977666 -8.05807e-06 0)
(0.00978783 -7.9783e-06 0)
(0.0097989 -7.89876e-06 0)
(0.00980986 -7.81935e-06 0)
(0.00982072 -7.74022e-06 0)
(0.00983148 -7.66131e-06 0)
(0.00984214 -7.58274e-06 0)
(0.0098527 -7.50446e-06 0)
(0.00986316 -7.42659e-06 0)
(0.00987351 -7.34909e-06 0)
(0.00988377 -7.27206e-06 0)
(0.00989392 -7.19548e-06 0)
(0.00990397 -7.11939e-06 0)
(0.00991392 -7.0438e-06 0)
(0.00992378 -6.96872e-06 0)
(0.00993353 -6.89417e-06 0)
(0.00994319 -6.82015e-06 0)
(0.00995275 -6.74667e-06 0)
(0.00996221 -6.67375e-06 0)
(0.00997157 -6.60137e-06 0)
(0.00998083 -6.52955e-06 0)
(0.00999 -6.45829e-06 0)
(0.00999908 -6.38757e-06 0)
(0.0100081 -6.31741e-06 0)
(0.0100169 -6.24781e-06 0)
(0.0100257 -6.17875e-06 0)
(0.0100344 -6.11025e-06 0)
(0.010043 -6.04229e-06 0)
(0.0100515 -5.97489e-06 0)
(0.01006 -5.90804e-06 0)
(0.0100683 -5.84174e-06 0)
(0.0100765 -5.77599e-06 0)
(0.0100847 -5.7108e-06 0)
(0.0100927 -5.64616e-06 0)
(0.0101007 -5.58208e-06 0)
(0.0101086 -5.51857e-06 0)
(0.0101164 -5.45562e-06 0)
(0.0101241 -5.39325e-06 0)
(0.0101317 -5.33147e-06 0)
(0.0101393 -5.27027e-06 0)
(0.0101467 -5.20968e-06 0)
(0.0101541 -5.14969e-06 0)
(0.0101614 -5.09032e-06 0)
(0.0101686 -5.03156e-06 0)
(0.0101757 -4.97344e-06 0)
(0.0101827 -4.91594e-06 0)
(0.0101897 -4.8591e-06 0)
(0.0101966 -4.80291e-06 0)
(0.0102034 -4.74739e-06 0)
(0.0102101 -4.69253e-06 0)
(0.0102168 -4.63836e-06 0)
(0.0102234 -4.58487e-06 0)
(0.0102299 -4.53206e-06 0)
(0.0102363 -4.47994e-06 0)
(0.0102427 -4.42852e-06 0)
(0.010249 -4.37779e-06 0)
(0.0102552 -4.32776e-06 0)
(0.0102614 -4.27842e-06 0)
(0.0102675 -4.22976e-06 0)
(0.0102735 -4.1818e-06 0)
(0.0102794 -4.13451e-06 0)
(0.0102853 -4.08791e-06 0)
(0.0102911 -4.04196e-06 0)
(0.0102969 -3.99668e-06 0)
(0.0103026 -3.95205e-06 0)
(0.0103082 -3.90805e-06 0)
(0.0103138 -3.86468e-06 0)
(0.0103193 -3.82192e-06 0)
(0.0103248 -3.77976e-06 0)
(0.0103302 -3.73818e-06 0)
(0.0103355 -3.69717e-06 0)
(0.0103408 -3.65671e-06 0)
(0.010346 -3.61679e-06 0)
(0.0103512 -3.57739e-06 0)
(0.0103563 -3.53848e-06 0)
(0.0103613 -3.50005e-06 0)
(0.0103663 -3.46209e-06 0)
(0.0103713 -3.42457e-06 0)
(0.0103762 -3.38748e-06 0)
(0.010381 -3.3508e-06 0)
(0.0103858 -3.3145e-06 0)
(0.0103905 -3.27858e-06 0)
(0.0103952 -3.24301e-06 0)
(0.0103999 -3.20778e-06 0)
(0.0104044 -3.17287e-06 0)
(0.010409 -3.13827e-06 0)
(0.0104135 -3.10395e-06 0)
(0.0104179 -3.06991e-06 0)
(0.0104223 -3.03613e-06 0)
(0.0104266 -3.00259e-06 0)
(0.0104309 -2.96929e-06 0)
(0.0104352 -2.93622e-06 0)
(0.0104394 -2.90337e-06 0)
(0.0104435 -2.87076e-06 0)
(0.0104476 -2.83845e-06 0)
(0.0104517 -2.80638e-06 0)
(0.0104557 -2.77443e-06 0)
(0.0104597 -2.7426e-06 0)
(0.0104636 -2.7109e-06 0)
(0.0104675 -2.67935e-06 0)
(0.0104713 -2.64794e-06 0)
(0.0104751 -2.61669e-06 0)
(0.0104788 -2.5856e-06 0)
(0.0104825 -2.55467e-06 0)
(0.0104862 -2.52389e-06 0)
(0.0104898 -2.49324e-06 0)
(0.0104934 -2.46272e-06 0)
(0.0104969 -2.43205e-06 0)
(0.0105004 -2.40192e-06 0)
(0.0105038 -2.36871e-06 0)
(0.0105072 -2.35196e-06 0)
(0.0105106 -2.30528e-06 0)
(0.0105139 -2.29326e-06 0)
(0.0105172 -2.24331e-06 0)
(0.0105204 -2.23722e-06 0)
(0.0105236 -2.18203e-06 0)
(0.0105267 -2.18105e-06 0)
(0.0105298 -2.1201e-06 0)
(0.0105329 -2.12069e-06 0)
(0.0105359 -2.05959e-06 0)
(0.010539 -2.05864e-06 0)
(0.0105418 -1.99876e-06 0)
(0.0105448 -1.99513e-06 0)
(0.0105474 -1.93706e-06 0)
(0.0105506 -1.93217e-06 0)
(0.0105529 -1.87933e-06 0)
(0.0105562 -1.87905e-06 0)
(0.0105581 -1.84677e-06 0)
(0.0105617 -1.88101e-06 0)
(0.0105629 -1.95574e-06 0)
(0.0105673 -2.2051e-06 0)
(0.0105673 -2.9519e-06 0)
(-4.42737e-06 5.87126e-06 0)
(-4.63229e-05 5.89463e-05 0)
(-0.00013361 0.000123839 0)
(-0.000262734 0.0001818 0)
(-0.000426132 0.000227263 0)
(-0.000613947 0.000256528 0)
(-0.00081882 0.000274891 0)
(-0.00103367 0.000283371 0)
(-0.00125394 0.000286731 0)
(-0.00147657 0.000286484 0)
(-0.00169891 0.000284857 0)
(-0.0019205 0.000281979 0)
(-0.00213988 0.000278728 0)
(-0.0023572 0.000275621 0)
(-0.00257225 0.0002726 0)
(-0.00278496 0.000269507 0)
(-0.00299537 0.000266161 0)
(-0.00320329 0.000263052 0)
(-0.00340832 0.000259355 0)
(-0.00361089 0.000254926 0)
(-0.00381173 0.000250338 0)
(-0.00401049 0.000245777 0)
(-0.00420731 0.000241351 0)
(-0.004402 0.000237089 0)
(-0.00459456 0.000233119 0)
(-0.00478492 0.000229556 0)
(-0.00497311 0.00022653 0)
(-0.00515911 0.000224153 0)
(-0.00534295 0.000222469 0)
(-0.00552464 0.000221583 0)
(-0.00570422 0.000221345 0)
(-0.00588164 0.000221808 0)
(-0.00605706 0.000222437 0)
(-0.00623092 0.000222996 0)
(-0.00640376 0.000227769 0)
(-0.00657285 0.000230447 0)
(-0.00673865 0.00023364 0)
(-0.00690249 0.000236591 0)
(-0.00706421 0.000239125 0)
(-0.00722384 0.000241111 0)
(-0.00738139 0.000242521 0)
(-0.00753705 0.000243118 0)
(-0.00769085 0.000243083 0)
(-0.00784316 0.000242313 0)
(-0.00799404 0.000240952 0)
(-0.00814361 0.000239102 0)
(-0.00829184 0.000236893 0)
(-0.00843871 0.000234422 0)
(-0.00858417 0.000231762 0)
(-0.00872819 0.00022894 0)
(-0.00887072 0.00022597 0)
(-0.00901175 0.000222814 0)