/*--------------------------------*- C++ -*----------------------------------*\
| =========                 |                                                 |
| \\      /  F ield         | OpenFOAM: The Open Source CFD Toolbox           |
|  \\    /   O peration     | Version:  2012                                  |
|   \\  /    A nd           | Website:  www.openfoam.com                      |
|    \\/     M anipulation  |                                                 |
\*---------------------------------------------------------------------------*/
FoamFile
{
    version     2.0;
    format      ascii;
    class       volScalarField;
    location    "0.002";
    object      T;
}
// * * * * * * * * * * * * * * * * * * * * * * * * * * * * * * * * * * * * * //

dimensions      [0 0 0 1 0 0 0];


internalField   nonuniform List<scalar> 
5000
(
308.15
308.15
308.15
308.15
308.15
308.15
308.15
308.15
308.15
308.15
308.15
308.15
308.15
308.15
308.15
308.15
308.15
308.15
308.15
308.15
308.15
308.15
308.15
308.15
308.15
308.15
308.15
308.15
308.15
308.15
308.15
308.15
308.15
308.15
308.15
308.15
308.15
308.15
308.15
308.15
308.15
308.15
308.15
308.15
308.15
308.15
308.15
308.15
308.15
308.15
308.15
308.15
308.15
308.15
308.15
308.15
308.15
308.15
308.15
308.15
308.15
308.15
308.15
308.15
308.15
308.15
308.15
308.15
308.15
308.15
308.15
308.15
308.15
308.15
308.15
308.15
308.15
308.15
308.15
308.15
308.15
308.15
308.15
308.15
308.15
308.15
308.15
308.15
308.15
308.15
308.15
308.15
308.15
308.15
308.15
308.15
308.15
308.15
308.15
308.15
308.15
308.15
308.15
308.15
308.15
308.15
308.15
308.15
308.15
308.15
308.15
308.15
308.15
308.15
308.15
308.15
308.15
308.15
308.15
308.15
308.15
308.15
308.15
308.15
308.15
308.15
308.15
308.15
308.15
308.15
308.15
308.15
308.15
308.15
308.15
308.15
308.15
308.15
308.15
308.15
308.15
308.15
308.15
308.15
308.15
308.15
308.15
308.15
308.15
308.15
308.15
308.15
308.15
308.15
308.15
308.15
308.15
308.15
308.15
308.15
308.15
308.15
308.15
308.15
308.15
308.15
308.15
308.15
308.15
308.15
308.15
308.15
308.15
308.15
308.15
308.15
308.15
308.15
308.15
308.15
308.15
308.15
308.15
308.15
308.15
308.15
308.15
308.15
308.15
308.15
308.15
308.15
308.15
308.15
308.15
308.15
308.15
308.15
308.15
308.15
308.15
308.15
308.15
308.15
308.15
308.15
308.15
308.15
308.15
308.15
308.15
308.15
308.15
308.15
308.15
308.15
308.15
308.15
308.15
308.15
308.15
308.15
308.15
308.15
308.15
308.15
308.15
308.15
308.15
308.15
308.15
308.15
308.15
308.15
308.15
308.15
308.15
308.15
308.15
308.15
308.15
308.15
308.15
308.15
308.15
308.15
308.15
308.15
308.15
308.15
308.15
308.15
308.15
308.15
308.15
308.15
308.15
308.15
308.15
308.15
308.15
308.15
308.15
308.15
308.15
308.15
308.15
308.15
308.15
308.15
308.15
308.15
308.15
308.15
308.15
308.15
308.15
308.15
308.15
308.15
308.15
308.15
308.15
308.15
308.15
308.15
308.15
308.15
308.15
308.15
308.15
308.15
308.15
308.15
308.15
308.15
308.15
308.15
308.15
308.15
308.15
308.15
308.15
308.15
308.15
308.15
308.15
308.15
308.15
308.15
308.15
308.15
308.15
308.15
308.15
308.15
308.15
308.15
308.15
308.15
308.15
308.15
308.15
308.15
308.15
308.15
308.15
308.15
308.15
308.15
308.15
308.15
308.15
308.15
308.15
308.15
308.15
308.15
308.15
308.15
308.15
308.15
308.15
308.15
308.15
308.15
308.15
308.15
308.15
308.15
308.15
308.15
308.15
308.15
308.15
308.15
308.15
308.15
308.15
308.15
308.15
308.15
308.15
308.15
308.15
308.15
308.15
308.15
308.15
308.15
308.15
308.15
308.15
308.15
308.15
308.15
308.15
308.15
308.15
308.15
308.15
308.15
308.15
308.15
308.15
308.15
308.15
308.15
308.15
308.15
308.15
308.15
308.15
308.15
308.15
308.15
308.15
308.15
308.15
308.15
308.15
308.15
308.15
308.15
308.15
308.15
308.15
308.15
308.15
308.15
308.15
308.15
308.15
308.15
308.15
308.15
308.15
308.15
308.15
308.15
308.15
308.15
308.15
308.15
308.15
308.15
308.15
308.15
308.15
308.15
308.15
308.15
308.15
308.15
308.15
308.15
308.15
308.15
308.15
308.15
308.15
308.15
308.15
308.15
308.15
308.15
308.15
308.15
308.15
308.15
308.15
308.15
308.15
308.15
308.15
308.15
308.15
308.15
308.15
308.15
308.15
308.15
308.15
308.15
308.15
308.15
308.15
308.15
308.15
308.15
308.15
308.15
308.15
308.15
308.15
308.15
308.15
308.15
308.15
308.15
308.15
308.15
308.15
308.15
308.15
308.15
308.15
308.15
308.15
308.15
308.15
308.15
308.15
308.15
308.15
308.15
308.15
308.15
308.15
308.15
308.15
308.15
308.15
308.15
308.15
308.15
308.15
308.15
308.15
308.15
308.15
308.15
308.15
308.15
308.15
308.15
308.15
308.15
308.15
308.15
308.15
308.15
308.15
308.15
308.15
308.15
308.15
308.15
308.15
308.15
308.15
308.15
308.15
308.15
308.15
308.15
308.15
308.15
308.15
308.15
308.15
308.15
308.15
308.15
308.15
308.15
308.15
308.15
308.15
308.15
308.15
308.15
308.15
308.15
308.15
308.15
308.15
308.15
308.15
308.15
308.15
308.15
308.15
308.15
308.15
308.15
308.15
308.15
308.15
308.15
308.15
308.15
308.15
308.15
308.15
308.15
308.15
308.15
308.15
308.15
308.15
308.15
308.15
308.15
308.15
308.15
308.15
308.15
308.15
308.15
308.15
308.15
308.15
308.15
308.15
308.15
308.15
308.15
308.15
308.15
308.15
308.15
308.15
308.15
308.15
308.15
308.15
308.15
308.15
308.15
308.15
308.15
308.15
308.15
308.15
308.15
308.15
308.15
308.15
308.15
308.15
308.15
308.15
308.15
308.15
308.15
308.15
308.15
308.15
308.15
308.15
308.15
308.15
308.15
308.15
308.15
308.15
308.15
308.15
308.15
308.15
308.15
308.15
308.15
308.15
308.15
308.15
308.15
308.15
308.15
308.15
308.15
308.15
308.15
308.15
308.15
308.15
308.15
308.15
308.15
308.15
308.15
308.15
308.15
308.15
308.15
308.15
308.15
308.15
308.15
308.15
308.15
308.15
308.15
308.15
308.15
308.15
308.15
308.15
308.15
308.15
308.15
308.15
308.15
308.15
308.15
308.15
308.15
308.15
308.15
308.15
308.15
308.15
308.15
308.15
308.15
308.15
308.15
308.15
308.15
308.15
308.15
308.15
308.15
308.15
308.15
308.15
308.15
308.15
308.15
308.15
308.15
308.15
308.15
308.15
308.15
308.15
308.15
308.15
308.15
308.15
308.15
308.15
308.15
308.15
308.15
308.15
308.15
308.15
308.15
308.15
308.15
308.15
308.15
308.15
308.15
308.15
308.15
308.15
308.15
308.15
308.15
308.15
308.15
308.15
308.15
308.15
308.15
308.15
308.15
308.15
308.15
308.15
308.15
308.15
308.15
308.15
308.15
308.15
308.15
308.15
308.15
308.15
308.15
308.15
308.15
308.15
308.15
308.15
308.15
308.15
308.15
308.15
308.15
308.15
308.15
308.15
308.15
308.15
308.15
308.15
308.15
308.15
308.15
308.15
308.15
308.15
308.15
308.15
308.15
308.15
308.15
308.15
308.15
308.15
308.15
308.15
308.15
308.15
308.15
308.15
308.15
308.15
308.15
308.15
308.15
308.15
308.15
308.15
308.15
308.15
308.15
308.15
308.15
308.15
308.15
308.15
308.15
308.15
308.15
308.15
308.15
308.15
308.15
308.15
308.15
308.15
308.15
308.15
308.15
308.15
308.15
308.15
308.15
308.15
308.15
308.15
308.15
308.15
308.15
308.15
308.15
308.15
308.15
308.15
308.15
308.15
308.15
308.15
308.15
308.15
308.15
308.15
308.15
308.15
308.15
308.15
308.15
308.15
308.15
308.15
308.15
308.15
308.15
308.15
308.15
308.15
308.15
308.15
308.15
308.15
308.15
308.15
308.15
308.15
308.15
308.15
308.15
308.15
308.15
308.15
308.15
308.15
308.15
308.15
308.15
308.15
308.15
308.15
308.15
308.15
308.15
308.15
308.15
308.15
308.15
308.15
308.15
308.15
308.15
308.15
308.15
308.15
308.15
308.15
308.15
308.15
308.15
308.15
308.15
308.15
308.15
308.15
308.15
308.15
308.15
308.15
308.15
308.15
308.15
308.15
308.15
308.15
308.15
308.15
308.15
308.15
308.15
308.15
308.15
308.15
308.15
308.15
308.15
308.15
308.15
308.15
308.15
308.15
308.15
308.15
308.15
308.15
308.15
308.15
308.15
308.15
308.15
308.15
308.15
308.15
308.15
308.15
308.15
308.15
308.15
308.15
308.15
308.15
308.15
308.15
308.15
308.15
308.15
308.15
308.15
308.15
308.15
308.15
308.15
308.15
308.15
308.15
308.15
308.15
308.15
308.15
308.15
308.15
308.15
308.15
308.15
308.15
308.15
308.15
308.15
308.15
308.15
308.15
308.15
308.15
308.15
308.15
308.15
308.15
308.15
308.15
308.15
308.15
308.15
308.15
308.15
308.15
308.15
308.15
308.15
308.15
308.15
308.15
308.15
308.15
308.15
308.15
308.15
308.15
308.15
308.15
308.15
308.15
308.15
308.15
308.15
308.15
308.15
308.15
308.15
308.15
308.15
308.15
308.15
308.15
308.15
308.15
308.15
308.15
308.15
308.15
308.15
308.15
308.15
308.15
308.15
308.15
308.15
308.15
308.15
308.15
308.15
308.15
308.15
308.15
308.15
308.15
308.15
308.15
308.15
308.15
308.15
308.15
308.15
308.15
308.15
308.15
308.15
308.15
308.15
308.15
308.15
308.15
308.15
308.15
308.15
308.15
308.15
308.15
308.15
308.15
308.15
308.15
308.15
308.15
308.15
308.15
308.15
308.15
308.15
308.15
308.15
308.15
308.15
308.15
308.15
308.15
308.15
308.15
308.15
308.15
308.15
308.15
308.15
308.15
308.15
308.15
308.15
308.15
308.15
308.15
308.15
308.15
308.15
308.15
308.15
308.15
308.15
308.15
308.15
308.15
308.15
308.15
308.15
308.15
308.15
308.15
308.15
308.15
308.15
308.15
308.15
308.15
308.15
308.15
308.15
308.15
308.15
308.15
308.15
308.15
308.15
308.15
308.15
308.15
308.15
308.15
308.15
308.15
308.15
308.15
308.15
308.15
308.15
308.15
308.15
308.15
308.15
308.15
308.15
308.15
308.15
308.15
308.15
308.15
308.15
308.15
308.15
308.15
308.15
308.15
308.15
308.15
308.15
308.15
308.15
308.15
308.15
308.15
308.15
308.15
308.15
308.15
308.15
308.15
308.15
308.15
308.15
308.15
308.15
308.15
308.15
308.15
308.15
308.15
308.15
308.15
308.15
308.15
308.15
308.15
308.15
308.15
308.15
308.15
308.15
308.15
308.15
308.15
308.15
308.15
308.15
308.15
308.15
308.15
308.15
308.15
308.15
308.15
308.15
308.15
308.15
308.15
308.15
308.15
308.15
308.15
308.15
308.15
308.15
308.15
308.15
308.15
308.15
308.15
308.15
308.15
308.15
308.15
308.15
308.15
308.15
308.15
308.15
308.15
308.15
308.15
308.15
308.15
308.15
308.15
308.15
308.15
308.15
308.15
308.15
308.15
308.15
308.15
308.15
308.15
308.15
308.15
308.15
308.15
308.15
308.15
308.15
308.15
308.15
308.15
308.15
308.15
308.15
308.15
308.15
308.15
308.15
308.15
308.15
308.15
308.15
308.15
308.15
308.15
308.15
308.15
308.15
308.15
308.15
308.15
308.15
308.15
308.15
308.15
308.15
308.15
308.15
308.15
308.15
308.15
308.15
308.15
308.15
308.15
308.15
308.15
308.15
308.15
308.15
308.15
308.15
308.15
308.15
308.15
308.15
308.15
308.15
308.15
308.15
308.15
308.15
308.15
308.15
308.15
308.15
308.15
308.15
308.15
308.15
308.15
308.15
308.15
308.15
308.15
308.15
308.15
308.15
308.15
308.15
308.15
308.15
308.15
308.15
308.15
308.15
308.15
308.15
308.15
308.15
308.15
308.15
308.15
308.15
308.15
308.15
308.15
308.15
308.15
308.15
308.15
308.15
308.15
308.15
308.15
308.15
308.15
308.15
308.15
308.15
308.15
308.15
308.15
308.15
308.15
308.15
308.15
308.15
308.15
308.15
308.15
308.15
308.15
308.15
308.15
308.15
308.15
308.15
308.15
308.15
308.15
308.15
308.15
308.15
308.15
308.15
308.15
308.15
308.15
308.15
308.15
308.15
308.15
308.15
308.15
308.15
308.15
308.15
308.15
308.15
308.15
308.15
308.15
308.15
308.15
308.15
308.15
308.15
308.15
308.15
308.15
308.15
308.15
308.15
308.15
308.15
308.15
308.15
308.15
308.15
308.15
308.15
308.15
308.15
308.15
308.15
308.15
308.15
308.15
308.15
308.15
308.15
308.15
308.15
308.15
308.15
308.15
308.15
308.15
308.15
308.15
308.15
308.15
308.15
308.15
308.15
308.15
308.15
308.15
308.15
308.15
308.15
308.15
308.15
308.15
308.15
308.15
308.15
308.15
308.15
308.15
308.15
308.15
308.15
308.15
308.15
308.15
308.15
308.15
308.15
308.15
308.15
308.15
308.15
308.15
308.15
308.15
308.15
308.15
308.15
308.15
308.15
308.15
308.15
308.15
308.15
308.15
308.15
308.15
308.15
308.15
308.15
308.15
308.15
308.15
308.15
308.15
308.15
308.15
308.15
308.15
308.15
308.15
308.15
308.15
308.15
308.15
308.15
308.15
308.15
308.15
308.15
308.15
308.15
308.15
308.15
308.15
308.15
308.15
308.15
308.15
308.15
308.15
308.15
308.15
308.15
308.15
308.15
308.15
308.15
308.15
308.15
308.15
308.15
308.15
308.15
308.15
308.15
308.15
308.15
308.15
308.15
308.15
308.15
308.15
308.15
308.15
308.15
308.15
308.15
308.15
308.15
308.15
308.15
308.15
308.15
308.15
308.15
308.15
308.15
308.15
308.15
308.15
308.15
308.15
308.15
308.15
308.15
308.15
308.15
308.15
308.15
308.15
308.15
308.15
308.15
308.15
308.15
308.15
308.15
308.15
308.15
308.15
308.15
308.15
308.15
308.15
308.15
308.15
308.15
308.15
308.15
308.15
308.15
308.15
308.15
308.15
308.15
308.15
308.15
308.15
308.15
308.15
308.15
308.15
308.15
308.15
308.15
308.15
308.15
308.15
308.15
308.15
308.15
308.15
308.15
308.15
308.15
308.15
308.15
308.15
308.15
308.15
308.15
308.15
308.15
308.15
308.15
308.15
308.15
308.15
308.15
308.15
308.15
308.15
308.15
308.15
308.15
308.15
308.15
308.15
308.15
308.15
308.15
308.15
308.15
308.15
308.15
308.15
308.15
308.15
308.15
308.15
308.15
308.15
308.15
308.15
308.15
308.15
308.15
308.15
308.15
308.15
308.15
308.15
308.15
308.15
308.15
308.15
308.15
308.15
308.15
308.15
308.15
308.15
308.15
308.15
308.15
308.15
308.15
308.15
308.15
308.15
308.15
308.15
308.15
308.15
308.15
308.15
308.15
308.15
308.15
308.15
308.15
308.15
308.15
308.15
308.15
308.15
308.15
308.15
308.15
308.15
308.15
308.15
308.15
308.15
308.15
308.15
308.15
308.15
308.15
308.15
308.15
308.15
308.15
308.15
308.15
308.15
308.15
308.15
308.15
308.15
308.15
308.15
308.15
308.15
308.15
308.15
308.15
308.15
308.15
308.15
308.15
308.15
308.15
308.15
308.15
308.15
308.15
308.15
308.15
308.15
308.15
308.15
308.15
308.15
308.15
308.15
308.15
308.15
308.15
308.15
308.15
308.15
308.15
308.15
308.15
308.15
308.15
308.15
308.15
308.15
308.15
308.15
308.15
308.15
308.15
308.15
308.15
308.15
308.15
308.15
308.15
308.15
308.15
308.15
308.15
308.15
308.15
308.15
308.15
308.15
308.15
308.15
308.15
308.15
308.15
308.15
308.15
308.15
308.15
308.15
308.15
308.15
308.15
308.15
308.15
308.15
308.15
308.15
308.15
308.15
308.15
308.15
308.15
308.15
308.15
308.15
308.15
308.15
308.15
308.15
308.15
308.15
308.15
308.15
308.15
308.15
308.15
308.15
308.15
308.15
308.15
308.15
308.15
308.15
308.15
308.15
308.15
308.15
308.15
308.15
308.15
308.15
308.15
308.15
308.15
308.15
308.15
308.15
308.15
308.15
308.15
308.15
308.15
308.15
308.15
308.15
308.15
308.15
308.15
308.15
308.15
308.15
308.15
308.15
308.15
308.15
308.15
308.15
308.15
308.15
308.15
308.15
308.15
308.15
308.15
308.15
308.15
308.15
308.15
308.15
308.15
308.15
308.15
308.15
308.15
308.15
308.15
308.15
308.15
308.15
308.15
308.15
308.15
308.15
308.15
308.15
308.15
308.15
308.15
308.15
308.15
308.15
308.15
308.15
308.15
308.15
308.15
308.15
308.15
308.15
308.15
308.15
308.15
308.15
308.15
308.15
308.15
308.15
308.15
308.15
308.15
308.15
308.15
308.15
308.15
308.15
308.15
308.15
308.15
308.15
308.15
308.15
308.15
308.15
308.15
308.15
308.15
308.15
308.15
308.15
308.15
308.15
308.15
308.15
308.15
308.15
308.15
308.15
308.15
308.15
308.15
308.15
308.15
308.15
308.15
308.15
308.15
308.15
308.15
308.15
308.15
308.15
308.15
308.15
308.15
308.15
308.15
308.15
308.15
308.15
308.15
308.15
308.15
308.15
308.15
308.15
308.15
308.15
308.15
308.15
308.15
308.15
308.15
308.15
308.15
308.15
308.15
308.15
308.15
308.15
308.15
308.15
308.15
308.15
308.15
308.15
308.15
308.15
308.15
308.15
308.15
308.15
308.15
308.15
308.15
308.15
308.15
308.15
308.15
308.15
308.15
308.15
308.15
308.15
308.15
308.15
308.15
308.15
308.15
308.15
308.15
308.15
308.15
308.15
308.15
308.15
308.15
308.15
308.15
308.15
308.15
308.15
308.15
308.15
308.15
308.15
308.15
308.15
308.15
308.15
308.15
308.15
308.15
308.15
308.15
308.15
308.15
308.15
308.15
308.15
308.15
308.15
308.15
308.15
308.15
308.15
308.15
308.15
308.15
308.15
308.15
308.15
308.15
308.15
308.15
308.15
308.15
308.15
308.15
308.15
308.15
308.15
308.15
308.15
308.15
308.15
308.15
308.15
308.15
308.15
308.15
308.15
308.1499999
308.1499999
308.1499998
308.1499998
308.1499997
308.1499995
308.1499993
308.1499989
308.1499984
308.1499977
308.1499967
308.1499952
308.1499931
308.1499901
308.1499859
308.14998
308.1499718
308.1499603
308.1499444
308.1499224
308.1498921
308.1498507
308.1497943
308.1497178
308.1496145
308.1494758
308.1492904
308.1490438
308.1487175
308.1482879
308.1477252
308.146992
308.1460419
308.1448172
308.1432476
308.1412469
308.1387116
308.1355175
308.1315171
308.1265371
308.1203757
308.1128001
308.1035444
308.0923087
308.0787582
308.0625237
308.0432031
308.0203646
307.9935505
307.9622833
307.926073
307.8844248
307.8368491
307.7828709
307.7220407
307.653944
307.578211
307.4945247
307.4026281
307.3023288
307.1935021
307.076092
306.95011
306.8156317
306.6727928
306.5217824
306.3628365
306.1962299
306.0222692
305.8412843
305.6536217
305.4596375
305.2596913
305.0541413
304.8433396
304.6276291
304.40734
304.1827888
303.9542758
303.7220851
303.4864838
303.2477219
303.0060328
302.7616335
302.5147255
302.2654953
302.0141155
301.7607451
301.5055311
301.2486086
300.9901024
300.7301267
300.4687869
300.2061796
299.9423967
299.6775426
299.4116838
299.1448824
298.8771953
298.608673
298.3393616
298.0693018
297.798534
297.5271254
297.2551497
296.9826621
296.7097034
296.4363079
296.1625072
295.8883301
295.6138025
295.3389491
295.0637928
294.7883555
294.5126573
294.2367174
293.9605538
293.6841833
293.4076217
293.1308841
292.8539845
292.5769361
292.2997515
292.0224424
291.7450202
291.4674952
291.1898776
290.9121769
290.6344019
290.3565613
290.0786631
289.8007151
289.5227243
289.2446975
288.966641
288.6885607
288.410462
288.1323501
287.8542298
287.5761058
287.297984
287.0198707
286.7417704
286.4636874
286.1856256
285.9075888
285.6295808
285.3516052
285.0736651
284.7957639
284.5179046
284.2400903
283.9623236
283.6846074
283.4069441
283.1293364
282.8517865
282.5742968
282.2968694
282.0195066
281.7422101
281.4649822
281.1878245
280.9107388
280.633727
280.3567906
280.0799313
279.8031505
279.5264498
279.2498305
278.9732941
278.6968418
278.420475
278.1441948
277.8680025
277.5918992
277.3158861
277.0399641
276.7641344
276.488398
276.2127558
275.9372088
275.661758
275.3864042
275.1111484
274.8359914
274.560934
274.2859771
274.0111216
273.7363681
273.4617175
273.1871706
272.912728
272.6383906
272.3641591
272.0900342
271.8160167
271.5421072
271.2683064
270.9946151
270.721034
270.4475637
270.174205
269.9009585
269.6278249
269.354805
269.0818994
268.8091087
268.5364337
268.2638752
267.9914337
267.71911
267.4469047
267.1748187
266.9028526
266.6310072
266.3592831
266.0876812
265.8162022
265.5448468
265.2736159
265.0025103
264.7315308
264.4606782
264.1899535
263.9193576
263.6488915
263.3785562
263.1083529
262.8382827
262.5683471
262.2985475
262.0288858
261.7593638
261.4899824
261.2207419
260.9516431
260.6826865
260.4138727
260.1452023
259.8766758
259.6082939
259.3400572
259.0719662
258.8040216
258.5362239
258.2685739
258.0010721
257.7337192
257.4665158
257.1994627
256.9325606
256.6658101
256.3992121
256.1327673
255.8664766
255.6003406
255.3343604
255.0685368
254.8028708
254.5373632
254.2720153
254.0068279
253.7418022
253.4769395
253.2122409
252.9477077
252.6833413
252.419143
252.1551145
251.8912573
251.6275731
251.3640637
251.1007309
250.8375769
250.5746036
250.3118135
250.0492089
249.7867924
249.5245669
249.2625353
249.0007008
248.7390669
248.4776372
248.2164159
247.9554074
247.6946162
247.4340476
247.1737072
246.9136012
246.6537363
246.3941199
246.1347602
245.8756663
245.6168482
245.358317
245.1000851
244.8421666
244.5845769
244.3273335
244.070456
243.8139665
243.5578898
243.3022533
243.0470891
242.7924315
242.5383154
242.2847918
242.0319321
241.779815
241.5285283
241.2781725
241.0288932
240.7808554
240.5342308
240.2892972
240.0463883
239.8059104
239.5683582
239.3343312
239.1045498
238.8798687
238.661285
238.4499378
238.2470942
238.0541198
237.8724292
237.7034163
237.5483665
237.4083574
237.2841591
237.1761475
237.0842453
237.0079032
236.9461268
236.8975483
236.860533
236.8333017
236.814058
236.8010947
236.7928727
236.788078
236.785619
236.7846423
236.7845395
236.78471
236.7854605
236.7871107
236.7890528
236.7903162
236.7911012
236.7915771
236.7918419
236.7919866
236.7920554
236.7920511
236.7919873
236.7918153
236.7915171
236.7912421
236.7910863
236.7910048
236.7909946
236.7910217
236.7910743
236.7911405
236.7912139
236.791295
236.7913875
236.7914964
236.7916388
236.7918296
236.792079
236.7923951
236.7927576
236.7930848
236.7933516
236.7935641
236.7937248
236.7938491
236.7939304
236.7940049
236.7940812
236.794145
236.7941783
236.7941723
236.7941321
236.7940403
236.7938972
236.7937175
236.7935433
236.7933844
236.7932258
236.793062
236.792881
236.7926642
236.7923871
236.7920206
236.7915316
236.7908831
236.7900788
236.7893472
236.7888213
236.7884775
236.7883046
236.788304
236.7883622
236.7884686
236.7886393
236.7889446
236.7894499
236.7902096
236.7911293
236.7918924
236.7924567
236.792865
236.7931496
236.7933475
236.7934793
236.793561
236.7936547
236.7937201
236.7937355
236.7937146
236.7936459
236.7935304
236.7934007
236.7932856
236.7931704
236.7930419
236.7928752
236.7926376
236.7922923
236.7918023
236.7912499
236.7908356
236.7905775
236.7904773
236.7905198
236.790619
236.7907531
236.7909261
236.7911735
236.7915546
236.7921109
236.7927589
236.7932914
236.7937044
236.7940321
236.7943038
236.7945359
236.7947502
236.7949393
236.7951254
236.7952877
236.7954459
236.795609
236.7957725
236.7959254
236.7960683
236.7961906
236.7962815
236.796349
236.7964392
236.7965552
236.7966911
236.796841
236.7970011
236.7971679
236.7973386
236.7975107
236.7976827
236.7978506
236.7980105
236.7981577
236.7982891
236.7984035
236.7985048
236.7986074
236.7987156
236.798828
236.7989367
236.7990265
236.799076
236.7990649
236.7989877
236.7987914
236.7984905
236.7982832
236.7982866
236.7983847
236.7985686
236.7987972
236.7990611
236.7993669
236.7997399
236.8002539
236.8009603
236.8017373
236.8023637
236.8028434
236.8032201
236.8034922
236.8037817
236.8040772
236.8043668
236.8046225
236.8048331
236.8049781
236.8050183
236.804962
236.8047746
236.80447
236.8042598
236.8042746
236.804388
236.8046039
236.8048929
236.805225
236.8055849
236.8059804
236.8064261
236.806932
236.8075194
236.8081892
236.8088314
236.8094288
236.81003
236.8106501
236.8113307
236.8121133
236.8128799
236.8135188
236.8139905
236.8144807
236.8149759
236.8154237
236.8158534
236.8162088
236.8164629
236.8165764
236.8165941
236.8167446
236.8170412
236.8174442
236.8179206
236.8184486
236.8190136
236.8196037
236.8202101
236.8208243
236.8214384
236.8220366
236.8226044
236.8231165
236.823587
236.8241271
236.8247457
236.8254249
236.8261464
236.8268975
236.8276724
236.8284689
236.829284
236.8301108
236.8309394
236.8317447
236.8325215
236.8333243
236.8341896
236.8351064
236.8360594
236.8370394
236.8380409
236.8390513
236.8400582
236.8411372
236.8423054
236.8435524
236.844862
236.8462263
236.8476547
236.8491549
236.8506851
236.8522457
236.8538681
236.8555512
236.857287
236.859093
236.8609893
236.8629938
236.8651348
236.8674447
236.8699546
236.8726239
236.8754078
236.8784103
236.8817624
236.8854607
236.8895525
236.8941978
236.8995925
236.9060304
236.9138841
236.9236536
236.9360139
236.9518539
236.9723573
236.9991048
237.034207
237.0805377
237.1416291
237.2219599
237.3272132
237.464458
237.6424571
237.8719461
238.1659365
238.5400118
239.0126267
239.6053735
240.3431581
241.2543321
242.3707136
243.7273967
245.3623941
247.3160777
249.6303783
252.3479032
255.5107196
259.1588006
263.3284264
268.0502034
273.3473105
279.2337809
285.712847
292.7759364
300.3977403
308.5417504
316.8804418
324.7806044
332.065404
338.7533906
344.8669028
350.4335006
355.4843001
360.0520904
364.1701506
367.8714966
371.1883732
374.1519414
376.7920543
379.137138
381.2140755
383.0481834
384.6631441
386.0810436
387.3223282
388.4059101
389.3490812
390.167753
390.8762749
391.4878085
392.0140581
392.4657203
392.8521996
393.1820345
393.4626554
393.7007697
393.9021619
394.0720244
394.2148055
394.3344725
394.4344105
394.5176097
394.5866149
394.6436404
394.6905702
394.729015
394.7603485
394.7857333
394.8061644
394.8224846
394.8354131
394.8455574
394.8534295
394.8594544
394.8639828
394.8673039
394.8696559
394.8712404
394.8722293
394.8727758
394.8730179
394.8730829
394.8730479
394.8728865
394.8725231
394.8718943
394.8709588
394.8696937
394.8681051
394.8661641
394.8640133
394.8615603
394.8592827
394.857115
394.8551236
394.8532728
394.8515355
394.8498805
394.8483163
394.8467897
394.8453504
394.8438984
394.8425408
394.8411368
394.8398061
394.8384327
394.8370981
394.8357595
394.8343845
394.8330377
394.8316221
394.8302179
394.828768
394.8272695
394.8258242
394.8243802
394.8230878
394.8218538
394.820769
394.8197401
394.8188497
394.8180103
394.8172905
394.8166184
394.8160424
394.8155113
394.8150534
394.8146437
394.8142918
394.8139532
394.8136708
394.8133788
394.8131405
394.8128794
394.8126593
394.8124113
394.8121817
394.8119508
394.8116775
394.8114688
394.8111498
394.8109162
394.8105752
394.8103174
394.8099527
394.8096764
394.8092938
394.8090094
394.8086155
394.8083422
394.8079563
394.8077123
394.8073677
394.8071532
394.8068502
394.8066252
394.8063791
394.8061806
394.805986
394.8058377
394.8056706
394.8055733
394.8054848
394.8054595
394.8054512
394.8054629
394.8054816
394.8055691
394.8056297
394.8057781
394.8058742
394.8060537
394.8061626
394.806342
394.8064435
394.8065976
394.8066768
394.8067955
394.8068497
394.8069284
394.8069549
394.8069901
394.8069925
394.806993
394.8069646
394.8069447
394.8068893
394.8068525
394.8067778
394.806725
394.8066349
394.806569
394.8064664
394.8063842
394.8062692
394.8061773
394.8060627
394.8059588
394.8058369
394.8057312
394.8056014
394.8054977
394.8053618
394.8052545
394.8051134
394.8049989
394.8048523
394.8047229
394.8045677
394.804406
394.8042493
394.8040524
394.8038793
394.8036468
394.8034433
394.8031717
394.8029227
394.8026085
394.8022985
394.8019415
394.8015469
394.8011608
394.8006768
394.8002399
394.7996773
394.799157
394.7985097
394.7978661
394.7971522
394.7963427
394.7955915
394.794684
394.79387
394.7929432
394.7920766
394.7912221
394.7903398
394.789582
394.7888543
394.7882698
394.7877599
394.7873761
394.7870844
394.7868846
394.7867629
394.7866867
394.7866589
394.7866458
394.7866572
394.7866821
394.7867644
394.78686
394.7870523
394.7872387
394.7875505
394.787842
394.788275
394.7886842
394.7892559
394.7897944
394.7905113
394.7911771
394.7920206
394.7927853
394.793704
394.7945376
394.7954933
394.7963805
394.7973447
394.7982847
394.7992241
394.8001208
394.8009221
394.8016723
394.802321
394.8029176
394.8034197
394.8038784
394.8042574
394.8046044
394.8048756
394.8051115
394.805269
394.8053924
394.8054547
394.8054989
394.8055108
394.8055155
394.8055015
394.8054786
394.8054215
394.8053784
394.8052982
394.8052238
394.8050959
394.8049761
394.8048108
394.8046606
394.804493
394.8043267
394.8041517
394.8039758
394.8037877
394.8036058
394.8034119
394.8032229
394.8030226
394.8028108
394.8026051
394.802367
394.802143
394.8018766
394.8016213
394.8013073
394.8010045
394.8006239
394.800258
394.7997992
394.7993637
394.7988307
394.7983253
394.7977234
394.7971466
394.7964837
394.7957954
394.7951253
394.794437
394.7938411
394.7933225
394.7928962
394.7925475
394.7922794
394.792073
394.7919287
394.7918295
394.7917771
394.7917555
394.7917569
394.791773
394.7918264
394.791923
394.7920909
394.7923237
394.7926481
394.7930519
394.793547
394.7941282
394.7947819
394.7955115
394.7963179
394.7971065
394.7980072
394.7988097
394.7996735
394.8004732
394.8011902
394.8019198
394.8025007
394.803142
394.8036296
394.8041927
394.804613
394.8051005
394.8054802
394.805901
394.8062615
394.8066201
394.8069628
394.8072875
394.8075904
394.807904
394.8081718
394.8084705
394.8086891
394.8089495
394.8091231
394.8093329
394.8094617
394.8096178
394.8097059
394.8098108
394.8098601
394.8098807
394.8098712
394.8098461
394.8097859
394.8097047
394.8095807
394.8094284
394.8092367
394.8090068
394.808747
394.808424
394.8081078
394.8077333
394.8073633
394.8070073
394.8066028
394.8062942
394.8059229
394.8056639
394.8053427
394.8051303
394.8048572
394.804695
394.8044727
394.804351
394.8041833
394.8040954
394.8039781
394.8039256
394.8038584
394.8038376
394.8038291
394.8038383
394.8038485
394.8038954
394.8039218
394.8039852
394.8040179
394.8040817
394.804114
394.8041714
394.8042013
394.8042537
394.8042829
394.8043307
394.8043588
394.8044041
394.8044339
394.8044811
394.8045185
394.8045756
394.8046261
394.8046986
394.804767
394.8048557
394.8049384
394.8050354
394.8051323
394.8052331
394.805346
394.8054372
394.8055126
394.8055491
394.8055611
394.8055517
394.805535
394.8054758
394.8054195
394.8052943
394.8051758
394.804961
394.804752
394.8044311
394.8041037
394.8036738
394.8031852
394.8026728
394.8019709
394.801386
394.8005372
394.7998768
394.798943
394.7982589
394.7974223
394.7967955
394.7961942
394.7957278
394.7953365
394.7950111
394.7947662
394.7945624
394.794447
394.7943769
394.7943662
394.794369
394.7944162
394.7944782
394.7946348
394.7948087
394.7951341
394.7954635
394.7959571
394.7964176
394.7970348
394.7975846
394.798265
394.7988818
394.7995552
394.8001605
394.8007446
394.8012348
394.801723
394.802119
394.8025169
394.8028181
394.8031397
394.8033711
394.8036335
394.8038098
394.8040201
394.8041604
394.8043105
394.8044266
394.8045312
394.8046179
394.8046834
394.8047399
394.8047693
394.804787
394.8047883
394.8047875
394.8047658
394.8047395
394.8046682
394.8045985
394.8044722
394.8043648
394.8041982
394.8040559
394.8038504
394.8036722
394.8034264
394.803205
394.8029167
394.802645
394.8023176
394.8019683
394.8016221
394.8012277
394.8008857
394.8004839
394.800126
394.7996954
394.7992821
394.7988205
394.7984082
394.7980714
394.7977968
394.7976166
394.7974917
394.7974346
394.7974035
394.7974039
394.7974109
394.7974589
394.7975217
394.797668
394.7978153
394.7980809
394.798327
394.7987153
394.7990669
394.7995828
394.8000534
394.8007013
394.8013318
394.8020813
394.802869
394.8036015
394.8044215
394.8051374
394.8058133
394.8064204
394.8069621
394.8074433
394.8078673
394.8082334
394.8085548
394.8088336
394.8090792
394.8093013
394.8094885
394.8096706
394.8098233
394.8099812
394.8101092
394.8102593
394.8103737
394.8105205
394.8106347
394.8107954
394.8109184
394.8110498
394.8110904
394.811088
394.8110654
394.8110301
394.8108578
394.8107536
394.8105641
394.8103283
394.8101177
394.8098152
394.8095498
394.809196
394.8088374
394.8083946
394.8078421
394.8073317
394.806594
394.8059644
394.805077
394.8043367
394.8033566
394.8025555
394.8015953
394.80081
394.8000008
394.799364
394.7988192
394.7983871