/*--------------------------------*- C++ -*----------------------------------*\
| =========                 |                                                 |
| \\      /  F ield         | OpenFOAM: The Open Source CFD Toolbox           |
|  \\    /   O peration     | Version:  2012                                  |
|   \\  /    A nd           | Website:  www.openfoam.com                      |
|    \\/     M anipulation  |                                                 |
\*---------------------------------------------------------------------------*/
FoamFile
{
    version     2.0;
    format      ascii;
    class       volScalarField;
    location    "0.002";
    object      T;
}
// * * * * * * * * * * * * * * * * * * * * * * * * * * * * * * * * * * * * * //

dimensions      [0 0 0 1 0 0 0];


internalField   nonuniform List<scalar> 
5000
(
308.15
308.15
308.15
308.15
308.15
308.15
308.15
308.15
308.15
308.15
308.15
308.15
308.15
308.15
308.15
308.15
308.15
308.15
308.15
308.15
308.15
308.15
308.15
308.15
308.15
308.15
308.15
308.15
308.15
308.15
308.15
308.15
308.15
308.15
308.15
308.15
308.15
308.15
308.15
308.15
308.15
308.15
308.15
308.15
308.15
308.15
308.15
308.15
308.15
308.15
308.15
308.15
308.15
308.15
308.15
308.15
308.15
308.15
308.15
308.15
308.15
308.15
308.15
308.15
308.15
308.15
308.15
308.15
308.15
308.15
308.15
308.15
308.15
308.15
308.15
308.15
308.15
308.15
308.15
308.15
308.15
308.15
308.15
308.15
308.15
308.15
308.15
308.15
308.15
308.15
308.15
308.15
308.15
308.15
308.15
308.15
308.15
308.15
308.15
308.15
308.15
308.15
308.15
308.15
308.15
308.15
308.15
308.15
308.15
308.15
308.15
308.15
308.15
308.15
308.15
308.15
308.15
308.15
308.15
308.15
308.15
308.15
308.15
308.15
308.15
308.15
308.15
308.15
308.15
308.15
308.15
308.15
308.15
308.15
308.15
308.15
308.15
308.15
308.15
308.15
308.15
308.15
308.15
308.15
308.15
308.15
308.15
308.15
308.15
308.15
308.15
308.15
308.15
308.15
308.15
308.15
308.15
308.15
308.15
308.15
308.15
308.15
308.15
308.15
308.15
308.15
308.15
308.15
308.15
308.15
308.15
308.15
308.15
308.15
308.15
308.15
308.15
308.15
308.15
308.15
308.15
308.15
308.15
308.15
308.15
308.15
308.15
308.15
308.15
308.15
308.15
308.15
308.15
308.15
308.15
308.15
308.15
308.15
308.15
308.15
308.15
308.15
308.15
308.15
308.15
308.15
308.15
308.15
308.15
308.15
308.15
308.15
308.15
308.15
308.15
308.15
308.15
308.15
308.15
308.15
308.15
308.15
308.15
308.15
308.15
308.15
308.15
308.15
308.15
308.15
308.15
308.15
308.15
308.15
308.15
308.15
308.15
308.15
308.15
308.15
308.15
308.15
308.15
308.15
308.15
308.15
308.15
308.15
308.15
308.15
308.15
308.15
308.15
308.15
308.15
308.15
308.15
308.15
308.15
308.15
308.15
308.15
308.15
308.15
308.15
308.15
308.15
308.15
308.15
308.15
308.15
308.15
308.15
308.15
308.15
308.15
308.15
308.15
308.15
308.15
308.15
308.15
308.15
308.15
308.15
308.15
308.15
308.15
308.15
308.15
308.15
308.15
308.15
308.15
308.15
308.15
308.15
308.15
308.15
308.15
308.15
308.15
308.15
308.15
308.15
308.15
308.15
308.15
308.15
308.15
308.15
308.15
308.15
308.15
308.15
308.15
308.15
308.15
308.15
308.15
308.15
308.15
308.15
308.15
308.15
308.15
308.15
308.15
308.15
308.15
308.15
308.15
308.15
308.15
308.15
308.15
308.15
308.15
308.15
308.15
308.15
308.15
308.15
308.15
308.15
308.15
308.15
308.15
308.15
308.15
308.15
308.15
308.15
308.15
308.15
308.15
308.15
308.15
308.15
308.15
308.15
308.15
308.15
308.15
308.15
308.15
308.15
308.15
308.15
308.15
308.15
308.15
308.15
308.15
308.15
308.15
308.15
308.15
308.15
308.15
308.15
308.15
308.15
308.15
308.15
308.15
308.15
308.15
308.15
308.15
308.15
308.15
308.15
308.15
308.15
308.15
308.15
308.15
308.15
308.15
308.15
308.15
308.15
308.15
308.15
308.15
308.15
308.15
308.15
308.15
308.15
308.15
308.15
308.15
308.15
308.15
308.15
308.15
308.15
308.15
308.15
308.15
308.15
308.15
308.15
308.15
308.15
308.15
308.15
308.15
308.15
308.15
308.15
308.15
308.15
308.15
308.15
308.15
308.15
308.15
308.15
308.15
308.15
308.15
308.15
308.15
308.15
308.15
308.15
308.15
308.15
308.15
308.15
308.15
308.15
308.15
308.15
308.15
308.15
308.15
308.15
308.15
308.15
308.15
308.15
308.15
308.15
308.15
308.15
308.15
308.15
308.15
308.15
308.15
308.15
308.15
308.15
308.15
308.15
308.15
308.15
308.15
308.15
308.15
308.15
308.15
308.15
308.15
308.15
308.15
308.15
308.15
308.15
308.15
308.15
308.15
308.15
308.15
308.15
308.15
308.15
308.15
308.15
308.15
308.15
308.15
308.15
308.15
308.15
308.15
308.15
308.15
308.15
308.15
308.15
308.15
308.15
308.15
308.15
308.15
308.15
308.15
308.15
308.15
308.15
308.15
308.15
308.15
308.15
308.15
308.15
308.15
308.15
308.15
308.15
308.15
308.15
308.15
308.15
308.15
308.15
308.15
308.15
308.15
308.15
308.15
308.15
308.15
308.15
308.15
308.15
308.15
308.15
308.15
308.15
308.15
308.15
308.15
308.15
308.15
308.15
308.15
308.15
308.15
308.15
308.15
308.15
308.15
308.15
308.15
308.15
308.15
308.15
308.15
308.15
308.15
308.15
308.15
308.15
308.15
308.15
308.15
308.15
308.15
308.15
308.15
308.15
308.15
308.15
308.15
308.15
308.15
308.15
308.15
308.15
308.15
308.15
308.15
308.15
308.15
308.15
308.15
308.15
308.15
308.15
308.15
308.15
308.15
308.15
308.15
308.15
308.15
308.15
308.15
308.15
308.15
308.15
308.15
308.15
308.15
308.15
308.15
308.15
308.15
308.15
308.15
308.15
308.15
308.15
308.15
308.15
308.15
308.15
308.15
308.15
308.15
308.15
308.15
308.15
308.15
308.15
308.15
308.15
308.15
308.15
308.15
308.15
308.15
308.15
308.15
308.15
308.15
308.15
308.15
308.15
308.15
308.15
308.15
308.15
308.15
308.15
308.15
308.15
308.15
308.15
308.15
308.15
308.15
308.15
308.15
308.15
308.15
308.15
308.15
308.15
308.15
308.15
308.15
308.15
308.15
308.15
308.15
308.15
308.15
308.15
308.15
308.15
308.15
308.15
308.15
308.15
308.15
308.15
308.15
308.15
308.15
308.15
308.15
308.15
308.15
308.15
308.15
308.15
308.15
308.15
308.15
308.15
308.15
308.15
308.15
308.15
308.15
308.15
308.15
308.15
308.15
308.15
308.15
308.15
308.15
308.15
308.15
308.15
308.15
308.15
308.15
308.15
308.15
308.15
308.15
308.15
308.15
308.15
308.15
308.15
308.15
308.15
308.15
308.15
308.15
308.15
308.15
308.15
308.15
308.15
308.15
308.15
308.15
308.15
308.15
308.15
308.15
308.15
308.15
308.15
308.15
308.15
308.15
308.15
308.15
308.15
308.15
308.15
308.15
308.15
308.15
308.15
308.15
308.15
308.15
308.15
308.15
308.15
308.15
308.15
308.15
308.15
308.15
308.15
308.15
308.15
308.15
308.15
308.15
308.15
308.15
308.15
308.15
308.15
308.15
308.15
308.15
308.15
308.15
308.15
308.15
308.15
308.15
308.15
308.15
308.15
308.15
308.15
308.15
308.15
308.15
308.15
308.15
308.15
308.15
308.15
308.15
308.15
308.15
308.15
308.15
308.15
308.15
308.15
308.15
308.15
308.15
308.15
308.15
308.15
308.15
308.15
308.15
308.15
308.15
308.15
308.15
308.15
308.15
308.15
308.15
308.15
308.15
308.15
308.15
308.15
308.15
308.15
308.15
308.15
308.15
308.15
308.15
308.15
308.15
308.15
308.15
308.15
308.15
308.15
308.15
308.15
308.15
308.15
308.15
308.15
308.15
308.15
308.15
308.15
308.15
308.15
308.15
308.15
308.15
308.15
308.15
308.15
308.15
308.15
308.15
308.15
308.15
308.15
308.15
308.15
308.15
308.15
308.15
308.15
308.15
308.15
308.15
308.15
308.15
308.15
308.15
308.15
308.15
308.15
308.15
308.15
308.15
308.15
308.15
308.15
308.15
308.15
308.15
308.15
308.15
308.15
308.15
308.15
308.15
308.15
308.15
308.15
308.15
308.15
308.15
308.15
308.15
308.15
308.15
308.15
308.15
308.15
308.15
308.15
308.15
308.15
308.15
308.15
308.15
308.15
308.15
308.15
308.15
308.15
308.15
308.15
308.15
308.15
308.15
308.15
308.15
308.15
308.15
308.15
308.15
308.15
308.15
308.15
308.15
308.15
308.15
308.15
308.15
308.15
308.15
308.15
308.15
308.15
308.15
308.15
308.15
308.15
308.15
308.15
308.15
308.15
308.15
308.15
308.15
308.15
308.15
308.15
308.15
308.15
308.15
308.15
308.15
308.15
308.15
308.15
308.15
308.15
308.15
308.15
308.15
308.15
308.15
308.15
308.15
308.15
308.15
308.15
308.15
308.15
308.15
308.15
308.15
308.15
308.15
308.15
308.15
308.15
308.15
308.15
308.15
308.15
308.15
308.15
308.15
308.15
308.15
308.15
308.15
308.15
308.15
308.15
308.15
308.15
308.15
308.15
308.15
308.15
308.15
308.15
308.15
308.15
308.15
308.15
308.15
308.15
308.15
308.15
308.15
308.15
308.15
308.15
308.15
308.15
308.15
308.15
308.15
308.15
308.15
308.15
308.15
308.15
308.15
308.15
308.15
308.15
308.15
308.15
308.15
308.15
308.15
308.15
308.15
308.15
308.15
308.15
308.15
308.15
308.15
308.15
308.15
308.15
308.15
308.15
308.15
308.15
308.15
308.15
308.15
308.15
308.15
308.15
308.15
308.15
308.15
308.15
308.15
308.15
308.15
308.15
308.15
308.15
308.15
308.15
308.15
308.15
308.15
308.15
308.15
308.15
308.15
308.15
308.15
308.15
308.15
308.15
308.15
308.15
308.15
308.15
308.15
308.15
308.15
308.15
308.15
308.15
308.15
308.15
308.15
308.15
308.15
308.15
308.15
308.15
308.15
308.15
308.15
308.15
308.15
308.15
308.15
308.15
308.15
308.15
308.15
308.15
308.15
308.15
308.15
308.15
308.15
308.15
308.15
308.15
308.15
308.15
308.15
308.15
308.15
308.15
308.15
308.15
308.15
308.15
308.15
308.15
308.15
308.15
308.15
308.15
308.15
308.15
308.15
308.15
308.15
308.15
308.15
308.15
308.15
308.15
308.15
308.15
308.15
308.15
308.15
308.15
308.15
308.15
308.15
308.15
308.15
308.15
308.15
308.15
308.15
308.15
308.15
308.15
308.15
308.15
308.15
308.15
308.15
308.15
308.15
308.15
308.15
308.15
308.15
308.15
308.15
308.15
308.15
308.15
308.15
308.15
308.15
308.15
308.15
308.15
308.15
308.15
308.15
308.15
308.15
308.15
308.15
308.15
308.15
308.15
308.15
308.15
308.15
308.15
308.15
308.15
308.15
308.15
308.15
308.15
308.15
308.15
308.15
308.15
308.15
308.15
308.15
308.15
308.15
308.15
308.15
308.15
308.15
308.15
308.15
308.15
308.15
308.15
308.15
308.15
308.15
308.15
308.15
308.15
308.15
308.15
308.15
308.15
308.15
308.15
308.15
308.15
308.15
308.15
308.15
308.15
308.15
308.15
308.15
308.15
308.15
308.15
308.15
308.15
308.15
308.15
308.15
308.15
308.15
308.15
308.15
308.15
308.15
308.15
308.15
308.15
308.15
308.15
308.15
308.15
308.15
308.15
308.15
308.15
308.15
308.15
308.15
308.15
308.15
308.15
308.15
308.15
308.15
308.15
308.15
308.15
308.15
308.15
308.15
308.15
308.15
308.15
308.15
308.15
308.15
308.15
308.15
308.15
308.15
308.15
308.15
308.15
308.15
308.15
308.15
308.15
308.15
308.15
308.15
308.15
308.15
308.15
308.15
308.15
308.15
308.15
308.15
308.15
308.15
308.15
308.15
308.15
308.15
308.15
308.15
308.15
308.15
308.15
308.15
308.15
308.15
308.15
308.15
308.15
308.15
308.15
308.15
308.15
308.15
308.15
308.15
308.15
308.15
308.15
308.15
308.15
308.15
308.15
308.15
308.15
308.15
308.15
308.15
308.15
308.15
308.15
308.15
308.15
308.15
308.15
308.15
308.15
308.15
308.15
308.15
308.15
308.15
308.15
308.15
308.15
308.15
308.15
308.15
308.15
308.15
308.15
308.15
308.15
308.15
308.15
308.15
308.15
308.15
308.15
308.15
308.15
308.15
308.15
308.15
308.15
308.15
308.15
308.15
308.15
308.15
308.15
308.15
308.15
308.15
308.15
308.15
308.15
308.15
308.15
308.15
308.15
308.15
308.15
308.15
308.15
308.15
308.15
308.15
308.15
308.15
308.15
308.15
308.15
308.15
308.15
308.15
308.15
308.15
308.15
308.15
308.15
308.15
308.15
308.15
308.15
308.15
308.15
308.15
308.15
308.15
308.15
308.15
308.15
308.15
308.15
308.15
308.15
308.15
308.15
308.15
308.15
308.15
308.15
308.15
308.15
308.15
308.15
308.15
308.15
308.15
308.15
308.15
308.15
308.15
308.15
308.15
308.15
308.15
308.15
308.15
308.15
308.15
308.15
308.15
308.15
308.15
308.15
308.15
308.15
308.15
308.15
308.15
308.15
308.15
308.15
308.15
308.15
308.15
308.15
308.15
308.15
308.15
308.15
308.15
308.15
308.15
308.15
308.15
308.15
308.15
308.15
308.15
308.15
308.15
308.15
308.15
308.15
308.15
308.15
308.15
308.15
308.15
308.15
308.15
308.15
308.15
308.15
308.15
308.15
308.15
308.15
308.15
308.15
308.15
308.15
308.15
308.15
308.15
308.15
308.15
308.15
308.15
308.15
308.15
308.15
308.15
308.15
308.15
308.15
308.15
308.15
308.15
308.15
308.15
308.15
308.15
308.15
308.15
308.15
308.15
308.15
308.15
308.15
308.15
308.15
308.15
308.15
308.15
308.15
308.15
308.15
308.15
308.15
308.15
308.15
308.15
308.15
308.15
308.15
308.15
308.15
308.15
308.15
308.15
308.15
308.15
308.15
308.15
308.15
308.15
308.15
308.15
308.15
308.15
308.15
308.15
308.15
308.15
308.15
308.15
308.15
308.15
308.15
308.15
308.15
308.15
308.15
308.15
308.15
308.15
308.15
308.15
308.15
308.15
308.15
308.15
308.15
308.15
308.15
308.15
308.15
308.15
308.15
308.15
308.15
308.15
308.15
308.15
308.15
308.15
308.15
308.15
308.15
308.15
308.15
308.15
308.15
308.15
308.15
308.15
308.15
308.15
308.15
308.15
308.15
308.15
308.15
308.15
308.15
308.15
308.15
308.15
308.15
308.15
308.15
308.15
308.15
308.15
308.15
308.15
308.15
308.15
308.15
308.15
308.15
308.15
308.15
308.15
308.15
308.15
308.15
308.15
308.15
308.15
308.15
308.15
308.15
308.15
308.15
308.15
308.15
308.15
308.15
308.15
308.15
308.15
308.15
308.15
308.15
308.15
308.15
308.15
308.15
308.15
308.15
308.15
308.15
308.15
308.15
308.15
308.15
308.15
308.15
308.15
308.15
308.15
308.15
308.15
308.15
308.15
308.15
308.15
308.15
308.15
308.15
308.15
308.15
308.15
308.15
308.15
308.15
308.15
308.15
308.15
308.15
308.15
308.15
308.15
308.15
308.15
308.15
308.15
308.15
308.15
308.15
308.15
308.15
308.15
308.15
308.15
308.15
308.15
308.15
308.15
308.15
308.15
308.15
308.15
308.15
308.15
308.15
308.15
308.15
308.15
308.15
308.15
308.15
308.15
308.15
308.15
308.15
308.15
308.15
308.15
308.15
308.15
308.15
308.15
308.15
308.15
308.15
308.15
308.15
308.15
308.15
308.15
308.15
308.15
308.15
308.15
308.15
308.15
308.15
308.15
308.15
308.15
308.15
308.15
308.15
308.15
308.15
308.15
308.15
308.15
308.15
308.15
308.15
308.15
308.15
308.15
308.15
308.15
308.15
308.15
308.15
308.15
308.15
308.15
308.15
308.15
308.15
308.15
308.15
308.15
308.15
308.15
308.15
308.15
308.15
308.15
308.15
308.15
308.15
308.15
308.15
308.15
308.15
308.15
308.15
308.15
308.15
308.15
308.15
308.15
308.15
308.15
308.15
308.15
308.15
308.15
308.15
308.15
308.15
308.15
308.15
308.15
308.15
308.15
308.15
308.15
308.15
308.15
308.15
308.15
308.15
308.15
308.15
308.15
308.15
308.15
308.15
308.15
308.15
308.15
308.15
308.15
308.15
308.15
308.15
308.15
308.15
308.15
308.15
308.15
308.15
308.15
308.15
308.15
308.15
308.15
308.15
308.15
308.15
308.15
308.15
308.15
308.15
308.15
308.15
308.15
308.15
308.15
308.15
308.15
308.15
308.15
308.15
308.15
308.15
308.15
308.15
308.15
308.15
308.15
308.15
308.15
308.15
308.15
308.15
308.15
308.15
308.15
308.15
308.15
308.15
308.15
308.15
308.15
308.15
308.15
308.15
308.15
308.15
308.15
308.15
308.15
308.15
308.15
308.15
308.15
308.15
308.15
308.15
308.15
308.15
308.15
308.15
308.15
308.15
308.15
308.15
308.15
308.15
308.15
308.15
308.15
308.15
308.15
308.15
308.15
308.15
308.15
308.15
308.15
308.15
308.15
308.15
308.15
308.15
308.15
308.15
308.15
308.15
308.15
308.15
308.15
308.15
308.15
308.15
308.15
308.15
308.15
308.15
308.15
308.15
308.15
308.15
308.15
308.15
308.15
308.15
308.15
308.15
308.15
308.15
308.15
308.15
308.15
308.15
308.15
308.15
308.15
308.15
308.15
308.15
308.15
308.15
308.15
308.15
308.15
308.15
308.15
308.15
308.15
308.15
308.15
308.15
308.15
308.15
308.15
308.15
308.15
308.15
308.15
308.15
308.15
308.15
308.15
308.15
308.15
308.15
308.15
308.15
308.15
308.15
308.15
308.15
308.15
308.15
308.15
308.15
308.15
308.15
308.15
308.15
308.15
308.15
308.15
308.15
308.15
308.15
308.15
308.15
308.15
308.15
308.15
308.15
308.15
308.15
308.15
308.15
308.15
308.15
308.15
308.15
308.15
308.15
308.15
308.15
308.15
308.15
308.15
308.15
308.15
308.15
308.15
308.15
308.15
308.15
308.15
308.15
308.15
308.15
308.15
308.15
308.15
308.15
308.15
308.15
308.15
308.15
308.1499999
308.1499999
308.1499998
308.1499998
308.1499997
308.1499995
308.1499993
308.1499989
308.1499984
308.1499977
308.1499967
308.1499952
308.1499931
308.1499901
308.1499859
308.14998
308.1499718
308.1499603
308.1499444
308.1499223
308.1498921
308.1498506
308.1497942
308.1497176
308.1496143
308.1494755
308.1492901
308.1490434
308.1487169
308.1482871
308.1477242
308.1469907
308.1460403
308.1448152
308.143245
308.1412438
308.1387077
308.1355126
308.1315112
308.1265299
308.120367
308.1127896
308.1035319
308.092294
308.0787409
308.0625036
308.0431799
308.0203379
307.99352
307.9622489
307.9260344
307.8843818
307.8368015
307.7828188
307.721984
307.6538827
307.5781453
307.4944548
307.4025542
307.3022512
307.1934211
307.0760081
306.9500234
306.815543
306.6727024
306.5216907
306.3627438
306.1961368
306.0221759
305.8411912
305.653529
305.4595455
305.2596002
305.0540513
304.843251
304.6275418
304.4072542
304.1827045
303.9541931
303.7220041
303.4864044
303.2476441
303.0059566
302.761559
302.5146525
302.2654239
302.0140455
301.7606767
301.5054641
301.2485431
300.9900382
300.7300639
300.4687254
300.2061194
299.9423378
299.6774849
299.4116272
299.1448269
298.877141
298.6086198
298.3393094
298.0692506
297.7984837
297.527076
297.2551011
296.9826142
296.7096562
296.4362613
296.1624612
295.8882847
295.6137576
295.3389047
295.0637489
294.788312
294.5126143
294.2366749
293.9605117
293.6841417
293.4075806
293.1308434
292.8539442
292.5768962
292.299712
292.0224035
291.7449816
291.4674572
291.18984
290.9121397
290.6343652
290.3565251
290.0786274
289.8006797
289.5226894
289.2446631
288.9666072
288.6885273
288.4104291
288.1323176
287.8541979
287.5760743
287.297953
287.0198403
286.7417405
286.4636579
286.1855966
285.9075604
285.629553
285.3515778
285.0736383
284.7957377
284.5178789
284.2400651
283.962299
283.6845833
283.4069206
283.1293134
282.8517641
282.5742749
282.2968481
282.0194858
281.7421899
281.4649625
281.1878054
280.9107203
280.6337091
280.3567733
280.0799146
279.8031344
279.5264343
279.2498157
278.97328
278.6968284
278.4204622
278.1441828
277.8679912
277.5918886
277.3158762
277.039955
276.764126
276.4883904
276.2127489
275.9372027
275.6617527
275.3863997
275.1111446
274.8359884
274.5609318
274.2859757
274.0111209
273.7363682
273.4617183
273.1871721
272.9127304
272.6383937
272.3641629
272.0900388
271.816022
271.5421132
271.2683132
270.9946227
270.7210423
270.4475728
270.1742148
269.9009691
269.6278363
269.3548172
269.0819123
268.8091225
268.5364483
268.2638906
267.9914499
267.7191271
267.4469227
267.1748375
266.9028723
266.6310277
266.3593046
266.0877035
265.8162254
265.544871
265.273641
265.0025363
264.7315577
264.460706
264.1899823
263.9193873
263.6489221
263.3785878
263.1083854
262.8383162
262.5683816
262.298583
262.0289223
261.7594013
261.4900209
261.2207814
260.9516836
260.682728
260.4139153
260.1452459
259.8767205
259.6083396
259.3401039
259.072014
258.8040705
258.5362739
258.2686249
258.0011242
257.7337723
257.46657
257.199518
256.9326169
256.6658675
256.3992705
256.1328268
255.866537
255.6004021
255.3344229
255.0686003
254.8029352
254.5374287
254.2720817
254.0068953
253.7418706
253.4770088
253.2123111
252.9477788
252.6834133
252.419216
252.1551883
251.891332
251.6276486
251.36414
251.100808
250.8376547
250.5746822
250.3118927
250.0492888
249.7868729
249.524648
249.2626169
249.0007829
248.7391494
248.4777202
248.2164992
247.9554909
247.6946999
247.4341315
247.1737912
246.9136851
246.6538201
246.3942035
246.1348436
245.8757493
245.6169307
245.3583989
245.1001665
244.8422472
244.5846568
244.3274125
244.0705341
243.8140436
243.5579658
243.3023282
243.0471628
242.792504
242.5383866
242.2848617
242.0320006
241.779882
241.5285936
241.2782361
241.0289548
240.7809147
240.5342874
240.2893504
240.0464373
239.8059541
239.5683953
239.3343599
239.1045682
238.8798744
238.6612758
238.449911
238.2470475
238.0540512
237.8723375
237.7033012
237.5482286
237.4081987
237.2839828
237.1759576
237.0840461
237.0076991
236.9459212
236.8973434
236.860329
236.8330967
236.8138487
236.800876
236.7926392
236.7878248
236.7853426
236.784343
236.7842188
236.7843705
236.7850675
236.7866214
236.7884746
236.7896926
236.7904565
236.7909328
236.7912242
236.7913928
236.7914933
236.7915504
236.7916105
236.7916734
236.791741
236.7918188
236.791911
236.7920281
236.7921977
236.7924465
236.7927962
236.7931928
236.7935132
236.7937525
236.7939251
236.7940514
236.7941316
236.7941868
236.7942412
236.7942644
236.7942436
236.7941659
236.7940064
236.7937435
236.7933634
236.7928588
236.7922222
236.7914428
236.7906129
236.7899117
236.7893645
236.7889754
236.7887382
236.7886456
236.7886757
236.788744
236.7888487
236.7890178
236.7893157
236.7897949
236.7904861
236.7912243
236.7917843
236.7921931
236.7924826
236.7926754
236.792803
236.7928763
236.7929434
236.792956
236.7929269
236.7928349
236.7927092
236.7926354
236.7926259
236.7926499
236.7926988
236.7927646
236.792842
236.792927
236.793017
236.7931098
236.793204
236.7932986
236.7933918
236.7934801
236.793559
236.7936234
236.793663
236.7936663
236.7936358
236.7935481
236.7933904
236.7932324
236.7931582
236.7931752
236.7932327
236.7933253
236.7934397
236.7935678
236.7937105
236.7938737
236.7940673
236.794316
236.7945738
236.7947704
236.794899
236.7950305
236.7951627
236.7952771
236.7953428
236.7953338
236.7952537
236.7950469
236.794677
236.7942114
236.7938659
236.7936675
236.7936117
236.7936603
236.7937653
236.7939028
236.7940549
236.7942214
236.7944064
236.7946142
236.7948441
236.7950615
236.7952372
236.7954224
236.795609
236.7957843
236.7959574
236.7961275
236.7962857
236.7964211
236.7965238
236.7965792
236.7965753
236.796526
236.7965037
236.796559
236.7966747
236.7968335
236.7970195
236.7972208
236.7974411
236.797685
236.7979526
236.798206
236.7984127
236.7986299
236.7988454
236.7990296
236.7991416
236.7991352
236.799015
236.7986839
236.7980743
236.7971981
236.7964359
236.7959754
236.7957686
236.7958203
236.7959705
236.7961907
236.7964506
236.7967524
236.7971025
236.7975203
236.7980695
236.7987868
236.7996706
236.8006804
236.8016992
236.8026848
236.8036782
236.8047052
236.805819
236.8069938
236.8080446
236.8089032
236.8095448
236.8100087
236.8103064
236.8105891
236.8107087
236.8106441
236.8103271
236.8095754
236.8084187
236.8075015
236.8071112
236.8072026
236.8074663
236.8078394
236.8083133
236.8088923
236.809639
236.8105081
236.8112124
236.8116592
236.8120636
236.8124532
236.812719
236.8127393
236.8125493
236.8122972
236.8124159
236.8127155
236.8131489
236.8136672
236.8142435
236.814885
236.8156068
236.8164232
236.8173644
236.8184833
236.8197702
236.8211866
236.8226707
236.8241246
236.8254452
236.8266021
236.8274393
236.8281656
236.8289426
236.829701
236.8302684
236.8305007
236.8303704
236.8300921
236.8302888
236.8307725
236.8314805
236.8323541
236.8333428
236.8344396
236.8356512
236.8370036
236.8385137
236.8400223
236.8413127
236.8426725
236.8440307
236.8453577
236.846722
236.8481072
236.8494816
236.8507715
236.8519288
236.8529527
236.8540749
236.8554216
236.8569856
236.8587417
236.8606589
236.8627224
236.8649739
236.8674792
236.8702255
236.8729626
236.875813
236.8790027
236.8825006
236.8862819
236.8904853
236.8955171
236.9018261
236.9096441
236.919408
236.931878
236.948094
236.9693798
236.9970401
237.0329113
237.0799142
237.141464
237.2220793
237.327524
237.4647622
237.6424545
237.8715363
238.1651732
238.5388776
239.0111203
239.6034882
240.3408644
241.2515711
242.3674097
243.7234596
245.3577141
247.3105232
249.6237996
252.3402001
255.5017959
259.1485924
263.316844
268.0371787
273.332758
279.2176944
285.6952142
292.7567434
300.3770401
308.519774
316.8582667
324.7596364
332.0456269
338.7348146
344.8495209
350.4172947
355.4692418
360.0381432
364.1572691
367.859626
371.1774591
374.1419225
376.7828791
379.1287448
381.2064185
383.0412024
384.6567997
386.0752844
387.3171476
388.4012474
389.3449607
390.1640659
390.8730787
391.4849708
392.011676
392.463636
392.8505275
393.1805938
393.4615789
393.69986
393.9015669
394.0715448
394.2145977
394.3343486
394.434524
394.5177903
394.5870047
394.6440917
394.6912028
394.7297009
394.7611639
394.7865974
394.8071049
394.8234637
394.8364106
394.8465806
394.854449
394.8605331
394.8651023
394.8685544
394.8710018
394.8727366
394.8737918
394.8744004
394.8746231
394.8746764
394.8746003
394.8744002
394.8739276
394.8732312
394.8721014
394.8707102
394.8687179
394.8666408
394.8641092
394.8618882
394.8593627
394.8571177
394.8548525
394.8527692
394.850877
394.8489793
394.8472869
394.8455076
394.8439511
394.8422261
394.8407478
394.8390512
394.8375872
394.8359227
394.8344249
394.8328108
394.8312443
394.8296766
394.8280625
394.8265532
394.8249463
394.8235089
394.8219684
394.8206331
394.8192015
394.8179979
394.8167224
394.8156963
394.8146386
394.8138199
394.8129719
394.8123446
394.8116759
394.8112027
394.8106813
394.8103297
394.8099292
394.809671
394.8093674
394.8091836
394.8089661
394.8088471
394.8087081
394.8086419
394.8085662
394.8085376
394.8085106
394.8085081
394.8085094
394.8085266
394.8085392
394.8085653
394.8085827
394.8085992
394.8086093
394.8086132
394.8086095
394.8085914
394.8085592
394.8085021
394.8084358
394.8083309
394.8082346
394.8080895
394.8079588
394.8077711
394.8076021
394.8073709
394.8071525
394.806886
394.8066141
394.8063162
394.8059961
394.805662
394.8052919
394.8049121
394.8045005
394.8040424
394.8035953
394.8030571
394.8025581
394.8019516
394.8013834
394.8007174
394.8000603
394.7993389
394.7985646
394.7978198
394.7969151
394.7961189
394.7951382
394.7942824
394.7932473
394.7923352
394.7912654
394.7903101
394.789248
394.7882585
394.7872447
394.7862413
394.785351
394.7845266
394.7838282
394.7832111
394.7826948
394.7822584
394.7818997
394.7816156
394.7813968
394.7812336
394.7811309
394.7810638
394.7810455
394.7810399
394.7810718
394.7811226
394.7812712
394.781449
394.7818005
394.7821262
394.7826478
394.7830992
394.7837613
394.7843161
394.7850845
394.785718
394.7865433
394.7872122
394.7880272
394.7886773
394.7894099
394.7899913
394.7905923
394.7910716
394.7915396
394.7919202
394.7922882
394.7925952
394.7928837
394.7931338
394.7933699
394.7935915
394.793796
394.794008
394.7941855
394.7943924
394.7945596
394.7947516
394.7949307
394.7951064
394.7953065
394.7954791
394.7957035
394.7958848
394.7961267
394.7963211
394.7965983
394.796807
394.7971292
394.7973404
394.7976892
394.7979685
394.7982652
394.7986136
394.7989027
394.7992917
394.7995686
394.7999578
394.8002402
394.8006664
394.8009823
394.8014305
394.8017511
394.8021925
394.8025054
394.8029409
394.803249
394.8036783
394.8039778
394.8043876
394.8046685
394.8050457
394.8052991
394.8056351
394.8058553
394.8061464
394.8063311
394.8065742
394.8067202
394.8069069
394.80701
394.8071308
394.8071836
394.8072056
394.8071937
394.8071658
394.8070943
394.8070101
394.8068749
394.8067294
394.8065098
394.806314
394.8060349
394.8057755
394.8054575
394.8051303
394.8048055
394.8044204
394.8041006
394.8037424
394.8034304
394.8031332
394.8028278
394.8025878
394.8022758
394.8020753
394.8017707
394.8016085
394.8013469
394.8012343
394.8010728
394.8010263
394.800992
394.8010019
394.8010207
394.8011129
394.8011799
394.801356
394.8014639
394.8016869
394.8018342
394.8020951
394.8022613
394.8025354
394.8027084
394.8029745
394.8031456
394.8033998
394.8035735
394.8038122
394.8039946
394.8042066
394.8043974
394.8045891
394.8048173
394.8049869
394.8052292
394.8053949
394.8056303
394.8057829
394.8059878
394.8061114
394.8062698
394.8063792
394.8065009
394.8065433
394.8065785
394.8065707
394.8065314
394.8064035
394.8061995
394.8059843
394.8055833
394.8052721
394.8046895
394.8042738
394.8036264
394.8031475
394.8024934
394.8020867
394.8015908
394.8013157
394.8009659
394.8007784
394.8005234
394.800397
394.8002291
394.8001481
394.8000512
394.8000022
394.7999735
394.7999538
394.799944
394.7999435
394.7999474
394.7999598
394.7999962
394.8000174
394.8000682
394.800078
394.8000826
394.8000453
394.8000025
394.7998344
394.7997407
394.7994989
394.7993505
394.7990488
394.7988585
394.7985039
394.7983017
394.7979094
394.7976966
394.797321
394.7971303
394.7967966
394.7966138
394.7962652
394.7960674
394.7957081
394.7955261
394.7952137
394.7950687
394.7948102
394.7946957
394.7944757
394.7943753
394.7941672
394.7940639
394.7938598
394.7937589
394.7935792
394.7934922
394.7933414
394.793261
394.7931196
394.7930311
394.7928852
394.7927827
394.7926504
394.7925483
394.7924497
394.7923682
394.79232
394.792299
394.7923053
394.7923197
394.7923853
394.7924377
394.7925663
394.7926597
394.7928461
394.7929775
394.7931974
394.7933779
394.7936271
394.7938687
394.7941261
394.7944654
394.794733
394.7951246
394.7954189
394.7958441
394.7961621
394.7966065
394.7969355
394.7973748
394.7976958
394.7981064
394.7984035
394.7987725
394.7990396
394.7993691
394.7996171
394.7999033
394.8000962
394.800207
394.8002409
394.8002366
394.8002029
394.8001262
394.7999992
394.7998076
394.7995525
394.7992081
394.7987931
394.7982723
394.7976529
394.7969293
394.7960773
394.7951391
394.7940384
394.7929046
394.7915421
394.7902413
394.7886728
394.7871836
394.7856226
394.7842022
394.7829937
394.7819098
394.7810365
394.7802949
394.779754
394.7793468
394.779109
394.7789682
394.7789213
394.778909
394.7789326
394.7789875
394.7791336
394.7793249
394.7796658
394.7800454
394.7806295
394.7811584
394.7818749
394.7825044
394.7832999
394.7839982
394.7848285
394.7855647
394.7863812
394.7871324
394.7879282
394.7886665
394.7894383
394.7901514
394.7909136
394.7915921
394.7923551
394.7930053
394.7937681
394.7943955
394.7951432
394.7957409
394.7964712
394.7970449
394.7977625
394.7983204
394.7990184
394.7995524
394.8002126
394.8007237
394.8013611
394.8018651
394.8025064
394.8030248
394.8036968
394.8042511
394.8049825
394.805598
394.8064088
394.8071063
394.8079942
394.8087979
394.8096869
394.8104994
394.8111403
394.8116686
394.8120728
394.8123906
394.8126345
394.8128193
394.8129521
394.8130305
394.8130556
394.8130283
394.8129039
394.8126149
394.8121602
394.8114465
394.8105654
394.8093233
394.8079685
394.8061346
394.8041884
394.8019374
394.7995241
394.7969843
394.7946728
394.7924712
394.7908739
394.789569
394.7887308
394.788172
394.7878534
394.7877069
394.7876492
394.7876746
394.7877445
394.7879931
394.7882945
394.7888841
394.7894498
394.7903936
394.7913326
394.7927604
394.7941037
394.7958888
394.7975133
394.7994262
394.8011052
394.8026182
394.8038096
394.8047003
394.8052481
394.8055206
394.805581
394.8055506
394.8054089
394.8051666
394.8048263
394.8042362
394.8037185
394.8028058
394.8020935
394.8008033
394.7997644
394.7980555
394.796625
394.7946694
394.7931147
394.791191
394.789729
394.7880871
394.7868791
394.78562
394.7847285