/*--------------------------------*- C++ -*----------------------------------*\
| =========                 |                                                 |
| \\      /  F ield         | OpenFOAM: The Open Source CFD Toolbox           |
|  \\    /   O peration     | Version:  2012                                  |
|   \\  /    A nd           | Website:  www.openfoam.com                      |
|    \\/     M anipulation  |                                                 |
\*---------------------------------------------------------------------------*/
FoamFile
{
    version     2.0;
    format      ascii;
    class       volVectorField;
    location    "920";
    object      U;
}
// * * * * * * * * * * * * * * * * * * * * * * * * * * * * * * * * * * * * * //

dimensions      [0 1 -1 0 0 0 0];


internalField   nonuniform List<vector> 
20400
(
(3.53101e-06 -3.45541e-06 0)
(5.18658e-06 -1.17201e-06 0)
(-4.664e-06 3.70717e-06 0)
(-2.49972e-05 6.36664e-06 0)
(-5.82729e-05 7.81633e-06 0)
(-9.85246e-05 7.16201e-06 0)
(-0.000144708 6.4018e-06 0)
(-0.000193584 5.48302e-06 0)
(-0.000243244 4.71657e-06 0)
(-0.000294055 4.21262e-06 0)
(-0.000343592 4.2671e-06 0)
(-0.000393552 4.19619e-06 0)
(-0.000442727 4.01958e-06 0)
(-0.000491725 3.62443e-06 0)
(-0.000540424 3.05564e-06 0)
(-0.000588944 2.26579e-06 0)
(-0.000637325 1.23262e-06 0)
(-0.000685601 1.41653e-08 0)
(-0.000733792 -1.33878e-06 0)
(-0.000781809 -2.51169e-06 0)
(-0.000829551 -3.71667e-06 0)
(-0.000877023 -4.90703e-06 0)
(-0.000924255 -5.99894e-06 0)
(-0.000971234 -6.91942e-06 0)
(-0.00101795 -7.59198e-06 0)
(-0.00106438 -7.95582e-06 0)
(-0.00111051 -7.9368e-06 0)
(-0.00115636 -7.49899e-06 0)
(-0.00120193 -6.5796e-06 0)
(-0.00124727 -5.16117e-06 0)
(-0.00129238 -3.18678e-06 0)
(-0.00133725 -5.77659e-07 0)
(-0.00138163 3.22366e-06 0)
(-0.00142507 7.87696e-06 0)
(-0.00146758 1.03073e-05 0)
(-0.00151152 1.33346e-05 0)
(-0.00155449 1.69746e-05 0)
(-0.00159744 2.06117e-05 0)
(-0.0016398 2.4041e-05 0)
(-0.00168179 2.70843e-05 0)
(-0.00172344 2.96357e-05 0)
(-0.00176478 3.16355e-05 0)
(-0.00180588 3.30589e-05 0)
(-0.00184677 3.39272e-05 0)
(-0.0018875 3.4289e-05 0)
(-0.0019281 3.42036e-05 0)
(-0.00196856 3.37262e-05 0)
(-0.0020089 3.28927e-05 0)
(-0.00204911 3.17112e-05 0)
(-0.00208919 3.01686e-05 0)
(-0.00212918 2.81939e-05 0)
(-0.00216901 2.57556e-05 0)
(-0.00220885 2.27144e-05 0)
(-0.00224848 1.90134e-05 0)
(-0.00228857 1.466e-05 0)
(-0.00232799 9.73482e-06 0)
(-0.00236755 5.47572e-06 0)
(-0.00240572 -3.14215e-06 0)
(-0.00244774 -9.315e-06 0)
(-0.00248702 -1.55148e-05 0)
(-0.00252859 -2.00254e-05 0)
(-0.00256838 -2.38764e-05 0)
(-0.00260963 -2.61481e-05 0)
(-0.00264985 -2.78721e-05 0)
(-0.00269095 -2.84258e-05 0)
(-0.0027314 -2.87113e-05 0)
(-0.00277244 -2.81904e-05 0)
(-0.00281313 -2.76304e-05 0)
(-0.00285434 -2.64737e-05 0)
(-0.00289533 -2.54135e-05 0)
(-0.00293692 -2.38354e-05 0)
(-0.00297827 -2.24242e-05 0)
(-0.00302037 -2.04893e-05 0)
(-0.00306217 -1.87511e-05 0)
(-0.00310489 -1.643e-05 0)
(-0.00314722 -1.43073e-05 0)
(-0.00319068 -1.14988e-05 0)
(-0.00323364 -8.86664e-06 0)
(-0.00327802 -5.38387e-06 0)
(-0.00332173 -1.99336e-06 0)
(-0.00336688 2.42176e-06 0)
(-0.00341078 7.93616e-06 0)
(-0.00345471 1.07525e-05 0)
(-0.00350055 1.43094e-05 0)
(-0.00354455 1.66838e-05 0)
(-0.00359035 1.83636e-05 0)
(-0.00363489 1.82834e-05 0)
(-0.0036814 1.7587e-05 0)
(-0.00372677 1.55096e-05 0)
(-0.00377407 1.32799e-05 0)
(-0.00382008 1.04349e-05 0)
(-0.00386662 7.84366e-06 0)
(-0.00391214 2.25161e-06 0)
(-0.00395929 -2.39734e-06 0)
(-0.00400544 -7.7621e-06 0)
(-0.00405239 -1.29443e-05 0)
(-0.00409854 -1.83152e-05 0)
(-0.00414443 -2.32659e-05 0)
(-0.00419 -2.78224e-05 0)
(-0.00423469 -3.11636e-05 0)
(-0.00427897 -3.29541e-05 0)
(-0.00432197 -3.14488e-05 0)
(-0.00436491 -2.71811e-05 0)
(-0.00440545 -1.62791e-05 0)
(-0.0044465 -3.92068e-06 0)
(-0.00448036 1.81668e-05 0)
(-0.00451285 3.80024e-05 0)
(-0.00454061 6.1945e-05 0)
(-0.00456894 7.70402e-05 0)
(-0.00458901 9.97834e-05 0)
(-0.00461264 0.000110007 0)
(-0.00462422 0.000133237 0)
(-0.00464053 0.000140949 0)
(-0.00464358 0.000164594 0)
(-0.00465064 0.000171207 0)
(-0.00464302 0.000192842 0)
(-0.00463776 0.000197212 0)
(-0.00461847 0.000213135 0)
(-0.00459745 0.000210454 0)
(-0.00456208 0.00021304 0)
(-0.0045231 0.000193177 0)
(-0.00447017 0.000171056 0)
(-0.00440401 0.000118273 0)
(-0.0043363 5.57825e-05 0)
(-0.00425332 -3.4334e-05 0)
(-0.00418453 -0.000126222 0)
(-0.0041184 -0.000204513 0)
(-0.00403919 -0.000273548 0)
(-0.00395341 -0.00031369 0)
(-0.00385223 -0.00036166 0)
(-0.0037497 -0.000380735 0)
(-0.0036299 -0.000410865 0)
(-0.00351404 -0.000414133 0)
(-0.00338246 -0.000421076 0)
(-0.00325673 -0.00039714 0)
(-0.0031184 -0.000359773 0)
(-0.00297794 -0.000285776 0)
(-0.00282327 -0.000169625 0)
(-0.00266746 -4.29882e-05 0)
(-0.00248082 0.000117896 0)
(-0.00227765 0.000221815 0)
(-0.0020673 0.000308633 0)
(-0.00184952 0.000332809 0)
(-0.00162965 0.000348974 0)
(-0.00138801 0.000316078 0)
(-0.00113988 0.000240388 0)
(-0.000914569 0.000105853 0)
(-0.000734407 -1.7848e-05 0)
(-0.000580787 -6.02837e-05 0)
(-0.000363747 -9.41135e-05 0)
(-0.000181351 -9.85738e-05 0)
(4.72443e-05 -9.62271e-05 0)
(0.000232589 -8.52231e-05 0)
(0.000466397 -7.53907e-05 0)
(0.000649932 -6.43129e-05 0)
(0.00087732 -5.65112e-05 0)
(0.00105652 -4.84537e-05 0)
(0.00127495 -4.40442e-05 0)
(0.00144812 -3.794e-05 0)
(0.00165484 -3.59746e-05 0)
(0.00182099 -3.0907e-05 0)
(0.00201375 -3.04481e-05 0)
(0.00217232 -2.60529e-05 0)
(0.00234929 -2.6313e-05 0)
(0.0024998 -2.25388e-05 0)
(0.00266047 -2.27058e-05 0)
(0.00280217 -2.05742e-05 0)
(0.00294599 -1.96664e-05 0)
(0.00307762 -1.80298e-05 0)
(0.00320585 -1.72634e-05 0)
(0.00332555 -1.63613e-05 0)
(0.0034395 -1.53763e-05 0)
(0.00354636 -1.42003e-05 0)
(0.00364684 -1.2981e-05 0)
(0.00374085 -1.18393e-05 0)
(0.00382849 -1.0872e-05 0)
(0.00390985 -1.00606e-05 0)
(0.003985 -9.31778e-06 0)
(0.00405412 -8.61356e-06 0)
(0.00411734 -7.90634e-06 0)
(0.00417493 -7.27166e-06 0)
(0.00422685 -6.51858e-06 0)
(0.00427384 -5.95614e-06 0)
(0.00431517 -5.23652e-06 0)
(0.0043523 -4.73705e-06 0)
(0.00438387 -4.05104e-06 0)
(0.00441186 -3.57948e-06 0)
(0.00443459 -2.81569e-06 0)
(0.00445425 -2.21479e-06 0)
(0.00446922 -1.43886e-06 0)
(0.00448135 -9.434e-07 0)
(0.00448944 -1.74588e-07 0)
(0.00449476 1.53942e-07 0)
(0.00449708 9.78152e-07 0)
(0.00449631 9.84253e-07 0)
(0.0044928 1.71799e-06 0)
(0.00448683 2.16777e-06 0)
(0.00447852 2.395e-06 0)
(0.00446795 2.44661e-06 0)
(0.00445527 2.46437e-06 0)
(0.00444067 2.45946e-06 0)
(0.00442434 2.44109e-06 0)
(0.00440642 2.42041e-06 0)
(0.00438706 2.41599e-06 0)
(0.00436637 2.47401e-06 0)
(0.00434456 2.66735e-06 0)
(0.00432177 2.89956e-06 0)
(0.0042981 3.14438e-06 0)
(0.00427367 3.3821e-06 0)
(0.00424856 3.59675e-06 0)
(0.00422287 3.77287e-06 0)
(0.00419668 3.88869e-06 0)
(0.00417002 3.94791e-06 0)
(0.00414293 4.03829e-06 0)
(0.00411582 4.07439e-06 0)
(0.00408825 4.19357e-06 0)
(0.00406066 4.15222e-06 0)
(0.00403336 4.29948e-06 0)
(0.0040051 4.16865e-06 0)
(0.00397839 4.26163e-06 0)
(0.0039499 4.03848e-06 0)
(0.0039237 4.08066e-06 0)
(0.00389545 3.91884e-06 0)
(0.00386965 3.90984e-06 0)
(0.00384201 3.79556e-06 0)
(0.00381655 3.7499e-06 0)
(0.00378979 3.6891e-06 0)
(0.00376466 3.62548e-06 0)
(0.00373907 3.61235e-06 0)
(0.00371436 3.57997e-06 0)
(0.00368985 3.53255e-06 0)
(0.00366585 3.49288e-06 0)
(0.00364229 3.44635e-06 0)
(0.0036192 3.391e-06 0)
(0.0035966 3.32447e-06 0)
(0.00357447 3.25576e-06 0)
(0.00355293 3.14943e-06 0)
(0.00353175 3.0741e-06 0)
(0.00351129 2.9101e-06 0)
(0.00349109 2.82407e-06 0)
(0.00347172 2.59632e-06 0)
(0.00345252 2.52218e-06 0)
(0.00343425 2.2662e-06 0)
(0.00341609 2.24007e-06 0)
(0.00339895 1.98043e-06 0)
(0.0033818 1.99441e-06 0)
(0.00336571 1.68441e-06 0)
(0.00334958 1.73025e-06 0)
(0.00333457 1.35273e-06 0)
(0.00331947 1.42443e-06 0)
(0.00330556 9.88831e-07 0)
(0.00329149 1.10713e-06 0)
(0.00327866 6.50026e-07 0)
(0.00326561 8.29842e-07 0)
(0.00325384 3.69982e-07 0)
(0.00324178 6.08049e-07 0)
(0.00323104 1.49979e-07 0)
(0.00321995 4.33126e-07 0)
(0.00321021 -2.03934e-08 0)
(0.00320006 2.92404e-07 0)
(0.00319129 -1.53266e-07 0)
(0.00318205 1.73849e-07 0)
(0.00317421 -2.56979e-07 0)
(0.00316585 7.35557e-08 0)
(0.00315891 -3.40697e-07 0)
(0.0031514 -1.20375e-08 0)
(0.00314532 -4.11121e-07 0)
(0.00313864 -8.73835e-08 0)
(0.00313338 -4.72463e-07 0)
(0.00312748 -1.54932e-07 0)
(0.00312301 -5.26694e-07 0)
(0.00311787 -2.15484e-07 0)
(0.00311414 -5.73992e-07 0)
(0.00310971 -2.68203e-07 0)
(0.00310669 -6.12518e-07 0)
(0.00310295 -3.1024e-07 0)
(0.00310059 -6.37803e-07 0)
(0.00309751 -3.36255e-07 0)
(0.00309577 -6.40419e-07 0)
(0.00309332 -3.36665e-07 0)
(0.00309216 -6.06686e-07 0)
(0.00309033 -2.99567e-07 0)
(0.00308969 -5.25902e-07 0)
(0.00308848 -2.24312e-07 0)
(0.00308832 -4.23852e-07 0)
(0.00308768 -1.89638e-07 0)
(0.00308795 -4.10295e-07 0)
(0.0030878 -2.22883e-07 0)
(0.00308849 -4.7151e-07 0)
(0.00308878 -2.81143e-07 0)
(0.00308986 -5.34558e-07 0)
(0.00309057 -3.52017e-07 0)
(0.00309203 -5.86745e-07 0)
(0.00309314 -4.53505e-07 0)
(0.00309501 -6.4612e-07 0)
(0.00309653 -5.2677e-07 0)
(0.00309864 -6.69e-07 0)
(0.00310061 -5.91418e-07 0)
(0.0031029 -6.40614e-07 0)
(0.0031053 -5.90675e-07 0)
(0.00310786 -5.84338e-07 0)
(0.00311056 -5.45265e-07 0)
(0.00311341 -5.40966e-07 0)
(0.00311632 -5.21318e-07 0)
(0.00311942 -4.84219e-07 0)
(0.00312244 -5.1196e-07 0)
(0.00312592 -4.52427e-07 0)
(0.00312898 -5.26924e-07 0)
(0.00313283 -4.33e-07 0)
(0.00313591 -5.04054e-07 0)
(0.00314003 -4.23762e-07 0)
(0.0031432 -4.91566e-07 0)
(0.00314752 -4.09694e-07 0)
(0.0031508 -4.78365e-07 0)
(0.00315526 -3.96055e-07 0)
(0.00315864 -4.6648e-07 0)
(0.00316323 -3.83321e-07 0)
(0.00316671 -4.51597e-07 0)
(0.00317141 -3.75298e-07 0)
(0.00317498 -4.37791e-07 0)
(0.00317977 -3.71041e-07 0)
(0.00318341 -4.26128e-07 0)
(0.00318826 -3.67537e-07 0)
(0.00319196 -4.15425e-07 0)
(0.00319685 -3.6312e-07 0)
(0.00320061 -4.05943e-07 0)
(0.00320552 -3.58093e-07 0)
(0.00320933 -3.98957e-07 0)
(0.00321426 -3.54101e-07 0)
(0.0032181 -3.91886e-07 0)
(0.00322304 -3.50298e-07 0)
(0.00322689 -3.82816e-07 0)
(0.00323182 -3.45891e-07 0)
(0.00323568 -3.7202e-07 0)
(0.00324059 -3.41287e-07 0)
(0.00324446 -3.59379e-07 0)
(0.00324931 -3.36549e-07 0)
(0.00325319 -3.48974e-07 0)
(0.00325798 -3.29947e-07 0)
(0.00326187 -3.39236e-07 0)
(0.00326657 -3.22291e-07 0)
(0.00327047 -3.2858e-07 0)
(0.00327507 -3.14654e-07 0)
(0.00327897 -3.17981e-07 0)
(0.00328347 -3.06668e-07 0)
(0.00328737 -3.07032e-07 0)
(0.00329175 -2.97877e-07 0)
(0.00329564 -2.9544e-07 0)
(0.0032999 -2.88764e-07 0)
(0.00330378 -2.8385e-07 0)
(0.00330792 -2.79695e-07 0)
(0.00331177 -2.72297e-07 0)
(0.00331579 -2.70224e-07 0)
(0.00331962 -2.62425e-07 0)
(0.00332352 -2.59688e-07 0)
(0.00332732 -2.56118e-07 0)
(0.0033311 -2.49591e-07 0)
(0.00333484 -2.4543e-07 0)
(0.00333855 -2.40665e-07 0)
(0.00334221 -2.36737e-07 0)
(0.00334583 -2.32579e-07 0)
(0.00334942 -2.28894e-07 0)
(0.00335296 -2.25281e-07 0)
(0.00335646 -2.22197e-07 0)
(0.00335993 -2.19862e-07 0)
(0.00336335 -2.18245e-07 0)
(0.00336674 -2.17278e-07 0)
(0.00337008 -2.1703e-07 0)
(0.00337339 -2.1762e-07 0)
(0.00337665 -2.191e-07 0)
(0.00337988 -2.21526e-07 0)
(0.00338306 -2.249e-07 0)
(0.00338621 -2.29232e-07 0)
(0.00338931 -2.349e-07 0)
(0.00339238 -2.41714e-07 0)
(0.0033954 -2.49603e-07 0)
(0.00339839 -2.5846e-07 0)
(0.00340133 -2.67723e-07 0)
(0.00340424 -2.76399e-07 0)
(0.0034071 -2.83406e-07 0)
(0.00340992 -2.90564e-07 0)
(0.0034127 -3.00091e-07 0)
(0.00341544 -3.13898e-07 0)
(0.00341815 -3.30462e-07 0)
(0.00342081 -3.4652e-07 0)
(0.00342344 -3.59056e-07 0)
(0.00342603 -3.67418e-07 0)
(0.00342858 -3.72627e-07 0)
(0.00343109 -3.75612e-07 0)
(0.00343356 -3.7704e-07 0)
(0.003436 -3.7732e-07 0)
(0.0034384 -3.76709e-07 0)
(0.00344076 -3.75368e-07 0)
(0.00344308 -3.73407e-07 0)
(0.00344537 -3.70919e-07 0)
(0.00344761 -3.67977e-07 0)
(0.00344982 -3.64648e-07 0)
(0.00345199 -3.60993e-07 0)
(0.00345413 -3.57086e-07 0)
(0.00345622 -3.52969e-07 0)
(0.00345828 -3.48693e-07 0)
(0.0034603 -3.443e-07 0)
(0.00346228 -3.39821e-07 0)
(0.00346423 -3.35282e-07 0)
(0.00346614 -3.30698e-07 0)
(0.00346801 -3.26075e-07 0)
(0.00346984 -3.21406e-07 0)
(0.00347164 -3.16693e-07 0)
(0.0034734 -3.11918e-07 0)
(0.00347512 -3.07094e-07 0)
(0.00347681 -3.02155e-07 0)
(0.00347847 -2.97232e-07 0)
(0.00348008 -2.92312e-07 0)
(0.00348167 -2.87466e-07 0)
(0.00348321 -2.82621e-07 0)
(0.00348472 -2.7782e-07 0)
(0.0034862 -2.73038e-07 0)
(0.00348765 -2.68279e-07 0)
(0.00348906 -2.6359e-07 0)
(0.00349044 -2.58918e-07 0)
(0.00349179 -2.5439e-07 0)
(0.00349311 -2.4987e-07 0)
(0.0034944 -2.45467e-07 0)
(0.00349566 -2.4105e-07 0)
(0.00349689 -2.36751e-07 0)
(0.00349809 -2.32469e-07 0)
(0.00349927 -2.28327e-07 0)
(0.00350043 -2.24259e-07 0)
(0.00350156 -2.20336e-07 0)
(0.00350266 -2.1652e-07 0)
(0.00350375 -2.12861e-07 0)
(0.00350482 -2.09362e-07 0)
(0.00350586 -2.06042e-07 0)
(0.0035069 -2.02906e-07 0)
(0.00350791 -1.99953e-07 0)
(0.00350891 -1.97166e-07 0)
(0.0035099 -1.94526e-07 0)
(0.00351087 -1.92062e-07 0)
(0.00351184 -1.8986e-07 0)
(0.0035128 -1.87794e-07 0)
(0.00351375 -1.86172e-07 0)
(0.00351469 -1.84422e-07 0)
(0.00351563 -1.8278e-07 0)
(0.00351656 -1.81717e-07 0)
(0.0035175 -1.80082e-07 0)
(0.00351843 -1.79795e-07 0)
(0.00351936 -1.78434e-07 0)
(0.0035203 -1.78584e-07 0)
(0.00352122 -1.7778e-07 0)
(0.00352216 -1.77569e-07 0)
(0.00352309 -1.76597e-07 0)
(0.00352404 -1.77857e-07 0)
(0.00352498 -1.76766e-07 0)
(0.00352592 -1.7801e-07 0)
(0.00352688 -1.77424e-07 0)
(0.00352782 -1.78315e-07 0)
(0.00352879 -1.78126e-07 0)
(0.00352973 -1.7853e-07 0)
(0.00353071 -1.7908e-07 0)
(0.00353165 -1.7779e-07 0)
(0.00353262 -1.79803e-07 0)
(0.00353357 -1.77988e-07 0)
(0.00353453 -1.79745e-07 0)
(0.00353547 -1.79246e-07 0)
(0.00353642 -1.79096e-07 0)
(0.00353736 -1.78671e-07 0)
(0.00353828 -1.78097e-07 0)
(0.0035392 -1.77329e-07 0)
(0.00354011 -1.76253e-07 0)
(0.003541 -1.74881e-07 0)
(0.00354187 -1.73148e-07 0)
(0.00354273 -1.71017e-07 0)
(0.00354356 -1.68621e-07 0)
(0.00354437 -1.65939e-07 0)
(0.00354516 -1.63111e-07 0)
(0.00354593 -1.60169e-07 0)
(0.00354666 -1.57178e-07 0)
(0.00354737 -1.54276e-07 0)
(0.00354805 -1.51417e-07 0)
(0.00354869 -1.48676e-07 0)
(0.0035493 -1.45857e-07 0)
(0.00354987 -1.41135e-07 0)
(0.00355041 -1.35345e-07 0)
(0.00355092 -1.28849e-07 0)
(0.00355139 -1.23104e-07 0)
(0.00355179 -1.16603e-07 0)
(0.0035522 -1.16667e-07 0)
(0.00355251 -1.04669e-07 0)
(0.00355288 -1.12731e-07 0)
(0.00355303 -9.65825e-08 0)
(0.00355346 -1.06893e-07 0)
(0.00355336 -8.215e-08 0)
(0.00355396 -1.06126e-07 0)
(0.00355334 -4.83783e-08 0)
(0.00355436 -9.62462e-08 0)
(0.00355285 2.72182e-08 0)
(0.00355465 -5.28851e-08 0)
(0.0035515 1.77062e-07 0)
(0.00355476 -5.87648e-08 0)
(0.00354861 2.0232e-08 0)
(1.08815e-06 -5.27451e-06 0)
(-1.30947e-05 1.24074e-05 0)
(-5.73246e-05 4.04937e-05 0)
(-0.00013047 6.41154e-05 0)
(-0.000228755 8.26485e-05 0)
(-0.000344195 9.25321e-05 0)
(-0.000472237 9.83823e-05 0)
(-0.000607066 0.000100044 0)
(-0.000745722 9.99321e-05 0)
(-0.000886309 9.84884e-05 0)
(-0.00102636 9.67992e-05 0)
(-0.00116706 9.52573e-05 0)
(-0.00130653 9.40965e-05 0)
(-0.00144513 9.34559e-05 0)
(-0.00158258 9.32333e-05 0)
(-0.00171907 9.33983e-05 0)
(-0.00185461 9.39246e-05 0)
(-0.0019892 9.47514e-05 0)
(-0.00212295 9.56067e-05 0)
(-0.00225555 9.61249e-05 0)
(-0.00238675 9.66793e-05 0)
(-0.00251662 9.73148e-05 0)
(-0.00264519 9.78664e-05 0)
(-0.00277247 9.82224e-05 0)
(-0.00289845 9.82947e-05 0)
(-0.00302313 9.80009e-05 0)
(-0.0031465 9.73326e-05 0)
(-0.00326865 9.62097e-05 0)
(-0.00338959 9.46777e-05 0)
(-0.00350944 9.26536e-05 0)
(-0.00362817 9.01223e-05 0)
(-0.00374586 8.66957e-05 0)
(-0.00386234 8.12941e-05 0)
(-0.00397767 7.38529e-05 0)
(-0.00409327 7.1915e-05 0)
(-0.00420776 6.93341e-05 0)
(-0.00432154 6.44428e-05 0)
(-0.00443482 5.95387e-05 0)
(-0.0045474 5.50242e-05 0)
(-0.00465925 5.10599e-05 0)
(-0.00477029 4.77094e-05 0)
(-0.0048805 4.50741e-05 0)
(-0.00498987 4.31359e-05 0)
(-0.00509838 4.18875e-05 0)
(-0.00520607 4.12314e-05 0)
(-0.00531298 4.106e-05 0)
(-0.00541918 4.12965e-05 0)
(-0.00552475 4.19025e-05 0)
(-0.0056298 4.28489e-05 0)
(-0.00573441 4.42242e-05 0)
(-0.0058387 4.58595e-05 0)
(-0.00594267 4.83008e-05 0)
(-0.00604656 5.09908e-05 0)
(-0.00615009 5.5048e-05 0)
(-0.00625367 5.90075e-05 0)
(-0.00635654 6.40156e-05 0)
(-0.00645927 6.62221e-05 0)
(-0.00656069 7.72726e-05 0)
(-0.00666052 8.4713e-05 0)
(-0.00675946 9.03179e-05 0)
(-0.00685734 9.5239e-05 0)
(-0.0069552 9.86933e-05 0)
(-0.00705291 0.000101455 0)
(-0.00715147 0.000102831 0)
(-0.00724971 0.000103611 0)
(-0.00734898 0.000103612 0)
(-0.00744773 0.000103348 0)
(-0.00754748 0.000102652 0)
(-0.00764665 0.000101878 0)
(-0.00774675 0.000100801 0)
(-0.0078463 9.97489e-05 0)
(-0.00794672 9.84023e-05 0)
(-0.00804664 9.71387e-05 0)
(-0.00814739 9.55295e-05 0)
(-0.00824769 9.40338e-05 0)
(-0.00834878 9.21106e-05 0)
(-0.00844947 9.03283e-05 0)
(-0.0085509 8.80136e-05 0)
(-0.008652 8.58367e-05 0)
(-0.00875385 8.28141e-05 0)
(-0.00885542 7.90933e-05 0)
(-0.00895814 7.2317e-05 0)
(-0.00906082 7.14141e-05 0)
(-0.00916451 6.76567e-05 0)
(-0.00926905 6.52294e-05 0)
(-0.00937338 6.41726e-05 0)
(-0.00947752 6.4416e-05 0)
(-0.00958093 6.62781e-05 0)
(-0.00968348 6.83491e-05 0)
(-0.00978515 7.12863e-05 0)
(-0.00988577 7.31883e-05 0)
(-0.00998526 7.46041e-05 0)
(-0.0100836 7.99762e-05 0)
(-0.0101798 8.48981e-05 0)
(-0.0102743 8.92478e-05 0)
(-0.0103662 9.37255e-05 0)
(-0.0104556 9.72826e-05 0)
(-0.0105413 0.000101209 0)
(-0.0106234 0.000103459 0)
(-0.0106998 0.000105743 0)
(-0.0107705 0.000104691 0)
(-0.0108338 0.000103606 0)
(-0.0108908 9.62618e-05 0)
(-0.0109395 8.76226e-05 0)
(-0.0109819 6.91276e-05 0)
(-0.0110176 4.28124e-05 0)
(-0.0110586 2.15487e-05 0)
(-0.0110873 -3.48033e-06 0)
(-0.0111164 -2.15919e-05 0)
(-0.0111263 -4.41134e-05 0)
(-0.0111337 -6.05294e-05 0)
(-0.0111203 -8.3039e-05 0)
(-0.011104 -9.78476e-05 0)
(-0.0110666 -0.000121689 0)
(-0.0110272 -0.000134313 0)
(-0.0109628 -0.000159437 0)
(-0.0109001 -0.00016928 0)
(-0.0108074 -0.000193361 0)
(-0.0107224 -0.000199676 0)
(-0.0106001 -0.000214926 0)
(-0.0104931 -0.000213418 0)
(-0.0103402 -0.000208599 0)
(-0.0102071 -0.000195175 0)
(-0.0100175 -0.000147589 0)
(-0.00984169 -0.000107601 0)
(-0.00959654 -1.35254e-05 0)
(-0.00932237 1.14445e-05 0)
(-0.00902898 5.57498e-05 0)
(-0.00872035 4.87975e-05 0)
(-0.0084004 6.99929e-05 0)
(-0.00806173 5.75801e-05 0)
(-0.00770853 6.45144e-05 0)
(-0.00733188 5.05869e-05 0)
(-0.00693799 4.44289e-05 0)
(-0.00650374 2.54662e-05 0)
(-0.00607456 -4.55311e-06 0)
(-0.00553887 -5.30338e-05 0)
(-0.00509275 -0.00012982 0)
(-0.0045677 -0.000206058 0)
(-0.00413224 -0.000319386 0)
(-0.00377162 -0.000375606 0)
(-0.00332572 -0.000414775 0)
(-0.00290726 -0.00043619 0)
(-0.00242158 -0.000451718 0)
(-0.0019872 -0.000471331 0)
(-0.00151504 -0.000502138 0)
(-0.00106134 -0.000539906 0)
(-0.000444174 -0.000569242 0)
(9.39711e-05 -0.000555821 0)
(0.00068375 -0.000540035 0)
(0.00119195 -0.000522929 0)
(0.00176077 -0.000508505 0)
(0.00225562 -0.000481939 0)
(0.00279691 -0.000458401 0)
(0.00327638 -0.000441477 0)
(0.00380368 -0.000427534 0)
(0.00426992 -0.000412618 0)
(0.00477946 -0.000399721 0)
(0.00522982 -0.000383965 0)
(0.00571629 -0.000371801 0)
(0.00614834 -0.000355277 0)
(0.00660713 -0.000343754 0)
(0.00701895 -0.000326899 0)
(0.00744611 -0.000315286 0)
(0.00783659 -0.000300066 0)
(0.00822899 -0.000286943 0)
(0.00859591 -0.000273218 0)
(0.0089554 -0.00025914 0)
(0.00929405 -0.000245733 0)
(0.00962118 -0.000231946 0)
(0.00992994 -0.00021936 0)
(0.0102248 -0.000206499 0)
(0.0105039 -0.000194001 0)
(0.0107672 -0.000181773 0)
(0.011015 -0.000169727 0)
(0.0112476 -0.000157717 0)
(0.0114652 -0.000145792 0)
(0.011668 -0.000134127 0)
(0.0118564 -0.0001228 0)
(0.0120305 -0.000111839 0)
(0.0121908 -0.000101403 0)
(0.0123373 -9.12484e-05 0)
(0.0124712 -8.16014e-05 0)
(0.0125916 -7.22006e-05 0)
(0.0127005 -6.33057e-05 0)
(0.0127965 -5.4673e-05 0)
(0.0128822 -4.65862e-05 0)
(0.0129557 -3.88864e-05 0)
(0.01302 -3.21237e-05 0)
(0.0130729 -2.50956e-05 0)
(0.0131174 -1.91926e-05 0)
(0.0131516 -1.26425e-05 0)
(0.0131783 -7.77873e-06 0)
(0.0131956 -1.46582e-06 0)
(0.0132065 2.15447e-06 0)
(0.0132093 7.86133e-06 0)
(0.0132046 1.20315e-05 0)
(0.0131935 1.63958e-05 0)
(0.0131762 2.07437e-05 0)
(0.0131531 2.47611e-05 0)
(0.0131246 2.84253e-05 0)
(0.013091 3.17655e-05 0)
(0.0130528 3.48156e-05 0)
(0.0130104 3.76027e-05 0)
(0.0129641 4.00625e-05 0)
(0.0129143 4.19643e-05 0)
(0.0128611 4.35741e-05 0)
(0.012805 4.49783e-05 0)
(0.0127462 4.62013e-05 0)
(0.012685 4.72587e-05 0)
(0.0126216 4.81756e-05 0)
(0.0125564 4.90205e-05 0)
(0.0124895 4.99053e-05 0)
(0.0124212 5.05544e-05 0)
(0.0123518 5.05781e-05 0)
(0.0122814 5.15439e-05 0)
(0.0122098 5.08994e-05 0)
(0.0121386 5.19809e-05 0)
(0.0120651 5.08651e-05 0)
(0.0119937 5.17582e-05 0)
(0.0119196 5.07948e-05 0)
(0.0118483 5.1234e-05 0)
(0.0117742 5.03838e-05 0)
(0.0117032 5.04128e-05 0)
(0.0116299 4.96572e-05 0)
(0.0115594 4.93737e-05 0)
(0.0114875 4.86083e-05 0)
(0.0114176 4.80227e-05 0)
(0.0113477 4.72319e-05 0)
(0.0112789 4.6472e-05 0)
(0.0112108 4.56294e-05 0)
(0.0111437 4.47714e-05 0)
(0.0110776 4.38915e-05 0)
(0.0110125 4.29785e-05 0)
(0.0109485 4.20851e-05 0)
(0.0108855 4.11078e-05 0)
(0.0108239 4.02261e-05 0)
(0.0107632 3.92726e-05 0)
(0.0107041 3.83815e-05 0)
(0.0106458 3.74681e-05 0)
(0.0105893 3.65824e-05 0)
(0.0105336 3.57001e-05 0)
(0.0104799 3.47585e-05 0)
(0.0104268 3.37975e-05 0)
(0.0103758 3.28849e-05 0)
(0.0103252 3.19902e-05 0)
(0.0102769 3.10706e-05 0)
(0.010229 3.01786e-05 0)
(0.0101834 2.92265e-05 0)
(0.0101382 2.8384e-05 0)
(0.0100954 2.74028e-05 0)
(0.0100529 2.66136e-05 0)
(0.010013 2.55757e-05 0)
(0.00997319 2.4835e-05 0)
(0.00993598 2.37338e-05 0)
(0.00989885 2.30433e-05 0)
(0.00986433 2.18861e-05 0)
(0.00982981 2.1252e-05 0)
(0.00979791 2.00481e-05 0)
(0.00976597 1.94774e-05 0)
(0.00973662 1.82355e-05 0)
(0.00970718 1.77358e-05 0)
(0.00968032 1.64614e-05 0)
(0.00965331 1.60358e-05 0)
(0.00962887 1.47376e-05 0)
(0.00960422 1.43848e-05 0)
(0.00958211 1.30736e-05 0)
(0.00955974 1.27905e-05 0)
(0.00953988 1.14769e-05 0)
(0.00951972 1.12581e-05 0)
(0.00950202 9.95179e-06 0)
(0.00948396 9.78979e-06 0)
(0.00946833 8.49936e-06 0)
(0.00945231 8.3849e-06 0)
(0.00943865 7.11716e-06 0)
(0.00942457 7.03925e-06 0)
(0.0094128 5.79943e-06 0)
(0.00940058 5.74741e-06 0)
(0.00939059 4.53122e-06 0)
(0.00938016 4.4948e-06 0)
(0.00937185 3.29075e-06 0)
(0.00936313 3.2625e-06 0)
(0.0093564 2.04849e-06 0)
(0.00934932 2.03536e-06 0)
(0.00934403 7.80727e-07 0)
(0.00933847 1.03341e-06 0)
(0.00933453 -1.60137e-07 0)
(0.00933038 2.19193e-07 0)
(0.00932776 -9.71429e-07 0)
(0.00932495 -5.58297e-07 0)
(0.00932357 -1.73743e-06 0)
(0.00932198 -1.37348e-06 0)
(0.00932164 -2.38751e-06 0)
(0.00932133 -2.16895e-06 0)
(0.00932217 -3.07425e-06 0)
(0.00932302 -2.82881e-06 0)
(0.00932474 -3.67138e-06 0)
(0.00932669 -3.51446e-06 0)
(0.00932932 -4.19361e-06 0)
(0.0093323 -4.37805e-06 0)
(0.00933583 -4.73587e-06 0)
(0.00933968 -5.04604e-06 0)
(0.009344 -5.28665e-06 0)
(0.0093486 -5.55621e-06 0)
(0.00935371 -5.72973e-06 0)
(0.00935885 -6.04873e-06 0)
(0.00936483 -6.11425e-06 0)
(0.00937047 -6.50434e-06 0)
(0.00937722 -6.46994e-06 0)
(0.00938336 -6.8267e-06 0)
(0.00939076 -6.84108e-06 0)
(0.00939736 -7.13712e-06 0)
(0.0094053 -7.15965e-06 0)
(0.00941235 -7.40557e-06 0)
(0.00942075 -7.41147e-06 0)
(0.0094282 -7.65794e-06 0)
(0.00943703 -7.64196e-06 0)
(0.00944485 -7.89076e-06 0)
(0.00945407 -7.844e-06 0)
(0.00946222 -8.06862e-06 0)
(0.00947175 -8.00481e-06 0)
(0.00948019 -8.20519e-06 0)
(0.00948998 -8.13351e-06 0)
(0.00949866 -8.31164e-06 0)
(0.00950867 -8.23464e-06 0)
(0.00951757 -8.39486e-06 0)
(0.00952774 -8.30767e-06 0)
(0.00953681 -8.45675e-06 0)
(0.00954713 -8.35992e-06 0)
(0.00955634 -8.4893e-06 0)
(0.00956677 -8.39079e-06 0)
(0.00957609 -8.49465e-06 0)
(0.00958658 -8.40032e-06 0)
(0.00959597 -8.47649e-06 0)
(0.00960649 -8.38953e-06 0)
(0.00961592 -8.43491e-06 0)
(0.00962644 -8.35912e-06 0)
(0.0096359 -8.37521e-06 0)
(0.00964636 -8.30804e-06 0)
(0.00965584 -8.30438e-06 0)
(0.00966621 -8.23657e-06 0)
(0.00967569 -8.21862e-06 0)
(0.00968594 -8.14808e-06 0)
(0.00969541 -8.11811e-06 0)
(0.00970551 -8.04626e-06 0)
(0.00971495 -8.00598e-06 0)
(0.00972489 -7.93297e-06 0)
(0.00973428 -7.88385e-06 0)
(0.00974404 -7.81065e-06 0)
(0.00975337 -7.75352e-06 0)
(0.00976293 -7.68065e-06 0)
(0.0097722 -7.61669e-06 0)
(0.00978156 -7.54426e-06 0)
(0.00979073 -7.47268e-06 0)
(0.00979989 -7.4008e-06 0)
(0.00980895 -7.33088e-06 0)
(0.00981793 -7.25314e-06 0)
(0.00982683 -7.18056e-06 0)
(0.00983566 -7.10322e-06 0)
(0.00984439 -7.02869e-06 0)
(0.00985304 -6.95176e-06 0)
(0.00986161 -6.87583e-06 0)
(0.00987009 -6.79892e-06 0)
(0.00987847 -6.72243e-06 0)
(0.00988678 -6.6445e-06 0)
(0.00989499 -6.56608e-06 0)
(0.00990311 -6.48649e-06 0)
(0.00991114 -6.40643e-06 0)
(0.00991908 -6.32519e-06 0)
(0.00992692 -6.24309e-06 0)
(0.00993467 -6.15978e-06 0)
(0.00994233 -6.07551e-06 0)
(0.00994989 -5.99029e-06 0)
(0.00995735 -5.90367e-06 0)
(0.00996472 -5.81605e-06 0)
(0.009972 -5.7277e-06 0)
(0.00997918 -5.63821e-06 0)
(0.00998626 -5.54591e-06 0)
(0.00999324 -5.44989e-06 0)
(0.0100001 -5.35862e-06 0)
(0.0100069 -5.27224e-06 0)
(0.0100136 -5.18791e-06 0)
(0.0100201 -5.09487e-06 0)
(0.0100266 -4.9969e-06 0)
(0.010033 -4.90037e-06 0)
(0.0100393 -4.80903e-06 0)
(0.0100455 -4.72349e-06 0)
(0.0100516 -4.6421e-06 0)
(0.0100576 -4.56335e-06 0)
(0.0100635 -4.48628e-06 0)
(0.0100694 -4.41036e-06 0)
(0.0100751 -4.33531e-06 0)
(0.0100807 -4.26102e-06 0)
(0.0100862 -4.18735e-06 0)
(0.0100916 -4.11407e-06 0)
(0.010097 -4.0413e-06 0)
(0.0101022 -3.96898e-06 0)
(0.0101073 -3.89709e-06 0)
(0.0101124 -3.82558e-06 0)
(0.0101173 -3.75461e-06 0)
(0.0101221 -3.68391e-06 0)
(0.0101269 -3.6135e-06 0)
(0.0101315 -3.54339e-06 0)
(0.0101361 -3.47363e-06 0)
(0.0101405 -3.40426e-06 0)
(0.0101449 -3.33531e-06 0)
(0.0101491 -3.26682e-06 0)
(0.0101533 -3.19878e-06 0)
(0.0101574 -3.13132e-06 0)
(0.0101614 -3.06438e-06 0)
(0.0101653 -2.9982e-06 0)
(0.0101691 -2.93241e-06 0)
(0.0101728 -2.86723e-06 0)
(0.0101764 -2.80244e-06 0)
(0.01018 -2.7385e-06 0)
(0.0101834 -2.67537e-06 0)
(0.0101868 -2.6133e-06 0)
(0.0101901 -2.55242e-06 0)
(0.0101933 -2.4927e-06 0)
(0.0101965 -2.43449e-06 0)
(0.0101996 -2.37746e-06 0)
(0.0102026 -2.32225e-06 0)
(0.0102055 -2.26854e-06 0)
(0.0102084 -2.21687e-06 0)
(0.0102112 -2.16674e-06 0)
(0.0102139 -2.11873e-06 0)
(0.0102166 -2.07255e-06 0)
(0.0102193 -2.02864e-06 0)
(0.0102218 -1.9868e-06 0)
(0.0102244 -1.9473e-06 0)
(0.0102269 -1.91008e-06 0)
(0.0102293 -1.8753e-06 0)
(0.0102318 -1.84301e-06 0)
(0.0102342 -1.81332e-06 0)
(0.0102365 -1.78632e-06 0)
(0.0102388 -1.76204e-06 0)
(0.0102412 -1.74052e-06 0)
(0.0102435 -1.72156e-06 0)
(0.0102457 -1.70507e-06 0)
(0.010248 -1.69106e-06 0)
(0.0102503 -1.67939e-06 0)
(0.0102525 -1.66989e-06 0)
(0.0102547 -1.66543e-06 0)
(0.010257 -1.65646e-06 0)
(0.0102592 -1.66192e-06 0)
(0.0102615 -1.6502e-06 0)
(0.0102637 -1.66336e-06 0)
(0.010266 -1.65265e-06 0)
(0.0102682 -1.66696e-06 0)
(0.0102705 -1.66327e-06 0)
(0.0102728 -1.6762e-06 0)
(0.0102751 -1.67669e-06 0)
(0.0102774 -1.6866e-06 0)
(0.0102797 -1.69042e-06 0)
(0.010282 -1.69832e-06 0)
(0.0102842 -1.70155e-06 0)
(0.0102866 -1.70788e-06 0)
(0.0102889 -1.70611e-06 0)
(0.0102912 -1.71291e-06 0)
(0.0102934 -1.70786e-06 0)
(0.0102957 -1.71021e-06 0)
(0.010298 -1.70302e-06 0)
(0.0103002 -1.69785e-06 0)
(0.0103024 -1.68751e-06 0)
(0.0103046 -1.67527e-06 0)
(0.0103068 -1.65971e-06 0)
(0.0103089 -1.6411e-06 0)
(0.010311 -1.61902e-06 0)
(0.0103131 -1.59343e-06 0)
(0.0103151 -1.56399e-06 0)
(0.010317 -1.53102e-06 0)
(0.0103189 -1.49463e-06 0)
(0.0103207 -1.45522e-06 0)
(0.0103224 -1.41267e-06 0)
(0.0103241 -1.36713e-06 0)
(0.0103257 -1.31788e-06 0)
(0.0103272 -1.26512e-06 0)
(0.0103287 -1.2081e-06 0)
(0.01033 -1.14769e-06 0)
(0.0103313 -1.08395e-06 0)
(0.0103324 -1.0186e-06 0)
(0.0103335 -9.55719e-07 0)
(0.0103345 -8.92e-07 0)
(0.0103354 -8.29671e-07 0)
(0.0103361 -7.3501e-07 0)
(0.0103368 -6.98125e-07 0)
(0.0103374 -5.83431e-07 0)
(0.0103378 -5.62855e-07 0)
(0.0103383 -4.25132e-07 0)
(0.0103385 -4.25323e-07 0)
(0.0103389 -2.84752e-07 0)
(0.0103386 -2.1372e-07 0)
(0.0103391 -1.36149e-07 0)
(0.0103382 2.55703e-08 0)
(0.0103391 8.08573e-08 0)
(0.010337 3.71624e-07 0)
(0.0103386 4.56368e-07 0)
(0.0103344 1.00552e-06 0)
(0.0103376 1.14586e-06 0)
(0.0103296 2.37956e-06 0)
(-4.42864e-06 5.86368e-06 0)
(-4.63368e-05 5.8954e-05 0)
(-0.000133659 0.000123877 0)
(-0.00026284 0.000181868 0)
(-0.000426317 0.00022736 0)
(-0.000614229 0.000256648 0)
(-0.000819217 0.000275034 0)
(-0.0010342 0.000283532 0)
(-0.00125462 0.000286917 0)
(-0.00147743 0.000286703 0)
(-0.00169996 0.000285103 0)
(-0.00192177 0.00028226 0)
(-0.0021414 0.000279043 0)
(-0.00235901 0.000275975 0)
(-0.00257438 0.000272993 0)
(-0.00278745 0.000269938 0)
(-0.00299825 0.000266639 0)
(-0.00320662 0.000263565 0)
(-0.00341214 0.000259931 0)
(-0.00361531 0.000255573 0)
(-0.00381677 0.00025107 0)
(-0.00401623 0.000246615 0)
(-0.00421381 0.000242319 0)
(-0.00440933 0.000238208 0)
(-0.00460279 0.000234429 0)
(-0.00479415 0.000231005 0)
(-0.00498337 0.00022825 0)
(-0.00517052 0.000226033 0)
(-0.00535552 0.000224699 0)
(-0.00553852 0.000223982 0)
(-0.0057194 0.00022412 0)
(-0.00589832 0.000224681 0)
(-0.00607547 0.000225743 0)
(-0.00625154 0.000230416 0)
(-0.00642568 0.000232449 0)
(-0.00659611 0.000235005 0)
(-0.00676403 0.000238452 0)
(-0.00693015 0.000241618 0)
(-0.00709431 0.000244338 0)
(-0.00725652 0.000246505 0)
(-0.00741688 0.000247972 0)
(-0.00757548 0.000248752 0)
(-0.0077326 0.000248775 0)
(-0.00788836 0.000248133 0)
(-0.00804298 0.000246933 0)
(-0.00819652 0.000245281 0)
(-0.00834895 0.000243301 0)
(-0.00850025 0.000241084 0)
(-0.00865039 0.000238663 0)
(-0.00879934 0.000236097 0)
(-0.00894718 0.000233037 0)
(-0.00909345 0.000230046 0)
(-0.00923898 0.000225916 0)
(-0.00938248 0.000221916 0)
(-0.0095258 0.000215933 0)
(-0.00966711 0.000209837 0)
(-0.00981132 0.000202529 0)
(-0.00995279 0.000190395 0)
(-0.0100962 0.000181642 0)