/*--------------------------------*- C++ -*----------------------------------*\
| =========                 |                                                 |
| \\      /  F ield         | OpenFOAM: The Open Source CFD Toolbox           |
|  \\    /   O peration     | Version:  2012                                  |
|   \\  /    A nd           | Website:  www.openfoam.com                      |
|    \\/     M anipulation  |                                                 |
\*---------------------------------------------------------------------------*/
FoamFile
{
    version     2.0;
    format      ascii;
    class       volVectorField;
    location    "0.00017";
    object      U;
}
// * * * * * * * * * * * * * * * * * * * * * * * * * * * * * * * * * * * * * //

dimensions      [0 1 -1 0 0 0 0];


internalField   nonuniform List<vector> 
5000
(
(1.062071728e-13 0 0)
(1.159935661e-13 0 0)
(1.201802364e-13 0 0)
(1.19456509e-13 0 0)
(1.11882908e-13 0 0)
(1.007461985e-13 0 0)
(6.646699015e-14 0 0)
(-4.775778007e-15 0 0)
(-1.23178813e-13 0 0)
(-2.36431277e-13 0 0)
(-1.941020927e-13 0 0)
(-6.895485962e-14 0 0)
(-8.786336046e-14 0 0)
(-1.453692698e-13 0 0)
(-1.440407429e-13 0 0)
(-1.066739372e-13 0 0)
(-5.444887181e-15 0 0)
(5.879465964e-14 0 0)
(3.929102332e-14 0 0)
(-1.178417504e-14 0 0)
(-4.635898328e-14 0 0)
(-7.753672477e-14 0 0)
(-9.241353476e-14 0 0)
(-9.143743738e-14 0 0)
(-8.639211575e-14 0 0)
(-7.909648944e-14 0 0)
(-8.023565679e-14 0 0)
(-8.272797118e-14 0 0)
(-8.474465061e-14 0 0)
(-8.633956748e-14 0 0)
(-7.018250802e-14 0 0)
(-4.755841776e-14 0 0)
(-3.504413005e-14 0 0)
(6.76781509e-14 0 0)
(1.82459665e-13 0 0)
(2.194111479e-13 0 0)
(1.693530298e-13 0 0)
(1.735630774e-13 0 0)
(1.721738648e-13 0 0)
(1.747469474e-13 0 0)
(1.780225107e-13 0 0)
(1.831617271e-13 0 0)
(1.837297108e-13 0 0)
(1.87712091e-13 0 0)
(2.050048619e-13 0 0)
(2.322680535e-13 0 0)
(2.583754059e-13 0 0)
(2.643528029e-13 0 0)
(2.390223023e-13 0 0)
(1.786466297e-13 0 0)
(1.689716869e-13 0 0)
(1.926301053e-13 0 0)
(1.599889013e-13 0 0)
(1.955456968e-13 0 0)
(2.51855349e-13 0 0)
(1.679186277e-13 0 0)
(1.421141124e-13 0 0)
(1.226524314e-13 0 0)
(9.587288051e-14 0 0)
(1.005763292e-13 0 0)
(1.007824513e-13 0 0)
(1.040751214e-13 0 0)
(1.067521943e-13 0 0)
(1.044036287e-13 0 0)
(9.865709427e-14 0 0)
(8.822305515e-14 0 0)
(7.861209603e-14 0 0)
(7.330075533e-14 0 0)
(6.985157515e-14 0 0)
(6.859931542e-14 0 0)
(6.443744015e-14 0 0)
(5.716407619e-14 0 0)
(4.254495657e-14 0 0)
(3.252839348e-14 0 0)
(3.945397629e-14 0 0)
(5.569580288e-14 0 0)
(7.715211193e-14 0 0)
(9.041828766e-14 0 0)
(9.48507149e-14 0 0)
(1.000987608e-13 0 0)
(8.20701682e-14 0 0)
(3.098816902e-14 0 0)
(5.120019671e-14 0 0)
(1.171964676e-13 0 0)
(1.394533507e-13 0 0)
(1.911454575e-13 0 0)
(2.28409882e-13 0 0)
(3.451528944e-13 0 0)
(3.501459625e-13 0 0)
(2.713848669e-13 0 0)
(2.048302316e-13 0 0)
(1.79140245e-13 0 0)
(1.849856721e-13 0 0)
(1.923934388e-13 0 0)
(1.834004555e-13 0 0)
(1.553445188e-13 0 0)
(1.430655134e-13 0 0)
(1.291889224e-13 0 0)
(1.337404171e-13 0 0)
(1.408349338e-13 0 0)
(1.26089848e-13 0 0)
(1.317895536e-13 0 0)
(9.910593485e-14 0 0)
(4.170490093e-14 0 0)
(6.128757587e-16 0 0)
(-1.887359511e-14 0 0)
(-2.802272724e-14 0 0)
(-2.357599269e-14 0 0)
(-1.251448137e-14 0 0)
(2.849306267e-15 0 0)
(1.952528212e-14 0 0)
(2.970998479e-14 0 0)
(4.080316077e-14 0 0)
(4.652505428e-14 0 0)
(5.388334162e-14 0 0)
(6.013842463e-14 0 0)
(7.040334173e-14 0 0)
(9.207902478e-14 0 0)
(1.127672282e-13 0 0)
(1.205012748e-13 0 0)
(1.189530885e-13 0 0)
(1.092748023e-13 0 0)
(1.056433363e-13 0 0)
(1.16434901e-13 0 0)
(1.25892502e-13 0 0)
(1.246028902e-13 0 0)
(1.173228003e-13 0 0)
(9.428980977e-14 0 0)
(6.548043912e-14 0 0)
(4.260225674e-14 0 0)
(3.476864378e-14 0 0)
(2.906624574e-14 0 0)
(2.985156132e-14 0 0)
(3.115436717e-14 0 0)
(2.802709578e-14 0 0)
(2.665094225e-14 0 0)
(2.324871718e-14 0 0)
(1.943282802e-14 0 0)
(1.336925276e-14 0 0)
(1.200013524e-14 0 0)
(1.359238175e-14 0 0)
(1.492424008e-14 0 0)
(1.224754975e-14 0 0)
(7.975363973e-15 0 0)
(-4.850157549e-16 0 0)
(-9.567064626e-15 0 0)
(-1.86971272e-14 0 0)
(-3.268640749e-14 0 0)
(-5.712455784e-14 0 0)
(-8.288851466e-14 0 0)
(-1.121938062e-13 0 0)
(-1.264105672e-13 0 0)
(-1.311159419e-13 0 0)
(-1.284220138e-13 0 0)
(-1.265222393e-13 0 0)
(-1.248423749e-13 0 0)
(-1.211710785e-13 0 0)
(-1.216376535e-13 0 0)
(-1.199432607e-13 0 0)
(-1.113552703e-13 0 0)
(-9.754494308e-14 0 0)
(-8.234372701e-14 0 0)
(-6.826564137e-14 0 0)
(-5.913746816e-14 0 0)
(-5.735960026e-14 0 0)
(-5.722442289e-14 0 0)
(-6.22981635e-14 0 0)
(-7.367689981e-14 0 0)
(-8.185264845e-14 0 0)
(-9.678901553e-14 0 0)
(-1.029081128e-13 0 0)
(-1.110007954e-13 0 0)
(-1.133131066e-13 0 0)
(-1.226121907e-13 0 0)
(-1.25689068e-13 0 0)
(-1.372486902e-13 0 0)
(-1.557255842e-13 0 0)
(-1.206631834e-13 0 0)
(-7.165217269e-14 0 0)
(-1.189817433e-13 0 0)
(-1.546813903e-13 0 0)
(-1.240058311e-13 0 0)
(-8.515648053e-14 0 0)
(-1.220197326e-13 0 0)
(-1.370583482e-13 0 0)
(-9.713729112e-14 0 0)
(-6.951525178e-14 0 0)
(-3.503722402e-14 0 0)
(-2.02927546e-14 0 0)
(1.742909534e-16 0 0)
(1.460305638e-14 0 0)
(2.931347274e-14 0 0)
(4.154703861e-14 0 0)
(5.065038109e-14 0 0)
(6.242243347e-14 0 0)
(7.016469955e-14 0 0)
(8.133442165e-14 0 0)
(9.283491801e-14 0 0)
(1.083925925e-13 0 0)
(1.174490095e-13 0 0)
(1.238687374e-13 0 0)
(1.250680935e-13 0 0)
(1.190511161e-13 0 0)
(9.825671077e-14 0 0)
(8.241262086e-14 0 0)
(6.954514612e-14 0 0)
(6.385794119e-14 0 0)
(6.582274055e-14 0 0)
(6.880559398e-14 0 0)
(6.834321614e-14 0 0)
(6.334071425e-14 0 0)
(5.636185591e-14 0 0)
(4.78746478e-14 0 0)
(2.896577056e-14 0 0)
(1.287878346e-14 0 0)
(1.233873538e-15 0 0)
(-6.826544134e-15 0 0)
(-1.531859807e-14 0 0)
(-2.166182979e-14 0 0)
(-2.961791422e-14 0 0)
(-3.550382403e-14 0 0)
(-3.891017202e-14 0 0)
(-3.555366656e-14 0 0)
(-2.016704295e-14 0 0)
(1.259159498e-15 0 0)
(1.199057128e-14 0 0)
(2.807845232e-14 0 0)
(3.005043727e-14 0 0)
(3.493870265e-14 0 0)
(3.647798997e-14 0 0)
(3.854063492e-14 0 0)
(3.80764936e-14 0 0)
(4.149078148e-14 0 0)
(4.943736152e-14 0 0)
(5.742980614e-14 0 0)
(5.822159521e-14 0 0)
(5.703609294e-14 0 0)
(4.99396919e-14 0 0)
(4.112915419e-14 0 0)
(3.372553965e-14 0 0)
(2.662115469e-14 0 0)
(2.571069464e-14 0 0)
(2.621023326e-14 0 0)
(2.935321463e-14 0 0)
(3.726509903e-14 0 0)
(4.338710491e-14 0 0)
(6.764714029e-14 0 0)
(8.397005156e-14 0 0)
(1.074982969e-13 0 0)
(1.21675421e-13 0 0)
(1.278969442e-13 0 0)
(1.326941868e-13 0 0)
(1.3492421e-13 0 0)
(1.345489206e-13 0 0)
(1.336572353e-13 0 0)
(1.268682204e-13 0 0)
(1.132929606e-13 0 0)
(9.638114394e-14 0 0)
(7.04642488e-14 0 0)
(5.297705772e-14 0 0)
(2.84485927e-14 0 0)
(1.44064828e-14 0 0)
(1.727280461e-15 0 0)
(-3.333436781e-15 0 0)
(-5.385936e-15 0 0)
(-9.191191917e-15 0 0)
(-1.450944333e-14 0 0)
(-1.805565948e-14 0 0)
(-2.514972487e-14 0 0)
(-3.095133988e-14 0 0)
(-3.100554091e-14 0 0)
(-2.782806152e-14 0 0)
(-2.638735128e-14 0 0)
(-1.223250454e-14 0 0)
(7.422214664e-15 0 0)
(1.549050314e-14 0 0)
(2.172762451e-14 0 0)
(2.024181347e-14 0 0)
(1.677440385e-14 0 0)
(2.527043172e-15 0 0)
(-1.226485256e-14 0 0)
(-2.449024073e-14 0 0)
(-3.27551133e-14 0 0)
(-3.237346688e-14 0 0)
(-3.090825789e-14 0 0)
(-2.204878157e-14 0 0)
(-2.100003959e-14 0 0)
(-2.007939261e-14 0 0)
(-2.267275973e-14 0 0)
(-2.177142413e-14 0 0)
(-1.97079045e-14 0 0)
(-1.510215799e-14 0 0)
(-8.299161951e-15 0 0)
(1.675272873e-15 0 0)
(9.385171107e-15 0 0)
(1.811556914e-14 0 0)
(2.424419505e-14 0 0)
(2.618499976e-14 0 0)
(2.669893477e-14 0 0)
(2.65035685e-14 0 0)
(2.691674606e-14 0 0)
(1.688715843e-14 0 0)
(4.560404384e-15 0 0)
(-6.494460379e-15 0 0)
(-1.702746388e-14 0 0)
(-3.092021235e-14 0 0)
(-4.023414227e-14 0 0)
(-4.24449848e-14 0 0)
(-3.933392959e-14 0 0)
(-2.965285381e-14 0 0)
(-1.357397338e-14 0 0)
(-1.591516446e-15 0 0)
(1.309482815e-14 0 0)
(2.883167427e-14 0 0)
(3.681743464e-14 0 0)
(3.81234438e-14 0 0)
(4.056180011e-14 0 0)
(4.037206342e-14 0 0)
(3.93326815e-14 0 0)
(3.162789858e-14 0 0)
(2.547337358e-14 0 0)
(1.840237145e-14 0 0)
(9.711320963e-15 0 0)
(3.904367701e-15 0 0)
(1.184054744e-14 0 0)
(1.684164995e-14 0 0)
(2.114752648e-14 0 0)
(2.125016985e-14 0 0)
(2.001643565e-14 0 0)
(1.919428492e-14 0 0)
(1.435726993e-14 0 0)
(4.442795683e-15 0 0)
(-6.328958039e-15 0 0)
(-1.462419412e-14 0 0)
(-2.539678635e-14 0 0)
(-3.746118595e-14 0 0)
(-4.613684145e-14 0 0)
(-5.508575749e-14 0 0)
(-6.145212279e-14 0 0)
(-6.727706171e-14 0 0)
(-6.79686908e-14 0 0)
(-6.13504183e-14 0 0)
(-3.964714615e-14 0 0)
(-2.385661037e-14 0 0)
(-3.763397344e-15 0 0)
(6.933156901e-15 0 0)
(1.801984704e-14 0 0)
(2.856427711e-14 0 0)
(3.599194305e-14 0 0)
(4.078266213e-14 0 0)
(4.254425427e-14 0 0)
(3.985330375e-14 0 0)
(3.242413203e-14 0 0)
(1.995878397e-14 0 0)
(1.181031481e-14 0 0)
(1.262167458e-15 0 0)
(-5.107234879e-15 0 0)
(-1.099595552e-14 0 0)
(-1.381452712e-14 0 0)
(-8.713902734e-15 0 0)
(3.647458387e-15 0 0)
(1.954826856e-14 0 0)
(2.983078868e-14 0 0)
(3.693492299e-14 0 0)
(4.199760598e-14 0 0)
(4.330433849e-14 0 0)
(3.616947514e-14 0 0)
(2.396467892e-14 0 0)
(3.588109636e-15 0 0)
(-1.103213926e-14 0 0)
(-2.358271746e-14 0 0)
(-2.623843949e-14 0 0)
(-2.570553859e-14 0 0)
(-1.980324764e-14 0 0)
(-1.006297136e-14 0 0)
(2.422612163e-15 0 0)
(3.849400769e-15 0 0)
(4.722574924e-17 0 0)
(-6.483459985e-15 0 0)
(-6.383134757e-15 0 0)
(-6.35171563e-15 0 0)
(-6.354058071e-15 0 0)
(-6.50414015e-15 0 0)
(-7.298744622e-15 0 0)
(-7.955791133e-15 0 0)
(-1.000432165e-14 0 0)
(-1.186878036e-14 0 0)
(-9.078809004e-15 0 0)
(-1.368868401e-15 0 0)
(7.997091575e-15 0 0)
(1.162530008e-14 0 0)
(1.130350612e-14 0 0)
(9.888978969e-15 0 0)
(7.579173105e-15 0 0)
(2.884002474e-15 0 0)
(9.454015746e-16 0 0)
(1.299414998e-15 0 0)
(-1.251556165e-15 0 0)
(-3.20159426e-15 0 0)
(-1.082364799e-15 0 0)
(5.458544449e-15 0 0)
(1.180863154e-14 0 0)
(1.052220622e-14 0 0)
(8.815830356e-15 0 0)
(5.505504549e-15 0 0)
(-1.181369014e-14 0 0)
(-3.056732149e-14 0 0)
(-3.932298477e-14 0 0)
(-3.714053727e-14 0 0)
(-2.817902829e-14 0 0)
(-2.705431051e-14 0 0)
(-2.230861832e-14 0 0)
(-1.896236239e-14 0 0)
(-1.359199007e-14 0 0)
(-5.962317886e-15 0 0)
(-3.323607124e-15 0 0)
(-1.834099731e-15 0 0)
(1.744673007e-15 0 0)
(4.680610369e-15 0 0)
(1.473817985e-14 0 0)
(2.111651228e-14 0 0)
(2.383190259e-14 0 0)
(2.294777473e-14 0 0)
(1.583972551e-14 0 0)
(7.784125221e-15 0 0)
(7.588747075e-15 0 0)
(8.061909805e-15 0 0)
(7.540153125e-15 0 0)
(6.114791339e-15 0 0)
(1.6176998e-15 0 0)
(-4.542182402e-15 0 0)
(-1.264169182e-14 0 0)
(-1.589098216e-14 0 0)
(-1.524522251e-14 0 0)
(-1.283998495e-14 0 0)
(-1.172462566e-14 0 0)
(-7.984777213e-15 0 0)
(-5.796817682e-15 0 0)
(5.204813222e-17 0 0)
(1.282453371e-15 0 0)
(-2.867108817e-15 0 0)
(-1.047654907e-14 0 0)
(-2.210185678e-14 0 0)
(-2.917776508e-14 0 0)
(-2.84730124e-14 0 0)
(-2.668378745e-14 0 0)
(-1.971966566e-14 0 0)
(-1.289932982e-14 0 0)
(5.975181298e-16 0 0)
(1.289618999e-14 0 0)
(3.025949189e-14 0 0)
(3.910068868e-14 0 0)
(3.694459316e-14 0 0)
(3.509538202e-14 0 0)
(3.5126118e-14 0 0)
(3.334016959e-14 0 0)
(2.765235927e-14 0 0)
(2.424717153e-14 0 0)
(1.68761469e-14 0 0)
(1.396041262e-14 0 0)
(9.117614756e-15 0 0)
(5.179571856e-15 0 0)
(5.547320397e-15 0 0)
(6.993766718e-15 0 0)
(7.9858463e-15 0 0)
(8.396798517e-15 0 0)
(7.314622127e-15 0 0)
(9.235150989e-15 0 0)
(1.208859519e-14 0 0)
(9.085756518e-15 0 0)
(-3.560236939e-15 0 0)
(-1.563552518e-14 0 0)
(-3.530012316e-14 0 0)
(-4.112201509e-14 0 0)
(-5.432638689e-14 0 0)
(-6.071946097e-14 0 0)
(-5.629617876e-14 0 0)
(-4.127639984e-14 0 0)
(-1.7524808e-14 0 0)
(1.160511229e-14 0 0)
(3.071791701e-14 0 0)
(4.05679768e-14 0 0)
(4.43051223e-14 0 0)
(4.451318592e-14 0 0)
(3.833053744e-14 0 0)
(3.162787028e-14 0 0)
(2.688130079e-14 0 0)
(2.222745121e-14 0 0)
(1.296784712e-14 0 0)
(-2.081167492e-15 0 0)
(-1.309847944e-14 0 0)
(-2.529834067e-14 0 0)
(-2.584953461e-14 0 0)
(-2.018640947e-14 0 0)
(-1.414753778e-14 0 0)
(-9.008034891e-15 0 0)
(-4.129520642e-15 0 0)
(4.297826797e-15 0 0)
(5.718452635e-15 0 0)
(6.753035268e-15 0 0)
(6.972198804e-15 0 0)
(7.806662128e-15 0 0)
(8.523666712e-15 0 0)
(8.429714978e-15 0 0)
(9.821728126e-15 0 0)
(9.276561063e-15 0 0)
(8.891907738e-15 0 0)
(9.789287888e-15 0 0)
(6.10487757e-15 0 0)
(3.935770072e-15 0 0)
(-3.255763418e-15 0 0)
(-8.960915228e-15 0 0)
(-1.645418823e-14 0 0)
(-2.559103493e-14 0 0)
(-3.256788235e-14 0 0)
(-3.445520197e-14 0 0)
(-3.162840314e-14 0 0)
(-2.813777843e-14 0 0)
(-2.095396234e-14 0 0)
(-8.213427049e-15 0 0)
(1.221457529e-14 0 0)
(2.684051505e-14 0 0)
(3.665319895e-14 0 0)
(3.948753275e-14 0 0)
(3.991009345e-14 0 0)
(3.8244247e-14 0 0)
(3.758600154e-14 0 0)
(3.515244533e-14 0 0)
(3.653911541e-14 0 0)
(3.807889899e-14 0 0)
(4.033513244e-14 0 0)
(3.709788281e-14 0 0)
(2.712765877e-14 0 0)
(1.353262016e-14 0 0)
(-6.19422635e-15 0 0)
(-1.948426641e-14 0 0)
(-2.518116253e-14 0 0)
(-2.306173637e-14 0 0)
(-1.911954206e-14 0 0)
(-1.386443664e-14 0 0)
(4.469947757e-16 0 0)
(1.678659929e-14 0 0)
(2.041427616e-14 0 0)
(2.142572677e-14 0 0)
(2.186610609e-14 0 0)
(1.679539382e-14 0 0)
(2.919714881e-15 0 0)
(-1.34308393e-14 0 0)
(-2.548363787e-14 0 0)
(-3.52439227e-14 0 0)
(-4.221253354e-14 0 0)
(-5.038841862e-14 0 0)
(-5.373646583e-14 0 0)
(-5.484677896e-14 0 0)
(-5.318831052e-14 0 0)
(-4.942293774e-14 0 0)
(-4.419429078e-14 0 0)
(-3.396436844e-14 0 0)
(-2.084117668e-14 0 0)
(-9.253448208e-15 0 0)
(-9.673885984e-16 0 0)
(4.018830896e-15 0 0)
(7.128507346e-16 0 0)
(-3.718096229e-15 0 0)
(-6.495611723e-15 0 0)
(-7.00410605e-16 0 0)
(7.753842799e-15 0 0)
(1.790422662e-14 0 0)
(2.825333919e-14 0 0)
(3.462358669e-14 0 0)
(3.516329209e-14 0 0)
(3.532172584e-14 0 0)
(3.509128832e-14 0 0)
(3.006884784e-14 0 0)
(2.44588198e-14 0 0)
(1.660208746e-14 0 0)
(3.365538805e-15 0 0)
(-6.558018442e-15 0 0)
(-1.479861381e-14 0 0)
(-2.128038436e-14 0 0)
(-2.171638185e-14 0 0)
(-1.749195994e-14 0 0)
(-8.90992549e-15 0 0)
(4.531505994e-16 0 0)
(1.329418656e-14 0 0)
(2.254708583e-14 0 0)
(2.642810492e-14 0 0)
(2.643018845e-14 0 0)
(2.572585215e-14 0 0)
(2.472580931e-14 0 0)
(2.101511808e-14 0 0)
(1.532525913e-14 0 0)
(4.637729291e-15 0 0)
(5.328722687e-15 0 0)
(3.209758151e-15 0 0)
(-2.445446745e-16 0 0)
(-7.438993201e-15 0 0)
(-1.357184721e-14 0 0)
(-2.247131215e-14 0 0)
(-2.765553518e-14 0 0)
(-2.824131565e-14 0 0)
(-3.084770234e-14 0 0)
(-2.839415607e-14 0 0)
(-1.820920185e-14 0 0)
(-7.64635241e-15 0 0)
(1.282309473e-15 0 0)
(8.087347225e-15 0 0)
(1.376182536e-14 0 0)
(1.586395965e-14 0 0)
(1.604679642e-14 0 0)
(1.856792628e-14 0 0)
(2.308323413e-14 0 0)
(2.387783447e-14 0 0)
(2.553359164e-14 0 0)
(2.326264584e-14 0 0)
(1.975488743e-14 0 0)
(1.576875017e-14 0 0)
(1.122380361e-14 0 0)
(1.387216608e-14 0 0)
(1.307280312e-14 0 0)
(1.121238237e-14 0 0)
(1.20155958e-14 0 0)
(8.794444086e-15 0 0)
(-2.781579434e-15 0 0)
(-1.105401631e-14 0 0)
(-1.472756552e-14 0 0)
(-1.259296863e-14 0 0)
(-9.192395802e-15 0 0)
(-8.092294035e-15 0 0)
(3.568270028e-16 0 0)
(9.04099123e-15 0 0)
(1.137772197e-14 0 0)
(1.505955774e-14 0 0)
(1.832635872e-14 0 0)
(2.019071407e-14 0 0)
(2.019064236e-14 0 0)
(1.969662734e-14 0 0)
(1.581578406e-14 0 0)
(6.831339843e-15 0 0)
(1.816967763e-15 0 0)
(-6.699679468e-15 0 0)
(-1.418215152e-14 0 0)
(-2.10486075e-14 0 0)
(-2.657132026e-14 0 0)
(-2.977337299e-14 0 0)
(-3.084590392e-14 0 0)
(-3.139076641e-14 0 0)
(-2.93709954e-14 0 0)
(-2.895429807e-14 0 0)
(-2.251665759e-14 0 0)
(-1.578171629e-14 0 0)
(-3.84446325e-15 0 0)
(7.078790527e-15 0 0)
(2.279399822e-14 0 0)
(3.046163277e-14 0 0)
(3.582140916e-14 0 0)
(3.105634467e-14 0 0)
(2.641480174e-14 0 0)
(1.693781157e-14 0 0)
(1.846418045e-15 0 0)
(-5.685101066e-15 0 0)
(-8.666980632e-15 0 0)
(-9.055176749e-15 0 0)
(-8.857944679e-15 0 0)
(-1.084522746e-14 0 0)
(-1.233291667e-14 0 0)
(-1.133698835e-14 0 0)
(-1.02872385e-14 0 0)
(-7.130804164e-15 0 0)
(-6.508630606e-15 0 0)
(-3.364521198e-15 0 0)
(-4.133139355e-16 0 0)
(-9.709661967e-17 0 0)
(-3.180859857e-15 0 0)
(-3.246963729e-15 0 0)
(-2.43261671e-15 0 0)
(-2.229290765e-15 0 0)
(-2.628245713e-15 0 0)
(-3.07208091e-15 0 0)
(-1.512295871e-15 0 0)
(-1.397805607e-15 0 0)
(2.204151253e-15 0 0)
(6.005206417e-15 0 0)
(4.853282885e-15 0 0)
(2.518956025e-15 0 0)
(-2.450961342e-15 0 0)
(-7.465638973e-15 0 0)
(-1.253386579e-14 0 0)
(-1.743560907e-14 0 0)
(-1.759014064e-14 0 0)
(-1.618350293e-14 0 0)
(-7.348555576e-15 0 0)
(4.895437e-15 0 0)
(1.459897781e-14 0 0)
(1.890901805e-14 0 0)
(2.12288311e-14 0 0)
(2.063467935e-14 0 0)
(2.157559199e-14 0 0)
(2.111229672e-14 0 0)
(1.832180232e-14 0 0)
(1.512623081e-14 0 0)
(9.704725328e-15 0 0)
(9.119898306e-15 0 0)
(6.699715125e-15 0 0)
(7.148386617e-15 0 0)
(6.155198695e-15 0 0)
(4.463391549e-16 0 0)
(-4.259504715e-15 0 0)
(-5.02364475e-15 0 0)
(-4.618196418e-15 0 0)
(-4.302210359e-15 0 0)
(-4.201648184e-16 0 0)
(3.759376403e-15 0 0)
(1.079822206e-14 0 0)
(2.032350771e-14 0 0)
(2.739588359e-14 0 0)
(3.428760782e-14 0 0)
(3.660952416e-14 0 0)
(3.502714945e-14 0 0)
(2.6563586e-14 0 0)
(1.50226947e-14 0 0)
(2.913405902e-16 0 0)
(-1.264934056e-14 0 0)
(-2.780275096e-14 0 0)
(-4.033218269e-14 0 0)
(-4.898734745e-14 0 0)
(-5.247431345e-14 0 0)
(-5.561452366e-14 0 0)
(-4.63627897e-14 0 0)
(-3.146144466e-14 0 0)
(-1.64940632e-14 0 0)
(4.175528036e-15 0 0)
(1.997282637e-14 0 0)
(2.853301309e-14 0 0)
(3.432956713e-14 0 0)
(3.930872555e-14 0 0)
(3.92880486e-14 0 0)
(3.636037568e-14 0 0)
(2.977763761e-14 0 0)
(1.991399215e-14 0 0)
(5.960499303e-15 0 0)
(-4.755125147e-15 0 0)
(-1.815120986e-14 0 0)
(-2.462348104e-14 0 0)
(-3.284495706e-14 0 0)
(-3.427159199e-14 0 0)
(-3.311268655e-14 0 0)
(-2.360125087e-14 0 0)
(-1.07703401e-14 0 0)
(2.840041165e-15 0 0)
(1.292577081e-14 0 0)
(1.838322529e-14 0 0)
(2.109886936e-14 0 0)
(2.33372905e-14 0 0)
(2.13045349e-14 0 0)
(1.757498404e-14 0 0)
(1.192336644e-14 0 0)
(1.691317441e-15 0 0)
(-8.902902362e-15 0 0)
(-2.069943287e-14 0 0)
(-2.919547383e-14 0 0)
(-3.584216353e-14 0 0)
(-3.99607848e-14 0 0)
(-3.666563541e-14 0 0)
(-3.027468391e-14 0 0)
(-2.174575378e-14 0 0)
(-1.782042792e-14 0 0)
(-1.270067451e-14 0 0)
(-7.556701954e-15 0 0)
(-7.025737985e-15 0 0)
(-2.381999722e-15 0 0)
(4.517647341e-15 0 0)
(9.120476934e-15 0 0)
(1.15145531e-14 0 0)
(1.0058224e-14 0 0)
(7.01830503e-15 0 0)
(3.957524037e-15 0 0)
(3.6028816e-15 0 0)
(4.877836076e-15 0 0)
(5.278818231e-15 0 0)
(3.512898251e-15 0 0)
(1.933097369e-16 0 0)
(-4.263392876e-15 0 0)
(-1.087771798e-14 0 0)
(-1.049124868e-14 0 0)
(-9.864576705e-15 0 0)
(-1.06764186e-14 0 0)
(-1.037308844e-14 0 0)
(-7.981497625e-15 0 0)
(-4.500176679e-15 0 0)
(2.920726988e-15 0 0)
(1.052747259e-14 0 0)
(1.321028445e-14 0 0)
(1.320526871e-14 0 0)
(1.087709264e-14 0 0)
(7.512201334e-15 0 0)
(1.506938541e-15 0 0)
(6.304134522e-16 0 0)
(2.885873445e-15 0 0)
(8.51825514e-15 0 0)
(1.402724949e-14 0 0)
(1.431431061e-14 0 0)
(1.535399309e-14 0 0)
(1.662681158e-14 0 0)
(1.917671714e-14 0 0)
(2.021455854e-14 0 0)
(2.123059091e-14 0 0)
(2.183503528e-14 0 0)
(2.826927153e-14 0 0)
(3.441059771e-14 0 0)
(3.736868519e-14 0 0)
(3.346234152e-14 0 0)
(2.693158795e-14 0 0)
(1.960500779e-14 0 0)
(8.856495057e-15 0 0)
(9.664861337e-16 0 0)
(-1.315018372e-14 0 0)
(-2.487228247e-14 0 0)
(-3.836485911e-14 0 0)
(-4.361776773e-14 0 0)
(-4.867539682e-14 0 0)
(-4.907772064e-14 0 0)
(-4.789890923e-14 0 0)
(-3.149069939e-14 0 0)
(-1.80098068e-14 0 0)
(-8.080097706e-15 0 0)
(-5.779914719e-15 0 0)
(-6.86463861e-15 0 0)
(-1.241935339e-14 0 0)
(-2.739955907e-14 0 0)
(-3.35023146e-14 0 0)
(-3.655900983e-14 0 0)
(-3.930257373e-14 0 0)
(-3.959424694e-14 0 0)
(-3.604545346e-14 0 0)
(-2.75194871e-14 0 0)
(-2.402545916e-14 0 0)
(-1.812672032e-14 0 0)
(-1.658847293e-14 0 0)
(-1.167847139e-14 0 0)
(-9.209736025e-15 0 0)
(4.579758528e-15 0 0)
(2.615685274e-14 0 0)
(4.801088314e-14 0 0)
(5.574906799e-14 0 0)
(5.799216471e-14 0 0)
(5.39627932e-14 0 0)
(4.805007334e-14 0 0)
(3.786916735e-14 0 0)
(2.448118356e-14 0 0)
(5.976809753e-16 0 0)
(-1.51903298e-14 0 0)
(-2.799705804e-14 0 0)
(-3.647293519e-14 0 0)
(-4.671911701e-14 0 0)
(-4.734503383e-14 0 0)
(-4.112468014e-14 0 0)
(-2.486098442e-14 0 0)
(-1.28324651e-14 0 0)
(-2.890967327e-15 0 0)
(-2.757254234e-16 0 0)
(-7.201066047e-16 0 0)
(1.665767249e-15 0 0)
(5.14972801e-15 0 0)
(1.214490552e-14 0 0)
(1.969413572e-14 0 0)
(2.3642748e-14 0 0)
(2.899671372e-14 0 0)
(2.85749005e-14 0 0)
(2.978345443e-14 0 0)
(1.984290475e-14 0 0)
(9.554805114e-15 0 0)
(-3.232638415e-15 0 0)
(-1.258353352e-14 0 0)
(-2.01056888e-14 0 0)
(-2.597426734e-14 0 0)
(-3.023892039e-14 0 0)
(-3.207401945e-14 0 0)
(-3.557789043e-14 0 0)
(-3.382398395e-14 0 0)
(-3.01332452e-14 0 0)
(-2.877367403e-14 0 0)
(-2.624929845e-14 0 0)
(-2.438822007e-14 0 0)
(-1.655772005e-14 0 0)
(-1.205905444e-14 0 0)
(-9.344486892e-15 0 0)
(-8.603165484e-15 0 0)
(-1.251872041e-14 0 0)
(-1.488980132e-14 0 0)
(-1.557475974e-14 0 0)
(-1.43127726e-14 0 0)
(-1.159101947e-14 0 0)
(-9.138958259e-15 0 0)
(-2.932372592e-15 0 0)
(4.085442491e-15 0 0)
(1.545218785e-14 0 0)
(2.513124102e-14 0 0)
(3.474426395e-14 0 0)
(3.595543518e-14 0 0)
(3.306918702e-14 0 0)
(2.183867417e-14 0 0)
(1.491344675e-14 0 0)
(1.488105756e-14 0 0)
(1.949188833e-14 0 0)
(2.057953243e-14 0 0)
(2.235262332e-14 0 0)
(2.300803938e-14 0 0)
(1.86711452e-14 0 0)
(1.365622918e-14 0 0)
(6.473025835e-15 0 0)
(1.363898063e-15 0 0)
(-2.095317593e-15 0 0)
(-3.243266483e-15 0 0)
(-2.302040947e-15 0 0)
(9.691973712e-16 0 0)
(9.315926452e-15 0 0)
(1.834736741e-14 0 0)
(2.164560476e-14 0 0)
(2.405316983e-14 0 0)
(2.287370517e-14 0 0)
(2.196970582e-14 0 0)
(2.109355101e-14 0 0)
(1.945191122e-14 0 0)
(1.360689345e-14 0 0)
(9.026837934e-15 0 0)
(4.668729012e-15 0 0)
(7.322736882e-16 0 0)
(-2.302342504e-15 0 0)
(-5.592717316e-15 0 0)
(-9.046198123e-15 0 0)
(-8.448830377e-15 0 0)
(-6.890783871e-15 0 0)
(-3.982229755e-15 0 0)
(1.110293983e-15 0 0)
(4.471024153e-15 0 0)
(7.147150273e-15 0 0)
(5.932579028e-15 0 0)
(4.710490309e-15 0 0)
(4.679091361e-15 0 0)
(4.814611693e-15 0 0)
(3.523126615e-16 0 0)
(-8.117636088e-15 0 0)
(-1.20403746e-14 0 0)
(-1.308614924e-14 0 0)
(-9.842780154e-15 0 0)
(1.391533006e-15 0 0)
(9.095413764e-15 0 0)
(1.243895457e-14 0 0)
(1.003464153e-14 0 0)
(6.89166876e-15 0 0)
(5.161569663e-16 0 0)
(9.056072212e-16 0 0)
(8.41229229e-16 0 0)
(3.359685004e-15 0 0)
(4.796288143e-15 0 0)
(4.549289039e-15 0 0)
(7.896957396e-15 0 0)
(9.032854878e-15 0 0)
(8.469164634e-15 0 0)
(1.178249679e-14 0 0)
(1.455496467e-14 0 0)
(1.568359026e-14 0 0)
(1.09004709e-14 0 0)
(3.500953585e-16 0 0)
(-2.729214809e-14 0 0)
(-6.002785819e-14 0 0)
(-9.443442098e-14 0 0)
(-1.103211642e-13 0 0)
(-1.12222545e-13 0 0)
(-1.070863517e-13 0 0)
(-1.22190886e-13 0 0)
(-1.394179103e-13 0 0)
(-1.42699929e-13 0 0)
(-1.467203519e-13 0 0)
(-1.312373932e-13 0 0)
(-1.216088612e-13 0 0)
(-1.197852348e-13 0 0)
(-1.183713914e-13 0 0)
(-1.053081284e-13 0 0)
(-7.430427247e-14 0 0)
(-5.536946231e-14 0 0)
(-7.199066155e-14 0 0)
(-1.062383628e-13 0 0)
(-1.24929937e-13 0 0)
(-1.297221559e-13 0 0)
(-1.225832024e-13 0 0)
(-1.091085778e-13 0 0)
(-1.033258447e-13 0 0)
(-1.011529123e-13 0 0)
(-1.001948546e-13 0 0)
(-9.728052897e-14 0 0)
(-9.305282643e-14 0 0)
(-8.105949765e-14 0 0)
(-6.447360388e-14 0 0)
(-4.739344461e-14 0 0)
(-3.064623228e-14 0 0)
(-2.290676178e-14 0 0)
(-1.835240816e-14 0 0)
(-1.571426798e-14 0 0)
(-1.670364679e-14 0 0)
(-1.540409396e-14 0 0)
(-1.367807055e-14 0 0)
(-1.086505004e-14 0 0)
(-7.986294011e-15 0 0)
(-2.998743868e-15 0 0)
(4.784707795e-15 0 0)
(1.47343461e-14 0 0)
(3.639554115e-14 0 0)
(5.822905628e-14 0 0)
(8.303506064e-14 0 0)
(1.022777617e-13 0 0)
(1.205430644e-13 0 0)
(1.326608159e-13 0 0)
(1.352762517e-13 0 0)
(1.338481211e-13 0 0)
(1.23914961e-13 0 0)
(9.69503638e-14 0 0)
(5.696541127e-14 0 0)
(2.709226226e-14 0 0)
(7.941898964e-15 0 0)
(2.327223926e-15 0 0)
(2.158104208e-15 0 0)
(8.103777598e-15 0 0)
(2.087500429e-14 0 0)
(4.381476491e-14 0 0)
(6.901980173e-14 0 0)
(8.417586395e-14 0 0)
(8.519671896e-14 0 0)
(8.179688876e-14 0 0)
(7.071220543e-14 0 0)
(6.36199863e-14 0 0)
(6.225128424e-14 0 0)
(6.054951327e-14 0 0)
(6.087683072e-14 0 0)
(5.911546109e-14 0 0)
(4.959602967e-14 0 0)
(4.267039885e-14 0 0)
(3.411918574e-14 0 0)
(2.551071094e-14 0 0)
(1.300750389e-14 0 0)
(-7.974382068e-15 0 0)
(-2.424750796e-14 0 0)
(-3.694467816e-14 0 0)
(-4.383862665e-14 0 0)
(-4.222456722e-14 0 0)
(-4.126953309e-14 0 0)
(-3.971225951e-14 0 0)
(-4.074765049e-14 0 0)
(-4.103432322e-14 0 0)
(-4.097226946e-14 0 0)
(-4.059397905e-14 0 0)
(-3.939886685e-14 0 0)
(-2.650206895e-14 0 0)
(-3.521334002e-15 0 0)
(2.926283332e-14 0 0)
(5.631491687e-14 0 0)
(7.288133772e-14 0 0)
(7.690558695e-14 0 0)
(7.901862987e-14 0 0)
(7.451555622e-14 0 0)
(6.701254585e-14 0 0)
(5.285480535e-14 0 0)
(3.638603212e-14 0 0)
(1.707450912e-14 0 0)
(-2.686279412e-15 0 0)
(-3.084991491e-14 0 0)
(-4.387246992e-14 0 0)
(-5.774429728e-14 0 0)
(-6.02066305e-14 0 0)
(-5.863192442e-14 0 0)
(-4.957992426e-14 0 0)
(-3.459256432e-14 0 0)
(-1.159142666e-14 0 0)
(3.973271897e-15 0 0)
(1.310052037e-14 0 0)
(1.444850011e-14 0 0)
(1.558957122e-14 0 0)
(1.322135045e-14 0 0)
(7.856864496e-15 0 0)
(1.805724174e-16 0 0)
(-1.618026151e-14 0 0)
(-3.280486514e-14 0 0)
(-5.207656805e-14 0 0)
(-7.301347005e-14 0 0)
(-9.706143244e-14 0 0)
(-1.185944701e-13 0 0)
(-1.313435066e-13 0 0)
(-1.375552407e-13 0 0)
(-1.371998614e-13 0 0)
(-1.242796668e-13 0 0)
(-9.893070934e-14 0 0)
(-6.062373223e-14 0 0)
(-3.25241692e-14 0 0)
(-1.52300945e-15 0 0)
(1.681690839e-14 0 0)
(2.367875443e-14 0 0)
(2.314538127e-14 0 0)
(1.30163205e-14 0 0)
(2.73200981e-15 0 0)
(-9.852277364e-15 0 0)
(-1.84150973e-14 0 0)
(-3.657388944e-14 0 0)
(-4.62666248e-14 0 0)
(-5.181699641e-14 0 0)
(-5.502532559e-14 0 0)
(-5.661485354e-14 0 0)
(-5.596571413e-14 0 0)
(-4.583287605e-14 0 0)
(-2.858309432e-14 0 0)
(-3.728008752e-15 0 0)
(2.867362044e-14 0 0)
(7.525811116e-14 0 0)
(1.089957346e-13 0 0)
(1.209904684e-13 0 0)
(1.225438266e-13 0 0)
(1.222925054e-13 0 0)
(1.195831252e-13 0 0)
(1.177677658e-13 0 0)
(1.073875235e-13 0 0)
(8.315110235e-14 0 0)
(6.823155163e-14 0 0)
(6.566545579e-14 0 0)
(6.89529196e-14 0 0)
(8.755023497e-14 0 0)
(1.021107886e-13 0 0)
(1.056706774e-13 0 0)
(1.057440428e-13 0 0)
(1.007437822e-13 0 0)
(9.211696566e-14 0 0)
(7.645384062e-14 0 0)
(4.226702251e-14 0 0)
(-3.500023313e-15 0 0)
(-4.349764751e-14 0 0)
(-7.777402368e-14 0 0)
(-9.849784989e-14 0 0)
(-1.130702889e-13 0 0)
(-1.240727438e-13 0 0)
(-1.292342235e-13 0 0)
(-1.300499669e-13 0 0)
(-1.239392374e-13 0 0)
(-1.055614173e-13 0 0)
(-8.412961749e-14 0 0)
(-4.632995361e-14 0 0)
(-2.014386286e-14 0 0)
(1.79047029e-15 0 0)
(2.364492431e-14 0 0)
(3.726662908e-14 0 0)
(4.650784827e-14 0 0)
(4.967542131e-14 0 0)
(4.782628414e-14 0 0)
(3.557285213e-14 0 0)
(1.960861563e-14 0 0)
(2.746990276e-15 0 0)
(-7.644888491e-15 0 0)
(-7.721232007e-15 0 0)
(-9.539490514e-15 0 0)
(-1.267460952e-14 0 0)
(-2.47390356e-14 0 0)
(-3.894697008e-14 0 0)
(-5.065272422e-14 0 0)
(-5.029266254e-14 0 0)
(-5.01198083e-14 0 0)
(-5.123174287e-14 0 0)
(-5.048942388e-14 0 0)
(-4.955369123e-14 0 0)
(-4.682768579e-14 0 0)
(-3.840626636e-14 0 0)
(-2.458236353e-14 0 0)
(-8.159609891e-15 0 0)
(4.362590768e-15 0 0)
(1.828846975e-14 0 0)
(2.691846374e-14 0 0)
(3.569199972e-14 0 0)
(3.383743293e-14 0 0)
(2.648796034e-14 0 0)
(1.518407916e-14 0 0)
(-2.886433737e-15 0 0)
(-2.00937316e-14 0 0)
(-4.409179214e-14 0 0)
(-5.890140801e-14 0 0)
(-7.187111784e-14 0 0)
(-8.429285223e-14 0 0)
(-9.734494841e-14 0 0)
(-1.092700279e-13 0 0)
(-1.170155923e-13 0 0)
(-1.227515487e-13 0 0)
(-1.288252366e-13 0 0)
(-1.245083457e-13 0 0)
(-1.166796403e-13 0 0)
(-1.044809843e-13 0 0)
(-8.050535309e-14 0 0)
(-5.794355659e-14 0 0)
(-2.842947663e-14 0 0)
(-2.348947906e-15 0 0)
(3.071759355e-14 0 0)
(5.411086884e-14 0 0)
(7.636384503e-14 0 0)
(9.048903816e-14 0 0)
(9.809364335e-14 0 0)
(9.931051371e-14 0 0)
(9.57830332e-14 0 0)
(9.64522506e-14 0 0)
(1.011976103e-13 0 0)
(1.0429096e-13 0 0)
(1.081817807e-13 0 0)
(1.026187272e-13 0 0)
(9.201453855e-14 0 0)
(6.700617855e-14 0 0)
(4.48460815e-14 0 0)
(2.158303549e-14 0 0)
(4.35436674e-15 0 0)
(-5.223001507e-15 0 0)
(-8.618743023e-15 0 0)
(-2.244368864e-14 0 0)
(-3.264313494e-14 0 0)
(-4.289153454e-14 0 0)
(-4.155807406e-14 0 0)
(-4.450233117e-14 0 0)
(-5.03299729e-14 0 0)
(-6.834688696e-14 0 0)
(-9.659444136e-14 0 0)
(-1.232553939e-13 0 0)
(-1.303108742e-13 0 0)
(-1.27710073e-13 0 0)
(-1.120027864e-13 0 0)
(-8.325826424e-14 0 0)
(-4.138954263e-14 0 0)
(-7.435993406e-15 0 0)
(2.104602889e-14 0 0)
(4.089754939e-14 0 0)
(6.154412809e-14 0 0)
(7.596189879e-14 0 0)
(8.864522021e-14 0 0)
(9.839690728e-14 0 0)
(1.061168313e-13 0 0)
(1.109542275e-13 0 0)
(1.125141119e-13 0 0)
(1.08606517e-13 0 0)
(8.666197991e-14 0 0)
(5.482174258e-14 0 0)
(1.551849824e-14 0 0)
(-1.350493483e-14 0 0)
(-3.348623635e-14 0 0)
(-4.735722737e-14 0 0)
(-5.342684478e-14 0 0)
(-5.838658982e-14 0 0)
(-5.750176378e-14 0 0)
(-5.704817887e-14 0 0)
(-5.819764982e-14 0 0)
(-5.496238558e-14 0 0)
(-4.972430081e-14 0 0)
(-3.739771924e-14 0 0)
(-2.159689042e-14 0 0)
(1.034063228e-14 0 0)
(3.718606739e-14 0 0)
(6.125732163e-14 0 0)
(7.364541627e-14 0 0)
(8.064718068e-14 0 0)
(7.870375652e-14 0 0)
(7.383248982e-14 0 0)
(5.857230396e-14 0 0)
(4.122332081e-14 0 0)
(1.85193072e-14 0 0)
(5.138171177e-15 0 0)
(-2.75045862e-15 0 0)
(-5.326595309e-15 0 0)
(-2.883858247e-15 0 0)
(1.916434315e-15 0 0)
(1.040032744e-14 0 0)
(2.591911999e-14 0 0)
(4.326568806e-14 0 0)
(6.878619505e-14 0 0)
(9.421506497e-14 0 0)
(1.130838414e-13 0 0)
(1.245949677e-13 0 0)
(1.265669205e-13 0 0)
(1.152036603e-13 0 0)
(9.842342445e-14 0 0)
(1.069043882e-13 0 0)
(1.258718021e-13 0 0)
(1.350833049e-13 0 0)
(1.344428711e-13 0 0)
(1.145667193e-13 0 0)
(7.39951075e-14 0 0)
(3.842959921e-14 0 0)
(2.815931829e-15 0 0)
(-1.737769336e-14 0 0)
(-2.998028556e-14 0 0)
(-3.691480889e-14 0 0)
(-4.088323655e-14 0 0)
(-3.810401134e-14 0 0)
(-3.42330294e-14 0 0)
(-2.481962005e-14 0 0)
(-1.689537098e-14 0 0)
(-1.224840295e-14 0 0)
(-1.083619036e-14 0 0)
(-4.984604271e-15 0 0)
(-7.765077855e-15 0 0)
(-1.367719267e-14 0 0)
(-1.95294516e-14 0 0)
(-2.080475101e-14 0 0)
(-2.559964604e-14 0 0)
(-3.185421457e-14 0 0)