/*--------------------------------*- C++ -*----------------------------------*\
| =========                 |                                                 |
| \\      /  F ield         | OpenFOAM: The Open Source CFD Toolbox           |
|  \\    /   O peration     | Version:  3.0.1                                 |
|   \\  /    A nd           | Web:      www.OpenFOAM.org                      |
|    \\/     M anipulation  |                                                 |
\*---------------------------------------------------------------------------*/
FoamFile
{
    version     2.0;
    format      ascii;
    class       volScalarField;
    location    "0.00015";
    object      maxKappa;
}
// * * * * * * * * * * * * * * * * * * * * * * * * * * * * * * * * * * * * * //

dimensions      [0 0 0 0 0 0 0];

internalField   nonuniform List<scalar> 
1000
(
7.4876e-14
8.2181e-14
1.09575e-13
1.09575e-13
9.49647e-14
1.55484e-13
6.02661e-14
1.51578e-13
1.51578e-13
2.1909e-13
1.87287e-13
8.12755e-14
2.7563e-13
2.29692e-13
1.89929e-13
1.89929e-13
1.44882e-13
2.89765e-13
1.37815e-13
2.82697e-13
1.41349e-13
2.92199e-14
1.04096e-13
5.77093e-13
1.215e-11
3.02598e-10
7.47544e-09
1.84474e-07
4.53825e-06
0.000110337
0.00251558
0.0419546
0.27532
0.594174
0.771895
0.869065
0.921212
0.946914
0.958304
0.962882
0.964348
0.964757
0.964983
0.964983
0.964918
0.965079
0.965356
0.965356
0.965204
0.963854
0.959373
0.950564
0.93954
0.930405
0.925423
0.923524
0.923163
0.923025
0.923226
0.923366
0.923366
0.922724
0.920714
0.915378
0.901803
0.869499
0.795663
0.623741
0.262425
0.0298564
0.00143601
5.57962e-05
2.09111e-06
7.79042e-08
2.89626e-09
1.07892e-10
3.6706e-12
1.19612e-13
1.19612e-13
5.44663e-14
3.14105e-13
2.35579e-13
1.23989e-13
1.28122e-13
1.01257e-13
2.31446e-13
8.05927e-14
5.78614e-14
6.61273e-14
1.92234e-14
6.40608e-14
1.70875e-14
5.99279e-14
3.84468e-14
8.05927e-14
5.55343e-14
5.55343e-14
1.07457e-13
4.27187e-14
2.04581e-13
2.65029e-13
2.26158e-13
1.87287e-13
1.76686e-13
5.29611e-14
1.55484e-13
8.12755e-14
6.57448e-14
9.89441e-14
2.70284e-13
2.70284e-13
1.87287e-13
2.7563e-13
2.29692e-13
1.13079e-13
1.02478e-13
1.44882e-13
2.89765e-13
2.1909e-13
2.82697e-13
1.41349e-13
1.97888e-13
8.83429e-14
4.30994e-13
1.20514e-11
3.02674e-10
7.47212e-09
1.84417e-07
4.53688e-06
0.000110305
0.00251492
0.0419466
0.275302
0.594178
0.771908
0.869072
0.921209
0.946907
0.958301
0.962883
0.964347
0.964751
0.96497
0.96497
0.964883
0.96496
0.965166
0.965166
0.964973
0.963596
0.95911
0.95032
0.939345
0.93027
0.925359
0.923501
0.923154
0.923029
0.923234
0.923373
0.923373
0.922727
0.920714
0.915376
0.901803
0.869503
0.795668
0.62374
0.262413
0.0298532
0.00143583
5.57886e-05
2.09082e-06
7.78951e-08
2.89598e-09
1.07514e-10
3.94294e-12
2.42429e-13
8.97093e-14
9.39811e-14
3.14105e-13
2.35579e-13
2.06648e-13
1.44653e-13
1.01257e-13
2.31446e-13
8.05927e-14
1.0539e-13
8.47256e-14
1.1159e-13
6.40608e-14
8.00976e-14
8.00976e-14
6.30101e-14
1.3136e-13
1.69451e-13
7.90296e-14
2.04581e-13
6.72819e-14
2.04581e-13
3.10967e-13
2.26158e-13
1.87287e-13
1.76686e-13
7.85285e-14
1.13079e-13
8.12755e-14
1.2368e-13
9.54104e-14
1.2368e-13
2.04956e-13
3.7104e-13
1.09545e-13
1.8022e-13
4.93086e-14
4.01774e-14
8.83429e-14
2.1909e-13
2.1909e-13
1.5195e-13
9.54104e-14
1.97888e-13
8.83429e-14
3.94469e-13
1.24915e-11
3.01741e-10
7.46866e-09
1.84311e-07
4.53449e-06
0.000110252
0.00251388
0.041935
0.275283
0.594196
0.771932
0.869081
0.921205
0.946898
0.958295
0.962884
0.964353
0.964761
0.964983
0.964983
0.964899
0.964981
0.965191
0.965191
0.964995
0.963612
0.959139
0.950365
0.93938
0.930286
0.925327
0.923459
0.92312
0.923011
0.923225
0.923366
0.923366
0.922723
0.92071
0.915374
0.901805
0.869512
0.795684
0.623746
0.262396
0.0298476
0.00143548
5.57738e-05
2.09024e-06
7.78723e-08
2.89598e-09
1.07496e-10
4.10633e-12
1.42587e-13
8.67921e-14
4.69906e-14
1.03324e-13
9.9191e-14
2.06648e-13
1.57052e-13
1.38454e-13
8.47256e-14
1.90116e-13
1.0539e-13
1.57052e-13
1.1159e-13
6.08741e-14
6.08741e-14
5.1662e-14
1.17789e-13
5.57949e-14
1.69451e-13
7.43932e-14
2.04581e-13
1.63252e-13
1.63252e-13
4.13445e-13
1.83753e-13
2.7563e-13
9.89441e-14
1.37815e-13
1.13079e-13
2.37412e-14
1.2368e-13
9.54104e-14
1.62551e-13
2.04956e-13
3.7104e-13
1.0227e-13
9.18766e-14
7.77418e-14
3.18035e-14
1.76686e-14
3.65249e-14
4.38299e-14
1.09545e-13
9.54104e-14
1.02478e-13
7.85285e-14
5.27785e-13
1.20094e-11
3.02331e-10
7.4628e-09
1.842e-07
4.53179e-06
0.000110189
0.00251255
0.0419186
0.275244
0.594201
0.771957
0.869099
0.921211
0.946896
0.958286
0.96287
0.964337
0.964743
0.964964
0.964964
0.96488
0.964971
0.96519
0.96519
0.965021
0.963656
0.959173
0.950376
0.93938
0.930291
0.925355
0.923484
0.923135
0.923007
0.923218
0.923357
0.923357
0.922709
0.9207
0.915371
0.901813
0.869529
0.795703
0.623744
0.262363
0.0298388
0.00143496
5.5753e-05
2.08945e-06
7.78436e-08
2.89466e-09
1.07719e-10
3.78594e-12
2.18933e-13
8.67921e-14
1.09523e-13
1.03324e-13
3.95148e-14
4.13296e-14
1.57052e-13
1.44653e-13
2.21113e-13
1.90116e-13
1.44653e-13
2.02515e-13
1.61185e-13
1.57052e-13
1.13656e-13
2.14914e-13
1.17789e-13
8.11655e-14
1.21748e-13
1.84758e-13
2.96895e-13
4.12235e-13
4.12235e-13
4.13445e-13
1.83753e-13
2.7563e-13
9.89441e-14
1.37815e-13
1.48416e-13
4.24046e-14
2.01422e-13
3.46986e-14
1.97888e-13
1.62551e-13
6.20923e-14
1.44882e-13
1.8022e-13
7.77418e-14
1.27214e-13
8.83429e-14
1.97888e-13
7.77418e-14
8.03548e-14
8.03548e-14
2.1909e-13
5.84398e-14
3.65249e-13
1.20879e-11
3.01844e-10
7.45859e-09
1.84102e-07
4.52938e-06
0.000110131
0.00251129
0.0419021
0.275199
0.594193
0.771981
0.869128
0.92123
0.946901
0.958284
0.962865
0.964333
0.96474
0.964965
0.964965
0.96488
0.964971
0.965191
0.965191
0.965025
0.963672
0.959208
0.95042
0.939417
0.930298
0.925346
0.923465
0.923114
0.92299
0.923208
0.92335
0.92335
0.922709
0.920701
0.915379
0.901831
0.869557
0.795727
0.62374
0.262328
0.0298299
0.00143445
5.57327e-05
2.08869e-06
7.78146e-08
2.89352e-09
1.07887e-10
3.82332e-12
8.05927e-14
9.5058e-14
1.09523e-13
1.13656e-13
7.43932e-14
1.34321e-13
7.43932e-14
1.44653e-13
2.21113e-13
1.79784e-13
1.44653e-13
2.02515e-13
1.61185e-13
1.61185e-13
1.13656e-13
2.14914e-13
7.26218e-14
1.01257e-13
1.23989e-13
1.26055e-13
3.96764e-13
2.95506e-13
4.93888e-13
2.04956e-13
1.15053e-13
1.09545e-13
1.29663e-13
1.29663e-13
1.48416e-13
7.30498e-14
2.01422e-13
1.76686e-14
1.97888e-13
1.62551e-13
8.9486e-14
2.04956e-13
2.79164e-13
5.65395e-14
1.27214e-13
2.40293e-13
1.97888e-13
7.77418e-14
1.78972e-13
1.78972e-13
2.1909e-13
6.39186e-14
4.4743e-13
1.23765e-11
3.01392e-10
7.45596e-09
1.84031e-07
4.52763e-06
0.000110089
0.00251036
0.0418895
0.27516
0.594176
0.771987
0.869146
0.92125
0.946915
0.958289
0.962864
0.964328
0.964734
0.964959
0.964959
0.964875
0.964967
0.965193
0.965193
0.965032
0.963687
0.959224
0.950428
0.939408
0.930301
0.925345
0.923468
0.923117
0.922991
0.923211
0.923352
0.923352
0.922711
0.920706
0.915387
0.901841
0.869564
0.795728
0.623728
0.262301
0.0298238
0.00143412
5.57196e-05
2.0882e-06
7.77946e-08
2.89362e-09
1.07768e-10
3.73255e-12
1.77717e-13
9.5058e-14
8.47256e-14
1.13656e-13
1.96315e-13
1.34321e-13
9.9191e-14
1.32255e-13
1.34321e-13
1.90116e-13
1.63252e-13
1.44653e-13
1.38454e-13
1.61185e-13
5.99279e-14
1.40521e-13
4.80585e-14
1.36388e-13
1.23989e-13
2.21113e-13
3.96764e-13
1.69451e-13
4.93888e-13
7.77418e-14
4.20036e-14
6.71406e-14
1.27214e-13
6.71406e-14
4.38299e-14
4.38299e-14
6.71406e-14
1.41349e-13
9.54104e-14
2.29692e-13
2.4736e-13
2.33225e-13
2.79164e-13
1.30748e-13
1.37815e-13
2.40293e-13
1.73152e-13
6.36069e-14
1.06012e-13
1.16613e-13
1.02478e-13
7.12235e-14
6.22749e-13
1.17592e-11
3.01948e-10
7.4546e-09
1.8398e-07
4.52646e-06
0.000110061
0.00250975
0.0418815
0.275134
0.594161
0.771985
0.869151
0.92126
0.946928
0.958298
0.96287
0.964331
0.964736
0.964964
0.964964
0.964884
0.96498
0.965195
0.965195
0.965027
0.963657
0.959167
0.950367
0.939369
0.930281
0.925347
0.923479
0.923131
0.923003
0.92322
0.923363
0.923363
0.922724
0.92072
0.9154
0.901848
0.869563
0.795721
0.623715
0.262289
0.0298219
0.00143402
5.57158e-05
2.08805e-06
7.77894e-08
2.89208e-09
1.08172e-10
3.76459e-12
1.77717e-13
1.21922e-13
2.04581e-13
1.4672e-13
1.96315e-13
7.64597e-14
9.9191e-14
1.32255e-13
2.19047e-13
1.90116e-13
2.5211e-13
1.63252e-13
1.71518e-13
4.95955e-14
7.04859e-14
7.04859e-14
5.78614e-14
1.36388e-13
1.28122e-13
2.21113e-13
2.76908e-13
1.63252e-13
4.13296e-13
7.4876e-14
7.4876e-14
8.76597e-14
8.76597e-14
7.12235e-14
7.12235e-14
6.57448e-14
9.6791e-14
1.41349e-13
1.07748e-13
2.29692e-13
2.4736e-13
2.33225e-13
2.1909e-13
1.30748e-13
1.37815e-13
1.06012e-13
1.73152e-13
1.94354e-13
7.4876e-14
7.12235e-14
1.02478e-13
9.89441e-14
4.16384e-13
1.2371e-11
3.01232e-10
7.45264e-09
1.83947e-07
4.52561e-06
0.000110041
0.00250934
0.0418763
0.27512
0.594156
0.771987
0.869152
0.92126
0.946928
0.9583
0.962869
0.964328
0.964732
0.964956
0.964956
0.964873
0.96497
0.965193
0.965193
0.965018
0.963662
0.959197
0.95041
0.939407
0.930294
0.925338
0.923464
0.923116
0.922993
0.923213
0.923358
0.923358
0.922722
0.920718
0.915396
0.901842
0.869554
0.79571
0.623706
0.262291
0.029823
0.00143408
5.57178e-05
2.08811e-06
7.77922e-08
2.89359e-09
1.07119e-10
4.28896e-12
3.03303e-13
1.21922e-13
2.04581e-13
1.4672e-13
6.61273e-14
9.61171e-14
2.89307e-13
1.09523e-13
2.19047e-13
4.3396e-14
2.5211e-13
1.63252e-13
1.71518e-13
2.24273e-13
2.24273e-13
6.40608e-14
1.38454e-13
7.36898e-14
1.28122e-13
1.15723e-13
1.26055e-13
1.19612e-13
1.59119e-13
3.28724e-14
9.89441e-14
7.77418e-14
4.20036e-14
7.42081e-14
2.37412e-14
2.82697e-14
8.12755e-14
6.71406e-14
1.02478e-13
1.41349e-13
6.00732e-14
7.85285e-14
2.1909e-13
1.06012e-13
1.44882e-13
1.06012e-13
2.43826e-13
1.94354e-13
2.50894e-13
1.06012e-13
1.48416e-13
1.48416e-13
3.98121e-13
1.19875e-11
3.0157e-10
7.4519e-09
1.83918e-07
4.525e-06
0.000110027
0.00250905
0.0418729
0.275113
0.594158
0.771991
0.869155
0.92126
0.946926
0.958297
0.962868
0.96433
0.964736
0.964965
0.964965
0.964886
0.964985
0.965205
0.965205
0.96502
0.963643
0.959153
0.950358
0.939373
0.930288
0.92535
0.923484
0.923137
0.92301
0.923226
0.923368
0.923368
0.922727
0.920719
0.915392
0.901833
0.869543
0.795702
0.623709
0.262298
0.0298244
0.00143415
5.57206e-05
2.08823e-06
7.77964e-08
2.8926e-09
1.07831e-10
3.82119e-12
1.90116e-13
1.85983e-14
9.5058e-14
2.5204e-13
2.5204e-13
9.5058e-14
2.89307e-13
1.09523e-13
1.61185e-13
1.79784e-13
3.73789e-14
4.54625e-14
1.36388e-13
5.1662e-14
8.47256e-14
1.26055e-13
1.50853e-13
5.98062e-14
1.15723e-13
1.15723e-13
1.26055e-13
1.51651e-13
1.51651e-13
6.93973e-14
9.89441e-14
7.77418e-14
4.38299e-14
7.42081e-14
6.39186e-14
8.9486e-14
8.9486e-14
7.85285e-14
1.02478e-13
8.48092e-14
6.00732e-14
1.82624e-14
4.59383e-14
1.06012e-13
1.44882e-13
1.06012e-13
2.43826e-13
8.48092e-14
2.50894e-13
1.06012e-13
1.48416e-13
1.48416e-13
6.20923e-13
1.20605e-11
3.01381e-10
7.45157e-09
1.83903e-07
4.52465e-06
0.000110019
0.00250888
0.0418706
0.275107
0.594158
0.771994
0.869157
0.92126
0.946923
0.958295
0.962867
0.964328
0.964733
0.96496
0.96496
0.964878
0.96497
0.965188
0.965188
0.965014
0.963652
0.959176
0.950385
0.939391
0.930294
0.925351
0.92348
0.92313
0.923005
0.923221
0.923362
0.923362
0.92272
0.920712
0.915385
0.901827
0.869541
0.795704
0.623713
0.262302
0.029825
0.00143418
5.57214e-05
2.08825e-06
7.77974e-08
2.8931e-09
1.07599e-10
3.83828e-12
1.33496e-13
5.33984e-14
9.5058e-14
1.77717e-13
1.07457e-13
6.61273e-14
1.65318e-14
5.57949e-14
1.61185e-13
1.79784e-13
6.5146e-14
7.58257e-14
7.58257e-14
7.26218e-14
5.12624e-14
1.26055e-13
1.50853e-13
5.66023e-14
1.15723e-13
7.15538e-14
5.37284e-14
4.69906e-14
1.09523e-13
)
;

boundaryField
{
    sides1
    {
        type            calculated;
        value           uniform 0;
    }
    sides2
    {
        type            calculated;
        value           uniform 0;
    }
    empty
    {
        type            empty;
    }
}


// ************************************************************************* //
