/*--------------------------------*- C++ -*----------------------------------*\
| =========                 |                                                 |
| \\      /  F ield         | OpenFOAM: The Open Source CFD Toolbox           |
|  \\    /   O peration     | Version:  3.0.1                                 |
|   \\  /    A nd           | Web:      www.OpenFOAM.org                      |
|    \\/     M anipulation  |                                                 |
\*---------------------------------------------------------------------------*/
FoamFile
{
    version     2.0;
    format      ascii;
    class       volVectorField;
    location    "0.00015";
    object      U;
}
// * * * * * * * * * * * * * * * * * * * * * * * * * * * * * * * * * * * * * //

dimensions      [0 1 -1 0 0 0 0];

internalField   nonuniform List<vector> 
1000
(
(1.01595e-12 -4.08715e-14 0)
(2.0319e-12 1.16484e-12 0)
(2.68584e-13 8.75818e-14 0)
(4.17473e-12 1.04222e-12 0)
(4.08715e-14 -9.86755e-13 0)
(2.79094e-12 -7.00655e-14 0)
(1.38379e-12 -2.1983e-12 0)
(-3.85944e-12 1.66405e-13 0)
(3.68428e-12 -4.11635e-13 0)
(-3.49743e-12 -6.21831e-13 0)
(2.24209e-12 2.82305e-12 0)
(-1.10937e-13 -2.41726e-12 0)
(1.77499e-12 3.14127e-12 0)
(3.1763e-12 -1.62026e-12 0)
(-5.36001e-12 -6.18912e-13 0)
(4.84619e-12 2.37055e-12 0)
(-2.71504e-12 -1.93264e-12 0)
(4.26232e-12 2.65665e-12 0)
(1.30205e-12 -2.81722e-12 0)
(-4.09299e-12 1.10353e-12 0)
(1.68741e-12 -1.75164e-14 0)
(-1.1444e-12 1.50057e-12 0)
(2.07861e-12 8.75818e-14 0)
(2.82013e-12 3.00698e-13 0)
(4.54491e-11 -3.3865e-13 0)
(1.2643e-09 1.40715e-12 0)
(3.0929e-08 -5.4943e-12 0)
(7.66568e-07 -9.6632e-12 0)
(1.90341e-05 -3.16565e-10 0)
(0.000482826 -7.28326e-09 0)
(0.0129927 -1.64904e-07 0)
(0.30041 -2.94887e-06 0)
(2.92325 -2.4872e-05 0)
(9.1635 -6.56764e-05 0)
(13.6563 -6.92825e-05 0)
(16.1343 -5.57975e-05 0)
(17.5772 -4.48443e-05 0)
(18.353 -4.8086e-05 0)
(18.7277 -6.43623e-05 0)
(18.8908 -8.12866e-05 0)
(18.9514 -0.000107086 0)
(18.9695 -0.000147536 0)
(18.9809 -0.000219993 0)
(18.9816 -0.000419276 0)
(18.9773 -0.00056045 0)
(18.9761 -0.000733774 0)
(18.9779 -0.000792413 0)
(18.978 -0.000379048 0)
(18.974 3.25771e-05 0)
(18.9713 0.000659363 0)
(18.9697 0.00108313 0)
(18.9713 0.000999884 0)
(18.9726 0.000766509 0)
(18.9711 0.000644573 0)
(18.9697 0.000549574 0)
(18.9688 0.000353611 0)
(18.9708 0.000209681 0)
(18.971 5.46823e-05 0)
(18.9713 1.00922e-05 0)
(18.9718 -3.42267e-06 0)
(18.9642 1.39331e-05 0)
(18.9294 2.86778e-05 0)
(18.8503 3.37135e-05 0)
(18.6401 3.11157e-05 0)
(18.133 2.99578e-05 0)
(17.0084 3.61024e-05 0)
(14.6656 3.98742e-05 0)
(9.49313 3.16641e-05 0)
(2.46069 9.02421e-06 0)
(0.181324 7.65464e-07 0)
(0.00623509 3.43014e-08 0)
(0.000212759 1.28065e-09 0)
(7.76185e-06 5.25178e-11 0)
(2.8763e-07 -4.9356e-12 0)
(1.06168e-08 1.10287e-12 0)
(4.16294e-10 3.53396e-13 0)
(5.78751e-12 -1.64577e-12 0)
(-4.46953e-12 6.2826e-13 0)
(1.97697e-12 1.57407e-12 0)
(-3.21642e-12 -1.13531e-12 0)
(1.77552e-12 1.77893e-12 0)
(-1.25652e-12 -3.70639e-12 0)
(1.19165e-12 4.01199e-12 0)
(-2.07941e-12 -2.64108e-12 0)
(-2.04868e-13 4.14857e-12 0)
(2.53011e-12 -2.57962e-12 0)
(-1.70381e-12 1.94283e-12 0)
(-2.42427e-13 -9.08246e-13 0)
(-9.62877e-13 6.79477e-13 0)
(-2.2194e-13 -4.66074e-13 0)
(8.502e-13 1.59626e-12 0)
(-1.61504e-12 -7.66546e-13 0)
(9.08246e-13 5.34363e-13 0)
(1.87795e-12 6.31675e-14 0)
(-7.34109e-13 -1.25994e-12 0)
(-1.4409e-12 -8.36542e-13 0)
(-6.24846e-13 4.04613e-13 0)
(-6.89721e-13 -1.22921e-12 0)
(-4.40465e-13 1.55358e-13 0)
(2.03502e-12 -1.34188e-12 0)
(3.30475e-12 1.90053e-12 0)
(1.88009e-12 1.19695e-12 0)
(1.81002e-13 1.33708e-12 0)
(9.98433e-13 1.26118e-12 0)
(-1.82754e-12 -1.37212e-13 0)
(4.37909e-13 9.19609e-13 0)
(1.50057e-12 2.18955e-13 0)
(1.15024e-12 -2.83181e-13 0)
(1.16776e-13 1.45386e-12 0)
(4.60097e-12 -1.12397e-12 0)
(-2.19538e-12 4.07256e-12 0)
(9.45884e-13 3.18214e-13 0)
(5.9614e-12 4.74985e-12 0)
(-7.22258e-12 -6.77299e-13 0)
(4.11051e-12 3.26972e-12 0)
(5.34936e-25 2.92815e-12 0)
(-4.49587e-13 3.3865e-13 0)
(1.41299e-12 5.12062e-12 0)
(-2.20122e-12 -2.27129e-12 0)
(2.93691e-12 3.60253e-12 0)
(1.38379e-12 6.59783e-13 0)
(-2.80262e-13 2.33552e-12 0)
(-2.86101e-13 1.41591e-12 0)
(1.82754e-12 -2.4231e-13 0)
(4.55134e-11 1.64946e-12 0)
(1.26914e-09 -6.13073e-14 0)
(3.08866e-08 -7.06493e-12 0)
(7.6637e-07 -1.03674e-10 0)
(1.90277e-05 -2.73206e-09 0)
(0.000482673 -6.15038e-08 0)
(0.0129887 -1.33702e-06 0)
(0.300338 -2.23708e-05 0)
(2.92291 -0.000169519 0)
(9.16335 -0.000369733 0)
(13.6565 -0.000299887 0)
(16.1345 -0.000134661 0)
(17.5773 -3.37719e-05 0)
(18.3529 -3.94664e-05 0)
(18.7276 -0.000117483 0)
(18.8907 -0.000166502 0)
(18.9514 -0.000194052 0)
(18.9693 -0.000158138 0)
(18.9807 -0.000293051 0)
(18.9811 -0.000592602 0)
(18.9763 -0.000974124 0)
(18.974 -0.00177064 0)
(18.9748 -0.00199514 0)
(18.9737 -0.00172675 0)
(18.9689 -0.00126473 0)
(18.9659 -0.00042811 0)
(18.9642 0.000592753 0)
(18.9666 0.00113328 0)
(18.9691 0.00158885 0)
(18.9689 0.00180534 0)
(18.9687 0.00173748 0)
(18.9685 0.00131909 0)
(18.9708 0.000990417 0)
(18.9711 0.000553526 0)
(18.9714 0.00036414 0)
(18.972 0.000122578 0)
(18.9642 7.29879e-05 0)
(18.9294 4.86283e-05 0)
(18.8503 3.86209e-05 0)
(18.6401 5.62172e-05 0)
(18.133 9.01465e-05 0)
(17.0085 0.000160386 0)
(14.6656 0.000232218 0)
(9.49297 0.000223979 0)
(2.46051 7.40442e-05 0)
(0.181301 6.7946e-06 0)
(0.00623419 3.19895e-07 0)
(0.000212729 1.24874e-08 0)
(7.76064e-06 4.96828e-10 0)
(2.87645e-07 1.12506e-12 0)
(1.06263e-08 -1.65772e-12 0)
(3.99444e-10 3.97272e-12 0)
(1.11892e-11 -2.04355e-12 0)
(2.7623e-12 3.54421e-12 0)
(-2.55402e-12 1.70381e-12 0)
(-1.88137e-12 2.06575e-12 0)
(-2.99448e-12 2.20233e-12 0)
(3.13447e-12 2.12891e-12 0)
(1.82332e-12 1.77723e-12 0)
(-1.84722e-12 1.50236e-12 0)
(1.02434e-14 1.32822e-12 0)
(-2.38329e-12 2.88522e-12 0)
(2.60182e-12 1.04141e-13 0)
(-2.63596e-12 2.65645e-12 0)
(2.93643e-13 1.37773e-12 0)
(1.34188e-12 2.30988e-12 0)
(-2.18525e-13 5.12169e-13 0)
(-4.37051e-12 6.81185e-13 0)
(3.3052e-12 6.60698e-13 0)
(-2.0555e-12 -4.26807e-13 0)
(-3.07643e-12 3.70469e-13 0)
(2.72815e-12 -5.46313e-13 0)
(-1.89502e-12 3.4486e-13 0)
(-1.23603e-12 -7.23865e-13 0)
(-6.58991e-13 -1.36578e-14 0)
(-1.30091e-12 -7.17036e-13 0)
(-2.10196e-13 3.4916e-12 0)
(-1.86841e-13 1.56188e-12 0)
(8.64141e-13 1.63194e-12 0)
(1.92096e-12 1.93264e-12 0)
(-3.3865e-13 8.29108e-13 0)
(3.36898e-12 2.44061e-12 0)
(-1.80419e-12 9.72158e-13 0)
(-1.17944e-12 8.11592e-13 0)
(2.14867e-12 8.1743e-14 0)
(9.57561e-13 1.4597e-12 0)
(4.64184e-12 -2.26837e-12 0)
(3.8536e-13 3.16754e-12 0)
(-5.43007e-13 -4.82576e-12 0)
(5.66363e-13 1.98811e-12 0)
(2.7851e-12 -1.50057e-12 0)
(-1.02763e-12 -2.45229e-13 0)
(1.39547e-12 -4.96297e-13 0)
(-1.47137e-12 -6.21831e-13 0)
(-5.7804e-13 -2.05233e-12 0)
(1.54728e-12 1.94432e-12 0)
(-1.33708e-12 -2.08153e-12 0)
(8.11592e-13 1.34584e-12 0)
(-1.65822e-12 -2.75299e-12 0)
(-3.2055e-12 2.45229e-12 0)
(6.33567e-11 -2.79386e-12 0)
(1.23518e-09 3.12375e-12 0)
(3.09118e-08 -6.74964e-12 0)
(7.65862e-07 -1.35364e-10 0)
(1.90165e-05 -3.47815e-09 0)
(0.000482407 -7.88337e-08 0)
(0.0129821 -1.71759e-06 0)
(0.300228 -2.8621e-05 0)
(2.92247 -0.000214512 0)
(9.16334 -0.000456108 0)
(13.6569 -0.000367738 0)
(16.1349 -0.000142293 0)
(17.5773 -1.51508e-05 0)
(18.3528 -1.54251e-05 0)
(18.7274 -5.24037e-05 0)
(18.8907 -0.000139648 0)
(18.9515 -0.00020793 0)
(18.9695 -0.000301032 0)
(18.981 -0.000284778 0)
(18.9814 -0.000235382 0)
(18.9767 -0.000109835 0)
(18.9744 0.00018881 0)
(18.9753 0.000251641 0)
(18.9742 0.00170873 0)
(18.9693 0.00191795 0)
(18.9663 0.00188971 0)
(18.9651 0.00113873 0)
(18.9675 0.000314947 0)
(18.9696 -0.000209921 0)
(18.9688 -0.000204959 0)
(18.9679 -7.77949e-05 0)
(18.9677 6.44493e-05 0)
(18.9702 0.000207152 0)
(18.9707 0.000267731 0)
(18.9711 0.000288677 0)
(18.9719 0.000230482 0)
(18.9641 0.000173185 0)
(18.9293 9.80773e-05 0)
(18.8502 3.50785e-05 0)
(18.6401 8.78138e-06 0)
(18.1331 4.78955e-05 0)
(17.0088 0.000178955 0)
(14.6659 0.000334223 0)
(9.49282 0.000339804 0)
(2.46022 0.000115228 0)
(0.181258 1.06724e-05 0)
(0.00623243 5.0575e-07 0)
(0.000212669 1.99849e-08 0)
(7.75839e-06 7.57383e-10 0)
(2.87535e-07 2.39507e-11 0)
(1.06546e-08 -4.5583e-12 0)
(3.91925e-10 -3.87541e-13 0)
(1.74854e-11 -5.48021e-13 0)
(-1.11311e-12 -1.12165e-12 0)
(-4.84853e-13 -8.55322e-13 0)
(-2.315e-12 -9.95315e-13 0)
(2.08282e-12 -2.74864e-13 0)
(-1.76869e-12 4.21686e-13 0)
(5.668e-13 -2.54719e-12 0)
(-2.49255e-12 4.57537e-13 0)
(2.58133e-12 -8.28006e-13 0)
(1.22921e-13 5.8558e-13 0)
(-2.67011e-12 -1.71918e-12 0)
(1.64577e-12 1.50236e-13 0)
(-1.77893e-12 -1.50407e-12 0)
(-1.94283e-12 6.82892e-15 0)
(-2.2194e-12 -2.58816e-12 0)
(-1.70723e-13 9.73121e-14 0)
(-1.77552e-12 -1.56211e-12 0)
(1.58431e-12 -1.53309e-12 0)
(-1.52285e-12 -1.79259e-13 0)
(-1.21213e-12 -2.58475e-12 0)
(-7.54595e-13 -4.91682e-13 0)
(-1.39651e-12 -4.08369e-12 0)
(-7.20451e-13 -2.05721e-12 0)
(7.85325e-14 -7.37865e-12 0)
(2.04358e-13 3.25512e-12 0)
(-1.89761e-12 1.25534e-12 0)
(1.68741e-12 1.79251e-12 0)
(-7.53204e-13 2.86101e-13 0)
(-2.15451e-12 1.18235e-12 0)
(8.29108e-13 -2.33552e-13 0)
(-6.07234e-13 -1.33708e-12 0)
(-3.03617e-13 1.99395e-12 0)
(1.23198e-12 -1.60567e-12 0)
(8.29108e-13 2.3326e-12 0)
(1.40715e-12 -7.88236e-13 0)
(-3.08872e-12 -4.64184e-13 0)
(3.15295e-12 -3.56166e-13 0)
(-8.29108e-13 5.13813e-13 0)
(-2.3939e-13 8.46624e-14 0)
(1.1444e-12 -6.88977e-13 0)
(-2.74423e-13 3.97038e-13 0)
(-1.69325e-12 -6.36428e-13 0)
(1.83338e-12 3.26972e-13 0)
(2.9661e-12 -1.30205e-12 0)
(4.08715e-14 9.05012e-13 0)
(-9.80917e-13 -1.63194e-12 0)
(1.48305e-12 3.94118e-13 0)
(2.13116e-12 1.87133e-12 0)
(4.69789e-11 -1.24366e-12 0)
(1.2698e-09 2.44061e-12 0)
(3.08354e-08 -1.62523e-11 0)
(7.65452e-07 -1.20647e-10 0)
(1.90043e-05 -3.16057e-09 0)
(0.00048211 -7.60816e-08 0)
(0.0129743 -1.74453e-06 0)
(0.300084 -3.11523e-05 0)
(2.92177 -0.000259082 0)
(9.16299 -0.000658624 0)
(13.6573 -0.000685849 0)
(16.1353 -0.00045622 0)
(17.5775 -0.000204082 0)
(18.3529 -5.00499e-05 0)
(18.7273 -2.33064e-05 0)
(18.8905 -4.95848e-05 0)
(18.9512 -8.44969e-05 0)
(18.9692 -0.000193618 0)
(18.9806 -0.0002365 0)
(18.9811 -0.000435178 0)
(18.9763 -0.000451479 0)
(18.9742 -0.000449598 0)
(18.9752 -0.000443847 0)
(18.9745 0.000565931 0)
(18.9699 0.00074083 0)
(18.9668 0.000805609 0)
(18.9652 0.000208859 0)
(18.9674 -0.000451271 0)
(18.9697 -0.000810254 0)
(18.9691 -0.000778757 0)
(18.9685 -0.000533058 0)
(18.9681 -0.00010066 0)
(18.9704 4.92784e-05 0)
(18.9707 9.27705e-05 0)
(18.971 9.01619e-05 0)
(18.9717 -0.000106374 0)
(18.9639 -0.000134414 0)
(18.9291 -0.000223462 0)
(18.8501 -0.000235302 0)
(18.6401 -0.000164118 0)
(18.1334 1.8527e-05 0)
(17.0092 0.000285464 0)
(14.6662 0.000511831 0)
(9.4924 0.000477857 0)
(2.45973 0.000149973 0)
(0.181194 1.31654e-05 0)
(0.00622996 6.0074e-07 0)
(0.000212586 2.31158e-08 0)
(7.75541e-06 8.20931e-10 0)
(2.87451e-07 3.26559e-11 0)
(1.06381e-08 -3.7559e-13 0)
(4.06461e-10 -3.12594e-12 0)
(6.72307e-12 5.99238e-13 0)
(3.67054e-12 -1.04995e-12 0)
(-2.64279e-12 -1.03458e-12 0)
(-6.76063e-13 -7.13622e-13 0)
(-4.37051e-13 8.24592e-13 0)
(-4.47294e-13 -2.26379e-12 0)
(1.38286e-12 2.36793e-12 0)
(1.05507e-12 -2.91936e-12 0)
(1.43407e-13 2.91765e-12 0)
(-3.39056e-12 -4.04443e-12 0)
(2.01453e-12 2.93814e-12 0)
(-3.18228e-12 -2.25013e-12 0)
(2.35598e-13 9.01417e-13 0)
(-4.54123e-13 -2.08111e-12 0)
(-4.91682e-13 1.85576e-12 0)
(-2.01453e-12 -1.02434e-13 0)
(5.77044e-13 1.04824e-12 0)
(8.09227e-13 1.33676e-12 0)
(-5.76019e-12 -7.17036e-13 0)
(2.77937e-12 1.3214e-12 0)
(-5.34021e-12 5.12169e-15 0)
(-3.87883e-12 6.33382e-13 0)
(-5.84555e-12 9.90193e-13 0)
(-1.03936e-11 1.30432e-12 0)
(-3.10624e-12 2.54571e-12 0)
(-1.7166e-12 1.49765e-12 0)
(-1.0393e-12 2.83473e-12 0)
(-2.33552e-14 8.46624e-14 0)
(-1.4597e-13 1.47721e-12 0)
(-1.47721e-12 -6.42267e-14 0)
(2.12532e-12 8.90415e-13 0)
(-2.30048e-12 -3.32811e-13 0)
(2.46397e-12 1.37212e-13 0)
(2.43477e-12 -4.46667e-13 0)
(-2.86101e-13 -1.88301e-12 0)
(1.27869e-12 2.32676e-12 0)
(1.69325e-13 -2.13116e-13 0)
(2.30255e-12 -1.63486e-13 2.13188e-32)
(3.71618e-13 -2.18955e-13 0)
(2.91939e-14 9.02093e-13 0)
(1.32541e-12 4.96297e-13 0)
(-1.16776e-12 1.99979e-12 0)
(-2.13116e-12 4.14554e-13 0)
(3.1004e-12 -1.4305e-13 0)
(-2.87268e-12 9.25448e-13 0)
(-8.85432e-13 -2.62745e-12 0)
(5.06017e-12 1.41299e-12 0)
(-2.62745e-12 -2.49608e-12 0)
(5.266e-11 2.71796e-12 0)
(1.2572e-09 -3.40985e-12 0)
(3.08105e-08 -4.15722e-12 0)
(7.65061e-07 -9.84537e-11 0)
(1.89942e-05 -2.37098e-09 0)
(0.000481847 -5.87499e-08 0)
(0.0129671 -1.37603e-06 0)
(0.299946 -2.52626e-05 2.13052e-32)
(2.92104 -0.000219949 0)
(9.16246 -0.000602739 0)
(13.6575 -0.000707737 0)
(16.1358 -0.000594721 0)
(17.578 -0.00035333 -2.08443e-32)
(18.3531 -0.000129491 0)
(18.7274 -1.15296e-05 0)
(18.8904 -4.4662e-06 2.08264e-32)
(18.9511 -3.2554e-05 0)
(18.9691 -0.000142619 0)
(18.9806 -0.000147293 0)
(18.9811 -0.000209278 -2.00858e-32)
(18.9763 -0.000185716 0)
(18.9742 -0.000144531 0)
(18.9752 -0.000136373 0)
(18.9745 -0.000134863 0)
(18.9701 -0.000133508 0)
(18.9674 -7.139e-05 0)
(18.966 0.000131775 0)
(18.9682 0.000341246 0)
(18.9701 0.000449818 0)
(18.969 0.000412246 0)
(18.9682 0.000300977 0)
(18.9677 0.000148104 -1.04429e-32)
(18.97 0.00010313 1.03787e-32)
(18.9703 5.47917e-05 0)
(18.9707 0.000102127 0)
(18.9715 -3.62917e-05 -1.10736e-32)
(18.9638 -1.58717e-06 0)
(18.9291 -4.12414e-05 0)
(18.8502 -1.37038e-05 0)
(18.6404 9.41507e-05 0)
(18.1339 0.000254381 0)
(17.0097 0.000426517 0)
(14.6664 0.000505385 0)
(9.49195 0.000419976 0)
(2.45924 0.000125114 0)
(0.18113 1.06558e-05 0)
(0.00622755 4.78961e-07 0)
(0.000212507 1.83575e-08 1.06594e-32)
(7.75277e-06 6.24284e-10 0)
(2.8731e-07 4.70051e-11 0)
(1.06282e-08 -6.29285e-12 0)
(4.16368e-10 5.53142e-13 0)
(7.56172e-12 -3.05594e-13 0)
(-1.62328e-12 -1.00727e-13 0)
(3.2307e-13 -8.36542e-14 0)
(1.28926e-12 -3.51689e-13 0)
(-1.29207e-12 -2.86815e-13 0)
(2.24051e-13 1.28896e-12 0)
(-5.23819e-13 -9.85071e-13 0)
(-6.43222e-13 1.23262e-12 0)
(-6.62818e-14 -2.315e-12 0)
(-2.88222e-13 1.19506e-14 0)
(7.87436e-13 7.15329e-13 0)
(-5.75036e-13 -1.36408e-12 0)
(-7.71616e-13 2.83059e-12 0)
(-1.11929e-12 -1.80625e-12 0)
(1.85812e-12 2.61206e-12 0)
(-2.66187e-12 -1.47675e-12 -1.06594e-32)
(1.08986e-12 2.98082e-12 0)
(-1.61567e-12 -1.00727e-12 -1.06594e-32)
(-8.72772e-13 3.81736e-12 0)
(7.55247e-13 1.66455e-12 0)
(-1.93049e-12 2.80327e-12 0)
(1.4952e-13 5.44948e-12 0)
(1.16301e-12 4.18954e-12 0)
(-1.19506e-13 1.01683e-11 0)
(-2.82597e-12 -1.57939e-12 0)
(-2.09029e-12 4.96297e-13 0)
(-9.22529e-13 -1.66114e-12 0)
(-3.04201e-12 1.03347e-12 0)
(-2.0027e-12 -1.99979e-12 0)
(-7.35687e-13 1.83338e-12 0)
(-6.53944e-13 -4.78781e-13 0)
(-1.79835e-12 1.64654e-12 0)
(1.99687e-12 -5.34249e-13 0)
(-2.88436e-12 2.51944e-12 0)
(4.83452e-12 -1.5356e-12 0)
(9.34206e-14 1.73412e-12 0)
(-6.07234e-13 -2.91939e-12 0)
(2.33552e-14 2.97486e-12 -2.13188e-32)
(3.44489e-13 -3.43321e-12 0)
(2.77926e-12 9.80917e-13 0)
(1.11521e-12 -1.84798e-12 0)
(-1.7166e-12 -9.60481e-13 0)
(-1.76331e-12 -1.38963e-12 0)
(4.15722e-12 3.99957e-13 0)
(-3.97038e-12 -1.8217e-12 0)
(1.69325e-13 2.89896e-12 0)
(2.13116e-12 -2.52236e-12 0)
(-1.57647e-13 1.34584e-12 0)
(5.94564e-11 -1.2641e-12 0)
(1.2422e-09 -1.00427e-12 0)
(3.08165e-08 4.66811e-12 0)
(7.64752e-07 -8.27736e-11 0)
(1.89869e-05 -1.57594e-09 0)
(0.000481659 -3.95314e-08 0)
(0.0129619 -9.17125e-07 0)
(0.299843 -1.68178e-05 -2.13052e-32)
(2.92046 -0.000149349 0)
(9.16189 -0.000437327 0)
(13.6575 -0.000585413 0)
(16.136 -0.000597894 0)
(17.5784 -0.000532233 2.08443e-32)
(18.3534 -0.000397923 0)
(18.7275 -0.00022669 0)
(18.8904 -0.000108918 -2.08262e-32)
(18.9511 -7.81387e-06 0)
(18.969 -2.61572e-06 0)
(18.9805 7.17276e-06 0)
(18.981 -5.518e-05 2.00855e-32)
(18.9762 -5.76498e-05 0)
(18.9741 -6.52499e-05 0)
(18.9751 -6.08246e-05 0)
(18.9746 6.17207e-05 0)
(18.9704 9.1953e-05 0)
(18.9677 7.94908e-05 0)
(18.9663 -0.000103738 0)
(18.9683 -0.000306083 0)
(18.9701 -0.000487873 0)
(18.9691 -0.000444213 0)
(18.9682 -0.000383022 0)
(18.9677 -0.000333629 1.04476e-32)
(18.97 -0.000346829 -1.03791e-32)
(18.9703 -0.000376977 0)
(18.9707 -0.000372459 0)
(18.9715 -0.000310322 1.10706e-32)
(18.9639 -0.000175896 0)
(18.9291 -8.92524e-05 0)
(18.8503 6.27393e-05 0)
(18.6406 0.000209126 0)
(18.1341 0.000310263 0)
(17.0098 0.000339822 0)
(14.6664 0.000340302 0)
(9.4915 0.00023322 0)
(2.45889 5.67033e-05 0)
(0.181089 4.36931e-06 0)
(0.00622602 1.93913e-07 0)
(0.000212456 7.70819e-09 -1.06594e-32)
(7.75109e-06 2.92633e-10 0)
(2.87165e-07 1.27752e-11 0)
(1.06572e-08 1.50578e-12 0)
(4.12805e-10 -2.07599e-12 0)
(4.40807e-12 3.70469e-13 0)
(3.93004e-12 -1.62528e-12 0)
(-2.96034e-12 -7.085e-13 0)
(1.05848e-13 -3.97784e-13 0)
(2.43451e-12 -2.34915e-12 0)
(-1.24628e-12 -1.09946e-12 0)
(1.69357e-12 -1.54334e-12 0)
(-1.04141e-12 -1.57065e-13 0)
(-1.88137e-12 -4.06321e-13 0)
(1.61504e-12 -3.17545e-13 0)
(-1.98039e-13 -1.50236e-13 0)
(5.90701e-13 -1.47334e-12 0)
(-1.43407e-12 -3.3291e-13 0)
(-1.36578e-13 1.48529e-13 0)
(2.49255e-13 -8.60444e-13 0)
(-9.18489e-13 -7.18744e-13 1.06594e-32)
(1.25311e-12 1.45114e-13 0)
(1.40334e-12 1.22921e-13 1.06594e-32)
(8.39957e-13 1.26335e-13 0)
(-1.09604e-12 1.18823e-12 0)
(2.16477e-12 4.09735e-13 0)
(-9.62877e-13 2.1716e-12 0)
(1.88137e-12 8.84345e-13 0)
(4.4388e-13 2.30817e-12 0)
(4.20393e-13 5.25491e-13 0)
(-2.01438e-12 9.83836e-13 0)
(1.16776e-13 6.65622e-13 0)
(-1.38963e-12 1.22907e-12 0)
(1.28453e-12 1.39255e-12 0)
(1.60567e-12 1.16484e-12 0)
(1.58815e-12 2.05817e-12 0)
(-2.39974e-12 4.20393e-13 0)
(3.64924e-12 2.10488e-12 0)
(8.52463e-13 -1.79543e-12 0)
(-1.18527e-12 4.58929e-12 0)
(-1.58231e-12 -3.13543e-12 0)
(2.16619e-12 3.17922e-12 0)
(7.82398e-13 -2.9048e-12 0)
(-2.66833e-12 2.81138e-12 0)
(2.90188e-12 -7.7364e-13 0)
(-1.69909e-12 1.62318e-12 0)
(-5.07975e-13 -3.32811e-13 0)
(-7.00655e-14 1.50057e-12 0)
(1.81586e-12 -1.75164e-14 0)
(2.08445e-12 2.10196e-13 0)
(-2.1078e-12 2.48149e-13 0)
(6.88977e-13 2.24793e-13 0)
(5.3892e-12 -1.21155e-12 0)
(3.68136e-11 -4.49587e-13 0)
(1.27006e-09 -1.52684e-12 0)
(3.08215e-08 -1.94432e-12 0)
(7.6447e-07 -3.96921e-11 0)
(1.89821e-05 -1.17966e-09 0)
(0.000481531 -2.74378e-08 0)
(0.0129584 -6.20181e-07 0)
(0.299776 -1.0981e-05 0)
(2.92008 -9.36948e-05 0)
(9.16149 -0.000263625 0)
(13.6574 -0.000348874 0)
(16.1361 -0.000339183 0)
(17.5785 -0.000316497 0)
(18.3536 -0.00029098 0)
(18.7277 -0.000271303 0)
(18.8906 -0.000258743 0)
(18.9512 -0.000249926 0)
(18.9691 -0.000258107 0)
(18.9805 -0.000236149 0)
(18.9811 -0.000215577 0)
(18.9764 -0.000200771 0)
(18.9744 -0.000245266 0)
(18.9754 -0.000235717 0)
(18.9746 -0.00106066 0)
(18.9699 -0.00119678 0)
(18.9668 -0.00109227 0)
(18.965 -0.000289231 0)
(18.9672 0.000437641 0)
(18.9694 0.000922625 0)
(18.9689 0.000837458 0)
(18.9684 0.000634708 0)
(18.968 0.000364595 0)
(18.9703 0.000264334 0)
(18.9706 0.00022103 0)
(18.971 0.000216779 0)
(18.9717 0.000242894 0)
(18.9641 0.000284427 0)
(18.9294 0.000329149 0)
(18.8506 0.000358601 0)
(18.6408 0.000345687 0)
(18.1341 0.000310611 0)
(17.0097 0.000247495 0)
(14.6662 0.000130424 0)
(9.49123 2.2116e-05 0)
(2.45876 5.0047e-07 0)
(0.181077 -4.47293e-08 0)
(0.00622559 1.96203e-10 0)
(0.000212441 2.05031e-10 0)
(7.75046e-06 4.93577e-11 0)
(2.87188e-07 -8.16226e-12 0)
(1.06078e-08 2.32012e-12 0)
(4.24861e-10 1.64235e-12 0)
(7.15671e-12 -2.89205e-12 0)
(-3.03887e-12 3.08667e-12 0)
(2.16818e-12 -6.2826e-13 0)
(-1.80283e-12 3.19081e-12 0)
(-1.87112e-12 -2.28769e-13 0)
(1.47163e-12 3.42641e-12 0)
(5.94116e-13 -8.05812e-13 0)
(6.2826e-13 2.72132e-12 0)
(1.39993e-13 -1.70381e-12 0)
(1.37261e-12 4.57708e-12 0)
(-1.417e-12 -3.07984e-12 0)
(-1.07897e-12 4.95097e-12 0)
(1.82674e-12 -1.29237e-12 0)
(-1.54334e-12 4.74098e-12 0)
(-2.79986e-13 -6.41918e-13 0)
(-5.39484e-13 2.46865e-12 0)
(2.05892e-12 1.52456e-12 0)
(-1.43407e-12 6.45333e-13 0)
(1.53651e-12 1.487e-12 0)
(5.94116e-13 1.18311e-12 0)
(1.17116e-12 1.90698e-12 0)
(5.29241e-13 2.42085e-12 0)
(1.30091e-12 1.04312e-12 0)
(3.90273e-12 2.61718e-12 0)
(-1.67573e-12 7.29849e-14 0)
(-1.93264e-12 -3.79521e-13 0)
(-2.45229e-13 3.15295e-13 0)
(-2.1078e-12 -8.46624e-14 0)
(-2.14867e-12 -3.79521e-14 0)
(4.90458e-13 -3.8536e-13 0)
(-2.51068e-12 -1.19111e-12 0)
(-6.77299e-13 -2.02022e-12 0)
(-2.94275e-12 1.16776e-13 0)
(7.82398e-13 -2.83765e-12 0)
(2.73839e-12 6.48106e-13 0)
(-8.93335e-13 -1.04222e-12 0)
(-6.42267e-14 2.318e-12 0)
(-2.62745e-12 -1.29037e-12 0)
(5.7804e-12 4.26232e-13 0)
(1.34292e-13 -1.60567e-13 0)
(1.62902e-12 -8.6998e-13 0)
(-1.61151e-12 7.2109e-13 0)
(-8.81657e-13 -4.29151e-13 0)
(1.47137e-12 1.16776e-13 0)
(-2.97194e-12 2.01438e-13 0)
(1.16776e-13 -7.2401e-13 0)
(2.62745e-13 2.31508e-12 0)
(-1.57647e-12 -1.10061e-12 0)
(5.85455e-11 1.21739e-12 0)
(1.23993e-09 -7.00655e-14 0)
(3.08111e-08 -2.80262e-12 0)
(7.644e-07 -3.64224e-11 0)
(1.89781e-05 -8.81616e-10 0)
(0.000481439 -2.104e-08 0)
(0.012956 -4.61341e-07 0)
(0.299732 -7.82458e-06 0)
(2.91986 -6.11283e-05 0)
(9.16129 -0.00014491 0)
(13.6574 -0.00015123 0)
(16.1361 -0.000141751 0)
(17.5785 -0.000125464 0)
(18.3536 -0.000120715 0)
(18.7278 -0.000132381 0)
(18.8906 -9.68813e-05 0)
(18.9511 -0.000102706 0)
(18.969 -0.000113925 0)
(18.9804 -9.40763e-05 0)
(18.9809 -7.33733e-05 0)
(18.9762 -5.22512e-05 0)
(18.9741 -0.00012458 0)
(18.9752 -0.000134924 0)
(18.9745 -0.000937379 0)
(18.9701 -0.00106474 0)
(18.9675 -0.000976462 0)
(18.9662 -0.000257603 0)
(18.9682 0.000535851 0)
(18.97 0.00102003 0)
(18.9689 0.000948941 0)
(18.9681 0.0006994 0)
(18.9677 0.000416542 0)
(18.97 0.000297823 0)
(18.9703 0.00025709 0)
(18.9708 0.00025178 0)
(18.9716 0.000326484 0)
(18.9641 0.000329952 0)
(18.9294 0.000340608 0)
(18.8506 0.000324433 0)
(18.6407 0.000280735 0)
(18.134 0.000190399 0)
(17.0095 6.34319e-05 0)
(14.666 -4.352e-05 0)
(9.49118 -5.98592e-05 0)
(2.45881 -2.29521e-05 0)
(0.181084 -1.97166e-06 0)
(0.00622584 -8.50766e-08 0)
(0.000212448 -3.06384e-09 0)
(7.75044e-06 -9.82715e-11 0)
(2.87202e-07 -7.80375e-12 0)
(1.06721e-08 -4.28515e-13 0)
(3.81822e-10 2.31671e-12 0)
(1.97185e-11 -8.62151e-13 0)
(5.2651e-12 9.73121e-13 0)
(-3.37007e-12 7.92154e-13 0)
(3.38031e-13 1.43407e-13 0)
(2.53011e-12 1.42212e-12 0)
(-2.87839e-12 -1.20701e-12 0)
(1.94966e-12 2.75718e-12 0)
(-3.17886e-12 4.95097e-13 0)
(-2.11696e-13 1.33505e-12 0)
(-7.64839e-13 -4.71195e-13 0)
(-2.39012e-14 4.95097e-14 0)
(3.99492e-12 1.73796e-12 0)
(-1.70723e-12 -6.06066e-13 0)
(8.36542e-13 -4.09735e-14 0)
(-4.1793e-12 8.02398e-14 0)
(4.07345e-12 -7.25572e-13 0)
(-1.80966e-12 -8.45079e-13 0)
(1.01409e-12 -6.36797e-13 0)
(1.4648e-12 5.20705e-13 0)
(-5.83872e-13 2.61206e-13 0)
(5.13193e-12 -2.88522e-13 0)
(-2.48231e-12 7.97276e-13 0)
(3.55445e-12 1.15579e-12 0)
(2.82376e-12 1.49895e-12 0)
(-4.43748e-13 -7.41526e-13 0)
(-2.24209e-12 -7.79478e-13 0)
(1.08601e-12 -6.62703e-13 0)
(-1.7458e-12 -9.28367e-13 0)
(1.17944e-12 1.48889e-13 0)
(-4.55426e-13 8.46624e-14 0)
(-1.45386e-12 -4.40829e-13 0)
(4.20393e-13 1.37503e-12 0)
(1.58815e-12 -1.13856e-12 0)
(2.22458e-12 3.02157e-12 0)
(1.12689e-12 -3.22301e-12 0)
(5.3133e-13 -1.37212e-13 0)
(2.14284e-12 -1.20863e-12 0)
(-2.31216e-12 -2.13116e-13 0)
(-9.57561e-13 -8.1743e-13 0)
(8.99173e-13 -2.73839e-12 0)
(-4.02876e-13 1.34292e-13 0)
(5.02136e-13 -4.53966e-12 0)
(-1.00427e-12 2.26253e-12 0)
(2.45813e-12 -3.477e-12 0)
(7.59043e-13 -1.48889e-13 0)
(1.75164e-12 -2.86101e-13 0)
(3.3865e-13 -4.75861e-13 0)
(1.81002e-13 -5.16733e-13 0)
(4.5128e-11 -3.73682e-13 0)
(1.25597e-09 -4.87539e-12 0)
(3.08204e-08 9.35958e-12 0)
(7.64182e-07 -6.16868e-11 0)
(1.89757e-05 -5.48893e-10 0)
(0.00048137 -1.53523e-08 0)
(0.0129543 -3.36606e-07 0)
(0.299701 -5.88423e-06 0)
(2.91972 -4.78301e-05 0)
(9.16124 -0.000117038 0)
(13.6574 -0.000115101 0)
(16.1362 -7.42233e-05 0)
(17.5786 -4.20065e-05 0)
(18.3536 -3.89422e-05 0)
(18.7277 -5.25515e-05 0)
(18.8906 -0.000107828 0)
(18.9511 -0.000126086 0)
(18.9691 -0.000134835 0)
(18.9805 -0.000147927 0)
(18.9811 -0.000176976 0)
(18.9764 -0.000174965 0)
(18.9744 -0.000105478 0)
(18.9755 -0.00010031 0)
(18.9746 0.000140951 0)
(18.9699 0.000211365 0)
(18.9668 0.0002606 0)
(18.9651 0.000174438 0)
(18.9674 7.25706e-05 0)
(18.9696 -5.58043e-06 0)
(18.969 6.00878e-05 0)
(18.9684 0.000155013 0)
(18.9681 0.000257512 0)
(18.9705 0.000302874 0)
(18.9707 0.000317336 0)
(18.9712 0.0002751 0)
(18.9719 0.000276849 0)
(18.9642 0.000228437 0)
(18.9294 0.000225509 0)
(18.8505 0.000168078 0)
(18.6406 8.15707e-05 0)
(18.1338 -1.33851e-05 0)
(17.0093 -7.98561e-05 0)
(14.6659 -9.35114e-05 0)
(9.49128 -7.05052e-05 0)
(2.45889 -1.60373e-05 0)
(0.181093 -1.09184e-06 0)
(0.00622616 -4.51965e-08 0)
(0.000212458 -1.78035e-09 0)
(7.75107e-06 -1.34325e-10 0)
(2.87229e-07 5.66459e-12 0)
(1.06215e-08 -7.75082e-13 0)
(4.12818e-10 -1.67308e-12 0)
(8.78199e-12 3.79005e-13 0)
(-9.56048e-14 -2.2911e-12 0)
(7.61424e-13 -2.77937e-12 0)
(-4.06321e-13 -1.39822e-12 0)
(-4.83829e-12 -1.92063e-12 0)
(4.72561e-12 -1.94283e-12 0)
(2.3389e-12 -1.11141e-12 0)
(-1.51602e-12 -3.39226e-12 0)
(-4.26807e-13 3.15837e-13 0)
(-1.19848e-12 -3.2591e-12 0)
(2.96034e-12 1.23945e-12 0)
(-3.01155e-12 -2.52499e-12 0)
(-7.92154e-13 -8.22885e-13 0)
(5.77044e-13 -1.01068e-12 0)
(-1.79259e-12 1.22921e-13 0)
(-1.81991e-12 2.03502e-12 0)
(1.72089e-12 -9.23611e-13 0)
(1.33505e-12 3.13447e-12 0)
(2.96716e-12 -5.9753e-13 0)
(-8.98003e-13 1.66113e-12 0)
(1.99063e-12 -9.56048e-14 0)
(2.14087e-12 3.56811e-13 0)
(1.74137e-12 4.7461e-13 0)
(4.35002e-12 -1.18482e-12 0)
(-1.78083e-12 2.32092e-12 0)
(-1.54144e-12 1.85965e-12 0)
(-1.16776e-12 2.09321e-12 0)
(-4.55426e-13 1.09185e-12 0)
(-3.97038e-13 2.47273e-12 0)
(-8.6998e-13 3.64924e-13 0)
(-4.08715e-13 2.25085e-12 0)
(-2.92523e-12 6.10153e-13 0)
(9.1669e-13 8.1743e-13 0)
(-2.65081e-12 -2.16035e-13 0)
(-3.19382e-12 -1.32541e-12 0)
(3.29892e-12 -1.8509e-12 0)
(-2.16035e-13 -5.16733e-13 0)
(-1.51225e-12 -2.84641e-12 0)
(5.13813e-13 -6.71461e-14 0)
(2.53987e-12 -1.87717e-12 0)
(-1.3546e-12 3.50327e-13 0)
(2.12532e-12 -1.65822e-12 0)
(8.6998e-13 8.72899e-13 0)
(-3.38066e-12 -1.21739e-12 0)
(2.37639e-12 -1.41007e-12 0)
(1.28453e-13 -1.13273e-12 0)
(-2.4231e-12 -2.28297e-12 0)
(6.20079e-12 -1.8217e-12 0)
(4.11927e-11 -6.97735e-13 0)
(1.25309e-09 -1.93264e-12 0)
(3.0835e-08 -6.2767e-13 0)
(7.64063e-07 -6.44894e-12 0)
(1.89743e-05 -6.35114e-11 0)
(0.000481331 -1.80999e-09 0)
(0.0129533 -4.07746e-08 0)
(0.299682 -7.57271e-07 0)
(2.91961 -6.85616e-06 0)
(9.16117 -1.94888e-05 0)
(13.6575 -2.33645e-05 0)
(16.1362 -1.94087e-05 0)
(17.5786 -1.49408e-05 0)
(18.3536 -1.42942e-05 0)
(18.7277 -1.82771e-05 0)
(18.8905 -2.21697e-05 0)
(18.9511 -2.75999e-05 0)
(18.969 -3.65226e-05 0)
(18.9805 -5.54106e-05 0)
(18.981 -9.95113e-05 0)
(18.9762 -0.000123089 0)
(18.9741 -0.000161865 0)
(18.9751 -0.000165766 0)
(18.9744 -0.000123782 0)
(18.97 -9.23487e-05 0)
(18.9671 -2.58632e-05 0)
(18.9656 0.000119808 0)
(18.9678 0.000253005 0)
(18.9699 0.000319974 0)
(18.9691 0.000286748 0)
(18.9684 0.000242864 0)
(18.968 0.000192088 0)
(18.9703 0.000163146 0)
(18.9706 0.000144237 0)
(18.971 0.000131635 0)
(18.9718 0.000103054 0)
(18.9641 6.53178e-05 0)
(18.9293 4.22625e-05 0)
(18.8504 1.45694e-05 0)
(18.6404 -7.14154e-06 0)
(18.1337 -2.02011e-05 0)
(17.0093 -2.34272e-05 0)
(14.6659 -2.05948e-05 0)
(9.49137 -8.79795e-06 0)
(2.45894 -1.37196e-06 0)
(0.181096 -6.76961e-08 0)
(0.00622624 -2.04044e-09 0)
(0.000212461 -6.03249e-11 0)
(7.7512e-06 -5.86263e-12 0)
(2.87218e-07 -1.07555e-12 0)
(1.06371e-08 -2.87327e-12 0)
(4.05279e-10 -4.98511e-13 0)
(1.00078e-11 -2.5028e-12 0)
(1.28042e-12 -5.63386e-13 0)
(-1.33505e-12 -1.78235e-12 0)
(1.80283e-12 -1.42724e-12 0)
(5.53142e-13 -9.67999e-13 0)
(-7.75082e-13 9.32147e-13 0)
(-2.97058e-13 -3.35471e-12 0)
(-6.65819e-13 -1.89502e-13 0)
(9.90193e-14 -3.14472e-12 0)
(-1.02434e-14 5.80458e-14 0)
(1.97697e-12 -2.59499e-12 0)
(1.50236e-13 -5.46313e-13 0)
(3.96077e-13 -8.92881e-13 0)
(2.46182e-12 -3.41446e-15 0)
(1.06531e-12 3.41446e-15 0)
(8.67273e-13 1.16604e-12 0)
(1.53651e-13 1.22579e-12 0)
(2.30476e-12 5.1729e-13 0)
(-1.17457e-12 1.1797e-12 0)
(7.20451e-13 -7.97276e-13 0)
(2.86132e-12 1.66796e-12 0)
(-6.82892e-13 -5.37777e-13 0)
(1.17457e-12 6.55576e-13 0)
(1.43407e-13 -1.1575e-12 0)
)
;

boundaryField
{
    sides1
    {
        type            zeroGradient;
    }
    sides2
    {
        type            slip;
    }
    empty
    {
        type            empty;
    }
}


// ************************************************************************* //
