/*--------------------------------*- C++ -*----------------------------------*\
| =========                 |                                                 |
| \\      /  F ield         | OpenFOAM: The Open Source CFD Toolbox           |
|  \\    /   O peration     | Version:  2012                                  |
|   \\  /    A nd           | Website:  www.openfoam.com                      |
|    \\/     M anipulation  |                                                 |
\*---------------------------------------------------------------------------*/
FoamFile
{
    version     2.0;
    format      ascii;
    class       volScalarField;
    location    "0.16";
    object      minKappa;
}
// * * * * * * * * * * * * * * * * * * * * * * * * * * * * * * * * * * * * * //

dimensions      [0 0 0 0 0 0 0];


internalField   nonuniform List<scalar> 
2268
(
1.18856e-06
2.68923e-06
4.31319e-06
6.05089e-06
7.77744e-06
9.60996e-06
1.1471e-05
1.33982e-05
1.53929e-05
1.74676e-05
1.95536e-05
2.16833e-05
2.38188e-05
2.59119e-05
2.79224e-05
2.9265e-05
3.04202e-05
3.07169e-05
2.9849e-05
2.75687e-05
2.34494e-05
1.67376e-05
1.57998e-05
1.18856e-06
2.68923e-06
4.31319e-06
6.05089e-06
7.77744e-06
9.60996e-06
1.1471e-05
1.33982e-05
1.53929e-05
1.74676e-05
1.95536e-05
2.16833e-05
2.38188e-05
2.59119e-05
2.79224e-05
2.9265e-05
3.04202e-05
3.07169e-05
2.9849e-05
2.75687e-05
2.34494e-05
1.67376e-05
1.57998e-05
1.80387e-06
3.01693e-06
4.5271e-06
6.20556e-06
7.89865e-06
9.71033e-06
1.15563e-05
1.34748e-05
1.54634e-05
1.7535e-05
1.96258e-05
2.17657e-05
2.39017e-05
2.60342e-05
2.80289e-05
2.95017e-05
3.06965e-05
3.12725e-05
3.06631e-05
2.8589e-05
2.47214e-05
1.84997e-05
2.38254e-05
2.52615e-06
3.49691e-06
4.86168e-06
6.45452e-06
8.09623e-06
9.87503e-06
1.16966e-05
1.36011e-05
1.55796e-05
1.76461e-05
1.97433e-05
2.18977e-05
2.40482e-05
2.62261e-05
2.81982e-05
2.98486e-05
3.11993e-05
3.19797e-05
3.18327e-05
3.0113e-05
2.6693e-05
2.13894e-05
3.77061e-05
3.27941e-06
4.07315e-06
5.29203e-06
6.78567e-06
8.36322e-06
1.00996e-05
1.18887e-05
1.37743e-05
1.57397e-05
1.77992e-05
1.99038e-05
2.20776e-05
2.4259e-05
2.64847e-05
2.84595e-05
3.03323e-05
3.19185e-05
3.29965e-05
3.33841e-05
3.21805e-05
2.94247e-05
2.5167e-05
5.12409e-05
4.04245e-06
4.7075e-06
5.79525e-06
7.18601e-06
8.69188e-06
1.03791e-05
1.21289e-05
1.39913e-05
1.59409e-05
1.79922e-05
2.01043e-05
2.23009e-05
2.45226e-05
2.67988e-05
2.88379e-05
3.09361e-05
3.28001e-05
3.42897e-05
3.50965e-05
3.44494e-05
3.26676e-05
2.98082e-05
6.56659e-05
4.80632e-06
5.37613e-06
6.35098e-06
7.64208e-06
9.07315e-06
1.07071e-05
1.24129e-05
1.42485e-05
1.61812e-05
1.82241e-05
2.03442e-05
2.25674e-05
2.48382e-05
2.71745e-05
2.93362e-05
3.16756e-05
3.38578e-05
3.58329e-05
3.69834e-05
3.7139e-05
3.65951e-05
3.54004e-05
5.52207e-05
5.56694e-06
6.0644e-06
6.94398e-06
8.1432e-06
9.4994e-06
1.10783e-05
1.27372e-05
1.45436e-05
1.64588e-05
1.84941e-05
2.06228e-05
2.28746e-05
2.51993e-05
2.76053e-05
2.99167e-05
3.25236e-05
3.50439e-05
3.74506e-05
3.89171e-05
4.00906e-05
4.1255e-05
4.19887e-05
5.52207e-05
9.35685e-05
8.11036e-05
0.000144272
0.00012132
0.000113837
0.000102143
7.45431e-05
6.92035e-05
4.18082e-05
4.24313e-05
1.93321e-05
2.49718e-05
6.00713e-06
1.48618e-05
2.03147e-06
9.6618e-06
4.87952e-06
7.33205e-06
6.22398e-06
9.35685e-05
8.11036e-05
0.000144272
0.00012132
0.000113837
0.000102143
7.45431e-05
6.92035e-05
4.18082e-05
4.24313e-05
1.93321e-05
2.49718e-05
6.00713e-06
1.48618e-05
2.03147e-06
9.65861e-06
4.87952e-06
7.32399e-06
6.22398e-06
0.000106074
9.11801e-05
0.000151419
0.000130527
0.00011699
0.000105372
7.61882e-05
7.04076e-05
4.30128e-05
4.27445e-05
2.04193e-05
2.48395e-05
7.2353e-06
1.45184e-05
3.11644e-06
9.29978e-06
5.14332e-06
7.13738e-06
6.28595e-06
0.000141743
0.000112452
0.000161623
0.000137115
0.000117788
0.000107332
7.66677e-05
7.05525e-05
4.33661e-05
4.27445e-05
2.0802e-05
2.48395e-05
7.9489e-06
1.44258e-05
4.09057e-06
9.10974e-06
5.3881e-06
7.02095e-06
6.29463e-06
0.000182188
0.000144964
0.000178876
0.000154153
0.00012273
0.000112067
7.92e-05
7.2092e-05
4.51755e-05
4.33552e-05
2.23635e-05
2.46182e-05
9.46554e-06
1.38619e-05
5.24712e-06
8.56589e-06
5.80969e-06
6.72912e-06
6.36971e-06
0.000245459
0.000176703
0.000194527
0.000169437
0.000126371
0.000116092
8.13298e-05
7.30303e-05
4.65065e-05
4.33565e-05
2.35481e-05
2.46182e-05
1.09045e-05
1.35865e-05
6.4569e-06
8.17211e-06
6.23655e-06
6.48204e-06
6.40165e-06
0.000316838
0.000239076
0.000212333
0.000191977
0.000133552
0.000121313
8.49981e-05
7.4724e-05
4.88919e-05
4.39406e-05
2.54479e-05
2.44242e-05
1.2523e-05
1.29746e-05
7.59598e-06
7.43489e-06
6.72516e-06
6.07483e-06
6.46123e-06
0.000434994
0.000291602
0.000212525
0.000215481
0.000142087
0.000127723
8.91431e-05
7.66562e-05
5.11485e-05
4.43391e-05
2.72579e-05
2.44242e-05
1.42555e-05
1.29746e-05
8.84036e-06
7.43489e-06
7.25079e-06
6.07483e-06
6.50328e-06
9.88369e-06
1.05758e-05
1.18295e-05
1.35782e-05
1.55858e-05
1.79698e-05
2.04889e-05
2.32643e-05
2.62303e-05
2.94019e-05
3.27428e-05
3.63084e-05
4.00322e-05
4.39174e-05
4.78014e-05
5.23106e-05
5.67346e-05
6.10511e-05
6.41075e-05
7.00276e-05
7.9199e-05
7.98768e-05
9.16008e-05
1.68003e-05
1.75642e-05
1.90004e-05
2.10776e-05
2.34437e-05
2.60301e-05
2.90275e-05
3.23488e-05
3.60614e-05
4.0138e-05
4.45676e-05
4.93861e-05
5.46475e-05
6.03652e-05
6.66807e-05
7.38295e-05
8.14642e-05
8.85552e-05
0.0001243
0.000230766
0.000459293
0.000312232
0.000179526
2.00421e-05
2.06839e-05
2.19228e-05
2.37648e-05
2.59467e-05
2.83914e-05
3.12059e-05
3.43746e-05
3.79808e-05
4.20139e-05
4.64679e-05
5.13941e-05
5.69027e-05
6.30879e-05
6.99996e-05
7.7501e-05
8.45438e-05
0.000148048
0.00061028
0.00143066
0.00236123
0.00119409
0.000485835
2.31383e-05
2.36947e-05
2.47893e-05
2.64541e-05
2.84312e-05
3.07992e-05
3.34608e-05
3.65009e-05
4.00151e-05
4.40095e-05
4.849e-05
5.35343e-05
5.92966e-05
6.58608e-05
7.29703e-05
7.97367e-05
0.000149286
0.000908102
0.00185831
0.00166075
0.00203688
0.00262623
0.000808971
2.60615e-05
2.65547e-05
2.75404e-05
2.90684e-05
3.0881e-05
3.31163e-05
3.56421e-05
3.8565e-05
4.19864e-05
4.59303e-05
5.04208e-05
5.55717e-05
6.16043e-05
6.84481e-05
7.50197e-05
0.000134003
0.000853836
0.00178202
0.00134659
0.00114812
0.00153915
0.00256016
0.00197913
2.87795e-05
2.92248e-05
3.01262e-05
3.1544e-05
3.32241e-05
3.53295e-05
3.77351e-05
4.05534e-05
4.38951e-05
4.77948e-05
5.23138e-05
5.75971e-05
6.39202e-05
7.05292e-05
9.95965e-05
0.000538584
0.00169888
0.00131939
0.000707599
0.000897454
0.00125798
0.00242011
0.00319277
3.1267e-05
3.16751e-05
3.25086e-05
3.38323e-05
3.54054e-05
3.73382e-05
3.96271e-05
4.23452e-05
4.55737e-05
4.93925e-05
5.38459e-05
5.92009e-05
6.55928e-05
7.15316e-05
0.000180621
0.00144478
0.00131023
0.000652419
0.000562077
0.000618156
0.001039
0.00197427
0.00265402
3.34999e-05
3.38805e-05
3.46577e-05
3.58957e-05
3.73821e-05
3.91325e-05
4.12906e-05
4.38638e-05
4.69473e-05
5.06545e-05
5.50419e-05
6.05239e-05
6.67519e-05
0.000143989
0.00107604
0.00143397
0.000648347
0.000516702
0.000516702
0.000797889
0.000826587
0.00147896
0.00255161
3.54616e-05
3.58215e-05
3.65418e-05
3.77009e-05
3.90212e-05
4.06214e-05
4.26573e-05
4.50814e-05
4.80457e-05
5.15585e-05
5.58794e-05
6.13359e-05
8.78284e-05
0.000490057
0.00152901
0.000763951
0.000455436
0.000471979
0.000769733
0.000817326
0.000817326
0.00103123
0.00196785
3.71492e-05
3.74951e-05
3.81553e-05
3.9254e-05
4.04125e-05
4.18957e-05
4.37752e-05
4.60294e-05
4.8894e-05
5.32872e-05
6.33434e-05
8.54068e-05
0.000402163
0.00150295
0.00112594
0.000457819
0.000455436
0.000779361
0.000855145
0.000895737
0.000846601
0.00102727
0.00153324
3.85869e-05
3.89192e-05
3.95194e-05
4.05127e-05
4.17848e-05
4.38572e-05
4.68451e-05
5.22956e-05
6.56028e-05
9.89659e-05
0.000163942
0.000446808
0.00146815
0.00156498
0.000764166
0.000457819
0.000596644
0.000847839
0.000891279
0.000944445
0.000986977
0.00112999
0.00147121
4.6562e-05
4.81846e-05
5.09059e-05
5.71214e-05
6.48517e-05
7.94585e-05
0.000100108
0.000148175
0.000314589
0.000617268
0.000971985
0.00129337
0.00142628
0.00126498
0.000606622
0.000489717
0.000747216
0.000868399
0.000917334
0.000966407
0.00102873
0.00112962
0.00115809
0.000172654
0.000193495
0.000231425
0.000313423
0.000384036
0.000508115
0.000647318
0.000770054
0.000973584
0.00115141
0.00132944
0.0014004
0.00114925
0.000924536
0.000287291
0.000610962
0.000829124
0.000874678
0.000915549
0.000949312
0.000999099
0.00104115
0.000911677
0.000719827
0.00073787
0.000766019
0.000817155
0.000868808
0.000905608
0.000976194
0.00107454
0.00121033
0.00131842
0.00137273
0.00114636
0.000869724
0.000701705
0.000287291
0.000551027
0.000829124
0.000864328
0.000885425
0.00091492
0.000929143
0.000945507
0.000761336
0.000832873
0.000839078
0.000858235
0.000880378
0.000918929
0.00096753
0.00104937
0.00113903
0.00126435
0.00137165
0.00130359
0.000922701
0.000672206
0.000676061
0.000298493
0.000711417
0.000830386
0.000887349
0.000866046
0.000885346
0.000868098
0.000864521
0.00066308
0.00085262
0.000860375
0.000875568
0.000898731
0.000934015
0.000983245
0.00105909
0.00116236
0.00131566
0.00144079
0.00123427
0.000759096
0.000501796
0.000592123
0.000634271
0.000978919
0.000878632
0.000896458
0.0008513
0.000844702
0.000811772
0.000791269
0.000584907
0.000845577
0.000854345
0.00087119
0.000895225
0.000933028
0.000986699
0.00106304
0.00117238
0.00132184
0.00148107
0.00133387
0.000746883
0.000501796
0.000530706
0.000955094
0.00104762
0.000944404
0.000878747
0.00082757
0.000793212
0.000760323
0.00072566
0.00052888
0.000822718
0.000833569
0.000854295
0.000879452
0.000915316
0.000966595
0.00104058
0.00115394
0.00130888
0.0014697
0.00145182
0.00117121
0.000695855
0.00096851
0.00121167
0.0010437
0.000924267
0.000844485
0.000787487
0.000737183
0.000707204
0.000664354
0.000477299
0.000797174
0.000804232
0.000820629
0.000843444
0.000879301
0.000927235
0.000989685
0.00108048
0.00120943
0.0013708
0.00141935
0.00139271
0.0011805
0.00124649
0.00112627
0.000960871
0.000856464
0.000785101
0.000730485
0.000681513
0.000653092
0.000608847
0.000435329
0.000763412
0.000768214
0.000780886
0.000799978
0.000827837
0.000866842
0.000913078
0.000983426
0.00105859
0.00118195
0.00124459
0.00128365
0.00121218
0.00112082
0.00100289
0.00085975
0.000779133
0.000722747
0.000674805
0.000624157
0.000599142
0.000555866
0.000396459
0.000722211
0.000727313
0.000737317
0.000752857
0.000772902
0.000802965
0.000833462
0.000881611
0.000920568
0.000991268
0.00102574
0.00105648
0.00102002
0.000941619
0.00085418
0.000746399
0.000699566
0.000650948
0.000612924
0.000565145
0.000546287
0.000505271
0.000360912
0.000680624
0.000684437
0.000691201
0.000702843
0.000716389
0.000738041
0.000757815
0.00079023
0.000810806
0.000848649
0.00085688
0.00086629
0.000838966
0.000788215
0.000724276
0.00065932
0.000628973
0.000584063
0.000556243
0.000511561
0.000499121
0.000459456
0.000329726
0.000639166
0.000641767
0.000646087
0.000654308
0.000662623
0.000676928
0.000687773
0.000707955
0.000717656
0.000738242
0.00073617
0.000733629
0.000708479
0.000672206
0.000628795
0.000588218
0.000561303
0.000524168
0.000502511
0.000462239
0.000454299
0.000416863
0.000301797
0.000596499
0.000598468
0.000601216
0.000607013
0.000611873
0.000620901
0.000625725
0.000636724
0.000638529
0.000647825
0.000639768
0.000631605
0.00060845
0.000583503
0.000551243
0.000525517
0.000498611
0.000472463
0.000451431
0.000417947
0.000412438
0.00037846
0.000275582
0.000555768
0.000556917
0.000558049
0.000561224
0.000563083
0.000567773
0.000568494
0.000573431
0.000570506
0.000572918
0.00056179
0.000553132
0.000532149
0.000513202
0.000487511
0.000468865
0.000444094
0.000425534
0.000403343
0.000378199
0.000374447
0.000343387
0.000252785
0.000517705
0.000518192
0.000518096
0.000519197
0.000518682
0.000519953
0.000517603
0.000518261
0.000512208
0.000510476
0.000497871
0.000488932
0.00046939
0.000454392
0.000432528
0.000417812
0.000395921
0.000381428
0.000359839
0.000342998
0.000337863
0.000311652
0.00023025
0.000481647
0.000481655
0.000480772
0.000480416
0.00047834
0.000477112
0.000472644
0.000470303
0.000462134
0.000457916
0.000444126
0.000435041
0.000417119
0.000404191
0.000385046
0.000372504
0.000353319
0.000341131
0.000322065
0.000310954
0.000303639
0.00028275
0.000210846
0.000448688
0.000448255
0.000446662
0.000445078
0.000441707
0.000438602
0.000432553
0.000428149
0.000418412
0.000412402
0.000398213
0.000389155
0.000372211
0.000360623
0.000343238
0.000332115
0.000315138
0.000304755
0.000288566
0.000280599
0.000272043
0.000256447
0.000191356
0.000418665
0.00041789
0.000415767
0.0004132
0.000408836
0.000404352
0.000397141
0.000391275
0.000380503
0.00037333
0.00035887
0.000349471
0.000333334
0.000322366
0.000306423
0.000296078
0.000280897
0.000271937
0.000258257
0.000251972
0.00024337
0.000232586
0.000174646
0.000391474
0.000390464
0.00038796
0.000384691
0.000379563
0.000374071
0.000365911
0.000358894
0.0003473
0.000339102
0.000324537
0.0003148
0.000299179
0.000288576
0.000273551
0.000263783
0.00025006
0.000242146
0.000230474
0.00022513
0.000217359
0.000210191
0.000157746
0.000367312
0.000366075
0.000363219
0.000359344
0.000353566
0.000347262
0.000338365
0.000330441
0.000318303
0.00030924
0.000294614
0.000284437
0.00026916
0.000258557
0.00024418
0.000234732
0.000222116
0.000214886
0.000204794
0.000200157
0.000193584
0.000188931
0.000143261
0.000345901
0.000344498
0.000341364
0.000337044
0.000330743
0.000323824
0.000314313
0.000305584
0.000292974
0.000283112
0.000268371
0.000257613
0.000242436
0.000231722
0.000217736
0.000208425
0.000196549
0.000189779
0.000180924
0.000176892
0.000171611
0.000168674
0.000128549
0.000327242
0.000325696
0.000322311
0.000317599
0.00031083
0.000303342
0.000293297
0.000283848
0.000270853
0.000260173
0.000245275
0.000233973
0.000218824
0.000207767
0.000193874
0.000184502
0.000173115
0.000166603
0.000158635
0.000155164
0.000151104
0.000149468
0.000115872
0.000311192
0.000309519
0.000305902
0.000300863
0.000293693
0.000285724
0.000275241
0.000265127
0.000251762
0.000240349
0.000225204
0.000213162
0.00019775
0.000186217
0.000172258
0.000162644
0.000151453
0.000144992
0.000137695
0.000134722
0.000131792
0.000131257
0.000102909
0.000297659
0.000295859
0.000292016
0.000286657
0.00027911
0.000270679
0.000259779
0.000248461
0.000235319
0.000221508
0.000207537
0.000193864
0.000179206
0.000167049
0.000152743
0.000142661
0.000131401
0.000124826
0.000117995
0.000115439
0.000113578
0.000114062
9.17972e-05
0.000286599
0.000284658
0.000280578
0.000274895
0.000266677
0.000256803
0.000245827
0.000233565
0.000220714
0.000207078
0.000192726
0.000178312
0.000162927
0.000149963
0.000135128
0.000124384
0.000112772
0.000105867
9.92649e-05
9.70683e-05
9.62444e-05
9.77674e-05
8.04808e-05
0.000277943
0.00027585
0.000271423
0.000264533
0.000256013
0.000245787
0.000234237
0.000221207
0.000207209
0.000192233
0.000177085
0.000162039
0.000147445
0.000133467
0.000119483
0.000107847
9.55502e-05
8.80608e-05
8.14436e-05
7.95518e-05
7.98243e-05
8.24978e-05
7.08698e-05
0.000271666
0.000268536
0.000263194
0.000255839
0.000246779
0.000235997
0.000223964
0.00021067
0.000196671
0.000181861
0.000166551
0.000150719
0.00013496
0.000119737
0.000105636
9.30225e-05
7.97137e-05
7.13065e-05
6.43107e-05
6.26393e-05
6.41799e-05
6.82076e-05
6.1366e-05
0.000266847
0.000263464
0.000258037
0.000250547
0.000241223
0.000230038
0.000217341
0.000203117
0.000187875
0.000171726
0.000155323
0.000138832
0.000122666
0.000106916
9.20657e-05
7.86419e-05
6.54287e-05
5.57097e-05
4.78423e-05
4.63707e-05
4.95642e-05
5.53349e-05
5.35741e-05
0.000263603
0.000260141
0.000254536
0.000246763
0.000237078
0.000225506
0.000212447
0.000197948
0.000182477
0.000166041
0.000149078
0.000131648
0.000114298
9.72503e-05
8.10501e-05
6.61043e-05
5.31857e-05
4.1386e-05
3.15936e-05
3.04134e-05
3.63021e-05
4.43367e-05
4.66448e-05
0.000262323
0.000258979
0.000253449
0.000245721
0.000236032
0.00022439
0.000211119
0.000196234
0.000180174
0.000163019
0.00014529
0.000127088
0.000108871
9.07086e-05
7.30737e-05
5.62145e-05
4.091e-05
2.88777e-05
1.82157e-05
1.57491e-05
2.60901e-05
3.47056e-05
4.17849e-05
0.000261194
0.000257627
0.00025191
0.000244081
0.000234371
0.000222799
0.000209688
0.000195054
0.000179294
0.000162413
0.000144852
0.000126651
0.000108278
8.97936e-05
7.16191e-05
5.37989e-05
3.67413e-05
2.09718e-05
1.08927e-05
1.08927e-05
1.53815e-05
2.76146e-05
3.89012e-05
0.00028797
0.000880182
0.000891697
0.000917222
0.000387156
0.0010159
0.00101959
0.000553476
0.000626364
0.000626364
0.00158422
0.00158422
0.000592843
0.000592843
0.00152836
0.00174408
0.00123123
0.00123123
0.00157371
0.00193441
0.00197979
0.00197979
0.00199283
0.00209805
0.0018358
0.0018358
0.00201937
0.00209841
0.00168842
0.0016824
0.0016824
0.00169305
0.00159671
0.00159317
0.00151874
0.00151874
0.00135836
0.00135836
0.00130007
0.00130007
0.00100087
0.000996244
0.000971141
0.000971141
0.000749282
0.000740838
0.000718707
0.000718707
0.000585445
0.00058095
0.000562151
0.000562151
0.000483977
0.000475122
0.000460989
0.000460989
0.000418272
0.00040946
0.000398927
0.000398927
0.00036631
0.000356989
0.000346161
0.000346161
0.000330262
0.000321339
0.000310568
0.000310568
0.000296763
0.000287516
0.000276301
0.000276301
0.000270655
0.000262338
0.000252463
0.000252463
0.000246011
0.00023809
0.0002291
0.0002291
0.000224487
0.000217973
0.000210873
0.000210873
0.000205322
0.000199755
0.000193849
0.000193849
0.000188459
0.000183945
0.000179155
0.000179155
0.000172421
0.000168693
0.000164721
0.000164721
0.000158612
0.000155626
0.000152389
0.000152389
0.000144777
0.000142366
0.000139716
0.000139716
0.000132943
0.000131068
0.000128985
0.000128985
0.000120928
0.000119493
0.00011788
0.00011788
0.000110696
0.000109661
0.000108496
0.000108496
0.00010026
9.95413e-05
9.87586e-05
9.87586e-05
9.13544e-05
9.09408e-05
9.05085e-05
9.05085e-05
8.22084e-05
8.20654e-05
8.1922e-05
8.1922e-05
7.43692e-05
7.43692e-05
7.45117e-05
7.46551e-05
6.63191e-05
6.63191e-05
6.67313e-05
6.71549e-05
5.94749e-05
5.94749e-05
6.01706e-05
6.08802e-05
5.24958e-05
5.24958e-05
5.3468e-05
5.44663e-05
4.66338e-05
4.66338e-05
4.78975e-05
4.91874e-05
4.08559e-05
4.08559e-05
4.24162e-05
4.40054e-05
3.61935e-05
3.61935e-05
3.80559e-05
3.9932e-05
3.2089e-05
3.2089e-05
3.42409e-05
3.63846e-05
2.92557e-05
2.92557e-05
3.16389e-05
3.39835e-05
2.75788e-05
2.75788e-05
3.00912e-05
3.254e-05
0.000947241
0.000629227
0.000372175
0.000362321
0.000243706
0.000209104
0.000149428
0.000123826
8.53728e-05
7.06841e-05
4.61414e-05
3.83057e-05
2.48663e-05
1.97082e-05
1.55758e-05
1.07564e-05
1.21928e-05
8.96543e-06
1.02829e-05
0.000553476
0.000593209
0.000660707
0.000526374
0.000401677
0.000299096
0.00022561
0.000169331
0.000124466
9.3223e-05
6.68642e-05
5.08041e-05
3.53735e-05
2.40627e-05
1.84227e-05
6.55407e-06
1.40286e-05
7.12289e-06
1.17611e-05
0.000753974
0.000563134
0.000726831
0.000579773
0.000453776
0.00033048
0.00025388
0.000190388
0.000145589
0.00010529
8.36336e-05
5.43178e-05
4.60559e-05
2.40627e-05
2.3789e-05
6.55407e-06
1.65307e-05
7.12289e-06
1.2175e-05
0.00117841
0.000249115
0.000725999
0.000692133
0.000539234
0.000380705
0.000290816
0.000214433
0.000163632
0.0001197
9.44084e-05
6.40789e-05
5.4958e-05
3.08285e-05
3.17986e-05
1.15363e-05
2.14031e-05
8.60074e-06
1.55084e-05
0.00135318
0.000249115
0.000435521
0.000770863
0.000576846
0.000424584
0.000310962
0.000230515
0.00017406
0.00012598
9.82705e-05
6.71191e-05
5.49932e-05
3.26421e-05
3.1495e-05
1.36011e-05
2.35121e-05
1.12004e-05
1.8161e-05
0.00209233
0.000459381
0.000923153
0.000886485
0.000657136
0.000475144
0.000348741
0.000257797
0.000201416
0.000144095
0.000122628
7.99293e-05
7.77684e-05
4.25313e-05
4.97776e-05
2.2126e-05
3.51377e-05
1.79596e-05
2.42904e-05
0.00247477
0.00122743
0.00112261
0.000883117
0.000625991
0.000462371
0.000341485
0.000260908
0.000198516
0.000154318
0.00012034
8.95061e-05
7.62859e-05
5.2539e-05
5.24934e-05
3.29725e-05
4.17754e-05
2.71366e-05
3.16994e-05
0.00252587
0.00165112
0.00123109
0.000938336
0.000682091
0.000511137
0.000381345
0.000287805
0.000229537
0.000169032
0.00014602
0.000101948
9.7586e-05
6.3455e-05
6.83857e-05
4.33007e-05
5.04578e-05
3.67008e-05
3.99794e-05
0.0023195
0.00160753
0.0011853
0.000878189
0.000648696
0.000491443
0.000375978
0.000294111
0.000232245
0.000183954
0.000151686
0.000116412
0.000105202
7.73382e-05
7.89838e-05
5.62945e-05
6.07346e-05
4.82759e-05
5.04699e-05
0.00195184
0.00138729
0.00105796
0.000800414
0.000630317
0.000488917
0.000395948
0.000303826
0.00025269
0.000192406
0.000169959
0.000127148
0.000120039
8.88637e-05
8.93034e-05
6.7991e-05
7.07284e-05
5.9663e-05
6.10609e-05
0.00152308
0.00115308
0.000927906
0.000721051
0.000589982
0.000464755
0.000387433
0.000308745
0.000259715
0.000205918
0.000182214
0.000141823
0.000132675
0.000103242
0.000101308
8.15761e-05
8.23872e-05
7.22631e-05
7.29288e-05
0.00113482
0.000968261
0.000814494
0.00065729
0.000551112
0.000446738
0.000381698
0.000308745
0.000267621
0.000211995
0.000190981
0.000151782
0.000142396
0.000114886
0.00011174
9.38174e-05
9.33988e-05
8.44222e-05
8.45858e-05
0.000904062
0.000837328
0.000723718
0.000601324
0.00051333
0.000426307
0.000369823
0.000306901
0.000271712
0.000221391
0.000199975
0.00016411
0.000153133
0.000127958
0.000123029
0.000106724
0.000104955
9.68224e-05
9.64856e-05
0.00074766
0.000740741
0.000642976
0.000555201
0.000478266
0.000410031
0.000357074
0.000305531
0.000271113
0.000226411
0.000205878
0.000173137
0.000161678
0.000138898
0.000132959
0.00011843
0.00011577
0.000108613
0.000107932
0.000647654
0.00067115
0.000576661
0.000514775
0.000446517
0.000392713
0.000343822
0.000301466
0.000268554
0.000232438
0.000211008
0.000182633
0.000169789
0.000149835
0.00014255
0.000129767
0.000126159
0.000119846
0.000118821
0.000557716
0.000612493
0.000518342
0.000481223
0.000416195
0.000377838
0.000330615
0.000297916
0.000265044
0.000235741
0.000214375
0.000189875
0.00017642
0.000159108
0.000151031
0.000139967
0.000135747
0.000130302
0.000129047
0.000500792
0.000560989
0.000471893
0.000453008
0.00038884
0.000362568
0.00031741
0.000292646
0.000260651
0.000238733
0.000216629
0.000196456
0.000182017
0.000167518
0.000158551
0.000149182
0.000144347
0.000139706
0.000138226
0.000444959
0.00051351
0.000432596
0.00042549
0.000363276
0.000348678
0.000304107
0.00028747
0.00025558
0.000239781
0.000217731
0.000201289
0.000186489
0.000174497
0.00016507
0.000157275
0.000152081
0.000148216
0.000146603
0.000408822
0.000472105
0.000401872
0.000400369
0.000341955
0.000335102
0.000291293
0.000281137
0.000249833
0.00023915
0.00021695
0.00020513
0.000189815
0.000180337
0.000170416
0.000164152
0.000158609
0.000155464
0.000153714
0.00037185
0.000433937
0.000373518
0.000374835
0.000321937
0.000320426
0.000279002
0.000274334
0.000243676
0.000237382
0.00021526
0.000207567
0.000192174
0.000184909
0.000174827
0.000169935
0.000164252
0.000161785
0.000159994
0.000344051
0.000400918
0.000349833
0.000352107
0.000305566
0.000306628
0.000268212
0.000267032
0.000237479
0.000234505
0.000212915
0.000209014
0.000193504
0.000188355
0.000178109
0.000174519
0.000168696
0.000166834
0.000164987
0.000316797
0.000370573
0.000326727
0.000329764
0.000288971
0.000291841
0.000257121
0.000258576
0.000231075
0.000230768
0.000210042
0.000208627
0.000193739
0.000190701
0.000180557
0.00017811
0.000172327
0.000171017
0.000169113
0.000293549
0.000343509
0.000306089
0.000309805
0.000274546
0.000278419
0.00024754
0.000250366
0.000225096
0.000226476
0.000206934
0.000207128
0.000192889
0.00019203
0.000182037
0.000180616
0.000174877
0.000174083
0.000172172
0.000270312
0.000318658
0.00028623
0.000290635
0.000259876
0.000264613
0.000237285
0.000241279
0.000218467
0.000221225
0.000203276
0.000204774
0.000191417
0.000192027
0.00018283
0.000182264
0.000176688
0.000176319
0.000174479
0.000250632
0.000295668
0.000267773
0.000272949
0.000246435
0.000251875
0.000228024
0.000232743
0.000212428
0.000215975
0.000199641
0.000201975
0.000189632
0.000190985
0.000182426
0.000183017
0.000177677
0.000177684
0.000175931
0.000230162
0.000274236
0.000250212
0.00025612
0.000233133
0.000239208
0.00021836
0.000223734
0.000205768
0.000210034
0.000195392
0.000198449
0.000187256
0.000189233
0.000181382
0.000182523
0.000177877
0.000178372
0.000176731
0.00021299
0.000254295
0.000233804
0.000240387
0.000220687
0.00022733
0.000209356
0.000215228
0.000199565
0.0002043
0.000191344
0.000194845
0.000184796
0.000187171
0.000180051
0.000181492
0.000177259
0.000177939
0.000176541
0.000195009
0.000235563
0.000218173
0.000225411
0.000208576
0.000215756
0.000200284
0.000206617
0.000193018
0.000198189
0.000186829
0.000190747
0.000181848
0.000184589
0.000178237
0.000179958
0.000176158
0.000176987
0.000175728
0.000179909
0.000218111
0.000203564
0.0002114
0.000197232
0.000204883
0.000191773
0.000198484
0.00018686
0.00019235
0.00018254
0.000186731
0.000178961
0.000181928
0.000176329
0.000178205
0.00017484
0.000175746
0.000174623
0.000164069
0.000201665
0.000189698
0.000198091
0.000186312
0.00019441
0.000183399
0.000190474
0.000180616
0.000186411
0.000178009
0.00018247
0.000175756
0.000178951
0.000174077
0.000176122
0.000173177
0.000174168
0.000173184
0.000150721
0.000186249
0.000176817
0.000185664
0.000176144
0.000184623
0.000175587
0.000182965
0.000174776
0.000180807
0.000173745
0.000178394
0.000172691
0.000176029
0.000171854
0.000173993
0.000171457
0.000172491
0.000171642
0.000136771
0.000171657
0.000164723
0.000173924
0.000166497
0.000175317
0.000168068
0.000175732
0.000169038
0.000175299
0.00016944
0.000174278
0.000169491
0.000172982
0.000169445
0.000171693
0.00016953
0.000170623
0.000169895
0.000125125
0.000158084
0.000153595
0.00016305
0.00015763
0.000166726
0.000161156
0.000169051
0.000163754
0.000170193
0.000165459
0.000170434
0.000166504
0.000170097
0.000167161
0.000169475
0.000167666
0.000168793
0.000168182
0.000113065
0.000145492
0.000143265
0.000152921
0.00014938
0.000158707
0.000154666
0.000162769
0.000158721
0.000165331
0.000161596
0.000166707
0.000163538
0.000167236
0.000164832
0.000167222
0.000165726
0.000166893
0.000166384
0.000103073
0.000134091
0.000133879
0.000143758
0.000141965
0.000151468
0.000148846
0.000157106
0.000154203
0.00016094
0.000158116
0.000163326
0.000160851
0.000164623
0.000162707
0.000165147
0.00016394
0.000165135
0.000164721
9.28247e-05
0.000123788
0.000125307
0.000135486
0.000135241
0.000144906
0.000143552
0.000151947
0.000150053
0.000156905
0.000154874
0.000160179
0.000158303
0.00016215
0.000160652
0.000163144
0.000162183
0.000163405
0.000163072
8.44771e-05
0.000114824
0.000117808
0.000128342
0.000129427
0.000139233
0.000138995
0.000147478
0.000146475
0.000153403
0.000152069
0.000157438
0.000156089
0.000159986
0.000158858
0.000161386
0.000160645
0.000161889
0.000161629
7.62782e-05
0.000107099
0.000111283
0.00012222
0.000124389
0.000134357
0.000135043
0.000143608
0.00014335
0.000150344
0.000149589
0.000155017
0.000154102
0.000158049
0.000157221
0.000159785
0.00015922
0.000160483
0.00016028
6.99114e-05
0.000100928
0.000106052
0.000117353
0.000120365
0.000130465
0.00013188
0.000140494
0.000140837
0.000147865
0.000147582
0.000153043
0.000152483
0.00015646
0.000155881
0.000158467
0.000158047
0.000159323
0.00015917
6.43778e-05
9.62027e-05
0.000101989
0.000113615
0.000117218
0.000127448
0.000129381
0.00013805
0.000138825
0.000145889
0.00014595
0.000151446
0.000151146
0.000155156
0.000154761
0.000157375
0.000157067
0.000158361
0.000158247
6.06637e-05
9.31448e-05
9.93148e-05
0.000111142
0.000115101
0.000125406
0.000127666
0.000136363
0.000137422
0.000144503
0.000144796
0.00015031
0.000150189
0.000154217
0.000153948
0.000156578
0.000156345
0.000157643
0.00015755
5.84092e-05
9.31448e-05
9.93148e-05
0.000111142
0.000115101
0.000125406
0.000127666
0.000136363
0.000137422
0.000144503
0.000144796
0.00015031
0.000150189
0.000154217
0.000153948
0.000156578
0.000156345
0.000157643
0.00015755
)
;

boundaryField
{
    leftWall
    {
        type            calculated;
        value           uniform 0;
    }
    rightWall
    {
        type            calculated;
        value           uniform 0;
    }
    lowerWall
    {
        type            calculated;
        value           uniform 0;
    }
    atmosphere
    {
        type            calculated;
        value           uniform 0;
    }
    defaultFaces
    {
        type            empty;
    }
}


// ************************************************************************* //
