/*--------------------------------*- C++ -*----------------------------------*\
| =========                 |                                                 |
| \\      /  F ield         | OpenFOAM: The Open Source CFD Toolbox           |
|  \\    /   O peration     | Version:  2012                                  |
|   \\  /    A nd           | Website:  www.openfoam.com                      |
|    \\/     M anipulation  |                                                 |
\*---------------------------------------------------------------------------*/
FoamFile
{
    version     2.0;
    format      ascii;
    class       surfaceScalarField;
    location    "0.16";
    object      phi;
}
// * * * * * * * * * * * * * * * * * * * * * * * * * * * * * * * * * * * * * //

dimensions      [0 3 -1 0 0 0 0];
oriented        oriented;


internalField   nonuniform List<scalar> 
4432
(
5.66426e-06
-5.66425e-06
1.13556e-05
-5.69131e-06
1.7141e-05
-5.78541e-06
2.30321e-05
-5.89114e-06
2.90481e-05
-6.01596e-06
3.52857e-05
-6.23765e-06
4.16646e-05
-6.37887e-06
4.82764e-05
-6.61184e-06
5.51213e-05
-6.84486e-06
6.21338e-05
-7.01252e-06
6.92154e-05
-7.08156e-06
7.64175e-05
-7.20214e-06
8.35183e-05
-7.10079e-06
9.04629e-05
-6.94464e-06
9.60544e-05
-5.59148e-06
0.000100272
-4.21737e-06
0.000102509
-2.23698e-06
0.000101234
1.2742e-06
9.5689e-05
5.54546e-06
8.45943e-05
1.10946e-05
6.54965e-05
1.90978e-05
3.78533e-05
2.76432e-05
3.78559e-05
5.65546e-06
-1.13197e-05
1.13419e-05
-1.13777e-05
1.71173e-05
-1.15608e-05
2.30011e-05
-1.17749e-05
2.901e-05
-1.20249e-05
3.52432e-05
-1.24708e-05
4.16211e-05
-1.27567e-05
4.82326e-05
-1.32234e-05
5.50817e-05
-1.36939e-05
6.21114e-05
-1.40423e-05
6.9223e-05
-1.41931e-05
7.64426e-05
-1.44218e-05
8.35983e-05
-1.42564e-05
9.05951e-05
-1.39415e-05
9.63608e-05
-1.13572e-05
0.000100706
-8.5621e-06
0.000103381
-4.91222e-06
0.000102781
1.87441e-06
9.74334e-05
1.08926e-05
8.63603e-05
2.21677e-05
6.71017e-05
3.83564e-05
3.87322e-05
5.60128e-05
7.6591e-05
5.63825e-06
-1.6958e-05
1.13132e-05
-1.70527e-05
1.70689e-05
-1.73165e-05
2.29384e-05
-1.76444e-05
2.89334e-05
-1.80198e-05
3.51573e-05
-1.86947e-05
4.15332e-05
-1.91327e-05
4.81446e-05
-1.98348e-05
5.50022e-05
-2.05516e-05
6.20668e-05
-2.11068e-05
6.92416e-05
-2.1368e-05
7.65231e-05
-2.17033e-05
8.38103e-05
-2.15437e-05
9.09302e-05
-2.10614e-05
9.70298e-05
-1.74568e-05
0.000101924
-1.34565e-05
0.000105287
-8.27534e-06
0.000105788
1.374e-06
0.00010142
1.52606e-05
9.05922e-05
3.2995e-05
7.02291e-05
5.87194e-05
4.00988e-05
8.61431e-05
0.000116695
5.61336e-06
-2.25713e-05
1.12671e-05
-2.27065e-05
1.69954e-05
-2.30449e-05
2.28443e-05
-2.34932e-05
2.88178e-05
-2.39934e-05
3.5026e-05
-2.49029e-05
4.13975e-05
-2.55042e-05
4.80071e-05
-2.64443e-05
5.48731e-05
-2.74177e-05
6.19797e-05
-2.82133e-05
6.92326e-05
-2.86209e-05
7.66187e-05
-2.90894e-05
8.4063e-05
-2.8988e-05
9.1291e-05
-2.82894e-05
9.77776e-05
-2.39434e-05
0.000103416
-1.90947e-05
0.000107427
-1.22863e-05
0.000109008
-2.071e-07
0.000105731
1.85377e-05
9.49451e-05
4.37805e-05
7.40932e-05
7.95713e-05
4.26752e-05
0.000117561
0.000159376
5.57964e-06
-2.8151e-05
1.11987e-05
-2.83256e-05
1.68936e-05
-2.87397e-05
2.27144e-05
-2.93141e-05
2.86594e-05
-2.99384e-05
3.48447e-05
-3.10882e-05
4.12083e-05
-3.18678e-05
4.78158e-05
-3.30519e-05
5.46927e-05
-3.42946e-05
6.18517e-05
-3.53723e-05
6.92103e-05
-3.59795e-05
7.67523e-05
-3.66315e-05
8.44262e-05
-3.66619e-05
9.19167e-05
-3.57799e-05
9.90247e-05
-3.10514e-05
0.000105699
-2.57686e-05
0.000111071
-1.76589e-05
0.000114387
-3.52248e-06
0.000112825
2.00992e-05
0.000103248
5.33575e-05
8.16268e-05
0.000101192
4.77707e-05
0.000151417
0.000207163
5.53697e-06
-3.36879e-05
1.11129e-05
-3.39015e-05
1.67648e-05
-3.43916e-05
2.25495e-05
-3.50988e-05
2.84588e-05
-3.58476e-05
3.46117e-05
-3.72411e-05
4.09608e-05
-3.82168e-05
4.75631e-05
-3.96542e-05
5.44478e-05
-4.11793e-05
6.16563e-05
-4.25808e-05
6.91216e-05
-4.34448e-05
7.68281e-05
-4.4338e-05
8.47302e-05
-4.45639e-05
9.25797e-05
-4.36294e-05
0.000100327
-3.87984e-05
0.000107962
-3.34036e-05
0.000114623
-2.43204e-05
0.00011913
-8.02985e-06
0.000118313
2.09162e-05
0.000108914
6.2757e-05
8.70546e-05
0.000123052
5.07883e-05
0.000187683
0.000257962
5.4834e-06
-3.91713e-05
1.10064e-05
-3.94244e-05
1.66047e-05
-3.999e-05
2.23439e-05
-4.08379e-05
2.82102e-05
-4.1714e-05
3.43228e-05
-4.33538e-05
4.06516e-05
-4.45455e-05
4.72482e-05
-4.62508e-05
5.41448e-05
-4.80759e-05
6.14111e-05
-4.98472e-05
6.9004e-05
-5.10376e-05
7.69192e-05
-5.22532e-05
8.51292e-05
-5.2774e-05
9.34847e-05
-5.19849e-05
0.00010212
-4.74341e-05
0.000111034
-4.23172e-05
0.000119557
-3.28437e-05
0.000125986
-1.44588e-05
0.000127515
1.93876e-05
0.00012139
6.8882e-05
0.000101388
0.000143054
6.4455e-05
0.000224627
0.000322452
5.42161e-06
-4.4593e-05
1.08836e-05
-4.48864e-05
1.64216e-05
-4.5528e-05
2.21065e-05
-4.65228e-05
2.79204e-05
-4.75279e-05
3.39821e-05
-4.94154e-05
4.02807e-05
-5.08442e-05
4.68669e-05
-5.2837e-05
5.37703e-05
-5.49793e-05
6.10833e-05
-5.71602e-05
6.87877e-05
-5.8742e-05
7.689e-05
-6.03555e-05
8.53764e-05
-6.12604e-05
9.42029e-05
-6.08115e-05
0.000103651
-5.68822e-05
0.000113717
-5.23831e-05
0.000123569
-4.26955e-05
0.000131187
-2.20775e-05
0.000134172
1.64028e-05
0.000130568
7.2486e-05
0.000112074
0.000161592
7.00923e-05
0.000266609
0.000392545
-1.25895e-05
1.25866e-05
-1.81441e-05
5.55191e-06
-2.24418e-05
4.29506e-06
-2.0168e-05
-2.27605e-06
-1.84384e-05
-1.73185e-06
-1.51181e-05
-3.32228e-06
-1.21719e-05
-2.94813e-06
-9.40167e-06
-2.77193e-06
-7.0233e-06
-2.3801e-06
-5.1431e-06
-1.88178e-06
-3.60316e-06
-1.54153e-06
-2.49414e-06
-1.1105e-06
-1.61335e-06
-8.82293e-07
-1.03898e-06
-5.75821e-07
-5.97668e-07
-4.42759e-07
-3.48364e-07
-2.5072e-07
-1.641e-07
-1.85688e-07
-7.28974e-08
-9.26138e-08
-7.43139e-08
-1.32287e-05
2.58123e-05
-1.85012e-05
1.08217e-05
-2.21291e-05
7.92035e-06
-1.997e-05
-4.43741e-06
-1.81967e-05
-3.50738e-06
-1.48888e-05
-6.63215e-06
-1.19698e-05
-5.86908e-06
-9.22129e-06
-5.52216e-06
-6.8714e-06
-4.73171e-06
-5.005e-06
-3.74974e-06
-3.4899e-06
-3.05821e-06
-2.39583e-06
-2.20607e-06
-1.53578e-06
-1.74384e-06
-9.75528e-07
-1.13752e-06
-5.50612e-07
-8.6912e-07
-3.13639e-07
-4.89107e-07
-1.42238e-07
-3.58523e-07
-6.19117e-08
-1.74338e-07
-1.37636e-07
-1.56714e-05
4.14807e-05
-2.14675e-05
1.66152e-05
-2.53432e-05
1.17934e-05
-2.20605e-05
-7.72237e-06
-1.9212e-05
-6.35817e-06
-1.54761e-05
-1.037e-05
-1.21751e-05
-9.17201e-06
-9.31006e-06
-8.3889e-06
-6.86761e-06
-7.17587e-06
-4.99456e-06
-5.62436e-06
-3.46069e-06
-4.59366e-06
-2.37719e-06
-3.29105e-06
-1.51486e-06
-2.60766e-06
-9.63564e-07
-1.69025e-06
-5.3924e-07
-1.29489e-06
-3.07442e-07
-7.22317e-07
-1.37327e-07
-5.30067e-07
-6.00671e-08
-2.52988e-07
-1.99113e-07
-1.72381e-05
5.87158e-05
-2.23997e-05
2.17739e-05
-2.43924e-05
1.37835e-05
-2.12012e-05
-1.0916e-05
-1.83977e-05
-9.16383e-06
-1.48045e-05
-1.39652e-05
-1.1559e-05
-1.24194e-05
-8.75291e-06
-1.11967e-05
-6.40192e-06
-9.52854e-06
-4.57533e-06
-7.45251e-06
-3.12e-06
-6.05055e-06
-2.08288e-06
-4.32965e-06
-1.28359e-06
-3.40844e-06
-7.74552e-07
-2.20071e-06
-3.99208e-07
-1.67167e-06
-2.03804e-07
-9.19126e-07
-7.20871e-08
-6.63201e-07
-2.72244e-08
-2.99239e-07
-2.27747e-07
-2.41923e-05
8.29048e-05
-2.98517e-05
2.74307e-05
-3.10587e-05
1.49878e-05
-2.53263e-05
-1.66507e-05
-2.01568e-05
-1.43355e-05
-1.57329e-05
-1.8391e-05
-1.18615e-05
-1.62926e-05
-8.87585e-06
-1.41841e-05
-6.36929e-06
-1.20368e-05
-4.54074e-06
-9.2826e-06
-3.05605e-06
-7.53681e-06
-2.04373e-06
-5.34343e-06
-1.24203e-06
-4.21161e-06
-7.51906e-07
-2.69225e-06
-3.78196e-07
-2.04681e-06
-1.93277e-07
-1.10544e-06
-6.36094e-08
-7.94274e-07
-2.42289e-08
-3.40009e-07
-2.53375e-07
-2.53717e-05
0.000108273
-2.97422e-05
3.17982e-05
-2.92577e-05
1.45007e-05
-2.37878e-05
-2.2123e-05
-1.87473e-05
-1.93781e-05
-1.45739e-05
-2.25664e-05
-1.08393e-05
-2.0029e-05
-7.93671e-06
-1.70884e-05
-5.58859e-06
-1.43866e-05
-3.83992e-06
-1.10328e-05
-2.48989e-06
-8.88839e-06
-1.55538e-06
-6.27939e-06
-8.6014e-07
-4.90832e-06
-4.39592e-07
-3.11421e-06
-1.47472e-07
-2.34036e-06
-2.21153e-08
-1.23217e-06
4.37717e-08
-8.61561e-07
3.00417e-08
-3.27661e-07
-2.24713e-07
-4.19071e-05
0.000150176
-4.36388e-05
3.35274e-05
-3.74475e-05
8.30663e-06
-2.90916e-05
-3.04812e-05
-2.07353e-05
-2.77366e-05
-1.5531e-05
-2.77726e-05
-1.10706e-05
-2.44913e-05
-7.99408e-06
-2.01665e-05
-5.47781e-06
-1.69045e-05
-3.7574e-06
-1.27547e-05
-2.3815e-06
-1.02658e-05
-1.49355e-06
-7.16876e-06
-7.98189e-07
-5.60513e-06
-4.0808e-07
-3.50571e-06
-1.1849e-07
-2.63136e-06
-8.71771e-09
-1.34331e-06
5.48798e-08
-9.26549e-07
3.3718e-08
-3.07865e-07
-1.92363e-07
-4.30255e-05
0.0001932
-3.98965e-05
3.03952e-05
-3.32718e-05
1.67931e-06
-2.71628e-05
-3.65928e-05
-1.89065e-05
-3.59949e-05
-1.40679e-05
-3.26132e-05
-9.71364e-06
-2.88473e-05
-6.7181e-06
-2.31637e-05
-4.38482e-06
-1.92394e-05
-2.78205e-06
-1.4359e-05
-1.59215e-06
-1.14572e-05
-8.15293e-07
-7.94703e-06
-2.70436e-07
-6.15143e-06
2.30293e-08
-3.80055e-06
1.98372e-07
-2.8081e-06
2.26992e-07
-1.37329e-06
2.01661e-07
-9.02597e-07
1.0833e-07
-2.15884e-07
-8.53967e-08
1.12972e-05
-5.58901e-05
2.26832e-05
-5.62724e-05
3.42343e-05
-5.70791e-05
4.6108e-05
-5.83965e-05
5.82677e-05
-5.96876e-05
7.09602e-05
-6.2108e-05
8.42168e-05
-6.41007e-05
9.81577e-05
-6.67779e-05
0.000112851
-6.96731e-05
0.000128553
-7.28619e-05
0.00014532
-7.55089e-05
0.000163256
-7.82912e-05
0.000182423
-8.04276e-05
0.000203119
-8.15074e-05
0.000226428
-8.01911e-05
0.000251999
-7.79546e-05
0.000278514
-6.921e-05
0.000302492
-4.6056e-05
0.000326317
-7.42265e-06
0.000340373
5.84196e-05
0.000333591
0.000168376
0.000281493
0.000326558
0.000452993
0.000221376
1.08989e-05
-6.67891e-05
2.18888e-05
-6.72623e-05
3.30449e-05
-6.82352e-05
4.45307e-05
-6.98823e-05
5.63273e-05
-7.14842e-05
6.86611e-05
-7.44418e-05
8.16183e-05
-7.7058e-05
9.53557e-05
-8.05153e-05
0.000109964
-8.42809e-05
0.000125746
-8.86448e-05
0.000142882
-9.26445e-05
0.000161608
-9.70174e-05
0.000182158
-0.000100978
0.00020525
-0.000104599
0.000231723
-0.000106664
0.000261183
-0.000107415
0.000291343
-9.93701e-05
0.000324663
-7.28445e-05
0.000352827
-3.56211e-05
0.000364043
4.73365e-05
0.000346996
0.000186452
0.000280665
0.000392595
0.00050276
0.00023073
1.03921e-05
-7.71812e-05
2.08733e-05
-7.77435e-05
3.15173e-05
-7.88792e-05
4.24907e-05
-8.08557e-05
5.37986e-05
-8.27921e-05
6.56367e-05
-8.62798e-05
7.8141e-05
-8.95623e-05
9.14983e-05
-9.38726e-05
0.000105845
-9.86273e-05
0.000121491
-0.000104292
0.000138726
-0.000109879
0.000157996
-0.000116288
0.000179703
-0.000122685
0.000204254
-0.00012915
0.000231414
-0.000133824
0.000259843
-0.000135844
0.000293942
-0.000119696
0.000318608
-9.75699e-05
0.000340569
-5.66653e-05
0.000354761
3.39203e-05
0.000342583
0.000199209
0.00025835
0.000478372
0.00055998
0.000201505
9.81023e-06
-8.69914e-05
1.97041e-05
-8.76374e-05
2.97536e-05
-8.89287e-05
4.01149e-05
-9.12171e-05
5.08207e-05
-9.34978e-05
6.20355e-05
-9.74946e-05
7.39243e-05
-0.000101451
8.66921e-05
-0.00010664
0.000100505
-0.000112441
0.000115706
-0.000119493
0.000132632
-0.000126805
0.00015191
-0.000135566
0.000174212
-0.000144986
0.000198968
-0.000153906
0.000222995
-0.00015785
0.000255163
-0.000153288
0.000278988
-0.000143561
0.000303672
-0.000121307
0.000319071
-7.16856e-05
0.000331002
2.20452e-05
0.000296367
0.000233882
0.000205525
0.000569228
0.000588759
0.000176734
9.11068e-06
-9.61021e-05
1.82994e-05
-9.68261e-05
2.76367e-05
-9.8266e-05
3.72507e-05
-0.000100831
4.7208e-05
-0.000103455
5.76254e-05
-0.000107912
6.8687e-05
-0.000112513
8.05957e-05
-0.000118549
9.35478e-05
-0.000125393
0.000107898
-0.000133843
0.000124093
-0.000143
0.000142911
-0.000154384
0.000165362
-0.000167437
0.00018967
-0.000178215
0.000212148
-0.000180328
0.000236458
-0.000177647
0.000261261
-0.000167569
0.000277544
-0.000137213
0.000260932
-5.50527e-05
0.000203485
7.9512e-05
0.000168594
0.000268798
0.000171005
0.000566847
0.000592091
0.000169551
8.34659e-06
-0.000104449
1.67626e-05
-0.000105242
2.53094e-05
-0.000106813
3.40806e-05
-0.000109602
4.31709e-05
-0.000112545
5.26523e-05
-0.000117393
6.27003e-05
-0.000122561
7.35333e-05
-0.000129382
8.52906e-05
-0.00013715
9.83864e-05
-0.000146938
0.000113151
-0.000157765
0.000130603
-0.000171836
0.000151243
-0.000188077
0.000175106
-0.000202078
0.000194832
-0.000200089
0.000218479
-0.000200735
0.000237287
-0.000185903
0.000212734
-0.000112637
0.000143102
1.45949e-05
8.17091e-05
0.000140923
0.000102783
0.000247743
0.000161305
0.000508357
0.000586234
0.000167678
7.48004e-06
-0.000111929
1.50253e-05
-0.000112787
2.26803e-05
-0.000114468
3.05025e-05
-0.000117425
3.86109e-05
-0.000120654
4.6978e-05
-0.00012576
5.58123e-05
-0.000131395
6.51812e-05
-0.000138751
7.53366e-05
-0.000147305
8.64762e-05
-0.000158078
9.91201e-05
-0.000170409
0.000113666
-0.000186382
0.000127496
-0.000201906
0.000165445
-0.000205871
0.00018695
-0.000221583
0.000203098
-0.000216241
0.000178835
-0.000161614
8.04791e-05
-1.4268e-05
1.35667e-06
9.3731e-05
-8.49496e-06
0.000150791
5.4161e-05
0.000185104
0.000148086
0.000414451
0.000562142
0.000172213
6.58857e-06
-0.000118517
1.32335e-05
-0.000119432
1.99284e-05
-0.000121163
2.67294e-05
-0.000124226
3.3718e-05
-0.000127642
4.08108e-05
-0.000132853
4.82252e-05
-0.00013881
5.58806e-05
-0.000146406
6.42307e-05
-0.000155655
7.3007e-05
-0.000166854
8.35557e-05
-0.000180957
9.57648e-05
-0.000198592
0.000110889
-0.000217031
0.000135886
-0.00023113
0.000151796
-0.000236947
0.000143248
-0.000207577
5.56272e-05
-7.39808e-05
-4.11549e-05
8.25249e-05
-6.00559e-05
0.000112644
-4.73212e-05
0.000138069
3.7043e-06
0.000134091
0.000124689
0.000293483
0.000494647
0.00019219
5.64972e-06
-0.000124167
1.1346e-05
-0.000125129
1.70316e-05
-0.000126848
2.27972e-05
-0.000129991
2.8609e-05
-0.000133454
3.44382e-05
-0.000138682
4.0316e-05
-0.000144687
4.628e-05
-0.00015237
5.24877e-05
-0.000161863
5.89222e-05
-0.000173289
6.66926e-05
-0.000188728
7.63756e-05
-0.000208275
8.94101e-05
-0.000230147
0.000108835
-0.000250554
0.000118305
-0.000246156
4.96382e-05
-0.000138901
-5.41385e-05
2.98045e-05
-8.45536e-05
0.000112949
-8.6622e-05
0.000114722
-7.59172e-05
0.000127374
-6.03386e-05
0.000118523
4.20587e-05
0.000191094
0.000390915
0.000145797
4.82049e-06
-0.000128988
9.65118e-06
-0.000129959
1.44043e-05
-0.000131602
1.9135e-05
-0.000134722
2.37828e-05
-0.000138102
2.83715e-05
-0.000143271
3.28697e-05
-0.000149186
3.75429e-05
-0.000157044
4.22187e-05
-0.000166539
4.73458e-05
-0.000178417
5.24576e-05
-0.000193846
6.06307e-05
-0.000216565
7.40203e-05
-0.000244357
8.45267e-05
-0.000260769
5.68158e-05
-0.000218426
-4.04096e-05
-4.16696e-05
-0.000101803
9.12052e-05
-0.00010283
0.000113983
-0.000108164
0.000120064
-0.000106616
0.000125836
-0.000116394
0.000128309
-8.35687e-05
0.000158279
0.000303113
4.23971e-06
4.0356e-06
-0.000133023
8.05862e-06
-0.000133982
1.2014e-05
-0.000135557
1.58997e-05
-0.000138608
1.97632e-05
-0.000141966
2.3579e-05
-0.000147088
2.73913e-05
-0.000153
3.12511e-05
-0.000160913
3.51449e-05
-0.000170514
3.93055e-05
-0.000182998
4.33103e-05
-0.000198867
5.56583e-05
-0.000230013
6.6982e-05
-0.000255523
5.67117e-05
-0.000250485
-8.15769e-06
-0.000153546
-8.32723e-05
3.34493e-05
-0.000106771
0.00011471
-0.000106762
0.00011398
-0.000113093
0.000126401
-0.00011776
0.000130509
-0.000132443
0.000142999
-0.000138556
0.000164399
0.000255192
-9.06299e-05
3.56592e-06
-0.000136621
7.09366e-06
-0.000137552
1.05663e-05
-0.000139092
1.38167e-05
-0.000141978
1.7071e-05
-0.000145429
2.02761e-05
-0.000150699
2.36667e-05
-0.000157044
2.73653e-05
-0.000165627
3.20036e-05
-0.000176141
3.90591e-05
-0.000190545
5.5993e-05
-0.000215801
6.3394e-05
-0.000237001
4.57641e-05
-0.000237889
2.10034e-05
-0.000225702
-4.58191e-05
-8.67121e-05
-9.75511e-05
8.51857e-05
-0.00010313
0.000120294
-0.000107988
0.000118843
-0.000111304
0.000129724
-0.000115075
0.000134287
-0.000120921
0.00014885
-0.000123035
0.000166519
0.000220323
-8.81612e-05
3.1028e-06
-0.000140689
6.12821e-06
-0.000141515
9.28463e-06
-0.000143153
1.24322e-05
-0.000145911
1.59166e-05
-0.000149586
1.99593e-05
-0.000155165
2.84496e-05
-0.000165692
4.21447e-05
-0.000179322
6.57388e-05
-0.000199766
8.22775e-05
-0.000207093
9.60695e-05
-0.000229594
7.26921e-05
-0.000213623
2.76589e-05
-0.000192859
-3.54944e-07
-0.000197689
-6.54993e-05
-2.15626e-05
-9.86322e-05
0.000118322
-9.94905e-05
0.000121157
-0.000104536
0.000123893
-0.000104376
0.000129569
-0.000104916
0.000134831
-0.000102673
0.000146612
-9.46921e-05
0.000158542
0.00018972
-6.40849e-05
3.89929e-06
-0.000144591
7.94117e-06
-0.000145559
1.33628e-05
-0.000148576
1.93095e-05
-0.000151858
2.74188e-05
-0.000157694
3.66582e-05
-0.000164403
4.96822e-05
-0.000178708
6.51156e-05
-0.000194756
8.81752e-05
-0.00022283
0.000105062
-0.000223982
0.000109081
-0.000233618
7.18233e-05
-0.000176366
1.98801e-05
-0.000140916
-1.21359e-05
-0.000165682
-6.94019e-05
3.57066e-05
-9.1815e-05
0.000140739
-9.3511e-05
0.000122857
-9.8566e-05
0.000128952
-9.6171e-05
0.000127178
-9.37613e-05
0.000132425
-8.67672e-05
0.000139622
-7.50018e-05
0.000146781
0.000166112
-5.13905e-05
3.15443e-06
-0.000147739
6.63174e-06
-0.00014903
1.11003e-05
-0.000153038
1.61964e-05
-0.000156949
2.32647e-05
-0.000164756
3.19457e-05
-0.000173078
4.2449e-05
-0.000189201
5.19679e-05
-0.000204275
6.42214e-05
-0.000235085
8.22752e-05
-0.000242036
9.63841e-05
-0.000247728
7.45291e-05
-0.00015451
2.78085e-05
-9.41947e-05
-1.92825e-05
-0.000118625
-7.10783e-05
8.75055e-05
-9.02349e-05
0.0001599
-9.32083e-05
0.000125834
-9.55725e-05
0.00013132
-9.14986e-05
0.000123108
-8.6573e-05
0.000127504
-7.79036e-05
0.000130956
-6.54408e-05
0.000134321
0.000146613
-4.59386e-05
6.71104e-07
-0.000148405
1.22827e-06
-0.000149582
1.50981e-06
-0.000153314
2.14092e-06
-0.000157575
3.11356e-06
-0.000165723
5.04745e-06
-0.000175007
7.461e-06
-0.000191608
1.43687e-05
-0.000211181
2.26283e-05
-0.000243344
4.09643e-05
-0.000260371
5.11345e-05
-0.000257897
5.71993e-05
-0.000160573
3.27663e-05
-6.97604e-05
-5.55988e-05
-3.02626e-05
-0.000102482
0.000134391
-0.000101891
0.000159312
-0.00010178
0.000125726
-9.76516e-05
0.000127195
-9.14183e-05
0.000116878
-8.36807e-05
0.000119769
-7.37603e-05
0.000121039
-6.12823e-05
0.000121846
0.0001303
-4.4967e-05
-2.32693e-06
-0.000146073
-4.38886e-06
-0.000147515
-6.51426e-06
-0.000151184
-8.52413e-06
-0.00015556
-1.08687e-05
-0.000163373
-1.30478e-05
-0.000172823
-1.64119e-05
-0.000188239
-1.81552e-05
-0.000209434
-2.31178e-05
-0.000238378
-2.40568e-05
-0.000259429
-3.64609e-05
-0.000245491
-2.82023e-05
-0.000168829
-5.72288e-05
-4.07321e-05
-0.000137106
4.9618e-05
-0.000141921
0.000139208
-0.00012323
0.000140624
-0.000113033
0.000115533
-0.000101552
0.000115717
-9.23105e-05
0.00010764
-8.14146e-05
0.000108876
-7.09891e-05
0.000110617
-5.87981e-05
0.000109657
0.000116237
-4.47322e-05
-4.16198e-06
-0.000141906
-8.02843e-06
-0.000143643
-1.22866e-05
-0.000146921
-1.70261e-05
-0.000150815
-2.30796e-05
-0.000157314
-3.05126e-05
-0.000165385
-4.09671e-05
-0.00017778
-5.519e-05
-0.000195208
-7.5639e-05
-0.000217926
-0.000101757
-0.000233308
-0.000137627
-0.000209619
-0.000168243
-0.00013821
-0.000190961
-1.80118e-05
-0.000201407
6.00667e-05
-0.000171962
0.000109766
-0.000142464
0.000111129
-0.000123336
9.64074e-05
-0.000106414
9.8798e-05
-9.48449e-05
9.60734e-05
-8.1991e-05
9.60251e-05
-7.09217e-05
9.95499e-05
-5.89628e-05
9.77007e-05
0.000103507
-4.62302e-05
-4.5877e-06
-0.000137314
-9.91953e-06
-0.000138307
-1.61735e-05
-0.000140662
-2.33354e-05
-0.000143648
-3.20616e-05
-0.000148584
-4.29646e-05
-0.000154478
-5.81133e-05
-0.000162627
-8.04496e-05
-0.000172868
-0.000113358
-0.000185014
-0.00015388
-0.000192783
-0.00019683
-0.000166668
-0.000229149
-0.000105888
-0.000227674
-1.94841e-05
-0.000207598
3.99923e-05
-0.000175163
7.73336e-05
-0.000144031
7.99998e-05
-0.000123488
7.58673e-05
-0.000106069
8.13812e-05
-9.32947e-05
8.33022e-05
-8.05327e-05
8.32656e-05
-6.90749e-05
8.80945e-05
-5.78134e-05
8.64414e-05
9.1983e-05
-4.62876e-05
-6.0164e-06
-0.000131293
-1.25541e-05
-0.000131765
-1.9938e-05
-0.000133273
-2.83213e-05
-0.000135261
-3.85345e-05
-0.000138366
-5.11357e-05
-0.000141873
-6.7872e-05
-0.000145886
-9.0651e-05
-0.000150085
-0.000123388
-0.000152274
-0.000164958
-0.000151209
-0.000203395
-0.000128229
-0.000222205
-8.7075e-05
-0.000215822
-2.5865e-05
-0.000195298
1.94709e-05
-0.000165035
4.70736e-05
-0.000138241
5.32084e-05
-0.000120163
5.77921e-05
-0.000104851
6.60715e-05
-9.20937e-05
7.05475e-05
-7.99739e-05
7.11482e-05
-6.88611e-05
7.6984e-05
-5.81811e-05
7.57635e-05
8.13097e-05
-4.75059e-05
-7.27175e-06
-0.000124017
-1.45724e-05
-0.00012446
-2.24803e-05
-0.000125361
-3.12476e-05
-0.000126489
-4.169e-05
-0.00012792
-5.40925e-05
-0.000129466
-6.97161e-05
-0.000130259
-8.93657e-05
-0.000130432
-0.000114967
-0.000126669
-0.000146179
-0.000119994
-0.000174756
-9.96486e-05
-0.000191088
-7.07401e-05
-0.000186422
-3.05282e-05
-0.00016941
2.46128e-06
-0.000146508
2.41747e-05
-0.000126313
3.30152e-05
-0.000112298
4.378e-05
-9.90393e-05
5.28152e-05
-8.73211e-05
5.88318e-05
-7.61553e-05
5.99846e-05
-6.588e-05
6.67108e-05
-5.60943e-05
6.59798e-05
7.16382e-05
-4.64209e-05
-7.32332e-06
-0.00011669
-1.49069e-05
-0.000116872
-2.31267e-05
-0.000117138
-3.21537e-05
-0.000117459
-4.24842e-05
-0.000117585
-5.43889e-05
-0.000117558
-6.83289e-05
-0.000116315
-8.45573e-05
-0.0001142
-0.000103154
-0.00010807
-0.000123447
-9.96976e-05
-0.000141488
-8.16047e-05
-0.000152912
-5.93134e-05
-0.000152216
-3.12221e-05
-0.0001418
-7.95185e-06
-0.00012706
9.43736e-06
-0.000114622
2.05798e-05
-0.000103765
3.29253e-05
-9.26547e-05
4.17071e-05
-8.2491e-05
4.86704e-05
-7.27456e-05
5.02414e-05
-6.36515e-05
5.76188e-05
-5.48654e-05
5.71956e-05
6.30207e-05
-4.62461e-05
-7.27371e-06
-0.000109412
-1.47968e-05
-0.000109346
-2.2814e-05
-0.000109117
-3.14918e-05
-0.000108777
-4.11567e-05
-0.000107917
-5.20341e-05
-0.000106677
-6.43578e-05
-0.000103989
-7.81954e-05
-0.000100359
-9.29341e-05
-9.33283e-05
-0.000107997
-8.46322e-05
-0.00012044
-6.91581e-05
-0.000127752
-5.19992e-05
-0.000127296
-3.16758e-05
-0.00012127
-1.3975e-05
-0.000112371
5.40376e-07
-0.000103983
1.21946e-05
-9.51058e-05
2.40504e-05
-8.58528e-05
3.24562e-05
-7.71577e-05
3.99776e-05
-6.86194e-05
4.1705e-05
-6.04925e-05
4.9494e-05
-5.25797e-05
4.92846e-05
5.5303e-05
-4.48603e-05
-7.47984e-06
-0.000101929
-1.50902e-05
-0.000101732
-2.30079e-05
-0.000101196
-3.13618e-05
-0.00010042
-4.0325e-05
-9.89507e-05
-5.00471e-05
-9.69521e-05
-6.05557e-05
-9.34769e-05
-7.18423e-05
-8.90699e-05
-8.3236e-05
-8.19317e-05
-9.41398e-05
-7.37257e-05
-0.000102377
-6.09178e-05
-0.000107163
-4.7211e-05
-0.00010767
-3.11664e-05
-0.000104469
-1.71731e-05
-9.92365e-05
-4.68989e-06
-9.33448e-05
6.30514e-06
-8.62417e-05
1.69496e-05
-7.89891e-05
2.52058e-05
-7.15123e-05
3.2503e-05
-6.43997e-05
3.45943e-05
-5.73182e-05
4.24144e-05
-5.04179e-05
4.23861e-05
4.85188e-05
-4.3632e-05
-7.1209e-06
-9.48052e-05
-1.43568e-05
-9.44932e-05
-2.18324e-05
-9.37173e-05
-2.96591e-05
-9.25904e-05
-3.78886e-05
-9.07183e-05
-4.65771e-05
-8.82606e-05
-5.55922e-05
-8.44589e-05
-6.48191e-05
-7.98403e-05
-7.36861e-05
-7.3062e-05
-8.18996e-05
-6.55096e-05
-8.83078e-05
-5.4507e-05
-9.22584e-05
-4.3258e-05
-9.30534e-05
-3.0369e-05
-9.13571e-05
-1.88671e-05
-8.81091e-05
-7.93557e-06
-8.37291e-05
1.92732e-06
-7.82565e-05
1.14791e-05
-7.23464e-05
1.92978e-05
-6.58189e-05
2.59774e-05
-5.99435e-05
2.87207e-05
-5.37771e-05
3.62499e-05
-4.77579e-05
3.63685e-05
4.25448e-05
-4.17824e-05
-6.64658e-06
-8.81558e-05
-1.33811e-05
-8.77559e-05
-2.02753e-05
-8.68203e-05
-2.74113e-05
-8.54517e-05
-3.47868e-05
-8.33401e-05
-4.24252e-05
-8.06194e-05
-5.01545e-05
-7.6727e-05
-5.78654e-05
-7.21268e-05
-6.51479e-05
-6.5777e-05
-7.18006e-05
-5.88543e-05
-7.6877e-05
-4.94282e-05
-7.99367e-05
-4.01959e-05
-8.0922e-05
-2.93813e-05
-8.00913e-05
-1.96957e-05
-7.79814e-05
-1.00433e-05
-7.47579e-05
-1.29409e-06
-7.05423e-05
7.26545e-06
-6.56464e-05
1.44038e-05
-6.01771e-05
2.05099e-05
-5.54453e-05
2.39908e-05
-5.01084e-05
3.09147e-05
-4.49993e-05
3.1261e-05
3.73194e-05
-3.97723e-05
-6.29153e-06
-8.18616e-05
-1.26294e-05
-8.14153e-05
-1.90391e-05
-8.0408e-05
-2.55608e-05
-7.89274e-05
-3.21639e-05
-7.67344e-05
-3.88606e-05
-7.39203e-05
-4.54869e-05
-7.00982e-05
-5.1943e-05
-6.56683e-05
-5.79078e-05
-5.98098e-05
-6.31449e-05
-5.3615e-05
-6.71465e-05
-4.54243e-05
-6.97985e-05
-3.75417e-05
-7.08743e-05
-2.83034e-05
-7.05711e-05
-1.99967e-05
-6.91736e-05
-1.14387e-05
-6.67451e-05
-3.72061e-06
-6.34359e-05
3.95815e-06
-5.93986e-05
1.03683e-05
-5.50232e-05
1.61363e-05
-5.10647e-05
2.00339e-05
-4.63633e-05
2.62149e-05
-4.20752e-05
2.69745e-05
3.27557e-05
-3.75101e-05
-5.74453e-06
-7.61147e-05
-1.1517e-05
-7.56404e-05
-1.73194e-05
-7.46032e-05
-2.31706e-05
-7.30738e-05
-2.90275e-05
-7.08752e-05
-3.48742e-05
-6.80712e-05
-4.05645e-05
-6.44056e-05
-4.60057e-05
-6.02247e-05
-5.09878e-05
-5.48256e-05
-5.53687e-05
-4.92319e-05
-5.87788e-05
-4.20121e-05
-6.10829e-05
-3.52356e-05
-6.21817e-05
-2.72025e-05
-6.21596e-05
-2.00169e-05
-6.12263e-05
-1.23701e-05
-5.9419e-05
-5.52604e-06
-5.68309e-05
1.37189e-06
-5.36003e-05
7.13936e-06
-5.01036e-05
1.26413e-05
-4.67293e-05
1.66612e-05
-4.26174e-05
2.21046e-05
-3.90463e-05
2.34047e-05
2.88121e-05
-3.51013e-05
-5.22595e-06
-7.08865e-05
-1.04638e-05
-7.04003e-05
-1.57046e-05
-6.93602e-05
-2.09565e-05
-6.78197e-05
-2.61712e-05
-6.56584e-05
-3.13085e-05
-6.29317e-05
-3.62521e-05
-5.94598e-05
-4.09206e-05
-5.55542e-05
-4.51455e-05
-5.05986e-05
-4.88041e-05
-4.55713e-05
-5.16355e-05
-3.91788e-05
-5.36352e-05
-3.32339e-05
-5.46644e-05
-2.61715e-05
-5.48357e-05
-1.98437e-05
-5.42246e-05
-1.29794e-05
-5.2853e-05
-6.89591e-06
-5.08297e-05
-6.49704e-07
-4.82593e-05
4.57051e-06
-4.54367e-05
9.82031e-06
-4.25395e-05
1.37655e-05
-3.90652e-05
1.86317e-05
-3.606e-05
2.04009e-05
2.5373e-05
-3.26197e-05
-4.73567e-06
-6.61488e-05
-9.46294e-06
-6.5671e-05
-1.41607e-05
-6.46604e-05
-1.88204e-05
-6.3158e-05
-2.33985e-05
-6.10782e-05
-2.78472e-05
-5.84811e-05
-3.20914e-05
-5.52137e-05
-3.60593e-05
-5.15844e-05
-3.96272e-05
-4.70288e-05
-4.2721e-05
-4.24756e-05
-4.51495e-05
-3.67485e-05
-4.69248e-05
-3.14568e-05
-4.79401e-05
-2.51545e-05
-4.82339e-05
-1.95481e-05
-4.78483e-05
-1.33634e-05
-4.68214e-05
-7.92116e-06
-4.52585e-05
-2.21109e-06
-4.32374e-05
2.5509e-06
-4.09407e-05
7.52514e-06
-3.84784e-05
1.13046e-05
-3.56082e-05
1.57628e-05
-3.30638e-05
1.78578e-05
2.23629e-05
-3.00524e-05
-4.19752e-06
-6.19494e-05
-8.38561e-06
-6.14811e-05
-1.25425e-05
-6.05016e-05
-1.66522e-05
-5.90465e-05
-2.06784e-05
-5.70503e-05
-2.457e-05
-5.45876e-05
-2.82683e-05
-5.15136e-05
-3.1708e-05
-4.81429e-05
-3.47872e-05
-4.39478e-05
-3.74679e-05
-3.97932e-05
-3.95822e-05
-3.46325e-05
-4.11513e-05
-2.98861e-05
-4.20571e-05
-2.4247e-05
-4.23914e-05
-1.92122e-05
-4.21691e-05
-1.35842e-05
-4.14259e-05
-8.66281e-06
-4.02207e-05
-3.4149e-06
-3.86201e-05
9.51738e-07
-3.67373e-05
5.64367e-06
-3.46609e-05
9.22948e-06
-3.22945e-05
1.33976e-05
-3.01227e-05
1.56872e-05
1.97755e-05
-2.75342e-05
-3.72737e-06
-5.82203e-05
-7.43833e-06
-5.77684e-05
-1.11094e-05
-5.68289e-05
-1.47161e-05
-5.54381e-05
-1.82268e-05
-5.35379e-05
-2.15902e-05
-5.12226e-05
-2.47644e-05
-4.83378e-05
-2.7703e-05
-4.52027e-05
-3.03175e-05
-4.13318e-05
-3.25811e-05
-3.75281e-05
-3.43705e-05
-3.28416e-05
-3.57402e-05
-2.85148e-05
-3.66093e-05
-2.33765e-05
-3.70115e-05
-1.88086e-05
-3.69233e-05
-1.36709e-05
-3.63852e-05
-9.19955e-06
-3.54589e-05
-4.33989e-06
-3.42057e-05
-3.00223e-07
-3.26842e-05
4.12341e-06
-3.09644e-05
7.51091e-06
-2.90178e-05
1.14522e-05
-2.71615e-05
1.3832e-05
1.75899e-05
-2.49749e-05
-3.23661e-06
-5.49822e-05
-6.455e-06
-5.45485e-05
-9.63569e-06
-5.36467e-05
-1.27523e-05
-5.232e-05
-1.57833e-05
-5.05054e-05
-1.86844e-05
-4.83201e-05
-2.14236e-05
-4.55971e-05
-2.3958e-05
-4.26668e-05
-2.62157e-05
-3.90726e-05
-2.82052e-05
-3.55372e-05
-2.98094e-05
-3.1236e-05
-3.10513e-05
-2.72716e-05
-3.18308e-05
-2.25957e-05
-3.22172e-05
-1.84208e-05
-3.22055e-05
-1.36814e-05
-3.18386e-05
-9.56524e-06
-3.11394e-05
-5.03789e-06
-3.01624e-05
-1.27602e-06
-2.89299e-05
2.89207e-06
-2.75211e-05
6.10315e-06
-2.59175e-05
9.84967e-06
-2.43418e-05
1.22572e-05
1.57561e-05
-2.25069e-05
-2.79423e-06
-5.21866e-05
-5.57205e-06
-5.17693e-05
-8.31588e-06
-5.09015e-05
-1.09991e-05
-4.96355e-05
-1.36019e-05
-4.79012e-05
-1.60854e-05
-4.58353e-05
-1.84174e-05
-4.32638e-05
-2.05717e-05
-4.05112e-05
-2.24858e-05
-3.71572e-05
-2.41533e-05
-3.38685e-05
-2.54864e-05
-2.99017e-05
-2.654e-05
-2.62168e-05
-2.72565e-05
-2.18779e-05
-2.76721e-05
-1.80041e-05
-2.7748e-05
-1.36044e-05
-2.75182e-05
-9.79387e-06
-2.70033e-05
-5.55169e-06
-2.6247e-05
-2.03135e-06
-2.52702e-05
1.91637e-06
-2.41372e-05
4.97104e-06
-2.28322e-05
8.54564e-06
-2.15154e-05
1.09413e-05
1.42343e-05
-1.99928e-05
-2.34385e-06
-4.98416e-05
-4.67499e-06
-4.9437e-05
-6.97999e-06
-4.85953e-05
-9.23539e-06
-4.73789e-05
-1.1426e-05
-4.57094e-05
-1.3518e-05
-4.37422e-05
-1.54879e-05
-4.12928e-05
-1.73126e-05
-3.86853e-05
-1.89407e-05
-3.5528e-05
-2.03927e-05
-3.24154e-05
-2.15925e-05
-2.87007e-05
-2.25604e-05
-2.52478e-05
-2.32162e-05
-2.12211e-05
-2.36082e-05
-1.76111e-05
-2.37183e-05
-1.34933e-05
-2.35883e-05
-9.92294e-06
-2.32173e-05
-5.92168e-06
-2.26512e-05
-2.59653e-06
-2.18871e-05
1.15314e-06
-2.09887e-05
4.07352e-06
-1.99361e-05
7.49386e-06
-1.8854e-05
9.85993e-06
1.29859e-05
-1.76048e-05
-1.92738e-06
-4.79132e-05
-3.84925e-06
-4.75141e-05
-5.75534e-06
-4.66882e-05
-7.62648e-06
-4.55067e-05
-9.44646e-06
-4.38884e-05
-1.119e-05
-4.19976e-05
-1.28316e-05
-3.96503e-05
-1.43544e-05
-3.71615e-05
-1.57131e-05
-3.41683e-05
-1.69083e-05
-3.12193e-05
-1.78814e-05
-2.77267e-05
-1.86746e-05
-2.44537e-05
-1.92489e-05
-2.06459e-05
-1.96366e-05
-1.72226e-05
-1.98011e-05
-1.33278e-05
-1.97682e-05
-9.95499e-06
-1.95343e-05
-6.15479e-06
-1.91311e-05
-2.99892e-06
-1.85599e-05
5.82787e-07
-1.78707e-05
3.38506e-06
-1.70469e-05
6.67073e-06
-1.61803e-05
8.99404e-06
1.19841e-05
-1.51778e-05
-1.4963e-06
-4.64161e-05
-2.99422e-06
-4.60154e-05
-4.48802e-06
-4.51936e-05
-5.96278e-06
-4.40311e-05