/*--------------------------------*- C++ -*----------------------------------*\
| =========                 |                                                 |
| \\      /  F ield         | OpenFOAM: The Open Source CFD Toolbox           |
|  \\    /   O peration     | Version:  2012                                  |
|   \\  /    A nd           | Website:  www.openfoam.com                      |
|    \\/     M anipulation  |                                                 |
\*---------------------------------------------------------------------------*/
FoamFile
{
    version     2.0;
    format      ascii;
    class       volScalarField;
    location    "0.00018";
    object      pcorr;
}
// * * * * * * * * * * * * * * * * * * * * * * * * * * * * * * * * * * * * * //

dimensions      [1 -1 -2 0 0 0 0];


internalField   nonuniform List<scalar> 
5000
(
-0.00872940476
-0.00872934064
-0.008729328861
-0.008729259264
-0.008729138917
-0.008729046564
-0.008729253853
-0.008729147133
-0.008729068426
-0.008729026411
-0.008729050865
-0.008728697082
-0.008728702691
-0.008728730976
-0.008728688081
-0.008728576328
-0.008728499931
-0.008728358602
-0.008728335055
-0.008728392578
-0.008728459529
-0.008728596049
-0.008728658772
-0.008728745017
-0.008729186102
-0.008727826619
-0.008726414498
-0.008725264791
-0.008723727808
-0.008722432355
-0.008721287384
-0.008720211384
-0.00871914611
-0.008718101411
-0.008717094947
-0.00871584865
-0.008714370606
-0.008713246411
-0.008711692587
-0.008709429674
-0.008707206052
-0.008704998369
-0.008702692843
-0.008700472856
-0.008698307862
-0.008696424975
-0.008694885511
-0.008693368922
-0.008691843656
-0.008690179004
-0.008688437745
-0.008686644914
-0.008684870902
-0.008683152228
-0.008681460156
-0.008679483177
-0.008676663891
-0.008675179203
-0.008674562513
-0.008672746624
-0.008670485097
-0.008667917225
-0.008664836747
-0.008660608538
-0.008655756581
-0.008650805446
-0.008646545753
-0.008642062253
-0.008637843544
-0.008633774791
-0.008629493239
-0.008625247017
-0.008620794204
-0.008615937899
-0.008610930528
-0.008606178594
-0.008601866956
-0.008597855357
-0.008593995245
-0.008590112042
-0.008585725521
-0.00858055523
-0.008574619261
-0.008567651565
-0.008561307894
-0.008554423908
-0.008547087014
-0.008541050534
-0.008534433521
-0.008527237358
-0.008519907106
-0.008512846777
-0.00850604568
-0.008499176281
-0.008490636222
-0.008481657489
-0.008471635675
-0.008461120088
-0.008450612551
-0.008441621775
-0.008433264297
-0.008423674782
-0.008412877594
-0.008402893301
-0.008393985224
-0.008385490892
-0.008376819051
-0.008367368469
-0.008356982173
-0.008347050724
-0.008335683324
-0.008323715084
-0.008312264007
-0.008302240531
-0.008292389813
-0.008282342182
-0.008272935712
-0.008263699
-0.008254697032
-0.008246440431
-0.008238316621
-0.008229534867
-0.008219823121
-0.008209377655
-0.008199092464
-0.008190049328
-0.008181648816
-0.008172758765
-0.008163898725
-0.008155246562
-0.008146652571
-0.008138178464
-0.008130013037
-0.008122264868
-0.00811374214
-0.00810406529
-0.00809469987
-0.008085179811
-0.008075961827
-0.00806704499
-0.008056520436
-0.00804468577
-0.008034151075
-0.008024941541
-0.008016642947
-0.008008570682
-0.008000548051
-0.007992166573
-0.007983388155
-0.007974854477
-0.007965983622
-0.007956723369
-0.007947730169
-0.007938678597
-0.007929031582
-0.007920511409
-0.007911953813
-0.007901266031
-0.007890232557
-0.007880283263
-0.007871276717
-0.007862330179
-0.007853460084
-0.007844452064
-0.007834711456
-0.00782490854
-0.007815514496
-0.007806431323
-0.007797251035
-0.007787778161
-0.007777737504
-0.007768182037
-0.007759154277
-0.00774918464
-0.007739541862
-0.007730652615
-0.007721057383
-0.007711168593
-0.007701514611
-0.007691284284
-0.007681162559
-0.007671319208
-0.007661161042
-0.007650847944
-0.007639878698
-0.007628597245
-0.007618269294
-0.007609127882
-0.007600597863
-0.00759257103
-0.007584967718
-0.007577154164
-0.007569352397
-0.007561564588
-0.007553752991
-0.007546002247
-0.007538331157
-0.007530250282
-0.007521773885
-0.007513438672
-0.007504609204
-0.007494925655
-0.007485150818
-0.007476112784
-0.007467450644
-0.007458491216
-0.007448247299
-0.007436732641
-0.007426502536
-0.007417866678
-0.007409529955
-0.007401156685
-0.007392699771
-0.007384133613
-0.007376031816
-0.007367607904
-0.007357352928
-0.007345320367
-0.00733437006
-0.007325060388
-0.007315454141
-0.007305249615
-0.007295502462
-0.007286197136
-0.007277199931
-0.007268647341
-0.007260184705
-0.007251581907
-0.007242949819
-0.007233736242
-0.007223004418
-0.007212245754
-0.007202483359
-0.007192439523
-0.007182014038
-0.007171628397
-0.007161312851
-0.007151374533
-0.007142256127
-0.007133149088
-0.007123774001
-0.007114179983
-0.007104117941
-0.007094422955
-0.007085737338
-0.00707779811
-0.007069533918
-0.007061062984
-0.007052925067
-0.007044822181
-0.007036909921
-0.007028437257
-0.007018901734
-0.007008232809
-0.00699625945
-0.006984260695
-0.006974409578
-0.006966016758
-0.006957890173
-0.006950175149
-0.00694240618
-0.006934318287
-0.006926232299
-0.006918572115
-0.006910772907
-0.006902587597
-0.006894290776
-0.006885893877
-0.006877436368
-0.006868280233
-0.006858640247
-0.006849369611
-0.006840473026
-0.006831802369
-0.006823285513
-0.006814235244
-0.006804164666
-0.006793877948
-0.006783974642
-0.006774944312
-0.006766506065
-0.006757842126
-0.006748426806
-0.006738631265
-0.006729024184
-0.006719236463
-0.006708703357
-0.006697631569
-0.006687425021
-0.006677609081
-0.00666782637
-0.0066589828
-0.006651197213
-0.006643725531
-0.006636100697
-0.006627867405
-0.006619405486
-0.006610974305
-0.006601621654
-0.006591944414
-0.00658285604
-0.006574417666
-0.006566563428
-0.00655886899
-0.006550787573
-0.006541752751
-0.006532370277
-0.006522841182
-0.00651343282
-0.006504797781
-0.006496464806
-0.006488323259
-0.006479978496
-0.006471336204
-0.006462703237
-0.006454162334
-0.006444279958
-0.006432189321
-0.006420084442
-0.006410009181
-0.006401699687
-0.006393264105
-0.006383511943
-0.006373408393
-0.006363805325
-0.006354225966
-0.00634395853
-0.006333833964
-0.006323654513
-0.00631392545
-0.006305287153
-0.006297051403
-0.00628890341
-0.006280692179
-0.006272857186
-0.006265051283
-0.006257094496
-0.006249063768
-0.006240176576
-0.006230306771
-0.006220490882
-0.006211235183
-0.006202184863
-0.006193547102
-0.006185515408
-0.006177576576
-0.00616934474
-0.006160927273
-0.006152226198
-0.006142726342
-0.006132634268
-0.006122978637
-0.006114506128
-0.006106632472
-0.006098690189
-0.006090914404
-0.006082995188
-0.00607394619
-0.006064156327
-0.006054709073
-0.006046120142
-0.006037955973
-0.006029593879
-0.006020300888
-0.00601043973
-0.006000921734
-0.005992008916
-0.005984085087
-0.005976172051
-0.005967701903
-0.005958876592
-0.005949475032
-0.005939651052
-0.005929911407
-0.005920695207
-0.005911268682
-0.005901362059
-0.005890990893
-0.005880697945
-0.00587070921
-0.005860134192
-0.005848123534
-0.005835225939
-0.005823314398
-0.005812579931
-0.005802508114
-0.005792528888
-0.00578291423
-0.005773790495
-0.005764710927
-0.005755176887
-0.00574601329
-0.005737689292
-0.005728899268
-0.005719132528
-0.005708309653
-0.005696343374
-0.005684708441
-0.005674120314
-0.005663975597
-0.005653785484
-0.005643317859
-0.005633048686
-0.005624163315
-0.005615352787
-0.00560589479
-0.005596077219
-0.005586166851
-0.005575894263
-0.00556593572
-0.005557354338
-0.005549245604
-0.005541367405
-0.005533145333
-0.005524751936
-0.005516850129
-0.005509280899
-0.005501439524
-0.005493004095
-0.005484193151
-0.005474572939
-0.005464524191
-0.005454371121
-0.005444327609
-0.005434508713
-0.005424089038
-0.005412929567
-0.005403035194
-0.005394883037
-0.005387099298
-0.005378655907
-0.00536880576
-0.005358456862
-0.005347658098
-0.005337108105
-0.005328052639
-0.00531952303
-0.005311049535
-0.005302041306
-0.005292191793
-0.005282150304
-0.00527291707
-0.00526439341
-0.005255216169
-0.005245333383
-0.005235612245
-0.005226523277
-0.00521811187
-0.005209689122
-0.005200707225
-0.005191843616
-0.005183341312
-0.00517475366
-0.005165320539
-0.005155821888
-0.005147276485
-0.005139344046
-0.005131793643
-0.005124365665
-0.005116716519
-0.005108095063
-0.005098475077
-0.005087876507
-0.005075886861
-0.005063086981
-0.005050258848
-0.005037407328
-0.005025104914
-0.005014477535
-0.005004837485
-0.004995433691
-0.004986577373
-0.004978326601
-0.004970165499
-0.004961545202
-0.004952267864
-0.004942767463
-0.004934042321
-0.004925550918
-0.004917089716
-0.004908744406
-0.004899827141
-0.004890240964
-0.004880447078
-0.004871011398
-0.004862325014
-0.004854482402
-0.00484695758
-0.004838954231
-0.004830726402
-0.004822486817
-0.004813260621
-0.004803433742
-0.004793736665
-0.004784503141
-0.004776129518
-0.004767939128
-0.004760024973
-0.004752265632
-0.00474363523
-0.004734989613
-0.004726153593
-0.0047153505
-0.00470263686
-0.004689782709
-0.004676906087
-0.004664819258
-0.004654626473
-0.004645720383
-0.004637433315
-0.004629390876
-0.00462143512
-0.004613646701
-0.004605643347
-0.004596419127
-0.004586344246
-0.004576336307
-0.004566820231
-0.004557930961
-0.004549673758
-0.004541614367
-0.004532972983
-0.004523591451
-0.004514030616
-0.004503678426
-0.004493512786
-0.00448387006
-0.004473522034
-0.004462981751
-0.004453034996
-0.004443033393
-0.00443321668
-0.004424215803
-0.004415508849
-0.004406306883
-0.004396684123
-0.004386814162
-0.00437659367
-0.004367124286
-0.004358072576
-0.004348618956
-0.004339389605
-0.004330093287
-0.004320170287
-0.004310317712
-0.004301067259
-0.004292210694
-0.004283847597
-0.004275625662
-0.004267276682
-0.00425922792
-0.004250715834
-0.004240308525
-0.004229443296
-0.004220037448
-0.004210755189
-0.004201303168
-0.004192212658
-0.004183749899
-0.004175522655
-0.004166845453
-0.004157261932
-0.004146901248
-0.004136555673
-0.004126340206
-0.00411664087
-0.004107504108
-0.0040985079
-0.004089350088
-0.004079798677
-0.004069100314
-0.004056751888
-0.004044203425
-0.004033734117
-0.004024691562
-0.004015740299
-0.004006749921
-0.003997476296
-0.003987995731
-0.003978070298
-0.003967622247
-0.003957589512
-0.003948694507
-0.003940773148
-0.003932657853
-0.003923672509
-0.003914107016
-0.003904256825
-0.003894220268
-0.003884386198
-0.003874862713
-0.003865465023
-0.003856177934
-0.003845713226
-0.003834021984
-0.003822829943
-0.003812928009
-0.003803893345
-0.003795036134
-0.003785917046
-0.003775704632
-0.0037651833
-0.003755028662
-0.003745565325
-0.003737136383
-0.003729217292
-0.003721013407
-0.003712215192
-0.003702112679
-0.003690591005
-0.003679757675
-0.003669560532
-0.00365927191
-0.003649063812
-0.003639592715
-0.003630479866
-0.003620567216
-0.00360952855
-0.003597059732
-0.003583806973
-0.003571376299
-0.003560372501
-0.003550601706
-0.003541558326
-0.003532096076
-0.003521642869
-0.003511366408
-0.00350241719
-0.003493731882
-0.003484641467
-0.00347579637
-0.003467340222
-0.003458862409
-0.003449852021
-0.003440435962
-0.003429912305
-0.003419344623
-0.00340965283
-0.00340033267
-0.003391619491
-0.003383512965
-0.003375653119
-0.003367638515
-0.003358792686
-0.003348453933
-0.003336380652
-0.00332436451
-0.003314250739
-0.003305550205
-0.0032967767
-0.003288011235
-0.003279942867
-0.003272100887
-0.003264054796
-0.003255487483
-0.003246019888
-0.003236499905
-0.003227833501
-0.003219237144
-0.003210204117
-0.003201276304
-0.003192508211
-0.003182374748
-0.0031704405
-0.003159831873
-0.003150534171
-0.0031405342
-0.00313011631
-0.003120229743
-0.003110269296
-0.003100540967
-0.003091301682
-0.003080858932
-0.00306923031
-0.00305770838
-0.003046163399
-0.003034640409
-0.003023144605
-0.003012329186
-0.003002700015
-0.00299347226
-0.002983583819
-0.00297323457
-0.002963262714
-0.002954015225
-0.00294517486
-0.002936258616
-0.002927046033
-0.002917784913
-0.002908272886
-0.002898278729
-0.002888202594
-0.002878590361
-0.002869877053
-0.002861259263
-0.002851135321
-0.002840609471
-0.00283140272
-0.002822270157
-0.002813315718
-0.002805261344
-0.002796373322
-0.002785069285
-0.002772453665
-0.002761582116
-0.002752757511
-0.002743710903
-0.002733507263
-0.002723620993
-0.002713645674
-0.002703146515
-0.002693224865
-0.002684207487
-0.002675893751
-0.002667392086
-0.002658555319
-0.002649763979
-0.002640162422
-0.002629813329
-0.002619842325
-0.002610847576
-0.002602117328
-0.002593182717
-0.002584604698
-0.002576129053
-0.002567286296
-0.002557521335
-0.00254740705
-0.002537780648
-0.002528364646
-0.002519343618
-0.002510771956
-0.00250233396
-0.002493754662
-0.00248487001
-0.002475733787
-0.002465864774
-0.002455654632
-0.002446239329
-0.002437156069
-0.002428412089
-0.002420088541
-0.002411381959
-0.002402357725
-0.002393195725
-0.002383263381
-0.002373061845
-0.00236379081
-0.002355239516
-0.00234677008
-0.002337787449
-0.002328911882
-0.002320002932
-0.00230946735
-0.002298886628
-0.002289934315
-0.002281027434
-0.002271881242
-0.002263395548
-0.002255003027
-0.002246533819
-0.002237693467
-0.0022279259
-0.002218120203
-0.002208934322
-0.002200118633
-0.002191667384
-0.002183407071
-0.002174971425
-0.002166362642
-0.002157279057
-0.002147758019
-0.002137988534
-0.002126981503
-0.002114405276
-0.002101513068
-0.002089895405
-0.002078480676
-0.002066605937
-0.002055583436
-0.002045579734
-0.002036505826
-0.002027631683
-0.002018133887
-0.002007812547
-0.001997631736
-0.001989164537
-0.001980818096
-0.001971971368
-0.001963275527
-0.001954533979
-0.001945575067
-0.001935792913
-0.001925408869
-0.001915507378
-0.001905951454
-0.001896190378
-0.001886041149
-0.001876435078
-0.001867281673
-0.001856726868
-0.001845047983
-0.001834882106
-0.001825877332
-0.001816809677
-0.001808459266
-0.001800323437
-0.001791701811
-0.001782703139
-0.001772562086
-0.00176217022
-0.001752270093
-0.001742957928
-0.001734684558
-0.001726900483
-0.001718897609
-0.001710588592
-0.0017025953
-0.001694355062
-0.001685530983
-0.001676165024
-0.001666359312
-0.001656469504
-0.00164697932
-0.001637783867
-0.001628195177
-0.001618035787
-0.001607803868
-0.001597894662
-0.001588896621
-0.001580534974
-0.001572007862
-0.001562950582
-0.001553046103
-0.001542937775
-0.001533653317
-0.001524871987
-0.001516540194
-0.001508371221
-0.001499995137
-0.001491470804
-0.001482990396
-0.001474477922
-0.001465038146
-0.001454905627
-0.001444649406
-0.001434544642
-0.001425267693
-0.001416902735
-0.001408551016
-0.00140004284
-0.001391660369
-0.00138306983
-0.001374166012
-0.001364429317
-0.001354371478
-0.001344829354
-0.001335462375
-0.001326261864
-0.001316797016
-0.001307391342
-0.001298345705
-0.001289099991
-0.001279996713
-0.001270998965
-0.001261701327
-0.001252198163
-0.001242093377
-0.001231993408
-0.001222647334
-0.001213467495
-0.001204232833
-0.001195573438
-0.001187475126
-0.001179455098
-0.001171025262
-0.001161585599
-0.001151536856
-0.001141454604
-0.001131088329
-0.00112129884
-0.001112962586
-0.001105152668
-0.001096961294
-0.001089033991
-0.001080800566
-0.001071327693
-0.001061057935
-0.001050847744
-0.001040270152
-0.001030064376
-0.001021006289
-0.001012637061
-0.001004463378
-0.0009966377545
-0.0009889889464
-0.0009811730078
-0.0009724092689
-0.000963046432
-0.0009533692709
-0.0009437675881
-0.0009346841158
-0.0009264475847
-0.0009176731669
-0.0009082137355
-0.00089895088
-0.0008902678283
-0.000881519903
-0.000873432931
-0.0008659583642
-0.0008585104882
-0.0008516289482
-0.0008448481128
-0.0008371771716
-0.000829294162
-0.0008216119045
-0.0008142438708
-0.0008067736746
-0.0007994137078
-0.0007922524133
-0.000784777303
-0.0007769031848
-0.0007693063474
-0.0007625607734
-0.0007558752454
-0.0007487850307
-0.0007416945823
-0.0007352489878
-0.0007292463329
-0.0007234321381
-0.0007176974245
-0.0007117156598
-0.0007049558698
-0.0006976474405
-0.0006898507732
-0.000681414827
-0.0006726828038
-0.000664621706
-0.0006573253169
-0.0006503383228
-0.0006437777787
-0.0006375333681
-0.0006314410173
-0.0006257184903
-0.0006197075038
-0.0006134194442
-0.0006075218075
-0.0006017932713
-0.0005957985046
-0.0005895170216
-0.0005828973684
-0.0005755790192
-0.0005676289632
-0.0005594274272
-0.0005517147769
-0.0005447244975
-0.000537598202
-0.0005302604012
-0.0005235371354
-0.0005177332927
-0.0005126315625
-0.0005077949895
-0.00050279614
-0.0004976596409
-0.0004925412826
-0.0004874786244
-0.0004824044408
-0.0004772564687
-0.0004717946436
-0.0004660653367
-0.0004605050483
-0.0004552987356
-0.0004500830657
-0.0004446923212
-0.000439328335
-0.0004340656338
-0.0004286475248
-0.0004234476799
-0.0004181240954
-0.0004130764579
-0.0004082455205
-0.0004031861521
-0.000397912029
-0.0003928547706
-0.000387868869
-0.0003827363663
-0.0003773603867
-0.0003719316154
-0.0003665750785
-0.0003611085707
-0.0003555110366
-0.0003501738972
-0.0003450938331
-0.0003405390061
-0.0003362179231
-0.0003318849633
-0.0003275544534
-0.0003232487093
-0.0003186322319
-0.0003137877238
-0.000308331334
-0.0003024793868
-0.0002971946614
-0.0002929270324
-0.0002891111288
-0.0002852330342
-0.0002810529697
-0.0002770140562
-0.0002729843575
-0.000269047531
-0.0002651896302
-0.0002613382539
-0.0002570812254
-0.0002524850066
-0.0002475681512
-0.0002426462097
-0.0002378055854
-0.0002335002571
-0.0002293707346
-0.0002251444347
-0.0002205911516
-0.000215845785
-0.0002110310798
-0.0002063207326
-0.0002017426243
-0.0001976527744
-0.0001936333613
-0.0001893217568
-0.0001849004412
-0.0001803955546
-0.0001760154985
-0.0001718315064
-0.0001676491141
-0.0001631336673
-0.0001583910782
-0.0001540857503
-0.0001503184549
-0.0001468405519
-0.0001436232046
-0.0001405682204
-0.0001373823432
-0.0001340635739
-0.0001308995588
-0.0001275748016
-0.0001238832282
-0.0001197114076
-0.0001150209351
-0.0001104662497
-0.0001060111209
-0.0001011845718
-9.634228796e-05
-9.221725369e-05
-8.848957496e-05
-8.501530031e-05
-8.170770362e-05
-7.867327943e-05
-7.585273021e-05
-7.273717778e-05
-6.921477958e-05
-6.588745349e-05
-6.280033092e-05
-6.011029732e-05
-5.748220918e-05
-5.494830918e-05
-5.264958189e-05
-5.053805667e-05
-4.840257341e-05
-4.618338506e-05
-4.369107421e-05
-4.11586766e-05
-3.864682246e-05
-3.629373571e-05
-3.410084273e-05
-3.198286021e-05
-2.990275748e-05
-2.776677602e-05
-2.559333831e-05
-2.347271611e-05
-2.160821657e-05
-1.985869904e-05
-1.828204713e-05
-1.667574282e-05
-1.522681304e-05
-1.375723306e-05
-1.234532854e-05
-1.094588119e-05
-9.765540138e-06
-8.571622521e-06
-7.581417796e-06
-6.682559984e-06
-5.825725715e-06
-4.729942646e-06
-3.893093642e-06
-3.180515152e-06
-2.645066195e-06
-2.121772087e-06
-1.82356184e-06
-1.43290824e-06
-1.129841683e-06
-8.136800397e-07
-5.752354838e-07
-3.69424704e-07
-2.837460122e-07
-1.763120351e-07
-1.173820801e-07
2.748801368e-08
9.486555752e-08
7.680742582e-08
1.048146085e-07
2.812655598e-07
2.133566711e-07
2.186196331e-07
2.290268119e-07
2.335600324e-07
2.392411942e-07
-1.928549535e-07
-1.87476056e-07
-1.826947759e-07
-1.799218876e-07
-1.740171731e-07
-1.68538504e-07
-1.661630456e-07
-1.684859498e-07
-1.715877904e-07
-1.849567373e-07
-1.926755578e-07
-2.017896584e-07
-2.083292087e-07
-2.163588638e-07
-2.219602626e-07
-2.324395589e-07
-2.374419253e-07
-2.465640056e-07
-2.484220489e-07
-2.452864096e-07
-2.43608738e-07
-2.383645105e-07
-2.299954231e-07
-2.351177445e-07
-2.269576425e-07
-2.282159084e-07
-2.305268563e-07
-2.28377844e-07
-2.357306671e-07
-2.396043665e-07
-2.421815252e-07
-2.486298193e-07
-2.430847143e-07
-2.383389609e-07
-2.286003956e-07
-2.129219808e-07
-2.09975886e-07
-2.018499916e-07
-2.034090261e-07
-2.020952254e-07
-2.034670876e-07
-2.102394247e-07
-2.131280174e-07
-2.189750433e-07
-2.212862351e-07
-2.205173502e-07
-2.241696291e-07
-2.276519958e-07
-2.308148323e-07
-2.359444657e-07
-2.337223838e-07
-2.344653403e-07
-2.331713523e-07
-2.299969716e-07
-2.319160116e-07
-2.292202368e-07
-2.305996321e-07
-2.309744896e-07
-2.291943845e-07
-2.283311378e-07
-2.249525479e-07
-2.206333204e-07
-2.138281989e-07
-2.116279851e-07
-2.036648899e-07
-2.05098534e-07
-2.08148482e-07
-2.084313547e-07
-2.184346034e-07
-2.175632098e-07
-2.184248515e-07
-2.225721723e-07
-2.166667306e-07
-2.191413815e-07
-2.180461913e-07
-2.139041679e-07
-2.165860058e-07
-2.115937204e-07
-2.174273259e-07
-2.106839172e-07
-2.191622736e-07
-2.171317511e-07
-2.195675369e-07
-2.242190966e-07
-2.16943368e-07
-2.164400128e-07
-2.083357404e-07
-2.072831599e-07
-2.031339238e-07
-2.079468921e-07
-2.02739935e-07
-2.027525517e-07
-1.987133369e-07
-1.87631451e-07
-1.866242192e-07
-1.764627636e-07
-1.792639753e-07
-1.868243017e-07
-1.919467915e-07
-2.004362888e-07
-2.017224226e-07
-1.006808194e-07
-4.375094922e-07
-7.485039695e-07
-9.097533148e-07
-1.137180436e-06
-1.480592912e-06
-1.715975389e-06
-2.127521771e-06
-2.546597918e-06
-2.998813491e-06
-3.387177058e-06
-3.798891268e-06
-4.186541133e-06
-4.623783756e-06
-5.044502882e-06
-5.57591344e-06
-6.104050174e-06
-6.703735409e-06
-7.284647975e-06
-7.90405703e-06
-8.580470166e-06
-9.307920061e-06
-1.002873856e-05
-1.07186958e-05
-1.135863081e-05
-1.194567874e-05
-1.253539561e-05
-1.313462553e-05
-1.375769614e-05
-1.439435883e-05
-1.511966688e-05
-1.594317063e-05
-1.672192505e-05
-1.746921685e-05
-1.820168156e-05
-1.883639591e-05
-1.945500408e-05
-2.002091787e-05
-2.055497299e-05
-2.106027359e-05
-2.158459174e-05
-2.213160716e-05
-2.272187257e-05
-2.332987668e-05
-2.392818672e-05
-2.448361189e-05
-2.501681067e-05
-2.554048626e-05
-2.607689778e-05
-2.67760617e-05
-2.719754791e-05
-2.740970609e-05
-2.763156483e-05
-2.78527268e-05
-2.805928133e-05
-2.823525342e-05
-2.83617055e-05
-2.842219445e-05
-2.855747374e-05
-2.887865438e-05
-2.922794296e-05
-2.939219561e-05
-2.956707698e-05
-2.967779316e-05
-2.972042715e-05
-2.977285936e-05
-2.997722232e-05
-3.026525124e-05
-3.041328275e-05
-3.039815266e-05
-3.03985716e-05
-3.040219456e-05
-3.032416642e-05
-3.027826558e-05
-3.024881653e-05
-3.019354923e-05
-3.00120435e-05
-2.989751536e-05
-2.977954718e-05
-2.973431388e-05
-2.985543774e-05
-3.008162806e-05
-3.026030811e-05
-3.051857169e-05
-3.082042017e-05
-3.107887527e-05
-3.133068304e-05
-3.190268067e-05
-3.242777461e-05
-3.308208213e-05
-3.356652174e-05
-3.425427458e-05
-3.501595517e-05
-3.589775953e-05
-3.676051433e-05
-3.77004298e-05
-3.85706745e-05
-3.931859767e-05
-4.017868208e-05
-4.112135876e-05
-4.192950617e-05
-4.252242724e-05
-4.302053229e-05
-4.368813841e-05
-4.428566893e-05
-4.490628869e-05
-4.540965707e-05
-4.615326025e-05
-4.67963129e-05
-4.732219373e-05
-4.794118539e-05
-4.835021233e-05
-4.869009915e-05
-4.884954871e-05
-4.903032407e-05
-4.906547925e-05
-4.915091949e-05
-4.914503315e-05
-4.910294557e-05
-4.884504387e-05
-4.869728432e-05
-4.861831902e-05
-4.832398664e-05
-4.802953324e-05
-4.770953107e-05
-4.733803119e-05
-4.695317361e-05
-4.653360174e-05
-4.605628407e-05
-4.559380421e-05
-4.536384687e-05
-4.521900277e-05
-4.492720754e-05
-4.471216863e-05
-4.449431484e-05
-4.441164729e-05
-4.440881568e-05
-4.458446916e-05
-4.471322426e-05
-4.485179068e-05
-4.511050784e-05
-4.538658665e-05
-4.56745971e-05
-4.5917067e-05
-4.630623101e-05
-4.669321465e-05
-4.708006053e-05
-4.748588557e-05
-4.784492371e-05
-4.822795256e-05
-4.841772291e-05
-4.850061224e-05
-4.849802189e-05
-4.850248786e-05
-4.848425326e-05
-4.869836875e-05
-4.885082729e-05
-4.894718497e-05
-4.91026199e-05
-4.932607653e-05
-4.953688156e-05
-4.982754327e-05
-4.998231707e-05
-5.018322895e-05
-5.045087059e-05
-5.073224137e-05
-5.091128133e-05
-5.094024471e-05
-5.087604259e-05
-5.072377587e-05
-5.073924746e-05
-5.043506122e-05
-5.01529109e-05
-4.945992284e-05
-4.899434913e-05
-4.848444684e-05
-4.797866176e-05
-4.733980964e-05
-4.673469027e-05
-4.607319727e-05
-4.530979624e-05
-4.45772656e-05
-4.364117247e-05
-4.234382059e-05
-4.112244938e-05
-3.980455069e-05
-3.834734028e-05
-3.678917126e-05
-3.515158689e-05
-3.373486969e-05
-3.248915599e-05
-3.133494554e-05
-3.028582386e-05
-2.927189493e-05
-2.818090006e-05
-2.729134387e-05
-2.622585148e-05
-2.499646855e-05
-2.36344607e-05
-2.233641654e-05
-2.088860779e-05
-1.919745356e-05
-1.736755032e-05
-1.578042573e-05
-1.437441981e-05
-1.326422214e-05
-1.200333161e-05
-1.084006188e-05
-9.631639295e-06
-8.70338138e-06
-7.513137297e-06
-6.208038558e-06
-4.637334851e-06
-3.27989367e-06
-1.934564751e-06
-8.66688134e-07
2.316751691e-08
9.131367517e-07
1.875627984e-06
2.763476235e-06
3.875686486e-06
4.569589844e-06
5.134930289e-06
5.729223671e-06
6.277740312e-06
6.731744953e-06
7.070823572e-06
7.5477427e-06
8.184088642e-06
8.583189212e-06
8.926688492e-06
9.10953392e-06
9.362929532e-06
9.562816717e-06
9.775728119e-06
9.839182147e-06
1.005703725e-05
1.017934845e-05
1.023633342e-05
1.034280534e-05
1.061639834e-05
1.07611737e-05
1.069921073e-05
1.079649513e-05
1.093830542e-05
1.102734716e-05
1.093493198e-05
1.093573095e-05
1.108218428e-05
1.093950711e-05
1.078796621e-05
1.072519321e-05
1.082939575e-05
1.087898587e-05
1.091914561e-05
1.090797066e-05
1.103539327e-05
1.111927399e-05
1.141106002e-05
1.180801818e-05
1.201005157e-05
1.228215238e-05
1.262655776e-05
1.292532159e-05
1.315459106e-05
1.33415733e-05
1.355006158e-05
1.359509789e-05
1.380649335e-05
1.399834984e-05
1.407260329e-05
1.406433452e-05
1.405588261e-05
1.439443344e-05
1.471937736e-05
1.529144772e-05
1.600148859e-05
1.649278601e-05
1.698192927e-05
1.765122394e-05
1.839876047e-05
1.92573068e-05
2.03641223e-05
2.151759468e-05
2.271621256e-05
138.4305142
264.4272431
287.7587077
310.7692759
379.4847817
451.340215
527.341148
603.5104228
687.1877182
767.9479868
849.7309895
932.1951991
1020.208186
1115.663628
1221.56592
1325.788577
1417.234346
1499.383339
1584.20478
1672.906374
1764.587375
1852.345408
1932.840037
2019.509352
2120.544253
2225.343081
2326.294356
2419.696144
2507.652136
2599.203975
2691.214278
2788.514823
2902.236855
3032.513995
3170.81738
3290.143146
3396.497633
3497.637938
3590.642674
3682.251384
3772.587657
3866.551633
3963.102811
4064.693881
4167.827478
4264.570297
4357.517055
4446.789227
4533.431182
4619.150357
4706.926351
4799.024487
4903.726165
5031.056332
5162.626657
5269.684141
5368.326616
5467.129807
5554.763987
5639.236089
5725.985909
5812.158066
5901.72541
5994.226557
6083.639548
6174.377549
6265.173164
6359.243504
6443.498534
6526.774693
6626.339618
6737.770622
6865.974021
6987.205922
7099.734315
7204.804509
7299.919513
7391.728522
7483.268658
7573.699086
7659.973587
7747.352156
7833.704857
7920.411319
8011.793512
8109.898491
8204.03531
8298.041009
8381.09414
8459.444377
8537.566586
8611.660733
8686.496941
8762.211566
8844.996293
8935.099384
9031.260011
9137.247383
9260.33493
9390.960909
9519.733167
9628.977979
9722.245496
9814.245794
9910.339787
10004.62335
10087.26167
10168.99566
10252.57854
10343.1205
10440.0848
10535.38546
10634.40607
10726.88498
10822.26777
10917.37519
11013.9283
11104.20571
11192.81912
11293.12155
11387.46431
11485.04937
11594.05237
11714.47739
11835.54676
11952.84213
12075.01064
12198.96656
12308.49185
12409.85063
12511.83568
12605.87166
12698.62843
12792.76744
12885.58691
12984.6349
13089.7727
13189.51203
13293.5005
13410.07983
13542.45389
13674.79346
13786.31874
13891.75608
13991.74227
14086.13197
14169.45475
14248.76248
14333.85258
14420.35399
14506.0561
14589.41025
14671.54953
14755.13266
14838.59589
14922.71567
15021.69737
15119.79856
15224.69844
15341.74291
15463.95793
15578.00949
15676.79844
15775.06929
15879.36004
15989.95618
16102.30149
16209.56832
16307.7097
16416.53144
16539.79132
16663.00141
16764.60655
16853.11781
16936.42643
17018.22003
17097.90005
17174.33967
17257.81998
17342.09094
17430.77297
17530.91092
17636.91425
17739.83747
17836.82582
17931.05431
18025.2114
18116.91532
18208.14034
18300.29862
18383.6467
18466.18526
18542.58035
18622.29879
18701.07608
18776.38632
18856.06005
18946.25037
19029.21504
19104.72817
19184.44829
19271.44699
19371.64737
19476.55759
19608.22853
19744.69576
19875.23141
19993.57452
20104.00798
20207.18669
20305.2869
20401.63522
20495.78611
20590.17442
20677.31385
20762.54543
20852.10201
20944.24196
21035.97266
21135.02685
21232.5572
21323.09591
21408.47553
21492.22561
21575.94773
21657.20222
21741.8924
21831.02213
21921.48841
22017.44495
22122.74827
22223.25449
22312.49431
22401.87819
22497.26514
22588.11938
22677.64775
22769.91037
22858.93791
22954.85746
23053.757
23148.31946
23245.88623
23339.75729
23431.33594
23530.97612
23631.97042
23731.15935
23820.93287
23906.95265
23993.3324
24075.8218
24155.81027
24238.31169
24322.728
24409.81135
24513.19714
24629.37067
24744.76127
24849.38079
24949.41873
25055.74558
25169.84879
25273.67777
25366.81014
25459.53633
25555.4176
25644.66755
25735.12703
25828.76817
25916.5488
26003.96751
26085.83451
26172.90856
26264.07607
26357.02846
26469.99121
26601.20485
26738.62196
26876.09727
26993.37333
27096.41013
27186.37462
27269.90314
27357.74728
27441.43834
27534.45535
27634.07045
27732.06403
27829.07133
27925.2796
28018.48762
28111.02413
28208.92072
28308.63601
28404.28803
28498.95884
28596.8715
28702.24603
28809.08789
28925.99394
29038.80177
29139.13673
29237.40002
29338.0756
29443.35056
29551.84944
29657.36045
29756.93782
29857.58746
29962.78766
30074.63482
30178.59763
30277.07152
30363.13795
30450.17607
30554.04552
30662.68375
30768.85356
30871.82747
30968.34975
31059.28325
31153.40226
31251.17529
31359.47437
31473.66615
31582.89708
31686.45007
31792.21385
31904.19376
32013.6051
32113.66598
32199.64433
32282.3406
32362.78686
32442.7914
32534.38648
32641.57635
32753.74877
32853.63131
32944.299
33033.76965
33114.95871
33195.57188
33277.78736
33358.95429
33446.61164
33531.74778
33625.3552
33728.118
33822.90595
33912.7674
34004.11008
34093.46808
34183.63814
34273.49498
34369.72657
34474.00915
34576.0656
34676.29369
34769.54273
34861.82822
34945.23055
35030.69664
35116.28939
35203.44447
35300.2058
35393.78356
35495.45937
35610.39392
35733.03621
35845.94477
35949.57063
36046.65207
36138.49961
36227.983
36319.23435
36412.07873
36503.49427
36593.08286
36680.71397
36774.12027
36879.16579
36991.56767
37113.36152
37239.58638
37358.75393
37473.69182
37572.98748
37665.60704
37765.55448
37866.74502
37967.01001
38068.33676
38160.20668
38250.233
38342.11039
38437.66214
38535.56727