/*--------------------------------*- C++ -*----------------------------------*\
| =========                 |                                                 |
| \\      /  F ield         | OpenFOAM: The Open Source CFD Toolbox           |
|  \\    /   O peration     | Version:  2012                                  |
|   \\  /    A nd           | Website:  www.openfoam.com                      |
|    \\/     M anipulation  |                                                 |
\*---------------------------------------------------------------------------*/
FoamFile
{
    version     2.0;
    format      ascii;
    class       volVectorField;
    location    "0.00018";
    object      U;
}
// * * * * * * * * * * * * * * * * * * * * * * * * * * * * * * * * * * * * * //

dimensions      [0 1 -1 0 0 0 0];


internalField   nonuniform List<vector> 
5000
(
(1.133815547e-13 0 0)
(1.169219521e-13 0 0)
(1.175251978e-13 0 0)
(1.085859125e-13 0 0)
(6.672830721e-14 0 0)
(-5.692560608e-14 0 0)
(-1.420785191e-13 0 0)
(-1.39759597e-13 0 0)
(-1.018893557e-13 0 0)
(-3.496999304e-15 0 0)
(8.464944522e-14 0 0)
(6.23224534e-14 0 0)
(3.700296494e-14 0 0)
(3.086059964e-14 0 0)
(7.757237705e-15 0 0)
(-4.000870345e-14 0 0)
(-8.453935478e-14 0 0)
(-9.19839549e-14 0 0)
(-8.838270855e-14 0 0)
(-8.738248905e-14 0 0)
(-9.633576362e-14 0 0)
(-1.163573309e-13 0 0)
(-1.277133539e-13 0 0)
(-1.353673677e-13 0 0)
(-1.577497421e-13 0 0)
(-1.032794341e-13 0 0)
(-6.7714744e-14 0 0)
(-1.103635779e-13 0 0)
(-3.97817116e-14 0 0)
(-3.855145177e-14 0 0)
(-7.412486257e-14 0 0)
(-1.006922777e-13 0 0)
(-9.48759877e-14 0 0)
(-5.566251664e-14 0 0)
(-4.427460596e-15 0 0)
(1.198341005e-14 0 0)
(1.427764621e-14 0 0)
(1.043360474e-13 0 0)
(1.372515191e-13 0 0)
(1.448844449e-13 0 0)
(1.63025484e-13 0 0)
(1.520201499e-13 0 0)
(1.475645229e-13 0 0)
(1.421719118e-13 0 0)
(1.583046691e-13 0 0)
(1.782833835e-13 0 0)
(1.832112732e-13 0 0)
(1.899595479e-13 0 0)
(1.925783544e-13 0 0)
(1.995993322e-13 0 0)
(2.141094964e-13 0 0)
(2.40994179e-13 0 0)
(2.727269357e-13 0 0)
(2.982902016e-13 0 0)
(3.186521092e-13 0 0)
(3.581325879e-13 0 0)
(3.976411987e-13 0 0)
(3.188083311e-13 0 0)
(1.100852414e-13 0 0)
(1.604073835e-13 0 0)
(3.036646422e-13 0 0)
(2.052235464e-13 0 0)
(1.65037948e-13 0 0)
(1.748725859e-13 0 0)
(1.451878307e-13 0 0)
(1.496068607e-13 0 0)
(1.010937869e-13 0 0)
(8.761527721e-14 0 0)
(6.628285544e-14 0 0)
(4.848107907e-14 0 0)
(4.09668184e-14 0 0)
(2.366660131e-14 0 0)
(1.730746651e-14 0 0)
(1.185118392e-14 0 0)
(1.133352308e-14 0 0)
(1.843276992e-14 0 0)
(3.142067983e-14 0 0)
(4.141852474e-14 0 0)
(5.480490628e-14 0 0)
(6.807279083e-14 0 0)
(9.23748671e-14 0 0)
(1.014976515e-13 0 0)
(9.459617044e-14 0 0)
(1.593230582e-13 0 0)
(1.549789987e-13 0 0)
(1.521978209e-13 0 0)
(2.134949899e-13 0 0)
(2.147100733e-13 0 0)
(2.559771372e-13 0 0)
(2.377840946e-13 0 0)
(1.453144928e-13 0 0)
(3.515156347e-14 0 0)
(8.061151727e-14 0 0)
(1.579249391e-13 0 0)
(2.353135011e-13 0 0)
(1.837192959e-13 0 0)
(1.113019604e-13 0 0)
(1.222846451e-13 0 0)
(7.644541505e-14 0 0)
(4.633256641e-14 0 0)
(9.473297434e-14 0 0)
(1.784792693e-13 0 0)
(1.972312932e-13 0 0)
(1.598951008e-13 0 0)
(1.610552216e-13 0 0)
(1.626471936e-13 0 0)
(1.692124126e-13 0 0)
(1.767344725e-13 0 0)
(1.622886176e-13 0 0)
(1.589998553e-13 0 0)
(1.718153037e-13 0 0)
(1.299058087e-13 0 0)
(1.023478779e-13 0 0)
(7.493490192e-14 0 0)
(6.696012786e-14 0 0)
(6.799844319e-14 0 0)
(7.554180896e-14 0 0)
(9.140488118e-14 0 0)
(1.048091339e-13 0 0)
(1.129533281e-13 0 0)
(1.148199235e-13 0 0)
(1.179713079e-13 0 0)
(1.186098582e-13 0 0)
(1.171700716e-13 0 0)
(1.165778559e-13 0 0)
(1.151836284e-13 0 0)
(1.115547869e-13 0 0)
(9.970140618e-14 0 0)
(7.489190415e-14 0 0)
(5.272218302e-14 0 0)
(4.529998902e-14 0 0)
(3.857578192e-14 0 0)
(3.52054992e-14 0 0)
(3.485142299e-14 0 0)
(2.881562334e-14 0 0)
(2.555588903e-14 0 0)
(1.85787678e-14 0 0)
(1.377904293e-14 0 0)
(9.06211864e-15 0 0)
(6.370907288e-15 0 0)
(6.034013653e-15 0 0)
(8.871577168e-15 0 0)
(8.961752524e-15 0 0)
(4.395693731e-15 0 0)
(-1.158469039e-15 0 0)
(-9.519924656e-15 0 0)
(-1.944954049e-14 0 0)
(-3.992122494e-14 0 0)
(-5.91327771e-14 0 0)
(-8.747023199e-14 0 0)
(-1.061172288e-13 0 0)
(-1.223807029e-13 0 0)
(-1.269167584e-13 0 0)
(-1.281801132e-13 0 0)
(-1.288199526e-13 0 0)
(-1.309417614e-13 0 0)
(-1.305810444e-13 0 0)
(-1.32319747e-13 0 0)
(-1.311565278e-13 0 0)
(-1.207605919e-13 0 0)
(-1.10276871e-13 0 0)
(-9.679839951e-14 0 0)
(-8.2197047e-14 0 0)
(-7.656975313e-14 0 0)
(-7.272440676e-14 0 0)
(-7.248369707e-14 0 0)
(-7.714291499e-14 0 0)
(-9.020972418e-14 0 0)
(-1.019331943e-13 0 0)
(-1.095013545e-13 0 0)
(-1.101821827e-13 0 0)
(-1.081009608e-13 0 0)
(-1.036374997e-13 0 0)
(-1.015565338e-13 0 0)
(-1.015526378e-13 0 0)
(-1.050494641e-13 0 0)
(-1.065995066e-13 0 0)
(-1.063283623e-13 0 0)
(-1.040856248e-13 0 0)
(-9.924418569e-14 0 0)
(-1.026897028e-13 0 0)
(-1.115468913e-13 0 0)
(-1.170498527e-13 0 0)
(-1.185936345e-13 0 0)
(-1.184440821e-13 0 0)
(-1.191476767e-13 0 0)
(-1.181959696e-13 0 0)
(-1.043533e-13 0 0)
(-6.781863968e-14 0 0)
(-3.489401088e-14 0 0)
(-5.251773815e-15 0 0)
(1.790273267e-14 0 0)
(3.541022605e-14 0 0)
(4.963009879e-14 0 0)
(6.212450445e-14 0 0)
(7.200564491e-14 0 0)
(8.644641665e-14 0 0)
(1.042389009e-13 0 0)
(1.208036686e-13 0 0)
(1.293288922e-13 0 0)
(1.342267328e-13 0 0)
(1.390827068e-13 0 0)
(1.299569176e-13 0 0)
(1.099818971e-13 0 0)
(8.708132535e-14 0 0)
(7.590297905e-14 0 0)
(7.166779207e-14 0 0)
(7.11553464e-14 0 0)
(6.995797503e-14 0 0)
(6.672689466e-14 0 0)
(6.538361094e-14 0 0)
(6.018022122e-14 0 0)
(4.396428582e-14 0 0)
(2.791518042e-14 0 0)
(1.617373629e-14 0 0)
(8.30552047e-16 0 0)
(-3.787525061e-15 0 0)
(-8.367783243e-15 0 0)
(-1.365743264e-14 0 0)
(-2.568085231e-14 0 0)
(-2.911205916e-14 0 0)
(-3.016593445e-14 0 0)
(-2.540979906e-14 0 0)
(-8.83008936e-15 0 0)
(1.525996986e-14 0 0)
(3.719063229e-14 0 0)
(5.19538267e-14 0 0)
(5.601567171e-14 0 0)
(5.810861669e-14 0 0)
(6.128830848e-14 0 0)
(6.243516164e-14 0 0)
(5.968361566e-14 0 0)
(5.432541308e-14 0 0)
(5.502655171e-14 0 0)
(5.471543405e-14 0 0)
(5.476802844e-14 0 0)
(5.424212818e-14 0 0)
(4.869656148e-14 0 0)
(4.029285493e-14 0 0)
(3.212031678e-14 0 0)
(2.285858855e-14 0 0)
(1.767549572e-14 0 0)
(1.912826138e-14 0 0)
(2.206244337e-14 0 0)
(3.022784152e-14 0 0)
(4.015253187e-14 0 0)
(5.292665286e-14 0 0)
(7.949352128e-14 0 0)
(1.026304359e-13 0 0)
(1.143165747e-13 0 0)
(1.22713563e-13 0 0)
(1.289963125e-13 0 0)
(1.32122776e-13 0 0)
(1.324001889e-13 0 0)
(1.323834718e-13 0 0)
(1.294783519e-13 0 0)
(1.191835842e-13 0 0)
(9.515152063e-14 0 0)
(7.407932238e-14 0 0)
(4.795351057e-14 0 0)
(2.800908136e-14 0 0)
(1.28273919e-14 0 0)
(4.31682337e-15 0 0)
(-2.795072736e-15 0 0)
(-6.088850102e-15 0 0)
(-8.92209554e-15 0 0)
(-1.470952329e-14 0 0)
(-1.834225407e-14 0 0)
(-2.641031383e-14 0 0)
(-3.271091311e-14 0 0)
(-3.185835467e-14 0 0)
(-3.031974866e-14 0 0)
(-2.634920716e-14 0 0)
(-1.247431466e-14 0 0)
(5.142895342e-15 0 0)
(1.572370176e-14 0 0)
(2.02214207e-14 0 0)
(2.095730082e-14 0 0)
(1.427314758e-14 0 0)
(1.309173095e-15 0 0)
(-1.578145263e-14 0 0)
(-2.844832317e-14 0 0)
(-3.545309661e-14 0 0)
(-3.3622007e-14 0 0)
(-2.85605907e-14 0 0)
(-2.408249051e-14 0 0)
(-2.277887589e-14 0 0)
(-2.371506588e-14 0 0)
(-2.434915819e-14 0 0)
(-2.489927361e-14 0 0)
(-2.208161662e-14 0 0)
(-1.44633606e-14 0 0)
(-5.952871643e-15 0 0)
(1.879173002e-15 0 0)
(1.202301282e-14 0 0)
(2.303518875e-14 0 0)
(3.032054173e-14 0 0)
(3.287397769e-14 0 0)
(3.265742413e-14 0 0)
(3.025018501e-14 0 0)
(2.607455634e-14 0 0)
(1.703003515e-14 0 0)
(2.834167564e-15 0 0)
(-7.241239627e-15 0 0)
(-2.086426593e-14 0 0)
(-2.999552351e-14 0 0)
(-4.065423867e-14 0 0)
(-4.392081426e-14 0 0)
(-4.153362184e-14 0 0)
(-3.328572762e-14 0 0)
(-2.199127528e-14 0 0)
(-2.61954652e-15 0 0)
(1.593679691e-14 0 0)
(3.118550679e-14 0 0)
(3.805975984e-14 0 0)
(4.209746678e-14 0 0)
(4.299286533e-14 0 0)
(4.317773111e-14 0 0)
(4.203651889e-14 0 0)
(3.903926376e-14 0 0)
(3.559340792e-14 0 0)
(2.65386463e-14 0 0)
(1.418765854e-14 0 0)
(6.829423104e-15 0 0)
(9.042809924e-15 0 0)
(1.227263642e-14 0 0)
(1.796867344e-14 0 0)
(1.99640432e-14 0 0)
(1.800927654e-14 0 0)
(1.598189665e-14 0 0)
(1.152857826e-14 0 0)
(4.013544214e-15 0 0)
(-1.030875655e-14 0 0)
(-2.034110908e-14 0 0)
(-2.782083194e-14 0 0)
(-3.573216724e-14 0 0)
(-4.495992582e-14 0 0)
(-5.394893272e-14 0 0)
(-6.128055716e-14 0 0)
(-6.788960559e-14 0 0)
(-6.862419682e-14 0 0)
(-5.986874993e-14 0 0)
(-4.058348424e-14 0 0)
(-2.109056317e-14 0 0)
(-1.787217852e-15 0 0)
(5.649179429e-15 0 0)
(1.56719615e-14 0 0)
(2.598342201e-14 0 0)
(4.249741945e-14 0 0)
(4.800421644e-14 0 0)
(4.960569958e-14 0 0)
(4.563193379e-14 0 0)
(3.558654738e-14 0 0)
(2.277370001e-14 0 0)
(1.132286533e-14 0 0)
(7.962054198e-16 0 0)
(-9.302245739e-15 0 0)
(-1.720029377e-14 0 0)
(-1.535681187e-14 0 0)
(-1.107637116e-14 0 0)
(1.320814968e-15 0 0)
(1.240241821e-14 0 0)
(2.862014037e-14 0 0)
(3.536418465e-14 0 0)
(3.917184365e-14 0 0)
(3.861715683e-14 0 0)
(3.174838613e-14 0 0)
(1.957182769e-14 0 0)
(6.116426592e-15 0 0)
(-9.750010819e-15 0 0)
(-2.054537377e-14 0 0)
(-2.609757664e-14 0 0)
(-2.63714451e-14 0 0)
(-2.289056797e-14 0 0)
(-9.085201282e-15 0 0)
(1.150589605e-15 0 0)
(5.740874957e-15 0 0)
(1.245836614e-15 0 0)
(-4.333426053e-15 0 0)
(-5.297776378e-15 0 0)
(-5.693894542e-15 0 0)
(-5.810719583e-15 0 0)
(-5.451223443e-15 0 0)
(-4.673481949e-15 0 0)
(-5.680047657e-15 0 0)
(-1.025137249e-14 0 0)
(-1.452138326e-14 0 0)
(-1.128251007e-14 0 0)
(-3.654805127e-15 0 0)
(5.202612737e-15 0 0)
(1.034618595e-14 0 0)
(9.711309079e-15 0 0)
(9.255328156e-15 0 0)
(4.776871771e-15 0 0)
(6.466582094e-16 0 0)
(1.846926966e-15 0 0)
(1.729736754e-15 0 0)
(5.305162088e-16 0 0)
(-2.092459831e-15 0 0)
(2.094725093e-15 0 0)
(8.361733875e-15 0 0)
(1.316905117e-14 0 0)
(1.268345961e-14 0 0)
(1.052638819e-14 0 0)
(7.219825379e-15 0 0)
(-1.210091296e-14 0 0)
(-3.038964245e-14 0 0)
(-4.111264016e-14 0 0)
(-3.802276314e-14 0 0)
(-3.311278839e-14 0 0)
(-2.50658674e-14 0 0)
(-2.178102232e-14 0 0)
(-1.710539058e-14 0 0)
(-1.297533273e-14 0 0)
(-9.085692927e-15 0 0)
(-4.002900023e-15 0 0)
(-4.133070963e-15 0 0)
(-7.478377103e-16 0 0)
(4.533372138e-15 0 0)
(1.397080785e-14 0 0)
(2.035544822e-14 0 0)
(2.364258316e-14 0 0)
(2.190200537e-14 0 0)
(1.447870991e-14 0 0)
(9.210193279e-15 0 0)
(9.891380295e-15 0 0)
(8.977896176e-15 0 0)
(6.857997867e-15 0 0)
(2.921227959e-15 0 0)
(3.484562585e-16 0 0)
(-5.353616222e-15 0 0)
(-1.16262593e-14 0 0)
(-1.669378414e-14 0 0)
(-1.769675375e-14 0 0)
(-1.448265084e-14 0 0)
(-1.39027642e-14 0 0)
(-8.894178792e-15 0 0)
(-5.893901287e-15 0 0)
(-2.805638075e-16 0 0)
(-7.879423736e-17 0 0)
(-3.145766865e-15 0 0)
(-1.182587963e-14 0 0)
(-2.009972803e-14 0 0)
(-2.446755454e-14 0 0)
(-2.625498576e-14 0 0)
(-2.555941149e-14 0 0)
(-1.978795843e-14 0 0)
(-1.177656977e-14 0 0)
(2.421227638e-15 0 0)
(1.471038453e-14 0 0)
(3.110480246e-14 0 0)
(3.904003519e-14 0 0)
(4.131177358e-14 0 0)
(3.956822146e-14 0 0)
(3.855278974e-14 0 0)
(3.183248691e-14 0 0)
(2.802602903e-14 0 0)
(2.439543653e-14 0 0)
(1.845587383e-14 0 0)
(1.445915238e-14 0 0)
(8.113784397e-15 0 0)
(4.098550032e-15 0 0)
(4.645913289e-15 0 0)
(5.208092973e-15 0 0)
(7.211968876e-15 0 0)
(7.854176223e-15 0 0)
(7.233266199e-15 0 0)
(6.623384074e-15 0 0)
(7.920031791e-15 0 0)
(4.386644393e-15 0 0)
(-1.684059916e-15 0 0)
(-1.634771012e-14 0 0)
(-3.350626422e-14 0 0)
(-4.318669513e-14 0 0)
(-5.403564758e-14 0 0)
(-5.803630337e-14 0 0)
(-5.319005906e-14 0 0)
(-4.048369683e-14 0 0)
(-1.398590268e-14 0 0)
(8.721339044e-15 0 0)
(2.785226815e-14 0 0)
(3.907740936e-14 0 0)
(4.355465271e-14 0 0)
(4.267529711e-14 0 0)
(3.980865286e-14 0 0)
(3.344409159e-14 0 0)
(2.729054171e-14 0 0)
(2.140834031e-14 0 0)
(1.380133484e-14 0 0)
(3.805199286e-15 0 0)
(-1.421211365e-14 0 0)
(-2.30716789e-14 0 0)
(-2.298627074e-14 0 0)
(-1.712394688e-14 0 0)
(-1.190353029e-14 0 0)
(-8.031170044e-15 0 0)
(-6.64141147e-15 0 0)
(1.192507631e-15 0 0)
(2.906780326e-15 0 0)
(4.609153771e-15 0 0)
(6.327693299e-15 0 0)
(7.04955094e-15 0 0)
(7.403004626e-15 0 0)
(6.857795811e-15 0 0)
(9.032756676e-15 0 0)
(8.726837953e-15 0 0)
(8.783622946e-15 0 0)
(8.563769881e-15 0 0)
(6.719102895e-15 0 0)
(2.787989982e-15 0 0)
(-7.784206292e-17 0 0)
(-7.012568781e-15 0 0)
(-1.607691829e-14 0 0)
(-2.552496993e-14 0 0)
(-3.021225097e-14 0 0)
(-3.352044114e-14 0 0)
(-3.182329796e-14 0 0)
(-2.775527254e-14 0 0)
(-1.84430643e-14 0 0)
(-2.873290218e-15 0 0)
(1.422340283e-14 0 0)
(2.844253999e-14 0 0)
(3.532334996e-14 0 0)
(3.680764709e-14 0 0)
(3.607902731e-14 0 0)
(3.580993379e-14 0 0)
(3.4807916e-14 0 0)
(3.453138724e-14 0 0)
(3.789441929e-14 0 0)
(4.198838114e-14 0 0)
(4.254422622e-14 0 0)
(3.890161095e-14 0 0)
(2.877333917e-14 0 0)
(1.140923172e-14 0 0)
(-7.707443117e-15 0 0)
(-1.975859128e-14 0 0)
(-2.381625182e-14 0 0)
(-2.082870131e-14 0 0)
(-1.579257252e-14 0 0)
(-7.660041347e-15 0 0)
(2.713992126e-15 0 0)
(1.167770771e-14 0 0)
(1.670577666e-14 0 0)
(1.626771734e-14 0 0)
(1.599670877e-14 0 0)
(1.255194927e-14 0 0)
(1.822460132e-15 0 0)
(-1.385672846e-14 0 0)
(-2.777283828e-14 0 0)
(-3.816194228e-14 0 0)
(-4.6128822e-14 0 0)
(-5.533823301e-14 0 0)
(-5.862640635e-14 0 0)
(-5.982429988e-14 0 0)
(-5.818525923e-14 0 0)
(-5.567265404e-14 0 0)
(-4.547161155e-14 0 0)
(-3.637052202e-14 0 0)
(-1.546802133e-14 0 0)
(-9.869440046e-15 0 0)
(-3.997951594e-16 0 0)
(3.538333119e-15 0 0)
(3.289679619e-15 0 0)
(-3.236602205e-15 0 0)
(-4.688463753e-15 0 0)
(-3.812890816e-16 0 0)
(1.078873387e-14 0 0)
(2.132183358e-14 0 0)
(2.9540913e-14 0 0)
(3.329506334e-14 0 0)
(3.199965719e-14 0 0)
(3.259721168e-14 0 0)
(3.32099461e-14 0 0)
(3.022994e-14 0 0)
(2.428300729e-14 0 0)
(1.902538728e-14 0 0)
(8.089812047e-15 0 0)
(-1.173145117e-15 0 0)
(-1.535887974e-14 0 0)
(-1.906197125e-14 0 0)
(-2.055872272e-14 0 0)
(-1.538435569e-14 0 0)
(-7.721027249e-15 0 0)
(1.510890591e-15 0 0)
(1.420386982e-14 0 0)
(2.135771013e-14 0 0)
(2.598739282e-14 0 0)
(2.63337602e-14 0 0)
(2.716725967e-14 0 0)
(2.528646877e-14 0 0)
(2.258883688e-14 0 0)
(1.751195426e-14 0 0)
(7.500836824e-15 0 0)
(4.035989092e-15 0 0)
(4.060540517e-15 0 0)
(2.681909639e-16 0 0)
(-5.438593921e-15 0 0)
(-1.491828761e-14 0 0)
(-2.115244043e-14 0 0)
(-2.705849004e-14 0 0)
(-2.975979105e-14 0 0)
(-3.055589236e-14 0 0)
(-3.0753395e-14 0 0)
(-2.241198138e-14 0 0)
(-1.029538965e-14 0 0)
(3.18222971e-15 0 0)
(8.838471482e-15 0 0)
(1.689269262e-14 0 0)
(1.941456509e-14 0 0)
(1.930757906e-14 0 0)
(2.069802836e-14 0 0)
(2.333016869e-14 0 0)
(2.520090178e-14 0 0)
(2.494093243e-14 0 0)
(2.347957507e-14 0 0)
(1.832855535e-14 0 0)
(1.784169306e-14 0 0)
(1.702801392e-14 0 0)
(1.775066626e-14 0 0)
(1.733875365e-14 0 0)
(1.64390584e-14 0 0)
(1.767265417e-14 0 0)
(1.269320867e-14 0 0)
(-2.537362757e-15 0 0)
(-1.124010813e-14 0 0)
(-1.49076188e-14 0 0)
(-1.427364059e-14 0 0)
(-1.44670598e-14 0 0)
(-1.26724669e-14 0 0)
(-4.549183438e-15 0 0)
(2.912466678e-15 0 0)
(9.240254314e-15 0 0)
(1.34350333e-14 0 0)
(1.538780369e-14 0 0)
(1.77677596e-14 0 0)
(1.901480985e-14 0 0)
(1.911288064e-14 0 0)
(1.807736881e-14 0 0)
(1.319603775e-14 0 0)
(3.524662568e-15 0 0)
(-7.687241108e-15 0 0)
(-1.607978252e-14 0 0)
(-2.396330137e-14 0 0)
(-2.723273161e-14 0 0)
(-3.094197153e-14 0 0)
(-3.101348515e-14 0 0)
(-3.380744816e-14 0 0)
(-3.155487479e-14 0 0)
(-3.156013931e-14 0 0)
(-2.553460337e-14 0 0)
(-1.610180724e-14 0 0)
(-3.353812654e-15 0 0)
(1.022815744e-14 0 0)
(2.238067786e-14 0 0)
(2.894683118e-14 0 0)
(3.32234542e-14 0 0)
(3.164307605e-14 0 0)
(2.818219535e-14 0 0)
(1.814200814e-14 0 0)
(2.359984744e-15 0 0)
(-6.044659546e-15 0 0)
(-9.53631042e-15 0 0)
(-8.103406246e-15 0 0)
(-7.216433604e-15 0 0)
(-8.781693644e-15 0 0)
(-1.058457209e-14 0 0)
(-1.272280984e-14 0 0)
(-1.263899906e-14 0 0)
(-1.202831589e-14 0 0)
(-9.541528683e-15 0 0)
(-5.707074521e-15 0 0)
(8.830349156e-16 0 0)
(2.398317535e-15 0 0)
(8.543379612e-16 0 0)
(-3.170318571e-16 0 0)
(4.569807352e-16 0 0)
(-1.267622665e-16 0 0)
(-8.811098236e-16 0 0)
(-1.927556847e-15 0 0)
(-2.363153053e-15 0 0)
(1.525608228e-15 0 0)
(4.389482988e-15 0 0)
(7.701418694e-15 0 0)
(6.79810738e-15 0 0)
(6.514670232e-15 0 0)
(6.381137111e-16 0 0)
(-4.893443051e-15 0 0)
(-1.388561346e-14 0 0)
(-1.674246398e-14 0 0)
(-1.875121529e-14 0 0)
(-1.841381202e-14 0 0)
(-8.902179446e-15 0 0)
(4.817897156e-15 0 0)
(1.325072013e-14 0 0)
(2.016425352e-14 0 0)
(2.259611543e-14 0 0)
(2.247313454e-14 0 0)
(2.017942612e-14 0 0)
(1.651764565e-14 0 0)
(1.319697714e-14 0 0)
(1.343926394e-14 0 0)
(1.04648928e-14 0 0)
(9.409187097e-15 0 0)
(8.483499158e-15 0 0)
(6.754810294e-15 0 0)
(4.012643576e-15 0 0)
(4.864557621e-16 0 0)
(-1.945856092e-15 0 0)
(-6.151598291e-15 0 0)
(-5.926251942e-15 0 0)
(-4.812148753e-15 0 0)
(-1.441892918e-15 0 0)
(6.013905246e-15 0 0)
(1.378072858e-14 0 0)
(2.260664747e-14 0 0)
(2.856237749e-14 0 0)
(3.194429392e-14 0 0)
(3.394982521e-14 0 0)
(3.295951567e-14 0 0)
(2.63849239e-14 0 0)
(1.452361812e-14 0 0)
(-1.628432818e-15 0 0)
(-1.629454058e-14 0 0)
(-3.241327081e-14 0 0)
(-3.949414002e-14 0 0)
(-4.845048845e-14 0 0)
(-5.204906746e-14 0 0)
(-5.213954454e-14 0 0)
(-4.526539986e-14 0 0)
(-3.203710509e-14 0 0)
(-1.444180683e-14 0 0)
(4.211831396e-15 0 0)
(1.630555468e-14 0 0)
(3.131180298e-14 0 0)
(3.747435219e-14 0 0)
(4.217413477e-14 0 0)
(4.163862624e-14 0 0)
(3.915743517e-14 0 0)
(3.324763238e-14 0 0)
(2.112354141e-14 0 0)
(5.915234481e-15 0 0)
(-9.901151283e-15 0 0)
(-2.003618651e-14 0 0)
(-2.939676736e-14 0 0)
(-3.347869145e-14 0 0)
(-3.604842898e-14 0 0)
(-3.194706553e-14 0 0)
(-2.295867121e-14 0 0)
(-1.064315738e-14 0 0)
(2.237245069e-15 0 0)
(1.498338298e-14 0 0)
(2.213919451e-14 0 0)
(2.239728344e-14 0 0)
(2.132517385e-14 0 0)
(2.299550811e-14 0 0)
(1.827635664e-14 0 0)
(1.328357974e-14 0 0)
(1.679541726e-15 0 0)
(-1.258483532e-14 0 0)
(-2.091383999e-14 0 0)
(-2.786615488e-14 0 0)
(-3.201033194e-14 0 0)
(-3.496285866e-14 0 0)
(-3.39126904e-14 0 0)
(-3.022332427e-14 0 0)
(-2.812787891e-14 0 0)
(-2.255480496e-14 0 0)
(-1.600873758e-14 0 0)
(-1.374582197e-14 0 0)
(-4.890435797e-15 0 0)
(1.15412096e-15 0 0)
(6.225147795e-15 0 0)
(9.241042024e-15 0 0)
(7.492581101e-15 0 0)
(7.554800249e-15 0 0)
(8.362780781e-15 0 0)
(5.475009946e-15 0 0)
(2.836332414e-15 0 0)
(4.935573303e-15 0 0)
(3.89155707e-15 0 0)
(1.499156696e-15 0 0)
(-6.252494361e-15 0 0)
(-1.228428652e-14 0 0)
(-1.617624876e-14 0 0)
(-1.557532606e-14 0 0)
(-1.393756521e-14 0 0)
(-1.635762245e-14 0 0)
(-1.128519539e-14 0 0)
(-7.790771525e-15 0 0)
(-1.101199337e-15 0 0)
(3.378446391e-15 0 0)
(1.319512139e-14 0 0)
(1.555025129e-14 0 0)
(1.859917727e-14 0 0)
(1.621917952e-14 0 0)
(1.200563004e-14 0 0)
(5.929821027e-15 0 0)
(4.504750732e-15 0 0)
(3.696386418e-15 0 0)
(1.051849928e-14 0 0)
(1.130445886e-14 0 0)
(1.210301474e-14 0 0)
(1.386048488e-14 0 0)
(1.752895344e-14 0 0)
(1.963736443e-14 0 0)
(2.442567685e-14 0 0)
(2.529405542e-14 0 0)
(2.896889791e-14 0 0)
(3.443082602e-14 0 0)
(4.064819343e-14 0 0)
(4.159622065e-14 0 0)
(3.607093824e-14 0 0)
(3.06076387e-14 0 0)
(1.807104387e-14 0 0)
(1.158963898e-14 0 0)
(-9.048597282e-16 0 0)
(-1.276591935e-14 0 0)
(-2.459089091e-14 0 0)
(-4.133408623e-14 0 0)
(-4.907421995e-14 0 0)
(-5.364331455e-14 0 0)
(-5.576316916e-14 0 0)
(-4.978422145e-14 0 0)
(-3.631962649e-14 0 0)
(-1.934010081e-14 0 0)
(-1.124586433e-14 0 0)
(-1.023141821e-14 0 0)
(-1.126412218e-14 0 0)
(-1.652276671e-14 0 0)
(-2.340199627e-14 0 0)
(-3.073225812e-14 0 0)
(-3.356916498e-14 0 0)
(-4.072334031e-14 0 0)
(-4.191617713e-14 0 0)
(-3.96384895e-14 0 0)
(-3.058132306e-14 0 0)
(-2.687798912e-14 0 0)
(-2.208579742e-14 0 0)
(-1.871282493e-14 0 0)
(-1.422468762e-14 0 0)
(-4.652227402e-15 0 0)
(9.878251191e-15 0 0)
(3.109451541e-14 0 0)
(5.027500934e-14 0 0)
(5.973786077e-14 0 0)
(6.08752204e-14 0 0)
(5.778540373e-14 0 0)
(4.813614061e-14 0 0)
(3.557029168e-14 0 0)
(1.9415102e-14 0 0)
(1.367794433e-15 0 0)
(-1.707720056e-14 0 0)
(-2.886677148e-14 0 0)
(-4.187143704e-14 0 0)
(-4.83189914e-14 0 0)
(-4.857967068e-14 0 0)
(-4.292801739e-14 0 0)
(-3.157504964e-14 0 0)
(-1.294220698e-14 0 0)
(-1.958004341e-15 0 0)
(8.992714425e-16 0 0)
(2.993355017e-15 0 0)
(4.20022605e-15 0 0)
(8.641774162e-15 0 0)
(1.659863209e-14 0 0)
(2.273999247e-14 0 0)
(2.736500236e-14 0 0)
(2.97978658e-14 0 0)
(2.919654084e-14 0 0)
(2.815178966e-14 0 0)
(2.29855559e-14 0 0)
(1.282029405e-14 0 0)
(1.783345779e-16 0 0)
(-1.273553372e-14 0 0)
(-1.885274155e-14 0 0)
(-2.818029065e-14 0 0)
(-3.371203581e-14 0 0)
(-3.607066047e-14 0 0)
(-3.727959977e-14 0 0)
(-3.617089536e-14 0 0)
(-3.333909364e-14 0 0)
(-3.007308471e-14 0 0)
(-2.69469805e-14 0 0)
(-2.370919204e-14 0 0)
(-1.828660789e-14 0 0)
(-1.208190328e-14 0 0)
(-1.047971092e-14 0 0)
(-9.007873672e-15 0 0)
(-1.178954853e-14 0 0)
(-1.203563813e-14 0 0)
(-1.174237117e-14 0 0)
(-9.574855814e-15 0 0)
(-5.13088715e-15 0 0)
(-2.282855793e-15 0 0)
(2.438337442e-15 0 0)
(9.844222657e-15 0 0)
(1.805354847e-14 0 0)
(2.746603753e-14 0 0)
(3.186342804e-14 0 0)
(3.324505469e-14 0 0)
(2.825267137e-14 0 0)
(2.081076785e-14 0 0)
(1.333416406e-14 0 0)
(1.429599416e-14 0 0)
(1.90520415e-14 0 0)
(2.338479659e-14 0 0)
(2.555924076e-14 0 0)
(2.190029242e-14 0 0)
(1.853565615e-14 0 0)
(1.150637618e-14 0 0)
(8.219667615e-15 0 0)
(1.476364905e-15 0 0)
(-3.657353061e-15 0 0)
(-6.795274064e-15 0 0)
(-7.067906245e-15 0 0)
(-3.399274118e-15 0 0)
(6.550427953e-15 0 0)
(1.855006437e-14 0 0)
(2.198816702e-14 0 0)
(2.403332518e-14 0 0)
(2.506157629e-14 0 0)
(2.239077565e-14 0 0)
(2.193301185e-14 0 0)
(2.014920556e-14 0 0)
(1.569169419e-14 0 0)
(1.01764837e-14 0 0)
(4.049328968e-15 0 0)
(-2.465229523e-15 0 0)
(-3.011739837e-15 0 0)
(-4.049543361e-15 0 0)
(-4.821972678e-15 0 0)
(-7.998879734e-15 0 0)
(-6.41566607e-15 0 0)
(-3.427235669e-15 0 0)
(5.236176964e-16 0 0)
(-4.77869436e-17 0 0)
(1.624313167e-16 0 0)
(7.605803247e-16 0 0)
(1.814079658e-15 0 0)
(3.742176061e-15 0 0)
(5.294314804e-15 0 0)
(9.877991882e-16 0 0)
(-7.045167674e-15 0 0)
(-1.403529031e-14 0 0)
(-1.461397988e-14 0 0)
(-1.057502392e-14 0 0)
(-2.24382541e-15 0 0)
(5.200635314e-15 0 0)
(8.085851497e-15 0 0)
(9.296998537e-15 0 0)
(6.167778273e-15 0 0)
(4.099126103e-15 0 0)
(4.038578388e-15 0 0)
(4.21415339e-15 0 0)
(3.640550687e-15 0 0)
(3.386964484e-15 0 0)
(2.451256761e-15 0 0)
(3.404632785e-15 0 0)
(2.313739056e-15 0 0)
(-1.741952623e-15 0 0)
(-3.793418258e-15 0 0)
(-4.992759608e-15 0 0)
(-9.325759962e-15 0 0)
(-1.629109677e-14 0 0)
(-3.508614296e-14 0 0)
(-6.998856468e-14 0 0)
(-1.036781965e-13 0 0)
(-1.26986633e-13 0 0)
(-1.370264246e-13 0 0)
(-1.39230573e-13 0 0)
(-1.339300087e-13 0 0)
(-1.211452877e-13 0 0)
(-1.076930927e-13 0 0)
(-9.856227871e-14 0 0)
(-1.036360235e-13 0 0)
(-1.144475355e-13 0 0)
(-1.203061907e-13 0 0)
(-1.207776091e-13 0 0)
(-1.114721312e-13 0 0)
(-9.989281779e-14 0 0)
(-7.9736168e-14 0 0)
(-7.270873726e-14 0 0)
(-7.419207916e-14 0 0)
(-8.857580428e-14 0 0)
(-1.069761592e-13 0 0)
(-1.186761957e-13 0 0)
(-1.174995975e-13 0 0)
(-1.125431806e-13 0 0)
(-1.095046776e-13 0 0)
(-1.110922344e-13 0 0)
(-1.11806858e-13 0 0)
(-1.104262072e-13 0 0)
(-1.046430478e-13 0 0)
(-8.945195063e-14 0 0)
(-6.935874088e-14 0 0)
(-5.410704673e-14 0 0)
(-3.530632352e-14 0 0)
(-2.248385186e-14 0 0)
(-1.599159896e-14 0 0)
(-1.390467976e-14 0 0)
(-1.396607457e-14 0 0)
(-1.323627662e-14 0 0)
(-1.007339681e-14 0 0)
(-2.472069798e-15 0 0)
(-1.079653138e-15 0 0)
(2.830405717e-15 0 0)
(1.180817369e-14 0 0)
(2.43984638e-14 0 0)
(4.084091498e-14 0 0)
(6.559673278e-14 0 0)
(8.231672689e-14 0 0)
(1.031975495e-13 0 0)
(1.241546003e-13 0 0)
(1.363157119e-13 0 0)
(1.384228483e-13 0 0)
(1.381022263e-13 0 0)
(1.273841266e-13 0 0)
(9.956205759e-14 0 0)
(6.392216654e-14 0 0)
(3.407355862e-14 0 0)
(1.717592732e-14 0 0)
(1.110755073e-14 0 0)
(1.282552832e-14 0 0)
(1.736030567e-14 0 0)
(3.308247077e-14 0 0)
(4.913591188e-14 0 0)
(7.691829733e-14 0 0)
(8.969012418e-14 0 0)
(9.005251984e-14 0 0)
(8.291941657e-14 0 0)
(7.014431638e-14 0 0)
(6.454981649e-14 0 0)
(6.167829695e-14 0 0)
(6.263208195e-14 0 0)
(6.217765079e-14 0 0)
(6.465103257e-14 0 0)
(5.577996441e-14 0 0)
(4.635603601e-14 0 0)
(3.566109845e-14 0 0)
(2.286485248e-14 0 0)
(1.027812097e-14 0 0)
(-7.997723316e-15 0 0)
(-2.353329199e-14 0 0)
(-3.419185726e-14 0 0)
(-4.260705066e-14 0 0)
(-4.508664797e-14 0 0)
(-4.368343333e-14 0 0)
(-4.526920312e-14 0 0)
(-4.462378756e-14 0 0)
(-4.363953433e-14 0 0)
(-4.416611808e-14 0 0)
(-4.37141583e-14 0 0)
(-4.02239513e-14 0 0)
(-2.839912905e-14 0 0)
(2.223355572e-15 0 0)
(2.997739661e-14 0 0)
(5.659784452e-14 0 0)
(7.20939296e-14 0 0)
(7.70584856e-14 0 0)
(7.861492964e-14 0 0)
(7.450028735e-14 0 0)
(6.705578788e-14 0 0)
(5.349490627e-14 0 0)
(3.695385938e-14 0 0)
(1.393021332e-14 0 0)
(-6.122401919e-15 0 0)
(-2.851953526e-14 0 0)
(-4.831756741e-14 0 0)
(-6.121257647e-14 0 0)
(-6.134152963e-14 0 0)
(-6.055562365e-14 0 0)
(-5.057252088e-14 0 0)
(-3.113590418e-14 0 0)
(-1.085767039e-14 0 0)
(8.058747759e-15 0 0)
(1.656733856e-14 0 0)
(1.727334584e-14 0 0)
(1.649493113e-14 0 0)
(1.184137475e-14 0 0)
(1.474446468e-15 0 0)
(-1.319071099e-14 0 0)
(-3.416262719e-14 0 0)
(-6.4647174e-14 0 0)
(-8.561259376e-14 0 0)
(-1.037818851e-13 0 0)
(-1.089613551e-13 0 0)
(-1.064438987e-13 0 0)
(-9.691255079e-14 0 0)
(-9.2792216e-14 0 0)
(-8.668593969e-14 0 0)
(-8.663459208e-14 0 0)
(-8.767697903e-14 0 0)
(-8.277233358e-14 0 0)
(-6.144275588e-14 0 0)
(-3.282863753e-14 0 0)
(-3.405727696e-15 0 0)
(8.241582244e-15 0 0)
(1.000696703e-14 0 0)
(1.953607752e-15 0 0)
(-6.548137512e-15 0 0)
(-1.346530369e-14 0 0)
(-1.882659926e-14 0 0)
(-2.729514181e-14 0 0)
(-3.386516182e-14 0 0)
(-3.622695751e-14 0 0)
(-3.632425084e-14 0 0)
(-3.534693198e-14 0 0)
(-3.038764251e-14 0 0)
(-2.563705054e-14 0 0)
(-1.022557614e-14 0 0)
(1.703449588e-14 0 0)
(6.232338527e-14 0 0)
(1.043724793e-13 0 0)
(1.345603439e-13 0 0)
(1.254169267e-13 0 0)
(1.073133084e-13 0 0)
(1.29349441e-13 0 0)
(1.462058789e-13 0 0)
(1.425284837e-13 0 0)
(1.171861559e-13 0 0)
(8.705507487e-14 0 0)
(6.879756122e-14 0 0)
(6.409317076e-14 0 0)
(6.572508188e-14 0 0)
(7.788879323e-14 0 0)
(9.802581829e-14 0 0)
(1.061701614e-13 0 0)
(1.073915953e-13 0 0)
(1.037366409e-13 0 0)
(9.416873324e-14 0 0)
(7.410112965e-14 0 0)
(3.986524004e-14 0 0)
(-1.36994811e-15 0 0)
(-4.29541423e-14 0 0)
(-7.601486154e-14 0 0)
(-1.038921681e-13 0 0)
(-1.156547805e-13 0 0)
(-1.301638115e-13 0 0)
(-1.372178369e-13 0 0)
(-1.362867395e-13 0 0)
(-1.292914682e-13 0 0)
(-1.184814982e-13 0 0)
(-9.921871234e-14 0 0)
(-7.653299699e-14 0 0)
(-4.764538421e-14 0 0)
(-1.744256184e-14 0 0)
(8.958805123e-15 0 0)
(2.913813075e-14 0 0)
(3.713693941e-14 0 0)
(4.133810252e-14 0 0)
(3.987266295e-14 0 0)
(3.111540503e-14 0 0)
(1.472910205e-14 0 0)
(9.438546541e-16 0 0)
(-7.048663302e-15 0 0)
(-8.804207357e-15 0 0)
(-8.292300874e-15 0 0)
(-9.963070019e-15 0 0)
(-2.169275773e-14 0 0)
(-3.870334307e-14 0 0)
(-5.091136724e-14 0 0)
(-5.469257603e-14 0 0)
(-5.653322104e-14 0 0)
(-5.59624419e-14 0 0)
(-5.633843007e-14 0 0)
(-5.548822016e-14 0 0)
(-5.255106939e-14 0 0)
(-3.913799703e-14 0 0)
(-2.360327193e-14 0 0)
(-3.505659423e-15 0 0)
(9.383828479e-15 0 0)
(2.310510293e-14 0 0)
(2.743470684e-14 0 0)
(3.284194411e-14 0 0)
(3.032153575e-14 0 0)
(2.352364105e-14 0 0)
(1.104673097e-14 0 0)
(-2.084119911e-15 0 0)
(-1.918698484e-14 0 0)
(-4.015365816e-14 0 0)
(-5.63697178e-14 0 0)
(-6.960466582e-14 0 0)
(-8.505540637e-14 0 0)
(-1.058262424e-13 0 0)
(-1.202026088e-13 0 0)
(-1.260363006e-13 0 0)
(-1.315496864e-13 0 0)
(-1.340830593e-13 0 0)
(-1.343746824e-13 0 0)
(-1.266839317e-13 0 0)
(-1.14673507e-13 0 0)
(-9.283343128e-14 0 0)
(-6.676963147e-14 0 0)
(-3.368421986e-14 0 0)
(-7.364363497e-15 0 0)
(2.668721989e-14 0 0)
(5.38219781e-14 0 0)
(7.731734465e-14 0 0)
(9.434261565e-14 0 0)
(1.033027385e-13 0 0)
(1.052610291e-13 0 0)
(1.033454892e-13 0 0)
(1.071644752e-13 0 0)
(1.129625395e-13 0 0)
(1.157941479e-13 0 0)
(1.166058895e-13 0 0)
(1.102124828e-13 0 0)
(9.334268411e-14 0 0)
(7.093868112e-14 0 0)
(4.248795888e-14 0 0)
(2.019743937e-14 0 0)
(6.12684457e-15 0 0)
(-4.020707943e-15 0 0)
(-9.992477037e-15 0 0)
(-2.638752255e-14 0 0)
(-3.678418818e-14 0 0)
(-4.686314482e-14 0 0)
(-4.703415706e-14 0 0)
(-4.801435671e-14 0 0)
(-5.522048862e-14 0 0)
(-7.379260211e-14 0 0)
(-1.06043075e-13 0 0)
(-1.327874867e-13 0 0)
(-1.354230435e-13 0 0)
(-1.328565456e-13 0 0)
(-1.176213825e-13 0 0)
(-8.809224962e-14 0 0)
(-4.863548113e-14 0 0)
(-8.563871423e-15 0 0)
(2.034013408e-14 0 0)
(4.824500213e-14 0 0)
(6.849859424e-14 0 0)
(8.184407265e-14 0 0)
(9.065284624e-14 0 0)
(1.01463758e-13 0 0)
(1.115651192e-13 0 0)
(1.151315594e-13 0 0)
(1.181002342e-13 0 0)
(1.136985176e-13 0 0)
(9.384909327e-14 0 0)
(6.034532604e-14 0 0)
(1.95998745e-14 0 0)
(-1.540635979e-14 0 0)
(-3.700221368e-14 0 0)
(-5.007146444e-14 0 0)
(-5.546047623e-14 0 0)
(-5.653333284e-14 0 0)
(-5.76122201e-14 0 0)
(-5.832802561e-14 0 0)
(-6.019558486e-14 0 0)
(-5.740534706e-14 0 0)
(-5.588337054e-14 0 0)
(-4.274407041e-14 0 0)
(-2.100292058e-14 0 0)
(1.189189809e-14 0 0)
(3.679709238e-14 0 0)
(6.678961591e-14 0 0)
(8.009233446e-14 0 0)
(8.823833502e-14 0 0)
(8.766696059e-14 0 0)
(8.308744241e-14 0 0)
(7.176439855e-14 0 0)
(5.023764152e-14 0 0)
(2.360884815e-14 0 0)
(4.152192815e-15 0 0)
(-4.64059208e-15 0 0)
(-6.299057154e-15 0 0)
(-3.166990338e-15 0 0)
(2.650278725e-15 0 0)
(1.180082798e-14 0 0)
(2.971159162e-14 0 0)
(5.181322359e-14 0 0)
(8.46796509e-14 0 0)
(1.095591192e-13 0 0)
(1.202165633e-13 0 0)
(1.237668936e-13 0 0)
(1.20585618e-13 0 0)
(1.173974645e-13 0 0)
(1.118876946e-13 0 0)
(1.124964903e-13 0 0)
(1.185393625e-13 0 0)
(1.225192212e-13 0 0)
(1.198419029e-13 0 0)
(1.06985366e-13 0 0)
(8.237992834e-14 0 0)
(4.72001428e-14 0 0)
(1.041202738e-14 0 0)
(-1.466336753e-14 0 0)
(-2.579798034e-14 0 0)
(-2.998031599e-14 0 0)
(-3.214926821e-14 0 0)
(-3.29224488e-14 0 0)
(-3.21722746e-14 0 0)
(-2.88308263e-14 0 0)
(-2.21475814e-14 0 0)
(-1.451655623e-14 0 0)
(-1.043049571e-14 0 0)
(-5.504228646e-15 0 0)
(-7.996222254e-15 0 0)
(-1.191502657e-14 0 0)
(-1.616348396e-14 0 0)
(-2.130447214e-14 0 0)
(-2.636985192e-14 0 0)