/*--------------------------------*- C++ -*----------------------------------*\
| =========                 |                                                 |
| \\      /  F ield         | OpenFOAM: The Open Source CFD Toolbox           |
|  \\    /   O peration     | Version:  3.0.1                                 |
|   \\  /    A nd           | Web:      www.OpenFOAM.org                      |
|    \\/     M anipulation  |                                                 |
\*---------------------------------------------------------------------------*/
FoamFile
{
    version     2.0;
    format      ascii;
    class       volVectorField;
    location    "0.00015";
    object      U;
}
// * * * * * * * * * * * * * * * * * * * * * * * * * * * * * * * * * * * * * //

dimensions      [0 1 -1 0 0 0 0];

internalField   nonuniform List<vector> 
1000
(
(5.19652e-13 -2.8902e-13 0)
(1.07434e-12 -2.16035e-13 0)
(3.3865e-13 -2.8902e-13 0)
(2.27713e-13 -1.05098e-13 0)
(2.27713e-13 -4.08715e-14 0)
(-6.42267e-14 -2.91939e-15 0)
(-3.8536e-13 -2.01438e-13 0)
(-2.21874e-13 -2.04358e-13 0)
(4.08715e-14 -8.1743e-14 0)
(1.47137e-12 9.05012e-14 0)
(1.15608e-11 3.18214e-13 0)
(6.05424e-11 2.36471e-13 0)
(2.95215e-10 2.59826e-13 0)
(1.39605e-09 -1.37212e-13 0)
(6.39125e-09 1.10937e-13 0)
(2.83705e-08 3.29892e-13 0)
(1.22006e-07 1.4597e-13 0)
(5.07702e-07 1.66405e-13 0)
(2.04146e-06 2.91939e-14 0)
(7.92008e-06 3.41569e-13 0)
(2.95967e-05 1.02471e-12 0)
(0.000106339 4.78781e-12 0)
(0.000366592 1.91892e-11 0)
(0.00120986 7.08304e-11 0)
(0.00381261 2.3695e-10 0)
(0.0114388 7.25007e-10 0)
(0.0325637 2.0537e-09 0)
(0.0876133 5.40926e-09 0)
(0.221738 1.32107e-08 0)
(0.524911 2.97213e-08 0)
(1.15411 6.08936e-08 0)
(2.33561 1.11686e-07 0)
(4.29329 1.77254e-07 0)
(7.04935 2.22376e-07 0)
(10.309 1.70191e-07 0)
(13.6221 -6.04784e-08 0)
(16.5252 -5.14258e-07 0)
(18.5943 -1.1227e-06 0)
(19.5643 -1.68758e-06 0)
(19.6287 -1.68467e-06 0)
(19.4866 -1.26816e-06 0)
(19.4069 -7.57534e-07 0)
(19.3016 -1.39529e-07 0)
(19.2988 4.87199e-07 0)
(19.1797 5.06035e-07 0)
(19.2786 6.61753e-07 0)
(19.0365 2.14466e-07 0)
(19.3258 6.6791e-07 0)
(18.998 -5.20075e-07 0)
(18.9279 1.46312e-06 0)
(19.6067 -2.01078e-07 0)
(18.9223 -3.21484e-07 0)
(19.0608 -2.09083e-07 0)
(19.1587 -2.73095e-07 0)
(19.1466 -4.28369e-07 0)
(19.1489 -5.96631e-07 0)
(19.1289 -6.9208e-07 0)
(19.1225 -6.20264e-07 0)
(19.1408 -5.14073e-07 0)
(19.1374 -3.67386e-07 0)
(19.2081 -1.98082e-07 0)
(19.1223 2.40115e-07 0)
(18.9348 1.16062e-06 0)
(19.415 1.68978e-06 0)
(19.9602 1.16842e-06 0)
(17.9511 3.45087e-07 0)
(12.7045 -1.31597e-07 0)
(7.26569 -1.90433e-07 0)
(3.68395 -1.33343e-07 0)
(1.71988 -7.42938e-08 0)
(0.74834 -3.6342e-08 0)
(0.305499 -1.61304e-08 0)
(0.117558 -6.60116e-09 0)
(0.0428004 -2.51014e-09 0)
(0.0147915 -8.89825e-10 0)
(0.00486619 -2.93462e-10 0)
(0.00152799 -8.9131e-11 0)
(0.000459015 -2.46882e-11 0)
(0.000132205 -5.94628e-12 0)
(3.65789e-05 -1.24798e-12 0)
(9.7401e-06 -1.67308e-13 0)
(2.5001e-06 -4.89975e-13 0)
(6.19555e-07 2.39012e-14 0)
(1.48434e-07 -3.07301e-14 0)
(3.4426e-08 3.41446e-13 0)
(7.73861e-09 3.6364e-13 0)
(1.68718e-09 3.56811e-13 0)
(3.57023e-10 3.05594e-13 0)
(7.34245e-11 1.63894e-13 0)
(1.41563e-11 3.90956e-13 0)
(2.86815e-12 3.60225e-13 0)
(1.22579e-12 2.20233e-13 0)
(9.1166e-13 2.2194e-13 0)
(6.82892e-14 6.65819e-14 0)
(-1.50236e-13 1.69016e-13 0)
(6.82892e-14 5.63386e-14 0)
(-6.82892e-14 1.1097e-13 0)
(-3.24374e-13 1.62187e-13 0)
(-5.39484e-13 2.91936e-13 0)
(-3.55104e-13 2.62913e-13 0)
(6.83138e-13 3.26972e-13 0)
(1.13856e-12 7.00655e-14 0)
(6.30589e-13 -7.88236e-14 0)
(7.53204e-13 2.04358e-14 0)
(4.26232e-13 4.08715e-14 0)
(-4.61264e-13 -1.48889e-13 0)
(-7.94075e-13 -2.33552e-14 0)
(-1.10937e-13 -4.67103e-14 0)
(7.82398e-13 3.50327e-14 0)
(2.23626e-12 1.98519e-13 0)
(1.18294e-11 7.00655e-13 0)
(6.04665e-11 4.55426e-13 0)
(2.95384e-10 5.48846e-13 0)
(1.39573e-09 4.46667e-13 0)
(6.39131e-09 2.80262e-13 0)
(2.83705e-08 5.19652e-13 0)
(1.22006e-07 6.71461e-14 0)
(5.07702e-07 1.34292e-13 0)
(2.04146e-06 1.48889e-13 0)
(7.92008e-06 5.43007e-13 0)
(2.95967e-05 1.03055e-12 0)
(0.000106339 3.98497e-12 0)
(0.000366592 1.48568e-11 0)
(0.00120986 5.42045e-11 0)
(0.00381262 1.93393e-10 0)
(0.0114388 6.5383e-10 0)
(0.0325637 2.06638e-09 0)
(0.0876133 6.06107e-09 0)
(0.221738 1.63809e-08 0)
(0.524911 4.04183e-08 0)
(1.15411 8.98498e-08 0)
(2.33561 1.75996e-07 0)
(4.29329 2.92564e-07 0)
(7.04935 3.83129e-07 0)
(10.309 3.29239e-07 0)
(13.6221 5.30228e-09 0)
(16.5252 -6.64257e-07 0)
(18.5943 -1.60335e-06 0)
(19.5643 -2.4522e-06 0)
(19.6287 -2.41648e-06 0)
(19.4866 -1.65067e-06 0)
(19.4069 -8.47418e-07 0)
(19.3016 4.202e-07 0)
(19.2988 9.96694e-07 0)
(19.1797 1.7775e-06 0)
(19.2786 9.47755e-07 0)
(19.0365 2.31175e-06 0)
(19.3258 1.87411e-08 0)
(18.998 4.38266e-06 0)
(18.9279 -4.61127e-06 0)
(19.6067 5.88113e-07 0)
(18.9223 -8.5175e-07 0)
(19.0608 1.43558e-06 0)
(19.1587 -1.23015e-06 0)
(19.1466 -6.35078e-07 0)
(19.1489 -9.43565e-07 0)
(19.1289 -1.01507e-06 0)
(19.1225 -1.02414e-06 0)
(19.1408 -9.04136e-07 0)
(19.1374 -7.80602e-07 0)
(19.2081 -5.64394e-07 0)
(19.1223 1.23534e-07 0)
(18.9348 1.65281e-06 0)
(19.415 2.49182e-06 0)
(19.9602 1.63224e-06 0)
(17.9511 3.42801e-07 0)
(12.7045 -3.14302e-07 0)
(7.26569 -3.40222e-07 0)
(3.68395 -2.20314e-07 0)
(1.71988 -1.15492e-07 0)
(0.74834 -5.25437e-08 0)
(0.305499 -2.14644e-08 0)
(0.117558 -8.02004e-09 0)
(0.0428004 -2.77421e-09 0)
(0.0147915 -8.96226e-10 0)
(0.00486619 -2.73572e-10 0)
(0.00152799 -7.96763e-11 0)
(0.000459015 -2.30459e-11 0)
(0.000132205 -6.59503e-12 0)
(3.65789e-05 -1.75674e-12 0)
(9.7401e-06 -4.76317e-13 0)
(2.5001e-06 -3.58518e-13 0)
(6.19556e-07 -1.45114e-13 0)
(1.48435e-07 6.14603e-14 0)
(3.44268e-08 3.90956e-13 0)
(7.73859e-09 4.59245e-13 0)
(1.68709e-09 5.10462e-13 0)
(3.56726e-10 7.93862e-13 0)
(7.36465e-11 4.84853e-13 0)
(1.44329e-11 6.23139e-13 0)
(2.44134e-12 5.5485e-13 0)
(1.00385e-12 3.72176e-13 0)
(5.25827e-13 1.65601e-13 0)
(1.70723e-14 -7.68253e-14 0)
(-1.98039e-13 6.65819e-14 0)
(-6.14603e-14 -5.46313e-14 0)
(1.9121e-13 -3.58518e-14 0)
(1.05848e-13 1.45114e-13 0)
(-3.27788e-13 4.40465e-13 0)
(-3.92663e-13 5.42899e-13 0)
(1.75164e-14 5.43007e-13 0)
(2.80262e-13 9.92594e-14 0)
(2.04358e-13 -1.37212e-13 0)
(3.67844e-13 -3.32811e-13 0)
(-1.75164e-13 -5.89718e-13 0)
(-8.75818e-14 -6.51025e-13 0)
(-2.62745e-13 -4.11635e-13 0)
(-4.67103e-14 -2.30632e-13 0)
(4.96297e-13 -2.48149e-13 0)
(2.59826e-12 2.62745e-14 0)
(1.22147e-11 1.4305e-13 0)
(6.02505e-11 1.22615e-13 0)
(2.95297e-10 1.48889e-13 0)
(1.39552e-09 2.10196e-13 0)
(6.39137e-09 6.42267e-14 0)
(2.83702e-08 8.75818e-15 0)
(1.22006e-07 -5.37169e-13 0)
(5.07702e-07 -2.21874e-13 0)
(2.04146e-06 -8.75818e-15 0)
(7.92008e-06 1.85965e-12 0)
(2.95967e-05 7.26637e-12 0)
(0.000106339 2.59651e-11 0)
(0.000366592 8.59645e-11 0)
(0.00120986 2.6749e-10 0)
(0.00381262 7.90071e-10 0)
(0.0114388 2.20738e-09 0)
(0.0325637 5.79383e-09 0)
(0.0876133 1.41778e-08 0)
(0.221738 3.19741e-08 0)
(0.524911 6.5475e-08 0)
(1.15411 1.18701e-07 0)
(2.33561 1.82194e-07 0)
(4.29329 2.12044e-07 0)
(7.04935 1.15086e-07 0)
(10.309 -1.97785e-07 0)
(13.6221 -6.90148e-07 0)
(16.5252 -1.21527e-06 0)
(18.5943 -1.53782e-06 0)
(19.5643 -1.40029e-06 0)
(19.6287 -4.05897e-07 0)
(19.4866 6.10273e-07 0)
(19.4069 1.22296e-06 0)
(19.3016 1.02034e-06 0)
(19.2988 1.05268e-06 0)
(19.1797 7.87164e-08 0)
(19.2786 8.7609e-07 0)
(19.0365 -1.26947e-06 0)
(19.3258 1.32226e-06 0)
(18.998 -4.48359e-06 0)
(18.9279 6.31521e-06 0)
(19.6067 -7.36114e-07 0)
(18.9223 6.46666e-07 0)
(19.0608 -1.90125e-06 0)
(19.1587 5.81094e-07 0)
(19.1466 -3.3697e-07 0)
(19.1489 -3.60293e-07 0)
(19.1289 -6.06598e-07 0)
(19.1225 -6.10747e-07 0)
(19.1408 -5.77191e-07 0)
(19.1374 -3.87206e-07 0)
(19.2081 -5.33331e-07 0)
(19.1223 -6.82729e-07 0)
(18.9348 -1.34002e-07 0)
(19.415 6.1981e-07 0)
(19.9602 1.06837e-06 0)
(17.9511 9.72508e-07 0)
(12.7045 3.35093e-07 0)
(7.26569 -5.95068e-08 0)
(3.68395 -1.48382e-07 0)
(1.71988 -1.18552e-07 0)
(0.74834 -7.06915e-08 0)
(0.305499 -3.58026e-08 0)
(0.117558 -1.61822e-08 0)
(0.0428004 -6.68564e-09 0)
(0.0147915 -2.5645e-09 0)
(0.00486619 -9.22849e-10 0)
(0.00152799 -3.14125e-10 0)
(0.000459015 -1.02176e-10 0)
(0.000132205 -3.16401e-11 0)
(3.65789e-05 -9.49219e-12 0)
(9.7401e-06 -2.82376e-12 0)
(2.5001e-06 -8.31421e-13 0)
(6.19556e-07 -3.46568e-13 0)
(1.48436e-07 5.80458e-14 0)
(3.44268e-08 -1.48529e-13 0)
(7.73871e-09 -8.70687e-14 0)
(1.68792e-09 -8.02398e-14 0)
(3.57064e-10 1.87795e-13 0)
(7.31138e-11 2.88522e-13 0)
(1.41393e-11 -5.12169e-15 0)
(2.37305e-12 8.02398e-14 0)
(5.668e-13 7.34109e-14 0)
(-4.09735e-14 -1.94624e-13 0)
(-8.87759e-14 -1.62187e-13 0)
(-9.56048e-14 -6.82892e-14 0)
(-1.50236e-13 -5.12169e-14 0)
(2.35598e-13 -1.62187e-13 0)
(7.40938e-13 -2.47548e-13 0)
(2.62913e-13 -3.07301e-13 0)
(-2.32183e-13 -8.70687e-14 0)
(-1.10937e-13 -3.97038e-13 0)
(-1.81002e-13 -2.3939e-13 0)
(-3.21133e-13 -4.05796e-13 0)
(-1.10937e-13 -7.06493e-13 0)
(-1.10937e-13 -8.29108e-13 0)
(-1.05098e-13 -6.04315e-13 0)
(-3.50327e-14 -6.21831e-13 0)
(1.63486e-13 -3.97038e-13 0)
(1.22031e-12 -3.41569e-13 0)
(3.1004e-12 2.04358e-14 0)
(1.21564e-11 -2.71504e-13 0)
(6.04315e-11 -5.25491e-14 0)
(2.95595e-10 -1.78083e-13 0)
(1.3957e-09 -3.21133e-14 0)
(6.39075e-09 -1.69325e-13 0)
(2.83695e-08 -5.19652e-13 0)
(1.22006e-07 -5.37169e-13 0)
(5.07703e-07 -3.50327e-13 0)
(2.04147e-06 2.83181e-13 0)
(7.9201e-06 2.93983e-12 0)
(2.95967e-05 1.12543e-11 0)
(0.000106339 4.02847e-11 0)
(0.000366593 1.33778e-10 0)
(0.00120986 4.1649e-10 0)
(0.00381262 1.21486e-09 0)
(0.0114388 3.31291e-09 0)
(0.0325638 8.40155e-09 0)
(0.0876134 1.96484e-08 0)
(0.221738 4.17781e-08 0)
(0.524912 7.90609e-08 0)
(1.15411 1.27846e-07 0)
(2.33561 1.61691e-07 0)
(4.29329 1.12325e-07 0)
(7.04935 -1.23669e-07 0)
(10.309 -5.94195e-07 0)
(13.6221 -1.17625e-06 0)
(16.5252 -1.5869e-06 0)
(18.5943 -1.44116e-06 0)
(19.5643 -5.35393e-07 0)
(19.6287 1.17209e-06 0)
(19.4866 2.30704e-06 0)
(19.4069 2.63679e-06 0)
(19.3016 1.33513e-06 0)
(19.2988 8.15695e-07 0)
(19.1797 -1.21017e-06 0)
(19.2786 4.94593e-07 0)
(19.0365 -3.44926e-06 0)
(19.3258 1.7708e-06 0)
(18.998 -9.09968e-06 0)
(18.9279 1.18289e-05 0)
(19.6067 -1.41484e-06 0)
(18.9223 1.466e-06 0)
(19.0608 -3.63228e-06 0)
(19.1587 1.58454e-06 0)
(19.1466 -3.49276e-08 0)
(19.1489 8.45326e-08 0)
(19.1289 -2.96524e-07 0)
(19.1225 -2.03232e-07 0)
(19.1408 -1.44156e-07 0)
(19.1374 1.01359e-07 0)
(19.2081 -3.29834e-07 0)
(19.1223 -1.15179e-06 0)
(18.9348 -1.38861e-06 0)
(19.415 -7.15073e-07 0)
(19.9602 6.85725e-07 0)
(17.9511 1.42815e-06 0)
(12.7045 8.0705e-07 0)
(7.26569 1.68075e-07 0)
(3.68395 -7.29157e-08 0)
(1.71988 -1.07331e-07 0)
(0.74834 -7.79005e-08 0)
(0.305499 -4.40135e-08 0)
(0.117558 -2.14111e-08 0)
(0.0428004 -9.3285e-09 0)
(0.0147915 -3.72058e-09 0)
(0.0048662 -1.37457e-09 0)
(0.001528 -4.74719e-10 0)
(0.000459016 -1.53932e-10 0)
(0.000132205 -4.71981e-11 0)
(3.6579e-05 -1.41051e-11 0)
(9.74011e-06 -3.92321e-12 0)
(2.5001e-06 -1.21896e-12 0)
(6.19557e-07 -3.48275e-13 0)
(1.48436e-07 -4.08028e-13 0)
(3.44265e-08 -5.32656e-13 0)
(7.73873e-09 -4.79731e-13 0)
(1.68768e-09 -2.68035e-13 0)
(3.57245e-10 -4.11442e-13 0)
(7.33084e-11 -1.00727e-13 0)
(1.41529e-11 -4.35343e-13 0)
(2.5506e-12 -3.03887e-13 0)
(4.78024e-13 -6.67527e-13 0)
(1.09263e-13 -5.65093e-13 0)
(2.97058e-13 -3.22666e-13 0)
(6.82892e-15 -1.29749e-13 0)
(-2.73157e-13 4.78024e-14 0)
(-1.39993e-13 1.26335e-13 0)
(-3.17545e-13 -1.36578e-14 0)
(-5.12169e-14 -3.77298e-13 0)
(1.46822e-13 -3.77298e-13 0)
(3.44489e-13 -2.86101e-13 0)
(3.50327e-13 -1.34292e-13 0)
(-4.3207e-13 -6.42267e-14 0)
(-6.01395e-13 9.34206e-14 0)
(-5.83879e-15 1.08018e-13 0)
(-1.75164e-14 1.60567e-13 0)
(4.20393e-13 1.9268e-13 0)
(5.37169e-13 2.48149e-13 0)
(1.16776e-12 3.94118e-13 0)
(2.89604e-12 3.50327e-14 0)
(1.19754e-11 -1.69325e-13 0)
(6.04373e-11 -2.74423e-13 0)
(2.95343e-10 -2.68584e-13 0)
(1.39519e-09 -5.16733e-13 2.13188e-32)
(6.39059e-09 -6.10153e-13 0)
(2.83695e-08 -5.75121e-13 0)
(1.22006e-07 -2.45229e-13 0)
(5.07704e-07 -2.74423e-13 0)
(2.04147e-06 3.50327e-14 0)
(7.9201e-06 1.02763e-12 0)
(2.95968e-05 3.96746e-12 0)
(0.000106339 1.33008e-11 0)
(0.000366593 4.32829e-11 0)
(0.00120986 1.31869e-10 0)
(0.00381262 3.80301e-10 0)
(0.0114388 1.03236e-09 0)
(0.0325638 2.61513e-09 0)
(0.0876134 6.10883e-09 0)
(0.221739 1.29397e-08 0)
(0.524912 2.42025e-08 0)
(1.15411 3.79203e-08 0)
(2.33561 4.34215e-08 2.12521e-32)
(4.29329 1.48235e-08 0)
(7.04935 -7.94047e-08 0)
(10.309 -2.39653e-07 0)
(13.6221 -4.23632e-07 0)
(16.5252 -5.25647e-07 -2.09144e-32)
(18.5943 -3.87904e-07 0)
(19.5643 9.75868e-08 0)
(19.6287 8.46056e-07 2.08369e-32)
(19.4866 1.31622e-06 0)
(19.4069 1.32662e-06 0)
(19.3016 8.77019e-07 0)
(19.2988 2.74391e-07 -2.08569e-32)
(19.1797 -1.65465e-08 0)
(19.2786 -9.5045e-08 0)
(19.0365 -8.33454e-08 0)
(19.3258 -2.00338e-07 0)
(18.998 2.84035e-07 0)
(18.9279 -5.58337e-07 0)
(19.6067 1.06733e-07 0)
(18.9223 2.85951e-07 0)
(19.0608 -9.34522e-08 0)
(19.1587 4.32996e-08 0)
(19.1466 9.00996e-08 0)
(19.1489 9.34787e-08 -1.09042e-32)
(19.1289 -1.69226e-08 1.09102e-32)
(19.1225 4.19205e-10 0)
(19.1408 4.0151e-08 0)
(19.1374 7.22472e-08 -1.08997e-32)
(19.2081 -1.64877e-07 0)
(19.1223 -5.85806e-07 0)
(18.9348 -7.63393e-07 0)
(19.415 -5.33802e-07 0)
(19.9602 8.39105e-08 0)
(17.9511 4.59186e-07 0)
(12.7045 2.94095e-07 0)
(7.26569 8.02396e-08 0)
(3.68395 -1.0646e-08 0)
(1.71988 -2.98101e-08 0)
(0.74834 -2.34538e-08 0)
(0.305499 -1.36156e-08 1.06639e-32)
(0.117558 -6.69769e-09 0)
(0.0428004 -2.93462e-09 0)
(0.0147915 -1.17615e-09 0)
(0.0048662 -4.38026e-10 0)
(0.001528 -1.53642e-10 0)
(0.000459016 -5.13586e-11 0)
(0.000132205 -1.64679e-11 0)
(3.6579e-05 -5.52972e-12 0)
(9.74012e-06 -1.64406e-12 0)
(2.50011e-06 -8.14348e-13 0)
(6.19558e-07 -5.01925e-13 0)
(1.48435e-07 -4.16564e-13 0)
(3.44265e-08 -3.87541e-13 0)
(7.73935e-09 -4.18271e-13 0)
(1.68775e-09 -4.28515e-13 0)
(3.57595e-10 -5.48021e-13 0)
(7.32914e-11 -3.24374e-14 0)
(1.33922e-11 -2.93643e-13 0)
(2.05274e-12 -2.78278e-13 0)
(-2.17118e-13 -3.72176e-13 -1.06594e-32)
(8.74753e-13 -4.28515e-13 0)
(8.49574e-13 -3.87541e-13 -1.06594e-32)
(4.28137e-13 -1.98039e-13 0)
(5.23064e-13 -1.22921e-13 0)
(-2.36914e-13 9.90193e-14 0)
(6.07438e-14 3.56811e-13 0)
(-2.6423e-13 6.53869e-13 0)
(-6.79477e-13 6.7777e-13 0)
(1.28453e-13 2.59826e-13 0)
(2.21874e-13 1.89761e-13 0)
(1.34292e-13 1.28453e-13 0)
(1.57647e-13 2.94859e-13 0)
(6.42267e-14 2.45229e-13 0)
(1.16776e-14 5.3133e-13 0)
(1.40131e-13 5.69282e-13 0)
(5.02136e-13 5.72201e-13 0)
(8.29108e-13 3.00698e-13 0)
(2.19538e-12 -1.10937e-13 0)
(1.14849e-11 -1.57647e-13 0)
(6.02505e-11 -3.73682e-13 0)
(2.95028e-10 -5.80959e-13 0)
(1.39537e-09 -5.07975e-13 -2.13188e-32)
(6.39051e-09 -5.2841e-13 0)
(2.83703e-08 -3.03617e-13 0)
(1.22006e-07 -1.9268e-13 0)
(5.07703e-07 -3.09456e-13 0)
(2.04147e-06 -5.89718e-13 0)
(7.9201e-06 -1.38087e-12 0)
(2.95968e-05 -4.16598e-12 0)
(0.000106339 -1.36161e-11 0)
(0.000366593 -4.38581e-11 0)
(0.00120986 -1.33446e-10 0)
(0.00381262 -3.84386e-10 0)
(0.0114388 -1.04311e-09 0)
(0.0325638 -2.64218e-09 0)
(0.0876134 -6.17477e-09 0)
(0.221739 -1.30921e-08 0)
(0.524912 -2.45322e-08 0)
(1.15411 -3.85904e-08 0)
(2.33561 -4.46925e-08 -2.12521e-32)
(4.29329 -1.70673e-08 0)
(7.04935 7.57792e-08 0)
(10.309 2.34227e-07 0)
(13.6221 4.16419e-07 0)
(16.5252 5.17706e-07 2.09144e-32)
(18.5943 3.81435e-07 0)
(19.5643 -9.95831e-08 0)
(19.6287 -8.40279e-07 -2.08369e-32)
(19.4866 -1.30417e-06 0)
(19.4069 -1.31222e-06 0)
(19.3016 -8.62066e-07 0)
(19.2988 -2.62226e-07 2.08569e-32)
(19.1797 2.72212e-08 0)
(19.2786 9.97694e-08 0)
(19.0365 9.19086e-08 0)
(19.3258 1.92838e-07 0)
(18.998 -2.54252e-07 0)
(18.9279 4.95506e-07 0)
(19.6067 -1.08456e-07 0)
(18.9223 -2.94493e-07 0)
(19.0608 1.34457e-07 0)
(19.1587 -6.3329e-08 0)
(19.1466 -8.15796e-08 0)
(19.1489 -9.43273e-08 1.09042e-32)
(19.1289 1.90016e-08 -1.09102e-32)
(19.1225 -3.31132e-09 0)
(19.1408 -4.46566e-08 0)
(19.1374 -8.2688e-08 1.08997e-32)
(19.2081 1.56718e-07 0)
(19.1223 5.82598e-07 0)
(18.9348 7.57836e-07 0)
(19.415 5.27922e-07 0)
(19.9602 -7.95161e-08 0)
(17.9511 -4.46875e-07 0)
(12.7045 -2.86116e-07 0)
(7.26569 -7.88095e-08 0)
(3.68395 9.02565e-09 0)
(1.71988 2.76981e-08 0)
(0.74834 2.1868e-08 0)
(0.305499 1.26724e-08 -1.06639e-32)
(0.117558 6.21321e-09 0)
(0.0428004 2.71165e-09 0)
(0.0147915 1.08194e-09 0)
(0.0048662 4.01056e-10 0)
(0.001528 1.39841e-10 0)
(0.000459016 4.59296e-11 0)
(0.000132205 1.44688e-11 0)
(3.6579e-05 4.3927e-12 0)
(9.74012e-06 1.13872e-12 0)
(2.50011e-06 2.04868e-14 0)
(6.19558e-07 8.36542e-14 0)
(1.48436e-07 -1.05848e-13 0)
(3.44271e-08 1.17799e-13 0)
(7.7387e-09 -3.41446e-14 0)
(1.68802e-09 -2.13404e-13 0)
(3.58037e-10 -1.62187e-13 0)
(7.33392e-11 -1.39993e-13 0)
(1.41563e-11 -6.82892e-15 0)
(2.39012e-12 5.12169e-14 0)
(5.46313e-14 4.251e-13 1.06594e-32)
(1.19506e-13 4.23393e-13 0)
(7.34109e-13 1.17799e-13 1.06594e-32)
(1.00385e-12 1.53651e-14 0)
(4.09735e-13 -1.22921e-13 0)
(8.29713e-13 -1.89502e-13 0)
(7.75082e-13 -1.92917e-13 0)
(9.56048e-14 -2.40719e-13 0)
(6.24846e-13 -2.23647e-13 0)
(2.21874e-13 1.16776e-14 0)
(9.92594e-14 1.37212e-13 0)
(-3.91199e-13 1.86841e-13 0)
(-2.16035e-13 2.51068e-13 0)
(3.56166e-13 1.4305e-13 0)
(6.53944e-13 2.48149e-13 0)
(4.14554e-13 3.12375e-13 0)
(9.92594e-14 1.72244e-13 0)
(-3.50327e-14 1.16776e-14 0)
(1.90928e-12 -2.65665e-13 0)
(1.16075e-11 -1.83922e-13 0)
(5.97542e-11 -3.76602e-13 0)
(2.94993e-10 -2.10196e-13 0)
(1.39543e-09 -1.66405e-13 0)
(6.39059e-09 -3.79521e-14 0)
(2.83701e-08 -1.4597e-14 0)
(1.22006e-07 -2.91939e-15 0)
(5.07703e-07 -1.05098e-13 0)
(2.04147e-06 -7.47365e-13 0)
(7.9201e-06 -3.05661e-12 0)
(2.95967e-05 -1.16542e-11 0)
(0.000106339 -4.08394e-11 0)
(0.000366593 -1.35051e-10 0)
(0.00120986 -4.19973e-10 0)
(0.00381262 -1.22318e-09 0)
(0.0114388 -3.33474e-09 0)
(0.0325638 -8.45619e-09 0)
(0.0876134 -1.97796e-08 0)
(0.221738 -4.20688e-08 0)
(0.524912 -7.96522e-08 0)
(1.15411 -1.2893e-07 0)
(2.33561 -1.63433e-07 0)
(4.29329 -1.14663e-07 0)
(7.04935 1.21242e-07 0)
(10.309 5.92656e-07 0)
(13.6221 1.17657e-06 0)
(16.5252 1.58921e-06 0)
(18.5943 1.44502e-06 0)
(19.5643 5.39812e-07 0)
(19.6287 -1.16815e-06 0)
(19.4866 -2.30394e-06 0)
(19.4069 -2.63401e-06 0)
(19.3016 -1.33335e-06 0)
(19.2988 -8.13771e-07 0)
(19.1797 1.21033e-06 0)
(19.2786 -4.93816e-07 0)
(19.0365 3.44807e-06 0)
(19.3258 -1.77086e-06 0)
(18.998 9.09888e-06 0)
(18.9279 -1.1831e-05 0)
(19.6067 1.41727e-06 0)
(18.9223 -1.46437e-06 0)
(19.0608 3.63834e-06 0)
(19.1587 -1.58324e-06 0)
(19.1466 3.95215e-08 0)
(19.1489 -8.16347e-08 0)
(19.1289 2.99476e-07 0)
(19.1225 2.04469e-07 0)
(19.1408 1.43951e-07 0)
(19.1374 -1.02607e-07 0)
(19.2081 3.28809e-07 0)
(19.1223 1.14986e-06 0)
(18.9348 1.38633e-06 0)
(19.415 7.1547e-07 0)
(19.9602 -6.82053e-07 0)
(17.9511 -1.42496e-06 0)
(12.7045 -8.0842e-07 0)
(7.26569 -1.71645e-07 0)
(3.68395 6.9792e-08 0)
(1.71988 1.05323e-07 0)
(0.74834 7.67963e-08 0)
(0.305499 4.34688e-08 0)
(0.117558 2.11666e-08 0)
(0.0428004 9.2273e-09 0)
(0.0147915 3.68187e-09 0)
(0.0048662 1.36088e-09 0)
(0.001528 4.69773e-10 0)
(0.000459016 1.52432e-10 0)
(0.000132205 4.64298e-11 0)
(3.6579e-05 1.36425e-11 0)
(9.74012e-06 3.79176e-12 0)
(2.5001e-06 1.1797e-12 0)
(6.19557e-07 5.0534e-13 0)
(1.48435e-07 5.46313e-14 0)
(3.44268e-08 1.17799e-13 0)
(7.73844e-09 -8.53615e-15 0)
(1.68781e-09 -3.58518e-14 0)
(3.57627e-10 2.5267e-13 0)
(7.3305e-11 -5.42899e-13 0)
(1.41359e-11 -3.10716e-13 0)
(2.73157e-12 -1.86088e-13 0)
(7.23865e-13 1.55358e-13 0)
(-3.41446e-14 1.16092e-13 0)
(-3.41446e-15 6.14603e-14 0)
(2.39012e-13 -1.57065e-13 0)
(-1.09263e-13 -6.65819e-14 0)
(-5.12169e-14 -3.07301e-13 0)
(-3.82419e-13 -5.20705e-13 0)
(-4.71195e-13 -7.34109e-13 0)
(-1.94624e-13 -7.11915e-13 0)
(3.8536e-13 2.3939e-13 0)
(4.72942e-13 -7.00655e-14 0)
(3.56166e-13 -6.13073e-14 0)
(1.51809e-13 7.00655e-14 0)
(1.4597e-13 2.86101e-13 0)
(3.32811e-13 1.57647e-13 0)
(7.59043e-14 2.91939e-15 0)
(-8.1743e-14 -1.19695e-13 0)
(-1.05098e-13 -2.48149e-13 0)
(1.61151e-12 -5.83879e-14 0)
(1.12864e-11 -4.11635e-13 0)
(6.01162e-11 -4.23312e-13 0)
(2.95314e-10 -2.36471e-13 0)
(1.39558e-09 -3.88279e-13 0)
(6.39126e-09 -1.13856e-13 0)
(2.83703e-08 9.92594e-14 0)
(1.22006e-07 1.75164e-14 0)
(5.07702e-07 1.54388e-22 0)
(2.04146e-06 -4.20393e-13 0)
(7.92008e-06 -2.30632e-12 0)
(2.95967e-05 -8.06337e-12 0)
(0.000106339 -2.77167e-11 0)
(0.000366592 -8.99378e-11 0)
(0.00120986 -2.78846e-10 0)
(0.00381262 -8.21175e-10 0)
(0.0114388 -2.28952e-09 0)
(0.0325637 -5.99728e-09 0)
(0.0876133 -1.46444e-08 0)
(0.221738 -3.29536e-08 0)
(0.524911 -6.73253e-08 0)
(1.15411 -1.21768e-07 0)
(2.33561 -1.86459e-07 0)
(4.29329 -2.16601e-07 0)
(7.04935 -1.17961e-07 0)
(10.309 1.98969e-07 0)
(13.6221 6.96934e-07 0)
(16.5252 1.22741e-06 0)
(18.5943 1.55231e-06 0)
(19.5643 1.41202e-06 0)
(19.6287 4.0903e-07 0)
(19.4866 -6.15055e-07 0)
(19.4069 -1.23171e-06 0)
(19.3016 -1.03157e-06 0)
(19.2988 -1.06197e-06 0)
(19.1797 -8.87232e-08 0)
(19.2786 -8.806e-07 0)
(19.0365 1.25958e-06 0)
(19.3258 -1.3165e-06 0)
(18.998 4.45273e-06 0)
(18.9279 -6.25629e-06 0)
(19.6067 7.37411e-07 0)
(18.9223 -6.37928e-07 0)
(19.0608 1.86065e-06 0)
(19.1587 -5.62002e-07 0)
(19.1466 3.28145e-07 0)
(19.1489 3.60489e-07 0)
(19.1289 6.0489e-07 0)
(19.1225 6.1368e-07 0)
(19.1408 5.81174e-07 0)
(19.1374 3.95841e-07 0)
(19.2081 5.42076e-07 0)
(19.1223 6.88812e-07 0)
(18.9348 1.38874e-07 0)
(19.415 -6.13825e-07 0)
(19.9602 -1.06474e-06 0)
(17.9511 -9.75374e-07 0)
(12.7045 -3.43828e-07 0)
(7.26569 5.09004e-08 0)
(3.68395 1.42626e-07 0)
(1.71988 1.15367e-07 0)
(0.74834 6.9135e-08 0)
(0.305499 3.51115e-08 0)
(0.117558 1.58978e-08 0)
(0.0428004 6.57608e-09 0)
(0.0147915 2.52452e-09 0)
(0.00486619 9.08707e-10 0)
(0.00152799 3.09488e-10 0)
(0.000459015 1.00665e-10 0)
(0.000132205 3.08923e-11 0)
(3.65789e-05 9.17636e-12 0)
(9.7401e-06 2.21598e-12 0)
(2.5001e-06 6.79477e-13 0)
(6.19556e-07 -2.08282e-13 0)
(1.48435e-07 -1.9121e-13 0)
(3.44265e-08 -3.90956e-13 0)
(7.73839e-09 -1.84381e-13 0)
(1.68796e-09 -1.70723e-13 0)
(3.5707e-10 -1.70723e-13 0)
(7.26733e-11 -5.51435e-13 0)
(1.43578e-11 -6.65819e-13 0)
(3.28471e-12 -6.93135e-13 0)
(7.13622e-13 -6.67527e-13 0)
(-1.70723e-14 -5.15583e-13 0)
(1.16092e-13 -1.92917e-13 0)
(2.834e-13 -2.49255e-13 0)
(7.17036e-14 -1.14384e-13 0)
(-1.63894e-13 4.4388e-14 0)
(2.04868e-14 1.80966e-13 0)
(2.25354e-13 1.50236e-13 0)
(2.25354e-13 5.46313e-14 0)
(-3.67844e-13 4.37909e-14 0)
(-4.78781e-13 -1.16776e-14 0)
(-1.05098e-13 -2.21874e-13 0)
(4.20393e-13 -3.59086e-13 0)
(5.60524e-13 2.91939e-14 0)
(9.92594e-14 -1.4305e-13 0)
(-2.33552e-14 -1.72244e-13 0)
(-2.97778e-13 -9.05012e-14 0)
(-5.83879e-14 -1.72244e-13 0)
(1.54144e-12 -8.75818e-14 0)
(1.07667e-11 -3.00698e-13 0)
(6.01045e-11 -2.65665e-13 0)
(2.95186e-10 -4.11635e-13 0)
(1.39561e-09 -3.76602e-13 0)
(6.39161e-09 -3.00698e-13 0)
(2.83702e-08 -4.58345e-13 0)
(1.22006e-07 -3.3865e-13 0)
(5.07702e-07 -4.26232e-13 0)
(2.04146e-06 -2.24793e-13 0)
(7.92008e-06 -8.93335e-13 0)
(2.95967e-05 -1.85673e-12 0)
(0.000106339 -5.45343e-12 0)
(0.000366592 -1.84039e-11 0)
(0.00120986 -6.37888e-11 0)
(0.00381262 -2.19498e-10 0)
(0.0114388 -7.20746e-10 0)
(0.0325637 -2.22605e-09 0)
(0.0876133 -6.4109e-09 0)
(0.221738 -1.70768e-08 0)
(0.524911 -4.16434e-08 0)
(1.15411 -9.16838e-08 0)
(2.33561 -1.78138e-07 0)
(4.29329 -2.94054e-07 0)
(7.04935 -3.82494e-07 0)
(10.309 -3.254e-07 0)
(13.6221 2.07666e-09 0)
(16.5252 6.74522e-07 0)
(18.5943 1.6146e-06 0)
(19.5643 2.46111e-06 0)
(19.6287 2.41943e-06 0)
(19.4866 1.64713e-06 0)
(19.4069 8.41127e-07 0)
(19.3016 -4.31361e-07 0)
(19.2988 -1.0041e-06 0)
(19.1797 -1.79e-06 0)
(19.2786 -9.49982e-07 0)
(19.0365 -2.32479e-06 0)
(19.3258 -1.56735e-08 0)
(18.998 -4.39555e-06 0)
(18.9279 4.62176e-06 0)
(19.6067 -5.87226e-07 0)
(18.9223 8.56678e-07 0)
(19.0608 -1.43044e-06 0)
(19.1587 1.23832e-06 0)
(19.1466 6.41942e-07 0)
(19.1489 9.5077e-07 0)
(19.1289 1.02145e-06 0)
(19.1225 1.03139e-06 0)
(19.1408 9.13129e-07 0)
(19.1374 7.90242e-07 0)
(19.2081 5.73376e-07 0)
(19.1223 -1.14804e-07 0)
(18.9348 -1.64763e-06 0)
(19.415 -2.49503e-06 0)
(19.9602 -1.64363e-06 0)
(17.9511 -3.55721e-07 0)
(12.7045 3.05777e-07 0)
(7.26569 3.35242e-07 0)
(3.68395 2.17621e-07 0)
(1.71988 1.14111e-07 0)
(0.74834 5.18776e-08 0)
(0.305499 2.11626e-08 0)
(0.117558 7.88984e-09 0)
(0.0428004 2.72096e-09 0)
(0.0147915 8.75383e-10 0)
(0.00486619 2.65623e-10 0)
(0.00152799 7.69755e-11 0)
(0.000459015 2.21991e-11 0)
(0.000132205 6.38333e-12 0)
(3.65789e-05 2.00258e-12 0)
(9.7401e-06 5.29241e-14 0)
(2.5001e-06 -2.74864e-13 0)
(6.19556e-07 -5.61678e-13 0)
(1.48435e-07 -4.96804e-13 0)
(3.44267e-08 -5.51435e-13 0)
(7.73885e-09 -3.4486e-13 0)
(1.68772e-09 -2.50963e-13 0)
(3.569e-10 -3.72176e-13 0)
(7.24855e-11 -4.59245e-13 0)
(1.3849e-11 -5.32656e-13 0)
(2.72474e-12 -6.89721e-13 0)
(1.01751e-12 -7.06793e-13 0)
(1.00385e-12 -5.53142e-13 0)
(3.99492e-13 -3.68762e-13 0)
(3.51689e-13 -3.05594e-13 0)
(5.90701e-13 -2.56084e-13 0)
(5.668e-13 -7.68253e-14 0)
(-9.21904e-14 -1.31457e-13 0)
(-7.64839e-13 -2.66328e-13 0)
(-3.58518e-13 -5.77044e-13 0)
(1.9268e-13 -3.91199e-13 0)
(-1.16776e-14 -1.66405e-13 0)
(-1.9268e-13 -1.72244e-13 0)
(5.13813e-13 -2.27713e-13 0)
(4.61264e-13 -5.54685e-14 0)
(4.08715e-14 -3.03617e-13 0)
(8.75818e-14 -1.31373e-13 0)
(-1.81002e-13 -1.81002e-13 0)
(1.81002e-13 -9.34206e-14 0)
(1.45386e-12 -9.92594e-14 0)
(1.08543e-11 -1.28453e-13 0)
(5.99118e-11 -1.31373e-13 0)
(2.95122e-10 -9.92594e-14 0)
(1.39573e-09 -1.54728e-13 0)
(6.39106e-09 -8.1743e-14 0)
(2.837e-08 -4.3499e-13 0)
(1.22006e-07 -2.07277e-13 0)
(5.07702e-07 -3.06536e-13 0)
(2.04146e-06 -2.91939e-15 0)
(7.92008e-06 -5.40088e-13 0)
(2.95967e-05 -1.1444e-12 0)
(0.000106339 -4.90166e-12 0)
(0.000366592 -1.96796e-11 0)
(0.00120986 -7.17938e-11 0)
(0.00381261 -2.37884e-10 0)
(0.0114388 -7.24706e-10 0)
(0.0325637 -2.04811e-09 0)
(0.0876133 -5.38503e-09 0)
(0.221738 -1.31339e-08 0)
(0.524911 -2.95187e-08 0)
(1.15411 -6.04365e-08 0)
(2.33561 -1.10804e-07 0)
(4.29329 -1.75817e-07 0)
(7.04935 -2.20472e-07 0)
(10.309 -1.68232e-07 0)
(13.6221 6.1982e-08 0)
(16.5252 5.14604e-07 0)
(18.5943 1.12196e-06 0)
(19.5643 1.6858e-06 0)
(19.6287 1.68241e-06 0)
(19.4866 1.26438e-06 0)
(19.4069 7.53733e-07 0)
(19.3016 1.31432e-07 0)
(19.2988 -4.91781e-07 0)
(19.1797 -5.17287e-07 0)
(19.2786 -6.6252e-07 0)
(19.0365 -2.29071e-07 0)
(19.3258 -6.62589e-07 0)
(18.998 5.0211e-07 0)
(18.9279 -1.44581e-06 0)
(19.6067 1.97322e-07 0)
(18.9223 3.21571e-07 0)
(19.0608 2.05783e-07 0)
(19.1587 2.77191e-07 0)
(19.1466 4.297e-07 0)
(19.1489 5.98573e-07 0)
(19.1289 6.93027e-07 0)
(19.1225 6.22262e-07 0)
(19.1408 5.17742e-07 0)
(19.1374 3.71379e-07 0)
(19.2081 2.01329e-07 0)
(19.1223 -2.36515e-07 0)
(18.9348 -1.15898e-06 0)
(19.415 -1.69461e-06 0)
(19.9602 -1.1787e-06 0)
(17.9511 -3.52601e-07 0)
(12.7045 1.32144e-07 0)
(7.26569 1.93954e-07 0)
(3.68395 1.36619e-07 0)
(1.71988 7.65376e-08 0)
(0.74834 3.76276e-08 0)
(0.305499 1.67772e-08 0)
(0.117558 6.89561e-09 0)
(0.0428004 2.63307e-09 0)
(0.0147915 9.37382e-10 0)
(0.00486619 3.10563e-10 0)
(0.00152799 9.49833e-11 0)
(0.000459015 2.68803e-11 0)
(0.000132205 7.08671e-12 0)
(3.65789e-05 1.77381e-12 0)
(9.74009e-06 3.38031e-13 0)
(2.5001e-06 -1.17799e-13 0)
(6.19556e-07 -2.25354e-13 0)
(1.48435e-07 -2.61206e-13 0)
(3.44268e-08 -2.49255e-13 0)
(7.7391e-09 -2.09989e-13 0)
(1.68781e-09 -1.99746e-13 0)
(3.56695e-10 -1.79259e-13 0)
(7.22192e-11 -2.62913e-13 0)
(1.40061e-11 -2.08282e-13 0)
(2.98424e-12 -2.66328e-13 0)
(9.04832e-13 -1.04141e-13 0)
(5.83872e-13 -2.81693e-13 0)
(7.10207e-13 -2.95351e-13 0)
(5.3607e-13 -1.43407e-13 0)
(4.19978e-13 -2.04868e-13 0)
(1.36578e-13 -2.45841e-13 0)
(-3.31202e-13 -4.251e-13 0)
(-7.47766e-13 -3.22666e-13 0)
(-5.12169e-13 -4.23393e-13 0)
)
;

boundaryField
{
    sides1
    {
        type            zeroGradient;
    }
    sides2
    {
        type            slip;
    }
    empty
    {
        type            empty;
    }
}


// ************************************************************************* //
