/*--------------------------------*- C++ -*----------------------------------*\
| =========                 |                                                 |
| \\      /  F ield         | OpenFOAM: The Open Source CFD Toolbox           |
|  \\    /   O peration     | Version:  3.0.1                                 |
|   \\  /    A nd           | Web:      www.OpenFOAM.org                      |
|    \\/     M anipulation  |                                                 |
\*---------------------------------------------------------------------------*/
FoamFile
{
    version     2.0;
    format      ascii;
    class       volScalarField;
    location    "0.00015";
    object      p;
}
// * * * * * * * * * * * * * * * * * * * * * * * * * * * * * * * * * * * * * //

dimensions      [1 -1 -2 0 0 0 0];

internalField   nonuniform List<scalar> 
1000
(
68969.9
68969.9
68969.9
68969.9
68969.8
68969.8
68969.7
68969.6
68969.4
68969.1
68968.7
68968.2
68967.4
68966.3
68964.8
68962.6
68959.6
68955.5
68949.8
68942
68931.3
68916.8
68897.4
68871.5
68837.1
68791.8
68732.9
68657
68559.8
68437
68282.7
68092.4
67860.9
67582.6
67256.5
66880.8
66459.8
66000.3
65513.3
65013
64533.3
64104.9
63788.3
63617.1
63531.2
63543.8
63576.6
63595.1
63663.2
63554.8
63540.6
63628.8
63726.2
63823.7
63906
63958.7
63956
63881.4
63711.5
63445.7
63096.4
62677.4
62222.9
61756.5
61308.3
60896.9
60532.5
60221.2
59958.3
59740
59570
59431.3
59320.2
59236.3
59169.9
59119
59080.1
59050.6
59028.5
59012.3
59000.4
58991.7
58985.5
58980.9
58977.7
58975.5
58973.8
58972.7
58971.9
58971.3
58970.9
58970.6
58970.4
58970.3
58970.2
58970.1
58970.1
58970.1
58970.1
58970
68969.9
68969.9
68969.9
68969.9
68969.8
68969.8
68969.7
68969.6
68969.4
68969.1
68968.7
68968.2
68967.4
68966.3
68964.7
68962.6
68959.6
68955.4
68949.8
68941.8
68931
68916.6
68897.3
68871.4
68836.8
68791.2
68732.2
68655.8
68558.9
68436.3
68283.1
68093.7
67863.3
67585
67262.2
66888.8
66467.7
66016.5
65519.7
65019.8
64526.6
64075.8
63780.3
63607.1
63522.8
63553.7
63620.6
63683.2
63787.6
63811.6
63812.2
63844.5
63876.6
63909.9
63948.5
63973.4
63966.4
63892.9
63724.2
63459.8
63111.8
62684.9
62223.4
61754.1
61299.8
60890.2
60532.1
60215.6
59964.7
59744.8
59572
59431.8
59319.8
59236.2
59171.5
59119.8
59080.6
59051.2
59028.6
59012.3
59000.2
58991.5
58985.2
58980.8
58977.7
58975.4
58973.8
58972.7
58971.8
58971.3
58970.9
58970.6
58970.4
58970.3
58970.2
58970.1
58970.1
58970.1
58970.1
58970
68969.9
68969.9
68969.9
68969.9
68969.8
68969.8
68969.7
68969.6
68969.4
68969.1
68968.6
68967.9
68967.2
68966.1
68964.4
68962.2
68958.9
68954.5
68949
68940.1
68927.8
68913.8
68895.4
68868.5
68831.9
68784.8
68723.2
68645.4
68546.4
68421.3
68267.1
68074.1
67843.8
67561.8
67220.6
66881.3
66479
66033.5
65553.3
65058
64552.7
64099.6
63791
63599.7
63515.3
63509.4
63555.4
63644.9
63743.6
63790.7
63772.5
63826.8
63871.3
63910.5
63940.4
63944.6
63929
63859.7
63697.6
63444.1
63103.9
62679.7
62229.2
61762.4
61314.3
60903.7
60559.3
60265.2
59998.6
59781.6
59587.1
59441.6
59331
59243.5
59177.5
59124.9
59085.8
59054.7
59031.2
59014.6
59001.4
58992.4
58985.6
58981.4
58978.2
58975.7
58974
58972.8
58971.9
58971.3
58971
58970.6
58970.4
58970.3
58970.2
58970.1
58970.1
58970.1
58970.1
58970.1
68969.9
68969.9
68969.9
68969.9
68969.8
68969.8
68969.7
68969.5
68969.3
68969
68968.5
68967.8
68967.1
68965.9
68964.1
68961.9
68958.4
68953.6
68947.5
68938.3
68925.1
68912.5
68896.7
68866.5
68828.6
68779.3
68714.1
68637.1
68537.9
68413.3
68258.6
68064.7
67830.8
67540.1
67181.7
66867.6
66491.8
66045.9
65565.6
65035.1
64562.6
64123
63792.4
63579
63469.6
63468.4
63498.3
63566.1
63644.4
63703.7
63708.7
63756.3
63808.7
63862.6
63912.8
63934.3
63921.1
63852.5
63705
63448.5
63114.4
62698.2
62254.1
61776.2
61330
60932.4
60580
60270.7
60002.5
59786.1
59592.5
59453.4
59344.5
59251.3
59178.2
59126.1
59089.2
59054.7
59032.2
59016.5
59003.2
58993.9
58986.4
58981.9
58978.7
58975.9
58974.1
58972.9
58971.9
58971.3
58971
58970.7
58970.4
58970.3
58970.2
58970.2
58970.1
58970.1
58970.1
58970.1
68969.9
68969.9
68969.9
68969.9
68969.8
68969.8
68969.7
68969.5
68969.3
68969
68968.5
68967.9
68967.1
68966
68964.2
68961.7
68958.2
68953.5
68946.8
68937.6
68925.3
68912.1
68894.1
68864.9
68827.2
68777
68708.8
68626.7
68525.8
68410.3
68273.3
68062.9
67826.7
67544.8
67207.8
66862.4
66448.7
66045
65543.9
64986.7
64520
64104
63788.3
63577.2
63491.4
63463.1
63497.2
63566.7
63640.6
63685.5
63661.3
63732
63787.1
63843.7
63912.4
63943.6
63931.6
63855.3
63717.2
63467.2
63136.8
62727.7
62272.7
61812.9
61333.2
60920.6
60571.3
60272.7
60003.8
59790
59612.5
59463.5
59348.6
59253.7
59181
59127.9
59089.5
59056.2
59032.7
59015.1
59003
58994.8
58986.8
58981.9
58978.6
58975.9
58974.1
58972.8
58971.9
58971.4
58971
58970.7
58970.4
58970.3
58970.2
58970.2
58970.1
58970.1
58970.1
58970.1
68969.9
68969.9
68969.9
68969.9
68969.8
68969.8
68969.7
68969.5
68969.3
68969
68968.4
68967.9
68967.3
68966.1
68964.2
68961.5
68957.6
68953.3
68947
68937.3
68925.9
68910.8
68891.9
68866.1
68827.6
68777.4
68708
68617.5
68522.8
68413.2
68278.2
68058.7
67823.7
67540
67211.1
66859.5
66441.4
66035.9
65495.7
64951.9
64476.5
64069.2
63782.1
63597.5
63523.9
63503.4
63523.6
63584.2
63639.9
63664.7
63662.3
63723.8
63790.7
63848.3
63904.5
63944.7
63934.6
63868.1
63705
63471.7
63145.5
62736.6
62274.2
61803.6
61357.5
60938.9
60584.2
60281.2
60022.2
59803.4
59627.4
59468.4
59344.6
59254
59181.1
59126.6
59086.9
59055.8
59032.8
59014.5
59002.6
58994.5
58986.8
58982
58978.7
58976
58974.2
58972.9
58972
58971.4
58971
58970.6
58970.4
58970.3
58970.2
58970.2
58970.1
58970.1
58970.1
58970.1
68969.9
68969.9
68969.9
68969.9
68969.8
68969.8
68969.7
68969.5
68969.3
68969
68968.5
68968
68967.3
68965.9
68964
68961.3
68957.1
68953.2
68947.5
68936.2
68925.9
68911.4
68892.5
68867.6
68829.9
68781.5
68715.6
68628.7
68531
68417.7
68258.4
68059.7
67818
67520.9
67205.4
66828.9
66416.3
65977.7
65450
64932.8
64467.7
64084.5
63775.9
63603.4
63547.3
63530
63545.8
63583.6
63619.3
63649.5
63644.7
63712.5
63754.7
63820.7
63886.1
63942
63937.7
63872
63691.7
63451.5
63117.6
62720.4
62281.4
61820.9
61386.5
60980.5
60614.5
60301.6
60046.7
59807.6
59622.5
59473
59342.6
59252.9
59179.5
59122
59084.5
59055.4
59033
59015.5
59003
58994
58986.8
58982
58978.6
58976
58974.3
58972.9
58972
58971.4
58971
58970.7
58970.5
58970.3
58970.2
58970.2
58970.1
58970.1
58970.1
58970.1
68969.9
68969.9
68969.9
68969.9
68969.8
68969.8
68969.7
68969.5
68969.3
68969
68968.6
68968
68967.2
68966
68964.2
68961.7
68958.2
68953.7
68947.5
68938
68927.5
68912.6
68892.8
68866.5
68830
68783.1
68722
68633.2
68525.2
68403.7
68238
68041.2
67791.6
67507.4
67189.8
66780.2
66375.5
65919.4
65419.7
64931
64506.7
64129.5
63783.6
63612.4
63543.9
63542.6
63573
63624.5
63690
63728.7
63754
63779.6
63809
63859.1
63912.3
63955.4
63923.1
63825.9
63657.7
63406.8
63068.5
62722.7
62308.6
61840.5
61394.9
60992.1
60660.6
60370.9
60062.8
59817.1
59631.3
59477.1
59346.5
59256
59181.9
59125.4
59087.2
59056.9
59034.7
59016.5
59003.7
58994.2
58987
58982
58978.5
58976
58974.2
58972.9
58972
58971.5
58971
58970.7
58970.5
58970.3
58970.2
58970.1
58970.1
58970.1
58970.1
58970.1
68969.9
68969.9
68969.9
68969.9
68969.9
68969.8
68969.7
68969.5
68969.4
68969.1
68968.7
68968.1
68967.3
68966.1
68964.5
68962.2
68959
68954.5
68948.5
68940.4
68929.3
68914
68894.1
68867
68830.8
68783.5
68722.4
68635
68529.3
68409.3
68247.4
68032.4
67768.7
67499
67161.4
66758.1
66346.3
65874.1
65400.1
64928.4
64518.2
64125
63765.2
63600.9
63517.6
63520.5
63570.3
63634.8
63717.6
63761.4
63827.4
63835.5
63852
63871.4
63910.7
63947.1
63900.2
63800
63638.2
63395.1
63079.9
62745.2
62300.9
61840
61413.8
61002.2
60674.5
60381.1
60082.8
59821.3
59636.5
59491
59356.3
59263.9
59190.4
59132.8
59092
59058.3
59034.2
59016.1
59003.2
58993.6
58986.7
58981.8
58978.2
58975.8
58974.1
58972.9
58972
58971.4
58971
58970.7
58970.5
58970.3
58970.2
58970.1
58970.1
58970.1
58970.1
58970.1
68969.9
68969.9
68969.9
68969.9
68969.8
68969.8
68969.7
68969.5
68969.4
68969.1
68968.7
68968.1
68967.3
68966.1
68964.5
68962.2
68959
68954.6
68948.6
68940.4
68929.1
68913.9
68893.5
68866
68829.6
68781.3
68717.8
68634.8
68529.9
68398.3
68235.5
68032.4
67780.7
67495.8
67153.7
66763.9
66344.7
65879
65407.3
64931.8
64488.4
64093.5
63769.5
63597.9
63488.9
63483.9
63505.6
63536.1
63616.8
63598.6
63637.4
63686.4
63733.2
63794.1
63870.5
63917.1
63875
63785.4
63634.4
63411.3
63106.4
62737.7
62288.2
61860.3
61438.4
61030.5
60670.6
60352.2
60077
59820.2
59636
59498.7
59366.6
59270.9
59197
59137.2
59092.9
59059.3
59034.6
59016.4
59003.3
58993.8
58986.8
58981.8
58978.3
58975.8
58974.1
58972.9
58972
58971.4
58971
58970.7
58970.5
58970.3
58970.2
58970.2
58970.1
58970.1
58970.1
58970.1
)
;

boundaryField
{
    sides1
    {
        type            zeroGradient;
    }
    sides2
    {
        type            slip;
    }
    empty
    {
        type            empty;
    }
}


// ************************************************************************* //
