/*--------------------------------*- C++ -*----------------------------------*\
| =========                 |                                                 |
| \\      /  F ield         | OpenFOAM: The Open Source CFD Toolbox           |
|  \\    /   O peration     | Version:  3.0.1                                 |
|   \\  /    A nd           | Web:      www.OpenFOAM.org                      |
|    \\/     M anipulation  |                                                 |
\*---------------------------------------------------------------------------*/
FoamFile
{
    version     2.0;
    format      ascii;
    class       surfaceScalarField;
    location    "0.00015";
    object      phi;
}
// * * * * * * * * * * * * * * * * * * * * * * * * * * * * * * * * * * * * * //

dimensions      [1 0 -1 0 0 0 0];

internalField   nonuniform List<scalar> 
1890
(
8.11654e-09
-5.26711e-10
1.73549e-08
-5.38487e-10
2.95088e-08
-7.09219e-10
4.44892e-08
-1.90621e-10
6.48407e-08
-1.40122e-11
9.24951e-08
2.91398e-10
1.31989e-07
-3.02555e-10
1.87972e-07
-2.07386e-09
2.67004e-07
-1.13945e-09
3.803e-07
-2.24674e-09
5.32764e-07
1.50497e-09
7.46095e-07
7.5479e-09
1.05365e-06
7.72324e-09
1.49016e-06
6.92409e-09
2.09759e-06
1.33949e-08
2.94821e-06
1.47201e-08
4.12788e-06
1.977e-08
5.75873e-06
2.19309e-08
8.00881e-06
1.14309e-08
1.10437e-05
4.98035e-08
1.51269e-05
1.12107e-07
2.06713e-05
1.13566e-07
2.80888e-05
1.52814e-07
3.78864e-05
2.47605e-07
5.07924e-05
3.2414e-07
6.7667e-05
4.40793e-07
8.94474e-05
5.79208e-07
0.000117568
4.77863e-07
0.000152932
8.02818e-07
0.000197642
4.23182e-07
0.000252637
7.35673e-07
0.000319547
8.32164e-07
0.000400529
3.54038e-08
0.000496097
-3.38306e-07
0.000608373
-2.73725e-06
0.00073358
-2.97025e-06
0.000869495
-3.30766e-06
0.00101664
-7.65102e-06
0.00116755
-9.20053e-06
0.00131607
-1.00116e-05
0.00144611
-5.57437e-06
0.00154137
5.52157e-06
0.0016025
3.37935e-06
0.00161812
4.62591e-06
0.00160105
1.05378e-05
0.0015877
2.25624e-06
0.00157135
-5.05453e-07
0.00156771
-5.58428e-06
0.00161193
-4.05767e-05
0.00147815
2.72077e-05
0.00143681
-1.60803e-05
0.00143971
-3.38282e-05
0.00145205
-1.4886e-05
0.00146986
-1.69472e-06
0.00148729
2.75082e-06
0.0015108
-5.7686e-06
0.00152188
-8.34363e-06
0.00150228
-5.15801e-06
0.00144917
-3.4001e-06
0.00136408
-2.88954e-06
0.00125462
-5.66852e-06
0.0011228
-2.51614e-06
0.0009798
-9.66002e-07
0.000835477
1.30502e-07
0.000694582
3.12244e-06
0.000569251
5.7321e-07
0.000460765
-1.18013e-06
0.000367444
-2.90272e-07
0.000290231
-1.82107e-06
0.000227077
-2.82091e-06
0.000175436
-7.51546e-07
0.000134827
-2.69699e-07
0.00010209
1.97136e-08
7.66244e-05
4.58827e-08
5.76814e-05
-3.74234e-07
4.2932e-05
-1.80653e-07
3.16108e-05
-9.13661e-08
2.31719e-05
-1.48002e-07
1.68103e-05
-7.21894e-09
1.21357e-05
-1.42434e-09
8.72444e-06
1.30398e-08
6.24491e-06
1.67744e-08
4.44346e-06
2.49922e-08
3.13843e-06
3.0517e-08
2.21729e-06
8.27806e-09
1.56159e-06
4.48981e-09
1.09603e-06
3.50562e-09
7.68578e-07
1.49886e-09
5.35133e-07
4.35769e-09
3.71279e-07
3.55892e-09
2.60171e-07
-9.50212e-10
1.81307e-07
4.16418e-10
1.24026e-07
3.25005e-09
8.50542e-08
9.61026e-10
5.77721e-08
7.81713e-10
3.83927e-08
8.28108e-10
2.49089e-08
1.29398e-10
1.49308e-08
1.44136e-10
7.10388e-09
1.10223e-10
1.60398e-10
7.02157e-09
-2.00201e-10
1.49123e-08
-4.19545e-11
2.58168e-08
-6.32041e-10
4.08076e-08
-4.69845e-10
6.10955e-08
-1.71314e-11
8.94261e-08
2.75491e-10
1.27585e-07
7.22754e-10
1.766e-07
1.22412e-09
2.45968e-07
5.56508e-09
3.41149e-07
1.11778e-08
4.66786e-07
3.06733e-08
6.4036e-07
5.95948e-08
9.11747e-07
5.59064e-08
1.30759e-06
5.52291e-08
1.86784e-06
8.04628e-08
2.65242e-06
1.03202e-07
3.71189e-06
1.67177e-07
5.18939e-06
2.10438e-07
7.19418e-06
2.45693e-07
9.84967e-06
4.80913e-07
1.33724e-05
8.31958e-07
1.84673e-05
7.04746e-07
2.54325e-05
6.85849e-07
3.44434e-05
1.08731e-06
4.62625e-05
1.58993e-06
6.17942e-05
2.05221e-06
8.17455e-05
2.82019e-06
0.000107243
3.44695e-06
0.00013963
4.44769e-06
0.000179841
5.38486e-06
0.000229946
6.30886e-06
0.000290701
7.7214e-06
0.000364582
7.22072e-06
0.000453691
6.73249e-06
0.000552774
9.44905e-06
0.000671201
1.72193e-06
0.000803462
-2.757e-06
0.000943534
-7.2992e-06
0.00109737
-1.76929e-05
0.00124589
-1.98224e-05
0.00138159
-1.32446e-05
0.00149833
-4.14434e-06
0.00156467
2.12243e-06
0.00158732
4.09258e-06
0.0015815
4.01701e-06
0.00158031
-1.34823e-05
0.00157774
-1.56076e-05
0.00155012
1.99262e-05
0.00154968
3.62356e-05
0.00156139
7.7188e-05
0.00153022
5.75055e-06
0.00150381
-2.23637e-05
0.00150061
-1.14654e-05
0.0015012
1.12006e-05
0.00150561
1.56223e-05
0.00150929
5.40207e-06
0.00149356
6.86982e-06
0.00145581
6.11803e-06
0.00139131
3.20254e-06
0.0012977
4.69815e-07
0.00118231
-5.8936e-06
0.00104875
-3.59176e-06
0.00091027
-5.87732e-06
0.000769879
-5.36724e-06
0.0006399
-4.57033e-06
0.000520606
-5.88278e-06
0.000421027
-1.13387e-05
0.000345029
-1.43174e-05
0.000273578
-1.02441e-05
0.000212677
-9.47982e-06
0.00016387
-4.6057e-06
0.000124998
-2.50743e-06
9.55994e-05
-3.3204e-06
7.22924e-05
-2.28198e-06
5.35377e-05
-1.71084e-06
3.90523e-05
-9.9446e-07
2.85252e-05
-1.25484e-06
2.02438e-05
-6.68802e-07
1.44915e-05
-6.54249e-07
1.04117e-05
-6.04604e-07
7.42788e-06
-3.57806e-07
5.30742e-06
-2.82258e-07
3.75768e-06
-1.44668e-07
2.68513e-06
-1.52136e-07
1.92002e-06
-1.35462e-07
1.35817e-06
-8.31842e-08
9.57559e-07
-5.73786e-08
6.77293e-07
-4.42465e-08
4.71971e-07
-1.66782e-08
3.3094e-07
-1.10365e-08
2.30459e-07
-1.21319e-08
1.57079e-07
-3.67564e-09
1.1138e-07
-3.29226e-09
7.59716e-08
-1.50475e-09
5.14355e-08
-8.19814e-10
3.49182e-08
-8.14291e-10
2.22939e-08
-5.41626e-10
1.3301e-08
-5.90738e-10
6.29372e-09
-5.49302e-10
-3.70456e-10
7.35272e-09
-1.33784e-10
1.58545e-08
-4.18853e-11
2.60458e-08
-1.41242e-10
4.03343e-08
-9.89594e-11
6.06566e-08
1.42999e-10
9.11401e-08
-5.36125e-10
1.30017e-07
2.10147e-09
1.81044e-07
4.37474e-09
2.55948e-07
9.87465e-09
3.67512e-07
1.23564e-08
5.51432e-07
1.93631e-08
8.49939e-07
2.35351e-08
1.20054e-06
4.59578e-08
1.65112e-06
5.90176e-08
2.29154e-06
9.97796e-08
3.22027e-06
9.38023e-08
4.53121e-06
1.48591e-07
6.28588e-06
2.62677e-07
8.46048e-06
3.61749e-07
1.16365e-05
5.1162e-07
1.62943e-05
7.85491e-07
2.24849e-05
6.06445e-07
3.07399e-05
-4.50978e-09
4.07887e-05
8.03956e-07
5.44896e-05
1.19098e-06
7.23668e-05
1.73833e-06
9.50209e-05
2.84274e-06
0.000124422
2.92053e-06
0.000161805
3.35135e-06
0.000209196
3.2977e-06
0.000267364
3.3532e-06
0.000338042
4.17098e-06
0.000421768
5.04918e-06
0.000519595
7.86683e-06
0.000637008
1.39598e-05
0.000757206
5.37373e-06
0.000883811
1.06526e-07
0.00102488
-7.16184e-06
0.00116197
-8.02261e-06
0.00128233
-2.02343e-06
0.00140487
-7.81696e-06
0.00151381
-4.98966e-06
0.00157652
2.19562e-06
0.00159833
6.40638e-06
0.00160151
-4.81525e-06
0.00157838
-4.86456e-06
0.00154783
-4.43084e-06
0.00151238
3.16382e-05
0.00152435
1.25292e-05
0.00159209
5.53658e-05
0.00156839
1.06682e-05
0.00153573
1.24254e-06
0.00152508
6.0363e-06
0.00153675
1.15199e-05
0.0015515
1.41641e-05
0.00155361
1.48882e-05
0.00153951
1.80255e-05
0.00150694
1.05966e-05
0.00145334
-2.25915e-06
0.00137377
-8.34698e-06
0.00127318
-1.74683e-05
0.0011475
-1.16736e-05
0.00101006
-1.20876e-05
0.000867631
-9.09173e-06
0.000732209
-8.13745e-06
0.000610181
-4.33291e-06
0.000498326
-7.39399e-06
0.000398207
-6.34218e-06
0.000311937
-4.06561e-06
0.000239678
-4.13443e-06
0.000184964
-2.9527e-06
0.000145123
-4.6613e-06
0.000112216
-4.06986e-06
8.57959e-05
-2.40708e-06
6.32527e-05
-5.2187e-07
4.68287e-05
-6.58413e-07
3.41439e-05
-1.09031e-06
2.44098e-05
-2.89553e-07
1.75642e-05
-5.3538e-07
1.25014e-05
-4.77432e-07
8.94479e-06
-2.67249e-07
6.47111e-06
-3.22928e-07
4.76459e-06
-1.61295e-07
3.43303e-06
-1.48942e-07
2.41039e-06
-1.05477e-07
1.67714e-06
-4.42267e-08
1.15894e-06
-2.6247e-08
7.83356e-07
-1.22196e-08
5.41003e-07
-4.74869e-09
3.77855e-07
-6.2724e-09
2.55545e-07
-7.63931e-09
1.77046e-07
-5.16417e-09
1.23392e-07
-3.33631e-09
8.36849e-08
-4.30377e-10
5.7065e-08
-9.42788e-10
3.84776e-08
-8.87677e-10
2.5152e-08
-6.90338e-10
1.51843e-08
-4.37841e-10
7.03612e-09
-3.25603e-10
-3.68328e-10
7.30055e-09
-4.27315e-11
1.59512e-08
-8.29212e-11
2.66707e-08
-1.25228e-10
4.16948e-08
-9.97434e-11
6.2475e-08
8.2476e-10
9.09874e-08
1.32755e-09
1.32733e-07
3.13541e-09
1.90349e-07
5.88246e-09
2.78034e-07
8.34799e-09
4.05709e-07
7.84389e-09
5.96671e-07
1.13169e-08
9.07149e-07
-1.6222e-08
1.33372e-06
-2.61078e-08
1.89543e-06
-1.93762e-08
2.69318e-06
-1.65309e-09
3.65411e-06
6.8318e-08
5.10146e-06
6.39884e-08
7.21514e-06
7.76373e-08
9.89238e-06
1.73255e-07
1.35635e-05
2.42922e-07
1.92749e-05
-1.01848e-08
2.56681e-05
3.02859e-07
3.20905e-05
6.21731e-07
4.20923e-05
6.37887e-07
5.63625e-05
4.54692e-07
7.55633e-05
6.81085e-07
0.000100875
1.39269e-06
0.000130721
2.81405e-06
0.00016712
3.55246e-06
0.000213452
1.76145e-06
0.000273997
-2.83156e-06
0.000342919
1.52914e-06
0.000427365
2.22301e-06
0.000534192
1.34576e-06
0.000673048
-7.93647e-07
0.000799547
2.94115e-06
0.000922206
4.93111e-06
0.00105913
-2.59773e-06
0.00119116
2.14007e-06
0.00131231
2.44351e-05
0.00142299
1.00803e-05
0.00150984
8.43607e-06
0.00157505
3.06859e-06
0.00160591
1.68376e-06
0.00160585
-1.3211e-05
0.00157809
-2.30899e-06
0.00155219
-5.17717e-06
0.00155354
-4.12746e-06
0.00150511
2.07198e-05
0.00156151
4.39452e-06
0.00154667
-1.49992e-08
0.0015156
-4.41989e-07
0.00151658
6.96456e-07
0.00153754
-1.22113e-06
0.00155815
7.54834e-06
0.00157306
1.35182e-05
0.0015792
1.35778e-05
0.00155682
1.18399e-05
0.00149666
-2.0143e-06
0.00141346
-1.32536e-05
0.00130703
-1.88914e-05
0.00117498
-1.47556e-05
0.00102668
-1.04142e-05
0.000882892
-1.07484e-05
0.000729447
-3.87571e-06
0.00059383
4.74814e-06
0.000476352
2.39141e-06
0.00038407
-4.17233e-06
0.00030941
-2.78197e-06
0.000243786
-3.50269e-06
0.000196659
-6.5564e-06
0.000152708
-3.06573e-06
0.000114047
-8.02599e-07
8.53982e-05
-1.05589e-06
6.50778e-05
-9.64891e-07
4.90663e-05
-5.51026e-07
3.55814e-05
-3.23835e-07
2.67676e-05
-6.27396e-07
1.98488e-05
-4.07347e-07
1.39783e-05
2.36028e-07
9.90852e-06
2.58541e-08
7.0875e-06
-2.79132e-07
5.15616e-06
-1.04867e-07
3.63877e-06
-2.52749e-08
2.45365e-06
1.69464e-08
1.68791e-06
2.94807e-09
1.15523e-06
9.61937e-09
7.81804e-07
1.6931e-08
5.5561e-07
-4.39316e-09
3.98789e-07
-1.02142e-08
2.71304e-07
4.26477e-10
1.84884e-07
-3.86445e-12
1.25284e-07
3.62357e-10
8.72653e-08
-3.67986e-10
6.00108e-08
-4.99735e-10
3.96733e-08
-2.70175e-10
2.57114e-08
-3.07887e-10
1.56573e-08
-2.23917e-10
7.46086e-09
-7.42684e-11
-1.28044e-10
7.05357e-09
3.91525e-10
1.48228e-08
8.17446e-10
2.48235e-08
6.2887e-10
3.99757e-08
-3.95027e-11
6.3493e-08
-4.84035e-10
9.691e-08
-6.71979e-10
1.45616e-07
2.20618e-10
2.15299e-07
-3.02318e-10
3.19107e-07
-4.26998e-09
4.60234e-07
1.3069e-09
6.37248e-07
2.45815e-08
8.83619e-07
-8.65058e-09
1.2547e-06
-5.6039e-08
1.73554e-06
-3.24568e-08
2.43033e-06
-1.79982e-08
3.43945e-06
2.62724e-08
4.71683e-06
1.44395e-07
6.60758e-06
6.63982e-08
9.37066e-06
-7.62714e-09
1.31351e-05
2.05249e-08
1.80627e-05
-1.31493e-07
2.40013e-05
3.09581e-07
3.16313e-05
3.72653e-07
4.25985e-05
-1.72626e-07
5.67974e-05
3.85027e-08
7.60516e-05
-4.64934e-08
0.000102894
-3.77523e-07
0.000135761
1.69777e-06
0.000177794
3.59624e-07
0.000226211
-8.7464e-07
0.000277777
-1.21721e-06
0.000347353
4.01346e-07
0.000431122
8.50963e-07
0.000529359
1.02437e-06
0.000642052
1.68223e-06
0.000766343
1.58638e-06
0.000903973
1.73678e-06
0.00103569
6.39702e-06
0.00116801
1.21419e-05
0.00131591
1.90924e-05
0.00143514
1.41864e-05
0.0015303
1.46215e-05
0.00159407
8.92751e-06
0.0016296
4.9803e-07
0.00161659
-2.70629e-06
0.00158482
1.22545e-05
0.00155804
2.4193e-06
0.00153057
-7.29035e-06
0.00151777
-6.18624e-06
0.0015335
-1.6014e-05
0.00150705
-9.53316e-06
0.00148687
-8.29193e-06
0.00148658
3.87015e-06
0.00149717
-9.74729e-07
0.00152492
-5.87945e-06
0.00155167
-2.40815e-06
0.00156668
-4.23978e-06
0.00154788
8.8551e-06
0.00149799
1.85636e-06
0.00141346
-7.10473e-06
0.00129061
-2.59523e-06
0.00114827
-1.85101e-06
0.000999067
-6.13688e-06
0.000841217
-3.445e-06
0.000705355
-1.30746e-05
0.000588201
-8.80902e-06
0.000483123
-3.27883e-06
0.000393044
-4.40959e-06
0.000318781
-4.9737e-06
0.000254645
-5.35854e-06
0.000196698
-3.88267e-06
0.000150944
-1.6208e-06
0.000113507
6.97593e-07
8.57556e-05
-4.379e-07
6.4954e-05
-3.48859e-07
4.80555e-05
3.78887e-07
3.47628e-05
4.60447e-07
2.54122e-05
-2.48582e-07
1.84663e-05
-1.24487e-07
1.3721e-05
9.22071e-08
9.92679e-06
1.05245e-07
6.65632e-06
2.92154e-08
4.58479e-06
-9.74681e-09
3.1847e-06
-2.57283e-08
2.18694e-06
-1.19384e-08
1.49457e-06
-1.24576e-08
1.05734e-06
-4.26525e-08
7.585e-07
-2.47501e-08
5.43395e-07
-2.16902e-08
3.79215e-07
-9.23942e-09
2.60571e-07
2.6252e-09
1.7721e-07
3.54158e-09
1.22786e-07
-3.6216e-10
8.60403e-08
-1.62161e-09
5.96199e-08
-1.28856e-09
4.01531e-08
-5.18747e-10
2.62082e-08
-2.26516e-10
1.57509e-08
3.07441e-11
7.49168e-09
1.29533e-10
5.11211e-11
8.08987e-09
1.25269e-10
1.79637e-08
4.23966e-11
2.86756e-08
7.50453e-10
4.30614e-08
4.5355e-10
6.4232e-08
-2.08234e-10
9.585e-08
-1.88105e-09
1.42808e-07
-1.81108e-09
2.08291e-07
-3.0933e-09
2.95111e-07
-4.65297e-09
4.42295e-07
-1.24278e-08
6.85538e-07
-1.0434e-08
9.51937e-07
-1.97384e-08
1.20946e-06
6.03042e-10
1.59031e-06
4.80019e-08
2.19011e-06
6.32276e-08
3.16894e-06
3.57183e-08
4.67429e-06
9.89594e-08
6.57174e-06
5.08083e-08
9.13083e-06
-9.87652e-08
1.26027e-05
1.51378e-07
1.72527e-05
-5.08066e-08
2.3912e-05
-2.22079e-07
3.21747e-05
-1.8393e-07
4.23244e-05
-4.79584e-07
5.66721e-05
-6.67285e-07
7.61781e-05
-9.1061e-07
0.00010388
-1.92286e-06
0.000142863
-3.33274e-06
0.000186052
-3.30529e-06
0.000231922
-1.082e-06
0.000277732
5.92619e-06
0.000348209
-1.39721e-07
0.00043089
1.90894e-06
0.000526467
4.06392e-06
0.000636491
5.2576e-06
0.000753717
6.90704e-06
0.000878556
9.70051e-06
0.00100416
1.89456e-05
0.0011479
1.69428e-05
0.0012859
1.33393e-05
0.00141711
4.07085e-06
0.00154203
-1.40858e-06
0.00160863
1.38248e-05
0.00162385
1.85902e-05
0.00159533
2.78317e-05
0.00157961
1.60612e-05
0.0015631
8.67996e-06
0.00155835
-2.23835e-06
0.00155873
-4.62368e-06
0.00155334
1.09865e-06
0.00152231
-1.71026e-06
0.00149448
1.29406e-06
0.00149282
6.8262e-06
0.00150342
-4.39163e-06
0.00151538
-7.3087e-06
0.00152792
-4.09976e-06
0.00152896
-6.25193e-06
0.0015245
-5.14999e-06
0.00148616
-2.23774e-07
0.00140075
2.43313e-06
0.00129259
2.7715e-06
0.00115633
2.56876e-06
0.00101435
-8.33348e-06
0.000872282
-1.2467e-05
0.000729893
-1.52106e-05
0.000607741
-1.59449e-05
0.000501667
-1.17395e-05
0.000407705
-5.8938e-06
0.000323321
-2.20124e-06
0.000251417
-1.65312e-06
0.00018817
7.03581e-07
0.000144019
-2.80727e-06
0.000110794
-5.18957e-07
8.35554e-05
-1.54477e-07
6.25934e-05
2.62342e-07
4.60904e-05
7.72738e-07
3.38361e-05
6.78032e-07
2.46819e-05
8.28428e-08
1.78799e-05
-3.12162e-08
1.3385e-05
-2.05992e-07
9.90862e-06
-9.19352e-08
6.95513e-06
6.62243e-08
5.00209e-06
1.73674e-10
3.56184e-06
6.66802e-09
2.44652e-06
3.99962e-08
1.70653e-06
-2.34698e-09
1.1619e-06
-1.19517e-09
7.84664e-07
5.92279e-09
5.27913e-07
-5.19631e-09
3.59999e-07
-9.494e-09
2.46907e-07
-1.46063e-09
1.7703e-07
-6.70793e-09
1.27816e-07
-5.20077e-09
9.00985e-08
-2.60632e-09
6.08617e-08
-3.25609e-10
4.05144e-08
-2.40475e-10
2.59743e-08
7.75819e-12
1.54972e-08
8.87661e-11
7.42974e-09
1.22706e-10
1.89672e-10
8.44329e-09
-3.74204e-10
1.83586e-08
-8.64568e-10
3.0599e-08
-2.39735e-10
4.7342e-08
-1.09708e-09
6.99123e-08
-1.77527e-09
9.62681e-08
3.54328e-10
1.37409e-07
-1.41362e-09
1.95085e-07
-1.26613e-09
2.72382e-07
-1.01036e-10
3.90371e-07
-8.51272e-09
6.04449e-07
-3.25557e-08
8.4954e-07
-1.07397e-08
1.15452e-06
1.47662e-08
1.69508e-06
-1.01428e-08
2.50321e-06
-3.66523e-08
3.6473e-06
-8.02198e-08
5.48677e-06
-1.94421e-07
7.64518e-06
-2.0798e-07
9.9881e-06
-6.50178e-08
1.45785e-05
-5.6328e-07
1.97836e-05
-4.47532e-07
2.60066e-05
-4.30565e-07
3.34528e-05
-2.23093e-07
4.21631e-05
1.17371e-07
5.48699e-05
-2.08442e-07
7.26083e-05
-5.5938e-07
9.7539e-05
-1.53849e-06
0.000127937
-4.96447e-07
0.00016248
1.56017e-06
0.000202512
4.52595e-06
0.000259381
5.92794e-06
0.000323505
5.99157e-06
0.000404446
6.43362e-06
0.000506182
4.77353e-06
0.000612641
1.02003e-05
0.000727038
1.74661e-05
0.000852451
1.83126e-05
0.000986889
2.34897e-05
0.00113832
1.32146e-05
0.00128336
1.73635e-06
0.00142016
-9.87813e-06
0.00153255
-8.94383e-06
0.0016043
1.04929e-05
0.00162283
2.47532e-05
0.00161558
3.17748e-05
0.00159625
2.01606e-05
0.00158652
6.66235e-06
0.00157431
2.93483e-06
0.00156027
-1.88459e-05
0.00158851
-3.4888e-05
0.00155437
1.11409e-06
0.00152706
-1.06684e-06
0.00152743
6.60008e-06
0.00153272
2.80306e-06
0.0015352
2.13532e-06
0.00154029
3.94291e-06
0.00153144
9.49405e-06
0.00150256
9.23139e-06
0.00144447
8.02232e-06
0.00135984
5.79601e-06
0.00125162
5.68572e-06
0.00113483
-1.63308e-05
0.00100238
-1.67602e-05
0.000860302
-1.32181e-05
0.000717165
-1.18454e-05
0.000582425
-9.78377e-06
0.000471984
-1.64278e-05
0.000383597
-1.83759e-05
0.000298893
-3.9431e-06
0.000231732
-3.18248e-06
0.000179289
-3.60454e-06
0.00013412
-2.60325e-06
0.000101594
-1.55858e-06
7.59291e-05
-1.16576e-06
5.68052e-05
-7.43102e-07
4.37481e-05
-1.42776e-06
3.3416e-05
-7.75591e-07
2.49513e-05
-3.95667e-07
1.8367e-05
-3.99564e-07
1.3305e-05
-2.36319e-07
9.47908e-06
-1.52887e-07
6.76739e-06
-4.8218e-08
4.95073e-06
-5.59031e-08
3.55511e-06
-3.47817e-09
2.50914e-06
2.61062e-08
1.73682e-06
1.63395e-08
1.17863e-06
3.38642e-08
8.44311e-07
8.93538e-10
5.96019e-07
-1.54399e-09
4.06774e-07
-4.52678e-11
2.82989e-07
-1.15198e-09
1.95761e-07
-2.82622e-09
1.37078e-07
-3.7397e-09
9.34439e-08
2.89063e-10
6.29054e-08
1.44496e-09
4.14075e-08
1.11562e-09
2.61003e-08
1.11778e-09
1.53751e-08
5.0582e-10
7.21935e-09
3.05081e-10
2.48969e-10
7.3252e-09
-1.44489e-10
1.47885e-08
-1.90781e-10
2.60529e-08
-4.53193e-10
4.04985e-08
-8.94281e-10
5.95357e-08
-8.16208e-10
8.90914e-08
-4.57523e-10
1.27074e-07
4.09701e-10
1.86064e-07
-2.13998e-09
2.72094e-07
-4.23305e-09
3.91624e-07
-1.02759e-08
5.57386e-07
-2.16181e-08
8.11176e-07
-2.2852e-08
1.18338e-06
-1.9231e-08
1.69064e-06
-3.94012e-08
2.41634e-06
-7.98163e-08
3.43605e-06
-1.28223e-07
4.79007e-06
-1.85304e-07
6.63995e-06
-2.02759e-07
9.32215e-06
-2.53346e-07
1.29454e-05
-5.28641e-07
1.76126e-05
-5.33261e-07
2.35523e-05
-4.25078e-07
3.14179e-05
-4.14404e-07
4.16988e-05
-3.39462e-07
5.53171e-05
-3.07239e-07
7.27012e-05
-9.84897e-09
9.43975e-05
3.6916e-07
0.000126693
-6.99077e-08
0.000169434
-6.9439e-07
0.000220795
-2.96151e-07
0.000286315
-1.46476e-07
0.000362094
3.3281e-06
0.000451622
6.59934e-06
0.000557998
3.66845e-06
0.000665466
1.03082e-05
0.000799922
8.47622e-06
0.000939364
8.80744e-06
0.00107965
1.21668e-05
0.00122099
1.13009e-05
0.00136092
5.49033e-06
0.0014736
7.076e-06
0.00155877
7.87207e-06
0.00162627
1.19812e-05
0.00164061
2.74018e-05
0.00165031
1.35746e-05
0.00163945
1.13761e-05
0.00161703
5.52302e-06
0.00159859
-2.46528e-06
0.00159227
-4.17611e-05
0.00163351
-6.37787e-05
0.00159365
1.32246e-05
0.00154319
1.0653e-05
0.00154591
3.95754e-06
0.00155425
3.75126e-06
0.0015563
1.00168e-05
0.00156402
1.03227e-05
0.0015702
1.429e-05
0.00154945
1.50689e-05
0.00148742
1.29062e-05
0.00141369
-2.23783e-06
0.00132828
-1.20328e-05
0.00120723
-2.41635e-05
0.00106148
-1.01038e-05
0.000916313
-4.97377e-06
0.000780527
-9.57623e-06
0.000653689
-1.09076e-05
0.000526306
-8.33917e-06
0.000401617
-4.22627e-06
0.000312008
-4.80261e-06
0.000240668
-2.83462e-06
0.000182729
-1.77992e-06
0.000139783
-2.79344e-06
0.00010736
-2.00523e-06
8.24623e-05
-2.6077e-06
6.37764e-05
-1.90515e-06
4.90905e-05
-2.14696e-06
3.7221e-05
-1.09441e-06
2.78818e-05
-3.54895e-07
2.01137e-05
9.53467e-08
1.44437e-05
8.87764e-08
1.01709e-05
1.08444e-07
7.14667e-06
1.00509e-07
5.02937e-06
7.59172e-08
3.54501e-06
4.3972e-08
2.50387e-06
2.92273e-08
1.73957e-06
3.10745e-08
1.22236e-06
1.98068e-08
8.71288e-07
-9.19629e-10
6.19005e-07
5.101e-09
4.21277e-07
1.39353e-08
2.86213e-07
7.90235e-09
1.91912e-07
5.4857e-09
1.24039e-07
3.74266e-09
8.24517e-08
1.20235e-09
5.55464e-08
3.67365e-10
3.68115e-08
6.2256e-10
2.43461e-08
3.88692e-10
1.45805e-08
3.86328e-10
6.87057e-09
2.84907e-10
1.36885e-10
6.60593e-09
4.5505e-10
1.37395e-08
3.89035e-10
2.34383e-08
2.66375e-10
3.57716e-08
6.92642e-10
5.3289e-08
1.15981e-09
8.10801e-08
4.45483e-10
1.21824e-07
3.50158e-10
1.77305e-07
-7.48165e-11
2.53643e-07
-4.2132e-11
3.5843e-07
1.23601e-10
4.98997e-07
2.35226e-09
6.92589e-07
1.06983e-08
1.00356e-06
8.57916e-10
1.42447e-06
5.39276e-09
1.98233e-06
8.83835e-09
2.7665e-06
-3.01353e-09
3.83225e-06
-2.88799e-09
5.42312e-06
-3.35095e-08
7.61448e-06
-3.87248e-08
1.03389e-05
1.70955e-08
1.41298e-05
3.35129e-08
1.9589e-05
4.12632e-10
2.67931e-05
1.33264e-07
3.6566e-05
1.05827e-07
4.95468e-05
3.48572e-07
6.66631e-05
7.5712e-07
8.85678e-05
1.44501e-06
0.00011871
7.67541e-07
0.00015631
5.12016e-07
0.000196448
3.6176e-06
0.000249132
3.60161e-06
0.000323818
1.70919e-06
0.000422667
-7.48397e-07
0.000528974
2.80346e-06
0.00064671
2.79074e-06
0.000782339
-7.06703e-07
0.000922418
1.24114e-06
0.00107011
-9.24254e-07
0.00122151
4.33754e-06
0.00137182
4.70712e-06
0.00149056
1.86032e-05
0.00158228
1.6214e-05
0.00165521
2.72903e-06
0.00167472
1.83693e-05
0.0016707
-6.84716e-06
0.001663
-5.84781e-06
0.00164654
-2.89997e-06
0.00163682
-6.7573e-07
0.00164326
3.41513e-06
0.00161189
1.97808e-05
0.00157632
4.13384e-05
0.00154322
1.59087e-05
0.00154571
7.65478e-06
0.00154814
1.31249e-05
0.00155657
1.18483e-05
0.00156982
1.01631e-05
0.00158703
3.40852e-06
0.00158135
2.57335e-07
0.0015251
7.53603e-06
0.00144326
-2.42622e-06
0.00133822
-8.57271e-06
0.00119391
-6.57612e-06
0.00105325
-5.11175e-06
0.000922239
-9.67528e-06
0.000789499
-9.85754e-06
0.000665071
-1.32174e-05
0.000541264
-2.74913e-06
0.000420531
6.66854e-06
0.000323784
-1.69277e-07
0.000251713
-1.46394e-06
0.000193597
-3.38796e-07
0.000147439
-2.37872e-06
0.000114129
-3.27866e-06
8.60312e-05
-1.95485e-06
6.46065e-05
-1.40178e-06
4.74826e-05
-1.35471e-06
3.39185e-05
-3.82932e-07
2.44508e-05
-3.83194e-07
1.76358e-05
-1.97042e-07
1.26469e-05
-1.27895e-07
8.97589e-06
-6.73344e-08
6.38239e-06
-6.65076e-08
4.54936e-06
-4.95837e-08
3.21122e-06
-2.47715e-08
2.27601e-06
-2.93714e-08
1.61165e-06
-1.81297e-08
1.12195e-06
-6.2551e-09
7.59136e-07
3.66762e-09
5.16588e-07
2.26268e-09
3.54868e-07
3.27786e-10
2.43186e-07
-2.14175e-09
1.66561e-07
-1.76163e-09
1.12835e-07
-5.54552e-10
7.61659e-08
-1.89949e-09
5.0627e-08
-1.51365e-09
3.36853e-08
-1.28252e-09
2.17272e-08
-7.0575e-10
1.31576e-08
-7.20445e-10
6.38616e-09
-4.96773e-10
-3.71071e-10
7.80073e-09
1.61691e-08
2.68221e-08
4.17004e-08
6.28167e-08
9.20041e-08
1.33882e-07
1.9185e-07
2.72983e-07
3.88378e-07
5.53016e-07
7.95784e-07
1.127e-06
1.59729e-06
2.25774e-06
3.16158e-06
4.41461e-06
6.11755e-06
8.46555e-06
1.17285e-05
1.61369e-05
2.20301e-05
3.0016e-05
4.05554e-05
5.46682e-05
7.34728e-05
9.83433e-05
0.000129258
0.000167673
0.000218179
0.000279739
0.000352678
0.000439182
0.000544636
0.000661645
0.000788821
0.000928493
0.00106994
0.00122023
0.00136612
0.00150854
0.00161896
0.00167835
0.00170895
0.00168262
0.00165872
0.00163688
0.00161497
0.0016012
0.0015448
0.0015245
0.00151323
0.00151666
0.00154108
0.00156673
0.00159462
0.00160521
0.00158492
0.00153893
0.00145604
0.0013419
0.00120987
0.0010737
0.000927509
0.000782041
0.000641932
0.000525447
0.000428409
0.000339603
0.000269081
0.000211571
0.000161218
0.000121178
9.06393e-05
6.72193e-05
4.90545e-05
3.59162e-05
2.60327e-05
1.87896e-05
1.35111e-05
9.6682e-06
6.86043e-06
4.85246e-06
3.4291e-06
2.40675e-06
1.68238e-06
1.17362e-06
8.23879e-07
5.78005e-07
4.03793e-07
2.79647e-07
1.93364e-07
1.34019e-07
9.14201e-08
6.17687e-08
4.09784e-08
2.64876e-08
1.57248e-08
7.42936e-09
)
;

boundaryField
{
    sides1
    {
        type            calculated;
        value           nonuniform List<scalar> 
20
(
3.40762e-10
2.93748e-10
3.18538e-10
3.84615e-10
3.46876e-10
3.50004e-10
3.52744e-10
3.6722e-10
3.62619e-10
3.72512e-10
-1.80329e-10
-1.06118e-10
-2.37274e-10
-2.58765e-10
-2.54422e-10
-2.94994e-10
-4.32399e-10
-4.9411e-10
-4.15606e-10
-3.42059e-10
)
;
    }
    sides2
    {
        type            calculated;
        value           uniform 0;
    }
    empty
    {
        type            empty;
        value           nonuniform 0();
    }
}


// ************************************************************************* //
