/*--------------------------------*- C++ -*----------------------------------*\
| =========                 |                                                 |
| \\      /  F ield         | OpenFOAM: The Open Source CFD Toolbox           |
|  \\    /   O peration     | Version:  3.0.1                                 |
|   \\  /    A nd           | Web:      www.OpenFOAM.org                      |
|    \\/     M anipulation  |                                                 |
\*---------------------------------------------------------------------------*/
FoamFile
{
    version     2.0;
    format      ascii;
    class       volScalarField;
    location    "0.00015";
    object      rho;
}
// * * * * * * * * * * * * * * * * * * * * * * * * * * * * * * * * * * * * * //

dimensions      [1 -3 0 0 0 0 0];

internalField   nonuniform List<scalar> 
1000
(
0.831239
0.831239
0.831239
0.831239
0.831238
0.831237
0.831236
0.831235
0.831233
0.83123
0.831226
0.83122
0.831211
0.831199
0.831182
0.831158
0.831125
0.83108
0.831017
0.830932
0.830816
0.830659
0.83045
0.830171
0.829804
0.829322
0.8287
0.827902
0.826889
0.825619
0.824034
0.822101
0.81977
0.817002
0.813792
0.810174
0.806191
0.80192
0.797509
0.79308
0.789066
0.785778
0.783814
0.783341
0.783028
0.783739
0.784574
0.786455
0.787313
0.776191
0.764327
0.757493
0.752785
0.751806
0.752557
0.753415
0.75388
0.75388
0.753191
0.751693
0.749313
0.746093
0.742343
0.738241
0.734159
0.730267
0.726736
0.723648
0.721037
0.718844
0.717062
0.715612
0.71446
0.713575
0.712868
0.712329
0.711915
0.711599
0.71136
0.711183
0.711053
0.710958
0.710889
0.710839
0.710804
0.710779
0.710761
0.710748
0.710739
0.710732
0.710728
0.710725
0.710723
0.710721
0.71072
0.71072
0.710719
0.710719
0.710719
0.710718
0.831239
0.831239
0.831239
0.831239
0.831238
0.831237
0.831236
0.831235
0.831233
0.83123
0.831226
0.831219
0.831211
0.831199
0.831181
0.831157
0.831124
0.831079
0.831018
0.830931
0.830812
0.830657
0.830451
0.830175
0.829804
0.82932
0.828696
0.827894
0.826886
0.825615
0.824046
0.822122
0.819802
0.817017
0.81383
0.810251
0.806277
0.802072
0.79751
0.793112
0.788927
0.785373
0.78378
0.783296
0.782929
0.783731
0.784687
0.787766
0.792362
0.787437
0.773458
0.760493
0.754311
0.752713
0.752957
0.753485
0.75397
0.754026
0.75333
0.751853
0.749435
0.746132
0.742307
0.738219
0.734054
0.730213
0.726721
0.723544
0.721106
0.718942
0.717083
0.715618
0.714455
0.713575
0.712894
0.71234
0.711923
0.711607
0.71136
0.711183
0.71105
0.710955
0.710886
0.710838
0.710804
0.710778
0.71076
0.710748
0.710739
0.710732
0.710728
0.710725
0.710723
0.710721
0.71072
0.71072
0.710719
0.710719
0.710719
0.710718
0.831239
0.831239
0.831239
0.831239
0.831238
0.831237
0.831236
0.831235
0.831233
0.83123
0.831224
0.831216
0.831208
0.831197
0.831178
0.831153
0.831117
0.831068
0.831009
0.830912
0.830777
0.830623
0.830431
0.830148
0.829754
0.829252
0.828605
0.82779
0.82676
0.825467
0.82388
0.821937
0.819606
0.81676
0.813294
0.810159
0.806432
0.802195
0.797794
0.793495
0.789166
0.78553
0.783785
0.78325
0.783077
0.783616
0.784329
0.785335
0.786633
0.786599
0.775873
0.761177
0.75485
0.752835
0.752926
0.753308
0.75371
0.753803
0.753202
0.751704
0.749318
0.746066
0.742381
0.738314
0.734216
0.730274
0.726985
0.724036
0.721445
0.719184
0.717242
0.715723
0.714575
0.713657
0.712969
0.7124
0.711986
0.711648
0.71139
0.711209
0.711063
0.710965
0.71089
0.710844
0.71081
0.710782
0.710763
0.710749
0.710739
0.710733
0.710729
0.710725
0.710723
0.710721
0.71072
0.71072
0.710719
0.710719
0.710719
0.710719
0.831239
0.831239
0.831239
0.831239
0.831238
0.831237
0.831236
0.831235
0.831232
0.831229
0.831223
0.831216
0.831207
0.831194
0.831174
0.83115
0.831111
0.831058
0.830992
0.830892
0.830747
0.830613
0.830451
0.830128
0.829721
0.829193
0.828502
0.8277
0.826679
0.825407
0.823841
0.821867
0.81949
0.81653
0.812902
0.810038
0.806584
0.802317
0.798013
0.793182
0.789227
0.785902
0.78378
0.783083
0.783235
0.783112
0.783302
0.782111
0.779709
0.780684
0.772294
0.759438
0.753618
0.752456
0.752691
0.753203
0.753593
0.753669
0.75323
0.751677
0.749348
0.746239
0.74267
0.738432
0.734517
0.730626
0.727137
0.724075
0.721339
0.719246
0.717238
0.715839
0.714728
0.713742
0.712971
0.71241
0.712019
0.711645
0.711401
0.71123
0.711085
0.710983
0.710899
0.71085
0.710815
0.710784
0.710764
0.71075
0.710739
0.710733
0.710729
0.710725
0.710723
0.710721
0.71072
0.71072
0.710719
0.710719
0.710719
0.710719
0.831239
0.831239
0.831239
0.831239
0.831238
0.831237
0.831236
0.831234
0.831232
0.831228
0.831223
0.831217
0.831208
0.831195
0.831175
0.831148
0.831109
0.831057
0.830985
0.830884
0.830751
0.830611
0.830423
0.83011
0.829705
0.829167
0.828435
0.827573
0.826533
0.825367
0.823998
0.821824
0.819444
0.816608
0.813259
0.809994
0.80606
0.802317
0.797775
0.792782
0.789022
0.785694
0.783689
0.782911
0.783299
0.783453
0.78342
0.78282
0.780928
0.77841
0.769993
0.75894
0.753798
0.752526
0.752623
0.753181
0.753562
0.75364
0.753097
0.751752
0.749562
0.746424
0.742775
0.738793
0.734455
0.730532
0.727081
0.724073
0.721407
0.719297
0.717502
0.715961
0.714774
0.713763
0.71298
0.712428
0.712021
0.711656
0.711403
0.711212
0.711081
0.710994
0.710904
0.71085
0.710814
0.710784
0.710763
0.710749
0.71074
0.710733
0.710729
0.710725
0.710723
0.710721
0.71072
0.71072
0.710719
0.710719
0.710719
0.710719
0.831239
0.831239
0.831239
0.831239
0.831238
0.831237
0.831236
0.831234
0.831232
0.831228
0.831222
0.831217
0.83121
0.831197
0.831176
0.831146
0.831102
0.831056
0.830988
0.83088
0.830757
0.830596
0.830397
0.830125
0.82971
0.82917
0.828414
0.827455
0.826493
0.825395
0.824043
0.821761
0.819391
0.816555
0.813301
0.809993
0.806032
0.802274
0.797219
0.792593
0.788609
0.785233
0.783588
0.783137
0.783467
0.783645
0.784122
0.784563
0.783354
0.780201
0.770899
0.758887
0.753499
0.752341
0.752689
0.75327
0.753591
0.753572
0.752891
0.751786
0.749567
0.74653
0.742759
0.738735
0.734705
0.730696
0.727263
0.724225
0.721657
0.719453
0.717689
0.716018
0.714713
0.713763
0.712987
0.712419
0.711988
0.711651
0.711405
0.711206
0.711077
0.710991
0.710904
0.710851
0.710815
0.710785
0.710765
0.71075
0.71074
0.710734
0.710729
0.710725
0.710723
0.710721
0.71072
0.71072
0.710719
0.710719
0.710719
0.710719
0.831239
0.831239
0.831239
0.831239
0.831238
0.831237
0.831236
0.831235
0.831232
0.831229
0.831223
0.831217
0.83121
0.831195
0.831173
0.831143
0.831096
0.831054
0.830994
0.830866
0.830756
0.830603
0.830407
0.830148
0.829739
0.829215
0.828496
0.82757
0.826576
0.825439
0.823798
0.821764
0.819312
0.816322
0.813328
0.809667
0.805794
0.801671
0.796722
0.792357
0.788455
0.785419
0.783558
0.783178
0.783461
0.78363
0.784574
0.784858
0.782728
0.780019
0.771099
0.758057
0.752251
0.751973
0.752754
0.753307
0.753531
0.753632
0.752971
0.751678
0.749326
0.746422
0.742783
0.738792
0.73486
0.731062
0.727542
0.724492
0.721951
0.719493
0.717617
0.716058
0.714682
0.713747
0.712968
0.71236
0.711961
0.711648
0.71141
0.711218
0.711084
0.710985
0.710903
0.710851
0.710814
0.710786
0.710766
0.71075
0.710741
0.710734
0.710729
0.710725
0.710723
0.710722
0.71072
0.71072
0.710719
0.710719
0.710719
0.710719
0.831239
0.831239
0.831239
0.831239
0.831238
0.831237
0.831236
0.831235
0.831232
0.831229
0.831224
0.831218
0.831209
0.831195
0.831175
0.831148
0.831109
0.83106
0.830993
0.830887
0.830774
0.830616
0.830405
0.830129
0.829734
0.829233
0.82858
0.82762
0.826506
0.825286
0.823566
0.821546
0.818996
0.816157
0.813195
0.809186
0.805432
0.801394
0.796754
0.792236
0.788716
0.785933
0.783639
0.783419
0.783501
0.78401
0.784496
0.785002
0.784905
0.784062
0.773934
0.75875
0.752579
0.752388
0.752952
0.753317
0.753276
0.753213
0.752799
0.751245
0.748769
0.746333
0.742975
0.738861
0.734851
0.731163
0.728056
0.725301
0.722163
0.719618
0.717687
0.716075
0.714706
0.713772
0.712987
0.712397
0.711992
0.711667
0.711431
0.711232
0.711092
0.710987
0.710907
0.710852
0.710813
0.710785
0.710765
0.71075
0.710741
0.710734
0.710729
0.710726
0.710723
0.710722
0.71072
0.71072
0.710719
0.710719
0.710719
0.710718
0.831239
0.831239
0.831239
0.831239
0.831238
0.831237
0.831236
0.831235
0.831233
0.83123
0.831225
0.831219
0.831209
0.831197
0.831179
0.831153
0.831118
0.831069
0.831003
0.830915
0.830795
0.83063
0.830416
0.830128
0.82974
0.829237
0.828596
0.827664
0.826567
0.825385
0.823704
0.82147
0.818774
0.81609
0.812887
0.808981
0.805135
0.800832
0.79647
0.792221
0.788842
0.785929
0.783686
0.783685
0.783583
0.783748
0.78381
0.78613
0.789667
0.787004
0.773936
0.759576
0.753387
0.752558
0.752839
0.753134
0.752998
0.752952
0.752638
0.751195
0.748908
0.74654
0.742826
0.738821
0.734995
0.731234
0.728148
0.725374
0.722369
0.71965
0.717744
0.71624
0.714824
0.713863
0.713083
0.712479
0.712047
0.711683
0.711423
0.711226
0.711085
0.71098
0.710903
0.710849
0.71081
0.710783
0.710764
0.71075
0.71074
0.710734
0.710729
0.710725
0.710723
0.710721
0.71072
0.71072
0.710719
0.710719
0.710719
0.710718
0.831239
0.831239
0.831239
0.831239
0.831238
0.831237
0.831236
0.831235
0.831233
0.83123
0.831225
0.831219
0.831209
0.831196
0.831178
0.831153
0.831118
0.83107
0.831004
0.830915
0.830793
0.830629
0.830409
0.830115
0.829727
0.829213
0.828544
0.827673
0.826588
0.825238
0.823569
0.821492
0.818936
0.816092
0.812767
0.809012
0.80505
0.800775
0.796484
0.792348
0.788616
0.785626
0.783871
0.783795
0.783299
0.783217
0.783509
0.785172
0.786505
0.780123
0.767565
0.758044
0.752828
0.751741
0.752709
0.753162
0.752938
0.752857
0.752484
0.751335
0.749227
0.746445
0.742659
0.739021
0.735289
0.731507
0.728052
0.725015
0.722272
0.719621
0.717745
0.716342
0.714953
0.713945
0.713161
0.712528
0.712055
0.711694
0.711427
0.711228
0.711085
0.710981
0.710904
0.71085
0.710811
0.710783
0.710764
0.71075
0.71074
0.710734
0.710729
0.710725
0.710723
0.710722
0.71072
0.71072
0.710719
0.710719
0.710719
0.710719
)
;

boundaryField
{
    sides1
    {
        type            calculated;
        value           nonuniform List<scalar> 
20
(
0.710718
0.710718
0.710719
0.710719
0.710719
0.710719
0.710719
0.710718
0.710718
0.710719
0.831239
0.831239
0.831239
0.831239
0.831239
0.831239
0.831239
0.831239
0.831239
0.831239
)
;
    }
    sides2
    {
        type            calculated;
        value           nonuniform List<scalar> 
200
(
0.831239
0.831239
0.831239
0.831239
0.831238
0.831237
0.831236
0.831235
0.831233
0.83123
0.831226
0.83122
0.831211
0.831199
0.831182
0.831158
0.831125
0.83108
0.831017
0.830932
0.830816
0.830659
0.83045
0.830171
0.829804
0.829322
0.8287
0.827902
0.826889
0.825619
0.824034
0.822101
0.81977
0.817002
0.813792
0.810174
0.806191
0.80192
0.797509
0.79308
0.789066
0.785778
0.783814
0.783341
0.783028
0.783739
0.784574
0.786455
0.787313
0.776191
0.764327
0.757493
0.752785
0.751806
0.752557
0.753415
0.75388
0.75388
0.753191
0.751693
0.749313
0.746093
0.742343
0.738241
0.734159
0.730267
0.726736
0.723648
0.721037
0.718844
0.717062
0.715612
0.71446
0.713575
0.712868
0.712329
0.711915
0.711599
0.71136
0.711183
0.711053
0.710958
0.710889
0.710839
0.710804
0.710779
0.710761
0.710748
0.710739
0.710732
0.710728
0.710725
0.710723
0.710721
0.71072
0.71072
0.710719
0.710719
0.710719
0.710718
0.831239
0.831239
0.831239
0.831239
0.831238
0.831237
0.831236
0.831235
0.831233
0.83123
0.831225
0.831219
0.831209
0.831196
0.831178
0.831153
0.831118
0.83107
0.831004
0.830915
0.830793
0.830629
0.830409
0.830115
0.829727
0.829213
0.828544
0.827673
0.826588
0.825238
0.823569
0.821492
0.818936
0.816092
0.812767
0.809012
0.80505
0.800775
0.796484
0.792348
0.788616
0.785626
0.783871
0.783795
0.783299
0.783217
0.783509
0.785172
0.786505
0.780123
0.767565
0.758044
0.752828
0.751741
0.752709
0.753162
0.752938
0.752857
0.752484
0.751335
0.749227
0.746445
0.742659
0.739021
0.735289
0.731507
0.728052
0.725015
0.722272
0.719621
0.717745
0.716342
0.714953
0.713945
0.713161
0.712528
0.712055
0.711694
0.711427
0.711228
0.711085
0.710981
0.710904
0.71085
0.710811
0.710783
0.710764
0.71075
0.71074
0.710734
0.710729
0.710725
0.710723
0.710722
0.71072
0.71072
0.710719
0.710719
0.710719
0.710719
)
;
    }
    empty
    {
        type            empty;
    }
}


// ************************************************************************* //
