/*--------------------------------*- C++ -*----------------------------------*\
| =========                 |                                                 |
| \\      /  F ield         | OpenFOAM: The Open Source CFD Toolbox           |
|  \\    /   O peration     | Version:  3.0.1                                 |
|   \\  /    A nd           | Web:      www.OpenFOAM.org                      |
|    \\/     M anipulation  |                                                 |
\*---------------------------------------------------------------------------*/
FoamFile
{
    version     2.0;
    format      ascii;
    class       volVectorField;
    location    "0.00015";
    object      U;
}
// * * * * * * * * * * * * * * * * * * * * * * * * * * * * * * * * * * * * * //

dimensions      [0 1 -1 0 0 0 0];

internalField   nonuniform List<vector> 
1000
(
(1.45609e-05 -3.60453e-06 0)
(0.000120866 -4.14247e-06 0)
(0.000245835 -5.86126e-06 0)
(0.000340966 -1.19644e-06 0)
(0.000560127 -2.78664e-07 0)
(0.000792089 -2.16277e-06 0)
(0.001062 -4.16963e-06 0)
(0.00163432 -9.72758e-06 0)
(0.00215746 -3.41332e-06 0)
(0.00335815 -2.58043e-05 0)
(0.00434679 1.25424e-06 0)
(0.00635363 9.8849e-06 0)
(0.00892701 2.77783e-05 0)
(0.0125965 4.25369e-05 0)
(0.0177022 4.21893e-05 0)
(0.025092 6.23452e-05 0)
(0.0350726 6.84893e-05 0)
(0.0492419 -2.91078e-06 0)
(0.0681901 6.51703e-05 0)
(0.0953058 0.000384549 0)
(0.129869 0.000489414 0)
(0.179264 0.000858866 0)
(0.243039 0.00145225 0)
(0.330588 0.00239974 0)
(0.443684 0.00264813 0)
(0.595669 0.00340719 0)
(0.789048 0.00432399 0)
(1.04312 0.00503048 0)
(1.3654 0.00559042 0)
(1.77278 0.00571168 0)
(2.28574 0.00621208 0)
(2.91313 0.00363004 0)
(3.6793 -0.00389965 0)
(4.60444 -0.0141784 0)
(5.69807 -0.0376908 0)
(6.96065 -0.0453609 0)
(8.36097 -0.0408413 0)
(9.874 -0.0833199 0)
(11.5514 -0.125313 0)
(13.1258 -0.14183 0)
(14.8329 -0.105358 0)
(15.8941 0.0313406 0)
(16.7678 0.0425206 0)
(17.2224 0.0557012 0)
(16.8055 0.210332 0)
(17.0822 0.322613 0)
(16.7161 0.365254 0)
(16.984 1.10048 0)
(16.7749 1.69389 0)
(15.142 5.41258 0)
(16.3771 2.25584 0)
(15.5361 0.96208 0)
(15.8123 0.373968 0)
(16.2315 0.391838 0)
(16.3822 0.198731 0)
(16.7019 -0.0924041 0)
(16.5949 -0.21184 0)
(16.699 -0.104896 0)
(16.366 -0.0488267 0)
(15.6375 -0.0220071 0)
(14.6613 -0.0474605 0)
(13.3687 -0.0148312 0)
(11.9628 0.000221758 0)
(10.3219 0.0213302 0)
(8.83021 0.0468254 0)
(7.26769 0.0129815 0)
(5.96562 0.000501404 0)
(4.82482 0.00489214 0)
(3.82072 -0.00704396 0)
(2.99365 -0.00746752 0)
(2.39887 -0.00396047 0)
(1.77449 0.00147862 0)
(1.3891 0.00130114 0)
(1.05376 0.00223718 0)
(0.776288 0.00159942 0)
(0.593266 0.00224267 0)
(0.431998 0.00208053 0)
(0.321561 0.00129153 0)
(0.232456 0.000490008 0)
(0.169008 6.28115e-05 0)
(0.121163 0.000310464 0)
(0.0868943 0.000284461 0)
(0.062139 0.000296807 0)
(0.0438409 0.000232009 0)
(0.0310562 8.59609e-05 0)
(0.0218553 4.39542e-05 0)
(0.0153878 5.00303e-05 0)
(0.010741 2.17939e-05 0)
(0.00755772 2.55275e-05 0)
(0.0052101 4.03954e-05 0)
(0.00363054 -6.596e-06 0)
(0.00257408 6.11639e-06 0)
(0.00174431 2.54516e-05 0)
(0.00120785 9.64874e-06 0)
(0.000822195 7.29452e-06 0)
(0.00055331 6.57659e-06 0)
(0.000363308 1.64201e-06 0)
(0.000230664 1.31903e-06 0)
(0.000131961 9.06039e-07 0)
(1.55526e-05 1.56472e-06 0)
(1.21039e-05 -7.62441e-06 0)
(9.97826e-05 -3.81872e-06 0)
(0.000221363 -1.32334e-05 0)
(0.000290592 -5.98699e-06 0)
(0.000551796 -6.52415e-07 0)
(0.000712623 1.65986e-05 0)
(0.00110915 9.04845e-07 0)
(0.00145872 -1.15312e-05 0)
(0.00211656 1.6893e-05 0)
(0.00298984 3.31604e-05 0)
(0.00385596 0.000167546 0)
(0.00553351 0.000417343 0)
(0.00766102 0.000372017 0)
(0.0109824 0.000431115 0)
(0.0156714 0.000602146 0)
(0.0225567 0.000779694 0)
(0.0315251 0.00112823 0)
(0.0444286 0.00110555 0)
(0.0620937 0.00111881 0)
(0.083537 0.00371599 0)
(0.118296 0.0058672 0)
(0.156012 0.00595381 0)
(0.22165 0.00773493 0)
(0.298643 0.0104368 0)
(0.407047 0.0142252 0)
(0.540889 0.0182761 0)
(0.727891 0.0236828 0)
(0.944111 0.0316203 0)
(1.2612 0.0367511 0)
(1.60099 0.04431 0)
(2.09898 0.0445429 0)
(2.63084 0.060471 0)
(3.36623 0.0444651 0)
(4.17399 0.0336696 0)
(5.27292 -0.00874102 0)
(6.21696 -0.01148 0)
(7.77829 -0.0452549 0)
(9.13489 -0.162085 0)
(10.7256 -0.277226 0)
(12.527 -0.325736 0)
(14.0094 -0.215738 0)
(15.3731 0.00301032 0)
(16.4056 0.0462567 0)
(16.8059 0.0770409 0)
(16.5863 0.164305 0)
(16.9267 -0.0284358 0)
(16.7384 -0.154976 0)
(17.0006 -0.112891 0)
(16.7018 -0.116593 0)
(15.6286 2.41774 0)
(16.2431 0.446099 0)
(16.2578 -0.674175 0)
(16.4864 -0.0914141 0)
(16.6243 0.230864 0)
(16.6257 0.250627 0)
(16.7324 -0.0398626 0)
(16.4832 -0.0700798 0)
(16.2642 -0.0291088 0)
(15.7742 -0.00138398 0)
(14.9613 -0.0221771 0)
(13.8882 -0.115148 0)
(12.5085 -0.0687307 0)
(11.1856 -0.0626859 0)
(9.56408 -0.0407151 0)
(8.06057 -3.30996e-05 0)
(6.74728 -0.0481153 0)
(5.43182 -0.0854375 0)
(4.45123 -0.139629 0)
(3.64904 -0.122756 0)
(2.74922 -0.12408 0)
(2.31372 -0.0496359 0)
(1.61078 -0.0175354 0)
(1.31263 -0.0143137 0)
(0.977603 -0.00782859 0)
(0.751115 -0.0171831 0)
(0.521144 -0.0107743 0)
(0.406991 -0.00795263 0)
(0.27926 -0.00845958 0)
(0.201867 -0.00399291 0)
(0.146097 -0.00340692 0)
(0.103194 -0.00136339 0)
(0.0746965 -0.000990353 0)
(0.0521604 -0.000597102 0)
(0.0376715 -0.000489094 0)
(0.0265873 -0.000573086 0)
(0.019311 -0.000416057 0)
(0.0130671 -0.000307747 0)
(0.00975008 -0.000277273 0)
(0.00649284 -0.000132802 0)
(0.00467965 -3.83897e-05 0)
(0.00330207 -9.94923e-05 0)
(0.00220793 -2.44565e-05 0)
(0.00152323 9.09422e-06 0)
(0.00112961 -2.44444e-06 0)
(0.000687822 -4.11748e-07 0)
(0.000515492 3.89826e-06 0)
(0.000327142 -1.56877e-06 0)
(0.00020504 -2.62543e-06 0)
(0.000120617 -2.52544e-06 0)
(1.30852e-05 -1.0678e-06 0)
(1.33101e-05 -3.79893e-06 0)
(0.000117097 -8.40187e-07 0)
(0.00022048 -5.55275e-06 0)
(0.000289588 -6.6238e-06 0)
(0.0005462 -7.46725e-06 0)
(0.000674007 -1.15397e-06 0)
(0.00122459 2.52006e-05 0)
(0.00137557 1.7835e-05 0)
(0.00224688 0.000110255 0)
(0.00300392 0.000228906 0)
(0.0045989 0.000478554 0)
(0.00693302 0.000962603 0)
(0.0105208 0.00142597 0)
(0.0132256 0.00148457 0)
(0.0202935 0.00226873 0)
(0.0267423 0.00221528 0)
(0.0384038 0.00392368 0)
(0.0546909 0.00594393 0)
(0.0722986 0.00708561 0)
(0.100975 0.010965 0)
(0.140914 0.0200355 0)
(0.192503 0.0156483 0)
(0.26571 0.00953033 0)
(0.354766 0.0254219 0)
(0.482775 0.0358764 0)
(0.636123 0.0481616 0)
(0.842441 0.0673705 0)
(1.10971 0.0766723 0)
(1.44095 0.0982676 0)
(1.88562 0.122213 0)
(2.40844 0.142979 0)
(3.08336 0.185796 0)
(3.89499 0.182815 0)
(4.84697 0.213648 0)
(5.88048 0.271725 0)
(7.37099 0.103547 0)
(8.32288 0.00652862 0)
(10.2093 -0.18166 0)
(11.3768 -0.313398 0)
(13.1982 -0.310365 0)
(13.9512 -0.225711 0)
(15.8065 -0.120854 0)
(16.4692 0.0454219 0)
(16.9297 0.102931 0)
(16.7622 -0.182895 0)
(17.0904 -0.367828 0)
(16.6206 -0.244389 0)
(16.1236 0.486645 0)
(16.0099 -2.7478 0)
(16.2311 0.701699 0)
(16.0244 -0.527312 0)
(16.5804 -0.404885 0)
(16.8111 -0.189205 0)
(16.9105 0.166858 0)
(17.1511 0.372522 0)
(17.1604 0.137435 0)
(17.0382 0.247869 0)
(16.7927 0.110534 0)
(16.3539 0.0233457 0)
(15.7442 -0.0786365 0)
(14.7776 -0.292458 0)
(13.6308 -0.17897 0)
(12.2892 -0.258174 0)
(10.6106 -0.226347 0)
(9.27823 -0.110984 0)
(7.54241 -0.211867 0)
(6.68829 -0.391541 0)
(5.01924 -0.301615 0)
(4.21063 -0.240197 0)
(3.19706 -0.208538 0)
(2.4501 -0.11685 0)
(1.96359 -0.0984945 0)
(1.49594 -0.109993 0)
(1.14644 -0.0658209 0)
(0.903572 -0.0222229 0)
(0.600589 -0.0200583 0)
(0.512247 -0.0369148 0)
(0.301174 -0.00865834 0)
(0.269389 -0.0143326 0)
(0.16344 -0.0148133 0)
(0.126941 -0.0109139 0)
(0.090832 -0.00713097 0)
(0.0623222 -0.00410683 0)
(0.0502619 -0.00467652 0)
(0.0327845 -0.00374057 0)
(0.0237402 -0.00186491 0)
(0.0163114 -0.00122188 0)
(0.0116184 -0.00082831 0)
(0.00704901 -0.000258265 0)
(0.00546541 -0.000244319 0)
(0.00376286 -0.00028549 0)
(0.00235438 -0.000130404 0)
(0.00178953 -7.02423e-05 0)
(0.00120843 -3.23867e-05 0)
(0.000783906 -2.40776e-05 0)
(0.000557906 -2.90051e-05 0)
(0.000369349 -1.8777e-05 0)
(0.000230465 -1.57399e-05 0)
(0.000138213 -1.27736e-05 0)
(1.49695e-05 -9.44267e-06 0)
(1.35802e-05 -1.43314e-06 0)
(0.000118275 -3.18441e-07 0)
(0.000222377 -2.92295e-06 0)
(0.000295054 -3.86881e-06 0)
(0.000555735 8.12407e-06 0)
(0.000717727 2.15776e-06 0)
(0.00114393 5.35192e-05 0)
(0.00154387 0.000103044 0)
(0.00232238 0.000149266 0)
(0.00331657 0.000311062 0)
(0.00507831 0.00019524 0)
(0.00707582 -5.38606e-05 0)
(0.0120198 5.96653e-05 0)
(0.0143018 0.000230038 0)
(0.0239722 0.000680381 0)
(0.0312139 0.00158649 0)
(0.0430128 0.00168696 0)
(0.0621967 0.00308283 0)
(0.0842403 0.00633344 0)
(0.119209 0.00584346 0)
(0.15868 0.00636989 0)
(0.234064 0.00935061 0)
(0.275822 0.00508537 0)
(0.374195 0.0120238 0)
(0.508405 0.0164137 0)
(0.646752 0.0224964 0)
(0.902548 0.042381 0)
(1.17368 0.0505683 0)
(1.49278 0.0659446 0)
(1.94275 0.0400698 0)
(2.45092 0.0143381 0)
(3.15986 0.0369033 0)
(3.93633 0.0550808 0)
(4.99296 0.0684419 0)
(6.01007 0.105693 0)
(8.05703 0.0902547 0)
(8.36692 0.0865061 0)
(10.9212 -0.0717628 0)
(11.3812 -0.0537543 0)
(13.6039 0.082798 0)
(14.3387 -0.00135972 0)
(15.7977 0.086726 0)
(16.3765 0.0218827 0)
(17.0738 -0.0151828 0)
(16.8992 -0.214878 0)
(17.0858 -0.0659872 0)
(16.6593 -0.32255 0)
(16.1885 0.0240845 0)
(16.1139 1.5428 0)
(16.365 0.0973811 0)
(15.7202 -0.14285 0)
(16.3624 -0.131126 0)
(16.6803 0.142983 0)
(16.8691 0.150398 0)
(17.1882 0.20541 0)
(17.3553 0.327956 0)
(17.3084 0.368913 0)
(17.3683 0.270369 0)
(16.8469 -0.0726795 0)
(16.1949 -0.24379 0)
(15.2716 -0.439682 0)
(13.8279 -0.32695 0)
(12.6671 -0.283797 0)
(10.6058 -0.236439 0)
(9.49078 -0.0796555 0)
(7.50948 0.0280179 0)
(6.30645 0.000835394 0)
(4.81344 -0.104483 0)
(4.10796 -0.0672939 0)
(3.26799 -0.0616406 0)
(2.46684 -0.0828641 0)
(2.18135 -0.0771352 0)
(1.48267 -0.0494847 0)
(1.20454 -0.0401883 0)
(0.837944 -0.0258124 0)
(0.680632 -0.0196756 0)
(0.516266 -0.0137714 0)
(0.313783 -0.0103191 0)
(0.311671 -0.0111232 0)
(0.179588 -0.00270645 0)
(0.141133 -0.00355279 0)
(0.100462 -0.00681587 0)
(0.066972 -0.00274441 0)
(0.0542196 -0.00140065 0)
(0.0339759 -0.000640973 0)
(0.0236965 -0.000286136 0)
(0.016905 -3.80795e-05 0)
(0.0111216 8.9717e-05 0)
(0.00729382 -0.000119315 0)
(0.00560383 -0.000177608 0)
(0.00414804 -6.70569e-05 0)
(0.00238659 -3.68292e-05 0)
(0.00184513 -8.67189e-06 0)
(0.00123795 -8.58304e-06 0)
(0.000821217 -1.11899e-05 0)
(0.000590209 -1.40885e-05 0)
(0.000369034 -9.0529e-06 0)
(0.000246778 -6.76075e-06 0)
(0.000136326 -2.92128e-06 0)
(1.72177e-05 -4.27845e-06 0)
(1.31013e-05 1.93925e-06 0)
(0.000111902 4.42339e-06 0)
(0.000199432 1.93481e-06 0)
(0.000302846 -1.3787e-06 0)
(0.000510408 2.91874e-06 0)
(0.000796194 1.32278e-05 0)
(0.00117396 2.66319e-05 0)
(0.00175092 3.25804e-05 0)
(0.00270064 2.71871e-05 0)
(0.0036528 9.16813e-05 0)
(0.00580833 0.000387862 0)
(0.00711315 -0.000208307 0)
(0.0111354 -0.000934649 0)
(0.0141359 -0.000670729 3.89169e-31)
(0.0208123 -0.000381399 0)
(0.0290987 0.000683192 0)
(0.0411232 0.00154002 0)
(0.0555001 0.00137668 0)
(0.0798678 0.00154682 0)
(0.112916 0.0014389 0)
(0.15675 -0.00141587 0)
(0.213199 0.00686984 0)
(0.267579 0.0149979 0)
(0.373272 0.00182485 0)
(0.508077 0.00319646 0)
(0.656586 0.00297144 0)
(0.91295 0.00082198 0)
(1.2069 0.04865 0)
(1.56407 0.0345867 0)
(2.03616 0.0087148 0)
(2.66184 -0.0575469 0)
(2.91186 0.0135913 3.09967e-31)
(4.38628 0.0286376 0)
(4.45248 0.0118624 0)
(6.41946 -0.0145041 0)
(7.07879 0.0301322 0)
(8.76002 0.106169 -4.17651e-31)
(10.4158 -0.00749478 0)
(11.1012 0.165897 0)
(13.424 0.4816 3.81741e-31)
(14.7092 0.391474 0)
(15.5762 0.210063 0)
(16.9873 0.0803599 0)
(16.7977 0.0254299 -3.22547e-31)
(17.4504 -0.246976 0)
(16.9174 0.355726 0)
(16.7568 0.137025 0)
(16.2793 0.117035 0)
(16.3429 0.489261 0)
(16.6261 0.0179147 0)
(15.8441 -0.0583138 0)
(16.039 -0.0197542 0)
(16.4149 0.0769699 0)
(16.5001 -0.0367193 0)
(16.7222 0.129831 0)
(17.0931 0.274238 -1.92109e-31)
(17.1314 0.12051 1.85317e-31)
(17.2884 0.275516 0)
(16.7334 -0.00581261 0)
(16.2189 -0.30146 -2.15913e-31)
(15.2292 -0.170833 0)
(13.5623 -0.169568 0)
(12.2732 -0.132712 0)
(10.5985 -0.107961 0)
(8.52553 -0.17276 0)
(7.68743 0.0478316 0)
(6.08317 0.0445433 0)
(5.2463 -0.0734058 0)
(3.87057 -0.0443308 0)
(3.60997 -0.0828409 0)
(2.47404 -0.100565 0)
(2.12101 -0.0316619 2.23961e-31)
(1.49356 -0.00348672 0)
(1.19547 -0.0142569 0)
(0.850121 -0.0134097 0)
(0.670003 -0.00211376 0)
(0.489853 0.000205763 0)
(0.341062 -0.0104964 0)
(0.270955 -0.0034822 0)
(0.170957 0.00478412 0)
(0.145294 0.00135279 0)
(0.0961818 -0.000787902 0)
(0.0625273 -0.000392427 0)
(0.0486343 -0.000594218 0)
(0.0294439 8.45948e-05 0)
(0.0212804 -3.04476e-05 0)
(0.014868 -0.00017391 0)
(0.0100814 -8.18644e-05 0)
(0.00802197 -0.000346963 0)
(0.00501946 -0.000211465 0)
(0.0040167 8.19458e-05 0)
(0.00230691 4.78343e-05 -1.4888e-31)
(0.00178128 -1.8589e-06 0)
(0.00121114 -8.18142e-06 -1.94699e-31)
(0.000819155 -1.37207e-05 0)
(0.000587007 -5.23988e-06 0)
(0.0003787 -2.31945e-06 0)
(0.000245412 2.82568e-06 0)
(0.000139353 1.57623e-06 0)
(1.6245e-05 2.99067e-07 0)
(1.55228e-05 5.00936e-06 0)
(0.000136518 6.63926e-06 0)
(0.000248584 1.38053e-05 0)
(0.000300435 4.39557e-06 0)
(0.000567992 -2.44406e-06 0)
(0.000774305 -2.12525e-05 0)
(0.00114091 9.50486e-08 0)
(0.00176833 -2.35187e-05 0)
(0.00241624 -0.000100724 0)
(0.00379462 -2.79865e-05 0)
(0.00545316 4.97695e-05 0)
(0.00829122 -0.000247486 0)
(0.0101309 -0.000332643 0)
(0.0141891 0.000183785 -3.78266e-31)
(0.0188451 0.000252987 0)
(0.0267681 0.000640194 0)
(0.0382334 0.00249387 0)
(0.0596288 0.00128001 0)
(0.0702659 -0.000937409 0)
(0.116251 0.00278907 0)
(0.146014 -0.00173623 0)
(0.206468 0.00159227 0)
(0.27894 0.00253939 0)
(0.371959 -0.00554696 0)
(0.488487 -0.00611362 0)
(0.685622 -0.0123578 0)
(0.889094 -0.0195857 0)
(1.2604 -0.0251812 0)
(1.65361 -0.0395266 0)
(2.07884 -0.0452026 0)
(2.67673 0.00994769 0)
(2.94877 -0.00299198 -3.27888e-31)
(4.42608 0.00170108 0)
(4.33179 0.0305247 0)
(6.57588 0.0303926 0)
(6.75224 0.0589401 0)
(8.67026 0.0863872 4.44919e-31)
(9.96138 0.273239 0)
(11.1399 0.332924 0)
(13.1335 0.322634 -3.65171e-31)
(14.3331 0.152958 0)
(15.8324 0.118599 0)
(16.8555 0.329934 0)
(17.0798 0.16009 4.65797e-31)
(17.1224 0.456619 0)
(16.7893 0.266251 0)
(16.8044 0.189269 0)
(16.4962 0.0197424 0)
(16.6059 -0.0314172 0)
(16.7757 0.409896 0)
(15.9401 0.02732 0)
(16.1547 -0.187434 0)
(16.3933 -0.0964504 0)
(16.6171 -0.166441 0)
(16.6769 -0.109813 0)
(16.926 -0.107064 1.63974e-31)
(16.779 -0.189209 -1.47664e-31)
(16.9209 -0.235317 0)
(16.5952 -0.0695748 0)
(16.1959 -0.025503 2.52982e-31)
(14.7854 0.0419958 0)
(14.1849 0.0673187 0)
(11.8019 -0.141524 0)
(11.2747 -0.144413 0)
(8.77594 -0.349192 0)
(7.9306 -0.326639 0)
(6.22245 -0.127714 0)
(5.49517 -0.0807528 0)
(4.05723 -0.144487 0)
(3.49879 -0.0661662 0)
(2.47742 -0.0105251 0)
(1.98507 -0.0412413 -1.83339e-31)
(1.46208 0.00387972 0)
(1.16414 0.00240569 0)
(0.825022 0.00462912 0)
(0.64368 0.0197476 0)
(0.470144 0.0150771 0)
(0.336983 0.000957129 0)
(0.255673 0.000460855 0)
(0.167517 9.267e-05 0)
(0.143164 0.00187559 0)
(0.0976759 0.00234601 0)
(0.0666728 -0.000853679 0)
(0.0536764 -6.58344e-05 0)
(0.0323197 0.000376696 0)
(0.0246718 -0.000175321 0)
(0.0172126 -0.000759721 0)
(0.0103 -0.000240603 0)
(0.00826869 -0.000182619 0)
(0.00477661 -0.000155648 0)
(0.00357974 -3.31154e-05 0)
(0.00230878 -2.75198e-06 1.56363e-31)
(0.00187797 -4.10893e-05 0)
(0.00119823 -4.93717e-05 2.01336e-31)
(0.000921359 -2.2396e-05 0)
(0.000546039 -6.73832e-06 0)
(0.000407989 1.98231e-07 0)
(0.000223119 8.42889e-07 0)
(0.00014311 2.71498e-06 0)
(1.55334e-05 1.41605e-06 0)
(1.72332e-05 -4.7131e-07 0)
(0.000132647 -3.5341e-06 0)
(0.000259682 1.88626e-06 0)
(0.000342108 2.50002e-06 0)
(0.000606862 -1.48852e-05 0)
(0.000829208 -4.12483e-06 0)
(0.00111413 -3.13523e-05 0)
(0.00168605 -2.8485e-05 0)
(0.00227713 -2.01367e-05 0)
(0.00329008 -0.000185817 0)
(0.00491389 -0.000492816 0)
(0.00723892 -0.000337481 0)
(0.00974055 0.000248346 0)
(0.0134919 0.000238609 0)
(0.0218009 0.000324703 0)
(0.0308306 -0.000147434 0)
(0.041422 -0.000959299 0)
(0.0732493 -0.000666936 0)
(0.0788623 -0.00151358 0)
(0.125792 -0.00280562 0)
(0.181321 -0.00320916 0)
(0.204564 -0.00587853 0)
(0.326766 -0.00361488 0)
(0.355468 -0.000790079 0)
(0.492018 -0.00681913 0)
(0.637249 -0.0170119 0)
(0.871152 -0.0370018 0)
(1.09829 -0.0428999 0)
(1.4936 -0.00961064 0)
(1.83431 0.0325105 0)
(2.33234 0.118455 0)
(3.00601 0.0265526 0)
(3.71969 0.055016 0)
(4.61508 0.0742144 0)
(5.97232 0.152992 0)
(6.59354 0.259632 0)
(8.57096 0.280324 0)
(9.48793 0.500086 0)
(11.1869 0.36347 0)
(12.9511 0.0568458 0)
(14.3197 -0.0244585 0)
(15.9528 -0.0966679 0)
(16.4876 0.221494 0)
(17.2474 0.521994 0)
(17.1479 0.64367 0)
(17.0807 0.331031 0)
(17.0159 -0.0438294 0)
(16.6389 -0.204021 0)
(16.5725 -0.561649 0)
(17.0489 -0.510501 0)
(16.2856 -0.544022 0)
(16.2766 -0.166327 0)
(16.8526 -0.106587 0)
(16.9724 -0.229681 0)
(16.9244 -0.264479 0)
(17.094 -0.0909631 0)
(16.8448 0.0471546 0)
(16.7756 0.00559441 0)
(16.2952 0.0916697 0)
(15.7882 0.123455 0)
(14.2807 0.114125 0)
(13.6705 -0.195761 0)
(11.9056 -0.295144 0)
(10.7869 -0.395249 0)
(8.94351 -0.297621 0)
(7.64345 -0.271998 0)
(5.88884 -0.310311 0)
(5.0481 -0.251807 0)
(4.02171 -0.066671 0)
(3.00142 -0.0310711 0)
(2.49263 -0.0452213 0)
(1.80702 -0.0598891 0)
(1.3599 -0.0210285 0)
(1.06788 -0.00682651 0)
(0.748624 -0.00306111 0)
(0.589356 0.000846116 0)
(0.457244 -0.000540368 0)
(0.333508 -0.000105084 0)
(0.259189 -0.00356048 0)
(0.178883 -0.00446195 0)
(0.134849 -0.00270679 0)
(0.0950972 0.00040852 0)
(0.0666226 -0.000423642 0)
(0.0499601 0.000128686 0)
(0.0344992 0.000629339 0)
(0.0246163 0.000221136 0)
(0.0178681 0.000393807 0)
(0.0103025 9.27283e-05 0)
(0.00929142 -4.23939e-05 0)
(0.00528223 -5.93278e-05 0)
(0.00424796 -0.000103936 0)
(0.00256103 -0.000109622 0)
(0.00205559 -0.000135149 0)
(0.00124612 -1.10102e-05 0)
(0.000939418 8.64039e-06 0)
(0.000584517 4.45866e-06 0)
(0.000397584 4.11677e-06 0)
(0.000229658 3.77001e-06 0)
(0.000138282 2.99975e-06 0)
(1.53153e-05 3.97627e-06 0)
(1.44895e-05 -7.99979e-06 0)
(0.000111199 -1.20997e-05 0)
(0.000188863 -7.76142e-06 0)
(0.000360491 -2.27422e-05 0)
(0.000450242 -2.47217e-05 0)
(0.000762788 -3.32822e-06 0)
(0.00104824 5.00117e-08 0)
(0.00153433 -2.7361e-05 0)
(0.00232284 -4.22147e-05 0)
(0.00311626 -0.000200626 0)
(0.00497654 -0.000589161 0)
(0.00645452 -0.000411366 0)
(0.00996481 -4.96398e-05 0)
(0.0142102 -0.000583103 0)
(0.0201221 -0.0014224 0)
(0.0295187 -0.0025854 0)
(0.0398523 -0.00534032 0)
(0.0585726 -0.00510709 0)
(0.0787674 -0.00408394 0)
(0.11022 -0.0138835 0)
(0.157234 -0.0140807 0)
(0.194958 -0.0106771 0)
(0.285634 -0.0107653 0)
(0.356446 -0.00856142 0)
(0.494563 -0.00996321 0)
(0.631105 -0.00467744 0)
(0.8769 0.00285124 0)
(1.02894 0.000821761 0)
(1.54611 0.0125317 0)
(1.96312 0.0603028 0)
(2.52312 0.0477685 0)
(3.43721 0.121029 0)
(3.92122 0.167012 0)
(5.43433 0.0817003 0)
(6.18177 0.259892 0)
(7.54981 0.334514 0)
(9.35884 0.344491 0)
(10.3674 0.551816 0)
(12.3361 0.262905 0)
(13.3879 -0.0334072 0)
(15.5602 -0.163978 0)
(15.8764 0.036865 0)
(17.0101 0.238493 0)
(17.4372 0.576478 0)
(17.2279 0.697107 0)
(17.6274 0.666911 0)
(17.2755 0.431724 0)
(17.0327 1.00672 0)
(16.954 1.21356 0)
(17.0763 0.063895 0)
(16.4846 0.621478 0)
(16.4486 0.285157 0)
(17.1267 0.211978 0)
(17.1567 0.142206 0)
(17.2025 0.192297 0)
(17.1938 0.136556 0)
(17.2496 0.323672 0)
(17.3511 0.470719 0)
(16.7837 0.321593 0)
(16.2143 -0.0830956 0)
(15.1786 -0.223353 0)
(14.6229 -0.585525 0)
(12.2763 -0.311715 0)
(11.6998 -0.151871 0)
(9.38943 -0.224912 0)
(8.43852 -0.227273 0)
(6.73818 -0.329156 0)
(5.52648 -0.231265 0)
(3.95481 -0.0778617 0)
(3.37899 -0.0398347 0)
(2.38335 -0.0739047 0)
(1.97032 -0.0672521 0)
(1.31054 -0.038725 0)
(1.25456 -0.0489088 0)
(0.729005 -0.0302745 0)
(0.723965 -0.0467506 0)
(0.482401 -0.0282429 0)
(0.385811 -0.010781 0)
(0.283018 -0.0031349 0)
(0.194766 -0.000445917 0)
(0.149183 -0.000208661 0)
(0.0970258 0.0013421 0)
(0.0717946 0.00120298 0)
(0.048063 0.000629441 0)
(0.0356513 0.000908376 0)
(0.0239214 0.000738366 0)
(0.0174631 0.000885175 0)
(0.0117524 0.00015228 0)
(0.00896907 4.68807e-05 0)
(0.00577105 0.000134844 0)
(0.00415157 9.66914e-05 0)
(0.00274788 4.32682e-05 0)
(0.00184987 2.40942e-05 0)
(0.00113069 1.7201e-05 0)
(0.000808538 2.0682e-05 0)
(0.000536982 1.91652e-05 0)
(0.000342872 1.43907e-05 0)
(0.000233417 9.4851e-06 0)
(0.000123373 5.4059e-06 0)
(1.57588e-05 4.3225e-06 0)
(1.3175e-05 3.48279e-06 0)
(9.71575e-05 2.59812e-06 0)
(0.000180674 8.08548e-07 0)
(0.00030686 2.66238e-06 0)
(0.000418814 4.59869e-06 0)
(0.000672333 -1.26793e-07 0)
(0.000964613 3.824e-06 0)
(0.00154496 -1.86445e-05 0)
(0.00201886 -3.13638e-05 0)
(0.0031371 -5.16773e-05 0)
(0.0041971 -4.7955e-05 0)
(0.00584219 -1.71212e-05 0)
(0.00826534 -0.000115696 0)
(0.0125978 -0.00016464 0)
(0.0162308 -0.00029688 0)
(0.0241822 -0.000510612 0)
(0.0323356 -0.000632459 0)
(0.0466787 -0.001378 0)
(0.0641256 -0.00239341 0)
(0.0918164 -0.002154 0)
(0.118145 -0.00193793 0)
(0.171513 -0.00222191 0)
(0.22923 -0.00221662 0)
(0.319668 -0.00222788 0)
(0.428732 -0.000219264 0)
(0.583453 0.0056983 0)
(0.795123 0.0167258 0)
(1.01327 0.0194385 0)
(1.42131 0.00913373 0)
(1.77431 0.0182805 0)
(2.27914 0.0345487 0)
(2.86961 0.0516852 0)
(3.85034 0.064779 0)
(4.96243 0.0759415 0)
(5.88939 0.0884013 0)
(7.60453 0.0408676 0)
(8.80881 0.0407166 0)
(10.492 0.0144372 0)
(12.191 0.153083 0)
(13.5878 0.133956 0)
(15.5263 0.30128 0)
(16.1952 0.278089 0)
(17.2137 0.199158 0)
(17.9607 0.498051 0)
(17.3986 -0.136946 0)
(17.8762 0.0873487 0)
(17.4095 0.0685746 0)
(17.8346 -0.0250773 0)
(17.4351 -0.368315 0)
(16.7399 -0.922854 0)
(16.4662 0.540224 0)
(16.5945 0.199368 0)
(17.0842 0.246526 0)
(17.1344 0.116763 0)
(17.2152 0.231011 0)
(17.1642 0.285651 0)
(17.4315 0.208804 0)
(17.6041 0.081076 0)
(17.2013 0.21376 0)
(16.5346 -0.0042698 0)
(15.4379 -0.227841 0)
(14.706 -0.281172 0)
(11.7852 -0.173149 0)
(12.0753 -0.14207 0)
(9.18013 -0.231181 0)
(8.67156 -0.328155 0)
(6.87289 -0.106257 0)
(5.81912 0.0185177 0)
(4.04861 -0.0530032 0)
(3.46959 -0.0501961 0)
(2.54343 -0.0203283 0)
(2.08824 -0.0597573 0)
(1.36702 -0.0538122 0)
(1.34305 -0.0632989 0)
(0.739846 -0.0418278 0)
(0.735552 -0.046313 0)
(0.442563 -0.0154867 0)
(0.350041 -0.00876191 0)
(0.243041 -0.00228741 0)
(0.174698 -0.00160406 0)
(0.128468 -0.000865758 0)
(0.0861936 0.000412097 0)
(0.0654256 0.000255093 0)
(0.0439548 0.000175543 0)
(0.0320702 -2.38937e-05 0)
(0.0222747 8.53629e-06 0)
(0.01556 4.04026e-06 0)
(0.011555 1.47078e-06 0)
(0.0069235 8.57878e-05 0)
(0.00513471 0.000114809 0)
(0.00333255 4.66456e-05 0)
(0.00246795 2.6997e-05 0)
(0.00158312 2.53324e-05 0)
(0.00107824 -3.51902e-06 0)
(0.000731587 -1.18652e-05 0)
(0.000488306 -7.04728e-06 0)
(0.000314571 -6.22962e-06 0)
(0.000205854 -3.87316e-06 0)
(0.000112262 -2.40131e-06 0)
(1.48821e-05 -2.59002e-06 0)
(1.49039e-05 4.63273e-06 0)
(0.000114798 3.70035e-06 0)
(0.000213518 2.5216e-06 0)
(0.000340345 5.85513e-06 0)
(0.000505896 9.16839e-06 0)
(0.000772068 4.48749e-06 0)
(0.00107085 -7.84457e-08 0)
(0.00170966 -1.04848e-06 0)
(0.00214673 -2.2864e-06 0)
(0.00342926 4.17366e-06 0)
(0.00450079 3.99294e-05 0)
(0.00670217 7.9093e-05 0)
(0.00954556 2.90468e-05 0)
(0.0134459 6.1693e-05 0)
(0.0191435 8.21351e-05 0)
(0.0269026 2.57401e-05 0)
(0.0375498 -8.43913e-06 0)
(0.0525865 1.67756e-05 0)
(0.0724593 4.1776e-05 0)
(0.100449 0.000345949 0)
(0.138939 0.000285086 0)
(0.190759 0.000132809 0)
(0.259351 0.000962603 0)
(0.35411 0.00163488 0)
(0.476016 0.00324316 0)
(0.643744 0.00681099 0)
(0.86552 0.0139859 0)
(1.14717 0.0115671 0)
(1.50558 0.011117 0)
(1.93103 0.022063 0)
(2.55719 0.0378312 0)
(3.17848 0.0292567 0)
(4.09396 0.0174394 0)
(5.05563 0.0400367 0)
(6.17236 0.000571682 0)
(7.59032 0.00196882 0)
(8.97067 0.000292795 0)
(10.4783 -0.0193284 0)
(12.122 0.0834136 0)
(13.6707 0.124482 0)
(15.3694 0.244365 0)
(16.7366 0.222746 0)
(17.4161 0.0481421 0)
(18.3381 0.356011 0)
(17.6676 -0.311082 0)
(18.0136 -0.361603 0)
(17.4014 -0.444105 0)
(17.6029 -1.32889 0)
(17.0343 -3.4642 0)
(15.7895 -5.47678 0)
(16.3537 -2.01542 0)
(16.5278 -0.64887 0)
(16.6741 -0.413366 0)
(16.8579 -0.177902 0)
(17.2661 0.111058 0)
(17.3948 0.168126 0)
(17.7473 0.00481939 0)
(17.6069 -0.0487703 0)
(17.2798 0.0986775 0)
(16.71 0.0236774 0)
(15.5364 -0.080784 0)
(14.5067 -0.146788 0)
(12.5934 -0.119695 0)
(11.856 -0.121594 0)
(9.33813 -0.113385 0)
(8.56993 -0.143291 0)
(6.4309 -0.0594597 0)
(5.73802 0.0484629 0)
(4.42884 -0.0248404 0)
(3.4545 -0.0279237 0)
(2.86921 -0.00145701 0)
(2.19187 -0.00291024 0)
(1.60422 -0.0142783 0)
(1.29444 -0.0119637 0)
(0.885813 -0.00927949 0)
(0.692776 -0.00720285 0)
(0.489885 -0.00328717 0)
(0.363779 -0.00320129 0)
(0.260793 -0.00272699 0)
(0.186436 -0.00183557 0)
(0.136313 -0.00112723 0)
(0.0953323 -0.000937645 0)
(0.0680747 -0.000579039 0)
(0.0479608 -0.000364738 0)
(0.0336964 -0.000350435 0)
(0.0237451 -0.000246082 0)
(0.0163298 -0.000166471 0)
(0.0116545 -3.66281e-06 0)
(0.00805787 2.92688e-05 0)
(0.00567408 -8.71227e-06 0)
(0.00394372 -2.67807e-05 0)
(0.00272384 -1.68312e-05 0)
(0.00189109 -7.80776e-06 0)
(0.00129462 -1.65315e-05 0)
(0.00088202 -1.50283e-05 0)
(0.000589615 -1.0606e-05 0)
(0.000388669 -9.00546e-06 0)
(0.000243124 -5.78395e-06 0)
(0.000138297 -4.11413e-06 0)
(1.62656e-05 -3.13506e-06 0)
)
;

boundaryField
{
    sides1
    {
        type            zeroGradient;
    }
    sides2
    {
        type            slip;
    }
    empty
    {
        type            empty;
    }
}


// ************************************************************************* //
