/*--------------------------------*- C++ -*----------------------------------*\
| =========                 |                                                 |
| \\      /  F ield         | OpenFOAM: The Open Source CFD Toolbox           |
|  \\    /   O peration     | Version:  2012                                  |
|   \\  /    A nd           | Website:  www.openfoam.com                      |
|    \\/     M anipulation  |                                                 |
\*---------------------------------------------------------------------------*/
FoamFile
{
    version     2.0;
    format      ascii;
    class       volScalarField;
    location    "0.72";
    object      p;
}
// * * * * * * * * * * * * * * * * * * * * * * * * * * * * * * * * * * * * * //

dimensions      [1 -1 -2 0 0 0 0];


internalField   nonuniform List<scalar> 
2268
(
101865
101868
101876
101887
101901
101917
101936
101957
101978
102002
102022
102049
102066
102095
102108
102140
102147
102181
102180
102213
102201
102224
102208
101805
101809
101816
101827
101841
101858
101877
101898
101919
101943
101963
101990
102007
102037
102049
102082
102088
102123
102122
102156
102144
102168
102152
101744
101748
101756
101767
101781
101798
101817
101838
101860
101884
101904
101931
101948
101978
101990
102023
102029
102064
102063
102097
102083
102108
102084
101683
101687
101694
101706
101720
101737
101756
101778
101800
101825
101846
101873
101890
101919
101932
101965
101972
102008
102008
102043
102031
102056
102034
101620
101624
101632
101643
101658
101676
101696
101718
101741
101766
101787
101814
101831
101860
101873
101906
101913
101949
101948
101985
101967
101995
101952
101557
101561
101569
101581
101596
101614
101634
101657
101680
101706
101728
101755
101773
101802
101816
101849
101857
101895
101895
101935
101919
101947
101913
101493
101497
101505
101516
101532
101551
101572
101596
101621
101647
101669
101696
101715
101743
101757
101790
101797
101836
101835
101877
101853
101886
101806
101428
101432
101440
101453
101469
101488
101510
101534
101559
101586
101610
101637
101657
101685
101700
101733
101742
101783
101785
101831
101809
101836
101781
102834
102313
102011
101959
101970
102294
102519
102400
102208
102017
101932
101892
101872
101870
101863
101897
101932
102315
103074
102748
102199
101923
101872
101888
102270
102532
102342
102129
101950
101873
101841
101825
101822
101813
101823
101841
102142
102793
102431
102008
101809
101754
101828
102160
102433
102369
102128
101924
101845
101811
101789
101787
101777
101781
101784
101931
102538
102286
101875
101736
101713
101759
102130
102376
102234
102035
101885
101835
101809
101789
101783
101773
101774
101770
101821
102257
101970
101733
101719
101705
101726
101943
102225
102172
102013
101869
101819
101796
101779
101780
101770
101776
101769
101782
102278
101903
101707
101718
101705
101719
101938
102109
101985
101893
101787
101764
101756
101758
101765
101767
101774
101771
101809
102240
101763
101703
101718
101705
101718
101816
101933
101856
101782
101721
101700
101693
101695
101711
101728
101761
101759
101951
102324
101771
101704
101719
101704
101709
101784
101798
101683
101653
101627
101622
101620
101628
101641
101677
101740
101910
102135
102456
101359
101362
101366
101373
101384
101399
101418
101441
101466
101495
101519
101546
101566
101593
101608
101639
101647
101691
101689
101746
101701
101803
101545
101331
101331
101331
101332
101334
101338
101343
101352
101366
101385
101405
101427
101446
101470
101488
101516
101533
101576
101594
101647
101635
101693
101568
101331
101331
101331
101331
101331
101331
101331
101331
101333
101337
101344
101354
101363
101372
101382
101396
101406
101444
101468
101518
101537
101608
101658
101330
101330
101330
101330
101330
101330
101330
101330
101331
101331
101331
101332
101333
101333
101334
101337
101346
101379
101428
101465
101473
101563
101568
101330
101330
101330
101330
101330
101330
101330
101330
101330
101330
101330
101331
101331
101331
101330
101330
101333
101345
101360
101358
101364
101462
101542
101330
101330
101330
101330
101330
101330
101330
101330
101330
101330
101330
101330
101330
101330
101329
101329
101330
101339
101358
101383
101425
101432
101507
101330
101330
101330
101330
101330
101330
101330
101330
101330
101330
101330
101330
101330
101329
101328
101328
101328
101329
101326
101333
101359
101426
101539
101329
101329
101329
101329
101329
101329
101329
101330
101330
101330
101330
101330
101329
101328
101327
101327
101327
101328
101328
101328
101383
101460
101558
101329
101329
101329
101329
101329
101329
101329
101329
101329
101329
101329
101329
101329
101328
101327
101327
101327
101327
101328
101331
101341
101348
101496
101329
101329
101329
101329
101329
101329
101329
101329
101329
101329
101329
101329
101328
101328
101327
101327
101327
101327
101328
101328
101328
101337
101360
101329
101329
101329
101329
101329
101329
101329
101329
101329
101329
101328
101328
101328
101328
101328
101327
101327
101327
101328
101328
101328
101327
101328
101328
101328
101328
101328
101328
101328
101328
101328
101328
101328
101328
101328
101328
101328
101327
101327
101327
101327
101327
101327
101328
101327
101327
101328
101328
101328
101328
101328
101328
101328
101328
101328
101328
101328
101328
101328
101328
101327
101327
101327
101327
101327
101327
101327
101327
101327
101328
101328
101328
101328
101328
101328
101328
101328
101328
101328
101328
101328
101327
101327
101327
101327
101327
101327
101327
101327
101327
101327
101327
101328
101328
101328
101328
101328
101328
101328
101327
101327
101327
101327
101327
101327
101327
101327
101327
101327
101327
101327
101327
101327
101327
101327
101327
101327
101327
101327
101327
101327
101327
101327
101327
101327
101327
101327
101327
101327
101327
101327
101327
101327
101327
101327
101327
101327
101327
101327
101327
101327
101327
101327
101327
101327
101327
101327
101327
101327
101327
101327
101327
101327
101327
101327
101327
101327
101327
101327
101327
101327
101327
101327
101327
101327
101327
101327
101327
101327
101327
101327
101327
101327
101327
101327
101327
101327
101327
101327
101327
101327
101327
101327
101327
101326
101326
101326
101326
101326
101326
101326
101326
101326
101326
101326
101326
101326
101326
101326
101326
101326
101327
101327
101327
101327
101327
101327
101326
101326
101326
101326
101326
101326
101326
101326
101326
101326
101326
101326
101326
101326
101326
101326
101326
101326
101326
101326
101326
101326
101326
101326
101326
101326
101326
101326
101326
101326
101326
101326
101326
101326
101326
101326
101326
101326
101326
101326
101326
101326
101326
101326
101326
101326
101326
101326
101326
101326
101326
101326
101326
101326
101326
101326
101326
101326
101326
101326
101326
101326
101326
101326
101326
101326
101326
101326
101326
101325
101325
101325
101325
101325
101325
101325
101325
101325
101325
101325
101325
101326
101326
101326
101326
101326
101326
101326
101326
101326
101326
101326
101325
101325
101325
101325
101325
101325
101325
101325
101325
101325
101325
101325
101325
101325
101325
101325
101326
101326
101326
101326
101326
101326
101326
101325
101325
101325
101325
101325
101325
101325
101325
101325
101325
101325
101325
101325
101325
101325
101325
101325
101325
101325
101325
101326
101326
101326
101324
101324
101324
101324
101324
101324
101325
101325
101325
101325
101325
101325
101325
101325
101325
101325
101325
101325
101325
101325
101325
101325
101325
101324
101324
101324
101324
101324
101324
101324
101324
101324
101324
101324
101324
101324
101325
101325
101325
101325
101325
101325
101325
101325
101325
101325
101324
101324
101324
101324
101324
101324
101324
101324
101324
101324
101324
101324
101324
101324
101324
101324
101324
101325
101325
101325
101325
101325
101325
101323
101323
101323
101323
101324
101324
101324
101324
101324
101324
101324
101324
101324
101324
101324
101324
101324
101324
101324
101324
101324
101325
101325
101323
101323
101323
101323
101323
101323
101323
101323
101323
101323
101323
101323
101324
101324
101324
101324
101324
101324
101324
101324
101324
101324
101324
101323
101323
101323
101323
101323
101323
101323
101323
101323
101323
101323
101323
101323
101323
101323
101323
101323
101323
101324
101324
101324
101324
101324
101322
101322
101322
101322
101322
101322
101323
101323
101323
101323
101323
101323
101323
101323
101323
101323
101323
101323
101323
101323
101323
101323
101323
101322
101322
101322
101322
101322
101322
101322
101322
101322
101322
101322
101322
101322
101322
101322
101322
101322
101323
101323
101323
101323
101323
101323
101322
101322
101322
101322
101322
101322
101322
101322
101322
101322
101322
101322
101322
101322
101322
101322
101322
101322
101322
101322
101322
101322
101322
101321
101321
101321
101321
101321
101321
101321
101321
101321
101321
101321
101321
101321
101321
101321
101321
101321
101322
101322
101322
101322
101322
101322
101321
101321
101321
101321
101321
101321
101321
101321
101321
101321
101321
101321
101321
101321
101321
101321
101321
101321
101321
101321
101321
101321
101321
101320
101320
101320
101320
101320
101320
101320
101320
101320
101320
101320
101320
101320
101320
101320
101320
101320
101320
101320
101321
101321
101321
101321
101320
101320
101320
101320
101320
101320
101320
101320
101320
101320
101320
101320
101320
101320
101320
101320
101320
101320
101320
101320
101320
101320
101320
101319
101319
101319
101319
101319
101319
101319
101319
101319
101319
101319
101319
101319
101319
101319
101319
101319
101319
101319
101319
101319
101320
101320
101319
101319
101319
101319
101319
101319
101319
101319
101319
101319
101319
101319
101319
101319
101319
101319
101319
101319
101319
101319
101319
101319
101319
101318
101318
101318
101318
101318
101318
101318
101318
101318
101318
101318
101318
101318
101318
101318
101318
101318
101318
101318
101318
101318
101318
101319
101318
101318
101318
101318
101318
101318
101318
101318
101318
101318
101318
101318
101318
101318
101318
101318
101318
101318
101318
101318
101318
101318
101318
101667
101438
101654
101238
101670
101564
101646
101841
101681
101694
101696
101723
101676
101672
101732
101688
101598
101629
101647
101684
101541
101604
101590
101590
101555
101555
101556
101558
101557
101557
101557
101559
101539
101548
101550
101551
101462
101460
101492
101497
101335
101361
101369
101374
101328
101328
101328
101328
101327
101328
101328
101327
101327
101327
101327
101327
101327
101327
101327
101327
101327
101327
101327
101327
101327
101327
101327
101327
101327
101327
101327
101327
101327
101327
101327
101327
101327
101327
101327
101327
101326
101326
101326
101326
101326
101326
101326
101326
101326
101326
101326
101326
101326
101326
101326
101326
101326
101326
101326
101326
101325
101326
101326
101326
101325
101325
101325
101325
101325
101325
101325
101325
101325
101325
101325
101325
101324
101324
101324
101324
101324
101324
101324
101324
101323
101323
101323
101323
101323
101323
101323
101323
101322
101322
101322
101322
101322
101322
101322
101322
101321
101321
101321
101321
101321
101321
101321
101321
101320
101320
101320
101320
101320
101320
101320
101320
101319
101319
101319
101319
101319
101319
101319
101319
101318
101318
101318
101318
101665
101698
101717
101692
101664
101653
101628
101585
101582
101582
101581
101581
101585
101591
101614
101680
101924
102265
102480
101696
101708
101695
101668
101623
101585
101571
101572
101573
101572
101573
101573
101575
101577
101584
101617
101773
102007
102149
101698
101684
101683
101606
101591
101570
101572
101572
101573
101573
101572
101573
101575
101576
101582
101591
101612
101737
101825
101774
101641
101629
101589
101568
101570
101568
101571
101571
101572
101573
101573
101575
101578
101583
101610
101627
101637
101637
101658
101617
101577
101565
101569
101566
101568
101568
101571
101572
101572
101571
101571
101572
101591
101631
101629
101627
101629
101586
101564
101563
101563
101564
101564
101565
101565
101570
101574
101572
101571
101571
101573
101584
101622
101634
101627
101634
101562
101564
101561
101564
101564
101563
101564
101564
101571
101572
101570
101571
101569
101560
101560
101605
101626
101626
101623
101563
101562
101563
101563
101561
101561
101562
101559
101563
101566
101571
101567
101554
101532
101557
101578
101583
101619
101574
101560
101564
101564
101564
101563
101560
101561
101541
101529
101512
101566
101521
101531
101508
101525
101503
101551
101555
101565
101545
101560
101563
101562
101563
101561
101562
101517
101480
101431
101501
101438
101410
101411
101445
101429
101459
101495
101500
101407
101511
101534
101547
101545
101530
101457
101380
101358
101358
101367
101352
101353
101346
101369
101372
101411
101485
101535
101336
101358
101369
101386
101386
101366
101343
101328
101328
101325
101337
101342
101337
101338
101333
101343
101376
101406
101419
101328
101328
101328
101330
101330
101328
101328
101328
101327
101326
101326
101330
101336
101332
101329
101331
101343
101448
101609
101327
101328
101328
101328
101328
101327
101327
101326
101326
101324
101326
101326
101327
101328
101329
101330
101339
101375
101429
101327
101328
101328
101328
101327
101327
101327
101326
101326
101324
101324
101325
101325
101326
101326
101327
101325
101362
101437
101327
101327
101327
101327
101327
101327
101326
101325
101325
101324
101325
101324
101326
101326
101326
101326
101329
101334
101352
101327
101327
101327
101327
101327
101326
101326
101325
101325
101324
101324
101324
101325
101325
101326
101326
101327
101329
101329
101327
101327
101327
101327
101327
101326
101326
101325
101325
101324
101325
101325
101325
101326
101326
101326
101326
101326
101326
101327
101327
101327
101327
101326
101326
101326
101325
101325
101325
101325
101325
101325
101325
101326
101326
101326
101326
101326
101327
101327
101327
101326
101326
101326
101326
101325
101325
101325
101325
101325
101326
101326
101326
101326
101327
101327
101333
101326
101326
101326
101326
101326
101326
101326
101325
101325
101325
101325
101325
101326
101326
101326
101326
101327
101326
101324
101326
101326
101326
101326
101326
101326
101326
101325
101325
101325
101325
101325
101326
101326
101326
101326
101326
101325
101325
101326
101326
101326
101326
101326
101326
101326
101325
101325
101325
101325
101325
101326
101326
101326
101326
101326
101326
101326
101326
101326
101326
101326
101326
101326
101325
101325
101325
101325
101325
101325
101326
101326
101326
101326
101326
101326
101326
101326
101326
101326
101326
101326
101325
101325
101325
101325
101325
101325
101325
101326
101325
101326
101326
101326
101326
101326
101326
101326
101326
101325
101325
101325
101325
101325
101325
101325
101325
101325
101325
101325
101326
101325
101326
101325
101328
101325
101325
101325
101325
101325
101325
101325
101325
101325
101325
101325
101325
101325
101325
101326
101325
101326
101325
101327
101325
101325
101325
101325
101325
101325
101325
101324
101324
101324
101325
101325
101325
101325
101325
101325
101326
101325
101327
101325
101325
101325
101325
101325
101324
101324
101324
101324
101324
101324
101324
101325
101324
101325
101324
101326
101324
101326
101324
101324
101324
101324
101324
101324
101324
101324
101324
101324
101324
101324
101324
101324
101325
101324
101325
101324
101326
101324
101324
101324
101324
101324
101324
101323
101323
101323
101323
101323
101323
101324
101323
101324
101324
101324
101323
101322
101323
101323
101323
101323
101323
101323
101323
101323
101323
101322
101323
101323
101323
101323
101323
101323
101323
101323
101322
101323
101323
101323
101323
101323
101323
101322
101322
101322
101322
101322
101322
101322
101322
101323
101323
101323
101323
101323
101322
101322
101322
101322
101322
101322
101322
101322
101322
101321
101321
101321
101322
101322
101322
101322
101323
101323
101323
101322
101322
101322
101322
101322
101322
101321
101321
101321
101321
101320
101320
101321
101321
101321
101322
101322
101322
101323
101321
101321
101321
101321
101321
101321
101321
101321
101320
101320
101320
101319
101320
101320
101321
101321
101322
101322
101322
101321
101321
101321
101321
101321
101320
101320
101320
101319
101319
101319
101319
101319
101320
101320
101321
101321
101321
101322
101320
101320
101320
101320
101320
101320
101320
101319
101319
101318
101318
101318
101318
101319
101319
101320
101320
101321
101321
101320
101320
101320
101320
101319
101319
101319
101319
101318
101317
101317
101317
101318
101318
101319
101319
101320
101320
101320
101319
101319
101319
101319
101319
101319
101318
101318
101318
101317
101317
101317
101317
101318
101318
101319
101319
101319
101320
101319
101319
101319
101319
101318
101318
101318
101318
101318
101317
101317
101317
101317
101318
101318
101318
101318
101318
101319
101317
101317
101317
101317
101317
101317
101317
101317
101317
101317
101317
101317
101317
101317
101318
101318
101318
101318
101318
)
;

boundaryField
{
    leftWall
    {
        type            zeroGradient;
    }
    rightWall
    {
        type            zeroGradient;
    }
    lowerWall
    {
        type            zeroGradient;
    }
    atmosphere
    {
        type            fixedValue;
        value           uniform 101325;
    }
    defaultFaces
    {
        type            empty;
    }
}


// ************************************************************************* //
