/*--------------------------------*- C++ -*----------------------------------*\
| =========                 |                                                 |
| \\      /  F ield         | OpenFOAM: The Open Source CFD Toolbox           |
|  \\    /   O peration     | Version:  2012                                  |
|   \\  /    A nd           | Website:  www.openfoam.com                      |
|    \\/     M anipulation  |                                                 |
\*---------------------------------------------------------------------------*/
FoamFile
{
    version     2.0;
    format      ascii;
    class       volScalarField;
    location    "0.72";
    object      pcorr;
}
// * * * * * * * * * * * * * * * * * * * * * * * * * * * * * * * * * * * * * //

dimensions      [1 -1 -2 0 0 0 0];


internalField   nonuniform List<scalar> 
2268
(
101366
101367
101369
101372
101377
101383
101393
101405
101422
101443
101471
101507
101552
101609
101678
101762
101862
101977
102103
102234
102357
102457
102514
101366
101367
101369
101372
101376
101383
101392
101404
101421
101442
101470
101505
101550
101606
101675
101759
101859
101974
102102
102235
102362
102466
102526
101365
101366
101368
101371
101375
101382
101390
101402
101418
101439
101466
101501
101545
101600
101668
101752
101852
101969
102100
102238
102373
102486
102552
101365
101366
101367
101370
101374
101380
101388
101400
101415
101435
101461
101495
101537
101591
101658
101741
101841
101960
102095
102242
102388
102515
102593
101364
101365
101366
101369
101372
101378
101385
101396
101410
101430
101454
101486
101527
101579
101645
101726
101827
101948
102089
102246
102408
102555
102652
101363
101364
101365
101367
101370
101375
101382
101392
101405
101423
101446
101476
101515
101565
101628
101708
101808
101931
102079
102249
102432
102607
102732
101362
101362
101363
101365
101368
101372
101378
101386
101398
101415
101436
101464
101500
101547
101607
101684
101783
101909
102064
102248
102456
102670
102840
101361
101361
101362
101363
101365
101368
101373
101380
101391
101405
101425
101450
101483
101526
101582
101656
101753
101880
102042
102243
102480
102743
102986
104751
104729
104725
104700
104619
104380
103987
103647
103438
103333
103282
103269
103270
103270
103272
103277
103295
103351
103322
104757
104735
104725
104704
104638
104397
103972
103622
103420
103317
103269
103260
103261
103261
103262
103265
103275
103328
103311
104764
104736
104721
104710
104674
104437
103941
103589
103406
103301
103257
103253
103252
103253
103253
103254
103256
103288
103291
104757
104726
104713
104708
104692
104502
103911
103537
103369
103266
103254
103253
103252
103252
103253
103254
103255
103260
103278
104747
104713
104712
104708
104697
104552
103824
103411
103257
103204
103251
103252
103251
103252
103253
103254
103255
103257
103262
104724
104709
104709
104708
104704
104419
103654
103230
103083
103050
103100
103149
103213
103251
103252
103253
103254
103254
103245
104711
104706
104707
104708
104706
104146
103408
103000
102887
102866
102894
102933
102994
103070
103166
103251
103254
103201
103213
104702
104699
104704
104708
104695
103835
103110
102779
102713
102697
102702
102720
102753
102813
102910
103040
103121
103115
103150
101360
101360
101360
101360
101361
101362
101365
101370
101378
101389
101405
101426
101453
101489
101537
101603
101695
101822
101995
102222
102508
102864
103296
101359
101359
101360
101360
101360
101360
101361
101362
101364
101368
101376
101387
101403
101426
101458
101506
101580
101698
101877
102132
102477
102944
103521
101359
101359
101360
101360
101360
101360
101360
101361
101361
101362
101364
101367
101370
101373
101382
101398
101432
101516
101685
101952
102322
102815
103449
101359
101359
101359
101360
101360
101360
101360
101361
101361
101362
101363
101364
101365
101366
101367
101370
101378
101412
101517
101734
102069
102518
103057
101359
101359
101359
101359
101360
101360
101360
101361
101361
101362
101363
101364
101365
101366
101367
101369
101372
101390
101451
101619
101900
102254
102659
101359
101359
101359
101359
101360
101360
101360
101361
101361
101362
101363
101363
101364
101366
101367
101368
101371
101375
101412
101579
101847
102159
102444
101359
101359
101359
101359
101359
101360
101360
101360
101361
101362
101362
101363
101364
101365
101366
101368
101369
101370
101384
101510
101763
102123
102445
101358
101358
101359
101359
101359
101359
101360
101360
101361
101361
101362
101363
101364
101365
101366
101367
101368
101370
101374
101387
101622
102130
102513
101358
101358
101358
101358
101359
101359
101359
101360
101360
101361
101362
101362
101363
101364
101365
101366
101368
101369
101370
101372
101377
101700
102394
101358
101358
101358
101358
101358
101358
101359
101359
101360
101360
101361
101362
101363
101363
101364
101366
101367
101368
101369
101370
101372
101376
101392
101357
101357
101357
101357
101358
101358
101358
101359
101359
101360
101360
101361
101362
101363
101364
101365
101366
101367
101368
101369
101371
101373
101377
101357
101357
101357
101357
101357
101357
101358
101358
101359
101359
101360
101360
101361
101362
101363
101364
101365
101366
101367
101368
101370
101371
101373
101356
101356
101356
101356
101357
101357
101357
101357
101358
101358
101359
101360
101360
101361
101362
101363
101364
101364
101366
101367
101368
101369
101370
101355
101355
101355
101356
101356
101356
101356
101357
101357
101358
101358
101359
101359
101360
101361
101361
101362
101363
101364
101365
101366
101367
101368
101355
101355
101355
101355
101355
101355
101356
101356
101356
101357
101357
101358
101358
101359
101360
101360
101361
101362
101363
101364
101364
101365
101366
101354
101354
101354
101354
101354
101355
101355
101355
101355
101356
101356
101357
101357
101358
101359
101359
101360
101361
101361
101362
101363
101363
101364
101353
101353
101353
101353
101354
101354
101354
101354
101355
101355
101355
101356
101356
101357
101357
101358
101359
101359
101360
101360
101361
101362
101362
101352
101352
101352
101352
101353
101353
101353
101353
101354
101354
101354
101355
101355
101356
101356
101357
101357
101358
101358
101359
101359
101360
101360
101351
101351
101351
101352
101352
101352
101352
101352
101353
101353
101353
101354
101354
101355
101355
101355
101356
101356
101357
101357
101358
101358
101359
101350
101351
101351
101351
101351
101351
101351
101351
101352
101352
101352
101353
101353
101353
101354
101354
101355
101355
101355
101356
101356
101357
101357
101350
101350
101350
101350
101350
101350
101350
101350
101351
101351
101351
101351
101352
101352
101352
101353
101353
101354
101354
101354
101355
101355
101355
101349
101349
101349
101349
101349
101349
101349
101349
101350
101350
101350
101350
101351
101351
101351
101352
101352
101352
101353
101353
101353
101353
101354
101348
101348
101348
101348
101348
101348
101348
101348
101348
101349
101349
101349
101349
101350
101350
101350
101351
101351
101351
101351
101352
101352
101352
101347
101347
101347
101347
101347
101347
101347
101347
101347
101348
101348
101348
101348
101348
101349
101349
101349
101349
101350
101350
101350
101350
101351
101345
101346
101346
101346
101346
101346
101346
101346
101346
101346
101347
101347
101347
101347
101347
101348
101348
101348
101348
101349
101349
101349
101349
101344
101344
101344
101345
101345
101345
101345
101345
101345
101345
101345
101346
101346
101346
101346
101346
101347
101347
101347
101347
101347
101347
101348
101343
101343
101343
101343
101343
101344
101344
101344
101344
101344
101344
101344
101345
101345
101345
101345
101345
101345
101346
101346
101346
101346
101346
101342
101342
101342
101342
101342
101342
101343
101343
101343
101343
101343
101343
101343
101343
101344
101344
101344
101344
101344
101344
101345
101345
101345
101341
101341
101341
101341
101341
101341
101341
101341
101342
101342
101342
101342
101342
101342
101342
101342
101343
101343
101343
101343
101343
101343
101343
101340
101340
101340
101340
101340
101340
101340
101340
101340
101340
101341
101341
101341
101341
101341
101341
101341
101341
101342
101342
101342
101342
101342
101339
101339
101339
101339
101339
101339
101339
101339
101339
101339
101339
101339
101340
101340
101340
101340
101340
101340
101340
101340
101340
101340
101341
101338
101338
101338
101338
101338
101338
101338
101338
101338
101338
101338
101338
101338
101338
101338
101339
101339
101339
101339
101339
101339
101339
101339
101336
101336
101336
101337
101337
101337
101337
101337
101337
101337
101337
101337
101337
101337
101337
101337
101337
101337
101338
101338
101338
101338
101338
101335
101335
101335
101335
101335
101335
101335
101335
101336
101336
101336
101336
101336
101336
101336
101336
101336
101336
101336
101336
101336
101336
101336
101334
101334
101334
101334
101334
101334
101334
101334
101334
101334
101334
101334
101335
101335
101335
101335
101335
101335
101335
101335
101335
101335
101335
101333
101333
101333
101333
101333
101333
101333
101333
101333
101333
101333
101333
101333
101333
101333
101333
101333
101334
101334
101334
101334
101334
101334
101332
101332
101332
101332
101332
101332
101332
101332
101332
101332
101332
101332
101332
101332
101332
101332
101332
101332
101332
101332
101332
101332
101332
101330
101330
101330
101331
101331
101331
101331
101331
101331
101331
101331
101331
101331
101331
101331
101331
101331
101331
101331
101331
101331
101331
101331
101329
101329
101329
101329
101329
101329
101329
101329
101329
101329
101329
101329
101329
101329
101330
101330
101330
101330
101330
101330
101330
101330
101330
101328
101328
101328
101328
101328
101328
101328
101328
101328
101328
101328
101328
101328
101328
101328
101328
101328
101328
101328
101328
101328
101328
101328
101327
101327
101327
101327
101327
101327
101327
101327
101327
101327
101327
101327
101327
101327
101327
101327
101327
101327
101327
101327
101327
101327
101327
101326
101326
101326
101326
101326
101326
101326
101326
101326
101326
101326
101326
101326
101326
101326
101326
101326
101326
101326
101326
101326
101326
101326
103679
103875
104081
104316
103704
103808
103948
104215
103686
103784
103876
104009
103441
103596
103669
103727
102931
103079
103188
103206
102536
102527
102531
102546
102523
102525
102527
102531
102517
102521
102525
102530
102493
102511
102521
102528
102131
102337
102331
102355
101381
101379
101379
101414
101374
101374
101374
101375
101371
101371
101372
101372
101369
101369
101369
101369
101366
101367
101367
101367
101364
101365
101365
101365
101362
101363
101363
101363
101361
101361
101361
101361
101359
101359
101359
101359
101357
101357
101357
101357
101355
101356
101356
101356
101354
101354
101354
101354
101352
101352
101352
101352
101351
101351
101351
101351
101349
101349
101349
101349
101348
101348
101348
101348
101346
101346
101346
101346
101345
101345
101345
101345
101343
101343
101343
101343
101342
101342
101342
101342
101341
101341
101341
101341
101339
101339
101339
101339
101338
101338
101338
101338
101336
101336
101336
101336
101335
101335
101335
101335
101334
101334
101334
101334
101332
101332
101332
101332
101331
101331
101331
101331
101330
101330
101330
101330
101328
101328
101328
101328
101327
101327
101327
101327
101326
101326
101326
101326
104691
104693
104700
104703
104192
103271
102683
102594
102593
102595
102597
102600
102603
102608
102623
102681
102855
102961
103025
104678
104685
104690
104274
103369
102676
102591
102590
102591
102593
102595
102598
102600
102603
102608
102624
102666
102800
102855
104294
104675
104274
103369
102645
102584
102585
102587
102589
102592
102594
102597
102599
102602
102605
102609
102625
102681
102713
103843
103870
103137
102571
102575
102578
102582
102585
102587
102590
102593
102596
102599
102602
102605
102608
102613
102615
102642
103106
102708
102564
102566
102569
102574
102578
102582
102586
102589
102591
102594
102597
102601
102605
102609
102613
102614
102614
102552
102555
102558
102561
102565
102569
102574
102580
102584
102588
102590
102593
102596
102601
102607
102612
102613
102614
102614
102542
102549
102553
102557
102560
102564
102570
102577
102584
102587
102588
102590
102595
102607
102613
102620
102614
102614
102614
102538
102545
102549
102552
102555
102558
102564
102574
102583
102585
102585
102586
102586
102472
102415
102489
102613
102614
102612
102537
102544
102546
102548
102550
102552
102554
102539
102429
102521
102577
102550
102239
102006
102049
102184
102385
102554
102488
102466
102535
102542
102545
102546
102546
102540
102217
101968
102040
102362
101967
101525
101435
101619
101819
102004
102152
102171
101736
102399
102536
102538
102540
102539
102017
101501
101374
101415
101496
101374
101372
101371
101375
101482
101647
101780
101829
101377
101378
101386
101522
101530
101393
101375
101372
101371
101371
101371
101370
101370
101368
101366
101362
101376
101479
101528
101372
101373
101374
101375
101375
101373
101371
101370
101369
101368
101368
101368
101368
101365
101363
101363
101363
101343
101336
101370
101370
101370
101370
101370
101369
101369
101368
101367
101366
101366
101364
101362
101362
101362
101362
101364
101367
101383
101368
101368
101368
101368
101368
101367
101367
101366
101365
101364
101363
101362
101361
101360
101360
101361
101364
101384
101433
101365
101366
101366
101366
101365
101365
101365
101364
101363
101363
101362
101361
101360
101359
101359
101358
101356
101357
101383
101363
101363
101364
101364
101363
101363
101363
101362
101362
101361
101360
101359
101359
101358
101357
101356
101355
101354
101355
101361
101361
101362
101362
101361
101361
101361
101360
101360
101359
101359
101358
101357
101356
101356
101355
101354
101353
101353
101359
101360
101360
101360
101359
101359
101359
101358
101358
101358
101357
101356
101356
101355
101354
101354
101353
101352
101351
101358
101358
101358
101358
101358
101357
101357
101357
101356
101356
101355
101355
101354
101354
101353
101353
101352
101351
101346
101356
101356
101356
101356
101356
101356
101355
101355
101355
101354
101354
101354
101353
101353
101352
101352
101351
101350
101349
101354
101354
101354
101354
101354
101354
101354
101354
101353
101353
101353
101352
101352
101351
101351
101350
101350
101350
101349
101353
101353
101353
101353
101353
101352
101352
101352
101352
101351
101351
101351
101350
101350
101350
101349
101349
101349
101349
101351
101351
101351
101351
101351
101351
101351
101350
101350
101350
101350
101349
101349
101349
101348
101348
101348
101348
101348
101349
101349
101350
101349
101349
101349
101349
101349
101349
101349
101348
101348
101348
101347
101347
101347
101347
101347
101348
101348
101348
101348
101348
101348
101348
101348
101347
101347
101347
101347
101347
101346
101346
101346
101346
101346
101346
101347
101346
101346
101346
101346
101346
101346
101346
101346
101346
101346
101345
101345
101345
101345
101345
101344
101344
101344
101345
101345
101345
101345
101345
101345
101345
101345
101345
101344
101344
101344
101344
101344
101343
101343
101343
101343
101343
101343
101344
101344
101344
101344
101343
101343
101343
101343
101343
101343
101343
101343
101342
101342
101342
101342
101341
101341
101341
101342
101342
101342
101342
101342
101342
101342
101342
101342
101342
101341
101341
101341
101341
101341
101340
101340
101340
101338
101341
101341
101341
101341
101341
101341
101340
101340
101340
101340
101340
101340
101340
101340
101339
101339
101339
101338
101337
101339
101339
101339
101339
101339
101339
101339
101339
101339
101339
101339
101339
101338
101338
101338
101338
101338
101337
101337
101338
101338
101338
101338
101338
101338
101338
101338
101338
101338
101337
101337
101337
101337
101337
101337
101336
101336
101336
101336
101337
101337
101336
101336
101336
101336
101336
101336
101336
101336
101336
101336
101336
101336
101335
101335
101335
101335
101335
101335
101335
101335
101335
101335
101335
101335
101335
101335
101335
101335
101335
101334
101334
101334
101334
101334
101334
101334
101334
101334
101334
101334
101334
101334
101334
101334
101334
101334
101333
101333
101333
101333
101333
101333
101333
101333
101332
101332
101332
101332
101332
101332
101332
101332
101332
101332
101332
101332
101332
101332
101332
101332
101332
101332
101332
101331
101331
101331
101331
101331
101331
101331
101331
101331
101331
101331
101331
101331
101331
101331
101331
101331
101331
101330
101330
101330
101330
101330
101330
101330
101330
101330
101330
101330
101330
101330
101330
101329
101329
101329
101329
101329
101329
101328
101328
101328
101328
101328
101328
101328
101328
101328
101328
101328
101328
101328
101328
101328
101328
101328
101328
101328
101327
101327
101327
101327
101327
101327
101327
101327
101327
101327
101327
101327
101327
101327
101327
101327
101327
101327
101327
101326
101326
101326
101326
101326
101326
101326
101326
101326
101326
101326
101326
101326
101326
101326
101326
101326
101326
101326
)
;

boundaryField
{
    leftWall
    {
        type            zeroGradient;
    }
    rightWall
    {
        type            zeroGradient;
    }
    lowerWall
    {
        type            zeroGradient;
    }
    atmosphere
    {
        type            fixedValue;
        value           uniform 101325;
    }
    defaultFaces
    {
        type            empty;
    }
}


// ************************************************************************* //
