/*--------------------------------*- C++ -*----------------------------------*\
| =========                 |                                                 |
| \\      /  F ield         | OpenFOAM: The Open Source CFD Toolbox           |
|  \\    /   O peration     | Version:  2012                                  |
|   \\  /    A nd           | Website:  www.openfoam.com                      |
|    \\/     M anipulation  |                                                 |
\*---------------------------------------------------------------------------*/
FoamFile
{
    version     2.0;
    format      ascii;
    class       surfaceScalarField;
    location    "0.72";
    object      phi;
}
// * * * * * * * * * * * * * * * * * * * * * * * * * * * * * * * * * * * * * //

dimensions      [0 3 -1 0 0 0 0];
oriented        oriented;


internalField   nonuniform List<scalar> 
4432
(
-1.09192e-06
1.09192e-06
-2.05432e-06
9.62407e-07
-3.15633e-06
1.10201e-06
-4.47701e-06
1.32068e-06
-5.85698e-06
1.37997e-06
-7.05385e-06
1.19687e-06
-8.25079e-06
1.19693e-06
-9.60187e-06
1.35109e-06
-1.07699e-05
1.16806e-06
-1.18305e-05
1.06058e-06
-1.27626e-05
9.32109e-07
-1.34701e-05
7.07448e-07
-1.38369e-05
3.66818e-07
-1.39081e-05
7.1171e-08
-1.37816e-05
-1.26456e-07
-1.34893e-05
-2.92295e-07
-1.28895e-05
-5.99828e-07
-1.18202e-05
-1.06924e-06
-1.03116e-05
-1.50858e-06
-7.85782e-06
-2.45383e-06
-5.46596e-06
-2.39185e-06
-1.36707e-06
-4.09889e-06
-1.36705e-06
-1.11354e-06
2.20546e-06
-2.08238e-06
1.93125e-06
-3.17099e-06
2.19061e-06
-4.46037e-06
2.61007e-06
-5.82163e-06
2.74123e-06
-7.02925e-06
2.4045e-06
-8.24915e-06
2.41683e-06
-9.60569e-06
2.70762e-06
-1.0758e-05
2.32039e-06
-1.1836e-05
2.13854e-06
-1.27909e-05
1.88705e-06
-1.34942e-05
1.41078e-06
-1.38851e-05
7.5768e-07
-1.39849e-05
1.70984e-07
-1.38702e-05
-2.41193e-07
-1.35716e-05
-5.90848e-07
-1.29759e-05
-1.19559e-06
-1.19559e-05
-2.08922e-06
-1.0534e-05
-2.93045e-06
-8.28091e-06
-4.70692e-06
-6.11468e-06
-4.55808e-06
-2.35299e-06
-7.86057e-06
-3.72001e-06
-1.11041e-06
3.31587e-06
-2.05173e-06
2.87257e-06
-3.11622e-06
3.2551e-06
-4.37156e-06
3.86541e-06
-5.74168e-06
4.11135e-06
-7.03177e-06
3.69459e-06
-8.35231e-06
3.73737e-06
-9.7484e-06
4.10372e-06
-1.09216e-05
3.49363e-06
-1.20004e-05
3.21735e-06
-1.29117e-05
2.79833e-06
-1.3576e-05
2.07509e-06
-1.39437e-05
1.12537e-06
-1.40575e-05
2.84706e-07
-1.39491e-05
-3.49569e-07
-1.36527e-05
-8.87203e-07
-1.30306e-05
-1.81776e-06
-1.1975e-05
-3.14482e-06
-1.0514e-05
-4.39144e-06
-8.19282e-06
-7.02806e-06
-5.75703e-06
-6.99387e-06
-1.62678e-06
-1.19908e-05
-5.34676e-06
-1.12015e-06
4.43602e-06
-2.07492e-06
3.82734e-06
-3.15578e-06
4.33596e-06
-4.36229e-06
5.07192e-06
-5.67176e-06
5.42081e-06
-6.97081e-06
4.99364e-06
-8.3162e-06
5.08276e-06
-9.70054e-06
5.48806e-06
-1.09032e-05
4.69629e-06
-1.20252e-05
4.33932e-06
-1.29889e-05
3.76203e-06
-1.37438e-05
2.83006e-06
-1.41971e-05
1.57861e-06
-1.43437e-05
4.313e-07
-1.42153e-05
-4.77895e-07
-1.39238e-05
-1.17872e-06
-1.33751e-05
-2.36648e-06
-1.24391e-05
-4.08086e-06
-1.107e-05
-5.76054e-06
-8.81613e-06
-9.28188e-06
-6.17612e-06
-9.63387e-06
-1.55845e-06
-1.66085e-05
-6.90518e-06
-1.0329e-06
5.46892e-06
-1.99219e-06
4.78662e-06
-3.06115e-06
5.40492e-06
-4.23699e-06
6.24776e-06
-5.53971e-06
6.72353e-06
-6.97546e-06
6.42939e-06
-8.4996e-06
6.6069e-06
-9.95853e-06
6.947e-06
-1.12142e-05
5.95194e-06
-1.23323e-05
5.45748e-06
-1.32287e-05
4.65834e-06
-1.39311e-05
3.53247e-06
-1.43237e-05
1.97128e-06
-1.44533e-05
5.60842e-07
-1.43286e-05
-6.02603e-07
-1.40905e-05
-1.41676e-06
-1.35766e-05
-2.8804e-06
-1.26973e-05
-4.96014e-06
-1.13599e-05
-7.09803e-06
-9.14607e-06
-1.14957e-05
-6.0864e-06
-1.26935e-05
-3.36839e-07
-2.2358e-05
-7.24201e-06
-9.64559e-07
6.43348e-06
-2.05142e-06
5.87349e-06
-3.16449e-06
6.51799e-06
-4.28661e-06
7.36988e-06
-5.47393e-06
7.91086e-06
-6.87997e-06
7.83542e-06
-8.39592e-06
8.12285e-06
-9.81848e-06
8.36956e-06
-1.11388e-05
7.27228e-06
-1.23852e-05
6.7039e-06
-1.34281e-05
5.70116e-06
-1.42863e-05
4.39072e-06
-1.47754e-05
2.46036e-06
-1.48953e-05
6.80743e-07
-1.4728e-05
-7.69873e-07
-1.45423e-05
-1.60244e-06
-1.41564e-05
-3.26633e-06
-1.34801e-05
-5.63643e-06
-1.22684e-05
-8.30975e-06
-1.01893e-05
-1.35747e-05
-6.83722e-06
-1.60456e-05
-1.2789e-07
-2.90674e-05
-7.3699e-06
-7.80547e-07
7.21402e-06
-1.87404e-06
6.96698e-06
-2.9923e-06
7.63625e-06
-4.08115e-06
8.45873e-06
-5.25646e-06
9.08616e-06
-6.84833e-06
9.42729e-06
-8.62786e-06
9.90239e-06
-1.02209e-05
9.96263e-06
-1.16191e-05
8.67049e-06
-1.28177e-05
7.90242e-06
-1.37459e-05
6.62938e-06
-1.45284e-05
5.17328e-06
-1.49439e-05
2.87578e-06
-1.5025e-05
7.61891e-07
-1.48735e-05
-9.21344e-07
-1.48044e-05
-1.67153e-06
-1.45058e-05
-3.56497e-06
-1.39742e-05
-6.16801e-06
-1.28221e-05
-9.4619e-06
-1.09072e-05
-1.54896e-05
-7.00395e-06
-1.99489e-05
8.56697e-07
-3.6928e-05
-6.51319e-06
-6.86376e-07
7.90037e-06
-1.78224e-06
8.06282e-06
-2.94048e-06
8.79449e-06
-4.00417e-06
9.52241e-06
-5.09383e-06
1.01758e-05
-6.67795e-06
1.10114e-05
-8.45608e-06
1.16805e-05
-1.01027e-05
1.16093e-05
-1.16358e-05
1.02036e-05
-1.29531e-05
9.21964e-06
-1.40993e-05
7.77559e-06
-1.51197e-05
6.19369e-06
-1.5581e-05
3.33706e-06
-1.55347e-05
7.1567e-07
-1.53045e-05
-1.15161e-06
-1.53517e-05
-1.62432e-06
-1.52259e-05
-3.6908e-06
-1.49779e-05
-6.41596e-06
-1.40108e-05
-1.0429e-05
-1.27429e-05
-1.67575e-05
-9.31395e-06
-2.33778e-05
-6.06216e-06
-4.01798e-05
-1.25753e-05
-7.6987e-05
7.69711e-05
-0.000119205
4.21556e-05
-0.000137136
1.79541e-05
-0.000139706
2.60244e-06
-0.000129464
-1.01907e-05
-0.000111405
-1.79984e-05
-0.000101459
-9.92183e-06
-0.000109395
7.95511e-06
-0.000125911
1.65263e-05
-0.000137005
1.11488e-05
-0.00014251
5.54601e-06
-0.000144456
1.99257e-06
-0.000144862
4.60542e-07
-0.000143944
-8.65545e-07
-0.000142677
-1.20691e-06
-0.000142951
3.42816e-07
-0.000139406
-3.43851e-06
-0.000106705
-3.24299e-05
-0.000106663
-6.12048e-05
0.000138201
-9.57329e-05
7.66961e-05
-0.000109564
3.18124e-05
-0.000112078
5.14965e-06
-0.00010237
-1.98498e-05
-8.26116e-05
-3.77032e-05
-7.53833e-05
-1.71187e-05
-8.84659e-05
2.10566e-05
-0.000105836
3.39217e-05
-0.000115795
2.11764e-05
-0.000120307
1.01399e-05
-0.00012164
3.4076e-06
-0.000122236
1.12873e-06
-0.000123192
1.56015e-07
-0.000125855
1.53546e-06
-0.000130368
4.97828e-06
-0.000119742
-1.38373e-05
-7.71576e-05
-7.46114e-05
-0.00018378
-4.90262e-05
0.000187352
-7.07675e-05
9.84896e-05
-8.53945e-05
4.65112e-05
-9.05454e-05
1.04097e-05
-7.21035e-05
-3.81571e-05
-3.89644e-05
-7.07739e-05
-1.91745e-05
-3.68633e-05
-2.78371e-05
2.99093e-05
-5.0803e-05
5.7099e-05
-7.49672e-05
4.55545e-05
-0.000101388
3.68034e-05
-0.000118053
2.03539e-05
-0.00012567
9.01445e-06
-0.000130873
5.60762e-06
-0.00013619
7.12686e-06
-0.000135382
4.46648e-06
-0.000101657
-4.72045e-05
-4.86106e-05
-0.00012731
-0.000232451
-3.69959e-05
0.000224404
-5.95521e-05
0.000121089
-8.49201e-05
7.21218e-05
-8.5571e-05
1.13757e-05
-4.96491e-05
-7.36989e-05
-1.28321e-05
-0.000107521
1.21604e-05
-6.185e-05
4.22699e-05
-1.5304e-07
5.30294e-05
4.65469e-05
4.55257e-05
5.33495e-05
3.37647e-05
4.89044e-05
7.91068e-06
4.64819e-05
-2.7455e-05
4.46499e-05
-5.99366e-05
3.83791e-05
-9.33084e-05
4.08016e-05
-8.25723e-05
-5.99221e-06
-5.74644e-05
-7.2025e-05
-2.23953e-05
-0.000161986
-0.000254759
-2.76343e-05
0.000252172
-4.56125e-05
0.000139325
-7.08451e-05
0.000107955
-6.19041e-05
2.74209e-06
-1.61384e-05
-0.000119103
9.77346e-06
-0.000133323
2.32043e-05
-7.52757e-05
4.49895e-05
-2.19372e-05
6.434e-05
2.72061e-05
7.71507e-05
4.05996e-05
8.66893e-05
3.95045e-05
9.42944e-05
3.91289e-05
9.99035e-05
3.93998e-05
9.42505e-05
4.43244e-05
8.45165e-05
5.08084e-05
4.59256e-05
3.28656e-05
1.16376e-05
-3.74644e-05
1.3992e-05
-0.000163967
-0.000240734
-1.32416e-05
0.00026548
-2.8704e-05
0.000155194
-1.62374e-05
9.57298e-05
3.39011e-06
-1.66508e-05
2.17145e-05
-0.000136999
2.50401e-05
-0.000136629
3.69196e-05
-8.71545e-05
5.26842e-05
-3.77007e-05
6.71263e-05
1.27652e-05
7.86718e-05
2.90553e-05
8.54083e-05
3.27715e-05
9.08781e-05
3.36761e-05
9.53853e-05
3.49439e-05
9.86514e-05
4.12085e-05
9.82062e-05
5.15856e-05
8.45986e-05
4.67825e-05
5.95431e-05
-1.21304e-05
3.00276e-05
-0.000134294
-0.000210611
1.60504e-06
0.000263982
-3.778e-05
0.000194934
-1.29504e-05
7.11447e-05
4.03695e-05
-6.97374e-05
3.5866e-05
-0.000132262
3.45654e-05
-0.000135313
4.30821e-05
-9.56707e-05
5.43401e-05
-4.89547e-05
6.61243e-05
9.83548e-07
7.75172e-05
1.76633e-05
8.46485e-05
2.56411e-05
8.99288e-05
2.83967e-05
9.44653e-05
3.04082e-05
9.81014e-05
3.75746e-05
0.000101202
4.85147e-05
0.000100954
4.71611e-05
8.69278e-05
2.08069e-06
3.14777e-05
-7.88051e-05
-0.000178922
3.92336e-06
0.000260094
-2.64937e-05
0.0002257
-8.77001e-06
5.36651e-05
4.40135e-05
-0.000109973
3.86529e-05
-0.000126825
3.92251e-05
-0.000135874
4.7671e-05
-0.000104108
5.7171e-05
-5.83625e-05
6.62538e-05
-8.00529e-06
7.53586e-05
8.6301e-06
8.16069e-05
1.94365e-05
8.68282e-05
2.3207e-05
9.12511e-05
2.60009e-05
9.50867e-05
3.37411e-05
9.72182e-05
4.63851e-05
9.49926e-05
4.9388e-05
7.88299e-05
1.82469e-05
2.43603e-05
-2.4328e-05
-0.000154431
-9.30312e-07
8.84864e-06
-2.79521e-06
9.94544e-06
-5.00952e-06
1.10257e-05
-7.36006e-06
1.18846e-05
-9.72089e-06
1.25427e-05
-1.27638e-05
1.40572e-05
-1.60768e-05
1.49943e-05
-1.97068e-05
1.52392e-05
-2.36932e-05
1.41901e-05
-2.73932e-05
1.29196e-05
-3.06671e-05
1.10496e-05
-3.31084e-05
8.63495e-06
-3.36669e-05
3.89557e-06
-3.31843e-05
2.33106e-07
-3.26509e-05
-1.68499e-06
-3.32804e-05
-9.94859e-07
-3.34917e-05
-3.47954e-06
-3.3563e-05
-6.34459e-06
-3.28429e-05
-1.11491e-05
-3.504e-05
-1.45604e-05
-3.35526e-05
-2.48652e-05
-3.82584e-05
-3.54739e-05
-4.66572e-05
-4.16934e-06
-2.62604e-06
1.14942e-05
-6.66242e-06
1.40041e-05
-1.43002e-05
1.86901e-05
-2.25022e-05
2.01261e-05
-2.58659e-05
1.59598e-05
-2.64538e-05
1.47096e-05
-2.7206e-05
1.58172e-05
-2.88421e-05
1.69424e-05
-3.05315e-05
1.59287e-05
-3.16067e-05
1.40099e-05
-3.20131e-05
1.14609e-05
-3.17769e-05
8.40038e-06
-3.14855e-05
3.60468e-06
-3.19161e-05
6.63772e-07
-3.30905e-05
-5.10631e-07
-3.55084e-05
1.42304e-06
-3.77994e-05
-1.18853e-06
-4.03612e-05
-3.7828e-06
-4.34579e-05
-8.0524e-06
-4.95257e-05
-8.49253e-06
-5.89975e-05
-1.53935e-05
-7.37778e-05
-2.06932e-05
-3.81017e-05
-8.22447e-05
-8.42003e-06
1.99196e-05
-1.62967e-05
2.18862e-05
-2.40217e-05
2.6421e-05
-2.9611e-05
2.57221e-05
-3.33357e-05
1.96932e-05
-3.67422e-05
1.81298e-05
-4.02122e-05
1.93098e-05
-4.5263e-05
2.20296e-05
-4.93802e-05
2.01052e-05
-5.04234e-05
1.51438e-05
-5.01015e-05
1.1225e-05
-4.92018e-05
7.56064e-06
-4.55748e-05
1.39642e-08
-3.80999e-05
-6.79915e-06
-3.06726e-05
-7.93605e-06
-2.69894e-05
-2.25766e-06
-2.76657e-05
-5.10254e-07
-3.25363e-05
1.0871e-06
-3.73763e-05
-3.21189e-06
-4.53024e-05
-5.66438e-07
-5.78077e-05
-2.88796e-06
-7.7377e-05
-1.12373e-06
-4.92329e-06
-0.000110562
-9.47942e-06
2.94041e-05
-1.76466e-05
3.00585e-05
-2.22371e-05
3.10166e-05
-2.52379e-05
2.87281e-05
-3.34346e-05
2.78949e-05
-4.53352e-05
3.00356e-05
-5.57151e-05
2.96954e-05
-6.42684e-05
3.05898e-05
-7.16633e-05
2.75106e-05
-7.68615e-05
2.0361e-05
-8.03647e-05
1.4759e-05
-8.35917e-05
1.08258e-05
-8.20006e-05
-1.55223e-06
-7.43239e-05
-1.44606e-05
-6.75938e-05
-1.4647e-05
-6.88089e-05
-1.01964e-06
-7.54379e-05
6.14809e-06
-7.44173e-05
7.47439e-08
-5.98404e-05
-1.77249e-05
-4.84646e-05
-1.19012e-05
-4.95057e-05
-1.8005e-06
-6.37647e-05
1.31354e-05
1.37569e-05
-8.24444e-05
-8.08661e-06
3.74958e-05
-1.605e-05
3.8027e-05
-2.36019e-05
3.85737e-05
-3.21574e-05
3.72888e-05
-4.28802e-05
3.86229e-05
-5.50243e-05
4.21851e-05
-6.7561e-05
4.22375e-05
-7.92424e-05
4.22765e-05
-9.25221e-05
4.07959e-05
-0.000110398
3.82426e-05
-0.000130489
3.48569e-05
-0.000159186
3.95318e-05
-0.000210333
4.96012e-05
-0.000285734
6.09506e-05
-0.000349963
4.95923e-05
-0.000358308
7.36464e-06
-0.000318911
-3.31616e-05
-0.000265099
-5.35956e-05
-0.000209669
-7.29019e-05
-0.000156304
-6.50761e-05
-0.000118173
-3.97821e-05
-0.000101208
-3.6513e-06
6.84203e-06
-9.4261e-05
-8.17617e-06
4.56772e-05
-1.62086e-05
4.60646e-05
-2.4516e-05
4.68864e-05
-3.42893e-05
4.70672e-05
-4.51674e-05
4.95063e-05
-5.69105e-05
5.39334e-05
-7.1542e-05
5.68745e-05
-8.98345e-05
6.05744e-05
-0.000113584
6.45514e-05
-0.000146763
7.14272e-05
-0.000189353
7.74524e-05
-0.000244003
9.41891e-05
-0.000320527
0.000126134
-0.000406447
0.000146875
-0.00046365
0.000106797
-0.000451894
-4.38022e-06
-0.000399667
-8.53337e-05
-0.000351204
-0.000101669
-0.000320086
-0.000103688
-0.000288446
-9.66171e-05
-0.000247762
-8.01784e-05
-0.000201571
-4.92429e-05
-3.45051e-05
-0.00015977
-7.49192e-06
5.31743e-05
-1.5141e-05
5.37189e-05
-2.31688e-05
5.49194e-05
-3.23901e-05
5.62937e-05
-4.24556e-05
5.95771e-05
-5.31037e-05
6.45868e-05
-6.56918e-05
6.9468e-05
-8.1845e-05
7.67331e-05
-0.000103515
8.62266e-05
-0.000133959
0.000101877
-0.000175447
0.000118947
-0.000226003
0.000144752
-0.000276153
0.000176293
-0.000318831
0.000189555
-0.000345386
0.000133355
-0.000355996
6.23569e-06
-0.000359388
-8.18733e-05
-0.000353133
-0.000107814
-0.000349618
-0.000107041
-0.000342503
-0.000102746
-0.00032508
-9.6688e-05
-0.00029491
-7.92778e-05
-6.8962e-05
-0.000260815
-7.11338e-06
6.02929e-05
-1.43484e-05
6.09592e-05
-2.18392e-05
6.24155e-05
-2.99131e-05
6.43729e-05
-3.82517e-05
6.7921e-05
-4.68869e-05
7.32274e-05
-5.65679e-05
7.91544e-05
-6.77803e-05
8.7951e-05
-8.07945e-05
9.92464e-05
-9.63963e-05
0.000117485
-0.000116863
0.000139419
-0.000142812
0.000170709
-0.000168378
0.000201867
-0.000196748
0.000217931
-0.000240944
0.000177557
-0.000296049
6.13447e-05
-0.000322862
-5.50532e-05
-0.000326266
-0.000104399
-0.000328392
-0.000104318
-0.000325187
-0.000104498
-0.000326709
-9.51058e-05
-0.000330835
-7.58275e-05
-5.90487e-05
-0.000340788
-6.3185e-06
6.66166e-05
-1.26856e-05
6.73315e-05
-1.91505e-05
6.88857e-05
-2.60277e-05
7.12553e-05
-3.30756e-05
7.49742e-05
-4.01482e-05
8.03055e-05
-4.749e-05
8.65017e-05
-5.50097e-05
9.54763e-05
-6.21801e-05
0.000106422
-6.7521e-05
0.000122832
-7.05677e-05
0.000142472
-6.98489e-05
0.000169997
-6.60574e-05
0.000198083
-6.30383e-05
0.00021492
-8.24945e-05
0.000197019
-0.000141925
0.000120781
-0.0002189
2.19273e-05
-0.000277049
-4.62402e-05
-0.000290977
-9.02562e-05
-0.000284648
-0.000109706
-0.000286962
-9.25112e-05
-0.000294076
-6.88842e-05
-4.53464e-05
-0.000308543
-5.54591e-06
7.21678e-05
-1.10827e-05
7.28735e-05
-1.65879e-05
7.43962e-05
-2.21368e-05
7.68095e-05
-2.75235e-05
8.03663e-05
-3.25726e-05
8.536e-05
-3.72912e-05
9.12258e-05
-4.13534e-05
9.95441e-05
-4.41818e-05
0.000109257
-4.40938e-05
0.00012275
-3.91441e-05
0.000137528
-2.57331e-05
0.000156592
-3.24814e-06
0.000175605
2.15805e-05
0.000190099
3.51722e-05
0.000183435
1.19594e-05
0.000144
-5.69958e-05
9.08875e-05
-0.000142445
3.92162e-05
-0.00021556
-1.71328e-05
-0.000261945
-6.33165e-05
-0.000275064
-7.9029e-05
-0.00026163
-8.10572e-05
-4.6218e-05
-0.000260518
-4.64689e-06
7.68198e-05
-9.28122e-06
7.75131e-05
-1.39319e-05
7.90522e-05
-1.84689e-05
8.13517e-05
-2.26675e-05
8.45702e-05
-2.63745e-05
8.90724e-05
-2.94194e-05
9.42761e-05
-3.14e-05
0.00010153
-3.16765e-05
0.000109539
-2.93088e-05
0.000120388
-2.30142e-05
0.00013124
-1.06172e-05
0.000144202
9.55507e-06
0.000155439
3.60061e-05
0.000163655
5.95177e-05
0.000159931
6.56318e-05
0.000137894
5.08377e-05
0.000105688
9.64938e-06
8.04119e-05
-7.12744e-05
6.37982e-05
-0.000174205
3.96218e-05
-0.000237755
-1.54711e-05
-0.000254658
-6.41485e-05
-5.32187e-05
-0.00024733
-3.97155e-06
8.07966e-05
-7.87683e-06
8.14235e-05
-1.15853e-05
8.27658e-05
-1.49994e-05
8.4771e-05
-1.79328e-05
8.75089e-05
-2.02037e-05
9.13487e-05
-2.15717e-05
9.56496e-05
-2.17193e-05
0.000101683
-2.00767e-05
0.000107902
-1.58963e-05
0.000116213
-8.47682e-06
0.000123826
3.40999e-06
0.000132321
2.04107e-05
0.000138445
4.13831e-05
0.000142689
6.1523e-05
0.000139798
7.04982e-05
0.000128925
6.47615e-05
0.000111431
4.99625e-05
9.52177e-05
2.70281e-05
8.67395e-05
-2.46709e-05
9.13284e-05
-0.00011632
7.61849e-05
-0.000209022
2.85616e-05
-1.92687e-05
-0.000242961
-3.23761e-06
8.40393e-05
-6.39586e-06
8.45869e-05
-9.38847e-06
8.57636e-05
-1.20793e-05
8.7467e-05
-1.42801e-05
8.97149e-05
-1.58465e-05
9.29205e-05
-1.64587e-05
9.62672e-05
-1.58433e-05
0.000101073
-1.35447e-05
0.000105609
-9.05187e-06
0.000111726
-2.00701e-06
0.000116787
7.99443e-06
0.000122325
2.118e-05
0.000125266
3.71939e-05
0.000126682
5.38392e-05
0.000123159
6.56539e-05
0.000117117
7.04135e-05
0.000106678
6.71791e-05
9.84591e-05
6.05347e-05
9.33907e-05
5.49499e-05
9.69207e-05
2.8049e-05
0.000103094
-3.64038e-05
9.30219e-05
5.02216e-05
-0.000105887
-2.68733e-06
8.67317e-05
-5.23112e-06
8.71358e-05
-7.50287e-06
8.80404e-05
-9.41844e-06
8.93877e-05
-1.07731e-05
9.10747e-05
-1.1459e-05
9.36117e-05
-1.11909e-05
9.60043e-05
-9.75509e-06
9.96431e-05
-6.83812e-06
0.000102698
-2.03102e-06
0.000106925
4.80729e-06
0.000109955
1.37751e-05
0.000113364
2.46303e-05
0.000114416
3.65796e-05
0.000114738
4.86211e-05
0.000111123
5.93203e-05
0.000106424
6.69603e-05
9.90444e-05
7.14567e-05
9.39694e-05
7.61517e-05
8.87024e-05
8.4135e-05
8.89447e-05
9.67996e-05
9.04363e-05
0.000105992
8.38377e-05
6.36609e-05
9.25607e-05
-2.17716e-06
8.89138e-05
-4.2467e-06
8.92103e-05
-6.10342e-06
8.99022e-05
-7.64682e-06
9.09362e-05
-8.69085e-06
9.21239e-05
-9.10504e-06
9.4031e-05
-8.64389e-06
9.55484e-05
-7.14359e-06
9.81481e-05
-4.34078e-06
9.99002e-05
2.13553e-08
0.000102568
6.03725e-06
0.000103944
1.37232e-05
0.000105683
2.28801e-05
0.000105265
3.296e-05
0.000104665
4.31399e-05
0.000100949
5.24005e-05
9.717e-05
6.06359e-05
9.08152e-05
6.77237e-05
8.68882e-05
7.41313e-05
8.23013e-05
8.31461e-05
7.99369e-05
9.53287e-05
7.82605e-05
0.000105144
7.40294e-05
5.8842e-05
0.000109971
-1.82066e-06
9.07394e-05
-3.52353e-06
9.09181e-05
-4.99226e-06
9.13759e-05
-6.11665e-06
9.20656e-05
-6.71939e-06
9.27317e-05
-6.69261e-06
9.40093e-05
-5.82696e-06
9.46879e-05
-4.01898e-06
9.63453e-05
-1.10494e-06
9.69914e-05
2.99621e-06
9.84724e-05
8.37579e-06
9.85702e-05
1.49699e-05
9.90948e-05
2.26509e-05
9.75901e-05
3.11252e-05
9.61961e-05
3.9785e-05
9.22955e-05
4.82347e-05
8.87265e-05
5.61193e-05
8.29367e-05
6.41845e-05
7.88294e-05
7.25706e-05
7.39216e-05
8.21284e-05
7.03858e-05
9.42213e-05
6.61743e-05
0.000106295
6.19629e-05
5.46507e-05
0.000110494
-1.58094e-06
9.23251e-05
-3.054e-06
9.2396e-05
-4.3264e-06
9.26531e-05
-5.30144e-06
9.30455e-05
-5.84197e-06
9.32771e-05
-5.83861e-06
9.40109e-05
-5.08654e-06
9.39408e-05
-3.55738e-06
9.48212e-05
-1.01257e-06
9.44518e-05
2.54059e-06
9.49244e-05
7.22115e-06
9.3895e-05
1.30021e-05
9.33193e-05
1.96781e-05
9.09196e-05
2.71843e-05
8.86956e-05
3.49316e-05
8.45539e-05
4.29268e-05
8.07372e-05
5.05735e-05
7.52959e-05
5.85402e-05
7.08688e-05
6.67594e-05
6.57086e-05
7.55585e-05
6.15931e-05
8.52549e-05
5.64844e-05
9.58778e-05
5.13467e-05
4.64349e-05
0.0001041
-1.43745e-06
9.37673e-05
-2.77182e-06
9.37351e-05
-3.92954e-06
9.38156e-05
-4.80574e-06
9.39264e-05
-5.29309e-06
9.37693e-05
-5.23934e-06
9.3962e-05
-4.55905e-06
9.32655e-05
-3.1711e-06
9.34383e-05
-8.6931e-07
9.2155e-05
2.27952e-06
9.17807e-05
6.4478e-06
8.97319e-05
1.15497e-05
8.82227e-05
1.74094e-05
8.50652e-05
2.40405e-05
8.207e-05
3.1027e-05
7.75729e-05
3.85174e-05
7.32525e-05
4.61207e-05
6.76983e-05
5.41192e-05
6.28763e-05
6.26422e-05
5.71916e-05
7.15531e-05
5.26885e-05
8.04463e-05
4.75974e-05
8.97651e-05
4.20344e-05
3.84809e-05
9.77257e-05
-1.44557e-06
9.52175e-05
-2.79139e-06
9.50856e-05
-3.9761e-06
9.50049e-05
-4.87596e-06
9.4831e-05
-5.39289e-06
9.42909e-05
-5.42443e-06
9.39983e-05
-4.93104e-06
9.27769e-05
-3.77074e-06
9.22828e-05
-1.85547e-06
9.02447e-05
7.46594e-07
8.91836e-05
4.2179e-06
8.62656e-05
8.54287e-06
8.39028e-05
1.36371e-05
7.99762e-05
1.9558e-05
7.61544e-05
2.59806e-05
7.11556e-05
3.30709e-05
6.61678e-05
4.05019e-05
6.02728e-05
4.84778e-05
5.49061e-05
5.69453e-05
4.87299e-05
6.60721e-05
4.35676e-05
7.52261e-05
3.84494e-05
8.48657e-05
3.24009e-05
2.88105e-05
9.45424e-05
-1.57684e-06
9.67988e-05
-3.06228e-06
9.65755e-05
-4.39604e-06
9.63432e-05
-5.4654e-06
9.59049e-05
-6.20796e-06
9.5038e-05
-6.53311e-06
9.43281e-05
-6.41798e-06
9.26664e-05
-5.67276e-06
9.15423e-05
-4.21871e-06
8.87953e-05
-1.9335e-06
8.69032e-05
1.18825e-06
8.31488e-05
5.09713e-06
7.99989e-05
9.77075e-06
7.53076e-05
1.51546e-05
7.07757e-05
2.11765e-05
6.51389e-05
2.7886e-05
5.94636e-05
3.51796e-05
5.29845e-05
4.3122e-05
4.69692e-05
5.16595e-05
4.01979e-05
6.09736e-05
3.42593e-05
7.05094e-05
2.89193e-05
8.03543e-05
2.25619e-05
1.86408e-05
9.05301e-05
-1.81028e-06
9.86135e-05
-3.54971e-06
9.83193e-05
-5.11898e-06
9.79169e-05
-6.4471e-06
9.72374e-05
-7.46405e-06
9.60594e-05
-8.02789e-06
9.48964e-05
-8.14483e-06
9.27878e-05
-7.64205e-06
9.10441e-05
-6.56293e-06
8.77208e-05
-4.71711e-06
8.50621e-05
-2.21288e-06
8.06492e-05
1.0033e-06
7.67875e-05
5.00885e-06
7.13069e-05
9.71831e-06
6.60712e-05
1.52795e-05
5.95827e-05
2.16487e-05
5.30994e-05
2.87921e-05
4.58463e-05
3.68044e-05
3.89622e-05
4.55338e-05
3.14738e-05
5.52664e-05
2.45322e-05
6.56085e-05
1.85828e-05
7.65999e-05
1.15761e-05
6.97431e-06
8.8272e-05
-2.18827e-06
0.000100806
-4.33389e-06
0.000100469
-6.27689e-06
9.98641e-05
-7.99715e-06
9.89619e-05
-9.42557e-06
9.74921e-05
-1.04306e-05
9.59058e-05
-1.10441e-05
9.34057e-05
-1.10625e-05
9.10668e-05
-1.05957e-05
8.72585e-05
-9.38727e-06
8.38582e-05
-7.49273e-06
7.87592e-05
-4.76128e-06
7.40607e-05
-1.13027e-06
6.76806e-05
3.24339e-06
6.17022e-05
8.5927e-06
5.42382e-05
1.47336e-05
4.69634e-05
2.18127e-05
3.87722e-05
2.99062e-05
3.08737e-05
3.88987e-05
2.24865e-05
4.90384e-05
1.43977e-05
6.00467e-05
7.57972e-06
7.19713e-05
-3.43182e-07
-5.73596e-06
8.4687e-05
-2.70044e-06
0.000103511
-5.37671e-06
0.00010315
-7.83679e-06
0.000102328
-1.00862e-05
0.000101215
-1.2053e-05
9.9463e-05
-1.36052e-05
9.74622e-05
-1.47697e-05
9.45742e-05
-1.53203e-05
9.16216e-05
-1.53998e-05
8.73423e-05
-1.47605e-05
8.32231e-05
-1.34766e-05
7.74797e-05
-1.14136e-05
7.20021e-05
-8.54123e-06
6.48127e-05
-4.83592e-06
5.80015e-05
-2.94336e-08
4.94363e-05
5.6584e-06
4.12803e-05
1.25217e-05
3.19137e-05
2.05755e-05
2.28247e-05
2.97289e-05
1.33379e-05
4.0306e-05
3.82552e-06
5.21719e-05
-4.28106e-06
6.54214e-05
-1.35876e-05
-2.01895e-05
7.98803e-05
-3.37912e-06
0.000106894
-6.73796e-06
0.000106512
-9.88934e-06
0.000105484
-1.28404e-05
0.00010417
-1.5507e-05
0.000102134
-1.77839e-05
9.97431e-05
-1.96977e-05
9.64921e-05
-2.10554e-05
9.29834e-05
-2.19615e-05
8.82526e-05
-2.21749e-05
8.34407e-05
-2.1717e-05
7.70261e-05
-2.03967e-05
7.06861e-05
-1.82081e-05
6.26284e-05
-1.50244e-05
5.48222e-05
-1.07606e-05
4.51769e-05
-5.49658e-06
3.60207e-05
1.18953e-06
2.52321e-05
9.15865e-06
1.48601e-05
1.84656e-05
4.03553e-06
2.93725e-05
-7.07672e-06
4.17817e-05
-1.66855e-05
5.58912e-05
-2.76923e-05
-3.57884e-05
7.14949e-05
-4.16495e-06
0.000111062
-8.30278e-06
0.000110654
-1.22741e-05
0.000109459
-1.60681e-05
0.000107968
-1.96e-05
0.000105669
-2.27844e-05
0.000102931
-2.56157e-05
9.93272e-05
-2.79188e-05
9.52904e-05
-2.97352e-05
9.00729e-05
-3.08603e-05
8.45696e-05
-3.13754e-05
7.75451e-05
-3.11333e-05
7.0448e-05
-3.01323e-05
6.16314e-05
-2.81536e-05
5.28476e-05
-2.51303e-05
4.21578e-05
-2.08644e-05
3.1759e-05
-1.51457e-05
1.95176e-05
-7.93883e-06
7.65754e-06
1.21379e-06
-5.1127e-06
1.22238e-05
-1.80824e-05
2.50737e-05
-2.95309e-05
4.01208e-05
-4.2735e-05
-5.27847e-05
5.71215e-05
-5.07507e-06
0.000116141
-1.01051e-05
0.000115688
-1.5015e-05
0.000114372
-1.97575e-05
0.000112714
-2.42638e-05
0.000110179
-2.84658e-05
0.000107137
-3.23279e-05
0.000103193
-3.57248e-05
9.8691e-05
-3.86845e-05
9.30363e-05
-4.10384e-05
8.69274e-05
-4.28058e-05
7.93162e-05
-4.37286e-05
7.13747e-05
-4.37392e-05
6.16459e-05
-4.26004e-05
5.17127e-05
-4.04339e-05
3.99954e-05
-3.69082e-05
2.82373e-05
-3.20268e-05
1.46403e-05
-2.54416e-05
1.07644e-06
-1.68438e-05
-1.37064e-05
-6.48962e-06
-2.84324e-05
6.11627e-06
-4.21328e-05
2.12165e-05
-5.78311e-05
-7.01193e-05
3.85553e-05
-6.01688e-06
0.000122161
-1.1991e-05
0.000121665
-1.79065e-05
0.000120291
-2.36963e-05
0.000118508
-2.93114e-05
0.000115798
-3.46838e-05
0.000112513
-3.97487e-05
0.000108261
-4.44044e-05
0.00010335
-4.86246e-05
9.72601e-05
-5.22452e-05
9.05516e-05
-5.52537e-05
8.23283e-05
-5.74751e-05
7.35998e-05
-5.89895e-05
6.3164e-05
-5.95559e-05
5.22829e-05
-5.90403e-05
3.94836e-05
-5.68689e-05
2.60696e-05
-5.31288e-05
1.09041e-05
-4.75701e-05
-4.47849e-06
-4.04645e-05
-2.08081e-05
-3.16596e-05
-3.72334e-05
-1.99349e-05
-5.38533e-05
-5.8177e-06
-7.19441e-05
-8.67419e-05
1.08091e-05
-7.00259e-06
0.000129167
-1.39602e-05
0.000128626
-2.08795e-05
0.000127214
-2.7682e-05
0.000125314
-3.43404e-05
0.00012246
-4.07978e-05
0.000118974
-4.69914e-05
0.000114458
-5.28452e-05
0.000109208
-5.83108e-05
0.000102729
-6.32616e-05
9.55058e-05
-6.76846e-05
8.67549e-05
-7.1385e-05
7.73037e-05
-7.42202e-05
6.60027e-05
-7.58625e-05
5.39287e-05
-7.63965e-05
4.0021e-05
-7.56884e-05
2.5365e-05
-7.4035e-05
9.25433e-06
-7.15328e-05
-6.97694e-06
-6.80973e-05
-2.42398e-05
-6.1625e-05
-4.37017e-05
-5.14582e-05
-6.40162e-05
-3.891e-05
-8.44884e-05
-0.000102465
-2.31833e-05
-8.00182e-06
0.000137172
-1.59852e-05
0.000136613
-2.39736e-05
0.000135205
-3.18957e-05
0.000133239
-3.9729e-05
0.000130296
-4.7415e-05
0.000126663
-5.48861e-05
0.000121933
-6.20705e-05
0.000116395
-6.88927e-05
0.000109555
-7.52348e-05
0.000101851
-8.10429e-05
9.25663e-05
-8.61716e-05
8.24356e-05
-9.06871e-05
7.05216e-05
-9.44723e-05
5.77172e-05
-9.75471e-05
4.30991e-05
-0.000100087
2.79081e-05
-0.000102765
1.19359e-05
-0.000104005
-5.7326e-06
-0.000100664
-2.75773e-05
-9.28161e-05
-5.15466e-05
-8.19808e-05
-7.48482e-05
-6.88035e-05
-9.76625e-05
-0.000118734
-5.25307e-05
-8.91224e-06
0.000146087
-1.78116e-05
0.000145515
-2.67185e-05
0.000144115
-3.55778e-05
0.000142101
-4.43784e-05
0.0001391
-5.308e-05
0.000135368
-6.16234e-05
0.000130479
-6.99559e-05
0.000124731
-7.80035e-05
0.000117605
-8.56949e-05
0.000109546
-9.2995e-05
9.98694e-05
-9.98262e-05
8.92699e-05
-0.000106153
7.68515e-05
-0.000112164
6.37309e-05
-0.000118557
4.94955e-05
-0.00012585
3.52052e-05
-0.000132019
1.81085e-05
-0.000131416
-6.33286e-06
-0.000124948
-3.40418e-05
-0.000116011
-6.0481e-05
-0.000104707
-8.61492e-05
-9.10968e-05
-0.000111269
-0.000135437
-7.43909e-05
-9.99835e-06
0.000156089
-1.9995e-05
0.000155514
-3.00103e-05
0.000154133
-4.00111e-05
0.000152105
-4.99855e-05
0.000149077
-5.99034e-05
0.000145288
-6.97095e-05
0.000140288
-7.93687e-05
0.000134393
-8.88218e-05
0.000127061
-9.80673e-05
0.000118794
-0.000107157
0.000108962
-0.000116303
9.84192e-05
-0.000126036
8.65873e-05
-0.000136502
7.42006e-05
-0.000147424
6.04211e-05
-0.000155732
4.35156e-05
-0.000155578
1.7958e-05
-0.000149521
-1.2387e-05
-0.000142359
-4.12011e-05
-0.000133589
-6.92475e-05
-0.000122394
-9.73413e-05
-0.000108163
-0.000125497
-0.000153062
-9.05357e-05
-1.05966e-05
0.000166688
-2.12363e-05
0.000166157
-3.19656e-05
0.000164865
-4.27668e-05
0.000162909
-5.36275e-05
0.00015994
-6.45273e-05
0.000156191
-7.54253e-05
0.000151189
-8.63093e-05
0.000145279
-9.71488e-05
0.000137904
-0.000107967
0.000129615
-0.000118859
0.000119857
-0.000130139
0.000109702
-0.000142633
9.9084e-05
-0.000156902
8.8474e-05
-0.000169704
7.32261e-05
-0.000172896
4.67096e-05
-0.000167752
1.28169e-05
-0.000162217
-1.79189e-05
-0.000155493
-4.79227e-05
-0.000145837
-7.89006e-05
-0.000133346
-0.00010983
-0.000117714
-0.000141127
-0.000171503
-9.92696e-05
-1.19519e-05
0.000178642
-2.38948e-05
0.000178102
-3.58237e-05
0.000176797
-4.7789e-05
0.000174877
-5.98367e-05
0.000171991
-7.19668e-05
0.000168323
-8.41718e-05
0.000163396
-9.65361e-05
0.000157646
-0.000109163
0.000150533
-0.000122338
0.000142793
-0.000136427
0.000133948
-0.000151878
0.000125156
-0.000167802
0.000115011
-0.000181087
0.000101761
-0.000185446
7.75873e-05
-0.000181339
4.26047e-05
-0.000176991
8.47183e-06
-0.000171537
-2.33701e-05
-0.000162853
-5.66045e-05
-0.000151886
-8.98656e-05
-0.000138265
-0.000123448
-0.000122782
-0.000156609
-0.000188811
-0.000105473
-1.20336e-05
0.000190678
-2.41561e-05
0.000190227
-3.64393e-05
0.000189082
-4.89264e-05
0.000187366
-6.1668e-05
0.000184734
-7.46931e-05
0.000181351
-8.79709e-05
0.000176677
-0.000101528
0.000171205
-0.000115481
0.000164489
-0.000130173
0.000157487
-0.000146178
0.000149956
-0.000163788
0.000142769
-0.00018182
0.000133047
-0.000192631
0.000112574
-0.000191155
7.6113e-05
-0.000186629
3.80808e-05
-0.000182156
4.00177e-06
-0.000174407
-3.11175e-05
-0.000164433
-6.65762e-05
-0.000152673
-0.000101624
-0.000139353
-0.000136766
-0.000124878
-0.000171081
-0.000204599
-0.000109089
-1.33166e-05
0.000203997
-2.67707e-05
0.000203683
-4.04763e-05
0.00020279
-5.4427e-05
0.000201319
-6.86021e-05
0.000198912
-8.3047e-05
0.000195798
-9.79003e-05
0.000191532
-0.000113266
0.000186574
-0.000129277
0.000180501
-0.00014619
0.000174403
-0.000164206
0.000167975
-0.000182407
0.000160973
-0.000195818
0.00014646
-0.000198086
0.000114844
-0.000194166
7.21944e-05
-0.000189835
3.37523e-05
-0.000182779
-3.05157e-06
-0.000173561
-4.03337e-05
-0.000163259
-7.68761e-05
-0.000151663
-0.000113219
-0.000139242
-0.000149186
-0.000125801
-0.000184521
-0.000218919
-0.000111479
-1.33587e-05
0.000217358
-2.68259e-05
0.000217153
-4.05125e-05
0.000216479
-5.45316e-05
0.00021534
-6.89557e-05
0.000213338
-8.38937e-05
0.000210738
-9.95166e-05
0.000207157
-0.000116049
0.000203108
-0.000133721
0.000198175
-0.00015276
0.000193444
-0.000172612
0.00018783
-0.000190781
0.000179145
-0.000199657
0.000155338
-0.000197249
0.000112437
-0.00019273
6.76771e-05
-0.000187241
2.82661e-05
-0.000178775
-1.15165e-05
-0.000169355
-4.9752e-05
-0.000158943
-8.72861e-05
-0.000147892
-0.000124268
-0.000136283
-0.000160794
-0.000123869
-0.000196933
-0.000231988
-0.000110799
-1.40848e-05
0.000231444
-2.83466e-05
0.000231416
-4.29685e-05
0.000231102
-5.81312e-05
0.000230505
-7.4001e-05
0.00022921
-9.06329e-05
0.000227372
-0.000108009
0.000224536
-0.000126093
0.000221194
-0.00014532
0.000217404
-0.00016569
0.000213817
-0.000185595
0.000207737
-0.000199674
0.000193225
-0.000201757
0.000157422
-0.000197134
0.000107816
-0.000191295
6.184e-05
-0.000183183
2.01558e-05