/*--------------------------------*- C++ -*----------------------------------*\
| =========                 |                                                 |
| \\      /  F ield         | OpenFOAM: The Open Source CFD Toolbox           |
|  \\    /   O peration     | Version:  2012                                  |
|   \\  /    A nd           | Website:  www.openfoam.com                      |
|    \\/     M anipulation  |                                                 |
\*---------------------------------------------------------------------------*/
FoamFile
{
    version     2.0;
    format      ascii;
    class       volScalarField;
    location    "0.72";
    object      rho2;
}
// * * * * * * * * * * * * * * * * * * * * * * * * * * * * * * * * * * * * * //

dimensions      [1 -3 0 0 0 0 0];


internalField   nonuniform List<scalar> 
2268
(
1.30011
1.30016
1.30025
1.30039
1.30056
1.30078
1.30102
1.30129
1.30155
1.30186
1.30212
1.30246
1.30267
1.30305
1.30321
1.30362
1.3037
1.30415
1.30413
1.30455
1.3044
1.3047
1.30449
1.29935
1.29939
1.29949
1.29963
1.2998
1.30002
1.30026
1.30053
1.3008
1.30111
1.30137
1.30171
1.30192
1.3023
1.30246
1.30287
1.30296
1.30341
1.30339
1.30382
1.30367
1.30397
1.30377
1.29857
1.29862
1.29871
1.29885
1.29904
1.29925
1.2995
1.29977
1.30004
1.30036
1.30061
1.30096
1.30117
1.30155
1.30171
1.30212
1.30221
1.30266
1.30264
1.30307
1.3029
1.30321
1.3029
1.29779
1.29784
1.29793
1.29808
1.29826
1.29848
1.29873
1.299
1.29928
1.2996
1.29986
1.30021
1.30043
1.3008
1.30097
1.30139
1.30148
1.30194
1.30193
1.30238
1.30222
1.30255
1.30227
1.29699
1.29704
1.29714
1.29728
1.29747
1.2977
1.29795
1.29824
1.29852
1.29884
1.29911
1.29946
1.29968
1.30005
1.30022
1.30063
1.30072
1.30119
1.30117
1.30164
1.30142
1.30177
1.30123
1.29619
1.29625
1.29635
1.29649
1.29668
1.29691
1.29717
1.29746
1.29775
1.29808
1.29836
1.29871
1.29894
1.29931
1.29949
1.29991
1.30001
1.30049
1.3005
1.301
1.3008
1.30116
1.30072
1.29539
1.29545
1.29555
1.29569
1.29589
1.29612
1.29639
1.29669
1.297
1.29733
1.29761
1.29796
1.29819
1.29855
1.29873
1.29915
1.29924
1.29974
1.29972
1.30027
1.29996
1.30038
1.29936
1.2946
1.29466
1.29476
1.29491
1.29511
1.29535
1.29562
1.29592
1.29623
1.29657
1.29687
1.29721
1.29746
1.29782
1.29801
1.29842
1.29854
1.29906
1.29909
1.29968
1.29939
1.29974
1.29902
1.31192
1.30525
1.30139
1.30071
1.30084
1.30493
1.30775
1.30619
1.30366
1.30115
1.3
1.29943
1.29912
1.29905
1.29892
1.29933
1.29977
1.30465
1.31435
1.31084
1.30387
1.30041
1.29978
1.29998
1.30478
1.30795
1.30538
1.30254
1.30015
1.2991
1.29866
1.29842
1.29836
1.29824
1.29836
1.29861
1.30251
1.31085
1.30683
1.30155
1.29909
1.29838
1.29928
1.30356
1.30706
1.30581
1.30252
1.29969
1.2986
1.29816
1.2979
1.2979
1.29778
1.29789
1.29801
1.29996
1.30766
1.30501
1.29983
1.298
1.29757
1.2981
1.30311
1.30639
1.30453
1.30168
1.29949
1.29866
1.2982
1.29782
1.29771
1.29771
1.29776
1.29778
1.29869
1.3041
1.30097
1.29795
1.29754
1.29728
1.29755
1.3007
1.30445
1.3039
1.30179
1.29976
1.29889
1.29846
1.29812
1.29792
1.29774
1.29776
1.29769
1.29831
1.3044
1.30012
1.29759
1.29748
1.29705
1.29748
1.30064
1.30299
1.30145
1.30036
1.299
1.29866
1.29848
1.29838
1.29828
1.29809
1.29795
1.2979
1.29874
1.30392
1.29832
1.29753
1.29751
1.29713
1.29759
1.29917
1.30073
1.29973
1.29886
1.29816
1.29796
1.29788
1.29789
1.29802
1.29808
1.29825
1.29814
1.30078
1.30496
1.29841
1.2975
1.2975
1.29711
1.29757
1.29881
1.29895
1.29738
1.29705
1.2968
1.29684
1.29689
1.29706
1.29723
1.29766
1.29838
1.3005
1.3033
1.30656
1.29375
1.29378
1.29383
1.29391
1.29406
1.29424
1.29448
1.29477
1.29508
1.29543
1.29573
1.29607
1.29632
1.29665
1.29684
1.29723
1.29733
1.29789
1.29786
1.29859
1.29801
1.29928
1.29584
1.29338
1.29339
1.29338
1.29339
1.29341
1.29347
1.29354
1.29366
1.29384
1.29408
1.29433
1.29461
1.29484
1.29513
1.29534
1.29569
1.29591
1.29645
1.29667
1.29733
1.29716
1.2978
1.2958
1.29334
1.29334
1.29334
1.29333
1.29333
1.29336
1.29338
1.29339
1.2934
1.29346
1.29355
1.29369
1.29381
1.29392
1.29403
1.29421
1.29433
1.29481
1.29509
1.29571
1.29595
1.29681
1.29722
1.29329
1.29329
1.29329
1.29329
1.29329
1.29331
1.29334
1.29335
1.29335
1.29336
1.29337
1.29338
1.29339
1.29341
1.29342
1.29346
1.29357
1.294
1.29462
1.29509
1.29518
1.29631
1.29628
1.29327
1.29327
1.29327
1.29327
1.29327
1.29328
1.2933
1.29331
1.29332
1.29333
1.29333
1.29334
1.29335
1.29335
1.29332
1.29326
1.29326
1.29341
1.29361
1.29363
1.29374
1.29502
1.29604
1.29326
1.29326
1.29326
1.29326
1.29326
1.29327
1.29327
1.29328
1.29329
1.2933
1.29331
1.29331
1.2933
1.29322
1.29316
1.29312
1.29313
1.29324
1.2935
1.29382
1.29438
1.29452
1.2955
1.29325
1.29325
1.29326
1.29326
1.29326
1.29326
1.29326
1.29326
1.29327
1.29328
1.29329
1.29329
1.29326
1.29319
1.29313
1.29311
1.29311
1.29313
1.29306
1.29309
1.29331
1.29403
1.29533
1.29325
1.29325
1.29325
1.29325
1.29325
1.29325
1.29325
1.29326
1.29326
1.29326
1.29327
1.29327
1.29326
1.29319
1.29314
1.29313
1.29315
1.29315
1.2931
1.29303
1.29366
1.29448
1.2955
1.29325
1.29325
1.29325
1.29325
1.29325
1.29325
1.29325
1.29325
1.29325
1.29325
1.29326
1.29326
1.29326
1.29323
1.29318
1.29315
1.29317
1.29318
1.29316
1.29317
1.29328
1.29332
1.29506
1.29325
1.29325
1.29325
1.29325
1.29325
1.29325
1.29325
1.29325
1.29325
1.29325
1.29325
1.29325
1.29325
1.29324
1.29322
1.2932
1.2932
1.29321
1.2932
1.29317
1.29315
1.29325
1.29352
1.29325
1.29325
1.29325
1.29325
1.29325
1.29325
1.29325
1.29325
1.29325
1.29325
1.29324
1.29324
1.29324
1.29324
1.29324
1.29323
1.29323
1.29323
1.29323
1.2932
1.29318
1.29317
1.29315
1.29324
1.29324
1.29324
1.29324
1.29324
1.29324
1.29324
1.29324
1.29324
1.29324
1.29324
1.29324
1.29324
1.29324
1.29324
1.29323
1.29323
1.29323
1.29324
1.29323
1.2932
1.29319
1.29319
1.29324
1.29324
1.29324
1.29324
1.29324
1.29324
1.29324
1.29324
1.29324
1.29324
1.29324
1.29324
1.29324
1.29324
1.29323
1.29323
1.29323
1.29323
1.29324
1.29323
1.29323
1.2932
1.29319
1.29324
1.29324
1.29324
1.29324
1.29324
1.29324
1.29324
1.29324
1.29324
1.29324
1.29324
1.29324
1.29323
1.29323
1.29323
1.29323
1.29323
1.29323
1.29323
1.29323
1.29323
1.29322
1.29321
1.29323
1.29323
1.29323
1.29323
1.29323
1.29323
1.29323
1.29323
1.29323
1.29323
1.29323
1.29323
1.29323
1.29323
1.29323
1.29323
1.29323
1.29323
1.29323
1.29323
1.29323
1.29323
1.29323
1.29323
1.29323
1.29323
1.29323
1.29323
1.29323
1.29323
1.29323
1.29323
1.29323
1.29323
1.29323
1.29323
1.29323
1.29323
1.29323
1.29323
1.29323
1.29323
1.29323
1.29323
1.29323
1.29323
1.29323
1.29323
1.29323
1.29323
1.29323
1.29323
1.29323
1.29323
1.29323
1.29323
1.29323
1.29323
1.29323
1.29323
1.29323
1.29323
1.29323
1.29323
1.29323
1.29323
1.29323
1.29323
1.29323
1.29322
1.29322
1.29322
1.29322
1.29322
1.29322
1.29322
1.29322
1.29322
1.29322
1.29322
1.29322
1.29322
1.29323
1.29323
1.29323
1.29323
1.29323
1.29323
1.29323
1.29323
1.29323
1.29323
1.29322
1.29322
1.29322
1.29322
1.29322
1.29322
1.29322
1.29322
1.29322
1.29322
1.29322
1.29322
1.29322
1.29322
1.29322
1.29322
1.29322
1.29322
1.29322
1.29322
1.29322
1.29322
1.29322
1.29321
1.29321
1.29321
1.29321
1.29321
1.29321
1.29321
1.29322
1.29322
1.29322
1.29322
1.29322
1.29322
1.29322
1.29322
1.29322
1.29322
1.29322
1.29322
1.29322
1.29322
1.29322
1.29322
1.2932
1.2932
1.2932
1.29321
1.29321
1.29321
1.29321
1.29321
1.29321
1.29321
1.29321
1.29321
1.29321
1.29321
1.29321
1.29322
1.29322
1.29322
1.29322
1.29322
1.29322
1.29322
1.29322
1.29319
1.29319
1.29319
1.29319
1.29319
1.2932
1.2932
1.2932
1.2932
1.2932
1.2932
1.2932
1.2932
1.29321
1.29321
1.29321
1.29321
1.29321
1.29321
1.29321
1.29321
1.29321
1.29322
1.29318
1.29318
1.29318
1.29318
1.29318
1.29318
1.29318
1.29318
1.29318
1.29319
1.29319
1.29319
1.29319
1.29319
1.29319
1.29319
1.29319
1.2932
1.2932
1.2932
1.2932
1.2932
1.2932
1.29316
1.29316
1.29316
1.29316
1.29316
1.29316
1.29316
1.29316
1.29317
1.29317
1.29317
1.29317
1.29317
1.29317
1.29317
1.29317
1.29317
1.29317
1.29317
1.29316
1.29316
1.29316
1.29316
1.29314
1.29314
1.29314
1.29314
1.29314
1.29314
1.29314
1.29315
1.29315
1.29315
1.29315
1.29315
1.29315
1.29315
1.29314
1.29314
1.29314
1.29314
1.29314
1.29314
1.29314
1.29314
1.29315
1.29313
1.29313
1.29313
1.29313
1.29313
1.29313
1.29313
1.29313
1.29313
1.29313
1.29313
1.29313
1.29313
1.29313
1.29313
1.29313
1.29313
1.29313
1.29313
1.29314
1.29314
1.29315
1.29315
1.29312
1.29312
1.29312
1.29312
1.29312
1.29312
1.29312
1.29312
1.29312
1.29312
1.29312
1.29312
1.29312
1.29312
1.29312
1.29312
1.29313
1.29313
1.29314
1.29315
1.29315
1.29315
1.29315
1.29311
1.29311
1.29311
1.29311
1.29311
1.29311
1.29311
1.29311
1.29311
1.29311
1.29311
1.29311
1.29312
1.29312
1.29312
1.29312
1.29313
1.29314
1.29315
1.29315
1.29315
1.29315
1.29315
1.29311
1.29311
1.29311
1.29311
1.29311
1.29311
1.29311
1.29311
1.29311
1.29311
1.29311
1.29311
1.29311
1.29312
1.29313
1.29314
1.29315
1.29315
1.29314
1.29314
1.29313
1.29313
1.29313
1.2931
1.2931
1.2931
1.2931
1.2931
1.2931
1.2931
1.2931
1.2931
1.29311
1.29311
1.29311
1.29312
1.29313
1.29314
1.29314
1.29314
1.29313
1.29312
1.29312
1.29313
1.29312
1.29312
1.2931
1.2931
1.2931
1.2931
1.2931
1.2931
1.2931
1.2931
1.2931
1.2931
1.29311
1.29311
1.29313
1.29314
1.29314
1.29313
1.29311
1.29311
1.29311
1.29312
1.29312
1.29311
1.2931
1.29309
1.29309
1.29309
1.29309
1.29309
1.29309
1.2931
1.2931
1.2931
1.2931
1.29311
1.29312
1.29313
1.29313
1.29312
1.2931
1.2931
1.29311
1.29311
1.29311
1.2931
1.2931
1.29309
1.29309
1.29309
1.29309
1.29309
1.29309
1.29309
1.29309
1.2931
1.2931
1.29311
1.29312
1.29312
1.29312
1.29311
1.29309
1.29309
1.29309
1.2931
1.2931
1.2931
1.2931
1.29309
1.29308
1.29309
1.29309
1.29309
1.29309
1.29309
1.29309
1.29309
1.2931
1.2931
1.29311
1.29312
1.29312
1.29311
1.29309
1.29308
1.29308
1.29309
1.29309
1.29309
1.29309
1.29309
1.29308
1.29308
1.29309
1.29309
1.29309
1.29309
1.29309
1.29309
1.2931
1.2931
1.29311
1.29311
1.29311
1.29311
1.29308
1.29307
1.29307
1.29308
1.29308
1.29309
1.29309
1.29309
1.29308
1.29308
1.29307
1.29309
1.29309
1.29309
1.29309
1.29309
1.29309
1.2931
1.2931
1.29311
1.29311
1.29311
1.29309
1.29306
1.29306
1.29306
1.29307
1.29308
1.29308
1.29308
1.29308
1.29308
1.29307
1.29307
1.29309
1.29309
1.29309
1.29309
1.29309
1.29309
1.2931
1.2931
1.2931
1.2931
1.29309
1.29306
1.29305
1.29304
1.29305
1.29306
1.29307
1.29307
1.29307
1.29307
1.29307
1.29307
1.29306
1.29309
1.29309
1.29309
1.29309
1.29309
1.29309
1.2931
1.2931
1.2931
1.2931
1.29307
1.29304
1.29303
1.29303
1.29304
1.29305
1.29306
1.29307
1.29307
1.29307
1.29307
1.29307
1.29306
1.29309
1.29309
1.29309
1.29309
1.29309
1.29309
1.29309
1.2931
1.29309
1.29308
1.29305
1.29302
1.29301
1.29301
1.29303
1.29305
1.29306
1.29306
1.29307
1.29307
1.29307
1.29306
1.29306
1.2931
1.2931
1.29309
1.29309
1.29309
1.29309
1.29309
1.29309
1.29309
1.29307
1.29303
1.293
1.29299
1.29299
1.29301
1.29303
1.29305
1.29306
1.29306
1.29306
1.29306
1.29306
1.29305
1.29309
1.29309
1.29309
1.29309
1.29309
1.29309
1.29309
1.29309
1.29308
1.29305
1.293
1.29297
1.29296
1.29297
1.293
1.29303
1.29304
1.29305
1.29306
1.29306
1.29306
1.29306
1.29305
1.29311
1.29311
1.29311
1.29311
1.29311
1.29311
1.2931
1.2931
1.29308
1.29303
1.29297
1.29293
1.29292
1.29293
1.29298
1.29302
1.29304
1.29305
1.29305
1.29305
1.29305
1.29305
1.29304
1.29715
1.294
1.29668
1.29153
1.29684
1.29549
1.29663
1.29917
1.29706
1.29715
1.29719
1.29755
1.29736
1.29704
1.29769
1.2971
1.29667
1.29692
1.29704
1.2975
1.2959
1.29665
1.29646
1.29643
1.29546
1.29552
1.29547
1.29544
1.29535
1.29532
1.29529
1.2953
1.29531
1.2953
1.29528
1.29524
1.29477
1.29471
1.29505
1.29502
1.29322
1.29356
1.29363
1.29367
1.29318
1.29317
1.29316
1.29316
1.2932
1.2932
1.2932
1.2932
1.29321
1.29321
1.29321
1.29321
1.29323
1.29322
1.29322
1.29322
1.29323
1.29323
1.29323
1.29323
1.29323
1.29323
1.29323
1.29323
1.29323
1.29323
1.29323
1.29323
1.29323
1.29323
1.29323
1.29323
1.29322
1.29322
1.29322
1.29322
1.29322
1.29322
1.29322
1.29322
1.29322
1.29322
1.29322
1.29322
1.2932
1.2932
1.2932
1.2932
1.29316
1.29316
1.29316
1.29316
1.29315
1.29315
1.29315
1.29315
1.29315
1.29315
1.29315
1.29315
1.29315
1.29315
1.29315
1.29315
1.29315
1.29315
1.29315
1.29315
1.29313
1.29313
1.29313
1.29312
1.29311
1.29311
1.29311
1.29311
1.2931
1.2931
1.29309
1.29309
1.29309
1.29309
1.29308
1.29308
1.29308
1.29308
1.29308
1.29307
1.29307
1.29307
1.29307
1.29307
1.29307
1.29307
1.29306
1.29306
1.29306
1.29306
1.29306
1.29305
1.29306
1.29306
1.29305
1.29305
1.29306
1.29305
1.29305
1.29305
1.29305
1.29305
1.29305
1.29304
1.29305
1.29304
1.29304
1.29304
1.29305
1.29304
1.29304
1.29304
1.29303
1.29303
1.29303
1.29302
1.29701
1.29723
1.29729
1.29718
1.2972
1.29714
1.29667
1.29596
1.29595
1.29597
1.29601
1.29608
1.29621
1.29639
1.2968
1.29766
1.30077
1.30495
1.3068
1.29732
1.29711
1.2971
1.29723
1.29684
1.29613
1.29571
1.29555
1.29557
1.29555
1.29555
1.29557
1.29564
1.29577
1.29605
1.29669
1.29873
1.30124
1.30269
1.29723
1.29702
1.29739
1.29666
1.29636
1.29565
1.29549
1.29544
1.29543
1.29544
1.29549
1.29552
1.29559
1.29572
1.29599
1.29629
1.29644
1.29754
1.29861
1.2982
1.29706
1.29704
1.29617
1.29576
1.29541
1.29535
1.29536
1.29539
1.29556
1.29567
1.29569
1.29569
1.29569
1.29579
1.2962
1.2963
1.29598
1.29624
1.29723
1.29684
1.29593
1.29536
1.29545
1.29529
1.29528
1.29525
1.29528
1.29528
1.29528
1.29527
1.29524
1.29523
1.29548
1.29589
1.29575
1.29531
1.29613
1.29622
1.29553
1.29523
1.29542
1.29538
1.29534
1.29535
1.2954
1.29546
1.29538
1.29526
1.29525
1.2953
1.29531
1.29561
1.29606
1.29593
1.29551
1.29625
1.29547
1.29541
1.29539
1.29545
1.29543
1.29543
1.29547
1.29554
1.29567
1.29566
1.29548
1.29547
1.29548
1.29525
1.29538
1.296
1.29628
1.29578
1.29628
1.29535
1.2954
1.29546
1.29546
1.29544
1.29544
1.2955
1.29548
1.29563
1.29565
1.29561
1.29556
1.29534
1.29517
1.29558
1.2959
1.29593
1.29627
1.29588
1.29529
1.29531
1.29537
1.29548
1.29548
1.29546
1.29549
1.29537
1.29535
1.29504
1.29564
1.29508
1.29527
1.29504
1.29531
1.29508
1.29573
1.29577
1.29594
1.29543
1.29532
1.29525
1.29538
1.29539
1.29534
1.29554
1.29528
1.29485
1.29416
1.295
1.29419
1.29389
1.29394
1.29438
1.29422
1.29465
1.29515
1.29521
1.29402
1.29519
1.2953
1.2954
1.29538
1.2953
1.2946
1.29368
1.2934
1.29333
1.29341
1.29323
1.29329
1.29326
1.29355
1.29359
1.29408
1.29504
1.29569
1.29326
1.29355
1.29365
1.29384
1.29384
1.29362
1.29332
1.29312
1.29308
1.29297
1.29311
1.29326
1.2933
1.29335
1.29328
1.29335
1.29368
1.29404
1.29421
1.2932
1.29319
1.29319
1.29322
1.29322
1.2932
1.29316
1.29308
1.29302
1.293
1.29307
1.29322
1.29338
1.29337
1.29332
1.29326
1.29332
1.29459
1.29662
1.29321
1.29322
1.2932
1.29317
1.29316
1.29314
1.29311
1.29304
1.29301
1.29301
1.29313
1.29321
1.29329
1.29334
1.29332
1.29323
1.29326
1.29368
1.29436
1.29322
1.29323
1.29322
1.29317
1.29317
1.29316
1.29313
1.29306
1.29302
1.293
1.29306
1.29315
1.29322
1.29325
1.29326
1.2932
1.29309
1.29352
1.29448
1.29323
1.29323
1.29322
1.29318
1.29317
1.29318
1.29317
1.29312
1.29307
1.29303
1.29305
1.2931
1.29317
1.29322
1.29323
1.29319
1.29314
1.29316
1.29342
1.29323
1.29323
1.29323
1.2932
1.29317
1.29318
1.29318
1.29317
1.29315
1.29312
1.29311
1.29312
1.29315
1.29318
1.29321
1.29316
1.29307
1.29301
1.29313
1.29323
1.29323
1.29323
1.29322
1.29319
1.29318
1.29317
1.29317
1.29317
1.29317
1.29317
1.29316
1.29317
1.29318
1.2932
1.29318
1.29305
1.29292
1.2931
1.29323
1.29323
1.29322
1.29322
1.29321
1.29319
1.29318
1.29317
1.29317
1.29317
1.29317
1.29317
1.29318
1.29318
1.2932
1.2932
1.29311
1.29291
1.2931
1.29322
1.29322
1.29322
1.29322
1.29322
1.29321
1.2932
1.29319
1.29319
1.29319
1.29319
1.29318
1.29319
1.29319
1.2932
1.2932
1.29316
1.29294
1.29325
1.29322
1.29322
1.29322
1.29322
1.29322
1.29322
1.29321
1.29321
1.2932
1.2932
1.2932
1.2932
1.2932
1.29319
1.2932
1.2932
1.29318
1.29297
1.29324
1.29322
1.29322
1.29322
1.29322
1.29322
1.29322
1.29321
1.29321
1.29321
1.29321
1.29321
1.2932
1.2932
1.2932
1.29321
1.29321
1.29319
1.293
1.29317
1.2932
1.2932
1.29321
1.29321
1.29321
1.29321
1.29321
1.29321
1.29321
1.29321
1.29321
1.29321
1.29321
1.29321
1.29321
1.29321
1.2932
1.29302
1.29309
1.29317
1.29317
1.29317
1.29318
1.29318
1.29319
1.2932
1.2932
1.29321
1.29321
1.29321
1.29321
1.29321
1.29321
1.29321
1.29321
1.2932
1.29305
1.29303
1.29315
1.29315
1.29316
1.29316
1.29316
1.29316
1.29317
1.29318
1.29319
1.2932
1.29321
1.29321
1.29321
1.29321
1.29321
1.29321
1.2932
1.29311
1.29292
1.29316
1.29316
1.29316
1.29316
1.29316
1.29315
1.29315
1.29315
1.29316
1.29317
1.29319
1.2932
1.29321
1.2932
1.29321
1.29321
1.29321
1.29315
1.29287
1.29316
1.29316
1.29316
1.29315
1.29316
1.29315
1.29315
1.29315
1.29315
1.29315
1.29317
1.29318
1.2932
1.2932
1.29321
1.2932
1.29321
1.29317
1.29286
1.29314
1.29314
1.29314
1.29314
1.29314
1.29314
1.29315
1.29315
1.29315
1.29315
1.29316
1.29316
1.29319
1.29319
1.29321
1.2932
1.29321
1.29316
1.29291
1.29312
1.29311
1.29311
1.29311
1.29311
1.29311
1.29312
1.29313
1.29315
1.29315
1.29315
1.29316
1.29317
1.29318
1.2932
1.29319
1.29321
1.29315
1.293
1.2931
1.2931
1.29309
1.29308
1.29308
1.29308
1.29309
1.2931
1.29312
1.29314
1.29315
1.29315
1.29316
1.29317
1.29319
1.29319
1.2932
1.29315
1.29312
1.29309
1.29308
1.29307
1.29306
1.29306
1.29306
1.29306
1.29307
1.29309
1.29311
1.29313
1.29314
1.29315
1.29316
1.29318
1.29318
1.29319
1.29315
1.29317
1.29308
1.29307
1.29306
1.29305
1.29304
1.29304
1.29304
1.29304
1.29306
1.29308
1.29311
1.29313
1.29314
1.29315
1.29317
1.29318
1.29318
1.29314
1.29315
1.29307
1.29306
1.29305
1.29304
1.29303
1.29302
1.29302
1.29302
1.29303
1.29305
1.29308
1.29311
1.29313
1.29314
1.29316
1.29317
1.29318
1.29315
1.29312
1.29306
1.29305
1.29304
1.29303
1.29301
1.293
1.29299
1.29299
1.293
1.29302
1.29305
1.29309
1.29312
1.29313
1.29315
1.29316
1.29318
1.29315
1.29311
1.29305
1.29304
1.29303
1.29302
1.293
1.29299
1.29298
1.29297
1.29298
1.293
1.29303
1.29307
1.2931
1.29312
1.29314
1.29316
1.29317
1.29315
1.2931
1.29305
1.29304
1.29302
1.29301
1.29299
1.29297
1.29296
1.29295
1.29296
1.29298
1.29301
1.29304
1.29309
1.29311
1.29313
1.29315
1.29316
1.29315
1.29309
1.29304
1.29303
1.29302
1.293
1.29298
1.29296
1.29295
1.29294
1.29294
1.29296
1.293
1.29303
1.29308
1.2931
1.29312
1.29314
1.29316
1.29314
1.29308
1.29304
1.29303
1.29301
1.29299
1.29297
1.29295
1.29294
1.29292
1.29292
1.29295
1.29299
1.29303
1.29307
1.29309
1.29312
1.29314
1.29315
1.29314
1.29308
1.29304
1.29302
1.29301
1.29299
1.29297
1.29295
1.29293
1.29291
1.29291
1.29294
1.29299
1.29302
1.29306
1.29309
1.29311
1.29313
1.29314
1.29313
1.29307
1.29303
1.29302
1.293
1.29298
1.29296
1.29294
1.29292
1.2929
1.2929
1.29292
1.29299
1.29303
1.29306
1.29308
1.29311
1.29313
1.29314
1.29313
1.29306
1.29303
1.29302
1.293
1.29298
1.29296
1.29294
1.29292
1.2929
1.29289
1.29291
1.29298
1.29303
1.29306
1.29308
1.2931
1.29312
1.29313
1.29312
1.29306
1.29302
1.293
1.29299
1.29297
1.29294
1.29292
1.2929
1.29289
1.29289
1.29291
1.29297
1.29302
1.29305
1.29308
1.2931
1.29312
1.29313
1.29313
1.29308
)
;

boundaryField
{
    leftWall
    {
        type            calculated;
        value           nonuniform List<scalar> 
50
(
1.30011
1.29935
1.29857
1.29779
1.29699
1.29619
1.29539
1.2946
1.29375
1.29338
1.29334
1.29329
1.29327
1.29326
1.29325
1.29325
1.29325
1.29325
1.29325
1.29324
1.29324
1.29324
1.29323
1.29323
1.29323
1.29322
1.29322
1.29321
1.2932
1.29319
1.29318
1.29316
1.29314
1.29313
1.29312
1.29311
1.29311
1.2931
1.2931
1.29309
1.29309
1.29309
1.29309
1.29309
1.29309
1.29309
1.29309
1.2931
1.29309
1.29311
)
;
    }
    rightWall
    {
        type            calculated;
        value           nonuniform List<scalar> 
50
(
1.31435
1.31085
1.30766
1.3041
1.3044
1.30392
1.30496
1.30656
1.3068
1.30269
1.29861
1.29624
1.29613
1.29625
1.29628
1.29588
1.29594
1.29521
1.29569
1.29421
1.29662
1.29436
1.29448
1.29342
1.29313
1.2931
1.2931
1.29325
1.29324
1.29317
1.29309
1.29303
1.29292
1.29287
1.29286
1.29291
1.293
1.29312
1.29317
1.29315
1.29312
1.29311
1.2931
1.29309
1.29308
1.29308
1.29307
1.29306
1.29306
1.29308
)
;
    }
    lowerWall
    {
        type            calculated;
        value           nonuniform List<scalar> 
62
(
1.30048
1.30053
1.30063
1.30076
1.30094
1.30115
1.30139
1.30166
1.30193
1.30224
1.30249
1.30284
1.30305
1.30343
1.30358
1.304
1.30408
1.30452
1.3045
1.30493
1.30478
1.30507
1.30486
1.30449
1.30377
1.3029
1.30227
1.30123
1.30072
1.29936
1.29902
1.29782
1.29458
1.29728
1.29212
1.31192
1.31084
1.30683
1.30501
1.30097
1.30012
1.29832
1.29841
1.31216
1.30549
1.30172
1.30105
1.30118
1.30527
1.30809
1.30653
1.30398
1.30142
1.30031
1.29974
1.29944
1.29937
1.29923
1.29964
1.30008
1.30495
1.31465
)
;
    }
    atmosphere
    {
        type            calculated;
        value           nonuniform List<scalar> 
46
(
1.2932
1.2932
1.2932
1.2932
1.2932
1.29319
1.29319
1.29318
1.29317
1.29312
1.29306
1.29302
1.29301
1.29302
1.29308
1.29311
1.29313
1.29314
1.29314
1.29315
1.29314
1.29314
1.29313
1.29313
1.29313
1.29312
1.29312
1.29311
1.2931
1.29309
1.29306
1.29304
1.29302
1.293
1.29299
1.29299
1.29301
1.29307
1.29312
1.29315
1.29317
1.29319
1.29321
1.29322
1.29321
1.29317
)
;
    }
    defaultFaces
    {
        type            empty;
    }
}


// ************************************************************************* //
