/*--------------------------------*- C++ -*----------------------------------*\
| =========                 |                                                 |
| \\      /  F ield         | OpenFOAM: The Open Source CFD Toolbox           |
|  \\    /   O peration     | Version:  2012                                  |
|   \\  /    A nd           | Website:  www.openfoam.com                      |
|    \\/     M anipulation  |                                                 |
\*---------------------------------------------------------------------------*/
FoamFile
{
    version     2.0;
    format      ascii;
    class       volScalarField;
    location    "0.72";
    object      rhogh;
}
// * * * * * * * * * * * * * * * * * * * * * * * * * * * * * * * * * * * * * //

dimensions      [1 -1 -2 0 0 0 0];


internalField   nonuniform List<scalar> 
2268
(
-29.4294
-29.4294
-29.4294
-29.4294
-29.4294
-29.4294
-29.4294
-29.4294
-29.4294
-29.4294
-29.4294
-29.4294
-29.4294
-29.4294
-29.4294
-29.4294
-29.4294
-29.4294
-29.4294
-29.4294
-29.4294
-29.429
-29.4228
-88.2881
-88.2881
-88.2881
-88.2881
-88.2881
-88.2881
-88.2881
-88.2881
-88.2881
-88.2881
-88.2881
-88.2881
-88.2881
-88.2881
-88.2881
-88.2881
-88.2881
-88.2881
-88.2881
-88.2881
-88.2881
-88.2835
-88.2626
-147.147
-147.147
-147.147
-147.147
-147.147
-147.147
-147.147
-147.147
-147.147
-147.147
-147.147
-147.147
-147.147
-147.147
-147.147
-147.147
-147.147
-147.147
-147.147
-147.147
-147.147
-147.141
-147.104
-206.006
-206.006
-206.006
-206.006
-206.006
-206.006
-206.006
-206.006
-206.006
-206.006
-206.006
-206.006
-206.006
-206.006
-206.006
-206.006
-206.006
-206.006
-206.006
-206.006
-206.006
-206.001
-205.95
-264.864
-264.864
-264.864
-264.864
-264.864
-264.864
-264.864
-264.864
-264.864
-264.864
-264.864
-264.864
-264.864
-264.864
-264.864
-264.864
-264.864
-264.864
-264.864
-264.864
-264.864
-264.864
-264.863
-323.723
-323.723
-323.723
-323.723
-323.723
-323.723
-323.723
-323.723
-323.723
-323.723
-323.723
-323.723
-323.723
-323.723
-323.723
-323.723
-323.723
-323.723
-323.723
-323.723
-323.723
-323.723
-323.723
-382.582
-382.582
-382.582
-382.582
-382.582
-382.582
-382.582
-382.582
-382.582
-382.582
-382.582
-382.582
-382.582
-382.582
-382.582
-382.582
-382.582
-382.582
-382.582
-382.582
-382.582
-382.582
-382.582
-433.594
-435.175
-441.44
-441.44
-441.44
-441.44
-441.44
-441.44
-441.44
-441.44
-441.44
-441.44
-441.44
-441.44
-441.44
-441.44
-441.44
-441.44
-441.44
-441.44
-441.44
-441.432
-441.374
-19.0291
-19.0329
-26.1688
-26.7786
-26.7787
-26.7786
-26.7787
-26.7786
-25.0073
-21.414
-24.603
-24.603
-24.603
-24.5845
-24.5844
-24.5845
-24.5286
-23.7029
-23.1447
-57.0874
-61.1434
-79.0893
-80.336
-80.3359
-80.336
-77.83
-79.0886
-70.9538
-62.2299
-61.4009
-63.9188
-68.8431
-69.9628
-67.6988
-57.8687
-49.4909
-49.2998
-57.3992
-113.225
-115.647
-111.322
-104.305
-104.461
-125.402
-126.029
-57.3623
-30.8814
-30.6706
-23.9755
-19.0672
-30.2934
-33.637
-28.5065
-20.7343
-18.2811
-51.3187
-117.637
-166.979
-161.166
-58.8932
-26.7458
-34.3314
-150.567
-201.942
-183.299
-116.716
-63.7946
-1.45542
-0.120979
-0.120979
-0.323889
-0.318807
-0.141731
-0.120979
-28.3739
-164.713
-214.662
-124.681
9.97736e-18
-0.613203
-8.9542
-189.654
-259.64
-264.169
-258.723
-219.709
-151.826
-84.0207
-23.2983
-0.155544
-0.155544
-0.155544
-0.155544
-66.5735
-207.96
-246.324
-17.1963
2.80994e-18
-3.13424e-20
-32.1669
-275.495
-322.741
-322.873
-322.873
-322.609
-320.005
-304.007
-262.169
-178.319
-63.3961
-0.19011
-0.19011
-217.418
-228.041
-298.294
-7.12747
5.52824e-19
3.21804e-18
-188.818
-360.433
-381.419
-377.427
-380.048
-381.561
-381.559
-381.561
-381.559
-379.641
-335.768
-213.852
-190.429
-338.727
-269.606
-344.188
-13.1607
3.12897e-19
1.59133e-16
-329.579
-422.623
-409.876
-281.816
-302.311
-338.129
-372.301
-392.713
-415.214
-438.047
-438.047
-438.045
-429.403
-429.404
-336.704
-238.789
-252.995
-280.789
-325.35
-375.051
-420.469
-467.725
-509.231
-533.467
-533.467
-533.467
-533.467
-533.467
-533.467
-533.467
-533.467
-533.467
-533.467
-533.467
-533.467
-533.467
-533.249
-517.817
-1.9204
-2.84443
-4.85789
-11.543
-32.9881
-71.0457
-127.91
-212.241
-328.027
-457.922
-541.036
-598.998
-639.75
-658.662
-658.619
-658.662
-658.571
-658.605
-658.656
-658.662
-658.661
-657.387
-489.722
-4.87786e-05
-0.00016789
-0.00102554
-0.00860703
-0.0578067
-0.296539
-1.48311
-6.26535
-21.299
-67.5839
-147.748
-240.668
-328.168
-442.551
-539.098
-617.354
-674.183
-748.086
-771.431
-783.719
-782.87
-783.265
-724.033
-2.86371e-11
-5.01239e-10
-2.65976e-08
-1.18071e-06
-3.99198e-05
-0.000820881
-0.0100795
-0.0859645
-0.55159
-2.5945
-8.77748
-21.7882
-34.4004
-41.78
-67.8398
-102.718
-132.191
-222.599
-370.63
-566.532
-752.031
-908.415
-908.04
-2.66684e-12
-8.60127e-11
-2.11578e-09
-3.94728e-08
-5.20243e-07
-4.3529e-06
-3.1511e-05
-0.000269013
-0.00185598
-0.00865178
-0.0170359
-0.0174258
-3.09505e-30
1.35621e-19
-3.37531e-18
-1.34005
-8.23761
-27.3636
-99.6463
-241.93
-388.387
-653.093
-945.027
-1.05196e-12
-4.45123e-11
-1.00562e-09
-1.38954e-08
-9.67902e-08
-2.09928e-07
-6.46653e-07
-9.83346e-06
-0.000154564
-0.000860123
-0.0012467
-0.000534172
-1.25337e-05
-1.68093e-23
-3.22809e-06
-1.19827e-05
-1.19724e-05
-19.2596
-165.428
-259.506
-304.185
-387.123
-783.421
-8.19001e-13
-3.26154e-11
-6.00158e-10
-6.34106e-09
-3.81132e-08
-1.01815e-07
-1.62234e-07
-3.78681e-07
-3.76169e-06
-0.000254516
-0.000651934
-5.29467e-05
-1.52503e-09
-1.52426e-09
-1.52503e-09
-8.37897e-06
-0.201961
-34.5151
-84.9579
-194.546
-551.604
-765.021
-684.401
-5.91316e-13
-2.31429e-11
-3.96776e-10
-3.81159e-09
-2.19759e-08
-7.61154e-08
-1.63297e-07
-2.27451e-07
-4.08527e-06
-0.000958677
-0.00242673
-0.00102453
-1.67616e-09
-4.54285e-06
-0.00719785
-0.0144426
-0.0091063
-0.00105037
-2.01205
-368.445
-859.828
-856.621
-163.06
-2.81591e-13
-1.13876e-11
-2.04747e-10
-2.14158e-09
-1.44129e-08
-6.68954e-08
-2.10594e-07
-3.6468e-07
-4.72349e-06
-0.00105645
-0.00264222
-0.00264222
-0.00013134
-4.33307e-06
-0.0030496
-0.011629
-0.0035578
-0.00114381
-1.00555
-82.5786
-650.032
-932.684
-722.745
-1.03345e-13
-4.43643e-12
-8.76749e-11
-1.06005e-09
-8.98085e-09
-5.80449e-08
-2.84274e-07
-9.38466e-07
-7.39215e-06
-0.000335137
-0.00177114
-0.00204505
-0.000317734
-2.28387e-07
-0.000185404
-0.000676949
-0.000582666
-0.000815528
-0.000717472
-0.000717472
-0.000719268
-262.902
-982.609
-3.31391e-14
-1.49989e-12
-3.26755e-11
-4.63391e-10
-4.99923e-09
-4.39504e-08
-3.00092e-07
-1.6624e-06
-6.86925e-06
-2.17981e-05
-4.74123e-05
-0.000141467
-0.000151264
-3.59562e-06
-4.79297e-06
-1.09992e-05
-7.41278e-05
-0.000513034
-0.000771568
-0.00205658
-0.00298338
-0.00127985
-0.0012929
-9.79011e-15
-4.56364e-13
-1.05625e-11
-1.67176e-10
-2.13829e-09
-2.37805e-08
-2.21224e-07
-1.4044e-06
-3.68861e-06
-1.95377e-06
-3.95214e-07
-5.0937e-07
-3.08517e-06
-3.93184e-06
-3.66992e-06
-9.9535e-06
-3.39127e-05
-0.000165626
-0.000349434
-0.000753086
-0.0065805
-0.00765712
-0.00217762
-2.60014e-15
-1.22378e-13
-2.9209e-12
-4.9035e-11
-6.84948e-10
-8.34043e-09
-8.52716e-08
-5.98567e-07
-1.18834e-06
-9.62938e-07
-3.32487e-07
-2.18882e-07
-3.5646e-07
-2.40386e-06
-3.85612e-06
-1.31358e-05
-1.37455e-05
-1.56429e-05
-1.40062e-05
-2.36357e-05
-0.00118718
-0.00891517
-0.0203361
-6.38923e-16
-2.98475e-14
-7.13911e-13
-1.21613e-11
-1.75666e-10
-2.23308e-09
-2.29186e-08
-1.6142e-07
-3.64844e-07
-4.02138e-07
-2.63903e-07
-2.21661e-07
-2.7354e-07
-8.34864e-07
-2.36622e-06
-6.91095e-06
-4.72563e-06
-2.79799e-06
-1.73677e-06
-4.13145e-06
-6.23559e-07
-0.00104651
-0.0072418
-1.44433e-16
-6.66792e-15
-1.58302e-13
-2.67755e-12
-3.89418e-11
-5.07894e-10
-5.33441e-09
-3.87345e-08
-1.00684e-07
-1.30361e-07
-1.17617e-07
-1.46576e-07
-1.78851e-07
-3.47667e-07
-8.46852e-07
-1.83173e-06
-1.89643e-06
-1.73373e-06
-1.45844e-06
-1.47551e-06
-6.59676e-07
-1.29727e-05
-0.000124211
-3.04674e-17
-1.3852e-15
-3.24435e-14
-5.36019e-13
-7.66086e-12
-1.00679e-10
-1.08069e-09
-8.16885e-09
-2.39538e-08
-3.5101e-08
-3.62303e-08
-4.9244e-08
-6.88376e-08
-1.27259e-07
-2.74953e-07
-5.40727e-07
-7.11265e-07
-8.53721e-07
-9.80088e-07
-9.23506e-07
-6.01142e-07
-9.33199e-07
-1.65241e-06
-6.00154e-18
-2.68646e-16
-6.21586e-15
-9.99427e-14
-1.38844e-12
-1.81842e-11
-1.98104e-10
-1.54475e-09
-4.94625e-09
-8.05829e-09
-9.46089e-09
-1.31127e-08
-1.96972e-08
-3.72319e-08
-7.77172e-08
-1.49835e-07
-2.22835e-07
-3.05253e-07
-3.89962e-07
-4.77055e-07
-4.32382e-07
-7.48519e-07
-7.60621e-07
-1.10807e-18
-4.88495e-17
-1.11972e-15
-1.75331e-14
-2.35216e-13
-3.03529e-12
-3.3269e-11
-2.65022e-10
-8.96318e-10
-1.60355e-09
-2.08814e-09
-2.94251e-09
-4.53044e-09
-8.70055e-09
-1.81801e-08
-3.5327e-08
-5.67275e-08
-8.44969e-08
-1.1635e-07
-1.57129e-07
-1.93611e-07
-2.96522e-07
-3.59151e-07
-1.92653e-19
-8.37199e-18
-1.90668e-16
-2.91852e-15
-3.77881e-14
-4.76976e-13
-5.21451e-12
-4.17107e-11
-1.44662e-10
-2.80194e-10
-3.93433e-10
-5.6324e-10
-8.67717e-10
-1.66491e-09
-3.50048e-09
-6.89491e-09
-1.16614e-08
-1.83885e-08
-2.68009e-08
-3.80425e-08
-5.0557e-08
-7.12288e-08
-9.85426e-08
-3.17176e-20
-1.36125e-18
-3.08694e-17
-4.64356e-16
-5.83307e-15
-7.18181e-14
-7.75647e-13
-6.0812e-12
-2.10923e-11
-4.34891e-11
-6.40596e-11
-9.26974e-11
-1.406e-10
-2.6498e-10
-5.54628e-10
-1.09904e-09
-1.91405e-09
-3.11568e-09
-4.68834e-09
-6.79512e-09
-9.3028e-09
-1.26293e-08
-1.75623e-08
-4.96482e-21
-2.11075e-19
-4.769e-18
-7.08166e-17
-8.68069e-16
-1.03986e-14
-1.09682e-13
-8.23897e-13
-2.80192e-12
-6.02846e-12
-9.0854e-12
-1.31791e-11
-1.94278e-11
-3.55358e-11
-7.27199e-11
-1.42635e-10
-2.48741e-10
-4.05218e-10
-6.0801e-10
-8.67311e-10
-1.17651e-09
-1.50679e-09
-1.97109e-09
-7.45608e-22
-3.15201e-20
-7.09013e-19
-1.04313e-17
-1.25575e-16
-1.46203e-15
-1.48636e-14
-1.04537e-13
-3.43024e-13
-7.53455e-13
-1.13671e-12
-1.6349e-12
-2.30809e-12
-4.05648e-12
-7.91227e-12
-1.49703e-11
-2.51542e-11
-3.91656e-11
-5.5444e-11
-7.27459e-11
-9.15969e-11
-9.92286e-11
-1.12736e-10
-1.08456e-22
-4.57596e-21
-1.0236e-19
-1.49656e-18
-1.77853e-17
-2.00684e-16
-1.9354e-15
-1.25014e-14
-3.90921e-14
-8.56339e-14
-1.2666e-13
-1.78007e-13
-2.37406e-13
-3.95037e-13
-7.11602e-13
-1.25744e-12
-1.92526e-12
-2.66584e-12
-3.20099e-12
-3.28268e-12
-4.67285e-12
-1.90053e-11
-1.00741e-10
-1.54691e-23
-6.53383e-22
-1.45185e-20
-2.11411e-19
-2.48676e-18
-2.70335e-17
-2.43087e-16
-1.42042e-15
-4.19348e-15
-8.92991e-15
-1.2713e-14
-1.7171e-14
-2.13316e-14
-3.30612e-14
-5.2909e-14
-8.28067e-14
-1.02635e-13
-1.11509e-13
-8.56264e-13
-3.24169e-11
-1.69539e-10
-8.09294e-10
-3.66594e-09
-2.18513e-24
-9.25736e-23
-2.04249e-21
-2.96543e-20
-3.44863e-19
-3.57956e-18
-2.9547e-17
-1.54709e-16
-4.28274e-16
-8.63973e-16
-1.16802e-15
-1.47107e-15
-1.60493e-15
-2.247e-15
-3.19408e-15
-8.61926e-15
-1.62721e-13
-5.65488e-12
-2.85196e-10
-1.52685e-09
-4.6894e-09
-1.74371e-08
-6.91408e-08
-3.09241e-25
-1.31355e-23
-2.87687e-22
-4.16049e-21
-4.75894e-20
-4.66573e-19
-3.49078e-18
-1.62613e-17
-4.12039e-17
-7.28781e-17
-9.44507e-17
-1.63116e-16
-1.2531e-15
-2.17146e-14
-4.15031e-13
-7.3171e-12
-1.17634e-10
-1.62463e-09
-9.98217e-09
-2.8213e-08
-7.62739e-08
-8.56076e-07
-2.95565e-06
-4.05192e-26
-1.87783e-24
-4.06228e-23
-5.74554e-22
-6.17376e-21
-5.43097e-20
-3.75087e-19
-1.76243e-18
-9.12881e-18
-1.21106e-16
-2.21757e-15
-4.01118e-14
-6.39744e-13
-8.83204e-12
-1.03877e-10
-9.98829e-10
-7.66936e-09
-6.83239e-08
-2.87438e-07
-2.56419e-06
-1.55306e-05
-0.000346771
-0.000413697
-9.69755e-27
-2.49479e-25
-6.02386e-24
-1.24842e-22
-3.1133e-21
-8.69912e-20
-2.40538e-18
-6.19374e-17
-1.38103e-15
-2.63179e-14
-4.30998e-13
-6.07835e-12
-7.4106e-11
-7.81435e-10
-7.27677e-09
-6.28989e-08
-7.15546e-07
-1.19885e-05
-0.000130976
-0.00115741
-0.00234267
-0.00240188
-0.00221707
-1.09145e-26
-1.70633e-24
-1.59468e-22
-9.86392e-21
-4.44764e-19
-1.55e-17
-4.34356e-16
-1.00549e-14
-1.96168e-13
-3.26759e-12
-4.69116e-11
-5.8164e-10
-6.23413e-09
-5.75419e-08
-4.76446e-07
-6.54549e-06
-9.76285e-05
-0.0013194
-0.00624626
-0.00834359
-0.00667793
-0.00175242
-0.000468502
-1.30962e-24
-2.34418e-22
-2.02645e-20
-1.12417e-18
-4.49677e-17
-1.37916e-15
-3.36851e-14
-6.71044e-13
-1.10804e-11
-1.53021e-10
-1.77639e-09
-1.72824e-08
-1.3969e-07
-9.23422e-07
-5.21531e-06
-4.36027e-05
-0.00333449
-0.0106761
-0.0106657
-0.00728555
-5.50623e-08
-5.50643e-08
-5.50623e-08
-1.21426e-22
-1.87333e-20
-1.38611e-18
-6.52429e-17
-2.18838e-15
-5.54504e-14
-1.09831e-12
-1.73372e-11
-2.20404e-10
-2.26105e-09
-1.86768e-08
-1.2389e-07
-6.23024e-07
-3.54913e-06
-0.000105785
-0.00648377
-0.0110812
-0.0107643
-0.00212438
-1.52951e-07
-1.71089e-07
-5.91952e-07
-9.05993e-07
-3.57442e-21
-4.93862e-19
-3.23956e-17
-1.33632e-15
-3.87807e-14
-8.38884e-13
-1.39943e-11
-1.83449e-10
-1.89911e-09
-1.515e-08
-8.48923e-08
-1.64992e-07
-1.65001e-07
-2.63606e-05
-0.00606286
-0.0106986
-0.00960206
-9.96061e-05
-2.45078e-07
-2.99929e-07
-6.43799e-07
-8.01702e-07
-8.01704e-07
-6.3111e-20
-7.35125e-18
-4.05181e-16
-1.40105e-14
-3.39289e-13
-6.0747e-12
-8.28763e-11
-8.76036e-10
-7.25262e-09
-4.71181e-08
-2.29871e-07
-9.4939e-07
-8.84345e-05
-0.00488036
-0.0108889
-0.00801447
-7.5181e-08
-1.23557e-07
-2.76303e-07
-4.31399e-07
-3.49372e-07
-1.98488e-07
-1.48599e-07
-3.74808e-19
-4.17175e-17
-2.18506e-15
-7.1213e-14
-1.60956e-12
-2.65735e-11
-3.28513e-10
-3.06326e-09
-2.15835e-08
-1.183e-07
-7.17553e-07
-3.41632e-05
-0.00174249
-0.0103358
-0.0111896
-0.00112458
-7.72473e-08
-1.6986e-07
-2.24286e-07
-1.35849e-07
-5.8913e-08
-3.72042e-08
-3.59413e-08
-2.00767e-18
-2.09553e-16
-1.02852e-14
-3.13691e-13
-6.63311e-12
-1.02538e-10
-1.18302e-09
-1.00794e-08
-6.20162e-08
-2.67509e-07
-5.252e-06
-0.000708218
-0.00800832
-0.0106138
-0.00413839
-1.36468e-08
-7.93202e-08
-1.01684e-07
-5.24261e-08
-1.8438e-08
-1.00755e-08
-8.53441e-09
-1.05614e-08
-5.5064e-18
-5.39926e-16
-2.47763e-14
-7.03595e-13
-1.38224e-11
-2.00285e-10
-2.22432e-09
-1.90127e-08
-1.22478e-07
-7.79553e-07
-6.44049e-05
-0.00405518
-0.0125755
-0.00857549
-7.24236e-09
-1.40035e-08
-3.10943e-08
-2.39371e-08
-7.07399e-09
-2.96307e-09
-2.00079e-09
-1.90297e-09
-2.5741e-09
-1.21424e-17
-1.11725e-15
-4.77987e-14
-1.25393e-12
-2.24365e-11
-2.88612e-10
-2.7692e-09
-2.08364e-08
-1.34428e-07
-5.37898e-06
-0.000943513
-0.0102028
-0.012818
-0.00369633
-7.41123e-09
-9.17587e-09
-1.17634e-08
-3.43665e-09
-9.82631e-10
-4.59305e-10
-3.48048e-10
-3.65007e-10
-4.61682e-10
-2.57852e-17
-2.22034e-15
-8.84905e-14
-2.14992e-12
-3.52903e-11
-4.09637e-10
-3.43297e-09
-2.10747e-08
-1.04328e-07
-1.19737e-05
-0.0039085
-0.0104201
-0.00926442
-7.59531e-09
-7.595e-09
-7.5951e-09
-4.36503e-09
-5.83778e-10
-1.23185e-10
-5.82332e-11
-4.63621e-11
-5.28242e-11
-5.86484e-11
-5.76251e-17
-4.94664e-15
-1.9691e-13
-4.79456e-12
-7.93808e-11
-9.36244e-10
-7.90947e-09
-4.51767e-08
-1.41283e-07
-4.8892e-06
-0.0038404
-0.00902711
-0.00126692
-7.79576e-09
-7.77939e-09
-1.0257e-08
-2.31583e-09
-1.35804e-10
-1.24461e-11
-5.46976e-12
-4.48262e-12
-4.91503e-12
-4.77638e-12
-1.64381e-16
-1.40434e-14
-5.56131e-13
-1.35018e-11
-2.25543e-10
-2.7851e-09
-2.70773e-08
-2.20684e-07
-3.99358e-06
-0.000338632
-0.00255566
-0.00137504
-1.33846e-08
-1.38182e-08
-2.23857e-08
-1.5435e-08
-1.80924e-09
-3.48201e-11
-9.50826e-13
-3.33974e-13
-2.59795e-13
-2.41295e-13
-1.89491e-13
-3.51747e-16
-3.13388e-14
-1.30238e-12
-3.32851e-11
-5.83012e-10
-7.39616e-09
-7.02047e-08
-5.70786e-07
-2.14143e-05
-0.00062255
-0.000927327
-1.34871e-06
-1.3694e-08
-3.51369e-08
-4.4863e-08
-1.58535e-08
-7.27706e-10
-4.84656e-12
-3.89384e-14
-1.02279e-14
-6.17559e-15
-3.42083e-15
-1.19956e-15
-8.01345e-16
-7.92437e-14
-3.65972e-12
-1.03617e-10
-1.99922e-09
-2.78368e-08
-2.93931e-07
-3.13678e-06
-6.60089e-05
-0.000331029
-0.000106661
-1.71764e-08
-3.81459e-08
-1.77785e-07
-1.31365e-07
-1.04434e-08
-5.31793e-11
-3.87272e-37
-2.84213e-18
-9.36101e-20
-1.69381e-21
-4.28234e-23
-1.79942e-22
-445.875
-389.216
-396.909
-396.867
-125.739
-165.432
-481.059
-490.056
-192.888
-105.251
-112.961
-175.472
-845.087
-438.534
-196.199
-203.652
-1003.73
-974.272
-888.9
-888.945
-1090.99
-880.78
-677.707
-575.85
-244.117
-0.0066198
-0.131305
-7.66431
-0.00726493
-0.00726492
-0.00960201
-0.00808369
-39.5944
-43.6893
-141.769
-144.671
-1133.43
-1133.43
-1133.43
-1133.43
-192.431
-930.611
-1218.64
-1218.9
-0.000537625
-0.000537672
-0.000537625
-13.1248
-0.00942498
-0.000572853
-0.000572903
-0.000572853
-0.0133902
-0.0134272
-0.0015042
-0.0147514
-0.00146472
-0.00166661
-0.000866382
-0.00128289
-2.15609e-06
-2.05304e-06
-5.18837e-06
-3.87218e-06
-6.96594e-07
-6.08876e-07
-5.7258e-07
-5.25754e-07
-3.58857e-07
-3.46251e-07
-3.2654e-07
-3.22608e-07
-1.06864e-07
-1.06589e-07
-1.05591e-07
-1.06823e-07
-2.01668e-08
-2.09995e-08
-2.16756e-08
-2.27417e-08
-2.3305e-09
-2.53086e-09
-2.70681e-09
-2.93805e-09
-1.26487e-10
-1.39338e-10
-1.55445e-10
-1.78782e-10
-2.44775e-10
-4.64818e-10
-7.83785e-10
-1.28341e-09
-8.27442e-09
-1.52981e-08
-2.38294e-08
-4.14926e-08
-1.46373e-07
-2.75508e-07
-4.79275e-07
-2.26611e-06
-7.07708e-06
-1.63496e-05
-4.18224e-05
-0.000251877
-0.000569363
-0.000781805
-0.00114207
-0.00114206
-0.00210615
-0.00190189
-0.00161423
-0.000860166
-0.000271592
-5.34087e-08
-5.34069e-08
-5.34087e-08
-5.50643e-08
-2.34798e-07
-1.24538e-06
-2.27183e-06
-1.16304e-06
-1.705e-06
-2.28556e-06
-2.65847e-06
-7.8058e-07
-7.54275e-07
-7.58959e-07
-8.24746e-07
-1.51306e-07
-1.70818e-07
-1.93513e-07
-2.25394e-07
-4.68766e-08
-5.16566e-08
-5.59662e-08
-6.16354e-08
-1.29749e-08
-1.34571e-08
-1.38094e-08
-1.42918e-08
-2.79672e-09
-2.70257e-09
-2.57384e-09
-2.48722e-09
-4.54426e-10
-3.94289e-10
-3.39739e-10
-3.01562e-10
-5.12193e-11
-3.90719e-11
-3.03101e-11
-2.5144e-11
-3.54993e-12
-2.4868e-12
-1.88207e-12
-1.6307e-12
-1.16681e-13
-8.60577e-14
-7.30596e-14
-7.07673e-14
-4.92333e-16
-4.59709e-16
-6.19873e-16
-1.09075e-15
-1.02507e-21
-3.54554e-21
-1.07451e-20
-3.02875e-20
-364.251
-2.26656e-17
3.3858e-17
-177.287
-455.486
-510.71
-273.969
-82.7407
-75.3823
-70.9547
-68.3058
-73.048
-86.8551
-125.431
-199.649
-305.181
-438.564
-490.174
-414.622
-224.74
3.68536e-18
-137.198
-554.628
-562.38
-321.106
-23.0429
-4.67419e-06
-4.67419e-06
-4.67419e-06
-0.00325449
-0.0701797
-0.265768
-1.16139
-5.29258
-24.329
-384.209
-479.309
-511.901
-156.694
-188.555
-664.047
-664.046
-517.657
-42.0336
-0.00204939
-0.00872793
-0.00269146
-0.00231025
-0.00571706
-0.00449274
-0.00437273
-0.00321163
-0.040422
-9.87306
-198.23
-419.681
-601.317
-368.793
-868.444
-868.436
-496.945
-23.3646
-0.000224097
-0.00237667
-0.0014875
-2.7556e-08
-2.7556e-08
-1.22883e-06
-2.7556e-08
-2.7556e-08
-2.8075e-05
-0.100337
-6.01739
-32.4702
-147.375
-491.652
-893.514
-730.395
-313.667
-3.47908e-05
-0.00544967
-0.000255055
-0.000269603
-5.05219e-06
-5.04804e-06
-2.84336e-05
-0.000339863
-0.00288411
-0.0164634
-0.073719
-0.326611
-0.852162
-1.39027
-0.000112891
-438.001
-424.055
-56.3261
-3.90022e-05
-3.90022e-05
-3.90022e-05
-3.90022e-05
-3.90022e-05
-0.00142227
-0.00454172
-0.00142992
-0.00234194
-0.0385804
-0.55019
-9.79213
-56.2127
-27.6024
-0.570577
-0.000126603
-481.483
-4.07328
-8.37691e-05
-8.37779e-05
-4.32136e-05
-9.01908e-05
-0.0534373
-0.55044
-5.15317
-16.5688
-4.79596
-0.00633929
-0.968278
-36.8137
-356.125
-837.214
-656.559
-30.0919
-0.000140222
-559.015
-0.00806508
-0.0331464
-0.00017186
-4.7425e-05
-0.000408984
-0.0452256
-8.39025
-177.749
-550.205
-172.409
-0.00695804
-25.7427
-638.78
-1231.08
-1396.02
-1366.1
-614.058
-81.7848
-694.399
-63.3079
-4.29983
-0.000152132
-0.000152109
-0.000448992
-0.000153462
-34.8548
-761.653
-1070.42
-711.875
-63.8629
-513.874
-1376.36
-1519.99
-1519.99
-1519.99
-1485.15
-1112.38
-1235.26
-716.707
-42.2623
-0.000162661
-0.000164539
-0.000162661
-0.00016506
-354.628
-1157.72
-1157.7
-1157.72
-787.974
-1178.2
-1153.84
-1040.79
-1557.99
-1643.96
-1643.96
-1643.96
-1643.96
-1218.9
-1167.31
-856.241
-533.856
-504.886
-860.474
-1099.83
-1044.34
-824.663
-704.303
-832.935
-574.382
-126.372
-74.5649
-792.185
-1626.47
-1761.48
-1767.93
-1767.93
-245.995
-914.433
-1282.29
-1307.59
-1307.46
-1163.16
-478.665
-80.8519
-7.33824e-07
-31.8655
-98.7642
-0.113986
-0.114015
-0.160804
-72.5163
-542.43
-1352.56
-1831.78
-1880.8
-0.000572903
-0.000572853
-3.00819
-67.4808
-69.9121
-6.90675
-7.81908e-07
-7.81908e-07
-7.81908e-07
-7.81908e-07
-0.0533927
-8.1177
-20.4276
-18.6952
-0.0197647
-0.019722
-210.38
-873.668
-1210.93
-0.0147637
-0.00640191
-8.29993e-07
-8.29993e-07
-8.29993e-07
-8.29993e-07
-8.29993e-07
-8.29993e-07
-8.29993e-07
-8.29993e-07
-0.0526863
-9.7469
-19.1532
-8.52954
-0.0736938
-4.42607
-4.50384
-119.736
-378.012
-0.0013004
-0.00226888
-0.00711565
-0.00179124
-8.78077e-07
-8.78077e-07
-8.78077e-07
-8.78077e-07
-1.39752e-06
-0.0107614
-0.0724621
-1.96737e-05
-1.98017e-05
-1.96737e-05
-0.0440366
-16.5713
-89.1486
-188.58
-522.813
-1.2264e-05
-6.60407e-05
-0.00151609
-0.00311443
-0.00104572
-0.00772293
-0.00949897
-9.26162e-07
-9.26162e-07
-0.00040922
-0.000516567
-2.0886e-05
-2.07511e-05
-2.90447e-05
-0.0509663
-5.88004
-116.2
-367.597
-967.086
-8.83802e-07
-3.67772e-06
-8.92827e-07
-0.000857812
-0.00414302
-0.0332096
-0.0750934
-0.0601129
-0.00443532
-0.00387218
-0.00331773
-0.000691367
-0.000497011
-0.000119004
-0.0820335
-0.547081
-2.57059
-73.7181
-1017.3
-4.36353e-07
-1.23442e-06
-9.36887e-07
-9.83126e-08
-0.00399927
-0.00561799
-0.0683115
-0.112114
-0.112116
-0.112114
-0.0594726
-0.03048
-0.00471728
-6.50929e-06
-0.0857204
-0.0188664
-0.0188664
-0.020003
-1067.5
-1.58457e-07
-6.71854e-07
-7.77118e-07
-1.02937e-07
-0.0010256
-0.000832896
-0.00939973
-0.027318
-0.0237684
-0.043341
-0.0608988
-0.0601741
-0.0137364
-6.81944e-06
-0.0606234
-0.0197537
-0.0204022
-0.0203802
-1117.7
-3.98506e-08
-1.70464e-07
-4.83457e-07
-3.57301e-07
-3.41173e-06
-5.20258e-05
-6.56529e-05
-5.12784e-05
-0.00015869
-1.95879e-06
-0.000232319
-8.55841e-08
-0.00010463
-1.44369e-05
-2.60527e-08
-0.0553083
-0.237141
-1.58095
-826.998
-5.86795e-09
-2.74374e-08
-8.62115e-08
-1.75841e-07
-1.36029e-07
-6.71939e-07
-1.14009e-06
-1.93286e-06
-4.50237e-06
-2.04296e-06
-8.92634e-08
-8.92778e-08
-3.29368e-08
-3.30755e-08
-2.71728e-08
-0.116271
-0.588654
-5.51979
-0.798738
-4.20317e-10
-2.13858e-09
-7.12008e-09
-2.1e-08
-2.39053e-08
-8.17141e-08
-2.98009e-07
-8.63322e-07
-1.38665e-06
-1.38968e-06
-1.09607e-06
-6.75613e-07
-4.23948e-07
-2.07515e-07
-2.82928e-08
-0.127349
-0.793142
-1.12968
-0.829657
-3.9738e-09
-1.24167e-08
-1.96787e-08
-1.45929e-08
-1.01773e-08
-1.00692e-08
-3.32241e-08
-1.11019e-07
-2.15148e-07
-2.36625e-07
-2.12866e-07
-1.92824e-07
-2.24655e-07
-1.88402e-07
-2.94129e-08
-0.131574
-0.451734
-4.51032
-0.864576
-1.02028e-07
-3.98704e-07
-6.36619e-07
-4.68815e-07
-2.15721e-07
-7.13599e-08
-2.37004e-08
-1.54361e-08
-1.54994e-08
-2.2201e-08
-3.38478e-08
-5.35629e-08
-9.58304e-08
-7.58128e-08
-3.05328e-08
-0.119454
-0.119443
-8.83312
-3.58208
-3.87989e-06
-1.82053e-05
-1.58731e-05
-6.88678e-06
-2.32825e-06
-9.02071e-07
-3.36869e-07
-1.04756e-07
-2.66967e-08
-1.12085e-08
-1.01863e-08
-1.82721e-08
-5.20274e-08
-4.33114e-08
-3.16529e-08
-0.105984
-0.132798
-9.15731
-7.70235
-0.000302361
-0.000199589
-8.29411e-05
-2.35283e-05
-7.9233e-06
-3.95045e-06
-2.05197e-06
-8.87091e-07
-2.95826e-07
-8.00555e-08
-2.25254e-08
-1.68855e-08
-3.29855e-08
-3.27729e-08
-3.27728e-08
-0.141983
-0.100272
-5.55069
-51.5484
-0.000855686
-0.000214689
-7.90537e-05
-5.72159e-05
-2.19676e-05
-9.84312e-06
-6.30061e-06
-3.81549e-06
-1.70882e-06
-5.91219e-07
-1.69548e-07
-4.70153e-08
-3.47454e-08
-3.38928e-08
-3.39028e-08
-0.147587
-0.103709
-0.00712504
-345.568
-5.54608e-05
-6.86092e-06
-1.8563e-05
-6.89467e-05
-7.62005e-05
-3.96883e-05
-1.79978e-05
-1.091e-05
-6.36914e-06
-2.71523e-06
-9.29156e-07
-2.63088e-07
-8.2346e-08
-3.50129e-08
-3.50128e-08
-0.14296
-0.111883
-4.61859e-21
-414.455
-5.34069e-08
-1.56118e-07
-1.56155e-07
-1.32532e-05
-0.000344969
-0.000594096
-0.000450971
-0.000110764
-2.62691e-05
-8.00203e-06
-2.78848e-06
-8.76829e-07
-2.58143e-07
-5.7502e-08
-3.61329e-08
-0.0198732
-0.0819712
-4.44159e-21
-427.704
-2.83153e-06
-3.08326e-06
-2.30719e-06
-6.73559e-07
-0.00055559
-0.00347032
-0.00370023
-0.00199685
-0.000244315
-2.20593e-05
-3.16497e-06
-1.5326e-06
-5.89841e-07
-1.68495e-07
-4.4822e-08
-3.96747e-08
-0.0368485
1.3126e-20
-396.178
-2.91926e-06
-3.11119e-06
-2.54038e-06
-6.93734e-07
-0.000404484
-0.00359251
-0.0041589
-0.00415847
-0.00205544
-0.000229664
-2.8218e-05
-9.21715e-06
-2.95024e-06
-8.25047e-07
-1.39528e-07
-4.0867e-08
-0.0716724
-6.01663e-20
-35.9746
-1.0338e-06
-1.76621e-06
-1.65491e-06
-7.38298e-07
-9.90767e-08
-0.000116849
-0.00116255
-0.00113726
-0.00287223
-0.00343022
-0.0007443
-2.23378e-05
-9.78679e-07
-6.34897e-07
-2.53341e-07
-5.90547e-08
-0.0739842
-0.0142447
-0.000109672
-2.79771e-07
-4.29224e-07
-5.96332e-07
-4.84994e-07
-1.01886e-07
-1.01886e-07
-1.01886e-07
-1.01886e-07
-0.00032996
-0.0104708
-0.00853062
-0.000846245
-1.82475e-05
-1.80522e-06
-3.93337e-07
-6.09678e-08
-0.0673643
-0.0198228
-0.000112764
-7.19862e-08
-1.06192e-07
-1.52198e-07
-1.43239e-07
-1.06959e-07
-4.54746e-07
-3.10155e-06
-1.87369e-06
-4.84418e-24
-0.00817955
-0.0286061
-0.0102104
-0.000497412
-4.08434e-06
-3.64919e-07
-0.000985207
-0.0100384
-0.00926004
-0.000968914
-1.55345e-08
-2.07996e-08
-2.79482e-08
-3.54587e-08
-9.04695e-08
-7.33987e-07
-5.49855e-06
-4.58321e-06
-2.16701e-24
-0.0146465
-0.0434097
-0.0313243
-0.00309476
-3.17102e-06
-3.74705e-07
-0.00234055
-0.00132768
-9.45766e-05
-0.00150731
-2.45084e-09
-2.85864e-09
-4.12343e-09
-8.66615e-09
-4.08828e-08
-4.97913e-07
-5.30832e-06
-5.77025e-06
-2.69433e-24
-0.0362889
-0.0445443
-0.0170198
-0.00258496
-1.5708e-05
-3.84506e-07
-0.00240394
-0.000347735
-3.01237e-05
-0.000846424
-2.75662e-10
-2.99414e-10
-6.32545e-10
-2.35151e-09
-1.32418e-08
-1.22217e-07
-2.43073e-06
-5.96581e-06
-4.80992e-24
-0.167355
-0.457586
-0.157759
-0.006996
-2.37345e-05
-3.94291e-07
-0.000507267
-3.08909e-05
-3.04183e-05
-0.0159794
-2.2514e-11
-3.00882e-11
-1.11023e-10
-5.60007e-10
-3.30424e-09
-2.34262e-08
-3.45028e-07
-5.51216e-06
1.81056e-24
-0.313697
-0.983638
-0.480088
-0.0117992
-3.32402e-05
-6.57293e-07
-6.39948e-08
-0.000882231
-0.119314
-0.0380076
-1.62476e-12
-3.73864e-12
-1.72704e-11
-9.63168e-11
-6.22242e-10
-4.05325e-09
-4.02274e-08
-2.57603e-06
-5.03995e-24
-0.223066
-1.00748
-0.955565
-0.0778888
-0.000226395
-5.28747e-07
-6.60288e-08
-0.11617
-0.174935
-0.0428449
-9.69551e-14
-3.06042e-13
-1.51211e-12
-9.84588e-12
-8.03065e-11
-6.98043e-10
-9.00753e-09
-5.23647e-07
-2.1984e-08
1.34604e-28
-0.898914
-1.03132
-0.264533
-0.000824586
-2.55831e-07
-6.70967e-08
-0.178871
-0.178856
-0.0567001
-2.34448e-15
-8.45254e-15
-5.84244e-14
-6.17634e-13
-7.62013e-12
-9.46139e-11
-1.30371e-09
-3.63302e-08
-1.97425e-09
1.38678e-27
-0.878823
-1.05516
-0.42294
-0.00044685
-1.19448e-07
-6.91536e-08
-0.0931279
-0.0951219
-0.0623878
-1.09581e-19
-5.29872e-19
-2.76297e-18
-9.60807e-18
-1.12342e-17
1.97814e-68
1.92508e-67
3.33357e-66
6.87601e-28
2.04514e-28
-0.440321
-0.82657
-0.276283
-0.000352163
-1.17067e-07
-0.000255143
-0.00045754
-0.000176069
-0.0508498
)
;

boundaryField
{
    leftWall
    {
        type            calculated;
        value           nonuniform List<scalar> 
50
(
-29.4294
-88.2881
-147.147
-206.006
-264.864
-323.723
-382.582
-433.594
-238.789
-1.9204
-4.87786e-05
-2.86371e-11
-2.66684e-12
-1.05196e-12
-8.19001e-13
-5.91316e-13
-2.81591e-13
-1.03345e-13
-3.31391e-14
-9.79011e-15
-2.60014e-15
-6.38923e-16
-1.44433e-16
-3.04674e-17
-6.00154e-18
-1.10807e-18
-1.92653e-19
-3.17176e-20
-4.96482e-21
-7.45608e-22
-1.08456e-22
-1.54691e-23
-2.18513e-24
-3.09241e-25
-4.05192e-26
-9.69755e-27
-1.09145e-26
-1.30962e-24
-1.21426e-22
-3.57442e-21
-6.3111e-20
-3.74808e-19
-2.00767e-18
-5.5064e-18
-1.21424e-17
-2.57852e-17
-5.76251e-17
-1.64381e-16
-3.51747e-16
-8.01345e-16
)
;
    }
    rightWall
    {
        type            calculated;
        value           nonuniform List<scalar> 
50
(
-23.1447
-57.3992
-117.637
-164.713
-207.96
-228.041
-269.606
-336.704
-414.622
-511.901
-601.317
-491.652
-438.001
-481.483
-559.015
-694.399
-1235.26
-1643.96
-1767.93
-1880.8
-1210.93
-378.012
-522.813
-967.086
-1017.3
-1067.5
-1117.7
-826.998
-0.798738
-0.829657
-0.864576
-3.58208
-7.70235
-51.5484
-345.568
-414.455
-427.704
-396.178
-35.9746
-0.000109672
-0.000112764
-0.000968914
-0.00150731
-0.000846424
-0.0159794
-0.0380076
-0.0428449
-0.0567001
-0.0623878
-0.0508498
)
;
    }
    lowerWall
    {
        type            calculated;
        value           nonuniform List<scalar> 
62
(
0
0
0
0
0
0
0
0
0
0
0
0
0
0
0
0
0
0
0
0
0
0
0
-29.4228
-88.2626
-147.104
-205.95
-264.863
-323.723
-382.582
-441.374
-393.556
-343.545
-350.335
-350.299
-19.0291
-57.0874
-113.225
-166.979
-214.662
-246.324
-298.294
-344.188
0
0
0
0
0
0
0
0
0
0
0
0
0
0
0
0
0
0
0
)
;
    }
    atmosphere
    {
        type            calculated;
        value           nonuniform List<scalar> 
46
(
-8.10197e-16
-8.01191e-14
-3.70015e-12
-1.04762e-10
-2.02131e-09
-2.81443e-08
-2.97178e-07
-3.17143e-06
-6.67381e-05
-0.000334686
-0.000107839
-1.73661e-08
-3.85673e-08
-1.79749e-07
-1.32816e-07
-0
-0
-0
-0
-0
-0
-0
-0
-0
-0
-0
-0
-0
-0
-0
-0
-0
-0
-0
-0
-0
-0
-0
-0.835701
-0.279335
-0.000356053
-1.1836e-07
-0.000257961
-0.000462594
-0.000178014
-0.0514115
)
;
    }
    defaultFaces
    {
        type            empty;
    }
}


// ************************************************************************* //
