/*--------------------------------*- C++ -*----------------------------------*\
| =========                 |                                                 |
| \\      /  F ield         | OpenFOAM: The Open Source CFD Toolbox           |
|  \\    /   O peration     | Version:  2012                                  |
|   \\  /    A nd           | Website:  www.openfoam.com                      |
|    \\/     M anipulation  |                                                 |
\*---------------------------------------------------------------------------*/
FoamFile
{
    version     2.0;
    format      ascii;
    class       volVectorField;
    location    "0.72";
    object      U;
}
// * * * * * * * * * * * * * * * * * * * * * * * * * * * * * * * * * * * * * //

dimensions      [0 1 -1 0 0 0 0];


internalField   nonuniform List<vector> 
2268
(
(-0.00726152 0.00218845 0)
(-0.0176482 0.00178747 0)
(-0.0292089 0.00196427 0)
(-0.042781 0.00234432 0)
(-0.0593271 0.00229526 0)
(-0.0742402 0.00170074 0)
(-0.086599 0.00182631 0)
(-0.101479 0.00255769 0)
(-0.117387 0.00263971 0)
(-0.127965 0.00278062 0)
(-0.14157 0.00265063 0)
(-0.148902 0.00256011 0)
(-0.157746 0.00142664 0)
(-0.156709 0.000255154 0)
(-0.159462 -0.000789072 0)
(-0.153011 -0.00168862 0)
(-0.152999 -0.00301648 0)
(-0.138303 -0.00444787 0)
(-0.129089 -0.00655899 0)
(-0.102899 -0.0088556 0)
(-0.0741363 -0.01018 0)
(-0.0479594 -0.0147179 0)
(0.0177297 -0.00207473 0)
(-0.0074831 0.00958517 0)
(-0.0179209 0.00858778 0)
(-0.0295779 0.00991516 0)
(-0.0427484 0.011891 0)
(-0.0589815 0.0125746 0)
(-0.073782 0.0111844 0)
(-0.0864992 0.0110495 0)
(-0.101546 0.0119711 0)
(-0.117412 0.00990409 0)
(-0.127674 0.00859444 0)
(-0.141991 0.00732491 0)
(-0.149137 0.00497281 0)
(-0.158072 0.00241255 0)
(-0.157494 0.000377882 0)
(-0.16044 -0.0007269 0)
(-0.154059 -0.00162219 0)
(-0.153828 -0.00360056 0)
(-0.13943 -0.00719415 0)
(-0.131025 -0.00973737 0)
(-0.105977 -0.0175075 0)
(-0.0806386 -0.0153091 0)
(-0.0561701 -0.0289827 0)
(0.00350601 -0.0118869 0)
(-0.00776559 0.0141886 0)
(-0.0175678 0.0122248 0)
(-0.0292331 0.0136908 0)
(-0.0418465 0.016234 0)
(-0.0578604 0.0169572 0)
(-0.0730829 0.0147078 0)
(-0.0872628 0.0149654 0)
(-0.103147 0.0171655 0)
(-0.119079 0.0150317 0)
(-0.129758 0.014346 0)
(-0.143675 0.0128669 0)
(-0.150229 0.0100471 0)
(-0.158864 0.00551596 0)
(-0.158063 0.00117365 0)
(-0.161542 -0.00220995 0)
(-0.154769 -0.00511602 0)
(-0.154966 -0.00966082 0)
(-0.139504 -0.015652 0)
(-0.131323 -0.0220586 0)
(-0.105083 -0.033211 0)
(-0.0793785 -0.0334991 0)
(-0.0489986 -0.0550364 0)
(0.0129758 -0.0273486 0)
(-0.00805569 0.0215676 0)
(-0.0175018 0.0187456 0)
(-0.0298315 0.0214022 0)
(-0.0421566 0.0254342 0)
(-0.0573441 0.0273488 0)
(-0.072013 0.025074 0)
(-0.0869517 0.0252472 0)
(-0.102646 0.0269687 0)
(-0.118501 0.0224881 0)
(-0.129934 0.0201637 0)
(-0.144081 0.0170834 0)
(-0.151617 0.0120414 0)
(-0.161329 0.00627333 0)
(-0.161418 0.00148779 0)
(-0.164746 -0.00202305 0)
(-0.157663 -0.00494205 0)
(-0.158258 -0.0104093 0)
(-0.14403 -0.018628 0)
(-0.137291 -0.0254132 0)
(-0.111626 -0.0423212 0)
(-0.086805 -0.0409956 0)
(-0.050824 -0.0727105 0)
(0.0166397 -0.0277544 0)
(-0.00700805 0.0262502 0)
(-0.0165592 0.0224993 0)
(-0.0288897 0.0253187 0)
(-0.0409449 0.0292124 0)
(-0.0557038 0.0310452 0)
(-0.0706496 0.0286985 0)
(-0.0884346 0.0294677 0)
(-0.105368 0.0320902 0)
(-0.121687 0.0279853 0)
(-0.133875 0.026397 0)
(-0.14718 0.0231765 0)
(-0.154028 0.0180971 0)
(-0.163227 0.0102673 0)
(-0.16246 0.00257616 0)
(-0.166239 -0.00381544 0)
(-0.158784 -0.00852907 0)
(-0.160948 -0.0159016 0)
(-0.145875 -0.0260867 0)
(-0.141236 -0.0372082 0)
(-0.114009 -0.0577953 0)
(-0.0916696 -0.0623005 0)
(-0.0432633 -0.1048 0)
(0.0371285 -0.0448129 0)
(-0.00519693 0.0327282 0)
(-0.0168125 0.0291144 0)
(-0.0299935 0.0329611 0)
(-0.0422085 0.0381489 0)
(-0.055582 0.0414244 0)
(-0.069287 0.0405513 0)
(-0.0876345 0.0416449 0)
(-0.103823 0.042635 0)
(-0.120057 0.035948 0)
(-0.133816 0.032148 0)
(-0.148475 0.0266851 0)
(-0.157341 0.0195184 0)
(-0.168063 0.0104151 0)
(-0.168002 0.0027844 0)
(-0.170835 -0.00347667 0)
(-0.163355 -0.00761723 0)
(-0.166698 -0.0160148 0)
(-0.153307 -0.028136 0)
(-0.151523 -0.0396746 0)
(-0.124172 -0.065925 0)
(-0.104846 -0.073143 0)
(-0.0466394 -0.13364 0)
(0.0460195 -0.0281411 0)
(-0.0030005 0.0366231 0)
(-0.0148107 0.0341837 0)
(-0.0279519 0.0372698 0)
(-0.0403295 0.0412453 0)
(-0.0527832 0.0437796 0)
(-0.0671377 0.0438193 0)
(-0.0890818 0.0458011 0)
(-0.107695 0.0474402 0)
(-0.1254 0.0422346 0)
(-0.139479 0.039816 0)
(-0.152727 0.0343499 0)
(-0.160398 0.0272761 0)
(-0.170589 0.0154011 0)
(-0.169401 0.00367106 0)
(-0.172458 -0.00588053 0)
(-0.165116 -0.0108632 0)
(-0.170956 -0.0205209 0)
(-0.15695 -0.0338811 0)
(-0.159043 -0.0509466 0)
(-0.12886 -0.0807804 0)
(-0.116116 -0.0992508 0)
(-0.0379459 -0.177233 0)
(0.0602822 -0.0479467 0)
(-0.00184838 0.0411739 0)
(-0.0138144 0.04095 0)
(-0.026863 0.0450862 0)
(-0.0402424 0.0499771 0)
(-0.0511256 0.0541824 0)
(-0.0651063 0.0577633 0)
(-0.0872473 0.0608309 0)
(-0.105639 0.0597459 0)
(-0.12479 0.0509173 0)
(-0.140511 0.0449771 0)
(-0.154824 0.0366282 0)
(-0.166446 0.0278565 0)
(-0.178097 0.0148144 0)
(-0.176536 0.00357684 0)
(-0.177041 -0.00520668 0)
(-0.170469 -0.00847207 0)
(-0.178131 -0.0192767 0)
(-0.166193 -0.0339281 0)
(-0.172539 -0.0519127 0)
(-0.142123 -0.0863783 0)
(-0.144068 -0.114304 0)
(-0.0618264 -0.217926 0)
(-0.071816 -0.0127619 0)
(-0.570665 0.240623 0)
(-1.19351 0.109437 0)
(-1.52792 0.0478978 0)
(-1.60259 0.019472 0)
(-1.59036 -0.0299788 0)
(-1.36854 -0.050124 0)
(-1.1825 0.00257925 0)
(-1.14309 0.0805527 0)
(-1.35987 0.0704108 0)
(-1.51832 0.032582 0)
(-1.61058 0.0233452 0)
(-1.64329 0.00532475 0)
(-1.65484 -0.000268822 0)
(-1.65242 -0.00801371 0)
(-1.63427 -0.00692157 0)
(-1.62291 0.010524 0)
(-1.64257 0.00874738 0)
(-1.53913 -0.0608974 0)
(-0.890411 -0.294131 0)
(-0.447609 0.510661 0)
(-0.956779 0.30025 0)
(-1.22847 0.126359 0)
(-1.27258 0.00606805 0)
(-1.2895 -0.0685859 0)
(-1.05041 -0.122241 0)
(-0.843516 -0.0972859 0)
(-0.888167 -0.00562804 0)
(-1.13687 0.0877354 0)
(-1.28284 0.0737198 0)
(-1.36193 0.0292581 0)
(-1.3849 0.013378 0)
(-1.39229 0.00430548 0)
(-1.39841 -0.000872502 0)
(-1.41438 -0.00536987 0)
(-1.45897 -0.00863646 0)
(-1.51969 -0.0446061 0)
(-1.21277 -0.256621 0)
(-0.541229 -0.746654 0)
(-0.422222 0.825022 0)
(-0.702179 0.442451 0)
(-0.91344 0.181594 0)
(-1.0365 0.0428767 0)
(-1.03277 -0.121267 0)
(-0.617482 -0.243923 0)
(-0.282415 -0.0729121 0)
(-0.168478 0.213133 0)
(-0.483944 0.246118 0)
(-0.688313 0.131385 0)
(-1.02652 0.0675117 0)
(-1.28786 0.017576 0)
(-1.40754 0.00466355 0)
(-1.46098 0.000810004 0)
(-1.52754 0.0182224 0)
(-1.58133 0.0536973 0)
(-1.51515 -0.0963175 0)
(-0.802972 -0.476687 0)
(-0.296283 -1.0387 0)
(-0.355106 0.999368 0)
(-0.494784 0.514701 0)
(-0.865808 0.268138 0)
(-1.07407 0.0576653 0)
(-0.889037 -0.247826 0)
(-0.248036 -0.435802 0)
(-0.0582384 -0.284904 0)
(0.325937 0.0665213 0)
(0.633375 0.295105 0)
(0.570911 0.301396 0)
(0.444905 0.275688 0)
(0.314495 0.212577 0)
(-0.165912 0.153613 0)
(-0.412645 0.0742212 0)
(-0.977546 0.067662 0)
(-1.11125 -0.0398439 0)
(-0.897313 -0.419634 0)
(-0.280759 -0.768988 0)
(-0.212459 -1.22434 0)
(-0.310044 1.17314 0)
(-0.326001 0.657504 0)
(-0.720566 0.382572 0)
(-0.971956 0.0398371 0)
(-0.454445 -0.469891 0)
(0.0701955 -0.610738 0)
(0.137177 -0.321596 0)
(0.382823 -0.0718009 0)
(0.640522 0.152445 0)
(0.826748 0.212418 0)
(0.936472 0.197967 0)
(1.04294 0.194588 0)
(1.10901 0.197105 0)
(1.19738 0.240871 0)
(0.898281 0.268792 0)
(1.11981 0.0254654 0)
(-0.147993 -0.257416 0)
(0.468642 -0.803128 0)
(-0.135991 -1.24531 0)
(-0.288687 1.27934 0)
(-0.0370497 0.694064 0)
(-0.504483 0.61834 0)
(-0.0878907 -0.00882056 0)
(0.226823 -0.67601 0)
(0.247837 -0.687657 0)
(0.308096 -0.416608 0)
(0.524445 -0.15216 0)
(0.675618 0.102087 0)
(0.855805 0.172723 0)
(0.941787 0.175427 0)
(1.00927 0.175085 0)
(1.06715 0.175855 0)
(1.11191 0.205358 0)
(1.14033 0.250382 0)
(1.12448 0.236155 0)
(0.703622 -0.110247 0)
(0.743403 -0.788271 0)
(-0.0519296 -1.09671 0)
(-0.321525 1.29468 0)
(0.335966 0.80716 0)
(-1.06148 0.223969 0)
(0.571928 -0.140762 0)
(0.436219 -0.651638 0)
(0.365877 -0.656558 0)
(0.408894 -0.442862 0)
(0.565308 -0.223816 0)
(0.672951 0.0127948 0)
(0.836193 0.101172 0)
(0.934371 0.133067 0)
(0.999108 0.141283 0)
(1.05533 0.151427 0)
(1.10312 0.182354 0)
(1.13871 0.2371 0)
(1.17483 0.224413 0)
(1.12786 -0.0153893 0)
(0.856092 -0.517522 0)
(-0.133335 -0.949662 0)
(-0.333624 1.2719 0)
(0.408481 1.07576 0)
(-0.839706 0.390456 0)
(0.534938 -0.559531 0)
(0.450043 -0.633347 0)
(0.412335 -0.671355 0)
(0.467977 -0.500772 0)
(0.610051 -0.267594 0)
(0.693866 -0.0148617 0)
(0.81824 0.0600142 0)
(0.90256 0.105292 0)
(0.961031 0.123186 0)
(1.02216 0.131792 0)
(1.06243 0.169919 0)
(1.11052 0.221127 0)
(1.11137 0.220205 0)
(1.05939 0.0322375 0)
(0.740067 -0.250358 0)
(-0.180397 -0.789417 0)
(1.25917e-05 0.0453781 0)
(-0.00999184 0.0485772 0)
(-0.0200165 0.0520913 0)
(-0.0337438 0.0539407 0)
(-0.0452205 0.0560032 0)
(-0.0590777 0.0624668 0)
(-0.0778544 0.067206 0)
(-0.0945771 0.0682904 0)
(-0.11677 0.0632866 0)
(-0.137255 0.0591474 0)
(-0.156466 0.0523174 0)
(-0.172186 0.0440679 0)
(-0.182657 0.0232954 0)
(-0.177795 0.00261561 0)
(-0.177456 -0.0106037 0)
(-0.171287 -0.0120202 0)
(-0.184191 -0.0243063 0)
(-0.171931 -0.0390682 0)
(-0.184981 -0.0683058 0)
(-0.161471 -0.100323 0)
(-0.209527 -0.150992 0)
(-0.139629 -0.207368 0)
(-0.265553 -0.175039 0)
(-0.0054834 0.0497328 0)
(-0.0224566 0.0582559 0)
(-0.0489439 0.0663108 0)
(-0.104334 0.0737601 0)
(-0.136785 0.0788773 0)
(-0.14069 0.0887356 0)
(-0.143184 0.0940655 0)
(-0.148725 0.0955807 0)
(-0.160724 0.0892379 0)
(-0.166772 0.0796185 0)
(-0.172266 0.0661649 0)
(-0.171022 0.0481807 0)
(-0.169734 0.0176073 0)
(-0.167644 -0.00150037 0)
(-0.174293 -0.00930327 0)
(-0.179685 -0.000834763 0)
(-0.199987 -0.0156336 0)
(-0.20277 -0.0320384 0)
(-0.226706 -0.0542792 0)
(-0.233385 -0.058546 0)
(-0.291126 -0.117382 0)
(-0.330023 -0.174078 0)
(-0.449568 -0.320917 0)
(-0.0244537 0.074073 0)
(-0.065055 0.0927195 0)
(-0.108193 0.135266 0)
(-0.146875 0.14307 0)
(-0.167776 0.092778 0)
(-0.186637 0.0694295 0)
(-0.204842 0.076047 0)
(-0.224626 0.0862922 0)
(-0.260263 0.0816649 0)
(-0.268909 0.0707878 0)
(-0.271855 0.0567098 0)
(-0.26557 0.0415252 0)
(-0.262378 0.020073 0)
(-0.226654 0.00701547 0)
(-0.182053 0.00161936 0)
(-0.146589 0.0133141 0)
(-0.142399 -0.00104434 0)
(-0.152169 -0.0132467 0)
(-0.193333 -0.0374896 0)
(-0.201395 -0.0376653 0)
(-0.276879 -0.052541 0)
(-0.331935 -0.0522281 0)
(-0.483552 -0.0906902 0)
(-0.026351 0.139259 0)
(-0.0744523 0.141973 0)
(-0.113183 0.148516 0)
(-0.122619 0.133463 0)
(-0.144641 0.118921 0)
(-0.209341 0.125623 0)
(-0.271871 0.131582 0)
(-0.319195 0.150407 0)
(-0.364249 0.133721 0)
(-0.399418 0.0907909 0)
(-0.422308 0.0626449 0)
(-0.438434 0.0382432 0)
(-0.458 -0.0218815 0)
(-0.421744 -0.0825113 0)
(-0.375601 -0.0897039 0)
(-0.349503 -0.0410785 0)
(-0.388227 -0.00900833 0)
(-0.416747 0.0196716 0)
(-0.373686 -0.00231002 0)
(-0.258518 0.0263418 0)
(-0.251766 0.0157321 0)
(-0.267254 0.0340213 0)
(-0.406179 0.026928 0)
(-0.0224496 0.175669 0)
(-0.0633674 0.180049 0)
(-0.107018 0.183952 0)
(-0.143318 0.174462 0)
(-0.197973 0.180236 0)
(-0.25713 0.196958 0)
(-0.327452 0.188208 0)
(-0.389678 0.179969 0)
(-0.452233 0.163753 0)
(-0.52864 0.129763 0)
(-0.644044 0.0963581 0)
(-0.739122 0.0788592 0)
(-0.951639 0.00757452 0)
(-1.2854 -0.067886 0)
(-1.76248 -0.0612631 0)
(-1.97748 0.0296715 0)
(-1.84776 0.0666549 0)
(-1.54073 -0.0321916 0)
(-1.27109 -0.20251 0)
(-0.952739 -0.165912 0)
(-0.704068 -0.0451812 0)
(-0.545752 0.0992495 0)
(-0.528368 0.112581 0)
(-0.022858 0.225425 0)
(-0.063885 0.226802 0)
(-0.108132 0.228843 0)
(-0.151905 0.224568 0)
(-0.212115 0.23333 0)
(-0.267288 0.255286 0)
(-0.337242 0.264785 0)
(-0.422516 0.273644 0)
(-0.532438 0.274599 0)
(-0.6748 0.280867 0)
(-0.887562 0.277502 0)
(-1.12812 0.34278 0)
(-1.47369 0.517971 0)
(-1.94886 0.709465 0)
(-2.39139 0.581626 0)
(-2.56448 0.0415106 0)
(-2.27399 -0.440039 0)
(-1.94988 -0.556984 0)
(-1.79115 -0.587338 0)
(-1.6232 -0.535569 0)
(-1.44658 -0.383224 0)
(-1.19076 -0.143708 0)
(-0.956927 -0.0456069 0)
(-0.0207345 0.263064 0)
(-0.0586448 0.265902 0)
(-0.101858 0.272801 0)
(-0.143654 0.279139 0)
(-0.199872 0.296836 0)
(-0.250317 0.322807 0)
(-0.313228 0.345209 0)
(-0.38356 0.376554 0)
(-0.48569 0.418345 0)
(-0.613702 0.486252 0)
(-0.811245 0.554475 0)
(-1.05639 0.669792 0)
(-1.35309 0.841274 0)
(-1.58955 0.878012 0)
(-1.81809 0.564331 0)
(-1.86646 -0.100892 0)
(-1.93614 -0.506575 0)
(-1.90528 -0.546986 0)
(-1.87956 -0.54167 0)
(-1.84249 -0.51926 0)
(-1.80797 -0.491831 0)
(-1.66464 -0.389611 0)
(-1.48646 -0.325761 0)
(-0.0196801 0.305188 0)
(-0.0556329 0.308214 0)
(-0.096327 0.314253 0)
(-0.13491 0.322706 0)
(-0.181967 0.340416 0)
(-0.223119 0.36843 0)
(-0.273579 0.398664 0)
(-0.325473 0.445424 0)
(-0.392767 0.505945 0)
(-0.46311 0.606465 0)
(-0.559069 0.721746 0)
(-0.679526 0.884386 0)
(-0.837643 1.04983 0)
(-0.953026 1.14991 0)
(-1.14109 0.860993 0)
(-1.4266 0.154872 0)
(-1.72276 -0.382568 0)
(-1.71423 -0.616843 0)
(-1.74193 -0.633025 0)
(-1.74371 -0.602325 0)
(-1.73096 -0.555724 0)
(-1.75694 -0.463601 0)
(-1.74696 -0.407242 0)
(-0.0178662 0.338912 0)
(-0.0489178 0.343092 0)
(-0.0851994 0.352787 0)
(-0.117185 0.365502 0)
(-0.158023 0.38608 0)
(-0.19153 0.415355 0)
(-0.232963 0.448966 0)
(-0.268711 0.497138 0)
(-0.31272 0.558131 0)
(-0.343709 0.654019 0)
(-0.369005 0.774685 0)
(-0.374262 0.948701 0)
(-0.359821 1.12085 0)
(-0.332813 1.19633 0)
(-0.326299 1.04705 0)
(-0.543783 0.495496 0)
(-0.951726 -0.226702 0)
(-1.37916 -0.536724 0)
(-1.57796 -0.532017 0)
(-1.53361 -0.526773 0)
(-1.51965 -0.482066 0)
(-1.54718 -0.372644 0)
(-1.57728 -0.246964 0)
(-0.016076 0.372312 0)
(-0.0424368 0.37581 0)
(-0.0744891 0.382827 0)
(-0.100467 0.395562 0)
(-0.133011 0.415003 0)
(-0.157119 0.443038 0)
(-0.186114 0.476127 0)
(-0.206461 0.524383 0)
(-0.228539 0.581252 0)
(-0.235318 0.661902 0)
(-0.226363 0.752757 0)
(-0.180386 0.875192 0)
(-0.0812194 1.0043 0)
(0.0615323 1.1087 0)
(0.187325 1.06435 0)
(0.205707 0.793863 0)
(-0.0549309 0.447315 0)
(-0.533585 0.0273611 0)
(-0.975059 -0.45969 0)
(-1.31725 -0.668555 0)
(-1.48878 -0.505004 0)
(-1.41927 -0.397763 0)
(-1.38823 -0.286708 0)
(-0.0140448 0.397858 0)
(-0.0348395 0.40197 0)
(-0.0628055 0.41135 0)
(-0.08371 0.424629 0)
(-0.110529 0.443471 0)
(-0.12761 0.469245 0)
(-0.149354 0.499223 0)
(-0.158954 0.540587 0)
(-0.169649 0.588105 0)
(-0.16043 0.652743 0)
(-0.143194 0.720766 0)
(-0.0914516 0.803482 0)
(-0.00867055 0.879424 0)
(0.125533 0.931265 0)
(0.277679 0.903259 0)
(0.376226 0.746736 0)
(0.350163 0.518713 0)
(0.211515 0.372332 0)
(-0.0812301 0.258248 0)
(-0.663352 -0.0324883 0)
(-1.17357 -0.405407 0)
(-1.34747 -0.501812 0)
(-1.35641 -0.274146 0)
(-0.0121095 0.421448 0)
(-0.0295636 0.424769 0)
(-0.0530606 0.431915 0)
(-0.0683901 0.443297 0)
(-0.0887229 0.459017 0)
(-0.0988382 0.481543 0)
(-0.11208 0.507456 0)
(-0.112417 0.543907 0)
(-0.112584 0.582425 0)
(-0.0936354 0.634195 0)
(-0.0665413 0.682687 0)
(-0.0129129 0.738964 0)
(0.0624096 0.783068 0)
(0.170148 0.818456 0)
(0.289383 0.804605 0)
(0.386011 0.722566 0)
(0.389137 0.601855 0)
(0.324289 0.479107 0)
(0.233851 0.408324 0)
(0.0756602 0.436265 0)
(-0.310089 0.213886 0)
(-0.915689 -0.227724 0)
(-1.2964 -0.371563 0)
(-0.0103553 0.439861 0)
(-0.0234753 0.44328 0)
(-0.043336 0.450551 0)
(-0.0546469 0.460724 0)
(-0.0713044 0.474395 0)
(-0.0772543 0.493146 0)
(-0.0872134 0.513365 0)
(-0.0827201 0.541783 0)
(-0.0797154 0.569927 0)
(-0.0568642 0.607475 0)
(-0.0305862 0.640483 0)
(0.0198836 0.675315 0)
(0.0778577 0.696542 0)
(0.162163 0.706105 0)
(0.251237 0.68763 0)
(0.340758 0.650716 0)
(0.38115 0.581636 0)
(0.390588 0.525745 0)
(0.350221 0.504518 0)
(0.318799 0.524844 0)
(0.292688 0.57608 0)
(0.0283741 0.500864 0)
(-0.395718 0.125013 0)
(-0.00882009 0.455467 0)
(-0.0191505 0.457904 0)
(-0.0352379 0.463233 0)
(-0.0426526 0.471274 0)
(-0.054905 0.48166 0)
(-0.0562797 0.497202 0)
(-0.0613626 0.512781 0)
(-0.0524595 0.535756 0)
(-0.0450274 0.556095 0)
(-0.0201966 0.583885 0)
(0.00753978 0.604882 0)
(0.0540804 0.628928 0)
(0.104849 0.638547 0)
(0.171267 0.643163 0)
(0.234374 0.622589 0)
(0.300914 0.59322 0)
(0.350826 0.547998 0)
(0.382909 0.514333 0)
(0.401464 0.478844 0)
(0.431943 0.492704 0)
(0.490331 0.506738 0)
(0.565318 0.466482 0)
(0.587078 0.371365 0)
(-0.0074895 0.468065 0)
(-0.0150489 0.469953 0)
(-0.0288701 0.474301 0)
(-0.0341361 0.480684 0)
(-0.0446094 0.48832 0)
(-0.0444693 0.499945 0)
(-0.0482441 0.509885 0)
(-0.0386019 0.525873 0)
(-0.0313539 0.538045 0)
(-0.00756737 0.555427 0)
(0.016225 0.566461 0)
(0.0579461 0.578574 0)
(0.0994663 0.579428 0)
(0.157084 0.577381 0)
(0.20844 0.557699 0)
(0.267015 0.535034 0)
(0.308778 0.499352 0)
(0.355837 0.476636 0)
(0.385676 0.45321 0)
(0.424861 0.440777 0)
(0.482575 0.439359 0)
(0.55482 0.407161 0)
(0.587205 0.285538 0)
(-0.00643008 0.478151 0)
(-0.0123325 0.479408 0)
(-0.0239157 0.482423 0)
(-0.0273209 0.487028 0)
(-0.0351889 0.491998 0)
(-0.0330043 0.500657 0)
(-0.0341147 0.506761 0)
(-0.0229262 0.518368 0)
(-0.0139255 0.524632 0)
(0.00913909 0.535422 0)
(0.0308574 0.538634 0)
(0.0676412 0.544485 0)
(0.102355 0.538347 0)
(0.150811 0.532921 0)
(0.193951 0.511535 0)
(0.244388 0.492201 0)
(0.285274 0.458049 0)
(0.32936 0.436735 0)
(0.372476 0.409156 0)
(0.419047 0.393301 0)
(0.475581 0.374745 0)
(0.54746 0.357767 0)
(0.604638 0.312055 0)
(-0.00565574 0.486993 0)
(-0.0105811 0.487624 0)
(-0.0207294 0.489455 0)
(-0.0235056 0.492164 0)
(-0.0304638 0.494189 0)
(-0.0285603 0.499093 0)
(-0.0297288 0.5 0)
(-0.0197381 0.505941 0)
(-0.0126488 0.506183 0)
(0.00834644 0.510891 0)
(0.0261032 0.508099 0)
(0.0593528 0.507262 0)
(0.0886658 0.496328 0)
(0.13178 0.485856 0)
(0.169584 0.464093 0)
(0.215682 0.443844 0)
(0.255564 0.414196 0)
(0.298366 0.389948 0)
(0.340983 0.362921 0)
(0.386866 0.339368 0)
(0.434863 0.310465 0)
(0.490673 0.280875 0)
(0.547556 0.246165 0)
(-0.0050926 0.494513 0)
(-0.00965562 0.494592 0)
(-0.0187214 0.495432 0)
(-0.0214125 0.496791 0)
(-0.0274306 0.497061 0)
(-0.0259815 0.499817 0)
(-0.0261889 0.497838 0)
(-0.0180285 0.50099 0)
(-0.0106408 0.49633 0)
(0.00732761 0.496172 0)
(0.0237489 0.487279 0)
(0.0527116 0.4812 0)
(0.0789829 0.465505 0)
(0.11625 0.451098 0)
(0.150454 0.427261 0)
(0.191839 0.40523 0)
(0.230964 0.375078 0)
(0.273848 0.350173 0)
(0.316754 0.320245 0)
(0.365316 0.297645 0)
(0.412035 0.270028 0)
(0.460263 0.242278 0)
(0.511186 0.222619 0)
(-0.00492996 0.501867 0)
(-0.00995438 0.501397 0)
(-0.0187362 0.501333 0)
(-0.0220443 0.50104 0)
(-0.0277675 0.498879 0)
(-0.0269829 0.497994 0)
(-0.0275055 0.492112 0)
(-0.0210661 0.490447 0)
(-0.0144828 0.480803 0)
(0.000104098 0.476446 0)
(0.013943 0.462661 0)
(0.0379566 0.451845 0)
(0.0607411 0.432754 0)
(0.093221 0.414077 0)
(0.124481 0.388505 0)
(0.162713 0.363001 0)
(0.200539 0.332155 0)
(0.242904 0.304002 0)
(0.28584 0.271356 0)
(0.333951 0.244291 0)
(0.383163 0.215665 0)
(0.432022 0.182353 0)
(0.485522 0.162415 0)
(-0.00510663 0.509527 0)
(-0.0112375 0.508523 0)
(-0.0204584 0.50762 0)
(-0.0249871 0.505886 0)
(-0.0313549 0.502039 0)
(-0.0324046 0.499551 0)
(-0.0342605 0.491982 0)
(-0.0306232 0.487964 0)
(-0.025729 0.475224 0)
(-0.0145003 0.467645 0)
(-0.000738926 0.449413 0)
(0.0195036 0.434114 0)
(0.0415613 0.410163 0)
(0.0701392 0.386837 0)
(0.0995289 0.357668 0)
(0.135184 0.328444 0)
(0.171525 0.294763 0)
(0.213734 0.263954 0)
(0.256533 0.228942 0)
(0.305386 0.199137 0)
(0.355982 0.171484 0)
(0.407473 0.138387 0)
(0.460759 0.118639 0)
(-0.00549165 0.518328 0)
(-0.0134052 0.516882 0)
(-0.0236199 0.51519 0)
(-0.0297251 0.51207 0)
(-0.0373443 0.506388 0)
(-0.0401205 0.500981 0)
(-0.042881 0.490297 0)
(-0.0408716 0.481812 0)
(-0.0370186 0.464481 0)
(-0.028819 0.451189 0)
(-0.0168035 0.428399 0)
(-0.00150652 0.40916 0)
(0.0180212 0.381887 0)
(0.0418785 0.355668 0)
(0.0687181 0.3233 0)
(0.101894 0.290529 0)
(0.137037 0.253465 0)
(0.178767 0.218529 0)
(0.222778 0.179569 0)
(0.272455 0.144419 0)
(0.32674 0.113552 0)
(0.383233 0.0772181 0)
(0.44388 0.0538088 0)
(-0.00621332 0.528576 0)
(-0.0167867 0.526806 0)
(-0.0287449 0.524068 0)
(-0.0371645 0.519726 0)
(-0.0467178 0.512531 0)
(-0.0520308 0.50517 0)
(-0.0570289 0.492859 0)
(-0.0581751 0.482227 0)
(-0.0567885 0.463372 0)
(-0.0527626 0.447578 0)
(-0.0434429 0.42231 0)
(-0.0320694 0.399358 0)
(-0.0138452 0.366913 0)
(0.00720252 0.335983 0)
(0.033252 0.29765 0)
(0.0648394 0.259724 0)
(0.0991518 0.217767 0)
(0.140918 0.177621 0)
(0.185822 0.13498 0)
(0.237358 0.0944096 0)
(0.294224 0.0602883 0)
(0.355289 0.0202643 0)
(0.42146 -0.0067063 0)
(-0.00739958 0.54148 0)
(-0.0211407 0.539578 0)
(-0.0356684 0.535709 0)
(-0.0471088 0.530197 0)
(-0.0593662 0.521366 0)
(-0.0677932 0.511392 0)
(-0.0756028 0.496447 0)
(-0.0798897 0.481514 0)
(-0.0811271 0.458889 0)
(-0.0803825 0.437567 0)
(-0.0739356 0.407345 0)
(-0.0662928 0.379101 0)
(-0.0515445 0.342183 0)
(-0.0352214 0.308067 0)
(-0.0116302 0.265296 0)
(0.0165107 0.224121 0)
(0.0494282 0.177056 0)
(0.0901944 0.131309 0)
(0.135723 0.0827741 0)
(0.188302 0.0353818 0)
(0.248908 -0.00470625 0)
(0.315404 -0.05081 0)
(0.390492 -0.0826121 0)
(-0.00911296 0.557307 0)
(-0.0267525 0.555274 0)
(-0.0447476 0.550203 0)
(-0.0601807 0.543589 0)
(-0.0760151 0.533358 0)
(-0.0884216 0.52155 0)
(-0.100065 0.505116 0)
(-0.108613 0.487929 0)
(-0.11428 0.464099 0)
(-0.118031 0.440645 0)
(-0.116265 0.408537 0)
(-0.112861 0.377263 0)
(-0.101868 0.336136 0)
(-0.0891828 0.296227 0)
(-0.0675723 0.245992 0)
(-0.0433192 0.198559 0)
(-0.0110577 0.14393 0)
(0.0284228 0.0909937 0)
(0.0743527 0.0365353 0)
(0.128167 -0.0193025 0)
(0.1911 -0.0672998 0)
(0.261142 -0.122148 0)
(0.341952 -0.162128 0)
(-0.0112712 0.577573 0)
(-0.0330669 0.575457 0)
(-0.0553035 0.569358 0)
(-0.0753318 0.561693 0)
(-0.0956594 0.549794 0)
(-0.112895 0.535611 0)
(-0.129494 0.516719 0)
(-0.142964 0.495761 0)
(-0.153903 0.468208 0)
(-0.162182 0.43937 0)
(-0.165716 0.401847 0)
(-0.167493 0.36427 0)
(-0.162914 0.318002 0)
(-0.156606 0.273224 0)
(-0.141542 0.21895 0)
(-0.124122 0.167111 0)
(-0.0957061 0.104862 0)
(-0.0628409 0.0453482 0)
(-0.0183959 -0.0174837 0)
(0.0351603 -0.0820929 0)
(0.0995838 -0.138223 0)
(0.172806 -0.202618 0)
(0.260623 -0.250418 0)
(-0.0138305 0.601887 0)
(-0.0403125 0.599561 0)
(-0.0674738 0.592693 0)
(-0.0926852 0.584172 0)
(-0.118047 0.571131 0)
(-0.140741 0.555609 0)
(-0.162838 0.535424 0)
(-0.181912 0.512607 0)
(-0.199019 0.483621 0)
(-0.213439 0.452803 0)
(-0.224045 0.414236 0)
(-0.232222 0.37491 0)
(-0.23377 0.325678 0)
(-0.23222 0.27526 0)
(-0.221454 0.213687 0)
(-0.208922 0.152832 0)
(-0.183613 0.0824563 0)
(-0.156564 0.0135596 0)
(-0.113049 -0.0619235 0)
(-0.0644333 -0.137669 0)
(-0.00215545 -0.205572 0)
(0.0706667 -0.284029 0)
(0.159469 -0.34506 0)
(-0.0164504 0.632075 0)
(-0.0478346 0.629477 0)
(-0.0802589 0.622088 0)
(-0.111033 0.612622 0)
(-0.142106 0.598171 0)
(-0.171022 0.580688 0)
(-0.199494 0.558098 0)
(-0.225132 0.532086 0)
(-0.24922 0.499769 0)
(-0.270213 0.464358 0)
(-0.287874 0.420451 0)
(-0.302347 0.373709 0)
(-0.311557 0.317574 0)
(-0.318527 0.260416 0)
(-0.317503 0.195239 0)
(-0.31303 0.12884 0)
(-0.294116 0.0521863 0)
(-0.27306 -0.0257535 0)
(-0.234411 -0.1101 0)
(-0.197095 -0.193703 0)
(-0.139949 -0.273877 0)
(-0.0715814 -0.365165 0)
(0.0112559 -0.437023 0)
(-0.0191551 0.666449 0)
(-0.0557422 0.663662 0)
(-0.0935491 0.656168 0)
(-0.129743 0.646304 0)
(-0.166298 0.631407 0)
(-0.200958 0.613315 0)
(-0.235362 0.589878 0)
(-0.267213 0.562721 0)
(-0.297972 0.529119 0)
(-0.325694 0.491911 0)
(-0.350927 0.446832 0)
(-0.37303 0.399123 0)
(-0.390508 0.342363 0)
(-0.403371 0.281807 0)
(-0.408105 0.208433 0)
(-0.409042 0.129723 0)
(-0.400572 0.0422533 0)
(-0.391253 -0.0460185 0)
(-0.373904 -0.138325 0)
(-0.354436 -0.232177 0)
(-0.304694 -0.331808 0)
(-0.245474 -0.436027 0)
(-0.170356 -0.52415 0)
(-0.021822 0.707531 0)
(-0.0638302 0.704447 0)
(-0.107252 0.696642 0)
(-0.149334 0.685904 0)
(-0.192046 0.669876 0)
(-0.233189 0.65019 0)
(-0.274323 0.624709 0)
(-0.313183 0.594988 0)
(-0.35124 0.55844 0)
(-0.386247 0.51745 0)
(-0.419146 0.467829 0)
(-0.448477 0.413256 0)
(-0.47407 0.347758 0)
(-0.496912 0.277678 0)
(-0.514577 0.200766 0)
(-0.529988 0.121007 0)
(-0.541721 0.0344764 0)
(-0.558969 -0.0528898 0)
(-0.554916 -0.147002 0)
(-0.523465 -0.263647 0)
(-0.470662 -0.383377 0)
(-0.407432 -0.500332 0)
(-0.329457 -0.606358 0)
(-0.0242669 0.752342 0)
(-0.0711857 0.749368 0)
(-0.119553 0.741952 0)
(-0.166573 0.731413 0)
(-0.214433 0.715612 0)
(-0.260835 0.696001 0)
(-0.307633 0.670324 0)
(-0.352366 0.640151 0)
(-0.396889 0.60272 0)
(-0.438614 0.560387 0)
(-0.479294 0.509595 0)
(-0.516878 0.454618 0)
(-0.552511 0.391321 0)
(-0.584709 0.323018 0)
(-0.617039 0.24182 0)
(-0.653244 0.157389 0)
(-0.695472 0.0711082 0)
(-0.719299 -0.0322333 0)
(-0.689372 -0.174335 0)
(-0.649705 -0.316352 0)
(-0.593781 -0.448406 0)
(-0.52841 -0.577817 0)
(-0.448008 -0.69937 0)
(-0.0271475 0.803828 0)
(-0.0799908 0.800585 0)
(-0.134231 0.792824 0)
(-0.187301 0.781523 0)
(-0.241384 0.764802 0)
(-0.294189 0.743985 0)
(-0.34766 0.716735 0)
(-0.399296 0.684687 0)
(-0.451175 0.645028 0)
(-0.500649 0.600189 0)
(-0.550273 0.54636 0)
(-0.598134 0.486745 0)
(-0.648358 0.415794 0)
(-0.702575 0.342239 0)
(-0.76062 0.269662 0)
(-0.819853 0.199623 0)
(-0.849746 0.101317 0)
(-0.818406 -0.0595532 0)
(-0.784625 -0.216502 0)
(-0.741731 -0.360181 0)
(-0.690586 -0.50528 0)
(-0.62169 -0.647115 0)
(-0.538044 -0.786442 0)
(-0.0287353 0.859606 0)
(-0.0848472 0.856653 0)
(-0.142743 0.849505 0)
(-0.199843 0.8389 0)
(-0.258509 0.82291 0)
(-0.316267 0.802788 0)
(-0.375339 0.775999 0)
(-0.433122 0.744317 0)
(-0.492008 0.704724 0)
(-0.549387 0.660179 0)
(-0.607986 0.60771 0)
(-0.666252 0.553357 0)
(-0.728964 0.496457 0)
(-0.800318 0.436135 0)
(-0.88215 0.359702 0)
(-0.937646 0.247123 0)
(-0.91659 0.0692418 0)
(-0.882324 -0.0974004 0)
(-0.857254 -0.251606 0)
(-0.810291 -0.410691 0)
(-0.753653 -0.568856 0)
(-0.67638 -0.730991 0)
(-0.586016 -0.88923 0)
(-0.0323466 0.918518 0)
(-0.0958112 0.915702 0)
(-0.160354 0.908838 0)
(-0.22371 0.898214 0)
(-0.288629 0.882039 0)
(-0.352898 0.861553 0)
(-0.41868 0.834209 0)
(-0.483803 0.801967 0)
(-0.551245 0.761816 0)
(-0.619279 0.716768 0)
(-0.692508 0.663799 0)
(-0.770496 0.6084 0)
(-0.858306 0.550445 0)
(-0.941319 0.496128 0)
(-1.00092 0.407812 0)
(-0.988219 0.234047 0)
(-0.956707 0.0461025 0)
(-0.941582 -0.11904 0)
(-0.898307 -0.288873 0)
(-0.848367 -0.464192 0)
(-0.780718 -0.639995 0)
(-0.702273 -0.815716 0)
(-0.614654 -0.985327 0)
(-0.0325452 0.987975 0)
(-0.0965114 0.984956 0)
(-0.162504 0.977714 0)
(-0.228219 0.967607 0)
(-0.296404 0.952607 0)
(-0.364874 0.933465 0)
(-0.436075 0.907564 0)
(-0.507316 0.877647 0)
(-0.581451 0.840892 0)
(-0.657051 0.802263 0)
(-0.739013 0.759602 0)
(-0.828869 0.719981 0)
(-0.927819 0.668456 0)
(-1.02263 0.579387 0)
(-1.04359 0.406858 0)
(-1.00723 0.202669 0)
(-0.994375 0.0223711 0)
(-0.959839 -0.156529 0)
(-0.910831 -0.345296 0)
(-0.85307 -0.529084 0)
(-0.784585 -0.715733 0)
(-0.710234 -0.897906 0)
(-0.629321 -1.07583 0)
(-0.0359433 1.04843 0)
(-0.106897 1.04657 0)
(-0.180221 1.04143 0)
(-0.25389 1.03298 0)
(-0.329849 1.01953 0)
(-0.405941 1.00209 0)
(-0.484782 0.977452 0)
(-0.565303 0.948223 0)
(-0.649579 0.912393 0)
(-0.737152 0.875328 0)
(-0.83094 0.836587 0)
(-0.93059 0.798384 0)
(-1.02635 0.744594 0)
(-1.07414 0.612976 0)
(-1.05142 0.391547 0)
(-1.03112 0.185824 0)
(-1.00571 -0.00220153 0)
(-0.954958 -0.20206 0)
(-0.907015 -0.396174 0)
(-0.844376 -0.590622 0)
(-0.782584 -0.783281 0)
(-0.711213 -0.971516 0)
(-0.638333 -1.1553 0)
(-0.0360633 1.13195 0)
(-0.107249 1.13038 0)
(-0.180486 1.1258 0)
(-0.254076 1.11825 0)
(-0.330852 1.10558 0)
(-0.40883 1.08926 0)
(-0.491063 1.06775 0)
(-0.576481 1.04333 0)
(-0.668409 1.0135 0)
(-0.766129 0.984656 0)
(-0.872691 0.953895 0)
(-0.979162 0.916593 0)
(-1.06772 0.813636 0)
(-1.07449 0.603761 0)
(-1.04185 0.364882 0)
(-1.02582 0.155197 0)
(-0.983075 -0.0538536 0)
(-0.934902 -0.256584 0)
(-0.882004 -0.456841 0)
(-0.823231 -0.654714 0)
(-0.763412 -0.850269 0)
(-0.698718 -1.04337 0)
(-0.630242 -1.23079 0)
(-0.0379173 1.19113 0)
(-0.113187 1.19053 0)
(-0.190903 1.18789 0)
(-0.270057 1.18325 0)
(-0.353564 1.1744 0)
(-0.440336 1.16273 0)
(-0.531997 1.14561 0)
(-0.626784 1.12633 0)
(-0.726022 1.10283 0)
(-0.833151 1.08045 0)
(-0.944525 1.05041 0)
(-1.04712 0.993593 0)
(-1.09506 0.839853 0)
(-1.07019 0.586973 0)
(-1.0446 0.34302 0)
(-1.00815 0.127441 0)
(-0.957209 -0.0928899 0)
(-0.908346 -0.302744 0)
(-0.850332 -0.507592 0)
(-0.796969 -0.708752 0)
(-0.737345 -0.907382 0)
(-0.681029 -1.10423 0)
(-0.617886 -1.29511 0)
(-0.0389448 1.28659 0)
(-0.115999 1.2868 0)
(-0.195097 1.28589 0)
(-0.274749 1.28386 0)
(-0.357885 1.27848 0)
(-0.443269 1.27002 0)
(-0.533209 1.25627 0)
(-0.627158 1.23921 0)
(-0.726626 1.22171 0)
(-0.835408 1.20528 0)
(-0.944868 1.16973 0)
(-1.04128 1.06978 0)
(-1.06903 0.836882 0)
(-1.02943 0.553662 0)
(-1.00977 0.301142 0)
(-0.965886 0.0665483 0)
(-0.916181 -0.155361 0)
(-0.865864 -0.365292 0)
(-0.812145 -0.570112 0)
(-0.76155 -0.769944 0)
(-0.707641 -0.968414 0)
(-0.656218 -1.16544 0)
(-0.600547 -1.35832 0)
(-0.038486 1.34227 0)
(-0.115416 1.34304 0)
(-0.195529 1.34327 0)
(-0.278484 1.34312 0)
(-0.367062 1.34042 0)
(-0.460164 1.33616 0)
(-0.560901 1.32801 0)
(-0.667775 1.31891 0)
(-0.78283 1.31019 0)
(-0.898624 1.29814 0)
(-1.00713 1.25493 0)
(-1.07845 1.11728 0)
(-1.06647 0.826318 0)
(-1.0283 0.529569 0)
(-0.988594 0.279369 0)
(-0.932513 0.0359601 0)
(-0.881383 -0.192277 0)
(-0.826219 -0.404977 0)
(-0.77644 -0.610522 0)
(-0.725453 -0.811188 0)
(-0.676635 -1.01059 0)
(-0.627148 -1.20899 0)
(-0.577978 -1.40441 0)
(-0.0404288 1.4484 0)
(-0.121161 1.45162 0)
(-0.204221 1.45651 0)
(-0.289243 1.46255 0)
(-0.377663 1.46694 0)
(-0.468597 1.47001 0)
(-0.563362 1.4697 0)
(-0.663497 1.46612 0)
(-0.770341 1.45773 0)
(-0.880453 1.43387 0)
(-0.981603 1.35417 0)
(-1.03662 1.13149 0)
(-1.00579 0.786459 0)
(-0.976189 0.473959 0)
(-0.936674 0.202513 0)