/*--------------------------------*- C++ -*----------------------------------*\
| =========                 |                                                 |
| \\      /  F ield         | OpenFOAM: The Open Source CFD Toolbox           |
|  \\    /   O peration     | Version:  2012                                  |
|   \\  /    A nd           | Website:  www.openfoam.com                      |
|    \\/     M anipulation  |                                                 |
\*---------------------------------------------------------------------------*/
FoamFile
{
    version     2.0;
    format      ascii;
    class       volVectorField;
    location    "0.72";
    object      Uc;
}
// * * * * * * * * * * * * * * * * * * * * * * * * * * * * * * * * * * * * * //

dimensions      [0 1 -1 0 0 0 0];


internalField   nonuniform List<vector> 
2268
(
(-0.00623253 0.00294545 0)
(-0.0179584 0.0025961 0)
(-0.0297418 0.00297267 0)
(-0.0435702 0.00356254 0)
(-0.0589852 0.00372248 0)
(-0.0736936 0.00322857 0)
(-0.0873571 0.00322873 0)
(-0.101901 0.00364456 0)
(-0.11628 0.00315084 0)
(-0.129001 0.00286092 0)
(-0.140375 0.00251437 0)
(-0.149733 0.00190834 0)
(-0.155865 0.000989493 0)
(-0.158365 0.000191984 0)
(-0.158049 -0.000341115 0)
(-0.155659 -0.000788466 0)
(-0.150567 -0.00161804 0)
(-0.14104 -0.00288427 0)
(-0.126326 -0.00406941 0)
(-0.103709 -0.00661922 0)
(-0.0760506 -0.00645203 0)
(-0.0390022 -0.0110568 0)
(-0.00780308 -0.00368761 0)
(-0.00635598 0.00889468 0)
(-0.018242 0.00780564 0)
(-0.0299856 0.00888184 0)
(-0.0435589 0.0106032 0)
(-0.0586885 0.011117 0)
(-0.0733514 0.00971471 0)
(-0.0872074 0.00974815 0)
(-0.101913 0.0109484 0)
(-0.116234 0.00941011 0)
(-0.128964 0.00862965 0)
(-0.140568 0.00760468 0)
(-0.150033 0.00571392 0)
(-0.156278 0.00303334 0)
(-0.159079 0.000653215 0)
(-0.158994 -0.000991734 0)
(-0.156635 -0.00238228 0)
(-0.15153 -0.00484316 0)
(-0.142308 -0.00851996 0)
(-0.12837 -0.0119743 0)
(-0.107393 -0.0193161 0)
(-0.0821684 -0.0187475 0)
(-0.0483325 -0.0322607 0)
(-0.0134306 -0.0137223 0)
(-0.00633807 0.0148938 0)
(-0.0180491 0.0129583 0)
(-0.029498 0.0146898 0)
(-0.0427394 0.0174676 0)
(-0.0577252 0.0184849 0)
(-0.0729094 0.0164523 0)
(-0.0878106 0.016601 0)
(-0.103317 0.0183736 0)
(-0.117982 0.0156834 0)
(-0.130837 0.0144475 0)
(-0.142196 0.0126388 0)
(-0.151189 0.00940313 0)
(-0.15708 0.00507954 0)
(-0.159828 0.00122923 0)
(-0.159858 -0.00159358 0)
(-0.157548 -0.00398705 0)
(-0.152305 -0.00812852 0)
(-0.142729 -0.0141189 0)
(-0.128364 -0.0197508 0)
(-0.106776 -0.0316551 0)
(-0.0796241 -0.0311614 0)
(-0.0421459 -0.0535492 0)
(-0.00928547 -0.0244576 0)
(-0.0063937 0.0209107 0)
(-0.0182371 0.018073 0)
(-0.0298562 0.0204769 0)
(-0.0429123 0.0241085 0)
(-0.0572732 0.025713 0)
(-0.0721623 0.0234365 0)
(-0.0872565 0.0237923 0)
(-0.102838 0.0258739 0)
(-0.117604 0.0220923 0)
(-0.130873 0.0203841 0)
(-0.142777 0.0176966 0)
(-0.152587 0.0132316 0)
(-0.159484 0.00729399 0)
(-0.162907 0.00193143 0)
(-0.163012 -0.00223209 0)
(-0.160615 -0.00557283 0)
(-0.155819 -0.011287 0)
(-0.147344 -0.0194913 0)
(-0.134187 -0.027385 0)
(-0.113508 -0.0439961 0)
(-0.0855741 -0.0448534 0)
(-0.044148 -0.0771467 0)
(-0.00889545 -0.0330496 0)
(-0.00589569 0.0267186 0)
(-0.0172669 0.0232362 0)
(-0.0288439 0.0262761 0)
(-0.041657 0.0305349 0)
(-0.0558043 0.0327594 0)
(-0.0714352 0.0308137 0)
(-0.0883298 0.0315329 0)
(-0.105357 0.0335436 0)
(-0.120851 0.0287236 0)
(-0.134401 0.0264269 0)
(-0.145899 0.022714 0)
(-0.155025 0.017163 0)
(-0.161275 0.00957584 0)
(-0.164256 0.00267631 0)
(-0.164284 -0.00291465 0)
(-0.162213 -0.0070013 0)
(-0.157921 -0.0141535 0)
(-0.149969 -0.0243881 0)
(-0.137316 -0.034686 0)
(-0.117045 -0.0560475 0)
(-0.0869452 -0.0602283 0)
(-0.0366631 -0.105112 0)
(-0.00192264 -0.0381621 0)
(-0.00550559 0.0321068 0)
(-0.0172149 0.0287557 0)
(-0.0297718 0.0321621 0)
(-0.04253 0.0367336 0)
(-0.055712 0.0394763 0)
(-0.0705146 0.0384794 0)
(-0.087193 0.0397336 0)
(-0.103966 0.0413165 0)
(-0.119622 0.0356724 0)
(-0.134273 0.0328054 0)
(-0.147339 0.0279448 0)
(-0.15819 0.0213729 0)
(-0.165881 0.0119544 0)
(-0.169357 0.00334918 0)
(-0.169086 -0.00370226 0)
(-0.167072 -0.0081443 0)
(-0.163809 -0.0165808 0)
(-0.157746 -0.0285843 0)
(-0.14697 -0.0415625 0)
(-0.128186 -0.0676275 0)
(-0.0971855 -0.077524 0)
(-0.0397561 -0.13872 0)
(-0.000729983 -0.0394157 0)
(-0.00445527 0.0368142 0)
(-0.0151521 0.0346372 0)
(-0.0277765 0.0381811 0)
(-0.0403745 0.0426977 0)
(-0.053298 0.0458495 0)
(-0.0690927 0.0465662 0)
(-0.0883363 0.0486232 0)
(-0.107587 0.0494511 0)
(-0.124661 0.0430057 0)
(-0.139483 0.0394006 0)
(-0.151622 0.0332617 0)
(-0.161387 0.0257989 0)
(-0.168225 0.0143943 0)
(-0.171059 0.00389151 0)
(-0.170657 -0.00456206 0)
(-0.169398 -0.00883155 0)
(-0.167299 -0.0184275 0)
(-0.162561 -0.0318425 0)
(-0.15295 -0.0479391 0)
(-0.135444 -0.0784011 0)
(-0.102235 -0.0970953 0)
(-0.0350878 -0.178023 0)
(0.00488993 -0.0374497 0)
(-0.00391776 0.0407712 0)
(-0.0140906 0.0405429 0)
(-0.0269568 0.044322 0)
(-0.0396393 0.0485042 0)
(-0.0519303 0.0519593 0)
(-0.067192 0.0551335 0)
(-0.0863833 0.05822 0)
(-0.105931 0.0581903 0)
(-0.124081 0.050913 0)
(-0.140351 0.0461868 0)
(-0.154412 0.0388575 0)
(-0.166779 0.0306625 0)
(-0.175236 0.0167592 0)
(-0.177605 0.00398573 0)
(-0.176027 -0.00559179 0)
(-0.174982 -0.00889057 0)
(-0.174533 -0.0195725 0)
(-0.1724 -0.0339453 0)
(-0.165464 -0.0536558 0)
(-0.152707 -0.0869867 0)
(-0.125898 -0.116874 0)
(-0.0877651 -0.207999 0)
(-0.0346021 -0.0514914 0)
(-0.439433 0.18688 0)
(-1.11984 0.102351 0)
(-1.46317 0.0435912 0)
(-1.58018 0.00631853 0)
(-1.5364 -0.0247422 0)
(-1.37486 -0.0436987 0)
(-1.215 -0.0240894 0)
(-1.20353 0.0193144 0)
(-1.3431 0.0401247 0)
(-1.5007 0.0270683 0)
(-1.59544 0.0134653 0)
(-1.63796 0.0048378 0)
(-1.65139 0.00111816 0)
(-1.64847 -0.00210148 0)
(-1.636 -0.00293028 0)
(-1.63034 0.000832332 0)
(-1.61166 -0.00834843 0)
(-1.40477 -0.0787372 0)
(-0.609063 -0.25897 0)
(-0.34935 0.522421 0)
(-0.895782 0.288563 0)
(-1.17181 0.120829 0)
(-1.26511 0.0188215 0)
(-1.22404 -0.0729361 0)
(-1.05585 -0.135239 0)
(-0.901817 -0.0656524 0)
(-0.935233 0.0704383 0)
(-1.10905 0.122484 0)
(-1.26504 0.078483 0)
(-1.34765 0.0380842 0)
(-1.38101 0.0131112 0)
(-1.39202 0.00385863 0)
(-1.40087 -0.00172268 0)
(-1.42153 0.000797708 0)
(-1.46249 0.0129192 0)
(-1.4276 -0.0419444 0)
(-1.12388 -0.259888 0)
(-0.440407 -0.705175 0)
(-0.279836 0.790416 0)
(-0.683769 0.425338 0)
(-0.891355 0.190164 0)
(-1.00424 0.037777 0)
(-0.928382 -0.140837 0)
(-0.633963 -0.263374 0)
(-0.33185 -0.131064 0)
(-0.268337 0.123741 0)
(-0.448869 0.220991 0)
(-0.717882 0.162018 0)
(-1.00661 0.113975 0)
(-1.25254 0.0576911 0)
(-1.39115 0.0246269 0)
(-1.46432 0.0139937 0)
(-1.52436 0.0210315 0)
(-1.5501 0.0229312 0)
(-1.35299 -0.148205 0)
(-0.857709 -0.49025 0)
(-0.277464 -1.01058 0)
(-0.211169 0.999711 0)
(-0.551085 0.53312 0)
(-0.824631 0.288032 0)
(-0.973144 0.0528933 0)
(-0.771821 -0.271578 0)
(-0.356636 -0.432886 0)
(-0.00383435 -0.239668 0)
(0.310682 0.0722459 0)
(0.543957 0.251644 0)
(0.562541 0.240131 0)
(0.452581 0.208092 0)
(0.237878 0.162272 0)
(-0.111557 0.130293 0)
(-0.498821 0.106796 0)
(-0.874705 0.116367 0)
(-1.00391 -0.00370434 0)
(-0.799314 -0.28948 0)
(-0.45583 -0.70239 0)
(-0.12783 -1.18291 0)
(-0.157733 1.15709 0)
(-0.418084 0.632265 0)
(-0.664727 0.437214 0)
(-0.757717 0.0342769 0)
(-0.445458 -0.468109 0)
(-0.0363304 -0.58475 0)
(0.188234 -0.332931 0)
(0.389243 -0.0536335 0)
(0.62404 0.179067 0)
(0.807613 0.228101 0)
(0.93518 0.21465 0)
(1.03303 0.207856 0)
(1.10846 0.204066 0)
(1.10821 0.200798 0)
(1.02038 0.222422 0)
(0.744548 0.0652465 0)
(0.328564 -0.265832 0)
(0.146291 -0.791389 0)
(0.0798647 -1.20302 0)
(-0.0755817 1.25682 0)
(-0.239421 0.715071 0)
(-0.256521 0.494532 0)
(-0.0733311 -0.0337693 0)
(0.143294 -0.621797 0)
(0.26687 -0.655421 0)
(0.353659 -0.394368 0)
(0.511449 -0.144797 0)
(0.683864 0.0970474 0)
(0.832199 0.169117 0)
(0.93655 0.175481 0)
(1.00622 0.176765 0)
(1.06317 0.180501 0)
(1.10754 0.207667 0)
(1.12364 0.248605 0)
(1.04343 0.193379 0)
(0.822745 -0.120412 0)
(0.51126 -0.724155 0)
(0.171394 -1.09583 0)
(0.00916138 1.28549 0)
(-0.206482 0.850085 0)
(-0.289563 0.405158 0)
(0.156505 -0.209744 0)
(0.435144 -0.653747 0)
(0.402015 -0.660255 0)
(0.443203 -0.443886 0)
(0.556075 -0.210393 0)
(0.687597 0.0333809 0)
(0.81989 0.113429 0)
(0.925624 0.141821 0)
(0.996467 0.150708 0)
(1.0525 0.15867 0)
(1.09915 0.191279 0)
(1.1376 0.243036 0)
(1.15388 0.228088 0)
(1.07241 -0.0243999 0)
(0.675845 -0.517388 0)
(0.179671 -0.945756 0)
(0.0223941 1.27242 0)
(-0.128829 1.02127 0)
(-0.201282 0.303029 0)
(0.201166 -0.436322 0)
(0.47185 -0.629044 0)
(0.444519 -0.658422 0)
(0.495993 -0.485047 0)
(0.598426 -0.260558 0)
(0.704495 -0.0170483 0)
(0.808307 0.0638385 0)
(0.895941 0.109445 0)
(0.961408 0.12529 0)
(1.01646 0.136957 0)
(1.06359 0.173149 0)
(1.09765 0.23041 0)
(1.09712 0.234414 0)
(0.992159 0.0493539 0)
(0.588998 -0.250399 0)
(0.139046 -0.809356 0)
(-0.00249649 0.0451805 0)
(-0.00999743 0.0485773 0)
(-0.020944 0.0534651 0)
(-0.0331937 0.0577454 0)
(-0.0458366 0.0612834 0)
(-0.0603377 0.0676227 0)
(-0.0773937 0.0719556 0)
(-0.096025 0.0724238 0)
(-0.116464 0.0658022 0)
(-0.13709 0.0597206 0)
(-0.155805 0.0507809 0)
(-0.171141 0.0400003 0)
(-0.179191 0.01951 0)
(-0.179395 0.00255933 0)
(-0.176669 -0.00765174 0)
(-0.176926 -0.00706525 0)
(-0.179182 -0.019342 0)
(-0.179941 -0.0344216 0)
(-0.1782 -0.0582071 0)
(-0.182163 -0.0844802 0)
(-0.184068 -0.130136 0)
(-0.192704 -0.204076 0)
(-0.113855 -0.15978 0)
(-0.00704696 0.054875 0)
(-0.0249255 0.0646041 0)
(-0.0562532 0.0801585 0)
(-0.0987591 0.0863489 0)
(-0.129795 0.0768857 0)
(-0.1404 0.0775986 0)
(-0.143996 0.0831142 0)
(-0.150405 0.0868099 0)
(-0.159329 0.0812456 0)
(-0.166748 0.0726424 0)
(-0.170723 0.0607221 0)
(-0.17118 0.0459529 0)
(-0.169764 0.0202319 0)
(-0.170138 0.00241933 0)
(-0.174445 -0.00592271 0)
(-0.184085 0.00115502 0)
(-0.196721 -0.0125921 0)
(-0.209744 -0.0273187 0)
(-0.224928 -0.0517962 0)
(-0.249521 -0.0621853 0)
(-0.291222 -0.108598 0)
(-0.356302 -0.151511 0)
(-0.418686 -0.228637 0)
(-0.0225951 0.0847389 0)
(-0.0663272 0.0968144 0)
(-0.108194 0.121687 0)
(-0.143923 0.123676 0)
(-0.168917 0.096174 0)
(-0.188053 0.0885844 0)
(-0.206507 0.0947551 0)
(-0.229372 0.105127 0)
(-0.253975 0.0972016 0)
(-0.267823 0.0786422 0)
(-0.269758 0.0611954 0)
(-0.26648 0.0430549 0)
(-0.254333 0.0097613 0)
(-0.224541 -0.0165502 0)
(-0.184551 -0.022785 0)
(-0.154736 -0.00225138 0)
(-0.146667 -0.00458247 0)
(-0.161552 -0.00727165 0)
(-0.18761 -0.0303855 0)
(-0.221868 -0.0244366 0)
(-0.276695 -0.0493143 0)
(-0.362768 -0.0588514 0)
(-0.504333 -0.11606 0)
(-0.025438 0.133051 0)
(-0.0727924 0.140121 0)
(-0.107027 0.154938 0)
(-0.127399 0.14688 0)
(-0.157447 0.128369 0)
(-0.211378 0.129926 0)
(-0.271168 0.132192 0)
(-0.321975 0.141941 0)
(-0.364772 0.128444 0)
(-0.398566 0.0957743 0)
(-0.421916 0.0700919 0)
(-0.439976 0.0495974 0)
(-0.444366 -0.00414949 0)
(-0.419496 -0.0573482 0)
(-0.380835 -0.0609177 0)
(-0.366036 -0.00884052 0)
(-0.387086 0.0152081 0)
(-0.402136 0.00313409 0)
(-0.36028 -0.056477 0)
(-0.290636 -0.0336315 0)
(-0.262903 -0.0126471 0)
(-0.303961 0.0324016 0)
(-0.392351 0.0238286 0)
(-0.0217004 0.180463 0)
(-0.0647704 0.183661 0)
(-0.106406 0.18772 0)
(-0.14963 0.178081 0)
(-0.201363 0.179432 0)
(-0.262726 0.194816 0)
(-0.328957 0.194039 0)
(-0.393946 0.196557 0)
(-0.460929 0.184257 0)
(-0.544534 0.158083 0)
(-0.646417 0.133839 0)
(-0.77734 0.13584 0)
(-0.991602 0.129612 0)
(-1.33119 0.125407 0)
(-1.70589 0.0942652 0)
(-1.90064 0.0171157 0)
(-1.81731 -0.0728691 0)
(-1.56719 -0.144373 0)
(-1.27404 -0.244466 0)
(-0.982086 -0.207646 0)
(-0.736559 -0.112169 0)
(-0.58871 0.0255834 0)
(-0.524541 0.0555656 0)
(-0.0219407 0.22436 0)
(-0.0654364 0.226837 0)
(-0.109284 0.230529 0)
(-0.157804 0.227551 0)
(-0.213222 0.237729 0)
(-0.273926 0.25928 0)
(-0.344702 0.267355 0)
(-0.433053 0.277441 0)
(-0.545874 0.284175 0)
(-0.698642 0.295835 0)
(-0.901966 0.302955 0)
(-1.16291 0.360713 0)
(-1.51491 0.474048 0)
(-1.95083 0.560611 0)
(-2.3349 0.421862 0)
(-2.45686 0.00805048 0)
(-2.28516 -0.319641 0)
(-2.01496 -0.418827 0)
(-1.8014 -0.476353 0)
(-1.63299 -0.436168 0)
(-1.43891 -0.323594 0)
(-1.20578 -0.142682 0)
(-0.969657 -0.0746213 0)
(-0.0201045 0.266652 0)
(-0.0607355 0.269167 0)
(-0.102804 0.274621 0)
(-0.149092 0.278817 0)
(-0.200848 0.294253 0)
(-0.256433 0.319709 0)
(-0.318787 0.340809 0)
(-0.395914 0.370388 0)
(-0.497412 0.406724 0)
(-0.637259 0.46749 0)
(-0.83029 0.529787 0)
(-1.07729 0.644546 0)
(-1.34753 0.815799 0)
(-1.59664 0.907522 0)
(-1.78242 0.647813 0)
(-1.88215 0.00500513 0)
(-1.91973 -0.451042 0)
(-1.91205 -0.565082 0)
(-1.88583 -0.568443 0)
(-1.8573 -0.537783 0)
(-1.79146 -0.477098 0)
(-1.66374 -0.346685 0)
(-1.49128 -0.279103 0)
(-0.0190887 0.306078 0)
(-0.0575925 0.309345 0)
(-0.0971093 0.316511 0)
(-0.138877 0.325499 0)
(-0.18292 0.343927 0)
(-0.228469 0.371755 0)
(-0.27762 0.40091 0)
(-0.333688 0.444236 0)
(-0.3987 0.500314 0)
(-0.475491 0.591731 0)
(-0.572279 0.696942 0)
(-0.696836 0.850959 0)
(-0.835078 1.02009 0)
(-0.979813 1.09919 0)
(-1.17454 0.838687 0)
(-1.44102 0.182298 0)
(-1.66084 -0.36936 0)
(-1.74193 -0.572448 0)
(-1.75677 -0.57014 0)
(-1.75387 -0.559042 0)
(-1.74936 -0.517364 0)
(-1.76452 -0.418397 0)
(-1.8023 -0.345309 0)
(-0.0169557 0.342339 0)
(-0.0509975 0.346065 0)
(-0.0854322 0.354186 0)
(-0.121236 0.365858 0)
(-0.158603 0.385461 0)
(-0.196496 0.414156 0)
(-0.235177 0.446858 0)
(-0.275058 0.494796 0)
(-0.314478 0.554793 0)
(-0.348052 0.648256 0)
(-0.37056 0.760401 0)
(-0.376807 0.919056 0)
(-0.364704 1.07887 0)
(-0.346428 1.16762 0)
(-0.390537 1.01042 0)
(-0.60223 0.491285 0)
(-0.968273 -0.0893571 0)
(-1.33088 -0.406351 0)
(-1.52429 -0.524864 0)
(-1.54469 -0.577816 0)
(-1.53391 -0.506098 0)
(-1.55921 -0.39036 0)
(-1.61713 -0.281606 0)
(-0.0148824 0.374371 0)
(-0.0446227 0.378204 0)
(-0.0742539 0.386504 0)
(-0.103918 0.399406 0)
(-0.133263 0.419032 0)
(-0.161267 0.446883 0)
(-0.187479 0.479421 0)
(-0.211042 0.526068 0)
(-0.229533 0.581795 0)
(-0.236887 0.662458 0)
(-0.223369 0.755301 0)
(-0.174098 0.880976 0)
(-0.0777709 1.00803 0)
(0.0491947 1.09254 0)
(0.152295 1.02628 0)
(0.126477 0.714249 0)
(-0.120855 0.304319 0)
(-0.535198 -0.0189472 0)
(-0.960703 -0.289682 0)
(-1.28138 -0.466729 0)
(-1.44106 -0.46273 0)
(-1.44021 -0.404467 0)
(-1.40118 -0.246995 0)
(-0.0124699 0.401895 0)
(-0.037376 0.405668 0)
(-0.0622924 0.413928 0)
(-0.0869474 0.426641 0)
(-0.110389 0.444917 0)
(-0.131604 0.470532 0)
(-0.149723 0.500392 0)
(-0.163208 0.542399 0)
(-0.169265 0.590202 0)
(-0.163654 0.655865 0)
(-0.140409 0.725002 0)
(-0.0902497 0.811392 0)
(-0.00285025 0.892994 0)
(0.122263 0.954254 0)
(0.256338 0.926231 0)
(0.335838 0.76041 0)
(0.312545 0.530264 0)
(0.162317 0.322697 0)
(-0.16537 0.12588 0)
(-0.658742 -0.0639165 0)
(-1.10549 -0.254914 0)
(-1.32139 -0.391693 0)
(-1.34708 -0.268231 0)
(-0.0106576 0.425171 0)
(-0.0317951 0.428732 0)
(-0.0522265 0.436505 0)
(-0.0713397 0.448117 0)
(-0.0883732 0.464184 0)
(-0.102339 0.486687 0)
(-0.112104 0.512325 0)
(-0.116171 0.54817 0)
(-0.112159 0.586548 0)
(-0.0965332 0.638233 0)
(-0.0654051 0.688041 0)
(-0.0135968 0.74592 0)
(0.0639226 0.792754 0)
(0.165823 0.826364 0)
(0.276148 0.808519 0)
(0.354278 0.719744 0)
(0.362969 0.58568 0)
(0.307861 0.473762 0)
(0.206604 0.406076 0)
(0.00632558 0.353239 0)
(-0.378349 0.163776 0)
(-0.873055 -0.0959958 0)
(-1.21289 -0.195535 0)
(-0.00868812 0.444645 0)
(-0.0258514 0.447814 0)
(-0.0423572 0.454609 0)
(-0.0576086 0.464613 0)
(-0.0707351 0.478062 0)
(-0.0808445 0.497067 0)
(-0.0866908 0.517696 0)
(-0.0866823 0.546937 0)
(-0.0788627 0.575947 0)
(-0.0606379 0.614868 0)
(-0.0296764 0.649056 0)
(0.0160672 0.686909 0)
(0.0782894 0.71136 0)
(0.156646 0.726628 0)
(0.244287 0.709326 0)
(0.320659 0.6637 0)
(0.365136 0.588351 0)
(0.369229 0.522444 0)
(0.342719 0.485902 0)
(0.309902 0.507803 0)
(0.222727 0.483605 0)
(-0.0224202 0.327972 0)
(-0.381836 0.0834955 0)
(-0.00721143 0.460655 0)
(-0.0212491 0.463223 0)
(-0.0341716 0.468837 0)
(-0.0454082 0.477066 0)
(-0.0541838 0.487681 0)
(-0.0596598 0.503171 0)
(-0.060781 0.518653 0)
(-0.0562084 0.541434 0)
(-0.0445278 0.561908 0)
(-0.0238003 0.589812 0)
(0.00745011 0.611637 0)
(0.0498658 0.635772 0)
(0.103061 0.646543 0)
(0.164257 0.651231 0)
(0.228636 0.631977 0)
(0.28966 0.603004 0)
(0.338873 0.554937 0)
(0.371441 0.519077 0)
(0.396107 0.491197 0)
(0.430129 0.501373 0)
(0.485537 0.522048 0)
(0.54419 0.47708 0)
(0.532815 0.307198 0)
(-0.0058424 0.473804 0)
(-0.0172384 0.475694 0)
(-0.0277745 0.480001 0)
(-0.0368987 0.486424 0)
(-0.0438421 0.494179 0)
(-0.0477552 0.506167 0)
(-0.0476292 0.516714 0)
(-0.0423656 0.533543 0)
(-0.0308182 0.546508 0)
(-0.0115912 0.565108 0)
(0.0162582 0.576993 0)
(0.0530272 0.59088 0)
(0.098225 0.592592 0)
(0.149847 0.59184 0)
(0.204214 0.572067 0)
(0.256382 0.549196 0)
(0.303333 0.512147 0)
(0.344452 0.487864 0)
(0.380667 0.461283 0)
(0.422053 0.455559 0)
(0.478936 0.45506 0)
(0.537969 0.425847 0)
(0.57726 0.330452 0)
(-0.00488573 0.484615 0)
(-0.0143411 0.485897 0)
(-0.0228521 0.488998 0)
(-0.0298107 0.493648 0)
(-0.0344454 0.498649 0)
(-0.035991 0.50724 0)
(-0.0335962 0.513163 0)
(-0.0264215 0.524647 0)
(-0.01375 0.531116 0)
(0.0050752 0.542308 0)
(0.0305167 0.546284 0)
(0.062648 0.55239 0)
(0.100955 0.547203 0)
(0.144308 0.541822 0)
(0.190287 0.521279 0)
(0.2362 0.501457 0)
(0.280033 0.468696 0)
(0.322835 0.447024 0)
(0.366982 0.421412 0)
(0.415134 0.405496 0)
(0.473233 0.389614 0)
(0.538084 0.36684 0)
(0.581751 0.306147 0)
(-0.00424244 0.493817 0)
(-0.0124378 0.49449 0)
(-0.0198053 0.496419 0)
(-0.0258363 0.499338 0)
(-0.0299033 0.501759 0)
(-0.0313448 0.507185 0)
(-0.0293176 0.508827 0)
(-0.0231959 0.515673 0)
(-0.0122634 0.516419 0)
(0.00410043 0.521689 0)
(0.0261956 0.519176 0)
(0.0542689 0.519038 0)
(0.0876971 0.508506 0)
(0.125755 0.498746 0)
(0.166688 0.477052 0)
(0.208933 0.457129 0)
(0.250908 0.426833 0)
(0.292806 0.403812 0)
(0.336241 0.376653 0)
(0.381909 0.356014 0)
(0.431542 0.330873 0)
(0.486069 0.305653 0)
(0.53664 0.272679 0)
(-0.00385739 0.501985 0)
(-0.0112956 0.502089 0)
(-0.0179831 0.503 0)
(-0.0234411 0.504358 0)
(-0.0271002 0.504558 0)
(-0.0282637 0.507058 0)
(-0.0262939 0.50499 0)
(-0.0207438 0.507831 0)
(-0.0108424 0.503373 0)
(0.00378428 0.503638 0)
(0.0234197 0.495334 0)
(0.0482962 0.48971 0)
(0.0777117 0.47472 0)
(0.111231 0.460641 0)
(0.147773 0.437338 0)
(0.186622 0.415388 0)
(0.227126 0.385727 0)
(0.268993 0.360778 0)
(0.313329 0.331524 0)
(0.360112 0.308275 0)
(0.40789 0.280761 0)
(0.456762 0.251896 0)
(0.503131 0.229061 0)
(-0.00387917 0.509787 0)
(-0.0113699 0.509345 0)
(-0.0181605 0.509344 0)
(-0.0237545 0.509174 0)
(-0.0275564 0.507293 0)
(-0.0290282 0.507024 0)
(-0.0277889 0.50185 0)
(-0.0233512 0.500983 0)
(-0.0150979 0.492024 0)
(-0.00297566 0.488152 0)
(0.0133222 0.474754 0)
(0.0342435 0.464309 0)
(0.0595197 0.4452 0)
(0.0890787 0.426811 0)
(0.122203 0.401196 0)
(0.158464 0.376087 0)
(0.197432 0.345202 0)
(0.238777 0.317719 0)
(0.282903 0.285724 0)
(0.330117 0.259651 0)
(0.379173 0.232112 0)
(0.429606 0.20079 0)
(0.481441 0.181519 0)
(-0.00423144 0.517965 0)
(-0.012449 0.517007 0)
(-0.0200143 0.516163 0)
(-0.0264631 0.514511 0)
(-0.0313254 0.510716 0)
(-0.0341906 0.508011 0)
(-0.0347542 0.500234 0)
(-0.0324455 0.495869 0)
(-0.0265437 0.482961 0)
(-0.0165094 0.474995 0)
(-0.00199987 0.456996 0)
(0.0168668 0.442126 0)
(0.0398979 0.418879 0)
(0.066887 0.396345 0)
(0.0974941 0.367655 0)
(0.131659 0.338891 0)
(0.169236 0.305512 0)
(0.210122 0.274809 0)
(0.254346 0.239883 0)
(0.30225 0.209939 0)
(0.352834 0.181728 0)
(0.404842 0.148263 0)
(0.458567 0.128 0)
(-0.00485787 0.527126 0)
(-0.0143835 0.52573 0)
(-0.0232624 0.524017 0)
(-0.0310375 0.521002 0)
(-0.0373305 0.515486 0)
(-0.0415725 0.510434 0)
(-0.0433994 0.500264 0)
(-0.042364 0.492527 0)
(-0.038119 0.476153 0)
(-0.0302699 0.463877 0)
(-0.0185966 0.441846 0)
(-0.00324589 0.422932 0)
(0.0161336 0.395493 0)
(0.0395203 0.369145 0)
(0.0670816 0.336437 0)
(0.0990968 0.303639 0)
(0.135358 0.266597 0)
(0.176028 0.2318 0)
(0.220954 0.193335 0)
(0.270497 0.15859 0)
(0.324367 0.128137 0)
(0.381615 0.0920875 0)
(0.442433 0.0690967 0)
(-0.00587221 0.537935 0)
(-0.0175022 0.536233 0)
(-0.028474 0.533515 0)
(-0.0383043 0.529249 0)
(-0.0467538 0.522106 0)
(-0.053284 0.51469 0)
(-0.0576273 0.502258 0)
(-0.0593228 0.491245 0)
(-0.0581195 0.472007 0)
(-0.0536241 0.455663 0)
(-0.0452974 0.430005 0)
(-0.0328836 0.406914 0)
(-0.0158099 0.374919 0)
(0.00567054 0.344669 0)
(0.0317621 0.307032 0)
(0.062596 0.26992 0)
(0.0980717 0.228259 0)
(0.138787 0.188383 0)
(0.184638 0.145558 0)
(0.235979 0.105014 0)
(0.292729 0.0705734 0)
(0.35427 0.0303009 0)
(0.420392 0.00334047 0)
(-0.00724661 0.551145 0)
(-0.021675 0.549262 0)
(-0.0354583 0.545415 0)
(-0.0480963 0.539979 0)
(-0.0594104 0.531287 0)
(-0.0688537 0.521611 0)
(-0.0761439 0.507077 0)
(-0.0807461 0.492803 0)
(-0.0824373 0.470986 0)
(-0.0809351 0.450702 0)
(-0.0757741 0.421455 0)
(-0.0667928 0.394005 0)
(-0.0535488 0.357401 0)
(-0.0358975 0.322901 0)
(-0.0130562 0.279662 0)
(0.0151053 0.238038 0)
(0.0487862 0.190675 0)
(0.0888161 0.144852 0)
(0.134992 0.0966363 0)
(0.187938 0.0491573 0)
(0.248164 0.00889817 0)
(0.315561 -0.0375782 0)
(0.389916 -0.069934 0)
(-0.00906784 0.567566 0)
(-0.0271491 0.565564 0)
(-0.0446193 0.560574 0)
(-0.0609951 0.55403 0)
(-0.0760701 0.543808 0)
(-0.0893361 0.531962 0)
(-0.100582 0.515402 0)
(-0.109361 0.497973 0)
(-0.115436 0.473668 0)
(-0.11844 0.449576 0)
(-0.117784 0.41678 0)
(-0.113012 0.384902 0)
(-0.103596 0.343773 0)
(-0.0891793 0.304342 0)
(-0.0691942 0.25522 0)
(-0.0436262 0.20852 0)
(-0.011558 0.154151 0)
(0.0277693 0.101655 0)
(0.0741296 0.0468648 0)
(0.128373 -0.0087701 0)
(0.190942 -0.0565573 0)
(0.262105 -0.111353 0)
(0.34184 -0.151001 0)
(-0.0111766 0.587937 0)
(-0.0334571 0.585807 0)
(-0.0552179 0.579808 0)
(-0.0760562 0.572245 0)
(-0.0957153 0.560549 0)
(-0.113738 0.546715 0)
(-0.129881 0.528223 0)
(-0.14366 0.507869 0)
(-0.154714 0.481034 0)
(-0.162608 0.453208 0)
(-0.167009 0.416956 0)
(-0.167742 0.38071 0)
(-0.164406 0.335191 0)
(-0.15641 0.29044 0)
(-0.142987 0.235586 0)
(-0.123427 0.182836 0)
(-0.0966332 0.120713 0)
(-0.0619473 0.0607415 0)
(-0.0180466 -0.00290568 0)
(0.0360598 -0.0678667 0)
(0.100088 -0.124669 0)
(0.174949 -0.189978 0)
(0.260949 -0.238927 0)
(-0.0136189 0.612882 0)
(-0.0407359 0.610557 0)
(-0.0674095 0.603785 0)
(-0.0933117 0.595293 0)
(-0.118131 0.582252 0)
(-0.141499 0.56666 0)
(-0.16314 0.546299 0)
(-0.182619 0.523266 0)
(-0.199677 0.493938 0)
(-0.213936 0.462614 0)
(-0.224995 0.423134 0)
(-0.232215 0.382567 0)
(-0.23472 0.332541 0)
(-0.231692 0.282052 0)
(-0.222822 0.221609 0)
(-0.207547 0.16184 0)
(-0.184987 0.0921411 0)
(-0.154216 0.02356 0)
(-0.113473 -0.0507646 0)
(-0.0626151 -0.125474 0)
(-0.00100187 -0.193313 0)
(0.0733474 -0.271277 0)
(0.160397 -0.331534 0)
(-0.0161463 0.642822 0)
(-0.0483241 0.64026 0)
(-0.0802299 0.633006 0)
(-0.111641 0.623723 0)
(-0.142246 0.609574 0)
(-0.171731 0.592507 0)
(-0.199739 0.570399 0)
(-0.225824 0.545007 0)
(-0.249643 0.513325 0)
(-0.270684 0.47875 0)
(-0.288473 0.436037 0)
(-0.302507 0.39107 0)
(-0.312532 0.336675 0)
(-0.318116 0.280529 0)
(-0.318252 0.214395 0)
(-0.311042 0.146493 0)
(-0.295178 0.0689059 0)
(-0.270225 -0.00917703 0)
(-0.23624 -0.0931031 0)
(-0.193544 -0.177134 0)
(-0.138453 -0.258923 0)
(-0.0691069 -0.350069 0)
(0.0133945 -0.423134 0)
(-0.0187914 0.67796 0)
(-0.0562535 0.675162 0)
(-0.093492 0.667646 0)
(-0.130314 0.657709 0)
(-0.166437 0.6427 0)
(-0.201633 0.624436 0)
(-0.235582 0.600787 0)
(-0.267911 0.573376 0)
(-0.298287 0.539472 0)
(-0.326239 0.501891 0)
(-0.351393 0.456103 0)
(-0.373193 0.407063 0)
(-0.390731 0.348428 0)
(-0.402746 0.286506 0)
(-0.408586 0.214464 0)
(-0.408119 0.138745 0)
(-0.401782 0.0543773 0)
(-0.390631 -0.0309011 0)
(-0.374697 -0.121517 0)
(-0.348109 -0.218323 0)
(-0.303458 -0.317953 0)
(-0.242503 -0.421977 0)
(-0.166627 -0.510386 0)
(-0.0214728 0.718452 0)
(-0.064369 0.715482 0)
(-0.107229 0.707877 0)
(-0.149925 0.697446 0)
(-0.192204 0.681809 0)
(-0.23385 0.662606 0)
(-0.274524 0.637666 0)
(-0.313852 0.608564 0)
(-0.351439 0.572636 0)
(-0.386765 0.532371 0)
(-0.41937 0.48372 0)
(-0.448719 0.430897 0)
(-0.4746 0.368275 0)
(-0.496875 0.301165 0)
(-0.515283 0.224217 0)
(-0.530349 0.143704 0)
(-0.544351 0.0571608 0)
(-0.554866 -0.034284 0)
(-0.54923 -0.139777 0)
(-0.519204 -0.256933 0)
(-0.469067 -0.374587 0)
(-0.404629 -0.491353 0)
(-0.3256 -0.596685 0)
(-0.023916 0.764094 0)
(-0.0717134 0.76104 0)
(-0.119496 0.753469 0)
(-0.167172 0.742731 0)
(-0.214562 0.726696 0)
(-0.261529 0.706828 0)
(-0.307806 0.680882 0)
(-0.353092 0.650438 0)
(-0.397048 0.612765 0)
(-0.439284 0.570244 0)
(-0.479514 0.519096 0)
(-0.517435 0.463176 0)
(-0.552744 0.39754 0)
(-0.585852 0.327607 0)
(-0.619137 0.249774 0)
(-0.655864 0.170248 0)
(-0.691991 0.0810451 0)
(-0.706926 -0.0325466 0)
(-0.687952 -0.166218 0)
(-0.646613 -0.302195 0)
(-0.592294 -0.434291 0)
(-0.525437 -0.563594 0)
(-0.444085 -0.685628 0)
(-0.0268305 0.815121 0)
(-0.080487 0.812028 0)
(-0.134189 0.804527 0)
(-0.187902 0.793622 0)
(-0.241505 0.777357 0)
(-0.294886 0.757071 0)
(-0.347816 0.730396 0)
(-0.400051 0.698986 0)
(-0.451338 0.659989 0)
(-0.501516 0.615947 0)
(-0.550718 0.563323 0)
(-0.599654 0.506292 0)
(-0.650316 0.440877 0)
(-0.70452 0.372071 0)
(-0.761916 0.2965 0)
(-0.813518 0.21235 0)
(-0.835399 0.0972897 0)
(-0.818734 -0.050497 0)
(-0.78326 -0.202968 0)
(-0.740506 -0.349943 0)
(-0.686931 -0.494967 0)
(-0.6187 -0.638678 0)
(-0.533208 -0.778227 0)
(-0.0284358 0.870691 0)
(-0.0854235 0.86771 0)
(-0.142767 0.8605 0)
(-0.200544 0.84975 0)
(-0.258674 0.833575 0)
(-0.317068 0.813242 0)
(-0.375562 0.78626 0)
(-0.434014 0.754417 0)
(-0.492309 0.714744 0)
(-0.550427 0.670084 0)
(-0.608686 0.617239 0)
(-0.668184 0.561408 0)
(-0.731981 0.500849 0)
(-0.8038 0.438815 0)
(-0.876448 0.360514 0)
(-0.919366 0.243383 0)
(-0.914127 0.0830155 0)
(-0.885472 -0.0817505 0)
(-0.852575 -0.240412 0)
(-0.808618 -0.39963 0)
(-0.749187 -0.558845 0)
(-0.673717 -0.719221 0)
(-0.582273 -0.875516 0)
(-0.0320729 0.931529 0)
(-0.0961945 0.928641 0)
(-0.160254 0.921635 0)
(-0.224374 0.911177 0)
(-0.288813 0.895385 0)
(-0.353694 0.875379 0)
(-0.418997 0.848595 0)
(-0.484929 0.817144 0)
(-0.551991 0.778058 0)
(-0.621231 0.734821 0)
(-0.694395 0.68464 0)
(-0.773666 0.633531 0)
(-0.857862 0.577523 0)
(-0.936243 0.513161 0)
(-0.98359 0.40682 0)
(-0.984265 0.240926 0)
(-0.961577 0.0574265 0)
(-0.935275 -0.111377 0)
(-0.897335 -0.281963 0)
(-0.8446 -0.455247 0)
(-0.778619 -0.629269 0)
(-0.70052 -0.803144 0)
(-0.612521 -0.97195 0)
(-0.0322921 0.996244 0)
(-0.0971149 0.99357 0)
(-0.162608 0.98696 0)
(-0.229079 0.977151 0)
(-0.296779 0.962267 0)
(-0.365924 0.943248 0)
(-0.436508 0.917349 0)
(-0.508518 0.887079 0)
(-0.582342 0.849771 0)
(-0.659212 0.810007 0)
(-0.741587 0.765833 0)
(-0.831792 0.722729 0)
(-0.927438 0.669139 0)
(-1.00484 0.578171 0)
(-1.02989 0.414607 0)
(-1.01378 0.217649 0)
(-0.989633 0.0336476 0)
(-0.956834 -0.14698 0)
(-0.909273 -0.33228 0)
(-0.850951 -0.516543 0)
(-0.783648 -0.70193 0)
(-0.709062 -0.883945 0)
(-0.62785 -1.06122 0)
(-0.0357351 1.06464 0)
(-0.107574 1.06258 0)
(-0.180457 1.05708 0)
(-0.254673 1.04848 0)
(-0.330148 1.03489 0)
(-0.40695 1.01736 0)
(-0.485571 0.993245 0)
(-0.566664 0.965111 0)
(-0.650863 0.930611 0)
(-0.739212 0.895274 0)
(-0.832944 0.85762 0)
(-0.930134 0.819346 0)
(-1.01497 0.753972 0)
(-1.05704 0.613461 0)
(-1.0526 0.40006 0)
(-1.03046 0.19377 0)
(-0.999908 0.00256316 0)
(-0.956238 -0.19274 0)
(-0.903856 -0.386963 0)
(-0.845092 -0.579539 0)
(-0.78064 -0.771357 0)
(-0.71124 -0.959238 0)
(-0.636741 -1.14244 0)
(-0.035848 1.13661 0)
(-0.107835 1.13521 0)
(-0.180702 1.13098 0)
(-0.25505 1.12394 0)
(-0.331377 1.11205 0)
(-0.410171 1.09663 0)
(-0.492181 1.07547 0)
(-0.57847 1.05117 0)
(-0.670257 1.02148 0)
(-0.76877 0.992268 0)
(-0.873134 0.959785 0)
(-0.975163 0.917469 0)
(-1.04774 0.814102 0)
(-1.06509 0.61309 0)
(-1.04651 0.377304 0)
(-1.01965 0.167295 0)
(-0.982203 -0.0392973 0)
(-0.934204 -0.243006 0)
(-0.880987 -0.442828 0)
(-0.823393 -0.640623 0)
(-0.762583 -0.836173 0)
(-0.698116 -1.02897 0)
(-0.62973 -1.21632 0)
(-0.0377964 1.21065 0)
(-0.113864 1.21002 0)
(-0.191374 1.20735 0)
(-0.271301 1.20267 0)
(-0.354576 1.19377 0)
(-0.441794 1.18181 0)
(-0.533055 1.16449 0)
(-0.628212 1.14456 0)
(-0.728335 1.12103 0)
(-0.834595 1.09859 0)
(-0.942674 1.06704 0)
(-1.03387 1.00447 0)
(-1.07724 0.843672 0)
(-1.07042 0.594132 0)
(-1.04235 0.349373 0)
(-1.00491 0.130618 0)
(-0.958158 -0.0872444 0)
(-0.906453 -0.295266 0)
(-0.851884 -0.498903 0)
(-0.795759 -0.698847 0)
(-0.738506 -0.896617 0)
(-0.679611 -1.09252 0)
(-0.618429 -1.28301 0)
(-0.0387543 1.2876 0)
(-0.116567 1.28776 0)
(-0.195328 1.28671 0)
(-0.27575 1.28451 0)
(-0.35861 1.27895 0)
(-0.444604 1.27076 0)
(-0.534434 1.25759 0)
(-0.628799 1.24199 0)
(-0.729244 1.22523 0)
(-0.835903 1.20844 0)
(-0.941902 1.17241 0)
(-1.02447 1.07379 0)
(-1.05244 0.846081 0)
(-1.03475 0.567103 0)
(-1.00411 0.3174 0)
(-0.964753 0.085416 0)
(-0.916405 -0.137627 0)
(-0.86533 -0.348188 0)
(-0.813255 -0.553173 0)
(-0.761006 -0.753507 0)
(-0.708546 -0.952235 0)
(-0.655388 -1.14954 0)
(-0.600609 -1.34256 0)
(-0.0384917 1.36526 0)
(-0.116259 1.36651 0)
(-0.196318 1.36763 0)
(-0.279996 1.36857 0)
(-0.368331 1.367 0)
(-0.462233 1.36357 0)
(-0.562634 1.35603 0)
(-0.670029 1.34639 0)
(-0.783257 1.33564 0)
(-0.897024 1.31963 0)
(-0.998068 1.26937 0)
(-1.05789 1.11998 0)
(-1.06017 0.830306 0)
(-1.02822 0.532985 0)
(-0.984762 0.277049 0)
(-0.934021 0.0352151 0)
(-0.88065 -0.189666 0)
(-0.827831 -0.400577 0)
(-0.776402 -0.604821 0)
(-0.726223 -0.804818 0)
(-0.676699 -1.00344 0)
(-0.627413 -1.20131 0)
(-0.57752 -1.39601 0)
(-0.0404094 1.44458 0)
(-0.121781 1.44717 0)
(-0.204772 1.45088 0)
(-0.290178 1.4553 0)
(-0.378397 1.45776 0)
(-0.46968 1.45897 0)
(-0.564855 1.45723 0)
(-0.665327 1.45415 0)
(-0.771358 1.4483 0)
(-0.878378 1.42893 0)
(-0.970331 1.35409 0)
(-1.01522 1.14053 0)
(-1.00623 0.803027 0)
(-0.974022 0.495776 0)
(-0.932898 0.229246 0)
(-0.884489 -0.016637 0)