/*--------------------------------*- C++ -*----------------------------------*\
| =========                 |                                                 |
| \\      /  F ield         | OpenFOAM: The Open Source CFD Toolbox           |
|  \\    /   O peration     | Version:  2012                                  |
|   \\  /    A nd           | Website:  www.openfoam.com                      |
|    \\/     M anipulation  |                                                 |
\*---------------------------------------------------------------------------*/
FoamFile
{
    version     2.0;
    format      ascii;
    class       volScalarField;
    location    "0.43";
    object      minKappa;
}
// * * * * * * * * * * * * * * * * * * * * * * * * * * * * * * * * * * * * * //

dimensions      [0 0 0 0 0 0 0];


internalField   nonuniform List<scalar> 
2268
(
5.3711e-07
1.27388e-06
1.99096e-06
2.72378e-06
3.44827e-06
4.20599e-06
4.9053e-06
5.46769e-06
6.14578e-06
6.58291e-06
7.05163e-06
7.44032e-06
7.73715e-06
7.88755e-06
7.90382e-06
7.77802e-06
7.51886e-06
7.06051e-06
6.41595e-06
5.51651e-06
4.2919e-06
2.9589e-06
1.41399e-06
5.3711e-07
1.27388e-06
1.99096e-06
2.72378e-06
3.44827e-06
4.20599e-06
4.9053e-06
5.46769e-06
6.14578e-06
6.58291e-06
7.05163e-06
7.44032e-06
7.73715e-06
7.88755e-06
7.90382e-06
7.77802e-06
7.51886e-06
7.06051e-06
6.41595e-06
5.51651e-06
4.2919e-06
2.9589e-06
1.41399e-06
8.30315e-07
1.42727e-06
2.08789e-06
2.80174e-06
3.51307e-06
4.25794e-06
4.93865e-06
5.5114e-06
6.18628e-06
6.61702e-06
7.09756e-06
7.48983e-06
7.75629e-06
7.91874e-06
7.97948e-06
7.86526e-06
7.61243e-06
7.16209e-06
6.55188e-06
5.70685e-06
4.55059e-06
3.27717e-06
1.92108e-06
1.16977e-06
1.6559e-06
2.24061e-06
2.92389e-06
3.61608e-06
4.34093e-06
4.99312e-06
5.58191e-06
6.24819e-06
6.67055e-06
7.17839e-06
7.54067e-06
7.81307e-06
7.98139e-06
8.06931e-06
7.97369e-06
7.72988e-06
7.29767e-06
6.72325e-06
5.9848e-06
4.96697e-06
4.00279e-06
2.84706e-06
1.5243e-06
1.9383e-06
2.44232e-06
3.08687e-06
3.75655e-06
4.45713e-06
5.0749e-06
5.68414e-06
6.33218e-06
6.74764e-06
7.28803e-06
7.61176e-06
7.9087e-06
8.07916e-06
8.17755e-06
8.10275e-06
7.89773e-06
7.50063e-06
6.97616e-06
6.33212e-06
5.45076e-06
4.76011e-06
3.78942e-06
1.88597e-06
2.25413e-06
2.68019e-06
3.28296e-06
3.92879e-06
4.60208e-06
5.18573e-06
5.81584e-06
6.4315e-06
6.84648e-06
7.41779e-06
7.71049e-06
8.0256e-06
8.20681e-06
8.31383e-06
8.26174e-06
8.09908e-06
7.76344e-06
7.30098e-06
6.77462e-06
6.02511e-06
5.68269e-06
4.98654e-06
2.25514e-06
2.58984e-06
2.94845e-06
3.51094e-06
4.13185e-06
4.77541e-06
5.33069e-06
5.97715e-06
6.54802e-06
6.97634e-06
7.574e-06
7.83858e-06
8.17946e-06
8.36073e-06
8.481e-06
8.438e-06
8.33062e-06
8.05055e-06
7.68329e-06
7.2855e-06
6.68692e-06
6.70323e-06
6.26626e-06
2.63081e-06
2.93626e-06
3.24129e-06
3.76576e-06
4.3607e-06
4.97328e-06
5.5062e-06
6.16094e-06
6.68237e-06
7.14213e-06
7.75155e-06
7.98696e-06
8.37457e-06
8.53446e-06
8.6875e-06
8.6503e-06
8.61072e-06
8.39133e-06
8.12318e-06
7.88942e-06
7.41541e-06
7.85959e-06
8.01977e-06
2.96464e-05
6.05805e-05
1.24658e-05
3.8222e-05
1.12591e-05
5.43486e-05
5.19534e-05
0.000111063
0.000134198
0.000224579
0.000287961
0.000448307
0.000641466
0.000961113
0.00116503
0.00125231
0.00107274
0.000717155
0.000555508
2.80757e-05
6.05805e-05
1.24658e-05
3.68995e-05
1.12591e-05
5.43486e-05
5.19534e-05
0.000111063
0.000134198
0.000224579
0.000287961
0.000448307
0.000637817
0.000894514
0.00104063
0.00108347
0.000887216
0.000619423
0.000555508
2.80757e-05
6.9015e-05
1.64484e-05
3.43224e-05
1.41645e-05
5.68134e-05
5.52064e-05
0.000114238
0.000136321
0.000227313
0.000288861
0.000452617
0.000605413
0.000797277
0.000885535
0.000909517
0.000778781
0.000573098
0.000642279
4.23708e-05
8.00743e-05
1.64484e-05
2.96088e-05
1.9691e-05
6.15312e-05
6.1125e-05
0.000120391
0.000140742
0.000230294
0.000285929
0.000442186
0.000565231
0.000697725
0.00071261
0.000736896
0.000688626
0.000573098
0.000722682
5.67127e-05
9.4205e-05
2.63114e-05
2.09308e-05
2.67433e-05
6.83662e-05
6.86605e-05
0.000128006
0.000146174
0.000233103
0.000284327
0.000434749
0.000522893
0.000615062
0.00053704
0.000564218
0.000594186
0.000600277
0.000813342
8.04786e-05
0.000114421
3.86908e-05
1.31906e-05
3.70032e-05
7.67505e-05
7.83958e-05
0.000137436
0.000153371
0.000239146
0.000280582
0.000423968
0.000481467
0.000554694
0.000387426
0.000402051
0.000529173
0.00064637
0.00092181
0.000104626
0.000140083
6.00154e-05
1.31906e-05
5.01982e-05
8.89594e-05
9.02771e-05
0.000147691
0.00016174
0.000244317
0.000277458
0.000412015
0.000451245
0.000511978
0.000314772
0.000245608
0.000510395
0.000676139
0.000882162
0.000144185
0.000150431
8.3401e-05
1.92924e-05
6.82336e-05
0.000103456
0.000103409
0.000159869
0.000170734
0.000249611
0.000277458
0.000412015
0.000451245
0.000511978
0.000314772
0.000233414
0.000510395
0.000676139
0.000873777
4.71155e-06
5.14817e-06
5.565e-06
6.33078e-06
7.21765e-06
8.12726e-06
8.93345e-06
9.95398e-06
1.07051e-05
1.14936e-05
1.24114e-05
1.27602e-05
1.34594e-05
1.36539e-05
1.39762e-05
1.38825e-05
1.39561e-05
1.36338e-05
1.35542e-05
1.33886e-05
1.34122e-05
1.4726e-05
1.71461e-05
8.98931e-06
9.54209e-06
1.00133e-05
1.10006e-05
1.216e-05
1.33413e-05
1.43797e-05
1.57742e-05
1.65977e-05
1.77782e-05
1.86165e-05
1.90691e-05
1.99471e-05
1.98801e-05
2.04466e-05
2.01484e-05
2.06489e-05
2.00218e-05
2.06504e-05
2.02984e-05
2.13036e-05
2.25263e-05
2.11455e-05
3.3078e-05
3.45706e-05
3.55126e-05
3.81006e-05
4.09558e-05
4.37122e-05
4.55959e-05
4.86912e-05
4.89697e-05
5.02517e-05
4.89984e-05
4.77814e-05
4.51656e-05
4.09656e-05
3.69575e-05
3.03442e-05
2.30482e-05
2.15713e-05
2.22579e-05
2.2131e-05
2.38109e-05
2.45782e-05
2.27858e-05
0.000195345
0.00019822
0.000203702
0.000213688
0.000223892
0.000234134
0.000245168
0.000256904
0.00026195
0.000270845
0.00026804
0.000304342
0.000294068
0.000278782
0.000241129
0.000185059
7.01496e-05
5.23979e-05
3.94734e-05
2.40532e-05
2.47021e-05
2.53207e-05
2.1304e-05
0.000262762
0.000259381
0.000263449
0.00026391
0.000257507
0.000251186
0.000241772
0.000232102
0.000220117
0.000213637
0.000210868
0.000212742
0.000207177
0.000208168
0.000225719
0.000233917
0.000342132
0.000376507
0.000254663
6.50415e-05
5.87279e-05
4.2225e-05
2.14582e-05
0.000265044
0.000262622
0.000260368
0.000256448
0.000249558
0.000240399
0.000230192
0.000217611
0.000208094
0.000201448
0.000199407
0.000191589
0.000188882
0.000183257
0.000183257
0.000195888
0.000245722
0.000309603
0.000391854
0.000465372
0.000413023
0.000254697
7.02044e-05
0.000272614
0.000271208
0.000267509
0.000265836
0.000258204
0.000249431
0.000240111
0.000231711
0.000219772
0.00021715
0.000214815
0.000218841
0.00020519
0.000209738
0.000189244
0.00022569
0.000220267
0.000251705
0.000313582
0.000394681
0.000466286
0.000486833
0.000453948
0.000272474
0.000269754
0.000266472
0.000262209
0.000256363
0.000249158
0.000243237
0.000236967
0.000231018
0.000231358
0.000233584
0.000230366
0.000221941
0.000211423
0.000200565
0.000200565
0.000200634
0.000198322
0.000224857
0.000274848
0.000391106
0.000491379
0.000389304
0.000279697
0.000278236
0.000274674
0.000272285
0.000266604
0.000261591
0.000253311
0.000249958
0.000241825
0.000241419
0.000241586
0.000237521
0.000227631
0.000215754
0.000204006
0.000198203
0.00018555
0.00018555
0.00018681
0.000201147
0.00025304
0.000350213
0.000419997
0.000282708
0.000281099
0.000279354
0.000276273
0.000272842
0.000268057
0.000263289
0.000258804
0.000253096
0.00025017
0.000247667
0.000241998
0.00023465
0.000227382
0.00021492
0.000211668
0.000199533
0.000191848
0.000196561
0.000199525
0.00020095
0.000225481
0.000261145
0.000290854
0.000289651
0.000287879
0.000286181
0.000281794
0.000279461
0.000272739
0.000270833
0.000263415
0.00025972
0.000255565
0.000253581
0.000244554
0.000242041
0.000231065
0.000226204
0.000217367
0.000207423
0.000202002
0.000196379
0.000196379
0.000194533
0.000157781
0.000298897
0.000298032
0.000296495
0.000294238
0.000290981
0.000288694
0.000283517
0.000281784
0.000275899
0.000271981
0.000268022
0.000266196
0.000260254
0.000258919
0.000250651
0.000247702
0.000237959
0.000230654
0.000224599
0.000219619
0.000213744
0.000216146
0.00016221
0.00030708
0.000306416
0.000305055
0.000303969
0.000300349
0.000299497
0.000294416
0.000293204
0.000288537
0.000285877
0.000282142
0.000281097
0.000276318
0.000275454
0.000269436
0.000266792
0.000260104
0.000255378
0.000252408
0.000250417
0.000244252
0.000248635
0.000194792
0.000317064
0.000316506
0.000315228
0.000314553
0.000311384
0.000311001
0.000306679
0.000305642
0.000302162
0.0002999
0.000296785
0.00029533
0.000291149
0.000290318
0.000285162
0.000283619
0.000277774
0.000275471
0.000273793
0.000272436
0.000271768
0.000280117
0.00022423
0.000327432
0.000327034
0.000325986
0.000325683
0.000322911
0.000322967
0.000319272
0.000318482
0.000315601
0.000313892
0.000311158
0.000310237
0.000306781
0.000306099
0.000302325
0.00030133
0.000297782
0.000297631
0.000297471
0.000298601
0.000302048
0.000310624
0.000248688
0.000338998
0.000338774
0.000338003
0.000337952
0.000335518
0.000335726
0.000332658
0.000331995
0.000329795
0.00032845
0.000326387
0.000325611
0.000322981
0.000322935
0.000320282
0.000320878
0.000319169
0.000321324
0.000322963
0.000326676
0.000333329
0.000342305
0.000277381
0.000351205
0.000351158
0.000350384
0.000350625
0.000348413
0.000348836
0.000346271
0.000345907
0.000344275
0.000343492
0.000342068
0.000341892
0.000340325
0.000341041
0.000340086
0.000341938
0.000342388
0.000346407
0.000349905
0.000356348
0.000365423
0.000375789
0.000305843
0.00036454
0.000364584
0.000363797
0.000364204
0.000362267
0.000362828
0.000360825
0.000360698
0.000359569
0.000359138
0.000358445
0.000358844
0.000358342
0.000359986
0.000360419
0.000363667
0.000365967
0.000371743
0.000377349
0.000386284
0.000397535
0.000410043
0.000336654
0.000378163
0.000378297
0.000377561
0.000378145
0.000376466
0.000377193
0.000375641
0.000375848
0.000375213
0.000375313
0.000375305
0.000376342
0.000376803
0.00037925
0.00038104
0.000385488
0.000389557
0.000396958
0.000404617
0.000416017
0.000429521
0.000445132
0.00036682
0.000393091
0.000393311
0.000392524
0.000393213
0.000391715
0.000392522
0.000391308
0.000391751
0.000391538
0.000392086
0.000392684
0.000394309
0.000395618
0.000398948
0.000401911
0.000407637
0.000413266
0.00042231
0.000432013
0.000445642
0.000461405
0.000480227
0.000395963
0.000408393
0.000408662
0.000407791
0.000408517
0.000407171
0.000408067
0.000407159
0.000407888
0.000408055
0.000409104
0.000410204
0.000412463
0.000414485
0.000418706
0.000422581
0.000429459
0.000436259
0.000446806
0.000458126
0.000473793
0.000491884
0.000514125
0.000423631
0.000424706
0.000425004
0.000424075
0.000424787
0.000423595
0.000424506
0.000423841
0.000424774
0.000425309
0.000426785
0.000428325
0.000431163
0.000433731
0.000438779
0.000443209
0.000451126
0.0004587
0.000470569
0.000483188
0.000500766
0.000521095
0.000545715
0.000450149
0.000441371
0.000441703
0.000440717
0.00044139
0.000440373
0.000441235
0.000440808
0.000441853
0.000442741
0.000444482
0.000446422
0.000449631
0.000452617
0.000458226
0.000462981
0.000471644
0.000479751
0.00049265
0.000506363
0.00052468
0.000545891
0.000571779
0.000473195
0.000458556
0.000458894
0.000457876
0.000458462
0.000457639
0.000458393
0.000458224
0.000459263
0.000460492
0.000462283
0.000464654
0.000468016
0.000471415
0.000477409
0.000482339
0.000491619
0.000499952
0.000513784
0.000528109
0.000546656
0.000569113
0.000596523
0.000494077
0.00047574
0.000476031
0.000475095
0.000475586
0.000474976
0.000475608
0.00047569
0.000476646
0.000478159
0.000479837
0.000482588
0.000485891
0.00048965
0.000495853
0.000500772
0.000510615
0.000518819
0.000532947
0.000547358
0.000565528
0.000588214
0.000616019
0.00050914
0.000492498
0.000492637
0.000491934
0.000492271
0.00049189
0.000492439
0.000492769
0.000493462
0.000495131
0.000496521
0.000499552
0.000502568
0.00050661
0.000512721
0.000517501
0.000527592
0.00053543
0.000548167
0.000561752
0.000579402
0.000601125
0.000629003
0.000520268
0.000508479
0.000508405
0.000508052
0.000508204
0.000508106
0.000508628
0.000509289
0.000509787
0.000511552
0.000512584
0.000515848
0.000518442
0.000522747
0.000528445
0.000533219
0.000542847
0.000550243
0.000561637
0.000574053
0.000590764
0.000611503
0.000639472
0.00053018
0.000523153
0.000522902
0.000522838
0.000522817
0.00052297
0.000523417
0.000524365
0.000524834
0.000526779
0.000527437
0.000530818
0.000532838
0.000537338
0.000542192
0.000546874
0.000553905
0.000560857
0.000569564
0.00058034
0.000595024
0.000613325
0.000639474
0.000531586
0.00053622
0.000535896
0.000536013
0.000535938
0.000536364
0.000536817
0.000538043
0.000538598
0.000540932
0.000541563
0.000545235
0.000546684
0.000551229
0.00055481
0.000559324
0.000565746
0.000571799
0.000578292
0.000586784
0.000598337
0.000613542
0.000636967
0.000530664
0.000547586
0.000547254
0.000547465
0.000547419
0.000548085
0.000548579
0.000550086
0.00055079
0.000553499
0.000554274
0.000558338
0.000559365
0.000563938
0.000566027
0.0005703
0.000573642
0.000576901
0.000580355
0.000585759
0.000593006
0.000603433
0.000621641
0.000514758
0.000557094
0.000556776
0.000557058
0.000557076
0.00055798
0.000558569
0.000560427
0.000561384
0.000564532
0.000565577
0.000570065
0.000570999
0.000575889
0.000576899
0.000580874
0.000582452
0.00058528
0.000586714
0.000588226
0.000584805
0.000589832
0.000596412
0.000494466
0.000564853
0.00056456
0.000564918
0.000565009
0.000566169
0.000566892
0.000569167
0.000570436
0.00057409
0.000575531
0.00058005
0.000581461
0.000585993
0.000586689
0.000589564
0.000589096
0.00058704
0.000583571
0.000578626
0.000575025
0.000571642
0.000566022
0.00045974
0.000570952
0.000570664
0.000571073
0.0005712
0.000572606
0.000573448
0.000575882
0.000577711
0.000581362
0.000583715
0.00058863
0.00059044
0.000595806
0.000595548
0.000598978
0.000596431
0.000594737
0.000587317
0.000576981
0.000565281
0.000552379
0.00053466
0.00042784
0.000575584
0.000575282
0.000575655
0.00057589
0.000576875
0.000578191
0.00058028
0.000582803
0.000586133
0.000589701
0.000593826
0.000597664
0.000601333
0.000603264
0.000604067
0.000600353
0.000593201
0.000581835
0.000566099
0.000546965
0.000526255
0.000507365
0.000385591
0.000578203
0.000578203
0.000578239
0.000578542
0.000579581
0.000581076
0.000583453
0.00058636
0.000590156
0.000594271
0.000598992
0.000603489
0.000607831
0.000609285
0.000612306
0.000607855
0.00060111
0.000588213
0.000568958
0.000543952
0.000514141
0.000478898
0.000354584
0.000580356
0.000580356
0.000580379
0.000580659
0.000581705
0.000583196
0.00058559
0.000588495
0.000592302
0.000596391
0.000601054
0.000605402
0.000609471
0.000612139
0.000611548
0.000606325
0.00059595
0.000579407
0.000554815
0.000522083
0.000481843
0.000441387
0.000306107
0.000581455
0.000581451
0.000581451
0.000581695
0.000582754
0.000584314
0.000586839
0.00058992
0.000593958
0.000598318
0.000603316
0.000608036
0.000612557
0.000615541
0.00061607
0.000611396
0.000601385
0.000584836
0.000559278
0.000523428
0.000476607
0.00042502
0.000283322
0.000582363
0.000582363
0.00058237
0.000582572
0.000583541
0.000584959
0.000587321
0.000590184
0.000593971
0.000598006
0.000602614
0.000606808
0.000610662
0.000612869
0.000610458
0.000603653
0.000590746
0.000570405
0.000539765
0.000497215
0.000441659
0.000378246
0.000236843
0.00058265
0.000582585
0.000582585
0.000582705
0.000583627
0.000585018
0.00058738
0.000590261
0.000594088
0.000598196
0.000602927
0.000607291
0.000611373
0.000611283
0.00061236
0.000604628
0.000594165
0.00057454
0.000544352
0.000500911
0.000441368
0.000369611
0.000222091
0.000582405
0.000582268
0.000582268
0.000582294
0.000583085
0.000584264
0.00058632
0.000588785
0.000592098
0.000595581
0.000599564
0.000603003
0.000605966
0.000606355
0.000602056
0.000593661
0.000578788
0.000555896
0.000521847
0.000473869
0.000408266
0.000326592
0.000182165
0.000582361
0.000582174
0.000582113
0.000582113
0.000582809
0.000583905
0.00058591
0.000588364
0.000591687
0.000595016
0.00059925
0.000600866
0.000605745
0.000602016
0.000603258
0.00059265
0.000581495
0.000559144
0.000524657
0.000474407
0.000403938
0.00031209
0.000155934
0.000580552
0.000580248
0.00057999
0.00057999
0.000580402
0.000581118
0.00058264
0.000584487
0.000587067
0.000589692
0.000592668
0.00059495
0.000596423
0.000594268
0.000588634
0.000579035
0.000563205
0.000539583
0.000504455
0.000454139
0.000383489
0.000292368
0.000149878
1.0812e-05
8.05068e-06
8.05068e-06
1.52059e-05
1.33791e-05
1.32969e-05
1.32969e-05
1.51288e-05
1.48273e-05
1.4726e-05
1.43979e-05
1.43979e-05
1.40773e-05
1.40773e-05
1.44195e-05
1.45552e-05
1.39896e-05
1.39896e-05
1.41819e-05
1.4324e-05
6.50758e-05
6.01226e-05
3.32722e-05
2.74803e-05
0.000296304
0.000291623
0.000280405
0.000113591
0.0002558
0.0002558
0.000269761
0.000283045
0.000279501
0.000279501
0.000276152
0.000276152
0.000217941
0.000217941
0.000247532
0.000268531
0.000113113
0.000113113
0.000131593
0.000156416
0.000104544
0.000104544
0.000107297
0.000111308
0.000126793
0.000126793
0.000128119
0.00012898
0.000145864
0.000145864
0.000148038
0.000150459
0.000161813
0.000161813
0.000164951
0.000168168
0.000181192
0.000181192
0.00018591
0.000190072
0.000200755
0.000200755
0.000206332
0.000211029
0.00022171
0.00022171
0.000227767
0.000233514
0.000241663
0.000241663
0.000248183
0.000255158
0.00026092
0.00026092
0.00026835
0.000276378
0.000279536
0.000279536
0.000288044
0.000297273
0.000297486
0.000297486
0.00030716
0.000317822
0.000313032
0.000313032
0.000323626
0.000335162
0.000326779
0.000326779
0.000337951
0.000350242
0.000336818
0.000336818
0.000348895
0.000362738
0.000345094
0.000345094
0.000358676
0.000374169
0.00035264
0.00035264
0.000367226
0.000383326
0.000354403
0.000354403
0.000369432
0.000385692
0.00035401
0.00035401
0.000368925
0.000385132
0.000343597
0.000343597
0.000358567
0.000374861
0.000330919
0.000330919
0.000346326
0.000362636
0.000307816
0.000307816
0.000323331
0.000340194
0.000285921
0.000285921
0.00030095
0.000317832
0.000256532
0.000256532
0.000270433
0.000286323
0.000234172
0.000234172
0.000247466
0.000263828
0.000198451
0.000198451
0.000208862
0.000224948
0.000180093
0.000180093
0.000188377
0.000205504
0.000145508
0.000145508
0.000149042
0.000163558
0.000133619
0.000133619
0.000135878
0.000151027
0.000107787
0.000107787
0.000113547
0.000132229
8.39418e-05
8.37299e-05
8.37299e-05
0.000101579
9.13252e-05
9.13252e-05
0.000113245
0.000154221
0.000144932
0.000233977
0.000159485
6.29518e-05
0.000135818
0.000191998
0.000189209
0.000267936
0.000281813
0.000395253
0.000428594
0.000620805
0.000673784
0.000741317
0.000507743
0.000233414
0.000714433
0.00105636
0.000873777
4.0869e-05
4.94287e-05
0.000323974
0.000212792
0.00027409
0.000359901
0.000330228
0.000429076
0.000429806
0.000542898
0.000562455
0.000682967
0.000759541
0.000741411
0.000654149
0.000315995
0.000704944
0.00110238
0.000968993
2.34863e-05
2.69391e-05
5.49648e-05
0.000326532
0.000313347
0.000511543
0.000446013
0.000477643
0.000484991
0.000544594
0.000548392
0.000616482
0.000702775
0.000649309
0.000594
0.000361839
0.000579449
0.0010593
0.000949123
2.43143e-05
2.69391e-05
3.22645e-05
0.000128129
0.000313347
0.00043981
0.000604444
0.000574312
0.000577412
0.000544594
0.000548392
0.000612307
0.000699738
0.000618777
0.000590718
0.000361839
0.000530942
0.000978738
0.000812533
2.41392e-05
2.88136e-05
2.93281e-05
4.257e-05
0.000162361
0.000451997
0.000702648
0.000711087
0.00071123
0.000624773
0.000642532
0.000612307
0.000699738
0.000618777
0.000612043
0.000376937
0.000577187
0.000799099
0.000480889
2.74803e-05
3.01563e-05
2.93281e-05
3.28854e-05
4.27795e-05
8.09164e-05
0.0002732
0.000546025
0.000722021
0.000789184
0.000780321
0.000850798
0.000902158
0.00081215
0.000907088
0.000565585
0.000743757
0.000449517
0.000205694
7.59406e-05
6.04177e-05
3.30593e-05
3.28854e-05
3.91622e-05
4.34316e-05
5.64141e-05
8.08466e-05
9.98107e-05
0.000110013
0.000120169
0.000130721
0.000145791
0.000180982
0.000325994
0.000551375
0.000586324
0.00020475
5.82797e-05
0.000487127
0.000410085
9.85619e-05
7.85245e-05
6.04426e-05
4.5872e-05
5.01618e-05
5.17538e-05
5.62788e-05
5.97383e-05
6.2309e-05
6.43272e-05
6.65325e-05
7.57261e-05
7.81964e-05
9.10443e-05
8.96259e-05
5.15392e-05
2.40935e-05
0.00045006
0.000534808
0.000591799
0.00057839
0.000387528
0.000129336
0.000100841
9.29262e-05
9.24378e-05
9.42713e-05
9.4911e-05
9.28197e-05
8.9042e-05
7.943e-05
6.74268e-05
5.98643e-05
4.70898e-05
2.81207e-05
1.94602e-05
0.000470508
0.000529417
0.000510922
0.000508297
0.000598711
0.000700751
0.000748818
0.000646854
0.000615084
0.000615411
0.000604626
0.000568836
0.000486301
0.000215056
0.000128641
8.51051e-05
4.70931e-05
3.19151e-05
1.94602e-05
0.000310696
0.000432976
0.000442195
0.000429898
0.000400577
0.000407294
0.000438872
0.000491386
0.000596086
0.000682295
0.000768245
0.000846891
0.000882763
0.00101218
0.000853914
0.000405513
7.62566e-05
3.54746e-05
4.05244e-05
0.000198992
0.000328543
0.000369911
0.000386015
0.000341189
0.000273882
0.000218148
0.000218148
0.00021886
0.000289151
0.000372879
0.000481737
0.000563389
0.000720089
0.00103131
0.000736256
0.000106462
3.69002e-05
7.26869e-05
0.000217796
0.000326844
0.000361131
0.00037746
0.00037135
0.000331916
0.000304872
0.000277918
0.000336462
0.000480802
0.000583741
0.000953267
0.00112638
0.00126483
0.000860194
0.000433367
6.29739e-05
3.01699e-05
5.77216e-05
0.000257499
0.000327776
0.000363822
0.00037746
0.00040417
0.000405683
0.00042257
0.000444963
0.000533819
0.0007524
0.00101582
0.00166902
0.00130513
0.00085054
0.000475196
0.000153327
3.50345e-05
2.60432e-05
5.74118e-05
0.000288704
0.000371547
0.000409092
0.000419902
0.000456191
0.000472523
0.000532637
0.000594031
0.000734435
0.000975139
0.00134323
0.00145514
0.000778748
0.000533202
0.000200863
5.03982e-05
2.30769e-05
2.60432e-05
0.000101214
0.000327293
0.000419739
0.000469386
0.000486034
0.000543131
0.000577816
0.00067171
0.000756665
0.000957474
0.00120606
0.00158211
0.00123775
0.000698986
0.000342642
7.80293e-05
3.62345e-05
2.30769e-05
4.08772e-05
0.000371582
0.000364089
0.000473034
0.000535571
0.000561787
0.000637194
0.000693494
0.000818649
0.000923117
0.00117088
0.00141426
0.00189843
0.00129878
0.000698986
0.000601453
0.000212733
6.10194e-05
2.3954e-05
4.00226e-05
0.000349153
0.000403513
0.00053035
0.00060606
0.000646967
0.000747177
0.000831536
0.000981253
0.00111099
0.00135594
0.00161253
0.00212025
0.00180022
0.000773446
0.00063741
0.000452981
0.000218735
4.59813e-05
8.72182e-05
0.000245815
0.000440895
0.000592902
0.00067943
0.000746432
0.000878934
0.000989605
0.00116107
0.00131683
0.00154727
0.00177763
0.00215362
0.00242137
0.00139362
0.00060398
0.00042185
0.000376141
0.000143413
0.000119348
0.000317319
0.000477985
0.000659695
0.000759869
0.000856298
0.00100979
0.00113409
0.00132178
0.00150956
0.001747
0.00198435
0.00220788
0.00249218
0.00208
0.00105387
0.00042185
0.000233042
0.000187121
0.000131146
0.000316569
0.000516028
0.000727938
0.000841893
0.000952714
0.0010994
0.0012135
0.00136388
0.00154275
0.00181193
0.00210953
0.00232963
0.00254876
0.00234351
0.0017324
0.000664395
0.000158904
0.000138048
0.000109789
0.000185607
0.000552945
0.000791061
0.000914211
0.00102032
0.00114427
0.00120508
0.00129129
0.00145221
0.00170892
0.00200258
0.00232359
0.00259108
0.0024922
0.00214003
0.00140294
0.000422675
0.00017342
0.000109789
0.000189121
0.000583733
0.000845444
0.000971572
0.00106381
0.00116274
0.00118677
0.00126157
0.00139859
0.0016321
0.00190527
0.00222547
0.00257256
0.00254887
0.00232709
0.00175676
0.000804144
0.000182698
0.000224575
0.00022709
0.000611057
0.000893961
0.00102049
0.00110022
0.00117775
0.00117198
0.00126157
0.00139859
0.00162483
0.00186607
0.00216226
0.00254306
0.00257766
0.00244302
0.00202666
0.00112365
0.000304952
0.000249001
0.00031055
0.000635014
0.000938087
0.00106573
0.00113371
0.00117937
0.00115411
0.00127076
0.00141866
0.00162483
0.00186607
0.00214484
0.00254306
0.0026004
0.00252815
0.0021854
0.00147558
0.000553757
0.000249001
0.000391789
0.000655752
0.000975002
0.00109963
0.0011544
0.001178
0.00114374
0.0013002
0.00147058
0.00167925
0.00187321
0.00214484
0.00254681
0.00262738
0.00258873
0.0022813
0.00161391
0.000694981
0.000289513
0.000503951
0.000671249
0.0010044
0.00112164
0.00117954
0.00114894
0.00108836
0.00131129
0.00147961
0.00169697
0.00190793
0.00215667
0.00256175
0.0026816
0.00265949
0.00236375
0.00169308
0.000784269
0.000402219
0.000630756
0.000675479
0.0010234
0.00114293
0.00120541
0.00105535
0.000989338
0.00116714
0.00122524
0.00147864
0.0019285
0.00222081
0.00264548
0.00276689
0.00274613
0.00242615
0.00168673
0.000663772
0.000403993
0.00063763
0.000674985
0.00102705
0.00114856
0.00115414
0.000951279
0.000880453
0.000840999
0.000706686
0.00131815
0.00179233
0.00236269
0.00280977
0.0028841
0.00285093
0.00248997
0.0016492
0.000754012
0.000439144
0.00082466
0.000658459
0.00100187
0.00111559
0.00108463
0.000838962
0.000730392
0.000554079
0.000554079
0.000960156
0.00202413
0.00260806
0.00300781
0.00301219
0.00297124
0.00256131
0.00149226
0.000342703
0.00028223
0.000732697
0.000638294
0.000961635
0.00106262
0.000987713
0.000729227
0.000636916
0.000575243
0.00068626
0.00161178
0.00250825
0.00293193
0.00315075
0.0031313
0.0031104
0.00244187
0.00103443
0.000193251
0.000193251
0.000882688
0.000601526
0.000908685
0.00098584
0.000871058
0.000696292
0.000714965
0.000843964
0.00140403
0.00222289
0.00292379
0.00319992
0.00330476
0.00327788
0.00313373
0.00228886
0.00100589
0.000260229
0.000380803
0.00108462
0.000564743
0.000836606
0.00089078
0.000751298
0.000696292
0.000929643
0.0013896
0.00206667
0.00270797
0.00310593
0.00333711
0.00337219
0.0031486
0.00270314
0.00142126
0.000598335
0.00062083
0.00070136
0.00105181
0.000509958
0.000764985
0.000802815
0.000659545
0.000735256
0.0011245
0.00169697
0.00231647
0.00284486
0.00316977
0.00327836
0.00309871
0.00261223
0.00157971
0.00100266
0.000598335
0.000541753
0.000450659
0.000775191
0.000473158
0.000696402
0.000725534
0.00059273
0.000826941
0.00130192
0.00189767
0.00245306
0.0028701
0.00305767
0.00305212
0.00246023
0.00150485
0.000797571
0.000872551
0.000644894
0.000518159
0.000450659
0.000784754
0.00040915
0.000654271
0.000683004
0.000589357
0.000828984
0.00139904
0.00201008
0.00247274
0.00272736
0.00281832
0.00257692
0.00147158
0.000533481
0.000620742
0.000709467
0.000684293
0.000578089
0.000484921
0.00101372
0.000381825
0.000627326
0.000688508
0.000589357
0.000931711
0.00156853
0.00209086
0.00234895
0.00247632
0.00242335
0.00176705
0.00064906
0.000356439
0.00042161
0.000621016
0.000831033
0.000683791
0.000757284
0.00168511
0.000311567
0.000583625
0.000688508
0.000650564
0.000948881
0.00160394
0.002133
0.00223649
0.00219441
0.00192893
0.000967378
0.000405894
0.000356439
0.000518848
0.000658631
0.000753435
0.000957539
0.00121671
0.00246324
0.000295615
0.000595715
0.000715127
0.000751627
0.00104262
0.00160942
0.0021006
0.00212847
0.00192844
0.00147656
0.000789408
0.00038306
0.000327837
0.000369995
0.000554504
0.000606406
0.000858739
0.0011568
0.00243903
0.000265562
0.000546976
0.000727686
0.000864641
0.00107312
0.00153155
0.00201288
0.00198796
0.00172099
0.00123022
0.000635975
0.000290864
0.000212302
0.000264007
0.000387274
0.000513722
0.000760136
0.00112366
0.00253044
0.000218412
0.000533254
0.000812308
0.00100623
0.00118728
0.00152079
0.00182705
0.00182703
0.00159005
0.00110828
0.000597307
0.000307657
0.000212302
0.000295973
0.000428861
0.000447909
0.000791898
0.00123562
0.00265323
0.000332652
0.000673558
0.000903494
0.00108342
0.00124833
0.00143653
0.00169758
0.00179474
0.00152258
0.00116039
0.000759117
0.000419855
0.000256487
0.000404938
0.000591347
0.000447909
0.000690092
0.00128054
0.00294668
)
;

boundaryField
{
    leftWall
    {
        type            calculated;
        value           uniform 0;
    }
    rightWall
    {
        type            calculated;
        value           uniform 0;
    }
    lowerWall
    {
        type            calculated;
        value           uniform 0;
    }
    atmosphere
    {
        type            calculated;
        value           uniform 0;
    }
    defaultFaces
    {
        type            empty;
    }
}


// ************************************************************************* //
