/*--------------------------------*- C++ -*----------------------------------*\
| =========                 |                                                 |
| \\      /  F ield         | OpenFOAM: The Open Source CFD Toolbox           |
|  \\    /   O peration     | Version:  2012                                  |
|   \\  /    A nd           | Website:  www.openfoam.com                      |
|    \\/     M anipulation  |                                                 |
\*---------------------------------------------------------------------------*/
FoamFile
{
    version     2.0;
    format      ascii;
    class       surfaceScalarField;
    location    "0.43";
    object      phi;
}
// * * * * * * * * * * * * * * * * * * * * * * * * * * * * * * * * * * * * * //

dimensions      [0 3 -1 0 0 0 0];
oriented        oriented;


internalField   nonuniform List<scalar> 
4432
(
3.08891e-06
-3.08891e-06
6.20474e-06
-3.11583e-06
9.12403e-06
-2.91929e-06
1.20147e-05
-2.89066e-06
1.49478e-05
-2.93309e-06
1.7836e-05
-2.88824e-06
2.03208e-05
-2.48481e-06
2.27514e-05
-2.43051e-06
2.49468e-05
-2.19543e-06
2.67229e-05
-1.77613e-06
2.83743e-05
-1.6514e-06
2.97332e-05
-1.35885e-06
3.06324e-05
-8.99187e-07
3.08851e-05
-2.52723e-07
3.06102e-05
2.74969e-07
2.98318e-05
7.78343e-07
2.84291e-05
1.40275e-06
2.62927e-05
2.1364e-06
2.32778e-05
3.01497e-06
1.91194e-05
4.15841e-06
1.41143e-05
5.00509e-06
8.0129e-06
6.10145e-06
8.01324e-06
3.08019e-06
-6.1691e-06
6.20438e-06
-6.24002e-06
9.146e-06
-5.8609e-06
1.20454e-05
-5.79009e-06
1.4973e-05
-5.86065e-06
1.78529e-05
-5.76818e-06
2.0351e-05
-4.98287e-06
2.28046e-05
-4.88409e-06
2.50051e-05
-4.39595e-06
2.67823e-05
-3.5533e-06
2.84963e-05
-3.36543e-06
2.98104e-05
-2.67293e-06
3.06525e-05
-1.74129e-06
3.10186e-05
-6.18794e-07
3.08226e-05
4.70941e-07
3.00336e-05
1.56739e-06
2.85515e-05
2.8849e-06
2.62646e-05
4.42332e-06
2.30689e-05
6.21061e-06
1.86533e-05
8.57403e-06
1.31278e-05
1.05306e-05
6.29556e-06
1.29338e-05
1.43091e-05
3.07488e-06
-9.24397e-06
6.21987e-06
-9.385e-06
9.19355e-06
-8.83459e-06
1.21068e-05
-8.70334e-06
1.50284e-05
-8.78222e-06
1.78944e-05
-8.63421e-06
2.0421e-05
-7.50947e-06
2.29212e-05
-7.38428e-06
2.51308e-05
-6.6055e-06
2.69611e-05
-5.38358e-06
2.8694e-05
-5.09838e-06
2.99741e-05
-3.95304e-06
3.08215e-05
-2.58863e-06
3.13043e-05
-1.10159e-06
3.12465e-05
5.28696e-07
3.05173e-05
2.29668e-06
2.91264e-05
4.27578e-06
2.70699e-05
6.47983e-06
2.42357e-05
9.04481e-06
2.02423e-05
1.25675e-05
1.50704e-05
1.57026e-05
7.90268e-06
2.01015e-05
2.2212e-05
3.07458e-06
-1.23186e-05
6.24488e-06
-1.25553e-05
9.2496e-06
-1.18393e-05
1.2183e-05
-1.16367e-05
1.50997e-05
-1.16989e-05
1.79459e-05
-1.14805e-05
2.05101e-05
-1.00736e-05
2.30629e-05
-9.93714e-06
2.5283e-05
-8.82559e-06
2.71876e-05
-7.28816e-06
2.8929e-05
-6.83983e-06
3.01926e-05
-5.21661e-06
3.11096e-05
-3.50561e-06
3.16172e-05
-1.60913e-06
3.15927e-05
5.53153e-07
3.08727e-05
3.01669e-06
2.94118e-05
5.73672e-06
2.71762e-05
8.71546e-06
2.41836e-05
1.20374e-05
2.00664e-05
1.66847e-05
1.48607e-05
2.09083e-05
7.64642e-06
2.73158e-05
2.98584e-05
3.08267e-06
-1.54012e-05
6.28891e-06
-1.57615e-05
9.32526e-06
-1.48757e-05
1.2288e-05
-1.45995e-05
1.5216e-05
-1.46269e-05
1.8052e-05
-1.43165e-05
2.06696e-05
-1.26912e-05
2.32794e-05
-1.25469e-05
2.55085e-05
-1.10547e-05
2.75137e-05
-9.29328e-06
2.92817e-05
-8.60788e-06
3.05672e-05
-6.5021e-06
3.15591e-05
-4.49749e-06
3.21117e-05
-2.1617e-06
3.21706e-05
4.94195e-07
3.16255e-05
3.5618e-06
3.04164e-05
6.94584e-06
2.8504e-05
1.06279e-05
2.5873e-05
1.46685e-05
2.2135e-05
2.04228e-05
1.72092e-05
2.58341e-05
9.73934e-06
3.47857e-05
3.95978e-05
3.10228e-06
-1.85035e-05
6.323e-06
-1.89823e-05
9.39413e-06
-1.79468e-05
1.23974e-05
-1.76028e-05
1.5342e-05
-1.75715e-05
1.8179e-05
-1.71534e-05
2.08593e-05
-1.53715e-05
2.34993e-05
-1.51869e-05
2.57371e-05
-1.32926e-05
2.78538e-05
-1.141e-05
2.96769e-05
-1.0431e-05
3.0965e-05
-7.79019e-06
3.20428e-05
-5.57523e-06
3.26531e-05
-2.77199e-06
3.27452e-05
4.02135e-07
3.22269e-05
4.08009e-06
3.10513e-05
8.12147e-06
2.90854e-05
1.25937e-05
2.6356e-05
1.73979e-05
2.24279e-05
2.4351e-05
1.74349e-05
3.08271e-05
9.67351e-06
4.25471e-05
4.92715e-05
3.14058e-06
-2.16441e-05
6.35632e-06
-2.2198e-05
9.48404e-06
-2.10745e-05
1.25425e-05
-2.06612e-05
1.55176e-05
-2.05466e-05
1.8377e-05
-2.00128e-05
2.11348e-05
-1.81293e-05
2.37977e-05
-1.78498e-05
2.60683e-05
-1.55632e-05
2.83378e-05
-1.36794e-05
3.02096e-05
-1.23029e-05
3.15763e-05
-9.15683e-06
3.2726e-05
-6.72493e-06
3.33689e-05
-3.41493e-06
3.35153e-05
2.55738e-07
3.31666e-05
4.42879e-06
3.22569e-05
9.03126e-06
3.07014e-05
1.41493e-05
2.85107e-05
1.95886e-05
2.51599e-05
2.77018e-05
2.0751e-05
3.5236e-05
1.28441e-05
5.0454e-05
6.21164e-05
3.18854e-06
-2.48326e-05
6.38256e-06
-2.5392e-05
9.56401e-06
-2.4256e-05
1.26859e-05
-2.37831e-05
1.56944e-05
-2.3555e-05
1.85844e-05
-2.29028e-05
2.14157e-05
-2.09605e-05
2.409e-05
-2.05241e-05
2.64319e-05
-1.79051e-05
2.88435e-05
-1.60911e-05
3.07386e-05
-1.4198e-05
3.22006e-05
-1.06188e-05
3.34443e-05
-7.96858e-06
3.41446e-05
-4.1152e-06
3.43905e-05
9.83071e-09
3.41136e-05
4.70572e-06
3.33254e-05
9.81948e-06
3.17908e-05
1.56838e-05
2.97018e-05
2.16776e-05
2.62747e-05
3.11289e-05
2.18311e-05
3.96797e-05
1.38184e-05
5.84668e-05
7.59355e-05
-3.45101e-06
5.47574e-06
-6.58378e-06
5.15737e-06
-4.29878e-06
-2.60276e-07
-4.81511e-06
2.54077e-06
-5.90241e-06
3.11168e-06
-1.04804e-05
6.60211e-06
-1.56617e-05
7.20518e-06
-2.46035e-05
1.09656e-05
-3.55304e-05
1.29506e-05
-5.18283e-05
1.83214e-05
-7.37043e-05
2.38996e-05
-0.000109683
3.80012e-05
-0.000163161
5.54982e-05
-0.000223653
6.25178e-05
-0.000257932
3.63035e-05
-0.000256298
3.90341e-07
-0.000197108
-5.71594e-05
-0.000127257
-6.7824e-05
-0.000125233
-3.84515e-06
1.13456e-05
-7.27485e-06
1.06117e-05
-4.82524e-06
-6.85195e-07
-4.42523e-06
4.16518e-06
-5.43443e-06
6.14521e-06
-1.02649e-05
1.34566e-05
-1.54545e-05
1.44187e-05
-2.44567e-05
2.19915e-05
-3.52849e-05
2.58023e-05
-5.13886e-05
3.64486e-05
-7.28407e-05
4.73753e-05
-0.000108753
7.5936e-05
-0.000157088
0.000105853
-0.000206751
0.000114209
-0.000231154
6.27321e-05
-0.000216238
-1.24982e-05
-0.000160389
-0.000110977
-0.000112826
-0.000113349
-0.000236024
-6.24517e-06
1.96153e-05
-9.51599e-06
1.59069e-05
-5.19668e-06
-2.97991e-06
-4.00361e-06
4.99643e-06
-4.72736e-06
8.89319e-06
-9.20627e-06
1.99594e-05
-1.42466e-05
2.14829e-05
-2.26328e-05
3.24013e-05
-3.28842e-05
3.80772e-05
-4.8152e-05
5.37399e-05
-6.84962e-05
6.9743e-05
-0.000100262
0.000109724
-0.000138273
0.000145886
-0.000179047
0.000157011
-0.000197479
8.31932e-05
-0.000179514
-2.84346e-05
-0.000128026
-0.000160458
-8.54008e-05
-0.000153951
-0.000319444
-6.12735e-06
2.77671e-05
-8.48974e-06
2.02936e-05
-4.01187e-06
-5.43326e-06
-2.40318e-06
5.41194e-06
-3.3661e-06
1.18802e-05
-8.35316e-06
2.69703e-05
-1.34158e-05
2.85692e-05
-2.15966e-05
4.26055e-05
-3.07791e-05
4.9283e-05
-4.40846e-05
6.90687e-05
-6.07021e-05
8.8384e-05
-8.61341e-05
0.000137179
-0.000114179
0.000175954
-0.000146014
0.000190874
-0.000162253
0.000101468
-0.000149678
-3.89907e-05
-0.000109301
-0.000198833
-6.70966e-05
-0.000194141
-0.000384481
-9.72061e-06
3.9512e-05
-1.40741e-05
2.66711e-05
-5.97594e-06
-1.15071e-05
-1.36204e-06
2.82203e-06
-1.76725e-06
1.43094e-05
-6.40482e-06
3.36314e-05
-1.13156e-05
3.55035e-05
-1.87874e-05
5.21006e-05
-2.6915e-05
5.94339e-05
-3.84412e-05
8.2618e-05
-5.1523e-05
0.000103489
-7.05634e-05
0.000158242
-8.78359e-05
0.000195249
-0.00010956
0.000214626
-0.000123493
0.000117433
-0.000112996
-4.74708e-05
-8.99535e-05
-0.000219872
-4.62139e-05
-0.000235846
-0.000428559
-1.04866e-05
5.20225e-05
-1.29925e-05
3.12008e-05
-3.89662e-06
-1.85789e-05
1.66901e-06
-7.1978e-07
8.91255e-07
1.71109e-05
-4.97829e-06
4.15243e-05
-1.01758e-05
4.27243e-05
-1.72856e-05
6.12334e-05
-2.45079e-05
6.86791e-05
-3.37444e-05
9.38775e-05
-4.27489e-05
0.000114517
-5.41758e-05
0.000171691
-6.21613e-05
0.000205257
-7.34623e-05
0.000227954
-8.44773e-05
0.000130478
-7.88124e-05
-5.11176e-05
-6.62721e-05
-0.000230403
-2.15533e-05
-0.000278477
-0.00044772
-1.7233e-05
7.12784e-05
-2.29502e-05
3.89371e-05
-6.95465e-06
-3.2552e-05
4.20992e-06
-9.86091e-06
3.35196e-06
1.99923e-05
-2.37172e-06
4.92711e-05
-7.47092e-06
4.98465e-05
-1.40732e-05
6.98586e-05
-2.01576e-05
7.67863e-05
-2.71914e-05
0.000102934
-3.29116e-05
0.00012226
-3.75143e-05
0.000178317
-3.80943e-05
0.00020786
-3.93553e-05
0.000231241
-4.67617e-05
0.000139911
-4.50154e-05
-5.08434e-05
-3.1767e-05
-0.00024164
-2.61374e-06
-0.000305514
-0.000447402
-1.09963e-05
8.41393e-05
-1.12507e-05
4.1203e-05
1.87688e-07
-4.1947e-05
8.68414e-06
-1.63331e-05
7.72684e-06
2.29727e-05
-9.65818e-08
5.91172e-05
-6.46507e-06
5.82377e-05
-1.2585e-05
7.80009e-05
-1.76233e-05
8.38471e-05
-2.21849e-05
0.000109518
-2.46672e-05
0.000126765
-2.41213e-05
0.000179794
-1.864e-05
0.000204405
-8.71332e-06
0.00022334
-9.26695e-06
0.000142491
-1.42743e-05
-4.38109e-05
-1.24185e-05
-0.000241483
2.25749e-06
-0.000318143
-0.000443046
6.97054e-06
-3.18032e-05
1.37998e-05
-3.22213e-05
2.07307e-05
-3.11868e-05
2.75919e-05
-3.06443e-05
3.4147e-05
-3.01102e-05
4.04491e-05
-2.92048e-05
4.67245e-05
-2.72359e-05
5.25548e-05
-2.63544e-05
5.79322e-05
-2.32825e-05
6.33695e-05
-2.15283e-05
6.74399e-05
-1.82685e-05
7.12432e-05
-1.4422e-05
7.41636e-05
-1.0889e-05
7.58954e-05
-5.847e-06
7.65305e-05
-6.25211e-07
7.64081e-05
4.82811e-06
7.5231e-05
1.09966e-05
7.43291e-05
1.65858e-05
7.28915e-05
2.31152e-05
7.28036e-05
3.12169e-05
7.228e-05
4.02033e-05
7.56754e-05
5.50716e-05
7.55106e-05
7.61028e-05
7.19158e-06
-3.89946e-05
1.40723e-05
-3.91019e-05
2.11781e-05
-3.82925e-05
2.82807e-05
-3.77467e-05
3.50568e-05
-3.68861e-05
4.16037e-05
-3.57515e-05
4.81725e-05
-3.38043e-05
5.42706e-05
-3.24519e-05
6.01636e-05
-2.9175e-05
6.56913e-05
-2.70554e-05
7.02295e-05
-2.28059e-05
7.49059e-05
-1.90978e-05
7.81984e-05
-1.4181e-05
8.07564e-05
-8.40463e-06
8.22308e-05
-2.09938e-06
8.26311e-05
4.42781e-06
8.15058e-05
1.21219e-05
7.9534e-05
1.85576e-05
7.7122e-05
2.55273e-05
7.64207e-05
3.19182e-05
7.65146e-05
4.01095e-05
8.19782e-05
4.96081e-05
6.46449e-05
9.28456e-05
7.46415e-06
-4.65612e-05
1.44278e-05
-4.61664e-05
2.17509e-05
-4.57159e-05
2.91379e-05
-4.52318e-05
3.6173e-05
-4.40164e-05
4.30436e-05
-4.27145e-05
4.99529e-05
-4.0803e-05
5.64254e-05
-3.90076e-05
6.27519e-05
-3.55805e-05
6.85999e-05
-3.29736e-05
7.40362e-05
-2.83041e-05
7.91063e-05
-2.4217e-05
8.27272e-05
-1.78346e-05
8.63148e-05
-1.20104e-05
8.80184e-05
-3.80861e-06
8.84522e-05
3.99531e-06
8.72292e-05
1.33457e-05
8.60648e-05
1.99995e-05
8.61043e-05
2.54879e-05
8.81467e-05
2.98757e-05
8.9538e-05
3.87182e-05
9.40716e-05
4.50745e-05
5.55287e-05
0.000103188
6.37168e-06
-5.29128e-05
1.20735e-05
-5.18481e-05
1.82056e-05
-5.18279e-05
2.43778e-05
-5.13837e-05
3.00171e-05
-4.96352e-05
3.56958e-05
-4.83724e-05
4.11978e-05
-4.6284e-05
4.62242e-05
-4.40128e-05
5.16613e-05
-4.09959e-05
5.70063e-05
-3.82966e-05
6.41737e-05
-3.54492e-05
7.24473e-05
-3.24667e-05
7.99413e-05
-2.53167e-05
8.62106e-05
-1.82771e-05
8.9996e-05
-7.59223e-06
9.33264e-05
6.78457e-07
9.27328e-05
1.3936e-05
9.07269e-05
2.19597e-05
9.0043e-05
2.61464e-05
9.34186e-05
3.51863e-05
9.23375e-05
3.97994e-05
9.52641e-05
4.2148e-05
4.76039e-05
0.000103189
1.65558e-06
-5.45456e-05
3.49216e-06
-5.36619e-05
5.10575e-06
-5.34186e-05
6.8228e-06
-5.30778e-05
8.55938e-06
-5.13486e-05
1.02702e-05
-5.006e-05
1.17866e-05
-4.77769e-05
1.34381e-05
-4.56404e-05
1.51376e-05
-4.26714e-05
1.80645e-05
-4.11989e-05
2.17641e-05
-3.9124e-05
2.76908e-05
-3.83681e-05
3.40887e-05
-3.16887e-05
4.38682e-05
-2.80308e-05
5.01247e-05
-1.38223e-05
6.26893e-05
-1.18506e-05
7.86302e-05
-1.9354e-06
8.27906e-05
1.79094e-05
8.83322e-05
2.07336e-05
9.18601e-05
3.17391e-05
9.48667e-05
3.67743e-05
9.81524e-05
3.88529e-05
4.83372e-05
0.000105481
1.464e-07
-5.46691e-05
8.85706e-07
-5.43782e-05
1.09318e-06
-5.36031e-05
1.30431e-06
-5.32658e-05
1.74802e-06
-5.17691e-05
1.96433e-06
-5.0253e-05
2.24782e-06
-4.80368e-05
2.8064e-06
-4.61753e-05
3.69797e-06
-4.3539e-05
5.37069e-06
-4.28475e-05
7.96799e-06
-4.16968e-05
1.13882e-05
-4.17638e-05
1.65981e-05
-3.68732e-05
2.34629e-05
-3.48697e-05
3.2525e-05
-2.28579e-05
4.304e-05
-2.23385e-05
5.70895e-05
-1.59571e-05
7.11384e-05
3.8916e-06
7.94215e-05
1.2498e-05
8.38029e-05
2.74444e-05
8.71721e-05
3.35681e-05
9.51769e-05
3.10275e-05
4.08398e-05
0.00010272
5.48624e-07
-5.51948e-05
1.16137e-06
-5.49681e-05
1.64338e-06
-5.40621e-05
2.03336e-06
-5.36327e-05
2.42375e-06
-5.21363e-05
2.99231e-06
-5.07982e-05
3.69131e-06
-4.87123e-05
5.01083e-06
-4.74711e-05
6.75696e-06
-4.52612e-05
9.05491e-06
-4.51212e-05
1.22034e-05
-4.48207e-05
1.55079e-05
-4.50434e-05
1.98941e-05
-4.1234e-05
2.41718e-05
-3.91217e-05
3.34702e-05
-3.213e-05
3.99249e-05
-2.87663e-05
4.7089e-05
-2.30938e-05
6.23076e-05
-1.12987e-05
7.59885e-05
-1.15354e-06
8.51832e-05
1.82805e-05
8.42383e-05
3.45491e-05
8.68273e-05
2.85038e-05
3.14559e-05
9.63374e-05
6.19159e-07
-5.57913e-05
1.16198e-06
-5.54882e-05
1.84236e-06
-5.47197e-05
2.42515e-06
-5.41926e-05
3.25055e-06
-5.29387e-05
4.28633e-06
-5.18108e-05
5.48042e-06
-4.9883e-05
7.01293e-06
-4.898e-05
8.60691e-06
-4.68313e-05
9.90903e-06
-4.63992e-05
1.10719e-05
-4.59591e-05
1.18963e-05
-4.5843e-05
1.30408e-05
-4.23532e-05
1.50787e-05
-4.11338e-05
1.85609e-05
-3.55859e-05
2.30616e-05
-3.32401e-05
2.97123e-05
-2.9717e-05
3.99408e-05
-2.1499e-05
5.49481e-05
-1.61319e-05
7.64331e-05
-3.17486e-06
9.45745e-05
1.64386e-05
0.000100278
2.28325e-05
3.31202e-05
9.8649e-05
8.91201e-07
-5.66599e-05
1.73036e-06
-5.63047e-05
2.8171e-06
-5.57837e-05
3.91605e-06
-5.52688e-05
5.15841e-06
-5.41581e-05
6.65137e-06
-5.32807e-05
8.25104e-06
-5.14595e-05
9.93389e-06
-5.06395e-05
1.16579e-05
-4.85317e-05
1.28449e-05
-4.75622e-05
1.36315e-05
-4.67215e-05
1.39283e-05
-4.61151e-05
1.49861e-05
-4.3386e-05
1.56619e-05
-4.17841e-05
1.79528e-05
-3.78508e-05
2.0056e-05
-3.53167e-05
2.18947e-05
-3.15286e-05
2.67777e-05
-2.63541e-05
3.31964e-05
-2.25219e-05
4.70787e-05
-1.70276e-05
7.14182e-05
-7.87051e-06
9.26296e-05
1.65242e-06
2.11412e-05
0.000104641
1.10827e-06
-5.77459e-05
2.29152e-06
-5.74656e-05
3.54698e-06
-5.70168e-05
4.84978e-06
-5.65491e-05
6.17239e-06
-5.54581e-05
7.67506e-06
-5.47606e-05
9.24504e-06
-5.30065e-05
1.08661e-05
-5.22373e-05
1.24823e-05
-5.01245e-05
1.36831e-05
-4.87392e-05
1.42353e-05
-4.72496e-05
1.45359e-05
-4.63914e-05
1.50755e-05
-4.39007e-05
1.5972e-05
-4.26553e-05
1.75527e-05
-3.94057e-05
1.91647e-05
-3.69024e-05
2.12121e-05
-3.3549e-05
2.39987e-05
-2.91131e-05
2.72666e-05
-2.57615e-05
3.15985e-05
-2.13304e-05
3.94577e-05
-1.56996e-05
5.40858e-05
-1.29448e-05
-1.62814e-07
7.54218e-05
1.46803e-06
-5.91918e-05
2.99768e-06
-5.89731e-05
4.55236e-06
-5.85493e-05
6.13636e-06
-5.81108e-05
7.7458e-06
-5.70452e-05
9.47363e-06
-5.64659e-05
1.13179e-05
-5.48281e-05
1.31333e-05
-5.40298e-05
1.51973e-05
-5.21654e-05
1.706e-05
-5.05785e-05
1.86525e-05
-4.88183e-05
1.98654e-05
-4.75803e-05
2.12673e-05
-4.52781e-05
2.24893e-05
-4.38524e-05
2.39887e-05
-4.08797e-05
2.55931e-05
-3.84808e-05
2.67853e-05
-3.47146e-05
2.83096e-05
-3.06102e-05
2.92644e-05
-2.66884e-05
3.06139e-05
-2.26512e-05
3.26823e-05
-1.77384e-05
3.43041e-05
-1.45362e-05
-5.69701e-06
3.98697e-05
1.56158e-06
-6.07317e-05
3.15097e-06
-6.05407e-05
4.75797e-06
-6.01345e-05
6.40891e-06
-5.97399e-05
8.1067e-06
-5.8721e-05
9.89401e-06
-5.82311e-05
1.17992e-05
-5.67109e-05
1.37342e-05
-5.59423e-05
1.58688e-05
-5.42772e-05
1.8187e-05
-5.28735e-05
2.04018e-05
-5.10097e-05
2.24979e-05
-4.96526e-05
2.45351e-05
-4.72912e-05
2.63632e-05
-4.56558e-05
2.82747e-05
-4.27661e-05
3.00166e-05
-4.01971e-05
3.19731e-05
-3.66449e-05
3.40414e-05
-3.26517e-05
3.61904e-05
-2.881e-05
3.78624e-05
-2.4295e-05
3.90616e-05
-1.89086e-05
3.95011e-05
-1.4946e-05
-6.77437e-06
4.06092e-05
1.87925e-06
-6.25895e-05
3.77019e-06
-6.24102e-05
5.65394e-06
-6.19967e-05
7.59106e-06
-6.16554e-05
9.56993e-06
-6.06781e-05
1.15943e-05
-6.02336e-05
1.37073e-05
-5.88019e-05
1.57938e-05
-5.80065e-05
1.80584e-05
-5.65194e-05
2.03784e-05
-5.51708e-05
2.28157e-05
-5.34239e-05
2.50919e-05
-5.19055e-05
2.74234e-05
-4.95989e-05
2.96039e-05
-4.78122e-05
3.18265e-05
-4.49641e-05
3.40945e-05
-4.24399e-05
3.62843e-05
-3.88091e-05
3.88323e-05
-3.51735e-05
4.12876e-05
-3.12383e-05
4.35105e-05
-2.64902e-05
4.61371e-05
-2.15068e-05
4.79702e-05
-1.67499e-05
-8.98344e-06
5.02094e-05
1.99973e-06
-6.45682e-05
4.02326e-06
-6.44127e-05
6.07108e-06
-6.40234e-05
8.16183e-06
-6.3725e-05
1.02903e-05
-6.27853e-05
1.24532e-05
-6.23751e-05
1.46926e-05
-6.10197e-05
1.69017e-05
-6.01939e-05
1.91676e-05
-5.87632e-05
2.14713e-05
-5.74522e-05
2.37941e-05
-5.5724e-05
2.6158e-05
-5.42465e-05
2.85681e-05
-5.19857e-05
3.08935e-05
-5.01138e-05
3.33039e-05
-4.73503e-05
3.56736e-05
-4.4785e-05
3.82631e-05
-4.13733e-05
4.10581e-05
-3.79427e-05
4.39517e-05
-3.41055e-05
4.699e-05
-2.95015e-05
5.04778e-05
-2.49669e-05
5.35802e-05
-1.98238e-05
-1.29602e-05
5.75862e-05
2.22088e-06
-6.67685e-05
4.46674e-06
-6.6638e-05
6.75217e-06
-6.62882e-05
9.06385e-06
-6.60159e-05
1.14139e-05
-6.51145e-05
1.37595e-05
-6.46997e-05
1.61992e-05
-6.34383e-05
1.86224e-05
-6.25957e-05
2.11384e-05
-6.12577e-05
2.36796e-05
-5.99714e-05
2.63027e-05
-5.83251e-05
2.88709e-05
-5.67922e-05
3.15536e-05
-5.46457e-05
3.42369e-05
-5.27739e-05
3.70182e-05
-5.0108e-05
3.99237e-05
-4.76664e-05
4.29663e-05
-4.43913e-05
4.62529e-05
-4.12042e-05
4.96213e-05
-3.74481e-05
5.31922e-05
-3.30461e-05
5.69646e-05
-2.87122e-05
6.04035e-05
-2.32349e-05
-1.69651e-05
6.44369e-05
2.36957e-06
-6.91179e-05
4.76304e-06
-6.90113e-05
7.13815e-06
-6.86431e-05
9.54318e-06
-6.84006e-05
1.19627e-05
-6.75136e-05
1.43785e-05
-6.7095e-05
1.6854e-05
-6.58931e-05
1.93259e-05
-6.50468e-05
2.18543e-05
-6.37649e-05
2.44294e-05
-6.25253e-05
2.70726e-05
-6.09466e-05
2.97571e-05
-5.94548e-05
3.25505e-05
-5.74168e-05
3.53988e-05
-5.55994e-05
3.84402e-05
-5.31264e-05
4.16029e-05
-5.08056e-05
4.50416e-05
-4.7806e-05
4.87071e-05
-4.48453e-05
5.2603e-05
-4.13189e-05
5.69069e-05
-3.73245e-05
6.14849e-05
-3.32639e-05
6.61246e-05
-2.78478e-05
-2.21205e-05
7.13076e-05
2.60009e-06
-7.16984e-05
5.21305e-06
-7.16045e-05
7.81116e-06
-7.12215e-05
1.04261e-05
-7.09958e-05
1.30761e-05
-7.01437e-05
1.57247e-05
-6.97235e-05
1.84597e-05
-6.8608e-05
2.12042e-05
-6.77709e-05
2.4007e-05
-6.65472e-05
2.68306e-05
-6.5328e-05
2.97482e-05
-6.38431e-05
3.27107e-05
-6.2396e-05
3.58179e-05
-6.05022e-05
3.90149e-05
-5.87744e-05
4.23915e-05
-5.64806e-05
4.59376e-05
-5.43289e-05
4.97198e-05
-5.15649e-05
5.37398e-05
-4.88416e-05
5.80128e-05
-4.55676e-05
6.26593e-05
-4.19461e-05
6.75277e-05
-3.81068e-05
7.27146e-05
-3.30087e-05
-2.78759e-05
7.84968e-05
2.65566e-06
-7.43349e-05
5.31983e-06
-7.42495e-05
7.97888e-06
-7.38613e-05
1.06455e-05
-7.36431e-05
1.33377e-05
-7.28165e-05
1.60217e-05
-7.2388e-05
1.87655e-05
-7.13322e-05
2.15343e-05
-7.05199e-05
2.43705e-05
-6.93633e-05
2.72675e-05
-6.82048e-05
3.02643e-05
-6.68194e-05
3.33422e-05
-6.54531e-05
3.65729e-05
-6.37118e-05
3.99233e-05
-6.21034e-05
4.35081e-05
-6.00436e-05
4.73025e-05
-5.8101e-05
5.14287e-05
-5.56686e-05
5.58642e-05
-5.3254e-05
6.06836e-05
-5.03634e-05
6.59994e-05
-4.72379e-05
7.16822e-05
-4.3765e-05
7.7991e-05
-3.92924e-05
-3.49378e-05
8.50787e-05
2.94158e-06
-7.72579e-05
5.89131e-06
-7.71807e-05
8.81771e-06
-7.67691e-05
1.17417e-05
-7.65484e-05
1.46813e-05
-7.57374e-05
1.76018e-05
-7.52895e-05
2.05643e-05
-7.42757e-05
2.35341e-05
-7.34704e-05
2.65615e-05
-7.23713e-05
2.96371e-05
-7.12607e-05
3.28125e-05
-6.99749e-05
3.60647e-05
-6.86852e-05
3.94757e-05
-6.71023e-05
4.30227e-05
-6.56297e-05
4.6799e-05
-6.37988e-05
5.08048e-05
-6.20854e-05
5.51326e-05
-5.99745e-05
5.98017e-05
-5.79009e-05
6.48977e-05
-5.54367e-05
7.05204e-05
-5.28373e-05
7.66145e-05
-4.98353e-05
8.35376e-05
-4.61913e-05
-4.27421e-05
9.13668e-05
3.00025e-06
-8.02402e-05
6.00336e-06
-8.01657e-05
8.97815e-06
-7.97258e-05
1.19384e-05
-7.94905e-05
1.49114e-05
-7.86922e-05
1.78675e-05
-7.82273e-05
2.08653e-05
-7.7255e-05
2.38797e-05
-7.64662e-05
2.69552e-05
-7.54281e-05
3.00871e-05
-7.43736e-05
3.33211e-05
-7.31897e-05
3.66445e-05
-7.19891e-05
4.01475e-05
-7.05856e-05
4.3814e-05
-6.92762e-05
4.77494e-05
-6.77138e-05
5.19537e-05
-6.62689e-05
5.65367e-05
-6.45364e-05
6.15406e-05
-6.28833e-05
6.70338e-05
-6.0908e-05
7.31548e-05
-5.89359e-05
7.9875e-05
-5.65328e-05
8.75933e-05
-5.38862e-05
-5.14048e-05
9.62799e-05
3.23631e-06
-8.34591e-05
6.47231e-06
-8.33843e-05
9.68788e-06
-8.29239e-05
1.288e-05
-8.2665e-05
1.60861e-05
-8.18808e-05
1.92573e-05
-8.13808e-05
2.2456e-05
-8.04358e-05
2.56453e-05
-7.96375e-05
2.88934e-05
-7.86581e-05
3.21664e-05
-7.76282e-05
3.55349e-05
-7.65397e-05
3.89551e-05
-7.53906e-05
4.25359e-05
-7.41474e-05
4.62447e-05
-7.29656e-05
5.01796e-05
-7.16291e-05
5.43751e-05
-7.04445e-05
5.89175e-05
-6.90586e-05
6.39334e-05
-6.78786e-05
6.94678e-05
-6.64214e-05
7.57667e-05
-6.52133e-05
8.28195e-05
-6.35637e-05
9.09866e-05
-6.20309e-05
-6.06819e-05
0.000100286
3.28508e-06
-8.67274e-05
6.57425e-06
-8.66567e-05
9.84924e-06
-8.61821e-05
1.31057e-05
-8.59046e-05
1.63914e-05
-8.51496e-05
1.96429e-05
-8.46152e-05
2.2933e-05
-8.37087e-05
2.62072e-05
-8.28944e-05
2.95481e-05
-8.19816e-05
3.28984e-05
-8.09608e-05
3.63525e-05
-7.99759e-05
3.98423e-05
-7.88623e-05
4.34868e-05
-7.77735e-05
4.72483e-05
-7.67086e-05
5.12038e-05
-7.55657e-05
5.54311e-05
-7.46527e-05
5.9967e-05
-7.35749e-05
6.50248e-05
-7.29166e-05
7.06125e-05
-7.19889e-05
7.70471e-05
-7.16274e-05
8.43563e-05
-7.08519e-05
9.28502e-05
-7.05034e-05
-7.05473e-05
0.000102737
3.42492e-06
-9.01362e-05
6.85259e-06
-9.00683e-05
1.02766e-05
-8.95899e-05
1.36813e-05
-8.92931e-05
1.71272e-05
-8.85792e-05
2.05394e-05
-8.8011e-05
2.39969e-05
-8.71498e-05
2.7425e-05
-8.63058e-05
3.09086e-05
-8.54485e-05
3.43618e-05
-8.4397e-05
3.78994e-05
-8.34964e-05
4.14294e-05
-8.23751e-05
4.50711e-05
-8.13976e-05
4.8798e-05
-8.04178e-05
5.26379e-05
-7.93876e-05
5.67394e-05
-7.87359e-05
6.10674e-05
-7.78843e-05
6.59147e-05
-7.7745e-05
7.12815e-05
-7.73363e-05
7.74796e-05
-7.78059e-05
8.4679e-05
-7.80313e-05
9.31086e-05
-7.89126e-05
-8.0595e-05
0.000103177
3.40163e-06
-9.35224e-05
6.80232e-06
-9.34535e-05
1.02348e-05
-9.30069e-05
1.3666e-05
-9.27088e-05
1.71655e-05
-9.20631e-05
2.06593e-05
-9.1489e-05
2.42238e-05
-9.06985e-05
2.77798e-05
-8.98459e-05
3.14071e-05
-8.90598e-05
3.50107e-05
-8.79843e-05
3.86983e-05
-8.71676e-05
4.23678e-05
-8.60281e-05
4.61221e-05
-8.51352e-05
4.99306e-05
-8.42092e-05
5.37848e-05
-8.32246e-05
5.78302e-05
-8.27638e-05
6.20443e-05
-8.20806e-05
6.66577e-05
-8.23403e-05
7.17432e-05
-8.24035e-05
7.75485e-05
-8.35925e-05
8.43471e-05
-8.48109e-05
9.23409e-05
-8.68869e-05
-9.01881e-05
0.000101954
3.34901e-06
-9.68568e-05
6.68159e-06
-9.67714e-05
1.00855e-05
-9.63961e-05
1.34944e-05
-9.61029e-05
1.69952e-05
-9.5549e-05
2.05312e-05
-9.50101e-05
2.41677e-05
-9.432e-05
2.77993e-05
-9.34624e-05
3.15036e-05
-9.27488e-05
3.51955e-05
-9.16608e-05
3.89747e-05
-9.09313e-05
4.2734e-05
-8.97716e-05
4.6578e-05
-8.89632e-05
5.04362e-05
-8.80512e-05
5.43353e-05
-8.71073e-05
5.83046e-05
-8.67164e-05
6.24607e-05
-8.62198e-05
6.67616e-05
-8.6624e-05
7.14752e-05
-8.70997e-05
7.664e-05
-8.87395e-05
8.26468e-05
-9.07996e-05
8.97602e-05
-9.3982e-05
-9.87607e-05
9.83515e-05
3.17157e-06
-0.000100014
6.31657e-06
-9.99025e-05
9.56501e-06
-9.96306e-05
1.28253e-05
-9.93492e-05
1.6207e-05
-9.89166e-05
1.96633e-05
-9.84522e-05
2.32766e-05
-9.7919e-05
2.69486e-05
-9.712e-05
3.07185e-05
-9.65043e-05
3.45047e-05
-9.54323e-05
3.83959e-05
-9.48077e-05
4.22747e-05
-9.36354e-05
4.62474e-05
-9.29208e-05
5.01811e-05
-9.19695e-05
5.41882e-05
-9.10989e-05
5.80989e-05
-9.06113e-05
6.21609e-05
-9.02659e-05
6.60841e-05
-9.05309e-05
7.03452e-05
-9.13443e-05
7.47315e-05
-9.3109e-05
7.98566e-05
-9.59076e-05
8.59258e-05
-0.000100034
-0.000106246
9.3429e-05
2.93695e-06
-0.000102938
5.85556e-06
-0.000102808
8.87238e-06
-0.000102634
1.19118e-05
-0.000102375
1.50804e-05
-0.000102072
1.83345e-05
-0.000101693
2.17664e-05
-0.000101337
2.53414e-05
-0.000100681
2.90938e-05
-0.000100243
3.2926e-05
-9.92508e-05
3.68998e-05
-9.87676e-05
4.08918e-05
-9.76133e-05
4.50123e-05
-9.7027e-05
4.90607e-05
-9.60033e-05
5.31911e-05
-9.52146e-05
5.70964e-05
-9.45017e-05
6.10656e-05
-9.422e-05
6.4698e-05
-9.4148e-05
6.85622e-05
-9.51929e-05
7.22505e-05
-9.67814e-05
7.64743e-05
-0.000100115
8.13002e-05
-0.000104843
-0.000112424
8.74944e-05
2.59304e-06
-0.000105519
5.18778e-06
-0.00010539
7.85764e-06
-0.000105292
1.05712e-05
-0.000105076
1.34162e-05
-0.000104904
1.63614e-05
-0.000104626
1.94822e-05
-0.000104446
2.27739e-05
-0.00010396
2.6313e-05
-0.000103769
3.00486e-05
-0.000102973
3.40222e-05
-0.000102728
3.80818e-05
-0.00010166
4.22993e-05
-0.000101231
4.64275e-05
-0.000100118
5.06488e-05
-9.94222e-05
5.46065e-05
-9.84455e-05
5.85002e-05
-9.80995e-05
6.19221e-05
-9.75555e-05
6.53359e-05
-9.8592e-05
6.82712e-05
-9.97018e-05
7.1402e-05
-0.000103231
7.47401e-05
-0.000108166
-0.000117027
7.93587e-05
2.2719e-06
-0.000107779
4.55762e-06
-0.000107664
6.89611e-06
-0.000107618
9.29082e-06
-0.000107459
1.1804e-05
-0.000107406
1.44186e-05
-0.000107228
1.7204e-05
-0.000107219
2.01659e-05
-0.00010691
2.33729e-05
-0.000106964
2.68267e-05
-0.000106415
3.05881e-05
-0.000106477
3.45462e-05
-0.000105605
3.87521e-05
-0.000105424
4.29332e-05
-0.000104286
4.7255e-05
-0.000103731
5.1344e-05
-0.000102521
5.52255e-05
-0.000101968
5.85478e-05
-0.000100864
6.15459e-05
-0.000101577
6.37943e-05
-0.000101936
6.57769e-05
-0.000105199
6.7494e-05
-0.000109869
-0.00011949
6.99724e-05
1.88305e-06
-0.000109651
3.78226e-06
-0.000109553
5.72296e-06
-0.000109548
7.71893e-06
-0.000109445
9.82073e-06
-0.000109497
1.20202e-05
-0.000109417
1.43851e-05
-0.000109573
1.6925e-05
-0.000109439
1.9697e-05
-0.000109725
2.27115e-05
-0.000109418
2.60218e-05
-0.000109776
2.95914e-05
-0.000109163
3.34977e-05
-0.000109319
3.75376e-05
-0.000108315
4.17823e-05
-0.000107964
4.5887e-05
-0.000106614
4.97667e-05
-0.000105835
5.31457e-05
-0.000104231
5.58438e-05
-0.000104262
5.75426e-05
-0.000103622
5.83694e-05
-0.000106013
5.81721e-05
-0.000109658
-0.000119069
5.77644e-05
1.54371e-06
-0.000111185
3.10316e-06
-0.000111102
4.69828e-06
-0.000111133
6.34152e-06
-0.000111078
8.08063e-06
-0.000111226
9.9092e-06
-0.000111235
1.18966e-05
-0.00011155
1.40486e-05
-0.000111581
1.64213e-05
-0.000112087
1.90325e-05
-0.000112019
2.19063e-05
-0.000112639
2.5043e-05
-0.00011229
2.84806e-05
-0.000112746
3.20963e-05
-0.000111919
3.59474e-05
-0.000111804
3.97511e-05
-0.000110407
4.34789e-05
-0.000109552
4.68289e-05
-0.000107569
4.92287e-05
-0.00010665
5.04546e-05
-0.000104836
5.0324e-05
-0.000105871
4.82458e-05
-0.000107567
-0.0001157
4.48889e-05
1.20307e-06
-0.000112379
2.41454e-06
-0.000112304
3.64979e-06
-0.000112359
4.91664e-06
-0.000112335
6.26338e-06
-0.000112563
7.67981e-06
-0.000112642
9.2368e-06
-0.000113098
1.09266e-05
-0.000113261
1.28047e-05
-0.000113956
1.48851e-05
-0.00011409
1.71948e-05
-0.000114939
1.97598e-05
-0.000114845
2.25843e-05
-0.00011556
2.56147e-05
-0.00011494
2.8901e-05
-0.00011508
3.22258e-05
-0.000113721
3.56065e-05
-0.000112922
3.86798e-05
-0.000110632
4.09363e-05
-0.000108896
4.20254e-05
-0.000105914
4.14122e-05
-0.000105246
3.83006e-05
-0.000104444
-0.000110237
3.285e-05
9.12981e-07
-0.000113284
1.82848e-06
-0.000113212
2.76255e-06
-0.000113285
3.71934e-06
-0.000113284
4.74399e-06
-0.000113579
5.82126e-06
-0.000113711
7.01836e-06
-0.000114286
8.31682e-06
-0.000114551
9.78209e-06
-0.000115413
1.14152e-05
-0.000115714
1.32487e-05
-0.000116764
1.52945e-05
-0.000116882
1.75594e-05
-0.000117816
2.00269e-05
-0.000117398
2.27093e-05
-0.000117754
2.54263e-05
-0.000116429
2.81778e-05
-0.000115664
3.05673e-05
-0.000113012
3.24317e-05
-0.000110751
3.31786e-05
-0.000106651
3.20542e-05
-0.000104112
2.83629e-05
-0.000100743
-0.000103526
2.16617e-05
6.66178e-07
-0.000113942
1.32425e-06
-0.000113862
1.98961e-06
-0.000113943
2.66261e-06
-0.000113949
3.38383e-06
-0.000114293
4.13497e-06
-0.000114455
4.97621e-06
-0.00011512
5.8872e-06
-0.000115454
6.92804e-06
-0.000116446
8.08198e-06
-0.000116861
9.38802e-06
-0.000118062
1.08414e-05
-0.000118327
1.24586e-05
-0.000119426
1.42127e-05
-0.000119144
1.61323e-05
-0.000119665
1.80915e-05
-0.00011838
2.01174e-05
-0.000117682
2.18675e-05
-0.000114754
2.32903e-05
-0.000112165
2.37163e-05
-0.000107069
2.25369e-05
-0.000102924
1.88445e-05
-9.7041e-05
-9.61859e-05
1.15141e-05
4.68093e-07
-0.000114404
9.27693e-07
-0.000114315
1.39167e-06
-0.0001144
1.85775e-06
-0.000114409
2.35993e-06
-0.000114789
2.88044e-06
-0.000114969
3.46822e-06
-0.000115701
4.09878e-06
-0.000116078
4.82396e-06
-0.000117164
5.61518e-06
-0.000117645
6.51889e-06
-0.000118959
7.50528e-06
-0.000119307
8.60598e-06
-0.000120519
9.7779e-06
-0.000120309
1.1056e-05
-0.000120936
1.2305e-05
-0.000119621
1.35565e-05
-0.000118926
1.44971e-05
-0.000115687
1.50579e-05
-0.000112718
1.45871e-05
-0.00010659
1.26467e-05
-0.000100975
8.21108e-06
-9.25972e-05
-8.78175e-05
-1.4895e-07
3.15319e-07
-0.000114714
6.22937e-07
-0.000114617
9.29122e-07
-0.000114701
1.22589e-06
-0.0001147
1.53913e-06
-0.000115096
1.8547e-06
-0.000115278
2.20541e-06
-0.000116046
2.56762e-06
-0.000116435
2.98083e-06
-0.000117572
3.41278e-06
-0.000118071
3.90616e-06
-0.000119447
4.41769e-06
-0.000119812
4.9889e-06
-0.000121084
5.55189e-06
-0.000120866
6.15147e-06
-0.000121529
6.65718e-06
-0.000120121
7.12197e-06
-0.000119384
7.28283e-06
-0.000115841
7.11344e-06
-0.000112542
6.08363e-06
-0.000105553
3.65229e-06
-9.8537e-05
-1.13992e-06
-8.7798e-05
-7.92957e-05
-9.65461e-06
1.94986e-07
-0.000114904
3.85787e-07
-0.000114803
5.78208e-07
-0.000114888
7.58253e-07
-0.000114875
9.41601e-07
-0.000115275
1.11511e-06
-0.000115447
1.30145e-06
-0.000116227
1.47874e-06
-0.000116607
1.67512e-06
-0.000117763
1.86056e-06
-0.000118251
2.0675e-06
-0.000119648
2.25063e-06
-0.00011999
2.44643e-06
-0.000121275
2.57777e-06
-0.000120992
2.68353e-06
-0.00012163
2.64043e-06
-0.000120072
2.48257e-06
-0.000119221
1.99091e-06
-0.000115344
1.10465e-06
-0.00011165
-5.98514e-07
-0.000103844
-3.57936e-06
-9.55503e-05
-8.74592e-06
-8.26255e-05