/*--------------------------------*- C++ -*----------------------------------*\
| =========                 |                                                 |
| \\      /  F ield         | OpenFOAM: The Open Source CFD Toolbox           |
|  \\    /   O peration     | Version:  2012                                  |
|   \\  /    A nd           | Website:  www.openfoam.com                      |
|    \\/     M anipulation  |                                                 |
\*---------------------------------------------------------------------------*/
FoamFile
{
    version     2.0;
    format      ascii;
    class       volScalarField;
    location    "0.43";
    object      rho;
}
// * * * * * * * * * * * * * * * * * * * * * * * * * * * * * * * * * * * * * //

dimensions      [1 -3 0 0 0 0 0];


internalField   nonuniform List<scalar> 
2268
(
1000.05
1000.05
1000.05
1000.05
1000.05
1000.05
1000.05
1000.05
1000.05
1000.05
1000.05
1000.05
1000.05
1000.05
1000.05
1000.05
1000.05
1000.05
1000.05
1000.05
1000.05
1000.05
999.554
1000.05
1000.05
1000.05
1000.05
1000.05
1000.05
1000.05
1000.05
1000.05
1000.05
1000.05
1000.05
1000.05
1000.05
1000.05
1000.05
1000.05
1000.05
1000.05
1000.05
1000.05
1000.05
999.554
1000.05
1000.05
1000.05
1000.05
1000.05
1000.05
1000.05
1000.05
1000.05
1000.05
1000.05
1000.05
1000.05
1000.05
1000.05
1000.05
1000.05
1000.05
1000.05
1000.05
1000.05
1000.05
999.853
1000.05
1000.05
1000.05
1000.05
1000.05
1000.05
1000.05
1000.05
1000.05
1000.05
1000.05
1000.05
1000.05
1000.05
1000.05
1000.05
1000.05
1000.05
1000.05
1000.05
1000.05
1000.05
1000.05
1000.05
1000.05
1000.05
1000.05
1000.05
1000.05
1000.05
1000.05
1000.05
1000.05
1000.05
1000.05
1000.05
1000.05
1000.05
1000.05
1000.05
1000.05
1000.05
1000.05
1000.05
1000.05
1000.05
1000.05
1000.05
1000.05
1000.05
1000.05
1000.05
1000.05
1000.05
1000.05
1000.05
1000.05
1000.05
1000.05
1000.05
1000.05
1000.05
1000.05
1000.05
1000.05
1000.05
1000.05
1000.05
999.844
1000.05
1000.05
1000.05
1000.05
1000.05
1000.05
1000.05
1000.05
1000.05
1000.05
1000.05
1000.05
1000.05
1000.05
1000.05
1000.05
1000.05
1000.05
1000.05
1000.05
1000.05
1000.05
999.143
1000.05
1000.05
1000.05
1000.05
1000.05
1000.05
1000.05
1000.05
1000.05
1000.05
1000.05
1000.05
1000.05
1000.05
1000.05
1000.05
1000.05
1000.05
1000.05
1000.05
1000.05
1000.05
999.142
1.29264
1.29264
1.29264
1.29263
1.29263
1.29263
1.29263
1.29263
1.29263
1.29262
1.29263
1.29263
1.29268
1.2928
1.2929
1.29296
1.29306
1.29317
1.29327
1.29264
1.29264
1.29264
1.29263
1.29263
1.29263
1.29263
1.29262
1.29263
1.29262
1.29263
1.29263
1.29271
1.29286
1.29296
1.29299
1.29305
1.29326
1.29348
1.29264
1.29263
1.29264
1.29263
1.29263
1.29263
1.29263
1.29262
1.29263
1.29262
1.29263
1.29264
1.29275
1.29287
1.2929
1.29282
1.29279
1.29317
1.29369
1.29264
1.29263
1.29263
1.29263
1.29263
1.29263
1.29263
1.29262
1.29263
1.29262
1.29263
1.29264
1.29276
1.29284
1.29282
1.29292
1.29319
1.29358
1.29456
1.29264
1.29263
1.29263
1.29263
1.29263
1.29263
1.29263
1.29262
1.29263
1.29262
1.29263
1.29264
1.29275
1.29281
1.29272
1.29279
1.2939
1.29423
1.29519
1.29264
1.29263
1.29264
1.29263
1.29263
1.29263
1.29263
1.29262
1.29263
1.29262
1.29262
1.29263
1.29272
1.29278
1.29268
1.2923
1.29544
1.37257
1.50174
1.29264
1.29266
1.29267
1.29263
1.29263
1.29262
1.29263
1.29262
1.29262
1.29261
1.29262
1.29262
1.29269
1.29276
1.2927
1.29232
1.2923
1.52422
65.2377
1.2927
1.29328
1.29443
1.2935
1.29264
1.29262
1.29263
1.29262
1.29262
1.29261
1.29262
1.29261
1.29266
1.29272
1.29271
1.29243
1.29216
1.29343
396.801
1000.05
1000.05
1000.05
1000.05
1000.05
1000.05
1000.05
1000.05
1000.05
1000.05
1000.05
1000.05
1000.05
1000.05
1000.05
1000.05
1000.05
1000.05
1000.05
1000.05
1000.05
1000.05
999.142
983.438
982.666
983.249
983.116
983.03
983.353
984.615
985.173
987.148
988.764
990.925
993.204
995.585
997.748
999.276
1000.05
1000.05
1000.05
1000.05
1000.05
1000.05
1000.05
999.284
454.437
449.363
452.782
451.315
450.882
453.345
463.34
468.577
490.764
516.409
556.572
603.234
660.789
731.172
816.209
906.11
993.725
1000.05
1000.05
1000.05
1000.05
1000.05
999.969
1.29332
1.29332
1.29332
1.29332
1.29332
1.29333
1.29333
1.29333
1.29334
1.29334
1.29333
7.27456
26.784
55.1271
101.299
169.178
292.098
514.285
811.774
1000.05
1000.05
1000.05
1000.05
1.29323
1.29323
1.29323
1.29323
1.29323
1.29323
1.29323
1.29324
1.29324
1.29324
1.29324
1.29324
1.29324
1.29325
1.29327
1.29742
3.26235
18.4216
92.3116
239.51
500.945
840.048
1000.05
1.2932
1.2932
1.2932
1.2932
1.2932
1.2932
1.2932
1.2932
1.2932
1.2932
1.29325
1.29363
1.29434
1.29417
1.29358
1.2932
1.2932
1.30684
1.72486
4.93847
18.621
115.591
323.6
1.29319
1.29319
1.29319
1.29319
1.29319
1.29319
1.29319
1.29319
1.29319
1.29319
1.29372
1.2956
1.29564
1.29564
1.29403
1.29319
1.29318
1.29318
1.29321
1.29412
1.33313
2.31005
10.3907
1.29318
1.29318
1.29318
1.29318
1.29318
1.29318
1.29318
1.29318
1.29318
1.29318
1.29404
1.29539
1.29522
1.29394
1.29325
1.29321
1.2932
1.29318
1.2932
1.29356
1.29415
1.29528
1.30255
1.29318
1.29318
1.29318
1.29318
1.29318
1.29318
1.29318
1.29318
1.29318
1.29318
1.29329
1.29339
1.29318
1.29318
1.29318
1.29324
1.29324
1.2932
1.29318
1.29519
1.29892
1.29998
1.29999
1.29318
1.29318
1.29318
1.29318
1.29318
1.29318
1.29318
1.29318
1.29318
1.2932
1.29318
1.29318
1.29318
1.29318
1.29318
1.2932
1.29323
1.29321
1.29318
1.29318
1.29317
1.29465
1.29685
1.29318
1.29318
1.29318
1.29318
1.29318
1.29318
1.29318
1.29318
1.29318
1.29318
1.29318
1.29318
1.29318
1.29318
1.29318
1.29318
1.29318
1.29318
1.29318
1.29318
1.29317
1.29317
1.29318
1.29318
1.29318
1.29318
1.29318
1.29318
1.29318
1.29318
1.29318
1.29318
1.29318
1.29318
1.29318
1.29318
1.29318
1.29318
1.29318
1.29318
1.29318
1.29317
1.29317
1.29317
1.29317
1.29317
1.29318
1.29318
1.29318
1.29318
1.29318
1.29318
1.29318
1.29318
1.29318
1.29318
1.29318
1.29318
1.29318
1.29318
1.29317
1.29317
1.29317
1.29317
1.29317
1.29317
1.29317
1.29317
1.29317
1.29317
1.29317
1.29317
1.29317
1.29317
1.29317
1.29317
1.29317
1.29317
1.29317
1.29317
1.29317
1.29317
1.29317
1.29317
1.29317
1.29317
1.29317
1.29317
1.29317
1.29317
1.29317
1.29317
1.29317
1.29317
1.29317
1.29317
1.29317
1.29317
1.29317
1.29317
1.29317
1.29317
1.29317
1.29317
1.29317
1.29317
1.29317
1.29317
1.29317
1.29317
1.29317
1.29317
1.29317
1.29317
1.29317
1.29317
1.29317
1.29317
1.29317
1.29317
1.29317
1.29317
1.29317
1.29317
1.29317
1.29317
1.29317
1.29317
1.29317
1.29317
1.29317
1.29317
1.29317
1.29317
1.29317
1.29317
1.29317
1.29317
1.29317
1.29317
1.29317
1.29317
1.29317
1.29317
1.29317
1.29317
1.29317
1.29317
1.29317
1.29317
1.29317
1.29317
1.29317
1.29317
1.29317
1.29317
1.29317
1.29317
1.29317
1.29317
1.29317
1.29317
1.29317
1.29317
1.29317
1.29317
1.29317
1.29317
1.29317
1.29317
1.29317
1.29317
1.29317
1.29317
1.29317
1.29317
1.29317
1.29317
1.29317
1.29317
1.29316
1.29316
1.29316
1.29316
1.29316
1.29316
1.29316
1.29316
1.29316
1.29316
1.29316
1.29316
1.29316
1.29316
1.29316
1.29316
1.29316
1.29316
1.29316
1.29316
1.29316
1.29316
1.29316
1.29316
1.29316
1.29316
1.29316
1.29316
1.29316
1.29316
1.29316
1.29316
1.29316
1.29316
1.29316
1.29316
1.29316
1.29316
1.29316
1.29316
1.29316
1.29316
1.29316
1.29316
1.29316
1.29316
1.29316
1.29316
1.29316
1.29316
1.29316
1.29316
1.29316
1.29316
1.29316
1.29316
1.29316
1.29316
1.29316
1.29316
1.29316
1.29316
1.29316
1.29316
1.29316
1.29316
1.29316
1.29316
1.29316
1.29316
1.29316
1.29316
1.29316
1.29316
1.29316
1.29316
1.29316
1.29316
1.29316
1.29316
1.29316
1.29316
1.29316
1.29316
1.29316
1.29316
1.29316
1.29316
1.29316
1.29316
1.29316
1.29316
1.29316
1.29316
1.29316
1.29316
1.29315
1.29315
1.29315
1.29315
1.29315
1.29315
1.29315
1.29315
1.29315
1.29315
1.29315
1.29315
1.29315
1.29315
1.29315
1.29315
1.29316
1.29316
1.29316
1.29316
1.29315
1.29315
1.29315
1.29314
1.29314
1.29314
1.29314
1.29314
1.29314
1.29315
1.29315
1.29315
1.29315
1.29315
1.29315
1.29315
1.29315
1.29315
1.29315
1.29315
1.29315
1.29315
1.29315
1.29315
1.29315
1.29315
1.29313
1.29313
1.29313
1.29313
1.29313
1.29313
1.29314
1.29314
1.29314
1.29314
1.29314
1.29314
1.29314
1.29314
1.29315
1.29315
1.29315
1.29315
1.29315
1.29315
1.29315
1.29315
1.29315
1.29312
1.29312
1.29312
1.29312
1.29312
1.29312
1.29312
1.29312
1.29313
1.29313
1.29313
1.29313
1.29313
1.29314
1.29314
1.29314
1.29314
1.29314
1.29314
1.29315
1.29315
1.29315
1.29315
1.2931
1.2931
1.2931
1.2931
1.2931
1.29311
1.29311
1.29311
1.29311
1.29311
1.29311
1.29312
1.29312
1.29312
1.29313
1.29313
1.29313
1.29313
1.29314
1.29314
1.29314
1.29314
1.29314
1.29309
1.29309
1.29309
1.29309
1.29309
1.29309
1.29309
1.29309
1.29309
1.2931
1.2931
1.2931
1.2931
1.29311
1.29311
1.29311
1.29312
1.29312
1.29313
1.29313
1.29314
1.29314
1.29314
1.29308
1.29308
1.29308
1.29308
1.29308
1.29308
1.29308
1.29308
1.29308
1.29308
1.29308
1.29309
1.29309
1.29309
1.29309
1.2931
1.2931
1.29311
1.29312
1.29312
1.29313
1.29314
1.29314
1.29307
1.29307
1.29307
1.29307
1.29307
1.29307
1.29307
1.29307
1.29307
1.29307
1.29307
1.29308
1.29308
1.29308
1.29308
1.29309
1.29309
1.29309
1.2931
1.29311
1.29312
1.29313
1.29314
1.29306
1.29306
1.29306
1.29306
1.29306
1.29306
1.29306
1.29306
1.29306
1.29307
1.29307
1.29307
1.29307
1.29307
1.29307
1.29308
1.29308
1.29308
1.29309
1.2931
1.29311
1.29312
1.29313
1.29306
1.29306
1.29306
1.29306
1.29306
1.29306
1.29306
1.29306
1.29306
1.29306
1.29306
1.29306
1.29306
1.29306
1.29307
1.29307
1.29307
1.29308
1.29308
1.29309
1.2931
1.29312
1.29313
1.29306
1.29306
1.29306
1.29306
1.29306
1.29306
1.29306
1.29306
1.29306
1.29306
1.29306
1.29306
1.29306
1.29306
1.29306
1.29306
1.29307
1.29307
1.29307
1.29308
1.29309
1.29311
1.29312
1.29305
1.29305
1.29305
1.29305
1.29305
1.29305
1.29305
1.29305
1.29305
1.29305
1.29305
1.29305
1.29306
1.29306
1.29306
1.29306
1.29306
1.29307
1.29307
1.29308
1.29309
1.2931
1.29312
1.29305
1.29305
1.29305
1.29305
1.29305
1.29305
1.29305
1.29305
1.29305
1.29305
1.29305
1.29305
1.29305
1.29305
1.29306
1.29306
1.29306
1.29306
1.29307
1.29307
1.29308
1.29309
1.29311
1.29305
1.29305
1.29305
1.29305
1.29305
1.29305
1.29305
1.29305
1.29305
1.29305
1.29305
1.29305
1.29305
1.29306
1.29306
1.29306
1.29306
1.29306
1.29307
1.29307
1.29308
1.29309
1.29311
1.29306
1.29306
1.29306
1.29306
1.29306
1.29306
1.29306
1.29306
1.29306
1.29306
1.29306
1.29306
1.29306
1.29306
1.29306
1.29306
1.29306
1.29307
1.29307
1.29307
1.29308
1.29309
1.2931
1.29307
1.29307
1.29307
1.29307
1.29307
1.29306
1.29306
1.29306
1.29306
1.29306
1.29306
1.29307
1.29307
1.29307
1.29307
1.29307
1.29307
1.29307
1.29308
1.29308
1.29308
1.29309
1.2931
1.29307
1.29307
1.29307
1.29307
1.29307
1.29307
1.29307
1.29307
1.29307
1.29307
1.29307
1.29307
1.29307
1.29307
1.29307
1.29307
1.29307
1.29308
1.29308
1.29309
1.29309
1.2931
1.2931
1.29307
1.29307
1.29307
1.29307
1.29307
1.29307
1.29307
1.29307
1.29307
1.29307
1.29307
1.29307
1.29307
1.29307
1.29308
1.29308
1.29308
1.29308
1.29309
1.29309
1.2931
1.29311
1.29312
1.29308
1.29308
1.29308
1.29308
1.29308
1.29308
1.29308
1.29308
1.29307
1.29307
1.29307
1.29307
1.29308
1.29308
1.29308
1.29308
1.29308
1.29308
1.29309
1.29309
1.2931
1.29311
1.29312
1.29308
1.29308
1.29308
1.29308
1.29308
1.29308
1.29308
1.29308
1.29308
1.29308
1.29308
1.29308
1.29308
1.29308
1.29308
1.29308
1.29308
1.29309
1.29309
1.2931
1.29311
1.29312
1.29313
999.266
999.763
995.136
512.514
999.267
999.779
999.999
963.904
999.844
999.871
999.999
999.899
1000.05
1000.05
1000.05
1000.05
1000.05
1000.05
1000.05
1000.05
504.179
627.578
786.517
979.086
21.7444
45.6786
92.694
160.509
1.32873
1.43716
1.80243
2.74746
1.30169
1.30364
1.30546
1.30774
1.31024
1.33351
1.33423
1.33423
1.29371
1.29335
1.30158
1.33372
1.29318
1.29317
1.29317
1.29479
1.29317
1.29317
1.29317
1.29317
1.29317
1.29317
1.29317
1.29317
1.29317
1.29317
1.29317
1.29317
1.29317
1.29317
1.29317
1.29317
1.29317
1.29317
1.29317
1.29317
1.29316
1.29316
1.29316
1.29316
1.29316
1.29316
1.29316
1.29316
1.29316
1.29316
1.29316
1.29316
1.29316
1.29316
1.29316
1.29316
1.29316
1.29316
1.29316
1.29315
1.29315
1.29315
1.29315
1.29315
1.29315
1.29315
1.29315
1.29315
1.29315
1.29315
1.29315
1.29315
1.29315
1.29315
1.29314
1.29314
1.29314
1.29314
1.29314
1.29314
1.29314
1.29314
1.29314
1.29314
1.29314
1.29314
1.29314
1.29314
1.29314
1.29314
1.29314
1.29314
1.29314
1.29314
1.29314
1.29313
1.29313
1.29314
1.29314
1.29313
1.29313
1.29313
1.29313
1.29313
1.29313
1.29313
1.29314
1.29313
1.29313
1.29313
1.29313
1.29313
1.29312
1.29313
1.29313
1.29314
1.29312
1.29313
1.29313
1.29313
1.29312
1.29313
1.29313
1.29314
1.29312
1.29313
1.29313
1.29314
1.29312
1.29313
1.29314
1.29314
1.29313
1.29314
1.29314
1.29314
1.29315
1.29316
1.29316
1.29317
1.29788
6.74638
4.58472
1.43623
1.29325
1.29262
1.29263
1.29262
1.29262
1.29261
1.29262
1.2926
1.2926
1.29263
1.29264
1.29245
1.29222
1.29352
613.984
882.352
703.85
152.753
4.1399
1.29661
1.29263
1.29263
1.29262
1.29262
1.29261
1.29262
1.2926
1.29259
1.29254
1.29248
1.29226
1.29231
1.29351
613.34
999.848
1000.05
551.018
31.7101
1.779
1.29275
1.29254
1.29261
1.29263
1.29262
1.29263
1.2926
1.29259
1.29253
1.29247
1.29225
1.29243
1.29346
598.894
1000.05
1000.05
956.258
315.616
1.29426
1.29291
1.29214
1.29223
1.29245
1.29265
1.29262
1.29262
1.29262
1.29261
1.29262
1.2925
1.29265
1.29353
562.115
1000.05
1000.05
1000.05
889.514
384.21
1.29541
1.29245
1.29038
1.29053
1.29158
1.29283
1.29296
1.29277
1.29249
1.29245
1.29245
1.29287
1.2936
661.236
1000.05
1000.05
1000.05
1000.05
948.629
634.947
291.317
80.5916
23.3789
8.18372
1.2915
1.29384
1.29552
1.29462
1.29274
1.29241
1.29363
7.99605
833.282
330.43
696.865
993.988
1000.05
1000.05
996.362
937.071
796.467
686.838
644.73
594.078
527.265
454.209
385.565
297.334
147.623
91.0336
413.992
941.1
6.60204
64.9566
229.411
525.925
834.848
988.48
999.966
999.966
999.966
999.966
999.966
999.966
997.615
983.591
945.252
853.648
793.318
919.354
993.342
1.31319
1.42652
4.41143
22.7499
131.64
302.251
522.63
700.282
763.535
784.688
807.186
838.182
887.474
969.953
995.114
995.114
994.359
993.706
993.881
1.32429
1.29821
1.29476
1.32753
2.16303
6.43382
17.9422
60.0664
97.923
119.573
143.666
178.95
237.958
350.788
584.211
855.889
990.224
993.881
993.881
1.33384
1.3173
1.29344
1.2932
1.29322
1.29398
1.3022
1.37334
1.51618
1.67937
1.94323
2.54148
4.29199
11.7259
25.2834
295.995
811.828
989.237
918.436
1.30191
1.30017
1.2941
1.29318
1.29318
1.29318
1.29319
1.29318
1.29318
1.29318
1.29319
1.29322
1.29405
1.3057
1.52237
39.1845
562.966
979.32
900.24
1.29317
1.29318
1.29325
1.29319
1.29317
1.29317
1.29318
1.29318
1.29319
1.29319
1.2932
1.29318
1.29322
1.29321
2.96689
102.915
683.435
990.571
925.113
1.29317
1.29317
1.29317
1.29317
1.29317
1.29317
1.29318
1.29318
1.29318
1.29319
1.29319
1.29323
1.37287
4.40047
57.2435
441.136
908.048
990.569
918.06
1.29317
1.29317
1.29317
1.29317
1.29317
1.29317
1.29317
1.29317
1.29318
1.29318
1.29319
1.29321
1.64451
36.4522
402.86
815.253
952.097
969.415
691.614
1.29317
1.29317
1.29317
1.29317
1.29317
1.29317
1.29317
1.29317
1.29318
1.29317
1.29317
1.29321
2.6867
168.058
750.113
938.827
938.827
716.012
319.086
1.29317
1.29317
1.29317
1.29317
1.29317
1.29317
1.29317
1.29317
1.29317
1.29317
1.29316
1.29316
1.83294
56.2763
431.254
774.296
925.951
669.41
317.394
1.29316
1.29316
1.29317
1.29317
1.29317
1.29317
1.29318
1.29317
1.29317
1.29316
1.29315
1.29314
1.33912
2.05103
1.36371
204.432
695.004
696.827
442.227
1.29316
1.29316
1.29316
1.29316
1.29318
1.29316
1.29317
1.29317
1.29317
1.29316
1.29315
1.29314
1.29694
1.33347
1.36365
14.3356
323.268
485.777
316.152
1.29316
1.29316
1.29316
1.29316
1.29316
1.2934
1.29338
1.29316
1.29317
1.29317
1.29316
1.29314
1.29343
1.29356
1.29314
4.03414
118.359
361.92
159.934
1.29316
1.29316
1.29316
1.29315
1.29315
1.29345
1.29619
1.29434
1.29316
1.29316
1.29316
1.29315
1.29315
1.29315
1.29316
1.29316
8.2081
359.955
159.934
1.29315
1.29315
1.29315
1.29316
1.29315
1.29314
1.29313
1.3043
1.3027
1.29313
1.29313
1.29314
1.29314
1.29315
1.29316
1.29316
1.29318
356.954
159.935
1.29315
1.29315
1.29315
1.29317
1.29316
1.29314
1.29313
1.30851
1.31248
1.31246
1.29434
1.29313
1.29314
1.29316
1.29316
1.29317
1.29318
236.813
169.313
1.29315
1.29315
1.29314
1.29315
1.29325
1.29321
1.29312
1.29312
1.31188
1.31843
1.31843
1.29664
1.29326
1.29315
1.29316
1.29317
1.29319
18.4926
287.285
1.29314
1.29314
1.29314
1.29313
1.29352
1.29506
1.29441
1.29327
1.29369
1.31485
1.3188
1.31387
1.29477
1.29315
1.29316
1.29316
1.29319
1.29318
287.387
1.29314
1.29314
1.29313
1.29313
1.29442
1.29523
1.29523
1.29375
1.29366
1.29583
1.3173
1.31405
1.29484
1.29314
1.29316
1.29316
1.2932
1.29318
276.429
1.29314
1.29314
1.29313
1.29312
1.29421
1.29463
1.29421
1.29505
1.29434
1.29332
1.2969
1.29768
1.29383
1.29315
1.29317
1.29316
1.29321
1.29318
283.839
1.29314
1.29313
1.29313
1.29311
1.29336
1.29323
1.29308
1.30807
1.29309
1.29308
1.2931
1.29478
1.29379
1.29322
1.29317
1.29316
1.30358
1.29315
283.938
1.29313
1.29313
1.29312
1.29312
1.29309
1.29309
1.29306
1.3666
1.4016
1.29305
1.29309
1.30059
1.29376
1.29322
1.29317
1.2933
1.40341
2.16111
208.396
1.29313
1.29313
1.29312
1.29332
1.29341
1.29308
1.35945
1.47216
1.47216
1.39019
1.31294
1.29666
1.29327
1.29317
1.29317
1.31782
1.41477
1.38329
11.289
1.29313
1.29313
1.29312
1.2935
1.29465
1.29863
1.42962
1.47217
1.47216
1.47218
1.36496
1.29308
1.29313
1.29329
1.30215
1.32703
1.32301
1.29841
1.29817
1.29313
1.29313
1.29312
1.29355
1.29493
1.30052
1.42541
1.47219
1.47219
1.4272
1.32033
1.29309
1.29312
1.29312
1.30813
1.32852
1.53144
16.8123
189.622
1.29313
1.29313
1.29312
1.29349
1.29461
1.29656
1.34313
1.42305
1.38289
1.30346
1.2949
1.29325
1.29585
1.29637
1.29712
1.29717
42.7608
53.2411
307.566
1.29313
1.29313
1.29312
1.29346
1.29462
1.29401
1.294
1.2977
1.29405
1.29334
1.29388
1.29831
1.29834
1.29558
1.29426
83.2169
332.535
87.4763
306.872
1.29313
1.29313
1.29312
1.29324
1.29377
1.2935
1.29311
1.2931
1.29311
1.29313
1.29426
1.29737
1.29713
1.29331
9.84982
387.015
469.694
341.327
307.373
1.29314
1.29313
1.29312
1.29317
1.29324
1.29317
1.29313
1.29312
1.29314
1.29337
1.29373
1.29344
1.29347
1.29333
1.29345
320.571
469.689
440.527
143.701
1.29313
1.29313
1.29312
1.29327
1.29347
1.29315
1.29314
1.29322
1.29334
1.29336
1.29318
1.29321
1.29319
1.29318
1.29318
56.4104
230.933
240.196
67.0326
1.29314
1.29314
1.29313
1.29329
1.2939
1.29313
1.29315
1.29323
1.29334
1.29321
1.29318
1.30021
1.31949
1.32296
1.35036
1.9116
4.29225
8.21663
22.453
1.29314
1.29313
1.29313
1.29329
1.29474
1.29311
1.29314
1.29316
1.29319
1.2932
1.2977
1.3105
1.30745
1.29504
1.29376
1.29329
1.29323
1.29312
3.24843
1.29314
1.29314
1.29314
1.29312
1.29645
1.30474
1.29636
1.29314
1.29315
1.29878
1.30482
1.30359
1.29439
1.29406
1.29405
1.29325
1.29296
1.29368
1.32942
1.29314
1.29314
1.29314
1.29314
1.2978
1.31055
1.31057
1.30076
1.30025
1.30182
1.30478
1.29364
1.29467
1.29433
1.29424
1.29385
1.29291
1.294
1.29695
1.29316
1.29315
1.29315
1.29316
1.29374
1.30175
1.31071
1.31072
1.30116
1.29415
1.29432
1.29273
1.29265
1.29255
1.29251
1.29682
1.29474
1.29317
1.29266
)
;

boundaryField
{
    leftWall
    {
        type            calculated;
        value           nonuniform List<scalar> 
50
(
1000.05
1000.05
1000.05
1000.05
1000.05
1000.05
1000.05
1000.05
1000.05
983.438
454.437
1.29332
1.29323
1.2932
1.29319
1.29318
1.29318
1.29318
1.29318
1.29318
1.29318
1.29317
1.29317
1.29317
1.29317
1.29317
1.29316
1.29316
1.29316
1.29316
1.29315
1.29314
1.29313
1.29312
1.2931
1.29309
1.29308
1.29307
1.29306
1.29306
1.29306
1.29305
1.29305
1.29305
1.29306
1.29307
1.29307
1.29307
1.29308
1.29308
)
;
    }
    rightWall
    {
        type            calculated;
        value           nonuniform List<scalar> 
50
(
1.29327
1.29348
1.29369
1.29456
1.29519
1.50174
65.2377
396.801
613.984
613.34
598.894
562.115
661.236
833.282
941.1
993.342
993.881
993.881
918.436
900.24
925.113
918.06
691.614
319.086
317.394
442.227
316.152
159.934
159.934
159.935
169.313
287.285
287.387
276.429
283.839
283.938
208.396
11.289
1.29817
189.622
307.566
306.872
307.373
143.701
67.0326
22.453
3.24843
1.32942
1.29695
1.29266
)
;
    }
    lowerWall
    {
        type            calculated;
        value           nonuniform List<scalar> 
62
(
1000.05
1000.05
1000.05
1000.05
1000.05
1000.05
1000.05
1000.05
1000.05
1000.05
1000.05
1000.05
1000.05
1000.05
1000.05
1000.05
1000.05
1000.05
1000.05
1000.05
1000.05
1000.05
999.554
999.554
999.554
999.853
1000.05
1000.05
999.844
999.143
999.142
999.266
999.763
995.136
512.514
1.29264
1.29264
1.29264
1.29264
1.29264
1.29264
1.29264
1.2927
1.29264
1.29264
1.29264
1.29263
1.29264
1.29263
1.29263
1.29263
1.29263
1.29262
1.29263
1.29263
1.29268
1.2928
1.2929
1.29296
1.29307
1.29317
1.29327
)
;
    }
    atmosphere
    {
        type            calculated;
        value           nonuniform List<scalar> 
46
(
1.29317
1.29317
1.29317
1.29317
1.29317
1.29317
1.29317
1.29317
1.29317
1.29317
1.29317
1.29317
1.29317
1.29317
1.29317
1.29317
1.29318
1.29318
1.29318
1.29319
1.2932
1.29321
1.29323
1.29324
1.29325
1.29326
1.29326
1.29325
1.29324
1.29324
1.29325
1.29383
1.30185
1.31081
1.31082
1.30126
1.29425
1.29441
1.29282
1.29269
1.29264
1.29261
1.29267
1.29484
1.29327
1.29275
)
;
    }
    defaultFaces
    {
        type            empty;
    }
}


// ************************************************************************* //
