/*--------------------------------*- C++ -*----------------------------------*\
| =========                 |                                                 |
| \\      /  F ield         | OpenFOAM: The Open Source CFD Toolbox           |
|  \\    /   O peration     | Version:  2012                                  |
|   \\  /    A nd           | Website:  www.openfoam.com                      |
|    \\/     M anipulation  |                                                 |
\*---------------------------------------------------------------------------*/
FoamFile
{
    version     2.0;
    format      ascii;
    class       volScalarField;
    location    "0.43";
    object      volumeFraction1;
}
// * * * * * * * * * * * * * * * * * * * * * * * * * * * * * * * * * * * * * //

dimensions      [0 0 0 0 0 0 0];


internalField   nonuniform List<scalar> 
2268
(
1
1
1
1
1
1
1
1
1
1
1
1
1
1
1
1
1
1
1
1
1
1
0.999499
1
1
1
1
1
1
1
1
1
1
1
1
1
1
1
1
1
1
1
1
1
1
0.999499
1
1
1
1
1
1
1
1
1
1
1
1
1
1
1
1
1
1
1
1
1
1
0.999799
1
1
1
1
1
1
1
1
1
1
1
1
1
1
1
1
1
1
1
1
1
1
1
1
1
1
1
1
1
1
1
1
1
1
1
1
1
1
1
1
1
1
1
1
1
1
1
1
1
1
1
1
1
1
1
1
1
1
1
1
1
1
1
1
1
1
1
1
0.99979
1
1
1
1
1
1
1
1
1
1
1
1
1
1
1
1
1
1
1
1
1
1
0.999088
1
1
1
1
1
1
1
1
1
1
1
1
1
1
1
1
1
1
1
1
1
1
0.999087
7.99783e-22
7.986e-21
4.29734e-20
4.29981e-20
3.68739e-20
1.95812e-20
1.61104e-19
9.71236e-18
3.83587e-16
9.9833e-15
1.67255e-13
1.81112e-12
1.19135e-11
4.6079e-11
1.09975e-10
1.94786e-10
3.13319e-10
6.97014e-10
1.33273e-09
3.22601e-20
6.50154e-19
3.46748e-18
2.8413e-18
1.81e-18
7.29375e-19
7.4366e-19
2.866e-17
9.76354e-16
2.19496e-14
3.20986e-13
3.06934e-12
1.82764e-11
6.62241e-11
1.35554e-10
3.56801e-10
7.81218e-10
1.62839e-09
3.09069e-09
1.8105e-18
3.69334e-17
1.64889e-16
1.03991e-16
5.7446e-17
2.06217e-17
7.72808e-18
5.62847e-17
1.76422e-15
3.70103e-14
5.00189e-13
4.46104e-12
2.93357e-11
2.23346e-10
3.46457e-09
3.55705e-08
8.55965e-08
1.66e-08
3.32e-09
6.23759e-17
1.51799e-15
3.97044e-15
2.38996e-15
1.13477e-15
3.63588e-16
1.14078e-16
1.01955e-16
2.39721e-15
4.74723e-14
6.3349e-13
5.83723e-12
3.70632e-11
2.46995e-10
1.61943e-08
4.22223e-07
7.74658e-07
3.55261e-07
3.28232e-09
5.43472e-15
5.12963e-14
5.25856e-14
3.69461e-14
1.44288e-14
4.31238e-15
1.42073e-15
3.63294e-16
2.81127e-15
5.20528e-14
6.79174e-13
6.08856e-12
3.5203e-11
1.71032e-10
9.16099e-09
4.59414e-07
1.6298e-06
8.67767e-07
3.68371e-09
1.07519e-13
8.9737e-13
2.45711e-13
3.12024e-13
1.43292e-13
3.74903e-14
1.28314e-14
2.54977e-15
4.11842e-15
5.31465e-14
6.4837e-13
5.78298e-12
3.63896e-11
2.25688e-10
2.807e-09
2.06489e-08
3.23883e-06
7.9355e-05
0.000207339
1.97576e-12
1.11463e-12
5.23974e-12
1.30638e-11
1.43292e-13
2.23684e-13
9.11817e-14
1.90492e-14
1.41091e-14
5.46575e-14
5.56299e-13
4.89738e-12
3.1463e-11
1.78325e-10
9.81377e-10
3.00898e-09
1.21865e-07
0.000231317
0.0640243
1.11452e-12
1.11454e-12
1.58977e-06
8.72066e-07
1.28594e-08
3.0277e-11
4.68835e-13
1.24421e-13
1.06229e-13
1.41505e-13
4.66893e-13
3.41586e-12
2.20616e-11
1.21354e-10
5.07298e-10
6.10784e-10
2.09822e-12
2.09802e-12
0.395999
0.999995
0.999995
0.999995
0.999995
0.999995
0.999995
0.999996
0.999996
0.999997
0.999998
0.999999
0.999999
1
1
1
1
1
1
1
1
1
1
0.999087
0.983364
0.982591
0.983174
0.983041
0.982956
0.983279
0.984542
0.985101
0.987079
0.988697
0.99086
0.993142
0.995526
0.997691
0.999221
1
1
1
1
1
1
1
0.999229
0.453706
0.448626
0.452048
0.45058
0.450147
0.452612
0.46262
0.467864
0.490078
0.515755
0.555967
0.602688
0.660315
0.730784
0.815927
0.905939
0.993664
1
1
1
1
1
0.999915
1.8638e-36
1.85665e-36
-1.80896e-40
-5.56781e-35
-2.54842e-34
6.02911e-33
6.59591e-31
2.49209e-31
1.54594e-32
1.6139e-34
-1.583e-29
0.00598868
0.0255224
0.0539005
0.10013
0.168093
0.291166
0.513629
0.811487
1
1
1
1
2.32125e-19
1.36346e-17
4.60133e-16
1.00355e-14
1.39338e-13
1.45059e-12
2.96186e-12
1.75e-12
2.88374e-13
1.47101e-15
1.93737e-10
2.85752e-26
-6.76646e-26
2.80152e-26
4.28769e-26
4.14556e-06
0.0019715
0.0171495
0.0911312
0.238513
0.500272
0.839796
1
2.69018e-18
1.59232e-16
5.19624e-15
1.02663e-13
1.40692e-12
1.48822e-11
2.79694e-11
2.57915e-11
5.70275e-12
-4.71912e-33
5.27214e-08
4.39067e-07
1.14646e-06
9.82244e-07
3.9093e-07
1.25514e-09
1.25514e-09
1.36507e-05
0.000432175
0.00364976
0.0173493
0.114439
0.322707
4.62578e-18
2.68182e-16
8.57104e-15
1.61158e-13
2.16076e-12
2.29745e-11
3.8791e-11
6.09253e-11
3.6862e-11
-2.57304e-30
5.31989e-07
2.41621e-06
2.45537e-06
2.45591e-06
8.44464e-07
9.67769e-09
1.25873e-09
1.26974e-09
2.69582e-08
9.2818e-07
3.99677e-05
0.00101809
0.00910878
5.08226e-18
2.91389e-16
9.19949e-15
1.68657e-13
2.20213e-12
2.34995e-11
3.40037e-11
9.72175e-11
1.87747e-10
-5.35552e-28
8.57994e-07
2.20844e-06
2.04182e-06
7.61231e-07
7.02024e-08
3.29439e-08
2.13414e-08
1.29163e-09
2.50061e-08
3.82941e-07
9.68959e-07
2.09348e-06
9.36162e-06
4.75225e-18
2.65899e-16
8.10483e-15
1.40156e-13
1.60778e-12
1.76026e-11
1.50462e-11
1.75621e-10
9.13568e-10
1.90015e-09
1.03991e-07
2.12162e-07
1.30711e-11
1.30688e-11
1.30711e-11
5.59779e-08
5.63048e-08
2.45761e-08
3.16472e-09
2.0146e-06
5.75581e-06
6.81554e-06
6.81553e-06
2.91338e-18
1.54083e-16
4.42054e-15
7.17258e-14
7.25464e-13
7.83488e-12
3.24203e-12
2.76442e-10
1.82373e-09
1.85171e-08
2.37648e-11
2.37419e-11
4.58564e-11
3.73413e-10
2.53954e-10
2.30449e-08
5.5166e-08
3.46108e-08
3.16474e-09
6.24798e-14
6.0623e-14
1.47541e-06
3.6776e-06
1.25114e-18
6.45507e-17
1.80774e-15
2.86267e-14
2.74782e-13
2.88852e-12
5.80981e-13
3.46937e-10
1.75753e-09
1.38798e-09
3.26133e-10
1.11866e-10
2.48941e-10
1.12724e-09
1.16062e-09
3.79661e-10
5.02003e-09
7.47342e-09
3.22164e-09
3.7063e-10
3.54278e-11
3.19545e-12
7.62829e-09
4.41617e-19
2.23647e-17
6.1585e-16
9.59019e-15
9.12687e-14
9.03609e-13
5.80978e-13
1.73552e-10
8.24536e-10
4.02182e-10
2.47225e-10
1.47083e-10
2.58249e-10
9.07841e-10
1.03954e-09
3.79661e-10
1.16587e-10
1.16587e-10
1.77421e-10
1.71405e-10
1.07289e-10
3.29865e-11
2.27527e-11
1.27456e-19
6.31609e-18
1.71297e-16
2.63833e-15
2.56369e-14
2.25908e-13
5.80979e-13
5.80324e-11
7.9575e-11
1.1049e-10
9.48941e-11
6.96095e-11
8.87101e-11
2.06495e-10
3.31987e-10
4.47751e-10
4.47752e-10
4.07591e-10
3.25472e-10
2.0521e-10
1.08214e-10
5.67001e-11
2.29812e-11
2.98245e-20
1.45811e-18
3.92581e-17
6.04802e-16
6.08969e-15
4.9622e-14
4.44969e-13
9.76739e-12
1.93362e-11
2.4513e-11
2.19905e-11
1.56655e-11
2.03365e-11
3.06144e-11
5.28011e-11
1.05903e-10
1.08972e-10
1.06697e-10
9.44928e-11
6.52058e-11
3.52472e-11
2.00197e-11
1.3557e-11
5.58447e-21
2.71945e-19
7.34032e-18
1.14944e-16
1.22069e-15
1.01507e-14
1.85027e-13
9.28414e-13
2.53869e-12
3.06983e-12
2.74776e-12
2.32187e-12
3.19772e-12
5.76344e-12
9.83464e-12
1.20909e-11
1.29932e-11
1.29819e-11
1.19605e-11
9.44924e-12
5.96442e-12
3.50556e-12
2.12448e-12
8.19998e-22
4.03728e-20
1.11088e-18
1.80962e-17
2.06677e-16
1.8212e-15
4.3227e-14
8.67806e-14
1.18926e-13
1.2196e-13
1.36983e-13
2.51091e-13
5.94945e-13
1.15524e-12
1.55458e-12
1.66959e-12
1.68425e-12
1.62237e-12
1.44586e-12
1.14341e-12
7.50444e-13
4.41791e-13
2.60356e-13
9.14935e-23
4.62905e-21
1.32484e-19
2.29739e-18
2.8557e-17
2.60834e-16
5.71232e-15
1.146e-14
1.11652e-14
8.72139e-15
1.22445e-14
3.73427e-14
1.09036e-13
2.11792e-13
2.5792e-13
2.64329e-13
2.56163e-13
2.2768e-13
1.78624e-13
1.17179e-13
7.06059e-14
3.9165e-14
2.20755e-14
7.43326e-24
4.02939e-22
1.24361e-20
2.3602e-19
3.20275e-18
2.93826e-17
3.8046e-16
1.0625e-15
1.25952e-15
1.20307e-15
1.88044e-15
5.42955e-15
1.43423e-14
2.45379e-14
2.78077e-14
2.78103e-14
2.60547e-14
2.1875e-14
1.55219e-14
9.33704e-15
5.07496e-15
2.41789e-15
2.3612e-15
4.10591e-25
2.48814e-23
8.55596e-22
1.79669e-20
2.61155e-19
2.37921e-18
1.65261e-17
3.51374e-17
4.26654e-17
6.08024e-17
1.62461e-16
5.06543e-16
1.18273e-15
1.6526e-15
1.75435e-15
1.72963e-15
1.60659e-15
1.36314e-15
1.01424e-15
6.1757e-16
2.75425e-16
2.2604e-16
6.01948e-16
1.3934e-26
1.01589e-24
4.05169e-23
9.44683e-22
1.44175e-20
1.27044e-19
6.99862e-19
1.2032e-18
1.8331e-18
3.97978e-18
1.29499e-17
3.69221e-17
6.09578e-17
6.42645e-17
6.3793e-17
6.27303e-17
6.09652e-17
5.6433e-17
4.70846e-17
2.95137e-17
1.65045e-17
3.6909e-17
4.03439e-16
2.56867e-28
2.24937e-26
1.02883e-24
2.58632e-23
4.03724e-22
3.38715e-21
1.34471e-20
3.2149e-20
8.20043e-20
2.54256e-19
8.12082e-19
1.79548e-18
1.98682e-18
1.76894e-18
1.6024e-18
1.69057e-18
1.79904e-18
1.74396e-18
1.47893e-18
8.6276e-19
1.2991e-18
1.84754e-17
4.09321e-16
3.6899e-30
2.12789e-28
7.09287e-27
1.55638e-25
2.78227e-24
3.3085e-23
1.99134e-22
9.04469e-22
3.79456e-21
1.32242e-20
3.58856e-20
6.3626e-20
6.65998e-20
6.0086e-20
5.05209e-20
4.69329e-20
4.41546e-20
3.93023e-20
2.6143e-20
2.96269e-20
4.29694e-19
1.69519e-17
6.17691e-16
1.58863e-31
9.56819e-30
3.23345e-28
6.99728e-27
1.20945e-25
1.43892e-24
8.90385e-24
4.01689e-23
1.57371e-22
4.97035e-22
1.1216e-21
1.7903e-21
1.9112e-21
1.79418e-21
1.38397e-21
7.55442e-22
3.98273e-22
1.84233e-22
2.88927e-22
5.83909e-21
3.42954e-19
2.01386e-17
8.00865e-16
3.34003e-33
2.05949e-31
6.81869e-30
1.35541e-28
1.90775e-27
1.87645e-26
1.42098e-25
7.95679e-25
3.38541e-24
1.03836e-23
2.22176e-23
4.13145e-23
4.90073e-23
4.7076e-23
3.70326e-23
1.9273e-23
5.58834e-24
5.71946e-24
8.12593e-23
3.36722e-21
3.28427e-19
2.21589e-17
8.64009e-16
1.27259e-38
5.38497e-37
1.19721e-35
1.56385e-34
1.33384e-33
4.8446e-33
1.31164e-32
9.13624e-32
5.91842e-31
2.58944e-30
7.77039e-30
1.77275e-29
2.1344e-29
1.81464e-29
2.15218e-29
5.58086e-28
2.90432e-26
1.15495e-24
3.62238e-23
1.99902e-21
3.04833e-19
2.14219e-17
8.00893e-16
8.17661e-43
4.67066e-41
1.48777e-39
3.10948e-38
5.17975e-37
7.95276e-36
2.31631e-34
3.89396e-33
2.92805e-32
1.34239e-31
4.06279e-31
9.12286e-31
1.06536e-30
8.98188e-31
2.67691e-30
1.70351e-28
9.72475e-27
4.19788e-25
1.50733e-23
1.08686e-21
1.87431e-19
1.30503e-17
4.38013e-16
3.94124e-46
2.20175e-44
6.56859e-43
1.21986e-41
1.61507e-40
1.57468e-39
1.18632e-38
7.04298e-38
3.30827e-37
1.32193e-36
4.61358e-36
3.61843e-35
1.1616e-34
4.25168e-33
4.87347e-31
4.57294e-29
2.83582e-27
1.34812e-25
5.69272e-24
5.07139e-22
7.9178e-20
5.36582e-18
1.80438e-16
1.02457e-51
7.48411e-50
2.9494e-48
7.45293e-47
1.37373e-45
1.94229e-44
2.19175e-43
2.05145e-42
1.5664e-41
1.03658e-40
6.29509e-40
2.32124e-38
4.2109e-36
7.627e-34
1.01118e-31
1.05492e-29
7.10897e-28
3.79104e-26
1.9181e-24
1.95275e-22
2.73927e-20
1.84532e-18
6.27076e-17
3.03064e-55
2.42262e-53
1.03861e-51
2.89751e-50
5.96011e-49
9.70825e-48
1.29888e-46
1.50233e-45
1.45557e-44
1.48597e-43
8.92894e-42
2.38177e-39
5.53862e-37
1.15374e-34
1.73604e-32
2.02124e-30
1.4906e-28
9.14655e-27
5.60823e-25
5.96029e-23
7.28453e-21
4.87991e-19
1.68526e-17
1.13903e-61
1.14672e-59
6.81467e-58
2.93921e-56
9.97557e-55
2.74782e-53
6.15438e-52
1.91774e-50
4.02187e-48
1.67269e-45
6.10632e-43
2.10809e-40
5.76721e-38
1.39233e-35
2.41546e-33
3.15884e-31
2.5821e-29
1.87686e-27
1.3994e-25
1.41316e-23
1.41216e-21
9.20005e-20
3.4161e-18
6.11582e-67
1.02978e-64
9.50671e-63
5.93465e-61
2.80347e-59
1.54534e-57
3.97775e-55
2.33652e-52
1.29114e-49
6.76232e-47
3.04079e-44
1.27615e-41
4.27782e-39
1.22666e-36
2.5366e-34
3.80285e-32
3.53783e-30
3.15638e-28
2.88686e-26
2.62557e-24
1.96806e-22
1.15753e-20
8.26008e-19
3.61457e-71
8.99875e-69
1.18351e-66
1.05942e-64
9.92305e-63
3.8028e-60
3.17279e-57
2.7077e-54
2.04996e-51
1.46816e-48
8.98257e-46
4.93215e-43
2.14109e-40
7.52962e-38
1.91643e-35
3.38811e-33
3.70615e-31
4.18212e-29
4.78554e-27
4.32068e-25
2.72387e-23
1.45496e-21
6.84028e-19
9.62031e-76
3.58814e-73
7.66234e-71
1.64477e-68
9.63338e-66
1.18765e-62
1.46367e-59
1.73125e-56
1.82399e-53
1.80227e-50
1.4915e-47
1.08067e-44
6.03474e-42
2.72916e-39
8.89504e-37
1.99381e-34
2.72481e-32
4.01453e-30
6.01015e-28
6.95946e-26
5.78605e-24
5.6354e-22
1.00688e-18
1.52214e-79
7.30108e-77
2.0558e-74
6.4203e-72
5.56847e-69
9.26612e-66
1.64461e-62
2.86473e-59
4.50032e-56
6.81289e-53
8.32215e-50
9.39598e-47
7.97175e-44
5.53905e-41
2.59714e-38
7.98557e-36
1.42779e-33
2.78052e-31
6.04851e-29
1.17807e-26
2.05264e-24
7.12946e-22
1.21514e-18
7.90166e-84
5.68527e-81
3.63792e-78
6.22179e-75
2.28966e-71
8.16012e-68
2.5138e-64
6.57168e-61
1.45856e-57
2.68023e-54
4.27935e-51
5.0131e-48
4.57593e-45
3.33339e-42
1.88257e-39
8.16216e-37
2.7765e-34
9.67256e-32
3.86461e-29
1.6512e-26
8.09798e-24
5.11981e-21
2.32675e-18
1.57388e-85
1.55385e-81
1.40747e-77
8.32674e-74
3.57033e-70
1.21684e-66
3.47385e-63
8.29142e-60
1.70783e-56
3.043e-53
4.9032e-50
5.4243e-47
4.66111e-44
3.11446e-41
1.69648e-38
7.33631e-36
2.86475e-33
1.09084e-30
4.20769e-28
1.89299e-25
1.02092e-22
5.28029e-20
1.33543e-17
1.80817e-84
3.33324e-80
2.88379e-76
1.62988e-72
6.7283e-69
2.19209e-65
5.88975e-62
1.31419e-58
2.54783e-55
4.46578e-52
6.99884e-49
7.49694e-46
6.3279e-43
4.23772e-40
2.30388e-37
1.01935e-34
4.09023e-32
1.58753e-29
5.7548e-27
2.56303e-24
1.35544e-21
2.94611e-19
2.83676e-17
4.15999e-83
7.19357e-79
6.09463e-75
3.4011e-71
1.38199e-67
4.41965e-64
1.14392e-60
2.44383e-57
4.54529e-54
7.8493e-51
1.14785e-47
1.16274e-44
9.48042e-42
6.26993e-39
3.35262e-36
1.49781e-33
6.07625e-31
2.37722e-28
8.21282e-26
2.14047e-23
3.84087e-21
4.5087e-19
3.21507e-17
9.33822e-82
1.58452e-77
1.31589e-73
7.20911e-70
2.898e-66
9.17306e-63
2.3009e-59
4.75334e-56
8.55791e-53
1.45824e-49
1.98255e-46
1.89293e-43
1.39957e-40
8.32216e-38
3.96384e-35
1.51579e-32
4.65457e-30
1.14877e-27
2.27083e-25
3.57376e-23
4.4269e-21
4.16256e-19
2.7371e-17
2.06923e-80
3.44301e-76
2.80151e-72
1.46968e-68
5.55013e-65
1.62237e-61
3.6346e-58
6.41213e-55
9.07583e-52
1.0451e-48
9.98613e-46
7.91662e-43
5.13068e-40
2.70565e-37
1.15311e-34
3.97786e-32
1.10531e-29
2.47367e-27
4.41635e-25
6.22886e-23
6.76411e-21
5.49859e-19
3.18896e-17
2.23937e-79
3.43416e-75
2.52688e-71
1.16548e-67
3.6913e-64
8.44192e-61
1.44749e-57
1.91508e-54
1.9963e-51
1.66964e-48
1.14025e-45
6.52709e-43
3.1411e-40
1.26777e-37
4.27522e-35
1.20052e-32
2.79786e-30
5.40348e-28
8.66833e-26
1.15762e-23
1.28325e-21
1.16302e-19
8.34218e-18
6.38842e-79
8.88465e-75
5.84868e-71
2.4057e-67
6.86598e-64
1.44151e-60
2.30523e-57
2.89137e-54
2.90903e-51
2.40513e-48
1.66474e-45
9.78882e-43
4.89571e-40
2.07523e-37
7.35043e-35
2.15617e-32
5.18411e-30
1.01827e-27
1.62658e-25
2.11752e-23
2.23705e-21
1.91031e-19
1.28499e-17
0.999212
0.999709
0.995077
0.511854
0.999212
0.999725
0.999946
0.963805
0.99979
0.999817
0.999946
0.999845
1
0.999995
0.999994
0.999995
1
1
1
1
0.503509
0.627061
0.786198
0.979007
0.0204765
0.0444404
0.0915141
0.159413
3.55517e-05
0.000144108
0.000509832
0.00145602
8.51207e-06
1.04652e-05
1.22822e-05
1.45579e-05
1.70903e-05
4.03885e-05
4.11078e-05
4.10966e-05
5.36023e-07
1.80689e-07
8.42006e-06
4.05984e-05
3.61532e-09
2.16166e-09
1.41607e-12
1.62487e-06
1.41607e-12
1.41607e-12
1.41607e-12
3.80077e-10
9.58699e-12
7.70237e-12
5.87536e-12
3.72656e-12
1.49639e-12
1.21822e-12
9.36008e-13
7.7947e-13
1.82187e-13
1.49031e-13
1.20281e-13
9.32995e-14
1.65838e-14
1.59838e-14
1.66673e-14
1.91271e-14
2.79358e-15
3.75218e-15
5.74549e-15
9.6354e-15
1.24602e-15
2.19548e-15
4.13493e-15
8.33588e-15
1.00229e-15
1.91577e-15
4.14388e-15
1.19162e-14
1.10137e-15
2.40577e-15
7.12032e-15
3.03503e-14
1.79221e-15
4.46061e-15
1.63373e-14
8.4514e-14
2.47877e-15
7.15116e-15
3.13506e-14
2.11683e-13
2.78803e-15
8.917e-15
4.27658e-14
3.1945e-13
2.75192e-15
9.49893e-15
4.76803e-14
2.52544e-13
1.73865e-15
7.59305e-15
4.18125e-14
1.61692e-13
7.76051e-16
3.73567e-15
2.17357e-14
9.47488e-14
3.04751e-16
1.72264e-15
1.25093e-14
7.3038e-14
1.02954e-16
9.45077e-16
1.0764e-14
1.02494e-13
4.66348e-17
9.49041e-16
1.957e-14
2.99715e-13
5.12237e-17
2.30952e-15
5.74461e-14
7.89142e-13
1.12559e-16
4.79346e-15
9.88336e-14
1.17518e-12
1.53873e-16
6.16111e-15
1.18093e-13
1.2776e-12
1.7234e-16
6.44253e-15
1.09776e-13
7.41175e-13
2.73327e-16
6.37284e-15
7.43638e-14
5.23971e-13
5.45696e-16
8.89235e-15
9.03736e-14
6.00769e-13
9.59948e-16
1.39746e-14
1.31824e-13
8.23607e-13
9.89957e-16
1.40517e-14
1.35022e-13
8.64581e-13
8.4334e-16
1.22408e-14
1.21363e-13
8.06698e-13
9.14896e-16
1.26465e-14
1.22741e-13
8.20005e-13
3.30617e-16
6.72918e-15
1.00774e-13
1.01907e-12
4.84011e-16
9.30652e-15
1.34933e-13
1.41967e-12
1.11454e-12
0.00545836
0.00329715
0.00014403
6.24049e-07
6.40999e-11
1.88992e-11
2.86493e-12
5.22107e-13
4.12831e-13
1.4307e-12
4.18334e-12
1.4293e-11
5.50564e-11
1.79381e-10
2.15005e-10
2.1686e-10
3.37179e-16
0.613452
0.882152
0.703429
0.151649
0.00285292
4.09043e-06
5.60976e-09
1.6436e-10
9.52139e-11
7.00874e-11
4.12828e-13
2.1806e-12
2.1806e-12
1.1326e-11
2.9391e-11
6.91914e-11
9.27121e-11
6.41167e-10
2.68702e-11
0.612807
0.999795
1
0.550408
0.0304557
0.000486723
6.86369e-09
1.43766e-10
1.73792e-10
5.14923e-10
3.13017e-09
6.46385e-09
3.08588e-09
1.75728e-12
1.75139e-12
1.75728e-12
5.01447e-12
4.42363e-09
3.37171e-16
0.598343
0.999997
1
0.956151
0.314714
9.99041e-10
9.99141e-10
1.0664e-10
1.01829e-10
2.89911e-10
2.04962e-09
6.13763e-09
6.68239e-09
8.23334e-09
3.58183e-08
8.02829e-08
8.39531e-08
4.70356e-08
3.34825e-16
0.561518
1
1
1
0.889323
0.383393
3.44466e-16
3.44875e-16
3.44385e-16
3.44875e-16
3.44543e-16
2.09936e-10
7.60418e-10
1.44718e-09
1.51363e-08
4.33765e-08
6.24568e-08
7.11042e-08
3.3716e-16
0.660762
1
1
1
0.999996
0.948512
0.634441
0.290386
0.0794016
0.0221183
0.00690339
3.38675e-16
3.36503e-16
3.38674e-16
3.36503e-16
3.38674e-16
3.36504e-16
3.3868e-16
0.0067125
0.833022
0.329545
0.696435
0.993927
1
1
0.996304
0.936939
0.796162
0.686397
0.644237
0.593521
0.526625
0.453479
0.38475
0.29641
0.146513
0.0898531
0.413212
0.940973
0.00531538
0.0637424
0.228401
0.525283
0.834589
0.988412
0.999912
0.999912
0.999912
0.999912
0.999912
0.999912
0.997559
0.983517
0.945131
0.853413
0.793008
0.9192
0.99328
1.99923e-05
0.00013345
0.00312207
0.0214833
0.130509
0.301331
0.521984
0.699857
0.763187
0.784367
0.806893
0.837927
0.88728
0.969862
0.995054
0.995054
0.994298
0.993644
0.99382
3.11394e-05
5.0051e-06
1.54521e-06
3.43551e-05
0.000870895
0.005147
0.0166697
0.0588462
0.0967498
0.118426
0.14255
0.177878
0.236959
0.349929
0.583641
0.855656
0.990158
0.99382
0.99382
4.07202e-05
2.41535e-05
2.49334e-07
3.21251e-09
2.6153e-08
7.87138e-07
9.02418e-06
8.02569e-05
0.000223277
0.000386683
0.000650867
0.00124988
0.00300253
0.0104457
0.0240199
0.295067
0.81154
0.989169
0.91828
8.74778e-06
7.00684e-06
9.26616e-07
6.22644e-10
7.37271e-11
7.37249e-11
7.37229e-11
9.59078e-11
6.08101e-10
2.51105e-09
7.01786e-09
4.62721e-08
8.47973e-07
1.24947e-05
0.000229327
0.037938
0.562369
0.97924
0.900062
1.29655e-09
1.11109e-08
7.97984e-08
1.50928e-08
1.40026e-09
3.06732e-10
9.01736e-11
4.27777e-11
8.12877e-10
3.57546e-09
2.4631e-09
1.38857e-09
1.38855e-09
1.38857e-09
0.00167573
0.101748
0.682988
0.990506
0.924966
1.1742e-12
2.21535e-12
3.05439e-10
1.90291e-09
7.87037e-10
2.6187e-10
9.38678e-11
3.8246e-11
7.39413e-10
3.77888e-09
2.20842e-09
6.34337e-08
7.97728e-05
0.00311115
0.0560196
0.440388
0.90788
0.990504
0.917905
4.92156e-13
9.95494e-13
8.75147e-12
7.45474e-11
8.49667e-11
7.91821e-11
5.7833e-11
3.7102e-11
3.24819e-10
3.17997e-09
2.2087e-09
3.68255e-08
0.000351747
0.0352027
0.402065
0.81497
0.951984
0.969323
0.691177
9.74848e-14
3.02621e-13
3.06602e-12
3.20289e-11
6.56385e-11
4.38234e-11
4.38263e-11
6.33764e-11
1.4644e-10
1.64092e-09
2.20844e-09
5.23844e-08
0.00139528
0.166972
0.74975
0.938697
0.938698
0.715606
0.318187
5.58182e-14
1.19999e-13
1.28401e-12
1.0438e-11
8.44237e-10
1.70466e-09
6.59959e-10
6.33743e-11
1.00606e-10
4.82435e-10
1.89173e-09
1.62489e-08
0.0005405
0.0550513
0.430494
0.773962
0.925805
0.668946
0.316494
8.4219e-14
2.94465e-13
1.11178e-11
9.12751e-11
1.31792e-10
2.95935e-09
8.56937e-09
5.79708e-09
1.3778e-10
1.37784e-10
9.37629e-10
4.78896e-10
4.60641e-05
0.000758821
7.06009e-05
0.203391
0.694571
0.696398
0.441482
1.44179e-13
1.73468e-12
9.43492e-12
1.37731e-11
1.30987e-08
2.95982e-09
2.95952e-09
1.13009e-08
9.09214e-09
6.42334e-09
4.78896e-10
4.78966e-10
3.81662e-06
4.03964e-05
7.05984e-05
0.0130586
0.322375
0.485085
0.31525
3.38995e-13
2.64614e-12
1.90529e-10
1.10921e-10
4.57782e-12
2.47416e-07
2.25072e-07
1.13066e-08
1.70435e-08
1.93094e-08
1.30371e-08
4.78896e-10
2.93822e-07
4.20021e-07
3.47913e-09
0.00274436
0.117211
0.361075
0.158839
1.29656e-12
1.34358e-12
1.01942e-09
1.00659e-09
4.66433e-12
3.00311e-07
3.04978e-06
1.19893e-06
1.70426e-08
1.85388e-08
1.43187e-08
3.78214e-09
3.39744e-09
3.87449e-09
3.47909e-09
2.03413e-09
0.00692351
0.359108
0.158839
3.21752e-12
1.34358e-12
8.6376e-10
7.6088e-09
2.95546e-09
6.06492e-09
8.27787e-10
1.11846e-05
9.58324e-06
6.96918e-10
7.1215e-10
1.34979e-09
1.30919e-09
2.07712e-09
3.85358e-09
2.03417e-09
2.95104e-11
0.356102
0.158839
4.72459e-12
3.68395e-12
1.95008e-12
2.47331e-08
2.61499e-08
7.13707e-09
3.777e-10
1.54113e-05
1.93838e-05
1.93702e-05
1.21517e-06
1.30919e-09
1.30472e-09
6.37165e-09
4.81318e-09
1.89799e-09
2.95104e-11
0.235812
0.168229
5.14791e-12
6.11554e-12
1.94999e-12
1.07967e-08
1.21157e-07
8.96036e-08
3.76912e-10
3.777e-10
1.87866e-05
2.53533e-05
2.53481e-05
3.52329e-06
1.17637e-07
6.41787e-09
2.60639e-09
1.62896e-09
2.95104e-11
0.0172207
0.286347
4.27866e-12
6.28782e-12
6.44664e-12
3.79991e-12
3.97632e-07
1.9496e-06
1.29991e-06
1.62122e-07
5.78873e-07
2.17795e-05
2.57316e-05
2.07866e-05
1.64342e-06
3.18497e-09
1.85771e-09
1.85292e-09
2.95104e-11
2.95104e-11
0.286449
1.72912e-12
5.49404e-12
2.42883e-11
3.8381e-12
1.30249e-06
2.12763e-06
2.12656e-06
6.45825e-07
5.60957e-07
2.74635e-06
2.42358e-05
2.0976e-05
1.721e-06
2.67843e-09
2.40325e-09
2.71456e-09
3.63452e-10
2.95104e-11
0.275478
1.04565e-12
8.85368e-12
6.4966e-11
3.79991e-12
1.10591e-06
1.53407e-06
1.11463e-06
1.96444e-06
1.26341e-06
2.49416e-07
3.8305e-06
4.59663e-06
7.05948e-07
1.43852e-08
6.88598e-09
1.65497e-09
2.95104e-11
2.95104e-11
0.282896
1.32191e-12
2.24036e-11
8.14068e-11
3.8381e-12
2.64396e-07
1.38645e-07
3.26804e-09
1.5027e-05
4.0045e-08
4.00456e-08
4.0045e-08
1.70433e-06
6.78501e-07
9.32309e-08
8.97244e-09
1.30804e-09
1.03911e-05
2.95104e-11
0.282996
3.30476e-12
3.59294e-11
6.05617e-11
8.00771e-09
3.26804e-09
3.26804e-09
3.26804e-09
7.36696e-05
0.000108729
4.0045e-08
4.00482e-08
7.52517e-06
6.50717e-07
9.05131e-08
1.1987e-08
1.40044e-07
0.000110338
0.000869052
0.20736
7.71249e-12
5.21682e-11
5.21678e-11
2.21977e-07
3.24834e-07
3.26804e-09
6.64992e-05
0.000179389
0.000179389
9.73065e-05
1.9924e-05
3.58952e-06
1.53298e-07
4.86695e-08
1.19803e-08
2.46874e-05
0.000121722
9.02456e-05
0.0100085
1.13859e-11
6.07299e-11
5.21698e-11
4.0215e-07
1.56584e-06
5.56613e-06
0.00013676
0.000179389
0.000179389
0.000179389
7.19953e-05
3.64786e-11
1.8777e-08
1.6687e-07
9.00138e-06
3.39224e-05
2.98506e-05
5.27703e-06
5.095e-06
1.24723e-11
5.9183e-11
9.34132e-10
4.57129e-07
1.84607e-06
7.46296e-06
0.000132538
0.000179389
0.000179389
0.000134332
2.72931e-05
3.64786e-11
3.64786e-11
3.64786e-11
1.50036e-05
3.54027e-05
0.000238527
0.0155385
0.188563
1.04373e-11
3.58901e-11
1.32873e-09
3.90268e-07
1.51779e-06
3.48288e-06
5.01322e-05
0.000130167
8.99479e-05
1.04123e-05
1.81324e-06
1.4746e-07
2.72429e-06
3.25389e-06
3.94742e-06
3.94618e-06
0.0415192
0.0520124
0.306652
5.05404e-12
2.73985e-11
1.20532e-09
3.58518e-07
1.51779e-06
9.10947e-07
9.1734e-07
4.6378e-06
9.78158e-07
2.55378e-07
7.74519e-07
5.20838e-06
5.20828e-06
2.43196e-06
9.58177e-07
0.0820252
0.331652
0.0862884
0.305956
3.94582e-12
3.15151e-11
1.22227e-09
1.36474e-07
6.66575e-07
3.90073e-07
1.40323e-08
1.52591e-08
1.60603e-08
1.60609e-08
1.13401e-06
4.21632e-06
3.9326e-06
2.82071e-09
0.00856698
0.386201
0.468981
0.340455
0.306456
4.25861e-12
3.35198e-11
1.02392e-09
6.5602e-08
1.30098e-07
5.15111e-08
1.40239e-08
1.40323e-08
2.28784e-08
2.32884e-07
5.73445e-07
2.48634e-07
2.28778e-07
2.82267e-09
3.27398e-11
0.319674
0.468976
0.439777
0.142582
5.20023e-12
2.7851e-11
1.07172e-09
1.6309e-07
3.74261e-07
2.2024e-08
1.25097e-08
9.2778e-08
1.98958e-07
1.97991e-07
3.86746e-09
3.27398e-11
3.27398e-11
3.27398e-11
3.27398e-11
0.0551857
0.229925
0.239199
0.0658207
5.39121e-12
2.311e-11
5.41568e-10
1.86433e-07
8.10299e-07
1.08915e-08
1.09307e-08
9.35066e-08
1.99139e-07
4.86137e-08
3.85061e-09
7.05523e-06
2.63893e-05
2.99227e-05
5.73949e-05
0.0006194
0.00300309
0.00693238
0.0211867
5.20266e-12
2.04094e-11
2.42062e-10
1.879e-07
1.65801e-06
1.09295e-08
1.08915e-08
2.02474e-08
4.0943e-08
3.81919e-08
4.53197e-06
1.73814e-05
1.43678e-05
1.98759e-06
7.15796e-07
2.77157e-07
2.77216e-07
2.77157e-07
0.00195836
5.54601e-12
2.45925e-11
4.05499e-11
2.9879e-09
3.35551e-06
1.16677e-05
3.2416e-06
6.51841e-09
6.50291e-09
5.62861e-06
1.16817e-05
1.04907e-05
1.33115e-06
1.26259e-06
1.26769e-06
3.35902e-07
3.37601e-11
7.81752e-07
3.69585e-05
1.00511e-11
5.67081e-11
1.02271e-10
4.64113e-09
4.69776e-06
1.74718e-05
1.74727e-05
7.63799e-06
7.11561e-06
8.69015e-06
1.16783e-05
6.95361e-07
2.00512e-06
1.76214e-06
1.71406e-06
1.17344e-06
3.45491e-11
1.08142e-06
4.39694e-06
1.58889e-11
1.15731e-10
3.52098e-10
6.2762e-09
5.91593e-07
8.6326e-06
1.76104e-05
1.76104e-05
8.0521e-06
1.06186e-06
1.37739e-06
1.80806e-08
4.91519e-08
-1.05688e-31
-3.46319e-58
4.25308e-06
1.9338e-06
2.59694e-07
2.61082e-08
)
;

boundaryField
{
    leftWall
    {
        type            zeroGradient;
    }
    rightWall
    {
        type            zeroGradient;
    }
    lowerWall
    {
        type            zeroGradient;
    }
    atmosphere
    {
        type            inletOutlet;
        inletValue      uniform 0;
        value           nonuniform List<scalar> 
46
(
0
0
0
0
0
0
0
0
0
0
0
0
0
0
0
0
0
0
0
0
0
0
0
0
9.30652e-15
1.34933e-13
1.41967e-12
1.58889e-11
1.15731e-10
3.52098e-10
6.2762e-09
5.91593e-07
8.6326e-06
1.76104e-05
1.76104e-05
8.0521e-06
1.06186e-06
1.37739e-06
1.80806e-08
0
0
0
0
1.9338e-06
2.59694e-07
2.61082e-08
)
;
    }
    defaultFaces
    {
        type            empty;
    }
}


// ************************************************************************* //
