/*--------------------------------*- C++ -*----------------------------------*\
| =========                 |                                                 |
| \\      /  F ield         | OpenFOAM: The Open Source CFD Toolbox           |
|  \\    /   O peration     | Version:  2012                                  |
|   \\  /    A nd           | Website:  www.openfoam.com                      |
|    \\/     M anipulation  |                                                 |
\*---------------------------------------------------------------------------*/
FoamFile
{
    version     2.0;
    format      ascii;
    class       volVectorField;
    location    "0.23";
    object      U;
}
// * * * * * * * * * * * * * * * * * * * * * * * * * * * * * * * * * * * * * //

dimensions      [0 1 -1 0 0 0 0];


internalField   nonuniform List<vector> 
2268
(
(0.0248965 -0.0119449 0)
(0.0760084 -0.0119029 0)
(0.125482 -0.0120002 0)
(0.177341 -0.0121688 0)
(0.228142 -0.0120145 0)
(0.278585 -0.0122472 0)
(0.331155 -0.0123301 0)
(0.382101 -0.0123723 0)
(0.434661 -0.0121424 0)
(0.483299 -0.0121788 0)
(0.535318 -0.0116188 0)
(0.578673 -0.0115498 0)
(0.629652 -0.0105843 0)
(0.66265 -0.00815211 0)
(0.689249 -0.00760077 0)
(0.717674 -0.00546413 0)
(0.719216 -0.00174013 0)
(0.701961 0.000513799 0)
(0.659679 0.00439945 0)
(0.583744 0.00515829 0)
(0.466558 0.0111695 0)
(0.310381 0.0168402 0)
(0.104725 0.0485516 0)
(0.0247909 -0.0357427 0)
(0.0760109 -0.0356314 0)
(0.125478 -0.0358892 0)
(0.177267 -0.0363482 0)
(0.228095 -0.0358323 0)
(0.278561 -0.0364282 0)
(0.331095 -0.0366065 0)
(0.38213 -0.0365145 0)
(0.434818 -0.0357207 0)
(0.483617 -0.0353297 0)
(0.535415 -0.0335352 0)
(0.579606 -0.0328969 0)
(0.630969 -0.0292778 0)
(0.66269 -0.0197712 0)
(0.695279 -0.0186413 0)
(0.717188 -0.00841537 0)
(0.723737 0.00893742 0)
(0.70703 0.0279766 0)
(0.664407 0.051262 0)
(0.586994 0.0865246 0)
(0.463799 0.117924 0)
(0.302832 0.154497 0)
(0.0976063 0.147387 0)
(0.0246327 -0.0595837 0)
(0.076037 -0.0594859 0)
(0.125474 -0.059854 0)
(0.17714 -0.0606673 0)
(0.228058 -0.0598884 0)
(0.278593 -0.0609213 0)
(0.331119 -0.0612975 0)
(0.382355 -0.0613709 0)
(0.435301 -0.0601537 0)
(0.484502 -0.0596742 0)
(0.536482 -0.0570812 0)
(0.582021 -0.0566015 0)
(0.633121 -0.0500636 0)
(0.665986 -0.0383545 0)
(0.705148 -0.0336376 0)
(0.724073 -0.0187489 0)
(0.735228 0.00270113 0)
(0.724112 0.02865 0)
(0.688983 0.0605988 0)
(0.621488 0.0999219 0)
(0.512713 0.144709 0)
(0.355133 0.18959 0)
(0.135147 0.238019 0)
(0.0244811 -0.083319 0)
(0.0760238 -0.0832867 0)
(0.125358 -0.0836689 0)
(0.176828 -0.0848268 0)
(0.227846 -0.083775 0)
(0.278464 -0.0851206 0)
(0.330929 -0.0856515 0)
(0.382373 -0.0857106 0)
(0.43548 -0.0840202 0)
(0.485305 -0.0830692 0)
(0.537857 -0.0796804 0)
(0.584331 -0.0784094 0)
(0.634962 -0.0690839 0)
(0.669901 -0.0535185 0)
(0.71149 -0.0462995 0)
(0.734697 -0.022171 0)
(0.744509 0.00875028 0)
(0.735335 0.0504751 0)
(0.698648 0.0998905 0)
(0.628843 0.170882 0)
(0.513106 0.24452 0)
(0.35779 0.334451 0)
(0.128053 0.378647 0)
(0.024378 -0.107082 0)
(0.075967 -0.107159 0)
(0.12522 -0.107496 0)
(0.176482 -0.109108 0)
(0.22768 -0.107928 0)
(0.27844 -0.109641 0)
(0.330963 -0.110433 0)
(0.382699 -0.110773 0)
(0.436124 -0.10886 0)
(0.486869 -0.108032 0)
(0.540347 -0.103998 0)
(0.588292 -0.102427 0)
(0.639655 -0.0907395 0)
(0.677511 -0.0744023 0)
(0.724477 -0.0646083 0)
(0.748211 -0.0342959 0)
(0.767417 0.00191612 0)
(0.766138 0.0501692 0)
(0.743151 0.110033 0)
(0.686105 0.186708 0)
(0.585716 0.270934 0)
(0.431115 0.369215 0)
(0.181099 0.467302 0)
(0.0242658 -0.130741 0)
(0.0757825 -0.130942 0)
(0.124922 -0.131169 0)
(0.175929 -0.133243 0)
(0.227191 -0.131952 0)
(0.278067 -0.133911 0)
(0.330552 -0.134923 0)
(0.382509 -0.135358 0)
(0.43612 -0.133259 0)
(0.487864 -0.132228 0)
(0.541744 -0.127643 0)
(0.591585 -0.125158 0)
(0.644005 -0.111329 0)
(0.68471 -0.0932561 0)
(0.735654 -0.0798602 0)
(0.759846 -0.0418715 0)
(0.784874 0.00016652 0)
(0.788577 0.0628556 0)
(0.767111 0.138106 0)
(0.711673 0.247404 0)
(0.603552 0.367029 0)
(0.453664 0.530413 0)
(0.167774 0.669523 0)
(0.0242093 -0.154365 0)
(0.0755519 -0.154729 0)
(0.124656 -0.154828 0)
(0.175477 -0.157447 0)
(0.22683 -0.156209 0)
(0.277877 -0.1585 0)
(0.330491 -0.159829 0)
(0.382762 -0.160672 0)
(0.436857 -0.158726 0)
(0.48977 -0.15795 0)
(0.544519 -0.153151 0)
(0.596849 -0.150738 0)
(0.651344 -0.135003 0)
(0.69601 -0.117669 0)
(0.752608 -0.100521 0)
(0.779479 -0.0575948 0)
(0.818395 -0.0121936 0)
(0.828044 0.0582073 0)
(0.827038 0.145248 0)
(0.788681 0.262195 0)
(0.705914 0.389428 0)
(0.576583 0.568602 0)
(0.271348 0.756384 0)
(0.0241873 -0.177888 0)
(0.0751347 -0.178409 0)
(0.124192 -0.178389 0)
(0.174783 -0.18152 0)
(0.226031 -0.180335 0)
(0.27711 -0.18287 0)
(0.32969 -0.18448 0)
(0.382186 -0.185559 0)
(0.4366 -0.183822 0)
(0.490562 -0.182992 0)
(0.545993 -0.178246 0)
(0.600667 -0.175436 0)
(0.655965 -0.158225 0)
(0.705441 -0.140697 0)
(0.765335 -0.119441 0)
(0.797456 -0.0722029 0)
(0.845339 -0.0229829 0)
(0.858958 0.0599893 0)
(0.862023 0.157056 0)
(0.842292 0.307719 0)
(0.756406 0.470504 0)
(0.634735 0.745727 0)
(0.29542 1.07972 0)
(-0.0453809 -0.00243582 0)
(-0.158339 -0.0344516 0)
(-0.238533 -0.0696055 0)
(-0.271111 -0.0409097 0)
(-0.287401 -0.0453922 0)
(-0.263493 -0.0189198 0)
(-0.235878 -0.0246413 0)
(-0.198474 -0.0156173 0)
(-0.151385 -0.0177311 0)
(-0.115296 -0.0139254 0)
(-0.0721214 -0.013279 0)
(-0.0480319 -0.0106614 0)
(-0.0171639 -0.00923438 0)
(-0.00829397 -0.00717968 0)
(0.00983009 -0.0061446 0)
(0.0062378 -0.0046932 0)
(0.0144467 -0.00393986 0)
(0.00360538 -0.00296551 0)
(0.00656936 -0.00268812 0)
(-0.059599 0.0878713 0)
(-0.181109 0.117012 0)
(-0.250973 0.116018 0)
(-0.269065 0.0624256 0)
(-0.28655 0.0408407 0)
(-0.259922 -0.00236793 0)
(-0.235603 -0.00396775 0)
(-0.196362 -0.0201319 0)
(-0.150598 -0.0182793 0)
(-0.113519 -0.0199078 0)
(-0.0705624 -0.015732 0)
(-0.0463215 -0.01302 0)
(-0.0155685 -0.00793098 0)
(-0.00692716 -0.00470317 0)
(0.0109396 -0.000249391 0)
(0.00724184 0.00231884 0)
(0.015176 0.00482451 0)
(0.00415287 0.0059496 0)
(0.00667656 0.00671695 0)
(-0.0531954 0.100162 0)
(-0.179419 0.0486984 0)
(-0.27018 -0.033878 0)
(-0.295021 -0.0244412 0)
(-0.302888 -0.0512149 0)
(-0.27732 -0.040157 0)
(-0.243429 -0.0529385 0)
(-0.204026 -0.0517413 0)
(-0.152406 -0.0537298 0)
(-0.115196 -0.0482047 0)
(-0.0695722 -0.0423306 0)
(-0.0454389 -0.0344721 0)
(-0.0136247 -0.0262883 0)
(-0.00530368 -0.018947 0)
(0.0126277 -0.0124084 0)
(0.00832344 -0.00698251 0)
(0.0159647 -0.00289097 0)
(0.00445089 0.000234661 0)
(0.00689363 0.00158709 0)
(-0.0657169 0.183978 0)
(-0.212731 0.209537 0)
(-0.280578 0.163957 0)
(-0.282497 0.076943 0)
(-0.302591 0.0323517 0)
(-0.268025 -0.0264681 0)
(-0.243315 -0.0359412 0)
(-0.196919 -0.0582648 0)
(-0.148518 -0.0566524 0)
(-0.108262 -0.0549941 0)
(-0.0636844 -0.0457843 0)
(-0.0392978 -0.0369252 0)
(-0.00838309 -0.0252578 0)
(-0.000773715 -0.0161388 0)
(0.0162235 -0.00625028 0)
(0.0115069 0.000583453 0)
(0.0181938 0.00625928 0)
(0.0060759 0.00949786 0)
(0.00721216 0.0112764 0)
(-0.0729073 0.220117 0)
(-0.236435 0.141428 0)
(-0.34561 -0.00764216 0)
(-0.345311 -0.0134793 0)
(-0.325968 -0.0600828 0)
(-0.301763 -0.0652908 0)
(-0.257453 -0.0850105 0)
(-0.212047 -0.0922111 0)
(-0.152317 -0.0925607 0)
(-0.111977 -0.0846373 0)
(-0.0623027 -0.0723578 0)
(-0.0377887 -0.0585187 0)
(-0.00487221 -0.0430856 0)
(0.00228584 -0.0299875 0)
(0.0193479 -0.0179258 0)
(0.0134974 -0.00837661 0)
(0.0197268 -0.000887833 0)
(0.00670722 0.0044427 0)
(0.00763472 0.00686991 0)
(-0.0861894 0.310256 0)
(-0.290944 0.32933 0)
(-0.338983 0.21088 0)
(-0.322807 0.070285 0)
(-0.340878 0.0125708 0)
(-0.289774 -0.0530285 0)
(-0.260719 -0.0749393 0)
(-0.201007 -0.10158 0)
(-0.144647 -0.0998179 0)
(-0.0994517 -0.0926275 0)
(-0.0509217 -0.077706 0)
(-0.0267778 -0.0611458 0)
(0.00455799 -0.0425554 0)
(0.0103459 -0.0265228 0)
(0.0257808 -0.0112207 0)
(0.0190753 0.000224398 0)
(0.0235075 0.00895467 0)
(0.00940909 0.0143999 0)
(0.00816166 0.0171495 0)
(-0.116653 0.38472 0)
(-0.342491 0.246051 0)
(-0.488171 -0.00225736 0)
(-0.428885 -0.0118447 0)
(-0.373716 -0.0769912 0)
(-0.343382 -0.100265 0)
(-0.282251 -0.125202 0)
(-0.223615 -0.14206 0)
(-0.151123 -0.137446 0)
(-0.104457 -0.124999 0)
(-0.0487337 -0.104343 0)
(-0.0238778 -0.0827341 0)
(0.00968144 -0.0594752 0)
(0.0150164 -0.0396619 0)
(0.0301548 -0.0220246 0)
(0.021894 -0.00802825 0)
(0.0257453 0.00286092 0)
(0.0104353 0.010457 0)
(0.00875717 0.0139284 0)
(-0.134846 0.49342 0)
(-0.432914 0.501964 0)
(-0.442776 0.253575 0)
(-0.405354 0.0261878 0)
(-0.413089 -0.0273191 0)
(-0.341613 -0.0863663 0)
(-0.290947 -0.127299 0)
(-0.212992 -0.154433 0)
(-0.140262 -0.151187 0)
(-0.0876107 -0.134717 0)
(-0.0322049 -0.112343 0)
(-0.00824795 -0.0853702 0)
(0.0235398 -0.0593554 0)
(0.026945 -0.0350806 0)
(0.0399251 -0.014345 0)
(0.0301529 0.00203864 0)
(0.0310151 0.0136552 0)
(0.0141856 0.0214662 0)
(0.00949662 0.025131 0)
(0.0241999 -0.214502 0)
(0.0745132 -0.215284 0)
(0.123613 -0.215192 0)
(0.173872 -0.21915 0)
(0.225081 -0.218253 0)
(0.276302 -0.221393 0)
(0.32918 -0.223652 0)
(0.382199 -0.225683 0)
(0.437662 -0.224802 0)
(0.493321 -0.224712 0)
(0.551059 -0.220594 0)
(0.609519 -0.218123 0)
(0.66888 -0.199744 0)
(0.727329 -0.185568 0)
(0.794466 -0.158556 0)
(0.83745 -0.108603 0)
(0.910574 -0.0524564 0)
(0.927576 0.044167 0)
(0.989351 0.148873 0)
(0.993974 0.310925 0)
(1.07874 0.489653 0)
(1.07991 0.789809 0)
(1.26255 1.23438 0)
(0.02409 -0.263924 0)
(0.0732862 -0.265047 0)
(0.122131 -0.265003 0)
(0.17166 -0.269939 0)
(0.222423 -0.269626 0)
(0.273533 -0.273578 0)
(0.326409 -0.276808 0)
(0.379867 -0.280039 0)
(0.436212 -0.280773 0)
(0.493754 -0.281766 0)
(0.554037 -0.279831 0)
(0.616666 -0.278182 0)
(0.680998 -0.261818 0)
(0.751705 -0.250071 0)
(0.822433 -0.216475 0)
(0.892187 -0.174371 0)
(0.972329 -0.104035 0)
(1.01528 -0.0108847 0)
(1.10325 0.092063 0)
(1.11153 0.222333 0)
(1.18872 0.378383 0)
(1.17763 0.566159 0)
(1.37662 0.893621 0)
(0.0239266 -0.312378 0)
(0.0717776 -0.31383 0)
(0.12028 -0.314078 0)
(0.168964 -0.319976 0)
(0.219389 -0.32068 0)
(0.270311 -0.325948 0)
(0.32346 -0.330609 0)
(0.377316 -0.336087 0)
(0.434786 -0.339414 0)
(0.49417 -0.343163 0)
(0.557573 -0.344339 0)
(0.624106 -0.345759 0)
(0.698238 -0.335772 0)
(0.77976 -0.327924 0)
(0.864357 -0.30021 0)
(0.96 -0.259248 0)
(1.04544 -0.177249 0)
(1.13316 -0.0867398 0)
(1.23817 0.0501136 0)
(1.29511 0.225355 0)
(1.40916 0.416813 0)
(1.45319 0.596029 0)
(1.60913 0.868581 0)
(0.0235795 -0.360149 0)
(0.0698388 -0.361917 0)
(0.117527 -0.362715 0)
(0.164957 -0.369553 0)
(0.21435 -0.371506 0)
(0.264397 -0.378131 0)
(0.316852 -0.384356 0)
(0.370454 -0.391816 0)
(0.427867 -0.39822 0)
(0.488626 -0.405028 0)
(0.553732 -0.410458 0)
(0.622304 -0.419334 0)
(0.701499 -0.41837 0)
(0.791468 -0.416392 0)
(0.893631 -0.397627 0)
(1.01108 -0.355712 0)
(1.11906 -0.278221 0)
(1.24996 -0.20403 0)
(1.33902 -0.0723846 0)
(1.45549 0.0519451 0)
(1.49206 0.219871 0)
(1.5452 0.37335 0)
(1.61232 0.605794 0)
(0.023143 -0.406249 0)
(0.0673659 -0.408237 0)
(0.114199 -0.409665 0)
(0.160075 -0.417289 0)
(0.208587 -0.420641 0)
(0.257837 -0.429008 0)
(0.310031 -0.437291 0)
(0.363597 -0.447754 0)
(0.420662 -0.458355 0)
(0.481739 -0.469739 0)
(0.548519 -0.478839 0)
(0.620479 -0.494241 0)
(0.708319 -0.506052 0)
(0.806554 -0.521427 0)
(0.923336 -0.521851 0)
(1.04825 -0.487267 0)
(1.15418 -0.418974 0)
(1.24197 -0.30954 0)
(1.32537 -0.157523 0)
(1.38693 0.0692024 0)
(1.48926 0.323384 0)
(1.59171 0.469284 0)
(1.6459 0.648656 0)
(0.0228072 -0.451183 0)
(0.064993 -0.453495 0)
(0.111034 -0.45597 0)
(0.155121 -0.464458 0)
(0.20205 -0.469836 0)
(0.24981 -0.480063 0)
(0.299948 -0.490661 0)
(0.352083 -0.502848 0)
(0.408211 -0.516857 0)
(0.469561 -0.533379 0)
(0.541113 -0.54989 0)
(0.61324 -0.580149 0)
(0.697136 -0.605838 0)
(0.785469 -0.632497 0)
(0.863571 -0.641237 0)
(0.955655 -0.587058 0)
(1.14731 -0.480322 0)
(1.43502 -0.371858 0)
(1.49988 -0.210051 0)
(1.62499 -0.0996127 0)
(1.5566 0.04087 0)
(1.60437 0.236361 0)
(1.63595 0.45205 0)
(0.0224643 -0.494439 0)
(0.0619925 -0.496858 0)
(0.107021 -0.500187 0)
(0.14892 -0.508697 0)
(0.194538 -0.515753 0)
(0.241093 -0.527369 0)
(0.291293 -0.540132 0)
(0.343503 -0.556704 0)
(0.400443 -0.576776 0)
(0.457462 -0.603638 0)
(0.5207 -0.623648 0)
(0.584787 -0.650945 0)
(0.649322 -0.679407 0)
(0.747614 -0.683394 0)
(0.72877 -0.689867 0)
(0.984077 -0.776865 0)
(1.25113 -0.865942 0)
(1.52785 -0.681944 0)
(1.74877 -0.355558 0)
(1.80439 -0.0139316 0)
(1.83176 0.295843 0)
(1.86045 0.36546 0)
(1.85002 0.47452 0)
(0.0222852 -0.536166 0)
(0.0599986 -0.53858 0)
(0.104316 -0.543474 0)
(0.145695 -0.552538 0)
(0.190586 -0.562675 0)
(0.236168 -0.577473 0)
(0.282147 -0.593761 0)
(0.329814 -0.612527 0)
(0.380151 -0.631383 0)
(0.435835 -0.653725 0)
(0.507015 -0.677777 0)
(0.655667 -0.7093 0)
(0.724862 -0.792521 0)
(0.567218 -0.664162 0)
(0.740509 -0.930242 0)
(0.916725 -1.0924 0)
(1.05948 -1.04822 0)
(1.12567 -0.866752 0)
(1.205 -0.478899 0)
(1.23382 -0.164898 0)
(1.47092 0.00737415 0)
(1.6976 0.229128 0)
(1.98234 0.442756 0)
(0.0219305 -0.57714 0)
(0.0583389 -0.579305 0)
(0.100946 -0.586297 0)
(0.141277 -0.595355 0)
(0.183086 -0.606623 0)
(0.225816 -0.619197 0)
(0.27361 -0.634027 0)
(0.333593 -0.655349 0)
(0.483617 -0.685831 0)
(0.66656 -0.734865 0)
(0.83695 -0.861025 0)
(1.00637 -0.834643 0)
(0.985353 -0.621005 0)
(0.874581 -0.676286 0)
(0.869749 -1.03893 0)
(0.858883 -1.10402 0)
(0.887966 -1.06969 0)
(0.836565 -0.832996 0)
(0.818755 -0.464279 0)
(0.965615 -0.286574 0)
(1.2043 -0.178043 0)
(1.48776 -0.135735 0)
(1.89274 -0.0107763 0)
(0.0223988 -0.616808 0)
(0.0602431 -0.617971 0)
(0.107813 -0.626878 0)
(0.166787 -0.635311 0)
(0.26082 -0.65039 0)
(0.364478 -0.670128 0)
(0.49226 -0.703788 0)
(0.645228 -0.830975 0)
(0.818275 -0.933227 0)
(1.00753 -1.01857 0)
(1.17698 -1.01124 0)
(1.22751 -0.869859 0)
(1.2678 -0.644908 0)
(1.23592 -0.562282 0)
(1.0379 -0.914625 0)
(0.853506 -1.11029 0)
(0.835957 -1.02604 0)
(0.707728 -0.793676 0)
(0.780847 -0.603285 0)
(0.954079 -0.551665 0)
(1.21761 -0.514272 0)
(1.51485 -0.464181 0)
(1.83395 -0.327481 0)
(0.0342586 -0.660356 0)
(0.0994572 -0.665002 0)
(0.172458 -0.693072 0)
(0.25458 -0.746913 0)
(0.346411 -0.798963 0)
(0.455308 -0.852949 0)
(0.59677 -0.911421 0)
(0.733774 -0.998103 0)
(0.886807 -1.05441 0)
(1.04247 -1.10464 0)
(1.1946 -1.08015 0)
(1.28949 -0.92532 0)
(1.37829 -0.630196 0)
(1.3228 -0.445691 0)
(1.27217 -0.650024 0)
(1.01096 -0.904276 0)
(0.83777 -0.920737 0)
(0.745364 -0.781793 0)
(0.825908 -0.716589 0)
(0.954515 -0.728107 0)
(1.14954 -0.747772 0)
(1.37542 -0.753476 0)
(1.67645 -0.650037 0)
(0.0432851 -0.751107 0)
(0.10035 -0.758533 0)
(0.192718 -0.783981 0)
(0.251569 -0.814626 0)
(0.333241 -0.854478 0)
(0.386894 -0.92066 0)
(0.489897 -0.986893 0)
(0.568174 -1.10712 0)
(0.715197 -1.24018 0)
(0.897074 -1.32448 0)
(1.05129 -1.25736 0)
(1.16508 -1.05787 0)
(1.23612 -0.672003 0)
(1.22916 -0.46139 0)
(1.22398 -0.59513 0)
(1.02445 -0.675399 0)
(0.813087 -0.756791 0)
(0.754537 -0.77945 0)
(0.818103 -0.809953 0)
(0.924571 -0.87361 0)
(1.09176 -0.934795 0)
(1.28091 -0.988548 0)
(1.59689 -0.928491 0)
(0.0353518 -0.804294 0)
(0.0604296 -0.814214 0)
(0.136237 -0.842917 0)
(0.160454 -0.885765 0)
(0.244414 -0.93345 0)
(0.275399 -1.01251 0)
(0.37698 -1.09338 0)
(0.434876 -1.23359 0)
(0.573749 -1.38697 0)
(0.646901 -1.4479 0)
(0.71912 -1.34905 0)
(0.720214 -1.11582 0)
(0.747536 -0.693738 0)
(0.773551 -0.43885 0)
(0.778199 -0.444281 0)
(0.651141 -0.496231 0)
(0.627177 -0.652656 0)
(0.622869 -0.789403 0)
(0.732537 -0.891896 0)
(0.847424 -1.00571 0)
(1.0311 -1.11176 0)
(1.22344 -1.26051 0)
(1.57972 -1.24349 0)
(0.0290024 -0.847889 0)
(0.04368 -0.861334 0)
(0.106822 -0.884902 0)
(0.113594 -0.925566 0)
(0.175602 -0.970058 0)
(0.176625 -1.05339 0)
(0.241803 -1.14654 0)
(0.252803 -1.30065 0)
(0.305778 -1.45129 0)
(0.249364 -1.46823 0)
(0.23152 -1.32781 0)
(0.108048 -1.08707 0)
(0.112157 -0.715825 0)
(0.177905 -0.494685 0)
(0.226976 -0.466711 0)
(0.273543 -0.522175 0)
(0.388416 -0.723155 0)
(0.466013 -0.882853 0)
(0.605411 -1.03174 0)
(0.732505 -1.17038 0)
(0.945042 -1.3103 0)
(1.13851 -1.53378 0)
(1.50253 -1.56073 0)
(0.0232829 -0.87688 0)
(0.0253891 -0.891935 0)
(0.0715819 -0.912632 0)
(0.0675469 -0.954324 0)
(0.107576 -0.996258 0)
(0.0962688 -1.08 0)
(0.120712 -1.16952 0)
(0.0889968 -1.30125 0)
(0.0555358 -1.38375 0)
(-0.0647368 -1.37778 0)
(-0.149797 -1.2059 0)
(-0.272142 -1.00012 0)
(-0.269782 -0.761509 0)
(-0.184814 -0.560423 0)
(-0.0819978 -0.540098 0)
(0.0847011 -0.663212 0)
(0.227572 -0.850083 0)
(0.332233 -1.00971 0)
(0.467269 -1.1646 0)
(0.587433 -1.34887 0)
(0.800027 -1.52666 0)
(0.996547 -1.81989 0)
(1.3645 -1.96405 0)
(0.0185879 -0.897165 0)
(0.012775 -0.91056 0)
(0.0439603 -0.927178 0)
(0.0289906 -0.962777 0)
(0.0493103 -0.998402 0)
(0.0204788 -1.06743 0)
(0.0104713 -1.13792 0)
(-0.0582679 -1.23562 0)
(-0.13441 -1.29386 0)
(-0.262573 -1.26184 0)
(-0.355105 -1.11587 0)
(-0.425988 -0.967801 0)
(-0.420355 -0.7988 0)
(-0.332362 -0.684652 0)
(-0.170137 -0.733321 0)
(-0.0199154 -0.832889 0)
(0.089264 -0.967963 0)
(0.176144 -1.12198 0)
(0.269631 -1.28525 0)
(0.370742 -1.50132 0)
(0.509437 -1.71966 0)
(0.722211 -2.09488 0)
(1.03384 -2.35892 0)
(0.0125425 -0.908133 0)
(-0.000255683 -0.917423 0)
(0.0162153 -0.928569 0)
(-0.00248418 -0.959917 0)
(0.00140301 -0.987154 0)
(-0.0321403 -1.04166 0)
(-0.0625224 -1.08987 0)
(-0.136464 -1.15716 0)
(-0.226208 -1.17918 0)
(-0.345197 -1.15858 0)
(-0.41551 -1.04202 0)
(-0.448312 -0.937041 0)
(-0.427486 -0.855999 0)
(-0.32476 -0.815763 0)
(-0.21055 -0.854848 0)
(-0.117665 -0.927225 0)
(-0.0411226 -1.04915 0)
(0.0220094 -1.19276 0)
(0.0717412 -1.36337 0)
(0.145549 -1.59012 0)
(0.193052 -1.88624 0)
(0.38607 -2.34533 0)
(0.515213 -2.88649 0)
(0.00497086 -0.909646 0)
(-0.0118711 -0.914672 0)
(-0.00410511 -0.924694 0)
(-0.0248677 -0.94856 0)
(-0.0304006 -0.967997 0)
(-0.0647508 -1.00406 0)
(-0.099646 -1.03185 0)
(-0.168017 -1.07183 0)
(-0.248291 -1.08188 0)
(-0.34007 -1.07199 0)
(-0.397488 -1.00989 0)
(-0.403323 -0.956911 0)
(-0.380258 -0.919801 0)
(-0.316036 -0.903319 0)
(-0.257497 -0.938477 0)
(-0.194595 -1.00357 0)
(-0.161099 -1.10482 0)
(-0.131708 -1.23631 0)
(-0.130171 -1.40488 0)
(-0.124915 -1.62578 0)
(-0.174883 -1.95256 0)
(-0.200725 -2.42335 0)
(-0.396502 -3.00278 0)
(-0.000725673 -0.901103 0)
(-0.0182649 -0.908479 0)
(-0.0185539 -0.915301 0)
(-0.0404609 -0.93385 0)
(-0.0519651 -0.946708 0)
(-0.083586 -0.97269 0)
(-0.113999 -0.985785 0)
(-0.164402 -1.00893 0)
(-0.220862 -1.00636 0)
(-0.283635 -1.01001 0)
(-0.325526 -0.977866 0)
(-0.340997 -0.956064 0)
(-0.339609 -0.943337 0)
(-0.313724 -0.941557 0)
(-0.289026 -0.976435 0)
(-0.266621 -1.02646 0)
(-0.269915 -1.11254 0)
(-0.271106 -1.22582 0)
(-0.315899 -1.36955 0)
(-0.365639 -1.54723 0)
(-0.501168 -1.80466 0)
(-0.686501 -2.12781 0)
(-1.11929 -2.62564 0)
(-0.000417029 -0.89059 0)
(-0.0205515 -0.896969 0)
(-0.0263793 -0.902165 0)
(-0.0501991 -0.915429 0)
(-0.0646037 -0.924143 0)
(-0.0954432 -0.942356 0)
(-0.12262 -0.949644 0)
(-0.164181 -0.965063 0)
(-0.203721 -0.96073 0)
(-0.25018 -0.96748 0)
(-0.287679 -0.951017 0)
(-0.308822 -0.943276 0)
(-0.320419 -0.945451 0)
(-0.317382 -0.95465 0)
(-0.324554 -0.98394 0)
(-0.333883 -1.02365 0)
(-0.360968 -1.09775 0)
(-0.392276 -1.19163 0)
(-0.469473 -1.30709 0)
(-0.556492 -1.44331 0)
(-0.722347 -1.62792 0)
(-0.94024 -1.81345 0)
(-1.32926 -2.06705 0)
(-0.00331908 -0.880031 0)
(-0.024724 -0.882609 0)
(-0.0353832 -0.885352 0)
(-0.0596301 -0.895788 0)
(-0.0765343 -0.900958 0)
(-0.106165 -0.914924 0)
(-0.131877 -0.916457 0)
(-0.168868 -0.928161 0)
(-0.201801 -0.919678 0)
(-0.240007 -0.926589 0)
(-0.271989 -0.918562 0)
(-0.292906 -0.924634 0)
(-0.313186 -0.934492 0)
(-0.327413 -0.93912 0)
(-0.355476 -0.959532 0)
(-0.380218 -0.991661 0)
(-0.424497 -1.05349 0)
(-0.474749 -1.11851 0)
(-0.570955 -1.20262 0)
(-0.679401 -1.29338 0)
(-0.865331 -1.41143 0)
(-1.09491 -1.51129 0)
(-1.44237 -1.61692 0)
(-0.00651115 -0.862383 0)
(-0.0306546 -0.864903 0)
(-0.0440445 -0.866903 0)
(-0.0695377 -0.874394 0)
(-0.0878569 -0.877004 0)
(-0.117631 -0.88714 0)
(-0.142641 -0.886026 0)
(-0.176354 -0.895218 0)
(-0.204936 -0.888535 0)
(-0.234381 -0.897339 0)
(-0.26288 -0.896921 0)
(-0.288233 -0.902104 0)
(-0.321869 -0.909341 0)
(-0.350057 -0.91257 0)
(-0.387591 -0.929181 0)
(-0.423218 -0.95476 0)
(-0.480312 -1.00082 0)
(-0.54491 -1.04555 0)
(-0.643407 -1.10025 0)
(-0.757636 -1.15157 0)
(-0.929373 -1.21375 0)
(-1.13345 -1.24673 0)
(-1.41186 -1.25354 0)
(-0.00693683 -0.842748 0)
(-0.0306408 -0.845088 0)
(-0.0458298 -0.846236 0)
(-0.0711554 -0.852077 0)
(-0.0901357 -0.852533 0)
(-0.118323 -0.860342 0)
(-0.142108 -0.857358 0)
(-0.172186 -0.866152 0)
(-0.199214 -0.861234 0)
(-0.228216 -0.869046 0)
(-0.261279 -0.864279 0)
(-0.291826 -0.866469 0)
(-0.328482 -0.872367 0)
(-0.361734 -0.874497 0)
(-0.402916 -0.886029 0)
(-0.445764 -0.900221 0)
(-0.509274 -0.931024 0)
(-0.580311 -0.956196 0)
(-0.680311 -0.987184 0)
(-0.793675 -1.00545 0)
(-0.953536 -1.02745 0)
(-1.13638 -1.01921 0)
(-1.37375 -0.983889 0)
(-0.00713294 -0.824602 0)
(-0.0306722 -0.825922 0)
(-0.0464341 -0.826042 0)
(-0.0715873 -0.83004 0)
(-0.0906991 -0.829308 0)
(-0.118216 -0.835109 0)
(-0.141562 -0.831463 0)
(-0.170968 -0.838033 0)
(-0.19945 -0.831685 0)
(-0.23027 -0.835246 0)
(-0.264368 -0.832305 0)
(-0.293719 -0.834762 0)
(-0.332911 -0.83801 0)
(-0.36891 -0.837905 0)
(-0.415166 -0.843319 0)
(-0.461915 -0.847991 0)
(-0.526406 -0.864097 0)
(-0.598223 -0.874317 0)
(-0.692557 -0.885256 0)
(-0.79827 -0.879865 0)
(-0.934169 -0.872149 0)
(-1.08366 -0.832196 0)
(-1.26738 -0.763136 0)
(-0.00791029 -0.804827 0)
(-0.0316966 -0.805764 0)
(-0.0483682 -0.805137 0)
(-0.0732364 -0.807856 0)
(-0.092531 -0.805664 0)
(-0.119498 -0.809578 0)
(-0.142748 -0.804335 0)
(-0.171662 -0.808418 0)
(-0.19977 -0.80165 0)
(-0.228617 -0.804359 0)
(-0.261116 -0.800494 0)
(-0.292872 -0.798372 0)
(-0.33252 -0.79686 0)
(-0.371198 -0.792941 0)
(-0.418324 -0.79271 0)
(-0.46702 -0.789793 0)
(-0.528978 -0.794011 0)
(-0.598478 -0.790395 0)
(-0.686019 -0.785106 0)
(-0.783073 -0.762449 0)
(-0.900488 -0.737139 0)
(-1.02722 -0.681087 0)
(-1.17338 -0.602329 0)
(-0.00837672 -0.784796 0)
(-0.0318002 -0.78534 0)
(-0.0493043 -0.78421 0)
(-0.0735942 -0.785778 0)
(-0.093323 -0.782656 0)
(-0.119155 -0.784786 0)
(-0.142321 -0.778815 0)
(-0.169323 -0.780872 0)
(-0.196829 -0.774131 0)
(-0.224796 -0.773719 0)
(-0.258516 -0.767266 0)
(-0.290198 -0.763133 0)
(-0.329101 -0.758605 0)
(-0.367275 -0.751747 0)
(-0.413823 -0.746076 0)
(-0.461647 -0.736861 0)
(-0.521039 -0.730989 0)
(-0.586009 -0.71693 0)
(-0.665481 -0.699268 0)
(-0.749887 -0.665902 0)
(-0.847613 -0.627825 0)
(-0.950418 -0.561415 0)
(-1.06293 -0.476595 0)
(-0.00832106 -0.764533 0)
(-0.0311212 -0.764776 0)
(-0.0484235 -0.76318 0)
(-0.0719899 -0.763811 0)
(-0.0912915 -0.759896 0)
(-0.116151 -0.760574 0)
(-0.138623 -0.753921 0)
(-0.164732 -0.753937 0)
(-0.191726 -0.745887 0)
(-0.220025 -0.742784 0)
(-0.252012 -0.734767 0)
(-0.283616 -0.727989 0)
(-0.321202 -0.71942 0)
(-0.359313 -0.708541 0)
(-0.403995 -0.697942 0)
(-0.450483 -0.682948 0)
(-0.505589 -0.669006 0)
(-0.565472 -0.646063 0)
(-0.635827 -0.619918 0)
(-0.709231 -0.579649 0)
(-0.791573 -0.534098 0)
(-0.876532 -0.463799 0)
(-0.964629 -0.380687 0)
(-0.00823628 -0.745178 0)
(-0.0299579 -0.745109 0)
(-0.0470684 -0.743113 0)
(-0.0695473 -0.742794 0)
(-0.0885958 -0.738206 0)
(-0.112325 -0.737331 0)
(-0.13452 -0.729878 0)
(-0.159651 -0.727625 0)
(-0.18611 -0.718388 0)
(-0.213125 -0.713251 0)
(-0.243994 -0.703069 0)
(-0.274699 -0.693715 0)
(-0.310665 -0.682133 0)
(-0.346842 -0.66864 0)
(-0.389079 -0.653901 0)
(-0.432671 -0.634863 0)
(-0.483445 -0.614808 0)
(-0.537143 -0.58632 0)
(-0.598472 -0.554338 0)
(-0.661203 -0.510109 0)
(-0.729752 -0.459768 0)
(-0.798451 -0.388927 0)
(-0.866978 -0.30853 0)
(-0.00811624 -0.726227 0)
(-0.0290385 -0.725857 0)
(-0.0458007 -0.72344 0)
(-0.0673598 -0.722217 0)
(-0.0857645 -0.716933 0)
(-0.108403 -0.714595 0)
(-0.129534 -0.706374 0)
(-0.153446 -0.702313 0)
(-0.178143 -0.69215 0)
(-0.204072 -0.684904 0)
(-0.233066 -0.672896 0)
(-0.262559 -0.661367 0)
(-0.296221 -0.64692 0)
(-0.330779 -0.63021 0)
(-0.369947 -0.611705 0)
(-0.410636 -0.58869 0)
(-0.456566 -0.563998 0)
(-0.504613 -0.531051 0)
(-0.557766 -0.495049 0)
(-0.611731 -0.448128 0)
(-0.669096 -0.395603 0)
(-0.725144 -0.32591 0)
(-0.779276 -0.250454 0)
(-0.00777695 -0.707872 0)
(-0.0272878 -0.707283 0)
(-0.043305 -0.704602 0)
(-0.0633656 -0.702707 0)
(-0.0808645 -0.696939 0)
(-0.101947 -0.693434 0)
(-0.122025 -0.684558 0)
(-0.144485 -0.678872 0)
(-0.168109 -0.667405 0)
(-0.192871 -0.658153 0)
(-0.220376 -0.644117 0)
(-0.248285 -0.630337 0)
(-0.279835 -0.613344 0)
(-0.311793 -0.594656 0)
(-0.347906 -0.573336 0)
(-0.384898 -0.547928 0)
(-0.426187 -0.519984 0)
(-0.468502 -0.484794 0)
(-0.514409 -0.446319 0)
(-0.560289 -0.398558 0)
(-0.60817 -0.345575 0)
(-0.653358 -0.278797 0)
(-0.695933 -0.207537 0)
(-0.0072814 -0.691095 0)
(-0.0254604 -0.690266 0)
(-0.0404962 -0.687258 0)
(-0.0593069 -0.684603 0)
(-0.0757968 -0.678208 0)
(-0.0957032 -0.673374 0)
(-0.11455 -0.663651 0)
(-0.135825 -0.65617 0)
(-0.157714 -0.643541 0)
(-0.180849 -0.632596 0)
(-0.205951 -0.617229 0)
(-0.231831 -0.601891 0)
(-0.260605 -0.583106 0)
(-0.29025 -0.562114 0)
(-0.323048 -0.538235 0)
(-0.356646 -0.510393 0)
(-0.393309 -0.479965 0)
(-0.430652 -0.442808 0)
(-0.47012 -0.402739 0)
(-0.509307 -0.354297 0)
(-0.549206 -0.301876 0)
(-0.586262 -0.237984 0)
(-0.620388 -0.171187 0)
(-0.00679208 -0.674959 0)
(-0.023378 -0.6739 0)
(-0.0373943 -0.670563 0)
(-0.0545516 -0.667256 0)
(-0.0698571 -0.660334 0)
(-0.0879538 -0.65454 0)
(-0.105293 -0.6442 0)
(-0.124641 -0.635568 0)
(-0.144695 -0.622095 0)
(-0.166005 -0.609751 0)
(-0.189308 -0.592771 0)
(-0.21331 -0.575473 0)
(-0.239899 -0.554487 0)
(-0.266814 -0.531992 0)
(-0.296408 -0.506433 0)
(-0.326368 -0.477423 0)
(-0.35883 -0.445386 0)
(-0.391434 -0.407729 0)
(-0.425401 -0.367016 0)
(-0.458651 -0.31926 0)
(-0.491865 -0.268008 0)
(-0.522268 -0.207555 0)
(-0.549547 -0.14458 0)
(-0.00602801 -0.660927 0)
(-0.0208121 -0.659664 0)
(-0.0333511 -0.656055 0)
(-0.0488242 -0.652139 0)
(-0.0627315 -0.644736 0)
(-0.0792854 -0.637919 0)
(-0.095204 -0.626843 0)
(-0.113124 -0.616728 0)
(-0.131572 -0.602008 0)
(-0.151265 -0.587938 0)
(-0.17225 -0.569727 0)
(-0.193903 -0.551269 0)
(-0.217498 -0.529368 0)
(-0.241745 -0.505556 0)
(-0.268138 -0.478386 0)
(-0.294867 -0.44792 0)
(-0.323363 -0.414565 0)
(-0.351793 -0.376202 0)
(-0.380892 -0.335161 0)
(-0.409241 -0.287818 0)
(-0.436911 -0.237868 0)
(-0.462185 -0.180308 0)
(-0.484347 -0.121056 0)
(-0.00531529 -0.647918 0)
(-0.0182153 -0.646376 0)
(-0.0293542 -0.642336 0)
(-0.0429807 -0.637689 0)
(-0.0554472 -0.629649 0)
(-0.0701068 -0.621896 0)
(-0.0843877 -0.610128 0)
(-0.100284 -0.599041 0)
(-0.116654 -0.583702 0)
(-0.134081 -0.56891 0)
(-0.152915 -0.549836 0)
(-0.172403 -0.530031 0)
(-0.193773 -0.506293 0)
(-0.215442 -0.481157 0)
(-0.238871 -0.452932 0)
(-0.262341 -0.422002 0)
(-0.287227 -0.388039 0)
(-0.311815 -0.350011 0)
(-0.336813 -0.309115 0)
(-0.360905 -0.263084 0)
(-0.383988 -0.214627 0)
(-0.405014 -0.160059 0)
(-0.422969 -0.103883 0)
(-0.00433969 -0.637482 0)
(-0.0150072 -0.635708 0)
(-0.0242356 -0.631347 0)
(-0.0356872 -0.62612 0)
(-0.0462658 -0.617627 0)
(-0.0588857 -0.609028 0)
(-0.0714078 -0.596631 0)
(-0.0855881 -0.584479 0)
(-0.100378 -0.568123 0)
(-0.116245 -0.55167 0)
(-0.133206 -0.53128 0)
(-0.150613 -0.510405 0)
(-0.169279 -0.486178 0)
(-0.188268 -0.460434 0)
(-0.208768 -0.431282 0)
(-0.229305 -0.399526 0)
(-0.250897 -0.364852 0)
(-0.272127 -0.32659 0)
(-0.293515 -0.285824 0)
(-0.313961 -0.240653 0)
(-0.333334 -0.193516 0)
(-0.350975 -0.141379 0)
(-0.365785 -0.088047 0)
(-0.00349847 -0.628336 0)
(-0.0120519 -0.626244 0)
(-0.0194884 -0.621413 0)
(-0.0286709 -0.615437 0)
(-0.037268 -0.606203 0)
(-0.0475552 -0.596545 0)
(-0.0579899 -0.583175 0)
(-0.069864 -0.569877 0)
(-0.0825512 -0.552792 0)
(-0.0961614 -0.535895 0)
(-0.111 -0.515192 0)
(-0.126369 -0.493759 0)
(-0.143073 -0.46833 0)
(-0.15988 -0.44147 0)
(-0.177884 -0.411582 0)
(-0.195711 -0.379694 0)
(-0.214351 -0.344892 0)
(-0.232518 -0.307234 0)
(-0.250756 -0.266948 0)
(-0.268078 -0.223137 0)
(-0.284348 -0.177295 0)
(-0.299117 -0.127549 0)
(-0.311327 -0.0764929 0)
(-0.00249016 -0.622123 0)
(-0.00871937 -0.619904 0)
(-0.0140465 -0.61489 0)
(-0.0207789 -0.608509 0)
(-0.0271259 -0.598863 0)
(-0.0349137 -0.588444 0)
(-0.0430132 -0.57439 0)
(-0.0524655 -0.560014 0)
(-0.0629301 -0.541835 0)
(-0.0745384 -0.523281 0)
(-0.0875707 -0.501043 0)
(-0.101166 -0.47838 0)
(-0.116027 -0.452609 0)
(-0.130818 -0.425656 0)
(-0.146526 -0.395352 0)
(-0.161967 -0.363075 0)
(-0.178001 -0.327913 0)
(-0.193503 -0.290201 0)
(-0.208996 -0.250124 0)
(-0.223598 -0.207102 0)
(-0.237291 -0.162347 0)
(-0.249701 -0.114481 0)
(-0.259964 -0.0654876 0)
(-0.001795 -0.616832 0)
(-0.00621354 -0.6144 0)
(-0.0098913 -0.609067 0)
(-0.0145544 -0.602091 0)
(-0.0190126 -0.591789 0)
(-0.0245485 -0.580407 0)
(-0.0304632 -0.565348 0)
(-0.0373883 -0.549723 0)
(-0.0452847 -0.530444 0)
(-0.054026 -0.511024 0)
(-0.0641378 -0.488272 0)
(-0.0748976 -0.465061 0)
(-0.0872218 -0.438368 0)
(-0.0998838 -0.41074 0)
(-0.113661 -0.380129 0)
(-0.127136 -0.348013 0)
(-0.141089 -0.313065 0)
(-0.154352 -0.276065 0)
(-0.167522 -0.23657 0)
(-0.179815 -0.194705 0)
(-0.191335 -0.15093 0)
(-0.201752 -0.104788 0)
(-0.210397 -0.0573435 0)
(-0.00104279 -0.614433 0)
(-0.00374093 -0.612117 0)
(-0.00607953 -0.606832 0)
(-0.00913496 -0.599671 0)
(-0.012138 -0.589111 0)
(-0.0158366 -0.577241 0)
(-0.0198133 -0.561742 0)
(-0.0244027 -0.545398 0)
(-0.0297178 -0.525335 0)
(-0.0356443 -0.504592 0)
(-0.0428433 -0.480266 0)
(-0.0507113 -0.455438 0)
(-0.0600369 -0.427683 0)
(-0.0697867 -0.399327 0)
(-0.0808994 -0.368116 0)
(-0.0921135 -0.335732 0)
(-0.104094 -0.300677 0)
(-0.115557 -0.263842 0)
(-0.126922 -0.224628 0)
(-0.137322 -0.183371 0)
(-0.147008 -0.140373 0)
(-0.155631 -0.0955216 0)
(-0.162917 -0.0495171 0)
(-0.000672538 -0.611667 0)
(-0.00241527 -0.608994 0)
(-0.0040348 -0.603313 0)
(-0.00607212 -0.595691 0)