/*--------------------------------*- C++ -*----------------------------------*\
| =========                 |                                                 |
| \\      /  F ield         | OpenFOAM: The Open Source CFD Toolbox           |
|  \\    /   O peration     | Version:  2012                                  |
|   \\  /    A nd           | Website:  www.openfoam.com                      |
|    \\/     M anipulation  |                                                 |
\*---------------------------------------------------------------------------*/
FoamFile
{
    version     2.0;
    format      ascii;
    class       volVectorField;
    location    "0.23";
    object      Uc;
}
// * * * * * * * * * * * * * * * * * * * * * * * * * * * * * * * * * * * * * //

dimensions      [0 1 -1 0 0 0 0];


internalField   nonuniform List<vector> 
2268
(
(0.0252237 -0.0119205 0)
(0.0755901 -0.0118822 0)
(0.126063 -0.011971 0)
(0.177056 -0.0121279 0)
(0.228027 -0.0119603 0)
(0.279081 -0.0121675 0)
(0.330711 -0.0122327 0)
(0.382453 -0.0122202 0)
(0.433627 -0.0119642 0)
(0.484071 -0.0118754 0)
(0.533082 -0.0112867 0)
(0.580473 -0.01111 0)
(0.625066 -0.00996428 0)
(0.660919 -0.00697972 0)
(0.689567 -0.00655883 0)
(0.710794 -0.00347282 0)
(0.714346 0.00179413 0)
(0.695508 0.00710873 0)
(0.651063 0.0138954 0)
(0.573227 0.0228893 0)
(0.456604 0.0322258 0)
(0.297877 0.0427876 0)
(0.103669 0.0489968 0)
(0.0251979 -0.0357494 0)
(0.0755641 -0.0356587 0)
(0.126044 -0.0359038 0)
(0.177007 -0.0363786 0)
(0.227979 -0.0358869 0)
(0.279042 -0.0365008 0)
(0.330682 -0.0367041 0)
(0.382492 -0.0366863 0)
(0.433792 -0.0359268 0)
(0.484294 -0.0356192 0)
(0.533444 -0.0339325 0)
(0.581294 -0.0334744 0)
(0.625968 -0.0297866 0)
(0.662777 -0.0214968 0)
(0.692473 -0.0196145 0)
(0.713187 -0.0102381 0)
(0.717749 0.00472433 0)
(0.700354 0.0213025 0)
(0.655505 0.0419009 0)
(0.575338 0.0695549 0)
(0.454141 0.0979521 0)
(0.291639 0.128872 0)
(0.100011 0.145262 0)
(0.0251649 -0.0595505 0)
(0.0755367 -0.0594656 0)
(0.126017 -0.0598095 0)
(0.176933 -0.0606202 0)
(0.227937 -0.0598384 0)
(0.279055 -0.0608398 0)
(0.330759 -0.0612045 0)
(0.382731 -0.0612323 0)
(0.434312 -0.0600015 0)
(0.485125 -0.0594252 0)
(0.534802 -0.0568313 0)
(0.583308 -0.0561126 0)
(0.628472 -0.0496054 0)
(0.667427 -0.037483 0)
(0.699957 -0.0330358 0)
(0.721965 -0.0170069 0)
(0.729483 0.00578415 0)
(0.717911 0.0339324 0)
(0.680679 0.0680617 0)
(0.610953 0.114232 0)
(0.500306 0.162843 0)
(0.339377 0.216833 0)
(0.122434 0.250396 0)
(0.0251237 -0.0833165 0)
(0.0754632 -0.083295 0)
(0.125877 -0.083662 0)
(0.176695 -0.0848466 0)
(0.227721 -0.0838303 0)
(0.278891 -0.0851886 0)
(0.330636 -0.085745 0)
(0.382738 -0.0858764 0)
(0.434607 -0.0842468 0)
(0.485916 -0.0834419 0)
(0.536269 -0.0800882 0)
(0.585269 -0.0789364 0)
(0.63095 -0.0697144 0)
(0.671432 -0.0549151 0)
(0.706764 -0.047675 0)
(0.731183 -0.0243087 0)
(0.739582 0.00556429 0)
(0.728254 0.0449742 0)
(0.690149 0.092624 0)
(0.617128 0.157131 0)
(0.502962 0.226189 0)
(0.33905 0.307004 0)
(0.121379 0.365628 0)
(0.0250837 -0.107044 0)
(0.0753746 -0.107124 0)
(0.125708 -0.107445 0)
(0.176446 -0.109058 0)
(0.227545 -0.107882 0)
(0.278846 -0.109564 0)
(0.33073 -0.110344 0)
(0.383072 -0.110637 0)
(0.435403 -0.108731 0)
(0.487483 -0.107819 0)
(0.538896 -0.103805 0)
(0.589048 -0.102078 0)
(0.636191 -0.0904411 0)
(0.679655 -0.0738604 0)
(0.718544 -0.0638059 0)
(0.746909 -0.0331231 0)
(0.76211 0.00322574 0)
(0.760496 0.0534289 0)
(0.734408 0.114507 0)
(0.675017 0.197825 0)
(0.571946 0.28816 0)
(0.407089 0.400407 0)
(0.152871 0.495244 0)
(0.0250096 -0.130718 0)
(0.0751798 -0.130928 0)
(0.125375 -0.13115 0)
(0.175973 -0.133244 0)
(0.22707 -0.131993 0)
(0.278435 -0.133972 0)
(0.330384 -0.135007 0)
(0.382874 -0.135517 0)
(0.435603 -0.133501 0)
(0.488331 -0.13258 0)
(0.540668 -0.128075 0)
(0.592134 -0.125832 0)
(0.640991 -0.112056 0)
(0.687138 -0.0945944 0)
(0.728843 -0.0811595 0)
(0.759887 -0.0438457 0)
(0.779354 -0.00243526 0)
(0.782065 0.0585714 0)
(0.758374 0.132889 0)
(0.698233 0.235934 0)
(0.592794 0.348592 0)
(0.419509 0.499778 0)
(0.155294 0.640883 0)
(0.0249379 -0.154323 0)
(0.0749841 -0.154685 0)
(0.125071 -0.154786 0)
(0.175591 -0.157396 0)
(0.22673 -0.156157 0)
(0.278236 -0.158424 0)
(0.33037 -0.159743 0)
(0.383171 -0.16054 0)
(0.436513 -0.158606 0)
(0.490164 -0.157749 0)
(0.543849 -0.153012 0)
(0.597297 -0.150477 0)
(0.648806 -0.134843 0)
(0.698859 -0.117271 0)
(0.745063 -0.100027 0)
(0.782312 -0.0572524 0)
(0.810889 -0.0117337 0)
(0.825133 0.0598574 0)
(0.817436 0.146436 0)
(0.777251 0.2698 0)
(0.694001 0.403899 0)
(0.532475 0.6027 0)
(0.211806 0.814372 0)
(0.0248281 -0.177842 0)
(0.0746544 -0.178365 0)
(0.124562 -0.178363 0)
(0.174929 -0.181497 0)
(0.225966 -0.180343 0)
(0.277454 -0.182912 0)
(0.329635 -0.184553 0)
(0.382619 -0.185723 0)
(0.43644 -0.184067 0)
(0.490867 -0.183365 0)
(0.54574 -0.1787 0)
(0.600735 -0.176037 0)
(0.65443 -0.159 0)
(0.707917 -0.142046 0)
(0.758281 -0.12089 0)
(0.80122 -0.074286 0)
(0.836587 -0.0249199 0)
(0.856065 0.0571067 0)
(0.856043 0.152834 0)
(0.825418 0.296866 0)
(0.74705 0.453213 0)
(0.580138 0.708604 0)
(0.232455 1.02433 0)
(-0.0478038 0.0202498 0)
(-0.141738 0.0195385 0)
(-0.212698 0.0104767 0)
(-0.24809 0.00440988 0)
(-0.254261 -0.00195301 0)
(-0.236315 -0.00584891 0)
(-0.205564 -0.00739896 0)
(-0.167573 -0.0089284 0)
(-0.126323 -0.00878444 0)
(-0.0870426 -0.00809006 0)
(-0.0524903 -0.00677263 0)
(-0.0243214 -0.00537445 0)
(-0.00338184 -0.00369682 0)
(0.0104617 -0.00235577 0)
(0.0178891 -0.000967169 0)
(0.0196863 3.93346e-05 0)
(0.0171936 0.000857931 0)
(0.0115464 0.00138126 0)
(0.00405388 0.00164296 0)
(-0.0570087 0.0646648 0)
(-0.159771 0.0584554 0)
(-0.224026 0.0287381 0)
(-0.249805 0.0118325 0)
(-0.252225 -0.00605775 0)
(-0.234003 -0.017465 0)
(-0.20379 -0.0220496 0)
(-0.166061 -0.0268211 0)
(-0.124815 -0.0263158 0)
(-0.0854611 -0.0243391 0)
(-0.0507703 -0.0203078 0)
(-0.0226315 -0.0161205 0)
(-0.00178945 -0.0110518 0)
(0.0118359 -0.00701317 0)
(0.0190428 -0.0028617 0)
(0.0206504 0.000158932 0)
(0.0179464 0.00262278 0)
(0.0120288 0.00420993 0)
(0.00421739 0.00499847 0)
(-0.0549214 0.112107 0)
(-0.162049 0.0999571 0)
(-0.239582 0.047211 0)
(-0.27139 0.0175192 0)
(-0.2708 -0.0113031 0)
(-0.248274 -0.029888 0)
(-0.213514 -0.0375985 0)
(-0.171913 -0.0453508 0)
(-0.127756 -0.0444466 0)
(-0.0862816 -0.0409218 0)
(-0.0503278 -0.0341054 0)
(-0.0213596 -0.0269441 0)
(-0.000138799 -0.0184487 0)
(0.0135865 -0.0115781 0)
(0.0205748 -0.00466158 0)
(0.0218164 0.000420438 0)
(0.0186843 0.0045179 0)
(0.0124293 0.00716709 0)
(0.00434449 0.0084777 0)
(-0.0662956 0.1635 0)
(-0.18442 0.144043 0)
(-0.249747 0.0635561 0)
(-0.267163 0.0217767 0)
(-0.264572 -0.0172504 0)
(-0.242774 -0.0431299 0)
(-0.208684 -0.0539779 0)
(-0.166774 -0.0648285 0)
(-0.121862 -0.0631888 0)
(-0.0800438 -0.0579412 0)
(-0.0439052 -0.0480818 0)
(-0.015366 -0.0377587 0)
(0.00522657 -0.0257481 0)
(0.0181044 -0.0159223 0)
(0.0243185 -0.00625968 0)
(0.0248702 0.000929701 0)
(0.0210009 0.00666133 0)
(0.0138767 0.0103895 0)
(0.00482977 0.0122176 0)
(-0.0737912 0.22292 0)
(-0.214168 0.194245 0)
(-0.303745 0.0789082 0)
(-0.32008 0.0204461 0)
(-0.29945 -0.0261334 0)
(-0.26802 -0.0572243 0)
(-0.22704 -0.0721504 0)
(-0.178032 -0.0856634 0)
(-0.127883 -0.0831218 0)
(-0.0820698 -0.075615 0)
(-0.0434879 -0.0625212 0)
(-0.0132049 -0.0486692 0)
(0.00822155 -0.0330387 0)
(0.0213498 -0.0200208 0)
(0.0271625 -0.00760287 0)
(0.0270389 0.00176535 0)
(0.0224183 0.00911203 0)
(0.0146805 0.0139359 0)
(0.00508957 0.0162747 0)
(-0.0907297 0.292733 0)
(-0.243196 0.248662 0)
(-0.308081 0.0898585 0)
(-0.310035 0.0169408 0)
(-0.29717 -0.0372118 0)
(-0.265247 -0.0734296 0)
(-0.221715 -0.0922285 0)
(-0.170421 -0.108584 0)
(-0.117421 -0.104409 0)
(-0.0705141 -0.0940989 0)
(-0.0315786 -0.0773398 0)
(-0.00227824 -0.0595237 0)
(0.017819 -0.0401738 0)
(0.0294079 -0.0237258 0)
(0.0338102 -0.00856827 0)
(0.0323857 0.00306443 0)
(0.0263752 0.0120108 0)
(0.017103 0.0179486 0)
(0.00589525 0.0207854 0)
(-0.110593 0.378201 0)
(-0.313653 0.314088 0)
(-0.42217 0.0978565 0)
(-0.407685 0.00327927 0)
(-0.351877 -0.0530978 0)
(-0.303947 -0.0918455 0)
(-0.250072 -0.115581 0)
(-0.187476 -0.134011 0)
(-0.126692 -0.127714 0)
(-0.073458 -0.113721 0)
(-0.0306318 -0.0928249 0)
(0.00124463 -0.0703889 0)
(0.0223952 -0.0471801 0)
(0.0341852 -0.0269897 0)
(0.0378865 -0.00907596 0)
(0.0354533 0.004889 0)
(0.0284437 0.0154011 0)
(0.0183205 0.0224851 0)
(0.00629427 0.0258089 0)
(-0.138069 0.483804 0)
(-0.352632 0.385793 0)
(-0.415787 0.0988409 0)
(-0.39295 -0.0139132 0)
(-0.36347 -0.0725199 0)
(-0.313076 -0.114582 0)
(-0.24946 -0.143154 0)
(-0.180232 -0.162844 0)
(-0.113364 -0.15351 0)
(-0.057486 -0.134667 0)
(-0.0138156 -0.108999 0)
(0.0169256 -0.0811769 0)
(0.0363454 -0.0539747 0)
(0.0461214 -0.0296932 0)
(0.0478327 -0.00899832 0)
(0.0433378 0.00743524 0)
(0.0340688 0.0194568 0)
(0.0216865 0.0276803 0)
(0.00741338 0.0314787 0)
(0.024676 -0.21438 0)
(0.074202 -0.215158 0)
(0.12389 -0.215103 0)
(0.174091 -0.219024 0)
(0.225062 -0.218173 0)
(0.276686 -0.221309 0)
(0.329183 -0.223587 0)
(0.382766 -0.225592 0)
(0.437666 -0.224819 0)
(0.493782 -0.224743 0)
(0.55118 -0.220951 0)
(0.609662 -0.218563 0)
(0.66858 -0.201075 0)
(0.729377 -0.186364 0)
(0.788336 -0.15964 0)
(0.844781 -0.112568 0)
(0.896385 -0.0552245 0)
(0.938448 0.0359232 0)
(0.97474 0.137547 0)
(1.0134 0.287767 0)
(1.05733 0.455186 0)
(1.12373 0.718766 0)
(1.20581 1.09597 0)
(0.0243417 -0.263653 0)
(0.0731909 -0.264773 0)
(0.12229 -0.26479 0)
(0.171951 -0.269721 0)
(0.222489 -0.269514 0)
(0.273947 -0.273589 0)
(0.326525 -0.276931 0)
(0.380549 -0.280419 0)
(0.436471 -0.281393 0)
(0.494388 -0.282799 0)
(0.55457 -0.281089 0)
(0.617024 -0.279993 0)
(0.682519 -0.264708 0)
(0.751619 -0.253307 0)
(0.822099 -0.222811 0)
(0.894612 -0.17903 0)
(0.962895 -0.109274 0)
(1.02622 -0.0159675 0)
(1.08298 0.0958976 0)
(1.12811 0.245196 0)
(1.16596 0.415547 0)
(1.22905 0.628241 0)
(1.36181 0.970529 0)
(0.0239238 -0.312171 0)
(0.0719331 -0.31362 0)
(0.120314 -0.313932 0)
(0.169383 -0.319824 0)
(0.219495 -0.320584 0)
(0.270843 -0.325861 0)
(0.323611 -0.330553 0)
(0.378185 -0.335962 0)
(0.435228 -0.339405 0)
(0.49513 -0.343221 0)
(0.55831 -0.344672 0)
(0.625943 -0.347176 0)
(0.700038 -0.337843 0)
(0.780461 -0.330477 0)
(0.867036 -0.303515 0)
(0.957347 -0.262 0)
(1.04589 -0.183951 0)
(1.1372 -0.0967318 0)
(1.22577 0.0305702 0)
(1.30862 0.18198 0)
(1.39038 0.358623 0)
(1.47977 0.531891 0)
(1.60284 0.809714 0)
(0.023352 -0.359694 0)
(0.0701885 -0.361438 0)
(0.117451 -0.362257 0)
(0.165433 -0.369057 0)
(0.214497 -0.371045 0)
(0.264978 -0.377762 0)
(0.317115 -0.384105 0)
(0.371376 -0.391813 0)
(0.428672 -0.398491 0)
(0.489678 -0.405674 0)
(0.554562 -0.410952 0)
(0.624914 -0.419601 0)
(0.70415 -0.419549 0)
(0.794471 -0.420407 0)
(0.897409 -0.404088 0)
(1.00867 -0.364052 0)
(1.12472 -0.287567 0)
(1.23943 -0.200213 0)
(1.34573 -0.0618296 0)
(1.43488 0.101578 0)
(1.49346 0.298017 0)
(1.54734 0.457926 0)
(1.63159 0.684793 0)
(0.0226243 -0.40591 0)
(0.0680092 -0.407925 0)
(0.113948 -0.409458 0)
(0.160719 -0.417102 0)
(0.208757 -0.420609 0)
(0.258556 -0.429001 0)
(0.310355 -0.437345 0)
(0.364446 -0.447489 0)
(0.421637 -0.457899 0)
(0.483137 -0.469412 0)
(0.549775 -0.479423 0)
(0.624406 -0.49687 0)
(0.710908 -0.508883 0)
(0.811167 -0.52265 0)
(0.92542 -0.520258 0)
(1.0435 -0.478715 0)
(1.14951 -0.396586 0)
(1.24077 -0.298448 0)
(1.31974 -0.14961 0)
(1.3969 0.0231018 0)
(1.48879 0.226663 0)
(1.57898 0.395103 0)
(1.65913 0.592478 0)
(0.0219458 -0.450713 0)
(0.0659456 -0.452974 0)
(0.110531 -0.455407 0)
(0.155817 -0.463691 0)
(0.202248 -0.468983 0)
(0.250395 -0.479084 0)
(0.300432 -0.489629 0)
(0.353049 -0.502471 0)
(0.409493 -0.517144 0)
(0.472091 -0.534914 0)
(0.541238 -0.550416 0)
(0.616179 -0.576241 0)
(0.698261 -0.599191 0)
(0.782819 -0.618816 0)
(0.866517 -0.623721 0)
(0.975452 -0.603044 0)
(1.15313 -0.557093 0)
(1.35384 -0.43167 0)
(1.48876 -0.231251 0)
(1.54965 -0.0331716 0)
(1.56413 0.177673 0)
(1.58732 0.332074 0)
(1.65289 0.510895 0)
(0.0211082 -0.493991 0)
(0.0633497 -0.496386 0)
(0.106216 -0.499903 0)
(0.14983 -0.508559 0)
(0.194768 -0.515961 0)
(0.242009 -0.527994 0)
(0.291788 -0.541056 0)
(0.344647 -0.557074 0)
(0.400462 -0.575393 0)
(0.459036 -0.5986 0)
(0.520824 -0.618999 0)
(0.584741 -0.64866 0)
(0.660017 -0.686153 0)
(0.701097 -0.658473 0)
(0.763414 -0.730719 0)
(0.958451 -0.799317 0)
(1.23006 -0.810311 0)
(1.49426 -0.645869 0)
(1.68375 -0.343273 0)
(1.76677 -0.0659307 0)
(1.79375 0.16891 0)
(1.80341 0.308514 0)
(1.8025 0.470732 0)
(0.0205615 -0.53588 0)
(0.0616219 -0.538238 0)
(0.103539 -0.543283 0)
(0.146541 -0.552257 0)
(0.190772 -0.561927 0)
(0.236317 -0.575423 0)
(0.282578 -0.590606 0)
(0.330348 -0.609759 0)
(0.381335 -0.632059 0)
(0.439571 -0.661601 0)
(0.526395 -0.706976 0)
(0.622362 -0.722682 0)
(0.645716 -0.712103 0)
(0.630215 -0.657924 0)
(0.723318 -0.886855 0)
(0.896354 -1.01165 0)
(1.02905 -1.00312 0)
(1.113 -0.803127 0)
(1.1684 -0.432284 0)
(1.25405 -0.14657 0)
(1.43077 0.0446733 0)
(1.6663 0.186167 0)
(1.90434 0.354658 0)
(0.0200506 -0.57771 0)
(0.0598286 -0.57975 0)
(0.100247 -0.586839 0)
(0.141524 -0.596108 0)
(0.183266 -0.607563 0)
(0.22703 -0.622607 0)
(0.276506 -0.642329 0)
(0.355988 -0.688267 0)
(0.48156 -0.733225 0)
(0.644056 -0.784336 0)
(0.817049 -0.846409 0)
(0.940048 -0.803267 0)
(0.945008 -0.659861 0)
(0.885202 -0.634565 0)
(0.857306 -0.975892 0)
(0.858608 -1.09804 0)
(0.852794 -1.04445 0)
(0.822163 -0.815517 0)
(0.831704 -0.485279 0)
(0.956732 -0.305462 0)
(1.17917 -0.1978 0)
(1.47552 -0.10613 0)
(1.83169 0.0495194 0)
(0.0206262 -0.619975 0)
(0.0625373 -0.62235 0)
(0.110061 -0.635406 0)
(0.172673 -0.654894 0)
(0.256061 -0.677707 0)
(0.360025 -0.703954 0)
(0.484718 -0.738354 0)
(0.6348 -0.824293 0)
(0.806963 -0.89674 0)
(0.986446 -0.96452 0)
(1.12992 -0.984437 0)
(1.20703 -0.866468 0)
(1.23208 -0.626915 0)
(1.17834 -0.553453 0)
(1.02533 -0.875322 0)
(0.874953 -1.04899 0)
(0.782541 -0.994916 0)
(0.729583 -0.78113 0)
(0.777097 -0.577129 0)
(0.945682 -0.50888 0)
(1.19228 -0.465996 0)
(1.48272 -0.427902 0)
(1.79103 -0.296791 0)
(0.0322713 -0.673535 0)
(0.0980927 -0.677785 0)
(0.169117 -0.69963 0)
(0.249829 -0.73501 0)
(0.342444 -0.774653 0)
(0.453167 -0.822917 0)
(0.583891 -0.876234 0)
(0.724364 -0.978576 0)
(0.872668 -1.06468 0)
(1.0264 -1.1316 0)
(1.1638 -1.09978 0)
(1.27102 -0.936495 0)
(1.32424 -0.635657 0)
(1.30473 -0.471162 0)
(1.19647 -0.695099 0)
(1.00567 -0.886425 0)
(0.830574 -0.888702 0)
(0.761443 -0.764724 0)
(0.810286 -0.690516 0)
(0.942088 -0.697572 0)
(1.12657 -0.710768 0)
(1.36109 -0.710959 0)
(1.64069 -0.604845 0)
(0.0349236 -0.741109 0)
(0.106288 -0.74817 0)
(0.179593 -0.77438 0)
(0.250908 -0.813136 0)
(0.318329 -0.857464 0)
(0.389887 -0.923407 0)
(0.472682 -0.990449 0)
(0.573051 -1.10654 0)
(0.710565 -1.22411 0)
(0.875864 -1.29295 0)
(1.0258 -1.22735 0)
(1.13823 -1.0298 0)
(1.199 -0.657025 0)
(1.21014 -0.44147 0)
(1.15388 -0.559505 0)
(0.997766 -0.673395 0)
(0.826924 -0.754092 0)
(0.760016 -0.762701 0)
(0.803177 -0.785144 0)
(0.913131 -0.84609 0)
(1.0698 -0.905321 0)
(1.2837 -0.967303 0)
(1.55532 -0.902724 0)
(0.0230436 -0.799406 0)
(0.0705511 -0.809422 0)
(0.119077 -0.835652 0)
(0.169605 -0.874404 0)
(0.223977 -0.918694 0)
(0.284352 -0.994868 0)
(0.356057 -1.07437 0)
(0.443834 -1.21183 0)
(0.544883 -1.3587 0)
(0.633411 -1.41358 0)
(0.686963 -1.31135 0)
(0.711894 -1.08397 0)
(0.730533 -0.68277 0)
(0.749832 -0.446413 0)
(0.725766 -0.47391 0)
(0.655749 -0.531777 0)
(0.610138 -0.678235 0)
(0.628555 -0.789929 0)
(0.710493 -0.88379 0)
(0.840567 -0.988854 0)
(1.00892 -1.08942 0)
(1.23924 -1.22988 0)
(1.53373 -1.20935 0)
(0.0173826 -0.840072 0)
(0.0534798 -0.852855 0)
(0.0889021 -0.876663 0)
(0.122158 -0.917674 0)
(0.153692 -0.961842 0)
(0.184732 -1.04368 0)
(0.218968 -1.13212 0)
(0.252908 -1.2765 0)
(0.266924 -1.40978 0)
(0.246671 -1.43121 0)
(0.191756 -1.29242 0)
(0.125679 -1.06161 0)
(0.111719 -0.709914 0)
(0.156514 -0.48379 0)
(0.208277 -0.46447 0)
(0.27125 -0.534237 0)
(0.35929 -0.718535 0)
(0.460845 -0.870342 0)
(0.581302 -1.00695 0)
(0.732335 -1.1484 0)
(0.918802 -1.28669 0)
(1.15922 -1.50595 0)
(1.47602 -1.54791 0)
(0.0114454 -0.869078 0)
(0.0343252 -0.883189 0)
(0.0555269 -0.903304 0)
(0.0737718 -0.942861 0)
(0.0886348 -0.983356 0)
(0.0978973 -1.06274 0)
(0.0981218 -1.14776 0)
(0.0789765 -1.27579 0)
(0.0232076 -1.36858 0)
(-0.067457 -1.36098 0)
(-0.171711 -1.20273 0)
(-0.254518 -1.00173 0)
(-0.263983 -0.74634 0)
(-0.196286 -0.560534 0)
(-0.0826702 -0.554065 0)
(0.0612047 -0.652673 0)
(0.200047 -0.828276 0)
(0.321226 -0.984615 0)
(0.444754 -1.13806 0)
(0.591368 -1.31662 0)
(0.777112 -1.49277 0)
(1.02032 -1.78618 0)
(1.36068 -1.92842 0)
(0.00718246 -0.887831 0)
(0.0201164 -0.900494 0)
(0.0292303 -0.916531 0)
(0.0334273 -0.952251 0)
(0.0314131 -0.986943 0)
(0.0184666 -1.05551 0)
(-0.0120634 -1.12459 0)
(-0.0689985 -1.22255 0)
(-0.157257 -1.27711 0)
(-0.264375 -1.25372 0)
(-0.361378 -1.10777 0)
(-0.419487 -0.955122 0)
(-0.413446 -0.789595 0)
(-0.328327 -0.670983 0)
(-0.188333 -0.698648 0)
(-0.046076 -0.79582 0)
(0.0674504 -0.938925 0)
(0.161079 -1.09001 0)
(0.254746 -1.25112 0)
(0.363098 -1.46 0)
(0.511292 -1.68522 0)
(0.730307 -2.05853 0)
(1.08829 -2.35825 0)
(0.00246404 -0.897557 0)
(0.00531865 -0.906697 0)
(0.00449345 -0.918719 0)
(-0.000861225 -0.94896 0)
(-0.0131137 -0.975955 0)
(-0.0375304 -1.02901 0)
(-0.0806485 -1.07713 0)
(-0.148581 -1.14456 0)
(-0.242612 -1.17193 0)
(-0.342985 -1.1504 0)
(-0.417017 -1.03924 0)
(-0.446589 -0.935596 0)
(-0.419552 -0.842461 0)
(-0.335161 -0.788604 0)
(-0.229729 -0.827833 0)
(-0.136104 -0.903852 0)
(-0.059216 -1.02241 0)
(0.00373239 -1.16404 0)
(0.0626174 -1.33057 0)
(0.1241 -1.5514 0)
(0.214289 -1.83359 0)
(0.355716 -2.27264 0)
(0.600862 -2.7506 0)
(-0.00228265 -0.897769 0)
(-0.00732556 -0.904345 0)
(-0.0139237 -0.91367 0)
(-0.0247585 -0.937798 0)
(-0.0423403 -0.957191 0)
(-0.0705765 -0.994907 0)
(-0.114675 -1.02363 0)
(-0.178535 -1.06566 0)
(-0.259566 -1.07494 0)
(-0.340672 -1.06504 0)
(-0.394639 -0.996009 0)
(-0.406872 -0.936889 0)
(-0.381458 -0.893981 0)
(-0.329522 -0.874213 0)
(-0.268998 -0.909144 0)
(-0.214981 -0.971055 0)
(-0.175417 -1.07238 0)
(-0.152077 -1.20093 0)
(-0.142722 -1.3624 0)
(-0.151797 -1.57238 0)
(-0.182178 -1.87287 0)
(-0.255254 -2.30222 0)
(-0.371242 -2.85101 0)
(-0.00525793 -0.890221 0)
(-0.015424 -0.896668 0)
(-0.0264297 -0.903714 0)
(-0.0412578 -0.92202 0)
(-0.0613539 -0.935158 0)
(-0.0885144 -0.96132 0)
(-0.125125 -0.976153 0)
(-0.172856 -1.00103 0)
(-0.230186 -1.00056 0)
(-0.286911 -1.00095 0)
(-0.328139 -0.964492 0)
(-0.346641 -0.937591 0)
(-0.34397 -0.921597 0)
(-0.325026 -0.917938 0)
(-0.301082 -0.950425 0)
(-0.284824 -1.00052 0)
(-0.281424 -1.08621 0)
(-0.294042 -1.19798 0)
(-0.329172 -1.33955 0)
(-0.398683 -1.51636 0)
(-0.525023 -1.77149 0)
(-0.75846 -2.09563 0)
(-1.14586 -2.55174 0)
(-0.00571138 -0.879226 0)
(-0.0183265 -0.884827 0)
(-0.0331427 -0.889664 0)
(-0.0509697 -0.90331 0)
(-0.0727139 -0.911876 0)
(-0.0993449 -0.930597 0)
(-0.131848 -0.93747 0)
(-0.170062 -0.953387 0)
(-0.212579 -0.947901 0)
(-0.255742 -0.95327 0)
(-0.292064 -0.934294 0)
(-0.31548 -0.925733 0)
(-0.326361 -0.925287 0)
(-0.329993 -0.929729 0)
(-0.335552 -0.95721 0)
(-0.349043 -0.996611 0)
(-0.37293 -1.06963 0)
(-0.414632 -1.16007 0)
(-0.482776 -1.27377 0)
(-0.586641 -1.40798 0)
(-0.745445 -1.59335 0)
(-0.992174 -1.79122 0)
(-1.38829 -2.06867 0)
(-0.00743957 -0.86604 0)
(-0.0232767 -0.869479 0)
(-0.0408599 -0.87251 0)
(-0.060662 -0.882706 0)
(-0.083389 -0.887845 0)
(-0.109606 -0.901573 0)
(-0.139868 -0.903473 0)
(-0.173721 -0.915012 0)
(-0.209663 -0.90748 0)
(-0.245619 -0.914235 0)
(-0.276996 -0.905352 0)
(-0.301042 -0.907045 0)
(-0.320485 -0.913576 0)
(-0.34007 -0.918189 0)
(-0.364185 -0.939013 0)
(-0.394848 -0.970519 0)
(-0.435887 -1.03056 0)
(-0.496095 -1.09681 0)
(-0.583794 -1.18049 0)
(-0.708207 -1.27191 0)
(-0.88528 -1.39192 0)
(-1.13272 -1.49603 0)
(-1.48274 -1.61395 0)
(-0.0096827 -0.848862 0)
(-0.0291031 -0.851283 0)
(-0.0489743 -0.853124 0)
(-0.0703758 -0.860742 0)
(-0.0940886 -0.863196 0)
(-0.120499 -0.873389 0)
(-0.149562 -0.872095 0)
(-0.180455 -0.881378 0)
(-0.211159 -0.874194 0)
(-0.240721 -0.881737 0)
(-0.269228 -0.877731 0)
(-0.297906 -0.881746 0)
(-0.328555 -0.888604 0)
(-0.360787 -0.89116 0)
(-0.395817 -0.906678 0)
(-0.437473 -0.930252 0)
(-0.491217 -0.975643 0)
(-0.562395 -1.01975 0)
(-0.656291 -1.07511 0)
(-0.780707 -1.12727 0)
(-0.94583 -1.19269 0)
(-1.15992 -1.23144 0)
(-1.43346 -1.25186 0)
(-0.00975295 -0.82936 0)
(-0.0295542 -0.831429 0)
(-0.0501088 -0.832412 0)
(-0.0719815 -0.838024 0)
(-0.0955251 -0.838481 0)
(-0.120945 -0.846073 0)
(-0.148033 -0.843039 0)
(-0.176362 -0.850974 0)
(-0.205219 -0.8448 0)
(-0.235258 -0.851295 0)
(-0.267174 -0.847512 0)
(-0.300303 -0.849914 0)
(-0.334988 -0.854844 0)
(-0.371383 -0.85602 0)
(-0.411276 -0.866592 0)
(-0.459045 -0.880537 0)
(-0.519399 -0.91076 0)
(-0.595803 -0.936382 0)
(-0.691867 -0.967628 0)
(-0.813357 -0.98767 0)
(-0.967126 -1.01184 0)
(-1.15759 -1.00572 0)
(-1.38664 -0.972483 0)
(-0.0097786 -0.809762 0)
(-0.0296836 -0.811185 0)
(-0.0503787 -0.811263 0)
(-0.0722874 -0.815235 0)
(-0.0956262 -0.814215 0)
(-0.120583 -0.819772 0)
(-0.147061 -0.815568 0)
(-0.17526 -0.821695 0)
(-0.205076 -0.815174 0)
(-0.236601 -0.819111 0)
(-0.269149 -0.814971 0)
(-0.302536 -0.815671 0)
(-0.338837 -0.817811 0)
(-0.378484 -0.816697 0)
(-0.422556 -0.821599 0)
(-0.473782 -0.826108 0)
(-0.535802 -0.842269 0)
(-0.611447 -0.852126 0)
(-0.702999 -0.86339 0)
(-0.813318 -0.858994 0)
(-0.94495 -0.853734 0)
(-1.09945 -0.817169 0)
(-1.27574 -0.753698 0)
(-0.0102004 -0.789715 0)
(-0.0307917 -0.790597 0)
(-0.0518769 -0.789925 0)
(-0.0738644 -0.79252 0)
(-0.0970327 -0.790253 0)
(-0.121687 -0.793936 0)
(-0.147807 -0.788604 0)
(-0.175595 -0.792453 0)
(-0.204564 -0.785399 0)
(-0.234571 -0.787109 0)
(-0.266386 -0.782351 0)
(-0.300654 -0.780362 0)
(-0.338421 -0.778744 0)
(-0.379717 -0.774479 0)
(-0.425362 -0.773715 0)
(-0.477143 -0.770532 0)
(-0.537805 -0.774612 0)
(-0.609986 -0.771277 0)
(-0.695428 -0.766417 0)
(-0.795166 -0.744913 0)
(-0.909774 -0.720391 0)
(-1.03899 -0.665419 0)
(-1.17928 -0.58732 0)
(-0.0103159 -0.769129 0)
(-0.0311186 -0.769647 0)
(-0.0523321 -0.768429 0)
(-0.0742995 -0.769905 0)
(-0.0972066 -0.766625 0)
(-0.121335 -0.768599 0)
(-0.146606 -0.762356 0)
(-0.173223 -0.764084 0)
(-0.201154 -0.756644 0)
(-0.230836 -0.755936 0)
(-0.262985 -0.7493 0)
(-0.297308 -0.74454 0)
(-0.33453 -0.739263 0)
(-0.375228 -0.731618 0)
(-0.420225 -0.725543 0)
(-0.470783 -0.715915 0)
(-0.528815 -0.710003 0)
(-0.59609 -0.695792 0)
(-0.673228 -0.678568 0)
(-0.759741 -0.645636 0)
(-0.855416 -0.608387 0)
(-0.959381 -0.543131 0)
(-1.06766 -0.459844 0)
(-0.0101078 -0.748635 0)
(-0.0304741 -0.74883 0)
(-0.0512022 -0.747159 0)
(-0.0726054 -0.747651 0)
(-0.0948292 -0.743586 0)
(-0.118148 -0.744017 0)
(-0.142563 -0.737068 0)
(-0.168393 -0.736725 0)
(-0.195887 -0.728363 0)
(-0.225141 -0.725047 0)
(-0.256455 -0.716471 0)
(-0.28995 -0.709272 0)
(-0.326452 -0.700498 0)
(-0.366305 -0.689489 0)
(-0.410007 -0.67859 0)
(-0.458356 -0.663527 0)
(-0.512642 -0.649571 0)
(-0.574037 -0.626969 0)
(-0.642613 -0.601006 0)
(-0.717532 -0.561016 0)
(-0.798336 -0.515704 0)
(-0.883465 -0.445831 0)
(-0.968811 -0.362611 0)
(-0.00977142 -0.728689 0)
(-0.0294652 -0.72858 0)
(-0.0495121 -0.726494 0)
(-0.0702183 -0.72606 0)
(-0.0917184 -0.721298 0)
(-0.114299 -0.720237 0)
(-0.138009 -0.712545 0)
(-0.16311 -0.710124 0)
(-0.189736 -0.700633 0)
(-0.217904 -0.695127 0)
(-0.248082 -0.68465 0)
(-0.280419 -0.67499 0)
(-0.31538 -0.663018 0)
(-0.353237 -0.648929 0)
(-0.394495 -0.633824 0)
(-0.439699 -0.614332 0)
(-0.489547 -0.594171 0)
(-0.54452 -0.565478 0)
(-0.60438 -0.533477 0)
(-0.668276 -0.489096 0)
(-0.735469 -0.438948 0)
(-0.804142 -0.368079 0)
(-0.870646 -0.287821 0)
(-0.00948903 -0.709364 0)
(-0.0285953 -0.708975 0)
(-0.0479977 -0.706517 0)
(-0.0679564 -0.705232 0)
(-0.0885921 -0.699842 0)
(-0.110163 -0.697382 0)
(-0.132726 -0.688956 0)
(-0.156477 -0.684676 0)
(-0.181613 -0.674119 0)
(-0.208299 -0.666571 0)
(-0.236937 -0.654156 0)
(-0.267601 -0.642227 0)
(-0.300682 -0.627457 0)
(-0.33637 -0.610636 0)
(-0.374952 -0.591934 0)
(-0.41672 -0.568872 0)
(-0.462006 -0.544079 0)
(-0.510902 -0.511239 0)
(-0.563077 -0.475179 0)
(-0.61776 -0.428282 0)
(-0.674017 -0.375757 0)
(-0.729978 -0.306078 0)
(-0.782736 -0.230035 0)
(-0.00894678 -0.690868 0)
(-0.0269532 -0.690236 0)
(-0.0452163 -0.687464 0)
(-0.0639757 -0.685435 0)
(-0.0833579 -0.679482 0)
(-0.103626 -0.675754 0)
(-0.124876 -0.666612 0)
(-0.147337 -0.660635 0)
(-0.17125 -0.648924 0)
(-0.196686 -0.639442 0)
(-0.223865 -0.625245 0)
(-0.252815 -0.611281 0)
(-0.283774 -0.594098 0)
(-0.316857 -0.574935 0)
(-0.352324 -0.553271 0)
(-0.390313 -0.527434 0)
(-0.430916 -0.499256 0)
(-0.473976 -0.463703 0)
(-0.519075 -0.425013 0)
(-0.565537 -0.376856 0)
(-0.612319 -0.323692 0)
(-0.657591 -0.256469 0)
(-0.699218 -0.184858 0)
(-0.00834747 -0.673518 0)
(-0.0251588 -0.672655 0)
(-0.0422489 -0.669575 0)
(-0.0598506 -0.666841 0)
(-0.0780866 -0.66033 0)
(-0.0971731 -0.655415 0)
(-0.117185 -0.645542 0)
(-0.138282 -0.637986 0)
(-0.160596 -0.625171 0)
(-0.184157 -0.614008 0)
(-0.209196 -0.598254 0)
(-0.235817 -0.582478 0)
(-0.264284 -0.563232 0)
(-0.294672 -0.542066 0)
(-0.327042 -0.518017 0)
(-0.361341 -0.490092 0)
(-0.397532 -0.459474 0)
(-0.435337 -0.422271 0)
(-0.474299 -0.382022 0)
(-0.51381 -0.333503 0)
(-0.552894 -0.280812 0)
(-0.58999 -0.216636 0)
(-0.62348 -0.14927 0)
(-0.00768717 -0.657432 0)
(-0.0231681 -0.656346 0)
(-0.0389022 -0.652955 0)
(-0.0550928 -0.649558 0)
(-0.0718378 -0.642514 0)
(-0.0893149 -0.63654 0)
(-0.107608 -0.625976 0)
(-0.126878 -0.617039 0)
(-0.147309 -0.603215 0)
(-0.169025 -0.590514 0)
(-0.192215 -0.57333 0)
(-0.21688 -0.555912 0)
(-0.243083 -0.534907 0)
(-0.270745 -0.512102 0)
(-0.299908 -0.486191 0)
(-0.330528 -0.456727 0)
(-0.362517 -0.424371 0)
(-0.395522 -0.386263 0)
(-0.429059 -0.345224 0)
(-0.462552 -0.296988 0)
(-0.495143 -0.245354 0)
(-0.525525 -0.184343 0)
(-0.552429 -0.120935 0)
(-0.00683822 -0.642862 0)
(-0.0206346 -0.641548 0)
(-0.0347256 -0.637834 0)
(-0.0493236 -0.633791 0)
(-0.0645315 -0.626222 0)
(-0.0805027 -0.61927 0)
(-0.0973136 -0.60802 0)
(-0.115086 -0.59782 0)
(-0.133926 -0.583017 0)
(-0.153828 -0.568935 0)
(-0.174845 -0.55053 0)
(-0.196989 -0.531719 0)
(-0.220424 -0.509262 0)
(-0.245188 -0.485108 0)
(-0.271262 -0.457721 0)
(-0.298464 -0.427134 0)
(-0.326609 -0.393578 0)
(-0.355312 -0.355089 0)
(-0.384141 -0.313773 0)
(-0.412576 -0.266255 0)
(-0.439882 -0.215948 0)
(-0.465029 -0.158003 0)
(-0.48703 -0.0981903 0)
(-0.00599539 -0.629991 0)
(-0.0181124 -0.628429 0)
(-0.0305397 -0.624355 0)
(-0.0434738 -0.619653 0)
(-0.0569964 -0.611538 0)
(-0.0712222 -0.603657 0)
(-0.0862068 -0.591728 0)
(-0.102012 -0.580415 0)
(-0.118715 -0.564749 0)
(-0.136404 -0.549471 0)
(-0.155218 -0.53001 0)
(-0.175166 -0.509982 0)
(-0.196284 -0.486269 0)
(-0.218446 -0.460985 0)
(-0.241566 -0.43245 0)
(-0.265484 -0.401075 0)
(-0.290038 -0.366721 0)
(-0.314886 -0.328176 0)
(-0.339632 -0.286893 0)
(-0.363761 -0.240359 0)
(-0.38664 -0.191462 0)
(-0.407459 -0.13635 0)
(-0.425442 -0.079721 0)
(-0.00493474 -0.619031 0)
(-0.0149409 -0.617204 0)
(-0.0252812 -0.612747 0)
(-0.0361495 -0.607388 0)
(-0.0476458 -0.598707 0)
(-0.0599128 -0.58991 0)
(-0.073052 -0.577257 0)
(-0.0871392 -0.56489 0)
(-0.102209 -0.548387 0)
(-0.118233 -0.531995 0)
(-0.135178 -0.511592 0)
(-0.152922 -0.490562 0)
(-0.171481 -0.465856 0)
(-0.190881 -0.439669 0)
(-0.211118 -0.410234 0)
(-0.232003 -0.378307 0)
(-0.253327 -0.343423 0)
(-0.274761 -0.305005 0)
(-0.295942 -0.263953 0)
(-0.316412 -0.218525 0)
(-0.335672 -0.170994 0)
(-0.353079 -0.118454 0)
(-0.368014 -0.0645926 0)
(-0.0039715 -0.610102 0)
(-0.0120236 -0.608029 0)
(-0.0203438 -0.603212 0)
(-0.0291065 -0.597237 0)
(-0.0384342 -0.587973 0)
(-0.0484912 -0.57825 0)
(-0.0594011 -0.564789 0)
(-0.0712633 -0.55132 0)
(-0.084118 -0.533932 0)
(-0.0979357 -0.516498 0)
(-0.112725 -0.495235 0)
(-0.12841 -0.473361 0)
(-0.144916 -0.447856 0)
(-0.162095 -0.420945 0)
(-0.179848 -0.390815 0)
(-0.198003 -0.358529 0)
(-0.216398 -0.323323 0)
(-0.234765 -0.285144 0)
(-0.252817 -0.244425 0)
(-0.270154 -0.200099 0)
(-0.286357 -0.153824 0)
(-0.300896 -0.103564 0)
(-0.313285 -0.0520731 0)
(-0.00287271 -0.603243 0)
(-0.00870408 -0.600974 0)
(-0.0147481 -0.59587 0)
(-0.0211689 -0.589358 0)
(-0.0281075 -0.579542 0)
(-0.0357433 -0.568938 0)
(-0.0442307 -0.554645 0)
(-0.0537193 -0.540043 0)
(-0.0643341 -0.521657 0)
(-0.0761223 -0.503074 0)
(-0.0890442 -0.480844 0)
(-0.102912 -0.458085 0)
(-0.117531 -0.431886 0)
(-0.132652 -0.404488 0)
(-0.148142 -0.373897 0)
(-0.163867 -0.34143 0)
(-0.179684 -0.306073 0)
(-0.195372 -0.268203 0)
(-0.210696 -0.227861 0)
(-0.225336 -0.184564 0)
(-0.238974 -0.139409 0)
(-0.251197 -0.0911247 0)
(-0.261624 -0.0416275 0)
(-0.00205881 -0.598304 0)
(-0.00619747 -0.595928 0)
(-0.01042 -0.590633 0)
(-0.0148958 -0.583678 0)
(-0.0197844 -0.573369 0)
(-0.0252515 -0.561975 0)
(-0.031428 -0.546902 0)
(-0.0384419 -0.531232 0)
(-0.0464022 -0.511831 0)
(-0.0553644 -0.492076 0)
(-0.0653811 -0.468818 0)
(-0.0764488 -0.44508 0)
(-0.0885408 -0.418075 0)
(-0.101465 -0.390141 0)
(-0.114952 -0.35915 0)
(-0.128678 -0.326606 0)
(-0.142392 -0.291246 0)
(-0.15585 -0.253767 0)
(-0.168866 -0.213845 0)
(-0.18122 -0.171483 0)
(-0.192689 -0.127291 0)
(-0.202963 -0.0806675 0)
(-0.211737 -0.0328247 0)
(-0.00123896 -0.595004 0)
(-0.0037792 -0.592543 0)
(-0.00647328 -0.587093 0)
(-0.0094225 -0.579783 0)
(-0.0126982 -0.569087 0)
(-0.0163749 -0.557095 0)
(-0.020516 -0.541439 0)
(-0.0252103 -0.524954 0)
(-0.0305707 -0.504747 0)
(-0.0367316 -0.483985 0)
(-0.0438458 -0.459715 0)
(-0.051972 -0.434915 0)
(-0.0610973 -0.406938 0)
(-0.0711343 -0.378224 0)
(-0.0819808 -0.346634 0)
(-0.0934049 -0.313868 0)
(-0.105105 -0.278466 0)
(-0.116708 -0.241384 0)
(-0.127889 -0.201934 0)
(-0.13838 -0.160461 0)
(-0.148003 -0.117141 0)
(-0.156577 -0.0719036 0)
(-0.163954 -0.025386 0)
(-0.000802429 -0.592962 0)
(-0.00247524 -0.59037 0)
(-0.00429198 -0.584752 0)
(-0.00628746 -0.577174 0)