/*--------------------------------*- C++ -*----------------------------------*\
| =========                 |                                                 |
| \\      /  F ield         | OpenFOAM: The Open Source CFD Toolbox           |
|  \\    /   O peration     | Version:  2012                                  |
|   \\  /    A nd           | Website:  www.openfoam.com                      |
|    \\/     M anipulation  |                                                 |
\*---------------------------------------------------------------------------*/
FoamFile
{
    version     2.0;
    format      ascii;
    class       volScalarField;
    location    "0.23";
    object      volumeFraction1;
}
// * * * * * * * * * * * * * * * * * * * * * * * * * * * * * * * * * * * * * //

dimensions      [0 0 0 0 0 0 0];


internalField   nonuniform List<scalar> 
2268
(
1
1
1
1
1
1
1
1
1
1
1
1
1
1
1
1
1
1
1
1
1
1
0.992331
1
1
1
1
1
1
1
1
1
1
1
1
1
1
1
1
1
1
1
1
1
1
0.991702
1
1
1
1
1
1
1
1
1
1
1
1
1
1
1
1
1
1
1
1
1
1
0.991474
1
1
1
1
1
1
1
1
1
1
1
1
1
1
1
1
1
1
1
1
1
1
0.991474
1
1
1
1
1
1
1
1
1
1
1
1
1
1
1
1
1
1
1
1
1
1
0.994717
1
1
1
1
1
1
1
1
1
1
1
1
1
1
1
1
1
1
1
1
1
1
0.999881
1
1
1
1
1
1
1
1
1
1
1
1
1
1
1
1
1
1
1
1
1
1
1
1
1
1
1
1
1
1
1
1
1
1
1
1
1
1
1
1
1
1
1
1
1
1
4.56128e-25
7.59427e-25
1.54901e-24
2.6062e-24
3.93643e-24
2.02371e-24
7.94874e-26
1.52852e-27
1.3656e-29
5.56178e-32
1.32923e-34
1.68482e-37
1.64989e-40
3.81531e-43
1.16831e-45
3.30439e-48
8.95724e-51
1.76661e-53
3.52887e-56
2.30182e-23
7.6461e-23
2.49862e-22
4.10581e-22
4.71427e-22
1.94536e-22
7.31485e-24
1.61698e-25
1.64395e-27
8.88852e-30
2.65976e-32
4.97726e-35
7.06792e-38
1.99568e-40
6.00888e-43
1.63412e-45
4.33862e-48
8.57258e-51
8.68943e-54
8.66323e-22
4.91891e-21
2.1534e-20
3.43508e-20
2.76107e-20
1.06285e-20
3.43377e-22
8.75737e-24
1.04429e-25
7.62225e-28
2.95989e-30
8.2067e-33
1.62914e-35
5.77159e-38
1.7801e-40
4.70191e-43
1.20403e-45
2.3237e-48
2.33376e-51
2.14601e-20
1.84814e-19
1.11544e-18
2.04819e-18
9.77859e-19
4.91217e-19
1.15582e-20
3.24401e-22
4.6507e-24
4.6376e-26
2.39933e-28
9.64636e-31
2.6457e-33
1.18853e-35
3.98697e-38
1.12909e-40
3.05031e-43
6.27301e-46
6.77329e-49
9.29575e-19
1.73355e-17
1.54029e-16
3.17324e-16
2.71289e-17
2.35861e-17
4.15509e-19
9.36558e-21
1.63092e-22
2.18747e-24
1.54189e-26
8.68115e-29
3.45257e-31
1.7983e-33
6.50563e-36
1.8998e-38
5.1299e-41
1.05455e-43
1.15181e-46
7.18554e-17
1.6489e-15
1.71743e-14
4.21509e-14
5.00234e-16
1.10916e-15
1.99957e-17
2.26309e-19
4.58608e-21
8.19247e-23
7.88774e-25
6.09858e-27
3.75894e-29
2.2439e-31
9.32608e-34
3.17751e-36
9.66164e-39
2.2097e-41
2.6862e-44
9.19864e-15
1.8869e-13
1.76337e-12
4.71863e-12
5.97384e-15
4.78347e-14
9.70488e-16
4.51581e-18
1.03974e-19
2.44145e-21
3.24597e-23
3.44066e-25
2.9515e-27
2.07423e-29
9.64216e-32
3.53559e-34
1.10826e-36
2.56276e-39
3.1405e-42
1.56626e-13
2.28028e-12
3.99383e-11
1.28685e-10
9.79463e-14
1.82107e-12
3.31123e-14
6.27183e-17
1.87348e-18
5.78857e-20
1.06691e-21
1.58775e-23
1.89193e-25
1.62783e-27
9.22522e-30
4.18988e-32
1.55529e-34
4.12543e-37
5.71152e-40
1
1
1
1
1
1
1
1
1
1
1
1
1
1
1
1
1
1
1
1
1
1
0.999625
1
1
1
1
1
1
1
1
1
1
1
1
1
1
1
1
1
1
1
0.999999
0.999998
0.999994
0.999534
1
1
1
1
1
1
1
1
1
1
1
1
1
1
1
0.999999
0.999994
0.999962
0.99985
1
1
1
0.999737
1
1
1
1
1
1
1
1
1
1
1
1
1
0.99998
0.999474
0.995833
0.986967
0.961627
0.92108
0.930442
0.975215
1
1
1
1
1
1
1
1
1
1
1
1
0.999999
0.999958
0.998557
0.987801
0.913058
0.746344
0.53926
0.358523
0.260409
0.177458
0.209741
0.322397
0.541713
1
1
1
1
1
1
1
0.999999
0.999986
0.999688
0.996379
0.981521
0.865293
0.591232
0.267606
0.0155856
1.21655e-09
1.21656e-09
1.21655e-09
1.21656e-09
0.000667779
0.0041768
0.0215373
1
1
0.999999
0.999997
0.999987
0.999895
0.999228
0.996057
0.984982
0.925012
0.771466
0.48738
0.177131
7.16549e-20
-3.93024e-23
-9.47395e-22
0.000821646
0.000646867
0.000166528
1.44173e-08
2.64531e-08
7.31311e-07
2.44991e-05
0.995935
0.995139
0.99317
0.988763
0.978556
0.942039
0.864789
0.736117
0.538396
0.285855
0.0836875
5.06159e-20
-3.15962e-32
-1.13394e-38
0.00124243
0.00329647
0.00329661
0.0011976
1.2166e-06
2.07271e-09
1.33587e-10
2.70574e-10
9.33625e-10
0.694348
0.674345
0.632197
0.561119
0.444926
0.313368
0.185879
0.0744754
7.95156e-22
-3.3244e-22
2.5947e-26
8.92837e-12
9.18451e-13
2.1789e-23
0.00398604
0.00399707
0.002327
3.90891e-05
2.26728e-07
4.90039e-10
3.51064e-11
2.98477e-11
1.81952e-09
0.0541348
0.0448643
0.027153
0.00329874
6.06526e-22
-2.01056e-31
-1.48254e-32
5.07329e-28
6.5815e-12
-2.39751e-30
2.24282e-08
4.31631e-09
9.1832e-13
6.58362e-05
0.00130272
0.0012689
3.69781e-08
3.69909e-08
3.69904e-08
6.70133e-09
3.31338e-10
1.10913e-10
8.86632e-11
9.7179e-39
-4.68728e-37
1.15582e-34
-8.5761e-33
1.9598e-14
7.95081e-13
-2.49749e-31
3.91284e-10
1.82675e-10
-2.69232e-28
7.62972e-08
1.02737e-06
8.27757e-07
9.99688e-05
1.98232e-08
1.06739e-08
2.18469e-06
1.36054e-06
1.36835e-08
1.83693e-10
1.78689e-10
8.82674e-10
6.75177e-10
3.45436e-20
3.72322e-18
2.54571e-16
1.08798e-14
3.02843e-13
6.30868e-12
1.59418e-29
8.56594e-10
1.9712e-09
2.33696e-10
2.32958e-10
2.8007e-05
3.34758e-05
4.38395e-06
2.52715e-07
1.5355e-07
4.83894e-07
1.24609e-07
1.10334e-08
2.78411e-10
4.55825e-11
4.68392e-09
5.65539e-09
1.69499e-19
2.05853e-17
1.41307e-15
5.95409e-14
1.49753e-12
2.62818e-11
9.35827e-12
3.18706e-12
1.59495e-07
5.13953e-10
1.29252e-06
5.00769e-05
5.00775e-05
3.40015e-05
1.4523e-06
5.69665e-07
3.61335e-07
2.44375e-08
1.73702e-10
2.41034e-11
1.16128e-11
6.0687e-09
8.92921e-09
5.61473e-19
7.76946e-17
5.39784e-15
2.24354e-13
5.40511e-12
8.24601e-11
1.7807e-10
3.19799e-12
6.95035e-07
6.24467e-07
4.45291e-06
1.76985e-05
3.7356e-05
1.04161e-05
7.02413e-08
3.17624e-16
3.17624e-16
3.17624e-16
3.17624e-16
1.16152e-11
1.16148e-11
7.7673e-10
6.36646e-09
1.68424e-18
2.49423e-16
1.75659e-14
7.12333e-13
1.60457e-11
2.05778e-10
7.84434e-10
5.20179e-08
8.07738e-07
1.18175e-06
3.17624e-16
3.17624e-16
3.17624e-16
3.17624e-16
3.17624e-16
7.69473e-16
8.34011e-15
4.72315e-14
2.05417e-13
1.73774e-12
3.45285e-11
7.86889e-14
5.25874e-09
4.58064e-18
6.59108e-16
4.15729e-14
1.43976e-12
2.8047e-11
3.07773e-10
2.78945e-09
7.60436e-08
8.33544e-07
1.3319e-06
4.17939e-09
3.17624e-16
1.32971e-12
2.07011e-12
1.29137e-13
4.12742e-15
3.57807e-15
9.81767e-15
3.00398e-14
6.00919e-14
7.8685e-14
7.86842e-14
5.6267e-09
8.59931e-18
1.06796e-15
5.79379e-14
1.80743e-12
3.30242e-11
3.09578e-10
1.401e-09
6.92498e-08
1.87199e-06
2.62859e-06
6.39556e-07
3.17624e-16
1.58051e-11
2.00194e-11
8.52556e-13
4.09516e-16
7.83887e-16
2.49478e-15
8.81947e-15
2.31084e-14
5.34666e-14
1.82276e-13
1.81708e-13
1.08912e-17
1.24012e-15
6.0193e-14
1.60153e-12
2.25054e-11
1.30158e-10
3.14942e-10
7.20866e-08
1.95628e-06
2.63471e-06
1.53562e-06
3.17624e-16
1.36891e-10
1.26253e-10
1.7604e-12
4.08035e-20
1.37826e-16
5.14498e-16
1.95345e-15
6.65665e-15
3.03788e-14
2.11511e-13
6.57899e-13
6.3091e-18
5.10293e-16
1.97588e-14
4.30295e-13
5.14751e-12
2.80753e-11
1.65155e-10
8.25699e-09
2.87553e-07
1.65244e-06
4.81296e-07
8.31828e-12
1.35771e-09
5.65896e-10
7.82769e-13
4.08033e-20
1.78443e-17
7.6316e-17
3.22259e-16
1.70557e-15
1.34646e-14
9.43917e-14
1.07043e-12
7.05766e-19
6.38748e-17
2.54973e-15
6.10663e-14
1.07119e-12
1.63896e-11
2.37836e-10
7.09866e-10
1.96013e-16
1.97129e-16
3.85847e-13
4.35198e-08
8.28224e-09
1.60648e-09
1.61297e-24
2.47205e-19
2.15633e-18
9.1248e-18
3.66026e-17
1.17098e-16
3.22623e-16
1.12269e-15
2.90066e-15
1.0554e-20
2.04342e-18
1.74483e-16
8.36743e-15
2.42582e-13
4.10489e-12
1.67738e-11
5.61504e-14
7.75964e-13
1.08503e-11
1.89768e-10
3.58222e-09
1.14947e-08
2.54413e-09
1.42525e-24
3.96971e-20
1.91765e-19
8.07737e-19
3.66124e-18
1.47546e-17
7.32078e-17
5.72491e-16
4.73429e-15
4.24005e-23
3.13714e-21
1.1095e-19
2.39322e-18
1.70228e-17
1.54685e-17
1.54684e-17
6.79347e-14
1.27843e-12
1.33996e-11
9.92057e-11
3.35441e-10
1.73148e-09
1.02745e-09
7.12799e-11
1.42715e-24
1.2797e-20
5.36043e-20
2.70107e-19
1.2301e-18
7.10486e-18
6.48328e-17
6.51542e-16
7.77593e-24
6.73523e-22
3.07231e-20
9.87625e-19
2.50236e-17
3.52464e-16
3.68211e-15
2.6714e-14
1.55171e-13
7.21613e-13
1.05006e-12
1.81307e-23
1.81299e-23
1.81307e-23
7.21269e-12
1.61324e-24
1.16298e-21
2.55982e-21
1.46674e-20
7.13473e-20
4.1693e-19
3.8422e-18
4.2372e-17
4.95484e-25
5.36279e-23
2.71578e-21
8.47967e-20
1.81525e-18
2.78589e-17
3.16947e-16
2.65727e-15
1.67741e-14
6.26146e-14
9.2896e-14
9.35847e-14
1.98986e-14
1.81299e-23
1.81307e-23
7.0395e-22
1.06009e-22
9.4358e-23
6.01909e-22
3.11916e-21
1.81678e-20
1.63193e-19
1.9152e-18
3.51686e-30
2.56299e-28
8.5881e-27
1.71816e-25
2.27196e-24
1.41386e-23
1.6827e-23
9.71983e-25
9.71959e-25
9.71983e-25
9.71959e-25
7.50708e-24
7.57138e-24
7.97106e-22
7.18903e-22
2.53805e-22
4.83098e-24
2.74144e-24
1.87587e-23
1.03592e-22
6.04462e-22
5.23207e-21
6.46663e-20
1.98621e-34
1.81454e-32
7.95205e-31
2.24022e-29
4.62816e-28
7.59147e-27
1.05491e-25
1.26719e-24
8.23477e-24
3.81889e-23
1.17149e-22
1.7195e-22
1.71615e-22
1.16414e-22
4.46045e-23
5.41369e-24
1.37223e-25
6.12978e-26
4.52778e-25
2.69532e-24
1.61453e-23
1.34876e-22
1.71772e-21
1.22276e-37
1.10457e-35
4.70551e-34
1.25167e-32
2.32439e-31
3.17061e-30
3.29776e-29
2.62683e-28
1.62992e-27
7.69986e-27
2.78115e-26
7.34965e-26
1.13031e-25
6.54825e-26
4.01037e-26
1.82658e-26
4.41966e-27
1.07703e-27
8.647e-27
5.61438e-26
3.53377e-25
2.88617e-24
3.73633e-23
2.5035e-43
2.81683e-41
1.52147e-39
5.24035e-38
1.28941e-36
2.40398e-35
3.53932e-34
4.20055e-33
4.12326e-32
3.37005e-31
2.33373e-30
1.35778e-29
6.57883e-29
2.26361e-28
3.45701e-28
3.21083e-28
9.05175e-29
1.50294e-29
1.32672e-28
9.52857e-28
6.4536e-27
5.27169e-26
6.85297e-25
7.88693e-47
9.49323e-45
5.45844e-43
1.99497e-41
5.20657e-40
1.03459e-38
1.64296e-37
2.15643e-36
2.43216e-35
2.40067e-34
2.09665e-33
1.57871e-32
9.81034e-32
4.60597e-31
9.42731e-31
1.01119e-30
3.87718e-31
1.68809e-31
1.65696e-30
1.33249e-29
9.90952e-29
8.32813e-28
1.08833e-26
3.14932e-53
3.87163e-51
2.35425e-49
9.70724e-48
3.16194e-46
8.89138e-45
2.22912e-43
4.90738e-42
9.22133e-41
1.43439e-39
1.80952e-38
1.79983e-37
1.36453e-36
7.38327e-36
2.53347e-35
4.83506e-35
1.72499e-34
1.66212e-33
1.70799e-32
1.55452e-31
1.29031e-30
1.14543e-29
1.50757e-28
5.06494e-59
1.04291e-56
1.06971e-54
7.29826e-53
3.71374e-51
1.49596e-49
4.92289e-48
1.34445e-46
3.06804e-45
5.83931e-44
9.24758e-43
1.20788e-41
1.29944e-40
1.16922e-39
9.59482e-39
8.73551e-38
9.9912e-37
1.24972e-35
1.46273e-34
1.52439e-33
1.43676e-32
1.38625e-31
1.86375e-30
8.68379e-64
2.91478e-61
4.74045e-59
4.94262e-57
3.68346e-55
2.08132e-53
9.22069e-52
3.27451e-50
9.45484e-49
2.23921e-47
4.39653e-46
7.26301e-45
1.05004e-43
1.43373e-42
2.05215e-41
3.20523e-40
5.13056e-39
7.74468e-38
1.05257e-36
1.26991e-35
1.37847e-34
1.47739e-33
2.05732e-32
1.29367e-68
5.28395e-66
1.06995e-63
1.4199e-61
1.3747e-59
1.02959e-57
6.17134e-56
3.03594e-54
1.24948e-52
4.38461e-51
1.3432e-49
3.692e-48
9.39854e-47
2.26651e-45
5.20958e-44
1.12532e-42
2.23594e-41
4.00789e-40
6.40332e-39
9.07804e-38
1.15296e-36
1.40198e-35
2.05514e-34
1.82726e-72
9.19455e-70
2.2654e-67
3.62271e-65
4.19777e-63
3.75046e-61
2.68226e-59
1.58136e-57
7.87519e-56
3.39509e-54
1.30133e-52
4.5521e-51
1.48539e-49
4.55419e-48
1.30417e-46
3.434e-45
8.19418e-44
1.75224e-42
3.33691e-41
5.63928e-40
8.49587e-39
1.19284e-37
1.87694e-36
9.05065e-77
5.96806e-74
1.91371e-71
3.96602e-69
5.94373e-67
6.87293e-65
6.37967e-63
4.90924e-61
3.21683e-59
1.8421e-57
9.43939e-56
4.40501e-54
1.88953e-52
7.43363e-51
2.66263e-49
8.60395e-48
2.49375e-46
6.45364e-45
1.48684e-43
3.03717e-42
5.49922e-41
9.06531e-40
1.56735e-38
2.72799e-81
2.31525e-78
9.61016e-76
2.59922e-73
5.13581e-71
7.92556e-69
9.95057e-67
1.04998e-64
9.53417e-63
7.59442e-61
5.37311e-59
3.39525e-57
1.91906e-55
9.68381e-54
4.3588e-52
1.74806e-50
6.25214e-49
1.99275e-47
5.64995e-46
1.41702e-44
3.13113e-43
6.17951e-42
1.20483e-40
2.45925e-86
3.03163e-83
1.84971e-80
7.44441e-78
2.209e-75
5.1473e-73
9.74885e-71
1.53945e-68
2.05702e-66
2.3522e-64
2.31793e-62
1.97992e-60
1.47428e-58
9.61578e-57
5.52698e-55
2.81097e-53
1.27047e-51
5.10599e-50
1.82097e-48
5.72154e-47
1.57354e-45
3.80959e-44
8.68059e-43
1.23808e-91
2.2725e-88
2.08435e-85
1.26928e-82
5.69807e-80
1.99832e-77
5.64273e-75
1.31331e-72
2.55253e-70
4.18975e-68
5.84996e-66
6.98668e-64
7.17149e-62
6.35355e-60
4.89347e-58
3.29861e-56
1.95975e-54
1.02816e-52
4.75478e-51
1.92269e-49
6.7487e-48
2.0615e-46
5.7429e-45
1.28974e-97
4.06361e-94
6.29386e-91
6.35338e-88
4.63989e-85
2.60612e-82
1.16372e-79
4.24184e-77
1.27988e-74
3.23209e-72
6.86092e-70
1.22813e-67
1.86168e-65
2.403e-63
2.66075e-61
2.54309e-59
2.11256e-57
1.52853e-55
9.62196e-54
5.22882e-52
2.43468e-50
9.72337e-49
3.45856e-47
3.06011e-104
1.67008e-100
4.37534e-97
7.31918e-94
8.72695e-91
7.92311e-88
5.68384e-85
3.31501e-82
1.59799e-79
6.45364e-77
2.201e-74
6.37531e-72
1.57249e-69
3.30332e-67
5.9197e-65
9.06304e-63
1.18798e-60
1.33036e-58
1.26691e-56
1.01546e-54
6.79386e-53
3.79596e-51
1.83927e-49
1.59638e-111
1.49499e-107
6.53185e-104
1.77717e-100
3.39609e-97
4.88892e-94
5.52825e-91
5.07948e-88
3.88426e-85
2.52381e-82
1.41123e-79
6.83767e-77
2.87673e-74
1.05185e-71
3.34428e-69
9.22269e-67
2.19534e-64
4.46063e-62
7.61497e-60
1.06888e-57
1.20839e-55
1.08905e-53
8.11576e-52
1.84921e-119
3.11184e-115
2.27418e-111
9.75802e-108
2.81617e-104
5.9406e-101
9.65242e-98
1.25728e-94
1.35409e-91
1.24013e-88
9.92304e-86
7.10799e-83
4.65046e-80
2.80825e-77
1.57441e-74
8.21675e-72
3.98387e-69
1.77351e-66
7.08675e-64
2.44347e-61
6.8897e-59
1.49641e-56
2.43938e-54
0.999754
0.999864
0.704198
3.7502e-16
0.999576
0.999864
0.978638
0.856265
0.999822
0.99966
0.999008
1
1
1
1
1
0.713298
0.826855
0.946508
1
0.0585694
0.109957
0.182551
0.276133
0.000166165
0.000681257
0.00208173
0.00486627
4.03883e-09
3.45516e-08
2.78064e-07
7.63437e-09
5.30119e-09
8.05123e-09
7.92282e-09
7.63654e-09
8.86637e-11
2.02967e-08
4.0893e-08
1.779e-08
3.11643e-10
1.07674e-10
2.34873e-13
8.30631e-07
3.97377e-09
1.01548e-09
2.34819e-13
7.23027e-07
8.94683e-09
2.78908e-09
2.34461e-13
9.75939e-07
5.67285e-09
2.01603e-09
2.34819e-13
9.63415e-06
1.39234e-08
3.58875e-09
2.34461e-13
5.55359e-06
1.29552e-08
1.81394e-13
2.38395e-06
4.37285e-06
1.81394e-13
1.81708e-13
0.00017961
7.23598e-05
1.30646e-09
3.66462e-05
0.000571783
0.00066488
8.43924e-09
6.08727e-06
8.99571e-05
0.000276719
2.63739e-15
2.63572e-15
2.63739e-15
2.63572e-15
2.11893e-14
6.24169e-14
2.08725e-13
3.89008e-13
4.21336e-15
1.60367e-14
5.00662e-14
1.36891e-13
3.18173e-16
1.43982e-15
5.51152e-15
1.87235e-14
1.62942e-17
8.50569e-17
3.83687e-16
1.56667e-15
6.22491e-19
3.75404e-18
1.99261e-17
9.67013e-17
1.84652e-20
1.2762e-19
7.90287e-19
4.51012e-18
4.45214e-22
3.52278e-21
2.54862e-20
1.71688e-19
8.92045e-24
8.00601e-23
6.70847e-22
5.30517e-21
1.53859e-25
1.56477e-24
1.51025e-23
1.38531e-22
2.2866e-27
2.63259e-26
2.93717e-25
3.11877e-24
3.00128e-29
3.88392e-28
5.00084e-27
6.2148e-26
3.48867e-31
5.05399e-30
7.46456e-29
1.0756e-27
3.63318e-33
5.89101e-32
1.01141e-30
1.63686e-29
3.42001e-35
6.09348e-34
1.21254e-32
2.20081e-31
2.95433e-37
5.73194e-36
1.29129e-34
2.63625e-33
2.35006e-39
4.92701e-38
1.22138e-36
2.81733e-35
1.76289e-41
3.82462e-40
1.03152e-38
2.70011e-37
1.28045e-43
2.6995e-42
7.74926e-41
2.31239e-39
9.13739e-46
1.77092e-44
5.18807e-43
1.76778e-41
6.28774e-48
1.11215e-46
3.08852e-45
1.1922e-43
4.11929e-50
6.94293e-49
1.64931e-47
6.98106e-46
2.48718e-52
4.39217e-51
8.03118e-50
3.33472e-48
3.75305e-16
6.49888e-10
2.47444e-09
2.87947e-09
5.79056e-12
8.42778e-11
1.00288e-12
6.76862e-16
4.08492e-17
1.65961e-18
4.35735e-20
9.12128e-22
1.40302e-23
1.48251e-25
9.75459e-28
5.09211e-30
2.11351e-32
6.12999e-35
9.09105e-38
0.360695
4.74084e-10
4.74099e-10
5.04954e-09
7.39397e-10
5.33998e-09
1.23929e-11
8.36917e-14
8.54679e-16
4.36576e-17
1.68778e-18
5.09427e-20
1.06303e-21
1.5432e-23
1.60236e-25
1.37014e-27
8.82529e-30
3.78794e-32
8.02673e-35
0.949446
0.524899
0.0143981
5.82709e-10
5.8256e-10
3.03475e-08
3.95261e-10
1.04184e-11
6.62335e-15
7.80194e-16
4.15164e-17
1.57571e-18
4.17367e-20
7.43625e-22
9.57722e-24
9.71911e-26
7.20932e-28
3.47197e-30
8.0691e-33
0.99969
0.99983
0.668157
0.0918426
1.38727e-05
3.03484e-08
6.55956e-08
9.7859e-10
6.62362e-15
8.62323e-15
7.67449e-16
3.62475e-17
1.29582e-18
3.32378e-20
6.68083e-22
1.01351e-23
1.08012e-25
7.2383e-28
2.28531e-30
1
0.99983
1
0.669069
0.0834139
0.00130772
1.35791e-05
4.14956e-08
1.06398e-12
5.14392e-14
5.59392e-15
3.8827e-16
1.79263e-17
5.76189e-19
1.37622e-20
2.37943e-22
2.82686e-24
2.06534e-26
7.02276e-29
0.578842
1
1
1
0.531676
0.034232
0.000488299
5.4721e-07
2.09271e-12
1.71543e-13
3.13703e-14
3.09896e-15
2.03243e-16
9.44508e-18
3.11538e-19
7.1768e-21
1.10565e-22
1.03092e-24
4.41953e-27
0.0162304
0.307983
0.870682
1
0.895828
0.258233
0.00677843
3.16032e-06
2.23651e-12
3.12454e-13
9.13247e-14
1.11458e-14
8.45864e-16
4.30518e-17
1.52749e-18
3.72152e-20
6.01718e-22
5.82453e-24
2.58338e-26
0.000254657
1.67575e-09
0.295026
0.91476
0.952906
0.548386
0.0259639
2.11721e-05
1.08451e-11
4.03261e-13
1.91236e-13
3.47923e-14
3.59779e-15
2.38347e-16
1.06158e-17
3.19261e-19
6.28182e-21
7.36548e-23
3.93744e-25
9.49018e-09
1.67678e-09
1.00192e-10
0.592086
0.952218
0.638247
0.0518229
6.58115e-05
5.63848e-11
3.48082e-13
1.79116e-13
3.40494e-14
3.66416e-15
2.52247e-16
1.16213e-17
3.58946e-19
7.21372e-21
8.57817e-23
4.63948e-25
3.84745e-09
2.08907e-09
1.00192e-10
0.229758
0.914802
0.61722
0.0511654
6.30556e-05
5.17936e-11
4.51831e-13
2.59532e-13
5.30718e-14
6.06042e-15
4.44006e-16
2.18216e-17
7.22955e-19
1.56543e-20
2.02067e-22
1.19027e-24
9.28001e-07
1.31362e-07
1.00192e-10
0.189885
0.902642
0.592516
0.0432096
4.45153e-05
2.78089e-11
7.62873e-13
4.39717e-13
8.90141e-14
1.007e-14
7.32563e-16
3.57067e-17
1.16891e-18
2.48555e-20
3.1234e-22
1.77939e-24
5.30732e-07
2.58424e-09
1.00192e-10
0.223142
0.816582
0.509913
0.0297921
2.15243e-05
9.40602e-12
9.15379e-13
4.61659e-13
8.84621e-14
9.81612e-15
7.084e-16
3.44601e-17
1.1296e-18
2.40893e-20
3.04055e-22
1.73977e-24
4.41509e-06
1.3206e-06
1.00192e-10
0.180937
0.413713
0.239179
0.0141255
8.70068e-06
4.74009e-12
1.03308e-12
4.45571e-13
8.04159e-14
8.59547e-15
6.02689e-16
2.85998e-17
9.16668e-19
1.91496e-20
2.37023e-22
1.33128e-24
1.25749e-05
2.52767e-06
1.00192e-10
0.025206
0.0360725
0.0150682
0.00263771
2.76288e-05
4.31208e-11
1.06126e-12
3.98978e-13
6.61871e-14
6.60067e-15
4.34106e-16
1.93895e-17
5.85325e-19
1.15211e-20
1.34276e-22
7.09559e-25
7.70838e-06
1.862e-06
0.0790251
0.196792
0.0496106
0.000734681
9.36545e-05
6.19366e-06
4.60223e-09
2.35525e-12
4.00251e-13
5.29445e-14
4.61436e-15
2.71046e-16
1.09224e-17
2.99392e-19
5.37709e-21
5.73969e-23
2.78701e-25
1.00192e-10
0.0116134
0.404237
0.493928
0.165537
0.00167069
4.25997e-06
3.24758e-07
2.72782e-09
9.00047e-12
4.55448e-13
3.85991e-14
2.71199e-15
1.36522e-16
4.82477e-18
1.1722e-19
1.87911e-21
1.79946e-23
7.87701e-26
1.00192e-10
0.0526122
0.493928
0.493928
0.232818
0.0021787
7.80129e-07
6.92573e-09
1.41303e-10
4.02769e-12
2.92072e-13
2.30425e-14
1.38742e-15
5.92364e-17
1.78361e-18
3.72569e-20
5.18914e-22
4.36568e-24
1.69662e-26
1.00192e-10
0.037671
0.329636
0.388246
0.148272
0.00223209
1.822e-07
4.37e-10
1.31978e-11
1.43497e-12
1.49246e-13
1.07249e-14
5.32813e-16
1.86958e-17
4.69761e-19
8.33458e-21
1.00304e-22
7.40492e-25
2.56027e-27
0.000540696
0.00782569
0.0281286
0.037465
0.0161301
0.00163538
7.56106e-06
1.60908e-10
3.5855e-12
6.47421e-13
5.85557e-14
3.35287e-15
1.34589e-16
3.91882e-18
8.36382e-20
1.28622e-21
1.364e-23
9.00654e-26
2.81873e-28
9.19059e-07
3.23709e-05
2.54447e-05
3.5129e-05
3.43263e-05
0.000536943
8.51245e-06
7.07726e-11
1.72451e-12
2.21685e-13
1.4288e-14
6.45041e-16
2.14936e-17
5.37101e-19
1.00396e-20
1.37533e-22
1.31513e-24
7.92073e-27
2.28119e-29
3.89155e-13
2.55353e-11
1.82869e-10
1.82621e-09
2.212e-08
2.97411e-07
3.60481e-06
5.85298e-13
5.85293e-13
4.73233e-14
2.16602e-15
8.15335e-17
2.35694e-18
5.23217e-20
8.80409e-22
1.09935e-23
9.66937e-26
5.40867e-28
1.45824e-30
4.33544e-13
1.53188e-12
4.11326e-12
1.19102e-11
3.24229e-11
2.4833e-10
2.18095e-09
9.87488e-13
1.34843e-13
7.65051e-15
2.71951e-16
8.3465e-18
2.04518e-19
3.94029e-21
5.90015e-23
6.83032e-25
5.60061e-27
2.94547e-29
7.47881e-32
8.15569e-14
4.03438e-13
1.59592e-12
4.99271e-12
1.21334e-11
1.97785e-11
1.75822e-11
8.6896e-13
2.29821e-14
9.81039e-16
2.88142e-17
7.46445e-19
1.58631e-20
2.70528e-22
3.61686e-24
3.81103e-26
2.87871e-28
1.41284e-30
3.38489e-33
8.63952e-15
5.70938e-14
2.95213e-13
1.12964e-12
3.6825e-12
7.22692e-12
7.1937e-12
2.91072e-13
3.00634e-15
1.02729e-16
2.60194e-18
5.85759e-20
1.10138e-21
1.69168e-23
2.05125e-25
1.98906e-27
1.39563e-29
6.43522e-32
1.46163e-34
6.53108e-16
5.48102e-15
3.45544e-14
1.57533e-13
6.08947e-13
1.35535e-12
1.45655e-12
3.97091e-14
3.13531e-16
8.98325e-18
2.02304e-19
4.05412e-21
6.86205e-23
9.63579e-25
1.0734e-26
9.67369e-29
6.35406e-31
2.77033e-33
5.99596e-36
3.66026e-17
3.79691e-16
2.84165e-15
1.50751e-14
6.55382e-14
1.61393e-13
1.83553e-13
3.94558e-15
2.66782e-17
6.65404e-19
1.36523e-20
2.48712e-22
3.8496e-24
5.00795e-26
5.1825e-28
4.37744e-30
2.71058e-32
1.12387e-34
2.328e-37
1.67103e-18
2.03055e-17
1.75704e-16
1.06341e-15
5.07601e-15
1.36526e-14
1.63472e-14
3.03128e-16
1.89006e-18
4.22891e-20
8.05875e-22
1.35875e-23
1.95022e-25
2.37797e-27
2.30919e-29
1.84176e-31
1.08224e-33
4.28953e-36
8.53639e-39
6.20624e-20
8.63155e-19
8.53526e-18
5.83054e-17
3.01731e-16
8.78275e-16
1.10374e-15
1.86276e-17
1.13175e-19
2.32911e-21
4.18976e-23
6.64113e-25
8.95308e-27
1.034e-28
9.50942e-31
7.20951e-33
4.0438e-35
1.53887e-37
2.95139e-40
1.91916e-21
3.02378e-20
3.38089e-19
2.58553e-18
1.44121e-17
4.50582e-17
5.9292e-17
9.41427e-19
5.80818e-21
1.12257e-22
1.93184e-24
2.91738e-26
3.7365e-28
4.12554e-30
3.62369e-32
2.62765e-34
1.41447e-36
5.18789e-39
9.61606e-42
5.00182e-23
8.89379e-22
1.11897e-20
9.54213e-20
5.71392e-19
1.90688e-18
2.62159e-18
4.00107e-20
2.58482e-22
4.7764e-24
7.95294e-26
1.15751e-27
1.42282e-29
1.51428e-31
1.28002e-33
8.92816e-36
4.63507e-38
1.64393e-40
2.95217e-43
1.12146e-24
2.24335e-23
3.16406e-22
3.00053e-21
1.92904e-20
6.83515e-20
9.79872e-20
1.45853e-21
1.00859e-23
1.8094e-25
2.9424e-27
4.16864e-29
4.96159e-31
5.12728e-33
4.19924e-35
2.83219e-37
1.4243e-39
4.8995e-42
8.54341e-45
2.18475e-26
4.91465e-25
7.7621e-24
8.18006e-23
5.65285e-22
2.1177e-21
3.16081e-21
4.63845e-23
3.48615e-25
6.15225e-27
9.8482e-29
1.37e-30
1.59092e-32
1.60661e-34
1.28235e-36
8.4033e-39
4.10952e-41
1.37486e-43
2.33243e-46
3.74635e-28
9.48073e-27
1.67654e-25
1.96321e-24
1.46155e-23
5.76868e-23
8.95045e-23
1.30664e-24
1.07776e-26
1.89208e-28
3.00093e-30
4.1305e-32
4.71004e-34
4.67483e-36
3.65461e-38
2.33721e-40
1.11519e-42
3.63788e-45
6.0147e-48
5.69297e-30
1.62506e-28
3.22288e-27
4.19802e-26
3.37814e-25
1.40127e-24
2.2565e-24
3.30528e-26
3.00827e-28
5.3034e-30
8.37996e-32
1.14883e-33
1.29329e-35
1.26793e-37
9.74903e-40
6.10877e-42
2.852e-44
9.09285e-47
1.46733e-49
7.73784e-32
2.50023e-30
5.57365e-29
8.08963e-28
7.06469e-27
3.0739e-26
5.1258e-26
7.60047e-28
7.64761e-30
1.3646e-31
2.15819e-33
2.96393e-35
3.30864e-37
3.21845e-39
2.44231e-41
1.50482e-43
6.89103e-46
2.15179e-48
3.39364e-51
9.4433e-34
3.4743e-32
8.73873e-31
1.41758e-29
1.35049e-28
6.1584e-28
1.0603e-27
1.60673e-29
1.78593e-31
3.24652e-33
5.15986e-35
7.1334e-37
7.9247e-39
7.67817e-41
5.76657e-43
3.50485e-45
1.57745e-47
4.83339e-50
7.45861e-53
1.04149e-35
4.39398e-34
1.2526e-32
2.27951e-31
2.38252e-30
1.13891e-29
2.01621e-29
3.15383e-31
3.86193e-33
7.19116e-35
1.15254e-36
1.61062e-38
1.78598e-40
1.72932e-42
1.28831e-44
7.7457e-47
3.43214e-49
1.03365e-51
1.56229e-54
1.03763e-37
5.07323e-36
1.65032e-34
3.38757e-33
3.91043e-32
1.96313e-31
3.55632e-31
5.80197e-33
7.7938e-35
1.49328e-36
2.42055e-38
3.43093e-40
3.80679e-42
3.694e-44
2.73465e-46
1.63035e-48
7.12217e-51
2.11145e-53
3.12847e-56
9.35734e-40
5.37366e-38
2.01187e-36
4.68825e-35
6.01766e-34
3.18364e-33
5.86778e-33
1.00873e-34
1.47889e-36
2.92665e-38
4.81001e-40
6.93494e-42
7.71495e-44
7.52003e-46
5.53987e-48
3.28178e-50
1.41502e-52
4.13489e-55
6.01045e-58
7.58173e-42
5.21556e-40
2.27588e-38
6.07519e-37
8.73607e-36
4.89932e-35
9.13104e-35
1.67041e-36
2.65808e-38
5.45013e-40
9.1e-42
1.33765e-43
1.49444e-45
1.46599e-47
1.07591e-49
6.34393e-52
2.70233e-54
7.79244e-57
1.11199e-59
5.47024e-44
4.63716e-42
2.39896e-40
7.41832e-39
1.20407e-37
7.21467e-37
1.35066e-36
2.65323e-38
4.55732e-40
9.7081e-42
1.64925e-43
2.47635e-45
2.78193e-47
2.75056e-49
2.01286e-51
1.18297e-53
4.9821e-56
1.41907e-58
1.98916e-61
3.31634e-46
3.65203e-44
2.30894e-42
8.43249e-41
1.56108e-39
1.01004e-38
1.88952e-38
4.0136e-40
7.39452e-42
1.63903e-43
2.83495e-45
4.35266e-47
4.92022e-49
4.90782e-51
3.58333e-53
2.1013e-55
8.75592e-58
2.46587e-60
3.39783e-63
)
;

boundaryField
{
    leftWall
    {
        type            zeroGradient;
    }
    rightWall
    {
        type            zeroGradient;
    }
    lowerWall
    {
        type            zeroGradient;
    }
    atmosphere
    {
        type            inletOutlet;
        inletValue      uniform 0;
        value           nonuniform List<scalar> 
46
(
0
0
0
0
0
0
0
0
0
0
0
0
0
0
0
0
0
0
0
0
0
0
0
2.48718e-52
4.39217e-51
8.03118e-50
3.33472e-48
3.31634e-46
3.65203e-44
2.30894e-42
8.43249e-41
1.56108e-39
1.01004e-38
1.88952e-38
4.0136e-40
7.39452e-42
1.63903e-43
2.83495e-45
4.35266e-47
4.92022e-49
4.90782e-51
3.58333e-53
2.1013e-55
8.75592e-58
2.46587e-60
3.39783e-63
)
;
    }
    defaultFaces
    {
        type            empty;
    }
}


// ************************************************************************* //
