/*--------------------------------*- C++ -*----------------------------------*\
| =========                 |                                                 |
| \\      /  F ield         | OpenFOAM: The Open Source CFD Toolbox           |
|  \\    /   O peration     | Version:  3.0.1                                 |
|   \\  /    A nd           | Web:      www.OpenFOAM.org                      |
|    \\/     M anipulation  |                                                 |
\*---------------------------------------------------------------------------*/
FoamFile
{
    version     2.0;
    format      ascii;
    class       volVectorField;
    location    "0.0002";
    object      U;
}
// * * * * * * * * * * * * * * * * * * * * * * * * * * * * * * * * * * * * * //

dimensions      [0 1 -1 0 0 0 0];

internalField   nonuniform List<vector> 
1000
(
(1.12689e-12 -2.34427e-12 0)
(1.68741e-12 5.54685e-14 0)
(-6.88977e-13 -8.2035e-13 0)
(4.00541e-12 5.83879e-13 0)
(-1.95016e-12 -1.97059e-12 0)
(7.82398e-13 2.59826e-13 0)
(1.7166e-12 -2.30048e-12 0)
(-2.98362e-12 7.88236e-14 0)
(4.22144e-12 -9.40045e-13 0)
(-3.58502e-12 -1.34876e-12 0)
(-5.43007e-13 2.96319e-12 0)
(-5.37169e-13 -3.03033e-12 0)
(2.30048e-12 3.00698e-12 0)
(2.94859e-12 -1.12981e-12 0)
(-6.13657e-12 -1.10937e-13 0)
(4.55426e-12 3.18506e-12 0)
(-2.53987e-12 -2.70628e-12 0)
(7.46781e-12 4.02876e-12 0)
(1.26293e-11 -4.71482e-12 0)
(3.04557e-10 7.28097e-12 0)
(7.85587e-09 -4.76737e-12 0)
(1.91576e-07 2.23042e-12 0)
(4.69861e-06 -4.0346e-11 0)
(0.000116471 -7.42256e-10 0)
(0.00301939 -1.79311e-08 0)
(0.0788146 -3.77657e-07 0)
(1.19104 -4.92668e-06 0)
(5.98242 -2.34419e-05 0)
(11.4312 -4.25172e-05 0)
(14.5096 -4.38543e-05 0)
(16.4254 -4.37897e-05 0)
(17.6234 -4.21902e-05 0)
(18.3198 -3.97365e-05 0)
(18.6878 -3.38622e-05 0)
(18.8641 -2.96999e-05 0)
(18.9405 -2.57373e-05 0)
(18.9703 -2.45428e-05 0)
(18.9797 -3.2138e-05 0)
(18.984 -4.22713e-05 0)
(18.9843 -7.24391e-05 0)
(18.9834 -9.45016e-05 0)
(18.983 -0.000188768 0)
(18.9828 -0.000292651 0)
(18.9828 -0.000486375 0)
(18.9831 -0.0006323 0)
(18.9839 -0.000710292 0)
(18.9842 -0.000819237 0)
(18.9841 -0.000539569 0)
(18.9836 -0.000340713 0)
(18.9821 0.00011953 0)
(18.9805 0.000446777 0)
(18.9799 0.000595921 0)
(18.98 0.000620177 0)
(18.9801 0.00051612 0)
(18.9804 0.000466657 0)
(18.9804 0.000403307 0)
(18.9799 0.000328862 0)
(18.9794 0.000117203 0)
(18.9788 7.29484e-05 0)
(18.9782 1.2099e-05 0)
(18.977 -1.42951e-05 0)
(18.9757 -2.6803e-05 0)
(18.9751 -8.56036e-06 0)
(18.9744 -8.1837e-06 0)
(18.974 -3.58069e-06 0)
(18.967 -4.75087e-06 0)
(18.947 -2.97444e-06 0)
(18.8913 2.56886e-06 0)
(18.7534 1.28273e-05 0)
(18.4373 2.40351e-05 0)
(17.762 3.0447e-05 0)
(16.4023 3.16673e-05 0)
(13.7266 3.07167e-05 0)
(7.96317 1.7579e-05 0)
(1.67185 3.70516e-06 0)
(0.102851 2.63206e-07 0)
(0.00345475 1.11914e-08 0)
(0.000120846 3.70382e-10 0)
(4.46761e-06 3.59133e-11 0)
(1.67044e-07 -8.11446e-12 0)
(6.27039e-09 9.14221e-12 0)
(2.25204e-10 -8.35347e-12 0)
(1.01648e-11 7.44864e-12 0)
(-3.0218e-12 -4.02906e-12 0)
(-8.16056e-13 6.53698e-12 0)
(3.4725e-12 -4.52245e-12 0)
(-2.75205e-12 3.13789e-12 0)
(-1.23945e-12 -1.70894e-12 0)
(6.82892e-14 1.63553e-12 0)
(-8.22885e-13 -1.77381e-12 0)
(6.14603e-14 2.95692e-12 0)
(-2.00429e-12 -1.79601e-12 0)
(7.2728e-13 8.3825e-13 0)
(1.99404e-12 -1.54675e-12 0)
(-1.29408e-12 -2.08623e-12 0)
(-1.64918e-12 -2.39866e-12 0)
(1.05848e-12 5.12169e-15 0)
(3.99492e-13 -2.10501e-12 0)
(5.15583e-13 -3.92663e-13 0)
(4.28856e-12 -1.85576e-12 0)
(5.61691e-12 3.20258e-12 0)
(4.26232e-12 1.52976e-12 0)
(6.59783e-13 2.05525e-12 0)
(1.28453e-13 1.24074e-12 0)
(-1.55896e-12 7.82398e-13 0)
(6.83138e-13 1.6407e-12 0)
(8.99173e-13 2.16619e-12 0)
(1.19695e-12 1.11813e-12 0)
(-1.73996e-12 2.47857e-12 0)
(6.28254e-12 -1.24366e-12 0)
(-4.34406e-12 4.58053e-12 0)
(-7.18171e-13 1.01595e-12 0)
(1.00777e-11 5.21696e-12 0)
(-6.87225e-12 3.64924e-13 0)
(4.09883e-12 3.63757e-12 0)
(-3.32227e-12 3.9295e-12 0)
(1.20863e-12 1.43342e-12 0)
(2.60994e-12 5.71617e-12 0)
(4.33238e-12 -1.03055e-12 0)
(3.52394e-10 8.60929e-12 0)
(7.77862e-09 -6.97443e-12 0)
(1.91619e-07 1.40131e-13 0)
(4.69777e-06 -3.53323e-10 0)
(0.000116454 -7.51708e-09 0)
(0.00301894 -1.71324e-07 0)
(0.0788037 -3.41419e-06 0)
(1.19094 -4.09306e-05 0)
(5.98222 -0.000169527 0)
(11.4311 -0.000234727 0)
(14.5096 -0.000208243 0)
(16.4255 -0.000158397 0)
(17.6234 -0.000113785 0)
(18.3198 -8.49464e-05 0)
(18.6879 -6.29099e-05 0)
(18.8641 -3.31395e-05 0)
(18.9405 -5.11618e-06 0)
(18.9703 1.82631e-05 0)
(18.9797 4.18228e-05 0)
(18.9839 2.25331e-05 0)
(18.9842 3.82544e-05 0)
(18.9833 7.17054e-06 0)
(18.9828 -4.8364e-05 0)
(18.9824 -0.000159778 0)
(18.982 -0.000395899 0)
(18.9821 -0.000851717 0)
(18.982 -0.00146314 0)
(18.9814 -0.00168975 0)
(18.9804 -0.00166001 0)
(18.9788 -0.00142366 0)
(18.9769 -0.000481014 0)
(18.9755 0.000115541 0)
(18.9755 0.000691132 0)
(18.9764 0.0010323 0)
(18.978 0.00175658 0)
(18.9796 0.00174008 0)
(18.9801 0.00126026 0)
(18.9798 0.00110893 0)
(18.9794 0.000614368 0)
(18.9789 0.000492905 0)
(18.9783 0.000263383 0)
(18.9771 0.000124056 0)
(18.9757 6.04894e-05 0)
(18.9751 -4.24654e-06 0)
(18.9744 -9.19914e-06 0)
(18.974 -1.68964e-06 0)
(18.967 7.35085e-06 0)
(18.947 1.03517e-05 0)
(18.8913 1.24099e-05 0)
(18.7534 1.7701e-05 0)
(18.4373 4.47416e-05 0)
(17.762 8.98383e-05 0)
(16.4023 0.000136176 0)
(13.7266 0.000159 0)
(7.96303 0.000124615 0)
(1.67177 3.11764e-05 0)
(0.102843 2.39982e-06 0)
(0.00345446 1.07596e-07 0)
(0.000120836 4.08269e-09 0)
(4.46704e-06 1.99421e-10 0)
(1.67131e-07 3.8259e-12 0)
(6.19998e-09 2.7862e-12 0)
(2.60294e-10 1.55187e-12 0)
(4.53099e-12 1.98209e-12 0)
(-2.56084e-12 2.38329e-12 0)
(-1.91551e-12 2.53865e-12 0)
(-4.05296e-12 3.90956e-12 0)
(3.8959e-12 2.79986e-13 0)
(-3.92321e-12 4.2271e-12 0)
(1.57065e-13 1.77552e-12 0)
(1.44432e-12 2.91595e-12 0)
(6.82892e-14 6.64112e-13 0)
(-7.28304e-12 1.04824e-12 0)
(1.97014e-12 8.09227e-13 0)
(-4.53099e-12 -4.09735e-14 0)
(-3.30861e-12 7.51181e-13 0)
(3.20959e-12 -5.18998e-13 0)
(1.38627e-12 1.14043e-12 0)
(-7.47766e-13 -2.39354e-12 0)
(9.69706e-13 -2.39012e-13 0)
(2.15111e-13 -2.43109e-12 0)
(-1.9268e-12 5.26659e-12 0)
(-1.70493e-12 2.27129e-12 0)
(-9.45884e-13 2.15743e-12 0)
(2.25961e-12 2.94567e-12 0)
(-7.29849e-13 1.57939e-12 0)
(2.67417e-12 3.16462e-12 0)
(-3.73682e-13 2.00854e-12 0)
(-1.55312e-12 1.02471e-12 0)
(3.50327e-13 1.04514e-12 0)
(-1.2495e-12 2.4844e-12 0)
(4.65351e-12 -2.86101e-12 0)
(-4.3207e-13 4.75861e-12 0)
(2.51068e-13 -5.45927e-12 0)
(-2.80262e-13 2.45813e-12 0)
(2.15451e-12 -2.81138e-12 0)
(4.43748e-13 -2.3939e-13 0)
(1.46554e-12 8.75818e-14 0)
(-5.95556e-13 -2.45229e-13 0)
(1.69325e-11 -1.86549e-12 0)
(3.24409e-10 7.06493e-13 0)
(7.78504e-09 -8.5655e-12 0)
(1.91583e-07 -9.14938e-12 0)
(4.69618e-06 -5.25164e-10 0)
(0.000116418 -1.17871e-08 0)
(0.00301805 -2.65352e-07 0)
(0.0787835 -5.20791e-06 0)
(1.19076 -6.05154e-05 0)
(5.98196 -0.000237003 0)
(11.4312 -0.000303504 0)
(14.5099 -0.000201026 0)
(16.4256 -7.55979e-05 0)
(17.6235 -3.45666e-06 0)
(18.3198 1.79832e-05 0)
(18.6879 1.40835e-05 0)
(18.8641 6.98909e-06 0)
(18.9406 3.99275e-06 0)
(18.9703 3.44806e-06 0)
(18.9797 -1.13843e-05 0)
(18.984 -3.5638e-05 0)
(18.9844 -7.62084e-05 0)
(18.9834 -8.61531e-05 0)
(18.983 -0.000178651 0)
(18.9826 -0.000212276 0)
(18.9823 -0.000198475 0)
(18.9825 -0.000113087 0)
(18.9824 8.3231e-05 0)
(18.9819 0.000198889 0)
(18.981 0.00134393 0)
(18.9793 0.00171184 0)
(18.9774 0.00159222 0)
(18.9762 0.00118304 0)
(18.9761 0.000638689 0)
(18.9768 0.000190198 0)
(18.9778 -5.87869e-05 0)
(18.9788 -0.000151946 0)
(18.9791 4.74383e-05 0)
(18.979 9.01334e-05 0)
(18.9789 0.000175443 0)
(18.9785 0.000233808 0)
(18.9781 0.000249807 0)
(18.9769 0.000229083 0)
(18.9756 0.000229084 0)
(18.975 0.000122318 0)
(18.9743 0.000129052 0)
(18.9739 3.11821e-05 0)
(18.967 3.65687e-06 0)
(18.947 -3.45142e-05 0)
(18.8913 -5.88853e-05 0)
(18.7534 -7.32546e-05 0)
(18.4374 -7.09426e-05 0)
(17.7622 -2.23577e-05 0)
(16.4025 7.53547e-05 0)
(13.7267 0.000174047 0)
(7.96288 0.000164869 0)
(1.67163 4.56842e-05 0)
(0.102828 3.71267e-06 0)
(0.00345388 1.72764e-07 0)
(0.000120816 6.99052e-09 0)
(4.4663e-06 2.97196e-10 0)
(1.67015e-07 1.16945e-12 0)
(6.26791e-09 -4.72903e-12 0)
(2.23825e-10 1.417e-12 0)
(1.53412e-11 -4.43197e-12 0)
(-3.15155e-12 2.49255e-13 0)
(2.74522e-12 -2.24842e-12 0)
(-1.74479e-12 4.30222e-13 0)
(-2.30817e-12 -2.73498e-12 0)
(1.47505e-12 4.40465e-13 0)
(-2.80669e-12 -1.79601e-12 0)
(-3.05594e-12 6.24846e-13 0)
(-3.54762e-12 -3.70469e-12 0)
(8.53615e-14 6.98257e-13 0)
(-2.09648e-12 -5.56557e-13 0)
(1.99063e-12 -1.14214e-12 0)
(-3.07301e-12 4.62659e-13 0)
(-3.31202e-13 -1.83869e-12 0)
(-2.5267e-12 -5.53142e-13 0)
(-1.49895e-12 -5.11657e-12 0)
(-4.30222e-13 -2.5745e-12 0)
(-8.53615e-13 -1.1657e-11 0)
(4.84619e-13 3.75434e-12 0)
(-2.17203e-12 1.20571e-12 0)
(2.62745e-12 1.67865e-12 0)
(-8.46624e-13 2.27713e-13 0)
(-2.48149e-12 1.48305e-12 0)
(2.05525e-12 4.26232e-13 0)
(-2.18371e-12 -1.4597e-12 0)
(-8.64141e-13 2.60702e-12 0)
(1.54728e-12 -2.14867e-12 0)
(-9.45884e-13 4.10759e-12 0)
(1.98519e-13 -5.25491e-13 0)
(-4.55426e-12 3.67844e-13 0)
(4.50754e-12 1.4305e-13 0)
(-8.1743e-13 7.94075e-13 0)
(-7.2401e-13 9.1377e-13 0)
(1.31373e-12 8.08672e-13 0)
(1.19111e-12 5.3133e-13 0)
(-1.79835e-12 3.18214e-13 0)
(1.05332e-11 -8.58302e-13 0)
(3.40582e-10 6.86058e-13 0)
(7.75855e-09 -1.75164e-12 0)
(1.91557e-07 -1.84097e-11 0)
(4.69414e-06 -5.66424e-10 0)
(0.00011637 -1.39625e-08 0)
(0.00301683 -3.23336e-07 0)
(0.0787548 -6.57872e-06 0)
(1.19049 -7.97226e-05 0)
(5.98151 -0.000330058 0)
(11.4313 -0.000454606 0)
(14.5101 -0.000341264 0)
(16.4258 -0.000176782 0)
(17.6236 -5.65744e-05 0)
(18.3198 -1.11566e-06 0)
(18.6879 8.43381e-06 0)
(18.8641 -3.30927e-06 0)
(18.9405 -2.36327e-05 0)
(18.9703 -4.03479e-05 0)
(18.9796 -6.58419e-05 0)
(18.9839 -7.80116e-05 0)
(18.9841 -9.35655e-05 0)
(18.9831 -8.93843e-05 0)
(18.9826 -0.000188805 0)
(18.9821 -0.000246656 0)
(18.9818 -0.000337944 0)
(18.982 -0.00041879 0)
(18.982 -0.000414471 0)
(18.9817 -0.00030863 0)
(18.9811 0.000205124 0)
(18.9797 0.000475303 0)
(18.9779 0.000476363 0)
(18.9764 0.000219945 0)
(18.9762 -0.00024918 0)
(18.977 -0.000483598 0)
(18.9784 -0.000896485 0)
(18.9795 -0.000651876 0)
(18.9797 -0.000166029 0)
(18.9794 -1.94072e-05 0)
(18.979 0.000154394 0)
(18.9785 0.000179778 0)
(18.978 0.000190584 0)
(18.9768 0.000150445 0)
(18.9755 0.000144464 0)
(18.9749 8.31275e-05 0)
(18.9742 7.48823e-05 0)
(18.9738 5.0849e-05 0)
(18.9668 2.48698e-05 0)
(18.9468 -1.1135e-05 0)
(18.8912 -4.32166e-05 0)
(18.7533 -5.87184e-05 0)
(18.4374 -4.46412e-05 0)
(17.7623 1.21213e-05 0)
(16.4027 0.000119756 0)
(13.7269 0.000230838 0)
(7.96267 0.00021373 0)
(1.67143 5.84076e-05 0)
(0.102806 4.69889e-06 0)
(0.00345305 2.16591e-07 0)
(0.000120787 8.71097e-09 0)
(4.46493e-06 3.63476e-10 0)
(1.6707e-07 -6.13578e-12 0)
(6.23353e-09 9.36074e-12 0)
(2.42597e-10 -3.96419e-12 0)
(6.22114e-12 4.79049e-12 0)
(8.77516e-13 -4.05979e-12 0)
(-1.49553e-12 3.78322e-12 0)
(-4.1793e-12 -5.20705e-12 0)
(4.19978e-12 4.05979e-12 0)
(-3.67396e-12 -3.24715e-12 0)
(7.95569e-13 1.39822e-12 0)
(-1.47163e-12 -2.57279e-12 0)
(-7.2728e-13 3.48275e-12 0)
(-1.33164e-12 -1.94624e-13 0)
(-1.31115e-12 1.61504e-12 0)
(-1.45456e-12 1.26335e-12 0)
(-5.33338e-12 3.92663e-13 0)
(1.95648e-12 2.27062e-12 0)
(-5.88653e-12 4.1315e-13 0)
(-3.86517e-12 1.75845e-12 0)
(-9.69023e-12 1.67479e-12 0)
(-1.42554e-11 2.95863e-12 0)
(-6.03731e-12 2.67125e-12 0)
(-4.12802e-12 1.71952e-12 0)
(-2.25961e-12 4.22436e-12 0)
(5.95556e-13 1.48889e-13 0)
(5.66363e-13 2.47857e-12 0)
(-2.66249e-12 -3.06536e-13 0)
(3.66092e-12 2.10196e-12 0)
(-3.87696e-12 8.90415e-13 0)
(3.25804e-12 4.90458e-13 0)
(2.41726e-12 2.39098e-12 0)
(-2.23626e-12 -4.3499e-13 0)
(8.05753e-13 4.96005e-12 0)
(-1.09185e-12 5.19652e-13 0)
(1.80305e-12 1.05974e-12 2.13188e-32)
(1.90459e-12 -8.23269e-13 0)
(1.40131e-13 1.73412e-12 0)
(7.99914e-13 -1.75164e-14 0)
(-6.2475e-13 2.21582e-12 0)
(9.03844e-12 -1.63486e-13 0)
(3.39491e-10 2.01146e-12 0)
(7.75333e-09 -1.61151e-12 0)
(1.91473e-07 -2.22283e-11 0)
(4.69212e-06 -5.52828e-10 0)
(0.000116318 -1.36007e-08 0)
(0.00301548 -3.20961e-07 0)
(0.0787221 -6.6458e-06 0)
(1.19017 -8.24899e-05 0)
(5.98096 -0.000353093 0)
(11.4314 -0.00050356 0)
(14.5105 -0.000399696 0)
(16.4262 -0.000187291 0)
(17.6238 2.83032e-06 2.08493e-32)
(18.3199 0.000114705 0)
(18.6878 0.000153823 0)
(18.864 0.000132991 0)
(18.9404 9.03873e-05 0)
(18.9702 3.84395e-05 -2.09325e-32)
(18.9796 1.26024e-05 0)
(18.9839 6.08238e-06 0)
(18.9842 -6.16747e-05 2.00651e-32)
(18.9832 -3.4877e-05 0)
(18.9827 -0.000137517 0)
(18.9822 -0.000136862 0)
(18.9819 -0.000122032 -2.03083e-32)
(18.982 -9.05646e-05 0)
(18.982 -5.66052e-05 0)
(18.9817 -2.43105e-05 0)
(18.9811 1.77775e-05 0)
(18.9799 0.000115159 0)
(18.9782 0.000221862 0)
(18.9769 0.000335781 0)
(18.9768 0.000533196 0)
(18.9774 0.000628649 0)
(18.9784 0.000612504 0)
(18.9791 0.000553666 0)
(18.9793 0.000427122 -1.05212e-32)
(18.979 0.000389827 1.07434e-32)
(18.9788 0.000355322 0)
(18.9784 0.000338948 0)
(18.9779 0.000283536 -1.08441e-32)
(18.9767 0.000232512 0)
(18.9754 0.000212089 0)
(18.9748 0.000129486 0)
(18.9741 0.000108435 0)
(18.9738 1.06091e-05 0)
(18.9668 -2.23167e-05 0)
(18.9468 -7.23439e-05 0)
(18.8912 -0.000105238 0)
(18.7534 -0.000115458 0)
(18.4375 -8.04998e-05 0)
(17.7625 1.49039e-05 0)
(16.403 0.00015601 1.08232e-32)
(13.7271 0.000269157 0)
(7.96241 0.000229518 0)
(1.67121 5.98082e-05 0)
(0.102782 4.66184e-06 0)
(0.00345215 2.09949e-07 0)
(0.000120754 8.28243e-09 0)
(4.46374e-06 3.10412e-10 0)
(1.67049e-07 2.16596e-11 0)
(6.22714e-09 -6.06066e-12 0)
(2.38475e-10 5.91896e-12 0)
(5.63995e-12 -2.65816e-12 0)
(-2.66928e-13 2.91595e-12 0)
(-4.85591e-13 -1.86259e-12 0)
(-7.89478e-13 2.05892e-12 0)
(1.0613e-12 2.31842e-12 0)
(-2.13477e-12 -1.64577e-12 0)
(-3.8235e-13 4.06833e-12 0)
(-8.72094e-13 -2.0538e-12 0)
(1.79118e-12 4.04272e-12 0)
(-4.01467e-12 -9.71413e-13 -1.06594e-32)
(7.56603e-13 4.44904e-12 0)
(-1.01607e-12 4.45587e-13 -1.06594e-32)
(6.89238e-14 5.00047e-12 0)
(3.87841e-13 3.44177e-12 0)
(-3.34337e-12 4.21856e-12 0)
(1.82287e-13 7.33426e-12 0)
(2.4134e-12 5.80287e-12 0)
(-1.26335e-13 1.42827e-11 0)
(-2.69752e-12 -2.67125e-12 0)
(3.62005e-13 -1.72244e-13 0)
(-6.77299e-13 -2.36179e-12 0)
(-3.63757e-12 1.51225e-12 0)
(-2.79094e-12 -3.52663e-12 0)
(2.97778e-13 1.83338e-12 0)
(1.12689e-12 -1.48305e-12 0)
(-4.56009e-12 9.98433e-13 0)
(4.67687e-12 -1.26118e-12 0)
(-3.24637e-12 1.86549e-12 0)
(3.48576e-12 -3.00698e-12 0)
(-2.49316e-12 1.99687e-12 0)
(-1.23198e-12 -5.66946e-12 0)
(-1.72244e-12 4.04044e-12 -2.13188e-32)
(-5.7804e-13 -5.64611e-12 0)
(3.18214e-12 2.10196e-12 0)
(1.29621e-12 -3.29892e-12 0)
(-9.75078e-13 -4.37909e-14 0)
(3.63173e-12 -2.51944e-12 0)
(3.56651e-10 6.10153e-13 0)
(7.72319e-09 1.40131e-13 0)
(1.91432e-07 -2.42748e-11 0)
(4.69022e-06 -4.55064e-10 0)
(0.000116273 -1.05323e-08 0)
(0.00301427 -2.54202e-07 0)
(0.0786923 -5.31795e-06 0)
(1.18987 -6.76064e-05 0)
(5.98039 -0.000304401 0)
(11.4313 -0.000478149 0)
(14.5108 -0.000452423 0)
(16.4266 -0.000311374 0)
(17.6241 -0.000120151 -2.08494e-32)
(18.32 3.11957e-05 0)
(18.6878 9.69755e-05 0)
(18.864 0.00010379 0)
(18.9403 7.459e-05 0)
(18.9701 4.29212e-05 2.09319e-32)
(18.9795 -1.05734e-05 0)
(18.9838 1.48676e-06 0)
(18.9841 -2.44902e-05 -2.00639e-32)
(18.9831 -9.4122e-06 0)
(18.9826 -3.9772e-05 0)
(18.9821 -3.61524e-05 0)
(18.9818 -4.00376e-05 2.04499e-32)
(18.9819 -5.02785e-05 0)
(18.982 -4.73347e-05 0)
(18.9817 -2.60749e-05 0)
(18.9812 5.53685e-05 0)
(18.9801 8.55346e-05 0)
(18.9786 0.000116042 0)
(18.9773 9.37564e-05 0)
(18.9771 -1.9579e-05 0)
(18.9775 -7.29242e-05 0)
(18.9784 -9.13458e-05 0)
(18.9792 -5.90837e-05 0)
(18.9794 -1.47374e-05 1.05498e-32)
(18.9791 7.43954e-06 -1.0676e-32)
(18.9787 -3.04945e-05 0)
(18.9782 -6.18569e-05 0)
(18.9778 -0.000107323 1.08648e-32)
(18.9766 -0.000122035 0)
(18.9753 -0.000149144 0)
(18.9747 -0.000109636 0)
(18.974 -0.000128068 0)
(18.9737 -0.00010622 0)
(18.9667 -0.000103924 0)
(18.9467 -8.55615e-05 0)
(18.8912 -5.692e-05 0)
(18.7534 -1.55802e-05 0)
(18.4376 6.12577e-05 0)
(17.7627 0.000166378 0)
(16.4032 0.000256922 -1.08232e-32)
(13.7272 0.000279307 0)
(7.9621 0.000201726 0)
(1.67099 4.70322e-05 0)
(0.102761 3.42386e-06 0)
(0.00345138 1.49096e-07 0)
(0.000120728 5.92181e-09 0)
(4.46279e-06 2.21125e-10 0)
(1.66924e-07 7.41279e-12 0)
(6.27396e-09 -2.19208e-12 0)
(2.26761e-10 -2.82546e-12 0)
(8.84003e-12 -6.52162e-13 0)
(1.72089e-12 -3.79005e-13 0)
(-3.03545e-12 1.1336e-12 0)
(2.60523e-12 -1.04824e-12 0)
(-1.94283e-12 1.81308e-12 0)
(-2.45841e-13 -2.19038e-12 0)
(-1.02092e-12 1.57748e-12 0)
(-6.58991e-13 6.84599e-13 0)
(1.33505e-12 -2.04868e-14 0)
(-4.40465e-13 -4.4388e-13 1.06594e-32)
(1.49553e-12 8.22885e-13 0)
(-1.21896e-12 1.05507e-12 1.06594e-32)
(2.09989e-12 4.08028e-13 0)
(-1.57748e-12 1.91893e-12 0)
(1.57407e-12 1.01922e-12 0)
(-8.22885e-13 4.25271e-12 0)
(2.48231e-12 2.26549e-12 0)
(1.17799e-12 5.11998e-12 0)
(-1.23782e-12 9.75078e-13 0)
(-3.50327e-12 2.39974e-12 0)
(1.0393e-12 1.33416e-12 0)
(-2.37055e-12 2.2275e-12 0)
(1.10353e-12 3.40401e-12 0)
(1.2495e-12 1.78375e-12 0)
(1.93264e-12 3.53539e-12 0)
(-3.43321e-12 -6.71461e-14 0)
(4.52506e-12 3.80689e-12 0)
(5.83879e-15 -3.76602e-12 0)
(-1.46554e-12 6.62411e-12 0)
(-4.27983e-12 -5.02136e-12 0)
(2.04358e-12 5.52349e-12 0)
(1.01011e-12 -4.39953e-12 0)
(-1.40131e-12 6.76424e-12 0)
(4.12802e-12 -1.71077e-12 0)
(-3.05953e-12 2.20414e-12 0)
(1.96183e-12 -1.06266e-12 0)
(6.2767e-12 2.95151e-12 0)
(3.47682e-10 -5.40088e-13 0)
(7.76004e-09 3.37482e-12 0)
(1.91291e-07 -1.10587e-11 0)
(4.68896e-06 -3.14013e-10 0)
(0.00011624 -6.97361e-09 0)
(0.0030134 -1.66295e-07 0)
(0.0786705 -3.47634e-06 0)
(1.18965 -4.46253e-05 0)
(5.97991 -0.000209472 0)
(11.4312 -0.000361404 0)
(14.5109 -0.000389515 0)
(16.4269 -0.000376167 0)
(17.6244 -0.000326686 0)
(18.3203 -0.000242815 0)
(18.6879 -0.000154056 0)
(18.864 -0.000101169 0)
(18.9403 -7.20912e-05 0)
(18.9701 -4.42233e-05 0)
(18.9795 -6.19365e-05 0)
(18.9838 -4.06094e-05 0)
(18.9841 -9.96734e-05 0)
(18.9831 -9.25365e-05 0)
(18.9826 -0.000102246 0)
(18.9822 -8.933e-05 0)
(18.982 -6.63992e-05 0)
(18.9821 -6.6111e-05 0)
(18.9822 -0.000109009 0)
(18.982 -0.00018946 0)
(18.9813 -0.000639244 0)
(18.9798 -0.000934593 0)
(18.9779 -0.000733642 0)
(18.9763 -0.000385392 0)
(18.9761 0.000189092 0)
(18.9769 0.000509002 0)
(18.9782 0.000843931 0)
(18.9794 0.000799519 0)
(18.9797 0.000342635 0)
(18.9794 0.000311768 0)
(18.979 0.000157843 0)
(18.9784 0.000128036 0)
(18.9779 8.53727e-05 0)
(18.9767 6.85357e-05 0)
(18.9754 5.70445e-05 0)
(18.9747 4.13673e-05 0)
(18.974 3.72435e-05 0)
(18.9737 1.20342e-05 0)
(18.9667 -2.9761e-07 0)
(18.9467 -9.07264e-06 0)
(18.8912 1.33745e-05 0)
(18.7535 7.85001e-05 0)
(18.4378 0.000160676 0)
(17.7629 0.000212335 0)
(16.4033 0.000219407 0)
(13.7271 0.000205486 0)
(7.96181 0.000116922 0)
(1.67084 2.21893e-05 0)
(0.102748 1.48139e-06 0)
(0.00345093 6.56523e-08 0)
(0.000120712 2.53472e-09 0)
(4.46218e-06 8.87537e-11 0)
(1.66973e-07 1.06804e-11 0)
(6.22008e-09 -1.61162e-12 0)
(2.45769e-10 4.57537e-12 0)
(6.67527e-12 -1.30944e-12 0)
(2.59157e-12 4.38246e-12 0)
(-1.03117e-12 -2.99107e-12 0)
(1.36578e-12 7.03378e-12 0)
(-1.07214e-12 -4.66415e-12 0)
(-2.28086e-12 8.26811e-12 0)
(3.64323e-12 -2.52499e-12 0)
(-2.7384e-12 6.46186e-12 0)
(-1.04824e-12 -4.35343e-13 0)
(-2.11355e-12 3.32227e-12 0)
(3.10374e-12 2.19891e-12 0)
(-1.417e-12 8.31421e-13 0)
(2.08623e-12 3.43836e-12 0)
(6.62405e-13 1.34359e-12 0)
(2.42768e-12 4.19296e-12 0)
(2.34573e-12 3.93858e-12 0)
(3.51006e-12 3.63981e-12 0)
(6.10505e-12 4.38758e-12 0)
(2.68584e-13 -1.1444e-12 0)
(-4.67103e-14 -6.91896e-13 0)
(-4.67103e-14 -2.13116e-13 0)
(6.42267e-14 1.83922e-13 0)
(-3.66676e-12 -2.18955e-13 0)
(7.35687e-13 4.64184e-13 0)
(-3.29892e-12 -1.05974e-12 0)
(-2.41726e-12 -1.57063e-12 0)
(-2.87268e-12 1.06266e-12 0)
(8.1743e-13 -2.09613e-12 0)
(1.89177e-12 1.67865e-12 0)
(-2.57491e-12 -9.634e-13 0)
(-1.22615e-13 4.39953e-12 0)
(-2.45813e-12 -6.86058e-13 0)
(6.67957e-12 1.51809e-12 0)
(-6.46938e-12 -5.57604e-13 0)
(2.62745e-12 3.44489e-13 0)
(3.73682e-13 -2.56907e-13 0)
(8.4604e-12 4.43748e-13 0)
(3.45248e-10 -1.33124e-12 0)
(7.7448e-09 1.84214e-12 0)
(1.913e-07 -7.37731e-12 0)
(4.688e-06 -1.87104e-10 0)
(0.00011622 -4.16003e-09 0)
(0.00301285 -9.6868e-08 0)
(0.0786571 -1.974e-06 0)
(1.18951 -2.45714e-05 0)
(5.97959 -0.000112262 0)
(11.4311 -0.000193799 0)
(14.5109 -0.000228029 0)
(16.4269 -0.000225347 0)
(17.6245 -0.000217331 0)
(18.3204 -0.000198669 0)
(18.6881 -0.0001785 0)
(18.8641 -0.00014204 0)
(18.9404 -9.75027e-05 0)
(18.9701 -8.00432e-05 0)
(18.9795 -3.4259e-05 0)
(18.9838 -6.19281e-05 0)
(18.9841 1.56726e-05 0)
(18.9831 1.64626e-05 0)
(18.9825 2.88619e-06 0)
(18.9821 2.73499e-06 0)
(18.9818 5.09397e-07 0)
(18.9819 -3.49283e-05 0)
(18.982 -0.000110051 0)
(18.9817 -0.000215167 0)
(18.9811 -0.000640143 0)
(18.9799 -0.000859597 0)
(18.9784 -0.000785615 0)
(18.9772 -0.000436112 0)
(18.977 6.84861e-05 0)
(18.9774 0.000387074 0)
(18.9781 0.000560391 0)
(18.9788 0.000363294 0)
(18.9791 6.05848e-05 0)
(18.9788 -0.000124758 0)
(18.9786 -0.000290248 0)
(18.9782 -0.000345322 0)
(18.9777 -0.000360697 0)
(18.9766 -0.000321881 0)
(18.9754 -0.00030595 0)
(18.9747 -0.000244443 0)
(18.9741 -0.000252757 0)
(18.9738 -0.000126756 0)
(18.9668 -7.41757e-05 0)
(18.9469 3.44258e-05 0)
(18.8914 0.000151203 0)
(18.7537 0.000242018 0)
(18.4379 0.000279156 0)
(17.7629 0.000268062 0)
(16.4032 0.000214556 0)
(13.7269 0.000115799 0)
(7.96162 2.55881e-05 0)
(1.67078 1.98505e-07 0)
(0.102743 -1.1429e-07 0)
(0.00345078 -1.02618e-08 0)
(0.000120707 -6.03391e-10 0)
(4.46205e-06 -3.08735e-11 0)
(1.66862e-07 4.15198e-12 0)
(6.2907e-09 -3.96077e-13 0)
(2.16217e-10 -1.13701e-12 0)
(1.46651e-11 9.56048e-13 0)
(-3.75932e-12 8.22885e-13 0)
(4.09735e-14 5.77044e-13 0)
(-1.43407e-13 5.5485e-13 0)
(-6.76063e-13 -1.62699e-12 0)
(3.82761e-12 3.43324e-12 0)
(-3.93004e-12 -2.05038e-12 0)
(3.35641e-12 5.88994e-13 0)
(-4.64025e-12 -7.51181e-14 0)
(5.58605e-12 -1.57065e-13 0)
(-2.93302e-12 1.02434e-14 0)
(5.42899e-13 -7.59717e-13 0)
(2.13404e-12 5.30948e-13 0)
(-9.38976e-13 2.40719e-13 0)
(7.73033e-12 -6.55576e-13 0)
(-1.94966e-12 1.45627e-12 0)
(5.04657e-12 9.71413e-13 0)
(3.01497e-12 2.00429e-12 0)
(-4.72942e-13 -6.48106e-13 0)
(-2.94275e-12 -1.03347e-12 0)
(3.0712e-12 -1.57647e-12 0)
(-2.16035e-12 -1.37795e-12 0)
(2.11948e-12 -1.11229e-12 0)
(-2.33552e-14 -3.06536e-13 0)
(-1.90928e-12 -1.86549e-12 0)
(9.86755e-13 2.17203e-12 0)
(2.59242e-12 -2.15159e-12 0)
(1.55312e-12 2.6946e-12 0)
(-7.59043e-13 -4.57761e-12 0)
(-2.16035e-13 -7.7364e-13 0)
(3.19382e-12 -1.31081e-12 0)
(-3.29308e-12 -1.39255e-12 0)
(-1.17944e-12 -1.54436e-12 0)
(1.47721e-12 -3.37774e-12 0)
(-3.14711e-12 9.57561e-13 0)
(2.50484e-12 -5.33957e-12 0)
(8.64141e-12 4.47543e-12 0)
(3.30213e-10 -1.30643e-11 0)
(7.80121e-09 1.51312e-11 0)
(1.91183e-07 -3.23936e-11 0)
(4.6876e-06 -7.69348e-11 0)
(0.000116208 -2.25646e-09 0)
(0.00301255 -5.31245e-08 0)
(0.07865 -1.07038e-06 0)
(1.18944 -1.35072e-05 0)
(5.97944 -6.29679e-05 0)
(11.431 -0.00011085 0)
(14.5108 -0.000133991 0)
(16.4269 -0.000150835 0)
(17.6245 -0.000157378 0)
(18.3204 -0.000166216 0)
(18.6881 -0.00015919 0)
(18.8641 -0.000143756 0)
(18.9404 -0.000137489 0)
(18.9702 -0.000130874 0)
(18.9796 -0.00011925 0)
(18.9838 -8.90763e-05 0)
(18.9841 -0.000117646 0)
(18.9831 -0.000111786 0)
(18.9826 -8.71008e-05 0)
(18.9822 -9.51013e-05 0)
(18.9819 -0.000110249 0)
(18.9821 -0.000113278 0)
(18.9822 -9.91083e-05 0)
(18.9819 -9.72836e-05 0)
(18.9812 -1.4934e-06 0)
(18.9797 7.50142e-05 0)
(18.9778 7.52296e-05 0)
(18.9763 -1.44969e-05 0)
(18.9761 -0.000201551 0)
(18.9768 -0.000335201 0)
(18.978 -0.00039963 0)
(18.9792 -0.000374285 0)
(18.9795 -0.000215221 0)
(18.9793 -0.000228422 0)
(18.979 -0.000216098 0)
(18.9785 -0.000219568 0)
(18.978 -0.000203174 0)
(18.9768 -0.000173169 0)
(18.9755 -0.000161876 0)
(18.9749 -4.06436e-05 0)
(18.9742 -1.58028e-05 0)
(18.9739 0.000117293 0)
(18.967 0.000168729 0)
(18.9471 0.000237033 0)
(18.8916 0.000265212 0)
(18.7538 0.000271559 0)
(18.4379 0.000253698 0)
(17.7628 0.000197887 0)
(16.403 0.000100463 0)
(13.7267 7.48066e-06 0)
(7.96154 -2.63467e-05 0)
(1.6708 -1.05885e-05 0)
(0.102747 -1.01884e-06 0)
(0.00345097 -5.43955e-08 0)
(0.000120715 -2.46213e-09 0)
(4.46244e-06 -1.16747e-10 0)
(1.66943e-07 -1.01751e-12 0)
(6.22466e-09 -3.91638e-12 0)
(2.42655e-10 -3.69786e-12 0)
(1.36749e-11 -1.37432e-12 0)
(9.90193e-13 -3.77981e-12 0)
(2.28769e-13 -4.91682e-13 0)
(-3.34276e-12 -3.55616e-12 0)
(4.88268e-12 8.86052e-13 0)
(-4.20661e-12 -2.82546e-12 0)
(-7.5801e-13 3.41446e-15 0)
(1.90185e-12 -7.44352e-13 0)
(-3.6125e-12 -5.12169e-14 0)
(-8.94588e-13 2.66669e-12 0)
(1.10628e-12 -1.73455e-12 0)
(2.15111e-13 4.09735e-12 0)
(3.95394e-12 -1.22238e-12 0)
(-1.23945e-12 2.35598e-12 0)
(4.49343e-12 -8.75809e-13 0)
(4.07345e-12 4.59245e-13 0)
(3.65689e-12 -1.36578e-13 0)
(7.5323e-12 -9.44098e-13 0)
(-1.69325e-13 2.43186e-12 0)
(-1.1736e-12 2.83765e-12 0)
(-1.30789e-12 2.62454e-12 0)
(8.52463e-13 1.22323e-12 0)
(-1.82754e-12 3.62881e-12 0)
(-1.33708e-12 -5.2841e-13 0)
(1.38379e-12 3.10915e-12 0)
(-3.65508e-12 3.26972e-13 0)
(-1.21447e-12 1.17068e-12 0)
(-2.84933e-12 -1.73996e-12 0)
(-4.79365e-12 -7.38607e-13 0)
(3.78937e-12 -3.23469e-12 0)
(-1.55896e-12 4.3207e-13 0)
(-2.53403e-12 -5.29286e-12 0)
(1.4597e-12 7.2109e-13 0)
(7.12332e-13 -3.73682e-12 0)
(-1.03347e-12 1.51809e-13 0)
(5.2082e-12 -1.98227e-12 0)
(1.33066e-11 1.2349e-12 0)
(2.996e-10 -3.53247e-12 0)
(7.85237e-09 -8.75818e-15 0)
(1.91079e-07 -7.62254e-12 0)
(4.68751e-06 -8.39034e-12 0)
(0.000116203 -2.19077e-10 0)
(0.00301241 -5.32008e-09 0)
(0.0786466 -1.08641e-07 0)
(1.1894 -1.45456e-06 0)
(5.97936 -7.39003e-06 0)
(11.4309 -1.4189e-05 0)
(14.5108 -1.82309e-05 0)
(16.4268 -2.19621e-05 0)
(17.6245 -2.32703e-05 0)
(18.3204 -2.83998e-05 0)
(18.6881 -3.54316e-05 0)
(18.8641 -4.28568e-05 0)
(18.9404 -4.40976e-05 0)
(18.9702 -4.86674e-05 0)
(18.9796 -3.99143e-05 0)
(18.9838 -4.77609e-05 0)
(18.9841 -4.10908e-05 0)
(18.9831 -4.05876e-05 0)
(18.9826 -4.93942e-05 0)
(18.9821 -6.06635e-05 0)
(18.9818 -8.45073e-05 0)
(18.9819 -0.000119961 0)
(18.9819 -0.00013804 0)
(18.9816 -0.000146429 0)
(18.9809 -0.000134209 0)
(18.9796 -9.51474e-05 0)
(18.9779 -1.69318e-05 0)
(18.9766 5.89214e-05 0)
(18.9764 0.000158134 0)
(18.977 0.000204804 0)
(18.978 0.000207569 0)
(18.979 0.000192366 0)
(18.9793 0.000125642 0)
(18.979 9.63108e-05 0)
(18.9788 5.7287e-05 0)
(18.9784 4.76695e-05 0)
(18.978 3.72727e-05 0)
(18.9769 3.09839e-05 0)
(18.9756 3.68601e-05 0)
(18.975 4.33528e-05 0)
(18.9743 5.21993e-05 0)
(18.974 6.24796e-05 0)
(18.9671 6.66913e-05 0)
(18.9471 6.81899e-05 0)
(18.8916 6.69258e-05 0)
(18.7538 6.41485e-05 0)
(18.4378 4.99709e-05 0)
(17.7626 2.53339e-05 0)
(16.4029 3.27171e-06 0)
(13.7266 -9.27756e-06 0)
(7.96157 -1.03532e-05 0)
(1.67083 -2.2754e-06 0)
(0.10275 -1.34648e-07 0)
(0.00345108 -5.02822e-09 0)
(0.000120719 -1.95281e-10 0)
(4.46265e-06 -7.01159e-12 0)
(1.66861e-07 3.09691e-12 0)
(6.28332e-09 -8.66419e-12 0)
(2.27502e-10 2.95009e-12 0)
(1.29886e-11 -4.30051e-12 0)
(-2.42427e-12 4.38758e-13 0)
(6.9655e-13 -5.37094e-12 0)
(1.25652e-12 5.92409e-13 0)
(1.56041e-12 -3.46738e-12 0)
(2.19891e-12 -9.09953e-13 0)
(-8.57029e-13 -5.08754e-13 0)
(2.8579e-12 -7.32401e-13 0)
(1.55699e-12 -6.99964e-14 0)
(1.25311e-12 1.24457e-12 0)
(-4.06321e-13 1.23433e-12 0)
(1.6287e-12 4.71195e-13 0)
(-8.74101e-13 1.38115e-12 0)
(8.1947e-14 -1.09092e-12 0)
(4.75976e-12 1.84893e-12 0)
(5.73629e-13 -1.26506e-12 0)
(2.44134e-12 4.98511e-13 0)
(1.91551e-12 -2.13062e-12 0)
)
;

boundaryField
{
    sides1
    {
        type            zeroGradient;
    }
    sides2
    {
        type            slip;
    }
    empty
    {
        type            empty;
    }
}


// ************************************************************************* //
