/*--------------------------------*- C++ -*----------------------------------*\
| =========                 |                                                 |
| \\      /  F ield         | OpenFOAM: The Open Source CFD Toolbox           |
|  \\    /   O peration     | Version:  2012                                  |
|   \\  /    A nd           | Website:  www.openfoam.com                      |
|    \\/     M anipulation  |                                                 |
\*---------------------------------------------------------------------------*/
FoamFile
{
    version     2.0;
    format      ascii;
    class       volScalarField;
    location    "3420";
    object      minKappa;
}
// * * * * * * * * * * * * * * * * * * * * * * * * * * * * * * * * * * * * * //

dimensions      [0 0 0 0 0 0 0];


internalField   nonuniform List<scalar> 
20400
(
3.39518e-12
3.39518e-12
3.7363e-12
1.05289e-11
2.80369e-11
5.22197e-11
8.07296e-11
1.1216e-10
1.44772e-10
1.78034e-10
2.11265e-10
2.44214e-10
2.77037e-10
3.09539e-10
3.41876e-10
3.7405e-10
4.06111e-10
4.38086e-10
4.6999e-10
5.01799e-10
5.33451e-10
5.64912e-10
5.96194e-10
6.27301e-10
6.58223e-10
6.88948e-10
7.19469e-10
7.4978e-10
7.79887e-10
8.09801e-10
8.39539e-10
8.69103e-10
8.98454e-10
9.27445e-10
9.55916e-10
9.84021e-10
1.01237e-09
1.04064e-09
1.06849e-09
1.0961e-09
1.12341e-09
1.15046e-09
1.17727e-09
1.20388e-09
1.23033e-09
1.25663e-09
1.28278e-09
1.3088e-09
1.33467e-09
1.3604e-09
1.38599e-09
1.41143e-09
1.43674e-09
1.46191e-09
1.48697e-09
1.51192e-09
1.53679e-09
1.56154e-09
1.58604e-09
1.61056e-09
1.63533e-09
1.66024e-09
1.68511e-09
1.70987e-09
1.73455e-09
1.75911e-09
1.78355e-09
1.80786e-09
1.83206e-09
1.85617e-09
1.8802e-09
1.90416e-09
1.92807e-09
1.95191e-09
1.97571e-09
1.99946e-09
2.02316e-09
2.04682e-09
2.07043e-09
2.09399e-09
2.11751e-09
2.14098e-09
2.16442e-09
2.1878e-09
2.21108e-09
2.2341e-09
2.25675e-09
2.27947e-09
2.30234e-09
2.32503e-09
2.34757e-09
2.36984e-09
2.39177e-09
2.41333e-09
2.43492e-09
2.45643e-09
2.47767e-09
2.49865e-09
2.51926e-09
2.53948e-09
2.55926e-09
2.57854e-09
2.5973e-09
2.61542e-09
2.633e-09
2.64987e-09
2.66626e-09
2.68173e-09
2.6969e-09
2.71083e-09
2.72442e-09
2.73653e-09
2.74722e-09
2.7552e-09
2.76096e-09
2.76552e-09
2.76789e-09
2.76733e-09
2.76432e-09
2.75907e-09
2.75175e-09
2.74216e-09
2.73005e-09
2.71544e-09
2.69793e-09
2.67749e-09
2.65358e-09
2.62601e-09
2.59411e-09
2.55717e-09
2.51617e-09
2.46953e-09
2.42009e-09
2.36826e-09
2.31782e-09
2.27303e-09
2.2278e-09
2.17817e-09
2.12367e-09
2.0655e-09
2.00324e-09
1.93818e-09
1.87033e-09
1.80034e-09
1.72845e-09
1.65473e-09
1.57796e-09
1.49757e-09
1.41288e-09
1.3275e-09
1.23105e-09
1.1323e-09
1.03529e-09
9.36559e-10
8.33934e-10
7.27289e-10
6.00398e-10
4.80318e-10
4.0605e-10
3.29928e-10
2.42126e-10
1.55257e-10
7.88267e-11
6.7421e-11
6.7421e-11
1.37593e-10
2.25984e-10
3.15368e-10
4.04035e-10
4.91026e-10
5.76678e-10
6.6e-10
7.41738e-10
8.2079e-10
8.9811e-10
9.72552e-10
1.04514e-09
1.11475e-09
1.18238e-09
1.24707e-09
1.30961e-09
1.36925e-09
1.42663e-09
1.48115e-09
1.5334e-09
1.58281e-09
1.62995e-09
1.67445e-09
1.71661e-09
1.75627e-09
1.79367e-09
1.82868e-09
1.86152e-09
1.8921e-09
1.92064e-09
1.94704e-09
1.97153e-09
1.99403e-09
2.01477e-09
2.03369e-09
2.05089e-09
2.06649e-09
2.08053e-09
2.09308e-09
2.10417e-09
2.11393e-09
2.1224e-09
2.12965e-09
2.13575e-09
2.14073e-09
2.1447e-09
2.14773e-09
2.14987e-09
2.15118e-09
2.15154e-09
2.15059e-09
2.149e-09
2.14682e-09
2.14406e-09
2.14084e-09
2.13711e-09
2.13305e-09
2.12859e-09
2.12386e-09
2.11883e-09
2.11357e-09
2.10808e-09
2.10243e-09
2.09661e-09
2.09067e-09
2.08463e-09
2.07852e-09
2.07236e-09
2.06615e-09
2.05996e-09
2.05374e-09
2.04759e-09
2.04143e-09
2.03541e-09
2.02937e-09
2.02351e-09
2.01768e-09
2.01199e-09
2.00638e-09
2.00092e-09
1.99559e-09
1.99042e-09
1.9854e-09
1.98054e-09
1.97585e-09
1.97134e-09
1.96699e-09
1.96282e-09
1.95883e-09
1.95503e-09
1.9514e-09
1.94796e-09
1.94471e-09
1.94165e-09
1.93878e-09
1.9361e-09
1.9336e-09
1.9313e-09
1.92918e-09
1.92725e-09
1.9255e-09
1.92394e-09
1.92256e-09
1.92136e-09
1.92034e-09
1.91949e-09
1.91883e-09
1.91831e-09
1.918e-09
1.91781e-09
1.91779e-09
1.91779e-09
1.91795e-09
1.91825e-09
1.91869e-09
1.91929e-09
1.92003e-09
1.92093e-09
1.92193e-09
1.9231e-09
1.92439e-09
1.92582e-09
1.92738e-09
1.92904e-09
1.93083e-09
1.93272e-09
1.93472e-09
1.93683e-09
1.93904e-09
1.94135e-09
1.94373e-09
1.94622e-09
1.94877e-09
1.95143e-09
1.95414e-09
1.95695e-09
1.95981e-09
1.96276e-09
1.96575e-09
1.96882e-09
1.97194e-09
1.97512e-09
1.97836e-09
1.98165e-09
1.98499e-09
1.98838e-09
1.9918e-09
1.99527e-09
1.99878e-09
2.00231e-09
2.00588e-09
2.00948e-09
2.0131e-09
2.01674e-09
2.02041e-09
2.02409e-09
2.02779e-09
2.03151e-09
2.03523e-09
2.03897e-09
2.04271e-09
2.04646e-09
2.05021e-09
2.05396e-09
2.05772e-09
2.06147e-09
2.06522e-09
2.06896e-09
2.0727e-09
2.07643e-09
2.08016e-09
2.08387e-09
2.08758e-09
2.09126e-09
2.09494e-09
2.0986e-09
2.10225e-09
2.10587e-09
2.10949e-09
2.11308e-09
2.11666e-09
2.12021e-09
2.12375e-09
2.12725e-09
2.13075e-09
2.13421e-09
2.13766e-09
2.14107e-09
2.14447e-09
2.14784e-09
2.15118e-09
2.1545e-09
2.15779e-09
2.16106e-09
2.1643e-09
2.16751e-09
2.1707e-09
2.17385e-09
2.17698e-09
2.18009e-09
2.18316e-09
2.18621e-09
2.18922e-09
2.19221e-09
2.19517e-09
2.19811e-09
2.20101e-09
2.20388e-09
2.20673e-09
2.20955e-09
2.21234e-09
2.2151e-09
2.21784e-09
2.22054e-09
2.22322e-09
2.22587e-09
2.22849e-09
2.23109e-09
2.23366e-09
2.2362e-09
2.23871e-09
2.2412e-09
2.24366e-09
2.24609e-09
2.2485e-09
2.25088e-09
2.25323e-09
2.25556e-09
2.25786e-09
2.26014e-09
2.2624e-09
2.26462e-09
2.26683e-09
2.26901e-09
2.27116e-09
2.2733e-09
2.2754e-09
2.27749e-09
2.27955e-09
2.28159e-09
2.28361e-09
2.2856e-09
2.28757e-09
2.28952e-09
2.29145e-09
2.29336e-09
2.29524e-09
2.29711e-09
2.29895e-09
2.30077e-09
2.30258e-09
2.30436e-09
2.30613e-09
2.30787e-09
2.3096e-09
2.3113e-09
2.31299e-09
2.31466e-09
2.31631e-09
2.31794e-09
2.31955e-09
2.32115e-09
2.32273e-09
2.32429e-09
2.32584e-09
2.32737e-09
2.32888e-09
2.33037e-09
2.33185e-09
2.33331e-09
2.33476e-09
2.33619e-09
2.33761e-09
2.33901e-09
2.34039e-09
2.34176e-09
2.34312e-09
2.34446e-09
2.34578e-09
2.34709e-09
2.34839e-09
2.34967e-09
2.35094e-09
2.3522e-09
2.35344e-09
2.35467e-09
2.35589e-09
2.35709e-09
2.35828e-09
2.35946e-09
2.36062e-09
2.36177e-09
2.36291e-09
2.36404e-09
2.36515e-09
2.36625e-09
2.36735e-09
2.36842e-09
2.36949e-09
2.37055e-09
2.37159e-09
2.37262e-09
2.37364e-09
2.37465e-09
2.37565e-09
2.37664e-09
2.37762e-09
2.37858e-09
2.37954e-09
2.38048e-09
2.38142e-09
2.38234e-09
2.38325e-09
2.38415e-09
2.38505e-09
2.38593e-09
2.3868e-09
2.38766e-09
2.38851e-09
2.38935e-09
2.39018e-09
2.39101e-09
2.39181e-09
2.39262e-09
2.39339e-09
2.39418e-09
2.39493e-09
2.39571e-09
2.39642e-09
2.3972e-09
2.39787e-09
2.39866e-09
2.39931e-09
2.40027e-09
2.40091e-09
3.41784e-12
7.74028e-12
2.52347e-11
5.67186e-11
1.00069e-10
1.50813e-10
2.07797e-10
2.67983e-10
3.29838e-10
3.92824e-10
4.55307e-10
5.18213e-10
5.80503e-10
6.42476e-10
7.03989e-10
7.65136e-10
8.25925e-10
8.86367e-10
9.46496e-10
1.00617e-09
1.06527e-09
1.12383e-09
1.18186e-09
1.23936e-09
1.29632e-09
1.35273e-09
1.40858e-09
1.4639e-09
1.51871e-09
1.57304e-09
1.62692e-09
1.68034e-09
1.73325e-09
1.78541e-09
1.83679e-09
1.8885e-09
1.93996e-09
1.99091e-09
2.04152e-09
2.09166e-09
2.14136e-09
2.19062e-09
2.23943e-09
2.28782e-09
2.3358e-09
2.38338e-09
2.43057e-09
2.4774e-09
2.52387e-09
2.57002e-09
2.61587e-09
2.66144e-09
2.70678e-09
2.75188e-09
2.7968e-09
2.84148e-09
2.88601e-09
2.93015e-09
2.97392e-09
3.0173e-09
3.05995e-09
3.10254e-09
3.14445e-09
3.18639e-09
3.22812e-09
3.26975e-09
3.31125e-09
3.35259e-09
3.39378e-09
3.4348e-09
3.47566e-09
3.51632e-09
3.55681e-09
3.5971e-09
3.6372e-09
3.67709e-09
3.71679e-09
3.75628e-09
3.79556e-09
3.8346e-09
3.87344e-09
3.91204e-09
3.95042e-09
3.98851e-09
4.02629e-09
4.0636e-09
4.10056e-09
4.13762e-09
4.17435e-09
4.21062e-09
4.24648e-09
4.28159e-09
4.31615e-09
4.34981e-09
4.38314e-09
4.41549e-09
4.44741e-09
4.47808e-09
4.50817e-09
4.53678e-09
4.56478e-09
4.59083e-09
4.61618e-09
4.63906e-09
4.6615e-09
4.68078e-09
4.69955e-09
4.71443e-09
4.72851e-09
4.73847e-09
4.74765e-09
4.7509e-09
4.75288e-09
4.7504e-09
4.75302e-09
4.7485e-09
4.74463e-09
4.7325e-09
4.72076e-09
4.70048e-09
4.68056e-09
4.65172e-09
4.62354e-09
4.58576e-09
4.54926e-09
4.50201e-09
4.45716e-09
4.39998e-09
4.34661e-09
4.27902e-09
4.21591e-09
4.13794e-09
4.06307e-09
3.97361e-09
3.8876e-09
3.78847e-09
3.68334e-09
3.57292e-09
3.45821e-09
3.33909e-09
3.21632e-09
3.08778e-09
2.95624e-09
2.81765e-09
2.67625e-09
2.52371e-09
2.37356e-09
2.19716e-09
2.04533e-09
1.8659e-09
1.72627e-09
1.58116e-09
1.43164e-09
1.27469e-09
1.09142e-09
8.82758e-10
7.62557e-10
6.15654e-10
3.99988e-10
2.83906e-10
2.817e-10
3.21662e-10
3.80285e-10
4.67934e-10
5.98833e-10
7.65924e-10
9.13447e-10
1.07862e-09
1.22294e-09
1.38276e-09
1.5223e-09
1.67494e-09
1.80889e-09
1.95323e-09
2.08099e-09
2.21632e-09
2.33743e-09
2.46338e-09
2.5774e-09
2.69372e-09
2.80018e-09
2.90712e-09
3.00549e-09
3.10318e-09
3.19335e-09
3.28187e-09
3.36383e-09
3.44353e-09
3.51731e-09
3.58847e-09
3.6543e-09
3.71727e-09
3.77545e-09
3.8306e-09
3.88151e-09
3.92928e-09
3.9733e-09
4.01415e-09
4.05176e-09
4.0862e-09
4.11772e-09
4.14631e-09
4.17218e-09
4.19539e-09
4.21604e-09
4.23433e-09
4.25026e-09
4.26405e-09
4.27572e-09
4.28543e-09
4.2933e-09
4.29943e-09
4.3039e-09
4.30685e-09
4.30842e-09
4.30855e-09
4.3073e-09
4.30474e-09
4.30128e-09
4.29655e-09
4.29122e-09
4.28468e-09
4.27784e-09
4.2698e-09
4.26171e-09
4.25245e-09
4.24334e-09
4.23309e-09
4.22323e-09
4.21221e-09
4.20178e-09
4.19026e-09
4.17942e-09
4.16759e-09
4.15649e-09
4.14453e-09
4.13328e-09
4.1214e-09
4.11007e-09
4.09849e-09
4.08714e-09
4.07596e-09
4.06475e-09
4.05393e-09
4.043e-09
4.0326e-09
4.02208e-09
4.01219e-09
4.00218e-09
3.99281e-09
3.98336e-09
3.97457e-09
3.96571e-09
3.95753e-09
3.94927e-09
3.94174e-09
3.93411e-09
3.92725e-09
3.92027e-09
3.91409e-09
3.90777e-09
3.90228e-09
3.89663e-09
3.89182e-09
3.88686e-09
3.88272e-09
3.87844e-09
3.87496e-09
3.87136e-09
3.86853e-09
3.8656e-09
3.8634e-09
3.86114e-09
3.85954e-09
3.85794e-09
3.85691e-09
3.85593e-09
3.85551e-09
3.85511e-09
3.8552e-09
3.85538e-09
3.85604e-09
3.85679e-09
3.85792e-09
3.85922e-09
3.86084e-09
3.86265e-09
3.86473e-09
3.867e-09
3.8695e-09
3.87221e-09
3.87515e-09
3.87829e-09
3.88162e-09
3.88515e-09
3.88881e-09
3.89271e-09
3.89665e-09
3.90093e-09
3.90509e-09
3.90976e-09
3.91414e-09
3.91913e-09
3.92372e-09
3.92902e-09
3.93382e-09
3.93939e-09
3.94439e-09
3.9502e-09
3.95539e-09
3.96141e-09
3.96677e-09
3.97296e-09
3.97847e-09
3.98482e-09
3.99047e-09
3.99694e-09
4.0027e-09
4.00927e-09
4.01513e-09
4.0218e-09
4.02774e-09
4.03448e-09
4.04049e-09
4.04728e-09
4.05335e-09
4.06017e-09
4.06628e-09
4.07312e-09
4.07926e-09
4.08611e-09
4.09226e-09
4.0991e-09
4.10527e-09
4.11209e-09
4.11825e-09
4.12504e-09
4.1312e-09
4.13793e-09
4.14409e-09
4.15075e-09
4.1569e-09
4.16348e-09
4.16962e-09
4.17611e-09
4.18224e-09
4.18863e-09
4.19473e-09
4.20102e-09
4.20709e-09
4.21327e-09
4.2193e-09
4.22537e-09
4.23136e-09
4.23732e-09
4.24324e-09
4.24912e-09
4.25495e-09
4.26075e-09
4.26649e-09
4.2722e-09
4.27786e-09
4.28347e-09
4.28903e-09
4.29455e-09
4.30002e-09
4.30545e-09
4.31082e-09
4.31615e-09
4.32143e-09
4.32667e-09
4.33185e-09
4.33699e-09
4.34207e-09
4.34711e-09
4.3521e-09
4.35704e-09
4.36193e-09
4.36678e-09
4.37157e-09
4.37632e-09
4.38102e-09
4.38567e-09
4.39028e-09
4.39483e-09
4.39934e-09
4.40381e-09
4.40822e-09
4.41259e-09
4.41692e-09
4.42119e-09
4.42543e-09
4.42962e-09
4.43376e-09
4.43786e-09
4.44191e-09
4.44592e-09
4.44989e-09
4.45382e-09
4.4577e-09
4.46154e-09
4.46534e-09
4.4691e-09
4.47282e-09
4.47649e-09
4.48013e-09
4.48373e-09
4.48728e-09
4.4908e-09
4.49428e-09
4.49772e-09
4.50113e-09
4.5045e-09
4.50783e-09
4.51112e-09
4.51438e-09
4.5176e-09
4.52079e-09
4.52394e-09
4.52706e-09
4.53014e-09
4.5332e-09
4.53621e-09
4.5392e-09
4.54215e-09
4.54507e-09
4.54796e-09
4.55081e-09
4.55364e-09
4.55644e-09
4.5592e-09
4.56194e-09
4.56464e-09
4.56732e-09
4.56997e-09
4.57258e-09
4.57518e-09
4.57774e-09
4.58027e-09
4.58278e-09
4.58526e-09
4.58772e-09
4.59014e-09
4.59255e-09
4.59492e-09
4.59727e-09
4.5996e-09
4.6019e-09
4.60417e-09
4.60642e-09
4.60865e-09
4.61085e-09
4.61303e-09
4.61519e-09
4.61732e-09
4.61943e-09
4.62152e-09
4.62358e-09
4.62563e-09
4.62765e-09
4.62964e-09
4.63162e-09
4.63358e-09
4.63551e-09
4.63742e-09
4.63932e-09
4.64119e-09
4.64304e-09
4.64487e-09
4.64668e-09
4.64847e-09
4.65025e-09
4.652e-09
4.65373e-09
4.65544e-09
4.65714e-09
4.65881e-09
4.66047e-09
4.6621e-09
4.66372e-09
4.66532e-09
4.6669e-09
4.66847e-09
4.67001e-09
4.67154e-09
4.67304e-09
4.67455e-09
4.67598e-09
4.67748e-09
4.67884e-09
4.68035e-09
4.68161e-09
4.68316e-09
4.68427e-09
4.68594e-09
4.68682e-09
4.68871e-09
4.68924e-09
4.69166e-09
4.6915e-09
4.21899e-12
2.72836e-11
8.36324e-11
1.54053e-10
2.40636e-10
3.38593e-10
4.4605e-10
5.59023e-10
6.75523e-10
7.93865e-10
9.12358e-10
1.03112e-09
1.149e-09
1.2661e-09
1.38221e-09
1.49733e-09
1.61144e-09
1.72447e-09
1.8363e-09
1.94693e-09
2.05654e-09
2.16505e-09
2.27249e-09
2.37881e-09
2.48398e-09
2.58801e-09
2.69088e-09
2.79262e-09
2.89324e-09
2.99277e-09
3.09125e-09
3.18865e-09
3.28501e-09
3.38033e-09
3.47485e-09
3.56856e-09
3.66059e-09
3.75183e-09
3.84208e-09
3.93133e-09
4.01957e-09
4.10687e-09
4.19318e-09
4.27867e-09
4.36333e-09
4.44723e-09
4.53035e-09
4.61271e-09
4.69432e-09
4.7752e-09
4.85535e-09
4.93479e-09
5.01355e-09
5.0916e-09
5.16906e-09
5.24567e-09
5.3219e-09
5.39727e-09
5.47285e-09
5.54716e-09
5.6208e-09
5.69426e-09
5.76692e-09
5.83911e-09
5.91063e-09
5.98154e-09
6.05185e-09
6.12156e-09
6.19068e-09
6.25922e-09
6.32718e-09
6.39455e-09
6.46134e-09
6.52751e-09
6.59309e-09
6.65802e-09
6.72233e-09
6.78595e-09
6.84891e-09
6.91112e-09
6.97265e-09
7.03333e-09
7.09329e-09
7.15227e-09
7.21045e-09
7.26769e-09
7.32433e-09
7.37952e-09
7.43357e-09
7.48589e-09
7.53744e-09
7.58754e-09
7.63666e-09
7.68395e-09
7.72952e-09
7.77267e-09
7.81486e-09
7.85433e-09
7.89236e-09
7.92714e-09
7.9603e-09
7.98988e-09
8.01731e-09
8.04061e-09
8.06205e-09
8.07809e-09
8.09272e-09
8.10078e-09
8.10781e-09
8.10719e-09
8.10712e-09
8.09585e-09
8.0861e-09
8.06219e-09
8.03913e-09
8.00516e-09
7.96956e-09
7.92362e-09
7.8752e-09
7.81548e-09
7.75323e-09
7.67859e-09
7.60171e-09
7.51138e-09
7.41926e-09
7.31239e-09
7.20442e-09
7.08016e-09
6.95491e-09
6.81246e-09
6.66381e-09
6.50575e-09
6.33156e-09
6.15413e-09
5.96704e-09
5.78646e-09
5.60696e-09
5.4001e-09
5.19576e-09
4.97067e-09
4.74882e-09
4.45599e-09
4.13479e-09
3.7988e-09
3.46988e-09
3.12614e-09
2.8e-09
2.45875e-09
2.14146e-09
1.82794e-09
1.54468e-09
1.32738e-09
1.23073e-09
9.77286e-10
7.40422e-10
6.24729e-10
6.24729e-10
7.00649e-10
7.68883e-10
8.11644e-10
9.5846e-10
1.20886e-09
1.46902e-09
1.7589e-09
2.02587e-09
2.31413e-09
2.57723e-09
2.85886e-09
3.11501e-09
3.38686e-09
3.63439e-09
3.89453e-09
4.13224e-09
4.37917e-09
4.60607e-09
4.83877e-09
5.0541e-09
5.27166e-09
5.47469e-09
5.67691e-09
5.86665e-09
6.05377e-09
6.22952e-09
6.40158e-09
6.56312e-09
6.7202e-09
6.86754e-09
7.00991e-09
7.14322e-09
7.27122e-09
7.39083e-09
7.50493e-09
7.6113e-09
7.71207e-09
7.80575e-09
7.89384e-09
7.97545e-09
8.05158e-09
8.12179e-09
8.18669e-09
8.24626e-09
8.30068e-09
8.35022e-09
8.39501e-09
8.43525e-09
8.47115e-09
8.50283e-09
8.53057e-09
8.55448e-09
8.5748e-09
8.59168e-09
8.60527e-09
8.61579e-09
8.62341e-09
8.62834e-09
8.63075e-09
8.63057e-09
8.62773e-09
8.62305e-09
8.61626e-09
8.60794e-09
8.59773e-09
8.5863e-09
8.57311e-09
8.55904e-09
8.54337e-09
8.52713e-09
8.50944e-09
8.4915e-09
8.47219e-09
8.45293e-09
8.43242e-09
8.41217e-09
8.39081e-09
8.36988e-09
8.348e-09
8.32664e-09
8.30458e-09
8.28296e-09
8.26108e-09
8.23938e-09
8.21791e-09
8.19637e-09
8.17539e-09
8.15425e-09
8.1339e-09
8.1134e-09
8.09378e-09
8.07407e-09
8.05527e-09
8.03646e-09
8.01859e-09
8.00074e-09
7.98391e-09
7.96709e-09
7.95135e-09
7.93563e-09
7.92103e-09
7.90646e-09
7.89303e-09
7.87963e-09
7.86741e-09
7.85521e-09
7.8442e-09
7.83323e-09
7.82343e-09
7.81368e-09
7.80509e-09
7.79656e-09
7.78917e-09
7.78185e-09
7.77562e-09
7.7695e-09
7.76442e-09
7.75948e-09
7.75552e-09
7.75171e-09
7.74886e-09
7.74614e-09
7.74431e-09
7.74267e-09
7.74188e-09
7.74129e-09
7.74144e-09
7.74184e-09
7.74289e-09
7.7443e-09
7.74622e-09
7.74851e-09
7.75126e-09
7.75441e-09
7.75798e-09
7.76194e-09
7.76629e-09
7.77097e-09
7.776e-09
7.78139e-09
7.78705e-09
7.79312e-09
7.79931e-09
7.80605e-09
7.81274e-09
7.82009e-09
7.82725e-09
7.83518e-09
7.8428e-09
7.85125e-09
7.85931e-09
7.86822e-09
7.87669e-09
7.88601e-09
7.89485e-09
7.90454e-09
7.9137e-09
7.92371e-09
7.93316e-09
7.94346e-09
7.95317e-09
7.9637e-09
7.97364e-09
7.98438e-09
7.99452e-09
8.00544e-09
8.01574e-09
8.02681e-09
8.03724e-09
8.04842e-09
8.05897e-09
8.07024e-09
8.08087e-09
8.0922e-09
8.10289e-09
8.11426e-09
8.125e-09
8.13638e-09
8.14714e-09
8.15852e-09
8.16928e-09
8.18062e-09
8.19139e-09
8.20267e-09
8.21342e-09
8.22462e-09
8.23535e-09
8.24645e-09
8.25715e-09
8.26813e-09
8.27879e-09
8.28963e-09
8.30024e-09
8.31094e-09
8.32149e-09
8.33204e-09
8.3425e-09
8.35292e-09
8.36326e-09
8.37355e-09
8.38376e-09
8.39391e-09
8.40399e-09
8.414e-09
8.42394e-09
8.4338e-09
8.44359e-09
8.45331e-09
8.46294e-09
8.4725e-09
8.48199e-09
8.49139e-09
8.50072e-09
8.50996e-09
8.51913e-09
8.52821e-09
8.53721e-09
8.54614e-09
8.55498e-09
8.56374e-09
8.57241e-09
8.58101e-09
8.58952e-09
8.59796e-09
8.60631e-09
8.61458e-09
8.62277e-09
8.63088e-09
8.63891e-09
8.64685e-09
8.65472e-09
8.66251e-09
8.67022e-09
8.67785e-09
8.6854e-09
8.69288e-09
8.70028e-09
8.7076e-09
8.71484e-09
8.72201e-09
8.7291e-09
8.73612e-09
8.74307e-09
8.74994e-09
8.75674e-09
8.76346e-09
8.77012e-09
8.7767e-09
8.78322e-09
8.78966e-09
8.79604e-09
8.80235e-09
8.80859e-09
8.81476e-09
8.82086e-09
8.82691e-09
8.83288e-09
8.83879e-09
8.84464e-09
8.85043e-09
8.85615e-09
8.86181e-09
8.86741e-09
8.87295e-09
8.87843e-09
8.88385e-09
8.88922e-09
8.89452e-09
8.89977e-09
8.90496e-09
8.9101e-09
8.91518e-09
8.92021e-09
8.92518e-09
8.9301e-09
8.93497e-09
8.93978e-09
8.94455e-09
8.94926e-09
8.95392e-09
8.95853e-09
8.96309e-09
8.96761e-09
8.97207e-09
8.97649e-09
8.98086e-09
8.98519e-09
8.98946e-09
8.9937e-09
8.99788e-09
9.00203e-09
9.00612e-09
9.01018e-09
9.01419e-09
9.01816e-09
9.02208e-09
9.02597e-09
9.02981e-09
9.03361e-09
9.03737e-09
9.04109e-09
9.04477e-09
9.04841e-09
9.05201e-09
9.05558e-09
9.0591e-09
9.06259e-09
9.06604e-09
9.06945e-09
9.07282e-09
9.07616e-09
9.07946e-09
9.08273e-09
9.08596e-09
9.08915e-09
9.09231e-09
9.09543e-09
9.09852e-09
9.10158e-09
9.1046e-09
9.10758e-09
9.11054e-09
9.11346e-09
9.11635e-09
9.11919e-09
9.12202e-09
9.1248e-09
9.12757e-09
9.13027e-09
9.13298e-09
9.1356e-09
9.13827e-09
9.14078e-09
9.14344e-09
9.14582e-09
9.14848e-09
9.15069e-09
9.15343e-09
9.15538e-09
9.15829e-09
9.15984e-09
9.16308e-09
9.16393e-09
1.31471e-11
6.56585e-11
1.67763e-10
2.86897e-10
4.17184e-10
5.59823e-10
7.12761e-10
8.72295e-10
1.03616e-09
1.20241e-09
1.36961e-09
1.53685e-09
1.70291e-09
1.86754e-09
2.03055e-09
2.19182e-09
2.3513e-09
2.50875e-09
2.66397e-09
2.81703e-09
2.96822e-09
3.11749e-09
3.26481e-09
3.41019e-09
3.55355e-09
3.69493e-09
3.83436e-09
3.97184e-09
4.10748e-09
4.24127e-09
4.37335e-09
4.50365e-09
4.63243e-09
4.75983e-09
4.88606e-09
5.00977e-09
5.13238e-09
5.25351e-09
5.37322e-09
5.49149e-09
5.60829e-09
5.72366e-09
5.83752e-09
5.95e-09
6.06105e-09
6.17072e-09
6.27906e-09
6.38608e-09
6.49184e-09
6.59637e-09
6.69971e-09
6.8019e-09
6.90298e-09
7.00297e-09
7.10202e-09
7.19996e-09
7.29722e-09
7.39328e-09
7.48881e-09
7.58206e-09
7.67291e-09
7.7631e-09
7.85158e-09
7.93958e-09
8.02649e-09
8.11263e-09
8.19782e-09
8.282e-09
8.36515e-09
8.44721e-09
8.52819e-09
8.60801e-09
8.6867e-09
8.76416e-09
8.84045e-09
8.91544e-09
8.98918e-09
9.06157e-09
9.13263e-09
9.20221e-09
9.27044e-09
9.33706e-09
9.40228e-09
9.46574e-09
9.52769e-09
9.58769e-09
9.64587e-09
9.70203e-09
9.75662e-09
9.80852e-09
9.85854e-09
9.90537e-09
9.95052e-09
9.99209e-09
1.00315e-08
1.00667e-08
1.00995e-08
1.01275e-08
1.01534e-08
1.01738e-08
1.01919e-08
1.02039e-08
1.02129e-08
1.02147e-08
1.02146e-08
1.02054e-08
1.01945e-08
1.01734e-08
1.01503e-08
1.01153e-08
1.00758e-08
1.00291e-08
9.96253e-09
9.90213e-09
9.84749e-09
9.76932e-09
9.69119e-09
9.5943e-09
9.49645e-09
9.38165e-09
9.26463e-09
9.13101e-09
8.94526e-09
8.72552e-09
8.5018e-09
8.25955e-09
8.0154e-09
7.75057e-09
7.48697e-09
7.20114e-09
6.92023e-09
6.61646e-09
6.31368e-09
6.00005e-09
5.6721e-09
5.31554e-09
4.95614e-09
4.59405e-09
4.23158e-09
3.86247e-09
3.49631e-09
3.12722e-09
2.77087e-09
2.42918e-09
2.13089e-09
1.89508e-09
1.75011e-09
1.66494e-09
1.33168e-09
1.05193e-09
9.06732e-10
9.06732e-10
9.45459e-10
1.14004e-09
1.21925e-09
1.30123e-09
1.47678e-09
1.76634e-09
2.08164e-09
2.449e-09
2.80158e-09
3.18174e-09
3.53812e-09
3.91631e-09
4.2682e-09
4.6397e-09
4.98432e-09
5.34557e-09
5.6803e-09
6.02836e-09
6.35158e-09
6.68474e-09
6.99517e-09
7.31187e-09
7.6085e-09
7.90754e-09
8.18934e-09
8.47003e-09
8.73571e-09
8.99799e-09
9.24648e-09
9.49026e-09
9.72104e-09
9.94617e-09
1.0159e-08
1.03655e-08
1.05604e-08
1.07485e-08
1.09256e-08
1.10956e-08
1.12553e-08
1.14077e-08
1.15505e-08
1.1686e-08
1.18125e-08
1.19318e-08
1.20428e-08
1.21467e-08
1.22428e-08
1.23322e-08
1.24145e-08
1.24901e-08
1.25592e-08
1.26221e-08
1.2679e-08
1.273e-08
1.27755e-08
1.28156e-08
1.28506e-08
1.28807e-08
1.29061e-08
1.2927e-08
1.29437e-08
1.29564e-08
1.29653e-08
1.29706e-08
1.29727e-08
1.2971e-08
1.29664e-08
1.2959e-08
1.29493e-08
1.2937e-08
1.29227e-08
1.2906e-08
1.28878e-08
1.28675e-08
1.2846e-08
1.28227e-08
1.27984e-08
1.27726e-08
1.27462e-08
1.27185e-08
1.26904e-08
1.26611e-08
1.26318e-08
1.26015e-08
1.25713e-08
1.25404e-08
1.25096e-08
1.24785e-08
1.24475e-08
1.24167e-08
1.23857e-08
1.23553e-08
1.23246e-08
1.22949e-08
1.22649e-08
1.22359e-08
1.22068e-08
1.21787e-08
1.21506e-08
1.21237e-08
1.20968e-08
1.20711e-08
1.20455e-08
1.20211e-08
1.1997e-08
1.19741e-08
1.19514e-08
1.193e-08
1.19088e-08
1.1889e-08
1.18694e-08
1.18512e-08
1.18332e-08
1.18167e-08
1.18003e-08
1.17854e-08
1.17707e-08
1.17573e-08
1.17443e-08
1.17326e-08
1.17211e-08
1.1711e-08
1.17011e-08
1.16926e-08
1.16843e-08
1.16772e-08
1.16705e-08
1.16649e-08
1.16596e-08
1.16555e-08
1.16516e-08
1.16489e-08
1.16464e-08
1.16449e-08
1.16439e-08
1.16437e-08
1.16438e-08
1.16448e-08
1.16463e-08
1.16484e-08
1.1651e-08
1.16542e-08
1.16578e-08
1.16621e-08
1.16668e-08
1.1672e-08
1.16777e-08
1.16837e-08
1.16903e-08
1.16971e-08
1.17046e-08
1.17122e-08
1.17205e-08
1.17288e-08
1.17378e-08
1.17468e-08
1.17566e-08
1.17662e-08
1.17765e-08
1.17867e-08
1.17976e-08
1.18083e-08
1.18198e-08
1.18309e-08
1.18428e-08
1.18544e-08
1.18667e-08
1.18786e-08
1.18913e-08
1.19036e-08
1.19166e-08
1.19291e-08
1.19424e-08
1.19552e-08
1.19686e-08
1.19817e-08
1.19953e-08
1.20085e-08
1.20223e-08
1.20357e-08
1.20496e-08
1.2063e-08
1.2077e-08
1.20906e-08
1.21046e-08
1.21182e-08
1.21323e-08
1.21459e-08
1.216e-08
1.21736e-08
1.21877e-08
1.22013e-08
1.22153e-08
1.22289e-08
1.22427e-08
1.22563e-08
1.22701e-08
1.22836e-08
1.22973e-08
1.23107e-08
1.23242e-08
1.23376e-08
1.23509e-08
1.23642e-08
1.23774e-08
1.23905e-08
1.24036e-08
1.24166e-08
1.24295e-08
1.24423e-08
1.24551e-08
1.24677e-08
1.24803e-08
1.24927e-08
1.25051e-08
1.25174e-08
1.25296e-08
1.25417e-08
1.25538e-08
1.25657e-08
1.25775e-08
1.25892e-08
1.26009e-08
1.26124e-08
1.26238e-08
1.26351e-08
1.26464e-08
1.26575e-08
1.26685e-08
1.26795e-08
1.26903e-08
1.2701e-08
1.27116e-08
1.27222e-08
1.27326e-08
1.27429e-08
1.27532e-08
1.27633e-08
1.27733e-08
1.27832e-08
1.27931e-08
1.28028e-08
1.28124e-08
1.2822e-08
1.28314e-08
1.28408e-08
1.285e-08
1.28592e-08
1.28682e-08
1.28772e-08
1.28861e-08
1.28949e-08
1.29036e-08
1.29122e-08
1.29207e-08
1.29291e-08
1.29375e-08
1.29457e-08
1.29539e-08
1.2962e-08
1.297e-08
1.29779e-08
1.29857e-08
1.29934e-08
1.30011e-08
1.30087e-08
1.30162e-08
1.30236e-08
1.30309e-08
1.30382e-08
1.30454e-08
1.30525e-08
1.30595e-08
1.30665e-08
1.30734e-08
1.30802e-08
1.3087e-08
1.30936e-08
1.31002e-08
1.31068e-08
1.31132e-08
1.31196e-08
1.31259e-08
1.31322e-08
1.31384e-08
1.31445e-08
1.31506e-08
1.31566e-08
1.31625e-08
1.31684e-08
1.31742e-08
1.31799e-08
1.31856e-08
1.31912e-08
1.31968e-08
1.32023e-08
1.32078e-08
1.32132e-08
1.32185e-08
1.32238e-08
1.3229e-08
1.32342e-08
1.32393e-08
1.32443e-08
1.32493e-08
1.32543e-08
1.32592e-08
1.3264e-08
1.32688e-08
1.32735e-08
1.32782e-08
1.32829e-08
1.32875e-08
1.3292e-08
1.32965e-08
1.33009e-08
1.33053e-08
1.33097e-08
1.3314e-08
1.33182e-08
1.33224e-08
1.33266e-08
1.33307e-08
1.33348e-08
1.33388e-08
1.33428e-08
1.33467e-08
1.33506e-08
1.33544e-08
1.33582e-08
1.3362e-08
1.33657e-08
1.33694e-08
1.3373e-08
1.33766e-08
1.33801e-08
1.33836e-08
1.3387e-08
1.33905e-08
1.33938e-08
1.33972e-08
1.34003e-08
1.34038e-08
1.34066e-08
1.34102e-08
1.34126e-08
1.34163e-08
1.34182e-08
3.66403e-11
1.24393e-10
2.80385e-10
4.54729e-10
6.2821e-10
8.12438e-10
1.00562e-09
1.20535e-09
1.40912e-09
1.61566e-09
1.82296e-09
2.02978e-09
2.23505e-09
2.43817e-09
2.63874e-09
2.83653e-09
3.03127e-09
3.22266e-09
3.41078e-09
3.59596e-09
3.77869e-09
3.9584e-09
4.13561e-09
4.31002e-09
4.48167e-09
4.6506e-09
4.81685e-09
4.98047e-09
5.14154e-09
5.30012e-09
5.45636e-09
5.61023e-09
5.7619e-09
5.91137e-09
6.05863e-09
6.20357e-09
6.34546e-09
6.48525e-09
6.62284e-09
6.75822e-09
6.89132e-09
7.02235e-09
7.15126e-09
7.27835e-09
7.40355e-09
7.52705e-09
7.64876e-09
7.7687e-09
7.88686e-09
8.00326e-09
8.1179e-09
8.23083e-09
8.342e-09
8.45144e-09
8.55904e-09
8.66514e-09
8.76919e-09
8.87183e-09
8.97261e-09
9.07174e-09
9.17012e-09
9.26653e-09
9.36219e-09
9.45516e-09
9.54653e-09
9.63602e-09
9.72378e-09
9.80974e-09
9.89398e-09
9.97637e-09
1.0057e-08
1.01357e-08
1.02126e-08
1.02875e-08
1.03605e-08
1.04313e-08
1.05001e-08
1.05667e-08
1.06312e-08
1.06931e-08
1.07531e-08
1.08102e-08
1.08654e-08
1.09174e-08
1.09674e-08
1.10141e-08
1.10583e-08
1.10986e-08
1.11359e-08
1.11683e-08
1.11987e-08
1.12248e-08
1.12482e-08
1.12665e-08
1.12823e-08
1.12913e-08
1.12978e-08
1.1296e-08
1.12929e-08
1.12807e-08
1.12416e-08
1.11682e-08
1.10935e-08
1.10046e-08
1.09144e-08
1.08091e-08
1.07026e-08
1.05797e-08
1.04569e-08
1.03152e-08
1.01764e-08
1.00187e-08
9.864e-09
9.68834e-09
9.49312e-09
9.29298e-09
9.08393e-09
8.86329e-09
8.6352e-09
8.39282e-09
8.14397e-09
7.87931e-09
7.60913e-09
7.32232e-09
7.031e-09
6.72235e-09
6.41129e-09
6.08128e-09
5.75161e-09
5.40304e-09
5.05635e-09
4.69535e-09
4.33568e-09
3.97117e-09
3.61552e-09
3.26943e-09
2.94757e-09
2.66312e-09
2.43655e-09
2.28064e-09
2.19081e-09
1.98446e-09
1.65717e-09
1.39117e-09
1.23719e-09
1.23425e-09
1.23425e-09
1.38989e-09
1.65784e-09
1.69137e-09
1.77653e-09
1.98338e-09
2.2667e-09
2.63566e-09
3.02306e-09
3.45074e-09
3.8655e-09
4.30747e-09
4.72777e-09
5.17881e-09
5.5997e-09
6.04327e-09
6.45844e-09
6.89356e-09
7.30044e-09
7.72392e-09
8.12083e-09
8.53166e-09
8.91658e-09
9.31195e-09
9.68307e-09
1.00611e-08
1.04173e-08
1.07766e-08
1.11169e-08
1.14564e-08
1.17793e-08
1.20989e-08
1.24031e-08
1.27024e-08
1.29872e-08
1.32659e-08
1.35308e-08
1.37889e-08
1.40337e-08
1.4271e-08
1.44957e-08
1.47126e-08
1.49174e-08
1.51141e-08
1.52994e-08
1.54764e-08
1.56428e-08
1.58008e-08
1.59487e-08
1.60885e-08
1.62189e-08
1.63413e-08
1.64548e-08
1.65607e-08
1.66583e-08
1.67485e-08
1.68311e-08
1.69065e-08
1.6975e-08
1.70366e-08
1.70918e-08
1.71407e-08
1.71836e-08
1.72206e-08
1.72522e-08
1.72784e-08
1.72996e-08
1.7316e-08
1.73278e-08
1.73353e-08
1.73389e-08
1.73382e-08
1.73336e-08
1.73256e-08
1.73146e-08
1.73005e-08
1.72838e-08
1.72644e-08
1.72428e-08
1.72187e-08
1.71928e-08
1.71647e-08
1.71352e-08
1.71038e-08
1.70714e-08
1.70374e-08
1.70025e-08
1.69664e-08
1.69298e-08
1.68921e-08
1.68541e-08
1.68153e-08
1.67764e-08
1.6737e-08
1.66976e-08
1.66581e-08
1.66185e-08
1.65793e-08
1.65398e-08
1.65011e-08
1.64622e-08
1.64242e-08
1.63861e-08
1.6349e-08
1.6312e-08
1.6276e-08
1.62402e-08
1.62056e-08
1.61713e-08
1.61382e-08
1.61053e-08
1.60739e-08
1.60427e-08
1.6013e-08
1.59836e-08
1.59556e-08
1.5928e-08
1.5902e-08
1.58763e-08
1.58521e-08
1.58283e-08
1.58061e-08
1.57843e-08
1.5764e-08
1.57441e-08
1.57257e-08
1.57078e-08
1.56913e-08
1.56753e-08
1.56608e-08
1.56467e-08
1.5634e-08
1.56217e-08
1.56109e-08
1.56004e-08
1.55914e-08
1.55827e-08
1.55753e-08
1.55683e-08
1.55627e-08
1.55573e-08
1.55533e-08
1.55495e-08
1.55469e-08
1.55448e-08
1.55436e-08
1.5543e-08
1.55432e-08
1.55439e-08
1.55454e-08
1.55475e-08
1.55503e-08
1.55536e-08
1.55574e-08
1.55619e-08
1.55668e-08
1.55725e-08
1.55784e-08
1.55852e-08
1.55921e-08
1.55998e-08
1.56076e-08
1.56162e-08
1.56249e-08
1.56343e-08
1.56437e-08
1.56539e-08
1.56641e-08
1.56749e-08
1.56857e-08
1.56973e-08
1.57087e-08
1.57208e-08
1.57327e-08
1.57453e-08
1.57577e-08
1.57708e-08
1.57837e-08
1.57972e-08
1.58104e-08
1.58242e-08
1.58378e-08
1.5852e-08
1.58658e-08
1.58802e-08
1.58943e-08
1.5909e-08
1.59233e-08
1.59381e-08
1.59526e-08
1.59675e-08
1.59821e-08
1.59972e-08
1.60119e-08
1.60271e-08
1.60418e-08
1.6057e-08
1.60718e-08
1.6087e-08
1.61019e-08
1.6117e-08
1.61319e-08
1.6147e-08
1.61618e-08
1.61768e-08
1.61916e-08
1.62065e-08
1.62213e-08
1.62361e-08
1.62507e-08
1.62654e-08
1.628e-08
1.62945e-08
1.63089e-08
1.63233e-08
1.63376e-08
1.63519e-08
1.6366e-08
1.63801e-08
1.63941e-08
1.6408e-08
1.64218e-08
1.64355e-08
1.64491e-08
1.64626e-08
1.64761e-08
1.64894e-08
1.65026e-08
1.65158e-08
1.65288e-08
1.65417e-08
1.65545e-08
1.65673e-08
1.65799e-08
1.65924e-08
1.66048e-08
1.66171e-08
1.66293e-08
1.66414e-08
1.66534e-08
1.66652e-08
1.6677e-08
1.66886e-08
1.67002e-08
1.67116e-08
1.6723e-08
1.67342e-08
1.67453e-08
1.67563e-08
1.67672e-08
1.67781e-08
1.67888e-08
1.67993e-08
1.68098e-08
1.68202e-08
1.68305e-08
1.68407e-08
1.68508e-08
1.68608e-08
1.68706e-08
1.68804e-08
1.68901e-08
1.68997e-08
1.69092e-08
1.69185e-08
1.69278e-08
1.6937e-08
1.69461e-08
1.69551e-08
1.69641e-08
1.69729e-08
1.69816e-08
1.69903e-08
1.69988e-08
1.70073e-08
1.70157e-08
1.70239e-08
1.70321e-08
1.70403e-08
1.70483e-08
1.70562e-08
1.70641e-08
1.70719e-08
1.70796e-08
1.70872e-08
1.70948e-08
1.71022e-08
1.71096e-08
1.71169e-08
1.71241e-08
1.71313e-08
1.71384e-08
1.71454e-08
1.71523e-08
1.71592e-08
1.7166e-08
1.71727e-08
1.71793e-08
1.71859e-08
1.71924e-08
1.71988e-08
1.72052e-08
1.72115e-08
1.72177e-08
1.72239e-08
1.723e-08