/*--------------------------------*- C++ -*----------------------------------*\
| =========                 |                                                 |
| \\      /  F ield         | OpenFOAM: The Open Source CFD Toolbox           |
|  \\    /   O peration     | Version:  2012                                  |
|   \\  /    A nd           | Website:  www.openfoam.com                      |
|    \\/     M anipulation  |                                                 |
\*---------------------------------------------------------------------------*/
FoamFile
{
    version     2.0;
    format      ascii;
    class       volVectorField;
    location    "3420";
    object      U;
}
// * * * * * * * * * * * * * * * * * * * * * * * * * * * * * * * * * * * * * //

dimensions      [0 1 -1 0 0 0 0];


internalField   nonuniform List<vector> 
20400
(
(3.5285e-06 -3.45284e-06 0)
(5.17695e-06 -1.16967e-06 0)
(-4.67462e-06 3.70706e-06 0)
(-2.50058e-05 6.36399e-06 0)
(-5.82714e-05 7.81215e-06 0)
(-9.85101e-05 7.15754e-06 0)
(-0.000144674 6.397e-06 0)
(-0.000193528 5.4793e-06 0)
(-0.000243169 4.71023e-06 0)
(-0.000293937 4.21486e-06 0)
(-0.000343455 4.26807e-06 0)
(-0.000393364 4.19514e-06 0)
(-0.0004425 4.01935e-06 0)
(-0.000491442 3.62761e-06 0)
(-0.000540079 3.06348e-06 0)
(-0.000588528 2.27952e-06 0)
(-0.000636827 1.25038e-06 0)
(-0.000685009 3.53356e-08 0)
(-0.000733091 -1.32858e-06 0)
(-0.000780983 -2.51546e-06 0)
(-0.000828587 -3.74367e-06 0)
(-0.000875903 -4.96906e-06 0)
(-0.000922962 -6.10915e-06 0)
(-0.000969749 -7.09153e-06 0)
(-0.00101625 -7.8428e-06 0)
(-0.00106245 -8.29539e-06 0)
(-0.00110834 -8.39346e-06 0)
(-0.00115391 -8.08018e-06 0)
(-0.00119919 -7.32385e-06 0)
(-0.00124419 -6.08479e-06 0)
(-0.00128893 -4.35676e-06 0)
(-0.0013334 -2.10793e-06 0)
(-0.0013775 7.68644e-07 0)
(-0.00142087 5.34569e-06 0)
(-0.00146338 8.93213e-06 0)
(-0.00150564 1.13686e-05 0)
(-0.00154886 1.50882e-05 0)
(-0.00159089 1.87808e-05 0)
(-0.00163279 2.22611e-05 0)
(-0.00167414 2.53986e-05 0)
(-0.00171509 2.80748e-05 0)
(-0.00175569 3.02118e-05 0)
(-0.00179595 3.1796e-05 0)
(-0.00183596 3.28306e-05 0)
(-0.00187573 3.33673e-05 0)
(-0.0019153 3.34705e-05 0)
(-0.00195466 3.32081e-05 0)
(-0.00199382 3.26359e-05 0)
(-0.00203277 3.17895e-05 0)
(-0.0020715 3.06812e-05 0)
(-0.00211002 2.92978e-05 0)
(-0.00214832 2.76043e-05 0)
(-0.00218643 2.55322e-05 0)
(-0.00222433 2.30231e-05 0)
(-0.0022621 1.99508e-05 0)
(-0.00229967 1.63108e-05 0)
(-0.00233721 1.2024e-05 0)
(-0.00237438 7.66726e-06 0)
(-0.00241119 2.19006e-06 0)
(-0.00244837 -4.7629e-06 0)
(-0.00248589 -1.0394e-05 0)
(-0.00252351 -1.54209e-05 0)
(-0.00256086 -1.9164e-05 0)
(-0.00259817 -2.18795e-05 0)
(-0.00263531 -2.35878e-05 0)
(-0.00267226 -2.44863e-05 0)
(-0.00270903 -2.47427e-05 0)
(-0.00274562 -2.45091e-05 0)
(-0.00278206 -2.39124e-05 0)
(-0.00281838 -2.30409e-05 0)
(-0.00285459 -2.19676e-05 0)
(-0.0028907 -2.07304e-05 0)
(-0.00292673 -1.93693e-05 0)
(-0.00296267 -1.78936e-05 0)
(-0.00299855 -1.63272e-05 0)
(-0.00303435 -1.46671e-05 0)
(-0.00307009 -1.29321e-05 0)
(-0.00310575 -1.11163e-05 0)
(-0.00314134 -9.24404e-06 0)
(-0.00317685 -7.30069e-06 0)
(-0.00321231 -5.32514e-06 0)
(-0.00324768 -3.29236e-06 0)
(-0.00328303 -1.25022e-06 0)
(-0.00331824 8.44986e-07 0)
(-0.00335327 3.05391e-06 0)
(-0.00338769 5.80186e-06 0)
(-0.00342159 7.10998e-06 0)
(-0.00345626 7.92143e-06 0)
(-0.00349059 8.28655e-06 0)
(-0.00352472 8.38231e-06 0)
(-0.00355859 7.817e-06 0)
(-0.00359193 7.03136e-06 0)
(-0.00362476 5.55589e-06 0)
(-0.00365698 2.06801e-06 0)
(-0.00368993 -9.84763e-07 0)
(-0.00372188 -4.32963e-06 0)
(-0.00375402 -8.17768e-06 0)
(-0.00378516 -1.20411e-05 0)
(-0.00381618 -1.64737e-05 0)
(-0.00384611 -2.06803e-05 0)
(-0.00387582 -2.56347e-05 0)
(-0.00390424 -3.00295e-05 0)
(-0.00393234 -3.52502e-05 0)
(-0.00395884 -3.92741e-05 0)
(-0.00398529 -4.40713e-05 0)
(-0.00400965 -4.69988e-05 0)
(-0.00403469 -5.04501e-05 0)
(-0.0040563 -5.0018e-05 0)
(-0.00408047 -5.06521e-05 0)
(-0.00409838 -4.42467e-05 0)
(-0.00412163 -3.81999e-05 0)
(-0.0041351 -2.24694e-05 0)
(-0.00415406 -4.90421e-06 0)
(-0.00415918 2.20039e-05 0)
(-0.0041712 4.38189e-05 0)
(-0.00417242 6.92072e-05 0)
(-0.00417775 8.33554e-05 0)
(-0.00417409 0.00010545 0)
(-0.00417292 0.000114178 0)
(-0.00416417 0.000133711 0)
(-0.0041563 0.000140177 0)
(-0.00414122 0.000157615 0)
(-0.00412647 0.000163572 0)
(-0.0041038 0.000178828 0)
(-0.00408146 0.000184359 0)
(-0.00405013 0.000196181 0)
(-0.00401897 0.000200015 0)
(-0.00397743 0.000205191 0)
(-0.00393553 0.000203098 0)
(-0.00388154 0.000195581 0)
(-0.00382521 0.000177258 0)
(-0.00375986 0.000147724 0)
(-0.00368717 0.000102047 0)
(-0.00361334 4.21755e-05 0)
(-0.00353206 -2.99007e-05 0)
(-0.00345965 -0.000109452 0)
(-0.00339267 -0.000172336 0)
(-0.00331703 -0.000228938 0)
(-0.00323681 -0.000260628 0)
(-0.00314655 -0.000296357 0)
(-0.00305592 -0.000311514 0)
(-0.00295388 -0.000333277 0)
(-0.00285543 -0.000338698 0)
(-0.0027462 -0.000345905 0)
(-0.00264282 -0.000337474 0)
(-0.0025307 -0.000321125 0)
(-0.00242568 -0.000280305 0)
(-0.0023085 -0.000224089 0)
(-0.00219565 -0.000126128 0)
(-0.0020636 -2.91659e-05 0)
(-0.00193926 9.64279e-05 0)
(-0.00176458 0.000170463 0)
(-0.00162752 0.000230071 0)
(-0.0014586 0.000251231 0)
(-0.00131958 0.000264409 0)
(-0.00114202 0.000256292 0)
(-0.00100017 0.000219744 0)
(-0.000773191 0.000149728 0)
(-0.0006616 1.20462e-05 0)
(-0.000562848 -2.63411e-05 0)
(-0.000428261 -5.69198e-05 0)
(-0.000291355 -6.50988e-05 0)
(-0.000155447 -6.86159e-05 0)
(-7.05795e-06 -6.75584e-05 0)
(0.00012162 -5.97478e-05 0)
(0.000274336 -5.4295e-05 0)
(0.000399562 -4.60179e-05 0)
(0.000547775 -4.16432e-05 0)
(0.000668839 -3.47002e-05 0)
(0.000811181 -3.25471e-05 0)
(0.00092778 -2.71382e-05 0)
(0.00106292 -2.64397e-05 0)
(0.0011746 -2.19713e-05 0)
(0.00130158 -2.21754e-05 0)
(0.00140798 -1.83247e-05 0)
(0.00152626 -1.90398e-05 0)
(0.00162706 -1.57344e-05 0)
(0.00173634 -1.66444e-05 0)
(0.00183112 -1.36416e-05 0)
(0.00193157 -1.45629e-05 0)
(0.00201982 -1.23257e-05 0)
(0.00211155 -1.26719e-05 0)
(0.00219295 -1.11869e-05 0)
(0.00227608 -1.10791e-05 0)
(0.00235061 -1.01118e-05 0)
(0.00242517 -9.76319e-06 0)
(0.00249284 -8.93e-06 0)
(0.00255945 -8.59023e-06 0)
(0.00262007 -7.85519e-06 0)
(0.00267911 -7.51408e-06 0)
(0.00273292 -6.86193e-06 0)
(0.00278474 -6.53089e-06 0)
(0.00283203 -5.94547e-06 0)
(0.00287701 -5.6359e-06 0)
(0.00291813 -5.09789e-06 0)
(0.00295669 -4.82205e-06 0)
(0.00299201 -4.3116e-06 0)
(0.00302458 -4.11745e-06 0)
(0.00305459 -3.63099e-06 0)
(0.00308169 -3.32651e-06 0)
(0.00310646 -3.07779e-06 0)
(0.00312878 -2.7556e-06 0)
(0.00314882 -2.47164e-06 0)
(0.00316664 -2.17718e-06 0)
(0.0031823 -1.96022e-06 0)
(0.00319608 -1.67694e-06 0)
(0.00320785 -1.49683e-06 0)
(0.00321796 -1.22518e-06 0)
(0.00322625 -1.0325e-06 0)
(0.00323299 -7.56093e-07 0)
(0.00323821 -5.40954e-07 0)
(0.00324213 -2.87928e-07 0)
(0.0032447 -5.7286e-08 0)
(0.00324607 1.6268e-07 0)
(0.00324644 2.59227e-07 0)
(0.00324542 5.17421e-07 0)
(0.00324358 6.62449e-07 0)
(0.0032406 7.13817e-07 0)
(0.00323702 6.60589e-07 0)
(0.00323227 6.71951e-07 0)
(0.0032273 5.70435e-07 0)
(0.00322103 5.60347e-07 0)
(0.00321502 5.05682e-07 0)
(0.00320759 4.37894e-07 0)
(0.00320074 4.85185e-07 0)
(0.00319241 3.50836e-07 0)
(0.00318488 4.84616e-07 0)
(0.00317586 2.86202e-07 0)
(0.00316782 4.86465e-07 0)
(0.0031583 2.9112e-07 0)
(0.00314989 4.74516e-07 0)
(0.00314007 3.31312e-07 0)
(0.00313144 4.59477e-07 0)
(0.0031215 3.62533e-07 0)
(0.00311273 4.53894e-07 0)
(0.00310281 3.8973e-07 0)
(0.00309396 4.62167e-07 0)
(0.00308426 4.24723e-07 0)
(0.00307536 4.97971e-07 0)
(0.00306608 4.94293e-07 0)
(0.00305716 5.99868e-07 0)
(0.00304838 6.07265e-07 0)
(0.00303958 7.42094e-07 0)
(0.0030312 7.31182e-07 0)
(0.00302267 8.86435e-07 0)
(0.00301472 8.21542e-07 0)
(0.00300659 9.64728e-07 0)
(0.00299911 8.20421e-07 0)
(0.00299144 9.65416e-07 0)
(0.00298446 7.84143e-07 0)
(0.0029773 9.3931e-07 0)
(0.00297083 7.32023e-07 0)
(0.00296418 8.99738e-07 0)
(0.00295826 6.74081e-07 0)
(0.00295213 8.5044e-07 0)
(0.00294678 6.1127e-07 0)
(0.00294119 7.94042e-07 0)
(0.00293641 5.45123e-07 0)
(0.00293137 7.32002e-07 0)
(0.00292719 4.73517e-07 0)
(0.0029227 6.40418e-07 0)
(0.0029191 3.9858e-07 0)
(0.00291517 5.44828e-07 0)
(0.00291214 3.25027e-07 0)
(0.00290878 4.4727e-07 0)
(0.00290632 2.39257e-07 0)
(0.00290352 3.47325e-07 0)
(0.0029016 1.44841e-07 0)
(0.00289936 2.46701e-07 0)
(0.00289797 5.42836e-08 0)
(0.00289629 1.47474e-07 0)
(0.0028954 -3.22695e-08 0)
(0.00289429 5.17896e-08 0)
(0.00289386 -1.17718e-07 0)
(0.00289332 -3.48497e-08 0)
(0.00289328 -2.13347e-07 0)
(0.00289328 -7.83234e-08 0)
(0.00289375 -2.80772e-07 0)
(0.00289419 -1.26776e-07 0)
(0.0028951 -3.47349e-07 0)
(0.00289598 -2.07985e-07 0)
(0.00289735 -4.26152e-07 0)
(0.00289867 -2.9977e-07 0)
(0.0029004 -4.16003e-07 0)
(0.00290219 -3.49939e-07 0)
(0.00290428 -3.83973e-07 0)
(0.00290652 -3.59801e-07 0)
(0.00290896 -3.94083e-07 0)
(0.00291156 -3.96707e-07 0)
(0.00291434 -4.32662e-07 0)
(0.00291727 -4.60681e-07 0)
(0.00292038 -4.96497e-07 0)
(0.00292363 -5.23173e-07 0)
(0.00292703 -5.43365e-07 0)
(0.00293061 -5.5954e-07 0)
(0.00293423 -5.43135e-07 0)
(0.00293813 -5.57974e-07 0)
(0.00294192 -5.66472e-07 0)
(0.00294616 -5.22027e-07 0)
(0.00295007 -5.8959e-07 0)
(0.00295466 -5.10292e-07 0)
(0.00295869 -5.99832e-07 0)
(0.00296355 -5.40481e-07 0)
(0.00296771 -6.26264e-07 0)
(0.00297283 -5.84275e-07 0)
(0.00297711 -6.69325e-07 0)
(0.00298245 -6.32555e-07 0)
(0.00298686 -7.14603e-07 0)
(0.00299239 -6.78827e-07 0)
(0.00299692 -7.56631e-07 0)
(0.00300262 -7.20493e-07 0)
(0.00300726 -7.9327e-07 0)
(0.00301309 -7.54477e-07 0)
(0.00301783 -8.17032e-07 0)
(0.00302376 -7.733e-07 0)
(0.0030286 -8.29417e-07 0)
(0.00303461 -7.76839e-07 0)
(0.00303953 -8.34184e-07 0)
(0.0030456 -7.78458e-07 0)
(0.00305059 -8.34383e-07 0)
(0.00305672 -7.88275e-07 0)
(0.00306176 -8.34586e-07 0)
(0.00306792 -7.98229e-07 0)
(0.00307301 -8.38492e-07 0)
(0.00307919 -8.0584e-07 0)
(0.0030843 -8.39362e-07 0)
(0.00309049 -8.07739e-07 0)
(0.00309563 -8.35449e-07 0)
(0.00310181 -8.05649e-07 0)
(0.00310696 -8.28296e-07 0)
(0.00311312 -8.01546e-07 0)
(0.00311828 -8.19354e-07 0)
(0.00312442 -7.96285e-07 0)
(0.00312957 -8.08916e-07 0)
(0.00313567 -7.90309e-07 0)
(0.00314082 -7.96344e-07 0)
(0.00314685 -7.83399e-07 0)
(0.00315201 -7.876e-07 0)
(0.00315796 -7.73864e-07 0)
(0.00316312 -7.7671e-07 0)
(0.00316899 -7.64573e-07 0)
(0.00317415 -7.64544e-07 0)
(0.00317992 -7.55827e-07 0)
(0.00318507 -7.53297e-07 0)
(0.00319074 -7.46546e-07 0)
(0.00319588 -7.41367e-07 0)
(0.00320143 -7.36561e-07 0)
(0.00320657 -7.28893e-07 0)
(0.00321201 -7.26345e-07 0)
(0.00321712 -7.162e-07 0)
(0.00322244 -7.15566e-07 0)
(0.00322754 -7.02887e-07 0)
(0.00323273 -7.02545e-07 0)
(0.0032378 -6.97552e-07 0)
(0.00324288 -6.8989e-07 0)
(0.0032479 -6.84237e-07 0)
(0.00325289 -6.77973e-07 0)
(0.00325784 -6.72139e-07 0)
(0.00326274 -6.65898e-07 0)
(0.00326761 -6.59852e-07 0)
(0.00327244 -6.53627e-07 0)
(0.00327722 -6.47504e-07 0)
(0.00328196 -6.41346e-07 0)
(0.00328667 -6.35281e-07 0)
(0.00329132 -6.29194e-07 0)
(0.00329594 -6.23166e-07 0)
(0.00330051 -6.17105e-07 0)
(0.00330505 -6.11082e-07 0)
(0.00330953 -6.05035e-07 0)
(0.00331398 -5.99025e-07 0)
(0.00331838 -5.93016e-07 0)
(0.00332274 -5.8705e-07 0)
(0.00332706 -5.81106e-07 0)
(0.00333133 -5.75206e-07 0)
(0.00333556 -5.69342e-07 0)
(0.00333975 -5.63523e-07 0)
(0.0033439 -5.57744e-07 0)
(0.003348 -5.52008e-07 0)
(0.00335206 -5.46311e-07 0)
(0.00335608 -5.40656e-07 0)
(0.00336006 -5.3504e-07 0)
(0.00336399 -5.29468e-07 0)
(0.00336789 -5.23937e-07 0)
(0.00337174 -5.18451e-07 0)
(0.00337555 -5.1301e-07 0)
(0.00337932 -5.07616e-07 0)
(0.00338305 -5.02267e-07 0)
(0.00338675 -4.96968e-07 0)
(0.0033904 -4.91716e-07 0)
(0.00339401 -4.86514e-07 0)
(0.00339758 -4.81361e-07 0)
(0.00340111 -4.76258e-07 0)
(0.00340461 -4.71205e-07 0)
(0.00340806 -4.66204e-07 0)
(0.00341148 -4.61252e-07 0)
(0.00341486 -4.56352e-07 0)
(0.00341821 -4.51503e-07 0)
(0.00342151 -4.46705e-07 0)
(0.00342478 -4.41958e-07 0)
(0.00342802 -4.37262e-07 0)
(0.00343121 -4.32617e-07 0)
(0.00343438 -4.28023e-07 0)
(0.00343751 -4.2348e-07 0)
(0.0034406 -4.18987e-07 0)
(0.00344366 -4.14545e-07 0)
(0.00344668 -4.10153e-07 0)
(0.00344967 -4.0581e-07 0)
(0.00345263 -4.01517e-07 0)
(0.00345556 -3.97274e-07 0)
(0.00345845 -3.93082e-07 0)
(0.00346131 -3.88944e-07 0)
(0.00346414 -3.84864e-07 0)
(0.00346694 -3.80866e-07 0)
(0.0034697 -3.76907e-07 0)
(0.00347244 -3.72975e-07 0)
(0.00347515 -3.69076e-07 0)
(0.00347782 -3.65214e-07 0)
(0.00348047 -3.61394e-07 0)
(0.00348309 -3.57616e-07 0)
(0.00348567 -3.53882e-07 0)
(0.00348823 -3.50191e-07 0)
(0.00349077 -3.46543e-07 0)
(0.00349327 -3.42937e-07 0)
(0.00349575 -3.39374e-07 0)
(0.00349819 -3.35852e-07 0)
(0.00350062 -3.3237e-07 0)
(0.00350301 -3.28929e-07 0)
(0.00350538 -3.25528e-07 0)
(0.00350773 -3.22166e-07 0)
(0.00351004 -3.18843e-07 0)
(0.00351234 -3.15558e-07 0)
(0.0035146 -3.1231e-07 0)
(0.00351685 -3.09099e-07 0)
(0.00351906 -3.05924e-07 0)
(0.00352126 -3.02786e-07 0)
(0.00352343 -2.99682e-07 0)
(0.00352558 -2.96613e-07 0)
(0.0035277 -2.93578e-07 0)
(0.0035298 -2.90577e-07 0)
(0.00353188 -2.87608e-07 0)
(0.00353393 -2.84672e-07 0)
(0.00353597 -2.81769e-07 0)
(0.00353798 -2.78896e-07 0)
(0.00353997 -2.76054e-07 0)
(0.00354194 -2.73243e-07 0)
(0.00354388 -2.70462e-07 0)
(0.00354581 -2.67709e-07 0)
(0.00354771 -2.64986e-07 0)
(0.0035496 -2.62291e-07 0)
(0.00355146 -2.59624e-07 0)
(0.00355331 -2.56985e-07 0)
(0.00355513 -2.54372e-07 0)
(0.00355694 -2.51785e-07 0)
(0.00355872 -2.49224e-07 0)
(0.00356049 -2.46688e-07 0)
(0.00356223 -2.44177e-07 0)
(0.00356396 -2.4169e-07 0)
(0.00356567 -2.39226e-07 0)
(0.00356736 -2.36786e-07 0)
(0.00356903 -2.34368e-07 0)
(0.00357069 -2.31973e-07 0)
(0.00357232 -2.29598e-07 0)
(0.00357394 -2.27243e-07 0)
(0.00357554 -2.24904e-07 0)
(0.00357713 -2.22574e-07 0)
(0.00357869 -2.20247e-07 0)
(0.00358024 -2.17898e-07 0)
(0.00358177 -2.15563e-07 0)
(0.00358329 -2.13275e-07 0)
(0.00358479 -2.11028e-07 0)
(0.00358627 -2.08816e-07 0)
(0.00358773 -2.0663e-07 0)
(0.00358918 -2.04466e-07 0)
(0.00359062 -2.02319e-07 0)
(0.00359203 -2.00188e-07 0)
(0.00359343 -1.98034e-07 0)
(0.00359482 -1.95922e-07 0)
(0.00359619 -1.93457e-07 0)
(0.00359754 -1.9238e-07 0)
(0.00359888 -1.87963e-07 0)
(0.0036002 -1.91902e-07 0)
(0.00360151 -1.81399e-07 0)
(0.0036028 -1.88426e-07 0)
(0.00360407 -1.76264e-07 0)
(0.00360535 -1.85725e-07 0)
(0.00360657 -1.7062e-07 0)
(0.00360783 -1.82452e-07 0)
(0.003609 -1.64749e-07 0)
(0.00361026 -1.79045e-07 0)
(0.00361135 -1.57892e-07 0)
(0.00361264 -1.75876e-07 0)
(0.0036136 -1.48733e-07 0)
(0.00361499 -1.73975e-07 0)
(0.00361576 -1.35525e-07 0)
(0.00361732 -1.78098e-07 0)
(0.00361781 -1.18867e-07 0)
(0.0036197 -2.08012e-07 0)
(0.00361976 -1.10205e-07 0)
(0.0036226 -4.312e-07 0)
(0.00362168 -9.95229e-07 0)
(1.08616e-06 -5.26494e-06 0)
(-1.30998e-05 1.24137e-05 0)
(-5.73176e-05 4.04867e-05 0)
(-0.000130437 6.40946e-05 0)
(-0.000228678 8.26152e-05 0)
(-0.000344065 9.24905e-05 0)
(-0.000472038 9.83331e-05 0)
(-0.000606796 9.99872e-05 0)
(-0.000745344 9.98688e-05 0)
(-0.00088585 9.84126e-05 0)
(-0.00102577 9.67179e-05 0)
(-0.00116634 9.51611e-05 0)
(-0.00130565 9.39888e-05 0)
(-0.00144407 9.33303e-05 0)
(-0.00158132 9.30857e-05 0)
(-0.00171758 9.32259e-05 0)
(-0.00185287 9.37255e-05 0)
(-0.00198718 9.45243e-05 0)
(-0.00212063 9.53553e-05 0)
(-0.00225288 9.58602e-05 0)
(-0.0023837 9.64066e-05 0)
(-0.00251315 9.70458e-05 0)
(-0.00264125 9.76118e-05 0)
(-0.00276802 9.79967e-05 0)
(-0.00289344 9.81106e-05 0)
(-0.00301751 9.78934e-05 0)
(-0.00314024 9.72846e-05 0)
(-0.00326167 9.62709e-05 0)
(-0.00338187 9.48112e-05 0)
(-0.0035009 9.29222e-05 0)
(-0.00361883 9.05232e-05 0)
(-0.00373565 8.75345e-05 0)
(-0.00385133 8.33863e-05 0)
(-0.0039655 7.67928e-05 0)
(-0.0040781 7.18228e-05 0)
(-0.00419191 6.99676e-05 0)
(-0.00430401 6.55193e-05 0)
(-0.00441575 6.04759e-05 0)
(-0.00452658 5.57774e-05 0)
(-0.00463654 5.1571e-05 0)
(-0.00474554 4.80007e-05 0)
(-0.00485359 4.50472e-05 0)
(-0.0049606 4.28417e-05 0)
(-0.00506662 4.12852e-05 0)
(-0.00517162 4.03192e-05 0)
(-0.00527562 3.9824e-05 0)
(-0.00537867 3.9706e-05 0)
(-0.00548081 3.98953e-05 0)
(-0.00558211 4.03512e-05 0)
(-0.00568265 4.10631e-05 0)
(-0.00578249 4.20441e-05 0)
(-0.00588171 4.33586e-05 0)
(-0.00598041 4.50087e-05 0)
(-0.00607861 4.7269e-05 0)
(-0.00617641 4.98873e-05 0)
(-0.00627364 5.35259e-05 0)
(-0.00637047 5.72021e-05 0)
(-0.00646647 6.08589e-05 0)
(-0.00656168 6.61351e-05 0)
(-0.0066553 7.4069e-05 0)
(-0.00674641 8.01183e-05 0)
(-0.0068372 8.45584e-05 0)
(-0.00692627 8.81885e-05 0)
(-0.00701544 9.05788e-05 0)
(-0.0071042 9.19016e-05 0)
(-0.00719286 9.238e-05 0)
(-0.0072813 9.22132e-05 0)
(-0.00736947 9.16017e-05 0)
(-0.00745734 9.06553e-05 0)
(-0.00754483 8.94897e-05 0)
(-0.00763191 8.81332e-05 0)
(-0.00771854 8.66674e-05 0)
(-0.0078047 8.50693e-05 0)
(-0.00789035 8.34063e-05 0)
(-0.00797551 8.16311e-05 0)
(-0.00806011 7.98091e-05 0)
(-0.00814419 7.78803e-05 0)
(-0.00822769 7.59287e-05 0)
(-0.00831064 7.38455e-05 0)
(-0.00839297 7.18167e-05 0)
(-0.00847474 6.96499e-05 0)
(-0.00855584 6.76046e-05 0)
(-0.00863633 6.5398e-05 0)
(-0.00871605 6.32017e-05 0)
(-0.00879505 6.0207e-05 0)
(-0.00887322 5.62794e-05 0)
(-0.00895085 5.52888e-05 0)
(-0.00902801 5.51789e-05 0)
(-0.00910449 5.39603e-05 0)
(-0.00917982 5.34555e-05 0)
(-0.00925416 5.30768e-05 0)
(-0.00932677 5.28836e-05 0)
(-0.00939821 5.29325e-05 0)
(-0.00946752 5.64997e-05 0)
(-0.00953515 5.85872e-05 0)
(-0.00960078 6.13719e-05 0)
(-0.00966494 6.33357e-05 0)
(-0.00972629 6.65143e-05 0)
(-0.00978606 6.84062e-05 0)
(-0.0098424 7.18442e-05 0)
(-0.00989712 7.37259e-05 0)
(-0.00994725 7.72505e-05 0)
(-0.00999561 7.85303e-05 0)
(-0.0100381 8.23109e-05 0)
(-0.0100793 8.23066e-05 0)
(-0.010113 8.61195e-05 0)
(-0.0101446 8.33889e-05 0)
(-0.0101679 8.59752e-05 0)
(-0.0101862 7.86576e-05 0)
(-0.0101985 7.70197e-05 0)
(-0.0102031 6.31946e-05 0)
(-0.0101996 5.06949e-05 0)
(-0.0101868 2.44248e-05 0)
(-0.0101741 -1.28942e-07 0)
(-0.0101698 -2.77647e-05 0)
(-0.0101545 -4.99237e-05 0)
(-0.0101371 -7.03728e-05 0)
(-0.0101036 -8.78494e-05 0)
(-0.0100689 -0.000104204 0)
(-0.0100157 -0.000119146 0)
(-0.0099631 -0.000134016 0)
(-0.0098903 -0.000147744 0)
(-0.00981957 -0.00016214 0)
(-0.00972734 -0.000174926 0)
(-0.009639 -0.000188605 0)
(-0.00952695 -0.000199976 0)
(-0.00942225 -0.000211704 0)
(-0.00929071 -0.000220352 0)
(-0.00917144 -0.000227212 0)
(-0.00902171 -0.000229253 0)
(-0.00888851 -0.00022442 0)
(-0.00872015 -0.000208222 0)
(-0.00856883 -0.000189439 0)
(-0.00837475 -0.000144044 0)
(-0.00819713 -0.000109988 0)
(-0.00796952 -2.68435e-05 0)
(-0.00771671 -4.20984e-06 0)
(-0.00745556 3.40036e-05 0)
(-0.00718711 3.12294e-05 0)
(-0.00691438 4.88267e-05 0)
(-0.00663271 4.1997e-05 0)
(-0.00634395 4.79723e-05 0)
(-0.00604428 4.04375e-05 0)
(-0.00573366 3.79235e-05 0)
(-0.0054107 2.86891e-05 0)
(-0.00506377 1.48527e-05 0)
(-0.0047199 -6.6821e-06 0)
(-0.00430994 -4.11679e-05 0)
(-0.00397071 -0.000105748 0)
(-0.00356268 -0.00015786 0)
(-0.0032575 -0.000249069 0)
(-0.00298501 -0.000279204 0)
(-0.00265874 -0.000303275 0)
(-0.00234492 -0.000315565 0)
(-0.0019949 -0.000321887 0)
(-0.00166958 -0.0003301 0)
(-0.00133513 -0.000339073 0)
(-0.00102724 -0.00036276 0)
(-0.000656044 -0.000399672 0)
(-0.000200674 -0.000390093 0)
(0.000159388 -0.000386361 0)
(0.000562551 -0.000367606 0)
(0.000909622 -0.00035795 0)
(0.00129803 -0.000348378 0)
(0.00163897 -0.000327444 0)
(0.00200663 -0.000316016 0)
(0.00233504 -0.000297723 0)
(0.00268921 -0.000293343 0)
(0.0030074 -0.000278245 0)
(0.0033491 -0.000274973 0)
(0.00365585 -0.000259759 0)
(0.0039823 -0.000256584 0)
(0.00427633 -0.000241662 0)
(0.00458552 -0.000238331 0)
(0.0048657 -0.000224145 0)
(0.00515623 -0.000220303 0)
(0.00542163 -0.000207162 0)
(0.00569274 -0.000202334 0)
(0.00594255 -0.00019113 0)
(0.00619337 -0.0001848 0)
(0.00642675 -0.000174844 0)
(0.00665794 -0.00016786 0)
(0.00687365 -0.00015888 0)
(0.0070855 -0.000151579 0)
(0.00728323 -0.000143327 0)
(0.00747595 -0.000136043 0)
(0.00765576 -0.000128217 0)
(0.00782976 -0.00012126 0)
(0.00799188 -0.000113835 0)
(0.00814767 -0.000107215 0)
(0.00829258 -0.000100175 0)
(0.00843083 -9.39382e-05 0)
(0.00855918 -8.72811e-05 0)
(0.00868067 -8.14777e-05 0)
(0.00879321 -7.51858e-05 0)
(0.00889883 -6.98578e-05 0)
(0.0089964 -6.38981e-05 0)
(0.00908712 -5.91887e-05 0)
(0.00917063 -5.36203e-05 0)
(0.00924746 -4.90018e-05 0)
(0.00931783 -4.42374e-05 0)
(0.00938178 -3.98728e-05 0)
(0.00943983 -3.55984e-05 0)
(0.00949206 -3.14592e-05 0)
(0.00953872 -2.76854e-05 0)
(0.00958013 -2.39483e-05 0)
(0.00961642 -2.05367e-05 0)
(0.00964794 -1.71989e-05 0)
(0.00967486 -1.40727e-05 0)
(0.00969744 -1.11983e-05 0)
(0.00971596 -8.67561e-06 0)
(0.00973053 -6.16663e-06 0)
(0.00974147 -3.82832e-06 0)
(0.00974897 -1.64089e-06 0)
(0.00975336 1.35215e-07 0)
(0.00975475 2.37144e-06 0)
(0.00975282 4.12078e-06 0)
(0.00974807 6.00341e-06 0)
(0.00974121 7.7214e-06 0)
(0.00973172 9.33326e-06 0)
(0.00972058 1.07248e-05 0)
(0.00970713 1.20639e-05 0)
(0.00969248 1.30743e-05 0)
(0.00967567 1.40935e-05 0)
(0.00965808 1.49748e-05 0)
(0.00963848 1.57163e-05 0)
(0.00961852 1.64628e-05 0)
(0.00959664 1.69361e-05 0)
(0.00957491 1.75496e-05 0)
(0.00955119 1.77626e-05 0)
(0.00952811 1.82809e-05 0)
(0.00950316 1.82283e-05 0)
(0.00947909 1.86778e-05 0)
(0.00945335 1.8475e-05 0)
(0.00942862 1.87882e-05 0)
(0.00940247 1.85161e-05 0)
(0.00937735 1.86291e-05 0)
(0.00935123 1.83209e-05 0)
(0.00932592 1.82201e-05 0)
(0.00930028 1.78881e-05 0)
(0.00927495 1.7592e-05 0)
(0.00925 1.71984e-05 0)
(0.00922496 1.6854e-05 0)
(0.0092007 1.63411e-05 0)
(0.00917624 1.60203e-05 0)
(0.00915283 1.53529e-05 0)
(0.00912923 1.50914e-05 0)
(0.00910685 1.43416e-05 0)
(0.00908431 1.41586e-05 0)
(0.00906305 1.33272e-05 0)
(0.00904169 1.31675e-05 0)
(0.00902164 1.23133e-05 0)
(0.00900153 1.21492e-05 0)
(0.00898279 1.12679e-05 0)
(0.00896399 1.11015e-05 0)
(0.00894663 1.01972e-05 0)
(0.0089292 1.00295e-05 0)
(0.00891326 9.109e-06 0)
(0.00889725 8.93418e-06 0)
(0.00888278 8.00875e-06 0)
(0.00886822 7.88313e-06 0)
(0.00885523 6.91855e-06 0)
(0.00884214 6.82801e-06 0)
(0.00883064 5.82696e-06 0)
(0.00881903 5.77459e-06 0)
(0.00880901 4.7727e-06 0)
(0.00879889 4.73634e-06 0)
(0.00879032 3.7582e-06 0)
(0.00878169 3.71548e-06 0)
(0.00877455 2.76424e-06 0)
(0.00876739 2.7142e-06 0)
(0.00876163 1.79285e-06 0)
(0.00875592 1.74366e-06 0)
(0.00875152 8.39694e-07 0)
(0.00874723 8.33979e-07 0)
(0.00874416 -1.27609e-07 0)
(0.00874123 3.38371e-08 0)
(0.00873946 -1.0148e-06 0)
(0.00873783 -8.68706e-07 0)
(0.0087372 -1.84413e-06 0)
(0.00873687 -1.76435e-06 0)
(0.00873747 -2.59944e-06 0)
(0.00873843 -2.53019e-06 0)
(0.0087401 -3.33906e-06 0)
(0.00874223 -3.46333e-06 0)
(0.00874504 -4.08985e-06 0)
(0.00874824 -4.37345e-06 0)
(0.00875207 -4.71637e-06 0)
(0.00875632 -5.0401e-06 0)
(0.0087611 -5.3549e-06 0)
(0.00876635 -5.62694e-06 0)
(0.0087721 -5.93065e-06 0)
(0.00877832 -6.17943e-06 0)
(0.00878498 -6.47252e-06 0)
(0.00879204 -6.74678e-06 0)
(0.00879946 -6.96842e-06 0)
(0.00880733 -7.24944e-06 0)
(0.00881543 -7.48031e-06 0)
(0.0088241 -7.69238e-06 0)
(0.00883276 -7.98664e-06 0)
(0.00884226 -8.10591e-06 0)
(0.00885143 -8.42523e-06 0)
(0.00886164 -8.42391e-06 0)
(0.00887134 -8.80639e-06 0)
(0.0088822 -8.72929e-06 0)
(0.0088924 -9.12322e-06 0)
(0.00890387 -9.01518e-06 0)
(0.00891455 -9.39816e-06 0)
(0.00892655 -9.27193e-06 0)
(0.00893767 -9.63839e-06 0)
(0.00895013 -9.49565e-06 0)
(0.00896166 -9.84e-06 0)
(0.00897453 -9.68631e-06 0)
(0.00898641 -1.00108e-05 0)
(0.00899963 -9.86161e-06 0)
(0.00901183 -1.01576e-05 0)
(0.00902534 -1.00313e-05 0)
(0.0090378 -1.02825e-05 0)
(0.00905157 -1.01698e-05 0)
(0.00906426 -1.03914e-05 0)
(0.00907825 -1.02621e-05 0)
(0.00909115 -1.04743e-05 0)
(0.0091053 -1.03301e-05 0)
(0.00911837 -1.05184e-05 0)
(0.00913266 -1.03766e-05 0)
(0.00914586 -1.05407e-05 0)
(0.00916025 -1.04075e-05 0)
(0.00917355 -1.05467e-05 0)
(0.00918801 -1.04216e-05 0)
(0.00920138 -1.05366e-05 0)
(0.00921588 -1.04183e-05 0)
(0.0092293 -1.05099e-05 0)
(0.0092438 -1.03981e-05 0)
(0.00925725 -1.04671e-05 0)
(0.00927173 -1.03634e-05 0)
(0.00928518 -1.04055e-05 0)
(0.00929961 -1.03154e-05 0)
(0.00931306 -1.03295e-05 0)
(0.0093274 -1.02517e-05 0)
(0.00934083 -1.02487e-05 0)
(0.00935506 -1.01713e-05 0)
(0.00936847 -1.01578e-05 0)
(0.00938255 -1.0078e-05 0)
(0.00939592 -1.00516e-05 0)
(0.00940984 -9.97647e-06 0)
(0.00942317 -9.93682e-06 0)
(0.00943691 -9.86554e-06 0)
(0.00945017 -9.81449e-06 0)
(0.00946371 -9.74625e-06 0)
(0.00947691 -9.68384e-06 0)
(0.00949024 -9.61879e-06 0)
(0.00950335 -9.54497e-06 0)
(0.00951646 -9.48173e-06 0)
(0.00952946 -9.41422e-06 0)
(0.00954238 -9.33884e-06 0)
(0.00955522 -9.26647e-06 0)
(0.00956797 -9.19119e-06 0)
(0.00958063 -9.11711e-06 0)
(0.0095932 -9.04117e-06 0)
(0.00960568 -8.96571e-06 0)
(0.00961806 -8.88851e-06 0)
(0.00963034 -8.81151e-06 0)
(0.00964254 -8.73303e-06 0)
(0.00965463 -8.6547e-06 0)
(0.00966662 -8.57549e-06 0)
(0.00967852 -8.49626e-06 0)
(0.00969031 -8.41655e-06 0)
(0.009702 -8.33679e-06 0)
(0.00971359 -8.25679e-06 0)
(0.00972508 -8.17681e-06 0)
(0.00973646 -8.09674e-06 0)
(0.00974774 -8.01673e-06 0)
(0.00975892 -7.93675e-06 0)
(0.00977 -7.85691e-06 0)
(0.00978097 -7.77719e-06 0)
(0.00979183 -7.69768e-06 0)
(0.00980259 -7.61838e-06 0)
(0.00981325 -7.53938e-06 0)
(0.00982381 -7.46069e-06 0)
(0.00983426 -7.38235e-06 0)
(0.00984461 -7.30441e-06 0)
(0.00985485 -7.22688e-06 0)
(0.00986499 -7.14979e-06 0)
(0.00987503 -7.07317e-06 0)
(0.00988497 -6.99703e-06 0)
(0.00989481 -6.92141e-06 0)
(0.00990454 -6.84632e-06 0)
(0.00991418 -6.77178e-06 0)
(0.00992371 -6.6978e-06 0)
(0.00993315 -6.62441e-06 0)
(0.00994249 -6.55162e-06 0)
(0.00995173 -6.47945e-06 0)
(0.00996087 -6.4079e-06 0)
(0.00996991 -6.33698e-06 0)
(0.00997886 -6.26672e-06 0)
(0.00998772 -6.1971e-06 0)
(0.00999648 -6.12816e-06 0)
(0.0100051 -6.05988e-06 0)
(0.0100137 -5.99228e-06 0)
(0.0100222 -5.92537e-06 0)
(0.0100306 -5.85914e-06 0)
(0.0100389 -5.7936e-06 0)
(0.0100471 -5.72876e-06 0)
(0.0100552 -5.66461e-06 0)
(0.0100633 -5.60116e-06 0)
(0.0100712 -5.53841e-06 0)
(0.0100791 -5.47635e-06 0)
(0.0100868 -5.41499e-06 0)
(0.0100945 -5.35433e-06 0)
(0.0101021 -5.29436e-06 0)
(0.0101097 -5.23509e-06 0)
(0.0101171 -5.1765e-06 0)
(0.0101245 -5.1186e-06 0)
(0.0101318 -5.06137e-06 0)
(0.010139 -5.00482e-06 0)
(0.0101461 -4.94893e-06 0)
(0.0101531 -4.8937e-06 0)
(0.0101601 -4.83914e-06 0)
(0.010167 -4.78522e-06 0)
(0.0101738 -4.73196e-06 0)
(0.0101806 -4.67934e-06 0)
(0.0101872 -4.62736e-06 0)
(0.0101938 -4.576e-06 0)
(0.0102004 -4.52527e-06 0)
(0.0102068 -4.47515e-06 0)
(0.0102132 -4.42564e-06 0)
(0.0102195 -4.37673e-06 0)
(0.0102258 -4.32841e-06 0)
(0.010232 -4.28067e-06 0)
(0.0102381 -4.23351e-06 0)
(0.0102441 -4.18692e-06 0)
(0.0102501 -4.14089e-06 0)
(0.010256 -4.0954e-06 0)
(0.0102619 -4.05047e-06 0)
(0.0102677 -4.00606e-06 0)
(0.0102734 -3.96219e-06 0)
(0.0102791 -3.91883e-06 0)
(0.0102847 -3.87599e-06 0)
(0.0102903 -3.83365e-06 0)
(0.0102957 -3.7918e-06 0)
(0.0103012 -3.75044e-06 0)
(0.0103065 -3.70955e-06 0)
(0.0103119 -3.66914e-06 0)
(0.0103171 -3.62919e-06 0)
(0.0103223 -3.58969e-06 0)
(0.0103275 -3.55063e-06 0)
(0.0103326 -3.51202e-06 0)
(0.0103376 -3.47383e-06 0)
(0.0103426 -3.43606e-06 0)
(0.0103475 -3.39871e-06 0)
(0.0103524 -3.36176e-06 0)
(0.0103572 -3.32522e-06 0)
(0.010362 -3.28906e-06 0)
(0.0103667 -3.25328e-06 0)
(0.0103714 -3.21788e-06 0)
(0.010376 -3.18284e-06 0)
(0.0103805 -3.14817e-06 0)
(0.0103851 -3.11384e-06 0)
(0.0103895 -3.07986e-06 0)
(0.010394 -3.04622e-06 0)
(0.0103983 -3.0129e-06 0)
(0.0104027 -2.9799e-06 0)
(0.0104069 -2.94722e-06 0)
(0.0104112 -2.91484e-06 0)
(0.0104154 -2.88278e-06 0)
(0.0104195 -2.85103e-06 0)
(0.0104236 -2.81968e-06 0)
(0.0104277 -2.78864e-06 0)
(0.0104317 -2.75781e-06 0)
(0.0104356 -2.72719e-06 0)
(0.0104396 -2.69678e-06 0)
(0.0104434 -2.66658e-06 0)
(0.0104473 -2.63662e-06 0)
(0.0104511 -2.60685e-06 0)
(0.0104548 -2.57728e-06 0)
(0.0104585 -2.5477e-06 0)
(0.0104622 -2.51854e-06 0)
(0.0104658 -2.48736e-06 0)
(0.0104694 -2.46705e-06 0)
(0.010473 -2.42641e-06 0)
(0.0104765 -2.41484e-06 0)
(0.0104799 -2.36578e-06 0)
(0.0104834 -2.35992e-06 0)
(0.0104867 -2.30686e-06 0)
(0.0104901 -2.30682e-06 0)
(0.0104934 -2.24681e-06 0)
(0.0104967 -2.2493e-06 0)
(0.0104998 -2.18901e-06 0)
(0.0105031 -2.19054e-06 0)
(0.0105061 -2.13268e-06 0)
(0.0105094 -2.13111e-06 0)
(0.0105122 -2.07894e-06 0)
(0.0105155 -2.07231e-06 0)
(0.0105181 -2.0346e-06 0)
(0.0105216 -2.02166e-06 0)
(0.0105237 -2.02557e-06 0)
(0.0105275 -2.01517e-06 0)
(0.0105291 -2.15469e-06 0)
(0.0105335 -2.28361e-06 0)
(0.010534 -3.27143e-06 0)
(-4.42721e-06 5.87223e-06 0)
(-4.63219e-05 5.89454e-05 0)
(-0.000133606 0.000123836 0)
(-0.000262725 0.000181794 0)
(-0.000426115 0.000227254 0)
(-0.000613922 0.000256518 0)
(-0.000818785 0.00027488 0)
(-0.00103362 0.000283358 0)
(-0.00125389 0.000286716 0)
(-0.00147649 0.000286467 0)
(-0.00169883 0.00028484 0)
(-0.0019204 0.00028196 0)
(-0.00213976 0.000278706 0)
(-0.00235706 0.000275596 0)
(-0.00257209 0.000272573 0)
(-0.00278478 0.000269478 0)
(-0.00299515 0.000266128 0)
(-0.00320305 0.000263016 0)
(-0.00340804 0.000259312 0)
(-0.00361056 0.000254875 0)
(-0.00381135 0.000250277 0)
(-0.00401005 0.000245704 0)
(-0.00420681 0.000241266 0)
(-0.00440144 0.000236993 0)
(-0.00459391 0.00023301 0)
(-0.0047842 0.00022945 0)
(-0.00497231 0.000226381 0)
(-0.00515821 0.000224002 0)
(-0.00534195 0.000222275 0)
(-0.00552353 0.000221379 0)
(-0.00570299 0.000221107 0)
(-0.00588028 0.000221554 0)
(-0.00605557 0.00022212 0)
(-0.00622926 0.000222466 0)
(-0.00640191 0.000227499 0)
(-0.00657088 0.000230165 0)
(-0.00673654 0.000233267 0)
(-0.0069002 0.00023619 0)
(-0.00706174 0.000238706 0)
(-0.00722117 0.000240681 0)
(-0.00737851 0.000242084 0)
(-0.00753394 0.000242668 0)
(-0.00768748 0.000242627 0)
(-0.00783952 0.000241846 0)
(-0.0079901 0.000240466 0)
(-0.00813935 0.000238597 0)
(-0.00828723 0.000236362 0)
(-0.00843373 0.000233868 0)
(-0.00857881 0.000231186 0)
(-0.00872242 0.000228355 0)
(-0.00886454 0.00022538 0)