/*--------------------------------*- C++ -*----------------------------------*\
| =========                 |                                                 |
| \\      /  F ield         | OpenFOAM: The Open Source CFD Toolbox           |
|  \\    /   O peration     | Version:  2012                                  |
|   \\  /    A nd           | Website:  www.openfoam.com                      |
|    \\/     M anipulation  |                                                 |
\*---------------------------------------------------------------------------*/
FoamFile
{
    version     2.0;
    format      ascii;
    class       volScalarField;
    location    "0.96";
    object      minKappa;
}
// * * * * * * * * * * * * * * * * * * * * * * * * * * * * * * * * * * * * * //

dimensions      [0 0 0 0 0 0 0];


internalField   nonuniform List<scalar> 
2268
(
1.63268e-08
1.59094e-08
5.50862e-08
1.69946e-07
3.0883e-07
5.11241e-07
7.38887e-07
9.41559e-07
1.11692e-06
1.1409e-06
1.08691e-06
8.89036e-07
6.60821e-07
3.38208e-07
1.71405e-07
4.67082e-07
8.16181e-07
1.1724e-06
1.41463e-06
1.51318e-06
1.47803e-06
9.11405e-07
6.37513e-07
1.60616e-08
1.59094e-08
5.50862e-08
1.69946e-07
3.0883e-07
5.11241e-07
7.38887e-07
9.41559e-07
1.11692e-06
1.1409e-06
1.08691e-06
8.89036e-07
6.60821e-07
3.38208e-07
1.71405e-07
4.67082e-07
8.16181e-07
1.1724e-06
1.41463e-06
1.51318e-06
1.47803e-06
9.11405e-07
6.37513e-07
1.60616e-08
2.67778e-08
7.38304e-08
1.81589e-07
3.20474e-07
5.37506e-07
7.73504e-07
9.83502e-07
1.1554e-06
1.17691e-06
1.12711e-06
9.34866e-07
7.23322e-07
4.38779e-07
3.46453e-07
5.8909e-07
8.93798e-07
1.25459e-06
1.47937e-06
1.58871e-06
1.57776e-06
1.06161e-06
8.05788e-07
2.36364e-08
4.12535e-08
1.01509e-07
2.11213e-07
3.56647e-07
5.86709e-07
8.22645e-07
1.04404e-06
1.21576e-06
1.23995e-06
1.20119e-06
1.01416e-06
8.24783e-07
5.73018e-07
5.29709e-07
7.30164e-07
9.92799e-07
1.36343e-06
1.57386e-06
1.7386e-06
1.78724e-06
1.34485e-06
1.10029e-06
3.84667e-08
5.71224e-08
1.36143e-07
2.47896e-07
3.99302e-07
6.53049e-07
8.9812e-07
1.13272e-06
1.30705e-06
1.33024e-06
1.30324e-06
1.12331e-06
9.55938e-07
7.35416e-07
7.24923e-07
9.11249e-07
1.15149e-06
1.51218e-06
1.68651e-06
1.97621e-06
2.093e-06
1.72657e-06
1.48564e-06
6.31636e-08
8.69945e-08
1.86566e-07
3.1372e-07
4.79929e-07
7.53161e-07
9.94366e-07
1.24792e-06
1.42925e-06
1.45936e-06
1.44088e-06
1.26544e-06
1.12085e-06
9.18007e-07
9.38602e-07
1.10158e-06
1.31521e-06
1.63926e-06
1.72444e-06
2.1077e-06
2.35736e-06
2.10029e-06
2.00767e-06
1.10823e-07
1.52742e-07
2.6495e-07
3.92192e-07
5.65996e-07
8.6159e-07
1.12174e-06
1.39607e-06
1.5868e-06
1.62122e-06
1.60861e-06
1.44553e-06
1.31374e-06
1.12263e-06
1.16693e-06
1.30561e-06
1.4785e-06
1.71127e-06
1.72444e-06
2.0935e-06
2.08958e-06
2.43415e-06
2.48945e-06
1.64416e-07
1.9168e-07
3.39073e-07
4.98004e-07
6.98703e-07
1.02581e-06
1.2776e-06
1.58633e-06
1.7943e-06
1.8303e-06
1.81257e-06
1.65297e-06
1.53269e-06
1.35106e-06
1.41457e-06
1.47566e-06
1.61539e-06
2.09183e-06
2.11873e-06
2.0935e-06
2.08958e-06
2.63144e-06
3.08932e-06
0.00023153
0.00017908
0.000236422
0.000229187
0.000157793
8.38743e-05
2.84602e-05
7.65204e-06
2.53417e-06
4.45595e-06
8.0995e-06
2.09197e-05
1.32024e-05
1.90627e-05
2.64846e-05
2.83864e-05
2.82756e-05
1.19175e-05
4.17752e-06
0.00023153
0.00017908
0.000236422
0.000229187
0.000157793
8.38743e-05
2.84602e-05
7.65204e-06
2.53417e-06
3.67588e-06
4.1071e-06
1.06368e-05
1.06972e-05
1.90627e-05
2.64846e-05
2.83864e-05
2.82756e-05
1.19175e-05
4.17752e-06
0.000164282
0.000259786
0.000262627
0.000205447
7.01462e-05
3.71199e-05
1.48176e-05
8.14795e-06
4.32788e-06
3.67588e-06
4.10288e-06
6.25387e-06
1.06972e-05
1.42295e-05
1.97673e-05
7.87068e-05
9.22079e-05
2.37651e-05
4.72214e-06
0.000132173
0.000259786
0.00020384
0.000139705
5.18204e-05
2.84824e-05
1.16073e-05
9.02339e-06
5.6999e-06
3.88148e-06
4.10288e-06
6.25387e-06
1.27723e-05
1.41289e-05
1.46763e-05
7.54922e-05
7.07074e-05
2.16752e-05
3.85225e-06
0.00011242
0.000250362
0.00020384
0.000139705
5.18204e-05
2.84824e-05
1.16073e-05
9.95453e-06
7.16822e-06
7.59148e-06
8.80965e-06
7.8432e-06
1.70346e-05
1.41289e-05
1.39e-05
4.82436e-05
4.49001e-05
7.63501e-06
2.70609e-06
9.3312e-05
0.000207807
0.000261065
0.000265523
0.000104467
0.000101515
1.47106e-05
1.11976e-05
1.86919e-05
5.92997e-05
5.31404e-05
3.24472e-05
7.68927e-05
2.37293e-05
1.39e-05
2.66251e-05
1.22289e-05
4.06882e-06
1.60157e-06
7.66169e-05
0.000140607
0.000167062
0.000143947
0.000111387
0.000129864
3.7284e-05
1.70845e-05
9.44297e-05
0.00020016
0.000153064
0.000117985
9.08755e-05
0.000103854
2.53762e-05
1.2377e-05
5.33026e-06
3.15101e-06
1.19474e-06
7.66169e-05
0.000134762
0.000125093
0.000143947
0.000111387
0.000129864
6.05544e-05
4.17338e-05
0.000148964
0.000291069
0.000175153
0.000151127
0.000119116
0.000103854
5.04372e-05
1.2377e-05
5.33026e-06
3.15101e-06
1.19474e-06
3.59482e-07
4.25345e-07
6.97397e-07
9.77392e-07
1.33428e-06
1.87775e-06
2.32255e-06
2.85198e-06
3.17134e-06
3.19684e-06
3.16904e-06
2.95573e-06
2.81527e-06
2.60025e-06
3.05994e-06
3.93269e-06
5.8286e-06
1.0272e-05
1.99703e-05
8.46007e-06
2.96948e-06
5.75536e-06
5.9438e-06
1.08813e-06
1.31663e-06
1.92381e-06
2.30002e-06
2.94352e-06
3.85911e-06
4.21157e-06
5.07452e-06
5.65319e-06
6.32976e-06
7.20207e-06
7.46391e-06
8.58771e-06
1.10236e-05
3.06886e-05
5.38405e-05
0.000264903
0.000273091
0.000178655
9.93134e-05
4.54619e-05
1.95722e-05
3.87317e-06
1.87082e-06
2.27556e-06
2.19736e-06
3.22714e-06
4.05059e-06
9.38792e-06
1.38746e-05
1.3451e-05
1.18082e-05
1.8524e-05
3.28781e-05
5.00772e-05
6.21697e-05
0.000168
0.00028528
0.000315289
0.000590461
0.000404785
0.000167864
5.17172e-05
2.14284e-05
5.95741e-05
2.05269e-05
2.73765e-06
2.54331e-06
2.19736e-06
5.86873e-06
1.52672e-05
7.01361e-05
0.000138045
0.000130603
8.24949e-05
7.27762e-05
0.000127458
0.000291583
0.000370137
0.000533417
0.000548031
0.000844939
0.000363411
0.000175227
4.93689e-05
2.68576e-05
2.03693e-05
2.03693e-05
7.59166e-05
3.35356e-06
4.45015e-06
2.05056e-05
0.000108052
0.000139632
0.000119555
0.000166303
0.000380516
0.000358398
0.00040909
0.000564304
0.000641694
0.000677086
0.000741818
0.000674077
0.000958015
0.000308196
8.14883e-05
5.27718e-05
4.40126e-05
2.86241e-05
5.899e-05
6.27715e-05
3.69292e-06
1.72336e-05
0.000196423
0.000448407
0.000433003
0.000404954
0.000408713
0.000633624
0.00106579
0.00118161
0.000813465
0.000742431
0.000737688
0.000725181
0.000725181
0.000756357
0.000314683
8.56913e-05
6.00137e-05
5.66004e-05
5.03116e-05
6.42156e-05
5.66574e-05
9.2514e-06
4.38283e-05
0.000429204
0.000843231
0.000846128
0.000924251
0.000815229
0.00123693
0.00146656
0.000961573
0.000824102
0.000785759
0.000768821
0.000762456
0.000800577
0.0010422
0.000516086
0.000116529
6.76933e-05
6.48152e-05
6.22771e-05
6.50386e-05
5.74735e-05
2.16757e-05
7.28215e-05
0.000581489
0.00104717
0.000893606
0.00113949
0.00141418
0.00157483
0.00097893
0.00089475
0.000943622
0.000859984
0.000850879
0.000747626
0.000983675
0.00103902
0.000754936
0.000540604
0.000119945
8.19413e-05
6.88664e-05
8.01542e-05
8.16573e-05
3.23132e-05
8.39389e-05
0.000851342
0.000962046
0.000730136
0.00103343
0.00107687
0.00109258
0.000779342
0.000852773
0.000869289
0.000811814
0.000868208
0.000736855
0.000863838
0.000759701
0.000594351
0.000643724
0.000501457
0.000275567
0.000121063
0.00014531
0.000196352
4.04711e-05
9.03299e-05
0.000942236
0.000894516
0.000650956
0.00078232
0.000621145
0.000662825
0.000511484
0.00051215
0.000654026
0.000651785
0.000757564
0.000612647
0.000625594
0.000470188
0.000436174
0.000525888
0.000536417
0.000404457
0.000262608
0.000159239
0.00022776
7.48581e-05
0.000274651
0.00117912
0.000919226
0.000552116
0.000551587
0.000404032
0.000386155
0.000248787
0.000168113
0.000374628
0.000451576
0.000547197
0.000444272
0.00043812
0.000321214
0.000356078
0.000445144
0.000524409
0.000425729
0.00032859
0.000233451
0.000168466
0.000408476
0.000567946
0.00121694
0.000963946
0.000473584
0.000386567
0.000303621
0.000236408
0.000120555
0.000129909
0.000228956
0.000293215
0.000405687
0.000354235
0.00037916
0.000316023
0.000346883
0.000424637
0.000515461
0.000522294
0.000427849
0.000336333
0.000167312
0.000641724
0.000609588
0.0013233
0.00101775
0.000478713
0.000339497
0.000229918
0.00012658
8.01344e-05
0.00010615
0.000188352
0.000198578
0.000304076
0.000296254
0.000357322
0.000316023
0.000357163
0.000419719
0.000476962
0.000536644
0.000493514
0.000409476
0.000212022
0.000641724
0.000728789
0.00137296
0.00104644
0.000501987
0.000316756
0.000206427
0.000129369
8.01344e-05
3.97279e-05
0.000113858
0.000152249
0.000223778
0.000267758
0.000314547
0.000326658
0.000364666
0.000416243
0.000470233
0.000529691
0.000554737
0.000498428
0.000319317
0.000753924
0.000964021
0.00133565
0.000989019
0.000478599
0.000286003
0.00017142
0.000120962
6.97461e-05
3.80482e-05
8.5471e-05
0.000152178
0.000208631
0.000261864
0.000304381
0.000336782
0.000370881
0.000421249
0.000468625
0.000529576
0.000578825
0.000587266
0.000438342
0.000936897
0.00102899
0.00133438
0.000924859
0.000448533
0.000281591
0.000174132
0.000118967
0.000122493
3.80482e-05
0.000126838
0.000152178
0.000207573
0.000258937
0.000297529
0.000341307
0.000374766
0.000421003
0.000463433
0.000516618
0.000572872
0.000629089
0.000557871
0.000938091
0.00112845
0.00136071
0.000862229
0.00042299
0.000281423
0.000189807
0.000118967
0.000170344
9.37327e-05
0.000170524
0.000171613
0.000229798
0.000265196
0.00030304
0.000342144
0.000373899
0.000414203
0.000450217
0.00049281
0.000540224
0.00059654
0.000553507
0.00096584
0.00122325
0.00130165
0.000808727
0.000418251
0.000297975
0.000238157
0.000142025
0.000217531
0.000147624
0.00021902
0.000207272
0.00026151
0.000283074
0.000322058
0.000356957
0.00038572
0.000420901
0.00045212
0.000486984
0.000520889
0.000555902
0.00047217
0.000991688
0.00137148
0.0012787
0.00078204
0.00044561
0.000299649
0.000288933
0.000188139
0.000259831
0.000197676
0.000255413
0.000243248
0.000288344
0.000305792
0.000340262
0.000371724
0.0003984
0.000430062
0.000459208
0.000492575
0.000525149
0.000558073
0.000454797
0.00106342
0.00144703
0.00129217
0.000775852
0.000496945
0.0003317
0.000340541
0.000239352
0.000305107
0.000242155
0.000293867
0.000275112
0.000313252
0.000324367
0.000350651
0.000375585
0.000398172
0.000426133
0.000454627
0.000489396
0.000525704
0.000563674
0.000468955
0.00106342
0.00144935
0.00129738
0.000789412
0.000553292
0.000389409
0.000384477
0.000292268
0.000337258
0.000284089
0.000324429
0.000305489
0.000339126
0.000345013
0.000374275
0.000393585
0.000419187
0.000447211
0.000477428
0.000513849
0.000553109
0.00059546
0.000508268
0.00124193
0.00166095
0.00130074
0.000820681
0.000596952
0.00045208
0.000415288
0.000338852
0.000360517
0.000317226
0.000347417
0.000331203
0.000357881
0.000366074
0.000388663
0.00041106
0.00043608
0.000472368
0.000514144
0.000560031
0.000605286
0.000651003
0.000556612
0.00157439
0.00187379
0.00132879
0.000863051
0.000632399
0.000502087
0.000434563
0.000375533
0.000377123
0.000343709
0.000366355
0.000352406
0.000374965
0.000383359
0.00040641
0.000432929
0.000466621
0.000512013
0.000560907
0.000609363
0.000655461
0.000703807
0.00058221
0.00191462
0.00197801
0.00138548
0.000900999
0.000646255
0.000506064
0.000431938
0.000390239
0.000376537
0.000358603
0.000370608
0.000368038
0.000385629
0.000401178
0.000425092
0.000459709
0.000503411
0.000552759
0.000597246
0.000637029
0.000676223
0.000717113
0.000571511
0.00222967
0.00211522
0.00145269
0.000913444
0.000630329
0.000486844
0.000412102
0.000361665
0.000361384
0.000351677
0.000369248
0.000378713
0.000396088
0.000419917
0.000450851
0.000495179
0.000544521
0.000590083
0.000625858
0.000656243
0.00068568
0.000707343
0.000541038
0.00251698
0.00222832
0.00150514
0.000879086
0.000556511
0.000404067
0.000334442
0.000308555
0.000319891
0.000334438
0.000355379
0.000376987
0.000401521
0.000434758
0.000477573
0.000527844
0.000572725
0.000605531
0.000628233
0.000647403
0.000664342
0.000661216
0.000488005
0.00271848
0.00234978
0.00154988
0.000779937
0.000402696
0.000237282
0.000212118
0.000230516
0.000272042
0.000309373
0.00034304
0.000377736
0.000414737
0.00045936
0.000511567
0.00056132
0.000596502
0.000616063
0.000625319
0.000626928
0.000625737
0.000602885
0.000423252
0.00270132
0.00240216
0.00163977
0.000753979
0.000236086
0.000116171
8.71288e-05
0.00015703
0.000214203
0.000272731
0.000327463
0.000376599
0.000425591
0.000480559
0.000535508
0.000577536
0.000599895
0.000603542
0.000607852
0.000596789
0.000579019
0.000535606
0.000356113
0.00257323
0.00233384
0.0016977
0.000905952
0.000306139
6.58112e-05
6.58112e-05
8.25469e-05
0.000182154
0.000268168
0.000335717
0.000395064
0.000453231
0.000514188
0.000565738
0.000596877
0.000598776
0.00058959
0.000584682
0.000558108
0.000524696
0.000467914
0.000300041
0.00241088
0.00221034
0.00170057
0.00106003
0.000505344
0.000200597
0.000118597
0.000163946
0.000236105
0.000303437
0.000364584
0.000424353
0.000485061
0.000544273
0.000585984
0.000593452
0.000581767
0.000571124
0.000548499
0.000511807
0.000462135
0.000405535
0.000258579
0.00225668
0.0020687
0.0016648
0.00114878
0.00063768
0.000380022
0.000273608
0.00025407
0.000316232
0.000363803
0.000421964
0.000476535
0.000534887
0.000587236
0.000610473
0.000588504
0.000570184
0.000546095
0.00050829
0.000460383
0.000406156
0.000352942
0.000224653
0.0021549
0.00198195
0.00165633
0.00115759
0.000741712
0.000527385
0.000421494
0.00037881
0.00040649
0.000435256
0.000484843
0.000533616
0.000587103
0.000623903
0.000601293
0.000570674
0.000543158
0.000504973
0.000458855
0.000409106
0.000360209
0.000315236
0.000204872
0.00199915
0.00188018
0.00154788
0.0011167
0.000807746
0.00065005
0.00055324
0.000502364
0.000504967
0.00051813
0.000554344
0.000597062
0.000643679
0.000645289
0.000601315
0.000562339
0.000519981
0.000469111
0.000416231
0.000363795
0.000315967
0.000276161
0.000183681
0.00176022
0.00167516
0.00141086
0.00111059
0.000896139
0.000763641
0.000671338
0.000618493
0.000604236
0.000606364
0.00063076
0.000665265
0.000693665
0.00064368
0.00058713
0.000537004
0.000481093
0.000424612
0.000371615
0.000324357
0.000283629
0.000252742
0.000180142
0.00157957
0.00150533
0.0013154
0.00110866
0.000951047
0.000853615
0.000772963
0.000722883
0.000697442
0.000693294
0.000709415
0.000733136
0.00071999
0.000648529
0.000583561
0.000519789
0.000452828
0.000389595
0.000331642
0.000282745
0.000247825
0.000231236
0.000170839
0.00145812
0.00141676
0.00128283
0.00114609
0.00103203
0.000944385
0.000861276
0.000815692
0.000784979
0.000777655
0.000786281
0.000796448
0.000724973
0.00063864
0.000562326
0.000484688
0.000411305
0.000346956
0.000294632
0.000254545
0.000228249
0.000221776
0.000180525
0.00139023
0.0013478
0.00124791
0.00114792
0.00106253
0.000996669
0.000937966
0.00089689
0.00086528
0.000857516
0.000859903
0.000827218
0.000731146
0.000637714
0.000549915
0.00046299
0.000383789
0.000314336
0.000258498
0.000222852
0.000211633
0.000211633
0.000179926
0.00135535
0.00132675
0.00126225
0.00119408
0.00112732
0.00106695
0.00100623
0.000970535
0.000940877
0.000931796
0.000921291
0.000833609
0.000722922
0.000619256
0.000518262
0.000424081
0.000342432
0.000278114
0.000235978
0.00020758
0.000206387
0.000219725
0.000196886
0.00133581
0.00130373
0.00125394
0.00120131
0.00115154
0.00110821
0.00106715
0.0010369
0.00101088
0.00100121
0.000955066
0.000842358
0.000721719
0.000608959
0.000500911
0.000403183
0.000318315
0.000250759
0.000207071
0.000194465
0.000194465
0.000207424
0.000199656
0.00134867
0.00132989
0.00129482
0.00125517
0.00120475
0.00116695
0.00112552
0.0011007
0.0010764
0.00105606
0.000957341
0.000826064
0.000698997
0.000577941
0.000464203
0.000363934
0.00028209
0.00022782
0.000199148
0.000191385
0.000205746
0.000227756
0.000219684
0.00134457
0.00132537
0.00129759
0.00126672
0.00123576
0.00120795
0.00117955
0.0011599
0.00113848
0.00109076
0.000968349
0.000828169
0.000694632
0.000566284
0.000448308
0.000346198
0.000264439
0.000207953
0.000184802
0.000184802
0.000194184
0.000222804
0.000222247
0.00137098
0.00136417
0.00134225
0.00132093
0.001292
0.0012687
0.00124307
0.00122566
0.00120021
0.00109256
0.000944886
0.000796647
0.000656307
0.000526313
0.000411792
0.000316416
0.000244802
0.000202933
0.000189742
0.000191127
0.000213798
0.000248781
0.000244366
2.53357e-06
2.53357e-06
4.20257e-06
1.7763e-05
3.1916e-06
3.1916e-06
1.86003e-05
4.2587e-05
1.16931e-05
3.48252e-05
3.48252e-05
3.79443e-05
3.57404e-05
3.10873e-05
3.10873e-05
3.74581e-05
3.47486e-05
3.47486e-05
3.53018e-05
4.45495e-05
3.57764e-05
3.57764e-05
4.13825e-05
0.000101897
5.74735e-05
7.10259e-05
0.000251161
0.000317164
0.000147641
0.000256227
0.00029886
0.00029886
0.000246592
0.000233239
0.000207313
0.000207313
0.000160244
0.000136973
0.000115151
0.000115151
0.000122685
0.000122685
0.000111296
0.000111296
8.92611e-05
6.03898e-05
3.69961e-05
3.69961e-05
0.000108811
8.78984e-05
6.741e-05
6.741e-05
0.00019444
0.000175819
0.000154323
0.000154323
0.000291228
0.000273074
0.000234993
0.000234993
0.00038732
0.000359863
0.000354081
0.000354081
0.000385623
0.000385623
0.000406849
0.000414907
0.000316624
0.000316624
0.000331779
0.000348491
0.000299405
0.000299405
0.000307344
0.000315013
0.000309277
0.000309277
0.000318003
0.000326841
0.000337226
0.000337226
0.000348008
0.000358044
0.000367663
0.000367663
0.000376596
0.000383707
0.0003795
0.0003795
0.000382597
0.000383777
0.000368432
0.000367822
0.000366274
0.000366274
0.000344301
0.000339899
0.000334671
0.000334671
0.000305582
0.000297469
0.000289351
0.000289351
0.000259943
0.000249001
0.00023911
0.00023911
0.000215708
0.000204477
0.000195097
0.000195097
0.000180231
0.000169615
0.000160932
0.000160932
0.0001553
0.00014642
0.00013943
0.00013943
0.000135429
0.000128846
0.000124354
0.000124354
0.000125594
0.000121997
0.000120494
0.000120494
0.000114921
0.000114406
0.000114406
0.000115923
0.000115656
0.000115656
0.000117764
0.000121522
0.000112681
0.000112681
0.000117348
0.000123239
0.000120762
0.000120762
0.000126753
0.000133563
0.000122313
0.000122313
0.000129779
0.000137735
0.000133825
0.000133825
0.000141666
0.000149796
0.000136618
0.000136618
0.000145275
0.000154028
0.000149616
0.000149616
0.000158287
0.000166986
0.000151747
0.000151747
0.000160802
0.000169821
0.000166144
0.000166144
0.000175317
0.000184408
5.87729e-05
0.000134762
0.000125093
0.000178689
0.00019867
0.000126464
7.94872e-05
9.30817e-05
0.000283404
0.000280519
0.000175153
0.000171541
0.000234289
0.00013469
6.03261e-05
1.63666e-05
6.59877e-06
7.01453e-06
5.5038e-06
0.000107086
0.000162949
0.000139163
6.15344e-05
0.000106036
4.33999e-05
5.93448e-05
6.32957e-05
0.00030719
0.00025724
0.000186932
0.000156455
0.00018046
0.000147235
0.000114286
3.41271e-05
2.77705e-05
5.80547e-05
3.5367e-05
8.12699e-05
0.000190876
7.79666e-05
6.15344e-05
5.51861e-05
3.28362e-05
4.46027e-05
0.000138314
0.000286137
0.000200924
0.000186932
0.000156455
0.00018046
0.000147235
0.000117143
0.000126392
0.000196684
0.000165292
7.40841e-05
0.000120191
0.000109526
7.31399e-05
6.61674e-05
4.80024e-05
3.28362e-05
3.8343e-05
5.58183e-05
0.000109313
0.000191189
0.00026474
0.000350911
0.000309486
0.000280251
0.000275216
0.000350656
0.000243902
0.000167271
0.000147066
0.000173165
0.000252291
0.000116995
0.000140328
0.000101433
5.98401e-05
4.83352e-05
4.8917e-05
4.8917e-05
8.90685e-05
0.000213317
0.000431545
0.000468336
0.000472374
0.000466734
0.000437309
0.000251878
0.000155547
5.45242e-05
0.000356856
0.000437774
0.000628637
0.000625226
0.000446207
0.000212205
0.000149127
0.000100794
7.318e-05
0.000171015
0.000330265
0.000312495
0.000432255
0.00045615
0.00036854
0.000350399
0.000354516
0.000119606
4.46535e-05
0.000543128
0.0005146
0.000375815
0.000553117
0.000755231
0.000409778
0.000264014
0.000250087
0.000187122
0.000208036
0.000181457
0.000181457
0.000281023
0.000441552
0.000350961
0.000226281
0.000517453
0.000207464
4.46535e-05
0.000450495
0.000187476
0.000187137
0.000299354
0.000635761
0.000673374
0.000291812
0.000250087
0.000282689
0.00027528
0.000320918
0.000294422
0.000481693
0.000469113
0.000319503
0.000226281
0.000421714
0.00031256
8.44795e-05
0.000212895
0.000137053
0.000179485
0.000344342
0.000483012
0.000354715
0.000477596
0.000347811
0.000377118
0.000383826
0.0005006
0.000518638
0.000609688
0.000543754
0.000446161
0.000392016
0.000572331
0.000214666
7.13941e-05
9.96376e-05
0.000137053
0.000260536
0.00039005
0.000388555
0.000354715
0.000436965
0.000567153
0.000529525
0.0004937
0.000593002
0.00058872
0.000618881
0.000604283
0.000603988
0.000474022
0.000306525
7.93356e-05
6.51192e-05
9.96376e-05
0.000265662
0.000288732
0.000274779
0.000388555
0.000454298
0.000716956
0.000689705
0.000562255
0.000533509
0.000514872
0.000488643
0.000462528
0.00039555
0.000367055
0.000303424
0.000145085
4.79316e-05
5.92164e-05
8.40603e-05
0.000324215
0.000219047
0.000209649
0.00048963
0.000759928
0.000667266
0.000539299
0.000531805
0.000512457
0.000490935
0.000431496
0.000382136
0.000299237
0.000258251
0.000191743
9.86212e-05
4.79316e-05
8.16189e-05
0.000118865
0.000264591
0.000232618
0.000209649
0.000462318
0.000746772
0.000583408
0.000495053
0.000531805
0.000512457
0.000490935
0.000431496
0.000355946
0.000278207
0.000206551
0.000133219
8.71781e-05
6.14846e-05
8.95684e-05
0.000232706
0.000283785
0.000234948
0.000373901
0.000724202
0.000719938
0.000462831
0.000495053
0.000579584
0.00056786
0.000519348
0.000442453
0.000364142
0.00027191
0.000200289
0.000144048
9.86475e-05
7.1366e-05
7.15006e-05
0.00036465
0.000377439
0.000449922
0.000671615
0.000916638
0.000539648
0.000396334
0.000562055
0.000626421
0.000624365
0.000557463
0.000480424
0.000388146
0.000296503
0.000216708
0.000156155
0.000101093
5.97627e-05
4.23216e-05
0.000598743
0.000647713
0.000762298
0.000851798
0.000707982
0.000330039
0.000396334
0.000611196
0.000657664
0.000672324
0.000593949
0.00051928
0.000413414
0.000308109
0.000222281
0.000155349
9.11079e-05
4.6001e-05
2.53758e-05
0.00069242
0.000881945
0.000845086
0.00076593
0.000456925
0.000330039
0.000393715
0.000620683
0.000682909
0.000713206
0.00064585
0.00056345
0.000437936
0.000317217
0.00021894
0.000144963
9.26004e-05
4.89812e-05
2.53758e-05
0.000605278
0.000774145
0.000758667
0.000628468
0.000476136
0.000330299
0.000496032
0.00066557
0.000718979
0.000763058
0.00072295
0.000630082
0.000476782
0.0003155
0.000192357
0.000120346
9.1155e-05
7.5804e-05
3.48523e-05
0.000539177
0.00074793
0.000747306
0.000670207
0.000503417
0.000492503
0.000588327
0.000719465
0.000786848
0.000839779
0.000819964
0.000723696
0.000534953
0.000337465
0.000182077
0.000101076
9.1155e-05
9.97734e-05
6.11166e-05
0.000562361
0.00074793
0.000747306
0.000708159
0.000628392
0.000641304
0.000699044
0.000805858
0.000871505
0.000925196
0.000919074
0.000832926
0.000613971
0.00037417
0.000182448
8.81105e-05
9.81225e-05
0.000122014
8.78519e-05
0.000614633
0.000800053
0.00079411
0.000772463
0.000727223
0.000741281
0.000787238
0.000879919
0.000951631
0.00100722
0.00101475
0.00094971
0.00072352
0.000436921
0.000197696
8.05429e-05
0.00010788
0.000144964
0.000114346
0.000651023
0.000817829
0.000792671
0.000789243
0.000767252
0.000793693
0.00084573
0.00093917
0.00102009
0.00108084
0.00110083
0.00105479
0.000857499
0.000518531
0.000217997
8.05429e-05
0.000105705
0.000159646
0.000140949
0.000642533
0.000775098
0.0007552
0.000753047
0.000751106
0.000807373
0.000878705
0.000978267
0.00107054
0.00114034
0.00117269
0.00114437
0.000992365
0.000621052
0.000260856
8.60678e-05
0.000109091
0.000163549
0.000163621
0.000608828
0.000707365
0.000688614
0.000689568
0.000703449
0.000770567
0.00085947
0.00098709
0.00110285
0.00118579
0.00123022
0.00122059
0.00110881
0.0007462
0.000323777
0.000106178
0.000107962
0.000171807
0.000181576
0.000550925
0.000617369
0.000607696
0.000623537
0.000655614
0.000730592
0.000822369
0.00095325
0.00109324
0.00121574
0.00127319
0.00128127
0.0012001
0.00088178
0.000410204
0.000139306
0.000104868
0.00017573
0.00019624
0.000472673
0.000523348
0.000531227
0.000567965
0.00061906
0.000702158
0.000795978
0.000920037
0.00105905
0.00120717
0.00130113
0.00132549
0.00126902
0.00101592
0.000517005
0.00018018
0.000101893
0.000182408
0.000212786
0.000388102
0.000436965
0.000462099
0.00051796
0.000586518
0.000679527
0.000776889
0.000896892
0.00102794
0.00117804
0.00130677
0.00135459
0.00132004
0.00113341
0.000635715
0.000223665
9.87639e-05
0.000187973
0.000235144
0.000315867
0.000364346
0.000402988
0.000472435
0.000555721
0.000659355
0.000760613
0.000878596
0.00100378
0.00114714
0.00129083
0.0013708
0.00135597
0.00123184
0.000756981
0.000275854
9.29487e-05
0.000196186
0.000262043
0.000259846
0.000315497
0.000362212
0.000437399
0.000528396
0.000641762
0.00074709
0.000863944
0.00098561
0.00111939
0.00126844
0.00137802
0.00137939
0.00128563
0.000870479
0.000329272
8.65819e-05
0.00020264
0.000292936
0.000226796
0.000292364
0.000342325
0.00041612
0.000507095
0.000626674
0.000735897
0.000851503
0.00097188
0.00109772
0.00124296
0.00137304
0.00139364
0.00132334
0.000976856
0.000390601
8.65819e-05
0.000213682
0.000326806
0.00020575
0.000290376
0.000340549
0.000409082
0.000494458
0.000615748
0.000728026
0.000842465
0.00096155
0.0010824
0.00121936
0.00136351
0.00140121
0.00134658
0.00106532
0.000462548
9.50129e-05
0.00024078
0.000365884
0.000203654
0.000290376
0.000340549
0.000409082
0.000489723
0.000608537
0.000722822
0.000836828
0.000953775
0.00107187
0.00119964
0.00135172
0.00140523
0.00135997
0.00113263
0.000534083
0.000123724
0.000276741
0.000411071
0.000200302
0.000299546
0.000349663
0.000412413
0.000489723
0.000604694
0.000720896
0.000835235
0.000949421
0.00106578
0.00118557
0.00134009
0.00140648
0.00136742
0.00117929
0.000605969
0.000176202
0.000328473
0.000463026
0.000212477
0.000314589
0.000363832
0.000422522
0.000492402
0.000606169
0.000720896
0.000835235
0.000947887
0.00106267
0.00117662
0.00132991
0.00140617
0.001372
0.00121906
0.000668677
0.00023994
0.000377998
0.000523377
0.000218056
0.000332937
0.000380716
0.000436341
0.000500313
0.000607572
0.000721367
0.000836554
0.000947887
0.00106267
0.0011732
0.00132274
0.00140617
0.00137462
0.00124804
0.000729955
0.000304838
0.000424468
0.000586179
0.000236305
0.000352142
0.000398964
0.000452292
0.000511829
0.000613252
0.000725141
0.000840876
0.000949936
0.00106305
0.0011732
0.00131868
0.00140673
0.00137665
0.00127057
0.000771568
0.000362142
0.000449882
0.000648878
0.000244664
0.000371229
0.000417257
0.000469436
0.000526084
0.000622108
0.000731229
0.000847056
0.000954486
0.00106567
0.00117342
0.00131853
0.00140866
0.00137891
0.0012807
0.000812991
0.000411181
0.000472052
0.00070095
0.000264955
0.000390349
0.000435869
0.000487124
0.000541727
0.000633769
0.000740407
0.000855497
0.000961931
0.00107116
0.0011774
0.00131853
0.00141282
0.00138276
0.00128887
0.000834891
0.000448814
0.00049909
0.000778212
0.000272889
0.000408454
0.000453714
0.000504466
0.000557653
0.00064716
0.000751501
0.000865116
0.000970945
0.00107811
0.00118344
0.00132105
0.0014186
0.00138844
0.00129813
0.000868834
0.000481192
0.000531945
0.000842501
0.000294413
0.000427367
0.000472458
0.000522849
0.000574663
0.000661907
0.000764554
0.000876332
0.000981875
0.00108699
0.00119185
0.00132662
0.00142633
0.00139605
0.00130921
0.000881105
0.000501985
0.000575423
0.000946845
0.000299613
0.000444289
0.000489114
0.000539462
0.000590284
0.000676085
0.0007777
0.000887474
0.000992873
0.00109603
0.00120066
0.00133314
0.00143436
0.00140432
0.00131974
0.000907946
0.00051155
0.000620656
0.00101016
0.000324097
0.000463633
0.000508354
0.000558647
0.00060877
0.000692638
0.000793062
0.000900512
0.00100574
0.00110657
0.00121117
0.00134139
0.0014438
0.00141355
0.00133206
0.000917417
0.000523412
0.000674342
0.00115073
)
;

boundaryField
{
    leftWall
    {
        type            calculated;
        value           uniform 0;
    }
    rightWall
    {
        type            calculated;
        value           uniform 0;
    }
    lowerWall
    {
        type            calculated;
        value           uniform 0;
    }
    atmosphere
    {
        type            calculated;
        value           uniform 0;
    }
    defaultFaces
    {
        type            empty;
    }
}


// ************************************************************************* //
