/*--------------------------------*- C++ -*----------------------------------*\
| =========                 |                                                 |
| \\      /  F ield         | OpenFOAM: The Open Source CFD Toolbox           |
|  \\    /   O peration     | Version:  2012                                  |
|   \\  /    A nd           | Website:  www.openfoam.com                      |
|    \\/     M anipulation  |                                                 |
\*---------------------------------------------------------------------------*/
FoamFile
{
    version     2.0;
    format      ascii;
    class       volScalarField;
    location    "0.96";
    object      p_rgh;
}
// * * * * * * * * * * * * * * * * * * * * * * * * * * * * * * * * * * * * * //

dimensions      [1 -1 -2 0 0 0 0];


internalField   nonuniform List<scalar> 
2268
(
102328
102324
102319
102309
102302
102288
102281
102265
102256
102236
102223
102195
102177
102144
102125
102096
102082
102064
102061
102058
102063
102069
102075
102329
102325
102320
102310
102302
102289
102281
102265
102257
102236
102224
102196
102178
102144
102125
102095
102081
102062
102060
102056
102062
102067
102075
102330
102326
102320
102310
102303
102288
102281
102265
102258
102237
102225
102196
102178
102143
102123
102092
102078
102059
102058
102056
102061
102070
102077
102333
102329
102323
102312
102303
102289
102282
102267
102260
102240
102228
102198
102180
102143
102122
102089
102074
102053
102052
102049
102059
102067
102076
102335
102330
102324
102311
102304
102288
102282
102266
102262
102241
102230
102199
102180
102140
102118
102083
102067
102046
102051
102049
102056
102069
102080
102340
102335
102327
102314
102305
102289
102283
102269
102265
102246
102235
102204
102183
102141
102116
102078
102060
102036
102038
102035
102051
102065
102080
102343
102337
102329
102314
102305
102286
102282
102267
102267
102247
102239
102204
102183
102136
102110
102067
102047
102022
102039
102037
102043
102064
102084
102351
102344
102334
102317
102306
102287
102282
102270
102272
102255
102247
102214
102190
102137
102107
102062
102034
101980
101953
101967
102038
102063
102090
102235
101707
101660
101657
101755
101865
102053
102118
101976
101949
101858
101913
101887
101760
101712
101722
101729
101858
101933
102064
101624
101617
101617
101712
101816
102010
102080
101954
101936
101858
101903
101872
101727
101683
101690
101690
101839
101915
101865
101580
101601
101603
101706
101802
101983
102047
101929
101918
101841
101878
101820
101723
101680
101643
101644
101795
101908
101943
101596
101596
101613
101790
101876
101971
102016
101895
101894
101812
101839
101811
101758
101738
101690
101650
101834
101910
101930
101639
101597
101588
101683
101798
101965
101996
101865
101798
101672
101685
101727
101780
101819
101749
101751
101863
101911
101931
101651
101601
101588
101606
101661
101941
101983
101704
101615
101564
101577
101571
101682
101830
101794
101856
101903
101913
101943
101624
101603
101612
101592
101628
101904
101954
101564
101615
101579
101591
101521
101514
101770
101885
101925
101911
101903
101952
101638
101644
101642
101597
101606
101885
101912
101527
101624
101748
101769
101575
101482
101640
101915
101911
101899
101875
102360
102351
102338
102315
102305
102279
102277
102265
102277
102259
102257
102214
102185
102123
102068
101935
101793
101698
101722
101729
101808
101993
102090
102386
102374
102352
102325
102302
102277
102267
102269
102292
102279
102264
102222
102143
101926
101678
101521
101469
101466
101479
101506
101563
101707
102132
102413
102394
102359
102313
102285
102080
101990
102072
102201
102206
102151
101892
101606
101465
101458
101447
101464
101472
101688
101938
101924
101738
101979
102464
102435
102360
102038
101703
101575
101538
101591
101839
101970
101868
101586
101533
101447
101455
101441
101462
101649
102169
102162
102055
101957
101946
102538
102478
101992
101446
101460
101428
101424
101381
101486
101546
101556
101547
101648
101603
101472
101437
101496
102096
102315
102195
102056
101941
101970
102643
102290
101567
101484
101463
101433
101352
101327
101342
101382
101516
101718
101703
101680
101477
101393
101514
102272
102422
102338
102273
102293
102339
102729
102082
101456
101454
101428
101335
101325
101329
101328
101336
101464
101667
101663
101514
101353
101343
101376
102041
102516
102501
102494
102493
102526
102794
101955
101335
101361
101332
101330
101328
101328
101331
101331
101355
101365
101366
101329
101324
101334
101341
101547
102091
102443
102619
102505
102574
102894
101980
101329
101332
101328
101329
101328
101328
101334
101335
101328
101327
101326
101326
101325
101334
101334
101327
101326
101578
102350
102554
101910
102976
101969
101330
101329
101328
101328
101327
101327
101330
101329
101326
101327
101326
101328
101327
101331
101328
101327
101326
101327
101449
102023
101963
102694
101626
101328
101328
101328
101327
101327
101327
101328
101327
101326
101327
101327
101327
101327
101327
101326
101327
101326
101327
101328
101460
101878
101559
101352
101328
101327
101327
101327
101327
101327
101327
101326
101327
101327
101327
101327
101327
101327
101326
101327
101326
101327
101326
101336
101463
101331
101325
101329
101326
101328
101327
101327
101327
101327
101326
101327
101327
101327
101327
101327
101327
101326
101327
101326
101327
101326
101327
101331
101327
101326
101328
101326
101327
101326
101327
101326
101327
101326
101327
101327
101327
101327
101327
101327
101326
101327
101326
101326
101326
101326
101326
101449
101326
101329
101326
101328
101326
101327
101327
101327
101326
101327
101327
101327
101327
101327
101327
101326
101327
101326
101326
101326
101326
101326
101744
101326
101328
101326
101328
101326
101327
101326
101327
101326
101327
101326
101327
101326
101326
101326
101326
101326
101326
101326
101326
101326
101326
101767
101326
101328
101326
101328
101326
101327
101326
101327
101326
101327
101326
101327
101326
101326
101326
101326
101326
101326
101326
101326
101326
101326
101789
101327
101328
101326
101328
101326
101327
101326
101327
101326
101327
101326
101326
101326
101326
101326
101326
101326
101326
101326
101326
101326
101326
101677
101327
101328
101326
101328
101326
101327
101326
101327
101326
101327
101326
101326
101326
101326
101326
101326
101326
101326
101326
101326
101326
101326
101351
101326
101328
101326
101327
101326
101327
101326
101327
101326
101326
101326
101326
101326
101326
101326
101326
101326
101326
101326
101326
101326
101326
101326
101326
101327
101326
101327
101326
101327
101326
101326
101326
101326
101326
101326
101326
101326
101326
101326
101326
101326
101326
101326
101326
101326
101326
101326
101327
101326
101327
101326
101326
101326
101326
101326
101326
101326
101326
101326
101326
101326
101326
101326
101326
101326
101326
101326
101326
101326
101326
101326
101326
101326
101326
101326
101326
101326
101326
101326
101326
101326
101326
101326
101326
101326
101326
101326
101326
101326
101326
101326
101326
101325
101326
101325
101326
101325
101326
101325
101326
101326
101326
101326
101326
101326
101326
101326
101326
101326
101326
101326
101326
101326
101326
101325
101325
101324
101324
101325
101325
101325
101325
101326
101326
101326
101326
101326
101326
101326
101326
101326
101326
101326
101326
101326
101326
101326
101324
101324
101323
101323
101324
101324
101325
101325
101325
101325
101326
101326
101326
101326
101326
101326
101326
101326
101326
101326
101326
101326
101326
101324
101323
101322
101322
101323
101324
101324
101325
101325
101325
101326
101326
101326
101326
101326
101326
101326
101326
101326
101326
101326
101326
101325
101323
101323
101322
101322
101323
101324
101324
101325
101325
101325
101325
101326
101326
101326
101326
101326
101326
101326
101326
101326
101325
101325
101325
101324
101323
101323
101323
101323
101324
101324
101325
101325
101325
101325
101326
101326
101326
101326
101326
101326
101326
101325
101325
101325
101325
101325
101324
101324
101324
101324
101324
101324
101325
101325
101325
101325
101325
101326
101326
101326
101326
101326
101325
101325
101325
101325
101325
101325
101325
101325
101325
101324
101325
101325
101325
101325
101325
101325
101325
101326
101326
101326
101325
101325
101325
101325
101325
101325
101325
101325
101325
101325
101325
101325
101325
101325
101325
101325
101325
101325
101325
101326
101326
101326
101326
101325
101325
101325
101325
101325
101325
101325
101325
101325
101325
101326
101326
101326
101326
101325
101325
101325
101326
101326
101326
101326
101326
101325
101325
101325
101325
101325
101325
101325
101325
101325
101325
101325
101326
101326
101326
101326
101326
101326
101326
101326
101326
101326
101326
101326
101325
101325
101325
101325
101325
101325
101325
101325
101325
101325
101325
101326
101326
101326
101326
101326
101326
101326
101326
101326
101326
101326
101325
101325
101325
101325
101325
101325
101325
101325
101325
101325
101325
101325
101326
101326
101326
101326
101326
101326
101326
101326
101326
101326
101326
101325
101325
101325
101325
101325
101325
101325
101325
101325
101325
101325
101325
101326
101326
101326
101326
101326
101326
101326
101326
101326
101325
101325
101325
101325
101325
101325
101325
101325
101325
101325
101325
101325
101325
101325
101326
101326
101326
101326
101326
101326
101326
101326
101326
101326
101325
101325
101325
101325
101325
101325
101325
101325
101325
101325
101325
101325
101325
101325
101325
101325
101325
101325
101325
101325
101325
101325
101325
101325
101325
101325
101325
101325
101325
101325
101325
101325
101325
101325
101325
101325
101325
101325
101325
101325
101325
101325
101325
101325
101325
101325
101325
101325
101325
101325
101325
101325
101325
101325
101325
101325
101325
101325
101325
101325
101325
101325
101325
101325
101325
101325
101325
101325
101325
101325
101325
101325
101325
101325
101325
101325
101325
101325
101325
101325
101325
101325
101325
101325
101325
101325
101325
101325
101325
101325
101325
101325
101325
101325
101325
101325
101325
101325
101325
101325
101325
101325
101325
101325
101325
102093
102116
102027
101983
102169
102037
102022
102049
102002
101996
102146
102154
102018
102214
102235
102191
102248
102266
102298
102169
102386
102408
102330
101902
102507
101960
101559
101390
102007
101356
101321
101321
101545
101405
101360
101359
101515
101393
101393
101385
101733
101542
101424
101453
101690
101576
101461
101473
101353
101361
101357
101355
101326
101327
101328
101329
101327
101327
101327
101326
101327
101327
101326
101326
101326
101326
101326
101326
101326
101326
101326
101326
101326
101326
101326
101326
101326
101326
101326
101326
101326
101326
101326
101326
101326
101326
101326
101326
101326
101326
101326
101326
101326
101326
101326
101326
101326
101326
101326
101326
101325
101325
101325
101325
101325
101325
101325
101325
101325
101325
101325
101325
101325
101325
101325
101325
101325
101325
101325
101325
101325
101325
101325
101325
101325
101325
101325
101325
101325
101325
101325
101325
101325
101325
101325
101325
101325
101325
101325
101325
101325
101325
101325
101325
101325
101325
101325
101325
101325
101325
101325
101325
101325
101325
101325
101325
101325
101325
101325
101325
101325
101325
101325
101325
101325
101325
101325
101325
102040
101730
101701
101620
101585
101592
101938
101815
101527
101649
101850
101851
101721
101640
101759
101938
101905
101806
101748
102060
101813
101681
101668
101590
101701
101988
101584
101485
101511
101827
101860
101796
101788
101764
101721
101544
101438
101406
102054
101839
102096
102162
102104
102175
101967
101487
101493
101576
101584
101414
101334
101333
101344
101333
101331
101331
101331
102003
101886
102219
102182
102176
102201
102149
101621
101441
101413
101446
101351
101333
101333
101332
101332
101331
101331
101331
101852
101636
101657
101479
101532
101685
101869
102013
102031
101932
101698
101389
101339
101333
101331
101331
101331
101331
101331
101534
101324
101336
101337
101340
101331
101330
101454
101425
101348
101350
101384
101373
101357
101338
101332
101331
101331
101330
101336
101323
101325
101345
101359
101332
101328
101328
101329
101328
101328
101328
101370
101373
101369
101335
101330
101330
101330
101320
101322
101320
101375
101375
101328
101329
101327
101328
101328
101328
101328
101328
101354
101360
101333
101329
101329
101329
101398
101417
101458
101480
101380
101328
101328
101328
101328
101328
101328
101328
101327
101327
101327
101328
101328
101329
101329
101404
101508
101509
101499
101365
101328
101329
101328
101328
101328
101328
101328
101328
101327
101328
101328
101329
101329
101329
101365
101341
101364
101327
101327
101327
101328
101327
101328
101328
101328
101328
101328
101328
101328
101328
101328
101328
101328
101427
101344
101328
101328
101328
101327
101328
101327
101328
101328
101328
101328
101328
101328
101328
101328
101328
101328
101328
101344
101353
101352
101334
101327
101327
101327
101327
101327
101327
101328
101328
101328
101328
101328
101328
101328
101328
101328
101332
101344
101346
101330
101327
101327
101327
101327
101327
101327
101328
101328
101328
101328
101328
101328
101328
101328
101328
101326
101326
101326
101327
101327
101327
101327
101327
101327
101327
101327
101327
101327
101327
101328
101328
101328
101328
101328
101326
101326
101326
101326
101327
101327
101327
101327
101327
101327
101327
101327
101327
101327
101327
101327
101328
101328
101328
101326
101326
101326
101326
101327
101327
101327
101327
101327
101327
101327
101327
101327
101327
101327
101327
101327
101327
101327
101326
101326
101326
101326
101327
101327
101327
101327
101327
101327
101327
101327
101327
101327
101327
101327
101327
101327
101327
101326
101326
101326
101327
101327
101327
101327
101327
101327
101327
101327
101327
101327
101327
101327
101327
101327
101327
101327
101326
101326
101326
101326
101327
101327
101327
101327
101327
101327
101327
101327
101327
101327
101327
101327
101327
101327
101327
101326
101326
101326
101326
101326
101326
101327
101327
101327
101327
101327
101327
101327
101327
101327
101327
101327
101327
101327
101326
101326
101326
101326
101326
101326
101326
101326
101327
101327
101327
101327
101327
101327
101327
101327
101327
101327
101327
101326
101326
101326
101326
101326
101326
101326
101326
101326
101326
101327
101327
101327
101327
101327
101327
101327
101327
101327
101326
101326
101326
101326
101326
101326
101326
101326
101326
101326
101326
101326
101327
101327
101327
101327
101327
101327
101327
101326
101326
101326
101326
101326
101326
101326
101326
101326
101326
101326
101326
101326
101327
101327
101327
101327
101327
101327
101325
101325
101325
101325
101325
101326
101326
101326
101326
101326
101326
101326
101326
101327
101327
101327
101327
101327
101327
101325
101325
101325
101325
101325
101325
101326
101326
101326
101326
101326
101326
101326
101326
101327
101327
101327
101327
101327
101325
101325
101325
101325
101325
101325
101325
101326
101326
101326
101326
101326
101326
101326
101326
101327
101327
101327
101327
101325
101325
101325
101325
101325
101325
101325
101325
101326
101326
101326
101326
101326
101326
101326
101327
101326
101327
101327
101325
101325
101325
101325
101325
101325
101325
101325
101325
101326
101326
101326
101326
101326
101326
101327
101326
101327
101327
101325
101325
101325
101325
101325
101325
101325
101325
101325
101326
101326
101326
101326
101326
101326
101327
101326
101326
101326
101325
101325
101325
101325
101325
101325
101325
101325
101325
101325
101326
101326
101326
101326
101326
101326
101326
101326
101326
101325
101325
101325
101325
101325
101325
101325
101325
101325
101325
101326
101326
101326
101326
101326
101326
101326
101326
101326
101325
101325
101325
101325
101325
101325
101325
101325
101325
101325
101325
101326
101326
101326
101326
101326
101326
101326
101326
101325
101325
101325
101325
101325
101325
101325
101325
101325
101325
101325
101326
101326
101326
101326
101326
101326
101326
101326
101325
101325
101325
101325
101325
101325
101325
101325
101325
101325
101325
101325
101326
101326
101326
101326
101326
101326
101326
101325
101325
101325
101325
101325
101325
101325
101325
101325
101325
101325
101325
101326
101326
101326
101326
101326
101326
101326
101325
101325
101325
101325
101325
101325
101325
101325
101325
101325
101325
101325
101325
101326
101326
101326
101326
101326
101326
101325
101325
101325
101325
101325
101325
101325
101325
101325
101325
101325
101325
101325
101325
101326
101326
101326
101326
101326
101325
101325
101325
101325
101325
101325
101325
101325
101325
101325
101325
101325
101325
101325
101325
101326
101326
101326
101326
101325
101325
101325
101325
101325
101325
101325
101325
101325
101325
101325
101325
101325
101325
101325
101325
101325
101325
101325
101325
101325
101325
101325
101325
101325
101325
101325
101325
101325
101325
101325
101325
101325
101325
101325
101325
101325
101325
)
;

boundaryField
{
    leftWall
    {
        type            zeroGradient;
    }
    rightWall
    {
        type            zeroGradient;
    }
    lowerWall
    {
        type            zeroGradient;
    }
    atmosphere
    {
        type            fixedValue;
        value           uniform 101325;
    }
    defaultFaces
    {
        type            empty;
    }
}


// ************************************************************************* //
