/*--------------------------------*- C++ -*----------------------------------*\
| =========                 |                                                 |
| \\      /  F ield         | OpenFOAM: The Open Source CFD Toolbox           |
|  \\    /   O peration     | Version:  2012                                  |
|   \\  /    A nd           | Website:  www.openfoam.com                      |
|    \\/     M anipulation  |                                                 |
\*---------------------------------------------------------------------------*/
FoamFile
{
    version     2.0;
    format      ascii;
    class       surfaceScalarField;
    location    "0.96";
    object      phi;
}
// * * * * * * * * * * * * * * * * * * * * * * * * * * * * * * * * * * * * * //

dimensions      [0 3 -1 0 0 0 0];
oriented        oriented;


internalField   nonuniform List<scalar> 
4432
(
4.50491e-09
-4.50559e-09
-1.29525e-07
1.34029e-07
-4.94981e-07
3.65455e-07
-1.14349e-06
6.48509e-07
-2.00256e-06
8.59068e-07
-3.09348e-06
1.09092e-06
-4.15755e-06
1.06407e-06
-5.10859e-06
9.51033e-07
-5.58794e-06
4.7935e-07
-5.51971e-06
-6.82349e-08
-4.86748e-06
-6.52238e-07
-3.7796e-06
-1.08788e-06
-2.31206e-06
-1.46755e-06
-6.77016e-07
-1.63505e-06
1.11788e-06
-1.7949e-06
3.01929e-06
-1.90142e-06
4.85075e-06
-1.83147e-06
6.34329e-06
-1.49255e-06
7.22102e-06
-8.77738e-07
7.3625e-06
-1.41483e-07
5.66712e-06
1.69537e-06
3.42743e-06
2.23969e-06
3.42741e-06
3.22516e-08
-3.6758e-08
-1.11859e-07
2.78139e-07
-4.6493e-07
7.18524e-07
-1.08205e-06
1.26563e-06
-1.92121e-06
1.69823e-06
-3.04359e-06
2.21329e-06
-4.17219e-06
2.19267e-06
-5.17729e-06
1.95613e-06
-5.70259e-06
1.00464e-06
-5.63952e-06
-1.31307e-07
-4.9685e-06
-1.32327e-06
-3.87667e-06
-2.17972e-06
-2.38062e-06
-2.96359e-06
-6.93265e-07
-3.32241e-06
1.17051e-06
-3.65868e-06
3.10292e-06
-3.83383e-06
4.98263e-06
-3.71119e-06
6.55633e-06
-3.06625e-06
7.44264e-06
-1.76406e-06
7.50159e-06
-2.00445e-07
5.88432e-06
3.31264e-06
3.4028e-06
4.7212e-06
6.83018e-06
4.72582e-08
-8.40171e-08
-1.6342e-09
3.27031e-07
-3.21348e-07
1.03824e-06
-9.89778e-07
1.93406e-06
-1.93724e-06
2.64568e-06
-3.17081e-06
3.44686e-06
-4.38014e-06
3.402e-06
-5.43434e-06
3.01033e-06
-5.94409e-06
1.51439e-06
-5.87682e-06
-1.98584e-07
-5.18282e-06
-2.01727e-06
-4.01824e-06
-3.34431e-06
-2.41575e-06
-4.56609e-06
-6.7003e-07
-5.06813e-06
1.2851e-06
-5.61382e-06
3.26934e-06
-5.81808e-06
5.21901e-06
-5.66087e-06
6.8908e-06
-4.73805e-06
7.87813e-06
-2.75139e-06
8.19282e-06
-5.15145e-07
6.67662e-06
4.82884e-06
3.77002e-06
7.62778e-06
1.06002e-05
1.77384e-07
-2.61402e-07
1.91174e-07
3.1324e-07
-6.23635e-08
1.29177e-06
-7.02705e-07
2.5744e-06
-1.67781e-06
3.62078e-06
-3.01971e-06
4.78876e-06
-4.41113e-06
4.79342e-06
-5.64759e-06
4.24679e-06
-6.29882e-06
2.16562e-06
-6.285e-06
-2.12414e-07
-5.56509e-06
-2.73718e-06
-4.33939e-06
-4.57002e-06
-2.66609e-06
-6.2394e-06
-8.40211e-07
-6.89402e-06
1.22655e-06
-7.68058e-06
3.31507e-06
-7.90661e-06
5.4395e-06
-7.7853e-06
7.33163e-06
-6.63018e-06
8.61933e-06
-4.0391e-06
9.13156e-06
-1.02738e-06
7.54002e-06
6.42037e-06
3.97577e-06
1.1192e-05
1.45759e-05
2.02399e-07
-4.63802e-07
3.48734e-07
1.66905e-07
1.17286e-07
1.52322e-06
-5.82979e-07
3.27466e-06
-1.7078e-06
4.7456e-06
-3.23298e-06
6.31394e-06
-4.76297e-06
6.32341e-06
-6.1329e-06
5.61671e-06
-6.81204e-06
2.84475e-06
-6.78861e-06
-2.3584e-07
-6.00198e-06
-3.52382e-06
-4.62434e-06
-5.94766e-06
-2.76768e-06
-8.09607e-06
-7.97051e-07
-8.86465e-06
1.47774e-06
-9.95537e-06
3.71115e-06
-1.014e-05
5.8889e-06
-9.96306e-06
7.76107e-06
-8.50236e-06
9.50115e-06
-5.77919e-06
1.07808e-05
-2.307e-06
9.32125e-06
7.87987e-06
5.52847e-06
1.49848e-05
2.01043e-05
4.40715e-07
-9.04518e-07
6.53484e-07
-4.58647e-08
5.45847e-07
1.63086e-06
-1.41427e-07
3.96194e-06
-1.32526e-06
5.92944e-06
-2.9953e-06
7.98398e-06
-4.84043e-06
8.16854e-06
-6.56119e-06
7.33747e-06
-7.5122e-06
3.79577e-06
-7.55694e-06
-1.91104e-07
-6.68379e-06
-4.39698e-06
-5.18637e-06
-7.44508e-06
-3.23032e-06
-1.00521e-05
-1.09448e-06
-1.10005e-05
1.3134e-06
-1.23633e-05
3.62381e-06
-1.24504e-05
5.90703e-06
-1.22463e-05
7.9468e-06
-1.05421e-05
9.93792e-06
-7.77033e-06
1.12652e-05
-3.63426e-06
9.56741e-06
9.57763e-06
5.21077e-06
1.93414e-05
2.53151e-05
6.53099e-07
-1.55762e-06
1.17116e-06
-5.63922e-07
1.08747e-06
1.71454e-06
3.4349e-07
4.70592e-06
-1.11658e-06
7.3895e-06
-3.19124e-06
1.00586e-05
-5.29385e-06
1.02711e-05
-7.26365e-06
9.30727e-06
-8.32928e-06
4.86139e-06
-8.3635e-06
-1.5689e-07
-7.40016e-06
-5.36032e-06
-5.69585e-06
-9.14939e-06
-3.40514e-06
-1.23429e-05
-9.84045e-07
-1.34216e-05
1.60473e-06
-1.4952e-05
3.79759e-06
-1.46433e-05
5.64032e-06
-1.4089e-05
6.68029e-06
-1.15821e-05
8.18727e-06
-9.2775e-06
1.05041e-05
-5.95122e-06
9.8936e-06
1.01882e-05
6.26692e-06
2.29681e-05
3.1582e-05
6.25819e-07
-2.18344e-06
1.21745e-06
-1.15555e-06
1.52117e-06
1.41082e-06
8.39271e-07
5.38782e-06
-6.53985e-07
8.88276e-06
-2.82794e-06
1.22326e-05
-5.44446e-06
1.28877e-05
-8.04794e-06
1.19107e-05
-9.50764e-06
6.32109e-06
-9.54014e-06
-1.24393e-07
-8.36371e-06
-6.53676e-06
-6.39431e-06
-1.11188e-05
-3.95545e-06
-1.47817e-05
-1.72666e-06
-1.56504e-05
4.17278e-07
-1.7096e-05
2.33939e-06
-1.65657e-05
4.21327e-06
-1.59643e-05
4.6059e-06
-1.19864e-05
4.14569e-06
-8.84397e-06
5.66327e-06
-7.48589e-06
6.60852e-06
9.2429e-06
5.05889e-06
2.45177e-05
3.66409e-05
-0.000104806
0.000104578
-0.00013052
2.57017e-05
-0.000132994
2.47219e-06
-0.00012153
-1.14468e-05
-0.000104999
-1.65156e-05
-7.90848e-05
-2.58977e-05
-4.28439e-05
-3.62389e-05
-1.13904e-05
-3.14528e-05
8.76461e-06
-2.01538e-05
2.0439e-05
-1.16735e-05
2.19653e-05
-1.51847e-06
-1.40206e-06
2.33665e-05
-3.53637e-05
3.39607e-05
-5.3719e-05
1.8355e-05
-5.96864e-05
5.96782e-06
-5.81764e-05
-1.50917e-06
-4.71684e-05
-1.10063e-05
-2.49294e-05
-2.22379e-05
-2.49291e-05
-7.35107e-05
0.00017819
-0.000115236
6.7484e-05
-0.000125415
1.26619e-05
-0.000105399
-3.14054e-05
-8.11087e-05
-4.07554e-05
-5.64099e-05
-5.05449e-05
-3.07752e-05
-6.18715e-05
-9.64123e-06
-5.25863e-05
4.87894e-06
-3.46729e-05
1.23568e-05
-1.91509e-05
1.87472e-05
-7.90789e-06
9.98573e-06
3.21289e-05
-1.82929e-05
6.22401e-05
-3.9367e-05
3.94296e-05
-4.52896e-05
1.18976e-05
-4.33533e-05
-3.43695e-06
-3.08802e-05
-2.34629e-05
-1.40179e-05
-3.90967e-05
-3.89467e-05
-5.16797e-06
0.000183519
-5.05716e-05
0.00011297
-6.76416e-05
2.97387e-05
-4.8731e-05
-5.02661e-05
-3.99742e-05
-4.94634e-05
-3.34625e-05
-5.69929e-05
-2.10904e-05
-7.42414e-05
-7.9714e-06
-6.57052e-05
2.79802e-06
-4.54414e-05
1.05721e-05
-2.69247e-05
1.74765e-05
-1.48116e-05
2.40808e-05
2.55248e-05
1.72071e-05
6.91154e-05
9.47398e-07
5.56949e-05
-1.4321e-05
2.71708e-05
-2.35207e-05
5.77574e-06
-1.3534e-05
-3.34257e-05
-7.00163e-07
-5.19175e-05
-3.96466e-05
2.50715e-05
0.000158363
9.11491e-06
0.00012903
-2.3672e-05
6.2541e-05
-2.6832e-05
-4.70591e-05
-2.71413e-05
-4.9156e-05
-2.40583e-05
-6.00743e-05
-1.65828e-05
-8.17164e-05
-7.70827e-06
-7.45796e-05
7.84843e-07
-5.39338e-05
7.08115e-06
-3.32209e-05
1.07695e-05
-1.84989e-05
2.25127e-05
1.37818e-05
3.58674e-05
5.57615e-05
3.86937e-05
5.28688e-05
3.41589e-05
3.17057e-05
2.18761e-05
1.80737e-05
1.20249e-05
-2.35473e-05
8.63787e-06
-4.85302e-05
-3.10085e-05
2.40883e-05
0.000134305
4.33937e-05
0.000109773
3.63587e-05
6.96041e-05
-8.56892e-07
-9.81913e-06
-2.33482e-05
-2.66608e-05
-2.14503e-05
-6.19829e-05
-1.52679e-05
-8.78984e-05
-9.03131e-06
-8.08159e-05
-2.21674e-06
-6.0749e-05
3.75464e-06
-3.92231e-05
8.57643e-06
-2.33299e-05
1.99642e-05
2.40701e-06
3.45725e-05
4.1166e-05
3.99862e-05
4.74543e-05
3.69161e-05
3.47757e-05
3.26555e-05
2.23488e-05
2.37219e-05
-1.4596e-05
1.25873e-05
-3.73949e-05
-1.84211e-05
1.85398e-05
0.000115763
4.64265e-05
8.19516e-05
7.50619e-05
4.09944e-05
2.97501e-05
3.55235e-05
-2.4128e-05
2.72335e-05
-2.08131e-05
-6.52486e-05
-1.63979e-05
-9.23139e-05
-1.33935e-05
-8.38209e-05
-1.50097e-05
-5.91872e-05
-1.51743e-05
-3.90811e-05
-3.36302e-06
-3.51189e-05
2.04978e-05
-2.14494e-05
3.67333e-05
2.49918e-05
3.82677e-05
4.59251e-05
3.23763e-05
4.06655e-05
2.80066e-05
2.67275e-05
2.08714e-05
-7.45932e-06
1.05725e-05
-2.70957e-05
-7.8485e-06
9.52355e-06
0.000106209
3.88665e-05
5.26785e-05
3.87493e-05
4.11273e-05
6.97161e-06
6.73019e-05
-1.51558e-05
4.93837e-05
-1.86473e-05
-6.17097e-05
-1.75653e-05
-9.33939e-05
-1.89634e-05
-8.2434e-05
-4.20833e-05
-3.60698e-05
-5.44448e-05
-2.67599e-05
-4.62039e-05
-4.32847e-05
-1.87173e-05
-4.88733e-05
1.98276e-05
-1.3537e-05
2.92411e-05
3.65754e-05
2.14821e-05
4.84107e-05
1.82613e-05
2.99466e-05
1.17328e-05
-9.29885e-07
4.13842e-06
-1.95008e-05
-3.70982e-06
-2.46897e-06
0.000108672
4.06983e-06
4.61066e-05
4.2481e-06
4.09304e-05
1.02175e-05
6.13329e-05
2.88852e-06
5.67325e-05
-9.8611e-06
-4.8926e-05
-1.72951e-05
-8.59432e-05
-2.80556e-05
-7.17065e-05
-5.33071e-05
-1.08179e-05
-6.32006e-05
-1.67798e-05
-5.96481e-05
-4.67854e-05
-5.4217e-05
-5.43078e-05
-2.61046e-05
-4.16357e-05
5.21829e-07
9.9776e-06
4.67062e-06
4.42933e-05
5.20491e-06
2.94141e-05
2.1181e-06
2.15935e-06
-2.20204e-06
-1.51798e-05
-5.91084e-06
2.97515e-06
-5.15859e-06
5.51481e-06
-3.69521e-06
5.9573e-06
9.6833e-07
4.20763e-06
7.13749e-06
-4.626e-07
1.3553e-05
-7.0236e-06
1.87936e-05
-1.33882e-05
1.92523e-05
-1.97954e-05
1.83179e-05
-2.32217e-05
9.74741e-06
-2.30994e-05
-2.4668e-07
-2.02961e-05
-9.34013e-06
-1.58754e-05
-1.55395e-05
-1.13628e-05
-1.92946e-05
-7.93991e-06
-1.90753e-05
-2.78407e-06
-2.22688e-05
3.29803e-06
-2.27281e-05
3.32354e-06
-1.61594e-05
-1.31679e-05
4.28147e-06
-1.47045e-05
-7.63654e-06
7.82873e-07
-2.31734e-05
1.22937e-05
-2.41139e-06
2.12544e-05
1.55241e-05
3.2138e-05
2.57556e-05
3.96951e-06
-9.1281e-06
9.34765e-06
-9.07335e-06
1.26052e-05
-2.28917e-06
1.03054e-05
9.43724e-06
5.78597e-06
1.80724e-05
-8.94614e-07
2.54742e-05
-1.15995e-05
2.99572e-05
-2.42204e-05
3.09388e-05
-3.2084e-05
1.7611e-05
-3.35309e-05
1.19707e-06
-3.08637e-05
-1.20181e-05
-2.50171e-05
-2.14053e-05
-1.822e-05
-2.61595e-05
-1.19694e-05
-2.5459e-05
-3.41361e-06
-3.1077e-05
-6.82011e-05
4.17348e-05
-0.000117962
3.33556e-05
-8.89163e-05
-2.50115e-05
-2.80889e-05
-6.87252e-05
7.04658e-06
-5.84562e-05
1.92071e-05
-1.48314e-05
1.46311e-05
1.99179e-05
3.3603e-05
1.31565e-05
4.45029e-06
-1.35784e-05
1.0666e-05
-1.52891e-05
1.40536e-05
-5.6767e-06
1.19122e-05
1.15786e-05
9.64997e-06
2.0335e-05
9.45223e-06
2.5687e-05
1.0917e-06
3.83626e-05
-2.09973e-05
5.30335e-05
-4.30012e-05
3.96078e-05
-5.36913e-05
1.18547e-05
-5.07526e-05
-1.50094e-05
-3.01031e-05
-4.23223e-05
3.01269e-05
-8.65728e-05
8.3056e-05
-7.86664e-05
4.70953e-05
4.66475e-06
-0.000126342
0.000214972
-0.00010243
9.20245e-06
-3.4422e-05
-9.32112e-05
-6.23086e-06
-9.67857e-05
1.51509e-05
-7.98193e-05
2.73038e-05
-2.70681e-05
1.64261e-05
3.07121e-05
5.29779e-05
-2.99887e-06
2.53354e-06
-1.61119e-05
1.58569e-06
-1.43412e-05
-2.46847e-06
-1.62087e-06
4.32217e-06
4.82685e-06
1.8434e-05
6.36244e-06
3.52216e-05
9.0322e-06
3.26375e-05
4.11005e-05
-3.58092e-06
8.93991e-05
-3.7932e-05
7.40716e-05
-5.90261e-05
3.28855e-05
-8.15249e-05
7.10698e-06
-6.13051e-05
-6.29464e-05
-3.6045e-05
-0.000112075
1.2401e-05
-0.000127169
1.77343e-05
-8.96291e-07
-0.000103566
0.000336061
-3.84629e-05
-5.6095e-05
-3.34028e-05
-9.80125e-05
-3.08667e-05
-9.93323e-05
-2.38584e-05
-8.68338e-05
-1.86761e-05
-3.22613e-05
-2.70629e-05
3.90346e-05
8.36885e-05
-5.78171e-05
-1.30737e-05
-3.03818e-06
-3.02175e-05
2.80342e-06
-4.68544e-05
1.49147e-05
-4.98177e-05
7.91087e-06
-3.22713e-05
-1.10917e-05
1.48846e-06
-2.46899e-05
2.46438e-05
1.80601e-05
-3.97452e-05
0.000153922
-0.000137941
0.000172537
-0.000197108
9.19724e-05
-0.000184017
-6.01538e-06
-0.000155377
-9.15185e-05
-0.000152538
-0.000114998
-0.000156338
-0.000123661
-0.000105187
-5.23734e-05
-8.34216e-05
0.000314135
-7.59415e-05
-6.34519e-05
-8.0346e-05
-9.35108e-05
-8.06768e-05
-9.90068e-05
-8.45266e-05
-8.29895e-05
-9.31591e-05
-2.36444e-05
-0.000102226
4.80659e-05
9.68201e-05
-0.000115327
-3.33947e-05
3.03568e-05
-7.20513e-05
4.13601e-05
-0.00012065
6.35443e-05
-0.000148353
3.56804e-05
-0.000151456
-7.95196e-06
-0.000138995
-3.72284e-05
-9.98375e-05
-2.11324e-05
-0.000157585
0.000211718
-0.000274753
0.000289923
-0.000258282
7.5761e-05
-0.00019461
-6.93803e-05
-0.000172855
-0.000113405
-0.000161501
-0.000126492
-0.000160384
-0.000125099
-0.000144025
-6.91166e-05
-0.000115396
0.000285652
-0.000114568
-6.3742e-05
-0.000118165
-8.99048e-05
-0.000123247
-9.39253e-05
-0.000134245
-7.19896e-05
-0.000145311
-1.25818e-05
-0.000146364
4.91021e-05
8.98376e-05
-0.000139411
-4.1388e-05
7.17439e-05
-9.14744e-05
9.12042e-05
-0.00017652
0.000148723
-0.000228637
8.78306e-05
-0.000239506
2.72441e-06
-0.000260313
-1.64522e-05
-0.000326033
4.45846e-05
-0.000364881
0.000250575
-0.000311716
0.000236759
-0.000214921
-2.08564e-05
-0.000186706
-9.72402e-05
-0.000173129
-0.00012724
-0.000160687
-0.000139291
-0.000158183
-0.00012816
-0.000188942
-3.84249e-05
-0.000152218
0.000249022
-0.000140199
-7.52359e-05
-0.000139824
-9.00405e-05
-0.000141925
-9.18388e-05
-0.00014832
-6.55977e-05
-0.000151064
-9.84091e-06
-0.00014749
4.55258e-05
8.43191e-05
-0.000141983
-3.67884e-05
0.000108529
-7.23381e-05
0.000126506
-0.000186521
0.000263071
-0.000237943
0.000139305
-0.000271201
3.60068e-05
-0.000354151
6.64958e-05
-0.000429863
0.000120296
-0.000361314
0.000182028
-0.000218689
9.41416e-05
-0.000187583
-5.19352e-05
-0.000185488
-9.93313e-05
-0.000175486
-0.000137295
-0.000164693
-0.000150222
-0.000224895
-6.79437e-05
-0.000258895
-4.41134e-06
-0.000162907
0.000153097
-0.000159438
-7.85456e-05
-0.000150149
-9.89799e-05
-0.000137131
-0.000105003
-0.000134602
-6.81498e-05
-0.000136727
-7.73515e-06
-0.000134737
4.35638e-05
7.92394e-05
-0.000129733
-2.94349e-05
0.000137959
-4.3136e-05
0.000139979
-0.00014403
0.000363975
-0.000200346
0.000195655
-0.000240507
7.61777e-05
-0.000301852
0.000127841
-0.000295015
0.000113465
-0.000231032
0.000118065
-0.000182693
4.58091e-05
-0.000194561
-4.0072e-05
-0.000191502
-0.000102392
-0.000191858
-0.000136933
-0.000201026
-0.000141051
-0.000219092
-4.98687e-05
-0.000204928
-1.85568e-05
-0.00013471
8.28922e-05
-0.000137446
-7.58195e-05
-0.000130765
-0.000105654
-0.000114336
-0.000121298
-0.000105969
-7.6014e-05
-0.000104732
-8.89736e-06
-0.000101436
4.01704e-05
7.4147e-05
-9.62792e-05
-2.07469e-05
0.000158702
-2.01239e-05
0.000139251
-8.12206e-05
0.000425079
-0.00015569
0.000270134
-0.000175098
9.55945e-05
-0.000175877
0.000128624
-0.0001545
9.20912e-05
-0.000139496
0.000103073
-0.000148487
5.48026e-05
-0.000168214
-2.03445e-05
-0.000155454
-0.000115148
-0.000163876
-0.00012851
-0.000183193
-0.00012173
-0.000169048
-6.40066e-05
-0.000147688
-3.99086e-05
-0.000102615
3.78332e-05
-9.4254e-05
-8.41793e-05
-9.37479e-05
-0.000106153
-8.88332e-05
-0.000126206
-8.79483e-05
-7.68401e-05
-7.82645e-05
-1.81408e-05
-6.42154e-05
2.62735e-05
5.9529e-05
-4.97481e-05
-8.86129e-06
0.000167703
1.82194e-06
0.000129061
-4.18743e-05
0.000468843
-0.000109353
0.000337621
-0.00011462
0.00010087
-0.000105045
0.000119056
-8.33486e-05
7.04037e-05
-6.38816e-05
8.36127e-05
-5.30111e-05
4.3939e-05
-5.55991e-05
-1.77516e-05
-6.62693e-05
-0.000104473
-9.18449e-05
-0.000102929
-0.000115529
-9.80416e-05
-0.000122916
-5.66124e-05
-0.000108607
-5.4212e-05
-6.31291e-05
-7.6372e-06
-6.3564e-05
-8.3739e-05
-7.73288e-05
-9.23832e-05
-9.1107e-05
-0.000112423
-8.57534e-05
-8.21867e-05
-7.05021e-05
-3.334e-05
-5.29889e-05
9.09932e-06
3.50443e-05
-2.84814e-05
-4.72495e-07
0.000169821
-6.87156e-06
0.000135704
-6.75671e-06
0.000468735
-4.34797e-05
0.000374349
-5.63923e-05
0.000113789
-4.40524e-05
0.000106722
-3.00477e-05
5.64053e-05
-7.12258e-06
6.06939e-05
1.03239e-05
2.64981e-05
4.07782e-06
-1.15007e-05
-2.88259e-05
-7.15652e-05
-6.39067e-05
-6.78433e-05
-8.74883e-05
-7.44555e-05
-9.29183e-05
-5.11769e-05
-9.10246e-05
-5.61012e-05
-6.75897e-05
-3.10656e-05
-7.78788e-05
-7.34448e-05
-9.60725e-05
-7.41837e-05
-0.000114559
-9.39318e-05
-0.000116689
-8.00504e-05
-9.76432e-05
-5.23763e-05
-7.11067e-05
-1.73708e-05
7.36872e-06
-4.31539e-05
1.13777e-05
0.000158671
-3.50219e-05
0.000182134
-8.32201e-06
0.000442039
-1.45949e-05
0.000380627
-3.60619e-05
0.000135262
-3.12436e-05
0.000101909
-2.07477e-05
4.59155e-05
-2.60724e-06
4.25589e-05
1.25621e-05
1.13346e-05
6.67949e-06
-5.61286e-06
-2.45652e-05
-4.03155e-05
-4.80912e-05
-4.43119e-05
-6.81372e-05
-5.44046e-05
-7.5737e-05
-4.35715e-05
-8.06912e-05
-5.11418e-05
-7.49727e-05
-3.67784e-05
-8.53682e-05
-6.30439e-05
-9.71366e-05
-6.24096e-05
-0.000114877
-7.61864e-05
-0.000122932
-7.1989e-05
-0.000112911
-6.23917e-05
-8.82017e-05
-4.20723e-05
-1.98011e-05
-6.10021e-05
-1.2346e-05
0.000171032
-7.43462e-05
0.00024414
-3.17815e-05
0.000399484
-1.82202e-05
0.00036707
-2.59269e-05
0.000142976
-1.74388e-05
9.34264e-05
-1.16376e-05
4.01201e-05
-8.35553e-07
3.17619e-05
-4.50892e-07
1.0955e-05
-6.44288e-06
3.83952e-07
-2.67735e-05
-1.99801e-05
-4.32546e-05
-2.78261e-05
-6.10866e-05
-3.65678e-05
-7.05532e-05
-3.40998e-05
-8.0595e-05
-4.1095e-05
-8.14156e-05
-3.59526e-05
-9.28587e-05
-5.15957e-05
-0.000104701
-5.0562e-05
-0.000120028
-6.08536e-05
-0.000130624
-6.13887e-05
-0.000134702
-5.83082e-05
-0.000126834
-4.99355e-05
-3.90411e-05
-0.000107588
-4.53861e-05
0.0002161
-8.21881e-05
0.000280946
-5.31275e-05
0.000370425
-2.90877e-05
0.000343036
-2.23627e-05
0.000136256
-1.40302e-05
8.5099e-05
-1.28129e-05
3.89081e-05
-9.31983e-06
2.82737e-05
-1.46432e-05
1.62837e-05
-1.99541e-05
5.69985e-06
-3.49963e-05
-4.93277e-06
-4.73072e-05
-1.551e-05
-6.20394e-05
-2.18305e-05
-7.11968e-05
-2.49371e-05
-8.14326e-05
-3.0854e-05
-8.73662e-05
-3.00136e-05
-0.000100002
-3.89546e-05
-0.000111338
-3.92208e-05
-0.000127139
-4.50467e-05
-0.000140063
-4.84593e-05
-0.00014904
-4.93267e-05
-0.000149646
-4.93247e-05
-4.79643e-05
-0.000140716
-7.89397e-06
0.000223505
-4.47026e-05
0.000317759
-4.73918e-05
0.000373125
-2.22242e-05
0.000317874
-1.54422e-05
0.00012948
-8.39685e-06
7.80586e-05
-1.49889e-05
4.55052e-05
-1.61949e-05
2.94845e-05
-2.59289e-05
2.60226e-05
-3.18763e-05
1.16519e-05
-4.3132e-05
6.32775e-06
-5.31124e-05
-5.525e-06
-6.50326e-05
-9.9054e-06
-7.43561e-05
-1.56088e-05
-8.53336e-05
-1.98716e-05
-9.3007e-05
-2.23352e-05
-0.000104786
-2.71704e-05
-0.000115137
-2.88651e-05
-0.000128671
-3.15071e-05
-0.0001427
-3.44256e-05
-0.000157294
-3.47271e-05
-0.000169829
-3.67848e-05
-3.84326e-05
-0.000179354
-6.88309e-06
0.000230349
-4.20126e-05
0.000352894
-4.72323e-05
0.000378351
-1.88056e-05
0.000289453
-1.73249e-05
0.000128005
-1.41106e-05
7.4849e-05
-2.41796e-05
5.55792e-05
-2.8575e-05
3.38846e-05
-3.75523e-05
3.50047e-05
-4.30372e-05
1.71416e-05
-5.20332e-05
1.53286e-05
-5.996e-05
2.4067e-06
-6.96645e-05
-1.95996e-07
-7.76982e-05
-7.5701e-06
-8.72847e-05
-1.02801e-05
-9.50174e-05
-1.45975e-05
-0.000105342
-1.68403e-05
-0.00011439
-1.98124e-05
-0.000125684
-2.02078e-05
-0.000138117
-2.19876e-05
-0.0001533
-1.95387e-05
-0.0001705
-1.95797e-05
-1.92888e-05
-0.000189639
-3.25525e-06
0.000233582
-3.28163e-05
0.000382463
-4.08811e-05
0.000386421
-1.53326e-05
0.00026391
-2.14127e-05
0.000134089
-2.28761e-05
7.63169e-05
-3.4353e-05
6.70607e-05
-3.99458e-05
3.94818e-05
-4.80545e-05
4.31181e-05
-5.34915e-05
2.25832e-05
-6.10045e-05
2.28462e-05
-6.80649e-05
9.47172e-06
-7.63172e-05
8.06107e-06
-8.38258e-05
-5.69094e-08
-9.2399e-05
-1.702e-06
-9.98036e-05
-7.18812e-06
-0.000108695
-7.94347e-06
-0.000116679
-1.18238e-05
-0.000125762
-1.11197e-05
-0.0001347
-1.30454e-05
-0.000144087
-1.01458e-05
-0.000154247
-9.41501e-06
-7.05535e-06
-0.000166475
2.01427e-06
0.000231738
-2.46431e-05
0.000409263
-4.4095e-05
0.000405878
-2.39438e-05
0.000243763
-3.37172e-05
0.000143868
-3.84165e-05
8.10204e-05
-4.70118e-05
7.56604e-05
-5.14597e-05
4.3934e-05
-5.71906e-05
4.88535e-05
-6.20134e-05
2.74105e-05
-6.82329e-05
2.90703e-05
-7.44122e-05
1.56556e-05
-8.16237e-05
1.52773e-05
-8.86456e-05
6.96966e-06
-9.65013e-05
6.15849e-06
-0.00010366
-2.46879e-08
-0.00011168
8.09912e-08
-0.000119299
-4.19988e-06
-0.000127957
-2.45711e-06
-0.000136517
-4.47999e-06
-0.000145186
-1.47243e-06
-0.000153117
-1.47851e-06
6.21777e-07
-0.000160789
-1.91187e-05
0.000251578
-4.62837e-05
0.000436435
-6.13493e-05
0.000420946
-4.62912e-05
0.00022871
-5.2525e-05
0.000150106
-5.67628e-05
8.5262e-05
-6.07495e-05
7.96513e-05
-6.3355e-05
4.65437e-05
-6.66417e-05
5.21445e-05
-7.01712e-05
3.09443e-05
-7.4545e-05
3.34485e-05
-7.94727e-05
2.05877e-05
-8.50587e-05
2.08677e-05
-9.07842e-05
1.26997e-05
-9.722e-05
1.2599e-05
-0.000103623
6.38306e-06
-0.000110754
7.21633e-06
-0.000118376
3.42679e-06
-0.000127326
6.49828e-06
-0.000136887
5.08542e-06
-0.000146707
8.3521e-06
-0.000156369
8.18798e-06
1.0082e-05
-0.000165824
-6.17362e-05
0.000313354
-9.28477e-05
0.000467554
-9.0551e-05
0.000418654
-8.02432e-05
0.000218408
-7.76299e-05
0.000147496
-7.72499e-05
8.48859e-05
-7.51888e-05
7.75941e-05
-7.50677e-05
4.64267e-05
-7.555e-05
5.26308e-05
-7.79863e-05
3.33848e-05
-8.11101e-05
3.65766e-05
-8.55537e-05
2.50355e-05
-9.07597e-05
2.60781e-05
-9.63463e-05
1.82907e-05
-0.000102471
1.87288e-05
-0.000108739
1.26552e-05
-0.000115923
1.44046e-05
-0.000123977
1.14851e-05
-0.000133263
1.57894e-05
-0.000143527
1.53533e-05
-0.000154387
1.92168e-05
-0.000166316
2.01225e-05
2.29213e-05
-0.000179151
-8.88512e-05
0.000402207
-0.000124355
0.000503067
-0.000117487
0.000411792
-0.000113722
0.000214649
-0.000103493
0.000137271
-9.59459e-05
7.73422e-05
-8.81245e-05
6.97765e-05
-8.47189e-05
4.30249e-05
-8.20307e-05
4.99465e-05
-8.29102e-05
3.42683e-05
-8.48803e-05
3.85508e-05
-8.87777e-05
2.8937e-05
-9.34359e-05
3.07407e-05
-9.88122e-05
2.36713e-05
-0.000104967
2.48879e-05
-0.000112228
1.9921e-05
-0.000121591
2.37719e-05
-0.000132652
2.25506e-05
-0.000144281
2.74229e-05
-0.000156027
2.71037e-05
-0.000168117
3.13115e-05
-0.000181285
3.32951e-05
3.63656e-05
-0.000194724
-9.10461e-05
0.000493254
-0.00013293
0.000544959
-0.0001373
0.000416167
-0.000140791
0.000218144
-0.000127052
0.000123535
-0.000111987
6.22815e-05
-9.88542e-05
5.66467e-05
-9.3077e-05
3.72515e-05
-8.84735e-05
4.53467e-05
-8.83484e-05
3.41471e-05
-8.92962e-05
3.95025e-05
-9.25355e-05
3.21803e-05
-9.68214e-05
3.50308e-05
-0.00010237
2.92238e-05
-0.00010951
3.20323e-05
-0.00011856
2.89748e-05
-0.000129833
3.50492e-05
-0.000142498
3.52197e-05
-0.000154815
3.97453e-05
-0.00016686
3.91523e-05
-0.000178986
4.34423e-05
-0.000191201
4.55144e-05
4.70441e-05
-0.000201875
-8.31374e-05
0.000576393
-0.000130643
0.000592473
-0.000149691
0.000435222
-0.000158724
0.00022718
-0.000142951
0.000107764
-0.000121943
4.12779e-05
-0.000103849
3.85553e-05
-9.51604e-05
2.85665e-05
-8.94377e-05
3.96276e-05
-8.8998e-05
3.37111e-05
-9.02028e-05
4.07113e-05
-9.37137e-05
3.56951e-05
-9.86425e-05
3.99638e-05
-0.000105122
3.57075e-05
-0.000114056
4.09705e-05
-0.00012554
4.04624e-05
-0.000137762
4.72756e-05
-0.000149431
4.68933e-05
-0.000159612
4.99299e-05
-0.000169837
4.93818e-05
-0.000179982
5.35912e-05
-0.000189317
5.48537e-05
5.43406e-05
-0.000196609
-7.6588e-05
0.000652984
-0.000121735
0.000637627
-0.000150292
0.000463786
-0.000163378
0.000240269
-0.000147692
9.20804e-05
-0.00012359
1.71793e-05
-0.000103615
1.85837e-05
-9.39959e-05
1.8951e-05
-8.87466e-05
3.43817e-05
-8.85796e-05
3.35479e-05
-9.06921e-05
4.28275e-05
-9.50339e-05
4.00407e-05
-0.000101117
4.60509e-05
-0.000109404
4.39982e-05
-0.000120038
5.16083e-05
-0.000132466
5.28945e-05
-0.000143838
5.86516e-05
-0.000153725
5.67847e-05
-0.000161729
5.79377e-05
-0.000169346
5.70029e-05
-0.00017583
6.00796e-05
-0.000181104
6.01315e-05
5.7426e-05
-0.000184185
-5.33575e-05
0.000706347
-9.19208e-05
0.000676199
-0.000126513
0.000498384
-0.000145419
0.000259177
-0.000132828
7.94905e-05
-0.000109945
-5.69964e-06
-9.2368e-05
1.01016e-06
-8.46149e-05
1.12014e-05
-8.19327e-05
3.17029e-05
-8.36143e-05
3.52331e-05
-8.75039e-05
4.67208e-05
-9.35732e-05
4.61139e-05
-0.000101433
5.39148e-05
-0.000112159
5.47275e-05
-0.000124113
6.35662e-05
-0.000135799
6.45849e-05
-0.000144643
6.74989e-05
-0.000151761
6.39069e-05
-0.000157261
6.34412e-05
-0.000162313
6.2059e-05
-0.00016566
6.34313e-05
-0.000166981
6.14557e-05
5.57001e-05
-0.000165251
-1.3493e-05
0.000719846
-3.30838e-05
0.000695796
-6.38904e-05
0.000529196
-9.05454e-05
0.000285834
-9.06168e-05
7.95631e-05
-7.97093e-05
-1.6604e-05
-7.21843e-05
-6.51133e-06
-7.07744e-05
9.79491e-06
-7.27794e-05
3.37113e-05
-7.80671e-05
4.05244e-05
-8.46708e-05
5.33282e-05
-9.33472e-05
5.47939e-05
-0.00010344
6.40111e-05
-0.000115987
6.72777e-05
-0.000127948
7.55316e-05
-0.000137987
7.46273e-05
-0.000144347
7.38632e-05
-0.000148641
6.82045e-05
-0.000151478
6.62813e-05
-0.000153502
6.4087e-05
-0.000153242
6.31749e-05
-0.000149841
5.80581e-05
4.844e-05
-0.000142577
1.79338e-05
0.000701916
3.51299e-05
0.000678606
2.6619e-05
0.000537712
-1.68272e-06
0.00031414
-2.12854e-05
9.91692e-05
-3.27659e-05
-5.12019e-06
-4.04874e-05
1.21392e-06
-4.91138e-05
1.84248e-05
-5.79012e-05
4.25023e-05
-6.78917e-05
5.05185e-05
-7.78952e-05
6.33353e-05
-8.93811e-05
6.62834e-05
-0.000101784
7.64178e-05
-0.000115324
8.08213e-05
-0.000126675
8.68862e-05
-0.000135202
8.31576e-05
-0.000139747
7.84121e-05
-0.000142763
7.12233e-05
-0.000144613
6.81354e-05
-0.000144192
6.36697e-05
-0.00014018
5.91655e-05
-0.000132344
5.02266e-05
3.73616e-05
-0.000121262
3.37645e-05
0.000668153
7.19645e-05
0.000640409
8.86597e-05
0.000521021
7.14493e-05
0.000331356
4.30528e-05
0.000127569
1.30876e-05
2.48488e-05
-9.95354e-06
2.42587e-05
-2.9438e-05
3.79128e-05
-4.52307e-05
5.82984e-05
-6.02081e-05
6.54994e-05
-7.38668e-05
7.69976e-05
-8.8241e-05
8.06609e-05
-0.000102592
9.07721e-05
-0.000116183
9.44156e-05
-0.000126293
9.69997e-05
-0.000132679
8.95471e-05
-0.000135432
8.11678e-05
-0.000137459
7.32543e-05
-0.000137262
6.7941e-05
-0.000133689
6.01005e-05
-0.000126157
5.1637e-05
-0.000115366
3.94382e-05
2.52261e-05
-0.000103227
4.26289e-05
0.000625527
8.76244e-05
0.000595416
0.000113398
0.000495252
0.000109936
0.000334821
8.59043e-05
0.000151603
4.90538e-05
6.17031e-05
1.66534e-05
5.66631e-05
-1.03565e-05
6.49261e-05
-3.14828e-05
7.94281e-05
-5.04068e-05
8.44267e-05
-6.70535e-05
9.36477e-05
-8.38129e-05
9.74235e-05
-9.95113e-05
0.000106474
-0.000113151
0.000108058
-0.000122414
0.000106266
-0.000127273
9.4409e-05
-0.000129696
8.35949e-05
-0.000131015
7.45759e-05
-0.000128701
6.56303e-05
-0.000122915
5.4318e-05
-0.000113522
4.22468e-05
-0.000102248
2.81673e-05
1.36185e-05
-9.06375e-05
4.30122e-05
0.000582517
8.88529e-05
0.000549577
0.00011886
0.00046525
0.000127064
0.000326618
0.000107813
0.000170857
6.79923e-05
0.000101528
3.07897e-05
9.38694e-05
-5.06005e-07
9.62251e-05
-2.51505e-05
0.000104076
-4.69635e-05
0.000106243
-6.57826e-05
0.00011247
-8.40917e-05
0.000115735
-0.000100248
0.000122633
-0.000112903
0.000120716
-0.000119558
0.000112924
-0.000122617
9.74708e-05
-0.00012422
8.52005e-05
-0.000123152
7.35111e-05
-0.000118284
6.07646e-05
-0.000110633
4.667e-05
-0.000100698
3.23147e-05
-9.00571e-05
1.75297e-05
2.71433e-06
-7.91501e-05
3.9701e-05
0.000542817
8.41987e-05
0.00050508
0.000119294
0.000430154
0.000133653
0.000312261
0.000115648
0.000188865
7.59617e-05
0.000141219
3.87444e-05
0.00013109
6.83404e-06
0.000128139
-1.89558e-05
0.000129869
-4.19285e-05
0.000129219
-6.20892e-05
0.000132634
-8.13388e-05
0.000134988
-9.74463e-05
0.000138744
-0.000108947
0.00013222
-0.000113666
0.000117646
-0.000116299
0.000100106
-0.000117317
8.62212e-05
-0.000114515
7.07124e-05
-0.000108707
5.49593e-05
-0.0001008
3.87655e-05
-9.16048e-05
2.31219e-05
-8.15963e-05
7.52387e-06
-7.69015e-06
-7.11892e-05
4.2038e-05
0.00050078
8.45401e-05
0.000462578
0.000119466
0.000395231
0.000130053
0.000301675
0.000107711
0.000211211
6.88335e-05
0.0001801
3.41241e-05
0.000165803
3.63149e-06
0.000158634
-2.17961e-05
0.000155299
-4.47439e-05
0.000152169
-6.50528e-05
0.000152945
-8.38838e-05
0.000153822
-9.8538e-05
0.0001534
-0.000106649
0.000140334
-0.000109403
0.000120403
-0.000110958
0.000101663
-0.000109529
8.47945e-05
-0.00010485
6.60359e-05
-9.81387e-05
4.82508e-05
-8.99528e-05
3.0582e-05
-8.0892e-05
1.40635e-05
-7.1257e-05
-2.10875e-06
-1.73737e-05
-6.15711e-05
4.81175e-05
0.000452666
8.60209e-05
0.000424679
0.000113523
0.000367732
0.000116588
0.000298612
9.18378e-05
0.000235965
5.847e-05
0.000213471
2.85375e-05
0.000195738
1.01153e-06
0.000186162
-2.27737e-05
0.000179087
-4.50175e-05
0.000174416
-6.53783e-05
0.000173309
-8.3637e-05
0.000172083
-9.63456e-05
0.000166112
-0.000101672
0.000145662
-0.000103818
0.000122552
-0.000104586
0.000102433
-0.000101744
8.19553e-05
-9.68127e-05
6.11066e-05
-9.01936e-05
4.16339e-05
-8.24438e-05
2.28344e-05
-7.37179e-05
5.33962e-06
-6.44994e-05
-1.13251e-05
-2.65458e-05
-5.53252e-05
4.47234e-05
0.000407944
7.51887e-05
0.000394215
9.34252e-05
0.000349497
8.94062e-05
0.000302635
6.52755e-05
0.000260099
3.89297e-05
0.000239819
1.37061e-05
0.000220964
-1.03233e-05
0.000210194
-3.21352e-05
0.000200901
-5.29339e-05
0.000195217
-7.18768e-05
0.000192254
-8.79201e-05
0.000188128
-9.62052e-05
0.000174399
-9.85352e-05
0.000147994
-9.95473e-05
0.000123566
-9.79293e-05
0.000100817
-9.34348e-05
7.74629e-05
-8.74743e-05
5.51481e-05
-8.01154e-05
3.42769e-05
-7.20153e-05
1.47363e-05
-6.35554e-05
-3.11837e-06
-5.52347e-05
-1.96439e-05
-3.4775e-05
-4.70037e-05
3.1162e-05
0.000376786
5.44612e-05
0.00037092
6.59754e-05
0.000337987
6.10175e-05
0.000307596
4.36357e-05
0.000277483
2.40123e-05
0.000259445
3.18897e-06
0.000241789
-1.73817e-05
0.000230767
-3.71021e-05
0.000220624
-5.66311e-05
0.000214748
-7.47233e-05
0.000210348
-8.82468e-05
0.000201654
-9.30953e-05
0.000179249
-9.44321e-05
0.000149333
-9.45769e-05
0.000123712
-9.15699e-05
9.78122e-05
-8.68141e-05
7.2709e-05
-8.08162e-05
4.91518e-05
-7.38723e-05
2.73347e-05
-6.62266e-05
7.09221e-06
-5.81038e-05
-1.12395e-05
-5.02214e-05
-2.75247e-05
-4.23834e-05
-4.26114e-05
1.74713e-05
0.000359318
3.24597e-05
0.000355935
3.72218e-05
0.000333228
3.20522e-05
0.000312768
1.92083e-05
0.000290329
3.39693e-06
0.000275258
-1.41683e-05
0.000259357
-3.21638e-05
0.000248765
-5.01155e-05
0.000238577
-6.74952e-05
0.000232129
-8.26708e-05
0.000225525
-9.06933e-05
0.000209678
-9.17284e-05
0.000180286