/*--------------------------------*- C++ -*----------------------------------*\
| =========                 |                                                 |
| \\      /  F ield         | OpenFOAM: The Open Source CFD Toolbox           |
|  \\    /   O peration     | Version:  2012                                  |
|   \\  /    A nd           | Website:  www.openfoam.com                      |
|    \\/     M anipulation  |                                                 |
\*---------------------------------------------------------------------------*/
FoamFile
{
    version     2.0;
    format      ascii;
    class       volScalarField;
    location    "0.96";
    object      rho;
}
// * * * * * * * * * * * * * * * * * * * * * * * * * * * * * * * * * * * * * //

dimensions      [1 -3 0 0 0 0 0];


internalField   nonuniform List<scalar> 
2268
(
1000.05
1000.05
1000.05
1000.05
1000.05
1000.05
1000.05
1000.05
1000.05
1000.05
1000.05
1000.05
1000.05
1000.05
1000.05
1000.05
1000.05
1000.05
1000.05
1000.05
1000.05
1000.05
999.98
1000.05
1000.05
1000.05
1000.05
1000.05
1000.05
1000.05
1000.05
1000.05
1000.05
1000.05
1000.05
1000.05
1000.05
1000.05
1000.05
1000.05
1000.05
1000.05
1000.05
1000.05
1000.05
999.86
1000.05
1000.05
1000.05
1000.05
1000.05
1000.05
1000.05
1000.05
1000.05
1000.05
1000.05
1000.05
1000.05
1000.05
1000.05
1000.05
1000.05
1000.05
1000.05
1000.05
1000.05
1000.05
999.832
1000.05
1000.05
1000.05
1000.05
1000.05
1000.05
1000.05
1000.05
1000.05
1000.05
1000.05
1000.05
1000.05
1000.05
1000.05
1000.05
1000.05
1000.05
1000.05
1000.05
1000.05
1000.05
999.832
1000.05
1000.05
1000.05
1000.05
1000.05
1000.05
1000.05
1000.05
1000.05
1000.05
1000.05
1000.05
1000.05
1000.05
1000.05
1000.05
1000.05
1000.05
1000.05
1000.05
1000.05
1000.05
999.832
1000.05
1000.05
1000.05
1000.05
1000.05
1000.05
1000.05
1000.05
1000.05
1000.05
1000.05
1000.05
1000.05
1000.05
1000.05
1000.05
1000.05
1000.05
1000.05
1000.05
1000.05
1000.05
999.844
1000.05
1000.05
1000.05
1000.05
1000.05
1000.05
1000.05
1000.05
1000.05
1000.05
1000.05
1000.05
1000.05
1000.05
1000.05
1000.05
1000.05
999.846
999.039
999.454
999.997
1000.05
1000.02
1000.05
1000.05
1000.05
1000.05
1000.05
1000.05
1000.05
1000.05
1000.05
1000.05
1000.05
1000.05
1000.05
1000.05
999.925
998.381
990.646
929.047
849.516
885.386
1000.05
1000.05
1000.05
524.012
779.133
779.135
753.103
802.872
887.797
944.642
978.239
980.095
968.209
861.879
829.474
911.16
974.175
974.175
973.243
970.625
980.534
980.708
258.939
258.939
108.306
112.383
246.443
488.482
877.48
980.096
980.095
980.095
980.095
873.863
920.62
750.244
666.463
581.817
529.929
818.732
984.87
506.44
27.2643
5.79365
99.9581
284.324
443.77
898.358
980.096
980.096
980.095
980.095
977.142
977.142
822.783
592.832
237.473
210.61
635.123
984.87
617.812
84.9762
3.69918
113.849
771.148
929.308
980.096
980.096
980.096
979.232
955.778
974.202
977.144
976.224
928.965
490.776
210.609
789.586
985.051
617.9
198.541
3.69953
2.59033
319.774
606.756
980.096
980.096
967.422
675.57
399.816
454.49
789.301
976.317
976.314
599.204
562.402
904.041
990.844
617.161
168.041
3.39171
2.59031
26.7408
199.655
913.285
972.367
536.414
88.5797
62.6176
65.7285
196.669
650.665
944.534
702.724
830.398
986.571
990.844
663.872
76.1827
3.39198
67.157
26.4606
120.193
769.85
873.777
130.543
64.5461
86.2511
150.475
118.588
126.569
695.804
871.195
960.433
976.916
982.414
712.871
58.919
101.962
138.682
26.1212
81.4029
698.233
742.299
78.0905
113.69
510.121
575.439
223.051
119.713
363.025
897.794
902.487
938.016
908.564
1000.05
1000.05
1000.05
1000.05
1000.05
1000.05
1000.05
1000.05
1000.05
1000.05
999.995
999.718
998.844
992.864
947.424
790.187
553.311
397.962
310.132
341.557
543.479
862.48
993.351
1000.05
1000.05
1000.05
1000.05
1000.05
1000.05
1000.05
1000.05
1000.05
983.998
960.597
941.543
860.45
663.474
312.369
86.6012
1.5008
2.13767
5.92883
35.0134
107.569
361.258
970.027
1000.05
1000.05
999.99
1000.05
988.448
784.424
659.006
754.598
864.381
865.374
768.78
492.261
165.549
23.1351
1.85002
1.84995
1.77597
21.9794
264.829
661.367
666.776
459.822
752.154
1000.05
999.753
974.028
664.608
330.685
205.326
177.024
233.303
440.616
557.219
385.099
45.695
9.0437
9.04228
2.38349
1.32935
5.15516
227.797
857.918
952.03
952.03
793.375
711.867
999.96
979.562
572.855
69.013
68.9721
72.7127
57.8224
38.216
91.6509
92.1747
48.0364
73.7879
172.621
162.758
22.5716
1.29405
47.2463
655.887
952.03
952.03
949.97
785.956
748.834
995.085
730.426
156.433
88.5788
87.2165
84.3009
24.162
1.29309
3.05012
2.95199
87.3579
246.174
246.174
246.173
78.7076
1.29354
106.55
772.667
952.03
952.03
952.03
943.723
933.803
984.641
507.778
72.6576
76.9398
75.7852
5.72304
1.29305
1.29305
1.29322
2.20843
93.5532
246.173
245.863
141.718
24.3363
1.29305
35.1955
545.594
952.03
952.03
952.03
952.03
952.03
979.023
420.188
1.29319
21.6083
3.76092
1.43199
1.516
1.30732
1.29329
3.38406
19.4235
26.6516
29.4857
1.29325
1.293
1.96771
13.0914
151.231
528.102
821.93
895.456
824.408
864.287
980.447
421.033
1.29313
1.95284
1.35448
1.43196
1.58633
1.75367
5.44354
6.7686
2.38869
1.29322
1.29322
1.2932
1.34496
4.79704
7.05023
1.29321
1.29318
163.093
662.111
766.537
368.124
980.446
385.832
1.29315
1.29694
1.29996
1.32016
1.32709
1.76832
3.79628
2.8805
1.29319
1.29323
1.29326
1.29326
1.56964
3.19772
2.524
1.29322
1.29321
1.29318
74.6584
410.996
380.852
747.044
167.825
1.31575
1.29316
1.2932
1.2932
1.29435
1.51711
2.29603
2.046
1.29319
1.29359
1.29368
1.29362
1.29932
1.32613
1.2932
1.29321
1.2932
1.31958
2.74365
75.0554
308.782
118.937
14.9295
1.31977
1.29316
1.29319
1.29321
1.29376
1.31848
1.34216
1.29319
1.2933
1.29384
1.29384
1.29321
1.2932
1.29321
1.29321
1.29321
1.2932
1.29364
1.43081
6.23185
71.3296
1.82518
1.6121
1.57609
1.2931
1.2932
1.29321
1.29332
1.29363
1.29321
1.2932
1.29321
1.29327
1.29337
1.2932
1.2932
1.29321
1.29321
1.29321
1.2932
1.29335
1.31857
1.57033
3.92894
1.37481
1.37467
1.71421
1.29311
1.29321
1.29321
1.29323
1.29321
1.29321
1.29321
1.2932
1.2932
1.2932
1.2932
1.2932
1.2932
1.2932
1.2932
1.29319
1.29318
1.29315
1.29313
1.29311
54.2127
1.293
1.68373
1.29313
1.29322
1.29321
1.29322
1.2932
1.29321
1.2932
1.29321
1.2932
1.2932
1.2932
1.2932
1.2932
1.2932
1.2932
1.29319
1.29318
1.29316
1.29314
1.29355
172.964
1.29301
1.33847
1.29363
1.29322
1.29321
1.29321
1.2932
1.2932
1.2932
1.2932
1.2932
1.2932
1.2932
1.2932
1.2932
1.2932
1.29319
1.29319
1.29319
1.29317
1.29315
1.31554
174.27
1.293
1.29328
1.2944
1.29323
1.2932
1.29321
1.29319
1.2932
1.29319
1.2932
1.29319
1.2932
1.29319
1.29319
1.29319
1.29319
1.29319
1.29319
1.29319
1.29318
1.29316
1.2973
174.273
1.31726
1.29314
1.2944
1.29324
1.2932
1.2932
1.29319
1.2932
1.29319
1.29319
1.29319
1.29319
1.29319
1.29319
1.29319
1.29319
1.29319
1.29319
1.29319
1.29319
1.29319
1.29317
126.279
1.55468
1.29314
1.29341
1.29324
1.29319
1.2932
1.29319
1.29319
1.29319
1.29319
1.29319
1.29319
1.29319
1.29319
1.29319
1.29319
1.29318
1.29318
1.29318
1.29318
1.29318
1.29318
9.18883
1.44305
1.29314
1.29318
1.29321
1.29318
1.29319
1.29318
1.29319
1.29318
1.29319
1.29318
1.29319
1.29318
1.29319
1.29318
1.29318
1.29317
1.29316
1.29316
1.29316
1.29316
1.29316
1.30508
1.38154
1.29315
1.29331
1.29319
1.29318
1.29319
1.29318
1.29319
1.29318
1.29318
1.29318
1.29318
1.29318
1.29318
1.29318
1.29317
1.29315
1.29315
1.29314
1.29314
1.29313
1.29311
1.29305
1.29623
1.29325
1.29335
1.29318
1.29317
1.29318
1.29318
1.29318
1.29318
1.29318
1.29318
1.29318
1.29318
1.29317
1.29316
1.29315
1.29314
1.29316
1.29314
1.29311
1.29307
1.29304
1.29296
1.29311
1.29332
1.29331
1.29316
1.29317
1.29318
1.29317
1.29318
1.29317
1.29318
1.29318
1.29318
1.29317
1.29316
1.29314
1.29313
1.29316
1.29314
1.29311
1.29304
1.29302
1.29299
1.29298
1.2931
1.2932
1.29315
1.29315
1.29323
1.29317
1.29317
1.29317
1.29317
1.29317
1.29317
1.29317
1.29316
1.29314
1.29313
1.29315
1.29314
1.29311
1.29304
1.29301
1.29299
1.29297
1.293
1.29311
1.29313
1.29323
1.29354
1.29348
1.29316
1.29316
1.29317
1.29317
1.29317
1.29317
1.29316
1.29314
1.29312
1.29312
1.29314
1.29312
1.29304
1.29301
1.29299
1.29297
1.29296
1.29299
1.2931
1.29358
1.29499
1.29637
1.29445
1.29315
1.29316
1.29316
1.29316
1.29316
1.29316
1.29315
1.29313
1.29312
1.29314
1.29311
1.29304
1.29301
1.293
1.29298
1.29297
1.29295
1.29298
1.29308
1.29531
1.29534
1.30531
1.29747
1.29315
1.29316
1.29316
1.29316
1.29316
1.29315
1.29313
1.29313
1.29316
1.29314
1.29306
1.29302
1.293
1.29299
1.29298
1.29296
1.29296
1.29297
1.2946
1.29539
1.29397
1.32087
1.30231
1.29314
1.29315
1.29316
1.29316
1.29315
1.29314
1.29312
1.29313
1.29315
1.29312
1.29303
1.29301
1.293
1.29298
1.29297
1.29297
1.29296
1.29296
1.2948
1.2943
1.29369
1.35679
1.30556
1.29314
1.29315
1.29316
1.29315
1.29315
1.29313
1.29311
1.2931
1.29312
1.29306
1.29302
1.29301
1.293
1.29299
1.29298
1.29297
1.29297
1.29296
1.29346
1.29341
1.32172
1.36875
1.3057
1.29314
1.29315
1.29315
1.29315
1.29314
1.29312
1.29309
1.29309
1.29306
1.29303
1.29302
1.29301
1.293
1.29299
1.29299
1.29299
1.29299
1.29296
1.29301
1.29406
1.40771
1.36876
1.29609
1.29314
1.29315
1.29315
1.29315
1.29313
1.29312
1.29316
1.29314
1.29304
1.29302
1.29302
1.29301
1.29301
1.29301
1.29301
1.29301
1.29301
1.31739
1.3264
1.39066
1.40808
1.33623
1.29357
1.29315
1.29315
1.29315
1.29314
1.29312
1.29315
1.29325
1.29313
1.29303
1.29302
1.29302
1.29302
1.29302
1.29302
1.29303
1.29303
1.29303
1.3968
1.40842
1.40852
1.37861
1.29934
1.2932
1.29315
1.29315
1.29314
1.29313
1.29312
1.29324
1.29324
1.2931
1.29303
1.29303
1.29303
1.29303
1.29303
1.29304
1.29304
1.29305
1.29305
1.316
1.34866
1.35455
1.30476
1.29376
1.29316
1.29315
1.29315
1.29314
1.29312
1.29312
1.29324
1.29322
1.29304
1.29303
1.29303
1.29303
1.29304
1.29305
1.29305
1.29306
1.29306
1.29307
1.29312
1.29319
1.29336
1.29326
1.29317
1.29315
1.29315
1.29314
1.29313
1.29311
1.29309
1.29312
1.2931
1.29303
1.29303
1.29304
1.29304
1.29305
1.29306
1.29307
1.29307
1.29308
1.29308
1.29308
1.29309
1.29311
1.29313
1.29314
1.29314
1.29314
1.29313
1.29312
1.2931
1.29308
1.29307
1.29304
1.29304
1.29304
1.29304
1.29305
1.29306
1.29307
1.29308
1.29308
1.29309
1.29309
1.29312
1.29312
1.29313
1.29314
1.29314
1.29314
1.29313
1.29312
1.2931
1.29308
1.29306
1.29307
1.29304
1.29304
1.29304
1.29305
1.29306
1.29307
1.29308
1.29309
1.29309
1.2931
1.2931
1.29313
1.29313
1.29314
1.29314
1.29314
1.29313
1.29313
1.29311
1.29309
1.29308
1.2931
1.29305
1.29304
1.29304
1.29305
1.29306
1.29307
1.29308
1.29309
1.2931
1.2931
1.2931
1.2931
1.29313
1.29313
1.29313
1.29313
1.29313
1.29313
1.29312
1.2931
1.29312
1.29342
1.29339
1.29304
1.29304
1.29304
1.29305
1.29307
1.29308
1.29309
1.2931
1.2931
1.29311
1.29311
1.29311
1.29313
1.29313
1.29313
1.29313
1.29312
1.29312
1.2931
1.2931
1.29336
1.29345
1.29332
1.29304
1.29304
1.29305
1.29306
1.29308
1.29309
1.2931
1.2931
1.29311
1.29311
1.29311
1.29311
1.29312
1.29312
1.29312
1.29312
1.29311
1.2931
1.29309
1.29309
1.2934
1.29344
1.29308
1.29304
1.29304
1.29306
1.29307
1.29308
1.29309
1.2931
1.29311
1.29311
1.29311
1.29311
1.29311
1.29312
1.29312
1.29312
1.29311
1.2931
1.29309
1.29308
1.2931
1.29317
1.29317
1.29304
1.29304
1.29305
1.29307
1.29308
1.29309
1.2931
1.2931
1.2931
1.2931
1.29311
1.29311
1.29311
996.218
996.228
815.726
758.015
996.228
798.042
758.516
792.009
733.292
733.422
914.183
914.205
762.771
950.839
950.846
890.037
950.846
950.846
950.846
821.487
950.846
950.846
879.571
500.721
929.314
496.098
184.657
54.6096
483.281
25.8027
2.26091
2.09327
150.226
58.815
29.1268
28.0703
114.695
42.5417
41.9848
37.9727
232.93
126.104
59.3263
76.2774
188.994
129.724
69.9908
76.272
14.2779
17.8648
15.9712
15.2157
1.50108
1.89525
2.22556
2.80722
1.58164
1.89529
1.55217
1.29322
1.63029
1.60612
1.29541
1.2954
1.35276
1.40371
1.4037
1.34455
1.29315
1.29398
1.31104
1.32426
1.29318
1.29318
1.29317
1.29317
1.29315
1.29315
1.29314
1.29313
1.29309
1.29307
1.29305
1.29303
1.29301
1.293
1.29298
1.29297
1.29297
1.29296
1.29295
1.29294
1.29295
1.29295
1.29294
1.29293
1.29295
1.29294
1.29294
1.29294
1.29295
1.29295
1.29294
1.29295
1.29295
1.29295
1.29295
1.29296
1.29296
1.29296
1.29296
1.29297
1.29297
1.29298
1.29298
1.29298
1.29299
1.29299
1.29299
1.293
1.29301
1.29301
1.29302
1.29302
1.29303
1.29304
1.29304
1.29304
1.29305
1.29305
1.29305
1.29306
1.29307
1.29307
1.29307
1.29307
1.29308
1.29308
1.29308
1.29308
1.29309
1.29309
1.29309
1.29309
1.2931
1.2931
1.2931
1.2931
1.2931
1.2931
1.2931
1.2931
1.29311
1.29311
1.29311
1.2931
1.29311
1.29311
1.2931
1.2931
1.29311
1.29311
1.2931
1.2931
1.2931
1.2931
1.2931
1.2931
757.395
296.136
202.899
98.3987
16.0267
50.5008
690.262
513.786
54.9385
227.233
721.023
721.143
582.088
360.143
597.952
897.794
881.637
752.567
666.324
765.282
366.299
167.927
167.925
16.0266
218.564
702.986
238.769
54.9487
150.515
633.969
713.633
642.111
632.374
596.906
540.48
295.621
149.188
104.16
673.515
418.175
729.392
861.98
733.994
866.847
649.036
62.0834
54.938
228.505
296.739
104.078
1.83877
1.30267
15.1573
3.00628
1.3034
1.30345
1.34063
627.281
527.487
868.01
861.976
838.4
866.847
828.264
260.832
54.9897
70.1751
122.062
22.0621
1.33104
1.30271
1.30279
1.30289
1.3177
1.41479
1.39575
490.28
287.097
303.428
136.597
169.241
325.047
494.218
616.654
616.661
557.095
340.452
53.1079
6.68777
2.08582
1.37001
1.40596
1.65659
1.38229
1.38106
177.802
2.09342
9.4823
9.48226
9.81424
1.30811
1.30812
105.3
80.2876
17.6561
18.7818
46.8365
34.623
22.9866
6.85529
1.8024
1.72975
1.38321
1.37029
11.9142
2.09319
3.94377
18.7958
23.1761
4.3233
1.30812
1.30358
1.30358
1.30323
1.30319
1.30512
33.6229
34.9227
32.1994
4.75655
1.52618
1.35888
1.35655
2.09313
2.09326
3.33201
40.0348
34.6505
1.54576
1.30813
1.38989
1.44341
1.37521
1.30325
1.29355
1.96054
19.8731
24.5514
5.4535
1.3644
1.36404
1.31513
53.1388
65.6064
94.0519
107.167
34.8377
1.32706
1.32711
1.31887
1.31629
1.29354
1.29354
1.29354
1.29352
1.29349
1.29348
1.90818
1.32213
1.34826
1.29323
47.1538
108.977
109.021
102.513
23.9178
1.40682
1.29775
1.30081
1.29354
1.29353
1.29354
1.29355
1.29406
1.29511
1.29512
1.29437
1.29653
1.29557
1.29323
24.4078
10.7286
21.8024
1.30407
1.30446
1.30581
1.29775
1.29352
1.29352
1.29354
1.29378
1.29341
1.29319
1.2932
1.29321
1.29321
1.29322
1.29322
1.29322
53.1244
10.7288
2.02231
2.02236
1.73173
1.2947
1.29469
1.29646
1.29421
1.29357
1.29369
1.29318
1.29318
1.2932
1.29322
1.29325
1.29322
1.29321
1.29324
9.86925
14.3338
14.0598
4.6503
1.31665
1.36533
1.29363
1.29539
1.2944
1.29381
1.29324
1.29317
1.29323
1.29332
1.29335
1.29327
1.29321
1.29321
1.29343
3.94774
9.6213
10.702
3.32749
1.31668
1.39109
1.29362
1.29363
1.29396
1.29396
1.29322
1.29314
1.29325
1.29336
1.29337
1.29323
1.2932
1.29322
1.2935
1.29321
1.2932
1.54282
1.60631
1.37625
1.38819
1.29363
1.29408
1.29353
1.29341
1.29317
1.29309
1.29312
1.29323
1.29328
1.29321
1.29319
1.29331
1.2935
1.29412
1.29356
1.29575
1.30421
1.32085
1.30596
1.29619
1.29435
1.29321
1.29298
1.29298
1.29301
1.29305
1.29309
1.29314
1.29317
1.29319
1.29337
1.29349
1.2935
1.2935
1.29329
1.2933
1.29384
1.29473
1.29441
1.29298
1.29294
1.29292
1.29292
1.29294
1.293
1.29304
1.29309
1.29314
1.29318
1.29331
1.29333
1.32417
1.32117
1.29393
1.29314
1.29313
1.29307
1.29297
1.29292
1.29289
1.29289
1.29288
1.2929
1.29314
1.29331
1.29311
1.29312
1.29316
1.29319
1.29319
1.29316
1.29315
1.29312
1.2931
1.29301
1.29295
1.29291
1.29288
1.29287
1.29287
1.2929
1.29289
1.29321
1.29352
1.29344
1.29312
1.29315
1.29318
1.29319
1.2931
1.29304
1.29299
1.29295
1.29292
1.2929
1.29289
1.29287
1.29286
1.29286
1.29294
1.293
1.29304
1.29343
1.29357
1.29323
1.29314
1.29317
1.29319
1.293
1.29296
1.29293
1.29292
1.2929
1.29289
1.29288
1.29287
1.29285
1.29284
1.29291
1.29324
1.29312
1.29303
1.29355
1.29337
1.29314
1.29317
1.29319
1.29295
1.29293
1.29292
1.29291
1.2929
1.2929
1.29289
1.29288
1.29286
1.29283
1.29284
1.29322
1.29348
1.29299
1.29352
1.29348
1.29315
1.29317
1.29318
1.29293
1.29292
1.29292
1.29291
1.29291
1.29291
1.29291
1.2929
1.29287
1.29284
1.29282
1.2929
1.29359
1.29297
1.29316
1.29352
1.29318
1.29317
1.29318
1.29293
1.29293
1.29293
1.29293
1.29293
1.29293
1.29293
1.29292
1.2929
1.29286
1.29282
1.2928
1.29358
1.29535
1.29326
1.29349
1.29321
1.29318
1.29329
1.29294
1.29294
1.29295
1.29295
1.29295
1.29295
1.29295
1.29294
1.29292
1.29289
1.29284
1.2928
1.29345
1.29687
1.29603
1.29339
1.29321
1.29322
1.29334
1.29295
1.29295
1.29296
1.29297
1.29297
1.29297
1.29296
1.29295
1.29293
1.29291
1.29287
1.29281
1.29293
1.29652
1.29878
1.29322
1.29323
1.29331
1.29334
1.29296
1.29297
1.29297
1.29298
1.29298
1.29298
1.29298
1.29297
1.29295
1.29292
1.29289
1.29283
1.29278
1.29307
1.2987
1.2933
1.29317
1.29329
1.29332
1.29297
1.29298
1.29298
1.29299
1.29299
1.293
1.29299
1.29298
1.29296
1.29294
1.2929
1.29285
1.29279
1.29283
1.29371
1.29335
1.29308
1.29317
1.29319
1.29298
1.29299
1.293
1.293
1.293
1.29301
1.293
1.29299
1.29298
1.29295
1.29292
1.29287
1.2928
1.29274
1.29328
1.29451
1.29305
1.29311
1.29316
1.293
1.293
1.29301
1.29301
1.29301
1.29302
1.29301
1.293
1.29299
1.29296
1.29293
1.29289
1.29282
1.29275
1.29617
1.31907
1.29342
1.29309
1.29331
1.29302
1.29302
1.29302
1.29302
1.29302
1.29302
1.29302
1.29301
1.29299
1.29297
1.29294
1.2929
1.29284
1.29276
1.29654
1.32861
1.29543
1.29306
1.29403
1.29304
1.29304
1.29304
1.29304
1.29303
1.29303
1.29303
1.29302
1.293
1.29298
1.29295
1.29291
1.29285
1.29277
1.294
1.32668
1.29957
1.29307
1.29416
1.29306
1.29305
1.29305
1.29305
1.29304
1.29304
1.29303
1.29302
1.29301
1.29299
1.29296
1.29292
1.29286
1.29278
1.29282
1.29422
1.30583
1.29352
1.29415
1.29307
1.29307
1.29306
1.29306
1.29305
1.29305
1.29304
1.29303
1.29301
1.29299
1.29296
1.29292
1.29287
1.29279
1.29272
1.29268
1.32046
1.29484
1.29406
1.29308
1.29308
1.29307
1.29306
1.29306
1.29305
1.29304
1.29303
1.29301
1.29299
1.29297
1.29293
1.29287
1.2928
1.29272
1.29267
1.32331
1.29771
1.29366
1.29309
1.29308
1.29308
1.29307
1.29306
1.29305
1.29304
1.29303
1.29302
1.293
1.29297
1.29293
1.29288
1.29281
1.29273
1.29267
1.32328
1.30119
1.29328
1.2931
1.29309
1.29308
1.29307
1.29306
1.29306
1.29304
1.29303
1.29302
1.293
1.29297
1.29293
1.29288
1.29281
1.29273
1.29266
1.32325
1.30195
1.29313
1.2931
1.29309
1.29308
1.29307
1.29306
1.29306
1.29304
1.29303
1.29302
1.293
1.29297
1.29293
1.29288
1.29281
1.29273
1.29266
1.32323
1.30481
1.29311
1.2931
1.29309
1.29308
1.29307
1.29306
1.29306
1.29304
1.29303
1.29302
1.293
1.29297
1.29293
1.29288
1.29281
1.29273
1.29265
1.32319
1.31094
1.29319
1.2931
1.29309
1.29308
1.29307
1.29306
1.29305
1.29304
1.29303
1.29302
1.293
1.29297
1.29293
1.29288
1.29281
1.29273
1.29265
1.30698
1.31062
1.29341
1.2931
1.29309
1.29308
1.29307
1.29306
1.29305
1.29304
1.29303
1.29301
1.293
1.29297
1.29293
1.29288
1.29281
1.29273
1.29265
1.29262
1.30201
1.29353
1.2931
1.29309
1.29308
1.29307
1.29306
1.29305
1.29304
1.29303
1.29301
1.29299
1.29297
1.29293
1.29288
1.29281
1.29272
1.29264
1.29262
1.3117
1.29472
)
;

boundaryField
{
    leftWall
    {
        type            calculated;
        value           nonuniform List<scalar> 
50
(
1000.05
1000.05
1000.05
1000.05
1000.05
1000.05
1000.05
1000.05
1000.05
1000.05
1000.05
1000.05
999.96
995.085
984.641
979.023
980.447
980.446
747.044
118.937
1.82518
1.37481
54.2127
172.964
174.27
174.273
126.279
9.18883
1.30508
1.29305
1.29296
1.29298
1.293
1.29299
1.29298
1.29297
1.29296
1.29296
1.29296
1.31739
1.3968
1.316
1.29312
1.29308
1.29312
1.29313
1.29313
1.29313
1.29312
1.29312
)
;
    }
    rightWall
    {
        type            calculated;
        value           nonuniform List<scalar> 
50
(
980.708
984.87
984.87
985.051
990.844
990.844
982.414
908.564
666.324
104.16
1.34063
1.39575
1.38106
1.37029
1.35655
1.31513
1.29323
1.29323
1.29322
1.29324
1.29343
1.2935
1.2935
1.29349
1.29333
1.29319
1.29319
1.29319
1.29319
1.29318
1.29318
1.29329
1.29334
1.29334
1.29332
1.29319
1.29316
1.29331
1.29403
1.29416
1.29415
1.29406
1.29366
1.29328
1.29313
1.29311
1.29319
1.29341
1.29353
1.29472
)
;
    }
    lowerWall
    {
        type            calculated;
        value           nonuniform List<scalar> 
62
(
1000.05
1000.05
1000.05
1000.05
1000.05
1000.05
1000.05
1000.05
1000.05
1000.05
1000.05
1000.05
1000.05
1000.05
1000.05
1000.05
1000.05
1000.05
1000.05
1000.05
1000.05
1000.05
999.98
999.98
999.86
999.832
999.832
999.832
999.844
1000.02
1000.05
996.218
996.228
815.726
758.016
524.012
258.939
506.44
617.812
617.9
617.161
663.872
712.871
524.012
779.133
779.135
753.103
802.872
887.797
944.642
978.239
980.095
968.209
861.879
829.474
911.16
974.175
974.175
973.243
970.626
980.534
980.708
)
;
    }
    atmosphere
    {
        type            calculated;
        value           nonuniform List<scalar> 
46
(
1.29321
1.29321
1.29321
1.2932
1.29319
1.29318
1.29317
1.29319
1.29326
1.29326
1.29313
1.29313
1.29315
1.29316
1.29318
1.29319
1.29319
1.2932
1.2932
1.2932
1.2932
1.2932
1.2932
1.2932
1.2932
1.29319
1.29319
1.29319
1.29318
1.29317
1.29316
1.29315
1.29314
1.29313
1.29312
1.29311
1.29309
1.29306
1.29302
1.29297
1.2929
1.29281
1.29274
1.29271
1.31179
1.29481
)
;
    }
    defaultFaces
    {
        type            empty;
    }
}


// ************************************************************************* //
