/*--------------------------------*- C++ -*----------------------------------*\
| =========                 |                                                 |
| \\      /  F ield         | OpenFOAM: The Open Source CFD Toolbox           |
|  \\    /   O peration     | Version:  2012                                  |
|   \\  /    A nd           | Website:  www.openfoam.com                      |
|    \\/     M anipulation  |                                                 |
\*---------------------------------------------------------------------------*/
FoamFile
{
    version     2.0;
    format      ascii;
    class       volScalarField;
    location    "0.96";
    object      rho2;
}
// * * * * * * * * * * * * * * * * * * * * * * * * * * * * * * * * * * * * * //

dimensions      [1 -3 0 0 0 0 0];


internalField   nonuniform List<scalar> 
2268
(
1.30565
1.3056
1.30553
1.30541
1.30531
1.30514
1.30504
1.30484
1.30473
1.30446
1.30431
1.30395
1.30372
1.3033
1.30306
1.30268
1.30251
1.30227
1.30224
1.30219
1.30226
1.30233
1.30242
1.30491
1.30486
1.30479
1.30466
1.30457
1.30439
1.3043
1.30409
1.30399
1.30372
1.30356
1.3032
1.30298
1.30255
1.3023
1.30191
1.30174
1.30149
1.30147
1.30142
1.3015
1.30157
1.30166
1.30417
1.30412
1.30405
1.30391
1.30382
1.30363
1.30355
1.30334
1.30325
1.30298
1.30283
1.30246
1.30223
1.30178
1.30153
1.30113
1.30095
1.3007
1.3007
1.30066
1.30074
1.30084
1.30094
1.30345
1.3034
1.30332
1.30318
1.30308
1.30289
1.3028
1.30261
1.30252
1.30226
1.30211
1.30174
1.3015
1.30103
1.30076
1.30034
1.30015
1.29988
1.29987
1.29982
1.29995
1.30005
1.30017
1.30273
1.30267
1.30258
1.30243
1.30233
1.30213
1.30205
1.30185
1.30179
1.30153
1.30139
1.30099
1.30075
1.30024
1.29997
1.29951
1.29931
1.29903
1.29909
1.29905
1.29915
1.29933
1.29948
1.30204
1.30198
1.30188
1.30171
1.30159
1.30139
1.30131
1.30113
1.30108
1.30084
1.3007
1.30031
1.30004
1.29951
1.29919
1.29871
1.29847
1.29814
1.29812
1.29805
1.2983
1.29851
1.29872
1.30133
1.30126
1.30115
1.30095
1.30084
1.30061
1.30055
1.30036
1.30036
1.30011
1.30001
1.29957
1.2993
1.2987
1.29837
1.29781
1.29752
1.29712
1.29726
1.29717
1.29733
1.29772
1.29801
1.30068
1.3006
1.30046
1.30025
1.3001
1.29987
1.2998
1.29965
1.29968
1.29947
1.29936
1.29894
1.29864
1.29797
1.29756
1.29697
1.29658
1.29615
1.29616
1.29607
1.29641
1.2969
1.29733
1.30384
1.29707
1.29649
1.29647
1.29772
1.29912
1.30152
1.30236
1.30056
1.30021
1.29905
1.29969
1.29934
1.29773
1.29714
1.29731
1.29743
1.29911
1.30011
1.30155
1.296
1.29609
1.29609
1.29716
1.29825
1.30035
1.30119
1.2996
1.29936
1.29834
1.29894
1.29846
1.29682
1.29639
1.29657
1.29662
1.29828
1.29918
1.29834
1.29569
1.29603
1.29587
1.29685
1.29781
1.29931
1.30006
1.29856
1.29839
1.29734
1.2978
1.29702
1.29606
1.29593
1.29607
1.29613
1.29736
1.29835
1.29863
1.29568
1.29603
1.29594
1.2965
1.29721
1.29834
1.29895
1.29739
1.29731
1.29628
1.29656
1.29619
1.2955
1.29535
1.29586
1.29605
1.29696
1.29763
1.29797
1.29575
1.29603
1.29596
1.29609
1.29663
1.29756
1.29797
1.29628
1.29636
1.29565
1.29564
1.29502
1.29506
1.29554
1.2959
1.29602
1.29643
1.29693
1.2975
1.29585
1.29606
1.29593
1.29607
1.2961
1.2968
1.29708
1.29525
1.29594
1.29543
1.2956
1.29494
1.29444
1.2951
1.2956
1.29586
1.296
1.29622
1.29696
1.29583
1.29605
1.29585
1.29585
1.29589
1.29635
1.29646
1.29505
1.29602
1.29549
1.29534
1.29459
1.29439
1.29484
1.29542
1.29552
1.29549
1.2954
1.29629
1.29602
1.29595
1.29576
1.29587
1.29571
1.29594
1.296
1.29476
1.29582
1.2952
1.29509
1.29456
1.29391
1.29453
1.295
1.29516
1.29487
1.29466
1.29962
1.29951
1.29935
1.29906
1.29893
1.2986
1.29858
1.29843
1.29859
1.29836
1.29833
1.29778
1.29741
1.29664
1.2962
1.2955
1.29522
1.29497
1.29579
1.29559
1.29525
1.29557
1.29612
1.29838
1.29823
1.29795
1.29761
1.29732
1.29701
1.29689
1.29691
1.2972
1.29716
1.29716
1.29675
1.29638
1.29519
1.2949
1.29471
1.29453
1.29442
1.29459
1.29465
1.29486
1.29457
1.29512
1.29715
1.29691
1.29647
1.29588
1.29564
1.29503
1.29509
1.29517
1.29574
1.29578
1.29601
1.29537
1.29486
1.29439
1.2944
1.2943
1.29441
1.29437
1.29473
1.29396
1.29371
1.2934
1.29368
1.29621
1.29583
1.29512
1.29453
1.29408
1.29387
1.29371
1.29374
1.29453
1.29486
1.2955
1.29567
1.29527
1.29421
1.29424
1.29414
1.29436
1.2942
1.29353
1.29235
1.29099
1.29161
1.29246
1.29554
1.29494
1.29402
1.2937
1.29386
1.29339
1.29353
1.29323
1.29387
1.29456
1.29514
1.29467
1.29468
1.29425
1.29434
1.29401
1.29418
1.29387
1.29278
1.29122
1.28946
1.29018
1.29097
1.29531
1.29459
1.2938
1.29375
1.29352
1.2932
1.29306
1.29301
1.29308
1.29351
1.29403
1.2944
1.29426
1.29394
1.29371
1.29351
1.29349
1.29336
1.29262
1.2915
1.29061
1.29096
1.29162
1.29495
1.29439
1.29352
1.29346
1.29317
1.29312
1.29298
1.29297
1.29291
1.29301
1.29333
1.29351
1.29348
1.29327
1.29297
1.29301
1.29284
1.29297
1.29237
1.29206
1.29189
1.29184
1.29223
1.2943
1.29354
1.29316
1.29317
1.29311
1.29304
1.29296
1.29295
1.29298
1.29308
1.29322
1.29326
1.29324
1.29325
1.293
1.29301
1.29297
1.29316
1.2933
1.29231
1.29301
1.29278
1.29295
1.29398
1.29318
1.29311
1.29317
1.29311
1.29303
1.29297
1.29296
1.293
1.29315
1.29322
1.29322
1.29322
1.2932
1.2931
1.29309
1.29315
1.29321
1.29318
1.29314
1.29294
1.29327
1.29282
1.29344
1.2931
1.29312
1.29316
1.29316
1.2931
1.29303
1.293
1.29305
1.29316
1.29319
1.29321
1.2932
1.29322
1.2932
1.29319
1.2932
1.29322
1.29321
1.29318
1.29308
1.29301
1.29268
1.29356
1.29303
1.2931
1.29314
1.29319
1.29318
1.29315
1.2931
1.29311
1.29315
1.29319
1.2932
1.2932
1.29321
1.29321
1.29321
1.2932
1.29321
1.29319
1.29319
1.29313
1.29303
1.29277
1.29315
1.29297
1.29309
1.29311
1.29319
1.29321
1.29321
1.29319
1.29318
1.29319
1.2932
1.2932
1.2932
1.29321
1.2932
1.29321
1.2932
1.2932
1.29319
1.29318
1.29313
1.29304
1.29291
1.29312
1.29296
1.29309
1.2931
1.2932
1.29321
1.29322
1.29321
1.29321
1.2932
1.2932
1.2932
1.2932
1.2932
1.2932
1.2932
1.2932
1.2932
1.29319
1.29318
1.29315
1.29311
1.29306
1.29313
1.29299
1.29309
1.29311
1.29321
1.29321
1.29322
1.29321
1.29321
1.29321
1.2932
1.2932
1.2932
1.2932
1.2932
1.2932
1.2932
1.2932
1.29319
1.29317
1.29315
1.29313
1.29311
1.29313
1.293
1.2931
1.29313
1.29322
1.29321
1.29322
1.2932
1.29321
1.2932
1.2932
1.2932
1.2932
1.2932
1.2932
1.2932
1.2932
1.2932
1.29319
1.29318
1.29316
1.29314
1.29313
1.29311
1.29301
1.29313
1.29316
1.29322
1.29321
1.29321
1.2932
1.2932
1.2932
1.2932
1.29319
1.2932
1.2932
1.2932
1.2932
1.29319
1.29319
1.29319
1.29319
1.29317
1.29315
1.29314
1.29303
1.293
1.29313
1.29317
1.29322
1.2932
1.29321
1.29319
1.2932
1.29319
1.2932
1.29319
1.29319
1.29319
1.29319
1.29319
1.29319
1.29319
1.29319
1.29319
1.29318
1.29316
1.29314
1.29296
1.293
1.29314
1.29318
1.29322
1.2932
1.2932
1.29319
1.2932
1.29319
1.29319
1.29319
1.29319
1.29319
1.29319
1.29319
1.29319
1.29319
1.29319
1.29319
1.29318
1.29318
1.29317
1.29287
1.29299
1.29313
1.29318
1.29321
1.29319
1.2932
1.29319
1.29319
1.29319
1.29319
1.29319
1.29319
1.29319
1.29319
1.29319
1.29319
1.29318
1.29318
1.29318
1.29318
1.29318
1.29318
1.29284
1.29299
1.29314
1.29318
1.2932
1.29318
1.29319
1.29318
1.29319
1.29318
1.29319
1.29318
1.29319
1.29318
1.29319
1.29318
1.29318
1.29317
1.29316
1.29316
1.29315
1.29315
1.29315
1.29287
1.29302
1.29315
1.29318
1.29319
1.29318
1.29319
1.29318
1.29319
1.29318
1.29318
1.29318
1.29318
1.29318
1.29318
1.29318
1.29317
1.29315
1.29314
1.29313
1.29312
1.29311
1.2931
1.29292
1.29305
1.29316
1.29317
1.29318
1.29317
1.29318
1.29318
1.29318
1.29318
1.29318
1.29318
1.29318
1.29318
1.29317
1.29316
1.29314
1.29313
1.29311
1.2931
1.29308
1.29306
1.29304
1.29295
1.29308
1.29316
1.29315
1.29316
1.29317
1.29318
1.29317
1.29318
1.29317
1.29318
1.29318
1.29318
1.29317
1.29316
1.29314
1.29312
1.2931
1.29309
1.29307
1.29304
1.29302
1.29299
1.29297
1.29309
1.29314
1.29313
1.29314
1.29316
1.29317
1.29317
1.29317
1.29317
1.29317
1.29317
1.29317
1.29316
1.29314
1.29312
1.2931
1.29308
1.29306
1.29303
1.29301
1.29299
1.29297
1.29299
1.2931
1.29312
1.2931
1.29311
1.29314
1.29316
1.29316
1.29317
1.29317
1.29317
1.29317
1.29316
1.29314
1.29312
1.2931
1.29308
1.29306
1.29303
1.29301
1.29299
1.29297
1.29296
1.29298
1.29309
1.2931
1.29308
1.29308
1.29312
1.29315
1.29316
1.29316
1.29316
1.29316
1.29316
1.29315
1.29313
1.2931
1.29308
1.29306
1.29303
1.29301
1.293
1.29298
1.29297
1.29295
1.29297
1.29308
1.29309
1.29306
1.29306
1.2931
1.29315
1.29316
1.29316
1.29316
1.29316
1.29315
1.29313
1.29311
1.29309
1.29306
1.29304
1.29302
1.293
1.29299
1.29298
1.29296
1.29296
1.29296
1.29306
1.29309
1.29306
1.29305
1.29309
1.29314
1.29315
1.29316
1.29316
1.29315
1.29314
1.29312
1.2931
1.29307
1.29305
1.29303
1.29301
1.293
1.29298
1.29297
1.29297
1.29296
1.29296
1.29304
1.29308
1.29306
1.29305
1.29308
1.29314
1.29315
1.29316
1.29315
1.29315
1.29313
1.29311
1.29308
1.29306
1.29304
1.29302
1.29301
1.293
1.29299
1.29298
1.29297
1.29297
1.29296
1.29302
1.29307
1.29306
1.29305
1.29309
1.29314
1.29315
1.29315
1.29315
1.29314
1.29312
1.29309
1.29307
1.29305
1.29303
1.29302
1.29301
1.293
1.29299
1.29299
1.29299
1.29299
1.29296
1.293
1.29306
1.29304
1.29305
1.2931
1.29314
1.29315
1.29315
1.29315
1.29313
1.29311
1.29308
1.29306
1.29304
1.29302
1.29302
1.29301
1.29301
1.29301
1.29301
1.29301
1.29301
1.29296
1.29299
1.29303
1.29303
1.29306
1.29312
1.29315
1.29315
1.29315
1.29314
1.29312
1.29309
1.29307
1.29305
1.29303
1.29302
1.29302
1.29302
1.29302
1.29302
1.29303
1.29303
1.29303
1.29297
1.29299
1.29302
1.29304
1.29309
1.29314
1.29315
1.29315
1.29314
1.29313
1.29311
1.29308
1.29306
1.29304
1.29303
1.29303
1.29303
1.29303
1.29303
1.29304
1.29304
1.29305
1.29305
1.29298
1.293
1.29303
1.29307
1.29312
1.29315
1.29315
1.29315
1.29314
1.29312
1.29309
1.29307
1.29305
1.29304
1.29303
1.29303
1.29303
1.29304
1.29305
1.29305
1.29306
1.29306
1.29307
1.29302
1.29303
1.29306
1.29311
1.29314
1.29315
1.29315
1.29314
1.29313
1.29311
1.29308
1.29306
1.29304
1.29303
1.29303
1.29304
1.29304
1.29305
1.29306
1.29307
1.29307
1.29308
1.29308
1.29308
1.29309
1.29311
1.29313
1.29314
1.29314
1.29314
1.29313
1.29312
1.2931
1.29307
1.29305
1.29304
1.29304
1.29304
1.29304
1.29305
1.29306
1.29307
1.29308
1.29308
1.29309
1.29309
1.29312
1.29312
1.29313
1.29314
1.29314
1.29314
1.29313
1.29312
1.2931
1.29308
1.29306
1.29304
1.29304
1.29304
1.29304
1.29305
1.29306
1.29307
1.29308
1.29309
1.29309
1.2931
1.2931
1.29313
1.29313
1.29314
1.29314
1.29314
1.29313
1.29313
1.29311
1.29309
1.29307
1.29305
1.29304
1.29304
1.29304
1.29305
1.29306
1.29307
1.29308
1.29309
1.2931
1.2931
1.2931
1.2931
1.29313
1.29313
1.29313
1.29313
1.29313
1.29313
1.29312
1.2931
1.29308
1.29306
1.29304
1.29304
1.29304
1.29304
1.29305
1.29307
1.29308
1.29309
1.2931
1.2931
1.29311
1.29311
1.29311
1.29313
1.29313
1.29313
1.29313
1.29312
1.29312
1.2931
1.29308
1.29307
1.29305
1.29304
1.29304
1.29304
1.29305
1.29306
1.29308
1.29309
1.2931
1.2931
1.29311
1.29311
1.29311
1.29311
1.29312
1.29312
1.29312
1.29312
1.29311
1.2931
1.29309
1.29307
1.29306
1.29304
1.29304
1.29304
1.29304
1.29306
1.29307
1.29308
1.29309
1.2931
1.29311
1.29311
1.29311
1.29311
1.29311
1.29312
1.29312
1.29312
1.29311
1.2931
1.29309
1.29307
1.29306
1.29305
1.29304
1.29304
1.29304
1.29305
1.29307
1.29308
1.29309
1.2931
1.2931
1.2931
1.2931
1.29311
1.29311
1.29311
1.29613
1.29639
1.29645
1.2958
1.29545
1.29537
1.29519
1.29496
1.29422
1.29382
1.29373
1.29378
1.29262
1.29273
1.29294
1.29309
1.29167
1.29186
1.29225
1.29237
1.29191
1.29219
1.29233
1.29258
1.29237
1.29258
1.29265
1.29269
1.29264
1.29265
1.29266
1.29267
1.29247
1.29255
1.29259
1.29261
1.29258
1.29257
1.29259
1.29259
1.29253
1.29251
1.29253
1.29252
1.29282
1.29281
1.2928
1.29279
1.29301
1.29301
1.293
1.29296
1.29309
1.29308
1.29308
1.29306
1.29313
1.29313
1.29314
1.29313
1.29314
1.29314
1.29314
1.29314
1.29313
1.29313
1.29313
1.29313
1.29315
1.29315
1.29314
1.29314
1.29318
1.29318
1.29317
1.29317
1.29315
1.29314
1.29314
1.29312
1.29308
1.29307
1.29305
1.29303
1.29301
1.29299
1.29298
1.29297
1.29297
1.29296
1.29295
1.29294
1.29295
1.29295
1.29294
1.29293
1.29295
1.29294
1.29294
1.29294
1.29295
1.29295
1.29294
1.29295
1.29295
1.29295
1.29295
1.29296
1.29296
1.29296
1.29296
1.29297
1.29297
1.29298
1.29298
1.29298
1.29299
1.29299
1.29299
1.293
1.29301
1.29301
1.29302
1.29302
1.29303
1.29304
1.29304
1.29304
1.29305
1.29305
1.29305
1.29306
1.29307
1.29307
1.29307
1.29307
1.29308
1.29308
1.29308
1.29308
1.29309
1.29309
1.29309
1.29309
1.2931
1.2931
1.2931
1.2931
1.2931
1.2931
1.2931
1.2931
1.29311
1.29311
1.29311
1.2931
1.29311
1.29311
1.2931
1.2931
1.29311
1.29311
1.2931
1.2931
1.2931
1.2931
1.2931
1.2931
1.29625
1.29552
1.29592
1.29563
1.29576
1.29562
1.29587
1.29544
1.29481
1.29519
1.29439
1.29442
1.29372
1.2942
1.2941
1.29436
1.29414
1.29385
1.2938
1.29523
1.2956
1.29569
1.29554
1.29583
1.29565
1.29535
1.29399
1.29411
1.2936
1.29362
1.2934
1.29321
1.2932
1.29319
1.29323
1.29322
1.29326
1.29331
1.29491
1.29497
1.29525
1.29478
1.29534
1.29499
1.29455
1.29428
1.29427
1.29362
1.29314
1.29293
1.29296
1.29299
1.29299
1.29309
1.2932
1.29324
1.29329
1.29383
1.29372
1.2941
1.29373
1.29393
1.29394
1.29374
1.29365
1.29375
1.29324
1.29306
1.29297
1.29298
1.29302
1.2931
1.29321
1.29328
1.29331
1.29331
1.29287
1.29303
1.29315
1.2931
1.29335
1.29331
1.29334
1.29345
1.29372
1.29327
1.29315
1.29295
1.29289
1.29289
1.29297
1.29317
1.29327
1.29327
1.29326
1.29282
1.29283
1.29282
1.29277
1.29288
1.29316
1.29317
1.29317
1.29317
1.29312
1.29309
1.29304
1.29301
1.29292
1.29293
1.29315
1.29325
1.29324
1.29325
1.29274
1.29273
1.29259
1.29254
1.2928
1.29313
1.29316
1.29316
1.29317
1.29315
1.2931
1.2931
1.29309
1.29304
1.29295
1.29302
1.29314
1.29321
1.29324
1.29267
1.29266
1.29251
1.29245
1.29271
1.29313
1.29317
1.29316
1.29316
1.29316
1.29316
1.29315
1.29314
1.29309
1.29303
1.293
1.29313
1.29321
1.29324
1.29262
1.29257
1.2925
1.29243
1.29265
1.2931
1.29316
1.29316
1.29316
1.29316
1.29316
1.29315
1.29312
1.2931
1.29309
1.29309
1.29317
1.29322
1.29323
1.29263
1.29265
1.29265
1.2926
1.29267
1.29304
1.29316
1.29315
1.29316
1.29316
1.29317
1.29317
1.29318
1.29318
1.29319
1.29319
1.29321
1.29322
1.29323
1.29261
1.29269
1.29267
1.29259
1.29299
1.29316
1.29316
1.29314
1.29314
1.29314
1.29316
1.29317
1.29318
1.29319
1.2932
1.29321
1.29321
1.29322
1.29322
1.29288
1.29277
1.29262
1.29266
1.29309
1.29315
1.29313
1.29312
1.29312
1.29313
1.29315
1.29316
1.29317
1.29318
1.29319
1.2932
1.29321
1.29321
1.29322
1.2929
1.29269
1.2926
1.29288
1.29312
1.29313
1.29311
1.29311
1.29312
1.29313
1.29314
1.29315
1.29316
1.29317
1.29318
1.2932
1.29321
1.29321
1.29321
1.29304
1.29296
1.2929
1.29305
1.29312
1.29312
1.2931
1.29311
1.29312
1.29311
1.29312
1.29313
1.29315
1.29316
1.29318
1.29319
1.2932
1.2932
1.29321
1.29312
1.29311
1.29309
1.2931
1.29312
1.29311
1.29311
1.29311
1.29309
1.29306
1.29307
1.29309
1.29312
1.29314
1.29317
1.29318
1.29319
1.2932
1.2932
1.29313
1.29312
1.29311
1.29311
1.29311
1.29311
1.29311
1.29307
1.29302
1.29298
1.29298
1.293
1.29305
1.29309
1.29314
1.29317
1.29319
1.2932
1.2932
1.29313
1.29313
1.29312
1.29312
1.29312
1.29312
1.29309
1.29298
1.29294
1.29292
1.29292
1.29294
1.29298
1.29304
1.29309
1.29314
1.29318
1.29319
1.2932
1.29313
1.29313
1.29313
1.29313
1.29312
1.29307
1.29297
1.29291
1.29289
1.29288
1.29288
1.29289
1.29294
1.293
1.29306
1.29311
1.29316
1.29318
1.29319
1.29316
1.29315
1.29312
1.29308
1.29301
1.29295
1.29291
1.29288
1.29287
1.29286
1.29285
1.29286
1.2929
1.29296
1.29303
1.29309
1.29315
1.29318
1.29319
1.2931
1.29304
1.29299
1.29295
1.29292
1.2929
1.29289
1.29287
1.29286
1.29284
1.29283
1.29283
1.29286
1.29293
1.293
1.29307
1.29313
1.29317
1.29318
1.29299
1.29296
1.29293
1.29292
1.2929
1.29289
1.29288
1.29287
1.29285
1.29284
1.29282
1.29282
1.29283
1.29289
1.29298
1.29306
1.29312
1.29316
1.29318
1.29295
1.29293
1.29292
1.29291
1.2929
1.2929
1.29289
1.29288
1.29285
1.29283
1.29282
1.2928
1.2928
1.29285
1.29295
1.29305
1.29311
1.29316
1.29318
1.29293
1.29292
1.29292
1.29291
1.29291
1.29291
1.29291
1.2929
1.29287
1.29284
1.29281
1.2928
1.29279
1.29281
1.29291
1.29303
1.29311
1.29315
1.29317
1.29293
1.29293
1.29293
1.29293
1.29293
1.29293
1.29293
1.29292
1.2929
1.29286
1.29282
1.29279
1.29278
1.29278
1.29286
1.293
1.2931
1.29315
1.29317
1.29294
1.29294
1.29295
1.29295
1.29295
1.29295
1.29295
1.29294
1.29292
1.29289
1.29284
1.2928
1.29277
1.29277
1.29282
1.29296
1.29308
1.29314
1.29317
1.29295
1.29295
1.29296
1.29297
1.29297
1.29297
1.29296
1.29295
1.29293
1.29291
1.29287
1.29281
1.29277
1.29276
1.29278
1.29291
1.29306
1.29314
1.29316
1.29296
1.29297
1.29297
1.29298
1.29298
1.29298
1.29298
1.29297
1.29295
1.29292
1.29289
1.29283
1.29277
1.29275
1.29275
1.29286
1.29303
1.29313
1.29316
1.29297
1.29298
1.29298
1.29299
1.29299
1.293
1.29299
1.29298
1.29296
1.29294
1.2929
1.29285
1.29279
1.29274
1.29273
1.29281
1.29299
1.29312
1.29315
1.29298
1.29299
1.293
1.293
1.293
1.29301
1.293
1.29299
1.29298
1.29295
1.29292
1.29287
1.2928
1.29274
1.29272
1.29278
1.29294
1.2931
1.29315
1.293
1.293
1.29301
1.29301
1.29301
1.29302
1.29301
1.293
1.29299
1.29296
1.29293
1.29289
1.29282
1.29275
1.29271
1.29275
1.29289
1.29308
1.29314
1.29302
1.29302
1.29302
1.29302
1.29302
1.29302
1.29302
1.29301
1.29299
1.29297
1.29294
1.2929
1.29284
1.29276
1.29271
1.29273
1.29285
1.29305
1.29314
1.29304
1.29304
1.29304
1.29304
1.29303
1.29303
1.29303
1.29302
1.293
1.29298
1.29295
1.29291
1.29285
1.29277
1.29271
1.29271
1.29281
1.29301
1.29313
1.29306
1.29305
1.29305
1.29305
1.29304
1.29304
1.29303
1.29302
1.29301
1.29299
1.29296
1.29292
1.29286
1.29278
1.29271
1.29269
1.29277
1.29298
1.29312
1.29307
1.29307
1.29306
1.29306
1.29305
1.29305
1.29304
1.29303
1.29301
1.29299
1.29296
1.29292
1.29287
1.29279
1.29272
1.29268
1.29274
1.29294
1.29311
1.29308
1.29308
1.29307
1.29306
1.29306
1.29305
1.29304
1.29303
1.29301
1.29299
1.29297
1.29293
1.29287
1.2928
1.29272
1.29267
1.29272
1.2929
1.2931
1.29309
1.29308
1.29308
1.29307
1.29306
1.29305
1.29304
1.29303
1.29302
1.293
1.29297
1.29293
1.29288
1.29281
1.29273
1.29267
1.2927
1.29286
1.29308
1.2931
1.29309
1.29308
1.29307
1.29306
1.29306
1.29304
1.29303
1.29302
1.293
1.29297
1.29293
1.29288
1.29281
1.29273
1.29266
1.29268
1.29282
1.29306
1.2931
1.29309
1.29308
1.29307
1.29306
1.29306
1.29304
1.29303
1.29302
1.293
1.29297
1.29293
1.29288
1.29281
1.29273
1.29266
1.29267
1.29279
1.29305
1.2931
1.29309
1.29308
1.29307
1.29306
1.29306
1.29304
1.29303
1.29302
1.293
1.29297
1.29293
1.29288
1.29281
1.29273
1.29265
1.29265
1.29276
1.29302
1.2931
1.29309
1.29308
1.29307
1.29306
1.29305
1.29304
1.29303
1.29302
1.293
1.29297
1.29293
1.29288
1.29281
1.29273
1.29265
1.29264
1.29274
1.293
1.2931
1.29309
1.29308
1.29307
1.29306
1.29305
1.29304
1.29303
1.29301
1.293
1.29297
1.29293
1.29288
1.29281
1.29273
1.29265
1.29262
1.29271
1.29298
1.2931
1.29309
1.29308
1.29307
1.29306
1.29305
1.29304
1.29303
1.29301
1.29299
1.29297
1.29293
1.29288
1.29281
1.29272
1.29264
1.29262
1.29268
1.29295
)
;

boundaryField
{
    leftWall
    {
        type            calculated;
        value           nonuniform List<scalar> 
50
(
1.30565
1.30491
1.30417
1.30345
1.30273
1.30204
1.30133
1.30068
1.29962
1.29838
1.29715
1.29621
1.29554
1.29531
1.29495
1.2943
1.29398
1.29344
1.29356
1.29315
1.29312
1.29313
1.29313
1.29311
1.29303
1.29296
1.29287
1.29284
1.29287
1.29292
1.29295
1.29297
1.29299
1.29298
1.29297
1.29296
1.29296
1.29296
1.29296
1.29296
1.29297
1.29298
1.29302
1.29308
1.29312
1.29313
1.29313
1.29313
1.29312
1.29312
)
;
    }
    rightWall
    {
        type            calculated;
        value           nonuniform List<scalar> 
50
(
1.30011
1.29918
1.29835
1.29763
1.29693
1.29622
1.2954
1.29466
1.2938
1.29331
1.29329
1.29331
1.29326
1.29325
1.29324
1.29324
1.29323
1.29323
1.29322
1.29322
1.29321
1.29321
1.2932
1.2932
1.2932
1.29319
1.29319
1.29318
1.29318
1.29318
1.29317
1.29317
1.29317
1.29316
1.29316
1.29315
1.29315
1.29314
1.29314
1.29313
1.29312
1.29311
1.2931
1.29308
1.29306
1.29305
1.29302
1.293
1.29298
1.29295
)
;
    }
    lowerWall
    {
        type            calculated;
        value           nonuniform List<scalar> 
62
(
1.30602
1.30597
1.30591
1.30578
1.30569
1.30551
1.30542
1.30521
1.3051
1.30484
1.30468
1.30432
1.3041
1.30368
1.30343
1.30305
1.30288
1.30264
1.30262
1.30257
1.30264
1.30271
1.30279
1.30242
1.30166
1.30094
1.30017
1.29948
1.29872
1.29801
1.29733
1.29692
1.29719
1.2971
1.29641
1.30384
1.30155
1.29834
1.29863
1.29797
1.2975
1.29696
1.29629
1.30404
1.29736
1.29678
1.29675
1.29802
1.29945
1.30187
1.30273
1.30093
1.30057
1.29938
1.3
1.29968
1.29809
1.29751
1.29767
1.29779
1.29947
1.30047
)
;
    }
    atmosphere
    {
        type            calculated;
        value           nonuniform List<scalar> 
46
(
1.29321
1.29321
1.29321
1.2932
1.29319
1.29318
1.29316
1.29315
1.29314
1.29313
1.29313
1.29313
1.29315
1.29316
1.29318
1.29319
1.29319
1.2932
1.2932
1.2932
1.2932
1.2932
1.2932
1.2932
1.2932
1.29319
1.29319
1.29319
1.29318
1.29317
1.29316
1.29315
1.29314
1.29313
1.29312
1.29311
1.29309
1.29306
1.29302
1.29297
1.2929
1.29281
1.29274
1.29271
1.29278
1.29304
)
;
    }
    defaultFaces
    {
        type            empty;
    }
}


// ************************************************************************* //
