/*--------------------------------*- C++ -*----------------------------------*\
| =========                 |                                                 |
| \\      /  F ield         | OpenFOAM: The Open Source CFD Toolbox           |
|  \\    /   O peration     | Version:  2012                                  |
|   \\  /    A nd           | Website:  www.openfoam.com                      |
|    \\/     M anipulation  |                                                 |
\*---------------------------------------------------------------------------*/
FoamFile
{
    version     2.0;
    format      ascii;
    class       volScalarField;
    location    "0.96";
    object      rhogh;
}
// * * * * * * * * * * * * * * * * * * * * * * * * * * * * * * * * * * * * * //

dimensions      [1 -1 -2 0 0 0 0];


internalField   nonuniform List<scalar> 
2268
(
-29.4294
-29.4294
-29.4294
-29.4294
-29.4294
-29.4294
-29.4294
-29.4294
-29.4294
-29.4294
-29.4294
-29.4294
-29.4294
-29.4294
-29.4294
-29.4294
-29.4294
-29.4294
-29.4294
-29.4294
-29.4294
-29.4294
-29.4272
-88.2881
-88.2881
-88.2881
-88.2881
-88.2881
-88.2881
-88.2881
-88.2881
-88.2881
-88.2881
-88.2881
-88.2881
-88.2881
-88.2881
-88.2881
-88.2881
-88.2881
-88.2881
-88.2881
-88.2881
-88.2881
-88.2881
-88.2709
-147.147
-147.147
-147.147
-147.147
-147.147
-147.147
-147.147
-147.147
-147.147
-147.147
-147.147
-147.147
-147.147
-147.147
-147.147
-147.147
-147.147
-147.147
-147.147
-147.147
-147.147
-147.147
-147.114
-206.006
-206.006
-206.006
-206.006
-206.006
-206.006
-206.006
-206.006
-206.006
-206.006
-206.006
-206.006
-206.006
-206.006
-206.006
-206.006
-206.006
-206.005
-206.006
-206.006
-206.006
-206.006
-205.96
-264.864
-264.864
-264.864
-264.864
-264.864
-264.864
-264.864
-264.864
-264.864
-264.864
-264.864
-264.864
-264.864
-264.864
-264.864
-264.864
-264.864
-264.864
-264.864
-264.864
-264.864
-264.864
-264.806
-323.723
-323.723
-323.723
-323.723
-323.723
-323.723
-323.723
-323.723
-323.723
-323.723
-323.723
-323.723
-323.723
-323.723
-323.723
-323.723
-323.723
-323.723
-323.722
-323.722
-323.723
-323.723
-323.655
-382.582
-382.582
-382.582
-382.582
-382.582
-382.582
-382.582
-382.582
-382.582
-382.582
-382.582
-382.582
-382.582
-382.582
-382.582
-382.582
-382.579
-382.502
-382.193
-382.352
-382.56
-382.581
-382.569
-441.44
-441.44
-441.44
-441.44
-441.44
-441.44
-441.44
-441.44
-441.44
-441.44
-441.44
-441.44
-441.44
-441.438
-441.383
-440.701
-437.282
-410.056
-374.904
-390.759
-441.439
-441.439
-441.439
-15.4022
-22.9197
-22.9198
-22.1527
-23.6192
-26.1216
-27.7966
-28.7866
-28.8413
-28.491
-25.3579
-24.403
-26.81
-28.6668
-28.6668
-28.6394
-28.5622
-28.8542
-28.8593
-22.7747
-22.7751
-9.45946
-9.81986
-21.6704
-43.0661
-77.4528
-86.5238
-86.5238
-86.5238
-86.5238
-77.1331
-81.2663
-66.2055
-58.7994
-51.3168
-46.73
-72.2596
-86.9459
-74.4225
-3.82595
-0.662633
-14.5359
-41.6984
-65.1894
-132.164
-144.206
-144.206
-144.206
-144.206
-143.771
-143.771
-121.03
-87.1508
-34.796
-30.8382
-93.3816
-144.91
-127.164
-17.2601
-0.495679
-23.2155
-158.791
-191.413
-201.889
-201.889
-201.889
-201.711
-196.873
-200.673
-201.28
-201.09
-191.343
-100.961
-43.1734
-162.594
-202.911
-163.519
-52.3083
-0.637394
-0.343261
-84.4583
-160.564
-259.572
-259.572
-256.21
-178.813
-105.685
-120.184
-208.974
-258.569
-258.569
-158.561
-148.802
-239.402
-262.422
-199.617
-54.0465
-0.679252
-0.419541
-8.24728
-64.2931
-295.599
-314.749
-173.446
-28.2909
-19.8761
-20.8843
-63.3258
-210.477
-305.728
-227.351
-268.733
-319.353
-320.738
-253.805
-28.686
-0.802863
-25.2286
-9.63956
-45.5445
-294.4
-334.21
-49.5095
-24.2284
-32.5429
-57.1445
-44.9301
-47.9875
-266.037
-333.222
-367.405
-373.719
-375.825
-314.509
-25.4688
-44.4934
-60.7231
-10.9725
-35.4065
-308.039
-327.515
-33.9429
-49.6771
-224.895
-253.765
-98.014
-52.3401
-159.881
-396.243
-398.317
-414.02
-401.003
-533.467
-533.467
-533.467
-533.467
-533.467
-533.467
-533.467
-533.467
-533.467
-533.467
-533.436
-533.288
-532.821
-529.627
-505.356
-421.371
-294.848
-211.872
-164.959
-181.744
-289.597
-459.985
-529.887
-658.662
-658.662
-658.662
-658.662
-658.662
-658.662
-658.662
-658.662
-658.662
-648.073
-632.64
-620.075
-566.595
-436.694
-205.147
-56.2579
-0.136031
-0.556101
-3.05619
-22.2369
-70.0857
-237.389
-638.86
-783.856
-783.854
-783.806
-783.856
-774.748
-614.623
-516.192
-591.215
-677.376
-678.156
-602.345
-385.325
-128.912
-17.1413
-0.436068
-0.436092
-0.377944
-16.2342
-206.83
-518.045
-522.29
-359.867
-589.297
-909.05
-908.777
-885.363
-603.735
-299.805
-185.706
-159.947
-211.17
-399.862
-505.991
-349.331
-40.4114
-7.05248
-7.05214
-0.991419
-0.0320441
-3.51402
-206.158
-779.682
-865.341
-865.341
-720.937
-646.75
-1034.15
-1013.03
-591.868
-70.1254
-70.0829
-73.9568
-58.5373
-38.2346
-93.5674
-94.1091
-48.402
-75.0689
-177.413
-167.201
-22.0332
-3.76101e-05
-47.5848
-677.85
-984.516
-984.516
-982.383
-812.541
-774.101
-1153.67
-846.434
-180.098
-101.327
-99.7462
-96.3618
-26.5481
-8.93212e-05
-2.03971
-1.92529
-99.9098
-284.275
-284.276
-284.275
-89.8682
-4.21585e-05
-122.19
-895.471
-1103.69
-1103.69
-1103.69
-1094.05
-1082.53
-1264.81
-651.454
-91.7906
-97.2985
-95.8138
-5.69789
-9.89659e-05
-9.89659e-05
-0.000397151
-1.17744
-118.667
-314.971
-314.573
-180.618
-29.639
-4.67155e-05
-43.6066
-700.096
-1222.87
-1222.87
-1222.87
-1222.87
-1222.87
-1380.14
-591.303
-3.3722e-05
-28.6764
-3.4835
-0.196138
-0.314839
-0.0202703
-0.000436028
-2.95159
-25.5924
-35.7954
-39.7959
-1.88023e-07
-1.88022e-07
-0.952399
-16.6544
-211.649
-743.632
-1158.39
-1262.18
-1161.89
-1218.18
-1504.89
-645.11
-3.66915e-05
-1.01386
-0.0943218
-0.213527
-0.450864
-0.708076
-6.37908
-8.41538
-1.68366
-2.04719e-07
-2.04719e-07
-7.4515e-06
-0.079696
-5.38532
-8.84821
-2.80805e-07
-2.80805e-07
-248.675
-1015.63
-1176.13
-563.792
-1627.62
-639.211
-3.97112e-05
-0.00628702
-0.0113058
-0.0449937
-0.056617
-0.790119
-4.16107
-2.63861
-2.21416e-07
-3.73656e-05
-8.68321e-05
-6.82348e-05
-0.459521
-3.16586
-2.04593
-3.03707e-07
-6.81074e-07
-6.81001e-07
-121.954
-681.04
-630.933
-1333.13
-297.697
-0.0404871
-2.81311e-05
-2.81263e-05
-2.50298e-05
-0.00214261
-0.400433
-1.79286
-1.34581
-2.38112e-07
-0.000695458
-0.000858165
-0.000742036
-0.0109327
-0.058854
-1.99266e-06
-1.99256e-06
-6.48892e-06
-0.0471823
-2.593
-131.86
-549.677
-225.05
-26.0864
-0.0510493
-8.8869e-05
-1.94518e-07
-3.28707e-07
-0.00105074
-0.0483778
-0.0936876
-1.43988e-06
-0.000198095
-0.00123148
-0.00122868
-2.55005e-07
-2.55008e-07
-2.55005e-07
-9.86494e-06
-1.38828e-05
-1.54145e-05
-0.000880093
-0.263375
-9.44783
-133.979
-1.08451
-0.650512
-0.576836
-1.17336e-07
-2.07263e-07
-2.34775e-06
-0.00019699
-0.000851854
-2.58371e-06
-1.53408e-06
-1.89249e-05
-0.000140951
-0.000339154
-2.71718e-07
-5.79221e-07
-4.10125e-06
-1.40725e-05
-1.6498e-05
-1.62824e-05
-0.000355982
-0.0518279
-0.565049
-5.3728
-0.176724
-0.176723
-0.911169
-1.24561e-07
-2.81195e-07
-2.80616e-06
-1.36034e-05
-1.33889e-06
-1.3164e-06
-1.62904e-06
-1.65358e-06
-3.59631e-07
-3.59618e-07
-6.79811e-07
-1.93089e-06
-1.92197e-06
-3.03507e-06
-6.44836e-06
-5.0436e-06
-1.13358e-06
-1.39749e-07
-1.39748e-07
-1.39749e-07
-121.134
-1.32204e-18
-0.894153
-1.31085e-07
-2.05323e-07
-1.51035e-06
-1.06837e-06
-6.11704e-07
-1.47256e-06
-4.24767e-06
-1.09965e-05
-9.43356e-06
-1.94192e-06
-1.03356e-06
-1.71837e-06
-1.04881e-06
-2.9069e-07
-1.47845e-07
-1.47844e-07
-1.47845e-07
-1.47844e-07
-1.58752e-07
-0.00096698
-414.478
-1.47987e-08
-0.109479
-0.00112148
-1.47373e-07
-2.80179e-07
-4.1626e-07
-6.45203e-07
-1.56263e-06
-4.81482e-06
-9.19611e-06
-5.79593e-06
-5.84455e-07
-7.94541e-07
-9.76559e-07
-6.97806e-07
-3.37574e-07
-2.01315e-07
-1.69029e-07
-1.8133e-07
-1.70139e-07
-4.23675e-07
-0.0540815
-439.315
7.85136e-23
-0.000372475
-0.00311843
-2.08472e-05
-1.0706e-07
-2.96771e-07
-6.54563e-07
-1.62421e-06
-3.54868e-06
-4.40019e-06
-2.06405e-06
-6.0561e-07
-4.55848e-07
-4.44978e-07
-2.76305e-07
-1.87414e-07
-1.69215e-07
-2.25996e-07
-4.97655e-07
-1.05109e-06
-8.72684e-06
-0.0105613
-461.005
-0.0646678
-2.13874e-06
-0.00326913
-7.09131e-05
-1.11694e-07
-2.73032e-07
-6.5034e-07
-1.60844e-06
-2.29816e-06
-2.02458e-06
-6.64288e-07
-3.39651e-07
-2.77676e-07
-2.27476e-07
-1.27903e-07
-1.02146e-07
-1.30028e-07
-3.88557e-07
-2.24253e-06
-1.31768e-05
-2.07343e-05
-4.35598e-06
-348.765
-0.730236
-2.23571e-06
-0.000633321
-8.12345e-05
-1.1659e-07
-2.69078e-07
-6.03913e-07
-1.39743e-06
-1.74764e-06
-1.33301e-06
-3.60988e-07
-1.90187e-07
-1.49595e-07
-1.05696e-07
-7.63674e-08
-8.51479e-08
-1.62366e-07
-4.51556e-07
-9.41607e-07
-1.184e-06
-1.07214e-06
-4.46595e-07
-23.023
-0.437552
-2.33992e-06
-2.33614e-06
-1.54393e-05
-1.21835e-07
-2.56752e-07
-5.27771e-07
-1.04695e-06
-1.16882e-06
-7.62001e-07
-1.97693e-07
-1.05045e-07
-7.5822e-08
-6.46038e-08
-7.71225e-08
-1.95475e-07
-6.93833e-07
-2.05625e-06
-5.98647e-06
-1.37454e-05
-1.91515e-05
-1.90768e-05
-0.0371356
-0.269226
-2.43657e-06
-0.000383915
-1.27073e-07
-1.27071e-07
-2.04901e-07
-4.42974e-07
-7.43229e-07
-7.58384e-07
-3.7081e-07
-1.01054e-07
-5.56003e-08
-4.86989e-08
-7.45713e-08
-2.65798e-07
-1.16623e-06
-5.23001e-06
-2.21813e-05
-4.86035e-05
-5.71047e-05
-4.98393e-05
-4.0201e-05
-0.000422902
-0.0100576
-0.000294381
-0.00056806
-8.75017e-07
-8.23347e-08
-9.61151e-08
-3.46346e-07
-5.32918e-07
-4.99007e-07
-1.85114e-07
-5.47418e-08
-3.88836e-08
-5.30675e-08
-1.78685e-07
-7.79544e-07
-3.70688e-06
-3.48894e-05
-0.000136084
-0.000137994
-7.6846e-05
-7.02722e-06
-1.22086e-05
-2.92869e-05
-9.78139e-05
-0.000525837
-0.00052586
-9.09637e-07
-1.78782e-05
-2.59297e-08
-2.14102e-07
-3.52697e-07
-3.03286e-07
-9.50156e-08
-3.72663e-08
-4.33259e-08
-1.28367e-07
-6.07339e-07
-3.41111e-06
-3.76e-05
-0.000168402
-0.000179254
-0.00013097
-9.53779e-08
-8.80311e-07
-1.95057e-06
-3.03896e-05
-3.30622e-05
-0.000187145
-7.18335e-05
-3.6907e-05
-0.000236713
-2.69171e-08
-1.31228e-07
-2.29554e-07
-1.86616e-07
-5.60787e-08
-3.07704e-08
-8.2851e-08
-4.10906e-07
-2.19034e-06
-2.56311e-05
-0.000160021
-0.000206023
-0.00017112
-8.38787e-06
-9.90102e-08
-2.44389e-07
-3.36187e-07
-3.57922e-05
-4.10745e-05
-4.10972e-05
-0.000464059
-0.00152984
-0.0012068
-2.79045e-08
-8.40668e-08
-1.57527e-07
-1.07847e-07
-2.87738e-08
-1.43776e-08
-1.63841e-08
-1.63832e-08
-9.40418e-07
-6.14718e-05
-0.000215369
-0.000213541
-4.44612e-05
-1.07638e-07
-1.07635e-07
-1.66303e-07
-1.6993e-07
-3.46777e-05
-3.86767e-05
-0.00174764
-0.00701067
-0.0120692
-0.00487118
-2.88918e-08
-5.62672e-08
-1.15508e-07
-7.29683e-08
-5.02211e-08
-1.96735e-07
-1.13427e-06
-8.02215e-06
-7.37222e-05
-0.000207307
-0.000183721
-3.42628e-05
-1.20223e-07
-1.20225e-07
-1.41748e-07
-1.4589e-07
-1.2851e-07
-2.61691e-05
-2.61701e-05
-0.00841778
-0.00863069
-0.0464831
-0.0165496
-2.98792e-08
-3.72052e-08
-7.99526e-08
-5.05594e-08
-8.52074e-08
-5.69216e-07
-4.84323e-06
-7.70142e-05
-0.000281798
-0.000281797
-8.22934e-05
-4.77154e-08
-2.51882e-07
-1.91921e-07
-1.24348e-07
-1.00267e-07
-6.86232e-08
-1.95823e-05
-0.00605816
-0.0090388
-0.00355732
-0.109034
-0.0361419
-3.08666e-08
-3.11778e-08
-5.65383e-08
-3.01865e-08
-7.43068e-08
-5.22244e-07
-6.22323e-06
-0.000150662
-0.000303837
-0.000263071
-3.94016e-08
-4.92947e-08
-1.4008e-07
-1.26716e-07
-6.49059e-08
-3.70406e-08
-1.83563e-08
-2.02087e-05
-0.00711365
-0.00490546
-0.0025236
-0.257765
-0.0504657
-9.84833e-06
-3.01072e-08
-4.33968e-08
-2.77051e-08
-3.40481e-08
-1.12389e-07
-1.64961e-06
-6.69281e-05
-0.00025951
-8.51538e-05
-4.06616e-08
-4.06769e-08
-5.05318e-08
-3.42149e-08
-1.71628e-08
-8.15014e-09
-3.32302e-09
-2.08351e-05
-0.00183173
-0.00140227
-0.119472
-0.315638
-0.0525797
-1.18772e-05
-3.1028e-08
-3.23868e-08
-6.94431e-08
-1.69197e-07
-1.15884e-07
-2.64826e-06
-8.26369e-05
-4.1881e-05
-2.37609e-06
-4.60864e-07
-7.28242e-08
-1.96648e-08
-7.59464e-09
-3.26465e-09
-1.1915e-09
-3.52046e-10
-2.14615e-05
-2.14615e-05
-0.00429577
-0.492433
-0.32513
-0.0128319
-3.63727e-06
-3.19736e-08
-3.56285e-08
-2.72371e-07
-3.15184e-06
-6.16215e-05
-0.000327998
-0.000370785
-1.33858e-08
-2.32789e-07
-4.37111e-07
-7.22217e-08
-1.06568e-08
-1.56697e-09
-4.68333e-10
-1.16129e-10
-2.13829e-11
-0.107977
-0.147651
-0.43152
-0.508486
-0.190793
-0.00196833
-5.65245e-07
-3.29753e-08
-4.06724e-08
-5.05982e-07
-1.06441e-05
-0.000258968
-0.000819567
-0.000383827
-1.37772e-08
-9.27409e-08
-1.80708e-07
-4.34078e-08
-4.18026e-09
-3.0151e-10
-5.13063e-11
-7.46524e-12
-8.06662e-13
-0.471955
-0.524658
-0.52498
-0.38894
-0.0284178
-0.000297365
-4.74218e-07
-3.67117e-08
-5.62505e-08
-1.11991e-06
-7.74463e-05
-0.000746713
-0.000842639
-0.000287658
-1.41672e-08
-3.71293e-08
-5.11943e-08
-1.20198e-08
-1.10666e-09
-5.28541e-11
-4.45101e-12
-3.24082e-13
-4.31922e-14
-0.107515
-0.259978
-0.28737
-0.0546431
-0.00299368
-5.43335e-05
-4.75032e-07
-3.95748e-08
-8.12558e-08
-1.4247e-06
-9.39798e-05
-0.000805034
-0.000818753
-1.45579e-08
-1.4516e-08
-1.83227e-08
-1.20275e-08
-2.63527e-09
-2.17047e-10
-7.401e-12
-2.74359e-13
-8.08564e-15
-2.68921e-15
-0.000480802
-0.000773837
-0.00145019
-0.000718065
-0.000161003
-9.7129e-06
-2.8842e-07
-4.01359e-08
-1.35485e-07
-1.69717e-06
-5.97303e-05
-0.000292028
-0.000277602
-1.49055e-08
-1.49062e-08
-1.49064e-08
-3.46128e-09
-5.40868e-10
-3.48205e-11
-7.97887e-13
-1.07636e-14
-5.50577e-16
-1.59018e-16
-1.34316e-07
-7.57254e-08
-6.78078e-08
-3.431e-07
-1.53417e-06
-1.13705e-06
-9.04e-08
-5.61856e-08
-1.18167e-07
-9.52336e-07
-2.0387e-05
-9.88821e-05
-5.65018e-06
-3.76605e-07
-5.06825e-08
-1.23295e-08
-1.30722e-09
-1.13061e-10
-4.54975e-12
-5.67236e-14
-1.84729e-16
-2.92126e-17
-7.61623e-18
-1.23004e-08
-4.72103e-09
-4.24142e-09
-2.96695e-08
-2.09783e-07
-1.76897e-07
-6.69205e-08
-1.11534e-07
-6.10477e-08
-6.10495e-08
-1.35121e-07
-0.000134819
-4.54221e-07
-3.86296e-07
-6.78139e-08
-9.93188e-09
-5.43421e-10
-2.48683e-11
-5.1306e-13
-2.39761e-15
-1.30484e-17
-1.55045e-18
-3.37109e-19
-3.16739e-09
-1.30987e-09
-1.87258e-09
-1.03303e-08
-5.25467e-08
-4.95153e-08
-1.66102e-07
-7.48894e-07
-6.25658e-08
-6.22784e-05
-0.000241322
-6.5431e-05
-1.91637e-08
-1.79479e-07
-5.11109e-08
-5.16455e-09
-1.83968e-10
-4.87376e-12
-4.42769e-14
-2.40222e-17
-5.35279e-19
-5.50511e-20
-1.10292e-20
-7.11422e-10
-3.59968e-10
-7.27702e-10
-3.76106e-09
-1.73844e-08
-4.72973e-08
-3.91197e-07
-9.53244e-06
-0.00024378
-0.00193318
-0.0018049
-1.22681e-08
-1.96306e-08
-6.26729e-08
-2.02903e-08
-1.48939e-09
-4.9399e-11
-8.01701e-13
-2.72098e-15
-4.02251e-19
-2.09405e-20
-1.73094e-21
-2.98281e-22
-1.51126e-10
-1.03549e-10
-4.1198e-10
-3.03552e-09
-1.75024e-08
-7.80438e-08
-8.18826e-07
-9.81796e-05
-0.00156891
-0.00215368
-0.00150126
-1.25584e-08
-1.89191e-08
-3.18531e-08
-7.2541e-09
-3.36965e-10
-1.01004e-11
-9.61754e-14
-8.18617e-17
-6.63356e-21
-3.07874e-22
-2.53038e-23
-4.62859e-24
-3.24923e-11
-5.72296e-11
-5.41585e-10
-5.43825e-09
-3.8798e-08
-1.09722e-07
-1.09726e-07
-9.59848e-05
-0.00193285
-0.00220372
-0.00023408
-1.28487e-08
-2.13157e-08
-2.19599e-08
-2.9184e-09
-6.5531e-11
-1.66821e-12
-8.37554e-15
-3.12822e-19
-5.48611e-23
-1.90882e-24
-1.67812e-25
-3.60078e-26
-1.21136e-11
-1.49634e-10
-2.60471e-09
-3.08134e-08
-2.82804e-07
-2.94283e-06
-4.58879e-05
-0.000243024
-0.000681739
-0.000715481
-1.3139e-08
-1.3139e-08
-2.21677e-08
-9.84689e-09
-8.24882e-10
-9.7401e-12
-1.93895e-13
-4.45059e-16
5.04226e-49
-1.09546e-30
-8.34023e-33
-8.54326e-34
-8.92029e-35
-531.418
-531.424
-435.012
-404.187
-656.139
-525.439
-499.372
-521.46
-574.494
-574.596
-716.462
-716.48
-693.082
-864.257
-864.263
-808.916
-983.29
-983.29
-983.289
-849.335
-1102.32
-1102.32
-1019.57
-579.776
-1193.65
-636.432
-235.849
-68.5776
-680.364
-34.5978
-1.36676
-1.13011
-228.901
-88.4079
-42.7791
-41.1554
-188.506
-68.5674
-67.6417
-60.9726
-414.081
-223.116
-103.743
-134.045
-359.069
-245.686
-131.418
-143.434
-26.4675
-33.7788
-29.9191
-28.3791
-0.450024
-1.30289
-2.0176
-3.27615
-0.660399
-1.37835
-0.592938
-0.000203197
-0.814021
-0.755655
-0.00547453
-0.00547284
-0.151444
-0.28084
-0.280814
-0.130576
-3.50676e-07
-0.00222504
-0.0477061
-0.0829477
-3.67167e-07
-3.26589e-07
-3.26605e-07
-3.26589e-07
-1.02766e-05
-6.19848e-06
-4.22518e-06
-3.01702e-06
-2.22365e-05
-3.63914e-06
-7.54981e-07
-2.26442e-06
-2.49332e-06
-7.16682e-07
-4.80054e-07
-3.97152e-07
-3.17862e-07
-1.2295e-07
-9.48771e-08
-6.68135e-08
-1.30231e-07
-9.22926e-08
-7.27526e-08
-5.49639e-08
-1.0431e-07
-7.35219e-08
-5.15625e-08
-3.49216e-08
-7.04145e-08
-4.54022e-08
-2.78673e-08
-1.70473e-08
-2.89369e-08
-1.70187e-08
-9.81946e-09
-5.71068e-09
-7.60219e-09
-4.24239e-09
-2.31464e-09
-1.29409e-09
-1.18567e-09
-6.03678e-10
-3.06171e-10
-1.70333e-10
-9.08479e-11
-4.08003e-11
-2.21784e-11
-1.49646e-11
-4.27508e-12
-2.61236e-12
-1.82369e-12
-1.27609e-12
-3.03622e-13
-2.13292e-13
-1.49583e-13
-1.05731e-13
-2.20463e-14
-1.53891e-14
-1.07851e-14
-7.65558e-15
-1.33776e-15
-9.32032e-16
-6.5486e-16
-4.67564e-16
-7.52888e-17
-5.18049e-17
-3.61578e-17
-2.57631e-17
-3.50061e-18
-2.38842e-18
-1.6576e-18
-1.17734e-18
-1.45712e-19
-9.76688e-20
-6.69065e-20
-4.70629e-20
-4.62746e-21
-3.05449e-21
-2.06705e-21
-1.44119e-21
-1.1925e-22
-7.6887e-23
-5.09071e-23
-3.48493e-23
-1.86871e-24
-1.19896e-24
-7.90802e-25
-5.40376e-25
-1.49158e-26
-9.5889e-27
-6.3241e-27
-4.30781e-27
-1.47642e-35
-6.09938e-36
-2.59483e-36
-1.1786e-36
-403.856
-157.483
-107.682
-51.8657
-7.86824
-26.282
-367.998
-273.737
-28.6527
-120.68
-384.428
-384.493
-310.219
-191.672
-318.693
-478.847
-470.217
-401.277
-355.212
-503.835
-240.712
-109.89
-109.889
-9.71463
-143.284
-462.751
-156.61
-35.3841
-98.4086
-417.236
-469.773
-422.606
-416.185
-392.794
-355.583
-194.103
-97.5333
-67.8381
-527.579
-327.18
-571.432
-675.492
-575.044
-679.312
-508.367
-47.7091
-42.1012
-178.322
-231.875
-80.6689
-0.428365
-0.00760221
-10.8811
-1.34456
-0.0080092
-0.00800895
-0.0371503
-569.761
-478.93
-788.867
-783.375
-761.917
-787.809
-752.691
-236.227
-48.873
-62.6948
-109.921
-18.9036
-0.0346437
-0.00881641
-0.00881641
-0.00881641
-0.022224
-0.110564
-0.0932414
-506.36
-295.959
-312.869
-140.111
-173.915
-335.256
-510.438
-637.224
-637.231
-575.548
-351.209
-53.6559
-5.58655
-0.821094
-0.0797809
-0.116793
-0.376226
-0.0921865
-0.0909135
-204.906
-0.929397
-9.50699
-9.507
-9.89226
-0.0173633
-0.0173634
-120.74
-91.7029
-18.9955
-20.3023
-52.8704
-38.692
-25.1837
-6.45723
-0.591175
-0.50672
-0.104448
-0.0894335
-13.6617
-1.02957
-3.41001
-22.5132
-28.147
-3.89749
-0.0192382
-0.0134038
-0.0133961
-0.0129719
-0.0129797
-0.0154635
-41.5836
-43.2555
-39.7528
-4.45489
-0.299738
-0.0844656
-0.0814319
-1.12991
-1.13011
-2.8789
-54.6879
-47.0871
-0.356604
-0.0211132
-0.136542
-0.212091
-0.115822
-0.0142474
-0.000552156
-0.942095
-26.2271
-32.831
-5.87287
-0.1006
-0.0999805
-0.0308985
-79.6838
-98.8458
-142.564
-162.721
-51.5563
-0.0521995
-0.052177
-0.0395264
-0.0355443
-0.000578118
-0.000577254
-0.00060116
-0.000601188
-0.00060116
-0.000601188
-0.945345
-0.0445222
-0.0845906
-1.83069e-07
-76.234
-179.001
-179.075
-168.256
-37.6093
-0.189129
-0.00763544
-0.0127345
-0.000625269
-0.000624334
-0.000625132
-0.000622799
-0.00146417
-0.00321683
-0.00321206
-0.00195339
-0.00551178
-0.00391055
-1.98003e-07
-41.3213
-16.8679
-36.6638
-0.0205189
-0.0205061
-0.0226202
-0.00821207
-0.000672419
-0.000672627
-0.000710078
-0.00111032
-0.000432815
-1.00317e-05
-1.00312e-05
-1.00013e-05
-1.00019e-05
-1.00019e-05
-9.23958e-07
-9.17997e-07
-99.1526
-18.0508
-1.39588
-1.39589
-0.839122
-0.00297445
-0.00297477
-0.00638976
-0.00209049
-0.00082719
-0.00105003
-4.90568e-05
-2.4837e-05
-3.48369e-05
-5.88585e-05
-9.92017e-05
-1.12862e-05
-2.75724e-06
-4.42234e-05
-17.4814
-26.582
-26.0238
-6.84352
-0.047961
-0.147167
-0.00105763
-0.00465212
-0.00261591
-0.00139842
-0.000203959
-3.9485e-05
-0.000144584
-0.00030914
-0.000345954
-0.000149797
-9.47471e-06
-5.8788e-06
-0.000454766
-5.74392
-18.0198
-20.3583
-4.40186
-0.0509799
-0.211979
-0.00112301
-0.00112267
-0.00182614
-0.00182608
-0.000210358
-1.82574e-05
-0.000211305
-0.00041662
-0.000416791
-9.46272e-05
-4.31875e-07
-4.08998e-05
-0.000636671
-0.000203208
-0.000203197
-0.571636
-0.716961
-0.190288
-0.217638
-0.00118771
-0.00221285
-0.00100557
-0.000799642
-0.0002371
-1.93155e-05
-7.88543e-06
-0.000194906
-0.00026679
-6.41868e-05
-4.56896e-07
-0.000259628
-0.000673329
-0.00238623
-0.00105678
-0.00637744
-0.0267995
-0.0669732
-0.0310237
-0.00743805
-0.00307926
-0.000449939
-4.46964e-07
-4.52377e-07
-7.3973e-06
-5.03901e-07
-4.94997e-07
-4.92168e-07
-1.139e-05
-4.81915e-07
-0.000419326
-0.000710411
-0.000937011
-0.000936808
-0.000442059
-0.000460084
-0.00183765
-0.00409155
-0.0033749
-7.55629e-08
-7.55907e-08
-1.7234e-06
-1.01235e-06
-4.53872e-06
-2.63827e-05
-8.81155e-06
-2.79677e-06
-2.38518e-06
-5.06936e-07
-0.000299925
-0.000333359
-0.0827215
-0.0747278
-0.00212566
-3.24547e-05
-3.2457e-05
-1.3636e-07
-1.35599e-07
-4.87706e-07
-3.04584e-06
-1.64152e-05
-1.11032e-05
-2.96367e-05
-0.000523358
-0.000835698
-0.00015041
-8.65707e-06
-8.98998e-07
-2.11152e-05
-5.6772e-06
-3.26605e-07
-3.26589e-07
-4.88295e-06
-4.39937e-05
-1.75387e-07
-1.71568e-07
-2.41184e-07
-9.79607e-07
-4.10619e-06
-4.30908e-05
-0.000144875
-8.70205e-05
-0.000876539
-0.00157005
-0.00115055
-7.18321e-05
-2.30892e-06
-2.30892e-06
-5.27632e-06
-1.87507e-06
-1.02599e-06
-9.14577e-07
-9.75252e-07
-6.61636e-07
-3.26288e-07
-4.05787e-07
-1.00945e-06
-3.01327e-06
-4.09361e-05
-0.000314159
-0.000489874
-0.000525177
-0.00146514
-0.00166984
-0.00045306
-1.18978e-05
-5.36178e-06
-8.61718e-06
-2.25306e-06
-1.22895e-06
-4.72265e-07
-1.96024e-07
-1.45972e-07
-1.60753e-07
-3.36223e-07
-5.90924e-07
-1.027e-06
-5.53532e-06
-0.000253371
-0.00128284
-0.000886208
-0.000441269
-0.00174153
-0.000948114
-4.25901e-05
-1.23367e-05
-1.6322e-05
-2.54124e-07
-9.51018e-08
-4.81837e-08
-3.46138e-08
-4.50019e-08
-8.36992e-08
-1.44045e-07
-2.31648e-07
-3.84766e-07
-1.23508e-06
-6.46062e-05
-0.00132028
-0.00214727
-0.000459087
-0.00180728
-0.00138425
-0.000112133
-2.64511e-05
-2.02782e-05
-4.31353e-08
-2.24586e-08
-1.51822e-08
-1.38222e-08
-1.82326e-08
-3.11329e-08
-4.87578e-08
-7.40903e-08
-1.33639e-07
-3.68333e-07
-6.34164e-06
-0.000337329
-0.00264957
-0.000520786
-0.000820194
-0.00161006
-0.000249908
-6.61182e-05
-2.10808e-05
-3.33858e-08
-1.25789e-08
-5.57672e-09
-4.37708e-09
-5.20533e-09
-8.964e-09
-1.47563e-08
-2.82591e-08
-7.83616e-08
-2.77668e-07
-9.13982e-07
-1.29638e-05
-0.00275047
-0.00876236
-0.00137115
-0.00167146
-0.000384708
-8.56878e-05
-0.000399021
-1.82214e-08
-4.71325e-09
-1.51331e-09
-1.00839e-09
-1.10587e-09
-2.03596e-09
-3.98759e-09
-9.62984e-09
-2.79995e-08
-5.52445e-08
-6.80511e-08
-1.58439e-06
-0.00238597
-0.0145424
-0.0113698
-0.00152977
-0.000458103
-0.000283228
-0.000614711
-8.11488e-09
-1.6467e-09
-3.75322e-10
-1.80361e-10
-1.77741e-10
-3.51089e-10
-8.40057e-10
-2.41322e-09
-8.06179e-09
-2.90581e-08
-1.04796e-07
-1.63076e-06
-0.000585108
-0.0138206
-0.0219938
-0.00113407
-0.000610615
-0.000636462
-0.000636462
-2.59103e-09
-5.03334e-10
-9.19058e-11
-2.68266e-11
-2.19134e-11
-4.51717e-11
-1.41262e-10
-5.6085e-10
-3.04158e-09
-2.00083e-08
-1.2445e-07
-7.14098e-07
-1.43855e-05
-0.00121849
-0.0225436
-0.00165313
-0.000530428
-0.000624255
-0.0006007
-5.87804e-10
-1.24873e-10
-2.11734e-11
-3.88726e-12
-2.13773e-12
-4.31475e-12
-1.99777e-11
-1.38545e-10
-1.32809e-09
-1.33383e-08
-1.13395e-07
-5.5365e-07
-3.11671e-06
-0.000354172
-0.00384292
-0.00211822
-0.000360878
-0.000202964
-0.000147681
-8.49698e-11
-2.12182e-11
-3.98722e-12
-5.98793e-13
-1.76507e-13
-3.24283e-13
-2.80805e-12
-3.34708e-11
-4.26787e-10
-4.9017e-09
-4.5298e-08
-2.09458e-07
-2.54132e-07
-6.39745e-07
-0.0022796
-0.0070177
-0.000435985
-3.38384e-05
-3.38384e-05
-8.19267e-12
-2.49638e-12
-5.76098e-13
-9.38458e-14
-1.60799e-14
-2.24175e-14
-3.11972e-13
-4.64504e-12
-6.2219e-11
-6.76907e-10
-4.96494e-09
-1.01986e-08
-1.03077e-09
-6.82517e-06
-0.0144197
-0.109761
-0.00218442
-3.48873e-05
-0.000686301
-7.29713e-13
-2.53708e-13
-6.91026e-14
-1.31066e-14
-1.84092e-15
-9.27942e-16
-1.32376e-14
-2.02516e-13
-2.56404e-12
-2.51374e-11
-1.33471e-10
-2.103e-10
-8.24707e-10
-1.44714e-06
-0.0164483
-0.154089
-0.0110812
-5.70703e-05
-0.00381794
-6.17538e-14
-2.30211e-14
-6.95866e-15
-1.49207e-15
-2.12148e-16
-2.00631e-17
-2.07632e-17
-2.58365e-16
-2.72448e-15
-2.12005e-14
-2.85045e-13
-1.55286e-11
-8.64756e-10
-1.10877e-06
-0.00570199
-0.150165
-0.0298757
-0.000256979
-0.004547
-4.52963e-15
-1.77606e-15
-5.82774e-16
-1.39261e-16
-2.18561e-17
-1.55825e-18
-1.57005e-19
-4.33323e-20
-2.96474e-18
-3.40491e-16
-4.22665e-14
-5.51199e-12
-8.60574e-10
-5.92163e-07
-0.000511732
-0.00694618
-0.0593563
-0.00244897
-0.00467592
-2.805e-16
-1.15163e-16
-4.09154e-17
-1.08381e-17
-1.9278e-18
-1.19877e-19
-1.13444e-20
-1.40951e-21
-4.75859e-21
-1.12918e-18
-2.14243e-16
-2.71657e-14
-1.32451e-12
9.94878e-25
2.38924e-22
9.47474e-21
-0.12944
-0.00889699
-0.00444082
-1.55368e-17
-6.58562e-18
-2.51435e-18
-7.35602e-19
-1.50074e-19
-8.25532e-21
-6.61002e-22
-9.47089e-23
-4.31161e-24
-1.8541e-25
-6.10712e-28
-4.8203e-52
3.48756e-27
7.28823e-25
1.22583e-22
1.35544e-20
-0.146706
-0.0230879
-0.00269076
-7.11299e-19
-3.07135e-19
-1.24108e-19
-3.99853e-20
-9.54276e-21
-5.07483e-22
-3.54591e-23
-5.08068e-24
-3.8236e-25
-2.23542e-26
-1.14412e-27
-8.26772e-29
-3.86094e-30
7.71753e-26
3.8139e-23
1.0869e-20
-0.150534
-0.0409986
-0.000985271
-2.82619e-20
-1.2307e-20
-5.2111e-21
-1.82169e-21
-5.02218e-22
-3.10735e-23
-2.23982e-24
-2.45076e-25
-2.28841e-26
-1.66233e-27
-1.00428e-28
-4.64631e-30
-1.89911e-31
1.23677e-26
9.90698e-24
5.28498e-21
-0.154291
-0.0460514
-0.000335091
-8.61502e-22
-3.77609e-22
-1.6537e-22
-6.10944e-23
-1.87712e-23
-1.45403e-24
-1.12771e-25
-1.03637e-26
-9.53062e-28
-7.57374e-29
-5.17211e-30
-2.8194e-31
-1.32989e-32
1.5922e-27
2.13027e-24
1.36716e-21
-0.158093
-0.0621364
-0.000343435
-2.05122e-23
-9.00778e-24
-4.11376e-24
-1.58794e-24
-5.46434e-25
-5.66312e-26
-4.74453e-27
-3.91443e-28
-3.29236e-29
-2.60276e-30
-1.8534e-31
-1.10093e-32
-5.69307e-34
1.51727e-28
3.49679e-25
1.28191e-22
-0.16178
-0.0962902
-0.000890962
-3.18414e-25
-1.41781e-25
-6.59613e-26
-2.60217e-26
-9.1458e-27
-1.02507e-27
-9.06782e-29
-7.51225e-30
-6.13812e-31
-4.79023e-32
-3.43211e-33
-2.11455e-34
-1.14306e-35
9.61259e-30
3.72807e-26
2.76316e-23
-0.0777617
-0.096986
-0.00222553
-2.52523e-27
-1.13398e-27
-5.43498e-28
-2.20113e-28
-8.29035e-29
-1.16605e-29
-1.16244e-30
-9.8752e-32
-7.80129e-33
-5.86264e-34
-4.08863e-35
-2.51843e-36
-1.37659e-37
2.78078e-31
1.84468e-27
6.47962e-24
3.56418e-25
-0.05162
-0.00307157
-4.09838e-37
-5.35446e-38
-6.49725e-39
-4.30808e-40
-2.63861e-41
-1.36477e-42
-7.13256e-44
-2.36285e-45
-4.11014e-47
-2.34445e-49
2.35121e-48
1.18402e-48
3.9475e-49
1.79493e-49
2.68351e-49
6.26664e-25
4.50537e-25
-0.107899
-0.0100337
)
;

boundaryField
{
    leftWall
    {
        type            calculated;
        value           nonuniform List<scalar> 
50
(
-29.4294
-88.2881
-147.147
-206.006
-264.864
-323.723
-382.582
-441.44
-533.467
-658.662
-783.856
-909.05
-1034.15
-1153.67
-1264.81
-1380.14
-1504.89
-1627.62
-1333.13
-225.05
-1.08451
-0.176724
-121.134
-414.478
-439.315
-461.005
-348.765
-23.023
-0.0371356
-0.000422902
-2.92869e-05
-3.03896e-05
-3.57922e-05
-3.46777e-05
-2.61691e-05
-1.95823e-05
-2.02087e-05
-2.08351e-05
-2.14615e-05
-0.107977
-0.471955
-0.107515
-0.000480802
-1.34316e-07
-1.23004e-08
-3.16739e-09
-7.11422e-10
-1.51126e-10
-3.24923e-11
-1.21136e-11
)
;
    }
    rightWall
    {
        type            calculated;
        value           nonuniform List<scalar> 
50
(
-28.8593
-86.9459
-144.91
-202.911
-262.422
-320.738
-375.825
-401.003
-355.212
-67.8381
-0.0371503
-0.0932414
-0.0909135
-0.0894335
-0.0814319
-0.0308985
-1.83069e-07
-1.98003e-07
-9.17997e-07
-4.42234e-05
-0.000454766
-0.000636671
-0.000673329
-0.000710411
-0.000333359
-5.6772e-06
-5.27632e-06
-8.61718e-06
-1.6322e-05
-2.02782e-05
-2.10808e-05
-0.000399021
-0.000614711
-0.000636462
-0.0006007
-0.000147681
-3.38384e-05
-0.000686301
-0.00381794
-0.004547
-0.00467592
-0.00444082
-0.00269076
-0.000985271
-0.000335091
-0.000343435
-0.000890962
-0.00222553
-0.00307157
-0.0100337
)
;
    }
    lowerWall
    {
        type            calculated;
        value           nonuniform List<scalar> 
62
(
0
0
0
0
0
0
0
0
0
0
0
0
0
0
0
0
0
0
0
0
0
0
0
-29.4272
-88.2709
-147.114
-205.96
-264.806
-323.655
-382.569
-441.439
-469.061
-469.066
-383.967
-356.76
-15.4022
-22.7747
-74.4225
-127.164
-163.519
-199.617
-253.805
-314.509
0
0
0
0
0
0
0
0
0
0
0
0
0
0
0
0
0
0
0
)
;
    }
    atmosphere
    {
        type            calculated;
        value           nonuniform List<scalar> 
46
(
-1.22475e-11
-1.51287e-10
-2.63349e-09
-3.11538e-08
-2.85928e-07
-2.97534e-06
-4.63948e-05
-0.000245709
-0.000689271
-0.000723385
-1.32842e-08
-1.32842e-08
-2.24126e-08
-9.95567e-09
-8.33994e-10
-9.8477e-12
-1.96037e-13
-4.49976e-16
-0
-0
-0
-0
-0
-0
-0
-0
-0
-0
-0
-0
-0
-0
-0
-0
-0
-0
-0
-0
-0
-0
-0
-0
-0
-0
-0.109091
-0.0101446
)
;
    }
    defaultFaces
    {
        type            empty;
    }
}


// ************************************************************************* //
