/*--------------------------------*- C++ -*----------------------------------*\
| =========                 |                                                 |
| \\      /  F ield         | OpenFOAM: The Open Source CFD Toolbox           |
|  \\    /   O peration     | Version:  3.0.1                                 |
|   \\  /    A nd           | Web:      www.OpenFOAM.org                      |
|    \\/     M anipulation  |                                                 |
\*---------------------------------------------------------------------------*/
FoamFile
{
    version     2.0;
    format      ascii;
    class       volScalarField;
    location    "0.0002";
    object      p;
}
// * * * * * * * * * * * * * * * * * * * * * * * * * * * * * * * * * * * * * //

dimensions      [1 -1 -2 0 0 0 0];

internalField   nonuniform List<scalar> 
1000
(
68970
68970
68970
68970
68970
68970
68970
68970
68970
68970
68970
68970
68970
68970
68970
68970
68970
68970
68970
68970
68970
68970
68970
68970
68969.8
68946.6
68565.5
67333.5
65972.7
65011.3
64409.3
64061.6
63880.2
63796.3
63762
63751.2
63746.3
63746
63747
63748.1
63748.2
63748.2
63748.4
63749
63749.3
63749.2
63749
63749.3
63749.5
63749.7
63749.7
63749.6
63749.4
63749.4
63749.4
63749.4
63749.1
63748.4
63747.8
63747.5
63747.4
63747.1
63746.3
63745.8
63746
63745.6
63742.6
63736.1
63713.3
63648.2
63482.6
63101.7
62310.1
60923.1
59477.7
58999.3
58970.3
58970
58970
58970
58970
58970
58970
58970
58970
58970
58970
58970
58970
58970
58970
58970
58970
58970
58970
58970
58970
58970
58970
58970
68970
68970
68970
68970
68970
68970
68970
68970
68970
68970
68970
68970
68970
68970
68970
68970
68970
68970
68970
68970
68970
68970
68970
68970
68969.8
68946.5
68565
67332.4
65971.6
65010.7
64409.5
64062.4
63881.3
63797.6
63763.3
63752.5
63747.6
63747.1
63747.8
63748.7
63748.5
63748.4
63748.4
63749
63749.2
63749
63748.8
63749
63749.2
63749.4
63749.4
63749.3
63749.2
63749.2
63749.3
63749.4
63749.1
63748.6
63748
63747.7
63747.6
63747.2
63746.4
63745.7
63745.9
63745.5
63742.5
63736
63713.3
63648.3
63482.8
63102
62310.1
60922.6
59477.3
58999.2
58970.3
58970
58970
58970
58970
58970
58970
58970
58970
58970
58970
58970
58970
58970
58970
58970
58970
58970
58970
58970
58970
58970
58970
58970
68970
68970
68970
68970
68970
68970
68970
68970
68970
68970
68970
68970
68970
68970
68970
68970
68970
68970
68970
68970
68970
68970
68970
68970
68969.8
68946.3
68562.1
67326.6
65967.4
65009.8
64410.6
64064.2
63883.3
63799.4
63764.8
63753.4
63748.1
63747.1
63747.8
63748.6
63748.5
63748.2
63748.4
63748.8
63749.1
63748.8
63748.7
63748.9
63749
63749.2
63749.2
63749.1
63748.9
63748.9
63749.2
63749.3
63749.1
63748.8
63748.3
63748.1
63748
63747.6
63746.7
63746
63746.1
63745.5
63742.2
63735.3
63712
63646.5
63481.1
63100.8
62310.4
60925.1
59479.4
58999.5
58970.3
58970
58970
58970
58970
58970
58970
58970
58970
58970
58970
58970
58970
58970
58970
58970
58970
58970
58970
58970
58970
58970
58970
58970
68970
68970
68970
68970
68970
68970
68970
68970
68970
68970
68970
68970
68970
68970
68970
68970
68970
68970
68970
68970
68970
68970
68970
68970
68969.8
68945.8
68558.2
67320.4
65964.7
65010.7
64413.1
64067.3
63886.3
63801.9
63766.6
63754.5
63748.9
63747.7
63748.1
63748.8
63748.6
63748.2
63748.4
63748.8
63748.9
63748.7
63748.6
63748.7
63748.8
63748.9
63749
63748.8
63748.6
63748.7
63749
63749.2
63749.1
63748.8
63748.3
63748.2
63748.1
63747.7
63746.8
63746.1
63746.1
63745.4
63742
63734.6
63710.7
63644.7
63478.9
63099.5
62310.6
60927.7
59481.5
58999.7
58970.3
58970
58970
58970
58970
58970
58970
58970
58970
58970
58970
58970
58970
58970
58970
58970
58970
58970
58970
58970
58970
58970
58970
58970
68970
68970
68970
68970
68970
68970
68970
68970
68970
68970
68970
68970
68970
68970
68970
68970
68970
68970
68970
68970
68970
68970
68970
68970
68969.8
68945.5
68555.6
67316.3
65962.2
65009.8
64414
64069.1
63888
63803.4
63768
63755.6
63749.9
63748.5
63748.7
63749.1
63748.8
63748.4
63748.2
63748.5
63748.5
63748.3
63748.2
63748.3
63748.4
63748.6
63748.7
63748.6
63748.4
63748.6
63749
63749.2
63749.2
63748.9
63748.5
63748.4
63748.4
63748
63747.2
63746.4
63746.4
63745.6
63741.9
63734.3
63710.5
63644.7
63479.3
63099.8
62311.3
60928.8
59482.2
58999.8
58970.3
58970
58970
58970
58970
58970
58970
58970
58970
58970
58970
58970
58970
58970
58970
58970
58970
58970
58970
58970
58970
58970
58970
58970
68970
68970
68970
68970
68970
68970
68970
68970
68970
68970
68970
68970
68970
68970
68970
68970
68970
68970
68970
68970
68970
68970
68970
68970
68969.8
68945.5
68554.9
67314.6
65960.7
65009.5
64414.2
64069.8
63889.1
63804.3
63768.5
63756
63750.4
63748.9
63749.2
63749.4
63748.7
63748.1
63748.5
63749.1
63749
63748.7
63748.3
63748.3
63748.5
63748.7
63748.8
63748.7
63748.6
63748.6
63749
63749.2
63749.1
63748.8
63748.4
63748.3
63748.3
63747.9
63747.1
63746.4
63746.5
63745.7
63742
63734.5
63710.9
63645.2
63479.4
63099.6
62310.6
60928
59481.8
58999.7
58970.3
58970
58970
58970
58970
58970
58970
58970
58970
58970
58970
58970
58970
58970
58970
58970
58970
58970
58970
58970
58970
58970
58970
58970
68970
68970
68970
68970
68970
68970
68970
68970
68970
68970
68970
68970
68970
68970
68970
68970
68970
68970
68970
68970
68970
68970
68970
68970
68969.8
68945.6
68556.2
67317
65962.4
65009.8
64413.8
64069.1
63888.4
63803.8
63768.2
63755.7
63750.1
63748.7
63749
63749.3
63748.8
63748.3
63748.4
63748.7
63748.6
63748.3
63748
63748.1
63748.3
63748.5
63748.6
63748.6
63748.5
63748.7
63749
63749.2
63749.1
63748.7
63748.4
63748.3
63748.3
63748
63747.3
63746.7
63746.9
63746.2
63742.6
63735.1
63711.6
63645.9
63479.9
63099.5
62309.5
60925.7
59480.3
58999.6
58970.3
58970
58970
58970
58970
58970
58970
58970
58970
58970
58970
58970
58970
58970
58970
58970
58970
58970
58970
58970
58970
58970
58970
58970
68970
68970
68970
68970
68970
68970
68970
68970
68970
68970
68970
68970
68970
68970
68970
68970
68970
68970
68970
68970
68970
68970
68970
68970
68969.8
68945.9
68559.1
67321.3
65964.1
65009
64411.6
64066.3
63885.8
63801.8
63766.9
63755
63749.8
63748.5
63749.1
63749.3
63748.8
63748.6
63748.5
63748.8
63748.9
63748.4
63748.2
63748.2
63748.3
63748.4
63748.5
63748.4
63748.3
63748.4
63748.8
63748.9
63748.8
63748.4
63748.1
63748.2
63748.2
63748.1
63747.5
63747
63747.3
63746.8
63743.5
63736.4
63713.2
63647.8
63481.9
63100.7
62308.7
60921.7
59477.1
58999.2
58970.3
58970
58970
58970
58970
58970
58970
58970
58970
58970
58970
58970
58970
58970
58970
58970
58970
58970
58970
58970
58970
58970
58970
58970
68970
68970
68970
68970
68970
68970
68970
68970
68970
68970
68970
68970
68970
68970
68970
68970
68970
68970
68970
68970
68970
68970
68970
68970
68969.8
68946.2
68561.9
67325.8
65966.5
65009.4
64410.7
64064.8
63884
63800
63765.4
63753.9
63749
63748.2
63749
63749.4
63749.1
63748.8
63748.7
63749
63749
63748.6
63748.3
63748.3
63748.4
63748.5
63748.6
63748.5
63748.4
63748.5
63748.8
63748.9
63748.7
63748.3
63748.1
63748.2
63748.3
63748.2
63747.7
63747.3
63747.6
63747.2
63744.2
63737.4
63714.5
63649.2
63483.3
63101.3
62307.5
60918
59474.3
58998.9
58970.3
58970
58970
58970
58970
58970
58970
58970
58970
58970
58970
58970
58970
58970
58970
58970
58970
58970
58970
58970
58970
58970
58970
58970
68970
68970
68970
68970
68970
68970
68970
68970
68970
68970
68970
68970
68970
68970
68970
68970
68970
68970
68970
68970
68970
68970
68970
68970
68969.8
68946.2
68561.9
67326
65967.1
65009.9
64410.9
64064.7
63883.5
63799.4
63764.7
63753.2
63748.4
63747.4
63748.4
63749.1
63748.9
63748.7
63748.7
63749.1
63749.1
63748.7
63748.4
63748.3
63748.4
63748.5
63748.6
63748.5
63748.3
63748.4
63748.7
63748.8
63748.6
63748.4
63748.2
63748.4
63748.6
63748.5
63748
63747.6
63747.8
63747.5
63744.4
63737.6
63714.6
63649.1
63483
63100.9
62307.3
60918.2
59474.7
58998.9
58970.3
58970
58970
58970
58970
58970
58970
58970
58970
58970
58970
58970
58970
58970
58970
58970
58970
58970
58970
58970
58970
58970
58970
58970
)
;

boundaryField
{
    sides1
    {
        type            zeroGradient;
    }
    sides2
    {
        type            slip;
    }
    empty
    {
        type            empty;
    }
}


// ************************************************************************* //
