/*--------------------------------*- C++ -*----------------------------------*\
| =========                 |                                                 |
| \\      /  F ield         | OpenFOAM: The Open Source CFD Toolbox           |
|  \\    /   O peration     | Version:  2012                                  |
|   \\  /    A nd           | Website:  www.openfoam.com                      |
|    \\/     M anipulation  |                                                 |
\*---------------------------------------------------------------------------*/
FoamFile
{
    version     2.0;
    format      ascii;
    class       volScalarField;
    location    "0.9";
    object      maxKappa;
}
// * * * * * * * * * * * * * * * * * * * * * * * * * * * * * * * * * * * * * //

dimensions      [0 0 0 0 0 0 0];


internalField   nonuniform List<scalar> 
20400
(
3.04555e-09
2.46735e-09
6.04804e-09
4.60802e-09
8.9218e-09
8.32361e-09
1.18547e-08
1.23086e-08
1.48098e-08
1.57429e-08
1.76552e-08
1.87747e-08
2.03112e-08
2.14425e-08
2.27042e-08
2.37737e-08
2.48217e-08
2.57868e-08
2.66864e-08
2.7521e-08
2.82945e-08
2.90106e-08
2.96727e-08
3.02845e-08
3.08494e-08
3.13708e-08
3.18517e-08
3.22952e-08
3.27041e-08
3.30808e-08
3.3428e-08
3.3748e-08
3.40428e-08
3.43143e-08
3.45647e-08
3.4795e-08
3.50079e-08
3.5203e-08
3.5384e-08
3.55493e-08
3.57032e-08
3.58435e-08
3.59742e-08
3.60933e-08
3.6204e-08
3.63057e-08
3.6399e-08
3.64859e-08
3.65647e-08
3.66388e-08
3.67055e-08
3.67686e-08
3.68252e-08
3.68788e-08
3.6927e-08
3.69722e-08
3.70136e-08
3.70515e-08
3.7087e-08
3.71191e-08
3.71492e-08
3.71768e-08
3.72019e-08
3.72256e-08
3.72468e-08
3.72671e-08
3.7285e-08
3.73024e-08
3.73175e-08
3.73323e-08
3.73452e-08
3.73577e-08
3.73687e-08
3.73794e-08
3.73887e-08
3.73977e-08
3.74058e-08
3.74132e-08
3.74202e-08
3.74265e-08
3.74325e-08
3.74378e-08
3.74429e-08
3.74474e-08
3.74518e-08
3.74555e-08
3.74593e-08
3.74625e-08
3.74657e-08
3.74684e-08
3.74711e-08
3.74734e-08
3.74757e-08
3.74777e-08
3.74796e-08
3.74813e-08
3.7483e-08
3.74844e-08
3.74858e-08
3.7487e-08
3.74882e-08
3.74892e-08
3.74903e-08
3.74911e-08
3.7492e-08
3.74928e-08
3.74935e-08
3.74941e-08
3.74948e-08
3.74953e-08
3.74959e-08
3.74963e-08
3.74968e-08
3.74972e-08
3.74976e-08
3.74979e-08
3.74983e-08
3.74986e-08
3.74989e-08
3.74992e-08
3.74995e-08
3.74997e-08
3.75e-08
3.75001e-08
3.75004e-08
3.75006e-08
3.75008e-08
3.75009e-08
3.75011e-08
3.75012e-08
3.75013e-08
3.75014e-08
3.75015e-08
3.75016e-08
3.75017e-08
3.75018e-08
3.75019e-08
3.7502e-08
3.75021e-08
3.75021e-08
3.75022e-08
3.75023e-08
3.75024e-08
3.75025e-08
3.75025e-08
3.75026e-08
3.75026e-08
3.75027e-08
3.75028e-08
3.75028e-08
3.75029e-08
3.75028e-08
3.75029e-08
3.75029e-08
3.7503e-08
3.7503e-08
3.7503e-08
3.7503e-08
3.7503e-08
3.7503e-08
3.7503e-08
3.75031e-08
3.75032e-08
3.75032e-08
3.75032e-08
3.75032e-08
3.75033e-08
3.75033e-08
3.75033e-08
3.75034e-08
3.75033e-08
3.75035e-08
3.75034e-08
3.75035e-08
3.75035e-08
3.75035e-08
3.75034e-08
3.75035e-08
3.75034e-08
3.75035e-08
3.75034e-08
3.75034e-08
3.75034e-08
3.75034e-08
3.75033e-08
3.75034e-08
3.75034e-08
3.75034e-08
3.75034e-08
3.75035e-08
3.75034e-08
3.75034e-08
3.75034e-08
3.75034e-08
3.75034e-08
3.75035e-08
3.75035e-08
3.75035e-08
3.75036e-08
3.75036e-08
3.75036e-08
3.75036e-08
3.75036e-08
3.75036e-08
3.75037e-08
3.75036e-08
3.75036e-08
3.75036e-08
3.75036e-08
3.75036e-08
3.75037e-08
3.75037e-08
3.75037e-08
3.75037e-08
3.75037e-08
3.75037e-08
3.75037e-08
3.75036e-08
3.75036e-08
3.75035e-08
3.75035e-08
3.75035e-08
3.75035e-08
3.75034e-08
3.75035e-08
3.75035e-08
3.75035e-08
3.75035e-08
3.75035e-08
3.75036e-08
3.75036e-08
3.75036e-08
3.75037e-08
3.75036e-08
3.75036e-08
3.75037e-08
3.75036e-08
3.75036e-08
3.75037e-08
3.75037e-08
3.75037e-08
3.75037e-08
3.75037e-08
3.75038e-08
3.75037e-08
3.75038e-08
3.75037e-08
3.75038e-08
3.75038e-08
3.75038e-08
3.75038e-08
3.75039e-08
3.75038e-08
3.75038e-08
3.75038e-08
3.75038e-08
3.75038e-08
3.75037e-08
3.75037e-08
3.75037e-08
3.75038e-08
3.75038e-08
3.75038e-08
3.75038e-08
3.75039e-08
3.75039e-08
3.75039e-08
3.75039e-08
3.75039e-08
3.75038e-08
3.75038e-08
3.75038e-08
3.75038e-08
3.75038e-08
3.75038e-08
3.75038e-08
3.75037e-08
3.75038e-08
3.75037e-08
3.75038e-08
3.75038e-08
3.75038e-08
3.75039e-08
3.75039e-08
3.75039e-08
3.75039e-08
3.75039e-08
3.7504e-08
3.7504e-08
3.7504e-08
3.7504e-08
3.7504e-08
3.7504e-08
3.75039e-08
3.75039e-08
3.75039e-08
3.75039e-08
3.75039e-08
3.75039e-08
3.75039e-08
3.75039e-08
3.75039e-08
3.75038e-08
3.75039e-08
3.75038e-08
3.75038e-08
3.75039e-08
3.75038e-08
3.75038e-08
3.75039e-08
3.75038e-08
3.75038e-08
3.75038e-08
3.75038e-08
3.75038e-08
3.75038e-08
3.75039e-08
3.75039e-08
3.7504e-08
3.75039e-08
3.7504e-08
3.75039e-08
3.7504e-08
3.7504e-08
3.75041e-08
3.75041e-08
3.75042e-08
3.75041e-08
3.75042e-08
3.75041e-08
3.75041e-08
3.75041e-08
3.7504e-08
3.75041e-08
3.7504e-08
3.7504e-08
3.7504e-08
3.7504e-08
3.7504e-08
3.75039e-08
3.75039e-08
3.75039e-08
3.75039e-08
3.75039e-08
3.75039e-08
3.75039e-08
3.7504e-08
3.7504e-08
3.7504e-08
3.7504e-08
3.75041e-08
3.75041e-08
3.75042e-08
3.75042e-08
3.75042e-08
3.75041e-08
3.75041e-08
3.75041e-08
3.75042e-08
3.75042e-08
3.75043e-08
3.75043e-08
3.75043e-08
3.75042e-08
3.75042e-08
3.75042e-08
3.75043e-08
3.75042e-08
3.75043e-08
3.75042e-08
3.75042e-08
3.75042e-08
3.75041e-08
3.75042e-08
3.75042e-08
3.75044e-08
3.75043e-08
3.75045e-08
3.75044e-08
3.75045e-08
3.75044e-08
3.75045e-08
3.75044e-08
3.75045e-08
3.75043e-08
3.75044e-08
3.75043e-08
3.75044e-08
3.75044e-08
3.75043e-08
3.75044e-08
3.75043e-08
3.75044e-08
3.75044e-08
3.75045e-08
3.75044e-08
3.75045e-08
3.75044e-08
3.75044e-08
3.75043e-08
3.75044e-08
3.75043e-08
3.75044e-08
3.75043e-08
3.75043e-08
3.75042e-08
3.75043e-08
3.75042e-08
3.75043e-08
3.75043e-08
3.75043e-08
3.75043e-08
3.75045e-08
3.75044e-08
3.75045e-08
3.75045e-08
3.75046e-08
3.75045e-08
3.75046e-08
3.75045e-08
3.75045e-08
3.75044e-08
3.75045e-08
3.75044e-08
3.75043e-08
3.75042e-08
3.75042e-08
3.75042e-08
3.75042e-08
3.75043e-08
3.75042e-08
3.75043e-08
3.75043e-08
3.75044e-08
3.75044e-08
3.75045e-08
3.75043e-08
3.75044e-08
3.75043e-08
3.75043e-08
3.75042e-08
3.75042e-08
3.75042e-08
3.75041e-08
3.75041e-08
3.75041e-08
3.75041e-08
3.75042e-08
3.75041e-08
3.75041e-08
3.75042e-08
3.7504e-08
3.75041e-08
3.75041e-08
3.75041e-08
3.75041e-08
3.75041e-08
3.75041e-08
3.75041e-08
3.7504e-08
3.75041e-08
3.75041e-08
3.75041e-08
3.75042e-08
3.75041e-08
3.75041e-08
3.75042e-08
3.75042e-08
3.75042e-08
3.75042e-08
3.75042e-08
3.75042e-08
3.75042e-08
3.75042e-08
3.75043e-08
3.75043e-08
3.75042e-08
3.75043e-08
3.75042e-08
3.75045e-08
3.75043e-08
3.75046e-08
3.75041e-08
3.75049e-08
3.75036e-08
3.75053e-08
3.75029e-08
3.75058e-08
3.7502e-08
3.75062e-08
3.75013e-08
3.75057e-08
3.7502e-08
3.75027e-08
3.75049e-08
3.74946e-08
3.75136e-08
3.74766e-08
3.75178e-08
3.747e-08
4.31067e-09
5.24792e-09
8.56513e-09
8.23447e-09
1.19794e-08
1.27115e-08
1.56128e-08
1.69487e-08
1.93204e-08
2.08096e-08
2.29211e-08
2.43916e-08
2.62929e-08
2.776e-08
2.93349e-08
3.07126e-08
3.2042e-08
3.32726e-08
3.44203e-08
3.54864e-08
3.64759e-08
3.7393e-08
3.82422e-08
3.90277e-08
3.9754e-08
4.0425e-08
4.10447e-08
4.16166e-08
4.21445e-08
4.26316e-08
4.30807e-08
4.3495e-08
4.38769e-08
4.42291e-08
4.4554e-08
4.48532e-08
4.51296e-08
4.53835e-08
4.56187e-08
4.58342e-08
4.60342e-08
4.62172e-08
4.63873e-08
4.65428e-08
4.66871e-08
4.68198e-08
4.69416e-08
4.7055e-08
4.71581e-08
4.72547e-08
4.73421e-08
4.74244e-08
4.74986e-08
4.75685e-08
4.76317e-08
4.76909e-08
4.77451e-08
4.77948e-08
4.78412e-08
4.78834e-08
4.79227e-08
4.79588e-08
4.79919e-08
4.80229e-08
4.80508e-08
4.80773e-08
4.81009e-08
4.81235e-08
4.81435e-08
4.81628e-08
4.81798e-08
4.81962e-08
4.82106e-08
4.82245e-08
4.82368e-08
4.82486e-08
4.82592e-08
4.8269e-08
4.82783e-08
4.82865e-08
4.82944e-08
4.83013e-08
4.83081e-08
4.8314e-08
4.83197e-08
4.83247e-08
4.83296e-08
4.83339e-08
4.83381e-08
4.83416e-08
4.83452e-08
4.83482e-08
4.83513e-08
4.83539e-08
4.83565e-08
4.83586e-08
4.83609e-08
4.83627e-08
4.83646e-08
4.83662e-08
4.83678e-08
4.83691e-08
4.83705e-08
4.83716e-08
4.83728e-08
4.83738e-08
4.83747e-08
4.83756e-08
4.83764e-08
4.83771e-08
4.83778e-08
4.83784e-08
4.8379e-08
4.83795e-08
4.83801e-08
4.83805e-08
4.83809e-08
4.83813e-08
4.83817e-08
4.8382e-08
4.83824e-08
4.83826e-08
4.83829e-08
4.83832e-08
4.83834e-08
4.83837e-08
4.83839e-08
4.8384e-08
4.83842e-08
4.83844e-08
4.83845e-08
4.83846e-08
4.83848e-08
4.8385e-08
4.83851e-08
4.83852e-08
4.83853e-08
4.83853e-08
4.83854e-08
4.83855e-08
4.83856e-08
4.83857e-08
4.83857e-08
4.83858e-08
4.83858e-08
4.83859e-08
4.8386e-08
4.83861e-08
4.83861e-08
4.83861e-08
4.83862e-08
4.83862e-08
4.83862e-08
4.83863e-08
4.83863e-08
4.83863e-08
4.83864e-08
4.83864e-08
4.83864e-08
4.83864e-08
4.83864e-08
4.83864e-08
4.83865e-08
4.83865e-08
4.83865e-08
4.83866e-08
4.83866e-08
4.83866e-08
4.83866e-08
4.83866e-08
4.83865e-08
4.83866e-08
4.83866e-08
4.83867e-08
4.83866e-08
4.83866e-08
4.83866e-08
4.83867e-08
4.83866e-08
4.83866e-08
4.83866e-08
4.83867e-08
4.83866e-08
4.83867e-08
4.83866e-08
4.83866e-08
4.83866e-08
4.83866e-08
4.83865e-08
4.83866e-08
4.83865e-08
4.83866e-08
4.83866e-08
4.83866e-08
4.83866e-08
4.83866e-08
4.83866e-08
4.83866e-08
4.83867e-08
4.83866e-08
4.83866e-08
4.83866e-08
4.83866e-08
4.83866e-08
4.83867e-08
4.83866e-08
4.83866e-08
4.83867e-08
4.83867e-08
4.83866e-08
4.83867e-08
4.83866e-08
4.83867e-08
4.83866e-08
4.83867e-08
4.83866e-08
4.83866e-08
4.83866e-08
4.83866e-08
4.83865e-08
4.83865e-08
4.83865e-08
4.83865e-08
4.83864e-08
4.83865e-08
4.83865e-08
4.83865e-08
4.83865e-08
4.83865e-08
4.83865e-08
4.83865e-08
4.83865e-08
4.83866e-08
4.83865e-08
4.83865e-08
4.83865e-08
4.83865e-08
4.83865e-08
4.83866e-08
4.83865e-08
4.83865e-08
4.83866e-08
4.83866e-08
4.83866e-08
4.83866e-08
4.83866e-08
4.83866e-08
4.83867e-08
4.83866e-08
4.83866e-08
4.83866e-08
4.83867e-08
4.83866e-08
4.83866e-08
4.83866e-08
4.83866e-08
4.83866e-08
4.83866e-08
4.83866e-08
4.83866e-08
4.83866e-08
4.83867e-08
4.83866e-08
4.83866e-08
4.83866e-08
4.83866e-08
4.83867e-08
4.83866e-08
4.83866e-08
4.83866e-08
4.83866e-08
4.83866e-08
4.83866e-08
4.83866e-08
4.83866e-08
4.83866e-08
4.83865e-08
4.83866e-08
4.83866e-08
4.83866e-08
4.83866e-08
4.83866e-08
4.83866e-08
4.83866e-08
4.83866e-08
4.83866e-08
4.83866e-08
4.83866e-08
4.83866e-08
4.83866e-08
4.83866e-08
4.83866e-08
4.83866e-08
4.83866e-08
4.83866e-08
4.83866e-08
4.83866e-08
4.83865e-08
4.83866e-08
4.83866e-08
4.83866e-08
4.83866e-08
4.83865e-08
4.83866e-08
4.83865e-08
4.83865e-08
4.83865e-08
4.83865e-08
4.83865e-08
4.83866e-08
4.83866e-08
4.83865e-08
4.83865e-08
4.83865e-08
4.83865e-08
4.83865e-08
4.83865e-08
4.83866e-08
4.83866e-08
4.83865e-08
4.83866e-08
4.83866e-08
4.83866e-08
4.83866e-08
4.83867e-08
4.83867e-08
4.83866e-08
4.83866e-08
4.83866e-08
4.83866e-08
4.83866e-08
4.83866e-08
4.83866e-08
4.83866e-08
4.83866e-08
4.83865e-08
4.83865e-08
4.83866e-08
4.83866e-08
4.83865e-08
4.83865e-08
4.83865e-08
4.83865e-08
4.83865e-08
4.83865e-08
4.83865e-08
4.83865e-08
4.83864e-08
4.83865e-08
4.83865e-08
4.83866e-08
4.83865e-08
4.83865e-08
4.83866e-08
4.83865e-08
4.83866e-08
4.83866e-08
4.83866e-08
4.83866e-08
4.83866e-08
4.83867e-08
4.83866e-08
4.83867e-08
4.83866e-08
4.83867e-08
4.83866e-08
4.83867e-08
4.83866e-08
4.83866e-08
4.83867e-08
4.83866e-08
4.83866e-08
4.83865e-08
4.83866e-08
4.83865e-08
4.83868e-08
4.83866e-08
4.83868e-08
4.83867e-08
4.83868e-08
4.83867e-08
4.83868e-08
4.83867e-08
4.83868e-08
4.83866e-08
4.83867e-08
4.83867e-08
4.83867e-08
4.83867e-08
4.83867e-08
4.83868e-08
4.83867e-08
4.83868e-08
4.83867e-08
4.83868e-08
4.83867e-08
4.83867e-08
4.83866e-08
4.83867e-08
4.83867e-08
4.83868e-08
4.83867e-08
4.83868e-08
4.83867e-08
4.83867e-08
4.83866e-08
4.83866e-08
4.83866e-08
4.83868e-08
4.83867e-08
4.83868e-08
4.83867e-08
4.83868e-08
4.83867e-08
4.83868e-08
4.83867e-08
4.83868e-08
4.83867e-08
4.83868e-08
4.83867e-08
4.83868e-08
4.83867e-08
4.83867e-08
4.83866e-08
4.83866e-08
4.83866e-08
4.83866e-08
4.83867e-08
4.83866e-08
4.83866e-08
4.83865e-08
4.83866e-08
4.83865e-08
4.83867e-08
4.83866e-08
4.83867e-08
4.83866e-08
4.83866e-08
4.83866e-08
4.83866e-08
4.83865e-08
4.83866e-08
4.83865e-08
4.83865e-08
4.83865e-08
4.83866e-08
4.83865e-08
4.83865e-08
4.83865e-08
4.83865e-08
4.83865e-08
4.83864e-08
4.83864e-08
4.83864e-08
4.83865e-08
4.83865e-08
4.83865e-08
4.83865e-08
4.83865e-08
4.83864e-08
4.83865e-08
4.83865e-08
4.83865e-08
4.83865e-08
4.83865e-08
4.83865e-08
4.83866e-08
4.83865e-08
4.83866e-08
4.83866e-08
4.83866e-08
4.83866e-08
4.83865e-08
4.83865e-08
4.83865e-08
4.83865e-08
4.83865e-08
4.83866e-08
4.83865e-08
4.83867e-08
4.83864e-08
4.83868e-08
4.83862e-08
4.8387e-08
4.83857e-08
4.83874e-08
4.83849e-08
4.8388e-08
4.83839e-08
4.83885e-08
4.8383e-08
4.83882e-08
4.83834e-08
4.83858e-08
4.83859e-08
4.83788e-08
4.83932e-08
4.83622e-08
4.84026e-08
4.83628e-08
5.26699e-09
7.11854e-09
1.02065e-08
1.00135e-08
1.34145e-08
1.43799e-08
1.6992e-08
1.86938e-08
2.08636e-08
2.27002e-08
2.46392e-08
2.63621e-08
2.80837e-08
2.96383e-08
3.11475e-08
3.25336e-08
3.38433e-08
3.50606e-08
3.61941e-08
3.7247e-08
3.82241e-08
3.91297e-08
3.99685e-08
4.07446e-08
4.14624e-08
4.21257e-08
4.27383e-08
4.3304e-08
4.38264e-08
4.43107e-08
4.47708e-08
4.51952e-08
4.55868e-08
4.59479e-08
4.62812e-08
4.65882e-08
4.68719e-08
4.71326e-08
4.73742e-08
4.75956e-08
4.78011e-08
4.79893e-08
4.81641e-08
4.83241e-08
4.84725e-08
4.86089e-08
4.87344e-08
4.8851e-08
4.89573e-08
4.90567e-08
4.91469e-08
4.92316e-08
4.93082e-08
4.93801e-08
4.94454e-08
4.95063e-08
4.95622e-08
4.96135e-08
4.96614e-08
4.97049e-08
4.97456e-08
4.97829e-08
4.9817e-08
4.98491e-08
4.9878e-08
4.99053e-08
4.99298e-08
4.99532e-08
4.99739e-08
4.99938e-08
5.00114e-08
5.00284e-08
5.00433e-08
5.00577e-08
5.00705e-08
5.00826e-08
5.00936e-08
5.01038e-08
5.01133e-08
5.01218e-08
5.013e-08
5.01372e-08
5.01442e-08
5.01503e-08
5.01562e-08
5.01614e-08
5.01665e-08
5.01709e-08
5.01752e-08
5.01789e-08
5.01826e-08
5.01857e-08
5.01889e-08
5.01916e-08
5.01942e-08
5.01965e-08
5.01988e-08
5.02007e-08
5.02027e-08
5.02043e-08
5.0206e-08
5.02074e-08
5.02088e-08
5.021e-08
5.02111e-08
5.02122e-08
5.02132e-08
5.0214e-08
5.02149e-08
5.02156e-08
5.02164e-08
5.0217e-08
5.02176e-08
5.02181e-08
5.02187e-08
5.02191e-08
5.02196e-08
5.022e-08
5.02203e-08
5.02207e-08
5.0221e-08
5.02213e-08
5.02215e-08
5.02217e-08
5.0222e-08
5.02222e-08
5.02224e-08
5.02225e-08
5.02227e-08
5.02229e-08
5.0223e-08
5.02232e-08
5.02233e-08
5.02235e-08
5.02235e-08
5.02236e-08
5.02237e-08
5.02238e-08
5.02239e-08
5.0224e-08
5.0224e-08
5.02241e-08
5.02241e-08
5.02242e-08
5.02242e-08
5.02243e-08
5.02243e-08
5.02244e-08
5.02244e-08
5.02244e-08
5.02244e-08
5.02245e-08
5.02245e-08
5.02246e-08
5.02246e-08
5.02246e-08
5.02246e-08
5.02247e-08
5.02247e-08
5.02247e-08
5.02247e-08
5.02247e-08
5.02247e-08
5.02248e-08
5.02247e-08
5.02247e-08
5.02247e-08
5.02248e-08
5.02248e-08
5.02248e-08
5.02247e-08
5.02248e-08
5.02247e-08
5.02247e-08
5.02248e-08
5.02248e-08
5.02248e-08
5.02248e-08
5.02248e-08
5.02248e-08
5.02248e-08
5.02249e-08
5.02248e-08
5.02249e-08
5.02248e-08
5.02249e-08
5.02248e-08
5.02248e-08
5.02248e-08
5.02248e-08
5.02248e-08
5.02248e-08
5.02248e-08
5.02249e-08
5.02248e-08
5.02248e-08
5.02248e-08
5.02248e-08
5.02248e-08
5.02248e-08
5.02248e-08
5.02248e-08
5.02248e-08
5.02248e-08
5.02248e-08
5.02248e-08
5.02248e-08
5.02248e-08
5.02248e-08
5.02248e-08
5.02248e-08
5.02248e-08
5.02248e-08
5.02248e-08
5.02248e-08
5.02247e-08
5.02248e-08
5.02248e-08
5.02248e-08
5.02248e-08
5.02248e-08
5.02248e-08
5.02248e-08
5.02248e-08
5.02248e-08
5.02248e-08
5.02248e-08
5.02248e-08
5.02248e-08
5.02248e-08
5.02248e-08
5.02247e-08
5.02248e-08
5.02248e-08
5.02248e-08
5.02248e-08
5.02248e-08
5.02248e-08
5.02248e-08
5.02248e-08
5.02248e-08
5.02248e-08
5.02247e-08
5.02248e-08
5.02248e-08
5.02248e-08
5.02248e-08
5.02248e-08
5.02248e-08
5.02248e-08
5.02248e-08
5.02248e-08
5.02248e-08
5.02248e-08
5.02248e-08
5.02248e-08
5.02248e-08
5.02248e-08
5.02249e-08
5.02248e-08
5.02248e-08
5.02248e-08
5.02248e-08
5.02248e-08
5.02248e-08
5.02248e-08
5.02248e-08
5.02247e-08
5.02248e-08
5.02248e-08
5.02248e-08
5.02248e-08
5.02248e-08
5.02248e-08
5.02248e-08
5.02248e-08
5.02248e-08
5.02248e-08
5.02248e-08
5.02248e-08
5.02248e-08
5.02248e-08
5.02248e-08
5.02248e-08
5.02248e-08
5.02248e-08
5.02247e-08
5.02247e-08
5.02247e-08
5.02247e-08
5.02247e-08
5.02248e-08
5.02248e-08
5.02248e-08
5.02248e-08
5.02248e-08
5.02248e-08
5.02248e-08
5.02248e-08
5.02248e-08
5.02248e-08
5.02248e-08
5.02247e-08
5.02248e-08
5.02248e-08
5.02248e-08
5.02247e-08
5.02248e-08
5.02247e-08
5.02248e-08
5.02248e-08
5.02248e-08
5.02248e-08
5.02248e-08
5.02248e-08
5.02248e-08
5.02248e-08
5.02248e-08
5.02248e-08
5.02248e-08
5.02248e-08
5.02248e-08
5.02248e-08
5.02248e-08
5.02247e-08
5.02247e-08
5.02247e-08
5.02247e-08
5.02247e-08
5.02247e-08
5.02247e-08
5.02247e-08
5.02248e-08
5.02248e-08
5.02248e-08
5.02248e-08
5.02248e-08
5.02247e-08
5.02248e-08
5.02247e-08
5.02248e-08
5.02248e-08
5.02248e-08
5.02248e-08
5.02248e-08
5.02248e-08
5.02247e-08
5.02247e-08
5.02247e-08
5.02248e-08
5.02247e-08
5.02247e-08
5.02246e-08
5.02247e-08
5.02247e-08
5.02248e-08
5.02248e-08
5.02247e-08
5.02247e-08
5.02247e-08
5.02247e-08
5.02247e-08
5.02247e-08
5.02247e-08
5.02248e-08
5.02247e-08
5.02248e-08
5.02247e-08
5.02247e-08
5.02248e-08
5.02248e-08
5.02248e-08
5.02248e-08
5.02249e-08
5.02247e-08
5.02249e-08
5.02247e-08
5.02248e-08
5.02246e-08
5.02248e-08
5.02246e-08
5.02248e-08
5.02246e-08
5.02248e-08
5.02247e-08
5.02248e-08
5.02248e-08
5.02248e-08
5.02247e-08
5.02248e-08
5.02248e-08
5.02248e-08
5.02248e-08
5.02247e-08
5.02248e-08
5.02247e-08
5.02247e-08
5.02247e-08
5.02248e-08
5.02247e-08
5.02248e-08
5.02247e-08
5.02248e-08
5.02248e-08
5.02248e-08
5.02247e-08
5.02248e-08
5.02248e-08
5.02249e-08
5.02248e-08
5.02249e-08
5.02248e-08
5.02248e-08
5.02247e-08
5.02248e-08
5.02247e-08
5.02248e-08
5.02247e-08
5.02248e-08
5.02247e-08
5.02248e-08
5.02246e-08
5.02248e-08
5.02247e-08
5.02248e-08
5.02248e-08
5.02248e-08
5.02249e-08
5.02248e-08
5.02248e-08
5.02248e-08
5.02248e-08
5.02247e-08
5.02248e-08
5.02246e-08
5.02247e-08
5.02246e-08
5.02247e-08
5.02247e-08
5.02247e-08
5.02247e-08
5.02248e-08
5.02247e-08
5.02248e-08
5.02247e-08
5.02248e-08
5.02247e-08
5.02248e-08
5.02248e-08
5.02247e-08
5.02248e-08
5.02248e-08
5.02248e-08
5.02247e-08
5.02248e-08
5.02248e-08
5.02248e-08
5.02247e-08
5.02248e-08
5.02247e-08
5.02248e-08
5.02247e-08
5.02247e-08
5.02247e-08
5.02247e-08
5.02247e-08
5.02247e-08
5.02247e-08
5.02247e-08
5.02247e-08
5.02247e-08
5.02247e-08
5.02247e-08
5.02247e-08
5.02247e-08
5.02247e-08
5.02247e-08
5.02247e-08
5.02246e-08
5.02247e-08
5.02244e-08
5.02248e-08
5.02242e-08
5.0225e-08
5.02237e-08
5.02254e-08
5.02229e-08
5.0226e-08
5.02219e-08
5.02267e-08
5.0221e-08
5.02267e-08
5.02212e-08
5.02248e-08
5.02234e-08
5.02192e-08
5.023e-08
5.02067e-08
5.02422e-08
5.02045e-08
6.36695e-09
9.00325e-09
1.20074e-08
1.1627e-08
1.48952e-08
1.55748e-08
1.82278e-08
1.96552e-08
2.17526e-08
2.35335e-08
2.54292e-08
2.71104e-08
2.87979e-08
3.03206e-08
3.18019e-08
3.31665e-08
3.44538e-08
3.56516e-08
3.67673e-08
3.78042e-08
3.87669e-08
3.96595e-08
4.04865e-08
4.12519e-08
4.19599e-08
4.26144e-08
4.32192e-08
4.37778e-08
4.42936e-08
4.47697e-08
4.52092e-08
4.56147e-08
4.59887e-08
4.63337e-08
4.66519e-08
4.69454e-08
4.7216e-08
4.74657e-08
4.76958e-08
4.7908e-08
4.81038e-08
4.82842e-08
4.84507e-08
4.86041e-08
4.87458e-08
4.88761e-08
4.89966e-08
4.91075e-08
4.92099e-08
4.93043e-08
4.93913e-08
4.94716e-08
4.95456e-08
4.9614e-08
4.96769e-08
4.97366e-08
4.97916e-08
4.98423e-08
4.98894e-08
4.99324e-08
4.99724e-08
5.00093e-08
5.0043e-08
5.00745e-08
5.0103e-08
5.013e-08
5.01542e-08
5.01772e-08
5.01977e-08
5.02173e-08
5.02347e-08
5.02514e-08
5.02662e-08
5.02804e-08
5.0293e-08
5.0305e-08
5.03159e-08
5.03259e-08
5.03354e-08
5.03437e-08
5.03518e-08
5.03589e-08
5.03659e-08
5.03718e-08
5.03778e-08
5.03828e-08
5.03879e-08
5.03922e-08
5.03965e-08
5.04002e-08
5.04038e-08
5.04069e-08
5.041e-08
5.04127e-08
5.04153e-08
5.04176e-08
5.04198e-08
5.04218e-08
5.04236e-08
5.04253e-08
5.04269e-08
5.04283e-08
5.04297e-08
5.04309e-08
5.0432e-08
5.04331e-08
5.0434e-08
5.04349e-08
5.04357e-08
5.04365e-08
5.04372e-08
5.04378e-08
5.04384e-08
5.0439e-08
5.04395e-08
5.04399e-08
5.04404e-08
5.04407e-08
5.04411e-08
5.04414e-08
5.04417e-08
5.0442e-08
5.04423e-08
5.04425e-08
5.04427e-08
5.04429e-08
5.04431e-08
5.04433e-08
5.04434e-08
5.04435e-08
5.04437e-08
5.04438e-08
5.0444e-08
5.04441e-08
5.04442e-08
5.04443e-08
5.04444e-08
5.04444e-08
5.04445e-08
5.04446e-08
5.04446e-08
5.04447e-08
5.04447e-08
5.04448e-08
5.04448e-08
5.04449e-08
5.04449e-08
5.04449e-08
5.04449e-08
5.0445e-08
5.0445e-08
5.04451e-08
5.04451e-08
5.04451e-08
5.04451e-08
5.04451e-08
5.04451e-08
5.04452e-08
5.04452e-08
5.04452e-08
5.04452e-08
5.04452e-08
5.04452e-08
5.04452e-08
5.04452e-08
5.04452e-08
5.04452e-08
5.04452e-08
5.04452e-08
5.04452e-08
5.04452e-08
5.04452e-08
5.04452e-08
5.04452e-08
5.04453e-08
5.04453e-08
5.04453e-08
5.04453e-08
5.04453e-08
5.04453e-08
5.04453e-08
5.04453e-08
5.04453e-08
5.04454e-08
5.04453e-08
5.04454e-08
5.04453e-08
5.04453e-08
5.04453e-08
5.04453e-08
5.04453e-08
5.04453e-08
5.04453e-08
5.04453e-08
5.04453e-08
5.04453e-08
5.04453e-08
5.04453e-08
5.04453e-08
5.04453e-08
5.04453e-08
5.04453e-08
5.04453e-08
5.04453e-08
5.04453e-08
5.04453e-08
5.04453e-08
5.04453e-08
5.04453e-08
5.04453e-08
5.04453e-08
5.04452e-08
5.04453e-08
5.04452e-08
5.04453e-08
5.04452e-08
5.04453e-08
5.04453e-08
5.04453e-08
5.04453e-08
5.04453e-08
5.04453e-08
5.04454e-08
5.04454e-08
5.04454e-08
5.04453e-08
5.04453e-08
5.04453e-08
5.04453e-08
5.04453e-08
5.04453e-08
5.04453e-08
5.04453e-08
5.04453e-08
5.04453e-08
5.04453e-08
5.04453e-08
5.04453e-08
5.04453e-08
5.04453e-08
5.04453e-08
5.04453e-08
5.04453e-08
5.04453e-08
5.04453e-08
5.04453e-08
5.04453e-08
5.04453e-08
5.04453e-08
5.04453e-08
5.04453e-08
5.04453e-08
5.04453e-08
5.04453e-08
5.04453e-08
5.04453e-08
5.04453e-08
5.04453e-08
5.04453e-08
5.04453e-08
5.04453e-08
5.04453e-08
5.04453e-08
5.04453e-08
5.04453e-08
5.04453e-08
5.04453e-08
5.04453e-08
5.04453e-08
5.04453e-08
5.04454e-08
5.04453e-08
5.04454e-08
5.04453e-08
5.04453e-08
5.04453e-08
5.04453e-08
5.04453e-08
5.04453e-08
5.04453e-08
5.04453e-08
5.04453e-08
5.04453e-08
5.04453e-08
5.04453e-08
5.04453e-08
5.04453e-08
5.04453e-08
5.04453e-08
5.04453e-08
5.04453e-08
5.04453e-08
5.04453e-08
5.04453e-08
5.04453e-08
5.04453e-08
5.04453e-08
5.04453e-08
5.04453e-08
5.04453e-08
5.04453e-08
5.04453e-08
5.04453e-08
5.04453e-08
5.04453e-08
5.04453e-08
5.04452e-08
5.04453e-08
5.04453e-08
5.04453e-08
5.04453e-08
5.04454e-08
5.04454e-08
5.04453e-08
5.04454e-08
5.04453e-08
5.04453e-08
5.04453e-08
5.04453e-08
5.04453e-08
5.04453e-08
5.04453e-08
5.04453e-08
5.04453e-08
5.04453e-08
5.04452e-08
5.04453e-08
5.04453e-08
5.04452e-08
5.04452e-08
5.04453e-08
5.04452e-08
5.04453e-08
5.04453e-08
5.04454e-08
5.04453e-08
5.04453e-08
5.04453e-08
5.04453e-08
5.04453e-08
5.04453e-08
5.04453e-08
5.04453e-08
5.04453e-08
5.04453e-08
5.04453e-08
5.04453e-08
5.04453e-08
5.04453e-08
5.04453e-08
5.04452e-08
5.04453e-08
5.04452e-08
5.04453e-08
5.04452e-08
5.04453e-08
5.04452e-08
5.04453e-08
5.04452e-08
5.04452e-08
5.04452e-08
5.04452e-08
5.04452e-08
5.04452e-08
5.04453e-08
5.04453e-08
5.04453e-08
5.04453e-08
5.04452e-08
5.04453e-08
5.04452e-08
5.04453e-08
5.04453e-08
5.04454e-08
5.04452e-08
5.04453e-08
5.04451e-08
5.04453e-08
5.04451e-08
5.04453e-08
5.04451e-08
5.04453e-08
5.04451e-08
5.04453e-08
5.04451e-08
5.04453e-08
5.04452e-08
5.04453e-08
5.04453e-08
5.04453e-08
5.04453e-08
5.04453e-08
5.04453e-08
5.04452e-08
5.04452e-08
5.04452e-08
5.04452e-08
5.04451e-08
5.04452e-08
5.04452e-08
5.04452e-08
5.04452e-08
5.04453e-08
5.04452e-08
5.04453e-08
5.04453e-08
5.04454e-08
5.04453e-08
5.04453e-08
5.04453e-08
5.04453e-08
5.04452e-08
5.04453e-08
5.04452e-08
5.04453e-08
5.04451e-08
5.04453e-08
5.04451e-08
5.04453e-08
5.04451e-08
5.04453e-08
5.04452e-08
5.04454e-08
5.04452e-08
5.04454e-08
5.04453e-08
5.04454e-08
5.04454e-08
5.04454e-08
5.04453e-08
5.04453e-08
5.04453e-08
5.04452e-08
5.04452e-08
5.04452e-08
5.04452e-08
5.04452e-08
5.04453e-08
5.04452e-08
5.04453e-08
5.04453e-08
5.04453e-08
5.04453e-08
5.04453e-08
5.04453e-08
5.04453e-08
5.04453e-08
5.04453e-08
5.04453e-08
5.04453e-08
5.04453e-08
5.04453e-08
5.04454e-08
5.04453e-08
5.04453e-08
5.04453e-08
5.04454e-08
5.04453e-08
5.04454e-08
5.04453e-08
5.04454e-08
5.04453e-08
5.04453e-08
5.04452e-08
5.04453e-08
5.04452e-08
5.04453e-08
5.04453e-08
5.04453e-08
5.04453e-08
5.04452e-08
5.04452e-08
5.04452e-08
5.04452e-08
5.04452e-08
5.04452e-08
5.04452e-08
5.04452e-08
5.04451e-08
5.04452e-08
5.04449e-08
5.04453e-08
5.04447e-08
5.04455e-08
5.04442e-08
5.0446e-08
5.04434e-08
5.04467e-08
5.04425e-08
5.04474e-08
5.04416e-08
5.04476e-08
5.04416e-08
5.04462e-08
5.04435e-08
5.04421e-08
5.04494e-08
5.04335e-08
5.04639e-08
5.04231e-08
8.19532e-09
1.11746e-08
1.40972e-08
1.36266e-08
1.66781e-08
1.71076e-08
1.97249e-08
2.08533e-08
2.29383e-08
2.45069e-08
2.63133e-08
2.79132e-08
2.95309e-08
3.09895e-08
3.24126e-08
3.37275e-08
3.49671e-08
3.61222e-08
3.71992e-08
3.82009e-08
3.91314e-08
3.99948e-08
4.0795e-08
4.15363e-08
4.22223e-08
4.28569e-08
4.34438e-08
4.39863e-08
4.44874e-08
4.49501e-08
4.53772e-08
4.57716e-08
4.61355e-08
4.64714e-08
4.67812e-08
4.70671e-08
4.73307e-08
4.7574e-08
4.77983e-08
4.80053e-08
4.81962e-08
4.83722e-08
4.85347e-08
4.86844e-08
4.88227e-08
4.895e-08
4.90676e-08
4.9176e-08
4.9276e-08
4.93682e-08
4.94532e-08
4.95317e-08
4.9604e-08
4.96708e-08
4.97322e-08
4.97891e-08
4.98413e-08
4.98897e-08
4.99342e-08
4.99752e-08
5.00132e-08
5.0048e-08
5.00803e-08
5.011e-08
5.01374e-08
5.01626e-08
5.0186e-08
5.02074e-08
5.02273e-08
5.02456e-08
5.02624e-08
5.0278e-08
5.02923e-08
5.03055e-08
5.03177e-08
5.03293e-08
5.03399e-08
5.03496e-08
5.03588e-08
5.0367e-08
5.03749e-08
5.03818e-08
5.03885e-08
5.03944e-08
5.04002e-08
5.04051e-08
5.041e-08
5.04142e-08
5.04184e-08
5.0422e-08
5.04255e-08
5.04286e-08
5.04316e-08
5.04342e-08
5.04368e-08
5.0439e-08
5.04412e-08
5.04431e-08
5.04449e-08
5.04465e-08
5.04481e-08
5.04494e-08
5.04508e-08
5.04519e-08
5.04531e-08
5.04541e-08
5.0455e-08
5.04559e-08
5.04567e-08
5.04574e-08
5.04581e-08
5.04587e-08
5.04593e-08
5.04598e-08
5.04603e-08
5.04608e-08
5.04612e-08
5.04616e-08
5.04619e-08
5.04622e-08
5.04625e-08
5.04628e-08
5.04631e-08
5.04633e-08
5.04635e-08
5.04637e-08
5.04638e-08
5.0464e-08
5.04642e-08
5.04643e-08
5.04645e-08
5.04646e-08
5.04647e-08
5.04648e-08
5.04649e-08
5.0465e-08
5.04651e-08
5.04651e-08
5.04652e-08
5.04653e-08
5.04654e-08
5.04654e-08
5.04654e-08
5.04655e-08
5.04655e-08
5.04656e-08
5.04656e-08
5.04656e-08
5.04656e-08
5.04656e-08
5.04657e-08
5.04657e-08
5.04658e-08
5.04658e-08
5.04658e-08
5.04658e-08
5.04658e-08
5.04658e-08
5.04658e-08
5.04659e-08
5.04658e-08
5.04658e-08
5.04658e-08
5.04659e-08
5.04659e-08
5.04659e-08
5.04659e-08
5.04659e-08
5.04659e-08
5.04659e-08
5.04659e-08
5.04659e-08
5.04659e-08
5.04659e-08
5.04659e-08
5.04659e-08
5.0466e-08
5.0466e-08
5.04659e-08
5.0466e-08
5.04659e-08
5.0466e-08
5.0466e-08
5.0466e-08
5.0466e-08
5.0466e-08
5.0466e-08
5.0466e-08
5.0466e-08
5.0466e-08
5.0466e-08
5.0466e-08
5.0466e-08
5.0466e-08
5.0466e-08
5.0466e-08
5.0466e-08
5.0466e-08
5.0466e-08
5.0466e-08
5.0466e-08
5.0466e-08
5.04659e-08
5.0466e-08
5.0466e-08
5.0466e-08
5.0466e-08
5.0466e-08
5.0466e-08
5.0466e-08
5.0466e-08
5.04659e-08
5.0466e-08
5.04659e-08
5.0466e-08
5.04659e-08
5.0466e-08
5.0466e-08
5.0466e-08
5.0466e-08
5.0466e-08
5.0466e-08
5.0466e-08
5.0466e-08
5.0466e-08
5.0466e-08
5.0466e-08
5.0466e-08
5.0466e-08
5.0466e-08
5.0466e-08
5.0466e-08
5.0466e-08
5.0466e-08
5.0466e-08
5.0466e-08
5.0466e-08
5.0466e-08
5.0466e-08
5.0466e-08
5.0466e-08
5.0466e-08
5.0466e-08
5.0466e-08
5.0466e-08
5.0466e-08
5.0466e-08
5.0466e-08
5.0466e-08
5.0466e-08
5.0466e-08
5.04659e-08
5.0466e-08
5.04659e-08
5.0466e-08
5.04659e-08
5.0466e-08
5.04659e-08
5.0466e-08
5.04659e-08
5.0466e-08
5.0466e-08
5.0466e-08
5.0466e-08
5.0466e-08
5.0466e-08
5.0466e-08
5.0466e-08
5.0466e-08
5.0466e-08
5.0466e-08
5.0466e-08
5.0466e-08
5.0466e-08
5.0466e-08
5.0466e-08
5.0466e-08
5.0466e-08
5.0466e-08
5.0466e-08
5.0466e-08
5.0466e-08
5.04659e-08
5.0466e-08
5.04659e-08
5.04659e-08
5.04659e-08
5.0466e-08
5.04659e-08
5.0466e-08
5.0466e-08
5.0466e-08
5.04659e-08
5.0466e-08
5.04659e-08
5.0466e-08
5.0466e-08
5.0466e-08
5.04659e-08
5.0466e-08
5.04659e-08
5.0466e-08
5.0466e-08
5.0466e-08
5.0466e-08
5.0466e-08
5.0466e-08
5.0466e-08
5.0466e-08
5.0466e-08
5.0466e-08
5.0466e-08
5.0466e-08
5.0466e-08
5.0466e-08
5.0466e-08
5.0466e-08
5.0466e-08
5.0466e-08
5.0466e-08
5.0466e-08
5.0466e-08
5.0466e-08
5.0466e-08
5.0466e-08
5.04659e-08
5.04659e-08
5.04659e-08
5.04659e-08
5.04659e-08
5.04659e-08
5.04659e-08
5.0466e-08
5.04659e-08
5.0466e-08
5.04659e-08
5.0466e-08
5.0466e-08
5.0466e-08
5.04659e-08
5.0466e-08
5.0466e-08
5.0466e-08
5.04659e-08
5.0466e-08
5.0466e-08
5.0466e-08
5.0466e-08
5.0466e-08
5.0466e-08
5.04659e-08
5.0466e-08
5.04659e-08
5.0466e-08
5.04659e-08
5.0466e-08
5.04659e-08
5.0466e-08
5.04659e-08
5.04659e-08
5.04658e-08
5.04659e-08
5.04659e-08
5.04659e-08
5.04659e-08
5.0466e-08
5.04659e-08
5.04659e-08
5.04659e-08
5.04659e-08
5.04659e-08
5.0466e-08
5.04659e-08
5.0466e-08
5.04658e-08
5.0466e-08
5.04658e-08
5.0466e-08
5.04658e-08
5.0466e-08
5.04658e-08
5.04659e-08
5.04658e-08
5.0466e-08
5.04658e-08
5.04659e-08
5.04659e-08
5.04659e-08
5.04659e-08
5.04659e-08
5.04659e-08
5.04659e-08
5.04659e-08
5.04659e-08
5.04659e-08
5.04659e-08
5.0466e-08
5.04659e-08
5.04659e-08
5.04659e-08
5.04659e-08
5.04659e-08
5.04659e-08
5.04659e-08
5.04659e-08
5.04659e-08
5.0466e-08
5.04659e-08
5.0466e-08
5.04659e-08
5.0466e-08
5.04659e-08
5.0466e-08
5.04659e-08
5.04659e-08
5.04659e-08
5.04659e-08
5.04658e-08
5.04659e-08
5.04658e-08
5.0466e-08
5.04658e-08
5.0466e-08
5.04659e-08
5.04661e-08
5.0466e-08
5.04661e-08
5.0466e-08
5.0466e-08
5.04659e-08
5.0466e-08
5.04659e-08
5.04659e-08
5.04659e-08
5.04659e-08
5.04659e-08
5.04659e-08
5.04659e-08
5.04659e-08
5.0466e-08
5.04659e-08
5.0466e-08
5.04659e-08
5.0466e-08
5.04659e-08
5.0466e-08
5.04659e-08
5.04659e-08
5.04659e-08
5.0466e-08
5.04659e-08
5.0466e-08
5.0466e-08