/*--------------------------------*- C++ -*----------------------------------*\
| =========                 |                                                 |
| \\      /  F ield         | OpenFOAM: The Open Source CFD Toolbox           |
|  \\    /   O peration     | Version:  2012                                  |
|   \\  /    A nd           | Website:  www.openfoam.com                      |
|    \\/     M anipulation  |                                                 |
\*---------------------------------------------------------------------------*/
FoamFile
{
    version     2.0;
    format      ascii;
    class       volScalarField;
    location    "0.9";
    object      rho2;
}
// * * * * * * * * * * * * * * * * * * * * * * * * * * * * * * * * * * * * * //

dimensions      [1 -3 0 0 0 0 0];


internalField   nonuniform List<scalar> 
20400
(
0.0122221
0.0122236
0.0122214
0.0122265
0.0122221
0.0122276
0.0122233
0.0122271
0.0122247
0.0122265
0.0122253
0.0122258
0.0122253
0.0122251
0.0122247
0.0122243
0.0122238
0.0122233
0.0122228
0.0122222
0.0122215
0.0122209
0.0122202
0.0122195
0.0122188
0.0122181
0.0122173
0.0122166
0.0122158
0.0122151
0.0122143
0.0122135
0.0122128
0.012212
0.0122112
0.0122105
0.0122097
0.012209
0.0122082
0.0122074
0.0122067
0.0122059
0.0122052
0.0122044
0.0122037
0.0122029
0.0122022
0.0122015
0.0122007
0.0122
0.0121992
0.0121985
0.0121978
0.0121971
0.0121963
0.0121956
0.0121949
0.0121942
0.0121935
0.0121928
0.012192
0.0121913
0.0121906
0.0121899
0.0121892
0.0121885
0.0121878
0.0121871
0.0121864
0.0121857
0.012185
0.0121843
0.0121836
0.0121829
0.0121822
0.0121815
0.0121808
0.0121802
0.0121795
0.0121788
0.0121781
0.0121774
0.0121767
0.012176
0.0121753
0.0121746
0.0121739
0.0121733
0.0121726
0.0121719
0.0121712
0.0121705
0.0121698
0.0121691
0.0121685
0.0121678
0.0121671
0.0121664
0.0121657
0.012165
0.0121644
0.0121637
0.012163
0.0121623
0.0121616
0.0121609
0.0121602
0.0121596
0.0121589
0.0121582
0.0121575
0.0121568
0.0121561
0.0121555
0.0121548
0.0121541
0.0121534
0.0121527
0.0121521
0.0121514
0.0121507
0.01215
0.0121493
0.0121486
0.012148
0.0121473
0.0121466
0.0121459
0.0121452
0.0121445
0.0121439
0.0121432
0.0121425
0.0121418
0.0121411
0.0121405
0.0121398
0.0121391
0.0121384
0.0121377
0.012137
0.0121364
0.0121357
0.012135
0.0121343
0.0121336
0.012133
0.0121323
0.0121316
0.0121309
0.0121302
0.0121295
0.0121289
0.0121282
0.0121275
0.0121268
0.0121261
0.0121254
0.0121248
0.0121241
0.0121234
0.0121227
0.012122
0.0121214
0.0121207
0.01212
0.0121193
0.0121186
0.0121179
0.0121173
0.0121166
0.0121159
0.0121152
0.0121145
0.0121139
0.0121132
0.0121125
0.0121118
0.0121111
0.0121104
0.0121098
0.0121091
0.0121084
0.0121077
0.012107
0.0121064
0.0121057
0.012105
0.0121043
0.0121036
0.0121029
0.0121023
0.0121016
0.0121009
0.0121002
0.0120995
0.0120989
0.0120982
0.0120975
0.0120968
0.0120961
0.0120954
0.0120948
0.0120941
0.0120934
0.0120927
0.012092
0.0120913
0.0120907
0.01209
0.0120893
0.0120886
0.0120879
0.0120873
0.0120866
0.0120859
0.0120852
0.0120845
0.0120838
0.0120832
0.0120825
0.0120818
0.0120811
0.0120804
0.0120798
0.0120791
0.0120784
0.0120777
0.012077
0.0120763
0.0120757
0.012075
0.0120743
0.0120736
0.0120729
0.0120723
0.0120716
0.0120709
0.0120702
0.0120695
0.0120688
0.0120682
0.0120675
0.0120668
0.0120661
0.0120654
0.0120648
0.0120641
0.0120634
0.0120627
0.012062
0.0120613
0.0120607
0.01206
0.0120593
0.0120586
0.0120579
0.0120573
0.0120566
0.0120559
0.0120552
0.0120545
0.0120538
0.0120532
0.0120525
0.0120518
0.0120511
0.0120504
0.0120497
0.0120491
0.0120484
0.0120477
0.012047
0.0120463
0.0120457
0.012045
0.0120443
0.0120436
0.0120429
0.0120422
0.0120416
0.0120409
0.0120402
0.0120395
0.0120388
0.0120382
0.0120375
0.0120368
0.0120361
0.0120354
0.0120347
0.0120341
0.0120334
0.0120327
0.012032
0.0120313
0.0120307
0.01203
0.0120293
0.0120286
0.0120279
0.0120272
0.0120266
0.0120259
0.0120252
0.0120245
0.0120238
0.0120232
0.0120225
0.0120218
0.0120211
0.0120204
0.0120197
0.0120191
0.0120184
0.0120177
0.012017
0.0120163
0.0120156
0.012015
0.0120143
0.0120136
0.0120129
0.0120122
0.0120116
0.0120109
0.0120102
0.0120095
0.0120088
0.0120081
0.0120075
0.0120068
0.0120061
0.0120054
0.0120047
0.0120041
0.0120034
0.0120027
0.012002
0.0120013
0.0120006
0.012
0.0119993
0.0119986
0.0119979
0.0119972
0.0119966
0.0119959
0.0119952
0.0119945
0.0119938
0.0119931
0.0119925
0.0119918
0.0119911
0.0119904
0.0119897
0.0119891
0.0119884
0.0119877
0.011987
0.0119863
0.0119856
0.011985
0.0119843
0.0119836
0.0119829
0.0119822
0.0119815
0.0119809
0.0119802
0.0119795
0.0119788
0.0119781
0.0119775
0.0119768
0.0119761
0.0119754
0.0119747
0.011974
0.0119734
0.0119727
0.011972
0.0119713
0.0119706
0.01197
0.0119693
0.0119686
0.0119679
0.0119672
0.0119665
0.0119659
0.0119652
0.0119645
0.0119638
0.0119631
0.0119625
0.0119618
0.0119611
0.0119604
0.0119597
0.011959
0.0119584
0.0119577
0.011957
0.0119563
0.0119556
0.011955
0.0119543
0.0119536
0.0119529
0.0119522
0.0119515
0.0119509
0.0119502
0.0119495
0.0119488
0.0119481
0.0119475
0.0119468
0.0119461
0.0119454
0.0119447
0.011944
0.0119434
0.0119427
0.011942
0.0119413
0.0119406
0.0119399
0.0119393
0.0119386
0.0119379
0.0119372
0.0119365
0.0119359
0.0119352
0.0119345
0.0119338
0.0119331
0.0119324
0.0119318
0.0119311
0.0119304
0.0119297
0.011929
0.0119284
0.0119277
0.011927
0.0119263
0.0119256
0.0119249
0.0119243
0.0119236
0.0119229
0.0119222
0.0119215
0.0119209
0.0119202
0.0119195
0.0119188
0.0119181
0.0119174
0.0119168
0.0119161
0.0119154
0.0119147
0.011914
0.0119134
0.0119127
0.011912
0.0119113
0.0119106
0.0119099
0.0119093
0.0119086
0.0119079
0.0119072
0.0119065
0.0119058
0.0119052
0.0119045
0.0119038
0.0119031
0.0119024
0.0119018
0.0119011
0.0119004
0.0118997
0.011899
0.0118983
0.0118977
0.011897
0.0118963
0.0118956
0.0118949
0.0118943
0.0118935
0.011893
0.0118921
0.0122209
0.0122236
0.01222
0.0122258
0.0122209
0.0122269
0.0122221
0.0122264
0.0122239
0.0122259
0.0122248
0.0122254
0.0122249
0.0122248
0.0122245
0.0122241
0.0122237
0.0122232
0.0122226
0.012222
0.0122214
0.0122208
0.0122201
0.0122194
0.0122187
0.0122179
0.0122172
0.0122165
0.0122157
0.012215
0.0122142
0.0122134
0.0122127
0.0122119
0.0122112
0.0122104
0.0122096
0.0122089
0.0122081
0.0122074
0.0122066
0.0122059
0.0122051
0.0122044
0.0122036
0.0122029
0.0122021
0.0122014
0.0122007
0.0121999
0.0121992
0.0121985
0.0121978
0.012197
0.0121963
0.0121956
0.0121949
0.0121942
0.0121935
0.0121927
0.012192
0.0121913
0.0121906
0.0121899
0.0121892
0.0121885
0.0121878
0.0121871
0.0121864
0.0121857
0.012185
0.0121843
0.0121836
0.0121829
0.0121822
0.0121815
0.0121808
0.0121802
0.0121795
0.0121788
0.0121781
0.0121774
0.0121767
0.012176
0.0121753
0.0121746
0.0121739
0.0121733
0.0121726
0.0121719
0.0121712
0.0121705
0.0121698
0.0121691
0.0121685
0.0121678
0.0121671
0.0121664
0.0121657
0.012165
0.0121644
0.0121637
0.012163
0.0121623
0.0121616
0.0121609
0.0121602
0.0121596
0.0121589
0.0121582
0.0121575
0.0121568
0.0121561
0.0121555
0.0121548
0.0121541
0.0121534
0.0121527
0.0121521
0.0121514
0.0121507
0.01215
0.0121493
0.0121486
0.012148
0.0121473
0.0121466
0.0121459
0.0121452
0.0121445
0.0121439
0.0121432
0.0121425
0.0121418
0.0121411
0.0121405
0.0121398
0.0121391
0.0121384
0.0121377
0.012137
0.0121364
0.0121357
0.012135
0.0121343
0.0121336
0.012133
0.0121323
0.0121316
0.0121309
0.0121302
0.0121295
0.0121289
0.0121282
0.0121275
0.0121268
0.0121261
0.0121254
0.0121248
0.0121241
0.0121234
0.0121227
0.012122
0.0121214
0.0121207
0.01212
0.0121193
0.0121186
0.0121179
0.0121173
0.0121166
0.0121159
0.0121152
0.0121145
0.0121139
0.0121132
0.0121125
0.0121118
0.0121111
0.0121104
0.0121098
0.0121091
0.0121084
0.0121077
0.012107
0.0121064
0.0121057
0.012105
0.0121043
0.0121036
0.0121029
0.0121023
0.0121016
0.0121009
0.0121002
0.0120995
0.0120989
0.0120982
0.0120975
0.0120968
0.0120961
0.0120954
0.0120948
0.0120941
0.0120934
0.0120927
0.012092
0.0120913
0.0120907
0.01209
0.0120893
0.0120886
0.0120879
0.0120873
0.0120866
0.0120859
0.0120852
0.0120845
0.0120838
0.0120832
0.0120825
0.0120818
0.0120811
0.0120804
0.0120798
0.0120791
0.0120784
0.0120777
0.012077
0.0120763
0.0120757
0.012075
0.0120743
0.0120736
0.0120729
0.0120723
0.0120716
0.0120709
0.0120702
0.0120695
0.0120688
0.0120682
0.0120675
0.0120668
0.0120661
0.0120654
0.0120648
0.0120641
0.0120634
0.0120627
0.012062
0.0120613
0.0120607
0.01206
0.0120593
0.0120586
0.0120579
0.0120573
0.0120566
0.0120559
0.0120552
0.0120545
0.0120538
0.0120532
0.0120525
0.0120518
0.0120511
0.0120504
0.0120497
0.0120491
0.0120484
0.0120477
0.012047
0.0120463
0.0120457
0.012045
0.0120443
0.0120436
0.0120429
0.0120422
0.0120416
0.0120409
0.0120402
0.0120395
0.0120388
0.0120382
0.0120375
0.0120368
0.0120361
0.0120354
0.0120347
0.0120341
0.0120334
0.0120327
0.012032
0.0120313
0.0120307
0.01203
0.0120293
0.0120286
0.0120279
0.0120272
0.0120266
0.0120259
0.0120252
0.0120245
0.0120238
0.0120232
0.0120225
0.0120218
0.0120211
0.0120204
0.0120197
0.0120191
0.0120184
0.0120177
0.012017
0.0120163
0.0120156
0.012015
0.0120143
0.0120136
0.0120129
0.0120122
0.0120116
0.0120109
0.0120102
0.0120095
0.0120088
0.0120081
0.0120075
0.0120068
0.0120061
0.0120054
0.0120047
0.0120041
0.0120034
0.0120027
0.012002
0.0120013
0.0120006
0.012
0.0119993
0.0119986
0.0119979
0.0119972
0.0119966
0.0119959
0.0119952
0.0119945
0.0119938
0.0119931
0.0119925
0.0119918
0.0119911
0.0119904
0.0119897
0.0119891
0.0119884
0.0119877
0.011987
0.0119863
0.0119856
0.011985
0.0119843
0.0119836
0.0119829
0.0119822
0.0119816
0.0119809
0.0119802
0.0119795
0.0119788
0.0119781
0.0119775
0.0119768
0.0119761
0.0119754
0.0119747
0.011974
0.0119734
0.0119727
0.011972
0.0119713
0.0119706
0.01197
0.0119693
0.0119686
0.0119679
0.0119672
0.0119665
0.0119659
0.0119652
0.0119645
0.0119638
0.0119631
0.0119625
0.0119618
0.0119611
0.0119604
0.0119597
0.011959
0.0119584
0.0119577
0.011957
0.0119563
0.0119556
0.011955
0.0119543
0.0119536
0.0119529
0.0119522
0.0119515
0.0119509
0.0119502
0.0119495
0.0119488
0.0119481
0.0119475
0.0119468
0.0119461
0.0119454
0.0119447
0.011944
0.0119434
0.0119427
0.011942
0.0119413
0.0119406
0.0119399
0.0119393
0.0119386
0.0119379
0.0119372
0.0119365
0.0119359
0.0119352
0.0119345
0.0119338
0.0119331
0.0119324
0.0119318
0.0119311
0.0119304
0.0119297
0.011929
0.0119284
0.0119277
0.011927
0.0119263
0.0119256
0.0119249
0.0119243
0.0119236
0.0119229
0.0119222
0.0119215
0.0119209
0.0119202
0.0119195
0.0119188
0.0119181
0.0119174
0.0119168
0.0119161
0.0119154
0.0119147
0.011914
0.0119134
0.0119127
0.011912
0.0119113
0.0119106
0.0119099
0.0119093
0.0119086
0.0119079
0.0119072
0.0119065
0.0119058
0.0119052
0.0119045
0.0119038
0.0119031
0.0119024
0.0119018
0.0119011
0.0119004
0.0118997
0.011899
0.0118983
0.0118977
0.011897
0.0118963
0.0118956
0.0118949
0.0118943
0.0118935
0.011893
0.0118921
0.0122206
0.0122227
0.0122198
0.0122255
0.0122204
0.0122266
0.0122216
0.012226
0.0122233
0.0122253
0.0122242
0.0122247
0.0122242
0.0122241
0.0122238
0.0122234
0.012223
0.0122225
0.012222
0.0122215
0.0122209
0.0122203
0.0122196
0.012219
0.0122183
0.0122176
0.0122169
0.0122162
0.0122155
0.0122148
0.0122141
0.0122133
0.0122126
0.0122118
0.0122111
0.0122103
0.0122096
0.0122088
0.0122081
0.0122073
0.0122066
0.0122058
0.0122051
0.0122043
0.0122036
0.0122029
0.0122021
0.0122014
0.0122007
0.0121999
0.0121992
0.0121985
0.0121977
0.012197
0.0121963
0.0121956
0.0121949
0.0121942
0.0121934
0.0121927
0.012192
0.0121913
0.0121906
0.0121899
0.0121892
0.0121885
0.0121878
0.0121871
0.0121864
0.0121857
0.012185
0.0121843
0.0121836
0.0121829
0.0121822
0.0121815
0.0121808
0.0121801
0.0121795
0.0121788
0.0121781
0.0121774
0.0121767
0.012176
0.0121753
0.0121746
0.0121739
0.0121733
0.0121726
0.0121719
0.0121712
0.0121705
0.0121698
0.0121691
0.0121685
0.0121678
0.0121671
0.0121664
0.0121657
0.012165
0.0121643
0.0121637
0.012163
0.0121623
0.0121616
0.0121609
0.0121602
0.0121596
0.0121589
0.0121582
0.0121575
0.0121568
0.0121561
0.0121555
0.0121548
0.0121541
0.0121534
0.0121527
0.0121521
0.0121514
0.0121507
0.01215
0.0121493
0.0121486
0.012148
0.0121473
0.0121466
0.0121459
0.0121452
0.0121445
0.0121439
0.0121432
0.0121425
0.0121418
0.0121411
0.0121405
0.0121398
0.0121391
0.0121384
0.0121377
0.012137
0.0121364
0.0121357
0.012135
0.0121343
0.0121336
0.012133
0.0121323
0.0121316
0.0121309
0.0121302
0.0121295
0.0121289
0.0121282
0.0121275
0.0121268
0.0121261
0.0121254
0.0121248
0.0121241
0.0121234
0.0121227
0.012122
0.0121214
0.0121207
0.01212
0.0121193
0.0121186
0.0121179
0.0121173
0.0121166
0.0121159
0.0121152
0.0121145
0.0121139
0.0121132
0.0121125
0.0121118
0.0121111
0.0121104
0.0121098
0.0121091
0.0121084
0.0121077
0.012107
0.0121064
0.0121057
0.012105
0.0121043
0.0121036
0.0121029
0.0121023
0.0121016
0.0121009
0.0121002
0.0120995
0.0120989
0.0120982
0.0120975
0.0120968
0.0120961
0.0120954
0.0120948
0.0120941
0.0120934
0.0120927
0.012092
0.0120913
0.0120907
0.01209
0.0120893
0.0120886
0.0120879
0.0120873
0.0120866
0.0120859
0.0120852
0.0120845
0.0120838
0.0120832
0.0120825
0.0120818
0.0120811
0.0120804
0.0120798
0.0120791
0.0120784
0.0120777
0.012077
0.0120763
0.0120757
0.012075
0.0120743
0.0120736
0.0120729
0.0120723
0.0120716
0.0120709
0.0120702
0.0120695
0.0120688
0.0120682
0.0120675
0.0120668
0.0120661
0.0120654
0.0120648
0.0120641
0.0120634
0.0120627
0.012062
0.0120613
0.0120607
0.01206
0.0120593
0.0120586
0.0120579
0.0120573
0.0120566
0.0120559
0.0120552
0.0120545
0.0120538
0.0120532
0.0120525
0.0120518
0.0120511
0.0120504
0.0120497
0.0120491
0.0120484
0.0120477
0.012047
0.0120463
0.0120457
0.012045
0.0120443
0.0120436
0.0120429
0.0120422
0.0120416
0.0120409
0.0120402
0.0120395
0.0120388
0.0120382
0.0120375
0.0120368
0.0120361
0.0120354
0.0120347
0.0120341
0.0120334
0.0120327
0.012032
0.0120313
0.0120307
0.01203
0.0120293
0.0120286
0.0120279
0.0120272
0.0120266
0.0120259
0.0120252
0.0120245
0.0120238
0.0120232
0.0120225
0.0120218
0.0120211
0.0120204
0.0120197
0.0120191
0.0120184
0.0120177
0.012017
0.0120163
0.0120156
0.012015
0.0120143
0.0120136
0.0120129
0.0120122
0.0120116
0.0120109
0.0120102
0.0120095
0.0120088
0.0120081
0.0120075
0.0120068
0.0120061
0.0120054
0.0120047
0.0120041
0.0120034
0.0120027
0.012002
0.0120013
0.0120006
0.012
0.0119993
0.0119986
0.0119979
0.0119972
0.0119966
0.0119959
0.0119952
0.0119945
0.0119938
0.0119931
0.0119925
0.0119918
0.0119911
0.0119904
0.0119897
0.0119891
0.0119884
0.0119877
0.011987
0.0119863
0.0119856
0.011985
0.0119843
0.0119836
0.0119829
0.0119822
0.0119815
0.0119809
0.0119802
0.0119795
0.0119788
0.0119781
0.0119775
0.0119768
0.0119761
0.0119754
0.0119747
0.011974
0.0119734
0.0119727
0.011972
0.0119713
0.0119706
0.01197
0.0119693
0.0119686
0.0119679
0.0119672
0.0119665
0.0119659
0.0119652
0.0119645
0.0119638
0.0119631
0.0119625
0.0119618
0.0119611
0.0119604
0.0119597
0.011959
0.0119584
0.0119577
0.011957
0.0119563
0.0119556
0.011955
0.0119543
0.0119536
0.0119529
0.0119522
0.0119515
0.0119509
0.0119502
0.0119495
0.0119488
0.0119481
0.0119475
0.0119468
0.0119461
0.0119454
0.0119447
0.011944
0.0119434
0.0119427
0.011942
0.0119413
0.0119406
0.0119399
0.0119393
0.0119386
0.0119379
0.0119372
0.0119365
0.0119359
0.0119352
0.0119345
0.0119338
0.0119331
0.0119324
0.0119318
0.0119311
0.0119304
0.0119297
0.011929
0.0119284
0.0119277
0.011927
0.0119263
0.0119256
0.0119249
0.0119243
0.0119236
0.0119229
0.0119222
0.0119215
0.0119209
0.0119202
0.0119195
0.0119188
0.0119181
0.0119174
0.0119168
0.0119161
0.0119154
0.0119147
0.011914
0.0119134
0.0119127
0.011912
0.0119113
0.0119106
0.0119099
0.0119093
0.0119086
0.0119079
0.0119072
0.0119065
0.0119058
0.0119052
0.0119045
0.0119038
0.0119031
0.0119024
0.0119018
0.0119011
0.0119004
0.0118997
0.011899
0.0118983
0.0118977
0.011897
0.0118963
0.0118956
0.0118949
0.0118943
0.0118935
0.011893
0.0118921
0.0122196
0.0122216
0.0122186
0.0122245
0.0122194
0.0122258
0.0122207
0.0122253
0.0122227
0.0122249
0.0122237
0.0122243
0.0122239
0.0122238
0.0122235
0.0122232
0.0122228
0.0122223
0.0122218
0.0122213
0.0122207
0.0122201
0.0122195
0.0122188
0.0122182
0.0122175
0.0122168
0.0122161
0.0122153
0.0122146
0.0122139
0.0122131
0.0122124
0.0122116
0.0122109
0.0122102
0.0122094
0.0122087
0.0122079
0.0122072
0.0122064
0.0122057
0.012205
0.0122042
0.0122035
0.0122028
0.012202
0.0122013
0.0122006
0.0121999
0.0121991
0.0121984
0.0121977
0.012197
0.0121963
0.0121956
0.0121948
0.0121941
0.0121934
0.0121927
0.012192
0.0121913
0.0121906
0.0121899
0.0121892
0.0121885
0.0121878
0.0121871
0.0121864
0.0121857
0.012185
0.0121843
0.0121836
0.0121829
0.0121822
0.0121815
0.0121808
0.0121801
0.0121795
0.0121788
0.0121781
0.0121774
0.0121767
0.012176
0.0121753
0.0121746
0.0121739
0.0121733
0.0121726
0.0121719
0.0121712
0.0121705
0.0121698
0.0121691
0.0121685
0.0121678
0.0121671
0.0121664
0.0121657
0.012165
0.0121643
0.0121637
0.012163
0.0121623
0.0121616
0.0121609
0.0121602
0.0121596
0.0121589
0.0121582
0.0121575
0.0121568
0.0121561
0.0121555
0.0121548
0.0121541
0.0121534
0.0121527
0.0121521
0.0121514
0.0121507
0.01215
0.0121493
0.0121486
0.012148
0.0121473
0.0121466
0.0121459
0.0121452
0.0121445
0.0121439
0.0121432
0.0121425
0.0121418
0.0121411
0.0121405
0.0121398
0.0121391
0.0121384
0.0121377
0.012137
0.0121364
0.0121357
0.012135
0.0121343
0.0121336
0.012133
0.0121323
0.0121316
0.0121309
0.0121302
0.0121295
0.0121289
0.0121282
0.0121275
0.0121268
0.0121261
0.0121254
0.0121248
0.0121241
0.0121234
0.0121227
0.012122
0.0121214
0.0121207
0.01212
0.0121193
0.0121186
0.0121179
0.0121173
0.0121166
0.0121159
0.0121152
0.0121145
0.0121139
0.0121132
0.0121125
0.0121118
0.0121111
0.0121104
0.0121098
0.0121091
0.0121084
0.0121077
0.012107
0.0121064
0.0121057
0.012105
0.0121043
0.0121036
0.0121029
0.0121023
0.0121016
0.0121009
0.0121002
0.0120995
0.0120989
0.0120982
0.0120975
0.0120968
0.0120961
0.0120954
0.0120948
0.0120941
0.0120934
0.0120927
0.012092
0.0120913
0.0120907
0.01209
0.0120893
0.0120886
0.0120879
0.0120873
0.0120866
0.0120859
0.0120852
0.0120845
0.0120838
0.0120832
0.0120825
0.0120818
0.0120811
0.0120804
0.0120798
0.0120791
0.0120784
0.0120777
0.012077
0.0120763
0.0120757
0.012075
0.0120743
0.0120736
0.0120729
0.0120723
0.0120716
0.0120709
0.0120702
0.0120695
0.0120688
0.0120682
0.0120675
0.0120668
0.0120661
0.0120654
0.0120648
0.0120641
0.0120634
0.0120627
0.012062
0.0120613
0.0120607
0.01206
0.0120593
0.0120586
0.0120579
0.0120573
0.0120566
0.0120559
0.0120552
0.0120545
0.0120538
0.0120532
0.0120525
0.0120518
0.0120511
0.0120504
0.0120497
0.0120491
0.0120484
0.0120477
0.012047
0.0120463
0.0120457
0.012045
0.0120443
0.0120436
0.0120429
0.0120422
0.0120416
0.0120409
0.0120402
0.0120395
0.0120388
0.0120382
0.0120375
0.0120368
0.0120361
0.0120354
0.0120347
0.0120341
0.0120334
0.0120327
0.012032
0.0120313
0.0120307
0.01203
0.0120293
0.0120286
0.0120279
0.0120272
0.0120266
0.0120259
0.0120252
0.0120245
0.0120238
0.0120232
0.0120225
0.0120218
0.0120211
0.0120204
0.0120197
0.0120191
0.0120184
0.0120177
0.012017
0.0120163
0.0120156
0.012015
0.0120143
0.0120136
0.0120129
0.0120122
0.0120116
0.0120109
0.0120102
0.0120095
0.0120088
0.0120081
0.0120075
0.0120068
0.0120061
0.0120054
0.0120047
0.0120041
0.0120034
0.0120027
0.012002
0.0120013
0.0120006
0.012
0.0119993
0.0119986
0.0119979
0.0119972
0.0119966
0.0119959
0.0119952
0.0119945
0.0119938
0.0119931
0.0119925
0.0119918
0.0119911
0.0119904
0.0119897
0.0119891
0.0119884
0.0119877
0.011987
0.0119863
0.0119856
0.011985
0.0119843
0.0119836
0.0119829
0.0119822
0.0119815
0.0119809
0.0119802
0.0119795
0.0119788
0.0119781
0.0119775
0.0119768
0.0119761
0.0119754
0.0119747
0.011974
0.0119734
0.0119727
0.011972
0.0119713
0.0119706
0.01197
0.0119693
0.0119686
0.0119679
0.0119672
0.0119665
0.0119659
0.0119652
0.0119645
0.0119638
0.0119631
0.0119625
0.0119618
0.0119611
0.0119604
0.0119597
0.011959
0.0119584
0.0119577
0.011957
0.0119563
0.0119556
0.011955
0.0119543
0.0119536
0.0119529
0.0119522
0.0119515
0.0119509
0.0119502
0.0119495
0.0119488
0.0119481
0.0119475
0.0119468
0.0119461
0.0119454
0.0119447
0.011944
0.0119434
0.0119427
0.011942
0.0119413
0.0119406
0.0119399
0.0119393
0.0119386
0.0119379
0.0119372
0.0119365
0.0119359
0.0119352
0.0119345
0.0119338
0.0119331
0.0119324
0.0119318
0.0119311
0.0119304
0.0119297
0.011929
0.0119284
0.0119277
0.011927
0.0119263
0.0119256
0.0119249
0.0119243
0.0119236
0.0119229
0.0119222
0.0119215
0.0119209
0.0119202
0.0119195
0.0119188
0.0119181
0.0119174
0.0119168
0.0119161
0.0119154
0.0119147
0.011914
0.0119134
0.0119127
0.011912
0.0119113
0.0119106
0.0119099
0.0119093
0.0119086
0.0119079
0.0119072
0.0119065
0.0119058
0.0119052
0.0119045
0.0119038
0.0119031
0.0119024
0.0119018
0.0119011
0.0119004
0.0118997
0.011899
0.0118983
0.0118977
0.011897
0.0118963
0.0118956
0.0118949
0.0118943
0.0118935
0.0118929
0.0118921
0.0122194
0.0122202
0.0122182
0.0122239
0.0122188
0.0122254
0.0122201
0.0122248
0.0122222
0.0122243
0.0122232
0.0122238
0.0122234
0.0122233
0.0122231
0.0122228
0.0122224
0.012222
0.0122215
0.012221
0.0122204
0.0122198
0.0122192
0.0122186
0.012218
0.0122173
0.0122166
0.0122159
0.0122152
0.0122145
0.0122137
0.012213
0.0122123
0.0122116
0.0122108
0.0122101
0.0122093
0.0122086
0.0122079
0.0122071
0.0122064
0.0122057
0.0122049
0.0122042
0.0122035
0.0122027
0.012202
0.0122013
0.0122005
0.0121998
0.0121991
0.0121984
0.0121977
0.012197
0.0121962
0.0121955
0.0121948
0.0121941
0.0121934
0.0121927
0.012192
0.0121913
0.0121906
0.0121899
0.0121892
0.0121885
0.0121878
0.0121871
0.0121864
0.0121857
0.012185
0.0121843
0.0121836
0.0121829
0.0121822
0.0121815
0.0121808
0.0121801
0.0121794
0.0121788
0.0121781
0.0121774
0.0121767
0.012176
0.0121753
0.0121746
0.0121739
0.0121733
0.0121726
0.0121719
0.0121712
0.0121705
0.0121698
0.0121691
0.0121685
0.0121678
0.0121671
0.0121664
0.0121657
0.012165
0.0121643
0.0121637
0.012163
0.0121623
0.0121616
0.0121609
0.0121602
0.0121596
0.0121589
0.0121582
0.0121575
0.0121568
0.0121561
0.0121555
0.0121548
0.0121541
0.0121534
0.0121527
0.0121521
0.0121514
0.0121507
0.01215
0.0121493
0.0121486
0.012148
0.0121473
0.0121466
0.0121459
0.0121452
0.0121445
0.0121439
0.0121432
0.0121425
0.0121418
0.0121411
0.0121405
0.0121398
0.0121391
0.0121384
0.0121377
0.012137
0.0121364
0.0121357
0.012135
0.0121343
0.0121336
0.012133
0.0121323
0.0121316
0.0121309
0.0121302
0.0121295
0.0121289
0.0121282
0.0121275
0.0121268
0.0121261
0.0121254
0.0121248
0.0121241
0.0121234
0.0121227
0.012122
0.0121214
0.0121207
0.01212
0.0121193
0.0121186
0.0121179
0.0121173
0.0121166
0.0121159
0.0121152
0.0121145
0.0121139
0.0121132
0.0121125
0.0121118
0.0121111
0.0121104
0.0121098
0.0121091
0.0121084
0.0121077
0.012107
0.0121064
0.0121057
0.012105
0.0121043
0.0121036
0.0121029
0.0121023
0.0121016
0.0121009
0.0121002
0.0120995
0.0120989
0.0120982
0.0120975
0.0120968
0.0120961
0.0120954
0.0120948
0.0120941
0.0120934
0.0120927
0.012092
0.0120913
0.0120907
0.01209
0.0120893
0.0120886
0.0120879
0.0120873
0.0120866
0.0120859
0.0120852
0.0120845
0.0120838
0.0120832
0.0120825
0.0120818
0.0120811
0.0120804
0.0120798
0.0120791
0.0120784
0.0120777
0.012077
0.0120763
0.0120757
0.012075
0.0120743
0.0120736
0.0120729
0.0120723
0.0120716
0.0120709
0.0120702
0.0120695
0.0120688
0.0120682
0.0120675
0.0120668
0.0120661
0.0120654
0.0120648
0.0120641
0.0120634
0.0120627
0.012062
0.0120613
0.0120607
0.01206
0.0120593
0.0120586
0.0120579
0.0120573
0.0120566
0.0120559
0.0120552
0.0120545
0.0120538
0.0120532
0.0120525
0.0120518
0.0120511
0.0120504
0.0120497
0.0120491
0.0120484
0.0120477
0.012047
0.0120463
0.0120457
0.012045
0.0120443
0.0120436
0.0120429
0.0120422
0.0120416
0.0120409
0.0120402
0.0120395
0.0120388
0.0120382
0.0120375
0.0120368
0.0120361
0.0120354
0.0120347
0.0120341
0.0120334
0.0120327
0.012032
0.0120313
0.0120307
0.01203
0.0120293
0.0120286
0.0120279
0.0120272
0.0120266
0.0120259
0.0120252
0.0120245
0.0120238
0.0120232
0.0120225
0.0120218
0.0120211
0.0120204
0.0120197
0.0120191
0.0120184
0.0120177
0.012017
0.0120163
0.0120156
0.012015
0.0120143
0.0120136
0.0120129
0.0120122
0.0120116
0.0120109
0.0120102
0.0120095
0.0120088
0.0120081
0.0120075
0.0120068
0.0120061
0.0120054
0.0120047
0.0120041
0.0120034
0.0120027
0.012002
0.0120013
0.0120006
0.012
0.0119993
0.0119986
0.0119979
0.0119972
0.0119966
0.0119959
0.0119952
0.0119945
0.0119938
0.0119931
0.0119925
0.0119918
0.0119911
0.0119904
0.0119897
0.0119891
0.0119884
0.0119877
0.011987
0.0119863
0.0119856
0.011985
0.0119843
0.0119836
0.0119829
0.0119822
0.0119815
0.0119809
0.0119802
0.0119795
0.0119788
0.0119781
0.0119775
0.0119768
0.0119761
0.0119754
0.0119747
0.011974
0.0119734
0.0119727
0.011972
0.0119713
0.0119706
0.01197
0.0119693
0.0119686
0.0119679
0.0119672
0.0119665
0.0119659
0.0119652
0.0119645
0.0119638
0.0119631
0.0119625
0.0119618
0.0119611
0.0119604
0.0119597
0.011959
0.0119584
0.0119577
0.011957
0.0119563
0.0119556
0.011955
0.0119543
0.0119536
0.0119529
0.0119522
0.0119515
0.0119509
0.0119502
0.0119495
0.0119488
0.0119481
0.0119475
0.0119468
0.0119461
0.0119454
0.0119447
0.011944
0.0119434
0.0119427
0.011942
0.0119413
0.0119406
0.0119399
0.0119393
0.0119386
0.0119379
0.0119372
0.0119365
0.0119359
0.0119352
0.0119345
0.0119338
0.0119331
0.0119324
0.0119318
0.0119311
0.0119304
0.0119297
0.011929
0.0119284
0.0119277
0.011927
0.0119263
0.0119256
0.0119249
0.0119243
0.0119236
0.0119229
0.0119222
0.0119215
0.0119209
0.0119202
0.0119195
0.0119188
0.0119181
0.0119174
0.0119168
0.0119161
0.0119154
0.0119147
0.011914
0.0119134
0.0119127
0.011912
0.0119113
0.0119106
0.0119099
0.0119093
0.0119086
0.0119079
0.0119072
0.0119065
0.0119058
0.0119052
0.0119045
0.0119038
0.0119031
0.0119024
0.0119018
0.0119011
0.0119004
0.0118997
0.011899
0.0118983
0.0118977
0.011897
0.0118963
0.0118956
0.0118949
0.0118943
0.0118935
0.0118929
0.0118921
0.0122194
0.0122172
0.0122171
0.0122223
0.0122176
0.0122242
0.0122191
0.012224
0.0122215
0.0122237
0.0122227
0.0122234
0.0122231
0.012223
0.0122228
0.0122225
0.0122221
0.0122217
0.0122213
0.0122208
0.0122202
0.0122196
0.012219
0.0122184
0.0122178
0.0122171
0.0122164
0.0122157
0.012215
0.0122143
0.0122136
0.0122129
0.0122122
0.0122114
0.0122107
0.01221
0.0122092
0.0122085
0.0122078
0.012207
0.0122063
0.0122056
0.0122049
0.0122041
0.0122034
0.0122027
0.012202
0.0122012
0.0122005
0.0121998
0.0121991
0.0121984
0.0121976
0.0121969
0.0121962
0.0121955
0.0121948
0.0121941
0.0121934
0.0121927
0.012192
0.0121913
0.0121906
0.0121899
0.0121892
0.0121885
0.0121878
0.0121871
0.0121864
0.0121857
0.012185
0.0121843
0.0121836
0.0121829
0.0121822
0.0121815
0.0121808
0.0121801
0.0121794
0.0121787
0.0121781
0.0121774
0.0121767
0.012176
0.0121753
0.0121746
0.0121739
0.0121732
0.0121726
0.0121719
0.0121712
0.0121705
0.0121698
0.0121691
0.0121685
0.0121678
0.0121671
0.0121664
0.0121657
0.012165
0.0121643
0.0121637
0.012163
0.0121623
0.0121616
0.0121609
0.0121602
0.0121596
0.0121589
0.0121582
0.0121575
0.0121568
0.0121561
0.0121555
0.0121548
0.0121541
0.0121534
0.0121527
0.0121521
0.0121514
0.0121507
0.01215
0.0121493
0.0121486
0.012148
0.0121473
0.0121466
0.0121459
0.0121452
0.0121445
0.0121439
0.0121432
0.0121425
0.0121418
0.0121411
0.0121405
0.0121398
0.0121391
0.0121384
0.0121377
0.012137
0.0121364
0.0121357
0.012135
0.0121343
0.0121336
0.012133
0.0121323
0.0121316
0.0121309
0.0121302
0.0121295
0.0121289
0.0121282
0.0121275
0.0121268
0.0121261
0.0121254
0.0121248
0.0121241
0.0121234
0.0121227
0.012122
0.0121214
0.0121207
0.01212
0.0121193
0.0121186
0.0121179
0.0121173
0.0121166
0.0121159
0.0121152
0.0121145
0.0121139
0.0121132
0.0121125
0.0121118
0.0121111
0.0121104
0.0121098
0.0121091
0.0121084
0.0121077
0.012107
0.0121064
0.0121057
0.012105
0.0121043
0.0121036
0.0121029
0.0121023
0.0121016
0.0121009
0.0121002
0.0120995
0.0120989
0.0120982
0.0120975
0.0120968
0.0120961
0.0120954
0.0120948
0.0120941
0.0120934
0.0120927
0.012092
0.0120913
0.0120907
0.01209
0.0120893
0.0120886
0.0120879
0.0120873
0.0120866
0.0120859
0.0120852
0.0120845
0.0120838
0.0120832
0.0120825
0.0120818
0.0120811
0.0120804
0.0120798
0.0120791
0.0120784
0.0120777
0.012077
0.0120763
0.0120757
0.012075
0.0120743
0.0120736
0.0120729
0.0120723
0.0120716
0.0120709
0.0120702
0.0120695
0.0120688
0.0120682
0.0120675
0.0120668
0.0120661
0.0120654
0.0120648
0.0120641
0.0120634
0.0120627
0.012062
0.0120613
0.0120607
0.01206
0.0120593
0.0120586
0.0120579
0.0120573
0.0120566
0.0120559
0.0120552
0.0120545
0.0120538
0.0120532
0.0120525
0.0120518
0.0120511
0.0120504
0.0120497
0.0120491
0.0120484
0.0120477
0.012047
0.0120463
0.0120457
0.012045
0.0120443
0.0120436
0.0120429
0.0120422
0.0120416
0.0120409
0.0120402
0.0120395
0.0120388
0.0120382
0.0120375
0.0120368
0.0120361
0.0120354
0.0120347
0.0120341
0.0120334
0.0120327
0.012032
0.0120313
0.0120307
0.01203
0.0120293
0.0120286
0.0120279
0.0120272
0.0120266
0.0120259
0.0120252
0.0120245
0.0120238
0.0120232
0.0120225
0.0120218
0.0120211
0.0120204
0.0120197
0.0120191
0.0120184
0.0120177
0.012017
0.0120163
0.0120156
0.012015
0.0120143
0.0120136
0.0120129
0.0120122
0.0120116
0.0120109
0.0120102
0.0120095
0.0120088
0.0120081
0.0120075
0.0120068
0.0120061
0.0120054
0.0120047
0.0120041
0.0120034
0.0120027
0.012002
0.0120013
0.0120006
0.012
0.0119993
0.0119986
0.0119979
0.0119972
0.0119966
0.0119959
0.0119952
0.0119945
0.0119938
0.0119931
0.0119925
0.0119918
0.0119911
0.0119904
0.0119897
0.0119891
0.0119884
0.0119877
0.011987
0.0119863
0.0119856
0.011985
0.0119843
0.0119836
0.0119829
0.0119822
0.0119815
0.0119809
0.0119802
0.0119795
0.0119788
0.0119781
0.0119775
0.0119768
0.0119761
0.0119754
0.0119747
0.011974
0.0119734
0.0119727
0.011972
0.0119713
0.0119706
0.01197
0.0119693
0.0119686
0.0119679
0.0119672
0.0119665
0.0119659
0.0119652
0.0119645
0.0119638
0.0119631
0.0119625
0.0119618
0.0119611
0.0119604
0.0119597
0.011959
0.0119584
0.0119577
0.011957
0.0119563
0.0119556
0.011955
0.0119543
0.0119536
0.0119529
0.0119522
0.0119515
0.0119509
0.0119502
0.0119495
0.0119488
0.0119481
0.0119475
0.0119468
0.0119461
0.0119454
0.0119447
0.011944
0.0119434
0.0119427
0.011942
0.0119413
0.0119406
0.0119399
0.0119393
0.0119386
0.0119379
0.0119372
0.0119365
0.0119359
0.0119352
0.0119345
0.0119338
0.0119331
0.0119324
0.0119318
0.0119311
0.0119304
0.0119297
0.011929
0.0119284
0.0119277