/*--------------------------------*- C++ -*----------------------------------*\
| =========                 |                                                 |
| \\      /  F ield         | OpenFOAM: The Open Source CFD Toolbox           |
|  \\    /   O peration     | Version:  2012                                  |
|   \\  /    A nd           | Website:  www.openfoam.com                      |
|    \\/     M anipulation  |                                                 |
\*---------------------------------------------------------------------------*/
FoamFile
{
    version     2.0;
    format      ascii;
    class       volVectorField;
    location    "0.9";
    object      U;
}
// * * * * * * * * * * * * * * * * * * * * * * * * * * * * * * * * * * * * * //

dimensions      [0 1 -1 0 0 0 0];


internalField   nonuniform List<vector> 
20400
(
(0.00229803 -0.000561636 0)
(-0.000339152 -0.000444458 0)
(0.00444332 0.000217047 0)
(0.00257483 -0.000363757 0)
(0.00675013 0.000156592 0)
(0.00608866 -0.000179388 0)
(0.00906207 0.000118684 0)
(0.00928191 -4.47893e-05 0)
(0.0113577 3.92358e-05 0)
(0.0119964 -2.51024e-05 0)
(0.0135525 -3.37579e-06 0)
(0.014368 -2.85308e-05 0)
(0.0155965 -2.91228e-05 0)
(0.0164406 -3.49229e-05 0)
(0.0174347 -3.81373e-05 0)
(0.0182427 -4.40815e-05 0)
(0.0190516 -4.49032e-05 0)
(0.0197908 -4.69014e-05 0)
(0.02048 -4.79603e-05 0)
(0.0211181 -4.84865e-05 0)
(0.0217089 -4.84289e-05 0)
(0.022255 -4.78416e-05 0)
(0.0227596 -4.68061e-05 0)
(0.0232252 -4.54567e-05 0)
(0.0236548 -4.39025e-05 0)
(0.0240509 -4.22061e-05 0)
(0.0244158 -4.03299e-05 0)
(0.024752 -3.83004e-05 0)
(0.0250617 -3.60476e-05 0)
(0.0253469 -3.35942e-05 0)
(0.0256097 -3.11396e-05 0)
(0.0258517 -2.88232e-05 0)
(0.0260747 -2.65485e-05 0)
(0.0262797 -2.43214e-05 0)
(0.0264689 -2.20549e-05 0)
(0.0266424 -1.98809e-05 0)
(0.026803 -1.77242e-05 0)
(0.0269499 -1.56985e-05 0)
(0.0270864 -1.38151e-05 0)
(0.0272107 -1.20072e-05 0)
(0.0273267 -1.04108e-05 0)
(0.027432 -8.8626e-06 0)
(0.0275304 -7.59518e-06 0)
(0.0276198 -6.28649e-06 0)
(0.027703 -5.27621e-06 0)
(0.0277794 -4.25724e-06 0)
(0.0278492 -3.46937e-06 0)
(0.0279146 -2.74286e-06 0)
(0.0279735 -2.14064e-06 0)
(0.0280292 -1.67093e-06 0)
(0.028079 -1.26156e-06 0)
(0.0281264 -1.00088e-06 0)
(0.0281685 -7.40057e-07 0)
(0.0282087 -6.0037e-07 0)
(0.0282446 -4.55669e-07 0)
(0.0282785 -4.05365e-07 0)
(0.0283094 -3.4954e-07 0)
(0.0283376 -3.37966e-07 0)
(0.0283642 -3.37192e-07 0)
(0.0283881 -3.72488e-07 0)
(0.0284106 -3.90486e-07 0)
(0.0284312 -4.209e-07 0)
(0.0284499 -4.29318e-07 0)
(0.0284678 -4.35074e-07 0)
(0.0284835 -4.28549e-07 0)
(0.0284988 -4.19566e-07 0)
(0.0285121 -4.13285e-07 0)
(0.0285251 -3.9973e-07 0)
(0.0285364 -4.00145e-07 0)
(0.0285475 -3.80092e-07 0)
(0.028557 -3.81672e-07 0)
(0.0285664 -3.5412e-07 0)
(0.0285745 -3.64919e-07 0)
(0.0285825 -3.59311e-07 0)
(0.0285894 -3.51968e-07 0)
(0.0285962 -3.27008e-07 0)
(0.0286022 -3.28759e-07 0)
(0.0286077 -3.08483e-07 0)
(0.0286129 -3.14973e-07 0)
(0.0286175 -2.9865e-07 0)
(0.0286221 -3.06859e-07 0)
(0.0286259 -2.8575e-07 0)
(0.0286298 -2.98055e-07 0)
(0.0286331 -2.69505e-07 0)
(0.0286364 -2.81933e-07 0)
(0.0286391 -2.45367e-07 0)
(0.0286419 -2.61085e-07 0)
(0.0286443 -2.20532e-07 0)
(0.0286467 -2.36256e-07 0)
(0.0286487 -1.93747e-07 0)
(0.0286507 -1.99254e-07 0)
(0.0286524 -1.76165e-07 0)
(0.0286541 -1.62521e-07 0)
(0.0286556 -1.5816e-07 0)
(0.028657 -1.58035e-07 0)
(0.0286582 -1.3397e-07 0)
(0.0286595 -1.40872e-07 0)
(0.0286605 -1.17128e-07 0)
(0.0286616 -1.19777e-07 0)
(0.0286625 -1.07523e-07 0)
(0.0286634 -1.01419e-07 0)
(0.0286641 -8.9551e-08 0)
(0.0286649 -9.13757e-08 0)
(0.0286656 -7.30977e-08 0)
(0.0286662 -8.11158e-08 0)
(0.0286668 -6.01249e-08 0)
(0.0286673 -7.15558e-08 0)
(0.0286678 -4.70713e-08 0)
(0.0286682 -6.02167e-08 0)
(0.0286687 -5.25226e-08 0)
(0.0286691 -4.97984e-08 0)
(0.0286694 -4.97073e-08 0)
(0.0286698 -3.81554e-08 0)
(0.0286701 -2.79997e-08 0)
(0.0286704 -3.37025e-08 0)
(0.0286706 -1.81714e-08 0)
(0.0286709 -3.02123e-08 0)
(0.0286711 -2.18539e-08 0)
(0.0286714 3.41343e-09 0)
(0.0286716 -7.69361e-09 0)
(0.0286718 -4.25129e-09 0)
(0.0286719 9.17581e-09 0)
(0.0286721 -5.55264e-09 0)
(0.0286722 -1.63164e-08 0)
(0.0286724 1.59382e-08 0)
(0.0286726 -8.99173e-09 0)
(0.0286727 -1.97818e-08 0)
(0.0286728 -1.90853e-08 0)
(0.028673 -1.65389e-09 0)
(0.0286731 8.38659e-09 0)
(0.0286732 7.36446e-09 0)
(0.0286732 -2.5632e-09 0)
(0.0286733 -6.27325e-09 0)
(0.0286734 -1.13735e-08 0)
(0.0286734 -1.42605e-09 0)
(0.0286735 -5.14624e-09 0)
(0.0286736 1.00589e-08 0)
(0.0286736 -5.75225e-09 0)
(0.0286737 -2.37614e-08 0)
(0.0286738 -2.22449e-08 0)
(0.0286738 -1.12822e-08 0)
(0.0286739 -2.21631e-09 0)
(0.0286739 5.93436e-09 0)
(0.028674 -6.78928e-09 0)
(0.028674 -2.88781e-08 0)
(0.0286741 -3.10556e-08 0)
(0.0286742 -2.98646e-08 0)
(0.0286742 -1.76493e-08 0)
(0.0286743 -4.0023e-09 0)
(0.0286743 -1.44069e-09 0)
(0.0286743 6.86095e-09 0)
(0.0286743 -7.69112e-09 0)
(0.0286744 5.03171e-09 0)
(0.0286744 5.72919e-09 0)
(0.0286744 -8.6898e-09 0)
(0.0286745 2.87016e-09 0)
(0.0286745 -6.71576e-09 0)
(0.0286745 -7.77342e-09 0)
(0.0286745 -4.48412e-08 0)
(0.0286746 -5.25122e-08 0)
(0.0286745 -4.11431e-08 0)
(0.0286746 -3.3757e-08 0)
(0.0286746 -3.35294e-08 0)
(0.0286746 -4.86214e-08 0)
(0.0286747 -4.59847e-09 0)
(0.0286747 3.59318e-09 0)
(0.0286747 3.73755e-08 0)
(0.0286747 6.54404e-09 0)
(0.0286748 -4.22058e-08 0)
(0.0286748 2.22853e-10 0)
(0.0286748 -1.10875e-08 0)
(0.0286748 -4.52624e-09 0)
(0.0286748 -1.15812e-08 0)
(0.0286749 -3.0438e-09 0)
(0.0286748 -1.20079e-08 0)
(0.0286749 -2.22934e-10 0)
(0.0286749 3.49213e-09 0)
(0.0286749 -1.43262e-09 0)
(0.0286749 -1.25124e-08 0)
(0.0286749 6.30907e-10 0)
(0.0286749 1.05644e-08 0)
(0.0286749 -8.49966e-10 0)
(0.0286748 -1.7293e-08 0)
(0.0286748 -4.11471e-08 0)
(0.0286749 -6.03502e-08 0)
(0.0286749 -3.00966e-08 0)
(0.0286748 -2.81939e-08 0)
(0.028675 -3.1612e-08 0)
(0.0286749 -2.88826e-08 0)
(0.028675 -1.99626e-08 0)
(0.028675 6.40086e-09 0)
(0.028675 7.42812e-09 0)
(0.0286751 4.60631e-09 0)
(0.0286751 1.32135e-08 0)
(0.0286751 1.43024e-09 0)
(0.0286751 -1.31953e-08 0)
(0.0286751 -9.92021e-09 0)
(0.0286751 -1.06839e-08 0)
(0.0286751 -2.18707e-08 0)
(0.0286752 -1.20126e-09 0)
(0.0286752 2.64326e-09 0)
(0.0286752 -2.55698e-09 0)
(0.0286752 2.10436e-08 0)
(0.0286752 1.62261e-08 0)
(0.0286752 -7.95536e-09 0)
(0.0286752 -2.90307e-08 0)
(0.0286752 -1.84993e-08 0)
(0.0286752 2.13004e-08 0)
(0.0286752 6.57014e-09 0)
(0.0286752 1.80695e-08 0)
(0.0286752 7.50713e-09 0)
(0.0286752 4.86411e-09 0)
(0.0286752 -1.18872e-08 0)
(0.0286752 -1.5943e-08 0)
(0.0286752 -2.02607e-08 0)
(0.0286753 -2.06384e-08 0)
(0.0286753 -1.24511e-09 0)
(0.0286753 1.06103e-08 0)
(0.0286753 3.18438e-08 0)
(0.0286752 1.9107e-08 0)
(0.0286752 -9.60685e-10 0)
(0.0286753 1.3403e-08 0)
(0.0286753 2.99703e-08 0)
(0.0286753 2.47842e-08 0)
(0.0286753 8.98994e-09 0)
(0.0286753 1.2206e-08 0)
(0.0286753 3.67289e-09 0)
(0.0286753 2.56889e-08 0)
(0.0286753 2.82501e-08 0)
(0.0286753 2.6391e-08 0)
(0.0286754 2.19683e-08 0)
(0.0286754 5.89401e-08 0)
(0.0286753 3.12877e-08 0)
(0.0286754 -3.50893e-09 0)
(0.0286754 1.43518e-08 0)
(0.0286753 2.5413e-09 0)
(0.0286754 -2.46109e-08 0)
(0.0286754 9.80331e-10 0)
(0.0286754 9.16134e-09 0)
(0.0286754 6.53212e-09 0)
(0.0286754 1.35468e-08 0)
(0.0286755 -6.25684e-10 0)
(0.0286755 1.89202e-08 0)
(0.0286755 1.88626e-08 0)
(0.0286755 1.36607e-08 0)
(0.0286756 2.2371e-08 0)
(0.0286755 4.89063e-09 0)
(0.0286756 1.12113e-08 0)
(0.0286755 2.45514e-09 0)
(0.0286756 -2.30368e-08 0)
(0.0286756 -2.18581e-08 0)
(0.0286756 -4.61606e-09 0)
(0.0286756 -1.19341e-08 0)
(0.0286756 -1.17655e-08 0)
(0.0286756 -1.07995e-08 0)
(0.0286756 3.01101e-09 0)
(0.0286756 4.50534e-09 0)
(0.0286756 -3.2314e-09 0)
(0.0286756 7.74141e-09 0)
(0.0286756 9.88596e-09 0)
(0.0286756 4.51888e-08 0)
(0.0286756 5.42668e-08 0)
(0.0286756 5.60538e-08 0)
(0.0286756 5.64828e-08 0)
(0.0286757 3.27037e-08 0)
(0.0286757 4.81818e-08 0)
(0.0286757 4.55464e-08 0)
(0.0286757 3.05388e-08 0)
(0.0286757 3.34531e-08 0)
(0.0286757 2.33406e-08 0)
(0.0286757 1.44161e-08 0)
(0.0286757 -1.17995e-08 0)
(0.0286757 -4.50827e-09 0)
(0.0286757 -1.43589e-08 0)
(0.0286757 -2.75648e-08 0)
(0.0286757 -2.8049e-08 0)
(0.0286757 -2.07966e-08 0)
(0.0286757 1.1482e-08 0)
(0.0286757 1.92065e-08 0)
(0.0286757 3.94862e-08 0)
(0.0286757 3.97612e-08 0)
(0.0286757 3.90161e-08 0)
(0.0286757 1.42629e-08 0)
(0.0286758 2.18255e-08 0)
(0.0286758 5.98365e-09 0)
(0.0286758 7.18791e-09 0)
(0.0286758 -2.99635e-09 0)
(0.0286758 -2.09142e-08 0)
(0.0286758 -9.1599e-09 0)
(0.0286758 -1.44482e-09 0)
(0.0286758 6.7994e-09 0)
(0.0286758 4.35127e-08 0)
(0.0286758 2.91164e-08 0)
(0.0286758 1.86231e-08 0)
(0.0286758 8.13116e-09 0)
(0.0286758 5.66614e-09 0)
(0.0286758 1.44437e-08 0)
(0.0286758 2.95195e-08 0)
(0.0286759 3.18202e-08 0)
(0.0286759 3.25671e-08 0)
(0.0286759 2.10599e-08 0)
(0.0286759 3.26046e-08 0)
(0.0286759 4.11172e-08 0)
(0.0286759 5.3618e-08 0)
(0.0286759 5.19225e-08 0)
(0.0286758 2.63405e-08 0)
(0.0286759 4.37833e-08 0)
(0.0286759 4.95262e-08 0)
(0.0286759 1.83128e-08 0)
(0.0286759 1.59637e-09 0)
(0.0286759 -4.50923e-08 0)
(0.0286759 -3.402e-08 0)
(0.0286759 -4.91845e-08 0)
(0.0286759 -4.04566e-08 0)
(0.0286759 -3.41881e-08 0)
(0.0286759 -2.13942e-08 0)
(0.028676 -1.75967e-08 0)
(0.028676 -1.88746e-08 0)
(0.028676 -4.49804e-09 0)
(0.028676 -1.37145e-08 0)
(0.0286761 -3.2462e-08 0)
(0.0286761 -3.32919e-08 0)
(0.0286761 -3.57307e-08 0)
(0.028676 -1.77568e-08 0)
(0.0286761 -2.47171e-08 0)
(0.0286761 -3.40006e-08 0)
(0.0286762 -4.0727e-08 0)
(0.0286761 -3.54392e-08 0)
(0.0286762 -2.04289e-08 0)
(0.0286761 -9.807e-09 0)
(0.0286761 3.46426e-09 0)
(0.0286761 1.04326e-08 0)
(0.0286762 5.13574e-09 0)
(0.0286761 2.89807e-09 0)
(0.0286761 -1.05728e-08 0)
(0.0286761 3.78837e-09 0)
(0.0286761 -2.1807e-08 0)
(0.028676 -4.29599e-08 0)
(0.028676 -3.46753e-08 0)
(0.028676 4.94157e-09 0)
(0.0286761 -5.63959e-08 0)
(0.0286761 -6.09385e-08 0)
(0.0286761 -9.3352e-08 0)
(0.0286761 -8.95222e-08 0)
(0.0286761 -7.70371e-08 0)
(0.0286761 -8.01029e-08 0)
(0.0286761 -7.20172e-08 0)
(0.0286761 -3.72121e-08 0)
(0.0286762 -5.0729e-08 0)
(0.0286761 -6.93905e-08 0)
(0.0286761 -5.83004e-08 0)
(0.0286762 -8.79159e-08 0)
(0.0286762 -7.42696e-08 0)
(0.0286762 -7.38059e-08 0)
(0.0286763 -5.33532e-08 0)
(0.0286763 -5.01734e-08 0)
(0.0286763 -5.15686e-08 0)
(0.0286763 -1.01314e-07 0)
(0.0286764 -9.03771e-08 0)
(0.0286763 -7.39996e-08 0)
(0.0286764 -8.84093e-08 0)
(0.0286763 -5.35056e-08 0)
(0.0286764 -6.477e-08 0)
(0.0286763 -2.20502e-09 0)
(0.0286764 1.47736e-08 0)
(0.0286763 7.34874e-08 0)
(0.0286764 4.67423e-08 0)
(0.0286763 1.07103e-08 0)
(0.0286764 -8.01794e-09 0)
(0.0286763 1.91181e-09 0)
(0.0286763 -5.70141e-08 0)
(0.0286763 -7.77854e-08 0)
(0.0286763 -5.99524e-08 0)
(0.0286763 -3.13516e-08 0)
(0.0286763 3.87691e-10 0)
(0.0286764 -1.77388e-08 0)
(0.0286763 5.89632e-08 0)
(0.0286765 5.24901e-08 0)
(0.0286764 7.97301e-08 0)
(0.0286766 5.47608e-08 0)
(0.0286764 5.1207e-08 0)
(0.0286766 5.56222e-08 0)
(0.0286764 4.83557e-08 0)
(0.0286766 6.47524e-08 0)
(0.0286765 2.41036e-08 0)
(0.0286765 8.6612e-09 0)
(0.0286765 -6.46378e-09 0)
(0.0286765 1.26093e-08 0)
(0.0286765 7.56128e-09 0)
(0.0286765 3.41217e-08 0)
(0.0286765 1.64642e-08 0)
(0.0286765 5.38472e-08 0)
(0.0286765 1.33297e-08 0)
(0.0286765 -2.33759e-08 0)
(0.0286765 -2.92537e-09 0)
(0.0286765 6.87762e-09 0)
(0.0286766 3.28754e-08 0)
(0.0286765 2.28048e-08 0)
(0.0286766 1.81368e-08 0)
(0.0286765 1.90708e-09 0)
(0.0286765 2.41989e-08 0)
(0.0286765 1.27121e-08 0)
(0.0286765 2.11382e-09 0)
(0.0286764 1.74236e-08 0)
(0.0286765 1.8251e-08 0)
(0.0286764 3.0968e-09 0)
(0.0286765 -2.56593e-08 0)
(0.0286764 -1.62137e-08 0)
(0.0286764 -3.12675e-08 0)
(0.0286764 -2.31235e-08 0)
(0.0286765 -1.78417e-08 0)
(0.0286764 1.43047e-08 0)
(0.0286766 9.63701e-09 0)
(0.0286765 9.17129e-09 0)
(0.0286767 2.50776e-08 0)
(0.0286766 1.04567e-08 0)
(0.0286767 -4.33361e-08 0)
(0.0286766 -3.53096e-08 0)
(0.0286767 -2.72067e-08 0)
(0.0286766 4.45734e-08 0)
(0.0286767 4.61735e-08 0)
(0.0286766 2.55504e-08 0)
(0.0286766 1.7632e-08 0)
(0.0286766 1.33723e-08 0)
(0.0286766 2.38761e-08 0)
(0.0286766 3.26494e-08 0)
(0.0286766 7.14537e-08 0)
(0.0286765 5.66878e-08 0)
(0.0286764 4.47492e-08 0)
(0.0286765 7.3595e-08 0)
(0.0286765 8.7147e-08 0)
(0.0286766 1.08351e-07 0)
(0.0286766 1.00732e-07 0)
(0.0286767 1.29077e-07 0)
(0.0286766 9.68485e-08 0)
(0.0286767 1.25702e-07 0)
(0.0286766 1.13399e-07 0)
(0.0286766 1.51805e-07 0)
(0.0286766 1.21373e-07 0)
(0.0286767 1.19252e-07 0)
(0.0286766 7.81902e-08 0)
(0.0286766 5.99952e-08 0)
(0.0286765 -2.23426e-08 0)
(0.0286765 -1.31122e-08 0)
(0.0286764 -1.35481e-08 0)
(0.0286764 -1.61235e-08 0)
(0.0286765 4.39892e-08 0)
(0.0286765 3.46983e-08 0)
(0.0286765 2.6913e-08 0)
(0.0286765 1.99955e-08 0)
(0.0286765 7.97321e-09 0)
(0.0286765 -2.95666e-08 0)
(0.0286765 -9.56454e-08 0)
(0.0286764 -6.03179e-08 0)
(0.0286764 -5.1606e-08 0)
(0.0286764 -9.73052e-09 0)
(0.0286764 3.12416e-08 0)
(0.0286764 6.8997e-08 0)
(0.0286765 6.82224e-08 0)
(0.0286765 6.56116e-08 0)
(0.0286765 5.77822e-08 0)
(0.0286765 4.27089e-08 0)
(0.0286765 -1.06662e-08 0)
(0.0286764 -1.44633e-08 0)
(0.0286765 -2.81387e-08 0)
(0.0286765 -3.42721e-08 0)
(0.0286765 -3.30363e-08 0)
(0.0286765 -4.70067e-08 0)
(0.0286766 -2.98328e-08 0)
(0.0286766 -2.46926e-08 0)
(0.0286766 7.76343e-10 0)
(0.0286766 4.11439e-09 0)
(0.0286766 3.62504e-08 0)
(0.0286766 3.91069e-10 0)
(0.0286766 1.24795e-08 0)
(0.0286766 1.47943e-08 0)
(0.0286766 -5.35984e-09 0)
(0.0286767 -1.98909e-08 0)
(0.0286766 -1.77813e-08 0)
(0.0286768 -4.40722e-09 0)
(0.0286766 9.32175e-09 0)
(0.028677 -4.26961e-09 0)
(0.0286764 1.69406e-08 0)
(0.0286772 -1.8053e-08 0)
(0.0286761 4.19829e-08 0)
(0.0286777 -4.63954e-08 0)
(0.0286756 9.08413e-08 0)
(0.0286783 -7.31779e-08 0)
(0.0286749 1.48996e-07 0)
(0.0286788 -1.56626e-07 0)
(0.0286746 1.77483e-07 0)
(0.0286786 -1.97594e-07 0)
(0.0286758 2.27001e-07 0)
(0.0286762 -2.35193e-07 0)
(0.0286797 -3.6758e-08 0)
(0.0286692 -1.44431e-07 0)
(0.0286908 -1.69209e-07 0)
(0.0286494 -4.88837e-07 0)
(0.0287177 1.04179e-05 0)
(0.0285865 1.46222e-05 0)
(0.00361329 -0.00122597 0)
(-0.00123011 -0.00254291 0)
(0.00756741 -0.00199687 0)
(0.00467426 -0.00261708 0)
(0.01117 -0.00204518 0)
(0.0105413 -0.00235953 0)
(0.0148722 -0.00193424 0)
(0.0155684 -0.00202448 0)
(0.0186109 -0.00182532 0)
(0.0198781 -0.00175535 0)
(0.0222206 -0.00163347 0)
(0.023688 -0.00152648 0)
(0.0255867 -0.00143825 0)
(0.0270467 -0.00132466 0)
(0.0286189 -0.00124142 0)
(0.0299865 -0.0011504 0)
(0.0313085 -0.00106601 0)
(0.0325312 -0.000986514 0)
(0.0336707 -0.000911841 0)
(0.0347284 -0.00084196 0)
(0.0357095 -0.000776874 0)
(0.0366181 -0.000716566 0)
(0.0374587 -0.000660762 0)
(0.0382357 -0.000609154 0)
(0.0389535 -0.000561432 0)
(0.0396162 -0.000517343 0)
(0.0402279 -0.000476809 0)
(0.0407923 -0.000439528 0)
(0.0413129 -0.00040531 0)
(0.0417927 -0.000373662 0)
(0.0422348 -0.000344331 0)
(0.0426424 -0.000317287 0)
(0.0430179 -0.000292254 0)
(0.0433642 -0.000269534 0)
(0.0436834 -0.000248592 0)
(0.0439773 -0.000229468 0)
(0.0442488 -0.000211839 0)
(0.044498 -0.000195719 0)
(0.0447289 -0.000180634 0)
(0.0449403 -0.000166969 0)
(0.0451367 -0.000154131 0)
(0.0453161 -0.000142483 0)
(0.045483 -0.000131432 0)
(0.0456354 -0.000121537 0)
(0.045777 -0.000112104 0)
(0.045907 -0.000103579 0)
(0.0460265 -9.55501e-05 0)
(0.0461376 -8.81836e-05 0)
(0.0462386 -8.13708e-05 0)
(0.0463333 -7.50066e-05 0)
(0.046419 -6.91703e-05 0)
(0.0464996 -6.3672e-05 0)
(0.0465723 -5.86957e-05 0)
(0.0466408 -5.40135e-05 0)
(0.0467027 -4.97606e-05 0)
(0.0467607 -4.57248e-05 0)
(0.0468138 -4.21147e-05 0)
(0.0468625 -3.87076e-05 0)
(0.046908 -3.56444e-05 0)
(0.0469493 -3.27529e-05 0)
(0.0469878 -3.02126e-05 0)
(0.0470232 -2.78096e-05 0)
(0.0470555 -2.56348e-05 0)
(0.0470858 -2.35911e-05 0)
(0.0471131 -2.17225e-05 0)
(0.047139 -1.99956e-05 0)
(0.0471621 -1.83878e-05 0)
(0.0471842 -1.69396e-05 0)
(0.0472038 -1.55593e-05 0)
(0.0472226 -1.43428e-05 0)
(0.0472392 -1.31686e-05 0)
(0.0472553 -1.21809e-05 0)
(0.0472694 -1.11456e-05 0)
(0.0472831 -1.02571e-05 0)
(0.0472951 -9.44996e-06 0)
(0.0473066 -8.68544e-06 0)
(0.047317 -8.03286e-06 0)
(0.0473266 -7.3534e-06 0)
(0.0473356 -6.8186e-06 0)
(0.0473437 -6.21742e-06 0)
(0.0473514 -5.78699e-06 0)
(0.0473582 -5.25913e-06 0)
(0.0473648 -4.90899e-06 0)
(0.0473705 -4.447e-06 0)
(0.0473762 -4.18134e-06 0)
(0.047381 -3.76604e-06 0)
(0.0473859 -3.565e-06 0)
(0.04739 -3.19153e-06 0)
(0.0473941 -3.04035e-06 0)
(0.0473976 -2.72077e-06 0)
(0.0474011 -2.5744e-06 0)
(0.0474041 -2.33116e-06 0)
(0.047407 -2.1829e-06 0)
(0.0474096 -1.98085e-06 0)
(0.0474121 -1.84571e-06 0)
(0.0474142 -1.67106e-06 0)
(0.0474164 -1.57322e-06 0)
(0.0474182 -1.42457e-06 0)
(0.04742 -1.33708e-06 0)
(0.0474216 -1.21604e-06 0)
(0.0474232 -1.13541e-06 0)
(0.0474245 -1.03017e-06 0)
(0.0474258 -9.68127e-07 0)
(0.0474269 -8.78756e-07 0)
(0.047428 -8.22022e-07 0)
(0.047429 -7.47373e-07 0)
(0.0474299 -7.15645e-07 0)
(0.0474308 -6.29024e-07 0)
(0.0474316 -6.12683e-07 0)
(0.0474323 -5.53227e-07 0)
(0.0474329 -5.12807e-07 0)
(0.0474336 -4.66842e-07 0)
(0.0474341 -4.50422e-07 0)
(0.0474347 -4.05885e-07 0)
(0.0474352 -3.99531e-07 0)
(0.0474356 -3.58237e-07 0)
(0.047436 -3.33567e-07 0)
(0.0474364 -3.26713e-07 0)
(0.0474368 -2.9775e-07 0)
(0.0474371 -2.70788e-07 0)
(0.0474374 -2.79697e-07 0)
(0.0474377 -2.4837e-07 0)
(0.0474379 -2.19103e-07 0)
(0.0474382 -2.50842e-07 0)
(0.0474384 -2.09099e-07 0)
(0.0474387 -1.9802e-07 0)
(0.0474389 -2.25584e-07 0)
(0.0474391 -1.69694e-07 0)
(0.0474392 -1.45102e-07 0)
(0.0474394 -1.43903e-07 0)
(0.0474396 -1.08317e-07 0)
(0.0474397 -1.27698e-07 0)
(0.0474398 -9.82645e-08 0)
(0.0474399 -8.45322e-08 0)
(0.04744 -8.83393e-08 0)
(0.0474401 -9.62746e-08 0)
(0.0474403 -8.81705e-08 0)
(0.0474403 -9.51118e-08 0)
(0.0474404 -7.88527e-08 0)
(0.0474405 -6.30406e-08 0)
(0.0474405 -8.42899e-08 0)
(0.0474406 -7.32061e-08 0)
(0.0474407 -6.31941e-08 0)
(0.0474408 -7.9094e-08 0)
(0.0474409 -7.8852e-08 0)
(0.0474409 -8.60101e-08 0)
(0.0474409 -6.15988e-08 0)
(0.047441 -6.67527e-08 0)
(0.0474411 -5.51042e-08 0)
(0.0474411 -4.26959e-08 0)
(0.0474412 -3.17409e-08 0)
(0.0474412 -1.77929e-08 0)
(0.0474412 -3.64967e-08 0)
(0.0474413 -1.7677e-08 0)
(0.0474413 -6.64265e-08 0)
(0.0474413 -5.85575e-08 0)
(0.0474413 -4.77951e-08 0)
(0.0474413 -2.12514e-08 0)
(0.0474413 -1.78961e-09 0)
(0.0474414 1.23048e-08 0)
(0.0474414 9.18558e-09 0)
(0.0474414 -2.2339e-08 0)
(0.0474415 -2.10369e-08 0)
(0.0474415 -4.78713e-08 0)
(0.0474415 -2.7589e-08 0)
(0.0474415 -4.01685e-08 0)
(0.0474415 -2.71451e-08 0)
(0.0474416 -2.81467e-08 0)
(0.0474415 -4.36638e-08 0)
(0.0474416 -1.26219e-08 0)
(0.0474416 -4.84425e-08 0)
(0.0474417 -3.70304e-08 0)
(0.0474416 -1.33378e-08 0)
(0.0474417 1.04705e-09 0)
(0.0474417 -7.55022e-11 0)
(0.0474417 -3.05697e-09 0)
(0.0474417 9.94046e-09 0)
(0.0474417 -8.32439e-09 0)
(0.0474416 -5.08431e-09 0)
(0.0474416 4.29678e-09 0)
(0.0474416 2.09899e-08 0)
(0.0474416 1.34911e-08 0)
(0.0474415 2.3783e-08 0)
(0.0474415 1.41145e-08 0)
(0.0474415 1.60338e-08 0)
(0.0474415 2.08254e-08 0)
(0.0474415 -6.92527e-08 0)
(0.0474415 -4.63948e-08 0)
(0.0474415 -5.21699e-08 0)
(0.0474415 -3.37576e-08 0)
(0.0474415 -2.46899e-08 0)
(0.0474416 -1.87623e-08 0)
(0.0474415 -2.35693e-08 0)
(0.0474416 -1.73604e-08 0)
(0.0474416 -2.72325e-08 0)
(0.0474416 -2.21967e-08 0)
(0.0474416 -5.15984e-09 0)
(0.0474416 -6.02352e-09 0)
(0.0474416 -2.80368e-08 0)
(0.0474416 -2.1707e-08 0)
(0.0474416 -1.56356e-08 0)
(0.0474416 -2.0633e-08 0)
(0.0474416 1.35814e-09 0)
(0.0474416 8.56159e-09 0)
(0.0474416 2.69896e-08 0)
(0.0474416 1.6228e-08 0)
(0.0474416 -1.0117e-08 0)
(0.0474416 -2.67066e-08 0)
(0.0474416 -5.7543e-08 0)
(0.0474416 -2.02529e-08 0)
(0.0474416 -1.06359e-08 0)
(0.0474416 1.46473e-08 0)
(0.0474417 9.05535e-10 0)
(0.0474417 -3.41928e-08 0)
(0.0474417 -2.88416e-08 0)
(0.0474417 -2.47138e-08 0)
(0.0474416 1.20807e-08 0)
(0.0474416 1.97348e-08 0)
(0.0474416 2.19203e-08 0)
(0.0474415 1.54767e-09 0)
(0.0474415 -3.78322e-09 0)
(0.0474414 -1.91696e-08 0)
(0.0474414 -1.3388e-08 0)
(0.0474414 -2.51485e-08 0)
(0.0474414 -1.97232e-08 0)
(0.0474414 -1.51734e-08 0)
(0.0474415 -1.64187e-08 0)
(0.0474415 -1.80494e-08 0)
(0.0474415 -2.39625e-08 0)
(0.0474415 -5.74751e-08 0)
(0.0474415 -4.17236e-08 0)
(0.0474415 -2.22427e-08 0)
(0.0474415 -1.85645e-09 0)
(0.0474415 -1.01707e-08 0)
(0.0474415 2.12622e-09 0)
(0.0474415 -9.32265e-09 0)
(0.0474415 -2.73545e-08 0)
(0.0474415 5.04655e-09 0)
(0.0474415 -4.48795e-08 0)
(0.0474416 -4.31431e-08 0)
(0.0474416 -3.86379e-08 0)
(0.0474416 -3.84373e-08 0)
(0.0474416 -2.95373e-08 0)
(0.0474416 -6.26133e-08 0)
(0.0474415 -3.23034e-08 0)
(0.0474415 1.89533e-11 0)
(0.0474415 1.55946e-09 0)
(0.0474416 -6.86566e-10 0)
(0.0474416 -5.45187e-09 0)
(0.0474416 -9.56431e-09 0)
(0.0474416 -2.9544e-08 0)
(0.0474416 -2.438e-08 0)
(0.0474416 -1.10386e-08 0)
(0.0474416 1.42137e-08 0)
(0.0474416 2.73721e-08 0)
(0.0474416 1.76496e-08 0)
(0.0474416 1.72989e-08 0)
(0.0474416 7.77667e-09 0)
(0.0474416 1.08355e-08 0)
(0.0474416 -3.9201e-08 0)
(0.0474416 -2.72969e-08 0)
(0.0474415 -5.09702e-08 0)
(0.0474416 -5.56581e-08 0)
(0.0474416 -5.14016e-08 0)
(0.0474416 -4.75284e-08 0)
(0.0474416 -4.80177e-08 0)
(0.0474416 -3.5705e-08 0)
(0.0474416 -3.7533e-08 0)
(0.0474416 -1.25897e-08 0)
(0.0474415 1.6862e-08 0)
(0.0474415 1.55438e-08 0)
(0.0474415 1.24797e-08 0)
(0.0474415 -3.55098e-09 0)
(0.0474416 -1.06433e-08 0)
(0.0474415 3.71269e-09 0)
(0.0474415 2.516e-08 0)
(0.0474415 3.34321e-09 0)
(0.0474416 -4.01124e-08 0)
(0.0474415 -3.55334e-09 0)
(0.0474416 -2.77224e-09 0)
(0.0474416 -3.7903e-08 0)
(0.0474416 -5.16777e-08 0)
(0.0474415 -5.1279e-08 0)
(0.0474415 -3.16116e-08 0)
(0.0474415 7.86095e-10 0)
(0.0474416 1.00359e-09 0)
(0.0474416 -4.82796e-08 0)
(0.0474416 -1.33892e-08 0)
(0.0474416 2.473e-08 0)
(0.0474416 2.02633e-08 0)
(0.0474416 1.11489e-08 0)
(0.0474416 -1.87196e-08 0)
(0.0474416 -5.46474e-09 0)
(0.0474415 -2.23404e-08 0)
(0.0474416 4.94346e-09 0)
(0.0474415 -3.23801e-08 0)
(0.0474416 -2.86811e-08 0)
(0.0474415 -4.12472e-08 0)
(0.0474416 -4.15025e-08 0)
(0.0474416 -3.67239e-08 0)
(0.0474416 -2.94749e-08 0)
(0.0474416 -2.39257e-08 0)
(0.0474416 -1.36655e-08 0)
(0.0474415 9.95653e-09 0)
(0.0474415 2.59956e-08 0)
(0.0474415 -5.73647e-08 0)
(0.0474415 -4.93687e-08 0)
(0.0474415 1.12019e-08 0)
(0.0474415 -1.76353e-08 0)
(0.0474415 9.79893e-09 0)
(0.0474415 9.13686e-09 0)
(0.0474415 1.00269e-08 0)
(0.0474415 1.43584e-08 0)
(0.0474415 -4.91616e-09 0)
(0.0474415 -7.12736e-09 0)
(0.0474416 -2.91094e-08 0)
(0.0474416 -5.06224e-08 0)
(0.0474415 -1.94606e-08 0)
(0.0474416 1.67833e-08 0)
(0.0474416 -3.3214e-08 0)
(0.0474416 -4.37872e-08 0)
(0.0474416 1.70382e-09 0)
(0.0474417 2.22822e-08 0)
(0.0474416 -1.03513e-08 0)
(0.0474417 -2.96717e-08 0)
(0.0474416 -3.73124e-08 0)
(0.0474417 2.43555e-08 0)
(0.0474417 4.1947e-10 0)
(0.0474417 3.44699e-09 0)
(0.0474417 1.06742e-08 0)
(0.0474417 1.39256e-08 0)
(0.0474416 1.16465e-08 0)
(0.0474416 -1.66956e-08 0)
(0.0474416 1.74655e-08 0)
(0.0474416 2.07e-08 0)
(0.0474415 3.24401e-08 0)
(0.0474415 5.41301e-08 0)
(0.0474415 8.05122e-08 0)
(0.0474415 2.58064e-08 0)
(0.0474415 -6.16936e-08 0)
(0.0474414 -3.31441e-08 0)
(0.0474414 -8.06573e-09 0)
(0.0474414 4.29058e-08 0)
(0.0474414 5.81105e-08 0)
(0.0474414 6.0844e-08 0)
(0.0474415 2.60553e-08 0)
(0.0474415 1.24541e-08 0)
(0.0474415 -2.0063e-08 0)
(0.0474415 7.56951e-09 0)
(0.0474415 5.42947e-08 0)
(0.0474416 -1.73991e-08 0)
(0.0474415 -4.61108e-08 0)
(0.0474416 4.81302e-08 0)
(0.0474416 2.35079e-08 0)
(0.0474416 -2.71017e-08 0)
(0.0474416 -2.18599e-08 0)
(0.0474416 -2.38123e-08 0)
(0.0474416 -4.61679e-09 0)
(0.0474417 4.24631e-08 0)
(0.0474416 3.37362e-08 0)
(0.0474417 2.27247e-08 0)
(0.0474417 2.91734e-08 0)
(0.0474417 3.37056e-08 0)
(0.0474416 6.89916e-09 0)
(0.0474416 -2.46562e-08 0)
(0.0474416 1.45422e-08 0)
(0.0474416 -4.29067e-09 0)
(0.0474416 -3.00649e-08 0)
(0.0474417 1.4424e-09 0)
(0.0474416 8.90958e-08 0)
(0.0474416 4.33556e-08 0)
(0.0474416 1.86811e-08 0)
(0.0474415 3.13287e-08 0)
(0.0474416 -2.3402e-08 0)
(0.0474416 -4.77222e-08 0)
(0.0474417 -2.62199e-08 0)
(0.0474417 -7.78528e-08 0)
(0.0474418 -8.93034e-08 0)
(0.0474417 -5.08436e-08 0)
(0.0474418 -2.08812e-08 0)
(0.0474417 -2.03361e-08 0)
(0.0474418 -2.65724e-08 0)
(0.0474417 -3.83104e-08 0)
(0.0474418 -3.70327e-08 0)
(0.0474416 8.85033e-09 0)
(0.0474417 2.66482e-08 0)
(0.0474416 -4.47163e-09 0)
(0.0474417 -1.81932e-08 0)
(0.0474417 2.8873e-08 0)
(0.0474417 5.09698e-09 0)
(0.0474418 -2.68211e-08 0)
(0.0474417 -3.88796e-08 0)
(0.0474417 -6.74677e-08 0)
(0.0474417 1.52681e-08 0)
(0.0474418 3.40076e-08 0)
(0.0474417 -3.50532e-08 0)
(0.0474418 -4.34475e-08 0)
(0.0474417 -2.37002e-08 0)
(0.0474418 2.40915e-09 0)
(0.0474417 3.63926e-08 0)
(0.0474418 2.28628e-08 0)
(0.0474417 2.62913e-08 0)
(0.0474417 1.64882e-08 0)
(0.0474416 2.63438e-09 0)
(0.0474417 2.223e-08 0)
(0.0474416 3.05255e-08 0)
(0.0474417 5.08578e-10 0)
(0.0474416 5.90945e-08 0)
(0.0474418 3.81967e-08 0)
(0.0474417 -4.67214e-08 0)
(0.0474419 -6.49016e-08 0)
(0.0474417 -7.46479e-08 0)
(0.0474418 -5.74207e-08 0)
(0.0474417 -4.3901e-08 0)
(0.0474419 -5.42249e-08 0)
(0.0474417 -3.37147e-08 0)
(0.0474418 1.97398e-08 0)
(0.0474418 4.94585e-08 0)
(0.0474419 2.44227e-08 0)
(0.0474418 -2.24234e-08 0)
(0.0474418 -4.76379e-08 0)
(0.0474417 -6.43856e-09 0)
(0.0474418 1.75637e-08 0)
(0.0474417 7.61039e-09 0)
(0.0474417 1.49994e-08 0)
(0.0474416 1.2619e-08 0)
(0.0474416 3.91848e-08 0)
(0.0474416 7.73799e-08 0)
(0.0474417 -4.22536e-09 0)
(0.0474417 -1.11947e-07 0)
(0.0474416 -1.17149e-07 0)
(0.0474417 -1.02862e-07 0)
(0.0474416 -1.03645e-07 0)
(0.0474417 -7.89834e-08 0)
(0.0474417 -4.14326e-08 0)
(0.0474418 -3.57661e-08 0)
(0.0474417 -1.06616e-08 0)
(0.0474417 -4.97168e-08 0)
(0.0474416 -7.07847e-08 0)
(0.0474416 -5.36577e-08 0)
(0.0474415 2.68958e-08 0)
(0.0474415 1.17392e-08 0)
(0.0474415 5.273e-08 0)
(0.0474415 5.77658e-08 0)
(0.0474416 5.11041e-08 0)
(0.0474415 2.4361e-10 0)
(0.0474416 -2.88915e-08 0)
(0.0474415 -4.16764e-08 0)
(0.0474415 -5.45179e-08 0)
(0.0474415 -2.09486e-08 0)
(0.0474414 1.62342e-08 0)
(0.0474414 6.96913e-08 0)
(0.0474414 8.03487e-08 0)
(0.0474415 3.46327e-08 0)
(0.0474415 1.49001e-08 0)
(0.0474416 3.91809e-08 0)
(0.0474415 -5.22187e-08 0)
(0.0474415 -7.45329e-08 0)
(0.0474415 -8.09682e-08 0)
(0.0474414 -3.04719e-08 0)
(0.0474415 6.85671e-09 0)
(0.0474415 -6.32568e-09 0)
(0.0474415 2.70176e-08 0)
(0.0474415 -1.7869e-08 0)
(0.0474415 -3.10865e-08 0)
(0.0474415 -2.4851e-09 0)
(0.0474416 -6.89827e-09 0)
(0.0474415 -3.67813e-08 0)
(0.0474416 -2.70909e-08 0)
(0.0474416 -5.93625e-09 0)
(0.0474416 -8.44729e-09 0)
(0.0474416 -4.67311e-09 0)
(0.0474415 -9.47304e-09 0)
(0.0474415 8.10676e-09 0)
(0.0474416 -1.56216e-08 0)
(0.0474416 -4.05048e-09 0)
(0.0474416 -5.45648e-08 0)
(0.0474417 -3.52685e-08 0)
(0.0474416 -3.79529e-08 0)
(0.0474418 -4.99183e-08 0)
(0.0474416 -4.81191e-08 0)
(0.047442 -1.98691e-08 0)
(0.0474414 6.07739e-09 0)
(0.0474422 -2.93123e-08 0)
(0.047441 1.20381e-09 0)
(0.0474427 -3.03797e-08 0)
(0.0474403 4.27001e-08 0)
(0.0474433 -5.17708e-08 0)
(0.0474394 1.03205e-07 0)
(0.0474439 -1.37623e-07 0)
(0.0474387 1.97555e-07 0)
(0.047444 -2.29564e-07 0)
(0.0474394 5.67751e-07 0)
(0.0474418 -6.84466e-07 0)
(0.0474425 1.01196e-06 0)
(0.0474349 -7.5488e-07 0)
(0.0474513 3.03118e-06 0)
(0.0474172 -1.64548e-06 0)
(0.0474705 1.4685e-05 0)
(0.0473816 2.4791e-06 0)
(0.00406621 -0.00279354 0)
(-0.00101101 -0.00478483 0)
(0.00817475 -0.00495153 0)
(0.00518835 -0.00522824 0)
(0.0119959 -0.00489945 0)
(0.0114538 -0.00499472 0)
(0.0160228 -0.00467395 0)
(0.0168155 -0.00458332 0)
(0.0200452 -0.0043551 0)
(0.0214349 -0.00415004 0)
(0.0239182 -0.00394002 0)
(0.025502 -0.00369686 0)
(0.0275181 -0.00348217 0)
(0.0290829 -0.00324238 0)
(0.0307446 -0.00302352 0)
(0.0322042 -0.0028077 0)
(0.0336059 -0.00260177 0)
(0.0349018 -0.00240603 0)
(0.036109 -0.00222155 0)
(0.0372291 -0.00204875 0)
(0.0382679 -0.00188739 0)
(0.0392301 -0.00173719 0)
(0.0401209 -0.00159803 0)
(0.0409447 -0.0014694 0)
(0.0417062 -0.0013507 0)
(0.0424098 -0.00124132 0)
(0.0430594 -0.00114029 0)
(0.0436589 -0.00104704 0)
(0.0442123 -0.00096139 0)
(0.044723 -0.000883425 0)
(0.0451942 -0.000812148 0)
(0.0456288 -0.000746658 0)
(0.0460296 -0.000686799 0)
(0.0463992 -0.000631349 0)
(0.0467401 -0.000580778 0)
(0.0470541 -0.00053396 0)
(0.0473442 -0.000491274 0)
(0.0476108 -0.000451687 0)
(0.0478576 -0.000415655 0)
(0.048084 -0.00038244 0)
(0.0482939 -0.000351864 0)
(0.0484862 -0.000323992 0)
(0.0486646 -0.000298113 0)
(0.0488281 -0.000274653 0)
(0.0489795 -0.000252806 0)
(0.0491189 -0.000232935 0)
(0.0492468 -0.000214552 0)
(0.0493658 -0.000197678 0)
(0.0494742 -0.000182213 0)
(0.0495756 -0.000167899 0)
(0.0496675 -0.000154901 0)
(0.0497538 -0.000142715 0)
(0.0498319 -0.000131778 0)
(0.0499052 -0.000121412 0)
(0.0499716 -0.00011215 0)
(0.0500338 -0.000103357 0)
(0.0500906 -9.54885e-05 0)
(0.0501429 -8.79808e-05 0)
(0.0501916 -8.12263e-05 0)
(0.0502359 -7.48623e-05 0)
(0.0502772 -6.90643e-05 0)
(0.0503152 -6.365e-05 0)
(0.0503499 -5.87013e-05 0)
(0.0503825 -5.41368e-05 0)
(0.0504119 -4.99645e-05 0)
(0.0504397 -4.60895e-05 0)
(0.0504646 -4.25353e-05 0)
(0.0504883 -3.92427e-05 0)
(0.0505094 -3.62202e-05 0)
(0.0505297 -3.34376e-05 0)
(0.0505475 -3.08526e-05 0)
(0.0505648 -2.84555e-05 0)
(0.0505799 -2.63293e-05 0)
(0.0505946 -2.42028e-05 0)
(0.0506075 -2.23709e-05 0)
(0.0506199 -2.05582e-05 0)
(0.0506311 -1.9029e-05 0)
(0.0506414 -1.74905e-05 0)
(0.0506511 -1.62016e-05 0)
(0.0506597 -1.48664e-05 0)
(0.050668 -1.37632e-05 0)
(0.0506753 -1.26213e-05 0)
(0.0506824 -1.16937e-05 0)
(0.0506886 -1.07146e-05 0)
(0.0506947 -9.93487e-06 0)
(0.0506999 -9.10195e-06 0)
(0.0507051 -8.44177e-06 0)
(0.0507095 -7.72806e-06 0)
(0.050714 -7.16215e-06 0)
(0.0507177 -6.56315e-06 0)
(0.0507215 -6.0844e-06 0)
(0.0507247 -5.58098e-06 0)
(0.0507279 -5.14251e-06 0)
(0.0507306 -4.75759e-06 0)
(0.0507333 -4.36605e-06 0)
(0.0507356 -4.05443e-06 0)
(0.0507379 -3.71282e-06 0)
(0.0507399 -3.44293e-06 0)
(0.0507419 -3.15422e-06 0)