/*--------------------------------*- C++ -*----------------------------------*\
| =========                 |                                                 |
| \\      /  F ield         | OpenFOAM: The Open Source CFD Toolbox           |
|  \\    /   O peration     | Version:  2012                                  |
|   \\  /    A nd           | Website:  www.openfoam.com                      |
|    \\/     M anipulation  |                                                 |
\*---------------------------------------------------------------------------*/
FoamFile
{
    version     2.0;
    format      ascii;
    class       surfaceScalarField;
    location    "0.22";
    object      phi;
}
// * * * * * * * * * * * * * * * * * * * * * * * * * * * * * * * * * * * * * //

dimensions      [0 3 -1 0 0 0 0];
oriented        oriented;


internalField   nonuniform List<scalar> 
4432
(
4.50249e-06
-4.50249e-06
8.99528e-06
-4.49278e-06
1.35313e-05
-4.53601e-06
1.81268e-05
-4.59549e-06
2.26819e-05
-4.55507e-06
2.73388e-05
-4.65691e-06
3.20347e-05
-4.69594e-06
3.6738e-05
-4.70322e-06
4.13881e-05
-4.65015e-06
4.60335e-05
-4.64543e-06
5.05213e-05
-4.48777e-06
5.49482e-05
-4.42689e-06
5.88434e-05
-3.89512e-06
6.17838e-05
-2.94042e-06
6.45988e-05
-2.81505e-06
6.61216e-05
-1.52272e-06
6.5555e-05
5.66625e-07
6.28603e-05
2.69462e-06
5.74685e-05
5.39189e-06
4.85347e-05
8.93378e-06
3.58558e-05
1.26789e-05
1.92036e-05
1.66523e-05
1.92057e-05
4.49763e-06
-9.00011e-06
8.99391e-06
-8.98905e-06
1.35257e-05
-9.06777e-06
1.81188e-05
-9.18861e-06
2.26749e-05
-9.11112e-06
2.73303e-05
-9.31237e-06
3.20287e-05
-9.39427e-06
3.67414e-05
-9.41593e-06
4.14021e-05
-9.31083e-06
4.60452e-05
-9.28855e-06
5.05691e-05
-9.01164e-06
5.50337e-05
-8.89152e-06
5.89214e-05
-7.78279e-06
6.20692e-05
-6.08827e-06
6.48055e-05
-5.55133e-06
6.62913e-05
-3.00851e-06
6.60244e-05
8.33546e-07
6.33626e-05
5.35643e-06
5.79109e-05
1.08436e-05
4.87176e-05
1.81271e-05
3.56715e-05
2.57251e-05
1.89145e-05
3.34092e-05
3.81226e-05
4.49047e-06
-1.34906e-05
8.99134e-06
-1.34899e-05
1.35145e-05
-1.35909e-05
1.81049e-05
-1.3779e-05
2.26652e-05
-1.36715e-05
2.73214e-05
-1.39685e-05
3.20277e-05
-1.41006e-05
3.67606e-05
-1.41488e-05
4.14475e-05
-1.39978e-05
4.61171e-05
-1.39581e-05
5.07086e-05
-1.36031e-05
5.52069e-05
-1.33899e-05
5.91711e-05
-1.1747e-05
6.26969e-05
-9.61407e-06
6.5535e-05
-8.38944e-06
6.70879e-05
-4.56138e-06
6.73579e-05
5.63502e-07
6.53126e-05
7.40178e-06
6.06e-05
1.55562e-05
5.24168e-05
2.63102e-05
4.01262e-05
3.80157e-05
2.28572e-05
5.06782e-05
6.0982e-05
4.48135e-06
-1.79719e-05
8.98133e-06
-1.79899e-05
1.34899e-05
-1.80995e-05
1.8075e-05
-1.8364e-05
2.26396e-05
-1.82361e-05
2.72937e-05
-1.86226e-05
3.20053e-05
-1.88122e-05
3.67552e-05
-1.88987e-05
4.14757e-05
-1.87183e-05
4.61974e-05
-1.86797e-05
5.0844e-05
-1.82497e-05
5.5365e-05
-1.79109e-05
5.94501e-05
-1.5832e-05
6.32212e-05
-1.33852e-05
6.63299e-05
-1.14981e-05
6.796e-05
-6.19148e-06
6.82845e-05
2.38991e-07
6.63359e-05
9.35038e-06
6.14866e-05
2.04055e-05
5.2896e-05
3.49008e-05
4.03448e-05
5.05669e-05
2.26015e-05
6.84216e-05
8.35857e-05
4.47103e-06
-2.24429e-05
8.96517e-06
-2.2484e-05
1.34581e-05
-2.25924e-05
1.80392e-05
-2.29451e-05
2.26128e-05
-2.28097e-05
2.7271e-05
-2.32807e-05
3.19952e-05
-2.35364e-05
3.67723e-05
-2.36758e-05
4.15458e-05
-2.34918e-05
4.63495e-05
-2.34835e-05
5.1087e-05
-2.29872e-05
5.57071e-05
-2.2531e-05
6.00018e-05
-2.01267e-05
6.41253e-05
-1.75086e-05
6.75402e-05
-1.4913e-05
6.96755e-05
-8.32681e-06
7.07587e-05
-8.44163e-07
6.98029e-05
1.03062e-05
6.62028e-05
2.40056e-05
5.89436e-05
4.21601e-05
4.71917e-05
6.23188e-05
2.85096e-05
8.71036e-05
0.000112096
4.45486e-06
-2.68978e-05
8.93685e-06
-2.6966e-05
1.341e-05
-2.70656e-05
1.79809e-05
-2.7516e-05
2.25584e-05
-2.73871e-05
2.72145e-05
-2.79369e-05
3.19432e-05
-2.8265e-05
3.67387e-05
-2.84713e-05
4.15635e-05
-2.83165e-05
4.64294e-05
-2.83494e-05
5.12656e-05
-2.78233e-05
5.60242e-05
-2.72895e-05
6.05171e-05
-2.46197e-05
6.49062e-05
-2.18977e-05
6.85636e-05
-1.85704e-05
7.11229e-05
-1.08861e-05
7.26846e-05
-2.40591e-06
7.19897e-05
1.10012e-05
6.8593e-05
2.74022e-05
6.11377e-05
4.96154e-05
4.92363e-05
7.42203e-05
2.90856e-05
0.000107254
0.000141181
4.43682e-06
-3.13346e-05
8.9036e-06
-3.14328e-05
1.33607e-05
-3.15228e-05
1.7923e-05
-3.20782e-05
2.25066e-05
-3.19708e-05
2.71682e-05
-3.25985e-05
3.19107e-05
-3.30075e-05
3.67404e-05
-3.3301e-05
4.16352e-05
-3.32112e-05
4.65905e-05
-3.33047e-05
5.15736e-05
-3.28064e-05
5.65484e-05
-3.22643e-05
6.13356e-05
-2.94069e-05
6.61374e-05
-2.66994e-05
7.02227e-05
-2.26557e-05
7.35754e-05
-1.42388e-05
7.60459e-05
-4.87644e-06
7.65488e-05
1.04984e-05
7.49421e-05
2.90089e-05
6.95473e-05
5.50102e-05
5.98859e-05
8.38817e-05
3.9785e-05
0.000127355
0.000180966
4.41293e-06
-3.57475e-05
8.85594e-06
-3.58758e-05
1.32952e-05
-3.59621e-05
1.78387e-05
-3.66217e-05
2.24146e-05
-3.65467e-05
2.70698e-05
-3.72537e-05
3.18148e-05
-3.77525e-05
3.66674e-05
-3.81537e-05
4.16186e-05
-3.81624e-05
4.66511e-05
-3.83372e-05
5.17673e-05
-3.79227e-05
5.69018e-05
-3.73988e-05
6.19582e-05
-3.44632e-05
6.71295e-05
-3.18707e-05
7.16379e-05
-2.71641e-05
7.56402e-05
-1.82411e-05
7.86985e-05
-7.9347e-06
7.96775e-05
9.51933e-06
7.92668e-05
2.94196e-05
7.47294e-05
5.95477e-05
6.52543e-05
9.33568e-05
4.38016e-05
0.000148808
0.000224768
-1.04734e-05
1.04907e-05
-1.92757e-05
8.81948e-06
-2.38909e-05
4.63259e-06
-2.55056e-05
1.63173e-06
-2.43554e-05
-1.13284e-06
-2.12325e-05
-3.10601e-06
-1.74147e-05
-3.80036e-06
-1.34289e-05
-3.96885e-06
-9.45768e-06
-3.95387e-06
-6.11164e-06
-3.32916e-06
-3.31015e-06
-2.78425e-06
-1.22357e-06
-2.06969e-06
2.22086e-07
-1.42854e-06
1.08804e-06
-8.49035e-07
1.45449e-06
-3.49452e-07
1.42572e-06
4.56901e-08
1.11236e-06
3.30317e-07
6.00738e-07
5.28532e-07
6.17662e-07
-1.21995e-05
2.27076e-05
-2.08048e-05
1.74419e-05
-2.42497e-05
8.09494e-06
-2.51657e-05
2.56474e-06
-2.40137e-05
-2.26745e-06
-2.10155e-05
-6.08737e-06
-1.72467e-05
-7.55173e-06
-1.32676e-05
-7.93103e-06
-9.29896e-06
-7.90515e-06
-5.93935e-06
-6.6719e-06
-3.14977e-06
-5.55659e-06
-1.07532e-06
-4.12725e-06
3.48697e-07
-2.83546e-06
1.19189e-06
-1.67532e-06
1.53937e-06
-6.79941e-07
1.49343e-06
1.08545e-07
1.16013e-06
6.80556e-07
6.25189e-07
1.08037e-06
1.25977e-06
-1.21289e-05
3.48539e-05
-2.20669e-05
2.7397e-05
-2.67974e-05
1.28428e-05
-2.75697e-05
3.354e-06
-2.57403e-05
-4.0794e-06
-2.21195e-05
-9.69129e-06
-1.78706e-05
-1.17832e-05
-1.35534e-05
-1.22313e-05
-9.37656e-06
-1.20647e-05
-5.89184e-06
-1.01398e-05
-3.0321e-06
-8.39911e-06
-9.26037e-07
-6.21644e-06
5.0509e-07
-4.24951e-06
1.33049e-06
-2.48382e-06
1.64928e-06
-9.81745e-07
1.56725e-06
2.07464e-07
1.20403e-06
1.06071e-06
6.45644e-07
1.65565e-06
1.92232e-06
-1.46992e-05
4.95704e-05
-2.39765e-05
3.66915e-05
-2.63345e-05
1.52182e-05
-2.64925e-05
3.52895e-06
-2.49819e-05
-5.57252e-06
-2.16009e-05
-1.30555e-05
-1.73552e-05
-1.60115e-05
-1.29397e-05
-1.663e-05
-8.77048e-06
-1.62166e-05
-5.26209e-06
-1.36313e-05
-2.47289e-06
-1.11711e-05
-4.30936e-07
-8.24153e-06
9.14831e-07
-5.57822e-06
1.66426e-06
-3.21639e-06
1.91765e-06
-1.21816e-06
1.77731e-06
3.64672e-07
1.34811e-06
1.50682e-06
7.18561e-07
2.30207e-06
2.65777e-06
-1.68236e-05
6.64113e-05
-2.90792e-05
4.89643e-05
-3.30044e-05
1.91606e-05
-3.11229e-05
1.66432e-06
-2.79694e-05
-8.70865e-06
-2.36058e-05
-1.74023e-05
-1.85046e-05
-2.10953e-05
-1.35357e-05
-2.1582e-05
-8.93696e-06
-2.0798e-05
-5.20231e-06
-1.73492e-05
-2.26291e-06
-1.40933e-05
-1.53883e-07
-1.03337e-05
1.20891e-06
-6.92397e-06
1.9238e-06
-3.91444e-06
2.1214e-06
-1.39881e-06
1.91541e-06
5.87496e-07
1.43369e-06
2.00543e-06
7.59083e-07
2.99352e-06
3.43372e-06
-2.07137e-05
8.71424e-05
-3.09716e-05
5.92394e-05
-3.12083e-05
1.94146e-05
-3.03897e-05
8.62507e-07
-2.75125e-05
-1.15685e-05
-2.30133e-05
-2.18847e-05
-1.77703e-05
-2.6321e-05
-1.23967e-05
-2.69389e-05
-7.8216e-06
-2.53558e-05
-4.04998e-06
-2.1104e-05
-1.25525e-06
-1.68709e-05
7.17521e-07
-1.22897e-05
1.92544e-06
-8.11488e-06
2.50912e-06
-4.48132e-06
2.5898e-06
-1.46257e-06
2.27579e-06
9.18305e-07
1.67535e-06
2.62273e-06
8.80309e-07
3.80537e-06
4.33085e-06
-2.61545e-05
0.000113314
-4.17673e-05
7.48691e-05
-4.35988e-05
2.12634e-05
-3.72339e-05
-5.48566e-06
-3.22145e-05
-1.65706e-05
-2.62555e-05
-2.7827e-05
-1.9465e-05
-3.30942e-05
-1.33136e-05
-3.30735e-05
-8.04346e-06
-3.06087e-05
-3.92607e-06
-2.52047e-05
-9.00541e-07
-1.98793e-05
1.14763e-06
-1.43212e-05
2.35906e-06
-9.30933e-06
2.88156e-06
-4.98705e-06
2.87434e-06
-1.43848e-06
2.47022e-06
1.33919e-06
1.80087e-06
3.3089e-06
9.40397e-07
4.68261e-06
5.28803e-06
-3.1333e-05
0.000144665
-4.31382e-05
8.66916e-05
-3.98935e-05
1.8036e-05
-3.83002e-05
-7.06237e-06
-3.28072e-05
-2.20464e-05
-2.57861e-05
-3.48315e-05
-1.86021e-05
-4.02609e-05
-1.17016e-05
-3.99574e-05
-6.47291e-06
-3.58202e-05
-2.29022e-06
-2.93707e-05
5.35543e-07
-2.2688e-05
2.3962e-06
-1.61651e-05
3.40461e-06
-1.03008e-05
3.74243e-06
-5.30816e-06
3.56402e-06
-1.24324e-06
2.98494e-06
1.93497e-06
2.13588e-06
4.17474e-06
1.10881e-06
5.7264e-06
6.41357e-06
9.30538e-06
-4.50529e-05
1.86765e-05
-4.52469e-05
2.80634e-05
-4.5349e-05
3.76671e-05
-4.62253e-05
4.7382e-05
-4.62617e-05
5.72914e-05
-4.71631e-05
6.7432e-05
-4.7893e-05
7.78816e-05
-4.86033e-05
8.86515e-05
-4.89323e-05
9.97235e-05
-4.94091e-05
0.000111173
-4.93719e-05
0.000122888
-4.91141e-05
0.000134882
-4.64575e-05
0.000147504
-4.44929e-05
0.000159099
-3.87584e-05
0.000170877
-3.00198e-05
0.0001805
-1.75574e-05
0.000189176
8.43336e-07
0.000197209
2.13868e-05
0.000206135
5.06217e-05
0.000214606
8.48855e-05
0.000230126
0.000133288
0.00021235
0.000242549
9.15364e-06
-5.42065e-05
1.83719e-05
-5.44651e-05
2.76356e-05
-5.46126e-05
3.70997e-05
-5.56894e-05
4.67288e-05
-5.58908e-05
5.65821e-05
-5.70164e-05
6.67155e-05
-5.80264e-05
7.72398e-05
-5.91276e-05
8.82318e-05
-5.99243e-05
9.96906e-05
-6.08679e-05
0.000111804
-6.14848e-05
0.000124497
-6.18071e-05
0.000138101
-6.0062e-05
0.000152558
-5.89494e-05
0.000167144
-5.3345e-05
0.000182468
-4.53441e-05
0.00019618
-3.12686e-05
0.000210665
-1.3642e-05
0.000221233
1.08188e-05
0.000229028
4.28272e-05
0.000235094
7.88196e-05
0.000251425
0.000116957
0.000179231
0.000284542
8.94911e-06
-6.31556e-05
1.79605e-05
-6.34765e-05
2.70552e-05
-6.37074e-05
3.63467e-05
-6.49809e-05
4.58656e-05
-6.54096e-05
5.56631e-05
-6.68139e-05
6.57895e-05
-6.81529e-05
7.64033e-05
-6.97414e-05
8.76053e-05
-7.11263e-05
9.94559e-05
-7.27184e-05
0.000112214
-7.42427e-05
0.000126126
-7.57189e-05
0.000141766
-7.57021e-05
0.000158762
-7.59459e-05
0.000177147
-7.17296e-05
0.000196103
-6.43006e-05
0.000214922
-5.00871e-05
0.000235169
-3.38889e-05
0.000252059
-6.07116e-06
0.00026914
2.58199e-05
0.000284802
6.31588e-05
0.000303933
9.78266e-05
0.000151618
0.000331547
8.69523e-06
-7.18509e-05
1.74459e-05
-7.22272e-05
2.63113e-05
-7.25727e-05
3.53566e-05
-7.40262e-05
4.46579e-05
-7.47109e-05
5.42496e-05
-7.64056e-05
6.41998e-05
-7.8103e-05
7.46546e-05
-8.01962e-05
8.58442e-05
-8.23159e-05
9.77724e-05
-8.46467e-05
0.000110775
-8.72448e-05
0.000125511
-9.04557e-05
0.000142487
-9.26779e-05
0.000161797
-9.52554e-05
0.000184077
-9.40104e-05
0.000207725
-8.79475e-05
0.000233011
-7.5373e-05
0.000256785
-5.76636e-05
0.000279056
-2.83345e-05
0.000293936
1.09385e-05
0.000300339
5.67474e-05
0.000314195
9.29968e-05
0.000133329
0.000332532
8.37039e-06
-8.02212e-05
1.67891e-05
-8.06459e-05
2.53506e-05
-8.11341e-05
3.4073e-05
-8.27487e-05
4.31028e-05
-8.37407e-05
5.24659e-05
-8.57686e-05
6.22654e-05
-8.79025e-05
7.26038e-05
-9.05345e-05
8.37186e-05
-9.34307e-05
9.5703e-05
-9.66311e-05
0.000108679
-0.000100221
0.000123895
-0.000105671
0.000142508
-0.000111291
0.00016457
-0.000117318
0.000189504
-0.000118953
0.000213735
-0.000112221
0.000234342
-9.60827e-05
0.000250502
-7.37932e-05
0.000263162
-4.08091e-05
0.000282261
-7.7723e-06
0.000304823
3.45615e-05
0.000319554
7.86591e-05
0.000118209
0.000334833
8.03038e-06
-8.82516e-05
1.6111e-05
-8.87265e-05
2.43626e-05
-8.93858e-05
3.27366e-05
-9.11226e-05
4.14578e-05
-9.24619e-05
5.04631e-05
-9.47739e-05
5.98866e-05
-9.7326e-05
6.97664e-05
-0.000100414
8.04624e-05
-0.000104127
9.239e-05
-0.000108559
0.000105824
-0.000113655
0.000120866
-0.000120714
0.000137979
-0.00012842
0.00015688
-0.000136363
0.000176502
-0.000138713
0.000199338
-0.000134764
0.000230322
-0.000126925
0.000256914
-0.000100374
0.000275066
-5.89454e-05
0.000294378
-2.7067e-05
0.000307717
2.13373e-05
0.000319568
6.7028e-05
0.000104223
0.000333928
7.68346e-06
-9.59351e-05
1.53878e-05
-9.64309e-05
2.32591e-05
-9.72571e-05
3.11655e-05
-9.9029e-05
3.94432e-05
-0.00010074
4.80126e-05
-0.000103343
5.71514e-05
-0.000106465
6.6968e-05
-0.000110231
7.76649e-05
-0.000114824
8.92657e-05
-0.000120161
0.000101237
-0.000125666
0.000113833
-0.000133545
0.000126853
-0.000141664
0.000141364
-0.000150595
0.000177631
-0.000174917
0.000227933
-0.000185048
0.000272221
-0.000171192
0.000301819
-0.000129952
0.000318186
-7.52932e-05
0.000327996
-3.68587e-05
0.00033918
1.01714e-05
0.000352264
5.39656e-05
9.75774e-05
0.000358944
7.33511e-06
-0.00010327
1.46722e-05
-0.000103768
2.22732e-05
-0.000104858
2.9938e-05
-0.000106694
3.8024e-05
-0.000108826
4.6425e-05
-0.000111745
5.52086e-05
-0.000115252
6.41802e-05
-0.000119246
7.34679e-05
-0.000124309
8.39797e-05
-0.000131097
9.64522e-05
-0.000138449
0.000113117
-0.000150098
0.000113788
-0.000142267
0.000129315
-0.000166042
0.000167581
-0.000213157
0.000202498
-0.000219939
0.000228662
-0.000197329
0.000233593
-0.000134863
0.000232731
-7.44128e-05
0.000251972
-5.60822e-05
0.000296443
-3.4281e-05
0.000354012
-3.5837e-06
4.80388e-05
0.00040357
7.15409e-06
-0.000110481
1.42396e-05
-0.000110923
2.16333e-05
-0.000112351
2.89591e-05
-0.00011418
3.64698e-05
-0.000116595
4.40323e-05
-0.000119713
5.22001e-05
-0.000123992
6.17078e-05
-0.0001292
7.65028e-05
-0.000139292
0.000101777
-0.000156263
0.000129714
-0.000166377
0.00014025
-0.000160623
0.00013477
-0.000136772
0.000142245
-0.000173498
0.000149985
-0.00022089
0.000152733
-0.000222675
0.000147982
-0.000192552
0.000147284
-0.000134146
0.00017018
-9.72922e-05
0.00020974
-9.5625e-05
0.000264303
-8.88254e-05
0.000333648
-7.29119e-05
-2.17643e-05
0.00040347
6.8634e-06
-0.000117887
1.35768e-05
-0.000118146
2.07815e-05
-0.000120011
2.82941e-05
-0.000122041
3.72569e-05
-0.000125782
5.39419e-05
-0.000136474
7.739e-05
-0.000147404
0.000109777
-0.000161582
0.000141464
-0.000170966
0.000175271
-0.000190058
0.000195823
-0.000186915
0.000197898
-0.000162686
0.000177501
-0.000116362
0.000149048
-0.00014504
0.000138752
-0.000210596
0.000130859
-0.000214762
0.000115993
-0.000177668
0.000120605
-0.000138742
0.000156421
-0.000133092
0.000204881
-0.000144068
0.000262676
-0.000146604
0.000324815
-0.000135034
-8.05871e-05
0.000383656
1.02469e-05
-0.000128129
2.11929e-05
-0.000129087
3.42e-05
-0.000133012
4.94806e-05
-0.000137315
6.74056e-05
-0.000143698
8.93157e-05
-0.000158373
0.000113851
-0.000171925
0.000145228
-0.000192946
0.000177056
-0.000202779
0.000202928
-0.000215918
0.000217588
-0.000201561
0.000226599
-0.000171684
0.000211548
-0.000101297
0.000174558
-0.000108037
0.000143607
-0.000179633
0.000116789
-0.00018793
0.000102645
-0.000163509
0.000113622
-0.000149703
0.000139831
-0.000159285
0.000173884
-0.000178104
0.000217567
-0.000190272
0.000269408
-0.000186858
-0.000141486
0.000330322
1.20858e-05
-0.000140204
2.47869e-05
-0.000141777
3.90599e-05
-0.000147274
5.55081e-05
-0.000153752
7.38838e-05
-0.000162063
9.18704e-05
-0.000176351
0.000108869
-0.000188913
0.000128704
-0.00021277
0.000157525
-0.000231588
0.000187775
-0.000246157
0.000213131
-0.000226905
0.00022562
-0.000184162
0.000222439
-9.81026e-05
0.000205712
-9.12969e-05
0.000160099
-0.000134006
0.000114443
-0.00014226
9.92492e-05
-0.0001483
0.000106243
-0.000156682
0.000124977
-0.000178003
0.000147781
-0.000200893
0.000182558
-0.000225034
0.000230662
-0.000234946
-0.000204298
0.00029349
9.72249e-06
-0.000149916
1.97601e-05
-0.000151804
2.92919e-05
-0.000156796
3.94667e-05
-0.000163916
5.01188e-05
-0.000172704
6.27348e-05
-0.000188956
7.90508e-05
-0.000205217
0.000100558
-0.000234267
0.000129514
-0.00026053
0.000153543
-0.000270174
0.000170664
-0.000244013
0.000178522
-0.000192007
0.000178862
-9.84286e-05
0.00016932
-8.17417e-05
0.000128835
-9.35063e-05
9.10849e-05
-0.000104496
8.12916e-05
-0.000138492
8.50326e-05
-0.000160408
9.8366e-05
-0.000191322
0.000117001
-0.000219512
0.000149285
-0.000257304
0.000200111
-0.000285756
-0.000276772
0.000272599
6.34405e-06
-0.000156249
1.34585e-05
-0.000158907
2.00931e-05
-0.00016342
2.76663e-05
-0.000171478
3.49099e-05
-0.000179937
4.3147e-05
-0.000197182
5.19198e-05
-0.000213979
6.30835e-05
-0.000245419
7.2246e-05
-0.000269681
7.64052e-05
-0.000274322
7.1127e-05
-0.000238723
6.24106e-05
-0.000183278
6.83194e-05
-0.000104325
6.48473e-05
-7.82562e-05
4.88232e-05
-7.74686e-05
4.28829e-05
-9.85415e-05
4.62481e-05
-0.000141843
5.60081e-05
-0.000170153
7.05766e-05
-0.000205876
8.95149e-05
-0.000238436
0.000119683
-0.000287457
0.000168017
-0.000334077
-0.000354881
0.000246138
3.96465e-06
-0.000160203
8.21228e-06
-0.000163144
1.17726e-05
-0.000166969
1.52187e-05
-0.000174913
1.79547e-05
-0.000182662
2.01378e-05
-0.000199355
2.17869e-05
-0.000215617
1.95014e-05
-0.000243122
9.29067e-06
-0.000259458
-6.59264e-06
-0.000258427
-2.82986e-05
-0.000217005
-4.11802e-05
-0.000170385
-3.12073e-05
-0.000114285
-2.47537e-05
-8.46966e-05
-1.41887e-05
-8.80205e-05
2.77318e-06
-0.00011549
1.32252e-05
-0.000152281
2.45137e-05
-0.000181427
3.59806e-05
-0.000217328
5.04339e-05
-0.000252874
6.93842e-05
-0.000306393
0.0001016
-0.000366277
-0.000414945
0.000161677
2.21752e-06
-0.00016241
4.13204e-06
-0.000165048
5.05982e-06
-0.000167886
5.284e-06
-0.000175127
4.13171e-06
-0.000181499
6.25013e-07
-0.000195837
-6.414e-06
-0.000208567
-2.01771e-05
-0.000229348
-4.11189e-05
-0.000238505
-6.68327e-05
-0.000232702
-8.89503e-05
-0.000194876
-9.91418e-05
-0.000160182
-9.02351e-05
-0.00012318
-7.09197e-05
-0.000104
-4.65663e-05
-0.000112361
-2.74166e-05
-0.000134626
-1.77247e-05
-0.00016196
-1.00555e-05
-0.000189082
-4.72308e-06
-0.000222646
1.44049e-06
-0.000259023
6.56597e-06
-0.000311504
1.91813e-05
-0.000378879
-0.000448742
5.29923e-05
3.45689e-07
-0.000162745
-1.82915e-07
-0.000164509
-1.50089e-06
-0.000166558
-3.95743e-06
-0.000172659
-8.03827e-06
-0.000177407
-1.56263e-05
-0.000188238
-2.75944e-05
-0.000196588
-4.61845e-05
-0.000210747
-7.05294e-05
-0.000214149
-9.43258e-05
-0.000208894
-0.000109465
-0.000179725
-0.000114899
-0.000154736
-0.000104634
-0.000133433
-8.31764e-05
-0.000125445
-6.35986e-05
-0.000131926
-5.159e-05
-0.000146622
-4.57242e-05
-0.000167812
-4.38879e-05
-0.000190905
-4.63261e-05
-0.000220193
-5.09952e-05
-0.000254339
-5.93929e-05
-0.000303089
-6.80103e-05
-0.000370243
-0.0004549
-6.18306e-05
-1.55602e-06
-0.000161178
-3.63733e-06
-0.000162417
-6.24053e-06
-0.000163944
-1.01771e-05
-0.000168712
-1.57052e-05
-0.000171869
-2.45871e-05
-0.000179345
-3.76258e-05
-0.000183538
-5.66895e-05
-0.000191672
-7.97469e-05
-0.000191081
-0.000100528
-0.000188103
-0.000110681
-0.000169561
-0.000110611
-0.000154794
-0.000100888
-0.000143145
-8.73146e-05
-0.000139006
-7.60796e-05
-0.000143149
-6.92712e-05
-0.000153417
-6.86153e-05
-0.000168455
-7.25819e-05
-0.000186925
-8.23439e-05
-0.000210417
-9.89837e-05
-0.000237684
-0.000125365
-0.000276693
-0.000167763
-0.00032783
-0.000397452
-0.000225193
-3.11505e-06
-0.000158053
-6.13539e-06
-0.000159386
-9.6603e-06
-0.000160409
-1.44379e-05
-0.000163924
-2.05739e-05
-0.000165722
-2.91525e-05
-0.000170756
-4.04669e-05
-0.000172213
-5.54653e-05
-0.000176663
-7.25487e-05
-0.000173987
-8.79084e-05
-0.000172732
-9.59999e-05
-0.000161458
-9.76203e-05
-0.000153163
-9.39971e-05
-0.000146757
-8.81361e-05
-0.000144856
-8.38183e-05
-0.000147454
-8.36448e-05
-0.000153578
-8.84731e-05
-0.000163613
-9.79004e-05
-0.000177483
-0.00011438
-0.000193922
-0.000140311
-0.000211737
-0.000181263
-0.000235722
-0.000247558
-0.000261512
-0.000289512
-0.00035547
-3.49983e-06
-0.000154543
-7.30304e-06
-0.000155573
-1.15274e-05
-0.000156174
-1.67288e-05
-0.000158713
-2.28456e-05
-0.000159595
-3.06293e-05
-0.000162962
-3.9952e-05
-0.00016288
-5.12135e-05
-0.000165392
-6.33471e-05
-0.000161843
-7.48918e-05
-0.000161177
-8.25097e-05
-0.000153829
-8.63741e-05
-0.000149287
-8.72199e-05
-0.0001459
-8.7384e-05
-0.00014468
-8.89816e-05
-0.000145845
-9.3524e-05
-0.000149024
-0.00010131
-0.000155814
-0.000113181
-0.000165599
-0.000131337
-0.000175753
-0.000156863
-0.000186197
-0.000193771
-0.0001988
-0.000247539
-0.000207729
-0.000208845
-0.000328191
-3.75843e-06
-0.000150774
-8.00473e-06
-0.000151316
-1.26535e-05
-0.000151515
-1.80685e-05
-0.000153288
-2.4177e-05
-0.000153477
-3.13666e-05
-0.000155763
-3.94988e-05
-0.000154738
-4.86844e-05
-0.000156196
-5.82406e-05
-0.000152276
-6.77897e-05
-0.000151617
-7.49012e-05
-0.000146707
-7.95867e-05
-0.000144591
-8.27413e-05
-0.000142734
-8.65119e-05
-0.000140898
-9.20342e-05
-0.000140311
-9.95875e-05
-0.000141458
-0.000109496
-0.000145893
-0.000124066
-0.000151016
-0.000144282
-0.000155523
-0.000171118
-0.000159345
-0.000207092
-0.000162809
-0.000253087
-0.000161714
-0.000151775
-0.000310135
-4.61061e-06
-0.000146154
-9.35613e-06
-0.000146561
-1.43066e-05
-0.000146555
-1.98326e-05
-0.000147752
-2.58968e-05
-0.000147403
-3.27989e-05
-0.000148851
-4.0328e-05
-0.000147199
-4.84883e-05
-0.000148026
-5.62412e-05
-0.000144513
-6.35789e-05
-0.000144269
-6.95175e-05
-0.000140758
-7.51832e-05
-0.000138915
-8.08377e-05
-0.000137069
-8.69333e-05
-0.000134791
-9.39743e-05
-0.000133259
-0.000102456
-0.000132965
-0.000113232
-0.000135105
-0.00012746
-0.000136774
-0.000145476
-0.000137494
-0.000168413
-0.000136395
-0.000197822
-0.000133387
-0.000233895
-0.000125626
-0.000109698
-0.000275957
-4.81192e-06
-0.000141333
-9.71469e-06
-0.000141649
-1.47883e-05
-0.000141472
-2.02789e-05
-0.000142252
-2.61299e-05
-0.000141542
-3.25313e-05
-0.00014244
-3.9185e-05
-0.000140536
-4.61198e-05
-0.000141081
-5.25923e-05
-0.000138031
-5.93213e-05
-0.000137531
-6.58701e-05
-0.0001342
-7.25255e-05
-0.000132249
-7.92631e-05
-0.000130321
-8.62632e-05
-0.000127781
-9.38888e-05
-0.000125622
-0.000103082
-0.000123761
-0.000114588
-0.000123587
-0.00012883
-0.00012252
-0.000145825
-0.000120487
-0.000166339
-0.000115867
-0.000190536
-0.000109175
-0.000217851
-9.82959e-05
-8.06028e-05
-0.000246929
-4.65259e-06
-0.000136671
-9.4584e-06
-0.000136834
-1.44351e-05
-0.000136486
-1.97645e-05
-0.000136913
-2.53349e-05
-0.000135962
-3.13412e-05
-0.000136425
-3.74598e-05
-0.000134408
-4.39801e-05
-0.000134552
-5.04176e-05
-0.000131584
-5.73333e-05
-0.000130605
-6.38468e-05
-0.000127677
-7.03815e-05
-0.000125705
-7.73296e-05
-0.000123363
-8.45793e-05
-0.000120521
-9.24393e-05
-0.000117752
-0.000101475
-0.000114714
-0.000112323
-0.000112728
-0.000125095
-0.000109736
-0.000139852
-0.000105717
-0.000157018
-9.86883e-05
-0.000176316
-8.98643e-05
-0.000197371
-7.7227e-05
-5.92259e-05
-0.000218734
-4.65417e-06
-0.000132008
-9.40446e-06
-0.000132075
-1.42713e-05
-0.000131611
-1.94026e-05
-0.000131773
-2.47192e-05
-0.000130637
-3.04056e-05
-0.000130729
-3.61996e-05
-0.000128605
-4.24327e-05
-0.00012831
-4.85303e-05
-0.000125478
-5.47939e-05
-0.000124333
-6.09825e-05
-0.000121479
-6.7587e-05
-0.000119091
-7.46372e-05
-0.000116303
-8.2048e-05
-0.0001131
-9.00103e-05
-0.000109779
-9.88243e-05
-0.00010589
-0.000109009
-0.000102532
-0.000120654
-9.80804e-05
-0.00013378
-9.25798e-05
-0.000148292
-8.41652e-05
-0.000163614
-7.45299e-05
-0.000179478
-6.13491e-05
-4.41964e-05
-0.000194494
-4.60835e-06
-0.000127391
-9.28945e-06
-0.000127386
-1.4049e-05
-0.000126843
-1.90224e-05
-0.000126791
-2.41204e-05
-0.000125531
-2.95381e-05
-0.000125303
-3.49885e-05
-0.000123146
-4.07708e-05
-0.000122519
-4.64319e-05
-0.000119808
-5.24639e-05
-0.000118292
-5.86445e-05
-0.000115289
-6.50327e-05
-0.000112694
-7.176e-05
-0.000109566
-7.88078e-05
-0.000106043
-8.63486e-05
-0.000102229
-9.4488e-05
-9.77408e-05
-0.000103631
-9.33786e-05
-0.000113886
-8.78145e-05
-0.000125195
-8.126e-05
-0.000137131
-7.22186e-05
-0.000149363
-6.22859e-05
-0.000161601
-4.90989e-05
-3.30614e-05
-0.000172724
-4.45833e-06
-0.000122925
-8.97345e-06
-0.000122862
-1.35419e-05
-0.000122266
-1.82784e-05
-0.000122047
-2.3089e-05
-0.000120712
-2.81547e-05
-0.000120229
-3.32261e-05
-0.000118066
-3.86101e-05
-0.000117126
-4.4031e-05
-0.000114379
-4.97649e-05
-0.00011255
-5.55915e-05
-0.000109454
-6.16678e-05
-0.000106609
-6.81125e-05
-0.000103113
-7.48817e-05
-9.92648e-05
-8.20496e-05
-9.50518e-05
-8.96538e-05
-9.01273e-05
-9.79615e-05
-8.50615e-05
-0.000107038
-7.87282e-05
-0.000116698
-7.15895e-05
-0.000126489
-6.2418e-05
-0.000136266
-5.24976e-05
-0.000145655
-3.96994e-05
-2.50172e-05
-0.000153688
-4.21311e-06
-0.000118704
-8.48101e-06
-0.000118587
-1.27983e-05
-0.000117941
-1.7277e-05
-0.000117561
-2.18195e-05
-0.000116162
-2.66058e-05
-0.000115435
-3.1422e-05
-0.000113243
-3.65451e-05
-0.000111995
-4.17103e-05
-0.000109206
-4.71083e-05
-0.000107144
-5.2653e-05
-0.000103901
-5.84124e-05
-0.000100841
-6.44265e-05
-9.70901e-05
-7.06696e-05
-9.30131e-05
-7.72475e-05
-8.84652e-05
-8.41368e-05
-8.32291e-05
-9.15089e-05
-7.76802e-05
-9.93322e-05
-7.08955e-05
-0.000107456
-6.34556e-05
-0.000115498
-5.43668e-05
-0.000123394
-4.4591e-05
-0.000130727
-3.23556e-05
-1.89919e-05
-0.000136742
-4.01547e-06
-0.000114682
-8.07475e-06
-0.000114521
-1.21709e-05
-0.000113838
-1.63971e-05
-0.000113327
-2.06694e-05
-0.000111882
-2.51418e-05
-0.000110956
-2.9639e-05
-0.000108738
-3.43648e-05
-0.000107262
-3.9127e-05
-0.000104436
-4.41124e-05
-0.000102151
-4.92389e-05
-9.87672e-05
-5.45669e-05
-9.55055e-05
-6.01419e-05
-9.15073e-05
-6.59306e-05
-8.72166e-05
-7.19739e-05
-8.24138e-05
-7.82369e-05
-7.69579e-05
-8.47924e-05
-7.11163e-05
-9.1557e-05
-6.41222e-05
-9.84145e-05
-5.65893e-05
-0.00010508
-4.7692e-05
-0.000111471
-3.81907e-05
-0.000117197
-2.66208e-05
-1.44643e-05
-0.000121715
-3.74428e-06
-0.000110931
-7.523e-06
-0.000110735
-1.13255e-05
-0.000110029
-1.52342e-05
-0.000109412
-1.9179e-05
-0.000107931
-2.33e-05
-0.000106828
-2.74565e-05
-0.000104575
-3.18326e-05
-0.000102879
-3.62952e-05
-9.99665e-05
-4.09661e-05
-9.74728e-05
-4.57726e-05
-9.39536e-05
-5.07437e-05
-9.05272e-05
-5.58726e-05
-8.63711e-05
-6.11315e-05
-8.19502e-05
-6.65825e-05
-7.69552e-05
-7.21655e-05
-7.13672e-05
-7.79252e-05
-6.53486e-05
-8.3731e-05
-5.83083e-05
-8.95135e-05
-5.07985e-05
-9.50593e-05
-4.21376e-05
-0.000100256
-3.29856e-05
-0.000104711
-2.21563e-05
-1.10093e-05
-0.000108157
-3.44276e-06
-0.000107482
-6.91969e-06
-0.000107252
-1.04274e-05
-0.000106515
-1.40372e-05
-0.000105796
-1.76936e-05
-0.000104268
-2.151e-05
-0.000103005
-2.53703e-05
-0.000100708
-2.94183e-05
-9.8825e-05
-3.35227e-05
-9.58557e-05
-3.77762e-05
-9.32128e-05
-4.21188e-05
-8.96043e-05
-4.65969e-05
-8.60425e-05
-5.12304e-05
-8.17308e-05
-5.59992e-05
-7.71745e-05
-6.09046e-05
-7.20427e-05
-6.58751e-05
-6.63895e-05
-7.09293e-05
-6.02872e-05
-7.59289e-05
-5.33013e-05
-8.08255e-05
-4.58943e-05
-8.54578e-05
-3.74976e-05
-8.97154e-05
-2.87201e-05
-9.32645e-05
-1.85991e-05
-8.30341e-06
-9.59621e-05
-3.14532e-06
-0.000104331
-6.31955e-06
-0.000104072
-9.5195e-06
-0.000103309
-1.28029e-05
-0.000102507
-1.61217e-05
-0.000100943
-1.95677e-05
-9.95534e-05
-2.305e-05
-9.72198e-05
-2.6686e-05
-9.51831e-05
-3.03924e-05
-9.21433e-05
-3.42651e-05
-8.93341e-05
-3.82533e-05
-8.56101e-05
-4.23772e-05
-8.19123e-05
-4.66049e-05
-7.74969e-05
-5.08915e-05
-7.28815e-05
-5.52577e-05
-6.76701e-05
-5.96367e-05
-6.20039e-05
-6.40518e-05
-5.58653e-05
-6.83513e-05
-4.8995e-05
-7.25046e-05
-4.1734e-05
-7.63616e-05
-3.36334e-05
-7.98505e-05
-2.52239e-05
-8.26792e-05
-1.5763e-05
-6.18141e-06
-8.47936e-05
-2.78627e-06
-0.000101539
-5.60388e-06
-0.000101249
-8.45544e-06
-0.000100453
-1.13945e-05
-9.95625e-05
-1.43824e-05
-9.79502e-05
-1.74967e-05
-9.64338e-05
-2.06626e-05
-9.40486e-05
-2.39776e-05
-9.18627e-05
-2.73612e-05
-8.87543e-05
-3.0867e-05
-8.58228e-05
-3.44318e-05
-8.20398e-05
-3.80767e-05
-7.82619e-05
-4.18053e-05
-7.37626e-05
-4.56052e-05
-6.90758e-05
-4.947e-05
-6.37994e-05
-5.33255e-05
-5.81425e-05
-5.71715e-05
-5.20132e-05
-6.08701e-05
-4.52902e-05
-6.44094e-05
-3.81884e-05
-6.76519e-05
-3.03845e-05
-7.05491e-05
-2.23201e-05
-7.28675e-05
-1.34379e-05
-4.4578e-06
-7.45843e-05
-2.43993e-06
-9.90947e-05
-4.91399e-06
-9.87705e-05
-7.42841e-06
-9.79334e-05
-1.00288e-05
-9.69574e-05
-1.26775e-05
-9.52968e-05
-1.54336e-05
-9.36729e-05
-1.82344e-05
-9.1243e-05
-2.11477e-05
-8.89446e-05
-2.41121e-05
-8.5785e-05
-2.71916e-05
-8.27383e-05
-3.03554e-05
-7.8871e-05
-3.36251e-05
-7.49871e-05
-3.6975e-05
-7.04076e-05
-4.03583e-05
-6.56872e-05
-4.37665e-05
-6.03859e-05
-4.7133e-05
-5.47707e-05
-5.04666e-05
-4.86741e-05
-5.36426e-05
-4.21086e-05
-5.66622e-05
-3.51631e-05
-5.93828e-05
-2.76581e-05
-6.17863e-05
-1.99107e-05
-6.36786e-05
-1.15396e-05
-3.06406e-06
-6.50662e-05
-2.02571e-06
-9.70648e-05
-4.09133e-06
-9.67007e-05
-6.20691e-06
-9.58136e-05
-8.4147e-06
-9.47454e-05
-1.0685e-05
-9.30222e-05
-1.30753e-05
-9.12784e-05
-1.55384e-05
-8.87757e-05
-1.81285e-05
-8.63502e-05
-2.07887e-05
-8.31204e-05
-2.35538e-05
-7.99689e-05
-2.6368e-05
-7.60524e-05
-2.92295e-05
-7.21212e-05
-3.2131e-05
-6.75015e-05
-3.50662e-05
-6.27475e-05
-3.80295e-05
-5.74178e-05
-4.09553e-05
-5.18402e-05
-4.38387e-05
-4.57858e-05
-4.65737e-05
-3.93687e-05
-4.91573e-05
-3.25745e-05
-5.14631e-05
-2.53472e-05
-5.34935e-05
-1.78752e-05
-5.50829e-05
-9.9448e-06
-1.89098e-06
-5.62506e-05
-1.64135e-06
-9.54198e-05
-3.31822e-06
-9.50202e-05
-5.04017e-06
-9.4088e-05
-6.84548e-06
-9.29364e-05
-8.71721e-06
-9.11468e-05
-1.0708e-05
-8.92839e-05
-1.27823e-05
-8.66977e-05
-1.49855e-05
-8.41433e-05
-1.72648e-05
-8.08373e-05
-1.96442e-05
-7.75856e-05
-2.20916e-05
-7.36012e-05
-2.46069e-05
-6.96019e-05
-2.71704e-05
-6.4934e-05
-2.97534e-05
-6.01605e-05
-3.23428e-05
-5.48244e-05
-3.48779e-05
-4.9301e-05
-3.73615e-05
-4.3298e-05
-3.97024e-05
-3.70235e-05
-4.19064e-05
-3.03662e-05
-4.38582e-05
-2.33909e-05
-4.55692e-05
-1.61597e-05
-4.68976e-05
-8.61177e-06
-9.09175e-07
-4.78747e-05