/*--------------------------------*- C++ -*----------------------------------*\
| =========                 |                                                 |
| \\      /  F ield         | OpenFOAM: The Open Source CFD Toolbox           |
|  \\    /   O peration     | Version:  2012                                  |
|   \\  /    A nd           | Website:  www.openfoam.com                      |
|    \\/     M anipulation  |                                                 |
\*---------------------------------------------------------------------------*/
FoamFile
{
    version     2.0;
    format      ascii;
    class       volScalarField;
    location    "0.22";
    object      volumeFraction1;
}
// * * * * * * * * * * * * * * * * * * * * * * * * * * * * * * * * * * * * * //

dimensions      [0 0 0 0 0 0 0];


internalField   nonuniform List<scalar> 
2268
(
1
1
1
1
1
1
1
1
1
1
1
1
1
1
1
1
1
1
1
1
1
1
0.990778
1
1
1
1
1
1
1
1
1
1
1
1
1
1
1
1
1
1
1
1
1
1
0.990254
1
1
1
1
1
1
1
1
1
1
1
1
1
1
1
1
1
1
1
1
1
1
0.990252
1
1
1
1
1
1
1
1
1
1
1
1
1
1
1
1
1
1
1
1
1
1
0.991555
1
1
1
1
1
1
1
1
1
1
1
1
1
1
1
1
1
1
1
1
1
1
0.998812
1
1
1
1
1
1
1
1
1
1
1
1
1
1
1
1
1
1
1
1
1
1
1
1
1
1
1
1
1
1
1
1
1
1
1
1
1
1
1
1
1
1
1
1
1
1
1
1
1
1
1
1
1
1
1
1
1
1
1
1
1
1
1
1
1
1
1
1
1
4.33853e-25
7.05723e-25
1.40268e-24
2.32478e-24
2.97497e-24
9.22402e-25
2.983e-26
3.52736e-28
2.72901e-30
7.59102e-33
1.80865e-35
1.67962e-38
1.57392e-41
4.80824e-44
1.47378e-46
3.81524e-49
8.34614e-52
1.30009e-54
2.12691e-57
2.45132e-23
7.08055e-23
2.22875e-22
4.1709e-22
3.64413e-22
8.53466e-23
2.79437e-24
3.68052e-26
3.15983e-28
1.0946e-30
3.15903e-33
3.92701e-36
5.51569e-39
1.90929e-41
6.10181e-44
1.63325e-46
3.70719e-49
5.9885e-52
5.03311e-55
9.61861e-22
4.3599e-21
1.97292e-20
3.67636e-20
2.21702e-20
3.95217e-21
1.27512e-22
1.89339e-24
1.80359e-26
7.88367e-29
2.75861e-31
4.71589e-34
1.07306e-36
4.17486e-39
1.39936e-41
3.8519e-44
8.9866e-47
1.48486e-49
1.26247e-52
2.25814e-20
1.53562e-19
9.76639e-19
2.35073e-18
7.84107e-19
1.19366e-19
3.73716e-21
6.40961e-23
6.92528e-25
3.90955e-27
1.68377e-29
4.11429e-32
1.52441e-34
6.80726e-37
2.50273e-39
7.71386e-42
2.00671e-44
3.67158e-47
3.41324e-50
5.79978e-19
9.4276e-18
1.11683e-16
4.11209e-16
2.06156e-17
3.04211e-18
8.2017e-20
1.65909e-21
2.10409e-23
1.57363e-25
8.67087e-28
3.13886e-30
1.65879e-32
8.21046e-35
3.21201e-37
1.05206e-39
2.90952e-42
5.62537e-45
5.44119e-48
2.28671e-17
6.77205e-16
1.13383e-14
5.48605e-14
3.78131e-16
8.50938e-17
1.44817e-18
3.51816e-20
5.47539e-22
5.52493e-24
4.08009e-26
2.21382e-28
1.57721e-30
8.73802e-33
3.8212e-35
1.4576e-37
4.69462e-40
1.05662e-42
1.18618e-45
2.90007e-15
8.12347e-14
1.09352e-12
4.55874e-12
2.24366e-15
2.86277e-15
2.08495e-17
6.21869e-19
1.25411e-20
1.7177e-22
1.76623e-24
1.42808e-26
1.19741e-28
7.26449e-31
3.31722e-33
1.31763e-35
4.41565e-38
1.0388e-40
1.21925e-43
8.04576e-14
1.98727e-12
2.95507e-11
1.20558e-10
2.24196e-15
8.12313e-14
2.27645e-16
9.11554e-18
2.47755e-19
4.63051e-21
6.71856e-23
7.96218e-25
8.04263e-27
5.6671e-29
2.95935e-31
1.36901e-33
5.28253e-36
1.43517e-38
1.97589e-41
1
1
1
1
1
1
1
1
1
1
1
1
1
1
1
1
1
1
1
1
1
1
0.998627
1
1
1
1
1
1
1
1
1
1
1
1
1
1
1
1
1
1
1
0.999991
0.999991
0.999995
0.998566
1
1
1
1
1
1
1
1
1
1
1
1
1
1
1
1
0.999997
0.999968
0.999706
1
1
1
0.999354
1
1
1
1
1
1
1
1
1
1
1
1
1
0.999998
0.999887
0.997667
0.990773
0.97212
0.921853
0.923556
0.954604
1
1
1
1
1
1
1
1
1
1
1
1
1
0.999998
0.999803
0.994755
0.967889
0.821902
0.619476
0.420912
0.252731
0.138925
0.170499
0.265652
0.475733
1
1
1
1
1
1
1
1
1
0.999989
0.999657
0.994533
0.959312
0.748687
0.413341
0.0885323
1.21656e-09
1.21655e-09
1.21656e-09
1.21655e-09
0.000402022
0.00282535
0.0144051
1
1
1
1
1
0.999999
0.999988
0.999809
0.997918
0.98817
0.930547
0.737267
0.380485
0.0471445
3.51352e-05
3.16091e-05
0.000279017
0.000193975
2.91072e-05
3.15357e-08
6.45771e-08
4.32904e-07
1.18203e-05
0.999894
0.999846
0.999699
0.999221
0.997878
0.993942
0.983504
0.934857
0.812955
0.602517
0.301432
0.0557796
1.35899e-20
-2.3325e-22
0.00155709
0.00264318
0.00177033
0.000154677
1.03622e-07
3.82566e-10
2.88656e-10
1.11874e-09
3.12742e-09
0.930099
0.918804
0.894541
0.847838
0.777031
0.668499
0.507616
0.303773
0.133593
0.00564252
6.44339e-22
-1.34224e-30
-9.60672e-40
0.00079642
0.00481959
0.00482231
0.00134261
2.90332e-06
1.80946e-10
1.59484e-11
1.59478e-11
2.57316e-09
1.4803e-08
0.280597
0.259919
0.221962
0.166268
0.105435
0.0428566
9.44704e-21
4.01349e-31
4.25595e-29
-3.35336e-30
1.99242e-10
3.9555e-11
-1.05166e-28
0.00189132
0.00481409
0.00191587
9.24231e-06
2.40382e-07
1.98825e-10
4.96894e-11
1.98647e-11
1.60964e-11
3.56087e-08
-1.6465e-39
-1.05503e-38
-3.32872e-36
-9.1796e-34
1.63559e-32
-2.06994e-31
1.49098e-13
7.86216e-11
6.04883e-11
-1.12893e-29
5.82634e-08
2.18499e-08
-4.58935e-24
0.000498021
0.000630428
0.000100367
6.97187e-06
1.57457e-08
1.17877e-10
8.93019e-11
1.67492e-10
1.61787e-11
9.27414e-09
8.30437e-21
7.93808e-19
5.82942e-17
2.76272e-15
8.09262e-14
1.54181e-12
1.79483e-12
6.09942e-10
2.85169e-10
-1.31925e-28
1.1392e-06
1.88433e-05
8.66486e-06
2.97781e-13
1.95367e-13
2.97781e-13
3.15999e-07
6.08409e-08
4.70005e-10
9.71156e-11
4.72445e-10
2.28872e-11
1.04805e-07
5.93785e-20
6.35066e-18
4.34049e-16
1.87663e-14
4.99432e-13
8.89811e-12
1.79509e-12
2.93311e-09
1.06335e-08
1.67587e-26
1.33812e-05
5.03024e-05
4.8653e-05
7.81388e-06
1.36256e-07
1.5659e-06
6.91484e-07
6.9609e-10
1.67695e-11
4.35057e-11
5.74288e-10
1.91295e-08
8.43214e-09
2.21862e-19
2.78864e-17
1.94488e-15
8.24414e-14
2.07081e-12
3.3137e-11
1.79517e-12
6.44983e-09
4.73196e-07
3.28622e-09
2.05538e-05
5.0303e-05
5.03024e-05
1.18562e-05
2.5329e-09
1.0657e-10
2.08425e-14
2.08421e-14
5.91527e-12
3.85856e-11
3.8585e-11
1.51289e-08
1.20929e-08
7.01839e-19
1.02442e-16
7.27426e-15
2.99273e-13
7.15668e-12
1.04647e-10
4.43005e-10
4.51331e-08
8.23274e-07
2.7043e-06
4.01962e-07
1.12046e-05
7.06148e-06
1.22327e-15
1.19947e-15
1.22317e-15
2.08433e-14
1.09846e-13
8.21453e-13
1.01937e-11
1.81484e-10
8.38188e-14
3.16452e-09
2.12137e-18
3.35724e-16
2.33429e-14
9.00651e-13
1.98544e-11
2.59759e-10
3.13872e-09
7.90245e-08
7.31987e-07
1.16496e-06
3.17624e-16
3.17624e-16
3.17624e-16
1.13987e-13
2.19763e-14
6.88742e-15
7.56481e-15
2.35384e-14
7.96893e-14
1.35352e-13
8.51707e-14
8.38115e-14
8.38188e-14
5.61009e-18
7.84661e-16
4.75424e-14
1.59431e-12
3.09342e-11
3.49444e-10
3.01188e-09
5.1826e-08
5.98193e-07
8.69875e-07
2.12326e-07
3.17624e-16
6.43372e-13
2.15988e-12
2.05006e-13
1.05925e-15
1.6318e-15
5.70269e-15
2.41912e-14
7.17132e-14
1.07339e-13
1.09861e-13
3.27121e-13
8.75573e-18
1.10305e-15
6.02076e-14
1.81544e-12
3.16914e-11
2.95537e-10
8.04451e-10
2.65772e-09
1.53388e-06
3.18837e-06
1.88923e-06
3.17624e-16
7.40216e-12
2.51279e-11
1.71442e-12
8.82987e-17
2.67582e-16
1.00763e-15
4.61131e-15
1.75632e-14
4.32392e-14
1.17559e-13
6.69814e-13
7.79583e-18
7.63767e-16
3.24144e-14
7.6712e-13
1.04336e-11
4.06249e-11
5.97926e-11
5.09637e-09
1.07852e-06
3.1878e-06
2.29838e-06
3.17624e-16
3.59327e-11
2.18816e-10
5.12633e-12
1.42715e-24
3.03733e-17
1.21159e-16
5.37616e-16
2.00102e-15
4.88654e-15
1.1374e-14
2.89475e-13
1.11942e-18
1.04213e-16
4.18915e-15
9.34813e-14
1.32908e-12
1.39836e-11
1.38659e-10
3.09862e-09
1.04284e-08
1.54644e-07
1.96037e-07
1.0854e-07
4.86862e-11
1.4869e-09
3.50357e-12
1.61324e-24
2.84377e-18
1.18362e-17
5.50017e-17
2.12638e-16
5.94356e-16
1.14448e-15
2.549e-15
7.22558e-21
1.44482e-18
1.42418e-16
8.07202e-15
2.79712e-13
6.30118e-12
5.40755e-11
4.65918e-11
1.96013e-16
1.97129e-16
1.96013e-16
1.03017e-10
2.5887e-08
3.68726e-09
4.4777e-20
4.47768e-20
2.45211e-19
8.12098e-19
4.04563e-18
1.68095e-17
5.36034e-17
1.26735e-16
2.77326e-16
4.67578e-23
3.45589e-21
1.20924e-19
2.49694e-18
1.547e-17
1.54684e-17
1.54685e-17
1.54684e-17
6.09843e-13
8.17447e-12
9.41887e-11
9.00679e-10
3.28914e-09
3.26635e-09
2.61814e-10
1.61324e-24
1.83381e-20
4.19644e-20
2.287e-19
1.01678e-18
3.59006e-18
9.6674e-18
2.20399e-17
8.82463e-24
7.15182e-22
3.00956e-20
8.99079e-19
2.15675e-17
3.19687e-16
3.49124e-15
3.01225e-14
1.98128e-13
1.2164e-12
3.37665e-12
3.63463e-13
5.59626e-14
8.54137e-11
2.78953e-11
1.42715e-24
2.42865e-21
1.65352e-21
9.83528e-21
4.68848e-20
1.81413e-19
5.4957e-19
1.36844e-18
4.72088e-25
5.35245e-23
2.85152e-21
9.41387e-20
2.14129e-18
3.51515e-17
4.3033e-16
3.91232e-15
2.66452e-14
1.26085e-13
2.29478e-13
2.02271e-13
5.59639e-14
1.81308e-23
1.81302e-23
1.34666e-21
3.03344e-22
5.2972e-23
3.31617e-22
1.70546e-21
7.23199e-21
2.43704e-20
6.63144e-20
4.41987e-30
3.37291e-28
1.19209e-26
2.55234e-25
3.58877e-24
3.08702e-23
6.54401e-23
9.71959e-25
9.71983e-25
9.71959e-25
9.71983e-25
9.71959e-25
9.71983e-25
1.24832e-21
1.32555e-21
7.10065e-22
1.67633e-23
1.31007e-24
8.69542e-24
4.84815e-23
2.26195e-22
8.52798e-22
2.58947e-21
2.06531e-34
1.94549e-32
8.73189e-31
2.49287e-29
5.1306e-28
8.21217e-27
1.10218e-25
1.29722e-24
9.40235e-24
4.61799e-23
1.64304e-22
2.85171e-22
3.12734e-22
2.24442e-22
1.35725e-22
1.95292e-23
4.54172e-25
2.54775e-26
1.81085e-25
1.09913e-24
5.66801e-24
2.40157e-23
8.23658e-23
1.27314e-37
1.19777e-35
5.31179e-34
1.47159e-32
2.84756e-31
4.05431e-30
4.40891e-29
3.68507e-28
2.40711e-27
1.20128e-26
4.58119e-26
1.24604e-25
1.97871e-25
1.50843e-25
9.73138e-26
5.09775e-26
1.44198e-26
3.90276e-28
3.00868e-27
2.00877e-26
1.15786e-25
5.56674e-25
2.17825e-24
2.19062e-43
2.54418e-41
1.41697e-39
5.02898e-38
1.27335e-36
2.43995e-35
3.68457e-34
4.47658e-33
4.48684e-32
3.73645e-31
2.64006e-30
1.58354e-29
8.05685e-29
3.29463e-28
6.55739e-28
7.23379e-28
2.79906e-28
4.78046e-30
4.05523e-29
3.01434e-28
1.95995e-27
1.07661e-26
4.8448e-26
6.53307e-47
8.17473e-45
4.87347e-43
1.84143e-41
4.94454e-40
1.0042e-38
1.6135e-37
2.11501e-36
2.3517e-35
2.27814e-34
1.98013e-33
1.53402e-32
1.03075e-31
5.6289e-31
1.6063e-30
2.05647e-30
1.04213e-30
4.67293e-32
4.43949e-31
3.72934e-30
2.76111e-29
1.74654e-28
9.16263e-28
2.68841e-53
3.3567e-51
2.02616e-49
8.00631e-48
2.39568e-46
6.03543e-45
1.3821e-43
2.93791e-42
5.65569e-41
9.41316e-40
1.30911e-38
1.47136e-37
1.29586e-36
8.45144e-36
3.63466e-35
6.42856e-35
8.98989e-35
3.89769e-34
4.03298e-33
3.87083e-32
3.28398e-31
2.40278e-30
1.48146e-29
2.55856e-59
5.27611e-57
5.37494e-55
3.62231e-53
1.81763e-51
7.25132e-50
2.38748e-48
6.62396e-47
1.5639e-45
3.1384e-44
5.33254e-43
7.56772e-42
8.846e-41
8.34137e-40
6.2918e-39
3.98212e-38
2.6812e-37
2.58564e-36
3.02821e-35
3.36294e-34
3.30635e-33
2.82702e-32
2.0706e-31
2.00215e-64
6.9952e-62
1.2048e-59
1.34369e-57
1.07726e-55
6.57552e-54
3.15655e-52
1.21809e-50
3.82899e-49
9.86976e-48
2.09539e-46
3.66187e-45
5.29482e-44
6.43096e-43
6.94868e-42
7.56961e-41
9.52232e-40
1.35277e-38
1.91166e-37
2.4762e-36
2.84943e-35
2.87421e-34
2.52176e-33
2.61359e-69
1.05245e-66
2.13243e-64
2.87239e-62
2.85711e-60
2.21975e-58
1.389e-56
7.15242e-55
3.07177e-53
1.11179e-51
3.42784e-50
9.10735e-49
2.12643e-47
4.4844e-46
8.89041e-45
1.71654e-43
3.26142e-42
5.95447e-41
1.00914e-39
1.5473e-38
2.11662e-37
2.55708e-36
2.70971e-35
2.89432e-73
1.48679e-70
3.772e-68
6.2543e-66
7.5506e-64
7.04687e-62
5.26181e-60
3.22257e-58
1.64665e-56
7.12128e-55
2.64433e-53
8.568e-52
2.48311e-50
6.63887e-49
1.6938e-47
4.19055e-46
9.9682e-45
2.22003e-43
4.52269e-42
8.31985e-41
1.37532e-39
2.02405e-38
2.61228e-37
1.10722e-77
7.65643e-75
2.56767e-72
5.55223e-70
8.65519e-68
1.03616e-65
9.87918e-64
7.70842e-62
5.01933e-60
2.7776e-58
1.33152e-56
5.65164e-55
2.18118e-53
7.83632e-52
2.66164e-50
8.53025e-49
2.54623e-47
6.9568e-46
1.72315e-44
3.86095e-43
7.83465e-42
1.42356e-40
2.25478e-39
2.99433e-82
2.64242e-79
1.13196e-76
3.13223e-74
6.26534e-72
9.66268e-70
1.19339e-67
1.21609e-65
1.04569e-63
7.75408e-62
5.06146e-60
2.96255e-58
1.58014e-56
7.74473e-55
3.49497e-53
1.44308e-51
5.41317e-50
1.83249e-48
5.60416e-47
1.55594e-45
3.93959e-44
8.97225e-43
1.7669e-41
2.36802e-87
2.93486e-84
1.78074e-81
7.04809e-79
2.03517e-76
4.56968e-74
8.26705e-72
1.23832e-69
1.56369e-67
1.69194e-65
1.58974e-63
1.31323e-61
9.64302e-60
6.33656e-58
3.74163e-56
1.98281e-54
9.42713e-53
4.02236e-51
1.5508e-49
5.44838e-48
1.75471e-46
5.10943e-45
1.28245e-43
9.65404e-93
1.77751e-89
1.62058e-86
9.7269e-84
4.27256e-81
1.45618e-78
3.96961e-76
8.86922e-74
1.64931e-71
2.5922e-69
3.48777e-67
4.06363e-65
4.13797e-63
3.70245e-61
2.92564e-59
2.04633e-57
1.27267e-55
7.07227e-54
3.54957e-52
1.62538e-50
6.83454e-49
2.60258e-47
8.48228e-46
8.83998e-99
2.76981e-95
4.25682e-92
4.25544e-89
3.06841e-86
1.69493e-83
7.4024e-81
2.6249e-78
7.67227e-76
1.8751e-73
3.86533e-71
6.77356e-69
1.01692e-66
1.31641e-64
1.47865e-62
1.44661e-60
1.2423e-58
9.44924e-57
6.46006e-55
4.01787e-53
2.29014e-51
1.18178e-49
5.23708e-48
1.39563e-105
7.7512e-102
2.0792e-98
3.57246e-95
4.36899e-92
4.05637e-89
2.96104e-86
1.74856e-83
8.48763e-81
3.43851e-78
1.17421e-75
3.40871e-73
8.45304e-71
1.79196e-68
3.25152e-66
5.05557e-64
6.77779e-62
7.90204e-60
8.13353e-58
7.48717e-56
6.23115e-54
4.65426e-52
2.97414e-50
5.40502e-113
5.39342e-109
2.49996e-105
7.20552e-102
1.45505e-98
2.20959e-95
2.63026e-92
2.54084e-89
2.03796e-86
1.38424e-83
8.04436e-81
4.02128e-78
1.73153e-75
6.42877e-73
2.06158e-70
5.70858e-68
1.36851e-65
2.84809e-63
5.18505e-61
8.30888e-59
1.17985e-56
1.47494e-54
1.5487e-52
7.98499e-121
1.43923e-116
1.11744e-112
5.08738e-109
1.55809e-105
3.48754e-102
6.00746e-99
8.28908e-96
9.44709e-93
9.14792e-90
7.72293e-87
5.80548e-84
3.94304e-81
2.42908e-78
1.35905e-75
6.92689e-73
3.24712e-70
1.41749e-67
5.83627e-65
2.26184e-62
8.1289e-60
2.64012e-57
7.26888e-55
0.999104
0.999864
0.462168
3.75007e-16
0.998713
0.999864
0.948151
0.801058
0.999567
0.999494
0.998613
1
1
1
1
1
0.647213
0.75665
0.86754
0.994478
0.0427888
0.0835473
0.137384
0.217424
8.10502e-05
0.000358344
0.00158757
0.00147695
5.45742e-09
2.22943e-08
1.02837e-07
1.01033e-06
1.37449e-08
7.67223e-09
7.66831e-09
9.37384e-09
7.95507e-08
5.95992e-08
5.31702e-08
4.84305e-08
1.40764e-06
1.82944e-06
7.24116e-07
6.06404e-09
1.64625e-06
1.83419e-06
1.57666e-06
3.47807e-07
3.48617e-09
3.48507e-09
1.44462e-05
1.08366e-05
3.48498e-09
3.48617e-09
5.27653e-05
1.48031e-05
3.16352e-09
2.67383e-05
5.30319e-05
2.87229e-05
1.17415e-06
4.68081e-06
3.62148e-05
1.94247e-05
2.6571e-14
2.65684e-14
2.6571e-14
0.000190095
1.57559e-12
1.60361e-10
1.69775e-06
0.00083336
6.8158e-12
7.17917e-10
4.04475e-07
6.74753e-06
6.57268e-15
2.63739e-15
2.63572e-15
2.63739e-15
9.00101e-16
3.06054e-15
9.77774e-15
2.90238e-14
6.12951e-17
2.08941e-16
7.87689e-16
2.91143e-15
3.42607e-18
1.11576e-17
4.59184e-17
1.99326e-16
1.5853e-19
4.80084e-19
2.09141e-18
1.04298e-17
6.25509e-21
1.76129e-20
7.87703e-20
4.41991e-19
2.10009e-22
5.58872e-22
2.48206e-21
1.5338e-20
6.04076e-24
1.56731e-23
6.80592e-23
4.40921e-22
1.4932e-25
3.88374e-25
1.63065e-24
1.06586e-23
3.22224e-27
8.59714e-27
3.4106e-26
2.20897e-25
6.05882e-29
1.70721e-28
6.30262e-28
3.97418e-27
1.00635e-30
2.99039e-30
1.04024e-29
6.29616e-29
1.48191e-32
4.64578e-32
1.54585e-31
8.8824e-31
1.94636e-34
6.43285e-34
2.08283e-33
1.1294e-32
2.26531e-36
8.00195e-36
2.56294e-35
1.30726e-34
2.35471e-38
8.9959e-38
2.8973e-37
1.39178e-36
2.20921e-40
9.21437e-40
3.02745e-39
1.37473e-38
1.88558e-42
8.65781e-42
2.9401e-41
1.27186e-40
1.47833e-44
7.52654e-44
2.67032e-43
1.11113e-42
1.07212e-46
6.09619e-46
2.28007e-45
9.24352e-45
7.25819e-49
4.64458e-48
1.84312e-47
7.37901e-47
4.60215e-51
3.34774e-50
1.41647e-49
5.68763e-49
2.72795e-53
2.28763e-52
1.03403e-51
4.22031e-51
3.75146e-16
3.09072e-10
2.0066e-09
3.28775e-09
2.24197e-15
2.20958e-12
2.37364e-15
1.63368e-16
6.27994e-18
1.62551e-19
3.38067e-21
5.33105e-23
6.51822e-25
5.38452e-27
2.99441e-29
1.49314e-31
6.0894e-34
1.74464e-36
2.53573e-39
0.242645
3.09077e-10
5.71613e-10
8.64264e-09
4.92492e-11
7.6525e-11
5.23545e-14
2.8126e-15
1.50383e-16
5.49878e-18
1.68767e-19
3.65855e-21
5.78856e-23
6.57087e-25
5.90572e-27
4.40944e-29
2.52976e-31
9.78863e-34
1.92315e-36
0.892582
0.33819
4.88515e-11
4.88518e-11
4.88515e-11
4.38396e-08
1.23318e-11
9.61348e-15
2.53926e-15
1.28318e-16
4.89917e-18
1.33834e-19
2.57609e-21
3.4018e-23
3.53931e-25
2.91878e-27
1.76466e-29
6.89637e-32
1.30204e-34
1
0.908753
0.369609
0.0107886
1.83202e-05
2.15188e-06
2.2733e-09
9.82267e-15
2.64322e-14
2.19614e-15
1.05647e-16
3.79675e-18
9.88189e-20
1.95268e-21
3.04578e-23
3.56703e-25
2.96251e-27
1.55261e-29
3.89459e-32
1
1
0.887582
0.279154
0.0110944
7.83491e-05
1.59092e-08
6.53258e-13
1.36335e-13
1.56601e-14
1.08287e-15
4.94279e-17
1.53453e-18
3.5357e-20
6.07736e-22
7.54846e-24
6.45096e-26
3.39866e-28
8.37646e-31
0.616197
1
1
0.72775
0.112827
0.001337
2.64861e-07
1.45509e-12
4.15462e-13
7.93623e-14
7.70213e-15
4.89508e-16
2.17693e-17
6.99568e-19
1.616e-20
2.64157e-22
2.92258e-24
1.97324e-26
6.1954e-29
0.0294258
0.552315
0.997743
0.949883
0.32559
0.00817902
2.80876e-06
2.47773e-12
7.28372e-13
2.06697e-13
2.43931e-14
1.74704e-15
8.41151e-17
2.84743e-18
6.82057e-20
1.14289e-21
1.28195e-23
8.70733e-26
2.72795e-28
4.0679e-09
0.0661236
0.757179
0.944683
0.515559
0.0208246
1.207e-05
5.63425e-12
1.01859e-12
4.21385e-13
6.99584e-14
6.76358e-15
4.24872e-16
1.83074e-17
5.49987e-19
1.14403e-20
1.58346e-22
1.32188e-24
5.08083e-27
4.06866e-09
1.00192e-10
0.390873
0.929515
0.53929
0.0249916
1.472e-05
6.29232e-12
9.35798e-13
3.88264e-13
6.41112e-14
6.17412e-15
3.89232e-16
1.68453e-17
5.07435e-19
1.05446e-20
1.45131e-22
1.19968e-24
5.0806e-27
4.35632e-09
1.00192e-10
0.230226
0.889182
0.511193
0.0214728
1.08804e-05
5.26241e-12
1.26562e-12
5.60643e-13
9.85206e-14
1.01852e-14
6.96598e-16
3.3024e-17
1.09581e-18
2.51297e-20
3.81632e-22
3.4753e-24
1.45048e-26
3.59027e-10
1.00192e-10
0.233172
0.781758
0.419585
0.0138517
5.06741e-06
5.2597e-12
2.3182e-12
9.39326e-13
1.56064e-13
1.55437e-14
1.02777e-15
4.67065e-17
1.47509e-18
3.20273e-20
4.58848e-22
3.93926e-24
1.54784e-26
3.00046e-08
1.00192e-10
0.121033
0.398117
0.188567
0.00643543
1.67773e-06
5.70577e-12
2.65297e-12
8.95879e-13
1.40274e-13
1.36275e-14
8.93422e-16
4.06547e-17
1.29145e-18
2.82329e-20
4.06886e-22
3.50292e-24
1.37415e-26
9.46327e-08
1.00192e-10
0.203069
0.118358
0.0140615
0.000968921
2.58467e-06
1.17903e-11
3.05814e-12
9.08337e-13
1.3192e-13
1.21149e-14
7.53999e-16
3.26936e-17
9.9144e-19
2.07134e-20
2.85362e-22
2.34793e-24
8.79191e-27
1.00192e-10
0.0943637
0.492473
0.184475
0.00426077
6.04477e-05
2.7314e-07
1.95737e-11
3.95812e-12
8.89858e-13
1.12396e-13
9.33465e-15
5.31259e-16
2.11138e-17
5.85536e-19
1.11569e-20
1.39667e-22
1.04178e-24
3.53581e-27
1.00192e-10
0.367493
0.499296
0.330335
0.0122401
7.67543e-06
1.08694e-08
1.34897e-11
4.4423e-12
8.04755e-13
8.78041e-14
6.37212e-15
3.17097e-16
1.10662e-17
2.70612e-19
4.57209e-21
5.10586e-23
3.41903e-25
1.04779e-27
1.00192e-10
0.289233
0.499308
0.296088
0.00927889
1.72521e-06
4.3293e-10
1.67421e-11
4.2106e-12
6.07731e-13
5.65589e-14
3.51913e-15
1.50658e-16
4.51783e-18
9.49113e-20
1.38264e-21
1.33828e-23
7.82432e-26
2.10992e-28
0.0024411
0.0560981
0.17073
0.092837
0.00690374
3.26159e-05
3.40716e-09
1.3899e-11
3.74064e-12
4.82584e-13
3.69198e-14
1.82101e-15
6.12884e-17
1.46538e-18
2.50798e-20
3.04297e-22
2.50448e-24
1.26752e-26
3.00479e-29
0.00246574
0.000554198
0.00129442
0.000994423
0.00296772
0.000196737
1.5424e-07
2.92388e-11
2.62389e-12
3.0048e-13
1.6691e-14
5.97311e-16
1.52381e-17
2.88621e-19
4.05817e-21
4.16854e-23
2.97223e-25
1.32775e-27
2.8201e-30
6.04867e-05
1.16637e-08
4.0874e-08
1.42152e-07
3.42003e-06
7.70783e-05
3.23e-07
8.99577e-11
1.75995e-12
9.8977e-14
3.6434e-15
1.00179e-16
2.09257e-18
3.36441e-20
4.11365e-22
3.74115e-24
2.39676e-26
9.73516e-29
1.8991e-31
3.46976e-12
2.78837e-12
4.54437e-12
2.82479e-11
3.55426e-10
6.26253e-09
7.99827e-08
4.21801e-13
4.21796e-13
1.48356e-14
4.27274e-16
9.95555e-18
1.81096e-19
2.58727e-21
2.84858e-23
2.36022e-25
1.39e-27
5.23376e-30
9.53456e-33
1.10531e-13
4.8548e-13
1.49617e-12
3.44492e-12
7.03224e-12
8.54568e-11
1.29517e-09
5.4717e-12
5.6036e-14
1.50615e-15
3.52098e-17
6.78482e-19
1.10045e-20
1.43985e-22
1.46497e-24
1.13005e-26
6.23604e-29
2.21234e-31
3.81931e-34
1.44817e-14
8.34817e-14
3.43896e-13
1.05504e-12
2.83422e-12
1.53212e-11
6.60225e-11
1.33012e-12
6.08595e-15
1.27699e-16
2.48796e-18
4.09073e-20
5.73711e-22
6.66328e-24
6.10476e-26
4.3322e-28
2.25993e-30
7.61946e-33
1.25212e-35
1.25062e-15
8.99315e-15
4.64168e-14
1.7783e-13
5.55573e-13
2.18079e-12
6.77492e-12
1.09596e-13
5.25335e-16
9.06108e-18
1.51883e-19
2.18634e-21
2.71188e-23
2.84125e-25
2.37525e-27
1.55133e-29
7.54171e-32
2.39617e-34
3.74746e-37
7.99047e-17
6.91059e-16
4.28738e-15
1.94512e-14
6.70419e-14
2.21844e-13
5.36439e-13
6.92263e-15
3.65955e-17
5.43279e-19
8.06222e-21
1.03885e-22
1.1628e-24
1.11489e-26
8.60807e-29
5.22844e-31
2.38507e-33
7.18029e-36
1.07285e-38
3.90508e-18
3.954e-17
2.87995e-16
1.50683e-15
5.62733e-15
1.6878e-14
3.36506e-14
3.52982e-16
2.09889e-18
2.78114e-20
3.74457e-22
4.40342e-24
4.52658e-26
4.02303e-28
2.90011e-30
1.65344e-32
7.12502e-35
2.04354e-37
2.92925e-40
1.51853e-19
1.76831e-18
1.48306e-17
8.80429e-17
3.54523e-16
9.93715e-16
1.70808e-15
1.50368e-17
1.00833e-19
1.22764e-21
1.53153e-23
1.67226e-25
1.60291e-27
1.33576e-29
9.07657e-32
4.89696e-34
2.0057e-36
5.50776e-39
7.60059e-42
4.81271e-21
6.35075e-20
6.05448e-19
4.04764e-18
1.7753e-17
4.65659e-17
7.1121e-17
5.50958e-19
4.11754e-21
4.71706e-23
5.54935e-25
5.71342e-27
5.17254e-29
4.08383e-31
2.63797e-33
1.35682e-35
5.31268e-38
1.4033e-40
1.8705e-43
1.26889e-22
1.87865e-21
2.01566e-20
1.5082e-19
7.23435e-19
1.79088e-18
2.46065e-18
1.77145e-20
1.44685e-22
1.59171e-24
1.79214e-26
1.76427e-28
1.52527e-30
1.1517e-32
7.12446e-35
3.51644e-37
1.32296e-39
3.37477e-42
4.35727e-45
2.83483e-24
4.66953e-23
5.59424e-22
4.65699e-21
2.43892e-20
5.81334e-20
7.17101e-20
5.05749e-22
4.42483e-24
4.75812e-26
5.18958e-28
4.94606e-30
4.12094e-32
3.0014e-34
1.78947e-36
8.52721e-39
3.09653e-41
7.65669e-44
9.60089e-47
5.4416e-26
9.91612e-25
1.31857e-23
1.21438e-22
6.91047e-22
1.62866e-21
1.78412e-21
1.29004e-23
1.18981e-25
1.2703e-27
1.35542e-29
1.26466e-31
1.0233e-33
7.2451e-36
4.18643e-38
1.9366e-40
6.8149e-43
1.6388e-45
2.00034e-48
9.10613e-28
1.82718e-26
2.68427e-25
2.72176e-24
1.67069e-23
4.00705e-23
3.84114e-23
2.95299e-25
2.8408e-27
3.05288e-29
3.21199e-31
2.9629e-33
2.34318e-35
1.62413e-37
9.13851e-40
4.1245e-42
1.41148e-44
3.31099e-47
3.94225e-50
1.34322e-29
2.95744e-28
4.78606e-27
5.32503e-26
3.50635e-25
8.73927e-25
7.26407e-25
6.09253e-27
6.07883e-29
6.65376e-31
6.94616e-33
6.3897e-35
4.96483e-37
3.3905e-39
1.8653e-41
8.25193e-44
2.75492e-46
6.3215e-49
7.35571e-52
1.76671e-31
4.25525e-30
7.57514e-29
9.22579e-28
6.49392e-27
1.70177e-26
1.22551e-26
1.13908e-28
1.17638e-30
1.32466e-32
1.37886e-34
1.27437e-36
9.77076e-39
6.61178e-41
3.56894e-43
1.55418e-45
5.07589e-48
1.14231e-50
1.3011e-53
2.08921e-33
5.49265e-32
1.07594e-30
1.43276e-29
1.07487e-28
2.98209e-28
1.87076e-28
1.94201e-30
2.07673e-32
2.42548e-34
2.52716e-36
2.36147e-38
1.79293e-40
1.20834e-42
6.41868e-45
2.76208e-47
8.8472e-50
1.95741e-52
2.1856e-55
2.24263e-35
6.42315e-34
1.38602e-32
2.01758e-31
1.60849e-30
4.74267e-30
2.61662e-30
3.04035e-32
3.37235e-34
4.11183e-36
4.30179e-38
4.08532e-40
3.08056e-42
2.07695e-44
1.08851e-46
4.64469e-49
1.46242e-51
3.18787e-54
3.49396e-57
2.20051e-37
6.85437e-36
1.6327e-34
2.6013e-33
2.19814e-32
6.90507e-32
3.3896e-32
4.4031e-34
5.07769e-36
6.49511e-38
6.84082e-40
6.63001e-42
4.97743e-44
3.36997e-46
1.74643e-48
7.4123e-51
2.29887e-53
4.9471e-56
5.32856e-59
1.99186e-39
6.73008e-38
1.7738e-36
3.10055e-35
2.76996e-34
9.28648e-34
4.10062e-34
5.94299e-36
7.14328e-38
9.6202e-40
1.02228e-41
1.0144e-43
7.59822e-46
5.18256e-48
2.6609e-50
1.12637e-52
3.44735e-55
7.33662e-58
7.77413e-61
1.67404e-41
6.11206e-40
1.78844e-38
3.44483e-37
3.24626e-36
1.16341e-35
4.66641e-36
7.53244e-38
9.45775e-40
1.34418e-41
1.44388e-43
1.4705e-45
1.10101e-47
7.58513e-50
3.86501e-52
1.63554e-54
4.94801e-57
1.043e-59
1.0883e-62
1.31872e-43
5.16999e-42
1.68533e-40
3.59827e-39
3.56891e-38
1.36839e-37
5.03118e-38
9.03187e-40
1.1869e-41
1.78254e-43
1.93879e-45
2.0301e-47
1.52194e-49
1.06123e-51
5.37487e-54
2.2781e-56
6.82235e-59
1.42631e-61
1.4667e-64
9.80685e-46
4.0878e-44
1.49086e-42
3.55889e-41
3.70872e-40
1.52239e-39
5.17626e-40
1.03196e-41
1.42137e-43
2.25685e-45
2.48898e-47
2.68269e-49
2.01679e-51
1.42564e-53
7.18685e-56
3.05575e-58
9.07041e-61
1.88289e-63
1.90958e-66
6.95933e-48
3.03996e-46
1.24493e-44
3.35863e-43
3.67215e-42
1.6138e-41
5.11743e-42
1.13147e-43
1.63499e-45
2.74432e-47
3.0726e-49
3.41143e-51
2.57524e-53
1.84762e-55
9.28236e-58
3.96411e-60
1.16756e-62
2.40876e-65
2.41083e-68
4.68797e-50
2.10069e-48
9.70424e-47
3.01159e-45
3.45276e-44
1.6261e-43
4.85242e-44
1.18692e-45
1.79927e-47
3.18863e-49
3.62701e-51
4.14821e-53
3.14761e-55
2.2934e-57
1.14949e-59
4.93467e-62
1.44359e-64
2.96223e-67
2.92797e-70
)
;

boundaryField
{
    leftWall
    {
        type            zeroGradient;
    }
    rightWall
    {
        type            zeroGradient;
    }
    lowerWall
    {
        type            zeroGradient;
    }
    atmosphere
    {
        type            inletOutlet;
        inletValue      uniform 0;
        value           nonuniform List<scalar> 
46
(
0
0
0
0
0
0
0
0
0
0
0
0
0
0
0
0
0
0
0
0
0
0
7.26888e-55
2.72795e-53
2.28763e-52
1.03403e-51
4.22031e-51
4.68797e-50
2.10069e-48
9.70424e-47
3.01159e-45
3.45276e-44
1.6261e-43
4.85242e-44
1.18692e-45
1.79927e-47
3.18863e-49
3.62701e-51
4.14821e-53
3.14761e-55
2.2934e-57
1.14949e-59
4.93467e-62
1.44359e-64
2.96223e-67
2.92797e-70
)
;
    }
    defaultFaces
    {
        type            empty;
    }
}


// ************************************************************************* //
