/*--------------------------------*- C++ -*----------------------------------*\
| =========                 |                                                 |
| \\      /  F ield         | OpenFOAM: The Open Source CFD Toolbox           |
|  \\    /   O peration     | Version:  2012                                  |
|   \\  /    A nd           | Website:  www.openfoam.com                      |
|    \\/     M anipulation  |                                                 |
\*---------------------------------------------------------------------------*/
FoamFile
{
    version     2.0;
    format      ascii;
    class       volScalarField;
    location    "1.3";
    object      rho;
}
// * * * * * * * * * * * * * * * * * * * * * * * * * * * * * * * * * * * * * //

dimensions      [1 -3 0 0 0 0 0];


internalField   nonuniform List<scalar> 
160
(
54.68809249
55.31852398
56.71455891
59.09638751
62.67787164
67.56281658
73.87282056
82.15219011
90.77038244
100.9235465
112.128207
123.3592804
136.3014678
148.4567912
161.3641764
174.6211474
193.8669089
205.4340011
226.6092819
239.7129353
261.9920921
281.36895
303.0382465
322.8174001
342.7829954
359.6707726
376.4887197
389.9744891
403.0522257
413.0313011
422.0152114
428.7099567
434.5095631
437.93122
440.8511524
441.8229094
442.5767435
441.5603997
440.9352477
439.2125731
437.6630922
435.1401905
433.0335035
428.4604512
424.0955764
417.7057405
410.2683142
400.7831352
390.0511719
377.5103663
363.3632037
348.0334002
331.1711084
311.661282
290.7660536
268.4682938
245.5316542
224.4719612
203.8194723
185.1359296
166.7453496
150.443419
134.5964846
120.7292019
107.3528372
95.75475895
84.63000573
75.08176029
66.03045021
58.30660399
51.09388675
45.00386586
39.38892583
34.69473347
30.32568235
26.90577854
23.55805559
21.10539657
18.30101806
16.74218512
14.57864547
13.53086301
11.91009425
11.15443063
10.20727198
9.557959188
8.864213089
8.415893157
7.932670779
7.589194644
7.285812693
7.035324104
6.783929519
6.636551948
6.453646026
6.312242063
6.177973121
6.113336507
5.959320185
5.909957775
5.823280404
5.770516424
5.687954396
5.643827709
5.575159986
5.541261933
5.498919096
5.462515682
5.433814749
5.403880347
5.379871512
5.35551784
5.334311374
5.313187791
5.298197864
5.280777693
5.266348287
5.251735848
5.232757522
5.219293311
5.202522629
5.190681678
5.17647869
5.165386686
5.152208598
5.142029987
5.128818085
5.118851947
5.105516363
5.095002471
5.081862067
5.070834926
5.057340472
5.046599517
5.035171282
5.02077685
5.009306279
4.993083053
4.979636838
4.963478458
4.951234157
4.934019309
4.922946135
4.907375236
4.896111529
4.88332656
4.871195308
4.859401415
4.847984787
4.836177906
4.826203163
4.816392113
4.808242309
4.800500831
4.794428307
4.788512046
4.784614669
4.781480795
4.779199106
4.772507154
)
;

boundaryField
{
    sides
    {
        type            calculated;
        value           nonuniform List<scalar> 2(4.772507154 54.68809249);
    }
    empty1
    {
        type            empty;
    }
    empty2
    {
        type            empty;
    }
}


// ************************************************************************* //
