/*--------------------------------*- C++ -*----------------------------------*\
| =========                 |                                                 |
| \\      /  F ield         | OpenFOAM: The Open Source CFD Toolbox           |
|  \\    /   O peration     | Version:  2012                                  |
|   \\  /    A nd           | Website:  www.openfoam.com                      |
|    \\/     M anipulation  |                                                 |
\*---------------------------------------------------------------------------*/
FoamFile
{
    version     2.0;
    format      ascii;
    class       volScalarField;
    location    "1.3";
    object      rho1;
}
// * * * * * * * * * * * * * * * * * * * * * * * * * * * * * * * * * * * * * //

dimensions      [1 -3 0 0 0 0 0];


internalField   nonuniform List<scalar> 
160
(
1035.226997
1035.227597
1035.232124
1035.246116
1035.258423
1035.2842
1035.301594
1035.334576
1035.353286
1035.389045
1035.408062
1035.442879
1035.457354
1035.483069
1035.493641
1035.510801
1035.509858
1035.518763
1035.512981
1035.516614
1035.510113
1035.472601
1035.462211
1035.417056
1035.397819
1035.341124
1035.312743
1035.245956
1035.208471
1035.1384
1035.091308
1035.015196
1034.963542
1034.88581
1034.832434
1034.754457
1034.700353
1034.623287
1034.568942
1034.493653
1034.439867
1034.365939
1034.312824
1034.239704
1034.187988
1034.116103
1034.064729
1033.992451
1033.939775
1033.868896
1033.815135
1033.74948
1033.691883
1033.638424
1033.581982
1033.540153
1033.489189
1033.457444
1033.411724
1033.388058
1033.348822
1033.330343
1033.298134
1033.284031
1033.258265
1033.247797
1033.227607
1033.220084
1033.20454
1033.199374
1033.187747
1033.184479
1033.176045
1033.1742
1033.168235
1033.167273
1033.16734
1033.165509
1033.165323
1033.164037
1033.164549
1033.164084
1033.165193
1033.165114
1033.166606
1033.167477
1033.169402
1033.17054
1033.172745
1033.173933
1033.176174
1033.177445
1033.179662
1033.180849
1033.182952
1033.184123
1033.186091
1033.187089
1033.188817
1033.189714
1033.191297
1033.192243
1033.192843
1033.193809
1033.194391
1033.195163
1033.196257
1033.196723
1033.197726
1033.198248
1033.199202
1033.199703
1033.20047
1033.200914
1033.201618
1033.202061
1033.202659
1033.203012
1033.203253
1033.203555
1033.203745
1033.204015
1033.204188
1033.204406
1033.204524
1033.20469
1033.204721
1033.204824
1033.204783
1033.204796
1033.204695
1033.204628
1033.204454
1033.204348
1033.204213
1033.203929
1033.203731
1033.203333
1033.203016
1033.202585
1033.202286
1033.201779
1033.201499
1033.201029
1033.200716
1033.200334
1033.19996
1033.199596
1033.199231
1033.198842
1033.198516
1033.19819
1033.197919
1033.19766
1033.197458
1033.197255
1033.197127
1033.197022
1033.196938
1033.19668
)
;

boundaryField
{
    sides
    {
        type            calculated;
        value           nonuniform List<scalar> 2(1033.19668 1035.226997);
    }
    empty1
    {
        type            empty;
    }
    empty2
    {
        type            empty;
    }
}


// ************************************************************************* //
