/*--------------------------------*- C++ -*----------------------------------*\
| =========                 |                                                 |
| \\      /  F ield         | OpenFOAM: The Open Source CFD Toolbox           |
|  \\    /   O peration     | Version:  2012                                  |
|   \\  /    A nd           | Website:  www.openfoam.com                      |
|    \\/     M anipulation  |                                                 |
\*---------------------------------------------------------------------------*/
FoamFile
{
    version     2.0;
    format      ascii;
    class       volScalarField;
    location    "0.8";
    object      maxKappa;
}
// * * * * * * * * * * * * * * * * * * * * * * * * * * * * * * * * * * * * * //

dimensions      [0 0 0 0 0 0 0];


internalField   nonuniform List<scalar> 
2268
(
3.26582e-06
6.25019e-06
9.25004e-06
1.21235e-05
1.46484e-05
1.67858e-05
1.86195e-05
2.00433e-05
2.09336e-05
2.13002e-05
2.13002e-05
2.11711e-05
2.05171e-05
1.94419e-05
1.79872e-05
1.6253e-05
1.41304e-05
1.15485e-05
8.59803e-06
5.3274e-06
2.23038e-06
2.15364e-06
2.15364e-06
4.04475e-06
6.65019e-06
9.51432e-06
1.22987e-05
1.47795e-05
1.69124e-05
1.87398e-05
2.01398e-05
2.10146e-05
2.13875e-05
2.13875e-05
2.12533e-05
2.05902e-05
1.95254e-05
1.81004e-05
1.6386e-05
1.4308e-05
1.17839e-05
8.94085e-06
5.808e-06
2.95976e-06
2.06857e-06
2.06857e-06
5.01904e-06
7.27852e-06
9.97194e-06
1.26624e-05
1.5112e-05
1.72421e-05
1.90627e-05
2.04466e-05
2.13172e-05
2.16825e-05
2.16825e-05
2.15076e-05
2.08319e-05
1.97677e-05
1.83363e-05
1.66196e-05
1.4534e-05
1.20707e-05
9.30092e-06
6.45072e-06
3.88117e-06
3.24987e-06
3.24987e-06
6.36662e-06
8.22906e-06
1.06762e-05
1.31691e-05
1.54966e-05
1.75909e-05
1.93951e-05
2.07585e-05
2.16107e-05
2.19646e-05
2.19646e-05
2.17877e-05
2.11194e-05
2.0052e-05
1.86769e-05
1.70628e-05
1.51903e-05
1.29417e-05
1.04335e-05
7.77808e-06
5.39965e-06
4.93202e-06
4.93202e-06
7.59369e-06
9.23774e-06
1.15351e-05
1.39144e-05
1.61868e-05
1.82654e-05
2.00398e-05
2.13539e-05
2.2191e-05
2.25327e-05
2.25327e-05
2.22952e-05
2.16084e-05
2.05294e-05
1.91378e-05
1.75485e-05
1.56946e-05
1.36002e-05
1.12632e-05
9.12407e-06
7.42228e-06
7.03555e-06
7.03555e-06
9.17316e-06
1.05353e-05
1.25755e-05
1.47046e-05
1.68007e-05
1.88208e-05
2.05937e-05
2.19331e-05
2.27654e-05
2.30529e-05
2.30529e-05
2.27912e-05
2.20688e-05
2.09429e-05
1.96422e-05
1.8234e-05
1.67352e-05
1.4995e-05
1.30992e-05
1.13567e-05
1.00169e-05
1.0351e-05
1.0351e-05
1.05388e-05
1.18081e-05
1.37443e-05
1.5784e-05
1.7818e-05
1.97696e-05
2.14483e-05
2.27143e-05
2.35747e-05
2.38918e-05
2.38918e-05
2.35522e-05
2.27881e-05
2.1669e-05
2.03863e-05
1.90482e-05
1.75588e-05
1.59906e-05
1.44453e-05
1.35952e-05
1.30492e-05
1.26214e-05
1.26214e-05
1.23038e-05
1.33571e-05
1.50312e-05
1.68462e-05
1.88304e-05
2.08816e-05
2.26248e-05
2.38914e-05
2.45807e-05
2.46749e-05
2.46749e-05
2.42959e-05
2.34449e-05
2.21992e-05
2.101e-05
1.99215e-05
1.88267e-05
1.76677e-05
1.68204e-05
1.6747e-05
1.65922e-05
2.1916e-05
2.68858e-05
0.000181685
0.000281033
0.000333617
0.000383054
0.000598527
0.00068554
0.00068554
0.000652643
0.000695897
0.000729796
0.000775137
0.00089482
0.000945457
0.000945457
0.000901211
0.000712102
0.000482797
0.000251848
0.000119052
0.000173668
0.000247298
0.000327294
0.000547682
0.000626049
0.000626049
0.000513666
0.000569608
0.000780698
0.0016053
0.00220775
0.00263569
0.00284111
0.00284111
0.00262361
0.00180958
0.000756273
0.00011655
4.3655e-05
0.000199924
0.000255226
0.000454692
0.000465012
0.000465012
0.000684423
0.000714997
0.00100505
0.00231813
0.00348384
0.00448547
0.00478744
0.00478744
0.00357377
0.0019989
0.0013014
0.00080401
0.000255786
5.0633e-05
0.000218318
0.000410298
0.000900628
0.000900628
0.00046821
0.000137058
0.00122526
0.00232089
0.00301303
0.00344358
0.00344358
0.0027904
0.00166626
0.00135873
0.00129395
0.000936051
0.00043519
0.000231341
5.99877e-05
0.0002768
0.000813081
0.00156303
0.00156303
0.00105289
0.000114187
0.00043088
0.00119201
0.00163984
0.00163984
0.00120539
0.00124249
0.00124249
0.000765728
0.00040283
0.000140155
7.70619e-05
5.54357e-05
3.73933e-05
0.000328463
0.0008517
0.00128531
0.00128531
0.00117097
0.000254604
0.000106605
0.000746257
0.000863766
0.000863766
0.000862853
0.000862853
0.000373399
0.000145031
0.00012322
0.000120285
9.24981e-05
6.00657e-05
3.48094e-05
0.000325566
0.00103876
0.00103876
0.000720395
0.000513948
0.000513948
8.22975e-05
0.000125874
0.000453457
0.000453457
0.00034819
0.000154541
0.000241202
0.000724255
0.00096797
0.00096797
0.000662226
0.000161524
4.93873e-05
0.000279592
0.000753578
0.00106788
0.00106788
0.000730924
0.000578995
0.000380298
0.000107106
7.52532e-05
6.19752e-05
9.09398e-05
0.000351485
0.000918849
0.0011864
0.0011864
0.000971543
0.000558938
0.000129956
0.000130642
0.00011722
0.000111178
7.87071e-05
4.90504e-05
4.59045e-05
4.20855e-05
3.74801e-05
3.40369e-05
3.16103e-05
2.95206e-05
2.81307e-05
2.68378e-05
2.56744e-05
2.37457e-05
2.29871e-05
2.33783e-05
2.39747e-05
2.25964e-05
2.29703e-05
2.74524e-05
0.000109274
0.000222375
0.000158879
0.000432014
0.000434757
0.00043429
0.000432752
0.000405895
0.000350416
0.000283058
0.000216272
0.000152774
0.000133718
0.000119729
0.000102177
8.68817e-05
6.69403e-05
5.98477e-05
6.22593e-05
5.82665e-05
3.87683e-05
3.10042e-05
6.39412e-05
0.000302999
0.000468735
0.000222352
0.00055595
0.000574537
0.000648799
0.000795579
0.00114684
0.00146368
0.0017078
0.00178077
0.0017277
0.00158497
0.00145777
0.00116077
0.000817669
0.000684632
0.000581101
0.000372534
0.000215321
0.000117019
6.18758e-05
0.000113058
0.000477311
0.000662844
0.000374927
0.000714086
0.000801471
0.000993101
0.00132765
0.00226146
0.00301565
0.00353438
0.00379914
0.0034041
0.00298313
0.00268761
0.00224281
0.00157917
0.00168664
0.00157072
0.00104072
0.000690411
0.000544124
0.000434542
0.00030346
0.000534136
0.000770297
0.000770297
0.00104717
0.00118891
0.0014759
0.0022354
0.00332694
0.00396966
0.00432309
0.00432309
0.00401084
0.0025327
0.00180394
0.00183284
0.00223447
0.00246056
0.00227431
0.00211271
0.00194933
0.00180038
0.00152708
0.00119243
0.000964844
0.000644023
0.000667594
0.00139707
0.0015546
0.0020394
0.00273283
0.00348031
0.00368836
0.00403149
0.00388794
0.00349352
0.00285542
0.00228142
0.00274814
0.00295989
0.00276612
0.00260697
0.00243776
0.00237833
0.00226924
0.00224277
0.00209816
0.00177137
0.00126509
0.000811337
0.00163631
0.00181762
0.00220846
0.00270344
0.00324719
0.00341252
0.00326153
0.00323584
0.00336426
0.00291298
0.00276456
0.00284727
0.0030804
0.00306196
0.00273901
0.00271287
0.00271287
0.00257798
0.00260195
0.0027889
0.00288626
0.00271875
0.00241565
0.00177605
0.00194083
0.00225262
0.00264377
0.00290885
0.00282625
0.00251529
0.00237578
0.00255977
0.00264808
0.00267632
0.00270386
0.0030804
0.00263192
0.00185021
0.00182355
0.00249122
0.00252194
0.00259789
0.00317603
0.00363584
0.00374214
0.00399801
0.00184657
0.00194424
0.00212076
0.00238567
0.00268156
0.00263045
0.00256545
0.00213812
0.00152787
0.00209339
0.00248638
0.00261329
0.00282651
0.00273231
0.00231914
0.00168174
0.00163929
0.0018566
0.00234956
0.00251347
0.00310103
0.0037232
0.00399801
0.00186381
0.00193585
0.00205052
0.00220558
0.00241901
0.00251336
0.00246657
0.00233652
0.00196026
0.0012955
0.00153537
0.0020661
0.00226562
0.00227655
0.00219957
0.00219957
0.00210531
0.00184446
0.00186895
0.00209429
0.00250804
0.00255335
0.00303995
0.00183031
0.00187027
0.00194361
0.00204827
0.00219617
0.00227578
0.00234517
0.00222764
0.00207435
0.00173151
0.00123237
0.000906015
0.00118483
0.00140025
0.0016582
0.00186247
0.00200136
0.00200136
0.00191536
0.00149323
0.00149828
0.00167221
0.00173766
0.00179744
0.00181864
0.00186511
0.00192332
0.00201117
0.0020603
0.00212303
0.00212772
0.00197748
0.00177874
0.00144457
0.00106158
0.000751769
0.000662569
0.00083334
0.000843689
0.00122213
0.00160808
0.00152604
0.00167244
0.00167244
0.00165146
0.00100561
0.00174225
0.0017554
0.00178396
0.00181505
0.00185933
0.00187871
0.00190015
0.0019358
0.00186072
0.00171114
0.00151112
0.00123983
0.000940157
0.000662748
0.000479639
0.000355622
0.000405446
0.000573099
0.000872689
0.00118683
0.00137313
0.00139633
0.00139633
0.00167678
0.00168293
0.0016967
0.00171003
0.00172843
0.00173148
0.00172127
0.00172563
0.00169498
0.00157468
0.00141118
0.00121914
0.00101306
0.000824886
0.000670615
0.000521097
0.000377781
0.000291477
0.000338425
0.000557098
0.000713229
0.000788544
0.000863173
0.00161049
0.0016117
0.00161447
0.00161485
0.00161244
0.00160151
0.00157229
0.00154866
0.00150357
0.00142723
0.001281
0.00114344
0.000973903
0.000795236
0.000630211
0.00048523
0.000387683
0.000325446
0.00028135
0.000318168
0.000335305
0.000405042
0.000405042
0.00154358
0.0015416
0.0015374
0.00152861
0.00151281
0.0014903
0.00144832
0.00140642
0.00134062
0.00126435
0.00114983
0.0010074
0.000869869
0.000736196
0.000613503
0.000505797
0.000421139
0.000366806
0.00035377
0.000368485
0.000368485
0.000357674
0.000396061
0.00148364
0.00147926
0.00146924
0.00145351
0.00142783
0.00139682
0.00134583
0.00129363
0.00121674
0.00113183
0.00102215
0.000909736
0.000785721
0.000657456
0.00053605
0.000430787
0.00035405
0.000307344
0.000279669
0.000293647
0.000309572
0.00032123
0.000341615
0.00142968
0.00142379
0.00141029
0.00139003
0.00135839
0.00132133
0.00126507
0.0012067
0.00112555
0.00103905
0.000941614
0.000836148
0.000725809
0.000616782
0.000514143
0.000420784
0.00034351
0.000284169
0.000242722
0.000226539
0.000234984
0.000260015
0.000297794
0.00138436
0.00137701
0.00136098
0.00133776
0.00130245
0.0012619
0.00120353
0.00114236
0.00106982
0.000985256
0.000891137
0.000788371
0.000680186
0.000571474
0.000466198
0.000367406
0.000278805
0.000213335
0.000169004
0.000166074
0.000185338
0.000238759
0.000258945
0.00134817
0.00133976
0.00132227
0.00129701
0.00125967
0.00121729
0.00116359
0.00110228
0.00103118
0.000950191
0.000861796
0.000766857
0.000668083
0.000567459
0.000468975
0.00037344
0.000284682
0.000203724
0.000130696
8.57777e-05
0.000119517
0.000174078
0.000237635
0.00132037
0.00131177
0.00129385
0.00126771
0.00123437
0.00119362
0.00114216
0.00108148
0.00101116
0.000931282
0.000843917
0.000750084
0.000652824
0.000554253
0.000457333
0.000363086
0.000271745
0.000184988
0.000103474
8.61203e-05
0.000154223
0.000228026
0.000261861
0.00130206
0.00129334
0.00127566
0.00125188
0.00122011
0.00117965
0.00112922
0.00107111
0.00100501
0.000931397
0.000851704
0.000765958
0.000677078
0.000584524
0.000491612
0.000399657
0.00031195
0.00023075
0.000178039
0.00016075
0.000190079
0.000243092
0.0003064
0.00129354
0.00128341
0.00126989
0.00124901
0.00121881
0.00118032
0.00113198
0.00107574
0.00101083
0.000938498
0.000860106
0.000776039
0.000689931
0.000602967
0.000518724
0.000437532
0.000366379
0.00031123
0.000277046
0.000273293
0.000298961
0.000344059
0.000400388
0.00130144
0.00129239
0.00127686
0.00125349
0.00122417
0.00118732
0.00114197
0.00109022
0.00103121
0.000966477
0.000896557
0.000821657
0.000744495
0.000664279
0.000583809
0.000518658
0.000463467
0.000424948
0.000405975
0.000411314
0.00043834
0.000483195
0.000534569
0.00131765
0.00130978
0.00129546
0.00127278
0.00124294
0.00120775
0.00116517
0.00111569
0.00105862
0.000997303
0.000930477
0.00086591
0.000797029
0.000733849
0.00067288
0.00062506
0.000586159
0.000568535
0.000564729
0.000589341
0.000625059
0.000672442
0.000713549
0.00134269
0.00133575
0.00132279
0.00130211
0.00127491
0.00124174
0.00120147
0.00115744
0.00110562
0.00105376
0.00099567
0.000940999
0.000883938
0.000834669
0.000788435
0.000758151
0.000736194
0.000737785
0.000755228
0.000792864
0.000822316
0.000856664
0.000874681
0.00137667
0.00137059
0.00135892
0.00134065
0.00131671
0.00128736
0.0012523
0.0012136
0.00116927
0.00112491
0.00107662
0.00103239
0.000987445
0.000952988
0.000924769
0.000912682
0.000913126
0.000938991
0.000963358
0.000980444
0.000985449
0.000991579
0.000993151
0.00142017
0.00141501
0.00140458
0.00138872
0.00136794
0.00134255
0.00131311
0.00128074
0.00124513
0.00121
0.00117355
0.00114179
0.00111154
0.00109204
0.00108159
0.00109061
0.00111437
0.00113401
0.0011225
0.00110867
0.00108196
0.00107025
0.00106994
0.00147272
0.00146863
0.00145982
0.00144701
0.00143021
0.00140979
0.00138679
0.00136151
0.00133493
0.00130905
0.00128373
0.00126338
0.00124727
0.00124502
0.0012558
0.00128317
0.00128957
0.00125656
0.00121469
0.00117015
0.00112801
0.00111484
0.00112555
0.00153523
0.00153209
0.00152477
0.00151482
0.00150192
0.00148681
0.00147062
0.00145327
0.00143627
0.00142058
0.00140722
0.00139999
0.00140093
0.0014185
0.00144444
0.00144685
0.00138807
0.00132237
0.00126064
0.00120529
0.00115267
0.00114264
0.00116764
0.00160762
0.00160566
0.00160056
0.00159406
0.00158558
0.00157591
0.00156607
0.00155562
0.00154673
0.0015396
0.00153731
0.00154277
0.00156028
0.00158989
0.00159011
0.00152016
0.00145841
0.00137704
0.00129389
0.0012109
0.00116093
0.00116449
0.00119666
0.00168874
0.00168777
0.00168472
0.00168153
0.00167749
0.00167355
0.00167031
0.00166731
0.00166669
0.00166858
0.00167694
0.00169566
0.00172518
0.00173159
0.00164931
0.00156712
0.00146167
0.0013621
0.00126006
0.00118608
0.00114909
0.00117793
0.00120741
0.00178184
0.00178159
0.00178065
0.00178042
0.00178024
0.00178094
0.00178283
0.00178568
0.00179191
0.00180169
0.00181947
0.0018478
0.00186449
0.00179468
0.0017187
0.00159166
0.00147162
0.00134351
0.00122961
0.00115493
0.00113501
0.00117189
0.00121188
0.0018797
0.00188082
0.00188274
0.00188564
0.00188902
0.00189402
0.00190066
0.00190893
0.00192214
0.00193991
0.00196472
0.00198718
0.00193655
0.00184263
0.00169907
0.00155684
0.00141488
0.00127574
0.00117185
0.00111503
0.00111487
0.00117295
0.00121188
0.00199382
0.0019956
0.00199808
0.00200173
0.00200763
0.00201543
0.00202461
0.00203649
0.00205537
0.00207645
0.00209919
0.00207774
0.00199464
0.00185661
0.00169107
0.0015306
0.0013613
0.00121199
0.00110557
0.00106659
0.00108059
0.00115435
0.00121674
0.00210786
0.00211048
0.00211438
0.00212057
0.00212946
0.00213999
0.0021526
0.00216918
0.00219257
0.00221297
0.00221473
0.002123
0.00199974
0.00181276
0.00163074
0.0014447
0.00126826
0.00113187
0.00104487
0.00102195
0.00108043
0.00117114
0.00122509
0.00224129
0.00224397
0.00224812
0.00225454
0.00226297
0.0022745
0.00228819
0.00230655
0.00232611
0.00233357
0.00227579
0.00218016
0.00199338
0.00178675
0.00158342
0.00137594
0.00119353
0.00105334
0.000981276
0.000976655
0.0010497
0.00115623
0.00124439
0.00236851
0.00237146
0.00237652
0.00238404
0.00239411
0.00240807
0.00242517
0.00244508
0.0024587
0.00243597
0.00232601
0.00216007
0.00193173
0.00170271
0.0014765
0.00126865
0.00110016
0.000982343
0.000927842
0.000978998
0.00107588
0.00119707
0.00126751
0.00252156
0.00252442
0.00252916
0.00253576
0.00254416
0.00255668
0.00257234
0.00258402
0.00257569
0.00249726
0.00238241
0.00215465
0.00190054
0.00165556
0.00141794
0.00120537
0.00102971
0.000904408
0.000879792
0.000940819
0.0010552
0.00119011
0.00130057
0.00265909
0.00266197
0.00266679
0.00267371
0.0026834
0.002698
0.00271352
0.00271943
0.00267959
0.00255161
0.00234932
0.00207547
0.00180269
0.00154163
0.00130293
0.00109984
0.000947485
0.000855479
0.00087784
0.000975391
0.00110569
0.00125219
0.0013341
0.00283393
0.0028373
0.00284285
0.0028502
0.00285876
0.00286868
0.00287337
0.00285293
0.00274984
0.00262037
0.00236114
0.00206189
0.00177486
0.00150338
0.00125916
0.00104988
0.000888561
0.00079948
0.000839916
0.000951949
0.00109324
0.00124817
0.00137667
0.0029892
0.00299085
0.00299262
0.00299312
0.00299312
0.00299149
0.00298282
0.00294792
0.00283726
0.00259565
0.00227053
0.00194732
0.0016492
0.00137942
0.00114505
0.00095303
0.00081917
0.000785133
0.000876356
0.00100991
0.00116532
0.0013295
0.00137667
0.000241099
0.000118408
0.000101202
0.000102823
0.000241099
0.000150343
0.000224163
0.00030089
0.000381354
0.000525922
0.000859623
0.000994814
0.000774354
0.000764093
0.000859623
0.00100996
0.000774354
0.000764093
0.000615303
0.000653436
0.000570425
0.000462623
0.000301958
0.000272859
0.00195561
0.00167124
0.00133277
0.00142566
0.00402173
0.00387251
0.00365662
0.00358749
0.00402173
0.00387251
0.00365991
0.00373677
0.00331789
0.00358967
0.00365991
0.00363847
0.0016741
0.00194912
0.00196012
0.0019596
0.000933977
0.000888798
0.00100134
0.00106852
0.00111675
0.000888798
0.00100134
0.00106852
0.000875936
0.000874553
0.000923505
0.000917207
0.000392252
0.000404698
0.00050731
0.000542202
0.000392252
0.000404698
0.000417135
0.000406903
0.000332783
0.000338349
0.000341714
0.000340649
0.000312225
0.00032546
0.000331452
0.00032949
0.000281294
0.000298542
0.000314272
0.000327353
0.000278028
0.000306423
0.000328227
0.00034727
0.000308082
0.000337988
0.000363488
0.000386997
0.000352371
0.00038076
0.000409057
0.000434391
0.000443418
0.00046979
0.000497605
0.000522166
0.000573941
0.000596439
0.000622413
0.00064361
0.000744301
0.000761569
0.000782116
0.000800076
0.000893278
0.000904782
0.000920575
0.000936966
0.0010054
0.00101679
0.00103349
0.00105239
0.00108601
0.00110184
0.00112289
0.00114587
0.00115125
0.00117216
0.00119805
0.00122422
0.00120279
0.00122775
0.00125619
0.00128399
0.00123884
0.001267
0.00129717
0.00132701
0.0012556
0.00128855
0.00132135
0.00135524
0.00126914
0.00130733
0.00134467
0.00138281
0.00127758
0.00132174
0.00136449
0.00140788
0.00129323
0.00134354
0.00139136
0.00144024
0.00131068
0.00136639
0.00141938
0.00147321
0.00133816
0.00139854
0.00145584
0.00151407
0.00136778
0.00143252
0.00149312
0.00155525
0.00140642
0.00147494
0.00153839
0.00160373
0.00144404
0.00151552
0.00158104
0.00164876
0.00149032
0.00156441
0.001632
0.00170178
0.00149032
0.00156441
0.001632
0.00170178
0.000321657
0.000802988
0.000937925
0.000937925
0.000772906
0.00131999
0.00148794
0.000989792
0.000439719
0.000183874
0.000307151
0.000711928
0.00111479
0.00111479
0.000956632
0.000512126
0.000259753
0.000224294
0.00058404
0.000749031
0.00077016
0.000570694
0.000829328
0.00192165
0.00360245
0.00293863
0.00208766
0.00144698
0.00125227
0.000934987
0.000361027
0.000258483
0.000718476
0.000766121
0.000416639
0.000493808
0.000838688
0.000822611
0.00125283
0.000777942
0.000418074
0.00186429
0.0048388
0.00474624
0.00474624
0.00345423
0.00223505
0.000749764
0.000148049
0.000107655
0.000117427
0.000270787
0.00100518
0.000938142
0.000848402
0.000848402
0.000552961
0.00125283
0.000895816
0.00143345
0.00549796
0.00549796
0.00505048
0.00276763
0.0017231
0.00182933
0.0012266
0.00067626
0.000152377
0.00016124
0.000413682
0.00131417
0.00131417
0.00111493
0.000740262
0.000125367
0.000672086
0.000976613
0.00395592
0.00545161
0.00494037
0.00186501
0.00105327
0.0016766
0.00182933
0.00153797
0.000866106
0.000733758
0.000918124
0.000299361
0.000346667
0.000929606
0.000749005
0.00057182
0.000125483
0.000310577
0.00221566
0.00473925
0.00545161
0.00329821
0.00121856
0.000697616
0.000650663
0.00170749
0.00181964
0.00168618
0.00132219
0.00137378
0.00142119
0.000608254
0.000216909
0.000185714
0.000254712
0.000712208
0.00120936
0.00358612
0.00511575
0.00505851
0.00287463
0.00138881
0.000722932
0.00056938
0.00100957
0.00181964
0.0010453
0.00097633
0.00113457
0.0019865
0.0019865
0.00149655
0.00131477
0.00154433
0.00173616
0.00353099
0.00512246
0.00512246
0.00423131
0.00198764
0.00128294
0.00066873
0.000605883
0.000809968
0.000769223
0.000727238
0.00124829
0.00169458
0.00160688
0.00221433
0.00221433
0.00220341
0.00214072
0.00230189
0.00478603
0.00478603
0.0043611
0.0023462
0.00145313
0.00145313
0.000829513
0.00126158
0.00126158
0.00115322
0.0014497
0.00241622
0.00242448
0.00208272
0.00243606
0.00267919
0.00294159
0.00316142
0.00316142
0.00358702
0.00283153
0.00204633
0.0012935
0.00125697
0.000654371
0.000956645
0.00112747
0.00147699
0.00206123
0.00293451
0.00318768
0.00318768
0.00246937
0.00228225
0.00279345
0.00332455
0.0035698
0.0035698
0.00181237
0.00143877
0.00107802
0.000990359
0.000287493
0.000648559
0.00095907
0.0012361
0.00209977
0.00286
0.00307253
0.00307253
0.00245804
0.00157288
0.00196365
0.00239624
0.00269317
0.00325619
0.00340149
0.000654196
0.000578497
0.000667953
0.000565419
0.000623531
0.000913805
0.00149346
0.00225614
0.00245617
0.00245617
0.00243756
0.00228267
0.00145255
0.00146442
0.00191691
0.00232335
0.00264588
0.0031872
0.00336631
0.00126945
0.00126945
0.00110315
0.000881009
0.000929108
0.00169887
0.00248854
0.00248854
0.00248332
0.0022467
0.00213977
0.00160072
0.00118248
0.00169459
0.00203797
0.0022738
0.00251916
0.00332328
0.0037777
0.000877824
0.000865994
0.000813437
0.000958977
0.00145244
0.00195481
0.00215896
0.00220071
0.00205792
0.00184553
0.00138784
0.000955539
0.00135204
0.00182422
0.00209079
0.00231032
0.0025158
0.00338256
0.0037777
0.000580624
0.000586065
0.000635137
0.000729297
0.000901753
0.00131692
0.00155377
0.00159952
0.00131029
0.00101173
0.000649066
0.0010664
0.00163743
0.00200584
0.00217797
0.00226836
0.00235751
0.00314374
0.00377222
0.000401076
0.000390167
0.000387148
0.000474847
0.000603757
0.00081116
0.00100729
0.000951276
0.000819423
0.00083416
0.00102203
0.00145908
0.00183515
0.00205422
0.00212671
0.00214708
0.00220563
0.00309168
0.00369969
0.000365744
0.000365744
0.000278752
0.00022418
0.000354426
0.000629359
0.000880964
0.00108302
0.0011979
0.00125319
0.00147859
0.00180727
0.00202126
0.00210173
0.00210173
0.00205823
0.00194939
0.0029359
0.0037019
0.000324091
0.000319927
0.000315741
0.000387074
0.000583243
0.000825092
0.00107917
0.00131285
0.00149083
0.00167383
0.00189456
0.0020618
0.00211868
0.00211868
0.00205919
0.00187313
0.00168524
0.00295739
0.0037019
0.000412763
0.00042407
0.000468863
0.000592451
0.000790833
0.00107572
0.0013753
0.00165079
0.00185806
0.00199791
0.00210938
0.00215799
0.00215799
0.00208847
0.00191841
0.0016407
0.0014215
0.00267059
0.0034454
0.000391783
0.000439735
0.000509001
0.000624763
0.000802463
0.0010425
0.00131976
0.00159206
0.00182149
0.00198218
0.0020761
0.0020761
0.00206605
0.00193508
0.00174727
0.00149739
0.00125609
0.00244547
0.00329556
0.000508659
0.000573567
0.00065785
0.000782591
0.000944654
0.00115246
0.0013784
0.00159467
0.00178169
0.00191704
0.00196497
0.00196497
0.00191739
0.0017872
0.00161507
0.0014038
0.00121592
0.00216151
0.00300371
0.00051624
0.000595812
0.000691959
0.00081539
0.000972155
0.00116092
0.00137679
0.00157017
0.00174396
0.00187012
0.00189581
0.00189581
0.00184133
0.00171265
0.00154286
0.00134618
0.00117555
0.00178412
0.00249881
0.00063435
0.000714712
0.000812087
0.000927842
0.00106492
0.00123741
0.00141219
0.00158825
0.00174419
0.00184501
0.00187395
0.00187395
0.00181725
0.00168626
0.00150863
0.00130739
0.00111433
0.00140058
0.00195108
0.000710001
0.000790468
0.000884369
0.000981668
0.00109218
0.00122701
0.00137194
0.00152827
0.00166403
0.00175166
0.00179191
0.00179191
0.00175898
0.00164309
0.00146736
0.00125537
0.00103053
0.00104937
0.00145528
0.000893465
0.000971799
0.00106319
0.0011403
0.00121946
0.00131993
0.00142315
0.00153595
0.00161845
0.00167255
0.00169679
0.00169679
0.00168372
0.00160769
0.00145263
0.00124796
0.00101102
0.000777715
0.00102978
0.00103968
0.00112148
0.00120922
0.00126425
0.00132632
0.00142141
0.00151398
0.00159644
0.00163632
0.00164444
0.00164444
0.00162021
0.00158048
0.00153525
0.0014332
0.00125424
0.00103551
0.00077879
0.000657519
0.0011912
0.00127449
0.00135231
0.00138964
0.00146573
0.00159467
0.00170623
0.00178251
0.001783
0.001783
0.00173255
0.00164263
0.00153172
0.00146362
0.00141262
0.00128242
0.00109963
0.000877722
0.00050156
0.00130406
0.00138286
0.00144663
0.00148294
0.00158752
0.00175849
0.00190841
0.00199761
0.00199761
0.00197974
0.00188862
0.00173999
0.00155408
0.00142068
0.00139508
0.00134775
0.00122861
0.00105996
0.000652875
0.0014064
0.00148154
0.00154239
0.00158382
0.00171325
0.00192738
0.00212631
0.00224379
0.00224379
0.00221761
0.0021019
0.0019043
0.00164888
0.00143414
0.00142438
0.00142438
0.00138996
0.00128083
0.000929914
0.00147879
0.00154847
0.00160914
0.00166795
0.00182416
0.00207284
0.00232155
0.00246961
0.00246961
0.00245022
0.00232832
0.00209173
0.00177587
0.00148635
0.00152412
0.00158776
0.00158776
0.00153901
0.00124468
0.00153801
0.00161035
0.00168095
0.00175768
0.00193023
0.00220263
0.00249477
0.00268038
0.00268794
0.00268794
0.00258392
0.00232543
0.00194824
0.00158336
0.00163538
0.00180041
0.00181852
0.00181852
0.00158352
0.00158453
0.00166546
0.0017464
0.00184322
0.00203466
0.00232142
0.00264579
0.0028712
0.00291866
0.00291866
0.00284426
0.00257748
0.0021384
0.00169023
0.00176577
0.00202704
0.00211035
0.00211035
0.00192266
0.00161949
0.00171039
0.00180375
0.00192033
0.00213463
0.00243459
0.00278121
0.0030522
0.00315292
0.00315292
0.00311901
0.00286115
0.00237412
0.00183652
0.00191972
0.00227639
0.00242005
0.00242005
0.00225703
0.00167239
0.00177545
0.00188051
0.0020099
0.00224342
0.00255676
0.00291521
0.00322558
0.00338243
0.00339219
0.00339219
0.00314888
0.00261449
0.00197983
0.00208623
0.00254378
0.00274366
0.00274366
0.00260841
0.00170568
0.00182163
0.00194103
0.00208313
0.00233594
0.00266935
0.00303942
0.00338919
0.00360436
0.00366839
0.00366839
0.00345949
0.00289048
0.00216326
0.00225622
0.00282257
0.00307505
0.00307505
0.00295801
0.00177425
0.00190036
0.00203091
0.00218029
0.00244306
0.00279179
0.00317116
0.00355019
0.0038141
0.00393345
0.00393345
0.00376262
0.00314201
0.00229086
0.00242783
0.00310344
0.00341693
0.00341693
0.00332942
0.0018097
0.00194732
0.002092
0.00225161
0.00252429
0.00289206
0.00328534
0.00369354
0.00400626
0.00419154
0.00419154
0.00408105
0.0034026
0.00238303
0.00257551
0.00337311
0.00372545
0.00372545
0.00364713
0.00189188
0.00203638
0.00218877
0.00235465
0.00262892
0.00300448
0.00340608
0.00383201
0.00418
0.00441958
0.00441958
0.00435535
0.00359947
0.0023708
0.00271541
0.00362722
0.0040348
0.0040348
0.00397542
0.00192348
0.00207617
0.00223792
0.00241371
0.00269112
0.00307903
0.0034943
0.0039387
0.00432317
0.00461254
0.00461254
0.00459021
0.00378351
0.00232801
0.00278609
0.00383262
0.0042617
0.0042617
0.00420122
0.00201913
0.00217679
0.00234135
0.0025212
0.00279616
0.00318172
0.00359766
0.00404348
0.00444272
0.00475413
0.00475413
0.00475029
0.00386954
0.00212621
0.0028616
0.00398561
0.00447877
0.00447877
0.00443815
0.00203737
0.00220068
0.0023692
0.00255547
0.00283223
0.00322086
0.0036437
0.00409362
0.00450745
0.00483445
0.00485405
0.00485405
0.00395207
0.00202854
0.0029086
0.0040894
0.00457472
0.00457472
0.00453709
0.00214927
0.00231765
0.0024876
0.00267582
0.00294993
0.00332919
0.00374702
0.00418494
0.00459517
0.00491453
0.00493754
0.00493754
0.00396945
0.0018135
0.00292183
0.00410295
0.00468524
0.00470683
0.00470683
)
;

boundaryField
{
    leftWall
    {
        type            calculated;
        value           uniform 0;
    }
    rightWall
    {
        type            calculated;
        value           uniform 0;
    }
    lowerWall
    {
        type            calculated;
        value           uniform 0;
    }
    atmosphere
    {
        type            calculated;
        value           uniform 0;
    }
    defaultFaces
    {
        type            empty;
    }
}


// ************************************************************************* //
