/*--------------------------------*- C++ -*----------------------------------*\
| =========                 |                                                 |
| \\      /  F ield         | OpenFOAM: The Open Source CFD Toolbox           |
|  \\    /   O peration     | Version:  2012                                  |
|   \\  /    A nd           | Website:  www.openfoam.com                      |
|    \\/     M anipulation  |                                                 |
\*---------------------------------------------------------------------------*/
FoamFile
{
    version     2.0;
    format      ascii;
    class       surfaceScalarField;
    location    "0.8";
    object      phi;
}
// * * * * * * * * * * * * * * * * * * * * * * * * * * * * * * * * * * * * * //

dimensions      [0 3 -1 0 0 0 0];
oriented        oriented;


internalField   nonuniform List<scalar> 
4432
(
-3.79313e-06
3.79313e-06
-7.42001e-06
3.62687e-06
-1.10149e-05
3.59493e-06
-1.44567e-05
3.44178e-06
-1.74754e-05
3.01863e-06
-2.00355e-05
2.5601e-06
-2.2223e-05
2.18752e-06
-2.39308e-05
1.70784e-06
-2.49886e-05
1.05777e-06
-2.54336e-05
4.44977e-07
-2.52706e-05
-1.63019e-07
-2.44974e-05
-7.73192e-07
-2.32025e-05
-1.29489e-06
-2.14736e-05
-1.72889e-06
-1.93908e-05
-2.08283e-06
-1.68623e-05
-2.52843e-06
-1.37594e-05
-3.10295e-06
-1.02327e-05
-3.52664e-06
-6.264e-06
-3.96873e-06
-2.49169e-06
-3.77231e-06
1.65089e-07
-2.65677e-06
2.34093e-06
-2.17584e-06
2.34093e-06
-3.81753e-06
7.61065e-06
-7.45878e-06
7.26812e-06
-1.10539e-05
7.19003e-06
-1.44906e-05
6.8785e-06
-1.75256e-05
6.05366e-06
-2.01204e-05
5.15489e-06
-2.23267e-05
4.39378e-06
-2.40275e-05
3.40859e-06
-2.50804e-05
2.11071e-06
-2.55366e-05
9.01166e-07
-2.53643e-05
-3.3535e-07
-2.45684e-05
-1.56909e-06
-2.32717e-05
-2.59149e-06
-2.15572e-05
-3.44344e-06
-1.94716e-05
-4.16841e-06
-1.69428e-05
-5.0572e-06
-1.38394e-05
-6.20644e-06
-1.02969e-05
-7.06913e-06
-6.34098e-06
-7.92462e-06
-2.57361e-06
-7.53968e-06
1.3543e-07
-5.36581e-06
1.81402e-06
-3.85443e-06
4.15495e-06
-3.89334e-06
1.1504e-05
-7.55753e-06
1.09323e-05
-1.11595e-05
1.0792e-05
-1.4625e-05
1.0344e-05
-1.77305e-05
9.15921e-06
-2.03916e-05
7.81591e-06
-2.26375e-05
6.63969e-06
-2.43564e-05
5.12747e-06
-2.54285e-05
3.18288e-06
-2.58875e-05
1.36013e-06
-2.56654e-05
-5.57478e-07
-2.48477e-05
-2.38674e-06
-2.35327e-05
-3.90652e-06
-2.17904e-05
-5.1857e-06
-1.96594e-05
-6.29941e-06
-1.70481e-05
-7.6685e-06
-1.38625e-05
-9.39207e-06
-1.01664e-05
-1.07653e-05
-6.02248e-06
-1.20685e-05
-1.73838e-06
-1.18238e-05
1.66917e-06
-8.77337e-06
3.16867e-06
-5.35392e-06
7.32362e-06
-3.93374e-06
1.54377e-05
-7.62486e-06
1.46234e-05
-1.12556e-05
1.44227e-05
-1.47245e-05
1.38129e-05
-1.7869e-05
1.23037e-05
-2.06074e-05
1.05544e-05
-2.29157e-05
8.94792e-06
-2.46742e-05
6.88598e-06
-2.57641e-05
4.27283e-06
-2.62201e-05
1.81613e-06
-2.59857e-05
-7.91892e-07
-2.51415e-05
-3.23094e-06
-2.37812e-05
-5.26686e-06
-2.20425e-05
-6.92433e-06
-1.9953e-05
-8.38898e-06
-1.74451e-05
-1.01763e-05
-1.43203e-05
-1.25169e-05
-1.05702e-05
-1.45154e-05
-6.21669e-06
-1.6422e-05
-1.36731e-06
-1.66732e-05
2.82488e-06
-1.29656e-05
4.26735e-06
-6.79639e-06
1.1591e-05
-4.03423e-06
1.94719e-05
-7.82199e-06
1.84112e-05
-1.15309e-05
1.81316e-05
-1.5072e-05
1.7354e-05
-1.83223e-05
1.55539e-05
-2.11691e-05
1.34011e-05
-2.3538e-05
1.13168e-05
-2.53114e-05
8.65938e-06
-2.6432e-05
5.39349e-06
-2.68957e-05
2.2798e-06
-2.65868e-05
-1.10078e-06
-2.57065e-05
-4.11125e-06
-2.42972e-05
-6.67617e-06
-2.25083e-05
-8.71321e-06
-2.03822e-05
-1.05151e-05
-1.7774e-05
-1.27845e-05
-1.45422e-05
-1.57487e-05
-1.05192e-05
-1.85383e-05
-5.79227e-06
-2.1149e-05
4.22614e-08
-2.25077e-05
5.62802e-06
-1.85513e-05
6.72829e-06
-7.89666e-06
1.83193e-05
-4.06667e-06
2.35386e-05
-7.95656e-06
2.23011e-05
-1.1693e-05
2.18681e-05
-1.52275e-05
2.08885e-05
-1.85232e-05
1.88497e-05
-2.14962e-05
1.63741e-05
-2.40072e-05
1.38278e-05
-2.59174e-05
1.05696e-05
-2.70928e-05
6.56889e-06
-2.75098e-05
2.69684e-06
-2.71531e-05
-1.45753e-06
-2.61707e-05
-5.09364e-06
-2.46372e-05
-8.2096e-06
-2.28589e-05
-1.04916e-05
-2.08217e-05
-1.25523e-05
-1.84183e-05
-1.51879e-05
-1.53127e-05
-1.88542e-05
-1.13438e-05
-2.25073e-05
-6.30026e-06
-2.61925e-05
5.76609e-07
-2.93846e-05
7.52834e-06
-2.5503e-05
8.84995e-06
-9.21827e-06
2.71692e-05
-4.18006e-06
2.77187e-05
-8.31122e-06
2.64322e-05
-1.21947e-05
2.57516e-05
-1.58262e-05
2.452e-05
-1.92149e-05
2.22383e-05
-2.22567e-05
1.94159e-05
-2.4793e-05
1.6364e-05
-2.6731e-05
1.25076e-05
-2.80251e-05
7.86292e-06
-2.85074e-05
3.17921e-06
-2.80525e-05
-1.91246e-06
-2.69934e-05
-6.15278e-06
-2.54261e-05
-9.77689e-06
-2.36539e-05
-1.22637e-05
-2.16552e-05
-1.4551e-05
-1.9136e-05
-1.77072e-05
-1.58771e-05
-2.21131e-05
-1.17033e-05
-2.66811e-05
-6.32887e-06
-3.15669e-05
1.46334e-06
-3.71768e-05
9.36727e-06
-3.3407e-05
1.06377e-05
-1.04887e-05
3.78069e-05
-4.17051e-06
3.18892e-05
-8.43154e-06
3.06932e-05
-1.23979e-05
2.97179e-05
-1.60971e-05
2.82192e-05
-1.97436e-05
2.58848e-05
-2.3169e-05
2.28413e-05
-2.59656e-05
1.91607e-05
-2.80273e-05
1.45693e-05
-2.91832e-05
9.01887e-06
-2.94322e-05
3.42821e-06
-2.88966e-05
-2.44809e-06
-2.76525e-05
-7.39691e-06
-2.58511e-05
-1.15782e-05
-2.40795e-05
-1.40353e-05
-2.22124e-05
-1.64181e-05
-1.98674e-05
-2.00521e-05
-1.67519e-05
-2.52286e-05
-1.30405e-05
-3.03925e-05
-8.16756e-06
-3.64399e-05
-5.75796e-07
-4.47685e-05
8.32139e-06
-4.23041e-05
1.05403e-05
-1.27079e-05
4.83473e-05
-6.74337e-05
6.73979e-05
-0.000107758
4.027e-05
-0.000128335
2.05481e-05
-0.000132699
4.35239e-06
-0.000130059
-2.61679e-06
-0.000128986
-1.0973e-06
-0.000138126
9.12489e-06
-0.000151517
1.33827e-05
-0.000161581
1.00565e-05
-0.00016936
7.77302e-06
-0.0001743
4.94427e-06
-0.000176961
2.66305e-06
-0.000176617
-3.54852e-07
-0.000170624
-6.00236e-06
-0.000154819
-1.58245e-05
-0.000122894
-3.19103e-05
-8.01026e-05
-4.27646e-05
-3.88255e-05
-4.12664e-05
-3.88116e-05
-5.60943e-05
0.000123462
-9.30448e-05
7.71742e-05
-0.000111467
3.89472e-05
-0.00011567
8.53268e-06
-0.000113614
-4.63347e-06
-0.000111603
-3.13979e-06
-0.000118943
1.64551e-05
-0.000130179
2.46068e-05
-0.000139748
1.96213e-05
-0.00014995
1.79476e-05
-0.000161083
1.60777e-05
-0.000171064
1.26347e-05
-0.000173232
1.81208e-06
-0.000157744
-2.16135e-05
-0.000125999
-4.76697e-05
-8.84463e-05
-6.94605e-05
-5.44831e-05
-7.66781e-05
-2.87181e-05
-6.703e-05
-6.75288e-05
-5.02794e-05
0.000173745
-7.92825e-05
0.000106152
-9.09609e-05
5.0592e-05
-8.59841e-05
3.52722e-06
-7.79291e-05
-1.26663e-05
-8.36898e-05
2.59405e-06
-0.000102786
3.55185e-05
-0.000121551
4.33439e-05
-0.00014082
3.88712e-05
-0.000172885
4.99893e-05
-0.000209621
5.28872e-05
-0.000219236
2.22191e-05
-0.000160915
-5.64846e-05
-8.32088e-05
-9.93888e-05
-4.11171e-05
-9.00267e-05
-1.9493e-05
-9.12109e-05
-1.20177e-05
-8.4213e-05
-9.66646e-06
-6.93863e-05
-7.71951e-05
-3.68012e-05
0.000210545
-6.18003e-05
0.000131109
-7.30864e-05
6.18019e-05
-6.4172e-05
-5.45695e-06
-4.48277e-05
-3.20084e-05
-3.50238e-05
-7.21721e-06
-6.42712e-05
6.47193e-05
-0.000106581
8.56616e-05
-0.00013561
6.79477e-05
-0.000154376
6.87604e-05
-0.000126201
2.47466e-05
-3.17182e-05
-7.22607e-05
3.85535e-05
-0.000126861
5.19905e-05
-0.000112972
5.19042e-05
-9.00756e-05
4.27943e-05
-8.22244e-05
2.75693e-05
-6.90013e-05
1.08362e-05
-5.26403e-05
-6.63584e-05
-2.69574e-05
0.000237509
-4.56805e-05
0.000149788
-6.99815e-05
8.59823e-05
-6.11235e-05
-1.44038e-05
-2.66153e-05
-6.65842e-05
-4.41164e-06
-2.94236e-05
-4.50525e-06
6.47935e-05
-2.99308e-05
0.000111103
-7.14335e-05
0.000109464
-5.29534e-05
5.02847e-05
1.12924e-05
-3.94772e-05
4.99618e-05
-0.000110893
5.68775e-05
-0.000133697
6.29744e-05
-0.00011909
6.48162e-05
-9.19603e-05
5.827e-05
-7.56819e-05
4.40016e-05
-5.47337e-05
2.38744e-05
-3.25134e-05
-4.24841e-05
-1.26926e-05
0.000250201
-2.9542e-06
0.000139988
-3.58039e-05
0.000118669
-4.08431e-05
-9.48441e-06
9.45269e-07
-0.000108502
1.08219e-05
-3.93272e-05
1.6128e-05
5.94858e-05
2.32405e-05
0.000103898
2.10378e-05
0.00011169
3.33514e-05
3.79735e-05
4.71992e-05
-5.32296e-05
5.02523e-05
-0.000113882
5.78945e-05
-0.000141339
6.61647e-05
-0.000127362
6.89924e-05
-9.47932e-05
6.31634e-05
-6.98601e-05
4.98057e-05
-4.13769e-05
2.79026e-05
-1.06103e-05
-1.45814e-05
-3.38531e-06
0.000253579
1.39226e-05
0.00012259
1.10156e-05
0.000121425
1.5683e-05
-1.42876e-05
2.81637e-05
-0.000121015
2.79385e-05
-3.92119e-05
2.5816e-05
6.16057e-05
2.74285e-05
0.000102281
3.26511e-05
0.000106363
3.58738e-05
3.47245e-05
3.74125e-05
-5.47384e-05
4.2878e-05
-0.000119331
5.55972e-05
-0.000154058
6.69113e-05
-0.000138705
6.83755e-05
-9.62603e-05
5.95722e-05
-6.11699e-05
4.44993e-05
-2.63426e-05
2.34568e-05
1.04264e-05
8.87419e-06
4.98056e-07
0.000253068
1.86507e-07
0.000122781
1.84036e-05
0.000103056
4.54219e-05
-4.14619e-05
4.04407e-05
-0.000116171
3.97035e-05
-3.86499e-05
3.35051e-05
6.77568e-05
2.75292e-05
0.000108252
2.57898e-05
0.000108097
2.53927e-05
3.51185e-05
2.38547e-05
-5.31942e-05
2.59984e-05
-0.000121465
3.6656e-05
-0.000164681
4.85389e-05
-0.00015061
4.52644e-05
-9.29653e-05
3.1424e-05
-4.73824e-05
2.31854e-05
-1.80959e-05
1.41778e-05
1.94312e-05
2.30588e-05
-9.22011e-06
4.11029e-05
-1.8577e-05
4.00449e-05
-2.70685e-05
3.82068e-05
-3.48027e-05
3.59532e-05
-4.22728e-05
3.33549e-05
-4.93823e-05
2.99509e-05
-5.55707e-05
2.5349e-05
-6.08617e-05
1.98602e-05
-6.51858e-05
1.3343e-05
-6.69917e-05
5.23414e-06
-6.52796e-05
-4.16022e-06
-6.14512e-05
-1.12253e-05
-5.71651e-05
-1.58644e-05
-5.36174e-05
-1.7583e-05
-5.02541e-05
-1.97814e-05
-4.56657e-05
-2.46405e-05
-3.97012e-05
-3.11932e-05
-3.2188e-05
-3.79056e-05
-2.15208e-05
-4.71071e-05
-4.35899e-06
-6.19304e-05
1.9259e-05
-6.59252e-05
4.56736e-05
-3.9156e-05
1.98877e-05
7.4144e-05
-1.13161e-05
5.25245e-05
-2.22145e-05
5.10435e-05
-3.20513e-05
4.81307e-05
-4.13526e-05
4.53255e-05
-5.00775e-05
4.20998e-05
-5.75009e-05
3.73591e-05
-6.41967e-05
3.20405e-05
-6.98436e-05
2.54876e-05
-7.08677e-05
1.43655e-05
-6.82643e-05
2.63111e-06
-6.43001e-05
-8.12442e-06
-5.99144e-05
-1.56102e-05
-5.55579e-05
-2.02203e-05
-5.27288e-05
-2.04111e-05
-5.03934e-05
-2.21166e-05
-4.74653e-05
-2.75684e-05
-4.32424e-05
-3.54161e-05
-3.86624e-05
-4.24854e-05
-3.15646e-05
-5.42048e-05
-2.41427e-05
-6.93523e-05
-1.19798e-05
-7.81068e-05
2.98064e-06
-5.41266e-05
-6.90817e-06
2.9824e-05
-1.3347e-05
6.59053e-05
-2.64054e-05
6.41417e-05
-3.90906e-05
6.08664e-05
-5.21425e-05
5.84474e-05
-6.61321e-05
5.62254e-05
-7.91836e-05
5.05282e-05
-9.08908e-05
4.38881e-05
-0.00010541
3.99844e-05
-0.000121523
3.05349e-05
-0.000124845
5.71819e-06
-0.000111653
-2.11779e-05
-9.38162e-05
-3.35084e-05
-7.88848e-05
-3.50126e-05
-6.97079e-05
-2.95888e-05
-6.59078e-05
-2.591e-05
-6.20596e-05
-3.14126e-05
-5.94577e-05
-3.8006e-05
-5.8499e-05
-4.34424e-05
-6.2148e-05
-5.05556e-05
-6.96348e-05
-6.18677e-05
-7.92438e-05
-6.8554e-05
-8.49097e-05
-4.82997e-05
-6.50562e-06
-8.53201e-05
-2.54594e-05
9.13404e-05
-5.27655e-05
9.14246e-05
-8.18871e-05
8.99654e-05
-0.000127618
0.000104161
-0.000199391
0.000127997
-0.000273926
0.000125138
-0.000343215
0.000113524
-0.000376167
7.30355e-05
-0.000360395
1.47145e-05
-0.00032555
-2.87468e-05
-0.000285836
-6.04136e-05
-0.000245924
-7.29027e-05
-0.000209832
-7.11262e-05
-0.000180378
-5.89677e-05
-0.000158289
-4.78828e-05
-0.000137666
-5.20086e-05
-0.00011989
-5.58126e-05
-0.000107817
-5.55413e-05
-0.000101803
-5.65908e-05
-0.000104135
-5.95587e-05
-0.000117092
-5.57056e-05
-0.000129741
-3.5659e-05
-3.03855e-06
-0.000133183
-4.27881e-05
0.000134105
-9.01128e-05
0.000138726
-0.000147223
0.000147052
-0.000229438
0.000186356
-0.000317318
0.000215878
-0.000385579
0.000193367
-0.000444082
0.0001721
-0.000439108
6.82827e-05
-0.000383923
-3.86912e-05
-0.000340804
-7.19136e-05
-0.000308192
-9.28867e-05
-0.000281867
-9.94707e-05
-0.000261202
-9.25469e-05
-0.000247714
-7.27467e-05
-0.000232313
-6.34124e-05
-0.000213117
-7.12818e-05
-0.000190857
-7.81284e-05
-0.000162985
-8.34934e-05
-0.000135333
-8.4377e-05
-0.000112214
-8.28261e-05
-9.87649e-05
-6.93116e-05
-9.24788e-05
-4.19848e-05
-3.44693e-06
-9.21748e-05
-4.68839e-05
0.000180966
-9.90725e-05
0.000190892
-0.000165601
0.000213559
-0.000242816
0.000263552
-0.000305685
0.000278734
-0.000353508
0.000241163
-0.000371685
0.000190265
-0.000358982
5.56401e-05
-0.000350883
-4.60809e-05
-0.000341751
-8.06685e-05
-0.000334572
-0.000100706
-0.000336885
-9.83041e-05
-0.000351684
-7.77655e-05
-0.000336401
-8.799e-05
-0.00030501
-9.4754e-05
-0.000281062
-9.51876e-05
-0.000266258
-9.2937e-05
-0.000243148
-0.000106603
-0.000197841
-0.000129679
-0.000145426
-0.00013523
-0.000113252
-0.000101315
-8.39478e-05
-7.12828e-05
-2.98171e-05
-5.76011e-05
-3.15691e-05
0.000212515
-6.58278e-05
0.000225131
-0.000105426
0.000253139
-0.000146262
0.000304373
-0.000203868
0.000336334
-0.0002687
0.000305994
-0.000314271
0.000235827
-0.000348916
9.02783e-05
-0.000358451
-3.65745e-05
-0.000350935
-8.8192e-05
-0.000348196
-0.000103456
-0.000345434
-0.000101062
-0.000328672
-9.42578e-05
-0.000311895
-0.000104329
-0.000299781
-0.00010644
-0.000291196
-0.000103645
-0.000285485
-9.85412e-05
-0.000289087
-0.000102969
-0.000304107
-0.000114645
-0.00029124
-0.000148079
-0.000234692
-0.000157843
-0.000165347
-0.000140606
-9.95102e-05
-9.56202e-05
-1.82545e-05
0.00023075
-3.39293e-05
0.000240786
-4.42931e-05
0.000263486
-4.30912e-05
0.000303156
-5.28624e-05
0.000346096
-8.41331e-05
0.000337257
-0.000139924
0.000291605
-0.000221144
0.000171485
-0.000285907
2.81762e-05
-0.000315299
-5.88085e-05
-0.000321431
-9.73263e-05
-0.000309612
-0.000112907
-0.000294823
-0.000108668
-0.000288478
-0.000109621
-0.000284862
-0.000110121
-0.000280557
-0.000108186
-0.000275323
-0.000104161
-0.000283341
-9.46568e-05
-0.000323369
-7.45863e-05
-0.000379954
-9.14724e-05
-0.000432588
-0.000105186
-0.000458037
-0.000115123
-0.000126384
-0.000431127
-7.53442e-06
0.000238266
-1.2054e-05
0.000245288
-8.78316e-06
0.000260198
1.12371e-05
0.000283121
4.40717e-05
0.000313251
6.11456e-05
0.000320176
4.34979e-05
0.000309245
-3.43736e-05
0.000249344
-0.000155147
0.000148935
-0.00025864
4.46755e-05
-0.000308238
-4.77376e-05
-0.000306149
-0.000115005
-0.000285289
-0.000129459
-0.000270846
-0.000123364
-0.000261634
-0.0001191
-0.000255472
-0.000114749
-0.000253429
-0.000106381
-0.000258023
-9.09787e-05
-0.000259203
-7.31916e-05
-0.00029773
-5.28114e-05
-0.000380365
-2.25133e-05
-0.000484835
-1.062e-05
-3.77787e-05
-0.000573409
-9.53461e-08
0.000238343
2.049e-06
0.000243126
9.30424e-06
0.000252927
2.65275e-05
0.000265882
5.70997e-05
0.000282666
9.06257e-05
0.000286638
0.000113755
0.000286109
0.000102721
0.000260368
4.48236e-05
0.000206821
-4.23514e-05
0.00013184
-0.00012487
3.47725e-05
-0.000182743
-5.71429e-05
-0.00021593
-9.62762e-05
-0.000240205
-9.90944e-05
-0.000247227
-0.000112042
-0.000237582
-0.000123731
-0.000234755
-0.000109302
-0.000240343
-8.56951e-05
-0.000246531
-6.71171e-05
-0.000242696
-5.71979e-05
-0.000223662
-4.12483e-05
-0.000215237
-1.8881e-05
-2.84291e-05
-0.000224491
4.33574e-06
0.000233989
1.08444e-05
0.0002366
2.15904e-05
0.000242165
3.88624e-05
0.000248595
6.43991e-05
0.000257116
9.35253e-05
0.0002575
0.000122795
0.00025683
0.000139003
0.000244151
0.000136783
0.00020903
0.000115718
0.000152893
6.93755e-05
8.11047e-05
3.59808e-06
8.62303e-06
-5.38714e-05
-3.88172e-05
-9.37985e-05
-5.91768e-05
-0.00012561
-8.02358e-05
-0.000176773
-7.25762e-05
-0.000229434
-5.66193e-05
-0.00023593
-7.83327e-05
-0.000223872
-7.89387e-05
-0.000213478
-6.78919e-05
-0.000206444
-4.88245e-05
-0.000184247
-4.16061e-05
-5.12293e-05
-0.000160675
7.16251e-06
0.000226809
1.55057e-05
0.000228239
2.63735e-05
0.00023128
4.11103e-05
0.000233842
6.14103e-05
0.000236802
8.48505e-05
0.000234047
0.000112335
0.000229333
0.000134634
0.000221843
0.000145048
0.000198606
0.000142326
0.000155606
0.000125423
9.79968e-05
9.46543e-05
3.93829e-05
6.21482e-05
-6.31932e-06
3.46253e-05
-3.16619e-05
-1.14719e-06
-4.44715e-05
-4.86154e-05
-2.51156e-05
-9.34027e-05
-1.18381e-05
-0.000132297
-3.94452e-05
-0.00017233
-3.89191e-05
-0.000197251
-4.29841e-05
-0.000193335
-5.24974e-05
-0.000174915
-5.89134e-05
-7.35261e-05
-0.000152916
8.58508e-06
0.000218206
1.81458e-05
0.000218661
2.97612e-05
0.000219648
4.37826e-05
0.000219805
6.10446e-05
0.000219525
7.97703e-05
0.000215308
0.00010132
0.000207772
0.000124584
0.000198568
0.000142058
0.000181122
0.000147854
0.0001498
0.000139198
0.000106643
0.000116553
6.20182e-05
8.59967e-05
2.42274e-05
5.40434e-05
2.82622e-07
2.53113e-05
-1.57474e-05
1.8731e-05
-1.85434e-05
1.79414e-05
-1.10559e-05
-1.34519e-05
-8.05881e-06
-6.3138e-05
1.07602e-05
-0.000110285
4.15664e-06
-0.000139823
-2.29667e-05
-0.000155805
-4.29402e-05
-6.85781e-05
-0.000160771
8.58655e-06
0.000209601
1.78484e-05
0.000209381
2.85216e-05
0.000208957
4.08248e-05
0.000207486
5.54932e-05
0.000204842
7.12879e-05
0.000199499
8.8516e-05
0.00019053
0.000107234
0.000179838
0.000124839
0.000163506
0.000134565
0.000140064
0.000133602
0.000107596
0.000122845
7.27672e-05
0.00010609
4.09735e-05
8.78156e-05
1.85485e-05
6.8286e-05
3.77367e-06
4.95324e-05
2.0208e-07
3.69674e-05
1.5009e-06
3.36891e-05
-4.78875e-06
4.46472e-05
-2.06295e-07
5.14306e-05
-2.63443e-06
4.21705e-05
-1.37156e-05
2.41313e-05
-2.49072e-05
-3.90138e-05
-5.44053e-06
8.76313e-06
0.00020082
1.79151e-05
0.000200211
2.79119e-05
0.000198943
3.89049e-05
0.000196477
5.12644e-05
0.000192466
6.43212e-05
0.000186428
7.78964e-05
0.000176942
9.18926e-05
0.00016583
0.000105448
0.000149939
0.000114944
0.000130557
0.000116371
0.000106159
0.000109511
7.9617e-05
9.60905e-05
5.43847e-05
7.97521e-05
3.48776e-05
6.30368e-05
2.048e-05
5.06745e-05
1.25556e-05
4.28104e-05
9.35664e-06
3.35713e-05
4.4421e-06
2.96551e-05
3.70156e-06
2.93674e-05
-2.35473e-06
2.94707e-05
-1.38274e-05
2.78531e-05
-2.32975e-05
-3.5477e-05
2.43081e-05
7.75517e-06
0.000193046
1.577e-05
0.000192178
2.44075e-05
0.000190288
3.37003e-05
0.000187167
4.38268e-05
0.000182324
5.42877e-05
0.000175952
6.48235e-05
0.000166392
7.50252e-05
0.000155615
8.41672e-05
0.000140785
9.08275e-05
0.000123885
9.34411e-05
0.000103534
9.06662e-05
8.23818e-05
8.31966e-05
6.18444e-05
7.31708e-05
4.48942e-05
6.23806e-05
3.12608e-05
5.30024e-05
2.19248e-05
4.73039e-05
1.5046e-05
4.48698e-05
6.86733e-06
4.66069e-05
1.95527e-06
4.83849e-05
-4.14128e-06
4.63118e-05
-1.17634e-05
4.20573e-05
-1.90511e-05
-2.72661e-05
3.38378e-05
7.05243e-06
0.000185976
1.42387e-05
0.000184974
2.17507e-05
0.000182759
2.95928e-05
0.000179308
3.7808e-05
0.000174092
4.61277e-05
0.000167617
5.42007e-05
0.000158304
6.17403e-05
0.000148062
6.80273e-05
0.000134485
7.2159e-05
0.000119742
7.29514e-05
0.00010273
6.99736e-05
8.53486e-05
6.37536e-05
6.80536e-05
5.58278e-05
5.28098e-05
4.77481e-05
3.93305e-05
4.10182e-05
2.8645e-05
3.59827e-05
2.0072e-05
3.10883e-05
1.17525e-05
2.82575e-05
4.77682e-06
2.70755e-05
-2.96821e-06
2.72395e-05
-1.19363e-05
2.77802e-05
-1.96004e-05
-2.73325e-05
2.78381e-05
5.85727e-06
0.0001801
1.18381e-05
0.000178976
1.80043e-05
0.000176575
2.431e-05
0.000172986
3.07177e-05
0.000167668
3.70147e-05
0.000161305
4.29435e-05
0.00015236
4.82546e-05
0.000142737
5.24529e-05
0.000130273
5.50832e-05
0.000117099
5.57154e-05
0.000102086
5.41966e-05
8.68561e-05
5.07353e-05
7.1504e-05
4.59376e-05
5.75969e-05
4.05948e-05
4.4663e-05
3.58568e-05
3.3373e-05
3.24249e-05
2.3494e-05
3.01722e-05
1.39955e-05
2.94827e-05
5.45671e-06
2.89314e-05
-2.42624e-06
2.75011e-05
-1.05152e-05
2.6175e-05
-1.82831e-05
-2.59622e-05
2.47959e-05
4.7258e-06
0.000175357
9.53014e-06
0.000174154
1.44023e-05
0.000171685
1.93241e-05
0.000168047
2.42094e-05
0.000162767
2.88837e-05
0.000156615
3.30933e-05
0.000148136
3.66799e-05
0.000139136
3.92008e-05
0.000127739
4.04419e-05
0.000115845
4.00947e-05
0.000102421
3.80054e-05
8.89335e-05
3.45006e-05
7.49972e-05
3.01844e-05
6.1902e-05
2.56252e-05
4.92113e-05
2.13789e-05
3.76088e-05
1.79459e-05
2.69167e-05
1.50899e-05
1.68417e-05
1.34919e-05
7.04487e-06
1.30055e-05
-1.94926e-06
1.34487e-05
-1.09677e-05
1.43784e-05
-1.92217e-05
-2.78653e-05
1.62728e-05
3.5854e-06
0.000171754
7.14772e-06
0.000170574
1.06728e-05
0.000168143
1.41483e-05
0.000164555
1.74968e-05
0.000159402
2.06428e-05
0.000153453
2.33905e-05
0.000145373
2.56201e-05
0.000136892
2.70775e-05
0.000126268
2.76118e-05
0.000115297
2.71111e-05
0.000102909
2.55697e-05
9.04627e-05
2.3118e-05
7.74371e-05
2.01552e-05
6.48536e-05
1.68831e-05
5.24724e-05
1.38262e-05
4.06551e-05
1.13879e-05
2.93445e-05
9.58409e-06
1.86354e-05
8.73701e-06
7.88205e-06
8.7362e-06
-1.95798e-06
9.12106e-06
-1.13619e-05
1.01054e-05
-2.02151e-05
-2.94686e-05
1.17e-05
2.39288e-06
0.000169345
4.76698e-06
0.000168184
7.04643e-06
0.000165848
9.22587e-06
0.00016236
1.12228e-05
0.00015739
1.30377e-05
0.000151623
1.44549e-05
0.000143941
1.53639e-05
0.000135969
1.5593e-05
0.000126025
1.49899e-05
0.000115887
1.36011e-05
0.000104284
1.14392e-05
9.26124e-05
8.62729e-06
8.0237e-05
5.5223e-06
6.79471e-05
2.37941e-06
5.5604e-05
-5.04197e-07
4.35279e-05
-2.76228e-06
3.1592e-05
-4.37699e-06
2.024e-05
-5.02361e-06
8.51876e-06
-4.42644e-06
-2.56464e-06
-2.66163e-06
-1.31359e-05
2.41142e-07
-2.31266e-05
-3.33026e-05
4.06666e-06
1.14533e-06
0.000168183
2.39283e-06
0.00016692
3.50725e-06
0.000164717
4.5029e-06
0.000161349
5.25568e-06
0.000156622
5.82732e-06
0.000151037
6.02595e-06
0.000143728
5.86887e-06
0.000136112
5.25276e-06
0.000126627
4.07869e-06
0.000117048
2.42627e-06
0.000105924
3.13635e-07
9.47128e-05
-2.14613e-06
8.2685e-05
-4.7651e-06
7.05546e-05
-7.42875e-06
5.82566e-05
-9.81497e-06
4.59035e-05
-1.16913e-05
3.3458e-05
-1.29158e-05
2.14545e-05
-1.33345e-05
8.92775e-06
-1.28175e-05
-3.09103e-06
-1.13704e-05
-1.45921e-05
-8.59107e-06
-2.59146e-05
-3.6996e-05
-4.90598e-06
-5.30568e-08
0.000168221
-4.68293e-08
0.000166899
-1.06913e-07
0.000164762
-2.46691e-07
0.000161473
-6.19676e-07
0.00015698
-1.20503e-06
0.000151608
-2.18261e-06
0.000144692
-3.4817e-06
0.000137398
-5.18987e-06
0.000128322
-7.33148e-06
0.000119177
-9.84151e-06
0.000108422
-1.27077e-05
9.75669e-05
-1.58e-05
8.57656e-05
-1.89601e-05
7.37035e-05
-2.18788e-05
6.11643e-05
-2.44566e-05
4.84707e-05
-2.64422e-05
3.54333e-05
-2.76454e-05
2.26479e-05
-2.8012e-05
9.28479e-06
-2.74384e-05
-3.67379e-06
-2.57672e-05
-1.62721e-05
-2.25981e-05
-2.90922e-05
-4.09333e-05
-1.86692e-05
-1.04783e-06
0.000169254
-2.22382e-06
0.00016806
-3.46889e-06
0.000165993
-4.78697e-06
0.000162777
-6.29108e-06
0.00015847
-7.96638e-06
0.000153269
-9.95866e-06
0.000146671
-1.21442e-05
0.00013957
-1.46481e-05
0.000130813
-1.73832e-05
0.0001219
-2.03974e-05
0.000111424
-2.35777e-05
0.000100736
-2.68611e-05
8.90377e-05
-3.01982e-05
7.70297e-05
-3.33674e-05
6.4323e-05
-3.62771e-05
5.13702e-05
-3.87316e-05
3.7878e-05
-4.0596e-05
2.4503e-05
-4.19271e-05
1.06067e-05
-4.25718e-05
-3.03801e-06
-4.21879e-05
-1.66647e-05
-4.1106e-05
-3.01825e-05
-4.22324e-05
-3.98148e-05
-2.10535e-06
0.000171346
-4.3365e-06
0.000170278
-6.67046e-06
0.000168314
-9.11582e-06
0.000165209
-1.17417e-05
0.000161083
-1.45564e-05
0.000156071
-1.76952e-05
0.000149797
-2.10317e-05
0.000142894
-2.46946e-05
0.000134464
-2.85265e-05
0.00012572
-3.26511e-05
0.000115537
-3.69236e-05
0.000104997
-4.12323e-05
9.33356e-05
-4.54547e-05
8.12415e-05
-4.95072e-05
6.83654e-05
-5.34927e-05
5.53461e-05
-5.71402e-05
4.15159e-05
-6.03743e-05
2.77278e-05
-6.30344e-05
1.32577e-05
-6.51819e-05
-8.99057e-07
-6.69745e-05
-1.48802e-05
-6.82851e-05
-2.88797e-05
-4.23186e-05
-6.82063e-05
-3.27067e-06
0.000174604
-6.61947e-06
0.000173614
-1.00562e-05
0.000171738
-1.36194e-05
0.00016876
-1.73332e-05
0.000164784
-2.11671e-05
0.000159893
-2.52306e-05
0.000153848
-2.94159e-05
0.000147068
-3.38974e-05
0.000138934
-3.84921e-05
0.000130303
-4.33442e-05
0.000120378
-4.83422e-05
0.000109984
-5.35537e-05
9.85369e-05
-5.89915e-05
8.66696e-05
-6.44973e-05
7.38615e-05
-6.99385e-05
6.07778e-05
-7.53631e-05
4.69312e-05
-8.04549e-05
3.28105e-05
-8.57837e-05
1.85782e-05
-9.109e-05
4.39922e-06
-9.48711e-05
-1.11068e-05
-9.60123e-05
-2.77457e-05
-4.47779e-05
-9.35601e-05
-4.42329e-06
0.000179016
-8.90122e-06
0.00017808
-1.34354e-05
0.00017626
-1.81084e-05
0.000173421
-2.29667e-05
0.000169631
-2.80085e-05
0.000164923
-3.33332e-05
0.000159162
-3.88485e-05
0.000152572
-4.47176e-05
0.000144792
-5.07878e-05
0.000136363
-5.71723e-05
0.000126753
-6.37251e-05
0.000116527
-7.0333e-05
0.000105135
-7.70029e-05
9.33299e-05
-8.39647e-05
8.08139e-05
-9.10213e-05
6.78252e-05
-9.82472e-05
5.41485e-05
-0.000106213
4.07681e-05
-0.000113689
2.60464e-05
-0.000118263
8.9661e-06
-0.000119402
-9.9752e-06
-0.00011653
-3.06253e-05
-5.13714e-05
-0.000109943
-5.66568e-06
0.00018467
-1.13794e-05
0.000183783
-1.71113e-05
0.000181981
-2.29372e-05
0.000179237
-2.88667e-05
0.00017555
-3.49117e-05
0.000170958
-4.11728e-05
0.000165412
-4.76186e-05
0.000159008
-5.43978e-05
0.000151562
-6.14259e-05
0.000143381
-6.88465e-05
0.000134164
-7.66511e-05
0.000124322
-8.49737e-05
0.000113448
-9.37079e-05
0.000102055
-0.00010268
8.97768e-05
-0.000112308
7.74456e-05
-0.000122798
6.46302e-05
-0.00013165
4.96134e-05
-0.000136197
3.05861e-05
-0.000136832
9.5934e-06
-0.000133747
-1.30675e-05
-0.000127316
-3.70621e-05
-6.01716e-05
-0.000118522
-6.85353e-06
0.000191514
-1.37677e-05
0.000190687
-2.07324e-05
0.000188936
-2.7852e-05
0.000186346
-3.51615e-05
0.00018285
-4.26922e-05
0.000178479
-5.05242e-05
0.000173235
-5.86288e-05
0.000167103
-6.71017e-05
0.000160025
-7.58376e-05
0.000152108
-8.48299e-05
0.000143147
-9.39678e-05
0.000133451
-0.000103352
0.000122824
-0.000113448
0.000112143
-0.000124612
0.000100933
-0.000136446
8.92716e-05
-0.000146002
7.41787e-05
-0.000150202
5.3807e-05
-0.000150648
3.10244e-05
-0.000147341
6.28004e-06
-0.000140699
-1.97153e-05
-0.000132452
-4.53162e-05
-6.97987e-05
-0.000122831
-8.12601e-06
0.000199631
-1.62821e-05
0.000198834
-2.44383e-05
0.000197083
-3.26725e-05
0.000194572
-4.10087e-05
0.000191177
-4.95207e-05
0.000186982
-5.8283e-05
0.000181988
-6.73472e-05
0.000176158
-7.68163e-05
0.000169486
-8.67243e-05
0.000162008
-9.71731e-05
0.000153588
-0.000108129
0.000144399
-0.00011975
0.000134437
-0.000132139
0.000124525
-0.000145121
0.000113908
-0.000155273
9.94172e-05
-0.000159095
7.79942e-05
-0.000159429
5.41335e-05
-0.000156601
2.81904e-05
-0.000150189
-1.37574e-07
-0.000142443
-2.74682e-05
-0.000134
-5.37647e-05
-7.84458e-05
-0.000125358
-9.46181e-06
0.000209084
-1.89881e-05
0.000208352
-2.86231e-05
0.00020671
-3.84305e-05
0.000204371
-4.84348e-05
0.000201173
-5.86622e-05
0.000197202
-6.91161e-05
0.000192434
-7.9764e-05
0.000186799
-9.06586e-05
0.000180373
-0.000101817
0.000173159
-0.000113546
0.000165308
-0.000126134
0.00015698
-0.000139753
0.00014805
-0.000153667
0.000138433
-0.000164287
0.000124521
-0.000167704
0.000102828
-0.000167434
7.77174e-05
-0.000164398
5.10921e-05
-0.000157802
2.15881e-05
-0.000150598
-7.34674e-06
-0.000142922
-3.51497e-05
-0.000134761
-6.19314e-05
-8.67856e-05
-0.000126426
-1.05332e-05
0.00021961
-2.10902e-05
0.000218902
-3.17003e-05
0.000217313
-4.2427e-05
0.00021509
-5.33181e-05
0.000212057
-6.44467e-05
0.000208323
-7.58329e-05
0.000203814
-8.75102e-05
0.000198469
-9.94705e-05
0.000192326
-0.000111744
0.000185426
-0.000124475
0.000178033
-0.00013824
0.000170738
-0.000153094
0.000162898
-0.000165363
0.000150696
-0.000169558
0.000128711
-0.000169154
0.000102418
-0.000167043
7.55999e-05
-0.000161447
4.54907e-05
-0.00015489
1.50257e-05
-0.000147767
-1.44743e-05
-0.000140029
-4.28929e-05
-0.000132022
-6.99427e-05
-9.51569e-05
-0.000123656
-1.2187e-05
0.000231791
-2.43838e-05
0.000231092
-3.66787e-05
0.000229601
-4.90934e-05
0.000227499
-6.16567e-05
0.000224614
-7.44009e-05
0.000221061
-8.73293e-05
0.000216736
-0.000100485
0.000211618
-0.000113943
0.000205778
-0.0001277
0.000199178
-0.000141865
0.000192191
-0.000156342
0.000185211
-0.000168972
0.000175522
-0.000173991
0.000155709
-0.000173138
0.000127853
-0.000170941
0.000100217
-0.000165435
7.00879e-05
-0.000158167
3.82181e-05
-0.000150707
7.56111e-06
-0.000142795
-2.2391e-05
-0.000134549
-5.11434e-05
-0.000126133
-7.83627e-05
-0.000103737
-0.000117557
-1.27321e-05
0.000244517
-2.55371e-05
0.000243892
-3.85054e-05
0.000242564
-5.15969e-05
0.000240585
-6.48056e-05
0.000237817
-7.81638e-05
0.000234414
-9.17019e-05
0.000230268
-0.00010552
0.000225431
-0.000119821
0.000220073
-0.000134737
0.000214089
-0.000150233
0.000207682
-0.000164761
0.000199734
-0.000172196
0.000182953
-0.000171728
0.000155236
-0.000170055
0.000126175
-0.000166165
9.63213e-05
-0.000159333
6.32514e-05
-0.000151994
3.08751e-05
-0.000144016
-4.21809e-07
-0.000135815
-3.05961e-05
-0.000127498
-5.94639e-05
-0.000119094
-8.67704e-05
-0.000112208
-0.000110628
-1.49031e-05
0.000259416
-2.98095e-05
0.000258793
-4.46305e-05
0.00025738
-5.93328e-05
0.000255282
-7.40719e-05
0.000252552
-8.88497e-05
0.000249187
-0.000103587
0.000245001
-0.000118427
0.000240266
-0.000133622
0.000235264
-0.000148961
0.000229424
-0.000163693
0.000222411
-0.00017313
0.000209166
-0.000173844
0.000183663
-0.000171185
0.000152573
-0.000167122
0.000122108
-0.000159878
8.90736e-05
-0.000151704
5.50732e-05
-0.000143578
2.27452e-05
-0.000135159
-8.84396e-06
-0.000126714
-3.90445e-05
-0.00011822
-6.79617e-05
-0.000109737
-9.52568e-05
-0.000120784
-0.000101165
-1.49543e-05
0.000274366
-2.99365e-05
0.000273772
-4.49461e-05
0.000272386
-6.00446e-05
0.000270377
-7.52369e-05
0.00026774
-9.0474e-05
0.00026442
-0.000105788
0.000260311
-0.000121343
0.000255818
-0.000137159
0.000251077
-0.000152993
0.000245254
-0.00016639
0.000235804
-0.000170938
0.00021371
-0.000168819
0.000181541
-0.000165687
0.000149437
-0.00015985
0.000116267
-0.000152049
8.12692e-05
-0.0001441
4.71212e-05
-0.000135831
1.44732e-05
-0.00012743
-1.72481e-05
-0.000118972
-4.75064e-05
-0.000110562
-7.63743e-05
-0.00010222
-0.000103602
-0.000129159
-9.38486e-05
-1.72877e-05
0.000291651
-3.45172e-05
0.000290998
-5.16698e-05
0.000289535
-6.86697e-05
0.000287374
-8.54248e-05
0.000284492
-0.00010207
0.000281062
-0.000118634
0.000276872
-0.000135095
0.000272276
-0.000150853
0.000266832
-0.000164641
0.00025904
-0.000171522
0.000242683
-0.000170425
0.00021261
-0.000166177
0.000177289
-0.000160132
0.000143389
-0.000151548