/*--------------------------------*- C++ -*----------------------------------*\
| =========                 |                                                 |
| \\      /  F ield         | OpenFOAM: The Open Source CFD Toolbox           |
|  \\    /   O peration     | Version:  2012                                  |
|   \\  /    A nd           | Website:  www.openfoam.com                      |
|    \\/     M anipulation  |                                                 |
\*---------------------------------------------------------------------------*/
FoamFile
{
    version     2.0;
    format      ascii;
    class       volScalarField;
    location    "0.8";
    object      rho;
}
// * * * * * * * * * * * * * * * * * * * * * * * * * * * * * * * * * * * * * //

dimensions      [1 -3 0 0 0 0 0];


internalField   nonuniform List<scalar> 
2268
(
1000.05
1000.05
1000.05
1000.05
1000.05
1000.05
1000.05
1000.05
1000.05
1000.05
1000.05
1000.05
1000.05
1000.05
1000.05
1000.05
1000.05
1000.05
1000.05
1000.05
1000.05
1000.03
999.839
1000.05
1000.05
1000.05
1000.05
1000.05
1000.05
1000.05
1000.05
1000.05
1000.05
1000.05
1000.05
1000.05
1000.05
1000.05
1000.05
1000.05
1000.05
1000.05
1000.05
1000.05
999.979
999.765
1000.05
1000.05
1000.05
1000.05
1000.05
1000.05
1000.05
1000.05
1000.05
1000.05
1000.05
1000.05
1000.05
1000.05
1000.05
1000.05
1000.05
1000.05
1000.05
1000.05
1000.05
1000.03
999.765
1000.05
1000.05
1000.05
1000.05
1000.05
1000.05
1000.05
1000.05
1000.05
1000.05
1000.05
1000.05
1000.05
1000.05
1000.05
1000.05
1000.05
1000.05
1000.05
1000.05
1000.05
1000.05
999.796
1000.05
1000.05
1000.05
1000.05
1000.05
1000.05
1000.05
1000.05
1000.05
1000.05
1000.05
1000.05
1000.05
1000.05
1000.05
1000.05
1000.05
1000.05
1000.05
1000.05
1000.05
1000.05
1000.02
1000.05
1000.05
1000.05
1000.05
1000.05
1000.05
1000.05
1000.05
1000.05
1000.05
1000.05
1000.05
1000.05
1000.05
1000.05
1000.05
1000.05
1000.05
1000.05
1000.05
1000.05
1000.05
1000.05
1000.05
1000.05
1000.05
1000.05
1000.05
1000.05
1000.05
1000.05
1000.05
1000.05
1000.05
1000.05
1000.05
1000.05
1000.05
1000.05
1000.05
1000.05
1000.05
1000.01
1000.01
1000.04
1000.05
1000.05
1000.05
1000.05
1000.05
1000.05
1000.05
1000.05
1000.05
1000.05
1000.05
1000.05
1000.05
1000.05
1000.05
1000.05
1000.05
1000.05
1000.05
1000.05
999.846
995.389
982.461
1000.05
922.11
922.488
922.489
922.488
862.621
788.797
803.135
842.971
842.969
842.955
842.398
818.471
797.093
791.669
804.431
849.134
874.896
908.736
887.345
922.109
922.489
922.488
855.787
785.074
788.795
842.985
842.983
831.584
625.999
451.933
355.671
293.634
262.274
274.793
479.365
800.027
990.415
990.412
922.443
922.488
854.567
765.729
801.521
657.905
668.668
735.336
393.696
153.951
57.9179
25.4276
15.4601
15.0084
15.0072
15.0121
387.247
905.997
990.415
922.443
874.274
517.524
443.796
867.986
963.383
398.303
79.5988
20.2439
5.46176
3.42941
3.5362
14.1322
86.2674
216.971
485.689
755.369
805.391
987.879
922.444
740.245
22.1464
73.1406
457.043
967.984
828.034
74.1669
1.88814
1.88805
2.12309
30.2273
392.89
720.071
860.357
982.235
991.056
991.056
990.543
918.173
499.752
2.80379
2.80399
172.178
890.786
979.328
621.252
69.9343
1.88822
89.5898
557.671
907.088
972.467
972.463
966.852
986.517
991.056
988.811
912.425
384.33
6.86495
2.80415
398.527
671.034
979.327
977.434
684.703
422.371
772.186
941.177
941.175
760.908
459.205
460.174
653.345
940.922
948.529
920.262
540.212
2.17717
78.449
552.297
514.347
753.337
977.435
975.567
969.608
969.608
902.832
608.163
302.747
227.45
227.284
389.57
882.009
634.917
932.668
946.626
972.681
998.946
1000.05
1000.05
1000.05
1000.05
1000.05
1000.05
1000.05
1000.05
1000.05
1000.05
1000.05
1000.05
1000.04
1000.04
1000.04
999.199
950.773
677.421
818.53
281.373
315.696
380.946
478.291
628.111
772.785
876.111
938.788
970.978
984.38
988.65
989.073
987.386
991.135
992.797
985.602
980.342
991.29
998.387
994.477
750.558
398.251
398.137
5.60055
7.47016
12.0554
22.6245
54.6513
133.305
244.049
376.71
485.34
517.183
508.616
513.155
580.643
638.404
674.714
738.631
846.653
953.306
993.49
979.285
633.316
398.113
758.409
1.29396
1.2954
1.30925
1.44904
2.61875
11.2792
68.332
130.701
135.959
134.951
135.143
244.981
421.273
371.09
383.378
628.461
783.833
865.719
911.807
923.018
709.298
438.042
389.594
1.29334
1.29336
1.29351
1.29377
1.69663
10.484
13.5101
7.42345
68.8421
431.736
510.134
510.391
339.174
117.596
83.1069
105.756
142.042
204.039
268.194
336.296
433.083
457.187
396.18
1.29331
1.29331
1.29332
1.29352
2.34173
5.41901
2.71113
2.45917
23.5036
270.534
422.462
188.073
1.29316
1.29315
1.29317
1.29319
1.29321
1.29326
1.29327
1.29327
2.14317
157.344
237.59
1.29328
1.29328
1.29329
1.31309
1.73835
1.68608
1.36923
2.4592
3.13946
1.2931
1.2931
1.29304
5.3729
86.4478
140.571
104.576
9.34798
1.40082
1.3025
1.29332
1.2933
1.29328
1.29324
1.29326
1.29326
1.29327
1.29785
1.32618
1.29674
1.30416
1.40143
1.29801
1.2935
1.29326
1.29328
2.92404
185.642
478.107
478.244
244.004
42.5264
1.29444
1.29445
1.29797
1.29928
1.2952
1.29325
1.29325
1.29326
1.294
1.29339
1.29325
1.29354
1.29446
1.29866
1.2989
1.2951
1.29491
1.70251
34.8566
296.799
470.933
470.973
401.17
29.5327
1.66635
1.45224
1.30701
1.29547
1.29324
1.29324
1.29324
1.29324
1.29325
1.29325
1.29322
1.29316
1.29319
1.29777
1.29588
1.30081
1.30329
1.29316
1.29315
25.9296
241.864
340.233
340.231
229.381
21.7112
10.5426
1.7279
1.29323
1.29323
1.29323
1.29323
1.29323
1.29324
1.29323
1.2932
1.29317
1.29342
1.29338
1.29311
1.29313
1.29317
1.29319
1.2932
1.29316
19.4785
289.132
412.409
412.485
222.325
106.714
1.29322
1.29322
1.29322
1.29322
1.29322
1.29322
1.29323
1.29321
1.29322
1.29319
1.29317
1.29322
1.29383
1.2936
1.29321
1.29321
1.29326
1.29322
1.2932
1.29316
1.51214
145.198
522.556
1.29322
1.29322
1.29322
1.29322
1.29322
1.29321
1.29322
1.29322
1.29322
1.2932
1.29349
1.29447
1.29453
1.29426
1.29326
1.29321
1.29321
1.29323
1.29343
1.2936
1.2932
1.29319
1.29318
1.29322
1.29322
1.29322
1.29321
1.29321
1.29321
1.29321
1.29321
1.29321
1.29321
1.29403
1.29454
1.29454
1.29408
1.29324
1.29321
1.29321
1.29322
1.29322
1.29336
1.2935
1.29344
1.29501
1.29321
1.29321
1.29321
1.29321
1.29321
1.29321
1.29321
1.29321
1.29321
1.29322
1.29346
1.29394
1.2938
1.29335
1.29322
1.29321
1.29321
1.29321
1.29322
1.29322
1.29323
1.29323
1.29323
1.29321
1.29321
1.29321
1.29321
1.29321
1.29321
1.29321
1.29321
1.29321
1.29321
1.29321
1.29321
1.29321
1.29321
1.29321
1.29321
1.29321
1.29321
1.29321
1.29321
1.29321
1.29322
1.29322
1.29321
1.29321
1.29321
1.29321
1.29321
1.29321
1.29321
1.29321
1.29321
1.29321
1.29321
1.29321
1.29321
1.29321
1.29321
1.29321
1.29321
1.29321
1.29321
1.29321
1.29322
1.29322
1.29322
1.29321
1.29321
1.29321
1.29321
1.29321
1.2932
1.2932
1.2932
1.2932
1.2932
1.2932
1.2932
1.29321
1.29321
1.29321
1.29321
1.29321
1.29321
1.29321
1.29321
1.29321
1.29321
1.29321
1.2932
1.2932
1.2932
1.2932
1.2932
1.2932
1.2932
1.2932
1.2932
1.2932
1.2932
1.2932
1.2932
1.2932
1.29321
1.29321
1.29321
1.29321
1.29321
1.29321
1.29321
1.29321
1.29321
1.2932
1.2932
1.2932
1.2932
1.2932
1.2932
1.2932
1.2932
1.2932
1.2932
1.2932
1.2932
1.2932
1.2932
1.2932
1.2932
1.2932
1.29321
1.29321
1.29321
1.29321
1.29321
1.29321
1.2932
1.2932
1.2932
1.2932
1.2932
1.2932
1.2932
1.2932
1.2932
1.2932
1.2932
1.2932
1.2932
1.2932
1.2932
1.2932
1.2932
1.2932
1.29321
1.29321
1.29321
1.29321
1.29321
1.29319
1.29319
1.29319
1.29319
1.29319
1.29319
1.29319
1.2932
1.2932
1.2932
1.2932
1.2932
1.2932
1.2932
1.2932
1.2932
1.2932
1.2932
1.2932
1.2932
1.2932
1.29319
1.29319
1.29319
1.29319
1.29319
1.29319
1.29319
1.29319
1.29319
1.29319
1.29319
1.29319
1.29319
1.29319
1.29319
1.29319
1.29319
1.29319
1.29319
1.29319
1.29319
1.29319
1.29317
1.29316
1.29316
1.29319
1.29319
1.29319
1.29319
1.29319
1.29319
1.29319
1.29319
1.29319
1.29319
1.29319
1.29319
1.29319
1.29319
1.29318
1.29318
1.29318
1.29317
1.29316
1.29314
1.29314
1.29314
1.29314
1.29318
1.29318
1.29318
1.29318
1.29318
1.29318
1.29318
1.29318
1.29318
1.29318
1.29318
1.29318
1.29318
1.29317
1.29317
1.29316
1.29315
1.29314
1.29313
1.29313
1.29314
1.29317
1.2932
1.29317
1.29317
1.29317
1.29317
1.29317
1.29317
1.29317
1.29317
1.29317
1.29317
1.29317
1.29317
1.29316
1.29315
1.29314
1.29313
1.29312
1.29312
1.29313
1.29319
1.2933
1.2933
1.29329
1.29316
1.29316
1.29316
1.29316
1.29316
1.29316
1.29316
1.29316
1.29316
1.29316
1.29315
1.29315
1.29314
1.29313
1.29312
1.29312
1.29312
1.29313
1.29339
1.29349
1.29346
1.29314
1.29309
1.29315
1.29315
1.29315
1.29315
1.29315
1.29315
1.29315
1.29314
1.29314
1.29314
1.29313
1.29312
1.29311
1.29311
1.29312
1.29312
1.29332
1.29375
1.29369
1.2932
1.29309
1.29308
1.29308
1.29313
1.29313
1.29313
1.29313
1.29313
1.29313
1.29313
1.29313
1.29312
1.29311
1.29311
1.29311
1.29311
1.29311
1.29312
1.29377
1.29395
1.29376
1.2931
1.29309
1.29308
1.29307
1.29307
1.29312
1.29312
1.29312
1.29312
1.29312
1.29311
1.29311
1.29311
1.29311
1.2931
1.2931
1.2931
1.29311
1.29318
1.29396
1.29408
1.29389
1.29309
1.29308
1.29308
1.29307
1.29307
1.29306
1.29311
1.29311
1.2931
1.2931
1.2931
1.2931
1.2931
1.2931
1.2931
1.2931
1.2931
1.2931
1.29312
1.29388
1.29436
1.29387
1.29309
1.29308
1.29308
1.29307
1.29307
1.29306
1.29306
1.2931
1.2931
1.29309
1.29309
1.29309
1.29309
1.29309
1.29309
1.29309
1.29309
1.2931
1.2931
1.29344
1.29465
1.2943
1.29309
1.29308
1.29307
1.29307
1.29307
1.29306
1.29306
1.29306
1.29309
1.29309
1.29309
1.29309
1.29309
1.29309
1.29309
1.29309
1.29309
1.29309
1.2931
1.29324
1.29439
1.29464
1.29347
1.29308
1.29307
1.29307
1.29307
1.29307
1.29307
1.29306
1.29306
1.29308
1.29308
1.29308
1.29308
1.29308
1.29308
1.29308
1.29308
1.29309
1.2931
1.29315
1.29383
1.29438
1.29393
1.29308
1.29307
1.29307
1.29307
1.29307
1.29307
1.29307
1.29306
1.29306
1.29308
1.29308
1.29308
1.29308
1.29308
1.29308
1.29308
1.29308
1.29309
1.2931
1.29357
1.29471
1.29377
1.29308
1.29307
1.29307
1.29307
1.29307
1.29307
1.29307
1.29307
1.29307
1.29306
1.29307
1.29307
1.29307
1.29307
1.29307
1.29307
1.29308
1.29308
1.29309
1.29313
1.29416
1.2947
1.29321
1.29307
1.29307
1.29307
1.29307
1.29307
1.29307
1.29307
1.29307
1.29307
1.29307
1.29307
1.29307
1.29307
1.29307
1.29307
1.29307
1.29308
1.29308
1.29309
1.29343
1.29465
1.29398
1.29307
1.29307
1.29307
1.29307
1.29307
1.29307
1.29307
1.29307
1.29307
1.29307
1.29307
1.29306
1.29306
1.29306
1.29307
1.29307
1.29307
1.29308
1.29308
1.29328
1.29444
1.29464
1.29313
1.29306
1.29306
1.29306
1.29307
1.29307
1.29307
1.29307
1.29307
1.29307
1.29307
1.29307
1.29306
1.29306
1.29306
1.29306
1.29306
1.29307
1.29307
1.29308
1.29345
1.29449
1.29439
1.29306
1.29306
1.29306
1.29307
1.29307
1.29307
1.29308
1.29308
1.29308
1.29308
1.29307
1.29307
1.29306
1.29306
1.29306
1.29306
1.29306
1.29307
1.29308
1.29307
1.29338
1.29448
1.29341
1.29305
1.29305
1.29306
1.29306
1.29307
1.29307
1.29308
1.29308
1.29308
1.29308
1.29307
1.29307
1.29305
1.29305
1.29305
1.29305
1.29306
1.29306
1.29306
1.29306
1.29318
1.29414
1.29304
1.29305
1.29305
1.29306
1.29307
1.29308
1.29308
1.29308
1.29308
1.29308
1.29308
1.29308
1.29308
1.29306
1.29306
1.29306
1.29306
1.29307
1.29307
1.2931
1.29383
1.29461
1.29321
1.29304
1.29304
1.29305
1.29306
1.29307
1.29308
1.29308
1.29308
1.29308
1.29308
1.29308
1.29307
1.29307
641.011
705.769
836.794
920.868
639.306
861.875
920.868
920.867
763.192
752.064
599.97
607.247
388.344
283.623
272.029
272.008
222.598
388.176
607.935
607.885
222.598
194.045
256.572
379.181
1.30022
2.77095
3.60262
11.5338
1.29315
1.29312
1.35129
1.3941
1.29452
1.2944
1.29436
1.29434
2.83415
1.93928
1.41984
1.39224
231.601
142.834
73.2529
75.2745
543.341
543.248
391.541
272.58
1.29318
1.29319
1.2932
1.29321
1.29584
1.29562
1.29321
1.29329
1.29341
1.29331
1.29323
1.29388
1.29322
1.29322
1.29322
1.29322
1.29322
1.29322
1.29322
1.29322
1.29321
1.29322
1.29322
1.29322
1.29322
1.29322
1.29322
1.29322
1.29321
1.29321
1.29321
1.29321
1.29321
1.29321
1.29321
1.2932
1.29318
1.29318
1.29318
1.29318
1.29315
1.29315
1.29316
1.29316
1.29315
1.29317
1.29319
1.29322
1.29325
1.29327
1.29327
1.29326
1.29327
1.29317
1.29312
1.2931
1.29309
1.29308
1.29308
1.29308
1.29307
1.29307
1.29307
1.29306
1.29307
1.29306
1.29306
1.29306
1.29306
1.29306
1.29305
1.29305
1.29306
1.29305
1.29305
1.29305
1.29306
1.29305
1.29305
1.29305
1.29306
1.29306
1.29305
1.29305
1.29306
1.29306
1.29305
1.29305
1.29306
1.29306
1.29306
1.29305
1.29306
1.29306
1.29306
1.29305
1.29307
1.29306
1.29306
1.29306
1.29307
1.29306
1.29306
1.29306
1.29307
1.29307
1.29307
1.29306
1.29307
1.29307
1.29307
1.29306
1.29307
1.29307
1.29307
1.29307
1.29307
1.29306
1.29306
1.29306
920.867
385.56
1.74159
228.019
552.392
295.388
177.203
530.642
917.91
973.952
853.591
627.594
418.203
228.001
227.281
255.261
556.042
873.373
188.972
831.482
195.534
413.937
413.936
176.903
1.33332
41.8249
265.205
419.574
419.614
503.916
901.72
963.421
757.75
443.275
711.035
708.214
335.871
189.091
518.344
322.503
421.823
241.253
1.33284
1.33335
3.66044
53.4498
498.226
914.799
990.171
990.171
990.171
970.748
450.347
230.2
281.443
160.45
690.992
272.034
385.395
318.133
11.1248
3.42593
40.4973
91.6166
36.6172
96.0788
396.749
827.418
990.171
989.747
949.591
431.782
60.1319
60.024
160.484
988.605
586.761
278.508
22.4428
1.30312
11.8073
288.722
608.414
368.207
10.2152
21.5556
305.324
688.049
727.614
949.592
930.548
567.352
395.956
633.914
988.597
447.104
35.2452
1.30276
1.30302
12.0167
313.838
697.272
622.021
3.44131
3.4131
68.565
97.1388
114.759
514.386
881.601
981.183
981.19
961.717
838.959
29.2352
3.31436
1.30281
1.30281
2.91716
167.161
697.272
697.272
432.331
19.8468
89.5223
17.8025
1.30306
2.91659
233.772
448.494
492.389
303.103
145.254
1.43288
1.45061
1.31373
1.30249
1.4349
112.232
683.495
676.533
470.991
95.8801
95.651
15.4279
1.30305
1.30289
1.3029
1.30294
1.30298
1.30304
1.30307
1.29705
1.30324
1.31281
1.29806
1.6396
132.041
489.197
157.525
65.9619
136.199
1.29613
2.46101
1.31975
1.34244
1.37726
1.40161
1.70128
3.11487
3.91147
1.41923
1.32136
1.29322
1.29334
11.9756
268.412
113.838
1.29361
1.29365
1.29477
1.29539
1.30362
1.3258
1.51961
1.69964
1.80164
2.81571
4.85084
4.85968
117.181
90.8499
50.5323
24.7398
262.673
301.046
7.93246
1.29361
1.29649
1.30921
1.32235
1.30771
1.29613
1.2932
1.32655
1.50705
1.40938
1.2969
1.94462
635.032
635.134
359.539
150.615
75.8702
29.6191
1.55549
1.6894
1.90245
1.61583
1.29531
1.2953
1.29322
1.29321
1.29322
1.29322
1.29323
1.29689
1.29664
1.29322
1.29323
1.29322
1.29318
1.29316
1.29324
2.21674
2.21695
1.79318
1.29322
1.30235
1.29466
1.29927
1.29939
1.2943
1.29323
1.29323
1.33065
1.45874
1.29328
1.29325
1.29332
1.29317
1.29327
1.68768
2.21691
1.84029
1.29319
1.29318
1.29467
1.30703
1.32481
1.32365
1.29605
1.29323
1.29323
1.32773
44.5206
1.29396
1.29348
1.29379
1.29364
1.29602
1.4148
1.56111
1.34783
1.2957
1.29308
1.29496
1.32126
1.3248
1.32443
1.29634
1.29323
1.29323
1.29473
106.248
1.29322
1.29322
1.29362
1.29394
1.29372
1.29498
1.29454
1.29452
1.29396
1.29309
1.29312
1.32428
1.3248
1.30031
1.29345
1.29323
1.29323
1.31047
106.25
1.29322
1.29322
1.29323
1.29345
1.29319
1.29421
1.2956
1.29528
1.29364
1.29312
1.29536
1.32153
1.31691
1.29576
1.29323
1.29323
1.29323
1.29704
106.249
1.29322
1.29322
1.29322
1.29322
1.29321
1.29329
1.29567
1.29499
1.29326
1.29813
1.30271
1.29938
1.29321
1.29322
1.29323
1.29323
1.29323
1.35693
72.2516
1.29322
1.29322
1.29322
1.29322
1.29322
1.29323
1.29344
1.29338
1.29333
1.2932
1.29342
1.29321
1.29322
1.29322
1.29323
1.29322
1.29323
1.49103
1.29895
1.29321
1.29321
1.29322
1.29322
1.29322
1.29322
1.29322
1.29322
1.29322
1.29321
1.29322
1.29322
1.29322
1.29322
1.29323
1.29323
1.29322
1.42295
1.29888
1.2932
1.2932
1.2932
1.29321
1.29321
1.29321
1.29321
1.29321
1.29321
1.29321
1.29321
1.29321
1.29322
1.29322
1.29322
1.29325
1.29322
1.33868
1.29916
1.29317
1.29317
1.29317
1.29318
1.29318
1.29318
1.29318
1.29318
1.29318
1.29318
1.29319
1.29319
1.2932
1.29321
1.29322
1.29331
1.29322
1.30067
1.2955
1.29316
1.29318
1.29319
1.29317
1.29316
1.29315
1.29315
1.29315
1.29316
1.29316
1.29316
1.29317
1.29318
1.29319
1.29321
1.29331
1.29331
1.29323
1.29324
1.29323
1.29322
1.29318
1.29314
1.29312
1.29312
1.29312
1.29312
1.29313
1.29314
1.29314
1.29315
1.29316
1.29317
1.29319
1.29324
1.29363
1.29328
1.29323
1.29322
1.29314
1.2931
1.29309
1.29308
1.29308
1.29307
1.29307
1.29308
1.29323
1.29339
1.29331
1.29317
1.29316
1.29318
1.29321
1.29363
1.29353
1.29324
1.29309
1.29308
1.29307
1.29306
1.29305
1.29304
1.29304
1.29303
1.29304
1.29329
1.29371
1.29374
1.29342
1.29316
1.29317
1.29318
1.2936
1.29371
1.29352
1.29307
1.29306
1.29305
1.29304
1.29303
1.29302
1.29301
1.293
1.29301
1.29304
1.29343
1.2937
1.29374
1.29333
1.29316
1.29317
1.29335
1.29359
1.29454
1.29306
1.29305
1.29304
1.29302
1.29301
1.293
1.29299
1.29298
1.29298
1.29298
1.29299
1.29335
1.2937
1.2936
1.29318
1.29316
1.2934
1.29341
1.29614
1.29305
1.29304
1.29303
1.29302
1.293
1.29299
1.29298
1.29297
1.29296
1.29296
1.29297
1.29299
1.29346
1.29358
1.29323
1.29315
1.29319
1.29445
1.29779
1.29304
1.29303
1.29302
1.29301
1.293
1.29298
1.29297
1.29296
1.29294
1.29294
1.29297
1.29297
1.293
1.29321
1.2932
1.29314
1.29318
1.30272
1.30311
1.29304
1.29303
1.29302
1.293
1.29299
1.29298
1.29297
1.29295
1.29293
1.29292
1.29295
1.29297
1.29298
1.29302
1.29308
1.29312
1.29323
1.31023
1.31023
1.29304
1.29303
1.29301
1.293
1.29299
1.29297
1.29296
1.29294
1.29292
1.29291
1.29291
1.29343
1.29309
1.29316
1.2931
1.2931
1.29339
1.31022
1.30748
1.29304
1.29303
1.29302
1.293
1.29299
1.29297
1.29296
1.29294
1.29292
1.2929
1.29289
1.29365
1.29368
1.29358
1.29324
1.29308
1.29315
1.30695
1.2978
1.29304
1.29303
1.29302
1.293
1.29299
1.29297
1.29295
1.29293
1.29291
1.29289
1.29287
1.29319
1.29813
1.29509
1.29356
1.29306
1.29316
1.29524
1.29348
1.29305
1.29304
1.29302
1.29301
1.29299
1.29297
1.29295
1.29293
1.29291
1.29288
1.29286
1.29286
1.312
1.30856
1.29525
1.2931
1.29315
1.29316
1.29316
1.29305
1.29304
1.29302
1.29301
1.29299
1.29297
1.29295
1.29293
1.2929
1.29287
1.29284
1.29284
1.30735
1.34422
1.30753
1.29328
1.29311
1.29315
1.29315
1.29305
1.29304
1.29303
1.29301
1.29299
1.29297
1.29295
1.29293
1.2929
1.29286
1.29283
1.29282
1.29284
1.3917
1.33363
1.2935
1.29308
1.29314
1.29314
1.29305
1.29304
1.29303
1.29301
1.29299
1.29297
1.29295
1.29292
1.29289
1.29285
1.29282
1.2928
1.29282
1.44014
1.36326
1.29336
1.29307
1.29313
1.29313
1.29306
1.29305
1.29303
1.29301
1.293
1.29297
1.29295
1.29292
1.29289
1.29285
1.29281
1.29278
1.29863
1.44263
1.3675
1.29324
1.29306
1.29312
1.29312
1.29306
1.29305
1.29303
1.29301
1.29299
1.29297
1.29295
1.29292
1.29288
1.29284
1.2928
1.29277
1.29351
1.44264
1.38708
1.29504
1.29306
1.29312
1.29311
1.29306
1.29305
1.29303
1.29302
1.293
1.29297
1.29295
1.29292
1.29288
1.29284
1.29279
1.29276
1.29278
1.41685
1.41866
1.30246
1.29305
1.29311
1.29707
1.29305
1.29304
1.29303
1.29301
1.29299
1.29296
1.29294
1.29291
1.29287
1.29283
1.29278
1.29275
1.29277
1.34264
1.37481
1.29919
1.29306
1.29424
1.30112
)
;

boundaryField
{
    leftWall
    {
        type            calculated;
        value           nonuniform List<scalar> 
50
(
1000.05
1000.05
1000.05
1000.05
1000.05
1000.05
1000.05
1000.05
932.668
281.373
5.60055
1.29396
1.29334
1.29331
1.29328
1.29326
1.29325
1.29324
1.29323
1.29322
1.29322
1.29322
1.29321
1.29321
1.29321
1.29321
1.2932
1.2932
1.2932
1.29319
1.29319
1.29319
1.29318
1.29317
1.29316
1.29315
1.29313
1.29312
1.29311
1.2931
1.29309
1.29308
1.29308
1.29307
1.29307
1.29306
1.29306
1.29306
1.29305
1.29306
)
;
    }
    rightWall
    {
        type            calculated;
        value           nonuniform List<scalar> 
50
(
887.345
990.412
990.415
987.879
990.543
988.811
948.529
634.917
188.972
189.091
690.992
988.605
988.597
838.959
145.254
1.30307
3.91147
4.85968
1.94462
1.29664
1.45874
44.5206
106.248
106.25
106.249
72.2516
1.29895
1.29888
1.29916
1.2955
1.29324
1.29323
1.29324
1.29352
1.29454
1.29614
1.29779
1.30311
1.31023
1.30748
1.2978
1.29348
1.29316
1.29315
1.29314
1.29313
1.29312
1.29311
1.29707
1.30112
)
;
    }
    lowerWall
    {
        type            calculated;
        value           nonuniform List<scalar> 
62
(
1000.05
1000.05
1000.05
1000.05
1000.05
1000.05
1000.05
1000.05
1000.05
1000.05
1000.05
1000.05
1000.05
1000.05
1000.05
1000.05
1000.05
1000.05
1000.05
1000.05
1000.05
1000.03
999.839
999.839
999.765
999.765
999.796
1000.02
1000.05
1000.05
1000.05
641.012
705.769
836.794
920.868
922.11
922.109
922.443
922.443
922.444
918.173
912.425
920.262
922.11
922.488
922.489
922.488
862.621
788.797
803.135
842.971
842.969
842.955
842.398
818.471
797.093
791.669
804.431
849.134
874.896
908.736
887.345
)
;
    }
    atmosphere
    {
        type            calculated;
        value           nonuniform List<scalar> 
46
(
1.29314
1.29314
1.29314
1.29314
1.29315
1.29316
1.29319
1.29392
1.2947
1.2933
1.29313
1.29314
1.29315
1.29316
1.29317
1.29317
1.29317
1.29317
1.29317
1.29317
1.29317
1.29317
1.29316
1.29316
1.29316
1.29316
1.29315
1.29315
1.29314
1.29312
1.2931
1.29308
1.29306
1.29304
1.293
1.29297
1.29292
1.29288
1.29285
1.29287
1.29295
1.37491
1.29928
1.29315
1.29433
1.30121
)
;
    }
    defaultFaces
    {
        type            empty;
    }
}


// ************************************************************************* //
