/*--------------------------------*- C++ -*----------------------------------*\
| =========                 |                                                 |
| \\      /  F ield         | OpenFOAM: The Open Source CFD Toolbox           |
|  \\    /   O peration     | Version:  2012                                  |
|   \\  /    A nd           | Website:  www.openfoam.com                      |
|    \\/     M anipulation  |                                                 |
\*---------------------------------------------------------------------------*/
FoamFile
{
    version     2.0;
    format      ascii;
    class       volVectorField;
    location    "0.8";
    object      U;
}
// * * * * * * * * * * * * * * * * * * * * * * * * * * * * * * * * * * * * * //

dimensions      [0 1 -1 0 0 0 0];


internalField   nonuniform List<vector> 
2268
(
(-0.0225952 0.00919771 0)
(-0.0640082 0.00877414 0)
(-0.105371 0.00873301 0)
(-0.146116 0.00861412 0)
(-0.183895 0.00771144 0)
(-0.215095 0.00660296 0)
(-0.242254 0.00567809 0)
(-0.265146 0.00456848 0)
(-0.281119 0.00310809 0)
(-0.289451 0.00165245 0)
(-0.291129 0.000696459 0)
(-0.285937 -0.000632831 0)
(-0.273294 -0.00196122 0)
(-0.256605 -0.00314451 0)
(-0.233613 -0.00369925 0)
(-0.209279 -0.00539889 0)
(-0.175663 -0.00649213 0)
(-0.13867 -0.00913733 0)
(-0.0948955 -0.00940805 0)
(-0.048316 -0.0121823 0)
(-0.00850184 -0.00690889 0)
(0.0120834 -0.0121022 0)
(0.0414392 -0.00125718 0)
(-0.0227754 0.0317213 0)
(-0.0643848 0.0303504 0)
(-0.105881 0.0300456 0)
(-0.146496 0.0285128 0)
(-0.184289 0.0248497 0)
(-0.215847 0.0210141 0)
(-0.243442 0.01792 0)
(-0.266324 0.0138569 0)
(-0.282146 0.00830478 0)
(-0.290515 0.00315152 0)
(-0.292424 -0.00247028 0)
(-0.28677 -0.00769901 0)
(-0.274093 -0.0120224 0)
(-0.257379 -0.0154982 0)
(-0.234759 -0.0187809 0)
(-0.209973 -0.0218744 0)
(-0.176815 -0.0269943 0)
(-0.139338 -0.0289078 0)
(-0.0957006 -0.0334262 0)
(-0.0492592 -0.0285141 0)
(-0.00944063 -0.0217863 0)
(0.0123503 -0.0113796 0)
(0.0291363 0.0264636 0)
(-0.0234775 0.0504015 0)
(-0.0654135 0.0480775 0)
(-0.107106 0.0475427 0)
(-0.147681 0.0457137 0)
(-0.186172 0.040478 0)
(-0.218644 0.0346112 0)
(-0.246834 0.0294942 0)
(-0.270025 0.0229293 0)
(-0.285951 0.0144819 0)
(-0.294659 0.00659263 0)
(-0.296275 -0.00108235 0)
(-0.289817 -0.00921499 0)
(-0.277403 -0.0158812 0)
(-0.26005 -0.0216535 0)
(-0.237397 -0.0261648 0)
(-0.211639 -0.0327004 0)
(-0.177542 -0.0399592 0)
(-0.139154 -0.0473875 0)
(-0.0928889 -0.0520679 0)
(-0.0448239 -0.0528728 0)
(0.00522402 -0.0360786 0)
(0.0326516 -0.030236 0)
(0.0398084 0.0184404 0)
(-0.0239578 0.0737054 0)
(-0.0658552 0.069859 0)
(-0.108203 0.0688761 0)
(-0.148778 0.0658719 0)
(-0.187349 0.0583221 0)
(-0.220625 0.0497038 0)
(-0.24978 0.042135 0)
(-0.273427 0.032387 0)
(-0.289799 0.0198684 0)
(-0.298462 0.00808612 0)
(-0.300087 -0.00497705 0)
(-0.293285 -0.0165055 0)
(-0.280677 -0.0263037 0)
(-0.262422 -0.0342635 0)
(-0.240812 -0.0418286 0)
(-0.214904 -0.0500204 0)
(-0.183365 -0.0614044 0)
(-0.143761 -0.0687488 0)
(-0.0975299 -0.0781883 0)
(-0.0445855 -0.0746791 0)
(0.013418 -0.0586613 0)
(0.050868 -0.0275196 0)
(0.0466504 0.0604383 0)
(-0.0245241 0.0928649 0)
(-0.0675823 0.0879286 0)
(-0.110977 0.086752 0)
(-0.152286 0.0831782 0)
(-0.191773 0.0744486 0)
(-0.22655 0.0641837 0)
(-0.256678 0.0544184 0)
(-0.280727 0.0419324 0)
(-0.29705 0.0262406 0)
(-0.306446 0.0115672 0)
(-0.307504 -0.00343942 0)
(-0.299629 -0.0183158 0)
(-0.287194 -0.03041 0)
(-0.267736 -0.0404443 0)
(-0.246102 -0.048621 0)
(-0.219447 -0.0597931 0)
(-0.186306 -0.0736134 0)
(-0.145918 -0.0879069 0)
(-0.0941719 -0.0989738 0)
(-0.0383018 -0.105293 0)
(0.0393745 -0.0811859 0)
(0.0888037 -0.0459027 0)
(0.0649939 0.0647548 0)
(-0.0240599 0.117217 0)
(-0.0687868 0.110702 0)
(-0.112847 0.108855 0)
(-0.154117 0.104034 0)
(-0.193497 0.0933342 0)
(-0.229411 0.0803803 0)
(-0.261282 0.0676706 0)
(-0.286838 0.0514746 0)
(-0.304743 0.0320022 0)
(-0.313844 0.0130067 0)
(-0.31414 -0.00849363 0)
(-0.305877 -0.0259931 0)
(-0.291598 -0.0416675 0)
(-0.271054 -0.0535063 0)
(-0.250841 -0.0648814 0)
(-0.224704 -0.0781235 0)
(-0.195802 -0.0963719 0)
(-0.153974 -0.112098 0)
(-0.104987 -0.129296 0)
(-0.0390302 -0.137521 0)
(0.0522301 -0.119077 0)
(0.119386 -0.0392142 0)
(0.0827928 0.132746 0)
(-0.0236085 0.13674 0)
(-0.0718249 0.129911 0)
(-0.117907 0.127098 0)
(-0.160509 0.121359 0)
(-0.200775 0.110072 0)
(-0.237923 0.0963076 0)
(-0.27014 0.0815312 0)
(-0.295891 0.0626089 0)
(-0.314305 0.0388177 0)
(-0.325498 0.0162342 0)
(-0.325262 -0.00705345 0)
(-0.315325 -0.0288829 0)
(-0.300892 -0.0467546 0)
(-0.279839 -0.0596928 0)
(-0.260163 -0.0704546 0)
(-0.234462 -0.0857624 0)
(-0.202391 -0.106984 0)
(-0.16032 -0.130787 0)
(-0.106792 -0.153253 0)
(-0.0379406 -0.179639 0)
(0.0714535 -0.156084 0)
(0.141995 -0.0604929 0)
(0.101112 0.160416 0)
(-0.0226817 0.162341 0)
(-0.0725324 0.15528 0)
(-0.119949 0.150734 0)
(-0.163102 0.143168 0)
(-0.204375 0.129814 0)
(-0.24639 0.113128 0)
(-0.282491 0.0950139 0)
(-0.310339 0.0722921 0)
(-0.329353 0.0461886 0)
(-0.336966 0.017946 0)
(-0.334868 -0.0136134 0)
(-0.324961 -0.0374411 0)
(-0.306362 -0.0587506 0)
(-0.284032 -0.0725299 0)
(-0.265764 -0.0866168 0)
(-0.241524 -0.105275 0)
(-0.212093 -0.131731 0)
(-0.170531 -0.157105 0)
(-0.12718 -0.187504 0)
(-0.0594486 -0.221463 0)
(0.0462981 -0.204494 0)
(0.143327 -0.0524869 0)
(0.0974817 0.247463 0)
(-0.490492 0.216075 0)
(-1.05141 0.118571 0)
(-1.40866 0.0719406 0)
(-1.52041 0.0338082 0)
(-1.50836 0.0107081 0)
(-1.45918 -0.00397475 0)
(-1.48534 -0.0122908 0)
(-1.66755 0.0351634 0)
(-1.79139 0.0515268 0)
(-1.89759 0.0196034 0)
(-1.96917 0.00472666 0)
(-2.01027 0.0178231 0)
(-2.03002 -0.0202379 0)
(-2.00263 -0.115829 0)
(-1.89295 -0.136641 0)
(-1.64162 -0.119971 0)
(-1.16322 -0.133322 0)
(-0.664464 -0.11873 0)
(-0.221977 -0.101504 0)
(-0.38626 0.440214 0)
(-0.896914 0.273268 0)
(-1.22728 0.127727 0)
(-1.31658 0.0085583 0)
(-1.3237 -0.036946 0)
(-1.26779 -0.00688958 0)
(-1.27999 0.101113 0)
(-1.4349 0.0950613 0)
(-1.537 0.0461702 0)
(-1.65341 0.055978 0)
(-1.77021 0.0432288 0)
(-1.90762 0.00699189 0)
(-1.99861 0.0158549 0)
(-1.95455 0.0615018 0)
(-1.64878 -0.0175105 0)
(-1.22665 -0.191232 0)
(-0.792059 -0.284594 0)
(-0.450228 -0.283007 0)
(-0.205434 -0.276015 0)
(-0.375063 0.756937 0)
(-0.775106 0.475474 0)
(-1.0348 0.25065 0)
(-1.04136 0.0740063 0)
(-0.920947 -0.00729706 0)
(-0.855168 -0.0226615 0)
(-1.05546 0.0592648 0)
(-1.2903 0.144739 0)
(-1.48476 0.144791 0)
(-1.72981 0.118745 0)
(-2.21924 0.113635 0)
(-2.56224 0.131735 0)
(-2.4497 0.0132114 0)
(-1.23114 -0.337818 0)
(-0.66296 -0.442974 0)
(-0.275266 -0.476941 0)
(-0.150153 -0.456669 0)
(-0.122577 -0.366964 0)
(-0.0979207 -0.37939 0)
(-0.270297 0.932055 0)
(-0.571966 0.556686 0)
(-0.839091 0.24101 0)
(-0.828852 -0.0402193 0)
(-0.635808 -0.117558 0)
(-0.38461 0.0475345 0)
(-0.413201 0.28749 0)
(-1.0532 0.27573 0)
(-1.37788 0.229415 0)
(-1.7048 0.361534 0)
(-1.82736 0.386283 0)
(-1.06353 -0.0402681 0)
(0.345106 -0.580021 0)
(0.555769 -0.551626 0)
(0.627044 -0.430478 0)
(0.559944 -0.413089 0)
(0.41753 -0.363154 0)
(0.213526 -0.307532 0)
(0.0342271 -0.370123 0)
(-0.227955 1.11209 0)
(-0.389464 0.716497 0)
(-0.666061 0.353075 0)
(-0.91808 -0.0127459 0)
(-0.475296 -0.193476 0)
(-0.128266 -0.118354 0)
(0.0285659 0.340449 0)
(-0.128671 0.55963 0)
(-0.563843 0.462792 0)
(-1.02461 0.296505 0)
(-0.218872 -0.124366 0)
(0.523103 -0.540077 0)
(0.615065 -0.641313 0)
(0.683991 -0.554973 0)
(0.754028 -0.442756 0)
(0.72623 -0.384185 0)
(0.604531 -0.304193 0)
(0.401373 -0.201217 0)
(0.143746 -0.27321 0)
(-0.125861 1.19572 0)
(-0.166034 0.73877 0)
(0.0513191 0.498901 0)
(-0.844801 -0.134208 0)
(-0.0609512 -0.454278 0)
(0.0908726 -0.167555 0)
(0.157053 0.28885 0)
(0.21202 0.517812 0)
(0.319582 0.571887 0)
(0.196604 0.209432 0)
(0.540568 -0.2718 0)
(0.537537 -0.546778 0)
(0.610678 -0.654735 0)
(0.71184 -0.597687 0)
(0.798485 -0.448079 0)
(0.777351 -0.349106 0)
(0.664587 -0.226966 0)
(0.473674 -0.115198 0)
(0.163718 -0.138899 0)
(-0.105186 1.23383 0)
(0.0266219 0.621739 0)
(0.27481 0.651271 0)
(0.0158823 0.0382066 0)
(0.323624 -0.600646 0)
(0.324427 -0.2143 0)
(0.31357 0.287548 0)
(0.276914 0.489994 0)
(0.349932 0.512477 0)
(0.395489 0.154289 0)
(0.423707 -0.241513 0)
(0.431839 -0.555173 0)
(0.547583 -0.71514 0)
(0.722201 -0.638097 0)
(0.804512 -0.471621 0)
(0.758065 -0.32864 0)
(0.601053 -0.173934 0)
(0.416948 0.0142259 0)
(0.118667 -0.00143267 0)
(-0.102854 1.23003 0)
(0.11312 0.568745 0)
(-0.135242 0.539536 0)
(0.583041 -0.159242 0)
(0.454958 -0.571551 0)
(0.472208 -0.164229 0)
(0.433945 0.311026 0)
(0.332425 0.503508 0)
(0.296406 0.521313 0)
(0.293471 0.188222 0)
(0.286499 -0.285599 0)
(0.259416 -0.600638 0)
(0.334166 -0.77868 0)
(0.503827 -0.703706 0)
(0.601903 -0.45683 0)
(0.434735 -0.260635 0)
(0.280828 -0.0798519 0)
(0.250887 0.0865306 0)
(0.0735516 0.0876835 0)
(-0.0232828 0.192558 0)
(-0.0756774 0.187425 0)
(-0.123705 0.180687 0)
(-0.166834 0.171547 0)
(-0.206695 0.160601 0)
(-0.247041 0.144733 0)
(-0.28296 0.121114 0)
(-0.313426 0.0920721 0)
(-0.339831 0.0535347 0)
(-0.359566 0.0201816 0)
(-0.359497 -0.012004 0)
(-0.341282 -0.0448823 0)
(-0.318284 -0.0701047 0)
(-0.295626 -0.0825247 0)
(-0.27984 -0.0925521 0)
(-0.259827 -0.114374 0)
(-0.230273 -0.145215 0)
(-0.196138 -0.178574 0)
(-0.149201 -0.21568 0)
(-0.082092 -0.284335 0)
(0.0354179 -0.278607 0)
(0.170567 -0.103416 0)
(0.320585 0.288956 0)
(-0.0296076 0.25061 0)
(-0.0918489 0.244335 0)
(-0.146591 0.231244 0)
(-0.197436 0.2161 0)
(-0.246436 0.199067 0)
(-0.291061 0.178301 0)
(-0.326024 0.152401 0)
(-0.363141 0.122168 0)
(-0.385834 0.0910632 0)
(-0.375273 0.0356664 0)
(-0.35682 -0.0328214 0)
(-0.333661 -0.0762468 0)
(-0.309381 -0.100899 0)
(-0.287346 -0.107016 0)
(-0.27878 -0.120956 0)
(-0.262209 -0.151492 0)
(-0.247377 -0.19152 0)
(-0.216871 -0.230487 0)
(-0.198159 -0.292894 0)
(-0.14066 -0.384003 0)
(-0.118873 -0.433343 0)
(-0.00967018 -0.319285 0)
(0.0410714 -0.0755326 0)
(-0.0355667 0.313367 0)
(-0.107469 0.304081 0)
(-0.176007 0.286232 0)
(-0.243356 0.271371 0)
(-0.316306 0.254267 0)
(-0.392905 0.224276 0)
(-0.456399 0.19313 0)
(-0.518636 0.152716 0)
(-0.613423 0.0625437 0)
(-0.688347 -0.00517835 0)
(-0.652196 -0.0536764 0)
(-0.546173 -0.091155 0)
(-0.461246 -0.117081 0)
(-0.386427 -0.113405 0)
(-0.361804 -0.117597 0)
(-0.345803 -0.14595 0)
(-0.320391 -0.190496 0)
(-0.318053 -0.227895 0)
(-0.309731 -0.291693 0)
(-0.357609 -0.364189 0)
(-0.389847 -0.408939 0)
(-0.460893 -0.264329 0)
(-0.4498 0.00241957 0)
(-0.0733264 0.399888 0)
(-0.19861 0.389953 0)
(-0.369486 0.372172 0)
(-0.504867 0.362646 0)
(-0.872161 0.354988 0)
(-1.25407 0.324388 0)
(-1.68619 0.280341 0)
(-1.99651 0.280028 0)
(-2.03347 0.27409 0)
(-1.8367 0.0628878 0)
(-1.65198 -0.173799 0)
(-1.41817 -0.270297 0)
(-1.22309 -0.260539 0)
(-1.03065 -0.205865 0)
(-0.905579 -0.162392 0)
(-0.793503 -0.193192 0)
(-0.684348 -0.219743 0)
(-0.602605 -0.240863 0)
(-0.55472 -0.253966 0)
(-0.538162 -0.3034 0)
(-0.579868 -0.330893 0)
(-0.676403 -0.255863 0)
(-0.716148 -0.0715242 0)
(-0.115779 0.581388 0)
(-0.342211 0.591981 0)
(-0.62573 0.593216 0)
(-0.949521 0.752754 0)
(-1.50931 1.01498 0)
(-1.89836 1.01465 0)
(-2.24276 0.936201 0)
(-2.52004 0.487117 0)
(-2.17997 -0.12771 0)
(-1.93176 -0.369456 0)
(-1.72837 -0.481306 0)
(-1.57979 -0.519136 0)
(-1.44761 -0.510172 0)
(-1.35534 -0.433282 0)
(-1.30263 -0.355323 0)
(-1.19156 -0.368399 0)
(-1.09638 -0.382652 0)
(-0.951909 -0.358253 0)
(-0.797575 -0.356149 0)
(-0.654966 -0.338409 0)
(-0.549713 -0.269314 0)
(-0.510425 -0.129312 0)
(-0.482304 0.0379621 0)
(-0.121281 0.865599 0)
(-0.381269 0.904736 0)
(-0.681728 0.994514 0)
(-1.09319 1.25887 0)
(-1.5125 1.31905 0)
(-1.76615 1.07934 0)
(-2.03089 0.923254 0)
(-1.94721 0.233686 0)
(-1.90567 -0.297047 0)
(-1.85933 -0.411074 0)
(-1.80905 -0.522515 0)
(-1.78258 -0.555714 0)
(-1.84234 -0.434288 0)
(-1.9122 -0.369216 0)
(-1.69351 -0.386052 0)
(-1.57808 -0.436227 0)
(-1.44997 -0.467874 0)
(-1.39796 -0.549329 0)
(-1.21499 -0.561603 0)
(-0.902142 -0.565339 0)
(-0.67243 -0.467842 0)
(-0.526736 -0.322958 0)
(-0.37435 -0.0744791 0)
(-0.0810553 1.08145 0)
(-0.256739 1.14962 0)
(-0.450409 1.3027 0)
(-0.676389 1.57857 0)
(-0.894194 1.67975 0)
(-1.29868 1.50756 0)
(-1.57851 1.11564 0)
(-1.79728 0.37029 0)
(-1.94506 -0.201106 0)
(-1.91182 -0.463755 0)
(-1.85728 -0.557149 0)
(-1.89345 -0.505944 0)
(-1.80978 -0.453612 0)
(-1.71263 -0.556738 0)
(-1.63527 -0.575213 0)
(-1.58272 -0.555194 0)
(-1.54314 -0.527194 0)
(-1.51491 -0.588124 0)
(-1.59274 -0.821971 0)
(-1.66069 -0.871647 0)
(-1.46435 -0.62096 0)
(-1.04531 -0.441328 0)
(-0.730129 -0.247654 0)
(-0.047967 1.2096 0)
(-0.147729 1.27685 0)
(-0.215759 1.42659 0)
(-0.258604 1.70157 0)
(-0.203235 1.94918 0)
(-0.364537 1.80158 0)
(-0.539387 1.42322 0)
(-0.965737 0.598177 0)
(-1.40628 -0.205142 0)
(-1.66672 -0.495202 0)
(-1.7184 -0.561325 0)
(-1.73332 -0.573605 0)
(-1.59213 -0.558526 0)
(-1.55653 -0.567996 0)
(-1.54088 -0.573778 0)
(-1.51715 -0.564754 0)
(-1.49382 -0.541752 0)
(-1.45927 -0.529085 0)
(-1.5777 -0.428153 0)
(-1.89021 -0.743584 0)
(-2.18951 -1.10531 0)
(-2.44027 -1.08791 0)
(-2.47532 -0.828058 0)
(-0.0206738 1.27584 0)
(-0.0599193 1.31721 0)
(-0.0692386 1.41174 0)
(-0.0242188 1.56587 0)
(0.145797 1.77975 0)
(0.323766 1.82743 0)
(0.335702 1.71911 0)
(0.125035 1.24745 0)
(-0.490579 0.509256 0)
(-1.17901 -0.141342 0)
(-1.59732 -0.491702 0)
(-1.71279 -0.649273 0)
(-1.57561 -0.616459 0)
(-1.48181 -0.615103 0)
(-1.42426 -0.613167 0)
(-1.38494 -0.601805 0)
(-1.35758 -0.582523 0)
(-1.36267 -0.495472 0)
(-1.39964 -0.370318 0)
(-1.38084 -0.206413 0)
(-1.8064 0.00518943 0)
(-2.26978 -0.124082 0)
(-2.93593 -0.512425 0)
(0.00108852 1.29213 0)
(-0.00222288 1.32636 0)
(0.0248508 1.39321 0)
(0.0744672 1.48592 0)
(0.211613 1.59825 0)
(0.399302 1.62673 0)
(0.574444 1.61358 0)
(0.64309 1.43868 0)
(0.459895 1.09023 0)
(0.0183759 0.617899 0)
(-0.473135 -0.0265538 0)
(-0.869685 -0.595984 0)
(-1.09015 -0.785736 0)
(-1.23025 -0.725799 0)
(-1.3549 -0.676589 0)
(-1.29741 -0.629888 0)
(-1.2515 -0.563538 0)
(-1.26961 -0.485778 0)
(-1.30958 -0.422584 0)
(-1.33672 -0.399228 0)
(-1.26351 -0.271683 0)
(-1.13926 -0.00865845 0)
(-1.18396 0.0849838 0)
(0.0100647 1.27588 0)
(0.0363929 1.29332 0)
(0.0802852 1.33177 0)
(0.150997 1.37906 0)
(0.266889 1.44686 0)
(0.422456 1.46051 0)
(0.582463 1.4689 0)
(0.732522 1.36682 0)
(0.760526 1.13968 0)
(0.704818 0.802217 0)
(0.535255 0.397219 0)
(0.2092 -0.023278 0)
(-0.172538 -0.258155 0)
(-0.406446 -0.344378 0)
(-0.606606 -0.533497 0)
(-0.738091 -0.703755 0)
(-1.16941 -0.606986 0)
(-1.29351 -0.428966 0)
(-1.23617 -0.299925 0)
(-1.16694 -0.216222 0)
(-1.12454 -0.170226 0)
(-1.09185 -0.199622 0)
(-0.883987 -0.380636 0)
(0.0182429 1.24568 0)
(0.0584071 1.25635 0)
(0.108396 1.27821 0)
(0.173879 1.30005 0)
(0.268086 1.32445 0)
(0.38934 1.31469 0)
(0.522086 1.29851 0)
(0.681053 1.26324 0)
(0.764613 1.11146 0)
(0.789567 0.843991 0)
(0.737886 0.476739 0)
(0.605675 0.112174 0)
(0.410031 -0.164158 0)
(0.253987 -0.301399 0)
(0.115409 -0.339304 0)
(-0.13117 -0.0940622 0)
(-0.393264 -0.0159333 0)
(-0.613503 -0.4232 0)
(-0.808588 -0.556164 0)
(-1.05021 -0.513939 0)
(-1.07991 -0.339714 0)
(-0.977449 -0.247844 0)
(-0.899793 -0.170362 0)
(0.0219804 1.19803 0)
(0.0699851 1.20279 0)
(0.124874 1.21349 0)
(0.193995 1.21944 0)
(0.276122 1.22661 0)
(0.377846 1.20678 0)
(0.478468 1.1721 0)
(0.607423 1.12696 0)
(0.729361 1.02756 0)
(0.793833 0.831254 0)
(0.791582 0.575259 0)
(0.701263 0.309347 0)
(0.54783 0.0920479 0)
(0.373705 -0.041506 0)
(0.203102 -0.142072 0)
(0.0671147 -0.17454 0)
(0.130695 -0.113718 0)
(0.0553028 -0.0105992 0)
(-0.197635 0.136411 0)
(-0.489306 0.0505541 0)
(-0.692904 -0.239158 0)
(-0.814087 -0.395348 0)
(-0.863693 -0.617739 0)
(0.0216803 1.15337 0)
(0.0702778 1.15349 0)
(0.121378 1.15354 0)
(0.184104 1.14907 0)
(0.254191 1.13896 0)
(0.340296 1.11299 0)
(0.424778 1.06628 0)
(0.523783 1.01173 0)
(0.626769 0.923308 0)
(0.711455 0.78156 0)
(0.732121 0.573017 0)
(0.699868 0.356282 0)
(0.617323 0.165965 0)
(0.519097 0.0396697 0)
(0.42144 -0.0323233 0)
(0.308651 -0.031299 0)
(0.220734 -0.00947689 0)
(0.172262 -0.0773268 0)
(0.18753 -0.0254069 0)
(0.286456 -0.00931665 0)
(0.263942 -0.0150353 0)
(0.184002 -0.0740303 0)
(0.0709541 -0.127894 0)
(0.0224484 1.10473 0)
(0.0715084 1.10226 0)
(0.120678 1.09754 0)
(0.178472 1.08625 0)
(0.238878 1.06768 0)
(0.310566 1.03616 0)
(0.379359 0.986021 0)
(0.45562 0.925388 0)
(0.529948 0.837444 0)
(0.6005 0.726299 0)
(0.63199 0.584034 0)
(0.615521 0.425703 0)
(0.558275 0.273248 0)
(0.471185 0.158545 0)
(0.382757 0.071337 0)
(0.291229 0.0325738 0)
(0.250847 0.0246762 0)
(0.204155 0.0233116 0)
(0.155715 0.0241214 0)
(0.156957 -0.0187739 0)
(0.157434 -0.130372 0)
(0.153676 -0.192993 0)
(0.142849 -0.289246 0)
(0.0197817 1.05923 0)
(0.0633486 1.05509 0)
(0.105787 1.04615 0)
(0.155759 1.03071 0)
(0.205675 1.00605 0)
(0.263998 0.972262 0)
(0.318163 0.920072 0)
(0.376596 0.860665 0)
(0.427851 0.777203 0)
(0.474278 0.679204 0)
(0.499423 0.558423 0)
(0.502037 0.430212 0)
(0.469476 0.310232 0)
(0.421677 0.214187 0)
(0.36167 0.14586 0)
(0.305633 0.099225 0)
(0.261001 0.0722956 0)
(0.243917 0.0218532 0)
(0.235403 0.0112884 0)
(0.261535 -0.0100826 0)
(0.255251 -0.0238393 0)
(0.238546 -0.0621828 0)
(0.209761 -0.0977631 0)
(0.0181991 1.02047 0)
(0.057419 1.01527 0)
(0.0952039 1.00379 0)
(0.137926 0.985608 0)
(0.179283 0.957969 0)
(0.225943 0.923082 0)
(0.2685 0.872099 0)
(0.312396 0.815306 0)
(0.349377 0.738789 0)
(0.379628 0.654495 0)
(0.393689 0.555761 0)
(0.387852 0.455854 0)
(0.361724 0.354666 0)
(0.320711 0.268122 0)
(0.276841 0.189972 0)
(0.233197 0.135941 0)
(0.205458 0.0895342 0)
(0.177478 0.0511957 0)
(0.154854 0.0104783 0)
(0.144647 -0.0345567 0)
(0.144373 -0.101413 0)
(0.144329 -0.142224 0)
(0.151627 -0.194095 0)
(0.0146817 0.983441 0)
(0.0481078 0.977818 0)
(0.0787359 0.965398 0)
(0.114203 0.946308 0)
(0.146283 0.917683 0)
(0.182883 0.882653 0)
(0.213723 0.833157 0)
(0.246422 0.779417 0)
(0.270568 0.709435 0)
(0.291399 0.634686 0)
(0.298585 0.549828 0)
(0.298165 0.462279 0)
(0.28197 0.376636 0)
(0.261046 0.298758 0)
(0.23013 0.231071 0)
(0.203739 0.170127 0)
(0.179014 0.12344 0)
(0.166829 0.0727244 0)
(0.154759 0.0372371 0)
(0.159241 -0.000441248 0)
(0.148856 -0.0311781 0)
(0.143806 -0.0722315 0)
(0.134509 -0.104195 0)
(0.011755 0.95684 0)
(0.0388965 0.950333 0)
(0.06316 0.936854 0)
(0.09115 0.917239 0)
(0.115798 0.888502 0)
(0.143561 0.854902 0)
(0.165766 0.807928 0)
(0.188697 0.757868 0)
(0.204093 0.693462 0)
(0.215651 0.626097 0)
(0.217291 0.549158 0)
(0.211759 0.472431 0)
(0.194807 0.392813 0)
(0.173864 0.320758 0)
(0.148618 0.249529 0)
(0.124363 0.188644 0)
(0.103557 0.129584 0)
(0.0865609 0.0775764 0)
(0.0738398 0.0220148 0)
(0.0681964 -0.0257089 0)
(0.0696517 -0.0812369 0)
(0.0719589 -0.124227 0)
(0.0803263 -0.174335 0)
(0.00862937 0.932642 0)
(0.0297825 0.926164 0)
(0.0467019 0.913007 0)
(0.0675953 0.893361 0)
(0.0838005 0.865123 0)
(0.103544 0.832346 0)
(0.117333 0.78783 0)
(0.133052 0.740809 0)
(0.14102 0.682222 0)
(0.148713 0.621318 0)
(0.146494 0.553351 0)
(0.143382 0.484654 0)
(0.129642 0.413726 0)
(0.117145 0.344592 0)
(0.0975174 0.278542 0)
(0.0821164 0.214488 0)
(0.0644183 0.157721 0)
(0.0560101 0.101463 0)
(0.0448414 0.0507821 0)
(0.0469624 0.00203543 0)
(0.044672 -0.0401624 0)
(0.051174 -0.0857066 0)
(0.0550717 -0.12909 0)
(0.00549058 0.917823 0)
(0.0201173 0.911569 0)
(0.0308273 0.898516 0)
(0.0445496 0.879458 0)
(0.0540367 0.852131 0)
(0.0659732 0.820741 0)
(0.0733203 0.778134 0)
(0.0811632 0.733675 0)
(0.0829017 0.67773 0)
(0.0835637 0.620306 0)
(0.0762908 0.55478 0)
(0.0685454 0.489247 0)
(0.0530211 0.419965 0)
(0.0381614 0.353427 0)
(0.0197592 0.286404 0)
(0.0040712 0.222997 0)
(-0.0109314 0.15837 0)
(-0.0206963 0.0990169 0)
(-0.027807 0.0343896 0)
(-0.0282707 -0.0231838 0)
(-0.0208953 -0.0818131 0)
(-0.00983539 -0.131874 0)
(0.0106091 -0.187819 0)
(0.00171097 0.906944 0)
(0.0105102 0.900675 0)
(0.014955 0.888515 0)
(0.02245 0.869947 0)
(0.0254547 0.843643 0)
(0.0305388 0.812836 0)
(0.0313793 0.772551 0)
(0.0326891 0.731032 0)
(0.0294773 0.679672 0)
(0.0260951 0.62778 0)
(0.0166527 0.568076 0)
(0.00838765 0.50775 0)
(-0.0062608 0.443372 0)
(-0.0179675 0.377387 0)
(-0.0346151 0.310988 0)
(-0.046492 0.244255 0)
(-0.0604588 0.179798 0)
(-0.0665619 0.116937 0)
(-0.0737995 0.0547916 0)
(-0.0709846 -0.00684301 0)
(-0.0684075 -0.0624796 0)
(-0.055368 -0.119859 0)
(-0.0387123 -0.17381 0)
(-0.00113173 0.905196 0)
(0.000476508 0.89783 0)
(-0.00117177 0.886253 0)
(-0.000220292 0.868486 0)
(-0.00281617 0.843832 0)
(-0.00425197 0.814403 0)
(-0.00925502 0.775893 0)
(-0.0147757 0.735268 0)
(-0.023344 0.684384 0)
(-0.0331634 0.632965 0)
(-0.0464452 0.5728 0)
(-0.0601968 0.512232 0)
(-0.0772686 0.447105 0)
(-0.0935382 0.382322 0)
(-0.111163 0.316427 0)
(-0.125101 0.249969 0)
(-0.138698 0.180618 0)
(-0.146734 0.114001 0)
(-0.151373 0.0414831 0)
(-0.151043 -0.0265933 0)
(-0.144929 -0.0946128 0)
(-0.133424 -0.159402 0)
(-0.110678 -0.224647 0)
(-0.00317161 0.90761 0)
(-0.00815265 0.900709 0)
(-0.0159099 0.889219 0)
(-0.0215487 0.871508 0)
(-0.0302057 0.847675 0)
(-0.0377038 0.819166 0)
(-0.048355 0.783051 0)
(-0.0590861 0.745021 0)
(-0.0719862 0.697986 0)
(-0.0859601 0.650794 0)
(-0.101513 0.594892 0)
(-0.118312 0.5384 0)
(-0.135815 0.476111 0)
(-0.15355 0.410799 0)
(-0.171794 0.341241 0)
(-0.18755 0.270832 0)
(-0.203178 0.199325 0)
(-0.213868 0.128161 0)
(-0.223319 0.056325 0)
(-0.228125 -0.0151684 0)
(-0.230326 -0.0831748 0)
(-0.223995 -0.156478 0)
(-0.218758 -0.219021 0)
(-0.00587439 0.916281 0)
(-0.0168022 0.9103 0)
(-0.0299137 0.899516 0)
(-0.0419092 0.882545 0)
(-0.0562705 0.859947 0)
(-0.070138 0.832368 0)
(-0.086597 0.797344 0)
(-0.103876 0.758793 0)
(-0.122514 0.711431 0)
(-0.143254 0.662491 0)
(-0.163724 0.605495 0)
(-0.187613 0.546739 0)
(-0.209628 0.483025 0)
(-0.233981 0.418901 0)
(-0.254936 0.351671 0)
(-0.277654 0.282452 0)
(-0.29763 0.208745 0)
(-0.317028 0.135678 0)
(-0.332191 0.0579402 0)
(-0.34583 -0.0177477 0)
(-0.355068 -0.0964677 0)
(-0.365265 -0.168934 0)
(-0.369003 -0.236155 0)
(-0.00899695 0.930362 0)
(-0.0261866 0.924814 0)
(-0.0450237 0.914401 0)
(-0.063122 0.897888 0)
(-0.0833786 0.875961 0)
(-0.103016 0.849489 0)
(-0.124649 0.81682 0)
(-0.146656 0.780939 0)
(-0.169694 0.73736 0)
(-0.194782 0.69201 0)
(-0.219126 0.63914 0)
(-0.24689 0.584227 0)
(-0.272878 0.522079 0)
(-0.302857 0.455736 0)
(-0.331345 0.383928 0)
(-0.361963 0.312718 0)
(-0.389852 0.237073 0)
(-0.420179 0.161493 0)
(-0.444588 0.0830183 0)
(-0.477393 0.00611153 0)
(-0.501553 -0.0660164 0)
(-0.518034 -0.144492 0)
(-0.513804 -0.222266 0)
(-0.0119591 0.951437 0)
(-0.035599 0.946306 0)
(-0.0600852 0.936496 0)
(-0.084324 0.9209 0)
(-0.110325 0.89997 0)
(-0.136526 0.873694 0)
(-0.164522 0.841195 0)
(-0.193737 0.803942 0)
(-0.223791 0.75983 0)
(-0.256802 0.712095 0)
(-0.288998 0.657981 0)
(-0.325414 0.600817 0)
(-0.359364 0.539618 0)
(-0.39643 0.478056 0)
(-0.430961 0.411924 0)
(-0.471277 0.342113 0)
(-0.50665 0.268659 0)
(-0.548998 0.191966 0)
(-0.592079 0.117129 0)
(-0.629345 0.0411565 0)
(-0.641171 -0.0538807 0)
(-0.641611 -0.154797 0)
(-0.610301 -0.260603 0)
(-0.0152547 0.978052 0)
(-0.0456385 0.97309 0)
(-0.0766359 0.963261 0)
(-0.107212 0.948235 0)
(-0.139249 0.928271 0)
(-0.170899 0.903778 0)
(-0.204218 0.874131 0)
(-0.238139 0.840337 0)
(-0.273491 0.80054 0)
(-0.310938 0.757391 0)
(-0.349011 0.707829 0)
(-0.390619 0.65472 0)
(-0.432853 0.592981 0)
(-0.479997 0.527166 0)
(-0.526657 0.458183 0)
(-0.576317 0.387873 0)
(-0.630098 0.313653 0)
(-0.688878 0.246083 0)
(-0.725196 0.162043 0)
(-0.737724 0.0537735 0)
(-0.731978 -0.0554645 0)
(-0.704664 -0.177285 0)
(-0.66294 -0.29526 0)
(-0.0183614 1.01253 0)
(-0.0552841 1.00793 0)
(-0.0926101 0.998335 0)
(-0.130094 0.983769 0)
(-0.169091 0.963987 0)
(-0.208607 0.93895 0)
(-0.249979 0.908797 0)
(-0.292732 0.873497 0)
(-0.337015 0.833004 0)
(-0.383747 0.787909 0)
(-0.430809 0.738101 0)
(-0.480352 0.685077 0)
(-0.528901 0.629635 0)
(-0.581151 0.572678 0)
(-0.637283 0.509398 0)
(-0.701076 0.446807 0)
(-0.764256 0.382995 0)
(-0.803781 0.288595 0)
(-0.809294 0.167524 0)
(-0.808617 0.0494493 0)
(-0.773807 -0.085713 0)
(-0.737345 -0.222636 0)
(-0.685279 -0.353895 0)
(-0.0218603 1.05185 0)
(-0.0654442 1.04754 0)
(-0.10943 1.03823 0)
(-0.153034 1.02488 0)
(-0.197875 1.00694 0)
(-0.24255 0.984865 0)
(-0.289306 0.958475 0)
(-0.336634 0.927682 0)
(-0.386668 0.891853 0)
(-0.438295 0.851605 0)
(-0.493092 0.804749 0)
(-0.550459 0.753243 0)
(-0.61075 0.694001 0)
(-0.67525 0.63568 0)
(-0.743748 0.577945 0)
(-0.814642 0.514689 0)
(-0.852749 0.41559 0)
(-0.855694 0.290266 0)
(-0.856335 0.165536 0)
(-0.825404 0.0166456 0)
(-0.787471 -0.128577 0)
(-0.742332 -0.267837 0)
(-0.696791 -0.400629 0)
(-0.0254742 1.10035 0)
(-0.0761708 1.09607 0)
(-0.127734 1.08649 0)
(-0.179635 1.07276 0)
(-0.233052 1.05407 0)
(-0.287064 1.03089 0)
(-0.342872 1.0034 0)
(-0.399323 0.971281 0)
(-0.457193 0.93515 0)
(-0.516328 0.894707 0)
(-0.576968 0.850788 0)
(-0.642313 0.803162 0)
(-0.712059 0.755079 0)
(-0.788562 0.706631 0)
(-0.861441 0.649957 0)
(-0.902616 0.557008 0)
(-0.898105 0.425162 0)
(-0.899768 0.293173 0)
(-0.865508 0.138147 0)
(-0.82901 -0.0184388 0)
(-0.788195 -0.167995 0)
(-0.746635 -0.312326 0)
(-0.700601 -0.445752 0)
(-0.028461 1.15359 0)
(-0.0846849 1.14998 0)
(-0.141776 1.14186 0)
(-0.198605 1.13039 0)
(-0.256961 1.11462 0)
(-0.315537 1.09503 0)
(-0.376466 1.07114 0)
(-0.437773 1.04254 0)
(-0.501869 1.00939 0)
(-0.566152 0.972099 0)
(-0.633696 0.93133 0)
(-0.70276 0.889217 0)
(-0.781561 0.840843 0)
(-0.862219 0.785442 0)
(-0.913212 0.692018 0)
(-0.907368 0.550874 0)
(-0.908841 0.411758 0)
(-0.884758 0.256434 0)
(-0.848774 0.093128 0)
(-0.814388 -0.0624374 0)
(-0.77236 -0.212817 0)
(-0.731319 -0.357385 0)
(-0.686453 -0.492047 0)
(-0.0329647 1.21438 0)
(-0.0979361 1.21034 0)
(-0.163868 1.20129 0)
(-0.229934 1.18875 0)
(-0.297165 1.17175 0)
(-0.364816 1.15102 0)
(-0.433996 1.12623 0)
(-0.503614 1.09714 0)
(-0.575233 1.06403 0)
(-0.648109 1.02686 0)
(-0.722904 0.987932 0)
(-0.800241 0.951327 0)
(-0.878234 0.915321 0)
(-0.935928 0.839188 0)
(-0.932104 0.695554 0)
(-0.926776 0.553241 0)
(-0.908533 0.40325 0)
(-0.867734 0.233888 0)
(-0.8305 0.0686677 0)
(-0.787731 -0.0939856 0)
(-0.745549 -0.250106 0)
(-0.699248 -0.397318 0)
(-0.655228 -0.534602 0)
(-0.0345149 1.28458 0)
(-0.10224 1.28112 0)
(-0.171926 1.27415 0)
(-0.241469 1.26408 0)
(-0.312482 1.25004 0)
(-0.383267 1.23253 0)
(-0.455909 1.21073 0)
(-0.52859 1.1847 0)
(-0.604287 1.15485 0)
(-0.682076 1.12089 0)
(-0.764463 1.08445 0)
(-0.848393 1.04582 0)
(-0.920493 0.977109 0)
(-0.92816 0.839478 0)
(-0.915539 0.682467 0)
(-0.910173 0.526466 0)
(-0.87387 0.351225 0)
(-0.836772 0.176734 0)
(-0.795188 0.0111628 0)
(-0.751082 -0.149243 0)
(-0.707239 -0.303308 0)
(-0.661774 -0.449692 0)
(-0.617096 -0.586125 0)
(-0.0402086 1.35206 0)
(-0.119859 1.34874 0)
(-0.200161 1.34133 0)
(-0.278957 1.32999 0)
(-0.358015 1.31409 0)
(-0.437168 1.29482 0)
(-0.516676 1.27185 0)
(-0.595355 1.24568 0)
(-0.676009 1.21774 0)
(-0.758449 1.18715 0)
(-0.840682 1.15454 0)
(-0.916703 1.10731 0)
(-0.941826 0.995355 0)
(-0.924524 0.834115 0)
(-0.913225 0.677911 0)
(-0.880949 0.512079 0)
(-0.835515 0.330788 0)
(-0.793194 0.156102 0)
(-0.74835 -0.0158864 0)
(-0.702817 -0.180996 0)
(-0.657742 -0.338298 0)
(-0.611618 -0.486466 0)
(-0.566747 -0.624408 0)
(-0.0404885 1.4454 0)
(-0.120126 1.44204 0)
(-0.20125 1.43427 0)
(-0.281245 1.42308 0)
(-0.363332 1.40964 0)
(-0.44433 1.39271 0)
(-0.526926 1.37058 0)
(-0.608686 1.34571 0)
(-0.693977 1.3197 0)
(-0.778353 1.28731 0)
(-0.864166 1.24415 0)
(-0.921853 1.14864 0)
(-0.913376 0.985039 0)
(-0.898827 0.810748 0)
(-0.879947 0.637944 0)
(-0.83611 0.447201 0)
(-0.796236 0.261553 0)
(-0.750812 0.0874283 0)
(-0.707496 -0.0813504 0)
(-0.660636 -0.242005 0)
(-0.61676 -0.396654 0)
(-0.570323 -0.542915 0)
(-0.527291 -0.680336 0)
(-0.0466782 1.5126 0)
(-0.138999 1.50952 0)
(-0.231524 1.5023 0)
(-0.323136 1.49174 0)
(-0.414005 1.47665 0)
(-0.502992 1.45771 0)
(-0.592687 1.43553 0)
(-0.680776 1.41199 0)
(-0.769445 1.38691 0)
(-0.84983 1.35663 0)
(-0.917613 1.29793 0)
(-0.923637 1.15519 0)
(-0.90577 0.972322 0)
(-0.878194 0.800479 0)
(-0.840759 0.615858 0)
(-0.786202 0.429231 0)
(-0.745261 0.246681 0)
(-0.694729 0.0686415 0)
(-0.651375 -0.104756 0)
(-0.604807 -0.270517 0)
(-0.561376 -0.427238 0)
(-0.515112 -0.574673 0)
(-0.472294 -0.712911 0)
(-0.0456555 1.63386 0)
(-0.136437 1.62992 0)
(-0.227182 1.62141 0)
(-0.317866 1.60874 0)
(-0.40803 1.59285 0)
(-0.49844 1.57483 0)
(-0.588988 1.55176 0)
(-0.681318 1.52556 0)
(-0.770877 1.49185 0)
(-0.855291 1.4377 0)
(-0.904351 1.31993 0)
(-0.885713 1.13784 0)
(-0.868616 0.939175 0)
(-0.835145 0.745022 0)
(-0.79144 0.544055 0)
(-0.748502 0.349713 0)
(-0.703234 0.167572 0)
(-0.660025 -0.00887241 0)
(-0.613566 -0.173731 0)
(-0.568975 -0.334463 0)
(-0.525566 -0.488809 0)
(-0.48078 -0.634581 0)
(-0.43874 -0.772107 0)
(-0.0525372 1.69175 0)
(-0.156845 1.68828 0)
(-0.261046 1.68081 0)
(-0.364084 1.66956 0)
(-0.465697 1.65403 0)
(-0.564606 1.63551 0)
(-0.662528 1.61551 0)
(-0.757868 1.59159 0)
(-0.844023 1.55855 0)
(-0.906774 1.48903 0)
(-0.911358 1.32649 0)
(-0.882951 1.11881 0)
(-0.847235 0.921737 0)
(-0.801446 0.723746 0)
(-0.747973 0.530423 0)
(-0.701168 0.342294 0)
(-0.649996 0.160007 0)
(-0.603352 -0.0195069 0)
(-0.560001 -0.194018 0)
(-0.513831 -0.356952 0)
(-0.472964 -0.513527 0)
(-0.427962 -0.659759 0)
(-0.388098 -0.798405 0)
(-0.0508677 1.8506 0)
(-0.15209 1.84603 0)
(-0.252901 1.83611 0)
(-0.352923 1.82081 0)
(-0.452026 1.80088 0)
(-0.550922 1.77882 0)
(-0.649208 1.75154 0)
(-0.744 1.71259 0)
(-0.83295 1.64543 0)
(-0.884434 1.5079 0)
(-0.865225 1.29743 0)
(-0.841363 1.07338 0)
(-0.804664 0.856545 0)
(-0.759804 0.643743 0)
(-0.713322 0.441327 0)
(-0.664569 0.248888 0)
(-0.620528 0.0668459 0)
(-0.570955 -0.101796 0)
(-0.528491 -0.266125 0)
(-0.483637 -0.424494 0)
(-0.44425 -0.577759 0)
(-0.401216 -0.722737 0)
(-0.363614 -0.861078 0)
(-0.0580731 1.88535 0)
(-0.173451 1.88127 0)
(-0.288927 1.8726 0)
(-0.40345 1.85981 0)
(-0.516816 1.84336 0)
(-0.626753 1.82462 0)