/*--------------------------------*- C++ -*----------------------------------*\
| =========                 |                                                 |
| \\      /  F ield         | OpenFOAM: The Open Source CFD Toolbox           |
|  \\    /   O peration     | Version:  2012                                  |
|   \\  /    A nd           | Website:  www.openfoam.com                      |
|    \\/     M anipulation  |                                                 |
\*---------------------------------------------------------------------------*/
FoamFile
{
    version     2.0;
    format      ascii;
    class       volVectorField;
    location    "0.8";
    object      Uc;
}
// * * * * * * * * * * * * * * * * * * * * * * * * * * * * * * * * * * * * * //

dimensions      [0 1 -1 0 0 0 0];


internalField   nonuniform List<vector> 
2268
(
(-0.0216508 0.010232 0)
(-0.0640033 0.00978349 0)
(-0.105225 0.00969734 0)
(-0.145389 0.00928421 0)
(-0.182265 0.00814277 0)
(-0.214107 0.00690589 0)
(-0.241206 0.00590085 0)
(-0.263441 0.0046069 0)
(-0.279226 0.00285334 0)
(-0.287804 0.00120033 0)
(-0.289413 -0.000439743 0)
(-0.28407 -0.00208569 0)
(-0.272265 -0.00349296 0)
(-0.255006 -0.00466368 0)
(-0.233249 -0.00561845 0)
(-0.206928 -0.00682046 0)
(-0.174785 -0.00837023 0)
(-0.136944 -0.00951312 0)
(-0.0941614 -0.0107057 0)
(-0.0499765 -0.0101758 0)
(-0.0132799 -0.00716666 0)
(0.0143041 -0.00586933 0)
(0.0133617 0.00631466 0)
(-0.02179 0.0307618 0)
(-0.0643639 0.0293893 0)
(-0.105668 0.0290925 0)
(-0.145805 0.027839 0)
(-0.182745 0.0244725 0)
(-0.214879 0.0208112 0)
(-0.242283 0.0177531 0)
(-0.264584 0.0138016 0)
(-0.280302 0.008547 0)
(-0.288916 0.00363123 0)
(-0.290536 -0.00134435 0)
(-0.28501 -0.00631832 0)
(-0.273066 -0.0104835 0)
(-0.255878 -0.0139524 0)
(-0.234188 -0.0168628 0)
(-0.20785 -0.0204623 0)
(-0.175701 -0.0251121 0)
(-0.137767 -0.0285821 0)
(-0.0949669 -0.0320823 0)
(-0.0508834 -0.0305141 0)
(-0.0139169 -0.021641 0)
(0.0111272 -0.0162667 0)
(0.0103542 0.0175227 0)
(-0.0222227 0.0515618 0)
(-0.0653603 0.0490957 0)
(-0.106835 0.0485065 0)
(-0.147175 0.0464578 0)
(-0.184682 0.0410368 0)
(-0.217597 0.0349888 0)
(-0.245605 0.0297628 0)
(-0.268235 0.0230261 0)
(-0.284166 0.0142795 0)
(-0.292906 0.00609987 0)
(-0.294258 -0.0024084 0)
(-0.288323 -0.0106709 0)
(-0.27615 -0.0175284 0)
(-0.258699 -0.0232771 0)
(-0.236591 -0.028237 0)
(-0.209523 -0.0343276 0)
(-0.176434 -0.0420771 0)
(-0.137154 -0.0481084 0)
(-0.0924041 -0.0539315 0)
(-0.0442981 -0.052233 0)
(-0.00039505 -0.0381405 0)
(0.0276139 -0.0248396 0)
(0.0180864 0.0309635 0)
(-0.0224533 0.0726754 0)
(-0.0659751 0.0689367 0)
(-0.107768 0.0680168 0)
(-0.148292 0.0651633 0)
(-0.18604 0.0578963 0)
(-0.219619 0.0495539 0)
(-0.248425 0.0420476 0)
(-0.271637 0.0324063 0)
(-0.287896 0.0201118 0)
(-0.29672 0.00856798 0)
(-0.297985 -0.00363993 0)
(-0.291828 -0.0151537 0)
(-0.279245 -0.0247452 0)
(-0.261557 -0.0326669 0)
(-0.239706 -0.039622 0)
(-0.213464 -0.0481365 0)
(-0.181313 -0.0590995 0)
(-0.142072 -0.0681946 0)
(-0.0958178 -0.0768533 0)
(-0.0432886 -0.0768706 0)
(0.00831964 -0.0586409 0)
(0.0404816 -0.0327755 0)
(0.0243575 0.0510222 0)
(-0.0230269 0.094169 0)
(-0.0676739 0.089111 0)
(-0.110464 0.0878155 0)
(-0.151846 0.0840728 0)
(-0.190611 0.0751461 0)
(-0.225412 0.0646201 0)
(-0.255183 0.0546642 0)
(-0.278826 0.0419337 0)
(-0.295345 0.0260749 0)
(-0.304389 0.0110488 0)
(-0.305272 -0.00510549 0)
(-0.298484 -0.0198056 0)
(-0.285415 -0.0322164 0)
(-0.267161 -0.0421823 0)
(-0.244814 -0.0509939 0)
(-0.217791 -0.061937 0)
(-0.184457 -0.0762465 0)
(-0.143048 -0.0891624 0)
(-0.0931042 -0.101348 0)
(-0.0328204 -0.105691 0)
(0.0323653 -0.0850169 0)
(0.0705284 -0.0396346 0)
(0.0384043 0.0806829 0)
(-0.0232121 0.116021 0)
(-0.0686272 0.109821 0)
(-0.112158 0.107899 0)
(-0.153659 0.103159 0)
(-0.192645 0.0928039 0)
(-0.228426 0.0803189 0)
(-0.259728 0.0678277 0)
(-0.284964 0.0518702 0)
(-0.302576 0.0322686 0)
(-0.311665 0.0134245 0)
(-0.31201 -0.00690104 0)
(-0.304366 -0.0248302 0)
(-0.290006 -0.0401544 0)
(-0.271103 -0.0518049 0)
(-0.249324 -0.0622246 0)
(-0.223977 -0.0754558 0)
(-0.192533 -0.0933415 0)
(-0.152152 -0.110721 0)
(-0.10071 -0.127704 0)
(-0.0326699 -0.13998 0)
(0.0462621 -0.118837 0)
(0.0934854 -0.0461676 0)
(0.0505145 0.122705 0)
(-0.0238593 0.138267 0)
(-0.0712988 0.131458 0)
(-0.117046 0.128454 0)
(-0.159941 0.12249 0)
(-0.200011 0.110835 0)
(-0.236715 0.0965438 0)
(-0.268554 0.0814426 0)
(-0.294093 0.0622509 0)
(-0.312542 0.0389299 0)
(-0.322681 0.0158507 0)
(-0.322838 -0.00909056 0)
(-0.314195 -0.0303373 0)
(-0.299204 -0.0485186 0)
(-0.280143 -0.0613824 0)
(-0.258619 -0.0731114 0)
(-0.232832 -0.0887347 0)
(-0.199851 -0.11051 0)
(-0.157426 -0.132686 0)
(-0.102925 -0.155806 0)
(-0.0277719 -0.179549 0)
(0.0618199 -0.15891 0)
(0.114186 -0.0531597 0)
(0.0607189 0.175273 0)
(-0.0238048 0.160792 0)
(-0.0719311 0.154096 0)
(-0.118892 0.149629 0)
(-0.162646 0.142264 0)
(-0.204574 0.129812 0)
(-0.24494 0.113989 0)
(-0.280455 0.0958282 0)
(-0.308185 0.0730401 0)
(-0.326551 0.0455387 0)
(-0.33457 0.0178236 0)
(-0.332934 -0.0117626 0)
(-0.322776 -0.0365504 0)
(-0.305392 -0.0576055 0)
(-0.284998 -0.0709417 0)
(-0.264229 -0.0835395 0)
(-0.240187 -0.101856 0)
(-0.209019 -0.127705 0)
(-0.170052 -0.153956 0)
(-0.121053 -0.183449 0)
(-0.0499061 -0.221048 0)
(0.0442109 -0.204231 0)
(0.107661 -0.0625731 0)
(0.0601631 0.232401 0)
(-0.384904 0.163637 0)
(-0.999973 0.0977724 0)
(-1.34759 0.0498891 0)
(-1.48995 0.0105673 0)
(-1.49979 -0.00635337 0)
(-1.4786 -0.00266416 0)
(-1.52464 0.0221546 0)
(-1.65325 0.0324922 0)
(-1.78713 0.0244163 0)
(-1.88898 0.0188723 0)
(-1.96157 0.0120043 0)
(-2.00496 0.00646569 0)
(-2.01819 -0.000861554 0)
(-1.98201 -0.0145733 0)
(-1.85759 -0.0384208 0)
(-1.58515 -0.0774759 0)
(-1.15868 -0.103829 0)
(-0.678828 -0.100192 0)
(-0.221611 -0.0942316 0)
(-0.32018 0.463393 0)
(-0.851269 0.285145 0)
(-1.16733 0.14445 0)
(-1.29647 0.031284 0)
(-1.30872 -0.0176031 0)
(-1.28551 -0.0102873 0)
(-1.31593 0.0621063 0)
(-1.42196 0.0922357 0)
(-1.54071 0.0720554 0)
(-1.65356 0.0624477 0)
(-1.77534 0.0510397 0)
(-1.89586 0.0371419 0)
(-1.96521 0.00353804 0)
(-1.88917 -0.0670493 0)
(-1.61957 -0.154159 0)
(-1.22403 -0.246121 0)
(-0.815825 -0.289998 0)
(-0.474903 -0.262935 0)
(-0.16392 -0.258186 0)
(-0.286989 0.721597 0)
(-0.739525 0.445102 0)
(-0.97173 0.217394 0)
(-1.00998 0.0292805 0)
(-0.935598 -0.0420025 0)
(-0.922502 -0.00132499 0)
(-1.06438 0.126188 0)
(-1.28049 0.164979 0)
(-1.49758 0.142015 0)
(-1.79059 0.164946 0)
(-2.1833 0.167441 0)
(-2.44787 0.0846224 0)
(-2.16986 -0.132741 0)
(-1.39343 -0.293785 0)
(-0.709638 -0.334316 0)
(-0.345955 -0.390098 0)
(-0.17986 -0.390631 0)
(-0.123771 -0.331208 0)
(-0.055175 -0.351379 0)
(-0.210057 0.933028 0)
(-0.562806 0.576052 0)
(-0.769918 0.272884 0)
(-0.783456 -0.00468524 0)
(-0.622158 -0.108467 0)
(-0.455783 -0.0112247 0)
(-0.566765 0.24337 0)
(-0.975207 0.313216 0)
(-1.3824 0.259348 0)
(-1.65521 0.288315 0)
(-1.6015 0.188489 0)
(-0.901383 -0.121497 0)
(0.0390149 -0.44515 0)
(0.516815 -0.515597 0)
(0.593019 -0.437275 0)
(0.540528 -0.421088 0)
(0.401627 -0.371993 0)
(0.219214 -0.296271 0)
(0.0618517 -0.348537 0)
(-0.15387 1.08784 0)
(-0.414609 0.681997 0)
(-0.660186 0.358809 0)
(-0.748332 -0.0482204 0)
(-0.500803 -0.239375 0)
(-0.177098 -0.0889611 0)
(-0.0508966 0.314447 0)
(-0.196557 0.47773 0)
(-0.578576 0.430742 0)
(-0.709986 0.289033 0)
(-0.237796 -0.0357648 0)
(0.349632 -0.444682 0)
(0.609826 -0.632616 0)
(0.684101 -0.563429 0)
(0.729414 -0.441969 0)
(0.702562 -0.383385 0)
(0.583755 -0.300419 0)
(0.387429 -0.206747 0)
(0.136272 -0.264261 0)
(-0.0724478 1.18412 0)
(-0.0893101 0.703555 0)
(-0.221227 0.496877 0)
(-0.437492 -0.0579987 0)
(-0.227732 -0.425097 0)
(0.0671654 -0.166922 0)
(0.153827 0.301741 0)
(0.224711 0.522007 0)
(0.252735 0.536946 0)
(0.310448 0.214284 0)
(0.459774 -0.225085 0)
(0.556242 -0.545735 0)
(0.61729 -0.667768 0)
(0.708116 -0.598367 0)
(0.771462 -0.453423 0)
(0.754331 -0.353365 0)
(0.644815 -0.233349 0)
(0.44355 -0.104701 0)
(0.159265 -0.138551 0)
(-0.0193229 1.22314 0)
(0.0601457 0.63752 0)
(0.142345 0.582929 0)
(0.152393 -0.0577166 0)
(0.250272 -0.55725 0)
(0.320225 -0.190687 0)
(0.306825 0.294001 0)
(0.303914 0.500587 0)
(0.342928 0.529417 0)
(0.391133 0.176505 0)
(0.41831 -0.262138 0)
(0.458289 -0.566224 0)
(0.562085 -0.717202 0)
(0.699264 -0.645992 0)
(0.772202 -0.463864 0)
(0.730311 -0.318131 0)
(0.594028 -0.164418 0)
(0.387886 -0.000446706 0)
(0.133889 -0.0138567 0)
(0.00284285 1.2301 0)
(0.00390741 0.595742 0)
(0.10611 0.545022 0)
(0.364309 -0.135356 0)
(0.490094 -0.575869 0)
(0.457454 -0.189042 0)
(0.417866 0.314082 0)
(0.348377 0.511157 0)
(0.304339 0.520693 0)
(0.292144 0.169574 0)
(0.281098 -0.262052 0)
(0.284556 -0.584635 0)
(0.357624 -0.773873 0)
(0.486283 -0.702436 0)
(0.535419 -0.459426 0)
(0.437728 -0.263557 0)
(0.311704 -0.107893 0)
(0.213265 0.0724918 0)
(0.0809252 0.0775308 0)
(-0.0247421 0.196897 0)
(-0.0745933 0.190816 0)
(-0.12249 0.183227 0)
(-0.166031 0.173105 0)
(-0.206832 0.159799 0)
(-0.245956 0.142407 0)
(-0.281641 0.120065 0)
(-0.312446 0.0928738 0)
(-0.338248 0.0603212 0)
(-0.354698 0.0233667 0)
(-0.354949 -0.0178259 0)
(-0.340081 -0.0502335 0)
(-0.318306 -0.0740266 0)
(-0.297284 -0.0852905 0)
(-0.278739 -0.0976484 0)
(-0.2574 -0.120559 0)
(-0.229082 -0.152198 0)
(-0.192914 -0.184235 0)
(-0.144127 -0.225368 0)
(-0.0694483 -0.287821 0)
(0.039984 -0.291949 0)
(0.174246 -0.139903 0)
(0.32153 0.184064 0)
(-0.0303666 0.25256 0)
(-0.0899792 0.245711 0)
(-0.145622 0.232896 0)
(-0.196979 0.219249 0)
(-0.245352 0.20354 0)
(-0.288686 0.181569 0)
(-0.326575 0.154809 0)
(-0.359697 0.122326 0)
(-0.377598 0.0747437 0)
(-0.37336 0.0212165 0)
(-0.355736 -0.0331379 0)
(-0.333329 -0.0723888 0)
(-0.309869 -0.0973386 0)
(-0.290587 -0.102489 0)
(-0.276728 -0.11302 0)
(-0.262603 -0.140834 0)
(-0.243414 -0.179679 0)
(-0.219791 -0.216855 0)
(-0.188454 -0.273289 0)
(-0.14949 -0.354136 0)
(-0.0969345 -0.388527 0)
(-0.0241492 -0.25163 0)
(0.0880311 0.0350124 0)
(-0.0358165 0.319465 0)
(-0.106675 0.310713 0)
(-0.175758 0.29402 0)
(-0.244823 0.279928 0)
(-0.317389 0.265233 0)
(-0.389954 0.237076 0)
(-0.456394 0.204818 0)
(-0.526773 0.176611 0)
(-0.608975 0.121119 0)
(-0.661127 0.0225223 0)
(-0.634642 -0.0790432 0)
(-0.551377 -0.132498 0)
(-0.463442 -0.148991 0)
(-0.398748 -0.134875 0)
(-0.363924 -0.129552 0)
(-0.3434 -0.159101 0)
(-0.326091 -0.198057 0)
(-0.316536 -0.231791 0)
(-0.323756 -0.282592 0)
(-0.353638 -0.353967 0)
(-0.399515 -0.395618 0)
(-0.440505 -0.276295 0)
(-0.456811 -0.0361838 0)
(-0.0683202 0.424171 0)
(-0.209916 0.419641 0)
(-0.36134 0.406869 0)
(-0.562207 0.438637 0)
(-0.877529 0.49694 0)
(-1.27015 0.47386 0)
(-1.6561 0.42462 0)
(-1.93046 0.304872 0)
(-1.97656 0.12206 0)
(-1.84073 -0.0621199 0)
(-1.64065 -0.220093 0)
(-1.42698 -0.287044 0)
(-1.22302 -0.28631 0)
(-1.04713 -0.238882 0)
(-0.908812 -0.199056 0)
(-0.794192 -0.225029 0)
(-0.69115 -0.253076 0)
(-0.611052 -0.267009 0)
(-0.562515 -0.289028 0)
(-0.552632 -0.327548 0)
(-0.593661 -0.335191 0)
(-0.662377 -0.226479 0)
(-0.705557 -0.0257454 0)
(-0.114822 0.60814 0)
(-0.356639 0.620833 0)
(-0.63689 0.639356 0)
(-1.01077 0.783671 0)
(-1.46722 0.927604 0)
(-1.88622 0.859167 0)
(-2.22639 0.77047 0)
(-2.37003 0.381206 0)
(-2.2086 -0.0646773 0)
(-1.9448 -0.271532 0)
(-1.74158 -0.413528 0)
(-1.58342 -0.464978 0)
(-1.45732 -0.441509 0)
(-1.36567 -0.3553 0)
(-1.28815 -0.300219 0)
(-1.19531 -0.332576 0)
(-1.08406 -0.361306 0)
(-0.949534 -0.375047 0)
(-0.800535 -0.380261 0)
(-0.664289 -0.384083 0)
(-0.56616 -0.337235 0)
(-0.513202 -0.209444 0)
(-0.495517 -0.0174946 0)
(-0.125813 0.849907 0)
(-0.391673 0.889147 0)
(-0.71025 0.972751 0)
(-1.09598 1.21363 0)
(-1.4719 1.33422 0)
(-1.76894 1.17214 0)
(-1.94605 0.97748 0)
(-1.96074 0.334282 0)
(-1.90492 -0.228673 0)
(-1.85868 -0.411591 0)
(-1.81491 -0.522216 0)
(-1.80185 -0.533498 0)
(-1.84777 -0.459418 0)
(-1.84647 -0.433588 0)
(-1.72122 -0.426655 0)
(-1.57272 -0.449052 0)
(-1.46873 -0.46145 0)
(-1.36699 -0.512786 0)
(-1.18339 -0.577417 0)
(-0.921155 -0.588207 0)
(-0.694162 -0.460267 0)
(-0.529185 -0.30554 0)
(-0.379846 -0.0897298 0)
(-0.0847156 1.06142 0)
(-0.261364 1.12222 0)
(-0.459559 1.25892 0)
(-0.675403 1.53198 0)
(-0.939572 1.65915 0)
(-1.26813 1.47596 0)
(-1.5644 1.14938 0)
(-1.77966 0.393616 0)
(-1.89822 -0.222964 0)
(-1.90363 -0.455502 0)
(-1.87611 -0.550726 0)
(-1.86135 -0.537791 0)
(-1.80896 -0.464034 0)
(-1.71896 -0.518781 0)
(-1.64143 -0.542723 0)
(-1.58588 -0.536353 0)
(-1.54752 -0.516513 0)
(-1.54186 -0.565321 0)
(-1.59183 -0.659065 0)
(-1.59761 -0.764227 0)
(-1.41134 -0.699081 0)
(-1.0735 -0.57157 0)
(-0.700303 -0.348861 0)
(-0.0489859 1.19571 0)
(-0.140035 1.25681 0)
(-0.20991 1.3936 0)
(-0.234496 1.63881 0)
(-0.257491 1.84086 0)
(-0.367627 1.73517 0)
(-0.601255 1.42275 0)
(-0.968924 0.706108 0)
(-1.36067 -0.0226544 0)
(-1.61333 -0.396534 0)
(-1.70866 -0.541611 0)
(-1.6934 -0.577184 0)
(-1.622 -0.547394 0)
(-1.56529 -0.57713 0)
(-1.53856 -0.584175 0)
(-1.5173 -0.571416 0)
(-1.4917 -0.54679 0)
(-1.49917 -0.533096 0)
(-1.6281 -0.510452 0)
(-1.88736 -0.646191 0)
(-2.18045 -0.709523 0)
(-2.38999 -0.689829 0)
(-2.38607 -0.60935 0)
(-0.0202186 1.26517 0)
(-0.0525655 1.31119 0)
(-0.0559165 1.41264 0)
(0.00658516 1.58149 0)
(0.148421 1.77859 0)
(0.28235 1.77343 0)
(0.28081 1.6208 0)
(0.0244849 1.13519 0)
(-0.508577 0.477758 0)
(-1.11039 -0.0381237 0)
(-1.52121 -0.391311 0)
(-1.6487 -0.614796 0)
(-1.58712 -0.64235 0)
(-1.49239 -0.628476 0)
(-1.42891 -0.618324 0)
(-1.38765 -0.601368 0)
(-1.36563 -0.567937 0)
(-1.37248 -0.500753 0)
(-1.38797 -0.398631 0)
(-1.49453 -0.389206 0)
(-1.81967 -0.34447 0)
(-2.32176 -0.339192 0)
(-2.83979 -0.44283 0)
(-0.000255861 1.28565 0)
(0.00524263 1.3175 0)
(0.0304664 1.38416 0)
(0.0961543 1.48094 0)
(0.224413 1.60749 0)
(0.39642 1.63688 0)
(0.548453 1.60597 0)
(0.580911 1.37495 0)
(0.395935 0.959653 0)
(0.00663424 0.476151 0)
(-0.448739 -0.0349733 0)
(-0.825479 -0.464371 0)
(-1.06984 -0.608923 0)
(-1.22404 -0.600081 0)
(-1.30802 -0.623506 0)
(-1.30098 -0.643302 0)
(-1.26752 -0.581806 0)
(-1.27492 -0.476578 0)
(-1.30652 -0.378483 0)
(-1.31284 -0.296751 0)
(-1.25147 -0.171997 0)
(-1.17778 -0.0795791 0)
(-1.18001 -0.178596 0)
(0.0116349 1.27412 0)
(0.0407359 1.29406 0)
(0.0870388 1.33551 0)
(0.162225 1.3878 0)
(0.277102 1.45606 0)
(0.423789 1.46782 0)
(0.580494 1.46458 0)
(0.702534 1.36094 0)
(0.740072 1.12176 0)
(0.677587 0.768068 0)
(0.496698 0.312579 0)
(0.195824 -0.130883 0)
(-0.134908 -0.364415 0)
(-0.396271 -0.426937 0)
(-0.588783 -0.518671 0)
(-0.811443 -0.529541 0)
(-1.09005 -0.447575 0)
(-1.2488 -0.442466 0)
(-1.23388 -0.393986 0)
(-1.17363 -0.33743 0)
(-1.12686 -0.242972 0)
(-1.04842 -0.163164 0)
(-0.925597 -0.214879 0)
(0.0192206 1.243 0)
(0.0608299 1.2539 0)
(0.112383 1.27712 0)
(0.181093 1.30138 0)
(0.275114 1.33235 0)
(0.39249 1.32595 0)
(0.529147 1.31143 0)
(0.662739 1.25702 0)
(0.750524 1.0996 0)
(0.771167 0.832178 0)
(0.718504 0.483127 0)
(0.590578 0.129496 0)
(0.420779 -0.121756 0)
(0.259691 -0.245038 0)
(0.0898382 -0.336399 0)
(-0.133538 -0.263524 0)
(-0.381105 -0.184664 0)
(-0.605663 -0.317706 0)
(-0.817464 -0.317922 0)
(-0.991767 -0.299088 0)
(-1.04813 -0.273316 0)
(-0.988197 -0.271152 0)
(-0.879733 -0.336528 0)
(0.023038 1.20043 0)
(0.0717323 1.20551 0)
(0.128558 1.21638 0)
(0.197354 1.22372 0)
(0.281303 1.23094 0)
(0.377876 1.21214 0)
(0.485954 1.17909 0)
(0.606212 1.13406 0)
(0.715532 1.02432 0)
(0.777976 0.823834 0)
(0.770302 0.552017 0)
(0.686305 0.27353 0)
(0.54354 0.0483072 0)
(0.375797 -0.0846457 0)
(0.212948 -0.162441 0)
(0.118187 -0.117771 0)
(0.0984102 -0.0617567 0)
(0.0120475 -0.128142 0)
(-0.205529 -0.0759588 0)
(-0.465379 -0.104737 0)
(-0.671163 -0.203565 0)
(-0.793315 -0.27475 0)
(-0.84953 -0.383327 0)
(0.023042 1.15401 0)
(0.070938 1.15464 0)
(0.124434 1.15616 0)
(0.186091 1.15262 0)
(0.258469 1.14473 0)
(0.340217 1.11894 0)
(0.428833 1.07442 0)
(0.525293 1.02075 0)
(0.622765 0.929638 0)
(0.69611 0.781909 0)
(0.719627 0.577912 0)
(0.688174 0.363584 0)
(0.614344 0.17588 0)
(0.520344 0.050797 0)
(0.418898 -0.0322993 0)
(0.316165 -0.0494759 0)
(0.232122 -0.0257745 0)
(0.189606 -0.0346563 0)
(0.210215 0.0284693 0)
(0.257824 0.00410618 0)
(0.251178 -0.0989505 0)
(0.177921 -0.183019 0)
(0.0501564 -0.29023 0)
(0.0235158 1.10711 0)
(0.0715909 1.10488 0)
(0.122977 1.10031 0)
(0.179303 1.08969 0)
(0.241969 1.07174 0)
(0.310173 1.04104 0)
(0.38164 0.991257 0)
(0.455628 0.932441 0)
(0.529562 0.845521 0)
(0.59142 0.730001 0)
(0.620732 0.576605 0)
(0.606154 0.411057 0)
(0.551731 0.257229 0)
(0.471873 0.144117 0)
(0.383173 0.0654244 0)
(0.305144 0.0344139 0)
(0.250866 0.0292883 0)
(0.20497 -0.000935081 0)
(0.169668 0.00942849 0)
(0.158387 -0.0134583 0)
(0.157892 -0.0742972 0)
(0.153828 -0.130032 0)
(0.139974 -0.200939 0)
(0.020811 1.06246 0)
(0.0631298 1.05847 0)
(0.107816 1.04995 0)
(0.155932 1.03488 0)
(0.208043 1.011 0)
(0.26329 0.977522 0)
(0.319634 0.926143 0)
(0.375283 0.867099 0)
(0.427192 0.78423 0)
(0.469598 0.686359 0)
(0.494484 0.565648 0)
(0.494051 0.436993 0)
(0.46656 0.313528 0)
(0.419611 0.215185 0)
(0.363751 0.139571 0)
(0.30963 0.0930111 0)
(0.269171 0.0658262 0)
(0.247348 0.0305072 0)
(0.245477 0.0152593 0)
(0.25491 -0.017523 0)
(0.254118 -0.0690312 0)
(0.237138 -0.114236 0)
(0.203664 -0.16925 0)
(0.0189252 1.02241 0)
(0.0571347 1.01737 0)
(0.0965775 1.0063 0)
(0.13778 0.988569 0)
(0.18087 0.961435 0)
(0.225241 0.92678 0)
(0.269231 0.875868 0)
(0.311127 0.81917 0)
(0.348231 0.742542 0)
(0.376189 0.657185 0)
(0.389403 0.556399 0)
(0.383538 0.452454 0)
(0.358856 0.3504 0)
(0.320896 0.263557 0)
(0.277945 0.19042 0)
(0.238204 0.136412 0)
(0.206631 0.0947308 0)
(0.179984 0.0502271 0)
(0.159254 0.0181598 0)
(0.148486 -0.0191779 0)
(0.145754 -0.0639301 0)
(0.147645 -0.104263 0)
(0.149252 -0.14728 0)
(0.015718 0.987492 0)
(0.0474854 0.981756 0)
(0.080082 0.969304 0)
(0.11355 0.950314 0)
(0.147666 0.921901 0)
(0.18176 0.887268 0)
(0.214567 0.838019 0)
(0.24473 0.784431 0)
(0.270248 0.714187 0)
(0.288573 0.638878 0)
(0.297328 0.552493 0)
(0.294948 0.464523 0)
(0.281584 0.376457 0)
(0.259421 0.297823 0)
(0.232209 0.226573 0)
(0.205157 0.167294 0)
(0.183234 0.117519 0)
(0.167979 0.0694555 0)
(0.160084 0.027605 0)
(0.156754 -0.0145516 0)
(0.151436 -0.0605632 0)
(0.144039 -0.102191 0)
(0.13678 -0.143763 0)
(0.0126817 0.958848 0)
(0.0382557 0.952567 0)
(0.0642226 0.939434 0)
(0.0905047 0.919938 0)
(0.116822 0.891351 0)
(0.142475 0.857589 0)
(0.166315 0.81059 0)
(0.187236 0.760354 0)
(0.203626 0.695989 0)
(0.213721 0.628367 0)
(0.21612 0.551657 0)
(0.209581 0.474193 0)
(0.19457 0.395187 0)
(0.173582 0.322349 0)
(0.149765 0.253226 0)
(0.126135 0.191474 0)
(0.105528 0.135983 0)
(0.0886514 0.0831835 0)
(0.0766991 0.0337231 0)
(0.0711058 -0.0118029 0)
(0.0709899 -0.0579503 0)
(0.0746741 -0.101169 0)
(0.0822525 -0.1452 0)
(0.0096214 0.936334 0)
(0.0288023 0.929905 0)
(0.0478213 0.91669 0)
(0.0666075 0.897196 0)
(0.0849197 0.869053 0)
(0.102348 0.836411 0)
(0.118163 0.791742 0)
(0.13152 0.744587 0)
(0.141414 0.685183 0)
(0.146758 0.623507 0)
(0.146848 0.553876 0)
(0.141369 0.483922 0)
(0.130653 0.411192 0)
(0.116123 0.341924 0)
(0.099392 0.274292 0)
(0.0824082 0.211117 0)
(0.0676619 0.151765 0)
(0.0562783 0.0956997 0)
(0.0491646 0.0402654 0)
(0.0468893 -0.0105398 0)
(0.0479199 -0.0602342 0)
(0.0515942 -0.106381 0)
(0.0585148 -0.154658 0)
(0.00642129 0.920116 0)
(0.0192135 0.913801 0)
(0.0317012 0.900943 0)
(0.0436667 0.881854 0)
(0.0548739 0.854548 0)
(0.0651028 0.822946 0)
(0.0737761 0.780427 0)
(0.0800185 0.736044 0)
(0.0830726 0.68056 0)
(0.0820689 0.623622 0)
(0.0767238 0.558904 0)
(0.0671956 0.493846 0)
(0.0538483 0.425327 0)
(0.0379703 0.35823 0)
(0.0212042 0.291536 0)
(0.00503213 0.227084 0)
(-0.00876556 0.164376 0)
(-0.0191582 0.104867 0)
(-0.0252265 0.0442413 0)
(-0.0253592 -0.0121998 0)
(-0.0190208 -0.066083 0)
(-0.00649538 -0.116914 0)
(0.01156 -0.169325 0)
(0.00307349 0.910484 0)
(0.00949465 0.903944 0)
(0.0158329 0.891701 0)
(0.0214952 0.873204 0)
(0.0261871 0.847047 0)
(0.0297412 0.816427 0)
(0.0318082 0.775989 0)
(0.0319197 0.73394 0)
(0.0298449 0.68153 0)
(0.0250409 0.628345 0)
(0.017456 0.567039 0)
(0.00735251 0.50531 0)
(-0.0049175 0.439483 0)
(-0.0185463 0.373609 0)
(-0.0327221 0.307139 0)
(-0.0462734 0.241242 0)
(-0.0577119 0.175473 0)
(-0.066033 0.112471 0)
(-0.0704428 0.047062 0)
(-0.070179 -0.0152562 0)
(-0.0649083 -0.0747966 0)
(-0.0535665 -0.132289 0)
(-0.0362193 -0.189631 0)
(-0.000142378 0.907453 0)
(-0.000268044 0.900478 0)
(-0.000412566 0.888773 0)
(-0.000948895 0.870814 0)
(-0.00232489 0.845942 0)
(-0.0048966 0.816385 0)
(-0.00909073 0.778014 0)
(-0.0152002 0.737793 0)
(-0.0232701 0.687727 0)
(-0.033601 0.637219 0)
(-0.0460836 0.578199 0)
(-0.0605106 0.518675 0)
(-0.0765001 0.454396 0)
(-0.0932786 0.389137 0)
(-0.109591 0.322138 0)
(-0.124341 0.254575 0)
(-0.136587 0.185834 0)
(-0.145144 0.118967 0)
(-0.149357 0.0491284 0)
(-0.148801 -0.0182481 0)
(-0.142777 -0.0832565 0)
(-0.129788 -0.148381 0)
(-0.110741 -0.210214 0)
(-0.00281186 0.910342 0)
(-0.00877946 0.903553 0)
(-0.0152763 0.892215 0)
(-0.0221546 0.874668 0)
(-0.0297279 0.850928 0)
(-0.0382598 0.822408 0)
(-0.0481018 0.785951 0)
(-0.0593128 0.747121 0)
(-0.071897 0.699019 0)
(-0.0859559 0.650306 0)
(-0.101384 0.593035 0)
(-0.118007 0.534922 0)
(-0.135352 0.471533 0)
(-0.153118 0.406603 0)
(-0.170578 0.338502 0)
(-0.186891 0.269321 0)
(-0.201286 0.197757 0)
(-0.212875 0.12719 0)
(-0.22145 0.0536573 0)
(-0.226752 -0.0181051 0)
(-0.227452 -0.0888472 0)
(-0.223519 -0.159894 0)
(-0.21715 -0.22434 0)
(-0.00564971 0.918772 0)
(-0.0172867 0.912668 0)
(-0.0295371 0.901794 0)
(-0.0423624 0.884746 0)
(-0.055971 0.861996 0)
(-0.0705707 0.834448 0)
(-0.086547 0.799722 0)
(-0.103923 0.761948 0)
(-0.122706 0.715587 0)
(-0.142818 0.667954 0)
(-0.16417 0.612228 0)
(-0.186703 0.554964 0)
(-0.209731 0.491953 0)
(-0.232624 0.426937 0)
(-0.25483 0.357928 0)
(-0.2764 0.287868 0)
(-0.296883 0.214165 0)
(-0.31535 0.140893 0)
(-0.331167 0.0643743 0)
(-0.344068 -0.0106203 0)
(-0.354641 -0.0850926 0)
(-0.362969 -0.15932 0)
(-0.366274 -0.228077 0)
(-0.00877684 0.933203 0)
(-0.0265402 0.92765 0)
(-0.044749 0.91729 0)
(-0.0635333 0.900884 0)
(-0.0830611 0.879028 0)
(-0.103315 0.852315 0)
(-0.124508 0.819083 0)
(-0.146644 0.782172 0)
(-0.169901 0.737493 0)
(-0.194257 0.690623 0)
(-0.219607 0.636383 0)
(-0.24604 0.579912 0)
(-0.273437 0.517577 0)
(-0.302015 0.452941 0)
(-0.331382 0.383658 0)
(-0.360758 0.313245 0)
(-0.389916 0.238586 0)
(-0.418137 0.163302 0)
(-0.446101 0.0858776 0)
(-0.47464 0.00944171 0)
(-0.499026 -0.0701002 0)
(-0.512235 -0.152747 0)
(-0.508717 -0.234943 0)
(-0.0118699 0.953891 0)
(-0.0357563 0.948696 0)
(-0.0599401 0.938726 0)
(-0.0846475 0.923036 0)
(-0.110225 0.902087 0)
(-0.136792 0.876193 0)
(-0.16461 0.844345 0)
(-0.193699 0.808279 0)
(-0.224249 0.765353 0)
(-0.256288 0.719333 0)
(-0.28971 0.666637 0)
(-0.324428 0.611015 0)
(-0.359744 0.549406 0)
(-0.395375 0.485549 0)
(-0.431956 0.417237 0)
(-0.469574 0.346907 0)
(-0.507901 0.272663 0)
(-0.548668 0.198479 0)
(-0.590105 0.120375 0)
(-0.622442 0.036053 0)
(-0.637774 -0.0568688 0)
(-0.633122 -0.157456 0)
(-0.607738 -0.259363 0)
(-0.0152038 0.981044 0)
(-0.0457404 0.976127 0)
(-0.0764546 0.966357 0)
(-0.10747 0.951297 0)
(-0.139015 0.931127 0)
(-0.171149 0.906041 0)
(-0.204172 0.87554 0)
(-0.238271 0.840487 0)
(-0.27376 0.799417 0)
(-0.310812 0.754611 0)
(-0.349585 0.703823 0)
(-0.390442 0.649693 0)
(-0.433719 0.58963 0)
(-0.479491 0.527052 0)
(-0.527005 0.460169 0)
(-0.576919 0.391868 0)
(-0.630906 0.320406 0)
(-0.682811 0.243804 0)
(-0.718768 0.152766 0)
(-0.732673 0.0500643 0)
(-0.726096 -0.0621578 0)
(-0.700561 -0.182587 0)
(-0.659707 -0.300888 0)
(-0.0183914 1.01476 0)
(-0.0553371 1.01013 0)
(-0.0925809 1.00055 0)
(-0.130376 0.986162 0)
(-0.169096 0.966785 0)
(-0.20892 0.942607 0)
(-0.250146 0.913502 0)
(-0.292911 0.879684 0)
(-0.337397 0.840508 0)
(-0.383577 0.797084 0)
(-0.431151 0.748047 0)
(-0.479803 0.695346 0)
(-0.529506 0.637345 0)
(-0.581782 0.577801 0)
(-0.638835 0.514441 0)
(-0.700549 0.44972 0)
(-0.757947 0.374438 0)
(-0.794862 0.278977 0)
(-0.807329 0.166194 0)
(-0.799651 0.0428187 0)
(-0.772955 -0.0884319 0)
(-0.733 -0.222216 0)
(-0.685048 -0.350595 0)
(-0.0218061 1.05511 0)
(-0.0654991 1.05074 0)
(-0.109273 1.04129 0)
(-0.153257 1.02753 0)
(-0.197723 1.00894 0)
(-0.242935 0.985833 0)
(-0.289291 0.958216 0)
(-0.337128 0.925949 0)
(-0.386862 0.888859 0)
(-0.438861 0.847329 0)
(-0.493488 0.800443 0)
(-0.550928 0.749503 0)
(-0.611514 0.693963 0)
(-0.675944 0.638413 0)
(-0.744026 0.579535 0)
(-0.806106 0.508989 0)
(-0.843607 0.410487 0)
(-0.854758 0.29117 0)
(-0.848064 0.159732 0)
(-0.823271 0.0165693 0)
(-0.785277 -0.127278 0)
(-0.741832 -0.267271 0)
(-0.695986 -0.39989 0)
(-0.0253907 1.10251 0)
(-0.0763451 1.09839 0)
(-0.127764 1.08923 0)
(-0.179938 1.07615 0)
(-0.233103 1.05837 0)
(-0.287394 1.03634 0)
(-0.342892 1.01001 0)
(-0.399519 0.979078 0)
(-0.457328 0.943746 0)
(-0.516508 0.904113 0)
(-0.577925 0.860223 0)
(-0.643178 0.812972 0)
(-0.713505 0.76201 0)
(-0.787392 0.709328 0)
(-0.85323 0.643164 0)
(-0.890897 0.545556 0)
(-0.89934 0.420033 0)
(-0.890468 0.283846 0)
(-0.864621 0.134278 0)
(-0.827589 -0.020189 0)
(-0.78766 -0.168912 0)
(-0.74516 -0.312091 0)
(-0.700892 -0.445712 0)
(-0.0282658 1.15641 0)
(-0.0848611 1.15252 0)
(-0.141663 1.1438 0)
(-0.19892 1.1315 0)
(-0.256931 1.11469 0)
(-0.316021 1.0939 0)
(-0.37644 1.06888 0)
(-0.43833 1.03926 0)
(-0.501762 1.00536 0)
(-0.566794 0.967283 0)
(-0.633894 0.926163 0)
(-0.704994 0.884022 0)
(-0.781792 0.838783 0)
(-0.854577 0.779925 0)
(-0.898759 0.683094 0)
(-0.908934 0.553651 0)
(-0.902183 0.413574 0)
(-0.881499 0.260532 0)
(-0.848887 0.098766 0)
(-0.812178 -0.0588623 0)
(-0.772299 -0.21052 0)
(-0.730048 -0.355731 0)
(-0.686111 -0.490791 0)
(-0.0327037 1.21766 0)
(-0.0981374 1.21386 0)
(-0.163861 1.20555 0)
(-0.230169 1.19389 0)
(-0.297197 1.17792 0)
(-0.36511 1.15827 0)
(-0.434002 1.13443 0)
(-0.503998 1.10621 0)
(-0.575415 1.07389 0)
(-0.648448 1.03747 0)
(-0.723376 0.99868 0)
(-0.800237 0.960173 0)
(-0.872979 0.91289 0)
(-0.920338 0.826528 0)
(-0.931517 0.692081 0)
(-0.923335 0.546607 0)
(-0.902663 0.392993 0)
(-0.868383 0.225805 0)
(-0.828862 0.0609281 0)
(-0.787611 -0.0994444 0)
(-0.744251 -0.253663 0)
(-0.69954 -0.400055 0)
(-0.653942 -0.536518 0)
(-0.0341666 1.28484 0)
(-0.102695 1.28127 0)
(-0.171858 1.27367 0)
(-0.241789 1.26266 0)
(-0.312366 1.24741 0)
(-0.383658 1.22864 0)
(-0.455834 1.2058 0)
(-0.529245 1.17894 0)
(-0.604701 1.14874 0)
(-0.683105 1.11479 0)
(-0.764718 1.07866 0)
(-0.845286 1.03839 0)
(-0.904224 0.966987 0)
(-0.922919 0.838775 0)
(-0.917174 0.685241 0)
(-0.902245 0.530162 0)
(-0.873472 0.359683 0)
(-0.835445 0.186379 0)
(-0.794341 0.0192583 0)
(-0.750923 -0.142933 0)
(-0.706599 -0.298364 0)
(-0.66173 -0.445447 0)
(-0.616458 -0.582514 0)
(-0.0399925 1.35936 0)
(-0.119986 1.356 0)
(-0.199759 1.3486 0)
(-0.278985 1.3376 0)
(-0.357991 1.32277 0)
(-0.437199 1.30451 0)
(-0.516403 1.28204 0)
(-0.595773 1.25622 0)
(-0.676371 1.22828 0)
(-0.758309 1.19638 0)
(-0.839005 1.16018 0)
(-0.903862 1.10301 0)
(-0.931102 0.988947 0)
(-0.925883 0.830314 0)
(-0.907844 0.669746 0)
(-0.877502 0.500103 0)
(-0.836127 0.319181 0)
(-0.792386 0.144641 0)
(-0.747989 -0.0249944 0)
(-0.702737 -0.187856 0)
(-0.657281 -0.343731 0)
(-0.611723 -0.491019 0)
(-0.565954 -0.628498 0)
(-0.0401297 1.43988 0)
(-0.120464 1.4366 0)
(-0.200947 1.42905 0)
(-0.281742 1.41797 0)
(-0.363027 1.40349 0)
(-0.444684 1.38546 0)
(-0.526668 1.36308 0)
(-0.609506 1.33819 0)
(-0.693691 1.31191 0)
(-0.778622 1.28045 0)
(-0.857062 1.23604 0)
(-0.905217 1.14071 0)
(-0.911736 0.985138 0)
(-0.897647 0.814673 0)
(-0.873577 0.643018 0)
(-0.836977 0.4595 0)
(-0.794713 0.27567 0)
(-0.751194 0.100397 0)
(-0.706461 -0.0703836 0)
(-0.661218 -0.233471 0)
(-0.615953 -0.389347 0)
(-0.571 -0.536422 0)
(-0.526149 -0.674223 0)
(-0.0463915 1.52683 0)
(-0.139018 1.52347 0)
(-0.231282 1.51579 0)
(-0.32293 1.50454 0)
(-0.413512 1.48965 0)
(-0.503142 1.47144 0)
(-0.592259 1.44905 0)
(-0.68088 1.42453 0)
(-0.767338 1.39706 0)
(-0.846625 1.36034 0)
(-0.902092 1.29072 0)
(-0.917615 1.15 0)
(-0.903271 0.967946 0)
(-0.875648 0.7899 0)
(-0.836391 0.604098 0)
(-0.789503 0.414462 0)
(-0.742758 0.231201 0)
(-0.696398 0.054485 0)
(-0.650449 -0.11566 0)
(-0.605458 -0.278932 0)
(-0.560534 -0.434579 0)
(-0.51583 -0.581347 0)
(-0.471238 -0.719239 0)
(-0.0454952 1.61919 0)
(-0.136396 1.61557 0)
(-0.227159 1.60763 0)
(-0.317729 1.59583 0)
(-0.408085 1.58021 0)
(-0.498462 1.5618 0)
(-0.589407 1.53967 0)
(-0.680614 1.51466 0)
(-0.769544 1.48321 0)
(-0.846426 1.43114 0)
(-0.887395 1.31683 0)
(-0.886026 1.13809 0)
(-0.864484 0.943754 0)
(-0.832522 0.754168 0)
(-0.79157 0.559175 0)
(-0.747846 0.368273 0)
(-0.70367 0.185967 0)
(-0.659128 0.00831555 0)
(-0.61394 -0.161131 0)
(-0.56917 -0.323718 0)
(-0.525115 -0.479263 0)
(-0.481356 -0.625614 0)
(-0.437758 -0.763649 0)
(-0.0523144 1.7175 0)
(-0.156787 1.71364 0)
(-0.260758 1.7053 0)
(-0.363725 1.69269 0)
(-0.46502 1.67598 0)
(-0.564364 1.65672 0)
(-0.661892 1.63418 0)
(-0.755565 1.60597 0)
(-0.838169 1.56431 0)
(-0.892225 1.48164 0)
(-0.9031 1.31842 0)
(-0.881111 1.113 0)
(-0.844688 0.910558 0)
(-0.799492 0.709782 0)
(-0.749601 0.512222 0)
(-0.700029 0.32142 0)
(-0.65107 0.139176 0)
(-0.604112 -0.0368938 0)
(-0.559228 -0.206487 0)
(-0.515086 -0.367761 0)
(-0.471855 -0.522984 0)
(-0.429165 -0.668817 0)
(-0.386546 -0.807135 0)
(-0.0507074 1.82105 0)
(-0.151956 1.81687 0)
(-0.252709 1.80785 0)
(-0.352708 1.79416 0)
(-0.451997 1.77613 0)
(-0.550774 1.75571 0)
(-0.648348 1.73131 0)
(-0.742529 1.69767 0)
(-0.823611 1.63714 0)
(-0.866741 1.5065 0)
(-0.864037 1.30176 0)
(-0.838187 1.08155 0)
(-0.802617 0.86962 0)
(-0.759392 0.661823 0)
(-0.712739 0.463117 0)
(-0.665727 0.273421 0)
(-0.61912 0.0910942 0)
(-0.572704 -0.0826902 0)
(-0.527855 -0.25091 0)
(-0.484959 -0.410848 0)
(-0.443292 -0.565256 0)
(-0.402523 -0.71046 0)
(-0.36191 -0.849178 0)
(-0.0578448 1.93017 0)
(-0.173445 1.92573 0)
(-0.288702 1.91612 0)
(-0.403172 1.90147 0)
(-0.515979 1.88202 0)
(-0.625673 1.85938 0)