# vtk DataFile Version 2.0
gauge_2
ASCII
DATASET POLYDATA
POINTS 43 double
0.2 0.0359992 0.005
0.2 0.0419991 0.005
0.2 0.047999 0.005
0.2 0.0607609 0.005
0.2 0.0735228 0.005
0.2 0.0862847 0.005
0.2 0.0990467 0.005
0.2 0.111809 0.005
0.2 0.124571 0.005
0.2 0.137332 0.005
0.2 0.150094 0.005
0.2 0.162856 0.005
0.2 0.175618 0.005
0.2 0.18838 0.005
0.2 0.201142 0.005
0.2 0.213904 0.005
0.2 0.226666 0.005
0.2 0.239428 0.005
0.2 0.25219 0.005
0.2 0.264952 0.005
0.2 0.277714 0.005
0.2 0.290476 0.005
0.2 0.303238 0.005
0.2 0.315999 0.005
0.2 0.328761 0.005
0.2 0.341523 0.005
0.2 0.354285 0.005
0.2 0.367047 0.005
0.2 0.379809 0.005
0.2 0.392571 0.005
0.2 0.405333 0.005
0.2 0.418095 0.005
0.2 0.430857 0.005
0.2 0.443619 0.005
0.2 0.456381 0.005
0.2 0.469143 0.005
0.2 0.481905 0.005
0.2 0.494666 0.005
0.2 0.507428 0.005
0.2 0.52019 0.005
0.2 0.532952 0.005
0.2 0.545714 0.005
0.2 0.558476 0.005
POINT_DATA 43
 FIELD attributes 1
alpha.water 1 43 float
1 1 1 1 0.999992 0.9146 0.454803 0.040198 7.74276e-06 0.000153633 0.000460562 0.000620521 0.000616468 0.000677116 0.000376771 7.20832e-06 5.11895e-13 4.92224e-13 3.15332e-13 6.13712e-14 4.29838e-15 6.97545e-16 2.20215e-16 7.63759e-17 2.17021e-17 5.71362e-18 1.33128e-18 3.23923e-19 7.59644e-20 1.70373e-20 3.66456e-21 8.17624e-22 1.90355e-22 4.29015e-23 8.74878e-24 1.56523e-24 2.31761e-25 2.7814e-26 2.62004e-27 1.49701e-28 4.49114e-30 4.85074e-32 1.3028e-35
