# vtk DataFile Version 2.0
gauge_2
ASCII
DATASET POLYDATA
POINTS 43 double
0.2 0.0359992 0.005
0.2 0.0419991 0.005
0.2 0.047999 0.005
0.2 0.0607609 0.005
0.2 0.0735228 0.005
0.2 0.0862847 0.005
0.2 0.0990467 0.005
0.2 0.111809 0.005
0.2 0.124571 0.005
0.2 0.137332 0.005
0.2 0.150094 0.005
0.2 0.162856 0.005
0.2 0.175618 0.005
0.2 0.18838 0.005
0.2 0.201142 0.005
0.2 0.213904 0.005
0.2 0.226666 0.005
0.2 0.239428 0.005
0.2 0.25219 0.005
0.2 0.264952 0.005
0.2 0.277714 0.005
0.2 0.290476 0.005
0.2 0.303238 0.005
0.2 0.315999 0.005
0.2 0.328761 0.005
0.2 0.341523 0.005
0.2 0.354285 0.005
0.2 0.367047 0.005
0.2 0.379809 0.005
0.2 0.392571 0.005
0.2 0.405333 0.005
0.2 0.418095 0.005
0.2 0.430857 0.005
0.2 0.443619 0.005
0.2 0.456381 0.005
0.2 0.469143 0.005
0.2 0.481905 0.005
0.2 0.494666 0.005
0.2 0.507428 0.005
0.2 0.52019 0.005
0.2 0.532952 0.005
0.2 0.545714 0.005
0.2 0.558476 0.005
POINT_DATA 43
 FIELD attributes 1
alpha.water 1 43 float
1 1 1 1 0.999989 0.976527 0.617421 0.1409 3.35857e-05 3.20534e-05 5.9785e-05 0.000129071 0.000114273 0.000229039 0.000788308 0.000867824 0.000279 7.37422e-13 1.36554e-12 9.06947e-13 2.00994e-13 3.85674e-14 1.08076e-14 4.43415e-15 2.0228e-15 8.51957e-16 3.05392e-16 9.60587e-17 2.72421e-17 6.89818e-18 1.54835e-18 2.96827e-19 5.25767e-20 1.14294e-20 2.91845e-21 4.70822e-22 4.89677e-23 3.27892e-24 1.31225e-25 2.50643e-27 1.80621e-29 3.77444e-32 6.93666e-36
