/*--------------------------------*- C++ -*----------------------------------*\
| =========                 |                                                 |
| \\      /  F ield         | OpenFOAM: The Open Source CFD Toolbox           |
|  \\    /   O peration     | Version:  2012                                  |
|   \\  /    A nd           | Website:  www.openfoam.com                      |
|    \\/     M anipulation  |                                                 |
\*---------------------------------------------------------------------------*/
FoamFile
{
    version     2.0;
    format      ascii;
    class       volScalarField;
    location    "0.83";
    object      minKappa;
}
// * * * * * * * * * * * * * * * * * * * * * * * * * * * * * * * * * * * * * //

dimensions      [0 0 0 0 0 0 0];


internalField   nonuniform List<scalar> 
2268
(
7.72935e-07
1.68041e-06
2.64529e-06
3.54022e-06
4.28307e-06
4.84553e-06
5.25135e-06
5.50135e-06
5.5967e-06
5.59069e-06
5.47326e-06
5.26249e-06
4.95031e-06
4.60627e-06
4.12618e-06
3.60584e-06
2.87483e-06
2.09055e-06
1.20436e-06
4.27326e-07
5.70279e-07
6.44898e-07
8.04349e-07
7.72935e-07
1.68041e-06
2.64529e-06
3.54022e-06
4.28307e-06
4.84553e-06
5.25135e-06
5.50135e-06
5.5967e-06
5.59069e-06
5.47326e-06
5.26249e-06
4.95031e-06
4.60627e-06
4.12618e-06
3.60584e-06
2.87483e-06
2.09055e-06
1.20436e-06
4.27326e-07
5.70279e-07
6.44898e-07
8.04349e-07
1.16762e-06
1.89505e-06
2.7893e-06
3.64557e-06
4.368e-06
4.91996e-06
5.31719e-06
5.55724e-06
5.64809e-06
5.63303e-06
5.50539e-06
5.29233e-06
4.98932e-06
4.65018e-06
4.18281e-06
3.66543e-06
2.96489e-06
2.21062e-06
1.40219e-06
7.86469e-07
8.15382e-07
8.46212e-07
9.00222e-07
1.64479e-06
2.21022e-06
3.01689e-06
3.81774e-06
4.50765e-06
5.04007e-06
5.41817e-06
5.64019e-06
5.71817e-06
5.6912e-06
5.55612e-06
5.3426e-06
5.05203e-06
4.71867e-06
4.2851e-06
3.78514e-06
3.14493e-06
2.4327e-06
1.72627e-06
1.23172e-06
1.21444e-06
1.24782e-06
1.30327e-06
2.15789e-06
2.60032e-06
3.32398e-06
4.06317e-06
4.70771e-06
5.21301e-06
5.5687e-06
5.7652e-06
5.82085e-06
5.77581e-06
5.63098e-06
5.41881e-06
5.14085e-06
4.81925e-06
4.42304e-06
3.95089e-06
3.38232e-06
2.73632e-06
2.14631e-06
1.77732e-06
1.77491e-06
1.80573e-06
1.87191e-06
2.69883e-06
3.04684e-06
3.69383e-06
4.36775e-06
4.96654e-06
5.43959e-06
5.76014e-06
5.91987e-06
5.94632e-06
5.87988e-06
5.72222e-06
5.50828e-06
5.23613e-06
4.93887e-06
4.59717e-06
4.16847e-06
3.68392e-06
3.1268e-06
2.66561e-06
2.45858e-06
2.45118e-06
2.48336e-06
2.70336e-06
3.26354e-06
3.5469e-06
4.12853e-06
4.73508e-06
5.26822e-06
5.69962e-06
5.98531e-06
6.10667e-06
6.0999e-06
6.00515e-06
5.8339e-06
5.61984e-06
5.35846e-06
5.10497e-06
4.8188e-06
4.44087e-06
4.03186e-06
3.58204e-06
3.30286e-06
3.27495e-06
3.12401e-06
3.10584e-06
3.77087e-06
3.86172e-06
4.10086e-06
4.62933e-06
5.19166e-06
5.69361e-06
6.08034e-06
6.29574e-06
6.34386e-06
6.28023e-06
6.15042e-06
5.96457e-06
5.73421e-06
5.48046e-06
5.28389e-06
5.05969e-06
4.74743e-06
4.4156e-06
4.10639e-06
4.01767e-06
4.20876e-06
3.82492e-06
3.83012e-06
5.06206e-06
2.38166e-05
4.39575e-05
0.000114543
0.00019734
0.000140832
0.00013008
0.000144462
0.000208388
0.000274849
0.000358314
0.000415632
0.000359546
0.000217754
0.000102867
7.18425e-05
5.41016e-05
2.76789e-05
1.44872e-05
5.76723e-06
2.38166e-05
4.24667e-05
0.000109804
0.000187954
0.000127882
0.000121913
0.000144462
0.000208388
0.000274849
0.000358314
0.000415632
0.000359546
0.000183145
0.000102867
7.18425e-05
5.41016e-05
2.76789e-05
1.094e-05
5.76723e-06
3.07702e-05
4.08453e-05
8.78094e-05
0.000134576
0.000127882
0.000121913
0.000178252
0.000533677
0.000684365
0.000531678
0.000394035
0.000164759
3.92559e-05
3.84614e-05
9.45341e-05
0.000118739
4.71565e-05
1.094e-05
6.03531e-06
4.01402e-05
4.08453e-05
8.78094e-05
0.000126012
8.18301e-05
6.6215e-05
0.000278723
0.00035022
0.000293719
0.000237084
0.000210896
4.57322e-05
2.70247e-05
2.97566e-05
2.81299e-05
2.30753e-05
1.61003e-05
9.62457e-06
4.94704e-06
4.76433e-05
4.42704e-05
9.90117e-05
0.000126012
6.13135e-05
1.13148e-05
8.05947e-05
0.000199521
0.000135507
0.000223649
5.30664e-05
3.60711e-05
2.70247e-05
2.97566e-05
2.81299e-05
2.30753e-05
1.61003e-05
8.60118e-06
3.95483e-06
5.37849e-05
8.38435e-05
0.000229509
0.000255295
6.13135e-05
1.13148e-05
1.83483e-05
0.000150737
0.000135507
0.000110023
3.29088e-05
3.60711e-05
4.97871e-05
9.41895e-05
4.37057e-05
2.74867e-05
1.70248e-05
8.60118e-06
3.88485e-06
5.81019e-05
0.000133505
0.000289374
0.000147799
0.000122985
1.6895e-05
1.7843e-05
5.18327e-05
6.99109e-05
2.68182e-05
3.23103e-05
5.66992e-05
0.000215849
0.000199414
8.5809e-05
9.39924e-05
5.18353e-05
1.10305e-05
3.88485e-06
6.3642e-05
0.000166379
0.000289374
0.000147799
0.000185678
5.46843e-05
1.7843e-05
4.38395e-05
2.49437e-05
2.59858e-05
3.23103e-05
0.000123831
0.000145437
0.00019989
8.5809e-05
9.39924e-05
5.50993e-05
1.82531e-05
6.66753e-06
7.01669e-06
7.3362e-06
8.05992e-06
8.84411e-06
9.5291e-06
1.0063e-05
1.03135e-05
1.0298e-05
1.01177e-05
9.84059e-06
9.49064e-06
9.08924e-06
8.72699e-06
8.52287e-06
8.29133e-06
7.93787e-06
7.59026e-06
7.34238e-06
7.50951e-06
8.42209e-06
1.04837e-05
1.48346e-05
1.16086e-05
2.21208e-05
2.21071e-05
2.16347e-05
2.02534e-05
1.81863e-05
1.675e-05
1.61811e-05
1.60765e-05
1.62555e-05
1.67329e-05
1.65934e-05
1.51675e-05
1.36967e-05
1.36755e-05
1.47816e-05
1.47444e-05
1.39408e-05
1.35081e-05
1.45571e-05
2.35744e-05
9.32728e-05
7.50059e-05
4.16731e-05
0.000182879
0.000181875
0.000171533
0.000142342
8.37391e-05
5.99694e-05
5.90996e-05
6.85246e-05
8.14164e-05
9.99008e-05
9.88726e-05
7.57251e-05
5.67864e-05
5.47178e-05
5.71308e-05
4.49239e-05
2.93176e-05
2.18764e-05
2.37023e-05
5.88809e-05
0.00022119
0.000113489
4.18088e-05
0.000493022
0.000660904
0.000864001
0.000821913
0.000715083
0.000636891
0.000610342
0.000616821
0.00053115
0.00047817
0.000516472
0.000501553
0.000399257
0.0003303
0.000261932
0.000193306
0.000113097
9.14184e-05
9.83571e-05
0.000218798
0.000350729
0.000376251
0.000148531
0.00085924
0.00141217
0.00174475
0.0016277
0.00112219
0.000947626
0.000906233
0.000901053
0.00103672
0.00114092
0.00120703
0.00117585
0.000816232
0.00034678
0.000204536
0.000204536
0.000322265
0.000436272
0.000443654
0.00045676
0.000442379
0.000422848
0.000199233
0.00149279
0.00194037
0.00182929
0.00170038
0.00158127
0.00114542
0.00110403
0.0011775
0.00177054
0.00157131
0.0011802
0.00097528
0.000974171
0.000961431
0.000585461
0.000408764
0.000449095
0.000460039
0.000469666
0.000516059
0.000474791
0.000366638
0.000239795
0.0021041
0.00222905
0.00178416
0.00142294
0.00138862
0.00143814
0.00152847
0.00157502
0.00134535
0.00137392
0.000986304
0.000913207
0.000911534
0.000930463
0.00103235
0.000889517
0.000682569
0.000571278
0.000644773
0.00069115
0.000713046
0.00065715
0.000406784
0.00248636
0.00235316
0.00158522
0.00122469
0.00107141
0.00115498
0.00127068
0.00132163
0.00128197
0.00133984
0.00129461
0.000991993
0.000911534
0.000903812
0.000903812
0.000997139
0.0010539
0.000886585
0.000882143
0.00103046
0.00110158
0.00115733
0.000857405
0.00242686
0.00231113
0.00161474
0.00111834
0.000931226
0.000816133
0.000685772
0.000666922
0.000779265
0.00101501
0.00116984
0.00122159
0.0010102
0.000992211
0.000946805
0.00104671
0.0010252
0.00104556
0.000935678
0.000871035
0.000871035
0.000893603
0.00096079
0.00217337
0.00224149
0.00183496
0.00135184
0.000920685
0.000548469
0.000290508
0.000230211
0.000230211
0.000448234
0.000631686
0.000786687
0.000901688
0.000956497
0.00104523
0.00100441
0.000978546
0.000927576
0.000902054
0.000801175
0.000705529
0.00069551
0.000528094
0.00189454
0.00194748
0.00182057
0.0015277
0.00122323
0.00089859
0.000603884
0.000425456
0.000414777
0.000367096
0.000347691
0.000387506
0.000515328
0.000575012
0.000594169
0.00074322
0.000852271
0.000811632
0.000742649
0.000682471
0.000665781
0.000639045
0.000510965
0.00164511
0.00165711
0.00163719
0.00150607
0.00130382
0.00110282
0.000917118
0.000740177
0.000592802
0.000445354
0.000347691
0.000358065
0.000332839
0.000310739
0.000290068
0.000360482
0.000422605
0.0004757
0.000617505
0.000751041
0.000674305
0.000580013
0.000437769
0.00143295
0.00142536
0.00140002
0.0013371
0.00123746
0.00108011
0.000933354
0.000808495
0.000683581
0.000545736
0.000414646
0.000308523
0.000259033
0.000259033
0.000246741
0.000228819
0.00019663
0.00019663
0.000284786
0.000384792
0.000469398
0.000518677
0.000490901
0.00126076
0.00124792
0.00121436
0.00115622
0.00109242
0.00100129
0.000892501
0.00078278
0.000674673
0.000563571
0.000459675
0.000368384
0.000297459
0.000243754
0.000197347
0.00018152
0.000173545
0.000138955
0.000176186
0.000216053
0.000217755
0.000242531
0.000284888
0.00112264
0.00111017
0.00107637
0.00102311
0.00096186
0.000880887
0.000790128
0.000708615
0.000627703
0.000541626
0.000453478
0.000365566
0.000286894
0.000222054
0.000179681
0.000144805
9.99012e-05
9.80514e-05
0.000105724
0.000171232
0.000219008
0.000240116
0.00023831
0.00101372
0.00100236
0.00097031
0.000924442
0.000868967
0.000797073
0.000715315
0.000637586
0.000564619
0.000491216
0.00041443
0.000334855
0.000260085
0.000194515
0.000138298
9.72888e-05
8.11366e-05
8.84985e-05
0.000122134
0.000136243
0.000144301
0.000162184
0.000169077
0.0009288
0.000918566
0.000889022
0.000849015
0.000792856
0.000725728
0.000652741
0.000580045
0.000509422
0.000439063
0.000366135
0.00028903
0.000213874
0.000144707
9.1887e-05
6.01858e-05
3.27305e-05
5.13962e-05
8.48423e-05
0.000128144
0.000165814
0.000191284
0.00017174
0.000863085
0.000853877
0.000827243
0.000791552
0.000740281
0.000681031
0.000615622
0.000547947
0.000479403
0.000410746
0.000341598
0.000271879
0.000203414
0.000138014
7.92374e-05
3.47849e-05
2.85295e-05
2.85295e-05
5.73399e-05
8.75623e-05
0.000116831
0.000148657
0.000145329
0.00081336
0.000804771
0.000780688
0.000743041
0.000696314
0.000642435
0.0005827
0.000519753
0.000454577
0.000388073
0.000320702
0.000252866
0.000187421
0.000126975
7.59052e-05
4.88008e-05
3.07554e-05
5.58319e-05
9.0291e-05
0.000122744
0.000154684
0.000181656
0.000160871
0.00077661
0.000768423
0.000745038
0.000710953
0.000669113
0.000620884
0.000567209
0.00051042
0.000451346
0.000391268
0.000331082
0.000271652
0.000214884
0.000162628
0.000118428
7.7772e-05
6.33197e-05
8.08313e-05
9.94516e-05
0.000121932
0.000146651
0.000170754
0.000153347
0.000750929
0.000740821
0.000717691
0.00068687
0.000649025
0.000605224
0.000556043
0.00050333
0.000447833
0.000391132
0.000334485
0.000279589
0.000228901
0.000186189
0.000153317
0.000121956
0.000108767
0.000115398
0.000134446
0.000157236
0.000179949
0.000200662
0.000174358
0.000733777
0.000722618
0.000701835
0.000674037
0.000639913
0.000600522
0.000556792
0.000510432
0.000462087
0.00041313
0.000364536
0.000317821
0.000274053
0.000230027
0.000193618
0.000168036
0.000157652
0.000160343
0.000173531
0.000191678
0.000210796
0.00022886
0.000192602
0.000721905
0.000711306
0.000693191
0.000668464
0.000637921
0.000602189
0.000562116
0.00051905
0.000473767
0.000428025
0.000382925
0.000340672
0.000302701
0.000270151
0.00023945
0.000217001
0.000206454
0.00020597
0.000214667
0.000229855
0.000248194
0.000267276
0.000238908
0.000718147
0.000707764
0.000691898
0.000669846
0.000642553
0.000610811
0.000576067
0.000539147
0.000500904
0.000462491
0.000424375
0.000384848
0.000347127
0.00031292
0.000286918
0.000267666
0.000259093
0.000258782
0.00026751
0.000283524
0.000303967
0.0003281
0.000295015
0.000720341
0.000710727
0.000696443
0.000677137
0.000653207
0.000624688
0.000592859
0.000558616
0.000523214
0.00048785
0.000453285
0.000421627
0.000390389
0.000361397
0.000339236
0.000323914
0.000318092
0.000321381
0.00033374
0.000354792
0.0003822
0.000411971
0.00035745
0.000728396
0.000720042
0.000707101
0.000689711
0.00066875
0.000644476
0.000618135
0.000589929
0.000559813
0.000528163
0.000495145
0.000464664
0.00043643
0.000412806
0.000395869
0.000386974
0.000387452
0.000398239
0.000418284
0.000448375
0.000477929
0.000500492
0.000394733
0.000739422
0.000733956
0.000723701
0.000708454
0.000689754
0.00066786
0.000643818
0.000618073
0.000591862
0.000564995
0.000536915
0.000511901
0.000489067
0.00047203
0.000461669
0.000460707
0.000468813
0.000489408
0.000517553
0.000544141
0.000556722
0.000560585
0.000417401
0.000754178
0.000749883
0.000741922
0.000729522
0.000714047
0.000695714
0.000674872
0.000652881
0.000628895
0.000606154
0.000582987
0.000563493
0.000546821
0.000537741
0.000535762
0.000544415
0.000563027
0.000590864
0.000608841
0.000611681
0.00060205
0.000591271
0.000433079
0.000774282
0.000770877
0.000764252
0.00075371
0.000740643
0.000725197
0.000708024
0.000689859
0.000670576
0.00065271
0.000635418
0.000622503
0.000613567
0.000613399
0.000621234
0.000640494
0.000664644
0.000675263
0.000659583
0.000630962
0.000609496
0.000600523
0.000442693
0.00079916
0.000796519
0.000791253
0.000782809
0.000772403
0.000759946
0.00074636
0.000731831
0.000717253
0.000704185
0.000693117
0.000687038
0.000686064
0.000694928
0.000712487
0.00073509
0.000735259
0.000696113
0.000658149
0.000627865
0.000611682
0.000606367
0.000448598
0.000829122
0.000827056
0.000822845
0.000816283
0.000808374
0.00079903
0.000789306
0.000779096
0.000769876
0.000762505
0.000758251
0.000759495
0.000767138
0.000784895
0.000805237
0.000799796
0.000747454
0.000696892
0.000652259
0.000622129
0.000604341
0.000594981
0.000441948
0.000863941
0.000862546
0.00085954
0.000854996
0.000849599
0.000843301
0.000837356
0.000831405
0.000827553
0.000825602
0.00082794
0.000835582
0.00085143
0.000872796
0.000854132
0.000790754
0.000730963
0.000673808
0.00063003
0.000601067
0.00057972
0.000571001
0.00043093
0.000903452
0.000902614
0.000900677
0.000898084
0.000895237
0.000892155
0.00089006
0.000888449
0.000889614
0.000893015
0.00090125
0.000915135
0.000935223
0.000923426
0.000852205
0.000782473
0.00071096
0.000648085
0.000601185
0.000569104
0.000550773
0.000546904
0.000416586
0.000948437
0.000948242
0.000947427
0.00094671
0.000946229
0.000946082
0.000947255
0.000949299
0.000954617
0.000962556
0.000975676
0.000993601
0.000988826
0.00091271
0.000832631
0.000751812
0.000673551
0.00061118
0.000565958
0.000531415
0.000517982
0.000521504
0.000409838
0.000996969
0.000997538
0.00099807
0.000999191
0.00100106
0.00100386
0.00100826
0.0010137
0.00102276
0.0010341
0.00105008
0.00106291
0.00099141
0.00090092
0.000811073
0.000717871
0.000634163
0.00056847
0.00052289
0.000495582
0.000490871
0.00049961
0.000397158
0.00105275
0.00105344
0.00105456
0.00105702
0.00106082
0.00106588
0.00107246
0.00108026
0.00109152
0.00110332
0.00111773
0.00106826
0.000969679
0.000869395
0.000766925
0.000668773
0.000588099
0.00052872
0.000484959
0.000460373
0.000465778
0.000486928
0.000401108
0.00111001
0.00111116
0.00111343
0.00111742
0.00112297
0.0011301
0.00113872
0.00114894
0.0011616
0.00117198
0.00115539
0.0010596
0.000949611
0.000839043
0.000726654
0.000625744
0.00054193
0.000480491
0.000447279
0.000433493
0.000441497
0.000459795
0.000394711
0.00117639
0.00117778
0.00118021
0.00118413
0.00119032
0.00119837
0.00120761
0.00121852
0.00122829
0.0012269
0.00114552
0.00102896
0.000907555
0.000785813
0.000671315
0.000574089
0.000498874
0.000446493
0.000411771
0.000409957
0.000435336
0.00046425
0.000409983
0.00124095
0.00124272
0.00124569
0.00125058
0.00125783
0.0012667
0.00127688
0.00128732
0.00129273
0.00125168
0.00113752
0.00100711
0.000877309
0.000749951
0.000633743
0.000533223
0.000453657
0.000403731
0.00038538
0.000388597
0.000406495
0.000446295
0.0004092
0.00131877
0.00132052
0.00132338
0.00132758
0.00133359
0.00134134
0.00134958
0.00135456
0.00133534
0.00123534
0.00109923
0.000958223
0.000820623
0.000691756
0.000577721
0.00048462
0.000418458
0.000374891
0.000364545
0.000386034
0.000417845
0.000467734
0.000433344
0.00138871
0.00139049
0.00139339
0.00139775
0.0014045
0.00141248
0.00141923
0.0014201
0.00136655
0.00123705
0.0010868
0.000938619
0.000795778
0.000663778
0.000546654
0.000448844
0.000378771
0.000347892
0.0003491
0.000359374
0.000400245
0.000458057
0.000433896
0.00148016
0.00148195
0.00148496
0.00148936
0.00149464
0.0014986
0.00149781
0.00146999
0.00134989
0.00119106
0.00102912
0.000875289
0.000732594
0.000604013
0.000493025
0.000407241
0.000355532
0.000346729
0.000346729
0.00037481
0.000427768
0.000493308
0.000465917
4.36633e-05
2.782e-05
1.07282e-05
1.07282e-05
3.85319e-05
1.35425e-05
1.35425e-05
2.44849e-05
2.49734e-05
2.49734e-05
3.69612e-05
5.38103e-05
5.30578e-05
5.07934e-05
5.07934e-05
6.03083e-05
6.94566e-05
6.00166e-05
6.00166e-05
8.37178e-05
0.000132538
0.000119156
0.000119156
0.000132619
0.000244197
0.000219241
0.000192705
0.000192705
0.000514909
0.000450946
0.000360537
0.000360537
0.000655428
0.000637613
0.000597731
0.000597731
0.000327233
0.000327233
0.000329968
0.000340688
0.000303472
0.000230283
0.000220759
0.000220759
0.000311688
0.000251105
0.000209932
0.000209932
0.000302624
0.000302624
0.00033804
0.00036469
0.000187
0.000187
0.000197341
0.00021829
0.000154564
0.000154564
0.00016549
0.000175183
0.00011676
0.00011676
0.000125605
0.000133492
0.000110899
0.000110899
0.000111329
0.000111329
9.63598e-05
9.63598e-05
9.84658e-05
9.86139e-05
0.000104206
0.000103889
0.000102055
0.000102055
0.000100543
0.000100543
0.00010097
0.00010097
0.000113772
0.000113772
0.00011475
0.00011475
0.000126386
0.000126386
0.000128885
0.000130708
0.000157394
0.000157394
0.000160946
0.000163963
0.000193871
0.000193871
0.000197797
0.000200887
0.000231544
0.000231544
0.000233208
0.000234384
0.0002535
0.0002535
0.000254144
0.000255286
0.000267703
0.000267703
0.000268412
0.000270135
0.000278819
0.000278819
0.000280475
0.000282735
0.00028583
0.00028583
0.000287882
0.00029025
0.000289319
0.000289319
0.000290804
0.000292314
0.000284692
0.000284692
0.000285893
0.000287424
0.000278302
0.000278302
0.000280253
0.000282548
0.000270307
0.000270307
0.000273579
0.000277236
0.000267622
0.000267622
0.000272401
0.00027753
0.000261414
0.000261414
0.000268138
0.000275151
0.000265645
0.000265645
0.000273972
0.000282511
0.00026341
0.00026341
0.00027346
0.000283659
0.000274483
0.000274483
0.000285637
0.000296832
0.000275339
0.000275339
0.000287728
0.00030001
0.0002916
0.0002916
0.000304649
0.000317468
0.000292734
0.000292734
0.0003065
0.000319935
0.000313894
0.000313894
0.000328198
0.000342099
4.27354e-05
0.000184754
0.000293031
0.000182225
0.000353899
0.000139265
3.96314e-05
2.9411e-05
2.49437e-05
2.52729e-05
6.62641e-05
5.6262e-05
8.11389e-05
0.000161771
0.000189284
0.000157166
8.84928e-05
4.03896e-05
6.176e-05
7.94815e-05
0.000240856
0.000157057
0.000274459
0.000458997
0.000331434
0.000227616
8.19728e-05
4.72834e-05
5.39402e-05
5.23814e-05
4.64059e-05
5.81841e-05
0.000147311
0.000343411
0.000269777
0.0002517
0.000249588
5.97463e-05
0.000122388
0.000331625
0.000157057
0.000455952
0.000955879
0.000714223
0.000192082
6.58426e-05
5.11794e-05
5.0875e-05
5.0875e-05
4.64059e-05
8.1815e-05
0.000409231
0.00045003
0.000345222
0.000320505
6.41361e-05
4.77696e-05
0.000147496
0.000310634
0.000348541
0.00102385
0.000422463
0.000313174
0.000212371
0.000100085
6.48465e-05
8.08423e-05
9.96695e-05
7.95206e-05
0.000193419
0.000280936
0.000331964
0.000208809
0.000148052
8.60657e-05
4.77696e-05
0.000323514
0.000310634
0.000624555
0.000586634
0.000283341
0.00023479
0.000189525
0.000146923
0.000296172
0.000537738
0.000403919
0.00044545
0.000272051
0.000334189
0.000241427
0.000184491
0.000148052
0.000200518
0.000130983
0.000258959
0.000340868
0.00100651
0.000905459
0.000382005
0.000256767
0.000206958
0.000146923
0.000220604
0.000589758
0.000697934
0.000575929
0.000658089
0.000503823
0.000328186
0.000256707
0.000255278
0.000433066
0.000574979
0.000274037
0.000447059
0.00136626
0.00099697
0.000592542
0.000331205
0.000237493
0.000183171
0.000367973
0.000233338
0.000432251
0.000609441
0.000539001
0.000475964
0.000778756
0.000764453
0.000939148
0.0010353
0.00109933
0.000289863
0.000529078
0.00151278
0.000817439
0.000592542
0.000482471
0.000301368
0.000366777
0.000515847
0.000233338
0.000338729
0.00032718
0.000443995
0.000456772
0.000653469
0.000725604
0.000968408
0.00141969
0.00179272
0.000680555
0.000795196
0.0010787
0.000767783
0.000543808
0.000369085
0.000422042
0.00023576
0.000389031
0.000383626
0.000346706
0.00032718
0.000621487
0.00074161
0.000402324
0.000368173
0.000569587
0.00117915
0.00198706
0.000588834
0.000639074
0.000455763
0.000622293
0.000187974
0.00031179
0.000322475
0.00023576
0.000417041
0.000673826
0.00064485
0.000655777
0.00119203
0.000688611
0.000322517
0.000322517
0.000414736
0.00106218
0.00204036
0.000375901
0.000412753
0.000300148
0.000286498
7.85111e-05
0.00015838
0.000351917
0.000471939
0.000704646
0.00113067
0.00124734
0.00126081
0.000929852
0.000534123
0.000384695
0.000404406
0.000592483
0.00103084
0.00189095
0.000318701
0.000275935
0.000197222
0.00017868
7.85111e-05
0.000356735
0.000611482
0.000933883
0.000941256
0.00107617
0.00103144
0.000948042
0.000565299
0.000534123
0.000472978
0.000584115
0.000675831
0.000992252
0.00181122
0.000508638
0.000440613
0.000311369
0.000269111
0.000292276
0.000721864
0.00106152
0.000989754
0.000874096
0.000793236
0.000627103
0.000598112
0.000470357
0.00054795
0.00056829
0.000652628
0.000705508
0.00106169
0.00201528
0.000398309
0.000528404
0.00059005
0.000531738
0.000690987
0.00093148
0.000956106
0.000832892
0.000631385
0.000405234
0.000301401
0.000423397
0.000470357
0.000598512
0.000673624
0.000724019
0.000734816
0.00101083
0.00172665
0.000303421
0.000383144
0.000454314
0.00051578
0.000536225
0.00064295
0.000641027
0.000535316
0.000320121
0.000227431
0.000227431
0.000331945
0.000505015
0.000693445
0.000764193
0.000780904
0.000762954
0.00102057
0.00162864
0.000236645
0.000278959
0.000286243
0.000293849
0.000288998
0.000361709
0.000384622
0.000278631
0.000278631
0.000279723
0.00035685
0.000496054
0.000648275
0.000784982
0.000833887
0.000835025
0.000785933
0.000924003
0.0014754
0.000183786
0.000185128
0.000143946
0.00013154
0.000135247
0.00024204
0.000346277
0.000371994
0.000363037
0.000477861
0.00059715
0.000671832
0.000782782
0.000857348
0.000867568
0.000826795
0.000742992
0.00081383
0.00126589
0.000163873
0.00016026
0.000108298
5.85455e-05
0.000108286
0.000182273
0.000325923
0.000454983
0.000621155
0.000678027
0.000756104
0.000811409
0.000875634
0.000884171
0.000821853
0.000762097
0.00067307
0.000710314
0.00106999
0.000166837
0.000155876
8.99388e-05
5.85455e-05
0.000105063
0.000229084
0.00038228
0.000541756
0.000699388
0.000775751
0.00084361
0.000878098
0.000872404
0.000828974
0.000748659
0.000684527
0.00059602
0.000605874
0.000882684
0.000167196
0.000172514
0.000134416
8.36101e-05
0.00015468
0.000231736
0.000361647
0.000515971
0.000671874
0.000749566
0.00082325
0.000838738
0.000819501
0.000765856
0.000680145
0.000610659
0.000518873
0.000500865
0.000715096
0.000191703
0.000202643
0.00018518
0.000162538
0.000207901
0.000287235
0.000411018
0.000540668
0.000652328
0.000726703
0.000790365
0.00080055
0.000778248
0.000720004
0.000630386
0.000549993
0.000450511
0.000401829
0.000563903
0.000221816
0.000252116
0.000250759
0.000240066
0.000275764
0.000337462
0.0004318
0.000541215
0.000638253
0.000702282
0.000754129
0.000758749
0.000741013
0.00068286
0.00059308
0.000500792
0.000391681
0.000308858
0.000423653
0.000279352
0.000322422
0.000326124
0.000324018
0.000342523
0.000390329
0.00045973
0.000548241
0.000638253
0.000694748
0.000725278
0.000713179
0.000690309
0.000637967
0.000554432
0.000456017
0.000343277
0.000234684
0.000294069
0.000341267
0.000405172
0.000413293
0.000416592
0.000430577
0.000472652
0.0005214
0.00058914
0.000655149
0.000694748
0.000725278
0.000700936
0.000651679
0.000591784
0.000519968
0.000418568
0.000292197
0.000209085
0.000176887
0.000394664
0.000479802
0.000490791
0.000500899
0.000516565
0.000570292
0.000615532
0.000675458
0.000719521
0.000731839
0.000735319
0.000700936
0.000650255
0.000557562
0.000491541
0.000410559
0.000296785
0.000184205
0.000102558
0.000430151
0.000538901
0.000552919
0.000566819
0.000590941
0.000661326
0.000719942
0.000784424
0.000818507
0.000809936
0.000792614
0.000729922
0.000650255
0.000546718
0.000466654
0.000417131
0.000339132
0.00019358
0.000102558
0.000456214
0.000584138
0.000599223
0.000615871
0.000646036
0.000734252
0.000812179
0.000891118
0.00092358
0.000908659
0.000879931
0.000789696
0.000682019
0.000546718
0.000451564
0.000420263
0.000375497
0.000287419
0.000129555
0.000477812
0.000615864
0.000628398
0.00064561
0.000682047
0.000787668
0.00088649
0.000982161
0.00101978
0.00101406
0.000982005
0.000871555
0.000735456
0.000560535
0.000451564
0.000437425
0.000432247
0.000392887
0.000234321
0.000490089
0.000634346
0.00064209
0.000659829
0.000703584
0.000824811
0.000939904
0.00105461
0.00110536
0.0011194
0.00109128
0.000971802
0.00080779
0.000595917
0.000453264
0.000465292
0.000506067
0.00049456
0.000356016
0.000492281
0.00063609
0.000645556
0.000668038
0.000720076
0.000850927
0.000976809
0.00111181
0.00118272
0.00121783
0.00120075
0.00108559
0.000896078
0.000638088
0.000469442
0.000502498
0.000590899
0.000605873
0.000483739
0.000484325
0.000633515
0.000645556
0.000674395
0.000734405
0.000871496
0.00100071
0.00115642
0.00125144
0.0013058
0.00130926
0.00120635
0.00100052
0.000707109
0.000500886
0.000550133
0.000686991
0.000727214
0.000619225
0.000477616
0.000633515
0.000648281
0.000684564
0.00075198
0.000896552
0.00102321
0.00119289
0.00131275
0.00138638
0.00141797
0.00133011
0.00111295
0.000772405
0.000541059
0.000606312
0.000793967
0.000859306
0.000767249
0.00047118
0.000634166
0.000655852
0.00069863
0.00077003
0.000926309
0.00105234
0.00122638
0.00136749
0.00146277
0.00152691
0.00145741
0.00123477
0.000860633
0.000590474
0.000670119
0.000910005
0.00100204
0.00093058
0.000474026
0.000642301
0.000671227
0.000720203
0.000789868
0.000956227
0.0010883
0.0012633
0.00142017
0.00153872
0.0016357
0.00158675
0.00135664
0.000935409
0.00064357
0.000742191
0.00103521
0.00115741
0.00110164
0.000473071
0.00065502
0.000690945
0.000747532
0.00081389
0.00098508
0.00112733
0.00130296
0.00147208
0.00161425
0.00174051
0.00171332
0.00148526
0.00102064
0.000691867
0.000818603
0.00115762
0.00132814
0.00127754
0.000487827
0.00067423
0.000715896
0.000779222
0.000843596
0.00101457
0.00116745
0.00134453
0.00152283
0.00168732
0.00183906
0.0018357
0.00160808
0.00109087
0.000728959
0.000900512
0.00128711
0.00149584
0.00146013
0.000492348
0.000696366
0.000742253
0.000811506
0.000876737
0.00104339
0.00120595
0.00138647
0.00157111
0.00175461
0.00192976
0.00195245
0.00173172
0.00116103
0.000740849
0.000973056
0.00139337
0.00165426
0.00163028
0.000515986
0.000722344
0.000771667
0.000844071
0.000912235
0.00107376
0.00124206
0.00142722
0.00161665
0.00181367
0.00200985
0.00205814
0.00182148
0.0011501
0.000676722
0.000990933
0.00150869
0.00181529
0.00179233
0.000523084
0.000748145
0.000800859
0.000874331
0.000946566
0.00110404
0.00127414
0.00146444
0.00165812
0.00186375
0.00207812
0.00214702
0.00190869
0.00113403
0.000571177
0.000965369
0.00157741
0.00196067
0.00194294
0.000553106
0.000776204
0.000832158
0.00090579
0.000980997
0.00113561
0.00130567
0.00149883
0.00169547
0.00190532
0.0021338
0.00221422
0.00196502
0.00107246
0.000460451
0.000928411
0.00166877
0.00208527
0.00207237
0.000558174
0.000801213
0.000860158
0.000933458
0.00101044
0.00116394
0.00133267
0.00152687
0.00172532
0.00193592
0.00217433
0.00225827
0.00202366
0.00105967
0.000338251
0.000879213
0.00170118
0.0021786
0.00217182
0.000595977
0.000830609
0.0008922
0.00096546
0.00104337
0.00119609
0.00136317
0.00155635
0.00175624
0.00196391
0.00220891
0.00229028
0.00205265
0.000971816
0.000338251
0.000813123
0.00175035
0.00224694
0.0022488
)
;

boundaryField
{
    leftWall
    {
        type            calculated;
        value           uniform 0;
    }
    rightWall
    {
        type            calculated;
        value           uniform 0;
    }
    lowerWall
    {
        type            calculated;
        value           uniform 0;
    }
    atmosphere
    {
        type            calculated;
        value           uniform 0;
    }
    defaultFaces
    {
        type            empty;
    }
}


// ************************************************************************* //
