/*--------------------------------*- C++ -*----------------------------------*\
| =========                 |                                                 |
| \\      /  F ield         | OpenFOAM: The Open Source CFD Toolbox           |
|  \\    /   O peration     | Version:  2012                                  |
|   \\  /    A nd           | Website:  www.openfoam.com                      |
|    \\/     M anipulation  |                                                 |
\*---------------------------------------------------------------------------*/
FoamFile
{
    version     2.0;
    format      ascii;
    class       volScalarField;
    location    "0.83";
    object      rho2;
}
// * * * * * * * * * * * * * * * * * * * * * * * * * * * * * * * * * * * * * //

dimensions      [1 -3 0 0 0 0 0];


internalField   nonuniform List<scalar> 
2268
(
1.30513
1.30514
1.30518
1.30518
1.30521
1.30518
1.30516
1.30509
1.30506
1.30499
1.30497
1.30492
1.30491
1.30489
1.30488
1.30485
1.3048
1.30471
1.30455
1.30436
1.30411
1.30393
1.30389
1.30435
1.30436
1.30441
1.30442
1.30446
1.30443
1.30442
1.30434
1.30431
1.30424
1.30422
1.30417
1.30416
1.30413
1.30413
1.3041
1.30406
1.30397
1.3038
1.30361
1.30335
1.30317
1.30312
1.30356
1.30358
1.30363
1.30365
1.3037
1.30367
1.30366
1.30358
1.30356
1.30347
1.30346
1.3034
1.3034
1.30337
1.30337
1.30334
1.30329
1.30321
1.30303
1.30284
1.30254
1.30235
1.30233
1.30273
1.30276
1.30283
1.30288
1.30295
1.30294
1.30293
1.30285
1.30281
1.30272
1.30271
1.30265
1.30264
1.30261
1.30262
1.3026
1.30256
1.30246
1.30229
1.30208
1.30176
1.30156
1.30151
1.3019
1.30193
1.30202
1.30208
1.30217
1.30216
1.30217
1.30208
1.30205
1.30195
1.30194
1.30187
1.30187
1.30184
1.30185
1.30183
1.30178
1.30169
1.3015
1.30127
1.30086
1.30063
1.30062
1.301
1.30105
1.30119
1.30129
1.30145
1.30146
1.30147
1.30136
1.30131
1.30118
1.30118
1.30111
1.30112
1.30108
1.3011
1.30108
1.30105
1.30096
1.30077
1.30047
1.30001
1.29976
1.29973
1.3001
1.30017
1.30033
1.30047
1.30063
1.30066
1.30068
1.30059
1.30053
1.3004
1.3004
1.30031
1.30032
1.3003
1.30033
1.30031
1.30027
1.30017
1.29993
1.29958
1.29887
1.29856
1.29852
1.29914
1.29923
1.29947
1.29966
1.29997
1.30001
1.30004
1.29988
1.29981
1.29962
1.29966
1.29957
1.29958
1.29952
1.29957
1.29956
1.29955
1.29945
1.29922
1.29872
1.29786
1.29741
1.29757
1.3177
1.3108
1.30558
1.30327
1.3027
1.30396
1.3022
1.30145
1.30098
1.30093
1.30088
1.3036
1.30672
1.3063
1.30418
1.30449
1.30505
1.30623
1.3073
1.31673
1.30954
1.30444
1.30233
1.3022
1.30363
1.30164
1.30076
1.30038
1.30027
1.30044
1.30191
1.3056
1.30672
1.30493
1.30409
1.304
1.30537
1.30637
1.3128
1.3068
1.30277
1.30119
1.30134
1.30258
1.30075
1.30027
1.30007
1.30001
1.30007
1.30238
1.3055
1.30516
1.30277
1.30303
1.30344
1.30475
1.30564
1.31022
1.30491
1.30134
1.30027
1.30153
1.3026
1.3007
1.30017
1.3002
1.3001
1.30005
1.3014
1.30335
1.30345
1.30329
1.30318
1.30289
1.30411
1.30517
1.30654
1.30189
1.2995
1.29922
1.30075
1.30184
1.30025
1.3003
1.3002
1.30013
1.30025
1.30137
1.30138
1.30001
1.29949
1.30082
1.30156
1.30363
1.30456
1.30437
1.3006
1.29876
1.29869
1.30001
1.30202
1.30077
1.30016
1.30019
1.30012
1.30074
1.30036
1.29944
1.29844
1.29824
1.29959
1.3004
1.30262
1.30382
1.30181
1.29894
1.29863
1.29837
1.29911
1.30087
1.30043
1.30012
1.30003
1.30037
1.30121
1.30011
1.29907
1.29766
1.29724
1.29843
1.29925
1.3021
1.30283
1.30077
1.29877
1.29852
1.29841
1.29861
1.30034
1.30015
1.30045
1.30025
1.30159
1.30114
1.29976
1.29852
1.29742
1.29729
1.29871
1.29904
1.30082
1.3022
1.2976
1.29773
1.29803
1.29833
1.29858
1.29874
1.29877
1.29867
1.29853
1.2984
1.29838
1.29827
1.29827
1.2983
1.29837
1.29837
1.29833
1.29821
1.29784
1.29716
1.29582
1.29533
1.29469
1.29535
1.29558
1.29613
1.29677
1.29772
1.2977
1.2977
1.2973
1.2971
1.29665
1.29703
1.29689
1.29691
1.29667
1.29684
1.2968
1.29686
1.29673
1.29651
1.29521
1.29399
1.29337
1.29353
1.29377
1.29395
1.2945
1.29495
1.29554
1.2961
1.29609
1.29603
1.29553
1.29549
1.29522
1.295
1.29492
1.29514
1.29525
1.29517
1.29505
1.29491
1.29443
1.29387
1.29303
1.29284
1.29235
1.2935
1.29359
1.29393
1.29476
1.296
1.29588
1.2958
1.29524
1.29444
1.2938
1.29495
1.2951
1.29494
1.29393
1.29368
1.29365
1.29364
1.29362
1.29358
1.29344
1.29287
1.29295
1.2922
1.29344
1.29342
1.29338
1.29341
1.29375
1.29407
1.29381
1.29348
1.29346
1.29377
1.29356
1.29394
1.29349
1.29327
1.29328
1.2933
1.29329
1.29329
1.29327
1.29322
1.29312
1.2931
1.2931
1.2934
1.29337
1.29324
1.29305
1.29301
1.29305
1.29303
1.29299
1.29293
1.29317
1.29377
1.2938
1.29377
1.29333
1.29324
1.29323
1.29324
1.29324
1.29323
1.29321
1.29318
1.29319
1.29324
1.29335
1.2933
1.29315
1.29303
1.29303
1.29303
1.29302
1.29294
1.29295
1.29292
1.29318
1.29318
1.29324
1.2929
1.29322
1.29328
1.29326
1.29324
1.29319
1.29313
1.2931
1.29307
1.29309
1.29331
1.29327
1.29315
1.29305
1.29303
1.29304
1.29305
1.29306
1.29306
1.29304
1.29306
1.29322
1.29328
1.29312
1.29302
1.29318
1.2932
1.29319
1.29314
1.29305
1.29298
1.29291
1.29287
1.29327
1.29326
1.29319
1.29309
1.29305
1.29304
1.29305
1.29306
1.29308
1.29308
1.29311
1.29311
1.29312
1.29317
1.29293
1.29315
1.29312
1.29319
1.29314
1.29308
1.29299
1.29293
1.2929
1.29325
1.29324
1.29321
1.29317
1.29312
1.29308
1.29307
1.29307
1.29306
1.29307
1.2931
1.29313
1.29315
1.29315
1.2931
1.2931
1.29292
1.29283
1.29292
1.29314
1.29311
1.29311
1.29312
1.29323
1.29323
1.29322
1.2932
1.29318
1.29317
1.29316
1.29314
1.29312
1.29309
1.29309
1.29311
1.29315
1.29317
1.29318
1.29315
1.29317
1.29324
1.2932
1.29306
1.29276
1.29278
1.29265
1.29322
1.29322
1.29322
1.29321
1.2932
1.29319
1.29319
1.29318
1.29317
1.29315
1.29312
1.29313
1.29314
1.29317
1.29319
1.2932
1.2932
1.29318
1.29316
1.29315
1.29328
1.29337
1.29333
1.29321
1.29321
1.2932
1.2932
1.2932
1.2932
1.2932
1.2932
1.29319
1.29318
1.29316
1.29316
1.29317
1.29318
1.29319
1.2932
1.2932
1.2932
1.29319
1.29319
1.2932
1.2932
1.2932
1.2932
1.2932
1.2932
1.2932
1.2932
1.2932
1.2932
1.2932
1.2932
1.29319
1.29318
1.29318
1.29318
1.29319
1.2932
1.2932
1.2932
1.2932
1.2932
1.2932
1.29321
1.29321
1.29321
1.2932
1.2932
1.29319
1.29319
1.29319
1.29319
1.2932
1.2932
1.2932
1.29319
1.29319
1.29319
1.29319
1.29319
1.2932
1.2932
1.2932
1.2932
1.2932
1.2932
1.29321
1.29321
1.29321
1.29319
1.29319
1.29319
1.29319
1.29319
1.29319
1.29319
1.29319
1.29319
1.29319
1.29319
1.29319
1.29319
1.2932
1.2932
1.2932
1.2932
1.2932
1.2932
1.2932
1.29321
1.29321
1.29321
1.29319
1.29319
1.29319
1.29319
1.29319
1.29319
1.29319
1.29319
1.29319
1.29319
1.29319
1.29319
1.29319
1.29319
1.2932
1.2932
1.2932
1.2932
1.2932
1.2932
1.2932
1.29321
1.29321
1.29319
1.29319
1.29319
1.29319
1.29319
1.29319
1.29319
1.29319
1.29319
1.29319
1.29319
1.29319
1.29319
1.29319
1.29319
1.2932
1.2932
1.2932
1.2932
1.2932
1.2932
1.2932
1.29321
1.29319
1.29319
1.29319
1.29319
1.29319
1.29319
1.29319
1.29319
1.29319
1.29319
1.29319
1.29319
1.29319
1.29319
1.29319
1.2932
1.2932
1.2932
1.2932
1.2932
1.2932
1.2932
1.2932
1.29319
1.29319
1.29319
1.29319
1.29319
1.29319
1.29319
1.29319
1.29319
1.29319
1.29319
1.29319
1.29319
1.29319
1.29319
1.29319
1.29319
1.2932
1.2932
1.2932
1.2932
1.2932
1.2932
1.29319
1.29319
1.29319
1.29319
1.29319
1.29319
1.29319
1.29319
1.29319
1.29319
1.29319
1.29319
1.29319
1.29319
1.29319
1.29319
1.29319
1.29319
1.29319
1.29319
1.29319
1.29319
1.29319
1.29318
1.29318
1.29318
1.29318
1.29318
1.29318
1.29318
1.29318
1.29318
1.29319
1.29319
1.29319
1.29319
1.29319
1.29319
1.29319
1.29319
1.29319
1.29319
1.29319
1.29318
1.29317
1.29316
1.29318
1.29318
1.29318
1.29318
1.29318
1.29318
1.29318
1.29318
1.29318
1.29318
1.29318
1.29318
1.29318
1.29319
1.29319
1.29319
1.29318
1.29318
1.29318
1.29316
1.29315
1.29314
1.29314
1.29318
1.29318
1.29318
1.29318
1.29318
1.29318
1.29318
1.29318
1.29318
1.29318
1.29318
1.29318
1.29318
1.29318
1.29318
1.29318
1.29317
1.29316
1.29314
1.29313
1.29313
1.29313
1.29313
1.29317
1.29317
1.29318
1.29318
1.29318
1.29318
1.29318
1.29318
1.29318
1.29318
1.29318
1.29318
1.29317
1.29317
1.29317
1.29316
1.29314
1.29313
1.29312
1.29312
1.29312
1.29312
1.29311
1.29317
1.29317
1.29317
1.29317
1.29317
1.29317
1.29317
1.29317
1.29317
1.29317
1.29317
1.29317
1.29316
1.29316
1.29314
1.29313
1.29312
1.29312
1.29312
1.29312
1.29311
1.29309
1.29308
1.29317
1.29317
1.29317
1.29317
1.29317
1.29317
1.29317
1.29317
1.29316
1.29316
1.29316
1.29315
1.29314
1.29313
1.29312
1.29312
1.29312
1.29312
1.29311
1.2931
1.29308
1.29307
1.29306
1.29316
1.29316
1.29316
1.29316
1.29316
1.29316
1.29316
1.29316
1.29315
1.29315
1.29314
1.29313
1.29312
1.29311
1.29311
1.29311
1.29311
1.29311
1.29309
1.29308
1.29307
1.29306
1.29305
1.29315
1.29315
1.29315
1.29315
1.29315
1.29315
1.29315
1.29314
1.29314
1.29313
1.29312
1.29311
1.29311
1.29311
1.29311
1.29311
1.2931
1.29309
1.29307
1.29307
1.29306
1.29305
1.29305
1.29314
1.29314
1.29314
1.29314
1.29314
1.29314
1.29313
1.29313
1.29312
1.29311
1.2931
1.2931
1.2931
1.2931
1.2931
1.2931
1.29308
1.29307
1.29306
1.29306
1.29305
1.29305
1.29305
1.29313
1.29313
1.29313
1.29312
1.29312
1.29312
1.29312
1.29311
1.2931
1.2931
1.2931
1.2931
1.2931
1.2931
1.2931
1.29308
1.29307
1.29306
1.29306
1.29306
1.29305
1.29305
1.29305
1.29311
1.29311
1.29311
1.29311
1.29311
1.2931
1.2931
1.2931
1.29309
1.29309
1.29309
1.2931
1.2931
1.29309
1.29308
1.29307
1.29306
1.29306
1.29306
1.29306
1.29306
1.29305
1.29305
1.2931
1.2931
1.2931
1.2931
1.2931
1.29309
1.29309
1.29309
1.29309
1.29309
1.29309
1.29309
1.29309
1.29308
1.29307
1.29306
1.29306
1.29306
1.29306
1.29306
1.29306
1.29306
1.29305
1.29309
1.29309
1.29309
1.29309
1.29308
1.29308
1.29308
1.29308
1.29308
1.29309
1.29309
1.29309
1.29308
1.29307
1.29307
1.29306
1.29306
1.29306
1.29306
1.29306
1.29306
1.29306
1.29306
1.29308
1.29308
1.29308
1.29308
1.29308
1.29308
1.29308
1.29308
1.29308
1.29309
1.29309
1.29308
1.29307
1.29307
1.29306
1.29306
1.29306
1.29306
1.29306
1.29306
1.29306
1.29306
1.29306
1.29307
1.29307
1.29307
1.29307
1.29307
1.29307
1.29307
1.29308
1.29308
1.29308
1.29308
1.29307
1.29307
1.29306
1.29306
1.29306
1.29306
1.29307
1.29307
1.29307
1.29307
1.29307
1.29307
1.29307
1.29307
1.29307
1.29307
1.29307
1.29307
1.29307
1.29308
1.29308
1.29308
1.29307
1.29307
1.29306
1.29306
1.29306
1.29306
1.29307
1.29307
1.29307
1.29307
1.29307
1.29307
1.29307
1.29306
1.29306
1.29306
1.29306
1.29306
1.29307
1.29307
1.29308
1.29308
1.29307
1.29307
1.29306
1.29306
1.29306
1.29306
1.29307
1.29307
1.29307
1.29307
1.29308
1.29308
1.29308
1.29308
1.29306
1.29306
1.29306
1.29306
1.29306
1.29306
1.29307
1.29307
1.29307
1.29306
1.29306
1.29306
1.29306
1.29306
1.29306
1.29307
1.29307
1.29308
1.29308
1.29308
1.29308
1.29308
1.29308
1.29306
1.29306
1.29306
1.29306
1.29306
1.29306
1.29307
1.29307
1.29306
1.29306
1.29305
1.29305
1.29306
1.29306
1.29307
1.29307
1.29308
1.29308
1.29308
1.29308
1.29308
1.29308
1.29308
1.29305
1.29305
1.29305
1.29305
1.29305
1.29306
1.29306
1.29306
1.29306
1.29305
1.29305
1.29305
1.29306
1.29307
1.29307
1.29308
1.29308
1.29309
1.29309
1.29309
1.29309
1.29309
1.29309
1.29305
1.29305
1.29305
1.29305
1.29306
1.29306
1.29306
1.29306
1.29305
1.29305
1.29305
1.29305
1.29306
1.29307
1.29308
1.29308
1.29309
1.29309
1.29309
1.29309
1.29309
1.29308
1.29308
1.29454
1.29425
1.29577
1.2938
1.29441
1.29382
1.29486
1.29435
1.29179
1.29214
1.29265
1.29339
1.29243
1.29248
1.29307
1.29413
1.29326
1.29379
1.29416
1.29501
1.29352
1.29356
1.2938
1.29386
1.29312
1.2931
1.29312
1.29317
1.29284
1.29283
1.29282
1.29286
1.29283
1.29281
1.29284
1.29288
1.29305
1.29304
1.29309
1.29314
1.29287
1.29281
1.29279
1.29289
1.29318
1.29324
1.29341
1.29344
1.2932
1.2932
1.29321
1.29321
1.29321
1.29321
1.29321
1.29321
1.29321
1.29321
1.29321
1.29321
1.29321
1.29321
1.29321
1.29321
1.29321
1.29321
1.29321
1.29321
1.29321
1.29321
1.29321
1.29321
1.2932
1.29321
1.29321
1.29321
1.2932
1.2932
1.2932
1.2932
1.29319
1.29318
1.29318
1.29318
1.29316
1.29316
1.29315
1.29315
1.29314
1.29314
1.29313
1.29313
1.29312
1.29312
1.29312
1.29311
1.2931
1.29309
1.29309
1.29308
1.29307
1.29307
1.29306
1.29306
1.29306
1.29305
1.29305
1.29305
1.29305
1.29305
1.29304
1.29304
1.29304
1.29304
1.29304
1.29303
1.29304
1.29304
1.29303
1.29303
1.29304
1.29304
1.29304
1.29303
1.29305
1.29304
1.29304
1.29304
1.29305
1.29305
1.29305
1.29304
1.29306
1.29305
1.29305
1.29305
1.29306
1.29306
1.29306
1.29305
1.29307
1.29306
1.29306
1.29306
1.29307
1.29307
1.29307
1.29307
1.29308
1.29307
1.29307
1.29307
1.29308
1.29308
1.29308
1.29308
1.29308
1.29308
1.29308
1.29308
1.29309
1.29308
1.29308
1.29308
1.29308
1.29308
1.29308
1.29307
1.29848
1.29847
1.29824
1.29826
1.29819
1.29879
1.29967
1.30062
1.30222
1.30223
1.3013
1.29954
1.29776
1.2967
1.29654
1.29758
1.29824
1.3007
1.30105
1.29745
1.2979
1.2982
1.29807
1.29797
1.29792
1.29844
1.30002
1.30076
1.30065
1.2991
1.29831
1.29626
1.29578
1.296
1.29662
1.29668
1.29785
1.30041
1.29624
1.29736
1.29788
1.29794
1.29805
1.29859
1.2993
1.29923
1.29804
1.29828
1.29754
1.29676
1.29563
1.29523
1.29489
1.29524
1.29489
1.29572
1.2973
1.29503
1.29664
1.29566
1.29755
1.29736
1.29833
1.30054
1.29818
1.29547
1.29292
1.29388
1.29418
1.29444
1.29448
1.29494
1.29482
1.29465
1.29488
1.29572
1.2937
1.29544
1.29412
1.29545
1.29544
1.29749
1.29728
1.29836
1.29393
1.29323
1.29348
1.29315
1.29356
1.29363
1.29414
1.29433
1.29429
1.29382
1.29381
1.29397
1.2937
1.29326
1.29272
1.29381
1.29491
1.29556
1.29605
1.29353
1.29276
1.29279
1.29311
1.2932
1.29324
1.29344
1.29346
1.29337
1.29358
1.29361
1.29322
1.29308
1.29271
1.29278
1.29335
1.29347
1.29425
1.29358
1.29316
1.29256
1.29296
1.29276
1.29309
1.29323
1.29329
1.2933
1.29328
1.29317
1.29323
1.29293
1.29279
1.2927
1.29285
1.29332
1.2933
1.29325
1.29321
1.29317
1.29309
1.293
1.29312
1.29316
1.29321
1.29324
1.29322
1.29315
1.29312
1.29298
1.29286
1.29273
1.29273
1.29289
1.29324
1.29321
1.29316
1.29323
1.2932
1.29317
1.29316
1.29312
1.29315
1.29323
1.29323
1.29323
1.2932
1.29309
1.29291
1.2932
1.29302
1.29291
1.29306
1.29329
1.29312
1.29315
1.29321
1.29317
1.29315
1.29312
1.29313
1.29317
1.29321
1.29323
1.29322
1.29322
1.29318
1.29303
1.29297
1.29327
1.29332
1.29318
1.29322
1.29321
1.29317
1.2932
1.29316
1.29315
1.29315
1.29316
1.29319
1.29322
1.29323
1.29323
1.29323
1.2932
1.29322
1.29342
1.29334
1.2932
1.29323
1.29315
1.29319
1.2932
1.29318
1.29316
1.29316
1.29317
1.29318
1.2932
1.29321
1.29322
1.29322
1.29323
1.29321
1.29335
1.2932
1.29319
1.29315
1.29315
1.2932
1.29319
1.29321
1.29319
1.29317
1.29317
1.29317
1.29318
1.29319
1.2932
1.29322
1.29322
1.29323
1.29321
1.29339
1.2932
1.29318
1.29315
1.29315
1.29318
1.29321
1.2932
1.29318
1.29317
1.29316
1.29314
1.29314
1.29317
1.29319
1.29322
1.29322
1.29322
1.29321
1.29336
1.29321
1.2932
1.29315
1.29312
1.29314
1.29316
1.29317
1.29315
1.2931
1.29307
1.29308
1.29311
1.29315
1.29319
1.29321
1.29322
1.29322
1.29321
1.29329
1.29321
1.29321
1.29319
1.29313
1.29311
1.29311
1.29312
1.2931
1.29306
1.29305
1.29307
1.2931
1.29315
1.29319
1.29321
1.29322
1.29322
1.29322
1.29326
1.29321
1.29321
1.29321
1.29319
1.29315
1.29311
1.2931
1.29309
1.29307
1.29308
1.29311
1.29315
1.29318
1.2932
1.29322
1.29322
1.29322
1.29322
1.29324
1.29321
1.29321
1.29321
1.29321
1.29321
1.29318
1.29315
1.29313
1.29314
1.29316
1.29317
1.29319
1.2932
1.29321
1.29322
1.29322
1.29322
1.29322
1.29324
1.29321
1.29321
1.29321
1.29321
1.29321
1.29321
1.29321
1.29321
1.29321
1.2932
1.2932
1.29321
1.29321
1.29321
1.29322
1.29322
1.29322
1.29322
1.29323
1.2932
1.2932
1.2932
1.29321
1.29321
1.29321
1.29321
1.29321
1.29321
1.29321
1.2932
1.2932
1.29321
1.29321
1.29321
1.29322
1.29322
1.29322
1.29323
1.29318
1.29318
1.29318
1.29318
1.29318
1.29318
1.29318
1.29318
1.29318
1.29318
1.29318
1.29318
1.29318
1.29319
1.2932
1.29321
1.29322
1.29322
1.29322
1.29315
1.29315
1.29314
1.29314
1.29314
1.29314
1.29313
1.29313
1.29313
1.29313
1.29313
1.29314
1.29315
1.29317
1.29318
1.2932
1.29321
1.29321
1.29322
1.29313
1.29312
1.29311
1.2931
1.2931
1.29309
1.29309
1.29308
1.29308
1.29308
1.29309
1.29311
1.29313
1.29315
1.29316
1.29318
1.29321
1.29321
1.29321
1.2931
1.29309
1.29308
1.29307
1.29306
1.29305
1.29304
1.29303
1.29303
1.29304
1.29305
1.29307
1.2931
1.29313
1.29315
1.29317
1.2932
1.29321
1.29321
1.29307
1.29306
1.29305
1.29304
1.29303
1.29301
1.293
1.29299
1.29299
1.29299
1.293
1.29302
1.29305
1.2931
1.29314
1.29316
1.29319
1.2932
1.29321
1.29305
1.29304
1.29303
1.29302
1.29301
1.29299
1.29298
1.29297
1.29296
1.29296
1.29297
1.29299
1.29302
1.29306
1.29312
1.29315
1.29318
1.2932
1.2932
1.29304
1.29303
1.29301
1.293
1.29299
1.29298
1.29297
1.29296
1.29295
1.29294
1.29294
1.29296
1.29298
1.29302
1.29309
1.29313
1.29317
1.29319
1.2932
1.29303
1.29302
1.29301
1.293
1.29299
1.29297
1.29296
1.29295
1.29293
1.29292
1.29292
1.29293
1.29295
1.29299
1.29305
1.29312
1.29316
1.29319
1.29319
1.29303
1.29301
1.293
1.29299
1.29298
1.29297
1.29296
1.29294
1.29293
1.29291
1.2929
1.29291
1.29293
1.29296
1.29302
1.29309
1.29315
1.29318
1.29319
1.29302
1.29301
1.293
1.29299
1.29298
1.29297
1.29295
1.29294
1.29292
1.2929
1.29289
1.29289
1.2929
1.29293
1.29298
1.29306
1.29314
1.29318
1.29319
1.29303
1.29302
1.293
1.29299
1.29298
1.29297
1.29295
1.29294
1.29292
1.2929
1.29288
1.29287
1.29288
1.29291
1.29295
1.29303
1.29312
1.29317
1.29318
1.29303
1.29302
1.29301
1.293
1.29298
1.29297
1.29296
1.29294
1.29292
1.2929
1.29287
1.29286
1.29286
1.29288
1.29293
1.293
1.2931
1.29316
1.29318
1.29304
1.29303
1.29301
1.293
1.29299
1.29298
1.29296
1.29294
1.29292
1.29289
1.29286
1.29284
1.29285
1.29286
1.2929
1.29297
1.29308
1.29315
1.29317
1.29304
1.29303
1.29302
1.29301
1.29299
1.29298
1.29296
1.29294
1.29292
1.29289
1.29286
1.29283
1.29283
1.29284
1.29288
1.29294
1.29305
1.29314
1.29316
1.29305
1.29304
1.29303
1.29301
1.293
1.29298
1.29297
1.29295
1.29292
1.29289
1.29285
1.29281
1.29281
1.29283
1.29286
1.29292
1.29302
1.29313
1.29316
1.29305
1.29305
1.29303
1.29302
1.293
1.29299
1.29297
1.29295
1.29292
1.29289
1.29285
1.2928
1.29279
1.29281
1.29284
1.29289
1.293
1.29312
1.29315
1.29306
1.29305
1.29304
1.29302
1.29301
1.29299
1.29297
1.29295
1.29292
1.29288
1.29284
1.29279
1.29277
1.29279
1.29282
1.29288
1.29297
1.2931
1.29314
1.29307
1.29306
1.29304
1.29303
1.29301
1.293
1.29298
1.29295
1.29292
1.29288
1.29283
1.29278
1.29276
1.29278
1.29282
1.29287
1.29296
1.29309
1.29313
1.29307
1.29306
1.29305
1.29303
1.29302
1.293
1.29298
1.29295
1.29292
1.29288
1.29283
1.29277
1.29274
1.29276
1.29281
1.29286
1.29295
1.29308
1.29312
1.29307
1.29306
1.29305
1.29303
1.29302
1.293
1.29298
1.29295
1.29292
1.29287
1.29282
1.29276
1.29273
1.29274
1.29281
1.29286
1.29295
1.29307
1.29311
1.29307
1.29307
1.29305
1.29304
1.29302
1.293
1.29298
1.29295
1.29292
1.29287
1.29282
1.29276
1.29272
1.29273
1.2928
1.29286
1.29295
1.29306
1.2931
1.29307
1.29306
1.29305
1.29303
1.29301
1.29299
1.29297
1.29294
1.29291
1.29287
1.29281
1.29275
1.29272
1.29273
1.29279
1.29287
1.29296
1.29307
1.2931
)
;

boundaryField
{
    leftWall
    {
        type            calculated;
        value           nonuniform List<scalar> 
50
(
1.30513
1.30435
1.30356
1.30273
1.3019
1.301
1.3001
1.29914
1.2976
1.29535
1.29377
1.2935
1.29344
1.2934
1.29335
1.29331
1.29327
1.29325
1.29323
1.29322
1.29321
1.2932
1.2932
1.29319
1.29319
1.29319
1.29319
1.29319
1.29319
1.29318
1.29318
1.29318
1.29317
1.29317
1.29317
1.29316
1.29315
1.29314
1.29313
1.29311
1.2931
1.29309
1.29308
1.29307
1.29307
1.29306
1.29306
1.29306
1.29305
1.29305
)
;
    }
    rightWall
    {
        type            calculated;
        value           nonuniform List<scalar> 
50
(
1.3073
1.30637
1.30564
1.30517
1.30456
1.30382
1.30283
1.3022
1.30105
1.30041
1.2973
1.29572
1.29381
1.29361
1.29323
1.29298
1.29291
1.29303
1.29322
1.29335
1.29339
1.29336
1.29329
1.29326
1.29324
1.29324
1.29323
1.29323
1.29322
1.29322
1.29321
1.29321
1.29321
1.2932
1.2932
1.29319
1.29319
1.29319
1.29318
1.29318
1.29317
1.29316
1.29316
1.29315
1.29314
1.29313
1.29312
1.29311
1.2931
1.2931
)
;
    }
    lowerWall
    {
        type            calculated;
        value           nonuniform List<scalar> 
62
(
1.30551
1.30551
1.30555
1.30556
1.30559
1.30555
1.30554
1.30546
1.30544
1.30536
1.30534
1.30529
1.30529
1.30526
1.30526
1.30523
1.30518
1.30509
1.30493
1.30474
1.30448
1.30431
1.30427
1.30389
1.30312
1.30233
1.30151
1.30062
1.29973
1.29852
1.29757
1.295
1.29476
1.29644
1.29453
1.3177
1.31673
1.3128
1.31022
1.30654
1.30437
1.30181
1.30077
1.31805
1.31115
1.3059
1.30355
1.30299
1.30428
1.30252
1.30177
1.30129
1.30122
1.30115
1.30385
1.30697
1.30659
1.3045
1.30483
1.30541
1.30659
1.30765
)
;
    }
    atmosphere
    {
        type            calculated;
        value           nonuniform List<scalar> 
46
(
1.29314
1.29314
1.29314
1.29314
1.29315
1.29315
1.29315
1.29315
1.29314
1.29314
1.29314
1.29315
1.29316
1.29317
1.29317
1.29318
1.29318
1.29318
1.29318
1.29318
1.29318
1.29318
1.29318
1.29318
1.29317
1.29317
1.29317
1.29316
1.29315
1.29314
1.29312
1.29311
1.29309
1.29307
1.29304
1.293
1.29296
1.29291
1.29285
1.29281
1.29282
1.29289
1.29297
1.29305
1.29316
1.29319
)
;
    }
    defaultFaces
    {
        type            empty;
    }
}


// ************************************************************************* //
