/*--------------------------------*- C++ -*----------------------------------*\
| =========                 |                                                 |
| \\      /  F ield         | OpenFOAM: The Open Source CFD Toolbox           |
|  \\    /   O peration     | Version:  2012                                  |
|   \\  /    A nd           | Website:  www.openfoam.com                      |
|    \\/     M anipulation  |                                                 |
\*---------------------------------------------------------------------------*/
FoamFile
{
    version     2.0;
    format      ascii;
    class       volScalarField;
    location    "0.83";
    object      rhogh;
}
// * * * * * * * * * * * * * * * * * * * * * * * * * * * * * * * * * * * * * //

dimensions      [1 -1 -2 0 0 0 0];


internalField   nonuniform List<scalar> 
2268
(
-29.4294
-29.4294
-29.4294
-29.4294
-29.4294
-29.4294
-29.4294
-29.4294
-29.4294
-29.4294
-29.4294
-29.4294
-29.4294
-29.4294
-29.4294
-29.4294
-29.4294
-29.4294
-29.4294
-29.4294
-29.4294
-29.4289
-29.4236
-88.2881
-88.2881
-88.2881
-88.2881
-88.2881
-88.2881
-88.2881
-88.2881
-88.2881
-88.2881
-88.2881
-88.2881
-88.2881
-88.2881
-88.2881
-88.2881
-88.2881
-88.2881
-88.2881
-88.2881
-88.2881
-88.2829
-88.2626
-147.147
-147.147
-147.147
-147.147
-147.147
-147.147
-147.147
-147.147
-147.147
-147.147
-147.147
-147.147
-147.147
-147.147
-147.147
-147.147
-147.147
-147.147
-147.147
-147.147
-147.147
-147.145
-147.104
-206.006
-206.006
-206.006
-206.006
-206.006
-206.006
-206.006
-206.006
-206.006
-206.006
-206.006
-206.006
-206.006
-206.006
-206.006
-206.006
-206.006
-206.006
-206.006
-206.006
-206.006
-206.006
-205.949
-264.864
-264.864
-264.864
-264.864
-264.864
-264.864
-264.864
-264.864
-264.864
-264.864
-264.864
-264.864
-264.864
-264.864
-264.864
-264.864
-264.864
-264.864
-264.864
-264.864
-264.864
-264.864
-264.846
-323.723
-323.723
-323.723
-323.723
-323.723
-323.723
-323.723
-323.723
-323.723
-323.723
-323.723
-323.723
-323.723
-323.723
-323.723
-323.723
-323.723
-323.723
-323.722
-323.723
-323.723
-323.723
-323.723
-382.582
-382.582
-382.582
-382.582
-382.582
-382.582
-382.582
-382.582
-382.582
-382.582
-382.582
-382.582
-382.582
-382.582
-382.582
-382.582
-382.582
-382.582
-382.577
-382.53
-382.552
-382.582
-382.581
-441.44
-441.44
-441.44
-441.44
-441.44
-441.44
-441.44
-441.44
-441.44
-441.44
-441.44
-441.44
-441.44
-441.44
-441.44
-441.44
-441.44
-441.44
-441.429
-440.927
-438.282
-433.566
-441.44
-27.5809
-27.5823
-25.2255
-21.9705
-23.2029
-24.9588
-24.9578
-24.9578
-24.4134
-22.7375
-21.2465
-19.8104
-19.5143
-22.1053
-25.1432
-27.0185
-28.0768
-28.1658
-27.648
-82.7515
-82.7414
-69.7219
-62.7027
-74.8796
-74.8764
-73.4575
-47.8385
-26.795
-15.7452
-10.7004
-9.62924
-9.62647
-9.62924
-17.9199
-35.7397
-65.539
-84.4764
-86.8868
-137.904
-137.929
-124.041
-104.362
-104.363
-108.967
-70.8577
-14.9521
-2.03225
-1.72961
-1.73629
-23.6823
-81.4937
-79.8884
-33.8169
-23.2937
-39.2984
-120.222
-144.763
-192.98
-193.073
-171.699
-155.522
-153.32
-91.0453
-7.11168
-1.50056
-0.120977
-0.128161
-11.3488
-156.687
-197.083
-197.096
-184.81
-167.788
-189.302
-189.386
-199.34
-247.998
-232.004
-146.232
-124.099
-204.172
-216.161
-21.198
-0.155542
-0.155542
-0.155542
-157.349
-251.121
-252.676
-231.468
-253.952
-262.478
-262.478
-262.478
-262.478
-303.11
-240.407
-14.9079
-20.8097
-130.649
-274.709
-216.805
-9.44011
-0.190106
-41.8236
-301.638
-300.649
-176.511
-97.793
-132.198
-204.053
-289.681
-319.142
-320.807
-356.957
-240.785
-2.78288
-2.78291
-101.071
-244.758
-349.488
-118.407
-9.75448
-283.934
-356.845
-283.127
-86.5344
-86.5343
-86.5344
-86.5343
-172.604
-327.905
-379.135
-407.997
-219.734
-4.15622
-2.10911
-122.566
-215.702
-403.269
-359.883
-239.248
-412.371
-395.751
-285.571
-233.469
-99.8474
-99.8473
-99.8474
-122.886
-378.352
-352.65
-533.467
-533.467
-533.467
-533.467
-533.467
-533.467
-533.467
-533.467
-533.466
-533.455
-533.44
-533.439
-533.455
-533.459
-533.445
-533.417
-533.352
-533.338
-533.363
-529.528
-458.209
-378.111
-519.234
-528.76
-544.022
-573.014
-610.029
-639.22
-651.961
-653.642
-649.9
-641.422
-627.273
-620.878
-629.668
-641.883
-643.63
-636.9
-637.569
-647.364
-656.749
-657.678
-612.045
-344.687
-268.466
-283.016
-120.806
-144.633
-192.047
-265.376
-384.288
-478.544
-480.067
-419.245
-367
-362.059
-406.594
-439.59
-452.36
-472.497
-552.681
-675.867
-742.518
-762.138
-758.17
-611.471
-320.747
-273.184
-629.405
-1.30796
-4.99677
-35.2864
-152.49
-212.188
-182.521
-161.293
-161.351
-315.306
-408.061
-277.79
-139.408
-142.718
-308.128
-427.519
-423.777
-406.099
-405.896
-428.253
-472.013
-355.12
-201.299
-255.55
-0.00529046
-0.483895
-8.05174
-24.8714
-200.199
-462.806
-463.805
-421.169
-62.6295
-2.52182
-7.39414
-11.1106
-6.78015
-3.47905e-05
-3.47905e-05
-3.47905e-05
-3.47905e-05
-3.47905e-05
-3.47905e-05
-35.8906
-142.661
-229.024
-330.965
-7.97803e-05
-0.267341
-3.57496
-9.68165
-66.2177
-116.166
-106.816
-27.0604
-1.76144
-7.39654
-204.639
-377.025
-297.816
-63.6724
-3.90018e-05
-0.0686
-0.000340367
-0.000633273
-3.90018e-05
-3.90018e-05
-3.90018e-05
-123.344
-267.704
-8.83537e-05
-0.617976
-3.85426
-2.0094
-0.464489
-1.8437e-05
-1.8437e-05
-0.00779062
-0.00778734
-10.4172
-323.616
-556.331
-556.965
-470.618
-69.2223
-0.0383953
-0.038393
-0.00754863
-4.32132e-05
-0.00026725
-0.000149709
-0.000149714
-5.14214
-0.000125292
-0.600045
-1.85968
-0.303063
-0.134079
-0.0362971
-2.02338e-05
-0.000587606
-0.015591
-1.37432
-21.5073
-292.652
-554.978
-555.216
-551.344
-69.8882
-16.441
-0.00828467
-0.00919161
-0.00129462
-0.00281336
-0.0279891
-0.0505698
-1.88683e-09
-0.283942
-0.0344476
-0.0228394
-0.00810693
-0.0231319
-0.00972474
-0.0328307
-0.0480165
-0.00862748
-4.01122e-06
-4.01112e-06
-4.01122e-06
-176.998
-277.069
-351.646
-296.236
-14.3349
-13.3602
-0.00140924
-0.111547
-0.2022
-0.15637
-2.04017e-09
-0.000679991
-0.000318936
-8.2745e-05
-1.84514e-05
-7.51049e-05
-0.00212583
-0.00152952
-0.00332376
-0.000192774
-0.000192757
-5.28671e-06
-4.33827e-06
-4.33837e-06
-7.62327
-282.154
-405.277
-404.211
-215.914
-38.427
-80.4214
-118.167
-52.7119
-2.19404e-09
-1.64608e-06
-1.15311e-06
-4.11892e-07
-2.91763e-07
-2.97274e-07
-1.97275e-06
-3.26311e-07
-0.000270367
-0.00156488
-0.00127231
-3.68803e-05
-0.000214448
-0.000287828
-2.45356e-07
-2.38216e-07
-140.283
-384.198
-440.508
-453.222
-497.029
-496.33
-364.016
-2.34786e-09
-8.63791e-08
-1.89523e-07
-2.39933e-07
-3.12163e-07
-3.4626e-07
-3.46913e-07
-3.46881e-07
-6.68041e-06
-0.000124413
-2.3689e-05
-1.62235e-05
-0.00164902
-0.00245737
-5.80715e-05
-2.62561e-07
-2.5492e-07
-2.62561e-07
-2.5492e-07
-16.05
-331.878
-528.162
-449.957
-2.25217e-09
-6.06833e-08
-2.4275e-07
-3.31669e-07
-3.89641e-07
-4.55908e-07
-6.57861e-07
-6.78535e-07
-3.47453e-06
-5.686e-06
-8.6793e-07
-8.68116e-07
-0.00266878
-0.00273947
-0.00073464
-4.72168e-06
-5.37849e-06
-0.000110884
-0.000140458
-2.71618e-07
-2.71507e-07
-2.71618e-07
-2.71507e-07
-1.47775e-09
-2.7417e-08
-2.29678e-07
-3.52935e-07
-4.10768e-07
-4.89779e-07
-1.03668e-06
-1.87737e-06
-4.58655e-06
-3.59761e-06
-7.28448e-07
-0.000629122
-0.00290793
-0.00290793
-0.00112578
-6.59132e-06
-3.63816e-06
-3.63815e-06
-3.64917e-06
-0.000131948
-0.000218765
-0.000443328
-0.00162254
-4.89126e-10
-8.60493e-09
-1.30292e-07
-2.64066e-07
-3.32167e-07
-4.34195e-07
-1.23113e-06
-2.36533e-06
-4.06372e-06
-2.10836e-06
-7.70862e-07
-0.000372768
-0.00283193
-0.00167096
-0.000116189
-7.03529e-06
-4.35196e-06
-5.16458e-06
-4.18109e-06
-2.47569e-07
-2.46859e-07
-2.47569e-07
-1.46523e-06
-1.2765e-10
-2.18039e-09
-4.06912e-08
-1.03726e-07
-1.60506e-07
-2.65884e-07
-1.16827e-06
-2.15347e-06
-2.00438e-06
-1.31989e-06
-8.12869e-07
-0.000199853
-0.000310983
-0.000111692
-1.65058e-05
-5.14382e-06
-4.55636e-06
-4.74663e-06
-3.9845e-06
-2.16691e-06
-3.11373e-07
-2.65006e-07
-2.59612e-07
-2.99902e-11
-5.04943e-10
-1.06696e-08
-3.10145e-08
-5.83979e-08
-1.26227e-07
-7.51272e-07
-1.13246e-06
-9.9261e-07
-2.20183e-06
-1.20715e-05
-9.70049e-06
-2.50022e-06
-8.95269e-07
-1.12606e-06
-1.7659e-06
-2.48022e-06
-2.28794e-06
-1.6441e-06
-1.12827e-06
-8.99106e-07
-6.7083e-07
-5.14836e-07
-6.78929e-12
-1.17843e-10
-2.46226e-09
-8.69043e-09
-2.1344e-08
-6.14829e-08
-3.02822e-07
-5.44643e-07
-8.87147e-07
-2.6802e-06
-5.30763e-06
-1.28882e-06
-2.66303e-07
-2.5682e-07
-4.43539e-07
-6.83443e-07
-9.4524e-07
-8.36319e-07
-6.20128e-07
-4.84736e-07
-3.93749e-07
-2.99463e-07
-2.49939e-07
-1.53625e-12
-2.88873e-11
-5.34161e-10
-2.40856e-09
-8.05966e-09
-3.01373e-08
-1.37106e-07
-3.74294e-07
-8.58882e-07
-1.91116e-06
-1.2604e-06
-3.66209e-07
-1.74129e-07
-1.7447e-07
-2.19256e-07
-2.99392e-07
-3.46731e-07
-2.69598e-07
-1.95261e-07
-1.50348e-07
-1.13872e-07
-8.43326e-08
-6.79879e-08
-3.51597e-13
-7.35287e-12
-1.17734e-10
-6.87845e-10
-3.07287e-09
-1.41242e-08
-6.6174e-08
-2.66246e-07
-6.66179e-07
-7.12077e-07
-3.93366e-07
-1.69214e-07
-1.04766e-07
-9.03108e-08
-9.62576e-08
-1.18767e-07
-1.15192e-07
-8.07114e-08
-5.30501e-08
-3.57327e-08
-2.38849e-08
-1.6713e-08
-1.57985e-08
-8.10876e-14
-1.89908e-12
-2.79597e-11
-2.04745e-10
-1.15187e-09
-6.19903e-09
-3.11384e-08
-1.45527e-07
-3.04681e-07
-2.47475e-07
-1.37083e-07
-7.53513e-08
-4.70589e-08
-3.81554e-08
-3.78749e-08
-4.10757e-08
-3.25537e-08
-1.94796e-08
-1.03151e-08
-5.60746e-09
-4.504e-09
-7.97709e-09
-2.9586e-08
-1.87317e-14
-4.88643e-13
-7.14244e-12
-6.19699e-11
-4.12817e-10
-2.50406e-09
-1.34594e-08
-6.38235e-08
-1.09815e-07
-8.5635e-08
-4.8316e-08
-2.92747e-08
-1.78993e-08
-1.4079e-08
-1.30467e-08
-1.22766e-08
-7.84124e-09
-3.65971e-09
-1.64607e-09
-1.95409e-09
-1.16581e-08
-7.77844e-08
-3.35767e-07
-4.30987e-15
-1.24436e-13
-1.89886e-12
-1.86345e-11
-1.40434e-10
-9.34809e-10
-5.31515e-09
-2.45977e-08
-3.77458e-08
-2.82545e-08
-1.60937e-08
-9.92507e-09
-6.02356e-09
-4.61633e-09
-3.92479e-09
-2.85227e-09
-1.46717e-09
-1.02662e-09
-2.23989e-09
-2.27213e-08
-1.86608e-07
-9.66111e-07
-5.79469e-06
-9.95295e-16
-3.14849e-14
-5.13753e-13
-5.57757e-12
-4.68236e-11
-3.39732e-10
-2.04974e-09
-8.63715e-09
-1.21801e-08
-8.83548e-09
-5.01907e-09
-3.06384e-09
-1.86415e-09
-1.34789e-09
-9.62902e-10
-7.64262e-10
-8.06834e-10
-5.5837e-09
-5.76984e-08
-5.03811e-07
-3.81317e-06
-2.15777e-05
-0.000123749
-2.45771e-16
-8.47968e-15
-1.49228e-13
-1.7682e-12
-1.62598e-11
-1.25247e-10
-7.74847e-10
-2.8316e-09
-3.70277e-09
-2.59857e-09
-1.45905e-09
-8.60188e-10
-4.93376e-10
-3.51369e-10
-6.69263e-10
-5.39359e-09
-4.72237e-08
-1.34755e-07
-5.98144e-08
-1.05857e-05
-0.000133682
-0.00037306
-0.000436773
-6.61832e-17
-2.4722e-15
-4.67414e-14
-5.96793e-13
-5.86106e-12
-4.62256e-11
-2.80741e-10
-8.79831e-10
-1.07641e-09
-7.31289e-10
-3.91776e-10
-2.05742e-10
-1.55534e-10
-2.96709e-10
-1.18661e-09
-3.71544e-09
-3.67755e-09
-3.67764e-09
-0.000172068
-0.000606748
-0.000653171
-0.000485133
-4.89408e-08
-1.98914e-17
-7.92718e-16
-1.59736e-14
-2.16858e-13
-2.21643e-12
-1.73779e-11
-1.00295e-10
-2.61776e-10
-2.91398e-10
-1.70254e-10
-9.50487e-11
-9.03929e-11
-1.10866e-10
-3.28642e-10
-5.50395e-10
-5.50367e-10
-6.19041e-06
-0.000695075
-0.000988347
-0.000883819
-6.11994e-08
-5.39774e-08
-6.2249e-08
-6.81631e-18
-2.84219e-16
-5.90588e-15
-8.08473e-14
-8.00818e-13
-5.78937e-12
-2.9137e-11
-6.38853e-11
-7.62619e-11
-9.37379e-11
-2.18865e-10
-6.04544e-10
-7.29623e-10
-3.67937e-10
-3.67924e-10
-0.000188295
-0.00133546
-0.00133548
-0.000452771
-1.7206e-07
-3.70713e-07
-1.43148e-07
-1.81836e-07
-2.16265e-18
-9.83003e-17
-2.04122e-15
-2.85683e-14
-2.99357e-13
-2.3675e-12
-1.40568e-11
-5.95634e-11
-2.23842e-10
-7.71934e-10
-1.23035e-09
-1.40785e-09
-7.11396e-10
-3.79693e-10
-0.00017091
-0.00130245
-0.00140582
-0.000726492
-1.77564e-07
-1.77568e-07
-1.78691e-07
-1.44724e-07
-8.13951e-08
-1.74071e-18
-5.84301e-17
-1.56226e-15
-2.81298e-14
-3.80118e-13
-4.24282e-12
-4.04218e-11
-3.36047e-10
-2.46194e-09
-8.22028e-09
-8.33756e-09
-8.89978e-10
-7.33458e-10
-0.000488154
-0.00296591
-0.00296666
-0.00036499
-1.91955e-07
-2.70962e-07
-1.69894e-07
-6.27664e-08
-2.38003e-08
-8.3987e-09
-3.13711e-18
-1.84713e-16
-5.97685e-15
-1.26324e-13
-1.95694e-12
-2.38592e-11
-2.45273e-10
-2.25856e-09
-1.94859e-08
-1.03371e-07
-8.63585e-08
-9.16775e-10
-0.000320969
-0.00302308
-0.00305585
-0.00157554
-9.08038e-08
-1.97723e-07
-2.32949e-07
-3.0514e-08
-7.21941e-09
-2.30709e-09
-8.60369e-10
-2.44915e-17
-1.52176e-15
-4.51451e-14
-8.41374e-13
-1.10124e-11
-1.09292e-10
-9.05094e-10
-7.22909e-09
-6.41158e-08
-6.45823e-07
-1.10008e-05
-0.000129469
-0.00191362
-0.00311186
-0.0020501
-2.77096e-08
-9.34532e-08
-1.31578e-07
-4.15493e-08
-3.37444e-09
-8.37677e-10
-2.8196e-10
-1.05192e-10
-2.40566e-16
-1.3705e-14
-3.69651e-13
-6.15934e-12
-6.94143e-11
-5.50568e-10
-3.22929e-09
-1.63341e-08
-8.8e-08
-5.63625e-07
-4.75598e-05
-0.00321282
-0.00689166
-0.00207698
-6.08998e-09
-2.84965e-08
-5.83663e-08
-2.73943e-08
-4.16732e-09
-4.16104e-10
-1.13792e-10
-3.51979e-11
-1.19606e-11
-1.473e-15
-7.92107e-14
-2.05965e-12
-3.40858e-11
-3.96754e-10
-3.3596e-09
-1.99454e-08
-6.17017e-08
-1.04614e-07
-1.90157e-07
-3.15646e-05
-0.00430473
-0.00708772
-0.000954049
-6.25844e-09
-1.63866e-08
-2.01223e-08
-4.41298e-09
-4.28369e-10
-5.60252e-11
-1.44108e-11
-3.90793e-12
-1.1803e-12
-9.1576e-15
-4.34453e-13
-1.00343e-11
-1.50272e-10
-1.62529e-09
-1.3184e-08
-8.06188e-08
-3.04121e-07
-4.26246e-07
-1.9527e-07
-0.000749447
-0.00512854
-0.00219758
-6.4264e-09
-6.42588e-09
-1.13123e-08
-5.0669e-09
-6.45311e-10
-4.60712e-11
-7.26947e-12
-1.64735e-12
-3.86223e-13
-1.02315e-13
-4.06173e-14
-1.7637e-12
-3.64058e-11
-4.76454e-10
-4.45496e-09
-3.15312e-08
-1.71307e-07
-5.89947e-07
-9.08644e-06
-0.000972564
-0.00646919
-0.00525936
-1.34261e-09
-2.21067e-06
-6.62168e-09
-6.95636e-09
-1.13705e-09
-7.99469e-11
-4.54404e-12
-7.75223e-13
-1.55154e-13
-3.16371e-14
-7.45835e-15
-1.85233e-13
-7.46674e-12
-1.39426e-10
-1.57886e-09
-1.19079e-08
-6.16723e-08
-2.1382e-07
-3.59786e-07
-3.5978e-07
-0.00178858
-0.00663418
-0.00363904
-1.3557e-09
-4.53925e-07
-6.45449e-09
-2.33569e-09
-2.10859e-10
-8.16838e-12
-4.07523e-13
-7.13472e-14
-1.26645e-14
-2.26299e-15
-4.77745e-16
-5.89261e-13
-2.27727e-11
-4.03869e-10
-4.24176e-09
-2.81316e-08
-1.1573e-07
-3.34701e-07
-9.99226e-06
-0.000882555
-0.00739989
-0.00419396
-0.000144288
-1.41101e-09
-4.98878e-08
-3.2078e-09
-5.54694e-10
-3.08167e-11
-6.03675e-13
-2.88056e-14
-4.60937e-15
-7.33002e-16
-1.17784e-16
-2.34919e-17
-1.73957e-12
-6.29062e-11
-1.05352e-09
-1.09316e-08
-8.52661e-08
-3.0737e-07
-3.07426e-07
-3.07239e-07
-0.0030066
-0.00757923
-0.00173762
-8.28283e-10
-2.09768e-09
-6.83492e-09
-9.21387e-10
-1.09734e-10
-3.80977e-12
-3.40665e-14
-1.60027e-15
-2.25541e-16
-3.20665e-17
-4.69038e-18
-8.93975e-19
-4.03558e-12
-1.36092e-10
-2.10192e-09
-1.96524e-08
-1.26796e-07
-6.13645e-07
-1.91718e-05
-0.00110716
-0.00775857
-0.00677178
-8.47771e-10
-8.47875e-10
-1.47519e-09
-1.61155e-09
-2.45466e-10
-2.05571e-11
-5.3967e-13
-1.78471e-15
-4.73945e-17
-5.53122e-18
-6.82615e-19
-9.33283e-20
-1.96578e-20
-9.35467e-12
-2.87454e-10
-3.94228e-09
-3.10882e-08
-1.48851e-07
-9.57737e-07
-0.000209487
-0.00486063
-0.00793792
-0.00446597
-8.67367e-10
-8.63862e-10
-9.91593e-10
-5.01961e-10
-7.72379e-11
-6.07914e-12
-1.18947e-13
-1.05605e-16
-6.88686e-19
-5.39424e-20
-4.75342e-21
-5.74372e-22
-1.77635e-22
-3.28844e-11
-8.84611e-10
-1.0416e-08
-6.84014e-08
-2.60692e-07
-1.1776e-06
-0.000191732
-0.00492307
-0.00810693
-0.00033836
-8.83379e-10
-8.83379e-10
-8.83418e-10
-2.53317e-10
-3.85026e-11
-2.82342e-12
-1.02061e-14
-1.88148e-42
-1.47654e-23
-4.60982e-27
-7.00668e-29
-3.02202e-29
-1.54003e-29
-306.34
-342.669
-448.546
-491.251
-330.161
-487.354
-606.504
-606.54
-662.552
-721.784
-721.785
-721.785
-632.485
-834.474
-837.064
-826.506
-755.981
-906.234
-923.58
-708.32
-437.394
-651.422
-715.793
-617.367
-23.2929
-66.1402
-130.748
-204.671
-0.652265
-1.04018
-1.69559
-2.32126
-0.169704
-0.394937
-0.169655
-0.103862
-3.92742
-76.0722
-140.943
-118.251
-4.22258
-329.547
-661.102
-661.121
-114.872
-281.117
-673.61
-705.768
-2.71618e-07
-2.71507e-07
-2.71618e-07
-2.71507e-07
-0.00161304
-0.000163765
-6.82479e-05
-0.000446021
-2.68459e-05
-7.07885e-07
-0.000338982
-0.000822285
-2.59616e-07
-2.59617e-07
-2.33934e-07
-2.33933e-07
-3.73902e-07
-3.93955e-07
-3.29164e-07
-2.46079e-07
-2.46429e-07
-2.55788e-07
-2.46713e-07
-2.59469e-07
-6.18584e-08
-6.10439e-08
-6.44681e-08
-7.29889e-08
-1.89901e-08
-2.64558e-08
-3.90569e-08
-5.749e-08
-8.43637e-08
-1.66599e-07
-2.89929e-07
-4.62732e-07
-1.02224e-06
-2.60719e-06
-5.15394e-06
-8.15613e-06
-3.36172e-05
-9.61887e-05
-0.000161969
-0.000200775
-0.000396951
-0.000424437
-0.000425094
-0.000423701
-0.000436657
-0.000281293
-6.37547e-06
-4.76329e-08
-4.88912e-08
-4.89408e-08
-4.88912e-08
-6.18608e-08
-1.23138e-07
-1.49688e-07
-1.62585e-07
-1.63744e-07
-1.78022e-07
-1.6476e-07
-1.366e-07
-1.07511e-07
-4.42645e-08
-2.95788e-08
-2.02859e-08
-1.43153e-08
-4.1443e-09
-2.89848e-09
-2.07789e-09
-1.56219e-09
-4.50547e-10
-3.30764e-10
-2.514e-10
-2.00001e-10
-5.50174e-11
-4.08258e-11
-3.16288e-11
-2.57831e-11
-6.03407e-12
-4.49557e-12
-3.5289e-12
-2.93147e-12
-5.73911e-13
-4.31051e-13
-3.43825e-13
-2.91212e-13
-4.80613e-14
-3.65369e-14
-2.97389e-14
-2.57877e-14
-3.46752e-15
-2.68207e-15
-2.2254e-15
-1.97124e-15
-2.20427e-16
-1.73084e-16
-1.45706e-16
-1.30257e-16
-1.12163e-17
-9.07683e-18
-7.89976e-18
-7.24595e-18
-4.3504e-19
-3.564e-19
-3.15364e-19
-2.96627e-19
-1.0827e-20
-9.3206e-21
-8.63735e-21
-8.31351e-21
-1.2677e-22
-1.13808e-22
-1.06837e-22
-1.04669e-22
-8.59294e-30
-5.93028e-30
-4.11516e-30
-2.88065e-30
-491.251
-207.509
-3.23692
-26.7526
-97.259
-163.271
-299.157
-471.817
-493.547
-498.271
-444.96
-477.953
-484.976
-238.628
-120.662
-268.5
-353.258
-339.727
-209.211
-590.421
-177.138
-164.292
-195.166
-4.41426
-13.8267
-210.002
-479.048
-528.003
-530.939
-615.314
-651.787
-631.691
-382.437
-274.695
-387.583
-332.442
-300.535
-421.083
-634.09
-209.369
-209.371
-46.7402
-5.25196
-57.1524
-440.756
-727.659
-766.933
-767.314
-767.394
-775.675
-665.172
-217.86
-132.459
-132.638
-167.486
-476.131
-761.233
-577.897
-268.038
-184.474
-54.3675
-258.935
-451.224
-392.836
-514.858
-682.393
-441.397
-527.43
-713.193
-771.43
-504.516
-207.616
-171.93
-207.829
-607.346
-846.509
-439.447
-329.669
-146.395
-92.817
-605.609
-720.323
-720.323
-416.179
-189.936
-18.2971
-20.7051
-147.007
-406.278
-646.509
-736.41
-736.41
-728.586
-527.824
-306.457
-533.844
-234.48
-74.4231
-37.8104
-305.179
-750.429
-807.949
-807.949
-280.247
-15.9979
-4.25591
-4.25611
-4.25591
-84.2496
-295.6
-324.085
-214.051
-33.9625
-0.0136197
-271.875
-50.9842
-14.9993
-6.97494
-2.19574
-417.591
-886.337
-594.702
-232.664
-31.707
-34.6701
-33.8574
-9.02419
-0.012459
-0.012459
-0.012459
-0.012459
-0.012459
-0.0339732
-2.63629
-2.30651
-0.640291
-0.332806
-2.32216
-259.804
-268.656
-18.5949
-35.8692
-90.7912
-90.6775
-88.0536
-12.1931
-0.0189877
-0.0136732
-0.324387
-0.992549
-3.15048
-27.6351
-0.00184372
-0.00130299
-0.00140973
-0.00344178
-0.00344162
-247.553
-0.000640202
-0.000640204
-0.000640202
-43.6322
-5.36252
-17.5096
-2.76581
-0.0206736
-0.192858
-0.650533
-1.29523
-4.06304
-156.78
-33.6533
-4.94714e-18
-2.59087e-21
-2.17024e-21
-75.4161
-271.579
-30.8154
-0.0016445
-0.000692418
-0.000692416
-0.0133341
-0.293958
-0.466348
-0.305427
-0.227343
-0.0488881
-1.30167e-08
-1.40397
-174.435
-516.535
-133.712
-33.2947
-31.7808
-396.873
-239.94
-14.2934
-0.00176885
-0.00891557
-0.0166983
-0.0166895
-0.013383
-0.0134251
-0.0187683
-1.39983e-08
-1.39983e-08
-1.39983e-08
-0.200504
-187.589
-653.535
-490.997
-155.783
-101.672
-62.4082
-0.67831
-0.891352
-0.134595
-0.0141719
-0.00206444
-0.00207027
-0.00485546
-0.0149472
-0.0172449
-0.000977733
-1.49798e-08
-1.49798e-08
-0.0855523
-172.179
-2.71618e-07
-2.71507e-07
-0.320268
-6.57937
-0.357669
-0.722772
-0.562921
-4.57174e-05
-0.00760638
-0.00686717
-0.0178261
-0.0587384
-0.0644547
-0.0644547
-0.00326311
-1.59614e-08
-1.59614e-08
-0.666672
-7.14928
-0.000450677
-0.000334089
-0.0246377
-0.321729
-1.36539
-1.60241
-0.903293
-4.85289e-05
-5.25796e-05
-0.00225505
-0.0424853
-0.0684185
-0.0684185
-0.0684185
-0.00707104
-1.37623e-05
-1.6943e-08
-0.707393
-0.0628272
-0.000823062
-0.000328709
-0.00094843
-0.0610697
-1.15816
-1.6953
-0.644796
-5.13403e-05
-5.13403e-05
-9.43923e-05
-0.00344919
-0.0593205
-0.0723822
-0.0332734
-0.00225838
-1.23489e-05
-1.79246e-08
-0.748067
-0.0665731
-2.33934e-07
-2.33933e-07
-0.000797679
-0.0110575
-0.140968
-0.495464
-0.174125
-0.00101904
-0.00246255
-0.000252769
-0.000252767
-0.00131702
-0.0270039
-0.00549002
-0.000418337
-2.22281e-05
-1.89061e-08
-0.479756
-0.102358
-2.46196e-07
-1.43388e-06
-9.74548e-05
-0.000981377
-0.000337495
-0.000865651
-0.00404429
-0.00603168
-0.00602254
-0.00183985
-0.00148305
-0.00370548
-1.09403e-06
-2.87485e-07
-0.000179291
-6.34769e-05
-1.98877e-08
-0.0225889
-0.0614623
-2.54564e-07
-3.03555e-07
-1.5728e-07
-2.27337e-06
-3.23141e-07
-5.79523e-08
-0.00110529
-0.00482417
-0.00163575
-0.00355181
-0.00439378
-0.00340252
-0.000354003
-9.22791e-07
-2.08693e-08
-2.08693e-08
-2.08693e-08
-2.08693e-08
-2.08693e-08
-7.32076e-08
-9.94055e-08
-1.64677e-07
-1.43103e-07
-1.5684e-07
-6.0266e-08
-0.000233809
-0.000289606
-0.000207957
-5.22124e-07
-1.98948e-05
-8.30218e-08
-8.3093e-08
-1.34227e-07
-7.14094e-08
-2.71256e-06
-2.18508e-08
-0.00149282
-0.000271323
-1.06121e-07
-2.2215e-07
-4.91533e-07
-8.65295e-07
-2.05696e-06
-3.83447e-06
-5.23905e-08
-5.23929e-08
-5.23905e-08
-5.45534e-07
-3.59003e-07
-3.59049e-07
-3.78675e-07
-3.47431e-07
-7.46166e-08
-1.90576e-05
-7.54747e-06
-0.00240193
-0.000308802
-1.03374e-06
-2.97067e-06
-7.24737e-06
-1.44384e-05
-1.58173e-05
-1.26637e-05
-8.93541e-06
-7.05009e-06
-6.25561e-06
-6.6898e-06
-3.27327e-06
-1.52813e-06
-9.15797e-07
-5.45732e-07
-1.66189e-07
-3.52174e-05
-1.33789e-05
-0.000453777
-8.64309e-05
-2.81544e-05
-6.18948e-05
-7.59814e-05
-5.96398e-05
-3.75556e-05
-2.08268e-05
-1.44004e-05
-1.11058e-05
-9.97989e-06
-1.39515e-05
-1.11286e-05
-3.85997e-06
-1.43654e-06
-8.30303e-07
-1.73028e-07
-3.05274e-05
-0.000109379
-2.84739e-05
-2.84739e-05
-0.0002121
-0.000191457
-0.000107938
-4.35592e-05
-1.51693e-05
-7.22059e-06
-5.71825e-06
-4.34289e-06
-3.0339e-06
-9.88104e-06
-0.000108866
-0.000114517
-5.57144e-05
-1.09167e-05
-1.31587e-06
-4.75505e-08
-0.000401014
-0.000185639
-3.58479e-05
-0.000201197
-4.37932e-05
-8.09514e-07
-5.24563e-08
-5.25681e-08
-6.513e-07
-7.05466e-07
-3.80062e-07
-1.23799e-09
-1.23925e-09
-0.000347291
-0.00147983
-0.00138334
-0.000330113
-1.48333e-05
-4.03196e-08
-0.00041531
-0.000864022
-0.000179365
-4.77084e-08
-4.76329e-08
-4.77084e-08
-9.75889e-08
-3.17949e-07
-5.52084e-07
-3.68174e-07
-1.36313e-07
-4.2912e-08
-1.2834e-09
-0.000316859
-0.00210675
-0.00214351
-0.00164273
-0.000139074
-4.15549e-08
-0.000121794
-0.00143858
-0.000522043
-7.93061e-08
-1.15369e-07
-1.3812e-07
-2.20699e-07
-4.58144e-07
-5.42688e-07
-3.37047e-07
-1.8889e-07
-6.91857e-08
-1.35459e-09
-1.35457e-09
-0.000313092
-0.00214
-0.00222417
-0.000888993
-2.54161e-07
-0.000195784
-0.00156179
-0.00156178
-1.58601e-07
-1.27556e-07
-1.13006e-07
-1.95237e-07
-3.12295e-07
-2.88381e-07
-1.4413e-07
-1.21268e-07
-6.59249e-08
-7.59513e-10
-2.07558e-06
-2.07555e-06
-0.000502141
-0.00230018
-0.00171047
-0.00012044
-6.99809e-05
-0.000695063
-0.00441462
-6.69546e-08
-3.46864e-08
-3.08367e-08
-6.51188e-08
-8.68283e-08
-6.58919e-08
-4.17417e-08
-4.11764e-08
-2.5223e-08
-1.41222e-10
-4.47168e-06
-0.00019764
-7.3857e-05
-0.00149566
-0.00190368
-0.000439377
-7.22978e-05
-0.000509871
-0.00505087
-9.18794e-09
-5.69305e-09
-6.16354e-09
-1.18197e-08
-1.41617e-08
-1.12437e-08
-9.60687e-09
-9.77892e-09
-5.21327e-09
-1.45744e-10
-1.89615e-12
-0.000424804
-9.86987e-05
-9.86988e-05
-0.00150821
-0.000675753
-7.46088e-05
-3.09014e-06
-0.00426873
-1.11867e-09
-8.04228e-10
-8.01475e-10
-1.25641e-09
-1.55781e-09
-1.55757e-09
-1.79892e-09
-1.75539e-09
-8.27604e-10
-1.03313e-10
-1.30433e-12
-0.000272601
-0.00211244
-0.000359896
-0.000309415
-0.00048416
-0.000110251
-3.18617e-06
-3.18593e-06
-1.52089e-10
-1.13186e-10
-1.04671e-10
-1.26224e-10
-1.64577e-10
-1.92884e-10
-2.56622e-10
-2.44147e-10
-1.14673e-10
-3.09605e-11
-1.34356e-12
-3.11897e-14
-0.00588253
-0.00181998
-0.000154643
-0.000113706
-5.6186e-05
-2.06931e-07
-0.00468576
-2.04875e-11
-1.63705e-11
-1.58516e-11
-2.00515e-11
-2.24241e-11
-2.15849e-11
-2.75816e-11
-2.81919e-11
-1.37243e-11
-5.93469e-12
-9.72822e-13
-3.80961e-15
-0.00527901
-0.00610233
-0.00173803
-0.000115067
-6.75131e-06
-2.14139e-07
-0.0523946
-2.41387e-12
-2.04102e-12
-2.12426e-12
-2.51116e-12
-2.48979e-12
-1.95504e-12
-2.36879e-12
-2.94533e-12
-1.4512e-12
-7.67231e-13
-1.91975e-13
-3.91641e-15
-0.000221418
-0.0139902
-0.0087855
-0.000452715
-7.04932e-07
-2.1901e-07
-0.074776
-2.47565e-13
-2.18673e-13
-2.53765e-13
-2.73091e-13
-2.49653e-13
-1.62553e-13
-1.73215e-13
-2.80788e-13
-1.32985e-13
-6.89707e-14
-2.33593e-14
-4.0252e-15
1.17729e-34
-0.0181668
-0.0228711
-0.00340636
-2.2505e-07
-0.040537
-0.0769099
-2.27741e-14
-2.10947e-14
-2.52654e-14
-2.60881e-14
-2.29413e-14
-1.23749e-14
-1.07631e-14
-2.29518e-14
-1.05825e-14
-4.82697e-15
-1.7714e-15
-4.89599e-16
-4.26488e-34
-0.0331996
-0.0571773
-0.0123119
-2.34402e-07
-0.0763152
-0.0789741
-1.82328e-15
-1.81702e-15
-2.13994e-15
-2.17985e-15
-1.9087e-15
-8.88069e-16
-6.57641e-16
-1.54998e-15
-6.95933e-16
-2.67454e-16
-8.91912e-17
-2.7589e-17
1.13483e-35
-0.130452
-0.158688
-0.0436461
-2.3713e-07
-0.0334436
-0.081038
-1.21161e-16
-1.29535e-16
-1.493e-16
-1.54118e-16
-1.39694e-16
-5.8858e-17
-3.85173e-17
-8.4879e-17
-3.81046e-17
-1.1832e-17
-3.23355e-18
-8.72846e-19
3.80413e-37
-0.165011
-0.482583
-0.111718
-0.00067912
-0.00172743
-0.0229274
-6.82995e-18
-7.28943e-18
-8.53259e-18
-9.00203e-18
-8.4439e-18
-3.42838e-18
-2.02199e-18
-3.88897e-18
-1.64169e-18
-3.96084e-19
-8.43084e-20
-1.72176e-20
4.50701e-39
-0.123678
-0.593013
-0.223857
-0.00184999
-1.73003e-05
-3.54835e-05
-2.88932e-19
-2.95204e-19
-3.6021e-19
-3.98242e-19
-4.00828e-19
-1.61057e-19
-8.61151e-20
-1.33072e-19
-5.49569e-20
-1.0747e-20
-1.86811e-21
-3.0228e-22
-7.04699e-25
4.67399e-22
-0.606471
-0.37252
-0.0112809
-2.89567e-06
-5.57316e-07
-8.00541e-21
-8.5652e-21
-1.09123e-20
-1.25472e-20
-1.29613e-20
-5.28573e-21
-2.58381e-21
-3.26301e-21
-1.19395e-21
-1.84147e-22
-2.46574e-23
-3.41021e-24
-2.00232e-25
2.26001e-20
-0.590375
-0.482269
-0.0243797
-1.28165e-06
-5.70503e-07
-1.08404e-22
-1.22179e-22
-1.62627e-22
-1.95558e-22
-2.14416e-22
-9.27334e-23
-3.96817e-23
-3.92366e-23
-1.34925e-23
-1.77218e-24
-1.91649e-25
-2.34343e-26
-3.32281e-27
3.1681e-20
-0.518365
-0.459721
-0.0223429
-1.09989e-06
-5.8369e-07
-1.69914e-30
-7.23379e-31
-2.76565e-31
-6.26264e-32
-6.1653e-33
-1.17346e-34
-2.94163e-36
1.23394e-55
6.31423e-39
5.3586e-39
3.86233e-39
6.76526e-39
2.80728e-39
1.46093e-39
-0.353325
-0.218375
-0.00828226
-6.27227e-06
-7.4402e-05
)
;

boundaryField
{
    leftWall
    {
        type            calculated;
        value           nonuniform List<scalar> 
50
(
-29.4294
-88.2881
-147.147
-206.006
-264.864
-323.723
-382.582
-441.44
-533.467
-528.76
-120.806
-1.30796
-0.00529046
-7.97803e-05
-8.83537e-05
-0.000125292
-1.88683e-09
-2.04017e-09
-2.19404e-09
-2.34786e-09
-2.25217e-09
-1.47775e-09
-4.89126e-10
-1.2765e-10
-2.99902e-11
-6.78929e-12
-1.53625e-12
-3.51597e-13
-8.10876e-14
-1.87317e-14
-4.30987e-15
-9.95295e-16
-2.45771e-16
-6.61832e-17
-1.98914e-17
-6.81631e-18
-2.16265e-18
-1.74071e-18
-3.13711e-18
-2.44915e-17
-2.40566e-16
-1.473e-15
-9.1576e-15
-4.06173e-14
-1.85233e-13
-5.89261e-13
-1.73957e-12
-4.03558e-12
-9.35467e-12
-3.28844e-11
)
;
    }
    rightWall
    {
        type            calculated;
        value           nonuniform List<scalar> 
50
(
-27.648
-86.8868
-144.763
-199.34
-262.478
-320.807
-379.135
-352.65
-209.211
-421.083
-761.233
-846.509
-306.457
-0.0136197
-0.0339732
-27.6351
-156.78
-174.435
-187.589
-172.179
-7.14928
-0.0628272
-0.0665731
-0.102358
-0.0614623
-2.08693e-08
-0.000271323
-0.000308802
-8.64309e-05
-2.84739e-05
-3.58479e-05
-0.000179365
-0.000522043
-0.00156178
-0.00441462
-0.00505087
-0.00426873
-3.18593e-06
-0.00468576
-0.0523946
-0.074776
-0.0769099
-0.0789741
-0.081038
-0.0229274
-3.54835e-05
-5.57316e-07
-5.70503e-07
-5.8369e-07
-7.4402e-05
)
;
    }
    lowerWall
    {
        type            calculated;
        value           nonuniform List<scalar> 
62
(
0
0
0
0
0
0
0
0
0
0
0
0
0
0
0
0
0
0
0
0
0
0
0
-29.4236
-88.2626
-147.104
-205.949
-264.846
-323.723
-382.581
-441.44
-270.394
-302.46
-395.914
-433.607
-27.5809
-82.7515
-137.904
-192.98
-247.998
-303.11
-356.957
-407.997
0
0
0
0
0
0
0
0
0
0
0
0
0
0
0
0
0
0
0
)
;
    }
    atmosphere
    {
        type            calculated;
        value           nonuniform List<scalar> 
46
(
-3.32477e-11
-8.94383e-10
-1.05311e-08
-6.9157e-08
-2.63572e-07
-1.19061e-06
-0.000193851
-0.00497745
-0.00819649
-0.000342098
-8.93138e-10
-8.93138e-10
-8.93177e-10
-2.56115e-10
-3.89279e-11
-2.85461e-12
-1.03189e-14
-0
-0
-0
-0
-0
-0
-0
-0
-0
-0
-0
-0
-0
-0
-0
-0
-0
-0
-0
-0
-0
-0
-0
-0
-0
-0.220787
-0.00837376
-6.34156e-06
-7.52239e-05
)
;
    }
    defaultFaces
    {
        type            empty;
    }
}


// ************************************************************************* //
