/*--------------------------------*- C++ -*----------------------------------*\
| =========                 |                                                 |
| \\      /  F ield         | OpenFOAM: The Open Source CFD Toolbox           |
|  \\    /   O peration     | Version:  2012                                  |
|   \\  /    A nd           | Website:  www.openfoam.com                      |
|    \\/     M anipulation  |                                                 |
\*---------------------------------------------------------------------------*/
FoamFile
{
    version     2.0;
    format      ascii;
    class       volScalarField;
    location    "0.009";
    object      maxKappa;
}
// * * * * * * * * * * * * * * * * * * * * * * * * * * * * * * * * * * * * * //

dimensions      [0 0 0 0 0 0 0];


internalField   nonuniform List<scalar> 
200
(
0.3220416884
0.3220416884
0.3220416884
0.3220416884
0.3220416884
0.3220416884
0.3220416884
0.3220416884
0.3220416884
0.3220416884
0.3220416884
0.3220416884
0.3220416884
0.3220416884
0.3220416884
0.3220416884
0.3220416884
0.3220416884
0.3220416884
0.3220416884
0.3220416884
0.3220416884
0.3220416884
0.3220416884
0.3220416884
0.3220416884
0.3220416884
0.3220416884
0.3220416884
0.3220416884
0.3220416884
0.3220416884
0.3220416884
0.3220416884
0.3220416884
0.3220416884
0.3220416884
0.3220416884
0.3220416884
0.3220416884
0.3220416884
0.3220416884
0.3220416884
0.3220416884
0.3220416884
0.3220416884
0.3220416884
0.3220416884
0.3220416884
0.3220416884
0.3220416884
0.3220416884
0.3220416884
0.3220416884
0.3220416884
0.3220416884
0.3220416884
0.3220416884
0.3220416884
0.3220416884
0.3220416884
0.3220416884
0.3220416884
0.3220416884
0.3220416884
0.3220416884
0.3220416884
0.3220416884
0.3220416884
0.3220416884
0.3220416884
0.3220416884
0.3220416884
0.3220416884
0.3220416884
0.3220416884
0.3220416884
0.3220416884
0.3220416884
0.3220416884
0.3220416884
0.3220416884
0.3220416884
0.3220416884
0.3220416884
0.3220416884
0.3220416884
0.3220416884
0.3220416884
0.3220416884
0.3220416884
0.3220416884
0.3220416884
0.3220416884
0.3220416884
0.3220416884
0.3220416884
0.3220416884
0.3220416884
0.322041693
0.3220418364
0.322044024
0.3220658851
0.3222265065
0.3231381729
0.3270767883
0.3388165928
0.3596720094
0.3759487696
0.3838724429
0.3856883982
0.3856883982
0.3833779756
0.376790654
0.3643929248
0.3440019083
0.31345521
0.2714370632
0.218101567
0.1603848544
0.1112509017
0.07594438467
0.0523897011
0.0375377983
0.02908152292
0.02453332459
0.02219943706
0.02105087836
0.02050724979
0.02025920015
0.02014985013
0.02010318093
0.02008386234
0.02007609318
0.02007305318
0.02007189423
0.02007146324
0.02007130671
0.02007125114
0.02007123184
0.02007122527
0.02007122308
0.02007122236
0.02007122213
0.02007122206
0.02007122203
0.02007122203
0.02007122202
0.02007122202
0.02007122202
0.02007122202
0.02007122202
0.02007122202
0.02007122202
0.02007122202
0.02007122202
0.02007122202
0.02007122202
0.02007122202
0.02007122202
0.02007122202
0.02007122202
0.02007122202
0.02007122202
0.02007122202
0.02007122202
0.02007122202
0.02007122202
0.02007122202
0.02007122202
0.02007122202
0.02007122202
0.02007122202
0.02007122202
0.02007122202
0.02007122202
0.02007122202
0.02007122202
0.02007122202
0.02007122202
0.02007122202
0.02007122202
0.02007122202
0.02007122202
0.02007122202
0.02007122202
0.02007122202
0.02007122202
0.02007122202
0.02007122202
0.02007122202
0.02007122202
0.02007122202
0.02007122202
0.02007122202
0.02007122202
0.02007122202
0.02007122202
0.02007122202
0.02007122202
)
;

boundaryField
{
    sides
    {
        type            calculated;
        value           uniform 0;
    }
    empty1
    {
        type            empty;
    }
    empty2
    {
        type            empty;
    }
}


// ************************************************************************* //
