/*--------------------------------*- C++ -*----------------------------------*\
| =========                 |                                                 |
| \\      /  F ield         | OpenFOAM: The Open Source CFD Toolbox           |
|  \\    /   O peration     | Version:  2012                                  |
|   \\  /    A nd           | Website:  www.openfoam.com                      |
|    \\/     M anipulation  |                                                 |
\*---------------------------------------------------------------------------*/
FoamFile
{
    version     2.0;
    format      ascii;
    class       volScalarField;
    location    "0.009";
    object      rho;
}
// * * * * * * * * * * * * * * * * * * * * * * * * * * * * * * * * * * * * * //

dimensions      [1 -3 0 0 0 0 0];


internalField   nonuniform List<scalar> 
200
(
1.161440186
1.161440186
1.161440186
1.161440186
1.161440186
1.161440186
1.161440186
1.161440186
1.161440186
1.161440186
1.161440186
1.161440186
1.161440186
1.161440186
1.161440186
1.161440186
1.161440186
1.161440186
1.161440186
1.161440186
1.161440186
1.161440186
1.161440186
1.161440186
1.161440186
1.161440186
1.161440186
1.161440186
1.161440186
1.161440186
1.161440186
1.161440186
1.161440186
1.161440186
1.161440186
1.161440186
1.161440186
1.161440186
1.161440186
1.161440186
1.161440186
1.161440186
1.161440186
1.161440186
1.161440186
1.161440186
1.161440186
1.161440186
1.161440186
1.161440186
1.161440186
1.161440186
1.161440186
1.161440186
1.161440186
1.161440186
1.161440186
1.161440186
1.161440186
1.161440186
1.161440186
1.161440186
1.161440186
1.161440186
1.161440186
1.161440186
1.161440186
1.161440186
1.161440186
1.161440186
1.161440186
1.161440186
1.161440186
1.161440186
1.161440186
1.161440186
1.161440186
1.161440186
1.161440186
1.161440186
1.161440186
1.161440186
1.161440186
1.161440186
1.161440186
1.161440186
1.161440186
1.161440186
1.161440186
1.161440186
1.161440186
1.161440186
1.161440186
1.161440186
1.161440186
1.161440186
1.161440186
1.161440186
1.161440186
1.161440186
1.161440251
1.161442056
1.161466942
1.161693956
1.163234586
1.171526488
1.208368763
1.347259274
1.800375828
3.098666735
6.402881174
13.9382096
29.44136025
58.36551042
107.4852032
183.5849368
291.3150923
430.2500634
594.0599604
747.8599172
858.41027
931.6502398
976.9919551
1003.435577
1018.053029
1025.749389
1029.624863
1031.497586
1032.36855
1032.759395
1032.929005
1033.000321
1033.029427
1033.040975
1033.045436
1033.047115
1033.047733
1033.047954
1033.048032
1033.048059
1033.048068
1033.048071
1033.048072
1033.048072
1033.048072
1033.048072
1033.048072
1033.048072
1033.048072
1033.048072
1033.048072
1033.048072
1033.048072
1033.048072
1033.048072
1033.048072
1033.048072
1033.048072
1033.048072
1033.048072
1033.048072
1033.048072
1033.048072
1033.048072
1033.048072
1033.048072
1033.048072
1033.048072
1033.048072
1033.048072
1033.048072
1033.048072
1033.048072
1033.048072
1033.048072
1033.048072
1033.048072
1033.048072
1033.048072
1033.048072
1033.048072
1033.048072
1033.048072
1033.048072
1033.048072
1033.048072
1033.048072
1033.048072
1033.048072
1033.048072
1033.048072
1033.048072
1033.048072
1033.048072
1033.048072
1033.048072
1033.048072
1033.048072
1033.048072
1033.048072
)
;

boundaryField
{
    sides
    {
        type            calculated;
        value           nonuniform List<scalar> 2(1033.048072 1.161440186);
    }
    empty1
    {
        type            empty;
    }
    empty2
    {
        type            empty;
    }
}


// ************************************************************************* //
