/*--------------------------------*- C++ -*----------------------------------*\
| =========                 |                                                 |
| \\      /  F ield         | OpenFOAM: The Open Source CFD Toolbox           |
|  \\    /   O peration     | Version:  2012                                  |
|   \\  /    A nd           | Website:  www.openfoam.com                      |
|    \\/     M anipulation  |                                                 |
\*---------------------------------------------------------------------------*/
FoamFile
{
    version     2.0;
    format      ascii;
    class       volScalarField;
    location    "0.009";
    object      volumeFraction1;
}
// * * * * * * * * * * * * * * * * * * * * * * * * * * * * * * * * * * * * * //

dimensions      [0 0 0 0 0 0 0];


internalField   nonuniform List<scalar> 
200
(
5.58146924e-115
5.581468673e-115
5.58146378e-115
5.581151325e-115
5.581509001e-115
5.566778802e-115
5.680819869e-115
4.43812119e-115
1.678136695e-114
-1.082891607e-113
1.154049253e-112
-1.159556523e-111
1.171611783e-110
-1.183158287e-109
1.194878998e-108
-1.20671016e-107
1.218658988e-106
-1.230726086e-105
1.242912676e-104
-1.255219937e-103
1.267649064e-102
-1.280201263e-101
1.292877754e-100
-1.305679766e-99
1.318608544e-98
-1.331665342e-97
1.344851427e-96
-1.358168081e-95
1.371616595e-94
-1.385198276e-93
1.398914442e-92
-1.412766424e-91
1.426755569e-90
-1.440883233e-89
1.455150789e-88
-1.469559621e-87
1.484111129e-86
-1.498806725e-85
1.513647836e-84
-1.528635904e-83
1.543772382e-82
-1.559058741e-81
1.574496465e-80
-1.590087052e-79
1.605832017e-78
-1.621732887e-77
1.637791208e-76
-1.654008536e-75
1.670386449e-74
-1.686926534e-73
1.703630398e-72
-1.720499664e-71
1.737535968e-70
-1.754740964e-69
1.772116324e-68
-1.789663734e-67
1.807384897e-66
-1.825281534e-65
1.843355383e-64
-1.861608199e-63
1.880041752e-62
-1.898657834e-61
1.917458252e-60
-1.93644483e-59
1.955619413e-58
-1.974983861e-57
1.994540055e-56
-2.014289894e-55
2.034235294e-54
-2.054378193e-53
2.074720546e-52
-2.095264328e-51
2.116011534e-50
-2.136964177e-49
2.158124292e-48
-2.179493934e-47
2.201075177e-46
-2.222870116e-45
2.244880868e-44
-2.267109569e-43
2.289558378e-42
-2.312229474e-41
2.335125057e-40
-2.358247352e-39
2.381598603e-38
-2.405181076e-37
2.428997062e-36
-2.453048873e-35
2.477338844e-34
-2.501869332e-33
2.526642721e-32
-2.551661414e-31
2.576927841e-30
-2.602444455e-29
2.628213734e-28
-2.654238178e-27
2.680520316e-26
-2.707062698e-25
2.733867901e-24
-4.522088624e-22
6.300402032e-11
1.812375619e-09
2.592962472e-08
2.459284716e-07
1.738950884e-06
9.774622471e-06
4.54784236e-05
0.0001800770378
0.0006191917044
0.001877363742
0.005079473679
0.01238195071
0.02740603394
0.05543639045
0.1030382212
0.1767863745
0.2811875288
0.4158292296
0.5745771888
0.7236245279
0.8307587318
0.9017354917
0.9456760893
0.9713025692
0.9854683232
0.9929268554
0.9966825719
0.9984974254
0.9993414759
0.9997202433
0.9998846116
0.9999537242
0.9999819308
0.9999931222
0.999997445
0.9999990728
0.9999996709
0.9999998857
0.9999999611
0.999999987
0.9999999958
0.9999999986
0.9999999996
0.9999999999
1
1
1
1
1
1
1
1
1
1
1
1
1
1
1
1
1
1
1
1
1
1
1
1
1
1
1
1
1
1
1
1
1
1
1
1
1
1
1
1
1
1
1
1
1
1
1
1
1
1
1
1
1
1
1
1
)
;

boundaryField
{
    sides
    {
        type            zeroGradient;
    }
    empty1
    {
        type            empty;
    }
    empty2
    {
        type            empty;
    }
}


// ************************************************************************* //
