/*--------------------------------*- C++ -*----------------------------------*\
| =========                 |                                                 |
| \\      /  F ield         | OpenFOAM: The Open Source CFD Toolbox           |
|  \\    /   O peration     | Version:  3.0.1                                 |
|   \\  /    A nd           | Web:      www.OpenFOAM.org                      |
|    \\/     M anipulation  |                                                 |
\*---------------------------------------------------------------------------*/
FoamFile
{
    version     2.0;
    format      ascii;
    class       volScalarField;
    location    "0.0001";
    object      p;
}
// * * * * * * * * * * * * * * * * * * * * * * * * * * * * * * * * * * * * * //

dimensions      [1 -1 -2 0 0 0 0];

internalField   nonuniform List<scalar> 
1000
(
68970
68970
68970
68970
68970
68970
68970
68970
68970
68970
68970
68970
68970
68970
68970
68970
68970
68970
68970
68970
68969.9
68969.9
68969.8
68969.5
68969.1
68968.2
68966.5
68963.3
68957.6
68947.3
68929.1
68898
68846.1
68762
68630.3
68431.5
68144.2
67748.8
67234.5
66608.4
65904.9
65189.6
64552.1
64081.4
63826.3
63758.7
63775.1
63785.9
63779.8
63776.1
63775.8
63790.9
63797.9
63805.8
63850.1
63893.6
63825.1
63546.2
63035.9
62359.2
61625.4
60935.6
60353.2
59901.2
59573
59347.4
59199.2
59105.4
59048.1
59014.1
58994.4
58983.3
58977.1
58973.7
58971.9
58971
58970.5
58970.2
58970.1
58970.1
58970
58970
58970
58970
58970
58970
58970
58970
58970
58970
58970
58970
58970
58970
58970
58970
58970
58970
58970
58970
68970
68970
68970
68970
68970
68970
68970
68970
68970
68970
68970
68970
68970
68970
68970
68970
68970
68970
68970
68970
68969.9
68969.9
68969.8
68969.5
68969.1
68968.2
68966.5
68963.3
68957.6
68947.3
68929.1
68898
68846.1
68762.1
68630.3
68431.6
68144.3
67748.8
67234.5
66608.4
65904.9
65189.5
64551.9
64081.1
63825.8
63758.4
63775.2
63786.4
63779.8
63776.2
63775.5
63790.4
63797.5
63805.6
63850.3
63894
63825.5
63546.5
63036
62359.3
61625.4
60935.5
60353.2
59901.2
59573
59347.4
59199.2
59105.4
59048.1
59014.1
58994.4
58983.3
58977.1
58973.7
58971.9
58971
58970.5
58970.2
58970.1
58970.1
58970
58970
58970
58970
58970
58970
58970
58970
58970
58970
58970
58970
58970
58970
58970
58970
58970
58970
58970
58970
68970
68970
68970
68970
68970
68970
68970
68970
68970
68970
68970
68970
68970
68970
68970
68970
68970
68970
68970
68970
68969.9
68969.9
68969.8
68969.5
68969.1
68968.2
68966.5
68963.3
68957.6
68947.3
68929.1
68898
68846.1
68762.1
68630.3
68431.6
68144.3
67748.9
67234.6
66608.5
65904.8
65189.4
64551.6
64080.7
63825.6
63758.4
63775.4
63785.8
63779.6
63776.1
63775.7
63790.5
63797.4
63805.4
63850.2
63894.1
63825.7
63546.7
63036.2
62359.4
61625.4
60935.5
60353.2
59901.2
59573
59347.4
59199.1
59105.4
59048.1
59014.1
58994.4
58983.3
58977.1
58973.7
58971.9
58971
58970.5
58970.2
58970.1
58970.1
58970
58970
58970
58970
58970
58970
58970
58970
58970
58970
58970
58970
58970
58970
58970
58970
58970
58970
58970
58970
68970
68970
68970
68970
68970
68970
68970
68970
68970
68970
68970
68970
68970
68970
68970
68970
68970
68970
68970
68970
68969.9
68969.9
68969.8
68969.5
68969.1
68968.2
68966.5
68963.3
68957.6
68947.3
68929.1
68898
68846.2
68762.1
68630.4
68431.6
68144.4
67749
67234.7
66608.5
65904.8
65189.2
64551.2
64080.1
63824.9
63758
63775.4
63786.4
63779.7
63776
63775.3
63790
63796.9
63805.1
63850.2
63894.4
63826.2
63547.1
63036.5
62359.5
61625.5
60935.5
60353.2
59901.1
59573
59347.3
59199.1
59105.4
59048.1
59014.1
58994.4
58983.3
58977.1
58973.7
58971.9
58971
58970.5
58970.2
58970.1
58970.1
58970
58970
58970
58970
58970
58970
58970
58970
58970
58970
58970
58970
58970
58970
58970
58970
58970
58970
58970
58970
68970
68970
68970
68970
68970
68970
68970
68970
68970
68970
68970
68970
68970
68970
68970
68970
68970
68970
68970
68970
68969.9
68969.9
68969.8
68969.5
68969.1
68968.2
68966.5
68963.3
68957.6
68947.3
68929.1
68898
68846.2
68762.1
68630.4
68431.7
68144.4
67749.1
67234.7
66608.5
65904.8
65189.1
64551
64079.7
63824.4
63757.7
63775.5
63786.7
63779.9
63776.1
63775.2
63789.8
63796.4
63804.7
63850.1
63894.6
63826.5
63547.4
63036.7
62359.6
61625.5
60935.5
60353.1
59901.1
59572.9
59347.3
59199.1
59105.4
59048.1
59014.1
58994.4
58983.3
58977.1
58973.7
58971.9
58971
58970.5
58970.2
58970.1
58970.1
58970
58970
58970
58970
58970
58970
58970
58970
58970
58970
58970
58970
58970
58970
58970
58970
58970
58970
58970
58970
68970
68970
68970
68970
68970
68970
68970
68970
68970
68970
68970
68970
68970
68970
68970
68970
68970
68970
68970
68970
68969.9
68969.9
68969.8
68969.5
68969.1
68968.2
68966.5
68963.3
68957.6
68947.3
68929.1
68898.1
68846.2
68762.1
68630.4
68431.7
68144.5
67749.1
67234.8
66608.6
65904.9
65189.2
64551
64079.7
63824.4
63757.6
63775.4
63786.6
63779.9
63776.1
63775.3
63789.9
63796.5
63804.8
63850.1
63894.6
63826.5
63547.4
63036.7
62359.6
61625.5
60935.5
60353.1
59901.1
59572.9
59347.3
59199.1
59105.4
59048.1
59014.1
58994.4
58983.3
58977.1
58973.7
58971.9
58971
58970.5
58970.2
58970.1
58970.1
58970
58970
58970
58970
58970
58970
58970
58970
58970
58970
58970
58970
58970
58970
58970
58970
58970
58970
58970
58970
68970
68970
68970
68970
68970
68970
68970
68970
68970
68970
68970
68970
68970
68970
68970
68970
68970
68970
68970
68970
68969.9
68969.9
68969.8
68969.5
68969.1
68968.2
68966.5
68963.3
68957.6
68947.3
68929.1
68898.1
68846.2
68762.1
68630.4
68431.7
68144.5
67749.1
67234.8
66608.7
65905
65189.4
64551.4
64080.2
63824.8
63757.7
63775
63786
63779.5
63776
63775.2
63790
63797
63805.3
63850.4
63894.6
63826.3
63547.2
63036.5
62359.4
61625.4
60935.4
60353.1
59901.1
59572.9
59347.3
59199.1
59105.4
59048.1
59014.1
58994.4
58983.3
58977.1
58973.7
58971.9
58971
58970.5
58970.2
58970.1
58970.1
58970
58970
58970
58970
58970
58970
58970
58970
58970
58970
58970
58970
58970
58970
58970
58970
58970
58970
58970
58970
68970
68970
68970
68970
68970
68970
68970
68970
68970
68970
68970
68970
68970
68970
68970
68970
68970
68970
68970
68970
68969.9
68969.9
68969.8
68969.5
68969.1
68968.2
68966.5
68963.3
68957.6
68947.3
68929.1
68898
68846.2
68762.1
68630.4
68431.7
68144.4
67749.1
67234.8
66608.7
65905.1
65189.6
64551.7
64080.6
63825.3
63757.9
63774.8
63785.3
63779.3
63775.8
63775.5
63790.4
63797.5
63805.6
63850.5
63894.5
63826
63546.9
63036.3
62359.3
61625.3
60935.4
60353.1
59901.1
59572.9
59347.3
59199.1
59105.4
59048.1
59014.1
58994.4
58983.3
58977.1
58973.7
58971.9
58971
58970.5
58970.2
58970.1
58970.1
58970
58970
58970
58970
58970
58970
58970
58970
58970
58970
58970
58970
58970
58970
58970
58970
58970
58970
58970
58970
68970
68970
68970
68970
68970
68970
68970
68970
68970
68970
68970
68970
68970
68970
68970
68970
68970
68970
68970
68970
68969.9
68969.9
68969.8
68969.5
68969.1
68968.2
68966.5
68963.3
68957.6
68947.3
68929.1
68898
68846.2
68762.1
68630.4
68431.7
68144.4
67749.1
67234.8
66608.7
65905.1
65189.6
64551.8
64080.7
63825.3
63758.1
63775.2
63786
63779.5
63776
63775.3
63790.2
63797.3
63805.6
63850.5
63894.5
63826
63546.9
63036.3
62359.3
61625.3
60935.4
60353.1
59901.1
59572.9
59347.3
59199.1
59105.4
59048.1
59014.1
58994.4
58983.3
58977.1
58973.7
58971.9
58971
58970.5
58970.2
58970.1
58970.1
58970
58970
58970
58970
58970
58970
58970
58970
58970
58970
58970
58970
58970
58970
58970
58970
58970
58970
58970
58970
68970
68970
68970
68970
68970
68970
68970
68970
68970
68970
68970
68970
68970
68970
68970
68970
68970
68970
68970
68970
68969.9
68969.9
68969.8
68969.5
68969.1
68968.2
68966.5
68963.3
68957.6
68947.3
68929.1
68898
68846.2
68762.1
68630.4
68431.7
68144.4
67749
67234.7
66608.6
65905
65189.6
64551.8
64080.8
63825.5
63758.5
63775.6
63786.2
63779.9
63776.2
63775.6
63790.4
63797.2
63805.3
63850.1
63894.2
63825.9
63546.9
63036.3
62359.4
61625.4
60935.5
60353.1
59901.1
59572.9
59347.3
59199.1
59105.4
59048.1
59014.1
58994.4
58983.3
58977.1
58973.7
58971.9
58971
58970.5
58970.2
58970.1
58970.1
58970
58970
58970
58970
58970
58970
58970
58970
58970
58970
58970
58970
58970
58970
58970
58970
58970
58970
58970
58970
)
;

boundaryField
{
    sides1
    {
        type            zeroGradient;
    }
    sides2
    {
        type            slip;
    }
    empty
    {
        type            empty;
    }
}


// ************************************************************************* //
