/*--------------------------------*- C++ -*----------------------------------*\
| =========                 |                                                 |
| \\      /  F ield         | OpenFOAM: The Open Source CFD Toolbox           |
|  \\    /   O peration     | Version:  3.0.1                                 |
|   \\  /    A nd           | Web:      www.OpenFOAM.org                      |
|    \\/     M anipulation  |                                                 |
\*---------------------------------------------------------------------------*/
FoamFile
{
    version     2.0;
    format      ascii;
    class       volVectorField;
    location    "0.0001";
    object      U;
}
// * * * * * * * * * * * * * * * * * * * * * * * * * * * * * * * * * * * * * //

dimensions      [0 1 -1 0 0 0 0];

internalField   nonuniform List<vector> 
1000
(
(2.24793e-11 5.83879e-14 0)
(8.15095e-11 5.83879e-14 0)
(1.97993e-10 8.75818e-14 0)
(4.55776e-10 -2.91939e-14 0)
(1.03703e-09 -2.91939e-14 0)
(2.34603e-09 -5.83879e-14 0)
(5.282e-09 -5.83879e-14 0)
(1.18354e-08 -2.91939e-13 0)
(2.63919e-08 -5.83879e-13 0)
(5.85523e-08 -1.13856e-12 0)
(1.2921e-07 -2.27713e-12 0)
(2.83541e-07 -4.70022e-12 0)
(6.18559e-07 -9.77997e-12 0)
(1.34108e-06 -2.04941e-11 0)
(2.88865e-06 -4.18057e-11 0)
(6.17938e-06 -8.75234e-11 0)
(1.31231e-05 -1.83046e-10 0)
(2.76555e-05 -3.8463e-10 0)
(5.78075e-05 -8.09344e-10 0)
(0.000119791 -1.70539e-09 0)
(0.000245959 -3.59083e-09 0)
(0.000500074 -7.54345e-09 0)
(0.00100612 -1.57811e-08 0)
(0.00200168 -3.28185e-08 0)
(0.00393466 -6.77163e-08 0)
(0.00763483 -1.38378e-07 0)
(0.0146094 -2.79531e-07 0)
(0.0275368 -5.57127e-07 0)
(0.0510623 -1.09342e-06 0)
(0.0930202 -2.10874e-06 0)
(0.16621 -3.98735e-06 0)
(0.290785 -7.37373e-06 0)
(0.497122 -1.32988e-05 0)
(0.828659 -2.33161e-05 0)
(1.34357 -3.95891e-05 0)
(2.11329 -6.48046e-05 0)
(3.21526 -0.000101704 0)
(4.71698 -0.000151963 0)
(6.64992 -0.00021421 0)
(8.97541 -0.000281344 0)
(11.552 -0.000338029 0)
(14.1241 -0.000360282 0)
(16.3567 -0.000319869 0)
(17.9379 -0.000197261 0)
(18.7289 1.93212e-05 0)
(18.8987 0.000234505 0)
(18.8053 0.000381114 0)
(18.7731 -7.6709e-06 0)
(18.5997 -2.71588e-05 0)
(18.8928 -0.00336588 0)
(20.1525 -0.000151754 0)
(19.4841 0.0033744 0)
(19.0982 0.000367796 0)
(19.2549 -0.000496751 0)
(19.4864 -0.000507838 0)
(19.6568 -0.000338277 0)
(19.5108 -0.000122393 0)
(18.6143 5.90045e-05 0)
(16.8139 0.000160066 0)
(14.2829 0.000192209 0)
(11.4083 0.000179369 0)
(8.6001 0.000145612 0)
(6.15235 0.000107469 0)
(4.20154 7.37917e-05 0)
(2.75453 4.78398e-05 0)
(1.74227 2.95897e-05 0)
(1.0677 1.75952e-05 0)
(0.6362 1.01179e-05 0)
(0.369679 5.65201e-06 0)
(0.209999 3.07827e-06 0)
(0.116865 1.63941e-06 0)
(0.0638266 8.55894e-07 0)
(0.0342647 4.38948e-07 0)
(0.0181055 2.21543e-07 0)
(0.00942792 1.10216e-07 0)
(0.00484315 5.41229e-08 0)
(0.00245675 2.62669e-08 0)
(0.00123166 1.26125e-08 0)
(0.000610737 5.99765e-09 0)
(0.000299748 2.8269e-09 0)
(0.000145705 1.32148e-09 0)
(7.01875e-05 6.12981e-10 0)
(3.35232e-05 2.82273e-10 0)
(1.58833e-05 1.29135e-10 0)
(7.46866e-06 5.8575e-11 0)
(3.48679e-06 2.64279e-11 0)
(1.6168e-06 1.18652e-11 0)
(7.4488e-07 5.32656e-12 0)
(3.41079e-07 2.35598e-12 0)
(1.55272e-07 1.07555e-12 0)
(7.02941e-08 4.95097e-13 0)
(3.16554e-08 2.2194e-13 0)
(1.41834e-08 1.53651e-13 0)
(6.32426e-09 1.19506e-13 0)
(2.80669e-09 5.12169e-14 0)
(1.23982e-09 3.41446e-14 0)
(5.44367e-10 3.41446e-14 0)
(2.36007e-10 3.41446e-14 0)
(9.70389e-11 1.70723e-14 0)
(2.67352e-11 1.08547e-27 0)
(2.24209e-11 5.83879e-14 0)
(8.16263e-11 8.75818e-14 0)
(1.97643e-10 -2.91939e-14 0)
(4.55776e-10 2.91939e-14 0)
(1.03685e-09 -1.4597e-13 0)
(2.34573e-09 -1.4597e-13 0)
(5.28153e-09 -3.79521e-13 0)
(1.18346e-08 -7.59043e-13 0)
(2.63904e-08 -1.66405e-12 0)
(5.85487e-08 -3.15295e-12 0)
(1.29203e-07 -6.39347e-12 0)
(2.83527e-07 -1.28453e-11 0)
(6.18528e-07 -2.63913e-11 0)
(1.34102e-06 -5.43883e-11 0)
(2.88852e-06 -1.12776e-10 0)
(6.1791e-06 -2.34719e-10 0)
(1.31225e-05 -4.90692e-10 0)
(2.76543e-05 -1.02882e-09 0)
(5.78049e-05 -2.16272e-09 0)
(0.000119786 -4.54967e-09 0)
(0.000245947 -9.56586e-09 0)
(0.00050005 -2.00682e-08 0)
(0.00100607 -4.19308e-08 0)
(0.00200157 -8.70982e-08 0)
(0.00393446 -1.79523e-07 0)
(0.00763441 -3.66476e-07 0)
(0.0146085 -7.39545e-07 0)
(0.0275352 -1.47241e-06 0)
(0.0510592 -2.88637e-06 0)
(0.0930145 -5.55904e-06 0)
(0.1662 -1.04941e-05 0)
(0.290767 -1.93663e-05 0)
(0.49709 -3.48339e-05 0)
(0.828608 -6.08555e-05 0)
(1.34348 -0.000102834 0)
(2.11316 -0.000167229 0)
(3.21508 -0.000260034 0)
(4.71676 -0.000383324 0)
(6.64967 -0.000529184 0)
(8.97517 -0.000671246 0)
(11.5519 -0.000756724 0)
(14.1241 -0.000707505 0)
(16.357 -0.000443586 0)
(17.9386 5.09483e-05 0)
(18.7297 0.000621627 0)
(18.8992 0.000930702 0)
(18.8044 0.000602246 0)
(18.7717 0.00172892 0)
(18.5983 0.00103837 0)
(18.8923 0.000379238 0)
(20.1584 0.000315406 0)
(19.491 0.000651985 0)
(19.0945 -0.00032159 0)
(19.2535 -0.00106346 0)
(19.487 -0.00133214 0)
(19.6579 -0.00119724 0)
(19.5117 -0.000773195 0)
(18.6149 -0.00027852 0)
(16.8142 0.000103284 0)
(14.283 0.000309692 0)
(11.4083 0.000366894 0)
(8.59996 0.000333256 0)
(6.15221 0.000261888 0)
(4.20142 0.000186811 0)
(2.75444 0.0001241 0)
(1.74221 7.8e-05 0)
(1.06767 4.68797e-05 0)
(0.636176 2.71467e-05 0)
(0.369665 1.52304e-05 0)
(0.209991 8.3143e-06 0)
(0.11686 4.43107e-06 0)
(0.0638242 2.31167e-06 0)
(0.0342634 1.18312e-06 0)
(0.0181048 5.95114e-07 0)
(0.00942759 2.94638e-07 0)
(0.00484298 1.43757e-07 0)
(0.00245667 6.91937e-08 0)
(0.00123162 3.28813e-08 0)
(0.000610718 1.54365e-08 0)
(0.000299739 7.16218e-09 0)
(0.0001457 3.2852e-09 0)
(7.01855e-05 1.48959e-09 0)
(3.35223e-05 6.6768e-10 0)
(1.58829e-05 2.95538e-10 0)
(7.46846e-06 1.29118e-10 0)
(3.4867e-06 5.56557e-11 0)
(1.61676e-06 2.36622e-11 0)
(7.44861e-07 9.88486e-12 0)
(3.4107e-07 4.11442e-12 0)
(1.55268e-07 1.58772e-12 0)
(7.02924e-08 6.99964e-13 0)
(3.16547e-08 3.24374e-13 0)
(1.4183e-08 1.53651e-13 0)
(6.32423e-09 1.36578e-13 0)
(2.80669e-09 1.02434e-13 0)
(1.23972e-09 8.53615e-14 0)
(5.44299e-10 1.02434e-13 0)
(2.35939e-10 1.70723e-14 0)
(9.71755e-11 3.41446e-14 0)
(2.65986e-11 3.41446e-14 0)
(2.24209e-11 -5.83879e-14 0)
(8.14511e-11 -1.16776e-13 0)
(1.97877e-10 -1.4597e-13 0)
(4.55309e-10 -1.16776e-13 0)
(1.03703e-09 -1.4597e-13 0)
(2.3455e-09 -2.04358e-13 0)
(5.28089e-09 -4.67103e-13 0)
(1.1833e-08 -9.92594e-13 0)
(2.63872e-08 -1.98519e-12 0)
(5.85427e-08 -4.23312e-12 0)
(1.29191e-07 -8.61221e-12 0)
(2.83502e-07 -1.7458e-11 0)
(6.18477e-07 -3.56458e-11 0)
(1.34091e-06 -7.31308e-11 0)
(2.8883e-06 -1.50787e-10 0)
(6.17863e-06 -3.11733e-10 0)
(1.31215e-05 -6.4758e-10 0)
(2.76522e-05 -1.34969e-09 0)
(5.78006e-05 -2.82081e-09 0)
(0.000119776 -5.9048e-09 0)
(0.000245928 -1.23623e-08 0)
(0.00050001 -2.58416e-08 0)
(0.00100599 -5.38386e-08 0)
(0.00200141 -1.11581e-07 0)
(0.00393411 -2.29603e-07 0)
(0.00763373 -4.68182e-07 0)
(0.0146072 -9.44162e-07 0)
(0.0275326 -1.87934e-06 0)
(0.0510542 -3.68461e-06 0)
(0.0930052 -7.09984e-06 0)
(0.166183 -1.34136e-05 0)
(0.290737 -2.47816e-05 0)
(0.49704 -4.46376e-05 0)
(0.828525 -7.81166e-05 0)
(1.34336 -0.000132268 0)
(2.11298 -0.00021559 0)
(3.21483 -0.000336096 0)
(4.71645 -0.000496848 0)
(6.64936 -0.000687973 0)
(8.97496 -0.000875352 0)
(11.552 -0.000989579 0)
(14.1247 -0.000927552 0)
(16.3582 -0.000585358 0)
(17.94 5.39274e-05 0)
(18.7305 0.000771736 0)
(18.8983 0.00115194 0)
(18.8068 0.00070764 0)
(18.7741 0.00180509 0)
(18.5973 0.000964053 0)
(18.8914 0.000190587 0)
(20.1523 0.000469478 0)
(19.4834 0.000572636 0)
(19.0959 -0.000159413 0)
(19.2529 -0.000965268 0)
(19.4862 -0.00142178 0)
(19.6581 -0.00142654 0)
(19.5127 -0.00100737 0)
(18.6161 -0.000421217 0)
(16.8151 7.33834e-05 0)
(14.2834 0.00036563 0)
(11.4084 0.000463601 0)
(8.5999 0.000433758 0)
(6.15206 0.000346412 0)
(4.20127 0.000249463 0)
(2.75431 0.000166653 0)
(1.74212 0.00010507 0)
(1.0676 6.32368e-05 0)
(0.636137 3.66236e-05 0)
(0.369641 2.05304e-05 0)
(0.209978 1.1189e-05 0)
(0.116853 5.94852e-06 0)
(0.0638202 3.09309e-06 0)
(0.0342613 1.57627e-06 0)
(0.0181037 7.88522e-07 0)
(0.00942703 3.87667e-07 0)
(0.0048427 1.87471e-07 0)
(0.00245654 8.92192e-08 0)
(0.00123156 4.17937e-08 0)
(0.000610687 1.92666e-08 0)
(0.000299724 8.73526e-09 0)
(0.000145694 3.89064e-09 0)
(7.01824e-05 1.69898e-09 0)
(3.35209e-05 7.25299e-10 0)
(1.58823e-05 3.01241e-10 0)
(7.46819e-06 1.20872e-10 0)
(3.48658e-06 4.62147e-11 0)
(1.61671e-06 1.64235e-11 0)
(7.44841e-07 5.12169e-12 0)
(3.41062e-07 1.12677e-12 0)
(1.55265e-07 -5.12169e-14 0)
(7.02913e-08 -2.04868e-13 0)
(3.16545e-08 -2.04868e-13 0)
(1.41829e-08 -1.02434e-13 0)
(6.32423e-09 -5.12169e-14 0)
(2.80665e-09 3.41446e-14 0)
(1.23969e-09 5.12169e-14 0)
(5.44299e-10 5.12169e-14 0)
(2.35939e-10 -3.69818e-27 0)
(9.70731e-11 6.82892e-14 0)
(2.67694e-11 6.82892e-14 0)
(2.23042e-11 -1.4597e-13 0)
(8.15095e-11 -8.75818e-14 0)
(1.97877e-10 -2.91939e-14 0)
(4.55542e-10 -1.16776e-13 0)
(1.03656e-09 -5.83879e-14 0)
(2.34521e-09 -3.50327e-13 0)
(5.28002e-09 -6.71461e-13 0)
(1.18312e-08 -1.13856e-12 0)
(2.63839e-08 -2.24793e-12 0)
(5.8536e-08 -4.70022e-12 0)
(1.29177e-07 -9.42964e-12 0)
(2.83474e-07 -1.89469e-11 0)
(6.18419e-07 -3.80981e-11 0)
(1.34079e-06 -7.6926e-11 0)
(2.88805e-06 -1.55808e-10 0)
(6.17812e-06 -3.16667e-10 0)
(1.31204e-05 -6.46062e-10 0)
(2.765e-05 -1.32327e-09 0)
(5.7796e-05 -2.72015e-09 0)
(0.000119767 -5.60553e-09 0)
(0.000245908 -1.157e-08 0)
(0.000499968 -2.38832e-08 0)
(0.00100591 -4.92191e-08 0)
(0.00200123 -1.01072e-07 0)
(0.00393375 -2.0641e-07 0)
(0.00763301 -4.18365e-07 0)
(0.0146058 -8.39859e-07 0)
(0.0275298 -1.66636e-06 0)
(0.0510489 -3.26063e-06 0)
(0.0929953 -6.2781e-06 0)
(0.166165 -1.18661e-05 0)
(0.290705 -2.19582e-05 0)
(0.496986 -3.96664e-05 0)
(0.828435 -6.97136e-05 0)
(1.34321 -0.000118727 0)
(2.11276 -0.000194995 0)
(3.21453 -0.000306973 0)
(4.71606 -0.000459536 0)
(6.64892 -0.000646949 0)
(8.97457 -0.000842376 0)
(11.5518 -0.000986341 0)
(14.1249 -0.000983652 0)
(16.3589 -0.000723511 0)
(17.9411 -0.000138202 0)
(18.7317 0.000700105 0)
(18.8987 0.00140705 0)
(18.8056 0.00161147 0)
(18.7723 0.000989034 0)
(18.5957 0.000475311 0)
(18.8912 -0.00308243 0)
(20.1585 0.000390429 0)
(19.4901 0.00346682 0)
(19.0921 0.00027895 0)
(19.251 -0.00114665 0)
(19.4864 -0.00152494 0)
(19.6589 -0.00145825 0)
(19.5139 -0.000966756 0)
(18.6171 -0.000357693 0)
(16.8158 0.000122033 0)
(14.2837 0.000387143 0)
(11.4084 0.000465242 0)
(8.59973 0.000425996 0)
(6.15185 0.000336292 0)
(4.20107 0.000240436 0)
(2.75416 0.000159829 0)
(1.74201 0.000100404 0)
(1.06753 6.02615e-05 0)
(0.636092 3.48241e-05 0)
(0.369615 1.94859e-05 0)
(0.209963 1.06017e-05 0)
(0.116844 5.62621e-06 0)
(0.0638156 2.91915e-06 0)
(0.0342589 1.48333e-06 0)
(0.0181025 7.39044e-07 0)
(0.00942641 3.61277e-07 0)
(0.00484239 1.73307e-07 0)
(0.00245639 8.15544e-08 0)
(0.00123148 3.76062e-08 0)
(0.000610653 1.69628e-08 0)
(0.000299708 7.46052e-09 0)
(0.000145687 3.18323e-09 0)
(7.01792e-05 1.30712e-09 0)
(3.35195e-05 5.08823e-10 0)
(1.58817e-05 1.82332e-10 0)
(7.46795e-06 5.59459e-11 0)
(3.48649e-06 1.10628e-11 0)
(1.61668e-06 -2.42427e-12 0)
(7.44831e-07 -4.89975e-12 0)
(3.4106e-07 -4.11442e-12 0)
(1.55265e-07 -2.78278e-12 0)
(7.02922e-08 -1.69016e-12 0)
(3.16549e-08 -9.21904e-13 0)
(1.41834e-08 -4.26807e-13 0)
(6.3245e-09 -1.53651e-13 0)
(2.80675e-09 -3.41446e-14 0)
(1.23979e-09 3.41446e-14 0)
(5.44333e-10 5.12169e-14 0)
(2.35803e-10 8.53615e-14 0)
(9.72438e-11 1.19506e-13 0)
(2.65986e-11 1.36578e-13 0)
(2.25961e-11 -2.04358e-13 0)
(8.14511e-11 -1.16776e-13 0)
(1.97701e-10 -1.4597e-13 0)
(4.55542e-10 -2.04358e-13 0)
(1.03633e-09 -1.75164e-13 0)
(2.34462e-09 -2.62745e-13 0)
(5.27908e-09 -6.13073e-13 0)
(1.18297e-08 -1.10937e-12 0)
(2.63804e-08 -2.10196e-12 0)
(5.8529e-08 -4.14554e-12 0)
(1.29163e-07 -8.29108e-12 0)
(2.83446e-07 -1.64946e-11 0)
(6.18363e-07 -3.25804e-11 0)
(1.34068e-06 -6.42851e-11 2.13188e-31)
(2.88783e-06 -1.26556e-10 0)
(6.17767e-06 -2.49813e-10 0)
(1.31195e-05 -4.93786e-10 0)
(2.76481e-05 -9.78085e-10 0)
(5.77922e-05 -1.94312e-09 0)
(0.000119759 -3.87278e-09 0)
(0.000245892 -7.7406e-09 0)
(0.000499936 -1.55045e-08 0)
(0.00100584 -3.10836e-08 0)
(0.0020011 -6.22369e-08 0)
(0.00393349 -1.2421e-07 0)
(0.00763248 -2.46716e-07 0)
(0.0146047 -4.86629e-07 0)
(0.0275278 -9.50938e-07 0)
(0.0510452 -1.83675e-06 0)
(0.0929883 -3.49839e-06 0)
(0.166152 -6.55474e-06 0)
(0.290683 -1.20506e-05 2.1303e-31)
(0.496946 -2.16787e-05 0)
(0.82837 -3.80466e-05 0)
(1.34311 -6.49149e-05 0)
(2.11261 -0.000107236 0)
(3.21431 -0.000170655 -2.11637e-31)
(4.71578 -0.00025995 0)
(6.6486 -0.000375712 0)
(8.97429 -0.000508725 2.09502e-31)
(11.5517 -0.000632433 0)
(14.1252 -0.000696029 0)
(16.3598 -0.000625966 0)
(17.9427 -0.000360498 -2.0988e-31)
(18.7334 0.000100845 0)
(18.8997 0.000564921 0)
(18.8053 0.0008445 0)
(18.7714 0.000747209 0)
(18.5952 0.000441965 0)
(18.8911 0.000458823 0)
(20.1575 0.000408037 0)
(19.4887 0.000233286 0)
(19.0907 -0.000194962 0)
(19.2498 -0.000638445 0)
(19.4864 -0.000806947 0)
(19.6598 -0.000740322 -1.0301e-31)
(19.5152 -0.000452577 1.05142e-31)
(18.6184 -0.000114048 0)
(16.8166 0.000140931 0)
(14.2842 0.00027165 -1.08751e-31)
(11.4085 0.000298438 0)
(8.59965 0.000263982 0)
(6.1517 0.000205232 0)
(4.20092 0.00014589 0)
(2.75404 9.69642e-05 0)
(1.74192 6.11222e-05 0)
(1.06748 3.69e-05 0)
(0.636057 2.14834e-05 0)
(0.369594 1.21228e-05 0)
(0.209951 6.65446e-06 0)
(0.116838 3.56266e-06 0)
(0.063812 1.8637e-06 1.06612e-31)
(0.034257 9.53686e-07 0)
(0.0181015 4.77581e-07 0)
(0.00942592 2.34001e-07 0)
(0.00484215 1.12069e-07 0)
(0.00245627 5.2359e-08 0)
(0.00123143 2.37842e-08 0)
(0.000610627 1.04431e-08 0)
(0.000299697 4.38987e-09 0)
(0.000145681 1.73543e-09 0)
(7.01771e-05 6.21192e-10 0)
(3.35186e-05 1.81888e-10 0)
(1.58814e-05 2.53694e-11 0)
(7.46785e-06 -2.01112e-11 0)
(3.48647e-06 -2.60352e-11 0)
(1.61668e-06 -2.07258e-11 0)
(7.44838e-07 -1.39651e-11 0)
(3.41067e-07 -8.58736e-12 0)
(1.55269e-07 -4.98511e-12 0)
(7.02952e-08 -2.85107e-12 0)
(3.16567e-08 -1.55358e-12 -1.06594e-31)
(1.41845e-08 -8.36542e-13 0)
(6.32514e-09 -4.09735e-13 -1.06594e-31)
(2.80687e-09 -1.87795e-13 0)
(1.23999e-09 -1.19506e-13 0)
(5.44348e-10 -5.12169e-14 0)
(2.36011e-10 8.53615e-14 0)
(9.7532e-11 1.36578e-13 0)
(2.63938e-11 3.58518e-13 0)
(2.25961e-11 -2.62745e-13 0)
(8.16263e-11 -2.04358e-13 0)
(1.97818e-10 -1.4597e-13 0)
(4.55426e-10 -1.16776e-13 0)
(1.03633e-09 -2.04358e-13 0)
(2.34445e-09 -3.21133e-13 0)
(5.2785e-09 -3.79521e-13 0)
(1.18282e-08 -7.59043e-13 0)
(2.63778e-08 -1.57647e-12 0)
(5.85238e-08 -3.21133e-12 0)
(1.29153e-07 -6.2475e-12 0)
(2.83426e-07 -1.21155e-11 0)
(6.18325e-07 -2.32968e-11 0)
(1.34061e-06 -4.42288e-11 -2.13188e-31)
(2.88768e-06 -8.32319e-11 0)
(6.1774e-06 -1.55224e-10 0)
(1.3119e-05 -2.8683e-10 0)
(2.76471e-05 -5.25316e-10 0)
(5.77903e-05 -9.53299e-10 0)
(0.000119755 -1.71354e-09 0)
(0.000245885 -3.04913e-09 0)
(0.000499922 -5.36696e-09 0)
(0.00100581 -9.33243e-09 0)
(0.00200105 -1.60351e-08 0)
(0.00393339 -2.71749e-08 0)
(0.00763229 -4.51534e-08 0)
(0.0146044 -7.31675e-08 0)
(0.0275272 -1.14805e-07 0)
(0.0510439 -1.72685e-07 0)
(0.092986 -2.45469e-07 0)
(0.166148 -3.22827e-07 0)
(0.290676 -3.80197e-07 -2.1303e-31)
(0.496934 -3.81991e-07 0)
(0.82835 -3.19089e-07 0)
(1.34308 -3.41521e-07 0)
(2.11255 -1.10866e-06 0)
(3.21423 -4.5618e-06 2.11637e-31)
(4.71566 -1.53862e-05 0)
(6.64843 -4.33551e-05 0)
(8.97406 -0.000106267 -2.09502e-31)
(11.5514 -0.000232067 0)
(14.1249 -0.00045611 0)
(16.3596 -0.000809209 0)
(17.9425 -0.00127543 2.0988e-31)
(18.7335 -0.00175844 0)
(18.9 -0.00201894 0)
(18.8057 -0.00187384 0)
(18.7717 -0.00158684 0)
(18.5955 -0.00109733 0)
(18.8914 -0.00070741 0)
(20.1577 -0.000452102 0)
(19.4888 -0.000431735 0)
(19.0909 0.000169547 0)
(19.25 0.000654497 0)
(19.4864 0.00101505 0)
(19.6598 0.00112201 1.0301e-31)
(19.5152 0.000964486 -1.05142e-31)
(18.6183 0.000695173 0)
(16.8166 0.000443577 0)
(14.2841 0.000259452 1.08751e-31)
(11.4084 0.000144061 0)
(8.59955 7.87075e-05 0)
(6.15162 4.38054e-05 0)
(4.20086 2.54914e-05 0)
(2.75399 1.55604e-05 0)
(1.74189 9.79907e-06 0)
(1.06745 6.2209e-06 0)
(0.636044 3.90672e-06 0)
(0.369585 2.39842e-06 0)
(0.209946 1.43049e-06 0)
(0.116835 8.26394e-07 0)
(0.0638105 4.6173e-07 -1.06612e-31)
(0.0342561 2.49206e-07 0)
(0.0181011 1.29667e-07 0)
(0.00942569 6.48205e-08 0)
(0.00484204 3.09316e-08 0)
(0.00245621 1.39185e-08 0)
(0.0012314 5.76587e-09 0)
(0.000610615 2.07406e-09 0)
(0.000299691 5.32041e-10 0)
(0.000145679 -3.19081e-11 0)
(7.01762e-05 -1.84995e-10 0)
(3.35183e-05 -1.84808e-10 0)
(1.58813e-05 -1.41307e-10 0)
(7.46785e-06 -9.59121e-11 0)
(3.48649e-06 -6.05725e-11 0)
(1.6167e-06 -3.65347e-11 0)
(7.44855e-07 -2.12209e-11 0)
(3.41077e-07 -1.19165e-11 0)
(1.55277e-07 -6.57283e-12 0)
(7.02989e-08 -3.53396e-12 0)
(3.1659e-08 -1.86088e-12 1.06594e-31)
(1.41856e-08 -1.04141e-12 0)
(6.32556e-09 -5.80458e-13 1.06594e-31)
(2.80785e-09 -3.07301e-13 0)
(1.24013e-09 -1.02434e-13 0)
(5.4464e-10 -3.41446e-14 0)
(2.36246e-10 8.53615e-14 0)
(9.72779e-11 1.19506e-13 0)
(2.7384e-11 1.02434e-13 0)
(2.26545e-11 -2.04358e-13 0)
(8.16847e-11 -2.04358e-13 0)
(1.9776e-10 -1.4597e-13 0)
(4.55484e-10 -1.75164e-13 0)
(1.03615e-09 -1.75164e-13 0)
(2.34416e-09 -2.62745e-13 0)
(5.27809e-09 -4.08715e-13 0)
(1.18274e-08 -7.00655e-13 0)
(2.63757e-08 -1.22615e-12 0)
(5.85198e-08 -2.10196e-12 0)
(1.29145e-07 -3.88279e-12 0)
(2.83412e-07 -7.12332e-12 0)
(6.183e-07 -1.28745e-11 0)
(1.34056e-06 -2.28881e-11 0)
(2.88761e-06 -3.95286e-11 0)
(6.17727e-06 -6.46938e-11 0)
(1.31188e-05 -9.90259e-11 0)
(2.76468e-05 -1.34146e-10 0)
(5.77898e-05 -1.36423e-10 0)
(0.000119755 -5.19652e-12 0)
(0.000245885 5.24207e-10 0)
(0.000499924 2.09998e-09 0)
(0.00100582 6.224e-09 0)
(0.00200106 1.62172e-08 0)
(0.00393343 3.92325e-08 0)
(0.00763239 9.03804e-08 0)
(0.0146046 2.00502e-07 0)
(0.0275276 4.30899e-07 0)
(0.0510449 8.99906e-07 0)
(0.092988 1.82869e-06 0)
(0.166152 3.61566e-06 0)
(0.290682 6.94769e-06 0)
(0.496946 1.29464e-05 0)
(0.82837 2.3318e-05 0)
(1.34311 4.04063e-05 0)
(2.1126 6.69265e-05 0)
(3.21428 0.000104971 0)
(4.7157 0.000153668 0)
(6.64842 0.000204821 0)
(8.97392 0.000236349 0)
(11.551 0.000205256 0)
(14.124 4.5647e-05 0)
(16.3582 -0.000316188 0)
(17.9408 -0.00090129 0)
(18.732 -0.00159695 0)
(18.8997 -0.00203689 0)
(18.8065 -0.00193284 0)
(18.7728 -0.0010879 0)
(18.5962 -0.000534084 0)
(18.892 0.00280351 0)
(20.1583 -0.000532282 0)
(19.4903 -0.00368049 0)
(19.0921 -0.000493251 0)
(19.2513 0.000811603 0)
(19.4869 0.00130332 0)
(19.6595 0.00139851 0)
(19.5143 0.0011098 0)
(18.6173 0.000681162 0)
(16.8157 0.00031245 0)
(14.2835 7.16929e-05 0)
(11.4081 -4.61136e-05 0)
(8.59945 -8.25708e-05 0)
(6.15159 -7.79619e-05 0)
(4.20087 -5.9076e-05 0)
(2.75401 -3.95271e-05 0)
(1.7419 -2.42984e-05 0)
(1.06746 -1.40215e-05 0)
(0.63605 -7.69747e-06 0)
(0.369589 -4.05775e-06 0)
(0.209948 -2.06912e-06 0)
(0.116836 -1.02735e-06 0)
(0.0638109 -5.00129e-07 0)
(0.0342563 -2.40655e-07 0)
(0.0181012 -1.15579e-07 0)
(0.00942572 -5.60513e-08 0)
(0.00484205 -2.77814e-08 0)
(0.00245622 -1.42134e-08 0)
(0.00123141 -7.54407e-09 0)
(0.000610617 -4.14368e-09 0)
(0.000299693 -2.33837e-09 0)
(0.00014568 -1.34234e-09 0)
(7.01768e-05 -7.75782e-10 0)
(3.35187e-05 -4.48131e-10 0)
(1.58816e-05 -2.57382e-10 0)
(7.46801e-06 -1.46378e-10 0)
(3.48659e-06 -8.23738e-11 0)
(1.61676e-06 -4.57367e-11 0)
(7.44886e-07 -2.50963e-11 0)
(3.41095e-07 -1.36578e-11 0)
(1.55286e-07 -7.28987e-12 0)
(7.03043e-08 -3.79005e-12 0)
(3.16618e-08 -2.08282e-12 0)
(1.41871e-08 -1.02434e-12 0)
(6.32641e-09 -5.9753e-13 0)
(2.80791e-09 -3.24374e-13 0)
(1.2403e-09 -1.87795e-13 0)
(5.44879e-10 -1.02434e-13 0)
(2.36349e-10 -5.12169e-14 0)
(9.74145e-11 -8.53615e-14 0)
(2.67011e-11 -1.87795e-13 0)
(2.26545e-11 1.4597e-13 0)
(8.16263e-11 -5.83879e-14 0)
(1.97993e-10 -8.75818e-14 0)
(4.55192e-10 -5.83879e-14 0)
(1.03615e-09 -1.4597e-13 0)
(2.34392e-09 -2.62745e-13 0)
(5.27786e-09 -2.62745e-13 0)
(1.18269e-08 -3.50327e-13 0)
(2.6375e-08 -3.79521e-13 0)
(5.85182e-08 -6.13073e-13 0)
(1.29143e-07 -9.34206e-13 0)
(2.83408e-07 -1.4305e-12 0)
(6.18294e-07 -1.78083e-12 0)
(1.34055e-06 -1.10937e-12 0)
(2.8876e-06 2.62745e-12 0)
(6.17728e-06 1.59107e-11 0)
(1.31189e-05 5.49138e-11 0)
(2.76471e-05 1.5791e-10 0)
(5.77905e-05 4.15342e-10 0)
(0.000119757 1.0316e-09 0)
(0.000245889 2.46163e-09 0)
(0.000499934 5.69551e-09 0)
(0.00100584 1.28469e-08 0)
(0.00200111 2.83748e-08 0)
(0.00393354 6.14684e-08 0)
(0.00763261 1.30566e-07 0)
(0.014605 2.72054e-07 0)
(0.0275285 5.56003e-07 0)
(0.0510467 1.11382e-06 0)
(0.0929914 2.18465e-06 0)
(0.166158 4.18879e-06 0)
(0.290694 7.83477e-06 0)
(0.496967 1.42573e-05 0)
(0.828404 2.51576e-05 0)
(1.34316 4.28639e-05 0)
(2.11268 7.01369e-05 0)
(3.2144 0.000109417 0)
(4.71586 0.000161123 0)
(6.6486 0.000220618 0)
(8.97407 0.000273947 0)
(11.551 0.000293682 0)
(14.1239 0.000238677 0)
(16.3578 6.71796e-05 0)
(17.9401 -0.000240134 0)
(18.7314 -0.000620562 0)
(18.8997 -0.000901238 0)
(18.8085 -0.000890661 0)
(18.7752 -0.000568533 0)
(18.5974 -0.000319813 0)
(18.8914 -0.000266952 0)
(20.1525 -0.000500202 0)
(19.4835 -0.000473757 0)
(19.0956 -0.000275971 0)
(19.253 0.000138586 0)
(19.4868 0.000424486 0)
(19.659 0.00054208 0)
(19.5136 0.000460898 0)
(18.6167 0.000285633 0)
(16.8153 0.000109522 0)
(14.2833 -1.11438e-05 0)
(11.4081 -7.08582e-05 0)
(8.59949 -8.52258e-05 0)
(6.15166 -7.5109e-05 0)
(4.20093 -5.65802e-05 0)
(2.75406 -3.8524e-05 0)
(1.74194 -2.43876e-05 0)
(1.06749 -1.46008e-05 0)
(0.636063 -8.36034e-06 0)
(0.369597 -4.61539e-06 0)
(0.209952 -2.47213e-06 0)
(0.116838 -1.2921e-06 0)
(0.063812 -6.62575e-07 0)
(0.0342569 -3.35148e-07 0)
(0.0181015 -1.68172e-07 0)
(0.00942586 -8.42038e-08 0)
(0.00484212 -4.23131e-08 0)
(0.00245625 -2.14504e-08 0)
(0.00123142 -1.10141e-08 0)
(0.000610625 -5.74061e-09 0)
(0.000299697 -3.03766e-09 0)
(0.000145682 -1.62895e-09 0)
(7.01779e-05 -8.82518e-10 0)
(3.35193e-05 -4.81234e-10 0)
(1.58819e-05 -2.63118e-10 0)
(7.4682e-06 -1.43663e-10 0)
(3.48669e-06 -7.82423e-11 0)
(1.61682e-06 -4.23222e-11 0)
(7.44918e-07 -2.27232e-11 0)
(3.41113e-07 -1.21384e-11 0)
(1.55296e-07 -6.43625e-12 0)
(7.03093e-08 -3.36324e-12 0)
(3.16643e-08 -1.74137e-12 0)
(1.41885e-08 -8.87759e-13 0)
(6.32727e-09 -3.92663e-13 0)
(2.80815e-09 -2.39012e-13 0)
(1.24047e-09 -1.36578e-13 0)
(5.44845e-10 -1.19506e-13 0)
(2.36383e-10 -8.53615e-14 0)
(9.73462e-11 -6.82892e-14 0)
(2.68035e-11 -8.53615e-14 0)
(2.22458e-11 -1.16776e-13 0)
(8.15679e-11 -5.83879e-14 0)
(1.97818e-10 -2.04358e-13 0)
(4.5525e-10 -1.75164e-13 0)
(1.0358e-09 -2.33552e-13 0)
(2.34404e-09 -1.16776e-13 0)
(5.27768e-09 -5.83879e-14 0)
(1.18271e-08 -2.91939e-14 0)
(2.63753e-08 1.86297e-26 0)
(5.85185e-08 3.21133e-13 0)
(1.29144e-07 8.1743e-13 0)
(2.83411e-07 2.10196e-12 0)
(6.18301e-07 4.87539e-12 0)
(1.34057e-06 1.08601e-11 0)
(2.88764e-06 2.43186e-11 0)
(6.17737e-06 5.33373e-11 0)
(1.31191e-05 1.16805e-10 0)
(2.76475e-05 2.54162e-10 0)
(5.77915e-05 5.50715e-10 0)
(0.000119759 1.18618e-09 0)
(0.000245894 2.53938e-09 0)
(0.000499944 5.39671e-09 0)
(0.00100586 1.13749e-08 0)
(0.00200116 2.37559e-08 0)
(0.00393363 4.90993e-08 0)
(0.0076328 1.00282e-07 0)
(0.0146054 2.02121e-07 0)
(0.0275293 4.014e-07 0)
(0.0510481 7.84177e-07 0)
(0.092994 1.50435e-06 0)
(0.166163 2.82835e-06 0)
(0.290702 5.20059e-06 0)
(0.496981 9.3304e-06 0)
(0.828426 1.62921e-05 0)
(1.3432 2.76121e-05 0)
(2.11273 4.529e-05 0)
(3.21446 7.1667e-05 0)
(4.71592 0.00010902 0)
(6.64865 0.000158747 0)
(8.97407 0.000220051 0)
(11.5509 0.000287978 0)
(14.1236 0.000351267 0)
(16.3573 0.000390657 0)
(17.9395 0.000381451 0)
(18.7308 0.000292295 0)
(18.8992 7.90115e-05 0)
(18.8072 -0.000213489 0)
(18.774 -0.000501245 0)
(18.5969 -0.000522522 0)
(18.8917 -0.00190242 0)
(20.1583 -0.000168255 0)
(19.4904 0.0011796 0)
(19.0933 0.000300565 0)
(19.2528 8.20983e-05 0)
(19.4876 -4.13488e-05 0)
(19.6595 -0.000194705 0)
(19.5137 -0.000229717 0)
(18.6166 -0.000210923 0)
(16.8151 -0.000170806 0)
(14.2832 -0.000126716 0)
(11.408 -8.98326e-05 0)
(8.59944 -6.21088e-05 0)
(6.15165 -4.21278e-05 0)
(4.20094 -2.79678e-05 0)
(2.75407 -1.80935e-05 0)
(1.74195 -1.13708e-05 0)
(1.0675 -6.92861e-06 0)
(0.636069 -4.09593e-06 0)
(0.369601 -2.35444e-06 0)
(0.209954 -1.32034e-06 0)
(0.11684 -7.247e-07 0)
(0.0638128 -3.90745e-07 0)
(0.0342573 -2.07776e-07 0)
(0.0181017 -1.09399e-07 0)
(0.00942597 -5.72687e-08 0)
(0.00484218 -2.99245e-08 0)
(0.00245628 -1.56636e-08 0)
(0.00123144 -8.23656e-09 0)
(0.000610633 -4.3591e-09 0)
(0.000299701 -2.32318e-09 0)
(0.000145684 -1.24643e-09 0)
(7.01791e-05 -6.72068e-10 0)
(3.35199e-05 -3.63554e-10 0)
(1.58822e-05 -1.96878e-10 0)
(7.46837e-06 -1.06446e-10 0)
(3.48679e-06 -5.72434e-11 0)
(1.61687e-06 -3.07643e-11 0)
(7.44945e-07 -1.63211e-11 0)
(3.41128e-07 -8.63858e-12 0)
(1.55304e-07 -4.42172e-12 0)
(7.03135e-08 -2.28769e-12 0)
(3.16665e-08 -1.1097e-12 0)
(1.41898e-08 -5.46313e-13 0)
(6.32754e-09 -3.92663e-13 0)
(2.80846e-09 -1.87795e-13 0)
(1.24078e-09 -1.19506e-13 0)
(5.44845e-10 5.12169e-14 0)
(2.36383e-10 -2.04428e-27 0)
(9.73462e-11 2.48018e-27 0)
(2.68376e-11 -1.70723e-14 0)
(2.26545e-11 -1.4597e-13 0)
(8.13927e-11 -5.83879e-14 0)
(1.97643e-10 -5.83879e-14 0)
(4.55309e-10 -1.16776e-13 0)
(1.03633e-09 -5.83879e-14 0)
(2.34386e-09 -5.83879e-14 0)
(5.27809e-09 -2.91939e-14 0)
(1.18272e-08 2.91939e-14 0)
(2.63757e-08 1.4597e-13 0)
(5.85198e-08 3.21133e-13 0)
(1.29147e-07 7.59043e-13 0)
(2.83416e-07 1.69325e-12 0)
(6.18311e-07 3.3573e-12 0)
(1.34059e-06 7.12332e-12 0)
(2.88769e-06 1.46554e-11 0)
(6.17747e-06 3.03325e-11 0)
(1.31193e-05 6.21247e-11 0)
(2.76479e-05 1.2749e-10 0)
(5.77923e-05 2.61169e-10 0)
(0.000119761 5.34979e-10 0)
(0.000245897 1.09334e-09 0)
(0.000499951 2.2294e-09 0)
(0.00100588 4.53111e-09 0)
(0.00200118 9.16833e-09 0)
(0.00393369 1.84415e-08 0)
(0.00763291 3.68151e-08 0)
(0.0146056 7.28172e-08 0)
(0.0275297 1.42451e-07 0)
(0.0510488 2.75167e-07 0)
(0.0929954 5.24024e-07 0)
(0.166166 9.82567e-07 0)
(0.290707 1.81233e-06 0)
(0.496988 3.28681e-06 0)
(0.82844 5.86151e-06 0)
(1.34322 1.02855e-05 0)
(2.11277 1.77824e-05 0)
(3.21453 3.03333e-05 0)
(4.71603 5.10499e-05 0)
(6.64882 8.4543e-05 0)
(8.97432 0.00013692 0)
(11.5513 0.000214644 0)
(14.1241 0.000321639 0)
(16.3578 0.000452401 0)
(17.9399 0.000579148 0)
(18.7308 0.000644512 0)
(18.8986 0.000575921 0)
(18.8069 0.000337172 0)
(18.7738 0.00039271 0)
(18.5974 0.000213654 0)
(18.8922 0.0018427 0)
(20.1551 0.000309857 0)
(19.4866 -0.00152004 0)
(19.0948 -2.65882e-05 0)
(19.2527 0.000208552 0)
(19.4867 -5.7427e-05 0)
(19.6588 -0.000310083 0)
(19.5136 -0.000387732 0)
(18.6168 -0.000350629 0)
(16.8155 -0.000262398 0)
(14.2835 -0.000170681 0)
(11.4082 -9.9878e-05 0)
(8.59958 -5.40616e-05 0)
(6.15173 -2.78539e-05 0)
(4.20098 -1.40558e-05 0)
(2.75409 -7.12921e-06 0)
(1.74196 -3.70253e-06 0)
(1.0675 -1.97938e-06 0)
(0.636072 -1.08576e-06 0)
(0.369602 -6.06394e-07 0)
(0.209955 -3.42136e-07 0)
(0.11684 -1.93018e-07 0)
(0.063813 -1.08162e-07 0)
(0.0342575 -6.00311e-08 0)
(0.0181018 -3.29848e-08 0)
(0.00942602 -1.79672e-08 0)
(0.0048422 -9.72627e-09 0)
(0.00245629 -5.24752e-09 0)
(0.00123144 -2.82939e-09 0)
(0.000610637 -1.52759e-09 0)
(0.000299703 -8.26828e-10 0)
(0.000145685 -4.48489e-10 0)
(7.01797e-05 -2.43758e-10 0)
(3.35203e-05 -1.3243e-10 0)
(1.58824e-05 -7.18744e-11 0)
(7.46847e-06 -3.88907e-11 0)
(3.48684e-06 -2.09477e-11 0)
(1.6169e-06 -1.11653e-11 0)
(7.44961e-07 -5.92409e-12 0)
(3.41136e-07 -3.09009e-12 0)
(1.55308e-07 -1.58772e-12 0)
(7.03159e-08 -7.85325e-13 0)
(3.16677e-08 -4.09735e-13 0)
(1.419e-08 -2.2194e-13 0)
(6.32805e-09 -1.36578e-13 0)
(2.80853e-09 -1.70723e-14 0)
(1.24092e-09 -5.12169e-14 0)
(5.45016e-10 5.48416e-27 0)
(2.36383e-10 -1.22431e-27 0)
(9.72779e-11 2.69102e-28 0)
(2.68035e-11 -1.70723e-14 0)
)
;

boundaryField
{
    sides1
    {
        type            zeroGradient;
    }
    sides2
    {
        type            slip;
    }
    empty
    {
        type            empty;
    }
}


// ************************************************************************* //
