/*--------------------------------*- C++ -*----------------------------------*\
| =========                 |                                                 |
| \\      /  F ield         | OpenFOAM: The Open Source CFD Toolbox           |
|  \\    /   O peration     | Version:  2012                                  |
|   \\  /    A nd           | Website:  www.openfoam.com                      |
|    \\/     M anipulation  |                                                 |
\*---------------------------------------------------------------------------*/
FoamFile
{
    version     2.0;
    format      ascii;
    class       volScalarField;
    location    "0.001";
    object      maxKappa;
}
// * * * * * * * * * * * * * * * * * * * * * * * * * * * * * * * * * * * * * //

dimensions      [0 0 0 0 0 0 0];


internalField   nonuniform List<scalar> 
200
(
0.3220416884
0.3220416884
0.3220416884
0.3220416884
0.3220416884
0.3220416884
0.3220416884
0.3220416884
0.3220416884
0.3220416884
0.3220416884
0.3220416884
0.3220416884
0.3220416884
0.3220416884
0.3220416884
0.3220416884
0.3220416884
0.3220416884
0.3220416884
0.3220416884
0.3220416884
0.3220416884
0.3220416884
0.3220416884
0.3220416884
0.3220416884
0.3220416884
0.3220416884
0.3220416884
0.3220416884
0.3220416884
0.3220416884
0.3220416884
0.3220416884
0.3220416884
0.3220416884
0.3220416884
0.3220416884
0.3220416884
0.3220416884
0.3220416884
0.3220416884
0.3220416884
0.3220416884
0.3220416884
0.3220416884
0.3220416884
0.3220416884
0.3220416884
0.3220416884
0.3220416884
0.3220416884
0.3220416884
0.3220416884
0.3220416884
0.3220416884
0.3220416884
0.3220416884
0.3220416884
0.3220416884
0.3220416884
0.3220416884
0.3220416884
0.3220416884
0.3220416884
0.3220416884
0.3220416884
0.3220416884
0.3220416884
0.3220416884
0.3220416884
0.3220416884
0.3220416884
0.3220416884
0.3220416884
0.3220416884
0.3220416884
0.3220416884
0.3220416884
0.3220416884
0.3220416884
0.3220416884
0.3220416884
0.3220416884
0.3220416884
0.3220416884
0.3220416884
0.3220416884
0.3220416884
0.3220416884
0.3220416884
0.3220416884
0.3220416884
0.3220416884
0.3220416884
0.3220416884
0.3220416884
0.3220416884
0.3334497552
0.3334497552
0.3166422646
0.1982477752
0.09338387799
0.04170954197
0.0257499353
0.02144233944
0.02037511549
0.02013397893
0.02008345592
0.02007349392
0.02007162666
0.02007129151
0.02007123358
0.02007122389
0.02007122232
0.02007122207
0.02007122203
0.02007122202
0.02007122202
0.02007122202
0.02007122202
0.02007122202
0.02007122202
0.02007122202
0.02007122202
0.02007122202
0.02007122202
0.02007122202
0.02007122202
0.02007122202
0.02007122202
0.02007122202
0.02007122202
0.02007122202
0.02007122202
0.02007122202
0.02007122202
0.02007122202
0.02007122202
0.02007122202
0.02007122202
0.02007122202
0.02007122202
0.02007122202
0.02007122202
0.02007122202
0.02007122202
0.02007122202
0.02007122202
0.02007122202
0.02007122202
0.02007122202
0.02007122202
0.02007122202
0.02007122202
0.02007122202
0.02007122202
0.02007122202
0.02007122202
0.02007122202
0.02007122202
0.02007122202
0.02007122202
0.02007122202
0.02007122202
0.02007122202
0.02007122202
0.02007122202
0.02007122202
0.02007122202
0.02007122202
0.02007122202
0.02007122202
0.02007122202
0.02007122202
0.02007122202
0.02007122202
0.02007122202
0.02007122202
0.02007122202
0.02007122202
0.02007122202
0.02007122202
0.02007122202
0.02007122202
0.02007122202
0.02007122202
0.02007122202
0.02007122202
0.02007122202
0.02007122202
0.02007122202
0.02007122202
0.02007122202
0.02007122202
0.02007122202
0.02007122202
0.02007122202
0.02007122202
)
;

boundaryField
{
    sides
    {
        type            calculated;
        value           uniform 0;
    }
    empty1
    {
        type            empty;
    }
    empty2
    {
        type            empty;
    }
}


// ************************************************************************* //
