/*--------------------------------*- C++ -*----------------------------------*\
| =========                 |                                                 |
| \\      /  F ield         | OpenFOAM: The Open Source CFD Toolbox           |
|  \\    /   O peration     | Version:  2012                                  |
|   \\  /    A nd           | Website:  www.openfoam.com                      |
|    \\/     M anipulation  |                                                 |
\*---------------------------------------------------------------------------*/
FoamFile
{
    version     2.0;
    format      ascii;
    class       volScalarField;
    location    "0.004";
    object      volumeFraction1;
}
// * * * * * * * * * * * * * * * * * * * * * * * * * * * * * * * * * * * * * //

dimensions      [0 0 0 0 0 0 0];


internalField   nonuniform List<scalar> 
200
(
5.58146924e-115
5.535899144e-115
5.695394479e-115
3.067518965e-115
2.725680083e-114
-2.211995884e-113
2.281912423e-112
-2.300455883e-111
2.323558785e-110
-2.346542045e-109
2.369779147e-108
-2.393244465e-107
2.416942263e-106
-2.440874707e-105
2.46504413e-104
-2.489452877e-103
2.514103318e-102
-2.538997847e-101
2.56413888e-100
-2.589528859e-99
2.615170248e-98
-2.641065536e-97
2.667217239e-96
-2.693627894e-95
2.720300066e-94
-2.747236345e-93
2.774439346e-92
-2.80191171e-91
2.829656103e-90
-2.85767522e-89
2.885971781e-88
-2.914548533e-87
2.943408251e-86
-2.972553736e-85
3.001987819e-84
-3.031713356e-83
3.061733234e-82
-3.092050368e-81
3.1226677e-80
-3.153588204e-79
3.184814881e-78
-3.216350763e-77
3.248198912e-76
-3.28036242e-75
3.312844409e-74
-3.345648033e-73
3.378776477e-72
-3.412232957e-71
3.446020722e-70
-3.480143052e-69
3.514603259e-68
-3.549404689e-67
3.584550722e-66
-3.620044769e-65
3.655890276e-64
-3.692090724e-63
3.728649627e-62
-3.765570534e-61
3.80285703e-60
-3.840512735e-59
3.878541306e-58
-3.916946433e-57
3.955731846e-56
-3.99490131e-55
4.034458629e-54
-4.074407642e-53
4.114752228e-52
-4.155496305e-51
4.196643827e-50
-4.23819879e-49
4.280165228e-48
-4.322547216e-47
4.365348868e-46
-4.408574341e-45
4.452227829e-44
-4.496313573e-43
4.540835851e-42
-4.585798987e-41
4.631207345e-40
-4.677065335e-39
4.723377409e-38
-4.770148062e-37
4.817381836e-36
-4.865083317e-35
4.913257135e-34
-4.961907968e-33
5.01104054e-32
-5.060659619e-31
5.110770025e-30
-5.161376621e-29
5.212484321e-28
-5.264098087e-27
5.31622293e-26
-5.368863911e-25
5.422026141e-24
-5.47571478e-23
5.529935041e-22
-5.584692189e-21
5.639991539e-20
-4.433625126e-18
3.137165086e-05
0.0004197968678
0.002786529082
0.0122232936
0.03982898806
0.1027440429
0.2184889301
0.3935205364
0.6131467028
0.7936931531
0.8993896751
0.9546390078
0.9809269579
0.9924663257
0.9971875412
0.9990025433
0.9996624472
0.9998905845
0.9999659167
0.9999897672
0.9999970314
0.9999991659
0.9999997726
0.9999999397
0.9999999844
0.9999999961
0.999999999
0.9999999998
0.9999999999
1
1
1
1
1
1
1
1
1
1
1
1
1
1
1
1
1
1
1
1
1
1
1
1
1
1
1
1
1
1
1
1
1
1
1
1
1
1
1
1
1
1
1
1
1
1
1
1
1
1
1
1
1
1
1
1
1
1
1
1
1
1
1
1
1
1
1
1
1
1
1
)
;

boundaryField
{
    sides
    {
        type            zeroGradient;
    }
    empty1
    {
        type            empty;
    }
    empty2
    {
        type            empty;
    }
}


// ************************************************************************* //
