/*--------------------------------*- C++ -*----------------------------------*\
| =========                 |                                                 |
| \\      /  F ield         | OpenFOAM: The Open Source CFD Toolbox           |
|  \\    /   O peration     | Version:  2012                                  |
|   \\  /    A nd           | Website:  www.openfoam.com                      |
|    \\/     M anipulation  |                                                 |
\*---------------------------------------------------------------------------*/
FoamFile
{
    version     2.0;
    format      ascii;
    class       volScalarField;
    location    "4820";
    object      maxKappa;
}
// * * * * * * * * * * * * * * * * * * * * * * * * * * * * * * * * * * * * * //

dimensions      [0 0 0 0 0 0 0];


internalField   nonuniform List<scalar> 
20400
(
3.41794e-12
7.74023e-12
2.52345e-11
5.67181e-11
1.00068e-10
1.50813e-10
2.07797e-10
2.67982e-10
3.29836e-10
3.92823e-10
4.55306e-10
5.18211e-10
5.80501e-10
6.42474e-10
7.03987e-10
7.65134e-10
8.25923e-10
8.86365e-10
9.46493e-10
1.00616e-09
1.06527e-09
1.12383e-09
1.18186e-09
1.23936e-09
1.29632e-09
1.35272e-09
1.40858e-09
1.4639e-09
1.51871e-09
1.57303e-09
1.62691e-09
1.68033e-09
1.73324e-09
1.78541e-09
1.83678e-09
1.8885e-09
1.93995e-09
1.9909e-09
2.04151e-09
2.09165e-09
2.14134e-09
2.19061e-09
2.23941e-09
2.28781e-09
2.33578e-09
2.38336e-09
2.43055e-09
2.47738e-09
2.52385e-09
2.57e-09
2.61584e-09
2.66142e-09
2.70675e-09
2.75184e-09
2.79677e-09
2.84144e-09
2.88597e-09
2.93011e-09
2.97387e-09
3.01724e-09
3.0599e-09
3.10248e-09
3.14439e-09
3.18632e-09
3.22805e-09
3.26967e-09
3.31116e-09
3.3525e-09
3.39369e-09
3.4347e-09
3.47555e-09
3.51621e-09
3.55669e-09
3.59697e-09
3.63706e-09
3.67695e-09
3.71664e-09
3.75611e-09
3.79538e-09
3.83442e-09
3.87325e-09
3.91184e-09
3.95021e-09
3.98828e-09
4.02605e-09
4.06335e-09
4.1003e-09
4.13734e-09
4.17406e-09
4.21032e-09
4.24616e-09
4.28126e-09
4.3158e-09
4.34944e-09
4.38276e-09
4.4151e-09
4.447e-09
4.47765e-09
4.50773e-09
4.53632e-09
4.56431e-09
4.59035e-09
4.61569e-09
4.63856e-09
4.66099e-09
4.68027e-09
4.69904e-09
4.71392e-09
4.728e-09
4.73796e-09
4.74712e-09
4.75036e-09
4.75222e-09
4.74984e-09
4.75247e-09
4.74795e-09
4.7441e-09
4.73196e-09
4.72025e-09
4.69997e-09
4.68009e-09
4.65127e-09
4.62313e-09
4.58537e-09
4.54892e-09
4.50171e-09
4.4569e-09
4.39977e-09
4.34646e-09
4.27892e-09
4.21589e-09
4.13801e-09
4.06326e-09
3.97385e-09
3.88807e-09
3.78879e-09
3.68375e-09
3.5735e-09
3.4589e-09
3.33991e-09
3.21724e-09
3.08883e-09
2.9574e-09
2.81897e-09
2.67764e-09
2.52542e-09
2.37533e-09
2.19906e-09
2.04735e-09
1.86786e-09
1.72798e-09
1.58299e-09
1.43382e-09
1.27695e-09
1.11817e-09
9.54477e-10
7.98532e-10
6.24685e-10
4.81831e-10
4.07478e-10
3.31484e-10
3.20527e-10
3.78799e-10
4.65708e-10
5.9557e-10
7.62523e-10
9.09952e-10
1.07505e-09
1.21932e-09
1.37908e-09
1.51858e-09
1.67119e-09
1.8051e-09
1.94942e-09
2.07716e-09
2.21249e-09
2.33358e-09
2.45953e-09
2.57354e-09
2.68988e-09
2.79634e-09
2.9033e-09
3.00168e-09
3.0994e-09
3.18959e-09
3.27815e-09
3.36014e-09
3.43988e-09
3.51369e-09
3.5849e-09
3.65076e-09
3.71378e-09
3.772e-09
3.82721e-09
3.87815e-09
3.92597e-09
3.97005e-09
4.01095e-09
4.04861e-09
4.08309e-09
4.11468e-09
4.1433e-09
4.16923e-09
4.19249e-09
4.2132e-09
4.23154e-09
4.24752e-09
4.26136e-09
4.27308e-09
4.28285e-09
4.29077e-09
4.29695e-09
4.30148e-09
4.30447e-09
4.30609e-09
4.30627e-09
4.30507e-09
4.30255e-09
4.29914e-09
4.29446e-09
4.28917e-09
4.28267e-09
4.27588e-09
4.26788e-09
4.25983e-09
4.25061e-09
4.24153e-09
4.23133e-09
4.2215e-09
4.21052e-09
4.20011e-09
4.18863e-09
4.17782e-09
4.16602e-09
4.15495e-09
4.14303e-09
4.13179e-09
4.11995e-09
4.10864e-09
4.0971e-09
4.08577e-09
4.07461e-09
4.06342e-09
4.05262e-09
4.04172e-09
4.03135e-09
4.02085e-09
4.01098e-09
4.00099e-09
3.99165e-09
3.98222e-09
3.97345e-09
3.9646e-09
3.95644e-09
3.9482e-09
3.94068e-09
3.93307e-09
3.92622e-09
3.91926e-09
3.91309e-09
3.90679e-09
3.90131e-09
3.89568e-09
3.89087e-09
3.88593e-09
3.8818e-09
3.87753e-09
3.87407e-09
3.87048e-09
3.86766e-09
3.86474e-09
3.86255e-09
3.86029e-09
3.8587e-09
3.85711e-09
3.85609e-09
3.85513e-09
3.85471e-09
3.85432e-09
3.85442e-09
3.85461e-09
3.85527e-09
3.85603e-09
3.85717e-09
3.85847e-09
3.86011e-09
3.86192e-09
3.864e-09
3.86628e-09
3.86879e-09
3.87151e-09
3.87445e-09
3.87759e-09
3.88093e-09
3.88446e-09
3.88813e-09
3.89202e-09
3.89598e-09
3.90025e-09
3.90444e-09
3.90909e-09
3.91349e-09
3.91847e-09
3.92308e-09
3.92837e-09
3.93319e-09
3.93875e-09
3.94377e-09
3.94958e-09
3.95477e-09
3.96079e-09
3.96616e-09
3.97236e-09
3.97787e-09
3.98422e-09
3.98987e-09
3.99634e-09
4.00211e-09
4.00869e-09
4.01455e-09
4.02122e-09
4.02717e-09
4.03391e-09
4.03993e-09
4.04671e-09
4.05279e-09
4.05961e-09
4.06572e-09
4.07257e-09
4.07871e-09
4.08556e-09
4.09172e-09
4.09856e-09
4.10473e-09
4.11155e-09
4.11772e-09
4.12451e-09
4.13067e-09
4.1374e-09
4.14357e-09
4.15023e-09
4.15638e-09
4.16296e-09
4.16911e-09
4.1756e-09
4.18172e-09
4.18812e-09
4.19422e-09
4.20051e-09
4.20658e-09
4.21277e-09
4.2188e-09
4.22487e-09
4.23086e-09
4.23683e-09
4.24275e-09
4.24863e-09
4.25447e-09
4.26026e-09
4.26601e-09
4.27172e-09
4.27738e-09
4.28299e-09
4.28856e-09
4.29408e-09
4.29956e-09
4.30498e-09
4.31036e-09
4.31569e-09
4.32097e-09
4.32621e-09
4.33139e-09
4.33653e-09
4.34162e-09
4.34666e-09
4.35165e-09
4.35659e-09
4.36149e-09
4.36633e-09
4.37113e-09
4.37588e-09
4.38058e-09
4.38524e-09
4.38984e-09
4.3944e-09
4.39891e-09
4.40338e-09
4.4078e-09
4.41217e-09
4.41649e-09
4.42077e-09
4.42501e-09
4.4292e-09
4.43334e-09
4.43745e-09
4.4415e-09
4.44552e-09
4.44949e-09
4.45341e-09
4.4573e-09
4.46114e-09
4.46494e-09
4.4687e-09
4.47242e-09
4.4761e-09
4.47973e-09
4.48333e-09
4.48689e-09
4.49041e-09
4.49389e-09
4.49734e-09
4.50074e-09
4.50411e-09
4.50744e-09
4.51074e-09
4.514e-09
4.51722e-09
4.52041e-09
4.52356e-09
4.52668e-09
4.52977e-09
4.53282e-09
4.53584e-09
4.53882e-09
4.54178e-09
4.5447e-09
4.54759e-09
4.55045e-09
4.55327e-09
4.55607e-09
4.55884e-09
4.56157e-09
4.56428e-09
4.56696e-09
4.56961e-09
4.57223e-09
4.57482e-09
4.57738e-09
4.57992e-09
4.58243e-09
4.58491e-09
4.58736e-09
4.58979e-09
4.5922e-09
4.59457e-09
4.59693e-09
4.59925e-09
4.60155e-09
4.60383e-09
4.60608e-09
4.60831e-09
4.61052e-09
4.6127e-09
4.61486e-09
4.61699e-09
4.6191e-09
4.62119e-09
4.62326e-09
4.6253e-09
4.62732e-09
4.62933e-09
4.6313e-09
4.63326e-09
4.6352e-09
4.63711e-09
4.63901e-09
4.64088e-09
4.64274e-09
4.64457e-09
4.64638e-09
4.64817e-09
4.64995e-09
4.6517e-09
4.65344e-09
4.65515e-09
4.65685e-09
4.65852e-09
4.66018e-09
4.66182e-09
4.66344e-09
4.66504e-09
4.66662e-09
4.66819e-09
4.66973e-09
4.67126e-09
4.67276e-09
4.67427e-09
4.67571e-09
4.6772e-09
4.67857e-09
4.68008e-09
4.68133e-09
4.68289e-09
4.684e-09
4.68566e-09
4.68655e-09
4.68844e-09
4.68897e-09
4.69139e-09
4.69123e-09
7.76289e-12
3.08272e-11
8.36322e-11
1.54052e-10
2.40635e-10
3.38593e-10
4.46049e-10
5.59022e-10
6.75521e-10
7.93863e-10
9.12357e-10
1.03112e-09
1.14899e-09
1.2661e-09
1.38221e-09
1.49733e-09
1.61143e-09
1.72447e-09
1.83629e-09
1.94692e-09
2.05654e-09
2.16504e-09
2.27248e-09
2.3788e-09
2.48398e-09
2.588e-09
2.69088e-09
2.79261e-09
2.89323e-09
2.99276e-09
3.09124e-09
3.18864e-09
3.285e-09
3.38032e-09
3.47484e-09
3.56854e-09
3.66057e-09
3.75182e-09
3.84206e-09
3.93131e-09
4.01955e-09
4.10684e-09
4.19316e-09
4.27864e-09
4.3633e-09
4.44719e-09
4.53031e-09
4.61267e-09
4.69428e-09
4.77515e-09
4.8553e-09
4.93474e-09
5.0135e-09
5.09154e-09
5.16899e-09
5.2456e-09
5.32183e-09
5.39719e-09
5.47277e-09
5.54707e-09
5.6207e-09
5.69415e-09
5.76681e-09
5.83898e-09
5.91049e-09
5.9814e-09
6.0517e-09
6.1214e-09
6.19051e-09
6.25904e-09
6.32699e-09
6.39435e-09
6.46113e-09
6.52729e-09
6.59285e-09
6.65777e-09
6.72206e-09
6.78567e-09
6.84862e-09
6.91081e-09
6.97233e-09
7.03299e-09
7.09293e-09
7.15189e-09
7.21006e-09
7.26728e-09
7.32389e-09
7.37907e-09
7.43309e-09
7.48539e-09
7.53692e-09
7.587e-09
7.6361e-09
7.68337e-09
7.72892e-09
7.77204e-09
7.81421e-09
7.85367e-09
7.89168e-09
7.92645e-09
7.95959e-09
7.98915e-09
8.01657e-09
8.03986e-09
8.0613e-09
8.07734e-09
8.09197e-09
8.10004e-09
8.10707e-09
8.10647e-09
8.10636e-09
8.09514e-09
8.08528e-09
8.06149e-09
8.03846e-09
8.00449e-09
7.96896e-09
7.92301e-09
7.87467e-09
7.81496e-09
7.7528e-09
7.67821e-09
7.60141e-09
7.51115e-09
7.41914e-09
7.31234e-09
7.20449e-09
7.08033e-09
6.95521e-09
6.81288e-09
6.66443e-09
6.50657e-09
6.33244e-09
6.15527e-09
5.96808e-09
5.78737e-09
5.60822e-09
5.4016e-09
5.19752e-09
4.97259e-09
4.75095e-09
4.51203e-09
4.27577e-09
4.0237e-09
3.77515e-09
3.50954e-09
3.2545e-09
2.99571e-09
2.74803e-09
2.50145e-09
2.26734e-09
2.07877e-09
1.88326e-09
1.67419e-09
1.45721e-09
1.23728e-09
1.02415e-09
8.2114e-10
7.67807e-10
8.09482e-10
9.5425e-10
1.20345e-09
1.46318e-09
1.75288e-09
2.01969e-09
2.30783e-09
2.5708e-09
2.85234e-09
3.10839e-09
3.38017e-09
3.62762e-09
3.88771e-09
4.12536e-09
4.37226e-09
4.59911e-09
4.8318e-09
5.0471e-09
5.26466e-09
5.46768e-09
5.66991e-09
5.85966e-09
6.0468e-09
6.22257e-09
6.39467e-09
6.55624e-09
6.71337e-09
6.86076e-09
7.00319e-09
7.13655e-09
7.26462e-09
7.3843e-09
7.49847e-09
7.60491e-09
7.70576e-09
7.79951e-09
7.88768e-09
7.96937e-09
8.04557e-09
8.11588e-09
8.18087e-09
8.24052e-09
8.29504e-09
8.34465e-09
8.38953e-09
8.42986e-09
8.46585e-09
8.49761e-09
8.52546e-09
8.54944e-09
8.56987e-09
8.58683e-09
8.6005e-09
8.61111e-09
8.61882e-09
8.62384e-09
8.62632e-09
8.62624e-09
8.62348e-09
8.61888e-09
8.61217e-09
8.60393e-09
8.59379e-09
8.58245e-09
8.56933e-09
8.55534e-09
8.53974e-09
8.52357e-09
8.50595e-09
8.48807e-09
8.46883e-09
8.44962e-09
8.42919e-09
8.40898e-09
8.38769e-09
8.36681e-09
8.34499e-09
8.32368e-09
8.30167e-09
8.28011e-09
8.25827e-09
8.23663e-09
8.2152e-09
8.19371e-09
8.17277e-09
8.15168e-09
8.13137e-09
8.11092e-09
8.09135e-09
8.07167e-09
8.05292e-09
8.03413e-09
8.01631e-09
7.99849e-09
7.98169e-09
7.96491e-09
7.9492e-09
7.93351e-09
7.91894e-09
7.9044e-09
7.891e-09
7.87763e-09
7.86543e-09
7.85326e-09
7.84228e-09
7.83133e-09
7.82156e-09
7.81183e-09
7.80326e-09
7.79475e-09
7.78738e-09
7.78008e-09
7.77388e-09
7.76778e-09
7.76272e-09
7.75779e-09
7.75385e-09
7.75006e-09
7.74723e-09
7.74453e-09
7.74271e-09
7.74109e-09
7.74031e-09
7.73974e-09
7.7399e-09
7.74031e-09
7.74139e-09
7.74281e-09
7.74474e-09
7.74704e-09
7.7498e-09
7.75296e-09
7.75655e-09
7.76052e-09
7.76488e-09
7.76957e-09
7.77462e-09
7.78e-09
7.78568e-09
7.79175e-09
7.79797e-09
7.8047e-09
7.81142e-09
7.81875e-09
7.82595e-09
7.83386e-09
7.84151e-09
7.84996e-09
7.85804e-09
7.86695e-09
7.87543e-09
7.88477e-09
7.89361e-09
7.90331e-09
7.91248e-09
7.9225e-09
7.93196e-09
7.94225e-09
7.95197e-09
7.96251e-09
7.97246e-09
7.98321e-09
7.99335e-09
8.00428e-09
8.01459e-09
8.02566e-09
8.0361e-09
8.04729e-09
8.05784e-09
8.06912e-09
8.07975e-09
8.09109e-09
8.10179e-09
8.11316e-09
8.12391e-09
8.13529e-09
8.14606e-09
8.15744e-09
8.16821e-09
8.17956e-09
8.19033e-09
8.20161e-09
8.21237e-09
8.22357e-09
8.23431e-09
8.24541e-09
8.25612e-09
8.2671e-09
8.27777e-09
8.28862e-09
8.29923e-09
8.30994e-09
8.32049e-09
8.33104e-09
8.34151e-09
8.35193e-09
8.36228e-09
8.37257e-09
8.38279e-09
8.39294e-09
8.40303e-09
8.41304e-09
8.42298e-09
8.43285e-09
8.44264e-09
8.45236e-09
8.462e-09
8.47157e-09
8.48106e-09
8.49046e-09
8.49979e-09
8.50904e-09
8.51821e-09
8.5273e-09
8.53631e-09
8.54523e-09
8.55408e-09
8.56284e-09
8.57152e-09
8.58012e-09
8.58864e-09
8.59708e-09
8.60543e-09
8.61371e-09
8.6219e-09
8.63001e-09
8.63805e-09
8.646e-09
8.65387e-09
8.66166e-09
8.66938e-09
8.67701e-09
8.68457e-09
8.69204e-09
8.69944e-09
8.70677e-09
8.71402e-09
8.72119e-09
8.72829e-09
8.73531e-09
8.74226e-09
8.74913e-09
8.75593e-09
8.76266e-09
8.76932e-09
8.77591e-09
8.78242e-09
8.78887e-09
8.79525e-09
8.80156e-09
8.8078e-09
8.81398e-09
8.82009e-09
8.82613e-09
8.83211e-09
8.83802e-09
8.84388e-09
8.84966e-09
8.85539e-09
8.86105e-09
8.86666e-09
8.8722e-09
8.87768e-09
8.88311e-09
8.88847e-09
8.89378e-09
8.89903e-09
8.90422e-09
8.90936e-09
8.91445e-09
8.91948e-09
8.92445e-09
8.92937e-09
8.93424e-09
8.93906e-09
8.94383e-09
8.94854e-09
8.95321e-09
8.95782e-09
8.96238e-09
8.9669e-09
8.97137e-09
8.97579e-09
8.98016e-09
8.98449e-09
8.98877e-09
8.99301e-09
8.9972e-09
9.00134e-09
9.00544e-09
9.0095e-09
9.01352e-09
9.01749e-09
9.02142e-09
9.02531e-09
9.02915e-09
9.03296e-09
9.03672e-09
9.04044e-09
9.04413e-09
9.04777e-09
9.05138e-09
9.05495e-09
9.05847e-09
9.06196e-09
9.06542e-09
9.06883e-09
9.07221e-09
9.07555e-09
9.07886e-09
9.08213e-09
9.08536e-09
9.08856e-09
9.09172e-09
9.09485e-09
9.09794e-09
9.101e-09
9.10402e-09
9.10701e-09
9.10996e-09
9.11289e-09
9.11578e-09
9.11863e-09
9.12146e-09
9.12423e-09
9.12701e-09
9.12971e-09
9.13242e-09
9.13504e-09
9.13772e-09
9.14023e-09
9.14288e-09
9.14527e-09
9.14793e-09
9.15014e-09
9.15288e-09
9.15483e-09
9.15774e-09
9.1593e-09
9.16253e-09
9.16339e-09
2.72833e-11
8.5221e-11
1.73189e-10
2.86896e-10
4.17183e-10
5.59822e-10
7.1276e-10
8.72294e-10
1.03615e-09
1.20241e-09
1.36961e-09
1.53685e-09
1.70291e-09
1.86754e-09
2.03054e-09
2.19182e-09
2.35129e-09
2.50875e-09
2.66397e-09
2.81702e-09
2.96822e-09
3.11748e-09
3.26481e-09
3.41018e-09
3.55354e-09
3.69492e-09
3.83435e-09
3.97183e-09
4.10747e-09
4.24126e-09
4.37334e-09
4.50364e-09
4.63242e-09
4.75981e-09
4.88604e-09
5.00975e-09
5.13235e-09
5.25348e-09
5.37319e-09
5.49146e-09
5.60826e-09
5.72363e-09
5.83749e-09
5.94996e-09
6.061e-09
6.17068e-09
6.27901e-09
6.38603e-09
6.49179e-09
6.59631e-09
6.69964e-09
6.80182e-09
6.9029e-09
7.00289e-09
7.10193e-09
7.19986e-09
7.29711e-09
7.39317e-09
7.48869e-09
7.58194e-09
7.67278e-09
7.76296e-09
7.85143e-09
7.93942e-09
8.02632e-09
8.11245e-09
8.19763e-09
8.2818e-09
8.36494e-09
8.44699e-09
8.52795e-09
8.60775e-09
8.68643e-09
8.76388e-09
8.84016e-09
8.91513e-09
8.98886e-09
9.06123e-09
9.13227e-09
9.20183e-09
9.27005e-09
9.33665e-09
9.40185e-09
9.46529e-09
9.52722e-09
9.58721e-09
9.64537e-09
9.7015e-09
9.75607e-09
9.80796e-09
9.85796e-09
9.90477e-09
9.9499e-09
9.99145e-09
1.00309e-08
1.0066e-08
1.00988e-08
1.01268e-08
1.01527e-08
1.01731e-08
1.01912e-08
1.02032e-08
1.02122e-08
1.02139e-08
1.02139e-08
1.02047e-08
1.01939e-08
1.01728e-08
1.01497e-08
1.01147e-08
1.00754e-08
1.00286e-08
9.96174e-09
9.90159e-09
9.84708e-09
9.7689e-09
9.6909e-09
9.59403e-09
9.4963e-09
9.38156e-09
9.26466e-09
9.13113e-09
8.99484e-09
8.84169e-09
8.68604e-09
8.51223e-09
8.33727e-09
8.14218e-09
7.94778e-09
7.73662e-09
7.53954e-09
7.33322e-09
7.10726e-09
6.87064e-09
6.62972e-09
6.39651e-09
6.19606e-09
5.98038e-09
5.74499e-09
5.49515e-09
5.23214e-09
4.96046e-09
4.68013e-09
4.39387e-09
4.10308e-09
3.81063e-09
3.51863e-09
3.23041e-09
2.93907e-09
2.64178e-09
2.32542e-09
1.97052e-09
1.61789e-09
1.34374e-09
1.21792e-09
1.29846e-09
1.47216e-09
1.76015e-09
2.07441e-09
2.44153e-09
2.7938e-09
3.17374e-09
3.5299e-09
3.90794e-09
4.25965e-09
4.63099e-09
4.97547e-09
5.33663e-09
5.67124e-09
6.01922e-09
6.34236e-09
6.67545e-09
6.98581e-09
7.30247e-09
7.59904e-09
7.89806e-09
8.17982e-09
8.46051e-09
8.72618e-09
8.98846e-09
9.23696e-09
9.48077e-09
9.71157e-09
9.93674e-09
1.01496e-08
1.03562e-08
1.05511e-08
1.07392e-08
1.09164e-08
1.10865e-08
1.12463e-08
1.13988e-08
1.15417e-08
1.16773e-08
1.18039e-08
1.19233e-08
1.20343e-08
1.21384e-08
1.22346e-08
1.23241e-08
1.24064e-08
1.24822e-08
1.25514e-08
1.26144e-08
1.26714e-08
1.27226e-08
1.27681e-08
1.28084e-08
1.28435e-08
1.28737e-08
1.28992e-08
1.29202e-08
1.2937e-08
1.29498e-08
1.29588e-08
1.29643e-08
1.29664e-08
1.29649e-08
1.29604e-08
1.29531e-08
1.29435e-08
1.29312e-08
1.29171e-08
1.29005e-08
1.28824e-08
1.28622e-08
1.28408e-08
1.28176e-08
1.27934e-08
1.27677e-08
1.27414e-08
1.27137e-08
1.26857e-08
1.26565e-08
1.26272e-08
1.2597e-08
1.25669e-08
1.2536e-08
1.25054e-08
1.24743e-08
1.24434e-08
1.24126e-08
1.23817e-08
1.23513e-08
1.23208e-08
1.22911e-08
1.22612e-08
1.22322e-08
1.22032e-08
1.21751e-08
1.21471e-08
1.21202e-08
1.20934e-08
1.20677e-08
1.20422e-08
1.20179e-08
1.19937e-08
1.19709e-08
1.19482e-08
1.19269e-08
1.19058e-08
1.1886e-08
1.18665e-08
1.18483e-08
1.18304e-08
1.18138e-08
1.17975e-08
1.17826e-08
1.17679e-08
1.17546e-08
1.17416e-08
1.17299e-08
1.17185e-08
1.17084e-08
1.16986e-08
1.169e-08
1.16818e-08
1.16748e-08
1.1668e-08
1.16625e-08
1.16572e-08
1.16531e-08
1.16493e-08
1.16466e-08
1.16441e-08
1.16427e-08
1.16416e-08
1.16414e-08
1.16416e-08
1.16426e-08
1.16441e-08
1.16462e-08
1.16488e-08
1.1652e-08
1.16557e-08
1.166e-08
1.16647e-08
1.16699e-08
1.16756e-08
1.16817e-08
1.16883e-08
1.16951e-08
1.17026e-08
1.17102e-08
1.17185e-08
1.17268e-08
1.17359e-08
1.17449e-08
1.17546e-08
1.17643e-08
1.17746e-08
1.17848e-08
1.17958e-08
1.18065e-08
1.18179e-08
1.18291e-08
1.1841e-08
1.18526e-08
1.18649e-08
1.18769e-08
1.18895e-08
1.19018e-08
1.19148e-08
1.19274e-08
1.19406e-08
1.19534e-08
1.19669e-08
1.198e-08
1.19936e-08
1.20068e-08
1.20207e-08
1.2034e-08
1.20479e-08
1.20614e-08
1.20754e-08
1.20889e-08
1.2103e-08
1.21166e-08
1.21307e-08
1.21443e-08
1.21584e-08
1.2172e-08
1.21861e-08
1.21997e-08
1.22137e-08
1.22273e-08
1.22412e-08
1.22548e-08
1.22686e-08
1.22821e-08
1.22957e-08
1.23092e-08
1.23227e-08
1.23361e-08
1.23495e-08
1.23627e-08
1.2376e-08
1.23891e-08
1.24022e-08
1.24151e-08
1.24281e-08
1.24409e-08
1.24536e-08
1.24663e-08
1.24789e-08
1.24913e-08
1.25037e-08
1.2516e-08
1.25282e-08
1.25404e-08
1.25524e-08
1.25643e-08
1.25761e-08
1.25879e-08
1.25995e-08
1.2611e-08
1.26225e-08
1.26338e-08
1.2645e-08
1.26562e-08
1.26672e-08
1.26782e-08
1.2689e-08
1.26997e-08
1.27104e-08
1.27209e-08
1.27313e-08
1.27417e-08
1.27519e-08
1.2762e-08
1.27721e-08
1.2782e-08
1.27918e-08
1.28016e-08
1.28112e-08
1.28207e-08
1.28302e-08
1.28396e-08
1.28488e-08
1.2858e-08
1.2867e-08
1.2876e-08
1.28849e-08
1.28937e-08
1.29024e-08
1.2911e-08
1.29195e-08
1.29279e-08
1.29363e-08
1.29445e-08
1.29527e-08
1.29608e-08
1.29688e-08
1.29767e-08
1.29845e-08
1.29923e-08
1.3e-08
1.30075e-08
1.3015e-08
1.30225e-08
1.30298e-08
1.30371e-08
1.30443e-08
1.30514e-08
1.30584e-08
1.30654e-08
1.30723e-08
1.30791e-08
1.30859e-08
1.30925e-08
1.30991e-08
1.31057e-08
1.31121e-08
1.31185e-08
1.31249e-08
1.31311e-08
1.31373e-08
1.31435e-08
1.31495e-08
1.31555e-08
1.31615e-08
1.31673e-08
1.31731e-08
1.31789e-08
1.31846e-08
1.31902e-08
1.31958e-08
1.32013e-08
1.32068e-08
1.32122e-08
1.32175e-08
1.32228e-08
1.3228e-08
1.32332e-08
1.32383e-08
1.32433e-08
1.32484e-08
1.32533e-08
1.32582e-08
1.32631e-08
1.32679e-08
1.32726e-08
1.32773e-08
1.32819e-08
1.32865e-08
1.32911e-08
1.32956e-08
1.33e-08
1.33044e-08
1.33088e-08
1.33131e-08
1.33173e-08
1.33216e-08
1.33257e-08
1.33298e-08
1.33339e-08
1.33379e-08
1.33419e-08
1.33459e-08
1.33497e-08
1.33536e-08
1.33574e-08
1.33612e-08
1.33649e-08
1.33686e-08
1.33722e-08
1.33758e-08
1.33793e-08
1.33828e-08
1.33862e-08
1.33897e-08
1.33929e-08
1.33964e-08
1.33995e-08
1.3403e-08
1.34058e-08
1.34093e-08
1.34118e-08
1.34155e-08
1.34174e-08
6.5658e-11
1.67763e-10
2.94736e-10
4.54728e-10
6.28209e-10
8.12436e-10
1.00562e-09
1.20535e-09
1.40912e-09
1.61566e-09
1.82296e-09
2.02978e-09
2.23504e-09
2.43816e-09
2.63874e-09
2.83652e-09
3.03126e-09
3.22265e-09
3.41077e-09
3.59595e-09
3.77868e-09
3.95839e-09
4.1356e-09
4.31001e-09
4.48166e-09
4.65059e-09
4.81684e-09
4.98046e-09
5.14152e-09
5.30011e-09
5.45634e-09
5.61021e-09
5.76188e-09
5.91134e-09
6.0586e-09
6.20355e-09
6.34544e-09
6.48523e-09
6.62281e-09
6.75819e-09
6.89129e-09
7.02231e-09
7.15122e-09
7.27831e-09
7.4035e-09
7.52699e-09
7.64871e-09
7.76864e-09
7.88679e-09
8.00319e-09
8.11783e-09
8.23074e-09
8.34191e-09
8.45135e-09
8.55893e-09
8.66503e-09
8.76908e-09
8.87171e-09
8.97248e-09
9.0716e-09
9.16998e-09
9.26637e-09
9.36203e-09
9.45498e-09
9.54635e-09
9.63582e-09
9.72358e-09
9.80953e-09
9.89375e-09
9.97613e-09
1.00567e-08
1.01354e-08
1.02123e-08
1.02872e-08
1.03602e-08
1.0431e-08
1.04998e-08
1.05664e-08
1.06309e-08
1.06928e-08
1.07527e-08
1.08098e-08
1.0865e-08
1.0917e-08
1.0967e-08
1.10136e-08
1.10578e-08
1.10981e-08
1.11354e-08
1.11678e-08
1.11982e-08
1.12243e-08
1.12476e-08
1.12659e-08
1.12818e-08
1.12908e-08
1.12973e-08
1.12955e-08
1.12924e-08
1.12802e-08
1.12662e-08
1.12422e-08
1.12162e-08
1.11785e-08
1.11402e-08
1.10886e-08
1.10362e-08
1.09695e-08
1.09025e-08
1.08187e-08
1.07381e-08
1.06637e-08
1.05655e-08
1.04637e-08
1.03903e-08
1.03082e-08
1.02107e-08
1.01006e-08
9.97778e-09
9.84439e-09
9.69971e-09
9.54465e-09
9.37883e-09
9.20265e-09
9.01652e-09
8.81969e-09
8.61396e-09
8.39787e-09
8.17474e-09
7.94313e-09
7.70806e-09
7.46636e-09
7.21694e-09
6.96742e-09
6.69833e-09
6.38972e-09
6.04539e-09
5.69707e-09
5.40133e-09
5.09107e-09
4.78364e-09
4.45966e-09
4.13866e-09
3.80289e-09
3.47407e-09
3.13056e-09
2.8044e-09
2.46341e-09
2.14584e-09
1.83239e-09
1.77365e-09
1.97817e-09
2.26013e-09
2.6282e-09
3.01497e-09
3.44224e-09
3.8567e-09
4.29826e-09
4.71825e-09
5.16921e-09
5.58985e-09
6.03327e-09
6.44823e-09
6.8832e-09
7.28992e-09
7.71326e-09
8.11002e-09
8.52074e-09
8.90556e-09
9.30084e-09
9.67187e-09
1.00499e-08
1.0406e-08
1.07652e-08
1.11055e-08
1.14449e-08
1.17679e-08
1.20874e-08
1.23916e-08
1.26909e-08
1.29757e-08
1.32545e-08
1.35194e-08
1.37775e-08
1.40223e-08
1.42597e-08
1.44845e-08
1.47014e-08
1.49063e-08
1.51031e-08
1.52885e-08
1.54656e-08
1.5632e-08
1.57901e-08
1.59382e-08
1.60781e-08
1.62086e-08
1.63311e-08
1.64447e-08
1.65507e-08
1.66484e-08
1.67387e-08
1.68214e-08
1.6897e-08
1.69656e-08
1.70273e-08
1.70827e-08
1.71317e-08
1.71747e-08
1.72119e-08
1.72435e-08
1.72699e-08
1.72912e-08
1.73077e-08
1.73197e-08
1.73273e-08
1.7331e-08
1.73304e-08
1.7326e-08
1.73181e-08
1.73072e-08
1.72932e-08
1.72767e-08
1.72573e-08
1.72358e-08
1.72118e-08
1.7186e-08
1.71581e-08
1.71287e-08
1.70975e-08
1.70651e-08
1.70312e-08
1.69965e-08
1.69604e-08
1.69239e-08
1.68863e-08
1.68484e-08
1.68097e-08
1.67709e-08
1.67316e-08
1.66923e-08
1.66529e-08
1.66133e-08
1.65742e-08
1.65348e-08
1.64962e-08
1.64573e-08
1.64194e-08
1.63813e-08
1.63443e-08
1.63073e-08
1.62715e-08
1.62357e-08
1.62012e-08
1.61669e-08
1.61339e-08
1.61011e-08
1.60697e-08
1.60385e-08
1.60089e-08
1.59795e-08
1.59516e-08
1.59241e-08
1.58981e-08
1.58724e-08
1.58483e-08
1.58246e-08
1.58024e-08
1.57806e-08
1.57604e-08
1.57405e-08
1.57222e-08
1.57043e-08
1.56879e-08
1.56719e-08
1.56574e-08
1.56433e-08
1.56307e-08
1.56184e-08
1.56076e-08
1.55972e-08
1.55882e-08
1.55795e-08
1.55722e-08
1.55652e-08
1.55596e-08
1.55543e-08
1.55503e-08
1.55465e-08
1.55439e-08
1.55419e-08
1.55407e-08
1.55401e-08
1.55403e-08
1.55411e-08
1.55426e-08
1.55447e-08
1.55475e-08
1.55508e-08
1.55547e-08
1.55592e-08
1.55642e-08
1.55698e-08
1.55758e-08
1.55825e-08
1.55895e-08
1.55972e-08
1.5605e-08
1.56136e-08
1.56223e-08
1.56317e-08
1.56412e-08
1.56514e-08
1.56616e-08
1.56725e-08
1.56833e-08
1.56948e-08
1.57063e-08
1.57184e-08
1.57303e-08
1.5743e-08
1.57554e-08
1.57685e-08
1.57813e-08
1.57949e-08
1.58081e-08
1.5822e-08
1.58355e-08
1.58497e-08
1.58636e-08
1.5878e-08
1.58921e-08
1.59068e-08
1.59211e-08
1.59359e-08
1.59504e-08
1.59654e-08
1.598e-08
1.59951e-08
1.60098e-08
1.6025e-08
1.60397e-08
1.60549e-08
1.60697e-08
1.6085e-08
1.60998e-08
1.6115e-08
1.61298e-08
1.61449e-08
1.61598e-08
1.61748e-08
1.61896e-08
1.62045e-08
1.62193e-08
1.62341e-08
1.62488e-08
1.62634e-08
1.6278e-08
1.62926e-08
1.6307e-08
1.63214e-08
1.63357e-08
1.635e-08
1.63641e-08
1.63782e-08
1.63922e-08
1.64061e-08
1.64199e-08
1.64336e-08
1.64473e-08
1.64608e-08
1.64742e-08
1.64876e-08
1.65008e-08
1.6514e-08
1.6527e-08
1.65399e-08
1.65528e-08
1.65655e-08
1.65781e-08
1.65907e-08
1.66031e-08
1.66154e-08
1.66276e-08
1.66397e-08
1.66517e-08
1.66635e-08
1.66753e-08
1.6687e-08
1.66985e-08
1.671e-08
1.67213e-08
1.67326e-08
1.67437e-08
1.67547e-08
1.67656e-08
1.67764e-08
1.67871e-08
1.67977e-08
1.68082e-08
1.68186e-08
1.68289e-08
1.68391e-08
1.68492e-08
1.68592e-08
1.68691e-08
1.68789e-08
1.68885e-08
1.68981e-08
1.69076e-08
1.6917e-08
1.69263e-08
1.69355e-08
1.69446e-08
1.69536e-08
1.69625e-08
1.69714e-08
1.69801e-08
1.69888e-08
1.69973e-08
1.70058e-08
1.70142e-08
1.70225e-08
1.70307e-08
1.70388e-08
1.70468e-08
1.70548e-08
1.70627e-08
1.70704e-08
1.70781e-08
1.70858e-08
1.70933e-08
1.71008e-08
1.71082e-08
1.71155e-08
1.71227e-08
1.71299e-08
1.7137e-08
1.7144e-08
1.71509e-08
1.71578e-08
1.71646e-08
1.71713e-08
1.7178e-08
1.71845e-08
1.7191e-08
1.71975e-08
1.72039e-08
1.72102e-08
1.72164e-08
1.72226e-08
1.72287e-08
1.72348e-08
1.72407e-08
1.72467e-08
1.72525e-08
1.72583e-08
1.72641e-08
1.72697e-08
1.72754e-08
1.72809e-08
1.72864e-08
1.72918e-08
1.72972e-08
1.73025e-08
1.73078e-08
1.7313e-08
1.73182e-08
1.73233e-08
1.73283e-08
1.73333e-08
1.73382e-08
1.73431e-08
1.73479e-08
1.73527e-08
1.73574e-08
1.73621e-08
1.73667e-08
1.73713e-08
1.73758e-08
1.73802e-08
1.73846e-08
1.7389e-08
1.73933e-08
1.73976e-08
1.74017e-08
1.74059e-08
1.741e-08
1.74141e-08
1.7418e-08
1.74221e-08
1.74259e-08
1.74299e-08
1.74335e-08
1.74374e-08
1.74408e-08
1.74448e-08
1.74478e-08
1.74518e-08
1.74545e-08
1.24392e-10
2.80384e-10
4.5564e-10
6.57171e-10
8.71966e-10
1.09337e-09
1.32067e-09
1.55303e-09
1.78851e-09
2.02657e-09
2.2642e-09
2.50051e-09
2.73448e-09
2.96544e-09
3.19283e-09
3.41643e-09
3.63617e-09
3.85192e-09
4.06395e-09
4.27217e-09
4.47574e-09
4.67563e-09
4.87168e-09
5.06396e-09
5.25239e-09
5.4371e-09
5.61812e-09
5.79575e-09
5.96984e-09
6.14099e-09
6.30874e-09
6.47367e-09
6.63526e-09
6.79422e-09
6.95006e-09
7.10338e-09
7.25324e-09
7.40093e-09
7.54576e-09
7.688e-09
7.82761e-09
7.96476e-09
8.09932e-09
8.23146e-09
8.36093e-09
8.48783e-09
8.61221e-09
8.73413e-09
8.85364e-09
8.97077e-09
9.08555e-09
9.198e-09
9.30813e-09
9.41606e-09
9.52164e-09
9.62552e-09
9.72719e-09
9.82771e-09
9.92759e-09
1.0023e-08
1.01128e-08
1.01992e-08
1.02844e-08
1.03678e-08
1.04495e-08
1.05291e-08
1.06065e-08
1.06815e-08
1.0754e-08
1.0824e-08
1.08915e-08
1.09562e-08
1.10184e-08
1.10776e-08
1.11342e-08
1.11877e-08
1.12383e-08
1.12857e-08
1.13301e-08
1.13709e-08
1.14088e-08
1.14428e-08
1.14738e-08
1.15007e-08
1.15245e-08
1.15441e-08
1.15612e-08
1.15787e-08
1.15979e-08
1.16131e-08
1.16257e-08
1.16347e-08
1.16394e-08
1.16401e-08
1.16401e-08
1.16349e-08
1.16246e-08
1.16086e-08
1.15872e-08
1.15599e-08
1.15263e-08
1.14862e-08
1.14395e-08
1.13857e-08
1.1325e-08
1.12569e-08
1.1182e-08
1.10993e-08
1.10111e-08
1.09147e-08
1.08148e-08
1.07091e-08
1.06019e-08
1.04842e-08
1.03252e-08
1.01621e-08
1.00211e-08
9.86543e-09
9.70446e-09
9.52822e-09
9.34669e-09
9.14899e-09
8.94639e-09
8.72679e-09
8.50325e-09
8.26116e-09
8.01719e-09
7.75255e-09
7.48912e-09
7.20347e-09
6.92272e-09
6.61915e-09
6.31648e-09
6.00321e-09
5.67532e-09
5.31939e-09
4.9603e-09
4.59823e-09
4.23599e-09
3.86693e-09
3.50094e-09
3.13188e-09
2.77549e-09
2.43348e-09
2.31682e-09
2.50828e-09
2.77811e-09
3.1426e-09
3.54004e-09
3.98839e-09
4.43497e-09
4.91942e-09
5.38169e-09
5.87417e-09
6.34475e-09
6.84159e-09
7.31198e-09
7.80561e-09
8.27146e-09
8.75909e-09
9.2186e-09
9.69412e-09
1.01441e-08
1.06097e-08
1.10495e-08
1.15029e-08
1.193e-08
1.23678e-08
1.27805e-08
1.32005e-08
1.35973e-08
1.39979e-08
1.43781e-08
1.47582e-08
1.51204e-08
1.54797e-08
1.58225e-08
1.61606e-08
1.64831e-08
1.67997e-08
1.71014e-08
1.73963e-08
1.76768e-08
1.79498e-08
1.82091e-08
1.84603e-08
1.86985e-08
1.89282e-08
1.91455e-08
1.9354e-08
1.95508e-08
1.97388e-08
1.99157e-08
2.00837e-08
2.02413e-08
2.03902e-08
2.05293e-08
2.06599e-08
2.07813e-08
2.08945e-08
2.0999e-08
2.10955e-08
2.1184e-08
2.12649e-08
2.13383e-08
2.14045e-08
2.14636e-08
2.1516e-08
2.15618e-08
2.16013e-08
2.16349e-08
2.16627e-08
2.16851e-08
2.17023e-08
2.17145e-08
2.1722e-08
2.17249e-08
2.17232e-08
2.17173e-08
2.17075e-08
2.16942e-08
2.16775e-08
2.16578e-08
2.1635e-08
2.16095e-08
2.15814e-08
2.1551e-08
2.15182e-08
2.14836e-08
2.1447e-08
2.14088e-08
2.13689e-08
2.13278e-08
2.12853e-08
2.1242e-08
2.11974e-08
2.11523e-08
2.11063e-08
2.10599e-08
2.10129e-08
2.09657e-08
2.09182e-08
2.08705e-08
2.08231e-08
2.07753e-08
2.07282e-08
2.06808e-08
2.06343e-08
2.05875e-08
2.05419e-08
2.04961e-08
2.04515e-08
2.0407e-08
2.03638e-08
2.03207e-08
2.0279e-08
2.02375e-08
2.01975e-08
2.01577e-08
2.01195e-08
2.00817e-08
2.00454e-08
2.00095e-08
1.99753e-08
1.99414e-08
1.99092e-08
1.98775e-08
1.98474e-08
1.98178e-08
1.97899e-08
1.97625e-08
1.97367e-08
1.97114e-08
1.96878e-08
1.96647e-08
1.96433e-08
1.96223e-08
1.9603e-08
1.95841e-08
1.95669e-08
1.95501e-08
1.95349e-08
1.95201e-08
1.95069e-08
1.94941e-08
1.94828e-08
1.9472e-08
1.94625e-08
1.94535e-08
1.94459e-08
1.94387e-08
1.94327e-08
1.94272e-08
1.94228e-08
1.94191e-08
1.94162e-08
1.94141e-08
1.94127e-08
1.9412e-08
1.94121e-08
1.94128e-08
1.94141e-08
1.94162e-08
1.94188e-08
1.94223e-08
1.94261e-08
1.94307e-08
1.94356e-08
1.94412e-08
1.94472e-08
1.94539e-08
1.94608e-08
1.94685e-08
1.94763e-08
1.94849e-08
1.94935e-08
1.95029e-08
1.95123e-08
1.95224e-08
1.95326e-08
1.95433e-08
1.95541e-08
1.95655e-08
1.95769e-08
1.95889e-08
1.96007e-08
1.96132e-08
1.96256e-08
1.96385e-08
1.96512e-08
1.96645e-08
1.96777e-08
1.96913e-08
1.97048e-08
1.97187e-08
1.97324e-08
1.97466e-08
1.97606e-08
1.9775e-08
1.97891e-08
1.98037e-08
1.9818e-08
1.98327e-08
1.98471e-08
1.98619e-08
1.98764e-08
1.98913e-08
1.99059e-08
1.99208e-08
1.99354e-08
1.99503e-08
1.99649e-08
1.99797e-08
1.99944e-08
2.00092e-08
2.00238e-08
2.00385e-08
2.00531e-08
2.00677e-08
2.00822e-08
2.00967e-08
2.01111e-08
2.01255e-08
2.01398e-08
2.0154e-08
2.01682e-08
2.01823e-08
2.01963e-08
2.02103e-08
2.02242e-08
2.0238e-08
2.02517e-08
2.02653e-08
2.02788e-08
2.02923e-08
2.03057e-08
2.03189e-08
2.03321e-08
2.03452e-08
2.03582e-08
2.0371e-08
2.03838e-08
2.03965e-08
2.04091e-08
2.04216e-08
2.0434e-08
2.04462e-08
2.04584e-08
2.04705e-08
2.04825e-08
2.04943e-08
2.05061e-08
2.05177e-08
2.05293e-08
2.05407e-08
2.05521e-08
2.05633e-08
2.05745e-08
2.05855e-08
2.05964e-08
2.06073e-08
2.0618e-08
2.06286e-08
2.06391e-08
2.06496e-08
2.06599e-08
2.06701e-08
2.06802e-08
2.06902e-08
2.07002e-08
2.071e-08
2.07197e-08
2.07294e-08
2.07389e-08
2.07483e-08
2.07577e-08
2.07669e-08
2.07761e-08
2.07852e-08
2.07941e-08
2.0803e-08
2.08118e-08
2.08205e-08
2.08291e-08
2.08377e-08
2.08461e-08
2.08544e-08
2.08627e-08
2.08709e-08
2.0879e-08
2.0887e-08
2.0895e-08
2.09028e-08
2.09106e-08
2.09183e-08
2.09259e-08
2.09334e-08
2.09409e-08
2.09483e-08
2.09556e-08
2.09628e-08
2.09699e-08
2.0977e-08
2.0984e-08
2.0991e-08
2.09978e-08
2.10046e-08
2.10113e-08
2.1018e-08
2.10246e-08