/*--------------------------------*- C++ -*----------------------------------*\
| =========                 |                                                 |
| \\      /  F ield         | OpenFOAM: The Open Source CFD Toolbox           |
|  \\    /   O peration     | Version:  2012                                  |
|   \\  /    A nd           | Website:  www.openfoam.com                      |
|    \\/     M anipulation  |                                                 |
\*---------------------------------------------------------------------------*/
FoamFile
{
    version     2.0;
    format      ascii;
    class       volVectorField;
    location    "4820";
    object      U;
}
// * * * * * * * * * * * * * * * * * * * * * * * * * * * * * * * * * * * * * //

dimensions      [0 1 -1 0 0 0 0];


internalField   nonuniform List<vector> 
20400
(
(3.52846e-06 -3.4528e-06 0)
(5.17733e-06 -1.16964e-06 0)
(-4.67431e-06 3.70708e-06 0)
(-2.50051e-05 6.36394e-06 0)
(-5.82707e-05 7.81207e-06 0)
(-9.85091e-05 7.15742e-06 0)
(-0.000144673 6.39687e-06 0)
(-0.000193527 5.47913e-06 0)
(-0.000243167 4.70981e-06 0)
(-0.000293937 4.21517e-06 0)
(-0.000343453 4.26822e-06 0)
(-0.000393361 4.19485e-06 0)
(-0.000442498 4.01933e-06 0)
(-0.000491439 3.62762e-06 0)
(-0.000540077 3.0635e-06 0)
(-0.000588525 2.27954e-06 0)
(-0.000636823 1.25043e-06 0)
(-0.000685006 3.53819e-08 0)
(-0.000733088 -1.3286e-06 0)
(-0.00078098 -2.51548e-06 0)
(-0.000828583 -3.7437e-06 0)
(-0.000875899 -4.96911e-06 0)
(-0.000922958 -6.10924e-06 0)
(-0.000969745 -7.09166e-06 0)
(-0.00101625 -7.843e-06 0)
(-0.00106245 -8.29566e-06 0)
(-0.00110834 -8.39384e-06 0)
(-0.00115391 -8.08067e-06 0)
(-0.00119919 -7.32448e-06 0)
(-0.00124418 -6.08557e-06 0)
(-0.00128893 -4.35775e-06 0)
(-0.0013334 -2.1092e-06 0)
(-0.0013775 7.67011e-07 0)
(-0.00142086 5.34259e-06 0)
(-0.00146338 8.93099e-06 0)
(-0.00150563 1.13674e-05 0)
(-0.00154885 1.50867e-05 0)
(-0.00159089 1.87791e-05 0)
(-0.00163279 2.22593e-05 0)
(-0.00167413 2.5397e-05 0)
(-0.00171509 2.80732e-05 0)
(-0.00175568 3.02103e-05 0)
(-0.00179594 3.17947e-05 0)
(-0.00183595 3.28295e-05 0)
(-0.00187572 3.33664e-05 0)
(-0.00191529 3.34697e-05 0)
(-0.00195465 3.32076e-05 0)
(-0.00199381 3.26356e-05 0)
(-0.00203275 3.17895e-05 0)
(-0.00207149 3.06817e-05 0)
(-0.00211 2.9299e-05 0)
(-0.0021483 2.76065e-05 0)
(-0.00218641 2.55356e-05 0)
(-0.00222431 2.30284e-05 0)
(-0.00226207 1.99582e-05 0)
(-0.00229964 1.6321e-05 0)
(-0.00233718 1.20376e-05 0)
(-0.00237435 7.68078e-06 0)
(-0.00241116 2.22613e-06 0)
(-0.00244831 -4.74432e-06 0)
(-0.00248585 -1.037e-05 0)
(-0.00252345 -1.54011e-05 0)
(-0.0025608 -1.91463e-05 0)
(-0.00259812 -2.18646e-05 0)
(-0.00263524 -2.35755e-05 0)
(-0.00267219 -2.44765e-05 0)
(-0.00270896 -2.47349e-05 0)
(-0.00274554 -2.45029e-05 0)
(-0.00278198 -2.39075e-05 0)
(-0.00281829 -2.30369e-05 0)
(-0.0028545 -2.19643e-05 0)
(-0.0028906 -2.07277e-05 0)
(-0.00292663 -1.93671e-05 0)
(-0.00296256 -1.78918e-05 0)
(-0.00299844 -1.63259e-05 0)
(-0.00303423 -1.46662e-05 0)
(-0.00306996 -1.29317e-05 0)
(-0.00310561 -1.11163e-05 0)
(-0.0031412 -9.24458e-06 0)
(-0.00317669 -7.30182e-06 0)
(-0.00321214 -5.32697e-06 0)
(-0.0032475 -3.29509e-06 0)
(-0.00328284 -1.25418e-06 0)
(-0.00331804 8.39437e-07 0)
(-0.00335306 3.0445e-06 0)
(-0.00338748 5.79313e-06 0)
(-0.00342137 7.10553e-06 0)
(-0.00345601 7.91764e-06 0)
(-0.00349034 8.28321e-06 0)
(-0.00352445 8.37956e-06 0)
(-0.00355831 7.81452e-06 0)
(-0.00359163 7.02933e-06 0)
(-0.00362445 5.55477e-06 0)
(-0.00365666 2.06959e-06 0)
(-0.00368959 -9.80536e-07 0)
(-0.00372152 -4.32283e-06 0)
(-0.00375364 -8.16871e-06 0)
(-0.00378477 -1.20304e-05 0)
(-0.00381577 -1.64608e-05 0)
(-0.00384569 -2.06665e-05 0)
(-0.00387538 -2.56194e-05 0)
(-0.00390378 -3.00154e-05 0)
(-0.00393186 -3.52381e-05 0)
(-0.00395836 -3.9268e-05 0)
(-0.00398479 -4.4075e-05 0)
(-0.00400914 -4.70178e-05 0)
(-0.00403417 -5.0497e-05 0)
(-0.00405576 -5.01139e-05 0)
(-0.0040799 -5.07753e-05 0)
(-0.00409783 -4.4455e-05 0)
(-0.00412103 -3.84313e-05 0)
(-0.00413454 -2.28227e-05 0)
(-0.00415346 -5.11161e-06 0)
(-0.00415863 2.18003e-05 0)
(-0.00417064 4.36418e-05 0)
(-0.00417187 6.90377e-05 0)
(-0.0041772 8.32137e-05 0)
(-0.00417351 0.000105305 0)
(-0.00417236 0.000114048 0)
(-0.0041636 0.00013357 0)
(-0.00415575 0.000140045 0)
(-0.00414068 0.000157473 0)
(-0.00412597 0.000163436 0)
(-0.0041033 0.000178688 0)
(-0.00408102 0.000184231 0)
(-0.00404971 0.000196066 0)
(-0.00401861 0.000199931 0)
(-0.00397712 0.000205151 0)
(-0.00393529 0.000203144 0)
(-0.00388138 0.000195716 0)
(-0.00382514 0.000177588 0)
(-0.00375987 0.000148183 0)
(-0.0036872 0.000102773 0)
(-0.00361324 4.29131e-05 0)
(-0.00353235 -2.91615e-05 0)
(-0.00345978 -0.000108752 0)
(-0.00339264 -0.000171694 0)
(-0.00331724 -0.000228354 0)
(-0.00323707 -0.000260143 0)
(-0.00314697 -0.000295948 0)
(-0.00305642 -0.000311165 0)
(-0.00295449 -0.000333022 0)
(-0.0028561 -0.000338515 0)
(-0.00274694 -0.000345883 0)
(-0.00264359 -0.000337645 0)
(-0.00253154 -0.000321548 0)
(-0.00242659 -0.000281237 0)
(-0.0023095 -0.000225434 0)
(-0.00219684 -0.000127872 0)
(-0.00206496 -3.12993e-05 0)
(-0.00194099 9.43102e-05 0)
(-0.00176651 0.000169297 0)
(-0.00162961 0.000229128 0)
(-0.00146066 0.000250706 0)
(-0.00132181 0.000264009 0)
(-0.0011443 0.000256234 0)
(-0.00100273 0.000219887 0)
(-0.000775549 0.000150917 0)
(-0.000663621 1.2155e-05 0)
(-0.000565149 -2.60731e-05 0)
(-0.00043071 -5.67924e-05 0)
(-0.000293933 -6.49978e-05 0)
(-0.000158067 -6.86071e-05 0)
(-9.74979e-06 -6.767e-05 0)
(0.000118797 -5.98614e-05 0)
(0.000271487 -5.44022e-05 0)
(0.000396643 -4.61257e-05 0)
(0.00054482 -4.17325e-05 0)
(0.000665828 -3.47685e-05 0)
(0.000808138 -3.26003e-05 0)
(0.000924695 -2.71826e-05 0)
(0.00105981 -2.6473e-05 0)
(0.00117146 -2.20005e-05 0)
(0.00129843 -2.21967e-05 0)
(0.00140482 -1.83439e-05 0)
(0.00152309 -1.90535e-05 0)
(0.00162387 -1.57487e-05 0)
(0.00173317 -1.66537e-05 0)
(0.00182794 -1.36517e-05 0)
(0.00192841 -1.45718e-05 0)
(0.00201666 -1.2329e-05 0)
(0.00210842 -1.26801e-05 0)
(0.00218983 -1.11906e-05 0)
(0.00227299 -1.10834e-05 0)
(0.00234754 -1.01207e-05 0)
(0.00242213 -9.7652e-06 0)
(0.00248982 -8.94083e-06 0)
(0.00255647 -8.59025e-06 0)
(0.00261712 -7.86895e-06 0)
(0.00267622 -7.5103e-06 0)
(0.00273005 -6.88044e-06 0)
(0.00278193 -6.52073e-06 0)
(0.00282924 -5.9723e-06 0)
(0.00287429 -5.61575e-06 0)
(0.00291542 -5.14055e-06 0)
(0.00295406 -4.7888e-06 0)
(0.00298938 -4.38365e-06 0)
(0.00302206 -4.03586e-06 0)
(0.00305202 -3.68922e-06 0)
(0.00307923 -3.3069e-06 0)
(0.00310403 -3.08995e-06 0)
(0.00312639 -2.76135e-06 0)
(0.00314648 -2.46802e-06 0)
(0.00316434 -2.20865e-06 0)
(0.00318008 -1.93968e-06 0)
(0.00319387 -1.72484e-06 0)
(0.00320574 -1.44551e-06 0)
(0.00321582 -1.26709e-06 0)
(0.0032242 -1.02185e-06 0)
(0.00323095 -7.72962e-07 0)
(0.00323625 -5.48216e-07 0)
(0.0032402 -2.9582e-07 0)
(0.00324281 -6.54011e-08 0)
(0.00324423 1.53437e-07 0)
(0.00324463 2.57868e-07 0)
(0.00324368 4.96606e-07 0)
(0.00324185 6.69115e-07 0)
(0.00323892 6.94825e-07 0)
(0.00323537 6.66641e-07 0)
(0.00323066 6.63582e-07 0)
(0.00322573 5.71488e-07 0)
(0.0032195 5.57228e-07 0)
(0.00321353 5.04066e-07 0)
(0.00320613 4.37361e-07 0)
(0.00319932 4.81878e-07 0)
(0.00319102 3.52379e-07 0)
(0.00318352 4.80704e-07 0)
(0.00317452 2.89156e-07 0)
(0.00316651 4.84419e-07 0)
(0.00315702 2.91901e-07 0)
(0.00314863 4.73563e-07 0)
(0.00313885 3.32555e-07 0)
(0.00313023 4.59781e-07 0)
(0.00312032 3.65643e-07 0)
(0.00311157 4.5545e-07 0)
(0.00310168 3.93892e-07 0)
(0.00309285 4.65613e-07 0)
(0.00308317 4.30557e-07 0)
(0.00307429 5.0507e-07 0)
(0.00306504 5.04027e-07 0)
(0.00305614 6.11404e-07 0)
(0.00304738 6.21059e-07 0)
(0.0030386 7.5708e-07 0)
(0.00303023 7.42713e-07 0)
(0.00302172 8.97525e-07 0)
(0.00301379 8.2648e-07 0)
(0.00300567 9.6784e-07 0)
(0.00299821 8.22339e-07 0)
(0.00299056 9.66128e-07 0)
(0.0029836 7.85057e-07 0)
(0.00297645 9.39206e-07 0)
(0.00297 7.32322e-07 0)
(0.00296336 8.99188e-07 0)
(0.00295745 6.73995e-07 0)
(0.00295134 8.49616e-07 0)
(0.002946 6.10942e-07 0)
(0.00294042 7.93085e-07 0)
(0.00293566 5.44683e-07 0)
(0.00293063 7.31098e-07 0)
(0.00292645 4.73088e-07 0)
(0.00292198 6.38978e-07 0)
(0.00291838 3.98112e-07 0)
(0.00291447 5.43468e-07 0)
(0.00291145 3.24656e-07 0)
(0.0029081 4.45917e-07 0)
(0.00290564 2.38467e-07 0)
(0.00290285 3.45997e-07 0)
(0.00290094 1.44165e-07 0)
(0.00289871 2.45392e-07 0)
(0.00289733 5.37406e-08 0)
(0.00289566 1.46119e-07 0)
(0.00289478 -3.2678e-08 0)
(0.00289367 5.03587e-08 0)
(0.00289325 -1.18187e-07 0)
(0.00289272 -3.68645e-08 0)
(0.00289268 -2.12663e-07 0)
(0.00289269 -7.8953e-08 0)
(0.00289317 -2.81023e-07 0)
(0.00289361 -1.28018e-07 0)
(0.00289453 -3.47559e-07 0)
(0.00289541 -2.11273e-07 0)
(0.00289679 -4.26822e-07 0)
(0.00289811 -3.02938e-07 0)
(0.00289984 -4.12922e-07 0)
(0.00290164 -3.51108e-07 0)
(0.00290374 -3.84482e-07 0)
(0.00290599 -3.60941e-07 0)
(0.00290843 -3.95655e-07 0)
(0.00291103 -3.98966e-07 0)
(0.00291382 -4.35377e-07 0)
(0.00291675 -4.6383e-07 0)
(0.00291986 -4.99486e-07 0)
(0.00292312 -5.25363e-07 0)
(0.00292653 -5.44664e-07 0)
(0.0029301 -5.59406e-07 0)
(0.00293373 -5.41834e-07 0)
(0.00293762 -5.65738e-07 0)
(0.00294143 -5.49764e-07 0)
(0.00294564 -5.35411e-07 0)
(0.0029496 -6.04533e-07 0)
(0.00295415 -5.1258e-07 0)
(0.00295821 -6.01788e-07 0)
(0.00296306 -5.37197e-07 0)
(0.00296724 -6.2924e-07 0)
(0.00297234 -5.85197e-07 0)
(0.00297664 -6.71166e-07 0)
(0.00298198 -6.34144e-07 0)
(0.0029864 -7.16094e-07 0)
(0.00299193 -6.80514e-07 0)
(0.00299647 -7.58254e-07 0)
(0.00300216 -7.22013e-07 0)
(0.00300681 -7.94712e-07 0)
(0.00301264 -7.55677e-07 0)
(0.00301739 -8.18122e-07 0)
(0.00302332 -7.74059e-07 0)
(0.00302816 -8.3004e-07 0)
(0.00303417 -7.77287e-07 0)
(0.00303909 -8.34637e-07 0)
(0.00304517 -7.78929e-07 0)
(0.00305016 -8.34717e-07 0)
(0.00305629 -7.88798e-07 0)
(0.00306133 -8.35001e-07 0)
(0.0030675 -7.98707e-07 0)
(0.00307258 -8.38876e-07 0)
(0.00307877 -8.06184e-07 0)
(0.00308388 -8.39619e-07 0)
(0.00309008 -8.07953e-07 0)
(0.00309521 -8.35609e-07 0)
(0.0031014 -8.05805e-07 0)
(0.00310655 -8.28418e-07 0)
(0.00311272 -8.01673e-07 0)
(0.00311787 -8.19452e-07 0)
(0.00312401 -7.9639e-07 0)
(0.00312917 -8.08987e-07 0)
(0.00313527 -7.90404e-07 0)
(0.00314042 -7.9639e-07 0)
(0.00314646 -7.83486e-07 0)
(0.00315161 -7.87683e-07 0)
(0.00315757 -7.73935e-07 0)
(0.00316273 -7.76767e-07 0)
(0.0031686 -7.64657e-07 0)
(0.00317376 -7.64613e-07 0)
(0.00317953 -7.55912e-07 0)
(0.00318469 -7.53362e-07 0)
(0.00319035 -7.46627e-07 0)
(0.0031955 -7.41427e-07 0)
(0.00320106 -7.36639e-07 0)
(0.00320619 -7.2895e-07 0)
(0.00321163 -7.26418e-07 0)
(0.00321675 -7.16248e-07 0)
(0.00322207 -7.15621e-07 0)
(0.00322717 -7.02981e-07 0)
(0.00323236 -7.02591e-07 0)
(0.00323743 -6.97597e-07 0)
(0.00324251 -6.89947e-07 0)
(0.00324754 -6.843e-07 0)
(0.00325253 -6.78037e-07 0)
(0.00325748 -6.72208e-07 0)
(0.00326238 -6.65966e-07 0)
(0.00326725 -6.59921e-07 0)
(0.00327208 -6.53694e-07 0)
(0.00327687 -6.4757e-07 0)
(0.00328161 -6.41412e-07 0)
(0.00328631 -6.35347e-07 0)
(0.00329097 -6.29262e-07 0)
(0.00329559 -6.23235e-07 0)
(0.00330017 -6.17176e-07 0)
(0.0033047 -6.11154e-07 0)
(0.00330919 -6.05107e-07 0)
(0.00331364 -5.99097e-07 0)
(0.00331804 -5.93089e-07 0)
(0.0033224 -5.87124e-07 0)
(0.00332672 -5.81181e-07 0)
(0.00333099 -5.75282e-07 0)
(0.00333523 -5.69418e-07 0)
(0.00333942 -5.636e-07 0)
(0.00334356 -5.57821e-07 0)
(0.00334767 -5.52086e-07 0)
(0.00335173 -5.46389e-07 0)
(0.00335575 -5.40734e-07 0)
(0.00335973 -5.35118e-07 0)
(0.00336367 -5.29545e-07 0)
(0.00336756 -5.24013e-07 0)
(0.00337142 -5.18528e-07 0)
(0.00337523 -5.13086e-07 0)
(0.003379 -5.07692e-07 0)
(0.00338273 -5.02343e-07 0)
(0.00338643 -4.97044e-07 0)
(0.00339008 -4.91792e-07 0)
(0.00339369 -4.86589e-07 0)
(0.00339726 -4.81436e-07 0)
(0.0034008 -4.76333e-07 0)
(0.00340429 -4.71281e-07 0)
(0.00340775 -4.66279e-07 0)
(0.00341117 -4.61327e-07 0)
(0.00341455 -4.56427e-07 0)
(0.0034179 -4.51577e-07 0)
(0.00342121 -4.46779e-07 0)
(0.00342448 -4.42031e-07 0)
(0.00342771 -4.37334e-07 0)
(0.00343091 -4.32689e-07 0)
(0.00343408 -4.28094e-07 0)
(0.00343721 -4.2355e-07 0)
(0.0034403 -4.19056e-07 0)
(0.00344336 -4.14613e-07 0)
(0.00344639 -4.10219e-07 0)
(0.00344938 -4.05875e-07 0)
(0.00345234 -4.01581e-07 0)
(0.00345526 -3.97336e-07 0)
(0.00345816 -3.93142e-07 0)
(0.00346102 -3.89002e-07 0)
(0.00346385 -3.84921e-07 0)
(0.00346665 -3.80919e-07 0)
(0.00346942 -3.76958e-07 0)
(0.00347215 -3.73025e-07 0)
(0.00347486 -3.69124e-07 0)
(0.00347754 -3.65261e-07 0)
(0.00348018 -3.61438e-07 0)
(0.0034828 -3.57658e-07 0)
(0.00348539 -3.53922e-07 0)
(0.00348795 -3.50228e-07 0)
(0.00349048 -3.46578e-07 0)
(0.00349299 -3.4297e-07 0)
(0.00349547 -3.39405e-07 0)
(0.00349792 -3.3588e-07 0)
(0.00350034 -3.32397e-07 0)
(0.00350274 -3.28955e-07 0)
(0.00350511 -3.25552e-07 0)
(0.00350745 -3.22188e-07 0)
(0.00350977 -3.18864e-07 0)
(0.00351206 -3.15578e-07 0)
(0.00351433 -3.12329e-07 0)
(0.00351657 -3.09118e-07 0)
(0.00351879 -3.05943e-07 0)
(0.00352099 -3.02804e-07 0)
(0.00352316 -2.99701e-07 0)
(0.00352531 -2.96633e-07 0)
(0.00352743 -2.93599e-07 0)
(0.00352953 -2.90599e-07 0)
(0.00353161 -2.87632e-07 0)
(0.00353367 -2.84699e-07 0)
(0.0035357 -2.81797e-07 0)
(0.00353771 -2.78927e-07 0)
(0.00353971 -2.76089e-07 0)
(0.00354167 -2.73281e-07 0)
(0.00354362 -2.70503e-07 0)
(0.00354555 -2.67755e-07 0)
(0.00354746 -2.65035e-07 0)
(0.00354934 -2.62345e-07 0)
(0.00355121 -2.59682e-07 0)
(0.00355305 -2.57047e-07 0)
(0.00355488 -2.54439e-07 0)
(0.00355668 -2.51858e-07 0)
(0.00355847 -2.49302e-07 0)
(0.00356024 -2.46771e-07 0)
(0.00356198 -2.44265e-07 0)
(0.00356371 -2.41783e-07 0)
(0.00356542 -2.39325e-07 0)
(0.00356712 -2.3689e-07 0)
(0.00356879 -2.34477e-07 0)
(0.00357045 -2.32086e-07 0)
(0.00357208 -2.29716e-07 0)
(0.0035737 -2.27365e-07 0)
(0.00357531 -2.2503e-07 0)
(0.00357689 -2.22705e-07 0)
(0.00357846 -2.20383e-07 0)
(0.00358001 -2.18041e-07 0)
(0.00358154 -2.15707e-07 0)
(0.00358306 -2.13416e-07 0)
(0.00358456 -2.11169e-07 0)
(0.00358604 -2.08956e-07 0)
(0.00358751 -2.06769e-07 0)
(0.00358896 -2.04604e-07 0)
(0.00359039 -2.02455e-07 0)
(0.00359181 -2.00322e-07 0)
(0.00359321 -1.98167e-07 0)
(0.0035946 -1.96051e-07 0)
(0.00359597 -1.93588e-07 0)
(0.00359732 -1.92482e-07 0)
(0.00359867 -1.88086e-07 0)
(0.00359999 -1.92027e-07 0)
(0.0036013 -1.81496e-07 0)
(0.00360259 -1.88539e-07 0)
(0.00360387 -1.76346e-07 0)
(0.00360514 -1.85831e-07 0)
(0.00360637 -1.70687e-07 0)
(0.00360762 -1.82545e-07 0)
(0.00360879 -1.64802e-07 0)
(0.00361006 -1.79121e-07 0)
(0.00361114 -1.57935e-07 0)
(0.00361244 -1.75931e-07 0)
(0.0036134 -1.48771e-07 0)
(0.00361479 -1.74007e-07 0)
(0.00361556 -1.35565e-07 0)
(0.00361711 -1.78102e-07 0)
(0.0036176 -1.18928e-07 0)
(0.00361949 -2.07986e-07 0)
(0.00361956 -1.10369e-07 0)
(0.0036224 -4.31174e-07 0)
(0.00362148 -9.9558e-07 0)
(1.08613e-06 -5.26533e-06 0)
(-1.30994e-05 1.24133e-05 0)
(-5.73174e-05 4.04863e-05 0)
(-0.000130436 6.40942e-05 0)
(-0.000228678 8.26148e-05 0)
(-0.000344064 9.249e-05 0)
(-0.000472036 9.83326e-05 0)
(-0.000606795 9.99867e-05 0)
(-0.000745341 9.98683e-05 0)
(-0.000885848 9.84118e-05 0)
(-0.00102577 9.67176e-05 0)
(-0.00116634 9.51607e-05 0)
(-0.00130565 9.39883e-05 0)
(-0.00144407 9.33299e-05 0)
(-0.00158132 9.30853e-05 0)
(-0.00171758 9.32255e-05 0)
(-0.00185286 9.3725e-05 0)
(-0.00198717 9.45238e-05 0)
(-0.00212062 9.5355e-05 0)
(-0.00225288 9.58599e-05 0)
(-0.00238369 9.64063e-05 0)
(-0.00251314 9.70456e-05 0)
(-0.00264124 9.76116e-05 0)
(-0.00276802 9.79966e-05 0)
(-0.00289343 9.81106e-05 0)
(-0.0030175 9.78936e-05 0)
(-0.00314023 9.72849e-05 0)
(-0.00326166 9.62713e-05 0)
(-0.00338186 9.48117e-05 0)
(-0.00350089 9.29228e-05 0)
(-0.00361882 9.05239e-05 0)
(-0.00373564 8.75354e-05 0)
(-0.00385131 8.33879e-05 0)
(-0.00396549 7.6798e-05 0)
(-0.00407808 7.18234e-05 0)
(-0.0041919 6.99678e-05 0)
(-0.00430399 6.55206e-05 0)
(-0.00441573 6.04774e-05 0)
(-0.00452656 5.57787e-05 0)
(-0.00463651 5.1572e-05 0)
(-0.00474552 4.80013e-05 0)
(-0.00485356 4.50474e-05 0)
(-0.00496057 4.28416e-05 0)
(-0.00506659 4.12846e-05 0)
(-0.00517158 4.03182e-05 0)
(-0.00527558 3.98226e-05 0)
(-0.00537862 3.97042e-05 0)
(-0.00548076 3.9893e-05 0)
(-0.00558206 4.03483e-05 0)
(-0.00568259 4.10597e-05 0)
(-0.00578243 4.204e-05 0)
(-0.00588165 4.33538e-05 0)
(-0.00598034 4.50017e-05 0)
(-0.00607853 4.7261e-05 0)
(-0.00617632 4.98761e-05 0)
(-0.00627355 5.35132e-05 0)
(-0.00637038 5.71867e-05 0)
(-0.00646637 6.08452e-05 0)
(-0.00656157 6.60814e-05 0)
(-0.00665519 7.40349e-05 0)
(-0.00674629 8.00949e-05 0)
(-0.00683708 8.45314e-05 0)
(-0.00692613 8.81637e-05 0)
(-0.00701529 9.0556e-05 0)
(-0.00710404 9.18817e-05 0)
(-0.00719269 9.23624e-05 0)
(-0.00728112 9.21974e-05 0)
(-0.00736928 9.1587e-05 0)
(-0.00745713 9.06412e-05 0)
(-0.00754461 8.94759e-05 0)
(-0.00763168 8.81196e-05 0)
(-0.00771829 8.66538e-05 0)
(-0.00780444 8.50556e-05 0)
(-0.00789007 8.33924e-05 0)
(-0.00797521 8.1617e-05 0)
(-0.0080598 7.97949e-05 0)
(-0.00814386 7.78659e-05 0)
(-0.00822734 7.59141e-05 0)
(-0.00831027 7.38306e-05 0)
(-0.00839258 7.18014e-05 0)
(-0.00847433 6.96343e-05 0)
(-0.00855541 6.75886e-05 0)
(-0.00863588 6.53819e-05 0)
(-0.00871557 6.31875e-05 0)
(-0.00879454 6.02015e-05 0)
(-0.00887268 5.62675e-05 0)
(-0.00895028 5.52689e-05 0)
(-0.00902742 5.51577e-05 0)
(-0.00910387 5.39391e-05 0)
(-0.00917917 5.34332e-05 0)
(-0.00925348 5.30542e-05 0)
(-0.00932605 5.28601e-05 0)
(-0.00939747 5.29078e-05 0)
(-0.00946674 5.64719e-05 0)
(-0.00953434 5.85545e-05 0)
(-0.00959994 6.13367e-05 0)
(-0.00966407 6.32995e-05 0)
(-0.00972539 6.64762e-05 0)
(-0.00978512 6.83674e-05 0)
(-0.00984144 7.18037e-05 0)
(-0.00989614 7.36859e-05 0)
(-0.00994625 7.72108e-05 0)
(-0.00999458 7.84946e-05 0)
(-0.010037 8.22797e-05 0)
(-0.0100782 8.22861e-05 0)
(-0.010112 8.61225e-05 0)
(-0.0101436 8.33951e-05 0)
(-0.0101669 8.60162e-05 0)
(-0.0101853 7.87464e-05 0)
(-0.0101975 7.71796e-05 0)
(-0.0102021 6.33944e-05 0)
(-0.0101985 5.09853e-05 0)
(-0.0101854 2.46242e-05 0)
(-0.010173 1.13867e-07 0)
(-0.0101687 -2.76653e-05 0)
(-0.0101534 -4.97403e-05 0)
(-0.0101361 -7.03257e-05 0)
(-0.0101025 -8.77078e-05 0)
(-0.0100679 -0.000104139 0)
(-0.0100148 -0.000118997 0)
(-0.00996223 -0.000133926 0)
(-0.00988949 -0.000147585 0)
(-0.00981884 -0.000162032 0)
(-0.00972668 -0.000174763 0)
(-0.00963843 -0.000188491 0)
(-0.00952646 -0.000199824 0)
(-0.00942186 -0.000211608 0)
(-0.0092904 -0.000220242 0)
(-0.00917123 -0.000227177 0)
(-0.00902157 -0.000229253 0)
(-0.00888852 -0.000224555 0)
(-0.00872032 -0.000208491 0)
(-0.00856933 -0.000190001 0)
(-0.00837554 -0.000144421 0)
(-0.00819825 -0.000110292 0)
(-0.00797036 -2.75576e-05 0)
(-0.00771799 -4.57912e-06 0)
(-0.00745716 3.39355e-05 0)
(-0.00718896 3.10918e-05 0)
(-0.00691647 4.88277e-05 0)
(-0.00663503 4.19688e-05 0)
(-0.00634654 4.80241e-05 0)
(-0.00604713 4.04843e-05 0)
(-0.00573691 3.80463e-05 0)
(-0.00541408 2.88473e-05 0)
(-0.00506805 1.51676e-05 0)
(-0.00472426 -6.04016e-06 0)
(-0.00431455 -4.03305e-05 0)
(-0.00397555 -0.000104622 0)
(-0.00356728 -0.000156416 0)
(-0.00326113 -0.000247989 0)
(-0.0029888 -0.000278459 0)
(-0.00266346 -0.000302815 0)
(-0.00234986 -0.000315193 0)
(-0.00200025 -0.000321618 0)
(-0.00167515 -0.000329816 0)
(-0.0013407 -0.000338876 0)
(-0.00103305 -0.000362389 0)
(-0.000662811 -0.000399324 0)
(-0.000207395 -0.000389924 0)
(0.000152288 -0.000386298 0)
(0.000555467 -0.00036761 0)
(0.000902234 -0.00035792 0)
(0.00129059 -0.000348501 0)
(0.00163143 -0.000327561 0)
(0.00199904 -0.000316103 0)
(0.00232732 -0.000297725 0)
(0.00268134 -0.000293314 0)
(0.00299943 -0.000278236 0)
(0.00334102 -0.000274963 0)
(0.00364769 -0.000259764 0)
(0.00397406 -0.000256586 0)
(0.00426802 -0.000241677 0)
(0.00457717 -0.000238344 0)
(0.0048573 -0.000224168 0)
(0.00514781 -0.000220328 0)
(0.00541318 -0.000207188 0)
(0.00568429 -0.000202372 0)
(0.00593408 -0.000191167 0)
(0.00618494 -0.000184844 0)
(0.00641833 -0.000174896 0)
(0.00664955 -0.000167912 0)
(0.00686529 -0.000158943 0)
(0.00707719 -0.000151636 0)
(0.00727497 -0.000143403 0)
(0.00746776 -0.000136105 0)
(0.00764763 -0.000128298 0)
(0.00782171 -0.000121326 0)
(0.0079839 -0.000113923 0)
(0.00813978 -0.000107285 0)
(0.00828478 -0.000100269 0)
(0.00842312 -9.40101e-05 0)
(0.00855157 -8.73797e-05 0)
(0.00867315 -8.15505e-05 0)
(0.00878581 -7.52892e-05 0)
(0.0088915 -6.99316e-05 0)
(0.00898921 -6.4003e-05 0)
(0.00907997 -5.925e-05 0)
(0.00916368 -5.36933e-05 0)
(0.00924054 -4.91378e-05 0)
(0.00931108 -4.42992e-05 0)
(0.00937511 -3.99599e-05 0)
(0.00943328 -3.56806e-05 0)
(0.00948562 -3.15697e-05 0)
(0.00953238 -2.77603e-05 0)
(0.00957392 -2.406e-05 0)
(0.00961029 -2.05951e-05 0)
(0.00964197 -1.72921e-05 0)
(0.00966896 -1.41294e-05 0)
(0.00969169 -1.13065e-05 0)
(0.0097103 -8.75507e-06 0)
(0.00972499 -6.24198e-06 0)
(0.00973603 -3.90395e-06 0)
(0.00974364 -1.71883e-06 0)
(0.00974812 7.88157e-08 0)
(0.00974963 2.26498e-06 0)
(0.00974783 4.08241e-06 0)
(0.00974316 5.92399e-06 0)
(0.00973641 7.64219e-06 0)
(0.009727 9.25798e-06 0)
(0.00971597 1.0651e-05 0)
(0.0097026 1.20008e-05 0)
(0.00968806 1.29932e-05 0)
(0.00967132 1.40366e-05 0)
(0.00965384 1.48926e-05 0)
(0.00963432 1.56669e-05 0)
(0.00961445 1.63871e-05 0)
(0.00959265 1.68912e-05 0)
(0.009571 1.74782e-05 0)
(0.00954736 1.77223e-05 0)
(0.00952434 1.82168e-05 0)
(0.00949948 1.81881e-05 0)
(0.00947547 1.86204e-05 0)
(0.0094498 1.84278e-05 0)
(0.00942513 1.87342e-05 0)
(0.00939906 1.84679e-05 0)
(0.009374 1.85774e-05 0)
(0.00934794 1.82715e-05 0)
(0.00932269 1.81678e-05 0)
(0.00929711 1.78368e-05 0)
(0.00927183 1.75376e-05 0)
(0.00924694 1.71469e-05 0)
(0.00922195 1.68001e-05 0)
(0.00919774 1.62935e-05 0)
(0.00917334 1.59667e-05 0)
(0.00914998 1.53091e-05 0)
(0.00912643 1.50483e-05 0)
(0.0091041 1.43044e-05 0)
(0.00908161 1.41234e-05 0)
(0.00906039 1.32955e-05 0)
(0.00903908 1.31365e-05 0)
(0.00901908 1.22853e-05 0)
(0.008999 1.21208e-05 0)
(0.0089803 1.12426e-05 0)
(0.00896154 1.10751e-05 0)
(0.00894422 1.01739e-05 0)
(0.00892682 1.00048e-05 0)
(0.00891092 9.08736e-06 0)
(0.00889494 8.91065e-06 0)
(0.00888051 7.98833e-06 0)
(0.00886597 7.86188e-06 0)
(0.00885302 6.89977e-06 0)
(0.00883995 6.80801e-06 0)
(0.00882848 5.80917e-06 0)
(0.00881691 5.75562e-06 0)
(0.00880691 4.75677e-06 0)
(0.00879682 4.71858e-06 0)
(0.00878828 3.74334e-06 0)
(0.00877967 3.69862e-06 0)
(0.00877255 2.75037e-06 0)
(0.00876542 2.69815e-06 0)
(0.00875968 1.77989e-06 0)
(0.00875399 1.72827e-06 0)
(0.00874962 8.27305e-07 0)
(0.00874534 8.18554e-07 0)
(0.00874229 -1.3769e-07 0)
(0.00873938 2.17183e-08 0)
(0.00873764 -1.02584e-06 0)
(0.00873602 -8.82524e-07 0)
(0.00873541 -1.85311e-06 0)
(0.0087351 -1.77441e-06 0)
(0.00873572 -2.60831e-06 0)
(0.00873669 -2.54244e-06 0)
(0.00873839 -3.34667e-06 0)
(0.00874053 -3.48085e-06 0)
(0.00874336 -4.09555e-06 0)
(0.00874657 -4.38152e-06 0)
(0.00875042 -4.72309e-06 0)
(0.00875468 -5.04666e-06 0)
(0.00875947 -5.35967e-06 0)
(0.00876474 -5.63102e-06 0)
(0.0087705 -5.93342e-06 0)
(0.00877673 -6.18409e-06 0)
(0.0087834 -6.4779e-06 0)
(0.00879047 -6.75069e-06 0)
(0.00879791 -6.97046e-06 0)
(0.00880577 -7.26265e-06 0)
(0.0088139 -7.47161e-06 0)
(0.00882258 -7.71947e-06 0)
(0.00883125 -7.9501e-06 0)
(0.00884073 -8.1204e-06 0)
(0.00884995 -8.41643e-06 0)
(0.00886015 -8.45425e-06 0)
(0.00886987 -8.80217e-06 0)
(0.00888073 -8.73777e-06 0)
(0.00889096 -9.12486e-06 0)
(0.00890242 -9.02233e-06 0)
(0.00891312 -9.4024e-06 0)
(0.00892512 -9.27818e-06 0)
(0.00893626 -9.64243e-06 0)
(0.00894873 -9.50049e-06 0)
(0.00896027 -9.84375e-06 0)
(0.00897315 -9.6906e-06 0)
(0.00898504 -1.00147e-05 0)
(0.00899827 -9.86615e-06 0)
(0.00901047 -1.01619e-05 0)
(0.00902399 -1.00361e-05 0)
(0.00903647 -1.0287e-05 0)
(0.00905024 -1.01742e-05 0)
(0.00906294 -1.0396e-05 0)
(0.00907693 -1.02663e-05 0)
(0.00908984 -1.04784e-05 0)
(0.009104 -1.03341e-05 0)
(0.00911708 -1.05223e-05 0)
(0.00913137 -1.03807e-05 0)
(0.00914458 -1.05446e-05 0)
(0.00915898 -1.04116e-05 0)
(0.00917229 -1.05505e-05 0)
(0.00918675 -1.04256e-05 0)
(0.00920013 -1.05403e-05 0)
(0.00921463 -1.04221e-05 0)
(0.00922806 -1.05136e-05 0)
(0.00924257 -1.04018e-05 0)
(0.00925602 -1.04707e-05 0)
(0.00927051 -1.03671e-05 0)
(0.00928397 -1.0409e-05 0)
(0.0092984 -1.03189e-05 0)
(0.00931185 -1.03329e-05 0)
(0.0093262 -1.02552e-05 0)
(0.00933964 -1.0252e-05 0)
(0.00935387 -1.01746e-05 0)
(0.00936729 -1.0161e-05 0)
(0.00938137 -1.00812e-05 0)
(0.00939475 -1.00548e-05 0)
(0.00940868 -9.97967e-06 0)
(0.00942201 -9.93993e-06 0)
(0.00943575 -9.86868e-06 0)
(0.00944902 -9.81754e-06 0)
(0.00946257 -9.74934e-06 0)
(0.00947577 -9.68684e-06 0)
(0.00948911 -9.62183e-06 0)
(0.00950222 -9.54803e-06 0)
(0.00951534 -9.48471e-06 0)
(0.00952834 -9.41719e-06 0)
(0.00954127 -9.34181e-06 0)
(0.00955411 -9.26944e-06 0)
(0.00956687 -9.19416e-06 0)
(0.00957953 -9.12008e-06 0)
(0.00959211 -9.04414e-06 0)
(0.00960459 -8.96868e-06 0)
(0.00961697 -8.89147e-06 0)
(0.00962927 -8.81445e-06 0)
(0.00964146 -8.73596e-06 0)
(0.00965356 -8.65762e-06 0)
(0.00966556 -8.57839e-06 0)
(0.00967745 -8.49914e-06 0)
(0.00968925 -8.41942e-06 0)
(0.00970095 -8.33964e-06 0)
(0.00971254 -8.25964e-06 0)
(0.00972404 -8.17964e-06 0)
(0.00973543 -8.09955e-06 0)
(0.00974671 -8.01954e-06 0)
(0.00975789 -7.93955e-06 0)
(0.00976897 -7.85969e-06 0)
(0.00977995 -7.77996e-06 0)
(0.00979082 -7.70043e-06 0)
(0.00980158 -7.62112e-06 0)
(0.00981225 -7.5421e-06 0)
(0.00982281 -7.4634e-06 0)
(0.00983326 -7.38505e-06 0)
(0.00984361 -7.30709e-06 0)
(0.00985386 -7.22954e-06 0)
(0.00986401 -7.15244e-06 0)
(0.00987405 -7.0758e-06 0)
(0.00988399 -6.99965e-06 0)
(0.00989383 -6.924e-06 0)
(0.00990357 -6.8489e-06 0)
(0.00991321 -6.77434e-06 0)
(0.00992275 -6.70034e-06 0)
(0.00993219 -6.62694e-06 0)
(0.00994153 -6.55413e-06 0)
(0.00995078 -6.48193e-06 0)
(0.00995992 -6.41036e-06 0)
(0.00996897 -6.33942e-06 0)
(0.00997793 -6.26913e-06 0)
(0.00998679 -6.1995e-06 0)
(0.00999555 -6.13053e-06 0)
(0.0100042 -6.06223e-06 0)
(0.0100128 -5.9946e-06 0)
(0.0100213 -5.92766e-06 0)
(0.0100297 -5.86141e-06 0)
(0.010038 -5.79584e-06 0)
(0.0100462 -5.73097e-06 0)
(0.0100543 -5.66679e-06 0)
(0.0100624 -5.60331e-06 0)
(0.0100703 -5.54052e-06 0)
(0.0100782 -5.47844e-06 0)
(0.010086 -5.41704e-06 0)
(0.0100936 -5.35635e-06 0)
(0.0101013 -5.29634e-06 0)
(0.0101088 -5.23703e-06 0)
(0.0101162 -5.17841e-06 0)
(0.0101236 -5.12047e-06 0)
(0.0101309 -5.06321e-06 0)
(0.0101381 -5.00662e-06 0)
(0.0101452 -4.9507e-06 0)
(0.0101523 -4.89544e-06 0)
(0.0101592 -4.84084e-06 0)
(0.0101661 -4.7869e-06 0)
(0.010173 -4.73361e-06 0)
(0.0101797 -4.68096e-06 0)
(0.0101864 -4.62895e-06 0)
(0.010193 -4.57758e-06 0)
(0.0101995 -4.52682e-06 0)
(0.010206 -4.47669e-06 0)
(0.0102124 -4.42716e-06 0)
(0.0102187 -4.37824e-06 0)
(0.010225 -4.32991e-06 0)
(0.0102311 -4.28217e-06 0)
(0.0102373 -4.235e-06 0)
(0.0102433 -4.18841e-06 0)
(0.0102493 -4.14239e-06 0)
(0.0102552 -4.09692e-06 0)
(0.0102611 -4.052e-06 0)
(0.0102669 -4.00762e-06 0)
(0.0102726 -3.96377e-06 0)
(0.0102783 -3.92044e-06 0)
(0.0102839 -3.87763e-06 0)
(0.0102894 -3.83532e-06 0)
(0.0102949 -3.79352e-06 0)
(0.0103004 -3.7522e-06 0)
(0.0103057 -3.71137e-06 0)
(0.0103111 -3.671e-06 0)
(0.0103163 -3.63111e-06 0)
(0.0103215 -3.59167e-06 0)
(0.0103267 -3.55267e-06 0)
(0.0103318 -3.51412e-06 0)
(0.0103368 -3.47599e-06 0)
(0.0103418 -3.43829e-06 0)
(0.0103467 -3.401e-06 0)
(0.0103516 -3.36412e-06 0)
(0.0103564 -3.32764e-06 0)
(0.0103612 -3.29154e-06 0)
(0.0103659 -3.25582e-06 0)
(0.0103706 -3.22048e-06 0)
(0.0103752 -3.1855e-06 0)
(0.0103798 -3.15087e-06 0)
(0.0103843 -3.1166e-06 0)
(0.0103888 -3.08266e-06 0)
(0.0103932 -3.04905e-06 0)
(0.0103976 -3.01577e-06 0)
(0.0104019 -2.9828e-06 0)
(0.0104062 -2.95013e-06 0)
(0.0104105 -2.91777e-06 0)
(0.0104147 -2.88571e-06 0)
(0.0104188 -2.85396e-06 0)
(0.0104229 -2.82258e-06 0)
(0.010427 -2.79152e-06 0)
(0.010431 -2.76068e-06 0)
(0.010435 -2.73003e-06 0)
(0.0104389 -2.69959e-06 0)
(0.0104428 -2.66935e-06 0)
(0.0104466 -2.63933e-06 0)
(0.0104504 -2.6095e-06 0)
(0.0104542 -2.57986e-06 0)
(0.0104579 -2.5502e-06 0)
(0.0104616 -2.52097e-06 0)
(0.0104652 -2.4897e-06 0)
(0.0104688 -2.46927e-06 0)
(0.0104723 -2.42854e-06 0)
(0.0104758 -2.41692e-06 0)
(0.0104793 -2.36769e-06 0)
(0.0104827 -2.36178e-06 0)
(0.0104861 -2.30855e-06 0)
(0.0104895 -2.30848e-06 0)
(0.0104927 -2.24826e-06 0)
(0.010496 -2.25075e-06 0)
(0.0104992 -2.19024e-06 0)
(0.0105025 -2.19177e-06 0)
(0.0105055 -2.13371e-06 0)
(0.0105088 -2.13212e-06 0)
(0.0105116 -2.07982e-06 0)
(0.0105149 -2.07313e-06 0)
(0.0105175 -2.03539e-06 0)
(0.0105209 -2.02231e-06 0)
(0.0105231 -2.02637e-06 0)
(0.0105269 -2.01565e-06 0)
(0.0105285 -2.15559e-06 0)
(0.0105329 -2.28383e-06 0)
(0.0105334 -3.27291e-06 0)
(-4.42722e-06 5.87192e-06 0)
(-4.63215e-05 5.89452e-05 0)
(-0.000133605 0.000123835 0)
(-0.000262724 0.000181793 0)
(-0.000426114 0.000227254 0)
(-0.000613921 0.000256517 0)
(-0.000818784 0.000274879 0)
(-0.00103362 0.000283357 0)
(-0.00125388 0.000286716 0)
(-0.00147649 0.000286466 0)
(-0.00169883 0.000284839 0)
(-0.00192039 0.000281959 0)
(-0.00213975 0.000278705 0)
(-0.00235706 0.000275596 0)
(-0.00257209 0.000272572 0)
(-0.00278477 0.000269477 0)
(-0.00299514 0.000266127 0)
(-0.00320304 0.000263015 0)
(-0.00340803 0.000259311 0)
(-0.00361055 0.000254874 0)
(-0.00381135 0.000250276 0)
(-0.00401005 0.000245703 0)
(-0.0042068 0.000241265 0)
(-0.00440143 0.000236992 0)
(-0.0045939 0.000233009 0)
(-0.00478419 0.000229449 0)
(-0.00497229 0.00022638 0)
(-0.00515819 0.000224 0)
(-0.00534194 0.000222273 0)
(-0.00552351 0.000221377 0)
(-0.00570297 0.000221105 0)
(-0.00588026 0.000221552 0)
(-0.00605555 0.000222116 0)
(-0.00622923 0.00022246 0)
(-0.00640188 0.000227496 0)
(-0.00657085 0.000230162 0)
(-0.00673651 0.000233262 0)
(-0.00690017 0.000236185 0)
(-0.00706171 0.000238701 0)
(-0.00722114 0.000240676 0)
(-0.00737847 0.000242079 0)
(-0.0075339 0.000242662 0)
(-0.00768743 0.000242621 0)
(-0.00783947 0.00024184 0)
(-0.00799004 0.000240459 0)
(-0.00813929 0.000238589 0)
(-0.00828717 0.000236354 0)
(-0.00843366 0.00023386 0)
(-0.00857873 0.000231178 0)
(-0.00872234 0.000228347 0)