# vtk DataFile Version 2.0
gauge_2
ASCII
DATASET POLYDATA
POINTS 43 double
0.2 0.0359992 0.005
0.2 0.0419991 0.005
0.2 0.047999 0.005
0.2 0.0607609 0.005
0.2 0.0735228 0.005
0.2 0.0862847 0.005
0.2 0.0990467 0.005
0.2 0.111809 0.005
0.2 0.124571 0.005
0.2 0.137332 0.005
0.2 0.150094 0.005
0.2 0.162856 0.005
0.2 0.175618 0.005
0.2 0.18838 0.005
0.2 0.201142 0.005
0.2 0.213904 0.005
0.2 0.226666 0.005
0.2 0.239428 0.005
0.2 0.25219 0.005
0.2 0.264952 0.005
0.2 0.277714 0.005
0.2 0.290476 0.005
0.2 0.303238 0.005
0.2 0.315999 0.005
0.2 0.328761 0.005
0.2 0.341523 0.005
0.2 0.354285 0.005
0.2 0.367047 0.005
0.2 0.379809 0.005
0.2 0.392571 0.005
0.2 0.405333 0.005
0.2 0.418095 0.005
0.2 0.430857 0.005
0.2 0.443619 0.005
0.2 0.456381 0.005
0.2 0.469143 0.005
0.2 0.481905 0.005
0.2 0.494666 0.005
0.2 0.507428 0.005
0.2 0.52019 0.005
0.2 0.532952 0.005
0.2 0.545714 0.005
0.2 0.558476 0.005
POINT_DATA 43
 FIELD attributes 1
alpha.water 1 43 float
1 1 1 1 0.998211 0.722272 0.224441 0.000380618 0.000157914 0.000467789 0.000465908 0.000155287 4.00144e-09 1.13274e-10 7.21815e-11 6.6434e-11 3.15059e-11 3.41889e-12 1.58786e-12 9.48907e-14 5.54821e-15 6.67251e-16 9.9783e-17 1.10562e-17 7.27493e-19 4.60743e-20 2.63808e-21 1.15034e-22 1.39128e-23 2.55736e-24 5.16833e-25 1.05498e-25 1.98592e-26 3.33889e-27 4.91632e-28 6.21634e-29 6.59507e-30 5.659e-31 3.62137e-32 1.5198e-33 3.72919e-35 3.74306e-37 1.13949e-40
