/*--------------------------------*- C++ -*----------------------------------*\
| =========                 |                                                 |
| \\      /  F ield         | OpenFOAM: The Open Source CFD Toolbox           |
|  \\    /   O peration     | Version:  3.0.1                                 |
|   \\  /    A nd           | Web:      www.OpenFOAM.org                      |
|    \\/     M anipulation  |                                                 |
\*---------------------------------------------------------------------------*/
FoamFile
{
    version     2.0;
    format      ascii;
    class       volScalarField;
    location    "5e-05";
    object      rho;
}
// * * * * * * * * * * * * * * * * * * * * * * * * * * * * * * * * * * * * * //

dimensions      [1 -3 0 0 0 0 0];

internalField   nonuniform List<scalar> 
1000
(
0.83124
0.83124
0.83124
0.83124
0.83124
0.83124
0.83124
0.83124
0.83124
0.83124
0.83124
0.83124
0.83124
0.83124
0.83124
0.83124
0.831239
0.831239
0.831239
0.831238
0.831238
0.831237
0.831235
0.831233
0.831229
0.831224
0.831216
0.831204
0.831187
0.831161
0.831122
0.831065
0.830981
0.830858
0.830677
0.830415
0.830034
0.829485
0.8287
0.827586
0.826023
0.823859
0.820907
0.817062
0.812144
0.805169
0.797477
0.789924
0.781903
0.790059
0.754289
0.755047
0.751371
0.743871
0.737243
0.731024
0.725725
0.721601
0.718491
0.716207
0.714559
0.713387
0.712561
0.711984
0.711584
0.711308
0.711119
0.71099
0.710902
0.710842
0.710802
0.710774
0.710756
0.710743
0.710735
0.710729
0.710725
0.710723
0.710721
0.71072
0.710719
0.710719
0.710719
0.710718
0.710718
0.710718
0.710718
0.710718
0.710718
0.710718
0.710718
0.710718
0.710718
0.710718
0.710718
0.710718
0.710718
0.710718
0.710718
0.710718
0.83124
0.83124
0.83124
0.83124
0.83124
0.83124
0.83124
0.83124
0.83124
0.83124
0.83124
0.83124
0.83124
0.83124
0.83124
0.83124
0.831239
0.831239
0.831239
0.831238
0.831238
0.831237
0.831235
0.831233
0.831229
0.831224
0.831216
0.831204
0.831187
0.83116
0.831122
0.831065
0.830981
0.830858
0.830678
0.830415
0.830035
0.829488
0.828704
0.827593
0.826034
0.823873
0.820925
0.81699
0.811849
0.805301
0.797687
0.78992
0.783766
0.781144
0.759821
0.75549
0.751118
0.744641
0.737343
0.730942
0.725667
0.721561
0.718467
0.716195
0.714554
0.713384
0.712561
0.711985
0.711585
0.71131
0.71112
0.710991
0.710902
0.710842
0.710802
0.710774
0.710756
0.710743
0.710735
0.710729
0.710725
0.710723
0.710721
0.71072
0.710719
0.710719
0.710719
0.710718
0.710718
0.710718
0.710718
0.710718
0.710718
0.710718
0.710718
0.710718
0.710718
0.710718
0.710718
0.710718
0.710718
0.710718
0.710718
0.710718
0.83124
0.83124
0.83124
0.83124
0.83124
0.83124
0.83124
0.83124
0.83124
0.83124
0.83124
0.83124
0.83124
0.83124
0.83124
0.83124
0.831239
0.831239
0.831239
0.831238
0.831238
0.831237
0.831235
0.831233
0.831229
0.831224
0.831216
0.831204
0.831186
0.83116
0.831122
0.831065
0.830981
0.830858
0.830678
0.830416
0.830037
0.829492
0.82871
0.827602
0.826044
0.823885
0.820933
0.816988
0.811839
0.805378
0.797708
0.790033
0.782118
0.788192
0.753933
0.75564
0.751756
0.744762
0.737358
0.730888
0.725609
0.721521
0.718445
0.716184
0.714551
0.713386
0.712565
0.71199
0.71159
0.711313
0.711123
0.710993
0.710904
0.710843
0.710802
0.710775
0.710756
0.710743
0.710735
0.710729
0.710726
0.710723
0.710721
0.71072
0.710719
0.710719
0.710719
0.710718
0.710718
0.710718
0.710718
0.710718
0.710718
0.710718
0.710718
0.710718
0.710718
0.710718
0.710718
0.710718
0.710718
0.710718
0.710718
0.710718
0.83124
0.83124
0.83124
0.83124
0.83124
0.83124
0.83124
0.83124
0.83124
0.83124
0.83124
0.83124
0.83124
0.83124
0.83124
0.83124
0.831239
0.831239
0.831239
0.831238
0.831238
0.831237
0.831235
0.831233
0.831229
0.831224
0.831216
0.831204
0.831186
0.83116
0.831121
0.831064
0.83098
0.830857
0.830678
0.830416
0.830038
0.829497
0.828719
0.827614
0.826073
0.823907
0.820927
0.816976
0.811822
0.805411
0.797774
0.790041
0.783869
0.780994
0.759839
0.755551
0.751374
0.744547
0.737186
0.730749
0.725536
0.721507
0.718436
0.716184
0.714554
0.713391
0.712574
0.711996
0.711594
0.711315
0.711125
0.710995
0.710905
0.710844
0.710803
0.710775
0.710756
0.710744
0.710735
0.710729
0.710726
0.710723
0.710721
0.71072
0.710719
0.710719
0.710719
0.710718
0.710718
0.710718
0.710718
0.710718
0.710718
0.710718
0.710718
0.710718
0.710718
0.710718
0.710718
0.710718
0.710718
0.710718
0.710718
0.710718
0.83124
0.83124
0.83124
0.83124
0.83124
0.83124
0.83124
0.83124
0.83124
0.83124
0.83124
0.83124
0.83124
0.83124
0.83124
0.83124
0.831239
0.831239
0.831239
0.831238
0.831238
0.831237
0.831235
0.831233
0.831229
0.831224
0.831216
0.831204
0.831186
0.83116
0.831122
0.831064
0.830977
0.830856
0.830682
0.830418
0.830033
0.829515
0.828732
0.827597
0.826141
0.823958
0.820849
0.816938
0.811851
0.805417
0.797788
0.790067
0.783925
0.780899
0.759981
0.755752
0.751964
0.744513
0.736954
0.730401
0.72526
0.721548
0.71844
0.716168
0.714531
0.713373
0.712592
0.712002
0.711596
0.711316
0.711124
0.710998
0.710906
0.710845
0.710803
0.710775
0.710757
0.710744
0.710735
0.710729
0.710726
0.710723
0.710721
0.71072
0.710719
0.710719
0.710719
0.710718
0.710718
0.710718
0.710718
0.710718
0.710718
0.710718
0.710718
0.710718
0.710718
0.710718
0.710718
0.710718
0.710718
0.710718
0.710718
0.710718
0.83124
0.83124
0.83124
0.83124
0.83124
0.83124
0.83124
0.83124
0.83124
0.83124
0.83124
0.83124
0.83124
0.83124
0.83124
0.83124
0.831239
0.831239
0.831239
0.831238
0.831238
0.831237
0.831235
0.831233
0.831229
0.831224
0.831216
0.831204
0.831186
0.83116
0.831122
0.831065
0.830978
0.830857
0.830678
0.830416
0.83004
0.829519
0.828731
0.827598
0.826138
0.82396
0.820846
0.816941
0.811859
0.805427
0.797802
0.790086
0.783958
0.780935
0.759988
0.755517
0.75165
0.745145
0.737098
0.730193
0.72512
0.721466
0.71851
0.716157
0.714504
0.713382
0.712578
0.712007
0.711593
0.711311
0.711124
0.710995
0.710907
0.710844
0.710802
0.710775
0.710756
0.710744
0.710735
0.710729
0.710726
0.710723
0.710721
0.71072
0.710719
0.710719
0.710719
0.710718
0.710718
0.710718
0.710718
0.710718
0.710718
0.710718
0.710718
0.710718
0.710718
0.710718
0.710718
0.710718
0.710718
0.710718
0.710718
0.710718
0.83124
0.83124
0.83124
0.83124
0.83124
0.83124
0.83124
0.83124
0.83124
0.83124
0.83124
0.83124
0.83124
0.83124
0.83124
0.83124
0.831239
0.831239
0.831239
0.831238
0.831238
0.831237
0.831235
0.831233
0.831229
0.831224
0.831216
0.831204
0.831186
0.83116
0.831122
0.831065
0.830981
0.830858
0.830679
0.830419
0.830044
0.829503
0.828725
0.827622
0.826082
0.823918
0.820944
0.816998
0.811867
0.80543
0.797727
0.789898
0.784174
0.781073
0.75983
0.755173
0.751449
0.744729
0.737263
0.730678
0.725422
0.721446
0.71842
0.716162
0.714532
0.713379
0.712563
0.71199
0.711588
0.711311
0.711122
0.710992
0.710904
0.710843
0.710802
0.710775
0.710756
0.710743
0.710735
0.710729
0.710726
0.710723
0.710721
0.71072
0.710719
0.710719
0.710719
0.710718
0.710718
0.710718
0.710718
0.710718
0.710718
0.710718
0.710718
0.710718
0.710718
0.710718
0.710718
0.710718
0.710718
0.710718
0.710718
0.710718
0.83124
0.83124
0.83124
0.83124
0.83124
0.83124
0.83124
0.83124
0.83124
0.83124
0.83124
0.83124
0.83124
0.83124
0.83124
0.83124
0.831239
0.831239
0.831239
0.831238
0.831238
0.831237
0.831235
0.831233
0.831229
0.831224
0.831216
0.831204
0.831187
0.831161
0.831123
0.831066
0.830982
0.83086
0.830681
0.830421
0.830045
0.829502
0.828724
0.82762
0.826067
0.823912
0.820963
0.81702
0.81188
0.805434
0.797778
0.790093
0.782172
0.788189
0.753985
0.755614
0.751757
0.744765
0.737321
0.730817
0.72553
0.721455
0.718392
0.716144
0.714519
0.713362
0.712547
0.711976
0.71158
0.711306
0.711118
0.710989
0.710901
0.710842
0.710801
0.710774
0.710756
0.710743
0.710735
0.710729
0.710725
0.710723
0.710721
0.71072
0.710719
0.710719
0.710719
0.710718
0.710718
0.710718
0.710718
0.710718
0.710718
0.710718
0.710718
0.710718
0.710718
0.710718
0.710718
0.710718
0.710718
0.710718
0.710718
0.710718
0.83124
0.83124
0.83124
0.83124
0.83124
0.83124
0.83124
0.83124
0.83124
0.83124
0.83124
0.83124
0.83124
0.83124
0.83124
0.83124
0.831239
0.831239
0.831239
0.831238
0.831238
0.831237
0.831235
0.831233
0.831229
0.831224
0.831216
0.831205
0.831187
0.831161
0.831123
0.831067
0.830984
0.830862
0.830683
0.830423
0.830047
0.829504
0.828726
0.827622
0.82607
0.823914
0.820968
0.817019
0.811859
0.805398
0.797831
0.790021
0.78382
0.781016
0.759619
0.755403
0.751232
0.744726
0.737347
0.730847
0.725547
0.721448
0.718373
0.716123
0.7145
0.713346
0.712534
0.711966
0.711572
0.711301
0.711114
0.710986
0.710899
0.71084
0.7108
0.710773
0.710755
0.710743
0.710735
0.710729
0.710725
0.710723
0.710721
0.71072
0.710719
0.710719
0.710719
0.710718
0.710718
0.710718
0.710718
0.710718
0.710718
0.710718
0.710718
0.710718
0.710718
0.710718
0.710718
0.710718
0.710718
0.710718
0.710718
0.710718
0.83124
0.83124
0.83124
0.83124
0.83124
0.83124
0.83124
0.83124
0.83124
0.83124
0.83124
0.83124
0.83124
0.83124
0.83124
0.83124
0.831239
0.831239
0.831239
0.831238
0.831238
0.831237
0.831235
0.831233
0.831229
0.831224
0.831216
0.831205
0.831187
0.831162
0.831123
0.831067
0.830984
0.830862
0.830684
0.830424
0.830048
0.829505
0.828727
0.827623
0.826071
0.823916
0.820967
0.817018
0.811873
0.805443
0.797872
0.79003
0.782083
0.788321
0.7538
0.755513
0.751788
0.744841
0.737394
0.730866
0.725554
0.721444
0.718367
0.716114
0.714492
0.713339
0.712527
0.711961
0.711568
0.711298
0.711112
0.710985
0.710898
0.71084
0.7108
0.710773
0.710755
0.710743
0.710734
0.710729
0.710725
0.710723
0.710721
0.71072
0.710719
0.710719
0.710719
0.710718
0.710718
0.710718
0.710718
0.710718
0.710718
0.710718
0.710718
0.710718
0.710718
0.710718
0.710718
0.710718
0.710718
0.710718
0.710718
0.710718
)
;

boundaryField
{
    sides1
    {
        type            calculated;
        value           nonuniform List<scalar> 
20
(
0.710718
0.710718
0.710718
0.710718
0.710718
0.710718
0.710718
0.710718
0.710718
0.710718
0.83124
0.83124
0.83124
0.83124
0.83124
0.83124
0.83124
0.83124
0.83124
0.83124
)
;
    }
    sides2
    {
        type            calculated;
        value           nonuniform List<scalar> 
200
(
0.83124
0.83124
0.83124
0.83124
0.83124
0.83124
0.83124
0.83124
0.83124
0.83124
0.83124
0.83124
0.83124
0.83124
0.83124
0.83124
0.831239
0.831239
0.831239
0.831238
0.831238
0.831237
0.831235
0.831233
0.831229
0.831224
0.831216
0.831204
0.831187
0.831161
0.831122
0.831065
0.830981
0.830858
0.830677
0.830415
0.830034
0.829485
0.8287
0.827586
0.826023
0.823859
0.820907
0.817062
0.812144
0.805169
0.797477
0.789924
0.781903
0.790059
0.754289
0.755047
0.751371
0.743871
0.737243
0.731024
0.725725
0.721601
0.718491
0.716207
0.714559
0.713387
0.712561
0.711984
0.711584
0.711308
0.711119
0.71099
0.710902
0.710842
0.710802
0.710774
0.710756
0.710743
0.710735
0.710729
0.710725
0.710723
0.710721
0.71072
0.710719
0.710719
0.710719
0.710718
0.710718
0.710718
0.710718
0.710718
0.710718
0.710718
0.710718
0.710718
0.710718
0.710718
0.710718
0.710718
0.710718
0.710718
0.710718
0.710718
0.83124
0.83124
0.83124
0.83124
0.83124
0.83124
0.83124
0.83124
0.83124
0.83124
0.83124
0.83124
0.83124
0.83124
0.83124
0.83124
0.831239
0.831239
0.831239
0.831238
0.831238
0.831237
0.831235
0.831233
0.831229
0.831224
0.831216
0.831205
0.831187
0.831162
0.831123
0.831067
0.830984
0.830862
0.830684
0.830424
0.830048
0.829505
0.828727
0.827623
0.826071
0.823916
0.820967
0.817018
0.811873
0.805443
0.797872
0.79003
0.782083
0.788321
0.7538
0.755513
0.751788
0.744841
0.737394
0.730866
0.725554
0.721444
0.718367
0.716114
0.714492
0.713339
0.712527
0.711961
0.711568
0.711298
0.711112
0.710985
0.710898
0.71084
0.7108
0.710773
0.710755
0.710743
0.710734
0.710729
0.710725
0.710723
0.710721
0.71072
0.710719
0.710719
0.710719
0.710718
0.710718
0.710718
0.710718
0.710718
0.710718
0.710718
0.710718
0.710718
0.710718
0.710718
0.710718
0.710718
0.710718
0.710718
0.710718
0.710718
)
;
    }
    empty
    {
        type            empty;
    }
}


// ************************************************************************* //
