/*--------------------------------*- C++ -*----------------------------------*\
| =========                 |                                                 |
| \\      /  F ield         | OpenFOAM: The Open Source CFD Toolbox           |
|  \\    /   O peration     | Version:  3.0.1                                 |
|   \\  /    A nd           | Web:      www.OpenFOAM.org                      |
|    \\/     M anipulation  |                                                 |
\*---------------------------------------------------------------------------*/
FoamFile
{
    version     2.0;
    format      ascii;
    class       volScalarField;
    location    "5e-05";
    object      T;
}
// * * * * * * * * * * * * * * * * * * * * * * * * * * * * * * * * * * * * * //

dimensions      [0 0 0 1 0 0 0];

internalField   nonuniform List<scalar> 
1000
(
289
289
289
289
289
289
289
289
289
289
289
289
289
289
289
289
289
289
289
289
289
289
289
289
289
289
289
289
289
289
288.999
288.999
288.998
288.998
288.996
288.993
288.989
288.983
288.972
288.954
288.926
288.879
288.803
288.677
288.477
288.217
287.669
286.825
286.436
279.295
295.484
292.792
291.471
290.695
289.993
289.612
289.376
289.231
289.142
289.087
289.054
289.033
289.02
289.013
289.008
289.005
289.003
289.002
289.001
289.001
289
289
289
289
289
289
289
289
289
289
289
289
289
289
289
289
289
289
289
289
289
289
289
289
289
289
289
289
289
289
289
289
289
289
289
289
289
289
289
289
289
289
289
289
289
289
289
289
289
289
289
289
289
289
289
289
289
289
289
289
288.999
288.999
288.998
288.998
288.996
288.994
288.99
288.983
288.972
288.955
288.928
288.883
288.81
288.693
288.505
288.205
287.658
286.838
285.731
283.694
292.424
292.65
291.518
290.486
289.941
289.583
289.362
289.224
289.139
289.086
289.053
289.033
289.02
289.013
289.008
289.005
289.003
289.002
289.001
289.001
289
289
289
289
289
289
289
289
289
289
289
289
289
289
289
289
289
289
289
289
289
289
289
289
289
289
289
289
289
289
289
289
289
289
289
289
289
289
289
289
289
289
289
289
289
289
289
289
289
289
289
289
289
289
289
289
289
289
289
289
288.999
288.999
288.998
288.997
288.996
288.993
288.989
288.983
288.973
288.956
288.929
288.884
288.813
288.694
288.504
288.199
287.716
286.812
286.412
279.476
295.689
292.688
291.347
290.491
289.938
289.583
289.36
289.222
289.139
289.086
289.054
289.033
289.021
289.013
289.008
289.005
289.003
289.002
289.001
289.001
289
289
289
289
289
289
289
289
289
289
289
289
289
289
289
289
289
289
289
289
289
289
289
289
289
289
289
289
289
289
289
289
289
289
289
289
289
289
289
289
289
289
289
289
289
289
289
289
289
289
289
289
289
289
289
289
289
289
289
289
288.999
288.999
288.998
288.997
288.996
288.993
288.989
288.983
288.972
288.955
288.928
288.885
288.815
288.697
288.512
288.183
287.677
286.839
285.754
283.706
292.436
292.656
291.422
290.511
289.942
289.588
289.369
289.231
289.144
289.09
289.057
289.036
289.022
289.014
289.009
289.006
289.003
289.002
289.001
289.001
289.001
289
289
289
289
289
289
289
289
289
289
289
289
289
289
289
289
289
289
289
289
289
289
289
289
289
289
289
289
289
289
289
289
289
289
289
289
289
289
289
289
289
289
289
289
289
289
289
289
289
289
289
289
289
289
289
289
289
289
289
288.999
288.999
288.998
288.997
288.995
288.992
288.988
288.98
288.97
288.954
288.922
288.883
288.824
288.702
288.508
288.189
287.676
286.836
285.75
283.692
292.406
292.644
291.325
290.475
289.97
289.631
289.422
289.246
289.158
289.101
289.066
289.043
289.025
289.016
289.01
289.006
289.004
289.002
289.002
289.001
289.001
289
289
289
289
289
289
289
289
289
289
289
289
289
289
289
289
289
289
289
289
289
289
289
289
289
289
289
289
289
289
289
289
289
289
289
289
289
289
289
289
289
289
289
289
289
289
289
289
289
289
289
289
289
289
289
289
289
289
289
288.999
288.999
288.998
288.997
288.995
288.993
288.988
288.98
288.97
288.954
288.922
288.883
288.824
288.702
288.508
288.19
287.677
286.839
285.753
283.701
292.424
292.637
291.38
290.435
289.932
289.639
289.426
289.255
289.151
289.099
289.066
289.04
289.024
289.014
289.009
289.006
289.004
289.002
289.001
289.001
289.001
289
289
289
289
289
289
289
289
289
289
289
289
289
289
289
289
289
289
289
289
289
289
289
289
289
289
289
289
289
289
289
289
289
289
289
289
289
289
289
289
289
289
289
289
289
289
289
289
289
289
289
289
289
289
289
289
289
289
289
288.999
288.999
288.998
288.997
288.996
288.993
288.989
288.983
288.972
288.956
288.928
288.885
288.815
288.697
288.506
288.196
287.72
286.926
285.618
283.717
292.442
292.805
291.341
290.464
289.917
289.58
289.37
289.23
289.143
289.089
289.056
289.035
289.022
289.014
289.009
289.005
289.003
289.002
289.001
289.001
289.001
289
289
289
289
289
289
289
289
289
289
289
289
289
289
289
289
289
289
289
289
289
289
289
289
289
289
289
289
289
289
289
289
289
289
289
289
289
289
289
289
289
289
289
289
289
289
289
289
289
289
289
289
289
289
289
289
289
289
289
288.999
288.999
288.998
288.998
288.996
288.994
288.99
288.983
288.973
288.956
288.929
288.885
288.814
288.695
288.506
288.202
287.719
286.817
286.417
279.486
295.697
292.692
291.347
290.488
289.933
289.579
289.357
289.22
289.137
289.085
289.053
289.033
289.02
289.013
289.008
289.005
289.003
289.002
289.001
289.001
289
289
289
289
289
289
289
289
289
289
289
289
289
289
289
289
289
289
289
289
289
289
289
289
289
289
289
289
289
289
289
289
289
289
289
289
289
289
289
289
289
289
289
289
289
289
289
289
289
289
289
289
289
289
289
289
289
289
289
289
288.999
288.999
288.999
288.998
288.996
288.994
288.99
288.983
288.973
288.956
288.929
288.885
288.813
288.697
288.513
288.208
287.663
286.848
285.747
283.717
292.452
292.68
291.488
290.473
289.917
289.568
289.353
289.217
289.135
289.083
289.052
289.032
289.02
289.012
289.008
289.005
289.003
289.002
289.001
289.001
289
289
289
289
289
289
289
289
289
289
289
289
289
289
289
289
289
289
289
289
289
289
289
289
289
289
289
289
289
289
289
289
289
289
289
289
289
289
289
289
289
289
289
289
289
289
289
289
289
289
289
289
289
289
289
289
289
289
289
289
288.999
288.999
288.999
288.998
288.996
288.994
288.99
288.983
288.973
288.956
288.929
288.885
288.814
288.698
288.509
288.196
287.671
286.846
286.441
279.489
295.691
292.732
291.355
290.475
289.917
289.568
289.351
289.217
289.134
289.083
289.051
289.032
289.019
289.012
289.007
289.005
289.003
289.002
289.001
289.001
289
289
289
289
289
289
289
289
289
289
289
289
289
289
289
289
289
289
289
289
289
289
289
289
289
289
289
289
289
289
)
;

boundaryField
{
    sides1
    {
        type            zeroGradient;
    }
    sides2
    {
        type            slip;
    }
    empty
    {
        type            empty;
    }
}


// ************************************************************************* //
