/*--------------------------------*- C++ -*----------------------------------*\
| =========                 |                                                 |
| \\      /  F ield         | OpenFOAM: The Open Source CFD Toolbox           |
|  \\    /   O peration     | Version:  3.0.1                                 |
|   \\  /    A nd           | Web:      www.OpenFOAM.org                      |
|    \\/     M anipulation  |                                                 |
\*---------------------------------------------------------------------------*/
FoamFile
{
    version     2.0;
    format      ascii;
    class       volVectorField;
    location    "5e-05";
    object      U;
}
// * * * * * * * * * * * * * * * * * * * * * * * * * * * * * * * * * * * * * //

dimensions      [0 1 -1 0 0 0 0];

internalField   nonuniform List<vector> 
1000
(
(1.80729e-08 -5.77894e-10 0)
(1.93709e-07 -5.96213e-10 0)
(3.62918e-07 -6.17598e-10 0)
(5.93955e-07 -7.02552e-10 0)
(9.30401e-07 -8.82387e-10 0)
(1.43084e-06 -9.41286e-10 0)
(2.18314e-06 -8.52536e-10 0)
(3.31986e-06 -4.97976e-10 0)
(5.03949e-06 -2.05014e-10 0)
(7.64205e-06 -4.89728e-10 0)
(1.16016e-05 -1.27818e-09 0)
(1.72853e-05 -2.63592e-09 0)
(2.66489e-05 5.94521e-08 0)
(4.04764e-05 -7.10854e-08 0)
(6.00081e-05 3.84621e-08 0)
(9.16792e-05 4.44901e-08 0)
(0.000138244 6.25842e-08 0)
(0.000208604 9.74992e-08 0)
(0.000314619 1.54913e-07 0)
(0.000474195 2.47485e-07 0)
(0.000714182 3.93568e-07 0)
(0.00107475 6.15255e-07 0)
(0.00161595 9.48788e-07 0)
(0.0024275 1.43627e-06 0)
(0.00364309 2.12454e-06 0)
(0.00546167 3.06653e-06 0)
(0.00817877 4.29298e-06 0)
(0.0122326 5.77453e-06 0)
(0.0182713 7.3615e-06 0)
(0.0272511 8.67435e-06 0)
(0.0405793 8.84435e-06 0)
(0.0603132 6.57509e-06 0)
(0.0894574 2.29999e-06 0)
(0.132389 -1.69377e-05 0)
(0.195425 -9.45477e-05 0)
(0.287624 -0.000168993 0)
(0.421895 -0.000355987 0)
(0.616473 -0.000659472 0)
(0.89672 -0.00123484 0)
(1.29739 -0.00228968 0)
(1.86519 -0.00431729 0)
(2.67133 -0.0081256 0)
(3.7524 -0.016714 0)
(5.19638 -0.0186159 0)
(7.12306 -0.0126192 0)
(9.83253 0.0340203 0)
(13.3059 -0.00695495 0)
(16.2791 -0.0151794 0)
(22.8741 -0.030455 0)
(15.3798 -0.856876 0)
(14.2001 0.33559 0)
(20.9428 0.213606 0)
(17.7797 0.0308509 0)
(14.7644 0.195408 0)
(11.6958 0.113388 0)
(8.71585 0.0775734 0)
(6.43882 0.0370531 0)
(4.5958 0.019781 0)
(3.25602 0.0106136 0)
(2.28188 0.00563859 0)
(1.58701 0.00276675 0)
(1.09673 0.00126504 0)
(0.753866 0.0002708 0)
(0.515946 -2.46078e-05 0)
(0.351801 -7.20167e-05 0)
(0.239087 -9.87309e-05 0)
(0.162012 -9.86542e-05 0)
(0.109571 -8.64601e-05 0)
(0.0739216 -7.74911e-05 0)
(0.0493598 -5.31238e-05 0)
(0.0337029 -1.59973e-05 0)
(0.0225032 -5.07322e-05 0)
(0.0148575 -5.81612e-06 0)
(0.0101024 -4.91056e-06 0)
(0.00674917 -5.07406e-06 0)
(0.00450285 -4.12205e-06 0)
(0.0030033 -3.09992e-06 0)
(0.00200166 -2.22072e-06 0)
(0.00133416 -1.59933e-06 0)
(0.000878374 -1.15772e-06 0)
(0.000594833 -1.53337e-07 0)
(0.000393574 -1.08631e-06 0)
(0.000256753 -2.13429e-07 0)
(0.000173062 -1.37706e-07 0)
(0.000114575 -1.03683e-07 0)
(7.59172e-05 -7.37651e-08 0)
(5.02973e-05 -5.03615e-08 0)
(3.33083e-05 -3.39284e-08 0)
(2.20472e-05 -2.24248e-08 0)
(1.45856e-05 -1.45471e-08 0)
(9.64365e-06 -9.27333e-09 0)
(6.37149e-06 -5.86988e-09 0)
(4.20497e-06 -3.66034e-09 0)
(2.76974e-06 -2.23365e-09 0)
(1.81744e-06 -1.31431e-09 0)
(1.18282e-06 -7.59845e-10 0)
(7.55545e-07 -4.19722e-10 0)
(4.61878e-07 -2.35598e-10 0)
(2.47771e-07 -1.72259e-10 0)
(2.32744e-08 -2.30263e-10 0)
(1.80708e-08 -1.8155e-09 0)
(1.93714e-07 -1.75171e-09 0)
(3.62885e-07 -1.67274e-09 0)
(5.93822e-07 -1.52867e-09 0)
(9.30344e-07 -1.11448e-09 0)
(1.43093e-06 -7.08756e-10 0)
(2.18394e-06 -1.30643e-10 0)
(3.3215e-06 9.66903e-10 0)
(5.04122e-06 2.74044e-09 0)
(7.64235e-06 6.57083e-09 0)
(1.15751e-05 1.1672e-08 0)
(1.75053e-05 2.71144e-08 0)
(2.65855e-05 1.94894e-07 0)
(4.0221e-05 -2.38631e-08 0)
(6.06224e-05 2.50296e-07 0)
(9.17215e-05 3.56327e-07 0)
(0.000138523 5.33924e-07 0)
(0.000209073 8.33262e-07 0)
(0.000315365 1.31535e-06 0)
(0.000475388 2.10393e-06 0)
(0.000716103 3.45293e-06 0)
(0.00107776 5.33005e-06 0)
(0.00162042 8.24326e-06 0)
(0.00243404 1.27982e-05 0)
(0.00365263 1.94102e-05 0)
(0.00547506 2.8945e-05 0)
(0.00819663 4.21751e-05 0)
(0.0122549 5.96326e-05 0)
(0.0182965 8.13055e-05 0)
(0.0272749 0.000106534 0)
(0.0405902 0.000135132 0)
(0.060293 0.000143994 0)
(0.0893723 0.000105931 0)
(0.132182 2.18207e-05 0)
(0.195036 -7.987e-05 0)
(0.286825 -0.000504063 0)
(0.420271 -0.00137102 0)
(0.613558 -0.00262119 0)
(0.891652 -0.00494755 0)
(1.28853 -0.00896172 0)
(1.84993 -0.0150833 0)
(2.63671 -0.0252725 0)
(3.72078 -0.0417628 0)
(5.1969 -0.0408355 0)
(7.20908 -0.0277859 0)
(9.92473 -0.00263628 0)
(13.1493 -0.104416 0)
(16.5703 -0.058221 0)
(20.831 -0.136249 0)
(15.9992 0.120772 0)
(17.2424 -0.3595 0)
(19.6937 0.114112 0)
(18.3467 -0.0155677 0)
(14.8267 0.222841 0)
(11.4546 0.212706 0)
(8.56225 0.170446 0)
(6.28876 0.103849 0)
(4.5265 0.0628456 0)
(3.21565 0.0299299 0)
(2.26101 0.0127049 0)
(1.5767 0.00446613 0)
(1.09165 0.000951919 0)
(0.751251 -0.000288863 0)
(0.514865 -0.00125175 0)
(0.351517 -0.00160086 0)
(0.23918 -0.00154993 0)
(0.162264 -0.00127416 0)
(0.109792 -0.000986277 0)
(0.0741339 -0.000774718 0)
(0.0498936 -0.00055017 0)
(0.0336403 -0.000202089 0)
(0.0225727 -0.000342899 0)
(0.0150754 -0.000140485 0)
(0.0101042 -8.87908e-05 0)
(0.00676174 -6.5699e-05 0)
(0.00451949 -4.66097e-05 0)
(0.00301653 -3.22261e-05 0)
(0.00201099 -2.18839e-05 0)
(0.0013393 -1.51366e-05 0)
(0.000889987 -1.02473e-05 0)
(0.000593358 -2.86002e-06 0)
(0.000394002 -5.79274e-06 0)
(0.000260752 -2.39368e-06 0)
(0.00017331 -1.62255e-06 0)
(0.000114992 -1.09057e-06 0)
(7.62491e-05 -7.44171e-07 0)
(5.05287e-05 -4.92002e-07 0)
(3.34698e-05 -3.2699e-07 0)
(2.21565e-05 -2.16734e-07 0)
(1.46572e-05 -1.40157e-07 0)
(9.6905e-06 -9.04559e-08 0)
(6.40239e-06 -5.83806e-08 0)
(4.22524e-06 -3.71887e-08 0)
(2.78267e-06 -2.37308e-08 0)
(1.82561e-06 -1.45556e-08 0)
(1.18791e-06 -9.17981e-09 0)
(7.5859e-07 -5.59207e-09 0)
(4.63536e-07 -3.54673e-09 0)
(2.47775e-07 -2.65615e-09 0)
(2.31668e-08 -2.49016e-09 0)
(1.81027e-08 -7.30797e-10 0)
(1.93935e-07 -6.86496e-10 0)
(3.63198e-07 -5.45708e-10 0)
(5.94506e-07 -2.33552e-10 0)
(9.31704e-07 2.961e-10 0)
(1.43369e-06 1.72653e-09 0)
(2.18866e-06 4.28297e-09 0)
(3.32874e-06 8.28977e-09 0)
(5.05306e-06 1.46193e-08 0)
(7.6622e-06 2.41492e-08 0)
(1.16104e-05 3.92957e-08 0)
(1.75855e-05 6.09724e-08 0)
(2.66417e-05 7.60256e-08 0)
(4.03138e-05 1.72424e-07 0)
(6.09057e-05 2.66723e-07 0)
(9.20321e-05 4.50853e-07 0)
(0.000139034 6.73968e-07 0)
(0.000209877 1.03957e-06 0)
(0.00031661 1.56948e-06 0)
(0.000477371 2.31532e-06 0)
(0.000719486 3.65954e-06 0)
(0.00108335 7.16112e-06 0)
(0.0016287 1.10162e-05 0)
(0.00244648 1.78201e-05 0)
(0.00367201 2.73727e-05 0)
(0.00550396 4.26198e-05 0)
(0.00823808 6.54132e-05 0)
(0.0123119 9.76682e-05 0)
(0.0183711 0.000139975 0)
(0.0273705 0.000193105 0)
(0.0407166 0.000278992 0)
(0.0604287 0.000385861 0)
(0.0894259 0.000531253 0)
(0.132062 0.00053971 0)
(0.194688 0.000392643 0)
(0.285933 0.000314571 0)
(0.418459 6.51407e-05 0)
(0.611096 -0.00137221 0)
(0.888084 -0.00283861 0)
(1.28312 -0.00554823 0)
(1.8421 -0.0073494 0)
(2.6271 -0.00991819 0)
(3.71904 -0.00687926 0)
(5.21015 -0.00690182 0)
(7.20391 -0.00659887 0)
(9.83104 -0.00653463 0)
(13.1608 -0.0178847 0)
(16.1114 -0.0378705 0)
(23.5723 -0.043635 0)
(14.7104 0.0185656 0)
(14.9118 -0.0165297 0)
(21.5384 0.000577396 0)
(18.0808 0.0388025 0)
(14.9597 0.0388092 0)
(11.5165 0.0227844 0)
(8.55283 0.0340439 0)
(6.25243 0.0226025 0)
(4.48795 0.00117048 0)
(3.19106 -0.00151109 0)
(2.24855 -0.00341022 0)
(1.56942 -0.00641942 0)
(1.08832 -0.00798013 0)
(0.750875 -0.00738581 0)
(0.516054 -0.00616353 0)
(0.353101 -0.00465492 0)
(0.240573 -0.00323847 0)
(0.163359 -0.00254796 0)
(0.110651 -0.00178051 0)
(0.0748104 -0.00125538 0)
(0.0504482 -0.0008459 0)
(0.0339508 -0.000613218 0)
(0.0227868 -0.000397055 0)
(0.0152744 -0.000288214 0)
(0.0102341 -0.00018406 0)
(0.00684403 -0.000118822 0)
(0.00457234 -7.64962e-05 0)
(0.00304995 -4.73798e-05 0)
(0.00203217 -3.06355e-05 0)
(0.00135339 -2.21564e-05 0)
(0.000900648 -1.35725e-05 0)
(0.000598701 -8.9577e-06 0)
(0.000397522 -6.07153e-06 0)
(0.000264011 -4.19286e-06 0)
(0.000175173 -2.51336e-06 0)
(0.000116156 -1.73217e-06 0)
(7.69992e-05 -1.02314e-06 0)
(5.10127e-05 -7.60138e-07 0)
(3.38049e-05 -4.59965e-07 0)
(2.23745e-05 -3.10734e-07 0)
(1.47932e-05 -1.85008e-07 0)
(9.77938e-06 -1.32395e-07 0)
(6.4627e-06 -8.74378e-08 0)
(4.26546e-06 -5.13934e-08 0)
(2.80756e-06 -3.24197e-08 0)
(1.84173e-06 -2.31528e-08 0)
(1.19813e-06 -1.29264e-08 0)
(7.64542e-07 -9.73548e-09 0)
(4.67448e-07 -6.55926e-09 0)
(2.50013e-07 -4.13367e-09 0)
(2.33768e-08 -3.46324e-09 0)
(1.80994e-08 -6.02928e-10 0)
(1.94029e-07 -5.54174e-10 0)
(3.63588e-07 -4.3353e-10 0)
(5.95305e-07 -1.7385e-10 0)
(9.3324e-07 3.80032e-10 0)
(1.43648e-06 9.73837e-10 0)
(2.19345e-06 2.66745e-09 0)
(3.33679e-06 5.94659e-09 0)
(5.06621e-06 1.18841e-08 0)
(7.68265e-06 2.24523e-08 0)
(1.16387e-05 4.12281e-08 0)
(1.76006e-05 6.78563e-08 0)
(2.67072e-05 1.38373e-08 0)
(4.05508e-05 8.92186e-08 0)
(6.11442e-05 3.95755e-07 0)
(9.22901e-05 2.32497e-07 0)
(0.000139611 5.56235e-07 0)
(0.000210741 1.03311e-06 0)
(0.000317784 1.80253e-06 0)
(0.000478313 2.81016e-06 0)
(0.000722375 1.66658e-06 0)
(0.00109175 3.62154e-06 0)
(0.00163825 1.32237e-05 0)
(0.0024589 1.18624e-05 0)
(0.00369668 2.38672e-05 0)
(0.00554319 4.38208e-05 0)
(0.00829849 7.66803e-05 0)
(0.0124021 0.000132492 0)
(0.0184951 0.000228838 0)
(0.0274952 0.000361421 0)
(0.0409067 0.000356609 0)
(0.0609455 0.000674307 0)
(0.0900135 0.0014493 0)
(0.132176 0.00203537 0)
(0.194878 0.002349 0)
(0.287015 0.00326903 0)
(0.41795 0.00476744 0)
(0.60784 0.00411097 0)
(0.885535 0.00320494 0)
(1.27393 0.00690325 0)
(1.83108 -0.00742693 0)
(2.63326 -0.0157044 0)
(3.72607 -0.0146935 0)
(5.20352 -0.0090825 0)
(7.20682 -0.0144609 0)
(9.87317 -0.00416735 0)
(13.1009 0.00834781 0)
(16.5014 -0.0150547 0)
(20.9643 0.0174974 0)
(15.9718 -0.937464 0)
(17.2803 0.560807 0)
(19.8946 0.142673 0)
(18.4487 0.295422 0)
(14.85 0.125924 0)
(11.4519 0.025592 0)
(8.47106 -0.0420736 0)
(6.18568 -0.115753 0)
(4.4808 -0.0787966 0)
(3.20446 -0.0623129 0)
(2.25611 -0.0522744 0)
(1.57772 -0.0358833 0)
(1.09367 -0.0285789 0)
(0.757594 -0.0232308 0)
(0.522589 -0.0132159 0)
(0.357352 -0.00882865 0)
(0.243392 -0.00593342 0)
(0.164884 -0.00368427 0)
(0.11207 -0.00310626 0)
(0.0760039 -0.00174505 0)
(0.0511656 -0.00113246 0)
(0.0344386 -0.000715747 0)
(0.0230529 -0.000409782 0)
(0.0154914 -0.000358568 0)
(0.0104066 -0.000197169 0)
(0.00693505 -0.000118468 0)
(0.00463553 -7.3782e-05 0)
(0.00308732 -4.96045e-05 0)
(0.00205709 -3.63637e-05 0)
(0.00136935 -1.4915e-05 0)
(0.000911399 -1.45288e-05 0)
(0.000605216 -1.04507e-05 0)
(0.000401008 -6.10115e-06 0)
(0.000267998 -4.53767e-06 0)
(0.000177227 -2.06422e-06 0)
(0.000117307 -1.752e-06 0)
(7.78765e-05 -1.23183e-06 0)
(5.15012e-05 -6.71071e-07 0)
(3.42628e-05 -5.43827e-07 0)
(2.26338e-05 -2.05149e-07 0)
(1.49213e-05 -2.11896e-07 0)
(9.87438e-06 -1.15378e-07 0)
(6.53121e-06 -6.89327e-08 0)
(4.31624e-06 -6.43185e-08 0)
(2.83163e-06 -2.57793e-08 0)
(1.85906e-06 -1.98672e-08 0)
(1.20968e-06 -1.40863e-08 0)
(7.68737e-07 -7.96871e-09 0)
(4.73438e-07 -7.23434e-09 0)
(2.52482e-07 -3.80435e-09 0)
(2.33351e-08 -3.72995e-09 0)
(1.81216e-08 -5.76142e-10 0)
(1.94159e-07 -5.77164e-10 0)
(3.63712e-07 -6.3745e-10 0)
(5.95629e-07 -7.25105e-10 0)
(9.33971e-07 -7.92835e-10 0)
(1.43797e-06 -5.125e-10 0)
(2.1964e-06 -4.96881e-10 0)
(3.34257e-06 -4.83233e-10 0)
(5.07731e-06 -1.99833e-10 0)
(7.70562e-06 8.29619e-10 0)
(1.1709e-05 4.08817e-09 0)
(1.74951e-05 1.06916e-08 0)
(2.65552e-05 -1.17756e-07 0)
(4.11206e-05 -2.55702e-09 5.32971e-31)
(6.12926e-05 9.23309e-08 0)
(9.19956e-05 -2.31569e-08 0)
(0.00014034 7.70005e-09 0)
(0.000211734 6.59359e-08 0)
(0.000320146 1.9835e-07 0)
(0.000476156 4.06907e-07 0)
(0.000718308 -3.25755e-06 0)
(0.00110617 -1.58648e-07 0)
(0.00164431 1.39493e-06 0)
(0.00245621 -5.84925e-07 0)
(0.00372163 4.5721e-07 0)
(0.0055796 2.28994e-06 0)
(0.00836189 5.54309e-06 0)
(0.0125273 1.23422e-05 0)
(0.0187467 2.73411e-05 0)
(0.0275841 5.89937e-05 0)
(0.0409153 9.8672e-05 0)
(0.0621113 -0.000133321 5.32858e-31)
(0.0916449 0.000313241 0)
(0.133204 0.000385164 0)
(0.196022 0.000776835 0)
(0.29179 0.00164832 0)
(0.420052 0.00375456 -5.32166e-31)
(0.605144 0.00151476 0)
(0.896057 0.00325444 0)
(1.27433 0.00553683 5.30496e-31)
(1.80072 0.00490192 0)
(2.61257 -0.00496022 0)
(3.72192 -0.00426401 0)
(5.2126 -0.0025328 -5.24348e-31)
(7.20013 -0.0102251 0)
(9.88708 -0.0119205 0)
(13.1158 -0.00692156 0)
(16.4832 -0.00428821 0)
(21.1013 -0.0199764 0)
(15.9996 0.0416688 0)
(17.3076 -0.00654592 0)
(20.3053 0.0652761 0)
(18.2012 0.0514328 0)
(14.5791 0.0851792 0)
(11.3201 0.064853 0)
(8.36482 0.000137441 -2.73622e-31)
(6.20567 -0.0297995 2.7166e-31)
(4.56145 -0.0796434 0)
(3.26232 -0.0429723 0)
(2.29018 -0.015364 -2.68576e-31)
(1.59591 -0.0110704 0)
(1.10831 -0.010394 0)
(0.776405 -0.00536148 0)
(0.537233 -0.00377043 0)
(0.363238 -0.0016459 0)
(0.247726 -0.000620268 0)
(0.166821 -0.000836979 0)
(0.113945 -0.00046098 0)
(0.0778204 -0.000254008 0)
(0.0518856 -0.000127556 0)
(0.0350288 -6.63281e-06 0)
(0.0232117 -6.04379e-05 2.66507e-31)
(0.0156524 -3.077e-05 0)
(0.010615 -1.66919e-05 0)
(0.0070128 -5.47961e-06 0)
(0.00467851 -5.98298e-06 0)
(0.00310223 -5.23548e-06 0)
(0.0020883 -8.58029e-07 0)
(0.00138393 -6.45545e-06 0)
(0.000911373 -1.50119e-06 0)
(0.000613537 -1.24165e-06 0)
(0.000405191 -6.95222e-07 0)
(0.000270936 1.53186e-07 0)
(0.000179197 -1.04989e-06 0)
(0.000117661 -1.48889e-07 0)
(7.88851e-05 -1.30176e-07 0)
(5.18769e-05 -6.60871e-08 0)
(3.46449e-05 2.73266e-08 0)
(2.28318e-05 -1.09976e-07 0)
(1.49724e-05 -2.27147e-08 0)
(1.00082e-05 1.17229e-08 0)
(6.52887e-06 -8.00038e-09 -2.66485e-31)
(4.34953e-06 -5.0464e-09 0)
(2.87173e-06 -1.93345e-08 -2.66485e-31)
(1.86251e-06 2.78931e-09 0)
(1.21954e-06 1.00364e-09 0)
(7.72556e-07 -9.86651e-10 0)
(4.75776e-07 -6.13621e-10 0)
(2.54943e-07 -2.18717e-09 0)
(2.33766e-08 -5.5071e-10 0)
(1.8103e-08 -6.07745e-10 0)
(1.93911e-07 -7.26856e-10 0)
(3.63173e-07 -1.03478e-09 0)
(5.94706e-07 -1.62275e-09 0)
(9.32464e-07 -2.63665e-09 0)
(1.43552e-06 -4.37741e-09 0)
(2.19248e-06 -7.05523e-09 0)
(3.33628e-06 -1.13683e-08 0)
(5.06726e-06 -1.84741e-08 0)
(7.68966e-06 -3.03462e-08 0)
(1.16841e-05 -5.08201e-08 0)
(1.74589e-05 -8.38664e-08 0)
(2.6512e-05 -1.53989e-08 0)
(4.107e-05 -1.54482e-07 -5.32971e-31)
(6.11626e-05 -3.68044e-07 0)
(9.17306e-05 -3.7525e-07 0)
(0.000139956 -6.67716e-07 0)
(0.000211135 -1.12374e-06 0)
(0.000319206 -1.87762e-06 0)
(0.000474737 -3.0263e-06 0)
(0.000716672 -1.37748e-06 0)
(0.00110329 -5.38712e-06 0)
(0.00163893 -1.12922e-05 0)
(0.00244793 -1.42394e-05 0)
(0.00370671 -2.48491e-05 0)
(0.00555422 -4.21669e-05 0)
(0.00831825 -7.07065e-05 0)
(0.012441 -0.000119191 0)
(0.018588 -0.000205009 0)
(0.0276868 -0.000318434 0)
(0.0406716 -0.00031167 0)
(0.0612619 -0.000472317 -5.32862e-31)
(0.0910315 -0.00119172 0)
(0.132452 -0.00173424 0)
(0.197234 -0.00193552 0)
(0.291698 -0.00230903 0)
(0.419607 -0.0050108 5.32216e-31)
(0.606622 -0.00263785 0)
(0.896922 -0.00349584 0)
(1.2747 -0.00727273 -5.30508e-31)
(1.80104 -0.00408214 0)
(2.61172 0.00255743 0)
(3.72293 0.00368746 0)
(5.20603 -0.00212486 5.2433e-31)
(7.19362 0.000676891 0)
(9.88153 -0.00628503 0)
(13.1065 -0.0171922 0)
(16.4619 -0.0337161 0)
(21.0597 0.00405233 0)
(15.9692 -0.116282 0)
(17.2961 -0.0702397 0)
(20.0922 -0.10566 0)
(18.5521 -0.21164 0)
(14.8326 -0.041075 0)
(11.2668 0.0424648 0)
(8.25497 0.0681357 2.75129e-31)
(6.11195 0.077584 -2.71335e-31)
(4.53381 0.0756945 0)
(3.29081 0.0482891 0)
(2.29697 0.0364339 2.68631e-31)
(1.58624 0.0215526 0)
(1.10876 0.0217851 0)
(0.769666 0.0159098 0)
(0.531474 0.00813169 0)
(0.363144 0.00653192 0)
(0.244266 0.00377291 0)
(0.166301 0.00248698 0)
(0.113217 0.00225588 0)
(0.0768899 0.000973672 0)
(0.0519862 0.000878916 0)
(0.0344196 0.000527933 0)
(0.0231242 0.000262555 -2.66506e-31)
(0.0155758 0.000288829 0)
(0.0104973 0.000110004 0)
(0.00700718 0.000105089 0)
(0.00461604 6.50846e-05 0)
(0.00311156 3.95181e-05 0)
(0.00204946 3.33571e-05 0)
(0.00137169 1.11336e-05 0)
(0.000922949 1.33491e-05 0)
(0.000604707 9.01003e-06 0)
(0.000405888 5.14657e-06 0)
(0.000265931 4.21447e-06 0)
(0.00017744 1.48493e-06 0)
(0.000119148 1.61305e-06 0)
(7.77557e-05 1.07767e-06 0)
(5.20624e-05 5.82725e-07 0)
(3.39849e-05 5.1918e-07 0)
(2.25731e-05 1.40852e-07 0)
(1.52531e-05 1.82071e-07 0)
(9.85045e-06 1.17102e-07 0)
(6.50622e-06 5.53949e-08 2.66485e-31)
(4.28839e-06 5.77931e-08 0)
(2.86942e-06 1.77114e-08 2.66485e-31)
(1.89252e-06 1.98579e-08 0)
(1.19191e-06 1.20564e-08 0)
(7.69564e-07 4.43047e-09 0)
(4.71921e-07 5.09663e-09 0)
(2.53997e-07 1.95576e-09 0)
(2.43558e-08 1.46945e-09 0)
(1.8061e-08 -6.05117e-10 0)
(1.93413e-07 -7.89331e-10 0)
(3.62136e-07 -1.25337e-09 0)
(5.92894e-07 -2.09569e-09 0)
(9.2945e-07 -3.55991e-09 0)
(1.43053e-06 -6.01782e-09 0)
(2.18417e-06 -1.01072e-08 0)
(3.32238e-06 -1.68996e-08 0)
(5.04375e-06 -2.81375e-08 0)
(7.64755e-06 -4.67394e-08 0)
(1.15836e-05 -7.78347e-08 0)
(1.75135e-05 -1.24736e-07 0)
(2.65633e-05 -6.36843e-08 0)
(4.02971e-05 -2.6841e-07 0)
(6.08034e-05 -6.4034e-07 0)
(9.184e-05 -6.298e-07 0)
(0.00013884 -1.09531e-06 0)
(0.000209538 -1.81796e-06 0)
(0.000315929 -2.96086e-06 0)
(0.00047548 -4.55705e-06 0)
(0.000717885 -3.07699e-06 0)
(0.00108477 -8.84634e-06 0)
(0.00162701 -1.93331e-05 0)
(0.00244118 -2.26345e-05 0)
(0.00367057 -3.83696e-05 0)
(0.00550357 -6.26849e-05 0)
(0.00823944 -9.9393e-05 0)
(0.0123163 -0.000155251 0)
(0.0183784 -0.000238325 0)
(0.0273687 -0.000369536 0)
(0.040643 -0.000540628 0)
(0.0604923 -0.000557868 0)
(0.0896982 -0.00135473 0)
(0.132236 -0.00162429 0)
(0.194852 -0.002331 0)
(0.285468 -0.00445089 0)
(0.416198 -0.00649464 0)
(0.607222 -0.00693499 0)
(0.884241 -0.00812975 0)
(1.27183 -0.0113443 0)
(1.82725 -0.00321694 0)
(2.62808 0.00638312 0)
(3.72097 -0.000832559 0)
(5.19916 -0.00450133 0)
(7.19433 0.00175585 0)
(9.8488 -0.010748 0)
(13.0578 -0.0299416 0)
(16.5929 0.00601849 0)
(20.927 -0.0221451 0)
(15.9316 0.95539 0)
(17.3084 -0.529873 0)
(19.9541 -0.130026 0)
(18.5327 -0.114263 0)
(14.7954 -0.163529 0)
(11.525 -0.097156 0)
(8.47189 0.0175433 0)
(6.14942 0.10968 0)
(4.44965 0.117209 0)
(3.19794 0.0796948 0)
(2.25881 0.0482623 0)
(1.56909 0.0391983 0)
(1.08766 0.0290626 0)
(0.753157 0.0213048 0)
(0.519137 0.015264 0)
(0.35539 0.00869771 0)
(0.241124 0.00592711 0)
(0.163666 0.00451763 0)
(0.111047 0.00299353 0)
(0.075254 0.00220531 0)
(0.0507638 0.00119402 0)
(0.0340119 0.000732578 0)
(0.0228306 0.000595228 0)
(0.0153242 0.000366815 0)
(0.0102747 0.000281208 0)
(0.00686963 0.00013794 0)
(0.00457801 9.69944e-05 0)
(0.00305536 6.95195e-05 0)
(0.00203021 3.9185e-05 0)
(0.00135177 3.69239e-05 0)
(0.00090169 1.87662e-05 0)
(0.000598651 1.2747e-05 0)
(0.000398094 9.00215e-06 0)
(0.000263559 4.96837e-06 0)
(0.00017491 4.76989e-06 0)
(0.00011633 2.37082e-06 0)
(7.7001e-05 1.58286e-06 0)
(5.10663e-05 1.11417e-06 0)
(3.37171e-05 5.83017e-07 0)
(2.23171e-05 5.82689e-07 0)
(1.48262e-05 2.91298e-07 0)
(9.77055e-06 1.50422e-07 0)
(6.44042e-06 1.31955e-07 0)
(4.257e-06 7.31957e-08 0)
(2.80909e-06 6.69403e-08 0)
(1.8443e-06 2.03265e-08 0)
(1.19592e-06 1.36394e-08 0)
(7.62314e-07 1.31149e-08 0)
(4.67226e-07 7.00506e-09 0)
(2.50366e-07 6.04398e-09 0)
(2.3427e-08 4.05727e-09 0)
(1.80135e-08 -2.14065e-10 0)
(1.92842e-07 -3.81346e-10 0)
(3.60972e-07 -8.321e-10 0)
(5.90836e-07 -1.73667e-09 0)
(9.25895e-07 -3.33154e-09 0)
(1.4246e-06 -5.74946e-09 0)
(2.17441e-06 -9.69976e-09 0)
(3.30652e-06 -1.61188e-08 0)
(5.01851e-06 -2.63001e-08 0)
(7.60844e-06 -4.20621e-08 0)
(1.15265e-05 -6.55751e-08 0)
(1.74538e-05 -9.95282e-08 0)
(2.64253e-05 -1.76582e-07 0)
(3.99823e-05 -2.74081e-07 0)
(6.04179e-05 -4.25926e-07 0)
(9.1267e-05 -6.9825e-07 0)
(0.000137844 -1.08818e-06 0)
(0.000208037 -1.69293e-06 0)
(0.000313777 -2.58624e-06 0)
(0.000473022 -3.89038e-06 0)
(0.000712868 -6.76348e-06 0)
(0.00107337 -1.02992e-05 0)
(0.00161314 -1.61852e-05 0)
(0.00242247 -2.46108e-05 0)
(0.00363641 -3.76261e-05 0)
(0.00545107 -5.79724e-05 0)
(0.00816024 -8.85669e-05 0)
(0.0121988 -0.000133444 0)
(0.0182088 -0.000197765 0)
(0.0271371 -0.000286865 0)
(0.0403853 -0.000414912 0)
(0.0599657 -0.000661302 0)
(0.0888004 -0.000860885 0)
(0.131219 -0.00123735 0)
(0.193393 -0.00171891 0)
(0.284067 -0.00205784 0)
(0.416017 -0.00212281 0)
(0.607573 -0.00189472 0)
(0.882941 -0.00203145 0)
(1.27706 -0.00195956 0)
(1.83607 -0.00057482 0)
(2.62122 -0.000123585 0)
(3.71362 -0.000828531 0)
(5.20216 -0.00150106 0)
(7.19128 -0.00155901 0)
(9.81238 0.000793533 0)
(13.1467 0.0139947 0)
(16.1017 0.0156835 0)
(23.582 -0.00546584 0)
(14.6983 0.00495357 0)
(14.9365 0.0282862 0)
(21.6234 0.0193167 0)
(18.0939 -0.0512614 0)
(15.0113 -0.0137979 0)
(11.5597 -0.00699341 0)
(8.56018 0.002167 0)
(6.23489 0.0120555 0)
(4.46861 0.0260996 0)
(3.17348 0.0306424 0)
(2.23408 0.0256561 0)
(1.55917 0.0213838 0)
(1.0797 0.0164093 0)
(0.744054 0.0126458 0)
(0.510668 0.0094636 0)
(0.349099 0.00662458 0)
(0.237767 0.00478619 0)
(0.161371 0.00331099 0)
(0.109235 0.00230917 0)
(0.0738112 0.00159605 0)
(0.0497644 0.00105778 0)
(0.0334717 0.000731745 0)
(0.0224691 0.000480416 0)
(0.0150606 0.000322747 0)
(0.0100846 0.00021392 0)
(0.00674391 0.000143786 0)
(0.00450248 9.3502e-05 0)
(0.00300297 6.09027e-05 0)
(0.00200036 4.09719e-05 0)
(0.00133137 2.64516e-05 0)
(0.000885843 1.81164e-05 0)
(0.000588871 1.18879e-05 0)
(0.000391236 7.7683e-06 0)
(0.000259672 5.21344e-06 0)
(0.000172267 3.35537e-06 0)
(0.000114276 2.28758e-06 0)
(7.57498e-05 1.49003e-06 0)
(5.01915e-05 9.64585e-07 0)
(3.32273e-05 6.4079e-07 0)
(2.19893e-05 4.06804e-07 0)
(1.45548e-05 2.70566e-07 0)
(9.62249e-06 1.75896e-07 0)
(6.35492e-06 1.09278e-07 0)
(4.19461e-06 7.22773e-08 0)
(2.76426e-06 4.35482e-08 0)
(1.81486e-06 2.98924e-08 0)
(1.18121e-06 1.77319e-08 0)
(7.54367e-07 1.07623e-08 0)
(4.61277e-07 7.32743e-09 0)
(2.47077e-07 4.78673e-09 0)
(2.31528e-08 4.01459e-09 0)
(1.79884e-08 1.90636e-10 0)
(1.92502e-07 3.31935e-10 0)
(3.60115e-07 2.45083e-10 0)
(5.8915e-07 -3.92659e-11 0)
(9.22991e-07 -5.72201e-10 0)
(1.41975e-06 -2.05263e-09 0)
(2.16648e-06 -4.59425e-09 0)
(3.29375e-06 -8.74767e-09 0)
(4.99823e-06 -1.55075e-08 0)
(7.5766e-06 -2.6398e-08 0)
(1.14768e-05 -4.39374e-08 0)
(1.73749e-05 -7.26107e-08 0)
(2.6291e-05 -1.21232e-07 0)
(3.97598e-05 -1.94218e-07 0)
(6.00907e-05 -3.0964e-07 0)
(9.07735e-05 -4.85665e-07 0)
(0.00013706 -7.57465e-07 0)
(0.000206832 -1.18027e-06 0)
(0.000311935 -1.83906e-06 0)
(0.000470152 -2.88275e-06 0)
(0.000708132 -4.59137e-06 0)
(0.00106565 -7.13454e-06 0)
(0.00160201 -1.10198e-05 0)
(0.00240619 -1.68357e-05 0)
(0.00361086 -2.553e-05 0)
(0.00541259 -3.85322e-05 0)
(0.00810357 -5.76315e-05 0)
(0.0121167 -8.52106e-05 0)
(0.0180918 -0.000124487 0)
(0.0269721 -0.000179941 0)
(0.0401435 -0.000258416 0)
(0.0596323 -0.000371458 0)
(0.0883884 -0.000492478 0)
(0.130709 -0.000645025 0)
(0.192805 -0.000812948 0)
(0.283577 -0.000972707 0)
(0.415751 -0.00111482 0)
(0.607306 -0.00133058 0)
(0.883068 -0.00143259 0)
(1.27733 -0.00126664 0)
(1.83667 -0.00138906 0)
(2.62289 -0.000995116 0)
(3.71332 -0.00105205 0)
(5.20168 -0.00123251 0)
(7.19314 -0.0004305 0)
(9.86868 0.000877036 0)
(13.1097 0.00707499 0)
(16.5417 -0.00544692 0)
(20.9038 0.00329611 0)
(16.0042 -0.0336903 0)
(17.3368 0.0371482 0)
(19.7454 -0.00459015 0)
(18.4401 -0.0154016 0)
(14.9454 -0.012248 0)
(11.5387 -0.00675686 0)
(8.56348 -0.00301077 0)
(6.24867 0.00228539 0)
(4.4817 0.00843497 0)
(3.17451 0.0116104 0)
(2.22849 0.0124927 0)
(1.55188 0.0110087 0)
(1.07372 0.00876856 0)
(0.738984 0.00691091 0)
(0.506406 0.00530978 0)
(0.345724 0.0040261 0)
(0.235208 0.00293407 0)
(0.15954 0.00206537 0)
(0.107941 0.00145382 0)
(0.0728741 0.00101474 0)
(0.0491009 0.000706305 0)
(0.033017 0.000481331 0)
(0.0221632 0.000322346 0)
(0.0148554 0.000216577 0)
(0.00994448 0.000145035 0)
(0.0066489 9.69045e-05 0)
(0.00443997 6.39841e-05 0)
(0.00296163 4.21915e-05 0)
(0.00197345 2.78076e-05 0)
(0.00131385 1.81785e-05 0)
(0.000874078 1.20517e-05 0)
(0.000581079 7.95924e-06 0)
(0.000386035 5.25349e-06 0)
(0.000256283 3.46907e-06 0)
(0.000170048 2.26873e-06 0)
(0.00011278 1.50157e-06 0)
(7.47597e-05 9.87369e-07 0)
(4.95331e-05 6.46808e-07 0)
(3.28016e-05 4.23186e-07 0)
(2.17123e-05 2.7323e-07 0)
(1.43666e-05 1.77953e-07 0)
(9.50035e-06 1.148e-07 0)
(6.27775e-06 7.28078e-08 0)
(4.14433e-06 4.61571e-08 0)
(2.73119e-06 2.9006e-08 0)
(1.7933e-06 1.80656e-08 0)
(1.16787e-06 1.09911e-08 0)
(7.46477e-07 6.54099e-09 0)
(4.56552e-07 3.9428e-09 0)
(2.446e-07 2.54394e-09 0)
(2.29301e-08 1.93604e-09 0)
(1.81532e-08 2.28224e-10 0)
(1.93116e-07 3.88571e-10 0)
(3.59741e-07 3.72369e-10 0)
(5.88463e-07 2.58585e-10 0)
(9.21777e-07 3.839e-11 0)
(1.41762e-06 -7.88966e-11 0)
(2.16282e-06 -2.78875e-10 0)
(3.2876e-06 -6.62192e-10 0)
(4.98808e-06 -1.33548e-09 0)
(7.56007e-06 -2.47287e-09 0)
(1.145e-05 -4.37106e-09 0)
(1.73313e-05 -7.51452e-09 0)
(2.62199e-05 -1.26254e-08 0)
(3.96466e-05 -2.05873e-08 0)
(5.9918e-05 -3.30075e-08 0)
(9.0509e-05 -5.23831e-08 0)
(0.000136647 -8.22001e-08 0)
(0.00020619 -1.28703e-07 0)
(0.000310933 -2.01831e-07 0)
(0.000468575 -3.17598e-07 0)
(0.000705625 -4.99396e-07 0)
(0.00106174 -7.76334e-07 0)
(0.00159621 -1.19364e-06 0)
(0.0023976 -1.8256e-06 0)
(0.0035979 -2.75654e-06 0)
(0.0053934 -4.1256e-06 0)
(0.00807563 -6.11513e-06 0)
(0.0120767 -8.96405e-06 0)
(0.0180353 -1.29843e-05 0)
(0.0268935 -1.85661e-05 0)
(0.0400357 -2.61094e-05 0)
(0.0594901 -3.5613e-05 0)
(0.0882163 -4.77065e-05 0)
(0.130516 -6.09394e-05 0)
(0.192605 -7.43727e-05 0)
(0.283406 -8.67513e-05 0)
(0.415624 -9.94406e-05 0)
(0.607182 -0.000111541 0)
(0.883005 -0.000122108 0)
(1.27747 -0.000133155 0)
(1.83702 -9.6891e-05 0)
(2.62246 -0.000110858 0)
(3.71249 -0.000307503 0)
(5.20235 -0.000258991 0)
(7.19357 -0.000620324 0)
(9.83428 -0.00227172 0)
(13.1292 -0.0131234 0)
(16.0987 -0.000149522 0)
(23.5166 -0.035162 0)
(14.7697 0.963174 0)
(15.0266 -0.510131 0)
(21.456 -0.052305 0)
(18.0974 -0.0506768 0)
(15.0427 -0.0294289 0)
(11.588 -0.011277 0)
(8.58269 -0.0042916 0)
(6.25989 -4.51243e-05 0)
(4.48695 0.000457778 0)
(3.17684 0.000864018 0)
(2.22763 0.000955627 0)
(1.54995 0.000920833 0)
(1.07159 0.00080307 0)
(0.736983 0.000655239 0)
(0.504635 0.000518218 0)
(0.344243 0.000392928 0)
(0.234063 0.00028975 0)
(0.158692 0.000210544 0)
(0.107322 0.000150284 0)
(0.0724228 0.000106125 0)
(0.0487761 7.37401e-05 0)
(0.0327911 5.05141e-05 0)
(0.0220089 3.43933e-05 0)
(0.0147504 2.32345e-05 0)
(0.0098728 1.56209e-05 0)
(0.00660019 1.04221e-05 0)
(0.00440742 6.90495e-06 0)
(0.00294008 4.54217e-06 0)
(0.00195935 2.98928e-06 0)
(0.0013046 1.96356e-06 0)
(0.000867962 1.29191e-06 0)
(0.000577038 8.50138e-07 0)
(0.000383365 5.58753e-07 0)
(0.000254533 3.68033e-07 0)
(0.000168898 2.41772e-07 0)
(0.000112015 1.58984e-07 0)
(7.42536e-05 1.04285e-07 0)
(4.91987e-05 6.80886e-08 0)
(3.25829e-05 4.43591e-08 0)
(2.15692e-05 2.86611e-08 0)
(1.4272e-05 1.84369e-08 0)
(9.43873e-06 1.17918e-08 0)
(6.23814e-06 7.44232e-09 0)
(4.1188e-06 4.63944e-09 0)
(2.71469e-06 2.85197e-09 0)
(1.78273e-06 1.71009e-09 0)
(1.16133e-06 9.9668e-10 0)
(7.42553e-07 5.59929e-10 0)
(4.54325e-07 3.06362e-10 0)
(2.4345e-07 1.76954e-10 0)
(2.28216e-08 1.21512e-10 0)
)
;

boundaryField
{
    sides1
    {
        type            zeroGradient;
    }
    sides2
    {
        type            slip;
    }
    empty
    {
        type            empty;
    }
}


// ************************************************************************* //
