/*--------------------------------*- C++ -*----------------------------------*\
| =========                 |                                                 |
| \\      /  F ield         | OpenFOAM: The Open Source CFD Toolbox           |
|  \\    /   O peration     | Version:  2012                                  |
|   \\  /    A nd           | Website:  www.openfoam.com                      |
|    \\/     M anipulation  |                                                 |
\*---------------------------------------------------------------------------*/
FoamFile
{
    version     2.0;
    format      ascii;
    class       volVectorField;
    location    "3e-05";
    object      U;
}
// * * * * * * * * * * * * * * * * * * * * * * * * * * * * * * * * * * * * * //

dimensions      [0 1 -1 0 0 0 0];


internalField   nonuniform List<vector> 
5000
(
(-9.543194789e-14 0 0)
(-1.07781434e-13 0 0)
(-1.125849241e-13 0 0)
(-1.106673794e-13 0 0)
(-1.066088904e-13 0 0)
(-1.023663559e-13 0 0)
(-9.007193716e-14 0 0)
(-7.091474312e-14 0 0)
(-5.149046086e-14 0 0)
(-3.643630789e-14 0 0)
(-2.713164479e-14 0 0)
(-2.100704049e-14 0 0)
(-1.816734877e-14 0 0)
(-1.855996686e-14 0 0)
(-1.168064685e-14 0 0)
(-1.091103759e-14 0 0)
(-6.893288822e-15 0 0)
(-5.053165853e-15 0 0)
(-6.32159472e-15 0 0)
(-3.329566158e-15 0 0)
(2.871686451e-15 0 0)
(8.261771037e-15 0 0)
(1.220123708e-14 0 0)
(1.050881155e-14 0 0)
(9.88019333e-15 0 0)
(8.041847851e-15 0 0)
(5.917614761e-15 0 0)
(2.961953455e-15 0 0)
(-1.253902228e-15 0 0)
(-3.002451574e-15 0 0)
(-5.879414971e-15 0 0)
(-4.90253541e-15 0 0)
(-9.563604141e-15 0 0)
(-9.910877697e-15 0 0)
(-9.492530086e-15 0 0)
(-1.103936539e-14 0 0)
(-1.218498516e-14 0 0)
(-2.066932928e-14 0 0)
(-2.380092862e-14 0 0)
(-2.197278118e-14 0 0)
(-2.216081705e-14 0 0)
(-2.073038456e-14 0 0)
(-1.993480745e-14 0 0)
(-1.656079802e-14 0 0)
(-1.380479404e-14 0 0)
(-1.456862111e-14 0 0)
(-1.333761355e-14 0 0)
(-1.321869644e-14 0 0)
(-1.305536347e-14 0 0)
(-7.498503007e-15 0 0)
(3.571317784e-15 0 0)
(1.756044186e-14 0 0)
(3.192737375e-14 0 0)
(3.61366061e-14 0 0)
(3.606977659e-14 0 0)
(3.611833378e-14 0 0)
(3.066217657e-14 0 0)
(2.931289409e-14 0 0)
(2.584841481e-14 0 0)
(2.77040615e-14 0 0)
(2.338674166e-14 0 0)
(1.643685818e-14 0 0)
(7.981940668e-15 0 0)
(3.691890673e-15 0 0)
(-4.237246156e-15 0 0)
(-1.096462483e-14 0 0)
(-1.530376985e-14 0 0)
(-1.896232481e-14 0 0)
(-1.535193236e-14 0 0)
(-1.533795441e-14 0 0)
(-1.111380617e-14 0 0)
(-1.021750099e-14 0 0)
(-8.73948196e-15 0 0)
(-9.278710078e-15 0 0)
(-9.790205354e-15 0 0)
(-8.099717313e-15 0 0)
(-4.839088883e-15 0 0)
(-5.907290152e-15 0 0)
(6.775675943e-17 0 0)
(1.227143846e-15 0 0)
(-1.221443625e-15 0 0)
(-2.557094293e-15 0 0)
(-5.066912499e-15 0 0)
(-7.838639875e-15 0 0)
(-6.976734836e-15 0 0)
(-5.582941696e-15 0 0)
(-7.313468535e-15 0 0)
(-1.044112755e-14 0 0)
(-1.548843895e-14 0 0)
(-2.030518244e-14 0 0)
(-2.243657198e-14 0 0)
(-1.425695291e-14 0 0)
(-8.807948434e-15 0 0)
(-7.916826343e-15 0 0)
(-8.579604087e-15 0 0)
(-1.00703406e-14 0 0)
(-6.945430157e-15 0 0)
(-4.119237816e-15 0 0)
(-4.738221153e-15 0 0)
(-2.111558711e-15 0 0)
(3.099182462e-15 0 0)
(7.217031079e-15 0 0)
(8.948725601e-15 0 0)
(1.045932866e-14 0 0)
(1.242150662e-14 0 0)
(1.228023939e-14 0 0)
(1.833892349e-14 0 0)
(2.391170692e-14 0 0)
(2.810775289e-14 0 0)
(2.873368861e-14 0 0)
(2.763759e-14 0 0)
(2.987749703e-14 0 0)
(3.162853682e-14 0 0)
(3.028939282e-14 0 0)
(1.932543651e-14 0 0)
(1.06397646e-14 0 0)
(2.995419994e-15 0 0)
(1.030285472e-15 0 0)
(1.928805146e-15 0 0)
(2.241249523e-15 0 0)
(1.887592857e-16 0 0)
(-8.836235787e-16 0 0)
(-6.904426832e-15 0 0)
(-1.331972682e-14 0 0)
(-1.953264671e-14 0 0)
(-2.163654219e-14 0 0)
(-1.786064977e-14 0 0)
(-1.499852816e-14 0 0)
(-1.409435352e-14 0 0)
(-1.705730056e-14 0 0)
(-1.511879096e-14 0 0)
(-1.420731055e-14 0 0)
(-9.808550103e-15 0 0)
(-1.849035834e-15 0 0)
(1.113236035e-15 0 0)
(2.70081061e-15 0 0)
(7.072599911e-15 0 0)
(9.44239471e-15 0 0)
(1.206053129e-14 0 0)
(1.538031603e-14 0 0)
(1.906465553e-14 0 0)
(2.384662096e-14 0 0)
(1.902074172e-14 0 0)
(1.630229386e-14 0 0)
(1.144393646e-14 0 0)
(6.829421417e-15 0 0)
(4.927080045e-15 0 0)
(6.733959942e-16 0 0)
(-4.038264599e-15 0 0)
(-1.380580503e-14 0 0)
(-1.649138413e-14 0 0)
(-1.745824337e-14 0 0)
(-1.731068186e-14 0 0)
(-1.509433345e-14 0 0)
(-1.466376436e-14 0 0)
(-1.572397058e-14 0 0)
(-1.507963964e-14 0 0)
(-2.134709894e-14 0 0)
(-2.273643489e-14 0 0)
(-1.762101422e-14 0 0)
(-8.050778731e-15 0 0)
(-6.085293405e-15 0 0)
(-2.866179519e-15 0 0)
(1.289160856e-15 0 0)
(2.69595687e-15 0 0)
(2.194832633e-15 0 0)
(1.277796491e-15 0 0)
(-3.201570937e-15 0 0)
(-8.213358994e-15 0 0)
(-9.802455894e-15 0 0)
(-9.588836566e-15 0 0)
(-7.039465712e-15 0 0)
(-1.941015489e-15 0 0)
(-6.644536281e-16 0 0)
(2.53042067e-15 0 0)
(-2.15806161e-15 0 0)
(-9.776512371e-15 0 0)
(-1.424132595e-14 0 0)
(-1.387459292e-14 0 0)
(-1.106733581e-14 0 0)
(-1.061212777e-14 0 0)
(-6.335496221e-15 0 0)
(-1.967386908e-15 0 0)
(1.204221483e-15 0 0)
(1.002546116e-14 0 0)
(1.316618478e-14 0 0)
(1.317720402e-14 0 0)
(1.024741217e-14 0 0)
(7.219294711e-15 0 0)
(3.526595659e-15 0 0)
(4.615512556e-16 0 0)
(1.13928174e-15 0 0)
(-1.990534977e-15 0 0)
(-2.745586437e-15 0 0)
(-2.867055035e-15 0 0)
(-2.204444588e-15 0 0)
(-1.533074848e-15 0 0)
(6.305478965e-17 0 0)
(5.427952231e-16 0 0)
(6.615615241e-16 0 0)
(2.801380869e-15 0 0)
(4.522067695e-15 0 0)
(-1.196147694e-15 0 0)
(-9.260681608e-15 0 0)
(-1.135854243e-14 0 0)
(-1.510058396e-14 0 0)
(-1.449477459e-14 0 0)
(-1.068710132e-14 0 0)
(-1.866350596e-15 0 0)
(6.097000133e-15 0 0)
(9.888402033e-15 0 0)
(1.223899524e-14 0 0)
(1.090905903e-14 0 0)
(3.197579345e-15 0 0)
(-2.670688553e-15 0 0)
(-1.668258626e-15 0 0)
(4.555985189e-16 0 0)
(6.310653749e-15 0 0)
(1.26186842e-14 0 0)
(1.156613036e-14 0 0)
(7.565439318e-15 0 0)
(2.52240167e-15 0 0)
(-5.657434376e-15 0 0)
(-1.022305102e-14 0 0)
(-8.09607886e-15 0 0)
(-2.381272229e-15 0 0)
(-7.564510927e-16 0 0)
(-1.933258332e-15 0 0)
(-5.451000079e-15 0 0)
(-1.387727569e-14 0 0)
(-1.532596399e-14 0 0)
(-1.496543563e-14 0 0)
(-1.329086955e-14 0 0)
(-1.323643829e-14 0 0)
(-7.30976522e-15 0 0)
(-2.44618344e-15 0 0)
(1.862560012e-15 0 0)
(8.808172824e-15 0 0)
(1.081908516e-14 0 0)
(1.265005742e-14 0 0)
(8.092789118e-15 0 0)
(6.649169487e-15 0 0)
(1.663254899e-15 0 0)
(-1.198254476e-15 0 0)
(1.377206263e-16 0 0)
(3.044129623e-15 0 0)
(8.439109193e-15 0 0)
(1.514456855e-14 0 0)
(2.073788362e-14 0 0)
(2.008143115e-14 0 0)
(1.911473316e-14 0 0)
(1.835602348e-14 0 0)
(1.523225948e-14 0 0)
(1.419001857e-14 0 0)
(1.631578444e-14 0 0)
(1.684201452e-14 0 0)
(1.612261259e-14 0 0)
(1.334956525e-14 0 0)
(1.101342388e-14 0 0)
(1.051722478e-14 0 0)
(8.543667449e-15 0 0)
(6.208085147e-15 0 0)
(2.682730559e-15 0 0)
(3.000085969e-15 0 0)
(2.715584082e-15 0 0)
(3.601186138e-15 0 0)
(4.531708495e-15 0 0)
(2.36004235e-15 0 0)
(-1.128449871e-15 0 0)
(-3.264632959e-15 0 0)
(-3.536293247e-15 0 0)
(-3.392609964e-15 0 0)
(-7.52842455e-16 0 0)
(5.092691901e-15 0 0)
(7.311053394e-15 0 0)
(6.969122195e-15 0 0)
(6.752892359e-15 0 0)
(6.354139767e-15 0 0)
(2.380036736e-15 0 0)
(-1.702568365e-15 0 0)
(-6.695828149e-15 0 0)
(-1.230353159e-14 0 0)
(-1.495404624e-14 0 0)
(-1.434626695e-14 0 0)
(-7.42885302e-15 0 0)
(1.529303431e-15 0 0)
(4.678658465e-15 0 0)
(3.398393602e-15 0 0)
(1.059082967e-15 0 0)
(-3.236429356e-15 0 0)
(-4.905996394e-15 0 0)
(-4.945991568e-15 0 0)
(-7.468019084e-15 0 0)
(-1.130351995e-14 0 0)
(-1.249493208e-14 0 0)
(-1.139358705e-14 0 0)
(-8.555133567e-15 0 0)
(-3.820882353e-15 0 0)
(-7.058045991e-16 0 0)
(2.172734652e-15 0 0)
(2.902577734e-15 0 0)
(4.621847623e-15 0 0)
(6.108876514e-15 0 0)
(4.795112087e-15 0 0)
(5.226175441e-15 0 0)
(3.301731036e-15 0 0)
(-9.805978301e-16 0 0)
(-2.301927417e-15 0 0)
(-4.211566515e-15 0 0)
(-4.248084629e-15 0 0)
(-2.216654833e-15 0 0)
(-2.240056069e-15 0 0)
(-4.046141661e-15 0 0)
(-4.491768981e-15 0 0)
(-2.331937387e-15 0 0)
(3.617750186e-15 0 0)
(8.677075685e-15 0 0)
(1.45665019e-14 0 0)
(1.46582109e-14 0 0)
(1.501072657e-14 0 0)
(1.548666234e-14 0 0)
(1.121967524e-14 0 0)
(5.703986982e-15 0 0)
(6.502277231e-16 0 0)
(5.050506448e-15 0 0)
(7.587565734e-15 0 0)
(9.318566963e-15 0 0)
(9.649693114e-15 0 0)
(7.211501141e-15 0 0)
(4.457185421e-15 0 0)
(5.299094596e-17 0 0)
(-6.901604875e-15 0 0)
(-1.036692954e-14 0 0)
(-1.21316812e-14 0 0)
(-1.27991913e-14 0 0)
(-1.582537662e-14 0 0)
(-1.64182843e-14 0 0)
(-1.916769308e-14 0 0)
(-2.040255655e-14 0 0)
(-2.155008581e-14 0 0)
(-2.263794755e-14 0 0)
(-1.651419137e-14 0 0)
(-1.02476307e-14 0 0)
(-4.151164417e-15 0 0)
(-3.70267562e-15 0 0)
(2.368098661e-16 0 0)
(-1.307730338e-16 0 0)
(1.51097236e-15 0 0)
(2.002538519e-15 0 0)
(1.853650585e-15 0 0)
(2.134161582e-15 0 0)
(-1.706994232e-15 0 0)
(-3.39318684e-15 0 0)
(-4.217666414e-15 0 0)
(-5.112799445e-15 0 0)
(-1.20772727e-15 0 0)
(4.559280159e-15 0 0)
(1.210364127e-14 0 0)
(1.604398011e-14 0 0)
(1.715610726e-14 0 0)
(1.588374333e-14 0 0)
(1.651881031e-14 0 0)
(1.290234428e-14 0 0)
(1.057413202e-14 0 0)
(1.162403096e-14 0 0)
(1.372391439e-14 0 0)
(1.201746e-14 0 0)
(1.34728259e-14 0 0)
(9.803343775e-15 0 0)
(5.52814978e-15 0 0)
(-1.30617373e-15 0 0)
(-9.386235987e-15 0 0)
(-1.300843607e-14 0 0)
(-1.36857512e-14 0 0)
(-1.232209256e-14 0 0)
(-4.827488924e-15 0 0)
(-1.885906231e-15 0 0)
(-1.615143831e-15 0 0)
(-5.928242651e-15 0 0)
(-1.950563297e-15 0 0)
(2.274535609e-15 0 0)
(7.115930829e-15 0 0)
(6.999146576e-15 0 0)
(8.047054171e-15 0 0)
(8.667008734e-15 0 0)
(8.161790286e-15 0 0)
(9.335378986e-15 0 0)
(9.518736941e-15 0 0)
(9.177638178e-15 0 0)
(9.181625097e-15 0 0)
(3.288266529e-15 0 0)
(-3.443875072e-15 0 0)
(-1.391577338e-14 0 0)
(-1.66077314e-14 0 0)
(-1.854321841e-14 0 0)
(-1.610443831e-14 0 0)
(-1.07592387e-14 0 0)
(-9.717668672e-15 0 0)
(-9.970956512e-15 0 0)
(-6.975426736e-15 0 0)
(-3.655081769e-15 0 0)
(-5.387468937e-16 0 0)
(-1.741840264e-15 0 0)
(-3.261512577e-15 0 0)
(-2.983014892e-15 0 0)
(-6.582973495e-15 0 0)
(-1.122536536e-14 0 0)
(-1.514612345e-14 0 0)
(-8.262368067e-15 0 0)
(-8.298274527e-15 0 0)
(-4.29185277e-15 0 0)
(-5.427648768e-15 0 0)
(-5.218226943e-15 0 0)
(-9.1349726e-16 0 0)
(5.529752557e-15 0 0)
(1.101495226e-14 0 0)
(1.229850415e-14 0 0)
(1.374976481e-14 0 0)
(1.289925772e-14 0 0)
(1.502254508e-14 0 0)
(1.540886702e-14 0 0)
(1.576456373e-14 0 0)
(1.705110138e-14 0 0)
(1.39653769e-14 0 0)
(1.035969648e-14 0 0)
(1.044578019e-14 0 0)
(1.109016216e-14 0 0)
(7.36703905e-15 0 0)
(5.693061243e-15 0 0)
(5.094645023e-15 0 0)
(6.856211116e-15 0 0)
(4.948272842e-15 0 0)
(3.581907892e-15 0 0)
(2.18596952e-15 0 0)
(-4.296079518e-16 0 0)
(-3.436570124e-15 0 0)
(-5.606961874e-15 0 0)
(-4.166396279e-15 0 0)
(-5.309893858e-16 0 0)
(3.183877126e-15 0 0)
(2.724593179e-16 0 0)
(-4.29667806e-15 0 0)
(-8.800178526e-15 0 0)
(-1.281906722e-14 0 0)
(-1.176926464e-14 0 0)
(-9.596213493e-15 0 0)
(-8.237138476e-15 0 0)
(-1.058840999e-14 0 0)
(-1.334347758e-14 0 0)
(-1.959899245e-14 0 0)
(-1.431776963e-14 0 0)
(-1.181740799e-14 0 0)
(-1.15714999e-14 0 0)
(-1.030871807e-14 0 0)
(-9.440224351e-15 0 0)
(-6.778231607e-15 0 0)
(-4.885041643e-15 0 0)
(-1.318731819e-15 0 0)
(6.76756945e-16 0 0)
(2.006550873e-15 0 0)
(4.462483151e-15 0 0)
(8.418220839e-15 0 0)
(1.195324838e-14 0 0)
(1.451640514e-14 0 0)
(1.552064313e-14 0 0)
(1.485518196e-14 0 0)
(1.207636066e-14 0 0)
(1.250979903e-14 0 0)
(1.523649859e-14 0 0)
(1.177178355e-14 0 0)
(1.016455219e-14 0 0)
(6.223732205e-15 0 0)
(3.288542372e-15 0 0)
(2.595418256e-15 0 0)
(-1.143617467e-15 0 0)
(-3.978689384e-15 0 0)
(-2.411907263e-15 0 0)
(-4.559392619e-17 0 0)
(2.004053362e-15 0 0)
(1.340670598e-15 0 0)
(-1.03592277e-16 0 0)
(-3.64298207e-15 0 0)
(-4.59841208e-15 0 0)
(-3.875204909e-15 0 0)
(-2.590289851e-15 0 0)
(-6.286187593e-15 0 0)
(-6.552118222e-15 0 0)
(-8.985847462e-15 0 0)
(-9.479540471e-15 0 0)
(-1.150005494e-14 0 0)
(-1.327387135e-14 0 0)
(-1.433258294e-14 0 0)
(-1.345797193e-14 0 0)
(-8.63483444e-15 0 0)
(-3.025384037e-15 0 0)
(-1.953982857e-15 0 0)
(3.54657656e-16 0 0)
(1.987113501e-15 0 0)
(8.354536692e-15 0 0)
(1.061596981e-14 0 0)
(1.439272232e-14 0 0)
(1.641577208e-14 0 0)
(1.494760325e-14 0 0)
(1.376485855e-14 0 0)
(8.894668015e-15 0 0)
(5.199356188e-15 0 0)
(2.362751089e-15 0 0)
(1.599353647e-15 0 0)
(4.302445334e-16 0 0)
(2.575162995e-15 0 0)
(5.473217089e-15 0 0)
(5.818701584e-15 0 0)
(5.338465836e-15 0 0)
(-1.440311734e-15 0 0)
(-8.527452831e-15 0 0)
(-4.864086935e-15 0 0)
(-2.435403926e-15 0 0)
(-1.481405534e-15 0 0)
(2.665038378e-15 0 0)
(5.701773735e-15 0 0)
(9.464626129e-15 0 0)
(9.977146666e-15 0 0)
(1.01860698e-14 0 0)
(1.029263292e-14 0 0)
(7.755464542e-15 0 0)
(5.202833018e-15 0 0)
(3.444431359e-15 0 0)
(3.351148294e-15 0 0)
(6.118235266e-15 0 0)
(1.060726076e-14 0 0)
(1.13962874e-14 0 0)
(9.080724268e-15 0 0)
(5.858185086e-15 0 0)
(-2.486548936e-15 0 0)
(-6.36251727e-15 0 0)
(-1.100205416e-14 0 0)
(-1.071974862e-14 0 0)
(-9.028254917e-15 0 0)
(-8.185148945e-15 0 0)
(-7.407171842e-15 0 0)
(-4.53922823e-15 0 0)
(2.480071539e-16 0 0)
(9.661304277e-15 0 0)
(1.565780881e-14 0 0)
(1.802336644e-14 0 0)
(1.691319591e-14 0 0)
(1.344467027e-14 0 0)
(7.031281522e-15 0 0)
(1.302064894e-15 0 0)
(-3.617729892e-15 0 0)
(-5.34397505e-15 0 0)
(-5.960582752e-15 0 0)
(-7.748960751e-15 0 0)
(-7.476106896e-15 0 0)
(-6.913100366e-15 0 0)
(-8.597678618e-15 0 0)
(-6.281365645e-15 0 0)
(-5.556682776e-15 0 0)
(-3.496987857e-15 0 0)
(-3.284754831e-15 0 0)
(-2.502340476e-15 0 0)
(-4.151287578e-16 0 0)
(2.380028426e-16 0 0)
(-2.397226379e-16 0 0)
(-1.58473209e-15 0 0)
(9.263069697e-16 0 0)
(3.388595137e-15 0 0)
(2.422786013e-15 0 0)
(1.709228251e-15 0 0)
(1.603518296e-15 0 0)
(-1.861442751e-15 0 0)
(-2.775515012e-15 0 0)
(-2.696730151e-15 0 0)
(-1.413912658e-15 0 0)
(-1.720631211e-15 0 0)
(-1.01051836e-15 0 0)
(1.060732229e-15 0 0)
(1.784148008e-17 0 0)
(-1.929185038e-15 0 0)
(-2.986124267e-15 0 0)
(-1.001068095e-15 0 0)
(2.481941253e-15 0 0)
(1.470397075e-15 0 0)
(-1.776669508e-15 0 0)
(-3.618191365e-15 0 0)
(-3.387563893e-15 0 0)
(-4.203289514e-15 0 0)
(-4.893488051e-15 0 0)
(-6.97537183e-15 0 0)
(-5.930635173e-15 0 0)
(-6.081734926e-15 0 0)
(-5.752159204e-15 0 0)
(-7.407390056e-15 0 0)
(-5.272680082e-15 0 0)
(1.538175911e-15 0 0)
(8.322693389e-15 0 0)
(9.897267857e-15 0 0)
(9.91100622e-15 0 0)
(7.232158257e-15 0 0)
(1.300604599e-15 0 0)
(-4.437753155e-15 0 0)
(-7.842004889e-15 0 0)
(-7.968499356e-15 0 0)
(-8.356127666e-15 0 0)
(-6.417250277e-15 0 0)
(-4.546083794e-15 0 0)
(-1.78222043e-16 0 0)
(5.584764691e-15 0 0)
(1.02969848e-14 0 0)
(1.18388756e-14 0 0)
(1.271882096e-14 0 0)
(1.29826569e-14 0 0)
(1.147179206e-14 0 0)
(1.96227992e-15 0 0)
(-8.758425088e-15 0 0)
(-1.785728554e-14 0 0)
(-2.380545617e-14 0 0)
(-2.447883415e-14 0 0)
(-2.061977022e-14 0 0)
(-9.002911905e-15 0 0)
(-2.198550211e-15 0 0)
(1.558499719e-15 0 0)
(1.41149298e-15 0 0)
(1.253754159e-15 0 0)
(-1.492704688e-15 0 0)
(-4.577468025e-15 0 0)
(-4.533016895e-15 0 0)
(-3.483636481e-15 0 0)
(-4.115061471e-16 0 0)
(5.210733268e-15 0 0)
(3.389271333e-15 0 0)
(7.390963392e-15 0 0)
(1.256013379e-14 0 0)
(1.265475211e-14 0 0)
(1.419750917e-14 0 0)
(1.423010931e-14 0 0)
(1.243018671e-14 0 0)
(1.339568847e-14 0 0)
(1.763727071e-14 0 0)
(1.535891791e-14 0 0)
(1.263138676e-14 0 0)
(1.029089116e-14 0 0)
(6.96545164e-15 0 0)
(6.166857606e-15 0 0)
(4.405285749e-15 0 0)
(5.230885583e-15 0 0)
(4.779026988e-16 0 0)
(-4.95342512e-15 0 0)
(-7.056444952e-15 0 0)
(-7.677348872e-15 0 0)
(-9.241410073e-15 0 0)
(-8.011947047e-15 0 0)
(-5.074151014e-15 0 0)
(3.670371709e-17 0 0)
(5.813286486e-15 0 0)
(8.302526666e-15 0 0)
(8.427928147e-15 0 0)
(7.306133606e-15 0 0)
(5.239411748e-15 0 0)
(-2.520854327e-15 0 0)
(-8.603185376e-15 0 0)
(-7.141835991e-15 0 0)
(-6.036101537e-15 0 0)
(-7.550436298e-17 0 0)
(-4.433611593e-16 0 0)
(-6.628561647e-16 0 0)
(-8.137266615e-16 0 0)
(1.552623095e-15 0 0)
(2.735124813e-15 0 0)
(7.514640513e-17 0 0)
(7.977484024e-16 0 0)
(-3.574144455e-16 0 0)
(5.94217405e-16 0 0)
(-2.574800782e-15 0 0)
(-6.52017014e-15 0 0)
(-8.381733318e-15 0 0)
(-8.429625139e-15 0 0)
(-8.189636691e-15 0 0)
(-8.510957773e-15 0 0)
(-8.795184577e-15 0 0)
(-7.16018492e-15 0 0)
(-6.366494096e-15 0 0)
(-7.838646538e-15 0 0)
(-1.032160315e-14 0 0)
(-1.399912983e-14 0 0)
(-1.5328043e-14 0 0)
(-1.55567886e-14 0 0)
(-1.886019139e-14 0 0)
(-1.820118009e-14 0 0)
(-1.84981187e-14 0 0)
(-1.818506775e-14 0 0)
(-1.126734836e-14 0 0)
(1.830113063e-15 0 0)
(7.078933344e-15 0 0)
(1.186304215e-14 0 0)
(1.391472146e-14 0 0)
(1.623049161e-14 0 0)
(1.221650086e-14 0 0)
(8.159486304e-15 0 0)
(2.758221667e-15 0 0)
(2.203783958e-15 0 0)
(9.435295202e-16 0 0)
(-5.446037062e-16 0 0)
(-1.918358566e-15 0 0)
(2.355521602e-15 0 0)
(5.431496586e-15 0 0)
(2.74267876e-15 0 0)
(2.207264645e-15 0 0)
(2.459581353e-15 0 0)
(4.196022034e-15 0 0)
(4.44470137e-15 0 0)
(3.414279198e-15 0 0)
(2.403751214e-15 0 0)
(4.296623399e-15 0 0)
(6.317575132e-15 0 0)
(1.113398324e-14 0 0)
(1.438242826e-14 0 0)
(2.151826697e-14 0 0)
(2.359698313e-14 0 0)
(2.282086669e-14 0 0)
(2.217332689e-14 0 0)
(1.919527571e-14 0 0)
(1.380906678e-14 0 0)
(9.930569995e-15 0 0)
(6.083415303e-15 0 0)
(-2.019530689e-15 0 0)
(-8.9910324e-15 0 0)
(-1.216869305e-14 0 0)
(-1.141880994e-14 0 0)
(-8.381504424e-15 0 0)
(-7.668108718e-15 0 0)
(-4.161779888e-15 0 0)
(1.477232202e-15 0 0)
(2.511779684e-15 0 0)
(2.701101125e-15 0 0)
(2.268341568e-15 0 0)
(3.197322332e-15 0 0)
(9.772746234e-16 0 0)
(3.266244859e-16 0 0)
(3.11608522e-16 0 0)
(-1.431220697e-15 0 0)
(-8.962994508e-16 0 0)
(-7.792629697e-16 0 0)
(-4.10212042e-15 0 0)
(-8.53730347e-15 0 0)
(-1.212265229e-14 0 0)
(-1.291945158e-14 0 0)
(-1.035577292e-14 0 0)
(-9.96740999e-15 0 0)
(-1.052899206e-14 0 0)
(-3.736897915e-15 0 0)
(1.012780045e-16 0 0)
(3.65288137e-16 0 0)
(1.520594743e-15 0 0)
(3.522019812e-15 0 0)
(3.749970117e-15 0 0)
(5.250633704e-15 0 0)
(3.844119139e-15 0 0)
(-3.638540357e-15 0 0)
(-9.675876232e-15 0 0)
(-1.031416931e-14 0 0)
(-8.644081943e-15 0 0)
(-6.048567972e-15 0 0)
(-1.266776259e-15 0 0)
(1.092087195e-15 0 0)
(4.831758975e-16 0 0)
(-1.295927635e-15 0 0)
(-5.346177481e-15 0 0)
(-9.794387126e-15 0 0)
(-7.52476255e-15 0 0)
(-4.436927301e-15 0 0)
(3.415862195e-15 0 0)
(2.753657348e-15 0 0)
(5.698595508e-15 0 0)
(3.79291911e-15 0 0)
(5.423936677e-15 0 0)
(5.957483445e-15 0 0)
(7.62122478e-15 0 0)
(1.164621013e-14 0 0)
(1.550094153e-14 0 0)
(1.883877967e-14 0 0)
(1.783707741e-14 0 0)
(1.264367781e-14 0 0)
(8.941068443e-15 0 0)
(4.703141777e-15 0 0)
(5.045498315e-15 0 0)
(2.39099609e-15 0 0)
(4.486447919e-16 0 0)
(3.417557364e-16 0 0)
(1.63363738e-15 0 0)
(2.237747321e-15 0 0)
(2.106100165e-15 0 0)
(1.596874087e-15 0 0)
(1.316511292e-15 0 0)
(2.091223396e-15 0 0)
(-6.019207112e-16 0 0)
(-6.571675354e-15 0 0)
(-9.059703419e-15 0 0)
(-9.303644119e-15 0 0)
(-6.382655864e-15 0 0)
(-4.270166879e-15 0 0)
(-6.041071074e-15 0 0)
(-4.89343158e-15 0 0)
(-6.314821167e-15 0 0)
(-8.438766343e-15 0 0)
(-1.007665676e-14 0 0)
(-1.419253564e-14 0 0)
(-1.604222415e-14 0 0)
(-1.513700231e-14 0 0)
(-1.215854854e-14 0 0)
(-7.481932648e-15 0 0)
(-8.783595656e-15 0 0)
(-7.987324136e-15 0 0)
(-1.66355448e-15 0 0)
(-7.437526278e-16 0 0)
(3.666973882e-16 0 0)
(7.575553374e-16 0 0)
(7.897872326e-16 0 0)
(-2.51074485e-15 0 0)
(-1.289122205e-15 0 0)
(-4.677652203e-16 0 0)
(5.384758593e-15 0 0)
(1.41735349e-14 0 0)
(1.883100362e-14 0 0)
(2.110833672e-14 0 0)
(1.847063671e-14 0 0)
(1.587833381e-14 0 0)
(9.840074159e-15 0 0)
(4.288670166e-15 0 0)
(3.014177302e-15 0 0)
(2.847689986e-15 0 0)
(3.107238757e-15 0 0)
(1.539720493e-15 0 0)
(8.10418276e-16 0 0)
(2.958284798e-15 0 0)
(4.121591711e-15 0 0)
(5.897920579e-15 0 0)
(2.557050684e-15 0 0)
(-1.438475243e-15 0 0)
(-6.457882023e-15 0 0)
(-8.37085354e-15 0 0)
(-6.541541864e-15 0 0)
(-2.686404525e-16 0 0)
(3.653019241e-15 0 0)
(7.684222983e-15 0 0)
(4.801184132e-15 0 0)
(1.42300821e-15 0 0)
(-1.523195277e-15 0 0)
(-4.684092116e-15 0 0)
(-6.24395857e-15 0 0)
(-6.923556068e-15 0 0)
(-6.83799159e-15 0 0)
(-6.84143022e-15 0 0)
(-7.364479316e-15 0 0)
(-9.360321872e-15 0 0)
(-1.174580998e-14 0 0)
(-1.026310873e-14 0 0)
(-4.122529139e-15 0 0)
(-4.022396736e-16 0 0)
(1.266063786e-15 0 0)
(-1.296672206e-15 0 0)
(-5.175294756e-15 0 0)
(-6.43438214e-15 0 0)
(-4.710227162e-15 0 0)
(-2.587261779e-15 0 0)
(3.466205679e-16 0 0)
(1.275288617e-15 0 0)
(1.247312584e-15 0 0)
(-1.07308791e-15 0 0)
(-5.309935026e-15 0 0)
(-1.224428563e-14 0 0)
(-1.98472547e-14 0 0)
(-2.321023775e-14 0 0)
(-2.10340863e-14 0 0)
(-1.982513781e-14 0 0)
(-8.900153057e-15 0 0)
(2.100105921e-15 0 0)
(5.757754339e-15 0 0)
(9.327029739e-15 0 0)
(1.162045283e-14 0 0)
(1.568048514e-14 0 0)
(1.760926084e-14 0 0)
(1.381792868e-14 0 0)
(8.169339205e-15 0 0)
(2.79623988e-16 0 0)
(-3.993781251e-15 0 0)
(-1.03020343e-14 0 0)
(-1.011414937e-14 0 0)
(-1.22149773e-14 0 0)
(-1.142377851e-14 0 0)
(-1.217232269e-14 0 0)
(-1.369135561e-14 0 0)
(-1.278888501e-14 0 0)
(-1.136475818e-14 0 0)
(-1.05212593e-14 0 0)
(-1.152981524e-14 0 0)
(-9.156999153e-15 0 0)
(-7.967494932e-15 0 0)
(-6.996182162e-15 0 0)
(-8.152533877e-15 0 0)
(-4.174521713e-15 0 0)
(-1.325164091e-15 0 0)
(8.370820075e-15 0 0)
(1.268503359e-14 0 0)
(1.795972869e-14 0 0)
(2.195883681e-14 0 0)
(2.147146557e-14 0 0)
(1.97926469e-14 0 0)
(1.483612767e-14 0 0)
(8.849044467e-15 0 0)
(6.278866847e-16 0 0)
(-4.356445959e-15 0 0)
(-7.120557817e-15 0 0)
(-7.650137787e-15 0 0)
(-9.203467897e-15 0 0)
(-1.054105964e-14 0 0)
(-9.949833262e-15 0 0)
(-5.977482113e-15 0 0)
(-2.563921598e-15 0 0)
(-3.246642809e-15 0 0)
(-1.296670677e-15 0 0)
(2.3402082e-15 0 0)
(6.925709054e-15 0 0)
(8.746270382e-15 0 0)
(9.831527637e-15 0 0)
(1.0457442e-14 0 0)
(1.093320316e-14 0 0)
(1.215562364e-14 0 0)
(1.205248068e-14 0 0)
(1.189423159e-14 0 0)
(7.111248457e-15 0 0)
(9.605703191e-16 0 0)
(-7.286463882e-15 0 0)
(-9.74454407e-15 0 0)
(-1.071133717e-14 0 0)
(-1.140650046e-14 0 0)
(-1.073597647e-14 0 0)
(-6.271527548e-15 0 0)
(2.128432228e-16 0 0)
(1.37522453e-14 0 0)
(2.289837297e-14 0 0)
(2.262128428e-14 0 0)
(1.888479562e-14 0 0)
(1.389412742e-14 0 0)
(1.016352668e-14 0 0)
(1.07777227e-14 0 0)
(1.112087576e-14 0 0)
(1.014638802e-14 0 0)
(1.05666749e-14 0 0)
(1.10687128e-14 0 0)
(7.615713499e-15 0 0)
(1.299644996e-15 0 0)
(1.511774715e-15 0 0)
(5.713063897e-16 0 0)
(-2.325969752e-16 0 0)
(-7.140163243e-16 0 0)
(-2.207241619e-15 0 0)
(-4.521594902e-15 0 0)
(-4.221477922e-15 0 0)
(-8.259933826e-15 0 0)
(-8.605072058e-15 0 0)
(-8.228029029e-15 0 0)
(-5.218974307e-15 0 0)
(-4.860979725e-15 0 0)
(-5.450161138e-15 0 0)
(-9.079055542e-15 0 0)
(-7.746451199e-15 0 0)
(-7.117719187e-15 0 0)
(-6.107353939e-15 0 0)
(-7.547506237e-15 0 0)
(-5.94716409e-15 0 0)
(-1.220584073e-15 0 0)
(4.812294407e-15 0 0)
(9.272520122e-15 0 0)
(7.523997196e-15 0 0)
(4.649645918e-15 0 0)
(9.179879528e-16 0 0)
(-3.996017676e-15 0 0)
(-4.419705739e-15 0 0)
(-2.041549301e-16 0 0)
(2.31051243e-17 0 0)
(-6.992255753e-18 0 0)
(-3.347310968e-15 0 0)
(-9.062735145e-15 0 0)
(-8.587241061e-15 0 0)
(-4.525801206e-15 0 0)
(-5.209928457e-16 0 0)
(6.352048877e-16 0 0)
(-1.60781155e-15 0 0)
(-7.903502908e-15 0 0)
(-1.406369767e-14 0 0)
(-2.119245327e-14 0 0)
(-2.561832953e-14 0 0)
(-2.53047155e-14 0 0)
(-2.088102928e-14 0 0)
(-1.734773678e-14 0 0)
(-1.299181729e-14 0 0)
(-1.271216596e-14 0 0)
(-1.329611181e-14 0 0)
(-1.374856937e-14 0 0)
(-1.585140167e-14 0 0)
(-1.590747466e-14 0 0)
(-1.483105622e-14 0 0)
(-1.125144021e-14 0 0)
(-7.583707774e-15 0 0)
(-6.754427188e-15 0 0)
(-7.226122793e-15 0 0)
(-6.759038514e-15 0 0)
(-5.751031057e-16 0 0)
(2.725664671e-15 0 0)
(2.812208113e-15 0 0)
(1.268654097e-15 0 0)
(4.19463254e-15 0 0)
(1.270505348e-14 0 0)
(2.463244081e-14 0 0)
(3.124575369e-14 0 0)
(2.915518657e-14 0 0)
(2.078385943e-14 0 0)
(1.042028158e-14 0 0)
(5.031198311e-15 0 0)
(-4.537865677e-15 0 0)
(-8.816405391e-15 0 0)
(-1.292862331e-14 0 0)
(-1.527056672e-14 0 0)
(-1.193282285e-14 0 0)
(-5.172682092e-15 0 0)
(5.153140659e-15 0 0)
(8.784114189e-15 0 0)
(9.331866012e-15 0 0)
(2.330861403e-15 0 0)
(-5.048994702e-15 0 0)
(-7.754983425e-15 0 0)
(-4.664968769e-15 0 0)
(-1.560745382e-15 0 0)
(1.332917729e-15 0 0)
(3.88902246e-15 0 0)
(4.388390954e-15 0 0)
(4.095844132e-15 0 0)
(4.137528833e-15 0 0)
(5.782249718e-15 0 0)
(6.705523936e-15 0 0)
(4.104344915e-15 0 0)
(3.661114719e-15 0 0)
(2.245192422e-15 0 0)
(2.19985874e-15 0 0)
(7.377204921e-15 0 0)
(1.394516908e-14 0 0)
(1.585128142e-14 0 0)
(1.397877285e-14 0 0)
(9.981619477e-15 0 0)
(-7.965911077e-16 0 0)
(-8.22878377e-15 0 0)
(-1.096690862e-14 0 0)
(-9.330821646e-15 0 0)
(-6.148113603e-15 0 0)
(1.467938332e-15 0 0)
(1.193233175e-14 0 0)
(1.396354914e-14 0 0)
(1.986818324e-14 0 0)
(1.868043401e-14 0 0)
(1.792378483e-14 0 0)
(1.698038084e-14 0 0)
(1.706624874e-14 0 0)
(1.256964553e-14 0 0)
(9.795529258e-15 0 0)
(4.8337048e-16 0 0)
(-9.955163698e-15 0 0)
(-1.915060906e-14 0 0)
(-1.971506659e-14 0 0)
(-2.188949785e-14 0 0)
(-2.233792606e-14 0 0)
(-2.023730362e-14 0 0)
(-1.410086858e-14 0 0)
(-2.865756245e-15 0 0)
(1.859913493e-15 0 0)
(5.136441671e-15 0 0)
(2.502008374e-15 0 0)
(1.494221302e-15 0 0)
(1.527087924e-16 0 0)
(-1.802371951e-15 0 0)
(-1.427451948e-15 0 0)
(-4.545560025e-15 0 0)
(-5.25028864e-15 0 0)
(-6.169380231e-15 0 0)
(-5.017090931e-15 0 0)
(-1.033382451e-14 0 0)
(-1.574053592e-14 0 0)
(-1.774416428e-14 0 0)
(-2.315194696e-14 0 0)
(-2.185938333e-14 0 0)
(-1.594299982e-14 0 0)
(-3.277875022e-15 0 0)
(3.641862046e-15 0 0)
(6.749049397e-15 0 0)
(1.403595067e-14 0 0)
(1.91438243e-14 0 0)
(2.266891428e-14 0 0)
(1.717172969e-14 0 0)
(8.171570538e-15 0 0)
(4.604012531e-15 0 0)
(4.876523788e-15 0 0)
(7.711842772e-15 0 0)
(8.82693573e-15 0 0)
(6.270656981e-15 0 0)
(2.941402973e-15 0 0)
(-4.240023126e-15 0 0)
(-7.013584665e-15 0 0)
(-1.305739299e-14 0 0)
(-1.945372117e-14 0 0)
(-2.108565628e-14 0 0)
(-2.105334078e-14 0 0)
(-2.037038061e-14 0 0)
(-1.382222984e-14 0 0)
(-7.799215718e-15 0 0)
(2.043702345e-16 0 0)
(4.708693787e-16 0 0)
(2.618883178e-16 0 0)
(2.121092142e-15 0 0)
(2.172002313e-15 0 0)
(-1.913895975e-15 0 0)
(-7.205141472e-15 0 0)
(-1.982948967e-14 0 0)
(-1.96994504e-14 0 0)
(-2.602213874e-14 0 0)
(-1.858688599e-14 0 0)
(-7.233423616e-15 0 0)
(-4.782126874e-16 0 0)
(2.323173755e-15 0 0)
(3.206466577e-15 0 0)
(-1.142454331e-15 0 0)
(-4.283640385e-15 0 0)
(-8.999695821e-15 0 0)
(-7.513282687e-15 0 0)
(-1.989166025e-15 0 0)
(5.884311559e-15 0 0)
(2.221267096e-14 0 0)
(3.28049788e-14 0 0)
(4.222786276e-14 0 0)
(4.631331287e-14 0 0)
(4.604725407e-14 0 0)
(3.817075138e-14 0 0)
(2.531445288e-14 0 0)
(1.328717992e-14 0 0)
(2.27063932e-15 0 0)
(-4.026590898e-15 0 0)
(-8.46462363e-15 0 0)
(-6.640497847e-15 0 0)
(-6.033627731e-15 0 0)
(-7.102502916e-15 0 0)
(-5.593504148e-15 0 0)
(-5.507997765e-15 0 0)
(-3.82436715e-15 0 0)
(-2.901270364e-15 0 0)
(-4.366969033e-16 0 0)
(4.376001744e-15 0 0)
(5.30434837e-15 0 0)
(9.159023622e-15 0 0)
(8.482191059e-15 0 0)
(2.731562263e-15 0 0)
(-8.30668796e-15 0 0)
(-1.369435587e-14 0 0)
(-1.571585064e-14 0 0)
(-1.445503125e-14 0 0)
(-1.32566812e-14 0 0)
(-1.046396505e-14 0 0)
(-6.706196171e-15 0 0)
(-7.099875422e-15 0 0)
(-4.784311895e-15 0 0)
(-4.294833823e-15 0 0)
(-3.993176145e-15 0 0)
(-4.931859537e-15 0 0)
(-3.886887964e-15 0 0)
(-2.265083123e-15 0 0)
(2.311056294e-15 0 0)
(7.320148428e-15 0 0)
(3.147579406e-15 0 0)
(-1.09291222e-15 0 0)
(2.745754318e-15 0 0)
(-1.924120582e-15 0 0)
(-4.006172367e-15 0 0)
(-3.146583592e-15 0 0)
(-1.469086206e-15 0 0)
(-2.136652189e-15 0 0)
(-5.475765621e-15 0 0)
(-1.127548806e-14 0 0)
(-1.069730603e-14 0 0)
(-1.41582443e-14 0 0)
(-2.0767677e-14 0 0)
(-1.933061831e-14 0 0)
(-1.652932525e-14 0 0)
(-1.415286956e-14 0 0)
(-1.174839428e-14 0 0)
(-9.100611478e-15 0 0)
(-6.639304311e-15 0 0)
(-3.043228068e-15 0 0)
(3.131790403e-15 0 0)
(9.216118478e-15 0 0)
(7.034685785e-15 0 0)
(7.489026762e-15 0 0)
(1.061484132e-14 0 0)
(9.518636869e-15 0 0)
(6.288667579e-15 0 0)
(6.839387416e-15 0 0)
(8.988156678e-15 0 0)
(1.592731583e-14 0 0)
(1.844149159e-14 0 0)
(1.861818299e-14 0 0)
(1.080601298e-14 0 0)
(4.178879627e-15 0 0)
(-2.275043166e-15 0 0)
(-2.223262274e-15 0 0)
(1.679036207e-15 0 0)
(9.530119455e-15 0 0)
(1.593917629e-14 0 0)
(1.565034984e-14 0 0)
(1.120456714e-14 0 0)
(6.792928774e-15 0 0)
(9.10155241e-15 0 0)
(9.644919082e-15 0 0)
(9.983056789e-15 0 0)
(5.712776629e-15 0 0)
(-5.209244405e-16 0 0)
(-9.625631597e-15 0 0)
(-8.382571608e-15 0 0)
(-9.400397306e-15 0 0)
(-5.455965186e-15 0 0)
(-2.928896361e-15 0 0)
(-1.30801601e-15 0 0)
(-2.895919029e-15 0 0)
(-3.411724989e-15 0 0)
(-2.903820483e-15 0 0)
(3.563302763e-15 0 0)
(9.448257331e-15 0 0)
(1.212888358e-14 0 0)
(1.492928592e-14 0 0)
(1.658909582e-14 0 0)
(1.374708335e-14 0 0)
(1.07025758e-14 0 0)
(6.052928437e-15 0 0)
(-4.806506255e-16 0 0)
(-5.195672625e-15 0 0)
(-6.364092836e-15 0 0)
(-6.510676479e-15 0 0)
(-6.860065513e-15 0 0)
(-6.496093676e-15 0 0)
(-6.95355237e-15 0 0)
(-7.451348999e-15 0 0)
(-6.401367844e-15 0 0)
(-6.587435615e-15 0 0)
(-1.099315988e-14 0 0)
(-1.068533784e-14 0 0)
(-1.7014108e-14 0 0)
(-1.461508676e-14 0 0)
(-1.431938903e-14 0 0)
(-9.146195593e-15 0 0)
(-7.440561864e-16 0 0)
(3.984178749e-15 0 0)
(7.76820753e-15 0 0)
(7.567087049e-15 0 0)
(6.960237555e-15 0 0)
(4.523599666e-15 0 0)
(3.519785257e-15 0 0)
(3.548266887e-16 0 0)
(-5.300325578e-15 0 0)
(-9.50075979e-15 0 0)
(-1.029374022e-14 0 0)
(-9.558440815e-15 0 0)
(-6.932515062e-15 0 0)
(-3.245246555e-15 0 0)
(-3.481434414e-15 0 0)
(2.85136478e-15 0 0)
(1.225147527e-14 0 0)
(1.678341768e-14 0 0)
(1.99151508e-14 0 0)
(1.812150537e-14 0 0)
(1.810145827e-14 0 0)
(1.819831489e-14 0 0)
(1.845458514e-14 0 0)
(1.49975874e-14 0 0)
(1.14094004e-14 0 0)
(1.016598057e-14 0 0)
(6.510364493e-15 0 0)
(2.520001123e-15 0 0)
(-2.491340035e-15 0 0)
(-2.428742765e-15 0 0)
(-1.893505691e-15 0 0)
(-3.198885526e-15 0 0)
(-5.758890098e-15 0 0)
(-6.856322935e-15 0 0)
(-6.300492944e-15 0 0)
(-6.08302801e-15 0 0)
(-6.615486914e-15 0 0)
(-5.187423089e-15 0 0)
(-2.791519245e-15 0 0)
(5.114454271e-16 0 0)
(6.590133594e-15 0 0)
(7.382280444e-15 0 0)
(9.759368563e-15 0 0)
(8.473014225e-15 0 0)
(4.959659125e-15 0 0)