/*--------------------------------*- C++ -*----------------------------------*\
| =========                 |                                                 |
| \\      /  F ield         | OpenFOAM: The Open Source CFD Toolbox           |
|  \\    /   O peration     | Version:  3.0.1                                 |
|   \\  /    A nd           | Web:      www.OpenFOAM.org                      |
|    \\/     M anipulation  |                                                 |
\*---------------------------------------------------------------------------*/
FoamFile
{
    version     2.0;
    format      ascii;
    class       surfaceScalarField;
    location    "0.00025";
    object      phi;
}
// * * * * * * * * * * * * * * * * * * * * * * * * * * * * * * * * * * * * * //

dimensions      [1 0 -1 0 0 0 0];

internalField   nonuniform List<scalar> 
1890
(
4.69102e-09
-1.10241e-09
4.64611e-09
-9.99561e-10
6.73455e-09
-1.04918e-09
1.1595e-08
-1.09021e-09
2.43556e-08
-6.12329e-10
4.75568e-08
-7.44665e-10
8.96195e-08
-3.8484e-10
1.58585e-07
-1.75246e-09
2.70649e-07
-5.74591e-10
4.82626e-07
-2.02391e-10
8.66916e-07
-5.9712e-10
1.55598e-06
3.36893e-09
2.75509e-06
3.17107e-09
4.83551e-06
5.16664e-09
8.30556e-06
1.28257e-09
1.40429e-05
-6.68033e-09
2.32288e-05
-3.11416e-08
3.76438e-05
-6.33229e-08
5.9421e-05
6.20738e-08
9.1287e-05
4.00992e-07
0.000136111
9.53069e-07
0.000197575
1.63508e-06
0.000277744
2.66873e-06
0.000379141
3.60079e-06
0.000500135
4.92105e-06
0.000639602
4.96418e-06
0.000791496
4.8342e-06
0.000947191
4.77253e-06
0.00109569
5.04735e-06
0.00122512
5.14397e-06
0.00132758
6.41952e-06
0.00139938
6.96289e-06
0.00144464
7.34325e-06
0.00147122
6.5e-06
0.00148897
2.55444e-06
0.00150231
-1.84793e-07
0.00151441
-2.07613e-06
0.00152617
-4.12755e-06
0.00153731
-5.06606e-06
0.00154534
-5.09726e-06
0.00155463
-6.9447e-06
0.00156086
-6.93901e-06
0.00156498
-5.80785e-06
0.00156763
-5.37493e-06
0.00156907
-4.66662e-06
0.00156934
-3.87752e-06
0.00156841
-2.74953e-06
0.00156433
-5.40555e-07
0.00155701
1.91105e-06
0.00154391
4.84325e-06
0.00152324
8.7235e-06
0.00149887
8.44789e-06
0.00147641
5.80132e-06
0.00145734
5.15312e-06
0.00144505
2.86297e-06
0.00143769
1.16047e-06
0.00143364
-6.52703e-09
0.0014321
-7.16538e-07
0.00143231
-1.3811e-06
0.00143269
-1.2253e-06
0.00143212
-4.98764e-07
0.00143182
-7.93726e-07
0.00143313
-1.99224e-06
0.00143591
-3.42543e-06
0.00143859
-3.39293e-06
0.00144196
-4.89805e-06
0.00143884
-4.52287e-06
0.00142579
-4.24685e-06
0.00139618
-3.19009e-06
0.00134087
-1.54647e-06
0.00125696
-1.75281e-06
0.00113873
-2.60304e-06
0.000993986
-5.13882e-06
0.000827167
-3.77069e-06
0.000657561
-1.56878e-06
0.000498527
-2.47959e-07
0.000362815
5.58232e-07
0.000253083
9.40787e-07
0.000170702
9.55685e-07
0.000111339
7.48525e-07
7.07568e-05
2.98958e-07
4.38029e-05
2.98968e-07
2.65776e-05
1.44638e-07
1.57197e-05
1.60765e-07
9.19338e-06
5.10531e-08
5.2774e-06
1.04617e-08
2.97604e-06
-7.03374e-09
1.65303e-06
1.26409e-08
8.9901e-07
8.43861e-10
4.86682e-07
6.28052e-09
2.55965e-07
2.10707e-09
1.3557e-07
7.77226e-10
6.98883e-08
4.09142e-11
3.61171e-08
5.23201e-12
1.85415e-08
-1.47115e-10
9.24508e-09
1.30519e-10
4.68622e-09
5.35811e-12
2.20861e-09
-1.01715e-12
9.04318e-10
-9.27936e-12
-5.55716e-13
4.2771e-09
-3.02405e-09
4.25747e-09
-3.11941e-09
6.39699e-09
-3.28281e-09
9.83593e-09
-2.17797e-09
2.18435e-08
-1.73137e-09
4.27392e-08
-1.09203e-09
8.07727e-08
2.64663e-10
1.42349e-07
1.04075e-10
2.48221e-07
5.76899e-09
4.40061e-07
1.76481e-08
7.94207e-07
2.55685e-08
1.42721e-06
6.55703e-08
2.54063e-06
8.05767e-08
4.5089e-06
1.29595e-07
7.74709e-06
2.17008e-07
1.30897e-05
3.6335e-07
2.16281e-05
5.55522e-07
3.49002e-05
8.83948e-07
5.55081e-05
1.45437e-06
8.59109e-05
2.38226e-06
0.000129543
3.76852e-06
0.000188508
5.96583e-06
0.000266447
8.65e-06
0.000362865
1.20865e-05
0.00047984
1.30811e-05
0.000614619
1.04416e-05
0.000766575
8.30589e-06
0.000922016
8.37666e-06
0.00107427
6.74662e-06
0.00120516
8.29265e-06
0.00131207
7.26208e-06
0.00138794
9.01812e-06
0.0014376
8.13497e-06
0.00146769
7.23052e-06
0.00148682
2.10621e-06
0.00149843
-7.72431e-07
0.00150844
-2.26267e-06
0.00152088
-6.57939e-06
0.00153051
-8.86962e-06
0.00154086
-9.05651e-06
0.0015475
-1.15862e-05
0.00155294
-1.06488e-05
0.00155703
-1.04599e-05
0.00155968
-9.47878e-06
0.00156117
-8.91433e-06
0.00156063
-7.06241e-06
0.00155958
-4.96776e-06
0.00155549
-8.16944e-07
0.0015488
2.46215e-06
0.00153747
7.67309e-06
0.00152302
1.11472e-05
0.00150506
1.09134e-05
0.0014848
9.16e-06
0.00146939
6.80897e-06
0.00145781
4.69672e-06
0.00145124
1.68502e-06
0.00144793
-7.65406e-07
0.00144595
-1.68905e-06
0.00144538
-2.74709e-06
0.00144529
-2.51393e-06
0.00144518
-2.23442e-06
0.00144521
-2.76607e-06
0.00144487
-4.14507e-06
0.00144605
-5.05889e-06
0.00144769
-4.36249e-06
0.00144431
-4.15438e-06
0.00143738
-4.21906e-06
0.00141801
-2.69561e-06
0.00138194
1.33568e-06
0.00132265
3.34501e-06
0.00122897
3.52048e-06
0.00110767
2.21685e-06
0.000955122
-5.92717e-06
0.000788486
-7.83283e-06
0.00061895
-6.12503e-06
0.000464772
-5.54756e-06
0.000335851
-5.15098e-06
0.00023329
-4.18183e-06
0.000156459
-3.19629e-06
0.000101872
-2.4859e-06
6.43847e-05
-2.56449e-06
4.01628e-05
-1.31801e-06
2.42382e-05
-8.73385e-07
1.4362e-05
-3.6778e-07
8.37725e-06
-3.16425e-07
4.80621e-06
-2.4594e-07
2.6986e-06
-1.91617e-07
1.50407e-06
-8.7276e-08
7.98759e-07
-4.66755e-08
4.39361e-07
-2.76131e-08
2.33243e-07
-1.60757e-08
1.24943e-07
-8.75981e-09
6.34033e-08
-4.34685e-09
3.35244e-08
-2.55424e-09
1.66053e-08
-1.28259e-09
8.47723e-09
-6.79911e-10
4.26807e-09
-3.69328e-10
2.03898e-09
-1.78189e-10
8.25457e-10
-1.02583e-10
-6.09808e-11
3.50212e-09
-5.70389e-09
3.04946e-09
-5.30176e-09
4.49286e-09
-5.18925e-09
1.09608e-08
-4.84869e-09
2.42333e-08
-4.09173e-09
4.64274e-08
-3.12304e-09
8.46089e-08
-1.77437e-09
1.47416e-07
-1.01885e-09
2.81024e-07
-5.68199e-09
5.21535e-07
6.86971e-09
9.46311e-07
1.30937e-08
1.75503e-06
2.33756e-08
3.06331e-06
8.17453e-08
5.22374e-06
1.1456e-07
8.9221e-06
2.32199e-07
1.48569e-05
3.23049e-07
2.46355e-05
4.01364e-07
3.98164e-05
3.82615e-07
6.38605e-05
8.05479e-07
9.81116e-05
1.95388e-06
0.000147482
3.46116e-06
0.000214997
5.35796e-06
0.00030319
7.10965e-06
0.000414854
1.14099e-05
0.00053541
1.20476e-05
0.000654234
1.10622e-05
0.000811119
1.16942e-05
0.000960061
1.11063e-05
0.00110991
1.28936e-05
0.00123662
9.63102e-06
0.00134105
1.1241e-05
0.00140812
1.22807e-05
0.00145652
1.1886e-05
0.00148206
1.04764e-05
0.00149239
7.20392e-06
0.00149996
2.7229e-06
0.0015073
-1.05418e-07
0.00151666
-7.05099e-06
0.0015246
-8.30958e-06
0.00153208
-9.00732e-06
0.00153887
-1.25432e-05
0.00154199
-1.15516e-05
0.00154391
-1.26234e-05
0.00154828
-1.32149e-05
0.00155021
-1.04817e-05
0.00155091
-9.08471e-06
0.00154782
-5.64028e-06
0.00154563
-2.70503e-06
0.00154101
5.38988e-07
0.00153491
3.1476e-06
0.00152607
6.21966e-06
0.00151419
7.11171e-06
0.00150146
6.63143e-06
0.00148958
5.29568e-06
0.00148348
1.82597e-06
0.00147948
4.93182e-07
0.00147767
-1.91252e-06
0.00147655
-2.24971e-06
0.00147593
-3.10567e-06
0.00147493
-3.08701e-06
0.00147365
-3.06854e-06
0.00147229
-3.94748e-06
0.00147039
-3.88818e-06
0.00146868
-3.75168e-06
0.00146504
-2.4971e-06
0.00145819
-3.81314e-06
0.00144833
-1.80207e-06
0.00143074
-2.15649e-06
0.00139361
3.94035e-06
0.00134493
3.40974e-06
0.00124956
5.14994e-06
0.0011449
-1.18505e-06
0.00100086
-1.22739e-05
0.000834762
-1.43777e-05
0.000661336
-8.47314e-06
0.000503855
-5.91615e-06
0.000367557
-3.62123e-06
0.000258399
-2.25445e-06
0.000173716
-2.31683e-08
0.000113889
-2.38044e-06
7.03023e-05
-2.29116e-06
4.41305e-05
-1.25473e-06
2.64769e-05
-7.14891e-07
1.5823e-05
-2.14334e-07
9.4372e-06
-1.49832e-07
5.68836e-06
-3.42584e-07
3.19005e-06
-2.45891e-07
1.78538e-06
-6.80032e-08
9.59036e-07
-2.60797e-08
5.28454e-07
-1.65025e-08
2.75272e-07
-1.72852e-08
1.48124e-07
-8.26335e-09
7.66449e-08
-4.30471e-09
4.00163e-08
-2.35078e-09
2.06166e-08
-1.11382e-09
1.03002e-08
-4.77999e-10
5.20636e-09
-2.38009e-10
2.48853e-09
-1.38841e-10
9.93307e-10
-6.62383e-11
-4.23875e-11
3.63744e-09
-7.32043e-09
4.74228e-09
-7.04894e-09
7.45421e-09
-6.21459e-09
1.41329e-08
-6.03041e-09
2.88695e-08
-6.09728e-09
5.34368e-08
-5.3805e-09
9.47812e-08
-4.03821e-09
1.598e-07
-1.84268e-09
2.78694e-07
-2.51009e-09
5.4773e-07
-1.31781e-08
9.86351e-07
-2.2635e-09
1.92999e-06
-1.67116e-08
3.40559e-06
-2.72339e-08
5.76967e-06
3.25587e-09
9.80153e-06
8.16638e-09
1.5935e-05
1.15427e-07
2.5366e-05
1.97339e-07
4.10987e-05
1.99733e-07
6.61007e-05
-2.38945e-08
0.000104631
-1.7763e-07
0.000157693
-3.03379e-07
0.000235854
1.1359e-08
0.000330214
1.33116e-06
0.000457149
2.12672e-06
0.000573835
6.02721e-06
0.000684532
9.99276e-06
0.000842065
1.78978e-05
0.000982331
1.89228e-05
0.00113343
1.5012e-05
0.00125753
1.02062e-05
0.00136021
1.23887e-05
0.00143076
1.41307e-05
0.00147688
1.44288e-05
0.0015115
1.08255e-05
0.00152122
1.02892e-05
0.0015214
1.17616e-05
0.00152151
9.51736e-06
0.00151933
3.99936e-06
0.00152449
-2.95693e-07
0.00153074
-6.21396e-06
0.00153449
-1.00414e-05
0.00153769
-1.14555e-05
0.00153917
-1.18239e-05
0.00154218
-1.39789e-05
0.00154528
-1.18355e-05
0.0015466
-9.30583e-06
0.0015462
-6.17707e-06
0.00154445
-5.03592e-06
0.00154011
-1.68247e-06
0.00153577
-3.98324e-07
0.00152926
1.08786e-06
0.00152292
-1.19257e-06
0.00151482
-9.08684e-07
0.00150721
-1.08399e-06
0.00150537
-3.98659e-06
0.00150584
-4.23293e-06
0.00150649
-4.06749e-06
0.00150785
-4.00274e-06
0.00150769
-3.46838e-06
0.0015068
-3.74611e-06
0.00150361
-2.69562e-06
0.0015013
-3.69156e-06
0.00149931
-2.96289e-06
0.00149836
-2.73071e-06
0.00149463
-2.50105e-06
0.00148681
-8.72265e-07
0.00147782
2.0045e-06
0.00144703
5.47815e-06
0.00141049
5.85579e-06
0.00135487
2.18875e-06
0.0012671
-3.67048e-07
0.0011549
-4.5529e-06
0.00101545
-1.08475e-05
0.000843518
-7.37254e-06
0.00067026
-8.79911e-06
0.000509946
-3.5597e-06
0.000372591
-2.37065e-07
0.000264387
-1.1448e-06
0.000190884
-1.83607e-06
0.000126806
-4.11216e-07
7.66188e-05
-3.43485e-07
4.64699e-05
1.05024e-07
2.78181e-05
-2.78521e-07
1.65887e-05
-3.76837e-07
1.09267e-05
-2.2768e-07
6.75634e-06
-5.16717e-08
3.44777e-06
1.27234e-08
1.89075e-06
-2.09194e-09
1.06122e-06
-1.61611e-09
5.89809e-07
-6.19621e-09
3.13101e-07
-1.22711e-08
1.6893e-07
-2.30629e-09
8.86727e-08
-7.24581e-10
4.56372e-08
2.50482e-10
2.273e-08
3.38739e-10
1.09786e-08
2.31618e-10
5.34717e-09
1.10844e-10
2.6198e-09
-6.58249e-12
1.07194e-09
-1.47638e-11
-1.25979e-11
2.75338e-09
-7.27762e-09
4.39991e-09
-6.75983e-09
9.00855e-09
-6.62113e-09
1.76241e-08
-6.21466e-09
2.98798e-08
-6.38412e-09
5.58018e-08
-6.73772e-09
9.76384e-08
-7.06055e-09
1.71449e-07
-5.97042e-09
2.95295e-07
-2.3953e-09
5.09614e-07
-6.54357e-09
9.54115e-07
-1.59808e-08
1.79581e-06
-2.5192e-08
3.15004e-06
-6.48196e-08
5.58397e-06
-9.39565e-08
9.41567e-06
-1.19799e-07
1.57707e-05
-2.34489e-08
2.53413e-05
1.27306e-07
3.96478e-05
6.47934e-07
6.34863e-05
8.5547e-08
0.000100648
-1.4192e-06
0.000152759
-2.35438e-06
0.000223476
-1.72582e-06
0.000315367
5.62468e-07
0.000427484
9.98649e-07
0.00056029
-3.55564e-07
0.000703199
8.89719e-07
0.000861153
6.47228e-06
0.00102234
1.03138e-05
0.00116852
1.08187e-05
0.00129511
7.54722e-06
0.00139033
1.23893e-05
0.00145848
1.70438e-05
0.00150476
1.48998e-05
0.00152311
1.33358e-05
0.00153071
1.89344e-05
0.00153497
1.86137e-05
0.00153406
1.76216e-05
0.00153194
1.54813e-05
0.0015344
6.72738e-06
0.0015351
9.26577e-07
0.00153503
-4.55099e-06
0.00153706
-8.63051e-06
0.00153927
-1.0542e-05
0.0015413
-1.24324e-05
0.00154403
-1.16532e-05
0.00154579
-9.83139e-06
0.00154713
-7.61621e-06
0.00154794
-7.53626e-06
0.00154803
-7.72009e-06
0.00154473
-7.6643e-06
0.00153857
-5.67449e-06
0.00153167
-8.72957e-06
0.00152189
-9.04028e-06
0.00151431
-7.85128e-06
0.00151209
-8.96151e-06
0.00151399
-9.30607e-06
0.00151743
-8.34774e-06
0.00152039
-7.68205e-06
0.00152161
-6.0354e-06
0.00152038
-4.94189e-06
0.00151796
-3.3716e-06
0.00151532
-4.08367e-06
0.00151364
-2.94095e-06
0.00151148
-2.01056e-06
0.00150824
-1.78913e-06
0.00150156
-5.6527e-07
0.00149237
2.36122e-06
0.00147261
2.04943e-06
0.00143344
3.92891e-06
0.00137985
7.54584e-07
0.00128048
5.24058e-06
0.00115586
3.78951e-06
0.000996939
6.66343e-06
0.000839383
5.68237e-06
0.000653339
-8.26142e-08
0.000493968
-3.41318e-06
0.000358914
-4.33096e-06
0.000253205
-4.86974e-06
0.000180074
-6.10129e-06
0.00011992
-1.61839e-06
7.51446e-05
-2.90383e-07
4.73654e-05
-4.17394e-07
2.88774e-05
-2.69225e-07
1.76401e-05
-1.49291e-07
1.06133e-05
-4.36741e-08
6.40712e-06
9.64649e-08
3.31162e-06
1.10305e-07
1.81645e-06
-3.13299e-08
1.05801e-06
-3.73605e-08
6.10497e-07
-2.29719e-08
3.08341e-07
-1.28184e-10
1.61652e-07
3.71608e-10
8.21485e-08
2.11527e-09
4.20231e-08
1.47555e-09
2.05801e-08
1.36527e-09
1.01985e-08
5.53109e-10
5.14892e-09
1.0436e-10
2.49929e-09
-3.94189e-11
1.03968e-09
-2.64359e-11
-2.66259e-11
2.72305e-09
-7.85752e-09
6.4385e-09
-7.70836e-09
1.13065e-08
-6.75734e-09
1.88534e-08
-7.24589e-09
3.4149e-08
-8.09586e-09
5.79954e-08
-7.91445e-09
9.47504e-08
-8.5744e-09
1.58402e-07
-5.84411e-09
2.97272e-07
-5.19494e-09
5.02988e-07
7.58549e-09
9.12949e-07
-1.24461e-08
1.68252e-06
-3.19495e-08
2.92011e-06
-1.00742e-08
5.06763e-06
9.70295e-09
8.56623e-06
2.6175e-08
1.49308e-05
-6.21971e-08
2.49483e-05
-2.23601e-08
4.0797e-05
1.39692e-07
6.39102e-05
7.78362e-08
9.77742e-05
-7.74404e-07
0.000144738
-4.9056e-07
0.000213427
-5.57314e-07
0.000308342
-2.17069e-06
0.00042269
-3.94574e-06
0.000560063
-7.41118e-06
0.000704645
-5.58969e-06
0.000873045
-3.40573e-06
0.00101834
6.9398e-06
0.00115741
9.57504e-06
0.00129349
1.18431e-05
0.0013812
1.26097e-05
0.00145264
1.29523e-05
0.0014903
1.89477e-05
0.00151498
2.03721e-05
0.00153504
1.98274e-05
0.00154199
1.85145e-05
0.00154306
1.92039e-05
0.00154748
1.72755e-05
0.00154537
1.56694e-05
0.00154621
7.31106e-06
0.0015443
2.59358e-06
0.00154334
-3.47785e-06
0.00154359
-6.50419e-06
0.00154441
-8.89167e-06
0.00154655
-9.50374e-06
0.00154939
-9.6853e-06
0.00155285
-9.56536e-06
0.00155529
-1.04144e-05
0.00155717
-1.22074e-05
0.00155219
-1.20067e-05
0.00154446
-1.27885e-05
0.00153074
-1.28667e-05
0.00151713
-1.27807e-05
0.00151119
-1.33359e-05
0.00150931
-1.48122e-05
0.00151152
-1.40373e-05
0.00151586
-1.28989e-05
0.00151877
-1.03546e-05
0.00152035
-8.44975e-06
0.00151923
-6.2348e-06
0.00151809
-5.3252e-06
0.00151483
-4.89848e-06
0.00151289
-3.24513e-06
0.00150997
-1.27107e-06
0.00150495
4.13269e-07
0.00150048
2.92857e-06
0.00149271
2.41511e-06
0.00146902
-3.58933e-07
0.00143088
1.538e-06
0.00138307
1.28358e-06
0.00129129
8.61628e-06
0.00117181
1.44217e-05
0.00103089
1.17319e-05
0.000870217
7.98534e-06
0.000693252
5.26564e-06
0.000530457
1.46333e-06
0.000386911
2.74512e-07
0.000272452
-1.13629e-06
0.00018355
-1.25706e-06
0.000120748
-8.00812e-07
7.56149e-05
7.1861e-07
4.75035e-05
-1.92777e-07
2.90203e-05
-1.84006e-07
1.74253e-05
1.04453e-07
9.87468e-06
4.05095e-07
5.86503e-06
-2.53506e-08
3.46573e-06
-5.96981e-08
1.94374e-06
-1.96417e-08
1.09162e-06
-1.39711e-08
5.85937e-07
-2.25638e-09
2.88487e-07
8.35016e-09
1.43461e-07
8.49287e-10
7.2026e-08
8.62297e-10
3.69907e-08
4.87623e-10
1.91598e-08
1.30195e-10
1.1128e-08
2.94397e-11
5.9335e-09
6.93972e-11
2.71492e-09
5.41516e-11
1.14371e-09
3.7477e-11
1.22316e-11
2.50144e-09
-5.82479e-09
6.28388e-09
-5.99996e-09
1.25208e-08
-7.55966e-09
2.0525e-08
-8.2415e-09
3.50621e-08
-8.93201e-09
5.71312e-08
-9.58968e-09
8.94479e-08
-9.11931e-09
1.63636e-07
-9.84575e-09
2.99741e-07
-9.1174e-09
5.64745e-07
-9.15833e-09
9.67754e-07
-6.14491e-09
1.73553e-06
-4.63306e-08
3.06583e-06
-3.00007e-08
5.33504e-06
-4.21999e-08
9.04758e-06
-7.9754e-08
1.58036e-05
-2.74365e-07
2.56716e-05
-4.54519e-07
4.29849e-05
-8.28679e-07
6.76254e-05
-9.66685e-07
0.000100293
-6.11846e-07
0.000150777
-1.16324e-06
0.000222954
-2.48359e-06
0.000310328
-4.76245e-06
0.000419531
-5.80825e-06
0.000546574
-5.50992e-06
0.000692094
-3.82882e-06
0.000854915
-3.30761e-06
0.00103188
8.89458e-07
0.00117995
7.91959e-06
0.00128129
1.20727e-05
0.00137426
1.199e-05
0.00144487
1.32952e-05
0.0014946
1.46205e-05
0.00151966
1.63085e-05
0.00153107
1.77922e-05
0.00153692
1.54301e-05
0.00154388
1.32455e-05
0.00155055
1.47199e-05
0.00155644
1.39471e-05
0.00155521
1.3552e-05
0.00155523
7.9316e-06
0.00155476
2.47271e-06
0.00155519
-1.98945e-06
0.00155557
-4.9307e-06
0.00155664
-6.61096e-06
0.00155864
-8.19303e-06
0.00156143
-1.00389e-05
0.00156335
-1.20413e-05
0.00156172
-1.31629e-05
0.00155738
-1.39345e-05
0.00154569
-1.3302e-05
0.00152974
-1.40751e-05
0.00151593
-1.50701e-05
0.00150365
-1.41787e-05
0.00150005
-1.66045e-05
0.00149956
-1.49869e-05
0.0015007
-1.43698e-05
0.00150233
-1.13015e-05
0.00150259
-9.29168e-06
0.00150226
-7.70675e-06
0.00149934
-5.89719e-06
0.00149552
-3.66008e-06
0.0014926
-2.61438e-06
0.0014906
-7.77477e-07
0.00148522
2.27517e-07
0.00148026
7.99829e-07
0.00147661
2.32674e-06
0.00145879
3.65217e-07
0.00142855
-4.18992e-06
0.00137351
-2.15597e-06
0.00128981
-2.2123e-06
0.00119917
2.83092e-06
0.00107769
8.40442e-06
0.000888655
1.68636e-05
0.000718387
1.03631e-05
0.000550931
1.01707e-05
0.000404103
7.64453e-06
0.000284318
6.32276e-06
0.000192767
4.02885e-06
0.000126369
2.92378e-06
8.31196e-05
1.77877e-06
5.04058e-05
1.53401e-06
2.91333e-05
1.00293e-06
1.68116e-05
5.1825e-07
1.08515e-05
2.61786e-07
6.45505e-06
2.36476e-07
3.59042e-06
1.36666e-07
2.04655e-06
8.74765e-08
1.09361e-06
5.42264e-08
5.6479e-07
2.34537e-08
2.98241e-07
1.24225e-08
1.51108e-07
4.68285e-09
7.87292e-08
2.23895e-09
3.95877e-08
6.90229e-10
2.1008e-08
3.6322e-10
1.18569e-08
1.00262e-10
6.02163e-09
3.3971e-10
2.6931e-09
2.58039e-10
1.15774e-09
1.12458e-10
7.71451e-11
3.89038e-09
-3.69104e-09
8.94497e-09
-4.19775e-09
1.47326e-08
-5.88729e-09
2.21738e-08
-6.53411e-09
3.40806e-08
-8.13795e-09
5.1572e-08
-8.0919e-09
8.69384e-08
-8.3851e-09
1.47849e-07
-6.89442e-09
2.72589e-07
-7.14469e-09
5.1346e-07
-1.97573e-08
9.53852e-07
-1.75434e-08
1.66017e-06
-4.30158e-08
2.95232e-06
-6.51415e-08
5.16237e-06
-1.27e-07
8.90256e-06
-1.78858e-07
1.51937e-05
-4.11749e-07
2.49806e-05
-5.97989e-07
4.03804e-05
-1.01226e-06
6.33709e-05
-1.00103e-06
9.75367e-05
-1.43077e-06
0.000146975
-2.26458e-06
0.000216415
-3.54521e-06
0.000303432
-4.65894e-06
0.000410674
-5.09992e-06
0.000533694
-3.67005e-06
0.000681487
-1.39708e-06
0.000839081
1.53468e-06
0.0010156
-8.28097e-08
0.00116569
7.27668e-06
0.00126634
1.27448e-05
0.00136157
1.12075e-05
0.00143396
1.33953e-05
0.001483
1.02732e-05
0.00150579
1.02313e-05
0.00152139
1.1726e-05
0.00153103
8.34456e-06
0.0015409
7.06916e-06
0.00155103
8.16549e-06
0.00155898
9.24482e-06
0.00156514
1.08043e-05
0.0015683
9.31312e-06
0.00157166
4.16414e-06
0.00157274
1.44417e-06
0.00157336
-1.68797e-06
0.00157385
-3.43942e-06
0.00157479
-5.69922e-06
0.00157447
-7.9124e-06
0.00157273
-9.78682e-06
0.0015703
-1.2133e-05
0.00156164
-1.16726e-05
0.00154766
-1.23243e-05
0.00152979
-1.21411e-05
0.00151054
-1.07467e-05
0.0014986
-1.13388e-05
0.00148734
-1.15455e-05
0.00148402
-1.2879e-05
0.00148302
-1.25495e-05
0.00147999
-9.35149e-06
0.001479
-8.47681e-06
0.00147553
-6.30801e-06
0.00147152
-4.79411e-06
0.00146882
-3.02302e-06
0.00146465
-5.49165e-07
0.00146306
-4.13385e-08
0.00146219
-6.63705e-07
0.00145517
-1.51998e-06
0.00144702
-1.54165e-07
0.0014358
-2.56179e-07
0.00140584
-5.46394e-06
0.0013537
-5.06904e-06
0.00126306
-5.55382e-06
0.0011612
-8.72639e-07
0.00101357
8.58435e-06
0.000852559
1.31373e-05
0.000679434
1.20463e-05
0.000519081
1.08156e-05
0.000379043
9.40625e-06
0.000265634
7.34023e-06
0.000180475
5.61842e-06
0.000117125
3.6332e-06
7.6845e-05
2.03402e-06
4.74658e-05
1.38432e-06
2.7832e-05
1.50801e-06
1.60605e-05
6.89516e-07
9.95018e-06
3.12437e-07
5.86864e-06
3.48423e-07
3.30588e-06
2.30326e-07
1.82555e-06
1.31733e-07
1.00317e-06
6.39522e-08
5.33868e-07
3.97702e-08
2.84168e-07
1.81253e-08
1.46551e-07
9.76194e-09
7.67572e-08
4.65736e-09
3.79753e-08
2.30852e-09
1.9582e-08
1.30437e-09
9.62667e-09
5.52481e-10
4.71832e-09
3.05458e-10
2.27301e-09
1.97517e-10
9.53031e-10
1.01222e-10
6.90048e-11
6.65831e-09
-1.52361e-09
1.17182e-08
-2.05179e-09
1.9232e-08
-3.18965e-09
2.73339e-08
-4.30366e-09
3.92896e-08
-4.19305e-09
5.68158e-08
-4.14474e-09
8.16602e-08
-4.32147e-09
1.37746e-07
-2.87144e-09
2.43098e-07
-7.46341e-10
4.14559e-07
3.65099e-09
7.80045e-07
8.80935e-10
1.38879e-06
9.19513e-09
2.48268e-06
1.72112e-08
4.36497e-06
3.51591e-08
7.66113e-06
2.37286e-08
1.29825e-05
2.77762e-08
2.17438e-05
-6.89611e-09
3.5324e-05
-6.43536e-09
5.60786e-05
2.08304e-07
8.73651e-05
3.09884e-07
0.000131624
5.08911e-07
0.000194226
1.58651e-07
0.00027738
-2.01289e-07
0.000382689
-2.56889e-07
0.000506966
2.69716e-07
0.000651334
2.00161e-06
0.000808837
2.56913e-06
0.00096657
2.42931e-06
0.00111667
3.75251e-06
0.00124177
3.63195e-06
0.00134301
4.63557e-06
0.00142232
4.3271e-06
0.00147498
2.8433e-06
0.00150694
3.20348e-06
0.00152699
3.25426e-06
0.00154067
2.29943e-06
0.00155046
7.28888e-07
0.00155921
2.30674e-06
0.00156582
5.83876e-06
0.00157404
5.41283e-06
0.00158079
4.88425e-06
0.00158474
3.18302e-06
0.00158805
1.49779e-06
0.00158946
1.74569e-07
0.00159007
-1.44617e-06
0.00158931
-2.57095e-06
0.00158824
-4.31196e-06
0.00158485
-5.87961e-06
0.00157722
-6.82226e-06
0.00156696
-7.06807e-06
0.00155005
-7.14153e-06
0.0015295
-7.00958e-06
0.00151048
-6.24852e-06
0.001493
-5.18537e-06
0.00148307
-6.52552e-06
0.00147578
-6.82798e-06
0.00146929
-7.15512e-06
0.00146487
-5.28752e-06
0.0014599
-5.17247e-06
0.00145631
-4.24872e-06
0.00145173
-3.12808e-06
0.00144951
-3.12067e-06
0.00144703
1.19475e-06
0.00144716
1.08665e-06
0.00144732
9.69538e-07
0.00144317
1.54323e-06
0.00143544
1.40484e-06
0.00142027
2.19926e-06
0.00138468
1.25049e-06
0.00132589
-3.11607e-08
0.00123202
-4.87248e-07
0.00110941
2.43163e-06
0.000958722
5.35459e-06
0.000799126
5.28598e-06
0.000630009
4.85841e-06
0.00047701
3.77228e-06
0.000344156
2.63955e-06
0.000239567
1.79216e-06
0.000160909
1.10768e-06
0.0001044
3.96485e-07
6.5828e-05
-3.70254e-08
4.02916e-05
-5.63604e-08
2.42889e-05
1.69073e-08
1.42877e-05
9.19408e-09
8.21578e-06
-5.00129e-08
4.78737e-06
2.73756e-08
2.70146e-06
2.3341e-08
1.51078e-06
1.73665e-08
8.14244e-07
9.50398e-09
4.35295e-07
5.40813e-09
2.31374e-07
1.24428e-09
1.1929e-07
-1.44052e-11
6.23619e-08
-3.03662e-10
3.05921e-08
-3.13593e-10
1.59498e-08
-2.90247e-10
7.80718e-09
-1.246e-10
3.85725e-09
-4.71257e-11
1.86194e-09
-1.44997e-11
7.60167e-10
1.29528e-11
5.87568e-12
8.95715e-09
1.5611e-08
2.41572e-08
3.35381e-08
4.65419e-08
6.66464e-08
9.32921e-08
1.51693e-07
2.64751e-07
4.68923e-07
8.51416e-07
1.53591e-06
2.74906e-06
4.85725e-06
8.41241e-06
1.42574e-05
2.36597e-05
3.83322e-05
6.09551e-05
9.43635e-05
0.000142572
0.000208625
0.000295513
0.000405788
0.000534954
0.000683923
0.000840054
0.000998687
0.00114404
0.00126781
0.00136664
0.00144243
0.0014888
0.00152221
0.00154117
0.00155437
0.00155969
0.00156554
0.00157319
0.00157906
0.00158585
0.00159025
0.00159449
0.00159762
0.00159873
0.00159847
0.001596
0.00159013
0.00158144
0.00156803
0.00154999
0.00152856
0.00150838
0.00149298
0.00148166
0.00147263
0.00146477
0.0014589
0.00145322
0.00144762
0.00144288
0.00143815
0.00144049
0.00144356
0.00144552
0.00144611
0.00144255
0.00143064
0.00140227
0.00134715
0.00126035
0.00114094
0.000993621
0.000827979
0.000656259
0.000499292
0.000361686
0.000253489
0.000170781
0.000111707
7.07711e-05
4.36683e-05
2.62957e-05
1.564e-05
8.98186e-06
5.22886e-06
2.91312e-06
1.63e-06
8.85447e-07
4.76633e-07
2.56314e-07
1.33303e-07
7.01987e-08
3.51103e-08
1.77277e-08
8.62333e-09
4.25044e-09
1.99338e-09
8.19387e-10
)
;

boundaryField
{
    sides1
    {
        type            calculated;
        value           nonuniform List<scalar> 
20
(
1.22637e-10
1.2007e-10
1.46295e-10
1.6751e-10
1.58402e-10
1.68191e-10
1.74975e-10
1.41544e-10
1.071e-10
1.0902e-10
-5.99361e-09
-5.70366e-09
-4.37672e-09
-3.51655e-09
-1.6023e-09
2.46199e-10
1.60739e-09
4.18223e-10
-1.37533e-09
-2.77974e-09
)
;
    }
    sides2
    {
        type            calculated;
        value           uniform 0;
    }
    empty
    {
        type            empty;
        value           nonuniform 0();
    }
}


// ************************************************************************* //
