/*--------------------------------*- C++ -*----------------------------------*\
| =========                 |                                                 |
| \\      /  F ield         | OpenFOAM: The Open Source CFD Toolbox           |
|  \\    /   O peration     | Version:  3.0.1                                 |
|   \\  /    A nd           | Web:      www.OpenFOAM.org                      |
|    \\/     M anipulation  |                                                 |
\*---------------------------------------------------------------------------*/
FoamFile
{
    version     2.0;
    format      ascii;
    class       volScalarField;
    location    "0.00025";
    object      T;
}
// * * * * * * * * * * * * * * * * * * * * * * * * * * * * * * * * * * * * * //

dimensions      [0 0 0 1 0 0 0];

internalField   nonuniform List<scalar> 
1000
(
289
289
289
289
289
289
289
289
289
289
288.999
288.998
288.996
288.993
288.987
288.978
288.962
288.936
288.896
288.829
288.733
288.587
288.389
288.113
287.756
287.308
286.773
286.164
285.514
284.856
284.262
283.744
283.36
283.089
282.928
282.824
282.758
282.719
282.702
282.701
282.691
282.648
282.564
282.466
282.404
282.388
282.432
282.652
283.274
284.57
286.694
289.461
292.254
294.369
295.478
295.811
295.839
295.765
295.63
295.551
295.54
295.556
295.577
295.588
295.582
295.552
295.484
295.361
295.152
294.819
294.351
293.733
293.024
292.247
291.516
290.852
290.313
289.893
289.584
289.374
289.23
289.14
289.083
289.048
289.028
289.016
289.009
289.005
289.003
289.001
289.001
289
289
289
289
289
289
289
289
289
289
289
289
289
289
289
289
289
289
289
288.999
288.998
288.996
288.993
288.987
288.978
288.962
288.936
288.896
288.826
288.73
288.58
288.377
288.101
287.732
287.293
286.767
286.16
285.506
284.853
284.255
283.748
283.361
283.095
282.927
282.82
282.759
282.73
282.715
282.723
282.71
282.669
282.582
282.482
282.42
282.405
282.454
282.679
283.314
284.623
286.734
289.463
292.227
294.311
295.427
295.78
295.821
295.756
295.637
295.564
295.553
295.568
295.586
295.589
295.577
295.536
295.471
295.341
295.136
294.82
294.345
293.748
293.031
292.264
291.507
290.855
290.313
289.893
289.581
289.373
289.229
289.14
289.083
289.047
289.028
289.015
289.009
289.004
289.003
289.001
289.001
289
289
289
289
289
289
289
289
289
289
289
289
289
289
289
289
289
289
289
288.999
288.998
288.996
288.992
288.987
288.977
288.961
288.935
288.89
288.821
288.715
288.558
288.349
288.049
287.685
287.234
286.794
286.129
285.518
284.848
284.257
283.744
283.36
283.096
282.912
282.811
282.743
282.727
282.732
282.74
282.734
282.693
282.608
282.517
282.458
282.451
282.503
282.747
283.404
284.715
286.798
289.474
292.137
294.19
295.303
295.697
295.764
295.727
295.643
295.581
295.568
295.581
295.595
295.6
295.569
295.526
295.427
295.327
295.069
294.805
294.257
293.71
292.975
292.272
291.481
290.88
290.322
289.906
289.591
289.375
289.241
289.143
289.089
289.047
289.031
289.016
289.01
289.004
289.003
289.001
289.001
289
289
289
289
289
289
289
289
289
289
289
289
289
289
289
289
289
289
288.999
288.999
288.998
288.996
288.992
288.987
288.975
288.959
288.934
288.887
288.816
288.697
288.55
288.315
288.023
287.616
287.197
286.829
286.114
285.556
284.842
284.258
283.739
283.366
283.1
282.916
282.812
282.75
282.728
282.742
282.745
282.735
282.699
282.63
282.547
282.511
282.516
282.575
282.823
283.471
284.774
286.841
289.45
292.074
294.057
295.188
295.619
295.71
295.696
295.645
295.593
295.579
295.588
295.598
295.586
295.546
295.461
295.414
295.222
295.045
294.691
294.229
293.654
293.011
292.318
291.568
290.9
290.335
289.92
289.603
289.383
289.245
289.145
289.091
289.047
289.031
289.019
289.01
289.005
289.003
289.001
289.001
289
289
289
289
289
289
289
289
289
289
289
289
289
289
289
289
289
289
288.999
288.999
288.998
288.996
288.992
288.986
288.975
288.958
288.932
288.886
288.818
288.701
288.547
288.315
288.007
287.634
287.16
286.676
286.089
285.418
284.839
284.201
283.772
283.382
283.133
282.951
282.85
282.76
282.735
282.739
282.736
282.725
282.694
282.635
282.581
282.556
282.566
282.63
282.868
283.493
284.778
286.827
289.445
292.039
294.017
295.142
295.591
295.694
295.691
295.654
295.604
295.58
295.581
295.579
295.561
295.524
295.471
295.361
295.2
294.975
294.698
294.194
293.685
293.003
292.439
291.593
290.929
290.381
289.921
289.609
289.384
289.244
289.148
289.089
289.052
289.031
289.018
289.01
289.005
289.003
289.001
289.001
289
289
289
289
289
289
289
289
289
289
289
289
289
289
289
289
289
289
288.999
288.999
288.998
288.996
288.992
288.987
288.975
288.958
288.929
288.888
288.819
288.713
288.55
288.312
287.989
287.636
287.142
286.614
286.006
285.389
284.971
284.229
283.769
283.393
283.163
282.933
282.834
282.757
282.729
282.722
282.716
282.702
282.678
282.64
282.601
282.587
282.594
282.649
282.859
283.467
284.731
286.812
289.451
292.075
294.049
295.152
295.593
295.696
295.694
295.66
295.61
295.583
295.578
295.565
295.542
295.497
295.461
295.353
295.179
294.988
294.719
294.225
293.668
293.031
292.344
291.602
290.932
290.383
289.94
289.62
289.398
289.249
289.149
289.091
289.054
289.031
289.018
289.01
289.005
289.003
289.002
289.001
289
289
289
289
289
289
289
289
289
289
289
289
289
289
289
289
289
288.999
288.999
288.999
288.998
288.997
288.992
288.987
288.975
288.957
288.929
288.89
288.819
288.716
288.553
288.303
288.012
287.646
287.156
286.646
285.993
285.425
284.799
284.253
283.747
283.394
283.094
282.919
282.814
282.757
282.73
282.71
282.697
282.688
282.672
282.645
282.614
282.6
282.604
282.647
282.843
283.422
284.69
286.791
289.485
292.138
294.102
295.181
295.6
295.695
295.694
295.654
295.605
295.575
295.572
295.562
295.541
295.495
295.446
295.421
295.25
295.053
294.724
294.226
293.65
293.054
292.311
291.63
290.922
290.397
289.941
289.631
289.399
289.257
289.142
289.092
289.05
289.032
289.018
289.01
289.006
289.003
289.002
289.001
289
289
289
289
289
289
289
289
289
289
289
289
289
289
289
289
289
289
288.999
288.998
288.998
288.996
288.993
288.987
288.977
288.959
288.933
288.89
288.823
288.719
288.56
288.342
288.03
287.652
287.181
286.655
286.013
285.392
284.767
284.163
283.695
283.357
283.082
282.912
282.817
282.766
282.742
282.72
282.705
282.684
282.668
282.645
282.618
282.605
282.605
282.642
282.832
283.409
284.669
286.787
289.514
292.171
294.139
295.201
295.603
295.695
295.686
295.651
295.596
295.569
295.565
295.561
295.555
295.531
295.476
295.421
295.33
295.106
294.782
294.265
293.709
292.952
292.282
291.528
290.904
290.354
289.924
289.612
289.387
289.233
289.142
289.087
289.051
289.026
289.018
289.009
289.005
289.003
289.001
289.001
289
289
289
289
289
289
289
289
289
289
289
289
289
289
289
289
289
289
288.999
288.999
288.998
288.996
288.993
288.987
288.979
288.962
288.936
288.893
288.827
288.724
288.572
288.358
288.056
287.669
287.194
286.641
286.023
285.362
284.731
284.14
283.677
283.312
283.081
282.914
282.834
282.77
282.75
282.733
282.716
282.693
282.664
282.634
282.611
282.598
282.6
282.639
282.836
283.417
284.683
286.794
289.513
292.181
294.145
295.202
295.601
295.684
295.679
295.637
295.591
295.566
295.562
295.564
295.564
295.556
295.525
295.462
295.354
295.143
294.825
294.34
293.748
293.024
292.274
291.518
290.861
290.324
289.892
289.594
289.371
289.23
289.139
289.082
289.047
289.027
289.015
289.009
289.004
289.003
289.001
289.001
289
289
289
289
289
289
289
289
289
289
289
289
289
289
289
289
289
288.999
288.999
288.999
288.998
288.996
288.993
288.987
288.979
288.962
288.936
288.892
288.827
288.723
288.572
288.358
288.06
287.671
287.196
286.629
286.013
285.348
284.713
284.142
283.671
283.309
283.078
282.924
282.833
282.773
282.748
282.736
282.712
282.693
282.655
282.627
282.601
282.591
282.592
282.638
282.842
283.433
284.695
286.802
289.509
292.175
294.137
295.196
295.588
295.674
295.666
295.628
295.584
295.564
295.564
295.571
295.576
295.572
295.544
295.484
295.368
295.162
294.831
294.359
293.751
293.023
292.264
291.501
290.851
290.306
289.887
289.588
289.37
289.232
289.138
289.083
289.047
289.028
289.015
289.009
289.004
289.003
289.001
289.001
289
289
289
289
289
289
289
289
289
)
;

boundaryField
{
    sides1
    {
        type            zeroGradient;
    }
    sides2
    {
        type            slip;
    }
    empty
    {
        type            empty;
    }
}


// ************************************************************************* //
