/*--------------------------------*- C++ -*----------------------------------*\
| =========                 |                                                 |
| \\      /  F ield         | OpenFOAM: The Open Source CFD Toolbox           |
|  \\    /   O peration     | Version:  2012                                  |
|   \\  /    A nd           | Website:  www.openfoam.com                      |
|    \\/     M anipulation  |                                                 |
\*---------------------------------------------------------------------------*/
FoamFile
{
    version     2.0;
    format      ascii;
    class       volScalarField;
    location    "0.36";
    object      p_rgh;
}
// * * * * * * * * * * * * * * * * * * * * * * * * * * * * * * * * * * * * * //

dimensions      [1 -1 -2 0 0 0 0];


internalField   nonuniform List<scalar> 
2268
(
102405
102405
102404
102404
102405
102405
102407
102410
102416
102423
102439
102449
102478
102501
102543
102583
102642
102701
102776
102848
102924
102984
103023
102404
102404
102403
102403
102404
102404
102406
102409
102415
102422
102437
102448
102476
102499
102541
102581
102639
102699
102773
102845
102921
102981
103019
102402
102402
102402
102402
102402
102403
102404
102407
102413
102420
102435
102445
102473
102496
102539
102577
102637
102696
102772
102846
102926
102992
103037
102400
102400
102399
102399
102399
102400
102401
102404
102409
102416
102430
102440
102467
102489
102531
102570
102628
102689
102763
102840
102917
102985
103020
102397
102397
102397
102396
102396
102397
102398
102400
102405
102412
102425
102435
102462
102483
102525
102564
102623
102682
102759
102837
102922
102998
103058
102393
102393
102392
102392
102391
102391
102392
102394
102398
102404
102416
102427
102452
102472
102512
102551
102608
102668
102744
102827
102910
102996
103035
102389
102389
102388
102387
102387
102387
102387
102389
102393
102398
102410
102420
102444
102463
102504
102541
102599
102658
102736
102818
102908
102998
103071
102383
102382
102382
102381
102380
102379
102379
102380
102383
102388
102397
102407
102429
102447
102484
102521
102576
102635
102712
102799
102890
103001
103057
103155
103155
103155
103155
103155
103155
103155
103155
103155
103155
103155
103155
103155
103155
103156
103156
103156
103157
103157
103155
103155
103155
103155
103155
103155
103155
103155
103155
103155
103155
103155
103155
103155
103156
103156
103156
103157
103157
103155
103154
103155
103155
103155
103155
103155
103155
103155
103155
103155
103155
103155
103155
103155
103156
103156
103157
103157
103155
103154
103155
103155
103155
103155
103155
103155
103155
103155
103155
103155
103155
103155
103155
103156
103156
103157
103157
103154
103154
103154
103154
103155
103154
103155
103155
103155
103155
103155
103155
103155
103155
103155
103156
103156
103157
103157
103154
103154
103154
103154
103155
103154
103155
103155
103155
103155
103155
103155
103155
103155
103155
103155
103156
103156
103157
103154
103154
103154
103154
103154
103154
103154
103154
103155
103154
103155
103154
103155
103155
103155
103155
103155
103156
103157
103154
103154
103154
103154
103154
103154
103154
103154
103154
103154
103154
103154
103154
103154
103154
103155
103155
103156
103157
102375
102374
102373
102372
102371
102370
102370
102370
102372
102375
102384
102392
102412
102429
102466
102499
102557
102613
102694
102778
102880
102987
103069
102355
102355
102353
102351
102349
102346
102344
102342
102342
102342
102346
102351
102364
102376
102403
102428
102478
102527
102610
102697
102819
102961
103131
102338
102337
102336
102333
102330
102326
102323
102319
102316
102312
102312
102312
102320
102328
102353
102377
102427
102469
102542
102613
102701
102812
102940
102176
102170
102162
102145
102125
102101
102073
102040
102010
101974
101948
101918
101908
101895
101919
101959
102031
102144
102304
102479
102587
102729
102872
101498
101492
101484
101470
101454
101437
101418
101398
101383
101365
101355
101344
101341
101341
101342
101353
101378
101425
101518
101689
101963
102320
102605
101338
101338
101338
101338
101338
101338
101339
101339
101339
101339
101339
101340
101340
101340
101341
101341
101341
101342
101343
101350
101378
101501
101779
101338
101338
101338
101338
101338
101338
101338
101338
101339
101339
101339
101340
101340
101340
101341
101341
101341
101342
101342
101343
101343
101345
101358
101338
101338
101338
101338
101338
101338
101338
101339
101339
101339
101339
101340
101340
101340
101340
101341
101341
101342
101342
101343
101343
101344
101344
101338
101338
101338
101338
101338
101338
101338
101338
101339
101339
101339
101339
101340
101340
101340
101341
101341
101341
101342
101342
101343
101343
101344
101338
101338
101338
101338
101338
101338
101338
101338
101338
101339
101339
101339
101339
101340
101340
101340
101341
101341
101342
101342
101343
101343
101344
101337
101337
101337
101337
101338
101338
101338
101338
101338
101338
101339
101339
101339
101339
101340
101340
101341
101341
101341
101342
101342
101343
101344
101337
101337
101337
101337
101337
101338
101338
101338
101338
101338
101338
101339
101339
101339
101340
101340
101340
101341
101341
101342
101342
101343
101343
101337
101337
101337
101337
101337
101337
101337
101338
101338
101338
101338
101338
101339
101339
101339
101340
101340
101340
101341
101341
101342
101342
101343
101337
101337
101337
101337
101337
101337
101337
101337
101338
101338
101338
101338
101338
101339
101339
101339
101340
101340
101341
101341
101342
101342
101343
101336
101336
101337
101337
101337
101337
101337
101337
101337
101337
101338
101338
101338
101338
101339
101339
101339
101340
101340
101341
101341
101341
101342
101336
101336
101336
101336
101336
101337
101337
101337
101337
101337
101337
101338
101338
101338
101338
101339
101339
101339
101340
101340
101341
101341
101342
101336
101336
101336
101336
101336
101336
101336
101336
101337
101337
101337
101337
101337
101338
101338
101338
101339
101339
101339
101340
101340
101340
101341
101336
101336
101336
101336
101336
101336
101336
101336
101336
101336
101337
101337
101337
101337
101338
101338
101338
101338
101339
101339
101340
101340
101340
101335
101335
101335
101335
101335
101336
101336
101336
101336
101336
101336
101336
101337
101337
101337
101337
101338
101338
101338
101339
101339
101339
101340
101335
101335
101335
101335
101335
101335
101335
101335
101336
101336
101336
101336
101336
101336
101337
101337
101337
101337
101338
101338
101338
101339
101339
101335
101335
101335
101335
101335
101335
101335
101335
101335
101335
101335
101336
101336
101336
101336
101336
101337
101337
101337
101337
101338
101338
101338
101334
101334
101334
101334
101334
101335
101335
101335
101335
101335
101335
101335
101335
101336
101336
101336
101336
101336
101337
101337
101337
101337
101337
101334
101334
101334
101334
101334
101334
101334
101334
101334
101334
101335
101335
101335
101335
101335
101335
101336
101336
101336
101336
101336
101337
101337
101334
101334
101334
101334
101334
101334
101334
101334
101334
101334
101334
101334
101334
101335
101335
101335
101335
101335
101335
101336
101336
101336
101336
101333
101333
101333
101333
101333
101333
101333
101333
101334
101334
101334
101334
101334
101334
101334
101334
101335
101335
101335
101335
101335
101335
101335
101333
101333
101333
101333
101333
101333
101333
101333
101333
101333
101333
101333
101334
101334
101334
101334
101334
101334
101334
101334
101335
101335
101335
101332
101332
101332
101332
101332
101332
101332
101333
101333
101333
101333
101333
101333
101333
101333
101333
101333
101334
101334
101334
101334
101334
101334
101332
101332
101332
101332
101332
101332
101332
101332
101332
101332
101332
101332
101333
101333
101333
101333
101333
101333
101333
101333
101333
101333
101334
101331
101331
101331
101331
101331
101332
101332
101332
101332
101332
101332
101332
101332
101332
101332
101332
101332
101332
101333
101333
101333
101333
101333
101331
101331
101331
101331
101331
101331
101331
101331
101331
101331
101331
101331
101332
101332
101332
101332
101332
101332
101332
101332
101332
101332
101332
101331
101331
101331
101331
101331
101331
101331
101331
101331
101331
101331
101331
101331
101331
101331
101331
101331
101331
101331
101331
101332
101332
101332
101330
101330
101330
101330
101330
101330
101330
101330
101330
101330
101330
101330
101330
101331
101331
101331
101331
101331
101331
101331
101331
101331
101331
101330
101330
101330
101330
101330
101330
101330
101330
101330
101330
101330
101330
101330
101330
101330
101330
101330
101330
101330
101330
101330
101330
101330
101329
101329
101329
101329
101329
101329
101329
101329
101329
101329
101329
101329
101329
101329
101330
101330
101330
101330
101330
101330
101330
101330
101330
101329
101329
101329
101329
101329
101329
101329
101329
101329
101329
101329
101329
101329
101329
101329
101329
101329
101329
101329
101329
101329
101329
101329
101328
101328
101328
101328
101328
101328
101328
101328
101328
101328
101328
101328
101328
101328
101328
101329
101329
101329
101329
101329
101329
101329
101329
101328
101328
101328
101328
101328
101328
101328
101328
101328
101328
101328
101328
101328
101328
101328
101328
101328
101328
101328
101328
101328
101328
101328
101327
101327
101327
101327
101327
101327
101327
101327
101327
101327
101327
101327
101327
101327
101327
101327
101327
101328
101328
101328
101328
101328
101328
101327
101327
101327
101327
101327
101327
101327
101327
101327
101327
101327
101327
101327
101327
101327
101327
101327
101327
101327
101327
101327
101327
101327
101326
101326
101326
101326
101326
101326
101326
101326
101326
101326
101326
101326
101326
101326
101326
101326
101326
101326
101326
101326
101326
101327
101327
101326
101326
101326
101326
101326
101326
101326
101326
101326
101326
101326
101326
101326
101326
101326
101326
101326
101326
101326
101326
101326
101326
101326
101325
101325
101325
101325
101325
101325
101325
101325
101325
101325
101325
101325
101325
101325
101325
101325
101325
101325
101325
101325
101325
101325
101325
103071
103426
103538
103166
103309
103442
103462
103672
103071
103193
103330
103438
102983
103084
103159
103286
102729
102806
102892
102979
102030
102210
102409
102627
101377
101413
101477
101571
101344
101345
101345
101348
101344
101345
101345
101345
101344
101344
101345
101345
101344
101344
101345
101345
101344
101344
101344
101345
101343
101344
101344
101344
101343
101343
101343
101344
101342
101343
101343
101343
101342
101342
101342
101343
101341
101341
101342
101342
101341
101341
101341
101341
101340
101340
101340
101340
101339
101339
101339
101339
101338
101338
101338
101338
101338
101338
101338
101338
101337
101337
101337
101337
101336
101336
101336
101336
101335
101335
101335
101335
101335
101335
101335
101335
101334
101334
101334
101334
101334
101334
101334
101334
101333
101333
101333
101333
101332
101332
101332
101332
101332
101332
101332
101332
101331
101331
101331
101331
101330
101330
101330
101330
101330
101330
101330
101330
101329
101329
101329
101329
101329
101329
101329
101329
101328
101328
101328
101328
101328
101328
101328
101328
101327
101327
101327
101327
101327
101327
101327
101327
101326
101326
101326
101326
101325
101325
101325
101325
103153
103153
103154
103154
103154
103154
103154
103154
103154
103154
103154
103154
103154
103154
103154
103154
103155
103156
103156
103275
103153
103153
103153
103154
103154
103154
103154
103154
103153
103154
103153
103153
103153
103153
103152
103152
103153
103154
103571
103364
103168
103153
103152
103152
103153
103153
103153
103152
103153
103152
103153
103152
103152
103150
103150
103148
103151
103442
103641
103737
103562
103417
103341
103252
103153
103153
103152
103153
103152
103151
103151
103151
103148
103147
103143
103147
103130
103313
103440
103602
103728
103801
103831
103837
103670
103489
103277
103151
103151
103150
103150
103148
103147
103144
103147
102829
103031
103192
103281
103344
103410
103494
103591
103722
103844
103937
103935
103633
103216
103149
103146
103147
103145
103148
101812
102208
102443
102599
102720
102824
102940
103096
103225
103352
103485
103703
103903
104066
103819
103272
103149
103148
103162
101359
101405
101473
101546
101620
101688
101767
101890
102089
102315
102591
103022
103375
103676
103977
104180
103776
103307
103402
101346
101346
101347
101349
101352
101355
101359
101366
101379
101414
101491
101674
102079
102934
103602
104020
104492
104485
104227
101346
101347
101348
101349
101350
101350
101351
101352
101353
101354
101358
101366
101370
101579
102429
103719
104377
104888
104460
101345
101346
101347
101348
101349
101350
101352
101353
101354
101355
101356
101357
101360
101361
101499
102758
104101
104645
104057
101345
101346
101347
101348
101349
101349
101350
101351
101353
101354
101356
101357
101360
101360
101363
101975
103741
104400
103648
101345
101345
101346
101347
101348
101349
101350
101351
101352
101353
101355
101356
101358
101358
101362
101693
103360
104128
103157
101344
101345
101346
101346
101347
101348
101349
101350
101351
101352
101354
101355
101358
101357
101362
101614
103233
103909
102848
101344
101344
101345
101345
101346
101347
101348
101349
101350
101351
101353
101353
101356
101355
101361
101570
103240
103767
102675
101343
101344
101344
101345
101345
101346
101347
101348
101349
101350
101352
101352
101354
101353
101358
101622
103239
103769
102814
101342
101343
101343
101344
101344
101345
101345
101346
101347
101348
101350
101350
101350
101350
101342
101548
102790
103589
102668
101341
101342
101342
101342
101343
101343
101343
101344
101345
101346
101347
101348
101347
101347
101341
101384
102863
102800
102096
101340
101341
101341
101341
101341
101340
101341
101341
101342
101343
101345
101345
101346
101346
101344
101392
102922
102886
102043
101340
101340
101339
101339
101339
101338
101338
101338
101339
101340
101342
101343
101344
101344
101345
101341
102556
103482
102168
101339
101338
101338
101337
101337
101336
101336
101335
101336
101338
101341
101341
101344
101343
101346
101342
101785
103399
102283
101338
101337
101337
101336
101336
101335
101334
101332
101333
101335
101338
101340
101342
101342
101345
101344
101346
102692
102918
101337
101336
101336
101335
101335
101333
101332
101330
101331
101333
101337
101339
101342
101342
101345
101345
101346
101494
102776
101336
101336
101335
101335
101335
101333
101332
101329
101330
101333
101337
101339
101342
101342
101345
101345
101348
101345
102543
101335
101335
101335
101334
101335
101334
101333
101331
101332
101334
101337
101339
101342
101343
101345
101345
101349
101344
101640
101335
101335
101335
101335
101335
101334
101334
101332
101333
101334
101338
101340
101343
101343
101346
101346
101348
101346
101353
101334
101334
101334
101335
101335
101335
101335
101334
101336
101336
101339
101341
101344
101345
101346
101345
101347
101346
101349
101334
101334
101334
101334
101335
101335
101335
101334
101336
101336
101339
101340
101347
101346
101348
101346
101347
101347
101349
101333
101333
101333
101333
101334
101334
101335
101334
101336
101335
101340
101342
101345
101346
101346
101345
101346
101346
101347
101332
101332
101333
101332
101333
101333
101333
101333
101334
101334
101334
101429
101392
101349
101350
101346
101345
101346
101346
101332
101332
101332
101332
101332
101332
101332
101332
101333
101332
101582
102939
103062
101912
101359
101342
101341
101343
101343
101331
101331
101331
101331
101330
101330
101330
101331
101331
101331
102307
103416
103424
102613
101370
101337
101337
101340
101341
101330
101330
101330
101330
101330
101329
101329
101330
101330
101330
101806
103058
103152
102138
101354
101333
101336
101337
101338
101330
101330
101330
101329
101329
101328
101328
101328
101329
101331
101361
101586
101567
101409
101341
101333
101335
101336
101337
101329
101329
101329
101329
101328
101328
101327
101328
101328
101330
101328
101328
101328
101328
101331
101332
101334
101335
101335
101329
101329
101329
101328
101328
101328
101327
101327
101327
101328
101328
101327
101328
101328
101329
101331
101332
101333
101334
101328
101328
101328
101328
101328
101327
101327
101327
101327
101327
101327
101327
101327
101327
101327
101327
101328
101330
101330
101328
101328
101328
101328
101327
101327
101327
101327
101327
101327
101327
101327
101327
101326
101324
101322
101322
101324
101326
101327
101327
101327
101327
101327
101327
101326
101326
101326
101326
101326
101326
101325
101324
101322
101318
101316
101319
101321
101327
101327
101327
101327
101327
101326
101326
101326
101326
101326
101326
101326
101325
101323
101318
101313
101308
101313
101317
101326
101326
101326
101326
101326
101326
101326
101326
101325
101325
101325
101325
101324
101322
101320
101314
101312
101315
101317
101326
101326
101326
101326
101325
101325
101325
101325
101325
101325
101325
101325
101325
101324
101323
101321
101319
101316
101317
)
;

boundaryField
{
    leftWall
    {
        type            zeroGradient;
    }
    rightWall
    {
        type            zeroGradient;
    }
    lowerWall
    {
        type            zeroGradient;
    }
    atmosphere
    {
        type            fixedValue;
        value           uniform 101325;
    }
    defaultFaces
    {
        type            empty;
    }
}


// ************************************************************************* //
