/*--------------------------------*- C++ -*----------------------------------*\
| =========                 |                                                 |
| \\      /  F ield         | OpenFOAM: The Open Source CFD Toolbox           |
|  \\    /   O peration     | Version:  2012                                  |
|   \\  /    A nd           | Website:  www.openfoam.com                      |
|    \\/     M anipulation  |                                                 |
\*---------------------------------------------------------------------------*/
FoamFile
{
    version     2.0;
    format      ascii;
    class       surfaceScalarField;
    location    "0.36";
    object      phi;
}
// * * * * * * * * * * * * * * * * * * * * * * * * * * * * * * * * * * * * * //

dimensions      [0 3 -1 0 0 0 0];
oriented        oriented;


internalField   nonuniform List<scalar> 
4432
(
3.71002e-06
-3.71001e-06
7.40488e-06
-3.69486e-06
1.09664e-05
-3.56149e-06
1.45895e-05
-3.62316e-06
1.81814e-05
-3.59184e-06
2.16082e-05
-3.42682e-06
2.47847e-05
-3.17647e-06
2.79841e-05
-3.19942e-06
3.08033e-05
-2.81922e-06
3.34162e-05
-2.61293e-06
3.58815e-05
-2.46522e-06
3.76937e-05
-1.81219e-06
3.90043e-05
-1.31061e-06
3.99086e-05
-9.04348e-07
4.01686e-05
-2.5996e-07
3.95063e-05
6.62255e-07
3.79398e-05
1.56657e-06
3.52385e-05
2.70125e-06
3.12986e-05
3.93994e-06
2.58487e-05
5.44993e-06
1.90806e-05
6.76807e-06
1.06913e-05
8.38936e-06
1.06916e-05
3.70531e-06
-7.41532e-06
7.41086e-06
-7.40042e-06
1.09861e-05
-7.13673e-06
1.46094e-05
-7.24645e-06
1.82035e-05
-7.18589e-06
2.16391e-05
-6.86242e-06
2.48335e-05
-6.37087e-06
2.80401e-05
-6.40602e-06
3.08643e-05
-5.64349e-06
3.35093e-05
-5.25784e-06
3.59766e-05
-4.93258e-06
3.77743e-05
-3.60989e-06
3.92242e-05
-2.7605e-06
4.01398e-05
-1.8199e-06
4.03012e-05
-4.214e-07
3.96304e-05
1.33308e-06
3.80349e-05
3.1621e-06
3.52896e-05
5.44654e-06
3.12022e-05
8.02731e-06
2.54122e-05
1.12399e-05
1.79533e-05
1.4227e-05
8.72627e-06
1.76164e-05
1.9418e-05
3.70262e-06
-1.11179e-05
7.42593e-06
-1.11237e-05
1.10175e-05
-1.07283e-05
1.46375e-05
-1.08664e-05
1.82335e-05
-1.0782e-05
2.16829e-05
-1.03117e-05
2.49094e-05
-9.59744e-06
2.81287e-05
-9.62528e-06
3.09681e-05
-8.48289e-06
3.367e-05
-7.9598e-06
3.61304e-05
-7.39296e-06
3.79681e-05
-5.44752e-06
3.95661e-05
-4.35849e-06
4.05048e-05
-2.75864e-06
4.06884e-05
-6.05041e-07
4.02109e-05
1.81062e-06
3.8857e-05
4.51606e-06
3.6463e-05
7.84049e-06
3.28467e-05
1.16436e-05
2.75795e-05
1.65071e-05
2.05527e-05
2.12539e-05
1.09401e-05
2.7229e-05
3.03583e-05
3.70763e-06
-1.48256e-05
7.45484e-06
-1.48709e-05
1.10687e-05
-1.43422e-05
1.46911e-05
-1.44887e-05
1.82901e-05
-1.4381e-05
2.17617e-05
-1.37833e-05
2.50419e-05
-1.28776e-05
2.82842e-05
-1.28676e-05
3.11514e-05
-1.13501e-05
3.39244e-05
-1.07328e-05
3.63851e-05
-9.85365e-06
3.82868e-05
-7.34919e-06
3.99633e-05
-6.03498e-06
4.09247e-05
-3.72008e-06
4.11663e-05
-8.46587e-07
4.06655e-05
2.3114e-06
3.92181e-05
5.96344e-06
3.66154e-05
1.04432e-05
3.27857e-05
1.54733e-05
2.73307e-05
2.19622e-05
2.02589e-05
2.83257e-05
1.07139e-05
3.6774e-05
4.10727e-05
3.71369e-06
-1.85393e-05
7.48621e-06
-1.86434e-05
1.11215e-05
-1.79775e-05
1.47494e-05
-1.81166e-05
1.83519e-05
-1.79835e-05
2.18437e-05
-1.72751e-05
2.5181e-05
-1.62149e-05
2.84435e-05
-1.613e-05
3.1355e-05
-1.42616e-05
3.42183e-05
-1.35962e-05
3.6695e-05
-1.23303e-05
3.86994e-05
-9.35366e-06
4.04627e-05
-7.79823e-06
4.15504e-05
-4.80777e-06
4.20109e-05
-1.30704e-06
4.1782e-05
2.54023e-06
4.07001e-05
7.04541e-06
3.85935e-05
1.25498e-05
3.53369e-05
1.87299e-05
3.04093e-05
2.68898e-05
2.35973e-05
3.51377e-05
1.36184e-05
4.6753e-05
5.46918e-05
3.72814e-06
-2.22674e-05
7.52887e-06
-2.24442e-05
1.11936e-05
-2.16422e-05
1.48433e-05
-2.17663e-05
1.84632e-05
-2.16034e-05
2.19876e-05
-2.07995e-05
2.53931e-05
-1.96205e-05
2.86809e-05
-1.94178e-05
3.16596e-05
-1.72402e-05
3.46148e-05
-1.65514e-05
3.71085e-05
-1.48241e-05
3.92299e-05
-1.1475e-05
4.11188e-05
-9.6871e-06
4.22223e-05
-5.91133e-06
4.27864e-05
-1.87108e-06
4.26228e-05
2.7038e-06
4.15498e-05
8.11847e-06
3.93273e-05
1.47723e-05
3.58916e-05
2.21656e-05
3.07268e-05
3.20546e-05
2.38339e-05
4.20306e-05
1.34948e-05
5.70921e-05
6.81873e-05
3.74443e-06
-2.60118e-05
7.56755e-06
-2.62673e-05
1.12612e-05
-2.53358e-05
1.49337e-05
-2.54388e-05
1.85713e-05
-2.5241e-05
2.21256e-05
-2.43538e-05
2.55935e-05
-2.30884e-05
2.8904e-05
-2.27284e-05
3.19727e-05
-2.03089e-05
3.50249e-05
-1.96035e-05
3.75366e-05
-1.73358e-05
3.98564e-05
-1.37948e-05
4.18341e-05
-1.16648e-05
4.31156e-05
-7.1929e-06
4.39956e-05
-2.75108e-06
4.41283e-05
2.5711e-06
4.34327e-05
8.81409e-06
4.17953e-05
1.64098e-05
3.9097e-05
2.48639e-05
3.47341e-05
3.64175e-05
2.85597e-05
4.8205e-05
1.80569e-05
6.7595e-05
8.62449e-05
3.77279e-06
-2.97846e-05
7.60186e-06
-3.00964e-05
1.13497e-05
-2.90836e-05
1.50665e-05
-2.91556e-05
1.87346e-05
-2.89091e-05
2.23369e-05
-2.7956e-05
2.58761e-05
-2.66276e-05
2.92382e-05
-2.60905e-05
3.24315e-05
-2.35022e-05
3.55423e-05
-2.27143e-05
3.80991e-05
-1.98925e-05
4.06484e-05
-1.63441e-05
4.27398e-05
-1.37562e-05
4.41112e-05
-8.56424e-06
4.51659e-05
-3.80581e-06
4.5335e-05
2.40199e-06
4.47729e-05
9.37618e-06
4.31924e-05
1.79903e-05
4.0603e-05
2.74533e-05
3.61709e-05
4.08496e-05
2.99271e-05
5.44488e-05
1.92334e-05
7.82887e-05
0.000105479
-7.06321e-06
7.83579e-06
-1.51443e-05
8.85369e-06
-2.2571e-05
8.19928e-06
-2.99982e-05
8.19983e-06
-3.71188e-05
7.89311e-06
-4.3656e-05
7.30997e-06
-4.83245e-05
5.44118e-06
-5.23254e-05
4.77404e-06
-5.60556e-05
4.50351e-06
-5.91727e-05
3.89105e-06
-6.08799e-05
2.48159e-06
-6.29398e-05
2.83505e-06
-6.31374e-05
9.73424e-07
-6.31164e-05
7.55383e-07
-6.00899e-05
-2.24938e-06
-5.42664e-05
-5.04615e-06
-4.21136e-05
-1.1375e-05
-2.24085e-05
-1.89274e-05
-2.16308e-05
-7.57575e-06
1.61841e-05
-1.66186e-05
1.86691e-05
-2.40162e-05
1.63694e-05
-3.01496e-05
1.51059e-05
-3.67405e-05
1.52566e-05
-4.34567e-05
1.47989e-05
-4.83841e-05
1.11413e-05
-5.26966e-05
9.85966e-06
-5.66046e-05
9.18475e-06
-5.95973e-05
7.65771e-06
-6.10673e-05
4.72604e-06
-6.30382e-05
5.58106e-06
-6.33015e-05
2.01247e-06
-6.34921e-05
1.72237e-06
-6.07373e-05
-4.22704e-06
-5.52502e-05
-9.75589e-06
-4.32104e-05
-2.2637e-05
-2.30155e-05
-3.83447e-05
-4.38686e-05
-8.74221e-06
2.56988e-05
-1.62935e-05
2.69929e-05
-2.2954e-05
2.38024e-05
-3.03009e-05
2.32254e-05
-3.80219e-05
2.37501e-05
-4.46491e-05
2.21988e-05
-4.88239e-05
1.60888e-05
-5.25011e-05
1.431e-05
-5.6273e-05
1.373e-05
-5.93594e-05
1.1518e-05
-6.10808e-05
7.22186e-06
-6.35796e-05
8.85498e-06
-6.4056e-05
3.26462e-06
-6.4548e-05
2.9907e-06
-6.21964e-05
-5.80165e-06
-5.71877e-05
-1.39872e-05
-4.53243e-05
-3.37227e-05
-2.43043e-05
-5.85871e-05
-6.73954e-05
-8.08437e-06
3.45555e-05
-1.67197e-05
3.64007e-05
-2.4071e-05
3.1926e-05
-3.017e-05
3.0097e-05
-3.72078e-05
3.15604e-05
-4.40196e-05
2.97833e-05
-4.87695e-05
2.16115e-05
-5.34809e-05
1.97945e-05
-5.78183e-05
1.88408e-05
-6.0601e-05
1.50745e-05
-6.15854e-05
8.98059e-06
-6.37991e-05
1.18437e-05
-6.45139e-05
4.75511e-06
-6.56287e-05
4.88189e-06
-6.40456e-05
-6.60772e-06
-6.00713e-05
-1.71842e-05
-4.85208e-05
-4.44954e-05
-2.65359e-05
-7.97944e-05
-9.31537e-05
-9.08689e-06
4.44146e-05
-1.72209e-05
4.53071e-05
-2.35464e-05
3.90238e-05
-3.06855e-05
3.80086e-05
-3.93271e-05
4.09744e-05
-4.64948e-05
3.77237e-05
-4.99206e-05
2.58101e-05
-5.30614e-05
2.37085e-05
-5.70771e-05
2.36299e-05
-6.00306e-05
1.88019e-05
-6.16396e-05
1.1364e-05
-6.49366e-05
1.59157e-05
-6.60072e-05
6.60125e-06
-6.76984e-05
7.34935e-06
-6.68235e-05
-6.70568e-06
-6.38954e-05
-1.9335e-05
-5.2738e-05
-5.48751e-05
-3.00925e-05
-0.000101662
-0.000122469
-8.17754e-06
5.33642e-05
-1.79379e-05
5.58396e-05
-2.51092e-05
4.69673e-05
-3.05323e-05
4.42041e-05
-3.83391e-05
4.95536e-05
-4.55805e-05
4.5738e-05
-4.96452e-05
3.06476e-05
-5.4662e-05
2.94988e-05
-5.99217e-05
2.96631e-05
-6.23389e-05
2.19931e-05
-6.23899e-05
1.21892e-05
-6.50148e-05
1.93155e-05
-6.64767e-05
8.83867e-06
-6.91707e-05
1.08196e-05
-6.95996e-05
-5.49987e-06
-6.89159e-05
-1.92415e-05
-5.88901e-05
-6.41231e-05
-3.54717e-05
-0.000124303
-0.000157163
-1.04578e-05
6.45939e-05
-1.91589e-05
6.53127e-05
-2.44021e-05
5.29825e-05
-3.10678e-05
5.16422e-05
-4.19364e-05
6.11945e-05
-5.01235e-05
5.46981e-05
-5.15549e-05
3.2852e-05
-5.36794e-05
3.23972e-05
-5.87098e-05
3.54673e-05
-6.16472e-05
2.57046e-05
-6.27914e-05
1.41078e-05
-6.70244e-05
2.43233e-05
-6.90356e-05
1.16253e-05
-7.23245e-05
1.48846e-05
-7.36645e-05
-3.3831e-06
-7.52606e-05
-1.68682e-05
-6.73405e-05
-7.12655e-05
-4.38623e-05
-0.000147004
-0.000200246
-8.06516e-06
7.34299e-05
-2.12331e-05
7.92522e-05
-2.74583e-05
5.99796e-05
-3.11117e-05
5.6068e-05
-4.02797e-05
7.1135e-05
-4.88575e-05
6.4049e-05
-5.05873e-05
3.53552e-05
-5.53798e-05
3.7964e-05
-6.32316e-05
4.40931e-05
-6.55861e-05
2.88332e-05
-6.45145e-05
1.38106e-05
-6.79108e-05
2.84943e-05
-7.02407e-05
1.47304e-05
-7.45113e-05
1.99313e-05
-7.78362e-05
7.18532e-07
-8.40159e-05
-9.91126e-06
-8.0137e-05
-7.43666e-05
-5.78228e-05
-0.000168537
-0.00025728
8.11417e-06
-3.78988e-05
1.62851e-05
-3.82673e-05
2.44131e-05
-3.72117e-05
3.24439e-05
-3.71864e-05
4.03423e-05
-3.68076e-05
4.81491e-05
-3.57628e-05
5.58808e-05
-3.43592e-05
6.32508e-05
-3.34605e-05
7.04389e-05
-3.06903e-05
7.72283e-05
-2.95037e-05
8.30459e-05
-2.57101e-05
8.92741e-05
-2.25724e-05
9.39486e-05
-1.84307e-05
9.7725e-05
-1.23406e-05
0.000100725
-6.80599e-06
0.000102443
6.84325e-07
0.000102895
8.92424e-06
0.000102605
1.82806e-05
0.000101162
2.8896e-05
0.000100431
4.15809e-05
9.89274e-05
5.5952e-05
0.000100298
7.69181e-05
0.000106553
9.92254e-05
8.29552e-06
-4.61943e-05
1.65784e-05
-4.65502e-05
2.49565e-05
-4.55897e-05
3.32493e-05
-4.54792e-05
4.13976e-05
-4.49559e-05
4.95142e-05
-4.38795e-05
5.76078e-05
-4.24528e-05
6.54307e-05
-4.12834e-05
7.31682e-05
-3.84278e-05
8.03634e-05
-3.6699e-05
8.71863e-05
-3.2533e-05
9.38375e-05
-2.92235e-05
9.90091e-05
-2.36023e-05
0.000104282
-1.76133e-05
0.000107968
-1.04922e-05
0.000110213
-1.56081e-06
0.000110722
8.41487e-06
0.000109828
1.91748e-05
0.000107435
3.12891e-05
0.00010601
4.3006e-05
0.000104977
5.69846e-05
0.000109605
7.22905e-05
9.58701e-05
0.000120288
8.45855e-06
-5.46529e-05
1.68373e-05
-5.4929e-05
2.54301e-05
-5.41825e-05
3.39381e-05
-5.39872e-05
4.22879e-05
-5.33058e-05
5.06454e-05
-5.2237e-05
5.90257e-05
-5.08331e-05
6.72179e-05
-4.94756e-05
7.53709e-05
-4.65809e-05
8.31977e-05
-4.45259e-05
9.08609e-05
-4.01963e-05
9.79666e-05
-3.63293e-05
0.000104501
-3.01362e-05
0.000110911
-2.40238e-05
0.000115202
-1.47831e-05
0.000119379
-5.73736e-06
0.000122074
5.72023e-06
0.000123758
1.75241e-05
0.000124125
3.09217e-05
0.000125258
4.1873e-05
0.000125607
5.66359e-05
0.00012933
6.85677e-05
8.82096e-05
0.00013699
8.5982e-06
-6.33105e-05
1.7076e-05
-6.34686e-05
2.58895e-05
-6.30607e-05
3.4657e-05
-6.28255e-05
4.32939e-05
-6.20207e-05
5.20072e-05
-6.1036e-05
6.08054e-05
-5.97257e-05
6.94787e-05
-5.82525e-05
7.8188e-05
-5.54005e-05
8.66734e-05
-5.31275e-05
9.50354e-05
-4.86741e-05
0.000103138
-4.45442e-05
0.00011123
-3.83336e-05
0.000118015
-3.08957e-05
0.000124416
-2.1259e-05
0.000130599
-1.19943e-05
0.000133396
2.86011e-06
0.000134169
1.67027e-05
0.000132635
3.24336e-05
0.000134433
4.65029e-05
0.000133806
5.72634e-05
0.000135899
6.6475e-05
8.06738e-05
0.000143435
8.72514e-06
-7.21732e-05
1.72894e-05
-7.21655e-05
2.6334e-05
-7.22321e-05
3.53906e-05
-7.19948e-05
4.43123e-05
-7.10416e-05
5.33537e-05
-7.01607e-05
6.24971e-05
-6.89361e-05
7.15669e-05
-6.73696e-05
8.0648e-05
-6.45188e-05
8.95116e-05
-6.20107e-05
9.76698e-05
-5.6851e-05
0.000104596
-5.1487e-05
0.000109489
-4.32396e-05
0.000114539
-3.5959e-05
0.000122772
-2.94862e-05
0.000129059
-1.82278e-05
0.000133397
-1.38009e-06
0.000138052
1.21701e-05
0.000139238
3.13634e-05
0.000140681
4.50779e-05
0.000142479
5.54206e-05
0.000142478
6.64281e-05
8.38396e-05
0.000150748
5.76946e-06
-7.79577e-05
1.15567e-05
-7.79678e-05
1.72312e-05
-7.79214e-05
2.28939e-05
-7.76722e-05
2.79333e-05
-7.60949e-05
3.20912e-05
-7.43326e-05
3.53281e-05
-7.21862e-05
3.79482e-05
-7.00027e-05
4.11355e-05
-6.77189e-05
4.63546e-05
-6.72428e-05
5.44845e-05
-6.49935e-05
6.54429e-05
-6.24574e-05
7.84265e-05
-5.62339e-05
9.27067e-05
-5.02504e-05
0.000106533
-4.33231e-05
0.000118426
-3.01314e-05
0.00012936
-1.2323e-05
0.00013376
7.79087e-06
0.000132285
3.29001e-05
0.000134728
4.2767e-05
0.000139168
5.12045e-05
0.000144
6.18529e-05
7.77806e-05
0.000150085
3.48048e-06
-8.14514e-05
7.13954e-06
-8.16401e-05
1.02497e-05
-8.10447e-05
1.36734e-05
-8.11092e-05
1.7028e-05
-7.94629e-05
2.03245e-05
-7.76423e-05
2.37052e-05
-7.55803e-05
2.76353e-05
-7.39461e-05
3.24693e-05
-7.25662e-05
3.92287e-05
-7.40153e-05
4.89098e-05
-7.46876e-05
6.1454e-05
-7.5015e-05
7.71728e-05
-7.19644e-05
9.43815e-05
-6.74699e-05
0.000110978
-5.99298e-05
0.000129099
-4.82617e-05
0.000147424
-3.06567e-05
0.000161388
-6.18239e-06
0.000166423
2.78581e-05
0.000157651
5.15366e-05
0.00014174
6.7128e-05
0.000138062
6.56115e-05
6.89506e-05
0.000147119
3.2557e-06
-8.47209e-05
6.4269e-06
-8.4825e-05
9.25054e-06
-8.38821e-05
1.20732e-05
-8.39455e-05
1.52096e-05
-8.26128e-05
1.88508e-05
-8.12969e-05
2.32237e-05
-7.99664e-05
2.87192e-05
-7.94547e-05
3.50351e-05
-7.88949e-05
4.21099e-05
-8.11027e-05
4.98508e-05
-8.24407e-05
5.70041e-05
-8.21804e-05
6.40153e-05
-7.8987e-05
7.16634e-05
-7.51288e-05
8.13478e-05
-6.96246e-05
9.46459e-05
-6.15694e-05
0.000114544
-5.05644e-05
0.00014146
-3.31061e-05
0.000173069
-3.75983e-06
0.000190876
3.37215e-05
0.000184598
7.33986e-05
0.000167979
8.22262e-05
8.16524e-05
0.000155281
3.92017e-06
-8.86544e-05
7.62918e-06
-8.85473e-05
1.1465e-05
-8.77311e-05
1.49813e-05
-8.74749e-05
1.8665e-05
-8.63096e-05
2.25296e-05
-8.51745e-05
2.64173e-05
-8.3867e-05
3.05289e-05
-8.35791e-05
3.46091e-05
-8.29877e-05
3.88118e-05
-8.53179e-05
4.31527e-05
-8.6794e-05
4.69027e-05
-8.59425e-05
5.10163e-05
-8.3112e-05
5.58525e-05
-7.99759e-05
6.13976e-05
-7.51801e-05
6.91463e-05
-6.93277e-05
8.00124e-05
-6.14395e-05
9.5986e-05
-4.90883e-05
0.000124375
-3.21567e-05
0.000162924
-4.83571e-06
0.000197735
3.85812e-05
0.000209218
7.07364e-05
8.77972e-05
0.000203067
3.26965e-06
-9.19374e-05
6.42706e-06
-9.17181e-05
9.942e-06
-9.12594e-05
1.34273e-05
-9.09734e-05
1.72757e-05
-9.01712e-05
2.15935e-05
-8.95053e-05
2.61978e-05
-8.84842e-05
3.10966e-05
-8.84905e-05
3.57459e-05
-8.76495e-05
3.92993e-05
-8.88835e-05
4.21011e-05
-8.96077e-05
4.4522e-05
-8.83751e-05
4.73914e-05
-8.59926e-05
5.06101e-05
-8.32054e-05
5.42522e-05
-7.88325e-05
5.85569e-05
-7.36421e-05
6.37117e-05
-6.66035e-05
7.21297e-05
-5.7515e-05
8.48944e-05
-4.49296e-05
0.000107872
-2.78211e-05
0.000147616
-1.16984e-06
0.000190069
2.82766e-05
5.46281e-05
0.000223232
3.96106e-06
-9.59116e-05
7.90792e-06
-9.5678e-05
1.20044e-05
-9.53689e-05
1.61329e-05
-9.51149e-05
2.03827e-05
-9.44339e-05
2.47785e-05
-9.39139e-05
2.90737e-05
-9.27922e-05
3.3255e-05
-9.26844e-05
3.69627e-05
-9.13696e-05
3.96117e-05
-9.15448e-05
4.17943e-05
-9.18022e-05
4.40647e-05
-9.06572e-05
4.67952e-05
-8.87344e-05
4.97881e-05
-8.62091e-05
5.29718e-05
-8.20265e-05
5.63472e-05
-7.70274e-05
6.01486e-05
-7.04143e-05
6.48062e-05
-6.21815e-05
7.14432e-05
-5.15748e-05
8.30752e-05
-3.94607e-05
0.000104459
-2.25605e-05
0.000136674
-3.94503e-06
1.71188e-05
0.000174178
3.75871e-06
-9.96834e-05
7.57794e-06
-9.95104e-05
1.15205e-05
-9.93245e-05
1.55271e-05
-9.91345e-05
1.96705e-05
-9.85902e-05
2.41021e-05
-9.83583e-05
2.86707e-05
-9.73735e-05
3.31699e-05
-9.71962e-05
3.74312e-05
-9.56432e-05
4.1012e-05
-9.51376e-05
4.42022e-05
-9.50042e-05
4.74726e-05
-9.39392e-05
5.10697e-05
-9.23427e-05
5.49842e-05
-9.01344e-05
5.93532e-05
-8.64059e-05
6.42782e-05
-8.19622e-05
6.94664e-05
-7.56119e-05
7.57845e-05
-6.85086e-05
8.36552e-05
-5.94539e-05
9.33306e-05
-4.9144e-05
0.000106752
-3.5989e-05
0.00012646
-2.36603e-05
-8.71841e-06
0.000152291
4.1528e-06
-0.000103849
8.34821e-06
-0.000103719
1.26064e-05
-0.000103596
1.68661e-05
-0.000103407
2.11545e-05
-0.000102891
2.55422e-05
-0.000102759
2.99868e-05
-0.000101831
3.45139e-05
-0.000101736
3.93582e-05
-0.0001005
4.40213e-05
-9.98128e-05
4.84024e-05
-9.93971e-05
5.28137e-05
-9.83619e-05
5.74984e-05
-9.70386e-05
6.25582e-05
-9.52051e-05
6.81469e-05
-9.2005e-05
7.43476e-05
-8.81729e-05
8.1472e-05
-8.27458e-05
8.97913e-05
-7.68369e-05
9.94824e-05
-6.91535e-05
0.000111269
-6.0939e-05
0.00012677
-5.14974e-05
0.000145226
-4.2123e-05
-2.96075e-05
0.000166109
4.04469e-06
-0.000107907
8.13633e-06
-0.000107823
1.22262e-05
-0.000107698
1.64311e-05
-0.000107625
2.07049e-05
-0.000107178
2.51334e-05
-0.0001072
2.96695e-05
-0.000106379
3.43389e-05
-0.000106417
3.93355e-05
-0.000105508
4.43934e-05
-0.000104883
4.93973e-05
-0.000104413
5.45151e-05
-0.000103491
5.97741e-05
-0.000102309
6.53722e-05
-0.000100814
7.15101e-05
-9.81533e-05
7.85169e-05
-9.51897e-05
8.65339e-05
-9.07723e-05
9.61196e-05
-8.64317e-05
0.000107518
-8.05609e-05
0.000121174
-7.46025e-05
0.000137476
-6.78073e-05
0.000156128
-6.0783e-05
-5.15407e-05
0.000178055
4.35506e-06
-0.000112274
8.72579e-06
-0.000112207
1.3078e-05
-0.000112063
1.74996e-05
-0.000112059
2.19725e-05
-0.000111663
2.65611e-05
-0.000111801
3.12798e-05
-0.00011111
3.60593e-05
-0.000111209
4.114e-05
-0.000110601
4.63899e-05
-0.000110144
5.17282e-05
-0.000109763
5.72469e-05
-0.000109021
6.29952e-05
-0.000108068
6.91236e-05
-0.000106953
7.58433e-05
-0.000104883
8.34212e-05
-0.000102778
9.21721e-05
-9.95329e-05
0.000102395
-9.66638e-05
0.000114356
-9.25306e-05
0.000128487
-8.87416e-05
0.000145219
-8.45477e-05
0.000164332
-7.99032e-05
-7.38329e-05
0.000186617
4.16978e-06
-0.000116457
8.38951e-06
-0.000116439
1.26648e-05
-0.000116351
1.703e-05
-0.000116436
2.14558e-05
-0.000116101
2.5985e-05
-0.000116342
3.06411e-05
-0.000115778
3.53622e-05
-0.000115942
4.03146e-05
-0.000115565
4.54364e-05
-0.000115278
5.07221e-05
-0.00011506
5.63331e-05
-0.000114643
6.22532e-05
-0.000113999
6.86909e-05
-0.000113401
7.58161e-05
-0.000112019
8.40286e-05
-0.000111
9.35053e-05
-0.000109019
0.000104559
-0.000107727
0.000117451
-0.000105431
0.000132418
-0.000103717
0.00014951
-0.000101648
0.000169026
-9.94262e-05
-9.70864e-05
0.000192272
4.40482e-06
-0.000120874
8.85654e-06
-0.000120903
1.33212e-05
-0.000120828
1.78614e-05
-0.000120989
2.24443e-05
-0.000120696
2.71019e-05
-0.000121012
3.18855e-05
-0.000120574
3.67376e-05
-0.000120806
4.17801e-05
-0.000120619
4.70313e-05
-0.00012054
5.24698e-05
-0.00012051
5.82244e-05
-0.000120409
6.43253e-05
-0.000120111
7.1004e-05
-0.00012009
7.84502e-05
-0.000119475
8.6908e-05
-0.000119468
9.65958e-05
-0.000118717
0.000107673
-0.000118813
0.000120491
-0.000118258
0.000135305
-0.000118539
0.000152413
-0.000118765
0.00017231
-0.000119331
-0.000120682
0.000195898
4.33463e-06
-0.00012522
8.6957e-06
-0.000125276
1.30614e-05
-0.000125205
1.74794e-05
-0.000125419
2.19399e-05
-0.000125169
2.64662e-05
-0.00012555
3.11266e-05
-0.000125246
3.58872e-05
-0.000125578
4.08319e-05
-0.000125576
4.60278e-05
-0.000125748
5.1419e-05
-0.000125912
5.7211e-05
-0.000126212
6.34149e-05
-0.000126325
7.02914e-05
-0.000126977
7.7918e-05
-0.000127112
8.64948e-05
-0.000128054
9.62052e-05
-0.000128437
0.000107213
-0.000129831
0.000119904
-0.000130958
0.000134517
-0.000133161
0.000151415
-0.000135673
0.000171183
-0.000139107
-0.000144277
0.00019477
4.38345e-06
-0.000129616
8.7895e-06
-0.000129694
1.32071e-05
-0.000129635
1.76829e-05
-0.000129906
2.22122e-05
-0.000129709
2.68115e-05
-0.000130161
3.15342e-05
-0.00012998
3.63691e-05
-0.000130424
4.13462e-05
-0.000130564
4.65687e-05
-0.000130981
5.19995e-05
-0.000131353
5.78174e-05
-0.00013204
6.40258e-05
-0.000132544
7.07535e-05
-0.000133715
7.81258e-05
-0.000134495
8.62957e-05
-0.000136234
9.55555e-05
-0.000137706
0.000106067
-0.000140352
0.000118251
-0.000143151
0.000132296
-0.000147215
0.000148696
-0.000152081
0.00016788
-0.000158299
-0.000167203
0.000190798
4.33034e-06
-0.000133957
8.67819e-06
-0.000134053
1.30394e-05
-0.000134007
1.74428e-05
-0.000134321
2.18983e-05
-0.000134176
2.64036e-05
-0.000134677
3.10159e-05
-0.000134604
3.57414e-05
-0.000135161
4.05882e-05
-0.000135422
4.56887e-05
-0.000136092
5.09921e-05
-0.000136668
5.66406e-05
-0.000137699
6.26433e-05
-0.000138557
6.91114e-05
-0.000140194
7.62264e-05
-0.00014162
8.4061e-05
-0.000144078
9.29448e-05
-0.000146599
0.000102885
-0.000150301
0.000114341
-0.000154615
0.00012731
-0.000160192
0.000142532
-0.000167312
0.000160135
-0.00017591
-0.000188323
0.000181246
4.34917e-06
-0.000138318
8.70649e-06
-0.000138421
1.30663e-05
-0.000138378
1.74406e-05
-0.000138706
2.18527e-05
-0.000138599
2.62892e-05
-0.000139125
3.08218e-05
-0.000139147
3.54382e-05
-0.000139788
4.01781e-05
-0.000140172
4.50814e-05
-0.000141006
5.01842e-05
-0.000141781
5.54973e-05
-0.000143023
6.12042e-05
-0.000144274
6.72147e-05
-0.000146214
7.3936e-05
-0.000148351
8.10857e-05
-0.000151238
8.9283e-05
-0.000154806
9.81057e-05
-0.000159133
0.000108443
-0.000164962
0.000119788
-0.000171546
0.00013344
-0.000180972
0.000148814
-0.000191293
-0.000206739
0.000167221
4.35114e-06
-0.00014268
8.69562e-06
-0.000142777
1.30344e-05
-0.000142728
1.73558e-05
-0.000143039
2.1712e-05
-0.000142966
2.6059e-05
-0.000143483
3.0499e-05
-0.000143598
3.49665e-05
-0.000144266
3.95723e-05
-0.000144789
4.42487e-05
-0.000145693
4.91833e-05
-0.000146726
5.42154e-05
-0.000148065
5.97032e-05
-0.000149772
6.52729e-05
-0.000151794
7.15237e-05
-0.000154611
7.78514e-05
-0.000157575
8.51784e-05
-0.000162142
9.26552e-05
-0.000166619
0.000101597
-0.000173913
0.000110919
-0.000180877
0.000122295
-0.000192356
0.000134367
-0.000203374
-0.000221215
0.000148834
4.30694e-06
-0.000146997
8.59953e-06
-0.00014708
1.28837e-05
-0.000147023
1.7128e-05
-0.000147293
2.13967e-05
-0.000147246
2.56127e-05
-0.000147709
2.99042e-05
-0.000147899
3.41576e-05
-0.00014853
3.85524e-05
-0.000149194
4.29271e-05
-0.000150078
4.75582e-05
-0.000151367
5.21737e-05
-0.00015269
5.71941e-05
-0.000154802
6.21634e-05
-0.000156773
6.77144e-05
-0.000160171
7.32384e-05
-0.000163108
7.95569e-05
-0.00016847
8.58534e-05
-0.000172924
9.31342e-05
-0.000181202
0.000100412
-0.000188164
0.000108919
-0.000200872
0.000117438
-0.0002119
-0.000231248
0.000127462
4.31767e-06
-0.000151325
8.61586e-06
-0.000151388
1.29015e-05
-0.000151318
1.71247e-05
-0.000151527
2.13578e-05
-0.000151489
2.5495e-05
-0.000151856
2.96752e-05
-0.00015209
3.37593e-05
-0.000152624
3.79488e-05
-0.000153393
4.20365e-05
-0.000154175
4.63143e-05
-0.000155654
5.04817e-05
-0.000156867
5.49624e-05
-0.000159292
5.93406e-05
-0.00016116
6.41322e-05
-0.000164972
6.88518e-05
-0.000167837
7.39667e-05
-0.000173593
7.90276e-05
-0.000177994
8.43667e-05
-0.00018655
8.96647e-05
-0.00019347
9.50884e-05
-0.000206305
0.00010034
-0.00021716
-0.000236678
0.000105761
4.275e-06
-0.00015561
8.5268e-06
-0.00015565
1.27616e-05
-0.000155563
1.69222e-05
-0.000155697
2.10889e-05
-0.000155665
2.51361e-05
-0.000155913
2.92034e-05
-0.000156167
3.31236e-05
-0.000156554
3.70998e-05
-0.000157379
4.09078e-05
-0.000157993
4.48129e-05
-0.000159569
4.85487e-05
-0.000160612
5.24509e-05
-0.000163203
5.62266e-05
-0.000164945
6.01221e-05
-0.000168877
6.39526e-05
-0.000171676
6.78193e-05
-0.000177469
7.17152e-05
-0.000181899
7.54007e-05
-0.000190244
7.8997e-05
-0.000197075
8.17693e-05
-0.000209085
8.41773e-05
-0.000219577
-0.000237348
8.48384e-05
4.2303e-06
-0.00015985
8.4381e-06
-0.000159867
1.26275e-05
-0.000159762
1.67403e-05
-0.000159819
2.0852e-05
-0.000159786
2.48302e-05
-0.0001599
2.88001e-05
-0.000160146
3.25976e-05
-0.00016036
3.63877e-05
-0.000161178
3.99658e-05
-0.00016158
4.35321e-05
-0.000163144
4.68732e-05
-0.000163962
5.01708e-05
-0.00016651
5.32885e-05
-0.000168071
5.62893e-05
-0.000171886
5.9249e-05
-0.000174644
6.19642e-05
-0.000180192
6.46747e-05
-0.000184617
6.68271e-05
-0.000192405
6.87483e-05
-0.000199005
6.94179e-05
-0.000209763
6.93113e-05
-0.000219478
-0.000234657
6.66124e-05
4.14766e-06
-0.000164006
8.2787e-06
-0.000164007
1.24016e-05
-0.000163894
1.64598e-05
-0.000163886
2.05165e-05
-0.000163852
2.44459e-05
-0.000163839
2.83406e-05
-0.000164049
3.20516e-05
-0.00016408
3.56929e-05
-0.000164828
3.90931e-05
-0.000164989
4.23714e-05
-0.000166431
4.5375e-05
-0.000166974
4.8135e-05
-0.000169278
5.06817e-05
-0.000170626
5.28997e-05
-0.000174112
5.49713e-05
-0.000176724
5.65463e-05
-0.000181776
5.7972e-05
-0.000186051
5.87452e-05
-0.000193186
5.92033e-05
-0.000199471
5.83839e-05
-0.000208952
5.66129e-05
-0.000217715
-0.000230179
5.21271e-05
3.98472e-06
-0.000167999
7.95205e-06
-0.000167983
1.19254e-05
-0.000167875
1.5848e-05
-0.000167817
1.97743e-05
-0.000167786
2.36024e-05
-0.000167675
2.73865e-05
-0.000167842
3.10023e-05
-0.000167704
3.44967e-05
-0.00016833
3.77618e-05
-0.000168262
4.08239e-05
-0.000169501
4.36055e-05
-0.000169764
4.60328e-05
-0.000171714
4.81618e-05
-0.000172763
4.97362e-05
-0.000175695
5.09795e-05
-0.000177975
5.15562e-05
-0.00018236
5.17895e-05
-0.000186292
5.1267e-05
-0.000192672
5.02731e-05
-0.000198484
4.81654e-05
-0.000206852
4.51373e-05
-0.000214695
-0.000224921
3.9871e-05
3.79961e-06
-0.000171807
7.57762e-06
-0.000171769
1.13794e-05
-0.000171685
1.51432e-05
-0.000171589
1.89238e-05
-0.000171575
2.26457e-05
-0.000171405
2.63376e-05
-0.000171542
2.98874e-05
-0.000171262
3.32782e-05
-0.000171729
3.64653e-05
-0.000171457
3.93869e-05
-0.000172431
4.20263e-05
-0.000172411
4.42239e-05
-0.000173919
4.60141e-05
-0.000174561
4.71028e-05
-0.000176791
4.76776e-05
-0.000178557
4.74321e-05
-0.000182122
4.65688e-05
-0.000185436
4.48245e-05
-0.000190935
4.24235e-05
-0.000196091
3.90869e-05
-0.000203523
3.48619e-05
-0.000210477
-0.000219535
2.94684e-05
3.45328e-06
-0.000175268
6.88546e-06
-0.000175209
1.03563e-05
-0.000175164
1.38064e-05
-0.000175047
1.7297e-05
-0.000175073
2.07724e-05
-0.000174888
2.42615e-05
-0.000175038
2.76872e-05
-0.000174695
3.09816e-05
-0.000175031
3.41212e-05
-0.000174604
3.69866e-05
-0.000175303
3.95978e-05
-0.00017503
4.1745e-05
-0.000176073
4.34203e-05
-0.000176244
4.43592e-05
-0.000177737
4.46223e-05
-0.000178828
4.38552e-05
-0.000181362
4.21553e-05
-0.000183743
3.93767e-05
-0.000188163
3.56456e-05
-0.000192367
3.09161e-05
-0.000198801
2.52057e-05
-0.000204774
-0.000212773
1.84365e-05
3.12859e-06
-0.000178404
6.24283e-06
-0.00017833
9.39191e-06
-0.00017832
1.25378e-05
-0.0001782
1.57298e-05
-0.000178273
1.89346e-05
-0.0001781
2.21698e-05
-0.000178281
2.54162e-05
-0.000177949
2.86023e-05
-0.000178224
3.17078e-05
-0.000177716
3.45484e-05
-0.000178151
3.71453e-05
-0.000177634
3.92929e-05
-0.000178228
4.09621e-05
-0.00017792
4.191e-05
-0.000178692
4.20348e-05
-0.000178959
4.10205e-05
-0.000180354
3.88729e-05
-0.000181603
3.54061e-05
-0.000184703
3.07709e-05
-0.000187739
2.49574e-05
-0.000192994
1.80567e-05
-0.000197881
-0.000204577
9.8533e-06
2.67311e-06
-0.000181084
5.33996e-06
-0.000181004
8.03249e-06
-0.000181019
1.07366e-05
-0.000180911
1.34844e-05
-0.000181027
1.62615e-05
-0.000180884
1.90775e-05
-0.000181103
2.19425e-05
-0.00018082
2.48319e-05
-0.00018112
2.7746e-05
-0.000180637
3.05442e-05
-0.000180956
3.31848e-05
-0.000180281
3.54895e-05
-0.000180539
3.73753e-05
-0.000179812
3.86139e-05
-0.000179937
3.90148e-05
-0.000179366
3.82467e-05
-0.000179593
3.61336e-05
-0.000179496
3.23571e-05
-0.000180933
2.71109e-05
-0.000182499
2.06244e-05
-0.000186514
1.31302e-05
-0.000190393
-0.000195984
4.53028e-06
2.26662e-06
-0.000183357
4.53393e-06
-0.000183277
6.8208e-06
-0.000183312
9.12863e-06
-0.000183225
1.14741e-05
-0.000183379
1.38606e-05
-0.000183277
1.6297e-05
-0.000183546
1.88178e-05
-0.000183347
2.13894e-05
-0.000183698
2.40446e-05
-0.000183298
2.66663e-05
-0.000183583
2.92276e-05
-0.000182848
3.15322e-05
-0.000182849
3.34946e-05
-0.00018178
3.49111e-05
-0.000181359
3.55831e-05
-0.000180044
3.52356e-05
-0.000179251
3.35843e-05
-0.00017785
3.00936e-05
-0.000177448
2.46831e-05
-0.000177094
1.73038e-05
-0.000179141
8.70633e-06
-0.000181801
-0.000186431
-8.52478e-07
1.81885e-06
-0.000185181
3.63638e-06
-0.0001851
5.46188e-06
-0.000185144
7.30257e-06
-0.000185071
9.17112e-06
-0.000185253
1.10858e-05
-0.000185197
1.30545e-05
-0.00018552
1.51162e-05
-0.000185415
1.72381e-05
-0.000185825
1.94632e-05
-0.000185529
2.17133e-05
-0.000185839
2.39909e-05
-0.000185131
2.61445e-05
-0.000185009
2.80914e-05
-0.000183732
2.96743e-05
-0.000182947
3.06803e-05
-0.000181056
3.09155e-05
-0.000179492
3.0045e-05
-0.000176985
2.74825e-05
-0.000174891
2.26576e-05
-0.000172274
1.5075e-05
-0.000171563
5.22976e-06
-0.000171962
-0.000175235
-5.97221e-06
1.40806e-06
-0.000186594
2.81996e-06
-0.000186518
4.24055e-06
-0.000186569
5.68344e-06
-0.000186519
7.15779e-06
-0.000186732
8.68427e-06
-0.000186729
1.02647e-05
-0.000187106
1.19326e-05
-0.000187088
1.36584e-05
-0.000187556
1.55065e-05
-0.000187382
1.74168e-05
-0.000187754
1.94379e-05
-0.000187157
2.14294e-05
-0.000187005
2.33211e-05
-0.000185629
2.49178e-05
-0.000184549
2.60609e-05
-0.000182204
2.65106e-05
-0.000179946
2.59902e-05
-0.00017647
2.41046e-05
-0.00017301
2.03826e-05
-0.000168557
1.3876e-05
-0.000165062
4.09656e-06
-0.000162187
-0.0001626
-8.5432e-06
1.04628e-06
-0.000187645
2.08597e-06
-0.000187562
3.11829e-06
-0.000187606
4.15865e-06
-0.000187564
5.21401e-06
-0.000187792
6.30045e-06
-0.00018782
7.4195e-06
-0.000188229
8.6041e-06
-0.000188277
9.8386e-06
-0.000188795
1.11746e-05
-0.000188723
1.25612e-05
-0.000189146
1.40622e-05
-0.000188663
1.55895e-05
-0.000188537
1.7147e-05
-0.000187191
1.85882e-05
-0.000185995
1.97808e-05
-0.000183401
2.05389e-05
-0.000180709
2.05718e-05
-0.000176507
1.95681e-05
-0.000172011
1.70604e-05
-0.000166054
1.21666e-05
-0.000160172
3.86446e-06
-0.000153889
-0.000150325
-8.41514e-06
7.00143e-07
-0.000188349
1.40018e-06
-0.000188266
2.09884e-06
-0.000188309
2.80507e-06
-0.000188274
3.51904e-06
-0.00018851
4.25271e-06
-0.000188557
5.01056e-06
-0.000188991
5.82382e-06
-0.000189094
6.68021e-06
-0.000189656
7.62202e-06
-0.000189669
8.61763e-06
-0.000190145
9.72188e-06
-0.000189771
1.08825e-05
-0.000189701
1.21453e-05
-0.000188458
1.34159e-05
-0.000187269
1.46183e-05
-0.000184607
1.55434e-05
-0.000181638
1.60005e-05
-0.000176968
1.56383e-05
-0.000171653
1.4127e-05
-0.000164547
1.07764e-05
-0.000156826
4.78852e-06