/*--------------------------------*- C++ -*----------------------------------*\
| =========                 |                                                 |
| \\      /  F ield         | OpenFOAM: The Open Source CFD Toolbox           |
|  \\    /   O peration     | Version:  2012                                  |
|   \\  /    A nd           | Website:  www.openfoam.com                      |
|    \\/     M anipulation  |                                                 |
\*---------------------------------------------------------------------------*/
FoamFile
{
    version     2.0;
    format      ascii;
    class       volScalarField;
    location    "0.36";
    object      rho;
}
// * * * * * * * * * * * * * * * * * * * * * * * * * * * * * * * * * * * * * //

dimensions      [1 -3 0 0 0 0 0];


internalField   nonuniform List<scalar> 
2268
(
1000.05
1000.05
1000.05
1000.05
1000.05
1000.05
1000.05
1000.05
1000.05
1000.05
1000.05
1000.05
1000.05
1000.05
1000.05
1000.05
1000.05
1000.05
1000.05
1000.05
1000.05
1000.05
999.171
1000.05
1000.05
1000.05
1000.05
1000.05
1000.05
1000.05
1000.05
1000.05
1000.05
1000.05
1000.05
1000.05
1000.05
1000.05
1000.05
1000.05
1000.05
1000.05
1000.05
1000.05
1000.05
999.62
1000.05
1000.05
1000.05
1000.05
1000.05
1000.05
1000.05
1000.05
1000.05
1000.05
1000.05
1000.05
1000.05
1000.05
1000.05
1000.05
1000.05
1000.05
1000.05
1000.05
1000.05
1000.05
999.738
1000.05
1000.05
1000.05
1000.05
1000.05
1000.05
1000.05
1000.05
1000.05
1000.05
1000.05
1000.05
1000.05
1000.05
1000.05
1000.05
1000.05
1000.05
1000.05
1000.05
1000.05
1000.05
998.586
1000.05
1000.05
1000.05
1000.05
1000.05
1000.05
1000.05
1000.05
1000.05
1000.05
1000.05
1000.05
1000.05
1000.05
1000.05
1000.05
1000.05
1000.05
1000.05
1000.05
1000.05
1000.05
998.106
1000.05
1000.05
1000.05
1000.05
1000.05
1000.05
1000.05
1000.05
1000.05
1000.05
1000.05
1000.05
1000.05
1000.05
1000.05
1000.05
1000.05
1000.05
1000.05
1000.05
1000.05
1000.05
998.106
1000.05
1000.05
1000.05
1000.05
1000.05
1000.05
1000.05
1000.05
1000.05
1000.05
1000.05
1000.05
1000.05
1000.05
1000.05
1000.05
1000.05
1000.05
1000.05
1000.05
1000.05
1000.05
998.106
1000.05
1000.05
1000.05
1000.05
1000.05
1000.05
1000.05
1000.05
1000.05
1000.05
1000.05
1000.05
1000.05
1000.05
1000.05
1000.05
1000.05
1000.05
1000.05
1000.05
1000.05
1000.05
998.106
1.30986
1.30986
1.30986
1.30986
1.30986
1.30986
1.30986
1.30986
1.30986
1.30986
1.30986
1.30986
1.30986
1.30986
1.30986
1.30987
1.30987
1.30987
1.30988
1.30986
1.30986
1.30986
1.30986
1.30986
1.30986
1.30986
1.30986
1.30986
1.30986
1.30986
1.30986
1.30986
1.30986
1.30986
1.30986
1.30987
1.30987
1.30987
1.30986
1.30985
1.30986
1.30985
1.30986
1.30985
1.30986
1.30985
1.30986
1.30985
1.30986
1.30985
1.30986
1.30986
1.30986
1.30986
1.30987
1.30987
1.30987
1.30986
1.30985
1.30985
1.30985
1.30985
1.30985
1.30985
1.30985
1.30985
1.30985
1.30985
1.30985
1.30986
1.30986
1.30986
1.30986
1.30986
1.30987
1.30987
1.30985
1.30985
1.30985
1.30985
1.30985
1.30985
1.30985
1.30985
1.30985
1.30985
1.30985
1.30985
1.30985
1.30985
1.30986
1.30986
1.30986
1.30987
1.30987
1.30985
1.30985
1.30985
1.30985
1.30985
1.30985
1.30985
1.30985
1.30985
1.30985
1.30985
1.30985
1.30985
1.30985
1.30985
1.30986
1.30986
1.30987
1.30987
1.30985
1.30984
1.30985
1.30985
1.30985
1.30985
1.30985
1.30985
1.30985
1.30985
1.30985
1.30985
1.30985
1.30985
1.30985
1.30985
1.30986
1.30987
1.30986
1.30985
1.30984
1.30985
1.30985
1.30985
1.30985
1.30985
1.30985
1.30985
1.30984
1.30985
1.30984
1.30985
1.30984
1.30985
1.30985
1.30985
1.30985
1.30979
1000.05
1000.05
1000.05
1000.05
1000.05
1000.05
1000.05
1000.05
1000.05
1000.05
1000.05
1000.05
1000.05
1000.05
1000.05
1000.05
1000.05
1000.05
1000.05
1000.05
1000.05
1000.05
998.871
1000.05
1000.05
1000.05
1000.05
1000.05
1000.05
1000.05
1000.05
1000.05
1000.05
1000.05
1000.05
1000.05
1000.05
1000.05
1000.05
1000.05
1000.05
1000.05
1000.05
1000.05
1000.05
999.782
999.331
999.265
999.176
998.964
998.665
998.258
997.693
996.878
995.995
994.76
993.738
992.483
992.197
992.01
993.312
995.414
999.51
1000.05
1000.05
1000.05
1000.05
1000.05
1000.03
837.956
832.593
825.156
810.077
791.549
769.73
744.061
713.036
684.223
649.463
624.448
595.258
585.155
572.176
595.173
632.903
696.544
787.59
904.382
1000.05
1000.05
1000.05
1000.05
147.08
142.245
134.92
121.92
107.204
91.213
74.2553
55.829
41.481
25.0962
15.6182
4.52245
1.2935
1.2935
2.55404
12.2599
34.7803
77.3412
162.423
318.516
563.342
843.085
1000.05
1.29341
1.29341
1.2934
1.29341
1.29341
1.29341
1.29342
1.29341
1.2934
1.29339
1.29338
1.29337
1.29337
1.29337
1.29337
1.29338
1.29339
1.37596
2.47612
7.37898
29.0293
128.992
352.232
1.29334
1.29334
1.29334
1.29334
1.29334
1.29334
1.29334
1.29334
1.29334
1.29334
1.29337
1.29388
1.29391
1.29363
1.29336
1.29335
1.29337
1.29342
1.29353
1.29522
1.348
2.70324
11.9811
1.29332
1.29332
1.29332
1.29332
1.29332
1.29332
1.29332
1.29332
1.29332
1.29337
1.29441
1.29581
1.29581
1.29398
1.29334
1.29334
1.29335
1.29416
1.29412
1.29371
1.29374
1.29413
1.30084
1.29331
1.29331
1.29331
1.29331
1.29331
1.29331
1.29331
1.29331
1.29332
1.29372
1.2958
1.29581
1.29515
1.2936
1.29336
1.29335
1.29334
1.29334
1.3127
1.31822
1.30505
1.29384
1.29382
1.2933
1.2933
1.29331
1.29331
1.29331
1.29331
1.29331
1.29331
1.29331
1.2937
1.29495
1.29453
1.29333
1.29333
1.2934
1.29343
1.29335
1.29334
1.30664
1.33329
1.33379
1.33381
1.33179
1.2933
1.2933
1.2933
1.2933
1.2933
1.29331
1.29331
1.29331
1.29331
1.29332
1.29332
1.29332
1.29332
1.29332
1.29337
1.29343
1.2934
1.29334
1.29334
1.29355
1.29834
1.30611
1.31436
1.2933
1.2933
1.2933
1.2933
1.2933
1.2933
1.2933
1.29331
1.29332
1.29331
1.29331
1.29331
1.29332
1.29333
1.29332
1.29333
1.29333
1.29333
1.29334
1.29334
1.29335
1.29335
1.29339
1.2933
1.2933
1.2933
1.2933
1.2933
1.2933
1.2933
1.2933
1.2933
1.29331
1.29331
1.29331
1.29331
1.29332
1.29332
1.29332
1.29332
1.29333
1.29333
1.29334
1.29334
1.29335
1.29335
1.29329
1.29329
1.29329
1.29329
1.29329
1.2933
1.2933
1.2933
1.2933
1.2933
1.2933
1.29331
1.29331
1.29331
1.29331
1.29332
1.29332
1.29332
1.29333
1.29333
1.29334
1.29334
1.29335
1.29329
1.29329
1.29329
1.29329
1.29329
1.29329
1.29329
1.29329
1.2933
1.2933
1.2933
1.2933
1.2933
1.29331
1.29331
1.29331
1.29332
1.29332
1.29332
1.29333
1.29333
1.29333
1.29334
1.29328
1.29328
1.29328
1.29329
1.29329
1.29329
1.29329
1.29329
1.29329
1.29329
1.29329
1.2933
1.2933
1.2933
1.2933
1.29331
1.29331
1.29331
1.29332
1.29332
1.29332
1.29333
1.29333
1.29328
1.29328
1.29328
1.29328
1.29328
1.29328
1.29328
1.29328
1.29329
1.29329
1.29329
1.29329
1.29329
1.2933
1.2933
1.2933
1.2933
1.29331
1.29331
1.29331
1.29332
1.29332
1.29333
1.29327
1.29327
1.29328
1.29328
1.29328
1.29328
1.29328
1.29328
1.29328
1.29328
1.29328
1.29329
1.29329
1.29329
1.29329
1.2933
1.2933
1.2933
1.2933
1.29331
1.29331
1.29331
1.29332
1.29327
1.29327
1.29327
1.29327
1.29327
1.29327
1.29327
1.29327
1.29328
1.29328
1.29328
1.29328
1.29328
1.29328
1.29329
1.29329
1.29329
1.29329
1.2933
1.2933
1.2933
1.29331
1.29331
1.29326
1.29326
1.29327
1.29327
1.29327
1.29327
1.29327
1.29327
1.29327
1.29327
1.29327
1.29328
1.29328
1.29328
1.29328
1.29328
1.29329
1.29329
1.29329
1.29329
1.2933
1.2933
1.2933
1.29326
1.29326
1.29326
1.29326
1.29326
1.29326
1.29326
1.29326
1.29326
1.29327
1.29327
1.29327
1.29327
1.29327
1.29328
1.29328
1.29328
1.29328
1.29328
1.29329
1.29329
1.29329
1.29329
1.29325
1.29325
1.29325
1.29325
1.29326
1.29326
1.29326
1.29326
1.29326
1.29326
1.29326
1.29326
1.29327
1.29327
1.29327
1.29327
1.29327
1.29328
1.29328
1.29328
1.29328
1.29328
1.29329
1.29325
1.29325
1.29325
1.29325
1.29325
1.29325
1.29325
1.29325
1.29325
1.29325
1.29326
1.29326
1.29326
1.29326
1.29326
1.29326
1.29327
1.29327
1.29327
1.29327
1.29327
1.29328
1.29328
1.29324
1.29324
1.29324
1.29324
1.29324
1.29324
1.29324
1.29325
1.29325
1.29325
1.29325
1.29325
1.29325
1.29325
1.29326
1.29326
1.29326
1.29326
1.29326
1.29327
1.29327
1.29327
1.29327
1.29323
1.29323
1.29323
1.29323
1.29324
1.29324
1.29324
1.29324
1.29324
1.29324
1.29324
1.29324
1.29325
1.29325
1.29325
1.29325
1.29325
1.29325
1.29326
1.29326
1.29326
1.29326
1.29326
1.29323
1.29323
1.29323
1.29323
1.29323
1.29323
1.29323
1.29323
1.29323
1.29323
1.29324
1.29324
1.29324
1.29324
1.29324
1.29324
1.29325
1.29325
1.29325
1.29325
1.29325
1.29325
1.29325
1.29322
1.29322
1.29322
1.29322
1.29322
1.29322
1.29322
1.29322
1.29322
1.29323
1.29323
1.29323
1.29323
1.29323
1.29323
1.29324
1.29324
1.29324
1.29324
1.29324
1.29324
1.29324
1.29324
1.29321
1.29321
1.29321
1.29321
1.29321
1.29321
1.29321
1.29321
1.29321
1.29322
1.29322
1.29322
1.29322
1.29322
1.29323
1.29323
1.29323
1.29323
1.29323
1.29324
1.29324
1.29324
1.29324
1.29319
1.29319
1.29319
1.29319
1.29319
1.29319
1.2932
1.2932
1.2932
1.2932
1.29321
1.29321
1.29321
1.29321
1.29322
1.29322
1.29322
1.29322
1.29323
1.29323
1.29323
1.29323
1.29323
1.29317
1.29317
1.29317
1.29317
1.29318
1.29318
1.29318
1.29318
1.29318
1.29319
1.29319
1.29319
1.2932
1.2932
1.2932
1.29321
1.29321
1.29321
1.29322
1.29322
1.29322
1.29322
1.29322
1.29315
1.29315
1.29315
1.29315
1.29316
1.29316
1.29316
1.29316
1.29316
1.29317
1.29317
1.29318
1.29318
1.29318
1.29319
1.29319
1.2932
1.2932
1.29321
1.29321
1.29321
1.29321
1.29321
1.29314
1.29314
1.29314
1.29314
1.29314
1.29314
1.29314
1.29314
1.29314
1.29315
1.29315
1.29315
1.29316
1.29316
1.29317
1.29318
1.29318
1.29319
1.2932
1.2932
1.2932
1.29321
1.29321
1.29312
1.29312
1.29312
1.29312
1.29312
1.29312
1.29312
1.29313
1.29313
1.29313
1.29313
1.29314
1.29314
1.29314
1.29315
1.29315
1.29316
1.29317
1.29318
1.29319
1.29319
1.2932
1.2932
1.29311
1.29311
1.29311
1.29311
1.29311
1.29311
1.29311
1.29311
1.29311
1.29311
1.29312
1.29312
1.29312
1.29313
1.29313
1.29314
1.29314
1.29315
1.29316
1.29317
1.29318
1.29319
1.29319
1.2931
1.2931
1.2931
1.2931
1.2931
1.2931
1.2931
1.2931
1.2931
1.2931
1.2931
1.2931
1.29311
1.29311
1.29311
1.29312
1.29312
1.29313
1.29314
1.29315
1.29317
1.29318
1.29318
1.29309
1.29309
1.29309
1.29309
1.29309
1.29309
1.29309
1.29309
1.29309
1.29309
1.29309
1.29309
1.29309
1.2931
1.2931
1.2931
1.29311
1.29312
1.29312
1.29313
1.29315
1.29316
1.29317
1.29308
1.29308
1.29308
1.29308
1.29308
1.29308
1.29308
1.29308
1.29308
1.29308
1.29308
1.29308
1.29308
1.29309
1.29309
1.29309
1.2931
1.2931
1.29311
1.29312
1.29313
1.29314
1.29316
1.29307
1.29307
1.29307
1.29307
1.29307
1.29307
1.29307
1.29307
1.29307
1.29307
1.29307
1.29307
1.29308
1.29308
1.29308
1.29308
1.29309
1.29309
1.2931
1.2931
1.29311
1.29313
1.29314
1.29306
1.29306
1.29306
1.29306
1.29306
1.29306
1.29306
1.29306
1.29306
1.29306
1.29307
1.29307
1.29307
1.29307
1.29307
1.29307
1.29308
1.29308
1.29308
1.29309
1.2931
1.29311
1.29312
1.29306
1.29306
1.29306
1.29306
1.29306
1.29306
1.29306
1.29306
1.29306
1.29306
1.29306
1.29306
1.29306
1.29306
1.29306
1.29306
1.29307
1.29307
1.29308
1.29308
1.29309
1.2931
1.29311
1.29305
1.29305
1.29305
1.29305
1.29305
1.29305
1.29305
1.29305
1.29305
1.29305
1.29305
1.29305
1.29305
1.29306
1.29306
1.29306
1.29306
1.29306
1.29307
1.29307
1.29308
1.29308
1.29309
1.29305
1.29305
1.29305
1.29305
1.29305
1.29305
1.29305
1.29305
1.29305
1.29305
1.29305
1.29305
1.29305
1.29305
1.29306
1.29306
1.29306
1.29306
1.29307
1.29307
1.29308
1.29309
1.29309
999.612
1000.02
753.613
28.8896
999.85
1000.02
987.138
922.815
1000.02
999.961
999.59
1000.05
1000.05
1000.03
1000.04
1000.05
1000.05
1000.05
1000.05
1000.05
545.122
670.854
804.862
938.171
25.412
52.4524
100.699
171.417
1.32614
1.43794
1.83202
2.97421
1.29383
1.29389
1.29397
1.29455
1.31415
1.29574
1.29339
1.2934
1.30961
1.29842
1.29337
1.29337
1.29364
1.29374
1.29364
1.29342
1.29335
1.29336
1.29336
1.29336
1.29335
1.29335
1.29335
1.29336
1.29334
1.29334
1.29335
1.29335
1.29334
1.29334
1.29334
1.29334
1.29333
1.29333
1.29333
1.29333
1.29332
1.29332
1.29332
1.29333
1.29331
1.29331
1.29331
1.29332
1.2933
1.2933
1.29331
1.29331
1.29329
1.29329
1.2933
1.2933
1.29329
1.29329
1.29329
1.29329
1.29328
1.29328
1.29328
1.29328
1.29327
1.29327
1.29327
1.29327
1.29326
1.29326
1.29326
1.29326
1.29325
1.29325
1.29325
1.29325
1.29324
1.29325
1.29325
1.29325
1.29324
1.29324
1.29324
1.29324
1.29323
1.29323
1.29323
1.29323
1.29322
1.29322
1.29322
1.29322
1.29321
1.29321
1.29321
1.29321
1.29321
1.29321
1.29321
1.29321
1.2932
1.2932
1.2932
1.2932
1.29319
1.29319
1.29319
1.29319
1.29318
1.29319
1.29319
1.29318
1.29318
1.29318
1.29318
1.29318
1.29317
1.29317
1.29317
1.29317
1.29315
1.29316
1.29316
1.29317
1.29313
1.29314
1.29315
1.29315
1.29312
1.29313
1.29313
1.29314
1.2931
1.29311
1.29311
1.29312
1.2931
1.29311
1.29311
1.29312
1.30991
1.30983
1.30984
1.30984
1.30984
1.30984
1.30984
1.30984
1.30984
1.30984
1.30984
1.30984
1.30984
1.30984
1.30984
1.30984
1.30984
1.3097
1.30921
205.042
1.30816
1.30903
1.3104
1.30991
1.30984
1.30985
1.30984
1.30984
1.30984
1.30985
1.30984
1.30984
1.30983
1.30984
1.30982
1.30971
1.30883
1.30759
814.493
297.713
22.7611
1.31232
1.30905
1.30696
1.30791
1.31009
1.30985
1.30988
1.30993
1.30987
1.30994
1.30991
1.30986
1.30981
1.30949
1.30802
1.30704
995.497
912.777
736.065
485.724
312.601
223.616
117.086
1.31584
1.31099
1.3076
1.30987
1.3102
1.30999
1.31085
1.31084
1.30986
1.30973
1.30819
1.30822
1000.04
999.586
996.432
985.635
949.977
908.476
835.182
708.726
534.984
349.316
130.132
1.31236
1.3088
1.3095
1.3108
1.31368
1.32196
1.31044
1.31113
1000.05
1000.05
1000.05
1000.05
1000.05
1000.05
1000.05
999.393
992.251
959.384
873.998
717.509
441.332
62.1331
1.31284
1.31134
1.32248
1.32367
1.31688
349.65
627.928
765.585
836.816
878.889
908.368
939.713
979.677
1000.01
1000.01
1000.01
1000.01
978.325
846.383
547.271
102.843
1.32517
2.29114
3.36198
9.7503
40.4188
86.9311
136.82
186.176
230.859
282.462
361.494
486.565
614.503
746.053
930.353
999.966
999.966
995.21
843.914
446.568
112.048
98.9687
1.30064
1.34096
1.48195
1.80211
2.3873
3.25021
4.80389
8.5002
16.1662
37.7142
85.6459
197.125
437.502
836.563
995.21
995.209
944.598
690.867
278.938
1.29341
1.29342
1.29343
1.29343
1.29346
1.29353
1.29375
1.29494
1.30138
1.34025
1.7311
4.70076
5.23581
125.193
547.598
967.098
977.338
906.418
374.354
1.29338
1.29339
1.29339
1.2934
1.29341
1.29343
1.29348
1.2935
1.29349
1.29348
1.2935
1.29349
1.58381
1.29359
72.304
660.936
977.337
921.924
384.262
1.29337
1.29338
1.29339
1.2934
1.2934
1.29341
1.29344
1.29347
1.29347
1.29346
1.29347
1.29349
1.29359
1.29356
1.29362
310.238
917.72
921.449
380.897
1.29337
1.29337
1.29338
1.29339
1.29339
1.2934
1.29342
1.29343
1.29344
1.29345
1.29346
1.29346
1.29349
1.29352
1.29359
164.473
839.282
914.479
345.558
1.29336
1.29337
1.29337
1.29338
1.29339
1.2934
1.29341
1.29341
1.29343
1.29344
1.29345
1.29345
1.29348
1.2935
1.32624
119.604
784.441
857.637
303.773
1.29335
1.29336
1.29336
1.29337
1.29338
1.29339
1.2934
1.2934
1.29342
1.29342
1.29344
1.29344
1.29346
1.29347
1.47512
94.5556
763.763
835.525
303.771
1.29335
1.29335
1.29336
1.29337
1.29338
1.29338
1.29338
1.29339
1.2934
1.29341
1.29343
1.29343
1.29344
1.29345
1.72238
112.468
706.732
835.525
393.147
1.29334
1.29334
1.29335
1.29335
1.29337
1.29354
1.29356
1.29343
1.29339
1.29339
1.29341
1.29341
1.2934
1.29342
1.51458
79.5409
539.916
771.29
382.01
1.29333
1.29333
1.29334
1.29333
1.29334
1.29346
1.29369
1.29369
1.29346
1.29337
1.29339
1.29339
1.29338
1.29338
1.29335
15.3881
567.486
426.661
158.703
1.29332
1.29348
1.29348
1.29336
1.29334
1.29357
1.2933
1.2933
1.29333
1.29334
1.29336
1.29337
1.29337
1.29337
1.29337
18.6518
561.098
461.891
140.281
1.29331
1.2937
1.29369
1.2934
1.29454
1.3086
1.33758
1.32705
1.29328
1.2933
1.29332
1.29334
1.29335
1.29334
1.29337
1.29346
416.593
651.407
161.868
1.2933
1.29362
1.29357
1.29337
1.3289
1.4557
1.45733
1.45732
1.41959
1.30469
1.29387
1.29333
1.29334
1.29333
1.29338
1.29341
144.659
651.902
205.428
1.29329
1.29328
1.29326
1.31194
1.41143
1.44663
1.45158
1.45728
1.45729
1.40238
1.30158
1.2933
1.29332
1.29332
1.29337
1.2934
1.29349
423.498
416.843
1.29328
1.29326
1.30048
1.36114
1.30239
1.30237
1.30877
1.37477
1.45726
1.43036
1.30154
1.29328
1.29332
1.29332
1.29336
1.44839
1.29343
46.1327
416.84
1.29327
1.29326
1.30198
1.36111
1.29907
1.30946
1.3337
1.31352
1.34728
1.3378
1.29662
1.29333
1.29337
1.29332
1.29336
1.70968
1.5956
1.29631
343.237
1.29326
1.29325
1.30035
1.29509
1.2992
1.34899
1.34899
1.32715
1.29318
1.29344
1.29353
1.29332
1.29336
1.29332
1.29336
1.7103
1.55344
1.29628
83.305
1.29325
1.2933
1.29327
1.29328
1.2941
1.31657
1.349
1.32291
1.2932
1.29321
1.29325
1.29327
1.29332
1.29332
1.31179
1.56784
1.38131
1.29853
1.8535
1.29324
1.29324
1.29333
1.29503
1.29369
1.29485
1.30015
1.30161
1.29991
1.29921
1.29887
1.29596
1.29377
1.29403
1.33566
1.31815
1.29756
1.29548
1.29251
1.29324
1.29324
1.2934
1.29845
1.29715
1.29347
1.29327
1.29341
1.29487
1.29598
1.29636
1.29537
1.29542
1.29615
1.31241
1.29396
1.29361
1.29354
1.29243
1.29323
1.29323
1.29327
1.29528
1.30001
1.29326
1.29325
1.29326
1.29332
1.29334
1.29339
1.29338
1.29338
1.29372
1.29373
1.30183
1.30383
1.29419
1.29245
1.29322
1.29322
1.29322
1.29321
1.29352
1.29998
1.29389
1.29323
1.29327
1.29335
1.29353
23.8392
11.2902
1.29388
1.69856
1.41993
1.30411
1.29364
1.29249
1.29321
1.29321
1.29321
1.2932
1.29319
1.31218
1.31426
1.29814
1.29334
1.29337
58.7185
377.689
406.566
134.614
4.80774
1.35166
1.29972
1.29339
1.2925
1.29321
1.29321
1.2932
1.2932
1.29399
1.30562
1.31423
1.31032
1.29405
1.29338
221.897
472.422
472.447
289.823
9.29926
1.31181
1.29486
1.29328
1.29249
1.2932
1.2932
1.2932
1.29319
1.29318
1.29314
1.30954
1.30475
1.29367
1.29333
106.021
381.224
402.348
178.097
5.67006
1.29715
1.2935
1.2932
1.29247
1.29319
1.29319
1.29319
1.29318
1.29318
1.29532
1.30278
1.29633
1.29356
1.50606
8.47763
55.9368
52.0024
18.0161
3.4201
1.29742
1.29322
1.29316
1.29247
1.29318
1.29318
1.29318
1.29318
1.29317
1.29316
1.29312
1.29788
1.31773
1.61135
1.42371
1.41711
1.37321
1.32444
1.53193
1.33748
1.29312
1.29313
1.29248
1.29318
1.29318
1.29318
1.29317
1.29317
1.29316
1.29317
1.29701
1.31678
1.33012
1.29409
1.29303
1.29305
1.2931
1.2931
1.31324
1.29482
1.29309
1.2925
1.29317
1.29317
1.29317
1.29317
1.29317
1.29316
1.29315
1.29319
1.29378
1.29311
1.2931
1.29313
1.29314
1.29311
1.29303
1.2957
1.2947
1.29309
1.29252
1.29317
1.29317
1.29317
1.29316
1.29316
1.29316
1.29316
1.29315
1.29315
1.29315
1.29315
1.29315
1.29313
1.29306
1.29525
1.30648
1.29929
1.29296
1.29254
1.29316
1.29316
1.29316
1.29316
1.29315
1.29315
1.29315
1.29315
1.29315
1.29315
1.29315
1.29315
1.29311
1.293
1.30055
1.3068
1.30055
1.29286
1.29251
1.29315
1.29315
1.29315
1.29315
1.29315
1.29315
1.29315
1.29315
1.29315
1.29315
1.29315
1.29314
1.29311
1.29303
1.30008
1.3067
1.29702
1.29272
1.29245
1.29313
1.29314
1.29314
1.29314
1.29314
1.29314
1.29313
1.29314
1.29314
1.29313
1.29313
1.29312
1.29309
1.29302
1.29867
1.30668
1.29276
1.29267
1.29243
1.29313
1.29313
1.29313
1.29313
1.29312
1.29311
1.29311
1.2931
1.29309
1.29308
1.29307
1.29306
1.29304
1.29301
1.29334
1.29748
1.29841
1.29252
1.29233
)
;

boundaryField
{
    leftWall
    {
        type            calculated;
        value           nonuniform List<scalar> 
50
(
1000.05
1000.05
1000.05
1000.05
1000.05
1000.05
1000.05
1000.05
1000.05
1000.05
999.331
837.956
147.08
1.29341
1.29334
1.29332
1.29331
1.2933
1.2933
1.2933
1.2933
1.29329
1.29329
1.29328
1.29328
1.29327
1.29327
1.29326
1.29326
1.29325
1.29325
1.29324
1.29323
1.29323
1.29322
1.29321
1.29319
1.29317
1.29315
1.29314
1.29312
1.29311
1.2931
1.29309
1.29308
1.29307
1.29306
1.29306
1.29305
1.29305
)
;
    }
    rightWall
    {
        type            calculated;
        value           nonuniform List<scalar> 
50
(
1.30988
1.30987
1.30987
1.30987
1.30987
1.30987
1.30986
1.30979
1.30921
1.30759
1.30704
1.30822
1.31113
1.31688
3.36198
98.9687
278.938
374.354
384.262
380.897
345.558
303.773
303.771
393.147
382.01
158.703
140.281
161.868
205.428
416.843
416.84
343.237
83.305
1.8535
1.29251
1.29243
1.29245
1.29249
1.2925
1.29249
1.29247
1.29247
1.29248
1.2925
1.29252
1.29254
1.29251
1.29245
1.29243
1.29233
)
;
    }
    lowerWall
    {
        type            calculated;
        value           nonuniform List<scalar> 
62
(
1000.05
1000.05
1000.05
1000.05
1000.05
1000.05
1000.05
1000.05
1000.05
1000.05
1000.05
1000.05
1000.05
1000.05
1000.05
1000.05
1000.05
1000.05
1000.05
1000.05
1000.05
1000.05
999.171
999.171
999.62
999.738
998.586
998.106
998.106
998.106
998.106
999.612
1000.02
753.613
28.8896
1.30986
1.30986
1.30986
1.30986
1.30985
1.30985
1.30985
1.30985
1.30986
1.30986
1.30986
1.30986
1.30986
1.30986
1.30986
1.30986
1.30986
1.30986
1.30986
1.30986
1.30986
1.30986
1.30986
1.30987
1.30987
1.30987
1.30988
)
;
    }
    atmosphere
    {
        type            calculated;
        value           nonuniform List<scalar> 
46
(
1.29314
1.29314
1.29314
1.29314
1.29314
1.29314
1.29314
1.29314
1.29314
1.29314
1.29314
1.29314
1.29314
1.29314
1.29315
1.29315
1.29315
1.29315
1.29316
1.29316
1.29317
1.29317
1.29318
1.29319
1.29319
1.2932
1.29321
1.29321
1.29322
1.29322
1.29321
1.29321
1.2932
1.29319
1.29319
1.29318
1.29317
1.29316
1.29315
1.29313
1.29309
1.2929
1.29762
1.29859
1.29274
1.29253
)
;
    }
    defaultFaces
    {
        type            empty;
    }
}


// ************************************************************************* //
