/*--------------------------------*- C++ -*----------------------------------*\
| =========                 |                                                 |
| \\      /  F ield         | OpenFOAM: The Open Source CFD Toolbox           |
|  \\    /   O peration     | Version:  2012                                  |
|   \\  /    A nd           | Website:  www.openfoam.com                      |
|    \\/     M anipulation  |                                                 |
\*---------------------------------------------------------------------------*/
FoamFile
{
    version     2.0;
    format      ascii;
    class       volScalarField;
    location    "0.36";
    object      rho2;
}
// * * * * * * * * * * * * * * * * * * * * * * * * * * * * * * * * * * * * * //

dimensions      [1 -3 0 0 0 0 0];


internalField   nonuniform List<scalar> 
2268
(
1.30662
1.30662
1.30662
1.30662
1.30662
1.30663
1.30665
1.30669
1.30677
1.30686
1.30706
1.30719
1.30756
1.30785
1.30839
1.3089
1.30965
1.31041
1.31136
1.31227
1.31325
1.31402
1.31452
1.30586
1.30586
1.30585
1.30585
1.30586
1.30587
1.30588
1.30593
1.306
1.30609
1.30629
1.30642
1.30678
1.30707
1.30761
1.30812
1.30887
1.30963
1.31058
1.31149
1.31246
1.31322
1.31371
1.30509
1.30509
1.30509
1.30509
1.30509
1.3051
1.30511
1.30515
1.30522
1.30531
1.30551
1.30564
1.306
1.30628
1.30683
1.30732
1.30808
1.30884
1.30981
1.31075
1.31177
1.31262
1.31319
1.30431
1.30431
1.3043
1.3043
1.3043
1.3043
1.30432
1.30436
1.30442
1.30451
1.30469
1.30482
1.30517
1.30545
1.30598
1.30648
1.30722
1.30799
1.30895
1.30992
1.31091
1.31178
1.31223
1.30352
1.30352
1.30351
1.30351
1.30351
1.30351
1.30353
1.30356
1.30362
1.3037
1.30388
1.30401
1.30435
1.30462
1.30516
1.30565
1.3064
1.30716
1.30814
1.30913
1.31021
1.31119
1.31196
1.30271
1.30271
1.30271
1.3027
1.30269
1.30269
1.3027
1.30273
1.30279
1.30286
1.30302
1.30315
1.30347
1.30373
1.30424
1.30473
1.30546
1.30623
1.30719
1.30825
1.30932
1.31041
1.31091
1.30191
1.30191
1.3019
1.30189
1.30189
1.30189
1.3019
1.30191
1.30197
1.30203
1.30218
1.30231
1.30262
1.30286
1.30338
1.30385
1.30459
1.30535
1.30635
1.30739
1.30854
1.30969
1.31063
1.30108
1.30108
1.30107
1.30106
1.30105
1.30104
1.30104
1.30105
1.30109
1.30115
1.30127
1.30139
1.30167
1.30191
1.30238
1.30285
1.30355
1.3043
1.30528
1.3064
1.30756
1.30897
1.3097
1.30986
1.30986
1.30986
1.30986
1.30986
1.30986
1.30986
1.30986
1.30986
1.30986
1.30986
1.30986
1.30986
1.30986
1.30986
1.30987
1.30987
1.30987
1.30988
1.30986
1.30986
1.30986
1.30986
1.30986
1.30986
1.30986
1.30986
1.30986
1.30986
1.30986
1.30986
1.30986
1.30986
1.30986
1.30986
1.30987
1.30987
1.30987
1.30986
1.30985
1.30986
1.30985
1.30986
1.30985
1.30986
1.30985
1.30986
1.30985
1.30986
1.30985
1.30986
1.30986
1.30986
1.30986
1.30987
1.30987
1.30987
1.30986
1.30985
1.30985
1.30985
1.30985
1.30985
1.30985
1.30985
1.30985
1.30985
1.30985
1.30985
1.30986
1.30986
1.30986
1.30986
1.30986
1.30987
1.30987
1.30985
1.30985
1.30985
1.30985
1.30985
1.30985
1.30985
1.30985
1.30985
1.30985
1.30985
1.30985
1.30985
1.30985
1.30986
1.30986
1.30986
1.30987
1.30987
1.30985
1.30985
1.30985
1.30985
1.30985
1.30985
1.30985
1.30985
1.30985
1.30985
1.30985
1.30985
1.30985
1.30985
1.30985
1.30986
1.30986
1.30987
1.30987
1.30985
1.30984
1.30985
1.30985
1.30985
1.30985
1.30985
1.30985
1.30985
1.30985
1.30985
1.30985
1.30985
1.30985
1.30985
1.30985
1.30986
1.30987
1.30986
1.30985
1.30984
1.30985
1.30985
1.30985
1.30985
1.30985
1.30985
1.30985
1.30984
1.30985
1.30984
1.30985
1.30984
1.30985
1.30985
1.30985
1.30985
1.30979
1.29981
1.2998
1.29979
1.29978
1.29976
1.29975
1.29975
1.29975
1.29978
1.29982
1.29992
1.30003
1.30029
1.3005
1.30097
1.3014
1.30213
1.30285
1.30388
1.30496
1.30625
1.30763
1.30868
1.29797
1.29796
1.29795
1.29792
1.29789
1.29786
1.29783
1.2978
1.2978
1.2978
1.29786
1.29792
1.29808
1.29824
1.29859
1.2989
1.29953
1.30015
1.30121
1.30232
1.30388
1.30569
1.30786
1.29619
1.29618
1.29616
1.29613
1.2961
1.29606
1.29602
1.29597
1.29595
1.29592
1.29593
1.29594
1.29604
1.29615
1.29645
1.29673
1.29732
1.29784
1.29877
1.29966
1.30079
1.3022
1.30383
1.29446
1.29444
1.29442
1.29439
1.29435
1.2943
1.29425
1.29418
1.29413
1.29406
1.29402
1.29398
1.29396
1.29395
1.29398
1.29406
1.29424
1.29462
1.2953
1.2964
1.29777
1.29957
1.30138
1.29361
1.2936
1.29359
1.29359
1.29359
1.29357
1.29357
1.29355
1.29353
1.29351
1.2935
1.2935
1.2935
1.2935
1.2935
1.29351
1.29354
1.29358
1.29365
1.29378
1.29403
1.29488
1.29641
1.29341
1.29341
1.2934
1.29341
1.29341
1.29341
1.29342
1.29341
1.2934
1.29339
1.29338
1.29337
1.29337
1.29337
1.29337
1.29338
1.29339
1.29341
1.29345
1.29351
1.29356
1.29365
1.29389
1.29334
1.29334
1.29334
1.29334
1.29334
1.29334
1.29334
1.29334
1.29334
1.29334
1.29334
1.29334
1.29334
1.29334
1.29334
1.29335
1.29335
1.29336
1.29338
1.2934
1.29343
1.29348
1.29353
1.29332
1.29332
1.29332
1.29332
1.29332
1.29332
1.29332
1.29332
1.29332
1.29332
1.29333
1.29333
1.29333
1.29333
1.29334
1.29334
1.29334
1.29335
1.29335
1.29336
1.29339
1.29342
1.29346
1.29331
1.29331
1.29331
1.29331
1.29331
1.29331
1.29331
1.29331
1.29332
1.29332
1.29332
1.29332
1.29333
1.29333
1.29333
1.29334
1.29334
1.29334
1.29335
1.29335
1.29336
1.29338
1.2934
1.2933
1.2933
1.29331
1.29331
1.29331
1.29331
1.29331
1.29331
1.29331
1.29332
1.29332
1.29332
1.29332
1.29333
1.29333
1.29333
1.29334
1.29334
1.29334
1.29335
1.29335
1.29336
1.29337
1.2933
1.2933
1.2933
1.2933
1.2933
1.29331
1.29331
1.29331
1.29331
1.29331
1.29332
1.29332
1.29332
1.29332
1.29333
1.29333
1.29333
1.29334
1.29334
1.29334
1.29335
1.29335
1.29336
1.2933
1.2933
1.2933
1.2933
1.2933
1.2933
1.2933
1.29331
1.29331
1.29331
1.29331
1.29331
1.29332
1.29332
1.29332
1.29333
1.29333
1.29333
1.29334
1.29334
1.29335
1.29335
1.29336
1.2933
1.2933
1.2933
1.2933
1.2933
1.2933
1.2933
1.2933
1.2933
1.29331
1.29331
1.29331
1.29331
1.29331
1.29332
1.29332
1.29332
1.29333
1.29333
1.29334
1.29334
1.29335
1.29335
1.29329
1.29329
1.29329
1.29329
1.29329
1.2933
1.2933
1.2933
1.2933
1.2933
1.2933
1.29331
1.29331
1.29331
1.29331
1.29332
1.29332
1.29332
1.29333
1.29333
1.29334
1.29334
1.29335
1.29329
1.29329
1.29329
1.29329
1.29329
1.29329
1.29329
1.29329
1.2933
1.2933
1.2933
1.2933
1.2933
1.29331
1.29331
1.29331
1.29331
1.29332
1.29332
1.29333
1.29333
1.29333
1.29334
1.29328
1.29328
1.29328
1.29329
1.29329
1.29329
1.29329
1.29329
1.29329
1.29329
1.29329
1.2933
1.2933
1.2933
1.2933
1.29331
1.29331
1.29331
1.29332
1.29332
1.29332
1.29333
1.29333
1.29328
1.29328
1.29328
1.29328
1.29328
1.29328
1.29328
1.29328
1.29329
1.29329
1.29329
1.29329
1.29329
1.2933
1.2933
1.2933
1.2933
1.29331
1.29331
1.29331
1.29332
1.29332
1.29333
1.29327
1.29327
1.29328
1.29328
1.29328
1.29328
1.29328
1.29328
1.29328
1.29328
1.29328
1.29329
1.29329
1.29329
1.29329
1.2933
1.2933
1.2933
1.2933
1.29331
1.29331
1.29331
1.29332
1.29327
1.29327
1.29327
1.29327
1.29327
1.29327
1.29327
1.29327
1.29328
1.29328
1.29328
1.29328
1.29328
1.29328
1.29329
1.29329
1.29329
1.29329
1.2933
1.2933
1.2933
1.29331
1.29331
1.29326
1.29326
1.29327
1.29327
1.29327
1.29327
1.29327
1.29327
1.29327
1.29327
1.29327
1.29328
1.29328
1.29328
1.29328
1.29328
1.29329
1.29329
1.29329
1.29329
1.2933
1.2933
1.2933
1.29326
1.29326
1.29326
1.29326
1.29326
1.29326
1.29326
1.29326
1.29326
1.29327
1.29327
1.29327
1.29327
1.29327
1.29328
1.29328
1.29328
1.29328
1.29328
1.29329
1.29329
1.29329
1.29329
1.29325
1.29325
1.29325
1.29325
1.29326
1.29326
1.29326
1.29326
1.29326
1.29326
1.29326
1.29326
1.29327
1.29327
1.29327
1.29327
1.29327
1.29328
1.29328
1.29328
1.29328
1.29328
1.29329
1.29325
1.29325
1.29325
1.29325
1.29325
1.29325
1.29325
1.29325
1.29325
1.29325
1.29326
1.29326
1.29326
1.29326
1.29326
1.29326
1.29327
1.29327
1.29327
1.29327
1.29327
1.29328
1.29328
1.29324
1.29324
1.29324
1.29324
1.29324
1.29324
1.29324
1.29325
1.29325
1.29325
1.29325
1.29325
1.29325
1.29325
1.29326
1.29326
1.29326
1.29326
1.29326
1.29327
1.29327
1.29327
1.29327
1.29323
1.29323
1.29323
1.29323
1.29324
1.29324
1.29324
1.29324
1.29324
1.29324
1.29324
1.29324
1.29325
1.29325
1.29325
1.29325
1.29325
1.29325
1.29326
1.29326
1.29326
1.29326
1.29326
1.29323
1.29323
1.29323
1.29323
1.29323
1.29323
1.29323
1.29323
1.29323
1.29323
1.29324
1.29324
1.29324
1.29324
1.29324
1.29324
1.29325
1.29325
1.29325
1.29325
1.29325
1.29325
1.29325
1.29322
1.29322
1.29322
1.29322
1.29322
1.29322
1.29322
1.29322
1.29322
1.29323
1.29323
1.29323
1.29323
1.29323
1.29323
1.29324
1.29324
1.29324
1.29324
1.29324
1.29324
1.29324
1.29324
1.29321
1.29321
1.29321
1.29321
1.29321
1.29321
1.29321
1.29321
1.29321
1.29322
1.29322
1.29322
1.29322
1.29322
1.29323
1.29323
1.29323
1.29323
1.29323
1.29324
1.29324
1.29324
1.29324
1.29319
1.29319
1.29319
1.29319
1.29319
1.29319
1.2932
1.2932
1.2932
1.2932
1.29321
1.29321
1.29321
1.29321
1.29322
1.29322
1.29322
1.29322
1.29323
1.29323
1.29323
1.29323
1.29323
1.29317
1.29317
1.29317
1.29317
1.29318
1.29318
1.29318
1.29318
1.29318
1.29319
1.29319
1.29319
1.2932
1.2932
1.2932
1.29321
1.29321
1.29321
1.29322
1.29322
1.29322
1.29322
1.29322
1.29315
1.29315
1.29315
1.29315
1.29316
1.29316
1.29316
1.29316
1.29316
1.29317
1.29317
1.29318
1.29318
1.29318
1.29319
1.29319
1.2932
1.2932
1.29321
1.29321
1.29321
1.29321
1.29321
1.29314
1.29314
1.29314
1.29314
1.29314
1.29314
1.29314
1.29314
1.29314
1.29315
1.29315
1.29315
1.29316
1.29316
1.29317
1.29318
1.29318
1.29319
1.2932
1.2932
1.2932
1.29321
1.29321
1.29312
1.29312
1.29312
1.29312
1.29312
1.29312
1.29312
1.29313
1.29313
1.29313
1.29313
1.29314
1.29314
1.29314
1.29315
1.29315
1.29316
1.29317
1.29318
1.29319
1.29319
1.2932
1.2932
1.29311
1.29311
1.29311
1.29311
1.29311
1.29311
1.29311
1.29311
1.29311
1.29311
1.29312
1.29312
1.29312
1.29313
1.29313
1.29314
1.29314
1.29315
1.29316
1.29317
1.29318
1.29319
1.29319
1.2931
1.2931
1.2931
1.2931
1.2931
1.2931
1.2931
1.2931
1.2931
1.2931
1.2931
1.2931
1.29311
1.29311
1.29311
1.29312
1.29312
1.29313
1.29314
1.29315
1.29317
1.29318
1.29318
1.29309
1.29309
1.29309
1.29309
1.29309
1.29309
1.29309
1.29309
1.29309
1.29309
1.29309
1.29309
1.29309
1.2931
1.2931
1.2931
1.29311
1.29312
1.29312
1.29313
1.29315
1.29316
1.29317
1.29308
1.29308
1.29308
1.29308
1.29308
1.29308
1.29308
1.29308
1.29308
1.29308
1.29308
1.29308
1.29308
1.29309
1.29309
1.29309
1.2931
1.2931
1.29311
1.29312
1.29313
1.29314
1.29316
1.29307
1.29307
1.29307
1.29307
1.29307
1.29307
1.29307
1.29307
1.29307
1.29307
1.29307
1.29307
1.29308
1.29308
1.29308
1.29308
1.29309
1.29309
1.2931
1.2931
1.29311
1.29313
1.29314
1.29306
1.29306
1.29306
1.29306
1.29306
1.29306
1.29306
1.29306
1.29306
1.29306
1.29307
1.29307
1.29307
1.29307
1.29307
1.29307
1.29308
1.29308
1.29308
1.29309
1.2931
1.29311
1.29312
1.29306
1.29306
1.29306
1.29306
1.29306
1.29306
1.29306
1.29306
1.29306
1.29306
1.29306
1.29306
1.29306
1.29306
1.29306
1.29306
1.29307
1.29307
1.29308
1.29308
1.29309
1.2931
1.29311
1.29305
1.29305
1.29305
1.29305
1.29305
1.29305
1.29305
1.29305
1.29305
1.29305
1.29305
1.29305
1.29305
1.29306
1.29306
1.29306
1.29306
1.29306
1.29307
1.29307
1.29308
1.29308
1.29309
1.29305
1.29305
1.29305
1.29305
1.29305
1.29305
1.29305
1.29305
1.29305
1.29305
1.29305
1.29305
1.29305
1.29305
1.29306
1.29306
1.29306
1.29306
1.29307
1.29307
1.29308
1.29309
1.29309
1.30869
1.31314
1.31552
1.3166
1.31014
1.3118
1.31194
1.31512
1.3055
1.30705
1.30877
1.31006
1.30278
1.30407
1.30502
1.30662
1.29798
1.29896
1.30004
1.30115
1.29423
1.29466
1.2952
1.29602
1.29355
1.29356
1.29359
1.29362
1.29346
1.29346
1.29346
1.29348
1.29342
1.29343
1.29343
1.29344
1.29338
1.29339
1.29339
1.2934
1.29336
1.29337
1.29337
1.29337
1.29336
1.29336
1.29336
1.29337
1.29335
1.29336
1.29336
1.29336
1.29335
1.29335
1.29335
1.29336
1.29334
1.29334
1.29335
1.29335
1.29334
1.29334
1.29334
1.29334
1.29333
1.29333
1.29333
1.29333
1.29332
1.29332
1.29332
1.29333
1.29331
1.29331
1.29331
1.29332
1.2933
1.2933
1.29331
1.29331
1.29329
1.29329
1.2933
1.2933
1.29329
1.29329
1.29329
1.29329
1.29328
1.29328
1.29328
1.29328
1.29327
1.29327
1.29327
1.29327
1.29326
1.29326
1.29326
1.29326
1.29325
1.29325
1.29325
1.29325
1.29324
1.29325
1.29325
1.29325
1.29324
1.29324
1.29324
1.29324
1.29323
1.29323
1.29323
1.29323
1.29322
1.29322
1.29322
1.29322
1.29321
1.29321
1.29321
1.29321
1.29321
1.29321
1.29321
1.29321
1.2932
1.2932
1.2932
1.2932
1.29319
1.29319
1.29319
1.29319
1.29318
1.29319
1.29319
1.29318
1.29318
1.29318
1.29318
1.29318
1.29317
1.29317
1.29317
1.29317
1.29315
1.29316
1.29316
1.29317
1.29313
1.29314
1.29315
1.29315
1.29312
1.29313
1.29313
1.29314
1.2931
1.29311
1.29311
1.29312
1.2931
1.29311
1.29311
1.29312
1.30991
1.30983
1.30984
1.30984
1.30984
1.30984
1.30984
1.30984
1.30984
1.30984
1.30984
1.30984
1.30984
1.30984
1.30984
1.30984
1.30984
1.3097
1.30921
1.31534
1.30816
1.30903
1.3104
1.30991
1.30984
1.30985
1.30984
1.30984
1.30984
1.30985
1.30983
1.30984
1.30983
1.30984
1.30982
1.30971
1.30883
1.30759
1.31315
1.31297
1.31479
1.31232
1.30905
1.30696
1.30791
1.31009
1.30985
1.30988
1.30993
1.30984
1.30986
1.30985
1.30986
1.30981
1.30949
1.30802
1.30704
1.30838
1.31089
1.31453
1.31538
1.31451
1.3133
1.31397
1.31584
1.31099
1.3076
1.30987
1.3102
1.30986
1.30994
1.30997
1.30986
1.30954
1.30817
1.30822
1.303
1.30505
1.30665
1.30901
1.31098
1.31209
1.31349
1.31569
1.31461
1.31389
1.31566
1.31236
1.3088
1.3095
1.31019
1.31016
1.31027
1.30942
1.31113
1.29765
1.30017
1.3022
1.30332
1.30411
1.30488
1.3059
1.30717
1.30868
1.3106
1.31354
1.31513
1.31455
1.31524
1.31222
1.31073
1.3109
1.31102
1.31325
1.29375
1.29423
1.29496
1.29577
1.29661
1.29745
1.29841
1.29971
1.30097
1.30254
1.3043
1.30698
1.30984
1.31417
1.31536
1.31612
1.31359
1.31329
1.31481
1.29351
1.29354
1.29357
1.29359
1.29363
1.29368
1.29376
1.29391
1.29418
1.29475
1.29591
1.29808
1.3013
1.30509
1.30898
1.3146
1.31666
1.31671
1.31691
1.29344
1.29344
1.29343
1.29343
1.29344
1.29347
1.2935
1.29354
1.29357
1.2936
1.29365
1.2938
1.29424
1.29729
1.30268
1.30806
1.31511
1.31977
1.32361
1.29341
1.29342
1.29342
1.29342
1.29343
1.29343
1.29344
1.29345
1.29347
1.29348
1.29351
1.29357
1.29364
1.29379
1.29568
1.30324
1.31139
1.31925
1.32409
1.29338
1.29339
1.29339
1.2934
1.29341
1.29342
1.29343
1.29345
1.29346
1.29346
1.29348
1.29348
1.29353
1.29355
1.29376
1.29644
1.30635
1.31443
1.31806
1.29337
1.29338
1.29339
1.2934
1.2934
1.29341
1.29342
1.29343
1.29344
1.29345
1.29347
1.29348
1.2935
1.29351
1.29362
1.29398
1.30169
1.30991
1.31214
1.29337
1.29337
1.29338
1.29339
1.29339
1.2934
1.29341
1.29342
1.29344
1.29344
1.29346
1.29346
1.29348
1.2935
1.29359
1.2937
1.29743
1.30518
1.30593
1.29336
1.29337
1.29337
1.29338
1.29339
1.2934
1.29341
1.29341
1.29343
1.29343
1.29345
1.29345
1.29348
1.29349
1.2936
1.2937
1.29599
1.30249
1.30231
1.29335
1.29336
1.29336
1.29337
1.29338
1.29339
1.2934
1.2934
1.29342
1.29342
1.29344
1.29344
1.29346
1.29347
1.29359
1.29366
1.29544
1.29996
1.29957
1.29335
1.29335
1.29336
1.29336
1.29337
1.29338
1.29338
1.29339
1.2934
1.29341
1.29342
1.29343
1.29344
1.29345
1.29357
1.29363
1.29597
1.29866
1.29825
1.29334
1.29334
1.29335
1.29335
1.29335
1.29336
1.29337
1.29337
1.29339
1.29339
1.2934
1.2934
1.2934
1.29342
1.29337
1.29362
1.29453
1.29709
1.29631
1.29333
1.29333
1.29333
1.29333
1.29333
1.29333
1.29334
1.29334
1.29336
1.29337
1.29338
1.29339
1.29338
1.29338
1.29335
1.29358
1.29369
1.29746
1.29595
1.29332
1.29332
1.29332
1.29331
1.2933
1.2933
1.2933
1.2933
1.29332
1.29333
1.29335
1.29336
1.29336
1.29336
1.29337
1.29352
1.29377
1.29668
1.29576
1.29331
1.29331
1.2933
1.29328
1.29327
1.29326
1.29325
1.29326
1.29328
1.2933
1.29332
1.29334
1.29335
1.29334
1.29337
1.29346
1.29357
1.29654
1.29659
1.2933
1.29329
1.29327
1.29325
1.29325
1.29324
1.29323
1.29321
1.29323
1.29325
1.2933
1.29331
1.29334
1.29333
1.29338
1.29341
1.29359
1.29445
1.29644
1.29329
1.29328
1.29325
1.29324
1.29324
1.29322
1.2932
1.29317
1.29318
1.29321
1.29326
1.29329
1.29332
1.29332
1.29337
1.2934
1.29349
1.29357
1.29589
1.29328
1.29326
1.29324
1.29323
1.29323
1.2932
1.29318
1.29314
1.29315
1.29318
1.29324
1.29327
1.29332
1.29332
1.29336
1.2934
1.29343
1.29336
1.29342
1.29327
1.29326
1.29323
1.29323
1.29323
1.2932
1.29318
1.29314
1.29315
1.29318
1.29323
1.29327
1.29331
1.29331
1.29336
1.29338
1.29341
1.29323
1.29293
1.29326
1.29325
1.29322
1.29323
1.29324
1.29321
1.2932
1.29317
1.29317
1.29319
1.29324
1.29327
1.29331
1.29331
1.29336
1.29337
1.2934
1.29318
1.29244
1.29325
1.29325
1.29323
1.29323
1.29324
1.29322
1.29322
1.29319
1.2932
1.2932
1.29325
1.29327
1.29331
1.29331
1.29337
1.29336
1.29339
1.29322
1.29236
1.29324
1.29324
1.29323
1.29322
1.29324
1.29325
1.29325
1.29323
1.29323
1.29323
1.29327
1.29328
1.29331
1.29332
1.29336
1.29335
1.29337
1.29326
1.29235
1.29324
1.29324
1.29323
1.29321
1.29322
1.29324
1.29326
1.29326
1.29328
1.29325
1.29328
1.29328
1.29335
1.29334
1.29337
1.29335
1.29336
1.2933
1.2924
1.29323
1.29323
1.29322
1.29321
1.29321
1.29322
1.29325
1.29326
1.29331
1.29333
1.29338
1.29338
1.29338
1.29336
1.29336
1.29334
1.29334
1.2933
1.29244
1.29322
1.29322
1.29322
1.29321
1.29318
1.29319
1.29321
1.29323
1.29327
1.29335
1.29353
1.29354
1.29366
1.29351
1.29341
1.29334
1.29333
1.29329
1.29248
1.29321
1.29321
1.29321
1.2932
1.29318
1.29316
1.29318
1.2932
1.29324
1.29337
1.29358
1.2934
1.29328
1.29336
1.2933
1.29327
1.29327
1.29326
1.2925
1.29321
1.29321
1.2932
1.2932
1.29318
1.29314
1.29314
1.29316
1.29321
1.29338
1.29346
1.29344
1.29342
1.29321
1.29309
1.29318
1.29322
1.29322
1.29248
1.2932
1.2932
1.2932
1.29319
1.29318
1.29314
1.29311
1.29313
1.29318
1.29333
1.2933
1.2932
1.29301
1.293
1.29303
1.29311
1.29319
1.29318
1.29247
1.29319
1.29319
1.29319
1.29318
1.29317
1.29314
1.29311
1.2931
1.29315
1.29321
1.29308
1.29296
1.29287
1.2929
1.29301
1.2931
1.29316
1.29316
1.29247
1.29318
1.29318
1.29318
1.29318
1.29317
1.29316
1.29312
1.29309
1.2931
1.29309
1.29301
1.29292
1.2929
1.29296
1.29306
1.29309
1.29312
1.29313
1.29248
1.29318
1.29318
1.29318
1.29317
1.29317
1.29316
1.29314
1.2931
1.29308
1.29307
1.29303
1.29301
1.29305
1.2931
1.2931
1.29306
1.29307
1.29309
1.2925
1.29317
1.29317
1.29317
1.29317
1.29317
1.29316
1.29315
1.29314
1.29311
1.29311
1.2931
1.29313
1.29314
1.29311
1.29303
1.29293
1.29296
1.29302
1.29252
1.29317
1.29317
1.29317
1.29316
1.29316
1.29316
1.29316
1.29315
1.29315
1.29315
1.29315
1.29315
1.29313
1.29306
1.29287
1.2927
1.29276
1.29291
1.29254
1.29316
1.29316
1.29316
1.29316
1.29315
1.29315
1.29315
1.29315
1.29315
1.29315
1.29315
1.29314
1.29311
1.29299
1.29271
1.29251
1.29258
1.29281
1.29251
1.29315
1.29315
1.29315
1.29315
1.29315
1.29315
1.29315
1.29315
1.29315
1.29315
1.29315
1.29314
1.29311
1.29297
1.29264
1.2924
1.29244
1.2927
1.29245
1.29313
1.29314
1.29314
1.29314
1.29314
1.29314
1.29313
1.29314
1.29314
1.29313
1.29313
1.29312
1.29309
1.29295
1.29262
1.29238
1.29246
1.29267
1.29243
1.29313
1.29313
1.29313
1.29313
1.29312
1.29311
1.29311
1.2931
1.29309
1.29308
1.29307
1.29306
1.29304
1.29299
1.29278
1.2925
1.29244
1.29252
1.29232
)
;

boundaryField
{
    leftWall
    {
        type            calculated;
        value           nonuniform List<scalar> 
50
(
1.30662
1.30586
1.30509
1.30431
1.30352
1.30271
1.30191
1.30108
1.29981
1.29797
1.29619
1.29446
1.29361
1.29341
1.29334
1.29332
1.29331
1.2933
1.2933
1.2933
1.2933
1.29329
1.29329
1.29328
1.29328
1.29327
1.29327
1.29326
1.29326
1.29325
1.29325
1.29324
1.29323
1.29323
1.29322
1.29321
1.29319
1.29317
1.29315
1.29314
1.29312
1.29311
1.2931
1.29309
1.29308
1.29307
1.29306
1.29306
1.29305
1.29305
)
;
    }
    rightWall
    {
        type            calculated;
        value           nonuniform List<scalar> 
50
(
1.30988
1.30987
1.30987
1.30987
1.30987
1.30987
1.30986
1.30979
1.30921
1.30759
1.30704
1.30822
1.31113
1.31325
1.31481
1.31691
1.32361
1.32409
1.31806
1.31214
1.30593
1.30231
1.29957
1.29825
1.29631
1.29595
1.29576
1.29659
1.29644
1.29589
1.29342
1.29293
1.29244
1.29236
1.29235
1.2924
1.29244
1.29248
1.2925
1.29248
1.29247
1.29247
1.29248
1.2925
1.29252
1.29254
1.29251
1.29245
1.29243
1.29232
)
;
    }
    lowerWall
    {
        type            calculated;
        value           nonuniform List<scalar> 
62
(
1.307
1.307
1.30699
1.30699
1.307
1.30701
1.30703
1.30707
1.30714
1.30724
1.30743
1.30757
1.30793
1.30823
1.30877
1.30928
1.31003
1.31078
1.31174
1.31265
1.31362
1.31439
1.31489
1.31452
1.31371
1.31319
1.31223
1.31196
1.31091
1.31063
1.3097
1.30949
1.31394
1.31612
1.31663
1.30986
1.30986
1.30986
1.30986
1.30985
1.30985
1.30985
1.30985
1.30986
1.30986
1.30986
1.30986
1.30986
1.30986
1.30986
1.30986
1.30986
1.30986
1.30986
1.30986
1.30986
1.30986
1.30986
1.30987
1.30987
1.30987
1.30988
)
;
    }
    atmosphere
    {
        type            calculated;
        value           nonuniform List<scalar> 
46
(
1.29314
1.29314
1.29314
1.29314
1.29314
1.29314
1.29314
1.29314
1.29314
1.29314
1.29314
1.29314
1.29314
1.29314
1.29315
1.29315
1.29315
1.29315
1.29316
1.29316
1.29317
1.29317
1.29318
1.29319
1.29319
1.2932
1.29321
1.29321
1.29322
1.29322
1.29321
1.29321
1.2932
1.29319
1.29319
1.29318
1.29317
1.29316
1.29315
1.29313
1.29309
1.2929
1.29264
1.29261
1.29274
1.29252
)
;
    }
    defaultFaces
    {
        type            empty;
    }
}


// ************************************************************************* //
