/*--------------------------------*- C++ -*----------------------------------*\
| =========                 |                                                 |
| \\      /  F ield         | OpenFOAM: The Open Source CFD Toolbox           |
|  \\    /   O peration     | Version:  2012                                  |
|   \\  /    A nd           | Website:  www.openfoam.com                      |
|    \\/     M anipulation  |                                                 |
\*---------------------------------------------------------------------------*/
FoamFile
{
    version     2.0;
    format      ascii;
    class       volVectorField;
    location    "0.36";
    object      U;
}
// * * * * * * * * * * * * * * * * * * * * * * * * * * * * * * * * * * * * * //

dimensions      [0 1 -1 0 0 0 0];


internalField   nonuniform List<vector> 
2268
(
(0.0200798 -0.0100464 0)
(0.0646605 -0.00999947 0)
(0.104474 -0.00962809 0)
(0.146016 -0.00977271 0)
(0.187238 -0.00967749 0)
(0.228076 -0.00920212 0)
(0.265535 -0.00850451 0)
(0.300673 -0.00850513 0)
(0.338671 -0.00743221 0)
(0.365127 -0.00686635 0)
(0.398499 -0.00623552 0)
(0.421485 -0.00483506 0)
(0.440156 -0.00284143 0)
(0.451518 -0.00222608 0)
(0.461146 -0.000662578 0)
(0.457627 0.00107632 0)
(0.446377 0.00292929 0)
(0.422032 0.00312805 0)
(0.384949 0.00407941 0)
(0.332057 0.00296079 0)
(0.260418 0.00443914 0)
(0.177051 0.00529159 0)
(0.0681278 0.0327144 0)
(0.0200271 -0.030003 0)
(0.0646053 -0.0298872 0)
(0.104665 -0.0288211 0)
(0.146274 -0.0293444 0)
(0.187432 -0.0291052 0)
(0.228384 -0.0278044 0)
(0.265929 -0.0258066 0)
(0.301389 -0.0260606 0)
(0.339229 -0.0230403 0)
(0.365958 -0.0213908 0)
(0.399785 -0.0204404 0)
(0.422366 -0.0148096 0)
(0.44111 -0.0114068 0)
(0.455578 -0.00765241 0)
(0.462361 -0.00227281 0)
(0.459436 0.00593342 0)
(0.447408 0.0138471 0)
(0.423191 0.025928 0)
(0.384982 0.038394 0)
(0.329875 0.0559 0)
(0.252693 0.0687477 0)
(0.159112 0.0855096 0)
(0.0412557 0.0830103 0)
(0.0199531 -0.050037 0)
(0.0646173 -0.0499933 0)
(0.104996 -0.0482168 0)
(0.146659 -0.0488816 0)
(0.187685 -0.0484732 0)
(0.228813 -0.0462916 0)
(0.266494 -0.0429958 0)
(0.302551 -0.0431346 0)
(0.340082 -0.0379435 0)
(0.367465 -0.0354524 0)
(0.401937 -0.0329169 0)
(0.423714 -0.0243026 0)
(0.444171 -0.0185676 0)
(0.460306 -0.0122027 0)
(0.465962 -0.00250689 0)
(0.46467 0.00820847 0)
(0.455443 0.0200629 0)
(0.433951 0.0326905 0)
(0.401073 0.0482142 0)
(0.351416 0.065568 0)
(0.280764 0.0852788 0)
(0.190546 0.10547 0)
(0.0605058 0.127783 0)
(0.0199254 -0.0699801 0)
(0.0647585 -0.0700886 0)
(0.105512 -0.0676034 0)
(0.147307 -0.0684356 0)
(0.188256 -0.0679437 0)
(0.229527 -0.0650646 0)
(0.267573 -0.0606707 0)
(0.304486 -0.0608532 0)
(0.341685 -0.0537451 0)
(0.370032 -0.0506235 0)
(0.405157 -0.0470815 0)
(0.426291 -0.0347492 0)
(0.448847 -0.0287836 0)
(0.464681 -0.0179284 0)
(0.471154 -0.00443255 0)
(0.470386 0.0109128 0)
(0.460113 0.0282636 0)
(0.437581 0.0516143 0)
(0.400997 0.0772833 0)
(0.350252 0.112703 0)
(0.276421 0.144546 0)
(0.188456 0.189283 0)
(0.0576033 0.200958 0)
(0.0198652 -0.0900438 0)
(0.0649556 -0.0904271 0)
(0.106029 -0.0872128 0)
(0.14799 -0.087969 0)
(0.1889 -0.0873107 0)
(0.230286 -0.0837557 0)
(0.268677 -0.0783968 0)
(0.306546 -0.0781328 0)
(0.343246 -0.068899 0)
(0.373101 -0.0654017 0)
(0.408773 -0.0595043 0)
(0.429726 -0.0448689 0)
(0.454804 -0.0367097 0)
(0.470094 -0.0226519 0)
(0.480006 -0.00518 0)
(0.480804 0.013523 0)
(0.475211 0.0356321 0)
(0.456364 0.0607203 0)
(0.427494 0.0895901 0)
(0.382169 0.124539 0)
(0.315067 0.161999 0)
(0.226352 0.209197 0)
(0.08645 0.244996 0)
(0.0198902 -0.110084 0)
(0.0652587 -0.110828 0)
(0.106697 -0.106865 0)
(0.148963 -0.107622 0)
(0.190065 -0.106861 0)
(0.231653 -0.102794 0)
(0.270583 -0.0967423 0)
(0.309466 -0.0961253 0)
(0.345727 -0.0852428 0)
(0.377552 -0.0816128 0)
(0.413339 -0.0739181 0)
(0.434573 -0.0565093 0)
(0.462024 -0.0479759 0)
(0.477819 -0.0298472 0)
(0.487583 -0.00963406 0)
(0.490921 0.0131404 0)
(0.484294 0.0396467 0)
(0.466755 0.0741022 0)
(0.433972 0.112168 0)
(0.388604 0.165782 0)
(0.316169 0.217933 0)
(0.231223 0.297116 0)
(0.0791891 0.34767 0)
(0.0200015 -0.130262 0)
(0.0655172 -0.131428 0)
(0.107318 -0.126746 0)
(0.149879 -0.12734 0)
(0.191204 -0.126359 0)
(0.232969 -0.121773 0)
(0.272404 -0.115132 0)
(0.3122 -0.1136 0)
(0.348065 -0.101034 0)
(0.382333 -0.0972924 0)
(0.417883 -0.0864186 0)
(0.439763 -0.0677797 0)
(0.471088 -0.0571094 0)
(0.485034 -0.0346047 0)
(0.500721 -0.0112986 0)
(0.505358 0.0152289 0)
(0.504245 0.0471918 0)
(0.489853 0.0846646 0)
(0.46739 0.126728 0)
(0.428598 0.180287 0)
(0.368078 0.236664 0)
(0.287778 0.321245 0)
(0.127807 0.392754 0)
(0.0205873 -0.150527 0)
(0.0655766 -0.152122 0)
(0.108038 -0.146765 0)
(0.151172 -0.147299 0)
(0.192933 -0.146168 0)
(0.234955 -0.14121 0)
(0.275226 -0.134236 0)
(0.315808 -0.131932 0)
(0.352061 -0.118453 0)
(0.388781 -0.114656 0)
(0.423204 -0.101156 0)
(0.447244 -0.0816906 0)
(0.481625 -0.0695177 0)
(0.495123 -0.0439 0)
(0.513293 -0.019434 0)
(0.51947 0.0113749 0)
(0.517669 0.0467259 0)
(0.507102 0.0913586 0)
(0.482188 0.140834 0)
(0.448494 0.212609 0)
(0.381346 0.284242 0)
(0.306645 0.410737 0)
(0.137141 0.543179 0)
(-0.0242219 0.0136176 0)
(-0.136306 0.0166938 0)
(-0.207017 -0.00386899 0)
(-0.306654 0.000613369 0)
(-0.374923 0.00758435 0)
(-0.470893 0.01192 0)
(-0.522367 0.0273478 0)
(-0.579459 0.0182214 0)
(-0.611522 0.0210798 0)
(-0.666438 0.0086786 0)
(-0.680055 0.00472457 0)
(-0.70691 0.000695025 0)
(-0.725066 0.00216442 0)
(-0.712162 0.000245399 0)
(-0.72426 -0.00537124 0)
(-0.643063 -0.0104464 0)
(-0.592689 -0.0263978 0)
(-0.365323 -0.0442873 0)
(-0.145135 -0.0506256 0)
(-0.0264669 0.062407 0)
(-0.145654 0.0694925 0)
(-0.231359 0.0834021 0)
(-0.315207 0.079078 0)
(-0.369803 0.0692049 0)
(-0.467363 0.0593456 0)
(-0.52135 0.0257481 0)
(-0.58185 0.0283649 0)
(-0.617667 0.022635 0)
(-0.672835 0.0289876 0)
(-0.683356 0.0191537 0)
(-0.707887 0.0265974 0)
(-0.726297 0.00710995 0)
(-0.714632 0.00704062 0)
(-0.730317 -0.0164699 0)
(-0.651712 -0.0383973 0)
(-0.606474 -0.0838257 0)
(-0.376478 -0.139146 0)
(-0.147834 -0.159021 0)
(-0.0450465 0.0930608 0)
(-0.153784 0.110036 0)
(-0.215421 0.0749072 0)
(-0.306946 0.0671107 0)
(-0.381397 0.078649 0)
(-0.48505 0.0839352 0)
(-0.530857 0.0819794 0)
(-0.58251 0.0666932 0)
(-0.612527 0.0660466 0)
(-0.670518 0.0448181 0)
(-0.680216 0.0262966 0)
(-0.711345 0.0273119 0)
(-0.735083 0.0123518 0)
(-0.723043 0.00981397 0)
(-0.745831 -0.0240043 0)
(-0.669423 -0.0554702 0)
(-0.632872 -0.134764 0)
(-0.3982 -0.231875 0)
(-0.155504 -0.265512 0)
(-0.0371997 0.156309 0)
(-0.146269 0.152821 0)
(-0.232725 0.156177 0)
(-0.314866 0.158795 0)
(-0.370421 0.152492 0)
(-0.477371 0.13253 0)
(-0.524205 0.0750128 0)
(-0.587949 0.0729509 0)
(-0.629665 0.0671859 0)
(-0.68869 0.0666665 0)
(-0.690411 0.0431433 0)
(-0.712668 0.0579691 0)
(-0.738645 0.0187698 0)
(-0.729802 0.0190647 0)
(-0.763579 -0.0323508 0)
(-0.693686 -0.0798992 0)
(-0.674361 -0.192012 0)
(-0.429376 -0.335967 0)
(-0.175295 -0.387724 0)
(-0.0435134 0.175462 0)
(-0.162934 0.196893 0)
(-0.22671 0.152345 0)
(-0.308978 0.132335 0)
(-0.387826 0.153343 0)
(-0.508422 0.155859 0)
(-0.549584 0.13404 0)
(-0.589152 0.117902 0)
(-0.618848 0.114747 0)
(-0.682871 0.0785065 0)
(-0.683103 0.04313 0)
(-0.721296 0.0563589 0)
(-0.755715 0.0272244 0)
(-0.746798 0.0285651 0)
(-0.793407 -0.0306321 0)
(-0.727153 -0.0851819 0)
(-0.727974 -0.237484 0)
(-0.471717 -0.436033 0)
(-0.214162 -0.513826 0)
(-0.0293606 0.255531 0)
(-0.155644 0.244668 0)
(-0.250402 0.226867 0)
(-0.320527 0.237631 0)
(-0.372646 0.245681 0)
(-0.500912 0.212227 0)
(-0.536328 0.117939 0)
(-0.596185 0.113525 0)
(-0.648757 0.114485 0)
(-0.71797 0.103382 0)
(-0.70072 0.0659735 0)
(-0.720796 0.0969442 0)
(-0.757784 0.0357498 0)
(-0.755208 0.0424457 0)
(-0.818282 -0.0345573 0)
(-0.765353 -0.101824 0)
(-0.804305 -0.294273 0)
(-0.535269 -0.549399 0)
(-0.273457 -0.673335 0)
(-0.0542181 0.255867 0)
(-0.182778 0.291384 0)
(-0.249807 0.22686 0)
(-0.305104 0.189859 0)
(-0.399972 0.234441 0)
(-0.555789 0.230735 0)
(-0.584964 0.178653 0)
(-0.591741 0.170858 0)
(-0.630763 0.171933 0)
(-0.708762 0.108214 0)
(-0.694002 0.0507391 0)
(-0.736803 0.0893624 0)
(-0.787206 0.0497437 0)
(-0.784188 0.0629074 0)
(-0.860587 -0.0170616 0)
(-0.815693 -0.0821607 0)
(-0.898494 -0.324287 0)
(-0.633458 -0.652851 0)
(-0.366736 -0.8479 0)
(0.00789003 0.370749 0)
(-0.188798 0.346205 0)
(-0.291199 0.288484 0)
(-0.332925 0.313119 0)
(-0.37285 0.362044 0)
(-0.54495 0.303546 0)
(-0.567053 0.142625 0)
(-0.587768 0.145579 0)
(-0.674227 0.172049 0)
(-0.768674 0.140199 0)
(-0.723984 0.0843408 0)
(-0.746185 0.144868 0)
(-0.797744 0.061241 0)
(-0.800787 0.0809459 0)
(-0.893326 -0.0159787 0)
(-0.87788 -0.0805305 0)
(-1.0359 -0.36617 0)
(-0.787623 -0.77203 0)
(-0.530927 -1.09346 0)
(0.0214021 -0.182458 0)
(0.0657164 -0.184331 0)
(0.109132 -0.178657 0)
(0.152984 -0.178758 0)
(0.195365 -0.177036 0)
(0.237795 -0.171546 0)
(0.279204 -0.164026 0)
(0.320824 -0.159939 0)
(0.358378 -0.145038 0)
(0.398031 -0.139943 0)
(0.431362 -0.121198 0)
(0.460547 -0.102934 0)
(0.498418 -0.0853602 0)
(0.510828 -0.0525185 0)
(0.539331 -0.0244862 0)
(0.543285 0.0144953 0)
(0.55839 0.0569505 0)
(0.548681 0.107527 0)
(0.556126 0.162573 0)
(0.533831 0.236825 0)
(0.548868 0.315226 0)
(0.519026 0.450983 0)
(0.566286 0.636527 0)
(0.0223917 -0.226633 0)
(0.0666669 -0.228743 0)
(0.111319 -0.223041 0)
(0.15661 -0.22269 0)
(0.200357 -0.220355 0)
(0.244093 -0.214612 0)
(0.287511 -0.20704 0)
(0.330993 -0.201493 0)
(0.37153 -0.186587 0)
(0.414076 -0.178978 0)
(0.448841 -0.156921 0)
(0.487361 -0.141488 0)
(0.520373 -0.114587 0)
(0.542976 -0.0819542 0)
(0.577276 -0.0505732 0)
(0.582815 -0.00902545 0)
(0.602065 0.0371925 0)
(0.589032 0.0875844 0)
(0.59376 0.14752 0)
(0.564318 0.211013 0)
(0.578356 0.287885 0)
(0.554903 0.379086 0)
(0.630579 0.51418 0)
(0.0232917 -0.271935 0)
(0.06751 -0.27367 0)
(0.113241 -0.269021 0)
(0.159751 -0.268198 0)
(0.204579 -0.264912 0)
(0.249389 -0.259075 0)
(0.294307 -0.251299 0)
(0.339352 -0.244289 0)
(0.382271 -0.228462 0)
(0.426869 -0.217524 0)
(0.466332 -0.194765 0)
(0.509129 -0.174672 0)
(0.542678 -0.141151 0)
(0.579298 -0.109471 0)
(0.611716 -0.0643634 0)
(0.625546 -0.00998916 0)
(0.657229 0.0509981 0)
(0.655444 0.116446 0)
(0.677352 0.187676 0)
(0.662056 0.252629 0)
(0.685298 0.324478 0)
(0.669025 0.397756 0)
(0.728391 0.516868 0)
(0.0240257 -0.318001 0)
(0.068268 -0.319256 0)
(0.115034 -0.315868 0)
(0.16287 -0.314614 0)
(0.209153 -0.310591 0)
(0.255586 -0.304949 0)
(0.302691 -0.297648 0)
(0.350032 -0.290098 0)
(0.395807 -0.274802 0)
(0.443518 -0.263705 0)
(0.486908 -0.239927 0)
(0.533256 -0.218536 0)
(0.57387 -0.185562 0)
(0.62009 -0.151739 0)
(0.646724 -0.0977681 0)
(0.688878 -0.0553361 0)
(0.713368 0.00615446 0)
(0.719759 0.0667662 0)
(0.724985 0.14011 0)
(0.715702 0.202836 0)
(0.720704 0.281229 0)
(0.721271 0.336607 0)
(0.749912 0.43279 0)
(0.0247023 -0.364696 0)
(0.0689653 -0.365132 0)
(0.116653 -0.364099 0)
(0.166061 -0.362772 0)
(0.213892 -0.358063 0)
(0.26186 -0.353031 0)
(0.310995 -0.346144 0)
(0.360072 -0.337747 0)
(0.408521 -0.322265 0)
(0.457794 -0.308866 0)
(0.504511 -0.284699 0)
(0.54796 -0.26141 0)
(0.584607 -0.227429 0)
(0.604534 -0.182307 0)
(0.637699 -0.132986 0)
(0.688691 -0.076553 0)
(0.699884 0.0203539 0)
(0.733299 0.104814 0)
(0.749826 0.191585 0)
(0.747507 0.256141 0)
(0.764576 0.31784 0)
(0.7748 0.366859 0)
(0.787241 0.442462 0)
(0.0146116 -0.411351 0)
(0.0489419 -0.410871 0)
(0.0783397 -0.41266 0)
(0.111493 -0.411539 0)
(0.140771 -0.406058 0)
(0.167266 -0.401692 0)
(0.18715 -0.395543 0)
(0.203823 -0.387284 0)
(0.217227 -0.372429 0)
(0.240163 -0.359581 0)
(0.27545 -0.330609 0)
(0.328863 -0.299854 0)
(0.392461 -0.24533 0)
(0.468127 -0.206167 0)
(0.549209 -0.181059 0)
(0.62186 -0.116806 0)
(0.682411 -0.0381683 0)
(0.741202 0.0177951 0)
(0.726876 0.127591 0)
(0.717131 0.190278 0)
(0.734637 0.255773 0)
(0.7639 0.31475 0)
(0.789191 0.392301 0)
(0.00712157 -0.431041 0)
(0.0318098 -0.431669 0)
(0.0479823 -0.429462 0)
(0.0667917 -0.427999 0)
(0.0863513 -0.416605 0)
(0.104402 -0.40217 0)
(0.123473 -0.38533 0)
(0.142356 -0.370272 0)
(0.167542 -0.360681 0)
(0.195983 -0.368843 0)
(0.242002 -0.374138 0)
(0.301184 -0.37802 0)
(0.377626 -0.36494 0)
(0.47095 -0.338531 0)
(0.565075 -0.288718 0)
(0.652684 -0.211964 0)
(0.76383 -0.0999682 0)
(0.852624 0.0592815 0)
(0.918111 0.216912 0)
(0.911124 0.246602 0)
(0.819483 0.268513 0)
(0.738096 0.31112 0)
(0.768486 0.382765 0)
(0.00864358 -0.447712 0)
(0.0278363 -0.44916 0)
(0.0442191 -0.445037 0)
(0.0596885 -0.447351 0)
(0.076086 -0.441195 0)
(0.0949368 -0.436247 0)
(0.116781 -0.431262 0)
(0.14353 -0.429193 0)
(0.177416 -0.424704 0)
(0.213035 -0.433092 0)
(0.254917 -0.436321 0)
(0.297614 -0.436963 0)
(0.333052 -0.417654 0)
(0.37452 -0.395318 0)
(0.417423 -0.363806 0)
(0.481388 -0.315639 0)
(0.562922 -0.240288 0)
(0.698232 -0.138417 0)
(0.854284 0.0664923 0)
(1.04013 0.287553 0)
(1.04594 0.434216 0)
(0.973063 0.371658 0)
(0.870069 0.318314 0)
(0.0130758 -0.470406 0)
(0.0304913 -0.470125 0)
(0.054365 -0.464162 0)
(0.0731626 -0.462648 0)
(0.0936219 -0.454591 0)
(0.114202 -0.445584 0)
(0.136679 -0.436458 0)
(0.157437 -0.433361 0)
(0.182467 -0.432108 0)
(0.202696 -0.448048 0)
(0.229211 -0.459639 0)
(0.250677 -0.456704 0)
(0.271112 -0.441859 0)
(0.296387 -0.423107 0)
(0.325152 -0.395973 0)
(0.358026 -0.358673 0)
(0.410855 -0.31682 0)
(0.476771 -0.233015 0)
(0.584259 -0.124322 0)
(0.78323 0.0546761 0)
(0.998452 0.331193 0)
(1.15694 0.483785 0)
(1.12222 0.526008 0)
(0.0109139 -0.489423 0)
(0.0256196 -0.488613 0)
(0.0462285 -0.485897 0)
(0.0647883 -0.484844 0)
(0.085084 -0.480597 0)
(0.107559 -0.47768 0)
(0.132892 -0.473154 0)
(0.158469 -0.473653 0)
(0.18694 -0.469245 0)
(0.209868 -0.479131 0)
(0.22654 -0.484324 0)
(0.241459 -0.47881 0)
(0.254008 -0.464 0)
(0.273924 -0.449663 0)
(0.290242 -0.426159 0)
(0.314994 -0.401566 0)
(0.338159 -0.360415 0)
(0.37224 -0.313151 0)
(0.429777 -0.241913 0)
(0.510355 -0.128943 0)
(0.676883 0.0601412 0)
(0.937178 0.251477 0)
(1.13177 0.389268 0)
(0.0117287 -0.509188 0)
(0.0321746 -0.507675 0)
(0.0554538 -0.505534 0)
(0.0775267 -0.503644 0)
(0.101155 -0.499429 0)
(0.124522 -0.495429 0)
(0.149761 -0.489224 0)
(0.171992 -0.489187 0)
(0.196111 -0.484887 0)
(0.213117 -0.488847 0)
(0.226054 -0.491961 0)
(0.237872 -0.484884 0)
(0.251977 -0.474639 0)
(0.268562 -0.459859 0)
(0.285771 -0.437182 0)
(0.304194 -0.407275 0)
(0.323673 -0.374017 0)
(0.346328 -0.325362 0)
(0.374962 -0.263044 0)
(0.418469 -0.194082 0)
(0.500622 -0.0985798 0)
(0.647769 0.0245878 0)
(0.846411 0.168968 0)
(0.0102699 -0.532024 0)
(0.0314021 -0.531089 0)
(0.0525663 -0.530031 0)
(0.0750405 -0.529385 0)
(0.0968944 -0.526527 0)
(0.12084 -0.525257 0)
(0.145792 -0.519807 0)
(0.171207 -0.519175 0)
(0.195421 -0.509929 0)
(0.218276 -0.508499 0)
(0.235186 -0.508971 0)
(0.253887 -0.504452 0)
(0.271599 -0.494926 0)
(0.293928 -0.483383 0)
(0.314919 -0.462191 0)
(0.342287 -0.439403 0)
(0.369007 -0.403023 0)
(0.399247 -0.364567 0)
(0.437815 -0.314473 0)
(0.484548 -0.254763 0)
(0.542248 -0.170137 0)
(0.628696 -0.0943243 0)
(0.753963 -0.0134867 0)
(0.0116708 -0.552633 0)
(0.0341739 -0.55175 0)
(0.0579412 -0.550907 0)
(0.0811385 -0.549661 0)
(0.104926 -0.546859 0)
(0.128416 -0.54591 0)
(0.153305 -0.541058 0)
(0.177349 -0.540198 0)
(0.203207 -0.533132 0)
(0.230536 -0.529688 0)
(0.254592 -0.52835 0)
(0.278729 -0.522158 0)
(0.303283 -0.515222 0)
(0.330166 -0.503989 0)
(0.358932 -0.485989 0)
(0.39124 -0.462246 0)
(0.426746 -0.43151 0)
(0.468615 -0.395086 0)
(0.517053 -0.349292 0)
(0.573182 -0.299814 0)
(0.644264 -0.244507 0)
(0.739554 -0.189405 0)
(0.842698 -0.110972 0)
(0.0105243 -0.577 0)
(0.0340982 -0.576544 0)
(0.0556212 -0.576193 0)
(0.0791948 -0.575609 0)
(0.101949 -0.573118 0)
(0.12626 -0.572972 0)
(0.150681 -0.568234 0)
(0.176129 -0.568539 0)
(0.201998 -0.56285 0)
(0.230929 -0.559489 0)
(0.257468 -0.557094 0)
(0.285809 -0.552862 0)
(0.313541 -0.546458 0)
(0.343418 -0.538828 0)
(0.374712 -0.523475 0)
(0.410391 -0.507023 0)
(0.450901 -0.480647 0)
(0.497328 -0.454741 0)
(0.554616 -0.419258 0)
(0.620187 -0.381716 0)
(0.701826 -0.336853 0)
(0.795157 -0.292443 0)
(0.902517 -0.237379 0)
(0.0118966 -0.598673 0)
(0.0359953 -0.598282 0)
(0.059931 -0.597394 0)
(0.0838401 -0.597352 0)
(0.10853 -0.595243 0)
(0.132965 -0.595921 0)
(0.158931 -0.592149 0)
(0.1847 -0.592689 0)
(0.211391 -0.589045 0)
(0.240286 -0.586247 0)
(0.268892 -0.584195 0)
(0.298608 -0.579255 0)
(0.329251 -0.573693 0)
(0.361278 -0.566184 0)
(0.39611 -0.55383 0)
(0.43427 -0.539536 0)
(0.478436 -0.519485 0)
(0.52887 -0.5 0)
(0.589001 -0.473602 0)
(0.657624 -0.44844 0)
(0.741348 -0.421565 0)
(0.837195 -0.391773 0)
(0.947035 -0.348725 0)
(0.0112897 -0.624348 0)
(0.0345504 -0.624072 0)
(0.0576456 -0.623543 0)
(0.0815094 -0.623732 0)
(0.105574 -0.621833 0)
(0.130069 -0.622959 0)
(0.155263 -0.619677 0)
(0.181078 -0.620651 0)
(0.207004 -0.618276 0)
(0.235246 -0.616724 0)
(0.263017 -0.615349 0)
(0.292967 -0.613012 0)
(0.324231 -0.609152 0)
(0.357449 -0.605512 0)
(0.394254 -0.596581 0)
(0.434759 -0.58921 0)
(0.483242 -0.575477 0)
(0.537113 -0.565232 0)
(0.602633 -0.548378 0)
(0.675818 -0.534002 0)
(0.763945 -0.517003 0)
(0.859205 -0.498056 0)
(0.974092 -0.476908 0)
(0.0119385 -0.645661 0)
(0.0363531 -0.6458 0)
(0.0607401 -0.645489 0)
(0.0852751 -0.646395 0)
(0.110495 -0.644902 0)
(0.135447 -0.646669 0)
(0.161514 -0.644213 0)
(0.187742 -0.64543 0)
(0.214615 -0.644213 0)
(0.242781 -0.643231 0)
(0.271975 -0.642867 0)
(0.302027 -0.641435 0)
(0.334703 -0.639105 0)
(0.368309 -0.637192 0)
(0.407298 -0.632134 0)
(0.448911 -0.629577 0)
(0.498918 -0.623029 0)
(0.553389 -0.620545 0)
(0.618565 -0.613864 0)
(0.691219 -0.611057 0)
(0.778231 -0.607056 0)
(0.874777 -0.603353 0)
(0.992483 -0.600634 0)
(0.0117284 -0.672354 0)
(0.0357512 -0.672588 0)
(0.059498 -0.672212 0)
(0.0835537 -0.673226 0)
(0.10788 -0.671808 0)
(0.132354 -0.673749 0)
(0.15742 -0.671851 0)
(0.183273 -0.673563 0)
(0.209459 -0.673272 0)
(0.237216 -0.673949 0)
(0.266136 -0.674622 0)
(0.295909 -0.675646 0)
(0.329166 -0.675542 0)
(0.363254 -0.678047 0)
(0.403783 -0.677395 0)
(0.445746 -0.680813 0)
(0.496596 -0.680309 0)
(0.550419 -0.684902 0)
(0.615451 -0.686733 0)
(0.686834 -0.69372 0)
(0.772964 -0.701333 0)
(0.868101 -0.712319 0)
(0.985888 -0.730778 0)
(0.0119179 -0.694084 0)
(0.0360275 -0.694502 0)
(0.0601165 -0.694227 0)
(0.0843232 -0.695683 0)
(0.109068 -0.694621 0)
(0.133793 -0.697079 0)
(0.159345 -0.696029 0)
(0.185305 -0.698307 0)
(0.212139 -0.699023 0)
(0.239508 -0.700734 0)
(0.269068 -0.70241 0)
(0.298523 -0.705293 0)
(0.332356 -0.707325 0)
(0.365797 -0.712664 0)
(0.405372 -0.715607 0)
(0.445435 -0.723289 0)
(0.493823 -0.728884 0)
(0.545163 -0.740378 0)
(0.607361 -0.751788 0)
(0.676056 -0.769698 0)
(0.758792 -0.790335 0)
(0.851944 -0.817565 0)
(0.965445 -0.856095 0)
(0.0116478 -0.720203 0)
(0.0356715 -0.720682 0)
(0.0591664 -0.720437 0)
(0.0833054 -0.722079 0)
(0.107284 -0.721249 0)
(0.131928 -0.723941 0)
(0.15649 -0.723388 0)
(0.182205 -0.726299 0)
(0.20804 -0.727557 0)
(0.234961 -0.730857 0)
(0.263587 -0.733788 0)
(0.292562 -0.73894 0)
(0.324985 -0.743051 0)
(0.357577 -0.751085 0)
(0.395153 -0.75737 0)
(0.434395 -0.769303 0)
(0.479964 -0.780504 0)
(0.530021 -0.798498 0)
(0.587357 -0.818267 0)
(0.653042 -0.845221 0)
(0.727245 -0.878114 0)
(0.816245 -0.919009 0)
(0.91693 -0.977617 0)
(0.0116792 -0.742171 0)
(0.0357872 -0.742775 0)
(0.0592484 -0.742633 0)
(0.0833475 -0.744535 0)
(0.107006 -0.744013 0)
(0.131439 -0.746994 0)
(0.155431 -0.747068 0)
(0.180789 -0.750549 0)
(0.205775 -0.752528 0)
(0.232318 -0.75696 0)
(0.259178 -0.760766 0)
(0.287676 -0.767358 0)
(0.316956 -0.773145 0)
(0.349425 -0.783496 0)
(0.382192 -0.793349 0)
(0.421943 -0.808782 0)
(0.459618 -0.825636 0)
(0.51016 -0.848512 0)
(0.554957 -0.876227 0)
(0.621193 -0.910455 0)
(0.677322 -0.955363 0)
(0.767626 -1.00832 0)
(0.842942 -1.08465 0)
(0.0115437 -0.767711 0)
(0.0358909 -0.768277 0)
(0.0589234 -0.76806 0)
(0.0831726 -0.769855 0)
(0.10606 -0.769434 0)
(0.130614 -0.772384 0)
(0.153469 -0.77287 0)
(0.178919 -0.77667 0)
(0.202158 -0.779263 0)
(0.228962 -0.784299 0)
(0.253063 -0.789384 0)
(0.282474 -0.796761 0)
(0.307753 -0.805113 0)
(0.341851 -0.816354 0)
(0.368163 -0.830285 0)
(0.40934 -0.846747 0)
(0.436625 -0.869212 0)
(0.488319 -0.893838 0)
(0.51728 -0.929918 0)
(0.584627 -0.967569 0)
(0.617506 -1.02536 0)
(0.707167 -1.08458 0)
(0.746913 -1.17603 0)
(0.0113279 -0.790249 0)
(0.0355812 -0.790778 0)
(0.0581018 -0.790568 0)
(0.0822237 -0.792274 0)
(0.104364 -0.792113 0)
(0.128672 -0.794983 0)
(0.15032 -0.796037 0)
(0.175328 -0.799801 0)
(0.196664 -0.80324 0)
(0.223052 -0.808415 0)
(0.244283 -0.814967 0)
(0.273261 -0.822594 0)
(0.294445 -0.833249 0)
(0.327592 -0.844473 0)
(0.348334 -0.861622 0)
(0.387578 -0.877885 0)
(0.408053 -0.905466 0)
(0.455805 -0.92997 0)
(0.475869 -0.973419 0)
(0.534419 -1.01181 0)
(0.553954 -1.07873 0)
(0.626329 -1.13937 0)
(0.644996 -1.24129 0)
(0.0112249 -0.814747 0)
(0.0357503 -0.815157 0)
(0.0580105 -0.814847 0)
(0.0823606 -0.816207 0)
(0.103997 -0.816046 0)
(0.128379 -0.818416 0)
(0.149055 -0.81971 0)
(0.173798 -0.823082 0)
(0.193526 -0.827189 0)
(0.219282 -0.83198 0)
(0.238001 -0.839815 0)
(0.265678 -0.846985 0)
(0.283273 -0.859679 0)
(0.314225 -0.870316 0)
(0.330706 -0.89049 0)
(0.366109 -0.906585 0)
(0.381653 -0.937578 0)
(0.42149 -0.961876 0)
(0.436073 -1.00853 0)
(0.479334 -1.04603 0)
(0.492796 -1.11708 0)
(0.538184 -1.17623 0)
(0.548709 -1.28397 0)
(0.0109967 -0.837788 0)
(0.0354733 -0.838105 0)
(0.057238 -0.837754 0)
(0.0814917 -0.838781 0)
(0.102504 -0.838717 0)
(0.126753 -0.840544 0)
(0.146548 -0.842046 0)
(0.170918 -0.844763 0)
(0.189209 -0.84932 0)
(0.214074 -0.853387 0)
(0.230629 -0.861965 0)
(0.256439 -0.86839 0)
(0.271209 -0.882392 0)
(0.29876 -0.892502 0)
(0.312113 -0.914071 0)
(0.341007 -0.929558 0)
(0.35348 -0.961355 0)
(0.382935 -0.985291 0)
(0.395433 -1.03168 0)
(0.422859 -1.06968 0)
(0.434106 -1.13783 0)
(0.452881 -1.19674 0)
(0.459975 -1.30029 0)
(0.0107949 -0.861384 0)
(0.0351504 -0.861541 0)
(0.056518 -0.861045 0)
(0.0806386 -0.861596 0)
(0.101224 -0.861493 0)
(0.12527 -0.862561 0)
(0.144476 -0.864059 0)
(0.168355 -0.865822 0)
(0.185765 -0.870516 0)
(0.209488 -0.873462 0)
(0.224652 -0.882323 0)
(0.248203 -0.887624 0)
(0.260924 -0.902089 0)
(0.284034 -0.911303 0)
(0.294696 -0.932743 0)
(0.316672 -0.948062 0)
(0.326668 -0.979424 0)
(0.346207 -1.00394 0)
(0.355886 -1.04832 0)
(0.36964 -1.0847 0)
(0.376548 -1.14694 0)
(0.377107 -1.20189 0)
(0.375335 -1.29098 0)
(0.0105231 -0.884249 0)
(0.0344922 -0.884323 0)
(0.0553784 -0.883771 0)
(0.0792259 -0.883971 0)
(0.0994519 -0.883889 0)
(0.123227 -0.884273 0)
(0.142136 -0.885676 0)
(0.165466 -0.88653 0)
(0.182453 -0.890992 0)
(0.204963 -0.892767 0)
(0.21939 -0.901195 0)
(0.240549 -0.905188 0)
(0.252006 -0.91869 0)
(0.270562 -0.926859 0)
(0.279643 -0.947131 0)
(0.294719 -0.96218 0)
(0.302124 -0.991289 0)
(0.311897 -1.0152 0)
(0.317634 -1.05551 0)
(0.320372 -1.09107 0)
(0.322734 -1.14559 0)
(0.311636 -1.19628 0)
(0.303884 -1.27165 0)
(0.0101231 -0.906573 0)
(0.033107 -0.906547 0)
(0.0531733 -0.905957 0)
(0.0761978 -0.905798 0)
(0.0957462 -0.905669 0)
(0.118765 -0.905345 0)
(0.137295 -0.906453 0)
(0.159786 -0.90621 0)
(0.17654 -0.910134 0)
(0.197682 -0.910445 0)
(0.211976 -0.917974 0)
(0.230925 -0.920269 0)
(0.242161 -0.932089 0)
(0.257339 -0.938947 0)
(0.265285 -0.956818 0)
(0.274555 -0.970485 0)
(0.278847 -0.996479 0)
(0.281004 -1.01928 0)
(0.281507 -1.05662 0)
(0.275599 -1.08946 0)
(0.270915 -1.13797 0)
(0.253145 -1.18243 0)
(0.238371 -1.24233 0)
(0.00974552 -0.927949 0)
(0.031466 -0.927836 0)
(0.050715 -0.92735 0)
(0.0726776 -0.927003 0)
(0.0915424 -0.926961 0)
(0.113645 -0.926287 0)
(0.13191 -0.927212 0)
(0.153642 -0.926251 0)
(0.170407 -0.929392 0)
(0.190389 -0.928694 0)
(0.204973 -0.934915 0)
(0.222082 -0.935882 0)
(0.233616 -0.945536 0)
(0.245973 -0.950487 0)
(0.253109 -0.964747 0)
(0.257902 -0.976231 0)
(0.259525 -0.998099 0)
(0.255437 -1.01835 0)
(0.250459 -1.05043 0)
(0.236826 -1.08099 0)
(0.224825 -1.12338 0)
(0.201079 -1.16429 0)
(0.179504 -1.21537 0)
(0.00893515 -0.947936 0)
(0.028531 -0.947672 0)
(0.0461424 -0.947333 0)
(0.0661586 -0.946751 0)
(0.0835596 -0.946791 0)
(0.103982 -0.945813 0)
(0.121238 -0.94658 0)
(0.141774 -0.944778 0)
(0.158359 -0.946967 0)
(0.177461 -0.945047 0)
(0.192372 -0.949692 0)
(0.208527 -0.948899 0)
(0.220671 -0.955935 0)
(0.231857 -0.958345 0)
(0.238889 -0.968633 0)
(0.242169 -0.976683 0)
(0.241913 -0.993812 0)
(0.234117 -1.00984 0)
(0.223795 -1.03767 0)
(0.204454 -1.0633 0)
(0.183767 -1.10174 0)
(0.153876 -1.13641 0)
(0.122317 -1.18373 0)
(0.00808121 -0.965792 0)
(0.0258622 -0.965454 0)
(0.0418404 -0.965384 0)
(0.0600009 -0.964818 0)
(0.0759554 -0.965214 0)
(0.0945854 -0.964382 0)
(0.110693 -0.965457 0)
(0.129618 -0.963818 0)
(0.145856 -0.965542 0)
(0.164107 -0.96318 0)
(0.179478 -0.966431 0)
(0.194866 -0.964665 0)
(0.207607 -0.969295 0)
(0.218153 -0.969171 0)
(0.225754 -0.975454 0)
(0.228515 -0.979674 0)
(0.227296 -0.990389 0)
(0.217754 -1.00062 0)
(0.204387 -1.02104 0)
(0.180649 -1.04139 0)
(0.154683 -1.07294 0)
(0.11836 -1.10339 0)
(0.0805177 -1.14298 0)
(0.00683055 -0.982025 0)
(0.0221871 -0.981603 0)
(0.0357536 -0.981634 0)
(0.0513929 -0.981006 0)
(0.065089 -0.981529 0)
(0.0811791 -0.980668 0)
(0.0951978 -0.981739 0)
(0.111686 -0.980027 0)
(0.12623 -0.981536 0)
(0.142967 -0.978709 0)
(0.157757 -0.980475 0)
(0.173251 -0.977006 0)
(0.186317 -0.979169 0)
(0.19821 -0.976359 0)
(0.206741 -0.978842 0)
(0.211692 -0.977936 0)
(0.211187 -0.982744 0)
(0.203614 -0.986426 0)
(0.188564 -0.999997 0)
(0.163239 -1.01289 0)
(0.132203 -1.03861 0)
(0.0938093 -1.06139 0)
(0.0515497 -1.09468 0)
(0.00573998 -0.995065 0)
(0.0188789 -0.99466 0)
(0.0303428 -0.994869 0)
(0.0436976 -0.994431 0)
(0.0553902 -0.995302 0)
(0.0691339 -0.994794 0)
(0.0812746 -0.996298 0)
(0.0955337 -0.995201 0)
(0.108583 -0.997199 0)
(0.12337 -0.995123 0)
(0.137309 -0.997124 0)
(0.151725 -0.993679 0)
(0.164999 -0.994683 0)
(0.176649 -0.99007 0)
(0.18623 -0.989368 0)
(0.192008 -0.984594 0)
(0.19358 -0.98269 0)
(0.188398 -0.978499 0)
(0.175935 -0.980945 0)
(0.151035 -0.985509 0)
(0.117838 -1.00363 0)
(0.0719562 -1.02329 0)
(0.0253938 -1.05087 0)
(0.00457042 -1.00683 0)
(0.0152077 -1.00641 0)
(0.024315 -1.00664 0)
(0.0350425 -1.00623 0)
(0.044315 -1.00714 0)
(0.0553308 -1.00671 0)
(0.0651006 -1.00829 0)
(0.0766835 -1.00745 0)
(0.0874487 -1.00948 0)
(0.0996689 -1.00751 0)
(0.111527 -1.00888 0)
(0.124015 -1.0047 0)
(0.136139 -1.00405 0)
(0.147306 -0.997477 0)
(0.157166 -0.994017 0)
(0.164454 -0.984988 0)
(0.168046 -0.978743 0)
(0.167131 -0.968209 0)
(0.158712 -0.961881 0)
(0.139775 -0.95392 0)
(0.106827 -0.958376 0)
(0.0585495 -0.967898 0)
(0.000939159 -0.990812 0)
(0.00350922 -1.01494 0)
(0.0118262 -1.01452 0)
(0.0188703 -1.01483 0)
(0.0272847 -1.01456 0)
(0.0345682 -1.01574 0)
(0.0433126 -1.01573 0)
(0.0511564 -1.01783 0)
(0.0604688 -1.01775 0)
(0.0692509 -1.02042 0)
(0.0791715 -1.01948 0)
(0.0892621 -1.02177 0)
(0.0998376 -1.01866 0)
(0.111107 -1.01835 0)
(0.121356 -1.01155 0)
(0.131532 -1.00696 0)
(0.13862 -0.996035 0)
(0.143881 -0.985859 0)
(0.14356 -0.969859 0)
(0.138316 -0.954095 0)
(0.123425 -0.934374 0)
(0.0983052 -0.922748 0)
(0.0537052 -0.918034 0)
(-0.0068635 -0.930913 0)
(0.00260729 -1.0224 0)
(0.00881302 -1.02201 0)
(0.0139453 -1.02232 0)
(0.0200727 -1.02214 0)
(0.0252921 -1.02337 0)
(0.0315747 -1.02348 0)
(0.037126 -1.02563 0)
(0.0437532 -1.02571 0)
(0.0500015 -1.02832 0)
(0.0571612 -1.02762 0)
(0.0644854 -1.02963 0)
(0.0721887 -1.02658 0)
(0.0807188 -1.02556 0)
(0.0887132 -1.01782 0)
(0.0975258 -1.0111 0)
(0.104304 -0.997045 0)
(0.110373 -0.983211 0)
(0.112556 -0.962028 0)
(0.110717 -0.94082 0)
(0.101903 -0.912829 0)
(0.0837116 -0.887135 0)
(0.0495034 -0.861248 0)
(-0.00561344 -0.853282 0)
(0.0017465 -1.0263 0)
(0.00592782 -1.02582 0)
(0.00941005 -1.02605 0)
(0.0135779 -1.02589 0)
(0.0171403 -1.02724 0)
(0.0213864 -1.02759 0)
(0.0251608 -1.03004 0)
(0.029658 -1.03069 0)
(0.0340277 -1.0339 0)
(0.0389767 -1.03409 0)
(0.0442631 -1.03694 0)
(0.0497773 -1.03511 0)
(0.0562259 -1.03512 0)
(0.0623348 -1.02873 0)
(0.069866 -1.02294 0)
(0.0760577 -1.00946 0)
(0.0828256 -0.99471 0)
(0.0860633 -0.971073 0)
(0.0877386 -0.944294 0)
(0.0822513 -0.908576 0)
(0.0714544 -0.87135 0)
(0.0463824 -0.829979 0)
(0.00702479 -0.799952 0)
(0.00110943 -1.03036 0)
(0.00377816 -1.02996 0)
(0.00587025 -1.03023 0)
(0.00833742 -1.0301 0)
(0.0103202 -1.0314 0)
(0.012664 -1.0317 0)
(0.0146461 -1.03409 0)
(0.017012 -1.03474 0)
(0.0192562 -1.0378 0)
(0.0218006 -1.03798 0)
(0.0245582 -1.04053 0)
(0.0273612 -1.03859 0)
(0.0307602 -1.03812 0)
(0.0339327 -1.03138 0)
(0.0379998 -1.02464 0)
(0.0414479 -1.00969 0)
(0.045325 -0.992694 0)
(0.0474537 -0.966204 0)
(0.0483201 -0.935899 0)
(0.0448777 -0.89518 0)
(0.036777 -0.84935 0)
(0.0171669 -0.794746 0)
(-0.012551 -0.73762 0)
(0.000554639 -1.03098 0)
(0.00184054 -1.0304 0)
(0.00282759 -1.03046 0)
(0.0039523 -1.0302 0)
(0.0047345 -1.03146 0)
(0.00569761 -1.03182 0)
(0.00640808 -1.03432 0)
(0.00728442 -1.03525 0)
(0.00806178 -1.03866 0)
(0.00895737 -1.0394 0)
(0.00996068 -1.04253 0)
(0.011027 -1.04141 0)
(0.012454 -1.04183 0)
(0.0139232 -1.03623 0)
(0.0159435 -1.03079 0)
(0.0180509 -1.01732 0)
(0.0209341 -1.00138 0)
(0.0235589 -0.975073 0)
(0.0259603 -0.942883 0)
(0.0261473 -0.898653 0)
(0.0239397 -0.845365 0)
(0.0143527 -0.782817 0)
(-0.00222972 -0.715951 0)
(0.000153517 -1.03309 0)
(0.000655036 -1.03255 0)
(0.000854368 -1.03264 0)
(0.00115875 -1.03227 0)
(0.00106954 -1.03338 0)
(0.00106379 -1.03358 0)
(0.000702571 -1.03587 0)
(0.000418722 -1.03655 0)
(-0.000206103 -1.03962 0)
(-0.00075051 -1.03998 0)
(-0.00160859 -1.04268 0)
(-0.00234092 -1.0411 0)
(-0.00339705 -1.04098 0)
(-0.00423888 -1.03473 0)
(-0.00560466 -1.02853 0)
(-0.00661058 -1.01427 0)
(-0.0085083 -0.997567 0)
(-0.0098347 -0.970307 0)
(-0.0124187 -0.937176 0)
(-0.0149025 -0.891484 0)
(-0.0195737 -0.835303 0)
(-0.0266075 -0.765947 0)
(-0.0409841 -0.6828 0)
(5.01833e-05 -1.03147 0)
(0.000321524 -1.0308 0)
(0.000207586 -1.03068 0)