/*--------------------------------*- C++ -*----------------------------------*\
| =========                 |                                                 |
| \\      /  F ield         | OpenFOAM: The Open Source CFD Toolbox           |
|  \\    /   O peration     | Version:  2012                                  |
|   \\  /    A nd           | Website:  www.openfoam.com                      |
|    \\/     M anipulation  |                                                 |
\*---------------------------------------------------------------------------*/
FoamFile
{
    version     2.0;
    format      ascii;
    class       volScalarField;
    location    "0.36";
    object      volumeFraction1;
}
// * * * * * * * * * * * * * * * * * * * * * * * * * * * * * * * * * * * * * //

dimensions      [0 0 0 0 0 0 0];


internalField   nonuniform List<scalar> 
2268
(
1
1
1
1
1
1
1
1
1
1
1
1
1
1
1
1
1
1
1
1
1
1
0.999115
1
1
1
1
1
1
1
1
1
1
1
1
1
1
1
1
1
1
1
1
1
1
0.999565
1
1
1
1
1
1
1
1
1
1
1
1
1
1
1
1
1
1
1
1
1
1
0.999683
1
1
1
1
1
1
1
1
1
1
1
1
1
1
1
1
1
1
1
1
1
1
0.99853
1
1
1
1
1
1
1
1
1
1
1
1
1
1
1
1
1
1
1
1
1
1
0.998049
1
1
1
1
1
1
1
1
1
1
1
1
1
1
1
1
1
1
1
1
1
1
0.998049
1
1
1
1
1
1
1
1
1
1
1
1
1
1
1
1
1
1
1
1
1
1
0.998049
1
1
1
1
1
1
1
1
1
1
1
1
1
1
1
1
1
1
1
1
1
1
0.998049
6.52032e-23
7.93259e-22
7.91766e-21
3.13545e-20
4.42137e-20
3.77384e-20
1.60212e-20
4.81923e-21
6.32513e-22
1.98209e-22
1.58794e-22
1.9108e-22
3.82362e-22
5.24695e-22
4.24419e-21
4.41864e-20
4.58477e-19
1.79916e-18
7.40912e-19
4.00924e-21
9.06139e-20
8.17821e-19
2.78325e-18
3.65896e-18
2.90914e-18
1.39345e-18
4.94181e-19
6.41006e-20
2.20745e-20
1.64829e-20
2.10034e-20
3.93068e-20
3.22798e-20
3.324e-19
2.96968e-18
2.77339e-17
1.0289e-16
2.45134e-17
2.09312e-19
4.23001e-18
3.94072e-17
1.33999e-16
1.71212e-16
1.28379e-16
6.20725e-17
2.2335e-17
3.11641e-18
1.15209e-18
9.36883e-19
1.18645e-18
2.0974e-18
1.34728e-18
1.21282e-17
9.41001e-17
7.85091e-16
2.76422e-15
7.37272e-16
7.50394e-18
1.56999e-16
1.35581e-15
4.06568e-15
4.96159e-15
3.41815e-15
1.59925e-15
5.57054e-16
8.77236e-17
3.89153e-17
3.51853e-17
4.27902e-17
7.04259e-17
3.54213e-17
2.77753e-16
1.85429e-15
1.37992e-14
4.57892e-14
1.29963e-14
1.87583e-16
3.52411e-15
2.95392e-14
8.04769e-14
9.10202e-14
5.65549e-14
2.81881e-14
9.88224e-15
1.75856e-15
8.83399e-16
8.75867e-16
1.04974e-15
1.645e-15
6.70675e-16
4.47687e-15
2.5439e-14
1.68454e-13
5.18696e-13
1.50502e-13
3.24578e-15
6.1701e-14
4.53997e-13
1.05387e-12
1.13086e-12
6.90231e-13
3.41576e-13
1.12795e-13
2.35707e-14
1.52061e-14
1.74959e-14
1.95827e-14
2.89259e-14
9.46775e-15
5.27061e-14
2.54937e-13
1.50704e-12
4.21812e-12
1.19653e-12
4.64892e-14
6.57088e-13
4.2539e-12
8.53643e-12
8.26539e-12
5.3123e-12
2.98967e-12
1.02836e-12
2.52428e-13
1.93219e-13
2.513e-13
2.77616e-13
3.94682e-13
1.04896e-13
4.6448e-13
1.91635e-12
1.00801e-11
2.53106e-11
6.63933e-12
3.31326e-13
8.73277e-12
5.30233e-11
1.12573e-10
9.99779e-11
3.48279e-11
2.12474e-11
6.64398e-12
1.91139e-12
2.06043e-12
3.10419e-12
3.17583e-12
4.41874e-12
8.79838e-13
2.96303e-12
1.07861e-11
5.01612e-11
1.16533e-10
1.94999e-11
1
1
1
1
1
1
1
1
1
1
1
1
1
1
1
1
1
1
1
1
1
1
0.998816
1
1
1
1
1
1
1
1
1
1
0.999999
0.999999
0.999999
0.999999
0.999999
1
1
1
1
1
1
1
0.999728
0.999276
0.99921
0.999121
0.998909
0.99861
0.998202
0.997637
0.996821
0.995936
0.9947
0.993677
0.99242
0.992134
0.991946
0.993249
0.995355
0.999455
1
1
1
1
1
0.999977
0.837701
0.832332
0.824885
0.809787
0.791237
0.76939
0.74369
0.712626
0.683777
0.648974
0.623928
0.594702
0.584586
0.571591
0.594617
0.632393
0.696114
0.787272
0.904209
1
1
1
1
0.145967
0.141126
0.133792
0.120776
0.106042
0.0900311
0.0730523
0.0546032
0.0402374
0.0238322
0.0143425
0.00323296
4.03793e-22
7.00352e-29
0.0012621
0.01098
0.0335283
0.0761421
0.161329
0.317616
0.562746
0.842836
1
6.73454e-36
6.75818e-36
2.67923e-34
-7.95876e-33
1.25387e-32
2.46132e-30
4.26166e-30
-2.07846e-30
-1.70548e-24
3.99429e-28
4.50917e-27
3.23039e-25
1.74981e-11
6.48149e-10
-2.4297e-27
7.73911e-28
-4.051e-28
8.2653e-05
0.00118413
0.00609302
0.0277702
0.127857
0.351374
7.46709e-19
5.15227e-17
2.02438e-15
5.03404e-14
7.70175e-13
9.64691e-12
2.48663e-11
1.98768e-11
1.23724e-30
1.6048e-09
3.0407e-08
5.43464e-07
5.66911e-07
2.89469e-07
1.79568e-08
1.78109e-10
2.23222e-08
5.89224e-08
1.50672e-07
1.82067e-06
5.46393e-05
0.00141152
0.0107009
3.23917e-18
2.17096e-16
7.90422e-15
1.71928e-13
2.59403e-12
2.86822e-11
4.86894e-11
3.73406e-11
-8.00873e-31
4.74609e-08
1.0817e-06
2.48532e-06
2.48568e-06
6.46805e-07
5.46757e-09
1.37673e-09
3.31012e-09
8.13914e-07
7.66333e-07
3.5006e-07
3.5006e-07
7.10744e-07
7.39026e-06
5.11787e-18
3.33622e-16
1.16359e-14
2.36372e-13
3.5078e-12
3.67987e-11
4.99074e-11
4.69626e-11
7.88275e-31
4.00791e-07
2.48532e-06
2.48568e-06
1.82183e-06
2.7156e-07
2.88367e-08
1.18966e-08
3.1421e-09
8.77862e-10
1.93821e-05
2.48944e-05
1.16986e-05
4.67705e-07
4.13391e-07
5.71229e-18
3.70135e-16
1.27377e-14
2.52911e-13
3.64732e-12
3.62778e-11
4.13497e-11
1.08802e-10
1.73122e-28
3.85416e-07
1.63063e-06
1.21444e-06
6.7911e-09
2.81057e-11
7.02893e-08
9.82812e-08
1.38278e-08
8.72035e-10
1.33159e-05
3.99918e-05
4.0486e-05
4.04996e-05
3.84649e-05
5.4118e-18
3.40816e-16
1.12618e-14
2.103e-13
2.44305e-12
2.43302e-11
1.35945e-11
3.8864e-10
2.8777e-09
1.06641e-08
1.30711e-11
1.30688e-11
1.30711e-11
1.40009e-11
4.21446e-08
9.79581e-08
6.48332e-08
1.90293e-09
4.48355e-11
2.0946e-07
4.99483e-06
1.27781e-05
2.10227e-05
3.32484e-18
2.0115e-16
6.2913e-15
1.10043e-13
1.0959e-12
1.0632e-11
1.2098e-12
8.92658e-10
7.95559e-09
4.36105e-11
4.31756e-11
1.68122e-10
8.01725e-10
8.16472e-09
1.0915e-09
4.5565e-10
1.15215e-10
1.15215e-10
4.48352e-11
3.00681e-16
3.08716e-16
3.00681e-16
3.45489e-08
1.36409e-18
8.06496e-17
2.46701e-15
4.21724e-14
4.23848e-13
3.76632e-12
1.20633e-12
9.42266e-10
1.09233e-09
5.2581e-10
1.11424e-10
3.04239e-10
1.02495e-09
2.25058e-09
1.93203e-09
1.1924e-09
7.07383e-10
3.39331e-10
1.34625e-10
4.89925e-11
1.84305e-11
5.50146e-12
2.41946e-13
4.47677e-19
2.61098e-17
7.89258e-16
1.33801e-14
1.38319e-13
1.20634e-12
1.20634e-12
5.0636e-10
4.82291e-10
4.0702e-10
1.27117e-10
1.92078e-10
7.28863e-10
7.6072e-10
1.03479e-09
1.10098e-09
7.67747e-10
3.13395e-10
1.22201e-10
4.94582e-11
2.05636e-11
8.69908e-12
3.96425e-12
1.16311e-19
6.69848e-18
2.01197e-16
3.42637e-15
3.71053e-14
3.19109e-13
1.53728e-12
8.34333e-11
1.31089e-10
1.06652e-10
4.26684e-11
3.44441e-11
1.20011e-10
2.57885e-10
2.82446e-10
2.57454e-10
1.82231e-10
8.74779e-11
3.71369e-11
1.53411e-11
6.36394e-12
2.62903e-12
1.14689e-12
2.35179e-20
1.36683e-18
4.1587e-17
7.30513e-16
8.51695e-15
7.93386e-14
1.62288e-12
3.46002e-12
5.68972e-12
5.37327e-12
4.16358e-12
9.8008e-12
1.8563e-11
2.69241e-11
2.9763e-11
2.92367e-11
2.55986e-11
1.65131e-11
7.2556e-12
2.99359e-12
1.21344e-12
4.66525e-13
2.03871e-13
3.58935e-21
2.13068e-19
6.67756e-18
1.24327e-16
1.59932e-15
1.62922e-14
4.45705e-13
3.28905e-13
1.36066e-13
1.23568e-13
5.62947e-13
2.94088e-12
6.3606e-12
6.7639e-12
6.38341e-12
5.42163e-12
3.98082e-12
2.20305e-12
9.80378e-13
4.0271e-13
1.53857e-13
5.47465e-14
6.64678e-14
3.94799e-22
2.4897e-20
8.35e-19
1.71248e-17
2.46752e-16
2.51362e-15
5.01414e-14
7.97727e-14
6.92061e-14
4.47328e-14
1.50894e-13
6.47788e-13
1.16206e-12
1.17865e-12
1.05937e-12
8.12702e-13
4.90633e-13
2.32058e-13
9.87211e-14
3.83095e-14
1.19321e-14
1.15765e-14
7.07904e-14
2.90884e-23
2.05592e-21
7.72839e-20
1.7922e-18
2.8493e-17
2.92528e-16
2.22149e-15
2.84068e-15
2.79833e-15
4.95674e-15
2.37863e-14
8.12292e-14
1.11297e-13
1.07874e-13
9.46678e-14
7.3475e-14
4.71508e-14
2.23556e-14
9.03662e-15
2.96409e-15
1.36754e-15
7.21228e-15
9.78472e-14
1.28162e-24
1.11379e-22
4.96458e-21
1.31131e-19
2.22336e-18
2.1877e-17
1.10587e-16
1.19321e-16
1.7486e-16
5.5362e-16
2.53822e-15
5.59449e-15
5.37266e-15
4.81341e-15
4.8265e-15
4.51979e-15
3.54249e-15
1.88253e-15
6.63925e-16
1.90991e-16
4.4412e-16
8.20688e-15
1.05383e-13
2.87812e-26
3.22009e-24
1.72687e-22
5.05024e-21
8.76624e-20
7.88631e-19
2.79749e-18
4.85659e-18
1.39339e-17
5.32639e-17
1.83961e-16
2.106e-16
1.34978e-16
1.25823e-16
1.89146e-16
2.04772e-16
1.68539e-16
8.87989e-17
2.40358e-17
1.74961e-17
3.45659e-16
7.88396e-15
8.4873e-14
3.79992e-28
2.66742e-26
1.0176e-24
2.59118e-23
5.29196e-22
7.05025e-21
4.27526e-20
2.08151e-19
9.95706e-19
3.63756e-18
7.94545e-18
8.23551e-18
5.76871e-18
5.21128e-18
6.62866e-18
6.60709e-18
5.02576e-18
2.19749e-18
6.22593e-19
4.93583e-18
2.45067e-16
4.41593e-15
4.38451e-14
2.27374e-29
1.69417e-27
6.63244e-26
1.68704e-24
3.41457e-23
4.6884e-22
2.87071e-21
1.29628e-20
5.38972e-20
1.66653e-19
2.49153e-19
2.66254e-19
2.34508e-19
1.32363e-19
5.80948e-20
3.79309e-20
2.4844e-20
1.01778e-20
3.81317e-20
2.31922e-18
9.90662e-17
1.8599e-15
2.6358e-14
6.69628e-31
5.13721e-29
1.96228e-27
4.50054e-26
7.1344e-25
7.83806e-24
6.48485e-23
3.83613e-22
1.67484e-21
4.66682e-21
7.73762e-21
1.04787e-20
9.35507e-21
5.48343e-21
1.53593e-21
3.27611e-22
7.07774e-23
5.16161e-22
1.74732e-20
8.70214e-19
3.43598e-17
8.40489e-16
2.22023e-14
3.0086e-36
1.57658e-34
4.01481e-33
5.96732e-32
5.59657e-31
1.89e-30
4.08044e-30
3.65179e-29
2.38675e-28
9.73839e-28
2.51704e-27
3.3147e-27
2.81572e-27
1.32535e-27
2.44535e-27
1.27335e-25
6.73557e-24
2.73623e-22
8.75249e-21
3.23619e-19
1.26862e-17
5.59703e-16
2.3046e-14
2.2654e-40
1.59539e-38
5.83919e-37
1.40231e-35
2.65577e-34
4.66648e-33
1.6235e-31
3.01283e-30
2.30431e-29
9.93062e-29
2.50198e-28
3.1461e-28
2.52851e-28
1.03021e-28
7.22094e-28
5.47673e-26
3.12426e-24
1.33468e-22
4.21667e-21
1.4549e-19
7.86643e-18
5.41818e-16
2.69987e-14
1.28131e-43
8.73337e-42
2.97722e-40
6.29057e-39
9.3555e-38
1.01094e-36
8.3562e-36
5.27301e-35
2.61629e-34
1.0677e-33
3.96197e-33
4.5204e-32
5.50571e-32
2.00956e-30
2.27776e-28
2.03203e-26
1.25064e-24
5.65939e-23
1.89454e-21
8.50738e-20
7.54137e-18
6.12781e-16
2.93932e-14
3.84371e-49
3.37115e-47
1.50897e-45
4.31353e-44
8.95029e-43
1.41201e-41
1.77882e-40
1.8196e-39
1.53025e-38
1.07488e-37
6.61424e-37
1.66854e-35
2.86409e-33
4.94882e-31
6.38531e-29
6.34713e-27
4.21788e-25
2.03885e-23
7.71136e-22
5.36807e-20
7.68016e-18
6.34159e-16
2.91456e-14
1.30253e-52
1.22993e-50
5.94049e-49
1.85731e-47
4.28253e-46
7.75794e-45
1.16217e-43
1.47878e-42
1.59656e-41
1.66493e-40
8.10497e-39
2.07024e-36
4.90764e-34
9.88295e-32
1.44895e-29
1.61518e-27
1.16094e-25
6.11489e-24
2.79866e-22
2.93907e-20
5.82229e-18
4.60151e-16
1.86237e-14
5.50622e-59
6.3994e-57
4.23011e-55
2.02106e-53
7.64291e-52
2.3288e-50
5.80613e-49
1.84623e-47
3.82596e-45
1.65615e-42
6.45799e-40
2.26354e-37
6.36257e-35
1.5057e-32
2.55145e-30
3.20839e-28
2.51004e-26
1.49962e-24
8.70956e-23
1.15459e-20
1.92549e-18
1.44894e-16
5.7069e-15
3.26994e-64
6.22791e-62
6.31562e-60
4.31112e-58
2.24373e-56
1.33895e-54
3.72115e-52
2.34941e-49
1.42329e-46
7.86268e-44
3.80346e-41
1.62963e-38
5.65562e-36
1.60603e-33
3.26624e-31
4.67994e-29
4.06656e-27
2.9294e-25
2.13726e-23
2.58926e-21
2.94325e-19
2.07174e-17
8.24658e-16
2.10248e-68
5.78369e-66
8.22307e-64
7.91934e-62
8.02751e-60
3.2854e-57
2.98846e-54
2.73664e-51
2.27099e-48
1.72669e-45
1.15363e-42
6.59356e-40
3.06802e-37
1.08501e-34
2.79323e-32
4.66468e-30
4.70335e-28
4.35137e-26
3.84273e-24
2.44357e-22
1.05108e-20
3.29565e-19
7.57884e-18
5.97808e-73
2.41176e-70
5.48508e-68
1.24938e-65
7.86344e-63
1.0348e-59
1.38537e-56
1.75584e-53
2.03344e-50
2.14925e-47
1.96378e-44
1.49536e-41
8.98188e-39
4.05697e-36
1.32805e-33
2.77971e-31
3.51438e-29
4.41208e-27
5.18147e-25
4.09519e-23
2.1369e-21
8.1514e-20
2.38507e-18
9.96928e-77
5.069e-74
1.49777e-71
4.89102e-69
4.49211e-66
7.85462e-63
1.4923e-59
2.74432e-56
4.67006e-53
7.48264e-50
9.96856e-47
1.18034e-43
1.0812e-40
7.62828e-38
3.69457e-35
1.06968e-32
1.75741e-30
2.85014e-28
4.52557e-26
4.73151e-24
3.17421e-22
1.52013e-20
6.02112e-19
5.36132e-81
3.87937e-78
1.65663e-75
7.39589e-73
8.63113e-70
2.1882e-66
6.16227e-63
1.79701e-59
4.65289e-56
1.12052e-52
2.26667e-49
4.13924e-46
5.38456e-43
5.7658e-40
3.81454e-37
1.69707e-34
3.95508e-32
8.57242e-30
2.06379e-27
3.34867e-25
3.36903e-23
2.35418e-21
1.40289e-19
1.80476e-85
1.85429e-82
1.12999e-79
6.51169e-77
8.41283e-74
2.8275e-70
1.1481e-66
4.87352e-63
1.90355e-59
7.05143e-56
2.26413e-52
6.29558e-49
1.31759e-45
2.34255e-42
2.4826e-39
1.83343e-36
6.26276e-34
1.84186e-31
6.80137e-29
1.64581e-26
2.35104e-24
2.33514e-22
2.08599e-20
1.56682e-90
2.58843e-87
2.4846e-84
1.9552e-81
2.17133e-78
8.4453e-75
5.27234e-71
3.44174e-67
2.24868e-63
1.29276e-59
6.52343e-56
2.8094e-52
1.02157e-48
2.87183e-45
5.03055e-42
6.16996e-39
3.47694e-36
1.30567e-33
6.38454e-31
2.54366e-28
6.1099e-26
9.88599e-24
1.53134e-21
9.13152e-96
2.36414e-92
3.56154e-89
4.22209e-86
5.81467e-83
2.61695e-79
2.32999e-75
2.21823e-71
2.10176e-67
1.78178e-63
1.43351e-59
1.01254e-55
6.31188e-52
3.30625e-48
9.46672e-45
1.98279e-41
1.59311e-38
8.96118e-36
8.90897e-33
5.81938e-30
2.14879e-27
5.61388e-25
1.43296e-22
1.02678e-101
1.63842e-97
3.65008e-93
9.71527e-89
1.6365e-84
1.67658e-80
1.23382e-76
7.30326e-73
3.54922e-69
1.44299e-65
5.24395e-62
1.5392e-58
4.84103e-55
2.19032e-51
8.40616e-48
2.07537e-44
2.38322e-41
2.05097e-38
2.59672e-35
2.22143e-32
1.21688e-29
4.34955e-27
1.67806e-24
2.18562e-102
2.42961e-97
1.73744e-92
6.84819e-88
1.37068e-83
1.61785e-79
1.22607e-75
6.55343e-72
2.79981e-68
1.11355e-64
3.36609e-61
6.64753e-58
9.41436e-55
1.11939e-51
1.29615e-48
1.78364e-45
2.6066e-42
3.61832e-39
4.7061e-36
4.72129e-33
2.95509e-30
1.01182e-27
1.9824e-25
8.08508e-102
1.8317e-96
1.59254e-91
6.65783e-87
1.54851e-82
2.02052e-78
1.59671e-74
8.50148e-71
3.22519e-67
8.99205e-64
1.91156e-60
3.19349e-57
4.17522e-54
4.33455e-51
3.6201e-48
2.47847e-45
1.38857e-42
6.85922e-40
2.88218e-37
1.03813e-34
3.18954e-32
8.12882e-30
1.65442e-27
1.10256e-100
2.2087e-95
1.53268e-90
4.79564e-86
7.78575e-82
7.454e-78
4.54784e-74
1.89974e-70
5.67574e-67
1.2651e-63
2.15448e-60
2.88413e-57
3.09551e-54
2.72925e-51
1.97867e-48
1.18894e-45
5.92259e-43
2.4573e-40
8.57627e-38
2.49559e-35
6.01927e-33
1.19635e-30
1.93496e-28
0.999557
0.999968
0.753247
0.0276079
0.999796
0.999968
0.987067
0.922663
0.999964
0.999906
0.999535
1
1
0.999977
0.999985
1
1
1
1
1
0.544503
0.670392
0.804566
0.93804
0.0241484
0.0512223
0.0995285
0.170334
3.27246e-05
0.000144659
0.000539227
0.00168282
4.13459e-07
4.62459e-07
5.3554e-07
1.11198e-06
2.07967e-05
2.35488e-06
2.59027e-09
6.92444e-10
1.62702e-05
5.05825e-06
2.63059e-09
1.8528e-10
2.8502e-07
3.73401e-07
2.73909e-07
5.28305e-08
2.4213e-13
2.72477e-12
9.7048e-10
5.35865e-10
2.16487e-12
1.26754e-12
2.28131e-13
2.28118e-13
6.58111e-13
4.62506e-13
3.35608e-13
3.09169e-13
1.55638e-13
1.60207e-13
1.81032e-13
2.72013e-13
9.56459e-14
1.47016e-13
2.64023e-13
7.3142e-13
1.73514e-13
3.20932e-13
7.16859e-13
1.56905e-12
2.40498e-13
4.43267e-13
1.31475e-12
1.41169e-12
2.57277e-13
4.78864e-13
1.78354e-12
1.5232e-12
2.07177e-13
4.41092e-13
2.22003e-12
2.6408e-12
1.34706e-13
4.23617e-13
2.61108e-12
8.30076e-12
1.21509e-13
6.65342e-13
4.28059e-12
1.82472e-11
1.57563e-13
1.18585e-12
7.17595e-12
2.62343e-11
2.40306e-13
1.83652e-12
1.08482e-11
3.34696e-11
3.18522e-13
2.54095e-12
1.54477e-11
4.38414e-11
3.74293e-13
3.05434e-12
1.8797e-11
6.30714e-11
3.87931e-13
3.19398e-12
1.94886e-11
6.18379e-11
2.67929e-13
2.17102e-12
1.22349e-11
2.82536e-11
8.37866e-14
6.76213e-13
3.69754e-12
7.611e-12
1.31723e-14
1.11205e-13
6.0173e-13
1.0473e-12
9.17785e-17
6.18271e-16
2.51965e-15
1.32967e-14
3.8525e-17
4.23281e-16
2.56459e-15
1.3588e-14
9.75007e-18
8.88288e-17
7.35662e-16
6.53199e-15
2.7531e-18
2.99279e-17
3.0267e-16
3.72513e-15
5.22293e-19
6.90544e-18
7.58748e-17
7.16129e-16
5.85983e-20
1.08117e-18
1.56018e-17
1.82313e-16
6.58799e-21
1.48641e-19
2.61962e-18
3.69567e-17
1.45066e-22
5.86694e-21
1.76869e-19
4.03533e-18
1.63324e-23
6.86474e-22
2.24913e-20
5.69531e-19
1.85059e-25
1.12557e-23
5.62856e-22
2.26116e-20
1.82113e-26
9.3672e-25
4.03037e-23
1.43899e-21
3.31326e-13
3.48877e-11
3.0084e-10
5.15878e-10
5.09267e-10
4.62541e-10
3.14201e-10
9.65883e-11
2.09054e-11
2.60796e-11
4.43137e-11
2.52531e-11
5.16256e-11
7.79379e-12
1.86274e-11
6.37402e-11
2.26234e-10
3.41884e-10
3.12692e-11
0.203984
3.66257e-16
3.6631e-16
1.16142e-10
2.51173e-10
4.40081e-10
6.04429e-10
3.25026e-10
2.55811e-10
6.32924e-10
1.3336e-09
1.82834e-09
2.32236e-09
7.7938e-12
7.53262e-11
2.96723e-10
5.40955e-10
4.94545e-10
3.67833e-11
0.814205
0.296774
0.0214734
3.63304e-16
3.63516e-16
3.63304e-16
3.63521e-16
1.43053e-12
1.62779e-10
9.63074e-10
3.49397e-09
2.9162e-08
8.79997e-08
6.086e-08
7.53266e-11
3.02906e-10
8.59437e-10
4.90878e-10
3.67839e-11
0.995437
0.912613
0.735678
0.48502
0.311679
0.222583
0.115918
3.62718e-16
3.62293e-16
3.62789e-16
3.62312e-16
4.09578e-09
1.22819e-07
9.05721e-07
8.76751e-07
3.02909e-10
1.96791e-07
2.09975e-08
3.67831e-11
0.999984
0.999531
0.996373
0.985563
0.94986
0.908306
0.83492
0.708304
0.534343
0.348441
0.128979
3.83314e-11
3.83137e-11
3.83314e-11
6.16674e-07
3.52682e-06
1.17035e-05
1.02401e-06
3.60912e-09
1
1
1
1
1
1
1
0.999338
0.992187
0.959278
0.873785
0.717098
0.440573
0.0608946
6.16674e-07
6.1662e-07
1.15966e-05
1.26683e-05
3.6377e-06
0.348789
0.627413
0.765239
0.83656
0.878685
0.9082
0.939584
0.979598
0.99996
0.99996
0.99996
0.99996
0.978243
0.846134
0.546645
0.101655
1.15966e-05
0.000979086
0.00204976
0.00846728
0.0391738
0.0857438
0.135695
0.185112
0.22985
0.281518
0.360647
0.485874
0.61397
0.745683
0.930212
0.999912
0.999912
0.99515
0.843663
0.445814
0.110871
0.0977752
7.2058e-06
4.75808e-05
0.000188756
0.000509314
0.00109521
0.00195918
0.00351475
0.00721561
0.0148911
0.0364658
0.084457
0.196074
0.436749
0.836306
0.99515
0.995149
0.944474
0.690421
0.277967
3.32694e-09
5.23815e-09
6.00303e-09
1.06494e-08
3.3392e-08
1.00373e-07
3.07595e-07
1.49445e-06
7.92797e-06
4.68363e-05
0.000438129
0.00341142
0.00394706
0.124054
0.546982
0.967003
0.977256
0.906245
0.373504
1.85282e-10
1.85279e-10
1.73903e-10
1.20731e-10
2.46662e-11
4.50925e-09
4.59699e-08
5.62797e-08
3.78561e-08
1.05055e-08
2.53266e-08
1.01943e-08
0.000290636
4.2439e-08
0.0710984
0.66046
0.977254
0.921771
0.383429
7.08229e-10
2.24487e-10
1.90161e-10
1.05624e-10
2.46658e-11
2.46662e-11
1.49855e-08
3.51166e-08
2.20774e-08
3.10504e-09
1.20012e-09
1.01942e-08
8.93724e-08
4.2439e-08
1.64956e-11
0.309328
0.917564
0.921296
0.380063
8.29185e-11
5.86702e-11
4.33439e-11
3.00966e-11
4.11041e-11
1.88449e-10
1.49177e-09
6.43459e-09
7.5759e-09
4.0314e-09
1.20014e-09
3.99253e-09
5.62173e-09
1.25538e-08
1.65602e-11
0.163382
0.839028
0.914318
0.344684
2.28131e-13
1.17914e-12
7.25641e-12
9.07436e-12
1.14609e-11
3.69489e-11
1.63531e-10
7.18736e-10
2.07153e-09
2.22646e-09
1.2118e-09
1.18023e-09
1.1819e-09
3.39151e-09
3.26807e-05
0.118457
0.784119
0.857405
0.302848
3.30721e-13
3.82397e-12
4.15921e-11
3.88251e-10
2.23009e-10
3.69488e-11
4.63749e-11
1.3211e-10
5.64317e-10
1.51799e-09
1.35829e-09
1.07303e-09
1.07261e-09
1.46178e-09
0.000181751
0.0933777
0.763416
0.835266
0.302849
5.34936e-13
1.38633e-12
1.38634e-12
1.95641e-09
1.50489e-08
9.57513e-09
1.61361e-11
1.63273e-11
1.61361e-11
8.96166e-10
2.6333e-09
2.13491e-09
1.08679e-09
2.47442e-09
0.000429337
0.111312
0.706313
0.835266
0.392337
1.48038e-12
1.92306e-11
1.96996e-11
1.97007e-11
1.65016e-08
1.85464e-07
1.92099e-07
5.43494e-08
5.33294e-09
2.31166e-09
4.36713e-09
4.6688e-09
1.66341e-09
1.36176e-09
0.000221485
0.0783444
0.539291
0.770951
0.381188
1.41153e-12
1.29701e-09
1.41748e-09
1.12402e-09
1.12411e-09
1.27893e-07
3.48916e-07
3.48952e-07
9.94388e-08
3.34586e-09
3.27944e-09
4.68735e-09
3.40223e-09
1.36188e-09
2.95106e-11
0.014112
0.566895
0.425893
0.157603
1.41162e-12
1.59212e-07
1.68854e-07
4.60191e-08
3.49826e-08
2.77694e-07
2.95105e-11
2.95106e-11
1.42672e-08
3.48626e-09
1.15894e-09
2.83831e-09
3.83258e-09
1.81947e-09
2.95105e-11
0.0173798
0.560499
0.461167
0.139158
1.41153e-12
3.94274e-07
3.95052e-07
1.1533e-07
1.27145e-06
1.53562e-05
4.43759e-05
3.38335e-05
5.62597e-11
6.14647e-11
5.62597e-11
4.97884e-09
5.43959e-09
2.38356e-09
2.15767e-10
2.95105e-11
0.415815
0.65092
0.160772
1.42347e-12
3.3448e-07
2.98237e-07
1.1534e-07
3.56965e-05
0.00016267
0.000164311
0.000164318
0.000126517
1.14468e-05
5.75396e-07
1.62573e-08
3.667e-09
1.62972e-09
2.31704e-10
2.95106e-11
0.143544
0.651416
0.204386
1.42357e-12
4.7431e-09
7.28339e-09
1.87253e-05
0.000118331
0.000153604
0.000158573
0.000164311
0.000164318
0.000109306
8.3237e-06
7.588e-09
5.00167e-10
2.22681e-10
1.33629e-10
2.95105e-11
2.95106e-11
0.422728
0.416064
1.35158e-11
2.31824e-12
7.24986e-06
6.80007e-05
9.17258e-06
9.17665e-06
1.56087e-05
8.17282e-05
0.000164311
0.000137347
8.30832e-06
7.11122e-09
5.00526e-10
3.1442e-09
1.04879e-10
0.000155187
2.95105e-11
0.044895
0.416062
2.62495e-11
2.31818e-12
8.76253e-06
6.79609e-05
5.84127e-06
1.62821e-05
4.05773e-05
2.04061e-05
5.4203e-05
4.46832e-05
3.39389e-06
5.90409e-08
5.50762e-08
1.10202e-08
1.0489e-10
0.000416816
0.000302568
3.08363e-06
0.342369
7.19323e-11
2.62573e-12
7.13441e-06
1.86085e-06
5.9741e-06
5.58486e-05
5.58625e-05
3.40266e-05
2.99925e-09
2.50081e-07
2.94026e-07
5.07319e-08
5.55659e-08
8.67298e-09
1.04879e-10
0.000417449
0.000260366
3.09825e-06
0.0821143
1.37528e-10
5.48519e-08
4.2951e-08
4.29512e-08
8.61048e-07
2.33732e-05
5.58486e-05
2.97582e-05
2.99854e-09
2.99925e-09
2.99854e-09
2.99925e-09
2.99854e-09
2.99925e-09
1.84451e-05
0.000274823
8.80286e-05
5.3151e-06
0.000561831
1.1995e-10
1.91107e-09
1.07311e-07
1.80805e-06
4.45019e-07
1.59929e-06
6.91015e-06
8.39453e-06
6.68634e-06
5.98836e-06
5.61048e-06
2.68978e-06
4.60081e-07
7.08611e-07
4.23521e-05
2.48354e-05
4.19808e-06
2.22821e-06
1.62483e-07
8.80445e-11
8.80443e-11
1.75225e-07
5.25179e-06
3.92735e-06
2.31325e-07
7.59519e-09
1.52945e-07
1.59481e-06
2.73642e-06
3.08971e-06
2.08668e-06
2.07519e-06
2.80872e-06
1.90567e-05
6.16331e-07
2.481e-07
2.48103e-07
2.67632e-08
4.20126e-11
2.23293e-10
4.61955e-08
2.07467e-06
6.81142e-06
3.38089e-08
3.29712e-10
3.29615e-10
7.53678e-09
8.94282e-09
9.35268e-09
3.27399e-11
3.27403e-11
3.66127e-07
3.66219e-07
8.50305e-06
1.05072e-05
8.98948e-07
9.71479e-09
1.07758e-11
7.27368e-11
7.22904e-13
7.22824e-13
3.4172e-07
6.80116e-06
6.85791e-07
3.29712e-10
1.09777e-09
3.48964e-10
3.48965e-10
0.0225737
0.0100089
3.66219e-07
0.000405651
0.000126748
1.07985e-05
3.52102e-07
4.95739e-09
1.01125e-12
1.65373e-12
6.89217e-11
1.91705e-09
1.91709e-09
1.90473e-05
2.11093e-05
4.95488e-06
9.70023e-08
1.96993e-11
0.0574962
0.376863
0.405775
0.133486
0.0035188
5.84559e-05
6.454e-06
1.36285e-07
3.11728e-09
1.26483e-13
1.26721e-12
1.05372e-11
1.23478e-09
8.1554e-07
1.24978e-05
2.11214e-05
1.71827e-05
8.48188e-07
1.97591e-11
0.220878
0.471713
0.471739
0.288888
0.00801611
1.86541e-05
1.64617e-06
5.39624e-08
2.04745e-09
1.19519e-13
1.41481e-12
1.593e-11
8.48285e-11
8.48271e-11
2.60709e-09
1.64576e-05
1.16289e-05
4.81935e-07
1.96993e-11
0.104858
0.380402
0.401553
0.177024
0.00438247
4.04109e-06
3.06533e-07
1.82752e-08
1.4011e-09
1.15921e-13
2.84475e-12
5.16865e-11
4.86594e-10
3.73986e-09
2.1785e-06
9.68976e-06
3.23252e-06
4.17855e-07
0.000213114
0.00719347
0.0547117
0.0507724
0.0167439
0.00212973
4.32264e-06
6.50522e-08
4.91919e-09
9.82644e-10
1.10192e-13
3.78011e-12
8.45294e-11
1.05569e-09
2.51057e-09
6.10828e-11
5.25967e-09
4.80223e-06
2.46633e-05
0.000318659
0.000130856
0.000124344
8.04098e-05
3.15184e-05
0.000239161
4.44477e-05
9.89569e-10
9.89653e-10
6.81309e-10
9.31669e-15
1.18486e-13
5.19221e-13
5.19225e-13
5.19217e-13
6.10834e-11
2.95785e-08
3.91168e-06
2.37263e-05
3.7097e-05
1.06129e-06
1.37509e-08
2.95891e-10
6.96566e-11
8.03644e-12
2.02028e-05
1.75398e-06
2.83558e-09
4.8069e-10
2.78851e-15
3.87746e-14
3.73775e-13
2.42502e-12
6.63744e-12
1.90479e-11
1.0016e-09
5.07584e-08
6.65225e-07
1.6815e-09
3.80845e-10
9.4043e-12
9.31765e-12
8.03644e-12
8.03572e-12
2.77397e-06
1.74364e-06
6.87327e-08
4.24315e-10
6.74359e-16
1.08435e-14
1.17703e-13
8.74592e-13
4.38604e-12
8.89644e-12
7.10512e-12
7.10767e-12
1.54295e-11
6.60183e-12
7.58536e-12
1.52218e-11
2.57634e-11
8.03572e-12
2.38731e-06
1.37994e-05
6.53553e-06
5.19257e-08
3.42978e-10
1.13315e-16
2.41863e-15
3.20843e-14
2.81498e-13
1.6745e-12
5.8942e-12
8.91152e-12
8.84459e-12
6.95815e-12
6.60184e-12
1.04143e-11
2.25914e-11
9.3675e-11
7.44422e-09
7.85335e-06
1.43126e-05
7.97687e-06
4.61251e-08
2.8367e-10
1.79581e-17
4.38116e-16
6.54778e-15
6.54327e-14
4.54815e-13
2.2428e-12
5.56375e-12
7.108e-12
6.75977e-12
6.24596e-12
1.05545e-11
2.77884e-11
1.34471e-10
6.13497e-08
7.45524e-06
1.43126e-05
4.58318e-06
2.00094e-08
2.15554e-10
1.16146e-18
4.52609e-17
9.60131e-16
1.22654e-14
1.02519e-13
5.91921e-13
2.33114e-12
4.26438e-12
4.86804e-12
4.91949e-12
8.40618e-12
2.75513e-11
1.44202e-10
6.84574e-08
6.05707e-06
1.43126e-05
3.0379e-07
8.69692e-11
6.57342e-11
6.87463e-20
2.96775e-18
7.609e-17
1.20046e-15
1.22515e-14
8.4907e-14
4.06921e-13
1.26395e-12
1.96476e-12
2.32566e-12
4.26334e-12
2.74404e-11
2.75917e-10
2.24614e-08
5.55686e-07
4.98672e-06
5.98292e-06
4.64972e-11
4.68987e-09
)
;

boundaryField
{
    leftWall
    {
        type            zeroGradient;
    }
    rightWall
    {
        type            zeroGradient;
    }
    lowerWall
    {
        type            zeroGradient;
    }
    atmosphere
    {
        type            inletOutlet;
        inletValue      uniform 0;
        value           nonuniform List<scalar> 
46
(
0
0
0
0
0
0
0
0
0
0
0
0
0
0
0
0
0
0
0
0
0
0
0
0
0
0
0
0
0
0
1.20046e-15
1.22515e-14
8.4907e-14
4.06921e-13
1.26395e-12
1.96476e-12
2.32566e-12
4.26334e-12
2.74404e-11
0
0
0
4.98672e-06
5.98292e-06
4.64972e-11
4.68987e-09
)
;
    }
    defaultFaces
    {
        type            empty;
    }
}


// ************************************************************************* //
