/*--------------------------------*- C++ -*----------------------------------*\
| =========                 |                                                 |
| \\      /  F ield         | OpenFOAM: The Open Source CFD Toolbox           |
|  \\    /   O peration     | Version:  3.0.1                                 |
|   \\  /    A nd           | Web:      www.OpenFOAM.org                      |
|    \\/     M anipulation  |                                                 |
\*---------------------------------------------------------------------------*/
FoamFile
{
    version     2.0;
    format      ascii;
    class       volScalarField;
    location    "5e-05";
    object      maxKappa;
}
// * * * * * * * * * * * * * * * * * * * * * * * * * * * * * * * * * * * * * //

dimensions      [0 0 0 0 0 0 0];

internalField   nonuniform List<scalar> 
1000
(
0.495791
0.495791
0.495791
0.495791
0.495791
0.495791
0.495791
0.495791
0.495791
0.495791
0.495791
0.495791
0.495791
0.495791
0.495791
0.495791
0.495791
0.495791
0.495791
0.495791
0.495791
0.495791
0.495791
0.495791
0.495791
0.495791
0.495791
0.495792
0.495792
0.495792
0.495792
0.495793
0.495795
0.495796
0.495797
0.495801
0.49581
0.495821
0.495825
0.495858
0.495891
0.496022
0.49601
0.496454
0.494159
0.497213
0.498144
0.498981
0.496039
0.443006
0.496859
0.489027
0.491244
0.492416
0.494117
0.49428
0.495139
0.494978
0.495612
0.49564
0.495695
0.495735
0.495753
0.495769
0.495772
0.495767
0.495789
0.495788
0.495789
0.49579
0.495791
0.495791
0.495791
0.495791
0.495791
0.495791
0.495791
0.495791
0.495791
0.495791
0.495791
0.495791
0.495791
0.495791
0.495791
0.495791
0.495791
0.495791
0.495791
0.495791
0.495791
0.495791
0.495791
0.495791
0.495791
0.495791
0.495791
0.495791
0.495791
0.495791
0.495791
0.495791
0.495791
0.495791
0.495791
0.495791
0.495791
0.495791
0.495791
0.495791
0.495791
0.495791
0.495791
0.495791
0.495791
0.495791
0.495791
0.495791
0.495791
0.495791
0.495791
0.495791
0.495791
0.495791
0.495791
0.495791
0.495791
0.495792
0.495792
0.495792
0.495792
0.495793
0.495795
0.495796
0.495798
0.495804
0.49581
0.495821
0.495825
0.495858
0.495891
0.496022
0.49601
0.496732
0.494159
0.498419
0.498196
0.498981
0.496039
0.528914
0.496859
0.492641
0.491244
0.493462
0.494117
0.49428
0.495139
0.495638
0.495612
0.49564
0.495699
0.495735
0.495763
0.495769
0.495772
0.495806
0.495789
0.495788
0.495789
0.49579
0.495791
0.495791
0.495791
0.495791
0.495791
0.495791
0.495791
0.495791
0.495791
0.495791
0.495791
0.495791
0.495791
0.495791
0.495791
0.495791
0.495791
0.495791
0.495791
0.495791
0.495791
0.495791
0.495791
0.495791
0.495791
0.495791
0.495791
0.495791
0.495791
0.495791
0.495791
0.495791
0.495791
0.495791
0.495791
0.495791
0.495791
0.495791
0.495791
0.495791
0.495791
0.495791
0.495791
0.495791
0.495791
0.495791
0.495791
0.495791
0.495791
0.495791
0.495791
0.495791
0.495791
0.495791
0.495791
0.495791
0.495791
0.495792
0.495791
0.495792
0.495793
0.495793
0.495793
0.495796
0.495801
0.495804
0.49581
0.495814
0.495842
0.495875
0.495873
0.496016
0.496014
0.496732
0.497672
0.498419
0.498196
0.498363
0.462257
0.528914
0.47899
0.492641
0.491244
0.493462
0.494139
0.494882
0.494675
0.495638
0.495574
0.495651
0.4957
0.495724
0.495763
0.495769
0.495774
0.495806
0.495772
0.495788
0.495789
0.49579
0.495791
0.495791
0.495791
0.495791
0.495791
0.495791
0.495791
0.495791
0.495791
0.495791
0.495791
0.495791
0.495791
0.495791
0.495791
0.495791
0.495791
0.495791
0.495791
0.495791
0.495791
0.495791
0.495791
0.495791
0.495791
0.495791
0.495791
0.495791
0.495791
0.495791
0.495791
0.495791
0.495791
0.495791
0.495791
0.495791
0.495791
0.495791
0.495791
0.495791
0.495791
0.495791
0.495791
0.495791
0.495791
0.495791
0.495791
0.495791
0.495791
0.495791
0.495791
0.495791
0.495791
0.495791
0.495791
0.495791
0.495791
0.495792
0.495791
0.495792
0.495793
0.495793
0.495794
0.495791
0.495801
0.495797
0.495812
0.495824
0.495842
0.495875
0.495923
0.496004
0.496014
0.496565
0.497672
0.492836
0.498153
0.498363
0.483561
0.51525
0.47899
0.480394
0.488259
0.492849
0.494139
0.494882
0.494675
0.495521
0.495519
0.495651
0.4957
0.495724
0.495743
0.495768
0.495775
0.495774
0.495783
0.495788
0.495789
0.49579
0.49579
0.49579
0.495791
0.495791
0.495791
0.495791
0.495791
0.495791
0.495791
0.495791
0.495791
0.495791
0.495791
0.495791
0.495791
0.495791
0.495791
0.495791
0.495791
0.495791
0.495791
0.495791
0.495791
0.495791
0.495791
0.495791
0.495791
0.495791
0.495791
0.495791
0.495791
0.495791
0.495791
0.495791
0.495791
0.495791
0.495791
0.495791
0.495791
0.495791
0.495791
0.495791
0.495791
0.495791
0.495791
0.495791
0.495791
0.495791
0.495791
0.495791
0.495791
0.495791
0.495791
0.495791
0.495791
0.495791
0.495791
0.495791
0.495791
0.495791
0.49579
0.495793
0.495794
0.495796
0.495793
0.495802
0.495812
0.495825
0.495843
0.495873
0.495923
0.495995
0.496005
0.496309
0.496047
0.497428
0.49641
0.492744
0.483561
0.50076
0.47757
0.492534
0.490172
0.493064
0.494125
0.494527
0.494412
0.495258
0.495501
0.495584
0.495657
0.495721
0.495744
0.495765
0.495775
0.495779
0.495783
0.495788
0.495789
0.49579
0.49579
0.495791
0.495791
0.495791
0.495791
0.495791
0.495791
0.495791
0.495791
0.495791
0.495791
0.495791
0.495791
0.495791
0.495791
0.495791
0.495791
0.495791
0.495791
0.495791
0.495791
0.495791
0.495791
0.495791
0.495791
0.495791
0.495791
0.495791
0.495791
0.495791
0.495791
0.495791
0.495791
0.495791
0.495791
0.495791
0.495791
0.495791
0.495791
0.495791
0.495791
0.495791
0.495791
0.495791
0.495791
0.495791
0.495791
0.495791
0.495791
0.495791
0.495791
0.495791
0.495791
0.495791
0.495791
0.495791
0.495791
0.495792
0.495792
0.495791
0.495792
0.495793
0.495794
0.495796
0.4958
0.495802
0.495813
0.495825
0.495843
0.495868
0.495923
0.495995
0.496053
0.496286
0.496047
0.497428
0.497044
0.506661
0.502315
0.505965
0.486
0.492534
0.490172
0.493064
0.493939
0.494617
0.495245
0.495257
0.495544
0.495629
0.495685
0.495721
0.495758
0.495766
0.495776
0.495781
0.495785
0.495788
0.495789
0.49579
0.49579
0.495791
0.495791
0.495791
0.495791
0.495791
0.495791
0.495791
0.495791
0.495791
0.495791
0.495791
0.495791
0.495791
0.495791
0.495791
0.495791
0.495791
0.495791
0.495791
0.495791
0.495791
0.495791
0.495791
0.495791
0.495791
0.495791
0.495791
0.495791
0.495791
0.495791
0.495791
0.495791
0.495791
0.495791
0.495791
0.495791
0.495791
0.495791
0.495791
0.495791
0.495791
0.495791
0.495791
0.495791
0.495791
0.495791
0.495791
0.495791
0.495791
0.495791
0.495791
0.495791
0.495791
0.495791
0.495791
0.495791
0.495792
0.495792
0.495791
0.495792
0.495793
0.495794
0.495795
0.4958
0.495803
0.495813
0.495824
0.495842
0.495868
0.495921
0.495966
0.496079
0.49609
0.494658
0.496679
0.497044
0.506661
0.502315
0.506295
0.486
0.489211
0.490375
0.493241
0.49449
0.494617
0.495245
0.495491
0.495556
0.495638
0.495694
0.495721
0.495764
0.495768
0.495776
0.495784
0.495785
0.495786
0.49579
0.49579
0.495791
0.495791
0.495791
0.495791
0.495791
0.495791
0.495791
0.495791
0.495791
0.495791
0.495791
0.495791
0.495791
0.495791
0.495791
0.495791
0.495791
0.495791
0.495791
0.495791
0.495791
0.495791
0.495791
0.495791
0.495791
0.495791
0.495791
0.495791
0.495791
0.495791
0.495791
0.495791
0.495791
0.495791
0.495791
0.495791
0.495791
0.495791
0.495791
0.495791
0.495791
0.495791
0.495791
0.495791
0.495791
0.495791
0.495791
0.495791
0.495791
0.495791
0.495791
0.495791
0.495791
0.495791
0.495791
0.495791
0.495791
0.495792
0.495791
0.495792
0.495792
0.495793
0.495794
0.495796
0.495799
0.495803
0.495808
0.495811
0.495842
0.495752
0.495902
0.495932
0.496352
0.49609
0.497402
0.496679
0.498567
0.494648
0.471652
0.507171
0.48899
0.485365
0.490375
0.493272
0.49449
0.494617
0.495171
0.495491
0.495559
0.495638
0.495702
0.49571
0.495764
0.495769
0.495774
0.495784
0.495785
0.495789
0.49579
0.49579
0.495791
0.495791
0.495791
0.495791
0.495791
0.495791
0.495791
0.495791
0.495791
0.495791
0.495791
0.495791
0.495791
0.495791
0.495791
0.495791
0.495791
0.495791
0.495791
0.495791
0.495791
0.495791
0.495791
0.495791
0.495791
0.495791
0.495791
0.495791
0.495791
0.495791
0.495791
0.495791
0.495791
0.495791
0.495791
0.495791
0.495791
0.495791
0.495791
0.495791
0.495791
0.495791
0.495791
0.495791
0.495791
0.495791
0.495791
0.495791
0.495791
0.495791
0.495791
0.495791
0.495791
0.495791
0.495791
0.495791
0.495791
0.495792
0.495792
0.495792
0.495792
0.495793
0.495794
0.495796
0.495798
0.495803
0.49581
0.495818
0.49579
0.495863
0.495774
0.495913
0.496352
0.495725
0.497402
0.496277
0.498567
0.498455
0.492146
0.507171
0.495002
0.487361
0.490676
0.493272
0.492999
0.493214
0.495134
0.495498
0.495559
0.49564
0.495702
0.495745
0.495761
0.495771
0.495779
0.495783
0.495784
0.495789
0.495789
0.49579
0.495791
0.495791
0.495791
0.495791
0.495791
0.495791
0.495791
0.495791
0.495791
0.495791
0.495791
0.495791
0.495791
0.495791
0.495791
0.495791
0.495791
0.495791
0.495791
0.495791
0.495791
0.495791
0.495791
0.495791
0.495791
0.495791
0.495791
0.495791
0.495791
0.495791
0.495791
0.495791
0.495791
0.495791
0.495791
0.495791
0.495791
0.495791
0.495791
0.495791
0.495791
0.495791
0.495791
0.495791
0.495791
0.495791
0.495791
0.495791
0.495791
0.495791
0.495791
0.495791
0.495791
0.495791
0.495791
0.495791
0.495791
0.495792
0.495792
0.495792
0.495792
0.495793
0.495794
0.495795
0.495798
0.4958
0.49581
0.495818
0.49579
0.495863
0.495774
0.495913
0.495146
0.495725
0.495742
0.496277
0.498141
0.498455
0.492146
0.46225
0.495002
0.487361
0.490676
0.491622
0.492999
0.493214
0.494943
0.495498
0.495551
0.49564
0.495702
0.495745
0.495755
0.495771
0.495779
0.495783
0.495784
0.495788
0.495789
0.49579
0.495791
0.495791
0.495791
0.495791
0.495791
0.495791
0.495791
0.495791
0.495791
0.495791
0.495791
0.495791
0.495791
0.495791
0.495791
0.495791
0.495791
0.495791
0.495791
0.495791
0.495791
0.495791
0.495791
0.495791
0.495791
0.495791
0.495791
0.495791
0.495791
0.495791
)
;

boundaryField
{
    sides1
    {
        type            calculated;
        value           uniform 0;
    }
    sides2
    {
        type            calculated;
        value           uniform 0;
    }
    empty
    {
        type            empty;
    }
}


// ************************************************************************* //
