/*--------------------------------*- C++ -*----------------------------------*\
| =========                 |                                                 |
| \\      /  F ield         | OpenFOAM: The Open Source CFD Toolbox           |
|  \\    /   O peration     | Version:  3.0.1                                 |
|   \\  /    A nd           | Web:      www.OpenFOAM.org                      |
|    \\/     M anipulation  |                                                 |
\*---------------------------------------------------------------------------*/
FoamFile
{
    version     2.0;
    format      ascii;
    class       volScalarField;
    location    "5e-05";
    object      p;
}
// * * * * * * * * * * * * * * * * * * * * * * * * * * * * * * * * * * * * * //

dimensions      [1 -1 -2 0 0 0 0];

internalField   nonuniform List<scalar> 
1000
(
68970
68970
68970
68970
68970
68970
68970
68970
68970
68970
68970
68970
68970
68970
68970
68970
68970
68970
68970
68969.9
68969.9
68969.8
68969.8
68969.6
68969.5
68969.2
68968.8
68968.1
68967.2
68965.9
68963.8
68960.6
68955
68946.7
68934
68914.9
68887.3
68847.2
68788.8
68704.3
68584.3
68412.5
68174.8
67832.3
67394.9
66763.6
65992.6
65236.5
64841.9
67191.8
63711.9
63568.2
62876.5
62038.9
61278.3
60651
60190
59846.4
59559.7
59375.9
59245.4
59153.6
59091.4
59049
59020.8
59004.4
58993.2
58985.8
58980.9
58977.2
58974.6
58973
58972
58971.3
58970.8
58970.5
58970.3
58970.2
58970.2
58970.1
58970.1
58970
58970
58970
58970
58970
58970
58970
58970
58970
58970
58970
58970
58970
58970
58970
58970
58970
58970
58970
68970
68970
68970
68970
68970
68970
68970
68970
68970
68970
68970
68970
68970
68970
68970
68970
68970
68970
68970
68969.9
68969.9
68969.9
68969.8
68969.6
68969.5
68969.2
68968.8
68968.1
68967.2
68965.9
68963.9
68960.5
68954.8
68946.5
68934.1
68915.2
68887
68845.5
68786.1
68697.7
68568
68396.6
68174.7
67812.9
67507.6
66724.8
65888.3
64739.8
60011.8
60695.7
62938.4
63195.4
62764
61927.5
61257.1
60717.4
60214.2
59829.3
59566.7
59375.1
59242.8
59153
59091.8
59050.1
59021.5
59002.9
58992.9
58985.8
58980.9
58977.1
58974.6
58973.1
58972.1
58971.3
58970.8
58970.5
58970.3
58970.2
58970.2
58970.1
58970.1
58970
58970
58970
58970
58970
58970
58970
58970
58970
58970
58970
58970
58970
58970
58970
58970
58970
58970
58970
68970
68970
68970
68970
68970
68970
68970
68970
68970
68970
68970
68970
68970
68970
68970
68970
68970
68970
68970
68969.9
68969.9
68969.9
68969.8
68969.6
68969.5
68969.2
68968.8
68968.1
68967.2
68965.8
68963.7
68959.9
68953.9
68945.8
68934
68913.1
68881
68835.1
68775.7
68689.4
68539.3
68346.7
68120.9
67755.9
67282.6
66779.6
66206
65574.7
66674.5
63079.9
64168.4
62818.3
62730.6
61889.2
61251.8
60764.7
60325.3
59898.5
59598
59378.3
59241.4
59154.2
59095.2
59053.6
59025.1
59005.3
58994.5
58986.2
58980.8
58977
58974.6
58973.2
58972.1
58971.4
58970.8
58970.5
58970.4
58970.2
58970.1
58970.1
58970.1
58970
58970
58970
58970
58970
58970
58970
58970
58970
58970
58970
58970
58970
58970
58970
58970
58970
58970
58970
68970
68970
68970
68970
68970
68970
68970
68970
68970
68970
68970
68970
68970
68970
68970
68970
68970
68970
68970
68969.9
68969.9
68969.9
68969.8
68969.7
68969.5
68969.2
68968.8
68968.3
68967.3
68965.9
68963.9
68960.5
68954.9
68947.5
68935.1
68915.7
68885
68844
68787.8
68708.1
68571.5
68389.3
68159.7
67824.7
67368.6
67072.3
66161.3
65169.1
64532.7
63133.7
63359
63893.5
63056.7
62005
61243
60722.2
60239.1
59879.4
59586.6
59354.4
59237.2
59153.6
59093.2
59052.2
59024.5
59006.6
58994.3
58986.1
58980.6
58976.9
58974.6
58973.1
58972
58971.3
58970.9
58970.6
58970.3
58970.2
58970.2
58970.1
58970.1
58970
58970
58970
58970
58970
58970
58970
58970
58970
58970
58970
58970
58970
58970
58970
58970
58970
58970
58970
68970
68970
68970
68970
68970
68970
68970
68970
68970
68970
68970
68970
68970
68970
68970
68970
68970
68970
68970
68969.9
68969.9
68969.9
68969.8
68969.7
68969.5
68969.3
68968.9
68968.3
68967.5
68966.1
68964.2
68961
68955.4
68947.4
68936.8
68917.9
68889
68851.8
68795.1
68708.6
68588
68419.9
68181.6
67848.2
67440.3
66717.6
66242.2
65630.9
65424.1
63728.1
64653.7
63426.1
62630.2
61967.7
61221.8
60650.8
60217.5
59863.9
59569.5
59349.7
59230.7
59151
59092.5
59052.7
59024.4
59005.6
58994.3
58986.1
58980.7
58976.9
58974.5
58973
58972
58971.3
58970.9
58970.5
58970.3
58970.2
58970.2
58970.1
58970.1
58970
58970
58970
58970
58970
58970
58970
58970
58970
58970
58970
58970
58970
58970
58970
58970
58970
58970
58970
68970
68970
68970
68970
68970
68970
68970
68970
68970
68970
68970
68970
68970
68970
68970
68970
68970
68970
68970
68969.9
68969.9
68969.9
68969.8
68969.7
68969.5
68969.2
68968.8
68968.2
68967.2
68965.9
68963.8
68960.7
68955.1
68947
68936.7
68919.5
68890.6
68854.8
68798.7
68708.7
68587.3
68411.4
68153.1
67788.1
67176.3
66679.4
65798.7
64790
63572.9
63363.4
63039.7
63393
62984.4
62066.9
61275.3
60585.8
60147
59838.8
59563.7
59355.1
59221.4
59144.9
59090.5
59053.2
59023.9
59004.9
58993.7
58985.9
58980.8
58976.9
58974.4
58973
58972
58971.3
58970.8
58970.5
58970.4
58970.2
58970.2
58970.1
58970.1
58970
58970
58970
58970
58970
58970
58970
58970
58970
58970
58970
58970
58970
58970
58970
58970
58970
58970
58970
68970
68970
68970
68970
68970
68970
68970
68970
68970
68970
68970
68970
68970
68970
68970
68970
68970
68970
68970
68969.9
68969.9
68969.9
68969.8
68969.6
68969.4
68969.2
68968.7
68968.1
68967.1
68965.7
68963.6
68960.1
68954
68945.9
68935.5
68918.2
68892.3
68856.7
68798.4
68707.2
68581.1
68399.2
68150.4
67812.3
67428.1
66740.6
66001.9
64752.2
64736.9
63536.1
64076.8
63646.7
62901.7
62098.2
61312
60669.1
60172.4
59817.4
59566.5
59366.3
59232
59150.7
59094
59056.3
59026.1
59006.2
58994.4
58986.6
58981.2
58977.3
58974.6
58973.1
58972
58971.4
58970.9
58970.6
58970.4
58970.3
58970.2
58970.1
58970.1
58970
58970
58970
58970
58970
58970
58970
58970
58970
58970
58970
58970
58970
58970
58970
58970
58970
58970
58970
68970
68970
68970
68970
68970
68970
68970
68970
68970
68970
68970
68970
68970
68970
68970
68970
68970
68970
68970
68970
68969.9
68969.8
68969.7
68969.6
68969.4
68969.1
68968.6
68967.9
68966.9
68965.3
68963
68959.2
68952.9
68944.4
68932.7
68914.5
68888.7
68852.9
68790.7
68695.2
68545.7
68357.6
68103.2
67772
67294.7
66755.3
66070.7
65548.5
65805.2
63737
63992.2
63685.4
62896.7
62038.7
61325.5
60709.9
60210.4
59831.8
59585.4
59384.5
59246.7
59163.3
59103
59061.9
59030.5
59008.8
58996.3
58987.9
58982.1
58977.8
58975
58973.3
58972.2
58971.5
58971
58970.6
58970.4
58970.3
58970.2
58970.1
58970.1
58970
58970
58970
58970
58970
58970
58970
58970
58970
58970
58970
58970
58970
58970
58970
58970
58970
58970
58970
68970
68970
68970
68970
68970
68970
68970
68970
68970
68970
68970
68970
68970
68970
68970
68970
68970
68970
68969.9
68969.9
68969.9
68969.8
68969.7
68969.6
68969.4
68969.1
68968.6
68967.8
68966.7
68965
68962.4
68958.5
68952.6
68943.8
68931.1
68912.4
68885.5
68847
68786
68666.1
68544.4
68365.7
68099.2
67805.5
67306.2
66730.6
65820.4
64711.5
61068.8
61053.4
62845.1
62961.8
62430.4
61858.2
61303.3
60771.6
60206.1
59829
59582.2
59394.2
59260.9
59169
59106.1
59062.2
59031.6
59011.1
58997.5
58988.3
58982.2
58978
58975.3
58973.5
58972.3
58971.5
58971
58970.6
58970.4
58970.3
58970.2
58970.1
58970.1
58970
58970
58970
58970
58970
58970
58970
58970
58970
58970
58970
58970
58970
58970
58970
58970
58970
58970
58970
68970
68970
68970
68970
68970
68970
68970
68970
68970
68970
68970
68970
68970
68970
68970
68970
68970
68970
68970
68969.9
68969.9
68969.8
68969.7
68969.6
68969.4
68969
68968.5
68967.8
68966.6
68964.9
68962.2
68958.2
68952.3
68943.4
68930.3
68911
68882.5
68841.1
68777.1
68681.4
68549
68377.2
68169.8
67708.7
67370.8
66750.1
66106.3
65489.5
65272.4
66072.3
63831
63716.3
62853.7
62077.2
61199.3
60634.5
60192.6
59828.8
59582.8
59396.3
59264.3
59171.2
59107.2
59062.6
59032.3
59011.7
58997.8
58988.5
58982.3
58978.1
58975.4
58973.5
58972.3
58971.5
58971
58970.7
58970.4
58970.3
58970.2
58970.1
58970.1
58970.1
58970
58970
58970
58970
58970
58970
58970
58970
58970
58970
58970
58970
58970
58970
58970
58970
58970
58970
)
;

boundaryField
{
    sides1
    {
        type            zeroGradient;
    }
    sides2
    {
        type            slip;
    }
    empty
    {
        type            empty;
    }
}


// ************************************************************************* //
