/*--------------------------------*- C++ -*----------------------------------*\
| =========                 |                                                 |
| \\      /  F ield         | OpenFOAM: The Open Source CFD Toolbox           |
|  \\    /   O peration     | Version:  3.0.1                                 |
|   \\  /    A nd           | Web:      www.OpenFOAM.org                      |
|    \\/     M anipulation  |                                                 |
\*---------------------------------------------------------------------------*/
FoamFile
{
    version     2.0;
    format      ascii;
    class       surfaceScalarField;
    location    "5e-05";
    object      phi;
}
// * * * * * * * * * * * * * * * * * * * * * * * * * * * * * * * * * * * * * //

dimensions      [1 0 -1 0 0 0 0];

internalField   nonuniform List<scalar> 
1890
(
1.1669e-10
-1.07932e-10
6.02883e-10
-1.58723e-10
-4.27419e-10
3.08106e-10
-1.50761e-10
-1.11803e-10
-4.55168e-11
-6.76902e-11
3.24855e-11
-2.78801e-11
9.98463e-11
-3.06816e-11
6.80885e-11
-1.71959e-11
2.29789e-10
2.96241e-11
2.77486e-10
-1.80741e-10
4.2563e-10
-2.65042e-11
8.07583e-10
-4.19928e-11
1.32932e-09
-1.91756e-11
2.24607e-09
-6.22097e-11
3.59628e-09
-4.36709e-11
5.61444e-09
-1.34155e-11
8.68081e-09
-4.32026e-11
1.33864e-08
-1.06833e-10
2.06751e-08
-2.37643e-10
3.17977e-08
-3.33684e-10
4.91228e-08
-8.05426e-10
7.5224e-08
-7.08905e-10
1.14477e-07
-4.1804e-10
1.74058e-07
-6.24633e-10
2.64557e-07
-1.13739e-09
4.01824e-07
-1.79425e-09
6.02727e-07
-1.07823e-09
9.07751e-07
-9.61868e-10
1.35926e-06
-5.37344e-10
2.02691e-06
7.36477e-10
2.98609e-06
7.77275e-09
4.45968e-06
1.53825e-08
6.76829e-06
3.28729e-08
1.03721e-05
4.03637e-08
1.60347e-05
-4.75625e-08
2.46567e-05
-1.07815e-07
3.70773e-05
1.09108e-07
5.49827e-05
4.88604e-07
8.06274e-05
1.00037e-06
0.000116833
1.99601e-06
0.000167068
4.46286e-06
0.000237591
4.289e-06
0.000340075
9.59405e-07
0.000479174
-1.70953e-06
0.00065393
4.6605e-06
0.000886699
8.39179e-06
0.00113482
3.15247e-05
0.00127982
0.000127724
0.00138227
0.000111789
0.00222151
-1.06946e-05
0.00185195
0.000218305
0.0015887
0.000122138
0.00126967
3.80032e-05
0.000983676
2.7752e-05
0.000722126
1.50206e-05
0.000511853
6.24046e-07
0.000363817
-5.54402e-06
0.000261387
-5.626e-06
0.000179178
-1.10489e-06
0.000121227
4.71228e-07
8.06195e-05
8.34746e-07
5.33613e-05
2.16182e-07
3.54632e-05
-1.47371e-07
2.36023e-05
-1.30409e-07
1.60608e-05
-1.05297e-07
1.12854e-05
-1.78384e-07
7.56295e-06
4.79277e-08
5.05808e-06
5.9454e-09
3.31316e-06
7.50106e-09
2.12129e-06
3.19707e-08
1.36742e-06
8.47693e-09
8.99192e-07
-2.29154e-08
5.79969e-07
-1.15946e-08
3.77147e-07
-5.51346e-09
2.52513e-07
-2.97527e-09
1.70201e-07
-9.71946e-10
1.12639e-07
4.10518e-10
7.42082e-08
2.23363e-10
4.71459e-08
6.23159e-10
2.94527e-08
4.93593e-10
1.90461e-08
-6.2809e-11
1.24868e-08
-3.89526e-10
8.00134e-09
-1.09959e-10
5.26557e-09
-5.07375e-11
3.56308e-09
-4.58208e-11
2.38278e-09
-1.2397e-12
1.58725e-09
5.47167e-12
1.10592e-09
-2.83396e-12
6.41859e-10
5.92933e-11
4.10962e-10
5.54305e-11
2.46117e-10
-5.9343e-11
1.3171e-10
2.39789e-11
8.83189e-11
-4.26307e-12
5.89999e-11
-4.51175e-12
1.95327e-11
3.74725e-12
1.15375e-11
-2.44667e-12
4.43487e-11
-2.7511e-11
3.97345e-11
-4.97389e-12
-1.03099e-11
1.917e-11
-1.18267e-11
-3.36443e-10
7.28429e-11
-5.31385e-10
1.00376e-10
2.97435e-10
-6.03271e-11
1.46091e-10
9.49128e-12
3.36215e-11
4.94451e-11
3.45517e-11
-2.79487e-13
2.25083e-11
-2.86602e-12
1.24318e-10
3.18235e-11
2.01965e-10
1.55691e-11
3.91142e-10
-9.6162e-11
6.35359e-10
-1.0586e-11
9.27039e-10
8.08098e-12
1.44439e-09
-2.3972e-11
2.14639e-09
-5.93962e-11
3.32166e-09
9.05592e-12
5.36159e-09
-5.9398e-11
8.33874e-09
-1.5158e-11
1.27746e-08
-1.64804e-11
1.94069e-08
3.69232e-11
3.07695e-08
-6.95965e-10
4.68674e-08
-1.03329e-09
7.21598e-08
-1.14734e-09
1.10695e-07
-4.07266e-10
1.68713e-07
-1.99037e-10
2.57558e-07
-1.77566e-09
3.91781e-07
-2.33324e-09
5.96631e-07
-2.99747e-09
8.97094e-07
-1.29193e-09
1.33813e-06
7.95681e-09
1.99636e-06
1.05047e-08
2.93936e-06
4.27408e-08
4.32502e-06
1.30629e-07
6.49723e-06
2.26274e-07
1.00546e-05
1.42378e-07
1.55484e-05
3.21701e-08
2.34274e-05
4.42397e-07
3.48968e-05
1.27353e-06
5.17042e-05
2.44787e-06
7.7807e-05
2.46721e-06
0.000117824
1.80796e-06
0.000172419
7.67762e-06
0.000241002
1.40506e-05
0.000335196
1.3801e-05
0.000456685
1.16e-05
0.000693446
-7.91878e-06
0.000953541
-2.56262e-05
0.00137609
-9.49461e-05
0.0020401
-0.00017769
0.0011907
0.000379107
0.000973418
-0.000205633
0.00133151
-8.23628e-05
0.00142796
-0.000110762
0.00120026
7.42768e-06
0.000931552
1.56826e-05
0.000694785
4.38695e-06
0.000509113
-1.52388e-05
0.000363355
-1.92641e-05
0.000250611
-1.47803e-05
0.000172866
-6.90837e-06
0.000116851
-9.47467e-07
7.82445e-05
-2.5805e-08
5.17362e-05
-1.80909e-07
3.42478e-05
-9.05012e-07
2.28547e-05
-8.15979e-07
1.5856e-05
-8.09093e-07
1.07616e-05
-5.82148e-07
7.24447e-06
-1.08167e-07
4.90361e-06
-1.42095e-07
3.20774e-06
-1.63943e-08
2.10743e-06
1.74715e-09
1.40212e-06
-1.9779e-08
8.90405e-07
-1.62026e-08
5.64399e-07
-2.20825e-08
3.60873e-07
-1.36327e-08
2.38405e-07
-1.07602e-08
1.60386e-07
-7.01596e-09
1.07407e-07
-3.07518e-09
7.05676e-08
-9.12803e-10
4.61847e-08
2.68618e-10
2.97904e-08
4.40491e-10
1.95098e-08
-3.22997e-10
1.2354e-08
-3.41115e-10
7.67428e-09
-1.68512e-10
5.05558e-09
-2.83094e-10
3.38599e-09
-2.14134e-10
2.28027e-09
-9.0701e-11
1.54287e-09
-4.37145e-11
1.06234e-09
-2.56733e-11
9.68256e-10
-1.13406e-10
8.96622e-10
-1.35104e-10
-9.45917e-11
3.25165e-10
7.63756e-11
-2.12194e-10
5.442e-11
-3.3719e-11
4.29266e-11
-2.06666e-11
4.73565e-11
-8.74843e-12
4.90173e-11
-7.23514e-12
-6.42104e-11
2.56257e-11
-7.20653e-11
5.59032e-13
2.77636e-11
-2.90897e-11
9.28536e-12
2.13199e-10
-6.86853e-11
4.8798e-10
-8.8058e-11
4.71841e-10
-1.01517e-10
-3.22323e-10
2.85181e-10
-7.57317e-11
-1.14603e-10
2.57165e-11
-6.43749e-11
1.0814e-10
-5.51994e-11
2.25339e-10
5.02277e-11
-2.02735e-10
3.3282e-10
7.66916e-10
-4.25963e-10
7.5136e-10
1.78157e-10
9.87637e-10
6.19635e-11
1.63185e-09
-8.85397e-11
2.33198e-09
-1.89213e-11
3.71143e-09
-1.00681e-10
5.80924e-09
-1.93221e-10
9.32446e-09
-4.45428e-10
1.42943e-08
-4.99019e-10
2.1959e-08
-7.23829e-10
3.14857e-08
-7.11833e-10
4.68272e-08
-1.23292e-09
7.08128e-08
-1.42538e-09
1.118e-07
-3.17369e-09
1.74753e-07
-4.76555e-09
2.65178e-07
-5.94881e-09
4.04578e-07
-1.0396e-08
6.20446e-07
-1.76183e-08
9.37161e-07
-2.31954e-08
1.44155e-06
-3.54348e-08
2.15111e-06
-3.36519e-08
3.24429e-06
-4.9649e-08
5.08639e-06
-1.04494e-07
8.10717e-06
-2.37893e-07
1.22278e-05
-2.46055e-07
1.81389e-05
-3.1992e-07
2.75798e-05
-2.56895e-07
4.35824e-05
-1.02066e-06
6.88407e-05
-2.05762e-06
0.000103623
-3.59154e-06
0.000151026
-4.5848e-06
0.00022976
-7.59166e-06
0.000343869
-1.25672e-05
0.000485791
-1.12492e-05
0.000657751
-1.169e-05
0.00084598
-1.95994e-05
0.00100431
1.06539e-05
0.00113949
1.05434e-05
0.00114595
4.51805e-05
0.00233724
-0.000114073
0.0018991
-5.41295e-05
0.00212354
-0.000105893
0.00159947
8.82098e-05
0.00135393
-3.62533e-06
0.00111732
-1.68515e-05
0.000872529
4.54581e-07
0.000627371
9.94702e-06
0.000438296
-5.24834e-08
0.000288115
4.2068e-06
0.000190695
1.93088e-06
0.000127895
3.73729e-06
8.81383e-05
5.24379e-07
6.13357e-05
-2.77836e-07
4.07368e-05
6.7408e-07
2.7093e-05
1.57235e-07
1.79775e-05
-2.28866e-08
1.14912e-05
3.97539e-08
8.07174e-06
-1.99601e-07
5.28614e-06
4.26592e-08
3.49283e-06
4.73578e-08
2.36365e-06
1.35064e-08
1.60948e-06
-4.11103e-09
1.05982e-06
1.86601e-08
6.54354e-07
2.97467e-08
4.13725e-07
6.34979e-09
2.68298e-07
-3.12795e-09
1.73143e-07
-1.10869e-09
1.10048e-07
1.71789e-09
7.002e-08
6.73234e-10
4.67486e-08
-1.87479e-09
3.27972e-08
-1.63589e-09
2.21363e-08
-3.73034e-10
1.43418e-08
2.74685e-10
9.10501e-09
3.19204e-10
5.79579e-09
-4.64048e-11
3.74678e-09
-1.1294e-10
2.44251e-09
-3.9419e-11
1.59861e-09
-8.80613e-12
1.07882e-09
-1.75596e-11
5.33052e-10
-6.2176e-12
-2.26531e-10
1.3755e-10
9.84438e-10
-2.42775e-10
2.70641e-10
1.33058e-10
1.74863e-10
1.35507e-11
9.85921e-11
5.86763e-12
6.6915e-11
3.23073e-12
3.48621e-11
5.3258e-12
6.47663e-11
3.34874e-13
5.5379e-11
-3.59992e-13
-6.67962e-12
3.57069e-12
-1.34906e-12
-1.17038e-11
2.01822e-11
-1.18096e-10
8.08584e-11
-3.74369e-10
1.79798e-10
6.89233e-10
-1.18741e-10
4.39838e-10
1.28435e-10
2.05268e-10
1.12724e-10
-5.95837e-11
1.14185e-10
1.19436e-10
-1.93425e-11
1.05769e-09
-6.96164e-11
-2.29578e-10
-3.21412e-11
3.9585e-10
-1.8508e-10
7.08933e-10
-1.87919e-11
9.95692e-10
-6.94893e-11
1.81025e-09
-3.20229e-12
2.93613e-09
-4.89583e-11
4.64838e-09
-5.55277e-11
6.67171e-09
-1.03258e-11
1.03772e-08
-8.75063e-11
1.64353e-08
-2.35256e-10
2.49584e-08
3.85022e-10
3.73347e-08
5.53768e-10
5.88689e-08
-1.93474e-10
9.33139e-08
-1.33917e-09
1.43592e-07
-1.07623e-09
2.22844e-07
-2.67075e-09
3.39653e-07
-4.57735e-09
5.1365e-07
-7.93042e-09
7.85506e-07
-1.62097e-08
1.19642e-06
-2.52519e-08
1.82003e-06
-1.94635e-08
2.74413e-06
-4.24435e-08
4.23571e-06
-1.14103e-07
6.48559e-06
-1.26108e-07
9.87912e-06
-4.15396e-08
1.48902e-05
-1.88423e-07
2.36589e-05
-5.73389e-07
3.63386e-05
-8.1771e-07
5.50792e-05
-1.9204e-06
8.02312e-05
-1.95501e-06
0.000113196
4.17607e-08
0.000165984
-4.15709e-06
0.000243636
-9.81279e-06
0.000346042
-5.74501e-06
0.00048114
-5.70708e-06
0.000639006
-3.5201e-06
0.000981203
-4.36685e-05
0.00124062
2.25057e-06
0.00152113
3.97473e-06
0.00170953
-3.96182e-05
0.00162509
-5.87833e-05
0.00145073
-2.07876e-05
0.0015941
-7.43604e-05
0.00137074
-2.5543e-05
0.00106939
3.81728e-06
0.000817479
5.92975e-06
0.000584196
2.46427e-05
0.000382374
2.2653e-05
0.000258084
3.5818e-06
0.000172491
2.88284e-06
0.000119941
1.68597e-06
8.06581e-05
1.81557e-06
5.36702e-05
1.58886e-07
3.65135e-05
-8.56953e-08
2.4679e-05
-2.52792e-07
1.65047e-05
-3.03137e-08
1.10076e-05
1.44204e-07
7.16952e-06
-4.97226e-08
4.76849e-06
-4.34344e-08
3.2071e-06
-3.6302e-08
2.1357e-06
2.51271e-09
1.37914e-06
2.96133e-08
9.03912e-07
9.98309e-09
6.00967e-07
8.1933e-09
3.95376e-07
1.5638e-10
2.58253e-07
-3.34562e-09
1.7145e-07
-6.98065e-10
1.16638e-07
5.22019e-10
7.8993e-08
1.13353e-09
5.02201e-08
1.27382e-09
3.1581e-08
1.06776e-10
2.02554e-08
1.6172e-10
1.30893e-08
2.26446e-10
8.79939e-09
1.04184e-10
5.689e-09
5.58591e-11
3.58713e-09
1.1437e-11
2.28797e-09
-2.19317e-12
1.49955e-09
-1.10755e-11
9.76618e-10
-1.482e-11
6.29985e-10
-1.91507e-11
5.38487e-10
9.18766e-12
1.816e-10
-2.18793e-11
1.77306e-10
7.84093e-13
1.32597e-10
3.49835e-12
8.09466e-11
1.84116e-12
5.14012e-11
3.0459e-12
3.46792e-11
2.1848e-12
2.42819e-11
3.40447e-12
1.42283e-11
3.56112e-13
7.77053e-12
-3.87811e-13
4.99638e-13
4.00231e-11
-1.08185e-10
2.3606e-11
-3.09058e-11
3.08979e-10
-1.54872e-10
-7.05737e-10
2.05134e-10
-6.35404e-10
7.91104e-12
-3.4044e-10
-8.41671e-11
2.16298e-10
-1.74506e-10
5.92906e-11
1.01385e-10
1.34847e-10
1.17183e-10
2.32049e-10
-2.03288e-11
3.54257e-10
-5.1527e-11
9.83117e-10
-1.5071e-11
1.14309e-09
1.72557e-11
1.93368e-09
-2.57138e-11
3.02167e-09
1.62184e-11
4.72206e-09
2.11077e-11
7.48545e-09
-8.92491e-11
1.08544e-08
2.85108e-10
1.57006e-08
5.10023e-10
2.48371e-08
6.80321e-10
3.92597e-08
5.10593e-10
5.99992e-08
7.11293e-10
9.01139e-08
2.78711e-09
1.35856e-07
5.60335e-09
2.04893e-07
7.2814e-09
3.08647e-07
1.1041e-08
4.61732e-07
1.71544e-08
6.9083e-07
2.48713e-08
1.04563e-06
2.52896e-08
1.65864e-06
-8.133e-10
2.53171e-06
2.85048e-08
3.7241e-06
6.2196e-08
5.77363e-06
6.65647e-08
9.07304e-06
9.36578e-08
1.40301e-05
-7.12405e-08
2.15193e-05
-2.94031e-07
3.32167e-05
-4.43499e-07
4.8798e-05
-3.92548e-07
7.28868e-05
-8.51295e-07
0.000110269
1.15259e-07
0.000158148
6.90362e-07
0.000222024
1.23601e-06
0.000318598
5.57414e-06
0.000444001
1.07574e-05
0.000629554
2.69503e-06
0.000732101
4.48433e-05
0.000956257
5.39771e-05
0.00126734
4.32483e-05
0.00173733
-0.000102625
0.0017261
2.57304e-05
0.00189283
-4.02244e-05
0.00158529
7.20483e-06
0.0011332
3.31674e-05
0.000875999
-2.18045e-05
0.000655103
-1.11248e-05
0.000480446
1.04393e-05
0.000359904
5.89546e-06
0.000241587
6.46331e-06
0.000163
1.6466e-06
0.000115688
-8.62113e-07
8.1337e-05
1.28167e-06
5.43339e-05
2.12704e-06
3.65581e-05
1.72023e-07
2.43884e-05
-1.55712e-07
1.62389e-05
1.11877e-07
1.10046e-05
1.53976e-07
7.29304e-06
6.70581e-08
4.74947e-06
2.41676e-08
3.11189e-06
-3.96079e-08
2.05868e-06
-6.87696e-09
1.38205e-06
1.57739e-08
9.08561e-07
1.33332e-08
5.99173e-07
3.79813e-09
3.90966e-07
-1.69872e-09
2.44021e-07
5.23077e-09
1.521e-07
2.85256e-09
1.02028e-07
-4.14196e-09
7.01207e-08
-2.99097e-09
4.5351e-08
1.34262e-09
2.78367e-08
1.11034e-09
1.76582e-08
-1.40934e-10
1.19965e-08
-5.63418e-10
8.20272e-09
-3.87863e-10
5.29141e-09
3.86665e-11
3.29631e-09
6.49571e-11
1.99836e-09
2.10004e-11
1.37661e-09
-1.22215e-10
9.51691e-10
-1.139e-10
6.13939e-10
-1.9185e-11
4.31744e-10
-2.3066e-11
2.85527e-10
-2.1825e-11
1.3931e-10
2.41255e-11
1.27443e-10
-2.4175e-11
7.43705e-11
9.67428e-12
4.59193e-11
3.28678e-12
2.92128e-11
9.64292e-13
2.07751e-11
1.08248e-12
1.21181e-11
5.59519e-13
4.8883e-12
4.77905e-13
1.31068e-13
-8.47425e-11
-2.58552e-11
-1.97344e-11
-3.4478e-11
-9.88576e-11
-1.1143e-11
2.53531e-10
7.53144e-11
4.69375e-10
-4.18096e-11
3.18761e-10
4.72617e-11
-1.79858e-11
1.11778e-11
3.35799e-10
-2.81477e-11
4.50457e-10
8.64103e-11
4.05041e-10
3.96757e-11
4.58663e-10
-9.19244e-12
8.7539e-10
-4.18662e-11
1.21968e-09
-4.73424e-11
1.64447e-09
1.39093e-10
2.8946e-09
-4.39029e-11
4.5232e-09
2.20467e-10
6.73789e-09
4.21883e-10
1.1006e-08
5.90756e-10
1.7253e-08
1.00242e-09
2.5932e-08
1.09555e-09
3.92179e-08
1.68787e-09
6.04875e-08
2.1184e-09
9.52311e-08
5.29622e-09
1.52832e-07
6.69267e-09
2.33735e-07
1.06839e-08
3.56217e-07
1.56425e-08
5.40496e-07
2.34445e-08
8.17811e-07
3.28916e-08
1.20239e-06
4.85179e-08
1.72758e-06
7.47467e-08
2.62269e-06
5.86743e-08
3.9581e-06
1.5431e-07
6.19669e-06
1.389e-07
9.56835e-06
2.46969e-07
1.42685e-05
1.97399e-07
2.13427e-05
1.95374e-07
3.31328e-05
-5.40677e-07
5.01175e-05
-8.52972e-07
7.39694e-05
-1.61785e-07
0.000111382
2.1289e-07
0.000163671
1.1928e-06
0.000236283
4.56018e-06
0.000351775
1.88396e-06
0.000518599
-3.30432e-06
0.000684367
8.89043e-07
0.00100488
-1.94367e-05
0.00134823
-6.53691e-06
0.00163293
-4.04546e-06
0.00165153
-9.12422e-05
0.00175849
-3.92158e-05
0.00155298
3.65977e-05
0.00141052
-3.98276e-05
0.00118459
-2.17712e-05
0.000873661
-1.82513e-05
0.000631941
-1.95468e-05
0.000476888
-1.6937e-05
0.000340647
-1.17028e-06
0.000234085
3.23566e-06
0.000154801
6.25881e-07
0.000103571
-1.41641e-06
7.32199e-05
-2.06186e-06
5.13188e-05
-4.36879e-07
3.47006e-05
-6.23763e-07
2.26152e-05
-3.99105e-07
1.50138e-05
-2.73928e-07
1.03291e-05
-2.76305e-07
6.91778e-06
-8.2178e-08
4.59967e-06
-1.01045e-07
2.9389e-06
-6.37505e-08
1.8952e-06
-4.33266e-08
1.28476e-06
-4.69613e-08
8.51019e-07
-1.50001e-08
5.62649e-07
-1.78112e-08
3.61748e-07
-1.10039e-08
2.36414e-07
-4.06481e-09
1.58987e-07
-4.32499e-09
1.00767e-07
-4.19088e-09
6.26545e-08
-3.19982e-09
4.12115e-08
-1.52559e-09
2.86163e-08
-2.02499e-09
1.91218e-08
-1.31547e-09
1.23573e-08
-8.69958e-10
7.74911e-09
-5.04785e-10
5.03823e-09
-2.13592e-10
3.47112e-09
-2.77611e-10
2.59119e-09
-2.32874e-10
1.69865e-09
-2.04957e-10
7.84752e-10
5.00635e-13
5.6817e-10
-7.07978e-11
3.62699e-10
-8.67959e-11
2.00707e-10
-2.94782e-11
2.44643e-10
-5.00346e-11
4.65409e-11
3.55006e-11
4.64587e-11
-2.18534e-11
3.71017e-11
-1.28713e-11
2.70809e-11
-6.20965e-12
1.64377e-11
-1.39676e-12
9.59613e-12
-8.97338e-13
4.58205e-12
-6.18654e-13
-4.44198e-13
1.20805e-10
-1.97308e-11
-1.00918e-10
1.02131e-10
2.16854e-10
-1.38546e-10
2.49407e-10
1.01344e-10
7.89685e-11
7.31311e-11
1.59534e-10
8.55207e-13
1.63283e-10
-1.82558e-11
1.6629e-10
-4.80585e-11
2.57657e-11
1.25216e-10
2.57797e-10
-1.7831e-12
4.17542e-10
7.37732e-11
4.59984e-10
1.30312e-10
9.40365e-10
9.09477e-11
2.1326e-09
9.51634e-11
3.16922e-09
7.47122e-11
5.08341e-09
1.6127e-10
8.29003e-09
1.09526e-10
1.33602e-08
-1.92917e-10
2.18941e-08
-9.47823e-10
2.27797e-08
5.91684e-09
3.94231e-08
3.29293e-10
6.41416e-08
1.8093e-09
1.05014e-07
4.10993e-09
1.71753e-07
4.5919e-09
2.66377e-07
9.1159e-09
4.06245e-07
1.52191e-08
6.16544e-07
2.3749e-08
9.2457e-07
3.82977e-08
1.38627e-06
5.88359e-08
2.05145e-06
1.05846e-07
2.98144e-06
1.44122e-07
4.54068e-06
1.49751e-07
7.007e-06
1.97906e-07
1.06749e-05
3.59242e-07
1.54815e-05
6.6064e-07
2.2721e-05
8.13413e-07
3.29598e-05
8.33096e-07
4.79368e-05
8.64863e-07
7.17164e-05
9.94774e-07
0.000105331
4.54991e-06
0.000156177
5.48947e-06
0.000232216
8.49477e-06
0.000334963
9.84e-06
0.000479984
4.39005e-06
0.00072474
-1.67972e-05
0.000973256
-1.29921e-05
0.00131362
-4.31445e-05
0.00144972
2.66353e-05
0.00179839
-9.66403e-05
0.0017845
-4.03967e-05
0.00186763
1.05132e-05
0.00168039
4.97232e-06
0.00133438
2.30157e-05
0.000995554
1.39188e-05
0.00070602
-9.2755e-07
0.000505926
-1.75054e-05
0.000357283
-5.38028e-06
0.000246242
-9.81082e-07
0.000168363
-3.61033e-06
0.000113503
-1.95049e-06
7.7093e-05
-2.66811e-06
5.32673e-05
-2.51072e-06
3.6133e-05
-1.99456e-06
2.39395e-05
-1.23493e-06
1.58221e-05
-6.73591e-07
1.05305e-05
-5.04853e-07
7.12177e-06
-4.29596e-07
4.78273e-06
-3.07511e-07
3.13941e-06
-2.04737e-07
2.04247e-06
-9.75494e-08
1.33998e-06
-7.50154e-08
9.02039e-07
-6.337e-08
6.00335e-07
-4.4317e-08
3.90457e-07
-2.74978e-08
2.58286e-07
-1.38407e-08
1.81211e-07
-1.49065e-08
1.19171e-07
-4.29378e-09
7.64709e-08
-1.92566e-09
5.19124e-08
-3.3012e-09
3.49095e-08
-2.28301e-09
2.282e-08
-9.53573e-10
1.46294e-08
-4.33893e-10
9.24767e-09
-2.46644e-10
6.1871e-09
-3.83203e-10
4.00653e-09
-2.50095e-10
2.70604e-09
-1.94586e-10
1.58547e-09
-5.25963e-11
1.1926e-09
3.79674e-11
9.67043e-10
-8.88436e-11
5.66591e-10
1.40916e-11
3.55418e-10
1.30404e-11
1.52488e-10
-1.48731e-11
1.7429e-10
5.5618e-12
1.15752e-10
-3.25543e-12
6.86531e-11
-3.52992e-12
3.738e-11
3.1073e-12
2.20279e-11
5.63825e-13
1.253e-11
-4.47755e-13
5.76752e-12
-5.16724e-13
-2.69566e-13
-1.41915e-11
6.46192e-12
1.97202e-10
-5.52989e-11
-2.65436e-10
5.01387e-12
-1.83072e-10
-2.23947e-11
-3.61901e-11
-2.62963e-11
-1.50926e-11
2.94936e-12
1.06078e-10
-1.73308e-11
3.64363e-11
1.00228e-11
4.10054e-10
1.90584e-11
4.98323e-10
4.00005e-11
7.69775e-10
4.47358e-11
1.18062e-09
6.12459e-11
1.6928e-09
1.08507e-10
2.35487e-09
1.77071e-10
3.74792e-09
8.60393e-11
5.83312e-09
2.02737e-10
8.48168e-09
5.54991e-10
1.13145e-08
1.36396e-09
1.36828e-08
2.89719e-09
4.71057e-08
-3.87329e-09
5.99206e-08
4.3318e-09
8.50121e-08
2.88077e-09
1.31445e-07
8.8439e-10
2.01095e-07
8.75569e-10
3.07096e-07
3.05118e-09
4.67504e-07
5.81955e-09
7.08508e-07
1.06234e-08
1.07025e-06
1.89833e-08
1.63547e-06
2.43441e-08
2.44591e-06
6.15106e-08
3.5903e-06
1.29093e-07
5.30401e-06
1.55122e-07
8.13538e-06
8.20375e-08
1.24007e-05
1.40721e-07
1.85125e-05
3.74799e-07
2.7396e-05
4.95897e-07
3.98748e-05
7.62978e-07
5.70075e-05
1.42954e-06
8.26343e-05
1.71186e-06
0.000130781
-6.03761e-07
0.000196966
1.56784e-06
0.000294907
-1.56836e-06
0.000421053
-1.74953e-06
0.000573944
2.94199e-06
0.0007362
7.32827e-07
0.000940743
2.23393e-05
0.00109024
6.08405e-05
0.00131157
0.000126576
0.00210733
-0.0002704
0.001867
0.000139026
0.00179005
0.000122465
0.00168586
1.46404e-05
0.00142825
1.7652e-05
0.00111459
3.22018e-05
0.000831252
2.00875e-05
0.000572042
1.75556e-05
0.000404976
1.4802e-06
0.000285274
9.10449e-07
0.000194249
1.04758e-06
0.000134918
-1.81442e-06
9.52845e-05
-3.31946e-06
6.63716e-05
-1.85833e-06
4.46662e-05
-6.34615e-07
2.928e-05
3.51931e-10
1.95323e-05
-2.5966e-07
1.34059e-05
-4.84125e-07
9.04475e-06
-2.49899e-07
6.00385e-06
-1.08816e-07
3.86042e-06
-1.0502e-08
2.53192e-06
-3.39522e-08
1.71714e-06
-6.56285e-08
1.14398e-06
-3.43602e-08
7.47075e-07
-1.29185e-08
4.74883e-07
-2.86465e-09
3.10979e-07
-7.2484e-09
2.00053e-07
-6.47835e-09
1.33351e-07
-4.04302e-09
9.06872e-08
-2.79646e-09
5.92416e-08
-9.26739e-10
3.82873e-08
-5.38389e-10
2.50741e-08
-3.0514e-10
1.6549e-08
-1.54022e-10
1.10726e-08
-1.38909e-10
7.17491e-09
-3.87764e-11
4.60654e-09
-1.55032e-11
2.83952e-09
3.49216e-12
1.80137e-09
3.97827e-12
1.39076e-09
-2.38451e-11
8.23993e-10
1.17704e-11
5.09073e-10
4.28302e-11
3.60652e-10
-5.37629e-12
1.98504e-10
4.01284e-12
2.02801e-10
-1.58225e-11
1.19289e-10
9.62814e-12
4.79375e-11
1.69582e-11
3.49048e-11
-4.08548e-12
2.28498e-11
-6.72126e-13
1.34741e-11
-5.03451e-13
5.94788e-12
-9.51522e-14
-1.97164e-13
1.43053e-10
-3.05077e-11
6.32354e-11
2.97868e-11
4.50458e-11
-7.59794e-12
2.20263e-11
1.07378e-12
2.53851e-11
-2.43263e-12
7.32425e-11
-4.80138e-12
1.06642e-10
1.54328e-12
1.71407e-10
-3.0675e-12
3.19262e-10
2.14844e-11
4.95361e-10
9.45968e-12
7.47926e-10
1.5837e-11
1.22241e-09
-1.03805e-11
1.90868e-09
-1.20789e-11
2.35811e-09
2.08224e-10
4.24391e-09
-1.06541e-10
6.68289e-09
5.02966e-11
1.06564e-08
3.49592e-11
1.77931e-08
-2.38874e-10
2.91245e-08
-5.17995e-10
2.75347e-08
1.62376e-09
5.18964e-08
1.8785e-11
8.24763e-08
9.25604e-10
1.26767e-07
7.75342e-10
1.9381e-07
1.25593e-09
2.96908e-07
2.44295e-09
4.54413e-07
4.07796e-09
6.94943e-07
6.50154e-09
1.05979e-06
1.13268e-08
1.59736e-06
2.04758e-08
2.44173e-06
3.18004e-08
3.74464e-06
5.24367e-08
5.68051e-06
7.08347e-08
8.47508e-06
7.96011e-08
1.26647e-05
1.12469e-07
1.89493e-05
2.12563e-07
2.79819e-05
4.13849e-07
4.09231e-05
7.84302e-07
5.94785e-05
1.53433e-06
8.84156e-05
1.32377e-06
0.000126561
6.90132e-07
0.000197982
-4.75595e-06
0.000286932
-3.73369e-06
0.000387829
6.08454e-06
0.000560451
-7.1038e-06
0.000763122
-9.22441e-06
0.00108153
-2.97507e-05
0.00151691
-7.11373e-05
0.00220768
-0.00019016
0.0014768
1.94263e-05
0.00101777
0.000242198
0.00145056
-0.000245995
0.00139996
-6.61569e-05
0.00115858
-2.5607e-05
0.000928251
-1.82927e-05
0.000738967
-2.41374e-05
0.000569143
-2.45879e-06
0.00040577
5.63388e-06
0.000289133
-1.85393e-07
0.000204091
-7.88013e-09
0.000142003
-8.57445e-07
9.66597e-05
-9.19348e-07
6.52473e-05
-5.74607e-07
4.40462e-05
-2.77736e-07
2.99424e-05
-1.70809e-07
2.01973e-05
-1.7896e-07
1.33883e-05
-1.64088e-07
8.88957e-06
-1.04315e-07
5.85245e-06
-4.29495e-08
3.9087e-06
-3.38204e-08
2.60529e-06
-3.2369e-08
1.70531e-06
-2.57254e-08
1.11532e-06
-1.51211e-08
7.31743e-07
-7.70686e-09
4.82448e-07
-4.00085e-09
3.14908e-07
-3.67788e-09
2.05824e-07
-3.41515e-09
1.34576e-07
-2.31879e-09
8.68972e-08
-9.05588e-10
5.77521e-08
-1.05475e-09
3.75168e-08
-2.09933e-11
2.44849e-08
-1.55828e-10
1.60312e-08
-9.79123e-11
1.0406e-08
-3.64828e-11
6.77485e-09
-1.26268e-11
4.41934e-09
-1.25127e-11
2.88887e-09
-9.36277e-12
1.90044e-09
-4.92959e-12
1.09289e-09
2.98503e-11
6.62412e-10
7.75416e-12
5.55856e-10
-3.50594e-11
3.45619e-10
1.48663e-11
2.43992e-10
9.7361e-13
1.16482e-10
9.60052e-12
5.24083e-11
4.73146e-12
6.92483e-11
-6.30705e-12
3.68308e-11
1.94834e-12
2.39035e-11
-4.32767e-13
1.34802e-11
1.49602e-13
6.26028e-12
1.23079e-15
-5.93275e-15
-9.99356e-11
-3.47086e-11
1.03366e-11
2.35396e-11
4.49812e-11
6.75335e-11
1.16173e-10
1.80183e-10
3.02909e-10
4.72758e-10
7.45032e-10
1.11735e-09
1.66574e-09
3.03385e-09
4.15212e-09
6.45514e-09
9.95143e-09
1.50386e-08
2.23951e-08
3.62817e-08
5.55888e-08
8.57292e-08
1.31249e-07
2.00854e-07
3.07649e-07
4.70459e-07
7.17628e-07
1.09442e-06
1.66822e-06
2.53824e-06
3.85517e-06
5.82508e-06
8.75173e-06
1.31064e-05
1.95908e-05
2.92714e-05
4.35132e-05
6.4657e-05
9.50707e-05
0.000138519
0.000193036
0.000273802
0.000409331
0.000522845
0.000724726
0.000923525
0.00111205
0.00116495
0.00141994
0.0022263
0.00187626
0.00166528
0.00137777
0.00109366
0.000779427
0.000556723
0.000409341
0.000290955
0.000204855
0.000141965
9.74167e-05
6.6295e-05
4.50189e-05
3.03724e-05
2.03996e-05
1.36288e-05
9.06978e-06
6.03589e-06
4.00459e-06
2.64597e-06
1.74087e-06
1.14466e-06
7.5158e-07
4.93938e-07
3.23608e-07
2.11157e-07
1.37447e-07
9.03178e-08
5.72584e-08
3.78458e-08
2.46184e-08
1.60335e-08
1.04565e-08
6.83379e-09
4.45354e-09
2.90009e-09
1.88739e-09
1.25081e-09
8.48956e-10
4.74177e-10
3.09554e-10
1.94705e-10
1.37462e-10
9.32975e-11
5.80669e-11
3.81165e-11
2.29192e-11
1.32946e-11
6.0712e-12
)
;

boundaryField
{
    sides1
    {
        type            calculated;
        value           nonuniform List<scalar> 
20
(
2.60156e-14
2.74277e-14
3.30829e-14
4.176e-14
4.48652e-14
3.17454e-14
3.45609e-14
2.93914e-14
2.53686e-14
2.40363e-14
-2.16459e-14
-2.08063e-14
-2.0723e-14
-2.07681e-14
-2.1174e-14
-2.13926e-14
-2.05912e-14
-2.01054e-14
-1.97863e-14
-2.02893e-14
)
;
    }
    sides2
    {
        type            calculated;
        value           uniform 0;
    }
    empty
    {
        type            empty;
        value           nonuniform 0();
    }
}


// ************************************************************************* //
