/*--------------------------------*- C++ -*----------------------------------*\
| =========                 |                                                 |
| \\      /  F ield         | OpenFOAM: The Open Source CFD Toolbox           |
|  \\    /   O peration     | Version:  3.0.1                                 |
|   \\  /    A nd           | Web:      www.OpenFOAM.org                      |
|    \\/     M anipulation  |                                                 |
\*---------------------------------------------------------------------------*/
FoamFile
{
    version     2.0;
    format      ascii;
    class       volScalarField;
    location    "5e-05";
    object      rho;
}
// * * * * * * * * * * * * * * * * * * * * * * * * * * * * * * * * * * * * * //

dimensions      [1 -3 0 0 0 0 0];

internalField   nonuniform List<scalar> 
1000
(
0.83124
0.83124
0.83124
0.83124
0.83124
0.83124
0.83124
0.83124
0.83124
0.83124
0.83124
0.83124
0.83124
0.83124
0.83124
0.83124
0.83124
0.83124
0.831239
0.831239
0.831239
0.831238
0.831237
0.831236
0.831233
0.83123
0.831225
0.831218
0.831207
0.831191
0.831168
0.831129
0.831065
0.830966
0.830816
0.830593
0.830277
0.82981
0.829138
0.828172
0.826758
0.824914
0.822192
0.818621
0.813698
0.806956
0.79913
0.791302
0.781878
0.723591
0.770077
0.755684
0.751034
0.742614
0.736259
0.730359
0.724467
0.720097
0.717636
0.715398
0.713898
0.71285
0.712126
0.711645
0.711307
0.711098
0.710994
0.710904
0.710846
0.710803
0.710772
0.710754
0.710742
0.710733
0.710727
0.710724
0.710722
0.710721
0.71072
0.710719
0.710719
0.710718
0.710718
0.710718
0.710718
0.710718
0.710718
0.710718
0.710718
0.710718
0.710718
0.710718
0.710718
0.710718
0.710718
0.710718
0.710718
0.710718
0.710718
0.710718
0.83124
0.83124
0.83124
0.83124
0.83124
0.83124
0.83124
0.83124
0.83124
0.83124
0.83124
0.83124
0.83124
0.83124
0.83124
0.83124
0.83124
0.83124
0.831239
0.831239
0.831239
0.831238
0.831237
0.831236
0.831234
0.83123
0.831225
0.831218
0.831207
0.831191
0.831167
0.831128
0.831063
0.830965
0.830819
0.830599
0.830271
0.829787
0.829079
0.82807
0.826563
0.824708
0.822018
0.818942
0.810936
0.807756
0.797959
0.785537
0.836573
0.808915
0.756775
0.754243
0.749506
0.743064
0.73579
0.729548
0.724745
0.720982
0.717623
0.715382
0.713872
0.712839
0.712139
0.711651
0.711311
0.711135
0.710995
0.710904
0.710845
0.710801
0.710772
0.710755
0.710742
0.710733
0.710727
0.710724
0.710722
0.710721
0.71072
0.710719
0.710719
0.710718
0.710718
0.710718
0.710718
0.710718
0.710718
0.710718
0.710718
0.710718
0.710718
0.710718
0.710718
0.710718
0.710718
0.710718
0.710718
0.710718
0.710718
0.710718
0.83124
0.83124
0.83124
0.83124
0.83124
0.83124
0.83124
0.83124
0.83124
0.83124
0.83124
0.83124
0.83124
0.83124
0.83124
0.83124
0.83124
0.83124
0.831239
0.831239
0.831239
0.831238
0.831237
0.831236
0.831234
0.83123
0.831225
0.831218
0.831206
0.831191
0.831165
0.83112
0.83105
0.83096
0.830819
0.830577
0.830198
0.829652
0.829002
0.827994
0.826185
0.8241
0.821372
0.818029
0.814226
0.809913
0.801763
0.794417
0.749221
0.800463
0.747162
0.767118
0.749324
0.742121
0.735761
0.730734
0.725416
0.7216
0.717962
0.715429
0.713857
0.712842
0.712195
0.711694
0.711356
0.711162
0.710985
0.710912
0.710846
0.710801
0.710772
0.710756
0.710744
0.710734
0.710728
0.710724
0.710722
0.710721
0.71072
0.710719
0.710719
0.710718
0.710718
0.710718
0.710718
0.710718
0.710718
0.710718
0.710718
0.710718
0.710718
0.710718
0.710718
0.710718
0.710718
0.710718
0.710718
0.710718
0.710718
0.710718
0.83124
0.83124
0.83124
0.83124
0.83124
0.83124
0.83124
0.83124
0.83124
0.83124
0.83124
0.83124
0.83124
0.83124
0.83124
0.83124
0.83124
0.83124
0.831239
0.831239
0.831239
0.831238
0.831237
0.831236
0.831234
0.831231
0.831226
0.831219
0.831209
0.831192
0.83117
0.831128
0.831062
0.830967
0.830846
0.830594
0.830251
0.829775
0.82913
0.828223
0.826677
0.824588
0.822
0.818564
0.814418
0.803551
0.801056
0.793743
0.778958
0.786971
0.766956
0.746142
0.748426
0.742862
0.735643
0.730708
0.726126
0.721229
0.717743
0.715226
0.713801
0.712838
0.712132
0.711673
0.711352
0.711134
0.710999
0.710906
0.710842
0.710799
0.710772
0.710754
0.710742
0.710734
0.710728
0.710724
0.710722
0.710721
0.71072
0.710719
0.710719
0.710718
0.710718
0.710718
0.710718
0.710718
0.710718
0.710718
0.710718
0.710718
0.710718
0.710718
0.710718
0.710718
0.710718
0.710718
0.710718
0.710718
0.710718
0.710718
0.83124
0.83124
0.83124
0.83124
0.83124
0.83124
0.83124
0.83124
0.83124
0.83124
0.83124
0.83124
0.83124
0.83124
0.83124
0.83124
0.83124
0.83124
0.831239
0.831239
0.831239
0.831238
0.831237
0.831236
0.831234
0.831231
0.831227
0.83122
0.831209
0.831192
0.831168
0.831135
0.831069
0.830975
0.830843
0.830633
0.830298
0.829871
0.829218
0.828222
0.826856
0.824949
0.822092
0.818555
0.813222
0.810171
0.79936
0.786134
0.769052
0.775761
0.75058
0.759819
0.757494
0.742969
0.735342
0.72911
0.723735
0.720715
0.717523
0.714996
0.713666
0.712797
0.712126
0.711677
0.71135
0.711129
0.710999
0.710907
0.710843
0.710799
0.71077
0.710753
0.710741
0.710733
0.710728
0.710724
0.710722
0.710721
0.71072
0.710719
0.710719
0.710718
0.710718
0.710718
0.710718
0.710718
0.710718
0.710718
0.710718
0.710718
0.710718
0.710718
0.710718
0.710718
0.710718
0.710718
0.710718
0.710718
0.710718
0.710718
0.83124
0.83124
0.83124
0.83124
0.83124
0.83124
0.83124
0.83124
0.83124
0.83124
0.83124
0.83124
0.83124
0.83124
0.83124
0.83124
0.83124
0.83124
0.831239
0.831239
0.831239
0.831238
0.831237
0.831236
0.831234
0.831231
0.831226
0.831219
0.831209
0.831195
0.83117
0.831131
0.831065
0.830971
0.830855
0.830649
0.83032
0.82991
0.829262
0.828219
0.826851
0.824879
0.821825
0.81781
0.815123
0.805725
0.798896
0.79387
0.794847
0.777975
0.769569
0.757613
0.750496
0.743927
0.735742
0.728739
0.724177
0.720412
0.717498
0.715108
0.71359
0.712735
0.712116
0.711684
0.711345
0.711122
0.710994
0.710905
0.710845
0.710799
0.710769
0.710753
0.710741
0.710733
0.710728
0.710724
0.710722
0.710721
0.71072
0.710719
0.710719
0.710718
0.710718
0.710718
0.710718
0.710718
0.710718
0.710718
0.710718
0.710718
0.710718
0.710718
0.710718
0.710718
0.710718
0.710718
0.710718
0.710718
0.710718
0.710718
0.83124
0.83124
0.83124
0.83124
0.83124
0.83124
0.83124
0.83124
0.83124
0.83124
0.83124
0.83124
0.83124
0.83124
0.83124
0.83124
0.83124
0.83124
0.831239
0.831239
0.831239
0.831238
0.831237
0.831235
0.831233
0.83123
0.831225
0.831217
0.831205
0.831188
0.831164
0.831124
0.831051
0.830956
0.830838
0.830635
0.830337
0.829924
0.829257
0.8282
0.826754
0.824623
0.821816
0.81778
0.810799
0.805812
0.797478
0.798722
0.773501
0.781963
0.757014
0.754617
0.752291
0.74457
0.737232
0.729464
0.72436
0.72058
0.71756
0.715271
0.713729
0.712788
0.712169
0.711724
0.711373
0.711141
0.711003
0.71091
0.710851
0.710803
0.710772
0.710754
0.710742
0.710734
0.710728
0.710724
0.710722
0.710721
0.71072
0.710719
0.710719
0.710718
0.710718
0.710718
0.710718
0.710718
0.710718
0.710718
0.710718
0.710718
0.710718
0.710718
0.710718
0.710718
0.710718
0.710718
0.710718
0.710718
0.710718
0.710718
0.83124
0.83124
0.83124
0.83124
0.83124
0.83124
0.83124
0.83124
0.83124
0.83124
0.83124
0.83124
0.83124
0.83124
0.83124
0.83124
0.83124
0.83124
0.831239
0.831238
0.831239
0.831238
0.831237
0.831235
0.831233
0.831229
0.831223
0.831215
0.831201
0.831184
0.831157
0.831113
0.831039
0.830939
0.830802
0.83059
0.830288
0.829862
0.829168
0.827863
0.826275
0.824083
0.821543
0.817857
0.814025
0.806843
0.800919
0.788182
0.754483
0.785122
0.758565
0.751408
0.749763
0.743881
0.736648
0.730983
0.724731
0.720668
0.717796
0.715492
0.713923
0.71293
0.712282
0.711793
0.711423
0.711177
0.71103
0.710928
0.710861
0.710811
0.710777
0.710758
0.710744
0.710736
0.710729
0.710725
0.710723
0.710721
0.71072
0.710719
0.710719
0.710719
0.710718
0.710718
0.710718
0.710718
0.710718
0.710718
0.710718
0.710718
0.710718
0.710718
0.710718
0.710718
0.710718
0.710718
0.710718
0.710718
0.710718
0.710718
0.83124
0.83124
0.83124
0.83124
0.83124
0.83124
0.83124
0.83124
0.83124
0.83124
0.83124
0.83124
0.83124
0.83124
0.83124
0.83124
0.83124
0.831239
0.831239
0.83124
0.831238
0.831238
0.831237
0.831235
0.831233
0.831229
0.831223
0.831214
0.831201
0.831181
0.83115
0.831104
0.831034
0.830931
0.830782
0.830565
0.830251
0.829798
0.829019
0.828107
0.826082
0.824158
0.82194
0.817095
0.813141
0.805038
0.797512
0.784584
0.827106
0.805283
0.756573
0.753941
0.751258
0.742898
0.734678
0.728624
0.72464
0.72064
0.71776
0.715611
0.714094
0.71305
0.712311
0.711798
0.711443
0.711201
0.71104
0.710936
0.710862
0.710813
0.71078
0.710759
0.710745
0.710736
0.71073
0.710726
0.710723
0.710721
0.71072
0.710719
0.710719
0.710719
0.710718
0.710718
0.710718
0.710718
0.710718
0.710718
0.710718
0.710718
0.710718
0.710718
0.710718
0.710718
0.710718
0.710718
0.710718
0.710718
0.710718
0.710718
0.83124
0.83124
0.83124
0.83124
0.83124
0.83124
0.83124
0.83124
0.83124
0.83124
0.83124
0.83124
0.83124
0.83124
0.83124
0.83124
0.83124
0.831239
0.831239
0.831239
0.831239
0.831238
0.831237
0.831235
0.831232
0.831229
0.831223
0.831214
0.8312
0.831179
0.831148
0.831101
0.831031
0.830926
0.830772
0.830544
0.830218
0.829734
0.828983
0.827881
0.82648
0.824314
0.820525
0.819961
0.811885
0.807619
0.800501
0.793533
0.780892
0.742444
0.76808
0.754863
0.749709
0.741875
0.738542
0.730697
0.724212
0.720667
0.717755
0.715668
0.714138
0.713076
0.71232
0.71181
0.711451
0.711209
0.711047
0.710937
0.710864
0.710814
0.710782
0.71076
0.710746
0.710736
0.71073
0.710726
0.710723
0.710721
0.71072
0.710719
0.710719
0.710719
0.710718
0.710718
0.710718
0.710718
0.710718
0.710718
0.710718
0.710718
0.710718
0.710718
0.710718
0.710718
0.710718
0.710718
0.710718
0.710718
0.710718
0.710718
)
;

boundaryField
{
    sides1
    {
        type            calculated;
        value           nonuniform List<scalar> 
20
(
0.710718
0.710718
0.710718
0.710718
0.710718
0.710718
0.710718
0.710718
0.710718
0.710718
0.83124
0.83124
0.83124
0.83124
0.83124
0.83124
0.83124
0.83124
0.83124
0.83124
)
;
    }
    sides2
    {
        type            calculated;
        value           nonuniform List<scalar> 
200
(
0.83124
0.83124
0.83124
0.83124
0.83124
0.83124
0.83124
0.83124
0.83124
0.83124
0.83124
0.83124
0.83124
0.83124
0.83124
0.83124
0.83124
0.83124
0.831239
0.831239
0.831239
0.831238
0.831237
0.831236
0.831233
0.83123
0.831225
0.831218
0.831207
0.831191
0.831168
0.831129
0.831065
0.830966
0.830816
0.830593
0.830277
0.82981
0.829138
0.828172
0.826758
0.824914
0.822192
0.818621
0.813698
0.806956
0.79913
0.791302
0.781878
0.723591
0.770077
0.755684
0.751034
0.742614
0.736259
0.730359
0.724467
0.720097
0.717636
0.715398
0.713898
0.71285
0.712126
0.711645
0.711307
0.711098
0.710994
0.710904
0.710846
0.710803
0.710772
0.710754
0.710742
0.710733
0.710727
0.710724
0.710722
0.710721
0.71072
0.710719
0.710719
0.710718
0.710718
0.710718
0.710718
0.710718
0.710718
0.710718
0.710718
0.710718
0.710718
0.710718
0.710718
0.710718
0.710718
0.710718
0.710718
0.710718
0.710718
0.710718
0.83124
0.83124
0.83124
0.83124
0.83124
0.83124
0.83124
0.83124
0.83124
0.83124
0.83124
0.83124
0.83124
0.83124
0.83124
0.83124
0.83124
0.831239
0.831239
0.831239
0.831239
0.831238
0.831237
0.831235
0.831232
0.831229
0.831223
0.831214
0.8312
0.831179
0.831148
0.831101
0.831031
0.830926
0.830772
0.830544
0.830218
0.829734
0.828983
0.827881
0.82648
0.824314
0.820525
0.819961
0.811885
0.807619
0.800501
0.793533
0.780892
0.742444
0.76808
0.754863
0.749709
0.741875
0.738542
0.730697
0.724212
0.720667
0.717755
0.715668
0.714138
0.713076
0.71232
0.71181
0.711451
0.711209
0.711047
0.710937
0.710864
0.710814
0.710782
0.71076
0.710746
0.710736
0.71073
0.710726
0.710723
0.710721
0.71072
0.710719
0.710719
0.710719
0.710718
0.710718
0.710718
0.710718
0.710718
0.710718
0.710718
0.710718
0.710718
0.710718
0.710718
0.710718
0.710718
0.710718
0.710718
0.710718
0.710718
0.710718
)
;
    }
    empty
    {
        type            empty;
    }
}


// ************************************************************************* //
