# vtk DataFile Version 2.0
gauge_2
ASCII
DATASET POLYDATA
POINTS 43 double
0.2 0.0359992 0.005
0.2 0.0419991 0.005
0.2 0.047999 0.005
0.2 0.0607609 0.005
0.2 0.0735228 0.005
0.2 0.0862847 0.005
0.2 0.0990467 0.005
0.2 0.111809 0.005
0.2 0.124571 0.005
0.2 0.137332 0.005
0.2 0.150094 0.005
0.2 0.162856 0.005
0.2 0.175618 0.005
0.2 0.18838 0.005
0.2 0.201142 0.005
0.2 0.213904 0.005
0.2 0.226666 0.005
0.2 0.239428 0.005
0.2 0.25219 0.005
0.2 0.264952 0.005
0.2 0.277714 0.005
0.2 0.290476 0.005
0.2 0.303238 0.005
0.2 0.315999 0.005
0.2 0.328761 0.005
0.2 0.341523 0.005
0.2 0.354285 0.005
0.2 0.367047 0.005
0.2 0.379809 0.005
0.2 0.392571 0.005
0.2 0.405333 0.005
0.2 0.418095 0.005
0.2 0.430857 0.005
0.2 0.443619 0.005
0.2 0.456381 0.005
0.2 0.469143 0.005
0.2 0.481905 0.005
0.2 0.494666 0.005
0.2 0.507428 0.005
0.2 0.52019 0.005
0.2 0.532952 0.005
0.2 0.545714 0.005
0.2 0.558476 0.005
POINT_DATA 43
 FIELD attributes 1
alpha.water 1 43 float
1 1 1 1 0.773221 0.28574 0.0125195 2.67753e-05 4.18726e-05 1.56368e-05 1.12066e-09 1.08456e-08 2.16012e-08 1.16916e-08 3.89558e-12 1.2969e-12 2.67339e-13 4.69226e-14 8.93251e-15 5.03195e-16 6.82995e-17 1.36749e-17 2.69442e-18 4.28291e-19 5.70654e-20 7.38495e-21 8.83129e-22 1.15805e-22 2.19755e-23 4.32383e-24 7.89301e-25 1.27652e-25 1.79911e-26 2.25972e-27 2.62292e-28 2.83939e-29 2.79238e-30 2.35443e-31 1.55612e-32 7.25036e-34 2.15435e-35 3.70754e-37 3.71931e-39
