/*--------------------------------*- C++ -*----------------------------------*\
| =========                 |                                                 |
| \\      /  F ield         | OpenFOAM: The Open Source CFD Toolbox           |
|  \\    /   O peration     | Version:  3.0.1                                 |
|   \\  /    A nd           | Web:      www.OpenFOAM.org                      |
|    \\/     M anipulation  |                                                 |
\*---------------------------------------------------------------------------*/
FoamFile
{
    version     2.0;
    format      ascii;
    class       volScalarField;
    location    "0.00015";
    object      p;
}
// * * * * * * * * * * * * * * * * * * * * * * * * * * * * * * * * * * * * * //

dimensions      [1 -1 -2 0 0 0 0];

internalField   nonuniform List<scalar> 
1000
(
68970
68970
68970
68970
68970
68970
68970
68970
68970
68970
68970
68970
68970
68970
68970
68970
68970
68970
68970
68970
68970
68970
68970
68970
68970
68970
68970
68970
68970
68969.7
68962.7
68860.7
68268.3
67056.7
65824
64910.2
64333.2
64012.8
63858
63793.1
63768.2
63761.4
63759.3
63757.6
63757.2
63758
63757.9
63756.8
63755.5
63754.3
63753.8
63753.3
63752.6
63751.6
63750.2
63749.1
63748.4
63748.1
63748.6
63748
63744
63734.3
63701.4
63608.8
63382.9
62896.6
61983.8
60626.6
59422.9
59015.4
58972.2
58970.1
58970
58970
58970
58970
58970
58970
58970
58970
58970
58970
58970
58970
58970
58970
58970
58970
58970
58970
58970
58970
58970
58970
58970
58970
58970
58970
58970
58970
68970
68970
68970
68970
68970
68970
68970
68970
68970
68970
68970
68970
68970
68970
68970
68970
68970
68970
68970
68970
68970
68970
68970
68970
68970
68970
68970
68970
68970
68969.7
68962.9
68861.9
68272.4
67060.1
65824.4
64908.9
64331.7
64012
63858.1
63794.2
63769.9
63763.5
63762
63759.8
63758.7
63759.1
63758.7
63757.3
63755.7
63754.5
63753.9
63753.3
63752.4
63751.3
63749.7
63748
63746.8
63746.1
63746.4
63745.8
63741.8
63732.9
63701.3
63610.3
63385.6
62899
61983.3
60621.5
59418.9
59014.7
58972.2
58970.1
58970
58970
58970
58970
58970
58970
58970
58970
58970
58970
58970
58970
58970
58970
58970
58970
58970
58970
58970
58970
58970
58970
58970
58970
58970
58970
58970
58970
68970
68970
68970
68970
68970
68970
68970
68970
68970
68970
68970
68970
68970
68970
68970
68970
68970
68970
68970
68970
68970
68970
68970
68970
68970
68970
68970
68970
68970
68969.7
68962.5
68857.7
68258.2
67046.4
65820.9
64914.1
64341.6
64022.8
63867.7
63801.7
63775.2
63766.8
63762.7
63759.2
63757.3
63757.7
63757.4
63756.5
63755.1
63754.1
63754
63753.6
63753.1
63752.2
63750.9
63749.7
63748.5
63747.6
63746.3
63743.4
63736.9
63725.5
63691.6
63598.8
63374.3
62892.5
61988.1
60638.9
59431.5
59016.8
58972.3
58970.1
58970
58970
58970
58970
58970
58970
58970
58970
58970
58970
58970
58970
58970
58970
58970
58970
58970
58970
58970
58970
58970
58970
58970
58970
58970
58970
58970
58970
68970
68970
68970
68970
68970
68970
68970
68970
68970
68970
68970
68970
68970
68970
68970
68970
68970
68970
68970
68970
68970
68970
68970
68970
68970
68970
68970
68970
68970
68969.7
68962.2
68854.7
68247.4
67034.8
65816.1
64916
64346.8
64029.1
63873.4
63805.9
63778.1
63768.6
63764
63760.1
63758
63758.2
63758
63756.8
63755.3
63754.2
63754
63753.6
63752.9
63751.8
63750.4
63749.4
63747.7
63746.8
63744.9
63741.6
63734.3
63721.5
63686.1
63592.3
63368.3
62890.2
61994.2
60652.8
59440.8
59018.3
58972.4
58970.1
58970
58970
58970
58970
58970
58970
58970
58970
58970
58970
58970
58970
58970
58970
58970
58970
58970
58970
58970
58970
58970
58970
58970
58970
58970
58970
58970
58970
68970
68970
68970
68970
68970
68970
68970
68970
68970
68970
68970
68970
68970
68970
68970
68970
68970
68970
68970
68970
68970
68970
68970
68970
68970
68970
68970
68970
68970
68969.7
68962.6
68858.6
68261.3
67050.8
65825.5
64918.9
64345.7
64026.2
63870.2
63803.2
63776
63766.8
63762.3
63758.8
63757
63757.5
63757.1
63756.2
63754.9
63754.1
63754.1
63753.8
63753.4
63752.5
63751.3
63750.2
63749
63748.2
63746.7
63743.7
63736.8
63724.4
63689.9
63596.3
63371
62888
61982.8
60633.1
59428.3
59016.3
58972.3
58970.1
58970
58970
58970
58970
58970
58970
58970
58970
58970
58970
58970
58970
58970
58970
58970
58970
58970
58970
58970
58970
58970
58970
58970
58970
58970
58970
58970
58970
68970
68970
68970
68970
68970
68970
68970
68970
68970
68970
68970
68970
68970
68970
68970
68970
68970
68970
68970
68970
68970
68970
68970
68970
68970
68970
68970
68970
68970
68969.7
68963
68863.9
68279.7
67070.2
65833.5
64916.7
64338.6
64017.4
63862
63796.3
63770.9
63763.5
63761.3
63759
63757.7
63758.2
63757.9
63756.8
63755.4
63754.4
63754
63753.6
63753
63752
63750.5
63749
63747.8
63747.1
63747.4
63746.3
63741.6
63731.4
63699.2
63606.9
63380.6
62891.9
61972.6
60608.4
59411.5
59013.5
58972.1
58970.1
58970
58970
58970
58970
58970
58970
58970
58970
58970
58970
58970
58970
58970
58970
58970
58970
58970
58970
58970
58970
58970
58970
58970
58970
58970
58970
58970
58970
68970
68970
68970
68970
68970
68970
68970
68970
68970
68970
68970
68970
68970
68970
68970
68970
68970
68970
68970
68970
68970
68970
68970
68970
68970
68970
68970
68970
68970
68969.7
68963
68864.1
68281.1
67074.1
65838.9
64921.4
64341.6
64018.4
63862.2
63794.3
63769
63761.8
63759.3
63757
63756.1
63756.8
63756.8
63756
63755
63754.1
63753.9
63753.8
63753.4
63752.7
63751.5
63750.4
63749.6
63748.9
63749.3
63748.6
63743.5
63733.1
63700.8
63606.5
63377.3
62886.5
61966.6
60604.4
59410.2
59013.4
58972.1
58970.1
58970
58970
58970
58970
58970
58970
58970
58970
58970
58970
58970
58970
58970
58970
58970
58970
58970
58970
58970
58970
58970
58970
58970
58970
58970
58970
58970
58970
68970
68970
68970
68970
68970
68970
68970
68970
68970
68970
68970
68970
68970
68970
68970
68970
68970
68970
68970
68970
68970
68970
68970
68970
68970
68970
68970
68970
68970
68969.7
68963.1
68865.5
68287.2
67083.4
65846.8
64925.6
64342
64017.3
63858.6
63792.9
63766.4
63759.8
63757.7
63755.7
63755.1
63756
63756.3
63755.5
63754.7
63753.9
63753.9
63753.9
63753.6
63752.9
63751.9
63751.2
63750.6
63750.2
63750.4
63750
63746.4
63737.1
63702
63607.2
63377.2
62882.1
61957.5
60594
59405.1
59012.6
58972
58970.1
58970
58970
58970
58970
58970
58970
58970
58970
58970
58970
58970
58970
58970
58970
58970
58970
58970
58970
58970
58970
58970
58970
58970
58970
58970
58970
58970
58970
68970
68970
68970
68970
68970
68970
68970
68970
68970
68970
68970
68970
68970
68970
68970
68970
68970
68970
68970
68970
68970
68970
68970
68970
68970
68970
68970
68970
68970
68969.7
68963.4
68868.7
68298.6
67095.5
65852.3
64925.1
64338.5
64012.4
63854.9
63789.8
63765
63758.5
63756.4
63754.6
63754.2
63755.4
63756.2
63755.5
63754.6
63753.9
63753.9
63753.8
63753.5
63752.9
63752
63751.9
63751.5
63751.4
63751.6
63751.4
63747.8
63739.3
63706.7
63613.3
63382.6
62884.3
61951
60578.5
59394.9
59011
58972
58970.1
58970
58970
58970
58970
58970
58970
58970
58970
58970
58970
58970
58970
58970
58970
58970
58970
58970
58970
58970
58970
58970
58970
58970
58970
58970
58970
58970
58970
68970
68970
68970
68970
68970
68970
68970
68970
68970
68970
68970
68970
68970
68970
68970
68970
68970
68970
68970
68970
68970
68970
68970
68970
68970
68970
68970
68970
68970
68969.7
68963.2
68866.6
68291.4
67089
65851.6
64929
64343.7
64017.1
63858.3
63791.3
63765
63757.7
63754.7
63752.7
63752.6
63753.7
63754.7
63754.4
63753.8
63753.5
63753.8
63754.2
63754.1
63753.9
63753.4
63753.5
63753.2
63753.2
63753.6
63752.8
63748.1
63738.2
63703.8
63608.1
63376
62879
61952.1
60587.3
59401.4
59012.1
58972
58970.1
58970
58970
58970
58970
58970
58970
58970
58970
58970
58970
58970
58970
58970
58970
58970
58970
58970
58970
58970
58970
58970
58970
58970
58970
58970
58970
58970
58970
)
;

boundaryField
{
    sides1
    {
        type            zeroGradient;
    }
    sides2
    {
        type            slip;
    }
    empty
    {
        type            empty;
    }
}


// ************************************************************************* //
