/*--------------------------------*- C++ -*----------------------------------*\
| =========                 |                                                 |
| \\      /  F ield         | OpenFOAM: The Open Source CFD Toolbox           |
|  \\    /   O peration     | Version:  2012                                  |
|   \\  /    A nd           | Website:  www.openfoam.com                      |
|    \\/     M anipulation  |                                                 |
\*---------------------------------------------------------------------------*/
FoamFile
{
    version     2.0;
    format      ascii;
    class       volScalarField;
    location    "0.1";
    object      minKappa;
}
// * * * * * * * * * * * * * * * * * * * * * * * * * * * * * * * * * * * * * //

dimensions      [0 0 0 0 0 0 0];


internalField   nonuniform List<scalar> 
20400
(
5.3134e-08
4.46391e-08
2.50237e-08
5.59787e-09
1.71964e-08
2.87979e-08
3.15915e-08
3.74031e-08
4.15772e-08
4.62769e-08
5.0356e-08
5.44987e-08
5.82503e-08
6.18768e-08
6.52689e-08
6.84494e-08
7.14208e-08
7.41929e-08
7.67751e-08
7.91768e-08
8.14083e-08
8.348e-08
8.54022e-08
8.71845e-08
8.88359e-08
9.03658e-08
9.17826e-08
9.30945e-08
9.4309e-08
9.54337e-08
9.64762e-08
9.74426e-08
9.83385e-08
9.9169e-08
9.99392e-08
1.00654e-07
1.01317e-07
1.01932e-07
1.02504e-07
1.03035e-07
1.03529e-07
1.03988e-07
1.04415e-07
1.04813e-07
1.05184e-07
1.0553e-07
1.05853e-07
1.06155e-07
1.06436e-07
1.067e-07
1.06947e-07
1.07178e-07
1.07395e-07
1.07599e-07
1.07791e-07
1.07971e-07
1.08141e-07
1.08302e-07
1.08453e-07
1.08596e-07
1.08732e-07
1.0886e-07
1.08983e-07
1.09099e-07
1.09209e-07
1.09315e-07
1.09415e-07
1.09511e-07
1.09604e-07
1.09692e-07
1.09777e-07
1.09859e-07
1.09937e-07
1.10015e-07
1.10089e-07
1.10159e-07
1.10229e-07
1.10295e-07
1.1036e-07
1.10424e-07
1.10486e-07
1.10546e-07
1.10605e-07
1.10663e-07
1.1072e-07
1.10775e-07
1.1083e-07
1.10884e-07
1.10936e-07
1.10988e-07
1.11039e-07
1.1109e-07
1.1114e-07
1.11189e-07
1.11238e-07
1.11286e-07
1.11334e-07
1.11381e-07
1.11428e-07
1.11474e-07
1.1152e-07
1.11566e-07
1.11612e-07
1.11657e-07
1.11702e-07
1.11746e-07
1.11791e-07
1.11835e-07
1.11879e-07
1.11922e-07
1.11966e-07
1.12009e-07
1.12052e-07
1.12095e-07
1.12138e-07
1.12181e-07
1.12223e-07
1.12266e-07
1.12308e-07
1.1235e-07
1.12392e-07
1.12434e-07
1.12476e-07
1.12517e-07
1.12559e-07
1.126e-07
1.12642e-07
1.12683e-07
1.12724e-07
1.12765e-07
1.12806e-07
1.12847e-07
1.12888e-07
1.12929e-07
1.1297e-07
1.1301e-07
1.13051e-07
1.13091e-07
1.13132e-07
1.13172e-07
1.13212e-07
1.13252e-07
1.13292e-07
1.13332e-07
1.13372e-07
1.13412e-07
1.13452e-07
1.13492e-07
1.13531e-07
1.13571e-07
1.1361e-07
1.1365e-07
1.13689e-07
1.13729e-07
1.13768e-07
1.13807e-07
1.13846e-07
1.13885e-07
1.13924e-07
1.13963e-07
1.14002e-07
1.1404e-07
1.14079e-07
1.14118e-07
1.14156e-07
1.14195e-07
1.14233e-07
1.14272e-07
1.1431e-07
1.14348e-07
1.14386e-07
1.14424e-07
1.14462e-07
1.145e-07
1.14538e-07
1.14575e-07
1.14613e-07
1.14651e-07
1.14688e-07
1.14726e-07
1.14763e-07
1.148e-07
1.14837e-07
1.14874e-07
1.14911e-07
1.14948e-07
1.14985e-07
1.15022e-07
1.15059e-07
1.15095e-07
1.15132e-07
1.15169e-07
1.15205e-07
1.15241e-07
1.15278e-07
1.15314e-07
1.1535e-07
1.15386e-07
1.15422e-07
1.15458e-07
1.15493e-07
1.15529e-07
1.15565e-07
1.156e-07
1.15636e-07
1.15671e-07
1.15706e-07
1.15741e-07
1.15777e-07
1.15812e-07
1.15846e-07
1.15881e-07
1.15916e-07
1.15951e-07
1.15985e-07
1.1602e-07
1.16054e-07
1.16089e-07
1.16123e-07
1.16157e-07
1.16191e-07
1.16225e-07
1.16259e-07
1.16293e-07
1.16326e-07
1.1636e-07
1.16393e-07
1.16427e-07
1.1646e-07
1.16493e-07
1.16526e-07
1.1656e-07
1.16593e-07
1.16626e-07
1.16658e-07
1.16691e-07
1.16724e-07
1.16756e-07
1.16788e-07
1.16821e-07
1.16853e-07
1.16885e-07
1.16917e-07
1.16949e-07
1.16981e-07
1.17013e-07
1.17044e-07
1.17076e-07
1.17107e-07
1.17139e-07
1.1717e-07
1.17201e-07
1.17232e-07
1.17263e-07
1.17294e-07
1.17324e-07
1.17355e-07
1.17386e-07
1.17416e-07
1.17446e-07
1.17477e-07
1.17507e-07
1.17537e-07
1.17567e-07
1.17597e-07
1.17626e-07
1.17656e-07
1.17685e-07
1.17715e-07
1.17745e-07
1.17773e-07
1.17802e-07
1.17832e-07
1.17861e-07
1.17889e-07
1.17919e-07
1.17946e-07
1.17974e-07
1.18003e-07
1.18033e-07
1.18061e-07
1.18088e-07
1.18115e-07
1.18143e-07
1.18173e-07
1.182e-07
1.18227e-07
1.18254e-07
1.18281e-07
1.18309e-07
1.18335e-07
1.18362e-07
1.1839e-07
1.18417e-07
1.18442e-07
1.18469e-07
1.18496e-07
1.18523e-07
1.18549e-07
1.18574e-07
1.18599e-07
1.18626e-07
1.18654e-07
1.18677e-07
1.18702e-07
1.1873e-07
1.18755e-07
1.18779e-07
1.18804e-07
1.1883e-07
1.18854e-07
1.18877e-07
1.18903e-07
1.1893e-07
1.18952e-07
1.18974e-07
1.19001e-07
1.19027e-07
1.19048e-07
1.19071e-07
1.19097e-07
1.1912e-07
1.19143e-07
1.19167e-07
1.19189e-07
1.19212e-07
1.19238e-07
1.19259e-07
1.1928e-07
1.19304e-07
1.19327e-07
1.19349e-07
1.19372e-07
1.19394e-07
1.19414e-07
1.19436e-07
1.19459e-07
1.19482e-07
1.19502e-07
1.19523e-07
1.19547e-07
1.19567e-07
1.19587e-07
1.19607e-07
1.19628e-07
1.19651e-07
1.19672e-07
1.1969e-07
1.19709e-07
1.19731e-07
1.19753e-07
1.19771e-07
1.19791e-07
1.19809e-07
1.19831e-07
1.1985e-07
1.19867e-07
1.19891e-07
1.19908e-07
1.19924e-07
1.19946e-07
1.19961e-07
1.19982e-07
1.20001e-07
1.2002e-07
1.20037e-07
1.20053e-07
1.20075e-07
1.2009e-07
1.20111e-07
1.20127e-07
1.20144e-07
1.2016e-07
1.20177e-07
1.20198e-07
1.20213e-07
1.2023e-07
1.20245e-07
1.20262e-07
1.2028e-07
1.20295e-07
1.2031e-07
1.20328e-07
1.20344e-07
1.2036e-07
1.20373e-07
1.2039e-07
1.20406e-07
1.20419e-07
1.20437e-07
1.2045e-07
1.20466e-07
1.20483e-07
1.20492e-07
1.20507e-07
1.20527e-07
1.20537e-07
1.20552e-07
1.20567e-07
1.20579e-07
1.20595e-07
1.20608e-07
1.2062e-07
1.20635e-07
1.20648e-07
1.20658e-07
1.20673e-07
1.20686e-07
1.20698e-07
1.20712e-07
1.20724e-07
1.20735e-07
1.20748e-07
1.20762e-07
1.20772e-07
1.20783e-07
1.20797e-07
1.20806e-07
1.20817e-07
1.20829e-07
1.20843e-07
1.20852e-07
1.20859e-07
1.20871e-07
1.20882e-07
1.20897e-07
1.20902e-07
1.20912e-07
1.20921e-07
1.20933e-07
1.20945e-07
1.20951e-07
1.20962e-07
1.20971e-07
1.20981e-07
1.20989e-07
1.20998e-07
1.21008e-07
1.21014e-07
1.21024e-07
1.21033e-07
1.2104e-07
1.2105e-07
1.21057e-07
1.21064e-07
1.21072e-07
1.2108e-07
1.21087e-07
1.21093e-07
1.21101e-07
1.21109e-07
1.21115e-07
1.21122e-07
1.21128e-07
1.21134e-07
1.21142e-07
1.21147e-07
1.21153e-07
1.2116e-07
1.21166e-07
1.2117e-07
1.21175e-07
1.21183e-07
1.21186e-07
1.21191e-07
1.21197e-07
1.21202e-07
1.21206e-07
1.2121e-07
1.21214e-07
1.2122e-07
1.21223e-07
1.21227e-07
1.21231e-07
1.21235e-07
1.21238e-07
1.21242e-07
1.21246e-07
1.21247e-07
1.2125e-07
1.21254e-07
1.21256e-07
1.21258e-07
1.2126e-07
1.21263e-07
1.21265e-07
1.21267e-07
1.21269e-07
1.2127e-07
1.2127e-07
1.2127e-07
1.21247e-07
1.21247e-07
1.21145e-07
1.21145e-07
1.21352e-07
1.21035e-07
1.21035e-07
1.18874e-07
1.18339e-07
5.84028e-08
4.46391e-08
2.98635e-08
5.59787e-09
2.21449e-08
2.87979e-08
3.52191e-08
4.06523e-08
4.56639e-08
5.03215e-08
5.49572e-08
5.88591e-08
6.27304e-08
6.63347e-08
6.97211e-08
7.28888e-08
7.58477e-08
7.86064e-08
8.11749e-08
8.35635e-08
8.57827e-08
8.78423e-08
8.97522e-08
9.15232e-08
9.31643e-08
9.46849e-08
9.60938e-08
9.7399e-08
9.8608e-08
9.97281e-08
1.00766e-07
1.01728e-07
1.02619e-07
1.03445e-07
1.04212e-07
1.04923e-07
1.05583e-07
1.06196e-07
1.06765e-07
1.07294e-07
1.07785e-07
1.08243e-07
1.08668e-07
1.09065e-07
1.09435e-07
1.09779e-07
1.10101e-07
1.10401e-07
1.10682e-07
1.10945e-07
1.11191e-07
1.11421e-07
1.11638e-07
1.11841e-07
1.12032e-07
1.12212e-07
1.12381e-07
1.12541e-07
1.12692e-07
1.12834e-07
1.1297e-07
1.13097e-07
1.1322e-07
1.13335e-07
1.13446e-07
1.13551e-07
1.13651e-07
1.13747e-07
1.13839e-07
1.13927e-07
1.14011e-07
1.14094e-07
1.1417e-07
1.14251e-07
1.1432e-07
1.14393e-07
1.14461e-07
1.14528e-07
1.14593e-07
1.14656e-07
1.14718e-07
1.14778e-07
1.14837e-07
1.14894e-07
1.14952e-07
1.15006e-07
1.15061e-07
1.15114e-07
1.15167e-07
1.15219e-07
1.1527e-07
1.1532e-07
1.1537e-07
1.15419e-07
1.15467e-07
1.15515e-07
1.15563e-07
1.1561e-07
1.15657e-07
1.15703e-07
1.15749e-07
1.15794e-07
1.1584e-07
1.15885e-07
1.15929e-07
1.15974e-07
1.16018e-07
1.16062e-07
1.16106e-07
1.16149e-07
1.16193e-07
1.16236e-07
1.16279e-07
1.16321e-07
1.16364e-07
1.16407e-07
1.16449e-07
1.16491e-07
1.16533e-07
1.16575e-07
1.16617e-07
1.16659e-07
1.16701e-07
1.16742e-07
1.16783e-07
1.16825e-07
1.16866e-07
1.16907e-07
1.16948e-07
1.16989e-07
1.1703e-07
1.17071e-07
1.17111e-07
1.17152e-07
1.17193e-07
1.17233e-07
1.17273e-07
1.17314e-07
1.17354e-07
1.17394e-07
1.17434e-07
1.17474e-07
1.17514e-07
1.17554e-07
1.17594e-07
1.17634e-07
1.17673e-07
1.17713e-07
1.17752e-07
1.17792e-07
1.17831e-07
1.1787e-07
1.1791e-07
1.17949e-07
1.17988e-07
1.18027e-07
1.18066e-07
1.18105e-07
1.18143e-07
1.18182e-07
1.18221e-07
1.18259e-07
1.18298e-07
1.18336e-07
1.18375e-07
1.18413e-07
1.18451e-07
1.1849e-07
1.18527e-07
1.18566e-07
1.18604e-07
1.18641e-07
1.18679e-07
1.18717e-07
1.18754e-07
1.18792e-07
1.1883e-07
1.18867e-07
1.18904e-07
1.18942e-07
1.18979e-07
1.19016e-07
1.19053e-07
1.1909e-07
1.19127e-07
1.19164e-07
1.192e-07
1.19237e-07
1.19274e-07
1.1931e-07
1.19347e-07
1.19383e-07
1.19419e-07
1.19455e-07
1.19492e-07
1.19528e-07
1.19563e-07
1.19599e-07
1.19635e-07
1.19671e-07
1.19706e-07
1.19742e-07
1.19778e-07
1.19813e-07
1.19848e-07
1.19883e-07
1.19918e-07
1.19954e-07
1.19988e-07
1.20023e-07
1.20058e-07
1.20093e-07
1.20127e-07
1.20162e-07
1.20196e-07
1.20231e-07
1.20265e-07
1.20299e-07
1.20334e-07
1.20367e-07
1.20401e-07
1.20435e-07
1.20469e-07
1.20502e-07
1.20536e-07
1.20569e-07
1.20603e-07
1.20636e-07
1.20669e-07
1.20702e-07
1.20735e-07
1.20768e-07
1.20801e-07
1.20834e-07
1.20866e-07
1.20899e-07
1.20931e-07
1.20964e-07
1.20996e-07
1.21028e-07
1.2106e-07
1.21092e-07
1.21124e-07
1.21156e-07
1.21187e-07
1.21219e-07
1.21251e-07
1.21282e-07
1.21313e-07
1.21345e-07
1.21375e-07
1.21406e-07
1.21438e-07
1.21468e-07
1.21499e-07
1.2153e-07
1.2156e-07
1.21591e-07
1.2162e-07
1.21651e-07
1.21681e-07
1.21712e-07
1.21741e-07
1.21771e-07
1.218e-07
1.2183e-07
1.2186e-07
1.21888e-07
1.21919e-07
1.21948e-07
1.21975e-07
1.22006e-07
1.22035e-07
1.22063e-07
1.22093e-07
1.22121e-07
1.22147e-07
1.22176e-07
1.22206e-07
1.22236e-07
1.22261e-07
1.22289e-07
1.22315e-07
1.22345e-07
1.22375e-07
1.22399e-07
1.22428e-07
1.22454e-07
1.22482e-07
1.2251e-07
1.22535e-07
1.22563e-07
1.22591e-07
1.22615e-07
1.22642e-07
1.22669e-07
1.22696e-07
1.22723e-07
1.22747e-07
1.22773e-07
1.22798e-07
1.22828e-07
1.22851e-07
1.22874e-07
1.22902e-07
1.2293e-07
1.22951e-07
1.22977e-07
1.23002e-07
1.23027e-07
1.23051e-07
1.23073e-07
1.23103e-07
1.23128e-07
1.23147e-07
1.23171e-07
1.232e-07
1.23222e-07
1.23243e-07
1.23269e-07
1.23294e-07
1.23314e-07
1.23338e-07
1.23366e-07
1.23379e-07
1.23411e-07
1.23431e-07
1.23453e-07
1.23477e-07
1.23499e-07
1.23522e-07
1.23544e-07
1.23567e-07
1.23587e-07
1.23609e-07
1.23631e-07
1.23655e-07
1.23675e-07
1.23694e-07
1.2372e-07
1.23739e-07
1.23758e-07
1.23783e-07
1.23799e-07
1.23823e-07
1.23844e-07
1.23865e-07
1.23883e-07
1.23902e-07
1.23924e-07
1.23945e-07
1.23965e-07
1.23981e-07
1.24001e-07
1.24026e-07
1.24037e-07
1.24062e-07
1.24083e-07
1.24095e-07
1.24116e-07
1.2414e-07
1.24148e-07
1.24179e-07
1.24188e-07
1.24216e-07
1.24222e-07
1.24249e-07
1.24264e-07
1.24277e-07
1.24307e-07
1.24309e-07
1.2434e-07
1.24343e-07
1.24373e-07
1.24384e-07
1.24404e-07
1.24418e-07
1.24436e-07
1.2445e-07
1.24471e-07
1.24479e-07
1.24502e-07
1.24516e-07
1.24533e-07
1.24548e-07
1.24558e-07
1.24585e-07
1.24587e-07
1.24612e-07
1.24624e-07
1.24638e-07
1.24652e-07
1.24673e-07
1.24675e-07
1.24701e-07
1.24711e-07
1.2472e-07
1.24747e-07
1.24747e-07
1.24768e-07
1.24779e-07
1.24795e-07
1.24805e-07
1.24823e-07
1.24833e-07
1.24842e-07
1.24862e-07
1.24866e-07
1.2489e-07
1.24893e-07
1.24913e-07
1.24918e-07
1.24936e-07
1.24946e-07
1.24956e-07
1.24969e-07
1.24983e-07
1.24989e-07
1.25005e-07
1.2501e-07
1.25032e-07
1.25029e-07
1.25048e-07
1.25055e-07
1.25067e-07
1.25081e-07
1.2508e-07
1.25102e-07
1.25099e-07
1.25125e-07
1.25122e-07
1.25138e-07
1.25145e-07
1.25153e-07
1.25166e-07
1.2517e-07
1.25182e-07
1.2519e-07
1.25196e-07
1.25209e-07
1.25214e-07
1.25222e-07
1.25232e-07
1.25237e-07
1.25249e-07
1.2525e-07
1.25265e-07
1.25267e-07
1.25276e-07
1.25284e-07
1.25288e-07
1.25297e-07
1.25302e-07
1.2531e-07
1.25316e-07
1.25323e-07
1.25328e-07
1.25335e-07
1.25339e-07
1.25348e-07
1.25348e-07
1.25358e-07
1.25362e-07
1.25367e-07
1.25372e-07
1.25378e-07
1.25381e-07
1.25387e-07
1.2539e-07
1.25395e-07
1.25399e-07
1.25402e-07
1.25408e-07
1.25409e-07
1.25415e-07
1.25417e-07
1.25421e-07
1.25425e-07
1.25424e-07
1.25432e-07
1.2543e-07
1.25437e-07
1.25436e-07
1.25441e-07
1.25441e-07
1.25445e-07
1.25445e-07
1.25447e-07
1.25448e-07
1.25452e-07
1.25443e-07
1.25487e-07
1.25363e-07
1.25696e-07
1.24945e-07
1.26172e-07
1.24879e-07
1.25552e-07
1.27288e-07
1.18339e-07
5.94533e-08
4.76166e-08
3.35062e-08
1.14376e-08
2.58121e-08
3.15809e-08
3.7119e-08
4.28844e-08
4.71213e-08
5.1945e-08
5.61548e-08
6.0449e-08
6.43542e-08
6.8133e-08
7.16682e-08
7.49851e-08
7.80868e-08
8.0982e-08
8.36803e-08
8.61918e-08
8.85269e-08
9.06962e-08
9.27108e-08
9.45804e-08
9.63145e-08
9.79227e-08
9.94132e-08
1.00794e-07
1.02075e-07
1.03261e-07
1.04361e-07
1.0538e-07
1.06324e-07
1.072e-07
1.08013e-07
1.08766e-07
1.09466e-07
1.10115e-07
1.10718e-07
1.11278e-07
1.11799e-07
1.12283e-07
1.12734e-07
1.13153e-07
1.13544e-07
1.13908e-07
1.14248e-07
1.14566e-07
1.14862e-07
1.15139e-07
1.15398e-07
1.15641e-07
1.15869e-07
1.16083e-07
1.16281e-07
1.16464e-07
1.16637e-07
1.168e-07
1.16954e-07
1.171e-07
1.17238e-07
1.17368e-07
1.17493e-07
1.1761e-07
1.17722e-07
1.17829e-07
1.17931e-07
1.18029e-07
1.18122e-07
1.18212e-07
1.18297e-07
1.1838e-07
1.18458e-07
1.18538e-07
1.1861e-07
1.18683e-07
1.18752e-07
1.18819e-07
1.18885e-07
1.18949e-07
1.19011e-07
1.19071e-07
1.19131e-07
1.19189e-07
1.19246e-07
1.19301e-07
1.19356e-07
1.19409e-07
1.19462e-07
1.19514e-07
1.19565e-07
1.19616e-07
1.19666e-07
1.19715e-07
1.19763e-07
1.19811e-07
1.19859e-07
1.19906e-07
1.19953e-07
1.19999e-07
1.20045e-07
1.20091e-07
1.20136e-07
1.20181e-07
1.20225e-07
1.2027e-07
1.20314e-07
1.20358e-07
1.20402e-07
1.20445e-07
1.20488e-07
1.20531e-07
1.20574e-07
1.20617e-07
1.2066e-07
1.20702e-07
1.20744e-07
1.20786e-07
1.20828e-07
1.2087e-07
1.20912e-07
1.20954e-07
1.20995e-07
1.21037e-07
1.21078e-07
1.21119e-07
1.2116e-07
1.21201e-07
1.21242e-07
1.21283e-07
1.21324e-07
1.21364e-07
1.21405e-07
1.21446e-07
1.21486e-07
1.21526e-07
1.21567e-07
1.21607e-07
1.21647e-07
1.21687e-07
1.21727e-07
1.21767e-07
1.21807e-07
1.21846e-07
1.21886e-07
1.21926e-07
1.21965e-07
1.22005e-07
1.22044e-07
1.22083e-07
1.22123e-07
1.22162e-07
1.22201e-07
1.2224e-07
1.22279e-07
1.22318e-07
1.22357e-07
1.22395e-07
1.22434e-07
1.22473e-07
1.22511e-07
1.2255e-07
1.22588e-07
1.22626e-07
1.22665e-07
1.22703e-07
1.22741e-07
1.22779e-07
1.22817e-07
1.22855e-07
1.22893e-07
1.2293e-07
1.22968e-07
1.23006e-07
1.23043e-07
1.23081e-07
1.23118e-07
1.23155e-07
1.23193e-07
1.2323e-07
1.23267e-07
1.23304e-07
1.23341e-07
1.23378e-07
1.23415e-07
1.23452e-07
1.23488e-07
1.23525e-07
1.23561e-07
1.23597e-07
1.23634e-07
1.2367e-07
1.23706e-07
1.23742e-07
1.23778e-07
1.23814e-07
1.23849e-07
1.23886e-07
1.23922e-07
1.23957e-07
1.23993e-07
1.24028e-07
1.24063e-07
1.24099e-07
1.24134e-07
1.24169e-07
1.24204e-07
1.24239e-07
1.24274e-07
1.24308e-07
1.24343e-07
1.24378e-07
1.24412e-07
1.24447e-07
1.24481e-07
1.24515e-07
1.24549e-07
1.24584e-07
1.24618e-07
1.24651e-07
1.24685e-07
1.24719e-07
1.24753e-07
1.24786e-07
1.24819e-07
1.24853e-07
1.24886e-07
1.2492e-07
1.24952e-07
1.24986e-07
1.25018e-07
1.25051e-07
1.25084e-07
1.25117e-07
1.25149e-07
1.25182e-07
1.25214e-07
1.25246e-07
1.25278e-07
1.2531e-07
1.25342e-07
1.25375e-07
1.25406e-07
1.25438e-07
1.25469e-07
1.25501e-07
1.25532e-07
1.25563e-07
1.25595e-07
1.25626e-07
1.25657e-07
1.25687e-07
1.25719e-07
1.25749e-07
1.2578e-07
1.25811e-07
1.25841e-07
1.2587e-07
1.25901e-07
1.25932e-07
1.25961e-07
1.25992e-07
1.2602e-07
1.26051e-07
1.26081e-07
1.26111e-07
1.26139e-07
1.26168e-07
1.26199e-07
1.26228e-07
1.26254e-07
1.26284e-07
1.26315e-07
1.26342e-07
1.26373e-07
1.26399e-07
1.26425e-07
1.26456e-07
1.26484e-07
1.26515e-07
1.26539e-07
1.26567e-07
1.26595e-07
1.26624e-07
1.26654e-07
1.26676e-07
1.26706e-07
1.26732e-07
1.26759e-07
1.26787e-07
1.26814e-07
1.26841e-07
1.26868e-07
1.26892e-07
1.26919e-07
1.26947e-07
1.26973e-07
1.27001e-07
1.27023e-07
1.2705e-07
1.27076e-07
1.27105e-07
1.27127e-07
1.2715e-07
1.2718e-07
1.27206e-07
1.27228e-07
1.27255e-07
1.27275e-07
1.27304e-07
1.27329e-07
1.27347e-07
1.27379e-07
1.27403e-07
1.27424e-07
1.27447e-07
1.27476e-07
1.27498e-07
1.2752e-07
1.27544e-07
1.27568e-07
1.2759e-07
1.27612e-07
1.27643e-07
1.27655e-07
1.27686e-07
1.27707e-07
1.27725e-07
1.27755e-07
1.27773e-07
1.27796e-07
1.27818e-07
1.27843e-07
1.27862e-07
1.27883e-07
1.27905e-07
1.27931e-07
1.27948e-07
1.27969e-07
1.27994e-07
1.28013e-07
1.28033e-07
1.28058e-07
1.28074e-07
1.28095e-07
1.28118e-07
1.28137e-07
1.2816e-07
1.28175e-07
1.28198e-07
1.28217e-07
1.2824e-07
1.28253e-07
1.28276e-07
1.28301e-07
1.2831e-07
1.28337e-07
1.28353e-07
1.2837e-07
1.2839e-07
1.28411e-07
1.28423e-07
1.28449e-07
1.28461e-07
1.28488e-07
1.28496e-07
1.28522e-07
1.28536e-07
1.2855e-07
1.28578e-07
1.28581e-07
1.28614e-07
1.28614e-07
1.28647e-07
1.28652e-07
1.28678e-07
1.28687e-07
1.2871e-07
1.28721e-07
1.28744e-07
1.28751e-07
1.28775e-07
1.28784e-07
1.28808e-07
1.28819e-07
1.28829e-07
1.28859e-07
1.28859e-07
1.28882e-07
1.28895e-07
1.28911e-07
1.28921e-07
1.28945e-07
1.28949e-07
1.28972e-07
1.2898e-07
1.28991e-07
1.29019e-07
1.29018e-07
1.29039e-07
1.29049e-07
1.29067e-07
1.29075e-07
1.29095e-07
1.29104e-07
1.29112e-07
1.29132e-07
1.29135e-07
1.29162e-07
1.29161e-07
1.29186e-07
1.29188e-07
1.29207e-07
1.29215e-07
1.29227e-07
1.29239e-07
1.29253e-07
1.29259e-07
1.29276e-07
1.29279e-07
1.29302e-07
1.29299e-07
1.29319e-07
1.29327e-07
1.29336e-07
1.2935e-07
1.29351e-07
1.29373e-07
1.2937e-07
1.29393e-07
1.29392e-07
1.29408e-07
1.29415e-07
1.29423e-07
1.29436e-07
1.2944e-07
1.29451e-07
1.2946e-07
1.29465e-07
1.29479e-07
1.29482e-07
1.29494e-07
1.295e-07
1.29507e-07
1.29517e-07
1.29522e-07
1.29533e-07
1.29537e-07
1.29546e-07
1.29553e-07
1.2956e-07
1.29564e-07
1.29572e-07
1.29577e-07
1.29588e-07
1.29589e-07
1.296e-07
1.29602e-07
1.2961e-07
1.29616e-07
1.2962e-07
1.29626e-07
1.29631e-07
1.29637e-07
1.29641e-07
1.29647e-07
1.29651e-07
1.29655e-07
1.2966e-07
1.29664e-07
1.29668e-07
1.29671e-07
1.29677e-07
1.29677e-07
1.29684e-07
1.29685e-07
1.29691e-07
1.29692e-07
1.29695e-07
1.29701e-07
1.29698e-07
1.29705e-07
1.29705e-07
1.29709e-07
1.2971e-07
1.29713e-07
1.29714e-07
1.29715e-07
1.29718e-07
1.2972e-07
1.29712e-07
1.29757e-07
1.2963e-07
1.29677e-07
1.29201e-07
1.29886e-07
1.2912e-07
1.29587e-07
1.27472e-07
1.22646e-07
6.10129e-08
4.90604e-08
3.76715e-08
1.71968e-08
3.0378e-08
3.42496e-08
4.00548e-08
4.53604e-08
4.93723e-08
5.39452e-08
5.79463e-08
6.20576e-08
6.58058e-08
6.94398e-08
7.28509e-08
7.60592e-08
7.90631e-08
8.18696e-08
8.44873e-08
8.69257e-08
8.91951e-08
9.13055e-08
9.3267e-08
9.5088e-08
9.67776e-08
9.83448e-08
9.97985e-08
1.01147e-07
1.02397e-07
1.03555e-07
1.0463e-07
1.05626e-07
1.0655e-07
1.07407e-07
1.08203e-07
1.08941e-07
1.09626e-07
1.10262e-07
1.10853e-07
1.11403e-07
1.11914e-07
1.12389e-07
1.12831e-07
1.13243e-07
1.13627e-07
1.13985e-07
1.14319e-07
1.14631e-07
1.14922e-07
1.15195e-07
1.1545e-07
1.15689e-07
1.15913e-07
1.16124e-07
1.16322e-07
1.16508e-07
1.16683e-07
1.16848e-07
1.17004e-07
1.17151e-07
1.1729e-07
1.17422e-07
1.17547e-07
1.17666e-07
1.17779e-07
1.17887e-07
1.1799e-07
1.18088e-07
1.18183e-07
1.18273e-07
1.18359e-07
1.18443e-07
1.18523e-07
1.186e-07
1.18675e-07
1.18748e-07
1.18817e-07
1.18885e-07
1.18952e-07
1.19015e-07
1.19078e-07
1.19139e-07
1.19199e-07
1.19257e-07
1.19314e-07
1.1937e-07
1.19425e-07
1.19479e-07
1.19532e-07
1.19584e-07
1.19635e-07
1.19686e-07
1.19736e-07
1.19785e-07
1.19834e-07
1.19882e-07
1.1993e-07
1.19977e-07
1.20024e-07
1.2007e-07
1.20116e-07
1.20162e-07
1.20207e-07
1.20252e-07
1.20297e-07
1.20341e-07
1.20385e-07
1.20429e-07
1.20473e-07
1.20517e-07
1.2056e-07
1.20603e-07
1.20646e-07
1.20689e-07
1.20732e-07
1.20774e-07
1.20816e-07
1.20859e-07
1.20901e-07
1.20942e-07
1.20984e-07
1.21026e-07
1.21068e-07
1.21109e-07
1.2115e-07
1.21192e-07
1.21233e-07
1.21274e-07
1.21315e-07
1.21356e-07
1.21397e-07
1.21437e-07
1.21478e-07
1.21518e-07
1.21559e-07
1.21599e-07
1.2164e-07
1.2168e-07
1.2172e-07
1.2176e-07
1.218e-07
1.2184e-07
1.2188e-07
1.2192e-07
1.21959e-07
1.21999e-07
1.22039e-07
1.22078e-07
1.22117e-07
1.22157e-07
1.22196e-07
1.22235e-07
1.22275e-07
1.22314e-07
1.22352e-07
1.22391e-07
1.2243e-07
1.22469e-07
1.22508e-07
1.22547e-07
1.22585e-07
1.22624e-07
1.22662e-07
1.227e-07
1.22739e-07
1.22777e-07
1.22815e-07
1.22853e-07
1.22891e-07
1.22929e-07
1.22967e-07
1.23005e-07
1.23043e-07
1.2308e-07
1.23118e-07
1.23155e-07
1.23193e-07
1.2323e-07
1.23267e-07
1.23305e-07
1.23342e-07
1.23379e-07
1.23416e-07
1.23453e-07
1.23489e-07
1.23527e-07
1.23563e-07
1.23599e-07
1.23636e-07
1.23672e-07
1.23709e-07
1.23745e-07
1.23781e-07
1.23817e-07
1.23854e-07
1.2389e-07
1.23925e-07
1.23961e-07
1.23997e-07
1.24033e-07
1.24068e-07
1.24104e-07
1.24139e-07
1.24175e-07
1.24209e-07
1.24245e-07
1.2428e-07
1.24315e-07
1.2435e-07
1.24384e-07
1.24419e-07
1.24454e-07
1.24488e-07
1.24523e-07
1.24557e-07
1.24591e-07
1.24626e-07
1.2466e-07
1.24694e-07
1.24728e-07
1.24761e-07
1.24795e-07
1.2483e-07
1.24863e-07
1.24896e-07
1.24929e-07
1.24963e-07
1.24996e-07
1.25029e-07
1.25062e-07
1.25096e-07
1.25127e-07
1.2516e-07
1.25195e-07
1.25227e-07
1.25258e-07
1.25291e-07
1.25323e-07
1.25356e-07
1.25388e-07
1.2542e-07
1.25452e-07
1.25484e-07
1.25515e-07
1.25547e-07
1.25579e-07
1.2561e-07
1.25641e-07
1.25673e-07
1.25704e-07
1.25735e-07
1.25765e-07
1.25796e-07
1.25828e-07
1.25858e-07
1.25889e-07
1.2592e-07
1.25949e-07
1.25979e-07
1.2601e-07
1.2604e-07
1.26069e-07
1.26101e-07
1.2613e-07
1.26158e-07
1.26189e-07
1.26219e-07
1.26247e-07
1.26275e-07
1.26306e-07
1.26337e-07
1.26364e-07
1.2639e-07
1.26423e-07
1.26452e-07
1.26477e-07
1.26505e-07
1.26536e-07
1.26565e-07
1.26591e-07
1.26618e-07
1.26647e-07
1.26677e-07
1.26704e-07
1.26731e-07
1.26758e-07
1.26784e-07
1.26814e-07
1.26841e-07
1.26866e-07
1.26893e-07
1.26922e-07
1.26947e-07
1.26974e-07
1.27e-07
1.27027e-07
1.27054e-07
1.2708e-07
1.27105e-07
1.2713e-07
1.27156e-07
1.27184e-07
1.2721e-07
1.27233e-07
1.27259e-07
1.27285e-07
1.27308e-07
1.27337e-07
1.27358e-07
1.2738e-07
1.27412e-07
1.27432e-07
1.27456e-07
1.27485e-07
1.27507e-07
1.27531e-07
1.27555e-07
1.27581e-07
1.27602e-07
1.27626e-07
1.2765e-07
1.27673e-07
1.27696e-07
1.27721e-07
1.27744e-07
1.27763e-07
1.27792e-07
1.2781e-07
1.27831e-07
1.2786e-07
1.27877e-07
1.279e-07
1.27924e-07
1.27947e-07
1.2797e-07
1.27987e-07
1.28009e-07
1.28035e-07
1.28054e-07
1.28073e-07
1.28096e-07
1.28119e-07
1.28139e-07
1.28159e-07
1.28177e-07
1.28201e-07
1.28221e-07
1.2824e-07
1.28261e-07
1.28282e-07
1.28302e-07
1.28321e-07
1.28339e-07
1.28361e-07
1.28382e-07
1.28397e-07
1.28419e-07
1.28438e-07
1.28455e-07
1.28477e-07
1.28494e-07
1.28511e-07
1.28531e-07
1.28546e-07
1.28568e-07
1.28585e-07
1.28601e-07
1.28623e-07
1.28636e-07
1.28657e-07
1.28674e-07
1.2869e-07
1.28709e-07
1.28726e-07
1.28743e-07
1.28759e-07
1.28775e-07
1.28793e-07
1.2881e-07
1.28826e-07
1.28843e-07
1.28856e-07
1.28873e-07
1.2889e-07
1.28905e-07
1.28919e-07
1.28938e-07
1.28952e-07
1.28966e-07
1.28982e-07
1.28996e-07
1.29011e-07
1.29028e-07
1.29038e-07
1.29055e-07
1.29071e-07
1.29081e-07
1.29099e-07
1.29111e-07
1.29123e-07
1.29139e-07
1.29153e-07
1.29165e-07
1.29178e-07
1.29192e-07
1.29204e-07
1.29218e-07
1.2923e-07
1.29243e-07
1.29254e-07
1.29267e-07
1.29281e-07
1.2929e-07
1.29303e-07
1.29313e-07
1.29325e-07
1.2934e-07
1.29349e-07
1.2936e-07
1.2937e-07
1.29383e-07
1.29395e-07
1.29404e-07
1.29416e-07
1.29425e-07
1.29437e-07
1.29445e-07
1.29455e-07
1.29464e-07
1.29475e-07
1.29485e-07
1.29493e-07
1.29505e-07
1.29512e-07
1.29523e-07
1.29531e-07
1.2954e-07
1.2955e-07
1.29557e-07
1.29566e-07
1.29572e-07
1.29582e-07
1.2959e-07
1.29598e-07
1.29607e-07
1.29613e-07
1.29622e-07
1.29628e-07
1.29637e-07
1.29643e-07
1.2965e-07
1.29657e-07
1.29664e-07
1.2967e-07
1.29676e-07
1.29682e-07
1.29689e-07
1.29695e-07
1.297e-07
1.29705e-07
1.29712e-07
1.29718e-07
1.29721e-07
1.29727e-07
1.29732e-07
1.29736e-07
1.29743e-07
1.29747e-07
1.2975e-07
1.29756e-07
1.2976e-07
1.29765e-07
1.29768e-07
1.29772e-07
1.29775e-07
1.29778e-07
1.29782e-07
1.29786e-07
1.29788e-07
1.29791e-07
1.29793e-07
1.29796e-07
1.298e-07
1.29801e-07
1.29803e-07
1.29806e-07
1.29807e-07
1.29808e-07
1.2981e-07
1.29812e-07
1.29811e-07
1.29788e-07
1.29728e-07
1.29681e-07
1.29295e-07
1.29891e-07
1.29211e-07
1.29593e-07
1.27467e-07
1.22676e-07
6.3204e-08
5.13217e-08
4.20971e-08
2.31993e-08
3.51082e-08
3.77523e-08
4.3516e-08
4.80055e-08
5.21038e-08
5.64044e-08
6.01766e-08
6.40792e-08
6.76492e-08
7.11186e-08
7.43806e-08
7.74516e-08
8.03314e-08
8.30265e-08
8.55444e-08
8.78929e-08
9.00795e-08
9.21129e-08
9.40032e-08
9.57596e-08
9.7391e-08
9.89055e-08
1.00311e-07
1.01615e-07
1.02825e-07
1.03948e-07
1.04989e-07
1.05955e-07
1.06852e-07
1.07684e-07
1.08456e-07
1.09173e-07
1.09839e-07
1.10458e-07
1.11033e-07
1.11568e-07
1.12066e-07
1.12529e-07
1.1296e-07
1.13362e-07
1.13736e-07
1.14086e-07
1.14412e-07
1.14716e-07
1.15001e-07
1.15268e-07
1.15517e-07
1.15751e-07
1.1597e-07
1.16176e-07
1.1637e-07
1.16552e-07
1.16724e-07
1.16885e-07
1.17038e-07
1.17183e-07
1.1732e-07
1.17449e-07
1.17572e-07
1.17689e-07
1.17801e-07
1.17907e-07
1.18009e-07
1.18105e-07
1.18198e-07
1.18287e-07
1.18373e-07
1.18455e-07
1.18534e-07
1.18611e-07
1.18685e-07
1.18756e-07
1.18826e-07
1.18893e-07
1.18958e-07
1.19022e-07
1.19084e-07
1.19145e-07
1.19204e-07
1.19262e-07
1.19318e-07
1.19374e-07
1.19428e-07
1.19482e-07
1.19535e-07
1.19587e-07
1.19638e-07
1.19688e-07
1.19738e-07
1.19787e-07
1.19836e-07
1.19884e-07
1.19931e-07
1.19978e-07
1.20025e-07
1.20071e-07
1.20117e-07
1.20163e-07
1.20208e-07
1.20253e-07
1.20298e-07
1.20342e-07
1.20386e-07
1.2043e-07
1.20474e-07
1.20517e-07
1.20561e-07
1.20604e-07
1.20647e-07
1.20689e-07
1.20732e-07
1.20774e-07
1.20817e-07
1.20859e-07
1.20901e-07
1.20943e-07
1.20985e-07
1.21026e-07
1.21068e-07
1.21109e-07
1.21151e-07
1.21192e-07
1.21233e-07
1.21274e-07
1.21315e-07
1.21356e-07
1.21397e-07
1.21437e-07
1.21478e-07
1.21519e-07
1.21559e-07
1.21599e-07
1.2164e-07
1.2168e-07
1.2172e-07
1.2176e-07
1.218e-07
1.2184e-07
1.2188e-07
1.2192e-07
1.21959e-07
1.21999e-07
1.22039e-07
1.22078e-07
1.22117e-07
1.22157e-07
1.22196e-07
1.22235e-07
1.22275e-07
1.22314e-07
1.22353e-07
1.22392e-07
1.2243e-07
1.22469e-07
1.22508e-07
1.22547e-07
1.22585e-07
1.22624e-07
1.22662e-07
1.227e-07
1.22739e-07
1.22777e-07
1.22815e-07
1.22853e-07
1.22891e-07
1.22929e-07
1.22967e-07
1.23005e-07
1.23043e-07
1.2308e-07
1.23118e-07
1.23155e-07
1.23193e-07
1.2323e-07
1.23267e-07
1.23305e-07
1.23342e-07
1.23379e-07
1.23416e-07
1.23453e-07
1.2349e-07
1.23526e-07
1.23563e-07
1.236e-07
1.23636e-07
1.23673e-07
1.23709e-07
1.23745e-07
1.23781e-07
1.23818e-07
1.23854e-07
1.2389e-07
1.23926e-07
1.23961e-07
1.23997e-07
1.24033e-07
1.24068e-07
1.24104e-07
1.24139e-07
1.24174e-07
1.24209e-07
1.24245e-07
1.2428e-07
1.24315e-07
1.2435e-07
1.24384e-07
1.24419e-07
1.24454e-07
1.24488e-07
1.24523e-07
1.24557e-07
1.24592e-07
1.24625e-07
1.2466e-07
1.24695e-07
1.24728e-07
1.2476e-07
1.24795e-07
1.2483e-07
1.24863e-07
1.24896e-07
1.2493e-07
1.24963e-07
1.24996e-07
1.25029e-07
1.25062e-07
1.25096e-07
1.25128e-07
1.2516e-07
1.25194e-07
1.25227e-07
1.25259e-07
1.25291e-07
1.25323e-07
1.25356e-07
1.25388e-07
1.2542e-07
1.25452e-07
1.25484e-07
1.25515e-07
1.25547e-07
1.25579e-07
1.2561e-07
1.25642e-07
1.25673e-07
1.25703e-07
1.25735e-07
1.25765e-07
1.25797e-07
1.25828e-07
1.25858e-07
1.25889e-07
1.2592e-07
1.25949e-07
1.25979e-07
1.26011e-07
1.26039e-07
1.26069e-07
1.26101e-07
1.2613e-07
1.26158e-07
1.26188e-07
1.26219e-07
1.26248e-07
1.26276e-07
1.26306e-07
1.26336e-07
1.26363e-07
1.26391e-07
1.26423e-07
1.26452e-07
1.26477e-07
1.26506e-07
1.26537e-07
1.26563e-07
1.2659e-07
1.2662e-07
1.26648e-07
1.26675e-07
1.26704e-07
1.26732e-07
1.26756e-07
1.26783e-07
1.26815e-07
1.26841e-07
1.26865e-07
1.26892e-07
1.26923e-07
1.26948e-07
1.26974e-07
1.27e-07
1.27026e-07
1.27055e-07
1.2708e-07
1.27105e-07
1.2713e-07
1.27155e-07
1.27185e-07
1.27209e-07
1.2723e-07
1.27261e-07
1.27285e-07
1.27306e-07
1.27338e-07
1.27358e-07
1.2738e-07
1.27413e-07
1.27432e-07
1.27456e-07
1.27486e-07
1.27507e-07
1.27531e-07
1.27555e-07
1.27579e-07
1.27602e-07
1.27626e-07
1.2765e-07
1.27672e-07
1.27696e-07
1.27722e-07
1.27743e-07
1.27763e-07
1.2779e-07
1.27811e-07
1.27833e-07
1.27857e-07
1.27876e-07
1.27903e-07
1.27924e-07
1.27944e-07
1.27967e-07
1.27987e-07
1.2801e-07
1.28033e-07
1.28054e-07
1.28076e-07
1.28096e-07
1.28117e-07
1.28138e-07
1.28158e-07
1.28179e-07
1.282e-07
1.28221e-07
1.28242e-07
1.2826e-07
1.2828e-07
1.283e-07
1.28321e-07
1.2834e-07
1.2836e-07
1.2838e-07
1.28398e-07
1.28419e-07
1.28437e-07
1.28457e-07
1.28476e-07
1.28494e-07
1.2851e-07
1.28531e-07
1.28548e-07
1.28567e-07
1.28585e-07
1.28601e-07
1.28623e-07
1.28638e-07
1.28656e-07
1.28673e-07
1.28694e-07
1.2871e-07
1.28723e-07
1.28741e-07
1.2876e-07
1.28777e-07
1.28792e-07
1.28811e-07
1.28825e-07
1.28841e-07
1.28858e-07
1.28874e-07
1.28889e-07
1.28908e-07
1.28917e-07
1.28936e-07
1.28953e-07
1.28965e-07
1.28983e-07
1.28998e-07
1.29011e-07
1.29027e-07
1.2904e-07
1.29056e-07
1.29069e-07
1.29082e-07
1.29099e-07
1.29111e-07
1.29125e-07
1.2914e-07
1.29153e-07
1.29166e-07
1.29178e-07
1.29192e-07
1.29205e-07
1.29218e-07
1.2923e-07
1.29245e-07
1.29255e-07
1.29266e-07
1.2928e-07
1.29291e-07
1.29304e-07
1.29316e-07
1.29326e-07
1.29338e-07
1.2935e-07
1.29361e-07
1.29371e-07
1.29383e-07
1.29393e-07
1.29404e-07
1.29415e-07
1.29423e-07
1.29437e-07
1.29445e-07
1.29458e-07
1.29465e-07
1.29475e-07
1.29487e-07
1.29493e-07
1.29506e-07
1.29513e-07
1.29521e-07
1.29532e-07
1.2954e-07
1.2955e-07
1.29557e-07
1.29566e-07
1.29574e-07
1.29583e-07
1.29591e-07
1.29598e-07
1.29604e-07
1.29612e-07
1.29622e-07
1.29628e-07
1.29636e-07
1.29641e-07
1.29649e-07
1.29655e-07
1.29663e-07
1.2967e-07