/*--------------------------------*- C++ -*----------------------------------*\
| =========                 |                                                 |
| \\      /  F ield         | OpenFOAM: The Open Source CFD Toolbox           |
|  \\    /   O peration     | Version:  2012                                  |
|   \\  /    A nd           | Website:  www.openfoam.com                      |
|    \\/     M anipulation  |                                                 |
\*---------------------------------------------------------------------------*/
FoamFile
{
    version     2.0;
    format      ascii;
    class       volScalarField;
    location    "0.1";
    object      p;
}
// * * * * * * * * * * * * * * * * * * * * * * * * * * * * * * * * * * * * * //

dimensions      [1 -1 -2 0 0 0 0];


internalField   nonuniform List<scalar> 
20400
(
3895.19
3905.6
3889.98
3903.25
3895.14
3898.66
3897.03
3897.45
3896.74
3896.61
3896.09
3895.66
3895.16
3894.63
3894.05
3893.42
3892.74
3892.03
3891.28
3890.49
3889.66
3888.8
3887.9
3886.96
3886
3885
3883.97
3882.9
3881.81
3880.68
3879.53
3878.34
3877.12
3875.88
3874.6
3873.3
3871.97
3870.6
3869.21
3867.79
3866.35
3864.87
3863.37
3861.83
3860.27
3858.69
3857.07
3855.43
3853.76
3852.06
3850.33
3848.58
3846.8
3844.99
3843.16
3841.3
3839.41
3837.49
3835.55
3833.57
3831.58
3829.56
3827.51
3825.43
3823.33
3821.2
3819.04
3816.86
3814.64
3812.41
3810.14
3807.86
3805.54
3803.2
3800.83
3798.43
3796.01
3793.56
3791.08
3788.58
3786.05
3783.5
3780.92
3778.31
3775.68
3773.02
3770.33
3767.62
3764.89
3762.12
3759.33
3756.52
3753.68
3750.81
3747.91
3744.99
3742.05
3739.08
3736.08
3733.06
3730.01
3726.94
3723.84
3720.71
3717.56
3714.39
3711.18
3707.96
3704.71
3701.43
3698.12
3694.79
3691.44
3688.06
3684.66
3681.23
3677.77
3674.29
3670.79
3667.25
3663.7
3660.12
3656.51
3652.88
3649.23
3645.55
3641.84
3638.11
3634.36
3630.58
3626.77
3622.94
3619.09
3615.21
3611.31
3607.38
3603.43
3599.46
3595.46
3591.43
3587.38
3583.31
3579.21
3575.09
3570.95
3566.78
3562.58
3558.37
3554.13
3549.86
3545.57
3541.26
3536.92
3532.56
3528.18
3523.77
3519.34
3514.88
3510.4
3505.9
3501.37
3496.83
3492.25
3487.66
3483.04
3478.4
3473.73
3469.04
3464.33
3459.6
3454.84
3450.06
3445.26
3440.43
3435.58
3430.71
3425.82
3420.9
3415.96
3411
3406.02
3401.01
3395.98
3390.93
3385.86
3380.76
3375.64
3370.5
3365.34
3360.15
3354.95
3349.72
3344.47
3339.2
3333.9
3328.59
3323.25
3317.89
3312.51
3307.11
3301.69
3296.24
3290.78
3285.29
3279.78
3274.25
3268.7
3263.13
3257.53
3251.92
3246.29
3240.63
3234.95
3229.26
3223.54
3217.8
3212.04
3206.26
3200.46
3194.64
3188.8
3182.94
3177.06
3171.16
3165.23
3159.29
3153.33
3147.35
3141.35
3135.33
3129.29
3123.22
3117.14
3111.04
3104.92
3098.78
3092.63
3086.45
3080.25
3074.03
3067.8
3061.54
3055.27
3048.98
3042.67
3036.34
3029.99
3023.62
3017.23
3010.83
3004.4
2997.96
2991.5
2985.02
2978.52
2972.01
2965.47
2958.92
2952.35
2945.76
2939.16
2932.53
2925.89
2919.23
2912.55
2905.86
2899.15
2892.42
2885.67
2878.9
2872.12
2865.32
2858.51
2851.67
2844.82
2837.95
2831.07
2824.17
2817.25
2810.32
2803.37
2796.4
2789.41
2782.41
2775.39
2768.36
2761.31
2754.25
2747.16
2740.06
2732.95
2725.82
2718.67
2711.51
2704.34
2697.14
2689.93
2682.71
2675.47
2668.22
2660.95
2653.66
2646.36
2639.04
2631.71
2624.37
2617
2609.64
2602.25
2594.83
2587.42
2579.99
2572.53
2565.07
2557.6
2550.1
2542.6
2535.08
2527.54
2520
2512.44
2504.86
2497.27
2489.67
2482.06
2474.43
2466.78
2459.13
2451.46
2443.77
2436.08
2428.37
2420.64
2412.91
2405.16
2397.4
2389.63
2381.84
2374.03
2366.23
2358.41
2350.56
2342.71
2334.85
2326.99
2319.1
2311.2
2303.29
2295.37
2287.43
2279.48
2271.54
2263.57
2255.58
2247.6
2239.6
2231.57
2223.56
2215.52
2207.47
2199.42
2191.34
2183.27
2175.18
2167.07
2158.96
2150.83
2142.71
2134.57
2126.41
2118.23
2110.07
2101.89
2093.69
2085.49
2077.28
2069.05
2060.82
2052.58
2044.32
2036.06
2027.79
2019.51
2011.22
2002.92
1994.6
1986.29
1977.97
1969.64
1961.29
1952.93
1944.57
1936.21
1927.83
1919.44
1911.05
1902.64
1894.23
1885.81
1877.39
1868.95
1860.51
1852.05
1843.59
1835.13
1826.65
1818.18
1809.69
1801.19
1792.69
1784.17
1775.65
1767.13
1758.6
1750.06
1741.51
1732.96
1724.4
1715.84
1707.27
1698.69
1690.1
1681.51
1672.92
1664.31
1655.71
1647.09
1638.47
1629.84
1621.21
1612.57
1603.92
1595.28
1586.62
1577.97
1569.3
1560.63
1551.96
1543.27
1534.59
1525.9
1517.2
1508.51
1499.8
1491.09
1482.38
1473.66
1464.94
1456.22
1447.49
1438.75
1430.01
1421.27
1412.53
1403.78
1395.03
1386.27
1377.51
1368.74
1359.98
1351.21
1342.44
1333.66
1324.88
1316.1
1307.31
1298.53
1289.74
1280.95
1272.15
1263.35
1254.55
1245.75
1236.94
1228.14
1219.33
1210.52
1201.7
1192.89
1184.07
1175.25
1166.43
1157.61
1148.79
1139.97
1131.14
1122.31
1113.48
1104.66
1095.83
1086.99
1078.17
1069.32
1060.59
1051.56
1043.07
1034
1024.75
1017.36
1005.56
3894.43
3905.39
3889.6
3903.36
3894.96
3898.59
3896.87
3897.29
3896.54
3896.4
3895.85
3895.41
3894.91
3894.37
3893.8
3893.19
3892.53
3891.84
3891.1
3890.33
3889.51
3888.66
3887.78
3886.86
3885.9
3884.91
3883.89
3882.84
3881.75
3880.63
3879.48
3878.3
3877.09
3875.85
3874.58
3873.27
3871.94
3870.58
3869.2
3867.78
3866.33
3864.86
3863.36
3861.83
3860.27
3858.68
3857.07
3855.42
3853.75
3852.06
3850.33
3848.58
3846.8
3844.99
3843.16
3841.3
3839.41
3837.49
3835.55
3833.58
3831.58
3829.56
3827.51
3825.43
3823.33
3821.2
3819.04
3816.86
3814.65
3812.41
3810.14
3807.86
3805.54
3803.2
3800.83
3798.43
3796.01
3793.56
3791.08
3788.58
3786.05
3783.5
3780.92
3778.31
3775.68
3773.02
3770.33
3767.62
3764.88
3762.12
3759.33
3756.52
3753.67
3750.81
3747.91
3744.99
3742.05
3739.08
3736.08
3733.06
3730.01
3726.94
3723.84
3720.71
3717.56
3714.39
3711.18
3707.96
3704.7
3701.43
3698.12
3694.79
3691.44
3688.06
3684.66
3681.23
3677.77
3674.29
3670.78
3667.25
3663.7
3660.12
3656.51
3652.88
3649.23
3645.55
3641.84
3638.11
3634.36
3630.58
3626.77
3622.94
3619.09
3615.21
3611.31
3607.38
3603.43
3599.46
3595.46
3591.43
3587.38
3583.31
3579.21
3575.09
3570.95
3566.78
3562.58
3558.37
3554.12
3549.86
3545.57
3541.26
3536.92
3532.56
3528.18
3523.77
3519.34
3514.88
3510.4
3505.9
3501.37
3496.83
3492.25
3487.66
3483.04
3478.4
3473.73
3469.04
3464.33
3459.6
3454.84
3450.06
3445.26
3440.43
3435.58
3430.71
3425.82
3420.9
3415.96
3411
3406.01
3401.01
3395.98
3390.93
3385.85
3380.76
3375.64
3370.5
3365.34
3360.15
3354.95
3349.72
3344.47
3339.2
3333.9
3328.59
3323.25
3317.89
3312.51
3307.11
3301.69
3296.24
3290.78
3285.29
3279.78
3274.25
3268.7
3263.13
3257.53
3251.92
3246.29
3240.63
3234.95
3229.26
3223.54
3217.8
3212.04
3206.26
3200.46
3194.64
3188.8
3182.94
3177.06
3171.16
3165.23
3159.29
3153.33
3147.35
3141.35
3135.33
3129.29
3123.22
3117.14
3111.04
3104.92
3098.78
3092.63
3086.45
3080.25
3074.03
3067.8
3061.54
3055.27
3048.98
3042.67
3036.34
3029.99
3023.62
3017.23
3010.83
3004.4
2997.96
2991.5
2985.02
2978.52
2972.01
2965.47
2958.92
2952.35
2945.76
2939.16
2932.53
2925.89
2919.23
2912.55
2905.86
2899.14
2892.42
2885.67
2878.9
2872.12
2865.32
2858.51
2851.67
2844.82
2837.95
2831.07
2824.17
2817.25
2810.31
2803.37
2796.4
2789.41
2782.41
2775.39
2768.36
2761.31
2754.25
2747.16
2740.06
2732.95
2725.82
2718.67
2711.51
2704.34
2697.14
2689.93
2682.71
2675.47
2668.22
2660.95
2653.66
2646.36
2639.04
2631.71
2624.37
2617
2609.64
2602.25
2594.83
2587.42
2579.99
2572.53
2565.07
2557.6
2550.1
2542.6
2535.08
2527.55
2520
2512.44
2504.87
2497.27
2489.67
2482.06
2474.43
2466.79
2459.13
2451.45
2443.77
2436.08
2428.37
2420.64
2412.91
2405.16
2397.4
2389.63
2381.84
2374.03
2366.23
2358.41
2350.56
2342.71
2334.86
2326.98
2319.1
2311.2
2303.29
2295.37
2287.44
2279.48
2271.53
2263.57
2255.58
2247.6
2239.59
2231.58
2223.56
2215.52
2207.47
2199.42
2191.34
2183.26
2175.18
2167.07
2158.96
2150.84
2142.71
2134.56
2126.41
2118.24
2110.07
2101.89
2093.69
2085.49
2077.27
2069.05
2060.82
2052.58
2044.32
2036.06
2027.79
2019.51
2011.22
2002.92
1994.6
1986.29
1977.97
1969.63
1961.29
1952.94
1944.57
1936.21
1927.83
1919.44
1911.05
1902.64
1894.23
1885.81
1877.39
1868.95
1860.51
1852.05
1843.59
1835.13
1826.65
1818.18
1809.69
1801.19
1792.69
1784.17
1775.65
1767.13
1758.6
1750.06
1741.51
1732.96
1724.4
1715.84
1707.27
1698.69
1690.1
1681.51
1672.92
1664.31
1655.71
1647.09
1638.47
1629.84
1621.21
1612.57
1603.92
1595.28
1586.62
1577.97
1569.3
1560.63
1551.96
1543.27
1534.59
1525.9
1517.2
1508.51
1499.8
1491.09
1482.38
1473.66
1464.94
1456.22
1447.49
1438.75
1430.02
1421.27
1412.53
1403.78
1395.03
1386.27
1377.51
1368.74
1359.98
1351.21
1342.44
1333.66
1324.88
1316.1
1307.32
1298.53
1289.74
1280.94
1272.15
1263.35
1254.55
1245.75
1236.94
1228.14
1219.33
1210.51
1201.7
1192.89
1184.07
1175.25
1166.43
1157.61
1148.79
1139.97
1131.14
1122.31
1113.48
1104.66
1095.83
1086.99
1078.17
1069.32
1060.59
1051.56
1043.07
1034.01
1024.76
1017.4
1005.6
3894.68
3905.52
3889.52
3903.25
3894.85
3898.53
3896.81
3897.25
3896.52
3896.4
3895.87
3895.44
3894.94
3894.4
3893.82
3893.21
3892.55
3891.85
3891.11
3890.34
3889.52
3888.67
3887.79
3886.87
3885.91
3884.92
3883.9
3882.84
3881.75
3880.63
3879.48
3878.3
3877.09
3875.84
3874.57
3873.27
3871.94
3870.58
3869.19
3867.77
3866.32
3864.85
3863.35
3861.81
3860.26
3858.67
3857.05
3855.41
3853.74
3852.04
3850.32
3848.57
3846.79
3844.98
3843.14
3841.28
3839.4
3837.48
3835.54
3833.57
3831.57
3829.55
3827.5
3825.42
3823.32
3821.19
3819.03
3816.85
3814.64
3812.4
3810.14
3807.85
3805.53
3803.19
3800.82
3798.43
3796
3793.56
3791.08
3788.58
3786.05
3783.5
3780.92
3778.31
3775.68
3773.02
3770.33
3767.62
3764.88
3762.12
3759.33
3756.51
3753.67
3750.81
3747.91
3744.99
3742.05
3739.08
3736.08
3733.06
3730.01
3726.94
3723.84
3720.71
3717.56
3714.39
3711.18
3707.96
3704.7
3701.43
3698.12
3694.79
3691.44
3688.06
3684.65
3681.22
3677.77
3674.29
3670.78
3667.25
3663.7
3660.12
3656.51
3652.88
3649.23
3645.55
3641.84
3638.11
3634.36
3630.58
3626.77
3622.94
3619.09
3615.21
3611.31
3607.38
3603.43
3599.46
3595.46
3591.43
3587.38
3583.31
3579.21
3575.09
3570.95
3566.78
3562.58
3558.37
3554.12
3549.86
3545.57
3541.26
3536.92
3532.56
3528.17
3523.77
3519.34
3514.88
3510.4
3505.9
3501.37
3496.82
3492.25
3487.66
3483.04
3478.4
3473.73
3469.04
3464.33
3459.6
3454.84
3450.06
3445.26
3440.43
3435.58
3430.71
3425.82
3420.9
3415.96
3411
3406.01
3401.01
3395.98
3390.93
3385.85
3380.76
3375.64
3370.5
3365.34
3360.15
3354.95
3349.72
3344.47
3339.2
3333.9
3328.59
3323.25
3317.89
3312.51
3307.11
3301.69
3296.24
3290.77
3285.29
3279.78
3274.25
3268.7
3263.13
3257.53
3251.92
3246.28
3240.63
3234.95
3229.26
3223.54
3217.8
3212.04
3206.26
3200.46
3194.64
3188.8
3182.94
3177.06
3171.15
3165.23
3159.29
3153.33
3147.35
3141.35
3135.33
3129.28
3123.22
3117.14
3111.04
3104.92
3098.78
3092.63
3086.45
3080.25
3074.03
3067.8
3061.54
3055.27
3048.98
3042.67
3036.33
3029.99
3023.62
3017.23
3010.83
3004.4
2997.96
2991.5
2985.02
2978.52
2972.01
2965.47
2958.92
2952.35
2945.76
2939.16
2932.53
2925.89
2919.23
2912.55
2905.86
2899.14
2892.42
2885.67
2878.9
2872.12
2865.32
2858.51
2851.67
2844.82
2837.95
2831.07
2824.17
2817.25
2810.31
2803.37
2796.4
2789.41
2782.41
2775.39
2768.36
2761.31
2754.24
2747.16
2740.07
2732.95
2725.82
2718.67
2711.51
2704.34
2697.14
2689.93
2682.71
2675.47
2668.22
2660.94
2653.66
2646.36
2639.04
2631.72
2624.37
2617
2609.64
2602.25
2594.83
2587.42
2579.98
2572.53
2565.07
2557.6
2550.1
2542.6
2535.08
2527.55
2520
2512.43
2504.86
2497.27
2489.66
2482.06
2474.43
2466.79
2459.13
2451.45
2443.77
2436.08
2428.36
2420.64
2412.91
2405.16
2397.4
2389.62
2381.84
2374.04
2366.22
2358.4
2350.56
2342.71
2334.86
2326.98
2319.1
2311.2
2303.29
2295.37
2287.44
2279.49
2271.53
2263.57
2255.58
2247.59
2239.59
2231.58
2223.55
2215.52
2207.47
2199.41
2191.34
2183.26
2175.17
2167.07
2158.96
2150.84
2142.71
2134.56
2126.4
2118.24
2110.07
2101.89
2093.7
2085.49
2077.27
2069.06
2060.82
2052.58
2044.32
2036.06
2027.8
2019.51
2011.22
2002.92
1994.61
1986.29
1977.97
1969.63
1961.29
1952.94
1944.57
1936.2
1927.83
1919.44
1911.05
1902.64
1894.23
1885.81
1877.39
1868.95
1860.5
1852.05
1843.59
1835.13
1826.64
1818.17
1809.69
1801.19
1792.69
1784.17
1775.66
1767.13
1758.6
1750.06
1741.51
1732.96
1724.4
1715.84
1707.27
1698.69
1690.1
1681.51
1672.92
1664.31
1655.7
1647.09
1638.47
1629.84
1621.21
1612.57
1603.93
1595.28
1586.62
1577.97
1569.3
1560.63
1551.95
1543.27
1534.59
1525.9
1517.2
1508.51
1499.8
1491.09
1482.38
1473.66
1464.94
1456.22
1447.48
1438.76
1430.01
1421.27
1412.53
1403.78
1395.03
1386.27
1377.51
1368.75
1359.98
1351.21
1342.44
1333.66
1324.88
1316.1
1307.32
1298.53
1289.74
1280.94
1272.15
1263.35
1254.55
1245.75
1236.94
1228.14
1219.33
1210.52
1201.7
1192.89
1184.07
1175.25
1166.43
1157.61
1148.79
1139.97
1131.14
1122.31
1113.49
1104.66
1095.83
1086.99
1078.18
1069.32
1060.59
1051.56
1043.08
1034.01
1024.77
1017.43
1005.62
3894.46
3905.42
3889.4
3903.27
3894.81
3898.52
3896.78
3897.22
3896.48
3896.35
3895.82
3895.39
3894.9
3894.37
3893.8
3893.18
3892.52
3891.82
3891.08
3890.31
3889.5
3888.65
3887.77
3886.84
3885.89
3884.9
3883.88
3882.82
3881.74
3880.62
3879.47
3878.29
3877.08
3875.83
3874.56
3873.26
3871.93
3870.57
3869.18
3867.77
3866.32
3864.84
3863.34
3861.81
3860.25
3858.67
3857.05
3855.41
3853.74
3852.04
3850.32
3848.57
3846.79
3844.98
3843.15
3841.28
3839.4
3837.48
3835.54
3833.57
3831.57
3829.55
3827.5
3825.42
3823.32
3821.19
3819.03
3816.85
3814.64
3812.4
3810.14
3807.85
3805.53
3803.19
3800.82
3798.43
3796
3793.56
3791.08
3788.58
3786.05
3783.5
3780.92
3778.31
3775.68
3773.02
3770.33
3767.62
3764.88
3762.12
3759.33
3756.51
3753.67
3750.81
3747.91
3744.99
3742.05
3739.08
3736.08
3733.06
3730.01
3726.94
3723.84
3720.71
3717.56
3714.38
3711.18
3707.96
3704.7
3701.42
3698.12
3694.79
3691.44
3688.06
3684.65
3681.22
3677.77
3674.29
3670.78
3667.25
3663.7
3660.12
3656.51
3652.88
3649.22
3645.54
3641.84
3638.11
3634.36
3630.58
3626.77
3622.94
3619.09
3615.21
3611.31
3607.38
3603.43
3599.46
3595.46
3591.43
3587.38
3583.31
3579.21
3575.09
3570.95
3566.78
3562.58
3558.37
3554.12
3549.86
3545.57
3541.26
3536.92
3532.56
3528.17
3523.77
3519.33
3514.88
3510.4
3505.9
3501.37
3496.82
3492.25
3487.66
3483.04
3478.4
3473.73
3469.04
3464.33
3459.6
3454.84
3450.06
3445.26
3440.43
3435.58
3430.71
3425.82
3420.9
3415.96
3411
3406.01
3401.01
3395.98
3390.93
3385.85
3380.76
3375.64
3370.5
3365.34
3360.15
3354.95
3349.72
3344.47
3339.2
3333.9
3328.59
3323.25
3317.89
3312.51
3307.11
3301.69
3296.24
3290.77
3285.29
3279.78
3274.25
3268.7
3263.13
3257.53
3251.92
3246.28
3240.63
3234.95
3229.26
3223.54
3217.8
3212.04
3206.26
3200.46
3194.64
3188.8
3182.94
3177.06
3171.15
3165.23
3159.29
3153.33
3147.35
3141.35
3135.33
3129.28
3123.22
3117.14
3111.04
3104.92
3098.78
3092.63
3086.45
3080.25
3074.03
3067.8
3061.54
3055.27
3048.98
3042.67
3036.33
3029.99
3023.62
3017.23
3010.83
3004.4
2997.96
2991.5
2985.02
2978.52
2972.01
2965.47
2958.92
2952.35
2945.76
2939.16
2932.53
2925.89
2919.23
2912.56
2905.86
2899.14
2892.42
2885.67
2878.9
2872.12
2865.32
2858.51
2851.67
2844.82
2837.95
2831.07
2824.17
2817.25
2810.31
2803.36
2796.4
2789.41
2782.41
2775.39
2768.36
2761.31
2754.24
2747.16
2740.06
2732.95
2725.82
2718.67
2711.51
2704.34
2697.14
2689.93
2682.7
2675.47
2668.22
2660.94
2653.66
2646.36
2639.04
2631.72
2624.37
2617
2609.64
2602.25
2594.83
2587.42
2579.98
2572.53
2565.07
2557.6
2550.1
2542.6
2535.08
2527.55
2520
2512.43
2504.86
2497.27
2489.66
2482.06
2474.42
2466.79
2459.13
2451.45
2443.77
2436.08
2428.36
2420.64
2412.9
2405.16
2397.4
2389.62
2381.84
2374.04
2366.22
2358.4
2350.57
2342.72
2334.86
2326.98
2319.1
2311.2
2303.29
2295.37
2287.43
2279.49
2271.53
2263.57
2255.59
2247.6
2239.59
2231.58
2223.55
2215.52
2207.47
2199.42
2191.34
2183.26
2175.17
2167.07
2158.96
2150.84
2142.71
2134.55
2126.4
2118.24
2110.07
2101.89
2093.7
2085.49
2077.27
2069.06
2060.82
2052.58
2044.32
2036.06
2027.8
2019.51
2011.21
2002.92
1994.61
1986.3
1977.97
1969.63
1961.29
1952.94
1944.57
1936.2
1927.83
1919.44
1911.05
1902.64
1894.23
1885.82
1877.39
1868.95
1860.5
1852.05
1843.6
1835.13
1826.65
1818.17
1809.69
1801.19
1792.68
1784.17
1775.66
1767.13
1758.6
1750.06
1741.51
1732.96
1724.4
1715.84
1707.27
1698.69
1690.1
1681.51
1672.92
1664.31
1655.7
1647.09
1638.47
1629.84
1621.2
1612.57
1603.92
1595.28
1586.62
1577.96
1569.3
1560.63
1551.95
1543.27
1534.59
1525.9
1517.2
1508.51
1499.8
1491.09
1482.38
1473.66
1464.94
1456.22
1447.48
1438.75
1430.01
1421.27
1412.53
1403.78
1395.03
1386.27
1377.51
1368.75
1359.98
1351.21
1342.44
1333.66
1324.88
1316.1
1307.31
1298.53
1289.74
1280.95
1272.15
1263.35
1254.55
1245.75
1236.94
1228.14
1219.33
1210.52
1201.7
1192.89
1184.07
1175.25
1166.43
1157.61
1148.79
1139.97
1131.14
1122.31
1113.49
1104.66
1095.83
1086.99
1078.18
1069.32
1060.59
1051.56
1043.08
1034.02
1024.79
1017.45
1005.62
3894.48
3905.39
3889.32
3903.15
3894.71
3898.43
3896.68
3897.15
3896.42
3896.3
3895.79
3895.37
3894.89
3894.37
3893.8
3893.19
3892.53
3891.83
3891.1
3890.32
3889.5
3888.65
3887.77
3886.85
3885.89
3884.9
3883.88
3882.83
3881.74
3880.62
3879.47
3878.29
3877.08
3875.83
3874.56
3873.26
3871.93
3870.57
3869.18
3867.76
3866.32
3864.84
3863.34
3861.81
3860.25
3858.66
3857.05
3855.41
3853.74
3852.04
3850.31
3848.56
3846.78
3844.98
3843.14
3841.28
3839.39
3837.48
3835.54
3833.57
3831.57
3829.55
3827.5
3825.42
3823.32
3821.19
3819.03
3816.85
3814.64
3812.4
3810.14
3807.85
3805.53
3803.19
3800.82
3798.43
3796
3793.55
3791.08
3788.58
3786.05
3783.5
3780.92
3778.31
3775.68
3773.02
3770.33
3767.62
3764.88
3762.12
3759.33
3756.51
3753.67
3750.8
3747.91
3744.99
3742.05
3739.08
3736.08
3733.06
3730.01
3726.94
3723.84
3720.71
3717.56
3714.38
3711.18
3707.96
3704.7
3701.42
3698.12
3694.79
3691.44
3688.06
3684.65
3681.22
3677.77
3674.29
3670.78
3667.25
3663.7
3660.12
3656.51
3652.88
3649.22
3645.54
3641.84
3638.11
3634.35
3630.58
3626.77
3622.94
3619.09
3615.21
3611.31
3607.38
3603.43
3599.46
3595.45
3591.43
3587.38
3583.31
3579.21
3575.09
3570.95
3566.78
3562.58
3558.36
3554.12
3549.86
3545.57
3541.26
3536.92
3532.56
3528.17
3523.77
3519.33
3514.88
3510.4
3505.9
3501.37
3496.82
3492.25
3487.66
3483.04
3478.4
3473.73
3469.04
3464.33
3459.6
3454.84
3450.06
3445.26
3440.43
3435.58
3430.71
3425.82
3420.9
3415.96
3411
3406.01
3401.01
3395.98
3390.93
3385.85
3380.76
3375.64
3370.5
3365.34
3360.15
3354.95
3349.72
3344.47
3339.2
3333.9
3328.59
3323.25
3317.89
3312.51
3307.11
3301.69
3296.24
3290.77
3285.29
3279.78
3274.25
3268.7
3263.12
3257.53
3251.92
3246.28
3240.63
3234.95
3229.25
3223.54
3217.8
3212.04
3206.26
3200.46
3194.64
3188.8
3182.94
3177.05
3171.15
3165.23
3159.29
3153.33
3147.35
3141.35
3135.33
3129.28
3123.22
3117.14
3111.04
3104.92
3098.78
3092.63
3086.45
3080.25
3074.03
3067.8
3061.54
3055.27
3048.98
3042.66
3036.33
3029.99
3023.62
3017.23
3010.83
3004.4
2997.96
2991.5
2985.02
2978.52
2972
2965.47
2958.92
2952.35
2945.76
2939.16
2932.53
2925.89
2919.23
2912.56
2905.85
2899.14
2892.42
2885.67
2878.9
2872.12
2865.32
2858.51
2851.67
2844.82
2837.95
2831.07
2824.17
2817.25
2810.31
2803.36
2796.4
2789.41
2782.4
2775.39
2768.36
2761.31
2754.24
2747.16
2740.06
2732.95
2725.82
2718.67
2711.51
2704.33
2697.14
2689.94
2682.7
2675.47
2668.22
2660.93
2653.66
2646.36
2639.04
2631.72
2624.37
2617
2609.64
2602.24
2594.83
2587.42
2579.98
2572.53
2565.07
2557.6
2550.11
2542.59
2535.08
2527.55
2520
2512.44
2504.86
2497.27
2489.67
2482.06
2474.42
2466.79
2459.13
2451.45
2443.77
2436.07
2428.36
2420.64
2412.9
2405.16
2397.4
2389.62
2381.84
2374.04
2366.22
2358.39
2350.57
2342.72
2334.85
2326.98
2319.1
2311.2
2303.29
2295.37
2287.43
2279.49
2271.54
2263.57
2255.59
2247.6
2239.59
2231.58
2223.56
2215.52
2207.47
2199.42
2191.34
2183.26
2175.17
2167.07
2158.96
2150.84
2142.71
2134.55
2126.4
2118.24
2110.07
2101.89
2093.7
2085.48
2077.27
2069.06
2060.82
2052.58
2044.32
2036.06
2027.79
2019.51
2011.22
2002.92
1994.61
1986.3
1977.97
1969.63
1961.29
1952.94
1944.57
1936.21
1927.83
1919.44
1911.05
1902.64
1894.23
1885.81
1877.38
1868.95
1860.5
1852.05
1843.59
1835.13
1826.65
1818.17
1809.68
1801.19
1792.68
1784.17
1775.66
1767.13
1758.6
1750.06
1741.51
1732.96
1724.4
1715.84
1707.26
1698.69
1690.1
1681.51
1672.92
1664.31
1655.7
1647.09
1638.47
1629.84
1621.2
1612.57
1603.92
1595.28
1586.62
1577.96
1569.3
1560.63
1551.95
1543.27
1534.59
1525.9
1517.2
1508.51
1499.8
1491.09
1482.38
1473.66
1464.94
1456.22
1447.48
1438.75
1430.01
1421.27
1412.53
1403.78
1395.03
1386.27
1377.51
1368.75
1359.98
1351.21
1342.44
1333.66
1324.88
1316.1
1307.32
1298.53
1289.74
1280.95
1272.15
1263.35
1254.55
1245.75
1236.94
1228.14
1219.33
1210.52
1201.7
1192.89
1184.07
1175.25
1166.43
1157.61
1148.79
1139.97
1131.14
1122.31
1113.49
1104.66
1095.83
1087
1078.18
1069.32
1060.6
1051.57
1043.09
1034.03
1024.8
1017.45
1005.63
3894.37
3905.36
3889.3
3903.17
3894.76
3898.49
3896.71
3897.18
3896.45
3896.31
3895.8
3895.37
3894.89
3894.36
3893.79
3893.18
3892.52
3891.82
3891.09
3890.31
3889.49
3888.65
3887.76
3886.84
3885.89
3884.9
3883.87
3882.82
3881.73
3880.61
3879.46
3878.28
3877.07
3875.83
3874.56
3873.26
3871.92
3870.57
3869.18
3867.76
3866.31
3864.84
3863.34
3861.81
3860.25
3858.66
3857.05
3855.4
3853.73
3852.04
3850.31
3848.56
3846.78
3844.97
3843.14
3841.28
3839.39
3837.48
3835.53
3833.57
3831.57
3829.55
3827.5
3825.42
3823.32
3821.19
3819.03
3816.85
3814.64
3812.4
3810.14
3807.85
3805.53
3803.19
3800.82
3798.43
3796
3793.55
3791.08
3788.58
3786.05
3783.49
3780.91
3778.31
3775.67
3773.02
3770.33
3767.62
3764.88
3762.12
3759.33
3756.51
3753.67
3750.8
3747.91
3744.99
3742.05
3739.08
3736.08
3733.06
3730.01
3726.93
3723.84
3720.71
3717.56
3714.38
3711.18
3707.95
3704.7
3701.42
3698.12
3694.79
3691.44
3688.06
3684.65
3681.22
3677.77
3674.29
3670.78
3667.25
3663.7
3660.12
3656.51
3652.88
3649.22
3645.54
3641.84
3638.11
3634.35
3630.57
3626.77
3622.94
3619.09
3615.21
3611.31
3607.38
3603.43
3599.45
3595.45
3591.43
3587.38
3583.31
3579.21
3575.09
3570.94
3566.78
3562.58
3558.36
3554.12
3549.86
3545.57
3541.25
3536.92
3532.56
3528.17
3523.77
3519.33
3514.88
3510.4
3505.9
3501.37
3496.82
3492.25
3487.65
3483.04
3478.4
3473.73
3469.04
3464.33
3459.6
3454.84
3450.06
3445.26
3440.43
3435.58
3430.71
3425.82
3420.9
3415.96
3411
3406.01
3401.01
3395.98
3390.93
3385.85
3380.76
3375.64
3370.5
3365.34
3360.15
3354.94
3349.72
3344.47
3339.19
3333.9
3328.59
3323.25
3317.89
3312.51
3307.11
3301.68
3296.24
3290.77
3285.28
3279.78
3274.25
3268.7
3263.12
3257.53
3251.92
3246.28
3240.63
3234.95
3229.25
3223.53
3217.8
3212.04
3206.26
3200.46
3194.64
3188.8
3182.94
3177.05
3171.15
3165.23
3159.29
3153.33
3147.35
3141.35
3135.32
3129.28
3123.22
3117.14
3111.04
3104.92
3098.78
3092.62
3086.45
3080.25
3074.03
3067.8
3061.54
3055.27
3048.98
3042.66
3036.34
3029.99
3023.62
3017.23
3010.83
3004.4
2997.96
2991.5
2985.02
2978.52
2972
2965.47
2958.92
2952.35
2945.76
2939.16
2932.54
2925.89
2919.23
2912.55
2905.86
2899.14
2892.42
2885.67
2878.9
2872.12
2865.32
2858.51
2851.67
2844.82
2837.95
2831.07
2824.17
2817.25
2810.32
2803.36
2796.4
2789.41
2782.4
2775.39
2768.36
2761.31
2754.24
2747.17
2740.06
2732.94
2725.82
2718.67
2711.51
2704.33
2697.14
2689.94
2682.7
2675.47
2668.22
2660.93
2653.66
2646.36
2639.04
2631.72
2624.37
2617
2609.64
2602.24
2594.83
2587.42
2579.98
2572.53
2565.07
2557.6
2550.11
2542.58
2535.08
2527.55
2520
2512.44
2504.86
2497.27
2489.67
2482.06
2474.42
2466.78
2459.13
2451.45
2443.77
2436.07
2428.37
2420.65
2412.9
2405.16
2397.4
2389.62
2381.84
2374.04
2366.22
2358.39
2350.57
2342.72
2334.85
2326.98
2319.1
2311.2
2303.29
2295.37
2287.43
2279.49
2271.54
2263.57
2255.58
2247.6
2239.59
2231.57
2223.56
2215.52
2207.47
2199.42
2191.34
2183.26
2175.18
2167.07
2158.96
2150.84
2142.7
2134.56
2126.41
2118.24
2110.07
2101.89
2093.7
2085.49
2077.27
2069.05
2060.82
2052.58
2044.32
2036.06
2027.79
2019.51
2011.22
2002.92
1994.61
1986.29
1977.97
1969.63
1961.29
1952.93
1944.58
1936.21
1927.82
1919.44
1911.05
1902.64
1894.23
1885.81
1877.38
1868.95
1860.5
1852.05
1843.6
1835.13
1826.65
1818.18
1809.68
1801.19
1792.68
1784.17
1775.66
1767.13
1758.6
1750.06
1741.51
1732.96
1724.4
1715.84
1707.26
1698.69
1690.11
1681.51
1672.92
1664.31
1655.7
1647.09
1638.47
1629.84
1621.21
1612.57
1603.92
1595.28
1586.62
1577.96
1569.3
1560.63
1551.95
1543.27
1534.59
1525.9
1517.21
1508.51
1499.8
1491.09
1482.38
1473.66
1464.94
1456.22
1447.49
1438.75
1430.01
1421.27
1412.53
1403.78
1395.03
1386.27
1377.51
1368.75
1359.98
1351.21
1342.44
1333.66
1324.88
1316.1
1307.32
1298.53
1289.74
1280.95
1272.15
1263.35
1254.55
1245.75
1236.94
1228.14
1219.33
1210.52
1201.7
1192.89
1184.07
1175.25
1166.43
1157.61
1148.79
1139.97
1131.14
1122.31
1113.49
1104.66
1095.83
1087
1078.18
1069.32
1060.6
1051.57
1043.1
1034.03
1024.81
1017.45
1005.63
3894.33
3905.25
3889.19
3903.02
3894.66
3898.4
3896.61
3897.1
3896.39
3896.26
3895.77
3895.35
3894.87
3894.36
3893.79
3893.19
3892.53
3891.84
3891.1
3890.33
3889.52
3888.67
3887.78
3886.85
3885.9
3884.91
3883.88
3882.83
3881.74
3880.62
3879.47
3878.29
3877.08
3875.83
3874.56
3873.26
3871.93
3870.57
3869.18
3867.76
3866.31
3864.84
3863.34
3861.81
3860.25
3858.66
3857.05
3855.4
3853.73
3852.04
3850.31
3848.56
3846.78
3844.97
3843.14
3841.28
3839.39
3837.48
3835.53
3833.56
3831.57
3829.55
3827.5
3825.42
3823.32
3821.19
3819.03
3816.85
3814.64
3812.4
3810.14
3807.85
3805.53
3803.19
3800.82
3798.42
3796
3793.55
3791.08
3788.58
3786.05
3783.49
3780.91
3778.31
3775.67
3773.01
3770.33
3767.62
3764.88
3762.12
3759.33
3756.51
3753.67
3750.8
3747.91
3744.99
3742.05
3739.08
3736.08
3733.06
3730.01
3726.93
3723.83
3720.71
3717.56
3714.38
3711.18
3707.95
3704.7
3701.42
3698.12
3694.79
3691.44
3688.06
3684.65
3681.22
3677.77
3674.29
3670.78
3667.25
3663.7
3660.11
3656.51
3652.88
3649.22
3645.54
3641.84
3638.11
3634.35
3630.57
3626.77
3622.94
3619.09
3615.21
3611.31
3607.38
3603.43
3599.45
3595.45
3591.43
3587.38
3583.31
3579.21
3575.09
3570.94
3566.77
3562.58
3558.36
3554.12
3549.86
3545.57
3541.25
3536.92
3532.56
3528.17
3523.77
3519.33
3514.88
3510.4
3505.9
3501.37
3496.82
3492.25
3487.65
3483.04
3478.39
3473.73
3469.04
3464.33
3459.6
3454.84
3450.06
3445.25
3440.43
3435.58
3430.71
3425.81
3420.9
3415.96
3411
3406.01
3401.01
3395.98
3390.93
3385.85
3380.76
3375.64
3370.5
3365.34
3360.15
3354.94
3349.72
3344.47
3339.2
3333.9
3328.58
3323.25
3317.89
3312.51
3307.11
3301.68
3296.24
3290.77
3285.28
3279.78
3274.25
3268.7
3263.12
3257.53
3251.92
3246.28
3240.63
3234.95
3229.25
3223.53
3217.8
3212.04
3206.26
3200.46
3194.64
3188.8
3182.94
3177.05
3171.15
3165.23
3159.29
3153.33
3147.35
3141.35
3135.32
3129.28
3123.22
3117.14
3111.04
3104.92
3098.78
3092.62
3086.45
3080.25
3074.03
3067.8
3061.54
3055.27
3048.97
3042.66
3036.34
3029.99
3023.61
3017.23
3010.83
3004.41
2997.96
2991.5
2985.02
2978.52
2972
2965.47
2958.92
2952.35
2945.76
2939.16
2932.53
2925.89
2919.23
2912.55
2905.86
2899.14
2892.42
2885.67
2878.9
2872.12
2865.32
2858.5
2851.67
2844.82
2837.95
2831.07
2824.17
2817.24
2810.31
2803.36
2796.4
2789.41
2782.4
2775.39
2768.36
2761.3
2754.24
2747.17
2740.06
2732.95
2725.82
2718.67
2711.51
2704.33
2697.14
2689.93
2682.71
2675.47
2668.22
2660.93
2653.66
2646.36
2639.04
2631.71
2624.36
2617
2609.63
2602.24
2594.83
2587.42
2579.98
2572.53
2565.08
2557.6
2550.11
2542.58
2535.08
2527.55
2520
2512.44
2504.86
2497.27
2489.67
2482.06
2474.42
2466.78
2459.13
2451.45
2443.77
2436.07
2428.37
2420.65
2412.9
2405.16
2397.4
2389.62
2381.84
2374.04
2366.22
2358.39
2350.57
2342.72
2334.85
2326.98
2319.1
2311.19
2303.29
2295.37
2287.43
2279.49
2271.54
2263.56
2255.58
2247.59
2239.59
2231.57
2223.56
2215.52
2207.47
2199.42
2191.34
2183.26
2175.18
2167.07
2158.96
2150.84
2142.7
2134.56
2126.41
2118.24
2110.08
2101.88
2093.7
2085.49
2077.27
2069.05
2060.82
2052.58
2044.32
2036.06
2027.79
2019.51
2011.22
2002.92
1994.61
1986.29
1977.96
1969.64
1961.29
1952.93
1944.57
1936.21
1927.83
1919.44
1911.05
1902.64
1894.23
1885.81
1877.38
1868.95
1860.5
1852.05
1843.6
1835.13
1826.65
1818.17
1809.68
1801.19
1792.68
1784.17
1775.66
1767.13
1758.6
1750.06
1741.52
1732.96
1724.4
1715.84
1707.26
1698.69
1690.1
1681.51
1672.92
1664.31
1655.7
1647.09
1638.47
1629.84
1621.21
1612.57
1603.93
1595.28
1586.62
1577.96
1569.3
1560.63
1551.95
1543.27
1534.59
1525.9
1517.21
1508.5
1499.8
1491.09
1482.38
1473.66
1464.94
1456.22
1447.49
1438.75
1430.01
1421.27
1412.53
1403.78
1395.02
1386.27
1377.51
1368.75
1359.98
1351.21
1342.44
1333.66
1324.88
1316.1
1307.32
1298.53
1289.74
1280.95
1272.15
1263.35
1254.55
1245.75
1236.94
1228.14
1219.33
1210.52
1201.7
1192.89
1184.07
1175.25
1166.44
1157.61
1148.79
1139.97
1131.14
1122.31
1113.49
1104.66
1095.83
1087
1078.18
1069.32
1060.6
1051.57
1043.1
1034.04
1024.82
1017.46
1005.64
3894.28
3905.28
3889.26
3903.08
3894.77
3898.5
3896.67
3897.18
3896.46
3896.32
3895.83
3895.41
3894.93
3894.4
3893.83
3893.22
3892.56
3891.86
3891.12
3890.34
3889.53
3888.67
3887.79
3886.86
3885.9
3884.91
3883.89
3882.83
3881.74
3880.62
3879.47
3878.29
3877.08
3875.83
3874.56
3873.26
3871.93
3870.57
3869.18
3867.76
3866.31
3864.84
3863.34
3861.8
3860.25
3858.66
3857.04
3855.4
3853.73
3852.04
3850.31
3848.56
3846.78
3844.97
3843.14
3841.28
3839.39
3837.47
3835.53
3833.56
3831.57
3829.54
3827.5
3825.42
3823.32
3821.19
3819.03
3816.85
3814.64
3812.4
3810.14
3807.85
3805.53
3803.19
3800.82
3798.42
3796
3793.55
3791.08
3788.58
3786.05
3783.49
3780.91
3778.31
3775.67
3773.01
3770.33
3767.62
3764.88
3762.12
3759.33
3756.51
3753.67
3750.8
3747.91
3744.99
3742.05
3739.07
3736.08
3733.06
3730.01
3726.93
3723.83
3720.71
3717.56
3714.38
3711.18
3707.95
3704.7
3701.42
3698.12
3694.79
3691.44
3688.06
3684.65
3681.22
3677.77
3674.29
3670.78
3667.25
3663.69
3660.11
3656.51
3652.88
3649.22
3645.54
3641.84
3638.11
3634.35
3630.57
3626.77
3622.94
3619.09
3615.21
3611.31
3607.38
3603.43
3599.45
3595.45
3591.43
3587.38
3583.31
3579.21
3575.09
3570.94
3566.77
3562.58
3558.36
3554.12
3549.86
3545.57
3541.25
3536.92
3532.56
3528.17
3523.76
3519.33
3514.88
3510.4
3505.9
3501.37
3496.82
3492.25
3487.65
3483.04
3478.39
3473.73
3469.04
3464.33
3459.59
3454.84
3450.06
3445.25
3440.43
3435.58
3430.71
3425.81
3420.9
3415.96
3411
3406.01
3401.01
3395.98
3390.92
3385.85
3380.76
3375.64
3370.5
3365.33
3360.15
3354.94
3349.71
3344.47
3339.2
3333.9
3328.58
3323.25
3317.89
3312.51
3307.11
3301.68