/*--------------------------------*- C++ -*----------------------------------*\
| =========                 |                                                 |
| \\      /  F ield         | OpenFOAM: The Open Source CFD Toolbox           |
|  \\    /   O peration     | Version:  2012                                  |
|   \\  /    A nd           | Website:  www.openfoam.com                      |
|    \\/     M anipulation  |                                                 |
\*---------------------------------------------------------------------------*/
FoamFile
{
    version     2.0;
    format      ascii;
    class       volScalarField;
    location    "0.8";
    object      rho2;
}
// * * * * * * * * * * * * * * * * * * * * * * * * * * * * * * * * * * * * * //

dimensions      [1 -3 0 0 0 0 0];


internalField   nonuniform List<scalar> 
20400
(
0.0122387
0.0122406
0.0122374
0.0122439
0.0122382
0.0122448
0.0122397
0.0122441
0.0122413
0.0122433
0.012242
0.0122426
0.012242
0.0122418
0.0122414
0.012241
0.0122405
0.01224
0.0122394
0.0122388
0.0122382
0.0122375
0.0122368
0.0122361
0.0122353
0.0122346
0.0122338
0.0122331
0.0122323
0.0122315
0.0122307
0.0122299
0.0122291
0.0122283
0.0122275
0.0122268
0.012226
0.0122252
0.0122244
0.0122236
0.0122228
0.012222
0.0122212
0.0122204
0.0122197
0.0122189
0.0122181
0.0122173
0.0122166
0.0122158
0.012215
0.0122143
0.0122135
0.0122128
0.012212
0.0122112
0.0122105
0.0122097
0.012209
0.0122082
0.0122075
0.0122067
0.012206
0.0122053
0.0122045
0.0122038
0.012203
0.0122023
0.0122016
0.0122008
0.0122001
0.0121994
0.0121986
0.0121979
0.0121972
0.0121965
0.0121957
0.012195
0.0121943
0.0121935
0.0121928
0.0121921
0.0121914
0.0121906
0.0121899
0.0121892
0.0121885
0.0121878
0.012187
0.0121863
0.0121856
0.0121849
0.0121841
0.0121834
0.0121827
0.012182
0.0121813
0.0121805
0.0121798
0.0121791
0.0121784
0.0121777
0.0121769
0.0121762
0.0121755
0.0121748
0.0121741
0.0121734
0.0121726
0.0121719
0.0121712
0.0121705
0.0121698
0.012169
0.0121683
0.0121676
0.0121669
0.0121662
0.0121655
0.0121647
0.012164
0.0121633
0.0121626
0.0121619
0.0121612
0.0121604
0.0121597
0.012159
0.0121583
0.0121576
0.0121568
0.0121561
0.0121554
0.0121547
0.012154
0.0121533
0.0121525
0.0121518
0.0121511
0.0121504
0.0121497
0.012149
0.0121482
0.0121475
0.0121468
0.0121461
0.0121454
0.0121447
0.0121439
0.0121432
0.0121425
0.0121418
0.0121411
0.0121403
0.0121396
0.0121389
0.0121382
0.0121375
0.0121368
0.012136
0.0121353
0.0121346
0.0121339
0.0121332
0.0121325
0.0121317
0.012131
0.0121303
0.0121296
0.0121289
0.0121282
0.0121274
0.0121267
0.012126
0.0121253
0.0121246
0.0121239
0.0121231
0.0121224
0.0121217
0.012121
0.0121203
0.0121196
0.0121188
0.0121181
0.0121174
0.0121167
0.012116
0.0121153
0.0121145
0.0121138
0.0121131
0.0121124
0.0121117
0.0121109
0.0121102
0.0121095
0.0121088
0.0121081
0.0121074
0.0121066
0.0121059
0.0121052
0.0121045
0.0121038
0.0121031
0.0121023
0.0121016
0.0121009
0.0121002
0.0120995
0.0120988
0.012098
0.0120973
0.0120966
0.0120959
0.0120952
0.0120945
0.0120937
0.012093
0.0120923
0.0120916
0.0120909
0.0120902
0.0120894
0.0120887
0.012088
0.0120873
0.0120866
0.0120858
0.0120851
0.0120844
0.0120837
0.012083
0.0120823
0.0120815
0.0120808
0.0120801
0.0120794
0.0120787
0.012078
0.0120772
0.0120765
0.0120758
0.0120751
0.0120744
0.0120737
0.0120729
0.0120722
0.0120715
0.0120708
0.0120701
0.0120694
0.0120686
0.0120679
0.0120672
0.0120665
0.0120658
0.0120651
0.0120643
0.0120636
0.0120629
0.0120622
0.0120615
0.0120608
0.01206
0.0120593
0.0120586
0.0120579
0.0120572
0.0120564
0.0120557
0.012055
0.0120543
0.0120536
0.0120529
0.0120521
0.0120514
0.0120507
0.01205
0.0120493
0.0120486
0.0120478
0.0120471
0.0120464
0.0120457
0.012045
0.0120443
0.0120435
0.0120428
0.0120421
0.0120414
0.0120407
0.01204
0.0120392
0.0120385
0.0120378
0.0120371
0.0120364
0.0120357
0.0120349
0.0120342
0.0120335
0.0120328
0.0120321
0.0120313
0.0120306
0.0120299
0.0120292
0.0120285
0.0120278
0.012027
0.0120263
0.0120256
0.0120249
0.0120242
0.0120235
0.0120227
0.012022
0.0120213
0.0120206
0.0120199
0.0120192
0.0120184
0.0120177
0.012017
0.0120163
0.0120156
0.0120149
0.0120141
0.0120134
0.0120127
0.012012
0.0120113
0.0120106
0.0120098
0.0120091
0.0120084
0.0120077
0.012007
0.0120062
0.0120055
0.0120048
0.0120041
0.0120034
0.0120027
0.0120019
0.0120012
0.0120005
0.0119998
0.0119991
0.0119984
0.0119976
0.0119969
0.0119962
0.0119955
0.0119948
0.0119941
0.0119933
0.0119926
0.0119919
0.0119912
0.0119905
0.0119898
0.011989
0.0119883
0.0119876
0.0119869
0.0119862
0.0119855
0.0119847
0.011984
0.0119833
0.0119826
0.0119819
0.0119811
0.0119804
0.0119797
0.011979
0.0119783
0.0119776
0.0119768
0.0119761
0.0119754
0.0119747
0.011974
0.0119733
0.0119725
0.0119718
0.0119711
0.0119704
0.0119697
0.011969
0.0119682
0.0119675
0.0119668
0.0119661
0.0119654
0.0119647
0.0119639
0.0119632
0.0119625
0.0119618
0.0119611
0.0119604
0.0119596
0.0119589
0.0119582
0.0119575
0.0119568
0.0119561
0.0119553
0.0119546
0.0119539
0.0119532
0.0119525
0.0119517
0.011951
0.0119503
0.0119496
0.0119489
0.0119482
0.0119474
0.0119467
0.011946
0.0119453
0.0119446
0.0119439
0.0119431
0.0119424
0.0119417
0.011941
0.0119403
0.0119396
0.0119388
0.0119381
0.0119374
0.0119367
0.011936
0.0119353
0.0119345
0.0119338
0.0119331
0.0119324
0.0119317
0.011931
0.0119302
0.0119295
0.0119288
0.0119281
0.0119274
0.0119266
0.0119259
0.0119252
0.0119245
0.0119238
0.0119231
0.0119223
0.0119216
0.0119209
0.0119202
0.0119195
0.0119188
0.011918
0.0119173
0.0119166
0.0119159
0.0119152
0.0119145
0.0119137
0.011913
0.0119123
0.0119116
0.0119109
0.0119102
0.0119094
0.0119087
0.011908
0.0119073
0.0119066
0.0119059
0.0119051
0.0119044
0.0119037
0.011903
0.0119023
0.0119015
0.0119008
0.0119001
0.0118994
0.0118987
0.011898
0.0118972
0.0118965
0.0118958
0.0118951
0.0118944
0.0118936
0.011893
0.0118921
0.0122373
0.0122408
0.012236
0.0122432
0.0122369
0.012244
0.0122384
0.0122433
0.0122404
0.0122426
0.0122414
0.0122421
0.0122416
0.0122415
0.0122411
0.0122407
0.0122403
0.0122398
0.0122393
0.0122387
0.012238
0.0122374
0.0122367
0.012236
0.0122352
0.0122345
0.0122337
0.012233
0.0122322
0.0122314
0.0122306
0.0122298
0.012229
0.0122283
0.0122275
0.0122267
0.0122259
0.0122251
0.0122243
0.0122235
0.0122227
0.0122219
0.0122212
0.0122204
0.0122196
0.0122188
0.0122181
0.0122173
0.0122165
0.0122158
0.012215
0.0122142
0.0122135
0.0122127
0.012212
0.0122112
0.0122105
0.0122097
0.012209
0.0122082
0.0122075
0.0122067
0.012206
0.0122052
0.0122045
0.0122038
0.012203
0.0122023
0.0122016
0.0122008
0.0122001
0.0121994
0.0121986
0.0121979
0.0121972
0.0121965
0.0121957
0.012195
0.0121943
0.0121935
0.0121928
0.0121921
0.0121914
0.0121906
0.0121899
0.0121892
0.0121885
0.0121878
0.012187
0.0121863
0.0121856
0.0121849
0.0121841
0.0121834
0.0121827
0.012182
0.0121813
0.0121805
0.0121798
0.0121791
0.0121784
0.0121777
0.0121769
0.0121762
0.0121755
0.0121748
0.0121741
0.0121734
0.0121726
0.0121719
0.0121712
0.0121705
0.0121698
0.012169
0.0121683
0.0121676
0.0121669
0.0121662
0.0121655
0.0121647
0.012164
0.0121633
0.0121626
0.0121619
0.0121611
0.0121604
0.0121597
0.012159
0.0121583
0.0121576
0.0121568
0.0121561
0.0121554
0.0121547
0.012154
0.0121533
0.0121525
0.0121518
0.0121511
0.0121504
0.0121497
0.012149
0.0121482
0.0121475
0.0121468
0.0121461
0.0121454
0.0121447
0.0121439
0.0121432
0.0121425
0.0121418
0.0121411
0.0121403
0.0121396
0.0121389
0.0121382
0.0121375
0.0121368
0.012136
0.0121353
0.0121346
0.0121339
0.0121332
0.0121325
0.0121317
0.012131
0.0121303
0.0121296
0.0121289
0.0121282
0.0121274
0.0121267
0.012126
0.0121253
0.0121246
0.0121239
0.0121231
0.0121224
0.0121217
0.012121
0.0121203
0.0121196
0.0121188
0.0121181
0.0121174
0.0121167
0.012116
0.0121153
0.0121145
0.0121138
0.0121131
0.0121124
0.0121117
0.0121109
0.0121102
0.0121095
0.0121088
0.0121081
0.0121074
0.0121066
0.0121059
0.0121052
0.0121045
0.0121038
0.0121031
0.0121023
0.0121016
0.0121009
0.0121002
0.0120995
0.0120988
0.012098
0.0120973
0.0120966
0.0120959
0.0120952
0.0120945
0.0120937
0.012093
0.0120923
0.0120916
0.0120909
0.0120902
0.0120894
0.0120887
0.012088
0.0120873
0.0120866
0.0120858
0.0120851
0.0120844
0.0120837
0.012083
0.0120823
0.0120815
0.0120808
0.0120801
0.0120794
0.0120787
0.012078
0.0120772
0.0120765
0.0120758
0.0120751
0.0120744
0.0120737
0.0120729
0.0120722
0.0120715
0.0120708
0.0120701
0.0120694
0.0120686
0.0120679
0.0120672
0.0120665
0.0120658
0.0120651
0.0120643
0.0120636
0.0120629
0.0120622
0.0120615
0.0120607
0.01206
0.0120593
0.0120586
0.0120579
0.0120572
0.0120564
0.0120557
0.012055
0.0120543
0.0120536
0.0120529
0.0120521
0.0120514
0.0120507
0.01205
0.0120493
0.0120486
0.0120478
0.0120471
0.0120464
0.0120457
0.012045
0.0120443
0.0120435
0.0120428
0.0120421
0.0120414
0.0120407
0.01204
0.0120392
0.0120385
0.0120378
0.0120371
0.0120364
0.0120357
0.0120349
0.0120342
0.0120335
0.0120328
0.0120321
0.0120313
0.0120306
0.0120299
0.0120292
0.0120285
0.0120278
0.012027
0.0120263
0.0120256
0.0120249
0.0120242
0.0120235
0.0120227
0.012022
0.0120213
0.0120206
0.0120199
0.0120192
0.0120184
0.0120177
0.012017
0.0120163
0.0120156
0.0120149
0.0120141
0.0120134
0.0120127
0.012012
0.0120113
0.0120106
0.0120098
0.0120091
0.0120084
0.0120077
0.012007
0.0120062
0.0120055
0.0120048
0.0120041
0.0120034
0.0120027
0.0120019
0.0120012
0.0120005
0.0119998
0.0119991
0.0119984
0.0119976
0.0119969
0.0119962
0.0119955
0.0119948
0.0119941
0.0119933
0.0119926
0.0119919
0.0119912
0.0119905
0.0119898
0.011989
0.0119883
0.0119876
0.0119869
0.0119862
0.0119855
0.0119847
0.011984
0.0119833
0.0119826
0.0119819
0.0119811
0.0119804
0.0119797
0.011979
0.0119783
0.0119776
0.0119768
0.0119761
0.0119754
0.0119747
0.011974
0.0119733
0.0119725
0.0119718
0.0119711
0.0119704
0.0119697
0.011969
0.0119682
0.0119675
0.0119668
0.0119661
0.0119654
0.0119647
0.0119639
0.0119632
0.0119625
0.0119618
0.0119611
0.0119604
0.0119596
0.0119589
0.0119582
0.0119575
0.0119568
0.0119561
0.0119553
0.0119546
0.0119539
0.0119532
0.0119525
0.0119517
0.011951
0.0119503
0.0119496
0.0119489
0.0119482
0.0119474
0.0119467
0.011946
0.0119453
0.0119446
0.0119439
0.0119431
0.0119424
0.0119417
0.011941
0.0119403
0.0119396
0.0119388
0.0119381
0.0119374
0.0119367
0.011936
0.0119353
0.0119345
0.0119338
0.0119331
0.0119324
0.0119317
0.011931
0.0119302
0.0119295
0.0119288
0.0119281
0.0119274
0.0119266
0.0119259
0.0119252
0.0119245
0.0119238
0.0119231
0.0119223
0.0119216
0.0119209
0.0119202
0.0119195
0.0119188
0.011918
0.0119173
0.0119166
0.0119159
0.0119152
0.0119145
0.0119137
0.011913
0.0119123
0.0119116
0.0119109
0.0119102
0.0119094
0.0119087
0.011908
0.0119073
0.0119066
0.0119059
0.0119051
0.0119044
0.0119037
0.011903
0.0119023
0.0119015
0.0119008
0.0119001
0.0118994
0.0118987
0.011898
0.0118972
0.0118965
0.0118958
0.0118951
0.0118944
0.0118936
0.011893
0.0118921
0.012237
0.0122399
0.0122356
0.0122429
0.0122364
0.0122438
0.0122379
0.0122429
0.0122398
0.0122421
0.0122408
0.0122414
0.0122409
0.0122408
0.0122404
0.01224
0.0122396
0.0122391
0.0122386
0.0122381
0.0122375
0.0122368
0.0122362
0.0122355
0.0122348
0.0122341
0.0122334
0.0122327
0.0122319
0.0122312
0.0122304
0.0122297
0.0122289
0.0122281
0.0122274
0.0122266
0.0122258
0.012225
0.0122243
0.0122235
0.0122227
0.0122219
0.0122211
0.0122204
0.0122196
0.0122188
0.0122181
0.0122173
0.0122165
0.0122158
0.012215
0.0122142
0.0122135
0.0122127
0.012212
0.0122112
0.0122104
0.0122097
0.012209
0.0122082
0.0122075
0.0122067
0.012206
0.0122052
0.0122045
0.0122038
0.012203
0.0122023
0.0122016
0.0122008
0.0122001
0.0121994
0.0121986
0.0121979
0.0121972
0.0121964
0.0121957
0.012195
0.0121943
0.0121935
0.0121928
0.0121921
0.0121914
0.0121906
0.0121899
0.0121892
0.0121885
0.0121877
0.012187
0.0121863
0.0121856
0.0121849
0.0121841
0.0121834
0.0121827
0.012182
0.0121813
0.0121805
0.0121798
0.0121791
0.0121784
0.0121777
0.0121769
0.0121762
0.0121755
0.0121748
0.0121741
0.0121734
0.0121726
0.0121719
0.0121712
0.0121705
0.0121698
0.012169
0.0121683
0.0121676
0.0121669
0.0121662
0.0121655
0.0121647
0.012164
0.0121633
0.0121626
0.0121619
0.0121611
0.0121604
0.0121597
0.012159
0.0121583
0.0121576
0.0121568
0.0121561
0.0121554
0.0121547
0.012154
0.0121533
0.0121525
0.0121518
0.0121511
0.0121504
0.0121497
0.012149
0.0121482
0.0121475
0.0121468
0.0121461
0.0121454
0.0121447
0.0121439
0.0121432
0.0121425
0.0121418
0.0121411
0.0121403
0.0121396
0.0121389
0.0121382
0.0121375
0.0121368
0.012136
0.0121353
0.0121346
0.0121339
0.0121332
0.0121325
0.0121317
0.012131
0.0121303
0.0121296
0.0121289
0.0121282
0.0121274
0.0121267
0.012126
0.0121253
0.0121246
0.0121239
0.0121231
0.0121224
0.0121217
0.012121
0.0121203
0.0121196
0.0121188
0.0121181
0.0121174
0.0121167
0.012116
0.0121153
0.0121145
0.0121138
0.0121131
0.0121124
0.0121117
0.0121109
0.0121102
0.0121095
0.0121088
0.0121081
0.0121074
0.0121066
0.0121059
0.0121052
0.0121045
0.0121038
0.0121031
0.0121023
0.0121016
0.0121009
0.0121002
0.0120995
0.0120988
0.012098
0.0120973
0.0120966
0.0120959
0.0120952
0.0120945
0.0120937
0.012093
0.0120923
0.0120916
0.0120909
0.0120902
0.0120894
0.0120887
0.012088
0.0120873
0.0120866
0.0120858
0.0120851
0.0120844
0.0120837
0.012083
0.0120823
0.0120815
0.0120808
0.0120801
0.0120794
0.0120787
0.012078
0.0120772
0.0120765
0.0120758
0.0120751
0.0120744
0.0120737
0.0120729
0.0120722
0.0120715
0.0120708
0.0120701
0.0120694
0.0120686
0.0120679
0.0120672
0.0120665
0.0120658
0.0120651
0.0120643
0.0120636
0.0120629
0.0120622
0.0120615
0.0120607
0.01206
0.0120593
0.0120586
0.0120579
0.0120572
0.0120564
0.0120557
0.012055
0.0120543
0.0120536
0.0120529
0.0120521
0.0120514
0.0120507
0.01205
0.0120493
0.0120486
0.0120478
0.0120471
0.0120464
0.0120457
0.012045
0.0120443
0.0120435
0.0120428
0.0120421
0.0120414
0.0120407
0.01204
0.0120392
0.0120385
0.0120378
0.0120371
0.0120364
0.0120357
0.0120349
0.0120342
0.0120335
0.0120328
0.0120321
0.0120313
0.0120306
0.0120299
0.0120292
0.0120285
0.0120278
0.012027
0.0120263
0.0120256
0.0120249
0.0120242
0.0120235
0.0120227
0.012022
0.0120213
0.0120206
0.0120199
0.0120192
0.0120184
0.0120177
0.012017
0.0120163
0.0120156
0.0120149
0.0120141
0.0120134
0.0120127
0.012012
0.0120113
0.0120106
0.0120098
0.0120091
0.0120084
0.0120077
0.012007
0.0120062
0.0120055
0.0120048
0.0120041
0.0120034
0.0120027
0.0120019
0.0120012
0.0120005
0.0119998
0.0119991
0.0119984
0.0119976
0.0119969
0.0119962
0.0119955
0.0119948
0.0119941
0.0119933
0.0119926
0.0119919
0.0119912
0.0119905
0.0119898
0.011989
0.0119883
0.0119876
0.0119869
0.0119862
0.0119855
0.0119847
0.011984
0.0119833
0.0119826
0.0119819
0.0119811
0.0119804
0.0119797
0.011979
0.0119783
0.0119776
0.0119768
0.0119761
0.0119754
0.0119747
0.011974
0.0119733
0.0119725
0.0119718
0.0119711
0.0119704
0.0119697
0.011969
0.0119682
0.0119675
0.0119668
0.0119661
0.0119654
0.0119647
0.0119639
0.0119632
0.0119625
0.0119618
0.0119611
0.0119604
0.0119596
0.0119589
0.0119582
0.0119575
0.0119568
0.0119561
0.0119553
0.0119546
0.0119539
0.0119532
0.0119525
0.0119517
0.011951
0.0119503
0.0119496
0.0119489
0.0119482
0.0119474
0.0119467
0.011946
0.0119453
0.0119446
0.0119439
0.0119431
0.0119424
0.0119417
0.011941
0.0119403
0.0119396
0.0119388
0.0119381
0.0119374
0.0119367
0.011936
0.0119353
0.0119345
0.0119338
0.0119331
0.0119324
0.0119317
0.011931
0.0119302
0.0119295
0.0119288
0.0119281
0.0119274
0.0119266
0.0119259
0.0119252
0.0119245
0.0119238
0.0119231
0.0119223
0.0119216
0.0119209
0.0119202
0.0119195
0.0119188
0.011918
0.0119173
0.0119166
0.0119159
0.0119152
0.0119145
0.0119137
0.011913
0.0119123
0.0119116
0.0119109
0.0119102
0.0119094
0.0119087
0.011908
0.0119073
0.0119066
0.0119059
0.0119051
0.0119044
0.0119037
0.011903
0.0119023
0.0119015
0.0119008
0.0119001
0.0118994
0.0118987
0.011898
0.0118972
0.0118965
0.0118958
0.0118951
0.0118944
0.0118936
0.011893
0.0118921
0.0122357
0.0122388
0.0122344
0.0122418
0.0122352
0.0122429
0.0122369
0.0122422
0.0122391
0.0122416
0.0122403
0.012241
0.0122405
0.0122404
0.0122401
0.0122398
0.0122394
0.0122389
0.0122384
0.0122379
0.0122373
0.0122367
0.0122361
0.0122354
0.0122347
0.012234
0.0122333
0.0122325
0.0122318
0.012231
0.0122303
0.0122295
0.0122287
0.012228
0.0122272
0.0122264
0.0122257
0.0122249
0.0122241
0.0122233
0.0122226
0.0122218
0.012221
0.0122202
0.0122195
0.0122187
0.012218
0.0122172
0.0122164
0.0122157
0.0122149
0.0122142
0.0122134
0.0122127
0.0122119
0.0122112
0.0122104
0.0122097
0.0122089
0.0122082
0.0122074
0.0122067
0.012206
0.0122052
0.0122045
0.0122038
0.012203
0.0122023
0.0122016
0.0122008
0.0122001
0.0121994
0.0121986
0.0121979
0.0121972
0.0121964
0.0121957
0.012195
0.0121943
0.0121935
0.0121928
0.0121921
0.0121914
0.0121906
0.0121899
0.0121892
0.0121885
0.0121877
0.012187
0.0121863
0.0121856
0.0121849
0.0121841
0.0121834
0.0121827
0.012182
0.0121813
0.0121805
0.0121798
0.0121791
0.0121784
0.0121777
0.0121769
0.0121762
0.0121755
0.0121748
0.0121741
0.0121734
0.0121726
0.0121719
0.0121712
0.0121705
0.0121698
0.012169
0.0121683
0.0121676
0.0121669
0.0121662
0.0121655
0.0121647
0.012164
0.0121633
0.0121626
0.0121619
0.0121611
0.0121604
0.0121597
0.012159
0.0121583
0.0121576
0.0121568
0.0121561
0.0121554
0.0121547
0.012154
0.0121533
0.0121525
0.0121518
0.0121511
0.0121504
0.0121497
0.012149
0.0121482
0.0121475
0.0121468
0.0121461
0.0121454
0.0121447
0.0121439
0.0121432
0.0121425
0.0121418
0.0121411
0.0121403
0.0121396
0.0121389
0.0121382
0.0121375
0.0121368
0.012136
0.0121353
0.0121346
0.0121339
0.0121332
0.0121325
0.0121317
0.012131
0.0121303
0.0121296
0.0121289
0.0121282
0.0121274
0.0121267
0.012126
0.0121253
0.0121246
0.0121239
0.0121231
0.0121224
0.0121217
0.012121
0.0121203
0.0121196
0.0121188
0.0121181
0.0121174
0.0121167
0.012116
0.0121153
0.0121145
0.0121138
0.0121131
0.0121124
0.0121117
0.0121109
0.0121102
0.0121095
0.0121088
0.0121081
0.0121074
0.0121066
0.0121059
0.0121052
0.0121045
0.0121038
0.0121031
0.0121023
0.0121016
0.0121009
0.0121002
0.0120995
0.0120988
0.012098
0.0120973
0.0120966
0.0120959
0.0120952
0.0120945
0.0120937
0.012093
0.0120923
0.0120916
0.0120909
0.0120902
0.0120894
0.0120887
0.012088
0.0120873
0.0120866
0.0120858
0.0120851
0.0120844
0.0120837
0.012083
0.0120823
0.0120815
0.0120808
0.0120801
0.0120794
0.0120787
0.012078
0.0120772
0.0120765
0.0120758
0.0120751
0.0120744
0.0120737
0.0120729
0.0120722
0.0120715
0.0120708
0.0120701
0.0120694
0.0120686
0.0120679
0.0120672
0.0120665
0.0120658
0.0120651
0.0120643
0.0120636
0.0120629
0.0120622
0.0120615
0.0120607
0.01206
0.0120593
0.0120586
0.0120579
0.0120572
0.0120564
0.0120557
0.012055
0.0120543
0.0120536
0.0120529
0.0120521
0.0120514
0.0120507
0.01205
0.0120493
0.0120486
0.0120478
0.0120471
0.0120464
0.0120457
0.012045
0.0120443
0.0120435
0.0120428
0.0120421
0.0120414
0.0120407
0.01204
0.0120392
0.0120385
0.0120378
0.0120371
0.0120364
0.0120357
0.0120349
0.0120342
0.0120335
0.0120328
0.0120321
0.0120313
0.0120306
0.0120299
0.0120292
0.0120285
0.0120278
0.012027
0.0120263
0.0120256
0.0120249
0.0120242
0.0120235
0.0120227
0.012022
0.0120213
0.0120206
0.0120199
0.0120192
0.0120184
0.0120177
0.012017
0.0120163
0.0120156
0.0120149
0.0120141
0.0120134
0.0120127
0.012012
0.0120113
0.0120106
0.0120098
0.0120091
0.0120084
0.0120077
0.012007
0.0120062
0.0120055
0.0120048
0.0120041
0.0120034
0.0120027
0.0120019
0.0120012
0.0120005
0.0119998
0.0119991
0.0119984
0.0119976
0.0119969
0.0119962
0.0119955
0.0119948
0.0119941
0.0119933
0.0119926
0.0119919
0.0119912
0.0119905
0.0119898
0.011989
0.0119883
0.0119876
0.0119869
0.0119862
0.0119855
0.0119847
0.011984
0.0119833
0.0119826
0.0119819
0.0119811
0.0119804
0.0119797
0.011979
0.0119783
0.0119776
0.0119768
0.0119761
0.0119754
0.0119747
0.011974
0.0119733
0.0119725
0.0119718
0.0119711
0.0119704
0.0119697
0.011969
0.0119682
0.0119675
0.0119668
0.0119661
0.0119654
0.0119647
0.0119639
0.0119632
0.0119625
0.0119618
0.0119611
0.0119604
0.0119596
0.0119589
0.0119582
0.0119575
0.0119568
0.0119561
0.0119553
0.0119546
0.0119539
0.0119532
0.0119525
0.0119517
0.011951
0.0119503
0.0119496
0.0119489
0.0119482
0.0119474
0.0119467
0.011946
0.0119453
0.0119446
0.0119439
0.0119431
0.0119424
0.0119417
0.011941
0.0119403
0.0119396
0.0119388
0.0119381
0.0119374
0.0119367
0.011936
0.0119353
0.0119345
0.0119338
0.0119331
0.0119324
0.0119317
0.011931
0.0119302
0.0119295
0.0119288
0.0119281
0.0119274
0.0119266
0.0119259
0.0119252
0.0119245
0.0119238
0.0119231
0.0119223
0.0119216
0.0119209
0.0119202
0.0119195
0.0119188
0.011918
0.0119173
0.0119166
0.0119159
0.0119152
0.0119145
0.0119137
0.011913
0.0119123
0.0119116
0.0119109
0.0119102
0.0119094
0.0119087
0.011908
0.0119073
0.0119066
0.0119059
0.0119051
0.0119044
0.0119037
0.011903
0.0119023
0.0119015
0.0119008
0.0119001
0.0118994
0.0118987
0.011898
0.0118972
0.0118965
0.0118958
0.0118951
0.0118944
0.0118936
0.011893
0.0118921
0.0122356
0.0122376
0.0122338
0.0122413
0.0122347
0.0122425
0.0122364
0.0122417
0.0122386
0.0122411
0.0122398
0.0122405
0.0122401
0.01224
0.0122397
0.0122394
0.012239
0.0122386
0.0122381
0.0122376
0.012237
0.0122364
0.0122358
0.0122351
0.0122345
0.0122338
0.0122331
0.0122324
0.0122316
0.0122309
0.0122302
0.0122294
0.0122286
0.0122279
0.0122271
0.0122263
0.0122256
0.0122248
0.012224
0.0122233
0.0122225
0.0122217
0.012221
0.0122202
0.0122194
0.0122187
0.0122179
0.0122172
0.0122164
0.0122156
0.0122149
0.0122141
0.0122134
0.0122126
0.0122119
0.0122111
0.0122104
0.0122096
0.0122089
0.0122082
0.0122074
0.0122067
0.0122059
0.0122052
0.0122045
0.0122037
0.012203
0.0122023
0.0122015
0.0122008
0.0122001
0.0121993
0.0121986
0.0121979
0.0121972
0.0121964
0.0121957
0.012195
0.0121943
0.0121935
0.0121928
0.0121921
0.0121914
0.0121906
0.0121899
0.0121892
0.0121885
0.0121877
0.012187
0.0121863
0.0121856
0.0121849
0.0121841
0.0121834
0.0121827
0.012182
0.0121813
0.0121805
0.0121798
0.0121791
0.0121784
0.0121777
0.0121769
0.0121762
0.0121755
0.0121748
0.0121741
0.0121734
0.0121726
0.0121719
0.0121712
0.0121705
0.0121698
0.012169
0.0121683
0.0121676
0.0121669
0.0121662
0.0121655
0.0121647
0.012164
0.0121633
0.0121626
0.0121619
0.0121611
0.0121604
0.0121597
0.012159
0.0121583
0.0121576
0.0121568
0.0121561
0.0121554
0.0121547
0.012154
0.0121533
0.0121525
0.0121518
0.0121511
0.0121504
0.0121497
0.012149
0.0121482
0.0121475
0.0121468
0.0121461
0.0121454
0.0121447
0.0121439
0.0121432
0.0121425
0.0121418
0.0121411
0.0121403
0.0121396
0.0121389
0.0121382
0.0121375
0.0121368
0.012136
0.0121353
0.0121346
0.0121339
0.0121332
0.0121325
0.0121317
0.012131
0.0121303
0.0121296
0.0121289
0.0121282
0.0121274
0.0121267
0.012126
0.0121253
0.0121246
0.0121239
0.0121231
0.0121224
0.0121217
0.012121
0.0121203
0.0121196
0.0121188
0.0121181
0.0121174
0.0121167
0.012116
0.0121153
0.0121145
0.0121138
0.0121131
0.0121124
0.0121117
0.0121109
0.0121102
0.0121095
0.0121088
0.0121081
0.0121074
0.0121066
0.0121059
0.0121052
0.0121045
0.0121038
0.0121031
0.0121023
0.0121016
0.0121009
0.0121002
0.0120995
0.0120988
0.012098
0.0120973
0.0120966
0.0120959
0.0120952
0.0120945
0.0120937
0.012093
0.0120923
0.0120916
0.0120909
0.0120902
0.0120894
0.0120887
0.012088
0.0120873
0.0120866
0.0120858
0.0120851
0.0120844
0.0120837
0.012083
0.0120823
0.0120815
0.0120808
0.0120801
0.0120794
0.0120787
0.012078
0.0120772
0.0120765
0.0120758
0.0120751
0.0120744
0.0120737
0.0120729
0.0120722
0.0120715
0.0120708
0.0120701
0.0120694
0.0120686
0.0120679
0.0120672
0.0120665
0.0120658
0.0120651
0.0120643
0.0120636
0.0120629
0.0120622
0.0120615
0.0120607
0.01206
0.0120593
0.0120586
0.0120579
0.0120572
0.0120564
0.0120557
0.012055
0.0120543
0.0120536
0.0120529
0.0120521
0.0120514
0.0120507
0.01205
0.0120493
0.0120486
0.0120478
0.0120471
0.0120464
0.0120457
0.012045
0.0120443
0.0120435
0.0120428
0.0120421
0.0120414
0.0120407
0.01204
0.0120392
0.0120385
0.0120378
0.0120371
0.0120364
0.0120357
0.0120349
0.0120342
0.0120335
0.0120328
0.0120321
0.0120313
0.0120306
0.0120299
0.0120292
0.0120285
0.0120278
0.012027
0.0120263
0.0120256
0.0120249
0.0120242
0.0120235
0.0120227
0.012022
0.0120213
0.0120206
0.0120199
0.0120192
0.0120184
0.0120177
0.012017
0.0120163
0.0120156
0.0120149
0.0120141
0.0120134
0.0120127
0.012012
0.0120113
0.0120106
0.0120098
0.0120091
0.0120084
0.0120077
0.012007
0.0120062
0.0120055
0.0120048
0.0120041
0.0120034
0.0120027
0.0120019
0.0120012
0.0120005
0.0119998
0.0119991
0.0119984
0.0119976
0.0119969
0.0119962
0.0119955
0.0119948
0.0119941
0.0119933
0.0119926
0.0119919
0.0119912
0.0119905
0.0119898
0.011989
0.0119883
0.0119876
0.0119869
0.0119862
0.0119855
0.0119847
0.011984
0.0119833
0.0119826
0.0119819
0.0119811
0.0119804
0.0119797
0.011979
0.0119783
0.0119776
0.0119768
0.0119761
0.0119754
0.0119747
0.011974
0.0119733
0.0119725
0.0119718
0.0119711
0.0119704
0.0119697
0.011969
0.0119682
0.0119675
0.0119668
0.0119661
0.0119654
0.0119647
0.0119639
0.0119632
0.0119625
0.0119618
0.0119611
0.0119604
0.0119596
0.0119589
0.0119582
0.0119575
0.0119568
0.0119561
0.0119553
0.0119546
0.0119539
0.0119532
0.0119525
0.0119517
0.011951
0.0119503
0.0119496
0.0119489
0.0119482
0.0119474
0.0119467
0.011946
0.0119453
0.0119446
0.0119439
0.0119431
0.0119424
0.0119417
0.011941
0.0119403
0.0119396
0.0119388
0.0119381
0.0119374
0.0119367
0.011936
0.0119353
0.0119345
0.0119338
0.0119331
0.0119324
0.0119317
0.011931
0.0119302
0.0119295
0.0119288
0.0119281
0.0119274
0.0119266
0.0119259
0.0119252
0.0119245
0.0119238
0.0119231
0.0119223
0.0119216
0.0119209
0.0119202
0.0119195
0.0119188
0.011918
0.0119173
0.0119166
0.0119159
0.0119152
0.0119145
0.0119137
0.011913
0.0119123
0.0119116
0.0119109
0.0119102
0.0119094
0.0119087
0.011908
0.0119073
0.0119066
0.0119059
0.0119051
0.0119044
0.0119037
0.011903
0.0119023
0.0119015
0.0119008
0.0119001
0.0118994
0.0118987
0.011898
0.0118972
0.0118965
0.0118958
0.0118951
0.0118944
0.0118936
0.011893
0.0118922
0.0122346
0.0122354
0.0122324
0.0122398
0.0122333
0.0122413
0.0122353
0.0122408
0.0122379
0.0122404
0.0122392
0.01224
0.0122397
0.0122396
0.0122394
0.0122391
0.0122387
0.0122383
0.0122379
0.0122373
0.0122368
0.0122362
0.0122356
0.012235
0.0122343
0.0122336
0.0122329
0.0122322
0.0122315
0.0122308
0.01223
0.0122293
0.0122285
0.0122278
0.012227
0.0122262
0.0122255
0.0122247
0.012224
0.0122232
0.0122224
0.0122217
0.0122209
0.0122201
0.0122194
0.0122186
0.0122179
0.0122171
0.0122164
0.0122156
0.0122149
0.0122141
0.0122134
0.0122126
0.0122119
0.0122111
0.0122104
0.0122096
0.0122089
0.0122081
0.0122074
0.0122067
0.0122059
0.0122052
0.0122045
0.0122037
0.012203
0.0122023
0.0122015
0.0122008
0.0122001
0.0121993
0.0121986
0.0121979
0.0121971
0.0121964
0.0121957
0.012195
0.0121942
0.0121935
0.0121928
0.0121921
0.0121914
0.0121906
0.0121899
0.0121892
0.0121885
0.0121877
0.012187
0.0121863
0.0121856
0.0121849
0.0121841
0.0121834
0.0121827
0.012182
0.0121813
0.0121805
0.0121798
0.0121791
0.0121784
0.0121777
0.0121769
0.0121762
0.0121755
0.0121748
0.0121741
0.0121734
0.0121726
0.0121719
0.0121712
0.0121705
0.0121698
0.012169
0.0121683
0.0121676
0.0121669
0.0121662
0.0121655
0.0121647
0.012164
0.0121633
0.0121626
0.0121619
0.0121611
0.0121604
0.0121597
0.012159
0.0121583
0.0121576
0.0121568
0.0121561
0.0121554
0.0121547
0.012154
0.0121533
0.0121525
0.0121518
0.0121511
0.0121504
0.0121497
0.012149
0.0121482
0.0121475
0.0121468
0.0121461
0.0121454
0.0121447
0.0121439
0.0121432
0.0121425
0.0121418
0.0121411
0.0121403
0.0121396
0.0121389
0.0121382
0.0121375
0.0121368
0.012136
0.0121353
0.0121346
0.0121339
0.0121332
0.0121325
0.0121317
0.012131
0.0121303
0.0121296
0.0121289
0.0121282
0.0121274
0.0121267
0.012126
0.0121253
0.0121246
0.0121239
0.0121231
0.0121224
0.0121217
0.012121
0.0121203
0.0121196
0.0121188
0.0121181
0.0121174
0.0121167
0.012116
0.0121153
0.0121145
0.0121138
0.0121131
0.0121124
0.0121117
0.0121109
0.0121102
0.0121095
0.0121088
0.0121081
0.0121074
0.0121066
0.0121059
0.0121052
0.0121045
0.0121038
0.0121031
0.0121023
0.0121016
0.0121009
0.0121002
0.0120995
0.0120988
0.012098
0.0120973
0.0120966
0.0120959
0.0120952
0.0120945
0.0120937
0.012093
0.0120923
0.0120916
0.0120909
0.0120902
0.0120894
0.0120887
0.012088
0.0120873
0.0120866
0.0120858
0.0120851
0.0120844
0.0120837
0.012083
0.0120823
0.0120815
0.0120808
0.0120801
0.0120794
0.0120787
0.012078
0.0120772
0.0120765
0.0120758
0.0120751
0.0120744
0.0120737
0.0120729
0.0120722
0.0120715
0.0120708
0.0120701
0.0120694
0.0120686
0.0120679
0.0120672
0.0120665
0.0120658
0.0120651
0.0120643
0.0120636
0.0120629
0.0120622
0.0120615
0.0120607
0.01206
0.0120593
0.0120586
0.0120579
0.0120572
0.0120564
0.0120557
0.012055
0.0120543
0.0120536
0.0120529
0.0120521
0.0120514
0.0120507
0.01205
0.0120493
0.0120486
0.0120478
0.0120471
0.0120464
0.0120457
0.012045
0.0120443
0.0120435
0.0120428
0.0120421
0.0120414
0.0120407
0.01204
0.0120392
0.0120385
0.0120378
0.0120371
0.0120364
0.0120357
0.0120349
0.0120342
0.0120335
0.0120328
0.0120321
0.0120313
0.0120306
0.0120299
0.0120292
0.0120285
0.0120278
0.012027
0.0120263
0.0120256
0.0120249
0.0120242
0.0120235
0.0120227
0.012022
0.0120213
0.0120206
0.0120199
0.0120192
0.0120184
0.0120177
0.012017
0.0120163
0.0120156
0.0120149
0.0120141
0.0120134
0.0120127
0.012012
0.0120113
0.0120106
0.0120098
0.0120091
0.0120084
0.0120077
0.012007
0.0120062
0.0120055
0.0120048
0.0120041
0.0120034
0.0120027
0.0120019
0.0120012
0.0120005
0.0119998
0.0119991
0.0119984
0.0119976
0.0119969
0.0119962
0.0119955
0.0119948
0.0119941
0.0119933
0.0119926
0.0119919
0.0119912
0.0119905
0.0119898
0.011989
0.0119883
0.0119876
0.0119869
0.0119862
0.0119855
0.0119847
0.011984
0.0119833
0.0119826
0.0119819
0.0119811
0.0119804
0.0119797
0.011979
0.0119783
0.0119776
0.0119768
0.0119761
0.0119754
0.0119747
0.011974
0.0119733
0.0119725
0.0119718
0.0119711
0.0119704
0.0119697
0.011969
0.0119682
0.0119675
0.0119668
0.0119661
0.0119654
0.0119647
0.0119639
0.0119632
0.0119625
0.0119618
0.0119611
0.0119604
0.0119596
0.0119589
0.0119582
0.0119575
0.0119568
0.0119561
0.0119553
0.0119546
0.0119539
0.0119532
0.0119525
0.0119517
0.011951
0.0119503
0.0119496
0.0119489
0.0119482
0.0119474
0.0119467
0.011946
0.0119453
0.0119446
0.0119439
0.0119431
0.0119424
0.0119417
0.011941
0.0119403
0.0119396
0.0119388
0.0119381
0.0119374
0.0119367
0.011936
0.0119353
0.0119345
0.0119338
0.0119331
0.0119324
0.0119317
0.011931
0.0119302