/*--------------------------------*- C++ -*----------------------------------*\
| =========                 |                                                 |
| \\      /  F ield         | OpenFOAM: The Open Source CFD Toolbox           |
|  \\    /   O peration     | Version:  2012                                  |
|   \\  /    A nd           | Website:  www.openfoam.com                      |
|    \\/     M anipulation  |                                                 |
\*---------------------------------------------------------------------------*/
FoamFile
{
    version     2.0;
    format      ascii;
    class       volScalarField;
    location    "4420";
    object      p;
}
// * * * * * * * * * * * * * * * * * * * * * * * * * * * * * * * * * * * * * //

dimensions      [1 -1 -2 0 0 0 0];


internalField   nonuniform List<scalar> 
20400
(
998.201
998.2
998.2
998.199
998.199
998.198
998.198
998.197
998.197
998.197
998.197
998.197
998.197
998.198
998.198
998.198
998.199
998.199
998.2
998.201
998.202
998.203
998.204
998.206
998.207
998.209
998.211
998.212
998.215
998.217
998.219
998.222
998.224
998.227
998.23
998.233
998.237
998.24
998.244
998.247
998.251
998.255
998.26
998.264
998.268
998.273
998.278
998.283
998.288
998.293
998.298
998.304
998.31
998.316
998.322
998.328
998.334
998.341
998.348
998.354
998.361
998.369
998.376
998.384
998.392
998.4
998.408
998.417
998.426
998.435
998.444
998.453
998.463
998.473
998.483
998.493
998.503
998.514
998.525
998.536
998.548
998.56
998.571
998.584
998.596
998.609
998.622
998.635
998.649
998.662
998.676
998.691
998.705
998.72
998.736
998.751
998.767
998.783
998.8
998.816
998.833
998.851
998.869
998.887
998.906
998.925
998.944
998.964
998.984
999.005
999.026
999.047
999.07
999.092
999.116
999.138
999.163
999.186
999.211
999.235
999.261
999.284
999.311
999.335
999.363
999.387
999.415
999.44
999.468
999.493
999.521
999.546
999.573
999.597
999.623
999.646
999.673
999.696
999.723
999.748
999.774
999.799
999.825
999.849
999.875
999.9
999.925
999.95
999.976
1000
1000.03
1000.05
1000.07
1000.09
1000.11
1000.13
1000.15
1000.17
1000.18
1000.2
1000.21
1000.22
1000.24
1000.25
1000.26
1000.28
1000.29
1000.3
1000.31
1000.32
1000.33
1000.34
1000.34
1000.35
1000.36
1000.36
1000.37
1000.38
1000.38
1000.38
1000.39
1000.39
1000.39
1000.4
1000.4
1000.4
1000.4
1000.4
1000.41
1000.41
1000.41
1000.41
1000.41
1000.41
1000.41
1000.41
1000.41
1000.41
1000.41
1000.41
1000.41
1000.41
1000.41
1000.41
1000.41
1000.41
1000.41
1000.41
1000.41
1000.41
1000.41
1000.41
1000.41
1000.41
1000.41
1000.41
1000.41
1000.41
1000.41
1000.41
1000.41
1000.41
1000.41
1000.41
1000.41
1000.42
1000.42
1000.42
1000.42
1000.42
1000.42
1000.42
1000.42
1000.42
1000.42
1000.42
1000.42
1000.42
1000.43
1000.43
1000.43
1000.43
1000.43
1000.43
1000.43
1000.43
1000.43
1000.44
1000.44
1000.44
1000.44
1000.44
1000.44
1000.44
1000.44
1000.44
1000.44
1000.45
1000.45
1000.45
1000.45
1000.45
1000.45
1000.45
1000.45
1000.45
1000.45
1000.46
1000.46
1000.46
1000.46
1000.46
1000.46
1000.46
1000.46
1000.46
1000.46
1000.46
1000.46
1000.46
1000.46
1000.47
1000.47
1000.47
1000.47
1000.47
1000.47
1000.47
1000.47
1000.47
1000.47
1000.47
1000.47
1000.47
1000.47
1000.47
1000.47
1000.47
1000.47
1000.47
1000.47
1000.47
1000.47
1000.47
1000.47
1000.47
1000.47
1000.47
1000.46
1000.46
1000.46
1000.46
1000.46
1000.46
1000.46
1000.46
1000.46
1000.46
1000.46
1000.46
1000.46
1000.46
1000.45
1000.45
1000.45
1000.45
1000.45
1000.45
1000.45
1000.45
1000.45
1000.44
1000.44
1000.44
1000.44
1000.44
1000.44
1000.44
1000.43
1000.43
1000.43
1000.43
1000.43
1000.43
1000.43
1000.42
1000.42
1000.42
1000.42
1000.42
1000.42
1000.41
1000.41
1000.41
1000.41
1000.41
1000.4
1000.4
1000.4
1000.4
1000.4
1000.39
1000.39
1000.39
1000.39
1000.39
1000.38
1000.38
1000.38
1000.38
1000.38
1000.37
1000.37
1000.37
1000.37
1000.36
1000.36
1000.36
1000.36
1000.36
1000.35
1000.35
1000.35
1000.35
1000.34
1000.34
1000.34
1000.34
1000.33
1000.33
1000.33
1000.33
1000.32
1000.32
1000.32
1000.32
1000.31
1000.31
1000.31
1000.31
1000.3
1000.3
1000.3
1000.29
1000.29
1000.29
1000.29
1000.28
1000.28
1000.28
1000.28
1000.27
1000.27
1000.27
1000.26
1000.26
1000.26
1000.26
1000.25
1000.25
1000.25
1000.25
1000.24
1000.24
1000.24
1000.23
1000.23
1000.23
1000.22
1000.22
1000.22
1000.22
1000.21
1000.21
1000.21
1000.2
1000.2
1000.2
1000.2
1000.19
1000.19
1000.19
1000.18
1000.18
1000.18
1000.17
1000.17
1000.17
1000.17
1000.16
1000.16
1000.16
1000.15
1000.15
1000.15
1000.14
1000.14
1000.14
1000.13
1000.13
1000.13
1000.12
1000.12
1000.12
1000.12
1000.11
1000.11
1000.11
1000.1
1000.1
1000.1
1000.09
1000.09
1000.09
1000.08
1000.08
1000.08
1000.07
1000.07
1000.07
1000.06
1000.06
1000.06
1000.05
1000.05
1000.05
1000.04
1000.04
1000.04
1000.03
1000.03
1000.03
1000.02
1000.02
1000.02
1000.01
1000.01
1000.01
1000.01
1000
998.201
998.201
998.201
998.2
998.2
998.199
998.199
998.198
998.198
998.198
998.198
998.198
998.198
998.199
998.199
998.2
998.2
998.201
998.202
998.203
998.204
998.205
998.206
998.208
998.209
998.211
998.212
998.214
998.216
998.218
998.221
998.223
998.225
998.228
998.231
998.233
998.236
998.239
998.243
998.246
998.25
998.254
998.258
998.262
998.266
998.271
998.276
998.281
998.286
998.291
998.297
998.302
998.308
998.314
998.321
998.327
998.334
998.341
998.348
998.356
998.363
998.371
998.379
998.387
998.395
998.403
998.411
998.42
998.429
998.438
998.447
998.456
998.465
998.475
998.485
998.495
998.505
998.516
998.527
998.538
998.549
998.561
998.572
998.584
998.597
998.609
998.622
998.635
998.649
998.662
998.677
998.691
998.706
998.721
998.736
998.752
998.768
998.785
998.802
998.819
998.836
998.854
998.873
998.891
998.91
998.929
998.949
998.969
998.989
999.009
999.03
999.05
999.071
999.091
999.112
999.132
999.156
999.176
999.201
999.222
999.248
999.27
999.297
999.319
999.346
999.369
999.397
999.421
999.449
999.475
999.504
999.531
999.562
999.591
999.623
999.655
999.686
999.716
999.744
999.772
999.8
999.826
999.852
999.878
999.903
999.926
999.948
999.969
999.986
1000
1000.02
1000.03
1000.05
1000.07
1000.09
1000.11
1000.13
1000.15
1000.17
1000.19
1000.21
1000.22
1000.24
1000.25
1000.26
1000.28
1000.29
1000.3
1000.31
1000.32
1000.32
1000.34
1000.34
1000.35
1000.35
1000.36
1000.37
1000.37
1000.38
1000.38
1000.38
1000.39
1000.39
1000.4
1000.4
1000.4
1000.4
1000.4
1000.4
1000.41
1000.41
1000.41
1000.41
1000.41
1000.41
1000.41
1000.41
1000.41
1000.41
1000.41
1000.41
1000.41
1000.41
1000.41
1000.41
1000.41
1000.41
1000.41
1000.41
1000.41
1000.41
1000.41
1000.41
1000.41
1000.41
1000.41
1000.41
1000.41
1000.41
1000.41
1000.41
1000.41
1000.41
1000.41
1000.41
1000.42
1000.42
1000.42
1000.42
1000.42
1000.42
1000.42
1000.42
1000.42
1000.42
1000.42
1000.42
1000.42
1000.43
1000.43
1000.43
1000.43
1000.43
1000.43
1000.43
1000.43
1000.43
1000.44
1000.44
1000.44
1000.44
1000.44
1000.44
1000.44
1000.44
1000.44
1000.45
1000.45
1000.45
1000.45
1000.45
1000.45
1000.45
1000.45
1000.45
1000.45
1000.45
1000.46
1000.46
1000.46
1000.46
1000.46
1000.46
1000.46
1000.46
1000.46
1000.46
1000.46
1000.46
1000.46
1000.46
1000.47
1000.47
1000.47
1000.47
1000.47
1000.47
1000.47
1000.47
1000.47
1000.47
1000.47
1000.47
1000.47
1000.47
1000.47
1000.47
1000.47
1000.47
1000.47
1000.47
1000.47
1000.47
1000.47
1000.47
1000.47
1000.47
1000.47
1000.46
1000.46
1000.46
1000.46
1000.46
1000.46
1000.46
1000.46
1000.46
1000.46
1000.46
1000.46
1000.46
1000.46
1000.45
1000.45
1000.45
1000.45
1000.45
1000.45
1000.45
1000.45
1000.45
1000.44
1000.44
1000.44
1000.44
1000.44
1000.44
1000.44
1000.43
1000.43
1000.43
1000.43
1000.43
1000.43
1000.43
1000.42
1000.42
1000.42
1000.42
1000.42
1000.42
1000.41
1000.41
1000.41
1000.41
1000.41
1000.4
1000.4
1000.4
1000.4
1000.4
1000.39
1000.39
1000.39
1000.39
1000.39
1000.38
1000.38
1000.38
1000.38
1000.38
1000.37
1000.37
1000.37
1000.37
1000.36
1000.36
1000.36
1000.36
1000.35
1000.35
1000.35
1000.35
1000.35
1000.34
1000.34
1000.34
1000.34
1000.33
1000.33
1000.33
1000.33
1000.32
1000.32
1000.32
1000.32
1000.31
1000.31
1000.31
1000.31
1000.3
1000.3
1000.3
1000.29
1000.29
1000.29
1000.29
1000.28
1000.28
1000.28
1000.28
1000.27
1000.27
1000.27
1000.26
1000.26
1000.26
1000.26
1000.25
1000.25
1000.25
1000.24
1000.24
1000.24
1000.24
1000.23
1000.23
1000.23
1000.22
1000.22
1000.22
1000.22
1000.21
1000.21
1000.21
1000.2
1000.2
1000.2
1000.2
1000.19
1000.19
1000.19
1000.18
1000.18
1000.18
1000.17
1000.17
1000.17
1000.17
1000.16
1000.16
1000.16
1000.15
1000.15
1000.15
1000.14
1000.14
1000.14
1000.13
1000.13
1000.13
1000.12
1000.12
1000.12
1000.12
1000.11
1000.11
1000.11
1000.1
1000.1
1000.1
1000.09
1000.09
1000.09
1000.08
1000.08
1000.08
1000.07
1000.07
1000.07
1000.06
1000.06
1000.06
1000.05
1000.05
1000.05
1000.04
1000.04
1000.04
1000.03
1000.03
1000.03
1000.02
1000.02
1000.02
1000.01
1000.01
1000.01
1000.01
1000
998.202
998.201
998.201
998.2
998.2
998.199
998.199
998.199
998.199
998.199
998.199
998.199
998.199
998.199
998.199
998.2
998.2
998.201
998.202
998.202
998.203
998.204
998.205
998.206
998.208
998.209
998.211
998.213
998.215
998.217
998.22
998.222
998.225
998.228
998.232
998.235
998.239
998.243
998.247
998.251
998.255
998.259
998.263
998.268
998.272
998.277
998.282
998.286
998.291
998.297
998.302
998.307
998.313
998.319
998.324
998.33
998.336
998.342
998.348
998.355
998.361
998.368
998.375
998.383
998.391
998.399
998.407
998.415
998.424
998.433
998.443
998.452
998.462
998.472
998.482
998.492
998.503
998.514
998.525
998.536
998.548
998.56
998.572
998.584
998.597
998.61
998.623
998.636
998.65
998.663
998.677
998.692
998.706
998.721
998.736
998.751
998.766
998.782
998.798
998.815
998.832
998.849
998.866
998.884
998.902
998.921
998.94
998.959
998.98
999
999.022
999.044
999.068
999.092
999.118
999.142
999.168
999.192
999.218
999.242
999.268
999.293
999.32
999.345
999.373
999.398
999.426
999.451
999.479
999.504
999.531
999.553
999.579
999.598
999.62
999.635
999.66
999.679
999.706
999.727
999.754
999.777
999.803
999.827
999.853
999.877
999.904
999.93
999.96
999.988
1000.02
1000.05
1000.07
1000.09
1000.11
1000.13
1000.15
1000.17
1000.18
1000.19
1000.21
1000.22
1000.23
1000.25
1000.26
1000.27
1000.28
1000.3
1000.31
1000.32
1000.32
1000.33
1000.34
1000.35
1000.35
1000.36
1000.37
1000.37
1000.38
1000.38
1000.38
1000.39
1000.39
1000.39
1000.4
1000.4
1000.4
1000.4
1000.4
1000.41
1000.41
1000.41
1000.41
1000.41
1000.41
1000.41
1000.41
1000.41
1000.41
1000.41
1000.41
1000.41
1000.41
1000.41
1000.41
1000.41
1000.41
1000.41
1000.41
1000.41
1000.41
1000.41
1000.41
1000.41
1000.41
1000.41
1000.41
1000.41
1000.41
1000.41
1000.41
1000.41
1000.41
1000.41
1000.41
1000.42
1000.42
1000.42
1000.42
1000.42
1000.42
1000.42
1000.42
1000.42
1000.42
1000.42
1000.42
1000.43
1000.43
1000.43
1000.43
1000.43
1000.43
1000.43
1000.43
1000.43
1000.43
1000.44
1000.44
1000.44
1000.44
1000.44
1000.44
1000.44
1000.44
1000.44
1000.45
1000.45
1000.45
1000.45
1000.45
1000.45
1000.45
1000.45
1000.45
1000.45
1000.45
1000.46
1000.46
1000.46
1000.46
1000.46
1000.46
1000.46
1000.46
1000.46
1000.46
1000.46
1000.46
1000.46
1000.46
1000.47
1000.47
1000.47
1000.47
1000.47
1000.47
1000.47
1000.47
1000.47
1000.47
1000.47
1000.47
1000.47
1000.47
1000.47
1000.47
1000.47
1000.47
1000.47
1000.47
1000.47
1000.47
1000.47
1000.47
1000.47
1000.47
1000.47
1000.46
1000.46
1000.46
1000.46
1000.46
1000.46
1000.46
1000.46
1000.46
1000.46
1000.46
1000.46
1000.46
1000.46
1000.45
1000.45
1000.45
1000.45
1000.45
1000.45
1000.45
1000.45
1000.45
1000.44
1000.44
1000.44
1000.44
1000.44
1000.44
1000.44
1000.43
1000.43
1000.43
1000.43
1000.43
1000.43
1000.43
1000.42
1000.42
1000.42
1000.42
1000.42
1000.42
1000.41
1000.41
1000.41
1000.41
1000.41
1000.4
1000.4
1000.4
1000.4
1000.4
1000.39
1000.39
1000.39
1000.39
1000.39
1000.38
1000.38
1000.38
1000.38
1000.38
1000.37
1000.37
1000.37
1000.37
1000.36
1000.36
1000.36
1000.36
1000.35
1000.35
1000.35
1000.35
1000.35
1000.34
1000.34
1000.34
1000.34
1000.33
1000.33
1000.33
1000.33
1000.32
1000.32
1000.32
1000.32
1000.31
1000.31
1000.31
1000.31
1000.3
1000.3
1000.3
1000.29
1000.29
1000.29
1000.29
1000.28
1000.28
1000.28
1000.28
1000.27
1000.27
1000.27
1000.26
1000.26
1000.26
1000.26
1000.25
1000.25
1000.25
1000.24
1000.24
1000.24
1000.24
1000.23
1000.23
1000.23
1000.22
1000.22
1000.22
1000.22
1000.21
1000.21
1000.21
1000.2
1000.2
1000.2
1000.2
1000.19
1000.19
1000.19
1000.18
1000.18
1000.18
1000.17
1000.17
1000.17
1000.16
1000.16
1000.16
1000.16
1000.15
1000.15
1000.15
1000.14
1000.14
1000.14
1000.13
1000.13
1000.13
1000.12
1000.12
1000.12
1000.12
1000.11
1000.11
1000.11
1000.1
1000.1
1000.1
1000.09
1000.09
1000.09
1000.08
1000.08
1000.08
1000.07
1000.07
1000.07
1000.06
1000.06
1000.06
1000.05
1000.05
1000.05
1000.04
1000.04
1000.04
1000.03
1000.03
1000.03
1000.02
1000.02
1000.02
1000.01
1000.01
1000.01
1000.01
1000
998.203
998.202
998.202
998.201
998.2
998.2
998.2
998.2
998.199
998.199
998.199
998.199
998.2
998.2
998.2
998.201
998.201
998.202
998.203
998.204
998.205
998.206
998.208
998.209
998.211
998.213
998.215
998.216
998.218
998.22
998.222
998.224
998.227
998.229
998.231
998.233
998.236
998.239
998.241
998.244
998.248
998.251
998.255
998.259
998.264
998.268
998.273
998.278
998.283
998.289
998.295
998.3
998.306
998.313
998.319
998.326
998.333
998.341
998.348
998.357
998.365
998.373
998.381
998.389
998.398
998.406
998.414
998.423
998.431
998.44
998.449
998.458
998.468
998.477
998.487
998.497
998.507
998.517
998.528
998.539
998.55
998.561
998.573
998.585
998.597
998.609
998.622
998.635
998.648
998.662
998.676
998.69
998.705
998.72
998.736
998.752
998.768
998.785
998.802
998.82
998.838
998.855
998.875
998.893
998.913
998.931
998.952
998.971
998.993
999.012
999.033
999.052
999.074
999.088
999.109
999.126
999.15
999.168
999.194
999.213
999.239
999.26
999.286
999.308
999.335
999.357
999.384
999.408
999.436
999.461
999.49
999.518
999.548
999.58
999.614
999.649
999.682
999.712
999.741
999.769
999.797
999.824
999.85
999.875
999.9
999.924
999.946
999.967
999.986
1000
1000.02
1000.04
1000.06
1000.07
1000.09
1000.11
1000.13
1000.15
1000.17
1000.19
1000.2
1000.22
1000.23
1000.25
1000.26
1000.27
1000.28
1000.3
1000.3
1000.32
1000.32
1000.33
1000.34
1000.35
1000.35
1000.36
1000.36
1000.37
1000.37
1000.38
1000.38
1000.39
1000.39
1000.39
1000.39
1000.4
1000.4
1000.4
1000.4
1000.4
1000.41
1000.41
1000.41
1000.41
1000.41
1000.41
1000.41
1000.41
1000.41
1000.41
1000.41
1000.41
1000.41
1000.41
1000.41
1000.41
1000.41
1000.41
1000.41
1000.41
1000.41
1000.41
1000.41
1000.41
1000.41
1000.41
1000.41
1000.41
1000.41
1000.41
1000.41
1000.41
1000.41
1000.41
1000.41
1000.42
1000.42
1000.42
1000.42
1000.42
1000.42
1000.42
1000.42
1000.42
1000.42
1000.42
1000.42
1000.43
1000.43
1000.43
1000.43
1000.43
1000.43
1000.43
1000.43
1000.43
1000.43
1000.44
1000.44
1000.44
1000.44
1000.44
1000.44
1000.44
1000.44
1000.44
1000.45
1000.45
1000.45
1000.45
1000.45
1000.45
1000.45
1000.45
1000.45
1000.45
1000.46
1000.46
1000.46
1000.46
1000.46
1000.46
1000.46
1000.46
1000.46
1000.46
1000.46
1000.46
1000.46
1000.46
1000.46
1000.47
1000.47
1000.47
1000.47
1000.47
1000.47
1000.47
1000.47
1000.47
1000.47
1000.47
1000.47
1000.47
1000.47
1000.47
1000.47
1000.47
1000.47
1000.47
1000.47
1000.47
1000.47
1000.47
1000.47
1000.47
1000.47
1000.47
1000.46
1000.46
1000.46
1000.46
1000.46
1000.46
1000.46
1000.46
1000.46
1000.46
1000.46
1000.46
1000.46
1000.46
1000.45
1000.45
1000.45
1000.45
1000.45
1000.45
1000.45
1000.45
1000.45
1000.44
1000.44
1000.44
1000.44
1000.44
1000.44
1000.44
1000.43
1000.43
1000.43
1000.43
1000.43
1000.43
1000.43
1000.42
1000.42
1000.42
1000.42
1000.42
1000.42
1000.41
1000.41
1000.41
1000.41
1000.41
1000.4
1000.4
1000.4
1000.4
1000.4
1000.39
1000.39
1000.39
1000.39
1000.39
1000.38
1000.38
1000.38
1000.38
1000.38
1000.37
1000.37
1000.37
1000.37
1000.36
1000.36
1000.36
1000.36
1000.35
1000.35
1000.35
1000.35
1000.35
1000.34
1000.34
1000.34
1000.34
1000.33
1000.33
1000.33
1000.33
1000.32
1000.32
1000.32
1000.32
1000.31
1000.31
1000.31
1000.31
1000.3
1000.3
1000.3
1000.29
1000.29
1000.29
1000.29
1000.28
1000.28
1000.28
1000.28
1000.27
1000.27
1000.27
1000.26
1000.26
1000.26
1000.26
1000.25
1000.25
1000.25
1000.24
1000.24
1000.24
1000.24
1000.23
1000.23
1000.23
1000.22
1000.22
1000.22
1000.22
1000.21
1000.21
1000.21
1000.2
1000.2
1000.2
1000.2
1000.19
1000.19
1000.19
1000.18
1000.18
1000.18
1000.17
1000.17
1000.17
1000.16
1000.16
1000.16
1000.16
1000.15
1000.15
1000.15
1000.14
1000.14
1000.14
1000.13
1000.13
1000.13
1000.12
1000.12
1000.12
1000.12
1000.11
1000.11
1000.11
1000.1
1000.1
1000.1
1000.09
1000.09
1000.09
1000.08
1000.08
1000.08
1000.07
1000.07
1000.07
1000.06
1000.06
1000.06
1000.05
1000.05
1000.05
1000.04
1000.04
1000.04
1000.03
1000.03
1000.03
1000.02
1000.02
1000.02
1000.01
1000.01
1000.01
1000.01
1000
998.203
998.202
998.202
998.201
998.201
998.2
998.2
998.2
998.2
998.2
998.2
998.2
998.2
998.2
998.2
998.201
998.201
998.202
998.202
998.203
998.203
998.204
998.205
998.206
998.207
998.208
998.21
998.212
998.214
998.216
998.219
998.222
998.225
998.228
998.232
998.236
998.24
998.245
998.249
998.254
998.258
998.263
998.267
998.272
998.276
998.281
998.285
998.29
998.295
998.3
998.305
998.31
998.316
998.321
998.327
998.332
998.338
998.344
998.349
998.354
998.36
998.366
998.373
998.38
998.388
998.396
998.404
998.413
998.421
998.431
998.44
998.45
998.459
998.47
998.48
998.49
998.501
998.512
998.523
998.535
998.547
998.559
998.571
998.583
998.596
998.609
998.622
998.636
998.65
998.663
998.677
998.691
998.706
998.72
998.735
998.75
998.765
998.78
998.797
998.812
998.829
998.845
998.863
998.88
998.899
998.916
998.936
998.953
998.974
998.994
999.016
999.037
999.06
999.089
999.113
999.139
999.164
999.188
999.214
999.238
999.265
999.289
999.317
999.341
999.369
999.394
999.422
999.447
999.475
999.5
999.527
999.55
999.576
999.597
999.62
999.64
999.664
999.686
999.712
999.734
999.761
999.784
999.81
999.834
999.86
999.885
999.91
999.935
999.962
999.987
1000.01
1000.04
1000.06
1000.08
1000.1
1000.12
1000.14
1000.16
1000.17
1000.19
1000.2
1000.22
1000.23
1000.25
1000.26
1000.27
1000.28
1000.29
1000.3
1000.31
1000.32
1000.33
1000.34
1000.35
1000.35
1000.36
1000.36
1000.37
1000.37
1000.38
1000.38
1000.39
1000.39
1000.39
1000.39
1000.4
1000.4
1000.4
1000.4
1000.4
1000.4
1000.41
1000.41
1000.41
1000.41
1000.41
1000.41
1000.41
1000.41
1000.41
1000.41
1000.41
1000.41
1000.41
1000.41
1000.41
1000.41
1000.41
1000.41
1000.41
1000.41
1000.41
1000.41
1000.41
1000.41
1000.41
1000.41
1000.41
1000.41
1000.41
1000.41
1000.41
1000.41
1000.41
1000.41
1000.41
1000.42
1000.42
1000.42
1000.42
1000.42
1000.42
1000.42
1000.42
1000.42
1000.42
1000.42
1000.43
1000.43
1000.43
1000.43
1000.43
1000.43
1000.43
1000.43
1000.43
1000.43
1000.44
1000.44
1000.44
1000.44
1000.44
1000.44
1000.44
1000.44
1000.44
1000.45
1000.45
1000.45
1000.45
1000.45
1000.45
1000.45
1000.45
1000.45
1000.45
1000.46
1000.46
1000.46
1000.46
1000.46
1000.46
1000.46
1000.46
1000.46
1000.46
1000.46
1000.46
1000.46
1000.46
1000.46
1000.47
1000.47
1000.47
1000.47
1000.47
1000.47
1000.47
1000.47
1000.47
1000.47
1000.47
1000.47
1000.47
1000.47
1000.47
1000.47
1000.47
1000.47
1000.47
1000.47
1000.47
1000.47
1000.47
1000.47
1000.47
1000.47
1000.47
1000.46
1000.46
1000.46
1000.46
1000.46
1000.46
1000.46
1000.46
1000.46
1000.46
1000.46
1000.46
1000.46
1000.46
1000.45
1000.45
1000.45
1000.45
1000.45
1000.45
1000.45
1000.45
1000.45
1000.44
1000.44
1000.44
1000.44
1000.44
1000.44
1000.44
1000.43
1000.43
1000.43
1000.43
1000.43
1000.43
1000.43
1000.42
1000.42
1000.42
1000.42
1000.42
1000.41
1000.41
1000.41
1000.41
1000.41
1000.41
1000.4
1000.4
1000.4
1000.4
1000.4
1000.39
1000.39
1000.39
1000.39
1000.39
1000.38
1000.38
1000.38
1000.38
1000.38
1000.37
1000.37
1000.37
1000.37
1000.36
1000.36
1000.36
1000.36
1000.35
1000.35
1000.35
1000.35
1000.35
1000.34
1000.34
1000.34
1000.34
1000.33
1000.33
1000.33
1000.33
1000.32
1000.32
1000.32
1000.32
1000.31
1000.31
1000.31
1000.31
1000.3
1000.3
1000.3
1000.29
1000.29
1000.29
1000.29
1000.28
1000.28
1000.28
1000.28
1000.27
1000.27
1000.27
1000.26
1000.26
1000.26
1000.26
1000.25
1000.25
1000.25
1000.24
1000.24
1000.24
1000.24
1000.23
1000.23
1000.23
1000.22
1000.22
1000.22
1000.22
1000.21
1000.21
1000.21
1000.2
1000.2
1000.2
1000.2
1000.19
1000.19
1000.19
1000.18
1000.18
1000.18
1000.17
1000.17
1000.17
1000.16
1000.16
1000.16
1000.16
1000.15
1000.15
1000.15
1000.14
1000.14
1000.14
1000.13
1000.13
1000.13
1000.12
1000.12
1000.12
1000.12
1000.11
1000.11
1000.11
1000.1
1000.1
1000.1
1000.09
1000.09
1000.09
1000.08
1000.08
1000.08
1000.07
1000.07
1000.07
1000.06
1000.06
1000.06
1000.05
1000.05
1000.05
1000.04
1000.04
1000.04
1000.03
1000.03
1000.03
1000.02
1000.02
1000.02
1000.01
1000.01
1000.01
1000.01
1000
998.204
998.202
998.202
998.201
998.201
998.2
998.2
998.2
998.2
998.2
998.2
998.2
998.2
998.2
998.2
998.201
998.201
998.202
998.203
998.204
998.205
998.207
998.209
998.211
998.213
998.214
998.216
998.218
998.22
998.222
998.224
998.226
998.228
998.23
998.231
998.233
998.235
998.237
998.239
998.241
998.244
998.247
998.251
998.255
998.259
998.264
998.269
998.274
998.279
998.285
998.29
998.296
998.303
998.309
998.316
998.323
998.33
998.338
998.346
998.357
998.365
998.375
998.383
998.392
998.4
998.408
998.417
998.425
998.433
998.442
998.451
998.46
998.469
998.478
998.488
998.498
998.508
998.518
998.528
998.539
998.55
998.561
998.573
998.584
998.596
998.608
998.621
998.633
998.646
998.66
998.674
998.688
998.704
998.718
998.734
998.749
998.767
998.782
998.8
998.817
998.835
998.852
998.872
998.889
998.91
998.928
998.949
998.968
998.989
999.008
999.03
999.048
999.07
999.087
999.109
999.127
999.151
999.17
999.195
999.215
999.242
999.263
999.289
999.311
999.339
999.361
999.389
999.413
999.441
999.466
999.495
999.521
999.552
999.579
999.611
999.64
999.671
999.699
999.728
999.755
999.783
999.809
999.835
999.861
999.885
999.909
999.932
999.955
999.976
999.997
1000.02
1000.04
1000.05
1000.07
1000.09
1000.11
1000.13
1000.15
1000.16
1000.18
1000.2
1000.22
1000.23
1000.24
1000.25
1000.27
1000.28
1000.29
1000.3
1000.31
1000.32
1000.33
1000.33
1000.34
1000.35
1000.36
1000.36
1000.37
1000.37
1000.38
1000.38
1000.38
1000.39
1000.39
1000.39
1000.39
1000.4
1000.4
1000.4
1000.4
1000.4
1000.4
1000.4
1000.4
1000.41
1000.41
1000.41
1000.41
1000.41
1000.41
1000.41
1000.41
1000.41
1000.41
1000.41
1000.41
1000.41
1000.41
1000.41
1000.41
1000.41
1000.41
1000.41
1000.41
1000.41
1000.41
1000.41
1000.41
1000.41
1000.41
1000.41
1000.41
1000.41
1000.41
1000.41
1000.42
1000.42
1000.42
1000.42
1000.42
1000.42
1000.42
1000.42
1000.42
1000.42
1000.42
1000.42
1000.43
1000.43
1000.43
1000.43
1000.43
1000.43
1000.43
1000.43
1000.43
1000.43
1000.44
1000.44
1000.44
1000.44
1000.44
1000.44
1000.44
1000.44
1000.44
1000.45
1000.45
1000.45
1000.45
1000.45
1000.45
1000.45
1000.45
1000.45
1000.45
1000.46
1000.46
1000.46
1000.46
1000.46
1000.46
1000.46
1000.46
1000.46
1000.46
1000.46
1000.46
1000.46
1000.46
1000.46
1000.47
1000.47
1000.47
1000.47
1000.47
1000.47
1000.47
1000.47
1000.47
1000.47
1000.47
1000.47
1000.47
1000.47
1000.47
1000.47
1000.47
1000.47
1000.47
1000.47
1000.47
1000.47
1000.47
1000.47
1000.47
1000.47
1000.47
1000.46
1000.46
1000.46
1000.46
1000.46
1000.46
1000.46
1000.46
1000.46
1000.46
1000.46
1000.46
1000.46
1000.46
1000.45
1000.45
1000.45
1000.45
1000.45
1000.45
1000.45
1000.45
1000.45
1000.44
1000.44
1000.44
1000.44
1000.44
1000.44
1000.44
1000.43
1000.43
1000.43
1000.43
1000.43
1000.43
1000.43
1000.42
1000.42
1000.42
1000.42
1000.42
1000.42
1000.41
1000.41
1000.41
1000.41
1000.41
1000.4
1000.4
1000.4
1000.4
1000.4
1000.39
1000.39
1000.39
1000.39
1000.39
1000.38
1000.38
1000.38
1000.38
1000.38
1000.37
1000.37
1000.37
1000.37
1000.36
1000.36
1000.36
1000.36
1000.35
1000.35
1000.35
1000.35
1000.35
1000.34
1000.34
1000.34
1000.34
1000.33
1000.33
1000.33
1000.33
1000.32
1000.32
1000.32
1000.32
1000.31
1000.31
1000.31
1000.31
1000.3
1000.3
1000.3
1000.29
1000.29
1000.29
1000.29
1000.28
1000.28
1000.28
1000.28
1000.27
1000.27
1000.27
1000.26
1000.26
1000.26
1000.26
1000.25
1000.25
1000.25
1000.24
1000.24
1000.24
1000.24
1000.23
1000.23
1000.23
1000.22
1000.22
1000.22
1000.22
1000.21
1000.21
1000.21
1000.2
1000.2
1000.2
1000.2
1000.19
1000.19
1000.19
1000.18
1000.18
1000.18
1000.17
1000.17
1000.17
1000.16
1000.16
1000.16
1000.16
1000.15
1000.15
1000.15
1000.14
1000.14
1000.14
1000.13
1000.13
1000.13
1000.12
1000.12
1000.12
1000.12
1000.11
1000.11
1000.11
1000.1
1000.1
1000.1
1000.09
1000.09
1000.09
1000.08
1000.08
1000.08
1000.07
1000.07
1000.07
1000.06
1000.06
1000.06
1000.05
1000.05
1000.05
1000.04
1000.04
1000.04
1000.03
1000.03
1000.03
1000.02
1000.02
1000.02
1000.01
1000.01
1000.01
1000.01
1000
998.204
998.202
998.202
998.2
998.2
998.2
998.2
998.199
998.199
998.199
998.199
998.199
998.199
998.2
998.2
998.2
998.201
998.201
998.202
998.202
998.203
998.203
998.203
998.204
998.205
998.206
998.207
998.209
998.211
998.213
998.215
998.219
998.222
998.226
998.23
998.235
998.24
998.245
998.25
998.256
998.261
998.266
998.271
998.275
998.28
998.284
998.289
998.294
998.298
998.303
998.308
998.313
998.319
998.324
998.33
998.335
998.341
998.345
998.351
998.355
998.36
998.365
998.372
998.379
998.386
998.394
998.403
998.411
998.42
998.429
998.439
998.448
998.458
998.468
998.478
998.489
998.5
998.51
998.522
998.533
998.545
998.557
998.569
998.581
998.594
998.607
998.62
998.633
998.648
998.661
998.675
998.689
998.704
998.717
998.733
998.747
998.764
998.778
998.795
998.81
998.828
998.844
998.863
998.879
998.898
998.915
998.936
998.953
998.975
998.994
999.017
999.036
999.061
999.083
999.108
999.131
999.156
999.179
999.205
999.228
999.255
999.278
999.306
999.329
999.357
999.381
999.409
999.434
999.462
999.486
999.514
999.538
999.565
999.588
999.614
999.637
999.663
999.687
999.713
999.737
999.763
999.788
999.813
999.838
999.863
999.888
999.912
999.937
999.961
999.986
1000.01
1000.03
1000.05
1000.08
1000.09
1000.11
1000.13
1000.15
1000.16
1000.18
1000.2
1000.21
1000.22
1000.24
1000.25
1000.27
1000.27
1000.29
1000.3
1000.31
1000.31
1000.33
1000.33
1000.34
1000.34
1000.35
1000.36
1000.36
1000.37
1000.37
1000.38
1000.38
1000.38
1000.39
1000.39
1000.39
1000.39
1000.4
1000.4
1000.4
1000.4
1000.4
1000.4
1000.4
1000.4
1000.4
1000.4
1000.4
1000.4
1000.41
1000.41
1000.41
1000.41
1000.41
1000.41
1000.41
1000.41
1000.41
1000.41
1000.41
1000.41
1000.41
1000.41
1000.41
1000.41
1000.41
1000.41
1000.41
1000.41
1000.41
1000.41
1000.41
1000.41
1000.41
1000.41
1000.41
1000.41
1000.42
1000.42
1000.42
1000.42
1000.42
1000.42
1000.42
1000.42
1000.42
1000.42
1000.43
1000.43
1000.43
1000.43
1000.43
1000.43
1000.43
1000.43
1000.43
1000.44
1000.44
1000.44
1000.44
1000.44
1000.44
1000.44
1000.44
1000.44
1000.45
1000.45
1000.45
1000.45
1000.45
1000.45
1000.45
1000.45
1000.45
1000.45
1000.46
1000.46
1000.46
1000.46
1000.46
1000.46
1000.46
1000.46
1000.46
1000.46
1000.46
1000.46
1000.46
1000.46
1000.47
1000.47
1000.47
1000.47
1000.47
1000.47
1000.47
1000.47
1000.47
1000.47
1000.47
1000.47
1000.47
1000.47
1000.47
1000.47
1000.47
1000.47
1000.47
1000.47
1000.47
1000.47
1000.47
1000.47
1000.47
1000.47
1000.47
1000.47
1000.47
1000.46
1000.46
1000.46
1000.46
1000.46
1000.46
1000.46
1000.46
1000.46
1000.46
1000.46
1000.46
1000.46
1000.46
1000.45
1000.45
1000.45
1000.45
1000.45
1000.45
1000.45
1000.45
1000.45
1000.44
1000.44
1000.44
1000.44
1000.44
1000.44
1000.44
1000.43
1000.43
1000.43
1000.43
1000.43
1000.43
1000.43
1000.42
1000.42
1000.42
1000.42
1000.42
1000.41
1000.41
1000.41
1000.41
1000.41
1000.41
1000.4
1000.4
1000.4
1000.4
1000.4
1000.39
1000.39
1000.39
1000.39
1000.39
1000.38
1000.38
1000.38
1000.38
1000.38
1000.37
1000.37
1000.37
1000.37
1000.36
1000.36
1000.36
1000.36
1000.35
1000.35
1000.35
1000.35
1000.35
1000.34
1000.34
1000.34
1000.34
1000.33
1000.33
1000.33
1000.33
1000.32
1000.32
1000.32
1000.32
1000.31
1000.31
1000.31
1000.31
1000.3
1000.3
1000.3
1000.29
1000.29
1000.29
1000.29
1000.28
1000.28
1000.28
1000.28
1000.27
1000.27
1000.27
1000.26
1000.26
1000.26
1000.26
1000.25
1000.25
1000.25
1000.24
1000.24
1000.24
1000.24
1000.23
1000.23
1000.23
1000.22
1000.22
1000.22
1000.22
1000.21
1000.21
1000.21
1000.2
1000.2
1000.2
1000.2
1000.19
1000.19
1000.19
1000.18
1000.18
1000.18
1000.17
1000.17
1000.17
1000.16
1000.16
1000.16
1000.16
1000.15
1000.15
1000.15
1000.14
1000.14
1000.14
1000.13
1000.13
1000.13
1000.12
1000.12
1000.12
1000.12
1000.11
1000.11
1000.11
1000.1
1000.1
1000.1
1000.09
1000.09
1000.09
1000.08
1000.08
1000.08
1000.07
1000.07
1000.07
1000.06
1000.06
1000.06
1000.05
1000.05
1000.05
1000.04
1000.04
1000.04
1000.03
1000.03
1000.03
1000.02
1000.02
1000.02
1000.01
1000.01
1000.01
1000.01
1000
998.204
998.202
998.201
998.2
998.2
998.199
998.199
998.199
998.198
998.198
998.198
998.198
998.198
998.199
998.199
998.199
998.2
998.2
998.201
998.202
998.204
998.206
998.208
998.21
998.213
998.215
998.218
998.22
998.222
998.224
998.226
998.228
998.23
998.232
998.233
998.234
998.236
998.237
998.239
998.241
998.243
998.246
998.25
998.253
998.258
998.262
998.267
998.272
998.278
998.283
998.289
998.295
998.301
998.307
998.314
998.321
998.329
998.336
998.344
998.354
998.362
998.371
998.379
998.388
998.396
998.404
998.412
998.421
998.43
998.438
998.447
998.456
998.466
998.475
998.485
998.494
998.505
998.515
998.526
998.536
998.548
998.558
998.57
998.581
998.594
998.606
998.619
998.631
998.645
998.657
998.672
998.686
998.701
998.715
998.732
998.746
998.764
998.778
998.797
998.812
998.831
998.847
998.867
998.883
998.904
998.921
998.942
998.96
998.982
999
999.023
999.041
999.064
999.082
999.105
999.125
999.149
999.169
999.194
999.215
999.241
999.263
999.29
999.312
999.34
999.362
999.391
999.414
999.443
999.467
999.496
999.522
999.551
999.577
999.607
999.634
999.663
999.69
999.718
999.745
999.771
999.798
999.823
999.849
999.873
999.898
999.921
999.945
999.966
999.989
1000.01
1000.03
1000.05
1000.07
1000.09
1000.11
1000.12
1000.14
1000.16
1000.18
1000.19
1000.21
1000.22
1000.24
1000.25
1000.26
1000.27
1000.28
1000.29
1000.3
1000.31
1000.32
1000.33
1000.34
1000.34
1000.35
1000.35
1000.36
1000.36
1000.37
1000.37
1000.38
1000.38
1000.38
1000.38
1000.39
1000.39
1000.39
1000.39
1000.39
1000.39
1000.4
1000.4
1000.4
1000.4