/*--------------------------------*- C++ -*----------------------------------*\
| =========                 |                                                 |
| \\      /  F ield         | OpenFOAM: The Open Source CFD Toolbox           |
|  \\    /   O peration     | Version:  2012                                  |
|   \\  /    A nd           | Website:  www.openfoam.com                      |
|    \\/     M anipulation  |                                                 |
\*---------------------------------------------------------------------------*/
FoamFile
{
    version     2.0;
    format      ascii;
    class       volScalarField;
    location    "0.00013";
    object      pcorr;
}
// * * * * * * * * * * * * * * * * * * * * * * * * * * * * * * * * * * * * * //

dimensions      [1 -1 -2 0 0 0 0];


internalField   nonuniform List<scalar> 
5000
(
-0.008931937985
-0.008932022967
-0.008932269148
-0.008932614912
-0.008932927627
-0.008933163686
-0.008933261753
-0.008933255121
-0.008933155352
-0.008932852475
-0.008932411327
-0.008931827012
-0.008931214996
-0.008930631106
-0.008930049505
-0.008929652556
-0.008929339795
-0.008929150762
-0.008929053621
-0.008929115383
-0.00892917963
-0.008929294357
-0.008929325671
-0.008929224595
-0.008928935179
-0.00892856657
-0.008928111177
-0.008927561172
-0.008926991117
-0.008926424304
-0.008925934495
-0.008925895654
-0.008925490707
-0.008924711949
-0.008923074533
-0.008920464693
-0.008916486586
-0.008912577945
-0.008908218207
-0.008903245283
-0.008898111284
-0.008892044243
-0.008885799156
-0.008880683583
-0.008874860419
-0.008869437721
-0.008864356389
-0.00885872564
-0.008851745284
-0.008845080605
-0.008838758715
-0.008832905223
-0.008826705688
-0.008820289844
-0.0088144066
-0.008808396847
-0.008801790712
-0.008794248228
-0.008786202422
-0.008778254585
-0.008769879516
-0.008761260091
-0.008751405835
-0.008741524229
-0.008732461311
-0.008723334551
-0.008712370507
-0.008699238716
-0.008687923181
-0.008678474407
-0.00867027802
-0.008662663702
-0.008655061707
-0.008647212846
-0.008638972945
-0.008630364837
-0.008621066836
-0.008610445679
-0.008598738719
-0.008588219946
-0.008579367238
-0.008571253671
-0.008562587337
-0.008551860171
-0.008540466273
-0.008530110183
-0.008519607007
-0.008508247987
-0.008497508021
-0.008488040528
-0.008479698327
-0.008471170663
-0.008461711719
-0.008452841478
-0.008444924552
-0.008436999626
-0.008428827921
-0.008420640288
-0.008412447042
-0.008404308724
-0.008396573545
-0.00838901075
-0.008381498686
-0.00837337553
-0.008363786498
-0.008352982975
-0.008341622394
-0.008329312578
-0.008317545893
-0.008306217363
-0.008294969617
-0.008283905025
-0.008273503448
-0.008262596421
-0.008251750713
-0.008240675461
-0.008230409282
-0.008220370777
-0.008211090258
-0.008202734766
-0.008194579536
-0.008186434067
-0.008178225934
-0.008169848869
-0.008161031382
-0.008152544034
-0.008144910034
-0.008136620173
-0.008126568541
-0.008116274872
-0.008106353262
-0.008096138073
-0.008085706255
-0.008075532453
-0.008066193383
-0.008057791477
-0.008049014318
-0.008038367715
-0.008025750329
-0.008012393826
-0.007999001273
-0.007986064017
-0.007975061398
-0.007966352119
-0.00795762525
-0.007946463294
-0.007933724193
-0.007922624757
-0.007912554613
-0.007902691144
-0.007893659288
-0.007885035629
-0.007876611184
-0.007868338565
-0.007859761408
-0.007850912047
-0.00784152616
-0.007831731636
-0.007822445656
-0.007813257308
-0.007803218051
-0.007791785686
-0.007778586624
-0.007765538063
-0.007754168881
-0.007743876567
-0.007733760217
-0.007724120255
-0.00771558295
-0.007707445241
-0.00769892811
-0.007690109789
-0.007681135172
-0.00767182886
-0.007661128898
-0.007650028322
-0.007640226303
-0.007630515211
-0.007620864017
-0.007611306881
-0.007601021308
-0.007589810114
-0.007579088696
-0.007569541105
-0.007559815635
-0.007550049821
-0.007541230952
-0.00753291109
-0.007524713457
-0.007516344878
-0.007507721826
-0.007499127533
-0.007490856976
-0.007482464446
-0.007473799557
-0.007465617134
-0.007457535455
-0.007449268194
-0.007440893183
-0.007432271914
-0.007423174698
-0.007412890149
-0.007402244585
-0.007392447246
-0.00738265952
-0.007372142566
-0.00736204229
-0.007352153059
-0.007340795568
-0.00732955649
-0.007320314725
-0.007311715537
-0.00730275437
-0.007293458027
-0.007284930814
-0.007276806723
-0.007268301774
-0.007260079534
-0.007251517725
-0.007242365918
-0.007233635348
-0.007224612755
-0.007214569506
-0.00720482748
-0.007195455595
-0.007185908945
-0.00717710285
-0.007168855793
-0.007160579042
-0.007152019794
-0.007143033238
-0.007133896731
-0.007124955914
-0.00711603329
-0.007106345234
-0.007095704386
-0.007085686445
-0.007076731951
-0.007068088299
-0.007059114673
-0.007048353543
-0.007035449479
-0.007022826867
-0.007011521415
-0.007001312476
-0.006991957829
-0.006983153375
-0.006974438694
-0.006965189477
-0.006955214233
-0.00694461705
-0.006934445152
-0.006925210121
-0.006915808713
-0.006906259848
-0.006897203459
-0.006888156661
-0.006879321475
-0.006871027028
-0.006862629454
-0.00685417994
-0.006845601929
-0.006836612614
-0.006827722753
-0.006818818185
-0.006809835583
-0.006800758211
-0.006791836076
-0.006782346077
-0.006771816835
-0.006761206875
-0.006751390376
-0.006742519194
-0.006733700108
-0.006724639035
-0.006715214579
-0.006705167838
-0.006694852839
-0.006685216637
-0.006675669801
-0.006665702322
-0.006656044842
-0.006645971145
-0.006635093293
-0.006624463457
-0.006614247348
-0.006604193662
-0.006593103847
-0.006580871018
-0.006570299499
-0.006561092547
-0.006552011201
-0.006543329335
-0.006534932409
-0.006526964852
-0.006518877866
-0.006509691668
-0.006499798138
-0.006489529321
-0.00647942338
-0.006469973147
-0.00646099265
-0.006452620708
-0.006444393999
-0.006435895331
-0.006427251989
-0.006417780342
-0.006407374582
-0.006396980374
-0.006387302861
-0.006377702813
-0.006367955259
-0.006358321665
-0.006347945589
-0.006337663516
-0.006328771288
-0.006319880769
-0.006309607134
-0.006298437891
-0.00628781639
-0.006278457336
-0.00626915034
-0.006259410186
-0.006249235338
-0.006238624608
-0.006228013557
-0.006217095344
-0.006206722167
-0.006197834502
-0.006189565532
-0.006180566951
-0.006170952017
-0.006161805123
-0.006152853586
-0.006144017573
-0.006135280402
-0.006126841711
-0.006118281711
-0.006108921944
-0.006098865347
-0.006088361073
-0.006078139521
-0.006069027083
-0.006060755829
-0.006052654798
-0.006044526043
-0.006036314584
-0.006027755067
-0.006018213872
-0.006007752679
-0.00599739433
-0.005987976186
-0.005979521188
-0.005970714925
-0.0059611239
-0.005952411874
-0.005943746134
-0.005933770017
-0.005923609914
-0.005914007139
-0.005904620824
-0.005895456235
-0.005886615897
-0.005877640973
-0.005867790057
-0.00585724711
-0.005847390831
-0.005838363948
-0.005829199843
-0.005820124199
-0.005811052481
-0.005801139647
-0.005790950967
-0.005780938106
-0.005771346951
-0.005762072873
-0.005752145665
-0.005741155295
-0.005730009704
-0.005719647685
-0.005708630184
-0.005695646209
-0.005682731456
-0.005670402496
-0.00565728092
-0.005644354328
-0.005632919606
-0.005622265041
-0.005611757818
-0.005601249597
-0.005590581401
-0.005579666007
-0.005569270731
-0.00555960265
-0.005549764611
-0.005540910364
-0.005532212258
-0.005521858858
-0.00551097304
-0.005500452229
-0.005489802581
-0.00547882055
-0.005468090218
-0.005458430291
-0.005449311316
-0.005439908528
-0.005430111398
-0.005419787048
-0.005409126289
-0.005398974587
-0.005390120137
-0.005382105788
-0.005373527284
-0.005364035069
-0.005354808798
-0.005345610692
-0.00533699971
-0.005328365437
-0.005318916914
-0.005310071384
-0.00530106351
-0.00529086949
-0.005280824877
-0.005271272441
-0.005260801119
-0.005249140127
-0.005238073382
-0.005228078772
-0.005219135761
-0.005210890855
-0.005202331249
-0.005192528033
-0.005181961738
-0.00517144834
-0.005161573799
-0.005152375684
-0.005143084396
-0.005133652366
-0.005123366504
-0.005112597533
-0.005102239938
-0.005092452103
-0.005083022199
-0.005073330361
-0.005063317306
-0.005052841561
-0.005042678136
-0.005033377916
-0.005024260489
-0.005014904463
-0.005004630151
-0.004992968686
-0.004979997226
-0.004966657537
-0.004954784168
-0.004943172431
-0.004930420953
-0.00491704933
-0.004904065712
-0.004892399823
-0.00488188131
-0.004870948863
-0.004859906452
-0.004849516712
-0.004838355799
-0.004826733604
-0.004815188647
-0.004803649812
-0.004792597728
-0.004781982833
-0.004772222494
-0.004763116796
-0.004754227857
-0.004745529151
-0.00473621013
-0.00472587499
-0.004715355102
-0.004705473475
-0.004696414351
-0.00468754979
-0.00467822435
-0.004668143689
-0.004657671156
-0.00464727278
-0.004637213934
-0.00462760431
-0.004618958092
-0.004610706039
-0.004601857837
-0.004592873736
-0.004584037481
-0.004574268705
-0.004563789538
-0.004553902649
-0.004544678634
-0.004536038426
-0.004527610116
-0.004518608789
-0.004509123111
-0.004499798507
-0.004490950135
-0.00448181976
-0.004471488086
-0.004460735476
-0.004449753858
-0.004437496193
-0.004424779551
-0.004414059353
-0.004404825413
-0.004395863932
-0.004386701594
-0.00437737844
-0.004368727151
-0.004359815501
-0.004349575174
-0.004339027948
-0.004329343092
-0.004320827058
-0.004312304808
-0.004303501397
-0.00429499428
-0.004285999876
-0.004276122724
-0.004265795894
-0.004255188688
-0.004244550447
-0.004233941678
-0.004223486781
-0.004212961898
-0.004202013205
-0.004191358836
-0.004181448113
-0.004172059017
-0.00416263639
-0.00415293139
-0.004142820843
-0.004132325815
-0.004121878994
-0.004112359998
-0.00410335933
-0.004094281399
-0.004085532044
-0.004076671999
-0.004067259396
-0.004057389255
-0.004047391947
-0.004037877315
-0.004028840297
-0.004019789769
-0.004010742367
-0.004001686679
-0.003991831231
-0.003981606773
-0.003971497145
-0.00396179594
-0.003952864423
-0.003943872968
-0.003934919886
-0.003926410084
-0.003917604509
-0.003908063869
-0.003897859898
-0.003886982592
-0.003875652404
-0.003864830354
-0.003854798681
-0.003845293344
-0.003836297395
-0.003827517831
-0.003818042606
-0.003807855943
-0.003798105536
-0.003789215593
-0.003780813463
-0.003771802989
-0.003761214569
-0.003749656366
-0.003739376359
-0.003730188648
-0.003720599169
-0.003710663458
-0.003701362657
-0.003693135435
-0.003685125106
-0.003676478322
-0.003667059375
-0.003656434023
-0.003645707953
-0.003636320194
-0.003627064834
-0.003617047993
-0.003606888837
-0.00359693359
-0.003586157798
-0.003574300962
-0.003563287924
-0.003553843442
-0.003544550423
-0.003533428418
-0.003520526315
-0.003507323191
-0.003494140959
-0.003481642285
-0.003470732093
-0.003461218906
-0.003452735671
-0.003444274884
-0.003435060394
-0.003424948748
-0.003414481191
-0.003403480733
-0.003391858075
-0.003380940438
-0.003370978468
-0.003361436274
-0.003351767423
-0.003341595113
-0.003331166965
-0.003320312125
-0.003309102877
-0.003298180856
-0.003287610407
-0.003277160363
-0.003266694095
-0.003256257165
-0.003245721532
-0.003235252382
-0.00322553991
-0.003216619519
-0.00320718281
-0.003197638473
-0.003188693856
-0.003179156969
-0.003169547815
-0.003160487138
-0.003150666186
-0.003140223155
-0.003130315981
-0.003121076647
-0.003111944702
-0.003102929867
-0.003094573686
-0.003085833402
-0.003076711963
-0.003068418725
-0.003060382404
-0.00305150341
-0.003041541605
-0.003031215595
-0.003021684985
-0.003013076114
-0.003004909059
-0.002996775322
-0.002988055778
-0.002978428194
-0.002968247208
-0.002958258855
-0.002948618632
-0.002939218843
-0.002930126333
-0.002920487519
-0.002910060537
-0.002899336884
-0.002888349191
-0.00287694663
-0.002865114293
-0.002853985036
-0.002843468772
-0.002833038323
-0.002822613311
-0.002812454205
-0.002802721227
-0.00279258282
-0.002782236555
-0.002772182574
-0.002761197006
-0.002748750381
-0.002737046075
-0.002726442916
-0.002715899808
-0.002705356625
-0.002695720398
-0.002686348462
-0.002676278808
-0.002666057983
-0.002656340043
-0.002646346268
-0.002635746872
-0.002625031978
-0.002614340852
-0.002603660908
-0.002593703245
-0.002584782174
-0.002575999834
-0.002566306153
-0.002555821718
-0.00254515438
-0.002534339966
-0.002523724511
-0.002514324465
-0.002505809154
-0.002496358603
-0.002486078549
-0.002476044606
-0.002465952505
-0.002456955268
-0.002448033244
-0.002437429122
-0.002426235735
-0.002415285054
-0.002404762962
-0.002394702443
-0.002385067058
-0.002376101878
-0.002367300869
-0.002357718932
-0.002347483747
-0.002336877273
-0.002326105519
-0.002316033344
-0.00230668824
-0.002297875843
-0.002289482772
-0.002281296043
-0.002272990712
-0.002264080871
-0.002254024734
-0.002243450696
-0.002233118779
-0.002223584697
-0.002214731889
-0.00220596101
-0.00219730538
-0.002188753293
-0.002179871162
-0.00216998444
-0.002159170989
-0.00214873397
-0.002139028272
-0.002129562057
-0.002120496606
-0.002111803638
-0.002103345767
-0.002095059022
-0.002086200728
-0.002076055873
-0.002065416353
-0.002055250069
-0.00204577786
-0.002036404786
-0.002026517244
-0.002015321615
-0.002002287918
-0.001988465809
-0.001974717536
-0.001961778459
-0.001950607703
-0.001940675677
-0.001931073414
-0.001921273246
-0.001911361527
-0.001901044882
-0.001890713876
-0.001880929867
-0.001871123289
-0.00186089101
-0.001851182922
-0.001842517047
-0.001834542892
-0.001826108392
-0.001816897707
-0.001807526019
-0.001796644075
-0.001783596964
-0.001769977658
-0.001756342123
-0.001742624881
-0.001728863419
-0.001715893331
-0.001704861974
-0.001695263559
-0.001686144237
-0.00167697402
-0.001667506038
-0.001657375995
-0.001646777786
-0.001636443885
-0.001626696888
-0.001616754681
-0.001606138543
-0.001596088351
-0.001586877868
-0.001577703678
-0.001568856787
-0.001560002045
-0.001550075889
-0.001539599216
-0.001529035957
-0.001518527163
-0.001508371167
-0.00149889441
-0.00148968103
-0.001478936178
-0.001466428631
-0.001454640986
-0.001442961256
-0.001430605172
-0.001418994475
-0.001407866538
-0.001396558889
-0.001385403769
-0.001374830172
-0.00136476553
-0.001355340091
-0.001346497487
-0.001337839856
-0.00132894981
-0.001319652561
-0.001310131647
-0.001300025304
-0.001289073505
-0.001277893273
-0.001266735417
-0.001255965519
-0.001245765314
-0.001235065378
-0.001224469968
-0.001214859981
-0.001205536777
-0.001196670256
-0.00118775067
-0.001178607314
-0.001169397779
-0.001159126224
-0.001148769178
-0.001140037352
-0.001131100856
-0.001119611655
-0.001106806585
-0.001096021577
-0.001086825016
-0.00107732024
-0.001067219194
-0.001056957526
-0.00104610603
-0.001035146257
-0.001024642198
-0.001014495182
-0.001005101155
-0.0009962609331
-0.0009874918897
-0.000978446884
-0.0009690733633
-0.0009598065116
-0.0009499175687
-0.000939213021
-0.0009288345804
-0.0009189066608
-0.000909024968
-0.0008990296709
-0.0008879410781
-0.0008758655526
-0.0008648630057
-0.0008550084669
-0.0008458788423
-0.0008374979715
-0.0008286471916
-0.0008184868728
-0.0008082542482
-0.0007985733942
-0.0007892431825
-0.0007801029406
-0.0007708430959
-0.0007621113847
-0.0007538027745
-0.0007452934151
-0.0007362263776
-0.0007258315027
-0.0007148052467
-0.0007034342386
-0.0006923296866
-0.000682761169
-0.0006730935693
-0.0006632730825
-0.0006541846478
-0.0006454213022
-0.0006358855344
-0.0006248710085
-0.000613170899
-0.0006021802442
-0.0005915894522
-0.0005817629558
-0.0005725607264
-0.0005637555775
-0.0005542156009
-0.0005444147066
-0.0005353110909
-0.0005262938614
-0.0005165013259
-0.0005060130629
-0.0004950625251
-0.0004837444112
-0.0004720663612
-0.0004614048707
-0.0004513367241
-0.0004402824743
-0.0004292716862
-0.0004195744181
-0.0004097974885
-0.0004000468186
-0.0003904887329
-0.0003802351843
-0.0003699978388
-0.000359520275
-0.0003487487934
-0.0003389139462
-0.000329897339
-0.0003202998616
-0.0003088935206
-0.0002956276185
-0.0002815333609
-0.0002682659996
-0.0002561477984
-0.0002444457766
-0.0002338136754
-0.0002238550297
-0.0002138826196
-0.0002044187503
-0.0001949040869
-0.0001854210907
-0.0001760243645
-0.0001654606026
-0.0001532113203
-0.0001405640438
-0.0001298520389
-0.0001212010374
-0.0001133209739
-0.0001057262982
-9.800195868e-05
-8.965313967e-05
-8.092022502e-05
-7.234061112e-05
-6.414706857e-05
-5.566479192e-05
-4.721296502e-05
-3.910290282e-05
-3.128703385e-05
-2.335441204e-05
-1.530238612e-05
-7.14725591e-06
4.084903435e-07
7.63444122e-06
1.509700255e-05
2.3150143e-05
3.136459737e-05
3.981486099e-05
4.815366603e-05
5.695456494e-05
6.5512292e-05
7.365408923e-05
8.138631386e-05
8.86759833e-05
9.522613754e-05
0.0001011541768
0.0001067568331
0.0001121412736
0.0001170227834
0.0001217507958
0.0001265577278
0.0001315565444
0.0001364447633
0.0001414142927
0.0001461292348
0.0001507959631
0.0001556171637
0.0001603424028
0.0001650339914
0.000169874937
0.0001751780565
0.0001808240914
0.0001866011493
0.0001923755956
0.0001981891966
0.000203938304
0.0002094475593
0.0002146219829
0.0002199629499
0.0002258215616
0.0002318526517
0.0002376477495
0.0002434220106
0.0002494338256
0.000255555254
0.0002612663254
0.0002664847414
0.0002716214828
0.0002767641108
0.0002820193745
0.0002876826486
0.0002933740864
0.0002988976747
0.0003046910103
0.0003109294844
0.0003176919675
0.0003246946705
0.0003305671506
0.0003356582219
0.0003407453738
0.0003455714736
0.0003501949725
0.0003546571012
0.0003591106119
0.0003639486984
0.0003694118501
0.0003753283678
0.0003813153752
0.0003871105428
0.0003923591331
0.0003971801181
0.0004020754148
0.000407216392
0.0004126780624
0.0004183788618
0.0004241731048
0.0004296429089
0.0004345945213
0.0004393612474
0.0004444247981
0.0004495999906
0.0004545417406
0.0004589849755
0.0004634337459
0.0004679483924
0.0004723354055
0.0004761957731
0.0004798418757
0.000483125501
0.0004859455567
0.000488245933
0.0004907076156
0.0004931922058
0.0004955598506
0.000497947158
0.0005005913889
0.0005033282372
0.0005061313319
0.0005087914438
0.0005115567002
0.0005140102987
0.0005162493887
0.0005185888363
0.0005211237654
0.0005234737563
0.0005255522604
0.0005272952722
0.0005288370761
0.0005303417277
0.0005318220405
0.000533429449
0.000535106152
0.0005365384956
0.0005377388926
0.0005386851388
0.000539374169
0.0005401119141
0.0005409194289
0.0005416014042
0.0005420329373
0.0005425766818
0.0005431573149
0.0005437422363
0.0005442641688
0.0005448024619
0.0005453411316
0.0005459197403
0.0005464923219
0.0005471242211
0.0005477429061
0.0005483281756
0.0005488689071
0.0005493902339
0.0005499205846
0.000550468481
0.0005510115494
0.000551553489
0.0005520860977
0.000552629817
0.0005531905833
0.0005537609228
0.0005543470236
0.0005548679368
0.0005553873039
0.0005558877509
0.0005563648243
0.0005568535914
0.0005573424125
0.0005578791609
0.0005583873558
0.0005588785847
0.0005592996774
0.0005597270327
0.0005600868846
0.0005605400605
0.0005609385605
0.0005614316013
0.000561849915
0.0005624741639
0.0005629991746
0.0005635902811
0.0005641229242
0.0005646114916
0.0005650239583
0.0005655075156
0.0005659405493
0.0005664861528
0.0005669811922
0.0005676042091
0.0005682386763
0.0005688835138
0.0005695157395
0.0005701775396
0.0005708404833
0.0005714837484
0.0005721204246
0.0005727453864
0.0005733456614
0.0005742285657
0.0005751478854
0.0005753094344
0.0005754933643
0.0005762263617
0.0005769679837
0.0005763402366
0.000575308132
0.0005743807258
0.0005738802672
0.0005733528191
0.0005727741907
0.0005721596995
0.0005715438491
0.000570995138
0.0005704973079
0.0005699990283
0.0005694829185
0.0005689435883
0.0005684023562
0.0005678599341
0.0005673292797
0.0005667880654
0.0005662380508
0.0005656524065
0.0005650387021
0.0005644189355
0.0005637966957
0.000563241192
0.0005627264444
0.0005622233385
0.0005617035208
0.0005611510819
0.000560576537
0.0005599904179
0.0005593917646
0.0005587815602
0.0005582309029
0.0005576907745
0.0005571424386
0.000556588036
0.0005560322351
0.0005555045813
0.0005549744786
0.0005544075337
0.0005538490831
0.0005533175953
0.0005527684998
0.0005521578164
0.0005515462525
0.0005509854981
0.0005504287244
0.0005498176747
0.0005492247835
0.0005486721547
0.0005481390891
0.000547598134
0.000547009469
0.0005464452048
0.0005459126164
0.0005453494993
0.0005447196936
0.0005440996371
0.0005435230393
0.0005429923063
0.0005424777373
0.0005419479778
0.0005414081286
0.0005408728238
0.000540343775
0.0005398208185
0.0005393029151
0.0005387472849
0.0005381373989
0.0005374623032
0.0005367269717
0.0005360320202
0.0005353922814
0.0005347389391
0.0005341161677
0.0005335391582
0.0005329333137
0.0005323329743
0.0005317645819
0.0005311973879
0.0005306659328
0.0005301601517
0.0005296402096
0.0005290957575
0.0005285186089
0.0005278561225
0.0005271178526
0.000526420293
0.0005257768075
0.000525160462
0.0005245626612
0.0005239622787
0.0005233319678
0.0005227241314
0.000522155279
0.000521637074
0.0005211304829
0.0005206257032
0.0005201359544
0.0005196416601
0.0005191511893
0.0005186394228
0.0005181110598
0.0005175805257
0.0005170268708
0.0005163805777
0.0005157177769
0.000515082904
0.0005144648371
0.0005138630257
0.0005132725049
0.0005126791756
0.0005120937483
0.0005115054445
0.0005108855697
0.0005102761609
0.0005096425527
0.0005090003062
0.0005083953293
0.0005078323117
0.0005072592548
0.0005066550149
0.0005060810204
0.0005054947525
0.0005048869343
0.0005042449339
0.0005035971771
0.0005029442216
0.0005022656378
0.0005016474525
0.0005010952007
0.000500601142
0.0005000951139
0.0004995589228
0.0004989676629
0.0004983377311
0.0004977127786
0.0004971409559
0.0004965824748
0.0004959968064
0.0004954161085
0.0004948555021
0.0004943430468
0.0004938965698
0.0004934311755
0.0004929256626
0.0004923834169
0.0004918206873
0.0004912816068
0.0004907757665
0.0004902603469
0.0004896975074
0.0004891538428
0.0004886694562
0.0004882055173
0.0004877024563
0.0004871921759
0.0004866928739
0.0004861329483
0.0004855630944
0.0004850634619
0.0004845741632
0.0004840312847
0.0004833647073
0.0004826384174
0.0004820256013
0.0004814732059
0.0004808760948
0.0004802446682
0.000479633574
0.0004789879882
0.0004782834196
0.0004776370851
0.0004770541655
0.0004765135863
0.0004760082477
0.0004754852523
0.0004749477741
0.0004744514062
0.0004739754215
0.0004734546999
0.0004729040927
0.0004723306838
0.0004717635573
0.000471247884
0.0004707652493
0.0004702143744
0.0004696155636
0.0004691416332
0.0004686130736
0.0004682099559
0.0004677784566
0.0004675481925
0.0004674555238
0.0004671993943
0.0004669808274
0.000466903035
0.0004668191672
0.000466806298
0.0004669641341
0.0004673140544
0.0004675367022
0.0004678777881
0.000468238253
0.0004687568111
0.0004694932656
0.0004701240253
0.0004709245751
0.0004717631115
0.0004725426746
0.0004734443622
0.0004746572759
0.0004760356345
0.0004774002
0.0004785490119
0.000479644703
0.000480878583
0.0004822347431
0.000483654684
0.0004851518185
0.0004866977091
0.0004881422894
0.0004893523613
0.0004907149461
0.0004922188225
0.0004935041815
0.0004945791248
0.0004956177213
0.0004965241433
0.0004973562783
0.0004982088092
0.000499061774
0.0004996127597
0.0005001424078
0.0005007234208
0.0005014371821
0.0005019427134
0.0005023454223
0.0005026722223
0.0005030982624
0.0005033670698
0.0005037735473
0.0005042279904
0.0005046895134
0.0005050079969
0.0005052192384
0.0005053717599
0.0005056667888
0.0005058642477
0.0005062909834
0.0005064840394
0.0005068525359
0.0005072537754
0.0005079413347
0.0005087746093
0.0005098190849
0.0005108132175
0.0005119843254
0.0005128808021
0.0005139762673
0.0005153078826
0.0005165257884
0.000517917434
0.0005192429431
0.000520657397
0.00052228232
0.0005239698303
0.0005255023078
0.0005272524823
0.0005291053462
0.0005310525069
0.0005329515985
0.0005349117258
0.0005365789044
0.0005384562946
0.0005404510774
0.0005423664842
0.0005442875043
0.0005463998869
0.0005484040083
0.0005501658708
0.000552127588
0.0005544711436
0.0005568951668
0.0005596118043
0.0005620394704
0.0005642077895
0.0005664653339
0.0005688341606
0.0005708465255
0.0005725429792
0.0005739984617
0.0005753413871
0.0005767440425
0.0005783334446
0.0005798547079
0.0005815901715
0.0005835652956
0.0005856690061
0.0005875448998
0.000589297637
0.0005908792726
0.0005924699205
0.0005940081821
0.0005954469972
0.0005967651733
0.0005982145937
0.0005996894065
0.0006011144537
0.0006022874375
0.0006037391814
0.0006054194156
0.0006066171244
0.000607590213
0.0006085400749
0.0006093684078
0.0006101799828
0.0006108275661
0.0006115408066
0.0006123133442
0.0006129923269
0.0006135812156
0.0006142511314
0.0006149364003
0.0006157687677
0.0006165018811
0.0006170232906
0.0006174287334
0.0006180028934
0.0006184091786
0.0006188584855
0.0006193882396
0.0006201235998
0.0006207920766
0.0006214246195
0.0006220530044
0.0006226271884
0.0006229751979
0.000623164856
0.0006234921064
0.0006237040858
0.0006238044577
0.0006239345317
0.0006242816131
0.0006246118524
0.0006247133599
0.0006248279692
0.0006250244644
0.0006252833216
0.0006254778367
0.0006255191205
0.0006258276335
0.000626099737
0.000626203636
0.0006263174704
0.0006263188581
0.0006263816603
0.0006263726015
0.0006264786508
0.0006266774081
0.0006266519239
0.0006266737676
0.0006265843855
0.0006262980106
0.0006258087045
0.0006252830636
0.0006246723279
0.0006241590534
0.0006237453442
0.0006233330406
136.4053123
272.9810812
278.1977514
283.5282101
362.6242968
437.0749655
510.4351118
583.1897663
670.8538838
764.2479878
865.8041726
961.9182525
1065.186523
1177.643126
1303.233114
1429.473599
1543.963395
1652.820812
1765.7109
1872.686274
1970.620596
2068.354478
2164.858349
2273.869076
2399.120659
2522.1302
2635.197711
2737.258239
2843.942779
2957.126273
3069.721052
3188.112069
3327.708495
3490.356392
3670.852809
3851.3595
4014.545742
4152.487276
4265.658586
4372.751706
4476.745056
4584.632871
4705.46942
4833.896654
4967.383642
5093.800575
5203.195655
5306.26707
5407.276325
5507.765716
5607.380141
5709.104914
5806.980366
5914.878977
6037.441608
6160.311938
6280.276682
6392.264785
6494.066995
6591.151192
6685.123753
6781.217131
6886.260357
6988.653034
7093.581577
7219.064884
7354.605047
7498.131646
7624.935304
7736.97065
7868.514523
8006.738845
8135.259385
8261.244519
8388.789103
8516.488258
8645.500297
8762.924261
8882.319558
8999.371892
9111.187364
9221.614285
9332.774501
9447.754293
9570.211371
9702.56049
9844.200933
9993.630355
10132.21726
10265.12736
10393.10916
10519.71325
10644.48621
10761.26412
10876.39886
10993.63822
11114.71079
11250.37165
11401.78297
11559.28833
11699.07474
11816.74231
11932.57557
12057.09747
12191.83082
12319.01742
12441.01995
12558.84302
12670.42666
12792.48129
12921.89118
13047.19592
13176.82539
13305.22171
13429.64476
13559.62547
13690.4931
13827.74845
13961.65332
14088.09003
14212.63595
14330.44169
14462.54192
14602.85917
14715.4461
14833.96074
14952.25668
15071.27599
15202.84042
15328.3586
15445.08867
15552.70793
15651.98476
15752.0757
15842.73338
15938.76303
16042.72279
16146.58548
16260.45903
16364.1354
16470.06587
16588.18233
16697.91335
16802.40658
16910.441
17016.84055
17134.81351
17256.05246
17369.92661
17484.33875
17594.85149
17695.65798
17789.38151
17881.39513
17980.6461
18080.9238
18189.69126
18321.51246
18457.12716
18576.14349
18690.5836
18809.9486
18935.90916
19074.57665
19204.5289
19322.8937
19453.7503
19591.47576
19707.02084
19815.29525
19931.9404
20053.72736
20164.43624
20269.36056
20375.49457
20473.13827
20564.79215
20658.84832
20756.69604
20852.59581
20956.19218
21074.6748
21197.8612
21320.32709
21430.72587
21532.41995
21639.62975
21745.06861
21846.49582
21952.23497
22053.21517
22154.00729
22255.21359
22364.69462
22474.11934
22575.22509
22680.95447
22786.37851
22882.84452
22984.6713
23102.6923
23221.4937
23334.094
23449.35204
23581.08529
23708.27856
23825.57151
23956.06558
24090.82604
24203.70567
24315.63518
24423.39784
24533.12435
24651.76192
24765.81338
24882.28559
25003.97279
25119.30437
25245.91534
25398.15135
25559.1619
25716.4599
25846.81772
25960.32252
26066.06869
26170.63298
26278.14546
26384.23304
26489.93404
26604.07055
26727.34024
26851.5515
26970.75593
27083.97396
27186.447
27282.54417
27381.70557
27491.70367
27616.61482
27743.3418
27863.44974
27978.24165
28104.16368
28226.51986
28340.37837
28465.04594
28593.44135
28738.96134
28892.27793
29024.27041
29139.46852
29244.49999
29346.10111
29448.41636
29563.75692
29686.5682
29803.75785
29918.90934
30052.78331
30216.23171
30389.09077
30561.96913
30736.65978
30888.98196
31009.52917
31130.43189
31245.30872
31343.80589
31439.48996
31543.39772
31650.62406
31752.85072
31854.94839
31960.49165
32069.93087
32197.05523
32346.5476
32480.55667
32601.75716
32723.8638
32852.42244
32985.00843
33117.63078
33242.72159
33363.4335
33478.27529
33591.66151
33705.22686
33813.38253
33920.90442
34028.7991
34141.46894
34263.30884
34393.13998
34522.7038
34657.63823
34791.96562
34916.11043
35036.7621
35153.15838
35260.62691
35373.01516
35510.39818
35671.85738
35854.58729
36026.71599
36171.3291
36299.41119
36414.60655
36525.73442
36636.18579
36759.44164
36888.90629
37003.02337
37106.91198
37214.83012
37319.01031
37433.44131
37555.61215
37664.21028
37776.71962
37893.40773
38005.28542
38114.63458
38225.83908
38348.54722
38464.28868
38564.85651
38664.17818
38773.93173
38896.4032
39015.69927
39129.61743
39240.29263
39337.98649
39431.68214
39530.88912
39642.78224
39769.43176
39896.30364
40017.34336
40127.39153
40235.09422
40341.98841
40450.6278
40565.15541
40686.45086
40807.23063
40924.10297
41047.02094
41195.64435
41355.46729
41511.79534
41647.88516
41770.02287
41890.22819
41992.70854
42096.82908
42203.25205
42302.34485
42413.5216
42550.39682
42703.80879
42842.3666
42958.171
43071.50912
43180.70771
43289.80835
43394.34502
43499.15788
43625.37116
43751.42147
43870.50165
43987.7841
44098.90499
44201.04189
44300.10783
44399.66373
44494.65666
44595.89074
44695.01776
44798.06791
44918.56577
45040.96338
45164.43965
45291.72659
45416.73954
45541.91786
45662.65075
45780.19343
45899.23151
46014.88406
46136.18211
46272.24914
46402.73393
46516.99432
46631.46543
46746.70512
46845.01003
46939.0346
47027.16957
47119.51152
47213.94701
47304.97161
47409.95323
47526.62123
47651.86501
47767.67505
47864.16855
47956.93229
48049.40768
48151.00017
48274.33996
48395.97821
48511.02643
48619.38982
48718.81808
48819.5203
48923.14927
49023.38016
49125.15727
49238.04809
49360.3064
49484.30204
49616.52027
49757.5978
49908.71282
50045.89104
50169.89106
50288.87344
50392.74795
50495.28716
50591.52488
50696.94134