/*--------------------------------*- C++ -*----------------------------------*\
| =========                 |                                                 |
| \\      /  F ield         | OpenFOAM: The Open Source CFD Toolbox           |
|  \\    /   O peration     | Version:  2012                                  |
|   \\  /    A nd           | Website:  www.openfoam.com                      |
|    \\/     M anipulation  |                                                 |
\*---------------------------------------------------------------------------*/
FoamFile
{
    version     2.0;
    format      ascii;
    class       volVectorField;
    location    "0.00013";
    object      U;
}
// * * * * * * * * * * * * * * * * * * * * * * * * * * * * * * * * * * * * * //

dimensions      [0 1 -1 0 0 0 0];


internalField   nonuniform List<vector> 
5000
(
(2.150578115e-14 0 0)
(4.156821276e-14 0 0)
(5.051554754e-14 0 0)
(4.731671602e-14 0 0)
(3.873835231e-14 0 0)
(2.221483789e-14 0 0)
(1.259924938e-14 0 0)
(7.998693411e-15 0 0)
(-2.968282974e-16 0 0)
(-9.636060709e-15 0 0)
(-2.394846602e-14 0 0)
(-3.500710148e-14 0 0)
(-4.101831411e-14 0 0)
(-4.413728505e-14 0 0)
(-4.522746144e-14 0 0)
(-3.85597401e-14 0 0)
(-3.432548587e-14 0 0)
(-4.088517104e-14 0 0)
(-6.200315233e-14 0 0)
(-7.468459316e-14 0 0)
(-5.725362321e-14 0 0)
(-1.004304243e-14 0 0)
(3.206200001e-14 0 0)
(5.246179534e-14 0 0)
(5.054003294e-14 0 0)
(3.78136251e-14 0 0)
(6.708764782e-15 0 0)
(-1.065332315e-14 0 0)
(-8.686320958e-15 0 0)
(3.131992899e-15 0 0)
(-3.467372944e-14 0 0)
(-3.234663993e-14 0 0)
(8.512470109e-14 0 0)
(1.445837742e-13 0 0)
(1.150434268e-13 0 0)
(2.101140696e-14 0 0)
(6.626711621e-14 0 0)
(1.672377208e-13 0 0)
(1.698091563e-13 0 0)
(1.898518751e-13 0 0)
(1.39491062e-13 0 0)
(1.429602977e-13 0 0)
(1.806601291e-13 0 0)
(1.931527625e-13 0 0)
(2.155949801e-13 0 0)
(2.429741126e-13 0 0)
(3.003088375e-13 0 0)
(3.632667471e-13 0 0)
(2.865250757e-13 0 0)
(2.097858987e-13 0 0)
(1.918236854e-13 0 0)
(1.082238218e-13 0 0)
(1.487883757e-13 0 0)
(1.647567474e-13 0 0)
(8.843236184e-14 0 0)
(1.389173421e-13 0 0)
(1.652786919e-13 0 0)
(1.114224938e-13 0 0)
(1.198733256e-13 0 0)
(1.563302553e-13 0 0)
(1.752643171e-13 0 0)
(1.769534271e-13 0 0)
(1.828326402e-13 0 0)
(1.703854763e-13 0 0)
(1.619664688e-13 0 0)
(1.893923458e-13 0 0)
(1.351161251e-13 0 0)
(9.661937977e-14 0 0)
(4.401199699e-14 0 0)
(-4.75224814e-15 0 0)
(-2.198021836e-14 0 0)
(-2.960502429e-14 0 0)
(-3.592863118e-14 0 0)
(-4.931353172e-14 0 0)
(-6.326987818e-14 0 0)
(-7.939955324e-14 0 0)
(-8.638627951e-14 0 0)
(-8.756678133e-14 0 0)
(-8.971460928e-14 0 0)
(-9.183140406e-14 0 0)
(-9.624271989e-14 0 0)
(-9.900530139e-14 0 0)
(-1.017638721e-13 0 0)
(-1.044060972e-13 0 0)
(-1.038170456e-13 0 0)
(-1.005530279e-13 0 0)
(-1.017376997e-13 0 0)
(-1.038318298e-13 0 0)
(-1.013725092e-13 0 0)
(-9.942462192e-14 0 0)
(-1.01818183e-13 0 0)
(-9.744216354e-14 0 0)
(-8.860882574e-14 0 0)
(-7.96987372e-14 0 0)
(-7.492347111e-14 0 0)
(-6.66152555e-14 0 0)
(-5.856042822e-14 0 0)
(-4.3816106e-14 0 0)
(-2.126280532e-14 0 0)
(4.508343501e-15 0 0)
(3.842765499e-14 0 0)
(6.808033481e-14 0 0)
(9.385524209e-14 0 0)
(1.233991188e-13 0 0)
(1.564265953e-13 0 0)
(1.294857638e-13 0 0)
(9.586943842e-14 0 0)
(1.328679044e-13 0 0)
(1.855330302e-13 0 0)
(1.072706828e-13 0 0)
(7.329619842e-14 0 0)
(1.336889086e-13 0 0)
(1.728600026e-13 0 0)
(1.28194991e-13 0 0)
(7.754412078e-14 0 0)
(1.215973465e-13 0 0)
(1.462070523e-13 0 0)
(1.143023816e-13 0 0)
(9.339453328e-14 0 0)
(7.254830084e-14 0 0)
(6.291274092e-14 0 0)
(5.320707367e-14 0 0)
(4.596313519e-14 0 0)
(3.143010399e-14 0 0)
(2.658618251e-14 0 0)
(2.179671267e-14 0 0)
(2.289444164e-14 0 0)
(1.760262906e-14 0 0)
(1.054947723e-14 0 0)
(1.833244813e-15 0 0)
(1.000851668e-15 0 0)
(1.753976952e-15 0 0)
(1.327503908e-15 0 0)
(2.439507989e-15 0 0)
(6.00054296e-15 0 0)
(8.260357476e-15 0 0)
(1.0109601e-14 0 0)
(1.217510051e-14 0 0)
(1.280219053e-14 0 0)
(1.411084337e-14 0 0)
(1.76509375e-14 0 0)
(2.001353814e-14 0 0)
(1.780597633e-14 0 0)
(1.548818058e-14 0 0)
(1.213607362e-14 0 0)
(1.036876387e-14 0 0)
(1.090497965e-14 0 0)
(8.771406842e-15 0 0)
(5.722676843e-16 0 0)
(-7.142925661e-15 0 0)
(-1.505671011e-14 0 0)
(-1.564588511e-14 0 0)
(-2.517348663e-14 0 0)
(-2.955818236e-14 0 0)
(-3.942588691e-14 0 0)
(-5.369120237e-14 0 0)
(-7.904095315e-14 0 0)
(-9.694246757e-14 0 0)
(-1.157051772e-13 0 0)
(-1.243435889e-13 0 0)
(-1.307985674e-13 0 0)
(-1.332382683e-13 0 0)
(-1.342415041e-13 0 0)
(-1.336626875e-13 0 0)
(-1.33766184e-13 0 0)
(-1.329716061e-13 0 0)
(-1.276865967e-13 0 0)
(-1.240309477e-13 0 0)
(-1.143990813e-13 0 0)
(-1.065316194e-13 0 0)
(-9.537575772e-14 0 0)
(-7.505010147e-14 0 0)
(-6.022964508e-14 0 0)
(-3.748538824e-14 0 0)
(-2.99427806e-14 0 0)
(-3.056711534e-14 0 0)
(-3.314988545e-14 0 0)
(-3.804588196e-14 0 0)
(-5.263864852e-14 0 0)
(-7.006776464e-14 0 0)
(-8.245358441e-14 0 0)
(-8.578506693e-14 0 0)
(-8.25256204e-14 0 0)
(-7.862471397e-14 0 0)
(-6.602221003e-14 0 0)
(-4.842027657e-14 0 0)
(-3.353956439e-14 0 0)
(-2.076784242e-14 0 0)
(-1.134656368e-14 0 0)
(-4.913906004e-16 0 0)
(1.039420984e-14 0 0)
(1.946827132e-14 0 0)
(2.459412697e-14 0 0)
(3.164804523e-14 0 0)
(3.392681022e-14 0 0)
(4.237587525e-14 0 0)
(4.936096152e-14 0 0)
(5.517168303e-14 0 0)
(6.684895752e-14 0 0)
(7.586134738e-14 0 0)
(8.342386547e-14 0 0)
(8.692511135e-14 0 0)
(8.097251551e-14 0 0)
(6.48447464e-14 0 0)
(4.918547137e-14 0 0)
(4.549611742e-14 0 0)
(4.324946895e-14 0 0)
(4.805715503e-14 0 0)
(4.876238821e-14 0 0)
(4.795320416e-14 0 0)
(4.252545471e-14 0 0)
(3.847593445e-14 0 0)
(3.377229228e-14 0 0)
(2.224398429e-14 0 0)
(9.761866812e-15 0 0)
(1.584862215e-15 0 0)
(-5.202266532e-15 0 0)
(-1.523408597e-14 0 0)
(-2.234948657e-14 0 0)
(-3.137525539e-14 0 0)
(-4.363770584e-14 0 0)
(-5.267476562e-14 0 0)
(-5.701747113e-14 0 0)
(-5.265051574e-14 0 0)
(-4.221912733e-14 0 0)
(-3.138411133e-14 0 0)
(-2.494786226e-14 0 0)
(-2.169548508e-14 0 0)
(-1.901603996e-14 0 0)
(-1.590962293e-14 0 0)
(-1.226638848e-14 0 0)
(3.676840347e-15 0 0)
(1.512240319e-14 0 0)
(3.21635268e-14 0 0)
(4.336593618e-14 0 0)
(4.136474252e-14 0 0)
(4.369602123e-14 0 0)
(3.968125293e-14 0 0)
(3.592198199e-14 0 0)
(2.883473551e-14 0 0)
(2.33072938e-14 0 0)
(2.282008552e-14 0 0)
(2.126322205e-14 0 0)
(2.09572397e-14 0 0)
(2.683819144e-14 0 0)
(3.916397272e-14 0 0)
(5.999609606e-14 0 0)
(9.070113336e-14 0 0)
(1.16362222e-13 0 0)
(1.339200139e-13 0 0)
(1.382331746e-13 0 0)
(1.370113883e-13 0 0)
(1.366267981e-13 0 0)
(1.341165451e-13 0 0)
(1.30090144e-13 0 0)
(1.179425597e-13 0 0)
(1.036683578e-13 0 0)
(8.448527087e-14 0 0)
(6.36388372e-14 0 0)
(4.617375673e-14 0 0)
(3.442795538e-14 0 0)
(2.00488281e-14 0 0)
(1.269478406e-14 0 0)
(5.515075655e-15 0 0)
(1.593092041e-16 0 0)
(-5.12667362e-15 0 0)
(-8.612429396e-15 0 0)
(-1.700948752e-14 0 0)
(-2.345348428e-14 0 0)
(-2.672503371e-14 0 0)
(-2.702303068e-14 0 0)
(-2.144871601e-14 0 0)
(-1.412155911e-14 0 0)
(-1.856957348e-15 0 0)
(1.044711986e-14 0 0)
(1.544078373e-14 0 0)
(1.74286393e-14 0 0)
(1.75113646e-14 0 0)
(1.222534126e-14 0 0)
(5.447855029e-16 0 0)
(-1.107806945e-14 0 0)
(-2.696900728e-14 0 0)
(-3.350072567e-14 0 0)
(-3.292154885e-14 0 0)
(-2.770095888e-14 0 0)
(-1.803376088e-14 0 0)
(-1.383180721e-14 0 0)
(-1.272047676e-14 0 0)
(-1.327396991e-14 0 0)
(-1.238609172e-14 0 0)
(-1.115940311e-14 0 0)
(-9.096841257e-15 0 0)
(-2.465984614e-15 0 0)
(-3.151047245e-16 0 0)
(3.493937748e-15 0 0)
(7.933727872e-15 0 0)
(1.448821148e-14 0 0)
(2.069244052e-14 0 0)
(2.097459356e-14 0 0)
(1.983397161e-14 0 0)
(1.916879131e-14 0 0)
(1.017321315e-14 0 0)
(7.130032852e-16 0 0)
(-6.318662114e-15 0 0)
(-1.19758258e-14 0 0)
(-1.943017051e-14 0 0)
(-2.603681357e-14 0 0)
(-2.655173428e-14 0 0)
(-2.589098176e-14 0 0)
(-2.283059235e-14 0 0)
(-1.441742388e-14 0 0)
(-5.393412658e-15 0 0)
(8.663120239e-15 0 0)
(1.968617268e-14 0 0)
(3.0618775e-14 0 0)
(3.052117735e-14 0 0)
(3.165092467e-14 0 0)
(3.211684312e-14 0 0)
(3.164424345e-14 0 0)
(3.074418376e-14 0 0)
(2.682708672e-14 0 0)
(2.007904667e-14 0 0)
(1.05989547e-14 0 0)
(5.138219225e-15 0 0)
(7.693590303e-15 0 0)
(1.292400597e-14 0 0)
(1.621255579e-14 0 0)
(1.416324e-14 0 0)
(9.670190362e-15 0 0)
(8.985988455e-15 0 0)
(1.894227817e-15 0 0)
(-2.973943872e-15 0 0)
(-1.244747053e-14 0 0)
(-1.891796887e-14 0 0)
(-2.442696438e-14 0 0)
(-2.938664727e-14 0 0)
(-3.689953321e-14 0 0)
(-4.372049408e-14 0 0)
(-5.298790107e-14 0 0)
(-6.166014682e-14 0 0)
(-6.224551585e-14 0 0)
(-5.624965455e-14 0 0)
(-4.109917335e-14 0 0)
(-2.462243358e-14 0 0)
(-1.247526653e-14 0 0)
(-2.439586963e-16 0 0)
(7.387496903e-15 0 0)
(1.948283663e-14 0 0)
(2.574386813e-14 0 0)
(2.817068457e-14 0 0)
(2.730084897e-14 0 0)
(2.273237263e-14 0 0)
(1.803216112e-14 0 0)
(1.030286025e-14 0 0)
(5.128490016e-15 0 0)
(-2.09031687e-16 0 0)
(-3.66994361e-15 0 0)
(-6.315046172e-15 0 0)
(-6.960171356e-15 0 0)
(-2.617590942e-15 0 0)
(9.267475949e-15 0 0)
(2.575074704e-14 0 0)
(3.910288025e-14 0 0)
(4.365896233e-14 0 0)
(4.798502444e-14 0 0)
(4.617130664e-14 0 0)
(4.106771053e-14 0 0)
(2.211553819e-14 0 0)
(8.045944612e-15 0 0)
(-6.543363675e-15 0 0)
(-1.507100715e-14 0 0)
(-1.90966399e-14 0 0)
(-1.95138058e-14 0 0)
(-1.642714957e-14 0 0)
(-9.504060194e-15 0 0)
(1.354874339e-15 0 0)
(4.116729582e-15 0 0)
(4.337575241e-15 0 0)
(-2.997249862e-16 0 0)
(-2.435576905e-15 0 0)
(-1.621945945e-15 0 0)
(-2.729940561e-15 0 0)
(-3.755160218e-15 0 0)
(-2.242322621e-15 0 0)
(-3.406334637e-15 0 0)
(-6.966582923e-15 0 0)
(-8.935297316e-15 0 0)
(-6.861698583e-15 0 0)
(1.289276733e-15 0 0)
(9.011898027e-15 0 0)
(1.278867759e-14 0 0)
(1.138044039e-14 0 0)
(8.098321453e-15 0 0)
(3.755267773e-15 0 0)
(1.636781304e-15 0 0)
(-2.977732916e-16 0 0)
(-1.960549305e-15 0 0)
(-5.3248981e-15 0 0)
(-7.919361119e-15 0 0)
(-8.249168609e-15 0 0)
(-1.31609353e-15 0 0)
(6.066999442e-15 0 0)
(6.236254854e-15 0 0)
(4.430385773e-15 0 0)
(2.11299191e-16 0 0)
(-1.205306284e-14 0 0)
(-3.081281663e-14 0 0)
(-3.954777026e-14 0 0)
(-3.868281614e-14 0 0)
(-3.072594833e-14 0 0)
(-2.705331635e-14 0 0)
(-2.255411724e-14 0 0)
(-1.468128019e-14 0 0)
(-1.10017974e-14 0 0)
(-3.85071379e-15 0 0)
(-9.254771419e-16 0 0)
(1.303106147e-15 0 0)
(4.907114273e-15 0 0)
(1.047510288e-14 0 0)
(2.016735316e-14 0 0)
(2.681451348e-14 0 0)
(3.112405432e-14 0 0)
(2.706743637e-14 0 0)
(1.728329307e-14 0 0)
(1.170380491e-14 0 0)
(1.027780568e-14 0 0)
(1.171055154e-14 0 0)
(9.067938985e-15 0 0)
(8.554986158e-15 0 0)
(4.544424599e-15 0 0)
(-8.469938283e-16 0 0)
(-7.054797986e-15 0 0)
(-1.30623483e-14 0 0)
(-1.069808578e-14 0 0)
(-1.070419975e-14 0 0)
(-1.056082731e-14 0 0)
(-9.837172093e-15 0 0)
(-9.883079053e-15 0 0)
(-5.011295464e-15 0 0)
(-3.264022757e-15 0 0)
(-6.630560953e-15 0 0)
(-1.709292205e-14 0 0)
(-2.530583567e-14 0 0)
(-2.852675292e-14 0 0)
(-2.914906084e-14 0 0)
(-2.499212531e-14 0 0)
(-1.785116392e-14 0 0)
(-8.941781181e-15 0 0)
(-3.718643407e-15 0 0)
(8.783865771e-15 0 0)
(1.979944086e-14 0 0)
(2.963161498e-14 0 0)
(2.762416126e-14 0 0)
(2.625074108e-14 0 0)
(2.575897955e-14 0 0)
(2.187246255e-14 0 0)
(2.264052788e-14 0 0)
(2.264058753e-14 0 0)
(2.050384038e-14 0 0)
(1.75150216e-14 0 0)
(1.273586313e-14 0 0)
(1.165229614e-14 0 0)
(1.21376132e-14 0 0)
(1.296226951e-14 0 0)
(1.461808644e-14 0 0)
(1.295340296e-14 0 0)
(1.078243292e-14 0 0)
(1.274337515e-14 0 0)
(1.41748135e-14 0 0)
(1.240254836e-14 0 0)
(7.261544603e-15 0 0)
(-7.739456435e-15 0 0)
(-2.557687212e-14 0 0)
(-3.997795896e-14 0 0)
(-5.306024158e-14 0 0)
(-5.917614842e-14 0 0)
(-5.58631661e-14 0 0)
(-4.261818936e-14 0 0)
(-1.752169572e-14 0 0)
(1.243839299e-14 0 0)
(2.796011873e-14 0 0)
(3.526823333e-14 0 0)
(3.761763382e-14 0 0)
(3.678555723e-14 0 0)
(3.190183878e-14 0 0)
(2.343407832e-14 0 0)
(1.556218575e-14 0 0)
(1.02388643e-14 0 0)
(1.250661954e-15 0 0)
(-8.429654511e-15 0 0)
(-2.063067235e-14 0 0)
(-2.781609048e-14 0 0)
(-2.589106894e-14 0 0)
(-2.09963902e-14 0 0)
(-1.242535253e-14 0 0)
(-1.081467706e-14 0 0)
(-6.734913911e-15 0 0)
(-2.173609842e-15 0 0)
(2.955249463e-15 0 0)
(7.691385588e-15 0 0)
(8.547733213e-15 0 0)
(1.225506666e-14 0 0)
(1.296763259e-14 0 0)
(1.614695382e-14 0 0)
(1.65670499e-14 0 0)
(1.581998546e-14 0 0)
(1.463912852e-14 0 0)
(1.255911546e-14 0 0)
(8.56210396e-15 0 0)
(4.647438805e-15 0 0)
(-2.018246712e-15 0 0)
(-6.280278624e-15 0 0)
(-1.285973086e-14 0 0)
(-1.673572527e-14 0 0)
(-2.458337184e-14 0 0)
(-2.416127318e-14 0 0)
(-2.170745972e-14 0 0)
(-1.763246083e-14 0 0)
(-1.610554407e-14 0 0)
(-5.991916341e-15 0 0)
(9.80873172e-15 0 0)
(2.343417782e-14 0 0)
(2.911920339e-14 0 0)
(3.097120878e-14 0 0)
(3.067115763e-14 0 0)
(2.840873494e-14 0 0)
(2.817766943e-14 0 0)
(2.801215263e-14 0 0)
(3.302357254e-14 0 0)
(3.487393148e-14 0 0)
(3.722597908e-14 0 0)
(3.50575953e-14 0 0)
(2.716617731e-14 0 0)
(1.401670013e-14 0 0)
(-3.937288355e-15 0 0)
(-1.330411261e-14 0 0)
(-1.634964246e-14 0 0)
(-1.406092711e-14 0 0)
(-1.202799634e-14 0 0)
(-3.47773995e-15 0 0)
(2.865805016e-15 0 0)
(9.861888842e-15 0 0)
(1.401335127e-14 0 0)
(1.570836438e-14 0 0)
(1.684085533e-14 0 0)
(1.468044186e-14 0 0)
(4.142247988e-15 0 0)
(-9.920858221e-15 0 0)
(-2.761725542e-14 0 0)
(-3.543864315e-14 0 0)
(-3.807197837e-14 0 0)
(-3.892186089e-14 0 0)
(-4.593420133e-14 0 0)
(-4.638358949e-14 0 0)
(-4.732187171e-14 0 0)
(-4.081375953e-14 0 0)
(-3.431102353e-14 0 0)
(-2.240748745e-14 0 0)
(-1.025838233e-14 0 0)
(-1.282536737e-15 0 0)
(2.968079492e-15 0 0)
(6.533368057e-15 0 0)
(3.719351307e-15 0 0)
(3.963788326e-16 0 0)
(-2.469204685e-15 0 0)
(-7.523548414e-16 0 0)
(3.820974527e-15 0 0)
(7.914194769e-15 0 0)
(1.467739551e-14 0 0)
(1.838887681e-14 0 0)
(1.767910092e-14 0 0)
(1.761569345e-14 0 0)
(1.548407309e-14 0 0)
(1.14389155e-14 0 0)
(9.240734692e-15 0 0)
(8.146175425e-15 0 0)
(6.464783387e-15 0 0)
(2.016038347e-15 0 0)
(-8.611136621e-15 0 0)
(-1.263651631e-14 0 0)
(-1.379344348e-14 0 0)
(-7.840358414e-15 0 0)
(-1.186990416e-16 0 0)
(6.568152532e-15 0 0)
(1.242399816e-14 0 0)
(1.683344293e-14 0 0)
(1.933471364e-14 0 0)
(1.820750961e-14 0 0)
(1.865373127e-14 0 0)
(1.612681977e-14 0 0)
(1.375107632e-14 0 0)
(8.153459266e-15 0 0)
(3.084280926e-16 0 0)
(-1.096329678e-15 0 0)
(-1.085922715e-15 0 0)
(-3.265246038e-15 0 0)
(-5.712151254e-15 0 0)
(-1.096060122e-14 0 0)
(-1.424366055e-14 0 0)
(-1.655991845e-14 0 0)
(-1.86291857e-14 0 0)
(-2.01851068e-14 0 0)
(-1.899529534e-14 0 0)
(-1.457351226e-14 0 0)
(-7.256380774e-15 0 0)
(2.364819168e-15 0 0)
(9.247217893e-15 0 0)
(1.366711958e-14 0 0)
(1.596745439e-14 0 0)
(1.433299805e-14 0 0)
(1.566527301e-14 0 0)
(1.699356996e-14 0 0)
(1.725153198e-14 0 0)
(1.712226243e-14 0 0)
(1.017965021e-14 0 0)
(4.296783576e-15 0 0)
(1.826399661e-16 0 0)
(-1.589962319e-15 0 0)
(1.772632066e-15 0 0)
(3.839489231e-15 0 0)
(2.781519546e-15 0 0)
(3.659199841e-15 0 0)
(-1.755823582e-15 0 0)
(-7.763977149e-15 0 0)
(-1.108958508e-14 0 0)
(-1.162501145e-14 0 0)
(-6.823998611e-15 0 0)
(-2.736216886e-15 0 0)
(-6.209755249e-16 0 0)
(9.105438474e-15 0 0)
(1.439806444e-14 0 0)
(1.350758205e-14 0 0)
(1.520451454e-14 0 0)
(1.695111314e-14 0 0)
(1.967571097e-14 0 0)
(1.898187434e-14 0 0)
(1.86481633e-14 0 0)
(1.566636382e-14 0 0)
(1.3637651e-14 0 0)
(5.533701507e-15 0 0)
(7.519750841e-16 0 0)
(-9.078307045e-16 0 0)
(-6.415221809e-15 0 0)
(-1.116707305e-14 0 0)
(-1.508358231e-14 0 0)
(-2.050136871e-14 0 0)
(-2.280041084e-14 0 0)
(-2.491920639e-14 0 0)
(-2.388060548e-14 0 0)
(-1.943021746e-14 0 0)
(-1.301175645e-14 0 0)
(-3.996362477e-15 0 0)
(7.356448435e-15 0 0)
(1.819044176e-14 0 0)
(2.501929741e-14 0 0)
(2.695511732e-14 0 0)
(2.316609376e-14 0 0)
(1.435091752e-14 0 0)
(4.425865777e-15 0 0)
(-6.819972445e-15 0 0)
(-1.051789071e-14 0 0)
(-1.201209375e-14 0 0)
(-1.028289486e-14 0 0)
(-5.428679705e-15 0 0)
(-6.358445762e-15 0 0)
(-8.241592326e-15 0 0)
(-8.016292973e-15 0 0)
(-8.817644707e-15 0 0)
(-7.851769621e-15 0 0)
(-2.499084715e-15 0 0)
(5.395013459e-15 0 0)
(1.1713788e-14 0 0)
(1.134503369e-14 0 0)
(7.573408819e-15 0 0)
(1.413893482e-15 0 0)
(-8.723489997e-16 0 0)
(-2.769348827e-15 0 0)
(-3.627215324e-15 0 0)
(-6.180737865e-15 0 0)
(-5.970984675e-15 0 0)
(-5.935436714e-15 0 0)
(-5.244636486e-15 0 0)
(-2.12102041e-15 0 0)
(-8.390086128e-16 0 0)
(-2.981711294e-15 0 0)
(-2.84113911e-15 0 0)
(-1.349001887e-14 0 0)
(-2.361369627e-14 0 0)
(-2.479207099e-14 0 0)
(-2.630599709e-14 0 0)
(-2.206646256e-14 0 0)
(-1.462028483e-14 0 0)
(1.195984787e-15 0 0)
(1.291455985e-14 0 0)
(2.023860324e-14 0 0)
(2.485871913e-14 0 0)
(2.394098218e-14 0 0)
(2.226637786e-14 0 0)
(1.901974572e-14 0 0)
(1.406959305e-14 0 0)
(1.466652193e-14 0 0)
(1.215385345e-14 0 0)
(1.345807286e-14 0 0)
(9.616928058e-15 0 0)
(7.866481254e-15 0 0)
(5.814693355e-15 0 0)
(-4.209028562e-16 0 0)
(-3.710624034e-15 0 0)
(-6.084313772e-15 0 0)
(-5.568197736e-15 0 0)
(-4.690284634e-15 0 0)
(-1.101865266e-15 0 0)
(4.809282532e-15 0 0)
(1.264329586e-14 0 0)
(2.176094076e-14 0 0)
(2.995632423e-14 0 0)
(3.541666129e-14 0 0)
(3.720981381e-14 0 0)
(3.594548819e-14 0 0)
(3.122670017e-14 0 0)
(2.137976305e-14 0 0)
(5.891148241e-15 0 0)
(-7.127453394e-15 0 0)
(-1.995642228e-14 0 0)
(-3.333719955e-14 0 0)
(-4.35871801e-14 0 0)
(-5.028598261e-14 0 0)
(-5.073966292e-14 0 0)
(-4.252427908e-14 0 0)
(-2.91596666e-14 0 0)
(-1.139155481e-14 0 0)
(-5.727179451e-16 0 0)
(1.640694925e-14 0 0)
(2.444858455e-14 0 0)
(3.175696253e-14 0 0)
(3.507974899e-14 0 0)
(3.704302694e-14 0 0)
(3.430025336e-14 0 0)
(2.999359454e-14 0 0)
(2.250573889e-14 0 0)
(8.419634071e-15 0 0)
(-6.02977162e-15 0 0)
(-1.21533429e-14 0 0)
(-2.08136223e-14 0 0)
(-2.485974859e-14 0 0)
(-2.777839113e-14 0 0)
(-2.796334354e-14 0 0)
(-2.286494869e-14 0 0)
(-1.603239951e-14 0 0)
(-4.331752935e-15 0 0)
(4.384356891e-15 0 0)
(7.350692482e-15 0 0)
(5.889119529e-15 0 0)
(6.258516612e-15 0 0)
(7.759350345e-15 0 0)
(7.250412691e-15 0 0)
(6.962594758e-15 0 0)
(7.518251882e-16 0 0)
(-1.154213676e-14 0 0)
(-2.635447114e-14 0 0)
(-3.774509379e-14 0 0)
(-4.163789626e-14 0 0)
(-4.020943627e-14 0 0)
(-3.582368466e-14 0 0)
(-2.678164481e-14 0 0)
(-1.353117538e-14 0 0)
(-4.435214203e-15 0 0)
(-2.197894222e-15 0 0)
(-1.20137822e-15 0 0)
(2.107054864e-15 0 0)
(2.86739069e-15 0 0)
(1.049733256e-14 0 0)
(1.18829184e-14 0 0)
(1.235910351e-14 0 0)
(1.166236142e-14 0 0)
(1.190613719e-14 0 0)
(9.640616934e-15 0 0)
(1.020790176e-14 0 0)
(1.088129949e-14 0 0)
(9.015585736e-15 0 0)
(7.427705921e-15 0 0)
(2.515890697e-15 0 0)
(-1.119811125e-15 0 0)
(-6.651161521e-15 0 0)
(-8.622884862e-15 0 0)
(-5.862747558e-15 0 0)
(-6.495890217e-15 0 0)
(1.69397699e-15 0 0)
(5.372513098e-15 0 0)
(7.23195326e-15 0 0)
(8.063286549e-15 0 0)
(6.919813773e-15 0 0)
(5.648021315e-15 0 0)
(3.155999639e-15 0 0)
(7.928800904e-16 0 0)
(-1.026060933e-15 0 0)
(-5.278437581e-15 0 0)
(-5.100173949e-15 0 0)
(-4.181702785e-15 0 0)
(3.480380855e-15 0 0)
(7.277783195e-15 0 0)
(9.054293011e-15 0 0)
(1.11196215e-14 0 0)
(1.008097451e-14 0 0)
(1.109523564e-14 0 0)
(1.201659639e-14 0 0)
(1.097737263e-14 0 0)
(1.150013742e-14 0 0)
(1.701458815e-14 0 0)
(2.203478981e-14 0 0)
(2.286996067e-14 0 0)
(1.760792208e-14 0 0)
(1.200200924e-14 0 0)
(7.48745827e-15 0 0)
(3.029989071e-16 0 0)
(-3.012171949e-15 0 0)
(-1.07441689e-14 0 0)
(-1.6143411e-14 0 0)
(-2.831688597e-14 0 0)
(-2.973319663e-14 0 0)
(-3.157978324e-14 0 0)
(-3.233912104e-14 0 0)
(-2.511821845e-14 0 0)
(-1.375538058e-14 0 0)
(2.295648375e-15 0 0)
(5.506045365e-15 0 0)
(5.392752509e-15 0 0)
(2.934955096e-15 0 0)
(-4.081696458e-15 0 0)
(-1.587068153e-14 0 0)
(-2.324420418e-14 0 0)
(-3.001480286e-14 0 0)
(-3.618324487e-14 0 0)
(-3.653721876e-14 0 0)
(-3.239742132e-14 0 0)
(-2.50552259e-14 0 0)
(-1.99885144e-14 0 0)
(-1.534889969e-14 0 0)
(-1.34673504e-14 0 0)
(-1.298746059e-14 0 0)
(-6.823808287e-15 0 0)
(5.733142175e-15 0 0)
(2.283421447e-14 0 0)
(3.977864365e-14 0 0)
(4.535223041e-14 0 0)
(4.754977821e-14 0 0)
(4.428139746e-14 0 0)
(3.801567867e-14 0 0)
(2.758268978e-14 0 0)
(1.629451967e-14 0 0)
(2.305768386e-15 0 0)
(-1.01831227e-14 0 0)
(-1.784669259e-14 0 0)
(-2.944098816e-14 0 0)
(-3.563539749e-14 0 0)
(-3.563269368e-14 0 0)
(-3.314695846e-14 0 0)
(-2.141545772e-14 0 0)
(-9.955509724e-15 0 0)
(-1.471075611e-15 0 0)
(-2.939132466e-16 0 0)
(-5.805434875e-17 0 0)
(1.080038138e-15 0 0)
(3.716060795e-15 0 0)
(9.189736439e-15 0 0)
(1.177818609e-14 0 0)
(1.748911142e-14 0 0)
(1.832656435e-14 0 0)
(2.026459467e-14 0 0)
(1.649226952e-14 0 0)
(1.295534264e-14 0 0)
(1.618425686e-15 0 0)
(-6.446908791e-15 0 0)
(-1.365313125e-14 0 0)
(-2.035609737e-14 0 0)
(-2.354293011e-14 0 0)
(-2.631011935e-14 0 0)
(-3.22254385e-14 0 0)
(-3.370893124e-14 0 0)
(-3.010272335e-14 0 0)
(-2.891805189e-14 0 0)
(-2.587985636e-14 0 0)
(-2.509213558e-14 0 0)
(-2.285341237e-14 0 0)
(-1.852157583e-14 0 0)
(-1.716988603e-14 0 0)
(-1.59798849e-14 0 0)
(-1.697723181e-14 0 0)
(-2.092482394e-14 0 0)
(-2.405026186e-14 0 0)
(-2.460110747e-14 0 0)
(-2.323499558e-14 0 0)
(-2.265269651e-14 0 0)
(-2.093210753e-14 0 0)
(-1.998543678e-14 0 0)
(-1.527871193e-14 0 0)
(-3.717469961e-15 0 0)
(9.924675911e-15 0 0)
(2.572951857e-14 0 0)
(3.34927458e-14 0 0)
(3.372979762e-14 0 0)
(3.026588786e-14 0 0)
(2.716754648e-14 0 0)
(2.822665966e-14 0 0)
(3.231962827e-14 0 0)
(3.597230562e-14 0 0)
(3.312168779e-14 0 0)
(2.866212044e-14 0 0)
(2.320110209e-14 0 0)
(1.676776609e-14 0 0)
(7.23308613e-15 0 0)
(7.125495515e-16 0 0)
(-1.891178771e-15 0 0)
(-4.015128619e-15 0 0)
(-1.580156169e-15 0 0)
(1.69366776e-15 0 0)
(8.155688519e-15 0 0)
(1.597215219e-14 0 0)
(1.911171649e-14 0 0)
(1.941769116e-14 0 0)
(1.985436246e-14 0 0)
(1.971266627e-14 0 0)
(2.191067357e-14 0 0)
(2.177719823e-14 0 0)
(1.955375321e-14 0 0)
(1.403988379e-14 0 0)
(8.355861063e-15 0 0)
(6.114205266e-15 0 0)
(3.413686993e-15 0 0)
(-1.632210603e-15 0 0)
(-3.086351507e-15 0 0)
(-4.152449133e-15 0 0)
(-4.611207355e-15 0 0)
(-5.088294461e-15 0 0)
(-3.597578557e-15 0 0)
(-2.419880817e-15 0 0)
(-2.857753585e-15 0 0)
(5.507994212e-16 0 0)
(4.221064761e-15 0 0)
(8.419898125e-15 0 0)
(1.18254562e-14 0 0)
(7.775564209e-15 0 0)
(1.799095536e-15 0 0)
(-4.284047447e-15 0 0)
(-5.684337866e-15 0 0)
(-1.212880479e-15 0 0)
(4.702896985e-15 0 0)
(1.064507657e-14 0 0)
(1.381814115e-14 0 0)
(1.064387688e-14 0 0)
(6.661473654e-15 0 0)
(2.467179456e-15 0 0)
(2.562617913e-15 0 0)
(3.127548166e-15 0 0)
(5.712039716e-15 0 0)
(5.148828426e-15 0 0)
(3.847002105e-15 0 0)
(5.27362089e-15 0 0)
(6.304503101e-15 0 0)
(5.326021987e-15 0 0)
(9.053761137e-15 0 0)
(1.193607992e-14 0 0)
(8.657274155e-15 0 0)
(8.035615982e-15 0 0)
(2.177957556e-15 0 0)
(-1.993190781e-15 0 0)
(-4.971186767e-15 0 0)
(-9.971723174e-15 0 0)
(-1.392306686e-14 0 0)
(-1.907026662e-14 0 0)
(-2.471862602e-14 0 0)
(-3.331266085e-14 0 0)
(-3.416261269e-14 0 0)
(-3.988604159e-14 0 0)
(-5.069871844e-14 0 0)
(-6.70036096e-14 0 0)
(-8.990927774e-14 0 0)
(-1.22262012e-13 0 0)
(-1.301808453e-13 0 0)
(-1.200421682e-13 0 0)
(-1.045831592e-13 0 0)
(-1.176023169e-13 0 0)
(-1.308814937e-13 0 0)
(-1.327118801e-13 0 0)
(-1.203220656e-13 0 0)
(-9.277827374e-14 0 0)
(-7.078254914e-14 0 0)
(-5.669763562e-14 0 0)
(-6.180835579e-14 0 0)
(-8.543644164e-14 0 0)
(-1.10877983e-13 0 0)
(-1.185876461e-13 0 0)
(-1.14394475e-13 0 0)
(-9.830358276e-14 0 0)
(-6.67122316e-14 0 0)
(-4.058872042e-14 0 0)
(-2.046512535e-14 0 0)
(-7.590766393e-15 0 0)
(-1.250225875e-16 0 0)
(-2.057268576e-15 0 0)
(-8.391164001e-15 0 0)
(-9.653718752e-15 0 0)
(-8.409841289e-15 0 0)
(-6.79511706e-15 0 0)
(-5.738585664e-15 0 0)
(-9.897865997e-16 0 0)
(7.410236711e-15 0 0)
(1.555416582e-14 0 0)
(3.111454724e-14 0 0)
(4.164238508e-14 0 0)
(5.493647124e-14 0 0)
(7.10243792e-14 0 0)
(9.028493977e-14 0 0)
(1.032034023e-13 0 0)
(1.059151143e-13 0 0)
(1.032984482e-13 0 0)
(9.290391733e-14 0 0)
(7.027892616e-14 0 0)
(3.94558152e-14 0 0)
(1.265202007e-14 0 0)
(-5.646485266e-15 0 0)
(-1.550772669e-14 0 0)
(-2.044502055e-14 0 0)
(-1.964138934e-14 0 0)
(-1.247456306e-14 0 0)
(3.405684235e-15 0 0)
(2.591513423e-14 0 0)
(4.076922918e-14 0 0)
(4.362722362e-14 0 0)
(4.223018688e-14 0 0)
(3.635597031e-14 0 0)
(3.690497374e-14 0 0)
(4.072675902e-14 0 0)
(4.854578337e-14 0 0)
(5.321982287e-14 0 0)
(5.390275502e-14 0 0)
(5.021806635e-14 0 0)
(4.225877101e-14 0 0)
(3.702819418e-14 0 0)
(2.966855371e-14 0 0)
(1.808952936e-14 0 0)
(4.320543467e-16 0 0)
(-1.401169501e-14 0 0)
(-2.987187007e-14 0 0)
(-3.297159817e-14 0 0)
(-3.074974897e-14 0 0)
(-2.345031881e-14 0 0)
(-2.248465025e-14 0 0)
(-2.294800487e-14 0 0)
(-2.471038117e-14 0 0)
(-2.606843456e-14 0 0)
(-2.830513814e-14 0 0)
(-2.636155001e-14 0 0)
(-1.841647129e-14 0 0)
(1.557442162e-15 0 0)
(2.377268423e-14 0 0)
(4.326265732e-14 0 0)
(5.682812914e-14 0 0)
(6.658036183e-14 0 0)
(6.885013485e-14 0 0)
(6.531586388e-14 0 0)
(5.788567982e-14 0 0)
(4.825051808e-14 0 0)
(3.445026107e-14 0 0)
(2.081586796e-14 0 0)
(-3.769482018e-15 0 0)
(-2.455326001e-14 0 0)
(-4.436285319e-14 0 0)
(-5.219398635e-14 0 0)
(-5.225645449e-14 0 0)
(-5.066386251e-14 0 0)
(-4.255083267e-14 0 0)
(-2.857296633e-14 0 0)
(-1.019913797e-14 0 0)
(8.466579216e-15 0 0)
(1.578054287e-14 0 0)
(1.731283301e-14 0 0)
(1.694995266e-14 0 0)
(1.356227263e-14 0 0)
(6.818644803e-15 0 0)
(-3.140493295e-16 0 0)
(-1.218561995e-14 0 0)
(-2.442410773e-14 0 0)
(-3.981404491e-14 0 0)
(-5.481598397e-14 0 0)
(-7.578404624e-14 0 0)
(-8.941897884e-14 0 0)
(-9.948875325e-14 0 0)
(-1.030021368e-13 0 0)
(-9.75750014e-14 0 0)
(-8.654290079e-14 0 0)
(-6.00275738e-14 0 0)
(-3.217465341e-14 0 0)
(-2.029507996e-16 0 0)
(2.058761516e-14 0 0)
(4.050648265e-14 0 0)
(4.770349708e-14 0 0)
(4.716635464e-14 0 0)
(3.801407641e-14 0 0)
(2.452089018e-14 0 0)
(8.306680395e-15 0 0)
(-1.469754845e-14 0 0)
(-3.017897465e-14 0 0)
(-6.043156592e-14 0 0)
(-7.446476904e-14 0 0)
(-8.515755672e-14 0 0)
(-8.854067842e-14 0 0)
(-8.823168702e-14 0 0)
(-8.788252855e-14 0 0)
(-8.407272787e-14 0 0)
(-7.333755576e-14 0 0)
(-5.770957293e-14 0 0)
(-4.144086573e-14 0 0)
(-2.821926206e-14 0 0)
(-2.426557541e-14 0 0)
(-2.229008893e-14 0 0)
(-2.156302997e-14 0 0)
(-2.211068845e-14 0 0)
(-2.472969601e-14 0 0)
(-3.290741701e-14 0 0)
(-4.635923384e-14 0 0)
(-6.172229052e-14 0 0)
(-6.758864214e-14 0 0)
(-6.246624179e-14 0 0)
(-3.406276235e-14 0 0)
(5.311581513e-15 0 0)
(7.948392652e-14 0 0)
(1.334839217e-13 0 0)
(1.766330439e-13 0 0)
(1.21444447e-13 0 0)
(3.349249153e-14 0 0)
(3.422659335e-14 0 0)
(7.329534721e-14 0 0)
(6.200684814e-14 0 0)
(3.912646365e-14 0 0)
(1.825492567e-14 0 0)
(6.064879225e-15 0 0)
(-8.067530937e-15 0 0)
(-9.814371751e-15 0 0)
(5.295017969e-15 0 0)
(2.999876569e-14 0 0)
(6.508296034e-14 0 0)
(8.857275295e-14 0 0)
(1.111452822e-13 0 0)
(1.197999179e-13 0 0)
(1.162294731e-13 0 0)
(9.68418965e-14 0 0)
(7.738234611e-14 0 0)
(4.968246829e-14 0 0)
(3.491951539e-14 0 0)
(1.174976221e-14 0 0)
(-5.205434089e-16 0 0)
(-1.350914243e-14 0 0)
(-2.082494312e-14 0 0)
(-2.160055458e-14 0 0)
(-2.190030329e-14 0 0)
(-2.349945123e-14 0 0)
(-2.582244343e-14 0 0)
(-3.548588456e-14 0 0)
(-4.713503936e-14 0 0)
(-5.578021578e-14 0 0)
(-5.747437719e-14 0 0)
(-5.411136765e-14 0 0)
(-4.879087157e-14 0 0)
(-4.762792707e-14 0 0)
(-4.759852393e-14 0 0)
(-4.246205591e-14 0 0)
(-3.61186634e-14 0 0)
(-2.293472792e-14 0 0)
(-8.234243e-15 0 0)
(4.983029046e-15 0 0)
(1.613916381e-14 0 0)
(2.083288025e-14 0 0)
(2.34837081e-14 0 0)
(2.373548856e-14 0 0)
(1.809111331e-14 0 0)
(6.569431147e-15 0 0)
(-9.082481617e-15 0 0)
(-2.746711635e-14 0 0)
(-4.502571187e-14 0 0)
(-5.09967293e-14 0 0)
(-5.193032197e-14 0 0)
(-6.182772851e-14 0 0)
(-7.051453963e-14 0 0)
(-7.78354443e-14 0 0)
(-7.863323855e-14 0 0)
(-8.197279326e-14 0 0)
(-8.539747315e-14 0 0)
(-8.417231249e-14 0 0)
(-7.55734633e-14 0 0)
(-6.599363263e-14 0 0)
(-4.553730034e-14 0 0)
(-3.013274121e-14 0 0)
(-1.194335952e-14 0 0)
(3.73802851e-15 0 0)
(2.554817291e-14 0 0)
(3.966476984e-14 0 0)
(5.681558371e-14 0 0)
(6.882256061e-14 0 0)
(7.72322764e-14 0 0)
(8.016910258e-14 0 0)
(7.882602738e-14 0 0)
(8.146676039e-14 0 0)
(8.635816164e-14 0 0)
(8.861515998e-14 0 0)
(8.933969524e-14 0 0)
(8.747902747e-14 0 0)
(7.857041954e-14 0 0)
(6.090431858e-14 0 0)
(3.682855178e-14 0 0)
(2.638342612e-14 0 0)
(1.103567212e-14 0 0)
(6.667743028e-15 0 0)
(-6.805730077e-16 0 0)
(-1.345667545e-14 0 0)
(-2.585008981e-14 0 0)
(-3.421674521e-14 0 0)
(-3.385719943e-14 0 0)
(-3.383697684e-14 0 0)
(-3.836185525e-14 0 0)
(-5.320231452e-14 0 0)
(-7.745529175e-14 0 0)
(-9.605536288e-14 0 0)
(-1.011057489e-13 0 0)
(-9.888247422e-14 0 0)
(-8.432727964e-14 0 0)
(-5.61687035e-14 0 0)
(-2.224057488e-14 0 0)
(1.872446781e-15 0 0)
(1.94006597e-14 0 0)
(3.381894089e-14 0 0)
(4.445478562e-14 0 0)
(5.437131001e-14 0 0)
(6.290341352e-14 0 0)
(7.130856115e-14 0 0)
(7.897301871e-14 0 0)
(8.317836497e-14 0 0)
(8.485019437e-14 0 0)
(8.024415929e-14 0 0)
(6.37120502e-14 0 0)
(3.568503475e-14 0 0)
(4.019524363e-15 0 0)
(-2.034588238e-14 0 0)
(-3.249850702e-14 0 0)
(-4.026671132e-14 0 0)
(-4.737928657e-14 0 0)
(-4.93992285e-14 0 0)
(-4.88753233e-14 0 0)
(-4.941273719e-14 0 0)
(-4.822180834e-14 0 0)
(-4.514199345e-14 0 0)
(-4.269784422e-14 0 0)
(-3.364692498e-14 0 0)
(-1.931781923e-14 0 0)
(6.761285431e-15 0 0)
(3.181147866e-14 0 0)
(5.576300853e-14 0 0)
(6.509770504e-14 0 0)
(6.763557719e-14 0 0)
(6.901404442e-14 0 0)
(6.080587732e-14 0 0)
(4.772865234e-14 0 0)
(2.983239199e-14 0 0)
(1.247521042e-14 0 0)
(-7.872075344e-16 0 0)
(-5.189963283e-15 0 0)
(-8.126766463e-15 0 0)
(-4.065238521e-15 0 0)
(-6.656261716e-16 0 0)
(6.011266663e-15 0 0)
(1.660822738e-14 0 0)
(3.204942845e-14 0 0)
(4.324378387e-14 0 0)
(5.470438454e-14 0 0)
(6.333659735e-14 0 0)
(7.350438952e-14 0 0)
(8.413435065e-14 0 0)
(9.400676607e-14 0 0)
(9.74508896e-14 0 0)
(9.550094437e-14 0 0)
(9.295601463e-14 0 0)
(9.122919856e-14 0 0)
(7.966586124e-14 0 0)
(6.631407399e-14 0 0)
(4.443488261e-14 0 0)
(2.545205501e-14 0 0)
(4.171852678e-15 0 0)
(-5.69866625e-15 0 0)
(-1.355442671e-14 0 0)
(-1.606243455e-14 0 0)
(-1.631309855e-14 0 0)
(-1.384890793e-14 0 0)
(-1.622470006e-14 0 0)
(-1.340700121e-14 0 0)
(-1.221538852e-14 0 0)
(-1.218765675e-14 0 0)
(-1.242415686e-14 0 0)
(-9.703516356e-15 0 0)
(-1.007951402e-14 0 0)
(-1.469580958e-14 0 0)
(-1.936503518e-14 0 0)