/*--------------------------------*- C++ -*----------------------------------*\
| =========                 |                                                 |
| \\      /  F ield         | OpenFOAM: The Open Source CFD Toolbox           |
|  \\    /   O peration     | Version:  2012                                  |
|   \\  /    A nd           | Website:  www.openfoam.com                      |
|    \\/     M anipulation  |                                                 |
\*---------------------------------------------------------------------------*/
FoamFile
{
    version     2.0;
    format      ascii;
    class       volScalarField;
    location    "0.89";
    object      maxKappa;
}
// * * * * * * * * * * * * * * * * * * * * * * * * * * * * * * * * * * * * * //

dimensions      [0 0 0 0 0 0 0];


internalField   nonuniform List<scalar> 
2268
(
1.65019e-06
3.14474e-06
4.50401e-06
5.64742e-06
6.53395e-06
7.19889e-06
7.65355e-06
7.94485e-06
8.13563e-06
8.19244e-06
8.19244e-06
8.04348e-06
7.72831e-06
7.18963e-06
6.37121e-06
5.23391e-06
3.70687e-06
1.91868e-06
2.19284e-06
3.49195e-06
3.49195e-06
3.23969e-06
2.29474e-06
2.04802e-06
3.36831e-06
4.66632e-06
5.75597e-06
6.5894e-06
7.22398e-06
7.67622e-06
7.97471e-06
8.15962e-06
8.21817e-06
8.21817e-06
8.0821e-06
7.78852e-06
7.27578e-06
6.47371e-06
5.35901e-06
3.90712e-06
2.34611e-06
2.44409e-06
3.60012e-06
3.60012e-06
3.5377e-06
2.84727e-06
2.5736e-06
3.68044e-06
4.85591e-06
5.91227e-06
6.75952e-06
7.40285e-06
7.8379e-06
8.10442e-06
8.23945e-06
8.27372e-06
8.27372e-06
8.17335e-06
7.91774e-06
7.42258e-06
6.67353e-06
5.64208e-06
4.36861e-06
3.17183e-06
3.46679e-06
4.52026e-06
4.52026e-06
4.22327e-06
3.23293e-06
3.26185e-06
4.1879e-06
5.24594e-06
6.18131e-06
6.91423e-06
7.48811e-06
7.89105e-06
8.14925e-06
8.29404e-06
8.38347e-06
8.38347e-06
8.32443e-06
8.10605e-06
7.68003e-06
7.01001e-06
6.08822e-06
4.99371e-06
4.0194e-06
4.16927e-06
5.19228e-06
5.40774e-06
5.40774e-06
5.03796e-06
3.97485e-06
4.75838e-06
5.67028e-06
6.55178e-06
7.28702e-06
7.84696e-06
8.19307e-06
8.3586e-06
8.43253e-06
8.49844e-06
8.49845e-06
8.49845e-06
8.35846e-06
7.98034e-06
7.41393e-06
6.63026e-06
5.76644e-06
5.13924e-06
5.89498e-06
6.98264e-06
6.98264e-06
6.79395e-06
6.187e-06
4.80181e-06
5.44915e-06
6.25867e-06
6.98077e-06
7.55245e-06
8.0035e-06
8.27374e-06
8.40294e-06
8.51565e-06
8.69907e-06
8.75354e-06
8.75354e-06
8.65802e-06
8.41174e-06
7.97367e-06
7.33817e-06
6.69927e-06
6.31225e-06
7.18936e-06
7.93844e-06
8.09823e-06
8.69055e-06
8.69055e-06
5.65349e-06
6.19312e-06
6.82094e-06
7.47434e-06
8.04794e-06
8.48693e-06
8.68194e-06
8.68194e-06
8.67379e-06
8.81321e-06
8.98052e-06
9.05283e-06
9.05283e-06
8.904e-06
8.58414e-06
8.10344e-06
7.72058e-06
8.16173e-06
9.109e-06
9.27087e-06
9.27087e-06
1.02845e-05
1.02845e-05
6.67437e-06
7.18916e-06
7.74483e-06
8.17187e-06
8.51815e-06
8.78167e-06
8.80838e-06
8.80838e-06
8.73987e-06
9.08193e-06
9.33424e-06
9.46439e-06
9.46439e-06
9.44155e-06
9.22676e-06
9.02284e-06
9.37654e-06
9.7513e-06
1.04758e-05
1.21421e-05
9.82935e-06
1.30586e-05
1.30586e-05
0.000113324
0.000239574
0.00072505
0.00163271
0.00239661
0.00239661
0.00226519
0.00134158
0.000397205
0.000122585
4.28649e-05
3.32478e-05
4.98613e-05
7.23712e-05
7.23712e-05
7.07225e-05
5.76892e-05
4.82275e-05
3.02039e-05
0.00011165
0.000293543
0.00138877
0.00218382
0.00240358
0.00240358
0.0020931
0.00148232
0.000656015
0.000112396
3.67724e-05
5.03744e-05
8.26143e-05
0.000160472
0.000160472
0.000152884
0.000152884
9.64091e-05
2.83913e-05
0.000129595
0.000302994
0.00118875
0.00160022
0.00160022
0.0013453
0.00151535
0.00151535
0.000805722
0.000128601
4.83845e-05
7.98889e-05
0.000110907
0.000183554
0.000339917
0.000339917
0.000274051
0.000161073
3.07512e-05
0.000251662
0.000574746
0.000574746
0.000566848
0.00043683
0.000369416
0.000738666
0.000738666
0.000496068
0.00010867
6.32613e-05
0.000206558
0.000242066
0.000242066
0.000224551
0.000352795
0.000352795
0.000159422
3.05481e-05
0.000409001
0.000531462
0.000531462
0.00042579
0.000226549
8.20286e-05
0.000354415
0.000354415
0.000100438
5.46461e-05
4.70738e-05
3.93546e-05
0.000251221
0.000268663
0.000268663
0.000214427
0.000157679
4.07007e-05
1.52484e-05
0.000201393
0.000279598
0.000279598
0.000238694
0.000192215
9.35112e-05
0.000173978
0.00017649
7.46079e-05
4.90446e-05
4.54923e-05
6.2572e-05
0.000201481
0.000341377
0.000341377
0.000179928
3.44682e-05
1.66114e-05
9.6789e-06
0.000113099
0.000113099
0.000231631
0.000251475
0.000251475
0.000174074
7.97232e-05
7.24913e-05
4.91638e-05
5.07378e-05
0.000107164
0.000415251
0.000423275
0.000423275
0.000346917
0.000231102
5.46014e-05
1.75443e-05
4.80272e-06
0.000124644
0.00014998
0.000296563
0.000311865
0.000366187
0.000366187
0.000138228
4.41585e-05
4.61151e-05
7.56276e-05
0.000333485
0.00064462
0.000758998
0.000758998
0.00062141
0.000336979
0.000118248
2.38032e-05
1.63485e-05
9.49528e-06
9.82938e-06
1.00062e-05
1.01903e-05
1.01029e-05
9.96412e-06
9.94648e-06
1.15416e-05
1.09846e-05
1.18422e-05
1.24969e-05
1.28089e-05
1.36471e-05
1.45801e-05
1.56537e-05
1.83291e-05
2.74114e-05
4.67058e-05
0.000121391
0.000148647
0.000113437
6.07283e-05
2.50547e-05
1.28381e-05
1.32308e-05
1.3244e-05
1.37761e-05
1.87851e-05
3.1343e-05
3.92665e-05
6.77931e-05
3.69009e-05
4.32716e-05
5.61876e-05
5.8886e-05
5.85447e-05
6.07618e-05
7.96902e-05
0.000133862
0.000211715
0.000256892
0.000321612
0.000313656
0.00026388
0.000130778
8.58421e-05
1.75323e-05
2.35057e-05
2.47522e-05
3.03268e-05
0.000160228
0.000439177
0.000465482
0.000390656
0.00023202
0.000148012
0.000227969
0.000179631
0.000176185
0.000213327
0.000295313
0.000392586
0.000453586
0.000395976
0.000341722
0.000274772
0.000255804
0.000133881
9.32183e-05
5.42006e-05
0.000111194
0.00011836
0.000215937
0.000651019
0.000791633
0.000757064
0.000656712
0.000779259
0.000603957
0.000457364
0.00025955
0.000253978
0.000398028
0.000241019
0.000430495
0.000539448
0.000494241
0.000420652
0.000365515
0.000274773
9.44078e-05
5.8511e-05
0.000457285
0.000324523
0.000473655
0.000991283
0.00115317
0.000943701
0.000901105
0.000998917
0.00144773
0.00143067
0.00105292
0.000773176
0.000373387
0.00046848
0.000473081
0.000493904
0.000700369
0.000717638
0.000557155
0.000485462
0.000209455
6.76417e-05
8.09975e-05
0.000778744
0.000609124
0.00120457
0.00183389
0.00155874
0.001098
0.00123585
0.00165599
0.00183292
0.00183292
0.00166779
0.00138923
0.00106207
0.000873691
0.000999589
0.00102865
0.000931966
0.00106115
0.000922559
0.000644919
0.000336659
9.21818e-05
8.34731e-05
0.00102958
0.0010666
0.00181741
0.00225103
0.00192029
0.00138543
0.0014711
0.00154179
0.00178025
0.00161531
0.00145715
0.00151854
0.00151854
0.00133725
0.0012601
0.00123414
0.00113536
0.00117305
0.00117553
0.00100866
0.000774624
0.000232283
8.63996e-05
0.00130715
0.00157634
0.00218309
0.00227785
0.00187659
0.00115782
0.00137723
0.0014748
0.00171183
0.00164321
0.00146243
0.00143533
0.00148456
0.0013495
0.00127416
0.00110041
0.00108184
0.00112527
0.00123397
0.00123397
0.00116857
0.000756639
0.000232446
0.00157891
0.0015895
0.00210317
0.00227785
0.00168009
0.00110796
0.00120097
0.0011595
0.00133997
0.0013408
0.00146865
0.00146865
0.0013932
0.00137215
0.00132973
0.00116417
0.000919773
0.000923637
0.000981161
0.0011616
0.00108107
0.000836546
0.000476514
0.0018521
0.00181313
0.00227949
0.00211441
0.00166731
0.0010562
0.000975948
0.000863525
0.000964601
0.00100532
0.00117737
0.00118145
0.00118235
0.00129254
0.00122356
0.00100509
0.000939887
0.000898204
0.000867925
0.000922427
0.000952963
0.000683985
0.000624953
0.00200748
0.00213516
0.00257881
0.00221688
0.00164815
0.000960008
0.000736701
0.000635654
0.000691052
0.000684167
0.000784645
0.000838376
0.000913336
0.000917745
0.000898273
0.000980331
0.00111018
0.00111018
0.00102016
0.000868854
0.000865616
0.000865616
0.000804003
0.00206343
0.00242197
0.00276126
0.00234666
0.00159503
0.000850404
0.000570589
0.000497752
0.000542473
0.000504305
0.000536356
0.000551664
0.000600377
0.000574132
0.000573476
0.000695159
0.000898627
0.000925871
0.000880478
0.000778765
0.000680336
0.000762815
0.000754522
0.00245894
0.00263554
0.00277735
0.002319
0.0014509
0.000671137
0.00044143
0.00042972
0.000455937
0.000408622
0.000405047
0.000402597
0.000433003
0.000432968
0.000432968
0.000433062
0.000580988
0.000704709
0.000763109
0.000654488
0.000592471
0.000673785
0.000746183
0.00286195
0.0027817
0.00277735
0.00223407
0.00124266
0.000482192
0.000369795
0.0004242
0.000405432
0.000378966
0.000332179
0.000327933
0.00035938
0.000376628
0.000386968
0.000426648
0.000479449
0.000517677
0.000590462
0.000562448
0.000559324
0.000657832
0.000719004
0.00318645
0.00297477
0.0028164
0.00212725
0.00101918
0.000349221
0.000372303
0.000435782
0.000392107
0.000347582
0.000284237
0.000278968
0.000287638
0.000317105
0.000336114
0.000365775
0.000411192
0.000457697
0.000505901
0.00051264
0.000544463
0.000604879
0.000679195
0.00347718
0.00320229
0.00286295
0.00199297
0.000794026
0.000373667
0.000411501
0.000435782
0.000386925
0.000317835
0.000265158
0.000246688
0.000247642
0.000279627
0.000302835
0.000345344
0.000382628
0.000416352
0.000458233
0.000486341
0.000534452
0.000600938
0.000641642
0.00384441
0.00343373
0.00287957
0.00183436
0.00062466
0.000506306
0.000446621
0.000433961
0.000352327
0.000279174
0.000213011
0.000213442
0.000205342
0.000235287
0.000262701
0.000303175
0.000344524
0.000391276
0.000434414
0.000466986
0.000496945
0.000543413
0.000598223
0.00422716
0.00384995
0.00284447
0.00164925
0.00063469
0.00062253
0.000516695
0.000428909
0.000321091
0.000232692
0.000174149
0.000166959
0.000164537
0.000201777
0.000245522
0.000290393
0.000331033
0.000371477
0.00041277
0.000451985
0.000489514
0.000523839
0.000550643
0.00422716
0.00384132
0.00273426
0.00155442
0.000792716
0.000692415
0.000574157
0.000423277
0.000294782
0.000194251
0.000120081
0.000114816
0.00013255
0.000182382
0.000231095
0.000280256
0.000328081
0.000371749
0.000411336
0.000445968
0.000476891
0.000505894
0.000533685
0.0041349
0.00351606
0.00248002
0.00156304
0.00100553
0.000800788
0.000599706
0.000421755
0.000287114
0.000178597
9.00086e-05
5.58806e-05
0.000114751
0.000170717
0.000223658
0.000272697
0.000319205
0.000362195
0.000401794
0.000437491
0.000469454
0.000498046
0.000521508
0.00364861
0.00296092
0.00222087
0.00157883
0.00111898
0.000850121
0.000617549
0.00044611
0.000312454
0.000205046
0.000130988
0.000101188
0.000142319
0.000188434
0.000240858
0.000289644
0.000335485
0.000376113
0.000413209
0.000446714
0.00048365
0.000518627
0.000554848
0.00304538
0.00246293
0.00198593
0.00151341
0.00111165
0.00084211
0.000627232
0.000472026
0.000347274
0.000253423
0.000204795
0.000177419
0.000200811
0.000223379
0.000268475
0.000307373
0.000351264
0.000392684
0.000436259
0.000478687
0.000528035
0.000572673
0.000613474
0.00238013
0.00203683
0.00172161
0.00137262
0.00106647
0.000838688
0.000656131
0.000516719
0.000403083
0.00031736
0.000281936
0.000255504
0.000267906
0.000281006
0.00031652
0.000347063
0.000390396
0.000430718
0.000483064
0.000535769
0.000591605
0.000634455
0.000665814
0.00182064
0.0017273
0.00145728
0.0012202
0.00100599
0.000823769
0.000676724
0.000557788
0.000461804
0.000390063
0.000358668
0.000333389
0.00033795
0.000345138
0.00037344
0.000401401
0.000445062
0.000492511
0.000553557
0.00060988
0.000656496
0.000679193
0.000698635
0.00149214
0.00147194
0.00128551
0.00112464
0.0009729
0.00083139
0.000710149
0.000606106
0.000522028
0.000464512
0.000434066
0.000410413
0.000410239
0.000414547
0.000439159
0.000468566
0.000517514
0.000573601
0.000633554
0.000673474
0.000690971
0.000698229
0.000714827
0.00130683
0.00130074
0.00117197
0.00106043
0.000948303
0.000838587
0.000740931
0.000655099
0.000585861
0.000537225
0.000508207
0.000486646
0.000484356
0.000489236
0.000514638
0.00055009
0.000605446
0.00065908
0.000697355
0.000701286
0.000701389
0.000706775
0.000721479
0.00119875
0.00118917
0.00110605
0.00102738
0.000943723
0.000857122
0.000776198
0.000702661
0.000649138
0.000607846
0.000581096
0.000562693
0.00056064
0.000569237
0.000599125
0.000642502
0.000695046
0.000725384
0.000721562
0.000709386
0.000705989
0.000711497
0.000721479
0.00113454
0.00112134
0.00106495
0.00100761
0.00094419
0.000877225
0.000813185
0.000753977
0.000711213
0.000676999
0.000653562
0.000639473
0.000641042
0.000656482
0.000693662
0.000737507
0.000766825
0.000751263
0.000729457
0.000709583
0.000705989
0.000709164
0.000716688
0.00109923
0.00108362
0.00104998
0.00100722
0.000957568
0.000903492
0.000850386
0.000809015
0.000773658
0.000745342
0.000726279
0.000718083
0.000725395
0.000750128
0.000789863
0.000814708
0.000795794
0.00077109
0.000735934
0.00071501
0.000704374
0.000700754
0.00069316
0.00108346
0.00107008
0.00104695
0.00101438
0.000976231
0.000934754
0.000896968
0.00086404
0.000835458
0.000813358
0.000800205
0.000799497
0.000814878
0.000845702
0.000872016
0.000852295
0.000813586
0.000765482
0.000729677
0.000705393
0.000692427
0.000674422
0.000652312
0.00108888
0.00107976
0.00105967
0.00103536
0.0010056
0.000976184
0.000946496
0.000920183
0.000897845
0.000881952
0.000876272
0.000882925
0.000905459
0.000931807
0.000920635
0.000880826
0.000823951
0.000769348
0.000727174
0.000689601
0.000660498
0.000629451
0.000598245
0.00110585
0.00109984
0.00108508
0.00106617
0.00104326
0.00102051
0.00099758
0.000977421
0.000961399
0.000952528
0.000954452
0.000969159
0.000993872
0.000993257
0.000945996
0.000885601
0.000812665
0.000753363
0.000701098
0.00065618
0.000616989
0.000580615
0.000546771
0.00113204
0.00112821
0.00111771
0.00110351
0.00108623
0.001069
0.00105164
0.00103716
0.00102727
0.00102538
0.00103461
0.00105431
0.0010647
0.00102295
0.000968836
0.000883383
0.000805528
0.000734999
0.000669348
0.000611059
0.0005677
0.000529701
0.000498392
0.00116459
0.00116218
0.00115489
0.00114468
0.00113237
0.00112032
0.00110845
0.00109975
0.00109622
0.00110081
0.00111608
0.00113088
0.00110401
0.00104915
0.000960006
0.000863892
0.00077662
0.000695208
0.000623429
0.000563165
0.000518854
0.000483078
0.000456617
0.00120578
0.00120401
0.00119891
0.00119204
0.0011839
0.00117619
0.00116902
0.00116558
0.00116706
0.00117589
0.00119094
0.00118425
0.00113648
0.00105739
0.000949254
0.000845943
0.00074751
0.00065612
0.000576151
0.000511693
0.000468066
0.000438201
0.00042019
0.00125008
0.00124915
0.00124619
0.00124244
0.00123803
0.00123473
0.00123236
0.0012343
0.00124014
0.00125072
0.00125685
0.0012108
0.00115001
0.00103945
0.000919837
0.000806005
0.000698651
0.000603789
0.000525323
0.000464675
0.000424084
0.00040138
0.000395086
0.00130493
0.00130431
0.00130211
0.00130009
0.00129866
0.0012986
0.00129969
0.00130509
0.00131151
0.00131798
0.00129862
0.00124718
0.00114931
0.00102123
0.000894195
0.000772341
0.00065905
0.000558928
0.000474902
0.000413305
0.000383987
0.000371501
0.000378371
0.00135884
0.00135882
0.00135822
0.00135863
0.00136029
0.00136365
0.00136861
0.00137675
0.00138187
0.00137688
0.00132569
0.00124997
0.00112299
0.000982306
0.000846676
0.00071835
0.000602761
0.00050471
0.00042876
0.00037775
0.000353413
0.000367658
0.000377086
0.00142709
0.00142749
0.00142765
0.00142855
0.00143148
0.00143616
0.00144213
0.00144738
0.00144455
0.0014137
0.00136065
0.00124922
0.00110262
0.000955088
0.000813907
0.000681657
0.000562845
0.00046035
0.000379253
0.000336514
0.000330655
0.000351723
0.000388056
0.00148876
0.00148969
0.00149076
0.00149371
0.0014993
0.00150576
0.00151239
0.00151512
0.00150216
0.00144454
0.00135521
0.00121251
0.00105436
0.000901596
0.000756851
0.0006232
0.000506047
0.00041139
0.000346639
0.000316662
0.000341383
0.000379674
0.000402253
0.00157232
0.00157366
0.00157589
0.00158028
0.00158533
0.00158987
0.00159134
0.00158242
0.00153886
0.00148223
0.00136117
0.00120085
0.00103619
0.000877252
0.000726606
0.000588955
0.000468702
0.000370916
0.000306199
0.000295254
0.00032766
0.000373289
0.000420759
0.001645
0.00164575
0.00164734
0.00164901
0.00164922
0.00164922
0.00164529
0.00162979
0.00158095
0.00147482
0.00131729
0.00114077
0.000970271
0.000809867
0.000662049
0.000530728
0.000420688
0.000338863
0.000294434
0.000315801
0.000360064
0.000411413
0.000420759
2.78985e-05
2.78102e-05
8.33731e-05
6.92057e-05
0.000123251
8.35341e-05
8.33731e-05
0.000100134
0.000123267
9.57961e-05
9.70348e-05
0.00012501
0.000123267
0.000106555
0.000127413
0.00019571
0.000100479
0.000157351
0.000244606
0.000727253
0.000100479
0.000391022
0.000931669
0.00113817
9.84593e-05
0.000391022
0.000931669
0.00113817
0.000109136
0.000307842
0.000819953
0.000961967
0.000396914
0.000504677
0.000630035
0.000779284
0.000570657
0.000555903
0.000616771
0.000696117
0.000653381
0.000574973
0.000616771
0.00050701
0.000657591
0.000574973
0.00053186
0.000401049
0.000751142
0.000643817
0.000524068
0.000438283
0.000752177
0.000773759
0.000753835
0.000712888
0.000752177
0.000773759
0.000762863
0.000798576
0.000700236
0.000735928
0.000762863
0.000798576
0.000641678
0.000670842
0.000691942
0.000721209
0.000572376
0.000590594
0.000599415
0.000615873
0.000548071
0.00055959
0.000563097
0.000569894
0.000534714
0.000544454
0.000548576
0.000554041
0.000572313
0.000583384
0.000590635
0.000598538
0.000632203
0.00064475
0.000653626
0.000664354
0.000680955
0.000693801
0.000703225
0.000715952
0.000712302
0.000724447
0.000734163
0.000746728
0.000728146
0.000738271
0.00074611
0.000755396
0.000730214
0.000738271
0.00074611
0.000755396
0.000730214
0.000735752
0.000738383
0.000741384
0.000715619
0.000714084
0.000709111
0.000703782
0.000680112
0.000670702
0.000658562
0.000646061
0.000629932
0.000616207
0.000600261
0.00058574
0.000573211
0.000558327
0.000542937
0.000528897
0.000523025
0.000509214
0.000496041
0.000484543
0.000477529
0.000466944
0.000457189
0.00045024
0.000441857
0.000435323
0.000430667
0.000428521
0.000413619
0.000412618
0.000413673
0.000417578
0.000397022
0.000401997
0.000411574
0.000425459
0.000392628
0.000407684
0.000422893
0.000440434
0.00040226
0.000420959
0.000438798
0.000458961
0.000418002
0.00043927
0.000459223
0.000481132
0.000435688
0.000458528
0.000479971
0.000502897
0.000457253
0.000481339
0.000504147
0.000527879
0.000457253
0.000481339
0.000504147
0.000527879
0.000150162
0.000229909
0.00046662
0.000502624
0.000502624
0.000311561
0.00012425
3.80076e-05
5.41415e-05
0.00015544
0.000597423
0.000796081
0.000796081
0.000745159
0.000595085
0.000519942
0.000325027
9.38837e-05
9.5812e-05
0.000149935
0.000304406
0.000259068
0.000341494
0.00030539
0.00017932
0.000120788
4.67947e-05
0.000120204
0.000555828
0.000854844
0.000872516
0.000872516
0.000662681
0.000348546
0.000232825
0.000158987
0.000159883
0.000228384
0.000228245
0.000648436
0.000526564
0.000430465
0.000194791
0.000103249
6.58021e-05
0.000134748
0.000575667
0.000919245
0.000919245
0.000868982
0.000745385
0.00063176
0.000477911
0.00031157
0.000278906
0.000442806
0.00046941
0.000611999
0.00081337
0.000714766
0.000310525
0.00011001
6.59464e-05
4.29434e-05
0.000130101
0.000407663
0.00070524
0.000864414
0.000844703
0.000658034
0.000490397
0.000455946
0.000498102
0.000554758
0.000639874
0.00074973
0.0010774
0.000969156
0.000469145
0.000379518
0.000510901
0.000317929
0.000105355
6.65689e-05
0.000180347
0.000421246
0.000674591
0.000572408
0.000722172
0.000722172
0.000689486
0.000764189
0.000857209
0.000864617
0.000945577
0.00120432
0.00116104
0.000746042
0.000777765
0.000826758
0.000735421
0.000422748
0.000137214
0.000336745
0.000551101
0.000656115
0.000656115
0.000586368
0.00046048
0.000669748
0.000941312
0.000954159
0.00100601
0.00113697
0.00120432
0.000968973
0.000729458
0.000885815
0.000923201
0.000923201
0.00065036
0.000396383
0.000325952
0.00037363
0.000351262
0.000353107
0.000523483
0.000674731
0.000674731
0.00048693
0.000788697
0.00117775
0.0012897
0.00101801
0.00083108
0.000687209
0.000715985
0.00101107
0.00101107
0.000910168
0.000587066
0.000354157
0.000472824
0.000472824
0.000410559
0.000425553
0.000458615
0.00062932
0.000435033
0.000666889
0.00119459
0.00129277
0.000819469
0.000708756
0.000673955
0.000671118
0.000902487
0.000908107
0.000908107
0.000638162
0.000359927
0.000478509
0.000601521
0.00051922
0.000456741
0.000583277
0.000797941
0.000566074
0.000720197
0.00114269
0.00129277
0.000791428
0.000791428
0.00071177
0.000682019
0.000752266
0.000891364
0.000891364
0.000804239
0.000865579
0.000801847
0.00093548
0.00094551
0.000936895
0.000818855
0.000818855
0.000534048
0.00072618
0.00103361
0.00116705
0.000814203
0.000906891
0.000906891
0.000739761
0.000520252
0.000725099
0.00100171
0.00130495
0.0014367
0.0014367
0.00137323
0.00126776
0.00122819
0.00102161
0.000621063
0.000565806
0.000714072
0.000946819
0.00102138
0.000428139
0.000569909
0.000671037
0.000592186
0.00044622
0.000598835
0.00114611
0.00129564
0.00134618
0.00134618
0.00124389
0.00110307
0.00096494
0.000777838
0.000465573
0.000638828
0.000726836
0.000891771
0.000938112
0.000397195
0.000424661
0.000511685
0.000376255
0.000554426
0.00106145
0.00118424
0.00118424
0.00111306
0.000987844
0.000906985
0.000775264
0.000701562
0.000624807
0.000576841
0.000680622
0.000722307
0.000846301
0.00086666
0.000682051
0.000568375
0.000557671
0.000534876
0.000979657
0.00122068
0.00122068
0.00103446
0.000803743
0.000678344
0.000676468
0.000676468
0.000672328
0.000655405
0.000675439
0.000721338
0.000724533
0.000794123
0.000798751
0.000899857
0.000899857
0.000822646
0.000874872
0.000990174
0.0010303
0.00101984
0.00071433
0.000523388
0.000680125
0.000702721
0.000710579
0.000708391
0.000704195
0.000701625
0.00070373
0.00070373
0.000723277
0.00072578
0.000958005
0.00104431
0.00104431
0.00102202
0.000918239
0.000854879
0.000731404
0.000330453
0.0006783
0.000841809
0.000850573
0.000850573
0.000830975
0.000797579
0.000754817
0.000725799
0.000687792
0.00063609
0.000647092
0.000792051
0.000868851
0.000892792
0.000892327
0.000761403
0.000596361
0.000413605
0.000585566
0.000829175
0.000903154
0.000903154
0.000888014
0.000851904
0.000805134
0.000746188
0.000691739
0.000615803
0.000546022
0.0005664
0.000631958
0.000662438
0.00066549
0.000622548
0.00043341
0.000279817
0.000415679
0.000680629
0.000860391
0.000926088
0.000926088
0.000915658
0.000880191
0.000823814
0.00074386
0.000650809
0.000546354
0.000461918
0.000486061
0.000591587
0.000591587
0.000536695
0.000437522
0.000306045
0.000236252
0.000422872
0.000654433
0.000805494
0.000865312
0.000869041
0.000869041
0.000842516
0.000779718
0.000681477
0.000570692
0.000461622
0.000373122
0.000403805
0.000583899
0.000583899
0.000539335
0.000472998
0.000398728
0.000413355
0.000478887
0.000645844
0.000771769
0.000846751
0.000858544
0.000858544
0.000816961
0.00073512
0.000628628
0.000513268
0.000401892
0.000308827
0.00032292
0.000622616
0.000622616
0.000604859
0.000588876
0.00055827
0.00058125
0.000613642
0.000723641
0.000816903
0.000871161
0.000871161
0.000866202
0.00080943
0.000714119
0.000592548
0.000465495
0.000349324
0.000248744
0.00024382
0.000715348
0.000721471
0.000726844
0.000726844
0.000722494
0.000737652
0.000782557
0.000862573
0.000940144
0.000988011
0.000988011
0.000963235
0.000874527
0.000744608
0.000584272
0.000426619
0.000302955
0.000201655
0.000164126
0.000797274
0.000819563
0.000835931
0.000835931
0.000843939
0.000873246
0.000923078
0.000994091
0.0010661
0.00110768
0.00110768
0.00106981
0.000953879
0.000787701
0.000591202
0.000398722
0.00026013
0.00016847
9.6951e-05
0.000846791
0.000869338
0.000885357
0.000891275
0.000916779
0.000965163
0.00102888
0.00110913
0.00119101
0.00124375
0.00124375
0.0012139
0.00108398
0.000878405
0.000636095
0.000396563
0.000239147
0.000168204
9.80216e-05
0.000862452
0.000875001
0.000884719
0.000906196
0.000952496
0.00101827
0.00109928
0.00119386
0.00128926
0.00135693
0.00135693
0.00134574
0.00121433
0.000974799
0.000690769
0.000407798
0.000235372
0.000201126
0.000151054
0.00084063
0.00084063
0.000851533
0.000892538
0.000960863
0.0010454
0.00114383
0.00125531
0.00136824
0.00145905
0.00147535
0.00147535
0.00135769
0.0011022
0.000777673
0.000441196
0.000247204
0.000253219
0.00021702
0.000785429
0.000785429
0.000779715
0.00083813
0.000925248
0.0010317
0.00115536
0.00128916
0.00142318
0.00153782
0.00158257
0.00158257
0.00148579
0.00122644
0.000866731
0.000480164
0.000274218
0.000310028
0.000285602
0.000708229
0.000708229
0.000705304
0.000776143
0.000877396
0.000998736
0.00114101
0.00129818
0.00145661
0.00159906
0.00167377
0.00167377
0.00160653
0.00135993
0.000977411
0.00054099
0.000324793
0.000375013
0.000359682
0.000631248
0.000631248
0.000639694
0.000722055
0.000838232
0.000969127
0.0011189
0.00128801
0.00146672
0.00163851
0.00174488
0.00174488
0.00171
0.00148394
0.0010872
0.000608232
0.000382506
0.000448341
0.00044441
0.000574816
0.000574816
0.000596995
0.000687808
0.000818531
0.000961386
0.00111444
0.00128595
0.0014719
0.00166634
0.00180353
0.00180353
0.00179942
0.0016026
0.00120725
0.000687232
0.000446169
0.000537436
0.000537436
0.000521894
0.000521894
0.000554647
0.000647788
0.000789843
0.000947514
0.00110681
0.00128007
0.00146804
0.00167843
0.0018464
0.00187272
0.00187272
0.00170811
0.0013254
0.0007786
0.000515651
0.000643495
0.000646316
0.000501755
0.00050832
0.00055014
0.000638225
0.000781423
0.000949451
0.00111482
0.00129017
0.00147583
0.00169199
0.00188407
0.00193708
0.00193708
0.001803
0.00144178
0.000870473
0.000591942
0.000760237
0.00076787
0.000478472
0.000498331
0.000546345
0.000628273
0.000767379
0.000941763
0.00111429
0.0012946
0.00148007
0.0016986
0.00191148
0.00198952
0.00198952
0.00188489
0.00154992
0.00096939
0.000669961
0.000889678
0.000903107
0.000488954
0.000519165
0.000572096
0.000650818
0.000782542
0.000954921
0.00112901
0.00131319
0.00149953
0.00171678
0.00194379
0.00204239
0.00204239
0.00196072
0.00164844
0.0010517
0.000759101
0.00103275
0.00105022
0.000486488
0.000527344
0.000585278
0.000662404
0.000788645
0.000959163
0.00113497
0.00132302
0.00151238
0.0017275
0.00196662
0.00208566
0.00208566
0.00202695
0.00174218
0.00114645
0.000844792
0.00118452
0.00121101
0.000516668
0.00056253
0.000621449
0.000697072
0.000819006
0.000985848
0.00116002
0.00134848
0.00154013
0.0017525
0.00199785
0.0021326
0.0021326
0.00209228
0.00183152
0.00122998
0.000946337
0.0013537
0.00137931
0.00052647
0.000579638
0.000640975
0.000715667
0.000834074
0.000998929
0.00117327
0.0013622
0.00155716
0.00176846
0.00201969
0.00217013
0.00217013
0.00214915
0.00191487
0.00131371
0.00103473
0.00151831
0.001557
0.000565434
0.00062067
0.000682377
0.000755668
0.000870501
0.00103246
0.00120624
0.00139376
0.0015894
0.00179973
0.00205289
0.0022115
0.0022115
0.00220342
0.00198991
0.00138032
0.00114593
0.00170556
0.00173104
0.0005781
0.000637411
0.00070149
0.000775555
0.000887835
0.0010479
0.00122287
0.00140981
0.0016075
0.00181867
0.00207471
0.00224351
0.00224853
0.00224853
0.0020587
0.00145447
0.0012246
0.00186335
0.00190648
0.000622694
0.00068227
0.000745981
0.00081921
0.000929368
0.00108673
0.00126078
0.00144584
0.00164241
0.00185261
0.00210815
0.00228046
0.00229063
0.00229063
0.00211512
0.00149457
0.00134521
0.00205419
0.00205934
0.000631259
0.000693067
0.000758482
0.000832987
0.000942929
0.00109943
0.0012746
0.00145927
0.00165665
0.00186751
0.00212372
0.00230201
0.00231834
0.00231834
0.00216328
0.0015495
0.00141207
0.00217194
0.0022155
0.000683033
0.000745357
0.000810989
0.000884818
0.000993911
0.00114783
0.00132089
0.00150333
0.00169881
0.00190831
0.00216233
0.00234045
0.00235517
0.00235517
0.00220462
0.00156436
0.00153997
0.00238053
0.00238053
)
;

boundaryField
{
    leftWall
    {
        type            calculated;
        value           uniform 0;
    }
    rightWall
    {
        type            calculated;
        value           uniform 0;
    }
    lowerWall
    {
        type            calculated;
        value           uniform 0;
    }
    atmosphere
    {
        type            calculated;
        value           uniform 0;
    }
    defaultFaces
    {
        type            empty;
    }
}


// ************************************************************************* //
