/*--------------------------------*- C++ -*----------------------------------*\
| =========                 |                                                 |
| \\      /  F ield         | OpenFOAM: The Open Source CFD Toolbox           |
|  \\    /   O peration     | Version:  2012                                  |
|   \\  /    A nd           | Website:  www.openfoam.com                      |
|    \\/     M anipulation  |                                                 |
\*---------------------------------------------------------------------------*/
FoamFile
{
    version     2.0;
    format      ascii;
    class       volVectorField;
    location    "0.89";
    object      Uc;
}
// * * * * * * * * * * * * * * * * * * * * * * * * * * * * * * * * * * * * * //

dimensions      [0 1 -1 0 0 0 0];


internalField   nonuniform List<vector> 
2268
(
(-0.0185352 0.00875959 0)
(-0.0547316 0.00834659 0)
(-0.0881943 0.00746766 0)
(-0.117297 0.00628617 0)
(-0.140843 0.00484153 0)
(-0.158816 0.00365244 0)
(-0.171766 0.00246758 0)
(-0.180394 0.00160999 0)
(-0.185969 0.00102459 0)
(-0.188834 0.000329234 0)
(-0.187767 -0.000833165 0)
(-0.182383 -0.00171122 0)
(-0.172489 -0.00296481 0)
(-0.156728 -0.00448371 0)
(-0.133989 -0.00626262 0)
(-0.102869 -0.00844449 0)
(-0.0633988 -0.0102087 0)
(-0.0183343 -0.0110885 0)
(0.026831 -0.0102563 0)
(0.0642185 -0.00741273 0)
(0.0771412 0.0013056 0)
(0.0634756 0.00515267 0)
(0.0262863 0.0124228 0)
(-0.0187593 0.0263847 0)
(-0.0555436 0.0252116 0)
(-0.0895588 0.0224922 0)
(-0.118661 0.0187687 0)
(-0.141687 0.0143691 0)
(-0.159163 0.0108776 0)
(-0.172041 0.00744872 0)
(-0.180899 0.00489252 0)
(-0.186558 0.00305114 0)
(-0.189399 0.000998982 0)
(-0.188491 -0.00243582 0)
(-0.183455 -0.00503259 0)
(-0.173983 -0.00879607 0)
(-0.15843 -0.0134512 0)
(-0.135489 -0.0188833 0)
(-0.104023 -0.0254015 0)
(-0.0640865 -0.0307783 0)
(-0.0181159 -0.0335413 0)
(0.0280717 -0.0309762 0)
(0.0659712 -0.0222729 0)
(0.0799023 0.00347495 0)
(0.0652057 0.0163871 0)
(0.0261684 0.0372126 0)
(-0.0193755 0.044407 0)
(-0.0568407 0.0422791 0)
(-0.0909737 0.0376311 0)
(-0.120651 0.0314084 0)
(-0.144734 0.0239932 0)
(-0.162964 0.0181276 0)
(-0.175869 0.0123839 0)
(-0.184192 0.0080769 0)
(-0.188943 0.00478617 0)
(-0.190944 0.00155222 0)
(-0.190144 -0.00379599 0)
(-0.185829 -0.00809122 0)
(-0.176644 -0.0145548 0)
(-0.161099 -0.0223895 0)
(-0.138003 -0.0317016 0)
(-0.105945 -0.0426041 0)
(-0.0645511 -0.0520116 0)
(-0.0155075 -0.0572108 0)
(0.0352382 -0.0531166 0)
(0.0796001 -0.0390086 0)
(0.0980228 0.00492054 0)
(0.0789554 0.0308981 0)
(0.0305596 0.0640219 0)
(-0.0198481 0.0629438 0)
(-0.0584973 0.0597133 0)
(-0.0937356 0.0529813 0)
(-0.123394 0.0440997 0)
(-0.146555 0.0336292 0)
(-0.164027 0.0253641 0)
(-0.176693 0.0172322 0)
(-0.185069 0.0111205 0)
(-0.190026 0.00633012 0)
(-0.192835 0.00228163 0)
(-0.193123 -0.00476744 0)
(-0.189578 -0.0108341 0)
(-0.181266 -0.0200808 0)
(-0.166668 -0.031109 0)
(-0.144056 -0.0445831 0)
(-0.111988 -0.060028 0)
(-0.0695834 -0.0741903 0)
(-0.0175653 -0.0827932 0)
(0.0387367 -0.0781241 0)
(0.08969 -0.0590463 0)
(0.113979 0.00477314 0)
(0.0945156 0.0492548 0)
(0.0367546 0.0958342 0)
(-0.021187 0.0823367 0)
(-0.0617891 0.077774 0)
(-0.0981671 0.0687659 0)
(-0.129364 0.0570745 0)
(-0.154138 0.0433082 0)
(-0.172199 0.0324778 0)
(-0.184159 0.0217571 0)
(-0.190829 0.0137063 0)
(-0.19396 0.00756668 0)
(-0.195721 0.00320448 0)
(-0.196412 -0.00522776 0)
(-0.194267 -0.0130628 0)
(-0.186846 -0.0252871 0)
(-0.172627 -0.0395214 0)
(-0.149963 -0.0575678 0)
(-0.116788 -0.0778767 0)
(-0.0714296 -0.0978176 0)
(-0.0134896 -0.111131 0)
(0.0532364 -0.107928 0)
(0.118062 -0.0839585 0)
(0.149732 0.00323976 0)
(0.126669 0.0708857 0)
(0.0509523 0.137284 0)
(-0.0217799 0.102643 0)
(-0.0644553 0.0968245 0)
(-0.102911 0.0850815 0)
(-0.133973 0.0701818 0)
(-0.157424 0.0529919 0)
(-0.174541 0.0394188 0)
(-0.185894 0.025834 0)
(-0.192051 0.0156915 0)
(-0.195421 0.00865372 0)
(-0.199028 0.00465423 0)
(-0.201672 -0.00510129 0)
(-0.200497 -0.0147585 0)
(-0.194637 -0.0298677 0)
(-0.182392 -0.0474471 0)
(-0.160633 -0.0706365 0)
(-0.127388 -0.0961976 0)
(-0.0808332 -0.122934 0)
(-0.0187154 -0.142753 0)
(0.0580262 -0.144108 0)
(0.132271 -0.113502 0)
(0.167124 0.00134595 0)
(0.140176 0.0964141 0)
(0.0554612 0.187574 0)
(-0.0235341 0.124058 0)
(-0.0686428 0.116895 0)
(-0.108836 0.10218 0)
(-0.142476 0.083661 0)
(-0.168015 0.0626656 0)
(-0.185696 0.0461903 0)
(-0.196052 0.0293221 0)
(-0.199636 0.016807 0)
(-0.200145 0.00937118 0)
(-0.202052 0.00654305 0)
(-0.205567 -0.00407932 0)
(-0.207539 -0.0154038 0)
(-0.204253 -0.0335451 0)
(-0.19291 -0.0549163 0)
(-0.170981 -0.0838146 0)
(-0.136704 -0.11493 0)
(-0.0873243 -0.14954 0)
(-0.0188734 -0.177853 0)
(0.0671536 -0.185931 0)
(0.149671 -0.145764 0)
(0.192078 -0.00290473 0)
(0.175889 0.121051 0)
(0.0765052 0.249941 0)
(-0.0266597 0.147779 0)
(-0.0782708 0.138883 0)
(-0.121657 0.119691 0)
(-0.153209 0.096959 0)
(-0.175892 0.0721574 0)
(-0.191712 0.0525305 0)
(-0.200036 0.0318101 0)
(-0.201287 0.0166039 0)
(-0.201211 0.00977863 0)
(-0.206037 0.00931779 0)
(-0.212846 -0.00197468 0)
(-0.216371 -0.0149104 0)
(-0.214692 -0.0363854 0)
(-0.204706 -0.0621554 0)
(-0.184225 -0.0966186 0)
(-0.153849 -0.13268 0)
(-0.110651 -0.175541 0)
(-0.0482531 -0.21369 0)
(0.0353099 -0.230241 0)
(0.120306 -0.180619 0)
(0.170221 -0.0116788 0)
(0.163947 0.140443 0)
(0.0728966 0.320547 0)
(-0.398516 0.169513 0)
(-1.11509 0.135228 0)
(-1.65709 0.0952367 0)
(-1.98912 0.0459964 0)
(-2.14373 0.0200552 0)
(-2.12144 -0.0290842 0)
(-1.91419 -0.0587164 0)
(-1.59598 -0.0760639 0)
(-1.12575 -0.123554 0)
(-0.569438 -0.113059 0)
(-0.166727 -0.0581976 0)
(-0.0691654 0.0167754 0)
(-0.255213 0.0624135 0)
(-0.508745 0.0454251 0)
(-0.649499 0.0144499 0)
(-0.670567 -0.00548246 0)
(-0.62418 -0.0142427 0)
(-0.476769 -0.0484505 0)
(-0.181425 -0.0771697 0)
(-0.329368 0.479156 0)
(-0.934163 0.387585 0)
(-1.44414 0.290319 0)
(-1.84176 0.161497 0)
(-2.06357 0.0652823 0)
(-1.98761 -0.115292 0)
(-1.64215 -0.206893 0)
(-1.24215 -0.232208 0)
(-0.817243 -0.347454 0)
(-0.384833 -0.309807 0)
(-0.012703 -0.19098 0)
(0.305705 -0.027283 0)
(0.457071 0.12131 0)
(0.3357 0.146093 0)
(0.0149146 0.110215 0)
(-0.298886 0.0412692 0)
(-0.407894 -0.0342962 0)
(-0.309417 -0.132948 0)
(-0.112315 -0.202113 0)
(-0.274842 0.736303 0)
(-0.738894 0.585284 0)
(-1.04445 0.439791 0)
(-1.28771 0.285117 0)
(-1.31157 0.0467647 0)
(-1.1948 -0.178047 0)
(-1.21874 -0.280276 0)
(-1.04584 -0.401397 0)
(-0.634147 -0.533503 0)
(-0.312208 -0.444861 0)
(-0.0526414 -0.324605 0)
(0.274556 -0.168196 0)
(0.567984 0.0731388 0)
(0.652772 0.209973 0)
(0.522031 0.238565 0)
(0.202611 0.182437 0)
(-0.0729525 -0.0117257 0)
(-0.0784533 -0.194957 0)
(-0.00865536 -0.253566 0)
(-0.150163 0.917347 0)
(-0.374532 0.69782 0)
(-0.400484 0.469113 0)
(-0.286232 0.311312 0)
(-0.197225 -0.00651718 0)
(-0.245616 -0.153131 0)
(-0.417392 -0.22141 0)
(-0.495503 -0.499689 0)
(-0.39697 -0.651686 0)
(-0.261647 -0.521345 0)
(-0.104197 -0.425497 0)
(0.189405 -0.331282 0)
(0.526481 -0.0317526 0)
(0.637465 0.231801 0)
(0.545663 0.311479 0)
(0.425437 0.296692 0)
(0.308515 0.0411831 0)
(0.196495 -0.197761 0)
(0.0710443 -0.227025 0)
(-0.0573338 1.00632 0)
(-0.136272 0.739803 0)
(-0.17711 0.457081 0)
(-0.195355 0.283095 0)
(-0.154347 -0.0330394 0)
(-0.0728974 -0.140153 0)
(-0.0681973 -0.16283 0)
(-0.164417 -0.483242 0)
(-0.244715 -0.675316 0)
(-0.244317 -0.555473 0)
(-0.162694 -0.49305 0)
(-0.0283719 -0.445722 0)
(0.203863 -0.159291 0)
(0.441155 0.21152 0)
(0.474409 0.356794 0)
(0.414598 0.327933 0)
(0.370452 0.078467 0)
(0.267296 -0.143503 0)
(0.0970914 -0.155503 0)
(-0.0719573 1.06189 0)
(-0.195279 0.771641 0)
(-0.274984 0.477309 0)
(-0.26075 0.264686 0)
(-0.145289 -0.0809245 0)
(-0.0278346 -0.176668 0)
(0.0137951 -0.145703 0)
(-0.0469708 -0.432766 0)
(-0.175817 -0.63626 0)
(-0.25185 -0.562349 0)
(-0.224967 -0.532317 0)
(-0.171332 -0.486415 0)
(-0.0265681 -0.279008 0)
(0.207091 0.131095 0)
(0.319629 0.375502 0)
(0.32621 0.331834 0)
(0.301256 0.103828 0)
(0.20813 -0.085393 0)
(0.0723186 -0.0834397 0)
(-0.0987971 1.1346 0)
(-0.25116 0.816261 0)
(-0.296553 0.485735 0)
(-0.207199 0.212304 0)
(-0.0614392 -0.139215 0)
(0.0219966 -0.203625 0)
(0.043794 -0.145597 0)
(-0.0242899 -0.377649 0)
(-0.181855 -0.569238 0)
(-0.289136 -0.551389 0)
(-0.296298 -0.551667 0)
(-0.303843 -0.486939 0)
(-0.349259 -0.321117 0)
(-0.271959 0.0409567 0)
(-0.0303709 0.315317 0)
(0.156053 0.310069 0)
(0.168929 0.130702 0)
(0.0962499 -0.0417345 0)
(0.0285637 -0.0405253 0)
(-0.0984325 1.21859 0)
(-0.237714 0.85645 0)
(-0.208179 0.45257 0)
(0.0256802 0.108632 0)
(0.175293 -0.160521 0)
(0.0804011 -0.177041 0)
(0.0030672 -0.148375 0)
(-0.0865057 -0.307695 0)
(-0.261212 -0.497779 0)
(-0.366942 -0.532228 0)
(-0.397746 -0.5548 0)
(-0.478838 -0.446568 0)
(-0.661284 -0.264939 0)
(-0.701677 -0.0308808 0)
(-0.461161 0.182346 0)
(-0.198059 0.252218 0)
(-0.113974 0.147527 0)
(-0.113028 -0.0280194 0)
(-0.0530514 -0.0509206 0)
(-0.0278489 0.188372 0)
(-0.0819692 0.177084 0)
(-0.131315 0.151598 0)
(-0.172511 0.121375 0)
(-0.20154 0.0876418 0)
(-0.217913 0.060981 0)
(-0.221117 0.0305146 0)
(-0.212275 0.00960191 0)
(-0.201888 0.00630359 0)
(-0.201233 0.0144154 0)
(-0.211376 0.00634118 0)
(-0.224246 -0.00862248 0)
(-0.230509 -0.0371712 0)
(-0.227869 -0.0687428 0)
(-0.216732 -0.110905 0)
(-0.195468 -0.154124 0)
(-0.157651 -0.212527 0)
(-0.099491 -0.264653 0)
(-0.0247263 -0.293941 0)
(0.0501639 -0.232435 0)
(0.142656 -0.0764673 0)
(0.230047 0.120393 0)
(0.266771 0.346748 0)
(-0.0375801 0.254143 0)
(-0.108103 0.236606 0)
(-0.162281 0.19614 0)
(-0.195394 0.15153 0)
(-0.212139 0.103499 0)
(-0.217768 0.067241 0)
(-0.213113 0.0227969 0)
(-0.194284 -0.0104496 0)
(-0.181717 0.00335963 0)
(-0.202448 0.0375943 0)
(-0.236416 0.0275324 0)
(-0.257701 0.00453712 0)
(-0.273964 -0.0276678 0)
(-0.290191 -0.0645693 0)
(-0.29653 -0.119885 0)
(-0.288469 -0.174626 0)
(-0.265011 -0.253767 0)
(-0.22574 -0.321881 0)
(-0.187342 -0.351116 0)
(-0.167043 -0.271233 0)
(-0.105047 -0.19281 0)
(0.0107569 0.0328919 0)
(0.096131 0.311768 0)
(-0.0538173 0.346018 0)
(-0.159564 0.321921 0)
(-0.254037 0.260253 0)
(-0.325129 0.192166 0)
(-0.362445 0.117202 0)
(-0.372281 0.069188 0)
(-0.340638 -0.0152473 0)
(-0.237528 -0.0943388 0)
(-0.121724 -0.0409524 0)
(-0.124548 0.10637 0)
(-0.254174 0.123734 0)
(-0.367437 0.0439317 0)
(-0.400323 -0.0174791 0)
(-0.404932 -0.053791 0)
(-0.410973 -0.118546 0)
(-0.395041 -0.200735 0)
(-0.29862 -0.348747 0)
(-0.165308 -0.400898 0)
(-0.107008 -0.369716 0)
(-0.0958195 -0.284231 0)
(-0.0639308 -0.273437 0)
(-0.00233353 -0.0639199 0)
(0.0494211 0.271208 0)
(-0.0636483 0.464096 0)
(-0.202699 0.449904 0)
(-0.386954 0.41244 0)
(-0.619749 0.345424 0)
(-0.818601 0.200585 0)
(-0.87614 0.0536142 0)
(-0.786322 -0.120261 0)
(-0.618666 -0.259593 0)
(-0.392907 -0.217234 0)
(-0.199665 0.0923148 0)
(-0.174913 0.244438 0)
(-0.263718 0.127446 0)
(-0.329238 -0.00185377 0)
(-0.282164 -0.112312 0)
(-0.226227 -0.110461 0)
(-0.248096 -0.203291 0)
(-0.186598 -0.505151 0)
(-0.0902072 -0.475136 0)
(-0.0970741 -0.346702 0)
(-0.141183 -0.273208 0)
(-0.190191 -0.265349 0)
(-0.241562 -0.0808999 0)
(-0.285448 0.280582 0)
(-0.0970513 0.626106 0)
(-0.302063 0.634172 0)
(-0.594599 0.707222 0)
(-1.00192 0.693699 0)
(-1.29505 0.345719 0)
(-1.32199 -0.00664956 0)
(-1.23202 -0.239324 0)
(-1.1619 -0.379123 0)
(-1.09148 -0.396318 0)
(-0.894347 -0.121535 0)
(-0.527931 0.0661218 0)
(-0.1583 0.0248319 0)
(0.103348 -0.0958589 0)
(0.252477 -0.215448 0)
(0.209787 -0.0203101 0)
(-0.0113703 -0.0487156 0)
(-0.231563 -0.499758 0)
(-0.327485 -0.480533 0)
(-0.372662 -0.288325 0)
(-0.434109 -0.222988 0)
(-0.503358 -0.193751 0)
(-0.582403 -0.0204378 0)
(-0.661895 0.34422 0)
(-0.122012 0.847769 0)
(-0.340225 0.83963 0)
(-0.633148 1.09184 0)
(-1.09353 1.18591 0)
(-1.449 0.511205 0)
(-1.53587 -0.0552201 0)
(-1.54125 -0.277344 0)
(-1.61471 -0.341624 0)
(-1.72486 -0.397013 0)
(-1.69636 -0.347677 0)
(-1.45567 -0.316886 0)
(-1.09068 -0.329651 0)
(-0.742031 -0.353951 0)
(-0.63817 -0.211161 0)
(-0.78886 0.170273 0)
(-0.938993 0.134386 0)
(-1.00114 -0.398599 0)
(-0.943896 -0.542376 0)
(-0.742448 -0.382709 0)
(-0.609804 -0.196188 0)
(-0.63931 -0.117539 0)
(-0.712376 0.0566874 0)
(-0.757351 0.392265 0)
(-0.140483 1.11294 0)
(-0.344061 1.00067 0)
(-0.582852 1.46919 0)
(-1.0315 1.72939 0)
(-1.38422 0.686748 0)
(-1.51968 -0.00426443 0)
(-1.65883 -0.184842 0)
(-1.75232 -0.269005 0)
(-1.72065 -0.390368 0)
(-1.63659 -0.465464 0)
(-1.56425 -0.513154 0)
(-1.517 -0.548373 0)
(-1.48105 -0.521785 0)
(-1.48122 -0.146757 0)
(-1.4816 0.258119 0)
(-1.33465 0.0501703 0)
(-1.11767 -0.469484 0)
(-1.01392 -0.632532 0)
(-0.904162 -0.604277 0)
(-0.745392 -0.264267 0)
(-0.691877 -0.0684119 0)
(-0.709518 0.101359 0)
(-0.700987 0.384318 0)
(-0.160605 1.4156 0)
(-0.414123 1.15943 0)
(-0.647987 1.78909 0)
(-0.956463 2.17285 0)
(-1.17586 0.819539 0)
(-1.30269 0.127127 0)
(-1.44825 -0.0299987 0)
(-1.53323 -0.244122 0)
(-1.55405 -0.424191 0)
(-1.54216 -0.525566 0)
(-1.51282 -0.555008 0)
(-1.50016 -0.568302 0)
(-1.52455 -0.515236 0)
(-1.51017 -0.168043 0)
(-1.31869 0.0879038 0)
(-1.04867 -0.198009 0)
(-0.93162 -0.555004 0)
(-0.959987 -0.62012 0)
(-1.04197 -0.64263 0)
(-1.10481 -0.320123 0)
(-1.04387 -0.122245 0)
(-0.844061 -0.0213245 0)
(-0.585934 0.241594 0)
(-0.152842 1.72984 0)
(-0.480017 1.42939 0)
(-0.766488 2.04365 0)
(-0.905439 2.36826 0)
(-1.02364 0.963594 0)
(-1.18165 0.269474 0)
(-1.23881 0.0314679 0)
(-1.23453 -0.224413 0)
(-1.27371 -0.383185 0)
(-1.33037 -0.520167 0)
(-1.36454 -0.554508 0)
(-1.37367 -0.572334 0)
(-1.38922 -0.472734 0)
(-1.37944 -0.236801 0)
(-1.22554 -0.190467 0)
(-1.01518 -0.399923 0)
(-0.92493 -0.557598 0)
(-0.916234 -0.595123 0)
(-0.930716 -0.570174 0)
(-0.983095 -0.276326 0)
(-0.983001 -0.222493 0)
(-0.829334 -0.268959 0)
(-0.503088 -0.0949473 0)
(-0.0725285 1.95578 0)
(-0.334888 1.79551 0)
(-0.688096 2.32064 0)
(-0.835771 2.37944 0)
(-0.888902 1.12468 0)
(-0.967277 0.346049 0)
(-0.942733 -0.0122928 0)
(-0.878003 -0.249994 0)
(-0.84855 -0.347805 0)
(-0.891394 -0.45546 0)
(-0.986431 -0.488713 0)
(-1.08654 -0.527679 0)
(-1.15119 -0.437035 0)
(-1.14009 -0.294137 0)
(-1.07105 -0.356303 0)
(-0.988184 -0.525887 0)
(-0.910758 -0.599148 0)
(-0.849246 -0.62557 0)
(-0.804195 -0.573903 0)
(-0.787306 -0.239237 0)
(-0.777013 -0.266131 0)
(-0.725868 -0.427024 0)
(-0.576568 -0.415399 0)
(-0.0295372 2.06136 0)
(-0.243564 2.17181 0)
(-0.626999 2.68487 0)
(-0.790358 2.32787 0)
(-0.770311 1.20952 0)
(-0.75157 0.321197 0)
(-0.68391 -0.0800999 0)
(-0.624855 -0.306596 0)
(-0.590892 -0.354919 0)
(-0.587206 -0.408946 0)
(-0.620762 -0.405909 0)
(-0.694967 -0.435198 0)
(-0.770935 -0.388077 0)
(-0.792471 -0.332277 0)
(-0.806544 -0.372072 0)
(-0.857298 -0.541441 0)
(-0.864548 -0.655101 0)
(-0.801991 -0.696491 0)
(-0.747561 -0.605921 0)
(-0.743617 -0.229806 0)
(-0.746351 -0.281635 0)
(-0.703954 -0.504133 0)
(-0.621665 -0.573006 0)
(-0.146495 2.24182 0)
(-0.4713 2.53653 0)
(-0.769442 3.00534 0)
(-0.826242 2.22875 0)
(-0.715863 1.17756 0)
(-0.611019 0.228953 0)
(-0.516302 -0.151064 0)
(-0.440415 -0.371263 0)
(-0.376633 -0.388482 0)
(-0.343556 -0.412303 0)
(-0.347767 -0.364544 0)
(-0.372406 -0.37715 0)
(-0.388221 -0.353789 0)
(-0.382835 -0.350241 0)
(-0.37796 -0.344773 0)
(-0.435678 -0.459616 0)
(-0.561701 -0.602812 0)
(-0.693845 -0.678999 0)
(-0.783335 -0.588491 0)
(-0.757821 -0.276838 0)
(-0.674934 -0.314958 0)
(-0.642125 -0.546044 0)
(-0.618872 -0.637954 0)
(-0.260499 2.65139 0)
(-0.676751 2.87235 0)
(-0.861155 3.15461 0)
(-0.807911 2.0831 0)
(-0.618642 1.02203 0)
(-0.434736 0.0942325 0)
(-0.319324 -0.227559 0)
(-0.254635 -0.436065 0)
(-0.222606 -0.41997 0)
(-0.221017 -0.415631 0)
(-0.244654 -0.333183 0)
(-0.277484 -0.350694 0)
(-0.293087 -0.348604 0)
(-0.283554 -0.370354 0)
(-0.256564 -0.356622 0)
(-0.244214 -0.402101 0)
(-0.304602 -0.472895 0)
(-0.437347 -0.542611 0)
(-0.55665 -0.514968 0)
(-0.575351 -0.357184 0)
(-0.521578 -0.37196 0)
(-0.504582 -0.539085 0)
(-0.543587 -0.629072 0)
(-0.252696 3.16727 0)
(-0.632986 3.1572 0)
(-0.769416 3.19231 0)
(-0.690764 1.91284 0)
(-0.479991 0.790165 0)
(-0.280925 -0.0588725 0)
(-0.165639 -0.306352 0)
(-0.109192 -0.479032 0)
(-0.0881068 -0.430377 0)
(-0.0854529 -0.409463 0)
(-0.0928656 -0.308105 0)
(-0.107004 -0.328518 0)
(-0.138621 -0.323264 0)
(-0.187754 -0.355835 0)
(-0.2364 -0.349318 0)
(-0.280263 -0.37768 0)
(-0.321532 -0.395089 0)
(-0.369996 -0.43823 0)
(-0.431395 -0.437674 0)
(-0.475153 -0.371668 0)
(-0.500224 -0.386303 0)
(-0.553891 -0.48786 0)
(-0.652168 -0.54228 0)
(-0.197135 3.61945 0)
(-0.509875 3.40169 0)
(-0.611482 3.18713 0)
(-0.503923 1.73086 0)
(-0.290406 0.545651 0)
(-0.102884 -0.202966 0)
(-0.00519705 -0.376343 0)
(0.0260847 -0.497223 0)
(0.0131728 -0.420391 0)
(-0.0191314 -0.389625 0)
(-0.0533398 -0.286078 0)
(-0.0867179 -0.302747 0)
(-0.121754 -0.281995 0)
(-0.15443 -0.31483 0)
(-0.187062 -0.308581 0)
(-0.227558 -0.333581 0)
(-0.283449 -0.341488 0)
(-0.354098 -0.372066 0)
(-0.423718 -0.372109 0)
(-0.467359 -0.349355 0)
(-0.494405 -0.356207 0)
(-0.546041 -0.412085 0)
(-0.633205 -0.431628 0)
(-0.172802 3.99133 0)
(-0.418476 3.59117 0)
(-0.451044 3.13255 0)
(-0.307184 1.53272 0)
(-0.097043 0.317927 0)
(0.0632349 -0.324859 0)
(0.130962 -0.420728 0)
(0.128821 -0.482126 0)
(0.0840232 -0.377466 0)
(0.0300837 -0.345839 0)
(-0.012875 -0.252272 0)
(-0.0487528 -0.266909 0)
(-0.0898678 -0.241253 0)
(-0.141611 -0.270679 0)
(-0.201117 -0.26008 0)
(-0.257695 -0.284468 0)
(-0.306165 -0.285668 0)
(-0.352919 -0.309845 0)
(-0.40495 -0.312022 0)
(-0.460342 -0.309872 0)
(-0.520898 -0.307613 0)
(-0.594399 -0.334871 0)
(-0.684149 -0.330988 0)
(-0.15195 4.31778 0)
(-0.326889 3.68754 0)
(-0.280656 3.02245 0)
(-0.0787863 1.29529 0)
(0.139858 0.124341 0)
(0.252536 -0.405658 0)
(0.26722 -0.422773 0)
(0.219498 -0.429954 0)
(0.145952 -0.310667 0)
(0.0752569 -0.287339 0)
(0.0162343 -0.20824 0)
(-0.0372217 -0.221119 0)
(-0.0916576 -0.19097 0)
(-0.145157 -0.215146 0)
(-0.195754 -0.20491 0)
(-0.24623 -0.232001 0)
(-0.302052 -0.233276 0)
(-0.361578 -0.25538 0)
(-0.419835 -0.255605 0)
(-0.470224 -0.25994 0)
(-0.512765 -0.253895 0)
(-0.559314 -0.267897 0)
(-0.613934 -0.252823 0)
(-0.0670368 4.53791 0)
(-0.130029 3.70658 0)
(-0.0156097 2.84193 0)
(0.244567 1.01136 0)
(0.438598 -0.00656148 0)
(0.466107 -0.415675 0)
(0.401876 -0.362948 0)
(0.297866 -0.337248 0)
(0.193409 -0.22443 0)
(0.105003 -0.213631 0)
(0.0321597 -0.149377 0)
(-0.0311602 -0.162578 0)
(-0.0910496 -0.134569 0)
(-0.149787 -0.158703 0)
(-0.208217 -0.151736 0)
(-0.264303 -0.178037 0)
(-0.31685 -0.178285 0)
(-0.367475 -0.199626 0)
(-0.41894 -0.201046 0)
(-0.469579 -0.212927 0)
(-0.517515 -0.209943 0)
(-0.562954 -0.219366 0)
(-0.605016 -0.204153 0)
(0.0447449 4.5603 0)
(0.166723 3.62488 0)
(0.408152 2.56593 0)
(0.690906 0.741592 0)
(0.785189 -0.0266097 0)
(0.687151 -0.324721 0)
(0.532722 -0.234093 0)
(0.380273 -0.208297 0)
(0.252322 -0.119748 0)
(0.146839 -0.123398 0)
(0.0564933 -0.0755545 0)
(-0.0229977 -0.0928287 0)
(-0.0952014 -0.0715188 0)
(-0.160892 -0.0966576 0)
(-0.222468 -0.0931325 0)
(-0.281378 -0.121027 0)
(-0.338228 -0.12531 0)
(-0.391434 -0.148214 0)
(-0.440426 -0.151462 0)
(-0.484741 -0.16705 0)
(-0.524333 -0.167822 0)
(-0.561423 -0.178514 0)
(-0.595507 -0.168449 0)
(0.155207 4.35929 0)
(0.495782 3.36091 0)
(0.88797 2.19297 0)
(1.11778 0.599307 0)
(1.04719 0.0918725 0)
(0.830023 -0.126327 0)
(0.603901 -0.0499362 0)
(0.420321 -0.0546587 0)
(0.276295 2.40051e-05 0)
(0.159435 -0.0196536 0)
(0.0612123 0.0102669 0)
(-0.023416 -0.0136604 0)
(-0.0988265 -0.00228827 0)
(-0.167343 -0.030966 0)
(-0.230581 -0.0333445 0)
(-0.288862 -0.062998 0)
(-0.343394 -0.0713622 0)
(-0.394298 -0.0974953 0)
(-0.441335 -0.105637 0)
(-0.483982 -0.125446 0)
(-0.522703 -0.130691 0)
(-0.558114 -0.142752 0)
(-0.589643 -0.138243 0)
(0.302765 3.89892 0)
(0.848456 2.93038 0)
(1.24847 1.82715 0)
(1.32741 0.654766 0)
(1.12062 0.315263 0)
(0.856009 0.134614 0)
(0.618092 0.155603 0)
(0.433237 0.110175 0)
(0.284834 0.12916 0)
(0.161731 0.0924385 0)
(0.0563531 0.10285 0)
(-0.034875 0.0705428 0)
(-0.115701 0.0705722 0)
(-0.187977 0.0377131 0)
(-0.254327 0.0282537 0)
(-0.315483 -0.00452397 0)
(-0.371499 -0.0187004 0)
(-0.421486 -0.0487277 0)
(-0.466047 -0.0623162 0)
(-0.506329 -0.0853938 0)
(-0.543608 -0.0943371 0)
(-0.579225 -0.107697 0)
(-0.612128 -0.10852 0)
(0.398442 3.19402 0)
(1.0014 2.48057 0)
(1.27188 1.60295 0)
(1.23052 0.841216 0)
(1.00325 0.565159 0)
(0.766306 0.388923 0)
(0.560965 0.346882 0)
(0.395777 0.270778 0)
(0.257429 0.256817 0)
(0.140604 0.205973 0)
(0.0386903 0.1977 0)
(-0.051164 0.157731 0)
(-0.13229 0.146191 0)
(-0.205753 0.108603 0)
(-0.272993 0.0916622 0)
(-0.334353 0.0552335 0)
(-0.390708 0.0345091 0)
(-0.442809 0.000693933 0)
(-0.492123 -0.0173609 0)
(-0.540012 -0.0417084 0)
(-0.588713 -0.0515843 0)
(-0.637396 -0.0657003 0)
(-0.681353 -0.0732447 0)
(0.321501 2.47032 0)
(0.802937 2.11422 0)
(0.996109 1.50326 0)
(0.955227 1.02362 0)
(0.79861 0.768672 0)
(0.629681 0.593423 0)
(0.471769 0.507545 0)
(0.333 0.415669 0)
(0.208951 0.375703 0)
(0.0991817 0.314873 0)
(0.000455144 0.290496 0)
(-0.0879495 0.244133 0)
(-0.168094 0.221911 0)
(-0.240704 0.179727 0)
(-0.307392 0.155175 0)
(-0.368802 0.115141 0)
(-0.426385 0.0891442 0)
(-0.48165 0.0539951 0)
(-0.537456 0.0350154 0)
(-0.59605 0.0129622 0)
(-0.656605 0.00358037 0)
(-0.713174 -0.0150536 0)
(-0.757925 -0.03471 0)
(0.185562 1.96064 0)
(0.494612 1.82934 0)
(0.652549 1.43524 0)
(0.65963 1.12564 0)
(0.584637 0.899482 0)
(0.478856 0.73877 0)
(0.366046 0.634343 0)
(0.256397 0.538593 0)
(0.152164 0.482261 0)
(0.0549832 0.416353 0)
(-0.0360808 0.379805 0)
(-0.120509 0.328567 0)
(-0.198977 0.296926 0)
(-0.271507 0.250617 0)
(-0.339281 0.219457 0)
(-0.403299 0.17695 0)
(-0.465939 0.148196 0)
(-0.53044 0.115343 0)
(-0.599862 0.0995562 0)
(-0.671579 0.0794205 0)
(-0.736136 0.0628968 0)
(-0.783223 0.0298372 0)
(-0.813329 -0.00434553 0)
(0.107378 1.66618 0)
(0.302076 1.61745 0)
(0.422842 1.36699 0)
(0.450499 1.15897 0)
(0.415501 0.976721 0)
(0.345089 0.838652 0)
(0.260182 0.733217 0)
(0.170042 0.640557 0)
(0.079653 0.575942 0)
(-0.00821024 0.50869 0)
(-0.092583 0.463828 0)
(-0.172423 0.409677 0)
(-0.248139 0.370812 0)
(-0.319791 0.321673 0)
(-0.388784 0.28589 0)
(-0.456815 0.243263 0)
(-0.527571 0.215982 0)
(-0.60348 0.188707 0)
(-0.681101 0.174011 0)
(-0.749251 0.145572 0)
(-0.795427 0.108066 0)
(-0.821123 0.0578389 0)
(-0.841794 0.0187022 0)
(0.0637022 1.49421 0)
(0.187117 1.46965 0)
(0.272416 1.30765 0)
(0.297733 1.16507 0)
(0.278947 1.0247 0)
(0.23093 0.909724 0)
(0.166944 0.811821 0)
(0.0938428 0.726052 0)
(0.0164618 0.659098 0)
(-0.0623082 0.593042 0)
(-0.140469 0.542864 0)
(-0.216466 0.487296 0)
(-0.29041 0.443641 0)
(-0.362899 0.393746 0)
(-0.436027 0.356686 0)
(-0.512456 0.317687 0)
(-0.594696 0.295357 0)
(-0.678679 0.270066 0)
(-0.750854 0.243239 0)
(-0.796356 0.190598 0)
(-0.817622 0.130841 0)
(-0.833112 0.0764704 0)
(-0.852731 0.0405795 0)
(0.0379487 1.39203 0)
(0.113278 1.37205 0)
(0.16714 1.26537 0)
(0.183179 1.16578 0)
(0.168244 1.05789 0)
(0.129754 0.963501 0)
(0.0759482 0.876457 0)
(0.0120651 0.799121 0)
(-0.0574581 0.733706 0)
(-0.129965 0.670505 0)
(-0.203467 0.617862 0)
(-0.277001 0.562615 0)
(-0.350749 0.516792 0)
(-0.425569 0.468679 0)
(-0.503921 0.434028 0)
(-0.587597 0.401292 0)
(-0.673278 0.380556 0)
(-0.747603 0.344009 0)
(-0.793095 0.287586 0)
(-0.811682 0.21068 0)
(-0.823784 0.144307 0)
(-0.838422 0.0932951 0)
(-0.853125 0.0582645 0)
(0.0209609 1.33282 0)
(0.0630581 1.31323 0)
(0.0923736 1.24058 0)
(0.0980395 1.16876 0)
(0.0828565 1.08519 0)
(0.0498418 1.00808 0)
(0.0034946 0.932562 0)
(-0.052825 0.863851 0)
(-0.115669 0.802039 0)
(-0.18281 0.742553 0)
(-0.252474 0.689733 0)
(-0.32386 0.636426 0)
(-0.398071 0.591718 0)
(-0.4773 0.548611 0)
(-0.5638 0.519812 0)
(-0.654598 0.490897 0)
(-0.735048 0.457958 0)
(-0.784335 0.390872 0)
(-0.802529 0.304747 0)
(-0.811949 0.221676 0)
(-0.823232 0.156824 0)
(-0.832884 0.105202 0)
(-0.836201 0.0644797 0)
(0.00936186 1.30234 0)
(0.0275272 1.28314 0)
(0.0369135 1.23178 0)
(0.0309749 1.17784 0)
(0.0102732 1.11219 0)
(-0.0241993 1.04893 0)
(-0.0699501 0.984293 0)
(-0.124751 0.923824 0)
(-0.185992 0.866803 0)
(-0.251753 0.81139 0)
(-0.32069 0.760226 0)
(-0.393084 0.71047 0)
(-0.469786 0.669381 0)
(-0.552921 0.634164 0)
(-0.641804 0.610562 0)
(-0.724205 0.574258 0)
(-0.777296 0.508842 0)
(-0.796461 0.408802 0)
(-0.803728 0.312416 0)
(-0.810804 0.230595 0)
(-0.814777 0.163248 0)
(-0.811414 0.105107 0)
(-0.796388 0.0528107 0)
(0.00136522 1.29156 0)
(0.0027405 1.27428 0)
(-0.00241721 1.23639 0)
(-0.0173405 1.1942 0)
(-0.0423487 1.14177 0)
(-0.077628 1.08946 0)
(-0.122096 1.03446 0)
(-0.174599 0.981529 0)
(-0.233356 0.929727 0)
(-0.297282 0.878836 0)
(-0.366148 0.831307 0)
(-0.440767 0.787174 0)
(-0.522992 0.752438 0)
(-0.612338 0.724493 0)
(-0.698476 0.696174 0)
(-0.758591 0.631914 0)
(-0.782159 0.528249 0)
(-0.789147 0.41569 0)
(-0.795163 0.318884 0)
(-0.796786 0.232875 0)
(-0.789784 0.157929 0)
(-0.771354 0.0885259 0)
(-0.741607 0.0243908 0)
(-0.00458038 1.29479 0)
(-0.0161596 1.28131 0)
(-0.0341477 1.25263 0)
(-0.0596973 1.21865 0)
(-0.0930483 1.176 0)
(-0.134334 1.13221 0)
(-0.182791 1.08512 0)
(-0.237459 1.0386 0)
(-0.297379 0.991961 0)
(-0.362373 0.9462 0)
(-0.433218 0.90439 0)
(-0.510813 0.867104 0)
(-0.594926 0.83972 0)
(-0.680419 0.812968 0)
(-0.746469 0.760688 0)
(-0.775392 0.656909 0)
(-0.781339 0.532927 0)
(-0.782521 0.419229 0)
(-0.778312 0.317166 0)
(-0.765295 0.223144 0)
(-0.742496 0.137709 0)
(-0.710877 0.0584407 0)
(-0.6728 -0.0136956 0)
(-0.00997901 1.30943 0)
(-0.0316017 1.30005 0)
(-0.057685 1.2782 0)
(-0.0892079 1.25046 0)
(-0.126659 1.21536 0)
(-0.170415 1.17833 0)
(-0.220129 1.13769 0)
(-0.275398 1.09655 0)
(-0.335893 1.05506 0)
(-0.402288 1.01518 0)
(-0.475449 0.980169 0)
(-0.556664 0.950967 0)
(-0.643774 0.927979 0)
(-0.719366 0.886642 0)
(-0.759372 0.793629 0)
(-0.768037 0.661756 0)
(-0.767686 0.53371 0)
(-0.763048 0.414976 0)
(-0.749948 0.304026 0)
(-0.727711 0.200851 0)
(-0.69724 0.10646 0)
(-0.660337 0.0208138 0)
(-0.618053 -0.0568427 0)
(-0.0156976 1.33524 0)
(-0.0482094 1.32866 0)
(-0.0839936 1.31178 0)
(-0.124171 1.28895 0)
(-0.169185 1.25977 0)
(-0.219193 1.22818 0)
(-0.273874 1.19278 0)
(-0.333132 1.15659 0)
(-0.397149 1.12019 0)
(-0.466611 1.08662 0)
(-0.542464 1.05853 0)
(-0.623643 1.03586 0)
(-0.699924 1.00734 0)
(-0.74801 0.931613 0)
(-0.759977 0.800907 0)
(-0.755673 0.658866 0)
(-0.746199 0.526728 0)
(-0.728696 0.399704 0)
(-0.703286 0.280592 0)
(-0.67165 0.170135 0)
(-0.635065 0.0697742 0)
(-0.594186 -0.0206844 0)
(-0.549489 -0.102774 0)
(-0.0191365 1.37026 0)
(-0.0580132 1.36541 0)
(-0.0989879 1.3522 0)
(-0.143239 1.33341 0)
(-0.191481 1.30906 0)
(-0.244148 1.28211 0)
(-0.301354 1.25133 0)
(-0.363311 1.21989 0)
(-0.430461 1.18874 0)
(-0.503513 1.16133 0)
(-0.58305 1.14002 0)
(-0.663984 1.11733 0)
(-0.724613 1.0635 0)
(-0.74678 0.946074 0)
(-0.743983 0.795667 0)
(-0.734199 0.649948 0)
(-0.717749 0.509592 0)
(-0.693483 0.374858 0)
(-0.663172 0.249431 0)
(-0.627813 0.133956 0)
(-0.588221 0.0293812 0)
(-0.544928 -0.064898 0)
(-0.498603 -0.150054 0)
(-0.024666 1.4143 0)
(-0.0741553 1.41021 0)
(-0.12467 1.39938 0)
(-0.177422 1.38375 0)
(-0.233262 1.36335 0)
(-0.292528 1.34034 0)
(-0.355323 1.31373 0)
(-0.422052 1.28685 0)
(-0.492756 1.26036 0)
(-0.567085 1.23787 0)
(-0.64272 1.21947 0)
(-0.707065 1.18392 0)
(-0.739664 1.09063 0)
(-0.739082 0.94065 0)
(-0.723905 0.783027 0)
(-0.702462 0.631202 0)
(-0.673866 0.48306 0)
(-0.640122 0.34308 0)
(-0.602947 0.213372 0)
(-0.563028 0.0943467 0)
(-0.520838 -0.0132162 0)
(-0.477108 -0.109774 0)
(-0.431856 -0.197231 0)
(-0.026273 1.4655 0)
(-0.0790723 1.46183 0)
(-0.132959 1.45271 0)
(-0.188923 1.43971 0)
(-0.247635 1.42255 0)
(-0.309617 1.40303 0)
(-0.375344 1.38025 0)
(-0.445353 1.3578 0)
(-0.519637 1.33516 0)
(-0.596757 1.31531 0)
(-0.670277 1.29197 0)
(-0.719606 1.2257 0)
(-0.730436 1.09251 0)
(-0.717781 0.925461 0)
(-0.697334 0.762409 0)
(-0.670304 0.603098 0)
(-0.637781 0.44973 0)
(-0.601967 0.306492 0)
(-0.563462 0.173887 0)
(-0.522455 0.0524865 0)
(-0.47888 -0.0575667 0)
(-0.433654 -0.154841 0)
(-0.388261 -0.243281 0)
(-0.0324977 1.52459 0)
(-0.0974487 1.52112 0)
(-0.162358 1.51284 0)
(-0.227665 1.50149 0)
(-0.294379 1.48686 0)
(-0.3632 1.47021 0)
(-0.434364 1.45067 0)
(-0.507987 1.43176 0)
(-0.582559 1.41084 0)
(-0.654071 1.38905 0)
(-0.709351 1.34772 0)
(-0.730578 1.24088 0)
(-0.719368 1.07695 0)
(-0.693488 0.902295 0)
(-0.661707 0.733079 0)
(-0.624831 0.568193 0)
(-0.585064 0.411971 0)
(-0.543621 0.266592 0)
(-0.500669 0.131908 0)
(-0.457258 0.00960902 0)
(-0.414432 -0.10154 0)
(-0.371635 -0.199348 0)
(-0.328868 -0.287393 0)
(-0.0326342 1.59006 0)
(-0.0980389 1.58669 0)
(-0.164084 1.57892 0)
(-0.231409 1.56874 0)
(-0.300564 1.5562 0)
(-0.371887 1.54177 0)
(-0.445724 1.52489 0)
(-0.52187 1.50811 0)
(-0.598057 1.48605 0)
(-0.66717 1.45521 0)
(-0.710071 1.38026 0)
(-0.714441 1.23408 0)
(-0.694294 1.05224 0)
(-0.665262 0.871813 0)
(-0.63072 0.696895 0)
(-0.592282 0.528673 0)
(-0.551953 0.370981 0)
(-0.510652 0.224408 0)
(-0.468385 0.0884307 0)
(-0.424776 -0.0343867 0)
(-0.381307 -0.14429 0)
(-0.339386 -0.241757 0)
(-0.298276 -0.329298 0)
(-0.0395167 1.66259 0)
(-0.118589 1.6594 0)
(-0.197719 1.65215 0)
(-0.276585 1.64247 0)
(-0.355156 1.63097 0)
(-0.433857 1.6178 0)
(-0.512702 1.60234 0)
(-0.589559 1.58447 0)
(-0.659674 1.55676 0)
(-0.710774 1.50535 0)
(-0.726179 1.38874 0)
(-0.707208 1.21093 0)
(-0.672137 1.01989 0)
(-0.632117 0.834753 0)
(-0.588861 0.655754 0)
(-0.543898 0.485981 0)
(-0.498249 0.32725 0)
(-0.452328 0.180465 0)
(-0.407828 0.0451543 0)
(-0.366295 -0.0766961 0)
(-0.327056 -0.18512 0)
(-0.289214 -0.281107 0)
(-0.252247 -0.368433 0)
(-0.0389046 1.74143 0)
(-0.116792 1.73835 0)
(-0.194847 1.73122 0)
(-0.273527 1.72179 0)
(-0.353375 1.71092 0)
(-0.4338 1.69783 0)
(-0.513528 1.68172 0)
(-0.59064 1.65986 0)
(-0.659637 1.62122 0)
(-0.702155 1.53501 0)
(-0.704566 1.37699 0)
(-0.68058 1.1795 0)
(-0.647003 0.982315 0)
(-0.608046 0.792939 0)
(-0.565015 0.610835 0)
(-0.519854 0.440308 0)
(-0.47421 0.281156 0)