/*--------------------------------*- C++ -*----------------------------------*\
| =========                 |                                                 |
| \\      /  F ield         | OpenFOAM: The Open Source CFD Toolbox           |
|  \\    /   O peration     | Version:  2012                                  |
|   \\  /    A nd           | Website:  www.openfoam.com                      |
|    \\/     M anipulation  |                                                 |
\*---------------------------------------------------------------------------*/
FoamFile
{
    version     2.0;
    format      ascii;
    class       volScalarField;
    location    "0.7";
    object      alpha.water;
}
// * * * * * * * * * * * * * * * * * * * * * * * * * * * * * * * * * * * * * //

dimensions      [0 0 0 0 0 0 0];


internalField   nonuniform List<scalar> 
2268
(
1
1
1
1
1
1
1
1
1
1
1
1
1
1
1
0.999999
0.997167
0.957608
0.943859
0.986477
0.998022
0.998027
0.997951
1
1
1
1
1
1
1
1
1
1
1
1
1
1
1
1
0.999942
0.98154
0.943715
0.938181
0.977405
0.976831
0.994941
1
1
1
1
1
1
1
1
1
1
1
1
1
1
1
1
1
0.999934
0.979099
0.937464
0.937462
0.937465
0.99304
1
1
1
1
1
1
1
1
1
1
1
1
1
1
1
1
1
1
0.999995
0.985832
0.938653
0.963767
0.997937
1
1
1
1
1
1
1
1
1
1
1
1
1
1
1
1
1
1
1
0.999999
0.981881
1
0.999996
1
1
1
1
1
1
1
1
1
1
1
1
1
1
1
1
1
1
1
1
1
1
0.999993
1
1
1
1
1
1
0.999997
1
1
1
1
1
1
1
1
1
1
1
1
1
1
1
0.999961
0.966382
0.927534
0.896171
0.865765
0.855025
0.865229
0.9153
0.989827
1
1
1
1
1
1
1
1
1
1
1
1
1
1
0.999961
0.922729
0.999923
0.999941
0.99996
0.996752
0.826175
0.647181
0.600207
0.706821
0.888431
0.888437
0.888427
0.888359
0.888055
0.887051
0.885699
0.884937
0.884137
0.807327
0.95248
0.99995
0.99996
0.999965
0.999965
0.999965
0.984405
0.64679
0.877531
0.888433
0.888427
0.82436
0.783407
0.815855
0.845206
0.871994
0.891189
0.897856
0.897851
0.999915
0.999947
0.999933
0.999836
0.999965
0.999965
0.955753
0.921197
0.914363
0.764286
0.251732
0.119453
0.108249
0.147637
0.201517
0.349987
0.604431
0.897788
0.897903
0.981726
0.970235
0.967314
0.998475
0.999963
0.999965
0.868713
0.914299
0.744618
0.112213
0.00267388
0.000240704
0.000152263
0.000385618
0.00138299
0.00578898
0.0571034
0.619406
0.897785
0.572846
0.597395
0.902915
0.999728
0.99995
0.999963
0.874429
0.878226
0.559614
0.00283057
0.000204904
8.86703e-05
0.000100767
0.000152771
0.000382714
0.00131845
0.00576445
0.201651
0.896577
0.516069
0.570142
0.923622
0.999068
0.999883
0.99995
0.940486
0.813736
0.187594
0.000522963
8.73455e-05
8.37152e-05
8.89785e-05
0.000100473
0.000167081
0.000403314
0.0012812
0.100186
0.890284
0.51765
0.834609
0.979013
0.994343
0.967405
0.997555
0.997709
0.758301
0.00180499
0.000139372
7.7776e-05
8.37156e-05
8.3708e-05
0.000128689
0.000377658
0.000930898
0.00125271
0.0535893
0.850907
0.878056
0.987744
0.985787
0.852048
0.642238
0.987932
0.985001
0.581117
0.000572124
8.52432e-05
6.93574e-05
7.79912e-05
9.40921e-05
0.00026714
0.00140673
0.00126693
0.00171017
0.0275968
0.479319
0.256288
0.251022
0.25922
0.280464
0.335606
0.450467
0.604899
0.765173
0.895325
0.977402
1
1
1
1
1
1
1
1
1
1
1
1
0.999978
9.80139e-05
0.0110289
0.0301778
0.0532556
0.0785047
0.09847
0.122174
0.180625
0.293541
0.449481
0.621831
0.765749
0.855533
0.913769
0.982871
0.997943
0.999959
0.999994
0.999991
0.999991
0.99999
0.999987
0.999967
1.74462e-05
4.85323e-07
6.33982e-08
1.72138e-07
7.45297e-07
5.92674e-05
2.19435e-06
-2.76754e-08
4.69025e-07
0.004676
0.0469503
0.115425
0.195416
0.268172
0.357273
0.495789
0.599015
0.628648
0.673994
0.79265
0.894841
0.944784
0.971739
2.92198e-06
6.33718e-08
3.82843e-08
1.51466e-08
3.63618e-08
7.32974e-08
3.98356e-08
6.04212e-09
2.45093e-08
3.32367e-07
3.0383e-06
1.52135e-05
6.08559e-05
0.00021054
0.000670381
0.00207014
0.0233344
0.0864507
0.176587
0.365349
0.581463
0.663283
0.351941
3.86188e-07
5.21151e-08
5.22679e-08
5.42784e-09
2.06632e-09
2.96027e-09
9.70079e-10
4.42583e-09
6.47494e-09
2.93066e-08
3.32352e-07
2.85248e-06
2.01711e-05
0.000109919
0.000502691
0.00216455
0.0244259
0.178624
0.222521
0.220299
0.0561505
0.0127646
0.00851496
4.94889e-08
3.84439e-08
5.05351e-08
4.68844e-09
3.43567e-10
1.97944e-10
1.62258e-10
7.31868e-09
5.71323e-08
5.97721e-08
9.7859e-08
4.27154e-07
3.68498e-06
2.5939e-05
9.34356e-05
0.00119713
0.0245279
0.0384572
0.0434177
0.0314597
0.0484464
0.0659624
0.0942301
5.39403e-09
4.78008e-09
1.96534e-08
3.65276e-09
1.39294e-10
3.26891e-11
7.25107e-11
6.0903e-09
1.15648e-07
1.47683e-07
1.45866e-07
1.9637e-07
4.06029e-06
1.01005e-05
9.52497e-05
0.000267875
4.61043e-05
0.00023215
0.00116643
0.029254
0.231476
0.2688
0.295258
6.17425e-10
3.19109e-10
3.1912e-10
7.65649e-10
9.57025e-11
1.80184e-11
2.72001e-11
2.59429e-09
1.33946e-07
2.52152e-07
2.23434e-07
6.62602e-07
1.38842e-06
5.95251e-07
2.91488e-06
3.40661e-06
1.02443e-05
4.61017e-05
0.000275546
0.00123776
0.0262578
0.182358
0.296872
9.24059e-11
3.92656e-11
1.65564e-11
5.06711e-11
2.00864e-11
1.56242e-11
1.64238e-11
1.40387e-09
1.00588e-07
1.93847e-07
1.95919e-07
2.94922e-07
1.92062e-07
6.43169e-08
7.92954e-08
3.67672e-07
1.68182e-06
9.24252e-06
0.000133678
0.00042691
0.00123791
0.00486331
0.0857525
1.83919e-11
1.07547e-11
6.61515e-12
4.02411e-12
6.10777e-12
1.45778e-11
1.89667e-11
9.7911e-10
1.87138e-08
3.08936e-08
3.07796e-08
1.18709e-07
2.13123e-07
3.77284e-08
1.90888e-08
9.92196e-08
3.20097e-07
2.20989e-06
1.82988e-05
0.000130419
0.000761042
0.00376714
0.0728911
4.03366e-12
1.69839e-12
1.01458e-12
6.20766e-13
3.80563e-12
1.24019e-11
2.48187e-11
2.42083e-10
1.37508e-10
2.55271e-10
9.7959e-10
6.44078e-08
1.18657e-07
3.44234e-08
6.50304e-09
1.90886e-08
1.34448e-07
1.64506e-06
1.72143e-05
0.000149426
0.00103046
0.00561646
0.212647
5.38932e-13
1.49207e-13
8.87208e-14
1.67295e-13
2.19828e-12
8.10874e-12
1.67135e-11
4.81157e-11
5.54342e-11
9.67575e-11
7.58961e-10
5.34645e-09
3.40974e-09
9.26928e-09
2.43908e-09
6.12101e-09
6.27664e-08
8.46103e-07
9.32055e-06
8.27359e-05
0.000572486
0.00260525
0.0371214
5.76852e-14
1.21519e-14
8.23133e-15
5.54815e-14
9.03246e-13
3.47077e-12
7.88622e-12
1.95046e-11
4.81726e-11
8.23061e-11
2.21957e-10
1.6517e-10
2.00662e-10
2.40621e-10
8.43373e-10
1.87804e-09
2.12572e-08
2.87043e-07
3.18005e-06
2.91452e-05
0.000943359
0.00416355
0.00265453
6.49934e-15
1.04696e-15
8.45205e-16
1.62645e-14
2.44468e-13
9.46244e-13
2.60871e-12
9.4755e-12
3.55137e-11
6.66473e-11
9.78819e-11
1.1624e-10
1.316e-10
1.38082e-10
2.24738e-10
5.62094e-10
6.95218e-09
1.19369e-07
2.23012e-05
7.12668e-05
0.00140179
0.00451793
0.00252201
7.4517e-16
9.15996e-17
9.51309e-17
3.64766e-15
4.8624e-14
1.93484e-13
6.49417e-13
3.83422e-12
2.18353e-11
5.26931e-11
7.11553e-11
8.53678e-11
9.27404e-11
9.62243e-11
5.598e-11
1.45525e-10
2.30326e-09
6.64645e-08
8.85705e-05
0.000293842
0.00138669
0.00451505
0.00371452
8.53442e-17
7.97813e-18
1.15728e-17
6.3078e-16
8.31383e-15
3.66364e-14
1.52335e-13
1.15347e-12
9.80043e-12
3.45202e-11
5.09394e-11
5.50753e-11
5.10518e-11
5.08351e-11
4.01573e-11
1.19823e-10
5.08581e-10
1.72492e-06
9.99747e-05
0.000276952
0.000688618
0.00412333
0.004399
9.70235e-18
7.02968e-19
1.45562e-18
9.18261e-17
1.28918e-15
6.85107e-15
3.98674e-14
2.89803e-13
2.75038e-12
1.49901e-11
2.81781e-11
2.94558e-11
2.08672e-11
1.81562e-11
2.33695e-11
8.15942e-11
1.24214e-10
1.40467e-06
2.85726e-05
3.87313e-05
9.81417e-05
0.000758045
0.00400895
1.09125e-18
6.31776e-20
1.80561e-19
1.20365e-17
1.79998e-16
1.22493e-15
1.1174e-14
7.47755e-14
5.18503e-13
3.66663e-12
9.64611e-12
1.11279e-11
6.58237e-12
4.45084e-12
8.69992e-12
4.39025e-11
3.85102e-11
2.25985e-07
2.03628e-07
1.2764e-06
5.87315e-06
2.3251e-05
0.000256655
1.20733e-19
5.72911e-21
2.15704e-20
1.45846e-18
2.2711e-17
2.04219e-16
2.9431e-15
2.03086e-14
9.2959e-14
5.54353e-13
1.84265e-12
2.56429e-12
1.59974e-12
8.51647e-13
1.98105e-12
1.72591e-11
7.55201e-12
-8.2005e-11
2.43511e-08
1.81221e-07
8.80221e-07
3.78611e-06
9.18889e-06
1.27266e-20
4.91859e-22
2.45724e-21
1.65778e-19
2.64357e-18
3.17526e-17
6.56562e-16
5.13868e-15
1.97847e-14
7.72925e-14
2.38816e-13
3.82616e-13
2.96476e-13
1.47681e-13
2.95828e-13
4.536e-12
1.63704e-12
-7.73351e-12
2.9716e-09
2.13406e-08
1.06024e-07
5.01742e-07
1.12892e-06
1.04774e-21
2.13793e-23
2.61931e-22
1.78839e-20
2.89848e-19
4.61677e-18
1.19408e-16
1.08568e-15
4.45205e-15
1.30121e-14
3.12007e-14
4.99105e-14
4.52246e-14
2.40346e-14
3.64205e-14
6.6141e-13
8.10826e-13
-5.57568e-13
3.53811e-10
2.41313e-09
1.20881e-08
5.19442e-08
3.5487e-08
2.78337e-23
4.85644e-40
2.36693e-23
1.84271e-21
3.03097e-20
6.18449e-19
1.80018e-17
1.84617e-16
8.85725e-16
2.40806e-15
4.75174e-15
7.0926e-15
6.60014e-15
3.72637e-15
4.46609e-15
5.9458e-14
4.24405e-13
1.53214e-12
5.03212e-11
2.43779e-10
1.11607e-09
4.47737e-09
8.6311e-09
-1.37309e-22
-1.84022e-23
7.96066e-25
1.8241e-22
3.03874e-21
7.44987e-20
2.32134e-18
2.59312e-17
1.4189e-16
4.08078e-16
7.48079e-16
1.0608e-15
9.80391e-16
5.70139e-16
5.61156e-16
5.04229e-15
8.93124e-14
1.27066e-12
7.6573e-12
3.27009e-11
1.04174e-10
3.35811e-10
5.85563e-10
-2.02517e-22
-1.37841e-23
-3.00664e-41
1.74434e-23
2.92645e-22
8.01714e-21
2.62054e-19
3.13368e-18
1.83479e-17
5.68796e-17
1.05252e-16
1.4798e-16
1.38668e-16
8.496e-17
6.88132e-17
4.37327e-16
6.41201e-15
2.73518e-13
1.15467e-12
3.39827e-12
1.03672e-11
3.41352e-11
5.86882e-11
-1.41977e-22
-7.47005e-24
-1.15756e-25
1.56398e-24
2.71261e-23
7.88186e-22
2.65631e-20
3.34828e-19
2.01993e-18
6.50198e-18
1.24313e-17
1.78376e-17
1.72022e-17
1.15076e-17
7.79917e-18
3.63247e-17
4.01925e-16
1.06113e-14
1.15655e-13
4.886e-13
8.48455e-13
2.24054e-12
3.80449e-12
-8.12924e-23
-3.56458e-24
-1.69314e-25
1.19377e-25
2.42972e-24
7.30453e-23
2.4966e-21
3.24271e-20
1.99273e-19
6.4886e-19
1.26759e-18
1.8634e-18
1.84073e-18
1.34244e-18
8.0561e-19
2.84942e-18
2.8698e-17
5.55912e-16
7.19053e-15
3.82231e-14
8.60167e-14
1.71527e-13
5.84703e-13
-4.14555e-23
-1.58454e-24
-1.08543e-25
3.40142e-27
2.11922e-25
6.4967e-24
2.23104e-22
2.93059e-21
1.82326e-20
5.98826e-20
1.18181e-19
1.7634e-19
1.76179e-19
1.35771e-19
7.71918e-20
2.13022e-19
1.96933e-18
3.41523e-17
4.03532e-16
2.09918e-15
5.92508e-15
1.50808e-14
6.91881e-14
-1.93152e-23
-6.69995e-25
-5.26402e-26
0
1.79842e-26
5.56846e-25
1.91521e-23
2.5242e-22
1.58012e-21
5.2341e-21
1.0388e-20
1.55935e-20
1.56183e-20
1.23783e-20
6.86391e-21
1.52677e-20
1.26707e-19
2.0018e-18
2.2528e-17
1.15729e-16
4.79609e-16
2.7946e-15
1.85362e-14
-8.30296e-24
-2.71155e-25
-2.15484e-26
-3.83486e-29
1.37432e-27
4.60177e-26
1.58229e-24
2.08796e-23
1.30936e-22
4.35552e-22
8.65948e-22
1.29947e-21
1.29856e-21
1.04216e-21
5.66022e-22
1.05129e-21
7.75448e-21
1.12273e-19
1.20002e-18
6.91161e-18
8.41595e-17
9.85762e-16
7.40634e-15
-3.30824e-24
-1.05005e-25
-7.81096e-27
-2.47709e-28
7.74985e-29
3.67948e-27
1.25936e-25
1.66086e-24
1.04014e-23
3.45723e-23
6.85454e-23
1.02247e-22
1.0162e-22
8.16926e-23
4.34347e-23
6.95285e-23
4.5434e-22
6.11296e-21
6.00063e-20
5.73349e-19
2.01554e-17
3.26046e-16
2.65381e-15
-1.22495e-24
-3.87612e-26
-2.58154e-27
-1.31304e-28
9.59902e-31
2.87139e-28
9.67796e-27
1.27251e-25
7.93538e-25
2.62481e-24
5.16799e-24
7.62174e-24
7.51084e-24
5.99457e-24
3.11442e-24
4.41208e-24
2.55646e-23
3.23972e-22
2.90689e-21
5.85341e-20
3.89946e-18
8.0832e-17
7.24643e-16
-4.22168e-25
-1.35575e-26
-7.93908e-28
-4.97684e-29
0
2.18657e-29
7.2023e-28
9.4196e-27
5.83209e-26
1.91281e-25
3.72555e-25
5.40459e-25
5.26487e-25
4.13987e-25
2.09515e-25
2.68548e-25
1.38736e-24
1.67587e-23
1.46859e-22
4.95028e-21
4.89804e-19
1.37941e-17
1.44269e-16
-1.35564e-25
-4.46647e-27
-2.30281e-28
-1.58173e-29
-4.3142e-32
1.53739e-30
5.20786e-29
6.7621e-28
4.1453e-27
1.34322e-26
2.57786e-26
3.66003e-26
3.51333e-26
2.70275e-26
1.32699e-26
1.5694e-26
7.32699e-26
8.57406e-25
7.91266e-24
2.99493e-22
3.8138e-20
1.63475e-18
2.12197e-17
-4.0589e-26
-1.38045e-27
-6.34734e-29
-4.44594e-30
-1.12191e-31
1.00225e-31
3.67526e-30
4.7269e-29
2.86162e-28
9.12715e-28
1.71885e-27
2.37635e-27
2.23969e-27
1.67397e-27
7.9356e-28
8.82103e-28
3.82336e-27
4.47843e-26
4.67316e-25
1.56531e-23
2.22454e-21
1.53625e-19
2.5124e-18
-1.13376e-26
-3.99362e-28
-1.66698e-29
-1.13407e-30
-4.36813e-32
4.64161e-33
2.54531e-31
3.23093e-30
1.92698e-29
6.02707e-29
1.10899e-28
1.48547e-28
1.36885e-28
9.86961e-29
4.49422e-29
4.7764e-29
2.01206e-28
2.52654e-27
3.41864e-26
1.08597e-24
1.56119e-22
1.52861e-20
2.87759e-19
-2.95607e-27
-1.07928e-28
-4.16601e-30
-2.66457e-31
-1.22875e-32
4.36847e-35
1.74133e-32
2.16776e-31
1.27093e-30
3.8842e-30
6.95337e-30
8.98244e-30
8.05428e-30
5.56313e-30
2.42084e-30
2.49605e-30
1.09123e-29
1.63559e-28
3.27905e-27
1.18683e-25
1.76528e-23
1.89336e-21
3.49622e-20
-7.19962e-28
-2.71929e-29
-9.86537e-31
-5.81907e-32
-2.90226e-33
0
1.17847e-33
1.43223e-32
8.23863e-32
2.45247e-31
4.25493e-31
5.28125e-31
4.58477e-31
3.01471e-31
1.24804e-31
1.26201e-31
6.14023e-31
1.19018e-29
3.50815e-28
1.58177e-26
2.42948e-24
2.39975e-22
3.8996e-21
-1.64013e-28
-6.38489e-30
-2.20224e-31
-1.18738e-32
-6.05987e-34
0
7.81015e-35
9.34164e-34
5.2642e-33
1.52235e-32
2.55157e-32
3.03519e-32
2.53843e-32
1.58124e-32
6.20669e-33
6.18762e-33
3.47305e-32
8.49253e-31
3.31e-29
1.85321e-27
2.73184e-25
2.27537e-23
3.17512e-22
-3.50219e-29
-1.39807e-30
-4.61406e-32
-2.27021e-33
-1.14705e-34
-3.04676e-37
4.98893e-36
6.02794e-35
3.32373e-34
9.31935e-34
1.50533e-33
1.71367e-33
1.37445e-33
8.08323e-34
3.00113e-34
2.95026e-34
1.87563e-33
5.23142e-32
2.3444e-30
1.48347e-28
1.8732e-26
1.27517e-24
1.603e-23
-7.03128e-30
-2.85544e-31
-9.03674e-33
-4.07234e-34
-1.99782e-35
-1.60627e-37
3.18607e-37
3.85462e-36
2.07829e-35
5.64596e-35
8.78353e-35
9.56721e-35
7.32496e-35
4.05966e-35
1.38704e-35
1.33611e-35
9.53614e-35
2.73278e-33
1.21228e-31
7.40509e-30
7.3362e-28
4.13022e-26
4.90638e-25
-1.3332e-30
-5.46917e-32
-1.65699e-33
-6.87252e-35
-3.23848e-36
-3.54259e-38
2.0042e-38
2.45071e-37
1.26334e-36
3.10885e-36
4.08986e-36
3.97314e-36
3.11901e-36
1.44726e-36
5.18165e-37
4.67634e-37
4.32973e-36
1.31374e-34
5.24651e-33
2.74318e-31
2.1824e-29
1.03515e-27
1.08135e-26
-2.39941e-31
-9.70501e-33
-2.78006e-34
-1.07692e-35
-4.85707e-37
-5.80014e-39
6.17204e-40
7.79664e-39
6.1652e-38
3.16769e-37
8.83723e-37
1.14887e-36
6.63477e-37
4.72243e-37
4.5693e-37
4.5693e-37
4.5693e-37
3.17294e-36
1.1472e-34
5.14458e-33
3.47871e-31
1.38769e-29
1.16207e-28
0.999967
0.999945
0.999908
0.999842
0.999945
0.999908
0.999842
0.99969
0.911316
0.858236
0.786557
0.637988
0.00176732
0.00127874
0.00111199
0.00104767
0.00348132
0.00173233
0.00123727
0.00108357
0.0658361
0.00576879
0.00160104
0.0012358
0.285402
0.0955654
0.00272778
0.00159277
0.392445
0.331126
0.056276
0.00633011
0.439265
0.542255
0.213306
0.0229964
0.454666
0.561082
0.563112
0.539841
0.561082
0.563112
0.563112
0.563112
0.397114
0.542826
0.562997
0.555533
2.68485e-06
3.46545e-06
3.8256e-05
0.0579643
1.07242e-06
1.09167e-06
1.25004e-06
1.60622e-06
1.07242e-06
1.05303e-06
1.09167e-06
1.24718e-06
0.00108158
1.08939e-06
1.05536e-06
1.20821e-06
0.0035584
0.00185451
1.13882e-06
1.45329e-06
0.0012585
0.00224747
0.00205427
0.00160382
1.4353e-05
0.000119005
0.00017325
0.000633634
1.29574e-06
1.75288e-06
1.85466e-06
2.08414e-06
7.15031e-08
1.01055e-07
1.41949e-07
1.38e-07
-6.40138e-10
5.77167e-09
6.58572e-09
7.05495e-09
5.84315e-10
1.897e-10
2.70322e-10
2.34039e-10
5.98921e-11
5.55974e-11
4.20957e-11
1.51519e-11
4.03293e-12
3.89273e-12
4.53709e-12
4.84552e-12
1.16074e-12
1.49776e-12
1.81237e-12
2.5038e-12
1.69954e-13
2.6107e-13
4.33796e-13
8.66667e-13
4.41482e-14
7.22013e-14
1.44414e-13
3.65675e-13
1.75387e-14
2.82605e-14
5.50032e-14
1.5056e-13
6.33757e-15
1.01022e-14
1.80569e-14
4.5033e-14
1.76672e-15
2.88148e-15
4.61761e-15
8.83927e-15
3.63028e-16
6.28116e-16
9.89271e-16
1.43077e-15
5.52758e-17
9.87804e-17
1.78014e-16
2.47701e-16
6.73575e-18
1.17376e-17
2.64978e-17
4.41267e-17
7.72409e-19
1.29186e-18
3.81911e-18
7.50638e-18
8.98787e-20
1.51107e-19
6.17745e-19
1.2841e-18
9.38073e-21
1.80668e-20
1.22933e-19
2.36813e-19
7.3406e-22
1.9922e-21
1.69031e-20
3.6017e-20
3.75791e-23
1.5796e-22
1.31501e-21
6.49207e-21
1.20048e-24
6.97972e-24
7.73547e-23
1.62794e-21
2.58118e-26
1.81838e-25
2.9088e-24
1.67108e-22
4.24662e-28
2.09701e-27
3.6339e-26
2.54622e-24
0.999705
0.99901
0.881501
0.279846
0.222633
0.495756
0.956756
0.568132
0.0114023
6.95296e-05
6.68852e-05
6.95953e-05
9.81555e-05
0.000815807
0.00496244
0.00294181
0.0020943
0.0105995
0.300372
0.981066
0.771923
0.138504
0.0297249
0.274541
0.491437
0.896851
0.753692
0.0235508
6.68815e-05
6.68852e-05
6.65716e-05
0.000155149
0.00426498
0.0727728
0.0479468
0.00882942
0.0106637
0.286625
0.303486
0.00874365
0.00143591
0.00175414
0.117997
0.537934
0.838625
0.836674
0.0863908
8.15154e-05
6.68648e-05
8.04287e-05
0.000824959
0.197119
0.620293
0.556509
0.0989895
0.00792634
0.480062
0.00102543
0.00102066
0.000995714
0.00111899
0.00100281
0.0536825
0.527647
0.835588
0.571858
0.00028975
8.17557e-05
0.000286069
0.180971
0.749022
0.829135
0.826332
0.16815
0.00466233
0.523598
0.00102074
0.000991185
0.000963787
0.000979825
0.000967304
0.00100284
0.108303
0.835295
0.835295
0.22054
0.0197919
0.0165674
0.722932
0.829135
0.829135
0.829135
0.102982
0.00388705
0.537432
0.00105301
0.000963445
0.000960805
0.000955439
0.000961916
0.000967304
0.00172429
0.594928
0.818134
0.661893
0.0367062
0.375446
0.826031
0.827918
0.829135
0.770158
0.0351591
0.00388705
0.605912
0.00128438
0.00105107
0.00105568
0.000962173
0.000958376
0.000962633
0.0158985
0.525476
0.80068
0.309497
0.0470276
0.695707
0.812044
0.826031
0.826188
0.504045
0.0764019
0.130462
0.712165
0.00186909
0.00583711
0.0160666
0.0115936
0.00653259
0.029718
0.135608
0.341125
0.412137
0.217982
0.232502
0.462454
0.264663
0.81846
0.800982
0.275627
0.0967189
0.506582
0.750096
0.00699232
0.00659576
0.0177601
0.110731
0.148389
0.169885
0.183182
0.181806
0.188995
0.258648
0.369301
0.130543
0.044405
0.559277
0.779758
0.376648
0.230718
0.594909
0.746449
0.128394
0.0129573
0.0177699
0.0713728
0.349423
0.523712
0.510806
0.458082
0.446171
0.436844
0.335667
0.00173941
0.00230105
0.0897591
0.674959
0.793085
0.701148
0.667973
0.838466
0.562709
0.415602
0.345483
0.505086
0.534308
0.526342
0.477637
0.400801
0.217979
0.191477
0.0456685
0.000292142
0.0002126
0.00156893
0.198745
0.788443
0.897884
0.907261
0.906894
0.56065
0.558994
0.558994
0.540337
0.339677
0.0293037
0.00369825
0.00365806
0.00410755
0.00130049
0.00029217
2.71388e-05
6.18529e-06
3.23288e-05
0.000256392
0.135977
0.513048
0.863137
0.907266
0.315517
0.413384
0.155529
0.00207713
0.00207716
0.00202221
0.00425938
0.00472856
0.00428418
0.000159538
2.68835e-05
5.59218e-07
1.31914e-06
6.16862e-06
3.66955e-05
0.000258755
0.00175609
0.260266
0.905451
2.2539e-06
4.1402e-06
9.28396e-06
0.00347752
0.00513482
0.0023269
0.00147815
0.00176804
9.98397e-06
1.46702e-05
-6.83974e-07
1.25486e-07
5.64496e-07
1.24985e-06
6.24582e-06
3.94362e-05
0.000313517
0.015525
0.662268
1.60131e-06
1.78735e-06
4.71613e-07
2.96769e-08
0.000284547
0.000185444
5.9155e-07
1.1588e-07
3.74079e-07
4.53269e-07
7.9386e-09
5.44601e-08
4.25263e-06
5.0744e-06
5.7937e-06
3.11242e-06
5.81409e-05
0.00878689
0.0387378
1.36199e-06
5.852e-07
1.10096e-07
6.96607e-08
3.88208e-08
4.04085e-09
8.55758e-07
1.21462e-08
3.45737e-08
7.9384e-09
7.77375e-09
7.88067e-09
6.92473e-06
1.15588e-05
1.1522e-05
1.13245e-06
5.67808e-08
0.000389336
0.00299672
2.40125e-05
1.78129e-06
5.83576e-06
5.85047e-07
5.33942e-08
3.00266e-09
2.76789e-09
2.58687e-09
5.70121e-08
1.69392e-08
7.97132e-09
7.88921e-09
8.08508e-09
5.86381e-06
7.81609e-06
1.46628e-06
1.0076e-07
0.000984412
0.0558543
0.000857973
0.000243104
4.54165e-05
3.2062e-06
5.08855e-07
8.3466e-09
2.48234e-09
2.3887e-09
1.25774e-09
1.16074e-08
1.2671e-08
6.90654e-09
8.67851e-09
1.2027e-08
7.1327e-07
1.12197e-06
6.84459e-08
0.000212571
0.0631437
0.000902666
0.000683349
6.04255e-05
6.21519e-07
5.33365e-08
7.00928e-09
1.9943e-09
1.29359e-09
1.0212e-09
1.01319e-09
1.02315e-09
7.95931e-09
3.72917e-08
1.54277e-08
2.59373e-08
3.49043e-08
4.37146e-08
2.94055e-06
0.0632768
7.04952e-05
1.63669e-05
1.21695e-05
6.8089e-06
3.95762e-08
1.08058e-09
9.88866e-10
1.05067e-09
1.01124e-09
1.01102e-09
1.61886e-08
1.92039e-07
3.13264e-07
1.14565e-07
3.44857e-08
3.81701e-08
4.55785e-08
8.08116e-08
0.0628948
6.89938e-08
3.65763e-08
7.99727e-09
1.77787e-09
1.10177e-09
9.27098e-10
9.40517e-10
1.02889e-09
1.01102e-09
1.01124e-09
1.45273e-07
3.13427e-07
3.13264e-07
3.12966e-07
5.21424e-08
4.55785e-08
9.12757e-08
1.09193e-07
0.062317
2.65255e-09
4.09899e-08
4.80422e-09
8.77846e-10
9.19408e-10
9.1549e-10
9.339e-10
9.42558e-10
9.73965e-10
1.01124e-09
1.13637e-07
3.11963e-07
3.13474e-07
3.11963e-07
8.66827e-08
6.85637e-08
2.77024e-06
1.57536e-07
0.061405
1.17228e-10
1.26492e-09
1.01405e-09
8.41257e-10
9.18822e-10
9.1198e-10
9.23617e-10
1.92064e-09
1.66561e-09
1.03005e-09
1.23577e-09
1.38704e-07
3.11963e-07
2.36327e-07
4.02773e-08
4.79799e-06
5.18585e-05
3.46069e-07
0.0456498
3.15247e-11
2.00129e-10
4.35015e-10
8.39972e-10
9.76341e-10
8.47963e-10
1.03588e-09
4.43802e-09
4.49818e-09
1.29345e-09
1.64706e-09
4.65288e-09
2.34228e-07
5.59421e-08
3.85642e-08
5.09028e-05
6.3243e-05
6.33132e-07
0.00931487
3.02145e-11
1.2558e-10
4.99669e-10
9.47722e-10
9.76341e-10
7.20346e-10
1.2336e-09
4.16306e-09
4.14564e-09
2.92934e-09
4.65287e-09
2.88761e-08
3.30901e-08
3.70554e-08
3.74848e-08
6.32333e-05
6.19959e-05
2.86986e-07
0.0581127
1.61018e-11
1.68837e-10
6.81059e-10
9.71712e-10
9.76437e-10
7.06015e-10
9.44002e-10
7.82176e-10
2.22332e-09
1.58175e-07
5.36258e-07
4.45668e-07
6.06176e-08
3.50237e-08
8.31466e-08
6.33043e-05
7.57849e-06
2.11838e-07
0.0984569
1.55636e-11
1.66486e-10
6.03889e-10
9.42043e-10
9.16827e-10
4.53224e-10
3.50282e-10
5.03646e-10
3.63574e-07
2.03766e-06
2.19235e-06
7.99033e-07
3.50237e-08
3.34837e-08
3.34476e-08
6.31704e-05
6.86517e-07
2.11838e-07
0.0988722
1.24766e-11
1.2129e-10
3.75997e-10
5.31931e-10
4.92895e-10
3.24173e-11
4.90897e-11
2.35103e-07
2.3745e-06
2.36074e-06
2.23131e-06
2.52196e-07
3.36955e-08
3.34337e-08
3.34454e-08
1.11742e-05
1.15851e-06
2.11838e-07
0.099008
6.44693e-12
5.21433e-11
1.48948e-10
2.92685e-10
2.60778e-10
1.77887e-11
2.67749e-11
2.2301e-06
2.3745e-06
2.30507e-06
1.78048e-07
3.36955e-08
3.34431e-08
3.34454e-08
3.34338e-08
3.34454e-08
3.96024e-08
2.57485e-07
0.0992378
2.56274e-12
2.31672e-11
1.03429e-10
2.04122e-10
1.41208e-10
1.33407e-11
5.36044e-07
2.35905e-06
2.3745e-06
1.38849e-07
3.75639e-08
3.42902e-08
3.36993e-08
7.99753e-08
1.2745e-06
1.94898e-07
1.24522e-07
2.44124e-07
0.0992378
1.24772e-12
1.57354e-11
8.23893e-11
1.21059e-10
7.56801e-11
1.15223e-11
3.0323e-07
2.30974e-06
1.98393e-06
7.64177e-08
5.08964e-08
3.75639e-08
3.42902e-08
8.83288e-07
2.69737e-06
2.70208e-07
8.24519e-06
6.57969e-07
0.0991627
5.91516e-13
8.87817e-12
3.94987e-11
4.6431e-11
3.351e-11
1.10638e-11
1.10299e-11
1.3113e-06
1.50605e-06
1.35381e-07
3.4211e-07
4.61712e-06
1.29451e-05
1.35633e-05
2.26782e-06
5.80212e-08
6.27999e-05
1.92258e-06
0.0987771
1.55941e-13
2.12588e-12
7.57114e-12
1.2203e-11
1.4215e-11
1.06371e-11
1.06878e-11
1.10299e-11
1.36178e-06
1.02553e-06
1.1593e-06
1.35076e-05
1.42754e-05
1.42754e-05
1.34562e-06
6.28463e-09
7.25852e-05
8.76858e-06
0.0972263
1.49242e-14
1.5593e-13
6.10018e-13
3.77466e-12
1.12498e-11
1.06338e-11
2.27163e-11
1.6603e-11
1.03398e-06
1.39633e-06
9.41257e-07
9.44494e-06
1.24959e-05
1.9225e-06
1.20237e-09
2.0012e-09
6.11091e-05
0.000515685
0.0319772
9.37175e-16
9.70702e-15
9.81607e-14
1.86564e-12
7.58369e-12
7.73529e-12
8.29259e-11
3.46114e-11
5.97765e-12
6.83035e-07
8.56118e-07
6.54763e-08
3.5064e-10
1.463e-10
3.5064e-10
1.20237e-09
3.07725e-05
0.000844072
9.39977e-06
1.69752e-16
1.66277e-15
3.23932e-14
7.36871e-13
1.90036e-12
2.76973e-12
9.519e-11
1.03222e-10
8.7107e-12
2.56695e-13
3.72925e-08
4.52761e-08
3.87577e-09
2.44573e-11
1.463e-10
1.14946e-09
4.75541e-09
0.000586075
4.50048e-06
4.36132e-17
3.38147e-16
7.17673e-15
7.76062e-14
1.85427e-13
1.31513e-12
4.83258e-12
2.53611e-11
9.92241e-12
1.73723e-13
-5.20648e-31
-2.7509e-14
-7.63135e-20
3.43914e-14
3.6963e-07
1.67155e-07
9.07473e-09
1.70137e-08
1.47046e-07
9.36675e-18
4.81118e-17
5.86304e-16
1.53937e-15
2.44357e-14
1.21092e-12
6.75154e-13
2.42622e-13
5.48002e-15
-4.05943e-14
-6.61906e-14
-6.94513e-14
-6.04902e-20
7.17345e-13
1.15599e-06
1.15804e-06
4.59892e-07
1.60301e-08
4.34899e-09
1.2193e-18
4.05281e-18
1.89088e-17
1.40869e-17
1.69536e-15
1.14151e-13
6.8124e-14
7.15592e-15
-3.44167e-14
-6.65768e-14
-6.78784e-14
-6.22637e-14
-7.08908e-19
3.9736e-09
1.15985e-06
1.16269e-06
1.16214e-06
1.90859e-07
1.54851e-09
7.39431e-20
1.89629e-19
4.16542e-19
-1.45487e-19
2.02361e-17
4.78145e-16
2.31262e-16
1.62915e-17
-2.14567e-14
-3.45207e-14
-2.98404e-14
-2.37145e-14
-1.60999e-19
1.38871e-07
9.52207e-07
7.52167e-07
8.69069e-07
2.11967e-07
6.17325e-11
1.75985e-21
3.99287e-21
8.08381e-21
-6.9408e-19
-1.42094e-19
4.99367e-20
2.32067e-20
-5.56958e-19
-2.98327e-15
-3.20428e-15
-1.84578e-15
-9.33947e-16
-6.72177e-16
5.69517e-06
1.5313e-07
3.63492e-10
7.97153e-13
3.10468e-09
3.849e-11
1.13768e-23
2.26731e-23
3.71063e-23
-3.06207e-19
-2.81395e-20
-1.42056e-21
-1.03121e-21
-5.78117e-22
-1.91668e-22
-4.50745e-23
-8.32161e-24
-1.52962e-24
6.06931e-08
6.2824e-06
1.29152e-07
-2.5694e-28
0
0
-8.41384e-52
)
;

boundaryField
{
    leftWall
    {
        type            zeroGradient;
    }
    rightWall
    {
        type            zeroGradient;
    }
    lowerWall
    {
        type            zeroGradient;
    }
    atmosphere
    {
        type            inletOutlet;
        inletValue      uniform 0;
        value           nonuniform List<scalar> 
46
(
-2.39941e-31
-9.70501e-33
-2.78006e-34
-1.07692e-35
-4.85707e-37
-5.80014e-39
6.17204e-40
7.79664e-39
6.1652e-38
3.16769e-37
8.83723e-37
1.14887e-36
6.63477e-37
4.72243e-37
4.5693e-37
4.5693e-37
4.5693e-37
3.17294e-36
1.1472e-34
5.14458e-33
3.47871e-31
1.38769e-29
1.16207e-28
4.24662e-28
2.09701e-27
3.6339e-26
2.54622e-24
0
0
0
0
0
0
0
0
0
0
0
0
0
0
0
0
0
0
0
)
;
    }
    defaultFaces
    {
        type            empty;
    }
}


// ************************************************************************* //
