/*--------------------------------*- C++ -*----------------------------------*\
| =========                 |                                                 |
| \\      /  F ield         | OpenFOAM: The Open Source CFD Toolbox           |
|  \\    /   O peration     | Version:  2012                                  |
|   \\  /    A nd           | Website:  www.openfoam.com                      |
|    \\/     M anipulation  |                                                 |
\*---------------------------------------------------------------------------*/
FoamFile
{
    version     2.0;
    format      ascii;
    class       surfaceScalarField;
    location    "0.7";
    object      phi;
}
// * * * * * * * * * * * * * * * * * * * * * * * * * * * * * * * * * * * * * //

dimensions      [0 3 -1 0 0 0 0];
oriented        oriented;


internalField   nonuniform List<scalar> 
4432
(
-3.56665e-06
3.56665e-06
-7.26544e-06
3.69879e-06
-9.72122e-06
2.45578e-06
-1.13817e-05
1.66052e-06
-1.21503e-05
7.68525e-07
-1.13676e-05
-7.82696e-07
-8.88193e-06
-2.48564e-06
-5.76521e-06
-3.11672e-06
-3.38132e-06
-2.38389e-06
-2.20574e-06
-1.17558e-06
-2.135e-06
-7.07356e-08
-2.94164e-06
8.0664e-07
-4.36369e-06
1.42205e-06
-6.20089e-06
1.8372e-06
-8.55737e-06
2.35648e-06
-1.1349e-05
2.79161e-06
-1.36923e-05
2.34332e-06
-1.55296e-05
1.8373e-06
-1.94275e-05
3.89791e-06
-2.49932e-05
5.56565e-06
-2.46867e-05
-3.06415e-07
-1.47756e-05
-9.91114e-06
-1.47756e-05
-4.58025e-06
8.1469e-06
-7.83942e-06
6.95794e-06
-9.73098e-06
4.34733e-06
-1.13325e-05
3.26207e-06
-1.23702e-05
1.80619e-06
-1.18411e-05
-1.31179e-06
-9.36349e-06
-4.96325e-06
-6.04979e-06
-6.43043e-06
-3.43436e-06
-4.99932e-06
-2.13648e-06
-2.47346e-06
-1.79289e-06
-4.1432e-07
-1.9939e-06
1.00765e-06
-2.55595e-06
1.9841e-06
-3.45557e-06
2.73681e-06
-4.76198e-06
3.66291e-06
-6.92798e-06
4.95759e-06
-1.0533e-05
5.94833e-06
-1.54062e-05
6.71052e-06
-1.99556e-05
8.44728e-06
-2.15641e-05
7.17421e-06
-1.84138e-05
-3.45678e-06
-1.05545e-05
-1.77704e-05
-2.53301e-05
-3.71539e-06
1.18623e-05
-6.36099e-06
9.60354e-06
-8.37469e-06
6.36103e-06
-1.04941e-05
5.38148e-06
-1.20551e-05
3.36715e-06
-1.18291e-05
-1.53781e-06
-9.62092e-06
-7.17138e-06
-6.52109e-06
-9.53026e-06
-3.96716e-06
-7.55325e-06
-2.64627e-06
-3.79434e-06
-2.3694e-06
-6.91189e-07
-2.65589e-06
1.29414e-06
-3.08952e-06
2.41773e-06
-3.42196e-06
3.06925e-06
-3.49158e-06
3.73255e-06
-3.53185e-06
4.99784e-06
-4.40878e-06
6.82527e-06
-6.60504e-06
8.90677e-06
-8.79321e-06
1.06355e-05
-9.43689e-06
7.81788e-06
-7.92798e-06
-4.96568e-06
-4.14601e-06
-2.15524e-05
-2.94761e-05
-2.28133e-06
1.41436e-05
-4.18551e-06
1.15077e-05
-6.05034e-06
8.22586e-06
-7.93249e-06
7.26363e-06
-9.11233e-06
4.54699e-06
-8.84441e-06
-1.80573e-06
-7.43535e-06
-8.58044e-06
-5.69628e-06
-1.12693e-05
-4.23588e-06
-9.01364e-06
-3.37644e-06
-4.65379e-06
-3.2067e-06
-8.60933e-07
-3.54748e-06
1.63492e-06
-4.04811e-06
2.91837e-06
-4.36635e-06
3.38748e-06
-4.22567e-06
3.59188e-06
-3.48632e-06
4.25848e-06
-2.20018e-06
5.53915e-06
-7.71957e-07
7.47854e-06
9.26688e-07
8.93681e-06
2.64985e-06
6.09472e-06
2.59878e-06
-4.91461e-06
1.96054e-06
-2.09142e-05
-2.75156e-05
-4.41222e-07
1.45848e-05
-9.19947e-07
1.19864e-05
-1.97224e-06
9.27814e-06
-2.72147e-06
8.01286e-06
-2.51056e-06
4.33608e-06
-1.79906e-06
-2.51724e-06
-1.80661e-06
-8.57288e-06
-2.67922e-06
-1.03967e-05
-3.55219e-06
-8.14067e-06
-3.99644e-06
-4.20953e-06
-4.21923e-06
-6.38149e-07
-4.57429e-06
1.98999e-06
-5.00641e-06
3.3505e-06
-5.21953e-06
3.6006e-06
-4.98351e-06
3.35587e-06
-4.24002e-06
3.51498e-06
-2.66786e-06
3.96699e-06
-1.90925e-08
4.82977e-06
3.83029e-06
5.08742e-06
7.44063e-06
2.48437e-06
7.65985e-06
-5.13383e-06
4.82589e-06
-1.80802e-05
-2.26897e-05
1.89171e-06
1.26931e-05
3.25353e-06
1.06246e-05
4.01172e-06
8.51995e-06
5.14504e-06
6.87954e-06
6.72014e-06
2.76098e-06
7.13906e-06
-2.93617e-06
5.18189e-06
-6.61571e-06
1.66047e-06
-6.87532e-06
-1.93916e-06
-4.54103e-06
-4.2211e-06
-1.92759e-06
-5.20506e-06
3.45802e-07
-5.70195e-06
2.48688e-06
-6.0362e-06
3.68475e-06
-6.04382e-06
3.60822e-06
-5.55581e-06
2.86787e-06
-4.69402e-06
2.65318e-06
-3.37053e-06
2.6435e-06
-1.1956e-06
2.65483e-06
2.1749e-06
1.71693e-06
5.89074e-06
-1.23148e-06
7.0244e-06
-6.26749e-06
4.99502e-06
-1.60508e-05
-1.76947e-05
3.62212e-06
9.071e-06
7.4655e-06
6.78126e-06
1.12104e-05
4.77505e-06
1.48592e-05
3.23076e-06
1.70196e-05
6.00528e-07
1.54926e-05
-1.40919e-06
1.06269e-05
-1.74997e-06
4.78271e-06
-1.03113e-06
-4.71198e-07
7.12878e-07
-4.03301e-06
1.63422e-06
-5.90126e-06
2.21405e-06
-6.80875e-06
3.39437e-06
-7.14729e-06
4.0233e-06
-6.92521e-06
3.38613e-06
-6.08466e-06
2.02732e-06
-4.96016e-06
1.52867e-06
-3.63558e-06
1.31893e-06
-1.90226e-06
9.21511e-07
3.28607e-07
-5.13944e-07
2.94509e-06
-3.84796e-06
4.33362e-06
-7.65602e-06
3.87797e-06
-1.55952e-05
-1.38167e-05
6.63846e-06
2.43254e-06
1.38953e-05
-4.75599e-07
1.90227e-05
-3.52384e-07
2.16531e-05
6.0037e-07
2.07276e-05
1.5261e-06
1.60556e-05
3.26274e-06
9.61892e-06
4.68675e-06
3.72077e-06
4.86702e-06
-6.72963e-07
5.10661e-06
-3.75308e-06
4.71435e-06
-5.78368e-06
4.24465e-06
-7.248e-06
4.85869e-06
-8.00388e-06
4.77919e-06
-7.90553e-06
3.28778e-06
-6.80656e-06
9.28358e-07
-5.40955e-06
1.31644e-07
-3.91349e-06
-1.77134e-07
-2.23639e-06
-7.55583e-07
-4.70418e-07
-2.27992e-06
1.18978e-06
-5.50816e-06
2.29691e-06
-8.76315e-06
2.64227e-06
-1.59405e-05
-1.11744e-05
-2.82743e-05
2.82743e-05
-4.9673e-05
2.13988e-05
-4.52887e-05
-4.38433e-06
-3.15444e-05
-1.37443e-05
-1.93247e-05
-1.22197e-05
-7.46771e-06
-1.1857e-05
1.88678e-05
-2.63355e-05
2.26886e-05
-3.82079e-06
-1.11402e-05
3.38288e-05
-6.7548e-05
5.64078e-05
-0.000111845
4.42969e-05
-0.000129487
1.76416e-05
-0.000128743
-7.43459e-07
-0.000120174
-8.56899e-06
-0.00010733
-1.28437e-05
-8.71068e-05
-2.02236e-05
-4.94687e-05
-3.76381e-05
-4.73608e-07
-4.89951e-05
-4.73607e-07
-3.33704e-05
6.16447e-05
-4.08422e-05
2.88705e-05
-3.02138e-05
-1.50127e-05
-1.80304e-05
-2.59277e-05
-7.56402e-06
-2.2686e-05
3.72816e-06
-2.31492e-05
1.91084e-05
-4.17157e-05
-8.88041e-06
2.4168e-05
-7.6554e-05
0.000101502
-0.000134861
0.000114715
-0.000157534
6.69698e-05
-0.00015755
1.76579e-05
-0.000151569
-6.72493e-06
-0.000142272
-1.78659e-05
-0.000128293
-2.68229e-05
-0.000107577
-4.09396e-05
-7.22478e-05
-7.2967e-05
-2.30722e-05
-9.81707e-05
-2.35458e-05
-2.24932e-05
8.41379e-05
-2.18796e-05
2.8257e-05
-1.17443e-05
-2.51481e-05
-6.4906e-07
-3.70229e-05
4.76434e-06
-2.80994e-05
5.72567e-06
-2.41105e-05
-6.28276e-06
-2.97073e-05
-6.18726e-05
7.97579e-05
-0.000128275
0.000167904
-0.00017078
0.00015722
-0.000192099
8.8289e-05
-0.000197915
2.3474e-05
-0.0001931
-1.154e-05
-0.000180306
-3.06598e-05
-0.00016041
-4.67191e-05
-0.000132814
-6.85356e-05
-9.28877e-05
-0.000112894
-4.01272e-05
-0.000150931
-6.3673e-05
-7.80336e-06
9.19412e-05
1.97317e-06
1.84805e-05
8.07394e-06
-3.12489e-05
1.63943e-05
-4.53432e-05
1.61696e-05
-2.78748e-05
3.41094e-06
-1.13519e-05
-2.75812e-05
1.28489e-06
-8.67776e-05
0.000138954
-0.000144747
0.000225873
-0.000170099
0.000182573
-0.00019174
0.00010993
-0.000206265
3.79986e-05
-0.000201787
-1.60177e-05
-0.000191884
-4.05629e-05
-0.000177803
-6.08002e-05
-0.000153651
-9.26868e-05
-0.000109877
-0.000156668
-4.76288e-05
-0.00021318
-0.000111302
5.6996e-06
8.62416e-05
1.67028e-05
7.47725e-06
2.74709e-05
-4.2017e-05
3.40481e-05
-5.19204e-05
2.73516e-05
-2.11782e-05
1.71855e-06
1.42811e-05
-3.99303e-05
4.29337e-05
-9.84244e-05
0.000197448
-0.000144207
0.000271656
-0.000161394
0.00019976
-0.000175456
0.000123993
-0.000171068
3.361e-05
-0.000153263
-3.38226e-05
-0.000133987
-5.98393e-05
-0.000120886
-7.39014e-05
-0.000129645
-8.39277e-05
-0.000112894
-0.000173419
-4.6858e-05
-0.000279215
-0.00015816
2.19601e-05
6.42815e-05
3.25242e-05
-3.08677e-06
4.47597e-05
-5.42525e-05
5.01104e-05
-5.72711e-05
3.84787e-05
-9.54654e-06
4.25611e-06
4.85037e-05
-4.05248e-05
8.77147e-05
-9.37567e-05
0.00025068
-0.000130012
0.000307912
-0.000137583
0.00020733
-0.000140773
0.000127183
-0.000118454
1.12908e-05
-8.77535e-05
-6.45229e-05
-4.41911e-05
-0.000103402
-1.85904e-06
-0.000116233
-3.18334e-05
-5.39532e-05
-7.86102e-05
-0.000126642
-4.13775e-05
-0.000316448
-0.000199537
2.9994e-05
3.42875e-05
4.42347e-05
-1.73274e-05
5.62911e-05
-6.63089e-05
5.91182e-05
-6.00982e-05
4.56214e-05
3.95027e-06
1.04134e-05
8.37118e-05
-3.02171e-05
0.000128345
-6.2654e-05
0.000283117
-9.21177e-05
0.000337375
-0.000107667
0.000222879
-0.000103801
0.000123317
-8.04366e-05
-1.20741e-05
-4.58806e-05
-9.90789e-05
7.02553e-06
-0.000156308
7.78692e-05
-0.000187077
9.47943e-05
-7.0878e-05
-1.74666e-05
-1.43815e-05
-3.38001e-05
-0.000300114
-0.000233337
2.98291e-05
4.4584e-06
4.86942e-05
-3.61926e-05
5.36608e-05
-7.12755e-05
5.25203e-05
-5.89577e-05
3.7228e-05
1.92426e-05
1.40615e-05
0.000106878
-1.8398e-05
0.000160805
-2.82103e-05
0.000292929
-4.68957e-05
0.000356061
-7.41495e-05
0.000250133
-7.63361e-05
0.000125504
-5.11485e-05
-3.72618e-05
-1.12884e-05
-0.000138939
3.19764e-05
-0.000199572
7.19112e-05
-0.000227012
0.000140152
-0.000139119
7.99904e-05
4.57806e-05
-2.33955e-05
-0.000196728
-0.000256733
6.09361e-06
-3.66107e-06
1.49423e-06
4.12378e-06
-4.83058e-06
5.97242e-06
-9.19523e-06
4.96501e-06
-1.0445e-05
2.77585e-06
-1.08336e-05
3.65135e-06
-1.15697e-05
5.42288e-06
-1.24511e-05
5.74838e-06
-1.2447e-05
5.10248e-06
-1.23059e-05
4.57326e-06
-1.29697e-05
4.90842e-06
-1.48054e-05
6.69444e-06
-1.67075e-05
6.6813e-06
-1.66621e-05
3.24234e-06
-1.37874e-05
-1.94629e-06
-1.08514e-05
-2.80435e-06
-8.49614e-06
-2.53242e-06
-5.77189e-06
-3.47984e-06
-2.51146e-06
-5.54034e-06
4.6337e-07
-8.48299e-06
3.76143e-06
-1.20612e-05
5.91163e-06
-1.80907e-05
-1.85344e-05
1.32716e-05
-0.000112491
0.00010883
-0.000124502
1.61346e-05
-9.98863e-05
-1.86435e-05
-8.21874e-05
-1.27339e-05
-7.36417e-05
-5.76983e-06
-7.10093e-05
1.01895e-06
-6.98591e-05
4.27259e-06
-6.61227e-05
2.01201e-06
-5.66136e-05
-4.4066e-06
-4.40919e-05
-7.94845e-06
-3.15375e-05
-7.64601e-06
-2.32902e-05
-1.55284e-06
-1.68863e-05
2.77437e-07
-1.10591e-05
-2.58488e-06
-7.27876e-06
-5.72664e-06
-5.90716e-06
-4.17595e-06
-4.93145e-06
-3.50813e-06
-1.94865e-06
-6.46264e-06
1.14669e-06
-8.63569e-06
2.12558e-06
-9.46187e-06
3.75869e-06
-1.36943e-05
6.72348e-06
-2.10555e-05
-2.49441e-05
1.31332e-05
-5.89087e-05
0.000167739
-0.000108766
6.59919e-05
-0.000149179
2.17691e-05
-0.000188544
2.66315e-05
-0.000220165
2.5851e-05
-0.00023953
2.03844e-05
-0.000243408
8.14996e-06
-0.000230201
-1.11946e-05
-0.000201542
-3.30663e-05
-0.000164296
-4.51946e-05
-0.000115846
-5.60954e-05
-8.46335e-05
-3.27657e-05
-7.22568e-05
-1.20993e-05
-6.61797e-05
-8.66199e-06
-5.52474e-05
-1.66589e-05
-3.90307e-05
-2.03927e-05
-2.71825e-05
-1.53564e-05
-1.67162e-05
-1.69289e-05
-1.03893e-05
-1.49625e-05
-8.3417e-06
-1.15095e-05
-8.81863e-06
-1.32174e-05
-7.67991e-06
-2.21942e-05
-2.57327e-05
-6.89131e-06
-1.9385e-05
0.000187124
-5.96973e-05
0.000106304
-0.000102248
6.43199e-05
-0.000128955
5.33383e-05
-0.000146181
4.30766e-05
-0.000157997
3.22005e-05
-0.000168054
1.82069e-05
-0.000188106
8.85748e-06
-0.000227579
6.40599e-06
-0.000271923
-8.50599e-07
-0.000323195
-4.82324e-06
-0.000368498
1.2537e-05
-0.000397266
1.66688e-05
-0.000396464
-9.46425e-06
-0.000367726
-4.53967e-05
-0.000321081
-6.70372e-05
-0.000263163
-7.32747e-05
-0.000210371
-6.97209e-05
-0.000167647
-5.76869e-05
-0.000137615
-4.15408e-05
-0.000120611
-3.02221e-05
-0.000116703
-2.6102e-05
-6.32055e-05
-7.92301e-05
2.28973e-05
0.000164227
-4.87783e-06
0.000134079
-2.82073e-05
8.76494e-05
-3.70643e-05
6.21954e-05
-4.3336e-05
4.93482e-05
-4.84007e-05
3.72651e-05
-4.81498e-05
1.79558e-05
-5.42224e-05
1.49298e-05
-7.77308e-05
2.99142e-05
-0.000121159
4.25777e-05
-0.000171483
4.55005e-05
-0.000211533
5.25866e-05
-0.000245596
5.07318e-05
-0.000282211
2.71509e-05
-0.000322965
-4.64293e-06
-0.000339037
-5.09644e-05
-0.000321275
-9.10376e-05
-0.000294293
-9.67021e-05
-0.000273501
-7.84789e-05
-0.000269823
-4.5219e-05
-0.000279174
-2.08717e-05
-0.000276142
-2.91336e-05
-8.65339e-05
-0.000252814
3.3057e-05
0.00013117
3.02951e-05
0.000136841
1.94679e-05
9.84765e-05
1.43726e-05
6.72907e-05
8.36719e-06
5.53537e-05
-4.98175e-06
5.0614e-05
-2.23722e-05
3.53461e-05
-3.72713e-05
2.98286e-05
-4.66433e-05
3.92862e-05
-5.91648e-05
5.50991e-05
-7.95795e-05
6.59152e-05
-0.000101057
7.40643e-05
-0.000129261
7.89356e-05
-0.000176067
7.39571e-05
-0.000233472
5.27616e-05
-0.000281717
-2.71907e-06
-0.000299776
-7.29787e-05
-0.000305084
-9.13939e-05
-0.000297456
-8.61071e-05
-0.000280026
-6.26495e-05
-0.000250297
-5.06e-05
-0.000227785
-5.16461e-05
-7.50923e-05
-0.000239227
1.94466e-05
0.000111723
3.64741e-05
0.000119814
3.60492e-05
9.89016e-05
2.82291e-05
7.51108e-05
1.85367e-05
6.50461e-05
6.59016e-06
6.25604e-05
-1.1254e-05
5.319e-05
-3.08622e-05
4.94368e-05
-4.40919e-05
5.25157e-05
-5.06472e-05
6.16544e-05
-5.67854e-05
7.20534e-05
-6.29168e-05
8.01957e-05
-6.94985e-05
8.55172e-05
-8.00237e-05
8.44824e-05
-9.10789e-05
6.38167e-05
-0.000108634
1.48359e-05
-0.000151895
-2.97176e-05
-0.000199566
-4.37226e-05
-0.000231184
-5.44895e-05
-0.000227446
-6.63875e-05
-0.00019733
-8.0716e-05
-0.000181487
-6.74894e-05
-5.80828e-05
-0.000198496
6.11778e-06
0.000105605
2.46749e-05
0.000101257
2.88941e-05
9.46825e-05
2.23966e-05
8.16084e-05
1.28484e-05
7.45944e-05
3.54909e-06
7.18595e-05
-1.0428e-05
6.71671e-05
-2.66542e-05
6.5663e-05
-4.00623e-05
6.59237e-05
-4.8304e-05
6.9896e-05
-5.28261e-05
7.65755e-05
-5.51697e-05
8.25393e-05
-5.55225e-05
8.58701e-05
-5.64453e-05
8.54052e-05
-6.60242e-05
7.33957e-05
-9.70395e-05
4.58511e-05
-0.000151163
2.44055e-05
-0.000215109
2.02241e-05
-0.00025938
-1.02189e-05
-0.000264826
-6.09412e-05
-0.000242718
-0.000102825
-0.000200721
-0.000109486
-8.05786e-05
-0.000178225
1.14154e-06
0.000104464
1.23727e-05
9.00255e-05
1.58316e-05
9.12236e-05
1.2021e-05
8.5419e-05
5.39143e-06
8.12239e-05
-1.56515e-06
7.88161e-05
-1.1528e-05
7.71299e-05
-2.26051e-05
7.67401e-05
-3.30144e-05
7.6333e-05
-4.08782e-05
7.77598e-05
-4.55637e-05
8.12612e-05
-4.81923e-05
8.51677e-05
-5.02331e-05
8.79108e-05
-5.35311e-05
8.87031e-05
-6.32196e-05
8.30842e-05
-8.5794e-05
6.84255e-05
-0.000119603
5.82148e-05
-0.000158291
5.8912e-05
-0.000210908
4.23983e-05
-0.000261343
-1.05067e-05
-0.000279087
-8.508e-05
-0.000262054
-0.00012652
-0.000117976
-0.000224657
2.79444e-07
0.000104184
5.18198e-06
8.51231e-05
6.8673e-06
8.95384e-05
4.76893e-06
8.75174e-05
7.02409e-07
8.52903e-05
-4.10052e-06
8.3619e-05
-1.04608e-05
8.34903e-05
-1.7583e-05
8.38623e-05
-2.51618e-05
8.39119e-05
-3.19044e-05
8.45026e-05
-3.67812e-05
8.6138e-05
-4.02814e-05
8.8668e-05
-4.40671e-05
9.16965e-05
-4.98366e-05
9.44726e-05
-6.07639e-05
9.40114e-05
-8.03537e-05
8.80152e-05
-0.00010613
8.39908e-05
-0.000137426
9.0208e-05
-0.000183691
8.86642e-05
-0.000231294
3.70958e-05
-0.000261454
-5.492e-05
-0.000269343
-0.000118631
-0.000137298
-0.00025002
-1.38706e-07
0.000104323
1.74513e-06
8.32393e-05
2.55174e-06
8.87318e-05
1.30625e-06
8.87629e-05
-1.16461e-06
8.77612e-05
-4.39559e-06
8.685e-05
-8.30498e-06
8.73997e-05
-1.28453e-05
8.84026e-05
-1.81571e-05
8.92238e-05
-2.36191e-05
8.99647e-05
-2.85767e-05
9.10955e-05
-3.31595e-05
9.32508e-05
-3.83263e-05
9.68634e-05
-4.5314e-05
0.00010146
-5.62095e-05
0.000104907
-7.32663e-05
0.000105072
-9.54499e-05
0.000106174
-0.000123754
0.000118512
-0.000166787
0.000131697
-0.000220467
9.07758e-05
-0.000261549
-1.38386e-05
-0.000276359
-0.000103821
-0.000152398
-0.000261259
-5.44214e-07
0.000104867
2.17157e-07
8.24779e-05
7.03649e-07
8.82453e-05
-8.57161e-08
8.95521e-05
-1.64433e-06
8.93199e-05
-3.83897e-06
8.90448e-05
-6.3466e-06
8.99074e-05
-9.24845e-06
9.13046e-05
-1.27839e-05
9.27594e-05
-1.69114e-05
9.40922e-05
-2.15071e-05
9.56912e-05
-2.65958e-05
9.83396e-05
-3.24708e-05
0.000102738
-3.97152e-05
0.000108704
-4.96027e-05
0.000114794
-6.38367e-05
0.000119306
-8.22536e-05
0.000124591
-0.000104783
0.000141042
-0.000139421
0.000166335
-0.000195811
0.000147166
-0.000253895
4.42457e-05
-0.000295927
-6.17887e-05
-0.00013943
-0.000308896
-6.82791e-07
0.00010555
-3.39468e-07
8.21346e-05
-1.18027e-08
8.79176e-05
-5.36744e-07
9.00771e-05
-1.56225e-06
9.03455e-05
-3.05816e-06
9.05408e-05
-4.73672e-06
9.15861e-05
-6.62314e-06
9.31912e-05
-8.94814e-06
9.50845e-05
-1.19539e-05
9.70979e-05
-1.5794e-05
9.95315e-05
-2.04838e-05
0.00010303
-2.59758e-05
0.00010823
-3.24284e-05
0.000115157
-4.06225e-05
0.000122988
-5.19193e-05
0.000130603
-6.63853e-05
0.000139057
-8.21639e-05
0.00015682
-0.000104312
0.000188483
-0.000149556
0.000192409
-0.000203319
9.80092e-05
-0.000268365
3.25752e-06
-6.7522e-05
-0.000340274
-5.49509e-07
0.0001061
-3.70222e-07
8.19553e-05
-1.38328e-07
8.76857e-05
-4.60034e-07
9.0399e-05
-1.1141e-06
9.09998e-05
-2.10002e-06
9.15269e-05
-3.22944e-06
9.27157e-05
-4.48893e-06
9.44508e-05
-6.04144e-06
9.6637e-05
-8.15172e-06
9.92082e-05
-1.10099e-05
0.00010239
-1.46211e-05
0.000106641
-1.88298e-05
0.000112439
-2.36111e-05
0.000119938
-2.94427e-05
0.00012882
-3.74079e-05
0.000138568
-4.80179e-05
0.000149667
-5.8925e-05
0.000167727
-7.15929e-05
0.000201151
-0.000107757
0.000228574
-0.000161648
0.000151899
-0.000211176
5.27855e-05
5.42077e-07
-0.00027924
-2.67931e-07
0.000106368
-1.24154e-07
8.18117e-05
9.34804e-08
8.74683e-05
-1.99262e-08
9.05126e-05
-3.50142e-07
9.13302e-05
-9.19288e-07
9.20962e-05
-1.61746e-06
9.3414e-05
-2.4156e-06
9.52491e-05
-3.38707e-06
9.76084e-05
-4.70424e-06
0.000100525
-6.48895e-06
0.000104175
-8.70676e-06
0.000108859
-1.11844e-05
0.000114917
-1.38274e-05
0.000122582
-1.68935e-05
0.000131886
-2.10569e-05
0.000142731
-2.70752e-05
0.000155686
-3.37671e-05
0.000174419
-3.9917e-05
0.000207301
-6.53208e-05
0.000253977
-0.000127991
0.000214569
-0.000176727
0.000101522
4.8202e-05
-0.000224387
7.21941e-08
0.000106296
2.74112e-07
8.16098e-05
5.51724e-07
8.71908e-05
6.58899e-07
9.04056e-05
6.36931e-07
9.13522e-05
4.57649e-07
9.22757e-05
1.82853e-07
9.36889e-05
-1.5959e-07
9.55916e-05
-5.73874e-07
9.80226e-05
-1.11963e-06
0.000101071
-1.82704e-06
0.000104882
-2.62144e-06
0.000109653
-3.32406e-06
0.000115619
-3.76994e-06
0.000123027
-3.98423e-06
0.0001321
-4.13513e-06
0.000142882
-4.27037e-06
0.000155821
-3.35887e-06
0.000173508
1.82777e-06
0.000202114
1.37176e-06
0.000254433
-5.39528e-05
0.000269894
-0.000120232
0.000167802
9.14248e-05
-0.000163455
4.18506e-07
0.000105877
7.10587e-07
8.13178e-05
1.13573e-06
8.67657e-05
1.47793e-06
9.00634e-05
1.76275e-06
9.10675e-05
1.97377e-06
9.20648e-05
2.13373e-06
9.35291e-05
2.28639e-06
9.54391e-05
2.46102e-06
9.7848e-05
2.67896e-06
0.000100854
2.99193e-06
0.000104569
3.50742e-06
0.000109138
4.41547e-06
0.000114712
5.94172e-06
0.000121501
8.32526e-06
0.000129717
1.16975e-05
0.00013951
1.66128e-05
0.000150905
2.47413e-05
0.000165379
3.9598e-05
0.000187257
6.50215e-05
0.00022901
5.83642e-05
0.000276551
-7.39158e-06
0.000233557
0.000148596
-6.45632e-05
7.33214e-07
0.000105144
1.16233e-06
8.08887e-05
1.77036e-06
8.61577e-05
2.35769e-06
8.9476e-05
2.94009e-06
9.04851e-05
3.51247e-06
9.14924e-05
4.11282e-06
9.29288e-05
4.77219e-06
9.47797e-05
5.54323e-06
9.70772e-05
6.49162e-06
9.99055e-05
7.70757e-06
0.000103354
9.33189e-06
0.000107514
1.15616e-05
0.000112482
1.46557e-05
0.000118407
1.89383e-05
0.000125434
2.48501e-05
0.000133598
3.30444e-05
0.000142711
4.52755e-05
0.000153148
6.53909e-05
0.000167141
0.000102074
0.000192327
0.000143262
0.000235362
0.00013467
0.00024215
0.000193567
8.9699e-05
1.00133e-06
0.000104143
1.59505e-06
8.0295e-05
2.40628e-06
8.53464e-05
3.23841e-06
8.86438e-05
4.10724e-06
8.96164e-05
5.02417e-06
9.05756e-05
6.02854e-06
9.19246e-05
7.16286e-06
9.36455e-05
8.48477e-06
9.57556e-05
1.00775e-05
9.83128e-05
1.20657e-05
0.000101365
1.45867e-05
0.000104993
1.78312e-05
0.000109237
2.20781e-05
0.000114159
2.76945e-05
0.000119818
3.51218e-05
0.000126171
4.48648e-05
0.000132968
5.80831e-05
0.000139929
7.76703e-05
0.000147554
0.000111242
0.000158755
0.00016524
0.000181363
0.000209599
0.000197791
0.000179612
0.000223554
1.22962e-06
0.000102913
1.9932e-06
7.95315e-05
3.00894e-06
8.43308e-05
4.07926e-06
8.75737e-05
5.21386e-06
8.8482e-05
6.44143e-06
8.93482e-05
7.79736e-06
9.05688e-05
9.33755e-06
9.21053e-05
1.11303e-05
9.3963e-05
1.32666e-05
9.61764e-05
1.58521e-05
9.87801e-05
1.90442e-05
0.000101801
2.30269e-05
0.000105254
2.80476e-05
0.000109139
3.44292e-05
0.000113436
4.25618e-05
0.000118039
5.28232e-05
0.000122707
6.57346e-05
0.000127018
8.26796e-05
0.000130609
0.000107742
0.000133692
0.000149696
0.00013941
0.000201099
0.000146388
0.000137397
0.000243314
1.42577e-06
0.000101487
2.34791e-06
7.86095e-05
3.55738e-06
8.31214e-05
4.84632e-06
8.62849e-05
6.21752e-06
8.71109e-05
7.70799e-06
8.78577e-05
9.36513e-06
8.89118e-05
1.12418e-05
9.02287e-05
1.34092e-05
9.17957e-05
1.59556e-05
9.36297e-05
1.89887e-05
9.5747e-05
2.26486e-05
9.81408e-05
2.71022e-05
0.0001008
3.25578e-05
0.000103683
3.92716e-05
0.000106723
4.75414e-05
0.000109769
5.76531e-05
0.000112595
6.9839e-05
0.000114832
8.44711e-05
0.000115977
0.000102736
0.000115427
0.000128907
0.000113238
0.000164745
0.00011055
0.000100458
0.000201684
1.59289e-06
9.98944e-05
2.65514e-06
7.75475e-05
4.03822e-06
8.17383e-05
5.51645e-06
8.48068e-05
7.09379e-06
8.55336e-05
8.80687e-06
8.61446e-05
1.07043e-05
8.70142e-05
1.28437e-05
8.80893e-05
1.52902e-05
8.93493e-05
1.81306e-05
9.07893e-05
2.14639e-05
9.24139e-05
2.54075e-05
9.41973e-05
3.01053e-05
9.61026e-05
3.57241e-05
9.80644e-05
4.24562e-05
9.99905e-05
5.05036e-05
0.000101721
6.00632e-05
0.000103035
7.12703e-05
0.000103625
8.41673e-05
0.00010308
9.87703e-05
0.000100824
0.000115845
9.61633e-05
0.000137204
8.91921e-05
7.75854e-05
0.000160076
1.73301e-06
9.81615e-05
2.91229e-06
7.63683e-05
4.44055e-06
8.02102e-05
6.07756e-06
8.31698e-05
7.82232e-06
8.37888e-05
9.71133e-06
8.42557e-05
1.17948e-05
8.49306e-05
1.41254e-05
8.57589e-05
1.67688e-05
8.67058e-05
1.97973e-05
8.77608e-05
2.33016e-05
8.89098e-05
2.73798e-05
9.0119e-05
3.21454e-05
9.1337e-05
3.77244e-05
9.24852e-05
4.4256e-05
9.3459e-05
5.18736e-05
9.41036e-05
6.06906e-05
9.42179e-05
7.07794e-05
9.3536e-05
8.2127e-05
9.17323e-05
9.45647e-05
8.8386e-05
0.000107755
8.29734e-05
0.000121878
7.50684e-05
6.36517e-05
0.000135812
1.84813e-06
9.63135e-05
3.1237e-06
7.50927e-05
4.7659e-06
7.8568e-05
6.5285e-06
8.14071e-05
8.39982e-06
8.19174e-05
1.042e-05
8.22355e-05
1.26338e-05
8.27169e-05
1.50932e-05
8.32997e-05
1.78547e-05
8.39443e-05
2.09831e-05
8.46325e-05
2.45528e-05
8.53404e-05
2.86441e-05
8.60275e-05
3.33467e-05
8.66344e-05
3.87509e-05
8.70809e-05
4.4949e-05
8.72607e-05
5.20219e-05
8.70306e-05
6.00254e-05
8.62144e-05
6.89718e-05
8.45895e-05
7.8815e-05
8.18891e-05
8.93979e-05
7.78031e-05
0.000100349
7.20219e-05
0.000111228
6.41893e-05
5.36446e-05
0.000121235
1.93927e-06
9.43743e-05
3.29151e-06
7.37404e-05
5.01504e-06
7.68444e-05
6.86852e-06
7.95536e-05
8.82833e-06
7.99576e-05
1.09348e-05
8.0129e-05
1.32295e-05
8.04225e-05
1.5759e-05
8.07703e-05
1.85728e-05
8.11304e-05
2.17263e-05
8.14792e-05
2.52803e-05
8.17865e-05
2.92986e-05
8.20092e-05
3.38437e-05
8.20891e-05
3.89803e-05
8.19443e-05
4.47656e-05
8.14755e-05
5.124e-05
8.05563e-05
5.84186e-05
7.90359e-05
6.62742e-05
7.67339e-05
7.47246e-05
7.34385e-05
8.36123e-05
6.89154e-05
9.26688e-05
6.29654e-05
0.000101466
5.53922e-05
4.57398e-05
0.000109371
2.00825e-06
9.2366e-05
3.41532e-06
7.23333e-05
5.19389e-06
7.50657e-05
7.10338e-06
7.76441e-05
9.11568e-06
7.79453e-05
1.12693e-05
7.79753e-05
1.36007e-05
7.80913e-05
1.61507e-05
7.82205e-05
1.8962e-05
7.8319e-05
2.208e-05
7.83613e-05
2.55526e-05
7.83139e-05
2.94277e-05
7.81342e-05
3.37514e-05
7.77653e-05
3.85633e-05
7.71324e-05
4.38949e-05
7.61438e-05
4.97592e-05
7.46921e-05
5.61452e-05
7.265e-05
6.3003e-05
6.98761e-05
7.02347e-05
6.62068e-05
7.76815e-05
6.14685e-05
8.51239e-05
5.55229e-05
9.22432e-05
4.82729e-05
3.94195e-05
9.85635e-05
2.061e-06
9.03049e-05
3.49712e-06
7.08971e-05
5.30821e-06
7.32547e-05
7.24162e-06
7.57107e-05
9.27535e-06
7.59116e-05
1.14394e-05
7.58114e-05
1.37677e-05
7.57631e-05
1.62959e-05
7.56923e-05
1.90584e-05
7.55563e-05
2.20928e-05
7.53269e-05
2.54346e-05
7.49721e-05
2.91195e-05
7.44494e-05
3.31788e-05
7.37059e-05
3.76354e-05
7.26758e-05
4.25024e-05
7.12769e-05
4.77741e-05
6.94204e-05
5.34229e-05
6.70011e-05
5.93894e-05
6.39095e-05
6.55731e-05
6.00229e-05
7.1827e-05
5.52146e-05
7.79621e-05
4.93878e-05
8.37374e-05
4.24976e-05
3.43556e-05
8.88012e-05
2.10444e-06
8.82005e-05
3.54016e-06
6.94613e-05
5.36177e-06
7.14331e-05
7.29071e-06
7.37818e-05
9.31936e-06
7.38829e-05
1.1463e-05
7.3668e-05
1.37563e-05
7.34699e-05
1.6227e-05
7.32215e-05
1.89035e-05
7.28797e-05
2.18156e-05
7.24147e-05
2.4992e-05
7.17957e-05
2.84558e-05
7.09856e-05
3.22274e-05
6.99343e-05
3.63176e-05
6.85855e-05
4.07256e-05
6.68688e-05
4.54351e-05
6.47108e-05
5.04091e-05
6.2027e-05
5.55858e-05
5.87327e-05
6.08703e-05
5.47384e-05
6.61309e-05
4.9954e-05
7.12095e-05
4.43094e-05
7.59204e-05
3.77868e-05
3.02724e-05
8.00036e-05
2.14593e-06
8.60544e-05
3.5471e-06
6.806e-05
5.3528e-06
6.96271e-05
7.25922e-06
7.18753e-05
9.25963e-06
7.18825e-05
1.13581e-05
7.15694e-05
1.35905e-05
7.12376e-05
1.59773e-05
7.08347e-05
1.85414e-05
7.03156e-05
2.13068e-05
6.96493e-05
2.42935e-05
6.8809e-05
2.75179e-05
6.7761e-05
3.09907e-05
6.64613e-05
3.47145e-05
6.48616e-05
3.86793e-05
6.29039e-05
4.28642e-05
6.05259e-05
4.72272e-05
5.7664e-05
5.17087e-05
5.42512e-05
5.62219e-05
5.02253e-05
6.06534e-05
4.55226e-05
6.48692e-05
4.00936e-05
6.87252e-05
3.39308e-05
2.69713e-05
7.20264e-05
2.19406e-06
8.38603e-05
3.52339e-06
6.67304e-05
5.28198e-06
6.78683e-05
7.1512e-06
7.00058e-05
9.10313e-06
6.99306e-05
1.11389e-05
6.95335e-05
1.3291e-05
6.90857e-05
1.55751e-05
6.85506e-05
1.80097e-05
6.7881e-05
2.06128e-05
6.70461e-05
2.33985e-05
6.60233e-05
2.6377e-05
6.47823e-05
2.95521e-05
6.3286e-05
3.29213e-05
6.14924e-05
3.64705e-05
5.93547e-05
4.01741e-05
5.68224e-05
4.39918e-05
5.38463e-05
4.7867e-05
5.03761e-05
5.17238e-05
4.63685e-05
5.54647e-05
4.17816e-05
5.8977e-05
3.65813e-05
6.21442e-05
3.07636e-05
2.42976e-05
6.48181e-05
2.25154e-06
8.16087e-05
3.47912e-06
6.55024e-05
5.15548e-06
6.61918e-05
6.97052e-06
6.81907e-05
8.8545e-06
6.80467e-05
1.08113e-05
6.75767e-05
1.28666e-05
6.70305e-05
1.50336e-05
6.63835e-05
1.73279e-05
6.55865e-05
1.97623e-05
6.46118e-05
2.23454e-05
6.34401e-05
2.50834e-05
6.20442e-05
2.7975e-05
6.03945e-05
3.10135e-05
5.84539e-05
3.41828e-05
5.61855e-05
3.74564e-05
5.35488e-05
4.07971e-05
5.05057e-05
4.41534e-05
4.70199e-05
4.74602e-05
4.30617e-05
5.06363e-05
3.86054e-05
5.3587e-05
3.36307e-05
5.62172e-05
2.81336e-05
2.2101e-05
5.8414e-05
2.31056e-06
7.92979e-05
3.42126e-06
6.43913e-05
4.98148e-06
6.46314e-05
6.71711e-06
6.64551e-05
8.51406e-06
6.62496e-05
1.03731e-05
6.57177e-05
1.2315e-05
6.50887e-05
1.43522e-05
6.43461e-05
1.64984e-05
6.34404e-05
1.87608e-05
6.23494e-05
2.11447e-05
6.10562e-05
2.36514e-05
5.95374e-05
2.62779e-05
5.7768e-05
2.90142e-05
5.57176e-05
3.18439e-05
5.33557e-05
3.47415e-05
5.06512e-05
3.76729e-05
4.75743e-05
4.05934e-05
4.40994e-05
4.3449e-05
4.02061e-05
4.61743e-05
3.58802e-05
4.86931e-05
3.1112e-05
5.09284e-05
2.58984e-05
2.02332e-05
5.27964e-05
2.36022e-06
7.69374e-05
3.34698e-06
6.34043e-05
4.76064e-06
6.32176e-05
6.38715e-06
6.48286e-05
8.07571e-06
6.45608e-05
9.81502e-06
6.39785e-05
1.16247e-05
6.3279e-05
1.3517e-05
6.24537e-05
1.55032e-05
6.14543e-05
1.75867e-05
6.0266e-05
1.97699e-05
5.8873e-05
2.20506e-05
5.72567e-05
2.44246e-05
5.5394e-05
2.68805e-05
5.32617e-05
2.94025e-05
5.08336e-05
3.19672e-05
4.80864e-05
3.45445e-05
4.49969e-05
3.70965e-05
4.15475e-05
3.95797e-05
3.7723e-05
4.19432e-05
3.35167e-05
4.41294e-05
2.89259e-05
4.60773e-05
2.39506e-05
1.85836e-05
4.77271e-05
2.39375e-06
7.45434e-05
3.24981e-06
6.2548e-05
4.48723e-06
6.19801e-05
5.97605e-06
6.33397e-05
7.53068e-06
6.3006e-05
9.1245e-06
6.23847e-05
1.07793e-05
6.16241e-05
1.25064e-05
6.07265e-05
1.43142e-05
5.96466e-05
1.62036e-05
5.83765e-05
1.8174e-05
5.69026e-05
2.02222e-05
5.52085e-05
2.23422e-05
5.3274e-05
2.45233e-05
5.10805e-05
2.67504e-05
4.86065e-05
2.90032e-05
4.58337e-05
3.12549e-05
4.27454e-05
3.3475e-05
3.93276e-05
3.56278e-05
3.55702e-05
3.76746e-05
3.147e-05
3.95732e-05
2.70275e-05
4.12779e-05
2.22462e-05
1.71184e-05
4.27433e-05
2.40462e-06
7.21387e-05
3.12709e-06
6.18254e-05
4.16028e-06
6.09469e-05
5.48419e-06
6.20157e-05
6.87467e-06
6.16154e-05
8.29636e-06
6.09629e-05
9.77128e-06
6.01491e-05
1.13091e-05
5.91888e-05
1.29148e-05
5.80408e-05
1.45875e-05
5.67038e-05
1.63244e-05
5.51656e-05
1.81227e-05
5.34102e-05
1.99744e-05
5.14223e-05
2.18704e-05
4.91845e-05
2.37962e-05
4.66806e-05
2.57343e-05
4.38957e-05
2.7662e-05
4.08177e-05
2.95531e-05
3.74365e-05
3.13789e-05
3.37446e-05
3.31097e-05
2.97394e-05
3.47139e-05
2.54235e-05
3.61573e-05
2.0803e-05
1.58715e-05
3.74044e-05
2.37743e-06
6.97612e-05
2.97374e-06
6.12288e-05
3.78704e-06
6.01335e-05
4.92084e-06
6.08819e-05
6.11753e-06
6.04186e-05
7.34349e-06
5.97368e-05
8.61608e-06
5.88765e-05
9.9425e-06
5.78624e-05
1.13234e-05
5.66597e-05
1.27572e-05
5.52699e-05
1.42408e-05
5.36821e-05
1.57698e-05
5.18813e-05
1.73372e-05
4.98548e-05
1.89336e-05
4.7588e-05
2.05459e-05
4.50683e-05
2.21583e-05
4.22834e-05
2.37517e-05
3.92245e-05
2.53038e-05
3.58846e-05
2.67907e-05
3.2258e-05
2.81895e-05
2.83408e-05
2.94743e-05
2.41391e-05
3.06226e-05
1.96548e-05
1.48895e-05
3.16046e-05
2.29249e-06
6.74685e-05
2.77808e-06
6.0743e-05
3.3751e-06
5.95364e-05
4.30288e-06
5.9954e-05
5.28566e-06
5.94357e-05
6.30176e-06
5.87206e-05
7.35809e-06
5.78202e-05
8.45922e-06
5.67611e-05
9.60327e-06
5.55156e-05
1.0787e-05
5.40863e-05
1.20078e-05
5.24614e-05
1.32602e-05
5.06289e-05
1.45376e-05
4.85775e-05
1.58308e-05
4.62948e-05
1.71281e-05
4.3771e-05
1.84159e-05
4.09957e-05
1.96777e-05
3.79629e-05
2.08947e-05
3.46679e-05
2.20475e-05
3.11054e-05
2.3119e-05
2.72696e-05
2.40878e-05
2.31703e-05
2.49401e-05
1.88027e-05
1.41783e-05
2.56513e-05
2.14599e-06
6.53223e-05
2.52888e-06
6.03601e-05
2.92965e-06
5.91357e-05
3.65077e-06
5.92326e-05
4.41587e-06
5.86704e-05
5.22079e-06
5.79157e-05
6.05965e-06
5.69813e-05
6.93555e-06
5.58852e-05
7.8445e-06
5.46067e-05
8.78263e-06
5.31482e-05
9.74701e-06