/*--------------------------------*- C++ -*----------------------------------*\
| =========                 |                                                 |
| \\      /  F ield         | OpenFOAM: The Open Source CFD Toolbox           |
|  \\    /   O peration     | Version:  3.0.1                                 |
|   \\  /    A nd           | Web:      www.OpenFOAM.org                      |
|    \\/     M anipulation  |                                                 |
\*---------------------------------------------------------------------------*/
FoamFile
{
    version     2.0;
    format      ascii;
    class       surfaceScalarField;
    location    "0.0002";
    object      phi;
}
// * * * * * * * * * * * * * * * * * * * * * * * * * * * * * * * * * * * * * //

dimensions      [1 0 -1 0 0 0 0];

internalField   nonuniform List<scalar> 
1890
(
-2.35272e-17
-3.12847e-16
4.21755e-17
-3.31508e-16
1.29145e-15
-3.16763e-16
8.30141e-15
-2.57986e-16
3.76301e-14
-2.25636e-16
1.57206e-13
-2.64518e-16
6.35083e-13
-1.15007e-16
2.48001e-12
-2.34865e-17
9.42909e-12
3.98038e-17
3.47657e-11
9.08832e-17
1.24683e-10
9.83913e-17
4.33113e-10
1.05601e-16
1.45999e-09
-8.78204e-18
4.75821e-09
-7.63956e-17
1.50072e-08
-1.52818e-16
4.56579e-08
-2.5804e-16
1.34001e-07
-4.96361e-16
3.78284e-07
-1.2453e-15
1.02622e-06
-2.87528e-15
2.66779e-06
-6.79661e-15
6.63204e-06
-1.52874e-14
1.57135e-05
-3.29126e-14
3.53408e-05
-6.53216e-14
7.49539e-05
-1.18168e-13
0.000147658
-1.86715e-13
0.000261322
-2.40748e-13
0.00042386
-2.26118e-13
0.00063391
-1.20364e-13
0.000879242
1.08934e-13
0.00113813
4.55563e-13
0.00138488
7.99864e-13
0.00159786
1.02226e-12
0.00177341
1.06324e-12
0.00190987
9.5065e-13
0.00199088
7.10856e-13
0.00197934
3.1426e-13
0.00195182
1.18347e-14
0.00187282
-2.12067e-13
0.00180892
-1.753e-13
0.00177874
-4.50426e-14
0.00174531
3.36104e-13
0.00176704
4.6828e-13
0.00178494
6.15203e-13
0.00178177
4.66143e-13
0.00179755
3.86552e-13
0.00180886
2.58695e-13
0.00179186
2.61053e-13
0.00178982
1.68308e-13
0.00180411
1.73314e-13
0.00180209
1.83368e-13
0.00176315
1.07072e-13
0.00172576
1.00297e-13
0.00172716
5.65738e-14
0.00171968
8.05771e-14
0.0017086
4.80036e-14
0.00171554
2.39045e-14
0.00172351
-2.89543e-15
0.00171331
-5.98424e-15
0.00171233
-3.78274e-14
0.0017189
-3.88891e-14
0.00171728
-9.08546e-14
0.00171993
-1.32188e-13
0.00171718
-1.24858e-13
0.0017179
-1.69116e-13
0.0017312
-1.33648e-13
0.00173097
-5.81849e-14
0.0017295
-2.50164e-14
0.00174596
8.76632e-16
0.00178389
9.18671e-14
0.00181308
1.46729e-13
0.00177855
-1.32907e-13
0.00133744
-3.31725e-13
0.000699293
-1.26119e-13
0.000354608
2.35489e-14
0.00017297
4.92539e-14
8.1199e-05
3.70793e-14
3.66047e-05
2.16371e-14
1.58101e-05
1.10607e-14
6.54457e-06
5.19335e-15
2.59633e-06
2.2582e-15
9.89216e-07
8.91878e-16
3.62062e-07
3.67314e-16
1.27657e-07
1.88895e-16
4.33463e-08
9.30517e-17
1.42206e-08
8.89588e-17
4.50281e-09
1.41929e-16
1.38129e-09
1.27434e-16
4.09741e-10
1.10636e-16
1.18042e-10
8.32938e-17
3.29369e-11
1.80113e-17
8.94548e-12
-2.83248e-17
2.35686e-12
4.0949e-17
6.06051e-13
-6.18334e-17
1.51691e-13
-9.92452e-17
3.74395e-14
-4.71018e-17
9.19246e-15
-1.27807e-16
2.69367e-15
-6.55129e-17
1.61224e-15
-6.07357e-17
1.71464e-15
-1.34373e-17
-1.34251e-16
-7.99599e-17
5.88044e-17
2.16027e-16
7.44169e-17
1.67683e-15
9.74427e-18
8.57729e-15
2.09929e-17
3.79668e-14
-2.60209e-17
1.57921e-13
-1.48766e-16
6.3586e-13
-1.10873e-16
2.48068e-12
-3.95463e-17
9.4295e-12
-1.17568e-16
3.4766e-11
-8.48388e-18
1.24683e-10
-8.71292e-17
4.33112e-10
-1.07892e-16
1.45999e-09
-1.81645e-16
4.75821e-09
-1.24887e-16
1.50072e-08
-1.89749e-16
4.56579e-08
-2.21096e-16
1.34001e-07
-3.06246e-16
3.78284e-07
-7.62777e-16
1.02622e-06
-1.64785e-15
2.66779e-06
-4.07149e-15
6.63204e-06
-9.1596e-15
1.57135e-05
-1.99825e-14
3.53408e-05
-4.0653e-14
7.49539e-05
-7.58497e-14
0.000147658
-1.26134e-13
0.000261322
-1.76932e-13
0.00042386
-2.00273e-13
0.00063391
-1.60773e-13
0.000879242
-5.33552e-15
0.00113813
2.15349e-13
0.00138488
4.87665e-13
0.00159786
7.39208e-13
0.00177341
9.20687e-13
0.00190987
1.02662e-12
0.00199088
1.04869e-12
0.00197934
8.89946e-13
0.00195182
6.86729e-13
0.00187282
5.20111e-13
0.00180892
4.8103e-13
0.00177874
4.77418e-13
0.00174531
6.11587e-13
0.00176704
6.15396e-13
0.00178494
6.51704e-13
0.00178177
5.03604e-13
0.00179755
4.3371e-13
0.00180886
2.73399e-13
0.00179186
2.28824e-13
0.00178982
1.19243e-13
0.00180411
1.17739e-13
0.00180209
5.76023e-14
0.00176315
1.882e-14
0.00172576
-2.12597e-15
0.00172716
-3.46729e-14
0.00171968
-3.70677e-14
0.0017086
-6.34194e-14
0.00171554
-9.57144e-14
0.00172351
-1.08021e-13
0.00171331
-1.32993e-13
0.00171233
-1.5122e-13
0.0017189
-1.73495e-13
0.00171728
-2.0315e-13
0.00171993
-2.26057e-13
0.00171718
-2.42014e-13
0.0017179
-2.58716e-13
0.0017312
-2.35393e-13
0.00173097
-2.11073e-13
0.0017295
-1.96123e-13
0.00174596
-1.75263e-13
0.00178389
-1.15287e-13
0.00181308
-1.01773e-13
0.00177855
-2.44886e-13
0.00133744
-2.51408e-13
0.000699293
-8.58381e-14
0.000354608
6.49786e-15
0.00017297
2.35495e-14
8.1199e-05
1.85574e-14
3.66047e-05
1.11183e-14
1.58101e-05
5.7449e-15
6.54457e-06
2.80394e-15
2.59633e-06
1.29328e-15
9.89216e-07
5.72696e-16
3.62062e-07
2.70265e-16
1.27657e-07
8.98804e-17
4.33463e-08
1.06591e-16
1.42206e-08
5.7544e-17
4.50281e-09
1.40574e-16
1.38129e-09
9.8886e-17
4.09741e-10
2.35678e-17
1.18041e-10
-1.85466e-17
3.29366e-11
-1.32225e-16
8.9453e-12
-1.61079e-16
2.35644e-12
-1.14356e-16
6.05711e-13
-1.26296e-16
1.51551e-13
-1.01583e-16
3.72176e-14
-4.45336e-17
9.0829e-15
1.84314e-18
2.70435e-15
9.19674e-17
1.81718e-15
1.99913e-16
1.28922e-15
1.76386e-17
-4.06101e-17
9.26993e-18
-1.07282e-16
7.15573e-17
-6.31277e-17
1.39244e-15
-1.03623e-16
8.35958e-15
-4.97378e-18
3.75987e-14
-1.75776e-16
1.5778e-13
-2.2256e-16
6.35781e-13
-2.35529e-16
2.48044e-12
-2.41262e-16
9.42932e-12
-3.45996e-16
3.47656e-11
-2.36464e-16
1.24683e-10
-3.48354e-16
4.33112e-10
-2.81459e-16
1.45999e-09
-2.99633e-16
4.75821e-09
-2.05185e-16
1.50072e-08
-2.05971e-16
4.56579e-08
-2.90891e-16
1.34001e-07
-2.96502e-16
3.78284e-07
-5.30121e-16
1.02622e-06
-8.7941e-16
2.66779e-06
-2.0711e-15
6.63204e-06
-4.60745e-15
1.57135e-05
-1.01871e-14
3.53408e-05
-2.14484e-14
7.49539e-05
-4.19158e-14
0.000147658
-7.443e-14
0.000261322
-1.14025e-13
0.00042386
-1.46196e-13
0.00063391
-1.47732e-13
0.000879242
-8.70566e-14
0.00113813
3.91043e-14
0.00138488
2.58659e-13
0.00159786
5.30211e-13
0.00177341
8.18998e-13
0.00190987
1.10295e-12
0.00199088
1.33817e-12
0.00197934
1.45008e-12
0.00195182
1.38957e-12
0.00187282
1.28122e-12
0.00180892
1.17237e-12
0.00177874
9.78648e-13
0.00174531
8.25805e-13
0.00176704
6.16052e-13
0.00178494
4.98057e-13
0.00178177
3.41561e-13
0.00179755
2.65637e-13
0.00180886
1.38007e-13
0.00179186
9.14463e-14
0.00178982
-1.52146e-14
0.00180411
-1.71877e-14
0.00180209
-1.32618e-13
0.00176315
-1.17807e-13
0.00172576
-1.51988e-13
0.00172716
-1.69242e-13
0.00171968
-1.83384e-13
0.0017086
-2.00348e-13
0.00171554
-2.37616e-13
0.00172351
-2.23065e-13
0.00171331
-2.57549e-13
0.00171233
-2.66351e-13
0.0017189
-2.94889e-13
0.00171728
-2.93377e-13
0.00171993
-3.12476e-13
0.00171718
-3.28054e-13
0.0017179
-3.38038e-13
0.0017312
-3.5357e-13
0.00173097
-3.84029e-13
0.0017295
-3.97807e-13
0.00174596
-4.01742e-13
0.00178389
-4.05155e-13
0.00181308
-4.04054e-13
0.00177855
-3.62764e-13
0.00133744
-2.53482e-13
0.000699293
-1.058e-13
0.000354608
-3.03782e-14
0.00017297
-5.75738e-15
8.1199e-05
5.33238e-16
3.66047e-05
1.50304e-15
1.58101e-05
1.01279e-15
6.54457e-06
5.51886e-16
2.59633e-06
3.23146e-16
9.89216e-07
1.46625e-16
3.62062e-07
7.28652e-17
1.27657e-07
-1.03778e-16
4.33463e-08
-7.20927e-17
1.42206e-08
-2.01045e-16
4.50281e-09
-1.20726e-16
1.38129e-09
-2.14489e-16
4.0974e-10
-1.933e-16
1.18041e-10
-2.46548e-16
3.29366e-11
-2.46751e-16
8.94555e-12
-1.59852e-16
2.35673e-12
-2.53161e-16
6.06036e-13
-2.26192e-16
1.52026e-13
-2.35326e-16
3.77362e-14
-2.55668e-16
9.72313e-15
-3.02079e-16
2.96369e-15
-2.3845e-16
1.07734e-15
-2.1827e-16
1.01988e-15
-1.94425e-16
-2.48065e-16
-1.38832e-16
-2.54991e-16
-1.59052e-16
-2.43159e-16
1.23561e-15
-1.51138e-16
7.70044e-15
-1.29928e-16
3.7055e-14
-8.43103e-17
1.5752e-13
-3.30682e-17
6.35513e-13
2.80673e-17
2.48033e-12
-1.50162e-16
9.42954e-12
-1.42261e-16
3.47659e-11
-2.73937e-16
1.24683e-10
-2.35204e-16
4.33112e-10
-2.92843e-16
1.45999e-09
-1.87174e-16
4.75821e-09
-1.58849e-16
1.50072e-08
-9.04767e-17
4.56579e-08
-1.99778e-16
1.34001e-07
-2.13656e-16
3.78284e-07
-2.43715e-16
1.02622e-06
-3.90204e-16
2.66779e-06
-9.33119e-16
6.63204e-06
-2.19346e-15
1.57135e-05
-4.96243e-15
3.53408e-05
-1.0497e-14
7.49539e-05
-2.09236e-14
0.000147658
-3.75905e-14
0.000261322
-5.83699e-14
0.00042386
-7.48081e-14
0.00063391
-7.41752e-14
0.000879242
-2.66399e-14
0.00113813
8.26999e-14
0.00138488
2.63655e-13
0.00159786
5.12397e-13
0.00177341
8.09464e-13
0.00190987
1.13097e-12
0.00199088
1.4468e-12
0.00197934
1.69574e-12
0.00195182
1.78826e-12
0.00187282
1.75692e-12
0.00180892
1.58132e-12
0.00177874
1.23926e-12
0.00174531
8.63133e-13
0.00176704
4.51734e-13
0.00178494
1.95497e-13
0.00178177
3.78219e-14
0.00179755
-2.92131e-14
0.00180886
-4.07734e-14
0.00179186
-6.76172e-14
0.00178982
-1.2152e-13
0.00180411
-1.15638e-13
0.00180209
-1.6173e-13
0.00176315
-1.40955e-13
0.00172576
-1.76967e-13
0.00172716
-1.7377e-13
0.00171968
-1.52701e-13
0.0017086
-1.64646e-13
0.00171554
-1.97452e-13
0.00172351
-1.73953e-13
0.00171331
-1.92893e-13
0.00171233
-2.03394e-13
0.0017189
-2.39294e-13
0.00171728
-2.42444e-13
0.00171993
-2.85697e-13
0.00171718
-3.14346e-13
0.0017179
-3.59148e-13
0.0017312
-4.21758e-13
0.00173097
-5.1329e-13
0.0017295
-5.98448e-13
0.00174596
-6.78907e-13
0.00178389
-7.55247e-13
0.00181308
-7.77925e-13
0.00177855
-6.73382e-13
0.00133744
-4.72365e-13
0.000699293
-2.27128e-13
0.000354608
-9.43622e-14
0.00017297
-3.87008e-14
8.1199e-05
-1.55795e-14
3.66047e-05
-6.16632e-15
1.58101e-05
-2.42337e-15
6.54457e-06
-9.8369e-16
2.59633e-06
-4.53007e-16
9.89216e-07
-2.01038e-16
3.62062e-07
-1.67835e-16
1.27657e-07
-1.40526e-16
4.33463e-08
-1.0613e-16
1.42206e-08
-1.44443e-16
4.50281e-09
-1.52249e-16
1.38129e-09
-1.98849e-16
4.0974e-10
-1.59066e-16
1.18041e-10
-1.929e-16
3.29367e-11
-1.76237e-16
8.9454e-12
-1.38236e-16
2.35662e-12
-2.02725e-16
6.059e-13
-1.81312e-16
1.517e-13
-2.32555e-16
3.74699e-14
-2.80605e-16
9.61538e-15
-3.09343e-16
2.95979e-15
-3.06226e-16
1.31779e-15
-3.34436e-16
8.20389e-16
-2.33618e-16
-2.30861e-16
2.8173e-16
2.27276e-16
5.75278e-16
2.1596e-16
1.91286e-15
2.32087e-16
8.48573e-15
1.3543e-16
3.77585e-14
2.0673e-16
1.57813e-13
1.50921e-16
6.35436e-13
1.16918e-16
2.48015e-12
8.76849e-18
9.42924e-12
6.89146e-17
3.47655e-11
-8.13287e-17
1.24683e-10
-5.95227e-17
4.33113e-10
-1.00234e-16
1.45999e-09
-2.72135e-17
4.75821e-09
-9.7646e-17
1.50072e-08
-8.42967e-17
4.56579e-08
-5.52401e-17
1.34001e-07
-6.43203e-17
3.78284e-07
-2.19551e-17
1.02622e-06
-8.23316e-17
2.66779e-06
-2.57457e-16
6.63204e-06
-6.50562e-16
1.57135e-05
-1.48739e-15
3.53408e-05
-2.80372e-15
7.49539e-05
-5.04367e-15
0.000147658
-7.41733e-15
0.000261322
-7.00747e-15
0.00042386
3.14142e-15
0.00063391
3.43071e-14
0.000879242
1.0285e-13
0.00113813
2.2555e-13
0.00138488
4.14374e-13
0.00159786
6.68579e-13
0.00177341
9.73205e-13
0.00190987
1.30617e-12
0.00199088
1.63281e-12
0.00197934
1.88083e-12
0.00195182
1.9232e-12
0.00187282
1.81828e-12
0.00180892
1.51886e-12
0.00177874
1.04995e-12
0.00174531
5.50138e-13
0.00176704
1.2275e-13
0.00178494
-1.5507e-13
0.00178177
-2.39537e-13
0.00179755
-2.36438e-13
0.00180886
-1.41087e-13
0.00179186
-1.25581e-13
0.00178982
-1.05408e-13
0.00180411
-1.05422e-13
0.00180209
-9.70844e-14
0.00176315
-7.02357e-14
0.00172576
-1.00695e-13
0.00172716
-1.01816e-13
0.00171968
-5.56979e-14
0.0017086
-4.62201e-14
0.00171554
-7.83209e-14
0.00172351
-5.87806e-14
0.00171331
-5.47911e-14
0.00171233
-6.63395e-14
0.0017189
-1.12671e-13
0.00171728
-1.26932e-13
0.00171993
-1.89303e-13
0.00171718
-2.3122e-13
0.0017179
-3.06988e-13
0.0017312
-3.97485e-13
0.00173097
-5.31286e-13
0.0017295
-6.82366e-13
0.00174596
-8.63524e-13
0.00178389
-1.04343e-12
0.00181308
-1.1621e-12
0.00177855
-1.10257e-12
0.00133744
-8.66849e-13
0.000699293
-4.64576e-13
0.000354608
-2.11683e-13
0.00017297
-9.57935e-14
8.1199e-05
-4.24314e-14
3.66047e-05
-1.83292e-14
1.58101e-05
-7.64921e-15
6.54457e-06
-3.07788e-15
2.59633e-06
-1.28661e-15
9.89216e-07
-4.57615e-16
3.62062e-07
-2.22532e-16
1.27657e-07
-8.95077e-17
4.33463e-08
-1.29522e-16
1.42206e-08
-7.2052e-17
4.50281e-09
-1.46123e-16
1.38129e-09
-1.23328e-16
4.0974e-10
-1.45879e-16
1.18041e-10
-1.4199e-16
3.29368e-11
-1.95109e-16
8.94535e-12
-2.09542e-16
2.35653e-12
-2.34391e-16
6.05779e-13
-2.09332e-16
1.51593e-13
-1.50528e-16
3.75394e-14
-9.29161e-17
9.71215e-15
-6.15149e-17
3.17362e-15
-1.47587e-17
1.58334e-15
-1.41604e-16
1.13066e-15
-1.20428e-16
-1.86381e-16
-1.73472e-18
3.89906e-17
1.93801e-16
6.90772e-17
1.24813e-15
-3.02221e-18
7.90692e-15
1.58022e-17
3.73434e-14
9.52607e-17
1.57296e-13
8.3199e-17
6.35001e-13
1.04151e-16
2.47982e-12
1.67563e-16
9.42889e-12
1.92026e-16
3.47655e-11
2.00455e-16
1.24683e-10
2.41154e-16
4.33113e-10
1.92012e-16
1.45999e-09
2.32819e-16
4.75821e-09
1.7579e-16
1.50072e-08
1.3066e-16
4.56579e-08
1.7415e-16
1.34001e-07
1.39821e-16
3.78284e-07
1.92812e-16
1.02622e-06
1.69244e-16
2.66779e-06
2.18765e-16
6.63204e-06
3.99596e-16
1.57135e-05
1.04322e-15
3.53408e-05
2.87806e-15
7.49539e-05
7.66469e-15
0.000147658
1.90178e-14
0.000261322
4.33639e-14
0.00042386
9.00726e-14
0.00063391
1.71523e-13
0.000879242
3.00504e-13
0.00113813
4.85726e-13
0.00138488
7.26051e-13
0.00159786
1.00469e-12
0.00177341
1.29278e-12
0.00190987
1.57361e-12
0.00199088
1.79546e-12
0.00197934
1.87312e-12
0.00195182
1.66918e-12
0.00187282
1.32155e-12
0.00180892
8.46152e-13
0.00177874
2.49771e-13
0.00174531
-2.23239e-13
0.00176704
-4.09121e-13
0.00178494
-4.19145e-13
0.00178177
-2.81899e-13
0.00179755
-4.98586e-14
0.00180886
1.42466e-14
0.00179186
1.23628e-13
0.00178982
2.159e-13
0.00180411
1.91578e-13
0.00180209
1.64784e-13
0.00176315
1.55928e-13
0.00172576
1.53292e-13
0.00172716
1.25819e-13
0.00171968
1.08331e-13
0.0017086
1.42715e-13
0.00171554
1.32553e-13
0.00172351
1.13843e-13
0.00171331
1.19079e-13
0.00171233
1.28188e-13
0.0017189
8.11044e-14
0.00171728
6.12771e-14
0.00171993
9.01399e-15
0.00171718
-2.69345e-14
0.0017179
-1.06752e-13
0.0017312
-2.08578e-13
0.00173097
-3.31795e-13
0.0017295
-5.09564e-13
0.00174596
-7.64368e-13
0.00178389
-1.09537e-12
0.00181308
-1.41697e-12
0.00177855
-1.64136e-12
0.00133744
-1.51152e-12
0.000699293
-8.8817e-13
0.000354608
-4.30246e-13
0.00017297
-2.0465e-13
8.1199e-05
-9.45589e-14
3.66047e-05
-4.23727e-14
1.58101e-05
-1.81829e-14
6.54457e-06
-7.52264e-15
2.59633e-06
-2.94454e-15
9.89216e-07
-1.04196e-15
3.62062e-07
-2.85376e-16
1.27657e-07
-2.10267e-17
4.33463e-08
1.32611e-17
1.42206e-08
1.14024e-16
4.50281e-09
1.04659e-16
1.38129e-09
1.71263e-16
4.0974e-10
1.5475e-16
1.18041e-10
1.54214e-16
3.29367e-11
1.10548e-16
8.94527e-12
2.16976e-17
2.35657e-12
-3.25261e-19
6.05856e-13
1.62495e-17
1.51537e-13
9.33498e-17
3.73604e-14
1.74523e-16
9.42676e-15
1.81949e-16
2.79529e-15
2.51318e-16
1.21482e-15
2.58216e-16
8.58824e-16
1.88922e-16
1.17074e-16
6.451e-17
-1.29128e-16
6.19622e-17
-9.7917e-17
1.58272e-15
-3.09404e-17
8.47185e-15
7.58942e-19
3.75427e-14
1.27136e-16
1.57421e-13
1.86849e-16
6.35235e-13
3.10299e-16
2.4799e-12
4.12864e-16
9.42899e-12
5.47956e-16
3.47655e-11
6.39178e-16
1.24683e-10
5.96176e-16
4.33113e-10
5.78991e-16
1.45999e-09
4.52438e-16
4.75821e-09
4.23611e-16
1.50072e-08
3.41551e-16
4.56579e-08
2.89197e-16
1.34001e-07
3.0874e-16
3.78284e-07
3.71217e-16
1.02622e-06
3.47067e-16
2.66779e-06
8.04871e-16
6.63204e-06
1.5476e-15
1.57135e-05
3.74561e-15
3.53408e-05
8.97358e-15
7.49539e-05
2.15022e-14
0.000147658
4.88047e-14
0.000261322
1.01831e-13
0.00042386
1.9389e-13
0.00063391
3.39808e-13
0.000879242
5.48468e-13
0.00113813
8.16739e-13
0.00138488
1.12204e-12
0.00159786
1.42164e-12
0.00177341
1.6677e-12
0.00190987
1.8536e-12
0.00199088
1.89629e-12
0.00197934
1.66833e-12
0.00195182
1.14894e-12
0.00187282
5.79465e-13
0.00180892
3.36148e-14
0.00177874
-5.79352e-13
0.00174531
-8.97787e-13
0.00176704
-7.00976e-13
0.00178494
-4.62156e-13
0.00178177
-1.76336e-13
0.00179755
2.17983e-13
0.00180886
1.88143e-13
0.00179186
3.45146e-13
0.00178982
4.75922e-13
0.00180411
4.4493e-13
0.00180209
3.59704e-13
0.00176315
2.87055e-13
0.00172576
3.49434e-13
0.00172716
2.99919e-13
0.00171968
1.93285e-13
0.0017086
2.5428e-13
0.00171554
2.88186e-13
0.00172351
2.07224e-13
0.00171331
1.99841e-13
0.00171233
2.52406e-13
0.0017189
2.13208e-13
0.00171728
2.00042e-13
0.00171993
1.67774e-13
0.00171718
1.48179e-13
0.0017179
1.04232e-13
0.0017312
-3.52279e-15
0.00173097
-8.57462e-14
0.0017295
-2.16151e-13
0.00174596
-4.50931e-13
0.00178389
-8.66008e-13
0.00181308
-1.39016e-12
0.00177855
-2.11674e-12
0.00133744
-2.3505e-12
0.000699293
-1.52958e-12
0.000354608
-7.70159e-13
0.00017297
-3.7734e-13
8.1199e-05
-1.78576e-13
3.66047e-05
-8.18085e-14
1.58101e-05
-3.5923e-14
6.54457e-06
-1.52275e-14
2.59633e-06
-6.0944e-15
9.89216e-07
-2.3366e-15
3.62062e-07
-7.87754e-16
1.27657e-07
-2.59179e-16
4.33463e-08
-1.11131e-17
1.42206e-08
5.84995e-17
4.50281e-09
1.66405e-16
1.38129e-09
1.4836e-16
4.0974e-10
2.00435e-16
1.18041e-10
1.91172e-16
3.29364e-11
1.82065e-16
8.94529e-12
2.02332e-16
2.35689e-12
1.8531e-16
6.06487e-13
2.48519e-16
1.52407e-13
1.58964e-16
3.81495e-14
1.62847e-16
9.85865e-15
9.62839e-17
2.94952e-15
1.51626e-16
1.19379e-15
1.83596e-16
8.46681e-16
1.97901e-16
1.86855e-16
2.17274e-16
-2.15634e-16
3.27971e-16
-1.12052e-16
1.71212e-15
-1.23125e-16
8.61843e-15
1.88109e-17
3.7801e-14
-7.44169e-17
1.57975e-13
1.52913e-16
6.35787e-13
1.43779e-16
2.48054e-12
2.55045e-16
9.42934e-12
3.56703e-16
3.47655e-11
3.64034e-16
1.24683e-10
3.6894e-16
4.33112e-10
3.22862e-16
1.45999e-09
3.2499e-16
4.75821e-09
2.29959e-16
1.50072e-08
3.55361e-16
4.56579e-08
2.38145e-16
1.34001e-07
2.60547e-16
3.78284e-07
2.52104e-16
1.02622e-06
4.38465e-16
2.66779e-06
1.02209e-15
6.63204e-06
2.54283e-15
1.57135e-05
6.42716e-15
3.53408e-05
1.55988e-14
7.49539e-05
3.65677e-14
0.000147658
8.10674e-14
0.000261322
1.64771e-13
0.00042386
3.04978e-13
0.00063391
5.18201e-13
0.000879242
8.08187e-13
0.00113813
1.15517e-12
0.00138488
1.50723e-12
0.00159786
1.78804e-12
0.00177341
1.93088e-12
0.00190987
1.94659e-12
0.00199088
1.80336e-12
0.00197934
1.36929e-12
0.00195182
6.32174e-13
0.00187282
-7.15453e-14
0.00180892
-4.97059e-13
0.00177874
-7.21114e-13
0.00174531
-5.85466e-13
0.00176704
-2.70739e-13
0.00178494
9.59022e-14
0.00178177
2.05387e-13
0.00179755
4.08385e-13
0.00180886
1.25698e-13
0.00179186
2.88725e-13
0.00178982
1.43807e-13
0.00180411
1.87809e-13
0.00180209
-1.17028e-14
0.00176315
7.93639e-14
0.00172576
1.5385e-13
0.00172716
9.02951e-14
0.00171968
1.92871e-14
0.0017086
-3.15298e-14
0.00171554
6.39891e-14
0.00172351
-1.16232e-14
0.00171331
-4.16436e-14
0.00171233
-6.33899e-15
0.0017189
3.30095e-14
0.00171728
6.23539e-14
0.00171993
1.26087e-13
0.00171718
1.29417e-13
0.0017179
2.31492e-13
0.0017312
1.57661e-13
0.00173097
1.33167e-13
0.0017295
2.19065e-13
0.00174596
2.83754e-13
0.00178389
-6.80761e-14
0.00181308
-9.45716e-13
0.00177855
-2.46392e-12
0.00133744
-3.38085e-12
0.000699293
-2.45537e-12
0.000354608
-1.29234e-12
0.00017297
-6.46226e-13
8.1199e-05
-3.11233e-13
3.66047e-05
-1.45501e-13
1.58101e-05
-6.56105e-14
6.54457e-06
-2.86546e-14
2.59633e-06
-1.19943e-14
9.89216e-07
-4.87968e-15
3.62062e-07
-1.91657e-15
1.27657e-07
-8.27057e-16
4.33463e-08
-4.24262e-16
1.42206e-08
-3.46525e-16
4.50281e-09
-2.47395e-16
1.38129e-09
-2.47008e-16
4.0974e-10
-2.44854e-16
1.18041e-10
-2.53852e-16
3.29364e-11
-1.79774e-16
8.94508e-12
-1.75336e-16
2.35656e-12
-9.20217e-17
6.05907e-13
2.43268e-17
1.51538e-13
1.48807e-17
3.7341e-14
5.25703e-17
9.69296e-15
6.59601e-17
2.98833e-15
7.91535e-17
8.64163e-16
9.25638e-17
4.16659e-16
1.35566e-16
1.52906e-16
4.67887e-16
1.16823e-17
6.16857e-16
7.45796e-17
2.0222e-15
1.60326e-17
8.86698e-15
1.47723e-16
3.83154e-14
1.31256e-16
1.58343e-13
2.0547e-16
6.36217e-13
1.31798e-16
2.48097e-12
9.81474e-17
9.4296e-12
8.73189e-17
3.47656e-11
5.5728e-17
1.24683e-10
6.92941e-17
4.33112e-10
6.99717e-17
1.45999e-09
1.21376e-16
4.75821e-09
2.23115e-16
1.50072e-08
2.19388e-16
4.56579e-08
3.33555e-16
1.34001e-07
2.63298e-16
3.78284e-07
3.00541e-16
1.02622e-06
6.38771e-16
2.66779e-06
1.4849e-15
6.63204e-06
3.88323e-15
1.57135e-05
9.85257e-15
3.53408e-05
2.38045e-14
7.49539e-05
5.49498e-14
0.000147658
1.19523e-13
0.000261322
2.37778e-13
0.00042386
4.31366e-13
0.00063391
7.17315e-13
0.000879242
1.09244e-12
0.00113813
1.51602e-12
0.00138488
1.90222e-12
0.00159786
2.13797e-12
0.00177341
2.13849e-12
0.00190987
1.94681e-12
0.00199088
1.58014e-12
0.00197934
9.73392e-13
0.00195182
2.12021e-13
0.00187282
-5.00619e-13
0.00180892
-8.16603e-13
0.00177874
-6.90082e-13
0.00174531
-2.45417e-13
0.00176704
1.91564e-13
0.00178494
5.76667e-13
0.00178177
4.47959e-13
0.00179755
4.92495e-13
0.00180886
3.87282e-14
0.00179186
1.49057e-13
0.00178982
-2.11702e-13
0.00180411
-2.43444e-14
0.00180209
-3.78528e-13
0.00176315
-1.86387e-13
0.00172576
-6.2038e-14
0.00172716
-6.95949e-14
0.00171968
-1.34727e-13
0.0017086
-3.40508e-13
0.00171554
-1.68239e-13
0.00172351
-1.85981e-13
0.00171331
-2.68915e-13
0.00171233
-2.54229e-13
0.0017189
-1.3081e-13
0.00171728
-8.7651e-14
0.00171993
7.71653e-14
0.00171718
5.96882e-14
0.0017179
2.93301e-13
0.0017312
3.22629e-13
0.00173097
2.50652e-13
0.0017295
4.65414e-13
0.00174596
9.00064e-13
0.00178389
6.86475e-13
0.00181308
-2.98319e-13
0.00177855
-2.12714e-12
0.00133744
-4.20821e-12
0.000699293
-3.69042e-12
0.000354608
-1.98781e-12
0.00017297
-1.00126e-12
8.1199e-05
-4.85099e-13
3.66047e-05
-2.28634e-13
1.58101e-05
-1.0432e-13
6.54457e-06
-4.61368e-14
2.59633e-06
-1.95975e-14
9.89216e-07
-8.08585e-15
3.62062e-07
-3.22116e-15
1.27657e-07
-1.30535e-15
4.33463e-08
-6.0611e-16
1.42206e-08
-4.48643e-16
4.50281e-09
-3.16269e-16
1.38129e-09
-3.20436e-16
4.0974e-10
-3.16519e-16
1.18041e-10
-3.46416e-16
3.29366e-11
-3.23506e-16
8.94557e-12
-2.79162e-16
2.35705e-12
-1.71365e-16
6.06253e-13
-7.10085e-17
1.52164e-13
1.95834e-17
3.80184e-14
-1.08e-16
9.98577e-15
-1.06862e-17
3.13427e-15
-1.08014e-16
1.35406e-15
-2.59666e-17
8.24454e-16
1.1399e-16
2.03952e-16
5.15376e-16
6.17887e-16
2.12411e-15
8.99329e-15
3.82664e-14
1.58093e-13
6.35767e-13
2.48053e-12
9.42928e-12
3.47654e-11
1.24683e-10
4.33112e-10
1.45999e-09
4.75821e-09
1.50072e-08
4.56579e-08
1.34001e-07
3.78284e-07
1.02622e-06
2.66779e-06
6.63204e-06
1.57135e-05
3.53408e-05
7.49539e-05
0.000147658
0.000261322
0.00042386
0.00063391
0.000879242
0.00113813
0.00138488
0.00159786
0.00177341
0.00190987
0.00199088
0.00197934
0.00195182
0.00187282
0.00180892
0.00177874
0.00174531
0.00176704
0.00178494
0.00178177
0.00179755
0.00180886
0.00179186
0.00178982
0.00180411
0.00180209
0.00176315
0.00172576
0.00172716
0.00171968
0.0017086
0.00171554
0.00172351
0.00171331
0.00171233
0.0017189
0.00171728
0.00171993
0.00171718
0.0017179
0.0017312
0.00173097
0.0017295
0.00174596
0.00178389
0.00181308
0.00177855
0.00133744
0.000699293
0.000354608
0.00017297
8.1199e-05
3.66047e-05
1.58101e-05
6.54457e-06
2.59633e-06
9.89216e-07
3.62062e-07
1.27657e-07
4.33463e-08
1.42206e-08
4.50281e-09
1.38129e-09
4.0974e-10
1.18041e-10
3.29369e-11
8.94597e-12
2.35751e-12
6.06381e-13
1.51766e-13
3.7648e-14
9.78148e-15
3.30985e-15
1.81661e-15
1.07656e-15
)
;

boundaryField
{
    sides1
    {
        type            calculated;
        value           nonuniform List<scalar> 
20
(
1.56468e-15
9.91819e-16
1.17965e-15
8.31714e-16
1.06014e-15
7.65057e-16
7.80723e-16
5.7254e-16
7.20123e-16
9.21784e-16
3.48865e-17
9.17299e-17
5.55621e-17
-4.32732e-17
-7.68202e-17
5.59116e-18
-1.09261e-16
-1.62609e-16
-2.85848e-16
-5.38964e-16
)
;
    }
    sides2
    {
        type            calculated;
        value           uniform 0;
    }
    empty
    {
        type            empty;
        value           nonuniform 0();
    }
}


// ************************************************************************* //
