/*--------------------------------*- C++ -*----------------------------------*\
| =========                 |                                                 |
| \\      /  F ield         | OpenFOAM: The Open Source CFD Toolbox           |
|  \\    /   O peration     | Version:  3.0.1                                 |
|   \\  /    A nd           | Web:      www.OpenFOAM.org                      |
|    \\/     M anipulation  |                                                 |
\*---------------------------------------------------------------------------*/
FoamFile
{
    version     2.0;
    format      ascii;
    class       volVectorField;
    location    "0.0002";
    object      U;
}
// * * * * * * * * * * * * * * * * * * * * * * * * * * * * * * * * * * * * * //

dimensions      [0 1 -1 0 0 0 0];

internalField   nonuniform List<vector> 
1000
(
(-3.52663e-13 -1.01595e-11 0)
(4.49003e-13 -1.04193e-11 0)
(1.76799e-12 -1.02935e-11 0)
(2.78125e-11 -8.37136e-12 0)
(1.54294e-10 -8.04001e-12 0)
(6.63416e-10 -7.91068e-12 0)
(2.73982e-09 -5.06019e-12 0)
(1.0976e-08 -3.53159e-12 0)
(4.24359e-08 -1.21593e-12 0)
(1.60229e-07 -4.70606e-13 0)
(5.84935e-07 5.10894e-14 0)
(2.08181e-06 1.16513e-12 0)
(7.15525e-06 -2.18079e-13 0)
(2.39107e-05 -1.58611e-12 0)
(7.70368e-05 -2.1332e-12 0)
(0.000240554 -4.6071e-12 0)
(0.000722725 -8.1346e-12 0)
(0.00209668 -2.02609e-11 0)
(0.00583676 -4.8051e-11 0)
(0.0156193 -1.12644e-10 0)
(0.0399575 -2.56923e-10 0)
(0.0976765 -5.57682e-10 0)
(0.226829 -1.11239e-09 0)
(0.498153 -2.02666e-09 0)
(1.01736 -3.23217e-09 0)
(1.89734 -4.2425e-09 0)
(3.23605 -4.24543e-09 0)
(5.09225 -2.38825e-09 0)
(7.43117 1.91201e-09 0)
(10.1157 8.14007e-09 0)
(12.9153 1.45877e-08 0)
(15.5865 1.89873e-08 0)
(17.9627 2.02478e-08 0)
(19.9741 1.85967e-08 0)
(21.4293 1.36732e-08 0)
(21.9885 5.15439e-09 0)
(21.6212 -1.61812e-09 0)
(20.8101 -6.06967e-09 0)
(19.7394 -5.93041e-09 0)
(18.8695 -3.33802e-09 0)
(18.2669 3.77898e-09 0)
(18.2568 6.7484e-09 0)
(18.4835 9.98726e-09 0)
(18.8552 7.40489e-09 0)
(18.9695 6.96838e-09 0)
(19.2063 4.42682e-09 0)
(19.0875 4.66092e-09 0)
(19.1656 3.13122e-09 0)
(19.0898 3.43406e-09 0)
(19.0058 3.62264e-09 0)
(19.3021 2.12905e-09 0)
(19.0775 2.33518e-09 0)
(19.1387 1.45222e-09 0)
(18.9373 1.96221e-09 0)
(19.0518 1.33008e-09 0)
(19.0478 8.25651e-10 0)
(19.0966 3.06679e-10 0)
(19.0904 3.34209e-10 0)
(19.0991 -2.67451e-10 0)
(19.1069 -2.98596e-10 0)
(19.1393 -1.41212e-09 0)
(19.1419 -1.98436e-09 0)
(19.1633 -2.07019e-09 0)
(19.1812 -2.62937e-09 0)
(19.2447 -1.64017e-09 0)
(19.3041 -2.09372e-10 0)
(19.3718 4.51242e-10 0)
(19.504 1.02351e-09 0)
(19.7478 3.05167e-09 0)
(20.0247 3.44648e-09 0)
(19.7863 -2.7441e-09 0)
(16.9229 -6.37441e-09 0)
(11.1054 -2.22034e-09 0)
(5.82186 6.57682e-10 0)
(2.86349 1.05647e-09 0)
(1.35518 7.66685e-10 0)
(0.618411 4.3871e-10 0)
(0.270465 2.2024e-10 0)
(0.113664 9.97784e-11 0)
(0.0456956 4.13324e-11 0)
(0.0176703 1.3744e-11 0)
(0.00654634 4.87893e-12 0)
(0.00233994 1.65823e-12 0)
(0.000803061 6.27921e-13 0)
(0.000266791 1.03168e-12 0)
(8.52722e-05 1.64765e-12 0)
(2.64636e-05 1.92046e-12 0)
(7.91511e-06 2.16682e-12 0)
(2.30497e-06 1.82844e-12 0)
(6.47864e-07 8.88101e-13 0)
(1.77734e-07 -2.12209e-13 0)
(4.71275e-08 -1.45968e-13 0)
(1.22307e-08 -1.75008e-12 0)
(3.07415e-09 -3.54523e-12 0)
(7.64105e-10 -2.34864e-12 0)
(1.85937e-10 -5.03342e-12 0)
(4.83187e-11 -3.33234e-12 0)
(2.01043e-11 -5.52084e-12 0)
(2.02098e-11 -2.53643e-12 0)
(1.83882e-11 -5.89079e-12 0)
(-9.25448e-13 -3.07938e-12 0)
(9.86755e-14 -3.2706e-12 0)
(5.53517e-12 -3.00172e-12 0)
(3.21904e-11 -2.89662e-12 0)
(1.55628e-10 -1.74463e-12 0)
(6.69165e-10 -3.8136e-12 0)
(2.74867e-09 -1.02091e-12 0)
(1.09837e-08 1.35431e-12 0)
(4.24417e-08 1.53502e-12 0)
(1.60232e-07 3.13105e-12 0)
(5.84938e-07 2.38544e-12 0)
(2.08181e-06 1.89089e-12 0)
(7.15525e-06 -8.48668e-13 0)
(2.39107e-05 -9.51139e-13 0)
(7.70368e-05 -3.43613e-12 0)
(0.000240554 -4.41821e-12 0)
(0.000722725 -8.66885e-12 0)
(0.00209668 -2.33207e-11 0)
(0.00583676 -5.398e-11 0)
(0.0156193 -1.30728e-10 0)
(0.0399575 -2.9407e-10 0)
(0.0976765 -6.35586e-10 0)
(0.226829 -1.27054e-09 0)
(0.498153 -2.32058e-09 0)
(1.01736 -3.72802e-09 0)
(1.89734 -4.94963e-09 0)
(3.23605 -5.04728e-09 0)
(5.09225 -3.01619e-09 0)
(7.43117 1.79881e-09 0)
(10.1157 8.8213e-09 0)
(12.9153 1.63009e-08 0)
(15.5865 2.1776e-08 0)
(17.9627 2.39473e-08 0)
(19.9741 2.29785e-08 0)
(21.4293 1.83459e-08 0)
(21.9885 9.59444e-09 0)
(21.6212 2.39796e-09 0)
(20.8101 -2.29062e-09 0)
(19.7394 -1.94794e-09 0)
(18.8695 1.01424e-09 0)
(18.2669 8.77374e-09 0)
(18.2568 1.16315e-08 0)
(18.4835 1.45669e-08 0)
(18.8552 1.11253e-08 0)
(18.9695 9.63438e-09 0)
(19.2063 6.32706e-09 0)
(19.0875 5.83264e-09 0)
(19.1656 3.79981e-09 0)
(19.0898 3.84264e-09 0)
(19.0058 3.82364e-09 0)
(19.3021 2.18706e-09 0)
(19.0775 2.14341e-09 0)
(19.1387 1.16757e-09 0)
(18.9373 1.59817e-09 0)
(19.0518 8.40058e-10 0)
(19.0478 2.08924e-10 0)
(19.0966 -4.04778e-10 0)
(19.0904 -5.88566e-10 0)
(19.0991 -1.2926e-09 0)
(19.1069 -1.4959e-09 0)
(19.1393 -2.77356e-09 0)
(19.1419 -3.53757e-09 0)
(19.1633 -3.74477e-09 0)
(19.1812 -4.54907e-09 0)
(19.2447 -3.58236e-09 0)
(19.3041 -2.15703e-09 0)
(19.3718 -1.52944e-09 0)
(19.504 -9.382e-10 0)
(19.7478 1.45861e-09 0)
(20.0247 2.26514e-09 0)
(19.7863 -4.0231e-09 0)
(16.9229 -7.4453e-09 0)
(11.1054 -2.66609e-09 0)
(5.82186 5.77568e-10 0)
(2.86349 1.0915e-09 0)
(1.35518 8.16316e-10 0)
(0.618411 4.7741e-10 0)
(0.270465 2.4511e-10 0)
(0.113664 1.17242e-10 0)
(0.0456956 5.19925e-11 0)
(0.0176703 2.23229e-11 0)
(0.00654634 9.85346e-12 0)
(0.00233994 5.71376e-12 0)
(0.000803061 4.54209e-12 0)
(0.000266791 4.18066e-12 0)
(8.52722e-05 6.11871e-12 0)
(2.64636e-05 4.97196e-12 0)
(7.91511e-06 4.03128e-12 0)
(2.30496e-06 1.76835e-12 0)
(6.4786e-07 -2.90912e-13 0)
(1.77732e-07 -1.9879e-12 0)
(4.71245e-08 3.80883e-13 0)
(1.22239e-08 -2.09084e-12 0)
(3.0729e-09 -1.16262e-12 0)
(7.61466e-10 -2.15452e-13 0)
(1.83705e-10 5.60483e-13 0)
(4.73988e-11 1.90322e-12 0)
(2.19915e-11 4.64247e-12 0)
(1.95358e-11 1.18823e-12 0)
(1.16576e-11 -9.91559e-13 0)
(-5.52349e-13 6.12343e-12 0)
(8.74067e-13 6.79139e-12 0)
(1.93322e-12 4.19984e-12 0)
(3.01503e-11 5.05727e-12 0)
(1.52654e-10 1.02821e-12 0)
(6.6482e-10 -9.99309e-13 0)
(2.74983e-09 -2.4482e-12 0)
(1.09811e-08 -1.88739e-12 0)
(4.24392e-08 -5.26571e-12 0)
(1.6023e-07 -2.92582e-12 0)
(5.84933e-07 -4.38727e-12 0)
(2.0818e-06 -4.55951e-12 0)
(7.15525e-06 -5.03887e-12 0)
(2.39107e-05 -3.58297e-12 0)
(7.70368e-05 -3.98439e-12 0)
(0.000240554 -4.94078e-12 0)
(0.000722725 -5.15302e-12 0)
(0.00209668 -1.02445e-11 0)
(0.00583676 -1.75336e-11 0)
(0.0156193 -4.40554e-11 0)
(0.0399575 -9.66908e-11 0)
(0.0976765 -2.12637e-10 0)
(0.226829 -4.47019e-10 0)
(0.498153 -8.6658e-10 0)
(1.01736 -1.53195e-09 0)
(1.89734 -2.33707e-09 0)
(3.23605 -2.97782e-09 0)
(5.09225 -2.99115e-09 0)
(7.43117 -1.8595e-09 0)
(10.1157 7.57447e-10 0)
(12.9153 4.94057e-09 0)
(15.5865 1.00847e-08 0)
(17.9627 1.54206e-08 0)
(19.9741 2.05229e-08 0)
(21.4293 2.45542e-08 0)
(21.9885 2.62092e-08 0)
(21.6212 2.50808e-08 0)
(20.8101 2.31051e-08 0)
(19.7394 2.14934e-08 0)
(18.8695 1.88314e-08 0)
(18.2669 1.75605e-08 0)
(18.2568 1.44957e-08 0)
(18.4835 1.29204e-08 0)
(18.8552 9.72971e-09 0)
(18.9695 7.89527e-09 0)
(19.2063 4.66602e-09 0)
(19.0875 3.47168e-09 0)
(19.1656 9.80456e-10 0)
(19.0898 8.15436e-10 0)
(19.0058 -1.57094e-09 0)
(19.3021 -1.45115e-09 0)
(19.0775 -2.25661e-09 0)
(19.1387 -2.79165e-09 0)
(18.9373 -3.30683e-09 0)
(19.0518 -3.70095e-09 0)
(19.0478 -4.5135e-09 0)
(19.0966 -4.44744e-09 0)
(19.0904 -5.28566e-09 0)
(19.0991 -5.48758e-09 0)
(19.1069 -6.10178e-09 0)
(19.1393 -6.17557e-09 0)
(19.1419 -6.59323e-09 0)
(19.1633 -6.83018e-09 0)
(19.1812 -7.06675e-09 0)
(19.2447 -7.20708e-09 0)
(19.3041 -7.38071e-09 0)
(19.3718 -7.29837e-09 0)
(19.504 -7.0758e-09 0)
(19.7478 -6.72125e-09 0)
(20.0247 -6.30794e-09 0)
(19.7863 -5.82704e-09 0)
(16.9229 -4.14264e-09 0)
(11.1054 -1.63443e-09 0)
(5.82186 -3.57875e-10 0)
(2.86349 3.23091e-11 0)
(1.35518 9.64008e-11 0)
(0.618411 7.56397e-11 0)
(0.270465 4.31515e-11 0)
(0.113664 2.44808e-11 0)
(0.0456956 1.41304e-11 0)
(0.0176703 7.62936e-12 0)
(0.00654634 4.4108e-12 0)
(0.00233994 -1.72257e-13 0)
(0.000803061 6.39189e-13 0)
(0.000266791 -2.13626e-12 0)
(8.52722e-05 1.85576e-13 0)
(2.64636e-05 -1.14709e-12 0)
(7.9151e-06 -2.88402e-12 0)
(2.30496e-06 -3.46482e-12 0)
(6.47857e-07 -5.39894e-12 0)
(1.77735e-07 -4.25663e-12 0)
(4.71274e-08 -4.50128e-12 0)
(1.22277e-08 -3.57135e-12 0)
(3.07773e-09 -3.13601e-12 0)
(7.68041e-10 -2.49375e-12 0)
(1.89761e-10 -2.17433e-12 0)
(5.64629e-11 -1.41529e-13 0)
(1.88782e-11 1.79805e-12 0)
(8.94247e-12 -1.2712e-12 0)
(1.38504e-11 -2.24671e-12 0)
(4.47835e-13 -1.07367e-11 0)
(-3.85127e-12 -9.91893e-12 0)
(2.23626e-12 -8.9313e-12 0)
(2.63318e-11 -6.31407e-12 0)
(1.43062e-10 -7.23718e-12 0)
(6.62866e-10 -6.73504e-12 0)
(2.74673e-09 -5.51824e-12 0)
(1.09781e-08 -7.64852e-12 0)
(4.24402e-08 -8.58915e-12 0)
(1.60233e-07 -7.52795e-12 0)
(5.84935e-07 -9.38031e-12 0)
(2.08181e-06 -8.20671e-12 0)
(7.15525e-06 -7.35074e-12 0)
(2.39107e-05 -5.10923e-12 0)
(7.70368e-05 -3.54268e-12 0)
(0.000240554 -6.5701e-12 0)
(0.000722725 -6.70293e-12 0)
(0.00209668 -8.957e-12 0)
(0.00583676 -1.44315e-11 0)
(0.0156193 -3.1906e-11 0)
(0.0399575 -7.30566e-11 0)
(0.0976765 -1.64146e-10 0)
(0.226829 -3.48858e-10 0)
(0.498153 -6.94455e-10 0)
(1.01736 -1.25464e-09 0)
(1.89734 -1.97055e-09 0)
(3.23605 -2.6111e-09 0)
(5.09225 -2.78093e-09 0)
(7.43117 -1.88196e-09 0)
(10.1157 6.02017e-10 0)
(12.9153 4.89805e-09 0)
(15.5865 1.06165e-08 0)
(17.9627 1.71272e-08 0)
(19.9741 2.38948e-08 0)
(21.4293 3.00408e-08 0)
(21.9885 3.39422e-08 0)
(21.6212 3.40276e-08 0)
(20.8101 3.20791e-08 0)
(19.7394 2.88207e-08 0)
(18.8695 2.30764e-08 0)
(18.2669 1.79708e-08 0)
(18.2568 1.19095e-08 0)
(18.4835 8.55607e-09 0)
(18.8552 5.21337e-09 0)
(18.9695 3.77653e-09 0)
(19.2063 1.52875e-09 0)
(19.0875 7.34081e-10 0)
(19.1656 -1.48862e-09 0)
(19.0898 -1.41769e-09 0)
(19.0058 -3.59112e-09 0)
(19.3021 -3.15799e-09 0)
(19.0775 -3.94812e-09 0)
(19.1387 -4.2739e-09 0)
(18.9373 -4.36111e-09 0)
(19.0518 -4.69187e-09 0)
(19.0478 -5.47997e-09 0)
(19.0966 -5.02327e-09 0)
(19.0904 -5.63126e-09 0)
(19.0991 -5.7557e-09 0)
(19.1069 -6.32515e-09 0)
(19.1393 -6.16533e-09 0)
(19.1419 -6.61752e-09 0)
(19.1633 -6.89346e-09 0)
(19.1812 -7.15904e-09 0)
(19.2447 -7.76204e-09 0)
(19.3041 -8.71949e-09 0)
(19.3718 -9.36175e-09 0)
(19.504 -9.91096e-09 0)
(19.7478 -1.06696e-08 0)
(20.0247 -1.09637e-08 0)
(19.7863 -9.52082e-09 0)
(16.9229 -6.54846e-09 0)
(11.1054 -2.90413e-09 0)
(5.82186 -1.01158e-09 0)
(2.86349 -3.12887e-10 0)
(1.35518 -8.1681e-11 0)
(0.618411 -1.60621e-11 0)
(0.270465 -2.90939e-12 0)
(0.113664 -3.04784e-12 0)
(0.0456956 -1.9118e-12 0)
(0.0176703 -3.01546e-12 0)
(0.00654634 -2.43708e-12 0)
(0.00233994 -5.55738e-12 0)
(0.000803061 -4.23171e-12 0)
(0.000266791 -6.52657e-12 0)
(8.52722e-05 -5.4773e-12 0)
(2.64636e-05 -7.57737e-12 0)
(7.91511e-06 -5.39809e-12 0)
(2.30496e-06 -6.58939e-12 0)
(6.47859e-07 -5.80816e-12 0)
(1.77734e-07 -3.99953e-12 0)
(4.71256e-08 -6.42584e-12 0)
(1.22267e-08 -5.67107e-12 0)
(3.07514e-09 -7.48927e-12 0)
(7.62893e-10 -8.23431e-12 0)
(1.88317e-10 -9.91405e-12 0)
(5.5741e-11 -8.44481e-12 0)
(1.93822e-11 -9.43654e-12 0)
(1.16938e-11 -6.25785e-12 0)
(9.73087e-12 -6.6249e-12 0)
(7.73056e-13 2.06314e-12 0)
(4.63366e-12 1.78784e-12 0)
(8.77803e-12 4.5563e-12 0)
(3.35946e-11 2.25348e-12 0)
(1.5244e-10 4.44945e-12 0)
(6.67855e-10 4.25764e-12 0)
(2.74786e-09 5.23039e-12 0)
(1.09756e-08 1.32599e-12 0)
(4.24389e-08 3.11558e-12 0)
(1.60229e-07 -1.74988e-12 0)
(5.84931e-07 -8.2181e-13 0)
(2.08181e-06 -2.32296e-12 0)
(7.15525e-06 -6.96859e-13 0)
(2.39107e-05 -1.70376e-12 2.13188e-33)
(7.70368e-05 -1.24979e-12 0)
(0.000240554 -1.45006e-12 0)
(0.000722725 -1.76215e-12 0)
(0.00209668 -1.62639e-12 0)
(0.00583676 -2.93283e-12 0)
(0.0156193 -8.26194e-12 0)
(0.0399575 -2.02662e-11 0)
(0.0976765 -4.51384e-11 0)
(0.226829 -9.17253e-11 0)
(0.498153 -1.7967e-10 0)
(1.01736 -3.08455e-10 0)
(1.89734 -4.38501e-10 0)
(3.23605 -4.40901e-10 0)
(5.09225 -9.63876e-11 0)
(7.43117 9.51317e-10 0)
(10.1157 3.06859e-09 0)
(12.9153 6.5765e-09 0)
(15.5865 1.15604e-08 2.09383e-33)
(17.9627 1.78189e-08 0)
(19.9741 2.48928e-08 0)
(21.4293 3.2164e-08 0)
(21.9885 3.82952e-08 0)
(21.6212 4.07755e-08 -2.07994e-33)
(20.8101 4.02508e-08 0)
(19.7394 3.5851e-08 0)
(18.8695 2.72255e-08 2.08664e-33)
(18.2669 1.66056e-08 0)
(18.2568 6.05669e-09 0)
(18.4835 -9.36808e-10 0)
(18.8552 -3.86864e-09 -2.08658e-33)
(18.9695 -5.09461e-09 0)
(19.2063 -3.35572e-09 0)
(19.0875 -3.7414e-09 0)
(19.1656 -3.79488e-09 0)
(19.0898 -3.60504e-09 0)
(19.0058 -3.4223e-09 0)
(19.3021 -2.95193e-09 0)
(19.0775 -3.7726e-09 0)
(19.1387 -3.51072e-09 0)
(18.9373 -2.45805e-09 0)
(19.0518 -2.51944e-09 0)
(19.0478 -3.22423e-09 -1.0901e-33)
(19.0966 -2.5774e-09 1.09018e-33)
(19.0904 -2.63814e-09 0)
(19.0991 -2.99487e-09 0)
(19.1069 -3.99976e-09 -1.09065e-33)
(19.1393 -4.26886e-09 0)
(19.1419 -5.67369e-09 0)
(19.1633 -6.65065e-09 0)
(19.1812 -8.29277e-09 0)
(19.2447 -1.03676e-08 0)
(19.3041 -1.34081e-08 0)
(19.3718 -1.65359e-08 0)
(19.504 -1.9671e-08 0)
(19.7478 -2.24392e-08 0)
(20.0247 -2.34629e-08 0)
(19.7863 -2.05732e-08 0)
(16.9229 -1.50637e-08 1.08876e-33)
(11.1054 -7.83439e-09 0)
(5.82186 -3.52342e-09 0)
(2.86349 -1.56459e-09 0)
(1.35518 -6.7833e-10 0)
(0.618411 -2.86329e-10 0)
(0.270465 -1.16758e-10 0)
(0.113664 -4.58637e-11 0)
(0.0456956 -2.01009e-11 0)
(0.0176703 -6.60776e-12 0)
(0.00654634 -4.81132e-12 0)
(0.00233994 -1.63177e-12 0)
(0.000803061 -2.03758e-12 0)
(0.000266791 -1.38576e-12 0)
(8.52722e-05 -3.01719e-12 0)
(2.64636e-05 -3.32073e-12 0)
(7.91511e-06 -3.44468e-12 0)
(2.30496e-06 -3.64186e-12 0)
(6.47861e-07 -3.83597e-12 0)
(1.77734e-07 -3.1372e-12 0)
(4.7124e-08 -4.15096e-12 -1.06594e-33)
(1.22258e-08 -4.19842e-12 0)
(3.07303e-09 -4.08847e-12 -1.06594e-33)
(7.62822e-10 -4.81968e-12 0)
(1.89749e-10 -5.4307e-12 0)
(5.69819e-11 -5.39297e-12 0)
(2.32821e-11 -6.9923e-12 0)
(1.48072e-11 -6.00911e-12 0)
(1.24621e-11 -6.73058e-12 0)
(-7.2401e-14 5.02895e-12 0)
(1.11813e-12 5.14485e-12 0)
(2.87385e-12 2.61315e-12 0)
(2.62494e-11 1.94957e-12 0)
(1.4737e-10 2.44091e-12 0)
(6.64433e-10 2.00533e-12 0)
(2.74062e-09 3.24929e-13 0)
(1.09737e-08 -1.06266e-13 0)
(4.2434e-08 5.63443e-14 0)
(1.60226e-07 -2.36062e-12 0)
(5.84933e-07 -5.95848e-13 0)
(2.08181e-06 -2.05671e-12 0)
(7.15525e-06 2.89604e-13 0)
(2.39107e-05 -1.76477e-12 -2.13188e-33)
(7.70368e-05 -1.23432e-12 0)
(0.000240554 -6.2913e-13 0)
(0.000722725 -5.27535e-13 0)
(0.00209668 -2.27703e-14 0)
(0.00583676 -2.9457e-13 0)
(0.0156193 -2.49436e-12 0)
(0.0399575 -4.59579e-12 0)
(0.0976765 -1.09801e-11 0)
(0.226829 -1.38092e-11 0)
(0.498153 -1.04213e-11 0)
(1.01736 2.8822e-11 0)
(1.89734 1.742e-10 0)
(3.23605 5.65902e-10 0)
(5.09225 1.42041e-09 0)
(7.43117 3.03739e-09 0)
(10.1157 5.73618e-09 0)
(12.9153 9.74223e-09 0)
(15.5865 1.50128e-08 -2.09383e-33)
(17.9627 2.12097e-08 0)
(19.9741 2.79129e-08 0)
(21.4293 3.42656e-08 0)
(21.9885 3.86186e-08 0)
(21.6212 3.80861e-08 2.07994e-33)
(20.8101 3.48317e-08 0)
(19.7394 2.83925e-08 0)
(18.8695 1.84593e-08 -2.08664e-33)
(18.2669 8.0795e-09 0)
(18.2568 -9.96886e-11 0)
(18.4835 -4.7588e-09 0)
(18.8552 -5.36164e-09 2.08658e-33)
(18.9695 -4.20961e-09 0)
(19.2063 -2.18525e-09 0)
(19.0875 -1.52145e-09 0)
(19.1656 -5.2849e-10 0)
(19.0898 -5.24009e-10 0)
(19.0058 -5.48678e-10 0)
(19.3021 -2.69802e-10 0)
(19.0775 -6.35348e-10 0)
(19.1387 -6.5744e-10 0)
(18.9373 -8.48024e-11 0)
(19.0518 2.56129e-10 0)
(19.0478 -3.47117e-10 1.0901e-33)
(19.0966 -5.94787e-11 -1.09018e-33)
(19.0904 1.55022e-11 0)
(19.0991 -1.72233e-10 0)
(19.1069 -1.21192e-09 1.09065e-33)
(19.1393 -1.6312e-09 0)
(19.1419 -3.04474e-09 0)
(19.1633 -3.95911e-09 0)
(19.1812 -5.71856e-09 0)
(19.2447 -7.7754e-09 0)
(19.3041 -1.06558e-08 0)
(19.3718 -1.41027e-08 0)
(19.504 -1.81598e-08 0)
(19.7478 -2.23505e-08 0)
(20.0247 -2.54044e-08 0)
(19.7863 -2.55675e-08 0)
(16.9229 -2.13177e-08 -1.08876e-33)
(11.1054 -1.20268e-08 0)
(5.82186 -5.67848e-09 0)
(2.86349 -2.63869e-09 0)
(1.35518 -1.19296e-09 0)
(0.618411 -5.24221e-10 0)
(0.270465 -2.21754e-10 0)
(0.113664 -9.05851e-11 0)
(0.0456956 -3.74729e-11 0)
(0.0176703 -1.38793e-11 0)
(0.00654634 -5.23878e-12 0)
(0.00233994 -1.66301e-12 0)
(0.000803061 -2.51936e-12 0)
(0.000266791 -6.90232e-13 0)
(8.52722e-05 -2.26447e-12 0)
(2.64636e-05 -7.70302e-13 0)
(7.91511e-06 -1.70142e-12 0)
(2.30496e-06 -1.61931e-12 0)
(6.47861e-07 -3.41378e-12 0)
(1.77733e-07 -5.19868e-12 0)
(4.71235e-08 -5.02352e-12 1.06594e-33)
(1.22268e-08 -4.05808e-12 0)
(3.07384e-09 -1.78798e-12 1.06594e-33)
(7.60783e-10 1.34188e-12 0)
(1.8728e-10 2.80173e-12 0)
(5.25577e-11 4.29829e-12 0)
(1.8546e-11 1.70228e-12 0)
(1.13845e-11 2.08589e-12 0)
(9.00017e-12 1.31286e-13 0)
(1.09711e-12 -1.92738e-12 0)
(9.68406e-27 -1.20454e-12 0)
(2.57199e-12 -1.12105e-12 0)
(3.31766e-11 -3.3865e-13 0)
(1.52554e-10 3.07733e-12 0)
(6.63427e-10 2.94509e-12 0)
(2.74412e-09 5.29928e-12 0)
(1.09749e-08 7.68151e-12 0)
(4.24346e-08 8.86941e-12 0)
(1.60228e-07 1.14607e-11 0)
(5.84932e-07 1.0285e-11 0)
(2.08181e-06 1.04199e-11 0)
(7.15525e-06 8.61075e-12 0)
(2.39107e-05 9.02151e-12 0)
(7.70368e-05 5.58568e-12 0)
(0.000240554 6.70264e-12 0)
(0.000722725 5.51561e-12 0)
(0.00209668 8.14014e-12 0)
(0.00583676 6.73651e-12 0)
(0.0156193 1.27473e-11 0)
(0.0399575 2.26223e-11 0)
(0.0976765 5.59376e-11 0)
(0.226829 1.36254e-10 0)
(0.498153 3.33683e-10 0)
(1.01736 7.70768e-10 0)
(1.89734 1.64529e-09 0)
(3.23605 3.213e-09 0)
(5.09225 5.78764e-09 0)
(7.43117 9.63063e-09 0)
(10.1157 1.4824e-08 0)
(12.9153 2.11166e-08 0)
(15.5865 2.78294e-08 0)
(17.9627 3.40487e-08 0)
(19.9741 3.94865e-08 0)
(21.4293 4.25488e-08 0)
(21.9885 4.08503e-08 0)
(21.6212 3.08795e-08 0)
(20.8101 1.87316e-08 0)
(19.7394 5.32852e-09 0)
(18.8695 -8.97939e-09 0)
(18.2669 -1.81637e-08 0)
(18.2568 -1.74049e-08 0)
(18.4835 -1.30409e-08 0)
(18.8552 -6.24389e-09 0)
(18.9695 2.45269e-09 0)
(19.2063 2.89538e-09 0)
(19.0875 6.73525e-09 0)
(19.1656 9.78777e-09 0)
(19.0898 8.91472e-09 0)
(19.0058 7.4787e-09 0)
(19.3021 6.59995e-09 0)
(19.0775 7.3924e-09 0)
(19.1387 6.3902e-09 0)
(18.9373 4.73588e-09 0)
(19.0518 6.06967e-09 0)
(19.0478 6.37727e-09 0)
(19.0966 5.11861e-09 0)
(19.0904 5.23216e-09 0)
(19.0991 5.99956e-09 0)
(19.1069 4.95645e-09 0)
(19.1393 4.4855e-09 0)
(19.1419 3.51307e-09 0)
(19.1633 2.93286e-09 0)
(19.1812 1.42249e-09 0)
(19.2447 -7.85026e-10 0)
(19.3041 -3.07404e-09 0)
(19.3718 -7.10948e-09 0)
(19.504 -1.37955e-08 0)
(19.7478 -2.36253e-08 0)
(20.0247 -3.48634e-08 0)
(19.7863 -4.66359e-08 0)
(16.9229 -4.7438e-08 0)
(11.1054 -2.98904e-08 0)
(5.82186 -1.49833e-08 0)
(2.86349 -7.29257e-09 0)
(1.35518 -3.4247e-09 0)
(0.618411 -1.55399e-09 0)
(0.270465 -6.73688e-10 0)
(0.113664 -2.81401e-10 0)
(0.0456956 -1.09116e-10 0)
(0.0176703 -3.90253e-11 0)
(0.00654634 -1.01443e-11 0)
(0.00233994 -7.90433e-13 0)
(0.000803061 2.23015e-12 0)
(0.000266791 4.80961e-12 0)
(8.52722e-05 6.30326e-12 0)
(2.64636e-05 7.18351e-12 0)
(7.91511e-06 7.7177e-12 0)
(2.30495e-06 7.48859e-12 0)
(6.47855e-07 6.91633e-12 0)
(1.77731e-07 5.55396e-12 0)
(4.71265e-08 4.69983e-12 0)
(1.22319e-08 5.32741e-12 0)
(3.08359e-09 5.10359e-12 0)
(7.72368e-10 5.66715e-12 0)
(1.95093e-10 4.85024e-12 0)
(5.5305e-11 6.00518e-12 0)
(1.86556e-11 8.08083e-12 0)
(1.1757e-11 5.12101e-12 0)
(9.16031e-12 4.28668e-12 0)
(1.63311e-12 -4.50521e-12 0)
(2.6911e-12 -3.56954e-12 0)
(4.96764e-12 -1.40948e-12 0)
(3.41756e-11 -2.15743e-13 0)
(1.53607e-10 -8.84576e-14 0)
(6.68354e-10 2.68701e-12 0)
(2.75025e-09 4.92677e-12 0)
(1.09809e-08 7.3271e-12 0)
(4.24414e-08 1.10374e-11 0)
(1.60228e-07 1.24103e-11 0)
(5.84932e-07 1.26255e-11 0)
(2.0818e-06 1.15094e-11 0)
(7.15525e-06 9.86989e-12 0)
(2.39107e-05 7.76442e-12 0)
(7.70368e-05 9.14851e-12 0)
(0.000240554 5.66333e-12 0)
(0.000722725 6.79985e-12 0)
(0.00209668 6.39757e-12 0)
(0.00583676 7.52592e-12 0)
(0.0156193 1.65793e-11 0)
(0.0399575 3.36078e-11 0)
(0.0976765 8.18018e-11 0)
(0.226829 1.94601e-10 0)
(0.498153 4.62978e-10 0)
(1.01736 1.04578e-09 0)
(1.89734 2.16973e-09 0)
(3.23605 4.10534e-09 0)
(5.09225 7.15521e-09 0)
(7.43117 1.1484e-08 0)
(10.1157 1.69961e-08 0)
(12.9153 2.31558e-08 0)
(15.5865 2.89906e-08 0)
(17.9627 3.34203e-08 0)
(19.9741 3.63414e-08 0)
(21.4293 3.62452e-08 0)
(21.9885 3.13291e-08 0)
(21.6212 1.97828e-08 0)
(20.8101 7.74354e-09 0)
(19.7394 -3.37032e-09 0)
(18.8695 -1.34523e-08 0)
(18.2669 -1.75915e-08 0)
(18.2568 -1.3747e-08 0)
(18.4835 -7.82855e-09 0)
(18.8552 -1.90223e-09 0)
(18.9695 5.46448e-09 0)
(19.2063 4.01967e-09 0)
(19.0875 7.35695e-09 0)
(19.1656 9.33106e-09 0)
(19.0898 8.39393e-09 0)
(19.0058 6.92824e-09 0)
(19.3021 6.21422e-09 0)
(19.0775 7.21964e-09 0)
(19.1387 5.83039e-09 0)
(18.9373 3.94901e-09 0)
(19.0518 5.12132e-09 0)
(19.0478 5.66285e-09 0)
(19.0966 4.03293e-09 0)
(19.0904 3.81546e-09 0)
(19.0991 4.74565e-09 0)
(19.1069 3.94435e-09 0)
(19.1393 3.83446e-09 0)
(19.1419 3.56234e-09 0)
(19.1633 3.08994e-09 0)
(19.1812 2.70899e-09 0)
(19.2447 5.79912e-10 0)
(19.3041 -1.19991e-09 0)
(19.3718 -3.37666e-09 0)
(19.504 -7.46828e-09 0)
(19.7478 -1.64837e-08 0)
(20.0247 -2.87752e-08 0)
(19.7863 -4.50888e-08 0)
(16.9229 -5.1302e-08 0)
(11.1054 -3.45189e-08 0)
(5.82186 -1.79543e-08 0)
(2.86349 -8.96823e-09 0)
(1.35518 -4.29703e-09 0)
(0.618411 -1.98681e-09 0)
(0.270465 -8.79986e-10 0)
(0.113664 -3.7627e-10 0)
(0.0456956 -1.53176e-10 0)
(0.0176703 -6.04524e-11 0)
(0.00654634 -2.26586e-11 0)
(0.00233994 -9.70848e-12 0)
(0.000803061 -3.54591e-12 0)
(0.000266791 -2.45175e-12 0)
(8.52722e-05 1.99063e-13 0)
(2.64636e-05 4.37734e-13 0)
(7.91511e-06 5.06706e-13 0)
(2.30496e-06 8.77345e-13 0)
(6.47856e-07 1.34308e-12 0)
(1.77729e-07 2.16323e-12 0)
(4.71232e-08 2.26532e-12 0)
(1.22274e-08 4.74268e-12 0)
(3.07424e-09 1.6217e-12 0)
(7.60168e-10 2.60779e-12 0)
(1.87581e-10 4.14857e-13 0)
(5.88776e-11 2.33259e-12 0)
(1.66902e-11 2.1197e-12 0)
(4.42309e-12 3.12816e-12 0)
(6.72546e-12 2.67933e-12 0)
(2.89487e-12 -3.92892e-12 0)
(5.22221e-12 -1.95862e-12 0)
(9.1815e-12 -3.19353e-12 0)
(3.57824e-11 1.68741e-13 0)
(1.58159e-10 -1.34175e-12 0)
(6.73673e-10 2.69489e-12 0)
(2.75306e-09 1.0396e-12 0)
(1.09867e-08 1.36248e-12 0)
(4.24446e-08 1.71164e-12 0)
(1.60231e-07 1.0574e-12 0)
(5.84931e-07 1.32599e-12 0)
(2.0818e-06 7.44446e-13 0)
(7.15525e-06 2.14838e-12 0)
(2.39107e-05 2.2418e-12 0)
(7.70368e-05 4.85466e-12 0)
(0.000240554 4.68504e-12 0)
(0.000722725 4.73176e-12 0)
(0.00209668 4.31721e-12 0)
(0.00583676 1.13282e-11 0)
(0.0156193 2.77888e-11 0)
(0.0399575 7.57257e-11 0)
(0.0976765 1.92118e-10 0)
(0.226829 4.67696e-10 0)
(0.498153 1.0848e-09 0)
(1.01736 2.37838e-09 0)
(1.89734 4.77609e-09 0)
(3.23605 8.75024e-09 0)
(5.09225 1.47192e-08 0)
(7.43117 2.27178e-08 0)
(10.1157 3.20263e-08 0)
(12.9153 4.09319e-08 0)
(15.5865 4.70319e-08 0)
(17.9627 4.84991e-08 0)
(19.9741 4.5865e-08 0)
(21.4293 3.78439e-08 0)
(21.9885 2.35826e-08 0)
(21.6212 4.77326e-09 0)
(20.8101 -1.14059e-08 0)
(19.7394 -1.89574e-08 0)
(18.8695 -1.77123e-08 0)
(18.2669 -7.07346e-09 0)
(18.2568 3.49177e-09 0)
(18.4835 1.23234e-08 0)
(18.8552 1.08296e-08 0)
(18.9695 1.23422e-08 0)
(19.2063 1.52951e-09 0)
(19.0875 4.09068e-09 0)
(19.1656 -3.52262e-09 0)
(19.0898 -5.76329e-11 0)
(19.0058 -7.31096e-09 0)
(19.3021 -3.28407e-09 0)
(19.0775 -6.50568e-10 0)
(19.1387 -1.47179e-09 0)
(18.9373 -2.97314e-09 0)
(19.0518 -6.72673e-09 0)
(19.0478 -3.05945e-09 0)
(19.0966 -4.38643e-09 0)
(19.0904 -5.71723e-09 0)
(19.0991 -5.09655e-09 0)
(19.1069 -2.52724e-09 0)
(19.1393 -1.34353e-09 0)
(19.1419 2.13764e-09 0)
(19.1633 2.13047e-09 0)
(19.1812 7.53691e-09 0)
(19.2447 6.99501e-09 0)
(19.3041 6.72694e-09 0)
(19.3718 1.23488e-08 0)
(19.504 2.06308e-08 0)
(19.7478 1.4376e-08 0)
(20.0247 -8.71146e-09 0)
(19.7863 -5.52613e-08 0)
(16.9229 -9.93239e-08 0)
(11.1054 -8.21723e-08 0)
(5.82186 -4.47e-08 0)
(2.86349 -2.26804e-08 0)
(1.35518 -1.10286e-08 0)
(0.618411 -5.20331e-09 0)
(0.270465 -2.37206e-09 0)
(0.113664 -1.04815e-09 0)
(0.0456956 -4.45324e-10 0)
(0.0176703 -1.84561e-10 0)
(0.00654634 -7.44758e-11 0)
(0.00233994 -3.20701e-11 0)
(0.000803061 -1.60746e-11 0)
(0.000266791 -1.32766e-11 0)
(8.52722e-05 -1.01922e-11 0)
(2.64636e-05 -1.10741e-11 0)
(7.91511e-06 -1.01657e-11 0)
(2.30496e-06 -1.15182e-11 0)
(6.47858e-07 -9.90705e-12 0)
(1.77733e-07 -9.1557e-12 0)
(4.71315e-08 -5.61013e-12 0)
(1.22309e-08 -2.67233e-12 0)
(3.07952e-09 -3.59713e-13 0)
(7.69648e-10 -1.63382e-12 0)
(1.94789e-10 1.36869e-12 0)
(5.86539e-11 -8.89466e-14 0)
(2.05612e-11 1.10014e-12 0)
(1.26881e-11 4.81626e-12 0)
(8.42996e-12 6.74782e-12 0)
(5.41197e-12 5.06457e-12 0)
(4.46843e-12 6.23875e-12 0)
(9.56043e-12 4.66636e-12 0)
(3.75878e-11 6.42238e-12 0)
(1.58642e-10 5.68873e-12 0)
(6.72693e-10 6.6495e-12 0)
(2.74857e-09 5.4038e-12 0)
(1.09819e-08 4.06117e-12 0)
(4.24407e-08 3.34796e-12 0)
(1.60227e-07 2.04504e-12 0)
(5.84931e-07 1.80156e-12 0)
(2.0818e-06 2.38339e-12 0)
(7.15525e-06 2.44966e-12 0)
(2.39107e-05 5.06135e-12 0)
(7.70368e-05 2.29172e-12 0)
(0.000240554 7.12974e-12 0)
(0.000722725 4.27049e-12 0)
(0.00209668 6.27407e-12 0)
(0.00583676 1.06984e-11 0)
(0.0156193 2.40764e-11 0)
(0.0399575 6.23278e-11 0)
(0.0976765 1.61489e-10 0)
(0.226829 3.91489e-10 0)
(0.498153 9.08965e-10 0)
(1.01736 1.98451e-09 0)
(1.89734 3.97939e-09 0)
(3.23605 7.28613e-09 0)
(5.09225 1.2252e-08 0)
(7.43117 1.89132e-08 0)
(10.1157 2.66604e-08 0)
(12.9153 3.40561e-08 0)
(15.5865 3.90967e-08 0)
(17.9627 4.03306e-08 0)
(19.9741 3.82359e-08 0)
(21.4293 3.18855e-08 0)
(21.9885 2.06071e-08 0)
(21.6212 5.59621e-09 0)
(20.8101 -7.7518e-09 0)
(19.7394 -1.41098e-08 0)
(18.8695 -1.3071e-08 0)
(18.2669 -4.52528e-09 0)
(18.2568 3.69294e-09 0)
(18.4835 1.07176e-08 0)
(18.8552 8.77648e-09 0)
(18.9695 9.89774e-09 0)
(19.2063 4.71894e-10 0)
(19.0875 2.81474e-09 0)
(19.1656 -4.53203e-09 0)
(19.0898 -7.93408e-10 0)
(19.0058 -7.81493e-09 0)
(19.3021 -3.9316e-09 0)
(19.0775 -1.73158e-09 0)
(19.1387 -1.99805e-09 0)
(18.9373 -3.141e-09 0)
(19.0518 -7.07292e-09 0)
(19.0478 -3.63893e-09 0)
(19.0966 -4.53136e-09 0)
(19.0904 -5.68577e-09 0)
(19.0991 -5.37186e-09 0)
(19.1069 -2.88237e-09 0)
(19.1393 -1.97907e-09 0)
(19.1419 1.03709e-09 0)
(19.1633 1.01981e-09 0)
(19.1812 5.68821e-09 0)
(19.2447 5.53502e-09 0)
(19.3041 5.38693e-09 0)
(19.3718 1.0227e-08 0)
(19.504 1.75893e-08 0)
(19.7478 1.26868e-08 0)
(20.0247 -7.02109e-09 0)
(19.7863 -4.68416e-08 0)
(16.9229 -8.57289e-08 0)
(11.1054 -7.16356e-08 0)
(5.82186 -3.88398e-08 0)
(2.86349 -1.96205e-08 0)
(1.35518 -9.51327e-09 0)
(0.618411 -4.47926e-09 0)
(0.270465 -2.0395e-09 0)
(0.113664 -8.98294e-10 0)
(0.0456956 -3.78506e-10 0)
(0.0176703 -1.536e-10 0)
(0.00654635 -5.90235e-11 0)
(0.00233994 -2.15865e-11 0)
(0.000803061 -8.88066e-12 0)
(0.000266791 -5.28165e-12 0)
(8.52722e-05 -3.67105e-12 0)
(2.64636e-05 -3.65228e-12 0)
(7.91511e-06 -4.20217e-12 0)
(2.30496e-06 -3.71271e-12 0)
(6.47861e-07 -3.24459e-12 0)
(1.77738e-07 -1.85849e-12 0)
(4.71358e-08 -8.77516e-13 0)
(1.22377e-08 2.99448e-13 0)
(3.07615e-09 2.55726e-12 0)
(7.6374e-10 -1.31969e-12 0)
(1.90956e-10 -4.46953e-13 0)
(5.7733e-11 -3.42009e-12 0)
(2.61483e-11 -9.73462e-13 0)
(1.57369e-11 -4.2988e-13 0)
(1.08307e-11 6.98257e-13 0)
)
;

boundaryField
{
    sides1
    {
        type            zeroGradient;
    }
    sides2
    {
        type            slip;
    }
    empty
    {
        type            empty;
    }
}


// ************************************************************************* //
