/*--------------------------------*- C++ -*----------------------------------*\
| =========                 |                                                 |
| \\      /  F ield         | OpenFOAM: The Open Source CFD Toolbox           |
|  \\    /   O peration     | Version:  2012                                  |
|   \\  /    A nd           | Website:  www.openfoam.com                      |
|    \\/     M anipulation  |                                                 |
\*---------------------------------------------------------------------------*/
FoamFile
{
    version     2.0;
    format      ascii;
    class       volScalarField;
    location    "0.12";
    object      minKappa;
}
// * * * * * * * * * * * * * * * * * * * * * * * * * * * * * * * * * * * * * //

dimensions      [0 0 0 0 0 0 0];


internalField   nonuniform List<scalar> 
2268
(
2.01148e-06
4.55386e-06
7.31535e-06
1.02693e-05
1.32349e-05
1.64154e-05
1.96459e-05
2.31076e-05
2.67478e-05
3.05748e-05
3.47275e-05
3.91674e-05
4.38136e-05
4.86519e-05
5.40489e-05
6.00649e-05
6.6769e-05
7.3088e-05
7.67095e-05
7.71852e-05
8.52683e-05
0.000181767
0.000600576
2.01148e-06
4.55386e-06
7.31535e-06
1.02693e-05
1.32349e-05
1.64154e-05
1.96459e-05
2.31076e-05
2.67478e-05
3.05748e-05
3.47275e-05
3.91674e-05
4.38136e-05
4.86519e-05
5.40489e-05
6.00649e-05
6.6769e-05
7.22546e-05
7.52593e-05
7.71852e-05
8.52683e-05
0.000197776
0.00123787
3.05401e-06
5.10722e-06
7.67543e-06
1.05291e-05
1.34376e-05
1.65797e-05
1.97827e-05
2.32241e-05
2.68496e-05
3.06677e-05
3.48064e-05
3.92372e-05
4.39033e-05
4.87959e-05
5.43024e-05
6.04843e-05
6.71193e-05
7.13862e-05
7.4075e-05
7.91568e-05
0.000187191
0.000831506
0.00187619
4.27622e-06
5.91649e-06
8.23903e-06
1.09469e-05
1.37676e-05
1.68492e-05
2.00084e-05
2.34169e-05
2.70173e-05
3.08219e-05
3.49397e-05
3.93534e-05
4.40413e-05
4.90126e-05
5.46558e-05
6.10597e-05
6.72134e-05
7.0517e-05
7.4075e-05
0.000130492
0.00069264
0.0015039
0.00268924
5.54885e-06
6.88812e-06
8.96461e-06
1.15022e-05
1.42133e-05
1.72158e-05
2.03167e-05
2.36807e-05
2.72447e-05
3.10302e-05
3.51218e-05
3.95098e-05
4.42136e-05
4.92795e-05
5.50743e-05
6.16005e-05
6.6798e-05
7.0517e-05
9.92993e-05
0.000544258
0.0014034
0.00176759
0.00340173
6.83571e-06
7.95729e-06
9.81214e-06
1.21725e-05
1.47611e-05
1.76706e-05
2.07012e-05
2.40116e-05
2.75281e-05
3.12876e-05
3.53502e-05
3.97064e-05
4.44214e-05
4.95852e-05
5.55464e-05
6.19907e-05
6.61609e-05
8.06153e-05
0.000394674
0.00125953
0.00182291
0.00142462
0.00373996
8.12226e-06
9.08246e-06
1.07469e-05
1.29343e-05
1.53948e-05
1.82024e-05
2.11523e-05
2.44018e-05
2.78613e-05
3.15863e-05
3.56178e-05
3.99418e-05
4.46669e-05
4.99172e-05
5.60453e-05
6.19699e-05
6.61609e-05
0.000204952
0.00102234
0.00177116
0.00163688
0.00116085
0.00380729
9.40097e-06
1.0238e-05
1.1742e-05
1.37674e-05
1.61001e-05
1.88014e-05
2.16634e-05
2.48476e-05
2.82443e-05
3.19279e-05
3.59294e-05
4.02245e-05
4.49645e-05
5.02885e-05
5.65121e-05
6.19699e-05
7.9222e-05
0.000648287
0.00158094
0.00186817
0.00163688
0.00116085
0.0039585
0.000114804
2.05851e-05
1.80906e-05
3.56351e-05
7.37999e-05
7.22335e-05
0.000104406
8.7521e-05
0.000106664
8.55336e-05
9.39467e-05
7.31419e-05
7.47511e-05
5.55421e-05
5.31722e-05
3.55097e-05
3.10335e-05
1.47078e-05
9.76587e-06
0.000114804
2.05851e-05
1.80906e-05
3.56351e-05
7.37999e-05
7.22335e-05
0.000104406
8.7521e-05
0.000106664
8.55336e-05
9.39467e-05
7.31419e-05
7.47511e-05
5.55421e-05
5.31722e-05
3.55097e-05
3.10335e-05
1.47078e-05
9.76587e-06
0.000130182
4.42233e-05
2.46237e-05
4.72987e-05
7.8167e-05
7.43201e-05
0.000106478
8.82972e-05
0.00010751
8.5982e-05
9.44008e-05
7.35765e-05
7.51621e-05
5.60974e-05
5.37281e-05
3.63871e-05
3.20142e-05
1.67315e-05
1.25847e-05
0.000164862
7.4196e-05
2.46237e-05
6.32568e-05
8.45496e-05
7.93743e-05
0.00011024
9.09389e-05
0.000109488
8.7559e-05
9.55768e-05
7.47697e-05
7.61256e-05
5.72907e-05
5.48331e-05
3.79849e-05
3.3725e-05
1.97979e-05
1.63862e-05
0.00020835
0.000113006
3.91523e-05
8.14996e-05
9.48077e-05
8.46781e-05
0.000115064
9.3346e-05
0.000111694
8.90406e-05
9.68348e-05
7.60204e-05
7.72111e-05
5.86921e-05
5.61846e-05
3.99784e-05
3.58802e-05
2.33711e-05
2.05389e-05
0.000280224
0.000160329
6.01433e-05
0.000104389
0.000108173
9.30306e-05
0.000121704
9.76652e-05
0.000114941
9.16091e-05
9.87672e-05
7.79915e-05
7.88247e-05
6.06789e-05
5.80402e-05
4.25448e-05
3.85839e-05
2.73642e-05
2.49362e-05
0.000349897
0.0002084
8.56642e-05
0.000127458
0.000125232
0.000101313
0.00012917
0.000101709
0.000118366
9.4138e-05
0.000100774
8.00347e-05
8.05466e-05
6.28453e-05
6.00985e-05
4.53889e-05
4.15759e-05
3.15337e-05
2.94101e-05
0.0004354
0.000273681
0.00012891
0.000156207
0.000147192
0.000112937
0.00013839
0.000107571
0.000122655
9.76499e-05
0.000103385
8.27369e-05
8.27619e-05
6.55265e-05
6.26027e-05
4.86611e-05
4.49563e-05
3.5907e-05
3.39999e-05
1.66781e-05
1.78406e-05
1.99882e-05
2.29294e-05
2.63872e-05
3.04479e-05
3.47804e-05
3.96545e-05
4.4865e-05
5.05495e-05
5.67553e-05
6.3431e-05
7.08474e-05
7.92729e-05
8.88465e-05
9.62799e-05
0.000257387
0.001732
0.00273655
0.00229611
0.00222896
0.00199669
0.00371305
2.83018e-05
2.9576e-05
3.20439e-05
3.54952e-05
3.94692e-05
4.38576e-05
4.88871e-05
5.45504e-05
6.09e-05
6.7845e-05
7.55197e-05
8.39872e-05
9.33482e-05
0.000104032
0.000114907
0.000204452
0.00133366
0.00298195
0.00235007
0.00163167
0.00230467
0.00312645
0.00468465
3.36964e-05
3.47546e-05
3.68862e-05
3.98983e-05
4.36542e-05
4.76529e-05
5.22927e-05
5.75801e-05
6.36062e-05
7.02332e-05
7.76215e-05
8.58216e-05
9.50279e-05
0.000105156
0.000125289
0.000408575
0.00245956
0.00234962
0.00170748
0.00151169
0.00210023
0.00304303
0.00420318
3.88275e-05
3.97335e-05
4.16134e-05
4.42881e-05
4.7664e-05
5.14894e-05
5.57832e-05
6.07232e-05
6.64304e-05
7.27355e-05
7.98279e-05
8.77102e-05
9.66947e-05
0.000105835
0.000211016
0.00151163
0.00236495
0.00139696
0.00148931
0.00148931
0.00221008
0.00255202
0.00342022
4.36537e-05
4.44483e-05
4.61287e-05
4.8541e-05
5.15919e-05
5.51728e-05
5.91571e-05
6.3789e-05
6.91738e-05
7.51749e-05
8.19304e-05
8.95002e-05
9.80232e-05
0.000106098
0.000280558
0.00224805
0.00153323
0.000839622
0.00126735
0.00173217
0.00222903
0.00217084
0.00256728
4.81391e-05
4.88502e-05
5.03675e-05
5.2572e-05
5.53479e-05
5.87058e-05
6.2415e-05
6.67692e-05
7.18296e-05
7.75381e-05
8.39226e-05
9.12045e-05
9.90471e-05
0.000164032
0.00105781
0.00209819
0.00118536
0.000839622
0.0014125
0.0018201
0.00211942
0.00191324
0.00193621
5.22535e-05
5.2899e-05
5.42803e-05
5.63114e-05
5.88614e-05
6.19232e-05
6.5396e-05
6.94966e-05
7.42689e-05
7.97027e-05
8.57589e-05
9.27522e-05
9.9881e-05
0.000219205
0.00165118
0.00149746
0.000721965
0.00114855
0.00175484
0.00176668
0.00198747
0.00174469
0.0015762
5.59736e-05
5.6567e-05
5.78344e-05
5.97172e-05
6.20876e-05
6.48891e-05
6.81601e-05
7.20113e-05
7.6523e-05
8.16549e-05
8.74252e-05
9.4028e-05
0.000100553
0.000265131
0.00207103
0.00120806
0.000721965
0.00122661
0.00178519
0.00167341
0.00180417
0.0016078
0.0013234
5.92767e-05
5.98298e-05
6.09944e-05
6.27528e-05
6.49194e-05
6.74369e-05
7.05284e-05
7.41488e-05
7.84479e-05
8.32985e-05
8.88688e-05
9.5076e-05
0.00013671
0.000798826
0.00172024
0.000677193
0.0010531
0.00153792
0.00169758
0.00155883
0.00166785
0.00149428
0.00117801
6.21501e-05
6.26772e-05
6.3744e-05
6.5413e-05
6.73412e-05
6.97088e-05
7.26318e-05
7.60387e-05
8.01176e-05
8.46718e-05
9.00246e-05
9.57864e-05
0.000181355
0.00127267
0.00125169
0.000559555
0.00105991
0.00148369
0.00161003
0.00145218
0.00153698
0.00138912
0.00104713
6.45806e-05
6.50948e-05
6.60622e-05
6.75689e-05
6.92621e-05
7.14814e-05
7.42232e-05
7.74513e-05
8.13135e-05
8.56509e-05
9.07537e-05
9.6224e-05
0.000223326
0.00171766
0.00128275
0.000559555
0.00134404
0.00140093
0.00153144
0.00137657
0.00143959
0.00130358
0.000972091
6.65697e-05
6.7079e-05
6.79547e-05
6.92659e-05
7.0865e-05
7.29659e-05
7.554e-05
7.86068e-05
8.22172e-05
8.63457e-05
9.10844e-05
9.62888e-05
0.000252205
0.00165521
0.000755382
0.00109476
0.00148025
0.00138241
0.00142807
0.00132847
0.00133721
0.0012365
0.00089091
6.81268e-05
6.86266e-05
6.93218e-05
7.04316e-05
7.19111e-05
7.38872e-05
7.63112e-05
7.93078e-05
8.29715e-05
8.80511e-05
9.59895e-05
0.000108492
0.000347973
0.00136206
0.000259517
0.000993488
0.00135335
0.00138241
0.0013593
0.00130416
0.00126998
0.00118832
0.000844059
7.09047e-05
7.15867e-05
7.25966e-05
7.48669e-05
7.72293e-05
8.19376e-05
8.72799e-05
0.000102126
0.000117395
0.000152561
0.000187755
0.000291164
0.00153035
0.00106158
0.000159535
0.000774114
0.00128381
0.0013467
0.00131192
0.00127151
0.00120669
0.00114184
0.000792158
0.000145267
0.000149589
0.000155634
0.000170846
0.000186828
0.000224168
0.000271533
0.000453171
0.000636087
0.000948221
0.0012126
0.00170585
0.0021878
0.00110339
0.000159535
0.000930711
0.00128381
0.00134791
0.00128062
0.0012328
0.00116092
0.00109827
0.000760244
0.000948181
0.000975059
0.00101115
0.00109466
0.00117084
0.00118657
0.00130145
0.00149239
0.00162828
0.00177269
0.00191422
0.00210264
0.0018795
0.00126886
0.000495119
0.00120769
0.00135677
0.00136647
0.00127257
0.00119923
0.00112025
0.00105088
0.000722682
0.00138821
0.00139002
0.00140477
0.0014279
0.00146631
0.00151264
0.00157858
0.0016536
0.00177404
0.00193178
0.00203961
0.00184419
0.00147688
0.00118821
0.000878783
0.00142504
0.00146197
0.00136704
0.00125072
0.00116497
0.00108203
0.00101049
0.000695363
0.00136105
0.00136799
0.00139203
0.00141252
0.00145309
0.00149769
0.00156648
0.00165949
0.00181288
0.00200928
0.0021847
0.00182802
0.00122456
0.00118821
0.00131435
0.00180912
0.00154572
0.00136674
0.00123934
0.00112915
0.00104268
0.000965689
0.000662069
0.00131173
0.00132152
0.00134759
0.00136868
0.00141665
0.00146515
0.00154685
0.00164906
0.00182258
0.00206286
0.00231734
0.00224108
0.00172857
0.0011953
0.00198546
0.00187652
0.0015675
0.00134844
0.00121237
0.0010859
0.00100152
0.000921642
0.000633686
0.00126219
0.00126965
0.00129318
0.00131058
0.00136283
0.00139625
0.0014822
0.00156142
0.00172376
0.00192825
0.00221507
0.00238369
0.00219088
0.00201998
0.00211875
0.00176141
0.00145519
0.0012733
0.00113916
0.0010265
0.00094391
0.000870551
0.000598354
0.00120768
0.00121144
0.0012323
0.00124596
0.00129182
0.00131907
0.00139599
0.00144563
0.00156797
0.0016747
0.00187314
0.00202774
0.00211474
0.00202764
0.00184244
0.00153716
0.00131221
0.00117114
0.00105436
0.000955999
0.000881255
0.000818016
0.000562325
0.00114427
0.00114724
0.00116488
0.00117478
0.0012126
0.00123279
0.00129588
0.00133062
0.001418
0.00147102
0.00157824
0.00164353
0.00169504
0.00165005
0.00149696
0.00131385
0.00116622
0.00105886
0.000966691
0.000881198
0.00082263
0.000763299
0.000529258
0.00108045
0.0010823
0.00109611
0.00110142
0.00112994
0.00114027
0.00118684
0.00120618
0.00127032
0.00129728
0.00136242
0.00138239
0.00138812
0.00135062
0.00124477
0.00113672
0.00103169
0.00095285
0.000884619
0.000805547
0.000762111
0.000706152
0.000493025
0.00101708
0.00101795
0.00102891
0.00103147
0.00105323
0.00105703
0.00108987
0.00109507
0.00113584
0.00114262
0.0011794
0.00118132
0.00116981
0.00113917
0.00106007
0.000991705
0.000909572
0.000854946
0.000800081
0.000732804
0.000701087
0.000650218
0.000459081
0.000952429
0.000952338
0.000960454
0.000960168
0.000976723
0.000975604
0.00099966
0.0009965
0.00102304
0.00101722
0.00103362
0.00102375
0.00100399
0.000976024
0.000917254
0.000868842
0.000805948
0.000767783
0.000717463
0.00066648
0.000641835
0.000596239
0.000425331
0.000892725
0.000891745
0.00089704
0.000893911
0.000904624
0.000898759
0.000913793
0.000904638
0.00091943
0.00090762
0.000911517
0.000897752
0.00087424
0.000850008
0.000803051
0.000766828
0.00071737
0.000687595
0.00064143
0.000605261
0.000583131
0.000544858
0.000392665
0.0008341
0.000832646
0.000836242
0.000831447
0.00083838
0.000829573
0.000838247
0.000825035
0.000831224
0.000815435
0.00081072
0.000793581
0.000769833
0.000746181
0.000708207
0.000678145
0.000638997
0.00061384
0.000574407
0.000549182
0.000527624
0.000497401
0.000361293
0.000780535
0.000778515
0.000780112
0.000773766
0.000776811
0.000765799
0.000768842
0.000753382
0.000752823
0.000735123
0.000725044
0.00070648
0.000682284
0.00066018
0.000627812
0.000602334
0.000569912
0.000547746
0.000515059
0.000496365
0.000475501
0.000452955
0.000331555
0.000730554
0.000728184
0.000728417
0.000721034
0.000721253
0.000708687
0.000707534
0.000690533
0.000685158
0.000665941
0.0006522
0.000632222
0.000609067
0.00058706
0.000558615
0.000535586
0.000507754
0.000487825
0.000461098
0.000446341
0.00042748
0.000411372
0.000302729
0.000685146
0.00068251
0.000681437
0.000673337
0.000670954
0.000657454
0.000652682
0.000634741
0.000625519
0.000605424
0.000589374
0.000568447
0.000545267
0.000523684
0.000497896
0.000476675
0.000452254
0.00043436
0.000412184
0.000399688
0.000383341
0.000371962
0.000276086
0.000644129
0.000641271
0.000639163
0.000630476
0.000626061
0.000611831
0.000604312
0.000585687
0.000573677
0.000552671
0.000534855
0.000513146
0.000490586
0.00046881
0.000444622
0.000424191
0.000402109
0.000385487
0.000366714
0.0003558
0.000342167
0.000334305
0.00024999
0.000607461
0.000604468
0.000601463
0.000592425
0.000586251
0.000571558
0.000561718
0.000542545
0.00052825
0.000506606
0.000487497
0.000464901
0.000442046
0.000420013
0.000396885
0.000377056
0.000356573
0.000341007
0.00032473
0.00031506
0.000304
0.000298616
0.000226013
0.000575151
0.000572026
0.000568261
0.000558888
0.00055126
0.000536168
0.000524457
0.000504804
0.000488723
0.000466309
0.000446009
0.000422749
0.000399887
0.000377357
0.000354583
0.000334662
0.000315059
0.000300031
0.000285407
0.000276689
0.000267859
0.000264474
0.000202623
0.000546964
0.000543752
0.000539349
0.00052975
0.000520915
0.000505473
0.00049221
0.000472085
0.000454487
0.000431438
0.000410111
0.000385883
0.00036235
0.000339037
0.000316253
0.000296069
0.00027691
0.000262083
0.000248613
0.000240714
0.000233827
0.000232146
0.000180877
0.000522871
0.000519564
0.000514596
0.000504759
0.000494875
0.000479108
0.000464525
0.000443936
0.000424269
0.000401208
0.000378252
0.000353794
0.000329706
0.000305542
0.000282271
0.000261285
0.000241931
0.000226818
0.000213943
0.00020659
0.000201336
0.000201256
0.000160058
0.000502644
0.000499253
0.000493819
0.000483766
0.000472315
0.000456895
0.000439132
0.000419325
0.000397928
0.000374796
0.000350653
0.000325309
0.000300214
0.000275698
0.000251594
0.000229528
0.000209594
0.00019382
0.000181117
0.000174129
0.00017035
0.000171907
0.000140462
0.000486287
0.000482777
0.000476882
0.000466579
0.000453402
0.000437146
0.000418301
0.000397157
0.000374197
0.000349615
0.000324447
0.000298826
0.000273638
0.000248841
0.000224905
0.000201339
0.000180189
0.000163142
0.000149993
0.000143053
0.000140601
0.000143969
0.000122129
0.000473658
0.000469889
0.000461566
0.000450414
0.00043621
0.000419496
0.000400304
0.000378992
0.00035586
0.000331023
0.000304953
0.000277759
0.000250563
0.000223766
0.000198542
0.000175423
0.00015343
0.000134514
0.000120282
0.000113024
0.000111949
0.000117519
0.000105038
0.000464735
0.00045973
0.000451261
0.000439774
0.000425107
0.000407645
0.000387455
0.000364904
0.000340386
0.000314264
0.000287211
0.000259427
0.000231611
0.000203951
0.000177395
0.000152535
0.000130263
0.000108714
9.23226e-05
8.40466e-05
8.44436e-05
9.29607e-05
8.97214e-05
0.000456878
0.000451597
0.000442758
0.000430843
0.000415719
0.000397831
0.00037725
0.000354369
0.000329442
0.00030275
0.000274766
0.000245764
0.000216444
0.000187104
0.00015861
0.000131469
0.000106994
8.56938e-05
6.58047e-05
5.54289e-05
5.81521e-05
7.11546e-05
7.65132e-05
0.000453824
0.000448779
0.000440107
0.000428138
0.000412792
0.000394463
0.000373255
0.000349552
0.000323671
0.00029598
0.000266971
0.000236934
0.00020644
0.000175717
0.000145437
0.000115961
8.83297e-05
6.40031e-05
4.53217e-05
2.83912e-05
3.52282e-05
5.31583e-05
6.64768e-05
0.000451341
0.000446
0.000437077
0.000424989
0.000409649
0.000391443
0.000370436
0.000346984
0.000321332
0.000293789
0.000264772
0.000234553
0.000203666
0.000172327
0.000141094
0.000110147
8.00239e-05
5.11302e-05
2.6195e-05
1.99715e-05
1.99715e-05
3.63237e-05
5.96395e-05
0.00134164
0.000912336
0.000817225
0.000817225
0.00209001
0.00108709
0.000361896
0.000361896
0.00225197
0.00171687
0.00126565
0.00122329
0.00200773
0.00168881
0.00139433
0.00139433
0.00159234
0.00145308
0.00129196
0.00129196
0.00119869
0.00112907
0.00104797
0.00104797
0.000973962
0.000924404
0.000875544
0.000875544
0.000816481
0.000778075
0.000739149
0.000739149
0.000729037
0.00069875
0.000668553
0.000668553
0.000647197
0.000621034
0.000595222
0.000595222
0.000602278
0.000580787
0.00055904
0.00055904
0.000552013
0.000533225
0.000513832
0.000513832
0.000524722
0.000508775
0.000491678
0.000491678
0.00049241
0.000476848
0.000460863
0.000460863
0.000473035
0.000458556
0.000444032
0.000444032
0.000448928
0.00043447
0.00042034
0.00042034
0.000431997
0.000418529
0.000405246
0.000405246
0.000410537
0.000397266
0.00038421
0.00038421
0.000392832
0.000380661
0.000368373
0.000368373
0.000370853
0.000359422
0.000347807
0.000347807
0.000349459
0.000339412
0.000329353
0.000329353
0.000329481
0.000320325
0.000311228
0.000311228
0.000307478
0.000299486
0.00029168
0.00029168
0.000287131
0.000280426
0.000273822
0.000273822
0.000266576
0.000260917
0.000255307
0.000255307
0.000246766
0.000242187
0.000237606
0.000237606
0.000227621
0.000223934
0.000220224
0.000220224
0.00020946
0.000206565
0.000203695
0.000203695
0.000191785
0.000189592
0.000187498
0.000187498
0.000175392
0.000173803
0.000172386
0.000172386
0.000159258
0.000158252
0.000157456
0.000157456
0.000144431
0.000143974
0.000143717
0.000143717
0.000129906
0.000129906
0.00012995
0.000130194
0.000116467
0.000116467
0.000117039
0.00011779
0.000103559
0.000103559
0.000104602
0.000105829
9.15155e-05
9.15155e-05
9.30983e-05
9.48504e-05
8.02493e-05
8.02493e-05
8.23334e-05
8.45873e-05
6.9893e-05
6.9893e-05
7.25728e-05
7.53921e-05
6.06795e-05
6.06795e-05
6.39352e-05
6.72967e-05
5.29198e-05
5.29198e-05
5.68079e-05
6.07251e-05
4.71214e-05
4.71214e-05
5.15343e-05
5.58952e-05
4.38342e-05
4.38342e-05
4.8587e-05
5.32114e-05
0.000640573
0.000514868
0.000293044
0.000278527
0.000269854
0.000193152
0.00023126
0.000177094
0.000198582
0.000158151
0.000165763
0.000133705
0.000133
0.000106894
0.000102061
8.15081e-05
7.58649e-05
6.30795e-05
6.03487e-05
0.000435031
0.000968918
0.000801794
0.000512976
0.000492484
0.000333309
0.000364498
0.000277394
0.00029461
0.000237146
0.000240946
0.000198334
0.000194086
0.000160948
0.000153115
0.000128324
0.000120759
0.000106381
0.000103099
0.00168233
0.00116063
0.0008968
0.000610672
0.000539598
0.000398182
0.00040105
0.000314632
0.00031879
0.000260473
0.000257691
0.000216349
0.00020899
0.000178211
0.000169254
0.000147302
0.000139782
0.000127717
0.000124701
0.00199702
0.00132894
0.00109903
0.000705951
0.00064
0.000462571
0.000446939
0.000351898
0.000343074
0.00028498
0.000275419
0.000235685
0.000225035
0.000196496
0.000186272
0.000166713
0.000159066
0.000148747
0.000145861
0.00189304
0.00138528
0.00107667
0.000807162
0.000679455
0.000528858
0.000485397
0.000392291
0.000369234
0.000312405
0.000295654
0.000257488
0.000243385
0.000216708
0.000205095
0.000187363
0.000179402
0.000170303
0.000167435
0.00158934
0.00131002
0.00105726
0.000823424
0.000710762
0.000558754
0.000505278
0.000419026
0.000388075
0.000334452
0.000312883
0.000277068
0.00026044
0.000235862
0.000223213
0.000207246
0.000199053
0.000191029
0.000188177
0.00136044
0.00121933
0.000999397
0.000839642
0.00071735
0.00059449
0.000528156
0.000449969
0.000410118
0.000359681
0.000332801
0.000298884
0.000279448
0.000256378
0.000242488
0.00022773
0.000219154
0.000211834
0.000208918
0.00115795
0.00114112
0.000946985
0.000832759
0.000708642
0.000608676
0.000539083
0.000468523
0.000424767
0.000378407
0.000348644
0.000317299
0.000296207
0.000274967
0.000260343
0.000246879
0.000238093
0.000231472
0.000228532
0.00106051
0.0010703
0.000902695
0.000814125
0.000697783
0.000623612
0.000547585
0.000488076
0.000439274
0.000397918
0.000365018
0.000336207
0.000313395
0.000293672
0.000278254
0.000265753
0.000256697
0.000250571
0.000247582
0.000949623
0.00100998
0.000864278
0.000794802
0.000685751
0.000627729
0.000551906
0.000500038
0.00044995
0.000412633
0.000378485
0.000352093
0.000328494
0.000310338
0.000294571
0.000283062
0.000273913
0.000268281
0.000265283
0.000898525
0.000957071
0.00083211
0.000771537
0.000674166
0.000624713
0.000553842
0.000510238
0.000458809
0.000426192
0.000390814
0.000367033
0.000342716
0.000326056
0.000309991
0.000299338
0.000290113
0.000284886
0.000281882
0.000828034
0.000909782
0.000802059
0.000749223
0.000661739
0.000618553
0.000552465
0.000515371
0.000465535
0.000436045
0.000401101
0.000379318
0.000355124
0.000339755
0.000323787
0.000313929
0.000304793
0.000299947
0.000296979
0.000795681
0.000868509
0.000775789
0.000726436
0.00064923
0.00060935
0.000549437
0.000518001
0.000470266
0.000443944
0.00040964
0.000389906
0.000365991
0.000351897
0.000336118
0.000327007
0.000318007
0.000313511
0.000310594
0.000746108
0.000830668
0.000748924
0.000704256
0.00063533
0.000599274
0.000544474
0.000515988
0.000473256
0.000448962
0.000416396
0.000398135
0.00037515
0.000362074
0.000346815
0.000338352
0.000329633
0.000325453
0.000322625
0.000720142
0.000796898
0.000724625
0.000682477
0.000621126
0.000587619
0.000538176
0.000511755
0.000473534
0.000452097
0.000421241
0.000404508
0.000382525
0.000370476
0.000355806
0.000347978
0.000339582
0.000335708
0.000332983
0.000681205
0.000764405
0.000698786
0.000660795
0.000605175
0.000575042
0.000530066
0.000506105
0.000470972
0.000452244
0.000424388
0.000408843
0.000388239
0.000377039
0.000363187
0.00035591
0.000347948
0.000344349
0.00034176
0.000657589
0.00073443
0.000674113
0.000639433
0.000589117
0.000561467
0.000520862
0.000498892
0.00046698
0.000449747
0.000425451
0.000411434
0.000392172
0.000381859
0.000368839
0.000362123
0.000354611
0.000351288
0.00034884
0.000622935
0.000703921
0.000647898
0.000617204
0.0005714
0.000546835
0.000509942
0.000490319
0.000461287
0.000445753
0.000423546
0.000411613
0.00039456
0.000385037
0.000372974
0.000366769
0.000359781
0.000356712
0.000354434
0.000598208
0.000673956
0.00062292
0.000595108
0.000553894
0.000531568
0.000498458
0.000480625
0.000454519
0.000440437
0.000420374
0.000409538
0.000394736
0.00038663
0.000375503
0.000369827
0.000363357
0.000360548
0.000358425
0.000565272
0.000641554
0.000596342
0.000571286
0.000534787
0.000514875
0.000485475
0.000469619
0.000446302
0.000433772
0.000415756
0.000406088
0.000392735
0.000385656
0.000376473
0.000371516
0.000365601
0.000363038
0.000361116
0.000536821
0.000610619
0.000571225
0.000548207
0.000516252
0.000498173
0.000472327
0.000458045
0.000437448
0.000426219
0.000410231
0.000401594
0.000389694
0.000383378
0.000375162
0.000371017
0.000366197
0.000364138
0.000362369
0.000507807
0.000578169
0.000544197
0.000523578
0.000496021
0.000480071
0.000457711
0.000445213
0.000427298
0.000417501
0.000403505
0.000395965
0.000385486
0.000379961
0.000372693
0.000369062
0.000364782
0.00036297
0.000361518
0.000477152
0.000546893
0.000518095
0.000499945
0.000476408
0.000462402
0.000443231
0.000432296
0.000416866
0.000408325
0.000396212
0.00038966
0.00038055
0.000375757
0.000369411
0.000366254
0.000362497
0.000360917
0.000359677
0.000448915
0.000515675
0.000491204
0.000475606
0.000455694
0.000443814
0.000427632
0.000418431
0.000405393
0.000398232
0.000387957
0.000382463
0.000374695
0.000370669
0.000365232
0.000362574
0.000359346
0.000358028
0.00035698
0.000419487
0.000484805
0.000464572
0.000451715
0.0004353
0.000425572
0.0004122
0.000404661
0.000393849
0.000387976
0.000379415
0.000374904
0.000368399
0.000365086
0.000360512
0.000358321
0.000355604
0.00035452
0.000353641
0.000391441
0.000454792
0.000438222
0.00042804
0.000414664
0.00040706
0.000396243
0.000390416
0.000381693
0.000377171
0.00037025
0.000366766
0.000361482
0.000358913
0.000355181
0.000353478
0.000351257
0.000350415
0.000349693
0.000363708
0.000425513
0.000412287
0.000404787
0.000394329
0.000388867
0.000380489
0.000376352
0.0003696
0.000366376
0.000360992
0.000358491
0.000354356
0.000352493
0.000349554
0.000348311
0.000346558
0.000345939
0.000345365
0.00033727
0.000397205
0.000386956
0.000382115
0.000374283
0.000370916
0.000364754
0.000362271
0.00035734
0.000355417
0.000351481
0.000349971
0.000346925
0.000345776
0.000343597
0.000342817
0.000341511
0.000341116
0.000340685
0.000311209
0.000369897
0.000362412
0.000360108
0.000354757
0.000353422
0.000349373
0.000348506
0.000345303
0.000344641
0.000342068
0.000341507
0.000339487
0.00033902
0.000337555
0.000337213
0.000336326
0.000336142
0.000335848
0.000286804
0.000343573
0.000338733
0.000338858
0.000335827
0.000336457
0.000334368
0.000335064
0.000333466
0.000334023
0.000332721
0.000333089
0.000332034
0.000332235
0.000331441
0.00033153
0.000331041
0.000331061
0.000330899
0.000262646
0.000318325
0.000316124
0.000318474
0.000317679
0.000320159
0.000319938
0.000322123
0.000322047
0.000323772
0.000323668
0.000324919
0.000324761
0.000325596
0.000325427
0.000325925
0.000325802
0.000326025
0.000325981
0.000240451
0.000294224
0.000294636
0.000299046
0.000300401
0.000304629
0.00030617
0.000309766
0.000311107
0.000313938
0.000314945
0.000317036
0.000317715
0.000319156
0.000319567
0.000320456
0.000320671
0.000321091
0.000321157
0.000218617
0.00027135
0.000274374
0.000280681
0.000284132
0.00028998
0.000293201
0.000298113
0.000300789
0.000304655
0.000306699
0.000309575
0.000311025
0.000313029
0.000313973
0.000315228
0.000315754
0.000316357
0.000316523
0.000198695
0.00024995
0.000255469
0.000263559
0.000269001
0.000276355
0.000281149
0.000287279
0.000291187
0.000296008
0.000299001
0.000302602
0.000304758
0.000307283
0.000308715
0.000310307
0.000311117
0.000311887
0.000312146
0.000179472
0.000230042
0.000237959
0.000247752
0.000255091
0.000263837
0.000270104
0.000277347
0.000282392
0.000288081
0.000291942
0.0002962
0.000298996
0.000301994
0.000303865
0.000305764
0.000306831
0.000307754
0.000308097
0.000161961
0.000211927
0.00022208
0.000233503
0.000242584
0.000252607
0.000260208
0.000268449
0.000274513
0.000280976
0.000285607
0.00029045
0.000293812
0.000297229
0.000299489
0.000301659
0.000302951
0.000304006
0.000304422
0.000145597
0.000195714
0.000207945
0.000220901
0.000231557
0.000242729
0.000251518
0.000260638
0.0002676
0.000274737
0.000280044
0.000285395
0.000289251
0.000293035
0.000295634
0.000298043
0.000299535
0.000300709
0.000301191
0.000131099
0.00018174
0.00019584
0.000210193
0.000222213
0.000234384
0.000244182
0.000254048
0.000261766
0.000269469
0.000275341
0.000281116
0.000285384
0.000289473
0.000292352
0.000294956
0.00029661
0.000297879
0.000298415
0.000118381
0.000170251
0.000185942
0.000201488
0.000214624
0.000227617
0.00023823
0.000248698
0.000257024
0.000265182
0.000271509
0.000277627
0.000282228
0.000286563
0.000289672
0.000292438
0.000294227
0.000295577
0.000296158
0.000108203
0.000161614
0.000178541
0.000195007
0.000208974
0.000222578
0.000233787
0.000244695
0.000253464
0.000261953
0.000268612
0.000274981
0.000279828
0.000284348
0.00028763
0.000290522
0.00029242
0.000293836
0.000294455
0.000100751
0.000155986
0.000173694
0.000190749
0.000205236
0.000219232
0.000230821
0.000242017
0.000251074
0.000259783
0.000266661
0.000273196
0.000278206
0.000282847
0.00028624
0.00028921
0.000291172
0.000292624
0.000293265
9.6627e-05
0.000155986
0.000173694
0.000190749
0.000205236
0.000219232
0.000230821
0.000242017
0.000251074
0.000259783
0.000266661
0.000273196
0.000278206
0.000282847
0.00028624
0.00028921
0.000291172
0.000292624
0.000293265
)
;

boundaryField
{
    leftWall
    {
        type            calculated;
        value           uniform 0;
    }
    rightWall
    {
        type            calculated;
        value           uniform 0;
    }
    lowerWall
    {
        type            calculated;
        value           uniform 0;
    }
    atmosphere
    {
        type            calculated;
        value           uniform 0;
    }
    defaultFaces
    {
        type            empty;
    }
}


// ************************************************************************* //
