/*--------------------------------*- C++ -*----------------------------------*\
| =========                 |                                                 |
| \\      /  F ield         | OpenFOAM: The Open Source CFD Toolbox           |
|  \\    /   O peration     | Version:  2012                                  |
|   \\  /    A nd           | Website:  www.openfoam.com                      |
|    \\/     M anipulation  |                                                 |
\*---------------------------------------------------------------------------*/
FoamFile
{
    version     2.0;
    format      ascii;
    class       surfaceScalarField;
    location    "0.12";
    object      phi;
}
// * * * * * * * * * * * * * * * * * * * * * * * * * * * * * * * * * * * * * //

dimensions      [0 3 -1 0 0 0 0];
oriented        oriented;


internalField   nonuniform List<scalar> 
4432
(
5.74463e-06
-5.74464e-06
1.15322e-05
-5.7876e-06
1.74241e-05
-5.89185e-06
2.34527e-05
-6.02868e-06
2.9676e-05
-6.22331e-06
3.61598e-05
-6.48379e-06
4.29094e-05
-6.74963e-06
5.00784e-05
-7.16892e-06
5.75986e-05
-7.5202e-06
6.5648e-05
-8.04943e-06
7.43056e-05
-8.65763e-06
8.34623e-05
-9.15666e-06
9.29919e-05
-9.52967e-06
0.000103256
-1.02643e-05
0.000114692
-1.14359e-05
0.000127483
-1.27907e-05
0.000141205
-1.37224e-05
0.00015214
-1.09346e-05
0.000156276
-4.13625e-06
0.00015538
8.95496e-07
0.000149082
6.29801e-06
0.000132922
1.6124e-05
0.000130344
5.73419e-06
-1.14788e-05
1.15122e-05
-1.15656e-05
1.73924e-05
-1.17721e-05
2.34099e-05
-1.20462e-05
2.96213e-05
-1.24347e-05
3.60939e-05
-1.29563e-05
4.283e-05
-1.34858e-05
4.99874e-05
-1.43263e-05
5.7498e-05
-1.50308e-05
6.55291e-05
-1.60805e-05
7.41703e-05
-1.72989e-05
8.33434e-05
-1.83298e-05
9.29342e-05
-1.91204e-05
0.000103317
-2.06474e-05
0.00011492
-2.30383e-05
0.000127819
-2.56898e-05
0.00014048
-2.63837e-05
0.000149735
-2.01891e-05
0.000154006
-8.40774e-06
0.000155431
-5.27072e-07
0.000152943
8.77089e-06
0.000139624
2.92734e-05
0.000268475
5.71327e-06
-1.71921e-05
1.14709e-05
-1.73232e-05
1.73284e-05
-1.76297e-05
2.33234e-05
-1.80411e-05
2.95105e-05
-1.86219e-05
3.59602e-05
-1.9406e-05
4.26685e-05
-2.01941e-05
4.98e-05
-2.14579e-05
5.72909e-05
-2.25217e-05
6.52871e-05
-2.40768e-05
7.38921e-05
-2.59038e-05
8.30802e-05
-2.75179e-05
9.27509e-05
-2.87911e-05
0.000103284
-3.11806e-05
0.000115195
-3.49489e-05
0.000128194
-3.86893e-05
0.000139629
-3.78183e-05
0.000147294
-2.78541e-05
0.000151933
-1.30472e-05
0.0001555
-4.09555e-06
0.000156084
8.10481e-06
0.000143509
4.17844e-05
0.000412142
5.68236e-06
-2.28745e-05
1.14082e-05
-2.30491e-05
1.72337e-05
-2.34551e-05
2.31954e-05
-2.40028e-05
2.93466e-05
-2.47731e-05
3.57629e-05
-2.58223e-05
4.24306e-05
-2.68618e-05
4.95218e-05
-2.85491e-05
5.69832e-05
-2.99831e-05
6.4933e-05
-3.20266e-05
7.34809e-05
-3.44517e-05
8.26682e-05
-3.67052e-05
9.24359e-05
-3.85588e-05
0.000103136
-4.18807e-05
0.000115341
-4.71539e-05
0.000128084
-5.14327e-05
0.000138299
-4.8033e-05
0.000145232
-3.47869e-05
0.000151073
-1.81173e-05
0.000156175
-9.20017e-06
0.000157773
6.49195e-06
0.000144359
5.526e-05
0.000556865
5.64059e-06
-2.85151e-05
1.13233e-05
-2.87317e-05
1.71053e-05
-2.92372e-05
2.30221e-05
-2.99196e-05
2.91236e-05
-3.08745e-05
3.54932e-05
-3.21919e-05
4.21052e-05
-3.34739e-05
4.91361e-05
-3.55799e-05
5.65515e-05
-3.73986e-05
6.44402e-05
-3.99153e-05
7.29084e-05
-4.29199e-05
8.20648e-05
-4.58615e-05
9.19051e-05
-4.83991e-05
0.000102751
-5.27269e-05
0.000115087
-5.94897e-05
0.000127355
-6.37007e-05
0.000136625
-5.73026e-05
0.000143922
-4.14382e-05
0.000151358
-2.55531e-05
0.000157835
-1.56087e-05
0.000158129
6.28759e-06
0.000137385
7.60471e-05
0.000694389
5.58876e-06
-3.41038e-05
1.12181e-05
-3.43611e-05
1.69462e-05
-3.49653e-05
2.28077e-05
-3.57811e-05
2.88475e-05
-3.69143e-05
3.51588e-05
-3.85032e-05
4.17046e-05
-4.00197e-05
4.86589e-05
-4.25342e-05
5.60125e-05
-4.47522e-05
6.38316e-05
-4.77344e-05
7.22052e-05
-5.12936e-05
8.1308e-05
-5.49643e-05
9.11996e-05
-5.82907e-05
0.000102186
-6.37138e-05
0.000114473
-7.17762e-05
0.000126027
-7.52551e-05
0.0001351
-6.6375e-05
0.000143413
-4.97501e-05
0.000152927
-3.50132e-05
0.000159947
-2.2466e-05
0.000151369
1.4906e-05
0.000111596
0.000115834
0.000806014
5.52512e-06
-3.9629e-05
1.10893e-05
-3.99253e-05
1.67507e-05
-4.06268e-05
2.25442e-05
-4.15746e-05
2.85078e-05
-4.28779e-05
3.47447e-05
-4.47401e-05
4.12092e-05
-4.64842e-05
4.80671e-05
-4.93921e-05
5.53354e-05
-5.20205e-05
6.3068e-05
-5.5467e-05
7.13353e-05
-5.95609e-05
8.03619e-05
-6.39909e-05
9.02425e-05
-6.81713e-05
0.000101303
-7.47747e-05
0.000113263
-8.37352e-05
0.000124064
-8.60567e-05
0.000133578
-7.42335e-05
0.000143666
-5.98068e-05
0.000155226
-4.6391e-05
0.000161287
-2.84255e-05
0.000131673
4.45243e-05
7.08943e-05
0.000176618
0.000876933
5.45155e-06
-4.50805e-05
1.09411e-05
-4.54148e-05
1.65255e-05
-4.62112e-05
2.2242e-05
-4.72911e-05
2.81195e-05
-4.87554e-05
3.42714e-05
-5.08921e-05
4.06489e-05
-5.28617e-05
4.74018e-05
-5.6145e-05
5.45727e-05
-5.91914e-05
6.22172e-05
-6.31116e-05
7.03751e-05
-6.77189e-05
7.93187e-05
-7.29345e-05
8.91668e-05
-7.80194e-05
0.000100175
-8.57826e-05
0.000111445
-9.5006e-05
0.000122064
-9.66753e-05
0.000131896
-8.40647e-05
0.000144144
-7.19069e-05
0.000156271
-5.83328e-05
0.000152417
-2.45453e-05
0.000106255
9.06825e-05
2.63838e-05
0.000256495
0.00090332
-5.37677e-06
5.37726e-06
-2.95476e-07
-5.08065e-06
1.17234e-06
-1.46734e-06
5.55796e-06
-4.385e-06
7.53308e-06
-1.97464e-06
9.33499e-06
-1.80138e-06
1.00013e-05
-6.6582e-07
1.02746e-05
-2.72867e-07
1.0049e-05
2.26089e-07
9.49164e-06
5.57772e-07
8.74754e-06
7.44549e-07
7.81206e-06
9.35886e-07
6.81887e-06
9.93623e-07
5.72781e-06
1.09146e-06
4.62461e-06
1.10362e-06
3.47627e-06
1.14874e-06
2.32849e-06
1.1482e-06
1.16367e-06
1.16522e-06
1.1641e-06
-5.25947e-06
1.06373e-05
-1.72096e-07
-1.01674e-05
1.51875e-06
-3.15769e-06
5.87378e-06
-8.73941e-06
7.81279e-06
-3.91316e-06
9.59058e-06
-3.57865e-06
1.02041e-05
-1.27886e-06
1.0431e-05
-4.99297e-07
1.01616e-05
4.95973e-07
9.5739e-06
1.14589e-06
8.80334e-06
1.51556e-06
7.85188e-06
1.88775e-06
6.84529e-06
2.00065e-06
5.74641e-06
2.19074e-06
4.63674e-06
2.21371e-06
3.4844e-06
2.30147e-06
2.33323e-06
2.29979e-06
1.16595e-06
2.33289e-06
2.33046e-06
-8.491e-06
1.91287e-05
-1.85269e-06
-1.6805e-05
7.75024e-07
-5.78496e-06
5.587e-06
-1.35508e-05
7.83166e-06
-6.15735e-06
9.60236e-06
-5.34883e-06
1.027e-05
-1.946e-06
1.04423e-05
-6.71225e-07
1.01791e-05
7.5965e-07
9.57007e-06
1.75537e-06
8.80325e-06
2.28282e-06
7.84466e-06
2.84675e-06
6.83977e-06
3.00596e-06
5.739e-06
3.29191e-06
4.63071e-06
3.32243e-06
3.47894e-06
3.45363e-06
2.32959e-06
3.44958e-06
1.16397e-06
3.4989e-06
3.49484e-06
-8.22231e-06
2.73517e-05
-1.66454e-06
-2.33621e-05
1.74729e-06
-9.19628e-06
6.63592e-06
-1.84387e-05
8.7534e-06
-8.27434e-06
1.03724e-05
-6.96725e-06
1.08692e-05
-2.44239e-06
1.09068e-05
-7.08346e-07
1.05072e-05
1.15972e-06
9.80964e-06
2.45337e-06
8.96539e-06
3.12751e-06
7.96107e-06
3.85146e-06
6.91728e-06
4.05018e-06
5.79382e-06
4.41577e-06
4.66645e-06
4.45022e-06
3.50292e-06
4.61755e-06
2.34354e-06
4.60938e-06
1.17069e-06
4.67214e-06
4.66594e-06
-1.53979e-05
4.27499e-05
-5.15294e-06
-3.36064e-05
4.26796e-07
-1.47756e-05
6.18495e-06
-2.41962e-05
8.9065e-06
-1.09954e-05
1.04186e-05
-8.47885e-06
1.09957e-05
-3.01903e-06
1.09231e-05
-6.35308e-07
1.05391e-05
1.54419e-06
9.80001e-06
3.19289e-06
8.96175e-06
3.9662e-06
7.94324e-06
4.87038e-06
6.90281e-06
5.09105e-06
5.77634e-06
5.54262e-06
4.65245e-06
5.57453e-06
3.49072e-06
5.77967e-06
2.33548e-06
5.76505e-06
1.16636e-06
5.84164e-06
5.83272e-06
-1.40176e-05
5.67683e-05
-3.60885e-06
-4.40144e-05
2.56267e-06
-2.09466e-05
8.1562e-06
-2.97891e-05
1.05713e-05
-1.341e-05
1.17621e-05
-9.66915e-06
1.20026e-05
-3.25905e-06
1.16842e-05
-3.16419e-07
1.1062e-05
2.16687e-06
1.01819e-05
4.07342e-06
9.2189e-06
4.92961e-06
8.12924e-06
5.96044e-06
7.02689e-06
6.19383e-06
5.86464e-06
6.70527e-06
4.71013e-06
6.72948e-06
3.52955e-06
6.96065e-06
2.35806e-06
6.93696e-06
1.17726e-06
7.02284e-06
7.01039e-06
-2.29433e-05
7.9712e-05
-6.24596e-06
-6.07109e-05
2.10323e-06
-2.92954e-05
8.08138e-06
-3.57665e-05
1.10504e-05
-1.63786e-05
1.19098e-05
-1.05281e-05
1.21876e-05
-3.5363e-06
1.17005e-05
1.71026e-07
1.11001e-05
2.76778e-06
1.01602e-05
5.0137e-06
9.20394e-06
5.88634e-06
8.09461e-06
7.07017e-06
6.9979e-06
7.29097e-06
5.83287e-06
7.8707e-06
4.68489e-06
7.87789e-06
3.50828e-06
8.13765e-06
2.34412e-06
8.10154e-06
1.16987e-06
8.19747e-06
8.18067e-06
-1.40114e-05
9.37247e-05
-3.42852e-07
-7.43786e-05
7.86808e-06
-3.75058e-05
1.17301e-05
-3.96278e-05
1.37007e-05
-1.83487e-05
1.38753e-05
-1.07021e-05
1.35693e-05
-3.22979e-06
1.27136e-05
1.02718e-06
1.17768e-05
3.705e-06
1.06568e-05
6.13409e-06
9.5378e-06
7.00581e-06
8.33871e-06
8.26965e-06
7.16137e-06
8.46875e-06
5.95027e-06
9.08219e-06
4.76181e-06
9.06677e-06
3.56039e-06
9.33946e-06
2.37444e-06
9.2879e-06
1.18456e-06
9.38775e-06
9.36563e-06
1.1329e-05
-5.64095e-05
2.27359e-05
-5.68218e-05
3.43326e-05
-5.78079e-05
4.62104e-05
-5.91689e-05
5.83994e-05
-6.09444e-05
7.11609e-05
-6.36536e-05
8.43967e-05
-6.60975e-05
9.83708e-05
-7.01191e-05
0.000113217
-7.40374e-05
0.00012908
-7.89747e-05
0.000145986
-8.46252e-05
0.000164502
-9.14497e-05
0.000185065
-9.85829e-05
0.00020744
-0.000108158
0.000228246
-0.000115812
0.00025335
-0.000111497
0.000274615
-0.000105268
0.000300004
-9.66989e-05
0.00030061
-5.87989e-05
0.000267469
8.60357e-06
0.000163379
0.000194769
7.14739e-05
0.00034841
0.000871172
0.000103646
1.08675e-05
-6.72771e-05
2.18086e-05
-6.77628e-05
3.29177e-05
-6.89171e-05
4.43011e-05
-7.05524e-05
5.59582e-05
-7.26015e-05
6.81449e-05
-7.58403e-05
8.07969e-05
-7.87495e-05
9.41081e-05
-8.34303e-05
0.000108238
-8.81676e-05
0.000123332
-9.40687e-05
0.000139475
-0.000100768
0.000157019
-0.000108993
0.000176753
-0.000118317
0.000197198
-0.000128603
0.000217235
-0.000134684
0.000239096
-0.00013335
0.000263739
-0.000129255
0.000282222
-0.000114932
0.000245641
-2.22109e-05
0.000176839
7.74131e-05
0.000113662
0.00025795
0.00010933
0.000352746
0.000729033
0.000251495
1.03205e-05
-7.75976e-05
2.07115e-05
-7.81538e-05
3.12433e-05
-7.94489e-05
4.20362e-05
-8.13453e-05
5.30668e-05
-8.36321e-05
6.45683e-05
-8.73418e-05
7.65056e-05
-9.06868e-05
8.90395e-05
-9.59642e-05
0.000102267
-0.000101396
0.000116396
-0.000108197
0.00013145
-0.000115823
0.000147784
-0.000125327
0.00016592
-0.000136453
0.000183952
-0.000146635
0.000202002
-0.000152735
0.000224135
-0.000155025
0.000245276
-0.000149935
0.000231755
-0.000101388
0.000151306
5.82398e-05
8.3023e-05
0.000145701
5.59288e-05
0.000285046
9.25721e-05
0.000316106
0.000560377
0.000261231
9.70414e-06
-8.73017e-05
1.94752e-05
-8.79249e-05
2.9359e-05
-8.93328e-05
3.94795e-05
-9.14659e-05
4.9808e-05
-9.39606e-05
6.05398e-05
-9.80736e-05
7.16592e-05
-0.000101806
8.33253e-05
-0.00010763
9.55199e-05
-0.00011359
0.000108558
-0.000121235
0.000122239
-0.000129504
0.00013716
-0.000140247
0.000152833
-0.000152127
0.000169507
-0.000163309
0.000186248
-0.00016944
0.000204776
-0.000172853
0.000203588
-0.000148608
0.000140829
-3.8622e-05
5.39229e-05
0.000145146
1.91832e-05
0.000180446
2.2555e-05
0.000281677
7.31456e-05
0.000265518
0.000416014
0.000217511
9.00858e-06
-9.63103e-05
1.80783e-05
-9.69946e-05
2.72376e-05
-9.84921e-05
3.65996e-05
-0.000100828
4.61512e-05
-0.000103512
5.60208e-05
-0.000107943
6.62436e-05
-0.000112029
7.69148e-05
-0.000118302
8.79985e-05
-0.000124674
9.97642e-05
-0.000133001
0.000111937
-0.000141677
0.000124976
-0.000153285
0.000136763
-0.000163915
0.000157432
-0.000171916
0.000171621
-0.000183195
0.00018302
-0.000183785
0.000140334
-0.000105908
5.38317e-05
4.78842e-05
6.21802e-06
0.000192761
-4.37222e-06
0.000191039
1.49354e-05
0.000262371
5.50998e-05
0.000225356
0.000313153
0.000157962
8.26959e-06
-0.00010458
1.65898e-05
-0.000105315
2.49802e-05
-0.000106883
3.35259e-05
-0.000109374
4.22489e-05
-0.000112235
5.11814e-05
-0.000116876
6.04587e-05
-0.000121306
7.00208e-05
-0.000127864
7.99839e-05
-0.000134637
9.0366e-05
-0.000143383
0.00010124
-0.000152552
0.000112767
-0.000164812
0.000124038
-0.000175185
0.000137965
-0.000185862
0.000149558
-0.000194065
0.000153397
-0.000187403
8.34073e-05
-3.59153e-05
3.25006e-06
0.000128045
-7.90184e-06
0.000203914
-6.22559e-06
0.000189366
1.68158e-05
0.000239331
4.37937e-05
0.00019838
0.000250137
0.00010681
7.46476e-06
-0.000112045
1.49716e-05
-0.000112822
2.25322e-05
-0.000114443
3.02073e-05
-0.000117049
3.80481e-05
-0.000120076
4.60026e-05
-0.00012483
5.42919e-05
-0.000129596
6.26987e-05
-0.00013627
7.15217e-05
-0.00014346
8.04592e-05
-0.000152321
9.00148e-05
-0.000162107
9.9572e-05
-0.000174369
0.000109973
-0.000185586
0.000120384
-0.000196219
0.000127706
-0.000200769
0.000102569
-0.0001622
2.67942e-05
3.98603e-05
-1.72598e-05
0.000172102
-1.1257e-05
0.000197912
-5.86094e-06
0.000183972
1.77226e-05
0.000215749
3.53379e-05
0.000180767
0.000209704
7.57712e-05
6.64085e-06
-0.000118686
1.33179e-05
-0.000119499
2.00201e-05
-0.000121145
2.68075e-05
-0.000123836
3.37163e-05
-0.000126985
4.06749e-05
-0.000131789
4.7896e-05
-0.000136817
5.51319e-05
-0.000143506
6.27183e-05
-0.000151046
7.0211e-05
-0.000159813
7.82238e-05
-0.00017012
8.51127e-05
-0.000181258
9.7797e-05
-0.000190685
0.000104918
-0.000203081
0.00010779
-0.000203222
4.96283e-05
-0.000104026
-1.75015e-05
0.000106991
-2.412e-05
0.000178723
-1.52708e-05
0.000189064
-6.06777e-06
0.000174771
1.3866e-05
0.000195815
2.7538e-05
0.000167097
0.000183272
5.39704e-05
5.76042e-06
-0.000124446
1.15615e-05
-0.0001253
1.73556e-05
-0.000126939
2.32389e-05
-0.00012972
2.91746e-05
-0.000132921
3.51609e-05
-0.000137775
4.12719e-05
-0.000142928
4.74143e-05
-0.000149649
5.37213e-05
-0.000157353
5.99748e-05
-0.000166067
6.66795e-05
-0.000176825
7.29069e-05
-0.000187486
8.10798e-05
-0.000198877
8.65595e-05
-0.000208086
8.62186e-05
-0.00020264
1.64406e-05
-3.42434e-05
-3.59805e-05
0.000159412
-2.63308e-05
0.000169075
-1.90145e-05
0.000181748
-7.11972e-06
0.000162878
8.91587e-06
0.00017978
2.0264e-05
0.00015575
0.000164525
3.90112e-05
4.89176e-06
-0.000129338
9.82837e-06
-0.000130237
1.47196e-05
-0.00013183
1.97014e-05
-0.000134701
2.46413e-05
-0.00013786
2.96326e-05
-0.000142766
3.45688e-05
-0.000147864
3.95986e-05
-0.000154678
4.45044e-05
-0.000162259
4.95313e-05
-0.000171094
5.44841e-05
-0.000181778
5.94562e-05
-0.000192458
6.57013e-05
-0.000205204
7.06559e-05
-0.000212509
5.15284e-05
-0.000183408
-2.02611e-05
3.75484e-05
-4.51744e-05
0.000184326
-2.87489e-05
0.000152652
-2.23272e-05
0.000175327
-1.09363e-05
0.000151489
2.02289e-06
0.000166822
1.2428e-05
0.000145346
0.000150674
2.62792e-05
3.98127e-06
-0.000133319
8.00501e-06
-0.00013426
1.19687e-05
-0.000135794
1.60053e-05
-0.000138738
1.99385e-05
-0.000141794
2.39096e-05
-0.000146738
2.77033e-05
-0.000151658
3.16187e-05
-0.000158594
3.51448e-05
-0.000165785
3.89447e-05
-0.000174894
4.1963e-05
-0.000184796
4.57303e-05
-0.000196225
4.99493e-05
-0.00020952
5.13495e-05
-0.00021346
4.01029e-09
-0.000132038
-5.48449e-05
9.23989e-05
-4.73242e-05
0.000176806
-3.52397e-05
0.000140569
-2.43974e-05
0.000164486
-1.56531e-05
0.000142746
-3.4697e-06
0.000154639
5.34367e-06
0.000136534
0.000139504
1.65133e-05
3.1406e-06
-0.00013646
6.29685e-06
-0.000137416
9.37353e-06
-0.000138871
1.24462e-05
-0.000141811
1.53716e-05
-0.000144719
1.82707e-05
-0.000149637
2.09249e-05
-0.000154312
2.36648e-05
-0.000161334
2.59374e-05
-0.000168058
2.86124e-05
-0.000177569
3.0051e-05
-0.000186235
3.37899e-05
-0.000198382
3.51138e-05
-0.000210899
3.17511e-05
-0.000209759
-2.83074e-05
-7.19738e-05
-6.09243e-05
0.000125017
-4.15786e-05
0.000157461
-3.85295e-05
0.000137521
-2.58816e-05
0.000151838
-2.01669e-05
0.000137033
-9.1678e-06
0.00014364
-2.06808e-06
0.000129436
0.000129952
7.48502e-06
2.3258e-06
-0.000138785
4.63593e-06
-0.000139727
6.85059e-06
-0.000141086
9.01129e-06
-0.000143971
1.10495e-05
-0.000146757
1.30408e-05
-0.000151628
1.48383e-05
-0.00015611
1.67114e-05
-0.000163207
1.82703e-05
-0.000169617
2.03157e-05
-0.000179615
2.15186e-05
-0.00018744
2.44473e-05
-0.000201325
2.35524e-05
-0.000210092
1.55382e-05
-0.000201494
-3.35185e-05
-2.29146e-05
-5.1283e-05
0.000142782
-3.44314e-05
0.00014061
-3.65514e-05
0.000139642
-2.64981e-05
0.000141786
-2.3056e-05
0.000133592
-1.37875e-05
0.000134372
-8.14407e-06
0.000123793
0.000121778
3.02096e-08
1.72327e-06
-0.000140511
3.40673e-06
-0.000141412
4.97819e-06
-0.00014266
6.44941e-06
-0.000145447
7.83052e-06
-0.000148144
9.14998e-06
-0.000152959
1.03548e-05
-0.000157336
1.16159e-05
-0.000164553
1.28353e-05
-0.000171012
1.45958e-05
-0.000181844
1.68104e-05
-0.000190447
2.39941e-05
-0.000209985
2.36261e-05
-0.00021008
8.10545e-06
-0.000185793
-3.18278e-05
1.70201e-05
-4.44882e-05
0.000155443
-3.56582e-05
0.00013178
-3.85712e-05
0.000142556
-3.09914e-05
0.000134206
-2.78955e-05
0.000130497
-1.97528e-05
0.00012623
-1.45831e-05
0.000118624
0.000114407
-7.21167e-06
1.2741e-06
-0.000142485
2.50842e-06
-0.000143383
3.71597e-06
-0.000144657
4.90093e-06
-0.000147535
6.0317e-06
-0.000150299
7.24167e-06
-0.000155368
8.39444e-06
-0.000159796
9.75324e-06
-0.000167075
1.15716e-05
-0.000173943
1.43729e-05
-0.000185308
2.03193e-05
-0.000196874
2.93064e-05
-0.000218973
3.23754e-05
-0.000213398
1.12168e-05
-0.000164601
-2.08778e-05
4.91226e-05
-3.60261e-05
0.000170593
-3.99096e-05
0.000135665
-4.08589e-05
0.000143506
-3.64356e-05
0.000129784
-3.25989e-05
0.000126661
-2.56696e-05
0.000119301
-2.04375e-05
0.000113393
0.000107774
-1.38042e-05
1.1518e-06
-0.000143923
2.47595e-06
-0.000144961
4.15751e-06
-0.000146567
5.93434e-06
-0.000149452
8.74773e-06
-0.000153216
1.15649e-05
-0.000158176
1.68971e-05
-0.000165138
2.1778e-05
-0.000171964
3.27493e-05
-0.000184924
4.42074e-05
-0.000196772
5.49755e-05
-0.000207645
4.60467e-05
-0.000210044
2.54202e-05
-0.00019277
-2.1783e-06
-0.000137015
-3.11825e-05
7.81293e-05
-4.33708e-05
0.000182782
-4.93719e-05
0.000141666
-4.78312e-05
0.000141966
-4.40524e-05
0.000126005
-3.87029e-05
0.000121312
-3.22953e-05
0.000112894
-2.6312e-05
0.00010741
0.000101474
-2.00123e-05
5.2991e-07
-0.000144455
8.69933e-07
-0.000145303
1.44948e-06
-0.000147148
1.5586e-06
-0.000149563
2.62688e-06
-0.000154286
3.29821e-06
-0.000158844
6.30038e-06
-0.000168139
1.01783e-05
-0.000175842
2.14833e-05
-0.000196232
3.62356e-05
-0.000211528
5.64009e-05
-0.000227813
4.97294e-05
-0.000203377
2.15647e-05
-0.000164608
-1.61997e-05
-9.92881e-05
-5.0561e-05
0.000112491
-5.83631e-05
0.000190585
-6.17434e-05
0.000145047
-5.75935e-05
0.000137817
-5.25425e-05
0.000120955
-4.57435e-05
0.000114513
-3.89739e-05
0.000106125
-3.22499e-05
0.000100687
9.51966e-05
-2.59719e-05
-2.90192e-06
-0.000141554
-5.9881e-06
-0.000142218
-8.78704e-06
-0.00014435
-1.19965e-05
-0.000146356
-1.51031e-05
-0.00015118
-1.86346e-05
-0.000155316
-2.155e-05
-0.000165226
-2.31956e-05
-0.000174199
-2.18693e-05
-0.000197561
-1.57649e-05
-0.000217634
-8.80924e-07
-0.000242698
1.5763e-05
-0.000220022
1.08204e-05
-0.000159665
-5.67729e-05
-3.17133e-05
-8.96627e-05
0.00014538
-8.02071e-05
0.000181131
-7.90406e-05
0.000143881
-6.7968e-05
0.000126745
-6.16712e-05
0.000114658
-5.23662e-05
0.000105209
-4.51413e-05
9.89e-05
-3.74841e-05
9.30299e-05
8.87699e-05
-3.1057e-05
-5.26593e-06
-0.000136289
-1.0291e-05
-0.000137194
-1.53206e-05
-0.000139322
-2.05174e-05
-0.000141162
-2.60476e-05
-0.000145652
-3.20983e-05
-0.000149267
-3.89699e-05
-0.000158356
-4.73347e-05
-0.000165836
-5.86917e-05
-0.000186206
-7.241e-05
-0.000203918
-9.04319e-05
-0.000224678
-0.000104311
-0.000206144
-0.000134182
-0.000129796
-0.000176423
1.05285e-05
-0.00015889
0.000127846
-0.000123862
0.000146104
-0.000102974
0.000122992
-8.39679e-05
0.000107739
-7.23762e-05
0.000103067
-6.02093e-05
9.30425e-05
-5.13952e-05
9.00861e-05
-4.2606e-05
8.4241e-05
8.19107e-05
-3.57466e-05
-5.2066e-06
-0.000131083
-1.0693e-05
-0.000131708
-1.65347e-05
-0.000133481
-2.29682e-05
-0.000134729
-3.00521e-05
-0.000138569
-3.85634e-05
-0.000140757
-4.9316e-05
-0.000147605
-6.35953e-05
-0.000151558
-8.6138e-05
-0.000163665
-0.000118421
-0.000171636
-0.000161701
-0.000181399
-0.000209202
-0.000158643
-0.000245195
-9.38038e-05
-0.000236901
2.23446e-06
-0.000189206
8.01513e-05
-0.00014473
0.000101628
-0.000113914
9.21761e-05
-9.30987e-05
8.69247e-05
-7.78126e-05
8.77809e-05
-6.55497e-05
8.07799e-05
-5.54337e-05
7.99703e-05
-4.68025e-05
7.56102e-05
7.45028e-05
-3.93944e-05
-5.77278e-06
-0.00012531
-1.20076e-05
-0.000125473
-1.86965e-05
-0.000126792
-2.6028e-05
-0.000127398
-3.44094e-05
-0.000130188
-4.40375e-05
-0.00013113
-5.60759e-05
-0.000135567
-7.16325e-05
-0.000136003
-9.44097e-05
-0.000140889
-0.000126652
-0.000139394
-0.00016925
-0.000138802
-0.000210746
-0.000117148
-0.000229774
-7.47769e-05
-0.000218048
-9.49098e-06
-0.00018111
4.32128e-05
-0.00014185
6.23686e-05
-0.000114753
6.50785e-05
-9.52261e-05
6.73982e-05
-7.96646e-05
7.22194e-05
-6.74346e-05
6.85503e-05
-5.71368e-05
6.96726e-05
-4.86922e-05
6.71659e-05
6.6987e-05
-4.11761e-05
-6.64863e-06
-0.000118661
-1.34411e-05
-0.00011868
-2.06543e-05
-0.000119579
-2.8462e-05
-0.000119591
-3.73012e-05
-0.000121349
-4.73239e-05
-0.000121108
-5.94563e-05
-0.000123436
-7.36249e-05
-0.000121835
-9.16263e-05
-0.000122888
-0.000114379
-0.000116642
-0.000142956
-0.000110225
-0.000171589
-8.85148e-05
-0.000187626
-5.87406e-05
-0.000179838
-1.72794e-05
-0.000154952
1.83267e-05
-0.000129104
3.65208e-05
-0.000109275
4.525e-05
-9.33419e-05
5.14649e-05
-7.94652e-05
5.83429e-05
-6.81882e-05
5.72735e-05
-5.85804e-05
6.0065e-05
-5.04473e-05
5.90329e-05
5.97145e-05
-4.31746e-05
-6.71253e-06
-0.000111948
-1.35698e-05
-0.000111823
-2.08673e-05
-0.000112281
-2.87306e-05
-0.000111727
-3.76269e-05
-0.000112453
-4.76871e-05
-0.000111048
-5.95022e-05
-0.000111621
-7.29524e-05
-0.000108385
-8.86603e-05
-0.000107181
-0.000106274
-9.9029e-05
-0.000125321
-9.11791e-05
-0.000141657
-7.21782e-05
-0.000150297
-5.01011e-05
-0.000146553
-2.10236e-05
-0.000132417
4.19041e-06
-0.000116443
2.05466e-05
-0.000102006
3.08133e-05
-8.9239e-05
3.86982e-05
-7.7268e-05
4.63719e-05
-6.70818e-05
4.70874e-05
-5.8208e-05
5.11913e-05
-5.04349e-05
5.126e-05
5.27585e-05
-4.34787e-05
-6.61702e-06
-0.00010533
-1.33742e-05
-0.000105065
-2.04639e-05
-0.000105191
-2.79433e-05
-0.000104248
-3.61566e-05
-0.00010424
-4.51111e-05
-0.000102093
-5.53311e-05
-0.000101401
-6.67454e-05
-9.69712e-05
-7.99088e-05
-9.40175e-05
-9.38194e-05
-8.51185e-05
-0.000107838
-7.71611e-05
-0.000118752
-6.12643e-05
-0.000124788
-4.40652e-05
-0.000122675
-2.31363e-05
-0.000114335
-4.14989e-06
-0.000103887
1.00992e-05
-9.31496e-05
2.00754e-05
-8.32841e-05
2.88327e-05
-7.32953e-05
3.63831e-05
-6.45619e-05
3.83542e-05
-5.6745e-05
4.33744e-05
-4.97137e-05
4.42288e-05
4.64591e-05
-4.34141e-05
-6.78479e-06
-9.85451e-05
-1.36748e-05
-9.81747e-05
-2.08568e-05
-9.80088e-05
-2.83432e-05
-9.67609e-05
-3.63422e-05
-9.62406e-05
-4.48078e-05
-9.36277e-05
-5.40154e-05
-9.21938e-05
-6.37588e-05
-8.72278e-05
-7.41746e-05
-8.36018e-05
-8.43565e-05
-7.49367e-05
-9.4207e-05
-6.73107e-05
-0.000101581
-5.38907e-05
-0.000105408
-4.02385e-05
-0.000104404
-2.41399e-05
-9.92778e-05
-9.27618e-06
-9.21464e-05
2.96783e-06
-8.44485e-05
1.23776e-05
-7.68589e-05
2.12431e-05
-6.86127e-05
2.81369e-05
-6.13988e-05
3.11403e-05
-5.45399e-05
3.65156e-05
-4.82013e-05
3.78903e-05
4.07221e-05
-4.24642e-05
-6.21776e-06
-9.23269e-05
-1.25244e-05
-9.18676e-05
-1.90635e-05
-9.14693e-05
-2.58588e-05
-8.99652e-05
-3.30973e-05
-8.90019e-05
-4.06854e-05
-8.60394e-05
-4.88414e-05
-8.40377e-05
-5.71794e-05
-7.88898e-05
-6.58456e-05
-7.49356e-05
-7.39265e-05
-6.68558e-05
-8.1493e-05
-5.97444e-05
-8.68871e-05
-4.84966e-05
-8.99939e-05
-3.71318e-05
-8.97451e-05
-2.43887e-05
-8.66522e-05
-1.23691e-05
-8.1865e-05
-1.81942e-06
-7.63067e-05
6.81923e-06
-7.02257e-05
1.51621e-05
-6.3459e-05
2.13702e-05
-5.75811e-05
2.52624e-05
-5.16387e-05
3.05733e-05
-4.61078e-05
3.23595e-05
3.56429e-05
-4.10286e-05
-6.13884e-06
-8.61877e-05
-1.23144e-05
-8.56917e-05
-1.86206e-05
-8.51629e-05
-2.50407e-05
-8.35448e-05
-3.17073e-05
-8.23351e-05
-3.84929e-05
-7.92536e-05
-4.55622e-05
-7.69683e-05
-5.2554e-05
-7.18979e-05
-5.96118e-05
-6.78778e-05
-6.59724e-05
-6.04951e-05
-7.18131e-05
-5.39038e-05
-7.60096e-05
-4.43e-05
-7.8257e-05
-3.48845e-05
-7.82356e-05
-2.44102e-05
-7.61972e-05
-1.44076e-05
-7.27918e-05
-5.22481e-06
-6.8621e-05
2.64835e-06
-6.3723e-05
1.02641e-05
-5.83364e-05
1.59836e-05
-5.35312e-05
2.04572e-05
-4.83961e-05
2.54382e-05
-4.3672e-05
2.76355e-05
3.11364e-05
-3.91654e-05
-5.57217e-06
-8.06152e-05
-1.11776e-05
-8.0086e-05
-1.68958e-05
-7.94443e-05
-2.2684e-05
-7.77564e-05
-2.86586e-05
-7.63602e-05
-3.46504e-05
-7.32616e-05
-4.08136e-05
-7.0805e-05
-4.67481e-05
-6.59633e-05
-5.26377e-05
-6.19881e-05
-5.78218e-05
-5.5311e-05
-6.24248e-05
-4.93008e-05
-6.5663e-05
-4.10619e-05
-6.76221e-05
-3.29254e-05
-6.79667e-05
-2.40657e-05
-6.67858e-05
-1.55885e-05
-6.44728e-05
-7.53787e-06
-6.14203e-05
-4.04211e-07
-5.75884e-05
6.43214e-06
-5.33733e-05
1.17684e-05
-4.93603e-05
1.64442e-05
-4.49699e-05
2.10478e-05
-4.09663e-05
2.36319e-05
2.71858e-05
-3.70157e-05
-5.22145e-06
-7.53934e-05
-1.04505e-05
-7.48566e-05
-1.574e-05
-7.41545e-05
-2.10335e-05
-7.24626e-05
-2.64229e-05
-7.09706e-05
-3.17417e-05
-6.79427e-05
-3.71171e-05
-6.54294e-05
-4.21864e-05
-6.08939e-05
-4.71334e-05
-5.7041e-05
-5.14178e-05
-5.10266e-05
-5.52114e-05
-4.55073e-05
-5.79627e-05
-3.83106e-05
-5.95524e-05
-3.13358e-05
-5.98887e-05
-2.37294e-05
-5.90866e-05
-1.63907e-05
-5.7373e-05
-9.25147e-06
-5.49571e-05
-2.8202e-06
-5.18928e-05
3.36783e-06
-4.85456e-05
8.4211e-06
-4.5174e-05
1.30726e-05
-4.1475e-05
1.73488e-05
-3.80856e-05
2.02426e-05
2.37266e-05
-3.46263e-05
-4.72269e-06
-7.06705e-05
-9.44018e-06
-7.01389e-05
-1.41931e-05
-6.94013e-05
-1.89104e-05
-6.77451e-05
-2.36776e-05
-6.62032e-05
-2.83154e-05
-6.33048e-05
-3.29473e-05
-6.07973e-05
-3.72637e-05
-5.65774e-05
-4.14095e-05
-5.28952e-05
-4.49626e-05
-4.74735e-05
-4.80153e-05
-4.24545e-05
-5.02142e-05
-3.61117e-05
-5.16302e-05
-2.99199e-05
-5.21403e-05
-2.32194e-05
-5.17544e-05
-1.67768e-05
-5.0582e-05
-1.04239e-05
-4.88077e-05
-4.5946e-06
-4.64637e-05
1.02373e-06
-4.38401e-05
5.79741e-06
-4.10556e-05
1.02881e-05
-3.80044e-05
1.42975e-05
-3.51264e-05
1.73647e-05
2.07314e-05
-3.21312e-05
-4.27664e-06
-6.63936e-05
-8.54093e-06
-6.58743e-05
-1.28226e-05
-6.51195e-05
-1.70486e-05
-6.35188e-05
-2.12901e-05
-6.19616e-05
-2.53774e-05
-5.92173e-05
-2.94257e-05
-5.67489e-05
-3.31487e-05
-5.28543e-05
-3.66959e-05
-4.93479e-05
-3.9739e-05
-4.44304e-05
-4.23837e-05
-3.98098e-05
-4.43387e-05
-3.41567e-05
-4.55663e-05
-2.86923e-05
-4.60167e-05
-2.2769e-05
-4.57513e-05
-1.70423e-05
-4.4868e-05
-1.13072e-05
-4.34663e-05
-5.99644e-06
-4.1592e-05
-8.50522e-07
-3.94544e-05
3.65971e-06
-3.71073e-05
7.94101e-06
-3.45682e-05
1.17584e-05
-3.2114e-05
1.49106e-05
1.81493e-05
-2.95318e-05
-3.81359e-06
-6.25798e-05
-7.60703e-06
-6.20807e-05
-1.14001e-05
-6.13262e-05
-1.51189e-05
-5.97998e-05
-1.8823e-05
-5.82574e-05
-2.23642e-05
-5.5676e-05
-2.58313e-05
-5.32817e-05
-2.9008e-05
-4.96775e-05
-3.1994e-05
-4.63618e-05
-3.45302e-05
-4.18941e-05
-3.66743e-05
-3.76658e-05
-3.82645e-05
-3.25665e-05
-3.93469e-05
-2.76099e-05
-3.98645e-05
-2.22515e-05
-3.98201e-05
-1.70867e-05
-3.92419e-05
-1.18855e-05
-3.82178e-05
-7.02062e-06
-3.67912e-05
-2.27711e-06
-3.51185e-05
1.98697e-06
-3.32199e-05
6.04234e-06
-3.11501e-05
9.68873e-06
-2.90868e-05
1.28473e-05
1.59625e-05
-2.69e-05
-3.36376e-06
-5.92158e-05
-6.7065e-06
-5.87377e-05
-1.00451e-05
-5.79875e-05
-1.33086e-05
-5.6536e-05
-1.65514e-05
-5.50144e-05
-1.96327e-05
-5.25945e-05
-2.26434e-05
-5.02709e-05
-2.53847e-05
-4.69361e-05
-2.79556e-05
-4.37909e-05
-3.01626e-05
-3.96871e-05
-3.20729e-05
-3.57555e-05
-3.35159e-05
-3.11235e-05
-3.44894e-05
-2.66365e-05
-3.49517e-05
-2.17892e-05
-3.49437e-05
-1.70947e-05
-3.45048e-05
-1.23245e-05
-3.36996e-05
-7.82584e-06
-3.25602e-05
-3.41647e-06
-3.11882e-05
6.14905e-07
-2.96085e-05
4.4627e-06
-2.78872e-05
7.96747e-06
-2.61302e-05
1.10903e-05
1.41031e-05
-2.42707e-05
-2.93223e-06
-5.62833e-05
-5.84181e-06
-5.58279e-05
-8.73817e-06
-5.50909e-05
-1.15585e-05
-5.37155e-05
-1.43418e-05
-5.2231e-05
-1.69811e-05
-4.99551e-05
-1.95347e-05
-4.77172e-05
-2.18573e-05
-4.46134e-05
-2.40125e-05
-4.16356e-05
-2.58451e-05
-3.78545e-05
-2.739e-05
-3.42106e-05
-2.85661e-05
-2.99473e-05
-2.9403e-05
-2.57997e-05
-2.98707e-05
-2.13215e-05
-2.99751e-05
-1.69903e-05
-2.97203e-05
-1.25793e-05
-2.91537e-05
-8.39252e-06
-2.82981e-05
-4.27212e-06
-2.72343e-05
-4.48862e-07
-2.59824e-05
3.21083e-06
-2.45968e-05
6.5819e-06
-2.31493e-05
9.64288e-06
1.25604e-05
-2.16065e-05
-2.5051e-06
-5.3778e-05
-4.99036e-06
-5.33425e-05
-7.46576e-06
-5.26153e-05
-9.87378e-06
-5.13073e-05
-1.22528e-05
-4.98518e-05
-1.45013e-05
-4.77065e-05
-1.66793e-05
-4.55391e-05
-1.86577e-05
-4.26349e-05
-2.05017e-05
-3.97915e-05
-2.2092e-05
-3.62641e-05
-2.34754e-05
-3.28272e-05
-2.45446e-05
-2.88781e-05
-2.53106e-05
-2.50338e-05
-2.57361e-05
-2.0896e-05
-2.58507e-05
-1.68757e-05
-2.56672e-05
-1.27628e-05
-2.52273e-05
-8.83239e-06
-2.455e-05
-4.94948e-06
-2.36906e-05
-1.30827e-06
-2.26668e-05
2.18709e-06
-2.15269e-05
5.44208e-06
-2.03177e-05
8.43373e-06
1.12729e-05
-1.90302e-05
-2.10555e-06
-5.16723e-05
-4.19379e-06
-5.12541e-05
-6.26903e-06
-5.05399e-05
-8.28635e-06
-4.92898e-05
-1.02682e-05
-4.78698e-05
-1.21432e-05
-4.58314e-05
-1.39463e-05
-4.37359e-05
-1.55856e-05
-4.09956e-05
-1.70983e-05
-3.82788e-05
-1.83922e-05
-3.49701e-05
-1.9492e-05
-3.17273e-05
-2.03501e-05
-2.80199e-05
-2.09855e-05
-2.43984e-05
-2.1383e-05
-2.04985e-05
-2.15473e-05
-1.67114e-05
-2.14763e-05
-1.28338e-05
-2.11943e-05
-9.11443e-06
-2.07128e-05
-5.43099e-06
-2.00718e-05
-1.94926e-06
-1.92886e-05
1.404e-06
-1.83976e-05
4.5511e-06
-1.74348e-05
7.47097e-06
1.02373e-05
-1.63991e-05
-1.69829e-06
-4.99739e-05
-3.38641e-06
-4.95658e-05
-5.07161e-06
-4.88546e-05
-6.71373e-06
-4.76476e-05
-8.33575e-06
-4.62477e-05
-9.8712e-06
-4.42959e-05
-1.1356e-05
-4.2251e-05
-1.27102e-05
-3.96412e-05
-1.39748e-05
-3.70142e-05
-1.5073e-05
-3.3872e-05
-1.60377e-05
-3.07625e-05
-1.68045e-05