/*--------------------------------*- C++ -*----------------------------------*\
| =========                 |                                                 |
| \\      /  F ield         | OpenFOAM: The Open Source CFD Toolbox           |
|  \\    /   O peration     | Version:  2012                                  |
|   \\  /    A nd           | Website:  www.openfoam.com                      |
|    \\/     M anipulation  |                                                 |
\*---------------------------------------------------------------------------*/
FoamFile
{
    version     2.0;
    format      ascii;
    class       volVectorField;
    location    "0.12";
    object      U;
}
// * * * * * * * * * * * * * * * * * * * * * * * * * * * * * * * * * * * * * //

dimensions      [0 1 -1 0 0 0 0];


internalField   nonuniform List<vector> 
2268
(
(0.0323563 -0.0155099 0)
(0.0988921 -0.015625 0)
(0.164572 -0.0159059 0)
(0.233518 -0.0162744 0)
(0.302261 -0.0167965 0)
(0.375749 -0.0174971 0)
(0.450279 -0.0182104 0)
(0.530043 -0.0193342 0)
(0.613867 -0.0202738 0)
(0.701929 -0.0217009 0)
(0.797519 -0.0233326 0)
(0.899668 -0.0246065 0)
(1.00631 -0.0254739 0)
(1.11702 -0.0273035 0)
(1.24003 -0.0305488 0)
(1.37715 -0.0344931 0)
(1.53106 -0.0382118 0)
(1.68956 -0.0310595 0)
(1.78072 -0.0105617 0)
(1.78348 0.00570352 0)
(1.76161 0.0192889 0)
(1.63734 0.0431573 0)
(1.39974 0.348489 0)
(0.0322759 -0.0465159 0)
(0.0987343 -0.0468641 0)
(0.164272 -0.0477077 0)
(0.233096 -0.0488147 0)
(0.301705 -0.0503913 0)
(0.375056 -0.052499 0)
(0.449467 -0.0546507 0)
(0.529044 -0.0580457 0)
(0.612794 -0.060888 0)
(0.700713 -0.0651568 0)
(0.796033 -0.0700625 0)
(0.898089 -0.0741259 0)
(1.00522 -0.0772011 0)
(1.11686 -0.0831641 0)
(1.24166 -0.092412 0)
(1.38075 -0.103021 0)
(1.53505 -0.109542 0)
(1.66894 -0.0868388 0)
(1.7464 -0.0340384 0)
(1.76584 0.00360689 0)
(1.78055 0.0485038 0)
(1.70739 0.13258 0)
(1.48468 1.07363 0)
(0.0321334 -0.077422 0)
(0.0983993 -0.0780094 0)
(0.163665 -0.0793933 0)
(0.232244 -0.0812414 0)
(0.300583 -0.0838548 0)
(0.37365 -0.0873703 0)
(0.447824 -0.0909244 0)
(0.527003 -0.0965882 0)
(0.610567 -0.10133 0)
(0.698223 -0.10836 0)
(0.793021 -0.11655 0)
(0.894789 -0.123522 0)
(1.00259 -0.128812 0)
(1.11543 -0.139061 0)
(1.24251 -0.155266 0)
(1.38623 -0.173133 0)
(1.53792 -0.174494 0)
(1.64644 -0.130789 0)
(1.7132 -0.0564347 0)
(1.75117 -0.0103222 0)
(1.7969 0.0457713 0)
(1.76372 0.186918 0)
(1.51805 1.8384 0)
(0.031959 -0.108205 0)
(0.0978681 -0.109031 0)
(0.162766 -0.110953 0)
(0.23098 -0.113541 0)
(0.298928 -0.117191 0)
(0.371566 -0.12213 0)
(0.445408 -0.127069 0)
(0.523994 -0.135026 0)
(0.607235 -0.141739 0)
(0.694548 -0.151449 0)
(0.788642 -0.162906 0)
(0.889843 -0.173223 0)
(0.998239 -0.181436 0)
(1.11278 -0.196553 0)
(1.24205 -0.220444 0)
(1.39017 -0.242612 0)
(1.53113 -0.232583 0)
(1.62252 -0.169624 0)
(1.69027 -0.083695 0)
(1.75303 -0.0355751 0)
(1.81 0.0409111 0)
(1.78804 0.266822 0)
(1.51517 2.61986 0)
(0.0317354 -0.138773 0)
(0.0971387 -0.13983 0)
(0.161556 -0.142288 0)
(0.229262 -0.145606 0)
(0.296691 -0.150262 0)
(0.368716 -0.156636 0)
(0.442108 -0.1629 0)
(0.519875 -0.17313 0)
(0.602564 -0.181859 0)
(0.689383 -0.194152 0)
(0.782595 -0.20878 0)
(0.88289 -0.22263 0)
(0.991561 -0.234118 0)
(1.10761 -0.254281 0)
(1.23886 -0.286396 0)
(1.38787 -0.309729 0)
(1.51619 -0.284331 0)
(1.59856 -0.205809 0)
(1.68114 -0.118188 0)
(1.76895 -0.0671642 0)
(1.83112 0.0282416 0)
(1.76899 0.331906 0)
(1.38293 3.40762 0)
(0.0314577 -0.169112 0)
(0.0962335 -0.170392 0)
(0.160061 -0.173386 0)
(0.227126 -0.177427 0)
(0.293935 -0.18307 0)
(0.365173 -0.1909 0)
(0.438023 -0.198455 0)
(0.514822 -0.210927 0)
(0.59674 -0.221788 0)
(0.682925 -0.236598 0)
(0.775196 -0.254309 0)
(0.874311 -0.272037 0)
(0.983017 -0.287607 0)
(1.10039 -0.31343 0)
(1.23379 -0.352973 0)
(1.37956 -0.37366 0)
(1.4932 -0.332177 0)
(1.58273 -0.24771 0)
(1.68419 -0.16456 0)
(1.79923 -0.10616 0)
(1.84822 0.0367127 0)
(1.57993 0.497785 0)
(0.991501 4.13863 0)
(0.0311243 -0.199113 0)
(0.0951147 -0.200608 0)
(0.158239 -0.20413 0)
(0.224487 -0.208888 0)
(0.29056 -0.215466 0)
(0.360797 -0.224769 0)
(0.432954 -0.23356 0)
(0.50859 -0.248195 0)
(0.589481 -0.261228 0)
(0.674748 -0.278546 0)
(0.765979 -0.299154 0)
(0.863731 -0.320895 0)
(0.972152 -0.340897 0)
(1.08978 -0.372802 0)
(1.22514 -0.418339 0)
(1.36194 -0.432274 0)
(1.46484 -0.380398 0)
(1.5699 -0.295984 0)
(1.69821 -0.221289 0)
(1.83117 -0.143822 0)
(1.85065 0.125429 0)
(1.09593 0.760366 0)
(0.551963 4.60676 0)
(0.030736 -0.228774 0)
(0.0938241 -0.230475 0)
(0.156147 -0.23452 0)
(0.22144 -0.239985 0)
(0.28671 -0.247464 0)
(0.355786 -0.258242 0)
(0.427169 -0.268252 0)
(0.501593 -0.284967 0)
(0.581307 -0.300259 0)
(0.665532 -0.320076 0)
(0.7558 -0.343579 0)
(0.852039 -0.369526 0)
(0.960139 -0.394413 0)
(1.07759 -0.433013 0)
(1.21271 -0.481717 0)
(1.3357 -0.486863 0)
(1.43591 -0.430673 0)
(1.55719 -0.358674 0)
(1.70955 -0.289845 0)
(1.82145 -0.167943 0)
(1.65932 0.353547 0)
(0.698466 1.16653 0)
(-0.08023 4.85674 0)
(-0.121974 -0.0316595 0)
(-0.00190974 -0.026212 0)
(-0.0101579 -0.0264422 0)
(0.0342391 -0.0169202 0)
(0.0852975 -0.0162081 0)
(0.0834165 -0.00849001 0)
(0.122459 -0.00772636 0)
(0.102584 -0.00351646 0)
(0.125702 -0.00271985 0)
(0.100699 -0.000344416 0)
(0.110913 8.41625e-05 0)
(0.0862265 0.00127245 0)
(0.0882575 0.00146813 0)
(0.0654131 0.00204301 0)
(0.0626537 0.00212969 0)
(0.0415546 0.00239354 0)
(0.0362181 0.00242866 0)
(0.0162448 0.00253134 0)
(0.00979745 0.00254082 0)
(-0.118862 0.0851347 0)
(-0.00248088 -0.0223842 0)
(-0.00681391 0.0128701 0)
(0.038651 -0.0254724 0)
(0.0880895 -0.00277171 0)
(0.086923 -0.00905272 0)
(0.124798 0.00124694 0)
(0.104831 0.00073947 0)
(0.127036 0.0048092 0)
(0.101915 0.00560107 0)
(0.111582 0.0069962 0)
(0.0868213 0.00764255 0)
(0.0885763 0.0080129 0)
(0.0656932 0.00837819 0)
(0.0628011 0.00841246 0)
(0.0416826 0.00858277 0)
(0.0362772 0.00854392 0)
(0.0162932 0.0086052 0)
(0.00980147 0.00858522 0)
(-0.161333 0.0192844 0)
(-0.0337468 -0.0751024 0)
(-0.0144188 -0.0432021 0)
(0.029349 -0.0589527 0)
(0.0905162 -0.0353887 0)
(0.0849857 -0.0257567 0)
(0.126848 -0.0140372 0)
(0.104321 -0.00588319 0)
(0.127738 -0.000422395 0)
(0.101632 0.00514985 0)
(0.111752 0.00729309 0)
(0.0866585 0.0102924 0)
(0.0885652 0.0110005 0)
(0.0655825 0.0124994 0)
(0.0627402 0.0126836 0)
(0.0416077 0.0133758 0)
(0.0362272 0.0133979 0)
(0.0162609 0.0136627 0)
(0.00978863 0.0136592 0)
(-0.15206 0.170611 0)
(-0.0373652 -0.0858125 0)
(-0.00665998 -0.0109724 0)
(0.0433232 -0.0721206 0)
(0.100472 -0.023855 0)
(0.0958165 -0.0263583 0)
(0.133631 -0.00492063 0)
(0.111091 -0.00102853 0)
(0.131605 0.00747303 0)
(0.105194 0.0114127 0)
(0.113682 0.0144236 0)
(0.0884012 0.0168309 0)
(0.0894949 0.0176861 0)
(0.0664102 0.0189342 0)
(0.0631726 0.0190555 0)
(0.0419863 0.0196255 0)
(0.0364005 0.0195686 0)
(0.0164045 0.0197788 0)
(0.00979976 0.0197443 0)
(-0.247184 0.0972471 0)
(-0.105983 -0.138508 0)
(-0.0187991 -0.07776 0)
(0.0254569 -0.106119 0)
(0.107389 -0.0568819 0)
(0.0925209 -0.0414614 0)
(0.137681 -0.0195623 0)
(0.110004 -0.0064567 0)
(0.132937 0.00292121 0)
(0.104628 0.011652 0)
(0.113978 0.0150869 0)
(0.0880406 0.0197739 0)
(0.0894309 0.0208131 0)
(0.0661525 0.0231529 0)
(0.0630265 0.0233569 0)
(0.0418173 0.024433 0)
(0.0362903 0.0244098 0)
(0.0163325 0.0248186 0)
(0.00977308 0.0247933 0)
(-0.23046 0.326108 0)
(-0.0922821 -0.184019 0)
(0.00245321 -0.0625598 0)
(0.0521611 -0.128225 0)
(0.125692 -0.049136 0)
(0.11181 -0.0412567 0)
(0.149133 -0.00992799 0)
(0.121334 -0.00041014 0)
(0.139043 0.0115004 0)
(0.11036 0.0185301 0)
(0.117005 0.0226648 0)
(0.0908384 0.0266466 0)
(0.0909043 0.0277822 0)
(0.0674919 0.0297796 0)
(0.0637184 0.029902 0)
(0.0424341 0.0307988 0)
(0.0365678 0.0306883 0)
(0.016568 0.0310168 0)
(0.00978881 0.030958 0)
(-0.365453 0.2284 0)
(-0.160995 -0.239418 0)
(0.00898274 -0.140263 0)
(0.0353674 -0.160007 0)
(0.139824 -0.0817912 0)
(0.108816 -0.0529885 0)
(0.155082 -0.022916 0)
(0.119724 -0.00360958 0)
(0.14085 0.0082228 0)
(0.109482 0.0198736 0)
(0.117319 0.0239082 0)
(0.0902111 0.0300348 0)
(0.0907175 0.0311145 0)
(0.0670311 0.034142 0)
(0.063447 0.034241 0)
(0.0421364 0.0356221 0)
(0.036379 0.0355012 0)
(0.0164416 0.0360217 0)
(0.00974657 0.0359601 0)
(-0.220961 0.560997 0)
(-0.104334 -0.345537 0)
(0.0868853 -0.140471 0)
(0.0878998 -0.187014 0)
(0.170644 -0.0765497 0)
(0.13797 -0.0499664 0)
(0.170915 -0.0118117 0)
(0.135167 0.00421191 0)
(0.148629 0.0177898 0)
(0.117019 0.0276253 0)
(0.121181 0.0321603 0)
(0.0939096 0.0373837 0)
(0.0926296 0.0384986 0)
(0.068824 0.0410369 0)
(0.0643569 0.0410344 0)
(0.042972 0.04215 0)
(0.036745 0.0419336 0)
(0.0167645 0.0423359 0)
(0.00976277 0.0422384 0)
(0.0300966 -0.274431 0)
(0.0916024 -0.27645 0)
(0.152614 -0.28128 0)
(0.216199 -0.287868 0)
(0.280158 -0.296652 0)
(0.347193 -0.309756 0)
(0.417149 -0.32166 0)
(0.489464 -0.341458 0)
(0.567124 -0.360261 0)
(0.649034 -0.384174 0)
(0.737376 -0.411814 0)
(0.830718 -0.444566 0)
(0.936334 -0.477276 0)
(1.05231 -0.525586 0)
(1.17949 -0.573348 0)
(1.28584 -0.566323 0)
(1.39155 -0.516361 0)
(1.52222 -0.463819 0)
(1.66752 -0.380172 0)
(1.50602 -0.0683376 0)
(1.38181 0.80247 0)
(0.287603 1.83544 0)
(0.538267 4.94362 0)
(0.0290258 -0.334652 0)
(0.0877216 -0.33708 0)
(0.14654 -0.34289 0)
(0.20709 -0.350985 0)
(0.268779 -0.361353 0)
(0.332376 -0.37747 0)
(0.399614 -0.391918 0)
(0.468384 -0.415484 0)
(0.542492 -0.438921 0)
(0.620276 -0.468235 0)
(0.70446 -0.501544 0)
(0.793662 -0.542528 0)
(0.892511 -0.587333 0)
(1.00522 -0.644058 0)
(1.11172 -0.683701 0)
(1.21027 -0.671529 0)
(1.32636 -0.639962 0)
(1.45702 -0.596779 0)
(1.55494 -0.266471 0)
(1.02213 0.16335 0)
(0.872325 1.28637 0)
(0.29423 1.93229 0)
(0.886466 4.43308 0)
(0.02778 -0.391772 0)
(0.0830952 -0.394586 0)
(0.139388 -0.401231 0)
(0.196268 -0.410781 0)
(0.255294 -0.422521 0)
(0.314829 -0.441346 0)
(0.37879 -0.458274 0)
(0.443169 -0.485185 0)
(0.513353 -0.512819 0)
(0.585402 -0.547097 0)
(0.664975 -0.585984 0)
(0.747098 -0.633667 0)
(0.839572 -0.689818 0)
(0.939881 -0.746115 0)
(1.02715 -0.779603 0)
(1.12778 -0.78344 0)
(1.24659 -0.770346 0)
(1.34083 -0.664106 0)
(1.13853 0.0222357 0)
(0.423831 0.661765 0)
(0.469538 1.49851 0)
(0.0695887 1.86464 0)
(0.943143 3.44823 0)
(0.0263832 -0.446118 0)
(0.0778753 -0.449308 0)
(0.131334 -0.45664 0)
(0.184091 -0.467555 0)
(0.240027 -0.480492 0)
(0.295109 -0.501695 0)
(0.355284 -0.520851 0)
(0.414664 -0.550861 0)
(0.480587 -0.581782 0)
(0.545829 -0.620787 0)
(0.620688 -0.66393 0)
(0.693051 -0.71823 0)
(0.780877 -0.780893 0)
(0.859494 -0.833047 0)
(0.942266 -0.873501 0)
(1.03622 -0.893685 0)
(1.13365 -0.860116 0)
(1.01067 -0.446975 0)
(0.489742 0.589746 0)
(0.0395376 0.902394 0)
(0.160042 1.56579 0)
(0.0341269 1.54377 0)
(0.756374 2.5879 0)
(0.0247815 -0.496537 0)
(0.0720073 -0.500075 0)
(0.122202 -0.507941 0)
(0.17044 -0.520054 0)
(0.222758 -0.534047 0)
(0.273106 -0.55724 0)
(0.328784 -0.578368 0)
(0.383014 -0.611209 0)
(0.443472 -0.644575 0)
(0.502232 -0.688012 0)
(0.570153 -0.733881 0)
(0.633658 -0.794794 0)
(0.712924 -0.85697 0)
(0.771115 -0.909164 0)
(0.855646 -0.958061 0)
(0.921117 -0.972816 0)
(1.00129 -0.758009 0)
(0.452897 0.0125814 0)
(0.112333 0.961515 0)
(-0.0917317 1.02915 0)
(0.0396276 1.46416 0)
(0.0770096 1.31007 0)
(0.516205 1.8937 0)
(0.0230433 -0.543446 0)
(0.0658078 -0.547296 0)
(0.112415 -0.555599 0)
(0.15598 -0.568703 0)
(0.204207 -0.583691 0)
(0.249741 -0.608333 0)
(0.300176 -0.631316 0)
(0.349488 -0.666186 0)
(0.402964 -0.701611 0)
(0.456627 -0.748095 0)
(0.514633 -0.796096 0)
(0.573163 -0.861596 0)
(0.637254 -0.919273 0)
(0.687491 -0.977558 0)
(0.763423 -1.02504 0)
(0.800415 -1.02786 0)
(0.821355 -0.414871 0)
(0.034776 0.482367 0)
(-0.0143706 1.09881 0)
(-0.108948 1.01725 0)
(0.033789 1.35173 0)
(0.111081 1.11037 0)
(0.355733 1.47477 0)
(0.0211143 -0.58579 0)
(0.0590905 -0.589878 0)
(0.101749 -0.598506 0)
(0.140345 -0.612306 0)
(0.184188 -0.628227 0)
(0.224628 -0.653704 0)
(0.269643 -0.678584 0)
(0.313773 -0.714538 0)
(0.359996 -0.752274 0)
(0.408733 -0.800225 0)
(0.456139 -0.851165 0)
(0.511308 -0.917857 0)
(0.556948 -0.972549 0)
(0.609055 -1.03679 0)
(0.66119 -1.07196 0)
(0.679386 -1.02236 0)
(0.401808 -0.00129128 0)
(-0.147096 0.873144 0)
(-0.0506054 1.07995 0)
(-0.104115 1.00628 0)
(0.0339942 1.21518 0)
(0.125024 1.01559 0)
(0.249796 1.21248 0)
(0.0191108 -0.624132 0)
(0.0522417 -0.628436 0)
(0.0908291 -0.637318 0)
(0.124273 -0.651658 0)
(0.163725 -0.668438 0)
(0.198542 -0.694306 0)
(0.238455 -0.720917 0)
(0.276227 -0.757064 0)
(0.31617 -0.79702 0)
(0.358029 -0.84474 0)
(0.396983 -0.899187 0)
(0.446031 -0.962778 0)
(0.477579 -1.01842 0)
(0.530812 -1.08235 0)
(0.553271 -1.0967 0)
(0.567432 -0.760172 0)
(-0.0512844 0.400218 0)
(-0.164945 0.957267 0)
(-0.105343 1.032 0)
(-0.0862166 0.959398 0)
(0.0131025 1.09495 0)
(0.11045 0.920301 0)
(0.17883 1.03695 0)
(0.0169321 -0.657423 0)
(0.0449595 -0.661904 0)
(0.0792415 -0.670807 0)
(0.107225 -0.685538 0)
(0.142424 -0.702779 0)
(0.171023 -0.728822 0)
(0.206698 -0.756564 0)
(0.236741 -0.792747 0)
(0.272596 -0.834371 0)
(0.304628 -0.881672 0)
(0.339478 -0.939437 0)
(0.376475 -0.999221 0)
(0.403369 -1.05843 0)
(0.450237 -1.11209 0)
(0.457997 -1.11186 0)
(0.446432 -0.403044 0)
(-0.276474 0.721207 0)
(-0.134218 0.942142 0)
(-0.156427 0.983359 0)
(-0.0710912 0.904227 0)
(-0.0119077 0.999126 0)
(0.0861128 0.865551 0)
(0.125511 0.926049 0)
(0.0147278 -0.686443 0)
(0.0378287 -0.691184 0)
(0.0677526 -0.699987 0)
(0.0903841 -0.715281 0)
(0.121253 -0.732619 0)
(0.143459 -0.759014 0)
(0.174833 -0.786954 0)
(0.196506 -0.823405 0)
(0.228751 -0.865096 0)
(0.249197 -0.912116 0)
(0.282207 -0.971036 0)
(0.301676 -1.02744 0)
(0.332319 -1.09299 0)
(0.365591 -1.1346 0)
(0.383761 -1.09941 0)
(0.15364 -0.00509334 0)
(-0.371952 0.96591 0)
(-0.132271 0.853566 0)
(-0.182049 0.952597 0)
(-0.0762418 0.831421 0)
(-0.0469703 0.921206 0)
(0.0514037 0.798127 0)
(0.0761841 0.834006 0)
(0.0123043 -0.710129 0)
(0.0304685 -0.715095 0)
(0.0555291 -0.723509 0)
(0.0730454 -0.739224 0)
(0.098886 -0.756018 0)
(0.115271 -0.782635 0)
(0.14152 -0.809797 0)
(0.155985 -0.847016 0)
(0.183529 -0.887256 0)
(0.193814 -0.935688 0)
(0.224089 -0.991981 0)
(0.225615 -1.05051 0)
(0.260735 -1.12263 0)
(0.270978 -1.15997 0)
(0.274441 -0.913011 0)
(-0.283557 0.375373 0)
(-0.308035 0.989903 0)
(-0.212828 0.764903 0)
(-0.169907 0.913435 0)
(-0.106314 0.780272 0)
(-0.0662451 0.858551 0)
(0.0149966 0.751873 0)
(0.0374926 0.775596 0)
(0.00991589 -0.729577 0)
(0.0238256 -0.734772 0)
(0.0438252 -0.742922 0)
(0.0568699 -0.758983 0)
(0.0768276 -0.775186 0)
(0.0882564 -0.801946 0)
(0.107927 -0.827937 0)
(0.116709 -0.865625 0)
(0.137344 -0.903041 0)
(0.141195 -0.952793 0)
(0.166459 -1.0027 0)
(0.158169 -1.06463 0)
(0.195438 -1.13826 0)
(0.174377 -1.14617 0)
(0.158214 -0.544104 0)
(-0.466151 0.589769 0)
(-0.191247 0.887887 0)
(-0.263725 0.724382 0)
(-0.152417 0.836648 0)
(-0.136158 0.737762 0)
(-0.0835254 0.790051 0)
(-0.0257607 0.703555 0)
(-0.000494132 0.713579 0)
(0.00747821 -0.743889 0)
(0.0175107 -0.749024 0)
(0.0323073 -0.756575 0)
(0.0412944 -0.772245 0)
(0.0555254 -0.787443 0)
(0.0631309 -0.81379 0)
(0.0768458 -0.838348 0)
(0.0823028 -0.87661 0)
(0.0969464 -0.911968 0)
(0.0989995 -0.965171 0)
(0.119121 -1.00932 0)
(0.111793 -1.08051 0)
(0.148624 -1.13785 0)
(0.103877 -1.12468 0)
(0.0606442 -0.268381 0)
(-0.423643 0.724459 0)
(-0.126104 0.780897 0)
(-0.249539 0.73182 0)
(-0.143085 0.776855 0)
(-0.149136 0.718292 0)
(-0.100001 0.739549 0)
(-0.0563315 0.674582 0)
(-0.0339581 0.671941 0)
(0.00557272 -0.754876 0)
(0.0129446 -0.759899 0)
(0.0236744 -0.767018 0)
(0.0298328 -0.782479 0)
(0.0395025 -0.797323 0)
(0.0446405 -0.823474 0)
(0.0534996 -0.84731 0)
(0.0573573 -0.885745 0)
(0.0669648 -0.919709 0)
(0.0702631 -0.974694 0)
(0.0862778 -1.01513 0)
(0.0949544 -1.09333 0)
(0.164096 -1.12969 0)
(0.0969411 -1.05675 0)
(-0.00576473 -0.0128853 0)
(-0.336595 0.78489 0)
(-0.136835 0.707585 0)
(-0.248664 0.74898 0)
(-0.16366 0.729402 0)
(-0.173914 0.701774 0)
(-0.125781 0.690892 0)
(-0.0921857 0.643531 0)
(-0.0662173 0.625942 0)
(0.0042348 -0.762248 0)
(0.00947937 -0.766955 0)
(0.0175281 -0.773296 0)
(0.0225619 -0.787856 0)
(0.0303426 -0.80204 0)
(0.0350325 -0.827542 0)
(0.0427384 -0.850862 0)
(0.0473672 -0.889906 0)
(0.0574232 -0.924808 0)
(0.0668559 -0.984506 0)
(0.0876709 -1.03427 0)
(0.13065 -1.15977 0)
(0.188084 -1.13822 0)
(0.166539 -0.953468 0)
(-0.0370502 0.159246 0)
(-0.183548 0.860198 0)
(-0.196148 0.685642 0)
(-0.231709 0.763625 0)
(-0.203367 0.695406 0)
(-0.190033 0.685164 0)
(-0.158899 0.651779 0)
(-0.120523 0.618661 0)
(-0.0996668 0.592202 0)
(0.00349785 -0.768777 0)
(0.00887708 -0.773368 0)
(0.0177683 -0.780303 0)
(0.0269742 -0.795487 0)
(0.0371245 -0.810152 0)
(0.0601319 -0.838049 0)
(0.0715342 -0.862804 0)
(0.119648 -0.903523 0)
(0.125652 -0.942622 0)
(0.242104 -1.00752 0)
(0.248092 -1.08167 0)
(0.364308 -1.19398 0)
(0.153451 -1.16831 0)
(0.14873 -0.828315 0)
(-0.148574 0.336477 0)
(-0.17593 0.950086 0)
(-0.278697 0.752368 0)
(-0.248299 0.761263 0)
(-0.25968 0.683698 0)
(-0.213472 0.661828 0)
(-0.199734 0.617463 0)
(-0.149071 0.588186 0)
(-0.13326 0.555272 0)
(-0.00531259 -0.77532 0)
(0.0121892 -0.781798 0)
(-0.00079735 -0.791872 0)
(0.0203067 -0.807581 0)
(0.0011047 -0.834911 0)
(0.0323009 -0.859186 0)
(0.00969243 -0.908765 0)
(0.0675551 -0.941555 0)
(0.0525109 -1.04253 0)
(0.192736 -1.10691 0)
(0.210426 -1.15192 0)
(0.415203 -1.06693 0)
(0.134824 -0.913801 0)
(0.118522 -0.650894 0)
(-0.272244 0.481954 0)
(-0.256288 0.997904 0)
(-0.358472 0.752242 0)
(-0.29847 0.749082 0)
(-0.313459 0.655528 0)
(-0.248801 0.628409 0)
(-0.239211 0.58308 0)
(-0.179709 0.554412 0)
(-0.165605 0.524327 0)
(-0.0138219 -0.775293 0)
(-0.0161151 -0.778047 0)
(-0.0461824 -0.788166 0)
(-0.0442744 -0.798829 0)
(-0.0807794 -0.824293 0)
(-0.0749291 -0.846736 0)
(-0.118793 -0.897669 0)
(-0.103251 -0.948694 0)
(-0.135723 -1.06889 0)
(-0.0858401 -1.17122 0)
(-0.069736 -1.30384 0)
(0.0762384 -1.12965 0)
(0.108737 -0.867404 0)
(0.0222079 -0.422784 0)
(-0.607904 0.715312 0)
(-0.347084 1.036 0)
(-0.498411 0.793735 0)
(-0.344684 0.71868 0)
(-0.377121 0.631878 0)
(-0.282191 0.590178 0)
(-0.276072 0.546081 0)
(-0.207908 0.516927 0)
(-0.192947 0.488653 0)
(-0.0209824 -0.744738 0)
(-0.0344266 -0.74918 0)
(-0.0740179 -0.761961 0)
(-0.0869906 -0.773068 0)
(-0.129215 -0.799361 0)
(-0.144575 -0.822077 0)
(-0.193603 -0.878117 0)
(-0.216146 -0.924485 0)
(-0.28257 -1.05691 0)
(-0.33553 -1.17211 0)
(-0.429539 -1.31158 0)
(-0.527103 -1.24188 0)
(-0.577851 -0.854182 0)
(-0.848823 0.074222 0)
(-1.02102 0.831833 0)
(-0.670507 0.901229 0)
(-0.647263 0.740168 0)
(-0.450749 0.631721 0)
(-0.443263 0.588397 0)
(-0.329752 0.528976 0)
(-0.312434 0.505655 0)
(-0.237683 0.472208 0)
(-0.217697 0.455216 0)
(-0.0189656 -0.719887 0)
(-0.0358326 -0.725268 0)
(-0.0770826 -0.735724 0)
(-0.0970912 -0.744653 0)
(-0.145696 -0.767365 0)
(-0.171292 -0.783685 0)
(-0.236675 -0.826195 0)
(-0.284708 -0.861082 0)
(-0.38937 -0.949467 0)
(-0.52481 -1.02662 0)
(-0.735183 -1.11205 0)
(-0.987971 -0.982995 0)
(-1.2449 -0.548499 0)
(-1.37209 0.0376926 0)
(-1.15518 0.540859 0)
(-0.863162 0.663266 0)
(-0.679819 0.57345 0)
(-0.534968 0.516896 0)
(-0.457506 0.509487 0)
(-0.37307 0.461092 0)
(-0.326387 0.452718 0)
(-0.266322 0.423587 0)
(-0.233817 0.415849 0)
(-0.0200133 -0.689296 0)
(-0.0409683 -0.690722 0)
(-0.0860828 -0.699378 0)
(-0.111629 -0.704123 0)
(-0.164053 -0.722872 0)
(-0.200262 -0.730579 0)
(-0.266736 -0.76224 0)
(-0.328031 -0.770699 0)
(-0.432971 -0.813551 0)
(-0.571217 -0.8234 0)
(-0.778181 -0.844619 0)
(-1.02793 -0.730212 0)
(-1.22216 -0.466805 0)
(-1.23311 -0.0223262 0)
(-1.09385 0.31385 0)
(-0.84023 0.420541 0)
(-0.672172 0.408273 0)
(-0.552508 0.407225 0)
(-0.462633 0.42423 0)
(-0.387981 0.396917 0)
(-0.331407 0.397001 0)
(-0.279318 0.379307 0)
(-0.240777 0.375549 0)
(-0.0216124 -0.65877 0)
(-0.048812 -0.659168 0)
(-0.0938113 -0.664997 0)
(-0.125049 -0.666962 0)
(-0.177129 -0.678798 0)
(-0.21851 -0.681544 0)
(-0.28435 -0.69844 0)
(-0.347232 -0.69523 0)
(-0.436088 -0.706121 0)
(-0.539089 -0.681011 0)
(-0.679935 -0.654688 0)
(-0.844834 -0.536186 0)
(-0.987105 -0.344412 0)
(-1.01631 -0.0849858 0)
(-0.904007 0.144513 0)
(-0.749774 0.243814 0)
(-0.627698 0.28346 0)
(-0.538182 0.309262 0)
(-0.457507 0.343506 0)
(-0.390773 0.331253 0)
(-0.336887 0.343102 0)
(-0.289026 0.333926 0)
(-0.249815 0.335875 0)
(-0.0218566 -0.618259 0)
(-0.0493561 -0.618148 0)
(-0.0947145 -0.622053 0)
(-0.126749 -0.620464 0)
(-0.178464 -0.627728 0)
(-0.221218 -0.62284 0)
(-0.285854 -0.631371 0)
(-0.347018 -0.618048 0)
(-0.429648 -0.619122 0)
(-0.514793 -0.578007 0)
(-0.618074 -0.536162 0)
(-0.718903 -0.422273 0)
(-0.792675 -0.294055 0)
(-0.812189 -0.108631 0)
(-0.751759 0.0454664 0)
(-0.661956 0.140593 0)
(-0.580133 0.194787 0)
(-0.508669 0.235075 0)
(-0.443222 0.274949 0)
(-0.381805 0.275313 0)
(-0.333993 0.293676 0)
(-0.287918 0.291708 0)
(-0.250677 0.29731 0)
(-0.020279 -0.587357 0)
(-0.0499716 -0.586176 0)
(-0.0921814 -0.587437 0)
(-0.125105 -0.58322 0)
(-0.17203 -0.584219 0)
(-0.212157 -0.574238 0)
(-0.267852 -0.572517 0)
(-0.32072 -0.55137 0)
(-0.390157 -0.538115 0)
(-0.461007 -0.491876 0)
(-0.539336 -0.450073 0)
(-0.610739 -0.359609 0)
(-0.656523 -0.251018 0)
(-0.675223 -0.123288 0)
(-0.634205 -0.00697668 0)
(-0.585928 0.073825 0)
(-0.522705 0.129153 0)
(-0.471312 0.173546 0)
(-0.417399 0.215773 0)
(-0.36505 0.222944 0)
(-0.324014 0.248564 0)
(-0.282127 0.251252 0)
(-0.248781 0.261775 0)
(-0.0211407 -0.547386 0)
(-0.0510042 -0.545787 0)
(-0.0944572 -0.545961 0)
(-0.127332 -0.54025 0)
(-0.174276 -0.539347 0)
(-0.212385 -0.526629 0)
(-0.264693 -0.521234 0)
(-0.310439 -0.495273 0)
(-0.368879 -0.477216 0)
(-0.421631 -0.428388 0)
(-0.477782 -0.385074 0)
(-0.527139 -0.305284 0)
(-0.556522 -0.229087 0)
(-0.568501 -0.132426 0)
(-0.545497 -0.0445126 0)
(-0.514146 0.0272227 0)
(-0.468994 0.0790842 0)
(-0.432359 0.128413 0)
(-0.387747 0.167393 0)
(-0.344799 0.1811 0)
(-0.31048 0.209559 0)
(-0.272112 0.215957 0)
(-0.242592 0.229529 0)
(-0.0185428 -0.51506 0)
(-0.0475648 -0.512713 0)
(-0.0857113 -0.510925 0)
(-0.116986 -0.503327 0)
(-0.158284 -0.498962 0)
(-0.193829 -0.483746 0)
(-0.239497 -0.474165 0)
(-0.280515 -0.446924 0)
(-0.328863 -0.426522 0)
(-0.37279 -0.382354 0)
(-0.415554 -0.344215 0)
(-0.453488 -0.279736 0)
(-0.473532 -0.20964 0)
(-0.486615 -0.133132 0)
(-0.47112 -0.0616885 0)
(-0.453493 -0.0018118 0)
(-0.420165 0.0470135 0)
(-0.394145 0.092943 0)
(-0.355356 0.127786 0)
(-0.322052 0.146228 0)
(-0.292581 0.175458 0)
(-0.258934 0.183767 0)
(-0.233431 0.200627 0)
(-0.0186755 -0.480687 0)
(-0.0466631 -0.478155 0)
(-0.0844493 -0.475741 0)
(-0.113733 -0.467342 0)
(-0.152945 -0.461519 0)
(-0.184646 -0.445165 0)
(-0.225448 -0.433481 0)
(-0.259923 -0.40574 0)
(-0.300223 -0.383931 0)
(-0.335224 -0.341645 0)
(-0.368255 -0.303619 0)
(-0.397729 -0.247628 0)
(-0.41308 -0.195664 0)
(-0.421968 -0.135611 0)
(-0.412766 -0.077901 0)
(-0.400408 -0.0247696 0)
(-0.376315 0.0191833 0)
(-0.356076 0.0626783 0)
(-0.323976 0.0945186 0)
(-0.298789 0.117708 0)
(-0.272608 0.145606 0)
(-0.244267 0.156389 0)
(-0.222063 0.174888 0)
(-0.0163204 -0.449567 0)
(-0.0429843 -0.446793 0)
(-0.0760592 -0.443637 0)
(-0.103764 -0.434717 0)
(-0.137883 -0.427756 0)
(-0.167244 -0.411099 0)
(-0.202005 -0.398528 0)
(-0.232759 -0.371894 0)
(-0.265603 -0.350857 0)
(-0.295436 -0.3139 0)
(-0.321216 -0.281437 0)
(-0.344475 -0.234247 0)
(-0.356038 -0.185356 0)
(-0.365329 -0.132852 0)
(-0.359916 -0.0833412 0)
(-0.352672 -0.0378217 0)
(-0.335373 0.00257541 0)
(-0.320082 0.040887 0)
(-0.29458 0.0703155 0)
(-0.275144 0.0951254 0)
(-0.251789 0.120684 0)
(-0.228439 0.133439 0)
(-0.209014 0.152562 0)
(-0.0156253 -0.420899 0)
(-0.0399781 -0.418027 0)
(-0.0713502 -0.414355 0)
(-0.09626 -0.405253 0)
(-0.127851 -0.397345 0)
(-0.1536 -0.380884 0)
(-0.184695 -0.367238 0)
(-0.210833 -0.34207 0)
(-0.238914 -0.320589 0)
(-0.263585 -0.286051 0)
(-0.284749 -0.254116 0)
(-0.304132 -0.213049 0)
(-0.314169 -0.174593 0)
(-0.321209 -0.132153 0)
(-0.317769 -0.0906369 0)
(-0.312745 -0.049879 0)
(-0.299484 -0.0136919 0)
(-0.287049 0.0212995 0)
(-0.266793 0.0491483 0)
(-0.251421 0.0744684 0)
(-0.230815 0.098375 0)
(-0.21208 0.113307 0)
(-0.194604 0.132408 0)
(-0.0136322 -0.393782 0)
(-0.0366634 -0.390905 0)
(-0.0639266 -0.387109 0)
(-0.0872206 -0.378086 0)
(-0.114312 -0.370111 0)
(-0.137904 -0.354117 0)
(-0.163928 -0.340966 0)
(-0.187154 -0.317486 0)
(-0.210168 -0.297809 0)
(-0.231264 -0.267802 0)
(-0.248273 -0.240662 0)
(-0.263764 -0.204456 0)
(-0.271918 -0.168199 0)
(-0.278826 -0.128962 0)
(-0.277513 -0.0918135 0)
(-0.274677 -0.0559121 0)
(-0.265119 -0.0231569 0)
(-0.255734 0.00829356 0)
(-0.240196 0.0346118 0)
(-0.227757 0.0592207 0)
(-0.210537 0.0811982 0)
(-0.19527 0.0973032 0)
(-0.179825 0.115633 0)
(-0.012615 -0.370245 0)
(-0.032943 -0.367437 0)
(-0.0580759 -0.363361 0)
(-0.0785144 -0.354663 0)
(-0.103195 -0.346172 0)
(-0.123647 -0.33114 0)
(-0.146883 -0.317482 0)
(-0.166743 -0.295769 0)
(-0.186708 -0.27603 0)
(-0.204544 -0.247954 0)
(-0.219277 -0.22131 0)
(-0.232773 -0.189548 0)
(-0.240211 -0.159364 0)
(-0.245911 -0.126776 0)
(-0.245067 -0.0947798 0)
(-0.243117 -0.0625727 0)
(-0.235685 -0.032769 0)
(-0.228196 -0.00396453 0)
(-0.215728 0.0209435 0)
(-0.205425 0.0445102 0)
(-0.190716 0.0655808 0)
(-0.178394 0.0823768 0)
(-0.164532 0.100227 0)
(-0.0108775 -0.348032 0)
(-0.0297514 -0.345278 0)
(-0.0513282 -0.341297 0)
(-0.0701184 -0.332842 0)
(-0.0910451 -0.324705 0)
(-0.109518 -0.310317 0)
(-0.128917 -0.297596 0)
(-0.146395 -0.277539 0)
(-0.162932 -0.259768 0)
(-0.178165 -0.235083 0)
(-0.190122 -0.21224 0)
(-0.200983 -0.183333 0)
(-0.207213 -0.154967 0)
(-0.212495 -0.123986 0)
(-0.212847 -0.0945878 0)
(-0.212002 -0.0652388 0)
(-0.206768 -0.0380937 0)
(-0.201069 -0.0116646 0)
(-0.191619 0.0117986 0)
(-0.183234 0.0341839 0)
(-0.17141 0.0540764 0)
(-0.161189 0.0711039 0)
(-0.149411 0.0880387 0)
(-0.0097936 -0.329362 0)
(-0.0260473 -0.326771 0)
(-0.0454382 -0.322686 0)
(-0.0615875 -0.314789 0)
(-0.0802851 -0.306431 0)
(-0.0960964 -0.293159 0)
(-0.113222 -0.280256 0)
(-0.128141 -0.261688 0)
(-0.14255 -0.243951 0)
(-0.155521 -0.220752 0)
(-0.166182 -0.19828 0)
(-0.175885 -0.172523 0)
(-0.181654 -0.147721 0)
(-0.186275 -0.121244 0)
(-0.186648 -0.0952293 0)
(-0.186198 -0.0687988 0)
(-0.182019 -0.043748 0)
(-0.177619 -0.0192946 0)
(-0.169912 0.002994 0)
(-0.162996 0.0241224 0)
(-0.153097 0.0433662 0)
(-0.14466 0.0602349 0)
(-0.134369 0.0767561 0)
(-0.00828428 -0.312011 0)
(-0.0229609 -0.309479 0)
(-0.0393118 -0.305541 0)
(-0.0537951 -0.297883 0)
(-0.069428 -0.289965 0)
(-0.0834111 -0.277295 0)
(-0.0976438 -0.265331 0)
(-0.110579 -0.248137 0)
(-0.122503 -0.232195 0)
(-0.133513 -0.211373 0)
(-0.142141 -0.191715 0)
(-0.149954 -0.167778 0)
(-0.154775 -0.144488 0)
(-0.158856 -0.11896 0)
(-0.159844 -0.094638 0)
(-0.159958 -0.0698831 0)
(-0.157194 -0.0466836 0)
(-0.153912 -0.02382 0)
(-0.14812 -0.00286011 0)
(-0.142572 0.0173053 0)
(-0.134804 0.0356737 0)
(-0.127814 0.0523181 0)
(-0.119379 0.068149 0)
(-0.00721379 -0.297947 0)
(-0.0194797 -0.295597 0)
(-0.0337171 -0.291647 0)
(-0.0458324 -0.284559 0)
(-0.0594301 -0.276585 0)
(-0.0711483 -0.264854 0)
(-0.0834662 -0.252852 0)
(-0.0943245 -0.236767 0)
(-0.104636 -0.220807 0)
(-0.113953 -0.201086 0)
(-0.121673 -0.181689 0)
(-0.128685 -0.159907 0)
(-0.133149 -0.138715 0)
(-0.136845 -0.116211 0)
(-0.137748 -0.0940714 0)
(-0.138063 -0.0715092 0)
(-0.135843 -0.0497944 0)
(-0.13337 -0.028452 0)
(-0.128663 -0.00839329 0)
(-0.124208 0.0107128 0)
(-0.117777 0.0285199 0)
(-0.112062 0.0447284 0)
(-0.104898 0.0602188 0)
(-0.00590255 -0.285159 0)
(-0.0165339 -0.282841 0)
(-0.0281697 -0.279006 0)
(-0.0386295 -0.272074 0)
(-0.0497056 -0.264462 0)
(-0.0597226 -0.253192 0)
(-0.0697433 -0.241979 0)
(-0.0789113 -0.226922 0)
(-0.0872817 -0.212413 0)
(-0.0950098 -0.194299 0)
(-0.101141 -0.176853 0)
(-0.106716 -0.156275 0)
(-0.110353 -0.136251 0)
(-0.113478 -0.114371 0)
(-0.11465 -0.0933939 0)
(-0.115226 -0.0718331 0)
(-0.113942 -0.051385 0)
(-0.11222 -0.0310661 0)
(-0.108846 -0.0120557 0)
(-0.105391 0.00634595 0)
(-0.100521 0.0234734 0)
(-0.0959037 0.0393702 0)
(-0.0902654 0.0543637 0)
(-0.00484982 -0.275411 0)
(-0.013243 -0.273242 0)
(-0.0228503 -0.269428 0)
(-0.0311801 -0.26295 0)
(-0.0403838 -0.25535 0)
(-0.0484374 -0.244754 0)
(-0.0567978 -0.233514 0)
(-0.0642328 -0.219178 0)
(-0.071292 -0.204573 0)
(-0.0776874 -0.187197 0)
(-0.083061 -0.169881 0)
(-0.0879546 -0.150688 0)
(-0.0912956 -0.131874 0)
(-0.0941595 -0.111915 0)
(-0.0952386 -0.0922704 0)
(-0.0959311 -0.0722285 0)
(-0.0949558 -0.0527781 0)
(-0.0937637 -0.033574 0)
(-0.0910875 -0.0152315 0)
(-0.0884567 0.00235176 0)
(-0.0845348 0.0189937 0)
(-0.0809191 0.0344357 0)
(-0.076318 0.0491348 0)
(-0.00366719 -0.266935 0)
(-0.0103638 -0.264729 0)
(-0.0176491 -0.260922 0)
(-0.024306 -0.25446 0)
(-0.0313029 -0.247058 0)
(-0.0377224 -0.236727 0)
(-0.0441263 -0.226049 0)
(-0.050057 -0.212399 0)
(-0.0555149 -0.198839 0)
(-0.0605779 -0.182514 0)
(-0.0647038 -0.166486 0)
(-0.0684477 -0.148038 0)
(-0.0710774 -0.129984 0)
(-0.0734096 -0.110455 0)
(-0.0745783 -0.091601 0)
(-0.075384 -0.0721672 0)
(-0.0750658 -0.0535612 0)
(-0.0744285 -0.035 0)
(-0.0727741 -0.0173923 0)
(-0.0709447 -0.000276058 0)
(-0.0682397 0.0158911 0)
(-0.0655267 0.0310891 0)
(-0.0621595 0.045446 0)
(-0.0026353 -0.261342 0)
(-0.00720214 -0.259227 0)
(-0.0124613 -0.255432 0)
(-0.0170433 -0.249264 0)
(-0.0221263 -0.241863 0)
(-0.0266332 -0.231895 0)
(-0.0313823 -0.221099 0)
(-0.035724 -0.207755 0)
(-0.0399804 -0.193976 0)
(-0.0439886 -0.177982 0)
(-0.0475607 -0.161949 0)
(-0.0509531 -0.144296 0)
(-0.0534497 -0.126858 0)
(-0.0556884 -0.108394 0)
(-0.0568563 -0.0902503 0)
(-0.0577878 -0.0717241 0)
(-0.0576812 -0.0537024 0)
(-0.057407 -0.0358561 0)
(-0.0562089 -0.0187027 0)
(-0.0549775 -0.00218179 0)
(-0.0529986 0.0135676 0)
(-0.0511245 0.0283507 0)
(-0.0486279 0.0424408 0)
(-0.00161833 -0.256995 0)
(-0.00454294 -0.254817 0)
(-0.00764035 -0.250972 0)
(-0.0104602 -0.244735 0)
(-0.0134498 -0.237363 0)
(-0.0162692 -0.227436 0)
(-0.0191609 -0.216862 0)
(-0.0219529 -0.203784 0)