/*--------------------------------*- C++ -*----------------------------------*\
| =========                 |                                                 |
| \\      /  F ield         | OpenFOAM: The Open Source CFD Toolbox           |
|  \\    /   O peration     | Version:  2012                                  |
|   \\  /    A nd           | Website:  www.openfoam.com                      |
|    \\/     M anipulation  |                                                 |
\*---------------------------------------------------------------------------*/
FoamFile
{
    version     2.0;
    format      ascii;
    class       volVectorField;
    location    "0.12";
    object      Uc;
}
// * * * * * * * * * * * * * * * * * * * * * * * * * * * * * * * * * * * * * //

dimensions      [0 1 -1 0 0 0 0];


internalField   nonuniform List<vector> 
2268
(
(0.0327897 -0.0154962 0)
(0.0986144 -0.0156121 0)
(0.165279 -0.0158933 0)
(0.23332 -0.0162624 0)
(0.303253 -0.0167874 0)
(0.375784 -0.01749 0)
(0.451318 -0.0182071 0)
(0.530764 -0.0193382 0)
(0.614608 -0.0202858 0)
(0.703477 -0.0217134 0)
(0.798839 -0.023354 0)
(0.900521 -0.0247001 0)
(1.00718 -0.0257063 0)
(1.12016 -0.027688 0)
(1.24402 -0.0308484 0)
(1.38231 -0.0345029 0)
(1.53364 -0.0370161 0)
(1.67438 -0.0294961 0)
(1.7604 -0.0111575 0)
(1.7789 0.0024156 0)
(1.73784 0.0169889 0)
(1.60965 0.0434946 0)
(0.758705 0.351605 0)
(0.0327301 -0.0464604 0)
(0.0984403 -0.0468103 0)
(0.164984 -0.0476486 0)
(0.232895 -0.048757 0)
(0.302696 -0.0503302 0)
(0.375095 -0.0524398 0)
(0.450488 -0.0545851 0)
(0.529791 -0.0579835 0)
(0.613514 -0.0608315 0)
(0.702225 -0.0650907 0)
(0.797389 -0.0700177 0)
(0.899071 -0.0741448 0)
(1.00617 -0.0772837 0)
(1.12018 -0.0833845 0)
(1.24567 -0.0929942 0)
(1.38552 -0.103801 0)
(1.53142 -0.108186 0)
(1.65651 -0.0839563 0)
(1.73372 -0.0338375 0)
(1.76623 0.000993824 0)
(1.76016 0.0406484 0)
(1.66994 0.12246 0)
(0.79696 1.07582 0)
(0.0326107 -0.07734 0)
(0.0980852 -0.0779276 0)
(0.164383 -0.0793115 0)
(0.232036 -0.0811604 0)
(0.30157 -0.0837754 0)
(0.373699 -0.0872975 0)
(0.448804 -0.0908515 0)
(0.5278 -0.096528 0)
(0.611263 -0.101298 0)
(0.699661 -0.108325 0)
(0.794419 -0.116539 0)
(0.89598 -0.123674 0)
(1.00362 -0.129241 0)
(1.11894 -0.139806 0)
(1.24705 -0.156421 0)
(1.38924 -0.173663 0)
(1.5287 -0.173185 0)
(1.63772 -0.129597 0)
(1.70795 -0.0578748 0)
(1.7548 -0.0124695 0)
(1.77849 0.0455223 0)
(1.71004 0.191679 0)
(0.819135 1.83597 0)
(0.0324342 -0.10808 0)
(0.0975511 -0.108904 0)
(0.163485 -0.110826 0)
(0.230765 -0.113414 0)
(0.299904 -0.117058 0)
(0.371637 -0.122004 0)
(0.446319 -0.126933 0)
(0.524854 -0.134894 0)
(0.607918 -0.141632 0)
(0.695884 -0.151339 0)
(0.790051 -0.162809 0)
(0.891281 -0.173242 0)
(0.999474 -0.181677 0)
(1.1163 -0.197083 0)
(1.24704 -0.221473 0)
(1.38944 -0.243104 0)
(1.52049 -0.231584 0)
(1.61836 -0.168974 0)
(1.69128 -0.0840663 0)
(1.75374 -0.0358653 0)
(1.79198 0.0393748 0)
(1.72453 0.261778 0)
(0.823984 2.6139 0)
(0.0321958 -0.138624 0)
(0.0968277 -0.139679 0)
(0.162267 -0.142138 0)
(0.229043 -0.145456 0)
(0.297642 -0.15011 0)
(0.368825 -0.156494 0)
(0.442923 -0.162756 0)
(0.520795 -0.172988 0)
(0.603253 -0.181762 0)
(0.690607 -0.194064 0)
(0.783971 -0.20871 0)
(0.88457 -0.222724 0)
(0.993 -0.234569 0)
(1.11108 -0.255205 0)
(1.2434 -0.287672 0)
(1.38383 -0.310573 0)
(1.50677 -0.284143 0)
(1.60133 -0.205618 0)
(1.68542 -0.117801 0)
(1.76484 -0.0669219 0)
(1.80348 0.0344729 0)
(1.68676 0.354201 0)
(0.784179 3.37526 0)
(0.0319 -0.168915 0)
(0.0959318 -0.170193 0)
(0.160759 -0.173187 0)
(0.226911 -0.177228 0)
(0.294842 -0.182861 0)
(0.365341 -0.1907 0)
(0.438727 -0.198249 0)
(0.515784 -0.210713 0)
(0.597452 -0.221602 0)
(0.684056 -0.236436 0)
(0.776483 -0.254141 0)
(0.876236 -0.271978 0)
(0.984654 -0.287796 0)
(1.10383 -0.314099 0)
(1.23667 -0.35409 0)
(1.37275 -0.374834 0)
(1.49048 -0.333621 0)
(1.58972 -0.245981 0)
(1.69148 -0.163378 0)
(1.78585 -0.102707 0)
(1.77695 0.0571698 0)
(1.50097 0.517599 0)
(0.636975 4.04734 0)
(0.0315368 -0.198895 0)
(0.0948331 -0.200388 0)
(0.158908 -0.20391 0)
(0.224291 -0.208667 0)
(0.291399 -0.21524 0)
(0.361038 -0.224549 0)
(0.433536 -0.233344 0)
(0.509579 -0.247972 0)
(0.59021 -0.261045 0)
(0.675833 -0.278386 0)
(0.767159 -0.29903 0)
(0.86587 -0.320882 0)
(0.973791 -0.341132 0)
(1.09332 -0.373573 0)
(1.22472 -0.419493 0)
(1.35463 -0.435139 0)
(1.47059 -0.379292 0)
(1.58248 -0.29553 0)
(1.70604 -0.219588 0)
(1.80662 -0.13728 0)
(1.67218 0.160313 0)
(1.15623 0.78889 0)
(0.404657 4.53976 0)
(0.0311168 -0.228504 0)
(0.0935673 -0.230205 0)
(0.156776 -0.234246 0)
(0.221281 -0.239716 0)
(0.287458 -0.247181 0)
(0.35612 -0.257968 0)
(0.427637 -0.267986 0)
(0.502583 -0.284687 0)
(0.582058 -0.299994 0)
(0.666623 -0.319866 0)
(0.756822 -0.343338 0)
(0.854435 -0.369357 0)
(0.961696 -0.39435 0)
(1.08074 -0.433104 0)
(1.2079 -0.482155 0)
(1.33285 -0.49292 0)
(1.44957 -0.42701 0)
(1.5756 -0.355298 0)
(1.71473 -0.282493 0)
(1.76195 -0.142889 0)
(1.47647 0.364721 0)
(0.75709 1.16832 0)
(0.150596 4.80224 0)
(-0.03069 0.0130556 0)
(-0.0323765 -0.0123354 0)
(0.00500503 -0.00356259 0)
(0.0384158 -0.0106465 0)
(0.0747222 -0.00479429 0)
(0.096281 -0.00437362 0)
(0.110369 -0.00161656 0)
(0.115732 -0.000662501 0)
(0.116005 0.000548926 0)
(0.111536 0.00135423 0)
(0.104107 0.00180771 0)
(0.0945203 0.00227226 0)
(0.0835117 0.00241244 0)
(0.071615 0.00264998 0)
(0.0590904 0.00267951 0)
(0.0462389 0.00278905 0)
(0.0331329 0.00278774 0)
(0.0199329 0.00282906 0)
(0.00664212 0.00282634 0)
(-0.0300205 0.0388821 0)
(-0.0310028 -0.037021 0)
(0.00768656 -0.0112292 0)
(0.0421957 -0.0318651 0)
(0.0781214 -0.0142951 0)
(0.0993365 -0.0130623 0)
(0.112986 -0.00472154 0)
(0.117783 -0.00187476 0)
(0.11754 0.00175311 0)
(0.112648 0.00413635 0)
(0.104895 0.00548737 0)
(0.0950661 0.00685557 0)
(0.0838897 0.00726986 0)
(0.0718719 0.00796893 0)
(0.0592658 0.00805424 0)
(0.0463546 0.00837685 0)
(0.0332064 0.00837146 0)
(0.0199729 0.00849315 0)
(0.00665512 0.00848452 0)
(-0.0484657 0.0722696 0)
(-0.0590406 -0.065487 0)
(-0.00615118 -0.0217121 0)
(0.0363137 -0.0541189 0)
(0.0765922 -0.0244504 0)
(0.0995114 -0.0216753 0)
(0.113429 -0.00782971 0)
(0.118224 -0.00284194 0)
(0.117705 0.00304856 0)
(0.112726 0.00704404 0)
(0.104873 0.00922216 0)
(0.0950244 0.011495 0)
(0.083817 0.0121557 0)
(0.0717982 0.0133114 0)
(0.0591891 0.0134413 0)
(0.046289 0.0139729 0)
(0.0331544 0.013959 0)
(0.0199408 0.0141592 0)
(0.00664383 0.0141434 0)
(-0.046932 0.112851 0)
(-0.056433 -0.0975228 0)
(0.00047235 -0.0363733 0)
(0.0478504 -0.0776681 0)
(0.0878404 -0.035039 0)
(0.109168 -0.0299025 0)
(0.121245 -0.0106547 0)
(0.124295 -0.00334949 0)
(0.122229 0.00466008 0)
(0.115966 0.0102185 0)
(0.107166 0.0131359 0)
(0.0966143 0.0162628 0)
(0.0849239 0.0171318 0)
(0.0725535 0.0187136 0)
(0.059706 0.0188714 0)
(0.0466298 0.0195962 0)
(0.0333709 0.0195665 0)
(0.0200588 0.0198387 0)
(0.00668215 0.0198138 0)
(-0.0878895 0.170201 0)
(-0.117302 -0.138315 0)
(-0.0269763 -0.0582019 0)
(0.0377391 -0.103515 0)
(0.0861403 -0.0467855 0)
(0.110306 -0.037502 0)
(0.122231 -0.0132599 0)
(0.12511 -0.00326229 0)
(0.122504 0.00656487 0)
(0.116093 0.0137087 0)
(0.10709 0.017223 0)
(0.0964918 0.021176 0)
(0.0847396 0.0221942 0)
(0.0723711 0.0241782 0)
(0.0595264 0.0243393 0)
(0.0464803 0.0252437 0)
(0.0332553 0.0251883 0)
(0.0199881 0.0255267 0)
(0.00665748 0.0254899 0)
(-0.0800108 0.241623 0)
(-0.10061 -0.188457 0)
(-0.00597149 -0.0867308 0)
(0.0611821 -0.131072 0)
(0.106894 -0.0592545 0)
(0.127476 -0.044062 0)
(0.135646 -0.0152427 0)
(0.135202 -0.00231072 0)
(0.129832 0.00901016 0)
(0.121257 0.0176421 0)
(0.110737 0.0215984 0)
(0.0990212 0.0262964 0)
(0.0865095 0.0273989 0)
(0.0735834 0.029737 0)
(0.0603596 0.0298732 0)
(0.0470311 0.0309326 0)
(0.0336058 0.0308395 0)
(0.0201792 0.031234 0)
(0.00671966 0.0311821 0)
(-0.130958 0.331364 0)
(-0.166609 -0.254265 0)
(-0.0236462 -0.121984 0)
(0.0581326 -0.159164 0)
(0.109202 -0.0723244 0)
(0.131055 -0.0490373 0)
(0.137545 -0.0164986 0)
(0.136351 -0.000353003 0)
(0.130143 0.0119809 0)
(0.121351 0.0220629 0)
(0.110528 0.0262603 0)
(0.0987381 0.0316373 0)
(0.0861463 0.0327401 0)
(0.0732366 0.0353893 0)
(0.0600341 0.0354656 0)
(0.0467657 0.0366575 0)
(0.0334048 0.0365123 0)
(0.0200574 0.0369538 0)
(0.0066775 0.0368827 0)
(-0.0799753 0.421091 0)
(-0.0819323 -0.327987 0)
(0.0429531 -0.162188 0)
(0.111864 -0.183052 0)
(0.145156 -0.0843152 0)
(0.157401 -0.0515452 0)
(0.15665 -0.0164275 0)
(0.150019 0.00290916 0)
(0.139788 0.0157154 0)
(0.128049 0.027066 0)
(0.115269 0.0313012 0)
(0.102037 0.0372439 0)
(0.0884727 0.0382634 0)
(0.0748397 0.0411603 0)
(0.0611433 0.0411403 0)
(0.0475022 0.0424331 0)
(0.0338754 0.0422202 0)
(0.0203144 0.0426956 0)
(0.00676134 0.0426011 0)
(0.0304013 -0.27377 0)
(0.091413 -0.275784 0)
(0.153143 -0.280592 0)
(0.216137 -0.287177 0)
(0.28072 -0.295916 0)
(0.347674 -0.308987 0)
(0.417438 -0.320893 0)
(0.490456 -0.340598 0)
(0.567794 -0.359385 0)
(0.650202 -0.383278 0)
(0.738139 -0.410949 0)
(0.833192 -0.443427 0)
(0.93806 -0.476385 0)
(1.05329 -0.523155 0)
(1.16916 -0.568681 0)
(1.29236 -0.561545 0)
(1.41679 -0.510726 0)
(1.54199 -0.454815 0)
(1.61174 -0.315963 0)
(1.52444 -0.0430029 0)
(1.15618 0.770006 0)
(0.630227 1.63173 0)
(0.469933 4.7867 0)
(0.029163 -0.333645 0)
(0.0876862 -0.336067 0)
(0.146858 -0.341841 0)
(0.207217 -0.349924 0)
(0.269045 -0.360241 0)
(0.33303 -0.376286 0)
(0.399684 -0.390725 0)
(0.469357 -0.4142 0)
(0.542996 -0.437549 0)
(0.621419 -0.466786 0)
(0.705243 -0.5001 0)
(0.795641 -0.540696 0)
(0.895674 -0.585088 0)
(1.0035 -0.638665 0)
(1.11213 -0.675712 0)
(1.22456 -0.660476 0)
(1.34935 -0.632626 0)
(1.46508 -0.570876 0)
(1.41652 -0.218524 0)
(1.13372 0.23203 0)
(0.779557 1.22121 0)
(0.598398 1.89137 0)
(0.968274 4.31656 0)
(0.0276949 -0.3908 0)
(0.083274 -0.393611 0)
(0.13942 -0.400218 0)
(0.196645 -0.409745 0)
(0.255209 -0.421441 0)
(0.315673 -0.440185 0)
(0.378571 -0.457055 0)
(0.444239 -0.483917 0)
(0.513371 -0.511348 0)
(0.586782 -0.545614 0)
(0.665094 -0.584255 0)
(0.749323 -0.632079 0)
(0.841823 -0.687244 0)
(0.938882 -0.742458 0)
(1.03571 -0.775313 0)
(1.14354 -0.777894 0)
(1.25966 -0.753114 0)
(1.28011 -0.583525 0)
(1.02794 0.0971881 0)
(0.62882 0.601851 0)
(0.372877 1.46473 0)
(0.398501 1.80423 0)
(0.949428 3.47819 0)
(0.026041 -0.444816 0)
(0.0783025 -0.447998 0)
(0.131046 -0.455289 0)
(0.184728 -0.466159 0)
(0.239603 -0.479057 0)
(0.296118 -0.500159 0)
(0.354756 -0.519251 0)
(0.4159 -0.549197 0)
(0.47993 -0.579925 0)
(0.547641 -0.618895 0)
(0.619342 -0.66177 0)
(0.696096 -0.716386 0)
(0.778195 -0.778447 0)
(0.864998 -0.836077 0)
(0.954665 -0.869068 0)
(1.04931 -0.884452 0)
(1.09584 -0.805321 0)
(0.924242 -0.377678 0)
(0.522615 0.548634 0)
(0.19618 0.879782 0)
(0.112004 1.52874 0)
(0.256812 1.56893 0)
(0.779976 2.63382 0)
(0.0241745 -0.495294 0)
(0.0726874 -0.498821 0)
(0.121605 -0.506658 0)
(0.171307 -0.518713 0)
(0.222061 -0.532683 0)
(0.274178 -0.555731 0)
(0.328096 -0.576821 0)
(0.384165 -0.609452 0)
(0.442544 -0.642718 0)
(0.50386 -0.685803 0)
(0.568101 -0.731513 0)
(0.635755 -0.791805 0)
(0.702375 -0.852524 0)
(0.789472 -0.904271 0)
(0.883012 -0.951233 0)
(0.951677 -0.962032 0)
(0.867718 -0.686558 0)
(0.521042 0.0249848 0)
(0.161143 0.911505 0)
(0.0049532 1.00208 0)
(0.0283462 1.46757 0)
(0.187939 1.32413 0)
(0.571751 1.96693 0)
(0.0221914 -0.541902 0)
(0.0667101 -0.54573 0)
(0.111553 -0.553999 0)
(0.157001 -0.56702 0)
(0.203341 -0.581979 0)
(0.25072 -0.60645 0)
(0.299586 -0.629423 0)
(0.350141 -0.664032 0)
(0.402537 -0.699492 0)
(0.457133 -0.745547 0)
(0.514175 -0.793684 0)
(0.574289 -0.858069 0)
(0.635465 -0.914723 0)
(0.703082 -0.965107 0)
(0.771566 -1.01766 0)
(0.812979 -1.00128 0)
(0.635464 -0.382568 0)
(0.232545 0.474571 0)
(-0.012483 1.07003 0)
(-0.0379109 1.02614 0)
(0.0284187 1.35334 0)
(0.162645 1.14303 0)
(0.404145 1.51948 0)
(0.0200316 -0.584346 0)
(0.060208 -0.588424 0)
(0.100641 -0.597027 0)
(0.141526 -0.610775 0)
(0.183163 -0.62666 0)
(0.22555 -0.652003 0)
(0.26914 -0.676809 0)
(0.313944 -0.712503 0)
(0.36018 -0.750167 0)
(0.40784 -0.797662 0)
(0.457466 -0.848795 0)
(0.508755 -0.914944 0)
(0.562313 -0.973181 0)
(0.618161 -1.03067 0)
(0.665747 -1.06507 0)
(0.617941 -0.943056 0)
(0.347145 0.0106416 0)
(0.0255855 0.809649 0)
(-0.0765246 1.08393 0)
(-0.0459358 1.00708 0)
(0.0318308 1.22758 0)
(0.142388 1.02275 0)
(0.298161 1.24042 0)
(0.0178207 -0.622396 0)
(0.0535592 -0.626685 0)
(0.0894623 -0.6355 0)
(0.125662 -0.649788 0)
(0.162415 -0.666447 0)
(0.199628 -0.692231 0)
(0.23768 -0.718649 0)
(0.276475 -0.754699 0)
(0.31625 -0.794432 0)
(0.356715 -0.841983 0)
(0.398324 -0.896186 0)
(0.438313 -0.959307 0)
(0.490837 -1.01499 0)
(0.543984 -1.07711 0)
(0.570799 -1.08977 0)
(0.422431 -0.718147 0)
(0.086212 0.396131 0)
(-0.111691 0.946352 0)
(-0.105705 1.04387 0)
(-0.0572619 0.967711 0)
(0.0209266 1.1102 0)
(0.111108 0.938363 0)
(0.218727 1.06005 0)
(0.0154581 -0.655848 0)
(0.0464833 -0.660345 0)
(0.0775988 -0.669209 0)
(0.108935 -0.683968 0)
(0.140651 -0.701095 0)
(0.172644 -0.72715 0)
(0.205107 -0.754613 0)
(0.237989 -0.790787 0)
(0.271397 -0.831909 0)
(0.305103 -0.879063 0)
(0.339876 -0.935887 0)
(0.37458 -0.994688 0)
(0.413222 -1.05084 0)
(0.449859 -1.10913 0)
(0.463649 -1.09481 0)
(0.275486 -0.372983 0)
(-0.0524352 0.718623 0)
(-0.167212 0.938187 0)
(-0.121684 1.00027 0)
(-0.0701312 0.91081 0)
(0.00481997 1.01317 0)
(0.078304 0.870881 0)
(0.159065 0.938182 0)
(0.013127 -0.684583 0)
(0.0395014 -0.68931 0)
(0.0658743 -0.698033 0)
(0.0923685 -0.713277 0)
(0.118993 -0.730433 0)
(0.145644 -0.756762 0)
(0.172284 -0.784413 0)
(0.199028 -0.820924 0)
(0.22569 -0.862156 0)
(0.252344 -0.909492 0)
(0.279125 -0.967333 0)
(0.305758 -1.0249 0)
(0.33586 -1.09001 0)
(0.365914 -1.13456 0)
(0.327881 -1.04137 0)
(0.0839056 0.00891525 0)
(-0.175596 0.927236 0)
(-0.198373 0.86786 0)
(-0.137062 0.963213 0)
(-0.0892622 0.848006 0)
(-0.023919 0.934961 0)
(0.038779 0.812209 0)
(0.103871 0.850248 0)
(0.0106837 -0.708518 0)
(0.0321651 -0.713481 0)
(0.0535994 -0.721919 0)
(0.0750682 -0.737604 0)
(0.0964549 -0.754368 0)
(0.117666 -0.780938 0)
(0.138503 -0.807962 0)
(0.15919 -0.845054 0)
(0.17916 -0.884901 0)
(0.198819 -0.933302 0)
(0.217115 -0.988835 0)
(0.235324 -1.04847 0)
(0.256756 -1.11872 0)
(0.271835 -1.14905 0)
(0.137807 -0.850916 0)
(-0.147165 0.350533 0)
(-0.27417 0.974157 0)
(-0.22156 0.790963 0)
(-0.160036 0.916647 0)
(-0.107475 0.7937 0)
(-0.0513161 0.867142 0)
(0.00502878 0.760374 0)
(0.058653 0.782756 0)
(0.0084278 -0.727729 0)
(0.0253254 -0.732849 0)
(0.0420514 -0.74091 0)
(0.0585531 -0.756781 0)
(0.074649 -0.772869 0)
(0.0902789 -0.799471 0)
(0.105181 -0.825355 0)
(0.119656 -0.863007 0)
(0.133107 -0.900542 0)
(0.146384 -0.950769 0)
(0.157423 -1.00086 0)
(0.171317 -1.06445 0)
(0.184903 -1.13408 0)
(0.179432 -1.14163 0)
(0.00924097 -0.550322 0)
(-0.239453 0.586479 0)
(-0.275066 0.901688 0)
(-0.21497 0.750147 0)
(-0.172847 0.853285 0)
(-0.123571 0.754704 0)
(-0.0787196 0.804609 0)
(-0.0301514 0.717455 0)
(0.0145363 0.726858 0)
(0.00624127 -0.742475 0)
(0.0186818 -0.747595 0)
(0.030824 -0.755184 0)
(0.0425653 -0.770898 0)
(0.053833 -0.786259 0)
(0.0646461 -0.812663 0)
(0.0748133 -0.837364 0)
(0.0846635 -0.875451 0)
(0.0938733 -0.910878 0)
(0.103545 -0.963504 0)
(0.112262 -1.00799 0)
(0.123349 -1.07821 0)
(0.128807 -1.13563 0)
(0.104899 -1.10936 0)
(-0.0482499 -0.255962 0)
(-0.227564 0.722389 0)
(-0.230014 0.804049 0)
(-0.190482 0.747647 0)
(-0.169193 0.792052 0)
(-0.132978 0.73001 0)
(-0.0988693 0.74994 0)
(-0.0588533 0.683085 0)
(-0.0217735 0.67904 0)
(0.0046244 -0.753403 0)
(0.0137663 -0.758374 0)
(0.0225009 -0.765404 0)
(0.0306659 -0.780706 0)
(0.0383201 -0.795498 0)
(0.0455671 -0.821624 0)
(0.052341 -0.845522 0)
(0.0589583 -0.884135 0)
(0.0656147 -0.918848 0)
(0.0736111 -0.975036 0)
(0.0842783 -1.01935 0)
(0.109499 -1.10951 0)
(0.127789 -1.13341 0)
(0.0851516 -1.04471 0)
(-0.0636589 -0.0159004 0)
(-0.204794 0.804465 0)
(-0.215073 0.734775 0)
(-0.199194 0.761229 0)
(-0.186671 0.74449 0)
(-0.158023 0.712379 0)
(-0.127864 0.702975 0)
(-0.0921402 0.653921 0)
(-0.0584861 0.637108 0)
(0.00341905 -0.763382 0)
(0.0101504 -0.768238 0)
(0.0167031 -0.775038 0)
(0.0231234 -0.790319 0)
(0.0293377 -0.805051 0)
(0.035619 -0.831713 0)
(0.0419594 -0.855467 0)
(0.0486992 -0.894568 0)
(0.057225 -0.93052 0)
(0.069622 -0.990392 0)
(0.0930965 -1.0448 0)
(0.13317 -1.15711 0)
(0.165523 -1.14233 0)
(0.11698 -0.94519 0)
(-0.0259252 0.17842 0)
(-0.152701 0.879485 0)
(-0.203773 0.721435 0)
(-0.216742 0.771652 0)
(-0.20742 0.712114 0)
(-0.185254 0.693683 0)
(-0.156363 0.662321 0)
(-0.123728 0.625866 0)
(-0.0918876 0.599332 0)
(0.00309086 -0.772588 0)
(0.00973506 -0.777811 0)
(0.0178008 -0.785578 0)
(0.0270814 -0.801124 0)
(0.0393993 -0.818733 0)
(0.0545089 -0.845786 0)
(0.0763776 -0.876511 0)
(0.103784 -0.914558 0)
(0.146324 -0.968047 0)
(0.206513 -1.03066 0)
(0.266157 -1.09119 0)
(0.271093 -1.15727 0)
(0.191781 -1.09564 0)
(0.0623695 -0.813611 0)
(-0.0895235 0.343263 0)
(-0.200063 0.953231 0)
(-0.248875 0.748103 0)
(-0.260844 0.770062 0)
(-0.246569 0.689992 0)
(-0.222074 0.668907 0)
(-0.190523 0.626346 0)
(-0.157272 0.595617 0)
(-0.124311 0.564447 0)
(0.00142201 -0.777902 0)
(0.00375647 -0.782989 0)
(0.00622412 -0.792298 0)
(0.00807215 -0.806596 0)
(0.0112317 -0.829489 0)
(0.0158999 -0.855162 0)
(0.0257578 -0.899014 0)
(0.0442205 -0.938208 0)
(0.0849639 -1.02817 0)
(0.154889 -1.10139 0)
(0.24859 -1.17465 0)
(0.2848 -1.11521 0)
(0.191317 -0.964028 0)
(0.014397 -0.637428 0)
(-0.179152 0.514198 0)
(-0.292297 1.00716 0)
(-0.322305 0.773411 0)
(-0.32024 0.754715 0)
(-0.295549 0.666176 0)
(-0.26375 0.636139 0)
(-0.227339 0.590803 0)
(-0.191129 0.561342 0)
(-0.156238 0.530521 0)
(-0.00778729 -0.771512 0)
(-0.0238563 -0.77559 0)
(-0.039649 -0.786319 0)
(-0.0557726 -0.798245 0)
(-0.0727218 -0.823997 0)
(-0.0905351 -0.847447 0)
(-0.107835 -0.899251 0)
(-0.120075 -0.944237 0)
(-0.120931 -1.06226 0)
(-0.100991 -1.15767 0)
(-0.0446689 -1.26921 0)
(0.039936 -1.14212 0)
(0.0713365 -0.874726 0)
(-0.123313 -0.353377 0)
(-0.392959 0.695608 0)
(-0.455845 1.00271 0)
(-0.42734 0.779384 0)
(-0.394497 0.713656 0)
(-0.347886 0.635567 0)
(-0.306019 0.592702 0)
(-0.261661 0.553054 0)
(-0.221725 0.522551 0)
(-0.18393 0.49625 0)
(-0.0141311 -0.749484 0)
(-0.041747 -0.753716 0)
(-0.0687287 -0.765208 0)
(-0.0961711 -0.775581 0)
(-0.124957 -0.800706 0)
(-0.156034 -0.821614 0)
(-0.190711 -0.872862 0)
(-0.231598 -0.917246 0)
(-0.284521 -1.03521 0)
(-0.351811 -1.13714 0)
(-0.436985 -1.26075 0)
(-0.522591 -1.14958 0)
(-0.639995 -0.780821 0)
(-0.833508 -0.057146 0)
(-0.89981 0.73703 0)
(-0.758764 0.882717 0)
(-0.608714 0.719891 0)
(-0.501657 0.632522 0)
(-0.419548 0.587314 0)
(-0.355793 0.534784 0)
(-0.29949 0.509791 0)
(-0.252252 0.478189 0)
(-0.210259 0.460412 0)
(-0.0139719 -0.721236 0)
(-0.0426666 -0.725364 0)
(-0.0730656 -0.735887 0)
(-0.106006 -0.744216 0)
(-0.14228 -0.766686 0)
(-0.184129 -0.782342 0)
(-0.235824 -0.82533 0)
(-0.302997 -0.856173 0)
(-0.401808 -0.943777 0)
(-0.548934 -1.01306 0)
(-0.751708 -1.09539 0)
(-0.995319 -0.984015 0)
(-1.21937 -0.603162 0)
(-1.2937 0.0344282 0)
(-1.14346 0.561075 0)
(-0.896116 0.668259 0)
(-0.694069 0.580418 0)
(-0.555517 0.525107 0)
(-0.45864 0.514812 0)
(-0.384712 0.468887 0)
(-0.324658 0.458728 0)
(-0.27435 0.431199 0)
(-0.231309 0.421926 0)
(-0.0154912 -0.691619 0)
(-0.0477136 -0.693746 0)
(-0.0823944 -0.702087 0)
(-0.120018 -0.707089 0)
(-0.162183 -0.724973 0)
(-0.210512 -0.733417 0)
(-0.268654 -0.763858 0)
(-0.342705 -0.775698 0)
(-0.445573 -0.821533 0)
(-0.593218 -0.839006 0)
(-0.794052 -0.863742 0)
(-1.01972 -0.743948 0)
(-1.18213 -0.454747 0)
(-1.20173 -0.0195745 0)
(-1.07114 0.332775 0)
(-0.866663 0.442382 0)
(-0.688594 0.424195 0)
(-0.563477 0.416287 0)
(-0.469318 0.431601 0)
(-0.39474 0.402819 0)
(-0.334287 0.403663 0)
(-0.283991 0.385139 0)
(-0.241161 0.381669 0)
(-0.0178416 -0.658111 0)
(-0.0539107 -0.658605 0)
(-0.0914948 -0.664586 0)
(-0.131803 -0.666253 0)
(-0.176475 -0.678523 0)
(-0.227091 -0.680413 0)
(-0.286544 -0.698662 0)
(-0.357123 -0.695519 0)
(-0.443451 -0.711538 0)
(-0.552814 -0.690661 0)
(-0.690557 -0.671752 0)
(-0.844081 -0.554776 0)
(-0.963953 -0.360164 0)
(-0.986087 -0.0722133 0)
(-0.898406 0.166003 0)
(-0.762262 0.266755 0)
(-0.639689 0.297612 0)
(-0.543722 0.320634 0)
(-0.463727 0.352192 0)
(-0.396227 0.33941 0)
(-0.340183 0.349968 0)
(-0.292575 0.340422 0)
(-0.251234 0.341778 0)
(-0.018013 -0.622068 0)
(-0.0544276 -0.621783 0)
(-0.0924117 -0.625443 0)
(-0.133096 -0.623981 0)
(-0.17807 -0.630683 0)
(-0.22894 -0.626242 0)
(-0.287642 -0.634067 0)
(-0.355441 -0.62102 0)
(-0.433687 -0.620611 0)
(-0.523105 -0.581775 0)
(-0.621483 -0.543289 0)
(-0.716434 -0.43347 0)
(-0.783459 -0.293601 0)
(-0.796596 -0.103323 0)
(-0.748615 0.0607401 0)
(-0.667813 0.15394 0)
(-0.586206 0.205181 0)
(-0.513205 0.243215 0)
(-0.446821 0.282468 0)
(-0.387362 0.281514 0)
(-0.336215 0.300114 0)
(-0.291543 0.297516 0)
(-0.252017 0.303396 0)
(-0.0177567 -0.586109 0)
(-0.0536464 -0.585056 0)
(-0.0908044 -0.586633 0)
(-0.1299 -0.582593 0)
(-0.172012 -0.58453 0)
(-0.218081 -0.57495 0)
(-0.269536 -0.574629 0)
(-0.327592 -0.55395 0)
(-0.393546 -0.542733 0)
(-0.466199 -0.496739 0)
(-0.541146 -0.454099 0)
(-0.608052 -0.359962 0)
(-0.653537 -0.254014 0)
(-0.664065 -0.119122 0)
(-0.636015 0.000109307 0)
(-0.585599 0.0826673 0)
(-0.528748 0.137272 0)
(-0.473459 0.182165 0)
(-0.42018 0.223232 0)
(-0.369939 0.230479 0)
(-0.325527 0.255092 0)
(-0.285681 0.257582 0)
(-0.249908 0.26764 0)
(-0.0182069 -0.549955 0)
(-0.0549031 -0.54824 0)
(-0.0926653 -0.548133 0)
(-0.132028 -0.542221 0)
(-0.173583 -0.540797 0)
(-0.217766 -0.527959 0)
(-0.265192 -0.522224 0)
(-0.316046 -0.496878 0)
(-0.370143 -0.479129 0)
(-0.425417 -0.43175 0)
(-0.479174 -0.389713 0)
(-0.525395 -0.310631 0)
(-0.555452 -0.22741 0)
(-0.563028 -0.127528 0)
(-0.546579 -0.0362169 0)
(-0.513686 0.0352484 0)
(-0.473892 0.0875421 0)
(-0.432868 0.13508 0)
(-0.390372 0.174043 0)
(-0.348885 0.187462 0)
(-0.311121 0.215504 0)
(-0.275706 0.221517 0)
(-0.2433 0.235172 0)
(-0.0166853 -0.514878 0)
(-0.0502944 -0.51264 0)
(-0.0847658 -0.511118 0)
(-0.120549 -0.503694 0)
(-0.158208 -0.499693 0)
(-0.197996 -0.484653 0)
(-0.240245 -0.475385 0)
(-0.284506 -0.448103 0)
(-0.330137 -0.427655 0)
(-0.375078 -0.382486 0)
(-0.417067 -0.342732 0)
(-0.451847 -0.27619 0)
(-0.474659 -0.208707 0)
(-0.482329 -0.130906 0)
(-0.473361 -0.0583883 0)
(-0.452215 0.00309784 0)
(-0.424453 0.0517834 0)
(-0.393219 0.0982032 0)
(-0.358742 0.133546 0)
(-0.324811 0.152146 0)
(-0.293091 0.180973 0)
(-0.262302 0.189499 0)
(-0.23383 0.205995 0)
(-0.0164736 -0.481544 0)
(-0.0495192 -0.478967 0)
(-0.0830138 -0.476466 0)
(-0.117165 -0.468044 0)
(-0.152283 -0.462182 0)
(-0.188382 -0.445879 0)
(-0.225561 -0.434315 0)
(-0.263294 -0.406751 0)
(-0.300996 -0.38524 0)
(-0.337004 -0.34353 0)
(-0.369747 -0.306566 0)
(-0.396681 -0.250319 0)
(-0.413974 -0.194264 0)
(-0.419947 -0.131635 0)
(-0.41442 -0.0722302 0)
(-0.399811 -0.0190019 0)
(-0.379481 0.0255388 0)
(-0.355145 0.0685873 0)
(-0.327546 0.100762 0)
(-0.300196 0.123329 0)
(-0.273522 0.151091 0)
(-0.247064 0.161837 0)
(-0.222294 0.180137 0)
(-0.0149529 -0.449952 0)
(-0.0449478 -0.447186 0)
(-0.0753348 -0.444028 0)
(-0.106212 -0.435111 0)
(-0.137777 -0.428081 0)
(-0.169889 -0.41141 0)
(-0.202507 -0.398619 0)
(-0.234972 -0.371881 0)
(-0.266702 -0.350314 0)
(-0.296418 -0.312387 0)
(-0.322681 -0.278395 0)
(-0.343723 -0.230264 0)
(-0.35767 -0.182917 0)
(-0.363852 -0.130764 0)
(-0.361608 -0.0809144 0)
(-0.352232 -0.0344274 0)
(-0.337834 0.00605358 0)
(-0.319359 0.0450382 0)
(-0.297765 0.0748611 0)
(-0.275685 0.0995416 0)
(-0.253135 0.125396 0)
(-0.230609 0.138294 0)
(-0.209264 0.157324 0)
(-0.0140117 -0.420834 0)
(-0.0420557 -0.417958 0)
(-0.0702823 -0.414333 0)
(-0.0986817 -0.405216 0)
(-0.127349 -0.397426 0)
(-0.156084 -0.380899 0)
(-0.184782 -0.367493 0)
(-0.212811 -0.342198 0)
(-0.239689 -0.321082 0)
(-0.264462 -0.286846 0)
(-0.286139 -0.255745 0)
(-0.303702 -0.214107 0)
(-0.315351 -0.173345 0)
(-0.32052 -0.128928 0)
(-0.31927 -0.0862641 0)
(-0.312519 -0.0452893 0)
(-0.301437 -0.00869785 0)
(-0.286731 0.0264354 0)
(-0.269526 0.0544612 0)
(-0.251496 0.0796217 0)
(-0.232522 0.103575 0)
(-0.2135 0.118352 0)
(-0.195122 0.137337 0)
(-0.0126733 -0.394008 0)
(-0.038006 -0.391126 0)
(-0.0634198 -0.387242 0)
(-0.0888331 -0.378211 0)
(-0.114285 -0.370027 0)
(-0.139523 -0.354041 0)
(-0.164398 -0.340497 0)
(-0.188411 -0.316879 0)
(-0.211119 -0.296554 0)
(-0.231779 -0.265704 0)
(-0.249506 -0.237277 0)
(-0.263598 -0.200754 0)
(-0.273299 -0.165237 0)
(-0.278468 -0.126645 0)
(-0.278801 -0.0894695 0)
(-0.274619 -0.0530744 0)
(-0.266712 -0.0200015 0)
(-0.25566 0.0118463 0)
(-0.24233 0.0383545 0)
(-0.227817 0.0630156 0)
(-0.212157 0.0853661 0)
(-0.196246 0.101446 0)
(-0.180485 0.119926 0)
(-0.0114763 -0.369731 0)
(-0.0343959 -0.366896 0)
(-0.0573288 -0.36287 0)
(-0.0801592 -0.354085 0)
(-0.102882 -0.345725 0)
(-0.125232 -0.330504 0)
(-0.147064 -0.317082 0)
(-0.167918 -0.295192 0)
(-0.187428 -0.275801 0)
(-0.205113 -0.247911 0)
(-0.220376 -0.221909 0)
(-0.232719 -0.189549 0)
(-0.24126 -0.158106 0)
(-0.245763 -0.124054 0)
(-0.246259 -0.091227 0)
(-0.243177 -0.0586196 0)
(-0.237045 -0.0285694 0)
(-0.228254 0.000467243 0)
(-0.217488 0.0255106 0)
(-0.205453 0.0491731 0)
(-0.192341 0.0702862 0)
(-0.178941 0.0870627 0)
(-0.165426 0.104881 0)
(-0.0102337 -0.347906 0)
(-0.0306472 -0.345159 0)
(-0.0510054 -0.341088 0)
(-0.0711635 -0.332652 0)
(-0.0910829 -0.324291 0)
(-0.110525 -0.309925 0)
(-0.129332 -0.296808 0)
(-0.147161 -0.27658 0)
(-0.163698 -0.258177 0)
(-0.178517 -0.232861 0)
(-0.191077 -0.208991 0)
(-0.201098 -0.179986 0)
(-0.20827 -0.151875 0)
(-0.212563 -0.121443 0)
(-0.213833 -0.0920631 0)
(-0.212162 -0.0625622 0)
(-0.207863 -0.0351136 0)
(-0.201286 -0.00843681 0)
(-0.192969 0.015232 0)
(-0.183386 0.0377201 0)
(-0.172737 0.0578539 0)
(-0.161646 0.074877 0)
(-0.15024 0.0920166 0)
(-0.00902663 -0.328544 0)
(-0.0270235 -0.325908 0)
(-0.0449527 -0.321849 0)
(-0.0626694 -0.313816 0)
(-0.0801292 -0.305551 0)
(-0.0970999 -0.29206 0)
(-0.113448 -0.279334 0)
(-0.128883 -0.260616 0)
(-0.143138 -0.243187 0)
(-0.15596 -0.220066 0)
(-0.167008 -0.198054 0)
(-0.176007 -0.171804 0)
(-0.182492 -0.14633 0)
(-0.186345 -0.1188 0)
(-0.187564 -0.0922046 0)
(-0.186365 -0.0653064 0)
(-0.183026 -0.0400484 0)
(-0.177808 -0.0153585 0)
(-0.171069 0.00701857 0)
(-0.163148 0.0283374 0)
(-0.15429 0.0476277 0)
(-0.144955 0.0645718 0)
(-0.13525 0.0811021 0)
(-0.00786863 -0.311559 0)
(-0.0235451 -0.309041 0)
(-0.0391253 -0.305029 0)
(-0.0544661 -0.297404 0)
(-0.0695035 -0.289295 0)
(-0.0840548 -0.276628 0)
(-0.0979897 -0.264323 0)
(-0.111075 -0.246955 0)
(-0.123091 -0.230438 0)
(-0.133793 -0.209169 0)
(-0.142856 -0.188734 0)
(-0.150158 -0.164739 0)
(-0.15556 -0.141447 0)
(-0.159061 -0.116291 0)
(-0.160596 -0.0919446 0)
(-0.160192 -0.0671779 0)
(-0.157988 -0.0437491 0)
(-0.154172 -0.02074 0)
(-0.149021 0.000447902 0)
(-0.142807 0.0206994 0)
(-0.135729 0.039247 0)
(-0.128127 0.0559278 0)
(-0.120102 0.0719248 0)
(-0.00672244 -0.296891 0)
(-0.0201141 -0.294488 0)
(-0.0334259 -0.290538 0)
(-0.0465306 -0.283299 0)
(-0.0593765 -0.275369 0)
(-0.0717944 -0.263443 0)
(-0.0836729 -0.251559 0)
(-0.0948265 -0.235353 0)
(-0.105084 -0.21965 0)
(-0.1143 -0.199935 0)
(-0.12228 -0.180835 0)
(-0.128861 -0.158682 0)
(-0.133786 -0.137123 0)
(-0.136983 -0.113882 0)
(-0.138433 -0.0913537 0)
(-0.138248 -0.0683604 0)
(-0.136575 -0.0464643 0)
(-0.133577 -0.0248753 0)
(-0.129453 -0.00473986 0)
(-0.1244 0.0145609 0)
(-0.118594 0.0324347 0)
(-0.11229 0.0487617 0)
(-0.10559 0.0642904 0)
(-0.00565024 -0.284453 0)
(-0.0169042 -0.28215 0)
(-0.0280769 -0.278262 0)
(-0.0390593 -0.271361 0)
(-0.0497911 -0.263605 0)
(-0.0601409 -0.252319 0)
(-0.070011 -0.24082 0)
(-0.0792489 -0.225594 0)
(-0.0877071 -0.210595 0)
(-0.0952384 -0.192155 0)
(-0.101662 -0.174136 0)
(-0.106916 -0.153483 0)
(-0.110924 -0.133343 0)
(-0.113696 -0.111662 0)
(-0.115203 -0.0906013 0)
(-0.115454 -0.0690471 0)
(-0.114506 -0.0484116 0)
(-0.112457 -0.0280013 0)
(-0.109445 -0.00878719 0)
(-0.105623 0.00968698 0)
(-0.101131 0.0269567 0)
(-0.0961561 0.042903 0)
(-0.0907931 0.0580239 0)
(-0.00455735 -0.274191 0)
(-0.0136448 -0.271962 0)
(-0.0226971 -0.268117 0)
(-0.0316259 -0.261489 0)
(-0.0403852 -0.253882 0)
(-0.0488583 -0.243119 0)
(-0.056963 -0.23195 0)
(-0.0645816 -0.217518 0)
(-0.0716093 -0.203103 0)
(-0.0779496 -0.185702 0)
(-0.0834853 -0.168567 0)
(-0.0881318 -0.149099 0)
(-0.0917538 -0.130057 0)
(-0.0942971 -0.109606 0)
(-0.0957238 -0.0897082 0)
(-0.0960888 -0.0693216 0)
(-0.0954617 -0.0497198 0)
(-0.0939343 -0.0302882 0)
(-0.0916157 -0.0118588 0)
(-0.088624 0.00591001 0)
(-0.0850697 0.0226452 0)
(-0.0810996 0.0382234 0)
(-0.0767951 0.0529862 0)
(-0.00353485 -0.266056 0)
(-0.0105899 -0.263869 0)
(-0.0176247 -0.260037 0)
(-0.0245731 -0.253607 0)
(-0.0313897 -0.246106 0)
(-0.037994 -0.235738 0)
(-0.0443254 -0.224818 0)
(-0.0502932 -0.210992 0)
(-0.0558031 -0.197026 0)
(-0.0607582 -0.180424 0)
(-0.0650445 -0.16397 0)
(-0.068622 -0.145428 0)
(-0.071466 -0.127228 0)
(-0.0735872 -0.107745 0)
(-0.074955 -0.0887593 0)
(-0.0755653 -0.0692899 0)
(-0.0754372 -0.0505105 0)
(-0.0746112 -0.031863 0)
(-0.0731481 -0.0140851 0)
(-0.0711228 0.00309341 0)
(-0.0686098 0.0193633 0)
(-0.0657104 0.0346005 0)
(-0.0624955 0.0490512 0)
(-0.00248035 -0.260009 0)
(-0.00743534 -0.257842 0)
(-0.0123937 -0.254007 0)
(-0.0173075 -0.247712 0)
(-0.0221591 -0.240271 0)
(-0.0269041 -0.230164 0)
(-0.031523 -0.219384 0)
(-0.0359733 -0.205952 0)
(-0.0402139 -0.192263 0)
(-0.0441963 -0.176203 0)
(-0.0478492 -0.160211 0)
(-0.0510757 -0.142348 0)
(-0.0537396 -0.124772 0)
(-0.0557796 -0.106018 0)
(-0.0571555 -0.0877284 0)
(-0.0578831 -0.0689758 0)
(-0.0579859 -0.05085 0)
(-0.0575122 -0.0328298 0)
(-0.0565224 -0.0155838 0)
(-0.055097 0.00112355 0)
(-0.0533124 0.0170136 0)
(-0.0512378 0.0319507 0)
(-0.0489132 0.046133 0)
(-0.00155485 -0.255952 0)
(-0.00462873 -0.253827 0)
(-0.0076423 -0.250008 0)
(-0.0106007 -0.243797 0)
(-0.0135316 -0.236362 0)
(-0.0164355 -0.226383 0)
(-0.0193067 -0.215635 0)
(-0.0221164 -0.202403 0)