/*--------------------------------*- C++ -*----------------------------------*\
| =========                 |                                                 |
| \\      /  F ield         | OpenFOAM: The Open Source CFD Toolbox           |
|  \\    /   O peration     | Version:  2012                                  |
|   \\  /    A nd           | Website:  www.openfoam.com                      |
|    \\/     M anipulation  |                                                 |
\*---------------------------------------------------------------------------*/
FoamFile
{
    version     2.0;
    format      ascii;
    class       volScalarField;
    location    "0.008";
    object      minKappa;
}
// * * * * * * * * * * * * * * * * * * * * * * * * * * * * * * * * * * * * * //

dimensions      [0 0 0 0 0 0 0];


internalField   nonuniform List<scalar> 
200
(
0.3220416884
0.3220416884
0.3220416884
0.3220416884
0.3220416884
0.3220416884
0.3220416884
0.3220416884
0.3220416884
0.3220416884
0.3220416884
0.3220416884
0.3220416884
0.3220416884
0.3220416884
0.3220416884
0.3220416884
0.3220416884
0.3220416884
0.3220416884
0.3220416884
0.3220416884
0.3220416884
0.3220416884
0.3220416884
0.3220416884
0.3220416884
0.3220416884
0.3220416884
0.3220416884
0.3220416884
0.3220416884
0.3220416884
0.3220416884
0.3220416884
0.3220416884
0.3220416884
0.3220416884
0.3220416884
0.3220416884
0.3220416884
0.3220416884
0.3220416884
0.3220416884
0.3220416884
0.3220416884
0.3220416884
0.3220416884
0.3220416884
0.3220416884
0.3220416884
0.3220416884
0.3220416884
0.3220416884
0.3220416884
0.3220416884
0.3220416884
0.3220416884
0.3220416884
0.3220416884
0.3220416884
0.3220416884
0.3220416884
0.3220416884
0.3220416884
0.3220416884
0.3220416884
0.3220416884
0.3220416884
0.3220416884
0.3220416884
0.3220416884
0.3220416884
0.3220416884
0.3220416884
0.3220416884
0.3220416884
0.3220416884
0.3220416884
0.3220416884
0.3220416884
0.3220416884
0.3220416884
0.3220416884
0.3220416884
0.3220416884
0.3220416884
0.3220416884
0.3220416884
0.3220416884
0.3220416884
0.3220416884
0.3220416884
0.3220416884
0.3220416884
0.3220416884
0.3220416884
0.3220416884
0.3220416884
0.3220416884
0.322041752
0.3220435329
0.3220679078
0.3222846215
0.3236588658
0.3297280144
0.3462167912
0.3682904963
0.3811052013
0.3844855769
0.3789187858
0.3673890989
0.3474914916
0.3166874157
0.2733409399
0.2175390713
0.1573492186
0.1070537194
0.07184340433
0.04891172192
0.03507597124
0.0275137693
0.02361053062
0.02168969351
0.02078440516
0.02037467169
0.02019613679
0.02012106153
0.02009052781
0.02007849328
0.02007388849
0.02007217529
0.02007155464
0.02007133542
0.02007125983
0.02007123436
0.02007122597
0.02007122326
0.0200712224
0.02007122214
0.02007122206
0.02007122203
0.02007122203
0.02007122202
0.02007122202
0.02007122202
0.02007122202
0.02007122202
0.02007122202
0.02007122202
0.02007122202
0.02007122202
0.02007122202
0.02007122202
0.02007122202
0.02007122202
0.02007122202
0.02007122202
0.02007122202
0.02007122202
0.02007122202
0.02007122202
0.02007122202
0.02007122202
0.02007122202
0.02007122202
0.02007122202
0.02007122202
0.02007122202
0.02007122202
0.02007122202
0.02007122202
0.02007122202
0.02007122202
0.02007122202
0.02007122202
0.02007122202
0.02007122202
0.02007122202
0.02007122202
0.02007122202
0.02007122202
0.02007122202
0.02007122202
0.02007122202
0.02007122202
0.02007122202
0.02007122202
0.02007122202
0.02007122202
0.02007122202
0.02007122202
0.02007122202
0.02007122202
0.02007122202
0.02007122202
0.02007122202
0.02007122202
0.02007122202
0.02007122202
)
;

boundaryField
{
    sides
    {
        type            calculated;
        value           uniform 0;
    }
    empty1
    {
        type            empty;
    }
    empty2
    {
        type            empty;
    }
}


// ************************************************************************* //
