/*--------------------------------*- C++ -*----------------------------------*\
| =========                 |                                                 |
| \\      /  F ield         | OpenFOAM: The Open Source CFD Toolbox           |
|  \\    /   O peration     | Version:  2012                                  |
|   \\  /    A nd           | Website:  www.openfoam.com                      |
|    \\/     M anipulation  |                                                 |
\*---------------------------------------------------------------------------*/
FoamFile
{
    version     2.0;
    format      ascii;
    class       volScalarField;
    location    "0.008";
    object      volumeFraction1;
}
// * * * * * * * * * * * * * * * * * * * * * * * * * * * * * * * * * * * * * //

dimensions      [0 0 0 0 0 0 0];


internalField   nonuniform List<scalar> 
200
(
5.58146924e-115
5.581461435e-115
5.581417973e-115
5.579600453e-115
5.584926999e-115
5.487668554e-115
6.349613945e-115
-2.63724861e-115
8.754671097e-114
-8.242591263e-113
8.382405247e-112
-8.459835872e-111
8.544128243e-110
-8.628683671e-109
8.714128792e-108
-8.800415295e-107
8.887556611e-106
-8.975560761e-105
9.064436328e-104
-9.154191935e-103
9.244836299e-102
-9.336378218e-101
9.428826581e-100
-9.522190363e-99
9.616478629e-98
-9.711700533e-97
9.807865319e-96
-9.904982324e-95
1.000306098e-93
-1.01021108e-92
1.020214141e-91
-1.030316252e-90
1.040518393e-89
-1.050821556e-88
1.06122674e-87
-1.071734955e-86
1.082347223e-85
-1.093064572e-84
1.103888044e-83
-1.11481869e-82
1.125857571e-81
-1.137005757e-80
1.148264333e-79
-1.159634391e-78
1.171117034e-77
-1.182713378e-76
1.194424548e-75
-1.206251682e-74
1.218195928e-73
-1.230258444e-72
1.242440404e-71
-1.254742988e-70
1.267167392e-69
-1.279714822e-68
1.292386496e-67
-1.305183644e-66
1.318107509e-65
-1.331159346e-64
1.344340421e-63
-1.357652014e-62
1.371095418e-61
-1.384671939e-60
1.398382893e-59
-1.412229612e-58
1.426213441e-57
-1.440335737e-56
1.454597872e-55
-1.469001229e-54
1.483547208e-53
-1.49823722e-52
1.513072692e-51
-1.528055064e-50
1.543185791e-49
-1.558466342e-48
1.5738982e-47
-1.589482863e-46
1.605221845e-45
-1.621116674e-44
1.637168892e-43
-1.653380059e-42
1.669751748e-41
-1.686285548e-40
1.702983066e-39
-1.719845921e-38
1.736875752e-37
-1.754074211e-36
1.771442969e-35
-1.788983711e-34
1.806698141e-33
-1.824587978e-32
1.842654959e-31
-1.860900839e-30
1.879327388e-29
-1.897936397e-28
1.916729671e-27
-1.935709035e-26
1.954876331e-25
-1.974233422e-24
1.993782185e-23
-2.830360499e-21
8.685641164e-10
2.231263714e-08
2.84953121e-07
2.411228943e-06
1.520258948e-05
7.614598769e-05
0.0003154651356
0.001111349126
0.003396850437
0.009146167012
0.02195329384
0.04742265599
0.09291227792
0.1661666759
0.2728299782
0.412898777
0.5794608718
0.7334713461
0.841402466
0.910823896
0.9523966766
0.9757785656
0.9882117283
0.9944955215
0.9975273057
0.9989288394
0.9995515646
0.9998182211
0.999928527
0.9999726988
0.9999898541
0.9999963268
0.999998703
0.9999995528
0.9999998493
0.9999999503
0.9999999839
0.9999999949
0.9999999984
0.9999999995
0.9999999999
1
1
1
1
1
1
1
1
1
1
1
1
1
1
1
1
1
1
1
1
1
1
1
1
1
1
1
1
1
1
1
1
1
1
1
1
1
1
1
1
1
1
1
1
1
1
1
1
1
1
1
1
1
1
1
1
1
1
1
)
;

boundaryField
{
    sides
    {
        type            zeroGradient;
    }
    empty1
    {
        type            empty;
    }
    empty2
    {
        type            empty;
    }
}


// ************************************************************************* //
