/*--------------------------------*- C++ -*----------------------------------*\
| =========                 |                                                 |
| \\      /  F ield         | OpenFOAM: The Open Source CFD Toolbox           |
|  \\    /   O peration     | Version:  3.0.1                                 |
|   \\  /    A nd           | Web:      www.OpenFOAM.org                      |
|    \\/     M anipulation  |                                                 |
\*---------------------------------------------------------------------------*/
FoamFile
{
    version     2.0;
    format      ascii;
    class       volScalarField;
    location    "0.00025";
    object      maxKappa;
}
// * * * * * * * * * * * * * * * * * * * * * * * * * * * * * * * * * * * * * //

dimensions      [0 0 0 0 0 0 0];

internalField   nonuniform List<scalar> 
1000
(
0.000101913
0.000201703
0.000311585
0.00043742
0.000584687
0.000759803
0.000969782
0.00122249
0.00152663
0.00189186
0.00232866
0.00284836
0.00346291
0.00418464
0.00502591
0.00599866
0.00711374
0.00838027
0.00980475
0.0113902
0.013135
0.0150322
0.0170684
0.0192226
0.0214665
0.0237633
0.0260686
0.0283313
0.0304954
0.0325031
0.0342985
0.0358328
0.0370702
0.0379943
0.0386114
0.0389584
0.0390698
0.0390698
0.0390588
0.0389958
0.0389364
0.0388597
0.0388141
0.0387646
0.0387549
0.0387499
0.0387499
0.0388053
0.0388053
0.0387492
0.038677
0.0380975
0.0373105
0.0370547
0.0370371
0.0370385
0.0370385
0.0370362
0.0370416
0.0370776
0.0371342
0.037203
0.0372837
0.0373618
0.0373849
0.0373849
0.0373074
0.0370736
0.0366331
0.0359444
0.0349813
0.0337346
0.0322132
0.0304424
0.0284619
0.0263217
0.0240781
0.0217884
0.0195084
0.0172875
0.0151675
0.0131808
0.0113501
0.00968908
0.0082032
0.00689104
0.00574586
0.00475708
0.00391156
0.00319481
0.00259181
0.00208775
0.00166848
0.0013208
0.00103264
0.000793044
0.000592202
0.000421155
0.000272242
0.000137326
0.000101909
0.000201696
0.000311574
0.000437405
0.000584667
0.000759777
0.00096975
0.00122245
0.00152659
0.0018918
0.00232859
0.00284828
0.00346282
0.00418454
0.0050258
0.00599854
0.00711361
0.00838014
0.00980464
0.0113901
0.013135
0.0150322
0.0170684
0.0192228
0.0214668
0.0237636
0.0260692
0.0283322
0.0304965
0.0325043
0.0342999
0.0358343
0.037072
0.0379961
0.0386126
0.0389567
0.0390709
0.0390709
0.0390575
0.0389896
0.0389233
0.038838
0.0387781
0.0387078
0.0386691
0.0386305
0.0386009
0.0385626
0.0384651
0.0386519
0.038798
0.038798
0.0378063
0.0370162
0.0369666
0.0369863
0.0369975
0.0370092
0.0370247
0.0370648
0.0371254
0.0371971
0.0372793
0.0373555
0.0373851
0.0373851
0.0373099
0.0370772
0.0366368
0.035948
0.0349847
0.0337378
0.0322159
0.0304446
0.0284636
0.026323
0.0240789
0.0217891
0.0195088
0.0172878
0.0151676
0.0131808
0.01135
0.00968895
0.00820305
0.00689088
0.00574571
0.00475693
0.00391144
0.0031947
0.00259171
0.00208766
0.00166841
0.00132074
0.0010326
0.000793006
0.000592173
0.000421135
0.000272228
0.000137319
0.000101904
0.000201686
0.000311559
0.000437384
0.000584641
0.000759744
0.00096971
0.0012224
0.00152653
0.00189173
0.00232852
0.00284821
0.00346274
0.00418446
0.00502573
0.00599849
0.00711359
0.00838016
0.0098047
0.0113902
0.0131351
0.0150326
0.017069
0.0192236
0.0214677
0.0237648
0.0260707
0.028334
0.0304987
0.0325068
0.0343028
0.0358376
0.0370753
0.0379999
0.0386172
0.0389642
0.0390788
0.0390788
0.0390687
0.0390056
0.0389457
0.0388721
0.0388356
0.0388063
0.0388209
0.0388699
0.0389042
0.0390184
0.0390218
0.0390218
0.0387632
0.0380225
0.0375049
0.0373469
0.0371876
0.0371159
0.0370846
0.0370695
0.0370621
0.0370868
0.0371372
0.0372032
0.0372827
0.0373588
0.0373869
0.0373869
0.0373119
0.0370799
0.0366405
0.0359523
0.034989
0.033742
0.0322199
0.0304483
0.0284668
0.0263257
0.024081
0.0217909
0.0195102
0.0172888
0.0151682
0.013181
0.0113503
0.00968912
0.00820312
0.00689087
0.00574565
0.00475685
0.00391133
0.00319459
0.00259161
0.00208757
0.00166832
0.00132067
0.00103254
0.000792957
0.000592135
0.000421106
0.000272209
0.000137309
0.000101897
0.000201672
0.000311538
0.000437356
0.000584603
0.000759697
0.000969652
0.00122233
0.00152645
0.00189164
0.00232842
0.00284809
0.00346261
0.00418433
0.0050256
0.00599836
0.00711348
0.00838008
0.00980467
0.0113902
0.0131355
0.015033
0.0170695
0.0192243
0.0214688
0.0237662
0.0260722
0.0283358
0.0305009
0.0325094
0.0343055
0.0358405
0.0370786
0.0380031
0.03862
0.0389653
0.0390807
0.0390807
0.0390685
0.0389978
0.0389311
0.0388479
0.0387919
0.0387277
0.0386975
0.0386599
0.0386385
0.03861
0.0385691
0.0387364
0.0387364
0.0386467
0.0377106
0.0370132
0.0370302
0.0370453
0.0370453
0.0370449
0.0370473
0.0370798
0.0371327
0.0371988
0.0372769
0.037356
0.0373854
0.0373854
0.0373119
0.0370813
0.0366428
0.0359556
0.0349931
0.0337463
0.032224
0.0304521
0.0284702
0.0263287
0.0240836
0.0217928
0.0195117
0.0172898
0.015169
0.0131817
0.0113505
0.00968921
0.0082031
0.00689079
0.00574552
0.0047567
0.00391118
0.00319444
0.00259146
0.00208744
0.00166821
0.00132057
0.00103245
0.000792889
0.000592082
0.000421067
0.000272183
0.000137295
0.000101888
0.000201656
0.000311514
0.000437323
0.000584561
0.000759644
0.000969588
0.00122225
0.00152636
0.00189154
0.0023283
0.00284797
0.00346248
0.00418419
0.00502548
0.00599825
0.00711341
0.00838008
0.00980477
0.0113905
0.0131356
0.0150334
0.0170702
0.0192252
0.02147
0.0237678
0.0260744
0.0283385
0.030504
0.0325131
0.0343099
0.0358455
0.0370841
0.0380092
0.038627
0.0389727
0.0390884
0.0390884
0.0390774
0.0390073
0.0389412
0.0388598
0.0388067
0.0387474
0.0387389
0.0387121
0.0387112
0.0386944
0.0387022
0.0387022
0.0384936
0.03812
0.0375316
0.0371756
0.0371301
0.0371208
0.0371208
0.0371176
0.0370846
0.0370848
0.0371422
0.0372043
0.0372828
0.0373609
0.0373879
0.0373879
0.037315
0.0370856
0.036648
0.0359611
0.0349985
0.0337516
0.0322291
0.0304567
0.0284742
0.0263321
0.0240864
0.0217951
0.0195134
0.0172912
0.01517
0.0131823
0.0113509
0.00968943
0.00820317
0.00689075
0.00574542
0.00475655
0.00391101
0.00319427
0.0025913
0.00208729
0.00166808
0.00132046
0.00103236
0.000792811
0.000592021
0.000421022
0.000272152
0.000137279
0.000101879
0.000201639
0.000311489
0.000437288
0.000584517
0.000759589
0.000969521
0.00122217
0.00152627
0.00189143
0.00232819
0.00284784
0.00346235
0.00418406
0.00502535
0.00599814
0.00711332
0.00838003
0.00980478
0.0113906
0.013136
0.0150338
0.0170708
0.0192261
0.0214712
0.0237693
0.0260763
0.0283407
0.0305067
0.0325161
0.0343132
0.035849
0.0370878
0.0380134
0.0386313
0.0389776
0.039095
0.039095
0.0390848
0.0390156
0.0389477
0.0388656
0.0388117
0.0387476
0.0387144
0.0387061
0.0386801
0.0386488
0.0386425
0.0386238
0.0385968
0.0382118
0.0375775
0.0371582
0.0370985
0.0371029
0.0371029
0.0370943
0.0370929
0.0371159
0.0371565
0.0372177
0.0372911
0.0373649
0.0373928
0.0373928
0.0373202
0.0370885
0.0366501
0.0359632
0.0350011
0.0337545
0.0322322
0.0304599
0.0284773
0.0263349
0.0240889
0.0217972
0.0195151
0.0172924
0.0151709
0.0131829
0.0113513
0.00968966
0.00820324
0.00689072
0.00574532
0.00475641
0.00391086
0.00319411
0.00259114
0.00208714
0.00166794
0.00132034
0.00103226
0.000792731
0.000591958
0.000420975
0.000272121
0.000137262
0.000101871
0.000201623
0.000311465
0.000437257
0.000584476
0.000759538
0.00096946
0.0012221
0.00152618
0.00189134
0.00232808
0.00284772
0.00346223
0.00418394
0.00502524
0.00599805
0.00711327
0.00838003
0.00980485
0.0113907
0.0131362
0.0150342
0.0170715
0.019227
0.0214724
0.0237708
0.0260781
0.0283429
0.0305092
0.032519
0.0343165
0.0358527
0.0370918
0.038017
0.0386343
0.0389793
0.0390949
0.0390949
0.0390828
0.0390117
0.0389446
0.03886
0.0388011
0.0387299
0.0386925
0.0386781
0.0387016
0.0387016
0.0386971
0.0386971
0.038693
0.0385662
0.0376663
0.037086
0.0369982
0.0369945
0.0369881
0.0369971
0.0370142
0.0370536
0.0371185
0.0371899
0.0372737
0.0373542
0.037387
0.037387
0.0373158
0.0370887
0.0366522
0.0359664
0.0350043
0.0337577
0.0322354
0.030463
0.0284802
0.0263376
0.0240912
0.0217991
0.0195167
0.0172937
0.0151719
0.0131837
0.0113517
0.00968984
0.00820335
0.00689074
0.00574526
0.00475631
0.00391072
0.00319396
0.002591
0.00208701
0.00166782
0.00132024
0.00103217
0.000792657
0.000591899
0.000420931
0.000272091
0.000137246
0.000101864
0.00020161
0.000311445
0.000437229
0.000584441
0.000759495
0.000969407
0.00122204
0.00152611
0.00189126
0.00232799
0.00284762
0.00346212
0.00418383
0.00502512
0.00599794
0.00711318
0.00837996
0.00980484
0.0113908
0.0131364
0.0150347
0.0170719
0.0192276
0.0214732
0.023772
0.0260796
0.0283447
0.0305113
0.0325215
0.0343193
0.0358559
0.0370951
0.0380207
0.0386385
0.0389855
0.039099
0.039099
0.0390885
0.039022
0.0389614
0.0388865
0.0388465
0.0388132
0.0388285
0.0388803
0.0389067
0.038979
0.038979
0.0389548
0.0387046
0.0379988
0.0374245
0.0372563
0.0371521
0.0371069
0.0370902
0.037075
0.0370657
0.0370932
0.037143
0.0372084
0.0372844
0.0373612
0.0373901
0.0373901
0.0373165
0.0370873
0.0366508
0.0359652
0.0350042
0.0337584
0.0322366
0.0304644
0.0284818
0.0263392
0.0240927
0.0218005
0.0195179
0.0172946
0.0151726
0.0131842
0.0113522
0.00969005
0.00820342
0.0068907
0.00574517
0.0047562
0.0039106
0.00319383
0.00259088
0.00208689
0.00166772
0.00132015
0.00103209
0.000792593
0.000591849
0.000420894
0.000272066
0.000137233
0.000101859
0.000201601
0.000311431
0.000437211
0.000584417
0.000759466
0.000969373
0.001222
0.00152607
0.0018912
0.00232793
0.00284757
0.00346206
0.00418378
0.00502508
0.00599792
0.00711318
0.00837999
0.00980488
0.0113909
0.0131366
0.0150349
0.0170723
0.0192282
0.0214739
0.0237728
0.0260806
0.0283458
0.0305127
0.0325229
0.0343208
0.0358572
0.0370963
0.0380215
0.0386387
0.038983
0.0390958
0.0390958
0.0390822
0.0390113
0.0389436
0.0388554
0.0387936
0.0387213
0.0386813
0.0386408
0.0386078
0.0385719
0.0384845
0.0386212
0.038729
0.038729
0.0377173
0.0369608
0.0369752
0.0369971
0.0370054
0.0370175
0.0370306
0.0370699
0.0371299
0.0371991
0.0372788
0.0373565
0.0373866
0.0373866
0.0373143
0.0370855
0.0366493
0.0359645
0.035004
0.0337585
0.0322371
0.0304653
0.0284829
0.0263404
0.024094
0.0218016
0.0195188
0.0172955
0.0151733
0.0131846
0.0113524
0.00969026
0.0082035
0.00689077
0.0057452
0.00475618
0.00391055
0.00319378
0.00259081
0.00208683
0.00166765
0.00132009
0.00103204
0.000792551
0.000591815
0.000420868
0.000272049
0.000137223
0.000101855
0.000201594
0.000311421
0.000437197
0.000584398
0.000759442
0.000969344
0.00122196
0.00152602
0.00189116
0.00232788
0.00284751
0.003462
0.00418371
0.00502501
0.00599785
0.00711312
0.00837995
0.00980488
0.011391
0.0131366
0.015035
0.0170725
0.0192284
0.0214743
0.0237733
0.0260812
0.0283466
0.0305136
0.0325241
0.0343222
0.0358588
0.0370981
0.0380236
0.038641
0.0389874
0.0390991
0.0390991
0.0390859
0.0390193
0.0389583
0.0388804
0.0388358
0.0387892
0.0387919
0.0388185
0.0388257
0.0388937
0.0388937
0.0388521
0.0388475
0.0383174
0.0375522
0.0372276
0.037135
0.0370985
0.0370818
0.0370659
0.0370545
0.0370837
0.0371377
0.0372022
0.0372805
0.0373579
0.0373867
0.0373867
0.0373142
0.0370853
0.0366494
0.0359645
0.035004
0.0337589
0.0322377
0.0304661
0.0284838
0.0263412
0.0240946
0.0218022
0.0195194
0.0172958
0.0151734
0.0131848
0.0113525
0.00969032
0.00820351
0.00689071
0.00574512
0.00475609
0.00391047
0.00319369
0.00259073
0.00208675
0.00166759
0.00132003
0.001032
0.000792515
0.000591787
0.000420848
0.000272035
0.000137216
)
;

boundaryField
{
    sides1
    {
        type            calculated;
        value           uniform 0;
    }
    sides2
    {
        type            calculated;
        value           uniform 0;
    }
    empty
    {
        type            empty;
    }
}


// ************************************************************************* //
