/*--------------------------------*- C++ -*----------------------------------*\
| =========                 |                                                 |
| \\      /  F ield         | OpenFOAM: The Open Source CFD Toolbox           |
|  \\    /   O peration     | Version:  3.0.1                                 |
|   \\  /    A nd           | Web:      www.OpenFOAM.org                      |
|    \\/     M anipulation  |                                                 |
\*---------------------------------------------------------------------------*/
FoamFile
{
    version     2.0;
    format      ascii;
    class       volScalarField;
    location    "0.00025";
    object      minKappa;
}
// * * * * * * * * * * * * * * * * * * * * * * * * * * * * * * * * * * * * * //

dimensions      [0 0 0 0 0 0 0];

internalField   nonuniform List<scalar> 
1000
(
4.37718e-08
4.77654e-08
5.32462e-08
6.19429e-08
7.3581e-08
8.87304e-08
1.07711e-07
1.30957e-07
1.58877e-07
1.91811e-07
2.29952e-07
2.7335e-07
3.21549e-07
3.74009e-07
4.28942e-07
4.84845e-07
5.38195e-07
5.84946e-07
6.1725e-07
6.10477e-07
4.85416e-07
4.07513e-07
3.19645e-07
5.03094e-08
7.4246e-08
4.28292e-07
1.76712e-06
2.36915e-06
3.25434e-06
4.10137e-06
5.24055e-06
6.51398e-06
8.09825e-06
9.30438e-06
1.01879e-05
8.51602e-06
2.2278e-05
1.42341e-05
2.15766e-05
1.86861e-05
1.30049e-05
4.01327e-06
3.93366e-06
1.60739e-05
1.0526e-05
1.63879e-05
2.85541e-05
0.00021804
3.30132e-06
0.000375423
0.00123939
0.000221988
0.000783668
0.000152792
1.38285e-07
1.73472e-06
5.07267e-06
2.06874e-06
7.36154e-06
1.18946e-05
1.30506e-05
1.50686e-05
1.6086e-05
2.74453e-05
7.89341e-06
1.77021e-05
1.85587e-05
1.84608e-05
1.67658e-05
1.46688e-05
1.24557e-05
1.04993e-05
8.36608e-06
6.38171e-06
4.67298e-06
3.31613e-06
1.36028e-06
1.32536e-06
4.48746e-07
1.13217e-07
3.05889e-07
6.25245e-07
7.36923e-07
7.52764e-07
7.28244e-07
6.79797e-07
6.17054e-07
5.47989e-07
4.77841e-07
4.10479e-07
3.48326e-07
2.9271e-07
2.44259e-07
2.03033e-07
1.68817e-07
1.41141e-07
1.19666e-07
1.03498e-07
9.32449e-08
8.55947e-08
4.37718e-08
4.77654e-08
5.32462e-08
6.19429e-08
7.3581e-08
8.87304e-08
1.07711e-07
1.30957e-07
1.58877e-07
1.91811e-07
2.29952e-07
2.7335e-07
3.21549e-07
3.74009e-07
4.28942e-07
4.84845e-07
5.38195e-07
5.84946e-07
6.1725e-07
6.10477e-07
4.85416e-07
4.07513e-07
2.52667e-07
5.03094e-08
7.4246e-08
4.28292e-07
1.76712e-06
2.36915e-06
3.25434e-06
4.10137e-06
5.24055e-06
6.51398e-06
8.09825e-06
9.30438e-06
1.01879e-05
8.51602e-06
2.2278e-05
1.42341e-05
2.15766e-05
1.86861e-05
1.30049e-05
4.01327e-06
3.93366e-06
1.60739e-05
1.0526e-05
1.63879e-05
2.85541e-05
0.00021804
3.30132e-06
0.000375423
0.000891322
0.000221988
0.000649585
0.000152792
1.38285e-07
1.73472e-06
5.07267e-06
2.06874e-06
7.36154e-06
1.18946e-05
1.30506e-05
1.50686e-05
1.6086e-05
2.74453e-05
7.89341e-06
1.77021e-05
1.85587e-05
1.84608e-05
1.67658e-05
1.46688e-05
1.24557e-05
1.04993e-05
8.36608e-06
6.38171e-06
4.67298e-06
3.31613e-06
1.36028e-06
1.32536e-06
4.48746e-07
1.13217e-07
1.98549e-07
6.25245e-07
7.36923e-07
7.52764e-07
7.28244e-07
6.79797e-07
6.17054e-07
5.47989e-07
4.77841e-07
4.10479e-07
3.48326e-07
2.9271e-07
2.44259e-07
2.03033e-07
1.68817e-07
1.41141e-07
1.19666e-07
1.03498e-07
9.32449e-08
8.55947e-08
8.25042e-08
8.97775e-08
9.98874e-08
1.16108e-07
1.37674e-07
1.65721e-07
2.0075e-07
2.43521e-07
2.94681e-07
3.54735e-07
4.2393e-07
5.02043e-07
5.88114e-07
6.80304e-07
7.75606e-07
8.6943e-07
9.56561e-07
1.03264e-06
1.10274e-06
1.22704e-06
6.16281e-07
5.67674e-07
2.52667e-07
1.32563e-07
5.36373e-07
1.42295e-06
2.78022e-06
4.12357e-06
5.80008e-06
8.00969e-06
1.04144e-05
1.29618e-05
1.57312e-05
1.95235e-05
2.31989e-05
2.81476e-05
3.61011e-05
4.07543e-05
5.18229e-05
5.59479e-05
4.63381e-05
1.67093e-05
3.98053e-06
2.13459e-05
2.98575e-05
7.42078e-05
8.2998e-05
0.000222834
5.0078e-05
0.00033079
0.000891322
0.000395878
0.000534604
0.000199989
0.000107963
5.23473e-05
7.69853e-07
3.20676e-05
2.39371e-05
2.58763e-05
2.85828e-05
3.61815e-05
3.8991e-05
4.00074e-05
3.76651e-05
3.81253e-05
3.6577e-05
3.40735e-05
3.12171e-05
2.76448e-05
2.34497e-05
1.90386e-05
1.52648e-05
1.18023e-05
8.8334e-06
6.2311e-06
3.89711e-06
2.5074e-06
1.28129e-06
2.63111e-07
1.98549e-07
6.82942e-07
1.25521e-06
1.28248e-06
1.26757e-06
1.2043e-06
1.10829e-06
9.94257e-07
8.7365e-07
7.55111e-07
6.4387e-07
5.43243e-07
4.54838e-07
3.7912e-07
3.15971e-07
2.64681e-07
2.24802e-07
1.94559e-07
1.75592e-07
1.61741e-07
1.12978e-07
1.22816e-07
1.36481e-07
1.58511e-07
1.877e-07
2.2561e-07
2.72855e-07
3.30422e-07
3.99109e-07
4.79536e-07
5.71899e-07
6.75801e-07
7.89824e-07
9.11588e-07
1.03625e-06
1.15799e-06
1.26689e-06
1.35069e-06
1.38826e-06
1.32229e-06
8.81522e-07
8.43963e-07
4.38887e-07
1.32563e-07
1.11662e-06
2.25467e-06
3.7186e-06
5.74134e-06
8.14048e-06
1.07566e-05
1.37249e-05
1.72499e-05
2.17483e-05
2.57624e-05
3.06043e-05
3.35861e-05
4.48233e-05
4.6773e-05
5.43458e-05
5.59479e-05
4.63381e-05
1.67093e-05
3.98053e-06
2.13459e-05
2.98575e-05
4.20155e-05
3.04073e-05
1.90923e-05
5.0078e-05
0.00033079
9.00327e-05
0.000395878
0.000509008
1.55569e-05
1.06848e-05
1.44559e-05
7.69853e-07
3.20676e-05
2.39371e-05
2.58763e-05
2.21112e-05
3.72866e-05
3.9281e-05
4.20176e-05
4.75366e-05
4.64307e-05
4.51306e-05
4.28089e-05
3.89157e-05
3.42702e-05
2.9676e-05
2.50828e-05
2.01611e-05
1.55966e-05
1.16271e-05
8.23991e-06
5.56068e-06
3.35864e-06
1.63565e-06
2.63111e-07
3.22723e-07
6.82942e-07
1.44801e-06
1.61466e-06
1.63804e-06
1.57682e-06
1.46376e-06
1.32167e-06
1.16768e-06
1.0137e-06
8.67757e-07
7.34633e-07
6.16885e-07
5.15562e-07
4.30679e-07
3.61474e-07
3.07559e-07
2.66457e-07
2.4081e-07
2.22025e-07
1.32181e-07
1.43604e-07
1.5939e-07
1.84893e-07
2.18585e-07
2.62288e-07
3.16616e-07
3.8265e-07
4.61195e-07
5.5284e-07
6.57682e-07
7.75031e-07
9.03165e-07
1.03852e-06
1.17579e-06
1.30603e-06
1.41673e-06
1.48905e-06
1.49708e-06
1.41124e-06
9.73648e-07
8.43963e-07
4.38887e-07
1.91948e-07
1.19274e-06
2.54104e-06
4.30854e-06
6.52875e-06
9.17208e-06
1.23612e-05
1.60563e-05
2.05747e-05
2.50686e-05
3.06004e-05
3.52813e-05
4.11513e-05
4.80741e-05
5.3726e-05
5.76247e-05
5.58445e-05
5.42237e-05
4.71602e-05
3.64826e-05
3.99127e-06
6.97741e-05
4.20155e-05
3.04073e-05
3.11996e-06
2.81488e-07
1.52412e-05
6.75307e-05
9.51378e-05
3.31818e-05
1.55569e-05
1.06848e-05
1.44559e-05
2.11185e-05
4.30249e-05
3.54698e-05
1.65585e-06
2.21112e-05
2.65925e-05
3.56214e-05
4.45487e-05
3.55034e-05
4.15959e-05
4.14605e-05
3.88192e-05
3.57722e-05
3.20768e-05
2.8424e-05
2.43538e-05
2.01129e-05
1.61534e-05
1.25823e-05
9.25499e-06
6.2949e-06
3.93317e-06
1.99453e-06
5.84342e-07
1.56202e-07
7.30991e-07
1.12821e-06
1.63331e-06
1.74821e-06
1.734e-06
1.63999e-06
1.49393e-06
1.32895e-06
1.16019e-06
9.97864e-07
8.48103e-07
7.14608e-07
5.98992e-07
5.01683e-07
4.21997e-07
3.59762e-07
3.12096e-07
2.82458e-07
2.6052e-07
1.31153e-07
1.42296e-07
1.57574e-07
1.82334e-07
2.14829e-07
2.56856e-07
3.08823e-07
3.71638e-07
4.45876e-07
5.3187e-07
6.29419e-07
7.37595e-07
8.54469e-07
9.76572e-07
1.09834e-06
1.21302e-06
1.3095e-06
1.37531e-06
1.39906e-06
1.39563e-06
7.57672e-07
6.46838e-07
3.8062e-07
2.10266e-07
1.13206e-06
2.39049e-06
3.96206e-06
6.03777e-06
8.51763e-06
1.14356e-05
1.45611e-05
1.85035e-05
2.2356e-05
2.5912e-05
2.98997e-05
3.49849e-05
3.45185e-05
4.25727e-05
3.977e-05
4.83202e-05
4.53516e-05
4.53479e-05
3.64826e-05
3.99127e-06
8.15004e-05
6.30189e-05
0.000103575
3.11996e-06
2.81488e-07
1.52412e-05
6.75307e-05
9.51378e-05
3.31818e-05
0.000146241
1.97173e-05
4.02179e-05
2.95271e-05
5.14591e-05
3.54698e-05
1.65585e-06
1.97208e-05
3.87269e-06
2.45281e-06
1.31862e-05
1.54605e-05
2.94818e-05
1.93619e-05
2.34073e-05
2.40001e-05
2.40916e-05
2.219e-05
1.9736e-05
1.70375e-05
1.40447e-05
1.11399e-05
8.47039e-06
6.05505e-06
3.89996e-06
2.14514e-06
6.78493e-07
8.57565e-08
4.71203e-07
5.9223e-07
1.48309e-06
1.5478e-06
1.5501e-06
1.48719e-06
1.37834e-06
1.24398e-06
1.09893e-06
9.54604e-07
8.18326e-07
6.94611e-07
5.85933e-07
4.93471e-07
4.17045e-07
3.57053e-07
3.10584e-07
2.81879e-07
2.6027e-07
1.11343e-07
1.2075e-07
1.33572e-07
1.54404e-07
1.8166e-07
2.16866e-07
2.60293e-07
3.12657e-07
3.74367e-07
4.45618e-07
5.26182e-07
6.15224e-07
7.11057e-07
8.10909e-07
9.1066e-07
1.0042e-06
1.08302e-06
1.13373e-06
1.12869e-06
9.81122e-07
6.13712e-07
2.39412e-07
3.8062e-07
1.46332e-08
9.43125e-07
2.07468e-06
3.48068e-06
4.99891e-06
6.85307e-06
9.04401e-06
1.16434e-05
1.44343e-05
1.75986e-05
2.09109e-05
2.43654e-05
3.00838e-05
2.36212e-05
3.57838e-05
3.05671e-05
3.87778e-05
4.53516e-05
4.53479e-05
4.24643e-05
3.90479e-05
8.15004e-05
0.000168644
0.000118094
6.38379e-05
4.02522e-05
8.19218e-05
0.000226651
0.00020127
0.000177997
0.000119625
0.000116237
5.65315e-05
2.95271e-05
8.82788e-06
1.4514e-05
1.108e-05
1.97208e-05
3.87269e-06
2.45281e-06
1.14547e-05
1.3854e-05
1.97622e-05
1.5141e-05
1.44754e-05
1.53737e-05
1.34736e-05
1.41782e-05
1.34671e-05
1.2128e-05
1.0447e-05
8.59151e-06
6.75703e-06
5.01629e-06
3.44154e-06
1.97452e-06
8.85995e-07
2.20078e-08
4.71203e-07
2.79508e-07
9.51742e-07
1.20915e-06
1.26387e-06
1.22547e-06
1.14174e-06
1.03424e-06
9.17109e-07
7.99449e-07
6.87482e-07
5.8523e-07
4.94936e-07
4.17788e-07
3.5374e-07
3.03385e-07
2.64178e-07
2.40044e-07
2.21723e-07
8.08508e-08
8.76751e-08
9.69202e-08
1.11898e-07
1.31464e-07
1.5669e-07
1.87732e-07
2.25055e-07
2.68878e-07
3.19251e-07
3.75889e-07
4.38055e-07
5.0435e-07
5.72583e-07
6.39751e-07
7.01685e-07
7.54161e-07
7.94861e-07
8.32948e-07
5.72315e-07
4.46916e-07
2.35494e-07
1.18441e-07
1.46332e-08
7.53661e-07
1.43987e-06
2.30457e-06
3.33181e-06
4.62392e-06
6.08508e-06
7.75005e-06
9.49882e-06
1.15754e-05
1.37623e-05
1.5489e-05
1.64263e-05
1.45217e-05
1.61982e-05
1.1348e-05
1.03003e-05
5.94854e-06
1.71146e-06
5.65586e-06
2.71593e-05
2.53658e-05
5.18933e-05
5.8062e-05
0.000118789
4.36109e-05
0.000195462
0.00076458
0.00020127
0.000318417
7.69871e-05
4.5766e-05
1.41135e-05
8.63756e-06
8.82788e-06
7.48724e-06
8.45824e-06
3.05681e-06
1.61749e-06
2.31754e-06
1.19282e-06
3.1732e-06
5.3841e-06
5.64141e-06
6.35339e-06
7.40522e-06
7.64819e-06
8.93059e-06
8.45422e-06
7.67894e-06
6.92563e-06
5.88216e-06
4.63644e-06
3.5629e-06
2.54559e-06
1.53941e-06
8.24352e-07
2.20078e-08
1.52114e-07
2.79508e-07
5.02062e-07
9.45108e-07
8.94801e-07
8.55488e-07
7.99986e-07
7.29746e-07
6.51304e-07
5.70854e-07
4.93104e-07
4.21295e-07
3.57362e-07
3.02408e-07
2.56578e-07
2.20424e-07
1.92187e-07
1.7479e-07
1.61466e-07
4.29613e-08
4.65747e-08
5.15333e-08
5.94728e-08
6.98671e-08
8.32435e-08
9.96944e-08
1.19446e-07
1.42599e-07
1.69154e-07
1.98921e-07
2.31449e-07
2.65928e-07
3.01105e-07
3.35142e-07
3.65474e-07
3.8866e-07
3.99635e-07
3.89143e-07
3.27069e-07
3.1327e-07
1.97638e-07
6.28934e-08
2.32838e-07
4.66167e-07
7.77826e-07
1.19167e-06
1.76518e-06
2.43022e-06
3.20693e-06
4.12379e-06
5.15982e-06
6.23403e-06
7.4337e-06
8.59323e-06
1.22891e-05
7.4493e-06
1.06163e-05
1.1348e-05
1.03003e-05
5.94854e-06
1.71146e-06
5.65586e-06
2.71593e-05
2.53658e-05
5.18933e-05
5.8062e-05
0.000149411
4.39857e-05
8.68919e-05
0.000977279
0.000322681
0.000471054
7.69871e-05
4.5766e-05
1.41135e-05
8.63756e-06
2.34097e-05
7.48724e-06
8.45824e-06
3.05681e-06
1.61749e-06
2.31754e-06
3.62361e-07
3.1732e-06
1.47258e-06
1.91328e-06
2.35869e-06
4.33183e-06
4.37603e-06
4.05392e-06
4.1512e-06
3.85513e-06
3.42432e-06
2.9962e-06
2.48911e-06
1.91047e-06
1.39362e-06
1.02583e-06
6.96316e-07
3.49948e-08
1.52114e-07
1.85478e-07
2.97482e-07
4.2779e-07
4.58417e-07
4.51205e-07
4.25351e-07
3.89088e-07
3.47704e-07
3.04966e-07
2.63544e-07
2.25219e-07
1.91061e-07
1.61674e-07
1.37156e-07
1.17794e-07
1.02687e-07
9.33032e-08
8.62422e-08
4.29613e-08
4.65747e-08
5.15333e-08
5.94728e-08
6.98671e-08
8.32435e-08
9.96944e-08
1.19446e-07
1.42599e-07
1.69154e-07
1.98921e-07
2.31449e-07
2.65928e-07
3.01105e-07
3.35142e-07
3.65474e-07
3.8866e-07
3.99635e-07
3.89143e-07
3.27069e-07
3.1327e-07
1.97638e-07
6.28934e-08
2.32838e-07
4.66167e-07
7.77826e-07
1.19167e-06
1.76518e-06
2.43022e-06
3.20693e-06
4.12379e-06
5.15982e-06
6.23403e-06
7.4337e-06
8.59323e-06
1.22891e-05
7.4493e-06
1.06163e-05
1.19473e-05
1.69197e-05
2.43268e-05
3.73621e-05
4.71801e-05
7.07036e-05
8.07288e-05
0.000108041
8.41594e-05
0.0002454
4.39857e-05
8.68919e-05
0.00099055
0.000322681
0.000471054
0.000154978
0.000150271
7.46498e-05
5.72267e-05
4.02857e-05
2.69248e-05
1.44853e-05
1.09077e-05
5.31e-06
3.7912e-06
3.62361e-07
3.34105e-06
1.47258e-06
1.91328e-06
2.35869e-06
4.33183e-06
4.37603e-06
4.05392e-06
4.1512e-06
3.85513e-06
3.42432e-06
2.9962e-06
2.48911e-06
1.91047e-06
1.39362e-06
1.02583e-06
6.96316e-07
3.49948e-08
2.33022e-07
1.85478e-07
2.97482e-07
4.2779e-07
4.58417e-07
4.51205e-07
4.25351e-07
3.89088e-07
3.47704e-07
3.04966e-07
2.63544e-07
2.25219e-07
1.91061e-07
1.61674e-07
1.37156e-07
1.17794e-07
1.02687e-07
9.33032e-08
8.62422e-08
)
;

boundaryField
{
    sides1
    {
        type            calculated;
        value           uniform 0;
    }
    sides2
    {
        type            calculated;
        value           uniform 0;
    }
    empty
    {
        type            empty;
    }
}


// ************************************************************************* //
