/*--------------------------------*- C++ -*----------------------------------*\
| =========                 |                                                 |
| \\      /  F ield         | OpenFOAM: The Open Source CFD Toolbox           |
|  \\    /   O peration     | Version:  3.0.1                                 |
|   \\  /    A nd           | Web:      www.OpenFOAM.org                      |
|    \\/     M anipulation  |                                                 |
\*---------------------------------------------------------------------------*/
FoamFile
{
    version     2.0;
    format      ascii;
    class       volScalarField;
    location    "0.00025";
    object      rho;
}
// * * * * * * * * * * * * * * * * * * * * * * * * * * * * * * * * * * * * * //

dimensions      [1 -3 0 0 0 0 0];

internalField   nonuniform List<scalar> 
1000
(
0.830751
0.830713
0.830653
0.830558
0.830428
0.830256
0.830037
0.829762
0.829423
0.82901
0.82851
0.827911
0.827199
0.826361
0.825381
0.824246
0.822942
0.821459
0.819788
0.817926
0.815873
0.813637
0.811233
0.808686
0.806029
0.803305
0.800566
0.797876
0.7953
0.792911
0.790777
0.788959
0.787502
0.786426
0.785728
0.785348
0.785284
0.7853
0.785416
0.785511
0.785616
0.785684
0.785798
0.7858
0.785831
0.785814
0.785899
0.785894
0.785784
0.786554
0.781482
0.766848
0.75491
0.751599
0.751326
0.751347
0.751361
0.751353
0.751343
0.751341
0.751378
0.751472
0.751565
0.751664
0.75178
0.751837
0.751774
0.751521
0.751016
0.750208
0.749069
0.747591
0.745792
0.74371
0.741399
0.738925
0.736359
0.733772
0.731226
0.728776
0.726465
0.724324
0.722372
0.720619
0.719065
0.717705
0.716528
0.715519
0.714663
0.713944
0.713345
0.71285
0.712447
0.71212
0.71186
0.711657
0.711504
0.711392
0.711321
0.711278
0.830751
0.830713
0.830653
0.830558
0.830428
0.830256
0.830037
0.829762
0.829423
0.82901
0.82851
0.827911
0.8272
0.826361
0.825381
0.824246
0.822942
0.821459
0.819788
0.817925
0.815872
0.813636
0.811233
0.808686
0.806028
0.803304
0.800565
0.797874
0.795299
0.792909
0.790775
0.788956
0.787499
0.786423
0.785725
0.785345
0.785278
0.785295
0.785415
0.785511
0.785617
0.78569
0.785798
0.78581
0.785838
0.78582
0.785867
0.785957
0.785875
0.785198
0.780221
0.767761
0.755865
0.751777
0.751402
0.751381
0.751369
0.751352
0.751341
0.751337
0.751372
0.751466
0.751561
0.751662
0.751779
0.751838
0.751776
0.751524
0.751019
0.750212
0.749073
0.747595
0.745795
0.743713
0.741401
0.738927
0.736361
0.733773
0.731227
0.728777
0.726465
0.724324
0.722372
0.720619
0.719065
0.717705
0.716527
0.715519
0.714663
0.713944
0.713345
0.71285
0.712446
0.71212
0.71186
0.711657
0.711504
0.711392
0.711321
0.711278
0.830751
0.830713
0.830653
0.830558
0.830428
0.830256
0.830037
0.829762
0.829423
0.82901
0.82851
0.827911
0.8272
0.826361
0.825381
0.824246
0.822942
0.821459
0.819788
0.817925
0.815872
0.813636
0.811232
0.808685
0.806027
0.803302
0.800563
0.797872
0.795296
0.792906
0.790772
0.788953
0.787495
0.786419
0.785721
0.785341
0.785274
0.785291
0.785412
0.785509
0.785616
0.785687
0.7858
0.785806
0.785849
0.785823
0.785871
0.785864
0.78582
0.786509
0.781349
0.7667
0.755011
0.751833
0.751452
0.751363
0.751345
0.751337
0.751332
0.751329
0.751364
0.751457
0.751552
0.751649
0.751769
0.751831
0.751772
0.751523
0.75102
0.750215
0.749077
0.747599
0.7458
0.743717
0.741405
0.73893
0.736364
0.733775
0.731229
0.728778
0.726466
0.724325
0.722372
0.720619
0.719065
0.717705
0.716528
0.715519
0.714663
0.713944
0.713345
0.71285
0.712446
0.71212
0.71186
0.711657
0.711504
0.711392
0.711321
0.711278
0.830751
0.830713
0.830653
0.830558
0.830428
0.830256
0.830037
0.829762
0.829423
0.82901
0.82851
0.827911
0.8272
0.826361
0.825381
0.824246
0.822942
0.821459
0.819787
0.817925
0.815871
0.813635
0.811231
0.808683
0.806025
0.8033
0.800561
0.797869
0.795293
0.792903
0.790768
0.788949
0.787491
0.786415
0.785717
0.785338
0.785268
0.785287
0.785415
0.785514
0.785624
0.785701
0.78581
0.785823
0.785849
0.785848
0.785894
0.785954
0.785862
0.785168
0.780136
0.767654
0.755905
0.751815
0.751352
0.751341
0.751345
0.751335
0.751323
0.751317
0.75135
0.751444
0.75154
0.751638
0.75176
0.751824
0.751767
0.751521
0.751021
0.750217
0.74908
0.747604
0.745804
0.743721
0.741409
0.738934
0.736367
0.733778
0.731231
0.72878
0.726468
0.724325
0.722373
0.720619
0.719065
0.717705
0.716528
0.715519
0.714663
0.713944
0.713345
0.71285
0.712446
0.71212
0.71186
0.711657
0.711504
0.711392
0.711321
0.711277
0.830751
0.830713
0.830653
0.830558
0.830428
0.830256
0.830037
0.829762
0.829423
0.82901
0.82851
0.827911
0.8272
0.826361
0.825381
0.824246
0.822942
0.821458
0.819787
0.817924
0.815871
0.813634
0.81123
0.808682
0.806023
0.803298
0.800558
0.797866
0.795289
0.792899
0.790763
0.788944
0.787486
0.78641
0.785712
0.785335
0.785263
0.785284
0.785415
0.785514
0.785625
0.785705
0.785813
0.785825
0.785846
0.785845
0.785879
0.785928
0.785835
0.785113
0.780013
0.767467
0.755833
0.751826
0.751391
0.751361
0.75135
0.751326
0.751312
0.751308
0.75134
0.751434
0.751531
0.751627
0.75175
0.751817
0.751763
0.75152
0.751022
0.75022
0.749084
0.747608
0.745809
0.743726
0.741413
0.738938
0.73637
0.733781
0.731233
0.728781
0.726469
0.724327
0.722374
0.72062
0.719066
0.717705
0.716528
0.715519
0.714663
0.713944
0.713345
0.71285
0.712446
0.71212
0.71186
0.711657
0.711504
0.711392
0.711321
0.711277
0.830751
0.830713
0.830653
0.830558
0.830428
0.830256
0.830037
0.829762
0.829423
0.82901
0.82851
0.827911
0.8272
0.826361
0.825381
0.824246
0.822942
0.821458
0.819787
0.817924
0.81587
0.813633
0.811229
0.80868
0.806021
0.803295
0.800555
0.797863
0.795285
0.792895
0.790759
0.78894
0.787482
0.786406
0.785709
0.785332
0.785261
0.785281
0.785414
0.785514
0.785625
0.785707
0.785818
0.785836
0.785875
0.78586
0.785893
0.785944
0.78585
0.785131
0.780008
0.767499
0.755911
0.751814
0.751327
0.751328
0.751336
0.751328
0.751313
0.751303
0.751333
0.751426
0.751526
0.751626
0.751748
0.751816
0.751763
0.751519
0.751022
0.750222
0.749087
0.747612
0.745813
0.74373
0.741417
0.738942
0.736374
0.733784
0.731235
0.728783
0.72647
0.724328
0.722375
0.72062
0.719066
0.717705
0.716528
0.715519
0.714663
0.713944
0.713344
0.71285
0.712446
0.71212
0.71186
0.711657
0.711504
0.711392
0.711321
0.711277
0.830751
0.830714
0.830653
0.830558
0.830428
0.830256
0.830037
0.829762
0.829423
0.82901
0.82851
0.827911
0.8272
0.826361
0.825381
0.824246
0.822942
0.821458
0.819787
0.817923
0.815869
0.813632
0.811228
0.808679
0.80602
0.803293
0.800553
0.79786
0.795282
0.792891
0.790756
0.788936
0.787479
0.786403
0.785706
0.78533
0.785261
0.785283
0.785415
0.785515
0.785629
0.785712
0.785825
0.785848
0.785883
0.785877
0.785871
0.785786
0.785759
0.78525
0.780261
0.767524
0.755805
0.751874
0.751434
0.75138
0.751341
0.751322
0.751309
0.751302
0.751328
0.751422
0.751523
0.751623
0.751744
0.751813
0.751762
0.75152
0.751024
0.750223
0.749089
0.747614
0.745816
0.743733
0.74142
0.738945
0.736376
0.733786
0.731237
0.728785
0.726471
0.724328
0.722375
0.720621
0.719066
0.717706
0.716528
0.715519
0.714663
0.713944
0.713344
0.71285
0.712446
0.71212
0.71186
0.711657
0.711504
0.711392
0.711321
0.711277
0.830751
0.830714
0.830653
0.830558
0.830428
0.830256
0.830037
0.829762
0.829424
0.82901
0.82851
0.827911
0.8272
0.826361
0.825381
0.824246
0.822942
0.821458
0.819786
0.817923
0.815869
0.813632
0.811227
0.808678
0.806018
0.803292
0.800551
0.797858
0.79528
0.792889
0.790753
0.788933
0.787476
0.7864
0.785704
0.785327
0.785262
0.785284
0.785412
0.785513
0.785628
0.785705
0.785822
0.785832
0.785875
0.785847
0.785892
0.785878
0.785832
0.786516
0.781343
0.766669
0.754984
0.751823
0.751441
0.75135
0.75133
0.751322
0.751313
0.751305
0.751335
0.751427
0.751529
0.751628
0.751748
0.751817
0.751763
0.75152
0.751024
0.750224
0.74909
0.747616
0.745818
0.743735
0.741422
0.738946
0.736378
0.733788
0.731239
0.728786
0.726473
0.724329
0.722376
0.720621
0.719067
0.717706
0.716528
0.715519
0.714663
0.713943
0.713344
0.71285
0.712446
0.71212
0.71186
0.711657
0.711504
0.711392
0.711321
0.711277
0.830751
0.830714
0.830653
0.830558
0.830428
0.830256
0.830037
0.829762
0.829424
0.82901
0.82851
0.827911
0.8272
0.826361
0.825381
0.824246
0.822942
0.821458
0.819786
0.817923
0.815869
0.813632
0.811226
0.808677
0.806018
0.803291
0.80055
0.797857
0.795279
0.792887
0.790751
0.788932
0.787474
0.786399
0.785703
0.785327
0.785264
0.785286
0.785415
0.785516
0.785631
0.785712
0.785827
0.785843
0.785867
0.785843
0.785882
0.785962
0.785877
0.7852
0.78022
0.767707
0.755831
0.751783
0.75139
0.751374
0.751345
0.751325
0.751314
0.751307
0.751339
0.751431
0.751532
0.751631
0.75175
0.751817
0.751763
0.751519
0.751023
0.750223
0.74909
0.747615
0.745818
0.743736
0.741423
0.738948
0.736379
0.733789
0.73124
0.728787
0.726473
0.72433
0.722376
0.720622
0.719067
0.717706
0.716528
0.715519
0.714663
0.713943
0.713344
0.71285
0.712446
0.71212
0.71186
0.711657
0.711504
0.711392
0.711321
0.711277
0.830751
0.830714
0.830653
0.830558
0.830428
0.830256
0.830037
0.829762
0.829424
0.82901
0.82851
0.827911
0.8272
0.826361
0.825381
0.824246
0.822942
0.821458
0.819786
0.817923
0.815869
0.813631
0.811226
0.808677
0.806017
0.80329
0.800549
0.797856
0.795278
0.792886
0.79075
0.788931
0.787473
0.786398
0.785702
0.785326
0.785265
0.785287
0.785414
0.785515
0.785631
0.785706
0.785825
0.785827
0.78586
0.785839
0.785923
0.785903
0.785797
0.786532
0.781429
0.76681
0.755004
0.75182
0.751463
0.751395
0.751347
0.751327
0.751318
0.751311
0.751342
0.751435
0.751533
0.751631
0.751751
0.751818
0.751763
0.751519
0.751023
0.750223
0.74909
0.747616
0.745819
0.743737
0.741424
0.738949
0.73638
0.733789
0.73124
0.728787
0.726474
0.72433
0.722376
0.720622
0.719067
0.717706
0.716528
0.715519
0.714663
0.713943
0.713344
0.71285
0.712446
0.71212
0.71186
0.711657
0.711504
0.711392
0.711321
0.711277
)
;

boundaryField
{
    sides1
    {
        type            calculated;
        value           nonuniform List<scalar> 
20
(
0.711278
0.711278
0.711278
0.711277
0.711277
0.711277
0.711277
0.711277
0.711277
0.711277
0.830751
0.830751
0.830751
0.830751
0.830751
0.830751
0.830751
0.830751
0.830751
0.830751
)
;
    }
    sides2
    {
        type            calculated;
        value           nonuniform List<scalar> 
200
(
0.830751
0.830713
0.830653
0.830558
0.830428
0.830256
0.830037
0.829762
0.829423
0.82901
0.82851
0.827911
0.827199
0.826361
0.825381
0.824246
0.822942
0.821459
0.819788
0.817926
0.815873
0.813637
0.811233
0.808686
0.806029
0.803305
0.800566
0.797876
0.7953
0.792911
0.790777
0.788959
0.787502
0.786426
0.785728
0.785348
0.785284
0.7853
0.785416
0.785511
0.785616
0.785684
0.785798
0.7858
0.785831
0.785814
0.785899
0.785894
0.785784
0.786554
0.781482
0.766848
0.75491
0.751599
0.751326
0.751347
0.751361
0.751353
0.751343
0.751341
0.751378
0.751472
0.751565
0.751664
0.75178
0.751837
0.751774
0.751521
0.751016
0.750208
0.749069
0.747591
0.745792
0.74371
0.741399
0.738925
0.736359
0.733772
0.731226
0.728776
0.726465
0.724324
0.722372
0.720619
0.719065
0.717705
0.716528
0.715519
0.714663
0.713944
0.713345
0.71285
0.712447
0.71212
0.71186
0.711657
0.711504
0.711392
0.711321
0.711278
0.830751
0.830714
0.830653
0.830558
0.830428
0.830256
0.830037
0.829762
0.829424
0.82901
0.82851
0.827911
0.8272
0.826361
0.825381
0.824246
0.822942
0.821458
0.819786
0.817923
0.815869
0.813631
0.811226
0.808677
0.806017
0.80329
0.800549
0.797856
0.795278
0.792886
0.79075
0.788931
0.787473
0.786398
0.785702
0.785326
0.785265
0.785287
0.785414
0.785515
0.785631
0.785706
0.785825
0.785827
0.78586
0.785839
0.785923
0.785903
0.785797
0.786532
0.781429
0.76681
0.755004
0.75182
0.751463
0.751395
0.751347
0.751327
0.751318
0.751311
0.751342
0.751435
0.751533
0.751631
0.751751
0.751818
0.751763
0.751519
0.751023
0.750223
0.74909
0.747616
0.745819
0.743737
0.741424
0.738949
0.73638
0.733789
0.73124
0.728787
0.726474
0.72433
0.722376
0.720622
0.719067
0.717706
0.716528
0.715519
0.714663
0.713943
0.713344
0.71285
0.712446
0.71212
0.71186
0.711657
0.711504
0.711392
0.711321
0.711277
)
;
    }
    empty
    {
        type            empty;
    }
}


// ************************************************************************* //
