/*--------------------------------*- C++ -*----------------------------------*\
| =========                 |                                                 |
| \\      /  F ield         | OpenFOAM: The Open Source CFD Toolbox           |
|  \\    /   O peration     | Version:  3.0.1                                 |
|   \\  /    A nd           | Web:      www.OpenFOAM.org                      |
|    \\/     M anipulation  |                                                 |
\*---------------------------------------------------------------------------*/
FoamFile
{
    version     2.0;
    format      ascii;
    class       volVectorField;
    location    "0.00025";
    object      U;
}
// * * * * * * * * * * * * * * * * * * * * * * * * * * * * * * * * * * * * * //

dimensions      [0 1 -1 0 0 0 0];

internalField   nonuniform List<vector> 
1000
(
(0.0108531 -2.58048e-06 0)
(0.0833367 -2.82088e-06 0)
(0.12057 -3.19016e-06 0)
(0.180353 -3.78787e-06 0)
(0.243767 -4.61036e-06 0)
(0.321073 -5.70903e-06 0)
(0.412847 -7.13124e-06 0)
(0.523484 -8.94076e-06 0)
(0.656734 -1.1214e-05 0)
(0.817116 -1.40466e-05 0)
(1.00951 -1.75444e-05 0)
(1.23926 -2.18641e-05 0)
(1.5121 -2.71728e-05 0)
(1.83403 -3.3903e-05 0)
(2.21124 -4.27422e-05 0)
(2.64989 -5.2937e-05 0)
(3.15585 -5.97114e-05 0)
(3.73441 -6.65675e-05 0)
(4.38988 -7.3568e-05 0)
(5.12517 -8.75054e-05 0)
(5.94128 -9.98966e-05 0)
(6.83679 -0.000104547 0)
(7.80729 -0.000105665 0)
(8.84483 -0.000101991 0)
(9.93757 -0.000112705 0)
(11.0694 -0.000120475 0)
(12.2194 -0.000113116 0)
(13.3632 -7.73171e-05 0)
(14.473 -2.28996e-05 0)
(15.5179 -3.46736e-05 0)
(16.468 1.61352e-05 0)
(17.2952 9.91471e-05 0)
(17.9786 0.000227153 0)
(18.4978 0.000214525 0)
(18.8828 0.000258183 0)
(19.0433 0.0001606 0)
(19.2458 0.000539839 0)
(19.1295 -0.000121998 0)
(19.2528 4.47134e-05 0)
(19.1285 -0.000642597 0)
(19.1801 -0.00205015 0)
(19.0629 -0.00496236 0)
(19.107 -0.0078561 0)
(19.0211 -0.0137895 0)
(19.0929 -0.0179652 0)
(19.0122 -0.0243925 0)
(19.1436 -0.0391275 0)
(18.9677 -0.0820868 0)
(19.2068 0.00513706 0)
(19.2021 -0.540458 0)
(18.1754 -0.0449028 0)
(18.1039 0.36553 0)
(18.667 0.17473 0)
(18.9777 0.0905681 0)
(19.024 0.0709236 0)
(19.0254 0.0520912 0)
(19.0243 0.0362448 0)
(19.0219 0.0167308 0)
(19.0294 0.00936594 0)
(19.0388 0.00432266 0)
(19.0564 0.00267343 0)
(19.0985 0.000133577 0)
(19.1443 4.24217e-05 0)
(19.1803 -0.00202565 0)
(19.1697 -0.00170342 0)
(19.1666 -0.00156904 0)
(19.0714 -0.00175968 0)
(18.8803 -0.00161149 0)
(18.566 -0.00109231 0)
(18.111 -0.000672544 0)
(17.5072 -0.0004696 0)
(16.7565 -0.000408294 0)
(15.8704 -0.000243667 0)
(14.8685 -8.94225e-05 0)
(13.7765 2.23128e-05 0)
(12.6244 9.41567e-05 0)
(11.4422 7.88013e-05 0)
(10.2599 8.35284e-05 0)
(9.10474 0.000111719 0)
(7.99898 0.00012495 0)
(6.96044 0.000131939 0)
(6.00167 0.000124258 0)
(5.1303 9.8963e-05 0)
(4.3496 8.72327e-05 0)
(3.65916 8.14366e-05 0)
(3.05573 7.4465e-05 0)
(2.53399 6.67485e-05 0)
(2.08724 5.1883e-05 0)
(1.70804 4.11015e-05 0)
(1.38868 3.2929e-05 0)
(1.1215 2.64307e-05 0)
(0.899189 2.12011e-05 0)
(0.714951 1.69925e-05 0)
(0.56245 1.36283e-05 0)
(0.436369 1.09713e-05 0)
(0.3306 8.90885e-06 0)
(0.244034 7.35885e-06 0)
(0.163 6.22831e-06 0)
(0.112183 5.52703e-06 0)
(0.0145213 5.06975e-06 0)
(0.0108526 -1.83663e-05 0)
(0.0833335 -2.00017e-05 0)
(0.120566 -2.23662e-05 0)
(0.180347 -2.61777e-05 0)
(0.243759 -3.12954e-05 0)
(0.321061 -3.80016e-05 0)
(0.412833 -4.64556e-05 0)
(0.523466 -5.68864e-05 0)
(0.656713 -6.95107e-05 0)
(0.817091 -8.45196e-05 0)
(1.00948 -0.000102057 0)
(1.23923 -0.000122129 0)
(1.51205 -0.000144592 0)
(1.83398 -0.000168576 0)
(2.21119 -0.000192683 0)
(2.64983 -0.000216522 0)
(3.15579 -0.000245161 0)
(3.73435 -0.000279431 0)
(4.38982 -0.000309655 0)
(5.12513 -0.00031918 0)
(5.94126 -0.000307864 0)
(6.83678 -0.00030789 0)
(7.80731 -0.000276842 0)
(8.84491 -0.000219774 0)
(9.9377 -7.02e-05 0)
(11.0696 0.000118469 0)
(12.2196 0.000306687 0)
(13.3636 0.000573746 0)
(14.4735 0.000932483 0)
(15.5185 0.00150673 0)
(16.4687 0.00206061 0)
(17.2959 0.00266064 0)
(17.9794 0.0032117 0)
(18.499 0.00413143 0)
(18.8822 0.00510772 0)
(19.0463 0.00553488 0)
(19.2439 0.00764155 0)
(19.1294 0.00778898 0)
(19.2509 0.0105409 0)
(19.1235 0.00994778 0)
(19.1717 0.00959555 0)
(19.0491 0.00985612 0)
(19.0803 0.0101818 0)
(18.991 0.0148936 0)
(19.0283 0.021669 0)
(18.9606 0.0258495 0)
(19.0021 0.0170284 0)
(18.9234 0.0168675 0)
(18.888 0.0279354 0)
(18.8743 0.131138 0)
(18.8357 0.049463 0)
(18.5844 -0.0570809 0)
(18.6441 -0.115584 0)
(18.9413 -0.106517 0)
(18.9767 -0.0523679 0)
(18.9898 -0.0374607 0)
(19.0013 -0.0294566 0)
(19.0046 -0.0172788 0)
(19.0197 -0.0129797 0)
(19.0289 -0.0107485 0)
(19.0522 -0.0103566 0)
(19.0935 -0.0103036 0)
(19.1412 -0.00990507 0)
(19.1771 -0.0099555 0)
(19.1698 -0.010726 0)
(19.1665 -0.0107046 0)
(19.0729 -0.00944393 0)
(18.8824 -0.00841807 0)
(18.5681 -0.00761765 0)
(18.1129 -0.00671912 0)
(17.509 -0.00532802 0)
(16.7581 -0.00400796 0)
(15.8718 -0.00294326 0)
(14.8695 -0.00213386 0)
(13.7773 -0.00145699 0)
(12.6249 -0.000930896 0)
(11.4426 -0.00043308 0)
(10.2602 -3.92458e-05 0)
(9.10488 0.000152158 0)
(7.99907 0.000270839 0)
(6.96049 0.000339443 0)
(6.00166 0.000375855 0)
(5.13023 0.000411187 0)
(4.34952 0.000397213 0)
(3.65908 0.000358229 0)
(3.05565 0.000314781 0)
(2.53391 0.000274718 0)
(2.08717 0.000247103 0)
(1.70798 0.000215569 0)
(1.38863 0.000184107 0)
(1.12146 0.000155024 0)
(0.899151 0.000129205 0)
(0.71492 0.000106917 0)
(0.562424 8.81446e-05 0)
(0.436348 7.27015e-05 0)
(0.330584 6.03135e-05 0)
(0.244022 5.07749e-05 0)
(0.162992 4.36245e-05 0)
(0.112177 3.91667e-05 0)
(0.0145204 3.60593e-05 0)
(0.0108519 -2.36914e-05 0)
(0.083329 -2.5744e-05 0)
(0.12056 -2.85916e-05 0)
(0.180338 -3.31814e-05 0)
(0.243747 -3.92526e-05 0)
(0.321047 -4.71256e-05 0)
(0.412815 -5.69177e-05 0)
(0.523445 -6.88175e-05 0)
(0.656688 -8.29678e-05 0)
(0.817062 -9.94645e-05 0)
(1.00945 -0.000118309 0)
(1.23919 -0.00013937 0)
(1.51202 -0.000162179 0)
(1.83394 -0.000186417 0)
(2.21115 -0.000210861 0)
(2.6498 -0.000235561 0)
(3.15577 -0.000257986 0)
(3.73435 -0.000263106 0)
(4.38984 -0.000259152 0)
(5.12516 -0.000249271 0)
(5.94131 -0.000248505 0)
(6.83692 -0.000161982 0)
(7.80753 -4.75613e-05 0)
(8.84523 0.000121208 0)
(9.93812 0.00032612 0)
(11.0701 0.000568128 0)
(12.2203 0.000940027 0)
(13.3645 0.00137843 0)
(14.4746 0.0019131 0)
(15.5197 0.00245518 0)
(16.4701 0.00312588 0)
(17.2975 0.00384919 0)
(17.9811 0.00483059 0)
(18.5006 0.00569639 0)
(18.8848 0.00657011 0)
(19.0486 0.00775599 0)
(19.2488 0.0103242 0)
(19.1329 0.0114271 0)
(19.2588 0.0129315 0)
(19.1322 0.0150343 0)
(19.1858 0.0147637 0)
(19.0707 0.0154854 0)
(19.12 0.0179357 0)
(19.0427 0.0194315 0)
(19.1267 0.0196937 0)
(19.0543 0.0261385 0)
(19.2117 0.033386 0)
(19.0605 0.0376973 0)
(19.3498 0.0277176 0)
(19.3123 0.0463938 0)
(18.1497 0.0367868 0)
(18.1245 0.0318048 0)
(18.8725 0.0332965 0)
(19.1146 0.0197206 0)
(19.0865 0.014835 0)
(19.0546 -0.00542914 0)
(19.0482 -0.00594723 0)
(19.0385 -0.0165317 0)
(19.0428 -0.0151642 0)
(19.0461 -0.0129231 0)
(19.0585 -0.010157 0)
(19.1008 -0.0107571 0)
(19.1426 -0.0119826 0)
(19.1817 -0.00842876 0)
(19.1674 -0.00995183 0)
(19.1688 -0.00980216 0)
(19.0742 -0.0102088 0)
(18.8841 -0.00985044 0)
(18.5703 -0.00902155 0)
(18.1153 -0.00788848 0)
(17.5114 -0.00700606 0)
(16.7603 -0.00587733 0)
(15.8739 -0.00479268 0)
(14.8714 -0.00373749 0)
(13.7789 -0.00279418 0)
(12.6262 -0.00197873 0)
(11.4437 -0.00134617 0)
(10.261 -0.000868976 0)
(9.1055 -0.000453773 0)
(7.99949 -0.00014107 0)
(6.96066 6.61234e-05 0)
(6.00177 0.00018521 0)
(5.13037 0.00025335 0)
(4.34958 0.000299914 0)
(3.65909 0.00032389 0)
(3.05564 0.000324974 0)
(2.53388 0.000306121 0)
(2.08712 0.000274832 0)
(1.70793 0.000242714 0)
(1.38858 0.000210979 0)
(1.12141 0.000180824 0)
(0.899109 0.000153249 0)
(0.714882 0.000128829 0)
(0.562392 0.000107751 0)
(0.436322 9.00806e-05 0)
(0.330563 7.56544e-05 0)
(0.244006 6.44046e-05 0)
(0.162981 5.58253e-05 0)
(0.112168 5.04726e-05 0)
(0.0145191 4.65656e-05 0)
(0.010851 -3.0477e-05 0)
(0.0833227 -3.31206e-05 0)
(0.120552 -3.68044e-05 0)
(0.180326 -4.27546e-05 0)
(0.243731 -5.06351e-05 0)
(0.321027 -6.08768e-05 0)
(0.41279 -7.36424e-05 0)
(0.523414 -8.92065e-05 0)
(0.656652 -0.000107789 0)
(0.81702 -0.00012957 0)
(1.0094 -0.000154625 0)
(1.23914 -0.000182869 0)
(1.51196 -0.000214092 0)
(1.83388 -0.00024752 0)
(2.21109 -0.000282231 0)
(2.64974 -0.000315463 0)
(3.15572 -0.000344351 0)
(3.7343 -0.000368515 0)
(4.38981 -0.000380257 0)
(5.12516 -0.000371665 0)
(5.94142 -0.000314122 0)
(6.83711 -0.00025569 0)
(7.80776 -0.00014815 0)
(8.84554 2.896e-06 0)
(9.93857 0.00021522 0)
(11.0707 0.000527902 0)
(12.2211 0.000918939 0)
(13.3653 0.00141899 0)
(14.4756 0.00202628 0)
(15.5209 0.00275909 0)
(16.4714 0.00356412 0)
(17.2989 0.00456211 0)
(17.9826 0.00565698 0)
(18.5026 0.00672599 0)
(18.8849 0.00815185 0)
(19.0531 0.00906162 0)
(19.248 0.0108776 0)
(19.132 0.01145 0)
(19.259 0.0140596 0)
(19.1244 0.0128169 0)
(19.1783 0.00906494 0)
(19.0533 0.0026914 0)
(19.0891 -0.00457664 0)
(19.0022 -0.0147576 0)
(19.0443 -0.0238881 0)
(18.9832 -0.0429553 0)
(19.0201 -0.0570151 0)
(18.9596 -0.0942844 0)
(18.9513 -0.0319912 0)
(18.9284 -0.45624 0)
(18.8277 -0.0727446 0)
(18.507 0.201151 0)
(18.6444 0.116723 0)
(18.9525 0.0822395 0)
(19.0025 0.0364122 0)
(19.023 0.0249233 0)
(19.0281 0.00666902 0)
(19.0257 0.00505615 0)
(19.0343 0.00737338 0)
(19.0412 0.00169737 0)
(19.0554 -0.00375413 0)
(19.0985 -0.00624863 0)
(19.1387 -0.00862371 0)
(19.1811 -0.0100528 0)
(19.1658 -0.0114416 0)
(19.1683 -0.0121699 0)
(19.0746 -0.0119471 0)
(18.8852 -0.0113574 0)
(18.5718 -0.0102512 0)
(18.1174 -0.00911354 0)
(17.5137 -0.00771874 0)
(16.7627 -0.00659951 0)
(15.876 -0.00524853 0)
(14.8734 -0.0040529 0)
(13.7806 -0.00303113 0)
(12.6277 -0.00214412 0)
(11.4448 -0.00145472 0)
(10.2619 -0.000852028 0)
(9.10615 -0.000418257 0)
(7.99994 -9.80319e-05 0)
(6.96108 0.00013682 0)
(6.00202 0.000308455 0)
(5.13043 0.00040046 0)
(4.3496 0.000439873 0)
(3.65907 0.000444417 0)
(3.05558 0.000427481 0)
(2.53381 0.000395681 0)
(2.08705 0.000357831 0)
(1.70786 0.000316044 0)
(1.3885 0.000274229 0)
(1.12134 0.000234718 0)
(0.899047 0.000198698 0)
(0.714829 0.00016682 0)
(0.562347 0.000139416 0)
(0.436285 0.000116442 0)
(0.330534 9.77193e-05 0)
(0.243983 8.31385e-05 0)
(0.162965 7.20068e-05 0)
(0.112156 6.50877e-05 0)
(0.0145172 6.0031e-05 0)
(0.0108498 -3.33838e-05 0)
(0.0833154 -3.62541e-05 0)
(0.120542 -4.02193e-05 0)
(0.180312 -4.66308e-05 0)
(0.243713 -5.50881e-05 0)
(0.321003 -6.60511e-05 0)
(0.412761 -7.96634e-05 0)
(0.52338 -9.61876e-05 0)
(0.656612 -0.000115813 0)
(0.816973 -0.000138676 0)
(1.00935 -0.00016479 0)
(1.23908 -0.000193957 0)
(1.51189 -0.000225674 0)
(1.83381 -0.00025916 5.30533e-31)
(2.21102 -0.000293257 0)
(2.64968 -0.000325241 0)
(3.15567 -0.000351834 0)
(3.73428 -0.000370968 0)
(4.38983 -0.00037535 0)
(5.12527 -0.000357133 0)
(5.94151 -0.000305879 0)
(6.83722 -0.000243508 0)
(7.80803 -0.000132858 0)
(8.84595 4.56863e-05 0)
(9.93911 0.000290864 0)
(11.0714 0.000624079 0)
(12.222 0.00106214 0)
(13.3666 0.00160754 0)
(14.4771 0.00225807 0)
(15.5227 0.00303171 0)
(16.4735 0.0040887 0)
(17.3014 0.00499292 5.22085e-31)
(17.9853 0.0061018 0)
(18.5057 0.00756918 0)
(18.8875 0.00912466 0)
(19.0586 0.0100141 0)
(19.2508 0.0141795 -5.56729e-31)
(19.1358 0.0148445 0)
(19.2638 0.0170779 0)
(19.129 0.0199155 4.13645e-31)
(19.1841 0.0221545 0)
(19.0599 0.0261966 0)
(19.095 0.033019 0)
(19.0216 0.0409767 -4.14327e-31)
(19.0681 0.0447588 0)
(19.0151 0.0502488 0)
(19.0632 0.0525677 0)
(19.0053 0.0553037 0)
(19.0395 0.0455016 0)
(18.9551 0.0827762 0)
(18.5479 0.0276659 0)
(18.3452 -0.03231 0)
(18.6431 -0.0215341 0)
(19.046 -0.0677802 0)
(19.0712 -0.0193303 0)
(19.0638 -0.0199701 -2.17018e-31)
(19.0725 -0.0160854 2.17028e-31)
(19.058 -0.0367488 0)
(19.0472 -0.0468949 0)
(19.048 -0.0427298 -2.60123e-31)
(19.057 -0.0329986 0)
(19.1057 -0.0253631 0)
(19.1407 -0.0214023 0)
(19.1852 -0.0176285 0)
(19.1669 -0.0166637 0)
(19.1694 -0.0135556 0)
(19.0769 -0.0117733 0)
(18.8878 -0.010651 0)
(18.5748 -0.00980605 0)
(18.1204 -0.00880301 0)
(17.5166 -0.00755614 0)
(16.7655 -0.00621446 2.7091e-31)
(15.8787 -0.00525749 0)
(14.8757 -0.00419982 0)
(13.7826 -0.00316203 0)
(12.6294 -0.0023061 0)
(11.4462 -0.00153908 0)
(10.263 -0.000995099 0)
(9.10697 -0.00049343 0)
(8.00054 -0.000150546 0)
(6.96144 0.000101266 0)
(6.00225 0.000260055 0)
(5.13059 0.000361692 0)
(4.34967 0.000421923 0)
(3.65908 0.000441557 0)
(3.05555 0.000432941 0)
(2.53374 0.000407008 0)
(2.08697 0.000373384 0)
(1.70778 0.000332567 0)
(1.38842 0.000290933 0)
(1.12126 0.00025064 0)
(0.89898 0.000213322 -2.67131e-31)
(0.71477 0.000179992 0)
(0.562297 0.000151035 -2.66912e-31)
(0.436242 0.000126638 0)
(0.3305 0.000106609 0)
(0.243957 9.09579e-05 0)
(0.162948 7.89421e-05 0)
(0.112143 7.14872e-05 0)
(0.014515 6.59612e-05 0)
(0.0108487 -3.32315e-05 0)
(0.0833078 -3.60698e-05 0)
(0.120533 -3.99677e-05 0)
(0.180297 -4.62755e-05 0)
(0.243694 -5.45681e-05 0)
(0.320979 -6.5299e-05 0)
(0.412732 -7.85824e-05 0)
(0.523345 -9.46551e-05 0)
(0.65657 -0.000113674 0)
(0.816926 -0.000135729 0)
(1.00929 -0.000160778 0)
(1.23902 -0.000188598 0)
(1.51183 -0.00021868 0)
(1.83375 -0.000250122 -5.30533e-31)
(2.21096 -0.000281472 0)
(2.64962 -0.000311441 0)
(3.15562 -0.000334829 0)
(3.73425 -0.000348655 0)
(4.38983 -0.000352173 0)
(5.12528 -0.000340832 0)
(5.94163 -0.000320404 0)
(6.83742 -0.000221422 0)
(7.80829 -0.000112734 0)
(8.84633 6.26334e-05 0)
(9.93964 0.000301824 0)
(11.0721 0.000636703 0)
(12.2229 0.00102816 0)
(13.3676 0.00152885 0)
(14.4783 0.00212695 0)
(15.5242 0.00285871 0)
(16.4751 0.00358333 0)
(17.3031 0.00478938 -5.22087e-31)
(17.9872 0.00578366 0)
(18.5076 0.00697919 0)
(18.8897 0.00763743 0)
(19.0607 0.00939419 0)
(19.2544 0.00883838 5.56798e-31)
(19.1379 0.0104958 0)
(19.2692 0.0114752 0)
(19.1324 0.0102581 -4.13624e-31)
(19.1873 0.00961622 0)
(19.0628 0.00677251 0)
(19.0999 0.00182661 0)
(19.0072 -0.00699099 4.14315e-31)
(19.0656 -0.0140705 0)
(19.0016 -0.0225453 0)
(19.0438 -0.0244953 0)
(18.985 -0.0311454 0)
(18.9967 -0.0213859 0)
(18.9336 -0.0602306 0)
(18.6543 -0.0185364 0)
(18.3647 0.0856237 0)
(18.6838 0.0562849 0)
(19.0216 0.0319525 0)
(19.0444 0.0427425 0)
(19.0575 0.0271661 2.80461e-31)
(19.0596 0.0174152 -2.2833e-31)
(19.0514 0.021224 0)
(19.0595 0.0187065 0)
(19.065 0.0146107 2.61031e-31)
(19.071 0.00775567 0)
(19.1103 -0.000415096 0)
(19.1461 -0.00216029 0)
(19.1883 -0.00747696 0)
(19.1715 -0.00652906 0)
(19.1714 -0.00851788 0)
(19.0792 -0.00938435 0)
(18.8892 -0.00914218 0)
(18.576 -0.00843479 0)
(18.1216 -0.00730773 0)
(17.5181 -0.0065673 0)
(16.7671 -0.00576833 -2.70906e-31)
(15.8804 -0.00463141 0)
(14.8774 -0.00375158 0)
(13.7842 -0.00300993 0)
(12.6308 -0.00223094 0)
(11.4474 -0.00157116 0)
(10.2639 -0.000992117 0)
(9.10771 -0.000604585 0)
(8.00112 -0.000243739 0)
(6.96186 2.39216e-05 0)
(6.00252 0.000213495 0)
(5.13075 0.00030819 0)
(4.34975 0.000367321 0)
(3.65908 0.00039529 0)
(3.05551 0.000398581 0)
(2.53369 0.000385866 0)
(2.0869 0.000353905 0)
(1.7077 0.000319016 0)
(1.38834 0.000281317 0)
(1.12119 0.000243922 0)
(0.898911 0.000208773 2.67131e-31)
(0.714709 0.000176931 0)
(0.562245 0.000149039 2.66912e-31)
(0.436199 0.000125351 0)
(0.330466 0.000105824 0)
(0.243929 9.05088e-05 0)
(0.162929 7.86738e-05 0)
(0.112128 7.13524e-05 0)
(0.0145127 6.58557e-05 0)
(0.0108476 -3.01476e-05 0)
(0.0833007 -3.2723e-05 0)
(0.120523 -3.62499e-05 0)
(0.180283 -4.19667e-05 0)
(0.243677 -4.94754e-05 0)
(0.320957 -5.91956e-05 0)
(0.412705 -7.12298e-05 0)
(0.523313 -8.58012e-05 0)
(0.656532 -0.000103064 0)
(0.816882 -0.000123126 0)
(1.00925 -0.000145989 0)
(1.23897 -0.000171511 0)
(1.51177 -0.000199364 0)
(1.83369 -0.00022895 0)
(2.2109 -0.000259317 0)
(2.64957 -0.000288415 0)
(3.15558 -0.000312904 0)
(3.73423 -0.000337521 0)
(4.38984 -0.000350102 0)
(5.12532 -0.000345121 0)
(5.94172 -0.000310261 0)
(6.83759 -0.000266389 0)
(7.80855 -0.000154219 0)
(8.84673 -7.16245e-06 0)
(9.94017 0.000213034 0)
(11.0728 0.0004742 0)
(12.2237 0.000837026 0)
(13.3686 0.00129557 0)
(14.4795 0.00184534 0)
(15.5256 0.00250844 0)
(16.4767 0.00325783 0)
(17.3049 0.00399651 0)
(17.9892 0.00488158 0)
(18.5096 0.00547396 0)
(18.8915 0.0067863 0)
(19.0614 0.00809851 0)
(19.2547 0.00746518 0)
(19.1377 0.00999133 0)
(19.2677 0.00819205 0)
(19.1304 0.0139022 0)
(19.1856 0.0154405 0)
(19.0586 0.0203041 0)
(19.0919 0.0250618 0)
(19.003 0.0346396 0)
(19.0379 0.0474881 0)
(18.9956 0.0659203 0)
(19.0379 0.0799246 0)
(19.0091 0.124086 0)
(19.0319 0.102161 0)
(18.9542 0.588195 0)
(18.7236 0.0854243 0)
(18.4592 -0.242209 0)
(18.6469 -0.140321 0)
(18.9951 -0.0501139 0)
(19.0049 -0.0354099 0)
(18.9964 -0.035876 0)
(18.9967 -0.030546 0)
(18.9986 -0.00710587 0)
(19.0142 -0.00454957 0)
(19.023 -0.003134 0)
(19.0453 -0.00451461 0)
(19.0922 -0.0015409 0)
(19.1348 -0.00312497 0)
(19.1805 -0.0029157 0)
(19.1679 -0.00370777 0)
(19.1681 -0.00456325 0)
(19.0775 -0.00415925 0)
(18.89 -0.00412227 0)
(18.5775 -0.00429339 0)
(18.1235 -0.00485883 0)
(17.5198 -0.00452182 0)
(16.7689 -0.00398983 0)
(15.8821 -0.00362328 0)
(14.879 -0.00297329 0)
(13.7857 -0.00233034 0)
(12.6321 -0.0018244 0)
(11.4485 -0.00130971 0)
(10.2649 -0.000857923 0)
(9.10848 -0.000484669 0)
(8.00169 -0.000187489 0)
(6.96229 2.756e-05 0)
(6.00281 0.00017552 0)
(5.13089 0.000299706 0)
(4.34982 0.000359911 0)
(3.65912 0.000383771 0)
(3.05551 0.000376067 0)
(2.53365 0.000351668 0)
(2.08684 0.000327817 0)
(1.70763 0.000293891 0)
(1.38827 0.000257664 0)
(1.12112 0.000222805 0)
(0.898849 0.000190393 0)
(0.714654 0.00016125 0)
(0.562197 0.000135793 0)
(0.436159 0.000114216 0)
(0.330433 9.64189e-05 0)
(0.243904 8.24763e-05 0)
(0.162912 7.16863e-05 0)
(0.112114 6.50256e-05 0)
(0.0145106 5.99977e-05 0)
(0.0108466 -2.31739e-05 0)
(0.0832946 -2.51196e-05 0)
(0.120516 -2.77381e-05 0)
(0.180272 -3.19859e-05 0)
(0.243662 -3.75203e-05 0)
(0.320938 -4.46421e-05 0)
(0.412682 -5.33824e-05 0)
(0.523285 -6.38582e-05 0)
(0.6565 -7.61128e-05 0)
(0.816844 -9.01368e-05 0)
(1.0092 -0.000105821 0)
(1.23892 -0.000122924 0)
(1.51172 -0.000141012 0)
(1.83364 -0.000159423 0)
(2.21085 -0.000177259 0)
(2.64952 -0.000193874 0)
(3.15554 -0.000210638 0)
(3.73419 -0.000213916 0)
(4.38982 -0.000209441 0)
(5.12534 -0.000202719 0)
(5.94177 -0.000179346 0)
(6.83775 -0.000121428 0)
(7.80879 -1.35281e-05 0)
(8.847 0.000111048 0)
(9.94055 0.000266409 0)
(11.0733 0.000463846 0)
(12.2244 0.000737774 0)
(13.3695 0.00102444 0)
(14.4806 0.00138689 0)
(15.5267 0.00176892 0)
(16.4781 0.00225216 0)
(17.3064 0.00276454 0)
(17.9909 0.00334366 0)
(18.5111 0.00408704 0)
(18.8952 0.00446238 0)
(19.0603 0.00492759 0)
(19.2597 0.00451046 0)
(19.1395 0.00513031 0)
(19.2725 0.00432484 0)
(19.1368 0.00305998 0)
(19.1965 0.00294242 0)
(19.0753 0.00327451 0)
(19.1247 0.00309699 0)
(19.0456 0.000694916 0)
(19.1298 -0.0039683 0)
(19.0587 -0.00743045 0)
(19.2168 -0.0165239 0)
(19.0594 -0.0276085 0)
(19.3125 -0.0518931 0)
(19.2763 -0.0883619 0)
(18.1228 -0.0487553 0)
(18.111 -0.0219655 0)
(18.8077 -0.0400908 0)
(19.079 -0.0102487 0)
(19.0785 -0.011396 0)
(19.051 0.00347824 0)
(19.055 0.00480488 0)
(19.0388 0.011138 0)
(19.0438 0.00385037 0)
(19.0509 0.00232427 0)
(19.0615 -0.00124687 0)
(19.103 0.00114347 0)
(19.1438 -0.00131501 0)
(19.1853 -0.00107286 0)
(19.1695 -0.00076802 0)
(19.167 -0.00115676 0)
(19.0784 -0.00195609 0)
(18.8889 -0.00254356 0)
(18.5767 -0.00274891 0)
(18.123 -0.00239303 0)
(17.5201 -0.00249787 0)
(16.7694 -0.00253249 0)
(15.8828 -0.00230081 0)
(14.8798 -0.00212612 0)
(13.7866 -0.00183078 0)
(12.6329 -0.00144913 0)
(11.4493 -0.00112562 0)
(10.2655 -0.000823319 0)
(9.10902 -0.000510179 0)
(8.00211 -0.000289884 0)
(6.9626 -0.000105491 0)
(6.00306 4.20409e-05 0)
(5.13106 0.000152023 0)
(4.34989 0.000200113 0)
(3.65912 0.000218731 0)
(3.05547 0.000231606 0)
(2.5336 0.000238321 0)
(2.08678 0.000220065 0)
(1.70757 0.000201167 0)
(1.38821 0.000180989 0)
(1.12106 0.000159525 0)
(0.898795 0.00013841 0)
(0.714606 0.000118692 0)
(0.562156 0.000101001 0)
(0.436125 8.57069e-05 0)
(0.330406 7.28937e-05 0)
(0.243882 6.27551e-05 0)
(0.162898 5.48113e-05 0)
(0.112103 4.99138e-05 0)
(0.0145087 4.61315e-05 0)
(0.0108459 -1.80493e-05 0)
(0.0832904 -1.96242e-05 0)
(0.12051 -2.18015e-05 0)
(0.180264 -2.53325e-05 0)
(0.243652 -2.99802e-05 0)
(0.320926 -3.60045e-05 0)
(0.412666 -4.34707e-05 0)
(0.523267 -5.25149e-05 0)
(0.656479 -6.3223e-05 0)
(0.816821 -7.56405e-05 0)
(1.00918 -8.97274e-05 0)
(1.23889 -0.000105314 0)
(1.5117 -0.000122032 0)
(1.83361 -0.000139195 0)
(2.21083 -0.000155533 0)
(2.6495 -0.000169249 0)
(3.15553 -0.000183656 0)
(3.7342 -0.000198021 0)
(4.38984 -0.000204404 0)
(5.12538 -0.000189094 0)
(5.94186 -0.000168476 0)
(6.83786 -0.000143578 0)
(7.80896 -0.000112843 0)
(8.84725 -4.27821e-05 0)
(9.94086 6.46299e-05 0)
(11.0737 0.000226155 0)
(12.2249 0.000414331 0)
(13.37 0.000667511 0)
(14.4812 0.000973359 0)
(15.5275 0.00134591 0)
(16.4788 0.00174346 0)
(17.3072 0.00217019 0)
(17.9915 0.002667 0)
(18.5117 0.00312576 0)
(18.8952 0.0035674 0)
(19.06 0.00395019 0)
(19.258 0.00329393 0)
(19.137 0.00423841 0)
(19.2691 0.00316265 0)
(19.1295 0.00388261 0)
(19.1851 0.00485024 0)
(19.0547 0.00440954 0)
(19.0888 0.00410517 0)
(18.9968 0.00150273 0)
(19.0326 -0.00125667 0)
(18.9671 -0.00614109 0)
(19.0034 -0.012283 0)
(18.9279 -0.0236858 0)
(18.9022 -0.0219276 0)
(18.8757 -0.0673064 0)
(18.7984 -0.0257025 0)
(18.5361 0.0413613 0)
(18.6049 0.0379859 0)
(18.9302 0.0207125 0)
(18.9763 0.0056196 0)
(18.9948 0.00245985 0)
(19.0039 -0.00448917 0)
(19.0115 -0.00378235 0)
(19.0191 -0.00288041 0)
(19.0357 -0.000925335 0)
(19.0524 -0.00110869 0)
(19.0961 -0.000802569 0)
(19.1408 8.19203e-05 0)
(19.1818 0.000305722 0)
(19.1672 -0.0011217 0)
(19.1656 -0.00185742 0)
(19.0774 -0.0017001 0)
(18.888 -0.00164834 0)
(18.576 -0.00184733 0)
(18.1228 -0.0021449 0)
(17.52 -0.00221634 0)
(16.7695 -0.00204718 0)
(15.8831 -0.00189865 0)
(14.8804 -0.00163921 0)
(13.7872 -0.00133213 0)
(12.6336 -0.00100717 0)
(11.4499 -0.000726133 0)
(10.2661 -0.000469508 0)
(9.10949 -0.000238756 0)
(8.00251 -7.41345e-05 0)
(6.9629 3.8001e-05 0)
(6.00324 0.000132926 0)
(5.13118 0.000172527 0)
(4.34996 0.000208009 0)
(3.65916 0.000231104 0)
(3.0555 0.000234512 0)
(2.5336 0.0002139 0)
(2.08677 0.000196555 0)
(1.70754 0.000179341 0)
(1.38818 0.000159561 0)
(1.12103 0.000138668 0)
(0.898763 0.000118602 0)
(0.714577 0.000100303 0)
(0.56213 8.42241e-05 0)
(0.436102 7.05686e-05 0)
(0.330387 5.93037e-05 0)
(0.243867 5.04896e-05 0)
(0.162888 4.36752e-05 0)
(0.112094 3.94804e-05 0)
(0.0145074 3.63275e-05 0)
(0.0108455 -2.57352e-06 0)
(0.0832873 -2.81441e-06 0)
(0.120506 -3.16452e-06 0)
(0.180258 -3.73344e-06 0)
(0.243644 -4.49992e-06 0)
(0.320915 -5.51194e-06 0)
(0.412654 -6.79846e-06 0)
(0.523252 -8.40305e-06 0)
(0.656461 -1.03711e-05 0)
(0.8168 -1.27525e-05 0)
(1.00915 -1.56005e-05 0)
(1.23887 -1.8972e-05 0)
(1.51167 -2.29357e-05 0)
(1.83358 -2.76022e-05 0)
(2.21079 -3.32698e-05 0)
(2.64947 -4.01426e-05 0)
(3.1555 -4.32188e-05 0)
(3.73418 -4.52376e-05 0)
(4.38983 -4.77914e-05 0)
(5.12539 -5.37841e-05 0)
(5.94188 -5.18186e-05 0)
(6.83787 -4.84664e-05 0)
(7.809 -5.35045e-05 0)
(8.84734 -4.92272e-05 0)
(9.94101 -4.24394e-05 0)
(11.0739 -2.71181e-05 0)
(12.2252 -1.29384e-05 0)
(13.3704 1.99122e-05 0)
(14.4816 6.05854e-05 0)
(15.528 0.000113143 0)
(16.4795 0.000191174 0)
(17.3079 0.000293429 0)
(17.9925 0.00039208 0)
(18.5125 0.000566679 0)
(18.8975 0.00074614 0)
(19.0588 0.00135882 0)
(19.2621 0.000940613 0)
(19.1377 0.00223149 0)
(19.2731 0.00141553 0)
(19.1347 0.00337363 0)
(19.1945 0.00441328 0)
(19.0714 0.00799502 0)
(19.1168 0.0121016 0)
(19.0362 0.0199859 0)
(19.1115 0.0294803 0)
(19.0435 0.0477038 0)
(19.1835 0.0656181 0)
(19.0145 0.109159 0)
(19.255 0.0179834 0)
(19.2542 0.606251 0)
(18.2823 0.119419 0)
(18.2194 -0.286066 0)
(18.7928 -0.192341 0)
(19.0663 -0.0674499 0)
(19.071 -0.0421045 0)
(19.0488 -0.0297018 0)
(19.045 -0.0203406 0)
(19.0373 -0.0116388 0)
(19.034 -0.00723556 0)
(19.0478 -0.00364449 0)
(19.0573 -0.00221964 0)
(19.1001 -0.000289941 0)
(19.1417 -0.000581696 0)
(19.1827 -0.000600904 0)
(19.167 -0.000405061 0)
(19.1657 -0.000209819 0)
(19.0773 -0.000283998 0)
(18.888 -0.000422614 0)
(18.5761 -0.000361249 0)
(18.1227 -0.000342432 0)
(17.5201 -0.000282224 0)
(16.7698 -0.000282423 0)
(15.8835 -0.000191226 0)
(14.8808 -0.0001134 0)
(13.7876 -6.15074e-05 0)
(12.634 -3.69326e-05 0)
(11.4503 5.22425e-06 0)
(10.2664 3.91792e-05 0)
(9.10972 3.90995e-05 0)
(8.00264 5.87987e-05 0)
(6.96297 6.54047e-05 0)
(6.00331 5.37998e-05 0)
(5.13123 6.09929e-05 0)
(4.34998 6.60245e-05 0)
(3.65915 6.10705e-05 0)
(3.05546 5.28285e-05 0)
(2.53356 5.04897e-05 0)
(2.08672 4.6797e-05 0)
(1.7075 3.87109e-05 0)
(1.38814 3.13456e-05 0)
(1.12099 2.55926e-05 0)
(0.898731 2.08687e-05 0)
(0.714548 1.6971e-05 0)
(0.562106 1.37812e-05 0)
(0.436083 1.12116e-05 0)
(0.330372 9.17917e-06 0)
(0.243855 7.63569e-06 0)
(0.16288 6.48022e-06 0)
(0.112088 5.77225e-06 0)
(0.0145064 5.26816e-06 0)
)
;

boundaryField
{
    sides1
    {
        type            zeroGradient;
    }
    sides2
    {
        type            slip;
    }
    empty
    {
        type            empty;
    }
}


// ************************************************************************* //
