/*--------------------------------*- C++ -*----------------------------------*\
| =========                 |                                                 |
| \\      /  F ield         | OpenFOAM: The Open Source CFD Toolbox           |
|  \\    /   O peration     | Version:  3.0.1                                 |
|   \\  /    A nd           | Web:      www.OpenFOAM.org                      |
|    \\/     M anipulation  |                                                 |
\*---------------------------------------------------------------------------*/
FoamFile
{
    version     2.0;
    format      ascii;
    class       volScalarField;
    location    "0.13";
    object      p;
}
// * * * * * * * * * * * * * * * * * * * * * * * * * * * * * * * * * * * * * //

dimensions      [1 -1 -2 0 0 0 0];

internalField   nonuniform List<scalar> 
50
(
301209
299452
298654
298164
297474
296731
295928
295029
294028
292910
291653
290233
288619
286774
284648
282177
279277
275835
271690
266613
260245
251992
240738
224077
196268
139824
102300
82911
70671.6
61831.9
54775.5
49141.3
44442.7
40550.9
37093.9
34420.3
30642.6
30790.5
91923.8
153130
159944
162464
165083
167403
169495
170810
171960
173142
174362
173196
)
;

boundaryField
{
    inlet
    {
        type            fixedValue;
        value           uniform 300000;
    }
    outlet
    {
        type            fixedValue;
        value           uniform 175000;
    }
    upperWall
    {
        type            zeroGradient;
    }
    lowerWall
    {
        type            zeroGradient;
    }
    frontAndBack
    {
        type            empty;
    }
}


// ************************************************************************* //
