/*--------------------------------*- C++ -*----------------------------------*\
| =========                 |                                                 |
| \\      /  F ield         | OpenFOAM: The Open Source CFD Toolbox           |
|  \\    /   O peration     | Version:  2012                                  |
|   \\  /    A nd           | Website:  www.openfoam.com                      |
|    \\/     M anipulation  |                                                 |
\*---------------------------------------------------------------------------*/
FoamFile
{
    version     2.0;
    format      ascii;
    class       volScalarField;
    location    "0.06";
    object      maxKappa;
}
// * * * * * * * * * * * * * * * * * * * * * * * * * * * * * * * * * * * * * //

dimensions      [0 0 0 0 0 0 0];


internalField   nonuniform List<scalar> 
2268
(
7.46467e-07
1.46066e-06
2.20867e-06
2.98128e-06
3.80611e-06
4.67755e-06
5.63685e-06
6.68716e-06
7.88117e-06
9.24703e-06
1.0874e-05
1.30387e-05
1.56605e-05
2.6417e-05
0.000159532
0.000447216
0.00047919
0.00047919
0.000416243
0.000305835
0.000203919
0.000128649
6.43721e-05
9.07304e-07
1.54276e-06
2.26149e-06
3.02008e-06
3.83572e-06
4.70043e-06
5.65433e-06
6.69896e-06
7.88563e-06
9.25271e-06
1.08654e-05
1.29334e-05
1.58573e-05
4.08827e-05
0.000283548
0.000500863
0.000500863
0.000464969
0.000385363
0.00028873
0.000203641
0.000135517
7.999e-05
1.14414e-06
1.69167e-06
2.36238e-06
3.09541e-06
3.89343e-06
4.74516e-06
5.6878e-06
6.72139e-06
7.89375e-06
9.25014e-06
1.08444e-05
1.28104e-05
1.93093e-05
0.000100162
0.000370704
0.000499683
0.000499683
0.000433281
0.00034621
0.000266868
0.000199912
0.000141719
9.68599e-05
1.41674e-06
1.88863e-06
2.50434e-06
3.20418e-06
3.97768e-06
4.81133e-06
5.73739e-06
6.75488e-06
7.9079e-06
9.24055e-06
1.08054e-05
1.26653e-05
2.31727e-05
0.000156764
0.000409093
0.0004371
0.0004371
0.000378679
0.000304426
0.00025367
0.000201959
0.000154719
0.000120665
1.70662e-06
2.1171e-06
2.67824e-06
3.34076e-06
4.08443e-06
4.89559e-06
5.79983e-06
6.79585e-06
7.92529e-06
9.21999e-06
1.07474e-05
1.25001e-05
2.70053e-05
0.000206946
0.000415897
0.000415897
0.00039078
0.000326807
0.000278061
0.000249277
0.000207211
0.00016843
0.000140735
2.00528e-06
2.36649e-06
2.87721e-06
3.50137e-06
4.21214e-06
4.99803e-06
5.87705e-06
6.84757e-06
7.95043e-06
9.19838e-06
1.06811e-05
1.23209e-05
3.04413e-05
0.00024892
0.000389357
0.000389357
0.000332337
0.000280536
0.000263451
0.000243144
0.000210386
0.000183365
0.000168311
2.30611e-06
2.62744e-06
3.09282e-06
3.67888e-06
4.35453e-06
5.11206e-06
5.96108e-06
6.90047e-06
7.96955e-06
9.16244e-06
1.05863e-05
1.25377e-05
3.70089e-05
0.000275116
0.000339645
0.000339645
0.000280964
0.000258197
0.000258197
0.000241454
0.000217139
0.000197825
0.000185108
2.60696e-06
2.89559e-06
3.32091e-06
3.87047e-06
4.51074e-06
5.23837e-06
6.05579e-06
6.96271e-06
7.99618e-06
9.13755e-06
1.04946e-05
1.40847e-05
5.93706e-05
0.000282102
0.00030421
0.00030421
0.000245211
0.000251461
0.000251461
0.000237103
0.000221563
0.000225512
0.000225512
1.11955e-05
2.38475e-05
3.10026e-05
3.54461e-05
3.70255e-05
3.70255e-05
3.66694e-05
3.53113e-05
3.29879e-05
3.03914e-05
2.74045e-05
2.44003e-05
2.12686e-05
1.81862e-05
1.50829e-05
1.20344e-05
8.99948e-06
6.00816e-06
3.06656e-06
1.52547e-05
2.5292e-05
3.16979e-05
3.58173e-05
3.72851e-05
3.72851e-05
3.68319e-05
3.54302e-05
3.30787e-05
3.04737e-05
2.74811e-05
2.44776e-05
2.13508e-05
1.82787e-05
1.5192e-05
1.21703e-05
9.18136e-06
6.28536e-06
3.63537e-06
1.71112e-05
2.80519e-05
3.35839e-05
3.72108e-05
3.82177e-05
3.82177e-05
3.74481e-05
3.58384e-05
3.33623e-05
3.06906e-05
2.76626e-05
2.46468e-05
2.15229e-05
1.84669e-05
1.54102e-05
1.24383e-05
9.53391e-06
6.79914e-06
4.4881e-06
2.44741e-05
3.1838e-05
3.56017e-05
3.82848e-05
3.89487e-05
3.89487e-05
3.78915e-05
3.61958e-05
3.36335e-05
3.0933e-05
2.78882e-05
2.48745e-05
2.17651e-05
1.87381e-05
1.57274e-05
1.28267e-05
1.00359e-05
7.49335e-06
5.4836e-06
2.66785e-05
3.75214e-05
3.94852e-05
4.10982e-05
4.10982e-05
4.07757e-05
3.90964e-05
3.70027e-05
3.41946e-05
3.13609e-05
2.82464e-05
2.52074e-05
2.21017e-05
1.91032e-05
1.61453e-05
1.33282e-05
1.06664e-05
8.3199e-06
6.56095e-06
3.7595e-05
4.31615e-05
4.31615e-05
4.27931e-05
4.27328e-05
4.19338e-05
3.97864e-05
3.75588e-05
3.46253e-05
3.17457e-05
2.86077e-05
2.55729e-05
2.24906e-05
1.95354e-05
1.66439e-05
1.3923e-05
1.13985e-05
9.2391e-06
7.68605e-06
4.07843e-05
5.37975e-05
5.37975e-05
4.92433e-05
4.69711e-05
4.45979e-05
4.15193e-05
3.87058e-05
3.54356e-05
3.2367e-05
2.91316e-05
2.60588e-05
2.2979e-05
2.00584e-05
1.72314e-05
1.46073e-05
1.22172e-05
1.02272e-05
8.84184e-06
6.9249e-05
6.9249e-05
6.34256e-05
5.51142e-05
4.90204e-05
4.60783e-05
4.23969e-05
3.94011e-05
3.59897e-05
3.28644e-05
2.96066e-05
2.65416e-05
2.34934e-05
2.06258e-05
1.78759e-05
1.53549e-05
1.30973e-05
1.12602e-05
1.00135e-05
3.32671e-06
3.46558e-06
3.78568e-06
4.19393e-06
4.78257e-06
5.46377e-06
6.23271e-06
7.09097e-06
8.0653e-06
9.13485e-06
1.0377e-05
1.60963e-05
9.64969e-05
0.000284108
0.000315404
0.000266282
0.000229576
0.000244516
0.000244516
0.000233955
0.000237484
0.000273014
0.000273131
3.93366e-06
4.04941e-06
4.31979e-06
4.64394e-06
5.16531e-06
5.77959e-06
6.47667e-06
7.26269e-06
8.14169e-06
9.11086e-06
1.01952e-05
1.8365e-05
0.000123584
0.000278451
0.000315404
0.000223195
0.00023112
0.000241696
0.000233579
0.000221598
0.000222176
0.00022687
0.000273131
4.50027e-06
4.6e-06
4.83027e-06
5.11513e-06
5.55026e-06
6.09996e-06
6.72683e-06
7.43927e-06
8.22134e-06
9.0919e-06
1.00273e-05
2.01258e-05
0.000143556
0.000264371
0.000275541
0.000187506
0.00023112
0.000222994
0.000221654
0.0002079
0.000209087
0.00020074
0.000227832
5.02332e-06
5.11119e-06
5.30806e-06
5.5629e-06
5.93794e-06
6.42069e-06
6.98262e-06
7.62429e-06
8.3181e-06
9.09564e-06
9.90624e-06
2.1552e-05
0.000159193
0.000264371
0.000225203
0.000179415
0.000228291
0.000209016
0.000208904
0.000193069
0.000194789
0.000180914
0.000191456
5.50222e-06
5.58086e-06
5.74966e-06
5.98016e-06
6.30373e-06
6.72254e-06
7.22474e-06
7.79863e-06
8.41231e-06
9.10173e-06
9.80633e-06
2.27045e-05
0.000171396
0.000261328
0.0001926
0.000178296
0.000214131
0.000194313
0.000195119
0.000180535
0.000179514
0.000166063
0.000164301
5.93531e-06
6.00633e-06
6.15127e-06
6.36111e-06
6.63956e-06
7.01248e-06
7.46045e-06
7.97129e-06
8.51476e-06
9.12391e-06
9.7412e-06
2.36815e-05
0.000181276
0.0002565
0.000167705
0.000174826
0.000196365
0.000180306
0.00018183
0.000168074
0.000166289
0.00015321
0.000148291
6.32538e-06
6.38997e-06
6.51496e-06
6.70684e-06
6.94679e-06
7.27016e-06
7.66966e-06
8.12381e-06
8.60739e-06
9.14526e-06
9.69147e-06
2.44955e-05
0.000189094
0.000251099
0.000149554
0.000170724
0.000180758
0.000171182
0.000169618
0.000158901
0.000154421
0.000144196
0.000135932
6.67079e-06
6.72968e-06
6.83756e-06
7.01327e-06
7.22018e-06
7.51672e-06
7.87313e-06
8.27594e-06
8.70632e-06
9.17975e-06
9.66436e-06
2.51599e-05
0.000195248
0.000245841
0.000141185
0.00016966
0.000168006
0.000164664
0.000159041
0.000151014
0.0001449
0.000135497
0.000127539
6.9765e-06
7.03052e-06
7.12448e-06
7.28606e-06
7.46575e-06
7.73161e-06
8.0383e-06
8.39725e-06
8.78468e-06
9.20539e-06
9.64277e-06
2.5718e-05
0.000199904
0.000240831
0.000142825
0.00016966
0.000160955
0.000159204
0.000151053
0.000144624
0.000137303
0.000129546
0.000121737
7.24051e-06
7.29009e-06
7.37189e-06
7.5206e-06
7.67688e-06
7.92241e-06
8.20901e-06
8.52818e-06
8.8753e-06
9.24628e-06
9.63667e-06
2.62052e-05
0.00020313
0.000235305
0.000147776
0.000169399
0.000157422
0.000154993
0.000145611
0.000139482
0.000131351
0.000123741
0.000116107
7.46797e-06
7.51388e-06
7.58609e-06
7.72396e-06
7.86154e-06
8.08919e-06
8.32501e-06
8.61181e-06
8.92968e-06
9.26465e-06
9.62591e-06
2.66388e-05
0.000204347
0.000228071
0.000153481
0.000168088
0.000153853
0.000150969
0.000141426
0.000134983
0.000127621
0.000119872
0.000112827
7.65914e-06
7.70157e-06
7.7652e-06
7.89298e-06
8.02665e-06
8.22626e-06
8.46357e-06
8.72149e-06
9.00984e-06
9.30793e-06
9.63218e-06
2.70505e-05
0.000202512
0.00021701
0.000155142
0.000167431
0.000152566
0.000147661
0.000137845
0.000131078
0.00012331
0.000115529
0.000108841
7.81427e-06
7.85396e-06
7.91103e-06
8.03092e-06
8.13952e-06
8.3388e-06
8.53153e-06
8.76724e-06
9.03836e-06
9.31499e-06
9.62583e-06
2.74225e-05
0.000208249
0.000199522
0.000154421
0.000163244
0.000147331
0.000143991
0.000135005
0.000127581
0.000121019
0.000113459
0.00010658
7.94234e-06
7.97997e-06
8.03227e-06
8.14579e-06
8.26427e-06
8.43366e-06
8.63804e-06
8.85458e-06
9.10466e-06
9.35249e-06
9.63161e-06
2.7833e-05
0.000215697
0.000183206
0.000148219
0.000158189
0.000146888
0.000139688
0.000131556
0.000124087
0.000117283
0.000109999
0.000103356
8.0328e-06
8.06853e-06
8.11641e-06
8.22403e-06
8.33268e-06
8.49481e-06
8.67731e-06
8.87686e-06
9.11288e-06
9.34006e-06
9.6013e-06
2.82667e-05
0.000222088
0.000176681
0.000147929
0.000152095
0.000143046
0.000137822
0.000131733
0.000124413
0.000116686
0.000109139
0.000101822
8.24823e-06
8.28696e-06
8.33899e-06
8.45579e-06
8.55477e-06
8.75351e-06
8.88985e-06
9.17838e-06
9.33426e-06
9.73544e-06
9.95714e-06
2.86582e-05
0.000222088
0.000144861
0.000147929
0.00014591
0.00014471
0.000134904
0.000128248
0.000120695
0.000113093
0.000106091
9.8952e-05
1.5804e-05
1.59331e-05
1.61277e-05
1.65302e-05
1.69147e-05
1.76294e-05
1.8186e-05
1.92987e-05
2.00028e-05
2.18557e-05
2.39349e-05
4.8526e-05
0.000217577
0.000161472
0.000144556
0.000155512
0.0001516
0.000143303
0.000133981
0.000123988
0.000114139
0.000105681
9.76741e-05
0.000102621
0.000103518
0.000104829
0.000107502
0.000110004
0.000114625
0.000118097
0.000125016
0.000129318
0.000140926
0.000153768
0.00018353
0.000213792
0.000139715
0.000156108
0.000193541
0.000171938
0.000142593
0.000132534
0.000121885
0.000111629
0.000103299
9.50933e-05
0.000182013
0.000183241
0.000185361
0.000188173
0.000191833
0.000196146
0.000201364
0.000207368
0.000215632
0.000229325
0.000229325
0.000262378
0.000253481
0.000194884
0.000217898
0.000244381
0.000210737
0.000169418
0.000141355
0.000125233
0.000111167
0.000101389
9.27031e-05
0.00016425
0.000165134
0.000166478
0.000169193
0.000171924
0.000176635
0.000181843
0.000191289
0.000205503
0.000226369
0.000259619
0.000299417
0.000318285
0.000259974
0.000296929
0.000294236
0.000229957
0.000179172
0.00014611
0.000126107
0.000110243
9.96017e-05
9.03441e-05
0.000150747
0.000151551
0.00015299
0.000155533
0.000158722
0.000163264
0.000168941
0.000176335
0.000187321
0.000202473
0.000231072
0.000280468
0.000320257
0.000320257
0.000296929
0.000228476
0.000185401
0.000150407
0.000129975
0.000113529
0.000101891
9.25263e-05
8.49198e-05
0.000142213
0.000142872
0.000144131
0.000146111
0.00014892
0.000152593
0.000157588
0.000163746
0.000172958
0.000182345
0.000203762
0.000224283
0.000274734
0.00028143
0.000236214
0.000194001
0.000166329
0.000143272
0.000124651
0.000110796
9.90564e-05
9.00949e-05
8.23739e-05
0.000134319
0.000134826
0.000135915
0.000137461
0.000139918
0.000142583
0.000147131
0.000151127
0.000159469
0.000165256
0.000179915
0.00018752
0.000214111
0.00021628
0.000189264
0.000163763
0.000143134
0.000122832
0.000111227
9.82483e-05
9.04146e-05
8.21434e-05
7.65376e-05
0.000125698
0.000126051
0.000126905
0.000127947
0.000129884
0.000131563
0.000135176
0.000137377
0.000143941
0.000146415
0.000157636
0.000158909
0.000172422
0.000172365
0.000151177
0.000138768
0.000122317
0.000109156
9.97053e-05
9.09032e-05
8.34695e-05
7.72656e-05
7.17819e-05
0.00011788
0.000118115
0.000118768
0.000119435
0.000120919
0.000121875
0.000124593
0.000125455
0.000130079
0.000129946
0.000136788
0.000135541
0.000140064
0.000138392
0.000127111
0.000119659
0.00010701
9.83976e-05
9.01317e-05
8.25412e-05
7.67956e-05
7.11723e-05
6.68643e-05
0.000109716
0.00010983
0.000110257
0.000110548
0.000111553
0.000111852
0.000113782
0.000113711
0.000117056
0.000115911
0.000120154
0.000117936
0.000119752
0.000117185
0.000108669
0.000102864
9.32945e-05
8.74945e-05
8.04109e-05
7.48799e-05
6.99281e-05
6.55018e-05
6.18219e-05
0.000102549
0.000102572
0.000102812
0.000102822
0.000103401
0.000103197
0.000104317
0.000103501
0.000105342
0.000103488
0.000105379
0.000102918
0.000102086
9.93658e-05
9.38167e-05
8.94341e-05
8.25164e-05
7.81384e-05
7.22654e-05
6.80841e-05
6.38115e-05
6.0299e-05
5.71391e-05
9.52768e-05
9.52224e-05
9.5288e-05
9.50738e-05
9.52904e-05
9.47501e-05
9.52772e-05
9.41116e-05
9.49931e-05
9.29415e-05
9.34935e-05
9.09291e-05
8.95932e-05
8.67631e-05
8.22574e-05
7.83613e-05
7.29784e-05
6.938e-05
6.45973e-05
6.1389e-05
5.77873e-05
5.50653e-05
5.24207e-05
8.90135e-05
8.88963e-05
8.88091e-05
8.84097e-05
8.82897e-05
8.74618e-05
8.73977e-05
8.59215e-05
8.58884e-05
8.36739e-05
8.31733e-05
8.05169e-05
7.85465e-05
7.56551e-05
7.21202e-05
6.87849e-05
6.47257e-05
6.17044e-05
5.79164e-05
5.53291e-05
5.23544e-05
5.02096e-05
4.80289e-05
8.28409e-05
8.26758e-05
8.24636e-05
8.19329e-05
8.15532e-05
8.05537e-05
8.00698e-05
7.84593e-05
7.78364e-05
7.55822e-05
7.4496e-05
7.18886e-05
6.98338e-05
6.70484e-05
6.39248e-05
6.09225e-05
5.75244e-05
5.48484e-05
5.17477e-05
4.95936e-05
4.71671e-05
4.54876e-05
4.37466e-05
7.75826e-05
7.73771e-05
7.70554e-05
7.64118e-05
7.58004e-05
7.46458e-05
7.37901e-05
7.20429e-05
7.09285e-05
6.86146e-05
6.70537e-05
6.43874e-05
6.21226e-05
5.93395e-05
5.65586e-05
5.38163e-05
5.09958e-05
4.8648e-05
4.61417e-05
4.43325e-05
4.23947e-05
4.10792e-05
3.97368e-05
7.25469e-05
7.23103e-05
7.19026e-05
7.11761e-05
7.03887e-05
6.91304e-05
6.80064e-05
6.6181e-05
6.47335e-05
6.23991e-05
6.05594e-05
5.7946e-05
5.56518e-05
5.29721e-05
5.03606e-05
4.77984e-05
4.52773e-05
4.31356e-05
4.10066e-05
3.94437e-05
3.78882e-05
3.68689e-05
3.58831e-05
6.82934e-05
6.80309e-05
6.75508e-05
6.67543e-05
6.58192e-05
6.44694e-05
6.31235e-05
6.12195e-05
5.95003e-05
5.71211e-05
5.50344e-05
5.23709e-05
4.99526e-05
4.72641e-05
4.47493e-05
4.22951e-05
4.00115e-05
3.80444e-05
3.62314e-05
3.48878e-05
3.3666e-05
3.29083e-05
3.22477e-05
6.43394e-05
6.4055e-05
6.35167e-05
6.26611e-05
6.16104e-05
6.01842e-05
5.86705e-05
5.67006e-05
5.47861e-05
5.23693e-05
5.01217e-05
4.74669e-05
4.49989e-05
4.23484e-05
3.98729e-05
3.74842e-05
3.53141e-05
3.34518e-05
3.18314e-05
3.06477e-05
2.96818e-05
2.91478e-05
2.87758e-05
6.10358e-05
6.07343e-05
6.01501e-05
5.92476e-05
5.81048e-05
5.66152e-05
5.49668e-05
5.29343e-05
5.08579e-05
4.83881e-05
4.59814e-05
4.32633e-05
4.06789e-05
3.79774e-05
3.54737e-05
3.30854e-05
3.0971e-05
2.91707e-05
2.7693e-05
2.6648e-05
2.59056e-05
2.55857e-05
2.54868e-05
5.80713e-05
5.7753e-05
5.71286e-05
5.61802e-05
5.49597e-05
5.34074e-05
5.16496e-05
4.95529e-05
4.7348e-05
4.48236e-05
4.22983e-05
3.95405e-05
3.68732e-05
3.4135e-05
3.1578e-05
2.91569e-05
2.70293e-05
2.52364e-05
2.38274e-05
2.28795e-05
2.23164e-05
2.21954e-05
2.23544e-05
5.56512e-05
5.53212e-05
5.46679e-05
5.36862e-05
5.24073e-05
5.08062e-05
4.89623e-05
4.68088e-05
4.44951e-05
4.19065e-05
3.92575e-05
3.64167e-05
3.36228e-05
3.07855e-05
2.81172e-05
2.56018e-05
2.33993e-05
2.1559e-05
2.01667e-05
1.9289e-05
1.88872e-05
1.89724e-05
1.93962e-05
5.35766e-05
5.32333e-05
5.25517e-05
5.15342e-05
5.02024e-05
4.85508e-05
4.6633e-05
4.44212e-05
4.20168e-05
3.93725e-05
3.66441e-05
3.37766e-05
3.0824e-05
2.78648e-05
2.50693e-05
2.24264e-05
2.00924e-05
1.81422e-05
1.67001e-05
1.58518e-05
1.55934e-05
1.58975e-05
1.66032e-05
5.19821e-05
5.16308e-05
5.09307e-05
4.98885e-05
4.85183e-05
4.68284e-05
4.49084e-05
4.27689e-05
4.03722e-05
3.7746e-05
3.49329e-05
3.19731e-05
2.89176e-05
2.58224e-05
2.27503e-05
1.9783e-05
1.71218e-05
1.49824e-05
1.34095e-05
1.25437e-05
1.2428e-05
1.29925e-05
1.40238e-05
5.07198e-05
5.03572e-05
4.96362e-05
4.85677e-05
4.71629e-05
4.54367e-05
4.35114e-05
4.13397e-05
3.89079e-05
3.6243e-05
3.33824e-05
3.03625e-05
2.72291e-05
2.40306e-05
2.0823e-05
1.76744e-05
1.46696e-05
1.21157e-05
1.02935e-05
9.32724e-06
9.36896e-06
1.0275e-05
1.16994e-05
4.99159e-05
4.95471e-05
4.88136e-05
4.78598e-05
4.66045e-05
4.50088e-05
4.30909e-05
4.08722e-05
3.83816e-05
3.5648e-05
3.27089e-05
2.96007e-05
2.63666e-05
2.305e-05
1.96986e-05
1.63653e-05
1.31132e-05
1.00366e-05
7.41713e-06
6.1966e-06
6.46059e-06
7.87127e-06
9.77207e-06
4.93555e-05
4.89887e-05
4.82558e-05
4.71673e-05
4.5848e-05
4.42518e-05
4.23381e-05
4.01276e-05
3.76469e-05
3.49239e-05
3.19928e-05
2.88879e-05
2.56485e-05
2.23132e-05
1.89226e-05
1.55168e-05
1.21354e-05
8.8207e-06
5.63261e-06
3.15889e-06
3.96869e-06
6.55899e-06
8.43158e-06
0.000232645
0.000170525
0.000159295
0.000145838
0.000232645
0.000194102
0.000174848
0.000157688
0.00021118
0.000194102
0.000174848
0.000157688
0.00018148
0.000168501
0.000151919
0.000138999
0.000155484
0.000147776
0.000136834
0.000128564
0.000139706
0.000133415
0.000124786
0.00011835
0.000128028
0.000122938
0.000116498
0.00011137
0.000120258
0.000115618
0.000110232
0.000105668
0.000113987
0.000109796
0.000105307
0.000101256
0.000109363
0.000105394
0.00010144
9.76787e-05
0.000105449
0.000101702
9.81595e-05
9.46721e-05
0.000102257
9.86935e-05
9.54143e-05
9.21327e-05
9.94483e-05
9.60574e-05
9.29528e-05
8.98553e-05
9.69695e-05
9.37457e-05
9.07492e-05
8.78028e-05
9.46846e-05
9.16226e-05
8.86757e-05
8.58511e-05
9.2541e-05
8.9619e-05
8.6689e-05
8.39639e-05
9.03944e-05
8.75592e-05
8.4648e-05
8.1996e-05
8.82977e-05
8.55049e-05
8.25947e-05
7.99886e-05
8.57968e-05
8.30608e-05
8.02135e-05
7.76767e-05
8.32678e-05
8.0566e-05
7.77641e-05
7.52901e-05
7.98605e-05
7.73205e-05
7.47076e-05
7.23924e-05
7.64222e-05
7.40158e-05
7.16078e-05
6.94359e-05
7.24155e-05
7.0221e-05
6.80562e-05
6.60896e-05
6.80812e-05
6.61665e-05
6.42958e-05
6.25761e-05
6.38523e-05
6.21689e-05
6.0545e-05
5.90423e-05
5.936e-05
5.79376e-05
5.65907e-05
5.53314e-05
5.51242e-05
5.39189e-05
5.28041e-05
5.17515e-05
5.08327e-05
4.9845e-05
4.89597e-05
4.81148e-05
4.67846e-05
4.59899e-05
4.5299e-05
4.46363e-05
4.28088e-05
4.2199e-05
4.16888e-05
4.12005e-05
3.90528e-05
3.8611e-05
3.82576e-05
3.79262e-05
3.54259e-05
3.51405e-05
3.49321e-05
3.47482e-05
3.19947e-05
3.18541e-05
3.17789e-05
3.17318e-05
2.87127e-05
2.8707e-05
2.87581e-05
2.88406e-05
2.56097e-05
2.57344e-05
2.5909e-05
2.61171e-05
2.26622e-05
2.29143e-05
2.32115e-05
2.35429e-05
1.98992e-05
2.02825e-05
2.07064e-05
2.11627e-05
1.73164e-05
1.78363e-05
1.83916e-05
1.8975e-05
1.49733e-05
1.56406e-05
1.63346e-05
1.70481e-05
1.29122e-05
1.3734e-05
1.45684e-05
1.54089e-05
1.12637e-05
1.2237e-05
1.32032e-05
1.41579e-05
1.01539e-05
1.12424e-05
1.23038e-05
1.33374e-05
0.000142919
0.000126803
9.11648e-05
7.07184e-05
5.79212e-05
5.12894e-05
4.57256e-05
4.16115e-05
3.75986e-05
3.41212e-05
3.06854e-05
2.75442e-05
2.4496e-05
2.16825e-05
1.90357e-05
1.666e-05
1.45858e-05
1.29481e-05
1.18701e-05
0.000142919
0.000135223
9.59924e-05
7.52382e-05
6.20881e-05
5.43903e-05
4.80585e-05
4.34391e-05
3.91422e-05
3.55114e-05
3.20305e-05
2.89051e-05
2.59336e-05
2.32374e-05
2.07531e-05
1.85735e-05
1.67222e-05
1.53031e-05
1.43948e-05
0.000133732
0.000115481
9.23303e-05
7.77395e-05
6.61428e-05
5.80096e-05
5.12502e-05
4.60019e-05
4.13403e-05
3.74086e-05
3.37867e-05
3.05926e-05
2.76413e-05
2.50167e-05
2.26559e-05
2.06291e-05
1.89491e-05
1.76895e-05
1.68992e-05
0.000117921
0.000116235
9.59914e-05
8.08239e-05
6.91362e-05
6.04799e-05
5.34057e-05
4.78738e-05
4.30611e-05
3.90343e-05
3.54024e-05
3.22348e-05
2.93619e-05
2.68391e-05
2.46102e-05
2.27255e-05
2.11913e-05
2.00581e-05
1.93569e-05
0.000111277
0.000108842
9.3372e-05
8.03311e-05
7.01744e-05
6.20158e-05
5.52597e-05
4.97e-05
4.48922e-05
4.08007e-05
3.71681e-05
3.40076e-05
3.11914e-05
2.87442e-05
2.66189e-05
2.48446e-05
2.34227e-05
2.23844e-05
2.17487e-05
0.000106307
0.000106307
9.30375e-05
8.11644e-05
7.15854e-05
6.35576e-05
5.6887e-05
5.13048e-05
4.65119e-05
4.24213e-05
3.88324e-05
3.57215e-05
3.29855e-05
3.06249e-05
2.86014e-05
2.69276e-05
2.56016e-05
2.4641e-05
2.40574e-05
0.0001026
0.0001026
9.09826e-05
8.04559e-05
7.181e-05
6.43105e-05
5.80286e-05
5.26194e-05
4.79761e-05
4.39558e-05
4.04512e-05
3.74058e-05
3.4753e-05
3.24738e-05
3.054e-05
2.89512e-05
2.77041e-05
2.68061e-05
2.62638e-05
9.97434e-05
9.97434e-05
8.95437e-05
8.01613e-05
7.21588e-05
6.50852e-05
5.9066e-05
5.38229e-05
4.93088e-05
4.53815e-05
4.19703e-05
3.90064e-05
3.64418e-05
3.42464e-05
3.23978e-05
3.08866e-05
2.97085e-05
2.88637e-05
2.83558e-05
9.73766e-05
9.73766e-05
8.80149e-05
7.94603e-05
7.20516e-05
6.54417e-05
5.97639e-05
5.47598e-05
5.04352e-05
4.66444e-05
4.33551e-05
4.04914e-05
3.80234e-05
3.59143e-05
3.41477e-05
3.27085e-05
3.15921e-05
3.07941e-05
3.03157e-05
9.48463e-05
9.48463e-05
8.64333e-05
7.87041e-05
7.18562e-05
6.56972e-05
6.03276e-05
5.55651e-05
5.1423e-05
4.77794e-05
4.46149e-05
4.18581e-05
3.94874e-05
3.74647e-05
3.57765e-05
3.44048e-05
3.33444e-05
3.25882e-05
3.2136e-05
9.30611e-05
9.30611e-05
8.51825e-05
7.79788e-05
7.15491e-05
6.57617e-05
6.06836e-05
5.61636e-05
5.22175e-05
4.8736e-05
4.57092e-05
4.30699e-05
4.08027e-05
3.88699e-05
3.72603e-05
3.59548e-05
3.49479e-05
3.4231e-05
3.38029e-05
9.08708e-05
9.08708e-05
8.36335e-05
7.70057e-05
7.10328e-05
6.56381e-05
6.08614e-05
5.65953e-05
5.285e-05
4.95385e-05
4.66528e-05
4.41347e-05
4.19717e-05
4.01289e-05
3.85962e-05
3.73546e-05
3.63983e-05
3.57184e-05
3.53127e-05
8.93174e-05
8.93174e-05
8.24455e-05
7.61747e-05
7.05224e-05
6.54262e-05
6.09036e-05
5.68643e-05
5.33106e-05
5.01668e-05
4.74242e-05
4.50308e-05
4.29748e-05
4.12241e-05
3.9769e-05
3.85913e-05
3.76852e-05
3.70415e-05
3.66576e-05
8.73048e-05
8.73048e-05
8.08871e-05
7.50359e-05
6.97527e-05
6.49861e-05
6.074e-05
5.69432e-05
5.35914e-05
5.06233e-05
4.80286e-05
4.57633e-05
4.38158e-05
4.21579e-05
4.07801e-05
3.96657e-05
3.88086e-05
3.82001e-05
3.78373e-05
8.57653e-05
8.57653e-05
7.95959e-05
7.4008e-05
6.899e-05
6.44791e-05
6.04641e-05
5.688e-05
5.37146e-05
5.09137e-05
4.84639e-05
4.6326e-05
4.44877e-05
4.29235e-05
4.16236e-05
4.05728e-05
3.97648e-05
3.91914e-05
3.88496e-05
8.37388e-05
8.37388e-05
7.79205e-05
7.2667e-05
6.79614e-05
6.37377e-05
5.99771e-05
5.66215e-05
5.3654e-05
5.10281e-05
4.87284e-05
4.67215e-05
4.49945e-05
4.35251e-05
4.23036e-05
4.13166e-05
4.05576e-05
4.00191e-05
3.9698e-05
8.1984e-05
8.1984e-05
7.63775e-05
7.13582e-05
6.68951e-05
6.29096e-05
5.93718e-05
5.62236e-05
5.34418e-05
5.09835e-05
4.88308e-05
4.69534e-05
4.53376e-05
4.39634e-05
4.28211e-05
4.18982e-05
4.11885e-05
4.06852e-05
4.03851e-05
7.97858e-05
7.97858e-05
7.44791e-05
6.97579e-05
6.55829e-05
6.18654e-05
5.85709e-05
5.56435e-05
5.3057e-05
5.07726e-05
4.87713e-05
4.70263e-05
4.55239e-05
4.42462e-05
4.31837e-05
4.23255e-05
4.16653e-05
4.11972e-05
4.09179e-05
7.75285e-05
7.75285e-05
7.25018e-05
6.80629e-05
6.41559e-05
6.06928e-05
5.76315e-05
5.4918e-05
5.25225e-05
5.04098e-05
4.85593e-05
4.69468e-05
4.55583e-05
4.43778e-05
4.3396e-05
4.2603e-05
4.1993e-05
4.15604e-05
4.13026e-05
7.51136e-05
7.51136e-05
7.03574e-05
6.61948e-05
6.25615e-05
5.93573e-05
5.65353e-05
5.40403e-05
5.18408e-05
4.99028e-05
4.82055e-05
4.67268e-05
4.54534e-05
4.43709e-05
4.34703e-05
4.2743e-05
4.21833e-05
4.17864e-05
4.15493e-05
7.21127e-05
7.21127e-05
6.78156e-05
6.40485e-05
6.075e-05
5.78405e-05
5.5276e-05
5.30098e-05
5.1012e-05
4.92526e-05
4.77116e-05
4.63695e-05
4.52132e-05
4.42302e-05
4.34121e-05
4.2751e-05
4.22422e-05
4.18814e-05
4.16669e-05
6.95306e-05
6.95306e-05
6.5466e-05
6.19567e-05
5.89171e-05
5.62588e-05
5.39291e-05
5.18793e-05
5.00764e-05
4.84917e-05
4.71047e-05
4.58977e-05
4.48579e-05
4.3974e-05
4.32382e-05
4.26439e-05
4.21865e-05
4.18621e-05
4.1667e-05
6.58992e-05
6.58992e-05
6.24368e-05
5.94154e-05
5.67713e-05
5.44465e-05
5.23994e-05
5.05942e-05
4.90034e-05
4.76038e-05
4.63776e-05
4.53098e-05
4.43892e-05
4.36063e-05
4.29543e-05
4.24274e-05
4.20215e-05
4.17333e-05
4.15606e-05
6.30604e-05
6.30604e-05
5.9871e-05
5.71218e-05
5.47403e-05
5.26667e-05
5.08536e-05
4.92637e-05
4.78675e-05
4.66425e-05
4.55706e-05
4.46382e-05
4.38344e-05
4.31508e-05
4.25811e-05
4.21206e-05
4.17655e-05
4.15133e-05
4.1363e-05
5.9266e-05
5.9266e-05
5.66458e-05
5.43765e-05
5.23961e-05
5.06625e-05
4.91385e-05
4.77978e-05
4.6617e-05
4.55789e-05
4.46689e-05
4.38761e-05
4.31919e-05
4.26095e-05
4.21236e-05
4.17303e-05
4.14268e-05
4.12115e-05
4.10833e-05
5.61623e-05
5.61623e-05
5.38795e-05
5.19172e-05
5.02164e-05
4.87412e-05
4.74536e-05
4.63283e-05
4.53414e-05
4.44765e-05
4.37197e-05
4.30609e-05
4.2492e-05
4.20074e-05
4.1603e-05
4.12756e-05
4.10229e-05
4.08436e-05
4.07367e-05
5.24914e-05
5.24914e-05
5.06904e-05
4.91503e-05
4.78161e-05
4.66601e-05
4.56497e-05
4.47656e-05
4.39887e-05
4.33068e-05
4.27086e-05
4.21869e-05
4.17357e-05
4.13506e-05
4.10284e-05
4.07669e-05
4.05649e-05
4.04213e-05
4.03357e-05
4.92834e-05
4.92834e-05
4.78376e-05
4.66161e-05
4.55687e-05
4.46728e-05
4.38975e-05
4.32257e-05
4.26388e-05
4.2126e-05
4.16769e-05
4.12853e-05
4.0946e-05
4.06559e-05
4.04128e-05
4.02153e-05
4.00624e-05
3.99536e-05
3.98886e-05
4.58338e-05
4.58338e-05
4.47942e-05
4.39382e-05
4.32175e-05
4.2612e-05
4.20936e-05
4.16482e-05
4.12603e-05
4.09217e-05
4.06244e-05
4.03643e-05
4.01377e-05
3.99429e-05
3.97785e-05
3.96441e-05
3.95396e-05
3.9465e-05
3.94202e-05
4.26867e-05
4.26867e-05
4.19869e-05
4.14377e-05
4.09952e-05
4.06411e-05
4.03493e-05
4.01073e-05
3.9901e-05
3.97234e-05
3.95676e-05
3.94308e-05
3.93104e-05
3.92056e-05
3.9116e-05
3.9042e-05
3.89837e-05
3.89418e-05
3.89165e-05
3.95028e-05
3.95028e-05
3.91525e-05
3.89239e-05
3.87735e-05
3.86822e-05
3.86256e-05
3.85925e-05
3.85707e-05
3.85553e-05
3.85412e-05
3.8527e-05
3.85116e-05
3.84956e-05
3.84794e-05
3.84643e-05
3.84512e-05
3.8441e-05
3.84346e-05
3.65276e-05
3.65276e-05
3.65496e-05
3.66599e-05
3.6804e-05
3.69591e-05
3.71151e-05
3.72616e-05
3.73947e-05
3.75108e-05
3.76099e-05
3.7692e-05
3.77583e-05
3.78105e-05
3.78504e-05
3.78794e-05
3.78991e-05
3.79105e-05
3.79105e-05
3.36456e-05
3.3921e-05
3.42664e-05
3.46409e-05
3.50231e-05
3.53917e-05
3.57372e-05
3.60513e-05
3.63314e-05
3.6576e-05
3.6786e-05
3.6963e-05
3.71095e-05
3.72279e-05
3.73208e-05
3.73905e-05
3.74389e-05
3.74673e-05
3.74673e-05
3.0916e-05
3.14832e-05
3.20938e-05
3.27081e-05
3.33048e-05
3.38649e-05
3.43802e-05
3.48443e-05
3.52562e-05
3.56156e-05
3.59253e-05
3.61876e-05
3.64062e-05
3.65843e-05
3.67252e-05
3.68317e-05
3.69061e-05
3.695e-05
3.695e-05
2.8382e-05
2.92382e-05
3.01134e-05
3.09674e-05
3.17783e-05
3.25286e-05
3.32118e-05
3.38233e-05
3.43639e-05
3.48352e-05
3.52412e-05
3.55857e-05
3.58734e-05
3.61085e-05
3.6295e-05
3.64362e-05
3.65352e-05
3.65937e-05
3.65937e-05
2.5967e-05
2.70966e-05
2.82147e-05
2.92836e-05
3.02827e-05
3.11981e-05
3.20255e-05
3.27628e-05
3.34131e-05
3.39795e-05
3.44676e-05
3.48823e-05
3.52293e-05
3.55134e-05
3.57393e-05
3.59108e-05
3.60311e-05
3.61025e-05
3.61025e-05
2.38597e-05
2.52638e-05
2.66243e-05
2.79059e-05
2.90907e-05
3.01682e-05
3.11366e-05
3.19966e-05
3.27531e-05
3.34111e-05
3.39776e-05
3.44587e-05
3.48612e-05
3.51907e-05
3.54529e-05
3.5652e-05
3.57916e-05
3.58742e-05
3.58742e-05
2.18603e-05
2.3514e-05
2.5085e-05
2.65447e-05
2.78804e-05
2.90867e-05
3.01653e-05
3.11202e-05
3.19584e-05
3.2687e-05
3.33143e-05
3.38476e-05
3.42943e-05
3.46608e-05
3.49527e-05
3.51747e-05
3.53309e-05
3.54238e-05
3.54238e-05
2.03172e-05
2.22157e-05
2.39906e-05
2.5622e-05
2.71032e-05
2.84339e-05
2.96192e-05
3.06659e-05
3.15829e-05
3.23789e-05
3.3063e-05
3.36438e-05
3.41295e-05
3.45273e-05
3.48436e-05
3.5084e-05
3.52532e-05
3.53539e-05
3.53539e-05
1.88993e-05
2.09888e-05
2.29128e-05
2.46631e-05
2.62406e-05
2.76506e-05
2.89021e-05
3.00048e-05
3.09694e-05
3.18066e-05
3.25269e-05
3.31394e-05
3.36529e-05
3.40749e-05
3.4412e-05
3.46687e-05
3.4849e-05
3.49557e-05
3.49557e-05
1.81172e-05
2.03703e-05
2.24235e-05
2.42789e-05
2.59438e-05
2.74278e-05
2.87424e-05
2.98991e-05
3.091e-05
3.17866e-05
3.25399e-05
3.31799e-05
3.37156e-05
3.4155e-05
3.45053e-05
3.47721e-05
3.49596e-05
3.50706e-05
3.50706e-05
1.74588e-05
1.97718e-05
2.1866e-05
2.37509e-05
2.54379e-05
2.6939e-05
2.82673e-05
2.94354e-05
3.04559e-05
3.13407e-05
3.21009e-05
3.27467e-05
3.32875e-05
3.37312e-05
3.40846e-05
3.43533e-05
3.45421e-05
3.46541e-05
3.46541e-05
)
;

boundaryField
{
    leftWall
    {
        type            calculated;
        value           uniform 0;
    }
    rightWall
    {
        type            calculated;
        value           uniform 0;
    }
    lowerWall
    {
        type            calculated;
        value           uniform 0;
    }
    atmosphere
    {
        type            calculated;
        value           uniform 0;
    }
    defaultFaces
    {
        type            empty;
    }
}


// ************************************************************************* //
