/*--------------------------------*- C++ -*----------------------------------*\
| =========                 |                                                 |
| \\      /  F ield         | OpenFOAM: The Open Source CFD Toolbox           |
|  \\    /   O peration     | Version:  2012                                  |
|   \\  /    A nd           | Website:  www.openfoam.com                      |
|    \\/     M anipulation  |                                                 |
\*---------------------------------------------------------------------------*/
FoamFile
{
    version     2.0;
    format      ascii;
    class       surfaceScalarField;
    location    "0.06";
    object      phi;
}
// * * * * * * * * * * * * * * * * * * * * * * * * * * * * * * * * * * * * * //

dimensions      [0 3 -1 0 0 0 0];
oriented        oriented;


internalField   nonuniform List<scalar> 
4432
(
3.74505e-06
-3.74505e-06
7.52926e-06
-3.78422e-06
1.1429e-05
-3.89976e-06
1.54555e-05
-4.02654e-06
1.97365e-05
-4.28093e-06
2.42744e-05
-4.53791e-06
2.92457e-05
-4.97132e-06
3.47179e-05
-5.47223e-06
4.08966e-05
-6.17865e-06
4.80203e-05
-7.12372e-06
5.642e-05
-8.39969e-06
6.76823e-05
-1.12624e-05
8.13368e-05
-1.36545e-05
9.39445e-05
-1.2572e-05
0.000104397
-1.04487e-05
0.000115292
-1.08691e-05
0.000121682
-6.37337e-06
0.000110987
1.06953e-05
8.19367e-05
2.90505e-05
5.44159e-05
2.75207e-05
3.42666e-05
2.01491e-05
1.67439e-05
1.75225e-05
1.67437e-05
3.73422e-06
-7.47928e-06
7.50735e-06
-7.55736e-06
1.13942e-05
-7.78662e-06
1.54066e-05
-8.03896e-06
1.96696e-05
-8.54392e-06
2.41852e-05
-9.05348e-06
2.91277e-05
-9.91385e-06
3.45612e-05
-1.09057e-05
4.06769e-05
-1.22944e-05
4.77684e-05
-1.42153e-05
5.59993e-05
-1.66306e-05
6.66308e-05
-2.18939e-05
7.91525e-05
-2.61762e-05
9.18746e-05
-2.52941e-05
0.000104302
-2.28625e-05
0.00011577
-2.22883e-05
0.000117916
-8.50885e-06
0.000101987
2.66244e-05
7.52902e-05
5.57475e-05
5.21911e-05
5.06198e-05
3.37002e-05
3.86399e-05
1.66347e-05
3.45878e-05
3.33782e-05
3.71259e-06
-1.11919e-05
7.46354e-06
-1.13083e-05
1.13246e-05
-1.16477e-05
1.53089e-05
-1.20233e-05
1.95356e-05
-1.27706e-05
2.40073e-05
-1.35252e-05
2.88896e-05
-1.47962e-05
3.42479e-05
-1.6264e-05
4.02396e-05
-1.82861e-05
4.72033e-05
-2.1179e-05
5.51752e-05
-2.46025e-05
6.50702e-05
-3.17889e-05
7.65722e-05
-3.76782e-05
8.90172e-05
-3.77382e-05
0.000102754
-3.65491e-05
0.000114766
-3.42526e-05
0.000111108
-4.84608e-06
8.84939e-05
4.92382e-05
6.46674e-05
7.95742e-05
4.71645e-05
6.81227e-05
3.15869e-05
5.42174e-05
1.60339e-05
5.01407e-05
4.9412e-05
3.68066e-06
-1.48725e-05
7.39898e-06
-1.50266e-05
1.1222e-05
-1.54706e-05
1.51657e-05
-1.59671e-05
1.93384e-05
-1.69433e-05
2.37475e-05
-1.79343e-05
2.85399e-05
-1.95886e-05
3.37896e-05
-2.15137e-05
3.96071e-05
-2.41036e-05
4.63456e-05
-2.79175e-05
5.3966e-05
-3.22229e-05
6.30488e-05
-4.08717e-05
7.34788e-05
-4.81083e-05
8.53898e-05
-4.96434e-05
9.88137e-05
-4.98919e-05
0.000108932
-4.43398e-05
9.81629e-05
5.92458e-06
7.26466e-05
7.47545e-05
5.60758e-05
9.61452e-05
4.34549e-05
8.07436e-05
2.99997e-05
6.76726e-05
1.54793e-05
6.4661e-05
6.48912e-05
3.63833e-06
-1.85109e-05
7.31339e-06
-1.87017e-05
1.10859e-05
-1.92431e-05
1.4976e-05
-1.98572e-05
1.90767e-05
-2.1044e-05
2.34051e-05
-2.22628e-05
2.80781e-05
-2.42615e-05
3.31852e-05
-2.66208e-05
3.87902e-05
-2.97086e-05
4.52066e-05
-3.4334e-05
5.24138e-05
-3.94301e-05
6.06546e-05
-4.91124e-05
7.00577e-05
-5.75114e-05
8.15441e-05
-6.1113e-05
9.39205e-05
-6.21797e-05
9.8338e-05
-4.87413e-05
8.10703e-05
2.31933e-05
5.92424e-05
9.65826e-05
5.01073e-05
0.000105281
4.0905e-05
8.9946e-05
2.96661e-05
7.89115e-05
1.60954e-05
7.82317e-05
8.09866e-05
3.58684e-06
-2.20977e-05
7.20945e-06
-2.23243e-05
1.09208e-05
-2.29545e-05
1.47468e-05
-2.36832e-05
1.87608e-05
-2.5058e-05
2.29951e-05
-2.64971e-05
2.75275e-05
-2.8794e-05
3.24645e-05
-3.15578e-05
3.78312e-05
-3.50753e-05
4.38589e-05
-4.03616e-05
5.06092e-05
-4.61805e-05
5.79546e-05
-5.64577e-05
6.63512e-05
-6.57091e-05
7.72165e-05
-7.19493e-05
8.76041e-05
-7.24813e-05
8.48385e-05
-4.59691e-05
6.39506e-05
4.40818e-05
4.93259e-05
0.000111208
4.44807e-05
0.000110126
3.72968e-05
9.71301e-05
2.75625e-05
8.8646e-05
1.48825e-05
9.09118e-05
9.58693e-05
3.52537e-06
-2.56231e-05
7.08522e-06
-2.58842e-05
1.07236e-05
-2.65928e-05
1.44726e-05
-2.74322e-05
1.83831e-05
-2.89685e-05
2.25056e-05
-3.06195e-05
2.6871e-05
-3.31594e-05
3.16029e-05
-3.62897e-05
3.6695e-05
-4.01674e-05
4.22807e-05
-4.59473e-05
4.85146e-05
-5.24143e-05
5.49515e-05
-6.28947e-05
6.22656e-05
-7.30233e-05
7.15027e-05
-8.11025e-05
7.96386e-05
-8.05481e-05
7.09725e-05
-3.73003e-05
5.0917e-05
6.41378e-05
4.35864e-05
0.000118538
4.13716e-05
0.000112341
3.67072e-05
0.000101795
2.95585e-05
9.57948e-05
1.7656e-05
0.000102814
0.000113525
3.45523e-06
-2.90783e-05
6.94361e-06
-2.93726e-05
1.04994e-05
-3.01487e-05
1.4162e-05
-3.10948e-05
1.79578e-05
-3.27644e-05
2.19567e-05
-3.46185e-05
2.6145e-05
-3.73477e-05
3.0659e-05
-4.08037e-05
3.54716e-05
-4.49801e-05
4.06261e-05
-5.11019e-05
4.63183e-05
-5.81065e-05
5.19203e-05
-6.84966e-05
5.81344e-05
-7.92376e-05
6.48777e-05
-8.77232e-05
7.09931e-05
-8.66086e-05
5.86192e-05
-2.49252e-05
4.10806e-05
8.16769e-05
3.86479e-05
0.000120971
3.76323e-05
0.000113357
3.45683e-05
0.000104859
2.9079e-05
0.000101284
1.80909e-05
0.000113803
0.000131617
2.67176e-06
-2.67164e-06
5.79252e-06
-3.12065e-06
7.46948e-06
-1.67685e-06
8.60665e-06
-1.13706e-06
8.93184e-06
-3.25075e-07
8.89284e-06
3.91053e-08
8.52471e-06
3.68246e-07
7.99139e-06
5.33418e-07
7.34092e-06
6.50553e-07
6.6336e-06
7.07402e-07
5.89519e-06
7.38505e-07
5.14516e-06
7.50131e-07
4.39355e-06
7.51719e-07
3.64613e-06
7.47511e-07
2.90533e-06
7.40897e-07
2.17152e-06
7.33899e-07
1.44393e-06
7.27707e-07
7.20751e-07
7.23235e-07
7.20865e-07
2.59014e-06
-5.26167e-06
5.84361e-06
-6.374e-06
7.55623e-06
-3.38934e-06
8.67468e-06
-2.25539e-06
8.99204e-06
-6.42322e-07
8.93144e-06
9.98156e-08
8.54967e-06
7.50113e-07
8.00586e-06
1.0773e-06
7.34978e-06
1.30672e-06
6.63804e-06
1.41923e-06
5.89698e-06
1.47968e-06
5.14524e-06
1.50197e-06
4.39275e-06
1.50432e-06
3.64493e-06
1.4954e-06
2.9041e-06
1.48185e-06
2.17044e-06
1.46763e-06
1.44315e-06
1.45511e-06
7.20339e-07
1.44607e-06
1.44135e-06
2.853e-06
-8.11456e-06
6.27735e-06
-9.79823e-06
7.98127e-06
-5.09313e-06
8.99852e-06
-3.27253e-06
9.21849e-06
-8.62176e-07
9.07567e-06
2.42741e-07
8.63743e-06
1.18846e-06
8.05654e-06
1.65828e-06
7.37831e-06
1.98506e-06
6.65257e-06
2.14508e-06
5.90345e-06
2.22892e-06
5.14693e-06
2.25858e-06
4.39196e-06
2.25941e-06
3.6429e-06
2.24456e-06
2.90174e-06
2.22314e-06
2.16828e-06
2.20116e-06
1.44155e-06
2.18196e-06
7.19504e-07
2.16821e-06
2.161e-06
2.51169e-06
-1.06261e-05
6.38241e-06
-1.36688e-05
8.24989e-06
-6.96048e-06
9.20675e-06
-4.22926e-06
9.38923e-06
-1.04455e-06
9.17974e-06
4.52339e-07
8.71038e-06
1.65793e-06
8.09792e-06
2.27085e-06
7.40263e-06
2.68046e-06
6.66418e-06
2.88364e-06
5.90763e-06
2.98559e-06
5.14642e-06
3.01989e-06
4.38907e-06
3.01687e-06
3.63898e-06
2.99475e-06
2.89779e-06
2.96446e-06
2.16487e-06
2.93414e-06
1.4391e-06
2.90787e-06
7.18232e-07
2.88917e-06
2.87933e-06
3.23998e-06
-1.3866e-05
7.45277e-06
-1.78815e-05
9.17431e-06
-8.6819e-06
9.88101e-06
-4.93585e-06
9.83275e-06
-9.96181e-07
9.45816e-06
8.27024e-07
8.87885e-06
2.23736e-06
8.19394e-06
2.95587e-06
7.45564e-06
3.41887e-06
6.69049e-06
3.6489e-06
5.91872e-06
3.75746e-06
5.14855e-06
3.79016e-06
4.38664e-06
3.7789e-06
3.63441e-06
3.74708e-06
2.89279e-06
3.70619e-06
2.16042e-06
3.66657e-06
1.43585e-06
3.63258e-06
7.16521e-07
3.60857e-06
3.59594e-06
2.41383e-06
-1.62797e-05
7.57213e-06
-2.30396e-05
9.70048e-06
-1.08101e-05
1.02335e-05
-5.4688e-06
1.01063e-05
-8.68845e-07
9.61437e-06
1.31902e-06
8.98363e-06
2.86821e-06
8.25167e-06
3.68795e-06
7.48768e-06
4.18297e-06
6.70413e-06
4.43253e-06
5.92185e-06
4.53984e-06
5.14523e-06
4.56686e-06
4.38022e-06
4.54404e-06
3.62683e-06
4.50057e-06
2.8855e-06
4.44761e-06
2.1543e-06
4.39785e-06
1.4315e-06
4.35553e-06
7.14263e-07
4.32586e-06
4.31033e-06
5.26257e-06
-2.15421e-05
9.90284e-06
-2.76798e-05
1.12848e-05
-1.2192e-05
1.12773e-05
-5.46122e-06
1.07475e-05
-3.38902e-07
1.00019e-05
2.06465e-06
9.20946e-06
3.6608e-06
8.37876e-06
4.51876e-06
7.55607e-06
5.00576e-06
6.73671e-06
5.25198e-06
5.93407e-06
5.34258e-06
5.14564e-06
5.35538e-06
4.37474e-06
5.31505e-06
3.61881e-06
5.25658e-06
2.87726e-06
5.18926e-06
2.14718e-06
5.12802e-06
1.42635e-06
5.07648e-06
7.11581e-07
5.04072e-06
5.02205e-06
1.06393e-05
-3.21813e-05
1.17656e-05
-2.8806e-05
1.26009e-05
-1.30272e-05
1.17852e-05
-4.64539e-06
1.10921e-05
3.54291e-07
1.01809e-05
2.9759e-06
9.31935e-06
4.5225e-06
8.43524e-06
5.40297e-06
7.5833e-06
5.85779e-06
6.74431e-06
6.09105e-06
5.93071e-06
6.15628e-06
5.13601e-06
6.15019e-06
4.36248e-06
6.08868e-06
3.60609e-06
6.01304e-06
2.86572e-06
5.92974e-06
2.13778e-06
5.85605e-06
1.41976e-06
5.7946e-06
7.08206e-07
5.75239e-06
5.73035e-06
7.09739e-06
-3.61757e-05
1.42607e-05
-3.65359e-05
2.15309e-05
-3.74188e-05
2.90131e-05
-3.8577e-05
3.66915e-05
-4.04428e-05
4.47617e-05
-4.26887e-05
5.30851e-05
-4.56711e-05
6.19681e-05
-4.96866e-05
7.12714e-05
-5.42834e-05
8.09513e-05
-6.07817e-05
9.12659e-05
-6.84211e-05
0.000100953
-7.81838e-05
0.000111081
-8.93599e-05
0.000120284
-9.66284e-05
0.000128941
-9.51764e-05
9.84712e-05
5.54695e-06
7.14755e-05
0.000108674
7.47391e-05
0.000117709
7.61516e-05
0.000111945
7.87808e-05
0.00010223
8.1729e-05
9.83367e-05
9.47743e-05
0.000100758
0.000109578
0.000116814
6.6835e-06
-4.28593e-05
1.34231e-05
-4.32756e-05
2.02217e-05
-4.42174e-05
2.71983e-05
-4.55537e-05
3.42649e-05
-4.75094e-05
4.16417e-05
-5.00655e-05
4.90985e-05
-5.31279e-05
5.69326e-05
-5.75207e-05
6.48928e-05
-6.22436e-05
7.29261e-05
-6.88151e-05
8.1014e-05
-7.6509e-05
8.83319e-05
-8.55017e-05
9.53292e-05
-9.63291e-05
0.000100361
-0.000101355
0.000102077
-9.68355e-05
7.1462e-05
3.61639e-05
5.83363e-05
0.0001218
6.42381e-05
0.000111808
6.72466e-05
0.000108937
7.14038e-05
9.80738e-05
7.56537e-05
9.40872e-05
8.99397e-05
8.64727e-05
8.69948e-05
0.000112524
6.22978e-06
-4.9089e-05
1.25038e-05
-4.95496e-05
1.8797e-05
-5.05106e-05
2.52265e-05
-5.19832e-05
3.16634e-05
-5.39463e-05
3.83175e-05
-5.67196e-05
4.49269e-05
-5.97374e-05
5.1741e-05
-6.43348e-05
5.84481e-05
-6.89508e-05
6.50488e-05
-7.54157e-05
7.12566e-05
-8.27169e-05
7.67333e-05
-9.09784e-05
8.1294e-05
-0.000100826
8.38259e-05
-0.000103612
7.49701e-05
-8.7948e-05
4.989e-05
6.12455e-05
4.99253e-05
0.000121766
5.58394e-05
0.000105894
6.05872e-05
0.00010419
6.52874e-05
9.33742e-05
7.05074e-05
8.88676e-05
7.89262e-05
7.80544e-05
7.46859e-05
9.12356e-05
5.74895e-06
-5.4838e-05
1.1529e-05
-5.53296e-05
1.72988e-05
-5.62805e-05
2.31601e-05
-5.78445e-05
2.89721e-05
-5.97583e-05
3.49099e-05
-6.26574e-05
4.07283e-05
-6.55558e-05
4.6601e-05
-7.02076e-05
5.22238e-05
-7.45735e-05
5.76266e-05
-8.08186e-05
6.23919e-05
-8.74821e-05
6.65197e-05
-9.51062e-05
6.94668e-05
-0.000103666
7.10623e-05
-0.000104972
5.22994e-05
-6.91698e-05
3.48425e-05
7.87036e-05
4.23162e-05
0.000114292
4.70087e-05
0.000101203
5.23005e-05
9.88989e-05
5.65405e-05
8.91348e-05
6.11783e-05
8.42304e-05
6.55694e-05
7.36637e-05
6.75629e-05
7.26928e-05
5.25199e-06
-6.009e-05
1.05223e-05
-6.06e-05
1.5763e-05
-6.15211e-05
2.10524e-05
-6.31339e-05
2.62577e-05
-6.49636e-05
3.15083e-05
-6.7908e-05
3.65994e-05
-7.06469e-05
4.16196e-05
-7.52278e-05
4.63156e-05
-7.92695e-05
5.07174e-05
-8.52204e-05
5.43853e-05
-9.11501e-05
5.74958e-05
-9.82167e-05
5.93612e-05
-0.000105378
6.02106e-05
-0.000105631
3.66635e-05
-4.56152e-05
2.65736e-05
8.87946e-05
3.61503e-05
0.000104716
4.02231e-05
9.71307e-05
4.57512e-05
9.33713e-05
4.94452e-05
8.54415e-05
5.34804e-05
8.01957e-05
5.60527e-05
7.10919e-05
6.45576e-05
5.90584e-05
4.76117e-06
-6.48512e-05
9.52859e-06
-6.53674e-05
1.42532e-05
-6.62457e-05
1.89877e-05
-6.78685e-05
2.36176e-05
-6.95935e-05
2.82253e-05
-7.25157e-05
3.26538e-05
-7.50754e-05
3.69192e-05
-7.94932e-05
4.08359e-05
-8.31861e-05
4.44238e-05
-8.88084e-05
4.7273e-05
-9.39992e-05
4.96531e-05
-0.000100597
5.08822e-05
-0.000106417
5.13361e-05
-0.000105926
2.7585e-05
-2.18598e-05
2.25305e-05
9.385e-05
3.0606e-05
9.66412e-05
3.39987e-05
9.37387e-05
3.89536e-05
8.84169e-05
4.19049e-05
8.24907e-05
4.53458e-05
7.67553e-05
4.72933e-05
6.91448e-05
6.2517e-05
4.93344e-05
4.26542e-06
-6.91166e-05
8.52819e-06
-6.96302e-05
1.27437e-05
-7.04612e-05
1.69407e-05
-7.20655e-05
2.10289e-05
-7.36818e-05
2.50465e-05
-7.65333e-05
2.88821e-05
-7.8911e-05
3.25022e-05
-8.31134e-05
3.5777e-05
-8.64609e-05
3.87122e-05
-9.17437e-05
4.095e-05
-9.6237e-05
4.2778e-05
-0.000102425
4.36171e-05
-0.000107046
4.38163e-05
-0.00010599
2.18949e-05
6.45844e-08
1.99962e-05
9.57495e-05
2.63133e-05
9.03247e-05
2.9164e-05
9.08887e-05
3.34682e-05
8.41133e-05
3.59797e-05
7.99798e-05
3.88042e-05
7.39313e-05
4.01951e-05
6.77544e-05
6.14961e-05
4.12163e-05
3.80561e-06
-7.29222e-05
7.5998e-06
-7.34244e-05
1.13412e-05
-7.42026e-05
1.50386e-05
-7.57629e-05
1.86227e-05
-7.7266e-05
2.20989e-05
-8.00094e-05
2.53913e-05
-8.22035e-05
2.84449e-05
-8.6167e-05
3.1165e-05
-8.9181e-05
3.35608e-05
-9.41395e-05
3.53276e-05
-9.80039e-05
3.67453e-05
-0.000103843
3.73806e-05
-0.000107458
3.73147e-05
-0.00010581
1.79151e-05
1.94665e-05
1.77406e-05
9.59248e-05
2.22282e-05
8.58378e-05
2.46376e-05
8.84799e-05
2.80231e-05
8.07284e-05
3.01041e-05
7.78993e-05
3.23911e-05
7.16448e-05
3.36475e-05
6.64984e-05
6.05677e-05
3.45763e-05
3.32776e-06
-7.625e-05
6.64181e-06
-7.67384e-05
9.90913e-06
-7.74699e-05
1.31244e-05
-7.89782e-05
1.62393e-05
-8.03808e-05
1.92329e-05
-8.30031e-05
2.20576e-05
-8.50282e-05
2.46464e-05
-8.87557e-05
2.69265e-05
-9.14611e-05
2.89041e-05
-9.61171e-05
3.03253e-05
-9.94251e-05
3.1422e-05
-0.000104939
3.19158e-05
-0.000107722
3.154e-05
-0.00010534
1.50885e-05
3.59197e-05
1.53028e-05
9.57112e-05
1.85339e-05
8.26075e-05
2.05412e-05
8.64732e-05
2.32754e-05
7.79949e-05
2.51027e-05
7.60725e-05
2.69521e-05
6.97959e-05
2.8009e-05
6.54419e-05
5.99019e-05
2.86753e-05
2.92142e-06
-7.91714e-05
5.82287e-06
-7.96399e-05
8.67229e-06
-8.03194e-05
1.14548e-05
-8.17607e-05
1.41341e-05
-8.30601e-05
1.66768e-05
-8.55458e-05
1.90542e-05
-8.74055e-05
2.12064e-05
-9.09079e-05
2.30717e-05
-9.33264e-05
2.46724e-05
-9.77178e-05
2.57907e-05
-0.000100543
2.66466e-05
-0.000105795
2.70297e-05
-0.000107878
2.59571e-05
-0.000104191
1.19837e-05
4.98944e-05
1.26277e-05
9.5068e-05
1.4849e-05
8.0387e-05
1.66726e-05
8.46502e-05
1.87004e-05
7.59677e-05
2.02611e-05
7.45122e-05
2.17379e-05
6.83197e-05
2.2745e-05
6.44353e-05
5.92216e-05
2.34258e-05
2.4618e-06
-8.16332e-05
4.90748e-06
-8.20856e-05
7.31369e-06
-8.27256e-05
9.66259e-06
-8.41096e-05
1.19301e-05
-8.53277e-05
1.40725e-05
-8.76882e-05
1.60756e-05
-8.94086e-05
1.78825e-05
-9.27149e-05
1.94414e-05
-9.48852e-05
2.07724e-05
-9.90488e-05
2.16923e-05
-0.000101463
2.23664e-05
-0.000106469
2.26978e-05
-0.00010799
2.01856e-05
-0.000101618
8.79279e-06
6.12884e-05
9.29406e-06
9.45674e-05
1.08774e-05
7.88045e-05
1.25772e-05
8.29509e-05
1.42253e-05
7.43203e-05
1.57807e-05
7.29574e-05
1.70388e-05
6.70621e-05
1.80478e-05
6.34267e-05
5.85722e-05
1.86977e-05
2.12178e-06
-8.3755e-05
4.21976e-06
-8.41835e-05
6.26891e-06
-8.47747e-05
8.24455e-06
-8.60852e-05
1.01278e-05
-8.72109e-05
1.1878e-05
-8.94385e-05
1.34899e-05
-9.10206e-05
1.49273e-05
-9.41523e-05
1.61425e-05
-9.61005e-05
1.71831e-05
-0.000100089
1.78809e-05
-0.000102161
1.84198e-05
-0.000107008
1.87171e-05
-0.000108083
1.34879e-05
-9.63423e-05
4.40834e-06
7.03691e-05
6.56758e-06
9.24089e-05
7.47164e-06
7.79012e-05
9.14692e-06
8.12763e-05
1.01725e-05
7.32954e-05
1.15093e-05
7.16212e-05
1.25193e-05
6.60526e-05
1.34854e-05
6.24611e-05
5.78824e-05
1.41756e-05
1.68258e-06
-8.54376e-05
3.35064e-06
-8.58516e-05
4.98801e-06
-8.64121e-05
6.57639e-06
-8.76736e-05
8.10299e-06
-8.87375e-05
9.5323e-06
-9.08678e-05
1.08578e-05
-9.23461e-05
1.20432e-05
-9.53376e-05
1.30416e-05
-9.70989e-05
1.38935e-05
-0.000100941
1.44375e-05
-0.000102705
1.48222e-05
-0.000107393
1.52505e-05
-0.000108333
4.91977e-06
-8.59779e-05
-1.14232e-06
7.64323e-05
2.02396e-06
8.92432e-05
2.3107e-06
7.76153e-05
4.75134e-06
7.88362e-05
5.58812e-06
7.24592e-05
7.24769e-06
6.99621e-05
8.21599e-06
6.50848e-05
9.33877e-06
6.13387e-05
5.71166e-05
1.0105e-05
1.39434e-06
-8.6832e-05
2.77174e-06
-8.7229e-05
4.1173e-06
-8.77577e-05
5.40702e-06
-8.89633e-05
6.63263e-06
-8.99631e-05
7.76012e-06
-9.19953e-05
8.78055e-06
-9.33665e-05
9.67277e-06
-9.62299e-05
1.03841e-05
-9.78102e-05
1.09592e-05
-0.000101516
1.12285e-05
-0.000102974
1.13486e-05
-0.000107513
1.21833e-05
-0.000109018
1.51956e-06
-7.52909e-05
-1.72929e-06
7.96822e-05
1.21712e-06
8.62975e-05
5.04961e-07
7.83283e-05
1.75434e-06
7.75874e-05
2.03359e-06
7.21806e-05
3.1879e-06
6.88083e-05
4.02395e-06
6.42493e-05
5.10169e-06
6.02614e-05
5.62324e-05
5.98635e-06
1.03959e-06
-8.78716e-05
2.0665e-06
-8.82559e-05
3.06795e-06
-8.87591e-05
4.02557e-06
-8.9921e-05
4.93436e-06
-9.08719e-05
5.76955e-06
-9.28305e-05
6.52373e-06
-9.41207e-05
7.18104e-06
-9.68872e-05
7.68812e-06
-9.83173e-05
8.06269e-06
-0.000101891
8.14749e-06
-0.000103059
8.05377e-06
-0.000107419
9.34545e-06
-0.000110178
-9.5318e-06
-5.63987e-05
-1.1048e-05
8.11995e-05
-4.58934e-06
7.98393e-05
-5.20292e-06
7.89427e-05
-2.97136e-06
7.53564e-05
-2.59966e-06
7.18096e-05
-9.6748e-07
6.71767e-05
-3.32952e-08
6.33156e-05
1.28989e-06
5.89386e-05
5.5204e-05
2.31866e-06
7.12335e-07
-8.85839e-05
1.41799e-06
-8.89616e-05
2.10999e-06
-8.94511e-05
2.77257e-06
-9.05836e-05
3.40044e-06
-9.14998e-05
3.9702e-06
-9.34002e-05
4.47967e-06
-9.46302e-05
4.91901e-06
-9.73265e-05
5.26188e-06
-9.86602e-05
5.52496e-06
-0.000102154
5.54489e-06
-0.000103079
7.07802e-06
-0.000106609
4.97227e-06
-0.000107922
-1.57493e-06
-4.98433e-05
3.44357e-07
7.92813e-05
-2.91689e-06
8.31013e-05
-5.38415e-06
8.14108e-05
-6.34791e-06
7.63208e-05
-6.36541e-06
7.18277e-05
-5.50378e-06
6.63155e-05
-4.36461e-06
6.21769e-05
-3.0046e-06
5.7579e-05
5.38722e-05
-1.67246e-06
4.56698e-07
-8.90417e-05
8.99265e-07
-8.94053e-05
1.32481e-06
-8.98779e-05
1.72127e-06
-9.09813e-05
2.08967e-06
-9.18696e-05
2.41779e-06
-9.373e-05
2.70523e-06
-9.49195e-05
2.96152e-06
-9.75851e-05
3.19083e-06
-9.88921e-05
3.48232e-06
-0.000102449
3.92177e-06
-0.000103524
5.55035e-06
-0.000108266
2.30883e-06
-0.000104517
-3.52105e-06
-4.40035e-05
-3.8243e-06
7.95855e-05
-8.36703e-06
8.76446e-05
-1.06271e-05
8.36716e-05
-1.08171e-05
7.65112e-05
-1.06978e-05
7.1709e-05
-9.49313e-06
6.51113e-05
-8.204e-06
6.08882e-05
-6.53111e-06
5.59066e-05
5.2329e-05
-4.98751e-06
2.02728e-07
-8.96893e-05
4.08684e-07
-9.00618e-05
6.02979e-07
-9.05331e-05
7.71124e-07
-9.16293e-05
9.10258e-07
-9.25077e-05
1.01906e-06
-9.43715e-05
1.09599e-06
-9.55562e-05
1.18343e-06
-9.82836e-05
1.3472e-06
-9.97012e-05
2.15221e-06
-0.000103986
4.95892e-06
-0.000107172
2.01539e-05
-0.000124547
1.21466e-05
-9.63719e-05
1.12129e-05
-4.30152e-05
1.80895e-05
7.27108e-05
-4.4884e-06
0.000110223
-1.56916e-05
9.48755e-05
-1.7646e-05
7.84662e-05
-1.74887e-05
7.15522e-05
-1.56443e-05
6.32674e-05
-1.34693e-05
5.87135e-05
-1.11979e-05
5.36355e-05
5.01866e-05
-9.05519e-06
9.48901e-08
-9.00519e-05
1.60662e-07
-9.03922e-05
2.11851e-07
-9.08434e-05
2.38958e-07
-9.19061e-05
2.63791e-07
-9.2772e-05
2.70154e-07
-9.46008e-05
3.30172e-07
-9.58254e-05
5.31521e-07
-9.86699e-05
1.66651e-06
-0.000101005
4.88968e-06
-0.000107338
1.23489e-05
-0.000114708
2.57716e-05
-0.000137977
5.2837e-05
-0.000123704
2.48401e-05
-1.49691e-05
-1.65946e-06
9.92216e-05
-1.68492e-05
0.000125414
-2.3265e-05
0.000101292
-2.34763e-05
7.86781e-05
-2.22191e-05
7.02955e-05
-1.95801e-05
6.06289e-05
-1.69189e-05
5.60526e-05
-1.4232e-05
5.0949e-05
4.77748e-05
-1.18199e-05
-4.52857e-06
-8.55249e-05
-9.16313e-06
-8.57592e-05
-1.39368e-05
-8.60712e-05
-1.90588e-05
-8.67856e-05
-2.44278e-05
-8.74044e-05
-3.03878e-05
-8.86421e-05
-3.66304e-05
-8.95841e-05
-4.36407e-05
-9.16608e-05
-5.08051e-05
-9.38419e-05
-5.89508e-05
-9.91933e-05
-6.71127e-05
-0.000106547
-8.4787e-05
-0.000120303
-9.46797e-05
-0.000113812
-0.000116323
6.67167e-06
-0.000110103
9.30036e-05
-7.53434e-05
9.06558e-05
-5.51596e-05
8.11088e-05
-4.28753e-05
6.63943e-05
-3.44265e-05
6.1847e-05
-2.81343e-05
5.4337e-05
-2.32283e-05
5.11469e-05
-1.91834e-05
4.69044e-05
4.4411e-05
-1.58193e-05
-4.54114e-06
-8.09839e-05
-9.20462e-06
-8.10958e-05
-1.40424e-05
-8.12336e-05
-1.92985e-05
-8.15296e-05
-2.49342e-05
-8.17688e-05
-3.13964e-05
-8.21801e-05
-3.84679e-05
-8.25127e-05
-4.71819e-05
-8.29469e-05
-5.7321e-05
-8.37029e-05
-7.26364e-05
-8.3878e-05
-9.39852e-05
-8.51987e-05
-0.000131983
-8.23051e-05
-0.000175137
-7.06567e-05
-0.000161939
-6.52542e-06
-0.000115247
4.63124e-05
-8.05215e-05
5.59311e-05
-5.89148e-05
5.95024e-05
-4.60708e-05
5.35508e-05
-3.65542e-05
5.23307e-05
-3.0199e-05
4.79822e-05
-2.49471e-05
4.58953e-05
-2.09382e-05
4.28958e-05
4.09494e-05
-1.74764e-05
-4.77622e-06
-7.62078e-05
-9.65506e-06
-7.6217e-05
-1.46757e-05
-7.62131e-05
-2.00025e-05
-7.62029e-05
-2.5628e-05
-7.61434e-05
-3.18262e-05
-7.59819e-05
-3.85729e-05
-7.57661e-05
-4.63973e-05
-7.51226e-05
-5.54811e-05
-7.46191e-05
-6.70275e-05
-7.23317e-05
-8.21412e-05
-7.00852e-05
-0.000103985
-6.04613e-05
-0.000125092
-4.95491e-05
-0.000125342
-6.27579e-06
-0.000102418
2.33888e-05
-8.14048e-05
3.49182e-05
-6.43387e-05
4.24365e-05
-5.21626e-05
4.1375e-05
-4.25296e-05
4.2698e-05
-3.51614e-05
4.06141e-05
-2.92286e-05
3.99628e-05
-2.44605e-05
3.8128e-05
3.69639e-05
-2.04748e-05
-4.6817e-06
-7.15263e-05
-9.46867e-06
-7.14302e-05
-1.44243e-05
-7.12576e-05
-1.97248e-05
-7.09025e-05
-2.53922e-05
-7.04762e-05
-3.17423e-05
-6.96319e-05
-3.87285e-05
-6.87801e-05
-4.69531e-05
-6.68981e-05
-5.62625e-05
-6.53098e-05
-6.76453e-05
-6.09489e-05
-8.03858e-05
-5.73447e-05
-9.49159e-05
-4.59312e-05
-0.000108278
-3.61873e-05
-0.000102753
-1.17998e-05
-8.79145e-05
8.55018e-06
-7.39369e-05
2.09409e-05
-6.04706e-05
2.89704e-05
-5.03913e-05
3.1296e-05
-4.18001e-05
3.41069e-05
-3.51105e-05
3.39248e-05
-2.94789e-05
3.43314e-05
-2.49612e-05
3.36105e-05
3.31195e-05
-2.11166e-05
-4.65849e-06
-6.68679e-05
-9.3854e-06
-6.67034e-05
-1.42249e-05
-6.64182e-05
-1.92721e-05
-6.58554e-05
-2.45491e-05
-6.51993e-05
-3.01915e-05
-6.39896e-05
-3.62051e-05
-6.27665e-05
-4.27959e-05
-6.03074e-05
-4.99717e-05
-5.8134e-05
-5.79994e-05
-5.29213e-05
-6.66063e-05
-4.87379e-05
-7.40652e-05
-3.84723e-05
-8.04695e-05
-2.97829e-05
-8.05723e-05
-1.16969e-05
-7.39398e-05
1.91779e-06
-6.57803e-05
1.27816e-05
-5.6374e-05
1.95643e-05
-4.8725e-05
2.36472e-05
-4.15403e-05
2.69224e-05
-3.56304e-05
2.80151e-05
-3.04678e-05
2.9169e-05
-2.61116e-05
2.92544e-05
2.93547e-05
-2.23467e-05
-4.46808e-06
-6.23999e-05
-9.00392e-06
-6.21678e-05
-1.36591e-05
-6.17632e-05
-1.85231e-05
-6.09915e-05
-2.36234e-05
-6.00991e-05
-2.90801e-05
-5.85331e-05
-3.48627e-05
-5.69841e-05
-4.10945e-05
-5.40756e-05
-4.76434e-05
-5.15853e-05
-5.43801e-05
-4.61846e-05
-6.11847e-05
-4.19334e-05
-6.69041e-05
-3.27529e-05
-7.13998e-05
-2.52872e-05
-6.98293e-05
-1.32673e-05
-6.51032e-05
-2.8083e-06
-5.86915e-05
6.3701e-06
-5.17584e-05
1.26314e-05
-4.553e-05
1.74188e-05
-3.94835e-05
2.08761e-05
-3.43575e-05
2.28893e-05
-2.9708e-05
2.45196e-05
-2.57398e-05
2.52864e-05
2.58503e-05
-2.22353e-05
-4.23791e-06
-5.81622e-05
-8.51177e-06
-5.7894e-05
-1.28526e-05
-5.74225e-05
-1.72954e-05
-5.65487e-05
-2.18643e-05
-5.55303e-05
-2.65801e-05
-5.38174e-05
-3.14669e-05
-5.20974e-05
-3.64756e-05
-4.9067e-05
-4.16851e-05
-4.63759e-05
-4.66495e-05
-4.12202e-05
-5.15432e-05
-3.70397e-05
-5.49668e-05
-2.93293e-05
-5.73754e-05
-2.28786e-05
-5.74439e-05
-1.31988e-05
-5.50093e-05
-5.24281e-06
-5.11916e-05
2.55244e-06
-4.65255e-05
7.96539e-06
-4.18979e-05
1.27914e-05
-3.7136e-05
1.61144e-05
-3.28837e-05
1.86371e-05
-2.88791e-05
2.05151e-05
-2.53438e-05
2.17513e-05
2.26543e-05
-2.21477e-05
-3.99516e-06
-5.41672e-05
-8.02031e-06
-5.3869e-05
-1.21069e-05
-5.33361e-05
-1.62751e-05
-5.23806e-05
-2.05504e-05
-5.12551e-05
-2.49215e-05
-4.94463e-05
-2.94048e-05
-4.76142e-05
-3.3886e-05
-4.45858e-05
-3.84146e-05
-4.18475e-05
-4.25374e-05
-3.70975e-05
-4.64737e-05
-3.31034e-05
-4.92484e-05
-2.65547e-05
-5.11753e-05
-2.09517e-05
-5.083e-05
-1.3544e-05
-4.90449e-05
-7.02796e-06
-4.59482e-05
-5.44128e-07
-4.23352e-05
4.3524e-06
-3.84828e-05
8.939e-06
-3.45772e-05
1.22089e-05
-3.09328e-05
1.49927e-05
-2.74545e-05
1.70369e-05
-2.43174e-05
1.86143e-05
1.97733e-05
-2.14364e-05
-3.68414e-06
-5.04831e-05
-7.37928e-06
-5.0174e-05
-1.11031e-05
-4.96124e-05
-1.48494e-05
-4.86345e-05
-1.86413e-05
-4.74633e-05
-2.24279e-05
-4.56598e-05
-2.62539e-05
-4.37883e-05
-2.99482e-05
-4.08917e-05
-3.36164e-05
-3.81793e-05
-3.68004e-05
-3.39136e-05
-3.97228e-05
-3.0181e-05
-4.16774e-05
-2.46001e-05
-4.29152e-05
-1.97139e-05
-4.30083e-05
-1.34509e-05
-4.19523e-05
-8.08397e-06
-4.00077e-05
-2.48869e-06
-3.7521e-05
1.86579e-06
-3.46804e-05
6.09847e-06
-3.16772e-05
9.20583e-06
-2.87213e-05
1.20369e-05
-2.58227e-05
1.41383e-05
-2.31191e-05
1.59108e-05
1.724e-05
-2.05857e-05
-3.39983e-06
-4.70834e-05
-6.80419e-06
-4.67697e-05
-1.02269e-05
-4.61898e-05
-1.36517e-05
-4.52097e-05
-1.70989e-05
-4.40162e-05
-2.0505e-05
-4.22539e-05
-2.3908e-05
-4.03854e-05
-2.71389e-05
-3.76608e-05
-3.02866e-05
-3.50317e-05
-3.30018e-05
-3.11985e-05
-3.54678e-05
-2.77151e-05
-3.71408e-05
-2.29271e-05
-3.82293e-05
-1.86254e-05
-3.8226e-05
-1.34542e-05
-3.74695e-05
-8.84044e-06
-3.59017e-05
-4.05655e-06
-3.39182e-05
-1.17641e-07
-3.15562e-05
3.73651e-06
-2.90749e-05
6.72457e-06
-2.6552e-05
9.51404e-06
-2.40713e-05
1.16577e-05
-2.1707e-05
1.35465e-05
1.50049e-05
-1.94718e-05
-3.07908e-06
-4.40044e-05
-6.15354e-06
-4.36954e-05
-9.2286e-06
-4.31149e-05
-1.22794e-05
-4.21591e-05
-1.53207e-05
-4.09749e-05
-1.82832e-05
-3.92915e-05
-2.12033e-05
-3.74654e-05
-2.39211e-05
-3.49431e-05
-2.65186e-05
-3.24344e-05
-2.86995e-05
-2.90176e-05
-3.06034e-05
-2.58113e-05
-3.18851e-05
-2.16454e-05
-3.26908e-05
-1.78198e-05
-3.2824e-05
-1.33209e-05
-3.23563e-05
-9.30821e-06
-3.13156e-05
-5.09715e-06
-2.98912e-05
-1.54204e-06
-2.81298e-05
1.97519e-06
-2.62096e-05
4.80445e-06
-2.41832e-05
7.48761e-06
-2.21442e-05
9.61887e-06
-2.0144e-05
1.15463e-05
1.3081e-05
-1.822e-05
-2.78119e-06
-4.12233e-05
-5.55404e-06
-4.09226e-05
-8.31959e-06
-4.03494e-05
-1.1051e-05
-3.94277e-05
-1.37577e-05
-3.82683e-05
-1.63762e-05
-3.66731e-05
-1.89323e-05
-3.49094e-05
-2.12975e-05
-3.25779e-05
-2.35314e-05
-3.02006e-05
-2.54217e-05
-2.71274e-05
-2.70742e-05
-2.41588e-05
-2.82106e-05
-2.05091e-05
-2.89497e-05
-1.70807e-05
-2.90732e-05
-1.31975e-05
-2.87489e-05
-9.63249e-06
-2.79178e-05
-5.9283e-06
-2.67796e-05
-2.6802e-06
-2.53279e-05
5.2358e-07
-2.37367e-05
3.21328e-06
-2.2023e-05
5.7739e-06
-2.02892e-05
7.88511e-06
-1.85608e-05
9.81799e-06
1.14066e-05
-1.68863e-05
-2.47986e-06
-3.87436e-05
-4.94783e-06
-3.84547e-05
-7.40017e-06
-3.78972e-05
-9.80941e-06
-3.70186e-05
-1.21797e-05
-3.58981e-05
-1.44529e-05
-3.44e-05
-1.66481e-05
-3.27143e-05
-1.86557e-05
-3.05703e-05
-2.05221e-05
-2.83342e-05
-2.20783e-05
-2.55712e-05
-2.33993e-05
-2.28378e-05
-2.43131e-05
-1.95953e-05
-2.49051e-05
-1.64888e-05
-2.50682e-05
-1.30344e-05
-2.48747e-05
-9.82606e-06
-2.43028e-05
-6.50014e-06
-2.34605e-05
-3.52255e-06
-2.23577e-05
-5.79153e-07
-2.11114e-05
1.96696e-06
-1.97356e-05
4.39821e-06
-1.83152e-05
6.46475e-06
-1.68694e-05
8.37231e-06
9.98443e-06
-1.54473e-05
-2.19033e-06
-3.65533e-05
-4.36817e-06
-3.62769e-05
-6.52728e-06
-3.57381e-05
-8.64313e-06
-3.49028e-05
-1.07149e-05
-3.38264e-05
-1.2696e-05
-3.2419e-05
-1.45958e-05
-3.08145e-05
-1.63334e-05
-2.88327e-05
-1.79376e-05
-2.673e-05
-1.92918e-05
-2.42171e-05
-2.04471e-05
-2.16826e-05
-2.12654e-05
-1.8777e-05
-2.18103e-05
-1.59439e-05
-2.19789e-05
-1.28659e-05
-2.18582e-05
-9.9467e-06
-2.14116e-05
-6.9468e-06
-2.07416e-05
-4.19251e-06
-1.9843e-05
-1.47773e-06
-1.88154e-05
9.39328e-07
-1.76657e-05
3.24851e-06
-1.64686e-05
5.26768e-06
-1.52368e-05
7.14051e-06
8.76336e-06
-1.40157e-05
-1.9185e-06
-3.46349e-05
-3.82347e-06
-3.4372e-05
-5.70638e-06
-3.38552e-05
-7.54466e-06
-3.30646e-05
-9.33455e-06
-3.20366e-05
-1.10366e-05
-3.0717e-05
-1.26555e-05
-2.91957e-05
-1.41264e-05
-2.73619e-05
-1.54685e-05
-2.53879e-05
-1.65918e-05
-2.30939e-05
-1.75331e-05
-2.07413e-05
-1.82055e-05
-1.81047e-05
-1.8656e-05
-1.54934e-05
-1.88259e-05
-1.2696e-05
-1.87651e-05
-1.00076e-05
-1.8452e-05
-7.25985e-06
-1.79496e-05
-4.69491e-06
-1.72589e-05
-2.16846e-06
-1.64486e-05
1.2907e-07
-1.55268e-05
2.32678e-06
-1.45504e-05
4.29123e-06
-1.3531e-05
6.12116e-06
7.73968e-06
-1.25073e-05
-1.64574e-06
-3.29891e-05
-3.27977e-06
-3.2738e-05
-4.8935e-06
-3.22415e-05
-6.46859e-06
-3.14895e-05
-7.99879e-06
-3.05064e-05
-9.4541e-06
-2.92618e-05
-1.08333e-05
-2.78165e-05
-1.20904e-05
-2.61048e-05
-1.32345e-05
-2.42438e-05
-1.4204e-05
-2.21244e-05
-1.50203e-05
-1.9925e-05
-1.56167e-05
-1.75084e-05
-1.60244e-05
-1.50857e-05
-1.61948e-05
-1.25256e-05
-1.61722e-05
-1.00302e-05
-1.59373e-05
-7.49471e-06
-1.55437e-05
-5.08858e-06
-1.49901e-05
-2.7221e-06
-1.43312e-05
-5.29815e-07
-1.35739e-05
1.56949e-06
-1.2764e-05
3.48138e-06
-1.19119e-05
5.26904e-06
6.87739e-06
-1.10496e-05
-1.40382e-06
-3.15853e-05
-2.79567e-06
-3.13461e-05
-4.16608e-06
-3.08712e-05
-5.499e-06
-3.01566e-05
-6.78748e-06
-2.92179e-05
-8.00744e-06
-2.80418e-05
-9.1562e-06
-2.66678e-05
-1.01983e-05
-2.50628e-05
-1.11386e-05
-2.33035e-05
-1.19321e-05
-2.1331e-05
-1.25942e-05
-1.92629e-05
-1.30815e-05
-1.70212e-05
-1.34174e-05
-1.47497e-05
-1.35719e-05
-1.23712e-05
-1.35733e-05
-1.00287e-05
-1.34093e-05
-7.65873e-06
-1.3115e-05
-5.38292e-06
-1.26908e-05
-3.14623e-06
-1.21754e-05
-1.04522e-06
-1.15756e-05
9.69651e-07
-1.09252e-05
2.83089e-06
-1.02337e-05
4.57757e-06
6.17036e-06
-9.52667e-06
-1.1498e-06
-3.04355e-05
-2.29112e-06
-3.02048e-05
-3.41648e-06
-2.97458e-05
-4.51361e-06
-2.90595e-05
-5.5751e-06
-2.81565e-05
-6.58291e-06
-2.70341e-05
-7.53181e-06
-2.57189e-05
-8.39701e-06
-2.41976e-05
-9.17845e-06
-2.25221e-05
-9.84539e-06
-2.06641e-05
-1.04047e-05
-1.87037e-05
-1.08246e-05
-1.66013e-05
-1.11193e-05
-1.4455e-05
-1.12663e-05
-1.22242e-05
-1.12869e-05
-1.0008e-05
-1.11727e-05
-7.77299e-06
-1.09506e-05
-5.605e-06
-1.06219e-05