/*--------------------------------*- C++ -*----------------------------------*\
| =========                 |                                                 |
| \\      /  F ield         | OpenFOAM: The Open Source CFD Toolbox           |
|  \\    /   O peration     | Version:  2012                                  |
|   \\  /    A nd           | Website:  www.openfoam.com                      |
|    \\/     M anipulation  |                                                 |
\*---------------------------------------------------------------------------*/
FoamFile
{
    version     2.0;
    format      ascii;
    class       volScalarField;
    location    "0.06";
    object      rhogh;
}
// * * * * * * * * * * * * * * * * * * * * * * * * * * * * * * * * * * * * * //

dimensions      [1 -1 -2 0 0 0 0];


internalField   nonuniform List<scalar> 
2268
(
-29.4294
-29.4294
-29.4294
-29.4294
-29.4294
-29.4294
-29.4294
-29.4294
-29.4294
-29.4294
-29.4294
-29.4294
-29.4294
-29.4294
-26.2356
-8.5682
-0.187828
-3.79341e-05
-1.80533e-11
-1.68831e-13
-1.80565e-14
-9.71976e-16
-2.68764e-17
-88.2881
-88.2881
-88.2881
-88.2881
-88.2881
-88.2881
-88.2881
-88.2881
-88.2881
-88.2881
-88.2881
-88.2881
-88.2881
-87.7869
-57.6343
-9.46597
-0.259328
-0.000119634
-1.07112e-10
-7.20286e-13
-6.83735e-14
-3.48688e-15
-8.07169e-17
-147.147
-147.147
-147.147
-147.147
-147.147
-147.147
-147.147
-147.147
-147.147
-147.147
-147.147
-147.147
-147.147
-138.558
-59.6945
-4.06095
-0.05191
-7.19263e-05
-5.40587e-10
-5.25125e-12
-3.39826e-13
-1.28746e-14
-2.37094e-16
-206.006
-206.006
-206.006
-206.006
-206.006
-206.006
-206.006
-206.006
-206.006
-206.006
-206.006
-206.006
-206.006
-176.187
-45.6216
-1.3585
-0.0041734
-3.96979e-06
-6.77184e-10
-2.85936e-11
-1.3301e-12
-3.9756e-14
-5.82987e-16
-264.864
-264.864
-264.864
-264.864
-264.864
-264.864
-264.864
-264.864
-264.864
-264.864
-264.864
-264.864
-264.864
-195.221
-27.9023
-0.333838
-0.000235046
-2.09585e-07
-6.57688e-10
-3.55748e-11
-1.47519e-12
-4.16335e-14
-6.07826e-16
-323.723
-323.723
-323.723
-323.723
-323.723
-323.723
-323.723
-323.723
-323.723
-323.723
-323.723
-323.723
-323.723
-193.688
-13.4821
-0.0555426
-1.10922e-05
-1.37736e-08
-3.88336e-10
-1.86308e-11
-6.92654e-13
-1.8567e-14
-2.69036e-16
-382.582
-382.582
-382.582
-382.582
-382.582
-382.582
-382.582
-382.582
-382.582
-382.582
-382.582
-382.582
-380.268
-176.336
-6.89321
-0.00922342
-5.31505e-07
-1.12235e-09
-7.22472e-11
-3.90062e-12
-1.65986e-13
-5.35138e-15
-9.72708e-17
-441.44
-441.44
-441.44
-441.44
-441.44
-441.44
-441.44
-441.44
-441.44
-441.44
-441.44
-441.44
-425.886
-161.71
-4.09618
-0.00193695
-3.43126e-08
-1.28455e-10
-1.18314e-11
-7.51239e-13
-3.68364e-14
-1.39942e-15
-3.0223e-17
-3.02753e-40
-3.37077e-41
-2.5181e-43
-1.71607e-45
-9.26704e-48
-4.50312e-50
-2.10949e-52
-9.18266e-55
-3.63618e-57
-1.28487e-59
-3.98962e-62
-1.07161e-64
-2.44757e-67
-4.65505e-70
-7.17079e-73
-8.59701e-76
-7.53003e-79
-4.28847e-82
-2.38663e-85
-4.56942e-37
-4.98243e-38
-3.92903e-40
-2.802e-42
-1.57852e-44
-7.97445e-47
-3.86586e-49
-1.7361e-51
-7.07425e-54
-2.56761e-56
-8.17588e-59
-2.24904e-61
-5.2547e-64
-1.02131e-66
-1.60632e-69
-1.96474e-72
-1.75444e-75
-1.01827e-78
-2.88582e-82
-1.86637e-34
-1.9213e-35
-1.63236e-37
-1.23166e-39
-7.34103e-42
-3.93154e-44
-1.99784e-46
-9.33242e-49
-3.93372e-51
-1.47131e-53
-4.814e-56
-1.35779e-58
-3.24712e-61
-6.45094e-64
-1.03588e-66
-1.29229e-69
-1.17598e-72
-6.95031e-76
-2.00451e-79
-3.98206e-32
-3.8463e-33
-3.51619e-35
-2.81663e-37
-1.77322e-39
-1.00259e-41
-5.3293e-44
-2.59146e-46
-1.13156e-48
-4.37023e-51
-1.47239e-53
-4.26702e-56
-1.04658e-58
-2.12924e-61
-3.49685e-64
-4.45677e-67
-4.13931e-70
-2.49481e-73
-7.33209e-77
-5.69471e-30
-4.83366e-31
-4.9276e-33
-4.26883e-35
-2.91809e-37
-1.79341e-39
-1.01645e-41
-5.2015e-44
-2.36797e-46
-9.47471e-49
-3.29179e-51
-9.80468e-54
-2.4652e-56
-5.13112e-59
-8.60721e-62
-1.119e-64
-1.05894e-67
-6.49702e-71
-1.94217e-74
-5.67428e-28
-4.09367e-29
-4.55883e-31
-4.26461e-33
-3.1091e-35
-2.04267e-37
-1.22072e-39
-6.54215e-42
-3.09904e-44
-1.28477e-46
-4.6082e-49
-1.41312e-51
-3.6496e-54
-7.78829e-57
-1.33733e-59
-1.77735e-62
-1.71745e-65
-1.0749e-68
-3.27499e-72
-4.42858e-26
-2.45645e-27
-3.16909e-29
-3.2923e-31
-2.68833e-33
-1.96058e-35
-1.26734e-37
-7.21783e-40
-3.59046e-42
-1.55038e-44
-5.75783e-47
-1.82039e-49
-4.83114e-52
-1.05672e-54
-1.85598e-57
-2.51881e-60
-2.48189e-63
-1.58211e-66
-4.90468e-70
-2.43108e-24
-9.85124e-26
-1.40233e-27
-1.61966e-29
-1.44499e-31
-1.13884e-33
-7.80546e-36
-4.66925e-38
-2.42119e-40
-1.08428e-42
-4.15912e-45
-1.35388e-47
-3.68984e-50
-8.27084e-53
-1.48601e-55
-2.05998e-58
-2.07075e-61
-1.34523e-64
-4.24614e-68
-533.467
-533.467
-533.467
-533.467
-533.467
-533.467
-533.467
-533.467
-533.467
-533.467
-533.467
-533.467
-487.65
-140.757
-2.11152
-0.000315006
-2.12615e-09
-2.13149e-11
-1.9436e-12
-1.31348e-13
-7.61651e-15
-4.08286e-16
-2.16204e-17
-658.662
-658.662
-658.662
-658.662
-658.662
-658.662
-658.662
-658.662
-658.662
-658.662
-658.662
-658.662
-550.253
-104.267
-0.710555
-2.54156e-05
-1.62067e-10
-5.03477e-12
-3.45977e-13
-2.31681e-14
-1.53227e-15
-9.99224e-17
-7.44362e-18
-783.856
-783.856
-783.856
-783.856
-783.856
-783.856
-783.856
-783.856
-783.856
-783.856
-783.856
-783.856
-590.585
-71.2555
-0.209356
-1.62643e-06
-1.86487e-11
-1.06726e-12
-8.30658e-14
-6.55878e-15
-4.90296e-16
-3.38308e-17
-2.3871e-18
-909.051
-909.051
-909.051
-909.051
-909.051
-909.051
-909.051
-909.051
-909.051
-909.051
-909.051
-909.051
-611.393
-45.1112
-0.0571872
-9.45767e-08
-3.88847e-12
-3.71607e-13
-3.46699e-14
-2.77922e-15
-1.9332e-16
-1.19146e-17
-6.96638e-19
-1034.25
-1034.25
-1034.25
-1034.25
-1034.25
-1034.25
-1034.25
-1034.25
-1034.25
-1034.25
-1034.25
-1034.25
-614.163
-26.3536
-0.0150984
-6.42499e-09
-1.97677e-12
-2.28553e-13
-1.93121e-14
-1.33428e-15
-7.85708e-17
-4.09093e-18
-1.94994e-19
-1159.44
-1159.44
-1159.44
-1159.44
-1159.44
-1159.44
-1159.44
-1159.44
-1159.44
-1159.44
-1159.44
-1159.44
-601.385
-15.458
-0.0048525
-1.01465e-09
-1.61907e-12
-1.5707e-13
-1.05571e-14
-5.88415e-16
-2.81516e-17
-1.20618e-18
-4.71123e-20
-1284.63
-1284.63
-1284.63
-1284.63
-1284.63
-1284.63
-1284.63
-1284.63
-1284.63
-1284.63
-1284.63
-1284.63
-576.28
-10.7808
-0.00188304
-3.76293e-10
-1.41546e-12
-1.0252e-13
-5.29498e-15
-2.33714e-16
-9.00032e-18
-3.148e-19
-1.00492e-20
-1409.83
-1409.83
-1409.83
-1409.83
-1409.83
-1409.83
-1409.83
-1409.83
-1409.83
-1409.83
-1409.83
-1409.83
-545.153
-7.47479
-0.000724924
-1.7862e-10
-1.14586e-12
-5.83635e-14
-2.25361e-15
-7.71355e-17
-2.36269e-18
-6.70929e-20
-1.76351e-21
-1535.02
-1535.02
-1535.02
-1535.02
-1535.02
-1535.02
-1535.02
-1535.02
-1535.02
-1535.02
-1535.02
-1535.02
-509.092
-5.07824
-0.000269504
-8.55473e-11
-7.87144e-13
-2.71899e-14
-7.72431e-16
-2.04375e-17
-5.00279e-19
-1.16153e-20
-2.53474e-22
-1660.22
-1660.22
-1660.22
-1660.22
-1660.22
-1660.22
-1660.22
-1660.22
-1660.22
-1660.22
-1660.22
-1660.22
-468.391
-3.35371
-9.22206e-05
-3.62836e-11
-4.08609e-13
-9.40749e-15
-1.97121e-16
-4.05575e-18
-8.02821e-20
-1.54894e-21
-2.86782e-23
-1785.41
-1785.41
-1785.41
-1785.41
-1785.41
-1785.41
-1785.41
-1785.41
-1785.41
-1785.41
-1785.41
-1785.41
-423.28
-2.1361
-2.75104e-05
-1.22711e-11
-1.29934e-13
-2.03114e-15
-3.27505e-17
-5.5525e-19
-9.43348e-21
-1.59207e-22
-2.61081e-24
-1910.61
-1910.61
-1910.61
-1910.61
-1910.61
-1910.61
-1910.61
-1910.61
-1910.61
-1910.61
-1910.61
-1910.61
-373.799
-1.29292
-6.44577e-06
-2.45596e-12
-2.29412e-14
-2.78556e-16
-3.84944e-18
-5.76397e-20
-8.84629e-22
-1.35456e-23
-2.01979e-25
-2035.8
-2035.8
-2035.8
-2035.8
-2035.8
-2035.8
-2035.8
-2035.8
-2035.8
-2035.8
-2035.8
-2035.8
-321.861
-0.750781
-6.78629e-07
-1.67412e-16
-1.81072e-15
-2.78718e-17
-3.70962e-19
-5.2705e-21
-7.69047e-23
-1.0806e-24
-1.46548e-26
-2161
-2161
-2161
-2161
-2161
-2161
-2161
-2161
-2161
-2161
-2161
-2161
-268.794
-0.426937
-5.51441e-08
-1.77708e-16
-2.70546e-16
-3.3859e-18
-4.06124e-20
-4.84574e-22
-6.11613e-24
-7.44491e-26
-8.87544e-28
-2286.19
-2286.19
-2286.19
-2286.19
-2286.19
-2286.19
-2286.19
-2286.19
-2286.19
-2286.19
-2286.19
-2286.19
-223.88
-0.246573
-1.03668e-14
-1.03671e-14
-1.5847e-16
-1.03567e-18
-6.18661e-21
-4.40058e-23
-3.98189e-25
-3.88103e-27
-4.13334e-29
-2411.38
-2411.38
-2411.38
-2411.38
-2411.38
-2411.38
-2411.38
-2411.38
-2411.38
-2411.38
-2411.37
-2411.38
-203.275
-0.12144
-1.09333e-14
-4.91928e-14
-1.33465e-16
-3.61664e-19
-1.22705e-21
-4.56298e-24
-2.68889e-26
-1.97499e-28
-1.67816e-30
-2528.91
-2528.73
-2528.42
-2527.84
-2527.2
-2526.11
-2525.12
-2523.28
-2521.89
-2518.3
-2511.92
-2425.3
-241.177
-0.340349
-1.16734e-14
-2.54699e-14
-3.63575e-16
-2.82047e-19
-2.09783e-22
-4.63718e-25
-1.80535e-27
-9.64038e-30
-6.3972e-32
-1959.51
-1953.23
-1942.8
-1923.79
-1903.74
-1871.28
-1843.62
-1795.98
-1762.83
-1685.13
-1577.55
-1230.77
-267.852
-4.04636
-0.000378618
-1.54092e-10
-4.74736e-21
-1.78317e-19
-2.83173e-23
-4.04634e-26
-1.12551e-28
-4.38549e-31
-2.25883e-33
-230.692
-226.891
-220.666
-209.596
-198.239
-180.587
-166.185
-142.663
-126.614
-91.4651
-44.8639
-7.15385e-08
-157.324
-59.925
-0.0284449
-4.71242e-21
-4.97245e-21
-4.64913e-20
-3.15614e-24
-2.94002e-27
-6.18547e-30
-1.81092e-32
-7.27592e-35
2.6814e-34
6.78296e-34
2.18336e-34
-1.07708e-34
1.21935e-33
7.74564e-32
8.16713e-34
1.67483e-28
5.39397e-29
4.70194e-27
6.85148e-25
-7.46293e-08
-7.47521e-08
-1.18449
-0.000996025
-4.92406e-21
-4.92411e-21
-6.46157e-21
-2.85496e-25
-1.74133e-28
-2.89756e-31
-6.61258e-34
-2.10806e-36
-4.34154e-16
-4.22661e-16
-4.00073e-16
-3.91786e-16
-1.73153e-15
-7.48488e-14
-2.92406e-12
-8.48104e-11
-1.78113e-09
-2.6038e-08
-2.31539e-07
-1.25783e-06
-8.4599e-06
-2.29733e-05
-2.24819e-05
-5.1358e-21
-7.31357e-16
-5.85886e-22
-2.03034e-26
-8.17419e-30
-1.12098e-32
-2.07376e-35
-5.38251e-38
-3.95824e-28
-1.21612e-25
-1.77963e-23
-1.53776e-21
-8.67788e-20
-3.32626e-18
-8.5623e-17
-1.36389e-15
-5.24557e-15
-5.24754e-15
-5.25527e-15
-5.4233e-15
-5.42517e-15
-5.43229e-15
-3.20839e-08
-2.10033e-12
-1.69406e-16
-3.51175e-23
-1.09111e-27
-3.01513e-31
-3.52352e-34
-5.51819e-37
-1.19704e-39
-3.77591e-30
-1.55768e-27
-2.99e-25
-3.5268e-23
-2.83093e-21
-1.63062e-19
-6.88209e-18
-2.16078e-16
-5.04008e-15
-8.2857e-14
-8.81162e-13
-5.96498e-12
-1.41396e-11
-1.98025e-11
-1.52671e-10
-1.69483e-13
-1.26558e-17
-1.4749e-24
-4.38625e-29
-8.58971e-33
-8.87596e-36
-1.22026e-38
-2.28125e-41
-2.9967e-38
-1.08615e-35
-1.81408e-33
-1.84086e-31
-1.25653e-29
-6.04861e-28
-2.08032e-26
-5.07547e-25
-8.65931e-24
-1.37994e-22
-6.87903e-21
-7.1132e-19
-7.30408e-17
-6.53501e-15
-2.56858e-13
-3.38343e-15
-5.02514e-19
-4.20718e-26
-1.29132e-30
-1.88096e-34
-1.77801e-37
-2.22726e-40
-3.6971e-43
-4.15155e-43
-1.79889e-40
-3.80601e-38
-5.34591e-36
-5.72467e-34
-5.051e-32
-3.7816e-30
-2.40671e-28
-1.2833e-26
-5.69556e-25
-2.1144e-23
-7.04358e-22
-2.79938e-20
-1.87026e-18
-8.78228e-17
-4.01478e-17
-1.12565e-20
-8.22301e-28
-2.76994e-32
-3.16512e-36
-2.82709e-39
-3.33235e-42
-5.05794e-45
-1.70781e-47
-1.1568e-44
-3.89539e-42
-8.57614e-40
-1.37162e-37
-1.68331e-35
-1.63765e-33
-1.29054e-31
-8.3626e-30
-4.49892e-28
-2.03323e-26
-7.77203e-25
-2.56339e-23
-7.37471e-22
-1.8816e-20
-2.26141e-19
-1.40589e-22
-1.08413e-29
-4.26843e-34
-4.0751e-38
-3.54995e-41
-4.07189e-44
-5.81237e-47
-4.66699e-51
-3.81563e-48
-1.50508e-45
-3.80083e-43
-6.88343e-41
-9.4932e-39
-1.03466e-36
-9.13042e-35
-6.6463e-33
-4.0406e-31
-2.08357e-29
-9.18489e-28
-3.52174e-26
-1.18466e-24
-3.57423e-23
-5.01155e-22
-9.79806e-25
-9.68745e-32
-4.72647e-36
-4.02357e-40
-3.52409e-43
-4.06017e-46
-5.59763e-49
-1.37971e-55
-1.18768e-52
-4.92784e-50
-1.30879e-47
-2.49561e-45
-3.62688e-43
-4.17072e-41
-3.87772e-39
-2.96407e-37
-1.87303e-35
-9.85697e-34
-4.28916e-32
-1.52965e-30
-4.31368e-29
-8.83462e-28
-5.46763e-27
-3.40875e-27
-5.63515e-34
-3.71019e-38
-3.02382e-42
-2.75771e-45
-3.29697e-48
-4.50822e-51
-6.83595e-63
-7.07341e-60
-3.55296e-57
-1.15057e-54
-2.69797e-52
-4.87118e-50
-7.05317e-48
-8.40219e-46
-8.42671e-44
-7.21479e-42
-5.3715e-40
-3.51081e-38
-2.05098e-36
-1.08169e-34
-5.23719e-33
-2.34001e-31
-4.92878e-30
-2.09713e-36
-2.06317e-40
-1.73233e-44
-1.7065e-47
-2.18398e-50
-3.03922e-53
-1.55858e-67
-1.75216e-64
-9.54137e-62
-3.34803e-59
-8.51477e-57
-1.67011e-54
-2.63365e-52
-3.42534e-50
-3.75991e-48
-3.52817e-46
-2.8771e-44
-2.05177e-42
-1.29075e-40
-7.13239e-39
-3.40417e-37
-1.32603e-35
-1.74141e-34
-4.53433e-39
-7.9167e-43
-7.47617e-47
-8.32667e-50
-1.17872e-52
-1.71521e-55
-3.78671e-77
-2.44267e-74
-7.39942e-72
-1.40492e-69
-1.90876e-67
-2.06505e-65
-2.04562e-63
-2.15005e-61
-2.49691e-59
-2.94439e-57
-3.27996e-55
-3.35223e-53
-3.15861e-51
-2.76715e-49
-2.28919e-47
-1.80526e-45
-1.36906e-43
-5.0553e-42
-2.05911e-45
-2.4266e-49
-3.21449e-52
-5.20064e-55
-8.12985e-58
-5.06047e-83
-3.90465e-80
-1.53925e-77
-4.40464e-75
-1.09251e-72
-2.5082e-70
-5.28321e-68
-9.93443e-66
-1.65465e-63
-2.44547e-61
-3.25199e-59
-3.93261e-57
-4.39194e-55
-4.57561e-53
-4.49752e-51
-4.1958e-49
-3.71717e-47
-1.5594e-45
-3.42142e-48
-5.82349e-52
-9.7815e-55
-1.87567e-57
-3.24247e-60
-5.45724e-89
-4.30338e-86
-1.58324e-83
-3.6019e-81
-5.67043e-79
-6.54031e-77
-5.7362e-75
-3.95904e-73
-2.3377e-71
-1.49943e-69
-1.43459e-67
-1.8513e-65
-2.50251e-63
-3.24434e-61
-4.01166e-59
-4.76159e-57
-5.47763e-55
-6.13446e-53
-3.38177e-51
-1.02335e-54
-2.35123e-57
-5.55591e-60
-1.09375e-62
-7.1964e-95
-6.42826e-92
-2.68174e-89
-6.94301e-87
-1.25703e-84
-1.72345e-82
-1.99368e-80
-2.38418e-78
-3.65525e-76
-6.80326e-74
-1.29305e-71
-2.31648e-69
-3.87396e-67
-6.08532e-65
-9.08451e-63
-1.3001e-60
-1.79824e-58
-2.40864e-56
-1.56936e-54
-1.28116e-57
-4.44705e-60
-1.35446e-62
-3.1333e-65
-3.52925e-101
-3.68625e-98
-1.81714e-95
-5.72863e-93
-1.37067e-90
-2.9976e-88
-7.21203e-86
-1.95135e-83
-5.32581e-81
-1.3555e-78
-3.15749e-76
-6.75206e-74
-1.34219e-71
-2.50537e-69
-4.43931e-67
-7.50564e-65
-1.21144e-62
-1.83438e-60
-1.25319e-58
-1.11166e-60
-6.62746e-63
-2.73577e-65
-7.67893e-68
-1.73168e-107
-2.08979e-104
-1.17565e-101
-4.08973e-99
-9.84049e-97
-1.73217e-94
-2.30103e-92
-2.33973e-90
-1.83332e-88
-1.12936e-86
-6.69061e-85
-7.88239e-83
-1.91777e-80
-5.19859e-78
-1.36822e-75
-3.49174e-73
-8.7232e-71
-2.14737e-68
-5.23445e-66
-6.35359e-64
-7.765e-66
-4.60464e-68
-1.62175e-70
-1.3896e-117
-1.86531e-114
-1.28297e-111
-7.2102e-109
-4.5033e-106
-3.08339e-103
-1.99223e-100
-1.14007e-97
-5.77156e-95
-2.61949e-92
-1.08399e-89
-4.1468e-87
-1.48785e-84
-5.06401e-82
-1.65464e-79
-5.23815e-77
-1.62127e-74
-4.93359e-72
-1.48026e-69
-2.19622e-67
-7.17906e-69
-6.5262e-71
-2.98287e-73
-5.17826e-125
-2.7152e-121
-7.04811e-118
-1.21029e-114
-1.55099e-111
-1.5857e-108
-1.3518e-105
-9.90961e-103
-6.40434e-100
-3.71908e-97
-1.97525e-94
-9.7289e-92
-4.50586e-89
-1.98347e-86
-8.3891e-84
-3.43715e-81
-1.37448e-78
-5.38254e-76
-2.06062e-73
-3.84898e-71
-5.26094e-72
-7.88098e-74
-4.83354e-76
-1.06715e-131
-7.50157e-128
-2.61291e-124
-6.02238e-121
-1.0359e-117
-1.42182e-114
-1.62751e-111
-1.60293e-108
-1.39289e-105
-1.08914e-102
-7.80147e-100
-5.19173e-97
-3.25178e-94
-1.93475e-91
-1.10262e-88
-6.04791e-86
-3.19403e-83
-1.60463e-80
-7.35919e-78
-1.98911e-75
-3.10452e-75
-8.24948e-77
-7.00447e-79
-9.05982e-141
-8.30604e-137
-3.74033e-133
-1.1112e-129
-2.47992e-126
-4.51369e-123
-7.1545e-120
-1.04329e-116
-1.45611e-113
-1.97249e-110
-2.5751e-107
-3.18491e-104
-3.6851e-101
-3.96599e-98
-3.97831e-95
-3.72981e-92
-3.25521e-89
-2.57109e-86
-1.74082e-83
-8.97668e-81
-1.50454e-78
-7.63799e-80
-9.22766e-82
-2.71946e-149
-2.55493e-145
-1.38229e-141
-9.01304e-138
-4.39939e-134
-1.717e-130
-5.59223e-127
-1.56597e-123
-3.85931e-120
-8.52373e-117
-1.71464e-113
-3.18333e-110
-5.52479e-107
-9.05923e-104
-1.4186e-100
-2.14047e-97
-3.14033e-94
-4.51193e-91
-6.38893e-88
-8.94269e-85
-6.22239e-82
-6.42001e-83
-1.12707e-84
-7.79001e-162
-2.42791e-157
-3.73721e-153
-3.76161e-149
-2.76374e-145
-1.87875e-141
-1.90974e-137
-1.65964e-133
-1.26593e-129
-8.65581e-126
-5.40416e-122
-3.12835e-118
-1.70284e-114
-8.819e-111
-4.3943e-107
-2.12657e-103
-1.00842e-99
-4.71821e-96
-2.1891e-92
-1.00836e-88
-2.31373e-85
-5.03888e-86
-1.30128e-87
-1.78757e-18
-1.74828e-19
-1.44388e-20
-1.1287e-21
-8.32702e-19
-1.17689e-19
-1.44517e-20
-1.48243e-21
-2.25031e-19
-2.72553e-20
-2.85883e-21
-2.49031e-22
-5.31738e-20
-5.41449e-21
-4.80911e-22
-3.63791e-23
-1.17387e-20
-9.58526e-22
-6.96089e-23
-4.40787e-24
-2.31644e-21
-1.57093e-22
-9.63878e-24
-5.2484e-25
-4.02285e-22
-2.24981e-23
-1.15356e-24
-5.34183e-26
-5.87775e-23
-2.77602e-24
-1.21596e-25
-4.87389e-27
-7.09318e-24
-2.85489e-25
-1.07826e-26
-3.77412e-28
-6.9207e-25
-2.4346e-26
-8.11216e-28
-2.52755e-29
-5.62125e-26
-1.77378e-27
-5.3148e-29
-1.49391e-30
-3.95698e-27
-1.13353e-28
-3.07557e-30
-7.82714e-32
-2.5868e-28
-6.63041e-30
-1.60553e-31
-3.65494e-33
-1.39286e-29
-3.17071e-31
-6.83349e-33
-1.39245e-34
-5.83238e-31
-1.1875e-32
-2.29712e-34
-4.23139e-36
-1.97897e-32
-3.50741e-34
-5.97305e-36
-9.86876e-38
-6.23649e-34
-9.62445e-36
-1.44728e-37
-2.14687e-39
-1.80631e-35
-2.4329e-37
-3.24306e-39
-4.33885e-41
-4.77073e-37
-5.62256e-39
-6.67335e-41
-8.08716e-43
-1.13655e-38
-1.17795e-40
-1.25151e-42
-1.38121e-44
-2.41322e-40
-2.21373e-42
-2.11813e-44
-2.14054e-46
-4.5282e-42
-3.70564e-44
-3.21652e-46
-2.99432e-48
-7.41685e-44
-5.46552e-46
-4.33662e-48
-3.74234e-50
-1.05401e-45
-7.06684e-48
-5.16888e-50
-4.16302e-52
-1.29119e-47
-7.96147e-50
-5.41264e-52
-4.09597e-54
-1.35764e-49
-7.7851e-52
-4.96302e-54
-3.55402e-56
-1.22218e-51
-6.59022e-54
-3.97401e-56
-2.71191e-58
-9.39932e-54
-4.82005e-56
-2.77416e-58
-1.8173e-60
-6.17613e-56
-3.04567e-58
-1.68799e-60
-1.06923e-62
-3.46685e-58
-1.66268e-60
-8.95434e-63
-5.52599e-65
-1.66636e-60
-7.85856e-63
-4.14935e-65
-2.51349e-67
-6.87125e-63
-3.22221e-65
-1.68322e-67
-1.00851e-69
-2.44169e-65
-1.15099e-67
-6.0019e-70
-3.58385e-72
-7.50921e-68
-3.59698e-70
-1.88929e-72
-1.13283e-74
-2.01243e-70
-9.89868e-73
-5.28323e-75
-3.20452e-77
-4.73389e-73
-2.41558e-75
-1.32148e-77
-8.16627e-80
-9.87003e-76
-5.27541e-78
-2.98246e-80
-1.89045e-82
-1.84367e-78
-1.0415e-80
-6.13193e-83
-4.01158e-85
-3.12643e-81
-1.88166e-83
-1.16168e-85
-7.88737e-88
-4.88235e-84
-3.15203e-86
-2.05261e-88
-1.45309e-90
-7.13873e-87
-4.96997e-89
-3.42975e-91
-2.54078e-93
-9.92799e-90
-7.47939e-92
-5.48717e-94
-4.26384e-96
-5.20515e-23
-1.36316e-24
-2.48226e-26
-3.47712e-28
-3.86245e-30
-3.55763e-32
-2.747e-34
-1.80266e-36
-1.00651e-38
-4.7873e-41
-1.93027e-43
-6.55372e-46
-1.85166e-48
-4.28251e-51
-7.90888e-54
-1.12355e-56
-1.15455e-59
-7.65189e-63
-2.46011e-66
-7.98361e-23
-2.1523e-24
-3.90789e-26
-5.21468e-28
-5.43803e-30
-4.65534e-32
-3.32845e-34
-2.02115e-36
-1.0452e-38
-4.61407e-41
-1.73091e-43
-5.48287e-46
-1.44921e-48
-3.14416e-51
-5.46104e-54
-7.31408e-57
-7.10173e-60
-4.45768e-63
-1.36053e-66
-1.04367e-23
-2.3827e-25
-4.11838e-27
-5.67886e-29
-6.25994e-31
-5.65417e-33
-4.21187e-35
-2.62161e-37
-1.36972e-39
-6.03275e-42
-2.23527e-44
-6.93842e-47
-1.78671e-49
-3.76198e-52
-6.32919e-55
-8.21463e-58
-7.74987e-61
-4.73723e-64
-1.41053e-67
-1.4091e-24
-3.03811e-26
-5.04531e-28
-6.64598e-30
-7.02392e-32
-6.08911e-34
-4.37392e-36
-2.63603e-38
-1.33804e-40
-5.74072e-43
-2.07651e-45
-6.30342e-48
-1.58948e-50
-3.27994e-53
-5.40883e-56
-6.87344e-59
-6.33401e-62
-3.77627e-65
-1.09598e-68
-1.46271e-25
-2.81727e-27
-4.35113e-29
-5.46699e-31
-5.6123e-33
-4.77341e-35
-3.38045e-37
-2.00998e-39
-1.00578e-41
-4.24519e-44
-1.50764e-46
-4.48436e-49
-1.10627e-51
-2.23048e-54
-3.59062e-57
-4.45121e-60
-4.00004e-63
-2.32533e-66
-6.58205e-70
-1.52631e-26
-2.64396e-28
-3.76163e-30
-4.41167e-32
-4.27568e-34
-3.45585e-36
-2.33917e-38
-1.33454e-40
-6.42851e-43
-2.61837e-45
-8.99161e-48
-2.59019e-50
-6.19689e-53
-1.21302e-55
-1.8977e-58
-2.28827e-61
-2.00185e-64
-1.13377e-67
-3.12914e-71
-1.34293e-27
-2.06504e-29
-2.67256e-31
-2.90753e-33
-2.65437e-35
-2.04244e-37
-1.32633e-39
-7.29421e-42
-3.3983e-44
-1.34113e-46
-4.46821e-49
-1.24964e-51
-2.90445e-54
-5.52566e-57
-8.40598e-60
-9.86083e-63
-8.39675e-66
-4.6315e-69
-1.24564e-72
-1.07313e-28
-1.47204e-30
-1.73022e-32
-1.73366e-34
-1.47545e-36
-1.0681e-38
-6.57658e-41
-3.4498e-43
-1.54054e-45
-5.84922e-48
-1.88059e-50
-5.08723e-53
-1.14577e-55
-2.11524e-58
-3.12604e-61
-3.56542e-64
-2.95383e-67
-1.58594e-70
-4.15359e-74
-7.32826e-30
-9.00786e-32
-9.63697e-34
-8.9148e-36
-7.08888e-38
-4.84062e-40
-2.83271e-42
-1.42013e-44
-6.08722e-47
-2.22528e-49
-6.90468e-52
-1.80547e-54
-3.93546e-57
-7.03717e-60
-1.00796e-62
-1.11465e-65
-8.95643e-69
-4.66496e-72
-1.18546e-75
-4.39367e-31
-4.88887e-33
-4.78873e-35
-4.09703e-37
-3.04068e-39
-1.95248e-41
-1.08136e-43
-5.15697e-46
-2.11153e-48
-7.39717e-51
-2.20503e-53
-5.54942e-56
-1.16584e-58
-2.01118e-61
-2.78107e-64
-2.9705e-67
-2.30622e-70
-1.16089e-73
-2.85167e-77
-2.34493e-32
-2.37318e-34
-2.13207e-36
-1.68716e-38
-1.16698e-40
-7.02971e-43
-3.67249e-45
-1.65936e-47
-6.46015e-50
-2.15775e-52
-6.14596e-55
-1.48043e-57
-2.98078e-60
-4.93343e-63
-6.55081e-66
-6.72393e-69
-5.01988e-72
-2.4314e-75
-5.75041e-79
-1.11015e-33
-1.02144e-35
-8.40147e-38
-6.12828e-40
-3.93247e-42
-2.21025e-44
-1.08282e-46
-4.60794e-49
-1.69577e-51
-5.37058e-54
-1.45419e-56
-3.33704e-59
-6.41257e-62
-1.01448e-64
-1.28933e-67
-1.26817e-70
-9.08244e-74
-4.22438e-77
-9.60359e-81
-4.6355e-35
-3.84769e-37
-2.87825e-39
-1.92421e-41
-1.13937e-43
-5.94581e-46
-2.71893e-48
-1.08504e-50
-3.75945e-53
-1.12485e-55
-2.8859e-58
-6.29109e-61
-1.15097e-63
-1.73698e-66
-2.1096e-69
-1.98607e-72
-1.36346e-75
-6.08739e-79
-1.33024e-82
-1.57864e-36
-1.1849e-38
-8.08445e-41
-4.9663e-43
-2.71881e-45
-1.31919e-47
-5.63593e-50
-2.11057e-52
-6.88822e-55
-1.94799e-57
-4.73773e-60
-9.81663e-63
-1.71103e-65
-2.46528e-68
-2.864e-71
-2.58359e-74
-1.70233e-77
-7.30586e-81
-1.53694e-84
-4.3124e-38
-2.95123e-40
-1.84847e-42
-1.04891e-44
-5.33018e-47
-2.41234e-49
-9.65328e-52
-3.3996e-54
-1.04708e-56
-2.80362e-59
-6.47461e-62
-1.27721e-64
-2.12441e-67
-2.92732e-70
-3.25875e-73
-2.82211e-76
-1.78816e-79
-7.39201e-83
-1.50021e-86
-9.11038e-40
-5.78263e-42
-3.36812e-44
-1.78364e-46
-8.48428e-49
-3.60702e-51
-1.36011e-53
-4.528e-56
-1.32213e-58
-3.36533e-61
-7.40649e-64
-1.39561e-66
-2.22211e-69
-2.93685e-72
-3.14153e-75
-2.61878e-78
-1.59982e-81
-6.38637e-85
-1.25356e-88
-1.75392e-41
-9.7409e-44
-5.03012e-46
-2.50312e-48
-1.12105e-50
-4.50039e-53
-1.60626e-55
-5.07547e-58
-1.41007e-60
-3.42353e-63
-7.20311e-66
-1.30039e-68
-1.98768e-71
-2.52664e-74
-2.60404e-77
-2.09489e-80
-1.23703e-83
-4.78031e-87
-9.09688e-91
-3.1613e-43
-1.54382e-45
-7.07912e-48
-3.14762e-50
-1.26652e-52
-4.70619e-55
-1.599e-57
-4.82239e-60
-1.28115e-62
-2.9804e-65
-6.01945e-68
-1.04505e-70
-1.53875e-73
-1.88725e-76
-1.8796e-79
-1.46336e-82
-8.37445e-86
-3.14072e-89
-5.80846e-93
-5.29313e-45
-2.28543e-47
-9.35765e-50
-3.73799e-52
-1.35907e-54
-4.60137e-57
-1.42952e-59
-3.96569e-62
-1.00916e-64
-2.25704e-67
-4.38993e-70
-7.35181e-73
-1.04579e-75
-1.24099e-78
-1.1975e-81
-9.04517e-85
-5.02847e-88
-1.83432e-91
-3.30374e-95
-8.18645e-47
-3.14469e-49
-1.15663e-51
-4.17487e-54
-1.37949e-56
-4.2765e-59
-1.22107e-61
-3.13103e-64
-7.4038e-67
-1.54528e-69
-2.82245e-72
-4.57532e-75
-6.30787e-78
-7.26369e-81
-6.80948e-84
-5.00273e-87
-2.70811e-90
-9.6303e-94
-1.69299e-97
-1.15806e-48
-3.98899e-51
-1.32772e-53
-4.35965e-56
-1.31761e-58
-3.76093e-61
-9.92385e-64
-2.36375e-66
-5.21683e-69
-1.02029e-71
-1.75576e-74
-2.69065e-77
-3.52189e-80
-3.86715e-83
-3.49551e-86
-2.50313e-89
-1.32212e-92
-4.59147e-96
-7.889e-100
-1.49216e-50
-4.64672e-53
-1.41054e-55
-4.24255e-58
-1.18048e-60
-3.12051e-63
-7.6517e-66
-1.70158e-68
-3.52061e-71
-6.47932e-74
-1.05438e-76
-1.53276e-79
-1.91066e-82
-2.00585e-85
-1.74172e-88
-1.20183e-91
-6.14025e-95
-2.07055e-98
-3.4674e-102
-1.73355e-52
-4.93083e-55
-1.37773e-57
-3.82644e-60
-9.87439e-63
-2.4331e-65
-5.57762e-68
-1.16432e-70
-2.26925e-73
-3.94729e-76
-6.09722e-79
-8.43788e-82
-1.00483e-84
-1.01132e-87
-8.45488e-91
-5.63266e-94
-2.78801e-97
-9.1396e-101
-1.49294e-104
-1.81038e-54
-4.75321e-57
-1.23412e-59
-3.19098e-62
-7.69376e-65
-1.77885e-67
-3.83539e-70
-7.55682e-73
-1.39415e-75
-2.30232e-78
-3.3889e-81
-4.48055e-84
-5.11339e-87
-4.94729e-90
-3.99077e-93
-2.57183e-96
-1.23519e-99
-3.94099e-103
-6.28471e-107
-1.68802e-56
-4.13857e-59
-1.00886e-61
-2.45034e-64
-5.56451e-67
-1.21584e-69
-2.48146e-72
-4.64126e-75
-8.14686e-78
-1.28318e-80
-1.80717e-83
-2.29097e-86
-2.51365e-89
-2.34436e-92
-1.82874e-95
-1.14224e-98
-5.33128e-102
-1.65749e-105
-2.58254e-109
-1.40203e-58
-3.24851e-61
-7.51406e-64
-1.73002e-66
-3.73035e-69
-7.75823e-72
-1.50851e-74
-2.69385e-77
-4.52211e-80
-6.8246e-83
-9.23371e-86
-1.12648e-88
-1.19205e-91
-1.07466e-94
-8.12503e-98
-4.92821e-101
-2.23879e-104
-6.79015e-108
-1.03449e-111
-1.034e-60
-2.29216e-63
-5.08592e-66
-1.12052e-68
-2.31342e-71
-4.61387e-74
-8.60352e-77
-1.47558e-79
-2.38135e-82
-3.45962e-85
-4.51547e-88
-5.32061e-91
-5.4476e-94
-4.76023e-97
-3.49625e-100
-2.06327e-103
-9.13676e-107
-2.70642e-110
-4.0348e-114
-6.76403e-63
-1.45279e-65
-3.1265e-68
-6.65447e-71
-1.32659e-73
-2.55608e-76
-4.60119e-79
-7.62377e-82
-1.18901e-84
-1.67058e-87
-2.11199e-90
-2.41226e-93
-2.3972e-96
-2.03586e-99
-1.45589e-102
-8.37505e-106
-3.62063e-109
-1.04859e-112
-1.53081e-116
-3.92282e-65
-8.26698e-68
-1.74472e-70
-3.62191e-73
-7.03096e-76
-1.31864e-78
-2.30662e-81
-3.71404e-84
-5.62694e-87
-7.68137e-90
-9.44438e-93
-1.04937e-95
-1.0153e-98
-8.40254e-102
-5.86355e-105
-3.29403e-108
-1.39224e-111
-3.94656e-115
-5.6459e-119
-2.01818e-67
-4.22676e-70
-8.84489e-73
-1.80801e-75
-3.44639e-78
-6.33791e-81
-1.08436e-83
-1.70659e-86
-2.52453e-89
-3.36348e-92
-4.03794e-95
-4.37977e-98
-4.13818e-101
-3.34602e-104
-2.28342e-107
-1.25497e-110
-5.19308e-114
-1.44232e-117
-2.02334e-121
-9.22641e-70
-1.9447e-72
-4.07882e-75
-8.28722e-78
-1.56399e-80
-2.84071e-83
-4.78413e-86
-7.40126e-89
-1.07435e-91
-1.40317e-94
-1.65122e-97
-1.75428e-100
-1.6234e-103
-1.28569e-106
-8.59828e-110
-4.63116e-113
-1.87876e-116
-5.11771e-120
-7.04458e-124
-3.75709e-72
-8.07076e-75
-1.71479e-77
-3.49497e-80
-6.58279e-83
-1.18922e-85
-1.98365e-88
-3.03315e-91
-4.34123e-94
-5.58184e-97
-6.4627e-100
-6.74726e-103
-6.13259e-106
-4.76859e-109
-3.13155e-112
-1.65571e-115
-6.59362e-119
-1.76323e-122
-2.38303e-126
-1.36786e-74
-3.03157e-77
-6.59213e-80
-1.35978e-82
-2.57591e-85
-4.65976e-88
-7.74403e-91
-1.17653e-93
-1.66801e-96
-2.11993e-99
-2.42355e-102
-2.49419e-105
-2.23255e-108
-1.70836e-111
-1.10376e-114
-5.73761e-118
-2.24575e-121
-5.90099e-125
-7.83508e-129
-4.4716e-77
-1.03483e-79
-2.32587e-82
-4.89712e-85
-9.39944e-88
-1.71353e-90
-2.8532e-93
-4.32845e-96
-6.10503e-99
-7.69898e-102
-8.72001e-105
-8.87209e-108
-7.84057e-111
-5.91693e-114
-3.76796e-117
-1.92857e-120
-7.42782e-124
-1.91946e-127
-2.50517e-131
-1.32011e-79
-3.22675e-82
-7.56647e-85
-1.63924e-87
-3.21002e-90
-5.9327e-93
-9.94969e-96
-1.5142e-98
-2.13334e-101
-2.67901e-104
-3.01557e-107
-3.04151e-110
-2.65999e-113
-1.98367e-116
-1.24717e-119
-6.29399e-123
-2.38791e-126
-6.0735e-130
-7.79584e-134
-3.54183e-82
-9.24384e-85
-2.28135e-87
-5.12364e-90
-1.03025e-92
-1.94104e-95
-3.29462e-98
-5.05132e-101
-7.1354e-104
-8.95201e-107
-1.00432e-109
-1.00666e-112
-8.73128e-116
-6.44628e-119
-4.00762e-122
-1.99668e-125
-7.4697e-129
-1.87134e-132
-2.36351e-136
-8.70344e-85
-2.4498e-87
-6.41421e-90
-1.50354e-92
-3.12251e-95
-6.02698e-98
-1.03986e-100
-1.61237e-103
-2.29122e-106
-2.88027e-109
-3.22893e-112
-3.22356e-115
-2.77824e-118
-2.03405e-121
-1.25217e-124
-6.16601e-128
-2.27664e-131
-5.62167e-135
-6.98951e-139
-1.97521e-87
-6.05063e-90
-1.69268e-92
-4.16627e-95
-8.98264e-98
-1.78403e-100
-3.14085e-103
-4.94192e-106
-7.08545e-109
-8.94792e-112
-1.00464e-114
-1.00095e-117
-8.58681e-121
-6.24349e-124
-3.81062e-127
-1.85652e-130
-6.77083e-134
-1.64894e-137
-2.01906e-141
-4.18077e-90
-1.40468e-92
-4.22426e-95
-1.09737e-97
-2.46711e-100
-5.06056e-103
-9.12069e-106
-1.46044e-108
-2.11792e-111
-2.69284e-114
-3.03387e-117
-3.0217e-120
-2.58397e-123
-1.86823e-126
-1.13167e-129
-5.45962e-133
-1.96816e-136
-4.72994e-140
-5.86766e-144
-8.33644e-93
-3.09199e-95
-1.00451e-97
-2.76571e-100
-6.50713e-103
-1.38266e-105
-2.5579e-108
-4.17796e-111
-6.14098e-114
-7.8754e-117
-8.91778e-120
-8.89146e-123
-7.58854e-126
-5.46154e-129
-3.28639e-132
-1.57122e-135
-5.60221e-139
-1.32923e-142
-3.42977e-146
-1.58411e-95
-6.51746e-98
-2.29576e-100
-6.72017e-103
-1.65914e-105
-3.66008e-108
-6.96403e-111
-1.16234e-113
-1.7343e-116
-2.24639e-119
-2.55973e-122
-2.55765e-125
-2.18065e-128
-1.56359e-131
-9.35303e-135
-4.4342e-138
-1.56457e-141
-5.50063e-145
-2.08294e-148
-2.89575e-98
-1.32551e-100
-5.07348e-103
-1.58195e-105
-4.10545e-108
-9.41588e-111
-1.845e-113
-3.15046e-116
-4.77687e-119
-6.25528e-122
-7.17877e-125
-7.19378e-128
-6.1314e-131
-4.3827e-134
-2.60748e-137
-1.22639e-140
-4.46773e-144
-3.38579e-147
-1.2655e-150
)
;

boundaryField
{
    leftWall
    {
        type            calculated;
        value           nonuniform List<scalar> 
50
(
-29.4294
-88.2881
-147.147
-206.006
-264.864
-323.723
-382.582
-441.44
-533.467
-658.662
-783.856
-909.051
-1034.25
-1159.44
-1284.63
-1409.83
-1535.02
-1660.22
-1785.41
-1910.61
-2035.8
-2161
-2286.19
-2411.38
-2528.91
-1959.51
-230.692
2.6814e-34
-4.34154e-16
-3.95824e-28
-3.77591e-30
-2.9967e-38
-4.15155e-43
-1.70781e-47
-4.66699e-51
-1.37971e-55
-6.83595e-63
-1.55858e-67
-3.78671e-77
-5.06047e-83
-5.45724e-89
-7.1964e-95
-3.52925e-101
-1.73168e-107
-1.3896e-117
-5.17826e-125
-1.06715e-131
-9.05982e-141
-2.71946e-149
-7.79001e-162
)
;
    }
    rightWall
    {
        type            calculated;
        value           nonuniform List<scalar> 
50
(
-2.38663e-85
-2.88582e-82
-2.00451e-79
-7.33209e-77
-1.94217e-74
-3.27499e-72
-4.90468e-70
-4.24614e-68
-2.46011e-66
-1.36053e-66
-1.41053e-67
-1.09598e-68
-6.58205e-70
-3.12914e-71
-1.24564e-72
-4.15359e-74
-1.18546e-75
-2.85167e-77
-5.75041e-79
-9.60359e-81
-1.33024e-82
-1.53694e-84
-1.50021e-86
-1.25356e-88
-9.09688e-91
-5.80846e-93
-3.30374e-95
-1.69299e-97
-7.889e-100
-3.4674e-102
-1.49294e-104
-6.28471e-107
-2.58254e-109
-1.03449e-111
-4.0348e-114
-1.53081e-116