/*--------------------------------*- C++ -*----------------------------------*\
| =========                 |                                                 |
| \\      /  F ield         | OpenFOAM: The Open Source CFD Toolbox           |
|  \\    /   O peration     | Version:  2012                                  |
|   \\  /    A nd           | Website:  www.openfoam.com                      |
|    \\/     M anipulation  |                                                 |
\*---------------------------------------------------------------------------*/
FoamFile
{
    version     2.0;
    format      ascii;
    class       volVectorField;
    location    "0.06";
    object      U;
}
// * * * * * * * * * * * * * * * * * * * * * * * * * * * * * * * * * * * * * //

dimensions      [0 1 -1 0 0 0 0];


internalField   nonuniform List<vector> 
2268
(
(0.0226043 -0.0101058 0)
(0.0629303 -0.0102114 0)
(0.108946 -0.0105237 0)
(0.152073 -0.0108657 0)
(0.20075 -0.0115532 0)
(0.249991 -0.0122476 0)
(0.304152 -0.0134187 0)
(0.363786 -0.0147735 0)
(0.428725 -0.0167031 0)
(0.505384 -0.0191663 0)
(0.590676 -0.02282 0)
(0.69812 -0.0312325 0)
(0.847171 -0.0384598 0)
(1.00952 -0.0339242 0)
(1.13314 -0.027326 0)
(1.24649 -0.0308122 0)
(1.35981 -0.0256381 0)
(1.43231 0.0310951 0)
(1.11813 0.0934163 0)
(0.747955 0.0863688 0)
(0.492738 0.0562623 0)
(0.288146 0.0434162 0)
(0.0938213 0.0408411 0)
(0.022555 -0.0303058 0)
(0.0627322 -0.0306228 0)
(0.108644 -0.0315574 0)
(0.15158 -0.0325833 0)
(0.200126 -0.0346414 0)
(0.249091 -0.03672 0)
(0.303011 -0.0402265 0)
(0.362242 -0.044277 0)
(0.42668 -0.0499733 0)
(0.502425 -0.0577024 0)
(0.587909 -0.0678203 0)
(0.69123 -0.0903415 0)
(0.830142 -0.108883 0)
(0.976305 -0.102067 0)
(1.11797 -0.0857889 0)
(1.25565 -0.0869583 0)
(1.37407 -0.0445984 0)
(1.33076 0.0837809 0)
(1.00695 0.220057 0)
(0.707811 0.211752 0)
(0.481848 0.16171 0)
(0.28604 0.145886 0)
(0.093401 0.139828 0)
(0.0224566 -0.0503994 0)
(0.0623356 -0.0509248 0)
(0.108042 -0.0524641 0)
(0.150591 -0.0541608 0)
(0.198883 -0.0575519 0)
(0.247279 -0.0609715 0)
(0.300753 -0.0667489 0)
(0.359079 -0.0734006 0)
(0.422675 -0.0826884 0)
(0.496459 -0.0956847 0)
(0.581006 -0.111617 0)
(0.679289 -0.145884 0)
(0.806501 -0.173599 0)
(0.940475 -0.171106 0)
(1.08652 -0.161456 0)
(1.2437 -0.154315 0)
(1.37141 -0.0493198 0)
(1.18251 0.201463 0)
(0.842191 0.378457 0)
(0.629791 0.331303 0)
(0.445604 0.25296 0)
(0.273816 0.225703 0)
(0.0918975 0.219086 0)
(0.0223111 -0.0703685 0)
(0.0617509 -0.0710996 0)
(0.107154 -0.0732224 0)
(0.149134 -0.0755794 0)
(0.197069 -0.0802528 0)
(0.244596 -0.0849755 0)
(0.297493 -0.0929171 0)
(0.354373 -0.102103 0)
(0.416897 -0.114642 0)
(0.487816 -0.132863 0)
(0.570098 -0.15386 0)
(0.662577 -0.197133 0)
(0.777098 -0.232851 0)
(0.898437 -0.236186 0)
(1.04247 -0.233612 0)
(1.19218 -0.215631 0)
(1.3008 -0.00495019 0)
(0.957166 0.331964 0)
(0.702688 0.482597 0)
(0.572464 0.404931 0)
(0.418933 0.33309 0)
(0.263857 0.315819 0)
(0.0891199 0.314089 0)
(0.022117 -0.090113 0)
(0.0609764 -0.0910448 0)
(0.105978 -0.0937128 0)
(0.147199 -0.0967123 0)
(0.194675 -0.102573 0)
(0.241019 -0.108543 0)
(0.293241 -0.118453 0)
(0.348101 -0.130038 0)
(0.40935 -0.145443 0)
(0.476733 -0.168379 0)
(0.555183 -0.193807 0)
(0.642101 -0.243824 0)
(0.742923 -0.285933 0)
(0.853306 -0.299394 0)
(0.995042 -0.304927 0)
(1.13301 -0.261754 0)
(1.1215 0.0720045 0)
(0.742187 0.472353 0)
(0.610655 0.552426 0)
(0.528435 0.463794 0)
(0.404935 0.394554 0)
(0.269875 0.379011 0)
(0.0971899 0.383419 0)
(0.0218789 -0.109633 0)
(0.0600363 -0.11076 0)
(0.10455 -0.113935 0)
(0.144853 -0.117561 0)
(0.191791 -0.124509 0)
(0.236692 -0.131689 0)
(0.288195 -0.143355 0)
(0.340592 -0.157228 0)
(0.400379 -0.175153 0)
(0.463844 -0.202135 0)
(0.537247 -0.23171 0)
(0.618974 -0.286137 0)
(0.704482 -0.334078 0)
(0.80512 -0.360683 0)
(0.939006 -0.365863 0)
(1.06054 -0.265088 0)
(0.879915 0.179758 0)
(0.588798 0.571586 0)
(0.535903 0.583919 0)
(0.475829 0.508092 0)
(0.37469 0.457868 0)
(0.252091 0.466606 0)
(0.0869673 0.491471 0)
(0.0215922 -0.12881 0)
(0.0589158 -0.130128 0)
(0.102841 -0.133752 0)
(0.14205 -0.13799 0)
(0.188344 -0.145876 0)
(0.231511 -0.154225 0)
(0.2822 -0.16734 0)
(0.331605 -0.183292 0)
(0.389671 -0.203318 0)
(0.448655 -0.233378 0)
(0.516288 -0.2666 0)
(0.592277 -0.323096 0)
(0.661877 -0.375677 0)
(0.753341 -0.416096 0)
(0.861215 -0.415993 0)
(0.961743 -0.233314 0)
(0.661175 0.294919 0)
(0.505291 0.627152 0)
(0.487844 0.602631 0)
(0.453145 0.537159 0)
(0.383917 0.4948 0)
(0.287887 0.508444 0)
(0.114327 0.536007 0)
(0.0212582 -0.147676 0)
(0.0576441 -0.149176 0)
(0.100887 -0.153199 0)
(0.138874 -0.158018 0)
(0.184439 -0.166711 0)
(0.225692 -0.176176 0)
(0.275495 -0.19047 0)
(0.321734 -0.208297 0)
(0.377968 -0.230128 0)
(0.432481 -0.262447 0)
(0.494528 -0.299074 0)
(0.564094 -0.355756 0)
(0.620089 -0.412764 0)
(0.700439 -0.458968 0)
(0.768882 -0.453645 0)
(0.85227 -0.170486 0)
(0.491453 0.397213 0)
(0.445695 0.65209 0)
(0.435218 0.610012 0)
(0.420044 0.562334 0)
(0.368194 0.540683 0)
(0.292547 0.606017 0)
(0.119288 0.696483 0)
(0.0086773 -0.00129418 0)
(0.0525874 -0.00506601 0)
(0.0783892 -0.00155883 0)
(0.0922005 -0.00157919 0)
(0.102868 7.66347e-05 0)
(0.100905 0.000520554 0)
(0.100901 0.00113538 0)
(0.0934213 0.00141523 0)
(0.0880991 0.00163964 0)
(0.0791203 0.00174458 0)
(0.0716494 0.00180326 0)
(0.0625772 0.00182323 0)
(0.0544042 0.00182342 0)
(0.0456036 0.00181173 0)
(0.0373125 0.00179463 0)
(0.0288086 0.00177687 0)
(0.0205794 0.00176136 0)
(0.0122793 0.00175018 0)
(0.00411453 0.0017443 0)
(0.00718646 -0.0248528 0)
(0.0522978 -0.0252377 0)
(0.0797509 -0.0148198 0)
(0.0928455 -0.00948743 0)
(0.103745 -0.00328983 0)
(0.101407 -0.000174105 0)
(0.101273 0.00240265 0)
(0.0936174 0.00373367 0)
(0.0882322 0.0046478 0)
(0.0791885 0.00509696 0)
(0.0716823 0.0053413 0)
(0.0625847 0.00543484 0)
(0.0543985 0.00545068 0)
(0.0455909 0.00542192 0)
(0.037298 0.00537527 0)
(0.0287949 0.00532512 0)
(0.0205685 0.0052808 0)
(0.0122723 0.00524865 0)
(0.00411213 0.00523168 0)
(0.00857278 -0.0252893 0)
(0.0568519 -0.0363041 0)
(0.0851032 -0.0176879 0)
(0.097134 -0.0122637 0)
(0.106855 -0.00280961 0)
(0.10344 0.00118362 0)
(0.102537 0.00490164 0)
(0.094348 0.00671417 0)
(0.0886591 0.00801449 0)
(0.0794106 0.00864716 0)
(0.0717919 0.00898426 0)
(0.0626222 0.00910396 0)
(0.0543999 0.0091093 0)
(0.0455714 0.00905086 0)
(0.0372712 0.00896572 0)
(0.0287679 0.00887775 0)
(0.0205465 0.00880085 0)
(0.0122581 0.00874556 0)
(0.0041072 0.00871643 0)
(0.00319775 -0.0542432 0)
(0.0547294 -0.0588057 0)
(0.0893086 -0.0320363 0)
(0.0991397 -0.0195693 0)
(0.109507 -0.0057199 0)
(0.1047 0.00107571 0)
(0.10363 0.00652636 0)
(0.0949182 0.00929603 0)
(0.0890296 0.0111716 0)
(0.0795929 0.0120986 0)
(0.0718742 0.0125786 0)
(0.0626343 0.0127493 0)
(0.0543762 0.0127539 0)
(0.045529 0.0126695 0)
(0.0372245 0.0125477 0)
(0.0287246 0.012423 0)
(0.0205123 0.0123143 0)
(0.0122364 0.0122364 0)
(0.00409974 0.0121953 0)
(0.00689518 -0.0466663 0)
(0.0674685 -0.0733184 0)
(0.101036 -0.0348053 0)
(0.108382 -0.0212745 0)
(0.11567 -0.00419377 0)
(0.108622 0.0033825 0)
(0.106067 0.00960039 0)
(0.0963129 0.0127229 0)
(0.089828 0.0148005 0)
(0.0800003 0.0158268 0)
(0.0720678 0.0163265 0)
(0.0626928 0.016483 0)
(0.0543668 0.0164461 0)
(0.0454829 0.0163143 0)
(0.0371667 0.0161416 0)
(0.0286685 0.0159721 0)
(0.0204671 0.0158261 0)
(0.0122074 0.0157226 0)
(0.00408973 0.0156682 0)
(-0.00466821 -0.0896588 0)
(0.0608791 -0.100019 0)
(0.109651 -0.04986 0)
(0.111938 -0.0266556 0)
(0.119993 -0.00571178 0)
(0.110577 0.00449747 0)
(0.107644 0.0119443 0)
(0.0971256 0.015826 0)
(0.0903278 0.0182474 0)
(0.0802282 0.0194641 0)
(0.072151 0.0200236 0)
(0.0626797 0.0201889 0)
(0.0543048 0.0201198 0)
(0.0453981 0.0199451 0)
(0.037079 0.0197228 0)
(0.0285901 0.0195094 0)
(0.0204062 0.0193263 0)
(0.0121692 0.0191975 0)
(0.00407659 0.0191297 0)
(0.0275706 -0.0641902 0)
(0.0931583 -0.123374 0)
(0.130705 -0.0542229 0)
(0.126831 -0.0263105 0)
(0.128976 -0.00247633 0)
(0.116166 0.00835521 0)
(0.110911 0.0159172 0)
(0.0989922 0.0199225 0)
(0.0913654 0.0222792 0)
(0.0807457 0.0234605 0)
(0.0723784 0.0239299 0)
(0.0627299 0.0240189 0)
(0.0542648 0.0238621 0)
(0.045313 0.0236129 0)
(0.0369818 0.0233206 0)
(0.0284996 0.0230512 0)
(0.0203345 0.0228234 0)
(0.0121238 0.0226649 0)
(0.00406091 0.0225819 0)
(0.135334 -0.147397 0)
(0.109658 -0.14407 0)
(0.155251 -0.0643656 0)
(0.132667 -0.0265648 0)
(0.13451 -0.00106233 0)
(0.118545 0.0115126 0)
(0.112584 0.0193925 0)
(0.0998252 0.0237443 0)
(0.0918172 0.0261167 0)
(0.0809116 0.0273382 0)
(0.0723865 0.0277553 0)
(0.0626438 0.0277971 0)
(0.0541321 0.0275673 0)
(0.0451657 0.0272528 0)
(0.03684 0.0268948 0)
(0.0283782 0.0265721 0)
(0.0202419 0.026301 0)
(0.0120664 0.0261137 0)
(0.00404127 0.0260157 0)
(0.0206913 -0.176489 0)
(0.0554978 -0.178266 0)
(0.0975901 -0.182804 0)
(0.133541 -0.188517 0)
(0.177886 -0.198198 0)
(0.216053 -0.209351 0)
(0.264327 -0.225 0)
(0.305765 -0.245389 0)
(0.359088 -0.269442 0)
(0.406583 -0.303965 0)
(0.461558 -0.344298 0)
(0.519511 -0.398952 0)
(0.561731 -0.459112 0)
(0.624701 -0.502696 0)
(0.662031 -0.496854 0)
(0.712675 -0.0567355 0)
(0.357043 0.531323 0)
(0.402644 0.65036 0)
(0.400737 0.61207 0)
(0.411067 0.566962 0)
(0.43543 0.550368 0)
(0.436708 0.611983 0)
(0.588025 0.70759 0)
(0.0197216 -0.213858 0)
(0.0520085 -0.215969 0)
(0.0921209 -0.220956 0)
(0.124908 -0.22774 0)
(0.167106 -0.238188 0)
(0.2007 -0.251271 0)
(0.246284 -0.267794 0)
(0.280907 -0.290738 0)
(0.329976 -0.316274 0)
(0.367167 -0.351867 0)
(0.414761 -0.393968 0)
(0.456401 -0.444646 0)
(0.488386 -0.505039 0)
(0.530096 -0.539387 0)
(0.552445 -0.5288 0)
(0.519508 0.117026 0)
(0.269241 0.642517 0)
(0.34283 0.619105 0)
(0.35029 0.596118 0)
(0.365166 0.537187 0)
(0.40142 0.513181 0)
(0.405669 0.482458 0)
(0.56191 0.488324 0)
(0.018608 -0.248618 0)
(0.0482339 -0.251001 0)
(0.0860626 -0.256176 0)
(0.115616 -0.263812 0)
(0.155309 -0.274467 0)
(0.184468 -0.28897 0)
(0.226958 -0.305488 0)
(0.255296 -0.329953 0)
(0.300025 -0.35537 0)
(0.327735 -0.390701 0)
(0.369828 -0.431579 0)
(0.396369 -0.477956 0)
(0.42356 -0.534267 0)
(0.445484 -0.553989 0)
(0.462936 -0.515235 0)
(0.315373 0.272756 0)
(0.23994 0.669984 0)
(0.28326 0.585948 0)
(0.318103 0.576984 0)
(0.327421 0.518514 0)
(0.372207 0.498195 0)
(0.380646 0.445237 0)
(0.466272 0.442704 0)
(0.0173735 -0.281088 0)
(0.0442891 -0.283676 0)
(0.0795797 -0.288868 0)
(0.10596 -0.297122 0)
(0.142863 -0.307644 0)
(0.167915 -0.323067 0)
(0.207069 -0.339102 0)
(0.229938 -0.364246 0)
(0.270418 -0.388619 0)
(0.290259 -0.423049 0)
(0.32795 -0.460919 0)
(0.342674 -0.50369 0)
(0.367705 -0.55355 0)
(0.375422 -0.56399 0)
(0.390663 -0.438583 0)
(0.157168 0.387391 0)
(0.224098 0.641392 0)
(0.223606 0.555834 0)
(0.279426 0.546357 0)
(0.279026 0.488564 0)
(0.325639 0.460968 0)
(0.328087 0.39802 0)
(0.37422 0.364981 0)
(0.0160451 -0.310621 0)
(0.0402671 -0.313339 0)
(0.0728287 -0.318406 0)
(0.0961742 -0.327028 0)
(0.130096 -0.337155 0)
(0.151449 -0.353017 0)
(0.187148 -0.368253 0)
(0.205373 -0.393307 0)
(0.24172 -0.416034 0)
(0.255255 -0.449005 0)
(0.289148 -0.483006 0)
(0.295029 -0.522527 0)
(0.31885 -0.564942 0)
(0.316887 -0.568755 0)
(0.323471 -0.312122 0)
(0.0725362 0.459696 0)
(0.20818 0.589512 0)
(0.179108 0.534126 0)
(0.24782 0.518608 0)
(0.242259 0.470966 0)
(0.285118 0.445286 0)
(0.286848 0.393859 0)
(0.312647 0.360888 0)
(0.0146853 -0.33782 0)
(0.0363461 -0.340604 0)
(0.0661079 -0.345475 0)
(0.0866497 -0.354252 0)
(0.117513 -0.363864 0)
(0.135616 -0.379767 0)
(0.167839 -0.394076 0)
(0.182197 -0.418443 0)
(0.214607 -0.439312 0)
(0.223324 -0.470541 0)
(0.253825 -0.500504 0)
(0.253569 -0.537226 0)
(0.276582 -0.572042 0)
(0.269632 -0.571399 0)
(0.268564 -0.181088 0)
(0.0400052 0.496733 0)
(0.18956 0.538563 0)
(0.142728 0.512347 0)
(0.21487 0.487363 0)
(0.203874 0.449828 0)
(0.241638 0.419124 0)
(0.243886 0.372836 0)
(0.261188 0.335562 0)
(0.0132713 -0.361901 0)
(0.0324301 -0.364687 0)
(0.0593031 -0.369294 0)
(0.0772259 -0.378028 0)
(0.105002 -0.387029 0)
(0.120288 -0.40266 0)
(0.149116 -0.415969 0)
(0.160345 -0.439276 0)
(0.189162 -0.458255 0)
(0.194307 -0.487697 0)
(0.221761 -0.513747 0)
(0.217409 -0.548224 0)
(0.239428 -0.576165 0)
(0.229904 -0.572073 0)
(0.224035 -0.0562988 0)
(0.0281172 0.513389 0)
(0.170312 0.501868 0)
(0.118531 0.496753 0)
(0.185909 0.464493 0)
(0.174775 0.437971 0)
(0.206853 0.406861 0)
(0.208763 0.370845 0)
(0.220068 0.336675 0)
(0.0119259 -0.383989 0)
(0.0288364 -0.386742 0)
(0.0529397 -0.3911 0)
(0.0685236 -0.399668 0)
(0.0933052 -0.408101 0)
(0.106136 -0.423226 0)
(0.131661 -0.435564 0)
(0.140291 -0.457581 0)
(0.165726 -0.474713 0)
(0.168149 -0.502248 0)
(0.192768 -0.524675 0)
(0.185819 -0.55694 0)
(0.206679 -0.578867 0)
(0.196624 -0.57203 0)
(0.185716 0.0545519 0)
(0.0254987 0.517544 0)
(0.1473 0.47066 0)
(0.0988371 0.482082 0)
(0.156525 0.441205 0)
(0.146183 0.423443 0)
(0.172285 0.389364 0)
(0.174751 0.359035 0)
(0.183874 0.325824 0)
(0.0105026 -0.402773 0)
(0.0251298 -0.40544 0)
(0.0463657 -0.409482 0)
(0.0597254 -0.417754 0)
(0.0815627 -0.425543 0)
(0.0922914 -0.440026 0)
(0.114755 -0.451366 0)
(0.1214 -0.472123 0)
(0.143875 -0.487517 0)
(0.144452 -0.513499 0)
(0.16658 -0.532772 0)
(0.158149 -0.563528 0)
(0.177579 -0.580609 0)
(0.167758 -0.570538 0)
(0.152885 0.153101 0)
(0.0264994 0.514469 0)
(0.121346 0.453129 0)
(0.0844293 0.469887 0)
(0.127825 0.427597 0)
(0.123446 0.414629 0)
(0.141903 0.381498 0)
(0.146568 0.356227 0)
(0.151855 0.32562 0)
(0.0092692 -0.420153 0)
(0.0220059 -0.42275 0)
(0.0406927 -0.426595 0)
(0.052136 -0.434581 0)
(0.0712182 -0.441914 0)
(0.0800612 -0.455704 0)
(0.0995321 -0.4662 0)
(0.104411 -0.485635 0)
(0.123932 -0.499419 0)
(0.123023 -0.523641 0)
(0.142615 -0.540056 0)
(0.133377 -0.568766 0)
(0.151383 -0.581717 0)
(0.142236 -0.5671 0)
(0.118924 0.231658 0)
(0.025377 0.515954 0)
(0.0952444 0.435695 0)
(0.070172 0.461121 0)
(0.101285 0.411651 0)
(0.100608 0.404301 0)
(0.113168 0.369618 0)
(0.119302 0.348206 0)
(0.122867 0.319084 0)
(0.00786235 -0.433998 0)
(0.0184837 -0.436462 0)
(0.0343808 -0.439958 0)
(0.0438808 -0.447539 0)
(0.0602196 -0.454236 0)
(0.0674316 -0.467282 0)
(0.084185 -0.476857 0)
(0.0878225 -0.495227 0)
(0.10483 -0.507536 0)
(0.103175 -0.530715 0)
(0.120617 -0.544786 0)
(0.111343 -0.57277 0)
(0.127737 -0.582274 0)
(0.119807 -0.558526 0)
(0.0808477 0.303862 0)
(0.025868 0.506507 0)
(0.0620878 0.429012 0)
(0.0583537 0.449106 0)
(0.0711781 0.405608 0)
(0.0813909 0.396939 0)
(0.0854186 0.365268 0)
(0.0960999 0.344684 0)
(0.0961893 0.317821 0)
(0.00680225 -0.447052 0)
(0.0159044 -0.449455 0)
(0.0295611 -0.45285 0)
(0.0375173 -0.460174 0)
(0.051328 -0.466598 0)
(0.0570298 -0.478988 0)
(0.0709847 -0.487954 0)
(0.0733399 -0.505221 0)
(0.0875444 -0.516312 0)
(0.0851232 -0.538019 0)
(0.100101 -0.550001 0)
(0.0909769 -0.576024 0)
(0.105923 -0.582922 0)
(0.0987561 -0.539534 0)
(0.0318906 0.354508 0)
(0.0246575 0.511965 0)
(0.0363621 0.418572 0)
(0.0459753 0.443888 0)
(0.0478473 0.39358 0)
(0.0607285 0.388113 0)
(0.0607705 0.355922 0)
(0.0721586 0.337646 0)
(0.0714519 0.312121 0)
(0.00542475 -0.4566 0)
(0.0125751 -0.458834 0)
(0.023544 -0.46184 0)
(0.0298122 -0.468687 0)
(0.0410936 -0.474432 0)
(0.0455813 -0.486104 0)
(0.0572121 -0.494216 0)
(0.058932 -0.51075 0)
(0.070961 -0.520659 0)
(0.0685022 -0.541979 0)
(0.081374 -0.552318 0)
(0.0727832 -0.578591 0)
(0.0856576 -0.583268 0)
(0.0802334 -0.501533 0)
(-0.0371534 0.401822 0)
(0.0281303 0.480844 0)
(-0.0111858 0.418864 0)
(0.0345472 0.429127 0)
(0.0149004 0.394544 0)
(0.0427071 0.381509 0)
(0.0344657 0.35429 0)
(0.0516458 0.333712 0)
(0.0480962 0.310207 0)
(0.00450655 -0.465392 0)
(0.0104118 -0.467609 0)
(0.0194712 -0.470625 0)
(0.0245772 -0.477351 0)
(0.0337296 -0.483051 0)
(0.0372304 -0.494321 0)
(0.0464772 -0.502129 0)
(0.0474725 -0.51783 0)
(0.0569222 -0.52689 0)
(0.0541574 -0.546984 0)
(0.0641969 -0.55565 0)
(0.0555312 -0.580107 0)
(0.0655783 -0.585608 0)
(0.0632913 -0.428135 0)
(-0.0496839 0.421504 0)
(0.0283975 0.480845 0)
(-0.0175929 0.415914 0)
(0.0200963 0.419535 0)
(-0.00199193 0.384197 0)
(0.0212424 0.370937 0)
(0.0127764 0.345186 0)
(0.0284452 0.325786 0)
(0.0260424 0.303702 0)
(0.00335771 -0.471736 0)
(0.00776455 -0.473816 0)
(0.0145226 -0.476528 0)
(0.0182957 -0.482846 0)
(0.0251305 -0.487973 0)
(0.0276615 -0.498667 0)
(0.0346103 -0.505678 0)
(0.0352171 -0.520875 0)
(0.0423709 -0.52883 0)
(0.0399849 -0.548597 0)
(0.0472843 -0.555456 0)
(0.039674 -0.579676 0)
(0.0445738 -0.590676 0)
(0.0474504 -0.388146 0)
(-0.14698 0.433834 0)
(0.0190635 0.444145 0)
(-0.0663933 0.424873 0)
(0.00442554 0.412593 0)
(-0.0344621 0.391204 0)
(0.00262497 0.36786 0)
(-0.011954 0.345221 0)
(0.00922631 0.321599 0)
(0.00493783 0.300658 0)
(0.00231238 -0.476085 0)
(0.00530816 -0.478147 0)
(0.00998767 -0.480855 0)
(0.0125839 -0.487054 0)
(0.0173363 -0.492163 0)
(0.0190526 -0.502577 0)
(0.0238214 -0.50947 0)
(0.0241567 -0.524113 0)
(0.0290821 -0.531559 0)
(0.0274542 -0.550282 0)
(0.032967 -0.555608 0)
(0.0280809 -0.576741 0)
(0.0299522 -0.598023 0)
(0.00297347 -0.219212 0)
(-0.0235137 0.442079 0)
(0.0165479 0.416104 0)
(-0.0453669 0.423923 0)
(-0.018509 0.397974 0)
(-0.047348 0.380053 0)
(-0.0244915 0.354046 0)
(-0.0332312 0.334839 0)
(-0.0156281 0.31169 0)
(-0.0161276 0.292373 0)
(0.00147599 -0.480614 0)
(0.00340874 -0.482636 0)
(0.00629102 -0.485217 0)
(0.00788723 -0.491252 0)
(0.0106835 -0.496053 0)
(0.0116836 -0.506182 0)
(0.0144225 -0.512592 0)
(0.0145774 -0.527072 0)
(0.017464 -0.534085 0)
(0.0168537 -0.553146 0)
(0.0209649 -0.55816 0)
(0.0211386 -0.576489 0)
(0.0381602 -0.566638 0)
(-0.0109834 -0.324292 0)
(-0.0416069 0.398436 0)
(-0.00340641 0.472102 0)
(-0.0826867 0.447238 0)
(-0.0376235 0.419698 0)
(-0.0745922 0.390741 0)
(-0.0440216 0.357584 0)
(-0.0557115 0.332904 0)
(-0.0342896 0.306661 0)
(-0.0348955 0.286431 0)
(0.000620079 -0.477981 0)
(0.00155731 -0.479851 0)
(0.00284817 -0.482343 0)
(0.00362 -0.488154 0)
(0.00468292 -0.492905 0)
(0.00509446 -0.502743 0)
(0.00589442 -0.509129 0)
(0.0059004 -0.523301 0)
(0.00690729 -0.530384 0)
(0.00769446 -0.549623 0)
(0.0158017 -0.556224 0)
(0.0387068 -0.588659 0)
(0.172967 -0.5624 0)
(-0.0164908 -0.152845 0)
(0.118167 0.464869 0)
(0.0624875 0.470777 0)
(-0.0999752 0.452086 0)
(-0.0752045 0.401916 0)
(-0.109045 0.378835 0)
(-0.0817233 0.341436 0)
(-0.0837615 0.320694 0)
(-0.0622118 0.293622 0)
(-0.0569261 0.275425 0)
(0.000295552 -0.484229 0)
(0.000723562 -0.486337 0)
(0.00102206 -0.488844 0)
(0.00125362 -0.49469 0)
(0.0013649 -0.499251 0)
(0.00146508 -0.509219 0)
(0.00155199 -0.515392 0)
(0.00198647 -0.530169 0)
(0.00399845 -0.538212 0)
(0.0139237 -0.56451 0)
(0.0395888 -0.590349 0)
(0.0759017 -0.735443 0)
(0.227825 -0.475412 0)
(0.337909 -0.326425 0)
(-0.0373747 0.306608 0)
(-0.0151671 0.704227 0)
(-0.149226 0.564905 0)
(-0.108375 0.438554 0)
(-0.137173 0.389192 0)
(-0.104077 0.337473 0)
(-0.103223 0.30985 0)
(-0.0793536 0.282416 0)
(-0.0721447 0.263759 0)
(-0.0123982 -0.481736 0)
(-0.0357976 -0.48334 0)
(-0.0617096 -0.485661 0)
(-0.0864592 -0.491217 0)
(-0.116299 -0.495944 0)
(-0.143408 -0.505685 0)
(-0.179512 -0.512667 0)
(-0.210082 -0.528814 0)
(-0.252315 -0.545567 0)
(-0.288677 -0.589193 0)
(-0.330802 -0.649511 0)
(-0.388684 -0.766943 0)
(-0.502596 -0.833394 0)
(-0.512519 0.165117 0)
(-0.715449 0.723507 0)
(-0.45767 0.637564 0)
(-0.347334 0.516641 0)
(-0.246231 0.404638 0)
(-0.210167 0.363725 0)
(-0.160028 0.312652 0)
(-0.139601 0.291237 0)
(-0.10989 0.264165 0)
(-0.0947578 0.248883 0)
(-0.0122815 -0.435944 0)
(-0.0359779 -0.436769 0)
(-0.0619865 -0.43775 0)
(-0.0872432 -0.439848 0)
(-0.118125 -0.441694 0)
(-0.146834 -0.445074 0)
(-0.187202 -0.448158 0)
(-0.221532 -0.453731 0)
(-0.280355 -0.461233 0)
(-0.328639 -0.473376 0)
(-0.444711 -0.491527 0)
(-0.550306 -0.512144 0)
(-0.870631 -0.420049 0)
(-0.992052 -0.0944963 0)
(-0.732378 0.301253 0)
(-0.500671 0.343071 0)
(-0.357483 0.358863 0)
(-0.274267 0.30977 0)
(-0.216397 0.301513 0)
(-0.175432 0.27151 0)
(-0.146493 0.258532 0)
(-0.120776 0.23999 0)
(-0.102699 0.228435 0)
(-0.013067 -0.429607 0)
(-0.0377082 -0.430036 0)
(-0.0651103 -0.430594 0)
(-0.0908932 -0.43178 0)
(-0.122073 -0.432666 0)
(-0.150381 -0.434051 0)
(-0.188308 -0.434855 0)
(-0.221931 -0.434903 0)
(-0.271402 -0.435826 0)
(-0.31931 -0.428102 0)
(-0.39309 -0.423714 0)
(-0.483001 -0.378992 0)
(-0.623814 -0.330822 0)
(-0.715128 0.0162133 0)
(-0.617046 0.189751 0)
(-0.479918 0.252475 0)
(-0.386581 0.277341 0)
(-0.303009 0.262532 0)
(-0.25259 0.25886 0)
(-0.203099 0.242164 0)
(-0.171839 0.233346 0)
(-0.141121 0.219792 0)
(-0.120018 0.210755 0)
(-0.012735 -0.387824 0)
(-0.0370302 -0.387475 0)
(-0.0638304 -0.386839 0)
(-0.0894955 -0.385479 0)
(-0.120622 -0.383876 0)
(-0.149312 -0.380561 0)
(-0.188854 -0.377361 0)
(-0.222947 -0.369937 0)
(-0.2774 -0.363863 0)
(-0.321145 -0.346015 0)
(-0.400389 -0.327672 0)
(-0.455024 -0.266807 0)
(-0.559915 -0.207002 0)
(-0.594503 -0.0816805 0)
(-0.502042 0.061556 0)
(-0.436659 0.124981 0)
(-0.352214 0.179385 0)
(-0.29419 0.18319 0)
(-0.243342 0.200317 0)
(-0.203623 0.194805 0)
(-0.171067 0.196309 0)
(-0.144127 0.190192 0)
(-0.12242 0.186603 0)
(-0.0127384 -0.377 0)
(-0.0367943 -0.376364 0)
(-0.0632122 -0.375239 0)
(-0.0880366 -0.372949 0)
(-0.117312 -0.370198 0)
(-0.143739 -0.364834 0)
(-0.177942 -0.359283 0)
(-0.207176 -0.347263 0)
(-0.248782 -0.33675 0)
(-0.283148 -0.309052 0)
(-0.334836 -0.288711 0)
(-0.375177 -0.229069 0)
(-0.414001 -0.181833 0)
(-0.445629 -0.0487326 0)
(-0.412615 0.0290015 0)
(-0.377597 0.09733 0)
(-0.32355 0.130544 0)
(-0.279257 0.151169 0)
(-0.240207 0.165068 0)
(-0.204056 0.168422 0)
(-0.176053 0.171727 0)
(-0.149713 0.1701 0)
(-0.129065 0.168649 0)
(-0.012133 -0.340197 0)
(-0.0353816 -0.339057 0)
(-0.0605864 -0.337101 0)
(-0.0846666 -0.333302 0)
(-0.112788 -0.328972 0)
(-0.138449 -0.321225 0)
(-0.17162 -0.31363 0)
(-0.19922 -0.299005 0)
(-0.239129 -0.286384 0)
(-0.267884 -0.257735 0)
(-0.31248 -0.233935 0)
(-0.339151 -0.182537 0)
(-0.375228 -0.138489 0)
(-0.386158 -0.0753189 0)
(-0.359263 -0.00801088 0)
(-0.335337 0.0412828 0)
(-0.291261 0.0799901 0)
(-0.261251 0.103624 0)
(-0.224775 0.124356 0)
(-0.196909 0.132942 0)
(-0.169884 0.141796 0)
(-0.147465 0.144424 0)
(-0.127414 0.146863 0)
(-0.0115488 -0.327238 0)
(-0.0335267 -0.325924 0)
(-0.0572068 -0.323619 0)
(-0.0794958 -0.319269 0)
(-0.104884 -0.314198 0)
(-0.127691 -0.305406 0)
(-0.15571 -0.296647 0)
(-0.179095 -0.280486 0)
(-0.209863 -0.266634 0)
(-0.23393 -0.237895 0)
(-0.263548 -0.216086 0)
(-0.285791 -0.169739 0)
(-0.300335 -0.133191 0)
(-0.311907 -0.0684309 0)
(-0.300651 -0.0226607 0)
(-0.286533 0.0260097 0)
(-0.259599 0.0551634 0)
(-0.237176 0.0826161 0)
(-0.209896 0.0994461 0)
(-0.186749 0.112329 0)
(-0.164221 0.121226 0)
(-0.144269 0.1268 0)
(-0.126333 0.130548 0)
(-0.0108023 -0.296564 0)
(-0.0317024 -0.294997 0)
(-0.0538106 -0.292243 0)
(-0.0749941 -0.287203 0)
(-0.098561 -0.281353 0)
(-0.120088 -0.27172 0)
(-0.145745 -0.262072 0)
(-0.167166 -0.245626 0)
(-0.194404 -0.230792 0)
(-0.214562 -0.204041 0)
(-0.239436 -0.181389 0)
(-0.255691 -0.144596 0)
(-0.269997 -0.112435 0)
(-0.275653 -0.0725792 0)
(-0.266967 -0.0333753 0)
(-0.256153 0.0020666 0)
(-0.234463 0.0306157 0)
(-0.217201 0.0552152 0)
(-0.193721 0.073794 0)
(-0.175315 0.0881271 0)
(-0.154986 0.099267 0)
(-0.138123 0.107029 0)
(-0.121566 0.112929 0)
(-0.00997931 -0.282946 0)
(-0.0292237 -0.281338 0)
(-0.0494573 -0.278428 0)
(-0.0686911 -0.273297 0)
(-0.0896579 -0.267179 0)
(-0.108725 -0.257551 0)
(-0.13048 -0.247686 0)
(-0.148984 -0.231848 0)
(-0.170476 -0.217419 0)
(-0.187529 -0.19345 0)
(-0.205041 -0.17328 0)
(-0.218318 -0.140156 0)
(-0.226268 -0.112135 0)
(-0.231451 -0.0729561 0)
(-0.227376 -0.0420049 0)
(-0.220212 -0.00813305 0)
(-0.206735 0.0161094 0)
(-0.19365 0.0405703 0)
(-0.17654 0.0572643 0)
(-0.161564 0.0727309 0)
(-0.145067 0.0836406 0)
(-0.130612 0.0927888 0)
(-0.116249 0.0993931 0)
(-0.00914853 -0.258455 0)
(-0.0270397 -0.25675 0)
(-0.0455165 -0.253648 0)
(-0.0633397 -0.248299 0)
(-0.0822575 -0.241882 0)
(-0.099757 -0.232169 0)
(-0.118981 -0.222023 0)
(-0.135559 -0.206774 0)
(-0.154016 -0.192242 0)
(-0.168552 -0.170398 0)
(-0.183641 -0.150718 0)
(-0.194313 -0.123773 0)
(-0.202089 -0.0995207 0)
(-0.205508 -0.0711742 0)
(-0.20253 -0.0446749 0)
(-0.197093 -0.0182673 0)
(-0.186205 0.00407405 0)
(-0.175613 0.0251905 0)
(-0.161335 0.0417496 0)
(-0.148894 0.0567539 0)
(-0.134632 0.0683535 0)
(-0.122282 0.078273 0)
(-0.109516 0.0859212 0)
(-0.0082923 -0.245377 0)
(-0.0244878 -0.243729 0)
(-0.0411305 -0.240641 0)
(-0.0571191 -0.235516 0)
(-0.0738373 -0.229187 0)
(-0.0892862 -0.220061 0)
(-0.105729 -0.210236 0)
(-0.120073 -0.196346 0)
(-0.135115 -0.182733 0)
(-0.147391 -0.163555 0)
(-0.158792 -0.145899 0)
(-0.167399 -0.12165 0)
(-0.172782 -0.0997802 0)
(-0.175827 -0.0728701 0)
(-0.174408 -0.0498301 0)
(-0.170731 -0.0250586 0)
(-0.163482 -0.00507408 0)
(-0.155417 0.0150758 0)
(-0.144863 0.0306287 0)
(-0.134808 0.045512 0)
(-0.12338 0.0569506 0)
(-0.112962 0.0672873 0)
(-0.102122 0.0753134 0)
(-0.00745408 -0.226474 0)
(-0.0221628 -0.224815 0)
(-0.0370628 -0.221691 0)
(-0.051533 -0.216586 0)
(-0.0663248 -0.210245 0)
(-0.0801924 -0.201341 0)
(-0.0944904 -0.191634 0)
(-0.107164 -0.17849 0)
(-0.120058 -0.165278 0)
(-0.130655 -0.147803 0)
(-0.140608 -0.131156 0)
(-0.14796 -0.110628 0)
(-0.153095 -0.0914982 0)
(-0.155579 -0.0699848 0)
(-0.154722 -0.0500025 0)
(-0.151896 -0.0294614 0)
(-0.146117 -0.0113353 0)
(-0.139551 0.00634631 0)
(-0.130852 0.0211323 0)
(-0.122406 0.0350984 0)
(-0.112732 0.0465251 0)
(-0.103792 0.0569035 0)
(-0.094387 0.0653497 0)
(-0.00664893 -0.214743 0)
(-0.0197634 -0.213183 0)
(-0.0329983 -0.210174 0)
(-0.0458202 -0.205409 0)
(-0.058794 -0.199343 0)
(-0.0709412 -0.191162 0)
(-0.0832154 -0.181988 0)
(-0.0941439 -0.170157 0)
(-0.104867 -0.157902 0)
(-0.113821 -0.142454 0)
(-0.121723 -0.127289 0)
(-0.127713 -0.10875 0)
(-0.131694 -0.0911473 0)
(-0.133883 -0.0711192 0)
(-0.133609 -0.0528807 0)
(-0.131708 -0.0337677 0)
(-0.127658 -0.0170508 0)
(-0.122618 -0.000411149 0)
(-0.11603 0.0136605 0)
(-0.109224 0.0271413 0)
(-0.101463 0.038369 0)
(-0.0939939 0.0487212 0)
(-0.0861086 0.0573249 0)
(-0.00585468 -0.200611 0)
(-0.0174788 -0.199081 0)
(-0.0290991 -0.196124 0)
(-0.040437 -0.191486 0)
(-0.0517349 -0.185562 0)
(-0.0624203 -0.177704 0)
(-0.0729922 -0.168837 0)
(-0.082529 -0.157701 0)
(-0.0917091 -0.14602 0)
(-0.099461 -0.131845 0)
(-0.106366 -0.117731 0)
(-0.111609 -0.101452 0)
(-0.115303 -0.0857357 0)
(-0.117269 -0.0686318 0)
(-0.117283 -0.0524425 0)
(-0.115853 -0.0358051 0)
(-0.112674 -0.0205708 0)
(-0.108593 -0.00557946 0)
(-0.103219 0.00767337 0)
(-0.0975343 0.0203143 0)
(-0.0910536 0.0312691 0)
(-0.0846944 0.0414074 0)
(-0.0779726 0.0501114 0)
(-0.00512946 -0.1907 0)
(-0.0153111 -0.189267 0)
(-0.0254594 -0.186454 0)
(-0.03534 -0.182138 0)
(-0.0451174 -0.176532 0)
(-0.0543457 -0.169304 0)
(-0.0633647 -0.160982 0)
(-0.0715007 -0.150873 0)
(-0.0791828 -0.140022 0)
(-0.0856915 -0.127263 0)
(-0.0913094 -0.114218 0)
(-0.0956165 -0.0993745 0)
(-0.0986186 -0.0847395 0)
(-0.100328 -0.0688856 0)
(-0.100549 -0.053795 0)
(-0.0996021 -0.038299 0)
(-0.0973109 -0.0240079 0)
(-0.0941755 -0.0099052 0)
(-0.0900297 0.00275926 0)
(-0.0854721 0.0148758 0)
(-0.0802659 0.0255763 0)
(-0.0750101 0.0355247 0)
(-0.0694349 0.0442304 0)
(-0.0043925 -0.180527 0)
(-0.0131442 -0.179146 0)
(-0.0218257 -0.176428 0)
(-0.0303196 -0.172279 0)
(-0.0386569 -0.166878 0)
(-0.0465843 -0.159977 0)
(-0.0542412 -0.152007 0)
(-0.0612195 -0.142471 0)
(-0.0677409 -0.132177 0)
(-0.0733354 -0.120343 0)
(-0.0781915 -0.108171 0)
(-0.0819545 -0.0947201 0)
(-0.0846631 -0.0813403 0)
(-0.0862256 -0.0671519 0)
(-0.0865817 -0.0533882 0)
(-0.0859175 -0.0393723 0)
(-0.0841628 -0.026133 0)
(-0.0816608 -0.0131033 0)
(-0.0783288 -0.00110678 0)
(-0.074584 0.0103763 0)
(-0.0703046 0.0207632 0)
(-0.0659099 0.0304635 0)
(-0.0612473 0.0391329 0)
(-0.00374808 -0.172677 0)
(-0.0112127 -0.171365 0)
(-0.0185967 -0.168765 0)
(-0.0258024 -0.164851 0)
(-0.032836 -0.159718 0)
(-0.039504 -0.153275 0)
(-0.0458923 -0.145758 0)
(-0.0517027 -0.136943 0)
(-0.0570712 -0.127292 0)
(-0.0616715 -0.116405 0)
(-0.0656099 -0.105008 0)
(-0.0686743 -0.0925625 0)
(-0.0708831 -0.079984 0)
(-0.0722065 -0.0667431 0)
(-0.0725991 -0.0537676 0)
(-0.0721797 -0.0406122 0)
(-0.0709088 -0.0280608 0)
(-0.0690038 -0.0157222 0)
(-0.0664344 -0.00421385 0)
(-0.0634754 0.00681416 0)
(-0.0600741 0.0169306 0)
(-0.0565142 0.0264041 0)
(-0.0527214 0.0349864 0)
(-0.00306618 -0.165815 0)
(-0.0091875 -0.164563 0)
(-0.015239 -0.162074 0)
(-0.0211724 -0.158332 0)
(-0.0269532 -0.153407 0)
(-0.0324684 -0.147249 0)
(-0.0377296 -0.140042 0)
(-0.0425559 -0.131657 0)
(-0.0470001 -0.122451 0)
(-0.0508518 -0.112189 0)
(-0.0541665 -0.10141 0)
(-0.0567774 -0.0898053 0)
(-0.0587016 -0.0780144 0)
(-0.0598847 -0.0657253 0)
(-0.0603207 -0.0535628 0)
(-0.0600748 -0.041277 0)
(-0.0591468 -0.0294034 0)
(-0.0576798 -0.0177325 0)
(-0.0556777 -0.00669196 0)
(-0.0533251 0.00390763 0)
(-0.050614 0.0137675 0)
(-0.0477378 0.0230427 0)
(-0.0446678 0.0315559 0)
(-0.00248226 -0.160064 0)
(-0.00743221 -0.158843 0)
(-0.0123077 -0.156416 0)
(-0.0170697 -0.152804 0)
(-0.0216851 -0.148053 0)
(-0.0260733 -0.142182 0)
(-0.0302351 -0.135294 0)
(-0.0340437 -0.127372 0)
(-0.0375278 -0.118621 0)
(-0.0405434 -0.108967 0)
(-0.0431234 -0.0987353 0)
(-0.0451621 -0.0878059 0)
(-0.0466733 -0.0765964 0)
(-0.0476262 -0.0649758 0)
(-0.0480177 -0.0533853 0)
(-0.0478894 -0.0417125 0)
(-0.0472435 -0.0303445 0)
(-0.0461717 -0.0191767 0)
(-0.0446848 -0.00851992 0)
(-0.0429049 0.00172708 0)
(-0.0408378 0.0113462 0)
(-0.0386148 0.0204132 0)
(-0.0362322 0.0288061 0)
(-0.00184165 -0.156119 0)
(-0.0055281 -0.154959 0)
(-0.00918007 -0.152639 0)
(-0.0127777 -0.149171 0)
(-0.0162801 -0.144587 0)
(-0.019637 -0.138915 0)
(-0.0228281 -0.132241 0)
(-0.0257748 -0.124585 0)
(-0.0284771 -0.11611 0)
(-0.0308432 -0.10681 0)
(-0.0328815 -0.0969339 0)
(-0.0345154 -0.0864494 0)
(-0.0357511 -0.0756638 0)
(-0.0365558 -0.0645337 0)
(-0.0369344 -0.0533765 0)
(-0.0369082 -0.0421599 0)
(-0.0364884 -0.0311655 0)
(-0.0357342 -0.0203642 0)