/*--------------------------------*- C++ -*----------------------------------*\
| =========                 |                                                 |
| \\      /  F ield         | OpenFOAM: The Open Source CFD Toolbox           |
|  \\    /   O peration     | Version:  2012                                  |
|   \\  /    A nd           | Website:  www.openfoam.com                      |
|    \\/     M anipulation  |                                                 |
\*---------------------------------------------------------------------------*/
FoamFile
{
    version     2.0;
    format      ascii;
    class       volVectorField;
    location    "0.06";
    object      Uc;
}
// * * * * * * * * * * * * * * * * * * * * * * * * * * * * * * * * * * * * * //

dimensions      [0 1 -1 0 0 0 0];


internalField   nonuniform List<vector> 
2268
(
(0.0213763 -0.0101023 0)
(0.0643524 -0.0102079 0)
(0.108212 -0.0105196 0)
(0.153454 -0.0108616 0)
(0.200872 -0.0115478 0)
(0.251209 -0.012241 0)
(0.305486 -0.0134102 0)
(0.365097 -0.0147614 0)
(0.431599 -0.0166669 0)
(0.507527 -0.0192163 0)
(0.596133 -0.0226582 0)
(0.708362 -0.0303803 0)
(0.850584 -0.036833 0)
(1.00049 -0.033913 0)
(1.13211 -0.0281855 0)
(1.25396 -0.0293195 0)
(1.35262 -0.0171922 0)
(1.32805 0.0288506 0)
(1.10119 0.0783639 0)
(0.778285 0.0742373 0)
(0.50619 0.0543523 0)
(0.291162 0.047267 0)
(0.0955725 0.0451663 0)
(0.0213145 -0.0302777 0)
(0.0641656 -0.0305939 0)
(0.107888 -0.0315241 0)
(0.152976 -0.0325467 0)
(0.200211 -0.0345951 0)
(0.250318 -0.0366628 0)
(0.304304 -0.0401528 0)
(0.363529 -0.0441796 0)
(0.42945 -0.0498311 0)
(0.504836 -0.057562 0)
(0.592294 -0.0675192 0)
(0.699959 -0.0894392 0)
(0.832114 -0.107443 0)
(0.976203 -0.102144 0)
(1.11976 -0.0898573 0)
(1.25615 -0.0894422 0)
(1.33385 -0.0401449 0)
(1.25518 0.10067 0)
(1.01188 0.228743 0)
(0.727648 0.210784 0)
(0.490257 0.158584 0)
(0.287306 0.140568 0)
(0.0949489 0.135204 0)
(0.021191 -0.0503655 0)
(0.063792 -0.0508902 0)
(0.10724 -0.0524241 0)
(0.152021 -0.0541181 0)
(0.198889 -0.0574959 0)
(0.248538 -0.060906 0)
(0.30193 -0.0666555 0)
(0.360382 -0.0732903 0)
(0.425166 -0.0824909 0)
(0.499114 -0.0954762 0)
(0.584365 -0.111226 0)
(0.686347 -0.14481 0)
(0.808479 -0.172247 0)
(0.945166 -0.17003 0)
(1.09461 -0.160263 0)
(1.24158 -0.152519 0)
(1.28926 -0.036025 0)
(1.1393 0.20464 0)
(0.874227 0.365031 0)
(0.638324 0.320308 0)
(0.449504 0.250483 0)
(0.271814 0.228555 0)
(0.0915199 0.223327 0)
(0.0210088 -0.0703089 0)
(0.0632413 -0.0710387 0)
(0.106286 -0.0731518 0)
(0.150618 -0.0755042 0)
(0.196945 -0.0801533 0)
(0.245929 -0.0848621 0)
(0.298451 -0.0927531 0)
(0.355769 -0.101905 0)
(0.41894 -0.114346 0)
(0.490608 -0.132438 0)
(0.572567 -0.153287 0)
(0.667907 -0.196002 0)
(0.779284 -0.231409 0)
(0.906804 -0.235712 0)
(1.05141 -0.233175 0)
(1.18579 -0.212003 0)
(1.18207 0.00290926 0)
(0.974961 0.334471 0)
(0.734733 0.474004 0)
(0.56811 0.401568 0)
(0.419271 0.328799 0)
(0.259589 0.309678 0)
(0.0883539 0.308333 0)
(0.0207672 -0.0900519 0)
(0.0625112 -0.0909824 0)
(0.105021 -0.0936406 0)
(0.148758 -0.0966361 0)
(0.194369 -0.102471 0)
(0.242481 -0.108432 0)
(0.293861 -0.118286 0)
(0.349684 -0.129843 0)
(0.410828 -0.145159 0)
(0.479444 -0.167924 0)
(0.557207 -0.193284 0)
(0.645382 -0.242732 0)
(0.746091 -0.28491 0)
(0.865326 -0.298766 0)
(1.00153 -0.302314 0)
(1.09739 -0.251087 0)
(1.02404 0.0785455 0)
(0.800889 0.462183 0)
(0.624155 0.543347 0)
(0.519488 0.460436 0)
(0.402812 0.395411 0)
(0.261202 0.385454 0)
(0.0918709 0.393506 0)
(0.0204733 -0.109542 0)
(0.061624 -0.110668 0)
(0.103485 -0.113828 0)
(0.146507 -0.11745 0)
(0.191257 -0.12436 0)
(0.238338 -0.13153 0)
(0.288377 -0.143117 0)
(0.342428 -0.156937 0)
(0.40124 -0.174755 0)
(0.466278 -0.201492 0)
(0.539213 -0.230935 0)
(0.61967 -0.284776 0)
(0.709523 -0.332388 0)
(0.819468 -0.358936 0)
(0.940777 -0.363249 0)
(0.984283 -0.255482 0)
(0.849271 0.181475 0)
(0.64657 0.560515 0)
(0.535437 0.58106 0)
(0.466777 0.504639 0)
(0.370209 0.451987 0)
(0.242271 0.456265 0)
(0.0849477 0.477069 0)
(0.0201224 -0.128727 0)
(0.060564 -0.130043 0)
(0.101651 -0.133654 0)
(0.143817 -0.137884 0)
(0.187537 -0.145737 0)
(0.233388 -0.154072 0)
(0.281836 -0.167119 0)
(0.333762 -0.183019 0)
(0.389837 -0.202968 0)
(0.450784 -0.232819 0)
(0.518249 -0.26596 0)
(0.590573 -0.321954 0)
(0.669062 -0.374231 0)
(0.763534 -0.412858 0)
(0.862697 -0.412798 0)
(0.859671 -0.22462 0)
(0.695731 0.291923 0)
(0.539415 0.619741 0)
(0.484931 0.600106 0)
(0.445665 0.5366 0)
(0.378237 0.49753 0)
(0.269495 0.522577 0)
(0.100779 0.564843 0)
(0.019722 -0.147557 0)
(0.0593554 -0.149055 0)
(0.0995628 -0.15306 0)
(0.140764 -0.157877 0)
(0.183336 -0.166525 0)
(0.227827 -0.17598 0)
(0.274559 -0.190193 0)
(0.324231 -0.20796 0)
(0.377466 -0.229686 0)
(0.434357 -0.261791 0)
(0.496269 -0.29813 0)
(0.560734 -0.354429 0)
(0.628179 -0.410725 0)
(0.702139 -0.455408 0)
(0.775535 -0.450906 0)
(0.739812 -0.167854 0)
(0.569075 0.393336 0)
(0.455081 0.646079 0)
(0.435398 0.608822 0)
(0.412113 0.557449 0)
(0.363292 0.531622 0)
(0.26924 0.584326 0)
(0.103261 0.661272 0)
(0.0152501 -0.00648654 0)
(0.0483132 -0.00757669 0)
(0.075698 -0.00407125 0)
(0.0917607 -0.00276069 0)
(0.100108 -0.000789257 0)
(0.101741 9.49447e-05 0)
(0.0994174 0.000894074 0)
(0.094272 0.0012951 0)
(0.0875151 0.00157949 0)
(0.079765 0.00171752 0)
(0.0715129 0.00179303 0)
(0.0630171 0.00182126 0)
(0.0544459 0.00182512 0)
(0.0458896 0.0018149 0)
(0.037395 0.00179884 0)
(0.0289781 0.00178185 0)
(0.0206366 0.00176682 0)
(0.0123558 0.00175596 0)
(0.00411397 0.00175021 0)
(0.0147842 -0.0192615 0)
(0.0481389 -0.0230523 0)
(0.0764848 -0.0123003 0)
(0.0926442 -0.00823661 0)
(0.10084 -0.00234877 0)
(0.102305 0.00033729 0)
(0.0997801 0.00271529 0)
(0.0944971 0.0039107 0)
(0.0876483 0.00475212 0)
(0.0798409 0.0051633 0)
(0.0715485 0.00538559 0)
(0.0630277 0.00546793 0)
(0.0544417 0.00547748 0)
(0.0458782 0.00544563 0)
(0.0373811 0.00539666 0)
(0.0289649 0.00534514 0)
(0.0206259 0.00529971 0)
(0.0123489 0.00526691 0)
(0.00411162 0.00524971 0)
(0.0162846 -0.0324765 0)
(0.052115 -0.039265 0)
(0.0813866 -0.0205948 0)
(0.0969187 -0.0134214 0)
(0.103981 -0.00365281 0)
(0.104421 0.000831703 0)
(0.101104 0.00470672 0)
(0.0952873 0.00664178 0)
(0.0881004 0.00799219 0)
(0.0800867 0.00865386 0)
(0.0716683 0.0090042 0)
(0.0630743 0.00913034 0)
(0.0544469 0.00913803 0)
(0.045862 0.00908034 0)
(0.037356 0.00899543 0)
(0.0289391 0.00890754 0)
(0.0206045 0.00883052 0)
(0.0123351 0.00877519 0)
(0.00410685 0.00874623 0)
(0.0143364 -0.045501 0)
(0.0507665 -0.0569762 0)
(0.0835195 -0.0292652 0)
(0.0996405 -0.0182138 0)
(0.106144 -0.00462939 0)
(0.10599 0.0016876 0)
(0.102115 0.00691084 0)
(0.0959399 0.00953964 0)
(0.0884754 0.0113275 0)
(0.0802918 0.0122093 0)
(0.0717585 0.0126604 0)
(0.0630952 0.0128157 0)
(0.0544275 0.0128104 0)
(0.0458232 0.0127206 0)
(0.0373112 0.0125951 0)
(0.0288971 0.0124681 0)
(0.0205711 0.0123577 0)
(0.0123138 0.0122789 0)
(0.00409958 0.0122375 0)
(0.0184934 -0.0594649 0)
(0.061033 -0.0766017 0)
(0.0949055 -0.0379785 0)
(0.108766 -0.0222522 0)
(0.112524 -0.00495474 0)
(0.11011 0.0031062 0)
(0.104666 0.00945748 0)
(0.0974495 0.0126901 0)
(0.089326 0.0148087 0)
(0.0807445 0.0158605 0)
(0.0719719 0.0163716 0)
(0.0631707 0.0165343 0)
(0.0544258 0.0164996 0)
(0.0457832 0.0163687 0)
(0.0372565 0.0161958 0)
(0.0288431 0.016026 0)
(0.0205271 0.0158797 0)
(0.0122855 0.015776 0)
(0.00408982 0.0157215 0)
(0.0137778 -0.0731913 0)
(0.0569987 -0.0993534 0)
(0.0985901 -0.0473252 0)
(0.113781 -0.0252617 0)
(0.116097 -0.00452814 0)
(0.112563 0.00521044 0)
(0.106155 0.0123959 0)
(0.0983771 0.0161307 0)
(0.0898384 0.0184567 0)
(0.0810052 0.0196211 0)
(0.0720676 0.0201452 0)
(0.0631696 0.0202902 0)
(0.0543702 0.0202075 0)
(0.0457033 0.0200247 0)
(0.0371716 0.0197968 0)
(0.0287666 0.0195798 0)
(0.0204673 0.0193945 0)
(0.0122478 0.0192642 0)
(0.00407693 0.0191958 0)
(0.0300381 -0.0918283 0)
(0.0865624 -0.123143 0)
(0.120937 -0.0558474 0)
(0.128782 -0.0265373 0)
(0.125715 -0.00293232 0)
(0.118435 0.00821529 0)
(0.109656 0.0158519 0)
(0.100392 0.0199253 0)
(0.0909542 0.0223095 0)
(0.0815815 0.0235133 0)
(0.0723233 0.0239938 0)
(0.0632417 0.0240905 0)
(0.0543413 0.0239371 0)
(0.0456263 0.0236896 0)
(0.0370788 0.0233976 0)
(0.0286789 0.0231281 0)
(0.0203973 0.0229002 0)
(0.0122031 0.0227413 0)
(0.00406162 0.0226583 0)
(0.0607279 -0.130436 0)
(0.127885 -0.137143 0)
(0.139081 -0.0612303 0)
(0.139193 -0.0245381 0)
(0.130581 3.73632e-05 0)
(0.121424 0.0122381 0)
(0.111305 0.0198684 0)
(0.101341 0.0240892 0)
(0.091432 0.0263759 0)
(0.0817804 0.02754 0)
(0.0723476 0.0279184 0)
(0.0631676 0.0279347 0)
(0.0542163 0.0276874 0)
(0.0454837 0.0273618 0)
(0.0369403 0.0269961 0)
(0.0285594 0.0266685 0)
(0.0203061 0.0263941 0)
(0.0121462 0.0262049 0)
(0.00404236 0.026106 0)
(0.0190458 -0.176023 0)
(0.0573143 -0.177788 0)
(0.0960465 -0.182264 0)
(0.135634 -0.18794 0)
(0.176318 -0.197477 0)
(0.218579 -0.208536 0)
(0.262571 -0.223944 0)
(0.308745 -0.244098 0)
(0.357548 -0.267764 0)
(0.408489 -0.301806 0)
(0.462144 -0.341309 0)
(0.515818 -0.395671 0)
(0.568992 -0.454793 0)
(0.620865 -0.497289 0)
(0.668794 -0.490366 0)
(0.61026 -0.0522728 0)
(0.456051 0.513472 0)
(0.392366 0.64384 0)
(0.404915 0.607754 0)
(0.41576 0.558624 0)
(0.430727 0.538478 0)
(0.473646 0.578779 0)
(0.567796 0.650625 0)
(0.0179351 -0.213197 0)
(0.0539561 -0.215292 0)
(0.0902858 -0.220214 0)
(0.127251 -0.226943 0)
(0.164936 -0.237252 0)
(0.203695 -0.250205 0)
(0.243501 -0.266511 0)
(0.284534 -0.289192 0)
(0.326918 -0.314332 0)
(0.369836 -0.349588 0)
(0.413098 -0.39095 0)
(0.454439 -0.441542 0)
(0.492854 -0.500897 0)
(0.525132 -0.53406 0)
(0.543241 -0.517953 0)
(0.465692 0.112515 0)
(0.348313 0.621705 0)
(0.328928 0.619121 0)
(0.352839 0.595832 0)
(0.372068 0.540321 0)
(0.394628 0.519064 0)
(0.444369 0.505056 0)
(0.543309 0.530257 0)
(0.0167176 -0.248031 0)
(0.0502714 -0.250396 0)
(0.0839955 -0.255529 0)
(0.118137 -0.263106 0)
(0.152664 -0.273677 0)
(0.187793 -0.288053 0)
(0.223386 -0.304455 0)
(0.259408 -0.328706 0)
(0.295692 -0.353897 0)
(0.331403 -0.389063 0)
(0.365775 -0.429512 0)
(0.39713 -0.476056 0)
(0.424066 -0.531828 0)
(0.443099 -0.552898 0)
(0.426128 -0.498454 0)
(0.335061 0.262762 0)
(0.267854 0.65702 0)
(0.283819 0.587252 0)
(0.31243 0.574913 0)
(0.337784 0.516432 0)
(0.364405 0.493521 0)
(0.401004 0.443813 0)
(0.456628 0.436134 0)
(0.0154273 -0.280344 0)
(0.0463652 -0.282912 0)
(0.0773592 -0.288069 0)
(0.108571 -0.296261 0)
(0.139896 -0.306719 0)
(0.171427 -0.32202 0)
(0.202975 -0.337979 0)
(0.234348 -0.362929 0)
(0.265196 -0.387157 0)
(0.294783 -0.421443 0)
(0.322069 -0.459113 0)
(0.345934 -0.501964 0)
(0.364919 -0.551618 0)
(0.377109 -0.562656 0)
(0.331041 -0.423826 0)
(0.233845 0.377513 0)
(0.207055 0.636767 0)
(0.239703 0.558645 0)
(0.266496 0.547834 0)
(0.292074 0.492319 0)
(0.315898 0.466933 0)
(0.340127 0.40926 0)
(0.371026 0.383717 0)
(0.0140937 -0.310019 0)
(0.0423303 -0.31272 0)
(0.0705364 -0.31777 0)
(0.0987939 -0.32634 0)
(0.126957 -0.336438 0)
(0.155015 -0.352201 0)
(0.182767 -0.367407 0)
(0.209901 -0.392312 0)
(0.235974 -0.414992 0)
(0.260387 -0.447891 0)
(0.282043 -0.481861 0)
(0.300233 -0.521489 0)
(0.313585 -0.563895 0)
(0.32087 -0.568103 0)
(0.259961 -0.309633 0)
(0.169696 0.451827 0)
(0.168319 0.590777 0)
(0.204948 0.535005 0)
(0.230712 0.518649 0)
(0.255459 0.47092 0)
(0.2762 0.44354 0)
(0.293932 0.390479 0)
(0.3089 0.356396 0)
(0.0127766 -0.337029 0)
(0.0383465 -0.339797 0)
(0.0638182 -0.344652 0)
(0.0892017 -0.35338 0)
(0.114331 -0.362969 0)
(0.13912 -0.378794 0)
(0.163369 -0.393087 0)
(0.186699 -0.417361 0)
(0.208655 -0.438225 0)
(0.228794 -0.469444 0)
(0.246068 -0.499441 0)
(0.260101 -0.5363 0)
(0.269786 -0.571316 0)
(0.274302 -0.570677 0)
(0.211784 -0.182014 0)
(0.134485 0.492684 0)
(0.142592 0.543162 0)
(0.173366 0.514871 0)
(0.195767 0.490374 0)
(0.216983 0.452998 0)
(0.234137 0.423376 0)
(0.248597 0.378289 0)
(0.2593 0.342784 0)
(0.0114462 -0.361379 0)
(0.0343316 -0.364156 0)
(0.057083 -0.368768 0)
(0.0796579 -0.377472 0)
(0.101891 -0.386486 0)
(0.123643 -0.40206 0)
(0.144717 -0.415379 0)
(0.164724 -0.438632 0)
(0.183227 -0.457624 0)
(0.199891 -0.48704 0)
(0.213773 -0.513163 0)
(0.224684 -0.547652 0)
(0.231841 -0.575816 0)
(0.234627 -0.571644 0)
(0.176336 -0.0587927 0)
(0.112415 0.511445 0)
(0.124271 0.504341 0)
(0.148873 0.498033 0)
(0.168073 0.465401 0)
(0.186363 0.438265 0)
(0.200682 0.406478 0)
(0.211994 0.369286 0)
(0.218467 0.334526 0)
(0.0102123 -0.38315 0)
(0.0306064 -0.38589 0)
(0.0508279 -0.390231 0)
(0.0707898 -0.398768 0)
(0.0903299 -0.407182 0)
(0.109276 -0.422275 0)
(0.12744 -0.434607 0)
(0.144469 -0.456634 0)
(0.159963 -0.473795 0)
(0.173691 -0.501421 0)
(0.184862 -0.523966 0)
(0.193407 -0.556407 0)
(0.198916 -0.578624 0)
(0.200444 -0.571332 0)
(0.148209 0.0526851 0)
(0.0956819 0.517042 0)
(0.107256 0.475199 0)
(0.125764 0.483848 0)
(0.141315 0.444661 0)
(0.155984 0.42588 0)
(0.167705 0.392692 0)
(0.177214 0.362147 0)
(0.183078 0.329268 0)
(0.00893003 -0.402393 0)
(0.0267533 -0.405065 0)
(0.0444144 -0.409137 0)
(0.0618104 -0.417415 0)
(0.0787973 -0.425253 0)
(0.0951895 -0.439727 0)
(0.110803 -0.451108 0)
(0.12533 -0.471855 0)
(0.138395 -0.487283 0)
(0.149821 -0.513218 0)
(0.158942 -0.532565 0)
(0.165698 -0.56319 0)
(0.169966 -0.580448 0)
(0.170283 -0.569579 0)
(0.125127 0.149404 0)
(0.0815549 0.516939 0)
(0.0908006 0.454382 0)
(0.104858 0.471937 0)
(0.117582 0.428157 0)
(0.129822 0.41534 0)
(0.139689 0.381537 0)
(0.147488 0.35591 0)
(0.152112 0.324967 0)
(0.00783962 -0.41925 0)
(0.0234653 -0.421831 0)
(0.0388977 -0.425637 0)
(0.0540109 -0.433594 0)
(0.0686677 -0.440883 0)
(0.0826811 -0.454662 0)
(0.0958841 -0.465141 0)
(0.108039 -0.484644 0)
(0.11882 -0.498465 0)
(0.128121 -0.52287 0)
(0.135417 -0.539416 0)
(0.140715 -0.568457 0)
(0.14404 -0.581581 0)
(0.14219 -0.565211 0)
(0.101814 0.231484 0)
(0.0660446 0.514628 0)
(0.0737334 0.439678 0)
(0.0845879 0.461606 0)
(0.0949231 0.415315 0)
(0.104553 0.406203 0)
(0.112704 0.372567 0)
(0.11937 0.350344 0)
(0.123899 0.321336 0)
(0.00660624 -0.433771 0)
(0.0197754 -0.436255 0)
(0.0327955 -0.439814 0)
(0.0455558 -0.447436 0)
(0.057944 -0.454227 0)
(0.069778 -0.4673 0)
(0.0809024 -0.476957 0)
(0.0911265 -0.495323 0)
(0.100159 -0.507702 0)
(0.107914 -0.530779 0)
(0.113954 -0.544914 0)
(0.118231 -0.572584 0)
(0.12093 -0.582303 0)
(0.115077 -0.55517 0)
(0.0777632 0.299916 0)
(0.048536 0.511542 0)
(0.05413 0.42942 0)
(0.0629404 0.452105 0)
(0.0719246 0.405403 0)
(0.080521 0.3978 0)
(0.0880709 0.365193 0)
(0.0941549 0.344908 0)
(0.0986065 0.317749 0)
(0.00569379 -0.446136 0)
(0.0170175 -0.448512 0)
(0.0281463 -0.451833 0)
(0.0389468 -0.459101 0)
(0.049302 -0.465424 0)
(0.0590523 -0.4778 0)
(0.0680747 -0.486709 0)
(0.0762574 -0.504075 0)
(0.0833758 -0.515185 0)
(0.0894293 -0.537176 0)
(0.0940941 -0.549277 0)
(0.0974127 -0.575857 0)
(0.0996568 -0.582859 0)
(0.0864222 -0.533998 0)
(0.0480246 0.355147 0)
(0.0294538 0.504369 0)
(0.0376742 0.422714 0)
(0.0445958 0.443004 0)
(0.0518437 0.398194 0)
(0.058183 0.390001 0)
(0.0644807 0.359077 0)
(0.0697836 0.339583 0)
(0.0742281 0.314137 0)
(0.0045152 -0.456398 0)
(0.0135066 -0.458671 0)
(0.0223767 -0.461777 0)
(0.031033 -0.468715 0)
(0.0393921 -0.474622 0)
(0.0473242 -0.486377 0)
(0.0547169 -0.494632 0)
(0.061455 -0.51115 0)
(0.0673152 -0.521156 0)
(0.0722803 -0.542281 0)
(0.0760262 -0.552627 0)
(0.0785184 -0.578348 0)
(0.0807 -0.583783 0)
(0.0541269 -0.491809 0)
(0.0101368 0.395998 0)
(0.00236589 0.490007 0)
(0.0116321 0.419507 0)
(0.018951 0.431904 0)
(0.0277459 0.393174 0)
(0.0344448 0.381922 0)
(0.0414967 0.353744 0)
(0.0471081 0.33395 0)
(0.0521773 0.31021 0)
(0.00374171 -0.464698 0)
(0.0111797 -0.466886 0)
(0.0184867 -0.469824 0)
(0.0255585 -0.476479 0)
(0.0323083 -0.482046 0)
(0.0386229 -0.493274 0)
(0.0443868 -0.500961 0)
(0.0495194 -0.516754 0)
(0.0538224 -0.525768 0)
(0.0572745 -0.54613 0)
(0.0595407 -0.554821 0)
(0.0605858 -0.57971 0)
(0.0631478 -0.586304 0)
(0.0367715 -0.435023 0)
(-0.000562792 0.42112 0)
(-0.00137439 0.473522 0)
(0.0046212 0.420659 0)
(0.00606282 0.421953 0)
(0.0101649 0.390167 0)
(0.0140118 0.374334 0)
(0.019353 0.348879 0)
(0.0244886 0.328017 0)
(0.0297547 0.305759 0)
(0.00278974 -0.471263 0)
(0.00833517 -0.473371 0)
(0.0137783 -0.476155 0)
(0.0190354 -0.482541 0)
(0.0240439 -0.487803 0)
(0.0287239 -0.498568 0)
(0.032989 -0.505748 0)
(0.0367767 -0.520934 0)
(0.0399013 -0.529055 0)
(0.0422672 -0.548692 0)
(0.0434999 -0.555776 0)
(0.043476 -0.579781 0)
(0.0466907 -0.59128 0)
(-0.000500062 -0.355233 0)
(-0.0552258 0.433979 0)
(-0.0419627 0.448155 0)
(-0.0262775 0.424239 0)
(-0.0219356 0.412567 0)
(-0.0149498 0.388414 0)
(-0.0095724 0.36682 0)
(-0.00268558 0.344107 0)
(0.00337206 0.321543 0)
(0.00968352 0.3006 0)
(0.00191155 -0.475989 0)
(0.00571671 -0.478045 0)
(0.0094673 -0.480723 0)
(0.0131023 -0.486912 0)
(0.0165653 -0.491948 0)
(0.0197791 -0.502358 0)
(0.0226752 -0.509156 0)
(0.0252213 -0.523892 0)
(0.0273204 -0.531348 0)
(0.0289464 -0.550412 0)
(0.0297059 -0.556059 0)
(0.0338735 -0.577341 0)
(0.0323369 -0.588325 0)
(0.00911674 -0.286588 0)
(-0.00330224 0.432897 0)
(-0.00690338 0.439533 0)
(-0.0222758 0.432554 0)
(-0.0314829 0.40915 0)
(-0.0341161 0.387462 0)
(-0.0318509 0.360096 0)
(-0.0264818 0.338516 0)
(-0.0197752 0.314307 0)
(-0.0125509 0.294233 0)
(0.00122555 -0.479146 0)
(0.00363872 -0.481145 0)
(0.0059683 -0.483741 0)
(0.00817416 -0.489772 0)
(0.0102267 -0.49464 0)
(0.0120958 -0.504785 0)
(0.0137476 -0.511311 0)
(0.0152067 -0.525775 0)
(0.0165098 -0.532898 0)
(0.0179074 -0.551918 0)
(0.0198688 -0.557312 0)
(0.0254184 -0.579625 0)
(0.0210901 -0.573055 0)
(-0.00325298 -0.253152 0)
(-0.0197112 0.428544 0)
(-0.0327154 0.460588 0)
(-0.0509707 0.44531 0)
(-0.0575454 0.412265 0)
(-0.0577351 0.387191 0)
(-0.0541823 0.354524 0)
(-0.0474902 0.331968 0)
(-0.0395416 0.306128 0)
(-0.0309102 0.286478 0)
(0.000544021 -0.482128 0)
(0.00164072 -0.484113 0)
(0.00271479 -0.486659 0)
(0.0036874 -0.492593 0)
(0.00451198 -0.497359 0)
(0.00517731 -0.507405 0)
(0.00567571 -0.513809 0)
(0.00611681 -0.528357 0)
(0.00679093 -0.535706 0)
(0.00939066 -0.55686 0)
(0.0190827 -0.568352 0)
(0.0673902 -0.628013 0)
(0.0866783 -0.541898 0)
(0.0626852 -0.234733 0)
(0.0786329 0.41082 0)
(0.0364985 0.533749 0)
(-0.0541529 0.481632 0)
(-0.0894611 0.418052 0)
(-0.0942836 0.386448 0)
(-0.0889122 0.346302 0)
(-0.0781263 0.322626 0)
(-0.0661942 0.29549 0)
(-0.054349 0.276536 0)
(0.000254637 -0.484853 0)
(0.000685773 -0.486775 0)
(0.000999637 -0.489264 0)
(0.00120974 -0.495087 0)
(0.00134912 -0.499793 0)
(0.00143284 -0.509754 0)
(0.00161097 -0.516253 0)
(0.00231235 -0.531283 0)
(0.0058984 -0.541406 0)
(0.0175935 -0.570048 0)
(0.0462596 -0.598521 0)
(0.102296 -0.708158 0)
(0.210946 -0.593655 0)
(0.208446 -0.156413 0)
(0.0622051 0.463789 0)
(-0.049668 0.635634 0)
(-0.107646 0.529163 0)
(-0.12543 0.423897 0)
(-0.122623 0.382635 0)
(-0.112168 0.334211 0)
(-0.0979448 0.309582 0)
(-0.0835932 0.282117 0)
(-0.0699102 0.264251 0)
(-0.0121524 -0.473619 0)
(-0.0367416 -0.475169 0)
(-0.0619887 -0.477228 0)
(-0.0885436 -0.482021 0)
(-0.116696 -0.486027 0)
(-0.147097 -0.494298 0)
(-0.179843 -0.500143 0)
(-0.215407 -0.513418 0)
(-0.253445 -0.525601 0)
(-0.294529 -0.557119 0)
(-0.338291 -0.596837 0)
(-0.407622 -0.69671 0)
(-0.481598 -0.640701 0)
(-0.566224 -0.0223823 0)
(-0.607612 0.518528 0)
(-0.497644 0.582851 0)
(-0.350204 0.492027 0)
(-0.263076 0.391334 0)
(-0.207439 0.356455 0)
(-0.167882 0.310121 0)
(-0.137831 0.289171 0)
(-0.113812 0.26396 0)
(-0.0939295 0.248672 0)
(-0.0121861 -0.449158 0)
(-0.0368867 -0.450092 0)
(-0.0623832 -0.451306 0)
(-0.0894701 -0.454031 0)
(-0.118698 -0.456346 0)
(-0.151163 -0.460794 0)
(-0.18748 -0.464232 0)
(-0.229841 -0.471005 0)
(-0.280433 -0.478928 0)
(-0.34874 -0.493836 0)
(-0.447128 -0.517236 0)
(-0.606383 -0.546535 0)
(-0.824155 -0.497606 0)
(-0.904542 0.000394527 0)
(-0.743827 0.375806 0)
(-0.525344 0.395419 0)
(-0.374176 0.379299 0)
(-0.281728 0.323552 0)
(-0.221724 0.307995 0)
(-0.179132 0.276006 0)
(-0.147984 0.261772 0)
(-0.123133 0.242237 0)
(-0.103086 0.23026 0)
(-0.012817 -0.424025 0)
(-0.0387263 -0.424352 0)
(-0.0652915 -0.424713 0)
(-0.0930588 -0.425484 0)
(-0.122449 -0.425969 0)
(-0.154178 -0.426643 0)
(-0.188916 -0.426958 0)
(-0.228017 -0.426393 0)
(-0.27339 -0.427074 0)
(-0.328751 -0.421377 0)
(-0.400294 -0.418879 0)
(-0.499469 -0.385113 0)
(-0.614728 -0.324256 0)
(-0.672039 -0.0345313 0)
(-0.611193 0.188019 0)
(-0.493288 0.245066 0)
(-0.391102 0.274981 0)
(-0.312631 0.256063 0)
(-0.254106 0.25634 0)
(-0.208483 0.238989 0)
(-0.17279 0.231603 0)
(-0.144075 0.218562 0)
(-0.120584 0.210172 0)
(-0.0125633 -0.398513 0)
(-0.0379724 -0.398279 0)
(-0.0641166 -0.397803 0)
(-0.091639 -0.396817 0)
(-0.121071 -0.395507 0)
(-0.15332 -0.392794 0)
(-0.189108 -0.389914 0)
(-0.229926 -0.383101 0)
(-0.276978 -0.377459 0)
(-0.332506 -0.359525 0)
(-0.397241 -0.343743 0)
(-0.470421 -0.286994 0)
(-0.545269 -0.231274 0)
(-0.5663 -0.048759 0)
(-0.511656 0.0861554 0)
(-0.434327 0.15068 0)
(-0.360682 0.192621 0)
(-0.297498 0.196031 0)
(-0.247395 0.207182 0)
(-0.206389 0.201069 0)
(-0.173325 0.200409 0)
(-0.14609 0.193515 0)
(-0.12365 0.189051 0)
(-0.012501 -0.373319 0)
(-0.0376867 -0.372616 0)
(-0.0633581 -0.371381 0)
(-0.0898891 -0.368905 0)
(-0.117594 -0.365985 0)
(-0.146896 -0.360445 0)
(-0.178175 -0.354848 0)
(-0.211999 -0.343137 0)
(-0.248942 -0.33299 0)
(-0.28974 -0.307165 0)
(-0.334379 -0.286158 0)
(-0.377491 -0.227679 0)
(-0.414693 -0.177955 0)
(-0.432155 -0.0633825 0)
(-0.414632 0.0282374 0)
(-0.374938 0.0909668 0)
(-0.327801 0.130923 0)
(-0.282033 0.148209 0)
(-0.242226 0.164627 0)
(-0.207087 0.167083 0)
(-0.177374 0.171293 0)
(-0.15183 0.169578 0)
(-0.130037 0.168525 0)
(-0.0119901 -0.3487 0)
(-0.0361521 -0.347631 0)
(-0.0608161 -0.34577 0)
(-0.0863608 -0.34217 0)
(-0.1131 -0.337993 0)
(-0.14143 -0.330506 0)
(-0.17159 -0.323028 0)
(-0.203831 -0.308548 0)
(-0.238128 -0.295968 0)
(-0.27378 -0.267339 0)
(-0.310118 -0.244586 0)
(-0.343726 -0.19213 0)
(-0.371138 -0.148552 0)
(-0.378988 -0.067341 0)
(-0.362091 -0.00240217 0)
(-0.332202 0.0516619 0)
(-0.296392 0.0868481 0)
(-0.261073 0.110776 0)
(-0.228133 0.128937 0)
(-0.198152 0.137315 0)
(-0.17192 0.144825 0)
(-0.148794 0.147124 0)
(-0.128741 0.148916 0)
(-0.0113724 -0.325217 0)
(-0.0342137 -0.323867 0)
(-0.0573311 -0.321504 0)
(-0.0809019 -0.317065 0)
(-0.105085 -0.311911 0)
(-0.13 -0.303066 0)
(-0.155769 -0.294248 0)
(-0.182324 -0.278227 0)
(-0.209744 -0.264251 0)
(-0.237045 -0.235775 0)
(-0.2635 -0.21303 0)
(-0.285819 -0.167467 0)
(-0.30147 -0.129927 0)
(-0.308117 -0.0713922 0)
(-0.301767 -0.0217179 0)
(-0.284989 0.0240686 0)
(-0.262223 0.0555599 0)
(-0.237284 0.0814921 0)
(-0.212087 0.099782 0)
(-0.187897 0.112017 0)
(-0.16574 0.121481 0)
(-0.145507 0.126884 0)
(-0.127443 0.130842 0)
(-0.010721 -0.303009 0)
(-0.0322435 -0.301481 0)
(-0.0540112 -0.298772 0)
(-0.0761628 -0.293837 0)
(-0.0988208 -0.288054 0)
(-0.122024 -0.278554 0)
(-0.145784 -0.268972 0)
(-0.169841 -0.252629 0)
(-0.194018 -0.237983 0)
(-0.217234 -0.211262 0)
(-0.238861 -0.189211 0)
(-0.25687 -0.150747 0)
(-0.269486 -0.118232 0)
(-0.273731 -0.0721387 0)
(-0.268014 -0.0331005 0)
(-0.254914 0.00541744 0)
(-0.236908 0.0332273 0)
(-0.216875 0.0586178 0)
(-0.196056 0.0764022 0)
(-0.175796 0.0907165 0)
(-0.156682 0.101297 0)
(-0.138929 0.108886 0)
(-0.12278 0.114449 0)
(-0.00988638 -0.282295 0)
(-0.0296886 -0.280656 0)
(-0.0495973 -0.277704 0)
(-0.0696432 -0.272489 0)
(-0.089872 -0.266293 0)
(-0.110209 -0.256549 0)
(-0.130637 -0.246559 0)
(-0.150818 -0.230576 0)
(-0.170575 -0.215873 0)
(-0.188963 -0.191553 0)
(-0.20535 -0.17071 0)
(-0.218437 -0.13799 0)
(-0.227004 -0.109696 0)
(-0.230575 -0.0728188 0)
(-0.227991 -0.0407645 0)
(-0.219939 -0.00818104 0)
(-0.208048 0.0167736 0)
(-0.193752 0.0405636 0)
(-0.17807 0.0577664 0)
(-0.162079 0.0729126 0)
(-0.146369 0.0840952 0)
(-0.131335 0.0931315 0)
(-0.117282 0.0998436 0)
(-0.00912343 -0.263186 0)
(-0.0273824 -0.261506 0)
(-0.0457028 -0.258427 0)
(-0.0640781 -0.253145 0)
(-0.082519 -0.246766 0)
(-0.10091 -0.237148 0)
(-0.119182 -0.227059 0)
(-0.136984 -0.211896 0)
(-0.154101 -0.197487 0)
(-0.169834 -0.17564 0)
(-0.183738 -0.156175 0)
(-0.194845 -0.128205 0)
(-0.202255 -0.10342 0)
(-0.205168 -0.0725766 0)
(-0.203129 -0.0456537 0)
(-0.196891 -0.0176558 0)
(-0.187361 0.00471563 0)
(-0.1757 0.0265299 0)
(-0.162703 0.0429723 0)
(-0.149274 0.0581338 0)
(-0.135847 0.069585 0)
(-0.122846 0.0794611 0)
(-0.110503 0.0869807 0)
(-0.0082627 -0.24571 0)
(-0.0247757 -0.24403 0)
(-0.0412779 -0.2409 0)
(-0.0577165 -0.235678 0)
(-0.0740648 -0.229264 0)
(-0.0901759 -0.219969 0)
(-0.105962 -0.210003 0)
(-0.121091 -0.195849 0)
(-0.135355 -0.18199 0)
(-0.148177 -0.162433 0)
(-0.159139 -0.144388 0)
(-0.167687 -0.120234 0)
(-0.173289 -0.098311 0)
(-0.175809 -0.0722261 0)
(-0.174911 -0.0489561 0)
(-0.170863 -0.0246921 0)
(-0.164248 -0.004477 0)
(-0.155699 0.0154073 0)
(-0.14582 0.0310996 0)
(-0.135229 0.045862 0)
(-0.124319 0.0573938 0)
(-0.11348 0.067688 0)
(-0.102949 0.0757619 0)
(-0.00746332 -0.229902 0)
(-0.0223675 -0.228257 0)
(-0.0372298 -0.225145 0)
(-0.0519809 -0.220081 0)
(-0.0665741 -0.213759 0)
(-0.0808643 -0.204915 0)
(-0.0947501 -0.195231 0)
(-0.107956 -0.182138 0)
(-0.120298 -0.168958 0)
(-0.131365 -0.151451 0)
(-0.140872 -0.134795 0)
(-0.148357 -0.113712 0)
(-0.153389 -0.094144 0)
(-0.155704 -0.0715337 0)
(-0.155165 -0.0510926 0)
(-0.152065 -0.0297412 0)
(-0.14678 -0.0113895 0)
(-0.13983 0.00674045 0)
(-0.131665 0.0216278 0)
(-0.122796 0.035773 0)
(-0.113544 0.047217 0)
(-0.104254 0.0576303 0)
(-0.0951222 0.0660554 0)
(-0.00665469 -0.215711 0)
(-0.0199322 -0.214121 0)
(-0.0331358 -0.21107 0)
(-0.0461818 -0.206214 0)
(-0.0590076 -0.200064 0)
(-0.0714683 -0.19172 0)
(-0.0834592 -0.182415 0)
(-0.0947374 -0.170343 0)
(-0.105133 -0.157898 0)
(-0.114318 -0.142155 0)
(-0.122039 -0.126774 0)
(-0.128036 -0.108182 0)
(-0.132077 -0.0905536 0)
(-0.134103 -0.0707608 0)
(-0.134022 -0.0524895 0)
(-0.131968 -0.0335258 0)
(-0.128172 -0.0167319 0)
(-0.122953 -0.00014991 0)
(-0.116649 0.0139737 0)
(-0.109613 0.0274393 0)
(-0.102109 0.0387088 0)
(-0.0944177 0.0490684 0)
(-0.0867217 0.0577024 0)
(-0.00587773 -0.203114 0)
(-0.0175997 -0.201589 0)
(-0.0292379 -0.198631 0)
(-0.0407097 -0.194008 0)
(-0.0519472 -0.188082 0)
(-0.0628229 -0.180245 0)
(-0.0732372 -0.171369 0)
(-0.0829983 -0.16024 0)
(-0.0919662 -0.148536 0)
(-0.099905 -0.134304 0)
(-0.106639 -0.120094 0)
(-0.111935 -0.10351 0)
(-0.115594 -0.0874872 0)
(-0.117508 -0.0698663 0)
(-0.117637 -0.0533371 0)
(-0.116114 -0.0362732 0)
(-0.113118 -0.0208114 0)
(-0.108909 -0.00554845 0)
(-0.10374 0.00783972 0)
(-0.0978969 0.0206271 0)
(-0.0915993 0.0316483 0)
(-0.0850814 0.0418459 0)
(-0.078499 0.0505723 0)
(-0.00514829 -0.19203 0)
(-0.0154086 -0.190576 0)
(-0.0255733 -0.187728 0)
(-0.0355591 -0.183342 0)
(-0.0452953 -0.177666 0)
(-0.0546658 -0.17031 0)
(-0.0635775 -0.161878 0)
(-0.071869 -0.151585 0)
(-0.0794178 -0.140588 0)
(-0.0860337 -0.127622 0)
(-0.091574 -0.114439 0)
(-0.0959043 -0.0994887 0)
(-0.0989176 -0.0848023 0)
(-0.100583 -0.0689534 0)
(-0.100875 -0.0538268 0)
(-0.0998718 -0.0383225 0)
(-0.0976836 -0.0239739 0)
(-0.0944817 -0.00983561 0)
(-0.0904537 0.00288201 0)
(-0.0858058 0.0150394 0)
(-0.0807121 0.0257852 0)
(-0.0753564 0.0357734 0)
(-0.0698739 0.044517 0)
(-0.00441634 -0.182416 0)
(-0.0132176 -0.181029 0)
(-0.0219329 -0.178296 0)
(-0.0304901 -0.174135 0)
(-0.0388231 -0.16871 0)
(-0.0468347 -0.161793 0)
(-0.0544411 -0.153791 0)
(-0.0615156 -0.144227 0)
(-0.0679592 -0.133882 0)
(-0.0736312 -0.121977 0)
(-0.0784234 -0.109698 0)
(-0.0822142 -0.0960666 0)
(-0.0849086 -0.0824873 0)
(-0.0864601 -0.0680353 0)
(-0.0868567 -0.0540521 0)
(-0.0861657 -0.0398005 0)
(-0.0844791 -0.026391 0)
(-0.0819371 -0.0131923 0)
(-0.0786834 -0.00108101 0)
(-0.074883 0.0105102 0)
(-0.0706777 0.0209666 0)
(-0.0662179 0.0307251 0)
(-0.0616172 0.0394296 0)
(-0.00376715 -0.17419 0)
(-0.0112693 -0.172867 0)
(-0.0186818 -0.170247 0)
(-0.0259362 -0.166291 0)
(-0.0329707 -0.161107 0)
(-0.0397021 -0.154577 0)
(-0.0460586 -0.146972 0)
(-0.0519376 -0.138025 0)
(-0.0572575 -0.128259 0)
(-0.0619102 -0.117221 0)
(-0.0658161 -0.10571 0)
(-0.0689005 -0.0931438 0)
(-0.0711096 -0.0804812 0)
(-0.0724255 -0.067159 0)
(-0.072844 -0.0541092 0)
(-0.0724078 -0.0408765 0)
(-0.0711777 -0.0282469 0)
(-0.0692497 -0.0158298 0)
(-0.0667286 -0.00424865 0)
(-0.0637358 0.00684934 0)
(-0.0603807 0.0170274 0)
(-0.0567797 0.0265613 0)
(-0.0530269 0.0351964 0)
(-0.00308548 -0.167302 0)
(-0.0092337 -0.166034 0)
(-0.0153163 -0.163515 0)
(-0.0212804 -0.159736 0)
(-0.027073 -0.154768 0)
(-0.032626 -0.148567 0)
(-0.0378768 -0.141313 0)
(-0.0427449 -0.13288 0)
(-0.0471637 -0.123615 0)
(-0.0510504 -0.113282 0)
(-0.0543409 -0.102415 0)
(-0.0569688 -0.0906967 0)
(-0.0588865 -0.07878 0)
(-0.0600716 -0.0663462 0)
(-0.0605214 -0.0540493 0)
(-0.0602703 -0.0416271 0)
(-0.0593676 -0.0296399 0)
(-0.0578896 -0.0178606 0)
(-0.0559175 -0.00673475 0)
(-0.0535466 0.00394382 0)
(-0.050864 0.0138637 0)
(-0.0479624 0.0231882 0)
(-0.0449175 0.0317364 0)
(-0.00249622 -0.161691 0)
(-0.00746466 -0.16047 0)
(-0.0123648 -0.158038 0)
(-0.0171502 -0.154406 0)
(-0.0217775 -0.149623 0)
(-0.0261939 -0.143691 0)
(-0.0303517 -0.136732 0)
(-0.0341906 -0.128709 0)
(-0.0376602 -0.119856 0)
(-0.0407011 -0.110077 0)
(-0.0432687 -0.0997316 0)
(-0.045321 -0.0886757 0)
(-0.0468305 -0.0773559 0)
(-0.0477857 -0.0656189 0)
(-0.0481861 -0.0539219 0)
(-0.0480546 -0.042139 0)
(-0.0474238 -0.0306692 0)
(-0.0463455 -0.0194009 0)
(-0.0448768 -0.0086534 0)
(-0.0430856 0.00167855 0)
(-0.041036 0.0113721 0)
(-0.0387975 0.0205128 0)
(-0.0364303 0.0289717 0)
(-0.00185583 -0.157316 0)
(-0.00555867 -0.156128 0)
(-0.00923182 -0.153762 0)
(-0.0128435 -0.150242 0)
(-0.0163576 -0.145603 0)
(-0.019731 -0.13988 0)
(-0.0229234 -0.133154 0)
(-0.0258879 -0.125448 0)
(-0.0285837 -0.11692 0)
(-0.030965 -0.107563 0)
(-0.032995 -0.097624 0)
(-0.0346383 -0.0870682 0)
(-0.0358707 -0.0762071 0)
(-0.036679 -0.0649949 0)
(-0.0370621 -0.0537582 0)
(-0.037036 -0.0424611 0)
(-0.0366254 -0.0313939 0)
(-0.0358684 -0.020521 0)