/*--------------------------------*- C++ -*----------------------------------*\
| =========                 |                                                 |
| \\      /  F ield         | OpenFOAM: The Open Source CFD Toolbox           |
|  \\    /   O peration     | Version:  2012                                  |
|   \\  /    A nd           | Website:  www.openfoam.com                      |
|    \\/     M anipulation  |                                                 |
\*---------------------------------------------------------------------------*/
FoamFile
{
    version     2.0;
    format      ascii;
    class       volScalarField;
    location    "0.06";
    object      volumeFraction1;
}
// * * * * * * * * * * * * * * * * * * * * * * * * * * * * * * * * * * * * * //

dimensions      [0 0 0 0 0 0 0];


internalField   nonuniform List<scalar> 
2268
(
1
1
1
1
1
1
1
1
1
1
1
1
1
1
0.891476
0.291144
0.00638233
1.28899e-06
6.13447e-13
5.73681e-15
6.13553e-16
3.30274e-17
9.13252e-19
1
1
1
1
1
1
1
1
1
1
1
1
1
0.994323
0.652798
0.107217
0.00293729
1.35504e-06
1.2132e-12
8.15836e-15
7.74436e-16
3.94943e-17
9.14245e-19
1
1
1
1
1
1
1
1
1
1
1
1
1
0.941629
0.40568
0.0275979
0.000352777
4.88806e-07
3.67379e-12
3.56871e-14
2.30943e-15
8.74949e-17
1.61128e-18
1
1
1
1
1
1
1
1
1
1
1
1
1
0.855253
0.221458
0.00659446
2.02587e-05
1.92703e-08
3.28721e-12
1.388e-13
6.45662e-15
1.92985e-16
2.82996e-18
1
1
1
1
1
1
1
1
1
1
1
1
1
0.737061
0.105346
0.00126041
8.8742e-07
7.91293e-10
2.48311e-12
1.34314e-13
5.56962e-15
1.57188e-16
2.29486e-18
1
1
1
1
1
1
1
1
1
1
1
1
1
0.598315
0.041647
0.000171575
3.42645e-08
4.25475e-11
1.19959e-12
5.75518e-14
2.13965e-15
5.73546e-17
8.31068e-19
1
1
1
1
1
1
1
1
1
1
1
1
0.993953
0.460912
0.0180176
2.41084e-05
1.38926e-09
2.93361e-12
1.88841e-13
1.01955e-14
4.33857e-16
1.39875e-17
2.54249e-19
1
1
1
1
1
1
1
1
1
1
1
1
0.964765
0.366323
0.00927912
4.38778e-06
7.77287e-11
2.90989e-13
2.68018e-14
1.70179e-15
8.34459e-17
3.17013e-18
6.84646e-20
1.02875e-41
1.14538e-42
8.55641e-45
5.83115e-47
3.14891e-49
1.53014e-51
7.16797e-54
3.12024e-56
1.23556e-58
4.36595e-61
1.35566e-63
3.64129e-66
8.31675e-69
1.58177e-71
2.43661e-74
2.92123e-77
2.55868e-80
1.45721e-83
8.10969e-87
5.17558e-39
5.64338e-40
4.45023e-42
3.1737e-44
1.78793e-46
9.0323e-49
4.37869e-51
1.96641e-53
8.01268e-56
2.90822e-58
9.26046e-61
2.54738e-63
5.95177e-66
1.15679e-68
1.81941e-71
2.22538e-74
1.98717e-77
1.15335e-80
3.26865e-84
1.26837e-36
1.3057e-37
1.10934e-39
8.37026e-42
4.98891e-44
2.67185e-46
1.35772e-48
6.34225e-51
2.67333e-53
9.99892e-56
3.27156e-58
9.22742e-61
2.20672e-63
4.38402e-66
7.03974e-69
8.78232e-72
7.99185e-75
4.72338e-78
1.36225e-81
1.93299e-34
1.86709e-35
1.70684e-37
1.36726e-39
8.60763e-42
4.86682e-44
2.58697e-46
1.25796e-48
5.49288e-51
2.12141e-53
7.14733e-56
2.07131e-58
5.08034e-61
1.03359e-63
1.69745e-66
2.16342e-69
2.00932e-72
1.21104e-75
3.55917e-79
2.15005e-32
1.82496e-33
1.86043e-35
1.61171e-37
1.10173e-39
6.77107e-42
3.83761e-44
1.96384e-46
8.9403e-49
3.57719e-51
1.24282e-53
3.70177e-56
9.30741e-59
1.93727e-61
3.24967e-64
4.22479e-67
3.99806e-70
2.45296e-73
7.33271e-77
1.75282e-30
1.26456e-31
1.40825e-33
1.31736e-35
9.60421e-38
6.30992e-40
3.77087e-42
2.02091e-44
9.57313e-47
3.96873e-49
1.4235e-51
4.36522e-54
1.12738e-56
2.40585e-59
4.13109e-62
5.49034e-65
5.3053e-68
3.32043e-71
1.01166e-74
1.15755e-28
6.42071e-30
8.28344e-32
8.60547e-34
7.02682e-36
5.12461e-38
3.3126e-40
1.88661e-42
9.38483e-45
4.05241e-47
1.50499e-49
4.75817e-52
1.26277e-54
2.76209e-57
4.8512e-60
6.58372e-63
6.48723e-66
4.13535e-69
1.28199e-72
5.50714e-27
2.23161e-28
3.17672e-30
3.66903e-32
3.27334e-34
2.57982e-36
1.76818e-38
1.05773e-40
5.48474e-43
2.45623e-45
9.42171e-48
3.06696e-50
8.35864e-53
1.8736e-55
3.36627e-58
4.6665e-61
4.69088e-64
3.04736e-67
9.61882e-71
1
1
1
1
1
1
1
1
1
1
1
1
0.914115
0.263852
0.00395812
5.90487e-07
3.98554e-12
3.99554e-14
3.64334e-15
2.46217e-16
1.42774e-17
7.65345e-19
4.0528e-20
1
1
1
1
1
1
1
1
1
1
1
1
0.835411
0.158301
0.00107879
3.85867e-08
2.46056e-13
7.64394e-15
5.25273e-16
3.51745e-17
2.32633e-18
1.51705e-19
1.13011e-20
1
1
1
1
1
1
1
1
1
1
1
1
0.753435
0.0909038
0.000267085
2.07491e-09
2.3791e-14
1.36155e-15
1.05971e-16
8.36732e-18
6.25492e-19
4.31595e-20
3.04533e-21
1
1
1
1
1
1
1
1
1
1
1
1
0.672562
0.0496245
6.29087e-05
1.04039e-10
4.27751e-15
4.08786e-16
3.81386e-17
3.05727e-18
2.12662e-19
1.31067e-20
7.66336e-22
1
1
1
1
1
1
1
1
1
1
1
1
0.593828
0.025481
1.45984e-05
6.21225e-12
1.91131e-15
2.20986e-16
1.86726e-17
1.2901e-18
7.59692e-20
3.95547e-21
1.88537e-22
1
1
1
1
1
1
1
1
1
1
1
1
0.518686
0.0133323
4.18521e-06
8.75124e-13
1.39643e-15
1.35471e-16
9.10538e-18
5.075e-19
2.42803e-20
1.04031e-21
4.06337e-23
1
1
1
1
1
1
1
1
1
1
1
1
0.448595
0.00839214
1.46582e-06
2.92918e-13
1.10184e-15
7.98046e-17
4.12178e-18
1.8193e-19
7.00614e-21
2.4505e-22
7.82263e-24
1
1
1
1
1
1
1
1
1
1
1
1
0.38668
0.00530191
5.14193e-07
1.26696e-13
8.12768e-16
4.13976e-17
1.5985e-18
5.47126e-20
1.67587e-21
4.75894e-23
1.25087e-24
1
1
1
1
1
1
1
1
1
1
1
1
0.331651
0.00330825
1.7557e-07
5.57303e-14
5.12789e-16
1.7713e-17
5.03205e-19
1.33141e-20
3.2591e-22
7.56685e-24
1.65127e-25
1
1
1
1
1
1
1
1
1
1
1
1
0.282126
0.00202004
5.55473e-08
2.18547e-14
2.46118e-16
5.66642e-18
1.18732e-19
2.4429e-21
4.83564e-23
9.32977e-25
1.72738e-26
1
1
1
1
1
1
1
1
1
1
1
1
0.237077
0.00119642
1.54084e-08
6.87298e-15
7.27754e-17
1.13763e-18
1.83434e-20
3.10993e-22
5.28364e-24
8.9171e-26
1.4623e-27
1
1
1
1
1
1
1
1
1
1
1
1
0.195644
0.000676704
3.37368e-09
1.28543e-15
1.20073e-17
1.45794e-19
2.01477e-21
3.01683e-23
4.63009e-25
7.08967e-27
1.05715e-28
1
1
1
1
1
1
1
1
1
1
1
1
0.158101
0.000368789
3.33347e-10
8.22341e-20
8.89441e-19
1.36908e-20
1.82219e-22
2.58891e-24
3.77761e-26
5.30798e-28
7.19854e-30
1
1
1
1
1
1
1
1
1
1
1
1
0.124385
0.000197565
2.55179e-11
8.22341e-20
1.25195e-19
1.56682e-21
1.87934e-23
2.24236e-25
2.83023e-27
3.44513e-29
4.1071e-31
1
1
1
1
1
1
1
1
1
1
1
1
0.097927
0.000107853
4.53455e-18
4.53464e-18
6.93164e-20
4.53011e-22
2.70608e-24
1.92485e-26
1.74171e-28
1.6976e-30
1.80796e-32
1
1
1
1
1
1
1
0.999999
0.999999
0.999999
0.999995
1
0.0842978
5.03611e-05
4.53402e-18
2.04002e-17
5.53479e-20
1.49982e-22
5.08855e-25
1.89226e-27
1.11508e-29
8.19029e-32
6.95933e-34
0.996975
0.996904
0.996783
0.996555
0.996304
0.995874
0.995482
0.994758
0.994209
0.992793
0.990279
0.95613
0.0950796
0.000134177
4.60201e-18
1.00411e-17
1.43333e-19
1.11192e-22
8.27033e-26
1.82812e-28
7.11726e-31
3.80054e-33
2.52198e-35
0.736165
0.733808
0.729888
0.722746
0.715216
0.70302
0.692627
0.674729
0.662277
0.633086
0.59267
0.462387
0.100629
0.00152017
1.42243e-07
5.78907e-14
1.78353e-24
6.69916e-23
1.06385e-26
1.52017e-29
4.22842e-32
1.64758e-34
8.48619e-37
0.0827753
0.0814115
0.0791776
0.0752058
0.0711305
0.0647969
0.0596294
0.0511893
0.0454308
0.0328189
0.0160977
2.56689e-11
0.05645
0.0215019
1.02064e-05
1.69088e-24
1.78418e-24
1.66817e-23
1.13246e-27
1.05492e-30
2.21942e-33
6.49783e-36
2.61069e-38
-9.20758e-38
-2.32918e-37
-7.49737e-38
3.69856e-38
-4.1871e-37
-2.65976e-35
-2.80449e-37
-5.75114e-32
-1.85222e-32
-1.61459e-30
-2.35271e-28
2.56268e-11
2.56689e-11
0.000406738
3.42022e-07
1.69086e-24
1.69088e-24
2.21882e-24
9.80356e-29
5.97952e-32
9.94985e-35
2.27068e-37
7.23883e-40
1.42938e-19
1.39154e-19
1.31717e-19
1.28989e-19
5.70077e-19
2.46427e-17
9.62698e-16
2.79224e-14
5.86408e-13
8.57259e-12
7.62303e-11
4.14119e-10
2.78528e-09
7.56358e-09
7.4018e-09
1.69088e-24
2.40787e-19
1.92893e-25
6.68455e-30
2.69122e-33
3.69064e-36
6.8275e-39
1.7721e-41
1.2516e-31
3.84536e-29
5.6272e-27
4.86242e-25
2.74395e-23
1.05176e-21
2.7074e-20
4.31263e-19
1.65865e-18
1.65927e-18
1.66172e-18
1.71485e-18
1.71544e-18
1.71769e-18
1.01449e-11
6.64126e-16
5.35663e-20
1.11042e-26
3.45009e-31
9.53384e-35
1.11414e-37
1.74485e-40
3.78505e-43
1.14848e-33
4.73783e-31
9.09439e-29
1.07271e-26
8.61055e-25
4.9597e-23
2.09325e-21
6.57223e-20
1.53299e-18
2.52018e-17
2.68014e-16
1.81431e-15
4.30071e-15
6.02311e-15
4.64364e-14
5.15499e-17
3.84939e-21
4.48605e-28
1.33412e-32
2.61264e-36
2.69971e-39
3.71154e-42
6.93865e-45
8.7804e-42
3.18245e-39
5.31529e-37
5.39375e-35
3.68167e-33
1.77226e-31
6.09537e-30
1.48712e-28
2.5372e-27
4.04327e-26
2.01557e-24
2.08418e-22
2.14011e-20
1.91477e-18
7.52601e-17
9.91353e-19
1.47238e-22
1.23271e-29
3.78361e-34
5.51127e-38
5.20961e-41
6.52592e-44
1.08326e-46
1.17337e-46
5.0843e-44
1.07571e-41
1.51094e-39
1.61799e-37
1.42759e-35
1.06881e-33
6.80219e-32
3.62706e-30
1.60976e-28
5.97604e-27
1.99076e-25
7.91202e-24
5.28599e-22
2.48218e-20
1.13472e-20
3.18146e-24
2.32411e-31
7.82881e-36
8.94573e-40
7.99035e-43
9.41838e-46
1.42955e-48
4.6619e-51
3.15779e-48
1.06335e-45
2.34108e-43
3.74418e-41
4.59501e-39
4.47039e-37
3.52286e-35
2.28279e-33
1.2281e-31
5.55022e-30
2.12158e-28
6.99743e-27
2.01312e-25
5.13631e-24
6.1731e-23
3.83773e-26
2.95941e-33
1.16518e-37
1.1124e-41
9.69051e-45
1.11153e-47
1.58664e-50
1.23188e-54
1.00716e-51
3.97274e-49
1.00325e-46
1.81692e-44
2.50578e-42
2.73104e-40
2.41002e-38
1.75432e-36
1.06654e-34
5.4997e-33
2.4244e-31
9.29582e-30
3.12696e-28
9.43437e-27
1.32282e-25
2.58625e-28
2.55705e-35
1.24758e-39
1.06204e-43
9.30201e-47
1.0717e-49
1.47752e-52
3.52533e-59
3.03466e-56
1.25912e-53
3.3441e-51
6.37657e-49
9.2671e-47
1.06567e-44
9.90803e-43
7.57353e-41
4.7858e-39
2.51857e-37
1.09593e-35
3.90844e-34
1.10219e-32
2.25735e-31
1.39704e-30
8.70974e-31
1.43985e-37
9.47997e-42
7.7262e-46
7.04626e-49
8.42413e-52
1.1519e-54
1.69252e-66
1.75131e-63
8.79681e-61
2.8487e-58
6.67994e-56
1.20606e-53
1.7463e-51
2.08031e-49
2.08638e-47
1.78632e-45
1.32994e-43
8.69245e-42
5.07805e-40
2.67816e-38
1.29668e-36
5.79367e-35
1.22032e-33
5.1923e-40
5.10822e-44
4.2891e-48
4.22514e-51
5.40736e-54
7.52484e-57
3.74288e-71
4.20776e-68
2.29133e-65
8.04021e-63
2.0448e-60
4.01073e-58
6.32464e-56
8.22587e-54
9.02933e-52
8.4728e-50
6.90929e-48
4.92728e-46
3.09971e-44
1.71283e-42
8.17502e-41
3.18443e-39
4.18194e-38
1.08891e-42
1.90118e-46
1.79538e-50
1.99963e-53
2.83067e-56
4.11902e-59
8.82827e-81
5.69481e-78
1.72509e-75
3.27541e-73
4.45006e-71
4.81441e-69
4.76912e-67
5.01259e-65
5.82124e-63
6.86448e-61
7.64683e-59
7.81532e-57
7.36393e-55
6.45129e-53
5.33698e-51
4.20875e-49
3.19181e-47
1.17858e-45
4.80056e-49
5.65732e-53
7.49419e-56
1.21247e-58
1.89538e-61
1.14633e-86
8.84506e-84
3.48681e-81
9.97766e-79
2.47483e-76
5.68173e-74
1.19679e-71
2.25041e-69
3.74821e-67
5.53964e-65
7.3666e-63
8.90839e-61
9.94891e-59
1.0365e-56
1.01881e-54
9.50459e-53
8.42036e-51
3.53246e-49
7.75041e-52
1.31917e-55
2.21577e-58
4.24889e-61
7.34505e-64
1.20212e-92
9.47945e-90
3.48755e-87
7.93424e-85
1.24908e-82
1.44069e-80
1.26356e-78
8.72095e-77
5.14946e-75
3.30294e-73
3.16011e-71
4.07803e-69
5.5125e-67
7.1466e-65
8.83686e-63
1.04888e-60
1.20661e-58
1.35129e-56
7.44934e-55
2.25422e-58
5.17927e-61
1.22385e-63
2.40931e-66
1.54268e-98
1.37801e-95
5.74878e-93
1.48836e-90
2.69466e-88
3.69452e-86
4.27381e-84
5.11091e-82
7.83566e-80
1.4584e-77
2.77188e-75
4.96578e-73
8.30452e-71
1.30449e-68
1.94742e-66
2.78698e-64
3.85483e-62
5.16333e-60
3.36419e-58
2.74639e-61
9.53303e-64
2.90353e-66
6.71677e-69
7.36783e-105
7.6956e-102
3.79355e-99
1.19594e-96
2.86147e-94
6.25793e-92
1.50562e-89
4.07374e-87
1.11184e-84
2.8298e-82
6.59174e-80
1.40959e-77
2.80203e-75
5.23033e-73
9.26771e-71
1.56691e-68
2.52907e-66
3.82953e-64
2.61623e-62
2.32076e-64
1.38358e-66
5.71133e-69
1.60309e-71
3.52306e-111
4.25162e-108
2.39183e-105
8.32046e-103
2.00202e-100
3.52405e-98
4.68139e-96
4.76012e-94
3.72985e-92
2.29765e-90
1.36119e-88
1.60365e-86
3.90166e-84
1.05764e-81
2.7836e-79
7.10385e-77
1.77471e-74
4.36877e-72
1.06494e-69
1.29262e-67
1.57977e-69
9.36802e-72
3.29942e-74
2.75689e-121
3.70067e-118
2.54533e-115
1.43046e-112
8.93429e-110
6.11727e-107
3.95248e-104
2.26182e-101
1.14504e-98
5.19691e-96
2.15056e-93
8.227e-91
2.95181e-88
1.00467e-85
3.28272e-83
1.03922e-80
3.2165e-78
9.78796e-76
2.93675e-73
4.35717e-71
1.42428e-72
1.29476e-74
5.91783e-77
1.00244e-128
5.25625e-125
1.36441e-121
2.34295e-118
3.00249e-115
3.0697e-112
2.61689e-109
1.91836e-106
1.23979e-103
7.19962e-101
3.8238e-98
1.88338e-95
8.7227e-93
3.83973e-90
1.62401e-87
6.65383e-85
2.66079e-82
1.04198e-79
3.98908e-77
7.45108e-75
1.01844e-75
1.52565e-77
9.35705e-80
2.01697e-135
1.41784e-131
4.93853e-128
1.13826e-124
1.95791e-121
2.68731e-118
3.07608e-115
3.02962e-112
2.63264e-109
2.05853e-106
1.47452e-103
9.81263e-101
6.14604e-98
3.65679e-95
2.08401e-92
1.14309e-89
6.03689e-87
3.03284e-84
1.39092e-81
3.75951e-79
5.86771e-79
1.55919e-80
1.32388e-82
1.67277e-144
1.5336e-140
6.906e-137
2.05169e-133
4.57884e-130
8.33391e-127
1.32098e-123
1.92629e-120
2.6885e-117
3.64194e-114
4.75458e-111
5.8805e-108
6.80404e-105
7.32266e-102
7.3454e-99
6.88658e-96
6.01029e-93
4.74716e-90
3.21419e-87
1.65742e-84
2.77793e-82
1.41025e-83
1.70376e-85
4.90766e-153
4.61074e-149
2.49454e-145
1.62654e-141
7.93935e-138
3.09857e-134
1.0092e-130
2.82603e-127
6.9647e-124
1.53823e-120
3.09433e-117
5.74479e-114
9.97029e-111
1.63487e-107
2.56007e-104
3.8628e-101
5.66719e-98
8.14244e-95
1.15298e-91
1.61384e-88
1.12292e-85
1.15859e-86
2.03397e-88
1.37476e-165
4.28472e-161
6.59534e-157
6.6384e-153
4.87738e-149
3.31557e-145
3.37026e-141
2.92889e-137
2.23408e-133
1.52756e-129
9.53713e-126
5.52083e-122
3.00514e-118
1.55635e-114
7.75495e-111
3.75292e-107
1.77963e-103
8.32658e-100
3.86327e-96
1.77953e-92
4.08322e-89
8.8925e-90
2.29647e-91
3.35085e-21
3.27721e-22
2.7066e-23
2.11579e-24
1.26423e-21
1.78679e-22
2.19409e-23
2.25066e-24
2.87082e-22
3.47708e-23
3.64714e-24
3.177e-25
5.84938e-23
5.9562e-24
5.29025e-25
4.00188e-26
1.135e-23
9.26788e-25
6.73041e-26
4.26192e-27
1.9979e-24
1.35491e-25
8.31331e-27
4.52667e-28
3.13152e-25
1.75133e-26
8.97968e-28
4.15825e-29
4.16913e-26
1.96905e-27
8.62487e-29
3.45708e-30
4.6209e-27
1.85983e-28
7.02438e-30
2.45867e-31
4.16855e-28
1.46644e-29
4.8862e-31
1.52242e-32
3.14843e-29
9.93484e-31
2.97679e-32
8.36731e-34
2.07106e-30
5.93285e-32
1.60974e-33
4.09668e-35
1.27066e-31
3.2569e-33
7.88646e-35
1.79533e-36
6.44546e-33
1.46724e-34
3.16219e-36
6.44354e-38
2.55113e-34
5.19422e-36
1.00478e-37
1.85085e-39
8.20678e-36
1.45452e-37
2.47702e-39
4.09257e-41
2.45862e-37
3.79426e-39
5.70565e-41
8.46364e-43
6.78612e-39
9.14013e-41
1.21838e-42
1.63006e-44
1.7118e-40
2.01745e-42
2.39448e-44
2.90178e-46
3.90277e-42
4.04494e-44
4.29752e-46
4.74291e-48
7.94513e-44
7.28834e-46
6.9736e-48
7.04739e-50
1.43182e-45
1.17173e-47
1.01706e-49
9.46806e-52
2.25591e-47
1.66239e-49
1.31903e-51
1.13827e-53
3.08827e-49
2.0706e-51
1.5145e-53
1.21978e-55
3.64936e-51
2.25019e-53
1.5298e-55
1.15766e-57
3.70603e-53
2.12514e-55
1.35478e-57
9.70162e-60
3.22599e-55
1.73952e-57
1.04896e-59
7.15823e-62
2.40163e-57
1.23158e-59
7.08829e-62
4.64342e-64
1.52916e-59
7.54081e-62
4.17931e-64
2.64733e-66
8.32555e-62
3.99288e-64
2.15036e-66
1.32705e-68
3.88491e-64
1.83213e-66
9.67372e-69
5.85991e-71
1.55652e-66
7.29916e-69
3.81294e-71
2.28455e-73
5.37853e-69
2.53538e-71
1.32209e-73
7.89447e-76
1.60973e-71
7.71077e-74
4.05003e-76
2.42842e-78
4.20125e-74
2.06649e-76
1.10295e-78
6.6899e-81
9.63097e-77
4.91443e-79
2.68851e-81
1.66141e-83
1.95816e-79
1.04661e-81
5.91704e-84
3.75055e-86
3.56908e-82
2.01619e-84
1.18706e-86
7.76586e-89
5.90912e-85
3.55643e-87
2.19564e-89
1.49075e-91
9.01458e-88
5.81978e-90
3.78986e-92
2.68293e-94
1.28829e-90
8.96904e-93
6.18949e-95
4.5852e-97
1.75207e-93
1.31994e-95
9.68363e-98
7.52472e-100
9.75721e-26
2.55528e-27
4.65307e-29
6.51797e-31
7.24027e-33
6.66889e-35
5.14932e-37
3.37913e-39
1.88672e-41
8.97393e-44
3.61835e-46
1.22851e-48
3.47098e-51
8.02769e-54
1.48254e-56
2.10612e-59
2.16423e-62
1.43437e-65
4.61154e-69
1.2121e-25
3.26769e-27
5.93307e-29
7.91708e-31
8.25619e-33
7.06787e-35
5.05336e-37
3.06857e-39
1.58686e-41
7.00521e-44
2.62792e-46
8.32426e-49
2.20023e-51
4.77356e-54
8.29111e-57
1.11045e-59
1.07821e-62
6.76778e-66
2.0656e-69
1.33145e-26
3.03972e-28
5.254e-30
7.24477e-32
7.98609e-34
7.21327e-36
5.37327e-38
3.34451e-40
1.74741e-42
7.69625e-45
2.85163e-47
8.85165e-50
2.27938e-52
4.79932e-55
8.07442e-58
1.04798e-60
9.88686e-64
6.04349e-67
1.79948e-70
1.55007e-27
3.34207e-29
5.55008e-31
7.31091e-33
7.72666e-35
6.69832e-37
4.81152e-39
2.89976e-41
1.47191e-43
6.31507e-46
2.28426e-48
6.93407e-51
1.74851e-53
3.60809e-56
5.94998e-59
7.56112e-62
6.96772e-65
4.15408e-68
1.20564e-71
1.41427e-28
2.72399e-30
4.20706e-32
5.28597e-34
5.42647e-36
4.61536e-38
3.26852e-40
1.94343e-42
9.72479e-45
4.10462e-47
1.45772e-49
4.33588e-52
1.06964e-54
2.15663e-57
3.47173e-60
4.30382e-63
3.86759e-66
2.24833e-69
6.36411e-73
1.31642e-29
2.28038e-31
3.24435e-33
3.805e-35
3.68771e-37
2.98062e-39
2.0175e-41
1.15102e-43
5.54449e-46
2.25831e-48
7.75513e-51
2.234e-53
5.34473e-56
1.04621e-58
1.63674e-61
1.9736e-64
1.72656e-67
9.7786e-71
2.69884e-74
1.04538e-30
1.60749e-32
2.08041e-34
2.26331e-36
2.06624e-38
1.5899e-40
1.03246e-42
5.67804e-45
2.64534e-47
1.04398e-49
3.47819e-52
9.72763e-55
2.26092e-57
4.30135e-60
6.54348e-63
7.67598e-66
6.5363e-69
3.6053e-72
9.69647e-76
7.61176e-32
1.04413e-33
1.22726e-35
1.2297e-37
1.04655e-39
7.57607e-42
4.66481e-44
2.44696e-46
1.09272e-48
4.14889e-51
1.33392e-53
3.6084e-56
8.12701e-59
1.50035e-61
2.21732e-64
2.52897e-67
2.09517e-70
1.12492e-73
2.94616e-77
4.77404e-33
5.86822e-35
6.27806e-37
5.8076e-39
4.61809e-41
3.15345e-43
1.84539e-45
9.25153e-48
3.96556e-50
1.44967e-52
4.49809e-55
1.17619e-57
2.56378e-60
4.58441e-63
6.56638e-66
7.26145e-69
5.83472e-72
3.03901e-75
7.72273e-79
2.64644e-34
2.94472e-36
2.8844e-38
2.46777e-40
1.8315e-42
1.17604e-44
6.51334e-47
3.1062e-49
1.27184e-51
4.45554e-54
1.32816e-56
3.34258e-59
7.02221e-62
1.2114e-64
1.67512e-67
1.78922e-70
1.38911e-73
6.99239e-77
1.71765e-80
1.31339e-35
1.3292e-37
1.19416e-39
9.44967e-42
6.53621e-44
3.9373e-46
2.05694e-48
9.29399e-51
3.61829e-53
1.20854e-55
3.44232e-58
8.29182e-61
1.66952e-63
2.76319e-66
3.66907e-69
3.76604e-72
2.81161e-75
1.36181e-78
3.22078e-82
5.81044e-37
5.34613e-39
4.39728e-41
3.2075e-43
2.05823e-45
1.15683e-47
5.66743e-50
2.41177e-52
8.87556e-55
2.81093e-57
7.61112e-60
1.74659e-62
3.3563e-65
5.30974e-68
6.74827e-71
6.63755e-74
4.7537e-77
2.21101e-80
5.02646e-84
2.27699e-38
1.89001e-40
1.41382e-42
9.45184e-45
5.59665e-47
2.92062e-49
1.33556e-51
5.3298e-54
1.84667e-56
5.52532e-59
1.41757e-61
3.09023e-64
5.65363e-67
8.53219e-70
1.03625e-72
9.7557e-76
6.69742e-79
2.99017e-82
6.53423e-86
7.30517e-40
5.48313e-42
3.74107e-44
2.29815e-46
1.25813e-48
6.10453e-51
2.60803e-53
9.76664e-56
3.18752e-58
9.01431e-61
2.19238e-63
4.54264e-66
7.9178e-69
1.14081e-71
1.32532e-74
1.19556e-77
7.87753e-81
3.38078e-84
7.11219e-88
1.88628e-41
1.29089e-43
8.08538e-46
4.588e-48
2.33147e-50
1.05518e-52
4.22243e-55
1.48702e-57
4.58e-60
1.22633e-62
2.83205e-65
5.58663e-68
9.29238e-71
1.28043e-73
1.42541e-76
1.23442e-79
7.82158e-83
3.23333e-86
6.56206e-90
3.77807e-43
2.39806e-45
1.39676e-47
7.39674e-50
3.51843e-52
1.49583e-54
5.64039e-57
1.87776e-59
5.48285e-62
1.3956e-64
3.07147e-67
5.78758e-70
9.21507e-73
1.21791e-75
1.30279e-78
1.08601e-81
6.63446e-85
2.64842e-88
5.19852e-92
6.91452e-45
3.84017e-47
1.98303e-49
9.8681e-52
4.41954e-54
1.7742e-56
6.33238e-59
2.00091e-61
5.55895e-64
1.34967e-66
2.83969e-69
5.12657e-72
7.83606e-75
9.96083e-78
1.02659e-80
8.25873e-84
4.87675e-87
1.88455e-90
3.58628e-94
1.18767e-46
5.79996e-49
2.65955e-51
1.18253e-53
4.75816e-56
1.76806e-58
6.00725e-61
1.81172e-63
4.81315e-66
1.11971e-68
2.26144e-71
3.92615e-74
5.78092e-77
7.0902e-80
7.06147e-83
5.49767e-86
3.14619e-89
1.17993e-92
2.18218e-96
1.89924e-48
8.20041e-51
3.35765e-53
1.34124e-55
4.87652e-58
1.65103e-60
5.1293e-63
1.42294e-65
3.62098e-68
8.09855e-71
1.57516e-73
2.63792e-76
3.75241e-79
4.45284e-82
4.29678e-85
3.24552e-88
1.80428e-91
6.58178e-95
1.18542e-98
2.81112e-50
1.07985e-52
3.97172e-55
1.4336e-57
4.73699e-60
1.4685e-62
4.19299e-65
1.07516e-67
2.54237e-70
5.30629e-73
9.69194e-76
1.57111e-78
2.16604e-81
2.49426e-84
2.33829e-87
1.71787e-90
9.29932e-94
3.30692e-97
5.81352e-101
3.81273e-52
1.31331e-54
4.37129e-57
1.43534e-59
4.33802e-62
1.23822e-64
3.26726e-67
7.78227e-70
1.71755e-72
3.35915e-75
5.78057e-78
8.85851e-81
1.15952e-83
1.2732e-86
1.15084e-89
8.24114e-93
4.35286e-96
1.51167e-99
2.59732e-103
4.71822e-54
1.46929e-56
4.46013e-59
1.3415e-61
3.73269e-64
9.86705e-67
2.41947e-69
5.38041e-72
1.11322e-74
2.04876e-77
3.33396e-80
4.8466e-83
6.04152e-86
6.34251e-89
5.50732e-92
3.8002e-95
1.94155e-98
6.54707e-102
1.09639e-105
5.27276e-56
1.49976e-58
4.19048e-61
1.16385e-63
3.00339e-66
7.40051e-69
1.69649e-71
3.54141e-74
6.90213e-77
1.20061e-79
1.85453e-82
2.56646e-85
3.05629e-88
3.07602e-91
2.57163e-94
1.71323e-97
8.48e-101
2.7799e-104
4.54092e-108
5.30445e-58
1.3927e-60
3.616e-63
9.34964e-66
2.25429e-68
5.21207e-71
1.12378e-73
2.21417e-76
4.08489e-79
6.74586e-82
9.92956e-85
1.31281e-87
1.49824e-90
1.44957e-93
1.1693e-96
7.53551e-100
3.61913e-103
1.15472e-106
1.84143e-110
4.77093e-60
1.1697e-62
2.85139e-65
6.92552e-68
1.57272e-70
3.43637e-73
7.01348e-76
1.31178e-78
2.30259e-81
3.6267e-84
5.10768e-87
6.47508e-90
7.10445e-93
6.62599e-96
5.16866e-99
3.22837e-102
1.50681e-105
4.68464e-109
7.29917e-113
3.8272e-62
8.86765e-65
2.05116e-67
4.72253e-70
1.01829e-72
2.11781e-75
4.11786e-78
7.35354e-81
1.23443e-83
1.86295e-86
2.52058e-89
3.07502e-92
3.25402e-95
2.93357e-98
2.21794e-101
1.34528e-104
6.11136e-108
1.85355e-111
2.82392e-115
2.72929e-64
6.05027e-67
1.34245e-69
2.95766e-72
6.10638e-75
1.21786e-77
2.27094e-80
3.89486e-83
6.2857e-86
9.13183e-89
1.19188e-91
1.4044e-94
1.43792e-97
1.25649e-100
9.22852e-104
5.44609e-107
2.41169e-110
7.14374e-114
1.065e-117
1.72829e-66
3.71204e-69
7.98857e-72
1.70029e-74
3.38958e-77
6.53109e-80
1.17566e-82
1.94796e-85
3.03805e-88
4.26853e-91
5.39636e-94
6.1636e-97
6.12513e-100
5.20186e-103
3.71996e-106
2.13992e-109
9.25112e-113
2.67926e-116
3.91141e-120
9.71255e-69
2.04683e-71
4.31977e-74
8.96755e-77
1.7408e-79
3.26483e-82
5.71098e-85
9.19565e-88
1.39318e-90
1.90184e-93
2.33835e-96
2.59815e-99
2.51379e-102
2.0804e-105
1.45176e-108
8.15573e-112
3.44707e-115
9.77133e-119
1.39788e-122
4.84662e-71
1.01504e-73
2.12408e-76
4.34188e-79
8.27641e-82
1.52203e-84
2.60407e-87
4.09834e-90
6.06259e-93
8.07731e-96
9.69702e-99
1.05179e-101
9.93773e-105
8.03537e-108
5.48358e-111
3.01379e-114
1.2471e-117
3.4637e-121
4.85899e-125
2.15103e-73
4.53383e-76
9.50929e-79
1.93207e-81
3.64625e-84
6.62278e-87
1.11536e-89
1.72552e-92
2.50472e-95
3.27133e-98
3.84962e-101
4.08991e-104
3.78476e-107
2.99742e-110
2.00459e-113
1.0797e-116
4.38011e-120
1.19313e-123
1.64236e-127
8.5108e-76
1.82824e-78
3.88445e-81
7.91703e-84
1.49118e-86
2.69389e-89
4.49348e-92
6.87089e-95
9.83403e-98
1.26443e-100
1.46397e-103
1.52843e-106
1.38919e-109
1.08021e-112
7.09378e-116
3.75063e-119
1.49363e-122
3.99418e-126
5.3982e-130
3.01311e-78
6.67792e-81
1.45211e-83
2.99532e-86
5.6742e-89
1.02645e-91
1.70585e-94
2.59166e-97
3.67427e-100
4.66977e-103
5.33858e-106
5.49418e-109
4.91784e-112
3.76316e-115
2.43135e-118
1.26388e-121
4.94691e-125
1.29987e-128
1.72591e-132
9.58566e-81
2.21834e-83
4.98592e-86
1.04978e-88
2.01493e-91
3.67325e-94
6.11634e-97
9.27878e-100
1.30872e-102
1.65041e-105
1.86929e-108
1.90189e-111
1.68076e-114
1.2684e-117
8.07728e-121
4.13423e-124
1.59228e-127
4.1147e-131
5.37026e-135
2.75593e-83
6.73631e-86
1.57961e-88
3.42215e-91
6.7014e-94
1.23854e-96
2.07714e-99
3.16112e-102
4.45367e-105
5.59284e-108
6.29544e-111
6.34961e-114
5.55311e-117
4.1412e-120
2.60365e-123
1.31396e-126
4.98512e-130
1.26793e-133
1.6275e-137
7.20576e-86
1.88064e-88
4.64134e-91
1.04239e-93
2.09601e-96
3.94899e-99
6.70283e-102
1.02768e-104
1.45168e-107
1.82126e-110
2.04326e-113
2.04803e-116
1.77636e-119
1.31148e-122
8.15339e-126
4.06219e-129
1.51969e-132
3.80719e-136
4.8085e-140
1.72671e-88
4.86027e-91
1.27254e-93
2.98293e-96
6.19487e-99
1.19572e-101
2.06302e-104
3.19885e-107
4.54566e-110
5.71428e-113
6.40601e-116
6.39535e-119
5.51186e-122
4.03544e-125
2.48424e-128
1.2233e-131
4.51672e-135
1.11531e-138
1.38668e-142
3.82374e-91
1.17132e-93
3.27679e-96
8.06531e-99
1.73891e-101
3.45364e-104
6.08025e-107
9.56687e-110
1.37164e-112
1.73219e-115
1.94484e-118
1.93769e-121
1.66229e-124
1.20865e-127
7.37683e-131
3.59396e-134
1.31074e-137
3.19212e-141
3.90861e-145
7.90187e-94
2.65493e-96
7.98407e-99
2.07408e-101
4.66298e-104
9.56473e-107
1.72386e-109
2.7603e-112
4.00297e-115
5.08961e-118
5.73418e-121
5.71117e-124
4.88385e-127
3.53106e-130
2.13891e-133
1.0319e-136
3.71992e-140
8.93982e-144
1.10902e-147
1.53921e-96
5.70893e-99
1.8547e-101
5.10651e-104
1.20145e-106
2.55289e-109
4.72281e-112
7.71403e-115
1.13385e-117
1.45408e-120
1.64655e-123
1.64169e-126
1.40112e-129
1.0084e-132
6.06786e-136
2.90104e-139
1.03437e-142
2.45425e-146
6.3326e-150
2.85876e-99
1.17617e-101
4.14304e-104
1.21275e-106
2.99416e-109
6.60515e-112
1.25676e-114
2.09761e-117
3.12981e-120
4.05395e-123
4.61941e-126
4.61565e-129
3.93531e-132
2.82172e-135
1.68789e-138
8.00217e-142
2.82349e-145
9.9267e-149
3.75898e-152
5.11035e-102
2.33922e-104
8.95355e-107
2.79179e-109
7.2452e-112
1.66169e-114
3.25601e-117
5.55986e-120
8.4301e-123
1.10392e-125
1.26689e-128
1.26954e-131
1.08205e-134
7.73449e-138
4.60161e-141
2.16431e-144
7.88455e-148
5.97516e-151
2.23332e-154
)
;

boundaryField
{
    leftWall
    {
        type            zeroGradient;
    }
    rightWall
    {
        type            zeroGradient;
    }
    lowerWall
    {
        type            zeroGradient;
    }
    atmosphere
    {
        type            inletOutlet;
        inletValue      uniform 0;
        value           nonuniform List<scalar> 
46
(
0
0
0
0
0
0
0
0
0
0
0
0
0
0
0
0
0
0
0
0
4.08322e-89
8.8925e-90
2.29647e-91
1.75207e-93
1.31994e-95
9.68363e-98
7.52472e-100
5.11035e-102
2.33922e-104
8.95355e-107
2.79179e-109
7.2452e-112
1.66169e-114
3.25601e-117
5.55986e-120
8.4301e-123
1.10392e-125
1.26689e-128
1.26954e-131
1.08205e-134
7.73449e-138
4.60161e-141
2.16431e-144
7.88455e-148
5.97516e-151
2.23332e-154
)
;
    }
    defaultFaces
    {
        type            empty;
    }
}


// ************************************************************************* //
