/*--------------------------------*- C++ -*----------------------------------*\
| =========                 |                                                 |
| \\      /  F ield         | OpenFOAM: The Open Source CFD Toolbox           |
|  \\    /   O peration     | Version:  2012                                  |
|   \\  /    A nd           | Website:  www.openfoam.com                      |
|    \\/     M anipulation  |                                                 |
\*---------------------------------------------------------------------------*/
FoamFile
{
    version     2.0;
    format      ascii;
    class       surfaceScalarField;
    location    "0.45";
    object      phi;
}
// * * * * * * * * * * * * * * * * * * * * * * * * * * * * * * * * * * * * * //

dimensions      [0 3 -1 0 0 0 0];
oriented        oriented;


internalField   nonuniform List<scalar> 
4432
(
2.90008e-06
-2.90008e-06
5.84203e-06
-2.94195e-06
8.58197e-06
-2.73993e-06
1.12641e-05
-2.68217e-06
1.39884e-05
-2.72424e-06
1.67238e-05
-2.73541e-06
1.90539e-05
-2.33012e-06
2.12845e-05
-2.2306e-06
2.33378e-05
-2.05334e-06
2.49804e-05
-1.64253e-06
2.64632e-05
-1.48284e-06
2.77036e-05
-1.2404e-06
2.86184e-05
-9.148e-07
2.89059e-05
-2.87476e-07
2.86545e-05
2.5138e-07
2.79793e-05
6.75222e-07
2.6755e-05
1.22429e-06
2.48713e-05
1.88364e-06
2.21955e-05
2.67586e-06
1.83697e-05
3.8258e-06
1.36928e-05
4.67688e-06
7.81128e-06
5.88151e-06
7.81125e-06
2.89039e-06
-5.79047e-06
5.84024e-06
-5.8918e-06
8.60434e-06
-5.50403e-06
1.12987e-05
-5.37653e-06
1.40182e-05
-5.44376e-06
1.67402e-05
-5.45735e-06
1.90777e-05
-4.6676e-06
2.13333e-05
-4.4862e-06
2.33924e-05
-4.11246e-06
2.50209e-05
-3.27105e-06
2.65727e-05
-3.03461e-06
2.77978e-05
-2.46547e-06
2.86129e-05
-1.72995e-06
2.89802e-05
-6.54735e-07
2.88247e-05
4.06835e-07
2.81542e-05
1.34577e-06
2.68808e-05
2.49767e-06
2.48586e-05
3.90578e-06
2.19894e-05
5.54504e-06
1.78999e-05
7.91533e-06
1.27325e-05
9.8443e-06
6.15054e-06
1.24635e-05
1.39618e-05
2.88276e-06
-8.67323e-06
5.85249e-06
-8.86153e-06
8.64971e-06
-8.30126e-06
1.1362e-05
-8.08878e-06
1.40776e-05
-8.15941e-06
1.67774e-05
-8.15714e-06
1.91338e-05
-7.02397e-06
2.14428e-05
-6.7952e-06
2.35149e-05
-6.18459e-06
2.5191e-05
-4.9471e-06
2.67744e-05
-4.6181e-06
2.79835e-05
-3.67453e-06
2.87667e-05
-2.51318e-06
2.92193e-05
-1.10734e-06
2.92242e-05
4.01952e-07
2.86407e-05
1.92925e-06
2.74682e-05
3.6702e-06
2.56643e-05
5.7097e-06
2.31401e-05
8.06924e-06
1.94671e-05
1.15884e-05
1.46687e-05
1.46426e-05
7.7554e-06
1.93768e-05
2.17172e-05
2.88211e-06
-1.15553e-05
5.87809e-06
-1.18575e-05
8.70711e-06
-1.11303e-05
1.14456e-05
-1.08273e-05
1.4161e-05
-1.08748e-05
1.68309e-05
-1.0827e-05
1.92109e-05
-9.404e-06
2.15763e-05
-9.1606e-06
2.3654e-05
-8.26227e-06
2.53879e-05
-6.68102e-06
2.69818e-05
-6.21199e-06
2.81576e-05
-4.85033e-06
2.89839e-05
-3.33945e-06
2.94593e-05
-1.58273e-06
2.9495e-05
3.66292e-07
2.89214e-05
2.50276e-06
2.76831e-05
4.90855e-06
2.57125e-05
7.68026e-06
2.30451e-05
1.07366e-05
1.92628e-05
1.53707e-05
1.44377e-05
1.94677e-05
7.45032e-06
2.63642e-05
2.91675e-05
2.88853e-06
-1.44439e-05
5.91787e-06
-1.48869e-05
8.77678e-06
-1.39892e-05
1.15484e-05
-1.35989e-05
1.42795e-05
-1.36059e-05
1.69297e-05
-1.34772e-05
1.93529e-05
-1.18272e-05
2.17874e-05
-1.1595e-05
2.38727e-05
-1.03476e-05
2.56984e-05
-8.50671e-06
2.73313e-05
-7.84488e-06
2.85271e-05
-6.0462e-06
2.94241e-05
-4.23642e-06
2.99468e-05
-2.10546e-06
3.00567e-05
2.56375e-07
2.96507e-05
2.90881e-06
2.86659e-05
5.89339e-06
2.70419e-05
9.30423e-06
2.47681e-05
1.30104e-05
2.14231e-05
1.87157e-05
1.69651e-05
2.39257e-05
9.6943e-06
3.3635e-05
3.88618e-05
2.91534e-06
-1.73592e-05
5.94753e-06
-1.7919e-05
8.84534e-06
-1.6887e-05
1.16651e-05
-1.64187e-05
1.44177e-05
-1.63584e-05
1.7061e-05
-1.61206e-05
1.95393e-05
-1.43055e-05
2.2006e-05
-1.40617e-05
2.40788e-05
-1.24205e-05
2.59874e-05
-1.04153e-05
2.76733e-05
-9.53084e-06
2.88524e-05
-7.2253e-06
2.98009e-05
-5.18485e-06
3.03665e-05
-2.67108e-06
3.05004e-05
1.22437e-07
3.0115e-05
3.29421e-06
2.91427e-05
6.86575e-06
2.74592e-05
1.09877e-05
2.51091e-05
1.53604e-05
2.16007e-05
2.22241e-05
1.71018e-05
2.84246e-05
9.55905e-06
4.11778e-05
4.84208e-05
2.95801e-06
-2.03172e-05
5.97078e-06
-2.09318e-05
8.92303e-06
-1.98392e-05
1.18017e-05
-1.92973e-05
1.45874e-05
-1.91442e-05
1.72466e-05
-1.87798e-05
1.98015e-05
-1.68603e-05
2.22988e-05
-1.6559e-05
2.43907e-05
-1.45124e-05
2.64542e-05
-1.24788e-05
2.82047e-05
-1.12813e-05
2.94539e-05
-8.47457e-06
3.04803e-05
-6.21118e-06
3.10885e-05
-3.27928e-06
3.126e-05
-4.91155e-08
3.10163e-05
3.53798e-06
3.03136e-05
7.56844e-06
2.90902e-05
1.2211e-05
2.73476e-05
1.7103e-05
2.45631e-05
2.50086e-05
2.08225e-05
3.21652e-05
1.30898e-05
4.89105e-05
6.15106e-05
3.01828e-06
-2.33355e-05
6.0054e-06
-2.39189e-05
9.00506e-06
-2.28389e-05
1.1955e-05
-2.22472e-05
1.47788e-05
-2.1968e-05
1.74625e-05
-2.14635e-05
2.00885e-05
-1.94863e-05
2.25834e-05
-1.90538e-05
2.47085e-05
-1.66375e-05
2.69115e-05
-1.46818e-05
2.86733e-05
-1.30431e-05
2.99674e-05
-9.76867e-06
3.10628e-05
-7.30664e-06
3.1697e-05
-3.91342e-06
3.19319e-05
-2.84063e-07
3.17419e-05
3.72802e-06
3.11385e-05
8.17179e-06
2.99329e-05
1.34167e-05
2.82748e-05
1.87611e-05
2.5419e-05
2.78644e-05
2.17064e-05
3.58778e-05
1.39614e-05
5.66555e-05
7.5472e-05
-4.38877e-06
3.94738e-06
-8.22631e-06
3.39623e-06
-4.24682e-06
-4.42082e-06
-2.16409e-06
-2.52387e-06
-1.55696e-06
-1.04833e-06
-6.69371e-06
4.69587e-06
-1.39574e-05
6.82277e-06
-2.84603e-05
1.40623e-05
-4.90735e-05
2.01727e-05
-8.435e-05
3.48353e-05
-0.00014243
5.76379e-05
-0.000228416
8.55512e-05
-0.000345482
0.000116615
-0.0005129
0.000166945
-0.000635829
0.000122475
-0.000585781
-5.03768e-05
-0.000439916
-0.000145561
-0.0002215
-0.000214653
-0.000220384
-5.12132e-06
8.62725e-06
-9.49597e-06
7.32953e-06
-5.08855e-06
-9.26953e-06
-1.71141e-06
-6.34216e-06
-8.85187e-07
-2.31575e-06
-6.22382e-06
9.59364e-06
-1.35569e-05
1.37149e-05
-2.82756e-05
2.83405e-05
-4.88656e-05
4.03222e-05
-8.31074e-05
6.86359e-05
-0.000133315
0.000107403
-0.000198656
0.000150459
-0.000251038
0.000168554
-0.000290223
0.000205686
-0.000311941
0.000143749
-0.000269612
-9.31941e-05
-0.000185889
-0.000229687
-8.29556e-05
-0.000316963
-0.000303596
-7.09817e-06
1.52841e-05
-1.11643e-05
1.09544e-05
-5.55514e-06
-1.532e-05
-9.17469e-07
-1.14209e-05
5.88583e-07
-4.263e-06
-4.06497e-06
1.38064e-05
-1.05966e-05
1.98057e-05
-2.37102e-05
4.10136e-05
-4.14781e-05
5.76498e-05
-7.11873e-05
9.79042e-05
-0.000111988
0.000147763
-0.000158912
0.000196952
-0.000183131
0.000192334
-0.000176334
0.000198463
-0.000154826
0.000121821
-0.000152183
-9.6293e-05
-0.000131351
-0.000251001
-5.9012e-05
-0.000389206
-0.000363981
-8.32725e-06
2.31699e-05
-1.29119e-05
1.50978e-05
-5.78323e-06
-2.28899e-05
9.95087e-07
-1.86404e-05
2.74808e-06
-6.45717e-06
-2.16061e-06
1.82742e-05
-8.47514e-06
2.56794e-05
-2.05609e-05
5.2659e-05
-3.5378e-05
7.20265e-05
-5.81882e-05
0.000120274
-8.54737e-05
0.000174607
-0.000117771
0.000228815
-0.000135562
0.00020969
-0.000121957
0.000184427
-8.69193e-05
8.63571e-05
-7.43911e-05
-0.000109278
-7.34164e-05
-0.000252459
-4.04519e-05
-0.000422384
-0.000406057
-1.0659e-05
3.33878e-05
-1.68461e-05
2.08438e-05
-8.1189e-06
-3.20583e-05
2.42511e-06
-2.96254e-05
5.67412e-06
-1.01474e-05
1.49457e-06
2.2013e-05
-4.1668e-06
3.09e-05
-1.45986e-05
6.26506e-05
-2.57183e-05
8.27062e-05
-4.15403e-05
0.000135656
-5.71808e-05
0.000189807
-7.88834e-05
0.000250082
-9.64302e-05
0.000226801
-9.00495e-05
0.000177604
-6.57463e-05
6.16154e-05
-3.82844e-05
-0.000137195
-3.03893e-05
-0.000260802
-2.27382e-05
-0.000430432
-0.000430359
-1.37747e-05
4.6721e-05
-2.07198e-05
2.73476e-05
-7.81208e-06
-4.54069e-05
6.76089e-06
-4.46396e-05
1.03342e-05
-1.41618e-05
5.12416e-06
2.67824e-05
-7.67623e-07
3.63511e-05
-9.6825e-06
7.11253e-05
-1.82596e-05
9.08432e-05
-2.78001e-05
0.000144757
-3.36199e-05
0.000195188
-4.19044e-05
0.000257931
-5.3901e-05
0.000238362
-4.93553e-05
0.000172622
-3.3521e-05
4.53449e-05
-1.56349e-05
-0.000155529
-6.12358e-06
-0.000270766
-9.00612e-06
-0.000427957
-0.000440313
-1.72288e-05
6.35085e-05
-1.81417e-05
2.78152e-05
-3.13092e-06
-6.08738e-05
9.37348e-06
-5.75911e-05
1.47349e-05
-1.99646e-05
9.67096e-06
3.14057e-05
3.89001e-06
4.16915e-05
-3.63093e-06
7.82061e-05
-9.81686e-06
9.65893e-05
-1.37415e-05
0.000148243
-1.20118e-05
0.000193019
-8.60796e-06
0.000254091
-1.2884e-05
0.000242202
-9.14312e-06
0.000168443
1.21943e-06
3.45444e-05
5.89202e-06
-0.000160642
5.80986e-06
-0.000271142
3.03126e-06
-0.00042563
-0.000437616
6.88059e-06
5.59665e-05
2.18934e-05
1.23337e-05
2.05766e-05
-6.00906e-05
1.98768e-05
-5.73856e-05
2.22617e-05
-2.27953e-05
1.48727e-05
3.83539e-05
7.81119e-06
4.83125e-05
1.68127e-06
8.38961e-05
-2.92895e-06
0.00010076
-3.53994e-06
0.000148414
2.47933e-06
0.000186562
1.59141e-05
0.000240221
2.48245e-05
0.000232857
3.66323e-05
0.000156204
4.33198e-05
2.74213e-05
2.90812e-05
-0.000146841
1.88656e-05
-0.00026138
1.19989e-05
-0.00041922
-0.000426042
6.60789e-06
-2.99434e-05
1.29804e-05
-3.02914e-05
1.94895e-05
-2.93481e-05
2.59728e-05
-2.87305e-05
3.21334e-05
-2.81286e-05
3.79748e-05
-2.7305e-05
4.3822e-05
-2.53335e-05
4.92558e-05
-2.44876e-05
5.41504e-05
-2.15321e-05
5.92441e-05
-1.97755e-05
6.30735e-05
-1.68725e-05
6.64217e-05
-1.31169e-05
6.90193e-05
-9.90427e-06
7.06267e-05
-5.52083e-06
7.12197e-05
-8.77015e-07
7.12414e-05
3.70626e-06
7.04408e-05
8.97244e-06
7.036e-05
1.34975e-05
7.01661e-05
1.8955e-05
7.21648e-05
2.58656e-05
7.45648e-05
3.34778e-05
8.32072e-05
4.80131e-05
6.73981e-05
9.12805e-05
6.85945e-06
-3.68164e-05
1.32791e-05
-3.67249e-05
1.99658e-05
-3.60479e-05
2.67084e-05
-3.54857e-05
3.30922e-05
-3.45244e-05
3.91797e-05
-3.34034e-05
4.5327e-05
-3.14901e-05
5.09646e-05
-3.01331e-05
5.62827e-05
-2.68561e-05
6.12812e-05
-2.47781e-05
6.5197e-05
-2.07906e-05
6.92408e-05
-1.71616e-05
7.2105e-05
-1.27689e-05
7.42088e-05
-7.62478e-06
7.54197e-05
-2.08801e-06
7.58291e-05
3.29693e-06
7.50811e-05
9.72043e-06
7.40135e-05
1.4565e-05
7.27471e-05
2.02214e-05
7.40336e-05
2.45791e-05
7.67089e-05
3.08025e-05
8.73577e-05
3.73643e-05
5.07809e-05
0.000103975
7.1674e-06
-4.40617e-05
1.35861e-05
-4.32194e-05
2.04721e-05
-4.30113e-05
2.74762e-05
-4.25664e-05
3.40544e-05
-4.11785e-05
4.03819e-05
-3.98066e-05
4.6798e-05
-3.79841e-05
5.2718e-05
-3.61287e-05
5.84193e-05
-3.26364e-05
6.37071e-05
-3.01444e-05
6.86128e-05
-2.57766e-05
7.32911e-05
-2.19184e-05
7.63591e-05
-1.59116e-05
7.94143e-05
-1.07361e-05
8.11124e-05
-3.82264e-06
8.17649e-05
2.62436e-06
8.0736e-05
1.07473e-05
7.97057e-05
1.6366e-05
8.02982e-05
1.96289e-05
8.31723e-05
2.17051e-05
8.72057e-05
2.6769e-05
9.51663e-05
2.94037e-05
3.83501e-05
0.000107597
4.79516e-06
-4.88628e-05
9.27461e-06
-4.77048e-05
1.39586e-05
-4.77013e-05
1.87277e-05
-4.73414e-05
2.3228e-05
-4.56848e-05
2.76238e-05
-4.42084e-05
3.18516e-05
-4.22179e-05
3.53563e-05
-3.96395e-05
3.88939e-05
-3.61802e-05
4.12631e-05
-3.25196e-05
4.34904e-05
-2.80102e-05
4.28179e-05
-2.12522e-05
4.73805e-05
-2.0481e-05
6.2044e-05
-2.54098e-05
7.30711e-05
-1.48623e-05
7.89071e-05
-3.21309e-06
8.01603e-05
9.47326e-06
7.98323e-05
1.66287e-05
8.2544e-05
1.68464e-05
8.59391e-05
1.83072e-05
8.86485e-05
2.46502e-05
9.3897e-05
2.41553e-05
2.89419e-05
0.000103306
1.55512e-06
-5.04229e-05
3.5577e-06
-4.97123e-05
5.15732e-06
-4.93058e-05
6.79524e-06
-4.89843e-05
8.54167e-06
-4.74362e-05
1.03249e-05
-4.59966e-05
1.18719e-05
-4.377e-05
1.36619e-05
-4.14345e-05
1.56045e-05
-3.81279e-05
1.85513e-05
-3.54715e-05
2.24557e-05
-3.19198e-05
2.88237e-05
-2.76252e-05
3.54024e-05
-2.70648e-05
4.41327e-05
-3.41455e-05
4.88162e-05
-1.9551e-05
5.76448e-05
-1.20469e-05
6.71495e-05
-1.29522e-08
6.82908e-05
1.55316e-05
7.49682e-05
1.02277e-05
8.12036e-05
1.20854e-05
8.75076e-05
1.82838e-05
9.52534e-05
1.63327e-05
2.18376e-05
0.000102355
7.67433e-07
-5.11952e-05
1.94471e-06
-5.08945e-05
2.72434e-06
-5.00904e-05
3.40026e-06
-4.96651e-05
4.18005e-06
-4.82209e-05
4.84336e-06
-4.66649e-05
5.56004e-06
-4.44916e-05
6.67004e-06
-4.25494e-05
8.41198e-06
-3.98748e-05
1.15131e-05
-3.85776e-05
1.69714e-05
-3.73832e-05
2.63662e-05
-3.70251e-05
3.2981e-05
-3.36848e-05
3.32406e-05
-3.44106e-05
3.67551e-05
-2.30707e-05
4.50755e-05
-2.03729e-05
5.7091e-05
-1.20339e-05
6.82338e-05
4.3848e-06
7.21921e-05
6.27277e-06
7.06637e-05
1.36334e-05
7.26422e-05
1.63635e-05
8.24166e-05
6.61701e-06
1.1812e-05
9.24078e-05
1.19388e-06
-5.23938e-05
2.43692e-06
-5.21422e-05
3.62107e-06
-5.12792e-05
4.73881e-06
-5.07876e-05
5.88242e-06
-4.93693e-05
7.26377e-06
-4.8051e-05
8.71371e-06
-4.59463e-05
1.07014e-05
-4.4542e-05
1.29875e-05
-4.21658e-05
1.56043e-05
-4.11993e-05
1.86641e-05
-4.0448e-05
2.19214e-05
-4.02874e-05
2.62097e-05
-3.79783e-05
3.04064e-05
-3.86127e-05
3.91845e-05
-3.18542e-05
4.68522e-05
-2.80461e-05
5.68202e-05
-2.20075e-05
7.32493e-05
-1.20504e-05
8.51149e-05
-5.59907e-06
9.09654e-05
7.77663e-06
8.64974e-05
2.08271e-05
8.07512e-05
1.23657e-05
1.05893e-05
8.19985e-05
1.23379e-06
-5.36323e-05
2.39192e-06
-5.33051e-05
3.7227e-06
-5.26147e-05
5.00946e-06
-5.20791e-05
6.50992e-06
-5.08745e-05
8.26262e-06
-4.98084e-05
1.01895e-05
-4.7878e-05
1.25174e-05
-4.68746e-05
1.50177e-05
-4.4671e-05
1.75691e-05
-4.37555e-05
2.00601e-05
-4.2944e-05
2.26774e-05
-4.29097e-05
2.47274e-05
-4.00335e-05
2.57361e-05
-3.96266e-05
2.833e-05
-3.44534e-05
3.28461e-05
-3.25677e-05
3.9408e-05
-2.85751e-05
4.98805e-05
-2.25288e-05
6.49422e-05
-2.06668e-05
8.5156e-05
-1.24437e-05
0.000103173
2.80286e-06
0.000110227
5.30432e-06
1.25704e-05
0.00010824
1.57883e-06
-5.52158e-05
3.16636e-06
-5.48973e-05
4.95186e-06
-5.44049e-05
6.78163e-06
-5.39135e-05
8.68976e-06
-5.27873e-05
1.0841e-05
-5.19643e-05
1.30764e-05
-5.01182e-05
1.53829e-05
-4.91859e-05
1.77587e-05
-4.70517e-05
1.97211e-05
-4.57228e-05
2.12917e-05
-4.45196e-05
2.24378e-05
-4.40609e-05
2.43085e-05
-4.19094e-05
2.59577e-05
-4.1281e-05
2.92635e-05
-3.77646e-05
3.24605e-05
-3.57703e-05
3.59781e-05
-3.20984e-05
4.1692e-05
-2.82487e-05
4.68636e-05
-2.58446e-05
5.70736e-05
-2.26602e-05
7.75824e-05
-1.77126e-05
9.92057e-05
-1.63262e-05
-3.84739e-06
0.000115616
1.80295e-06
-5.70234e-05
3.68226e-06
-5.67813e-05
5.58848e-06
-5.63158e-05
7.54952e-06
-5.58792e-05
9.51849e-06
-5.4761e-05
1.16722e-05
-5.41228e-05
1.39565e-05
-5.24072e-05
1.63708e-05
-5.16049e-05
1.89458e-05
-4.96315e-05
2.14111e-05
-4.8193e-05
2.33366e-05
-4.645e-05
2.49922e-05
-4.57215e-05
2.65046e-05
-4.34269e-05
2.79254e-05
-4.27071e-05
2.99732e-05
-3.98178e-05
3.22586e-05
-3.80613e-05
3.51908e-05
-3.50362e-05
3.88214e-05
-3.18853e-05
4.28675e-05
-2.98969e-05
4.76511e-05
-2.74502e-05
5.31129e-05
-2.31812e-05
6.1097e-05
-2.43174e-05
-1.88226e-05
7.60648e-05
2.13393e-06
-5.9162e-05
4.32196e-06
-5.89739e-05
6.52699e-06
-5.85254e-05
8.77298e-06
-5.81299e-05
1.10509e-05
-5.70435e-05
1.34343e-05
-5.65109e-05
1.59394e-05
-5.49171e-05
1.84306e-05
-5.41008e-05
2.11757e-05
-5.23814e-05
2.38915e-05
-5.09137e-05
2.65286e-05
-4.90921e-05
2.8809e-05
-4.80069e-05
3.12724e-05
-4.58954e-05
3.34868e-05
-4.49268e-05
3.59907e-05
-4.23272e-05
3.85403e-05
-4.06165e-05
4.10306e-05
-3.75323e-05
4.37794e-05
-3.46401e-05
4.55862e-05
-3.17099e-05
4.75636e-05
-2.94341e-05
5.0355e-05
-2.59793e-05
5.17374e-05
-2.5707e-05
-2.03829e-05
5.32904e-05
2.22147e-06
-6.1388e-05
4.46094e-06
-6.1218e-05
6.71757e-06
-6.07867e-05
9.0276e-06
-6.04445e-05
1.14001e-05
-5.94206e-05
1.38626e-05
-5.89781e-05
1.6462e-05
-5.75212e-05
1.91172e-05
-5.67607e-05
2.1956e-05
-5.5225e-05
2.50163e-05
-5.39789e-05
2.80831e-05
-5.21637e-05
3.10664e-05
-5.09952e-05
3.39635e-05
-4.87977e-05
3.65322e-05
-4.75007e-05
3.91792e-05
-4.49796e-05
4.16235e-05
-4.30663e-05
4.42615e-05
-4.01761e-05
4.69233e-05
-3.73078e-05
4.97385e-05
-3.45313e-05
5.20413e-05
-3.17434e-05
5.3745e-05
-2.76898e-05
5.42031e-05
-2.6172e-05
-2.09785e-05
5.47915e-05
2.55147e-06
-6.3944e-05
5.11742e-06
-6.37885e-05
7.68614e-06
-6.33599e-05
1.03023e-05
-6.30653e-05
1.29616e-05
-6.20844e-05
1.56497e-05
-6.16709e-05
1.84259e-05
-6.0302e-05
2.11551e-05
-5.94945e-05
2.40273e-05
-5.8102e-05
2.69222e-05
-5.68786e-05
2.99849e-05
-5.52313e-05
3.29183e-05
-5.39336e-05
3.59728e-05
-5.18573e-05
3.88364e-05
-5.03695e-05
4.17662e-05
-4.79148e-05
4.46461e-05
-4.59517e-05
4.74665e-05
-4.30022e-05
5.04347e-05
-4.02819e-05
5.3239e-05
-3.73418e-05
5.55712e-05
-3.4082e-05
5.81168e-05
-3.02421e-05
5.9561e-05
-2.76231e-05
-2.1765e-05
6.03402e-05
2.64008e-06
-6.65886e-05
5.30523e-06
-6.64581e-05
8.00827e-06
-6.60675e-05
1.07476e-05
-6.58091e-05
1.35368e-05
-6.48782e-05
1.63486e-05
-6.44872e-05
1.92542e-05
-6.32122e-05
2.21463e-05
-6.23913e-05
2.50908e-05
-6.10512e-05
2.80591e-05
-5.98516e-05
3.10369e-05
-5.8214e-05
3.40052e-05
-5.69068e-05
3.70165e-05
-5.48737e-05
3.99107e-05
-5.32688e-05
4.28648e-05
-5.08742e-05
4.56826e-05
-4.8775e-05
4.86538e-05
-4.59791e-05
5.16056e-05
-4.32396e-05
5.45893e-05
-4.03315e-05
5.73146e-05
-3.68136e-05
6.03367e-05
-3.32709e-05
6.25994e-05
-2.98926e-05
-2.42472e-05
6.50744e-05
2.88591e-06
-6.9479e-05
5.79373e-06
-6.93704e-05
8.72247e-06
-6.90007e-05
1.16726e-05
-6.87637e-05
1.4659e-05
-6.78691e-05
1.7626e-05
-6.74587e-05
2.06826e-05
-6.62733e-05
2.37192e-05
-6.54325e-05
2.68495e-05
-6.41862e-05
2.99815e-05
-6.29883e-05
3.3217e-05
-6.14543e-05
3.63626e-05
-6.00572e-05
3.96064e-05
-5.81225e-05
4.2793e-05
-5.64605e-05
4.60539e-05
-5.41404e-05
4.93158e-05
-5.20424e-05
5.26257e-05
-4.92946e-05
5.59649e-05
-4.65847e-05
5.92438e-05
-4.36164e-05
6.23504e-05
-3.99265e-05
6.55845e-05
-3.65115e-05
6.79779e-05
-3.22928e-05
-2.67499e-05
7.04736e-05
3.0165e-06
-7.24999e-05
6.05007e-06
-7.24084e-05
9.06581e-06
-7.20209e-05
1.21015e-05
-7.18038e-05
1.51638e-05
-7.09359e-05
1.82181e-05
-7.05175e-05
2.13378e-05
-6.93975e-05
2.44518e-05
-6.85511e-05
2.76131e-05
-6.7352e-05
3.07934e-05
-6.61733e-05
3.40303e-05
-6.46959e-05
3.72734e-05
-6.33052e-05
4.05889e-05
-6.14429e-05
4.38874e-05
-5.97641e-05
4.72958e-05
-5.7554e-05
5.06978e-05
-5.54497e-05
5.42482e-05
-5.28506e-05
5.78107e-05
-5.01528e-05
6.14234e-05
-4.7235e-05
6.50448e-05
-4.35541e-05
6.88311e-05
-4.03042e-05
7.20777e-05
-3.5546e-05
-3.05442e-05
7.58651e-05
3.2264e-06
-7.57306e-05
6.4609e-06
-7.56472e-05
9.69192e-06
-7.52562e-05
1.29274e-05
-7.50436e-05
1.62047e-05
-7.42176e-05
1.94662e-05
-7.37834e-05
2.28109e-05
-7.27466e-05
2.6159e-05
-7.19037e-05
2.95666e-05
-7.07641e-05
3.29563e-05
-6.95676e-05
3.64302e-05
-6.81745e-05
3.99003e-05
-6.67801e-05
4.34762e-05
-6.50237e-05
4.70681e-05
-6.3361e-05
5.07631e-05
-6.12541e-05
5.4514e-05
-5.92058e-05
5.83647e-05
-5.67068e-05
6.22892e-05
-5.4083e-05
6.62464e-05
-5.1198e-05
7.02895e-05
-4.76032e-05
7.43484e-05
-4.43695e-05
7.80931e-05
-3.92972e-05
-3.4747e-05
8.22891e-05
3.31104e-06
-7.90459e-05
6.62781e-06
-7.89682e-05
9.93552e-06
-7.85682e-05
1.32379e-05
-7.83503e-05
1.65656e-05
-7.75496e-05
1.987e-05
-7.70921e-05
2.32233e-05
-7.61043e-05
2.6585e-05
-7.52698e-05
3.00073e-05
-7.41908e-05
3.34619e-05
-7.30267e-05
3.69952e-05
-7.17123e-05
4.056e-05
-7.03495e-05
4.4227e-05
-6.86955e-05
4.79418e-05
-6.70806e-05
5.17933e-05
-6.51107e-05
5.57366e-05
-6.31543e-05
5.98515e-05
-6.0827e-05
6.41149e-05
-5.83519e-05
6.85305e-05
-5.56193e-05
7.31892e-05
-5.22678e-05
7.79496e-05
-4.9136e-05
8.27688e-05
-4.41227e-05
-4.00838e-05
8.80991e-05
3.57986e-06
-8.26299e-05
7.16553e-06
-8.2558e-05
1.07237e-05
-8.21306e-05
1.42671e-05
-8.18979e-05
1.78299e-05
-8.11166e-05
2.13658e-05
-8.06323e-05
2.49438e-05
-7.96865e-05
2.85047e-05
-7.8835e-05
3.21161e-05
-7.78065e-05
3.57452e-05
-7.66603e-05
3.94599e-05
-7.54315e-05
4.32032e-05
-7.40974e-05
4.70631e-05
-7.25601e-05
5.0994e-05
-7.10163e-05
5.50635e-05
-6.91851e-05
5.92589e-05
-6.73547e-05
6.36175e-05
-6.51908e-05
6.81725e-05
-6.29124e-05
7.29008e-05
-6.03531e-05
7.79368e-05
-5.73097e-05
8.30996e-05
-5.43047e-05
8.85869e-05
-4.96162e-05
-4.61015e-05
9.45982e-05
3.61746e-06
-8.62514e-05
7.23901e-06
-8.61837e-05
1.08398e-05
-8.57354e-05
1.4421e-05
-8.54832e-05
1.80249e-05
-8.47246e-05
2.16052e-05
-8.42167e-05
2.52269e-05
-8.33124e-05
2.88521e-05
-8.24644e-05
3.25311e-05
-8.14897e-05
3.62372e-05
-8.03707e-05
4.00243e-05
-7.92231e-05
4.38511e-05
-7.79286e-05
4.77997e-05
-7.65134e-05
5.18428e-05
-7.5064e-05
5.60476e-05
-7.33948e-05
6.04183e-05
-7.17304e-05
6.50144e-05
-6.9792e-05
6.9885e-05
-6.77882e-05
7.50486e-05
-6.55221e-05
8.06288e-05
-6.28956e-05
8.65299e-05
-6.02115e-05
9.30026e-05
-5.60947e-05
-5.32474e-05
0.000100142
3.84882e-06
-9.01042e-05
7.70062e-06
-9.00394e-05
1.15405e-05
-8.95793e-05
1.5358e-05
-8.93047e-05
1.92036e-05
-8.85743e-05
2.30116e-05
-8.80287e-05
2.68447e-05
-8.71496e-05
3.06622e-05
-8.62861e-05
3.45353e-05
-8.5367e-05
3.84151e-05
-8.42547e-05
4.23776e-05
-8.31899e-05
4.63624e-05
-8.19178e-05
5.04538e-05
-8.06092e-05
5.46294e-05
-7.92442e-05
5.89218e-05
-7.76919e-05
6.33844e-05
-7.61978e-05
6.80423e-05
-7.44548e-05
7.30021e-05
-7.2753e-05
7.83025e-05
-7.08277e-05
8.41169e-05
-6.87154e-05
9.04274e-05
-6.65276e-05
9.75174e-05
-6.31905e-05
-6.11857e-05
0.00010545
3.83837e-06
-9.39464e-05
7.68535e-06
-9.38903e-05
1.15319e-05
-9.34297e-05
1.53699e-05
-9.31466e-05
1.92577e-05
-9.2466e-05
2.31317e-05
-9.19066e-05
2.70567e-05
-9.10786e-05
3.09778e-05
-9.02111e-05
3.49637e-05
-8.9357e-05
3.89545e-05
-8.82496e-05
4.3032e-05
-8.72716e-05
4.7135e-05
-8.6025e-05
5.13419e-05
-8.48205e-05
5.56456e-05
-8.35523e-05
6.00509e-05
-8.21018e-05
6.46439e-05
-8.07955e-05
6.94371e-05
-7.92528e-05
7.45539e-05
-7.78747e-05
8.00775e-05
-7.63564e-05
8.6175e-05
-7.48182e-05
9.29305e-05
-7.32885e-05
0.000100644
-7.09096e-05
-6.99503e-05
0.000109403
3.946e-06
-9.78962e-05
7.89235e-06
-9.78404e-05
1.18616e-05
-9.74027e-05
1.58277e-05
-9.71165e-05
1.9854e-05
-9.64962e-05
2.38832e-05
-9.59396e-05
2.79811e-05
-9.51803e-05
3.20836e-05
-9.43176e-05
3.62548e-05
-9.35322e-05
4.04209e-05
-9.24197e-05
4.46706e-05
-9.15255e-05
4.89237e-05
-9.02822e-05
5.32591e-05
-8.91601e-05
5.76707e-05
-8.79682e-05
6.21398e-05
-8.65753e-05
6.67803e-05
-8.54405e-05
7.15955e-05
-8.40727e-05
7.67179e-05
-8.30019e-05
8.22528e-05
-8.18961e-05
8.83529e-05
-8.09233e-05
9.5206e-05
-8.01467e-05
0.000103118
-7.88273e-05
-7.90623e-05
0.000112225
3.81366e-06
-0.000101713
7.61488e-06
-0.000101645
1.14909e-05
-0.000101282
1.53884e-05
-0.000101018
1.93841e-05
-0.000100495
2.3432e-05
-9.99912e-05
2.75871e-05
-9.93392e-05
3.17799e-05
-9.85141e-05
3.60689e-05
-9.78249e-05
4.03927e-05
-9.67474e-05
4.48271e-05
-9.59638e-05
4.9295e-05
-9.47541e-05
5.38669e-05
-9.37362e-05
5.852e-05
-9.26254e-05
6.32325e-05
-9.1292e-05
6.80734e-05
-9.02857e-05
7.30727e-05
-8.90765e-05
7.83111e-05
-8.82449e-05
8.39116e-05
-8.75012e-05
8.99993e-05
-8.70158e-05
9.68426e-05
-8.6995e-05
0.000104752
-8.6742e-05
-8.8214e-05
0.000113899
3.69954e-06
-0.000105417
7.37077e-06
-0.00010532
1.11503e-05
-0.000105065
1.49502e-05
-0.000104821
1.88693e-05
-0.000104418
2.28768e-05
-0.000104002
2.70421e-05
-0.000103508
3.12949e-05
-0.000102771
3.56577e-05
-0.000102191
4.00778e-05
-0.000101171
4.46354e-05
-0.000100525
4.92444e-05
-9.93669e-05
5.39898e-05
-9.84855e-05
5.88021e-05
-9.74417e-05
6.37137e-05
-9.62077e-05
6.87025e-05
-9.52787e-05
7.38374e-05
-9.42157e-05
7.91178e-05
-9.35296e-05
8.46764e-05
-9.30643e-05
9.0621e-05
-9.2965e-05
9.72401e-05
-9.36188e-05
0.000104876
-9.4383e-05
-9.71712e-05
0.000113828
3.41909e-06
-0.000108839
6.81701e-06
-0.000108721
1.0327e-05
-0.000108579
1.38693e-05
-0.000108367
1.75502e-05
-0.000108103
2.13482e-05
-0.000107804
2.53401e-05
-0.000107504
2.95109e-05
-0.000106945
3.38781e-05
-0.000106562
3.83713e-05
-0.000105668
4.30466e-05
-0.000105204
4.78136e-05
-0.000104138
5.27739e-05
-0.00010345
5.77864e-05
-0.000102458
6.29666e-05
-0.000101392
6.81568e-05
-0.000100473
7.34796e-05
-9.95425e-05
7.87982e-05
-9.88524e-05
8.43456e-05
-9.8616e-05
9.01212e-05
-9.8745e-05
9.65061e-05
-0.000100008
0.000103823
-0.000101704
-0.00010588
0.000112527
3.12589e-06
-0.000111968
6.25374e-06
-0.000111852
9.46464e-06
-0.000111793
1.27267e-05
-0.000111632
1.61263e-05
-0.000111505
1.96454e-05
-0.000111326
2.33499e-05
-0.000111212
2.72636e-05
-0.000110862
3.14473e-05
-0.000110749
3.5879e-05
-0.000110103
4.05893e-05
-0.000109918
4.54627e-05
-0.000109015
5.05907e-05
-0.000108581
5.57722e-05
-0.000107643
6.11747e-05
-0.000106798
6.65519e-05
-0.000105854
7.20456e-05
-0.00010504
7.73933e-05
-0.000104204
8.29372e-05
-0.000104164
8.84748e-05
-0.000104287
9.45157e-05
-0.000106053
0.000101238
-0.000108431
-0.00011388
0.000109233
2.73696e-06
-0.000114708
5.49301e-06
-0.000114612
8.30725e-06
-0.00011461
1.11894e-05
-0.000114517
1.42024e-05
-0.000114522
1.73406e-05
-0.000114468
2.06667e-05
-0.000114541
2.4203e-05
-0.000114401
2.80124e-05
-0.000114562
3.21299e-05
-0.000114224
3.66165e-05
-0.000114408
4.13945e-05
-0.000113796
4.65343e-05
-0.000113725
5.17796e-05
-0.000112892
5.73105e-05
-0.000112333
6.28318e-05
-0.000111379
6.8468e-05
-0.00011068
7.38698e-05
-0.00010961
7.93767e-05
-0.000109675
8.46014e-05
-0.000109515
9.01455e-05
-0.000111601
9.60806e-05
-0.00011437
-0.000120897
0.000103094
2.3954e-06
-0.000117107
4.81335e-06
-0.000117033
7.27568e-06
-0.000117076
9.80795e-06
-0.000117053
1.24585e-05
-0.000117175
1.52294e-05
-0.000117242
1.81846e-05
-0.000117499
2.13504e-05
-0.00011757
2.47817e-05
-0.000117997
2.85118e-05
-0.000117957
3.25949e-05
-0.000118494
3.70269e-05
-0.000118231
4.18991e-05
-0.0001186
4.70209e-05
-0.000118017
5.25627e-05
-0.000117878
5.81633e-05
-0.000116983
6.38884e-05
-0.000116409
6.93687e-05
-0.000115094
7.47897e-05
-0.000115099
7.96718e-05
-0.000114401
8.44507e-05
-0.000116384
8.92104e-05
-0.000119133
-0.000126148
9.44579e-05
1.99783e-06
-0.000119107
4.01494e-06
-0.000119053
6.06929e-06
-0.000119133
8.18324e-06
-0.00011917
1.04038e-05
-0.000119399
1.27322e-05
-0.000119573
1.52382e-05
-0.000120008
1.79379e-05
-0.000120273
2.08885e-05
-0.00012095
2.41236e-05
-0.000121195
2.76792e-05
-0.000122053
3.1571e-05
-0.000122126
3.58766e-05
-0.000122909
4.05041e-05
-0.000122648
4.55987e-05
-0.000122976
5.08736e-05
-0.000122261
5.64029e-05
-0.000121941
6.19024e-05
-0.000120596
6.71546e-05
-0.000120355
7.17335e-05
-0.000118984
7.57619e-05
-0.000120416
7.92336e-05
-0.000122608
-0.000129408
8.24895e-05
1.67305e-06
-0.000120783
3.35935e-06
-0.000120741
5.07653e-06
-0.000120853
6.83964e-06
-0.000120935
8.69978e-06
-0.000121261
1.06508e-05
-0.000121527
1.27696e-05
-0.00012213
1.50563e-05
-0.000122562
1.75763e-05
-0.000123473
2.03509e-05
-0.000123973
2.34182e-05
-0.000125123
2.68106e-05
-0.000125522
3.05619e-05
-0.000126663
3.46116e-05
-0.000126701
3.90741e-05
-0.000127441
4.37382e-05
-0.000126929
4.87411e-05
-0.000126948
5.38454e-05
-0.000125704
5.86321e-05
-0.000125145
6.28252e-05
-0.00012318
6.61538e-05
-0.000123748
6.82079e-05
-0.000124666
-0.000130651
6.9448e-05
1.33839e-06
-0.000122124
2.68125e-06
-0.000122087
4.04644e-06
-0.00012222
5.44162e-06
-0.000122333
6.91982e-06
-0.000122742
8.46495e-06
-0.000123074
1.0157e-05
-0.000123824
1.19772e-05
-0.000124385
1.39996e-05
-0.000125498
1.62284e-05
-0.000126205
1.87093e-05
-0.000127607
2.1463e-05
-0.000128278
2.45179e-05
-0.000129721
2.78583e-05
-0.000130044
3.15619e-05
-0.000131148
3.54654e-05
-0.000130835
3.96546e-05
-0.00013114
4.38549e-05
-0.000129907
4.78371e-05
-0.00012913
5.14664e-05
-0.000126812
5.39545e-05
-0.000126239
5.47541e-05
-0.000125468
-0.000130133
5.42327e-05
1.08563e-06
-0.000123212
2.16805e-06
-0.000123172
3.26652e-06
-0.000123321
4.38232e-06
-0.000123451
5.56918e-06
-0.000123931
6.80366e-06
-0.000124311
8.16325e-06
-0.000125186
9.61793e-06
-0.000125842
1.12498e-05
-0.000127132
1.30383e-05
-0.000127995
1.50421e-05
-0.000129613
1.72538e-05
-0.000130492
1.97069e-05
-0.000132177
2.23802e-05
-0.00013272
2.53174e-05
-0.000134088
2.83956e-05
-0.000133916
3.16547e-05
-0.000134401
3.48082e-05
-0.000133063
3.77829e-05
-0.000132108
4.02138e-05
-0.000129246
4.13825e-05
-0.00012741
4.07159e-05
-0.000124804
-0.000127344
3.79245e-05
8.32827e-07
-0.000124047
1.66121e-06
-0.000124002
2.50299e-06
-0.000124165
3.35241e-06
-0.000124303
4.25544e-06
-0.000124836
5.1874e-06
-0.000125245
6.21488e-06
-0.000126216
7.30455e-06
-0.000126934
8.52904e-06
-0.000128359
9.85042e-06
-0.000129319
1.13327e-05
-0.000131098
1.29434e-05
-0.000132105
1.47275e-05
-0.000133963
1.66455e-05
-0.00013464
1.87314e-05
-0.000136176
2.08824e-05
-0.000136069
2.31254e-05
-0.000136647
2.52176e-05
-0.000135158
2.70723e-05
-0.000133965
2.81468e-05
-0.000130323
2.79566e-05
-0.000127223
2.56123e-05
-0.000122463
-0.000121891
2.01567e-05
6.627e-07
-0.000124711
1.32085e-06
-0.000124662
1.98832e-06
-0.000124834
2.65489e-06
-0.000124971
3.35794e-06
-0.000125541
4.07746e-06
-0.000125967
4.86492e-06
-0.000127005
5.68673e-06
-0.000127758
6.6025e-06
-0.000129277
7.56856e-06
-0.000130287
8.65002e-06
-0.000132181
9.78932e-06
-0.000133247
1.10422e-05
-0.000135218
1.23379e-05
-0.000135938
1.37033e-05
-0.000137544
1.50241e-05
-0.000137392
1.63082e-05
-0.000137933
1.72833e-05
-0.000136135
1.78779e-05
-0.000134562
1.75117e-05
-0.000129959
1.57149e-05
-0.000125428
1.14287e-05
-0.000118179
-0.000114059
3.59524e-06
4.69339e-07
-0.000125182
9.38594e-07
-0.000125133
1.41617e-06
-0.000125314
1.89095e-06
-0.000125448
2.38617e-06
-0.000126038
2.88259e-06
-0.000126465
3.41439e-06
-0.000127539
3.95144e-06
-0.000128297
4.53712e-06
-0.000129864
5.13173e-06
-0.000130884
5.78406e-06
-0.000132835
6.43597e-06
-0.0001339
7.13422e-06
-0.000135918
7.79682e-06
-0.000136603
8.44935e-06
-0.000138198
8.97491e-06
-0.00013792
9.38911e-06
-0.00013835
9.43656e-06
-0.000136185
9.07359e-06
-0.000134201
7.81019e-06
-0.000128698
5.20939e-06
-0.000122829
2.43391e-07
-0.000113215
-0.000105501
-8.31668e-06
3.46309e-07
-0.00012553
6.90093e-07
-0.000125478
1.03363e-06
-0.000125659
1.3684e-06
-0.000125784
1.70922e-06
-0.000126381
2.03902e-06
-0.000126796
2.37947e-06
-0.000127881
2.70365e-06
-0.000128623
3.03968e-06
-0.000130202
3.3533e-06
-0.000131199
3.67639e-06
-0.00013316
3.956e-06
-0.000134182
4.21618e-06
-0.00013618
4.37791e-06
-0.000136766
4.45582e-06
-0.000138278
4.33108e-06
-0.000137797
3.98068e-06
-0.000138001
3.15453e-06
-0.000135361
1.72356e-06
-0.000132772
-7.71962e-07
-0.000126204
-4.90041e-06
-0.000118703
-1.17e-05
-0.000106417