/*--------------------------------*- C++ -*----------------------------------*\
| =========                 |                                                 |
| \\      /  F ield         | OpenFOAM: The Open Source CFD Toolbox           |
|  \\    /   O peration     | Version:  2012                                  |
|   \\  /    A nd           | Website:  www.openfoam.com                      |
|    \\/     M anipulation  |                                                 |
\*---------------------------------------------------------------------------*/
FoamFile
{
    version     2.0;
    format      ascii;
    class       volScalarField;
    location    "0.45";
    object      rho;
}
// * * * * * * * * * * * * * * * * * * * * * * * * * * * * * * * * * * * * * //

dimensions      [1 -3 0 0 0 0 0];


internalField   nonuniform List<scalar> 
2268
(
1000.05
1000.05
1000.05
1000.05
1000.05
1000.05
1000.05
1000.05
1000.05
1000.05
1000.05
1000.05
1000.05
1000.05
1000.05
1000.05
1000.05
1000.05
1000.05
1000.05
1000.05
1000.05
999.614
1000.05
1000.05
1000.05
1000.05
1000.05
1000.05
1000.05
1000.05
1000.05
1000.05
1000.05
1000.05
1000.05
1000.05
1000.05
1000.05
1000.05
1000.05
1000.05
1000.05
1000.05
1000.05
999.614
1000.05
1000.05
1000.05
1000.05
1000.05
1000.05
1000.05
1000.05
1000.05
1000.05
1000.05
1000.05
1000.05
1000.05
1000.05
1000.05
1000.05
1000.05
1000.05
1000.05
1000.05
1000.05
999.749
1000.05
1000.05
1000.05
1000.05
1000.05
1000.05
1000.05
1000.05
1000.05
1000.05
1000.05
1000.05
1000.05
1000.05
1000.05
1000.05
1000.05
1000.05
1000.05
1000.05
1000.05
1000.05
1000.04
1000.05
1000.05
1000.05
1000.05
1000.05
1000.05
1000.05
1000.05
1000.05
1000.05
1000.05
1000.05
1000.05
1000.05
1000.05
1000.05
1000.05
1000.05
1000.05
1000.05
1000.05
1000.05
1000.05
1000.05
1000.05
1000.05
1000.05
1000.05
1000.05
1000.05
1000.05
1000.05
1000.05
1000.05
1000.05
1000.05
1000.05
1000.05
1000.05
1000.05
1000.05
1000.05
1000.05
1000.05
1000.05
1000.05
1000.05
1000.05
1000.05
1000.05
1000.05
1000.05
1000.05
1000.05
1000.05
1000.05
1000.05
1000.05
1000.05
1000.05
1000.05
1000.05
1000.05
1000.05
1000.05
1000.05
1000.05
1000.05
999.96
1000.05
1000.05
1000.05
1000.05
1000.05
1000.05
1000.05
1000.05
1000.05
1000.05
1000.05
1000.05
1000.05
1000.05
1000.05
1000.05
1000.05
1000.05
1000.05
1000.05
1000.05
1000.05
999.47
1.30651
1.30651
1.30651
1.30651
1.30651
1.30651
1.30652
1.30651
1.30652
1.30653
1.30662
1.30681
1.30704
1.30737
1.30834
1.32984
4.70563
122.804
239.994
1.30651
1.30651
1.30651
1.30651
1.30651
1.30651
1.30652
1.30651
1.30652
1.30653
1.30662
1.3068
1.30697
1.30713
1.30755
1.31197
2.0352
121.103
607.36
1.30651
1.30651
1.30651
1.30651
1.30651
1.30651
1.30651
1.30651
1.30652
1.30652
1.30662
1.30676
1.30687
1.3069
1.30707
1.30805
1.51253
60.1119
607.351
1.30651
1.3065
1.30651
1.30651
1.30651
1.30651
1.30651
1.30651
1.30652
1.30652
1.30661
1.30672
1.30674
1.30662
1.30664
1.308
1.32833
28.5507
607.352
1.3065
1.3065
1.30651
1.30651
1.30651
1.3065
1.30651
1.3065
1.30651
1.30651
1.30658
1.30667
1.30666
1.30642
1.30648
1.30669
1.30723
11.5567
607.344
1.3065
1.3065
1.30648
1.3065
1.30651
1.3065
1.30651
1.3065
1.30651
1.3065
1.30656
1.30664
1.30665
1.30642
1.30628
1.30617
1.30619
3.9156
607.347
1.3065
1.30651
1.30643
1.30652
1.30651
1.3065
1.30651
1.3065
1.30651
1.3065
1.30653
1.3066
1.30665
1.30648
1.30634
1.30629
1.30619
1.30707
607.288
1.30654
1.30755
1.34788
1.34528
1.3125
1.30664
1.3065
1.30649
1.3065
1.30649
1.30651
1.30656
1.30664
1.30658
1.30652
1.30635
1.30621
1.30699
380.673
999.818
999.802
999.826
999.835
999.847
999.866
999.907
999.932
999.973
1000
1000.03
1000.05
1000.05
1000.05
1000.05
1000.05
1000.05
1000.05
1000.05
1000.05
1000.05
1000.05
999.282
893.592
891.418
895.084
896.624
899.13
903.234
911.926
918.685
931.461
944.76
960.942
976.086
987.285
993.49
997.691
1000.05
1000.05
1000.05
1000.05
1000.05
1000.05
1000.05
999.337
207.261
205.39
209.527
211.266
215.122
221.306
234.069
245.498
268.563
296.815
339.917
397.972
486.02
600.177
720.268
846.584
981.02
1000.05
1000.05
1000.05
1000.05
1000.05
999.987
1.29337
1.29337
1.29337
1.29337
1.29338
1.29338
1.29338
1.29339
1.2934
1.2934
1.2934
1.29339
1.29339
6.29965
40.4385
99.4984
209.977
419.178
726.643
986.334
1000.05
1000.05
1000.05
1.2933
1.2933
1.2933
1.2933
1.2933
1.2933
1.2933
1.2933
1.29331
1.29331
1.29332
1.29332
1.29334
1.29332
1.29334
1.29336
2.64164
11.5277
67.3914
192.405
430.597
759.746
988.035
1.29327
1.29327
1.29327
1.29327
1.29328
1.29328
1.29328
1.29328
1.29328
1.29328
1.29339
1.29407
1.29486
1.29464
1.29396
1.2933
1.29329
1.30573
1.57369
3.81292
12.2933
73.4772
233.325
1.29327
1.29327
1.29327
1.29327
1.29327
1.29327
1.29327
1.29327
1.29327
1.29327
1.29366
1.29573
1.29573
1.29573
1.29448
1.2933
1.29328
1.29328
1.2933
1.29372
1.30874
1.76843
6.51778
1.29326
1.29326
1.29326
1.29326
1.29326
1.29326
1.29327
1.29327
1.29327
1.29327
1.29367
1.2947
1.29474
1.29376
1.29329
1.29331
1.29331
1.29329
1.29328
1.29343
1.29375
1.29448
1.29797
1.29326
1.29326
1.29326
1.29326
1.29326
1.29326
1.29326
1.29326
1.29327
1.29327
1.29328
1.29327
1.29327
1.29327
1.29327
1.29331
1.29333
1.29331
1.29328
1.29349
1.29433
1.29844
1.29992
1.29326
1.29326
1.29326
1.29326
1.29326
1.29326
1.29326
1.29326
1.29326
1.29327
1.29327
1.29327
1.29327
1.29327
1.29327
1.29328
1.29331
1.29331
1.29329
1.29328
1.29328
1.29348
1.29437
1.29326
1.29326
1.29326
1.29326
1.29326
1.29326
1.29326
1.29326
1.29326
1.29326
1.29326
1.29326
1.29326
1.29327
1.29327
1.29327
1.29327
1.29327
1.29328
1.29328
1.29328
1.29328
1.29328
1.29325
1.29325
1.29325
1.29325
1.29325
1.29326
1.29326
1.29326
1.29326
1.29326
1.29326
1.29326
1.29326
1.29326
1.29327
1.29327
1.29327
1.29327
1.29327
1.29327
1.29328
1.29328
1.29328
1.29325
1.29325
1.29325
1.29325
1.29325
1.29325
1.29325
1.29325
1.29325
1.29326
1.29326
1.29326
1.29326
1.29326
1.29326
1.29326
1.29326
1.29327
1.29327
1.29327
1.29327
1.29328
1.29328
1.29325
1.29325
1.29325
1.29325
1.29325
1.29325
1.29325
1.29325
1.29325
1.29325
1.29325
1.29325
1.29326
1.29326
1.29326
1.29326
1.29326
1.29326
1.29326
1.29327
1.29327
1.29327
1.29327
1.29324
1.29324
1.29324
1.29324
1.29325
1.29325
1.29325
1.29325
1.29325
1.29325
1.29325
1.29325
1.29325
1.29325
1.29325
1.29326
1.29326
1.29326
1.29326
1.29326
1.29326
1.29327
1.29327
1.29324
1.29324
1.29324
1.29324
1.29324
1.29324
1.29324
1.29324
1.29324
1.29325
1.29325
1.29325
1.29325
1.29325
1.29325
1.29325
1.29325
1.29326
1.29326
1.29326
1.29326
1.29326
1.29326
1.29324
1.29324
1.29324
1.29324
1.29324
1.29324
1.29324
1.29324
1.29324
1.29324
1.29324
1.29324
1.29324
1.29325
1.29325
1.29325
1.29325
1.29325
1.29325
1.29325
1.29326
1.29326
1.29326
1.29323
1.29323
1.29323
1.29323
1.29323
1.29323
1.29324
1.29324
1.29324
1.29324
1.29324
1.29324
1.29324
1.29324
1.29324
1.29324
1.29325
1.29325
1.29325
1.29325
1.29325
1.29325
1.29326
1.29323
1.29323
1.29323
1.29323
1.29323
1.29323
1.29323
1.29323
1.29323
1.29323
1.29323
1.29323
1.29324
1.29324
1.29324
1.29324
1.29324
1.29324
1.29324
1.29325
1.29325
1.29325
1.29325
1.29322
1.29322
1.29322
1.29322
1.29322
1.29323
1.29323
1.29323
1.29323
1.29323
1.29323
1.29323
1.29323
1.29323
1.29323
1.29324
1.29324
1.29324
1.29324
1.29324
1.29324
1.29324
1.29325
1.29322
1.29322
1.29322
1.29322
1.29322
1.29322
1.29322
1.29322
1.29322
1.29322
1.29322
1.29323
1.29323
1.29323
1.29323
1.29323
1.29323
1.29323
1.29323
1.29324
1.29324
1.29324
1.29324
1.29321
1.29321
1.29321
1.29321
1.29321
1.29321
1.29321
1.29321
1.29322
1.29322
1.29322
1.29322
1.29322
1.29322
1.29322
1.29322
1.29323
1.29323
1.29323
1.29323
1.29323
1.29323
1.29323
1.2932
1.2932
1.2932
1.2932
1.2932
1.2932
1.2932
1.29321
1.29321
1.29321
1.29321
1.29321
1.29321
1.29321
1.29322
1.29322
1.29322
1.29322
1.29322
1.29322
1.29323
1.29323
1.29323
1.29319
1.29319
1.29319
1.29319
1.29319
1.29319
1.29319
1.29319
1.2932
1.2932
1.2932
1.2932
1.2932
1.29321
1.29321
1.29321
1.29321
1.29321
1.29322
1.29322
1.29322
1.29322
1.29322
1.29317
1.29317
1.29317
1.29317
1.29317
1.29318
1.29318
1.29318
1.29318
1.29318
1.29319
1.29319
1.29319
1.29319
1.2932
1.2932
1.2932
1.2932
1.29321
1.29321
1.29321
1.29321
1.29321
1.29315
1.29315
1.29315
1.29315
1.29316
1.29316
1.29316
1.29316
1.29316
1.29316
1.29317
1.29317
1.29317
1.29318
1.29318
1.29318
1.29319
1.29319
1.2932
1.2932
1.2932
1.29321
1.29321
1.29314
1.29314
1.29314
1.29314
1.29314
1.29314
1.29314
1.29314
1.29314
1.29315
1.29315
1.29315
1.29315
1.29316
1.29316
1.29317
1.29317
1.29318
1.29318
1.29319
1.29319
1.2932
1.2932
1.29312
1.29312
1.29312
1.29312
1.29312
1.29313
1.29313
1.29313
1.29313
1.29313
1.29313
1.29313
1.29314
1.29314
1.29314
1.29315
1.29315
1.29316
1.29316
1.29317
1.29318
1.29319
1.29319
1.29311
1.29311
1.29311
1.29311
1.29311
1.29311
1.29311
1.29311
1.29312
1.29312
1.29312
1.29312
1.29312
1.29312
1.29313
1.29313
1.29314
1.29314
1.29315
1.29316
1.29317
1.29318
1.29318
1.2931
1.2931
1.2931
1.2931
1.2931
1.2931
1.2931
1.2931
1.29311
1.29311
1.29311
1.29311
1.29311
1.29311
1.29312
1.29312
1.29312
1.29313
1.29313
1.29314
1.29315
1.29316
1.29318
1.2931
1.2931
1.2931
1.2931
1.2931
1.2931
1.2931
1.2931
1.2931
1.2931
1.2931
1.2931
1.2931
1.2931
1.29311
1.29311
1.29311
1.29312
1.29312
1.29313
1.29314
1.29315
1.29317
1.29309
1.29309
1.29309
1.29309
1.29309
1.29309
1.29309
1.29309
1.29309
1.29309
1.29309
1.29309
1.29309
1.2931
1.2931
1.2931
1.2931
1.29311
1.29311
1.29312
1.29313
1.29314
1.29316
1.29308
1.29308
1.29308
1.29308
1.29308
1.29308
1.29308
1.29309
1.29309
1.29309
1.29309
1.29309
1.29309
1.29309
1.29309
1.29309
1.2931
1.2931
1.2931
1.29311
1.29312
1.29313
1.29315
1.29308
1.29308
1.29308
1.29308
1.29308
1.29308
1.29308
1.29308
1.29308
1.29308
1.29308
1.29308
1.29308
1.29309
1.29309
1.29309
1.29309
1.2931
1.2931
1.2931
1.29311
1.29312
1.29314
1.29308
1.29308
1.29308
1.29308
1.29308
1.29308
1.29308
1.29308
1.29308
1.29308
1.29308
1.29308
1.29308
1.29308
1.29308
1.29309
1.29309
1.29309
1.29309
1.2931
1.29311
1.29312
1.29313
1.29308
1.29308
1.29308
1.29308
1.29308
1.29308
1.29308
1.29308
1.29308
1.29308
1.29308
1.29308
1.29308
1.29308
1.29308
1.29309
1.29309
1.29309
1.29309
1.2931
1.2931
1.29311
1.29313
1.29308
1.29308
1.29308
1.29308
1.29308
1.29308
1.29308
1.29308
1.29308
1.29308
1.29308
1.29308
1.29308
1.29309
1.29309
1.29309
1.29309
1.29309
1.2931
1.2931
1.2931
1.29311
1.29313
1.29308
1.29308
1.29308
1.29308
1.29308
1.29308
1.29308
1.29308
1.29308
1.29308
1.29308
1.29308
1.29309
1.29309
1.29309
1.29309
1.29309
1.29309
1.2931
1.2931
1.29311
1.29311
1.29312
1.29308
1.29308
1.29308
1.29308
1.29308
1.29308
1.29308
1.29308
1.29308
1.29308
1.29308
1.29308
1.29308
1.29308
1.29309
1.29309
1.29309
1.29309
1.2931
1.2931
1.29311
1.29312
1.29312
1.29308
1.29308
1.29308
1.29308
1.29308
1.29308
1.29308
1.29308
1.29308
1.29308
1.29308
1.29308
1.29308
1.29308
1.29308
1.29308
1.29309
1.29309
1.29309
1.2931
1.29311
1.29312
1.29313
1.29308
1.29308
1.29308
1.29308
1.29308
1.29308
1.29308
1.29308
1.29308
1.29308
1.29308
1.29308
1.29308
1.29308
1.29308
1.29308
1.29308
1.29309
1.29309
1.2931
1.29311
1.29312
1.29313
1.29307
1.29307
1.29307
1.29307
1.29307
1.29307
1.29307
1.29307
1.29307
1.29307
1.29307
1.29307
1.29307
1.29307
1.29308
1.29308
1.29308
1.29308
1.29309
1.2931
1.29311
1.29312
1.29314
999.281
999.814
999.981
843.864
999.281
999.794
999.981
993.627
999.812
999.793
999.836
999.858
1000.05
1000.03
1000.03
1000.04
1000.05
1000.05
1000.05
1000.05
380.529
491.576
633.209
837.12
12.7242
20.7894
37.4701
64.6857
1.3063
1.30843
1.30226
1.30034
1.29993
1.29659
1.29899
1.30628
1.29376
1.29348
1.30334
1.33346
1.29344
1.29348
1.29329
1.29555
1.29328
1.29328
1.29329
1.29329
1.29328
1.29328
1.29328
1.29328
1.29328
1.29328
1.29328
1.29328
1.29327
1.29327
1.29327
1.29328
1.29327
1.29327
1.29327
1.29327
1.29326
1.29326
1.29326
1.29327
1.29326
1.29326
1.29326
1.29326
1.29325
1.29325
1.29325
1.29325
1.29325
1.29325
1.29325
1.29325
1.29324
1.29324
1.29324
1.29324
1.29323
1.29324
1.29324
1.29324
1.29323
1.29323
1.29323
1.29323
1.29322
1.29322
1.29322
1.29322
1.29322
1.29322
1.29322
1.29322
1.29321
1.29321
1.29321
1.29321
1.2932
1.2932
1.2932
1.2932
1.29319
1.2932
1.2932
1.2932
1.29319
1.29319
1.29319
1.29319
1.29318
1.29318
1.29319
1.29319
1.29317
1.29318
1.29318
1.29318
1.29317
1.29317
1.29318
1.29318
1.29316
1.29317
1.29317
1.29317
1.29316
1.29317
1.29317
1.29317
1.29315
1.29316
1.29316
1.29316
1.29315
1.29316
1.29316
1.29316
1.29314
1.29315
1.29316
1.29316
1.29314
1.29315
1.29315
1.29315
1.29314
1.29314
1.29315
1.29315
1.29314
1.29315
1.29315
1.29315
1.29314
1.29315
1.29315
1.29315
1.29316
1.29316
1.29316
1.29316
86.6385
78.6925
40.3699
6.09166
1.45393
1.30657
1.3065
1.30649
1.3065
1.30649
1.30649
1.3065
1.30658
1.30658
1.30657
1.30639
1.30625
1.30689
264.38
947.012
903.411
589.592
63.6453
2.08093
1.30715
1.30648
1.30648
1.30649
1.30648
1.30649
1.30647
1.30649
1.30649
1.30647
1.30627
1.30628
1.30676
370.503
999.847
1000.05
953.626
365.855
15.0947
1.33323
1.3065
1.30647
1.30649
1.30647
1.30648
1.30646
1.30647
1.30643
1.30641
1.30625
1.3064
1.30657
666.439
1000.05
1000.05
1000.05
792.302
123.349
2.92903
1.31812
1.30631
1.30638
1.30646
1.30648
1.30646
1.30647
1.30643
1.30647
1.30639
1.30654
1.30651
773.793
1000.05
1000.05
1000.05
1000.05
697.023
68.6399
1.30805
1.30584
1.30574
1.30589
1.30626
1.30654
1.30656
1.30648
1.3064
1.30633
1.30651
1.30767
811.348
973.481
997.204
1000.05
1000.05
1000.05
791.687
293.189
1.30741
1.30328
1.30323
1.30413
1.30548
1.30706
1.30757
1.30751
1.30691
1.30693
41.2215
860.043
155.728
425.148
864.685
991.435
1000.05
999.324
934.164
744.515
414.107
232.586
191.849
171.156
144.28
123.377
112.937
97.3254
112.617
509.387
959.695
1.30036
10.3264
81.1444
292.601
684.432
972.954
999.966
999.966
985.708
950.815
919.967
896.801
868.376
843.7
828.155
789.856
812.891
935.001
991.968
1.30776
1.2934
1.29342
2.0153
47.656
196.65
455.819
742.309
875.399
910.416
931.373
949.666
974.783
995.114
995.115
995.114
994.764
994.765
994.765
1.33348
1.31878
1.29456
1.29336
1.29336
3.25822
15.7448
68.3182
162.565
253.292
307.711
356.259
413.411
507.198
657.298
880.995
993.683
994.765
994.764
1.32908
1.33148
1.3085
1.29338
1.29334
1.29335
1.29408
1.41313
2.06835
3.35478
5.10205
7.51718
11.7433
18.8645
51.1856
299.191
799.264
983.592
982.13
1.29743
1.30144
1.29808
1.29348
1.29332
1.29333
1.29333
1.29334
1.29334
1.29341
1.29369
1.29496
1.30268
1.30219
1.30247
24.9655
493.361
968.695
931.758
1.29329
1.29329
1.29335
1.29336
1.29331
1.29332
1.29332
1.29333
1.29334
1.29335
1.29348
1.29955
1.3646
2.62345
12.9942
120.228
650.642
988.325
930.3
1.29328
1.29329
1.29329
1.2933
1.2933
1.29331
1.29331
1.29332
1.29333
1.29333
1.29333
1.34784
6.0601
44.3228
233.555
612.259
911.803
990.539
963.469
1.29328
1.29328
1.29329
1.29329
1.29329
1.2933
1.2933
1.29331
1.29332
1.29332
1.2933
1.3175
18.0591
345.405
794.948
927.519
978.199
990.536
990.539
1.29327
1.29328
1.29328
1.29328
1.29329
1.29329
1.2933
1.2933
1.2933
1.2933
1.29329
1.35369
41.5117
553.826
934.853
941.762
941.763
803.868
592.076
1.29327
1.29327
1.29327
1.29328
1.29328
1.29328
1.29329
1.29329
1.29329
1.29329
1.29328
1.35291
10.3667
73.6497
363.792
747.95
936.678
594.327
440.396
1.29326
1.29326
1.29327
1.29327
1.29327
1.29328
1.29328
1.29328
1.29328
1.29327
1.29327
1.30156
1.29325
1.29325
1.29326
145.677
649.126
650.166
447.13
1.29326
1.29326
1.29326
1.29326
1.29327
1.29327
1.29327
1.29327
1.29327
1.29326
1.29326
1.29337
1.29324
1.31157
1.37636
3.84609
295.977
525.388
373.036
1.29325
1.29325
1.29325
1.29326
1.29326
1.29327
1.29333
1.29327
1.29327
1.29326
1.29325
1.29324
1.29324
1.29844
1.2969
4.27607
116.722
363.2
159.932
1.29324
1.29324
1.29325
1.29325
1.29325
1.29328
1.29363
1.29364
1.29329
1.29325
1.29325
1.29324
1.29325
1.29327
1.29326
1.411
28.0056
339.988
159.932
1.29324
1.29324
1.29324
1.29324
1.29325
1.29324
1.29328
1.29396
1.29345
1.29323
1.29323
1.29323
1.29324
1.29324
1.29325
1.29354
1.29355
333.63
159.932
1.29323
1.29323
1.29323
1.29323
1.29325
1.29325
1.29323
1.29323
1.29877
1.29926
1.29351
1.29323
1.29324
1.29325
1.29325
1.29326
4.98432
202.968
159.933
1.29322
1.29322
1.29322
1.29322
1.29322
1.29329
1.29322
1.29322
1.29656
1.30563
1.30564
1.29443
1.29323
1.29323
1.29324
1.29324
1.38217
1.30556
240.451
1.29322
1.29322
1.29322
1.29321
1.29321
1.29323
1.29466
1.29374
1.29375
1.3031
1.30739
1.30118
1.29415
1.29323
1.29324
1.29324
1.29326
1.37133
249.048
1.29321
1.29321
1.29321
1.2932
1.2932
1.29335
1.29501
1.29513
1.29398
1.29325
1.3047
1.3183
1.29693
1.29325
1.29324
1.29323
1.29326
1.29325
243.815
1.2932
1.2932
1.2932
1.29319
1.29319
1.29318
1.29379
1.29511
1.29406
1.29324
1.30022
1.3183
1.31418
1.2954
1.29324
1.29323
1.29326
1.29324
228.426
1.2932
1.29319
1.29319
1.29319
1.29322
1.29318
1.29317
1.29402
1.29392
1.29323
1.29321
1.31827
1.3183
1.29869
1.29323
1.29322
1.29327
1.29324
245.109
1.29319
1.29319
1.29318
1.29319
1.29356
1.29328
1.29334
1.29317
1.29318
1.29318
1.2932
1.31362
1.31829
1.29702
1.29323
1.29433
1.32079
1.29471
248.995
1.29318
1.29318
1.29317
1.2933
1.29354
1.29334
1.30538
1.3845
1.3229
1.29997
1.29345
1.29978
1.30386
1.29422
1.29321
1.29322
1.36337
2.68882
240.345
1.29318
1.29317
1.29316
1.29341
1.29339
1.31691
1.46446
1.47313
1.45254
1.30388
1.29344
1.29346
1.29321
1.29326
1.29487
1.30783
1.38055
1.87534
39.4024
1.29317
1.29317
1.29315
1.29346
1.29679
1.4155
1.47313
1.47311
1.47313
1.29606
1.2931
1.29314
1.29317
1.29318
1.2969
1.58293
4.0328
17.6325
8.17776
1.29317
1.29316
1.29315
1.29345
1.30375
1.44557
1.47314
1.47313
1.41432
1.29308
1.29311
1.29313
1.29318
1.2952
1.29807
1.29415
78.9506
70.6189
8.20066
1.29317
1.29316
1.29315
1.29348
1.29638
1.37556
1.47315
1.41156
1.30085
1.2931
1.29312
1.29314
1.29404
1.29807
1.29808
1.29334
227.233
202.593
220.849
1.29316
1.29315
1.29316
1.29349
1.29479
1.30551
1.32745
1.31062
1.2931
1.29312
1.29314
1.29318
1.29469
1.29548
1.29359
1.29352
310.839
467.424
459.593
1.29316
1.29315
1.29318
1.29321
1.2932
1.29316
1.29324
1.29353
1.29377
1.29525
1.29498
1.29392
1.29336
1.29327
1.29341
2.90449
404.382
467.384
467.424
1.29316
1.29316
1.29323
1.29322
1.29314
1.29314
1.29313
1.2938
1.29645
1.29646
1.29623
1.29335
1.29337
1.29361
1.29324
1.2933
147.391
467.424
453.837
1.29315
1.29315
1.29327
1.29329
1.29315
1.29315
1.29315
1.2938
1.29564
1.29561
1.29586
1.30134
1.30878
1.30895
1.30799
1.29305
1.64942
207.992
237.482
1.29315
1.29317
1.29334
1.29328
1.29315
1.29315
1.29326
1.29348
1.29341
1.29347
1.2975
1.30652
1.30513
1.29572
1.29395
1.29301
1.35566
5.7847
13.6599
1.29315
1.29317
1.29358
1.29365
1.29314
1.29316
1.29321
1.2932
1.29318
1.29329
1.30175
1.3041
1.29378
1.29346
1.29357
1.29363
1.29433
1.2943
1.35836
1.29315
1.29316
1.29481
1.29588
1.29313
1.29315
1.29316
1.29316
1.29317
1.29728
1.30344
1.29339
1.29372
1.29276
1.29286
1.2944
1.29316
1.29322
1.29734
1.29315
1.29315
1.29319
1.29735
1.30237
1.29792
1.29473
1.29399
1.29485
1.29824
1.2978
1.29265
1.29259
1.29253
1.29249
1.29369
1.29461
1.29332
1.29258
)
;

boundaryField
{
    leftWall
    {
        type            calculated;
        value           nonuniform List<scalar> 
50
(
1000.05
1000.05
1000.05
1000.05
1000.05
1000.05
1000.05
1000.05
999.818
893.592
207.261
1.29337
1.2933
1.29327
1.29327
1.29326
1.29326
1.29326
1.29326
1.29325
1.29325
1.29325
1.29324
1.29324
1.29324
1.29323
1.29323
1.29322
1.29322
1.29321
1.2932
1.29319
1.29317
1.29315
1.29314
1.29312
1.29311
1.2931
1.2931
1.29309
1.29308
1.29308
1.29308
1.29308
1.29308
1.29308
1.29308
1.29308
1.29308
1.29307
)
;
    }
    rightWall
    {
        type            calculated;
        value           nonuniform List<scalar> 
50
(
239.994
607.36
607.351
607.352
607.344
607.347
607.288
380.673
264.38
370.503
666.439
773.793
811.348
860.043
959.695
991.968
994.765
994.764
982.13
931.758
930.3
963.469
990.539
592.076
440.396
447.13
373.036
159.932
159.932
159.932
159.933
240.451
249.048
243.815
228.426
245.109
248.995
240.345
39.4024
8.17776
8.20066
220.849
459.593
467.424
453.837
237.482
13.6599
1.35836
1.29734
1.29258
)
;
    }
    lowerWall
    {
        type            calculated;
        value           nonuniform List<scalar> 
62
(
1000.05
1000.05
1000.05
1000.05
1000.05
1000.05
1000.05
1000.05
1000.05
1000.05
1000.05
1000.05
1000.05
1000.05
1000.05
1000.05
1000.05
1000.05
1000.05
1000.05
1000.05
1000.05
999.614
999.614
999.614
999.749
1000.04
1000.05
1000.05
999.96
999.47
999.281
999.814
999.981
843.864
1.30651
1.30651
1.30651
1.30651
1.3065
1.3065
1.3065
1.30654
1.30651
1.30651
1.30651
1.30651
1.30652
1.30651
1.30652
1.30651
1.30652
1.30653
1.30662
1.30681
1.30704
1.30737
1.30834
1.32984
4.70563
122.804
239.994
)
;
    }
    atmosphere
    {
        type            calculated;
        value           nonuniform List<scalar> 
46
(
1.29317
1.29317
1.29317
1.29317
1.29317
1.29317
1.29317
1.29317
1.29317
1.29317
1.29317
1.29317
1.29317
1.29317
1.29317
1.29317
1.29317
1.29317
1.29318
1.29319
1.2932
1.29321
1.29323
1.29325
1.29325
1.29325
1.29325
1.29324
1.29324
1.29328
1.29745
1.30246
1.29802
1.29483
1.29408
1.29494
1.29834
1.29789
1.29274
1.29266
1.29262
1.29259
1.29262
1.2947
1.29341
1.29267
)
;
    }
    defaultFaces
    {
        type            empty;
    }
}


// ************************************************************************* //
