/*--------------------------------*- C++ -*----------------------------------*\
| =========                 |                                                 |
| \\      /  F ield         | OpenFOAM: The Open Source CFD Toolbox           |
|  \\    /   O peration     | Version:  2012                                  |
|   \\  /    A nd           | Website:  www.openfoam.com                      |
|    \\/     M anipulation  |                                                 |
\*---------------------------------------------------------------------------*/
FoamFile
{
    version     2.0;
    format      ascii;
    class       volScalarField;
    location    "0.45";
    object      rho2;
}
// * * * * * * * * * * * * * * * * * * * * * * * * * * * * * * * * * * * * * //

dimensions      [1 -3 0 0 0 0 0];


internalField   nonuniform List<scalar> 
2268
(
1.30289
1.3029
1.30291
1.30294
1.30298
1.30303
1.30309
1.30319
1.30332
1.30345
1.30368
1.30388
1.30421
1.30451
1.30498
1.30539
1.306
1.30651
1.30725
1.30779
1.30853
1.30895
1.30934
1.30213
1.30214
1.30215
1.30218
1.30221
1.30227
1.30233
1.30243
1.30256
1.30269
1.30291
1.30311
1.30345
1.30375
1.30422
1.30463
1.30525
1.30577
1.30651
1.30706
1.3078
1.30823
1.30862
1.30136
1.30137
1.30139
1.30141
1.30145
1.3015
1.30157
1.30166
1.30179
1.30192
1.30214
1.30233
1.30267
1.30296
1.30343
1.30384
1.30445
1.30496
1.30571
1.30626
1.30704
1.30749
1.30793
1.30058
1.30059
1.30061
1.30063
1.30067
1.30072
1.30078
1.30087
1.301
1.30113
1.30135
1.30155
1.30188
1.30218
1.30265
1.30307
1.30369
1.30422
1.30498
1.30557
1.30636
1.30685
1.30727
1.29981
1.29981
1.29983
1.29985
1.29989
1.29994
1.3
1.30009
1.30021
1.30034
1.30055
1.30074
1.30107
1.30136
1.30182
1.30222
1.30284
1.30336
1.30413
1.3047
1.30556
1.30605
1.30667
1.29901
1.29902
1.29903
1.29905
1.29909
1.29913
1.29919
1.29928
1.2994
1.29953
1.29974
1.29993
1.30026
1.30055
1.30102
1.30144
1.30206
1.30261
1.30339
1.30404
1.30491
1.30553
1.30607
1.29822
1.29823
1.29824
1.29826
1.29829
1.29834
1.2984
1.29848
1.29859
1.29872
1.29892
1.2991
1.29941
1.29969
1.30014
1.30054
1.30116
1.30169
1.3025
1.3031
1.30407
1.3046
1.30549
1.29741
1.29741
1.29743
1.29745
1.29747
1.29751
1.29757
1.29765
1.29775
1.29788
1.29807
1.29826
1.29857
1.29887
1.29932
1.29974
1.30036
1.30091
1.30173
1.30241
1.30342
1.30418
1.30503
1.30651
1.30651
1.30651
1.30651
1.30651
1.30651
1.30652
1.30651
1.30652
1.30653
1.30662
1.30681
1.30704
1.30737
1.30834
1.30955
1.31111
1.3163
1.35315
1.30651
1.30651
1.30651
1.30651
1.30651
1.30651
1.30652
1.30651
1.30652
1.30653
1.30662
1.3068
1.30697
1.30713
1.30754
1.30808
1.30964
1.31266
1.34348
1.30651
1.30651
1.30651
1.30651
1.30651
1.30651
1.30651
1.30651
1.30652
1.30652
1.30662
1.30676
1.30687
1.30689
1.30702
1.30718
1.30773
1.31009
1.33355
1.30651
1.3065
1.30651
1.30651
1.30651
1.30651
1.30651
1.30651
1.30652
1.30652
1.30661
1.30672
1.30674
1.30662
1.30656
1.30643
1.30664
1.30842
1.325
1.3065
1.3065
1.30651
1.30651
1.30651
1.3065
1.30651
1.3065
1.30651
1.30651
1.30658
1.30667
1.30665
1.30641
1.30628
1.30617
1.30628
1.30773
1.31812
1.3065
1.3065
1.30648
1.3065
1.30651
1.3065
1.30651
1.3065
1.30651
1.3065
1.30656
1.30664
1.30665
1.30641
1.30625
1.30617
1.30619
1.3073
1.31392
1.3065
1.30651
1.30643
1.30652
1.30651
1.3065
1.30651
1.3065
1.30651
1.3065
1.30653
1.3066
1.30665
1.30648
1.30634
1.30629
1.30619
1.30707
1.31207
1.30654
1.30755
1.30759
1.30714
1.30655
1.3065
1.3065
1.30649
1.3065
1.30649
1.30651
1.30656
1.30664
1.30657
1.30652
1.30635
1.30621
1.30699
1.31188
1.29617
1.29618
1.29619
1.29621
1.29624
1.29627
1.29633
1.2964
1.29649
1.29661
1.29677
1.29694
1.29721
1.29746
1.29788
1.29826
1.29888
1.2994
1.30028
1.30085
1.30209
1.3024
1.30398
1.29451
1.29451
1.29452
1.29452
1.29454
1.29456
1.29459
1.29463
1.2947
1.29479
1.29493
1.2951
1.29537
1.29565
1.29608
1.29649
1.29707
1.29763
1.29841
1.29922
1.30031
1.30137
1.30288
1.29358
1.29358
1.29358
1.29358
1.29359
1.2936
1.29361
1.29362
1.29364
1.29367
1.2937
1.29374
1.29381
1.29391
1.29409
1.29437
1.29483
1.29542
1.29624
1.29704
1.29796
1.29883
1.3004
1.29337
1.29337
1.29337
1.29337
1.29338
1.29338
1.29338
1.29339
1.2934
1.2934
1.2934
1.29339
1.29339
1.29342
1.29345
1.29351
1.2936
1.29379
1.2942
1.29488
1.29577
1.29694
1.29822
1.2933
1.2933
1.2933
1.2933
1.2933
1.2933
1.2933
1.2933
1.29331
1.29331
1.29331
1.29331
1.29332
1.29332
1.29334
1.29336
1.2934
1.29344
1.29348
1.29358
1.29377
1.29422
1.29512
1.29327
1.29327
1.29327
1.29327
1.29328
1.29328
1.29328
1.29328
1.29328
1.29328
1.29328
1.29328
1.29328
1.29328
1.29328
1.29329
1.29329
1.29331
1.29333
1.29337
1.29341
1.29348
1.29363
1.29327
1.29327
1.29327
1.29327
1.29327
1.29327
1.29327
1.29327
1.29327
1.29327
1.29327
1.29327
1.29327
1.29328
1.29328
1.29328
1.29328
1.29328
1.29329
1.29329
1.29331
1.29334
1.29339
1.29326
1.29326
1.29326
1.29326
1.29326
1.29326
1.29326
1.29327
1.29327
1.29327
1.29327
1.29327
1.29327
1.29327
1.29327
1.29328
1.29328
1.29328
1.29328
1.29328
1.29329
1.2933
1.29331
1.29326
1.29326
1.29326
1.29326
1.29326
1.29326
1.29326
1.29326
1.29327
1.29327
1.29327
1.29327
1.29327
1.29327
1.29327
1.29327
1.29328
1.29328
1.29328
1.29328
1.29328
1.29329
1.29329
1.29326
1.29326
1.29326
1.29326
1.29326
1.29326
1.29326
1.29326
1.29326
1.29326
1.29327
1.29327
1.29327
1.29327
1.29327
1.29327
1.29327
1.29328
1.29328
1.29328
1.29328
1.29328
1.29329
1.29326
1.29326
1.29326
1.29326
1.29326
1.29326
1.29326
1.29326
1.29326
1.29326
1.29326
1.29326
1.29326
1.29327
1.29327
1.29327
1.29327
1.29327
1.29327
1.29328
1.29328
1.29328
1.29328
1.29325
1.29325
1.29325
1.29325
1.29325
1.29326
1.29326
1.29326
1.29326
1.29326
1.29326
1.29326
1.29326
1.29326
1.29326
1.29327
1.29327
1.29327
1.29327
1.29327
1.29328
1.29328
1.29328
1.29325
1.29325
1.29325
1.29325
1.29325
1.29325
1.29325
1.29325
1.29325
1.29326
1.29326
1.29326
1.29326
1.29326
1.29326
1.29326
1.29326
1.29327
1.29327
1.29327
1.29327
1.29328
1.29328
1.29325
1.29325
1.29325
1.29325
1.29325
1.29325
1.29325
1.29325
1.29325
1.29325
1.29325
1.29325
1.29326
1.29326
1.29326
1.29326
1.29326
1.29326
1.29326
1.29327
1.29327
1.29327
1.29327
1.29324
1.29324
1.29324
1.29324
1.29325
1.29325
1.29325
1.29325
1.29325
1.29325
1.29325
1.29325
1.29325
1.29325
1.29325
1.29326
1.29326
1.29326
1.29326
1.29326
1.29326
1.29327
1.29327
1.29324
1.29324
1.29324
1.29324
1.29324
1.29324
1.29324
1.29324
1.29324
1.29325
1.29325
1.29325
1.29325
1.29325
1.29325
1.29325
1.29325
1.29326
1.29326
1.29326
1.29326
1.29326
1.29326
1.29324
1.29324
1.29324
1.29324
1.29324
1.29324
1.29324
1.29324
1.29324
1.29324
1.29324
1.29324
1.29324
1.29325
1.29325
1.29325
1.29325
1.29325
1.29325
1.29325
1.29326
1.29326
1.29326
1.29323
1.29323
1.29323
1.29323
1.29323
1.29323
1.29324
1.29324
1.29324
1.29324
1.29324
1.29324
1.29324
1.29324
1.29324
1.29324
1.29325
1.29325
1.29325
1.29325
1.29325
1.29325
1.29326
1.29323
1.29323
1.29323
1.29323
1.29323
1.29323
1.29323
1.29323
1.29323
1.29323
1.29323
1.29323
1.29324
1.29324
1.29324
1.29324
1.29324
1.29324
1.29324
1.29325
1.29325
1.29325
1.29325
1.29322
1.29322
1.29322
1.29322
1.29322
1.29323
1.29323
1.29323
1.29323
1.29323
1.29323
1.29323
1.29323
1.29323
1.29323
1.29324
1.29324
1.29324
1.29324
1.29324
1.29324
1.29324
1.29325
1.29322
1.29322
1.29322
1.29322
1.29322
1.29322
1.29322
1.29322
1.29322
1.29322
1.29322
1.29323
1.29323
1.29323
1.29323
1.29323
1.29323
1.29323
1.29323
1.29324
1.29324
1.29324
1.29324
1.29321
1.29321
1.29321
1.29321
1.29321
1.29321
1.29321
1.29321
1.29322
1.29322
1.29322
1.29322
1.29322
1.29322
1.29322
1.29322
1.29323
1.29323
1.29323
1.29323
1.29323
1.29323
1.29323
1.2932
1.2932
1.2932
1.2932
1.2932
1.2932
1.2932
1.29321
1.29321
1.29321
1.29321
1.29321
1.29321
1.29321
1.29322
1.29322
1.29322
1.29322
1.29322
1.29322
1.29323
1.29323
1.29323
1.29319
1.29319
1.29319
1.29319
1.29319
1.29319
1.29319
1.29319
1.2932
1.2932
1.2932
1.2932
1.2932
1.29321
1.29321
1.29321
1.29321
1.29321
1.29322
1.29322
1.29322
1.29322
1.29322
1.29317
1.29317
1.29317
1.29317
1.29317
1.29318
1.29318
1.29318
1.29318
1.29318
1.29319
1.29319
1.29319
1.29319
1.2932
1.2932
1.2932
1.2932
1.29321
1.29321
1.29321
1.29321
1.29321
1.29315
1.29315
1.29315
1.29315
1.29316
1.29316
1.29316
1.29316
1.29316
1.29316
1.29317
1.29317
1.29317
1.29318
1.29318
1.29318
1.29319
1.29319
1.2932
1.2932
1.2932
1.29321
1.29321
1.29314
1.29314
1.29314
1.29314
1.29314
1.29314
1.29314
1.29314
1.29314
1.29315
1.29315
1.29315
1.29315
1.29316
1.29316
1.29317
1.29317
1.29318
1.29318
1.29319
1.29319
1.2932
1.2932
1.29312
1.29312
1.29312
1.29312
1.29312
1.29313
1.29313
1.29313
1.29313
1.29313
1.29313
1.29313
1.29314
1.29314
1.29314
1.29315
1.29315
1.29316
1.29316
1.29317
1.29318
1.29319
1.29319
1.29311
1.29311
1.29311
1.29311
1.29311
1.29311
1.29311
1.29311
1.29312
1.29312
1.29312
1.29312
1.29312
1.29312
1.29313
1.29313
1.29314
1.29314
1.29315
1.29316
1.29317
1.29318
1.29318
1.2931
1.2931
1.2931
1.2931
1.2931
1.2931
1.2931
1.2931
1.29311
1.29311
1.29311
1.29311
1.29311
1.29311
1.29312
1.29312
1.29312
1.29313
1.29313
1.29314
1.29315
1.29316
1.29318
1.2931
1.2931
1.2931
1.2931
1.2931
1.2931
1.2931
1.2931
1.2931
1.2931
1.2931
1.2931
1.2931
1.2931
1.29311
1.29311
1.29311
1.29312
1.29312
1.29313
1.29314
1.29315
1.29317
1.29309
1.29309
1.29309
1.29309
1.29309
1.29309
1.29309
1.29309
1.29309
1.29309
1.29309
1.29309
1.29309
1.2931
1.2931
1.2931
1.2931
1.29311
1.29311
1.29312
1.29313
1.29314
1.29316
1.29308
1.29308
1.29308
1.29308
1.29308
1.29308
1.29308
1.29309
1.29309
1.29309
1.29309
1.29309
1.29309
1.29309
1.29309
1.29309
1.2931
1.2931
1.2931
1.29311
1.29312
1.29313
1.29315
1.29308
1.29308
1.29308
1.29308
1.29308
1.29308
1.29308
1.29308
1.29308
1.29308
1.29308
1.29308
1.29308
1.29309
1.29309
1.29309
1.29309
1.2931
1.2931
1.2931
1.29311
1.29312
1.29314
1.29308
1.29308
1.29308
1.29308
1.29308
1.29308
1.29308
1.29308
1.29308
1.29308
1.29308
1.29308
1.29308
1.29308
1.29308
1.29309
1.29309
1.29309
1.29309
1.2931
1.29311
1.29312
1.29313
1.29308
1.29308
1.29308
1.29308
1.29308
1.29308
1.29308
1.29308
1.29308
1.29308
1.29308
1.29308
1.29308
1.29308
1.29308
1.29309
1.29309
1.29309
1.29309
1.2931
1.2931
1.29311
1.29313
1.29308
1.29308
1.29308
1.29308
1.29308
1.29308
1.29308
1.29308
1.29308
1.29308
1.29308
1.29308
1.29308
1.29309
1.29309
1.29309
1.29309
1.29309
1.2931
1.2931
1.2931
1.29311
1.29313
1.29308
1.29308
1.29308
1.29308
1.29308
1.29308
1.29308
1.29308
1.29308
1.29308
1.29308
1.29308
1.29309
1.29309
1.29309
1.29309
1.29309
1.29309
1.2931
1.2931
1.29311
1.29311
1.29312
1.29308
1.29308
1.29308
1.29308
1.29308
1.29308
1.29308
1.29308
1.29308
1.29308
1.29308
1.29308
1.29308
1.29308
1.29309
1.29309
1.29309
1.29309
1.2931
1.2931
1.29311
1.29312
1.29312
1.29308
1.29308
1.29308
1.29308
1.29308
1.29308
1.29308
1.29308
1.29308
1.29308
1.29308
1.29308
1.29308
1.29308
1.29308
1.29308
1.29309
1.29309
1.29309
1.2931
1.29311
1.29312
1.29313
1.29308
1.29308
1.29308
1.29308
1.29308
1.29308
1.29308
1.29308
1.29308
1.29308
1.29308
1.29308
1.29308
1.29308
1.29308
1.29308
1.29308
1.29309
1.29309
1.2931
1.29311
1.29312
1.29313
1.29307
1.29307
1.29307
1.29307
1.29307
1.29307
1.29307
1.29307
1.29307
1.29307
1.29307
1.29307
1.29307
1.29307
1.29308
1.29308
1.29308
1.29308
1.29309
1.2931
1.29311
1.29312
1.29314
1.30269
1.307
1.30758
1.31197
1.30399
1.30493
1.30594
1.30699
1.30104
1.30219
1.3029
1.30412
1.29902
1.29966
1.30046
1.30116
1.29601
1.29666
1.29734
1.29811
1.2938
1.29395
1.29417
1.29452
1.29342
1.29343
1.29346
1.29349
1.29332
1.29334
1.29335
1.29336
1.2933
1.2933
1.29331
1.29332
1.29329
1.29329
1.2933
1.2933
1.29329
1.29329
1.29329
1.29329
1.29328
1.29328
1.29329
1.29329
1.29328
1.29328
1.29328
1.29328
1.29328
1.29328
1.29328
1.29328
1.29327
1.29327
1.29327
1.29328
1.29327
1.29327
1.29327
1.29327
1.29326
1.29326
1.29326
1.29327
1.29326
1.29326
1.29326
1.29326
1.29325
1.29325
1.29325
1.29325
1.29325
1.29325
1.29325
1.29325
1.29324
1.29324
1.29324
1.29324
1.29323
1.29324
1.29324
1.29324
1.29323
1.29323
1.29323
1.29323
1.29322
1.29322
1.29322
1.29322
1.29322
1.29322
1.29322
1.29322
1.29321
1.29321
1.29321
1.29321
1.2932
1.2932
1.2932
1.2932
1.29319
1.2932
1.2932
1.2932
1.29319
1.29319
1.29319
1.29319
1.29318
1.29318
1.29319
1.29319
1.29317
1.29318
1.29318
1.29318
1.29317
1.29317
1.29318
1.29318
1.29316
1.29317
1.29317
1.29317
1.29316
1.29317
1.29317
1.29317
1.29315
1.29316
1.29316
1.29316
1.29315
1.29316
1.29316
1.29316
1.29314
1.29315
1.29316
1.29316
1.29314
1.29315
1.29315
1.29315
1.29314
1.29314
1.29315
1.29315
1.29314
1.29315
1.29315
1.29315
1.29314
1.29315
1.29315
1.29315
1.29316
1.29316
1.29316
1.29316
1.31654
1.31588
1.31265
1.31025
1.30689
1.3065
1.3065
1.30649
1.3065
1.30649
1.30649
1.3065
1.30658
1.30658
1.30657
1.30639
1.30625
1.30689
1.31176
1.31085
1.31164
1.31203
1.31091
1.30715
1.30641
1.30648
1.30648
1.30649
1.30648
1.30649
1.30647
1.30649
1.30649
1.30647
1.30627
1.30628
1.30676
1.31165
1.30557
1.30742
1.30933
1.31127
1.31156
1.30716
1.30649
1.30647
1.30649
1.30647
1.30648
1.30646
1.30647
1.30643
1.30641
1.30625
1.30636
1.30657
1.31155
1.30284
1.30459
1.30666
1.30986
1.3137
1.30967
1.30649
1.30631
1.30638
1.30646
1.30648
1.30646
1.30647
1.30643
1.30642
1.30632
1.30647
1.30651
1.31145
1.29937
1.30111
1.30327
1.306
1.31047
1.31349
1.30805
1.30584
1.30574
1.30589
1.30626
1.30653
1.30656
1.30648
1.30638
1.30627
1.3065
1.30767
1.3115
1.29541
1.29733
1.29979
1.30242
1.30514
1.3106
1.31177
1.30741
1.30328
1.30323
1.30413
1.30548
1.30706
1.30757
1.30751
1.30691
1.30693
1.31074
1.31243
1.29357
1.29385
1.29486
1.2971
1.30051
1.30382
1.30701
1.30971
1.30826
1.30816
1.30868
1.3098
1.3116
1.31234
1.31226
1.31161
1.31102
1.31156
1.31386
1.29338
1.29344
1.2935
1.29367
1.29441
1.29656
1.29952
1.30196
1.30417
1.30593
1.30684
1.30767
1.30881
1.30944
1.30964
1.30985
1.31077
1.31292
1.31611
1.29334
1.29336
1.29338
1.29342
1.29346
1.29358
1.29387
1.29473
1.29596
1.29703
1.29788
1.29869
1.29969
1.30083
1.30248
1.3046
1.3079
1.3106
1.31355
1.29331
1.29332
1.29335
1.29336
1.29336
1.2934
1.29342
1.29345
1.2935
1.29356
1.29362
1.29372
1.2939
1.2943
1.29532
1.29868
1.30311
1.30722
1.30982
1.2933
1.29331
1.29332
1.29333
1.29334
1.29335
1.29335
1.29336
1.29338
1.29339
1.2934
1.29342
1.29347
1.29352
1.29378
1.2948
1.29901
1.30276
1.30491
1.29329
1.29329
1.2933
1.29331
1.29332
1.29333
1.29333
1.29334
1.29334
1.29335
1.29336
1.29338
1.29342
1.29348
1.29359
1.29391
1.29536
1.29925
1.30067
1.29329
1.29329
1.2933
1.2933
1.29331
1.29331
1.29332
1.29333
1.29334
1.29335
1.29335
1.29336
1.29339
1.29343
1.29362
1.2939
1.29572
1.29763
1.29853
1.29328
1.29329
1.29329
1.29329
1.2933
1.29331
1.29331
1.29332
1.29333
1.29333
1.29332
1.29334
1.29341
1.29352
1.29374
1.29432
1.29592
1.29653
1.29692
1.29328
1.29328
1.29329
1.29329
1.29329
1.2933
1.2933
1.29331
1.29332
1.29332
1.2933
1.29332
1.29337
1.29334
1.29388
1.29471
1.29557
1.29568
1.29562
1.29327
1.29328
1.29328
1.29328
1.29329
1.29329
1.2933
1.2933
1.2933
1.2933
1.29329
1.29328
1.29334
1.29366
1.29393
1.29431
1.29486
1.29451
1.29431
1.29327
1.29327
1.29327
1.29328
1.29328
1.29328
1.29329
1.29329
1.29329
1.29329
1.29328
1.29324
1.29329
1.29337
1.29358
1.29361
1.29396
1.29314
1.29348
1.29326
1.29326
1.29327
1.29327
1.29327
1.29328
1.29328
1.29328
1.29328
1.29327
1.29327
1.29324
1.29325
1.29325
1.29326
1.29329
1.29326
1.29261
1.29253
1.29326
1.29326
1.29326
1.29326
1.29327
1.29327
1.29327
1.29327
1.29327
1.29326
1.29326
1.29324
1.29324
1.29324
1.29325
1.29327
1.2931
1.29248
1.29209
1.29325
1.29325
1.29325
1.29326
1.29326
1.29326
1.29326
1.29326
1.29326
1.29325
1.29325
1.29324
1.29324
1.29324
1.29324
1.29328
1.29314
1.29232
1.2919
1.29324
1.29324
1.29325
1.29325
1.29325
1.29325
1.29325
1.29325
1.29325
1.29324
1.29325
1.29324
1.29324
1.29325
1.29325
1.29325
1.29324
1.29279
1.29199
1.29324
1.29324
1.29324
1.29324
1.29324
1.29324
1.29324
1.29323
1.29323
1.29323
1.29323
1.29323
1.29324
1.29324
1.29324
1.29324
1.29326
1.29323
1.29225
1.29323
1.29323
1.29323
1.29323
1.29323
1.29323
1.29323
1.29322
1.29322
1.29322
1.29322
1.29323
1.29324
1.29324
1.29325
1.29326
1.29325
1.29346
1.29298
1.29322
1.29322
1.29322
1.29322
1.29322
1.29322
1.29321
1.29321
1.29321
1.2932
1.29321
1.29321
1.29322
1.29323
1.29324
1.29324
1.29325
1.29331
1.29298
1.29322
1.29322
1.29322
1.29321
1.29321
1.2932
1.2932
1.2932
1.2932
1.2932
1.2932
1.2932
1.29322
1.29322
1.29324
1.29323
1.29325
1.29324
1.29302
1.29321
1.29321
1.29321
1.2932
1.2932
1.29319
1.29319
1.29319
1.29319
1.29319
1.29319
1.29319
1.29321
1.29321
1.29323
1.29323
1.29326
1.29325
1.29305
1.2932
1.2932
1.2932
1.29319
1.29319
1.29318
1.29317
1.29317
1.29318
1.29318
1.29318
1.29318
1.2932
1.29321
1.29323
1.29323
1.29326
1.29324
1.29308
1.2932
1.29319
1.29319
1.29318
1.29317
1.29316
1.29316
1.29315
1.29316
1.29316
1.29317
1.29317
1.29319
1.29319
1.29323
1.29322
1.29327
1.29324
1.29307
1.29319
1.29319
1.29318
1.29317
1.29316
1.29314
1.29314
1.29313
1.29314
1.29314
1.29315
1.29315
1.29318
1.29319
1.29322
1.29322
1.29327
1.29321
1.29304
1.29318
1.29318
1.29317
1.29315
1.29314
1.29312
1.29311
1.29309
1.2931
1.29311
1.29313
1.29314
1.29317
1.29318
1.29321
1.29322
1.29326
1.2932
1.29301
1.29318
1.29317
1.29316
1.29314
1.29312
1.2931
1.29307
1.29305
1.29306
1.29308
1.29311
1.29313
1.29316
1.29318
1.29321
1.29322
1.29326
1.29317
1.29304
1.29317
1.29317
1.29315
1.29313
1.29311
1.29308
1.29306
1.29304
1.29305
1.29307
1.2931
1.29312
1.29316
1.29316
1.29319
1.29317
1.29326
1.29311
1.29317
1.29317
1.29316
1.29315
1.29313
1.29311
1.29308
1.29306
1.29305
1.29306
1.29308
1.29311
1.29313
1.29316
1.29316
1.29317
1.29319
1.2932
1.29313
1.29327
1.29317
1.29316
1.29314
1.29313
1.29311
1.29309
1.29308
1.29307
1.29308
1.2931
1.29312
1.29314
1.29316
1.29317
1.29319
1.29334
1.29337
1.29317
1.29311
1.29316
1.29315
1.29314
1.29313
1.29312
1.2931
1.29309
1.29309
1.2931
1.29312
1.29314
1.29315
1.29318
1.29319
1.29328
1.29352
1.29348
1.29403
1.29457
1.29316
1.29315
1.29314
1.29313
1.29313
1.29312
1.29311
1.29311
1.29312
1.29314
1.29315
1.29317
1.29321
1.29327
1.29341
1.29354
1.29344
1.29426
1.29424
1.29316
1.29315
1.29313
1.29313
1.29314
1.29313
1.29312
1.29313
1.29315
1.29316
1.29318
1.29321
1.29323
1.29324
1.29324
1.2933
1.2933
1.29377
1.29487
1.29315
1.29314
1.29313
1.29313
1.29314
1.29314
1.29314
1.29315
1.29317
1.29318
1.2932
1.29321
1.29319
1.29312
1.29308
1.29305
1.29305
1.29306
1.29351
1.29315
1.29314
1.29312
1.29312
1.29314
1.29315
1.29315
1.29316
1.29318
1.29318
1.29318
1.29316
1.29311
1.29296
1.29295
1.29301
1.29299
1.29289
1.29263
1.29315
1.29315
1.29313
1.29312
1.29313
1.29315
1.29315
1.29316
1.29317
1.29317
1.29317
1.2931
1.29297
1.29265
1.29262
1.29276
1.29293
1.29288
1.29257
1.29315
1.29314
1.29313
1.29312
1.29312
1.29314
1.29315
1.29316
1.29316
1.29316
1.29313
1.29287
1.29262
1.29254
1.29251
1.29256
1.29281
1.29287
1.29256
1.29315
1.29315
1.29316
1.29315
1.29314
1.29314
1.29314
1.29314
1.29314
1.29311
1.29293
1.29265
1.29257
1.29253
1.29249
1.29253
1.29271
1.29285
1.29256
)
;

boundaryField
{
    leftWall
    {
        type            calculated;
        value           nonuniform List<scalar> 
50
(
1.30289
1.30213
1.30136
1.30058
1.29981
1.29901
1.29822
1.29741
1.29617
1.29451
1.29358
1.29337
1.2933
1.29327
1.29327
1.29326
1.29326
1.29326
1.29326
1.29325
1.29325
1.29325
1.29324
1.29324
1.29324
1.29323
1.29323
1.29322
1.29322
1.29321
1.2932
1.29319
1.29317
1.29315
1.29314
1.29312
1.29311
1.2931
1.2931
1.29309
1.29308
1.29308
1.29308
1.29308
1.29308
1.29308
1.29308
1.29308
1.29308
1.29307
)
;
    }
    rightWall
    {
        type            calculated;
        value           nonuniform List<scalar> 
50
(
1.35315
1.34348
1.33355
1.325
1.31812
1.31392
1.31207
1.31188
1.31176
1.31165
1.31155
1.31145
1.3115
1.31243
1.31386
1.31611
1.31355
1.30982
1.30491
1.30067
1.29853
1.29692
1.29562
1.29431
1.29348
1.29253
1.29209
1.2919
1.29199
1.29225
1.29298
1.29298
1.29302
1.29305
1.29308
1.29307
1.29304
1.29301
1.29304
1.29317
1.29327
1.29311
1.29457
1.29424
1.29487
1.29351
1.29263
1.29257
1.29256
1.29256
)
;
    }
    lowerWall
    {
        type            calculated;
        value           nonuniform List<scalar> 
62
(
1.30326
1.30327
1.30329
1.30331
1.30335
1.30341
1.30347
1.30357
1.3037
1.30382
1.30405
1.30425
1.30459
1.30489
1.30535
1.30577
1.30638
1.30689
1.30763
1.30817
1.30891
1.30933
1.30972
1.30934
1.30862
1.30793
1.30727
1.30667
1.30607
1.30549
1.30503
1.30349
1.3078
1.30838
1.31265
1.30651
1.30651
1.30651
1.30651
1.3065
1.3065
1.3065
1.30654
1.30651
1.30651
1.30651
1.30651
1.30652
1.30651
1.30652
1.30651
1.30652
1.30653
1.30662
1.30681
1.30704
1.30737
1.30834
1.30955
1.31111
1.31635
1.35324
)
;
    }
    atmosphere
    {
        type            calculated;
        value           nonuniform List<scalar> 
46
(
1.29317
1.29317
1.29317
1.29317
1.29317
1.29317
1.29317
1.29317
1.29317
1.29317
1.29317
1.29317
1.29317
1.29317
1.29317
1.29317
1.29317
1.29317
1.29318
1.29319
1.2932
1.29321
1.29323
1.29325
1.29325
1.29325
1.29325
1.29324
1.29324
1.29325
1.29324
1.29323
1.29323
1.29324
1.29324
1.29323
1.2932
1.29302
1.29274
1.29266
1.29262
1.29259
1.29262
1.2928
1.29294
1.29264
)
;
    }
    defaultFaces
    {
        type            empty;
    }
}


// ************************************************************************* //
