/*--------------------------------*- C++ -*----------------------------------*\
| =========                 |                                                 |
| \\      /  F ield         | OpenFOAM: The Open Source CFD Toolbox           |
|  \\    /   O peration     | Version:  2012                                  |
|   \\  /    A nd           | Website:  www.openfoam.com                      |
|    \\/     M anipulation  |                                                 |
\*---------------------------------------------------------------------------*/
FoamFile
{
    version     2.0;
    format      ascii;
    class       volScalarField;
    location    "0.45";
    object      rhogh;
}
// * * * * * * * * * * * * * * * * * * * * * * * * * * * * * * * * * * * * * //

dimensions      [1 -1 -2 0 0 0 0];


internalField   nonuniform List<scalar> 
2268
(
-29.4294
-29.4294
-29.4294
-29.4294
-29.4294
-29.4294
-29.4294
-29.4294
-29.4294
-29.4294
-29.4294
-29.4294
-29.4294
-29.4294
-29.4294
-29.4294
-29.4294
-29.4294
-29.4294
-29.4294
-29.4294
-29.4294
-29.4164
-88.2881
-88.2881
-88.2881
-88.2881
-88.2881
-88.2881
-88.2881
-88.2881
-88.2881
-88.2881
-88.2881
-88.2881
-88.2881
-88.2881
-88.2881
-88.2881
-88.2881
-88.2881
-88.2881
-88.2881
-88.2881
-88.2881
-88.2492
-147.147
-147.147
-147.147
-147.147
-147.147
-147.147
-147.147
-147.147
-147.147
-147.147
-147.147
-147.147
-147.147
-147.147
-147.147
-147.147
-147.147
-147.147
-147.147
-147.147
-147.147
-147.147
-147.102
-206.006
-206.006
-206.006
-206.006
-206.006
-206.006
-206.006
-206.006
-206.006
-206.006
-206.006
-206.006
-206.006
-206.006
-206.006
-206.006
-206.006
-206.006
-206.006
-206.006
-206.006
-206.006
-206.003
-264.864
-264.864
-264.864
-264.864
-264.864
-264.864
-264.864
-264.864
-264.864
-264.864
-264.864
-264.864
-264.864
-264.864
-264.864
-264.864
-264.864
-264.864
-264.864
-264.864
-264.864
-264.864
-264.864
-323.723
-323.723
-323.723
-323.723
-323.723
-323.723
-323.723
-323.723
-323.723
-323.723
-323.723
-323.723
-323.723
-323.723
-323.723
-323.723
-323.723
-323.723
-323.723
-323.723
-323.723
-323.723
-323.723
-382.582
-382.582
-382.582
-382.582
-382.582
-382.582
-382.582
-382.582
-382.582
-382.582
-382.582
-382.582
-382.582
-382.582
-382.582
-382.582
-382.582
-382.582
-382.582
-382.582
-382.582
-382.582
-382.546
-441.44
-441.44
-441.44
-441.44
-441.44
-441.44
-441.44
-441.44
-441.44
-441.44
-441.44
-441.44
-441.44
-441.44
-441.44
-441.44
-441.44
-441.44
-441.44
-441.44
-441.44
-441.44
-441.182
-3.72455e-20
-6.5955e-19
-1.5897e-17
-3.36029e-18
-2.07174e-18
-1.85197e-17
-2.89558e-15
-2.01569e-13
-6.35129e-12
-1.08248e-10
-1.01662e-09
-3.71026e-09
-4.9399e-09
-4.94004e-09
-5.45238e-08
-0.000597758
-0.100024
-3.57981
-7.03218
-4.67078e-18
-1.68313e-16
-3.40478e-15
-8.28531e-16
-2.52574e-16
-1.2576e-16
-1.08455e-14
-6.90056e-13
-1.96474e-11
-3.01418e-10
-2.58236e-09
-1.18822e-08
-1.86847e-08
-1.482e-08
-1.25003e-06
-0.000343712
-0.0641386
-10.5894
-53.573
-5.36465e-16
-1.36386e-14
-1.65477e-13
-5.221e-14
-1.36941e-14
-2.51128e-15
-2.09793e-14
-1.65797e-12
-5.53668e-11
-9.3505e-10
-8.07235e-09
-3.87837e-08
-1.23056e-07
-5.25242e-07
-6.62243e-06
-0.00012774
-0.0301737
-8.66338
-89.2877
-2.34534e-14
-5.03611e-13
-3.10301e-12
-1.47585e-12
-3.8669e-13
-5.78461e-14
-3.51876e-14
-1.82961e-12
-6.57163e-11
-1.22181e-09
-1.1559e-08
-6.03483e-08
-1.8323e-07
-9.40569e-07
-1.65074e-05
-0.000322471
-0.00447547
-5.61911
-125.004
-2.06988e-12
-1.50459e-11
-2.42862e-11
-1.90937e-11
-7.84512e-12
-9.14517e-13
-2.39065e-13
-1.11409e-12
-4.5558e-11
-1.03208e-09
-1.14559e-08
-6.61057e-08
-1.86713e-07
-1.30364e-06
-5.42077e-05
-0.000136118
-0.000251909
-2.718
-160.718
-4.68192e-11
-2.09305e-10
-5.29572e-11
-7.83139e-11
-1.64037e-10
-1.46248e-11
-2.52387e-12
-1.04926e-12
-2.3058e-11
-5.60206e-10
-7.56586e-09
-5.76936e-08
-2.64675e-07
-2.8088e-06
-1.14327e-05
-6.8907e-09
-1.02808e-06
-0.845429
-196.434
-3.19482e-10
-3.87131e-10
-2.00808e-08
-4.81829e-08
-9.80628e-07
-1.72835e-11
-1.79413e-11
-3.01992e-12
-1.15096e-11
-2.58519e-10
-3.68797e-09
-3.58298e-08
-2.62683e-07
-1.78479e-06
-5.47075e-07
-5.31245e-08
-6.58221e-08
1.3645e-27
-232.127
-2.95242e-10
-2.95249e-10
-0.017809
-0.0168579
-0.00263103
-6.41763e-05
-1.62138e-08
-8.92492e-11
-1.6289e-11
-1.12992e-10
-1.46786e-09
-1.70612e-08
-1.54295e-07
-5.3834e-07
-3.30973e-07
-1.15752e-07
-1.63173e-07
-2.43351e-26
-167.676
-533.341
-533.333
-533.345
-533.35
-533.357
-533.367
-533.389
-533.402
-533.424
-533.441
-533.455
-533.463
-533.466
-533.467
-533.467
-533.467
-533.467
-533.467
-533.467
-533.467
-533.467
-533.467
-533.054
-588.452
-587.018
-589.436
-590.452
-592.105
-594.811
-600.543
-605.001
-613.426
-622.197
-632.868
-642.855
-650.241
-654.333
-657.103
-658.662
-658.662
-658.662
-658.662
-658.662
-658.662
-658.662
-658.189
-161.649
-160.181
-163.428
-164.793
-167.819
-172.672
-182.689
-191.659
-209.761
-231.934
-265.761
-311.325
-380.427
-470.021
-564.272
-663.409
-768.918
-783.856
-783.856
-783.856
-783.856
-783.856
-783.804
-1.58134e-33
-1.68429e-33
-6.90434e-34
3.26735e-30
-3.07491e-30
-6.86427e-29
-6.55962e-28
-2.16826e-28
1.39818e-28
4.32148e-29
2.525e-25
2.10802e-25
3.7476e-24
-4.55656
-35.629
-89.384
-189.939
-380.349
-660.198
-896.563
-909.051
-909.051
-909.051
-1.09655e-15
-6.29074e-14
-2.0203e-12
-4.01598e-11
-5.33749e-10
-5.42039e-09
-1.09486e-08
-7.62195e-09
-2.3738e-09
1.26702e-28
-4.16829e-06
-6.28245e-06
-2.59091e-05
-2.33685e-23
1.16777e-23
1.31083e-25
-1.39614
-10.5979
-68.4463
-197.902
-444.556
-785.399
-1021.8
-4.25615e-15
-2.4334e-13
-7.69773e-12
-1.45467e-10
-1.93271e-09
-2.02937e-08
-3.69993e-08
-4.37879e-08
-2.01295e-08
1.54673e-27
-0.000124905
-0.000914475
-0.00183059
-0.0015735
-0.00078271
-1.56643e-05
-2.17328e-06
-0.0144233
-0.325461
-2.9249
-12.7696
-83.7965
-269.36
-6.19109e-15
-3.48058e-13
-1.08463e-11
-1.98048e-10
-2.5869e-09
-2.74419e-08
-4.63548e-08
-9.42937e-08
-1.04434e-07
-1.0604e-26
-0.000497655
-0.00315494
-0.00315425
-0.00315494
-0.00154271
-2.35474e-05
-2.40794e-06
-2.40795e-06
-1.91804e-05
-0.000553021
-0.0198437
-0.611068
-6.71976
-6.95121e-15
-3.86617e-13
-1.19045e-11
-2.11817e-10
-2.6338e-09
-2.85708e-08
-3.64498e-08
-1.56182e-07
-4.73386e-07
-1.81126e-24
-0.0005636
-0.00202066
-0.0020778
-0.000694026
-2.05306e-05
-5.03715e-05
-4.94529e-05
-1.19829e-05
-3.09252e-06
-0.000204749
-0.000655078
-0.0016656
-0.00657018
-6.10638e-15
-3.23967e-13
-9.41256e-12
-1.54017e-10
-1.62946e-09
-1.83339e-08
-1.38826e-08
-2.64774e-07
-1.58083e-06
-8.05296e-06
-1.3638e-05
-2.0061e-08
-2.00644e-08
-2.0061e-08
-2.00644e-08
-6.06195e-05
-8.06388e-05
-5.3719e-05
-3.37572e-06
-0.000316459
-0.00161127
-0.0079251
-0.0101868
-3.31473e-15
-1.6848e-13
-4.69562e-12
-7.41326e-11
-7.296e-10
-8.02627e-09
-2.68297e-09
-3.50892e-07
-2.71972e-06
-1.77341e-05
-1.48968e-07
-9.47515e-08
-1.51504e-07
-8.10496e-07
-5.99322e-08
-7.69024e-06
-6.68518e-05
-6.28199e-05
-1.23951e-05
-1.0373e-10
-1.00647e-10
-0.000327255
-0.0018042
-1.4154e-15
-7.00248e-14
-1.90524e-12
-2.93727e-11
-2.77733e-10
-2.95367e-09
-8.34041e-10
-3.93696e-07
-2.19711e-06
-2.06415e-06
-7.75385e-07
-2.51924e-07
-3.599e-07
-1.56418e-06
-1.86898e-06
-5.53317e-07
-3.12205e-07
-2.38048e-06
-4.94722e-06
-1.82281e-06
-2.71878e-07
-1.19915e-08
-1.20352e-08
-4.9558e-16
-2.40243e-14
-6.43047e-13
-9.76208e-12
-9.21464e-11
-9.09557e-10
-8.92525e-10
-1.64691e-07
-7.06946e-07
-4.18584e-07
-3.4941e-07
-2.4457e-07
-3.22453e-07
-8.8664e-07
-1.48594e-06
-1.01429e-06
-3.47154e-07
-2.77772e-07
-2.77649e-07
-3.37184e-07
-2.70876e-07
-1.2335e-07
-5.38191e-08
-1.41473e-16
-6.69754e-15
-1.76451e-13
-2.64915e-12
-2.55351e-11
-2.16045e-10
-9.15971e-10
-5.07751e-08
-7.78688e-08
-1.18843e-07
-1.15655e-07
-8.96292e-08
-1.00309e-07
-1.82382e-07
-3.23892e-07
-5.77295e-07
-6.53588e-07
-6.51695e-07
-5.81113e-07
-4.40439e-07
-2.58307e-07
-1.4349e-07
-7.74006e-08
-3.2655e-17
-1.52592e-15
-3.99398e-14
-6.00603e-13
-6.00345e-12
-4.80074e-11
-5.13717e-10
-7.87315e-09
-1.86666e-08
-2.58229e-08
-2.49453e-08
-1.94175e-08
-2.21044e-08
-3.17502e-08
-5.30616e-08
-1.03409e-07
-1.56973e-07
-1.43425e-07
-1.32613e-07
-1.10959e-07
-7.34612e-08
-4.18016e-08
-2.79458e-08
-6.01348e-18
-2.79597e-16
-7.338e-15
-1.12277e-13
-1.18316e-12
-9.70459e-12
-1.78442e-10
-8.02749e-10
-2.257e-09
-3.0505e-09
-2.95996e-09
-2.68059e-09
-3.47753e-09
-5.98192e-09
-1.04474e-08
-1.40293e-08
-1.59717e-08
-1.67605e-08
-1.65563e-08
-1.50238e-08
-1.15873e-08
-7.36428e-09
-4.71555e-09
-8.65769e-19
-4.06818e-17
-1.08956e-15
-1.7358e-14
-1.9639e-13
-1.69751e-12
-3.79426e-11
-8.83165e-11
-1.25499e-10
-1.30443e-10
-1.45994e-10
-2.47886e-10
-5.7819e-10
-1.20029e-09
-1.84865e-09
-2.11752e-09
-2.22209e-09
-2.22053e-09
-2.11289e-09
-1.84832e-09
-1.41913e-09
-9.25198e-10
-5.86528e-10
-9.44796e-20
-4.56321e-18
-1.27237e-16
-2.15614e-15
-2.64355e-14
-2.35476e-13
-4.65819e-12
-1.1575e-11
-1.25197e-11
-1.07438e-11
-1.32778e-11
-3.36078e-11
-9.70383e-11
-2.11386e-10
-2.9874e-10
-3.26855e-10
-3.30336e-10
-3.16426e-10
-2.76479e-10
-2.11567e-10
-1.38882e-10
-8.50434e-11
-5.17606e-11
-7.49548e-21
-3.87934e-19
-1.16646e-17
-2.15769e-16
-2.87211e-15
-2.57011e-14
-3.06404e-13
-9.52205e-13
-1.27114e-12
-1.28661e-12
-1.828e-12
-4.67598e-12
-1.24021e-11
-2.44269e-11
-3.14064e-11
-3.31372e-11
-3.28136e-11
-3.03025e-11
-2.49216e-11
-1.74268e-11
-1.05971e-11
-5.40133e-12
-4.15255e-12
-4.03853e-22
-2.32859e-20
-7.77652e-19
-1.58333e-17
-2.24474e-16
-1.99184e-15
-1.34263e-14
-3.22264e-14
-4.23298e-14
-5.95479e-14
-1.39848e-13
-4.16723e-13
-1.01651e-12
-1.68493e-12
-1.94843e-12
-2.00035e-12
-1.96712e-12
-1.81914e-12
-1.53332e-12
-1.13167e-12
-6.09747e-13
-3.90235e-13
-6.75642e-13
-1.34012e-23
-9.25091e-22
-3.56684e-20
-8.0259e-19
-1.19161e-17
-1.02559e-16
-5.58391e-16
-1.09431e-15
-1.73568e-15
-3.53433e-15
-1.05689e-14
-3.0005e-14
-5.87545e-14
-6.89477e-14
-7.07624e-14
-7.11661e-14
-7.11298e-14
-6.92894e-14
-6.35542e-14
-5.05855e-14
-2.97553e-14
-4.20857e-14
-3.8879e-13
-2.44454e-25
-1.99358e-23
-8.71785e-22
-2.10141e-20
-3.18624e-19
-2.62992e-18
-1.07222e-17
-2.72118e-17
-6.91992e-17
-2.06242e-16
-6.3816e-16
-1.58269e-15
-2.0769e-15
-2.02558e-15
-1.83687e-15
-1.84852e-15
-1.97422e-15
-2.0085e-15
-1.89785e-15
-1.38539e-15
-1.59634e-15
-1.77401e-14
-4.48316e-13
-3.64254e-27
-1.97722e-25
-6.33524e-24
-1.33325e-22
-2.29589e-21
-2.64812e-20
-1.59324e-19
-7.18603e-19
-2.95006e-18
-1.02426e-17
-2.82356e-17
-5.82056e-17
-6.92843e-17
-6.74205e-17
-5.96845e-17
-5.31146e-17
-4.97574e-17
-4.5898e-17
-3.54421e-17
-3.68416e-17
-4.06313e-16
-1.78941e-14
-6.44097e-13
-1.50072e-28
-8.47525e-27
-2.74563e-25
-5.68378e-24
-9.41995e-23
-1.08099e-21
-6.68502e-21
-3.0192e-20
-1.17251e-19
-3.73515e-19
-8.84324e-19
-1.62836e-18
-1.94689e-18
-1.93523e-18
-1.70579e-18
-1.176e-18
-6.42139e-19
-2.88937e-19
-3.29177e-19
-4.76772e-18
-3.4926e-16
-2.05984e-14
-7.35083e-13
-3.01188e-30
-1.74281e-28
-5.53986e-27
-1.05776e-25
-1.43904e-24
-1.37407e-23
-1.01576e-22
-5.61552e-22
-2.37987e-21
-7.47228e-21
-1.69144e-20
-3.35171e-20
-4.61527e-20
-4.72149e-20
-4.25606e-20
-2.99045e-20
-1.15001e-20
-7.73373e-21
-6.23026e-20
-2.70711e-18
-3.25479e-16
-2.09976e-14
-7.31537e-13
-1.13381e-35
-4.51352e-34
-9.65294e-33
-1.21619e-31
-1.00939e-30
-3.72333e-30
-1.03883e-29
-6.71137e-29
-4.27197e-28
-1.89495e-27
-5.87106e-27
-1.46358e-26
-2.12611e-26
-2.0145e-26
-2.28154e-26
-4.05452e-25
-2.05044e-23
-8.04552e-22
-2.56632e-20
-1.51406e-18
-2.38475e-16
-1.55533e-14
-4.91408e-13
-7.21147e-40
-3.89052e-38
-1.19195e-36
-2.39819e-35
-3.85216e-34
-5.69118e-33
-1.57283e-31
-2.5659e-30
-1.91803e-29
-8.90469e-29
-2.78086e-28
-6.89542e-28
-9.62501e-28
-9.07092e-28
-2.141e-27
-1.15637e-25
-6.48243e-24
-2.77333e-22
-1.02017e-20
-7.56205e-19
-1.12208e-16
-7.10532e-15
-2.16948e-13
-3.44296e-43
-1.82532e-41
-5.24953e-40
-9.4191e-39
-1.20731e-37
-1.1431e-36
-8.38201e-36
-4.87663e-35
-2.25268e-34
-8.90073e-34
-3.06274e-33
-2.1151e-32
-7.8079e-32
-2.85355e-30
-3.20265e-28
-2.95593e-26
-1.79838e-24
-8.52137e-23
-3.69132e-21
-3.23274e-19
-4.36447e-17
-2.71991e-15
-8.31412e-14
-8.90773e-49
-6.21231e-47
-2.36657e-45
-5.79079e-44
-1.03337e-42
-1.41638e-41
-1.54846e-40
-1.40855e-39
-1.04407e-38
-6.74202e-38
-4.04809e-37
-1.55889e-35
-2.77887e-33
-4.94565e-31
-6.43313e-29
-6.5843e-27
-4.34303e-25
-2.32402e-23
-1.2023e-21
-1.15662e-19
-1.40141e-17
-8.70395e-16
-2.69083e-14
-2.62853e-52
-2.0171e-50
-8.38641e-49
-2.27215e-47
-4.53281e-46
-7.16573e-45
-9.28313e-44
-1.04133e-42
-9.75536e-42
-9.79789e-41
-6.03831e-39
-1.58784e-36
-3.59258e-34
-7.33595e-32
-1.07925e-29
-1.23042e-27
-8.87617e-26
-5.50057e-24
-3.43201e-22
-3.36057e-20
-3.53362e-18
-2.18186e-16
-7.25606e-15
-9.90006e-59
-9.6299e-57
-5.57192e-55
-2.34123e-53
-7.72113e-52
-2.06735e-50
-4.48999e-49
-1.38158e-47
-2.87113e-45
-1.16694e-42
-4.13023e-40
-1.39508e-37
-3.7106e-35
-8.78075e-33
-1.48815e-30
-1.90935e-28
-1.53056e-26
-1.12863e-24
-8.54337e-23
-7.98981e-21
-6.90582e-19
-4.14541e-17
-2.29304e-15
-5.34754e-64
-8.74837e-62
-7.89211e-60
-4.81657e-58
-2.2178e-56
-1.19518e-54
-3.00626e-52
-1.72292e-49
-9.23212e-47
-4.71885e-44
-2.05636e-41
-8.44352e-39
-2.74707e-36
-7.72107e-34
-1.55728e-31
-2.29919e-29
-2.10407e-27
-1.90613e-25
-1.7749e-23
-1.57936e-21
-1.10653e-19
-6.81408e-18
-1.7331e-15
-3.19026e-68
-7.76084e-66
-1.0014e-63
-8.7986e-62
-8.06744e-60
-3.03289e-57
-2.46557e-54
-2.0541e-51
-1.50771e-48
-1.0525e-45
-6.21887e-43
-3.32879e-40
-1.39359e-37
-4.79922e-35
-1.18729e-32
-2.0802e-30
-2.26136e-28
-2.6358e-26
-3.21519e-24
-3.38281e-22
-3.31051e-20
-3.89865e-18
-2.80384e-15
-8.60037e-73
-3.14967e-70
-6.62139e-68
-1.40006e-65
-8.05257e-63
-9.76775e-60
-1.17924e-56
-1.37135e-53
-1.41426e-50
-1.38011e-47
-1.13128e-44
-8.21904e-42
-4.64488e-39
-2.17215e-36
-7.55513e-34
-1.90822e-31
-3.44967e-29
-7.06247e-27
-1.52583e-24
-2.90016e-22
-8.33726e-20
-1.90252e-17
-7.53324e-15
-1.38339e-76
-6.71461e-74
-2.88623e-71
-3.71221e-68
-1.13669e-64
-3.17644e-61
-7.34176e-58
-1.37576e-54
-2.24289e-51
-3.18689e-48
-4.09459e-45
-4.13534e-42
-3.37988e-39
-2.08603e-36
-1.0405e-33
-3.92814e-31
-1.30467e-28
-3.92751e-26
-1.07067e-23
-2.31087e-21
-7.51689e-19
-1.50125e-16
-3.1923e-14
-1.32181e-78
-1.10053e-74
-8.4825e-71
-4.43884e-67
-1.66851e-63
-4.79353e-60
-1.11057e-56
-2.06183e-53
-3.26889e-50
-4.39351e-47
-5.29825e-44
-5.21735e-41
-4.22015e-38
-2.59498e-35
-1.28116e-32
-4.74339e-30
-1.4917e-27
-4.28982e-25
-1.11418e-22
-2.24592e-20
-6.51155e-18
-1.12722e-15
-1.83785e-13
-1.1137e-77
-1.73352e-73
-1.29233e-69
-6.52222e-66
-2.43612e-62
-6.98806e-59
-1.60986e-55
-2.96178e-52
-4.56333e-49
-5.79848e-46
-6.45553e-43
-6.10508e-40
-4.82134e-37
-2.94542e-34
-1.4383e-31
-5.26718e-29
-1.5848e-26
-4.34677e-24
-1.0681e-21
-2.03974e-19
-5.31607e-17
-8.1543e-15
-1.08996e-12
-1.76481e-76
-2.54448e-72
-1.87982e-68
-9.51478e-65
-3.56641e-61
-1.02731e-57
-2.36094e-54
-4.31021e-51
-6.4621e-48
-7.81126e-45
-8.05145e-42
-7.17206e-39
-5.39385e-36
-3.2114e-33
-1.53615e-30
-5.59499e-28
-1.6522e-25
-4.31402e-23
-9.87885e-21
-1.83133e-18
-4.48345e-16
-6.10603e-14
-3.65122e-12
-2.684e-75
-3.86655e-71
-2.87144e-67
-1.46728e-63
-5.54476e-60
-1.60713e-56
-3.6783e-53
-6.63645e-50
-9.6534e-47
-1.12334e-43
-1.09526e-40
-9.09147e-38
-6.3271e-35
-3.56061e-32
-1.62731e-29
-5.90676e-27
-1.7799e-24
-4.46668e-22
-9.46788e-20
-1.58992e-17
-1.86929e-15
-1.39019e-13
-6.22586e-12
-4.38596e-74
-6.45425e-70
-4.90381e-66
-2.54267e-62
-9.68648e-59
-2.81289e-55
-6.35944e-52
-1.12323e-48
-1.57684e-45
-1.80067e-42
-1.69519e-39
-1.31163e-36
-8.3286e-34
-4.32299e-31
-1.82973e-28
-6.21734e-26
-1.66483e-23
-3.28078e-21
-4.78346e-19
-5.25034e-17
-4.28057e-15
-2.49132e-13
-9.72382e-12
-8.13578e-73
-1.24241e-68
-9.72382e-65
-5.11142e-61
-1.9503e-57
-5.62069e-54
-1.24155e-50
-2.12549e-47
-2.83706e-44
-2.96076e-41
-2.42731e-38
-1.56029e-35
-7.89395e-33
-3.14309e-30
-9.86223e-28
-2.4451e-25
-4.78799e-23
-7.51706e-21
-9.37677e-19
-9.09067e-17
-6.61961e-15
-3.47383e-13
-1.24252e-11
-1.40008e-71
-2.10179e-67
-1.57361e-63
-7.66678e-60
-2.65974e-56
-6.85077e-53
-1.33434e-49
-1.98513e-46
-2.26778e-43
-1.99435e-40
-1.35604e-37
-7.13423e-35
-2.91589e-32
-9.28231e-30
-2.3081e-27
-4.51089e-25
-6.97124e-23
-8.58718e-21
-8.54112e-19
-6.83313e-17
-4.37163e-15
-2.19014e-13
-8.32017e-12
-5.17881e-71
-7.51446e-67
-5.39195e-63
-2.48924e-59
-8.10659e-56
-1.94757e-52
-3.53077e-49
-4.90241e-46
-5.25538e-43
-4.37838e-40
-2.8473e-37
-1.45139e-34
-5.81237e-32
-1.83667e-29
-4.58007e-27
-9.06699e-25
-1.42507e-22
-1.78851e-20
-1.79371e-18
-1.44602e-16
-9.32991e-15
-4.77199e-13
-1.86877e-11
-533.054
-533.339
-533.428
-450.04
-658.152
-658.49
-658.614
-654.423
-783.666
-783.652
-783.685
-783.702
-909.051
-909.029
-909.026
-909.035
-1034.25
-1034.25
-1034.25
-1034.25
-440.246
-569.159
-733.577
-970.293
-14.7026
-25.0762
-46.5315
-81.5369
-0.0183144
-0.0213016
-0.012584
-0.00985602
-0.0101894
-0.00505356
-0.00872808
-0.019923
-0.000786042
-0.00031202
-0.0166938
-0.0667595
-0.000273273
-0.000335509
-2.13873e-09
-0.00402856
-2.28719e-09
-2.2887e-09
-2.28719e-09
-2.2887e-09
-2.53735e-08
-9.50771e-09
-5.83864e-09
-2.967e-09
-2.22121e-08
-1.86841e-08
-1.54082e-08
-1.20356e-08
-3.37486e-09
-2.82217e-09
-2.27282e-09
-1.90795e-09
-4.19922e-10
-3.4393e-10
-2.92382e-10
-2.31638e-10
-3.69137e-11
-3.11975e-11
-3.04074e-11
-3.17484e-11
-4.30041e-12
-4.89242e-12
-6.41369e-12
-9.63671e-12
-1.21163e-12
-2.03195e-12
-3.67907e-12
-7.05462e-12
-9.59982e-13
-1.80171e-12
-3.59142e-12
-8.43723e-12
-1.19561e-12
-2.40905e-12
-5.57544e-12
-1.72389e-11
-1.7694e-12
-3.79723e-12
-1.01564e-11
-3.92876e-11
-2.04785e-12
-4.59453e-12
-1.36453e-11
-5.90511e-11
-2.06623e-12
-4.79272e-12
-1.50851e-11
-6.55551e-11
-1.45019e-12
-3.75015e-12
-1.35827e-11
-5.28639e-11
-6.59688e-13
-1.86414e-12
-7.96808e-12
-3.70981e-11
-2.65244e-13
-8.91461e-13
-5.47647e-12
-3.54296e-11
-1.00321e-13
-6.02238e-13
-6.52576e-12
-7.7162e-11
-5.41117e-14
-7.99992e-13
-1.79658e-11
-2.76969e-10
-6.13935e-14
-2.27934e-12
-5.8225e-11
-8.67104e-10
-1.45173e-13
-6.0566e-12
-1.38964e-10
-1.67278e-09
-3.13986e-13
-1.16261e-11
-2.33049e-10
-2.42967e-09
-6.36979e-13
-2.08273e-11
-3.58935e-10
-3.22916e-09
-1.88264e-12
-4.70791e-11
-6.30225e-10
-5.19971e-09
-7.80523e-12
-1.54812e-10
-1.73794e-09
-1.68409e-08
-3.40328e-11
-4.42425e-10
-4.21059e-09
-3.6436e-08
-8.08871e-11
-8.49138e-10
-6.93041e-09
-5.40032e-08
-1.2012e-10
-1.11467e-09
-7.81391e-09
-4.92872e-08
-1.73786e-10
-1.49906e-09
-9.8408e-09
-6.36876e-08
-2.09327e-10
-1.65345e-09
-8.93005e-09
-3.76804e-08
-1.67172e-10
-1.66701e-09
-1.11239e-08
-4.43843e-08
-3.88971e-10
-3.85125e-09
-2.50848e-08
-1.06611e-07
-45.574
-41.33
-20.862
-2.55393
-0.0785396
-3.59383e-05
-7.2004e-09
-9.24634e-10
-1.08751e-10
-1.45866e-10
-7.08247e-10
-5.7388e-09
-4.68047e-08
-1.47869e-07
-1.55859e-07
-1.11148e-07
-3.28587e-07
1.38316e-25
-140.515
-623.681
-594.926
-387.965
-41.1089
-0.510297
-0.000486344
-3.21746e-08
-2.62216e-08
-1.80845e-08
-1.80098e-10
-1.80089e-10
-1.80225e-10
-1.0409e-08
-3.72952e-08
-4.78746e-08
-1.71022e-07
-1.77158e-06
-7.46283e-25
-243.478
-783.694
-783.855
-747.417
-286.109
-10.8176
-0.020461
-4.3385e-06
-9.57075e-08
-1.78388e-07
-7.99478e-07
-1.74107e-06
-8.81102e-07
-1.01187e-07
-6.29763e-09
-3.071e-09
-6.89512e-06
-2.54662e-05
1.37939e-25
-522.02
-909.044
-909.049
-909.051
-719.956
-111.076
-1.47393
-0.0105798
-1.24511e-07
-1.64094e-07
-1.31303e-06
-4.24025e-06
-4.24024e-06
-2.36146e-06
-4.56063e-07
-4.19226e-05
-6.3123e-05
-5.95196e-05
2.20991e-23
-703.109
-1034.25
-1034.25
-1034.25
-1034.25
-720.442
-69.7198
-1.40894e-08
-1.40913e-08
-6.38692e-08
-5.79496e-07
-2.10619e-06
-2.90402e-06
-1.94203e-06
-2.46893e-06
-2.01429e-05
-6.3899e-05
-1.83131e-05
-3.83613e-17
-838.83
-1128.59
-1156.13
-1159.44
-1159.44
-1159.44
-917.546
-338.84
-3.84216e-13
-3.86923e-13
-3.84169e-13
-3.86959e-13
-3.84169e-13
-3.86959e-13
-3.84169e-13
-3.86933e-13
-3.84239e-13
-3.86872e-13
-46.3323
-996.9
-198.638
-545.174
-1110.52
-1273.55
-1284.63
-1283.69
-1199.88
-955.947
-530.962
-297.48
-245.082
-218.464
-183.893
-157.007
-143.577
-123.498
-143.168
-653.513
-1232.72
-0.00985705
-12.7508
-112.716
-411.204
-964.304
-1371.58
-1409.71
-1409.71
-1389.58
-1340.32
-1296.78
-1264.08
-1223.95
-1189.12
-1167.18
-1113.11
-1145.63
-1318
-1398.41
-0.0221744
-6.26894e-05
-6.26827e-05
-1.10947
-71.2559
-300.249
-698.572
-1138.89
-1343.44
-1397.26
-1429.46
-1457.58
-1496.18
-1527.43
-1527.43
-1527.43
-1526.89
-1526.89
-1526.89
-0.0667676
-0.0423068
-0.00201557
-1.54197e-07
-1.54203e-07
-3.26607
-24.0221
-111.414
-268.079
-418.892
-509.352
-590.051
-685.055
-840.955
-1090.46
-1462.31
-1649.63
-1651.42
-1651.42
-0.0639603
-0.0682493
-0.0271377
-8.29825e-05
-1.65825e-07
-3.99252e-06
-0.00130702
-0.214105
-1.38537
-3.68499
-6.80845
-11.1258
-18.6803
-31.4104
-89.1881
-532.528
-1426.47
-1755.98
-1753.37
-0.00791431
-0.0155734
-0.00913893
-0.000319922
-4.40468e-07
-1.77453e-07
-1.77453e-07
-1.7944e-07
-2.60409e-06
-0.000115211
-0.000648117
-0.0030233
-0.017716
-0.0166674
-0.0169973
-45.2833
-941.312
-1850.62
-1779.96
-1.66854e-09
-1.66836e-09
-0.000112846
-0.00012621
-1.56657e-05
-9.42401e-07
-2.30308e-07
-4.63398e-07
-2.87268e-06
-3.73991e-06
-0.00027957
-0.012613
-0.145145
-2.71102
-23.8496
-242.427
-1323.58
-2011.89
-1893.62
-4.40046e-09
-1.91685e-09
-1.94186e-09
-4.57639e-06
-4.1312e-06
-1.27206e-06
-3.10742e-07
-3.34346e-07
-2.7809e-06
-2.68025e-06
-1.70976e-05
-0.117923
-10.3136
-93.1016
-502.539
-1321.93
-1970.05
-2140.41
-2081.84
-1.23986e-09
-1.56343e-09
-1.03005e-08
-1.8107e-07
-4.87539e-07
-4.50345e-07
-2.33431e-07
-1.76211e-07
-2.56853e-06
-2.83548e-06
-4.24867e-06
-0.0553516
-38.3772
-787.68
-1816.7
-2120.16
-2236.16
-2264.4
-2264.41
-2.06967e-10
-3.81922e-10
-3.02708e-09
-3.70557e-08
-1.36373e-07
-1.36562e-07
-1.16053e-07
-1.16053e-07
-1.58364e-06
-3.7654e-06
-3.71487e-06
-0.145835
-97.1024
-1334.02
-2253.97
-2270.65
-2270.65
-1937.72
-1426.37
-6.75153e-11
-1.84838e-10
-1.28861e-09
-3.84962e-09
-4.21929e-07
-1.6037e-06
-1.38165e-06
-3.60981e-07
-4.74216e-07
-3.55466e-06
-3.32405e-06
-0.151534
-23.0441
-183.765
-920.648
-1896.3
-2375.62
-1506.15
-1115.2
-7.33455e-11
-4.64135e-10
-7.723e-09
-5.84298e-08
-1.95678e-07
-1.76535e-06
-4.24558e-06
-4.24535e-06
-1.77875e-06
-1.88553e-06
-1.54892e-06
-0.0221801
-1.27497e-06
-1.27478e-06
-1.27497e-06
-384.793
-1726.52
-1729.3
-1188.19
-1.36689e-10
-1.41955e-09
-2.51121e-08
-5.11005e-08
-8.36949e-06
-4.45862e-06
-3.19838e-06
-3.19907e-06
-3.19861e-06
-2.32426e-06
-1.61969e-06
-0.000365712
-1.33474e-06
-0.0511629
-0.231918
-7.12345
-822.295
-1462.45
-1037.32
-4.95233e-10
-1.40367e-09
-3.03132e-07
-4.768e-07
-1.64355e-08
-4.42109e-05
-0.000216419
-3.36252e-05
-1.58097e-05
-1.23693e-05
-6.928e-06
-5.6843e-06
-1.3949e-06
-0.0151675
-0.0106559
-8.69715
-336.565
-1055.24
-462.559
-2.69624e-09
-1.46403e-09
-3.84735e-07
-2.54108e-06
-1.73426e-08
-9.70053e-05
-0.00114904
-0.0011919
-0.000122947
-1.34469e-05
-9.93879e-06
-5.55726e-06
-1.31454e-05
-6.53296e-05
-1.61838e-05
-0.358095
-81.2357
-1030.01
-482.444
-4.46896e-09
-6.4203e-09
-3.9141e-09
-4.24325e-06
-1.9006e-05
-1.90052e-05
-0.00012145
-0.00230793
-0.000701063
-2.20404e-06
-2.25221e-06
-3.14365e-06
-1.87537e-05
-1.39074e-05
-1.68511e-05
-0.000927291
-0.000927779
-1052.34
-502.33
-4.53548e-09
-1.16103e-08
-4.14612e-09
-4.04192e-09
-4.654e-05
-6.07304e-05
-2.39217e-05
-2.39104e-05
-0.018272
-0.0198899
-0.000956775
-3.26858e-06
-1.23906e-05
-8.84515e-06
-8.89223e-06
-4.88693e-06
-12.1504
-663.878
-522.215
-3.68289e-09
-1.17709e-08
-1.67651e-08
-4.18842e-09
-7.67138e-06
-0.000243796
-2.80044e-05
-2.48092e-05
-0.0114401
-0.0424712
-0.0424696
-0.00416359
-4.63021e-06
-4.62705e-06
-5.57257e-06
-5.07304e-06
-0.303857
-0.041851
-817.247
-1.48425e-09
-8.60588e-09
-4.20747e-08
-3.0605e-08
-6.89964e-09
-9.26975e-05
-0.00516948
-0.00193974
-0.00194319
-0.0350983
-0.0502867
-0.0282483
-0.00331817
-3.48823e-05
-6.81343e-06
-5.25906e-06
-1.81467e-06
-0.276636
-877.679
-1.0826e-09
-1.21346e-08
-6.42067e-08
-1.28256e-07
-7.14346e-09
-0.000597603
-0.00668805
-0.00714842
-0.00288395
-0.000249633
-0.0422063
-0.0921096
-0.0136461
-0.00014217
-1.37211e-05
-5.46023e-06
-1.87888e-06
-1.08107e-07
-889.539
-1.7905e-09
-3.39804e-08
-7.22652e-08
-1.55646e-06
-1.04254e-06
-1.04285e-06
-0.00235132
-0.0073698
-0.00335055
-0.000257397
-0.0266755
-0.0952632
-0.0795673
-0.00833892
-2.3743e-05
-3.83168e-06
-1.38557e-06
-1.11801e-07
-861.567
-5.3782e-09
-6.43608e-08
-6.436e-08
-2.05029e-05
-0.000188749
-6.12428e-05
-6.12517e-05
-0.00341394
-0.00298842
-0.000275006
-0.00017047
-0.0983607
-0.098396
-0.0215387
-1.52464e-05
-1.15496e-07
-1.15496e-07
-1.15496e-07
-955.41
-1.44991e-08
-8.20573e-08
-6.64191e-08
-9.3101e-05
-0.0016227
-0.000574369
-0.000825544
-0.000175923
-0.000175894
-0.000175923
-0.000175894
-0.0827707
-0.101539
-0.0155002
-7.39701e-06
-0.00448593
-0.111312
-0.00603505
-1001.69
-2.39827e-08
-9.76784e-08
-6.87144e-08
-0.000614015
-0.00167634
-0.000891875
-0.0511809
-0.381097
-0.12425
-0.0286271
-0.00131942
-0.0276677
-0.0445817
-0.00430924
-7.63508e-06
-7.62629e-06
-0.292302
-5.81871
-996.675
-2.91381e-08
-1.13322e-07
-7.078e-08
-0.00114944
-0.00114942
-0.102283
-0.736024
-0.773361
-0.68488
-0.0463884
-0.00142086
-0.00140426
-0.000182304
-0.000329958
-0.00712166
-0.0627441
-0.374878
-2.50022
-163.665
-2.93757e-08
-1.47902e-07
-7.28462e-08
-0.00146303
-0.0162629
-0.541077
-0.795934
-0.795934
-0.795934
-0.0131914
-3.77943e-07
-6.21515e-05
-6.21527e-05
-6.21493e-05
-0.0164198
-1.28077
-12.1087
-72.2199
-30.4297
-3.35084e-08
-2.77582e-07
-1.59474e-05
-0.0014594
-0.0483565
-0.693099
-0.818507
-0.818507
-0.551163
-1.65602e-07
-3.88861e-07
-4.48803e-06
-9.46781e-05
-0.00927113
-0.0222422
-0.00438199
-352.978
-315.108
-31.3963
-7.28778e-08
-1.0268e-06
-3.60459e-05
-0.00162601
-0.0152641
-0.385177
-0.841079
-0.553445
-0.0363041
-1.70169e-07
-1.70169e-07
-3.1351e-06
-0.00412408
-0.0228556
-0.0228312
-1.52728e-07
-1055.29
-940.205
-1025.47
-2.44303e-07
-3.8556e-06
-9.47294e-05
-0.00172103
-0.0080172
-0.0595065
-0.164753
-0.0840649
-1.74736e-07
-1.74736e-07
-1.74736e-07
-0.00010805
-0.00723748
-0.0110039
-0.00151064
-1.56827e-07
-1484.59
-2235.58
-2198.02
-5.57148e-07
-1.88637e-05
-0.000218701
-0.000367871
-0.000329421
-0.000214418
-0.000626092
-0.00207141
-0.00317263
-0.0104209
-0.00899073
-0.00369177
-0.000765214
-1.60925e-07
-1.60925e-07
-7.9281
-1983.75
-2293.81
-2294
-8.44269e-07
-5.29806e-05
-0.000499033
-0.00044508
-4.50596e-05
-4.50596e-05
-4.50596e-05
-0.00339168
-0.0166864
-0.0166859
-0.0153966
-0.00071008
-0.000709812
-0.00185415
-1.65024e-07
-1.65024e-07
-737.313
-2352.43
-2283.86
-6.0305e-07
-4.75716e-05
-0.000750704
-0.000856159
-4.6179e-05
-4.61788e-05
-4.61788e-05
-0.00335714
-0.0128084
-0.0126004
-0.013783
-0.0420404
-0.080647
-0.0818876
-0.0771165
-1.69123e-07
-1.84316
-1069.06
-1221.59
-1.1196e-06
-0.000132578
-0.00111385
-0.000831295
-4.7298e-05
-4.7298e-05
-0.000588178
-0.00169615
-0.00122335
-0.00154175
-0.0228415
-0.0707679
-0.0636675
-0.0146215
-0.00527045
-1.73222e-07
-0.332024
-23.795
-65.5144
-4.23042e-07
-0.00012776
-0.0024297
-0.00289864
-4.84172e-05
-5.51319e-05
-0.000351025
-0.000221944
-4.84172e-05
-0.000654633
-0.0465449
-0.0596499
-0.00436577
-0.00436577
-0.00516885
-0.00471973
-0.0076079
-0.00770086
-0.356732
-1.48186e-07
-8.3279e-05
-0.0093367
-0.0153307
-4.95363e-05
-4.95363e-05
-4.95363e-05
-4.95363e-05
-4.95363e-05
-0.02287
-0.0572177
-0.00287884
-0.00610483
-0.00119717
-0.00194143
-0.0102055
-0.00195029
-0.00194432
-0.0265144
-4.09081e-07
-2.4454e-06
-0.00021706
-0.0238338
-0.0523812
-0.0271393
-0.00901917
-0.00478918
-0.00969834
-0.0291302
-0.0276361
6.91001e-24
-0.000148266
2.03794e-28
5.83622e-55
-0.00657641
-0.0107362
-0.00265275
-0.00014794
)
;

boundaryField
{
    leftWall
    {
        type            calculated;
        value           nonuniform List<scalar> 
50
(
-29.4294
-88.2881
-147.147
-206.006
-264.864
-323.723
-382.582
-441.44
-533.341
-588.452
-161.649
-1.58134e-33
-1.09655e-15
-4.25615e-15
-6.19109e-15
-6.95121e-15
-6.10638e-15
-3.31473e-15
-1.4154e-15
-4.9558e-16
-1.41473e-16
-3.2655e-17
-6.01348e-18
-8.65769e-19
-9.44796e-20
-7.49548e-21
-4.03853e-22
-1.34012e-23
-2.44454e-25
-3.64254e-27
-1.50072e-28
-3.01188e-30
-1.13381e-35
-7.21147e-40
-3.44296e-43
-8.90773e-49
-2.62853e-52
-9.90006e-59
-5.34754e-64
-3.19026e-68
-8.60037e-73
-1.38339e-76
-1.32181e-78
-1.1137e-77
-1.76481e-76
-2.684e-75
-4.38596e-74
-8.13578e-73
-1.40008e-71
-5.17881e-71
)
;
    }
    rightWall
    {
        type            calculated;
        value           nonuniform List<scalar> 
50
(
-7.03218
-53.573
-89.2877
-125.004
-160.718
-196.434
-232.127
-167.676
-140.515
-243.478
-522.02
-703.109
-838.83
-996.9
-1232.72
-1398.41
-1526.89
-1651.42
-1753.37
-1779.96
-1893.62
-2081.84
-2264.41
-1426.37
-1115.2
-1188.19
-1037.32
-462.559
-482.444
-502.33
-522.215
-817.247
-877.679
-889.539
-861.567
-955.41
-1001.69
-996.675
-163.665
-30.4297
-31.3963
-1025.47
-2198.02
-2294
-2283.86
-1221.59
-65.5144
-0.356732
-0.0265144
-0.00014794
)
;
    }
    lowerWall
    {
        type            calculated;
        value           nonuniform List<scalar> 
62
(
0
0
0
0
0
0
0
0
0
0
0
0
0
0
0
0
0
0
0
0
0
0
0
-29.4164
-88.2492
-147.102
-206.003
-264.864
-323.723
-382.546
-441.182
-470.505
-470.757
-470.835
-397.232
-3.72455e-20
-4.67078e-18
-5.36465e-16
-2.34534e-14
-2.06988e-12
-4.68192e-11
-3.19482e-10
-2.95242e-10
0
0
0
0
0
0
0
0
0
0
0
0
0
0
0
0
0
0
0
)
;
    }
    atmosphere
    {
        type            calculated;
        value           nonuniform List<scalar> 
46
(
-0
-0
-0
-0
-0
-0
-0
-0
-0
-0
-0
-0
-0
-0
-0
-0
-0
-0
-0
-0
-0
-0
-0
-0
-3.89379e-09
-2.5362e-08
-1.07789e-07
-4.13601e-07
-2.47242e-06
-0.000219458
-0.0240971
-0.0529598
-0.0274391
-0.0091188
-0.00484209
-0.00980548
-0.029452
-0.0279414
-0
-0
-0
-0
-0
-0.0108548
-0.00268206
-0.000149575
)
;
    }
    defaultFaces
    {
        type            empty;
    }
}


// ************************************************************************* //
