/*--------------------------------*- C++ -*----------------------------------*\
| =========                 |                                                 |
| \\      /  F ield         | OpenFOAM: The Open Source CFD Toolbox           |
|  \\    /   O peration     | Version:  2012                                  |
|   \\  /    A nd           | Website:  www.openfoam.com                      |
|    \\/     M anipulation  |                                                 |
\*---------------------------------------------------------------------------*/
FoamFile
{
    version     2.0;
    format      ascii;
    class       volScalarField;
    location    "0.45";
    object      volumeFraction1;
}
// * * * * * * * * * * * * * * * * * * * * * * * * * * * * * * * * * * * * * //

dimensions      [0 0 0 0 0 0 0];


internalField   nonuniform List<scalar> 
2268
(
1
1
1
1
1
1
1
1
1
1
1
1
1
1
1
1
1
1
1
1
1
1
0.99956
1
1
1
1
1
1
1
1
1
1
1
1
1
1
1
1
1
1
1
1
1
1
0.999559
1
1
1
1
1
1
1
1
1
1
1
1
1
1
1
1
1
1
1
1
1
1
0.999694
1
1
1
1
1
1
1
1
1
1
1
1
1
1
1
1
1
1
1
1
1
1
0.999987
1
1
1
1
1
1
1
1
1
1
1
1
1
1
1
1
1
1
1
1
1
1
1
1
1
1
1
1
1
1
1
1
1
1
1
1
1
1
1
1
1
1
1
1
1
1
1
1
1
1
1
1
1
1
1
1
1
1
1
1
1
1
1
1
1
1
1
1
0.999906
1
1
1
1
1
1
1
1
1
1
1
1
1
1
1
1
1
1
1
1
1
1
0.999415
1.26559e-21
2.24113e-20
5.40175e-19
1.14181e-19
7.03972e-20
6.29292e-19
9.83908e-17
6.84926e-15
2.15815e-13
3.67824e-12
3.45443e-11
1.26074e-10
1.67856e-10
1.67861e-10
1.8527e-09
2.03116e-05
0.00339879
0.121641
0.238951
5.29038e-20
1.90641e-18
3.85644e-17
9.3844e-18
2.86079e-18
1.42442e-18
1.22842e-16
7.81596e-15
2.22537e-13
3.41402e-12
2.92493e-11
1.34585e-10
2.11634e-10
1.6786e-10
1.41585e-08
3.89307e-06
0.000726469
0.119941
0.606798
3.64578e-18
9.2687e-17
1.12457e-15
3.54816e-16
9.30644e-17
1.70665e-17
1.42574e-16
1.12674e-14
3.76269e-13
6.35454e-12
5.48591e-11
2.63571e-10
8.36277e-10
3.56951e-09
4.50056e-08
8.68109e-07
0.000205059
0.0588757
0.606793
1.13848e-16
2.44465e-15
1.50628e-14
7.16412e-15
1.87708e-15
2.80799e-16
1.70809e-16
8.88135e-15
3.19003e-13
5.93097e-12
5.61104e-11
2.92945e-10
8.8944e-10
4.56574e-09
8.0131e-08
1.56535e-06
2.1725e-05
0.0272765
0.606798
7.81488e-15
5.68062e-14
9.16929e-14
7.20888e-14
2.96194e-14
3.45278e-15
9.02594e-16
4.20626e-15
1.72005e-13
3.89663e-12
4.3252e-11
2.49583e-10
7.04939e-10
4.92194e-09
2.04662e-07
5.13914e-07
9.51086e-07
0.0102618
0.606793
1.44627e-13
6.46555e-13
1.63588e-13
2.41916e-13
5.0672e-13
4.51769e-14
7.79639e-15
3.24122e-15
7.12275e-14
1.73051e-12
2.33714e-11
1.78219e-10
8.17598e-10
8.67654e-09
3.53163e-08
2.12858e-11
3.17579e-09
0.00261158
0.606798
8.3507e-13
1.01189e-12
5.24877e-11
1.25941e-10
2.56319e-09
4.51761e-14
4.68953e-14
7.89353e-15
3.0084e-14
6.75722e-13
9.63971e-12
9.36528e-11
6.86606e-10
4.66513e-09
1.42996e-09
1.38858e-10
1.72047e-10
-3.56657e-30
0.606739
6.68815e-13
6.68831e-13
4.03429e-05
3.81884e-05
5.96011e-06
1.45379e-07
3.67294e-11
2.02177e-13
3.68997e-14
2.55963e-13
3.32517e-12
3.86489e-11
3.49527e-10
1.21951e-09
7.49757e-10
2.62214e-10
3.69637e-10
5.51265e-29
0.379838
0.999764
0.999748
0.999772
0.999781
0.999793
0.999812
0.999853
0.999878
0.999919
0.999951
0.999977
0.999992
0.999997
0.999999
1
1
1
1
1
1
1
1
0.999227
0.893406
0.891229
0.8949
0.896441
0.898951
0.90306
0.911763
0.91853
0.931322
0.944638
0.96084
0.976002
0.987216
0.993428
0.997634
1
1
1
1
1
1
1
0.999283
0.206223
0.20435
0.208492
0.210233
0.214094
0.220285
0.233064
0.244507
0.267601
0.295888
0.339044
0.397171
0.485328
0.599627
0.719867
0.84634
0.980942
1
1
1
1
1
0.999933
1.73955e-36
1.8528e-36
7.59511e-37
-3.59424e-33
3.38255e-33
7.55103e-32
7.2159e-31
2.38519e-31
-1.53807e-31
-4.75384e-32
-2.77762e-28
-2.31892e-28
-4.12254e-27
0.00501244
0.0391936
0.0983268
0.208942
0.418403
0.72625
0.986263
1
1
1
1.06024e-18
6.08245e-17
1.95341e-15
3.883e-14
5.16076e-13
5.24092e-12
1.0586e-11
7.36958e-12
2.2952e-12
-1.22507e-31
4.03028e-09
6.07443e-09
2.50513e-08
2.25947e-26
-1.12911e-26
-1.26743e-28
0.00134991
0.010247
0.06618
0.191349
0.429837
0.759394
0.987966
3.67087e-18
2.09878e-16
6.63918e-15
1.25463e-13
1.66693e-12
1.7503e-11
3.19114e-11
3.77664e-11
1.73614e-11
-1.33403e-30
1.07729e-07
7.88722e-07
1.57886e-06
1.35712e-06
6.75076e-07
1.35102e-08
1.87442e-09
1.24399e-05
0.000280705
0.00252268
0.0110136
0.0722733
0.232319
4.81934e-18
2.70939e-16
8.44314e-15
1.54167e-13
2.01373e-12
2.13616e-11
3.60841e-11
7.34012e-11
8.1295e-11
8.25448e-30
3.87391e-07
2.45591e-06
2.45537e-06
2.45591e-06
1.2009e-06
1.83301e-08
1.87441e-09
1.87442e-09
1.49307e-08
4.30489e-07
1.54469e-05
0.000475674
0.00523087
4.93054e-18
2.7423e-16
8.4439e-15
1.50243e-13
1.86817e-12
2.02654e-11
2.58541e-11
1.10781e-10
3.35776e-10
1.28474e-27
3.99765e-07
1.43327e-06
1.47379e-06
4.92277e-07
1.45625e-08
3.57288e-08
3.50773e-08
8.49957e-09
2.19354e-09
1.4523e-07
4.64651e-07
1.18142e-06
4.66027e-06
3.97803e-18
2.11051e-16
6.13187e-15
1.00335e-13
1.06152e-12
1.19437e-11
9.04391e-12
1.72489e-10
1.02984e-09
5.24615e-09
8.88454e-09
1.30688e-11
1.30711e-11
1.30688e-11
1.30711e-11
3.94909e-08
5.25326e-08
3.49955e-08
2.19913e-09
2.06159e-07
1.04967e-06
5.16285e-06
6.63622e-06
1.99657e-18
1.01481e-16
2.82831e-15
4.46523e-14
4.39461e-13
4.83447e-12
1.61603e-12
2.11353e-10
1.63817e-09
1.06818e-08
8.97277e-11
5.70717e-11
9.12554e-11
4.88187e-10
3.6099e-11
4.63206e-09
4.02669e-08
3.78383e-08
7.46596e-09
6.24798e-14
6.0623e-14
1.97116e-07
1.08672e-06
7.9276e-19
3.92205e-17
1.06712e-15
1.64515e-14
1.55557e-13
1.65434e-12
4.67142e-13
2.20507e-10
1.23059e-09
1.15612e-09
4.34289e-10
1.41101e-10
2.01578e-10
8.7609e-10
1.0468e-09
3.0991e-10
1.74865e-10
1.3333e-09
2.77091e-09
1.02095e-09
1.52277e-10
6.71638e-12
6.74085e-12
2.59383e-19
1.25742e-17
3.36567e-16
5.10941e-15
4.82288e-14
4.76057e-13
4.67142e-13
8.6198e-11
3.70011e-10
2.19084e-10
1.82879e-10
1.28006e-10
1.6877e-10
4.64062e-10
7.77733e-10
5.30871e-10
1.81698e-10
1.45384e-10
1.4532e-10
1.7648e-10
1.41775e-10
6.45608e-11
2.81686e-11
6.94927e-20
3.28988e-18
8.66738e-17
1.30128e-15
1.2543e-14
1.06123e-13
4.49931e-13
2.49411e-11
3.82497e-11
5.83767e-11
5.68105e-11
4.40265e-11
4.92724e-11
8.95872e-11
1.59098e-10
2.83571e-10
3.21047e-10
3.20117e-10
2.85447e-10
2.16347e-10
1.26882e-10
7.04832e-11
3.80197e-11
1.51111e-20
7.06118e-19
1.84821e-17
2.77929e-16
2.7781e-15
2.22154e-14
2.37722e-13
3.6433e-12
8.63798e-12
1.19495e-11
1.15434e-11
8.98544e-12
1.02288e-11
1.46924e-11
2.45542e-11
4.78524e-11
7.26394e-11
6.63697e-11
6.13668e-11
5.13464e-11
3.39941e-11
1.93437e-11
1.29319e-11
2.63035e-21
1.22298e-19
3.20971e-18
4.91107e-17
5.17523e-16
4.24487e-15
7.8052e-14
3.51129e-13
9.87232e-13
1.33432e-12
1.29471e-12
1.17251e-12
1.5211e-12
2.61654e-12
4.56978e-12
6.13653e-12
6.98615e-12
7.33119e-12
7.24187e-12
6.57155e-12
5.06839e-12
3.2212e-12
2.06263e-12
3.59034e-22
1.68707e-20
4.51839e-19
7.19834e-18
8.14427e-17
7.03957e-16
1.57348e-14
3.66248e-14
5.20445e-14
5.40946e-14
6.05435e-14
1.02798e-13
2.39775e-13
4.97758e-13
7.66633e-13
8.78135e-13
9.21501e-13
9.20853e-13
8.76215e-13
7.66497e-13
5.88512e-13
3.83679e-13
2.43233e-13
3.72469e-23
1.79896e-21
5.0161e-20
8.50019e-19
1.04217e-17
9.2832e-17
1.83641e-15
4.56323e-15
4.93567e-15
4.23556e-15
5.23452e-15
1.32492e-14
3.82556e-14
8.33351e-14
1.17773e-13
1.28857e-13
1.30229e-13
1.24745e-13
1.08997e-13
8.34063e-14
5.47518e-14
3.35268e-14
2.04057e-14
2.81597e-24
1.45743e-22
4.38226e-21
8.1062e-20
1.07902e-18
9.65564e-18
1.15113e-16
3.57733e-16
4.77553e-16
4.83365e-16
6.86761e-16
1.75672e-15
4.65933e-15
9.17692e-15
1.1799e-14
1.24493e-14
1.23277e-14
1.13843e-14
9.36276e-15
6.54706e-15
3.98123e-15
2.02922e-15
1.56007e-15
1.44908e-25
8.35526e-24
2.79032e-22
5.68118e-21
8.0544e-20
7.14697e-19
4.81754e-18
1.15633e-17
1.51885e-17
2.13665e-17
5.01793e-17
1.49525e-16
3.64736e-16
6.04576e-16
6.99122e-16
7.17752e-16
7.05829e-16
6.5273e-16
5.50174e-16
4.06059e-16
2.18785e-16
1.40021e-16
2.42429e-16
4.6018e-27
3.17664e-25
1.22481e-23
2.75599e-22
4.09183e-21
3.52175e-20
1.91744e-19
3.75773e-19
5.96012e-19
1.21364e-18
3.62923e-18
1.03033e-17
2.01755e-17
2.36758e-17
2.42989e-17
2.44375e-17
2.44251e-17
2.37931e-17
2.18237e-17
1.73704e-17
1.02176e-17
1.44517e-17
1.33506e-16
8.04826e-29
6.56354e-27
2.87021e-25
6.91855e-24
1.04902e-22
8.65859e-22
3.5301e-21
8.95904e-21
2.27827e-20
6.79019e-20
2.10104e-19
5.21076e-19
6.83785e-19
6.66888e-19
6.04761e-19
6.08596e-19
6.49979e-19
6.61265e-19
6.24836e-19
4.56116e-19
5.25568e-19
5.84065e-18
1.47601e-16
1.15177e-30
6.25196e-29
2.00321e-27
4.21574e-26
7.25961e-25
8.37336e-24
5.03782e-23
2.27222e-22
9.32809e-22
3.23871e-21
8.9281e-21
1.84046e-20
2.19077e-20
2.13184e-20
1.88723e-20
1.67948e-20
1.57333e-20
1.4513e-20
1.12068e-20
1.16493e-20
1.28476e-19
5.65813e-18
2.03664e-16
4.56458e-32
2.57783e-30
8.35111e-29
1.72878e-27
2.86517e-26
3.28792e-25
2.03331e-24
9.18318e-24
3.56632e-23
1.13608e-22
2.68976e-22
4.95283e-22
5.92165e-22
5.88618e-22
5.18833e-22
3.57693e-22
1.95313e-22
8.78831e-23
1.00122e-22
1.45015e-21
1.06231e-19
6.26522e-18
2.23583e-16
8.82489e-34
5.10646e-32
1.62319e-30
3.09925e-29
4.21643e-28
4.02606e-27
2.97621e-26
1.64536e-25
6.97308e-25
2.1894e-24
4.95597e-24
9.8206e-24
1.35229e-23
1.38341e-23
1.24704e-23
8.76209e-24
3.36955e-24
2.266e-24
1.82548e-23
7.93189e-22
9.53663e-20
6.15236e-18
2.14342e-16
3.20455e-39
1.27568e-37
2.72826e-36
3.43737e-35
2.8529e-34
1.05234e-33
2.9361e-33
1.89687e-32
1.20741e-31
5.35579e-31
1.65937e-30
4.13659e-30
6.00911e-30
5.69369e-30
6.44843e-30
1.14595e-28
5.79526e-27
2.27394e-25
7.2533e-24
4.27926e-22
6.74012e-20
4.39589e-18
1.38889e-16
1.96856e-43
1.06202e-41
3.25373e-40
6.54647e-39
1.05155e-37
1.55355e-36
4.29345e-35
7.00427e-34
5.23574e-33
2.43076e-32
7.59108e-32
1.88228e-31
2.62739e-31
2.47614e-31
5.84442e-31
3.15661e-29
1.76955e-27
7.57052e-26
2.78482e-24
2.06426e-22
3.063e-20
1.93958e-18
5.92214e-17
9.08786e-47
4.81801e-45
1.38564e-43
2.48622e-42
3.18676e-41
3.01726e-40
2.21247e-39
1.28721e-38
5.94607e-38
2.34939e-37
8.08425e-37
5.5829e-36
2.06093e-35
7.53208e-34
8.45355e-32
7.80233e-30
4.74692e-28
2.24926e-26
9.74344e-25
8.53297e-23
1.15202e-20
7.17935e-19
2.19455e-17
2.27603e-52
1.58732e-50
6.04685e-49
1.47961e-47
2.64037e-46
3.61902e-45
3.9565e-44
3.59902e-43
2.66772e-42
1.72266e-41
1.03433e-40
3.98314e-39
7.10033e-37
1.26367e-34
1.64374e-32
1.68236e-30
1.10969e-28
5.93813e-27
3.07202e-25
2.9553e-23
3.58077e-21
2.22396e-19
6.87538e-18
6.50802e-56
4.99416e-54
2.0764e-52
5.62565e-51
1.12228e-49
1.77417e-48
2.29842e-47
2.57824e-46
2.41534e-45
2.42587e-44
1.49503e-42
3.93134e-40
8.89491e-38
1.81632e-35
2.67212e-33
3.04642e-31
2.19766e-29
1.36189e-27
8.49735e-26
8.32047e-24
8.74893e-22
5.4021e-20
1.79654e-18
2.37747e-62
2.3126e-60
1.33808e-58
5.62241e-57
1.85421e-55
4.96468e-54
1.07826e-52
3.31783e-51
6.89496e-49
2.80238e-46
9.91864e-44
3.35024e-41
8.91091e-39
2.10867e-36
3.57374e-34
4.58526e-32
3.67561e-30
2.71038e-28
2.05167e-26
1.91873e-24
1.65842e-22
9.95509e-21
5.50669e-19
1.24672e-67
2.03958e-65
1.83995e-63
1.12293e-61
5.17055e-60
2.78643e-58
7.00873e-56
4.01679e-53
2.15236e-50
1.10014e-47
4.79415e-45
1.96851e-42
6.40447e-40
1.80008e-37
3.63062e-35
5.3603e-33
4.90538e-31
4.44391e-29
4.13798e-27
3.6821e-25
2.57975e-23
1.58862e-21
4.04051e-19
7.22677e-72
1.75804e-69
2.26843e-67
1.99312e-65
1.82749e-63
6.8703e-61
5.58518e-58
4.65307e-55
3.41536e-52
2.38418e-49
1.40874e-46
7.54059e-44
3.15684e-41
1.08715e-38
2.68952e-36
4.7122e-34
5.12259e-32
5.97078e-30
7.28325e-28
7.66295e-26
7.49919e-24
8.83146e-22
6.35144e-19
1.89448e-76
6.93807e-74
1.45856e-71
3.08404e-69
1.77381e-66
2.15163e-63
2.59762e-60
3.0208e-57
3.11532e-54
3.04009e-51
2.49197e-48
1.81048e-45
1.02317e-42
4.7848e-40
1.66424e-37
4.20342e-35
7.59891e-33
1.55572e-30
3.36108e-28
6.38846e-26
1.83653e-23
4.19085e-21
1.65942e-18
2.96554e-80
1.43939e-77
6.18714e-75
7.95778e-72
2.43669e-68
6.80925e-65
1.57383e-61
2.94919e-58
4.80803e-55
6.83166e-52
8.77748e-49
8.86483e-46
7.24537e-43
4.47176e-40
2.2305e-37
8.42065e-35
2.79678e-32
8.4193e-30
2.29516e-27
4.95375e-25
1.61138e-22
3.2182e-20
6.84326e-18
2.75948e-82
2.29752e-78
1.77085e-74
9.26674e-71
3.48326e-67
1.00072e-63
2.31847e-60
4.30438e-57
6.82428e-54
9.1721e-51
1.10609e-47
1.0892e-44
8.81019e-42
5.4174e-39
2.67461e-36
9.90253e-34
3.11414e-31
8.95562e-29
2.32602e-26
4.68868e-24
1.35938e-21
2.35323e-19
3.83678e-17
2.2658e-81
3.5268e-77
2.62921e-73
1.32693e-69
4.95622e-66
1.4217e-62
3.27521e-59
6.02565e-56
9.28398e-53
1.17968e-49
1.31336e-46
1.24206e-43
9.80889e-41
5.99239e-38
2.92619e-35
1.07159e-32
3.22424e-30
8.8434e-28
2.17301e-25
4.1498e-23
1.08154e-20
1.65897e-18
2.2175e-16
3.50127e-80
5.04811e-76
3.72945e-72
1.88768e-68
7.07554e-65
2.03812e-61
4.68397e-58
8.55121e-55
1.28204e-51
1.54971e-48
1.59736e-45
1.4229e-42
1.07011e-39
6.37124e-37
3.04764e-34
1.11001e-31
3.27786e-29
8.55876e-27
1.95991e-24
3.63325e-22
8.89491e-20
1.2114e-17
7.2438e-16
5.19585e-79
7.4851e-75
5.5587e-71
2.84046e-67
1.07339e-63
3.11117e-60
7.12066e-57
1.28472e-53
1.86876e-50
2.17463e-47
2.12027e-44
1.75998e-41
1.22484e-38
6.89284e-36
3.15025e-33
1.14347e-30
3.44563e-28
8.64686e-26
1.83285e-23
3.07786e-21
3.61869e-19
2.69122e-17
1.20524e-15
8.28969e-78
1.21989e-73
9.26845e-70
4.80579e-66
1.8308e-62
5.31651e-59
1.20197e-55
2.12296e-52
2.98031e-49
3.40336e-46
3.204e-43
2.47904e-40
1.57415e-37
8.17067e-35
3.45828e-32
1.17511e-29
3.14662e-27
6.20084e-25
9.04099e-23
9.92343e-21
8.09049e-19
4.70873e-17
1.83785e-15
1.50216e-76
2.29394e-72
1.79537e-68
9.43754e-65
3.60097e-61
1.03778e-57
2.29235e-54
3.92443e-51
5.23824e-48
5.46664e-45
4.48169e-42
2.88087e-39
1.45751e-36
5.80329e-34
1.82092e-31
4.51455e-29
8.84037e-27
1.38792e-24
1.73129e-22
1.67847e-20
1.22222e-18
6.41396e-17
2.29414e-15
2.52665e-75
3.79299e-71
2.83982e-67
1.38358e-63
4.79989e-60
1.23632e-56
2.40802e-53
3.58246e-50
4.09254e-47
3.59909e-44
2.44718e-41
1.28748e-38
5.26215e-36
1.67513e-33
4.1653e-31
8.14057e-29
1.25806e-26
1.54968e-24
1.54137e-22
1.23314e-20
7.88924e-19
3.95244e-17
1.5015e-15
9.13944e-75
1.32613e-70
9.51558e-67
4.39296e-63
1.43063e-59
3.43703e-56
6.23101e-53
8.65165e-50
9.27457e-47
7.72686e-44
5.02485e-41
2.56138e-38
1.02575e-35
3.2413e-33
8.08279e-31
1.60012e-28
2.51493e-26
3.15632e-24
3.1655e-22
2.5519e-20
1.64652e-18
8.42149e-17
3.29796e-15
0.999226
0.99976
0.999927
0.843613
0.999226
0.999739
0.999927
0.993565
0.999757
0.999739
0.999782
0.999803
1
0.999976
0.999973
0.999983
1
1
1
1
0.379706
0.490891
0.632699
0.836864
0.011445
0.0195201
0.0362216
0.0634709
1.29905e-05
1.51094e-05
8.92588e-06
6.99093e-06
6.63795e-06
3.29217e-06
5.68596e-06
1.29789e-05
4.73457e-07
1.87939e-07
1.00552e-05
4.02113e-05
1.53059e-07
1.87917e-07
1.19789e-12
2.25637e-06
1.1971e-12
1.19789e-12
1.1971e-12
1.19789e-12
1.24637e-11
4.67026e-12
2.86798e-12
1.45741e-12
1.02786e-11
8.64606e-12
7.13016e-12
5.56949e-12
1.47619e-12
1.23444e-12
9.94154e-13
8.34556e-13
1.74142e-13
1.42628e-13
1.21251e-13
9.60603e-14
1.45526e-14
1.2299e-14
1.19876e-14
1.25162e-14
1.61562e-15
1.83803e-15
2.40956e-15
3.62041e-15
4.3475e-16
7.2909e-16
1.3201e-15
2.53129e-15
3.29646e-16
6.18685e-16
1.23325e-15
2.89724e-15
3.93636e-16
7.93139e-16
1.83562e-15
5.67564e-15
5.59485e-16
1.20069e-15
3.21144e-15
1.24228e-14
6.22872e-16
1.39747e-15
4.15035e-15
1.7961e-14
6.0541e-16
1.40428e-15
4.41998e-15
1.92078e-14
4.09874e-16
1.05992e-15
3.83894e-15
1.49412e-14
1.80079e-16
5.08864e-16
2.17509e-15
1.01269e-14
7.00126e-17
2.35306e-16
1.44554e-15
9.35181e-15
2.56331e-17
1.53879e-16
1.66741e-15
1.97158e-14
1.33976e-17
1.98071e-16
4.44817e-15
6.8575e-14
1.47435e-17
5.47377e-16
1.39826e-14
2.08233e-13
3.38454e-17
1.41202e-15
3.23978e-14
3.89988e-13
7.11261e-17
2.63362e-15
5.27918e-14
5.50384e-13
1.40313e-16
4.58781e-15
7.90659e-14
7.11317e-13
4.03576e-16
1.00922e-14
1.351e-13
1.11465e-12
1.62946e-15
3.23193e-14
3.6282e-13
3.51579e-12
6.92389e-15
9.00102e-14
8.56633e-13
7.41282e-12
1.60475e-14
1.68464e-13
1.37495e-12
1.07139e-11
2.32536e-14
2.15784e-13
1.51266e-12
9.54131e-12
3.28464e-14
2.8333e-13
1.85996e-12
1.20373e-11
3.86494e-14
3.05286e-13
1.64881e-12
6.95716e-12
3.01687e-14
3.00836e-13
2.00747e-12
8.00981e-12
6.86446e-14
6.79659e-13
4.42691e-12
1.88145e-11
0.0854298
0.0774743
0.0391064
0.00478743
0.000147225
6.73674e-08
1.34974e-11
1.73325e-12
2.03857e-13
2.73431e-13
1.32763e-12
1.07576e-11
8.77368e-11
2.77185e-10
2.92162e-10
2.08351e-10
6.15946e-10
-2.59278e-28
0.2634
0.946891
0.903235
0.589021
0.0624128
0.000774748
7.38382e-07
4.88485e-11
3.98104e-11
2.74565e-11
2.7343e-13
2.73417e-13
2.73622e-13
1.58032e-11
5.66227e-11
7.26847e-11
2.59651e-10
2.68966e-09
1.13303e-27
0.369656
0.999793
0.999999
0.953513
0.365002
0.0138005
2.6103e-05
5.53482e-09
1.22098e-10
2.27577e-10
1.01993e-09
2.22116e-09
1.12406e-09
1.29088e-10
8.03416e-12
3.91781e-12
8.79641e-09
3.24883e-08
-1.75975e-28
0.665964
0.999993
0.999999
1
0.791986
0.122189
0.00162139
1.16383e-05
1.36968e-10
1.80511e-10
1.4444e-09
4.66448e-09
4.66447e-09
2.59772e-09
5.01691e-10
4.61169e-08
6.94384e-08
6.54745e-08
-2.43101e-26
0.773454
1
1
1
1
0.696587
0.0674113
1.36229e-11
1.36247e-11
6.17544e-11
5.60308e-10
2.03646e-09
2.80786e-09
1.87772e-09
2.38718e-09
1.94759e-08
6.17832e-08
1.77067e-08
3.70911e-20
0.811056
0.973394
0.997147
1
1
1
0.79137
0.292245
3.31381e-16
3.33716e-16
3.3134e-16
3.33747e-16
3.3134e-16
3.33747e-16
3.3134e-16
3.33725e-16
3.314e-16
3.33672e-16
0.0399609
0.859812
0.154626
0.42438
0.864464
0.991371
1
0.999269
0.934027
0.744139
0.413318
0.231568
0.19078
0.170059
0.143148
0.122219
0.111765
0.0961347
0.111447
0.508715
0.95959
6.99166e-06
0.00904421
0.0799501
0.291669
0.683987
0.972866
0.999912
0.999912
0.985636
0.9507
0.919813
0.896617
0.868156
0.843449
0.827885
0.789538
0.812601
0.934865
0.991903
1.44457e-05
4.08394e-08
4.0835e-08
0.000722774
0.0464201
0.195599
0.455089
0.741936
0.875191
0.910251
0.931233
0.94955
0.974698
0.995054
0.995054
0.995054
0.994704
0.994704
0.994704
4.02162e-05
2.54827e-05
1.21404e-06
9.28776e-11
9.28814e-11
0.00196725
0.0144693
0.0671079
0.161472
0.252311
0.306798
0.355406
0.412629
0.506533
0.656818
0.880793
0.993621
0.994704
0.994703
3.58238e-05
3.82261e-05
1.51997e-05
4.6478e-08
9.28776e-11
2.23619e-09
7.32054e-07
0.000119919
0.000775936
0.00206395
0.00381338
0.00623148
0.0104628
0.0175928
0.0499538
0.298266
0.79896
0.983518
0.982053
4.1423e-06
8.151e-06
4.78326e-06
1.67445e-07
2.30538e-10
9.28776e-11
9.28777e-11
9.39181e-11
1.36296e-09
6.03005e-08
3.3922e-07
1.58237e-06
9.27245e-06
8.72363e-06
8.89631e-06
0.023701
0.492677
0.968602
0.931619
8.19596e-13
8.1951e-13
5.54308e-08
6.19952e-08
7.69511e-09
4.62914e-10
1.13129e-10
2.27624e-10
1.41108e-09
1.83707e-09
1.37327e-07
6.19557e-06
7.12962e-05
0.00133167
0.0117151
0.119082
0.650154
0.988256
0.930159
2.03631e-12
8.87023e-13
8.98593e-13
2.11772e-09
1.91171e-09
5.88646e-10
1.43796e-10
1.54719e-10
1.28686e-09
1.24028e-09
7.91192e-09
5.45687e-05
0.00477261
0.0430827
0.23255
0.611723
0.911639
0.990473
0.96337
5.42328e-13
6.83859e-13
4.50554e-12
7.92018e-11
2.13254e-10
1.96985e-10
1.02105e-10
7.70763e-11
1.1235e-09
1.24026e-09
1.85841e-09
2.42113e-05
0.0167865
0.344538
0.79464
0.927375
0.978118
0.99047
0.990473
8.58292e-14
1.58383e-13
1.25533e-12
1.5367e-11
5.65538e-11
5.66321e-11
4.81269e-11
4.8127e-11
6.56733e-10
1.56151e-09
1.54055e-09
6.04775e-05
0.0402683
0.553218
0.934719
0.941636
0.941637
0.803571
0.591515
2.66167e-14
7.28689e-14
5.0801e-13
1.51764e-12
1.66338e-10
6.32229e-10
5.44691e-10
1.4231e-10
1.86951e-10
1.40136e-09
1.31045e-09
5.97395e-05
0.0090847
0.0724461
0.362949
0.747583
0.936546
0.59377
0.439647
2.75551e-14
1.7437e-13
2.90145e-12
2.19514e-11
7.35143e-11
6.63221e-10
1.59502e-09
1.59493e-09
6.68258e-10
7.08374e-10
5.81914e-10
8.33284e-06
4.78992e-10
4.78921e-10
4.78992e-10
0.144562
0.648637
0.649678
0.446391
4.90457e-14
5.09354e-13
9.01055e-12
1.83355e-11
3.00308e-09
1.59981e-09
1.14762e-09
1.14787e-09
1.1477e-09
8.33973e-10
5.81165e-10
1.31222e-07
4.78921e-10
1.83579e-05
8.32151e-05
0.00255598
0.29505
0.524746
0.372204
1.70057e-13
4.82004e-13
1.04092e-10
1.63727e-10
5.64374e-12
1.51815e-08
7.43156e-08
1.15465e-08
5.42885e-09
4.24745e-09
2.37899e-09
1.95192e-09
4.78992e-10
5.20834e-06
3.65909e-06
0.00298649
0.115572
0.362357
0.158837
8.87693e-13
4.82007e-13
1.26668e-10
8.36607e-10
5.70976e-12
3.19374e-08
3.78301e-07
3.92414e-07
4.04783e-08
4.42717e-09
3.27218e-09
1.82963e-09
4.32789e-09
2.15087e-08
5.32825e-09
0.000117897
0.0267455
0.339115
0.158837
1.41309e-12
2.0301e-12
1.23764e-12
1.34172e-09
6.0097e-09
6.00946e-09
3.84024e-08
7.29767e-07
2.21676e-07
6.96918e-10
7.1215e-10
9.94024e-10
5.92992e-09
4.39751e-09
5.32834e-09
2.9321e-07
2.93364e-07
0.332749
0.158837
1.37951e-12
3.53137e-12
1.26108e-12
1.22939e-12
1.41556e-08
1.84717e-08
7.27603e-09
7.27257e-09
5.55762e-06
6.04972e-06
2.91012e-07
9.94169e-10
3.76871e-09
2.69034e-09
2.70466e-09
1.48641e-09
0.00369565
0.201925
0.158837
1.0791e-12
3.44889e-12
4.91222e-12
1.22722e-12
2.24773e-09
7.14329e-08
8.20536e-09
7.26916e-09
3.35198e-06
1.24442e-05
1.24437e-05
1.21994e-06
1.35666e-09
1.35574e-09
1.63278e-09
1.48641e-09
8.90309e-05
1.22624e-05
0.239455
4.195e-13
2.43232e-12
1.18918e-11
8.65003e-12
1.95008e-12
2.61995e-08
1.46107e-06
5.48237e-07
5.49212e-07
9.92e-06
1.42128e-05
7.98394e-06
9.3783e-07
9.85894e-09
1.92571e-09
1.48639e-09
5.1289e-10
7.81869e-05
0.248063
2.95524e-13
3.31245e-12
1.75269e-11
3.50109e-11
1.94999e-12
1.63131e-07
1.82568e-06
1.95135e-06
7.87249e-07
6.81438e-08
1.15213e-05
2.51437e-05
3.72504e-06
3.88091e-08
3.74552e-09
1.49051e-09
5.12889e-10
2.95104e-11
0.242823
4.72612e-13
8.9693e-12
1.90748e-11
4.10835e-10
2.75183e-10
2.75265e-10
6.20643e-07
1.9453e-06
8.84395e-07
6.79413e-08
7.04114e-06
2.51452e-05
2.10022e-05
2.2011e-06
6.26709e-09
1.01139e-09
3.65728e-10
2.95104e-11
0.227415
1.37419e-12
1.64449e-11
1.64447e-11
5.23871e-09
4.82275e-08
1.56482e-08
1.56505e-08
8.723e-07
7.63575e-07
7.02671e-08
4.3557e-08
2.51323e-05
2.51413e-05
5.50338e-06
3.89562e-09
2.95104e-11
2.95104e-11
2.95104e-11
0.244118
3.58985e-12
2.03167e-11
1.64448e-11
2.3051e-08
4.01767e-07
1.42209e-07
2.04397e-07
4.3557e-08
4.35498e-08
4.3557e-08
4.35498e-08
2.04933e-05
2.51402e-05
3.83772e-06
1.83143e-09
1.11068e-06
2.756e-05
1.49423e-06
0.248009
5.7594e-12
2.34572e-11
1.65016e-11
1.47454e-07
4.02569e-07
2.14181e-07
1.2291e-05
9.15194e-05
2.98383e-05
6.87472e-06
3.16855e-07
6.64433e-06
1.07062e-05
1.03485e-06
1.83355e-09
1.83143e-09
7.01957e-05
0.00139735
0.239349
6.7932e-12
2.64196e-11
1.65015e-11
2.67979e-07
2.67975e-07
2.38461e-05
0.000171595
0.0001803
0.000159672
1.08149e-05
3.31256e-07
3.27387e-07
4.25021e-08
7.69259e-08
1.66033e-06
1.4628e-05
8.73984e-05
0.000582897
0.0381566
6.65438e-12
3.35037e-11
1.65016e-11
3.31415e-07
3.68397e-06
0.000122568
0.0001803
0.0001803
0.0001803
2.98821e-06
8.56141e-11
1.40789e-08
1.40792e-08
1.40784e-08
3.71951e-06
0.000290127
0.00274295
0.0163597
0.00689314
7.38121e-12
6.11457e-11
3.51289e-09
3.21475e-07
1.06519e-05
0.000152675
0.0001803
0.0001803
0.00012141
3.64786e-11
8.5658e-11
9.88619e-10
2.08556e-08
2.04224e-06
4.89949e-06
9.65262e-07
0.0777538
0.0694119
0.00691596
1.56226e-11
2.20112e-10
7.72706e-09
3.48563e-07
3.27212e-06
8.25695e-05
0.0001803
0.000118641
7.78243e-06
3.64786e-11
3.64786e-11
6.72064e-10
8.84069e-07
4.89949e-06
4.89427e-06
3.27398e-11
0.22622
0.201549
0.219828
5.10019e-11
8.04913e-10
1.97762e-08
3.59291e-07
1.67371e-06
1.24229e-05
3.43947e-05
1.75498e-05
3.64786e-11
3.64786e-11
3.64786e-11
2.25571e-08
1.51093e-06
2.29723e-06
3.15368e-07
3.27398e-11
0.30993
0.466709
0.458868
1.1335e-10
3.83777e-09
4.44942e-08
7.48423e-08
6.70198e-08
4.36227e-08
1.27377e-07
4.21422e-07
6.45463e-07
2.1201e-06
1.82914e-06
7.51081e-07
1.55681e-07
3.27398e-11
3.27398e-11
0.00161295
0.403589
0.466669
0.466709
1.67498e-10
1.0511e-08
9.90052e-08
8.83014e-08
8.93956e-09
8.93956e-09
8.93956e-09
6.7289e-07
3.31048e-06
3.31038e-06
3.05459e-06
1.40876e-07
1.40823e-07
3.67852e-07
3.27398e-11
3.27398e-11
0.146279
0.466709
0.453105
1.16742e-10
9.20919e-09
1.45326e-07
1.6574e-07
8.9396e-09
8.93956e-09
8.93956e-09
6.49896e-07
2.47953e-06
2.43926e-06
2.66819e-06
8.13843e-06
1.56121e-05
1.58523e-05
1.49287e-05
3.27398e-11
0.00035681
0.206955
0.236482
2.1161e-10
2.50579e-08
2.10523e-07
1.57119e-07
8.93956e-09
8.93956e-09
1.11169e-07
3.20582e-07
2.3122e-07
2.91399e-07
4.31717e-06
1.33755e-05
1.20335e-05
2.76354e-06
9.96142e-07
3.27398e-11
6.27544e-05
0.00449739
0.0123826
7.81088e-11
2.35891e-08
4.48611e-07
5.35193e-07
8.93956e-09
1.01794e-08
6.4812e-08
4.09789e-08
8.93956e-09
1.20869e-07
8.59388e-06
1.10135e-05
8.06079e-07
8.0608e-07
9.54356e-07
8.71433e-07
1.40469e-06
1.42186e-06
6.58657e-05
2.67424e-11
1.50289e-08
1.68494e-06
2.76665e-06
8.93956e-09
8.93956e-09
8.93956e-09
8.93956e-09
8.93956e-09
4.12723e-06
1.03258e-05
5.1953e-07
1.10171e-06
2.16047e-07
3.50359e-07
1.84173e-06
3.51959e-07
3.50882e-07
4.78491e-06
7.21937e-11
4.31559e-10
3.83063e-08
4.20613e-06
9.2441e-06
4.78948e-06
1.59168e-06
8.45183e-07
1.71154e-06
5.14083e-06
4.87714e-06
-1.21946e-27
2.61656e-08
-3.59651e-32
-1.02996e-58
1.16059e-06
1.8947e-06
4.68151e-07
2.61082e-08
)
;

boundaryField
{
    leftWall
    {
        type            zeroGradient;
    }
    rightWall
    {
        type            zeroGradient;
    }
    lowerWall
    {
        type            zeroGradient;
    }
    atmosphere
    {
        type            inletOutlet;
        inletValue      uniform 0;
        value           nonuniform List<scalar> 
46
(
0
0
0
0
0
0
0
0
0
0
0
0
0
0
0
0
0
0
0
0
0
0
0
0
6.79659e-13
4.42691e-12
1.88145e-11
7.21937e-11
4.31559e-10
3.83063e-08
4.20613e-06
9.2441e-06
4.78948e-06
1.59168e-06
8.45183e-07
1.71154e-06
5.14083e-06
4.87714e-06
0
0
0
0
0
1.8947e-06
4.68151e-07
2.61082e-08
)
;
    }
    defaultFaces
    {
        type            empty;
    }
}


// ************************************************************************* //
