/*--------------------------------*- C++ -*----------------------------------*\
| =========                 |                                                 |
| \\      /  F ield         | OpenFOAM: The Open Source CFD Toolbox           |
|  \\    /   O peration     | Version:  2012                                  |
|   \\  /    A nd           | Website:  www.openfoam.com                      |
|    \\/     M anipulation  |                                                 |
\*---------------------------------------------------------------------------*/
FoamFile
{
    version     2.0;
    format      ascii;
    class       volScalarField;
    location    "0.00011";
    object      pcorr;
}
// * * * * * * * * * * * * * * * * * * * * * * * * * * * * * * * * * * * * * //

dimensions      [1 -1 -2 0 0 0 0];


internalField   nonuniform List<scalar> 
5000
(
6.253148923e-06
6.23879205e-06
6.198014781e-06
6.160743738e-06
6.122005346e-06
6.101296738e-06
6.043692889e-06
6.016746893e-06
5.965631478e-06
5.91356301e-06
5.89245376e-06
5.830823165e-06
5.818955616e-06
5.777759399e-06
5.760001488e-06
5.747500357e-06
5.754965706e-06
5.753821318e-06
5.786326751e-06
5.789394585e-06
5.790893385e-06
5.831841097e-06
5.792957029e-06
5.865023612e-06
5.837434811e-06
4.938159119e-06
4.472150315e-06
4.470684469e-06
4.573746049e-06
4.996916919e-06
4.021312405e-06
3.485578745e-06
2.988479163e-06
2.536757902e-06
2.154740886e-06
1.750913799e-06
1.333298066e-06
8.756291329e-07
3.904439538e-07
-5.621478282e-08
2.956085539e-07
3.116708361e-07
2.960614063e-07
2.837881534e-07
3.281343913e-07
3.302635084e-07
3.445207651e-07
3.657151806e-07
3.260370684e-07
3.264117493e-07
3.233145038e-07
3.392865165e-07
3.703262533e-07
3.957687194e-07
3.700659816e-07
3.581477242e-07
3.149023082e-07
2.786348475e-07
2.92941035e-07
2.734744749e-07
2.719001229e-07
2.597113349e-07
2.239269113e-07
2.230264407e-07
2.350787114e-07
2.327577526e-07
2.793589983e-07
2.744913288e-07
2.978005378e-07
3.32191787e-07
3.370990074e-07
3.839549582e-07
4.019752787e-07
3.999058626e-07
4.285541153e-07
3.955328118e-07
3.877515124e-07
3.745985373e-07
3.355876685e-07
3.696462452e-07
3.48459286e-07
3.602421576e-07
3.250567669e-07
2.454993958e-07
1.776267432e-07
1.203600491e-07
7.132752881e-08
4.949608521e-08
-2.380759049e-09
-4.25394919e-08
-4.089132001e-08
-7.123326322e-08
-2.8540748e-08
-2.532636079e-08
-2.686496131e-08
-1.30026914e-08
-3.4304432e-08
-1.818609191e-08
-1.390499406e-08
-2.083894503e-08
-3.123346966e-08
-6.796167586e-08
-8.852076291e-08
-8.511222522e-08
-8.852005779e-08
-6.41268141e-08
-8.721634445e-08
-1.195321742e-07
-1.516593675e-07
-1.901107519e-07
-2.170141184e-07
-2.133985228e-07
-2.655504751e-07
-3.056944594e-07
-3.427376903e-07
-4.088276461e-07
-3.842055194e-07
-4.042855265e-07
-4.003845495e-07
-3.973427759e-07
-4.333913205e-07
-4.5201119e-07
-4.444565755e-07
-4.54894624e-07
-3.924251479e-07
-3.547430874e-07
-3.161802198e-07
-2.829999096e-07
-2.81048231e-07
-2.701205364e-07
-2.732076986e-07
-2.351340485e-07
-2.494920772e-07
-2.034540006e-07
-2.291699136e-07
-2.236463026e-07
-2.256886251e-07
-2.477323497e-07
-2.36657864e-07
-2.618038148e-07
-2.782196059e-07
-3.001459299e-07
-3.066098455e-07
-3.181707929e-07
-2.883348617e-07
-2.842908455e-07
-2.478802109e-07
-2.426687277e-07
-2.302200324e-07
-2.341651268e-07
-2.349629005e-07
-2.110606187e-07
-1.9084568e-07
-1.611009456e-07
-1.435230132e-07
-1.248822763e-07
-1.006236011e-07
-6.071650214e-08
-4.867562121e-08
-3.068240842e-08
-5.705991861e-08
-7.127744135e-08
-8.385210413e-08
-8.113643417e-08
-7.217092617e-08
-6.789077447e-08
-6.396307006e-08
-5.510925206e-08
-3.235950077e-08
-1.34562333e-08
7.222438006e-09
1.121124723e-08
2.701622047e-08
2.295916672e-08
5.380649368e-08
9.217117307e-08
1.380183596e-07
2.093462455e-07
2.361911668e-07
2.741269161e-07
2.875916929e-07
2.851277084e-07
2.899467194e-07
2.811700373e-07
2.76384463e-07
2.438827193e-07
2.207762972e-07
1.852507806e-07
1.729215377e-07
1.870366496e-07
1.800192173e-07
1.626391273e-07
1.497797106e-07
1.12710392e-07
1.248665524e-07
1.499789757e-07
1.462202243e-07
1.848669519e-07
1.602918496e-07
1.828704436e-07
2.115664929e-07
2.178992497e-07
2.250504367e-07
2.045814481e-07
1.636155503e-07
1.528729124e-07
1.56417935e-07
1.573352024e-07
1.905267764e-07
1.805132311e-07
1.971163925e-07
1.700060758e-07
1.625714978e-07
1.342835256e-07
9.958942873e-08
9.461974223e-08
6.201130879e-08
5.390862035e-08
2.965673275e-08
2.968799114e-08
5.838149296e-09
5.25336362e-09
-5.705162428e-08
-1.183610741e-07
-1.782116999e-07
-2.31346825e-07
-2.112216644e-07
-2.332676964e-07
-2.045518581e-07
-2.262892275e-07
-2.121960238e-07
-1.996051773e-07
-1.824732834e-07
-1.533259451e-07
-1.805380361e-07
-1.674692414e-07
-1.904180238e-07
-1.659655247e-07
-1.445193171e-07
-1.318320159e-07
-1.122087785e-07
-1.054701e-07
-8.82391179e-08
-5.845313285e-08
-5.198102231e-08
-3.169137647e-08
-2.921520723e-08
-3.283069618e-08
-1.316720125e-08
-2.831386999e-08
-2.821211161e-09
-4.189358815e-09
1.623576994e-08
4.993054499e-08
6.821690887e-08
7.246910747e-08
6.013622084e-08
2.079492838e-08
-1.23471898e-08
-1.458209865e-08
-4.900146104e-08
-2.587078261e-08
-6.986502459e-08
-8.970743391e-08
-1.023416202e-07
-1.398336802e-07
-1.292009805e-07
-1.486311354e-07
-1.618889397e-07
-1.818985729e-07
-1.849871065e-07
-1.980865706e-07
-1.461675333e-07
-1.178521992e-07
-6.274493372e-08
-4.888882343e-08
-3.341981823e-08
-1.072787169e-08
3.255754958e-10
6.422416599e-08
5.785665009e-08
7.786154669e-08
3.918123054e-08
2.497485889e-08
2.220920065e-08
1.781922397e-08
2.910850815e-08
-1.078713662e-08
-4.004799893e-09
-2.548968319e-08
1.080644481e-09
2.390012213e-08
-3.41861569e-09
-3.499341871e-09
-7.066548897e-08
-1.066303153e-07
-1.420957205e-07
-1.840175866e-07
-2.340318543e-07
-2.984353077e-07
-3.508231507e-07
-4.170060478e-07
-4.129175269e-07
-4.344378605e-07
-4.116865124e-07
-3.927583927e-07
-3.877208333e-07
-3.681711981e-07
-3.652863297e-07
-3.582356933e-07
-3.381433233e-07
-3.126069082e-07
-3.114648033e-07
-2.750616122e-07
-2.722357047e-07
-2.374420551e-07
-1.791300515e-07
-1.441718685e-07
-8.177607596e-08
-6.920905153e-08
-5.57420605e-08
-3.944560092e-08
-3.629808807e-08
1.422785361e-08
2.878909759e-08
6.852954526e-08
8.17756932e-08
8.619200405e-08
9.548658407e-08
9.15568991e-08
9.137991435e-08
8.765060155e-08
7.859922394e-08
6.375311555e-08
8.699262562e-08
7.748020524e-08
1.039532674e-07
9.720267654e-08
8.505159378e-08
8.759851931e-08
5.69395646e-08
8.272379277e-08
5.903943275e-08
6.656601583e-08
5.106965165e-08
3.027911463e-08
2.534390518e-08
1.728579382e-08
1.453242161e-08
1.405608832e-08
-5.842678621e-09
-2.22496993e-08
-9.427923959e-09
-7.729739438e-09
4.250197528e-08
6.28877757e-08
9.748116668e-08
1.312956333e-07
1.78199999e-07
2.103204521e-07
2.404128717e-07
2.732481635e-07
2.961569144e-07
3.352057487e-07
3.795618855e-07
3.918477939e-07
4.498920805e-07
4.762421618e-07
5.029036113e-07
5.5124772e-07
5.212682383e-07
5.527152779e-07
5.028995693e-07
4.79883763e-07
4.333291435e-07
3.710539673e-07
3.31478078e-07
2.889456303e-07
2.640206137e-07
2.399007716e-07
2.043923687e-07
1.677369778e-07
1.422167699e-07
1.09836807e-07
1.061054423e-07
9.107126108e-08
7.904743893e-08
8.92053418e-08
7.116698263e-08
7.3186241e-08
6.404172379e-08
4.374421721e-08
3.387617404e-08
1.156270296e-08
-1.306951242e-08
-5.127724767e-08
-5.824208343e-08
-8.70319377e-08
-4.421499459e-08
-3.811819676e-08
1.597553376e-08
4.246194838e-08
5.580711792e-08
6.936983953e-08
5.714634791e-08
7.506712389e-08
5.797233558e-08
7.511123325e-08
6.015098101e-08
7.855389619e-08
9.233556066e-08
1.17683683e-07
1.46889478e-07
1.538349034e-07
1.804792176e-07
1.639462379e-07
1.658799667e-07
1.68254169e-07
1.466406082e-07
1.79778226e-07
1.526887381e-07
1.384210727e-07
1.312778499e-07
9.070456231e-08
9.286329718e-08
8.013748323e-08
2.549079169e-08
-1.584810298e-08
-6.685272758e-08
-9.274399527e-08
-8.145117678e-08
-6.807884253e-08
-6.268444928e-08
-9.04856311e-08
-1.133882417e-07
-1.376582279e-07
-1.182422256e-07
-8.487828811e-08
-9.487163915e-08
-9.031585093e-08
-1.428273825e-07
-1.649150263e-07
-1.668738339e-07
-1.866500013e-07
-1.766472814e-07
-2.2221808e-07
-2.15821861e-07
-2.408296233e-07
-2.077679805e-07
-1.669539729e-07
-1.518659955e-07
-9.165111025e-08
-9.595374746e-08
-6.853672863e-08
-5.705826256e-08
-3.087384956e-08
-2.392868475e-08
-1.641561636e-08
3.742211621e-09
-8.428280503e-09
4.835771014e-08
7.610248246e-08
1.241410332e-07
1.532093772e-07
1.137873864e-07
1.161902423e-07
6.433461978e-08
6.464501733e-08
3.684034946e-08
-1.066653943e-08
-3.82553548e-08
-8.894295173e-08
-7.884845785e-08
-7.648156706e-08
-7.469299686e-08
-6.033141753e-08
-9.059833327e-08
-8.821449663e-08
-1.154155293e-07
-1.344951236e-07
-1.760282605e-07
-2.026820475e-07
-2.399991009e-07
-2.552199937e-07
-2.546372896e-07
-2.762404258e-07
-2.583790279e-07
-2.775113395e-07
-2.469796342e-07
-2.351889088e-07
-2.110209957e-07
-2.148524464e-07
-2.068130993e-07
-2.321863851e-07
-2.145875956e-07
-1.827637633e-07
-1.77561212e-07
-1.193236197e-07
-1.472150501e-07
-1.203143189e-07
-1.16186771e-07
-1.153057119e-07
-9.464800632e-08
-1.145189318e-07
-1.385957362e-07
-1.751340315e-07
-1.846438198e-07
-2.174756253e-07
-1.72043415e-07
-1.660529808e-07
-1.284955187e-07
-9.234128706e-08
-1.137018112e-07
-7.365202493e-08
-1.045385448e-07
-9.469875788e-08
-1.202352313e-07
-1.551587897e-07
-1.880135767e-07
-2.086102915e-07
-2.251099314e-07
-2.410157669e-07
-2.311691707e-07
-2.675026051e-07
-2.484984388e-07
-2.359625158e-07
-2.487889776e-07
-2.362513505e-07
-2.755587297e-07
-3.003788978e-07
-2.752899664e-07
-2.912913351e-07
-2.203352505e-07
-2.085939398e-07
-1.817136629e-07
-1.437323098e-07
-1.182465845e-07
-5.757705153e-08
-4.284688604e-08
5.485152474e-09
-1.767746708e-08
1.520198422e-08
-1.218381807e-08
-5.396869528e-09
-2.266325062e-08
-4.775002276e-08
-3.05210525e-08
-7.468783292e-08
-5.423263836e-08
-1.02920198e-07
-8.193635749e-08
-9.950598717e-08
-5.451490748e-08
-1.745673566e-08
2.275709217e-08
8.774408344e-08
9.814871348e-08
1.371972865e-07
9.744559241e-08
1.0999496e-07
6.049326076e-08
7.715472656e-08
3.001251492e-08
2.135676734e-09
-1.73944903e-08
-8.057345176e-08
-4.878013998e-08
-8.272341785e-08
-5.95102849e-08
-7.204957465e-08
-9.115299195e-08
-1.223457038e-07
-1.421778973e-07
-1.453019601e-07
-1.54143431e-07
-1.387543719e-07
-1.649743683e-07
-1.834124738e-07
-2.036929287e-07
-2.374646144e-07
-2.394718208e-07
-2.531080632e-07
-2.460257196e-07
-2.134721283e-07
-1.754263194e-07
-1.316983776e-07
-9.646656113e-08
-7.954588371e-08
-6.523446891e-08
-4.579661997e-08
-4.249136239e-08
-5.210245219e-08
-5.850877074e-08
-8.412221173e-08
-6.426501725e-08
-5.573485679e-08
-3.974476972e-08
-1.912955477e-08
-1.826908968e-08
8.660256458e-09
-1.110214177e-08
-5.482393889e-09
-5.342851671e-08
-7.190227579e-08
-1.00852587e-07
-1.005753377e-07
-7.52383278e-08
-4.540559787e-08
5.693739684e-09
5.202197594e-09
4.608542159e-08
3.645495822e-08
9.820778882e-08
1.283208997e-07
1.362141706e-07
1.39071338e-07
9.318250583e-08
9.451313503e-08
7.332142004e-08
9.005103111e-08
5.952974152e-08
5.324796404e-08
5.965755967e-09
-3.335455509e-08
-4.903677637e-08
-8.227708317e-08
-6.763660498e-08
-7.224710693e-08
-4.879257519e-08
-3.673061887e-08
2.190199925e-08
5.858325602e-08
1.475962427e-07
1.828318292e-07
2.540247259e-07
3.276254001e-07
3.52361199e-07
4.391814459e-07
4.351920266e-07
4.640929102e-07
4.573856597e-07
4.558304423e-07
4.546552923e-07
4.333824339e-07
4.031802669e-07
3.527730785e-07
3.187709102e-07
2.959550413e-07
2.740251123e-07
2.750108852e-07
2.265418019e-07
2.085951403e-07
1.908420817e-07
1.620199021e-07
1.959700377e-07
1.372791228e-07
1.547902384e-07
1.242163865e-07
1.511249421e-07
2.133206653e-07
2.436968361e-07
3.104742248e-07
2.905232399e-07
3.142262362e-07
2.804977533e-07
2.962606602e-07
2.503682371e-07
2.005080234e-07
1.603244015e-07
1.054227203e-07
1.459555838e-07
1.548080075e-07
1.931285346e-07
2.108460238e-07
2.020054654e-07
2.149033269e-07
1.885278028e-07
1.842199074e-07
1.335200492e-07
9.453382891e-08
6.463031535e-08
1.683357685e-08
4.444231504e-08
5.517111133e-09
3.465766644e-08
4.497972789e-08
7.110107351e-08
9.914214682e-08
1.226989043e-07
1.138492551e-07
1.215357448e-07
1.223059185e-07
1.126880385e-07
1.496441968e-07
1.00992079e-07
1.259728097e-07
7.522474924e-08
6.430370894e-08
3.729021371e-08
-4.061995351e-09
-3.234607005e-08
-8.609643654e-08
-1.005356714e-07
-1.501371588e-07
-1.262563647e-07
-1.232540864e-07
-8.489029599e-08
-6.073507014e-08
-5.714205457e-08
-4.431766638e-08
-4.401591281e-08
-2.685652833e-08
-6.537114836e-09
1.963002426e-08
5.012418135e-08
8.207190806e-08
1.085530449e-07
1.12419403e-07
1.051774539e-07
9.613895779e-08
4.140605423e-08
2.780297737e-08
-3.802364346e-08
-6.946032631e-08
-1.112854087e-07
-1.744873955e-07
-1.917427629e-07
-2.546508133e-07
-2.625622341e-07
-2.978454486e-07
-3.158829622e-07
-3.353755591e-07
-3.395377572e-07
-3.343632624e-07
-3.267032132e-07
-3.001998393e-07
-2.986243061e-07
-2.781386568e-07
-2.787690136e-07
-2.644793353e-07
-2.284680441e-07
-2.055341446e-07
-1.533869672e-07
-1.383915592e-07
-8.737968279e-08
-5.184476846e-08
-8.615834903e-09
2.964444068e-08
3.636118669e-08
6.38216549e-08
5.768985547e-08
7.06479569e-08
4.346809019e-08
3.38982086e-08
-1.26193974e-08
-2.755978906e-08
-5.980367204e-08
-7.51433447e-08
-7.391215384e-08
-1.042473087e-07
-9.174644533e-08
-1.404990731e-07
-1.291325503e-07
-1.532600074e-07
-1.448973027e-07
-1.327800804e-07
-1.173952208e-07
-7.138785841e-08
-5.733613568e-08
-1.703233316e-08
-2.964676818e-08
-2.066982818e-08
-4.556962823e-08
-6.370300521e-08
-8.893646664e-08
-1.186315198e-07
-1.12269886e-07
-1.133394075e-07
-8.213415479e-08
-4.498809359e-08
-2.498812686e-08
8.084086764e-10
3.234135496e-09
1.018863895e-08
3.586181715e-08
4.450236638e-08
7.426490305e-08
7.916022912e-08
1.048154743e-07
1.290115223e-07
1.788099787e-07
2.130812052e-07
2.773139005e-07
3.259981455e-07
3.658637606e-07
4.133310449e-07
3.993791324e-07
4.069638479e-07
3.601124946e-07
3.336437709e-07
3.146509775e-07
3.086339821e-07
2.854844478e-07
2.677584779e-07
2.140024088e-07
1.594203412e-07
1.322184227e-07
8.50827813e-08
6.129734995e-08
2.897423678e-08
-1.174235982e-08
-4.187622781e-08
-4.109093245e-08
-6.087603978e-08
-2.19548934e-08
-2.894351563e-08
-1.599292647e-08
-8.456408336e-09
-1.689913134e-09
3.584225143e-08
7.698085749e-08
1.311498589e-07
1.688612941e-07
1.971827076e-07
1.904294199e-07
2.036617537e-07
1.790545995e-07
2.002331549e-07
1.683166428e-07
1.576584796e-07
1.179216105e-07
6.294086391e-08
3.504269455e-08
-2.371868203e-08
-3.502519677e-08
-7.778138825e-08
-9.917222915e-08
-1.295266988e-07
-1.368493378e-07
-1.624804015e-07
-1.646126442e-07
-1.894328865e-07
-1.977012509e-07
-1.887691556e-07
-1.945939259e-07
-1.595118358e-07
-1.478795477e-07
-1.203994353e-07
-9.977388288e-08
-9.600106083e-08
-7.880656923e-08
-7.842234621e-08
-8.248592038e-08
-5.343676176e-08
-6.282022047e-08
-3.364423894e-08
-5.5761269e-08
-8.165201112e-08
-1.100583663e-07
-1.400400077e-07
-1.595597593e-07
-1.807959077e-07
-2.035815286e-07
-2.403529957e-07
-2.215366151e-07
-2.28703094e-07
-1.601952714e-07
-1.310487635e-07
-1.178097436e-07
-1.223616792e-07
-1.343095358e-07
-1.304575508e-07
-9.865941923e-08
-5.050082697e-08
-2.567279438e-09
3.220966994e-08
4.579116936e-08
4.311691168e-08
4.323855115e-08
4.773233746e-08
2.986202147e-08
4.190991938e-08
1.260930951e-08
2.52178235e-09
-1.505322505e-08
-2.748496054e-08
-3.283385524e-08
-2.325428879e-08
-3.331672965e-08
-3.883498758e-08
-4.834023343e-08
-5.573737471e-08
-2.603989657e-08
-1.522335779e-08
3.043743226e-08
3.929200325e-08
9.493740647e-08
1.2772203e-07
1.869716382e-07
2.424008359e-07
2.700393212e-07
3.036606761e-07
3.194590409e-07
3.531591787e-07
3.687715547e-07
3.899147065e-07
3.735797882e-07
3.77378709e-07
3.469896179e-07
3.421732941e-07
3.167697247e-07
2.907699764e-07
2.475586947e-07
1.962578608e-07
1.555460963e-07
1.282040836e-07
1.124669663e-07
1.131699896e-07
1.028505997e-07
9.341395177e-08
1.137397301e-07
8.358743395e-08
1.280335475e-07
1.117269491e-07
1.418215629e-07
1.650191951e-07
1.746051866e-07
2.076966267e-07
2.244170764e-07
2.519455274e-07
2.761871754e-07
2.818659578e-07
2.74234037e-07
2.723143858e-07
2.416532408e-07
2.337414181e-07
2.123181945e-07
1.990694915e-07
1.920676817e-07
1.974091479e-07
2.01606186e-07
1.928758905e-07
1.852301845e-07
1.618541102e-07
1.559097285e-07
1.56324813e-07
1.427417141e-07
1.43316964e-07
1.053513359e-07
9.596009038e-08
7.938912548e-08
8.375591973e-08
4.548863666e-08
-2.32341037e-09
-1.133401498e-07
-1.962629624e-07
-3.14932613e-07
-3.962365401e-07
-5.625545269e-07
-7.595352216e-07
-8.835211059e-07
-9.509428671e-07
-1.118941496e-06
-1.321215301e-06
-1.483372002e-06
-1.693165432e-06
-1.85991205e-06
-2.060446501e-06
-2.142656681e-06
-2.226990451e-06
-2.420860277e-06
-2.692145217e-06
-2.728669212e-06
-2.717430413e-06
-2.687803111e-06
-2.793380571e-06
-2.959735894e-06
-2.978255754e-06
-2.986229911e-06
-3.002836904e-06
-3.016648947e-06
-3.010811586e-06
-3.008517733e-06
-3.000943985e-06
-2.985039214e-06
-2.975796619e-06
-2.950025063e-06
-2.943417078e-06
-2.938241684e-06
-2.938565612e-06
-2.944964344e-06
-2.942237674e-06
-2.93546038e-06
-2.933906718e-06
-2.927848123e-06
-2.923382655e-06
-2.919107013e-06
-2.907618681e-06
-2.908559569e-06
-2.914193787e-06
-2.922298902e-06
-2.920388861e-06
-2.919200644e-06
-2.900686711e-06
-2.898079944e-06
-2.905158297e-06
-2.893498606e-06
-2.883108843e-06
-2.847656808e-06
-2.806445894e-06
-2.778682797e-06
-2.748800302e-06
-2.714095317e-06
-2.667158791e-06
-2.605486106e-06
-2.528612264e-06
-2.486295393e-06
-2.423377503e-06
-2.372476776e-06
-2.317182997e-06
-2.213819018e-06
-2.093983207e-06
-1.939054636e-06
-1.929155334e-06
-1.844052349e-06
-1.632143973e-06
-1.373595603e-06
-1.215417186e-06
-1.148352692e-06
-1.124114212e-06
-8.650621998e-07
-6.926526463e-07
-5.711595057e-07
-4.334956644e-07
-3.416359946e-07
-2.219732733e-07
-1.932704893e-07
-1.304524825e-07
-2.053960035e-08
6.773236059e-08
0
0
0
0
0
0
0
0
0
0
0
0
0
0
0
0
0
0
0
0
0
0
0
0
0
0
0
0
0
0
0
0
0
0
0
0
0
0
0
0
0
0
0
0
0
0
0
0
0
0
0
0
0
0
0
0
0
0
0
0
0
0
0
0
0
0
0
0
0
0
0
0
0
0
0
0
0
0
0
0
0
0
0
0
0
0
0
0
0
0
0
0
0
0
0
0
0
0
0
0
0
0
0
0
0
0
0
0
0
0
0
0
0
0
0
0
0
0
0
0
0
0
0
0
0
0
0
0
0
0
0
0
0
0
0
0
0
0
0
0
0
0
0
0
0
0
0
0
0
0
0
0
0
0
0
0
0
0
0
0
0
0
0
0
0
0
0
0
0
0
0
0
0
0
0
0
0
0
0
0
0
0
0
0
0
0
0
0
0
0
0
0
0
0
0
0
0
0
0
0
0
0
0
0
0
0
0
0
0
0
0
0
0
0
0
0
0
0
0
0
0
0
0
0
0
0
0
0
0
0
0
0
0
0
0
0
0
0
0
0
0
0
0
0
0
0
0
0
0
0
0
0
0
0
0
0
0
0
0
0
0
0
0
0
0
0
0
0
0
0
0
0
0
0
0
0
0
0
0
0
0
0
0
0
0
0
0
0
0
0
0
0
0
0
0
-8.192267943e-08
-7.666928487e-08
3.779923032e-08
5.813685402e-08
1.173723392e-07
2.330476738e-07
2.760566529e-07
3.310279547e-07
4.757372138e-07
7.331821661e-07
7.992485219e-07
9.933400885e-07
1.133023687e-06
1.12487416e-06
9.506330801e-07
9.286836834e-07
1.048798479e-06
1.015628006e-06
8.95678535e-07
7.644361013e-07
4.039708766e-07
1.460193724e-07
-1.090480941e-07
-2.250465541e-07
-5.47005956e-07
-8.27319996e-07
-1.090804026e-06
-1.399904727e-06
-1.960808025e-06
-2.577711708e-06
-3.023005383e-06
-3.349382493e-06
-3.964503902e-06
-4.597211231e-06
-5.357824049e-06
-6.240138906e-06
-7.253417716e-06
-8.245742644e-06
-9.342894989e-06
-1.045636397e-05
-1.157300051e-05
-1.270182628e-05
-1.386358799e-05
-1.512343317e-05
-1.649675865e-05
-1.777351727e-05
-1.917414192e-05
-2.066689473e-05
-2.221717386e-05
-2.369491292e-05
-2.533099199e-05
-2.740712451e-05
-2.950430121e-05
-3.149598587e-05
-3.334874249e-05
-3.526373744e-05
-3.730782624e-05
-3.93400341e-05
-4.120037909e-05
-4.304808364e-05
-4.498961762e-05
-4.717579386e-05
-4.945664402e-05
-5.177682453e-05
-5.404812719e-05
-5.637905618e-05
-5.88497458e-05
-6.145748243e-05
-6.442823347e-05
-6.765015455e-05
-7.088520362e-05
-7.379473443e-05
-7.649140004e-05
-7.943184931e-05
-8.272375392e-05
-8.619655024e-05
-8.990179737e-05
-9.371468575e-05
-9.772898173e-05
-0.0001019195284
-0.0001061952911
-0.0001102575996
-0.0001144877443
-0.0001182954528
-0.0001222572449
-0.0001266165662
-0.000130957236
-0.000135206614
-0.0001391535138
-0.0001428805601
-0.0001465147685
-0.0001501597146
-0.0001541262446
-0.0001583547678
-0.0001627811257
-0.0001670904585
-0.0001710780446
-0.0001750009799
-0.000179402971
-0.0001837613764
-0.000188131894
-0.0001931516824
-0.0001987718035
-0.0002042534797
-0.0002093225356
-0.0002146959238
-0.0002198456712
-0.0002250016814
-0.0002304000137
-0.0002356807625
-0.0002405511294
-0.0002458266092
-0.0002519108884
-0.0002587635289
-0.0002654121833
-0.000271665906
-0.0002773927679
-0.00028339119
-0.0002901077926
-0.0002969949575
-0.0003033142535
-0.0003094870411
-0.000315673674
-0.0003219379671
-0.0003279630557
-0.0003337045184
-0.0003391647439
-0.0003446308916
-0.0003501650539
-0.0003559716116
-0.0003618247005
-0.0003683449094
-0.000375691062
-0.000383201025
-0.0003906688423
-0.0003975800273
-0.0004041131152
-0.0004111113144
-0.0004182429702
-0.0004255926668
-0.0004337838182
-0.00044290631
-0.0004518117625
-0.0004595252355
-0.000466190067
-0.0004722406071
-0.0004782618995
-0.0004839019327
-0.0004895990904
-0.0004959157573
-0.0005025498256
-0.0005090768502
-0.0005154198488
-0.0005214317032
-0.0005268581649
-0.0005318858691
-0.0005372037478
-0.0005427099557
-0.0005478267141
-0.0005531864538
-0.0005585874556
-0.000564063245
-0.0005694872546
-0.0005749864952
-0.0005807523386
-0.0005870786117
139.2404729
267.7556653
274.1195788
280.8085724
362.1896449
441.8567726
523.8874389
604.2071845
691.6692598
780.8420077
881.1960224
982.3909842
1085.757048
1194.660251
1319.989699
1442.591084
1552.085265
1652.712254
1742.15249
1837.124789
1934.735206
2026.214768
2125.96188
2239.249576
2363.34648
2486.497406
2601.077195
2707.258666
2814.111216
2921.223546
3023.174086
3128.125132
3253.998202
3406.982388
3561.005586
3690.565399
3813.388437
3934.624139
4057.312791
4172.870936
4276.058608
4382.862681
4490.008539
4606.223025
4736.814899
4860.190825
4970.960318
5077.672717
5178.125147
5276.102561
5376.940252
5479.930302
5582.807854
5695.355738
5821.285684
5944.362644
6064.736399
6186.104175
6304.616973
6422.853263
6553.579323
6696.76172
6826.649269
6944.800641
7060.263435
7179.726137
7295.841407
7408.854507
7505.677021
7604.454851
7722.734918
7844.864566
7973.990988
8093.006865
8211.558175
8340.54373
8459.792094
8563.405742
8666.812309
8774.120817
8880.902369
8980.367764
9080.825878
9182.82438
9286.163196
9392.63001
9501.95864
9618.016648
9733.994376
9854.895332
9975.450345
10087.9626
10192.84172
10296.22821
10392.69503
10489.77816
10594.49629
10707.72817
10828.19475
10938.58136
11044.46747
11163.81544
11286.29521
11406.02196
11521.48413
11629.76639
11742.26812
11852.69576
11952.19248
12058.9651
12165.3131
12261.82776
12362.97644
12469.19389
12577.94154
12682.64223
12785.54297
12892.34159
12994.9675
13103.34967
13214.26937
13317.51064
13424.02217
13546.38597
13664.66697
13776.91959
13897.30409
14012.35199
14127.64745
14246.85223
14365.93215
14476.05357
14579.09307
14685.84082
14790.98853
14900.57927
15013.47943
15118.10031
15211.74381
15302.86411
15403.31988
15515.01733
15623.91269
15718.43078
15811.10305
15915.93203
16027.04838
16133.55383
16238.96928
16342.59644
16446.60009
16545.41767
16637.05462
16725.46487
16820.37272
16919.69648
17033.97716
17161.35363
17290.61181
17419.23107
17544.52384
17680.91642
17827.28938
17962.15715
18094.87917
18225.01445
18355.69183
18497.83654
18660.80756
18833.744
18994.62141
19131.24713
19249.05317
19358.19876
19463.98198
19568.46195
19668.19673
19769.00014
19870.53737
19973.7836
20088.80127
20208.79479
20343.50899
20485.88485
20609.79593
20725.64912
20836.88705
20945.289
21054.65639
21162.87576
21274.2387
21388.1181
21513.11604
21645.88
21782.69627
21923.44329
22044.77333
22156.75824
22268.36971
22386.32942
22514.32464
22645.18462
22766.79547
22885.3875
23012.22884
23149.0196
23279.68581
23412.61466
23558.00412
23704.40967
23841.29106
23964.69661
24083.52985
24202.05103
24313.82973
24436.66473
24577.08285
24711.13183
24848.8124
24987.82388
25121.68438
25251.38598
25373.29527
25488.62702
25604.14735
25713.32024
25821.56009
25934.25187
26047.2697
26168.2875
26294.97228
26414.31153
26525.78946
26635.10636
26736.03897
26835.66177
26939.7737
27050.96477
27171.13538
27296.24012
27414.05897
27521.96224
27633.76007
27746.67312
27859.03428
27977.64678
28102.96976
28247.78244
28397.13257
28526.5905
28640.17402
28741.54774
28841.39969
28948.55481
29063.40753
29182.21041
29306.83475
29431.18978
29546.9712
29660.09853
29758.86432
29856.5046
29977.65621
30125.68879
30280.67244
30416.12641
30531.4861
30633.42027
30733.7
30842.90243
30945.46043
31043.88582
31148.28356
31251.31934
31351.89012
31453.15285
31556.7165
31663.67792
31775.3617
31886.80763
32000.73239
32114.90236
32233.65897
32354.29455
32455.86448
32550.41801
32645.08063
32740.66429
32845.16409
32947.16514
33053.15025
33168.72927
33288.2268
33414.5266
33543.04746
33664.97208
33782.73392
33898.86822
34010.04911
34111.97442
34224.66532
34348.3364
34471.55947
34603.13965
34718.36723
34825.25326
34954.02375
35096.15482
35232.29871
35366.95927
35494.99872
35616.29451
35733.4085
35849.48809
35959.33926
36076.29166
36186.32879
36288.85119
36384.54248
36481.02115
36582.39113
36682.76821
36773.91911
36867.53577
36970.72563
37078.46708
37190.01013
37293.98742
37398.04421
37509.97537
37613.62397
37710.79767
37803.01964
37891.11232
37985.02141
38084.18355
38185.43518
38295.70567
38413.25091
38540.23329
38659.4009
38763.92031
38867.99473
38968.18888
39084.73999
39200.22957
39322.60928
39443.22913
39562.14233
39690.48588
39825.02978
39949.22169
40061.85963
40180.65361
40314.60604
40438.43717
40555.7278
40674.58634
40780.05814
40881.49766
40990.09116
41121.39927
41277.90515
41443.96424
41593.1119
41720.28588
41828.38801
41932.35561
42042.81629
42157.03552
42289.68463
42425.7268
42549.6232
42663.77039
42778.88206
42890.25132
42990.98544
43097.02327
43207.09879
43311.48686
43418.63058
43533.73631
43659.14343
43790.09619
43918.50027
44045.24528
44165.91138
44289.56826
44412.85166
44532.86942
44639.80143
44744.34205
44856.50968
44982.69939
45132.34574
45281.9737
45416.33747
45533.42063
45634.37598
45733.63958
45832.98991
45934.33889
46034.22754
46134.62229
46242.43459
46356.13104
46465.18487
46568.30383
46667.49839
46766.30825
46869.09845
46978.43784
47094.20862
47208.49832
47313.239
47413.07519
47507.35048
47599.98105
47685.16476
47771.32446
47861.72539
47951.50341
48056.69354
48173.74976
48285.90302
48389.31304
48487.07548
48583.57729
48693.79697
48807.87117
48910.25889
49007.57884
49098.24169
49195.71366
49311.03852
49426.50344
49529.54418
49631.51365
49751.78813
49891.12382
50032.96816
50159.37199
50276.49001
50386.41387
50488.7055
50585.40639
50682.26673
50779.88475
50889.48054
51011.15551
51136.83907
51262.47476
51375.87772
51482.68902
51598.34348
51722.80937
51838.79142
51951.9744
52061.33385
52169.40702
52279.33232
52389.37168
52491.72222
52583.81952
52686.2871
52792.37504
52896.69167
52997.7296
53096.00976
53201.83121
53311.44421
53425.33601
53555.65615
53684.74608
53795.03419
53897.30671
53992.09862
54086.91124
54193.66914
54310.84369
54426.97317
54544.39527
54659.02144
54763.24203
54870.9567
54979.97994
55081.5177
55179.97749
55273.00585
55372.44345
55475.66608
55572.1807
55674.02806
55787.98247
55900.73541
56006.60922
56101.00777
56203.26915
56320.53808
56437.57655
56555.05322
56669.04042
56781.14917
56886.86311
56993.75989
57109.65469
57221.67009
57328.17088
57425.38236
57520.13692
57619.39975
57724.91402
57838.17673
57949.94295
58059.51953
58162.05359
58270.74437
58381.67652
58499.56103
58626.15307
58747.56668
58865.90635
58988.70009
59102.6445
59211.5919
59319.18518
59420.84303
59531.96854
59642.33846
59753.73455
59859.55358
59957.13208
60049.16821
60142.63256
60248.31638
60354.24693
60466.89636
60590.29399
60721.93337
60851.95432
60974.79023
61092.55075
61218.04721
61349.0696
61473.45654
61595.02135
61721.38393
61854.54081
61996.61264
62143.89016
62303.73889
62463.64444
62600.87797
62718.48357
62813.76706
62906.54246
63002.62104
63107.51585
63217.62362
63331.04752
63449.85557
63560.721
63663.6089
63761.54421
63861.16328
63965.74326
64081.35751
64200.73345
64314.93517
64425.84166
64534.34922
64647.1062
64784.13158
64925.19467
65063.87796
65193.22039
65303.49955
65416.294
65521.6615
65624.9734
65728.11524
65828.18204
65926.69393
66023.64739
66126.43962
66239.64451
66364.10078
66489.94282
66597.47086
66702.2155
66814.86273
66921.31323
67028.34042
67146.42559
67259.34768
67362.0081
67459.67924
67567.29695
67698.24326
67823.94296
67943.9139
68064.7456
68197.04637
68340.79176
68478.98722
68602.53633
68710.67788
68822.81776
68942.0051
69057.80414
69184.36372
69312.41252
69432.5822
69556.32925
69666.24158
69773.05766
69885.53888
70001.5855
70123.68552
70250.34004
70370.85963
70474.89672
70569.73859
70666.13169
70764.61546
70867.06038
70991.58239
71123.22635
71248.50663
71363.52142
71460.03203
71553.57603
71646.90628
71740.62937
71837.98047
71937.58685
72044.70216
72166.22199
72302.06356
72433.74225
72558.04319
72681.29241
72793.88055
72898.46168
72998.54259
73099.41608
73208.7106
73323.69292
73441.00766
73559.05849
73675.92491
73781.37063
73884.00912
73989.37377
74091.25194
74189.69398
74288.19037
74387.48977
74483.62659
74591.92721
74701.09788
74807.03707
74910.1089
75009.50664
75115.76919
75220.9196
75325.21605
75436.51884
75559.01284
75675.18912
75786.45936
75904.09389
76024.75387
76146.91766
76253.78802
76358.54743
76463.16364
76574.40876
76684.3344
76777.43654
76880.85419
76994.42087
77118.71849
77243.44011
77353.56621
77454.97359
77561.73967
77676.09596
77783.77163
77893.37402
78016.41126
78131.93146
78247.09421
78358.46862
78453.10893
78543.53136
78632.59243
78727.94904
78833.74315
78942.09254
79065.09753
79205.90627
79329.80255
79441.52756
79561.85522
79686.96628
79821.72218
79955.61473
80076.26213
80186.81026
80285.47749
80381.00019
80471.25363
80564.28567
80654.66213
80745.02087
80847.89842
80967.99302
81104.42157
81233.07593
81356.27607
81473.71092
81575.87984
81679.13111
81789.50959
81906.90354
82025.28374
82140.7591