/*--------------------------------*- C++ -*----------------------------------*\
| =========                 |                                                 |
| \\      /  F ield         | OpenFOAM: The Open Source CFD Toolbox           |
|  \\    /   O peration     | Version:  2012                                  |
|   \\  /    A nd           | Website:  www.openfoam.com                      |
|    \\/     M anipulation  |                                                 |
\*---------------------------------------------------------------------------*/
FoamFile
{
    version     2.0;
    format      ascii;
    class       volVectorField;
    location    "0.00011";
    object      U;
}
// * * * * * * * * * * * * * * * * * * * * * * * * * * * * * * * * * * * * * //

dimensions      [0 1 -1 0 0 0 0];


internalField   nonuniform List<vector> 
5000
(
(-3.096900813e-14 0 0)
(-2.436937621e-14 0 0)
(-2.583287962e-14 0 0)
(-3.207590352e-14 0 0)
(-3.685983717e-14 0 0)
(-3.996302145e-14 0 0)
(-4.164104098e-14 0 0)
(-4.115035162e-14 0 0)
(-4.626185225e-14 0 0)
(-5.789997908e-14 0 0)
(-7.048910106e-14 0 0)
(-7.539330667e-14 0 0)
(-7.269310204e-14 0 0)
(-6.29297538e-14 0 0)
(-4.290183537e-14 0 0)
(-1.135353756e-14 0 0)
(4.100496248e-14 0 0)
(9.502188963e-14 0 0)
(1.141046609e-13 0 0)
(1.0149787e-13 0 0)
(8.149888239e-14 0 0)
(8.234504537e-14 0 0)
(6.064032546e-14 0 0)
(5.012304261e-14 0 0)
(6.30257813e-14 0 0)
(1.29894404e-13 0 0)
(1.612921764e-13 0 0)
(1.453762106e-13 0 0)
(1.538715142e-13 0 0)
(1.570852767e-13 0 0)
(1.326896256e-13 0 0)
(1.602043621e-13 0 0)
(1.750871561e-13 0 0)
(1.76059463e-13 0 0)
(1.747107867e-13 0 0)
(1.718219547e-13 0 0)
(1.681914272e-13 0 0)
(1.764058778e-13 0 0)
(1.639131934e-13 0 0)
(1.544646623e-13 0 0)
(1.221649235e-13 0 0)
(1.262021294e-14 0 0)
(-2.847939184e-14 0 0)
(-4.653640162e-14 0 0)
(-5.864439454e-14 0 0)
(-6.051774558e-14 0 0)
(-5.550771421e-14 0 0)
(-3.769838422e-14 0 0)
(-9.27822988e-15 0 0)
(2.823805868e-14 0 0)
(6.882694571e-14 0 0)
(9.884138716e-14 0 0)
(1.148533275e-13 0 0)
(1.179572332e-13 0 0)
(1.195069158e-13 0 0)
(1.194573858e-13 0 0)
(1.201517913e-13 0 0)
(1.197188608e-13 0 0)
(1.174318822e-13 0 0)
(1.106771764e-13 0 0)
(1.027196062e-13 0 0)
(8.81716579e-14 0 0)
(6.477779399e-14 0 0)
(3.723775262e-14 0 0)
(1.167550519e-14 0 0)
(-1.06656602e-14 0 0)
(-2.273251528e-14 0 0)
(-3.346046467e-14 0 0)
(-3.843438991e-14 0 0)
(-3.968251605e-14 0 0)
(-3.725916197e-14 0 0)
(-3.44606844e-14 0 0)
(-3.553591614e-14 0 0)
(-3.919705336e-14 0 0)
(-4.714776376e-14 0 0)
(-5.888988502e-14 0 0)
(-6.720528279e-14 0 0)
(-7.116786759e-14 0 0)
(-7.296327974e-14 0 0)
(-7.424408398e-14 0 0)
(-7.655499427e-14 0 0)
(-7.723623054e-14 0 0)
(-7.871935179e-14 0 0)
(-8.299615673e-14 0 0)
(-8.222924785e-14 0 0)
(-8.093763239e-14 0 0)
(-8.766478577e-14 0 0)
(-8.935399108e-14 0 0)
(-8.896443353e-14 0 0)
(-8.416753838e-14 0 0)
(-7.869103638e-14 0 0)
(-7.494292212e-14 0 0)
(-6.883101212e-14 0 0)
(-6.800170466e-14 0 0)
(-6.569595557e-14 0 0)
(-6.277599835e-14 0 0)
(-5.492405319e-14 0 0)
(-4.544059171e-14 0 0)
(-2.829257851e-14 0 0)
(-2.931670893e-15 0 0)
(1.673502129e-14 0 0)
(4.189302531e-14 0 0)
(5.567970025e-14 0 0)
(6.561740326e-14 0 0)
(8.427930563e-14 0 0)
(1.038139635e-13 0 0)
(1.235864133e-13 0 0)
(1.329400554e-13 0 0)
(1.326076877e-13 0 0)
(1.300202414e-13 0 0)
(1.189625442e-13 0 0)
(1.123089578e-13 0 0)
(1.123485069e-13 0 0)
(1.137639416e-13 0 0)
(1.148295087e-13 0 0)
(1.107823541e-13 0 0)
(1.000661238e-13 0 0)
(8.390220002e-14 0 0)
(7.289915394e-14 0 0)
(6.282887964e-14 0 0)
(5.363206015e-14 0 0)
(4.355849491e-14 0 0)
(3.308945121e-14 0 0)
(1.474000992e-14 0 0)
(6.155970601e-15 0 0)
(4.152214034e-15 0 0)
(5.816852316e-15 0 0)
(4.473393924e-15 0 0)
(5.635315576e-16 0 0)
(-2.553121139e-15 0 0)
(-1.458568868e-15 0 0)
(-5.911604986e-16 0 0)
(-2.276779733e-15 0 0)
(-3.314193836e-16 0 0)
(6.471482889e-16 0 0)
(5.747648124e-15 0 0)
(8.026174229e-15 0 0)
(1.35588511e-14 0 0)
(1.591722262e-14 0 0)
(2.284395959e-14 0 0)
(2.759596848e-14 0 0)
(2.977090223e-14 0 0)
(2.679309409e-14 0 0)
(1.908438488e-14 0 0)
(1.416845033e-14 0 0)
(1.038255999e-14 0 0)
(3.665461115e-15 0 0)
(-2.037209807e-15 0 0)
(-1.086488286e-14 0 0)
(-1.764622624e-14 0 0)
(-2.482078808e-14 0 0)
(-2.700907216e-14 0 0)
(-2.729309639e-14 0 0)
(-2.690363321e-14 0 0)
(-3.087221901e-14 0 0)
(-4.633832636e-14 0 0)
(-6.129657973e-14 0 0)
(-8.457265476e-14 0 0)
(-9.750986914e-14 0 0)
(-9.713451118e-14 0 0)
(-1.013121618e-13 0 0)
(-1.039888006e-13 0 0)
(-1.06388382e-13 0 0)
(-1.062820299e-13 0 0)
(-1.039836007e-13 0 0)
(-1.006112455e-13 0 0)
(-9.526706687e-14 0 0)
(-8.985161306e-14 0 0)
(-8.23537315e-14 0 0)
(-7.723463973e-14 0 0)
(-6.657109962e-14 0 0)
(-5.531139799e-14 0 0)
(-4.341833566e-14 0 0)
(-2.602077453e-14 0 0)
(-1.661969287e-14 0 0)
(-1.439173153e-14 0 0)
(-1.918849539e-14 0 0)
(-2.692489279e-14 0 0)
(-4.289180352e-14 0 0)
(-5.862982453e-14 0 0)
(-6.80596872e-14 0 0)
(-7.01877442e-14 0 0)
(-6.922801924e-14 0 0)
(-6.13199624e-14 0 0)
(-5.497432352e-14 0 0)
(-4.153548111e-14 0 0)
(-3.326154544e-14 0 0)
(-1.784374539e-14 0 0)
(-1.040867735e-14 0 0)
(-1.090506655e-15 0 0)
(6.977884012e-15 0 0)
(1.518437977e-14 0 0)
(1.870574389e-14 0 0)
(2.184095518e-14 0 0)
(2.833412546e-14 0 0)
(3.236172896e-14 0 0)
(4.025466137e-14 0 0)
(4.707429393e-14 0 0)
(5.647261794e-14 0 0)
(6.707013359e-14 0 0)
(7.049452518e-14 0 0)
(6.72424871e-14 0 0)
(5.839030283e-14 0 0)
(3.74082753e-14 0 0)
(2.572052437e-14 0 0)
(1.95992813e-14 0 0)
(2.020645933e-14 0 0)
(2.697001655e-14 0 0)
(2.752036715e-14 0 0)
(2.985224544e-14 0 0)
(3.050377557e-14 0 0)
(2.979115325e-14 0 0)
(1.877160946e-14 0 0)
(3.119167434e-15 0 0)
(-6.893749551e-15 0 0)
(-1.028982513e-14 0 0)
(-1.003202896e-14 0 0)
(-1.202488242e-14 0 0)
(-1.195888729e-14 0 0)
(-1.82180002e-14 0 0)
(-2.837687347e-14 0 0)
(-4.139757208e-14 0 0)
(-5.068764809e-14 0 0)
(-4.882176584e-14 0 0)
(-4.274343856e-14 0 0)
(-3.53619741e-14 0 0)
(-3.109834229e-14 0 0)
(-2.879939605e-14 0 0)
(-2.516034779e-14 0 0)
(-1.993550298e-14 0 0)
(-1.010269865e-14 0 0)
(1.695581503e-16 0 0)
(1.570989683e-14 0 0)
(2.810671239e-14 0 0)
(4.006541179e-14 0 0)
(4.550857848e-14 0 0)
(4.444222117e-14 0 0)
(4.187463428e-14 0 0)
(3.246915613e-14 0 0)
(2.589410728e-14 0 0)
(1.455691006e-14 0 0)
(9.080968031e-15 0 0)
(6.722861794e-15 0 0)
(1.046789974e-14 0 0)
(2.294518172e-14 0 0)
(3.986390291e-14 0 0)
(6.26883985e-14 0 0)
(8.386295003e-14 0 0)
(1.047774306e-13 0 0)
(1.189229996e-13 0 0)
(1.277741829e-13 0 0)
(1.239860502e-13 0 0)
(1.222637646e-13 0 0)
(1.183751211e-13 0 0)
(1.137941679e-13 0 0)
(1.008499523e-13 0 0)
(8.822957502e-14 0 0)
(7.377786073e-14 0 0)
(5.472849556e-14 0 0)
(4.317537381e-14 0 0)
(2.745605401e-14 0 0)
(1.882997852e-14 0 0)
(7.795711318e-15 0 0)
(3.037044648e-15 0 0)
(-8.274308662e-16 0 0)
(-1.76981234e-15 0 0)
(-5.0713532e-15 0 0)
(-1.233237921e-14 0 0)
(-1.660286988e-14 0 0)
(-1.784235923e-14 0 0)
(-1.731384869e-14 0 0)
(-1.417629603e-14 0 0)
(-1.395767172e-14 0 0)
(-5.639362303e-15 0 0)
(6.399452813e-15 0 0)
(1.572775471e-14 0 0)
(1.90304575e-14 0 0)
(2.016867166e-14 0 0)
(1.423739804e-14 0 0)
(5.867376114e-16 0 0)
(-1.389125721e-14 0 0)
(-2.787752382e-14 0 0)
(-3.28696217e-14 0 0)
(-3.193872312e-14 0 0)
(-2.453241696e-14 0 0)
(-1.690268437e-14 0 0)
(-1.276639375e-14 0 0)
(-8.95436337e-15 0 0)
(-9.469226411e-15 0 0)
(-9.591606258e-15 0 0)
(-9.020223937e-15 0 0)
(-8.422044406e-15 0 0)
(-5.897793353e-15 0 0)
(-7.57247793e-15 0 0)
(-1.619244384e-15 0 0)
(6.133602369e-15 0 0)
(1.254616964e-14 0 0)
(1.385403004e-14 0 0)
(1.439346765e-14 0 0)
(1.488257295e-14 0 0)
(1.534876419e-14 0 0)
(1.020205277e-14 0 0)
(1.443900368e-15 0 0)
(-5.57127863e-15 0 0)
(-8.822797061e-15 0 0)
(-1.586389491e-14 0 0)
(-2.071868058e-14 0 0)
(-2.209575558e-14 0 0)
(-1.954974797e-14 0 0)
(-1.657846257e-14 0 0)
(-1.338782803e-14 0 0)
(-5.780876268e-15 0 0)
(1.061784431e-14 0 0)
(2.118239177e-14 0 0)
(3.055993249e-14 0 0)
(2.994755129e-14 0 0)
(2.958192809e-14 0 0)
(2.954493101e-14 0 0)
(2.808181246e-14 0 0)
(2.786888233e-14 0 0)
(2.510672169e-14 0 0)
(2.05062932e-14 0 0)
(8.088940083e-15 0 0)
(1.487507776e-15 0 0)
(5.099024693e-15 0 0)
(1.165545559e-14 0 0)
(1.591611169e-14 0 0)
(1.552631527e-14 0 0)
(1.207506547e-14 0 0)
(7.803265676e-15 0 0)
(1.728744131e-15 0 0)
(-5.341243965e-15 0 0)
(-9.229757913e-15 0 0)
(-1.57005731e-14 0 0)
(-2.168412591e-14 0 0)
(-3.110658368e-14 0 0)
(-4.324050812e-14 0 0)
(-4.924852092e-14 0 0)
(-5.838558688e-14 0 0)
(-6.073579348e-14 0 0)
(-6.249107591e-14 0 0)
(-5.495421268e-14 0 0)
(-4.107599582e-14 0 0)
(-2.63275164e-14 0 0)
(-1.073189031e-14 0 0)
(-5.084426584e-15 0 0)
(2.816073795e-15 0 0)
(1.085427281e-14 0 0)
(1.97359467e-14 0 0)
(2.222341671e-14 0 0)
(2.108329223e-14 0 0)
(1.626231531e-14 0 0)
(1.276605852e-14 0 0)
(5.10345603e-15 0 0)
(-9.484073486e-16 0 0)
(-1.790568466e-15 0 0)
(-3.457566943e-15 0 0)
(-4.497542708e-15 0 0)
(-4.030335562e-15 0 0)
(6.034298173e-15 0 0)
(1.277592366e-14 0 0)
(2.943748458e-14 0 0)
(3.886290613e-14 0 0)
(4.752536966e-14 0 0)
(4.941397796e-14 0 0)
(4.943256717e-14 0 0)
(4.461514198e-14 0 0)
(3.366578685e-14 0 0)
(1.507747887e-14 0 0)
(-3.733251761e-15 0 0)
(-1.490619103e-14 0 0)
(-2.21975584e-14 0 0)
(-1.988531845e-14 0 0)
(-1.458500282e-14 0 0)
(-4.471865349e-15 0 0)
(4.62903653e-15 0 0)
(6.048099049e-15 0 0)
(2.293159059e-15 0 0)
(-4.743889075e-15 0 0)
(-4.596260122e-15 0 0)
(-3.857523413e-15 0 0)
(-3.843254893e-15 0 0)
(-2.469882434e-15 0 0)
(1.303587798e-15 0 0)
(8.609864652e-17 0 0)
(-1.804865574e-15 0 0)
(-5.247309173e-15 0 0)
(-1.113751421e-15 0 0)
(5.254564794e-15 0 0)
(1.15870019e-14 0 0)
(1.501874962e-14 0 0)
(1.46261848e-14 0 0)
(1.091586065e-14 0 0)
(5.132877476e-15 0 0)
(-1.199108267e-15 0 0)
(-1.970219269e-15 0 0)
(-4.483561152e-15 0 0)
(-6.020206529e-15 0 0)
(-9.711795463e-15 0 0)
(-7.947572963e-15 0 0)
(-3.31291131e-15 0 0)
(2.296604266e-15 0 0)
(3.815240382e-15 0 0)
(5.008189391e-16 0 0)
(-2.468662552e-15 0 0)
(-1.676962118e-14 0 0)
(-3.466470499e-14 0 0)
(-4.017473182e-14 0 0)
(-3.819093507e-14 0 0)
(-3.185618207e-14 0 0)
(-2.430131862e-14 0 0)
(-1.704528761e-14 0 0)
(-1.097037388e-14 0 0)
(-7.001638908e-15 0 0)
(-3.206007603e-15 0 0)
(6.471925079e-16 0 0)
(-4.169498524e-16 0 0)
(4.216692648e-15 0 0)
(1.125675192e-14 0 0)
(2.129217443e-14 0 0)
(2.955903604e-14 0 0)
(3.003830791e-14 0 0)
(2.845059858e-14 0 0)
(2.136678156e-14 0 0)
(1.30536667e-14 0 0)
(1.237657901e-14 0 0)
(1.355520965e-14 0 0)
(1.455846954e-14 0 0)
(1.194250675e-14 0 0)
(6.61411187e-15 0 0)
(3.809208902e-16 0 0)
(-8.366366601e-15 0 0)
(-1.293843003e-14 0 0)
(-1.340488135e-14 0 0)
(-1.13268154e-14 0 0)
(-9.715227815e-15 0 0)
(-1.121009124e-14 0 0)
(-1.040358794e-14 0 0)
(-4.320222944e-15 0 0)
(-1.820622227e-15 0 0)
(-7.418740827e-15 0 0)
(-1.662299721e-14 0 0)
(-2.39043206e-14 0 0)
(-2.573474868e-14 0 0)
(-2.620416009e-14 0 0)
(-2.272961029e-14 0 0)
(-1.847343797e-14 0 0)
(-1.307759358e-14 0 0)
(-6.475245901e-15 0 0)
(3.187422362e-15 0 0)
(1.542280753e-14 0 0)
(2.173699796e-14 0 0)
(2.103269745e-14 0 0)
(1.966042196e-14 0 0)
(1.972277113e-14 0 0)
(1.901660929e-14 0 0)
(1.838080671e-14 0 0)
(1.808139071e-14 0 0)
(1.83834075e-14 0 0)
(1.681165346e-14 0 0)
(1.308992764e-14 0 0)
(1.018397635e-14 0 0)
(1.285470353e-14 0 0)
(1.264393642e-14 0 0)
(1.520900607e-14 0 0)
(1.494022743e-14 0 0)
(1.437697461e-14 0 0)
(1.56875313e-14 0 0)
(1.702322598e-14 0 0)
(1.485106499e-14 0 0)
(2.921642356e-15 0 0)
(-8.137875415e-15 0 0)
(-2.449544271e-14 0 0)
(-2.982122866e-14 0 0)
(-3.927973343e-14 0 0)
(-4.423634274e-14 0 0)
(-4.625443223e-14 0 0)
(-3.544413789e-14 0 0)
(-1.69886484e-14 0 0)
(2.864661089e-15 0 0)
(2.233132741e-14 0 0)
(2.859233448e-14 0 0)
(3.196013364e-14 0 0)
(3.049710675e-14 0 0)
(2.548840858e-14 0 0)
(1.374617012e-14 0 0)
(8.914084229e-15 0 0)
(5.254342518e-15 0 0)
(6.712864863e-16 0 0)
(-1.053947134e-14 0 0)
(-2.052564788e-14 0 0)
(-2.727238408e-14 0 0)
(-2.676700274e-14 0 0)
(-2.28600776e-14 0 0)
(-1.70608289e-14 0 0)
(-1.064091002e-14 0 0)
(-5.883951168e-15 0 0)
(3.258133144e-15 0 0)
(8.391434352e-15 0 0)
(9.474717551e-15 0 0)
(1.017854849e-14 0 0)
(1.120402009e-14 0 0)
(1.071504476e-14 0 0)
(1.254939437e-14 0 0)
(1.322889485e-14 0 0)
(1.255441555e-14 0 0)
(9.875427464e-15 0 0)
(8.113054795e-15 0 0)
(5.273066886e-16 0 0)
(-2.628528331e-15 0 0)
(-2.691742979e-15 0 0)
(-2.510755533e-15 0 0)
(-7.740651168e-15 0 0)
(-1.13958985e-14 0 0)
(-1.620812925e-14 0 0)
(-1.929320221e-14 0 0)
(-1.820887524e-14 0 0)
(-1.427151568e-14 0 0)
(-6.81449137e-15 0 0)
(2.310885453e-15 0 0)
(1.462071862e-14 0 0)
(2.438447661e-14 0 0)
(2.870251327e-14 0 0)
(2.85895653e-14 0 0)
(2.866932183e-14 0 0)
(2.706110939e-14 0 0)
(2.679719373e-14 0 0)
(2.763789525e-14 0 0)
(3.1293334e-14 0 0)
(3.413137945e-14 0 0)
(3.53562199e-14 0 0)
(3.30440695e-14 0 0)
(2.383286738e-14 0 0)
(9.636763632e-15 0 0)
(-4.723294192e-15 0 0)
(-1.448006005e-14 0 0)
(-1.903145545e-14 0 0)
(-1.666196697e-14 0 0)
(-1.165044624e-14 0 0)
(-2.467560436e-15 0 0)
(4.522262514e-15 0 0)
(1.180462493e-14 0 0)
(1.446522032e-14 0 0)
(1.732431174e-14 0 0)
(1.676040182e-14 0 0)
(1.302402135e-14 0 0)
(4.51727478e-15 0 0)
(-9.049277794e-15 0 0)
(-1.956208784e-14 0 0)
(-2.754499029e-14 0 0)
(-3.314779892e-14 0 0)
(-3.686327605e-14 0 0)
(-3.983790734e-14 0 0)
(-3.693102901e-14 0 0)
(-3.469144478e-14 0 0)
(-3.412590389e-14 0 0)
(-2.457578844e-14 0 0)
(-1.561907427e-14 0 0)
(-5.105329934e-15 0 0)
(-5.666025405e-16 0 0)
(6.298949534e-15 0 0)
(9.392241803e-15 0 0)
(3.793304156e-15 0 0)
(-3.180291191e-15 0 0)
(-4.700640747e-15 0 0)
(-2.631862995e-15 0 0)
(2.081856498e-15 0 0)
(6.015388885e-15 0 0)
(8.885958696e-15 0 0)
(1.04352058e-14 0 0)
(1.012447865e-14 0 0)
(1.06733392e-14 0 0)
(1.239933719e-14 0 0)
(9.045165443e-15 0 0)
(6.212805686e-15 0 0)
(5.562742049e-15 0 0)
(4.033506325e-15 0 0)
(2.085445347e-15 0 0)
(-4.425149686e-15 0 0)
(-1.290201487e-14 0 0)
(-1.473872398e-14 0 0)
(-1.089550358e-14 0 0)
(-4.847289028e-15 0 0)
(3.214358335e-15 0 0)
(9.597481038e-15 0 0)
(1.427999594e-14 0 0)
(1.574566456e-14 0 0)
(1.574918778e-14 0 0)
(1.525194733e-14 0 0)
(1.239580015e-14 0 0)
(6.019795828e-15 0 0)
(5.12102171e-15 0 0)
(-3.341811569e-15 0 0)
(-1.991050088e-15 0 0)
(9.501687984e-16 0 0)
(2.071642824e-15 0 0)
(5.324878086e-16 0 0)
(-5.707058053e-15 0 0)
(-1.036170677e-14 0 0)
(-1.493209842e-14 0 0)
(-1.723545078e-14 0 0)
(-1.93605563e-14 0 0)
(-1.940836372e-14 0 0)
(-1.801476115e-14 0 0)
(-1.209545171e-14 0 0)
(-2.577066761e-15 0 0)
(4.02106903e-15 0 0)
(1.088370204e-14 0 0)
(1.411855041e-14 0 0)
(1.559692266e-14 0 0)
(1.605268114e-14 0 0)
(2.0266452e-14 0 0)
(2.040976745e-14 0 0)
(1.715627692e-14 0 0)
(8.783600802e-15 0 0)
(2.111873753e-15 0 0)
(6.859327455e-16 0 0)
(-1.595170716e-15 0 0)
(-7.635761248e-16 0 0)
(6.190184194e-16 0 0)
(4.429618752e-16 0 0)
(-1.431986858e-16 0 0)
(-4.246034162e-15 0 0)
(-7.185346492e-15 0 0)
(-9.396161987e-15 0 0)
(-9.692201323e-15 0 0)
(-6.084960227e-15 0 0)
(-2.16876511e-16 0 0)
(-1.817089684e-15 0 0)
(8.336391089e-15 0 0)
(1.310538955e-14 0 0)
(1.205674376e-14 0 0)
(1.390481394e-14 0 0)
(1.489077254e-14 0 0)
(1.757294863e-14 0 0)
(1.804558935e-14 0 0)
(1.901556686e-14 0 0)
(1.56449748e-14 0 0)
(1.291882166e-14 0 0)
(1.133264165e-14 0 0)
(8.148936786e-15 0 0)
(4.780348025e-15 0 0)
(-3.504911939e-16 0 0)
(-7.379180922e-15 0 0)
(-1.388587123e-14 0 0)
(-2.033768357e-14 0 0)
(-2.345517936e-14 0 0)
(-2.461317708e-14 0 0)
(-2.534548713e-14 0 0)
(-2.116932824e-14 0 0)
(-1.223395799e-14 0 0)
(-8.176585536e-17 0 0)
(8.733287953e-15 0 0)
(1.937862889e-14 0 0)
(2.299789189e-14 0 0)
(2.257276972e-14 0 0)
(1.922125108e-14 0 0)
(1.392147077e-14 0 0)
(4.633250138e-15 0 0)
(-5.661832192e-15 0 0)
(-7.338367194e-15 0 0)
(-1.01720114e-14 0 0)
(-7.768945262e-15 0 0)
(-4.999888795e-15 0 0)
(-4.141407005e-15 0 0)
(-5.938911097e-15 0 0)
(-7.392025436e-15 0 0)
(-7.676189901e-15 0 0)
(-6.739214785e-15 0 0)
(-7.524809634e-15 0 0)
(-1.076927658e-15 0 0)
(4.894453207e-15 0 0)
(8.230309722e-15 0 0)
(5.949746942e-15 0 0)
(4.216119916e-15 0 0)
(-1.681117656e-15 0 0)
(-7.381863001e-15 0 0)
(-8.932427253e-15 0 0)
(-1.008336151e-14 0 0)
(-1.254915092e-14 0 0)
(-1.018653024e-14 0 0)
(-7.33275984e-15 0 0)
(-4.607076368e-15 0 0)
(-5.223087867e-15 0 0)
(-8.132506395e-15 0 0)
(-1.135022595e-14 0 0)
(-1.873177859e-14 0 0)
(-2.242295497e-14 0 0)
(-2.277473529e-14 0 0)
(-2.131248352e-14 0 0)
(-1.635516668e-14 0 0)
(-3.08553518e-15 0 0)
(1.210297347e-14 0 0)
(1.992719853e-14 0 0)
(2.446110533e-14 0 0)
(2.458866767e-14 0 0)
(2.421015107e-14 0 0)
(1.961748747e-14 0 0)
(1.456299818e-14 0 0)
(1.157813662e-14 0 0)
(9.239980727e-15 0 0)
(1.012998334e-14 0 0)
(9.430112841e-15 0 0)
(9.872499423e-15 0 0)
(8.5959203e-15 0 0)
(8.102998971e-15 0 0)
(2.855087369e-15 0 0)
(-4.037821211e-15 0 0)
(-4.63784442e-15 0 0)
(-3.579590476e-15 0 0)
(-3.526527611e-15 0 0)
(-3.063128202e-15 0 0)
(2.555503647e-15 0 0)
(9.660632707e-15 0 0)
(2.152617127e-14 0 0)
(3.047249284e-14 0 0)
(3.75293063e-14 0 0)
(4.010627951e-14 0 0)
(3.784699162e-14 0 0)
(3.424143314e-14 0 0)
(2.04554588e-14 0 0)
(7.660618651e-15 0 0)
(-5.130859743e-15 0 0)
(-1.763988612e-14 0 0)
(-3.111907909e-14 0 0)
(-3.868852546e-14 0 0)
(-4.454885555e-14 0 0)
(-4.377682155e-14 0 0)
(-3.801285829e-14 0 0)
(-2.553111116e-14 0 0)
(-1.525288147e-14 0 0)
(9.334430531e-16 0 0)
(1.575284049e-14 0 0)
(2.562543004e-14 0 0)
(2.958894403e-14 0 0)
(3.100285884e-14 0 0)
(3.199973081e-14 0 0)
(2.775958341e-14 0 0)
(2.205291623e-14 0 0)
(1.207723462e-14 0 0)
(5.446450688e-15 0 0)
(-1.941687794e-15 0 0)
(-8.531363765e-15 0 0)
(-1.348903541e-14 0 0)
(-1.665490486e-14 0 0)
(-1.998259081e-14 0 0)
(-2.258087164e-14 0 0)
(-2.138212611e-14 0 0)
(-1.889711545e-14 0 0)
(-1.547610839e-14 0 0)
(-1.036530901e-14 0 0)
(-7.165455119e-15 0 0)
(-2.024903291e-15 0 0)
(2.137687632e-15 0 0)
(3.033877959e-15 0 0)
(2.455760338e-15 0 0)
(-2.801805962e-15 0 0)
(-8.092865147e-15 0 0)
(-2.259140525e-14 0 0)
(-2.819064216e-14 0 0)
(-3.046059914e-14 0 0)
(-3.045125275e-14 0 0)
(-2.956723721e-14 0 0)
(-2.373640759e-14 0 0)
(-1.281196042e-14 0 0)
(-2.271360646e-15 0 0)
(4.282070938e-15 0 0)
(6.527513219e-15 0 0)
(6.938496822e-15 0 0)
(7.582468828e-15 0 0)
(8.922281215e-15 0 0)
(1.102036443e-14 0 0)
(1.169255094e-14 0 0)
(1.323299099e-14 0 0)
(1.254212118e-14 0 0)
(8.211147563e-15 0 0)
(6.276275689e-15 0 0)
(3.12272543e-15 0 0)
(6.53874567e-15 0 0)
(7.758127361e-15 0 0)
(4.436164538e-15 0 0)
(2.512501296e-15 0 0)
(-3.093228078e-15 0 0)
(-6.5774365e-15 0 0)
(-7.220480863e-15 0 0)
(-4.41720851e-15 0 0)
(-2.334978827e-15 0 0)
(6.163646146e-16 0 0)
(3.791124423e-15 0 0)
(4.694995914e-15 0 0)
(6.011424e-15 0 0)
(5.282685662e-15 0 0)
(5.931291802e-15 0 0)
(5.392630256e-15 0 0)
(4.666584688e-15 0 0)
(3.531784747e-16 0 0)
(-1.986044034e-15 0 0)
(-2.134441898e-15 0 0)
(-2.4401251e-15 0 0)
(1.221469279e-15 0 0)
(3.478882174e-15 0 0)
(3.624132324e-15 0 0)
(2.399455174e-15 0 0)
(3.19435637e-15 0 0)
(3.818771769e-15 0 0)
(7.293926671e-15 0 0)
(5.673546457e-15 0 0)
(6.265533249e-15 0 0)
(7.651770986e-15 0 0)
(1.330659177e-14 0 0)
(1.319184337e-14 0 0)
(1.084306005e-14 0 0)
(4.437840855e-15 0 0)
(-1.564865771e-15 0 0)
(-2.361505984e-15 0 0)
(-4.679686658e-15 0 0)
(-5.718133436e-15 0 0)
(-9.040852831e-15 0 0)
(-1.295107221e-14 0 0)
(-1.790970449e-14 0 0)
(-2.075064335e-14 0 0)
(-2.178055563e-14 0 0)
(-1.715777994e-14 0 0)
(-3.902309637e-15 0 0)
(6.211160427e-15 0 0)
(1.135168447e-14 0 0)
(1.057743109e-14 0 0)
(9.349085384e-15 0 0)
(-1.255079503e-15 0 0)
(-7.569025436e-15 0 0)
(-1.851820634e-14 0 0)
(-2.484598453e-14 0 0)
(-2.963779891e-14 0 0)
(-2.89541833e-14 0 0)
(-2.567304035e-14 0 0)
(-1.96231926e-14 0 0)
(-1.537928354e-14 0 0)
(-1.58178462e-14 0 0)
(-1.54958328e-14 0 0)
(-1.535775342e-14 0 0)
(-1.33937241e-14 0 0)
(1.109225257e-15 0 0)
(2.172823652e-14 0 0)
(3.73421356e-14 0 0)
(4.188767466e-14 0 0)
(4.327092585e-14 0 0)
(4.033500501e-14 0 0)
(3.333839764e-14 0 0)
(2.217043643e-14 0 0)
(1.54071362e-14 0 0)
(2.878348107e-15 0 0)
(-8.953720515e-15 0 0)
(-1.709401327e-14 0 0)
(-2.544025805e-14 0 0)
(-3.305344679e-14 0 0)
(-3.750882254e-14 0 0)
(-3.185172675e-14 0 0)
(-2.209253854e-14 0 0)
(-1.215723079e-14 0 0)
(-3.339913734e-15 0 0)
(-8.819835368e-16 0 0)
(-1.623824646e-17 0 0)
(2.015262489e-15 0 0)
(4.30290108e-15 0 0)
(7.861987782e-15 0 0)
(1.206618243e-14 0 0)
(1.467410558e-14 0 0)
(1.48384575e-14 0 0)
(1.350543858e-14 0 0)
(9.526990843e-15 0 0)
(3.023030692e-15 0 0)
(-7.228458362e-15 0 0)
(-1.415566341e-14 0 0)
(-1.625861673e-14 0 0)
(-1.647540967e-14 0 0)
(-1.741890506e-14 0 0)
(-2.206977012e-14 0 0)
(-2.588053151e-14 0 0)
(-2.911690666e-14 0 0)
(-2.678802372e-14 0 0)
(-2.560429142e-14 0 0)
(-2.377325517e-14 0 0)
(-2.317360818e-14 0 0)
(-2.341401332e-14 0 0)
(-2.368516471e-14 0 0)
(-2.417873037e-14 0 0)
(-2.173917605e-14 0 0)
(-2.019474668e-14 0 0)
(-2.384122985e-14 0 0)
(-2.912808684e-14 0 0)
(-3.163057283e-14 0 0)
(-3.028666535e-14 0 0)
(-3.005158793e-14 0 0)
(-2.978919959e-14 0 0)
(-2.703482937e-14 0 0)
(-1.85853332e-14 0 0)
(-9.927441317e-15 0 0)
(4.988988414e-15 0 0)
(1.503756356e-14 0 0)
(2.952615292e-14 0 0)
(3.423779027e-14 0 0)
(3.673005537e-14 0 0)
(3.541652871e-14 0 0)
(3.45472203e-14 0 0)
(3.520412048e-14 0 0)
(3.464864331e-14 0 0)
(3.426102382e-14 0 0)
(3.02451163e-14 0 0)
(2.584305057e-14 0 0)
(1.747465211e-14 0 0)
(1.147133777e-14 0 0)
(-8.715402586e-16 0 0)
(-7.53678432e-15 0 0)
(-1.197123295e-14 0 0)
(-7.641132665e-15 0 0)
(1.320969495e-15 0 0)
(1.222423024e-14 0 0)
(1.90995592e-14 0 0)
(1.901822995e-14 0 0)
(2.033093518e-14 0 0)
(2.051656267e-14 0 0)
(2.026511519e-14 0 0)
(2.513841887e-14 0 0)
(2.713000608e-14 0 0)
(2.731367947e-14 0 0)
(2.447723122e-14 0 0)
(2.084238758e-14 0 0)
(1.404441334e-14 0 0)
(1.185584262e-14 0 0)
(7.165939979e-15 0 0)
(-2.136943759e-17 0 0)
(-2.518144265e-15 0 0)
(-1.791320435e-15 0 0)
(-2.331345563e-15 0 0)
(-2.950663541e-15 0 0)
(-2.367682303e-15 0 0)
(-1.171983582e-15 0 0)
(-1.494024159e-15 0 0)
(-1.6705391e-15 0 0)
(4.556326687e-15 0 0)
(9.126748805e-15 0 0)
(5.478251612e-15 0 0)
(1.528822e-15 0 0)
(-1.96731436e-15 0 0)
(-2.134252031e-15 0 0)
(1.937027372e-15 0 0)
(1.170797142e-14 0 0)
(1.272110934e-14 0 0)
(1.449233296e-14 0 0)
(1.407087271e-14 0 0)
(1.106595958e-14 0 0)
(6.283273319e-15 0 0)
(4.117043633e-15 0 0)
(2.916636464e-15 0 0)
(2.533512306e-15 0 0)
(1.618552318e-15 0 0)
(-8.800677357e-16 0 0)
(1.305165033e-15 0 0)
(1.4802217e-15 0 0)
(1.195171403e-16 0 0)
(2.247507432e-15 0 0)
(5.789483764e-15 0 0)
(7.225820557e-15 0 0)
(8.541846224e-15 0 0)
(5.978036475e-15 0 0)
(2.602652973e-15 0 0)
(-1.292027124e-15 0 0)
(-4.879181423e-15 0 0)
(-7.608833129e-15 0 0)
(-1.309112457e-14 0 0)
(-1.780181816e-14 0 0)
(-2.32718523e-14 0 0)
(-2.145529577e-14 0 0)
(-2.036841679e-14 0 0)
(-2.379824898e-14 0 0)
(-3.254909116e-14 0 0)
(-4.494720588e-14 0 0)
(-5.813520897e-14 0 0)
(-7.317518773e-14 0 0)
(-7.656121511e-14 0 0)
(-8.264766504e-14 0 0)
(-8.898466157e-14 0 0)
(-9.813798649e-14 0 0)
(-1.108127481e-13 0 0)
(-1.179422755e-13 0 0)
(-1.199858571e-13 0 0)
(-1.170244719e-13 0 0)
(-1.058469624e-13 0 0)
(-1.007073258e-13 0 0)
(-9.168919903e-14 0 0)
(-8.598027348e-14 0 0)
(-7.046726836e-14 0 0)
(-6.196112414e-14 0 0)
(-4.548223073e-14 0 0)
(-3.579707204e-14 0 0)
(-2.444561298e-14 0 0)
(-1.385093039e-14 0 0)
(-5.418060817e-15 0 0)
(-9.63501222e-16 0 0)
(-5.183938133e-15 0 0)
(-9.668943339e-15 0 0)
(-1.25502231e-14 0 0)
(-1.356526545e-14 0 0)
(-1.366350793e-14 0 0)
(-1.228487339e-14 0 0)
(-8.873513391e-15 0 0)
(-1.811554587e-15 0 0)
(1.25036633e-14 0 0)
(2.289856537e-14 0 0)
(3.452674805e-14 0 0)
(4.252305233e-14 0 0)
(5.286214317e-14 0 0)
(7.037397086e-14 0 0)
(8.309270814e-14 0 0)
(8.583706113e-14 0 0)
(8.580050881e-14 0 0)
(7.494557527e-14 0 0)
(5.150871646e-14 0 0)
(2.453144759e-14 0 0)
(8.609543115e-16 0 0)
(-1.540806149e-14 0 0)
(-2.426338482e-14 0 0)
(-2.707854791e-14 0 0)
(-2.695310232e-14 0 0)
(-2.139482677e-14 0 0)
(-7.348355952e-15 0 0)
(1.184316203e-14 0 0)
(2.466235002e-14 0 0)
(2.935775623e-14 0 0)
(2.607100175e-14 0 0)
(2.333138996e-14 0 0)
(2.346335954e-14 0 0)
(3.343488984e-14 0 0)
(4.419001836e-14 0 0)
(5.421796985e-14 0 0)
(5.783354385e-14 0 0)
(5.514505502e-14 0 0)
(4.52285383e-14 0 0)
(3.877823209e-14 0 0)
(3.140024636e-14 0 0)
(2.351804894e-14 0 0)
(8.684169522e-15 0 0)
(-2.475466794e-15 0 0)
(-1.785223406e-14 0 0)
(-2.225564747e-14 0 0)
(-2.380268114e-14 0 0)
(-2.033184888e-14 0 0)
(-1.625442276e-14 0 0)
(-1.939648137e-14 0 0)
(-1.940980217e-14 0 0)
(-2.303375843e-14 0 0)
(-2.393212212e-14 0 0)
(-2.203046932e-14 0 0)
(-1.482473779e-14 0 0)
(3.415657778e-15 0 0)
(2.180162772e-14 0 0)
(4.127772553e-14 0 0)
(5.10256411e-14 0 0)
(5.655691814e-14 0 0)
(5.794015266e-14 0 0)
(5.599826928e-14 0 0)
(5.308179286e-14 0 0)
(4.082495405e-14 0 0)
(2.556337295e-14 0 0)
(6.908268201e-15 0 0)
(-1.186832676e-14 0 0)
(-2.886641372e-14 0 0)
(-4.303203202e-14 0 0)
(-4.777167948e-14 0 0)
(-5.015535391e-14 0 0)
(-4.917292501e-14 0 0)
(-4.135436561e-14 0 0)
(-2.695445421e-14 0 0)
(-7.023014242e-15 0 0)
(7.953568731e-15 0 0)
(1.679968252e-14 0 0)
(1.860996072e-14 0 0)
(1.797340095e-14 0 0)
(1.258649669e-14 0 0)
(9.328175467e-15 0 0)
(2.817220837e-15 0 0)
(-5.633874553e-15 0 0)
(-1.966002388e-14 0 0)
(-3.214891178e-14 0 0)
(-5.092953616e-14 0 0)
(-6.736330884e-14 0 0)
(-8.106738701e-14 0 0)
(-8.337948896e-14 0 0)
(-8.569954286e-14 0 0)
(-8.393159774e-14 0 0)
(-7.041786177e-14 0 0)
(-4.494718257e-14 0 0)
(-1.390153696e-14 0 0)
(1.463588461e-14 0 0)
(3.38358467e-14 0 0)
(4.851101492e-14 0 0)
(5.42045162e-14 0 0)
(5.125499654e-14 0 0)
(3.915079109e-14 0 0)
(2.442992923e-14 0 0)
(1.306520124e-14 0 0)
(-3.211760466e-15 0 0)
(-2.396277455e-14 0 0)
(-4.821003282e-14 0 0)
(-6.707343931e-14 0 0)
(-7.610206826e-14 0 0)
(-8.250053748e-14 0 0)
(-8.022417857e-14 0 0)
(-7.835815758e-14 0 0)
(-7.703092156e-14 0 0)
(-6.507657876e-14 0 0)
(-4.891568246e-14 0 0)
(-2.829334218e-14 0 0)
(-1.817570105e-14 0 0)
(-1.737909503e-14 0 0)
(-1.774671309e-14 0 0)
(-1.975020398e-14 0 0)
(-2.311450808e-14 0 0)
(-3.040748972e-14 0 0)
(-4.302987416e-14 0 0)
(-5.618208004e-14 0 0)
(-7.54376986e-14 0 0)
(-8.309876137e-14 0 0)
(-8.673046835e-14 0 0)
(-8.109201205e-14 0 0)
(-6.616385879e-14 0 0)
(-4.689367149e-14 0 0)
(-2.852875147e-14 0 0)
(-5.801418895e-15 0 0)
(1.107179194e-14 0 0)
(2.839369783e-14 0 0)
(4.448601315e-14 0 0)
(6.411686489e-14 0 0)
(8.660600645e-14 0 0)
(1.170333656e-13 0 0)
(1.321053281e-13 0 0)
(1.343314939e-13 0 0)
(1.280087753e-13 0 0)
(1.221838928e-13 0 0)
(1.225387313e-13 0 0)
(1.25629191e-13 0 0)
(1.217902872e-13 0 0)
(1.130083294e-13 0 0)
(8.773331717e-14 0 0)
(5.690208402e-14 0 0)
(3.327746598e-14 0 0)
(1.87288347e-14 0 0)
(9.917740254e-15 0 0)
(2.322238112e-15 0 0)
(-2.423488682e-15 0 0)
(-6.654336358e-15 0 0)
(-1.014847039e-14 0 0)
(-1.388755107e-14 0 0)
(-1.53755805e-14 0 0)
(-1.748988915e-14 0 0)
(-1.711374472e-14 0 0)
(-1.638112457e-14 0 0)
(-1.983019004e-14 0 0)
(-3.1740399e-14 0 0)
(-4.647487271e-14 0 0)
(-5.545156759e-14 0 0)
(-5.629191987e-14 0 0)
(-5.516402337e-14 0 0)
(-5.122961542e-14 0 0)
(-4.806257079e-14 0 0)
(-4.559193666e-14 0 0)
(-4.185152216e-14 0 0)
(-3.271374156e-14 0 0)
(-2.499799132e-14 0 0)
(-1.344628122e-14 0 0)
(-2.372182485e-15 0 0)
(5.545564916e-15 0 0)
(1.288664164e-14 0 0)
(1.945047012e-14 0 0)
(2.145014741e-14 0 0)
(1.459339811e-14 0 0)
(6.868485033e-15 0 0)
(-3.624237055e-15 0 0)
(-1.891499023e-14 0 0)
(-3.179898003e-14 0 0)
(-3.590254002e-14 0 0)
(-4.088655176e-14 0 0)
(-4.636336057e-14 0 0)
(-5.567586049e-14 0 0)
(-6.252252211e-14 0 0)
(-6.769108543e-14 0 0)
(-7.084138584e-14 0 0)
(-7.207870023e-14 0 0)
(-6.94743086e-14 0 0)
(-6.308557738e-14 0 0)
(-4.949451612e-14 0 0)
(-3.538764569e-14 0 0)
(-2.164649283e-14 0 0)
(-5.977965658e-15 0 0)
(6.95714704e-15 0 0)
(1.843648672e-14 0 0)
(3.046018287e-14 0 0)
(4.424250714e-14 0 0)
(5.162824016e-14 0 0)
(5.736008922e-14 0 0)
(5.747100008e-14 0 0)
(5.599109988e-14 0 0)
(5.878250047e-14 0 0)
(6.747488002e-14 0 0)
(7.91541405e-14 0 0)
(8.209692571e-14 0 0)
(8.079026005e-14 0 0)
(7.308810801e-14 0 0)
(5.798567325e-14 0 0)
(3.971376981e-14 0 0)
(2.759557642e-14 0 0)
(1.969640188e-14 0 0)
(1.635423563e-14 0 0)
(1.466425414e-14 0 0)
(6.625606029e-15 0 0)
(-8.515571822e-15 0 0)
(-1.86441513e-14 0 0)
(-1.712982391e-14 0 0)
(-1.793499368e-14 0 0)
(-2.120228517e-14 0 0)
(-3.247686747e-14 0 0)
(-5.954866096e-14 0 0)
(-8.118802784e-14 0 0)
(-9.008440999e-14 0 0)
(-8.649797137e-14 0 0)
(-7.46149204e-14 0 0)
(-4.825006844e-14 0 0)
(-2.09395018e-14 0 0)
(-2.361056762e-15 0 0)
(9.795938713e-15 0 0)
(2.339120699e-14 0 0)
(3.359865585e-14 0 0)
(4.388695685e-14 0 0)
(5.249848464e-14 0 0)
(6.136682567e-14 0 0)
(7.007509341e-14 0 0)
(7.243737934e-14 0 0)
(7.296134893e-14 0 0)
(6.678370985e-14 0 0)
(5.00737646e-14 0 0)
(2.785573731e-14 0 0)
(-1.900496952e-15 0 0)
(-2.177843426e-14 0 0)
(-3.172005203e-14 0 0)
(-4.091109479e-14 0 0)
(-4.341245467e-14 0 0)
(-4.72434e-14 0 0)
(-4.494107283e-14 0 0)
(-4.399074617e-14 0 0)
(-4.222693634e-14 0 0)
(-4.229687346e-14 0 0)
(-4.344125266e-14 0 0)
(-3.339165712e-14 0 0)
(-1.660147584e-14 0 0)
(5.876913367e-15 0 0)
(2.460190543e-14 0 0)
(4.835156999e-14 0 0)
(6.014929955e-14 0 0)
(6.629451198e-14 0 0)
(6.57823539e-14 0 0)
(6.186131658e-14 0 0)
(4.952108792e-14 0 0)
(3.374333379e-14 0 0)
(1.328301378e-14 0 0)
(2.210128926e-15 0 0)
(-6.45103536e-15 0 0)
(-1.040407028e-14 0 0)
(-1.162423427e-14 0 0)
(-9.451321407e-15 0 0)
(-4.90853865e-15 0 0)
(5.239312924e-15 0 0)
(2.116489405e-14 0 0)
(3.97691478e-14 0 0)
(5.041173296e-14 0 0)
(5.515234559e-14 0 0)
(5.895027934e-14 0 0)
(6.69173714e-14 0 0)
(7.197375871e-14 0 0)
(6.98737695e-14 0 0)
(6.509674663e-14 0 0)
(6.599670538e-14 0 0)
(6.245573412e-14 0 0)
(5.559333437e-14 0 0)
(4.514160301e-14 0 0)
(2.928567399e-14 0 0)
(1.70778657e-14 0 0)
(7.211897988e-15 0 0)
(-9.583223713e-16 0 0)
(-8.205339683e-15 0 0)
(-1.369471523e-14 0 0)
(-1.687791859e-14 0 0)
(-1.521690641e-14 0 0)
(-9.432015285e-15 0 0)
(-7.529549657e-15 0 0)
(-5.381883726e-15 0 0)
(-4.380282495e-15 0 0)
(-1.981471964e-15 0 0)
(-1.160607536e-15 0 0)
(-1.810965138e-15 0 0)
(-4.00992797e-15 0 0)
(-7.155748551e-15 0 0)