/*--------------------------------*- C++ -*----------------------------------*\
| =========                 |                                                 |
| \\      /  F ield         | OpenFOAM: The Open Source CFD Toolbox           |
|  \\    /   O peration     | Version:  3.0.1                                 |
|   \\  /    A nd           | Web:      www.OpenFOAM.org                      |
|    \\/     M anipulation  |                                                 |
\*---------------------------------------------------------------------------*/
FoamFile
{
    version     2.0;
    format      ascii;
    class       surfaceScalarField;
    location    "5e-05";
    object      phi;
}
// * * * * * * * * * * * * * * * * * * * * * * * * * * * * * * * * * * * * * //

dimensions      [1 0 -1 0 0 0 0];

internalField   nonuniform List<scalar> 
1890
(
-7.28584e-17
-3.64292e-17
-2.42861e-17
3.46945e-18
-5.55112e-17
-3.46945e-18
-2.77556e-17
-2.94903e-17
-2.42861e-17
-1.73472e-17
-4.85723e-17
-2.60209e-17
6.93889e-18
1.21431e-17
-7.97973e-17
-1.38778e-17
-3.81639e-17
-1.21431e-17
4.16334e-17
-2.42861e-17
3.46945e-17
-3.1225e-17
4.16334e-17
-2.94903e-17
4.16334e-17
-4.16334e-17
7.97973e-17
-2.42861e-17
3.81639e-17
-6.07153e-17
5.20417e-17
-4.33681e-17
2.08167e-17
-1.56125e-17
4.51028e-17
-1.38778e-17
-3.46945e-18
0
-4.51028e-17
-2.60209e-17
-9.71445e-17
-5.0307e-17
-5.20417e-17
-4.51028e-17
-3.81639e-17
-1.56125e-17
-4.51028e-17
-1.38778e-17
-8.32667e-17
-2.08167e-17
-9.36751e-17
-3.1225e-17
-6.93889e-17
-1.73472e-17
-6.93889e-17
3.46945e-18
-2.42861e-17
2.42861e-17
-3.46945e-17
1.56125e-17
1.38778e-17
-3.46945e-18
6.93889e-17
6.93889e-18
1.04083e-17
-2.08167e-17
4.51028e-17
3.46945e-18
7.97973e-17
8.67362e-18
3.46945e-18
-1.21431e-17
1.04083e-17
-1.73472e-18
3.46945e-17
1.9082e-17
1.12133e-14
-2.60209e-17
5.86297e-12
-1.2889e-15
2.34404e-09
-4.4607e-13
5.92567e-07
-1.07325e-10
4.88621e-05
-8.46923e-09
0.000488969
-7.11153e-08
0.00117234
-5.04471e-08
0.00159021
3.32e-08
0.00177951
1.293e-07
0.00182479
1.36676e-07
0.00179104
7.45217e-08
0.00177173
2.63662e-08
0.00176533
-4.42788e-08
0.00175695
-1.02417e-07
0.00172828
-1.22458e-07
0.00161853
-1.32591e-07
0.00132163
-5.27294e-08
0.000711032
5.58149e-08
0.000114461
1.19857e-07
2.15047e-06
2.39249e-08
9.01292e-09
4.45563e-10
2.41918e-11
1.87928e-12
4.34739e-14
4.84508e-15
-3.01842e-16
-9.19403e-17
-3.81639e-16
-4.77049e-17
-2.77556e-16
-3.72966e-17
-8.1532e-17
-2.1684e-17
-3.98986e-17
-2.60209e-17
5.20417e-18
1.73472e-18
-1.9082e-17
-7.80626e-18
-4.85723e-17
-9.54098e-18
-2.60209e-17
-1.30104e-17
-2.42861e-17
-1.82146e-17
3.81639e-17
-1.12757e-17
1.38778e-17
-4.68375e-17
1.9082e-17
-1.64799e-17
-1.21431e-17
-7.80626e-18
-5.20417e-18
-1.30104e-17
-4.51028e-17
-1.30104e-17
-5.55112e-17
-2.34188e-17
-7.28584e-17
-2.77556e-17
-4.16334e-17
-2.08167e-17
-6.93889e-18
-4.33681e-18
3.1225e-17
8.67362e-18
5.55112e-17
1.64799e-17
2.77556e-17
-6.93889e-18
1.9082e-17
-1.73472e-17
-8.67362e-18
-1.9082e-17
5.72459e-17
-4.33681e-18
-2.08167e-17
-1.04083e-17
2.42861e-17
-1.04083e-17
1.9082e-17
-8.67362e-18
5.20417e-18
-1.73472e-17
-3.81639e-17
-5.11743e-17
-2.60209e-17
-2.51535e-17
-3.64292e-17
3.46945e-18
-3.1225e-17
-5.20417e-18
3.46945e-18
0
2.42861e-17
-1.30104e-17
-1.04083e-17
-1.12757e-17
1.73472e-17
2.08167e-17
-1.73472e-18
3.46945e-18
-4.85723e-17
6.93889e-18
-3.81639e-17
-1.73472e-17
-3.46945e-17
-4.16334e-17
-1.04083e-17
-4.16334e-17
-8.67362e-18
-7.28584e-17
-5.55112e-17
-9.71445e-17
-4.51028e-17
-3.46945e-18
-2.60209e-17
0
-3.98986e-17
3.81639e-17
-3.1225e-17
1.04083e-17
-3.98986e-17
2.08167e-17
-3.1225e-17
2.77556e-17
-3.81639e-17
3.46945e-18
-6.93889e-18
-3.46945e-18
-2.42861e-17
2.42861e-17
-4.85723e-17
-2.08167e-17
-5.55112e-17
2.77556e-17
-4.85723e-17
-2.77556e-17
-2.60209e-17
-1.38778e-17
-2.42861e-17
-5.89806e-17
-2.94903e-17
-3.46945e-17
-1.73472e-18
-3.1225e-17
-4.16334e-17
-2.77556e-17
-2.42861e-17
-7.97973e-17
-1.21431e-17
-6.59195e-17
3.29597e-17
-1.07553e-16
-2.94903e-17
-6.93889e-18
1.04083e-17
-3.46945e-18
-1.38778e-17
-3.46945e-17
-2.08167e-17
3.46945e-18
3.46945e-18
-1.04083e-17
0
1.73472e-17
6.93889e-18
2.08167e-17
1.56125e-17
-2.77556e-17
-3.46945e-18
-1.38778e-17
-3.1225e-17
-2.42861e-17
-2.94903e-17
1.35308e-16
-6.41848e-17
1.11612e-14
-5.20417e-18
5.83207e-12
1.66013e-15
2.33332e-09
6.86154e-13
5.90122e-07
1.82846e-10
4.87183e-05
1.59553e-08
0.000488198
1.75324e-07
0.00117146
3.29412e-07
0.00158955
2.48293e-07
0.00177905
1.90602e-07
0.00182437
1.26799e-07
0.0017908
-2.50947e-08
0.00177151
-3.06924e-08
0.00176507
-4.78715e-08
0.00175663
-5.31841e-08
0.00172793
-7.75278e-08
0.00161796
-1.07504e-07
0.00132078
-1.64631e-07
0.000710036
-2.53387e-07
0.000114114
-1.90051e-07
2.14018e-06
-3.166e-08
8.9646e-09
-5.74973e-10
2.40494e-11
-2.39044e-12
4.33421e-14
-6.76976e-15
-1.75207e-16
-1.86483e-16
-2.63678e-16
-9.97466e-17
-1.59595e-16
-7.97973e-17
-2.94903e-17
-3.90313e-17
1.38778e-17
-2.86229e-17
-6.93889e-18
-1.99493e-17
-3.1225e-17
-1.04083e-17
-5.72459e-17
4.33681e-18
-2.42861e-17
3.46945e-18
-3.46945e-18
-1.47451e-17
-2.08167e-17
8.67362e-18
3.64292e-17
9.54098e-18
-1.56125e-17
0
-3.1225e-17
-1.30104e-17
-2.42861e-17
-1.82146e-17
-4.16334e-17
-2.25514e-17
-1.38778e-17
-2.42861e-17
-1.04083e-17
-1.21431e-17
3.46945e-18
-2.08167e-17
2.60209e-17
-2.68882e-17
1.56125e-17
-5.20417e-17
2.94903e-17
-2.94903e-17
1.73472e-18
-3.38271e-17
2.94903e-17
-2.94903e-17
2.42861e-17
-3.38271e-17
5.37764e-17
-2.86229e-17
1.21431e-17
-3.1225e-17
2.94903e-17
-1.99493e-17
-1.73472e-18
-1.9082e-17
-5.0307e-17
-1.47451e-17
1.38778e-17
-1.73472e-17
3.1225e-17
-2.08167e-17
-5.37764e-17
-4.85723e-17
-3.29597e-17
-1.99493e-17
-2.60209e-17
-1.04083e-17
-1.21431e-17
6.93889e-18
1.56125e-17
-1.30104e-17
3.46945e-18
-2.08167e-17
-2.1684e-17
3.46945e-18
-6.59195e-17
-3.46945e-17
-6.07153e-17
-1.38778e-17
-5.37764e-17
-2.77556e-17
-5.72459e-17
-6.93889e-18
-4.68375e-17
-1.73472e-17
-1.73472e-18
-3.46945e-18
-3.46945e-17
-1.38778e-17
-1.9082e-17
2.77556e-17
-1.04083e-17
-1.38778e-17
-1.21431e-17
5.20417e-17
-2.08167e-17
2.42861e-17
-2.08167e-17
3.46945e-17
-2.42861e-17
-2.42861e-17
-3.98986e-17
2.42861e-17
-2.77556e-17
8.67362e-17
-2.94903e-17
3.81639e-17
-6.07153e-17
9.71445e-17
-3.46945e-17
-6.93889e-18
-4.16334e-17
-5.20417e-17
-4.16334e-17
-3.81639e-17
-3.1225e-17
-4.16334e-17
-2.08167e-17
5.20417e-17
1.73472e-18
-1.73472e-17
-1.04083e-17
-3.46945e-18
-1.38778e-17
-9.02056e-17
-1.73472e-17
-2.42861e-17
-2.25514e-17
-3.81639e-17
-1.9082e-17
-1.00614e-16
-1.56125e-17
-1.04083e-17
-1.21431e-17
3.46945e-18
8.67362e-18
-6.93889e-18
1.38778e-17
1.73472e-17
1.21431e-17
6.93889e-18
1.21431e-17
-1.38778e-17
-3.46945e-18
1.04083e-17
8.67362e-18
3.46945e-17
-1.73472e-18
1.00614e-16
5.20417e-18
1.12133e-14
-2.60209e-17
5.90543e-12
1.32012e-15
2.35973e-09
4.88347e-13
5.96208e-07
1.2569e-10
4.90434e-05
1.04054e-08
0.00048971
1.04033e-07
0.001173
2.73054e-07
0.00159058
3.46048e-07
0.00177979
2.04575e-07
0.00182505
1.27689e-07
0.00179138
-1.03042e-07
0.00177211
-9.2871e-08
0.00176572
-1.13289e-07
0.00175736
-9.74282e-08
0.00172867
-8.85286e-08
0.00161891
-1.01114e-07
0.00132212
-1.36835e-07
0.000711647
-1.6056e-07
0.000114707
-1.11533e-07
2.15858e-06
-1.75756e-08
9.0516e-09
-3.09461e-10
2.4309e-11
-1.21541e-12
4.41591e-14
-3.19276e-15
-6.245e-17
-1.37911e-16
-9.36751e-17
-5.89806e-17
-3.64292e-17
-1.9082e-17
0
-8.67362e-18
-1.73472e-18
-1.47451e-17
3.46945e-17
-2.51535e-17
3.1225e-17
-2.25514e-17
-6.93889e-18
-3.1225e-17
2.25514e-17
-2.77556e-17
1.04083e-17
-1.99493e-17
-2.08167e-17
-1.73472e-17
-2.60209e-17
-1.30104e-17
-3.46945e-17
-1.21431e-17
-1.56125e-17
-6.93889e-18
-3.64292e-17
2.60209e-18
-4.51028e-17
-3.46945e-18
-1.73472e-17
-2.60209e-18
-3.98986e-17
-9.54098e-18
2.25514e-17
-1.73472e-18
-3.46945e-18
-1.21431e-17
1.9082e-17
1.47451e-17
3.46945e-18
-1.04083e-17
6.93889e-18
-6.93889e-18
1.04083e-17
-1.38778e-17
4.85723e-17
-1.38778e-17
7.97973e-17
-2.1684e-17
3.1225e-17
-2.25514e-17
2.08167e-17
-3.03577e-17
-2.25514e-17
-1.73472e-17
-1.38778e-17
-1.12757e-17
-2.60209e-17
-1.21431e-17
-2.60209e-17
1.04083e-17
8.67362e-18
8.67362e-18
5.20417e-18
-4.33681e-18
-2.77556e-17
-8.67362e-18
-3.29597e-17
-1.04083e-17
-2.42861e-17
-1.73472e-18
-5.20417e-17
-6.07153e-18
-3.55618e-17
3.46945e-17
-6.41848e-17
1.04083e-17
-5.0307e-17
3.46945e-18
-3.1225e-17
-6.93889e-18
-2.25514e-17
-2.08167e-17
-4.51028e-17
-4.51028e-17
-2.77556e-17
1.04083e-17
-3.46945e-17
-4.16334e-17
-1.73472e-17
-2.77556e-17
-6.93889e-18
1.04083e-17
3.46945e-18
2.08167e-17
-2.08167e-17
-2.08167e-17
-2.42861e-17
-2.08167e-17
-6.93889e-18
-3.46945e-18
-1.9082e-17
-1.73472e-17
-4.33681e-17
4.85723e-17
-6.93889e-18
7.28584e-17
-1.04083e-17
5.89806e-17
-4.16334e-17
3.46945e-18
-3.29597e-17
-2.08167e-17
-4.33681e-17
-3.46945e-18
-3.29597e-17
1.38778e-17
-1.38778e-17
1.04083e-17
-1.73472e-17
-4.16334e-17
-2.60209e-17
-1.04083e-17
0
-5.55112e-17
-1.73472e-18
-6.59195e-17
-1.21431e-17
-2.08167e-17
-3.46945e-18
-2.08167e-17
-8.67362e-18
-1.38778e-17
-1.04083e-17
-2.08167e-17
-1.38778e-17
0
-3.46945e-18
2.08167e-17
-3.81639e-17
6.93889e-18
-4.16334e-17
1.38778e-17
-3.29597e-17
-1.38778e-17
-6.93889e-18
3.81639e-17
-1.21431e-17
7.28584e-17
-2.77556e-17
1.13382e-14
-3.29597e-17
5.97145e-12
3.64292e-17
2.38386e-09
1.50158e-14
6.01251e-07
-4.82021e-12
4.92575e-05
8.79554e-11
0.000490412
1.63489e-08
0.00117383
3.41386e-08
0.00159136
1.3272e-07
0.00178049
5.95671e-08
0.00182579
3.47402e-08
0.00179206
-1.51474e-07
0.00177278
-1.32632e-07
0.00176636
-1.47078e-07
0.00175799
-1.2586e-07
0.0017293
-6.22644e-08
0.00161963
-8.10856e-09
0.00132304
7.12894e-08
0.000712747
1.38724e-07
0.000115117
1.122e-07
2.17144e-06
1.86367e-08
9.1105e-09
3.36432e-10
2.44824e-11
1.33348e-12
4.48044e-14
3.47812e-15
1.9082e-17
-1.30104e-17
-2.25514e-17
-5.20417e-18
-2.77556e-17
-6.07153e-18
-8.67362e-18
-2.51535e-17
-2.60209e-17
-2.25514e-17
2.60209e-17
-1.73472e-17
5.20417e-18
-4.0766e-17
-4.68375e-17
-2.77556e-17
-2.94903e-17
-2.51535e-17
2.42861e-17
-2.60209e-17
5.20417e-18
-1.21431e-17
-3.81639e-17
-1.9082e-17
-3.29597e-17
-1.56125e-17
-2.08167e-17
-2.1684e-17
-2.94903e-17
-2.77556e-17
-3.64292e-17
-2.60209e-17
-2.25514e-17
-2.94903e-17
5.20417e-18
-1.82146e-17
-1.38778e-17
-1.64799e-17
-1.56125e-17
-6.07153e-18
1.73472e-18
1.30104e-17
5.20417e-18
-1.99493e-17
3.1225e-17
-1.64799e-17
2.77556e-17
-8.67362e-18
3.29597e-17
-6.93889e-18
2.25514e-17
-1.12757e-17
-1.56125e-17
-8.67362e-18
4.85723e-17
-8.67362e-18
-1.04083e-17
-1.99493e-17
1.38778e-17
-3.46945e-18
1.73472e-17
-8.67362e-18
1.73472e-17
-8.67362e-19
-8.67362e-18
-1.64799e-17
1.56125e-17
6.07153e-18
-6.07153e-17
-3.46945e-18
-3.81639e-17
-3.46945e-18
-2.77556e-17
-2.1684e-17
-2.77556e-17
-2.94903e-17
-7.80626e-18
9.02056e-17
0
3.46945e-17
-6.93889e-18
-1.04083e-17
3.46945e-18
2.08167e-17
0
3.1225e-17
-1.38778e-17
-6.93889e-18
-8.67362e-18
6.93889e-17
2.60209e-17
-2.08167e-17
-6.93889e-18
-1.04083e-17
-3.46945e-18
-1.73472e-17
8.67362e-18
3.46945e-18
2.08167e-17
1.04083e-17
1.73472e-18
-4.51028e-17
-1.56125e-17
-2.42861e-17
-2.94903e-17
4.16334e-17
-1.21431e-17
2.42861e-17
-3.46945e-18
3.46945e-18
1.38778e-17
2.77556e-17
1.56125e-17
-3.46945e-17
1.04083e-17
1.38778e-17
1.73472e-17
2.08167e-17
8.67362e-18
-3.46945e-18
-5.20417e-18
-6.93889e-18
6.93889e-18
-6.93889e-18
1.73472e-17
-1.04083e-17
-1.38778e-17
-3.1225e-17
-1.73472e-17
-2.08167e-17
1.73472e-17
-5.55112e-17
-1.38778e-17
-2.77556e-17
-5.20417e-18
-3.46945e-17
-1.04083e-17
0
1.21431e-17
-5.20417e-17
3.46945e-18
-3.1225e-17
3.46945e-18
0
-1.73472e-18
-6.93889e-18
-5.20417e-18
-6.93889e-18
-3.46945e-18
5.20417e-17
-5.20417e-18
9.36751e-17
-3.46945e-17
1.12792e-14
-3.1225e-17
5.96972e-12
-1.89085e-16
2.3867e-09
-1.13607e-14
6.01977e-07
2.42463e-12
4.92571e-05
3.50317e-09
0.000490247
4.94697e-08
0.00117367
-6.64475e-08
0.0015913
-1.70916e-07
0.00178043
-1.21164e-07
0.00182575
-5.81284e-08
0.00179197
-1.05934e-07
0.00177258
-9.83372e-08
0.00176604
-9.02045e-08
0.00175757
-7.66269e-08
0.00172886
-7.89939e-09
0.00161909
4.83716e-08
0.00132225
1.42078e-07
0.000711678
2.56565e-07
0.000114693
2.02644e-07
2.15781e-06
3.41589e-08
9.04745e-09
6.23568e-10
2.42954e-11
2.59021e-12
4.42962e-14
6.87211e-15
1.09288e-16
9.54098e-18
-1.21431e-17
-1.56125e-17
-4.16334e-17
-6.93889e-18
-1.04083e-17
3.46945e-18
-1.9082e-17
-8.67362e-18
-2.25514e-17
-1.73472e-17
-1.73472e-17
-1.73472e-18
-4.16334e-17
-1.82146e-17
1.9082e-17
-5.20417e-18
4.16334e-17
2.60209e-18
-2.42861e-17
-1.38778e-17
-3.64292e-17
4.33681e-18
-3.46945e-18
8.67362e-19
-3.1225e-17
-1.12757e-17
-1.38778e-17
-1.73472e-18
-3.1225e-17
9.54098e-18
-5.20417e-18
1.38778e-17
1.73472e-17
4.33681e-18
-1.38778e-17
-8.67362e-18
-8.67362e-18
6.93889e-18
-3.64292e-17
-7.80626e-18
5.20417e-18
-3.46945e-18
4.68375e-17
0
2.08167e-17
1.12757e-17
1.9082e-17
1.73472e-18
4.16334e-17
1.04083e-17
1.04083e-17
1.73472e-18
2.08167e-17
1.56125e-17
1.73472e-17
-3.46945e-18
5.20417e-17
2.1684e-17
3.46945e-18
2.60209e-18
1.38778e-17
-1.9082e-17
-1.73472e-18
-3.20924e-17
-8.67362e-18
-1.99493e-17
-5.0307e-17
-2.1684e-17
-3.81639e-17
-7.80626e-18
-6.59195e-17
-1.12757e-17
-2.60209e-17
1.47451e-17
-8.67362e-19
1.38778e-17
6.93889e-18
-1.38778e-17
-3.46945e-18
-4.51028e-17
-6.93889e-18
-3.46945e-18
5.20417e-18
3.46945e-18
2.42861e-17
6.245e-17
3.98986e-17
5.20417e-17
-5.20417e-18
-1.73472e-17
2.08167e-17
6.93889e-18
1.56125e-17
-3.46945e-18
3.64292e-17
-2.42861e-17
6.93889e-18
-5.20417e-17
8.67362e-18
-4.51028e-17
3.46945e-17
-2.77556e-17
3.29597e-17
-3.46945e-18
1.9082e-17
4.51028e-17
3.29597e-17
2.08167e-17
3.29597e-17
1.38778e-17
3.81639e-17
0
1.38778e-17
3.46945e-17
2.25514e-17
-1.38778e-17
3.64292e-17
1.38778e-17
3.81639e-17
-1.38778e-17
1.21431e-17
-2.42861e-17
2.77556e-17
-3.81639e-17
2.60209e-17
6.93889e-18
6.93889e-18
-7.28584e-17
-3.46945e-18
-4.85723e-17
-3.46945e-18
2.42861e-17
1.56125e-17
-2.77556e-17
5.20417e-18
-3.1225e-17
1.56125e-17
-3.46945e-17
2.94903e-17
-2.77556e-17
1.56125e-17
3.46945e-18
2.60209e-17
2.08167e-17
1.56125e-17
6.93889e-18
1.56125e-17
-1.04083e-17
3.46945e-18
-5.20417e-17
3.29597e-17
1.11751e-14
1.9082e-17
5.96589e-12
3.46945e-16
2.38851e-09
9.59354e-14
6.03408e-07
6.84319e-12
4.94051e-05
1.338e-09
0.000491195
1.23206e-08
0.00117418
-1.79706e-08
0.00159119
-9.05527e-08
0.00178009
-6.27934e-08
0.00182529
-8.46428e-08
0.00179157
-5.86887e-08
0.00177215
-2.00628e-08
0.00176555
1.90675e-08
0.00175701
8.49155e-08
0.00172825
1.13652e-07
0.00161825
1.29432e-07
0.00132097
5.07885e-08
0.000710047
-3.34725e-08
0.000114074
-9.64435e-08
2.13831e-06
-1.91075e-08
8.95492e-09
-3.64074e-10
2.40195e-11
-1.57445e-12
4.37289e-14
-4.42788e-15
8.1532e-17
-3.64292e-17
-1.73472e-18
-1.64799e-17
-1.73472e-18
5.20417e-18
8.67362e-18
1.82146e-17
-3.98986e-17
4.33681e-18
1.73472e-18
1.9082e-17
1.21431e-17
3.46945e-18
3.29597e-17
8.67362e-19
3.98986e-17
8.67362e-19
-1.38778e-17
7.80626e-18
3.46945e-17
-1.73472e-18
-5.55112e-17
5.20417e-18
-4.68375e-17
5.20417e-18
-3.98986e-17
9.54098e-18
-6.93889e-18
8.67362e-18
1.21431e-17
1.21431e-17
-1.38778e-17
-1.38778e-17
8.67362e-18
1.73472e-18
2.25514e-17
1.04083e-17
8.67362e-18
2.77556e-17
-2.42861e-17
1.56125e-17
-5.20417e-18
1.9082e-17
-1.38778e-17
1.73472e-17
6.93889e-18
1.30104e-17
3.98986e-17
-1.73472e-18
1.9082e-17
-1.82146e-17
5.0307e-17
-8.67362e-19
2.60209e-17
1.04083e-17
6.93889e-17
1.73472e-18
0
-4.33681e-18
-4.68375e-17
4.33681e-18
1.04083e-17
-2.60209e-18
1.73472e-17
1.21431e-17
-5.37764e-17
-3.46945e-18
-3.1225e-17
1.47451e-17
-8.50015e-17
8.67362e-18
-2.60209e-17
1.47451e-17
-2.77556e-17
1.12757e-17
7.80626e-18
2.42861e-17
1.73472e-18
2.08167e-17
8.67362e-18
1.38778e-17
1.9082e-17
6.93889e-17
3.64292e-17
2.42861e-17
1.73472e-17
6.93889e-18
2.42861e-17
7.97973e-17
1.56125e-17
1.73472e-17
6.93889e-18
1.38778e-17
1.9082e-17
-6.245e-17
2.25514e-17
-2.08167e-17
3.98986e-17
-2.42861e-17
3.64292e-17
-6.245e-17
3.64292e-17
-4.16334e-17
4.33681e-17
1.73472e-17
2.42861e-17
5.55112e-17
4.16334e-17
6.59195e-17
5.72459e-17
0
6.93889e-17
3.81639e-17
6.41848e-17
2.77556e-17
5.20417e-17
-2.77556e-17
-6.93889e-18
-3.1225e-17
1.73472e-18
3.46945e-17
2.42861e-17
1.04083e-17
2.77556e-17
-1.38778e-17
4.68375e-17
-5.20417e-17
4.68375e-17
-7.97973e-17
3.64292e-17
2.77556e-17
3.29597e-17
3.81639e-17
2.42861e-17
-2.08167e-17
1.73472e-17
-4.51028e-17
1.73472e-17
-9.02056e-17
1.38778e-17
-3.46945e-17
1.73472e-17
-6.245e-17
5.20417e-18
-4.16334e-17
2.77556e-17
-5.55112e-17
4.33681e-17
3.46945e-18
3.46945e-17
6.93889e-17
4.68375e-17
1.11994e-14
1.38778e-17
5.99211e-12
3.43475e-16
2.39429e-09
1.70752e-13
6.04683e-07
3.67651e-11
4.95179e-05
2.87951e-09
0.000491705
5.21987e-08
0.00117426
2.0481e-07
0.00159105
1.48334e-07
0.00177994
3.94773e-08
0.00182507
-1.17721e-07
0.0017915
-1.45881e-07
0.00177224
-1.10266e-07
0.00176573
-4.82414e-08
0.00175727
1.60029e-08
0.00172858
-6.95109e-08
0.00161876
4.50069e-08
0.00132174
2.45424e-08
0.000710909
5.84474e-09
0.000114359
-5.71746e-09
2.14661e-06
-2.69553e-10
8.99392e-09
4.87192e-12
2.41363e-11
2.36018e-14
4.3951e-14
3.55618e-17
6.59195e-17
3.81639e-17
3.46945e-18
2.25514e-17
-1.56125e-17
1.04083e-17
-4.33681e-17
2.51535e-17
-2.42861e-17
3.38271e-17
-2.25514e-17
8.67362e-18
2.25514e-17
2.25514e-17
3.46945e-18
8.67362e-18
7.11237e-17
2.68882e-17
2.08167e-17
1.82146e-17
2.42861e-17
1.56125e-17
-5.55112e-17
5.20417e-18
-1.73472e-17
2.25514e-17
1.04083e-17
3.64292e-17
-1.9082e-17
2.42861e-17
1.38778e-17
6.93889e-18
-1.73472e-18
4.33681e-18
-6.93889e-18
1.56125e-17
3.46945e-17
1.21431e-17
5.20417e-18
2.51535e-17
-3.29597e-17
2.77556e-17
5.20417e-18
3.20924e-17
-2.60209e-17
2.77556e-17
-3.64292e-17
1.9082e-17
8.67362e-18
-6.07153e-18
2.60209e-17
0
3.98986e-17
4.33681e-18
2.08167e-17
-5.20417e-18
8.67362e-18
-3.46945e-18
2.60209e-17
3.46945e-18
-2.60209e-17
-1.9082e-17
-2.25514e-17
-1.47451e-17
5.20417e-18
7.80626e-18
2.77556e-17
7.80626e-18
2.60209e-17
1.82146e-17
-1.21431e-17
3.55618e-17
-5.37764e-17
1.56125e-17
-2.25514e-17
5.11743e-17
1.64799e-17
2.08167e-17
5.0307e-17
-6.93889e-18
1.9082e-17
1.38778e-17
4.68375e-17
2.42861e-17
3.98986e-17
3.46945e-17
2.94903e-17
-2.08167e-17
4.16334e-17
3.46945e-17
3.98986e-17
5.20417e-17
5.72459e-17
3.1225e-17
4.16334e-17
0
2.60209e-17
3.46945e-17
3.98986e-17
1.38778e-17
4.68375e-17
2.08167e-17
6.07153e-17
-5.89806e-17
5.89806e-17
-2.08167e-17
5.20417e-17
5.89806e-17
4.16334e-17
5.89806e-17
4.16334e-17
-2.42861e-17
3.29597e-17
6.93889e-18
3.98986e-17
-6.93889e-18
4.85723e-17
2.08167e-17
5.37764e-17
1.38778e-17
3.98986e-17
-5.20417e-17
5.0307e-17
3.46945e-18
7.11237e-17
-4.51028e-17
3.98986e-17
-5.89806e-17
2.42861e-17
-8.32667e-17
6.93889e-18
-4.16334e-17
3.64292e-17
-3.1225e-17
3.64292e-17
-6.245e-17
3.1225e-17
-3.1225e-17
1.9082e-17
-4.16334e-17
4.68375e-17
-1.38778e-17
3.81639e-17
3.46945e-18
-1.04083e-17
1.38778e-17
5.20417e-18
-4.16334e-17
1.04083e-17
3.46945e-18
-6.93889e-18
1.00614e-16
1.56125e-17
1.13486e-14
2.60209e-17
6.02487e-12
2.09902e-16
2.40227e-09
1.27972e-13
6.06226e-07
4.37206e-11
4.9618e-05
3.71606e-09
0.000492224
5.79936e-08
0.00117487
2.0001e-07
0.00159138
2.31012e-07
0.00178012
1.00595e-07
0.00182528
-1.21911e-08
0.00179164
-1.75002e-07
0.00177224
-1.57983e-07
0.0017657
-1.6076e-07
0.00175733
-1.6058e-07
0.00172856
-1.44123e-07
0.00161876
-1.09377e-07
0.00132167
4.10329e-09
0.000710723
1.49622e-07
0.000114276
1.87107e-07
2.14388e-06
3.56296e-08
8.98215e-09
6.65764e-10
2.4102e-11
2.85475e-12
4.39076e-14
7.83141e-15
7.11237e-17
6.76542e-17
5.20417e-18
4.16334e-17
1.04083e-17
1.99493e-17
-5.20417e-18
1.21431e-17
-4.85723e-17
7.80626e-18
-3.29597e-17
3.81639e-17
-1.56125e-17
-8.67362e-19
1.04083e-17
3.38271e-17
2.94903e-17
3.20924e-17
1.04083e-17
1.56125e-17
-1.73472e-18
1.73472e-17
1.04083e-17
2.34188e-17
-3.81639e-17
8.67362e-19
-2.77556e-17
2.68882e-17
-5.37764e-17
1.12757e-17
5.20417e-18
2.1684e-17
-2.08167e-17
3.90313e-17
-1.04083e-17
4.42354e-17
2.42861e-17
3.98986e-17
3.46945e-18
9.54098e-18
5.20417e-18
5.20417e-18
3.46945e-18
2.25514e-17
-2.94903e-17
1.64799e-17
-3.64292e-17
9.54098e-18
2.25514e-17
1.73472e-17
3.64292e-17
3.29597e-17
-8.67362e-18
3.38271e-17
1.73472e-17
2.77556e-17
3.81639e-17
2.94903e-17
-6.93889e-18
5.37764e-17
-2.60209e-17
3.46945e-17
5.20417e-18
3.1225e-17
-1.38778e-17
1.30104e-17
2.42861e-17
7.80626e-18
1.04083e-17
-9.54098e-18
-2.94903e-17
6.93889e-18
2.25514e-17
-2.25514e-17
5.37764e-17
0
0
-3.81639e-17
0
2.42861e-17
1.04083e-17
3.1225e-17
-3.46945e-18
3.81639e-17
1.21431e-17
1.73472e-17
1.38778e-17
1.73472e-17
3.98986e-17
2.77556e-17
3.46945e-18
0
0
-1.38778e-17
1.04083e-17
1.04083e-17
3.29597e-17
4.85723e-17
4.51028e-17
1.04083e-17
5.0307e-17
3.46945e-18
4.85723e-17
-3.46945e-18
1.56125e-17
5.89806e-17
3.1225e-17
8.32667e-17
6.07153e-17
3.46945e-17
5.72459e-17
3.46945e-18
5.0307e-17
3.1225e-17
6.07153e-17
2.08167e-17
4.16334e-17
-3.46945e-17
4.16334e-17
6.93889e-18
4.33681e-17
-6.245e-17
4.68375e-17
-9.02056e-17
3.46945e-17
-5.20417e-17
8.67362e-18
-8.67362e-17
1.9082e-17
-7.28584e-17
1.73472e-17
-3.81639e-17
-1.73472e-18
3.46945e-18
8.67362e-18
-1.00614e-16
-1.04083e-17
-2.42861e-17
0
-3.46945e-18
5.20417e-18
-1.04083e-17
-2.08167e-17
5.55112e-17
6.93889e-18
3.81639e-17
3.46945e-18
2.08167e-17
-1.21431e-17
3.81639e-17
1.38778e-17
9.02056e-17
1.9082e-17
1.12826e-14
2.94903e-17
6.04839e-12
5.34295e-16
2.41086e-09
2.41144e-13
6.07931e-07
7.00224e-11
4.96706e-05
5.72314e-09
0.000492361
5.71844e-08
0.00117502
9.09956e-08
0.00159151
1.06258e-07
0.00178033
7.97853e-08
0.0018257
8.85515e-08
0.00179186
8.94787e-09
0.00177223
-1.62967e-08
0.00176547
-1.23172e-08
0.00175688
2.79758e-08
0.00172806
4.61e-08
0.00161791
5.11825e-08
0.00132033
-2.63538e-08
0.000709125
-1.98422e-07
0.000113711
-2.2081e-07
2.12679e-06
-4.08673e-08
8.90071e-09
-7.69723e-10
2.38589e-11
-3.3176e-12
4.34895e-14
-9.12638e-15
5.72459e-17
3.46945e-18
-2.42861e-17
0
-4.51028e-17
8.67362e-18
-3.81639e-17
1.56125e-17
6.93889e-18
1.12757e-17
-3.98986e-17
-2.60209e-18
2.94903e-17
1.21431e-17
3.29597e-17
6.93889e-18
3.29597e-17
6.07153e-18
5.55112e-17
-1.04083e-17
-1.04083e-17
8.67362e-18
-2.08167e-17
1.99493e-17
-1.04083e-17
2.42861e-17
-4.16334e-17
3.46945e-18
-5.55112e-17
2.51535e-17
6.93889e-18
2.94903e-17
2.08167e-17
1.82146e-17
3.64292e-17
1.47451e-17
1.38778e-17
9.54098e-18
2.42861e-17
0
-1.04083e-17
-7.80626e-18
-3.46945e-17
-3.46945e-18
-4.33681e-17
-8.67362e-18
-5.20417e-18
1.04083e-17
4.68375e-17
1.82146e-17
-1.21431e-17
9.54098e-18
-3.46945e-18
8.67362e-19
4.33681e-17
3.29597e-17
3.46945e-17
2.25514e-17
-3.64292e-17
7.80626e-18
-1.38778e-17
2.86229e-17
1.04083e-17
2.08167e-17
6.93889e-18
8.67362e-19
1.38778e-17
1.30104e-17
-5.20417e-18
6.93889e-18
-3.64292e-17
-2.60209e-18
-1.73472e-17
-1.9082e-17
-1.04083e-17
1.73472e-18
-1.04083e-17
2.42861e-17
3.1225e-17
7.97973e-17
7.63278e-17
3.46945e-17
-2.08167e-17
0
-3.1225e-17
4.85723e-17
3.1225e-17
6.59195e-17
-1.38778e-17
-3.46945e-18
2.42861e-17
2.42861e-17
5.55112e-17
5.89806e-17
6.59195e-17
-2.42861e-17
-6.93889e-18
-3.46945e-18
3.46945e-18
-3.81639e-17
-1.52656e-16
-1.31839e-16
-1.04083e-16
-3.1225e-17
-6.93889e-18
-6.245e-17
-7.63278e-17
-1.04083e-17
-6.93889e-17
-2.42861e-17
6.93889e-18
-3.1225e-17
8.67362e-17
1.04083e-17
2.42861e-17
1.1359e-14
6.07299e-12
2.42018e-09
6.10034e-07
4.97447e-05
0.000492466
0.00117504
0.00159159
0.00178046
0.00182581
0.00179205
0.00177255
0.00176588
0.00175739
0.00172865
0.00161884
0.00132174
0.000710741
0.000114265
2.14334e-06
8.98001e-09
2.40969e-11
4.39961e-14
8.32667e-17
-6.93889e-18
-5.20417e-17
-5.72459e-17
-2.60209e-17
-8.67362e-18
-2.08167e-17
5.55112e-17
5.89806e-17
5.55112e-17
-2.60209e-17
1.9082e-17
-3.64292e-17
-1.21431e-17
-2.60209e-17
1.04083e-17
1.73472e-17
-2.77556e-17
-6.41848e-17
-4.85723e-17
3.98986e-17
-8.67362e-18
2.77556e-17
-8.67362e-18
6.07153e-17
0
3.64292e-17
1.56125e-17
8.67362e-18
-5.20417e-18
-3.46945e-17
-5.72459e-17
3.46945e-18
-1.9082e-17
-5.20417e-18
-1.56125e-17
-1.73472e-17
3.46945e-18
)
;

boundaryField
{
    sides1
    {
        type            calculated;
        value           nonuniform List<scalar> 
20
(
2.42861e-17
8.67362e-18
-5.0307e-17
-6.93889e-18
-3.46945e-17
-8.67362e-18
-1.56125e-17
8.1532e-17
8.67362e-18
1.56125e-17
3.81639e-17
3.81639e-17
0
-2.42861e-17
-2.77556e-17
1.04083e-17
-2.08167e-17
-3.46945e-18
-6.93889e-18
-2.42861e-17
)
;
    }
    sides2
    {
        type            calculated;
        value           uniform 0;
    }
    empty
    {
        type            empty;
        value           nonuniform 0();
    }
}


// ************************************************************************* //
