# vtk DataFile Version 2.0
gauge_2
ASCII
DATASET POLYDATA
POINTS 43 double
0.2 0.0359992 0.005
0.2 0.0419991 0.005
0.2 0.047999 0.005
0.2 0.0607609 0.005
0.2 0.0735228 0.005
0.2 0.0862847 0.005
0.2 0.0990467 0.005
0.2 0.111809 0.005
0.2 0.124571 0.005
0.2 0.137332 0.005
0.2 0.150094 0.005
0.2 0.162856 0.005
0.2 0.175618 0.005
0.2 0.18838 0.005
0.2 0.201142 0.005
0.2 0.213904 0.005
0.2 0.226666 0.005
0.2 0.239428 0.005
0.2 0.25219 0.005
0.2 0.264952 0.005
0.2 0.277714 0.005
0.2 0.290476 0.005
0.2 0.303238 0.005
0.2 0.315999 0.005
0.2 0.328761 0.005
0.2 0.341523 0.005
0.2 0.354285 0.005
0.2 0.367047 0.005
0.2 0.379809 0.005
0.2 0.392571 0.005
0.2 0.405333 0.005
0.2 0.418095 0.005
0.2 0.430857 0.005
0.2 0.443619 0.005
0.2 0.456381 0.005
0.2 0.469143 0.005
0.2 0.481905 0.005
0.2 0.494666 0.005
0.2 0.507428 0.005
0.2 0.52019 0.005
0.2 0.532952 0.005
0.2 0.545714 0.005
0.2 0.558476 0.005
POINT_DATA 43
 FIELD attributes 1
alpha.water 1 43 float
1 1 1 1 0.771352 0.283764 0.0124122 1.6707e-05 2.30438e-05 6.55879e-06 1.05249e-08 4.39098e-08 4.93255e-08 1.55389e-08 2.20177e-12 7.02836e-13 1.62951e-13 3.58831e-14 7.35383e-15 5.60506e-16 7.62527e-17 1.73944e-17 3.91205e-18 7.29506e-19 1.10852e-19 1.52709e-20 2.04685e-21 2.93938e-22 5.31217e-23 1.00734e-23 1.77668e-24 2.77066e-25 3.74132e-26 4.46294e-27 4.93412e-28 5.2128e-29 5.18003e-30 4.57058e-31 3.27568e-32 1.71807e-33 6.02074e-35 1.34219e-36 2.02651e-38
