/*--------------------------------*- C++ -*----------------------------------*\
| =========                 |                                                 |
| \\      /  F ield         | OpenFOAM: The Open Source CFD Toolbox           |
|  \\    /   O peration     | Version:  3.0.1                                 |
|   \\  /    A nd           | Web:      www.OpenFOAM.org                      |
|    \\/     M anipulation  |                                                 |
\*---------------------------------------------------------------------------*/
FoamFile
{
    version     2.0;
    format      ascii;
    class       volScalarField;
    location    "0.00025";
    object      maxKappa;
}
// * * * * * * * * * * * * * * * * * * * * * * * * * * * * * * * * * * * * * //

dimensions      [0 0 0 0 0 0 0];

internalField   nonuniform List<scalar> 
1000
(
0.495797
0.495797
0.495799
0.4958
0.495803
0.495807
0.495813
0.495821
0.495831
0.495844
0.495862
0.495885
0.495916
0.495956
0.496007
0.496073
0.496157
0.496262
0.496394
0.496557
0.496758
0.497
0.497291
0.497636
0.498042
0.498512
0.49905
0.49966
0.500337
0.501073
0.501876
0.502705
0.503569
0.504403
0.505192
0.505899
0.506483
0.506941
0.507224
0.507352
0.5074
0.507395
0.507415
0.507357
0.507228
0.507106
0.507248
0.50779
0.508354
0.506635
0.500929
0.493472
0.488067
0.485607
0.484942
0.484846
0.484806
0.484703
0.484564
0.484441
0.484397
0.484382
0.484453
0.484628
0.484938
0.485379
0.485955
0.486643
0.487393
0.488248
0.489103
0.48994
0.490741
0.49149
0.492166
0.492772
0.493305
0.493765
0.494161
0.494491
0.494765
0.494986
0.495165
0.495309
0.495422
0.495511
0.495579
0.495632
0.495673
0.495703
0.495726
0.495743
0.495756
0.495765
0.495772
0.495777
0.49578
0.495783
0.495784
0.495785
0.495797
0.495797
0.495799
0.4958
0.495803
0.495808
0.495813
0.495821
0.495831
0.495845
0.495862
0.495887
0.495917
0.495957
0.496009
0.496074
0.496159
0.496266
0.496401
0.496569
0.49677
0.497018
0.497303
0.497653
0.498052
0.49853
0.499064
0.499671
0.500353
0.501073
0.501876
0.502705
0.503576
0.504411
0.505192
0.505899
0.506483
0.50695
0.507224
0.507352
0.5074
0.507395
0.507415
0.507357
0.507228
0.507106
0.507248
0.50779
0.508354
0.506799
0.502411
0.495093
0.488725
0.48574
0.48497
0.484859
0.48481
0.48472
0.484586
0.484463
0.484409
0.484392
0.484462
0.484628
0.484938
0.485379
0.485955
0.486643
0.487393
0.488248
0.489103
0.48994
0.490741
0.49149
0.492166
0.492772
0.493305
0.493765
0.494161
0.494491
0.494765
0.494986
0.495165
0.495309
0.495422
0.495511
0.495579
0.495632
0.495673
0.495703
0.495726
0.495743
0.495756
0.495765
0.495772
0.495777
0.49578
0.495783
0.495784
0.495785
0.495797
0.495798
0.495799
0.4958
0.495804
0.495808
0.495814
0.495822
0.495832
0.495846
0.495865
0.495888
0.495919
0.49596
0.496015
0.496079
0.496176
0.496282
0.496422
0.496601
0.496796
0.497076
0.497335
0.497684
0.498096
0.49858
0.49913
0.499718
0.500414
0.501113
0.50186
0.502712
0.503597
0.504467
0.50519
0.505899
0.506478
0.506969
0.507248
0.507381
0.507405
0.507373
0.507373
0.507369
0.507319
0.50717
0.507097
0.507375
0.50775
0.506799
0.502411
0.495367
0.488895
0.485753
0.48497
0.484859
0.48481
0.48472
0.484595
0.484467
0.484424
0.484414
0.484506
0.484714
0.485044
0.48554
0.486097
0.486664
0.487417
0.488224
0.489103
0.489937
0.490717
0.49146
0.492121
0.492732
0.493253
0.493725
0.494128
0.494473
0.494747
0.494976
0.495155
0.495303
0.495417
0.495508
0.495577
0.495631
0.495673
0.495703
0.495726
0.495743
0.495755
0.495765
0.495772
0.495777
0.49578
0.495783
0.495784
0.495785
0.495797
0.495798
0.495799
0.495801
0.495804
0.495808
0.495815
0.495822
0.495832
0.495847
0.495865
0.495888
0.49592
0.495964
0.496017
0.49609
0.496178
0.496292
0.496437
0.496613
0.496811
0.497077
0.497369
0.497709
0.49814
0.498616
0.499179
0.499746
0.500414
0.50115
0.501936
0.502741
0.503619
0.504469
0.50518
0.505834
0.506446
0.506969
0.507248
0.507381
0.507405
0.507345
0.50733
0.507369
0.507387
0.507324
0.507012
0.506533
0.506089
0.505277
0.502011
0.495367
0.488895
0.485753
0.484949
0.48482
0.484792
0.48468
0.484604
0.484517
0.484502
0.484479
0.484554
0.484748
0.485085
0.485566
0.486097
0.486664
0.487417
0.488161
0.489102
0.489883
0.490675
0.49135
0.492061
0.492649
0.493181
0.493675
0.494086
0.494436
0.494723
0.494942
0.495139
0.495294
0.495411
0.495504
0.495574
0.495628
0.495667
0.495702
0.495724
0.495742
0.495755
0.495764
0.495771
0.495776
0.49578
0.495782
0.495784
0.495784
0.495797
0.495798
0.495799
0.495801
0.495804
0.495809
0.495815
0.495823
0.495833
0.495847
0.495865
0.495888
0.49592
0.495964
0.496017
0.49609
0.496178
0.496292
0.49644
0.496622
0.496825
0.497077
0.497369
0.497724
0.49814
0.498616
0.49922
0.499766
0.500411
0.50115
0.50197
0.502772
0.503665
0.504469
0.505219
0.505961
0.506438
0.506932
0.50724
0.507377
0.507405
0.507347
0.507303
0.507362
0.50739
0.507344
0.50715
0.506685
0.505771
0.5041
0.500538
0.494562
0.488745
0.485725
0.484953
0.484831
0.484774
0.484684
0.484608
0.484562
0.48456
0.484514
0.484563
0.484749
0.485088
0.485566
0.486084
0.486664
0.487402
0.488189
0.489034
0.489869
0.490641
0.491339
0.491989
0.492594
0.493136
0.493643
0.494054
0.494416
0.494709
0.494947
0.495131
0.495281
0.495405
0.495497
0.495569
0.495626
0.495667
0.495701
0.495723
0.495741
0.495755
0.495764
0.495771
0.495776
0.495779
0.495782
0.495784
0.495784
0.495797
0.495798
0.495799
0.495801
0.495804
0.495809
0.495815
0.495823
0.495833
0.495846
0.495861
0.495887
0.49592
0.495961
0.496017
0.496086
0.496174
0.496292
0.496442
0.496633
0.496828
0.497057
0.497366
0.497735
0.498139
0.498616
0.499242
0.499774
0.500336
0.501125
0.50197
0.502772
0.503665
0.504397
0.505219
0.50598
0.506505
0.506938
0.507235
0.507346
0.507388
0.507347
0.507303
0.507349
0.50739
0.507344
0.507194
0.507054
0.50641
0.504659
0.500602
0.494214
0.488428
0.485662
0.484955
0.484868
0.484787
0.484684
0.484608
0.484579
0.48456
0.484514
0.484572
0.484749
0.485088
0.485505
0.485944
0.486658
0.487371
0.488189
0.488961
0.489853
0.490601
0.491336
0.491987
0.492589
0.493172
0.493652
0.494055
0.494401
0.494694
0.494947
0.495126
0.495272
0.495398
0.495492
0.495561
0.495622
0.495667
0.495698
0.495723
0.49574
0.495754
0.495763
0.495771
0.495775
0.495779
0.495782
0.495784
0.495784
0.495797
0.495798
0.495799
0.495801
0.495804
0.495809
0.495814
0.495822
0.495833
0.495845
0.495862
0.495887
0.495919
0.495961
0.496016
0.496086
0.496174
0.496292
0.496442
0.496633
0.496828
0.497038
0.497366
0.497735
0.498146
0.498608
0.499242
0.499774
0.500379
0.501105
0.501919
0.50275
0.503648
0.504489
0.505357
0.50598
0.506637
0.507062
0.507286
0.507374
0.507394
0.507353
0.507302
0.507312
0.507287
0.507247
0.507194
0.507125
0.507011
0.505767
0.501661
0.494523
0.488222
0.485514
0.484955
0.484878
0.484787
0.484684
0.484615
0.484591
0.484553
0.48451
0.484585
0.484749
0.485043
0.485428
0.48595
0.486574
0.487331
0.488153
0.488945
0.489747
0.490545
0.491298
0.492
0.492615
0.493172
0.493652
0.494072
0.494412
0.494703
0.494936
0.495121
0.495276
0.495395
0.495487
0.495562
0.495618
0.495658
0.495694
0.495719
0.495739
0.495754
0.495763
0.49577
0.495775
0.495779
0.495782
0.495783
0.495784
0.495797
0.495798
0.495799
0.495801
0.495804
0.495808
0.495814
0.495821
0.495831
0.495844
0.495862
0.495887
0.495918
0.49596
0.496014
0.496084
0.496173
0.496287
0.496427
0.496611
0.496809
0.497038
0.497359
0.497723
0.498146
0.498598
0.499213
0.499741
0.500411
0.501195
0.501951
0.502796
0.503692
0.504558
0.505433
0.506032
0.506648
0.507076
0.507295
0.507406
0.507419
0.507353
0.507261
0.507323
0.507232
0.507115
0.507107
0.507147
0.507532
0.50664
0.502205
0.494627
0.488204
0.485525
0.485008
0.484878
0.484779
0.484666
0.484615
0.484591
0.484518
0.48453
0.484585
0.484749
0.485053
0.485563
0.48607
0.486673
0.487388
0.488141
0.488937
0.489741
0.490505
0.491163
0.492
0.492615
0.493126
0.493651
0.494072
0.494412
0.494704
0.494936
0.495122
0.495281
0.495398
0.495495
0.495568
0.495621
0.495663
0.495695
0.49572
0.495739
0.495753
0.495763
0.49577
0.495776
0.495779
0.495782
0.495784
0.495785
0.495797
0.495797
0.495799
0.495801
0.495803
0.495807
0.495813
0.49582
0.49583
0.495844
0.495861
0.495885
0.495916
0.495957
0.496009
0.496077
0.496163
0.49627
0.496407
0.496574
0.496773
0.497028
0.497319
0.497665
0.498083
0.498559
0.499119
0.499721
0.500411
0.501195
0.501986
0.50286
0.503742
0.504629
0.50546
0.506127
0.506648
0.507076
0.50731
0.507429
0.507436
0.507348
0.507283
0.507375
0.507272
0.507037
0.506923
0.50724
0.507815
0.506694
0.502205
0.494627
0.488195
0.48555
0.485025
0.484882
0.484746
0.484629
0.484589
0.484585
0.484564
0.484578
0.484583
0.48472
0.485053
0.485563
0.486089
0.486693
0.487388
0.488111
0.488885
0.489714
0.490464
0.491079
0.491936
0.492578
0.493087
0.493626
0.494067
0.494411
0.494704
0.494936
0.495126
0.495281
0.4954
0.495495
0.495568
0.495622
0.495665
0.495697
0.495721
0.49574
0.495753
0.495763
0.495771
0.495776
0.49578
0.495782
0.495784
0.495785
0.495797
0.495797
0.495799
0.495801
0.495803
0.495807
0.495813
0.49582
0.49583
0.495844
0.495861
0.495885
0.495916
0.495956
0.496008
0.496075
0.49616
0.496266
0.496399
0.496565
0.496765
0.497013
0.497306
0.497656
0.498072
0.498553
0.499105
0.499721
0.500411
0.50119
0.501986
0.50286
0.503742
0.504629
0.50546
0.506127
0.506648
0.507074
0.50731
0.507429
0.507436
0.507264
0.507283
0.507375
0.507272
0.507034
0.506923
0.50724
0.507815
0.506694
0.501825
0.494093
0.488041
0.48555
0.485025
0.484882
0.484746
0.484615
0.484573
0.484585
0.484564
0.484578
0.484583
0.48472
0.485053
0.485558
0.486089
0.486693
0.487381
0.488111
0.488875
0.489675
0.490435
0.491079
0.491893
0.492538
0.493087
0.493619
0.49405
0.494404
0.494698
0.494936
0.495126
0.49528
0.4954
0.495494
0.495567
0.495622
0.495665
0.495697
0.495721
0.49574
0.495753
0.495763
0.495771
0.495776
0.49578
0.495782
0.495784
0.495785
)
;

boundaryField
{
    sides1
    {
        type            calculated;
        value           uniform 0;
    }
    sides2
    {
        type            calculated;
        value           uniform 0;
    }
    empty
    {
        type            empty;
    }
}


// ************************************************************************* //
