/*--------------------------------*- C++ -*----------------------------------*\
| =========                 |                                                 |
| \\      /  F ield         | OpenFOAM: The Open Source CFD Toolbox           |
|  \\    /   O peration     | Version:  3.0.1                                 |
|   \\  /    A nd           | Web:      www.OpenFOAM.org                      |
|    \\/     M anipulation  |                                                 |
\*---------------------------------------------------------------------------*/
FoamFile
{
    version     2.0;
    format      ascii;
    class       surfaceScalarField;
    location    "0.00025";
    object      phi;
}
// * * * * * * * * * * * * * * * * * * * * * * * * * * * * * * * * * * * * * //

dimensions      [1 0 -1 0 0 0 0];

internalField   nonuniform List<scalar> 
1890
(
8.51e-07
-5.46635e-09
1.69823e-06
-5.62874e-09
2.69901e-06
-1.49911e-08
3.92932e-06
-2.05703e-08
5.49118e-06
-3.30445e-08
7.47377e-06
-2.5059e-08
1.00274e-05
-2.42229e-08
1.33046e-05
1.75968e-09
1.75426e-05
-1.0041e-08
2.30031e-05
-1.85207e-08
3.00092e-05
-3.31119e-08
3.89113e-05
-3.98181e-09
5.01256e-05
6.85213e-08
6.39496e-05
3.52384e-07
8.11601e-05
4.1265e-07
0.000102343
4.70497e-07
0.000128176
5.65894e-07
0.000159204
8.22856e-07
0.000196082
1.15411e-06
0.000239359
1.63244e-06
0.000289394
2.38006e-06
0.000346842
3.12115e-06
0.000412997
2.84229e-06
0.000487277
3.48482e-06
0.000569097
4.25415e-06
0.000658684
4.42339e-06
0.000754648
4.83004e-06
0.000855552
5.12034e-06
0.000959497
5.19764e-06
0.00106472
4.25597e-06
0.00116852
2.87359e-06
0.00126335
5.23204e-06
0.00134567
7.71527e-06
0.00141575
6.3276e-06
0.00146977
6.30315e-06
0.00150965
2.71455e-06
0.0015339
3.66834e-07
0.00154645
-3.3109e-06
0.00155394
-8.95411e-06
0.00155628
-8.62069e-06
0.00155737
-8.86208e-06
0.00155477
-3.51521e-06
0.00155106
-1.66232e-06
0.00154831
-1.80811e-06
0.00154676
-3.13659e-06
0.00154986
-7.23594e-06
0.00155576
-9.89818e-06
0.00156474
-1.17673e-05
0.00156071
2.99867e-06
0.0015007
4.65738e-05
0.00143993
2.87476e-05
0.00141938
-9.35196e-06
0.0014137
-9.88582e-06
0.00140764
2.06593e-07
0.0014029
3.14257e-06
0.00140238
7.61243e-07
0.0014056
-2.01091e-06
0.00141005
-1.74397e-06
0.00141757
-1.3708e-06
0.00143085
-1.94492e-06
0.00144634
-4.18491e-06
0.00145943
-3.06634e-06
0.00147105
-3.07345e-06
0.00147712
-3.44533e-06
0.0014695
-4.45154e-07
0.00144679
2.06379e-07
0.00140977
-2.33138e-06
0.00135499
-2.54868e-06
0.00128229
-2.18851e-06
0.00119618
-4.34868e-06
0.00109765
-3.96128e-06
0.000993733
-6.11384e-06
0.000886035
-5.29094e-06
0.000779719
-5.68779e-06
0.000677725
-5.85802e-06
0.000582233
-5.85313e-06
0.00049546
-6.28479e-06
0.000417347
-5.50934e-06
0.000347458
-3.72413e-06
0.000285633
-1.93526e-06
0.000232643
-1.43783e-06
0.000188146
-1.31274e-06
0.000150594
-5.11393e-07
0.000119574
-2.33765e-07
9.41465e-05
3.33284e-08
7.35312e-05
1.84904e-07
5.70274e-05
2.0542e-07
4.38591e-05
2.75372e-07
3.36013e-05
1.348e-07
2.5518e-05
2.11368e-07
1.92819e-05
1.57118e-07
1.44957e-05
1.14485e-07
1.07536e-05
1.75331e-07
7.93142e-06
8.84427e-08
5.78148e-06
4.50601e-08
4.11308e-06
3.48797e-08
2.81535e-06
6.7123e-09
1.77146e-06
-7.41061e-09
8.87105e-07
-1.08442e-08
-1.70695e-09
7.7018e-07
6.05717e-08
1.53571e-06
6.87677e-08
2.41667e-06
8.70662e-08
3.47614e-06
1.35313e-07
4.81173e-06
1.42431e-07
6.62127e-06
8.04479e-08
8.82238e-06
2.82246e-07
1.16388e-05
4.58691e-07
1.53348e-05
4.95606e-07
2.0213e-05
4.87233e-07
2.67826e-05
3.03903e-07
3.51017e-05
4.00737e-07
4.53849e-05
1.03762e-06
5.73088e-05
2.71973e-06
7.33086e-05
2.04665e-06
9.39184e-05
1.59834e-06
0.000118239
2.60463e-06
0.000147384
3.62711e-06
0.00018201
4.52796e-06
0.000222564
5.89275e-06
0.000268479
8.48461e-06
0.000322194
9.77049e-06
0.000383301
1.07829e-05
0.000455137
9.24611e-06
0.000535965
9.79014e-06
0.000622579
1.15043e-05
0.000715925
1.24482e-05
0.000814149
1.27662e-05
0.0009152
1.31305e-05
0.00101816
1.09885e-05
0.0011221
5.64939e-06
0.0012205
7.14616e-06
0.00130717
1.06432e-05
0.00138239
7.34572e-06
0.0014435
5.43579e-06
0.00149227
-3.52832e-06
0.00152492
-8.07276e-06
0.00154329
-1.35665e-05
0.0015499
-1.79752e-05
0.00154965
-1.5486e-05
0.00154595
-1.39491e-05
0.0015438
-8.28349e-06
0.00154112
-4.6042e-06
0.00153654
-1.36472e-06
0.00153361
-3.30936e-06
0.00153311
-9.96511e-06
0.00152879
-7.92618e-06
0.00151734
1.06889e-06
0.00152167
5.98083e-06
0.00152558
4.46402e-05
0.00150298
3.5742e-05
0.00147562
-5.97902e-06
0.00145516
-5.1907e-06
0.00144551
3.97337e-06
0.00143611
1.11428e-05
0.00143001
7.08092e-06
0.00142494
4.69852e-06
0.00142256
4.24649e-06
0.00142503
3.25326e-06
0.00143398
5.12578e-07
0.001445
-3.26757e-06
0.00145552
-2.3327e-06
0.00146428
-1.46885e-06
0.00146414
6.39345e-07
0.00144982
6.63477e-06
0.00141851
9.96973e-06
0.00137145
5.82994e-06
0.00130859
3.81344e-06
0.00123456
-2.0419e-06
0.00114466
-5.45316e-06
0.00104576
-8.47684e-06
0.000940968
-1.21561e-05
0.000836244
-1.4053e-05
0.000732747
-1.48918e-05
0.00063441
-1.54267e-05
0.000543099
-1.58968e-05
0.000460366
-1.67542e-05
0.000385145
-1.39942e-05
0.000317983
-1.03765e-05
0.000260194
-7.76065e-06
0.000210589
-6.24931e-06
0.000168419
-5.05154e-06
0.000133932
-3.95898e-06
0.000105564
-3.0489e-06
8.26817e-05
-2.36027e-06
6.43827e-05
-1.83579e-06
4.97548e-05
-1.38864e-06
3.82848e-05
-1.06722e-06
2.90993e-05
-8.24855e-07
2.21471e-05
-6.4333e-07
1.67921e-05
-5.33749e-07
1.25579e-05
-2.72595e-07
9.22692e-06
3.76202e-08
6.79599e-06
-1.67805e-07
4.95716e-06
-1.92081e-07
3.58929e-06
-2.12559e-07
2.51222e-06
-2.01362e-07
1.58889e-06
-1.36072e-07
7.91402e-07
-1.12734e-07
-8.76659e-08
8.8601e-07
4.5014e-08
1.77145e-06
5.43595e-08
2.82895e-06
4.79299e-08
4.17746e-06
7.79592e-08
5.7373e-06
1.57989e-07
7.51325e-06
1.85212e-07
1.02164e-05
1.87779e-07
1.38003e-05
3.1473e-07
1.83143e-05
3.57813e-07
2.36995e-05
5.71051e-07
3.06584e-05
9.06904e-08
3.94391e-05
1.95956e-07
5.14498e-05
5.312e-07
6.85648e-05
1.30063e-06
8.71018e-05
1.65174e-06
0.000107928
2.39929e-06
0.000134181
2.69612e-06
0.000166832
3.29595e-06
0.000205029
4.6854e-06
0.000251132
4.58129e-06
0.000305136
6.90873e-06
0.000365461
8.65203e-06
0.000439995
6.78326e-06
0.000517789
9.56806e-06
0.000603545
9.08522e-06
0.000693349
1.43083e-05
0.000793232
1.21569e-05
0.000899216
1.13192e-05
0.0010062
1.24836e-05
0.00111504
1.11088e-05
0.00122145
6.82475e-06
0.00132223
6.33668e-06
0.00140929
1.10481e-05
0.0014802
8.81707e-06
0.0015307
1.39703e-05
0.00157058
-3.91343e-07
0.00159323
-6.56534e-06
0.0015933
-6.02453e-06
0.00158148
-8.07213e-06
0.00156658
-6.66391e-06
0.00155228
-7.5016e-06
0.00154017
-4.66152e-06
0.00153334
-3.28713e-06
0.00152897
2.5535e-07
0.00152533
-1.88614e-06
0.00152247
-8.58685e-06
0.0015194
-6.80237e-06
0.00151769
1.24129e-06
0.00150684
1.57387e-05
0.00151517
3.60226e-05
0.00151532
2.6658e-05
0.00149189
-5.59571e-06
0.00147209
-3.97527e-06
0.00146509
4.15751e-06
0.00146643
8.11752e-06
0.00146223
1.13335e-05
0.0014566
1.0919e-05
0.00145256
1.13872e-05
0.00145333
9.22556e-06
0.00146334
2.26148e-06
0.00147661
-3.83145e-06
0.00149014
-4.10755e-06
0.00150267
-3.60836e-06
0.00151062
-3.35085e-06
0.00150756
1.87628e-06
0.00148598
8.59772e-06
0.0014502
3.70284e-06
0.00139913
6.43015e-07
0.00133527
-9.33094e-06
0.00125143
-6.98956e-06
0.00115153
-1.04835e-05
0.00104157
-1.28477e-05
0.000930108
-1.66347e-05
0.000819767
-1.72596e-05
0.000714197
-1.7736e-05
0.000615363
-1.95841e-05
0.000525115
-2.16773e-05
0.000439909
-1.38619e-05
0.000363367
-8.219e-06
0.000296499
-5.33689e-06
0.000241164
-5.9619e-06
0.000194268
-4.50419e-06
0.000154975
-3.07804e-06
0.000122569
-2.28131e-06
9.62074e-05
-1.67384e-06
7.49358e-05
-1.27817e-06
5.79623e-05
-9.53615e-07
4.45158e-05
-7.40781e-07
3.3687e-05
-4.21947e-07
2.53792e-05
-3.85602e-07
1.89094e-05
-3.10383e-07
1.4122e-05
-1.68387e-07
1.09333e-05
-1.0267e-07
8.28157e-06
-2.19186e-07
6.11329e-06
-1.55991e-07
4.42235e-06
-2.3205e-07
3.04363e-06
-2.09405e-07
1.91479e-06
-1.22015e-07
9.18912e-07
-5.81418e-08
-9.22538e-08
9.45899e-07
-6.95686e-09
1.87738e-06
-1.26648e-09
2.95561e-06
6.25367e-09
4.43747e-06
-6.56888e-08
6.32583e-06
-7.01497e-08
8.34936e-06
1.51971e-07
1.1245e-05
-4.46911e-08
1.51853e-05
-1.11777e-07
2.02354e-05
-8.66929e-08
2.66568e-05
-2.51786e-07
3.32461e-05
-1.67489e-09
4.19591e-05
7.54289e-08
5.51513e-05
-6.8692e-07
7.42055e-05
-1.86476e-06
9.49589e-05
-6.20068e-07
0.000117851
1.3158e-06
0.000145773
1.41247e-06
0.000179604
1.68319e-06
0.000220209
2.24516e-06
0.000265235
3.48748e-06
0.000325921
1.19978e-06
0.000393579
5.62732e-07
0.000469957
-5.69386e-07
0.000555588
1.97479e-06
0.000642738
4.57431e-06
0.000741385
7.86579e-06
0.000837903
1.13866e-05
0.000945859
7.72848e-06
0.00106206
3.76184e-06
0.00117832
6.24892e-06
0.00128845
7.22236e-06
0.0013838
1.00736e-05
0.00147048
1.05819e-05
0.0015394
7.12571e-06
0.00160841
5.00352e-06
0.00164366
1.2006e-05
0.00164583
1.37122e-05
0.00163118
1.50581e-05
0.00160764
1.34908e-05
0.00159121
2.86921e-06
0.00157374
1.87304e-06
0.00155223
8.85264e-06
0.00153847
4.0525e-06
0.00153386
1.70637e-06
0.00153261
-1.50576e-06
0.00152286
2.82704e-07
0.00151221
2.27658e-06
0.0015046
2.92171e-06
0.0014989
1.2531e-05
0.00150646
2.04625e-05
0.00151049
8.5446e-06
0.0014877
-7.67484e-06
0.00146974
-4.97581e-06
0.00146903
-2.23242e-06
0.0014713
5.03921e-06
0.00147258
1.02412e-05
0.00147653
7.8175e-06
0.00148047
1.08991e-05
0.00148682
9.01297e-06
0.00149858
9.92513e-07
0.00151059
-4.30444e-06
0.00152243
-4.30137e-06
0.00153382
-4.73177e-06
0.0015409
-6.61378e-06
0.00154052
-6.45739e-06
0.00152555
-2.07366e-06
0.00150092
-7.32542e-06
0.00146231
-8.62745e-06
0.00140211
-1.69942e-05
0.00132692
-1.40387e-05
0.00123131
-1.55367e-05
0.0011244
-1.31301e-05
0.00100497
-9.90894e-06
0.000885893
-7.62412e-06
0.000769763
-9.41912e-06
0.000659141
-1.28572e-05
0.000550607
-1.19531e-05
0.000453563
-3.81786e-06
0.000373124
-2.4123e-06
0.000305117
-2.23079e-06
0.000246231
-2.81696e-06
0.000197816
-2.25137e-06
0.000157095
-1.18867e-06
0.000124153
-1.28263e-06
9.72212e-05
-8.56796e-07
7.55899e-05
-7.05607e-07
5.84053e-05
-5.52705e-07
4.47432e-05
-3.71013e-07
3.45404e-05
-5.32145e-07
2.61718e-05
-1.82591e-07
1.96498e-05
-9.14898e-08
1.50461e-05
-2.70463e-07
1.20099e-05
-4.3554e-07
9.30318e-06
-2.46877e-07
7.06506e-06
-1.15517e-07
5.062e-06
-4.8614e-08
3.29275e-06
1.32098e-08
2.0157e-06
-1.47922e-08
1.02156e-06
-9.58801e-09
-4.59307e-08
8.98054e-07
-2.27308e-08
1.81022e-06
-4.75667e-08
2.84014e-06
8.89991e-09
4.01675e-06
-9.91207e-09
5.59037e-06
-8.99548e-08
7.85239e-06
-7.64003e-08
1.04297e-05
-2.88833e-08
1.36549e-05
2.13938e-08
1.81648e-05
-1.87146e-07
2.39344e-05
-5.1922e-07
3.11511e-05
-3.68198e-07
4.00427e-05
-2.84167e-07
5.14644e-05
-7.60051e-07
6.52762e-05
-1.08316e-06
8.37278e-05
-8.96964e-07
0.000108845
-1.12388e-06
0.0001378
-2.77471e-07
0.000171767
1.30664e-07
0.000211939
2.11995e-07
0.000257846
2.30471e-06
0.000310768
1.16453e-06
0.000374977
-2.84755e-06
0.000444089
-2.02039e-06
0.000525759
-2.13506e-06
0.000619097
-2.35299e-06
0.000718056
-7.70767e-07
0.000820448
4.07625e-06
0.000929363
3.00679e-06
0.0010465
-1.77897e-06
0.00116452
-1.55721e-06
0.00126803
9.92066e-06
0.00137013
7.15411e-06
0.00147993
-5.42764e-06
0.0015554
6.27282e-06
0.00160033
1.07579e-05
0.00162892
1.93279e-05
0.00163908
2.30299e-05
0.00163195
2.60805e-05
0.00161647
2.29992e-05
0.00158961
2.05048e-05
0.00156895
1.37245e-05
0.00155848
9.59148e-06
0.0015469
8.52222e-06
0.00154034
3.69381e-06
0.00153112
5.75657e-06
0.0015194
9.3453e-06
0.00151113
5.20899e-06
0.00150529
2.64308e-06
0.00150225
7.73267e-06
0.00151308
-3.76695e-07
0.00151019
-5.72785e-06
0.00148731
-8.67531e-06
0.00146878
-4.54434e-06
0.0014657
-5.32663e-06
0.00146698
2.78215e-06
0.00147525
1.92752e-06
0.00147968
4.45228e-06
0.0014863
6.70898e-06
0.00149519
6.08025e-06
0.00150406
7.50375e-07
0.00150974
3.43374e-07
0.00151595
4.22329e-07
0.00152265
-1.57956e-06
0.00152392
-3.6936e-06
0.00152301
-1.61682e-05
0.00152349
-2.35721e-05
0.001503
-2.07077e-05
0.00146547
-1.97433e-05
0.00140363
-2.08113e-05
0.00131949
-1.8749e-05
0.00122136
-1.59104e-05
0.00111248
-1.18771e-05
0.000999347
-8.96601e-06
0.000887341
-5.67948e-06
0.000772317
-2.38487e-06
0.00064901
3.40746e-06
0.000531195
7.61468e-06
0.000433621
6.65969e-06
0.000355955
1.27132e-06
0.000293896
-4.0083e-06
0.000238208
-2.41279e-06
0.000188768
-4.26447e-07
0.000149356
-1.07172e-06
0.000117457
-1.37031e-06
9.181e-05
-1.45161e-06
7.13533e-05
-1.49868e-06
5.56351e-05
-1.5434e-06
4.30766e-05
-1.20476e-06
3.298e-05
-1.01028e-06
2.55831e-05
-9.38253e-07
1.98787e-05
-6.19617e-07
1.50588e-05
-3.16524e-07
1.12851e-05
-3.95237e-07
8.51819e-06
-3.74895e-07
6.24357e-06
-1.20617e-07
4.54011e-06
-1.18566e-07
3.07469e-06
3.28365e-08
1.93078e-06
-1.34136e-08
1.0133e-06
-2.67831e-08
-2.20498e-08
8.68056e-07
-2.11974e-08
1.66425e-06
-5.3028e-09
2.71531e-06
-4.2336e-08
3.92699e-06
-3.75701e-08
5.30943e-06
-1.54743e-08
7.35589e-06
-1.70001e-07
9.96494e-06
-6.28206e-08
1.32579e-05
1.17317e-07
1.71989e-05
7.32059e-08
2.20717e-05
-1.27526e-07
2.88959e-05
-1.15888e-07
3.70922e-05
1.60162e-07
4.73249e-05
1.09382e-07
6.02733e-05
1.48064e-07
7.71001e-05
-5.58399e-08
9.83951e-05
-3.03974e-07
0.000125769
-5.91844e-07
0.00015957
-1.20299e-06
0.00019988
-1.75127e-06
0.000250742
-4.08257e-06
0.000311936
-7.48252e-06
0.000373338
-2.29835e-06
0.000434931
4.15647e-06
0.000508407
5.39496e-07
0.000595821
-3.86725e-06
0.000689659
-2.15522e-06
0.000792422
-3.97998e-06
0.00090451
-3.11242e-06
0.00102363
-1.61052e-06
0.0011478
-1.19681e-05
0.00126326
-2.6573e-07
0.00136755
-5.96361e-07
0.00145955
-6.08211e-06
0.0015317
1.38638e-05
0.00157095
2.28799e-05
0.00159069
3.1572e-05
0.00160454
2.98742e-05
0.00159955
3.65515e-05
0.00158453
3.25765e-05
0.00157625
1.81897e-05
0.00157044
8.56724e-06
0.00156629
3.47152e-06
0.00155787
8.54734e-06
0.00154331
1.21814e-05
0.0015305
1.48012e-05
0.00152017
1.58181e-05
0.00151514
6.80667e-06
0.0015184
-2.1679e-06
0.00152522
-2.50742e-06
0.0015268
-9.08555e-06
0.00151674
-1.04918e-05
0.00149255
-7.09161e-06
0.00147579
-3.44682e-06
0.00146944
-5.10143e-06
0.00147326
-3.60179e-06
0.00147368
4.17687e-07
0.00147567
2.11418e-06
0.00147827
5.39989e-06
0.00148489
4.72434e-06
0.00149173
1.81611e-06
0.00149939
2.47287e-06
0.00151022
-3.3665e-07
0.0015227
-4.47456e-06
0.00153296
-9.2377e-06
0.00152566
-1.84883e-05
0.00150414
-1.97227e-05
0.00146966
-1.75336e-05
0.00142195
-2.28627e-05
0.0013511
-1.72332e-05
0.00126001
-1.39393e-05
0.00116258
-1.3909e-05
0.00105367
-1.05428e-05
0.000944783
-1.05102e-05
0.000836894
-9.15462e-06
0.000726847
5.24489e-07
0.000621038
6.35765e-06
0.000518221
1.46009e-05
0.000438099
3.05407e-06
0.000370441
-4.12986e-06
0.000305438
-3.77826e-06
0.000249285
-1.76799e-06
0.000201443
-7.00557e-07
0.000162069
-1.11444e-06
0.00012931
-8.05688e-07
0.000102178
-9.15562e-07
7.96264e-05
-4.8049e-07
6.1734e-05
-4.87293e-07
4.77003e-05
-7.82604e-07
3.64019e-05
-5.46934e-07
2.77772e-05
-6.36209e-07
2.13556e-05
-5.98948e-07
1.63212e-05
-2.58064e-07
1.20892e-05
-1.40238e-07
8.60335e-06
-6.184e-08
6.04232e-06
-1.04737e-08
4.31563e-06
-1.60523e-07
3.09958e-06
-8.47475e-08
1.98003e-06
-3.65836e-08
1.00285e-06
-2.9201e-08
-8.04883e-10
8.84385e-07
-4.32167e-08
1.72349e-06
-1.89361e-08
2.60848e-06
-9.68355e-09
3.72348e-06
-1.77756e-08
5.21116e-06
-4.20605e-08
7.01481e-06
-8.52711e-08
9.73532e-06
-1.26943e-07
1.38278e-05
-3.69245e-07
1.87164e-05
-3.52809e-07
2.41002e-05
-1.41928e-07
3.10001e-05
-1.33197e-07
4.01258e-05
-2.32427e-07
5.17985e-05
-3.91743e-07
6.67029e-05
-5.28981e-07
8.51246e-05
-7.97943e-07
0.000107701
-1.11165e-06
0.00013505
-1.46935e-06
0.000167669
-2.32061e-06
0.000207071
-3.93991e-06
0.000248578
-4.49307e-06
0.00029615
-5.12973e-06
0.000364955
-6.87654e-06
0.00044436
-4.30997e-06
0.000519031
-1.30988e-06
0.000597116
-9.20979e-07
0.000698104
-7.49194e-06
0.000810329
-1.61141e-05
0.000920743
-6.90819e-06
0.0010346
1.23342e-08
0.00114017
-2.82392e-06
0.00124146
7.88379e-06
0.00133352
9.78138e-06
0.00139987
1.80965e-05
0.00146554
2.2449e-05
0.00151354
2.75145e-05
0.00154664
3.41208e-05
0.00156647
2.59645e-05
0.00157314
3.1639e-05
0.00157276
2.64633e-05
0.00157044
1.13181e-05
0.00156621
2.76625e-06
0.00156256
-1.59339e-06
0.00155736
5.18336e-06
0.00154785
1.5393e-05
0.00153842
1.87035e-05
0.00153557
1.38512e-05
0.00153983
-8.11146e-07
0.00154196
-6.93186e-06
0.00154774
-1.09185e-05
0.00155913
-2.51718e-05
0.00154754
-1.34375e-05
0.00152227
-6.46065e-06
0.00150137
-1.54133e-06
0.00149084
-1.88838e-06
0.00148438
2.6283e-07
0.00148059
2.29195e-06
0.00147507
7.00495e-06
0.00147387
8.61771e-06
0.00147526
8.27032e-06
0.00148142
3.2117e-06
0.00149209
1.16814e-06
0.00151311
-1.17117e-05
0.00152834
-1.04969e-05
0.00153387
-1.04787e-05
0.00151226
-2.43666e-06
0.00147699
-2.26496e-06
0.00142421
-1.34873e-06
0.00135651
-8.02006e-06
0.00127698
-6.67602e-06
0.00118787
-1.05825e-05
0.00108956
-1.26499e-05
0.000989001
-1.44961e-05
0.000893551
-2.37417e-05
0.000795189
-1.67273e-05
0.000698823
-1.08278e-05
0.000613023
-1.08522e-05
0.000544854
-5.91463e-06
0.000469352
-4.96882e-06
0.000389873
-2.21872e-06
0.000318237
1.71721e-07
0.000258239
9.56296e-07
0.000210154
-1.82565e-08
0.000168833
5.14582e-07
0.000134524
5.74936e-07
0.000105937
7.33735e-07
8.33677e-05
6.39358e-07
6.48303e-05
7.4748e-07
5.01674e-05
2.82347e-07
3.92125e-05
4.05904e-08
3.00272e-05
1.67241e-07
2.29285e-05
1.87129e-08
1.77372e-05
-8.40726e-08
1.32151e-05
2.53293e-07
9.77038e-06
2.17072e-07
7.21934e-06
1.80066e-07
4.9884e-06
2.11489e-07
3.3972e-06
8.64823e-08
2.11551e-06
5.94627e-08
1.03299e-06
5.76855e-08
4.81893e-08
8.48589e-07
-5.57394e-08
1.74211e-06
-7.78382e-08
2.777e-06
-8.61341e-08
4.01905e-06
-9.19931e-08
5.56125e-06
-1.05075e-07
7.5005e-06
-1.18496e-07
1.01008e-05
-1.90702e-07
1.35802e-05
-3.9257e-07
1.80722e-05
-4.34413e-07
2.37046e-05
-3.18932e-07
3.04774e-05
-1.8929e-07
3.95098e-05
-5.65442e-07
5.10312e-05
-7.9648e-07
6.55549e-05
-1.11162e-06
8.38118e-05
-1.54649e-06
0.000106205
-2.00344e-06
0.000133552
-2.61272e-06
0.000166291
-3.33614e-06
0.000204131
-4.13166e-06
0.000249002
-5.27475e-06
0.00030002
-4.92705e-06
0.000359499
-6.07073e-06
0.000436321
-9.38575e-06
0.00052229
-9.1365e-06
0.000616132
-9.05392e-06
0.000710211
-7.87654e-06
0.000802045
-7.02711e-06
0.000903633
-1.17503e-06
0.00101001
2.56129e-06
0.00110456
1.0811e-05
0.00120804
1.41719e-05
0.00130645
1.5297e-05
0.00139555
2.0492e-05
0.00146451
2.39668e-05
0.00151557
2.73214e-05
0.00156161
2.81083e-05
0.00158134
1.80582e-05
0.00159235
1.93987e-05
0.0015965
1.6251e-05
0.00159261
7.00616e-06
0.00158243
3.42618e-06
0.00156768
3.43657e-06
0.00156224
3.58846e-06
0.00155934
1.24492e-05
0.00156271
9.926e-06
0.001565
7.54288e-06
0.00156163
5.70957e-07
0.00156239
-6.32859e-06
0.00157581
-1.96825e-05
0.00159644
-4.51234e-05
0.00158085
-9.50232e-06
0.0015482
7.73564e-08
0.00152395
3.44552e-06
0.00151265
2.12115e-06
0.00150224
7.50381e-06
0.00149349
9.07399e-06
0.00149027
9.85823e-06
0.00149146
9.10781e-06
0.00149297
1.18721e-05
0.00150007
4.36814e-06
0.00151269
-7.76927e-07
0.00152394
-1.24776e-05
0.00153483
-1.18486e-05
0.00153854
-8.00859e-06
0.00153236
-4.44616e-07
0.00150219
6.58695e-07
0.0014687
-6.23975e-06
0.00140793
3.16015e-06
0.0013353
-2.95688e-06
0.00124354
-1.93985e-06
0.00114745
-1.11559e-05
0.00104636
-1.96421e-05
0.00092776
-1.85149e-05
0.000831815
-1.60767e-05
0.000726195
-1.48646e-05
0.000619814
-1.09647e-05
0.000544145
-1.44636e-05
0.000458475
-3.68034e-06
0.000376069
9.81859e-07
0.00030811
1.32793e-06
0.000250929
1.27729e-06
0.000202029
1.19428e-06
0.000161931
1.30922e-06
0.000128431
1.2706e-06
0.000101334
1.26701e-06
7.9448e-05
9.47749e-07
6.19751e-05
5.80122e-07
4.77637e-05
7.46535e-07
3.65339e-05
6.24825e-07
2.7877e-05
4.64658e-07
2.10001e-05
3.83416e-07
1.55143e-05
3.43646e-07
1.15909e-05
2.58326e-07
8.62928e-06
2.15951e-07
6.39184e-06
1.64008e-07
4.65167e-06
1.64817e-07
3.19549e-06
1.23025e-07
1.99823e-06
1.0144e-07
9.79815e-07
9.55701e-08
6.74528e-08
7.42453e-07
1.65859e-08
1.4836e-06
2.63723e-09
2.36028e-06
2.70484e-09
3.4237e-06
2.03521e-08
4.78142e-06
2.47343e-08
6.53838e-06
3.81069e-08
8.78502e-06
3.97606e-08
1.16662e-05
-8.74352e-09
1.53282e-05
5.76064e-08
2.02052e-05
1.25401e-07
2.6479e-05
2.76646e-07
3.42617e-05
2.67347e-07
4.41455e-05
2.75792e-07
5.65169e-05
2.734e-07
7.20958e-05
1.03444e-07
9.14639e-05
-6.57266e-08
0.000115434
-4.62431e-07
0.000144757
-7.86064e-07
0.000179376
-8.12372e-07
0.000220754
-1.56449e-06
0.000269686
-1.16975e-06
0.000325162
-1.31445e-06
0.000387786
-1.7361e-06
0.000460837
-2.53865e-06
0.000541084
-2.09599e-06
0.000630427
-2.21058e-06
0.000727858
-1.93371e-06
0.000832955
1.43342e-06
0.000940411
4.40629e-06
0.00105004
7.66819e-06
0.00116566
7.45423e-06
0.00127336
8.57197e-06
0.00137375
1.03768e-05
0.0014588
8.71958e-06
0.00152558
7.7317e-06
0.00158318
4.35178e-06
0.00160811
7.46444e-06
0.0016185
5.83445e-06
0.0016212
7.50648e-06
0.00161792
2.73741e-06
0.00160674
5.63472e-06
0.00159589
5.85731e-06
0.00159097
2.97956e-06
0.00159221
7.92189e-06
0.00159437
5.11872e-06
0.00159677
4.2799e-06
0.00159029
7.90402e-06
0.00158639
3.33222e-06
0.0016081
-3.04488e-05
0.00159737
-2.75044e-05
0.00158514
-1.18117e-05
0.00154771
1.06544e-05
0.00152257
1.09431e-05
0.00151215
6.03102e-06
0.0015089
8.35069e-06
0.00150729
9.78207e-06
0.00150831
8.30568e-06
0.00151502
4.10538e-06
0.00152464
7.47694e-06
0.00153472
3.24281e-06
0.00154439
7.20933e-07
0.00154736
-4.73126e-06
0.00155084
-4.28082e-06
0.00155119
-1.71271e-06
0.00155101
-3.62717e-06
0.00153471
-8.65524e-06
0.0014968
-6.91804e-06
0.00144594
4.03462e-06
0.00137751
-1.83638e-06
0.00129728
-7.31753e-07
0.00119696
-4.09319e-06
0.00107636
-8.42292e-06
0.000938002
2.36894e-06
0.000825236
-2.67131e-06
0.00070668
-4.57674e-06
0.000595145
-4.19438e-06
0.00049589
-5.81952e-06
0.000412248
-4.28568e-06
0.000340847
-3.51214e-06
0.000279234
-2.79212e-06
0.000226368
-2.03362e-06
0.000181672
-1.44424e-06
0.000145175
-1.28784e-06
0.000115104
-9.8736e-07
9.07788e-05
-7.55303e-07
7.08274e-05
-5.30771e-07
5.44316e-05
-2.87471e-07
4.1748e-05
-1.88502e-07
3.17118e-05
-6.68046e-08
2.39011e-05
-4.75868e-08
1.79592e-05
-1.01703e-07
1.34584e-05
-1.10536e-07
1.00819e-05
-1.45067e-07
7.49051e-06
-9.25551e-08
5.48049e-06
-5.70802e-08
3.93574e-06
-2.8409e-08
2.68762e-06
3.46841e-10
1.69495e-06
-1.73096e-08
8.42576e-07
-3.10253e-09
-1.3476e-08
8.51804e-07
1.68863e-06
2.6679e-06
3.88342e-06
5.41844e-06
7.39419e-06
9.9396e-06
1.31711e-05
1.74011e-05
2.28801e-05
2.99916e-05
3.89848e-05
5.03035e-05
6.44769e-05
8.19124e-05
0.000103282
0.000129084
0.000160146
0.000197501
0.0002412
0.000292958
0.000352809
0.000420982
0.000497181
0.000582248
0.000674928
0.000774927
0.000883535
0.000997159
0.0011136
0.00122592
0.0013324
0.00142861
0.00150533
0.00156094
0.00159574
0.00161842
0.00162473
0.0016252
0.00162002
0.00161632
0.00161537
0.00161413
0.00162069
0.00162543
0.00163031
0.00163784
0.00163944
0.00160403
0.00156081
0.001521
0.00150167
0.00149518
0.00149537
0.00150162
0.00151064
0.00151856
0.00152404
0.00153615
0.00154786
0.00155908
0.00156453
0.00156911
0.00157261
0.0015642
0.0015364
0.0014936
0.00144501
0.00137573
0.00129614
0.00119728
0.00108116
0.000972916
0.000862612
0.000751717
0.000645067
0.000545839
0.000456394
0.000376981
0.000308378
0.000250129
0.000201239
0.00016048
0.000126987
9.96954e-05
7.77289e-05
6.02405e-05
4.64241e-05
3.56412e-05
2.72267e-05
2.06449e-05
1.55373e-05
1.15567e-05
8.5255e-06
6.20804e-06
4.42692e-06
3.04649e-06
1.9092e-06
9.55019e-07
)
;

boundaryField
{
    sides1
    {
        type            calculated;
        value           nonuniform List<scalar> 
20
(
8.85633e-08
8.04429e-08
9.79032e-08
1.1729e-07
1.16583e-07
1.00168e-07
1.12257e-07
9.84761e-08
8.12755e-08
9.36126e-08
-9.12113e-08
-8.25343e-08
-9.04737e-08
-1.12818e-07
-1.23548e-07
-1.09184e-07
-1.09932e-07
-9.2008e-08
-8.14977e-08
-8.9495e-08
)
;
    }
    sides2
    {
        type            calculated;
        value           uniform 0;
    }
    empty
    {
        type            empty;
        value           nonuniform 0();
    }
}


// ************************************************************************* //
