/*--------------------------------*- C++ -*----------------------------------*\
| =========                 |                                                 |
| \\      /  F ield         | OpenFOAM: The Open Source CFD Toolbox           |
|  \\    /   O peration     | Version:  2012                                  |
|   \\  /    A nd           | Website:  www.openfoam.com                      |
|    \\/     M anipulation  |                                                 |
\*---------------------------------------------------------------------------*/
FoamFile
{
    version     2.0;
    format      ascii;
    class       volScalarField;
    location    "0.4";
    object      p;
}
// * * * * * * * * * * * * * * * * * * * * * * * * * * * * * * * * * * * * * //

dimensions      [1 -1 -2 0 0 0 0];


internalField   nonuniform List<scalar> 
160
(
100558.8772
100553.6222
100550.3867
100552.1482
100552.0231
100551.7213
100551.7393
100549.886
100551.2722
100551.0253
100551.2285
100551.1233
100551.3636
100551.6555
100550.8928
100552.6577
100552.8508
100553.6985
100553.792
100553.2839
100553.407
100554.5712
100554.6112
100555.2054
100555.4784
100556.0663
100556.4362
100557.0746
100557.5316
100558.0744
100558.7172
100559.4298
100560.1741
100560.8471
100561.6619
100561.6702
100562.4988
100563.1164
100564.9953
100563.4562
100565.2088
100560.5742
100569.3911
100574.0427
100567.04
100566.7428
100572.8916
100560.5828
100580.4165
100553.2202
100590.6121
100546.6528
100619.1869
100517.3541
100613.6215
100432.9917
100540.5308
100617.7724
100639.0508
100658.2901
100851.1602
100940.9294
101211.1566
101849.288
102182.7776
103018.1019
103467.5051
104419.7533
104920.8513
105925.9768
106432.8618
107462.5918
107956.6374
108992.2985
109448.9927
110466.8879
110834.5289
111773.1475
111938.6785
112461.6736
112513.5343
112699.1337
112752.8557
112782.5934
112839.9793
112845.1396
112881.4731
112926.574
112859.9396
112905.8534
112860.9612
112893.3832
112867.9617
112887.921
112874.11
112882.6649
112878.2541
112880.3617
112879.1332
112877.7764
112870.6915
112884.6189
112871.7466
112889.8815
112879.8493
112871.2477
112885.9897
112870.0165
112885.9628
112869.2647
112891.5815
112870.0544
112891.7676
112874.8787
112896.557
112882.5109
112870.8262
112885.6681
112873.7793
112891.1967
112874.9006
112892.1669
112876.3761
112891.1249
112877.8084
112889.9251
112879.8352
112890.1145
112884.6263
112880.1549
112885.9631
112880.9561
112886.3993
112881.1302
112885.5296
112881.5779
112884.8873
112882.6781
112884.6677
112884.1425
112882.205
112884.7485
112883.2716
112884.6085
112884.195
112884.6649
112883.7432
112884.5155
112884.1336
112883.8149
112883.9021
112882.8232
112882.5911
112884.1108
112883.5029
112884.7027
112883.7686
112883.7495
112882.2202
112878.0011
)
;

boundaryField
{
    sides
    {
        type            zeroGradient;
    }
    empty1
    {
        type            empty;
    }
    empty2
    {
        type            empty;
    }
}


// ************************************************************************* //
