/*--------------------------------*- C++ -*----------------------------------*\
| =========                 |                                                 |
| \\      /  F ield         | OpenFOAM: The Open Source CFD Toolbox           |
|  \\    /   O peration     | Version:  2012                                  |
|   \\  /    A nd           | Website:  www.openfoam.com                      |
|    \\/     M anipulation  |                                                 |
\*---------------------------------------------------------------------------*/
FoamFile
{
    version     2.0;
    format      ascii;
    class       volScalarField;
    location    "0.4";
    object      rho;
}
// * * * * * * * * * * * * * * * * * * * * * * * * * * * * * * * * * * * * * //

dimensions      [1 -3 0 0 0 0 0];


internalField   nonuniform List<scalar> 
160
(
1.286555983
1.286489438
1.286449023
1.286471269
1.286463133
1.286461992
1.286469144
1.286447025
1.286465276
1.286463274
1.286465632
1.286471179
1.286475619
1.286480372
1.286470665
1.286492486
1.28649066
1.286503224
1.286508096
1.286503632
1.286504329
1.286518687
1.286517951
1.286524955
1.286526861
1.286533753
1.286537001
1.286544863
1.286549075
1.286555512
1.286562205
1.286570932
1.286579458
1.286588421
1.286597508
1.286607778
1.286618193
1.28662915
1.286658273
1.286736247
1.286777415
1.286908044
1.287083287
1.287206822
1.287717101
1.287885497
1.288570322
1.290283346
1.294352
1.307493131
1.344592692
1.449710418
1.730958328
2.440394868
4.131744878
7.860434686
15.44723238
30.18089152
57.35323074
104.9365469
183.6591883
305.6035764
476.6344996
640.517825
771.5828277
868.798484
935.7459873
978.3855836
1003.07966
1015.495366
1020.222011
1020.961354
1017.887613
1005.854454
979.2443562
931.073619
851.7298718
729.3595417
557.7955128
393.4465773
262.2998096
165.3917166
98.74626092
55.96545749
30.28287465
15.85633042
8.27484214
4.55883836
2.843921446
2.091379521
1.771634892
1.636482086
1.573438588
1.535316712
1.504599038
1.477110209
1.454107185
1.437162952
1.426112849
1.419674859
1.416292422
1.414264831
1.413369611
1.412368589
1.412000801
1.411503748
1.410753225
1.410367298
1.409181009
1.408778289
1.407559575
1.407100092
1.406002383
1.405618127
1.404864458
1.404459301
1.404136469
1.403153861
1.402854929
1.401913725
1.401565841
1.400759887
1.400438224
1.399749009
1.399477889
1.398902905
1.398692072
1.398247921
1.398111841
1.397945549
1.397715328
1.397603227
1.397344721
1.397239755
1.397031786
1.396951476
1.396788836
1.396737014
1.396637528
1.396595714
1.396553537
1.396469529
1.396437843
1.396367653
1.396354133
1.396303597
1.396286961
1.396259026
1.396250181
1.396227722
1.396227777
1.396213132
1.396208873
1.396213523
1.396203752
1.396217385
1.396207284
1.396207712
1.396190215
1.396138627
)
;

boundaryField
{
    sides
    {
        type            calculated;
        value           nonuniform List<scalar> 2(1.396138627 1.286555983);
    }
    empty1
    {
        type            empty;
    }
    empty2
    {
        type            empty;
    }
}


// ************************************************************************* //
