/*--------------------------------*- C++ -*----------------------------------*\
| =========                 |                                                 |
| \\      /  F ield         | OpenFOAM: The Open Source CFD Toolbox           |
|  \\    /   O peration     | Version:  2012                                  |
|   \\  /    A nd           | Website:  www.openfoam.com                      |
|    \\/     M anipulation  |                                                 |
\*---------------------------------------------------------------------------*/
FoamFile
{
    version     2.0;
    format      ascii;
    class       volScalarField;
    location    "0.4";
    object      rho2;
}
// * * * * * * * * * * * * * * * * * * * * * * * * * * * * * * * * * * * * * //

dimensions      [1 -3 0 0 0 0 0];


internalField   nonuniform List<scalar> 
160
(
1.286555983
1.286489438
1.286449023
1.286471269
1.286463133
1.286461992
1.286469144
1.286447025
1.286465276
1.286463274
1.286465632
1.286471179
1.286475619
1.286480372
1.286470665
1.286492486
1.28649066
1.286503224
1.286508096
1.286503632
1.286504329
1.286518687
1.286517951
1.286524955
1.286526861
1.286533753
1.286537001
1.286544863
1.286549075
1.286555512
1.286562205
1.286570932
1.286579458
1.286588421
1.286597508
1.286607778
1.286618193
1.28662915
1.286658272
1.286736242
1.286777383
1.286907869
1.28708238
1.28720235
1.287696389
1.287795175
1.288207177
1.288898251
1.289345063
1.290691376
1.2914322
1.293426276
1.294653877
1.297626217
1.299115962
1.302384967
1.303984654
1.305433015
1.307245151
1.307517454
1.309979479
1.311026132
1.31446783
1.319549429
1.32372668
1.329661507
1.335283318
1.341700326
1.347931862
1.354265556
1.360522142
1.366752997
1.372807465
1.379048107
1.384603987
1.390888796
1.395311807
1.401234745
1.40313385
1.404719167
1.405219909
1.405098183
1.405756682
1.40604048
1.406780587
1.406866121
1.407399874
1.408034151
1.40933238
1.410031381
1.41134371
1.411888881
1.412860253
1.413214145
1.413782996
1.413944154
1.414124948
1.414142601
1.414101124
1.413967376
1.413807131
1.413237435
1.412957575
1.412201672
1.411929944
1.41147126
1.410737897
1.410359639
1.409177188
1.408776483
1.407558781
1.407099783
1.406002277
1.405618094
1.404864448
1.404459298
1.404136468
1.403153861
1.402854929
1.401913725
1.401565841
1.400759887
1.400438224
1.399749009
1.399477889
1.398902905
1.398692072
1.398247921
1.398111841
1.397945549
1.397715328
1.397603227
1.397344721
1.397239755
1.397031786
1.396951476
1.396788836
1.396737014
1.396637528
1.396595714
1.396553537
1.396469529
1.396437843
1.396367653
1.396354133
1.396303597
1.396286961
1.396259026
1.396250181
1.396227722
1.396227777
1.396213132
1.396208873
1.396213523
1.396203752
1.396217385
1.396207284
1.396207712
1.396190215
1.396138627
)
;

boundaryField
{
    sides
    {
        type            calculated;
        value           nonuniform List<scalar> 2(1.396138627 1.286555983);
    }
    empty1
    {
        type            empty;
    }
    empty2
    {
        type            empty;
    }
}


// ************************************************************************* //
