/*--------------------------------*- C++ -*----------------------------------*\
| =========                 |                                                 |
| \\      /  F ield         | OpenFOAM: The Open Source CFD Toolbox           |
|  \\    /   O peration     | Version:  2012                                  |
|   \\  /    A nd           | Website:  www.openfoam.com                      |
|    \\/     M anipulation  |                                                 |
\*---------------------------------------------------------------------------*/
FoamFile
{
    version     2.0;
    format      ascii;
    class       volVectorField;
    location    "0.4";
    object      U;
}
// * * * * * * * * * * * * * * * * * * * * * * * * * * * * * * * * * * * * * //

dimensions      [0 1 -1 0 0 0 0];


internalField   nonuniform List<vector> 
160
(
(-0.07264567051 0 0)
(-0.05643801676 0 0)
(-0.1486263857 0 0)
(-0.1455691096 0 0)
(-0.2639563241 0 0)
(-0.2444902151 0 0)
(-0.3617585539 0 0)
(-0.3585443075 0 0)
(-0.4538241841 0 0)
(-0.4627692312 0 0)
(-0.5528419765 0 0)
(-0.5638081412 0 0)
(-0.6544268555 0 0)
(-0.6645773981 0 0)
(-0.7570612326 0 0)
(-0.7563312416 0 0)
(-0.8715104772 0 0)
(-0.8527788667 0 0)
(-0.9756014799 0 0)
(-0.9593550785 0 0)
(-1.075171964 0 0)
(-1.058568165 0 0)
(-1.180807894 0 0)
(-1.158108199 0 0)
(-1.283740709 0 0)
(-1.259448877 0 0)
(-1.386347643 0 0)
(-1.361229027 0 0)
(-1.488680731 0 0)
(-1.462921704 0 0)
(-1.591222886 0 0)
(-1.565497411 0 0)
(-1.693281503 0 0)
(-1.669016591 0 0)
(-1.793985611 0 0)
(-1.771446889 0 0)
(-1.89511992 0 0)
(-1.87502017 0 0)
(-1.990615046 0 0)
(-1.970748536 0 0)
(-2.088433268 0 0)
(-2.071938892 0 0)
(-2.187194211 0 0)
(-2.173745378 0 0)
(-2.220745085 0 0)
(-2.342225242 0 0)
(-2.276872662 0 0)
(-2.434515226 0 0)
(-2.335727662 0 0)
(-2.480639747 0 0)
(-2.392347437 0 0)
(-2.521058981 0 0)
(-2.426969356 0 0)
(-2.488115903 0 0)
(-2.488658361 0 0)
(-2.489905268 0 0)
(-2.533949045 0 0)
(-2.520273608 0 0)
(-2.534505267 0 0)
(-2.530546022 0 0)
(-2.534632048 0 0)
(-2.531951805 0 0)
(-2.53467575 0 0)
(-2.533031463 0 0)
(-2.534129981 0 0)
(-2.533551574 0 0)
(-2.533943912 0 0)
(-2.533689824 0 0)
(-2.5339265 0 0)
(-2.533690846 0 0)
(-2.533971494 0 0)
(-2.533639796 0 0)
(-2.534041073 0 0)
(-2.533558139 0 0)
(-2.534118982 0 0)
(-2.533485199 0 0)
(-2.534121781 0 0)
(-2.533529646 0 0)
(-2.533970662 0 0)
(-2.533969158 0 0)
(-2.532550336 0 0)
(-2.53353493 0 0)
(-2.530445613 0 0)
(-2.532788083 0 0)
(-2.528272621 0 0)
(-2.531113769 0 0)
(-2.514609551 0 0)
(-2.511075738 0 0)
(-2.457224665 0 0)
(-2.478838105 0 0)
(-2.410525683 0 0)
(-2.443434172 0 0)
(-2.369321487 0 0)
(-2.401391914 0 0)
(-2.327208224 0 0)
(-2.356712083 0 0)
(-2.281446447 0 0)
(-2.293854827 0 0)
(-2.224022487 0 0)
(-2.226186742 0 0)
(-2.178431549 0 0)
(-2.184211301 0 0)
(-2.113360673 0 0)
(-2.131611798 0 0)
(-1.978753317 0 0)
(-2.067317023 0 0)
(-1.943277504 0 0)
(-1.990430841 0 0)
(-1.937250396 0 0)
(-1.900136243 0 0)
(-1.881202586 0 0)
(-1.81038006 0 0)
(-1.821576261 0 0)
(-1.693648696 0 0)
(-1.746436039 0 0)
(-1.570007639 0 0)
(-1.660128981 0 0)
(-1.593446084 0 0)
(-1.556827096 0 0)
(-1.53724902 0 0)
(-1.469345545 0 0)
(-1.465094533 0 0)
(-1.388637877 0 0)
(-1.385297308 0 0)
(-1.309641068 0 0)
(-1.307050641 0 0)
(-1.227328884 0 0)
(-1.230993401 0 0)
(-1.121685384 0 0)
(-1.149581829 0 0)
(-1.059527317 0 0)
(-1.07797197 0 0)
(-0.9904505622 0 0)
(-1.003269044 0 0)
(-0.9128001117 0 0)
(-0.9280370247 0 0)
(-0.8382500588 0 0)
(-0.8468725219 0 0)
(-0.7664163095 0 0)
(-0.7635853453 0 0)
(-0.6980751639 0 0)
(-0.6935581154 0 0)
(-0.6260121527 0 0)
(-0.6217609583 0 0)
(-0.5486837649 0 0)
(-0.5520948412 0 0)
(-0.4699270229 0 0)
(-0.480340174 0 0)
(-0.3958399393 0 0)
(-0.410409346 0 0)
(-0.3161481322 0 0)
(-0.3439498623 0 0)
(-0.238943836 0 0)
(-0.2644833512 0 0)
(-0.1768315745 0 0)
(-0.1801882754 0 0)
(-0.1106402782 0 0)
(-0.1042983397 0 0)
(-0.04130900551 0 0)
(-0.05171100949 0 0)
)
;

boundaryField
{
    sides
    {
        type            fixedValue;
        value           uniform (0 0 0);
    }
    empty1
    {
        type            empty;
    }
    empty2
    {
        type            empty;
    }
}


// ************************************************************************* //
