/*--------------------------------*- C++ -*----------------------------------*\
| =========                 |                                                 |
| \\      /  F ield         | OpenFOAM: The Open Source CFD Toolbox           |
|  \\    /   O peration     | Version:  3.0.1                                 |
|   \\  /    A nd           | Web:      www.OpenFOAM.org                      |
|    \\/     M anipulation  |                                                 |
\*---------------------------------------------------------------------------*/
FoamFile
{
    version     2.0;
    format      ascii;
    class       volScalarField;
    location    "0.00015";
    object      rho;
}
// * * * * * * * * * * * * * * * * * * * * * * * * * * * * * * * * * * * * * //

dimensions      [1 -3 0 0 0 0 0];

internalField   nonuniform List<scalar> 
1000
(
0.83124
0.83124
0.83124
0.83124
0.83124
0.83124
0.83124
0.83124
0.83124
0.83124
0.83124
0.83124
0.83124
0.83124
0.83124
0.83124
0.83124
0.83124
0.83124
0.83124
0.83124
0.83124
0.83124
0.83124
0.83124
0.83124
0.83124
0.83124
0.83124
0.831237
0.831175
0.830294
0.825127
0.814466
0.803694
0.795787
0.790828
0.788087
0.786752
0.78616
0.785913
0.785879
0.785943
0.786067
0.786187
0.786236
0.786129
0.785485
0.783402
0.778814
0.771636
0.763541
0.756946
0.753093
0.751522
0.751113
0.75106
0.751092
0.751197
0.75131
0.751347
0.751283
0.750989
0.750209
0.748364
0.744375
0.736741
0.725087
0.714624
0.711112
0.710738
0.710719
0.710718
0.710718
0.710718
0.710718
0.710718
0.710718
0.710718
0.710718
0.710718
0.710718
0.710718
0.710718
0.710718
0.710718
0.710718
0.710718
0.710718
0.710718
0.710718
0.710718
0.710718
0.710718
0.710718
0.710718
0.710718
0.710718
0.710718
0.710718
0.83124
0.83124
0.83124
0.83124
0.83124
0.83124
0.83124
0.83124
0.83124
0.83124
0.83124
0.83124
0.83124
0.83124
0.83124
0.83124
0.83124
0.83124
0.83124
0.83124
0.83124
0.83124
0.83124
0.83124
0.83124
0.83124
0.83124
0.83124
0.83124
0.831237
0.831176
0.830307
0.825171
0.81451
0.803708
0.795779
0.79081
0.788071
0.786743
0.786159
0.785921
0.785892
0.785965
0.786089
0.786205
0.786251
0.78614
0.785493
0.783409
0.778822
0.771643
0.763545
0.756945
0.753088
0.751515
0.751101
0.751043
0.751071
0.751177
0.751296
0.751336
0.751281
0.750999
0.750228
0.748389
0.744388
0.736719
0.725026
0.714583
0.711105
0.710738
0.710719
0.710718
0.710718
0.710718
0.710718
0.710718
0.710718
0.710718
0.710718
0.710718
0.710718
0.710718
0.710718
0.710718
0.710718
0.710718
0.710718
0.710718
0.710718
0.710718
0.710718
0.710718
0.710718
0.710718
0.710718
0.710718
0.710718
0.710718
0.710718
0.83124
0.83124
0.83124
0.83124
0.83124
0.83124
0.83124
0.83124
0.83124
0.83124
0.83124
0.83124
0.83124
0.83124
0.83124
0.83124
0.83124
0.83124
0.83124
0.83124
0.83124
0.83124
0.83124
0.83124
0.83124
0.83124
0.83124
0.83124
0.83124
0.831237
0.831172
0.830268
0.825038
0.814375
0.803667
0.79582
0.790899
0.788171
0.786833
0.786232
0.785973
0.785925
0.785974
0.786085
0.786191
0.786236
0.786126
0.785485
0.783408
0.778829
0.771656
0.763557
0.756956
0.753099
0.75153
0.751121
0.751061
0.751088
0.751177
0.751274
0.751292
0.751215
0.750913
0.75013
0.748296
0.744344
0.736778
0.725194
0.714699
0.711124
0.710739
0.710719
0.710718
0.710718
0.710718
0.710718
0.710718
0.710718
0.710718
0.710718
0.710718
0.710718
0.710718
0.710718
0.710718
0.710718
0.710718
0.710718
0.710718
0.710718
0.710718
0.710718
0.710718
0.710718
0.710718
0.710718
0.710718
0.710718
0.710718
0.710718
0.83124
0.83124
0.83124
0.83124
0.83124
0.83124
0.83124
0.83124
0.83124
0.83124
0.83124
0.83124
0.83124
0.83124
0.83124
0.83124
0.83124
0.83124
0.83124
0.83124
0.83124
0.83124
0.83124
0.83124
0.83124
0.83124
0.83124
0.83124
0.83124
0.831237
0.83117
0.830241
0.824938
0.814261
0.80361
0.795823
0.790934
0.788221
0.786882
0.786271
0.786002
0.785945
0.785989
0.786098
0.786203
0.786244
0.786135
0.785491
0.783414
0.778837
0.771663
0.76356
0.756955
0.753094
0.751523
0.751115
0.751051
0.751076
0.75116
0.751256
0.751269
0.751181
0.75087
0.750084
0.748261
0.744343
0.736848
0.725328
0.714783
0.711138
0.71074
0.710719
0.710718
0.710718
0.710718
0.710718
0.710718
0.710718
0.710718
0.710718
0.710718
0.710718
0.710718
0.710718
0.710718
0.710718
0.710718
0.710718
0.710718
0.710718
0.710718
0.710718
0.710718
0.710718
0.710718
0.710718
0.710718
0.710718
0.710718
0.710718
0.83124
0.83124
0.83124
0.83124
0.83124
0.83124
0.83124
0.83124
0.83124
0.83124
0.83124
0.83124
0.83124
0.83124
0.83124
0.83124
0.83124
0.83124
0.83124
0.83124
0.83124
0.83124
0.83124
0.83124
0.83124
0.83124
0.83124
0.83124
0.83124
0.831237
0.831173
0.830276
0.825066
0.814417
0.80371
0.795865
0.790938
0.788204
0.786857
0.786247
0.785982
0.785925
0.78597
0.786082
0.786188
0.786233
0.786123
0.785483
0.783409
0.778833
0.771661
0.76356
0.756958
0.7531
0.751531
0.751124
0.751065
0.751092
0.75118
0.751277
0.751291
0.751204
0.750896
0.750106
0.748266
0.744302
0.736729
0.725141
0.71467
0.71112
0.710739
0.710719
0.710718
0.710718
0.710718
0.710718
0.710718
0.710718
0.710718
0.710718
0.710718
0.710718
0.710718
0.710718
0.710718
0.710718
0.710718
0.710718
0.710718
0.710718
0.710718
0.710718
0.710718
0.710718
0.710718
0.710718
0.710718
0.710718
0.710718
0.710718
0.83124
0.83124
0.83124
0.83124
0.83124
0.83124
0.83124
0.83124
0.83124
0.83124
0.83124
0.83124
0.83124
0.83124
0.83124
0.83124
0.83124
0.83124
0.83124
0.83124
0.83124
0.83124
0.83124
0.83124
0.83124
0.83124
0.83124
0.83124
0.83124
0.831237
0.831177
0.830324
0.825236
0.8146
0.803789
0.795847
0.790871
0.788117
0.786775
0.786176
0.785928
0.78589
0.785958
0.786081
0.786194
0.78624
0.786131
0.785489
0.78341
0.778829
0.771651
0.763549
0.756947
0.75309
0.751519
0.751109
0.751051
0.751081
0.751188
0.751301
0.751337
0.751269
0.750982
0.750201
0.748347
0.744327
0.736626
0.72491
0.714518
0.711095
0.710737
0.710719
0.710718
0.710718
0.710718
0.710718
0.710718
0.710718
0.710718
0.710718
0.710718
0.710718
0.710718
0.710718
0.710718
0.710718
0.710718
0.710718
0.710718
0.710718
0.710718
0.710718
0.710718
0.710718
0.710718
0.710718
0.710718
0.710718
0.710718
0.710718
0.83124
0.83124
0.83124
0.83124
0.83124
0.83124
0.83124
0.83124
0.83124
0.83124
0.83124
0.83124
0.83124
0.83124
0.83124
0.83124
0.83124
0.83124
0.83124
0.83124
0.83124
0.83124
0.83124
0.83124
0.83124
0.83124
0.83124
0.83124
0.83124
0.831237
0.831177
0.830324
0.82524
0.814618
0.803819
0.795879
0.790897
0.788131
0.786788
0.786169
0.785922
0.785884
0.785945
0.786064
0.786179
0.786227
0.78612
0.785479
0.7834
0.778817
0.77164
0.763542
0.756947
0.753094
0.751527
0.75112
0.751066
0.751095
0.751199
0.751313
0.751342
0.751271
0.750986
0.750192
0.748321
0.744296
0.736598
0.724894
0.714514
0.711095
0.710737
0.710719
0.710718
0.710718
0.710718
0.710718
0.710718
0.710718
0.710718
0.710718
0.710718
0.710718
0.710718
0.710718
0.710718
0.710718
0.710718
0.710718
0.710718
0.710718
0.710718
0.710718
0.710718
0.710718
0.710718
0.710718
0.710718
0.710718
0.710718
0.710718
0.83124
0.83124
0.83124
0.83124
0.83124
0.83124
0.83124
0.83124
0.83124
0.83124
0.83124
0.83124
0.83124
0.83124
0.83124
0.83124
0.83124
0.83124
0.83124
0.83124
0.83124
0.83124
0.83124
0.83124
0.83124
0.83124
0.83124
0.83124
0.83124
0.831237
0.831178
0.830336
0.825292
0.814698
0.803889
0.795918
0.790901
0.788124
0.786754
0.786158
0.785895
0.785865
0.785931
0.786054
0.786172
0.786221
0.786117
0.785473
0.783393
0.778808
0.771631
0.763537
0.756945
0.753095
0.751528
0.751124
0.751072
0.751104
0.751207
0.751324
0.751366
0.751308
0.750993
0.750195
0.748319
0.744258
0.736521
0.724806
0.714471
0.711089
0.710737
0.710719
0.710718
0.710718
0.710718
0.710718
0.710718
0.710718
0.710718
0.710718
0.710718
0.710718
0.710718
0.710718
0.710718
0.710718
0.710718
0.710718
0.710718
0.710718
0.710718
0.710718
0.710718
0.710718
0.710718
0.710718
0.710718
0.710718
0.710718
0.710718
0.83124
0.83124
0.83124
0.83124
0.83124
0.83124
0.83124
0.83124
0.83124
0.83124
0.83124
0.83124
0.83124
0.83124
0.83124
0.83124
0.83124
0.83124
0.83124
0.83124
0.83124
0.83124
0.83124
0.83124
0.83124
0.83124
0.83124
0.83124
0.83124
0.831237
0.831181
0.830366
0.825403
0.814823
0.80395
0.795917
0.790865
0.788071
0.786711
0.786119
0.785877
0.785849
0.785918
0.786044
0.786165
0.786216
0.786118
0.785474
0.783391
0.778804
0.771627
0.763534
0.756942
0.753093
0.751528
0.751128
0.751078
0.751114
0.751217
0.751338
0.751383
0.751334
0.751044
0.750256
0.748367
0.744267
0.736443
0.72465
0.714374
0.711074
0.710736
0.710719
0.710718
0.710718
0.710718
0.710718
0.710718
0.710718
0.710718
0.710718
0.710718
0.710718
0.710718
0.710718
0.710718
0.710718
0.710718
0.710718
0.710718
0.710718
0.710718
0.710718
0.710718
0.710718
0.710718
0.710718
0.710718
0.710718
0.710718
0.710718
0.83124
0.83124
0.83124
0.83124
0.83124
0.83124
0.83124
0.83124
0.83124
0.83124
0.83124
0.83124
0.83124
0.83124
0.83124
0.83124
0.83124
0.83124
0.83124
0.83124
0.83124
0.83124
0.83124
0.83124
0.83124
0.83124
0.83124
0.83124
0.83124
0.831237
0.831179
0.830345
0.825328
0.814748
0.80393
0.795947
0.790918
0.788125
0.786755
0.786145
0.785885
0.785847
0.785904
0.786027
0.786148
0.786199
0.786102
0.785462
0.783381
0.778798
0.771624
0.763537
0.756949
0.753105
0.751542
0.751144
0.751094
0.75113
0.751235
0.751348
0.751379
0.751313
0.751005
0.7502
0.748307
0.744232
0.736475
0.724748
0.714439
0.711084
0.710737
0.710719
0.710718
0.710718
0.710718
0.710718
0.710718
0.710718
0.710718
0.710718
0.710718
0.710718
0.710718
0.710718
0.710718
0.710718
0.710718
0.710718
0.710718
0.710718
0.710718
0.710718
0.710718
0.710718
0.710718
0.710718
0.710718
0.710718
0.710718
0.710718
)
;

boundaryField
{
    sides1
    {
        type            calculated;
        value           nonuniform List<scalar> 
20
(
0.710718
0.710718
0.710718
0.710718
0.710718
0.710718
0.710718
0.710718
0.710718
0.710718
0.83124
0.83124
0.83124
0.83124
0.83124
0.83124
0.83124
0.83124
0.83124
0.83124
)
;
    }
    sides2
    {
        type            calculated;
        value           nonuniform List<scalar> 
200
(
0.83124
0.83124
0.83124
0.83124
0.83124
0.83124
0.83124
0.83124
0.83124
0.83124
0.83124
0.83124
0.83124
0.83124
0.83124
0.83124
0.83124
0.83124
0.83124
0.83124
0.83124
0.83124
0.83124
0.83124
0.83124
0.83124
0.83124
0.83124
0.83124
0.831237
0.831175
0.830294
0.825127
0.814466
0.803694
0.795787
0.790828
0.788087
0.786752
0.78616
0.785913
0.785879
0.785943
0.786067
0.786187
0.786236
0.786129
0.785485
0.783402
0.778814
0.771636
0.763541
0.756946
0.753093
0.751522
0.751113
0.75106
0.751092
0.751197
0.75131
0.751347
0.751283
0.750989
0.750209
0.748364
0.744375
0.736741
0.725087
0.714624
0.711112
0.710738
0.710719
0.710718
0.710718
0.710718
0.710718
0.710718
0.710718
0.710718
0.710718
0.710718
0.710718
0.710718
0.710718
0.710718
0.710718
0.710718
0.710718
0.710718
0.710718
0.710718
0.710718
0.710718
0.710718
0.710718
0.710718
0.710718
0.710718
0.710718
0.710718
0.83124
0.83124
0.83124
0.83124
0.83124
0.83124
0.83124
0.83124
0.83124
0.83124
0.83124
0.83124
0.83124
0.83124
0.83124
0.83124
0.83124
0.83124
0.83124
0.83124
0.83124
0.83124
0.83124
0.83124
0.83124
0.83124
0.83124
0.83124
0.83124
0.831237
0.831179
0.830345
0.825328
0.814748
0.80393
0.795947
0.790918
0.788125
0.786755
0.786145
0.785885
0.785847
0.785904
0.786027
0.786148
0.786199
0.786102
0.785462
0.783381
0.778798
0.771624
0.763537
0.756949
0.753105
0.751542
0.751144
0.751094
0.75113
0.751235
0.751348
0.751379
0.751313
0.751005
0.7502
0.748307
0.744232
0.736475
0.724748
0.714439
0.711084
0.710737
0.710719
0.710718
0.710718
0.710718
0.710718
0.710718
0.710718
0.710718
0.710718
0.710718
0.710718
0.710718
0.710718
0.710718
0.710718
0.710718
0.710718
0.710718
0.710718
0.710718
0.710718
0.710718
0.710718
0.710718
0.710718
0.710718
0.710718
0.710718
0.710718
)
;
    }
    empty
    {
        type            empty;
    }
}


// ************************************************************************* //
