/*--------------------------------*- C++ -*----------------------------------*\
| =========                 |                                                 |
| \\      /  F ield         | OpenFOAM: The Open Source CFD Toolbox           |
|  \\    /   O peration     | Version:  2012                                  |
|   \\  /    A nd           | Website:  www.openfoam.com                      |
|    \\/     M anipulation  |                                                 |
\*---------------------------------------------------------------------------*/
FoamFile
{
    version     2.0;
    format      ascii;
    class       volScalarField;
    location    "0.52";
    object      rho;
}
// * * * * * * * * * * * * * * * * * * * * * * * * * * * * * * * * * * * * * //

dimensions      [1 -3 0 0 0 0 0];


internalField   nonuniform List<scalar> 
2268
(
1000.05
1000.05
1000.05
1000.05
1000.05
1000.05
1000.05
1000.05
1000.05
1000.05
1000.05
1000.05
1000.05
1000.05
1000.05
1000.05
1000.05
1000.05
1000.05
1000.05
1000.05
1000.05
999.755
1000.05
1000.05
1000.05
1000.05
1000.05
1000.05
1000.05
1000.05
1000.05
1000.05
1000.05
1000.05
1000.05
1000.05
1000.05
1000.05
1000.05
1000.05
1000.05
1000.05
1000.05
1000.05
999.72
1000.05
1000.05
1000.05
1000.05
1000.05
1000.05
1000.05
1000.05
1000.05
1000.05
1000.05
1000.05
1000.05
1000.05
1000.05
1000.05
1000.05
1000.05
1000.05
1000.05
1000.05
1000.05
999.72
1000.05
1000.05
1000.05
1000.05
1000.05
1000.05
1000.05
1000.05
1000.05
1000.05
1000.05
1000.05
1000.05
1000.05
1000.05
1000.05
1000.05
1000.05
1000.05
1000.05
1000.05
1000.05
999.827
1000.05
1000.05
1000.05
1000.05
1000.05
1000.05
1000.05
1000.05
1000.05
1000.05
1000.05
1000.05
1000.05
1000.05
1000.05
1000.05
1000.05
1000.05
1000.05
1000.05
1000.05
1000.05
1000.04
1000.05
1000.05
1000.05
1000.05
1000.05
1000.05
1000.05
1000.05
1000.05
1000.05
1000.05
1000.05
1000.05
1000.05
1000.05
1000.05
1000.05
1000.05
1000.05
1000.05
1000.05
1000.05
1000.05
1000.05
1000.05
1000.05
1000.05
1000.05
1000.05
1000.05
1000.05
1000.05
1000.05
1000.05
1000.05
1000.05
1000.05
1000.05
1000.05
1000.05
1000.05
1000.05
1000.05
1000.05
1000.05
1000.05
999.991
999.989
1000
1000.01
1000.02
1000.03
1000.04
1000.05
1000.05
1000.05
1000.05
1000.05
1000.05
1000.05
1000.05
1000.05
1000.05
1000.05
1000.05
1000.05
1000.05
1000.05
1000.05
1.29118
1.29118
1.29121
1.39649
40.6882
286.822
377.624
377.202
361.452
385.377
513.208
593.634
595.781
589.163
641.379
718.417
718.419
718.273
705.12
1.29118
1.29118
1.29118
1.33613
2.53694
2.9587
1.56557
1.29106
1.2905
1.2903
12.8644
91.0309
283.035
425.29
489.963
522.002
595.09
717.172
719.03
1.29118
1.29118
1.29118
1.29372
1.29807
1.31242
1.54287
1.54211
1.2942
1.48474
12.0829
26.8674
37.7823
47.9759
45.886
33.5096
54.8475
332.273
718.838
1.29117
1.29118
1.29121
1.29145
1.29132
1.29121
1.30362
1.45887
1.30806
1.44485
1.6319
1.29056
1.29066
1.29115
1.29175
1.29179
3.39485
103.297
396.606
1.29118
1.2912
1.2914
1.29271
1.29246
1.29162
1.29154
1.30148
1.30333
1.3116
1.291
1.29095
1.29095
1.29097
1.29108
1.29511
3.53879
54.15
292.223
1.29118
1.29122
1.29158
1.76114
1.68364
1.3368
1.29157
1.29133
1.29217
1.29128
1.29101
1.29101
1.29107
1.29108
1.29108
1.29163
1.54766
74.795
741.743
1.29118
1.29121
1.29251
91.105
90.8719
14.3933
2.20157
1.30567
1.29111
1.29116
1.29106
1.2911
1.29113
1.29112
1.29111
1.29105
1.31606
32.2171
741.746
1.29118
1.29124
1.29236
517.607
540.663
124.732
4.21642
1.30322
1.29107
1.2911
1.29123
1.29138
1.29124
1.29115
1.29112
1.29105
1.29096
8.86945
741.742
932.946
933.234
938.622
944.727
952.116
959.976
971.289
979.62
987.488
992.021
995.35
997.976
999.393
1000.02
1000.05
1000.05
1000.05
1000.05
1000.05
1000.05
1000.05
1000.05
1000.05
269.885
272.75
282.95
295.621
314.618
338.555
377.733
421.14
490.535
575.176
657.54
748.896
848.652
936.612
990.41
1000.05
1000.05
1000.05
1000.05
1000.05
1000.05
1000.05
1000.05
1.29328
1.29329
1.29328
1.29328
1.29328
1.29328
1.29329
1.2933
1.29332
1.29331
23.8677
61.8743
120.371
214.162
370.382
607.646
904.287
1000.05
1000.05
1000.05
1000.05
1000.05
1000.04
1.29321
1.29322
1.29322
1.29321
1.29322
1.29322
1.29322
1.29323
1.29324
1.29324
1.29325
1.29326
1.29328
1.51319
7.89023
35.6156
116.032
299.094
579.123
901.001
1000.05
1000.05
1000.05
1.29319
1.29319
1.29319
1.29319
1.29319
1.29319
1.29319
1.29319
1.29319
1.29319
1.29322
1.29325
1.29326
1.29337
1.2932
1.29321
1.29324
9.04816
48.6406
132.713
277.275
466.485
759.213
1.29318
1.29318
1.29318
1.29318
1.29318
1.29318
1.29318
1.29318
1.29318
1.29318
1.29322
1.29432
1.29516
1.29549
1.29498
1.29332
1.29319
1.30256
1.43505
1.42341
6.94276
20.6806
63.0111
1.29318
1.29318
1.29318
1.29318
1.29318
1.29318
1.29318
1.29318
1.29318
1.29318
1.29318
1.29498
1.29547
1.29546
1.29435
1.29324
1.29318
1.29318
1.29318
1.29325
1.29826
1.29318
1.29319
1.29318
1.29318
1.29318
1.29318
1.29318
1.29318
1.29318
1.29318
1.29318
1.29318
1.29325
1.29317
1.29351
1.29317
1.29317
1.29319
1.29321
1.2932
1.29318
1.29319
1.29322
1.29339
1.29345
1.29318
1.29317
1.29317
1.29317
1.29317
1.29317
1.29317
1.29317
1.29317
1.29318
1.29317
1.29317
1.29317
1.29317
1.29317
1.29317
1.2932
1.29321
1.29319
1.29319
1.29317
1.29316
1.29316
1.29317
1.29317
1.29317
1.29317
1.29317
1.29317
1.29317
1.29317
1.29317
1.29318
1.29317
1.29317
1.29317
1.29317
1.29317
1.29317
1.29317
1.29319
1.29318
1.29317
1.29316
1.29316
1.29321
1.29317
1.29317
1.29317
1.29317
1.29317
1.29317
1.29317
1.29317
1.29317
1.29317
1.29317
1.29317
1.29317
1.29317
1.29317
1.29317
1.29317
1.29317
1.29316
1.29316
1.29316
1.29316
1.29316
1.29317
1.29317
1.29317
1.29317
1.29317
1.29317
1.29317
1.29317
1.29317
1.29317
1.29317
1.29317
1.29317
1.29317
1.29317
1.29317
1.29317
1.29316
1.29316
1.29316
1.29316
1.29316
1.29316
1.29317
1.29317
1.29317
1.29317
1.29317
1.29317
1.29317
1.29317
1.29317
1.29317
1.29317
1.29317
1.29317
1.29317
1.29317
1.29316
1.29316
1.29316
1.29316
1.29316
1.29316
1.29316
1.29316
1.29317
1.29317
1.29317
1.29317
1.29317
1.29317
1.29317
1.29317
1.29317
1.29317
1.29317
1.29317
1.29316
1.29316
1.29316
1.29316
1.29316
1.29316
1.29316
1.29316
1.29316
1.29316
1.29316
1.29317
1.29317
1.29317
1.29317
1.29317
1.29317
1.29316
1.29316
1.29316
1.29316
1.29316
1.29316
1.29316
1.29316
1.29316
1.29316
1.29316
1.29316
1.29316
1.29316
1.29316
1.29316
1.29316
1.29316
1.29316
1.29316
1.29316
1.29316
1.29316
1.29316
1.29316
1.29316
1.29316
1.29316
1.29316
1.29316
1.29316
1.29316
1.29316
1.29316
1.29316
1.29316
1.29316
1.29316
1.29316
1.29316
1.29316
1.29316
1.29316
1.29316
1.29316
1.29316
1.29316
1.29316
1.29316
1.29316
1.29316
1.29316
1.29316
1.29316
1.29316
1.29316
1.29316
1.29316
1.29316
1.29316
1.29316
1.29316
1.29315
1.29316
1.29316
1.29316
1.29316
1.29316
1.29316
1.29316
1.29316
1.29316
1.29316
1.29316
1.29316
1.29316
1.29316
1.29316
1.29316
1.29316
1.29316
1.29316
1.29316
1.29316
1.29315
1.29315
1.29315
1.29315
1.29315
1.29315
1.29315
1.29316
1.29316
1.29316
1.29316
1.29316
1.29316
1.29316
1.29316
1.29316
1.29316
1.29316
1.29316
1.29316
1.29316
1.29316
1.29315
1.29315
1.29315
1.29315
1.29315
1.29315
1.29315
1.29315
1.29315
1.29315
1.29315
1.29315
1.29315
1.29315
1.29315
1.29315
1.29315
1.29315
1.29315
1.29315
1.29315
1.29315
1.29315
1.29315
1.29315
1.29315
1.29314
1.29314
1.29314
1.29314
1.29314
1.29314
1.29314
1.29314
1.29314
1.29315
1.29315
1.29315
1.29315
1.29315
1.29315
1.29315
1.29315
1.29315
1.29315
1.29315
1.29315
1.29315
1.29315
1.29313
1.29313
1.29313
1.29313
1.29313
1.29313
1.29313
1.29313
1.29313
1.29314
1.29314
1.29314
1.29314
1.29314
1.29314
1.29314
1.29315
1.29315
1.29315
1.29315
1.29315
1.29315
1.29315
1.29311
1.29311
1.29311
1.29311
1.29311
1.29312
1.29312
1.29312
1.29312
1.29312
1.29312
1.29313
1.29313
1.29313
1.29313
1.29313
1.29314
1.29314
1.29314
1.29314
1.29314
1.29314
1.29315
1.2931
1.2931
1.2931
1.2931
1.2931
1.2931
1.2931
1.2931
1.2931
1.2931
1.29311
1.29311
1.29311
1.29311
1.29312
1.29312
1.29312
1.29313
1.29313
1.29313
1.29314
1.29314
1.29314
1.29308
1.29308
1.29308
1.29308
1.29308
1.29309
1.29309
1.29309
1.29309
1.29309
1.29309
1.29309
1.29309
1.2931
1.2931
1.2931
1.2931
1.29311
1.29311
1.29312
1.29312
1.29313
1.29313
1.29307
1.29307
1.29307
1.29307
1.29307
1.29308
1.29308
1.29308
1.29308
1.29308
1.29308
1.29308
1.29308
1.29308
1.29308
1.29309
1.29309
1.29309
1.2931
1.2931
1.29311
1.29311
1.29312
1.29307
1.29307
1.29307
1.29307
1.29307
1.29307
1.29307
1.29307
1.29307
1.29307
1.29307
1.29307
1.29307
1.29307
1.29307
1.29307
1.29308
1.29308
1.29308
1.29309
1.29309
1.2931
1.2931
1.29306
1.29306
1.29306
1.29306
1.29306
1.29306
1.29306
1.29306
1.29306
1.29306
1.29306
1.29306
1.29306
1.29307
1.29307
1.29307
1.29307
1.29307
1.29307
1.29308
1.29308
1.29309
1.29309
1.29306
1.29306
1.29306
1.29306
1.29306
1.29306
1.29306
1.29306
1.29306
1.29306
1.29306
1.29306
1.29306
1.29306
1.29306
1.29306
1.29307
1.29307
1.29307
1.29307
1.29308
1.29308
1.29309
1.29306
1.29306
1.29306
1.29306
1.29306
1.29306
1.29306
1.29306
1.29306
1.29306
1.29306
1.29306
1.29306
1.29306
1.29306
1.29306
1.29306
1.29307
1.29307
1.29307
1.29307
1.29308
1.29308
1.29306
1.29306
1.29306
1.29306
1.29306
1.29306
1.29306
1.29306
1.29306
1.29306
1.29306
1.29306
1.29306
1.29306
1.29306
1.29306
1.29306
1.29306
1.29307
1.29307
1.29307
1.29308
1.29308
1.29306
1.29306
1.29306
1.29306
1.29306
1.29306
1.29306
1.29306
1.29306
1.29306
1.29306
1.29306
1.29306
1.29306
1.29306
1.29306
1.29307
1.29307
1.29307
1.29307
1.29308
1.29308
1.29309
1.29306
1.29306
1.29306
1.29306
1.29306
1.29306
1.29306
1.29306
1.29306
1.29306
1.29306
1.29307
1.29307
1.29307
1.29307
1.29307
1.29307
1.29307
1.29307
1.29308
1.29308
1.29308
1.29309
1.29307
1.29307
1.29307
1.29307
1.29307
1.29307
1.29307
1.29307
1.29307
1.29307
1.29307
1.29307
1.29307
1.29307
1.29307
1.29307
1.29308
1.29308
1.29308
1.29309
1.29309
1.29309
1.29311
1.29307
1.29307
1.29307
1.29307
1.29307
1.29307
1.29307
1.29307
1.29307
1.29307
1.29307
1.29307
1.29307
1.29308
1.29308
1.29308
1.29308
1.29308
1.29309
1.29309
1.2931
1.2931
1.29312
1.29308
1.29308
1.29308
1.29308
1.29308
1.29308
1.29308
1.29308
1.29308
1.29308
1.29308
1.29308
1.29308
1.29308
1.29308
1.29308
1.29308
1.29309
1.29309
1.2931
1.29311
1.29312
1.29313
1.29308
1.29308
1.29308
1.29308
1.29308
1.29308
1.29308
1.29308
1.29308
1.29308
1.29308
1.29308
1.29308
1.29308
1.29308
1.29308
1.29309
1.29309
1.2931
1.29311
1.29312
1.29313
1.29314
1.29308
1.29308
1.29308
1.29308
1.29308
1.29308
1.29308
1.29308
1.29308
1.29308
1.29308
1.29308
1.29308
1.29308
1.29308
1.29309
1.29309
1.2931
1.2931
1.29312
1.29313
1.29314
1.29315
1.29308
1.29308
1.29308
1.29308
1.29308
1.29308
1.29308
1.29308
1.29308
1.29308
1.29308
1.29308
1.29308
1.29308
1.29309
1.29309
1.29309
1.2931
1.29311
1.29312
1.29314
1.29315
1.29315
1.29309
1.29309
1.29309
1.29309
1.29309
1.29309
1.29309
1.29309
1.29309
1.29309
1.29309
1.29309
1.29309
1.29309
1.29309
1.29309
1.2931
1.2931
1.29312
1.29314
1.29316
1.29316
1.29316
1.29309
1.29309
1.29309
1.29309
1.29309
1.29309
1.29309
1.29309
1.29309
1.29309
1.29309
1.29309
1.29309
1.29309
1.29309
1.29309
1.2931
1.29311
1.29312
1.29314
1.29317
1.29318
1.29317
1.29309
1.29309
1.29309
1.29309
1.29309
1.29309
1.29309
1.29309
1.29309
1.29309
1.29309
1.29309
1.29309
1.29309
1.29309
1.2931
1.2931
1.29311
1.29313
1.29316
1.29319
1.29321
1.29318
999.692
999.826
999.866
999.866
999.658
999.558
999.795
999.866
999.959
999.908
999.909
999.866
1000.05
1000.05
1000.05
1000.05
924.515
966.357
980.11
986
102.075
138.775
186.307
240.934
1.29321
1.29322
1.29324
1.29326
1.29342
1.2933
1.29324
1.29318
1.29637
1.30041
1.30041
1.30041
1.2932
1.29354
1.29366
1.29352
1.29316
1.29316
1.29316
1.29315
1.29316
1.29316
1.29316
1.29316
1.29316
1.29316
1.29316
1.29316
1.29316
1.29316
1.29316
1.29316
1.29316
1.29316
1.29315
1.29315
1.29316
1.29315
1.29315
1.29315
1.29315
1.29315
1.29315
1.29315
1.29315
1.29315
1.29315
1.29315
1.29315
1.29315
1.29315
1.29315
1.29315
1.29315
1.29315
1.29315
1.29315
1.29315
1.29315
1.29315
1.29315
1.29315
1.29315
1.29315
1.29315
1.29315
1.29315
1.29315
1.29314
1.29314
1.29314
1.29314
1.29313
1.29314
1.29314
1.29314
1.29312
1.29313
1.29313
1.29313
1.29311
1.29311
1.29312
1.29312
1.2931
1.2931
1.2931
1.29311
1.29309
1.29309
1.2931
1.2931
1.29309
1.29309
1.29309
1.2931
1.29309
1.29309
1.2931
1.2931
1.29309
1.2931
1.29311
1.29312
1.2931
1.29311
1.29312
1.29313
1.29312
1.29313
1.29313
1.29313
1.29313
1.29313
1.29313
1.29314
1.29314
1.29313
1.29314
1.29316
1.29313
1.29313
1.29317
1.29318
1.29313
1.29316
1.29327
1.29322
1.29312
1.29315
1.29345
1.29363
1.29314
1.29313
1.29356
1.29411
1.29313
1.29316
1.29355
1.29382
1.29313
1.29372
1.29443
1.29441
204.909
64.1309
329.235
881.041
883.8
276.502
6.60591
1.29672
1.29107
1.29113
1.2913
1.29138
1.29132
1.29118
1.29112
1.29104
1.29097
1.29123
703.826
917.021
927.576
1000.05
1000.05
1000.05
435.857
11.3287
1.29472
1.29111
1.2912
1.29132
1.29131
1.29121
1.2911
1.29106
1.291
1.29098
1.2914
673.348
999.913
1000.05
1000.05
1000.05
1000.05
485.542
12.2186
1.29373
1.29114
1.29119
1.29124
1.29118
1.29109
1.29103
1.29102
1.29099
1.29101
1.29168
718.89
1000.05
1000.02
1000.04
1000.05
1000.05
564.544
19.0228
1.2912
1.29111
1.29113
1.29112
1.29106
1.29103
1.29101
1.291
1.29098
1.29102
1.29136
814.996
990.829
996.032
998.743
999.862
1000.05
855.252
98.4516
1.29153
1.29109
1.29106
1.29105
1.29102
1.29101
1.29099
1.291
1.29099
1.29109
29.5136
879.194
373.191
634.873
827.385
958.83
996.593
999.779
462.654
1.29275
1.29128
1.29106
1.29101
1.29099
1.29097
1.29096
1.29098
1.29118
1.29115
211.269
936.32
1.29327
1.29327
43.8623
285.686
842.27
999.775
968.409
258.37
1.29073
1.29088
1.29088
1.29085
1.29082
1.29078
1.29084
1.291
1.29063
459.756
979.761
1.29319
1.29323
1.29326
1.29325
96.2588
619.28
968.407
928.556
366.227
1.28904
1.28993
1.28987
1.28991
1.29
1.28995
1.28942
14.4439
722.006
990.991
1.29766
1.29318
1.29443
1.29467
1.294
35.9287
436.74
904.941
902.058
545.534
247.424
29.7226
1.2881
1.28832
1.28755
85.6211
532.812
981.203
994.896
1.29352
1.30837
1.32907
1.31855
1.29398
1.29318
9.23198
270.1
645.396
837.881
837.882
701.762
595.057
613.796
732.899
896.5
990.338
994.896
994.896
1.3015
1.32906
1.32906
1.3104
1.29328
1.29315
1.29316
7.01108
109.903
424.703
627.045
764.947
771.077
771.069
771.072
816.507
918.536
975.979
994.686
1.29352
1.30125
1.30165
1.29477
1.29315
1.29315
1.34075
3.70952
11.1254
43.4288
120.835
176.557
179.006
162.61
150.075
152.994
316.185
844.987
994.896
1.29315
1.29316
1.29315
1.29315
1.29313
1.29313
1.30171
1.48297
28.342
323.454
522.749
505.028
380.787
172.835
91.5878
91.5876
433.592
916.954
994.896
1.29315
1.29315
1.29315
1.29315
1.29313
1.2931
1.29405
1.31355
3.05328
83.2203
606.812
894.071
894.115
868.782
626.925
561.69
854.126
985.479
965.923
1.29315
1.29315
1.29315
1.29315
1.29314
1.29309
1.29311
1.2948
1.62191
5.59241
32.3382
276.207
662.48
884.573
987.274
987.274
990.173
990.246
954.984
1.29315
1.29315
1.29315
1.29315
1.29315
1.29311
1.29307
1.33386
1.49
1.29315
1.29316
1.29314
1.29314
186.971
678.572
926.955
978.062
990.247
956.55
1.29315
1.29315
1.29315
1.29315
1.29315
1.29313
1.2931
1.3029
1.35761
1.29564
1.30644
1.30195
1.29312
1.29308
7.00259
416.031
795.582
829.418
978.962
1.29315
1.29315
1.29315
1.29315
1.29315
1.29314
1.29313
1.29352
1.29311
1.29381
1.36808
1.33853
1.29313
1.29436
3.80702
81.5583
562.763
817.044
978.962
1.29315
1.29315
1.29315
1.29315
1.29315
1.29314
1.29314
1.29313
1.29312
1.29311
1.3269
1.33259
1.30167
1.29374
1.51939
38.8358
399.896
737.964
922.754
1.29315
1.29315
1.29315
1.29315
1.29315
1.29314
1.29314
1.29313
1.29313
1.29313
1.29333
1.29435
1.29334
1.29316
1.3594
11.6626
127.739
296.687
299.723
1.29315
1.29315
1.29315
1.29315
1.29315
1.29314
1.29314
1.29314
1.29314
1.29314
1.29314
1.29314
1.29315
1.29315
1.29422
1.63977
20.8753
121.16
171.362
1.29315
1.29315
1.29315
1.29314
1.29314
1.29314
1.29314
1.29314
1.29314
1.29314
1.29315
1.29315
1.29315
1.29315
1.29316
1.33654
4.8825
37.991
161.159
1.29315
1.29315
1.29315
1.29314
1.29314
1.29314
1.29314
1.29314
1.29315
1.29314
1.29315
1.29316
1.29317
1.29316
1.29316
1.5091
1.54171
1.31664
186.878
1.29314
1.29314
1.29314
1.29314
1.29314
1.29314
1.29314
1.29314
1.29314
1.29314
1.29315
1.29327
1.29329
1.29318
1.29316
1.36391
1.29317
1.3166
202.481
1.29314
1.29314
1.29314
1.29314
1.29314
1.29314
1.29314
1.29314
1.29314
1.29314
1.29324
1.29328
1.29329
1.29318
1.29316
1.29316
1.29317
1.29316
202.465
1.29313
1.29314
1.29314
1.29314
1.29314
1.29314
1.29314
1.29314
1.29314
1.29314
1.29324
1.29327
1.2932
1.29315
1.29317
1.29316
1.29317
1.29317
190.097
1.29313
1.29313
1.29314
1.29314
1.29314
1.29314
1.29314
1.29314
1.29314
1.29316
1.29318
1.29316
1.29315
1.29315
1.29319
1.29316
1.29317
1.29316
133.984
1.29312
1.29313
1.29313
1.29313
1.29313
1.29313
1.29313
1.29314
1.29315
1.29315
1.29315
1.29314
1.29315
1.29361
1.29317
1.29318
1.29365
1.29313
103.932
1.29311
1.29312
1.29313
1.29313
1.29313
1.29313
1.29313
1.29313
1.29314
1.29314
1.29314
1.29314
1.2959
1.29396
1.29317
1.29344
1.63575
6.01114
188.046
1.29311
1.29312
1.29313
1.29312
1.29312
1.29312
1.29312
1.29312
1.29313
1.29313
1.29314
1.2952
1.29726
1.29437
1.41341
4.84844
24.2061
61.1661
229.781
1.29312
1.29312
1.29312
1.29312
1.29311
1.29318
1.29324
1.29324
1.29314
1.29312
1.29314
1.29756
1.29725
1.2943
1.55931
23.4878
96.0954
162.265
215.361
1.29312
1.29312
1.29312
1.29311
1.29313
1.29313
1.29314
1.29315
1.29312
1.29311
1.2933
1.29755
1.29489
1.29429
1.58541
18.1379
90.8098
249.702
90.201
1.29312
1.29313
1.29312
1.29309
1.29308
1.29307
1.29307
1.29308
1.29309
1.2931
1.29331
1.29738
1.29415
1.30481
1.42899
1.29331
1.80906
249.728
108.267
1.29315
1.29313
1.2931
1.29306
1.29305
1.29305
1.36195
1.30403
1.2945
1.29317
1.29333
1.2939
1.29414
1.30594
1.30553
1.29323
1.29324
186.35
419.657
1.29316
1.29311
1.29306
1.29354
1.29303
1.402
1.47596
1.44925
1.31241
1.29317
1.2932
1.2931
1.29382
1.30594
1.29373
1.29391
1.29312
119.88
466.391
1.29315
1.29307
1.29307
1.30999
1.43222
1.47594
1.47595
1.47597
1.31077
1.29308
1.29313
1.2931
1.29336
1.30041
1.29364
1.2939
1.29304
102.743
466.391
1.2931
1.29307
1.29308
1.34772
1.47595
1.47595
1.47595
1.46288
1.29306
1.29308
1.2931
1.2931
1.29314
1.29316
1.29317
1.29367
1.29299
44.6231
441.659
1.29311
1.29308
1.29327
1.30483
1.39105
1.45893
1.40695
1.32198
1.29307
1.29309
1.29309
1.2931
1.2931
1.2931
1.29338
1.29331
1.35097
12.1746
423.908
1.29324
1.29309
1.29308
1.29307
1.29447
1.30116
1.29782
1.29413
1.29342
1.29757
1.305
1.31267
1.30102
1.29489
1.2952
1.29495
1.29372
1.2929
343.191
1.2941
1.29355
1.29425
1.29444
1.29352
1.29309
1.2931
1.29439
1.31001
1.31824
1.31824
1.31824
1.31717
1.29695
1.29313
1.29256
1.29258
1.29276
343.144
1.29405
1.29661
1.30324
1.30325
1.30328
1.29942
1.29359
1.29388
1.30885
1.31826
1.31826
1.31329
1.29997
1.2951
1.29265
1.29255
1.29254
1.29268
304.403
1.29432
1.29331
1.29316
1.2949
1.29981
1.30336
1.30362
1.30205
1.2956
1.29784
1.29955
1.29498
1.29313
1.29269
1.29253
1.29251
1.2925
1.29262
94.5383
)
;

boundaryField
{
    leftWall
    {
        type            calculated;
        value           nonuniform List<scalar> 
50
(
1000.05
1000.05
1000.05
1000.05
1000.05
1000.05
1000.05
999.991
932.946
269.885
1.29328
1.29321
1.29319
1.29318
1.29318
1.29318
1.29318
1.29317
1.29317
1.29317
1.29317
1.29317
1.29317
1.29316
1.29316
1.29316
1.29315
1.29315
1.29314
1.29313
1.29311
1.2931
1.29308
1.29307
1.29307
1.29306
1.29306
1.29306
1.29306
1.29306
1.29306
1.29307
1.29307
1.29308
1.29308
1.29308
1.29308
1.29309
1.29309
1.29309
)
;
    }
    rightWall
    {
        type            calculated;
        value           nonuniform List<scalar> 
50
(
705.12
719.03
718.838
396.606
292.223
741.743
741.746
741.742
703.826
673.348
718.89
814.996
879.194
936.32
979.761
990.991
994.896
994.896
994.686
994.896
994.896
965.923
954.984
956.55
978.962
978.962
922.754
299.723
171.362
161.159
186.878
202.481
202.465
190.097
133.984
103.932
188.046
229.781
215.361
90.201
108.267
419.657
466.391
466.391
441.659
423.908
343.191
343.144
304.403
94.5383
)
;
    }
    lowerWall
    {
        type            calculated;
        value           nonuniform List<scalar> 
62
(
1000.05
1000.05
1000.05
1000.05
1000.05
1000.05
1000.05
1000.05
1000.05
1000.05
1000.05
1000.05
1000.05
1000.05
1000.05
1000.05
1000.05
1000.05
1000.05
1000.05
1000.05
1000.05
999.755
999.755
999.72
999.72
999.827
1000.04
1000.05
1000.05
1000.05
999.693
999.826
999.866
999.866
1.29118
1.29118
1.29118
1.29117
1.29118
1.29118
1.29118
1.29118
1.29118
1.29118
1.29121
1.39649
40.6882
286.822
377.624
377.202
361.452
385.377
513.208
593.634
595.781
589.163
641.379
718.417
718.419
718.273
705.12
)
;
    }
    atmosphere
    {
        type            calculated;
        value           nonuniform List<scalar> 
46
(
1.29318
1.29318
1.29318
1.29318
1.29318
1.29318
1.29318
1.29318
1.29318
1.29318
1.29318
1.29318
1.29318
1.29318
1.29318
1.29319
1.29319
1.2932
1.29322
1.29325
1.29328
1.2933
1.29327
1.29322
1.2938
1.29452
1.2945
1.29442
1.2931
1.2931
1.29312
1.29316
1.29318
1.30372
1.30215
1.2957
1.29795
1.29965
1.29508
1.29323
1.29279
1.29263
1.29261
1.29262
1.29271
94.5385
)
;
    }
    defaultFaces
    {
        type            empty;
    }
}


// ************************************************************************* //
