/*--------------------------------*- C++ -*----------------------------------*\
| =========                 |                                                 |
| \\      /  F ield         | OpenFOAM: The Open Source CFD Toolbox           |
|  \\    /   O peration     | Version:  2012                                  |
|   \\  /    A nd           | Website:  www.openfoam.com                      |
|    \\/     M anipulation  |                                                 |
\*---------------------------------------------------------------------------*/
FoamFile
{
    version     2.0;
    format      ascii;
    class       volVectorField;
    location    "0.52";
    object      U;
}
// * * * * * * * * * * * * * * * * * * * * * * * * * * * * * * * * * * * * * //

dimensions      [0 1 -1 0 0 0 0];


internalField   nonuniform List<vector> 
2268
(
(0.0110026 -0.00564524 0)
(0.0379526 -0.00588964 0)
(0.0620094 -0.00530852 0)
(0.0844137 -0.00487098 0)
(0.104872 -0.0047821 0)
(0.126428 -0.00516953 0)
(0.150129 -0.00422042 0)
(0.164191 -0.00341234 0)
(0.181313 -0.00293538 0)
(0.19344 -0.00233709 0)
(0.202788 -0.00118985 0)
(0.208554 -0.000736663 0)
(0.212557 -0.000786343 0)
(0.215157 -0.000430777 0)
(0.212222 0.000222825 0)
(0.205343 -8.42394e-05 0)
(0.19556 0.000454138 0)
(0.181446 -0.000498063 0)
(0.165216 0.000392839 0)
(0.142648 -0.00053368 0)
(0.112856 0.000104533 0)
(0.0795432 -0.00176461 0)
(0.0343547 0.0158608 0)
(0.0108733 -0.0174872 0)
(0.0377914 -0.0182143 0)
(0.0620351 -0.0166445 0)
(0.0848636 -0.0153835 0)
(0.105422 -0.015068 0)
(0.127044 -0.0162192 0)
(0.150273 -0.0136221 0)
(0.164525 -0.0113218 0)
(0.181885 -0.0108933 0)
(0.194562 -0.00780744 0)
(0.202295 -0.00596015 0)
(0.210192 -0.003883 0)
(0.213476 -0.00233912 0)
(0.215204 0.00058277 0)
(0.212329 0.00441289 0)
(0.20557 0.00795314 0)
(0.196213 0.0108314 0)
(0.182355 0.0148355 0)
(0.164754 0.0179249 0)
(0.140424 0.0252856 0)
(0.107014 0.0296971 0)
(0.0680863 0.0388624 0)
(0.0138325 0.0379702 0)
(0.0106327 -0.0286516 0)
(0.0377979 -0.0300785 0)
(0.06218 -0.0275623 0)
(0.0856243 -0.0253855 0)
(0.106378 -0.0247231 0)
(0.128118 -0.026378 0)
(0.150352 -0.0219381 0)
(0.164998 -0.0183534 0)
(0.183163 -0.0171347 0)
(0.195126 -0.0119696 0)
(0.204224 -0.00856963 0)
(0.212079 -0.00600426 0)
(0.216397 -0.00314028 0)
(0.216468 0.000125702 0)
(0.214374 0.00479736 0)
(0.208319 0.00753419 0)
(0.200341 0.0114487 0)
(0.187326 0.014387 0)
(0.172222 0.0202245 0)
(0.149573 0.0267743 0)
(0.119446 0.0343005 0)
(0.0822851 0.0422907 0)
(0.0230021 0.0545543 0)
(0.0102923 -0.0403611 0)
(0.0380849 -0.0425612 0)
(0.0625277 -0.0392316 0)
(0.0865806 -0.0362568 0)
(0.107708 -0.0351325 0)
(0.129774 -0.0369886 0)
(0.15094 -0.0310398 0)
(0.16625 -0.0268203 0)
(0.185249 -0.0251383 0)
(0.196466 -0.017766 0)
(0.206682 -0.0139926 0)
(0.214031 -0.0096596 0)
(0.217521 -0.00443465 0)
(0.217086 0.00150608 0)
(0.214676 0.00824415 0)
(0.209036 0.0145737 0)
(0.201007 0.0207178 0)
(0.187979 0.0281132 0)
(0.170907 0.0357268 0)
(0.148748 0.0502443 0)
(0.117218 0.0614739 0)
(0.081984 0.0844872 0)
(0.0178885 0.0877911 0)
(0.0104781 -0.0515327 0)
(0.0384505 -0.0547862 0)
(0.0628102 -0.0505011 0)
(0.08756 -0.0467595 0)
(0.109225 -0.0451563 0)
(0.131675 -0.0468327 0)
(0.151614 -0.0391898 0)
(0.16794 -0.0345746 0)
(0.187692 -0.0314158 0)
(0.198293 -0.0220778 0)
(0.209989 -0.0168477 0)
(0.217331 -0.0110916 0)
(0.221646 -0.00454691 0)
(0.221419 0.00150151 0)
(0.219982 0.00864174 0)
(0.213795 0.0139978 0)
(0.207372 0.0214428 0)
(0.195518 0.0286207 0)
(0.181849 0.0387807 0)
(0.161026 0.0521115 0)
(0.133565 0.0658072 0)
(0.0997179 0.0890575 0)
(0.0326486 0.101596 0)
(0.0116113 -0.0634602 0)
(0.0385342 -0.0672665 0)
(0.0631732 -0.0624141 0)
(0.0885619 -0.0581643 0)
(0.111073 -0.0559504 0)
(0.13407 -0.0569941 0)
(0.153283 -0.0481576 0)
(0.17107 -0.0438562 0)
(0.191078 -0.0394914 0)
(0.201004 -0.0283199 0)
(0.213144 -0.023026 0)
(0.220732 -0.0152138 0)
(0.223417 -0.00640791 0)
(0.222985 0.00224578 0)
(0.22038 0.0118112 0)
(0.214621 0.0205257 0)
(0.208046 0.0293056 0)
(0.197191 0.0401925 0)
(0.182287 0.0520054 0)
(0.163063 0.0731885 0)
(0.133047 0.090547 0)
(0.102516 0.132574 0)
(0.0293875 0.150756 0)
(0.0132078 -0.0752616 0)
(0.0388767 -0.0791854 0)
(0.0635277 -0.0741777 0)
(0.0896054 -0.0694317 0)
(0.113146 -0.0667009 0)
(0.13646 -0.0668184 0)
(0.155145 -0.056703 0)
(0.174477 -0.0524508 0)
(0.194018 -0.0455592 0)
(0.204019 -0.0324768 0)
(0.218264 -0.0261278 0)
(0.225426 -0.0158916 0)
(0.230416 -0.00555332 0)
(0.229915 0.00298231 0)
(0.228822 0.0126449 0)
(0.221032 0.0198242 0)
(0.215943 0.0297301 0)
(0.205811 0.0407705 0)
(0.195624 0.0548843 0)
(0.179187 0.0751995 0)
(0.156487 0.0941753 0)
(0.129455 0.13734 0)
(0.0507332 0.163127 0)
(0.0143438 -0.0880392 0)
(0.0395685 -0.0910071 0)
(0.0642406 -0.0863494 0)
(0.0907137 -0.0815702 0)
(0.115702 -0.078046 0)
(0.139147 -0.076793 0)
(0.158392 -0.06609 0)
(0.179236 -0.0622042 0)
(0.197563 -0.0534645 0)
(0.208253 -0.0398072 0)
(0.224245 -0.0331966 0)
(0.229256 -0.0210268 0)
(0.234536 -0.00858494 0)
(0.232447 0.00293209 0)
(0.230018 0.0159728 0)
(0.22226 0.0266186 0)
(0.217437 0.0364337 0)
(0.209481 0.0498557 0)
(0.198949 0.0646092 0)
(0.184955 0.092001 0)
(0.159528 0.114383 0)
(0.1378 0.183654 0)
(0.056065 0.237445 0)
(-0.02913 0.0518824 0)
(-0.38247 0.124675 0)
(-0.857933 0.376169 0)
(-2.41177 -0.058063 0)
(-2.5491 -0.180456 0)
(-2.54766 -0.178819 0)
(-2.5132 -0.179519 0)
(-2.40773 -0.176744 0)
(-2.21657 -0.157018 0)
(-2.05791 -0.127485 0)
(-1.97652 -0.100152 0)
(-1.94879 -0.0748656 0)
(-1.96169 -0.0381324 0)
(-2.01868 -0.0104445 0)
(-2.04554 -0.00960067 0)
(-2.00822 -0.0237411 0)
(-1.782 -0.0757368 0)
(-1.32253 -0.167764 0)
(-0.563916 -0.226834 0)
(-0.00746376 0.127874 0)
(-0.227557 0.226354 0)
(-0.220212 0.485338 0)
(-0.188255 0.720962 0)
(-0.855417 0.246939 0)
(-1.11697 0.144134 0)
(-1.02227 0.102714 0)
(-0.754577 0.035937 0)
(-0.749369 0.00716625 0)
(-1.63891 0.0520598 0)
(-1.93787 0.0569433 0)
(-1.95875 0.0684705 0)
(-1.9371 0.0679669 0)
(-1.89859 0.0461047 0)
(-1.81903 0.0049436 0)
(-1.63794 -0.089047 0)
(-1.37069 -0.217728 0)
(-0.999378 -0.350206 0)
(-0.462006 -0.579519 0)
(-0.00657397 0.161083 0)
(-0.218543 0.228783 0)
(-0.228212 0.385172 0)
(0.0564027 0.319885 0)
(1.0215 0.213963 0)
(0.788202 -0.024027 0)
(0.383994 -0.284272 0)
(-0.291016 -0.23971 0)
(-0.958364 0.229065 0)
(-2.13546 0.323333 0)
(-2.46781 0.0320573 0)
(-2.43067 -0.0759959 0)
(-2.11971 -0.0642204 0)
(-1.9137 -0.0605821 0)
(-1.73159 -0.120234 0)
(-1.58622 -0.214751 0)
(-1.44733 -0.345241 0)
(-0.862308 -0.551203 0)
(-0.281848 -0.849171 0)
(-0.00942112 0.226823 0)
(-0.13371 0.321028 0)
(-0.159828 0.362082 0)
(0.231207 0.102241 0)
(1.44334 -0.0501177 0)
(1.72832 0.294392 0)
(1.50196 0.495683 0)
(0.033512 0.564691 0)
(-1.04061 0.776884 0)
(-1.93192 0.732679 0)
(-2.59254 0.193919 0)
(-2.88647 -0.074448 0)
(-2.88882 -0.150766 0)
(-2.81989 -0.120857 0)
(-2.67966 -0.135691 0)
(-2.72584 -0.217429 0)
(-1.91824 -0.547455 0)
(-1.09545 -0.84591 0)
(-0.226106 -1.06719 0)
(0.0354171 0.230702 0)
(-0.140722 0.295988 0)
(-0.233614 0.250446 0)
(0.470583 -0.317943 0)
(1.23093 -0.406398 0)
(1.7592 0.0919547 0)
(1.88042 0.5084 0)
(0.910966 0.906806 0)
(-0.54441 1.07377 0)
(-1.3551 1.0005 0)
(-1.8045 0.430567 0)
(-1.86953 0.0457224 0)
(-1.91208 -0.093702 0)
(-1.806 -0.130804 0)
(-1.72492 -0.16991 0)
(-2.07265 -0.515456 0)
(-1.74589 -0.927559 0)
(-1.13463 -1.28263 0)
(-0.00812918 -1.42022 0)
(0.0371685 0.275496 0)
(-0.0665253 0.44431 0)
(-0.0415693 0.10556 0)
(0.56835 -0.558909 0)
(0.503966 -0.603438 0)
(1.05474 -0.0957278 0)
(2.1536 0.783655 0)
(1.59052 1.5476 0)
(-0.108132 1.71937 0)
(-0.783506 1.26937 0)
(-1.14563 0.430903 0)
(-1.30835 -0.0133044 0)
(-1.16975 -0.177544 0)
(-0.995312 -0.200761 0)
(-0.567747 -0.0473821 0)
(-0.711098 -0.224794 0)
(-0.752926 -1.0343 0)
(-0.613434 -1.56155 0)
(0.0998347 -1.57093 0)
(0.140299 0.250598 0)
(-0.0658185 0.322848 0)
(0.651366 -0.00714736 0)
(0.516374 -0.524835 0)
(0.43056 -0.591231 0)
(0.423014 -0.517449 0)
(1.44746 0.356224 0)
(2.15137 1.9289 0)
(0.691938 2.09055 0)
(-0.16601 1.46078 0)
(-0.62579 0.652645 0)
(-0.806132 0.0593039 0)
(-0.558036 -0.22448 0)
(-0.574212 -0.362488 0)
(-0.169654 -0.277722 0)
(0.096908 -0.377472 0)
(-0.0756187 -0.924356 0)
(-0.438895 -1.63483 0)
(0.158146 -1.64353 0)
(0.10452 0.2476 0)
(0.153088 0.250082 0)
(0.63425 -0.132489 0)
(0.512318 -0.470921 0)
(0.417576 -0.569149 0)
(0.393516 -0.549746 0)
(0.49017 -0.0269222 0)
(1.93397 1.86362 0)
(1.28513 2.68545 0)
(0.346909 1.82937 0)
(-0.0878025 0.711539 0)
(-0.329682 -0.0379963 0)
(0.0666583 -0.27814 0)
(-0.111322 -0.367776 0)
(0.168265 -0.348381 0)
(0.150497 -0.301466 0)
(0.527568 -0.792074 0)
(-0.296071 -1.65238 0)
(0.169463 -1.69819 0)
(0.0156269 -0.107977 0)
(0.0407426 -0.109474 0)
(0.0659052 -0.105197 0)
(0.0931575 -0.100705 0)
(0.119776 -0.0961958 0)
(0.1433 -0.0928373 0)
(0.163119 -0.081114 0)
(0.185739 -0.0759323 0)
(0.202361 -0.0625299 0)
(0.21636 -0.0480025 0)
(0.23489 -0.037556 0)
(0.239351 -0.0204819 0)
(0.249134 -0.00608172 0)
(0.246141 0.00644387 0)
(0.247466 0.0183648 0)
(0.234918 0.0252718 0)
(0.233687 0.0354867 0)
(0.221703 0.0492249 0)
(0.230603 0.067395 0)
(0.221056 0.0942827 0)
(0.251331 0.116774 0)
(0.247725 0.185194 0)
(0.328469 0.260693 0)
(0.0181347 -0.137555 0)
(0.0419622 -0.134921 0)
(0.0680256 -0.132285 0)
(0.0965774 -0.128856 0)
(0.125396 -0.121943 0)
(0.149056 -0.114603 0)
(0.171572 -0.103399 0)
(0.196426 -0.0967717 0)
(0.212701 -0.0810958 0)
(0.230488 -0.0696826 0)
(0.246762 -0.0548688 0)
(0.250789 -0.0356909 0)
(0.261581 -0.0163855 0)
(0.253352 0.00323978 0)
(0.249806 0.0263937 0)
(0.235439 0.0410177 0)
(0.235247 0.0498919 0)
(0.230248 0.0533369 0)
(0.230127 0.0641977 0)
(0.221798 0.0710473 0)
(0.247252 0.086937 0)
(0.253123 0.107954 0)
(0.337595 0.158173 0)
(0.0114845 -0.168099 0)
(0.0187181 -0.159306 0)
(0.0340955 -0.159796 0)
(0.0438764 -0.157969 0)
(0.0566345 -0.14852 0)
(0.0553249 -0.138691 0)
(0.0613137 -0.127913 0)
(0.049605 -0.116467 0)
(0.0516543 -0.0948137 0)
(0.0687662 -0.0810835 0)
(0.157362 -0.0580753 0)
(0.201756 -0.0353309 0)
(0.242274 -0.00865848 0)
(0.244329 0.0182805 0)
(0.259938 0.0363129 0)
(0.256612 0.0399028 0)
(0.269645 0.0408671 0)
(0.266667 0.0543869 0)
(0.249432 0.0758713 0)
(0.249241 0.0766775 0)
(0.267199 0.0845615 0)
(0.284984 0.0940178 0)
(0.342027 0.127992 0)
(0.00246245 -0.168568 0)
(0.00383094 -0.158325 0)
(0.0142959 -0.158386 0)
(0.0113477 -0.152266 0)
(0.0226855 -0.135031 0)
(0.019816 -0.119737 0)
(0.0360676 -0.101588 0)
(0.0276387 -0.0857466 0)
(0.0478084 -0.110984 0)
(0.0329137 -0.172689 0)
(0.0593105 -0.187663 0)
(0.000689138 -0.120503 0)
(0.0419598 -0.0577295 0)
(-0.16505 -0.0142068 0)
(-0.0143258 0.0143673 0)
(0.0910565 0.0314614 0)
(0.170568 0.0397433 0)
(0.19361 0.0738186 0)
(0.20958 0.0819258 0)
(0.240894 0.0537125 0)
(0.279259 0.0515133 0)
(0.292854 0.0333767 0)
(0.330824 0.0381455 0)
(-0.00150454 -0.173492 0)
(-0.00189146 -0.170001 0)
(0.00233787 -0.166541 0)
(-0.00233398 -0.164657 0)
(0.00369203 -0.156065 0)
(0.00691758 -0.149726 0)
(0.0200549 -0.134104 0)
(0.0316326 -0.125205 0)
(0.0568084 -0.0964475 0)
(0.0429677 -0.0891536 0)
(0.0160265 -0.0326694 0)
(-0.0042077 -0.0184084 0)
(0.0139921 0.15184 0)
(0.0218355 0.0765324 0)
(0.0618071 -0.221902 0)
(0.0813833 -0.146837 0)
(0.0279908 -0.0619642 0)
(0.0470619 0.0152243 0)
(0.104689 0.0284616 0)
(0.15864 0.00651871 0)
(0.211243 0.0324873 0)
(0.246395 0.042652 0)
(0.309228 0.0471724 0)
(0.00120173 -0.165889 0)
(-0.00265222 -0.163011 0)
(0.0020634 -0.158738 0)
(-0.00400434 -0.154618 0)
(0.000690134 -0.145443 0)
(-0.00672866 -0.137288 0)
(-0.00028622 -0.128053 0)
(-0.00896971 -0.123979 0)
(0.00161261 -0.123466 0)
(-0.0027306 -0.135134 0)
(0.0118399 -0.13164 0)
(0.032874 -0.119144 0)
(0.0684504 -0.0782301 0)
(0.219137 -0.062845 0)
(0.198749 -0.0429168 0)
(0.119429 0.0639781 0)
(0.135615 0.0743001 0)
(0.11528 -0.00238592 0)
(0.162235 -0.0304761 0)
(0.0752263 -0.0526117 0)
(0.0785507 -0.0370865 0)
(0.0357176 -0.0655512 0)
(0.157868 -0.0882649 0)
(0.0018383 -0.17134 0)
(0.00102062 -0.169954 0)
(0.00554312 -0.164631 0)
(0.00580241 -0.162059 0)
(0.0118131 -0.152849 0)
(0.0149843 -0.147225 0)
(0.0247097 -0.131426 0)
(0.0289096 -0.125526 0)
(0.0396978 -0.102765 0)
(0.0381498 -0.0982851 0)
(0.0347705 -0.0720832 0)
(0.0322682 -0.0756147 0)
(0.035539 -0.0386876 0)
(0.0580448 -0.0549081 0)
(0.0640295 -0.121714 0)
(0.0957237 -0.0848861 0)
(0.179215 -0.0560964 0)
(0.219038 -0.0133763 0)
(0.240435 0.0658787 0)
(0.266903 0.0871434 0)
(0.264351 0.0704908 0)
(0.254039 -0.037217 0)
(0.182025 -0.171335 0)
(0.0028103 -0.169233 0)
(0.00156789 -0.167273 0)
(0.00720876 -0.164001 0)
(0.0075362 -0.161535 0)
(0.0136252 -0.155153 0)
(0.0143174 -0.150915 0)
(0.0228385 -0.142436 0)
(0.0254838 -0.139734 0)
(0.0353696 -0.132341 0)
(0.0435588 -0.131051 0)
(0.0517433 -0.122845 0)
(0.0677777 -0.119927 0)
(0.0732451 -0.101764 0)
(0.113046 -0.0912368 0)
(0.103352 -0.0797289 0)
(0.0895783 -0.0511753 0)
(0.102335 -0.0499411 0)
(0.109241 -0.0608536 0)
(0.146616 -0.0757398 0)
(0.217143 -0.0714611 0)
(0.272919 -0.0220791 0)
(0.345259 0.0181897 0)
(0.322027 0.0609686 0)
(0.0026764 -0.175292 0)
(0.00700262 -0.173786 0)
(0.013329 -0.1703 0)
(0.0180954 -0.167762 0)
(0.0248887 -0.159472 0)
(0.0301857 -0.155636 0)
(0.0382944 -0.142642 0)
(0.044355 -0.137348 0)
(0.0513309 -0.121361 0)
(0.0567767 -0.114305 0)
(0.0585246 -0.0978123 0)
(0.0613447 -0.0973005 0)
(0.0596977 -0.0854442 0)
(0.0681185 -0.0855699 0)
(0.0697217 -0.0982206 0)
(0.0799898 -0.0849698 0)
(0.0986891 -0.0754749 0)
(0.10423 -0.0602028 0)
(0.112055 -0.0433921 0)
(0.10131 -0.0439137 0)
(0.116424 -0.058291 0)
(0.137503 -0.0883639 0)
(0.19786 -0.0901524 0)
(0.00309704 -0.179202 0)
(0.00781993 -0.178251 0)
(0.014757 -0.17537 0)
(0.0192781 -0.173449 0)
(0.0268707 -0.167481 0)
(0.0318123 -0.164669 0)
(0.0402671 -0.156737 0)
(0.0475837 -0.153048 0)
(0.0561219 -0.144509 0)
(0.0676912 -0.138381 0)
(0.0764335 -0.126471 0)
(0.0906289 -0.120902 0)
(0.0948648 -0.107738 0)
(0.109855 -0.100899 0)
(0.109439 -0.0913466 0)
(0.107575 -0.0794988 0)
(0.112597 -0.0743887 0)
(0.111909 -0.0725201 0)
(0.120174 -0.0723444 0)
(0.125181 -0.0734496 0)
(0.128082 -0.0584977 0)
(0.117753 -0.0625516 0)
(0.0950508 -0.0586236 0)
(0.00430866 -0.186013 0)
(0.0107154 -0.185176 0)
(0.0194769 -0.181652 0)
(0.0260774 -0.179532 0)
(0.0349941 -0.172012 0)
(0.0420008 -0.168654 0)
(0.0508498 -0.158567 0)
(0.0586474 -0.152881 0)
(0.0660028 -0.141844 0)
(0.074413 -0.134478 0)
(0.0811318 -0.121398 0)
(0.0905844 -0.11579 0)
(0.0954422 -0.105188 0)
(0.104763 -0.10039 0)
(0.108183 -0.0958744 0)
(0.114144 -0.088742 0)
(0.120001 -0.0794336 0)
(0.118272 -0.0690766 0)
(0.118456 -0.0563021 0)
(0.103743 -0.0537798 0)
(0.0981899 -0.0497506 0)
(0.0803673 -0.0567698 0)
(0.0710886 -0.0553619 0)
(0.00454885 -0.194372 0)
(0.0117358 -0.193579 0)
(0.0209357 -0.190864 0)
(0.0282911 -0.189122 0)
(0.0378675 -0.183516 0)
(0.046024 -0.180653 0)
(0.0557133 -0.173456 0)
(0.0654253 -0.168274 0)
(0.0748094 -0.160231 0)
(0.086176 -0.153505 0)
(0.0958366 -0.142455 0)
(0.109347 -0.13508 0)
(0.117288 -0.121816 0)
(0.129852 -0.113393 0)
(0.134273 -0.100848 0)
(0.139681 -0.0908562 0)
(0.141972 -0.0788295 0)
(0.142749 -0.0700433 0)
(0.143272 -0.0580299 0)
(0.141286 -0.0518702 0)
(0.132101 -0.035482 0)
(0.117647 -0.0341777 0)
(0.0885458 -0.024259 0)
(0.00545951 -0.202267 0)
(0.0142476 -0.201489 0)
(0.0253181 -0.198232 0)
(0.0341862 -0.196349 0)
(0.0452357 -0.189839 0)
(0.054261 -0.186356 0)
(0.0646017 -0.178138 0)
(0.0739769 -0.171833 0)
(0.0829527 -0.162834 0)
(0.0921995 -0.155408 0)
(0.099727 -0.144855 0)
(0.109003 -0.13721 0)
(0.114966 -0.12586 0)
(0.124134 -0.117407 0)
(0.128174 -0.105566 0)
(0.134419 -0.0966248 0)
(0.136399 -0.0820739 0)
(0.136743 -0.0708874 0)
(0.135147 -0.0542087 0)
(0.126576 -0.0434631 0)
(0.118003 -0.0251157 0)
(0.0992594 -0.0142162 0)
(0.0775947 0.0045881 0)
(0.00581785 -0.214145 0)
(0.0154957 -0.213509 0)
(0.027327 -0.210867 0)
(0.0372247 -0.209103 0)
(0.0491595 -0.20366 0)
(0.0596128 -0.200062 0)
(0.0711765 -0.193247 0)
(0.0825579 -0.186644 0)
(0.0937038 -0.17852 0)
(0.105667 -0.170274 0)
(0.115903 -0.159332 0)
(0.127925 -0.150285 0)
(0.136173 -0.137102 0)
(0.146971 -0.126524 0)
(0.152648 -0.111423 0)
(0.16041 -0.0988878 0)
(0.162315 -0.0815467 0)
(0.166311 -0.0683543 0)
(0.163773 -0.0482106 0)
(0.16276 -0.0340028 0)
(0.152125 -0.00833099 0)
(0.143239 0.00732149 0)
(0.120314 0.0348946 0)
(0.00644954 -0.223649 0)
(0.0174717 -0.223044 0)
(0.0304306 -0.220059 0)
(0.0411606 -0.218192 0)
(0.0538945 -0.212362 0)
(0.0647017 -0.208343 0)
(0.0766833 -0.201243 0)
(0.0876951 -0.194296 0)
(0.0988364 -0.186103 0)
(0.109852 -0.177519 0)
(0.119857 -0.167222 0)
(0.130899 -0.157372 0)
(0.139146 -0.144892 0)
(0.149489 -0.133776 0)
(0.155142 -0.118791 0)
(0.163615 -0.106244 0)
(0.166123 -0.0875482 0)
(0.170823 -0.0724547 0)
(0.168814 -0.0500939 0)
(0.166851 -0.0321489 0)
(0.157928 -0.00501085 0)
(0.147792 0.0169821 0)
(0.127779 0.0486712 0)
(0.00703386 -0.238108 0)
(0.0192929 -0.237539 0)
(0.0334368 -0.234603 0)
(0.0455749 -0.23261 0)
(0.0595615 -0.227269 0)
(0.0720641 -0.222887 0)
(0.0856052 -0.216339 0)
(0.0985612 -0.20884 0)
(0.111616 -0.200811 0)
(0.124693 -0.191358 0)
(0.136718 -0.180567 0)
(0.149549 -0.169667 0)
(0.160165 -0.155949 0)
(0.172247 -0.142628 0)
(0.180443 -0.125882 0)
(0.19111 -0.109938 0)
(0.195305 -0.0891273 0)
(0.204096 -0.07098 0)
(0.203017 -0.0445017 0)
(0.207963 -0.0228303 0)
(0.199634 0.0108306 0)
(0.197753 0.0380953 0)
(0.179776 0.0791138 0)
(0.00762281 -0.250097 0)
(0.0205394 -0.249557 0)
(0.0357727 -0.246477 0)
(0.0485209 -0.244391 0)
(0.0633455 -0.239 0)
(0.0762269 -0.234412 0)
(0.0904117 -0.227886 0)
(0.103406 -0.220278 0)
(0.116974 -0.212345 0)
(0.130004 -0.202539 0)
(0.142727 -0.192103 0)
(0.1557 -0.180689 0)
(0.167044 -0.167489 0)
(0.179468 -0.153899 0)
(0.18879 -0.137387 0)
(0.200239 -0.120977 0)
(0.206426 -0.100103 0)
(0.216287 -0.0801334 0)
(0.217609 -0.05346 0)
(0.224804 -0.0288987 0)
(0.219928 0.00558511 0)
(0.222619 0.0364521 0)
(0.210285 0.0807213 0)
(0.00824857 -0.266318 0)
(0.022903 -0.265748 0)
(0.0394441 -0.262641 0)
(0.0538495 -0.260241 0)
(0.0700047 -0.255062 0)
(0.084576 -0.250019 0)
(0.100273 -0.243651 0)
(0.11495 -0.235494 0)
(0.130133 -0.227597 0)
(0.144855 -0.217249 0)
(0.159463 -0.206514 0)
(0.174251 -0.194184 0)
(0.187956 -0.180028 0)
(0.202277 -0.164638 0)
(0.214359 -0.147001 0)
(0.228116 -0.127873 0)
(0.237141 -0.105502 0)
(0.250343 -0.082432 0)
(0.254697 -0.0531961 0)
(0.266965 -0.0252971 0)
(0.265215 0.0132125 0)
(0.275019 0.0478124 0)
(0.266683 0.0972852 0)
(0.00866883 -0.281409 0)
(0.0238087 -0.28091 0)
(0.0411734 -0.277586 0)
(0.0562237 -0.275069 0)
(0.0732244 -0.269886 0)
(0.0885225 -0.264743 0)
(0.105182 -0.2584 0)
(0.120564 -0.250135 0)
(0.136902 -0.242337 0)
(0.152327 -0.231805 0)
(0.168057 -0.221496 0)
(0.183553 -0.209064 0)
(0.198435 -0.195388 0)
(0.21363 -0.180151 0)
(0.227479 -0.162945 0)
(0.242215 -0.143636 0)
(0.254093 -0.121882 0)
(0.268349 -0.0976684 0)
(0.276797 -0.0695365 0)
(0.291022 -0.039556 0)
(0.29453 -0.00200365 0)
(0.308749 0.0346372 0)
(0.307385 0.0852358 0)
(0.00921277 -0.298856 0)
(0.0253408 -0.298328 0)
(0.0437595 -0.295128 0)
(0.060093 -0.292375 0)
(0.0782588 -0.287471 0)
(0.0950727 -0.282077 0)
(0.113141 -0.275858 0)
(0.130168 -0.26735 0)
(0.148279 -0.259591 0)
(0.165612 -0.248598 0)
(0.18353 -0.238035 0)
(0.201266 -0.224833 0)
(0.218711 -0.210457 0)
(0.236412 -0.19404 0)
(0.253173 -0.175967 0)
(0.270662 -0.154932 0)
(0.285839 -0.13197 0)
(0.303217 -0.105654 0)
(0.315725 -0.0760331 0)
(0.333713 -0.0435852 0)
(0.34221 -0.00435732 0)
(0.361686 0.0344555 0)
(0.366358 0.0872855 0)
(0.00945334 -0.316157 0)
(0.0257078 -0.315654 0)
(0.0444422 -0.312528 0)
(0.0612359 -0.309728 0)
(0.0799244 -0.305046 0)
(0.0973536 -0.29973 0)
(0.11634 -0.293649 0)
(0.13429 -0.285312 0)
(0.153709 -0.277882 0)
(0.172086 -0.26703 0)
(0.191566 -0.257165 0)
(0.21063 -0.244164 0)
(0.229907 -0.230438 0)
(0.249387 -0.214496 0)
(0.268535 -0.196956 0)
(0.28795 -0.176201 0)
(0.30635 -0.15403 0)
(0.325476 -0.127552 0)
(0.342187 -0.0994778 0)
(0.361871 -0.0662117 0)
(0.3756 -0.0293653 0)
(0.39791 0.010114 0)
(0.408275 0.0615638 0)
(0.00962314 -0.334075 0)
(0.0256231 -0.333393 0)
(0.0444579 -0.33073 0)
(0.0616244 -0.327949 0)
(0.0806723 -0.323707 0)
(0.0989024 -0.318613 0)
(0.11884 -0.312975 0)
(0.138232 -0.304882 0)
(0.159396 -0.297642 0)
(0.17982 -0.286682 0)
(0.201763 -0.276909 0)
(0.223363 -0.263485 0)
(0.245639 -0.249609 0)
(0.268269 -0.233078 0)
(0.290804 -0.214967 0)
(0.314003 -0.193264 0)
(0.336375 -0.169902 0)
(0.359909 -0.142132 0)
(0.381572 -0.112685 0)
(0.405772 -0.0777939 0)
(0.425403 -0.0403902 0)
(0.452137 0.000862717 0)
(0.468514 0.0524241 0)
(0.00944351 -0.351625 0)
(0.0247108 -0.350714 0)
(0.0431072 -0.348747 0)
(0.0597736 -0.346142 0)
(0.0784392 -0.342534 0)
(0.0964576 -0.338056 0)
(0.116397 -0.33317 0)
(0.136 -0.325976 0)
(0.157798 -0.319624 0)
(0.178956 -0.309445 0)
(0.202264 -0.300795 0)
(0.225243 -0.288033 0)
(0.24971 -0.275334 0)
(0.274671 -0.259608 0)
(0.300326 -0.242557 0)
(0.326737 -0.221717 0)
(0.353334 -0.199654 0)
(0.380798 -0.172773 0)
(0.407576 -0.144887 0)
(0.435634 -0.110223 0)
(0.461076 -0.0750939 0)
(0.491187 -0.033385 0)
(0.51323 0.0158423 0)
(0.00875348 -0.36826 0)
(0.0232171 -0.367103 0)
(0.0404926 -0.365836 0)
(0.0563057 -0.363343 0)
(0.0741204 -0.360477 0)
(0.0916399 -0.356668 0)
(0.11114 -0.35267 0)
(0.130787 -0.346432 0)
(0.152909 -0.340833 0)
(0.175123 -0.331363 0)
(0.20009 -0.32352 0)
(0.225218 -0.311235 0)
(0.252694 -0.299451 0)
(0.281175 -0.284109 0)
(0.311013 -0.267519 0)
(0.342206 -0.246811 0)
(0.373966 -0.22446 0)
(0.407114 -0.197057 0)
(0.439831 -0.16793 0)
(0.473884 -0.132183 0)
(0.506398 -0.0961416 0)
(0.542182 -0.0524285 0)
(0.57167 -0.00323384 0)
(0.00788353 -0.383835 0)
(0.0216358 -0.382701 0)
(0.0375063 -0.382077 0)
(0.0521812 -0.380007 0)
(0.0687508 -0.378114 0)
(0.0850359 -0.375292 0)
(0.103229 -0.372561 0)
(0.121673 -0.367936 0)
(0.142662 -0.364192 0)
(0.164251 -0.356783 0)
(0.189172 -0.351096 0)
(0.214697 -0.340758 0)
(0.243451 -0.331443 0)
(0.273421 -0.318015 0)
(0.305647 -0.303659 0)
(0.339548 -0.284749 0)
(0.375093 -0.264519 0)
(0.412555 -0.238757 0)
(0.450708 -0.211442 0)
(0.490478 -0.177025 0)
(0.530148 -0.142926 0)
(0.572163 -0.0990883 0)
(0.609354 -0.0524571 0)
(0.00682299 -0.397754 0)
(0.0195136 -0.396715 0)
(0.0334888 -0.396363 0)
(0.046804 -0.394583 0)
(0.0617403 -0.393341 0)
(0.0766609 -0.391163 0)
(0.093396 -0.389367 0)
(0.110734 -0.385926 0)
(0.130514 -0.383546 0)
(0.15131 -0.378002 0)
(0.175549 -0.3742 0)
(0.201145 -0.365729 0)
(0.230795 -0.35852 0)
(0.262412 -0.346629 0)
(0.29747 -0.334094 0)
(0.335194 -0.316711 0)
(0.37576 -0.297985 0)
(0.419228 -0.273298 0)
(0.464181 -0.24637 0)
(0.511709 -0.212487 0)
(0.55973 -0.178217 0)
(0.609716 -0.132827 0)
(0.655955 -0.0865545 0)
(0.00598289 -0.410425 0)
(0.0175968 -0.409633 0)
(0.0299275 -0.409631 0)
(0.0420055 -0.40853 0)
(0.055373 -0.408257 0)
(0.0689079 -0.407226 0)
(0.0840204 -0.406944 0)
(0.0999108 -0.405341 0)
(0.117975 -0.405101 0)
(0.137302 -0.402111 0)
(0.159769 -0.401287 0)
(0.183872 -0.396304 0)
(0.212184 -0.393084 0)
(0.242789 -0.384998 0)
(0.277724 -0.376805 0)
(0.315979 -0.363359 0)
(0.358372 -0.348871 0)
(0.404367 -0.327526 0)
(0.453495 -0.304118 0)
(0.506454 -0.272996 0)
(0.561269 -0.24088 0)
(0.618443 -0.195904 0)
(0.674028 -0.152239 0)
(0.00510618 -0.42124 0)
(0.0152292 -0.420575 0)
(0.0257486 -0.420678 0)
(0.0362725 -0.419937 0)
(0.0477623 -0.420156 0)
(0.0596567 -0.419716 0)
(0.0728515 -0.4203 0)
(0.0871357 -0.419799 0)
(0.103279 -0.420903 0)
(0.121105 -0.419748 0)
(0.141776 -0.420801 0)
(0.164472 -0.41815 0)
(0.191187 -0.417565 0)
(0.220502 -0.412257 0)
(0.254562 -0.407535 0)
(0.292585 -0.397577 0)
(0.33557 -0.386751 0)
(0.383293 -0.368817 0)
(0.436147 -0.348934 0)
(0.494497 -0.320925 0)
(0.556648 -0.29068 0)
(0.62268 -0.24665 0)
(0.69037 -0.205895 0)
(0.00448197 -0.431032 0)
(0.0135364 -0.430559 0)
(0.0227311 -0.43096 0)
(0.0321429 -0.430842 0)
(0.0421924 -0.431965 0)
(0.0529233 -0.432648 0)
(0.0646003 -0.4348 0)
(0.0776845 -0.43615 0)
(0.0921806 -0.439516 0)
(0.108683 -0.44105 0)
(0.127455 -0.445182 0)
(0.148632 -0.446225 0)
(0.173325 -0.449733 0)
(0.200824 -0.448951 0)
(0.232887 -0.449595 0)
(0.268962 -0.445012 0)
(0.310005 -0.440338 0)
(0.356297 -0.428815 0)
(0.40882 -0.416077 0)
(0.467458 -0.394277 0)
(0.531724 -0.369655 0)
(0.601922 -0.330525 0)
(0.677813 -0.295396 0)
(0.00370524 -0.439097 0)
(0.0113359 -0.438668 0)
(0.0189211 -0.439118 0)
(0.0269093 -0.439225 0)
(0.0352191 -0.44076 0)
(0.044456 -0.441927 0)
(0.0541926 -0.44487 0)
(0.0656117 -0.447155 0)
(0.0778555 -0.451698 0)
(0.0924427 -0.454774 0)
(0.108619 -0.460544 0)
(0.127558 -0.463753 0)
(0.149272 -0.469571 0)
(0.174184 -0.471548 0)
(0.203133 -0.475545 0)
(0.236403 -0.474473 0)
(0.274787 -0.474055 0)
(0.31927 -0.467534 0)
(0.370343 -0.46022 0)
(0.428401 -0.443981 0)
(0.494067 -0.425452 0)
(0.5682 -0.393355 0)
(0.652291 -0.366491 0)
(0.00325242 -0.446364 0)
(0.0100858 -0.446074 0)
(0.0167157 -0.446842 0)
(0.0239215 -0.447462 0)
(0.0311597 -0.449864 0)
(0.0395694 -0.451994 0)
(0.0480788 -0.456384 0)
(0.0585896 -0.460265 0)
(0.0693506 -0.466884 0)
(0.0829041 -0.472377 0)
(0.0972296 -0.480977 0)
(0.114911 -0.48758 0)
(0.134342 -0.497219 0)
(0.157551 -0.503674 0)
(0.183802 -0.512882 0)
(0.214575 -0.517702 0)
(0.249682 -0.524473 0)
(0.29089 -0.525587 0)
(0.337402 -0.526636 0)
(0.391322 -0.519336 0)
(0.453023 -0.510884 0)
(0.52356 -0.490137 0)
(0.606202 -0.473858 0)
(0.00257266 -0.452216 0)
(0.00813706 -0.451911 0)
(0.0134018 -0.452725 0)
(0.0193525 -0.453427 0)
(0.0251185 -0.456157 0)
(0.0321234 -0.458563 0)
(0.0389106 -0.4636 0)
(0.0477063 -0.468084 0)
(0.056269 -0.475666 0)
(0.067658 -0.482231 0)
(0.0790193 -0.492138 0)
(0.0939386 -0.500343 0)
(0.109356 -0.511721 0)
(0.128979 -0.520363 0)
(0.150035 -0.532008 0)
(0.176051 -0.539587 0)
(0.204777 -0.549765 0)
(0.239832 -0.554414 0)
(0.279041 -0.560058 0)
(0.327068 -0.558852 0)
(0.382753 -0.557313 0)
(0.449968 -0.546144 0)
(0.53224 -0.542667 0)
(0.00223115 -0.457387 0)
(0.00715365 -0.457224 0)
(0.0117423 -0.458389 0)
(0.0170311 -0.459527 0)
(0.0220507 -0.463017 0)
(0.0282556 -0.466197 0)
(0.0341372 -0.472438 0)
(0.0418985 -0.478136 0)
(0.049206 -0.48744 0)
(0.059235 -0.495782 0)
(0.0686888 -0.508046 0)
(0.0818562 -0.518759 0)
(0.0943842 -0.533292 0)
(0.111678 -0.545434 0)
(0.128515 -0.561301 0)
(0.151173 -0.573817 0)
(0.174136 -0.589975 0)
(0.204309 -0.601575 0)
(0.235519 -0.615994 0)
(0.276376 -0.625128 0)
(0.318767 -0.636191 0)
(0.375215 -0.641887 0)
(0.43821 -0.657412 0)
(0.00160032 -0.461323 0)
(0.00528182 -0.461142 0)
(0.00861334 -0.462314 0)
(0.0125791 -0.463428 0)
(0.0162391 -0.467059 0)
(0.0208498 -0.470288 0)
(0.0251048 -0.476859 0)
(0.0307903 -0.482704 0)
(0.0359663 -0.492527 0)
(0.0432235 -0.50114 0)
(0.0497585 -0.51416 0)
(0.0592355 -0.525295 0)
(0.0676016 -0.540789 0)
(0.0799552 -0.553526 0)
(0.0906727 -0.570559 0)
(0.10669 -0.583949 0)
(0.120639 -0.601742 0)
(0.1416 -0.614179 0)
(0.159594 -0.630744 0)
(0.187591 -0.640107 0)
(0.211334 -0.654693 0)
(0.251302 -0.663424 0)
(0.29228 -0.695381 0)
(0.0012964 -0.464616 0)
(0.00431299 -0.464591 0)
(0.00700906 -0.466052 0)
(0.0102051 -0.467538 0)
(0.0131416 -0.471707 0)
(0.0167462 -0.475516 0)
(0.0200823 -0.482895 0)
(0.0243635 -0.489565 0)
(0.0282824 -0.500536 0)
(0.033561 -0.510304 0)
(0.038298 -0.524925 0)
(0.0449177 -0.537551 0)
(0.050554 -0.555151 0)
(0.0587316 -0.569738 0)
(0.0651282 -0.58953 0)
(0.0750363 -0.605386 0)
(0.0820194 -0.626834 0)
(0.0937036 -0.642613 0)
(0.100628 -0.664493 0)
(0.113615 -0.67959 0)
(0.118458 -0.702978 0)
(0.132073 -0.726191 0)
(0.144269 -0.79157 0)
(0.00070141 -0.466577 0)
(0.00250789 -0.466497 0)
(0.00398072 -0.46784 0)
(0.00586443 -0.469171 0)
(0.00742996 -0.473191 0)
(0.00944824 -0.476769 0)
(0.0110916 -0.483983 0)
(0.0133622 -0.49033 0)
(0.0151113 -0.501104 0)
(0.0177353 -0.510412 0)
(0.0195629 -0.524721 0)
(0.0224928 -0.536574 0)
(0.0241152 -0.553573 0)
(0.0269782 -0.566808 0)
(0.0276267 -0.585528 0)
(0.0295722 -0.599123 0)
(0.0276787 -0.618676 0)
(0.0268816 -0.630492 0)
(0.0188462 -0.648394 0)
(0.010477 -0.654828 0)
(-0.0113307 -0.670234 0)
(-0.0344227 -0.685275 0)
(-0.0611719 -0.767404 0)
(0.000426579 -0.468241 0)
(0.00162478 -0.468288 0)
(0.00245734 -0.469839 0)
(0.00359201 -0.471435 0)
(0.00435892 -0.475777 0)
(0.00541681 -0.479702 0)
(0.00606278 -0.487403 0)
(0.00706558 -0.494234 0)
(0.00749854 -0.50567 0)
(0.0083174 -0.51559 0)
(0.00825748 -0.530676 0)
(0.00844735 -0.543184 0)
(0.00722977 -0.56094 0)
(0.00580945 -0.57465 0)
(0.00196679 -0.59383 0)
(-0.00302056 -0.607246 0)
(-0.0125688 -0.626356 0)
(-0.025381 -0.636105 0)
(-0.0477498 -0.650913 0)
(-0.0791628 -0.652419 0)
(-0.128766 -0.661553 0)
(-0.197139 -0.680003 0)
(-0.276072 -0.786589 0)
(-1.9641e-05 -0.468154 0)
(0.000213986 -0.468048 0)
(-6.03436e-06 -0.46932 0)
(1.30092e-05 -0.470558 0)
(-0.000454161 -0.47447 0)
(-0.000716544 -0.477867 0)
(-0.00156546 -0.484972 0)
(-0.00224561 -0.491005 0)
(-0.00372389 -0.50152 0)
(-0.00516393 -0.510184 0)
(-0.00771476 -0.523764 0)
(-0.0106232 -0.534237 0)
(-0.015106 -0.549506 0)
(-0.0208615 -0.559789 0)
(-0.0291984 -0.574804 0)
(-0.0404332 -0.582206 0)
(-0.0572899 -0.593794 0)
(-0.0806106 -0.592053 0)
(-0.11776 -0.591209 0)
(-0.173488 -0.56927 0)
(-0.264027 -0.547577 0)
(-0.398106 -0.531834 0)
(-0.567011 -0.605785 0)
(-0.000238534 -0.468971 0)
(-0.000422861 -0.468843 0)
(-0.00109178 -0.470192 0)
(-0.00157136 -0.471564 0)
(-0.00261845 -0.475672 0)
(-0.00353707 -0.479264 0)
(-0.00512315 -0.486633 0)
(-0.00675087 -0.492913 0)
(-0.00924777 -0.503721 0)
(-0.0121312 -0.512676 0)
(-0.0161523 -0.526485 0)
(-0.0212727 -0.537202 0)
(-0.0279383 -0.552378 0)
(-0.0370817 -0.56241 0)
(-0.0487877 -0.576479 0)
(-0.0651708 -0.581581 0)
(-0.0876358 -0.589099 0)
(-0.119903 -0.578709 0)
(-0.16733 -0.561693 0)
(-0.243512 -0.509622 0)
(-0.363054 -0.44077 0)
(-0.55581 -0.38021 0)
(-0.805876 -0.423376 0)
(-0.000656879 -0.466842 0)
(-0.00161885 -0.466533 0)
(-0.00309112 -0.467489 0)