/*--------------------------------*- C++ -*----------------------------------*\
| =========                 |                                                 |
| \\      /  F ield         | OpenFOAM: The Open Source CFD Toolbox           |
|  \\    /   O peration     | Version:  2012                                  |
|   \\  /    A nd           | Website:  www.openfoam.com                      |
|    \\/     M anipulation  |                                                 |
\*---------------------------------------------------------------------------*/
FoamFile
{
    version     2.0;
    format      ascii;
    class       volScalarField;
    location    "0.52";
    object      volumeFraction1;
}
// * * * * * * * * * * * * * * * * * * * * * * * * * * * * * * * * * * * * * //

dimensions      [0 0 0 0 0 0 0];


internalField   nonuniform List<scalar> 
2268
(
1
1
1
1
1
1
1
1
1
1
1
1
1
1
1
1
1
1
1
1
1
1
0.999701
1
1
1
1
1
1
1
1
1
1
1
1
1
1
1
1
1
1
1
1
1
1
0.999666
1
1
1
1
1
1
1
1
1
1
1
1
1
1
1
1
1
1
1
1
1
1
0.999666
1
1
1
1
1
1
1
1
1
1
1
1
1
1
1
1
1
1
1
1
1
1
0.999772
1
1
1
1
1
1
1
1
1
1
1
1
1
1
1
1
1
1
1
1
1
1
0.99999
1
1
1
1
1
1
1
1
1
1
1
1
1
1
1
1
1
1
1
1
1
1
1
1
1
1
1
1
1
1
1
1
1
1
1
1
1
1
1
1
1
1
1
1
1
1
0.999937
0.999936
0.999948
0.99996
0.999971
0.99998
0.99999
0.999995
0.999998
0.999999
1
1
1
1
1
1
1
1
1
1
1
1
1
3.1634e-17
1.20811e-15
1.06035e-10
0.000105612
0.0394473
0.285886
0.3768
0.376378
0.360608
0.384563
0.512552
0.593077
0.595227
0.588601
0.640881
0.718014
0.718016
0.717869
0.704696
3.20597e-17
5.14972e-15
1.50139e-09
4.5026e-05
0.00124794
0.00167082
0.000275233
7.45374e-10
7.45373e-10
7.45374e-10
0.0115898
0.0898534
0.282095
0.424525
0.489279
0.521357
0.594535
0.716767
0.718626
1.16141e-14
2.70665e-12
1.11058e-08
2.54093e-06
6.96965e-06
2.1246e-05
0.000251973
0.000251976
2.94174e-06
0.00019375
0.0108068
0.0256102
0.0365388
0.0467451
0.0446524
0.0322601
0.0536238
0.331392
0.718433
7.25279e-15
2.55966e-12
6.07378e-10
1.51864e-09
3.52456e-09
1.31921e-11
1.22147e-05
0.000168219
1.67479e-05
0.000153767
0.00034176
7.45379e-10
7.45373e-10
7.45379e-10
7.45373e-10
7.45379e-10
0.00210685
0.102133
0.3958
4.28568e-15
1.97674e-13
1.08737e-11
4.47517e-09
3.0188e-09
1.3197e-11
4.7825e-08
1.02708e-05
1.20732e-05
2.03023e-05
1.25823e-08
1.26222e-08
1.12006e-08
7.85089e-09
4.7672e-08
4.29749e-06
0.00225212
0.0529266
0.291289
2.7778e-12
4.82693e-11
4.54681e-14
0.000469051
0.00039172
4.50219e-05
5.9608e-15
5.9622e-15
1.03327e-06
5.28958e-08
1.25824e-08
2.2714e-08
2.23125e-08
1.18637e-08
1.04271e-08
6.51901e-07
0.000257689
0.0735977
0.741368
3.3493e-12
1.34094e-11
4.54685e-14
0.0899251
0.0896921
0.0131196
0.000911827
1.44139e-05
1.46084e-08
2.03627e-08
6.95451e-09
2.14511e-09
2.1113e-10
2.10856e-10
2.1077e-10
2.10856e-10
2.52702e-05
0.0309666
0.741373
4.54681e-14
4.54685e-14
4.54681e-14
0.516956
0.540041
0.123596
0.00292999
1.21065e-05
4.24003e-09
3.62565e-09
1.96165e-09
5.81431e-10
5.33715e-10
3.82604e-10
2.10772e-10
2.1077e-10
2.10856e-10
0.00758865
0.741368
0.932809
0.933098
0.938492
0.944605
0.952003
0.959872
0.9712
0.979541
0.987419
0.991958
0.995291
0.997919
0.999338
0.999971
1
1
1
1
1
1
1
1
1
0.268925
0.271794
0.282006
0.294693
0.313713
0.33768
0.376907
0.420367
0.489849
0.574595
0.657061
0.74853
0.84841
0.93648
0.990344
1
1
1
1
1
1
1
1
9.52277e-36
1.62315e-36
5.30772e-35
1.9845e-33
-7.18078e-33
-2.38776e-31
-3.55269e-32
6.86537e-32
4.13436e-32
4.09682e-32
0.0226024
0.0606561
0.119226
0.213133
0.369546
0.607105
0.904115
1
1
1
1
1
0.999987
9.60219e-19
4.86672e-17
1.44286e-15
2.5809e-14
2.91347e-13
2.60606e-12
4.13646e-12
2.59337e-12
1.02611e-12
1.05036e-14
1.9473e-27
-9.35302e-28
1.48515e-23
0.00022017
0.00660516
0.034365
0.114882
0.298171
0.578547
0.900825
1
1
1
3.76383e-18
1.96063e-16
5.95056e-15
1.07592e-13
1.3478e-12
1.35136e-11
2.42128e-11
3.02829e-11
2.02598e-11
1.05029e-14
2.54547e-08
4.92692e-08
4.38887e-08
1.6197e-07
-5.14638e-26
3.07026e-28
2.76545e-28
0.00776452
0.0474061
0.131583
0.276324
0.465769
0.758861
4.78174e-18
2.5613e-16
7.78031e-15
1.39818e-13
1.80811e-12
1.82614e-11
3.17931e-11
6.9873e-11
8.54788e-11
2.10524e-11
3.798e-08
1.14598e-06
1.97909e-06
2.31886e-06
1.80253e-06
1.38271e-07
1.07434e-08
9.37015e-06
0.00014202
0.000130353
0.00565655
0.0194114
0.0617944
4.58003e-18
2.44369e-16
7.28983e-15
1.25802e-13
1.51345e-12
1.65919e-11
2.40195e-11
9.49969e-11
2.88237e-10
3.76317e-11
3.77998e-11
1.80498e-06
2.29411e-06
2.29411e-06
1.18036e-06
7.07182e-08
1.03955e-08
9.3249e-09
9.32489e-09
7.68717e-08
5.09368e-06
1.1971e-12
1.1971e-12
3.49419e-18
1.76273e-16
4.97617e-15
7.8783e-14
8.38896e-13
9.90893e-12
9.43424e-12
1.08167e-10
7.13911e-10
9.28989e-10
7.48818e-08
2.66091e-11
3.36058e-07
1.30688e-11
1.30711e-11
1.41561e-08
3.79975e-08
3.00896e-08
9.39661e-09
2.27271e-08
5.86719e-08
2.23589e-07
2.91529e-07
1.70047e-18
8.1281e-17
2.18975e-15
3.34322e-14
3.32381e-13
3.91508e-12
2.37091e-12
1.00169e-10
9.80442e-10
4.60924e-09
7.33521e-10
2.66096e-11
1.83827e-11
4.80978e-11
1.30688e-11
3.29908e-09
3.64393e-08
3.99698e-08
2.21692e-08
2.35013e-08
7.74249e-09
2.25502e-11
2.25785e-11
6.76519e-19
3.12216e-17
8.17882e-16
1.21691e-14
1.15571e-13
1.32198e-12
4.69921e-13
8.94309e-11
7.61497e-10
3.41578e-09
1.5366e-09
2.85604e-10
1.26423e-10
3.46024e-10
4.53305e-10
4.12914e-10
3.04712e-09
1.92777e-08
1.48319e-08
2.86772e-09
3.38314e-11
2.32989e-11
4.76994e-08
2.23425e-19
9.93761e-18
2.53549e-16
3.67702e-15
3.41607e-14
3.65522e-13
3.1213e-13
5.19123e-11
2.77792e-10
2.43314e-10
2.67471e-10
1.62992e-10
1.46483e-10
3.53772e-10
5.83987e-10
5.1666e-10
1.48125e-10
1.48105e-10
1.48125e-10
6.06292e-10
5.47367e-10
1.27879e-10
2.1386e-12
6.09286e-20
2.63373e-18
6.59152e-17
9.40016e-16
8.77075e-15
7.80869e-14
2.64133e-13
1.28032e-11
5.32703e-11
4.74987e-11
5.60474e-11
5.49804e-11
5.81586e-11
8.70161e-11
2.4632e-10
3.35398e-10
3.12896e-10
2.03681e-10
1.76765e-10
1.76152e-10
1.66719e-10
1.3044e-10
6.98447e-11
1.36001e-20
5.69321e-19
1.39608e-17
1.96449e-16
1.8684e-15
1.46925e-14
1.10227e-13
2.57908e-12
6.2545e-12
1.15475e-11
1.41038e-11
1.34001e-11
1.37751e-11
1.75447e-11
2.85077e-11
5.58717e-11
1.10531e-10
1.68453e-10
1.79117e-10
1.76518e-10
1.51061e-10
9.84898e-11
6.10321e-11
2.46012e-21
1.01199e-19
2.46137e-18
3.47051e-17
3.41424e-16
2.62515e-15
3.33252e-14
3.0818e-13
9.65021e-13
1.88052e-12
2.23833e-12
2.16854e-12
2.29006e-12
2.89905e-12
4.53283e-12
8.05853e-12
1.47882e-11
2.50185e-11
3.11564e-11
2.91579e-11
2.72824e-11
2.26809e-11
1.70237e-11
3.55088e-22
1.44289e-20
3.51358e-19
5.04507e-18
5.21568e-17
4.13754e-16
7.27512e-15
3.10848e-14
8.76412e-14
1.64292e-13
1.96768e-13
2.11347e-13
2.59862e-13
4.1081e-13
7.45957e-13
1.26529e-12
1.82778e-12
2.29052e-12
2.74047e-12
3.07206e-12
3.40461e-12
3.35156e-12
2.98339e-12
4.00137e-23
1.63308e-21
4.05206e-20
6.04123e-19
6.64011e-18
5.4732e-17
1.03107e-15
3.355e-15
6.27813e-15
7.35758e-15
8.47701e-15
1.19894e-14
2.44503e-14
5.58568e-14
1.14582e-13
1.87717e-13
2.45398e-13
2.91387e-13
3.32729e-13
3.6405e-13
4.06431e-13
4.18645e-13
4.16219e-13
3.41615e-24
1.42888e-22
3.68886e-21
5.82708e-20
6.85839e-19
5.77834e-18
9.04532e-17
3.31529e-16
5.56128e-16
5.94123e-16
6.70098e-16
1.11532e-15
2.80108e-15
7.05253e-15
1.47571e-14
2.36166e-14
3.00952e-14
3.52389e-14
3.93719e-14
4.17547e-14
4.49678e-14
4.41246e-14
4.46638e-14
2.1173e-25
9.40238e-24
2.60029e-22
4.4344e-21
5.57219e-20
4.70856e-19
4.68101e-18
1.76496e-17
3.6076e-17
4.50157e-17
5.86309e-17
1.08982e-16
2.70586e-16
6.44932e-16
1.27562e-15
1.93543e-15
2.40808e-15
2.80169e-15
3.0956e-15
3.26661e-15
3.60963e-15
3.56259e-15
3.67156e-15
8.92221e-27
4.37042e-25
1.33101e-23
2.46796e-22
3.25956e-21
2.72777e-20
1.73092e-19
5.28364e-19
9.44619e-19
1.44079e-18
2.64222e-18
6.64175e-18
1.74062e-17
3.88883e-17
6.97219e-17
9.62252e-17
1.16231e-16
1.35234e-16
1.51248e-16
1.63462e-16
1.96337e-16
2.062e-16
2.52805e-16
2.33637e-28
1.34615e-26
4.66102e-25
9.41695e-24
1.28926e-22
1.05172e-21
5.61508e-21
1.47633e-20
2.82104e-20
5.41988e-20
1.31466e-19
3.63262e-19
8.97529e-19
1.74265e-18
2.43413e-18
2.90259e-18
3.36624e-18
3.91052e-18
4.52441e-18
5.19102e-18
6.57995e-18
8.95069e-18
1.80215e-17
3.48148e-30
2.27657e-28
8.69762e-27
1.85334e-25
2.57632e-24
2.04546e-23
8.94121e-23
2.64183e-22
6.94016e-22
1.9447e-21
5.67669e-21
1.5533e-20
3.48039e-20
5.36584e-20
6.12157e-20
6.68942e-20
7.37162e-20
8.46399e-20
1.0182e-19
1.16215e-19
1.50387e-19
4.16838e-19
5.13276e-18
4.70452e-32
2.10446e-30
5.9639e-29
1.10849e-27
1.70387e-26
1.80486e-25
1.08306e-24
4.88919e-24
1.9306e-23
6.77197e-23
1.99007e-22
4.97773e-22
1.00857e-21
1.44198e-21
1.64763e-21
1.74853e-21
1.79955e-21
1.87468e-21
1.92977e-21
2.06297e-21
4.95794e-21
1.3547e-19
3.9965e-18
1.47642e-33
6.84374e-32
1.94898e-30
3.54903e-29
5.20037e-28
5.40561e-27
3.30789e-26
1.5081e-25
5.77696e-25
1.90778e-24
5.09317e-24
1.15195e-23
2.18915e-23
3.16735e-23
3.67765e-23
3.8576e-23
3.76367e-23
3.17594e-23
2.0657e-23
3.53207e-23
1.72953e-21
9.80055e-20
2.93202e-18
2.26331e-35
1.08578e-33
3.04898e-32
5.18857e-31
6.374e-30
5.59701e-29
3.84445e-28
2.05457e-27
8.60558e-27
2.87664e-26
7.46257e-26
1.65698e-25
3.22789e-25
5.18245e-25
6.32847e-25
6.76669e-25
6.61991e-25
5.08793e-25
5.5608e-25
7.42133e-24
8.17096e-22
4.70939e-20
1.36207e-18
7.12217e-41
2.37889e-39
4.52536e-38
5.1575e-37
3.94787e-36
1.50881e-35
4.43445e-35
2.32196e-34
1.35815e-33
6.1679e-33
2.05925e-32
5.64941e-32
1.3274e-31
1.99117e-31
2.51733e-31
1.0797e-30
3.95608e-29
1.449e-27
4.55001e-26
2.57223e-24
2.91854e-22
1.61722e-20
4.37196e-19
3.84199e-45
1.76699e-43
4.82814e-42
8.75209e-41
1.26417e-39
1.67384e-38
3.95008e-37
5.88386e-36
4.27618e-35
2.0321e-34
6.7727e-34
1.83596e-33
4.18642e-33
5.92649e-33
9.35652e-33
1.84461e-31
8.85977e-30
3.48814e-28
1.24458e-26
8.04499e-25
8.15197e-23
4.26957e-21
1.10051e-19
1.571e-48
7.20964e-47
1.86608e-45
3.04776e-44
3.5561e-43
3.09724e-42
2.09451e-41
1.14383e-40
4.99275e-40
1.89043e-39
6.18692e-39
3.0397e-38
1.3451e-37
4.49694e-36
4.41879e-34
3.69241e-32
2.15048e-30
1.08248e-28
5.76614e-27
4.15115e-25
3.1643e-23
1.44102e-21
3.83522e-20
3.54845e-54
2.18121e-52
7.5527e-51
1.69205e-49
2.75013e-48
3.44736e-47
3.4261e-46
2.84991e-45
1.91875e-44
1.1371e-43
6.64516e-43
3.24451e-41
5.96034e-39
1.08092e-36
1.63371e-34
2.25351e-32
3.13388e-30
4.10113e-28
5.03161e-26
4.0539e-24
2.22121e-22
8.09998e-21
2.37276e-19
9.24699e-58
6.34988e-56
2.42313e-54
6.05382e-53
1.10481e-51
1.59952e-50
1.87655e-49
1.90922e-48
1.74284e-47
5.42112e-46
1.74741e-43
6.38466e-41
2.09417e-38
5.4902e-36
1.35334e-33
2.81126e-31
5.53643e-29
8.47224e-27
1.11235e-24
9.19378e-23
5.06145e-21
1.88996e-19
5.51056e-18
3.12586e-64
2.76931e-62
1.48694e-60
5.80733e-59
1.77864e-57
6.5938e-56
1.63924e-53
1.38357e-50
1.04029e-47
6.14934e-45
2.97093e-42
1.0905e-39
3.56302e-37
9.43092e-35
2.36583e-32
5.07739e-30
1.03089e-27
1.63794e-25
2.17272e-23
1.79599e-21
9.79572e-20
3.65312e-18
1.03847e-16
1.53783e-69
2.44465e-67
4.96642e-65
6.82727e-62
1.43921e-58
2.29818e-55
2.88214e-52
2.61133e-49
1.92245e-46
1.06664e-43
4.98158e-41
1.79249e-38
5.76128e-36
1.53148e-33
3.88303e-31
8.53099e-29
1.76022e-26
2.85101e-24
3.72677e-22
3.00761e-20
1.5888e-18
5.72807e-17
1.54587e-15
1.94813e-71
9.55601e-68
4.47855e-64
1.31052e-60
2.78156e-57
4.27026e-54
5.08734e-51
4.50131e-48
3.22662e-45
1.74954e-42
7.95333e-40
2.81109e-37
8.91405e-35
2.38342e-32
6.10073e-30
1.36138e-27
2.81872e-25
4.57267e-23
5.75046e-21
4.42123e-19
2.21323e-17
7.48098e-16
1.85829e-14
2.12201e-70
1.95927e-66
8.6608e-63
2.4453e-59
5.03962e-56
7.54084e-53
8.73772e-50
7.54266e-47
5.25383e-44
2.78289e-41
1.23329e-38
4.30105e-36
1.35245e-33
3.64733e-31
9.39777e-29
2.11061e-26
4.33052e-24
6.88951e-22
8.11527e-20
5.78654e-18
2.68088e-16
8.21461e-15
1.80987e-13
4.55352e-69
3.92383e-65
1.69189e-61
4.6542e-58
9.27771e-55
1.34584e-51
1.50881e-48
1.26695e-45
8.55694e-43
4.43149e-40
1.92047e-37
6.65726e-35
2.08964e-32
5.69903e-30
1.46871e-27
3.29188e-25
6.60587e-23
1.00513e-20
1.08009e-18
6.97528e-17
2.92221e-15
7.8467e-14
1.46336e-12
9.88427e-68
8.33116e-64
3.50309e-60
9.37859e-57
1.80167e-53
2.52144e-50
2.71988e-47
2.21401e-44
1.44606e-41
7.32706e-39
3.11362e-36
1.07966e-33
3.39514e-31
9.34439e-29
2.38002e-26
5.28627e-24
1.01934e-21
1.44156e-19
1.37794e-17
7.87742e-16
2.90549e-14
6.56129e-13
9.7125e-12
2.31435e-66
1.91185e-62
7.84714e-59
2.04478e-55
3.78192e-52
5.09737e-49
5.27347e-46
4.15178e-43
2.61742e-40
1.29832e-37
5.41814e-35
1.88346e-32
5.92e-30
1.6312e-27
4.052e-25
8.86309e-23
1.60703e-20
2.06212e-18
1.72372e-16
8.5898e-15
2.71369e-13
4.92338e-12
5.33355e-11
5.79341e-65
4.68912e-61
1.87925e-57
4.76672e-54
8.4983e-51
1.10467e-47
1.09623e-44
8.34677e-42
5.07857e-39
2.46752e-36
1.01099e-33
3.51322e-31
1.09536e-28
2.98786e-26
7.17787e-24
1.5283e-21
2.54802e-19
2.92318e-17
2.11593e-15
9.0627e-14
2.21247e-12
2.94049e-11
2.08824e-10
1.50147e-63
1.18319e-59
4.62434e-56
1.14167e-52
1.96668e-49
2.47399e-46
2.36365e-43
1.74611e-40
1.0287e-37
4.90698e-35
1.97434e-32
6.83063e-30
2.09639e-27
5.61036e-25
1.26917e-22
2.27637e-20
3.04749e-18
2.80935e-16
1.65132e-14
5.84913e-13
1.16097e-11
1.21446e-10
5.9638e-10
3.8828e-62
2.93575e-58
1.07981e-54
2.50247e-51
4.03396e-48
4.7485e-45
4.23994e-42
2.93003e-39
1.60914e-36
7.12234e-34
2.61253e-31
8.02758e-29
2.10012e-26
4.61473e-24
8.35071e-22
1.1646e-19
1.21453e-17
9.281e-16
5.0253e-14
1.769e-12
3.66057e-11
4.15234e-10
2.28437e-09
7.29531e-61
5.1625e-57
1.7664e-53
3.80343e-50
5.7016e-47
6.2533e-44
5.18732e-41
3.31588e-38
1.66227e-35
6.58036e-33
2.07722e-30
5.22441e-28
1.05258e-25
1.69748e-23
2.20963e-21
2.37204e-19
2.10263e-17
1.49905e-15
7.9847e-14
2.87113e-12
6.41685e-11
9.85154e-10
1.00747e-08
4.70739e-60
3.07014e-56
9.64505e-53
1.91404e-49
2.66591e-46
2.73148e-43
2.12044e-40
1.26185e-37
5.82811e-35
2.08994e-32
5.85318e-30
1.27634e-27
2.18133e-25
2.94054e-23
3.21086e-21
2.98628e-19
2.52644e-17
1.97715e-15
1.33915e-13
6.75582e-12
2.46502e-10
6.31083e-09
1.83918e-08
1.59886e-59
1.01203e-55
3.08745e-52
5.94893e-49
8.02937e-46
7.97178e-43
5.9927e-40
3.45812e-37
1.54689e-34
5.37844e-32
1.4575e-29
3.07718e-27
5.06703e-25
6.52633e-23
6.61146e-21
5.34672e-19
3.5095e-17
1.90179e-15
8.44263e-14
2.9815e-12
7.58983e-11
1.19469e-09
6.46701e-09
0.999639
0.999773
0.999812
0.999812
0.999604
0.999504
0.999741
0.999812
0.999905
0.999854
0.999856
0.999812
1
1
1
1
0.924367
0.966261
0.980032
0.985929
0.100907
0.137652
0.185243
0.239938
1.1971e-12
1.1971e-12
1.1971e-12
1.1971e-12
2.56208e-07
1.38759e-07
7.37243e-08
1.1971e-12
3.21453e-06
7.26007e-06
7.26306e-06
7.25998e-06
4.53974e-08
3.80573e-07
5.02072e-07
3.67081e-07
1.1971e-12
1.1971e-12
1.1971e-12
1.1971e-12
2.12821e-11
3.08081e-12
1.1971e-12
8.84019e-10
3.67512e-11
1.95019e-11
9.53307e-12
2.54805e-11
1.35602e-11
1.14022e-11
9.25639e-12
8.11129e-12
2.52323e-12
2.2749e-12
2.54576e-12
2.40623e-12
3.9368e-13
3.68789e-13
3.79989e-13
3.99038e-13
4.58845e-14
4.5946e-14
4.8417e-14
5.40345e-14
4.08304e-15
4.49917e-15
5.13369e-15
6.23664e-15
3.15051e-16
3.86912e-16
5.03486e-16
7.07737e-16
3.09819e-17
4.86995e-17
8.15654e-17
1.42725e-16
1.32413e-17
2.55289e-17
4.97735e-17
9.70852e-17
1.07695e-17
2.11612e-17
4.1909e-17
8.26683e-17
7.95991e-18
1.57963e-17
3.17041e-17
6.35221e-17
3.73822e-18
7.54164e-18
1.54913e-17
3.20379e-17
1.19814e-18
2.41795e-18
4.9715e-18
1.0413e-17
2.96738e-19
5.97266e-19
1.27335e-18
3.01323e-18
1.11286e-19
2.84988e-19
1.11738e-18
5.70189e-18
1.02744e-18
4.6671e-18
2.90177e-17
1.6897e-16
2.78672e-17
1.38881e-16
8.73503e-16
5.02951e-15
5.95909e-16
3.1095e-15
1.95664e-14
1.11368e-13
9.89706e-15
5.22304e-14
3.23368e-13
1.79145e-12
1.2947e-13
6.65552e-13
3.88683e-12
2.01039e-11
1.32477e-12
6.43652e-12
3.28377e-11
1.45128e-10
1.06444e-11
4.84587e-11
2.04401e-10
8.48189e-10
6.46792e-11
3.11774e-10
2.06773e-09
2.34824e-08
3.10292e-10
2.69355e-09
2.4538e-08
5.2853e-08
9.81908e-10
1.45819e-08
6.07358e-08
8.21399e-08
2.0719e-09
4.2776e-08
1.60205e-07
1.13698e-07
4.58459e-09
3.63895e-08
3.49739e-07
5.28483e-07
1.59665e-08
2.13073e-08
4.55894e-07
1.01155e-06
1.86528e-08
6.30535e-08
4.5971e-07
7.37571e-07
1.67145e-08
6.28963e-07
1.36616e-06
1.36616e-06
0.203871
0.0629181
0.328351
0.88084
0.883602
0.275553
0.00532346
5.81388e-06
2.0759e-09
4.78117e-10
4.59862e-10
2.62121e-10
2.10128e-10
2.33476e-10
2.10449e-10
3.15276e-10
8.16291e-09
3.84239e-27
0.703406
0.916865
0.927433
1
1
1
0.435105
0.0100519
3.81389e-06
8.63463e-10
1.41476e-10
1.64215e-10
1.24523e-10
7.64957e-11
7.7308e-11
4.38208e-11
1.33129e-09
1.70891e-08
-4.1288e-28
0.67289
0.99986
0.999999
0.999999
1
1
0.484851
0.0109417
2.54806e-06
3.08771e-10
4.78769e-11
5.83002e-11
4.66887e-11
3.91645e-11
4.3822e-11
4.3822e-11
7.53331e-09
1.70895e-08
-3.94047e-27
0.718488
0.999995
0.999971
0.999984
0.999998
1
0.563951
0.0177541
2.7685e-16
7.61065e-11
3.65127e-11
3.64305e-11
3.93113e-11
6.79349e-11
4.3822e-11
1.24809e-09
1.26452e-08
9.23983e-09
1.10558e-20
0.814714
0.990764
0.995974
0.998688
0.999809
1
0.855019
0.0972811
2.76753e-16
2.49589e-11
2.65852e-10
2.4922e-10
1.36869e-10
2.88493e-10
4.01925e-10
5.15553e-10
1.05997e-08
3.00784e-16
0.0282595
0.878991
0.372359
0.634366
0.827117
0.958725
0.996536
0.999725
0.461935
2.76849e-16
2.19622e-12
5.14928e-10
3.38611e-10
2.86689e-10
6.55514e-10
7.58917e-10
7.57361e-10
1.8982e-09
2.98179e-16
0.21024
0.936188
1.1971e-12
1.1971e-12
0.0426219
0.284745
0.842021
0.999721
0.968316
0.257398
1.21557e-12
6.4042e-11
1.43547e-10
2.3321e-10
6.02479e-10
6.60626e-10
5.10032e-10
9.97746e-10
3.00784e-16
0.459034
0.979682
1.1971e-12
1.1971e-12
1.1971e-12
1.1971e-12
0.0950834
0.618754
0.968314
0.928414
0.36539
2.7681e-16
2.76825e-16
2.7681e-16
1.09033e-10
1.01808e-10
7.56375e-12
7.57141e-12
0.0131726
0.721609
0.990927
4.50609e-06
1.1971e-12
1.24651e-06
1.48898e-06
8.0783e-07
0.0346785
0.435987
0.90477
0.901883
0.544919
0.246441
0.0284711
3.01917e-16
2.99417e-16
3.01919e-16
0.0844377
0.532181
0.981126
0.994836
3.67074e-07
1.52266e-05
3.59546e-05
2.54167e-05
8.07863e-07
1.78397e-10
0.00794867
0.269141
0.644902
0.837627
0.837628
0.70134
0.594503
0.613266
0.732515
0.896318
0.990273
0.994836
0.994836
8.35577e-06
3.59546e-05
3.59546e-05
1.72686e-05
1.24342e-07
1.78397e-10
1.78397e-10
0.00572504
0.108745
0.423935
0.626528
0.764602
0.770739
0.770732
0.770734
0.816225
0.918381
0.975895
0.994625
3.65868e-07
8.10747e-06
8.50898e-06
1.61437e-06
5.86602e-10
6.1485e-10
4.76687e-05
0.00241942
0.00984462
0.0421875
0.119689
0.17548
0.177933
0.161516
0.148967
0.151889
0.315282
0.844741
0.994836
7.42998e-10
3.05057e-09
1.84552e-09
2.72055e-09
1.40672e-09
4.53628e-08
8.697e-06
0.000190241
0.0270825
0.322561
0.522102
0.504359
0.379965
0.171755
0.0904074
0.0904068
0.432836
0.916797
0.994836
6.62723e-12
1.82639e-11
5.77816e-10
2.40422e-09
2.19873e-09
2.37891e-08
1.03338e-06
2.06032e-05
0.00176244
0.0820288
0.60627
0.893886
0.89393
0.868565
0.626408
0.561092
0.853891
0.985407
0.965827
1.7555e-12
5.90626e-12
2.26317e-10
1.81883e-09
2.49011e-09
6.83136e-09
7.09845e-08
1.76089e-06
0.000329213
0.00430462
0.0310836
0.275254
0.662008
0.884376
0.987205
0.987205
0.990108
0.990181
0.954874
3.77883e-13
6.22586e-13
3.01207e-11
6.1694e-10
1.7012e-09
1.23923e-09
8.59074e-09
4.08677e-05
0.000197131
3.84079e-10
3.84079e-10
3.84079e-10
3.84079e-10
0.185908
0.678119
0.926811
0.977981
0.990181
0.956442
6.70595e-14
1.1964e-13
2.85584e-12
1.10436e-10
6.60428e-10
4.73412e-10
1.84088e-10
9.843e-06
6.45934e-05
2.518e-06
1.33376e-05
8.84126e-06
3.84079e-10
3.84079e-10
0.00571675
0.415253
0.795275
0.829152
0.978883
1.07027e-14
3.20618e-14
3.79929e-13
1.86966e-11
1.70552e-10
2.3555e-10
1.84092e-10
4.2777e-07
1.39631e-08
7.12907e-07
7.50615e-05
4.54636e-05
3.84079e-10
1.27166e-06
0.00251725
0.0803654
0.562167
0.816763
0.978883
2.7869e-15
2.21042e-14
1.99426e-13
3.23301e-12
5.08175e-11
1.37745e-10
1.8409e-10
4.91355e-10
1.92199e-10
1.92196e-10
3.38229e-05
3.95178e-05
8.53955e-06
6.17094e-07
0.000226663
0.0375897
0.399098
0.737586
0.922605
3.47845e-15
2.56428e-14
4.26823e-13
2.21658e-12
2.76352e-11
1.08462e-10
2.23243e-10
2.2362e-10
1.92196e-10
1.92199e-10
1.94689e-07
1.21156e-06
1.92835e-07
1.56092e-08
6.63729e-05
0.0103825
0.126604
0.295761
0.298801
2.21715e-14
7.35634e-14
1.21104e-12
7.12678e-12
3.03932e-11
1.02999e-10
2.65787e-10
5.02881e-10
7.41854e-10
6.99758e-10
6.40154e-10
3.96872e-10
2.37026e-10
2.37026e-10
1.06942e-06
0.000347068
0.0196066
0.120016
0.170281
1.44042e-14
1.06462e-13
1.02758e-12
8.50413e-12
4.0395e-11
1.12576e-10
2.60838e-10
7.9882e-10
1.24873e-09
1.24872e-09
4.91175e-10
2.37026e-10
2.37026e-10
2.37026e-10
2.37026e-10
4.34431e-05
0.00359378
0.0367435
0.160064
8.28652e-15
9.51078e-14
5.40589e-13
5.5077e-12
3.47324e-11
1.27195e-10
2.86335e-10
6.64891e-10
1.05791e-09
8.16515e-10
4.35109e-10
8.96261e-09
1.30801e-08
5.87769e-09
2.37026e-10
0.000216215
0.000248822
2.34631e-05
0.185816
2.48291e-15
4.76629e-14
2.49573e-13
1.56742e-12
1.36776e-11
1.09877e-10
3.87994e-10
6.53602e-10
5.41639e-10
3.39588e-10
6.23517e-09
1.22327e-07
1.34317e-07
2.75593e-08
2.37026e-10
7.08433e-05
9.50744e-10
2.34635e-05
0.201438
9.80936e-16
2.06118e-14
1.27262e-13
7.42904e-13
3.45213e-12
5.46077e-11
2.36607e-10
4.99804e-10
3.40422e-10
3.40457e-10
8.93881e-08
1.39285e-07
1.39292e-07
2.49989e-08
2.8108e-10
4.38666e-09
9.50734e-10
2.58745e-28
0.201422
1.43334e-15
3.68986e-14
1.91367e-13
7.48417e-13
6.49191e-12
3.39134e-11
7.09053e-11
4.48252e-10
3.40437e-10
3.39588e-10
9.4021e-08
1.30015e-07
4.67364e-08
4.94157e-09
5.62812e-09
3.1992e-09
7.53112e-10
2.37054e-14
0.189038
4.61376e-15
1.02087e-13
8.30533e-13
1.38535e-12
3.54977e-11
1.45107e-10
9.75996e-11
9.76001e-11
2.18976e-09
1.52953e-08
3.36816e-08
1.98203e-08
2.58975e-09
2.55995e-09
2.72133e-08
2.55745e-09
5.5419e-11
5.1749e-30
0.132856
2.17626e-14
2.35825e-13
1.76486e-12
4.38324e-12
1.35389e-11
8.06556e-11
1.12555e-10
3.44471e-10
7.17328e-09
1.66622e-08
7.43026e-09
3.51079e-09
2.49101e-09
4.66308e-07
9.47382e-10
2.2617e-08
4.77271e-07
2.37054e-14
0.102767
2.2792e-13
1.44771e-12
1.17918e-11
3.76823e-11
2.89256e-11
2.50113e-11
4.66439e-10
4.0983e-09
9.1034e-09
8.825e-09
5.18814e-09
3.51075e-09
2.76041e-06
8.16626e-07
9.43077e-10
2.80462e-07
0.000343088
0.00472401
0.186985
2.44034e-12
1.38103e-11
9.20197e-11
1.79296e-10
2.69292e-10
2.4919e-11
2.50113e-11
2.4919e-11
6.57397e-09
5.26294e-09
5.18809e-09
2.06821e-06
4.12799e-06
1.2426e-06
0.000120417
0.0035598
0.0229415
0.0599476
0.228772
1.75934e-11
1.38615e-10
5.16893e-10
3.87336e-10
2.69297e-10
7.47114e-08
1.32267e-07
1.32193e-07
2.70302e-08
2.92185e-09
1.96448e-08
4.44074e-06
4.12835e-06
1.1956e-06
0.000266563
0.0222223
0.0949199
0.161172
0.214333
7.31771e-11
2.12097e-09
4.56054e-09
3.19961e-09
3.70209e-08
4.27716e-08
5.21589e-08
5.19784e-08
1.43724e-08
2.92143e-09
1.86006e-07
4.43864e-06
1.78679e-06
1.19554e-06
0.000292737
0.0168656
0.0896276
0.248717
0.0890181
1.06446e-09
2.3193e-08
2.8941e-08
1.2981e-08
5.32183e-09
3.03214e-09
2.92143e-09
2.92185e-09
2.92143e-09
2.92185e-09
2.09323e-07
4.28598e-06
1.05614e-06
1.17443e-05
0.000136087
6.13028e-08
0.000516297
0.248743
0.107107
3.61381e-08
3.71083e-08
2.89411e-08
8.22322e-09
3.04538e-09
3.03285e-09
6.89914e-05
1.09853e-05
1.42997e-06
8.55016e-08
2.35187e-07
8.04884e-07
1.05728e-06
1.28706e-05
1.24741e-05
6.12916e-08
3.27398e-11
0.185286
0.418883
5.97856e-08
3.0529e-08
6.36901e-09
5.0787e-07
3.04551e-09
0.000109116
0.000183164
0.000156404
1.93696e-05
8.5817e-08
1.09852e-07
7.51342e-09
7.3523e-07
1.28828e-05
6.71407e-07
8.11125e-07
3.27398e-11
0.118734
0.465675
5.565e-08
3.37137e-10
1.66e-08
1.69887e-05
0.000139385
0.000183164
0.000183164
0.000183164
1.77337e-05
2.49348e-10
3.7765e-08
2.16209e-09
2.7884e-07
7.3363e-06
5.88888e-07
8.19875e-07
3.27398e-11
0.101576
0.465675
1.40782e-08
3.33422e-10
2.9521e-08
5.47586e-05
0.000183164
0.000183164
0.000183164
0.000170048
3.64786e-11
2.49494e-10
3.58236e-09
1.76472e-09
4.53359e-08
7.85883e-08
9.29711e-08
5.90305e-07
3.27398e-11
0.0433838
0.440912
1.33504e-08
3.59687e-10
2.01694e-07
1.18013e-05
9.81447e-05
0.000166102
0.000114052
2.89581e-05
3.64786e-11
3.64786e-11
3.64786e-11
3.64786e-11
3.64786e-11
1.99012e-09
2.70966e-07
2.71245e-07
5.81247e-05
0.010895
0.423139
1.4202e-07
3.59559e-10
9.29561e-10
9.28597e-10
1.40632e-06
8.11004e-06
4.76068e-06
1.05319e-06
3.35332e-07
4.47653e-06
1.19129e-05
1.95813e-05
7.92189e-06
1.7766e-06
2.15206e-06
2.15005e-06
9.87308e-07
2.15853e-25
0.342323
1.00668e-06
4.56669e-07
1.16025e-06
1.35197e-06
4.29712e-07
2.1302e-09
2.15085e-09
1.29831e-06
1.69333e-05
2.51625e-05
2.51625e-05
2.51623e-05
2.40895e-05
3.85078e-06
3.8021e-07
6.25426e-12
-3.28025e-27
-7.3224e-29
0.342275
9.78237e-07
3.55281e-06
1.01879e-05
1.01839e-05
1.01879e-05
6.30887e-06
4.71701e-07
7.57896e-07
1.57488e-05
2.51625e-05
2.51623e-05
2.01861e-05
6.85191e-06
2.1539e-06
7.41956e-08
2.56651e-08
1.06899e-08
-2.01203e-27
0.303486
1.30416e-06
3.04227e-07
1.58585e-07
1.87228e-06
6.75897e-06
1.029e-05
1.05385e-05
8.95665e-06
2.5015e-06
4.75608e-06
6.46559e-06
1.90559e-06
1.41895e-07
4.17852e-08
4.86833e-11
1.56066e-31
-6.34948e-31
-3.62895e-25
0.0933614
)
;

boundaryField
{
    leftWall
    {
        type            zeroGradient;
    }
    rightWall
    {
        type            zeroGradient;
    }
    lowerWall
    {
        type            zeroGradient;
    }
    atmosphere
    {
        type            inletOutlet;
        inletValue      uniform 0;
        value           nonuniform List<scalar> 
46
(
0
0
0
0
0
0
0
0
0
0
0
0
0
0
0
0
0
0
0
0
7.58983e-11
1.19469e-09
6.46701e-09
1.67145e-08
6.28963e-07
1.36616e-06
1.36616e-06
1.30416e-06
0
0
0
0
0
1.05385e-05
8.95665e-06
2.5015e-06
4.75608e-06
6.46559e-06
1.90559e-06
1.41895e-07
4.17852e-08
0
0
0
0
0.0933614
)
;
    }
    defaultFaces
    {
        type            empty;
    }
}


// ************************************************************************* //
