/*--------------------------------*- C++ -*----------------------------------*\
| =========                 |                                                 |
| \\      /  F ield         | OpenFOAM: The Open Source CFD Toolbox           |
|  \\    /   O peration     | Version:  2012                                  |
|   \\  /    A nd           | Website:  www.openfoam.com                      |
|    \\/     M anipulation  |                                                 |
\*---------------------------------------------------------------------------*/
FoamFile
{
    version     2.0;
    format      ascii;
    class       volScalarField;
    location    "0.6";
    object      alpha.water;
}
// * * * * * * * * * * * * * * * * * * * * * * * * * * * * * * * * * * * * * //

dimensions      [0 0 0 0 0 0 0];


internalField   nonuniform List<scalar> 
2268
(
1
1
1
1
1
1
1
1
1
1
1
1
1
1
1
1
1
0.999556
0.951793
0.917203
0.97484
0.99868
0.99868
1
1
1
1
1
1
1
1
1
1
1
1
1
1
1
1
1
1
0.99113
0.917261
0.93734
0.997613
0.99868
1
1
1
1
1
1
1
1
1
1
1
1
1
1
1
1
1
1
1
0.979775
0.928303
0.945029
0.997037
1
1
1
1
1
1
1
1
1
1
1
1
1
1
1
1
1
1
1
1
0.928336
0.928639
0.993161
1
1
1
1
1
1
1
1
1
1
1
1
1
1
1
1
1
1
1
1
0.974374
0.987807
0.999002
1
1
1
1
1
1
1
1
1
1
1
1
1
1
1
1
1
1
1
1
1
0.999998
0.999993
1
1
1
0.999999
0.999998
0.999998
1
1
1
1
1
1
1
1
1
1
1
1
1
1
1
1
0.999909
1
0.999367
0.983676
0.967996
0.967599
0.980922
0.999743
0.999991
0.999998
1
1
1
1
1
1
1
1
1
1
1
1
1
0.999909
0.290937
0.418823
0.96422
0.999972
0.502102
0.349295
0.481875
0.741035
0.742369
0.741989
0.7702
0.787194
0.809268
0.836491
0.861091
0.875838
0.881464
0.882418
0.772385
0.290937
0.683463
0.999972
0.999972
0.878114
0.349295
0.616487
0.641884
0.211865
0.173057
0.23761
0.292191
0.384378
0.492615
0.611877
0.744685
0.865145
0.898794
0.898874
0.51082
0.999771
0.999972
0.999972
0.999972
0.552085
0.563577
0.220568
0.000533639
0.00053389
0.000532547
0.000546266
0.000631596
0.000719194
0.00130828
0.0954256
0.387989
0.838442
0.899011
0.92203
0.99997
0.999971
0.999972
0.999971
0.748231
0.436162
0.00140267
0.000548746
0.000532523
0.000751536
0.00095639
0.000825351
0.000590542
0.000498617
0.00130641
0.0175638
0.557663
0.899011
0.999763
0.999745
0.999965
0.999971
0.999969
0.731398
0.160377
0.000775798
0.000685785
0.000750423
0.0014893
0.00148617
0.00126731
0.00051107
0.000280334
0.000448896
0.00245691
0.341857
0.899011
0.999788
0.999692
0.999958
0.999969
0.999943
0.705407
0.224631
0.00240195
0.000775803
0.000882177
0.00148837
0.0014906
0.00148444
0.000996355
0.000234376
0.000134369
0.000587569
0.247479
0.89901
0.9998
0.999867
0.999958
0.99996
0.999728
0.822623
0.589596
0.00132466
0.000785391
0.00147435
0.00149032
0.001289
0.00142363
0.00126796
0.000190001
3.83896e-05
0.000115047
0.210558
0.899008
0.999788
0.999955
0.99996
0.999958
0.943055
0.873669
0.70574
0.000690079
0.00086677
0.00116253
0.000259543
1.6432e-05
0.000130818
0.000425952
0.000523796
2.30782e-05
1.67619e-05
0.183707
0.898997
0.712604
0.566917
0.445274
0.428755
0.454545
0.540514
0.677362
0.794486
0.877845
0.944388
0.990803
1
1
1
1
1
1
1
1
1
1
1
0.999935
7.86758e-09
7.83345e-09
1.33525e-06
0.00290492
0.0459437
0.095483
0.12043
0.139861
0.186661
0.27294
0.396727
0.54216
0.691033
0.864536
0.999131
1
1
1
1
1
1
1
0.999988
7.86755e-09
5.98059e-08
1.94883e-12
1.64998e-12
1.85451e-12
3.96431e-12
4.44922e-11
3.40324e-10
4.27289e-10
6.17448e-10
5.56936e-09
0.00463177
0.0586396
0.160305
0.32397
0.51162
0.658745
0.835386
0.967528
0.989203
0.99413
0.999024
0.999983
7.61478e-09
2.4354e-08
6.33108e-11
1.64998e-12
1.86694e-12
1.96502e-12
2.59776e-12
5.20241e-12
4.21002e-10
4.28236e-10
6.17448e-10
2.32757e-09
4.61351e-09
3.66871e-08
2.88425e-07
0.0157165
0.0467249
0.0960694
0.215283
0.340411
0.434753
0.539562
0.649925
2.17467e-10
1.69606e-09
8.73072e-12
6.86505e-12
2.39917e-11
2.30824e-12
2.32902e-12
2.8334e-12
1.23007e-09
4.76612e-09
3.63335e-09
3.73353e-09
3.79026e-09
4.61352e-09
3.66871e-08
2.88425e-07
6.47897e-07
7.46457e-07
8.42801e-07
1.22479e-06
2.87964e-06
1.13392e-05
0.0252156
1.13127e-14
5.11135e-14
3.72016e-13
1.04238e-12
5.13067e-12
5.97701e-12
5.80189e-12
4.48212e-12
2.44915e-08
1.77386e-07
2.03386e-07
5.13584e-08
4.61352e-09
6.02735e-06
3.60761e-05
3.61595e-05
8.57595e-06
1.39568e-05
4.08735e-05
1.97901e-05
1.82548e-05
1.84275e-05
1.84274e-05
1.60327e-15
4.40495e-15
2.18994e-14
7.67668e-13
5.72194e-12
1.35211e-11
1.73406e-11
5.98377e-12
2.26279e-08
2.32805e-07
2.32826e-07
1.99058e-07
5.53528e-09
2.23211e-08
3.67527e-07
1.31772e-05
3.51618e-09
2.23102e-05
0.000193472
0.00021504
0.000195726
9.07576e-05
2.04384e-05
2.63786e-17
9.78067e-17
1.39268e-14
6.27914e-13
5.5816e-12
1.60118e-11
2.21965e-11
1.66234e-11
3.54435e-09
1.13403e-07
2.32754e-07
1.11974e-07
9.01258e-08
3.55547e-07
1.08711e-09
1.0889e-09
1.0889e-09
3.51618e-09
7.75063e-05
0.000279214
0.000279227
0.000279217
8.04518e-05
3.55934e-19
3.50264e-18
4.13431e-15
3.17026e-13
3.7724e-12
1.30393e-11
2.10746e-11
2.26216e-11
3.07777e-11
9.30837e-09
5.40051e-08
6.77863e-11
1.19749e-07
4.88717e-07
9.96486e-08
1.08711e-09
1.1042e-07
6.48214e-07
9.91957e-08
3.67804e-05
0.000279214
0.000279228
9.01129e-05
1.79034e-20
3.70719e-19
9.07963e-16
1.09399e-13
1.57418e-12
6.24451e-12
1.28171e-11
2.21201e-11
4.46849e-11
4.47579e-11
4.54405e-11
4.87143e-11
1.85242e-08
2.04867e-07
1.10518e-08
1.2196e-09
3.26675e-07
8.6627e-07
5.44872e-08
5.99222e-06
0.000211627
0.000279211
0.00010588
1.00136e-20
4.545e-20
1.75391e-16
3.00285e-14
4.79325e-13
1.94267e-12
4.50974e-12
1.23283e-11
3.56503e-11
4.51355e-11
4.54123e-11
5.12551e-11
1.64857e-11
1.64857e-11
1.64638e-11
6.5878e-10
1.30316e-07
2.64003e-07
3.87498e-08
5.44872e-08
0.000107089
0.000278007
0.00018369
6.67475e-21
7.24141e-21
2.87558e-17
6.63493e-15
1.17812e-13
4.89787e-13
1.18221e-12
3.88053e-12
2.132e-11
6.11358e-11
7.2974e-11
7.01891e-11
5.93926e-11
2.19375e-10
2.82725e-10
3.89501e-12
7.67332e-13
4.5881e-12
3.34299e-10
2.22841e-08
0.00010081
0.00027598
0.000275666
2.17302e-21
8.90413e-22
4.44794e-18
1.21787e-15
2.35653e-14
1.05448e-13
2.94423e-13
1.1066e-12
7.68464e-12
3.89765e-11
6.95448e-11
7.18093e-11
8.29049e-11
1.63761e-10
5.28226e-11
1.32743e-12
5.98361e-14
2.59637e-13
1.02052e-11
4.26227e-10
8.24571e-06
0.000115084
0.000154215
8.45944e-23
8.33024e-23
7.16621e-19
1.92052e-16
3.86613e-15
1.94167e-14
7.55515e-14
3.4638e-13
1.66794e-12
1.14192e-11
3.77907e-11
5.0255e-11
2.24176e-11
1.07896e-11
1.56061e-12
3.03055e-13
5.60266e-14
9.04673e-14
2.75791e-13
1.02043e-11
3.14984e-10
4.55425e-07
1.5165e-06
-6.93981e-22
1.65062e-23
1.26289e-19
2.59165e-17
5.19505e-16
3.07216e-15
1.98391e-14
1.14837e-13
3.9897e-13
2.02012e-12
9.82902e-12
1.68137e-11
1.34829e-11
5.80501e-12
1.01995e-12
6.44485e-14
4.51136e-14
3.25902e-13
1.34612e-12
7.99335e-12
7.97717e-11
2.20091e-10
2.83697e-09
-1.06904e-21
2.59266e-24
2.34616e-20
2.94599e-18
5.67602e-17
4.2899e-16
5.07957e-15
3.64311e-14
1.16661e-13
3.35189e-13
1.20173e-12
2.21864e-12
2.6248e-12
1.35782e-12
2.45751e-13
1.59859e-14
1.41925e-14
2.14127e-13
1.21506e-12
5.86466e-12
2.44579e-11
3.30804e-11
1.98971e-10
-1.07302e-21
-9.27909e-23
3.91447e-21
2.80977e-19
5.01873e-18
5.77571e-17
1.1632e-15
9.63451e-15
3.42819e-14
8.22506e-14
1.52927e-13
1.88795e-13
1.72884e-13
7.769e-14
1.43175e-14
1.41225e-15
1.1267e-15
3.75628e-14
5.11859e-13
3.63426e-12
1.69928e-11
5.38557e-11
9.49625e-11
-8.63826e-22
-1.5641e-22
5.33732e-22
2.35343e-20
3.56148e-19
8.23211e-18
2.33107e-16
2.10315e-15
8.80028e-15
2.20181e-14
3.2035e-14
3.2074e-14
1.97942e-14
6.77725e-15
1.10723e-15
1.49604e-16
1.36234e-16
5.07112e-15
1.35789e-13
1.77122e-12
1.06776e-11
4.14387e-11
1.22696e-10
-5.87151e-22
-9.28307e-23
5.10641e-23
1.80426e-21
2.06284e-20
1.19759e-18
4.06586e-17
3.93103e-16
1.83611e-15
5.0037e-15
7.49854e-15
7.58526e-15
4.63868e-15
1.51843e-15
2.35854e-16
3.21809e-17
3.49046e-17
1.18919e-15
3.10231e-14
5.77058e-13
5.23473e-12
2.43329e-11
7.95271e-11
-3.42848e-22
-3.84332e-23
1.25157e-24
1.07547e-22
1.0676e-21
1.51337e-19
5.84984e-18
6.29034e-17
3.15584e-16
9.0436e-16
1.43581e-15
1.50781e-15
9.78437e-16
3.31467e-16
5.37316e-17
7.67233e-18
8.75118e-18
3.19139e-16
7.9411e-15
1.42259e-13
1.68906e-12
1.11439e-11
4.30011e-11
-1.73076e-22
-1.23522e-23
-1.33637e-24
2.99886e-24
5.21231e-23
1.4037e-20
6.47761e-19
8.3351e-18
4.48929e-17
1.24905e-16
1.92174e-16
2.0293e-16
1.37657e-16
5.00628e-17
8.96374e-18
1.52004e-18
1.81409e-18
7.42521e-17
2.18599e-15
3.70021e-14
4.15356e-13
3.88766e-12
2.55285e-11
-7.57641e-23
-3.05426e-24
-9.59263e-25
1.39093e-26
2.09943e-24
8.35343e-22
5.12395e-20
8.54572e-19
5.0879e-18
1.30699e-17
1.78672e-17
1.82557e-17
1.23521e-17
4.75492e-18
9.57223e-19
2.2718e-19
3.26684e-19
1.40626e-17
5.52113e-16
1.1649e-14
1.29223e-13
1.30009e-12
1.47314e-11
-2.88487e-23
-5.67448e-25
-2.94466e-25
-2.4975e-27
5.77259e-26
2.88803e-23
2.67414e-21
6.08046e-20
4.12107e-19
1.01157e-18
1.2595e-18
1.24068e-18
8.18895e-19
3.27178e-19
7.57957e-20
2.78233e-20
5.59723e-20
2.45915e-18
1.2862e-16
4.03681e-15
5.52132e-14
5.23857e-13
6.93912e-12
-9.59909e-24
-7.9051e-26
-5.96725e-26
-5.0017e-27
1.20598e-27
5.7186e-25
8.33759e-23
2.58409e-21
2.0362e-20
5.29177e-20
6.68565e-20
6.65877e-20
4.5278e-20
1.92531e-20
5.27903e-21
2.78387e-21
1.0176e-20
4.67488e-19
3.10701e-17
1.44931e-15
2.6538e-14
2.52672e-13
2.73718e-12
-2.80822e-24
-8.13494e-27
-9.00377e-27
-1.40315e-27
2.24821e-29
8.20085e-27
1.48487e-24
5.77495e-23
5.18169e-22
1.53003e-21
2.13542e-21
2.20902e-21
1.56992e-21
7.01824e-22
2.36801e-22
1.75289e-22
2.01552e-21
1.00336e-19
8.03938e-18
5.19902e-16
1.26927e-14
1.29189e-13
1.05299e-12
-7.27439e-25
-6.5157e-28
-1.08043e-27
-2.44343e-28
3.88813e-31
1.13704e-28
1.76339e-26
6.94412e-25
6.45593e-24
2.07864e-23
3.21309e-23
3.48566e-23
2.5878e-23
1.22411e-23
5.8113e-24
1.09812e-23
4.0626e-22
2.26176e-20
2.0474e-18
1.73127e-16
5.52888e-15
6.22916e-14
4.2192e-13
-1.68059e-25
-6.08312e-29
-1.0784e-28
-3.21074e-29
6.16837e-33
1.61312e-30
2.0114e-28
7.05406e-27
6.32075e-26
2.03828e-25
3.34089e-25
3.8635e-25
3.11467e-25
1.82515e-25
1.39817e-25
1.36757e-24
7.87028e-23
4.84669e-21
4.64117e-19
4.88673e-17
2.03517e-15
2.61944e-14
1.65814e-13
-3.48536e-26
-2.55178e-29
-9.24704e-30
-3.45217e-30
6.66651e-35
2.22883e-32
2.5309e-30
8.38524e-29
7.44913e-28
2.43325e-27
4.21593e-27
5.28286e-27
4.7307e-27
3.58212e-27
6.11832e-27
2.29524e-25
1.40553e-23
9.15517e-22
8.81079e-20
1.10561e-17
6.12944e-16
9.37976e-15
5.89305e-14
-6.5248e-27
-1.0354e-29
-6.9769e-31
-3.17601e-31
1.02282e-37
1.69634e-34
3.17751e-32
1.08212e-30
9.79705e-30
3.2831e-29
5.90615e-29
7.72712e-29
7.39835e-29
6.59249e-29
5.02546e-28
3.642e-26
2.22674e-24
1.46321e-22
1.35914e-20
1.93375e-18
1.47228e-16
2.83236e-15
1.8403e-14
-1.10706e-27
-2.94552e-30
-4.73131e-32
-2.572e-32
-9.28191e-36
2.11219e-37
1.03022e-34
1.21416e-32
1.23947e-31
4.38939e-31
8.15055e-31
1.08414e-30
1.0719e-30
1.53011e-30
6.0802e-29
4.93523e-27
3.04749e-25
1.92905e-23
1.65309e-21
2.48158e-19
2.65427e-17
6.87462e-16
4.99558e-15
-1.70686e-28
-6.38984e-31
-3.13291e-33
-1.86945e-33
-5.03117e-36
-3.7223e-35
1.5624e-37
1.89805e-35
3.91943e-34
3.78909e-33
1.01842e-32
1.50912e-32
1.5521e-32
8.41616e-32
7.63162e-30
5.79336e-28
3.64038e-26
2.14273e-24
1.5813e-22
2.24895e-20
3.38992e-18
1.26572e-16
1.11433e-15
-2.39542e-29
-1.1448e-31
-2.56681e-34
-1.23687e-34
-1.39951e-36
-1.57936e-35
-8.83324e-35
-2.13045e-34
6.64479e-37
4.90062e-36
1.79757e-35
1.78804e-34
3.48248e-34
7.88312e-33
8.17629e-31
6.17556e-29
3.99412e-27
2.197e-25
1.31939e-23
1.52611e-21
3.09339e-19
1.75646e-17
1.9396e-16
-3.06236e-30
-1.77073e-32
-3.15015e-35
-7.53804e-36
-2.69798e-37
-3.65531e-36
-2.87632e-35
-1.26946e-34
-3.2813e-34
-3.77588e-34
-6.31414e-35
1.28367e-37
2.6352e-35
7.60561e-34
7.59472e-32
6.21087e-30
4.20659e-28
2.28096e-26
1.15947e-24
9.67678e-23
2.2945e-20
1.98479e-18
2.71141e-17
-3.5656e-31
-2.40834e-33
-4.63536e-36
-4.28404e-37
-4.08506e-38
-6.14121e-37
-5.64311e-36
-3.08142e-35
-1.01163e-34
-1.53043e-34
-6.05722e-35
-3.49569e-36
1.62494e-36
6.40919e-35
6.61819e-33
5.8907e-31
4.22927e-29
2.39087e-27
1.16365e-25
7.56055e-24
1.78261e-21
2.09796e-19
3.33216e-18
-3.77763e-32
-2.89004e-34
-6.40213e-37
-2.30047e-38
-5.16889e-39
-8.30638e-38
-8.35879e-37
-5.12865e-36
-1.87237e-35
-3.21249e-35
-1.58786e-35
-1.95888e-36
4.14791e-38
4.67222e-36
5.28355e-34
5.02684e-32
3.83943e-30
2.32143e-28
1.21167e-26
7.60678e-25
1.7263e-22
2.26213e-20
3.77566e-19
-3.6388e-33
-3.06676e-35
-7.6382e-38
-1.18406e-39
-5.67481e-40
-9.54905e-39
-1.01928e-37
-6.72382e-37
-2.61743e-36
-4.84063e-36
-2.72318e-36
-4.56708e-37
7.98319e-40
2.83262e-37
3.47386e-35
3.54421e-33
2.8687e-31
1.87654e-29
1.12427e-27
8.08626e-26
1.81975e-23
2.28834e-21
3.72242e-20
-3.18689e-34
-2.90203e-36
-7.84542e-39
-5.91839e-41
-5.54002e-41
-9.63134e-40
-1.07054e-38
-7.41411e-38
-3.01534e-37
-5.863e-37
-3.60718e-37
-7.28564e-38
5.09738e-41
1.29031e-38
1.6848e-36
1.8414e-34
1.57951e-32
1.15137e-30
8.14589e-29
7.0417e-27
1.52568e-24
1.76342e-22
2.81821e-21
-2.54044e-35
-2.4573e-37
-6.96865e-40
-2.90264e-42
-4.88109e-42
-8.69347e-41
-9.95323e-40
-7.13741e-39
-2.99847e-38
-6.0486e-38
-3.9768e-38
-9.11787e-39
1.88687e-42
3.99835e-40
5.50392e-38
6.28434e-36
5.82137e-34
4.93054e-32
4.10956e-30
4.01924e-28
7.65159e-26
8.42439e-24
1.44152e-22
-1.84864e-36
-1.85998e-38
-5.39816e-41
-1.41167e-43
-3.92303e-43
-7.11914e-42
-8.34222e-41
-6.14478e-40
-2.64911e-39
-5.50188e-39
-3.81008e-39
-9.57304e-40
4.08595e-44
8.10046e-42
1.14967e-39
1.34086e-37
1.3657e-35
1.34766e-33
1.28022e-31
1.30292e-29
2.00886e-27
2.19327e-25
4.48492e-24
-1.23534e-37
-1.26284e-39
-3.68668e-42
-6.92046e-45
-2.89914e-44
-5.34137e-43
-6.38325e-42
-4.8088e-41
-2.11978e-40
-4.51292e-40
-3.26055e-40
-8.7759e-41
6.37603e-46
1.2295e-43
1.72702e-41
2.01488e-39
2.16086e-37
2.29407e-35
2.32623e-33
2.38771e-31
3.09096e-29
3.24993e-27
8.01354e-26
-7.64872e-39
-7.78483e-41
-2.24954e-43
-3.4088e-46
-1.98418e-45
-3.70197e-44
-4.50313e-43
-3.46124e-42
-1.5571e-41
-3.38957e-41
-2.53856e-41
-7.20655e-42
9.06151e-48
1.72797e-45
2.37838e-43
2.73462e-41
2.87324e-39
2.96986e-37
3.00497e-35
3.13097e-33
3.83968e-31
3.6577e-29
9.16807e-28
-4.43173e-40
-4.31484e-42
-1.19917e-44
-1.61533e-47
-1.26549e-46
-2.38538e-45
-2.9504e-44
-2.31063e-43
-1.06015e-42
-2.35683e-42
-1.82174e-42
-5.39514e-43
6.40495e-50
1.23702e-47
1.70134e-45
1.93733e-43
1.97741e-41
1.96275e-39
1.96247e-37
2.08929e-35
2.49855e-33
2.15549e-31
5.00711e-30
0.999953
0.999975
0.999975
0.999975
0.999981
0.999974
0.999975
0.999975
0.999974
0.999965
0.999961
0.999951
0.732789
0.759675
0.740305
0.703561
0.101964
0.107956
0.064452
0.0485525
1.88777e-05
2.06067e-05
3.22775e-05
0.000100609
1.9328e-05
1.9328e-05
3.18595e-05
3.72715e-05
1.9328e-05
1.9844e-05
0.000124425
0.000204188
0.00014776
0.000193788
0.000204241
0.000204277
7.88712e-05
0.000145371
0.000202561
0.000195726
7.66997e-05
6.63641e-05
9.02524e-05
9.05265e-05
0.000264586
4.79591e-05
5.64829e-05
0.000101743
2.56501e-05
2.02625e-05
0.000121642
0.000183965
3.39691e-07
1.11991e-05
9.07637e-05
0.000131975
7.30332e-08
4.89063e-06
8.62866e-06
3.1794e-06
2.39817e-08
7.01236e-08
2.47543e-08
5.59278e-08
4.55287e-10
6.84493e-10
1.64404e-09
3.75821e-09
2.02231e-10
2.85479e-10
4.58232e-10
6.37006e-10
1.67905e-10
2.73009e-10
3.78315e-10
4.8321e-10
9.73827e-11
1.86936e-10
3.33171e-10
5.31948e-10
7.75904e-11
1.56125e-10
2.73052e-10
4.53532e-10
6.81709e-11
1.68463e-10
2.84457e-10
4.32817e-10
4.71923e-11
1.74841e-10
3.95346e-10
5.55457e-10
2.18805e-11
1.43174e-10
4.18261e-10
7.93267e-10
7.22616e-12
7.85346e-11
3.42478e-10
7.59454e-10
2.17398e-12
2.94609e-11
1.90939e-10
5.38266e-10
6.92292e-13
9.2226e-12
7.40815e-11
2.51616e-10
2.0768e-13
2.43762e-12
2.26697e-11
9.0294e-11
5.4069e-14
4.27387e-13
4.7973e-12
2.73193e-11
1.32649e-14
4.99724e-14
5.18323e-13
6.04709e-12
3.05541e-15
7.1746e-15
3.27416e-14
7.87712e-13
5.70509e-16
1.35903e-15
3.18963e-15
3.83363e-14
8.09633e-17
2.20696e-16
5.22782e-16
7.35652e-16
9.52904e-18
2.76279e-17
8.80749e-17
3.91762e-17
1.03444e-18
3.31582e-18
1.38372e-17
5.57098e-18
1.02492e-19
4.43773e-19
2.19935e-18
8.47548e-19
8.32207e-21
5.75395e-20
3.18176e-19
1.32716e-19
4.74984e-22
4.82895e-21
3.41858e-20
5.4736e-20
1.71673e-23
2.11777e-22
2.47677e-21
2.24284e-20
3.71324e-25
5.44543e-24
1.01884e-22
3.15732e-21
4.75233e-27
8.49839e-26
1.82049e-24
7.24956e-23
3.09139e-29
4.99704e-28
9.7673e-27
2.13319e-25
0.999971
0.99997
0.999968
0.982626
0.567839
0.686723
0.226269
0.000401318
0.00106048
0.000512136
1.62451e-05
1.61259e-05
1.61252e-05
1.61328e-05
0.000187586
1.64751e-05
1.69477e-05
0.162214
0.898939
0.99997
0.999968
0.999962
0.644172
0.211993
0.37168
0.00039892
0.000323838
0.00105113
0.000808982
1.61259e-05
1.61241e-05
1.61259e-05
1.61245e-05
1.61332e-05
1.61852e-05
1.63196e-05
0.152098
0.894809
0.999923
0.999953
0.999864
0.253525
0.173473
0.0370477
0.000200371
0.000116448
0.00101865
0.000976443
0.000142611
1.61259e-05
1.61247e-05
1.61332e-05
1.61852e-05
1.63196e-05
1.68699e-05
0.215345
0.895308
0.754997
0.984184
0.909916
0.0731354
0.0109996
0.00106887
8.67159e-05
4.63458e-05
0.000176016
0.000274176
0.000105449
3.60293e-05
1.61538e-05
1.62102e-05
1.64674e-05
1.68675e-05
1.93116e-05
0.319157
0.899462
0.271318
0.680006
0.61477
0.00177961
0.00105692
0.000292379
4.67366e-05
3.2882e-05
2.34729e-05
1.8753e-05
1.74946e-05
1.72976e-05
1.64649e-05
1.66492e-05
1.78319e-05
1.93017e-05
3.07255e-05
0.426047
0.902013
0.00597967
0.261467
0.397392
0.00152161
0.000981528
0.000604091
3.27767e-05
2.347e-05
1.8753e-05
1.72753e-05
1.71308e-05
1.72753e-05
1.70802e-05
1.91183e-05
2.43913e-05
3.06639e-05
9.13485e-05
0.52914
0.904304
0.000100593
0.0428017
0.514974
0.609743
0.170808
5.36946e-05
2.50547e-05
1.90272e-05
1.74242e-05
1.71753e-05
1.72413e-05
1.69231e-05
2.16286e-05
3.56465e-05
6.42316e-05
8.99605e-05
0.000507879
0.677592
0.905772
0.000140058
0.000206403
0.166024
0.620472
0.611556
0.0676399
5.37829e-05
2.4982e-05
1.9026e-05
1.74239e-05
1.71519e-05
1.77153e-05
7.60092e-05
0.000168297
0.000346433
0.000507492
0.153256
0.844544
0.906053
0.000135406
0.000108054
0.000206405
0.155023
0.562608
0.555128
0.411968
0.184811
3.92299e-05
2.05529e-05
1.74011e-05
0.000169378
0.000730923
0.018761
0.118923
0.218004
0.517743
0.905976
0.905976
0.000105425
0.000105425
0.000108054
0.000192262
0.131248
0.523072
0.572013
0.563212
0.370758
0.175782
0.058283
0.118659
0.280847
0.468361
0.708774
0.703647
0.590541
0.613836
0.853334
0.00011879
0.000139088
0.00014109
0.000155283
0.000213361
0.0608541
0.270351
0.484807
0.624081
0.653729
0.575628
0.702599
0.725986
0.735247
0.739235
0.501431
0.252701
0.252965
0.657415
0.000182504
0.000146526
0.000149186
0.000161402
0.000222664
0.0069407
0.34198
0.699151
0.699459
0.699459
0.699459
0.692901
0.682854
0.739889
0.761912
0.500748
0.253196
0.252757
0.757855
0.000223108
0.000236928
0.000177312
7.51308e-05
2.44462e-05
0.0794408
0.570482
0.697621
0.699151
0.567778
0.233712
0.145622
0.161894
0.407521
0.789856
0.920491
0.56163
0.367689
0.930063
0.00016735
0.000256768
0.000258148
9.24065e-05
2.70883e-06
2.44462e-05
0.000235871
0.0455092
0.0832224
0.0330707
0.0195866
0.0194298
0.0212403
0.0247258
0.264864
0.925149
0.925279
0.891733
0.930063
4.33786e-05
0.000228649
0.000232884
2.53693e-05
9.16361e-08
3.71993e-06
0.000554777
0.000831097
0.000193228
0.00112575
0.0291259
0.0825709
0.0908728
0.0305571
0.104549
0.802792
0.9253
0.925299
0.892385
7.50671e-07
5.17615e-05
9.66799e-05
1.84053e-07
1.17539e-08
4.88848e-06
5.05046e-05
1.53884e-05
1.36342e-05
6.8051e-05
0.0199823
0.155668
0.155668
0.112805
0.156506
0.642968
0.925279
0.925198
0.788398
1.48447e-08
1.50622e-07
1.49727e-07
2.46983e-07
9.89752e-09
3.0289e-08
6.29815e-08
2.54806e-07
1.08048e-06
3.56878e-06
1.77119e-05
0.0197784
0.146969
0.184678
0.18456
0.318425
0.828706
0.924792
0.796558
1.39056e-09
8.60292e-09
8.00653e-09
1.7707e-08
1.74754e-09
1.58161e-09
3.59505e-09
1.80393e-08
7.23185e-08
1.4796e-06
3.56883e-06
1.56089e-05
2.62902e-05
0.042021
0.0194398
0.000626699
0.185246
0.783276
0.832166
7.07265e-10
1.15732e-09
1.56793e-09
1.42057e-09
1.50659e-09
1.52537e-09
1.58156e-09
2.49649e-09
7.27018e-09
1.25919e-06
2.40918e-05
2.46948e-05
2.53687e-05
2.62902e-05
3.18124e-05
8.36335e-05
0.000626647
0.250071
0.699807
8.19697e-10
8.73785e-10
1.2987e-09
1.39194e-09
2.41231e-09
1.5534e-09
1.54272e-09
1.64441e-09
2.55111e-09
6.95418e-09
2.05903e-05
2.52462e-05
2.55864e-05
2.634e-05
2.60421e-05
4.10707e-05
0.00220378
0.0634271
0.193992
8.08789e-10
1.14484e-09
1.29104e-09
1.2009e-09
9.87307e-10
4.81058e-08
3.96046e-08
2.55111e-09
3.36632e-09
3.59815e-09
1.2567e-05
8.55808e-05
3.28651e-05
2.56975e-05
2.45584e-05
2.07854e-05
5.47648e-05
0.0458887
0.165157
6.80789e-10
9.62639e-10
1.04463e-09
8.76737e-10
8.71575e-10
3.12502e-08
4.03556e-07
4.06317e-07
1.20815e-08
5.50732e-09
6.62137e-09
8.39034e-05
7.26242e-05
3.39864e-05
2.2572e-05
1.30297e-05
2.38041e-05
0.0486248
0.273364
7.50633e-10
9.82853e-10
9.86026e-10
9.18284e-10
8.71575e-10
8.71575e-10
3.34079e-07
4.72214e-07
4.48615e-07
1.15004e-08
1.74104e-08
4.10556e-05
6.88093e-05
5.9646e-05
3.92649e-05
1.12706e-05
1.30243e-05
0.0184631
0.273364
1.1236e-09
1.32496e-09
1.22482e-09
8.35728e-10
9.89469e-10
3.28744e-09
3.64502e-09
4.72816e-07
4.97585e-07
3.48594e-07
5.83921e-08
8.5864e-08
2.87729e-05
5.94149e-05
5.74038e-05
9.80201e-06
1.12685e-05
0.00877659
0.139028
1.262e-09
1.4263e-09
1.29784e-09
6.10611e-10
1.95363e-09
7.53697e-08
8.61246e-08
1.33291e-07
4.97585e-07
4.95797e-07
1.95319e-07
7.92268e-08
3.07597e-06
5.30949e-05
2.03938e-05
7.74644e-06
0.00165879
0.00723412
0.007381
1.03262e-09
1.33103e-09
1.12356e-09
5.99709e-10
5.20503e-09
6.57117e-08
5.85354e-08
1.24981e-08
1.88191e-07
4.94009e-07
4.69543e-07
6.66856e-08
3.59923e-08
3.1004e-05
5.3449e-06
4.06946e-06
0.00774323
0.0122066
0.0258153
5.66144e-10
8.42592e-10
7.35174e-10
5.9656e-10
2.57351e-09
7.95374e-09
1.22499e-08
1.23633e-08
1.24981e-08
2.06535e-07
3.24483e-07
6.2276e-08
3.29123e-08
9.52475e-06
9.31987e-07
1.14144e-06
0.00961636
0.00980727
0.0976588
2.4336e-10
4.06412e-10
4.76995e-10
5.7339e-10
1.54207e-10
4.63684e-11
1.4276e-07
4.90363e-07
3.00272e-07
3.78154e-08
3.30188e-08
3.2795e-08
3.27867e-08
3.52781e-06
9.09463e-07
0.000681105
0.00315711
0.00544159
0.0977326
1.23057e-10
2.74402e-10
4.01037e-10
3.71333e-10
2.64113e-11
2.50457e-11
4.9325e-07
9.03168e-07
2.15439e-07
3.30188e-08
3.2795e-08
3.27717e-08
3.27726e-08
1.57104e-06
9.58908e-07
0.00127692
1.34636e-06
0.00170552
0.0977484
7.1756e-11
2.1454e-10
3.12405e-10
1.61355e-10
1.81142e-11
1.94315e-11
2.1507e-06
1.31452e-06
4.74525e-08
3.28007e-08
3.27717e-08
3.27702e-08
3.27717e-08
5.08965e-06
9.00319e-07
0.000100247
9.68413e-08
0.000262135
0.0977477
3.59134e-11
1.37152e-10
1.81535e-10
7.04469e-11
1.7692e-11
5.99372e-07
3.52747e-06
2.28735e-06
5.73422e-08
3.27798e-08
3.27702e-08
3.27702e-08
9.64448e-06
1.09482e-05
6.33303e-07
4.00714e-08
5.60975e-08
7.22932e-08
0.0977055
1.05794e-11
5.15464e-11
6.76653e-11
2.91033e-11
1.759e-11
7.65793e-07
3.52747e-06
3.3537e-06
7.04149e-08
3.27703e-08
3.277e-08
3.27702e-08
1.74559e-05
1.11284e-05
1.97291e-07
3.18689e-08
7.06425e-07
7.92561e-08
0.0865132
1.30725e-12
8.42112e-12
1.65573e-11
1.79964e-11
1.75368e-11
6.92132e-08
3.09421e-06
3.47743e-06
7.80849e-08
3.28303e-08
3.27703e-08
2.66142e-06
1.74587e-05
1.12219e-05
1.73243e-07
1.58487e-08
3.09496e-06
8.83326e-08
0.0570953
8.35872e-14
6.57569e-13
4.46069e-12
1.93828e-11
1.74965e-11
6.92141e-12
2.99708e-07
3.47743e-06
2.79344e-06
3.29455e-08
5.41109e-08
6.35216e-06
1.09664e-05
2.38278e-06
1.13925e-09
8.28545e-09
2.66262e-06
1.20653e-07
0.113434
7.97248e-15
6.00162e-14
1.1544e-12
1.56459e-11
1.79725e-11
6.88912e-12
6.92141e-12
7.0065e-07
3.26272e-06
2.48905e-06
4.98178e-07
1.54588e-06
4.17231e-07
1.13925e-09
8.95043e-10
2.07267e-08
2.50407e-08
1.59605e-07
0.140492
1.1766e-15
8.77605e-15
3.2112e-13
6.14018e-12
7.08355e-12
5.71921e-12
1.00162e-09
3.49681e-10
3.88687e-07
1.17535e-06
1.17573e-06
9.85571e-07
1.71304e-07
6.82554e-10
8.09369e-10
8.09369e-10
0.000195377
1.25503e-06
0.140805
1.81371e-16
1.20896e-15
4.90106e-14
5.81138e-13
9.95944e-13
4.94748e-12
4.57164e-11
3.49065e-10
2.23048e-14
1.36736e-15
1.55571e-07
1.28536e-07
5.21118e-08
3.85305e-10
7.29006e-10
8.05294e-10
0.000599416
0.000855633
0.140911
2.2957e-17
1.12149e-16
2.3095e-15
7.96005e-15
1.9699e-13
5.07808e-12
2.25315e-12
3.8657e-12
3.02875e-13
0
-1.0838e-14
-1.45169e-14
-2.86327e-14
-3.96355e-28
1.94018e-12
4.20441e-10
0.000505978
0.000440484
0.140911
1.83546e-18
6.60898e-18
4.00557e-17
2.99642e-17
1.80744e-14
7.34906e-13
2.35086e-13
4.54406e-15
-6.20697e-14
-9.69048e-14
-1.04112e-13
-1.1094e-13
-9.46904e-14
-1.38669e-26
5.41283e-07
1.27231e-09
7.33906e-05
4.67696e-05
0.0940095
7.45159e-20
2.49987e-19
7.79704e-19
8.143e-20
1.76445e-16
4.54368e-15
8.85157e-16
1.05362e-17
-1.47587e-13
-2.20829e-13
-1.91959e-13
-1.455e-13
-6.65291e-14
9.4195e-10
2.31337e-06
5.4258e-07
5.67803e-07
1.30838e-05
0.0741774
1.24043e-21
4.62119e-21
1.4723e-20
-1.11788e-18
-2.60121e-20
5.86589e-19
2.03356e-19
-3.48061e-18
-2.26357e-14
-2.20201e-14
-1.26879e-14
-6.39632e-15
-2.31607e-15
1.08549e-06
1.9987e-06
2.20439e-06
5.3455e-06
-1.62146e-25
0.0178108
5.90635e-24
2.5762e-23
8.60608e-23
-5.53059e-19
-9.47182e-21
-1.47182e-22
-3.84711e-21
-2.48308e-21
-9.22305e-22
-2.35907e-22
-4.79796e-23
-9.61709e-24
-1.66434e-24
2.07945e-05
-6.67715e-26
-1.24899e-26
-2.98266e-27
-8.82242e-27
-3.94848e-28
)
;

boundaryField
{
    leftWall
    {
        type            zeroGradient;
    }
    rightWall
    {
        type            zeroGradient;
    }
    lowerWall
    {
        type            zeroGradient;
    }
    atmosphere
    {
        type            inletOutlet;
        inletValue      uniform 0;
        value           nonuniform List<scalar> 
46
(
-4.43173e-40
-4.31484e-42
-1.19917e-44
-1.61533e-47
-1.26549e-46
-2.38538e-45
-2.9504e-44
-2.31063e-43
-1.06015e-42
-2.35683e-42
-1.82174e-42
-5.39514e-43
6.40495e-50
1.23702e-47
1.70134e-45
1.93733e-43
1.97741e-41
1.96275e-39
1.96247e-37
2.08929e-35
2.49855e-33
2.15549e-31
5.00711e-30
3.09139e-29
4.99704e-28
9.7673e-27
2.13319e-25
5.90635e-24
2.5762e-23
8.60608e-23
0
0
0
0
0
0
0
0
0
0
2.07945e-05
0
0
0
0
-3.94848e-28
)
;
    }
    defaultFaces
    {
        type            empty;
    }
}


// ************************************************************************* //
