/*--------------------------------*- C++ -*----------------------------------*\
| =========                 |                                                 |
| \\      /  F ield         | OpenFOAM: The Open Source CFD Toolbox           |
|  \\    /   O peration     | Version:  2012                                  |
|   \\  /    A nd           | Website:  www.openfoam.com                      |
|    \\/     M anipulation  |                                                 |
\*---------------------------------------------------------------------------*/
FoamFile
{
    version     2.0;
    format      ascii;
    class       surfaceScalarField;
    location    "0.6";
    object      alphaPhi0.water;
}
// * * * * * * * * * * * * * * * * * * * * * * * * * * * * * * * * * * * * * //

dimensions      [0 3 -1 0 0 0 0];
oriented        oriented;


internalField   nonuniform List<scalar> 
4432
(
-3.16057e-06
3.16057e-06
-5.68958e-06
2.52901e-06
-6.02035e-06
3.3077e-07
-4.92878e-06
-1.09157e-06
-2.53542e-06
-2.39335e-06
1.11238e-06
-3.64781e-06
5.2771e-06
-4.16472e-06
8.91198e-06
-3.63488e-06
1.13648e-05
-2.45278e-06
1.25601e-05
-1.19533e-06
1.268e-05
-1.1987e-07
1.19155e-05
7.645e-07
1.04692e-05
1.4462e-06
8.45438e-06
2.01486e-06
5.79747e-06
2.65691e-06
2.24541e-06
3.55206e-06
-2.34924e-06
4.59465e-06
-6.9694e-06
4.67455e-06
-9.50521e-06
3.10568e-06
-1.43188e-05
4.50811e-06
-2.04496e-05
5.17321e-06
-1.60916e-05
-4.35741e-06
-1.60909e-05
-3.6677e-06
6.82827e-06
-5.41834e-06
4.27965e-06
-5.3635e-06
2.75932e-07
-4.43544e-06
-2.01963e-06
-2.32632e-06
-4.50248e-06
1.15476e-06
-7.12888e-06
5.33888e-06
-8.34884e-06
9.02906e-06
-7.32506e-06
1.14922e-05
-4.91592e-06
1.2686e-05
-2.38909e-06
1.29718e-05
-4.05703e-07
1.27238e-05
1.01249e-06
1.21581e-05
2.01189e-06
1.13777e-05
2.79522e-06
1.03756e-05
3.65905e-06
8.88433e-06
5.04334e-06
6.26915e-06
7.20982e-06
1.59806e-06
9.34564e-06
-4.61947e-06
9.80982e-06
-1.10941e-05
1.0676e-05
-1.49167e-05
8.31041e-06
-1.08262e-05
-8.61023e-06
-2.69165e-05
-2.74528e-06
9.57355e-06
-3.97415e-06
5.50853e-06
-4.10284e-06
4.04613e-07
-3.6906e-06
-2.43187e-06
-2.15795e-06
-6.03513e-06
9.8402e-07
-1.02709e-05
5.06354e-06
-1.24284e-05
8.75234e-06
-1.10139e-05
1.11807e-05
-7.34427e-06
1.229e-05
-3.49836e-06
1.2423e-05
-5.38747e-07
1.1965e-05
1.47045e-06
1.12068e-05
2.77015e-06
1.03794e-05
3.62264e-06
9.6884e-06
4.35002e-06
9.3225e-06
5.40924e-06
9.23355e-06
7.29877e-06
8.21906e-06
1.03601e-05
4.90469e-06
1.31242e-05
-3.36777e-07
1.6755e-05
-4.53224e-06
1.2341e-05
-3.46674e-06
-9.45037e-06
-3.02998e-05
-1.36206e-06
1.09356e-05
-1.82071e-06
5.96718e-06
-1.99838e-06
5.82289e-07
-1.81013e-06
-2.62012e-06
-5.31227e-07
-7.31403e-06
2.08902e-06
-1.28911e-05
5.53242e-06
-1.58718e-05
8.64716e-06
-1.41286e-05
1.07038e-05
-9.40095e-06
1.16307e-05
-4.42519e-06
1.16913e-05
-5.99382e-07
1.12114e-05
1.95039e-06
1.04578e-05
3.52371e-06
9.64566e-06
4.43479e-06
8.94959e-06
5.04609e-06
8.55452e-06
5.80432e-06
8.85523e-06
6.99805e-06
9.89973e-06
9.31564e-06
1.06687e-05
1.23552e-05
1.0596e-05
1.68278e-05
8.08601e-06
1.46911e-05
5.01083e-06
-6.30769e-06
-2.51426e-05
5.36663e-07
1.03989e-05
1.37972e-06
5.12412e-06
1.8353e-06
1.26707e-07
2.66302e-06
-3.44785e-06
4.25371e-06
-8.90472e-06
6.29767e-06
-1.49351e-05
8.21268e-06
-1.77868e-05
9.66051e-06
-1.55764e-05
1.05188e-05
-1.02592e-05
1.08572e-05
-4.76355e-06
1.0759e-05
-5.01267e-07
1.03106e-05
2.39881e-06
9.67089e-06
4.16344e-06
9.03403e-06
5.07165e-06
8.54454e-06
5.53558e-06
8.26482e-06
6.08404e-06
8.41074e-06
6.85212e-06
9.55491e-06
8.17148e-06
1.19077e-05
1.00024e-05
1.51683e-05
1.35672e-05
1.57201e-05
1.4353e-05
1.07093e-05
-1.21665e-06
-1.44516e-05
3.0207e-06
7.37824e-06
5.86197e-06
2.28285e-06
8.0117e-06
-2.02302e-06
1.04815e-05
-5.91768e-06
1.27472e-05
-1.11703e-05
1.36521e-05
-1.584e-05
1.31964e-05
-1.73311e-05
1.21781e-05
-1.45581e-05
1.11585e-05
-9.23967e-06
1.03735e-05
-3.97855e-06
9.83423e-06
3.80265e-08
9.3327e-06
2.90034e-06
8.81197e-06
4.68417e-06
8.38467e-06
5.49895e-06
8.16807e-06
5.75218e-06
8.14463e-06
6.10748e-06
8.40019e-06
6.59656e-06
9.30934e-06
7.26233e-06
1.12883e-05
8.02347e-06
1.50087e-05
9.84678e-06
1.74515e-05
1.19102e-05
1.26832e-05
3.54819e-06
-1.77122e-06
5.494e-06
1.88424e-06
1.10956e-05
-3.31869e-06
1.65922e-05
-7.51968e-06
2.11871e-05
-1.05126e-05
2.28895e-05
-1.28728e-05
2.13807e-05
-1.4331e-05
1.82452e-05
-1.41957e-05
1.50932e-05
-1.1406e-05
1.25418e-05
-6.68828e-06
1.06562e-05
-2.09292e-06
9.371e-06
1.32319e-06
8.53241e-06
3.73892e-06
7.9668e-06
5.24977e-06
7.71772e-06
5.74803e-06
7.79951e-06
5.67039e-06
8.03676e-06
5.87024e-06
8.49037e-06
6.14294e-06
9.44922e-06
6.30348e-06
1.09142e-05
6.55848e-06
1.36664e-05
7.09456e-06
1.64055e-05
9.17108e-06
1.39314e-05
6.02235e-06
1.21589e-05
8.28698e-06
-6.40274e-06
1.79892e-05
-1.27826e-05
2.59582e-05
-1.41702e-05
2.93305e-05
-1.2247e-05
2.78205e-05
-9.81045e-06
2.39228e-05
-9.08754e-06
1.95971e-05
-9.74986e-06
1.60323e-05
-7.84139e-06
1.33861e-05
-4.04208e-06
1.15508e-05
-2.57665e-07
1.00126e-05
2.86149e-06
8.6777e-06
5.07377e-06
7.65546e-06
6.272e-06
7.16176e-06
6.24173e-06
7.32757e-06
5.50457e-06
7.73089e-06
5.46692e-06
8.38038e-06
5.49345e-06
9.59086e-06
5.093e-06
1.1131e-05
5.01839e-06
1.30769e-05
5.14862e-06
1.49867e-05
7.26125e-06
1.32085e-05
7.80058e-06
2.53662e-05
-1.47481e-05
1.00056e-05
-3.30311e-05
6.47148e-06
-9.03287e-06
-3.56289e-05
3.97625e-05
-5.09582e-05
3.92229e-05
-2.0626e-05
2.26508e-05
4.12207e-06
-1.04593e-05
4.44689e-05
-7.99233e-05
6.59502e-05
-0.000113113
2.96448e-05
-0.000119243
2.3653e-06
-0.000119434
-2.14876e-06
-0.000119388
-2.74591e-06
-0.000120302
-2.84577e-06
-0.000120091
-4.57336e-06
-0.000115905
-8.28241e-06
-0.000104875
-1.44699e-05
-7.41302e-05
-3.36306e-05
-1.26131e-05
-6.43653e-05
-1.46761e-05
-1.23294e-05
1.75924e-05
-1.76533e-05
8.14413e-06
4.6604e-06
-5.79426e-05
2.81836e-05
-7.44813e-05
3.98717e-05
-6.71797e-05
1.52154e-05
1.63283e-05
-5.46763e-05
9.92084e-05
-6.55636e-05
6.41426e-05
-4.70381e-05
8.01208e-06
-4.63886e-05
-4.81053e-09
-5.30622e-05
-4.31851e-08
-6.4237e-05
-1.88843e-07
-7.91723e-05
-6.57058e-07
-9.46533e-05
-2.05737e-06
-0.000107751
-5.70971e-06
-0.000114893
-1.58531e-05
-8.78541e-05
-6.61443e-05
-2.78522e-05
-0.000124678
-4.27196e-05
-6.33823e-06
5.21667e-05
3.17712e-06
-1.3889e-06
1.96151e-05
-7.43805e-05
4.07253e-05
-9.55915e-05
6.11256e-05
-8.758e-05
1.4591e-05
3.79921e-05
-3.92246e-05
0.000128551
-7.67168e-06
-2.16849e-06
-1.19738e-07
4.51035e-07
-1.50456e-07
1.69136e-08
-2.02172e-07
-5.13794e-10
-3.83364e-07
-1.64516e-08
-1.02407e-06
-2.64799e-08
-2.9118e-06
-1.11987e-07
-8.13219e-06
-4.72812e-07
-3.06818e-05
-4.18342e-06
-7.81285e-05
-3.11508e-05
-3.7657e-05
-0.000178546
-8.03766e-05
-7.5047e-07
6.13263e-05
1.67322e-05
-1.88713e-05
3.38282e-05
-9.14765e-05
5.28413e-05
-0.000114605
6.90888e-05
-0.000103828
2.32641e-05
3.96806e-05
6.13716e-06
7.34377e-05
-4.16017e-07
3.57772e-06
-1.45295e-07
1.60354e-07
-1.84466e-07
4.70461e-08
-2.09613e-07
9.98731e-09
-2.32854e-07
-1.07855e-08
-2.01989e-07
-1.27991e-08
-2.28615e-07
-2.67487e-08
-5.7877e-07
-8.76152e-08
-3.921e-06
-8.24334e-07
-2.92592e-05
-7.94621e-06
-4.49329e-05
-0.000173249
-0.00012531
6.62342e-06
5.47113e-05
2.86612e-05
-4.08876e-05
4.52141e-05
-0.000108028
5.98198e-05
-0.00012921
7.21709e-05
-0.000116179
1.96285e-05
4.2416e-05
1.19129e-07
0.000101881
-8.32355e-08
3.7825e-06
-1.66284e-07
2.5069e-07
-3.19787e-07
1.8381e-07
-3.20138e-07
1.55726e-08
-2.92385e-07
-3.06289e-08
-1.80734e-07
-5.73378e-08
-1.16767e-07
-4.18085e-08
-1.22355e-07
-3.57693e-08
-7.49819e-07
-1.81288e-07
-6.16648e-06
-2.72526e-06
-4.37446e-05
-0.00014204
-0.000169054
1.60478e-05
3.86592e-05
3.98142e-05
-6.46405e-05
5.24585e-05
-0.000120671
6.26621e-05
-0.000139414
7.03198e-05
-0.000123838
1.59289e-05
6.38838e-05
4.73863e-07
0.000211183
-1.74234e-07
4.28386e-06
-2.61494e-07
3.38323e-07
-3.06456e-07
2.60498e-07
-3.07697e-07
2.21272e-08
-2.98748e-07
-3.54099e-08
-2.24404e-07
-1.29169e-07
-7.2892e-08
-1.27891e-07
-5.19808e-08
-3.04275e-08
-1.93511e-07
-4.37617e-08
-1.6848e-06
-1.25114e-06
-3.71125e-05
-0.000110733
-0.000206167
2.88385e-05
9.8143e-06
4.88767e-05
-8.46918e-05
5.4901e-05
-0.000126696
6.20159e-05
-0.00014653
6.33702e-05
-0.000125206
1.8284e-05
0.000103708
-1.03803e-06
0.000312107
-2.84625e-07
2.92506e-06
-4.49867e-07
5.06778e-07
-2.8227e-07
9.5156e-08
-2.87494e-07
3.1738e-08
-3.09276e-07
-1.55199e-08
-3.12052e-07
-1.0633e-07
-1.07347e-07
-2.39784e-07
-1.393e-08
-8.88196e-08
-3.48934e-08
-1.4466e-08
-9.89056e-07
-2.98327e-07
-2.85631e-05
-8.77626e-05
-0.000234729
4.18948e-05
-3.20859e-05
5.3225e-05
-9.60235e-05
5.32573e-05
-0.00012673
5.86406e-05
-0.000151914
5.17459e-05
-0.000120978
1.58534e-05
0.000114228
-1.21015e-06
0.000242929
-2.64396e-07
1.87271e-06
-3.89554e-07
6.43919e-07
-1.65222e-07
3.45298e-08
-1.48913e-08
1.74902e-08
-2.98511e-08
-5.03055e-10
-7.62799e-08
-8.61153e-09
-9.06423e-08
-6.1252e-08
-5.40589e-09
-4.25155e-08
2.00274e-09
-8.2641e-09
-2.91027e-07
-5.08542e-09
-1.98178e-05
-7.19287e-05
-0.000254546
1.64579e-05
-4.5278e-13
2.00925e-05
-6.15049e-09
1.94069e-05
-3.60241e-07
1.62986e-05
-8.1695e-07
1.60106e-05
-1.55193e-06
1.68928e-05
-1.80578e-06
1.76316e-05
-2.74169e-06
1.75971e-05
-2.81475e-06
1.83546e-05
-2.06949e-06
1.99274e-05
-6.30559e-07
2.07557e-05
1.81602e-06
1.98597e-05
5.96971e-06
1.81694e-05
7.96235e-06
1.72348e-05
7.17633e-06
1.75688e-05
5.17051e-06
1.75605e-05
5.47526e-06
1.79716e-05
5.08231e-06
2.01665e-05
2.89817e-06
2.39463e-05
1.23859e-06
2.88901e-05
2.04737e-07
3.63173e-05
-1.65888e-07
4.68979e-05
-2.78005e-06
3.48234e-06
6.87818e-05
1.36606e-13
-7.01261e-13
-6.12474e-09
-2.56183e-11
-3.66887e-07
5.83002e-11
-1.79197e-06
-1.37803e-15
-3.3075e-06
-4.39734e-14
-3.74961e-06
-1.03322e-12
-4.40635e-06
-1.97056e-11
-4.94754e-06
-3.17671e-10
-4.86231e-06
-4.58811e-09
-3.67945e-06
-6.11261e-08
-1.50062e-06
-5.17587e-07
3.32209e-06
-4.99712e-07
1.16544e-05
-4.25811e-07
1.85207e-05
9.7514e-07
2.17036e-05
2.15828e-06
2.03861e-05
6.79285e-06
1.90449e-05
6.42349e-06
2.06713e-05
1.27172e-06
2.40201e-05
-2.11017e-06
2.77799e-05
-3.55506e-06
3.28816e-05
-5.26757e-06
3.83015e-05
-8.2e-06
-9.30503e-06
5.1091e-05
-7.50641e-13
-2.66957e-13
-5.77422e-11
6.92024e-13
-1.2238e-16
5.58005e-13
-1.52899e-15
1.44098e-17
-4.5048e-14
-3.30648e-16
-1.07722e-12
-1.17318e-15
-2.07536e-11
-3.60507e-14
-3.38479e-10
1.19302e-14
-4.92661e-09
-2.06789e-15
-6.60518e-08
-8.7012e-13
-5.83617e-07
-2.16936e-11
-2.06689e-06
-4.42479e-10
-4.09252e-06
-7.8197e-09
-5.0629e-06
-1.18097e-07
-3.75543e-06
-1.19958e-06
2.0042e-06
-1.52494e-06
1.0573e-05
-1.18889e-06
2.21709e-05
-3.91004e-06
2.90435e-05
-4.80296e-06
3.24347e-05
-5.36451e-06
3.7398e-05
-8.96517e-06
4.37548e-05
-1.39814e-05
-1.62703e-05
5.07226e-05
-4.49435e-13
8.53309e-15
-7.35319e-13
-6.66217e-14
-1.01668e-17
1.51042e-14
-3.1449e-17
2.15213e-17
-8.08776e-17
6.58359e-18
-1.07121e-15
9.13912e-17
-3.72332e-14
1.25164e-16
-2.64731e-14
6.80801e-16
-4.50801e-14
1.46144e-15
-9.26469e-13
-4.1104e-15
-2.26195e-11
-2.06333e-14
-4.64685e-10
-3.16208e-13
-8.28061e-09
-3.57034e-12
-1.26191e-07
-1.87072e-10
-1.32421e-06
-1.54511e-09
-2.37364e-06
-1.73948e-09
-3.37206e-06
-3.4268e-10
-4.75505e-06
-5.29251e-10
-2.79327e-06
-1.54856e-09
1.33175e-06
-6.88478e-09
6.8033e-06
-1.3158e-07
1.39392e-05
-1.87415e-06
-5.93654e-06
2.03259e-05
-3.13526e-14
-4.57612e-17
-7.03201e-15
2.5077e-17
5.1807e-15
2.8784e-16
5.45058e-17
1.41188e-16
2.29928e-17
1.97916e-16
2.38966e-18
5.64185e-17
1.04518e-17
5.55469e-17
4.00049e-16
7.00857e-17
2.54538e-14
1.88225e-14
4.44088e-14
1.05887e-13
-4.60068e-15
2.43626e-13
-1.26602e-13
2.35068e-14
-3.33527e-12
-1.43015e-13
-3.04099e-11
-1.59787e-10
-4.99287e-11
-1.52533e-09
-5.70012e-11
-1.72185e-09
-8.35374e-11
-2.87565e-10
-1.50463e-10
-4.27077e-10
-4.45637e-10
-1.22443e-09
-7.00274e-09
-3.17768e-10
-1.37902e-07
-8.0596e-10
-2.0117e-06
-5.07583e-10
-3.0802e-09
-6.85205e-06
-5.0698e-17
3.89412e-19
-3.18372e-17
-2.22867e-18
1.03274e-16
2.08817e-18
8.25629e-18
1.30878e-17
-1.38171e-17
8.39434e-17
4.56972e-18
1.68347e-16
2.14272e-17
1.56618e-16
-2.39204e-16
2.72817e-16
-4.47374e-13
2.07572e-13
-8.6884e-13
6.20823e-14
2.31559e-13
-3.78994e-13
4.01603e-13
-2.43344e-13
8.91364e-13
-1.75598e-14
-3.21661e-10
-2.88587e-12
-6.34183e-10
-1.91502e-10
-6.20091e-10
-7.24718e-10
-1.47925e-10
-3.84377e-11
-1.40541e-09
-4.58218e-10
-7.66539e-10
-3.66569e-09
-4.7173e-10
-1.16854e-09
-5.68193e-10
-8.16835e-10
-1.12469e-09
-2.59521e-11
-1.25238e-11
-4.26747e-09
-8.27716e-20
9.51235e-21
-9.36363e-20
7.71152e-21
7.50172e-19
3.47745e-19
2.09021e-18
1.22707e-17
-1.3256e-18
1.03503e-16
1.30892e-17
2.92102e-16
3.53648e-17
3.14413e-16
3.45485e-16
9.48473e-17
-3.22719e-13
2.10491e-13
-1.55047e-12
1.35739e-12
-2.45766e-12
5.92633e-13
-3.41717e-13
1.03347e-13
-3.4665e-13
-1.11875e-13
4.84808e-13
-2.96281e-12
-2.53376e-10
-1.05692e-12
3.33815e-11
-2.45704e-14
-4.45116e-12
-9.66446e-13
-1.85725e-09
-3.39534e-11
-2.55954e-09
-6.44053e-09
-1.8016e-09
-8.31013e-09
2.0532e-09
-1.03266e-08
4.25656e-10
-2.7467e-09
1.38939e-09
-1.13489e-10
-4.35013e-22
1.28672e-22
-1.41602e-21
9.29296e-23
5.5493e-21
1.30972e-19
2.27594e-19
9.70783e-18
-1.07121e-18
1.00127e-16
7.96459e-18
2.94283e-16
1.37264e-17
4.01201e-16
7.06334e-16
3.4614e-16
-3.98977e-14
4.2604e-15
-1.12184e-12
1.27902e-13
-1.11193e-12
6.57546e-13
-2.00152e-13
3.72186e-16
-1.86828e-12
-2.10749e-13
-3.47522e-13
-2.59278e-12
-1.31049e-14
-1.4845e-12
-9.73338e-14
-3.35357e-14
-2.96158e-13
-8.60816e-13
-1.96525e-11
-1.49584e-11
-2.88119e-09
-3.58306e-10
-3.94746e-09
-7.21577e-09
3.32907e-11
-1.4279e-08
6.58624e-09
-9.27329e-09
1.90432e-09
1.91839e-09
-5.86593e-24
2.58963e-24
-1.27939e-22
8.34741e-24
-1.26489e-20
2.80457e-20
-4.89511e-19
3.51845e-18
-2.64815e-18
5.07634e-17
3.4016e-18
1.96077e-16
1.68511e-17
3.5156e-16
2.501e-17
3.73425e-16
5.53079e-18
4.98576e-16
-1.18098e-13
8.98688e-17
1.94246e-14
2.32407e-16
1.60929e-14
1.59436e-16
-4.1119e-12
-7.40121e-14
-8.40917e-13
-1.07841e-12
-3.32997e-13
-2.68781e-13
-4.19155e-13
-4.05428e-14
-5.86891e-12
-3.92374e-12
-8.17616e-13
-2.66395e-11
-3.65023e-10
-9.30773e-12
-3.96769e-09
-1.10903e-09
-3.0952e-09
-1.51234e-08
4.34742e-11
-1.23831e-08
-4.37767e-11
3.69239e-09
-9.6429e-26
3.94051e-25
-1.59359e-23
1.66578e-24
-7.58577e-21
5.14559e-21
-3.73715e-19
9.51204e-19
-2.34639e-18
1.53346e-17
-3.22605e-18
6.34922e-17
1.73945e-18
1.47687e-16
1.23785e-17
3.5028e-16
1.06476e-17
6.26106e-16
-1.70611e-16
3.85586e-16
-1.38804e-16
2.5207e-16
-1.6733e-16
2.4421e-16
-1.15985e-12
2.02345e-16
-5.13745e-13
-8.95238e-17
2.02455e-14
-7.36774e-15
-3.58153e-13
-1.47049e-14
-1.67324e-11
-3.14926e-12
7.81448e-12
-4.99296e-12
-8.56162e-12
-2.1442e-12
-1.69682e-09
-6.56861e-11
-7.06696e-09
-9.971e-09
-5.84858e-09
-1.35724e-08
-4.92214e-10
-1.97527e-09
-1.54499e-26
2.67866e-25
-1.94186e-24
2.78523e-25
-2.42619e-21
8.80048e-22
-1.58583e-19
2.19676e-19
-1.16511e-18
3.7871e-18
-2.80315e-18
1.50943e-17
-5.85791e-18
3.61379e-17
-2.11355e-17
1.24589e-16
-3.63295e-17
4.40874e-16
-6.72592e-17
5.74808e-16
-1.5044e-16
4.55436e-16
-1.23487e-16
3.56565e-16
-1.33098e-16
3.11272e-17
-3.21261e-16
-8.21879e-17
-7.33087e-15
-5.15861e-16
-3.5126e-13
-8.80426e-17
-5.51546e-12
-1.73478e-14
-1.54968e-13
-6.98523e-13
-8.6107e-12
-7.91203e-13
-1.50248e-11
-6.84846e-11
-1.31536e-08
-5.65095e-09
-1.67116e-08
-9.9324e-09
1.19234e-09
-1.4122e-08
-6.67767e-27
1.74079e-25
-2.1515e-25
4.187e-26
-5.39109e-22
1.33916e-22
-4.76739e-20
4.16097e-20
-4.08247e-19
7.95611e-19
-1.16063e-18
3.32143e-18
-3.10232e-18
8.27625e-18
-2.02059e-17
2.92646e-17
-1.34785e-16
2.15938e-16
-2.52741e-16
8.25052e-16
-3.5337e-16
8.41427e-16
-4.38298e-16
6.66828e-16
-1.80952e-15
5.20586e-16
-4.041e-15
1.05188e-15
-7.37695e-17
7.29525e-16
-6.28257e-17
3.02377e-19
-1.7638e-14
-1.95167e-17
-7.13977e-13
-3.32833e-15
-1.46796e-12
-1.04332e-13
-6.41394e-11
-9.70575e-12
-1.76161e-08
-9.80128e-10
-2.42792e-08
-1.87351e-09
5.8995e-09
-2.70245e-08
-1.03286e-27
2.89088e-26
-2.5193e-26
5.37652e-27
-9.85732e-23
2.11685e-23
-1.06432e-20
6.76393e-21
-1.02059e-19
1.37525e-19
-3.55123e-19
6.44579e-19
-1.15296e-18
2.10273e-18
-8.0558e-18
8.65383e-18
-1.02218e-16
5.6026e-17
-3.73898e-16
3.90911e-16
-5.11358e-16
8.81419e-16
-7.11008e-16
8.40901e-16
-2.098e-15
8.37034e-16
-1.4632e-15
1.03392e-15
-4.37735e-17
7.29719e-17
-1.7924e-17
3.01648e-18
-4.09668e-17
4.91013e-19
-3.48614e-15
-6.7659e-19
-1.12123e-13
-1.57285e-15
-9.77849e-12
-2.80734e-13
-3.87807e-09
-2.41862e-11
-1.39082e-08
-3.06391e-11
4.06101e-10
-7.28577e-09
-4.49239e-29
4.23582e-27
-3.68488e-27
8.25562e-28
-1.61051e-23
3.6793e-24
-1.81555e-21
9.627e-22
-1.82429e-20
1.96399e-20
-8.96527e-20
1.0802e-19
-4.58159e-19
5.72913e-19
-2.34344e-18
3.00302e-18
-2.45297e-17
1.06728e-17
-2.07977e-16
7.14544e-17
-4.51777e-16
3.46546e-16
-3.50217e-16
5.23849e-16
-2.31495e-16
1.91474e-16
-5.03459e-17
7.19146e-17
-1.14374e-17
1.14215e-17
-1.6472e-18
1.1177e-18
-2.23125e-18
4.695e-19
-1.76062e-17
1.84259e-18
-1.71662e-15
3.49418e-18
-2.86674e-13
-1.65455e-15
-2.45075e-11
-9.77923e-14
-2.66792e-10
-2.9318e-12
-7.41354e-12
-1.34781e-10
-3.00368e-29
-2.71954e-26
-7.67268e-28
1.6934e-28
-2.37113e-24
6.94731e-25
-2.3894e-22
1.16737e-22
-2.454e-21
2.29627e-21
-1.97407e-20
1.58325e-20
-1.88165e-19
1.57206e-19
-8.39342e-19
1.05547e-18
-4.49123e-18
3.08979e-18
-4.9693e-17
1.0636e-17
-1.67801e-16
5.56592e-17
-1.95447e-16
1.10114e-16
-1.33886e-16
1.37524e-16
-3.42479e-17
5.38454e-17
-1.90155e-18
1.0528e-17
-1.32439e-18
3.73524e-19
-3.47615e-18
5.90514e-19
-1.95542e-17
5.05302e-18
-1.23445e-16
2.35286e-17
-9.24149e-16
1.27762e-16
-3.82616e-14
-5.8203e-16
-3.03886e-12
-3.66426e-14
-7.31512e-13
-1.10259e-11
-4.64846e-30
-4.22322e-26
-2.13404e-28
1.76773e-28
-3.09534e-25
1.28194e-25
-2.37757e-23
1.18366e-23
-2.64513e-22
2.17725e-22
-3.97654e-21
2.15916e-21
-6.52805e-20
4.00583e-20
-3.33439e-19
3.26602e-19
-1.13869e-18
1.0355e-18
-6.39941e-18
2.24582e-18
-2.05175e-17
5.19476e-18
-3.33994e-17
8.43759e-18
-3.01687e-17
1.18401e-17
-8.18043e-18
6.93855e-18
-3.83452e-19
1.31548e-18
-4.13812e-19
9.68189e-20
-1.61864e-18
1.22381e-19
-1.57915e-17
3.43961e-18
-9.9378e-17
2.64711e-17
-7.28105e-16
1.3777e-16
-2.41807e-15
6.87912e-16
-4.58573e-14
1.55318e-15
-4.76773e-14
-7.97399e-13
2.92487e-29
-4.27276e-26
-4.37653e-27
-1.18598e-27
-3.5578e-26
1.94331e-26
-1.73629e-24
1.02337e-24
-2.47516e-23
1.66981e-23
-7.5446e-22
3.0784e-22
-1.64583e-20
8.72824e-21
-1.07802e-19
7.88514e-20
-3.88258e-19
3.09137e-19
-1.14034e-18
6.99985e-19
-2.05193e-18
9.42125e-19
-2.43804e-18
9.34643e-19
-1.83005e-18
6.42946e-19
-4.74338e-19
2.44424e-19
-3.41966e-20
4.44637e-20
-3.36542e-20
6.31106e-21
-1.32894e-19
7.52384e-21
-3.81158e-18
3.40676e-19
-4.79842e-17
9.13469e-18
-3.46756e-16
1.00644e-16
-1.76476e-15
6.03577e-16
-3.97225e-15
2.85046e-15
7.51665e-15
-3.8763e-14
5.07353e-29
-3.46777e-26
-6.02217e-28
-2.11217e-27
-3.7946e-27
2.19473e-27
-9.9586e-26
8.057e-26
-2.15857e-24
1.04466e-24
-1.34606e-22
4.7359e-23
-3.23068e-21
1.63817e-21
-2.63717e-20
1.57285e-20
-1.17991e-19
7.37767e-20
-2.77574e-19
1.94848e-19
-3.34653e-19
2.62787e-19
-3.25828e-19
2.50861e-19
-1.61011e-19
1.43341e-19
-3.4506e-20
4.70237e-20
-3.20206e-21
7.67116e-21
-3.48016e-21
1.18859e-21
-1.16284e-20
1.72596e-21
-5.35935e-19
6.58398e-20
-1.46619e-17
2.24406e-18
-1.55963e-16
4.62445e-17
-8.45102e-16
3.96125e-16
-3.36363e-15
2.00176e-15
7.95663e-15
-9.24007e-15
3.06899e-29
-2.37649e-26
-5.92072e-29
-1.32108e-27
-3.69926e-28
1.26391e-28
-5.69987e-27
5.54178e-27
-1.92573e-25
5.74994e-26
-2.14009e-23
6.83152e-24
-5.48433e-22
2.60349e-22
-5.03676e-21
2.71024e-21
-2.54846e-20
1.37746e-20
-6.20094e-20
4.02682e-20
-7.46313e-20
6.35438e-20
-7.09692e-20
6.69997e-20
-3.27385e-20
4.2996e-20
-6.46476e-21
1.45933e-20
-5.82849e-22
2.39256e-21
-6.70416e-22
3.60125e-22
-2.27603e-21
5.51238e-22
-8.5922e-20
1.99511e-20
-2.80594e-18
5.49658e-19
-4.88106e-17
1.24788e-17
-3.4542e-16
1.64718e-16
-1.37561e-15
1.03807e-15
4.1876e-15
-4.01759e-15
1.25672e-29
-1.39888e-26
-1.86929e-30
-5.74819e-28
-2.1217e-29
3.63308e-29
-3.06555e-28
2.37034e-28
-1.72019e-26
3.12314e-27
-2.70519e-24
7.49044e-25
-7.90004e-23
3.22965e-23
-7.94745e-22
3.9199e-22
-4.20942e-21
2.11313e-21
-1.08086e-20
6.24754e-21
-1.37838e-20
1.03445e-20
-1.34081e-20
1.14292e-20
-6.38348e-21
8.05266e-21
-1.29378e-21
2.9749e-21
-1.20669e-22
5.38279e-22
-1.3607e-22
8.90804e-23
-4.84067e-22
1.34039e-22
-1.77723e-20
5.42497e-21
-4.73615e-19
1.51548e-19
-9.11815e-18
2.87215e-18
-9.55157e-17
4.10746e-17
-4.76469e-16
3.90783e-16
2.12495e-15
-1.3677e-15
3.82351e-30
-7.11537e-27
1.36964e-30
-1.93577e-28
-7.28171e-30
-2.82692e-29
-9.1701e-30
3.50874e-30
-1.2177e-27
1.5731e-28
-2.43234e-25
5.32327e-26
-9.0952e-24
2.8921e-24
-1.0644e-22
4.47835e-23
-5.54765e-22
2.62649e-22
-1.33319e-21
7.15362e-22
-1.69911e-21
1.06947e-21
-1.67053e-21
1.15794e-21
-8.42146e-22
8.36634e-22
-1.84741e-22
3.37636e-22
-2.03814e-23
6.99427e-23
-2.24948e-23
1.5379e-23
-7.917e-23
2.4988e-23
-3.62563e-21
1.14065e-21
-9.55578e-20
4.12631e-20
-1.38153e-18
8.10485e-19
-1.55208e-17
9.85202e-18
-1.30669e-16
1.16929e-16
1.20675e-15
-5.62381e-16
8.48163e-31
-3.13578e-27
9.3443e-31
-4.99915e-29
-9.91174e-32
-2.09218e-29
-1.06416e-31
1.47246e-30
-5.41818e-29
5.82368e-30
-1.43224e-26
2.23727e-27
-7.70199e-25
1.7352e-25
-1.1489e-23
3.66845e-24
-5.77651e-23
2.43921e-23
-1.16217e-22
6.07151e-23
-1.3823e-22
7.8136e-23
-1.33564e-22
8.03264e-23
-6.91477e-23
5.61369e-23
-1.63658e-23
2.36313e-23
-2.54078e-24
5.58772e-24
-2.74464e-24
1.93069e-24
-9.88384e-24
4.12017e-24
-5.49853e-22
1.95703e-22
-1.99085e-20
9.79321e-21
-2.76898e-19
2.74703e-19
-2.41114e-18
3.62763e-18
-2.6525e-17
3.95085e-17
6.11577e-16
-1.56288e-16
1.32289e-31
-1.20074e-27
2.64961e-31
-9.66615e-30
3.75733e-33
-6.6004e-30
-2.97485e-31
-6.17893e-32
-1.37605e-30
1.45078e-31
-5.26739e-28
5.51429e-29
-4.36644e-26
6.48701e-27
-8.59297e-25
1.88447e-25
-4.31935e-24
1.4536e-24
-7.50479e-24
3.63812e-24
-8.39725e-24
4.48596e-24
-7.7932e-24
4.52032e-24
-4.03321e-24
3.11346e-24
-1.01938e-24
1.35826e-24
-2.51337e-25
3.75595e-25
-2.65973e-25
2.03189e-25
-1.09694e-24
6.88357e-25
-6.51983e-23
3.38117e-23
-3.5594e-21
2.21351e-21
-6.63865e-20
9.65475e-20
-4.62034e-19
1.6822e-18
-2.79222e-18
1.69349e-17
2.36034e-16
2.25154e-17
1.40644e-32
-4.01239e-28
4.7892e-32
-1.39596e-30
6.73902e-33
-1.37005e-30
-7.01445e-33
-1.26032e-31
-2.28122e-32
2.94132e-33
-1.19603e-29
9.35846e-31
-1.47945e-27
1.44067e-28
-3.67898e-26
5.32618e-27
-2.01107e-25
4.73689e-26
-3.5049e-25
1.34101e-25
-3.87243e-25
1.80589e-25
-3.60445e-25
1.89213e-25
-1.91989e-25
1.37578e-25
-5.22805e-26
6.40078e-26
-1.95186e-26
2.12685e-26
-2.0451e-26
1.58497e-26
-1.23551e-25
1.27692e-25
-7.27008e-24
6.65817e-24
-5.35879e-22
5.35098e-22
-1.29809e-20
3.35886e-20
-4.58202e-20
7.94391e-19
9.5571e-19
8.24012e-18
8.04685e-17
3.11321e-17
9.23735e-34
-1.17701e-28
6.17379e-33
-1.48309e-31
1.63236e-33
-2.11023e-31
-1.3174e-34
-3.59124e-32
-3.38016e-34
5.43168e-35
-1.84748e-31
1.45632e-32
-2.88748e-29
2.13467e-30
-8.17134e-28
8.43336e-29
-5.04377e-27
8.01718e-28
-9.7749e-27
2.57643e-27
-1.12934e-26
3.92737e-27
-1.05468e-26
4.32116e-27
-5.70791e-27
3.29072e-27
-1.65389e-27
1.59395e-27
-9.28854e-28
6.65064e-28
-1.0397e-27
8.21479e-28
-1.4e-26
2.52379e-26
-7.47405e-25
1.42805e-24
-5.42947e-23
1.32807e-22
-1.24028e-22
1.11583e-20
5.52802e-20
3.49655e-19
1.26185e-18
3.95331e-18
2.88236e-17
1.78902e-17
2.44542e-35
-3.05166e-29
6.00048e-34
-1.22163e-32
2.34367e-34
-2.57585e-32
-2.08586e-36
-6.33528e-33
-4.96703e-36
9.28141e-37
-2.38261e-33
2.27973e-34
-3.72326e-31
2.8207e-32
-1.05857e-29
1.02023e-30
-6.85322e-29
9.43695e-30
-1.44603e-28
3.08833e-29
-1.76048e-28
4.97357e-29
-1.63581e-28
5.70942e-29
-8.80993e-29
4.53195e-29
-2.62269e-29
2.37245e-29
-2.44058e-29
1.37888e-29
-5.19369e-29
7.07941e-29
-1.29501e-27
4.82865e-27
-4.12299e-26
3.02013e-25
2.33754e-24
3.04582e-23
8.37632e-22
3.27305e-21
5.10984e-20
1.32069e-19
8.85769e-19
1.67314e-18
1.07213e-17
8.65372e-18
-9.97214e-33
-7.04025e-30
4.50643e-35
-1.16955e-33
2.38755e-35
-2.60614e-33
-2.84024e-38
-8.41166e-34
-6.67032e-38
1.41106e-38
-2.83338e-35
3.47795e-36
-4.10039e-33
3.94673e-34
-1.12729e-31
1.3488e-32
-7.17707e-31
1.22687e-31
-1.5467e-30
3.99631e-31
-1.97596e-30
6.59803e-31
-1.80846e-30
7.92166e-31
-9.92717e-31
6.69091e-31
-4.13433e-31
4.1599e-31
-3.62185e-31
4.1684e-31
-2.72004e-30
1.18819e-29
-1.8771e-29
8.57696e-28
9.90053e-27
5.83171e-26
2.33982e-24
5.98536e-24
4.28954e-22
7.62459e-22
2.6466e-20
4.02221e-20
4.56892e-19
5.92315e-19
3.72492e-18
3.76611e-18
-6.48563e-33
-1.45358e-30
2.53566e-36
-5.02356e-34
1.82285e-36
-2.25817e-34
-3.14258e-40
-9.1162e-35
-7.42744e-40
1.68923e-40
-3.01307e-37
4.7445e-38
-4.12483e-35
5.61117e-36
-1.10557e-33
1.91095e-34
-6.89346e-33
1.75307e-33
-1.4861e-32
5.81483e-33
-1.95798e-32
9.94707e-33
-1.70248e-32
1.24925e-32
-8.14078e-33
1.12273e-32
-5.20644e-33
8.25499e-33
-3.13228e-33
2.604e-32
1.98349e-31
2.11446e-30
3.84495e-29
1.38406e-28
4.71418e-27
9.54872e-27
7.26011e-25
9.35897e-25
1.31307e-22
1.3632e-22
9.72358e-21
9.73892e-21
1.85157e-19
1.75434e-19
1.1235e-18
1.40817e-18
-2.25034e-33
-2.69868e-31
8.41377e-38
-2.08654e-34
1.0309e-37
-1.71801e-35
-2.57278e-42
-8.43428e-36
-5.33247e-42
1.44862e-40
-2.57504e-39
5.21014e-40
-3.52571e-37
6.97395e-38
-9.12236e-36
2.64163e-36
-5.40953e-35
2.48914e-35
-1.09432e-34
8.4574e-35
-1.30736e-34
1.48933e-34
-8.29907e-35
1.92081e-34
-1.22013e-35
1.79563e-34
4.6583e-35
1.60216e-34
9.17901e-34
2.9642e-33
1.25293e-31
3.04246e-31
1.20255e-29
1.91384e-29
1.15231e-27
1.27355e-27
1.48842e-25
1.1548e-25
2.80528e-23
1.80823e-23
2.6771e-21
1.81229e-21
6.07929e-20
4.2828e-20
2.93067e-19
4.46565e-19
-5.79342e-34
-4.52091e-32
-1.3578e-37
-6.07634e-35
3.72117e-39
-1.17407e-36
2.18301e-42
-6.85353e-37
-4.69493e-42
-2.47845e-40
-1.16716e-41
4.70863e-40
-1.87157e-39
1.04701e-39
-4.42918e-38
3.14107e-38
-1.95901e-37
3.09902e-37
-1.39544e-37
1.13951e-36
4.52235e-37
2.13065e-36
1.46024e-36
2.83147e-36
2.37655e-36
2.72105e-36
4.12082e-36
4.91338e-36
2.49936e-34
4.12919e-34
2.84611e-32
3.55326e-32
2.38148e-30
2.25765e-30
1.99457e-28
1.39022e-28
2.22142e-26
1.10293e-26
4.19602e-24
1.68596e-24
5.38913e-22
2.39741e-22
1.58762e-20
8.04209e-21
6.48836e-20
1.23148e-19
-1.1916e-34
-6.85114e-33
-1.12128e-37
-1.35156e-35
1.4368e-41
-7.83164e-38
1.32608e-43
-4.98494e-38
8.99758e-43
-1.34331e-40
-4.43737e-43
-1.00092e-39
1.75506e-42
6.93312e-40
1.24265e-40
2.7403e-38
2.31271e-39
4.82548e-39
1.30881e-38
1.34735e-38
3.36109e-38
2.6229e-38
5.55706e-38
4.00336e-38
7.43364e-38
4.39435e-38
3.74924e-37
3.63026e-37
4.53721e-35
4.88299e-35
4.47997e-33
3.66314e-33
3.58685e-31
2.37376e-31
2.66811e-29
1.33269e-29
2.47597e-27
8.57827e-28
4.32748e-25
1.10927e-25
7.59334e-23
2.17561e-23
3.14722e-21
1.10549e-21
1.12879e-20
2.86352e-20
-2.08464e-35
-9.4065e-34
-3.46407e-38
-2.48641e-36
-2.86851e-41
-6.46548e-39
-1.50988e-41
-3.29686e-39
-1.86055e-43
-3.73511e-41
-2.91097e-42
-4.23874e-40
-2.33305e-41
-2.38359e-39
-8.3368e-41
-5.78767e-39
8.51465e-41
3.16211e-39
2.52835e-40
1.17853e-38
5.95072e-40
2.22412e-38
1.20976e-39
5.79585e-40
2.00011e-39
1.34981e-39
4.42645e-38
3.93976e-38
5.8701e-36
4.5149e-36
5.58433e-34
3.54179e-34
4.47662e-32
2.37796e-32
3.03987e-30
1.27018e-30
2.26491e-28
6.55971e-29
3.22222e-26
6.10029e-27
7.48254e-24
1.4765e-24
4.64984e-22
1.1646e-22
1.50106e-21
5.22361e-21
-3.18477e-36
-1.1707e-34
-7.28788e-39
-3.95714e-37
-5.93811e-42
-8.00512e-40
-1.44894e-42
-2.00897e-40
-5.75127e-44
-7.1949e-42
-9.4471e-43
-9.79367e-41
-9.97508e-42
-7.73614e-40
-6.09778e-41
-3.43173e-39
-2.20784e-40
-8.91432e-39
-3.51654e-40
-1.03125e-38
-8.00551e-41
-1.73375e-39
4.52131e-41
4.06242e-40
1.32075e-40
9.21453e-41
4.47301e-39
3.68362e-39
5.72749e-37
3.73823e-37
5.81788e-35
3.27824e-35
4.84049e-33
2.3201e-33
3.20193e-31
1.2694e-31
1.99949e-29
5.89489e-30
2.07353e-27
3.86574e-28
5.68215e-25
9.53512e-26
5.36241e-23
1.08591e-23
1.6663e-22
7.38132e-22
-4.26481e-37
-1.32043e-35
-1.19767e-39
-5.5503e-38
-1.02775e-42
-1.1907e-40
-8.70148e-44
-1.14254e-41
-8.10877e-45
-1.08958e-42
-1.36604e-43
-1.64394e-41
-1.61307e-42
-1.51419e-40
-1.23094e-41
-8.295e-40
-5.75137e-41
-2.73121e-39
-1.22642e-40
-4.14423e-39
-6.69797e-41
-1.64477e-39
-5.22094e-42
-9.51744e-41
1.34373e-41
4.07451e-42
3.44044e-40
2.73304e-40
4.56406e-38
2.97105e-38
5.07179e-36
2.80999e-36
4.48546e-34
2.1105e-34
3.09271e-32
1.23662e-32
1.83518e-30
5.99476e-31
1.47352e-28
3.4225e-29
4.11395e-26
7.7366e-27
5.36769e-24
1.03981e-24
1.71603e-23
8.54387e-23
-4.95354e-38
-1.34941e-36
-1.60684e-40
-6.87868e-39
-1.45101e-43
-1.66562e-41
-3.83414e-45
-6.14905e-43
-5.86384e-46
-1.38141e-43
-9.28566e-45
-2.22367e-42
-1.039e-43
-2.24183e-41
-1.00971e-42
-1.37688e-40
-5.96085e-42
-5.03229e-40
-1.597e-41
-8.64165e-40
-1.17338e-41
-4.27328e-40
-2.08085e-42
-5.26997e-41
2.18179e-42
7.20594e-44
1.96705e-41
1.70847e-41
2.89564e-39
2.06268e-39
3.51272e-37
2.06242e-37
3.36115e-35
1.63885e-35
2.50683e-33
1.03702e-33
1.59884e-31
5.76477e-32
1.22982e-29
3.65963e-30
3.35541e-27
7.88542e-28
5.00006e-25
1.01862e-25
1.62561e-24
8.39252e-24
-4.96338e-39
-1.25019e-37
-1.77753e-41
-7.53985e-40
-1.62595e-44
-2.0152e-42
-1.25462e-46
-3.17757e-44
-3.94636e-49
-1.52259e-44
5.53827e-45
-2.5616e-43
4.93983e-44
-2.73567e-42
1.45334e-43
-1.80393e-41
-1.71553e-44
-7.01852e-41
-5.87439e-43
-1.29658e-40
-8.00215e-43
-7.2817e-41
-2.42973e-43
-1.21781e-41
1.56955e-43
2.2572e-45
7.678e-43
8.45533e-43
1.29887e-40
1.08999e-40
1.76613e-38
1.16257e-38
1.85251e-36
9.71344e-37
1.5325e-34
6.71244e-35
1.13797e-32
4.4351e-33
1.00602e-30
3.50722e-31
2.74957e-28
7.41721e-29
4.01413e-26
8.40994e-27
1.25338e-25
6.66095e-25
-4.33191e-40
-1.0516e-38
-1.65997e-42
-7.36327e-41
-1.46908e-45
-2.10006e-43
-2.9296e-48
-1.59643e-45
8.7199e-47
-1.49418e-45
2.09268e-45
-2.59377e-44
1.92837e-44
-2.88016e-43
8.67376e-44
-1.99117e-42
1.61565e-43
-8.08186e-42
7.9956e-44
-1.56727e-41
8.50161e-45
-9.60766e-42
-3.11767e-45
-1.9311e-42
3.22091e-45
1.36412e-46
1.61924e-44
2.95398e-44
3.48277e-42
3.97882e-42
5.63619e-40
4.46983e-40
6.70611e-38
3.95013e-38
6.45411e-36
3.09743e-36
5.82135e-34
2.42614e-34
6.29795e-32