/*--------------------------------*- C++ -*----------------------------------*\
| =========                 |                                                 |
| \\      /  F ield         | OpenFOAM: The Open Source CFD Toolbox           |
|  \\    /   O peration     | Version:  2012                                  |
|   \\  /    A nd           | Website:  www.openfoam.com                      |
|    \\/     M anipulation  |                                                 |
\*---------------------------------------------------------------------------*/
FoamFile
{
    version     2.0;
    format      ascii;
    class       volScalarField;
    location    "0.6";
    object      p;
}
// * * * * * * * * * * * * * * * * * * * * * * * * * * * * * * * * * * * * * //

dimensions      [1 -1 -2 0 0 0 0];


internalField   nonuniform List<scalar> 
2268
(
526.03
523.515
524.334
528.78
538.245
552.687
569.776
586.187
601.807
618.266
636.583
656.755
678.323
700.778
723.565
746.031
767.336
784.992
799.266
805.92
799.67
811.018
850.243
467.059
463.855
464.45
468.722
478.002
492.491
509.997
526.661
542.391
558.907
577.164
597.298
618.92
641.454
664.296
686.877
708.409
726.989
742.812
752.216
738.998
739.975
785.663
407.398
403.637
403.928
407.634
416.443
430.979
449.261
466.489
482.459
499.101
517.527
537.82
559.546
582.14
604.943
627.258
648.421
667.505
683.254
695.012
683.082
675.963
723.527
347.792
343.25
342.815
345.665
353.622
368.237
387.547
405.767
422.138
438.954
457.527
478.003
499.935
522.758
545.734
568.073
589.109
608.304
624.097
635.969
631.683
626.441
669.665
288.807
283.052
281.458
282.957
289.786
304.713
325.274
344.652
361.501
378.55
397.287
417.95
440.156
463.353
486.691
509.262
530.474
549.922
566.302
579.282
583.801
585.586
622.578
230.611
223.687
219.971
220.369
226.591
241.975
263.314
283.273
300.454
317.815
336.837
357.68
380.202
403.906
427.796
450.737
472.271
492.185
509.544
524.194
534.817
542.976
577.539
172.972
165.799
160.791
160.221
165.862
181.028
201.918
221.462
238.775
256.544
275.941
297.143
320.145
344.564
369.179
392.542
414.434
434.865
453.153
469.139
482.939
493.982
523.57
115.277
105.056
96.5614
97.5722
104.747
119.856
139.658
158.455
176.357
195.475
214.697
236.154
259.648
284.936
310.627
334.614
356.962
378.032
397.149
414.148
429.95
446.697
473.131
764.753
734.308
909.954
1258.5
1152.85
1115.04
1094
759.882
403.108
260.007
220.06
215.056
228.05
244.233
256.078
394.162
862.221
1367.03
1245.41
735.864
660.556
777.528
1114.57
1064.42
1074.01
1003.57
525.472
221.52
182.139
178.993
177.113
178.874
183.377
191.932
291.988
693.729
1255.96
1184.61
692.907
601.771
683.343
968.306
935.439
984.47
728.329
213.334
188.504
177.118
172.23
168.607
167.206
167.132
167.914
181.403
353.717
1011.26
1104.6
629.174
520.605
599.893
818.705
747.348
748.912
313.929
197.319
185.689
176.739
171.696
168.192
166.889
166.821
166.759
169.677
222.287
630.286
1004.38
562.315
453.954
520.602
673.791
544.15
462.612
199.005
192.738
184.868
176.03
170.4
167.007
166.13
166.423
166.391
167.258
185.533
319.576
890.753
507.142
402.161
448.117
540.903
344.015
242.737
166.019
187.515
183.165
174.22
168.457
165.488
165.024
165.768
166.073
166.573
173.243
201.23
767.063
469.849
376.484
389.075
422.438
157.11
90.3394
162.486
179.79
179.554
171.198
165.663
163.22
163.409
164.682
165.595
166.106
168.006
172.027
634.333
398.114
360.355
342.787
312.428
-8.9184
-32.5402
181.698
172.491
174.353
167.405
163.256
161.675
161.965
163.353
164.902
165.662
166.351
166.031
501.455
45.5868
36.0826
27.608
27.9924
36.5396
46.7118
58.2335
68.748
81.1435
97.516
117.617
139.883
165.072
192.668
220.143
244.709
267.412
289.363
309.737
327.759
344.082
357.762
366.96
0.513271
0.562525
0.472518
0.348063
2.93557
6.04539
7.73735
8.99138
11.8602
17.2312
25.0876
35.3187
51.5994
72.9678
98.8468
124.155
147.695
170.272
191.943
211.646
230.416
250.614
277.266
0.301396
0.274682
0.205697
0.133566
0.183106
0.185398
0.150544
0.126448
0.112659
0.0953837
0.0927324
0.510776
3.51603
9.99871
20.582
33.9105
48.6422
64.1316
80.2839
96.8626
112.341
128.203
146.734
0.177378
0.152929
0.0287955
-0.0512969
-0.00074813
-0.00404354
-0.0505514
-0.0749469
-0.0695659
-0.044604
-0.0193833
0.0118303
0.0452709
0.0726661
0.20638
1.06172
3.08056
6.25874
13.6255
21.6989
27.7916
34.4746
43.6356
-0.00511928
-0.0224777
-0.071209
-0.11261
-0.0868876
-0.116709
-0.151197
-0.173928
-0.191101
-0.199508
-0.186574
-0.161869
-0.124916
-0.07927
-0.0104242
0.0559643
0.114194
0.180547
0.268547
0.369584
0.461742
0.57621
1.77474
-0.190655
-0.202765
-0.223366
-0.257932
-0.273831
-0.273405
-0.285706
-0.292141
-0.291324
-0.281761
-0.263942
-0.238991
-0.216616
-0.183531
-0.15064
-0.113081
-0.0676585
-0.0100761
0.0772834
0.193424
0.31266
0.431279
0.493125
-0.359695
-0.368388
-0.379631
-0.397447
-0.399895
-0.416395
-0.42488
-0.430471
-0.432712
-0.430643
-0.416716
-0.397792
-0.374344
-0.336518
-0.295361
-0.248192
-0.20102
-0.15329
-0.0817153
0.0150802
0.09735
0.163392
0.240514
-0.523733
-0.530113
-0.534449
-0.546111
-0.550344
-0.560125
-0.564193
-0.565195
-0.561465
-0.552183
-0.538459
-0.519698
-0.498121
-0.474934
-0.444235
-0.40921
-0.372605
-0.332813
-0.28284
-0.213434
-0.136517
-0.0615416
-0.00251791
-0.684202
-0.687117
-0.68942
-0.698178
-0.700493
-0.705437
-0.707269
-0.706823
-0.703473
-0.696932
-0.685665
-0.670438
-0.649499
-0.622575
-0.593882
-0.562722
-0.530132
-0.496256
-0.462326
-0.426944
-0.39036
-0.36953
-0.333774
-0.841256
-0.842798
-0.844133
-0.848987
-0.85065
-0.852863
-0.853076
-0.851294
-0.846695
-0.838954
-0.827481
-0.812889
-0.795141
-0.773927
-0.749186
-0.722464
-0.694179
-0.665323
-0.638166
-0.616502
-0.61579
-0.642198
-0.664711
-0.996754
-0.99749
-0.99819
-1.00055
-1.00141
-1.0019
-1.00094
-0.998181
-0.993105
-0.985503
-0.975111
-0.961834
-0.945638
-0.926598
-0.90577
-0.883279
-0.859496
-0.835456
-0.81302
-0.79757
-0.804018
-0.831231
-0.847855
-1.15125
-1.15149
-1.15174
-1.15273
-1.15285
-1.15236
-1.1507
-1.14753
-1.14248
-1.13531
-1.12586
-1.11406
-1.10002
-1.08391
-1.06618
-1.04694
-1.02682
-1.00676
-0.988386
-0.977019
-0.982397
-0.995205
-0.98899
-1.30517
-1.30518
-1.30515
-1.30536
-1.30499
-1.304
-1.30204
-1.29883
-1.29409
-1.28764
-1.27935
-1.26923
-1.25732
-1.24379
-1.22893
-1.21293
-1.19627
-1.18003
-1.16553
-1.1587
-1.16752
-1.18034
-1.17463
-1.45886
-1.45876
-1.45859
-1.45841
-1.4578
-1.45664
-1.45468
-1.45172
-1.44756
-1.44206
-1.43514
-1.42678
-1.41704
-1.40606
-1.39403
-1.38115
-1.3677
-1.35418
-1.34261
-1.33667
-1.34331
-1.35985
-1.36807
-1.6125
-1.61237
-1.61217
-1.61186
-1.61121
-1.6101
-1.60838
-1.60589
-1.60249
-1.59809
-1.59264
-1.58613
-1.57864
-1.57026
-1.56118
-1.5516
-1.54182
-1.53222
-1.52383
-1.5192
-1.52232
-1.53409
-1.55158
-1.7662
-1.7661
-1.76593
-1.76564
-1.7651
-1.76423
-1.7629
-1.76103
-1.75852
-1.75532
-1.75141
-1.74681
-1.74161
-1.73592
-1.72992
-1.72385
-1.71804
-1.71289
-1.70916
-1.70847
-1.71351
-1.72616
-1.74844
-1.92
-1.91994
-1.91986
-1.91969
-1.91937
-1.91884
-1.91803
-1.91687
-1.91533
-1.91339
-1.91105
-1.90838
-1.90548
-1.90249
-1.89962
-1.89717
-1.89551
-1.89517
-1.89693
-1.90215
-1.91283
-1.93152
-1.96195
-2.07388
-2.07388
-2.07391
-2.07393
-2.0739
-2.07378
-2.07354
-2.07316
-2.07262
-2.07195
-2.07118
-2.07041
-2.06976
-2.06942
-2.06964
-2.07076
-2.07325
-2.07773
-2.08513
-2.09684
-2.11475
-2.14142
-2.18133
-2.22778
-2.22784
-2.228
-2.22824
-2.22854
-2.22888
-2.22925
-2.22966
-2.23012
-2.23069
-2.23144
-2.23249
-2.23399
-2.23617
-2.23932
-2.24385
-2.25027
-2.2593
-2.27193
-2.28961
-2.31428
-2.34845
-2.39614
-2.38163
-2.38176
-2.38206
-2.38254
-2.38318
-2.38398
-2.38496
-2.38615
-2.38758
-2.38933
-2.39151
-2.39425
-2.39774
-2.40225
-2.40808
-2.41568
-2.42562
-2.43864
-2.45576
-2.47838
-2.50835
-2.54802
-2.60062
-2.53535
-2.53554
-2.53598
-2.53671
-2.53769
-2.53894
-2.54051
-2.54242
-2.54476
-2.54761
-2.55108
-2.55536
-2.56064
-2.5672
-2.57539
-2.58565
-2.59857
-2.61489
-2.63559
-2.66195
-2.69563
-2.73865
-2.79348
-2.68885
-2.6891
-2.68968
-2.69064
-2.69194
-2.69362
-2.69573
-2.69832
-2.70147
-2.70529
-2.70992
-2.71554
-2.72237
-2.73069
-2.74086
-2.75332
-2.76863
-2.78751
-2.81085
-2.83978
-2.8757
-2.92029
-2.97537
-2.84206
-2.84236
-2.84306
-2.84424
-2.84583
-2.8479
-2.85049
-2.85367
-2.85754
-2.86221
-2.86782
-2.87457
-2.88269
-2.89245
-2.9042
-2.91837
-2.93549
-2.95621
-2.98132
-3.01177
-3.04866
-3.09345
-3.14738
-2.99489
-2.99524
-2.99605
-2.99742
-2.99927
-3.00167
-3.00467
-3.00836
-3.01283
-3.01821
-3.02463
-3.03229
-3.04142
-3.0523
-3.06524
-3.08065
-3.09902
-3.12093
-3.14704
-3.17814
-3.21489
-3.25881
-3.31085
-3.14728
-3.14767
-3.14858
-3.1501
-3.15216
-3.15484
-3.15818
-3.16229
-3.16724
-3.17317
-3.18022
-3.18858
-3.19846
-3.21013
-3.22389
-3.24011
-3.25921
-3.28171
-3.30821
-3.33949
-3.37474
-3.41749
-3.46692
-3.29917
-3.29963
-3.30057
-3.30224
-3.30446
-3.30735
-3.31096
-3.31537
-3.32069
-3.32702
-3.33452
-3.34336
-3.35375
-3.36591
-3.38015
-3.39677
-3.41615
-3.43868
-3.46486
-3.4952
-3.53003
-3.57045
-3.61671
-3.45048
-3.45106
-3.45198
-3.45377
-3.4561
-3.45914
-3.46293
-3.46756
-3.47312
-3.47972
-3.4875
-3.49662
-3.50727
-3.51967
-3.53406
-3.55074
-3.57003
-3.59207
-3.61765
-3.64691
-3.68027
-3.71825
-3.76116
-3.60121
-3.60193
-3.60272
-3.60469
-3.60703
-3.61018
-3.61408
-3.61883
-3.62451
-3.63124
-3.63914
-3.64836
-3.65907
-3.67144
-3.68573
-3.70211
-3.72093
-3.74242
-3.76696
-3.7948
-3.82625
-3.86162
-3.90113
-3.75131
-3.75217
-3.7528
-3.755
-3.75721
-3.76045
-3.76437
-3.76915
-3.77487
-3.7816
-3.78947
-3.79863
-3.80921
-3.8213
-3.83525
-3.85116
-3.86929
-3.88985
-3.9131
-3.93928
-3.96859
-4.00124
-4.03735
-3.90077
-3.90167
-3.9023
-3.90473
-3.90656
-3.91003
-3.9138
-3.91854
-3.92419
-3.93083
-3.93852
-3.94746
-3.95773
-3.96946
-3.98286
-3.99807
-4.01528
-4.03468
-4.05645
-4.08078
-4.10782
-4.13769
-4.17045
-4.04965
-4.05057
-4.05113
-4.05384
-4.05487
-4.05917
-4.06228
-4.06701
-4.07252
-4.07895
-4.08639
-4.09497
-4.1048
-4.11598
-4.12867
-4.14301
-4.15913
-4.1772
-4.19735
-4.21971
-4.24439
-4.27147
-4.30097
-4.19793
-4.19883
-4.19949
-4.20157
-4.20347
-4.20677
-4.21025
-4.21469
-4.21993
-4.22605
-4.23312
-4.24124
-4.2505
-4.261
-4.27286
-4.28619
-4.3011
-4.31771
-4.33613
-4.35645
-4.37874
-4.40304
-4.42934
-4.34561
-4.34645
-4.34713
-4.34902
-4.35098
-4.35399
-4.35734
-4.36154
-4.36645
-4.37219
-4.3788
-4.38637
-4.39496
-4.40468
-4.4156
-4.42781
-4.44141
-4.45648
-4.4731
-4.49134
-4.51122
-4.53279
-4.556
-4.49275
-4.4935
-4.49419
-4.49594
-4.4978
-4.50062
-4.50372
-4.50762
-4.51216
-4.51744
-4.52352
-4.53045
-4.53831
-4.54715
-4.55705
-4.56807
-4.5803
-4.59377
-4.60857
-4.62471
-4.64221
-4.6611
-4.68131
-4.63939
-4.64002
-4.64073
-4.64234
-4.64402
-4.64672
-4.64943
-4.65301
-4.65712
-4.66189
-4.66737
-4.67362
-4.68066
-4.68857
-4.69739
-4.70717
-4.71797
-4.72983
-4.74279
-4.75686
-4.77204
-4.78833
-4.80567
-4.7856
-4.78608
-4.7868
-4.78823
-4.78962
-4.79252
-4.79442
-4.79777
-4.80143
-4.8056
-4.81046
-4.81596
-4.82215
-4.82907
-4.83676
-4.84527
-4.85463
-4.86487
-4.87601
-4.88805
-4.90098
-4.91478
-4.92941
-4.93141
-4.93177
-4.93246
-4.9337
-4.93486
-4.93735
-4.93919
-4.94195
-4.94511
-4.94873
-4.95289
-4.95759
-4.96288
-4.96878
-4.97532
-4.98254
-4.99045
-4.99908
-5.00842
-5.01849
-5.02925
-5.04069
-5.05275
-5.0769
-5.07715
-5.07781
-5.07894
-5.07965
-5.08174
-5.08341
-5.0857
-5.08831
-5.09133
-5.09476
-5.09864
-5.103
-5.10785
-5.11323
-5.11914
-5.12561
-5.13263
-5.14022
-5.14836
-5.15704
-5.16623
-5.17587
-5.22215
-5.2223
-5.22286
-5.22376
-5.2243
-5.22591
-5.22727
-5.22908
-5.23114
-5.2335
-5.2362
-5.23924
-5.24265
-5.24644
-5.25063
-5.25523
-5.26025
-5.26569
-5.27156
-5.27783
-5.28449
-5.29152
-5.29887
-5.36721
-5.36724
-5.36769
-5.36835
-5.3687
-5.36987
-5.37086
-5.37217
-5.37365
-5.37535
-5.37729
-5.37948
-5.38192
-5.38464
-5.38764
-5.39093
-5.39451
-5.39838
-5.40254
-5.40699
-5.4117
-5.41665
-5.42181
-5.51205
-5.51202
-5.5123
-5.51266
-5.51297
-5.51365
-5.51423
-5.51502
-5.51591
-5.51694
-5.51811
-5.51942
-5.5209
-5.52254
-5.52434
-5.52631
-5.52845
-5.53077
-5.53326
-5.53591
-5.53871
-5.54165
-5.54471
-5.65676
-5.6567
-5.65681
-5.65693
-5.65704
-5.65728
-5.65746
-5.65773
-5.65803
-5.65837
-5.65876
-5.6592
-5.6597
-5.66024
-5.66084
-5.6615
-5.66221
-5.66298
-5.66382
-5.66469
-5.66562
-5.66659
-5.6676
349.344
365.496
386.034
391.56
292.836
301.454
310.726
319.498
162.862
175.922
192.439
212.018
53.9561
61.7461
73.6319
94.2136
6.11022
6.77064
5.06986
5.97907
0.477021
0.495739
0.666684
0.861609
0.338678
0.398115
0.493294
0.588611
0.0566742
0.0986228
0.164208
0.278279
-0.283324
-0.234226
-0.170037
-0.0826645
-0.618781
-0.573484
-0.505577
-0.406884
-0.832061
-0.804633
-0.749506
-0.669222
-0.971271
-0.95818
-0.926109
-0.876383
-1.16309
-1.15283
-1.13088
-1.10356
-1.36851
-1.36939
-1.36804
-1.37538
-1.57226
-1.59321
-1.62566
-1.67789
-1.78062
-1.81219
-1.85983
-1.92982
-2.00107
-2.03509
-2.08188
-2.1462
-2.22718
-2.26353
-2.30853
-2.36516
-2.44672
-2.48518
-2.53029
-2.58333
-2.65298
-2.69165
-2.73567
-2.78554
-2.84542
-2.88287
-2.92459
-2.97079
-3.02564
-3.06123
-3.10025
-3.14284
-3.19531
-3.22876
-3.26499
-3.30412
-3.35595
-3.38709
-3.42049
-3.45624
-3.50891
-3.53766
-3.56824
-3.60074
-3.65546
-3.6818
-3.70962
-3.73899
-3.79666
-3.82064
-3.8458
-3.8722
-3.93344
-3.95515
-3.97779
-4.0014
-4.06658
-4.08613
-4.10642
-4.12748
-4.19675
-4.21426
-4.23238
-4.2511
-4.32446
-4.34007
-4.35617
-4.37275
-4.45017
-4.46397
-4.47818
-4.49278
-4.57427
-4.58635
-4.59876
-4.61149
-4.69714
-4.70757
-4.71826
-4.7292
-4.81917
-4.82804
-4.83709
-4.84634
-4.94071
-4.94812
-4.95566
-4.96332
-5.06202
-5.06807
-5.07421
-5.08043
-5.18324
-5.18804
-5.1929
-5.19781
-5.30446
-5.3081
-5.31178
-5.31548
-5.42573
-5.42827
-5.43084
-5.43342
-5.54702
-5.54852
-5.55004
-5.55156
-5.66836
-5.66885
-5.66935
-5.66985
385.593
340.912
283.847
151.689
-199.158
-184.129
158.299
163.059
165.798
162.07
160.216
159.592
159.945
161.494
163.422
164.726
165.497
164.701
337.699
327.394
305.344
248.721
63.306
-224.441
0.153617
131.869
152.003
154.258
154.952
155.162
155.162
156.439
158.653
161.116
163.075
164.333
162.862
238.752
247.464
267.746
253.384
121.447
81.4891
127.448
144.359
147.187
146.348
148.763
150.527
151.585
153.51
156.193
159.184
161.698
163.159
162.415
197.807
156.803
192.637
225.618
169.497
164.298
161.374
155.919
149.275
145.928
146.943
148.589
150.293
152.426
155.116
158.303
161.082
162.479
162.998
198.996
16.655
56.2732
171.459
171.758
171.871
168.587
162.097
153.77
149.069
148.805
149.972
151.333
153.037
155.366
158.462
161.12
162.497
164.869
222.414
0.816261
4.2411
168.88
172.817
171.789
168.715
163.718
157.41
153.079
152.215
152.837
153.545
154.531
156.341
159.209
161.729
164.052
173.269
268.013
0.660064
1.6713
32.0512
136.092
164.187
169.762
164.679
159.424
156.211
155.539
155.911
155.968
155.97
157.088
159.823
163.279
171.159
210.251
339.825
0.399959
0.455473
3.51376
54.0286
138.761
176.079
168.352
160.81
158.122
158.528
159.455
159.096
157.177
156.312
159.069
165.867
182.824
293.724
418.116
0.0196031
0.0492567
0.0900673
5.62345
57.4487
206.766
157.837
152.425
159.181
162.352
164.825
164.862
159.461
152.554
147.323
155.52
189.12
295.116
427.128
-0.259336
-0.147211
-0.131557
-0.0095258
3.91518
42.1982
85.0151
129.957
148.131
162.911
168.118
167.247
148.768
129.812
111.305
112.014
130.133
193.768
327.439
-0.549205
-0.457805
-0.357145
-0.399065
-1.03662
-0.503568
27.4511
81.9734
153.159
218.953
261.528
311.208
284.352
179.482
90.0479
46.3158
54.8371
92.0225
177.685
-0.820229
-0.802361
-0.663549
-0.638354
-1.34876
-2.57928
1.38228
51.5761
124.227
199.952
244.749
274.071
249.093
173.202
94.8504
42.2072
43.5279
69.9236
120.042
-1.10468
-1.19604
-1.23911
-1.42142
-1.44543
1.35603
26.885
19.6197
43.0082
62.4093
98.7663
144.787
139.05
120.193
93.7686
61.3874
61.9621
90.6613
120.375
-1.4647
-1.8432
-2.2594
-2.42954
-2.29788
-2.51129
-3.22014
-3.85732
0.549802
12.9067
42.8237
79.3124
97.8947
88.6215
80.3347
71.2806
70.7325
101.207
124.966
-1.84294
-2.37521
-2.89219
-2.93418
-2.69833
-2.48951
-2.3781
-3.60322
-5.30449
-3.08955
10.0831
40.2068
69.5349
71.9785
64.8699
58.9258
78.022
117.587
128.9
-2.10489
-2.56035
-3.0048
-3.07202
-2.89003
-2.70393
-2.74794
-3.30813
-4.61715
-5.55584
-4.82688
9.54558
35.4119
49.1778
45.0533
39.3144
79.7496
129.834
129.884
-2.28952
-2.61275
-2.94016
-3.07544
-3.06442
-3.00659
-3.1999
-3.75696
-4.62976
-5.38979
-5.97495
-4.72907
-0.598226
13.401
16.111
29.5815
71.1315
158.227
120.038
-2.48048
-2.7092
-2.95302
-3.12386
-3.22988
-3.33542
-3.57681
-4.06714
-4.76357
-5.48624
-5.88764
-5.76208
-6.13051
-3.4351
-3.11192
1.04764
19.6777
150.151
103.776
-2.68559
-2.86867
-3.07151
-3.24978
-3.40564
-3.58073
-3.84154
-4.24347
-4.80129
-5.42157
-5.83387
-5.76791
-5.6111
-5.57395
-5.15146
-3.92871
1.83285
52.9798
92.508
-2.87888
-3.03851
-3.21606
-3.38991
-3.56173
-3.75468
-4.00503
-4.34515
-4.7909
-5.32452
-5.79996
-5.96145
-5.9594
-5.81817
-5.49204
-4.97282
-3.32687
5.83107
40.4582
-3.05565
-3.19755
-3.35635
-3.52172
-3.6943
-3.88548
-4.11447
-4.40477
-4.77254
-5.22587
-5.72764
-6.10275
-6.25232
-6.18879
-5.92133
-5.46701
-4.71185
-4.04891
16.7246
-3.22013
-3.34745
-3.4907
-3.64475
-3.80924
-3.98946
-4.19618
-4.44401
-4.74754
-5.12165
-5.57625
-6.0389
-6.32276
-6.36927
-6.16265
-5.75317
-5.34494
-4.85688
15.7596
-3.37451
-3.48903
-3.618
-3.75865
-3.91023
-4.07499
-4.25899
-4.47118
-4.72144
-5.01931
-5.37643
-5.77703
-6.09319
-6.21794
-6.08011
-5.76538
-5.40354
-4.65979
15.857
-3.5201
-3.62268
-3.73786
-3.86411
-4.0007
-4.14842
-4.31035
-4.49159
-4.69729
-4.93003
-5.18704
-5.46148
-5.69515
-5.82338
-5.7499
-5.55347
-5.23706
-5.05111
5.75248
-3.65836
-3.74976
-3.85173
-3.96348
-4.08455
-4.2153
-4.35711
-4.51181
-4.67998
-4.8596
-5.03828
-5.20216
-5.32084
-5.36841
-5.31233
-5.21989
-4.96548
-4.35596
-1.82723
-3.79072
-3.87173
-3.9613
-4.05902
-4.16488
-4.27962
-4.40391
-4.53677
-4.67474
-4.812
-4.93304
-5.01515
-5.03243
-4.98339
-4.90471
-4.88271
-4.69212
-3.79325
-0.847538
-3.91842
-3.98989
-4.06802
-4.15256
-4.24403
-4.34427
-4.45421
-4.57065
-4.68614
-4.79123
-4.86936
-4.89423
-4.84122
-4.71739
-4.5991
-4.55341
-4.43143
-3.57659
-0.422075
-4.04254
-4.10538
-4.17319
-4.24578
-4.32409
-4.41182
-4.51156
-4.61686
-4.71701
-4.79966
-4.84647
-4.83195
-4.73705
-4.57239
-4.43225
-4.28862
-4.12519
-3.80002
-1.81484
-4.16399
-4.21915
-4.27793
-4.34014
-4.40693
-4.48505
-4.57846
-4.67632
-4.76685
-4.83582
-4.86072
-4.81824
-4.69892
-4.52436
-4.38947
-4.26807
-4.12777
-4.14806
-3.33224
-4.28345
-4.33186
-4.38294
-4.43638
-4.49338
-4.56355
-4.65177
-4.7428
-4.82782
-4.89299
-4.90087
-4.83811
-4.70388
-4.53579
-4.40708
-4.37768
-4.23047
-4.30367
-3.83202
-4.40133
-4.44383
-4.48838
-4.53462
-4.5835
-4.64483
-4.72339
-4.8041
-4.88268
-4.94671
-4.94266
-4.87156
-4.73705
-4.59082
-4.48477
-4.45616
-4.34836
-4.40012
-3.89782
-4.51789
-4.55508
-4.59395
-4.63428
-4.67623
-4.72663
-4.78972
-4.85444
-4.91952
-4.9754
-4.96478
-4.9006
-4.78977
-4.69074
-4.61958
-4.56352
-4.45848
-4.48484
-4.13346
-4.63333
-4.66558
-4.69921
-4.7341
-4.76997
-4.80871
-4.85381
-4.89729
-4.9401
-4.96432
-4.96007
-4.91821
-4.85705
-4.81032
-4.74558
-4.66795
-4.56128
-4.57032
-4.40654
-4.74793
-4.77546
-4.80403
-4.83353
-4.8642
-4.89278
-4.92326
-4.94677
-4.96597
-4.96965
-4.96171
-4.94575
-4.9253
-4.90207
-4.83439
-4.75604
-4.65839
-4.66594
-4.2781
-4.86212
-4.88515
-4.90877
-4.93248
-4.95528
-4.9789
-4.99926
-5.01192
-5.01572
-5.00845
-4.99672
-4.99463
-4.98999
-4.96434
-4.89823
-4.83728
-4.74831
-4.76262
-4.20239
-4.97637
-4.99526
-5.01442
-5.03329
-5.05147
-5.06879
-5.08259
-5.08945
-5.0865
-5.07668
-5.06452
-5.05562
-5.04433
-5.01813
-4.96588
-4.92775
-4.83217
-4.85104
-4.36215
-5.091
-5.10617
-5.12137
-5.1361
-5.15012
-5.16252
-5.17143
-5.17487
-5.17131
-5.16223
-5.14725
-5.13261
-5.11571
-5.09314
-5.05862
-5.0363
-4.95334
-4.97573
-4.20112
-5.20613
-5.21794
-5.22965
-5.24079
-5.25126
-5.26019
-5.26565
-5.26697
-5.26372
-5.25503
-5.24115
-5.22548
-5.20531
-5.18851
-5.1711
-5.15767
-5.14329
-5.19675
-4.44105
-5.32174
-5.33054
-5.33917
-5.34716
-5.35477
-5.36129
-5.36455
-5.36516
-5.36291
-5.35544
-5.34336
-5.3272
-5.30478
-5.28859
-5.28089
-5.28421
-5.30252
-5.39934
-5.21128
-5.43778
-5.44389
-5.44982
-5.45502
-5.46041
-5.46498
-5.46724
-5.46812
-5.46773
-5.46256
-5.45458
-5.44143
-5.42219
-5.39747
-5.37833
-5.41026
-5.36816
-5.45526
-5.27884
-5.55413
-5.55775
-5.56141
-5.56528
-5.56784
-5.57065
-5.57267
-5.57444
-5.57603
-5.57462
-5.57355
-5.56883
-5.56676
-5.58734
-5.5089
-5.55154
-5.46781
-5.63884
-4.78928
-5.67069
-5.67189
-5.67313
-5.67441
-5.67561
-5.67724
-5.6793
-5.68229
-5.68562
-5.68841
-5.6943
-5.70022
-5.72789
-5.80586
-5.67458
-5.7603
-5.65443
-5.94989
-5.4979
)
;

boundaryField
{
    leftWall
    {
        type            calculated;
        value           nonuniform List<scalar> 
50
(
526.03
467.059
407.398
347.792
288.807
230.611
172.972
115.277
45.5868
0.513271
0.301396
0.177378
-0.00511928
-0.190655
-0.359695
-0.523733
-0.684202
-0.841256
-0.996754
-1.15125
-1.30517
-1.45886
-1.6125
-1.7662
-1.92
-2.07388
-2.22778
-2.38163
-2.53535
-2.68885
-2.84206
-2.99489
-3.14728
-3.29917
-3.45048
-3.60121
-3.75131
-3.90077
-4.04965
-4.19793
-4.34561
-4.49275
-4.63939
-4.7856
-4.93141
-5.0769
-5.22215
-5.36721
-5.51205
-5.65676
)
;
    }
    rightWall
    {
        type            calculated;
        value           nonuniform List<scalar> 
50
(
1245.41
1184.61
1104.6
1004.38
890.753
767.063
634.333
501.455
337.699
238.752
197.807
198.996
222.414
268.013
339.825
418.116
427.128
327.439
177.685
120.042
120.375
124.966
128.9
129.884
120.038
103.776
92.508
40.4582
16.7246
15.7596
15.857
5.75248
-1.82723
-0.847538
-0.422075
-1.81484
-3.33224
-3.83202
-3.89782
-4.13346
-4.40654
-4.2781
-4.20239
-4.36215
-4.20112
-4.44105
-5.21128
-5.27884
-4.78928
-5.4979
)
;
    }
    lowerWall
    {
        type            calculated;
        value           nonuniform List<scalar> 
62
(
555.46
552.944
553.764
558.21
567.674
582.116
599.206
615.616
631.237
647.696
666.013
686.185
707.752
730.208
752.995
775.46
796.766
814.408
827.278
832.915
828.36
840.408
879.634
850.243
785.663
723.527
669.665
622.578
577.539
523.57
473.131
411.939
428.092
448.629
454.155
764.753
735.864
692.907
629.174
562.315
507.142
469.849
398.114
773.336
746.65
938.331
1287.93
1167.64
1125.34
1108.2
781.698
424.963
281.85
242.733
238.229
251.872
268.855
281.423
419.941
888.166
1393.01
1268.15
)
;
    }
    atmosphere
    {
        type            calculated;
        value           nonuniform List<scalar> 
46
(
-5.72904
-5.72904
-5.72904
-5.72904
-5.72904
-5.72904
-5.72904
-5.72904
-5.72904
-5.72904
-5.72904
-5.72904
-5.72904
-5.72904
-5.72904
-5.72904
-5.72904
-5.72904
-5.72904
-5.72904
-5.72904
-5.72904
-5.72904
-5.72904
-5.72904
-5.72904
-5.72904
-5.72904
-5.72904
-5.72904
-5.72905
-5.72956
-5.73076
-5.73303
-5.73693
-5.74106
-5.74537
-5.75404
-5.76352
-5.81
-5.84805
-5.7553
-5.81019
-5.80788
-6.13456
-5.72904
)
;
    }
    defaultFaces
    {
        type            empty;
    }
}


// ************************************************************************* //
