/*--------------------------------*- C++ -*----------------------------------*\
| =========                 |                                                 |
| \\      /  F ield         | OpenFOAM: The Open Source CFD Toolbox           |
|  \\    /   O peration     | Version:  2012                                  |
|   \\  /    A nd           | Website:  www.openfoam.com                      |
|    \\/     M anipulation  |                                                 |
\*---------------------------------------------------------------------------*/
FoamFile
{
    version     2.0;
    format      ascii;
    class       volScalarField;
    location    "0.6";
    object      p_rgh;
}
// * * * * * * * * * * * * * * * * * * * * * * * * * * * * * * * * * * * * * //

dimensions      [1 -1 -2 0 0 0 0];


internalField   nonuniform List<scalar> 
2268
(
555.46
552.944
553.764
558.21
567.674
582.116
599.206
615.616
631.237
647.696
666.013
686.185
707.752
730.208
752.995
775.46
796.766
814.408
827.278
832.915
828.36
840.408
879.634
555.347
552.143
552.738
557.01
566.29
580.779
598.285
614.949
630.679
647.195
665.452
685.586
707.208
729.742
752.584
775.165
796.697
815.278
830.318
833.207
821.76
828.052
873.835
554.545
550.783
551.075
554.781
563.59
578.126
596.408
613.636
629.606
646.248
664.674
684.967
706.693
729.287
752.09
774.405
795.568
814.651
830.4
839.186
819.689
815.029
870.239
553.797
549.255
548.821
551.671
559.628
574.242
593.553
611.772
628.143
644.959
663.533
684.008
705.94
728.764
751.739
774.079
795.115
814.31
830.103
841.974
822.94
817.76
874.263
553.671
547.917
546.322
547.821
554.65
569.577
590.138
609.516
626.366
643.414
662.152
682.814
705.021
728.218
751.555
774.126
795.338
814.786
831.167
844.147
841.885
847.224
887.179
554.334
547.41
543.694
544.092
550.314
565.698
587.037
606.996
624.177
641.538
660.56
681.403
703.925
727.629
751.519
774.46
795.994
815.908
833.267
847.917
858.54
866.698
901.26
555.553
548.38
543.373
542.802
548.443
563.609
584.499
604.044
621.356
639.125
658.523
679.725
702.727
727.146
751.76
775.124
797.015
817.447
835.735
851.721
865.52
876.564
906.117
556.718
546.217
530.803
524.899
531.898
552.884
580.985
599.892
617.797
636.915
656.138
677.595
701.088
726.377
752.068
776.055
798.403
819.472
838.589
855.589
871.391
888.137
914.531
773.336
746.65
938.331
1287.93
1167.64
1125.34
1108.2
781.698
424.963
281.85
242.733
238.229
251.872
268.855
281.423
419.941
888.166
1393.01
1268.15
761.613
720.925
865.814
1202.85
1141.96
1104.91
1058.04
582.174
240.295
197.491
200.038
202.972
212.865
226.914
245.988
357.757
770.123
1335.32
1263.98
768.145
748.884
830.486
1115.45
1082.58
1065.77
811.321
245.905
188.729
177.344
172.455
168.835
167.446
167.385
168.253
195.578
410.898
1134.65
1236.9
819.133
726.605
805.893
1024.71
953.348
903.103
403.897
197.814
186.008
177.054
172.056
168.595
167.264
167.148
167.067
170.152
226.107
745.258
1189.6
827.116
718.751
785.457
938.647
809.006
656.404
241.706
193.209
185.314
176.494
171.059
167.665
166.73
166.823
166.73
167.642
186.448
410.297
1128.9
830.796
725.784
771.826
864.616
667.72
471.189
238.989
188.615
183.74
174.829
169.262
166.294
165.828
166.414
166.472
166.94
173.756
281.588
1058.13
852.354
759.015
771.641
805.004
539.587
405.128
388.212
180.679
180.237
172.144
166.615
164.095
164.336
165.549
166.05
166.503
168.432
252.885
978.316
839.461
801.776
784.209
753.85
407.409
353.188
493.37
173.237
175.177
168.36
163.812
162.123
162.464
163.982
165.574
166.113
166.8
247.487
898.354
425.891
338.745
265.443
257.024
279.316
335.303
419.756
492.69
549.51
601.345
646.183
673.351
698.539
726.135
753.61
778.176
800.879
822.83
843.204
861.226
877.55
891.229
900.392
1.17194
1.22119
1.13206
2.91817
33.8254
69.5321
87.6396
101.679
135.342
197.485
286.794
392.72
506.96
642.493
756.937
782.817
806.357
828.933
850.604
870.307
889.077
909.276
935.92
1.08526
1.05858
0.989554
0.917422
0.966962
0.969254
0.9344
0.910304
0.896515
0.87924
0.876593
4.92164
50.2189
136.313
275.058
435.33
565.271
719.083
838.712
872.264
891.6
911.295
930.576
1.08644
1.062
0.937846
0.857754
0.908303
0.905007
0.858499
0.834104
0.839485
0.864447
0.889668
0.920883
0.954326
0.98175
1.11569
16.2436
46.4224
94.4124
210.042
331.749
423.518
525.382
634.769
1.02913
1.01177
0.963036
0.921635
0.947358
0.917536
0.883049
0.860317
0.843145
0.834742
0.847675
0.87238
0.909333
0.95498
1.02386
1.09051
1.14911
1.21556
1.30366
1.4051
1.49896
1.62217
28.8621
0.968785
0.956675
0.936074
0.901508
0.885609
0.886035
0.873734
0.867299
0.868144
0.877884
0.895734
0.920508
0.942829
0.98289
1.05059
1.08824
1.10171
1.16553
1.28407
1.37579
1.49324
1.61206
1.67391
0.924939
0.916246
0.905003
0.887187
0.88474
0.86824
0.859754
0.854164
0.851951
0.85429
0.868217
0.887098
0.910297
0.948145
0.989745
1.05335
1.08362
1.15998
1.45121
1.57569
1.63317
1.5645
1.55138
0.886096
0.879716
0.87538
0.863718
0.859484
0.849704
0.845635
0.844634
0.848369
0.857806
0.871698
0.890288
0.911834
0.935395
0.965595
1.00062
1.03722
1.07702
1.23615
1.58964
1.66658
1.74154
1.52062
0.850821
0.847906
0.845603
0.836845
0.834531
0.829587
0.827754
0.8282
0.83155
0.838105
0.849441
0.864585
0.885708
0.913198
0.941294
0.972303
1.00506
1.03976
1.07285
1.16448
1.57283
1.59369
1.33944
0.818962
0.81742
0.816085
0.811231
0.809568
0.807355
0.807142
0.808924
0.813523
0.821264
0.832737
0.847329
0.865107
0.88663
0.91105
0.937756
0.966581
0.996332
1.02214
1.05365
1.39542
1.48111
1.17112
0.788658
0.787922
0.787223
0.78486
0.784001
0.783509
0.784477
0.787231
0.792308
0.799909
0.810301
0.823579
0.839774
0.858815
0.879643
0.902134
0.926149
0.950427
0.972461
0.98794
1.1724
1.45004
1.26519
0.759357
0.759112
0.758862
0.757876
0.757758
0.758242
0.759905
0.763077
0.768128
0.775295
0.784752
0.796543
0.810586
0.826697
0.844428
0.863667
0.883791
0.903845
0.922222
0.933631
1.12062
1.44216
1.44778
0.730629
0.730624
0.730649
0.73044
0.730812
0.731799
0.733759
0.736972
0.74171
0.748165
0.75645
0.766571
0.778483
0.792012
0.806876
0.822874
0.839534
0.855774
0.870272
0.877101
0.885047
1.08952
1.17481
0.702138
0.702238
0.702406
0.702581
0.703195
0.704359
0.706314
0.709275
0.713434
0.718933
0.725858
0.734217
0.743953
0.754932
0.766962
0.779845
0.793293
0.806814
0.818389
0.824329
0.817682
0.80213
0.796198
0.673692
0.673819
0.674022
0.674334
0.674985
0.67609
0.677811
0.680304
0.683701
0.688099
0.693553
0.700058
0.707553
0.715925
0.725013
0.734592
0.744372
0.753974
0.762362
0.766995
0.763874
0.752103
0.734616
0.645184
0.645289
0.645456
0.645748
0.646283
0.647159
0.648484
0.650359
0.652867
0.656066
0.659977
0.664572
0.669775
0.675464
0.681466
0.687535
0.69335
0.698495
0.702227
0.70291
0.697873
0.685228
0.662942
0.616575
0.616637
0.61672
0.616889
0.617206
0.617738
0.618553
0.61971
0.62125
0.623194
0.625529
0.628199
0.631103
0.634091
0.636957
0.639409
0.641065
0.641412
0.639646
0.634426
0.623748
0.605064
0.574626
0.587891
0.587895
0.587867
0.587847
0.587878
0.587994
0.588231
0.588614
0.58915
0.589826
0.590594
0.591368
0.592016
0.592356
0.592137
0.591012
0.588521
0.584041
0.576646
0.564935
0.54702
0.520354
0.480444
0.559186
0.559126
0.558967
0.558724
0.558426
0.558088
0.557718
0.55731
0.556845
0.556276
0.555527
0.554482
0.552978
0.550796
0.547645
0.543122
0.5367
0.527672
0.515039
0.49736
0.472687
0.438517
0.390833
0.530531
0.530406
0.530106
0.529623
0.528982
0.528178
0.5272
0.526017
0.524584
0.522831
0.520657
0.517917
0.514419
0.509917
0.504083
0.496484
0.486547
0.473523
0.4564
0.433784
0.403813
0.364144
0.311543
0.502008
0.50182
0.501378
0.500652
0.499672
0.498414
0.496851
0.494934
0.492597
0.489751
0.486275
0.482002
0.476717
0.470154
0.461967
0.451706
0.438791
0.42247
0.40177
0.375407
0.341726
0.29871
0.243878
0.4737
0.473454
0.472876
0.471916
0.470615
0.46893
0.466826
0.464237
0.461082
0.457258
0.452629
0.447013
0.440182
0.431859
0.421693
0.409236
0.393925
0.375045
0.351703
0.322772
0.286848
0.242258
0.187179
0.445688
0.44539
0.444687
0.443512
0.441918
0.439848
0.43726
0.434077
0.430205
0.425536
0.419922
0.413172
0.405056
0.395295
0.383544
0.369374
0.352254
0.331535
0.306426
0.275981
0.239082
0.194292
0.14037
0.418048
0.417705
0.41689
0.415525
0.413676
0.411274
0.408271
0.404581
0.400107
0.394735
0.388312
0.38065
0.371517
0.360644
0.347701
0.332286
0.313917
0.292016
0.265898
0.234797
0.198049
0.154126
0.102087
0.390851
0.390461
0.389558
0.388033
0.385972
0.383295
0.379951
0.37585
0.370893
0.364966
0.357916
0.34956
0.339675
0.328006
0.314244
0.298026
0.278922
0.256429
0.22993
0.19865
0.163392
0.120645
0.0712199
0.364164
0.363702
0.362756
0.361094
0.358872
0.355981
0.352374
0.347959
0.342642
0.336307
0.328808
0.319969
0.309584
0.297416
0.283182
0.266561
0.247179
0.224653
0.198468
0.168126
0.133296
0.0928795
0.046623
0.338042
0.337462
0.336549
0.334753
0.332428
0.329384
0.325592
0.320962
0.315404
0.308805
0.301026
0.291904
0.281253
0.268858
0.254464
0.23779
0.218495
0.196457
0.170875
0.141616
0.108259
0.0702723
0.0273605
0.312513
0.311791
0.310995
0.309029
0.306688
0.303542
0.299642
0.294891
0.289205
0.282475
0.274576
0.265355
0.254651
0.242279
0.227993
0.211611
0.192785
0.171295
0.146764
0.118922
0.0874724
0.0520978
0.0125884
0.287605
0.286747
0.286112
0.283911
0.2817
0.27846
0.274543
0.269761
0.264048
0.25731
0.249439
0.240285
0.229706
0.217611
0.203664
0.187749
0.169623
0.149062
0.12581
0.0996362
0.0703233
0.0376761
0.00156447
0.263337
0.262438
0.261807
0.259375
0.257552
0.254074
0.250307
0.245568
0.239915
0.233274
0.225588
0.216649
0.206378
0.194645
0.181253
0.166043
0.148832
0.129431
0.107656
0.0833282
0.0562908
0.0264209
-0.00634255
0.239653
0.23873
0.23817
0.235462
0.234429
0.23013
0.227022
0.222293
0.216784
0.210352
0.202909
0.194329
0.184505
0.173322
0.160633
0.146297
0.13017
0.112101
0.0919505
0.06959
0.0449088
0.0178282
-0.0116625
0.216571
0.21567
0.215007
0.212926
0.211028
0.20773
0.204248
0.199811
0.194568
0.188448
0.181374
0.173254
0.163995
0.153493
0.141637
0.12831
0.113398
0.0967851
0.0783655
0.0580476
0.0357612
0.0114563
-0.0148464
0.194081
0.193239
0.192557
0.190677
0.188708
0.185706
0.182348
0.178157
0.173238
0.167503
0.16089
0.153325
0.144727
0.135013
0.124095
0.111881
0.0982807
0.0832092
0.0665883
0.0483554
0.0284695
0.0069043
-0.0163041
0.172141
0.171389
0.170693
0.168949
0.167082
0.164266
0.161168
0.157269
0.152727
0.147446
0.141366
0.134433
0.126578
0.117736
0.107837
0.0968118
0.0845906
0.0711118
0.0563213
0.0401811
0.0226724
0.00378685
-0.0164276
0.15069
0.150064
0.149352
0.147745
0.146057
0.143365
0.140648
0.137074
0.132958
0.128193
0.122707
0.116466
0.109419
0.101513
0.092695
0.0829107
0.0721093
0.0602464
0.0472906
0.0332227
0.01804
0.00174988
-0.0155929
0.129678
0.129193
0.128479
0.127045
0.125655
0.122753
0.120852
0.11751
0.113844
0.109673
0.104816
0.0993159
0.0931296
0.0862095
0.0785137
0.070003
0.0606418
0.0504012
0.039265
0.027227
0.0142968
0.000492116
-0.0141296
0.109061
0.108701
0.108012
0.106766
0.10561
0.103124
0.101282
0.0985157
0.0953613
0.0917354
0.0875804
0.0828753
0.0775947
0.0716939
0.065148
0.0579295
0.0500165
0.0413923
0.032047
0.0219828
0.0112198
-0.000220112
-0.0122779
0.0887663
0.0885113
0.0878585
0.0867232
0.0860098
0.0839207
0.0822537
0.0799682
0.0773502
0.0743384
0.0709035
0.0670212
0.0626664
0.0578127
0.0524382
0.0465245
0.0400591
0.0330345
0.0254465
0.0173014
0.0086248
-0.000561502
-0.0102014
0.0687045
0.0685613
0.0679956
0.0670947
0.0665607
0.0649456
0.063587
0.0617796
0.0597212
0.0573545
0.0546602
0.0516179
0.048209
0.0444174
0.0402293
0.0356295
0.0306079
0.0251648
0.0193036
0.0130316
0.00637068
-0.000657292
-0.00800791
0.0488464
0.0488115
0.0483685
0.0477044
0.0473541
0.0461803
0.0451946
0.0438862
0.0424052
0.0407012
0.0387635
0.0365769
0.0341295
0.0314112
0.0284123
0.0251263
0.0215483
0.0176737
0.0135088
0.00906556
0.00435794
-0.000595355
-0.00575883
0.0292009
0.0292322
0.0289464
0.0285837
0.028275
0.0276002
0.0270194
0.0262272
0.0253353
0.0243085
0.0231412
0.0218233
0.020348
0.0187122
0.0169105
0.0149389
0.0127964
0.0104786
0.00798683
0.00533669
0.00253509
-0.000405369
-0.00346353
0.00968356
0.00974121
0.00962864
0.00950908
0.0093996
0.00916605
0.00898348
0.00871086
0.00841588
0.00807282
0.00768182
0.00724052
0.00674677
0.00620042
0.00560071
0.00494319
0.00422903
0.00346457
0.00262682
0.00175155
0.000824411
-0.000146521
-0.001154
882.786
898.95
919.488
925.014
951.485
960.099
969.371
978.144
946.697
959.751
976.264
995.836
720.341
752.548
746.842
734.056
112.495
119.346
72.6966
57.1783
1.65833
1.67905
1.86351
2.13758
1.64812
1.70755
1.81882
1.92108
1.49372
1.5364
1.74928
1.97569
1.47829
1.59797
1.67819
1.76562
1.17225
1.32784
1.4906
1.57796
1.09015
1.09915
1.19688
1.27766
1.44435
1.04397
1.09231
1.22842
0.924879
0.924179
1.15231
1.30639
0.793217
0.815778
0.988903
1.07052
0.714102
0.704154
0.680235
0.615564
0.630821
0.599369
0.551617
0.481695
0.535512
0.501488
0.454706
0.390386
0.43459
0.398244
0.353241
0.296615
0.340246
0.301785
0.256682
0.203643
0.259186
0.220517
0.176491
0.12662
0.191938
0.154491
0.112769
0.0665692
0.136908
0.101321
0.0623012
0.0197144
0.0924355
0.0589834
0.0227535
-0.0163719
0.0569898
0.0258523
-0.00754247
-0.0433002
0.0292248
0.000476172
-0.0301045
-0.0626009
0.00787099
-0.0184736
-0.0462937
-0.0756559
-0.00813536
-0.0321175
-0.0572796
-0.0836693
-0.0197198
-0.0414266
-0.0640693
-0.0876825
-0.0276693
-0.0472156
-0.067507
-0.0885645
-0.0326368
-0.0501515
-0.0682667
-0.0869901
-0.0351583
-0.050765
-0.066863
-0.0834481
-0.0356725
-0.0494755
-0.0636838
-0.0782859
-0.0345741
-0.0466549
-0.0590646
-0.0717934
-0.0322486
-0.0426817
-0.0533701
-0.0643095
-0.0290876
-0.0379577
-0.0470136
-0.0562569
-0.0254386
-0.0328448
-0.0403801
-0.0480473
-0.0215471
-0.0275975
-0.0337372
-0.0399644
-0.0175734
-0.0223742
-0.0272344
-0.0321481
-0.0136055
-0.0172426
-0.0209165
-0.0246211
-0.00967747
-0.0122204
-0.0147858
-0.0173674
-0.00577587
-0.00727568
-0.00878831
-0.0103101
-0.00191369
-0.00240695
-0.00290486
-0.00340486
919.045
874.363
817.296
675.897
103.996
182.382
279.419
163.807
166.896
162.876
160.759
160.134
160.487
162.036
164.056
165.268
166.039
251.684
817.307
986.035
963.984
907.358
487.832
-84.2898
245.379
132.79
152.875
155.608
156.143
155.831
155.832
157.109
159.322
161.786
163.744
165.002
263.602
828.197
1031.26
1051.57
1037.13
320.759
218.115
157.243
145.3
148.062
147.93
150.312
151.423
152.381
154.307
156.99
159.98
162.495
163.956
331.829
899.681
843.356
1087.32
1052.86
236.823
175.196
163.254
156.907
150.226
146.997
148.101
149.594
151.235
153.35
156.04
159.227
162.006
163.406
453.747
1016.74
298.018
759.897
807.68
174.631
173.997
169.923
163.18
154.838
150.127
149.858
151.024
152.385
154.088
156.418
159.515
162.174
163.563
606.099
1155.42
8.90183
308.253
630.331
175.739
174.086
170.574
164.916
158.597
154.26
153.394
154.016
154.724
155.711
157.522
160.397
162.924
165.317
787.321
1316.61
2.07379
57.8855
694.228
919.891
384.677
171.116
165.996
160.733
157.518
156.845
157.218
157.275
157.282
158.419
161.19
164.68
173.095
1081.12
1503.53
2.00705
2.156
238.755
929.323
1001.5
272.754
169.838
162.255
159.559
159.962
160.889
160.531
158.694
157.959
160.967
167.992
400.083
1484.61
1695.63
1.76227
1.74998
1.94161
244.884
921.737
1059.58
791.121
437.365
160.777
163.918
166.387
166.657
162.117
182.859
331.225
491.362
984.608
1685.95
1817.97
1.57574
1.68786
1.70787
1.96957
223.258
911.404
1035.39
1065.74
764.714
456.115
266.443
365.71
616.229
908.277
1288.51
1280.71
1111.24
1213.51
1744.4
1.44808
1.57569
1.67992
1.66331
1.12935
109.823
511.442
948.473
1268.07
1386.75
1290.02
1566.17
1581.03
1492.67
1410.35
942.467
507.347
545.002
1352.05
1.43872
1.38792
1.53181
1.58032
0.986842
12.579
656.029
1387.95
1461.19
1536.92
1581.71
1598.52
1554.36
1587.34
1551.02
999.894
528.713
554.27
1568.47
1.38487
1.32162
1.15731
0.767179
0.640089
164.956
1189.15
1440.45
1466.95
1219.17
576.117
442.984
470.34
951.031
1702.19
1935.49
1206.22
840.49
2013.94
1.05758
0.872113
0.458892
-0.0690537
-0.131039
-0.297523
-0.549941
96.5505
182.374
86.4618
87.2689
123.419
145.91
144.161
654.293
2070.68
2070.42
2028.47
2134.98
0.54232
0.433192
-0.0741165
-0.590047
-0.411935
-0.19482
1.17515
0.581112
-2.57699
1.76775
78.8901
231.077
279.366
144.054
305.937
1894.71
2193.6
2233.17
2169.31
0.308304
-0.024275
-0.360513
-0.66019
-0.478619
-0.28077
-0.214895
-0.859672
-2.17292
-2.98052
45.7214
386.958
412.824
323.334
424.484
1590.62
2311.13
2361.02
2031.53
0.2471
-0.0757897
-0.403203
-0.53823
-0.527815
-0.469938
-0.663165
-1.21974
-2.09044
-2.84416
-3.39349
47.9269
374.363
483.919
486.331
839.021
2173.65
2504.23
2141.09
0.181294
-0.0473993
-0.291223
-0.462038
-0.568103
-0.673644
-0.915024
-1.40531
-2.1016
-2.82053
-3.21638
-3.0588
-3.39882
110.965
51.2425
5.37587
514.929
2235.63
2319.26
0.10138
-0.0816958
-0.284532
-0.462812
-0.618663
-0.793761
-1.05456
-1.45649
-2.0143
-2.6311
-2.97982
-2.91218
-2.7535
-2.71379
-2.27592
-0.908892
6.36452
752.01
2043.68
0.0332901
-0.126342
-0.303889
-0.47774
-0.64956
-0.842515
-1.09286
-1.43298
-1.87873
-2.41234
-2.8279
-2.97584
-2.9728
-2.82938
-2.50411
-1.94117
5.99664
193.269
607.742
-0.0182851
-0.160193
-0.318986
-0.484361
-0.656943
-0.847973
-1.07699
-1.36741
-1.73517
-2.1885
-2.65215
-2.80572
-3.11524
-3.07346
-2.80946
-2.36658
-1.50832
138.229
520.903
-0.057575
-0.184897
-0.328145
-0.482195
-0.646688
-0.82681
-1.03235
-1.28018
-1.58495
-1.95908
-2.41367
-2.61127
-2.93076
-3.09934
-2.92879
-2.54945
-2.10718
151.93
882.587
-0.0867656
-0.201281
-0.330251
-0.470903
-0.622477
-0.787241
-0.970149
-1.18188
-1.43222
-1.73153
-2.08863
-2.35444
-2.57944
-2.73429
-2.66339
-2.44062
-2.07301
59.2693
916.999
-0.107151
-0.20973
-0.32491
-0.451169
-0.587759
-0.735472
-0.897393
-1.07704
-1.28265
-1.5159
-1.7739
-2.04825
-2.1841
-2.20786
-2.14124
-2.10711
-1.7857
28.2859
483.184
-0.120223
-0.211616
-0.313592
-0.425347
-0.546408
-0.676897
-0.818667
-0.973206
-1.14009
-1.31971
-1.49945
-1.66374
-1.77183
-1.6426
-1.70211
-1.65437
4.43582
24.7519
27.7998
-0.12739
-0.208398
-0.297967
-0.39569
-0.501531
-0.616051
-0.740363
-0.87339
-1.01072
-1.14686
-1.26799
-1.35158
-1.36897
-1.20659
-1.22182
-1.20449
27.3088
44.5423
97.2913
-0.129892
-0.201361
-0.279489
-0.364037
-0.455499
-0.555716
-0.665642
-0.782081
-0.89757
-1.00193
-1.0796
-1.10547
-1.05257
-0.892812
-0.807045
-0.760568
35.7525
37.3299
372.979
-0.128822
-0.191659
-0.259468
-0.33206
-0.410368
-0.498101
-0.597281
-0.701224
-0.802113
-0.885797
-0.932625
-0.918102
-0.823199
-0.644879
-0.514979
2.28809
12.1322
21.3893
384.214
-0.12508
-0.180234
-0.23901
-0.301225
-0.368019
-0.446136
-0.537554
-0.633764
-0.727072
-0.796775
-0.82167
-0.77919
-0.659878
-0.47911
-0.346689
4.92307
-0.08342
6.7724
395.109
-0.119337
-0.167752
-0.218833
-0.272275
-0.329276
-0.399445
-0.478714
-0.573228
-0.663515
-0.728742
-0.73663
-0.673863
-0.539636
-0.350507
-0.239227
0.203448
-0.0659541
0.950908
406.957
-0.112023
-0.154524
-0.199077
-0.245319
-0.2942
-0.352959
-0.418976
-0.504995
-0.593133
-0.657263
-0.653215
-0.582122
-0.406423
-0.254601
-0.192758
-0.166681
-0.0588156
-0.110507
419.061
-0.103392
-0.140583
-0.179452
-0.219784
-0.261735
-0.308759
-0.35967
-0.425157
-0.504709
-0.560755
-0.550133
-0.485957
-0.298293
-0.227163
-0.204211
-0.14888
-0.0408639
-0.0699944
381.812
-0.0936377
-0.125887
-0.159523
-0.194411
-0.230281
-0.268707
-0.300082
-0.341827
-0.400053
-0.424475
-0.420234
-0.366453
-0.238182
-0.219739
-0.2051
-0.128189
-0.00755483
-0.0302292
259.069
-0.083041
-0.110573
-0.13914
-0.168641
-0.199309
-0.22789
-0.256977
-0.265675
-0.288065
-0.304613
-0.296573
-0.251262
-0.209307
-0.226081
-0.169495
-0.0911172
0.018906
-0.000492088
529.013
-0.0720384
-0.09507
-0.118691
-0.142397
-0.165202
-0.188824
-0.209181
-0.218488
-0.210026
-0.206455
-0.204251
-0.197149
-0.197909
-0.174256
-0.10814
-0.0471017
0.0418904
0.0282246
672.885
-0.0610982
-0.079986
-0.0991402
-0.118018
-0.136192
-0.153518
-0.167309
-0.17417
-0.169319
-0.155629
-0.143475
-0.135502
-0.128209
-0.102851
-0.050596
-0.0124692
1.04248
0.0703963
691.956
-0.0505347
-0.0656952
-0.080897
-0.0956292
-0.109649
-0.122046
-0.130958
-0.134396
-0.130837
-0.121765
-0.106
-0.0914946
-0.0749726
-0.0526687
-0.0181479
0.00417639
3.10545
4.37322
710.389
-0.0404665
-0.0522803
-0.0639884
-0.0751257
-0.0855981
-0.0945236
-0.0999829
-0.101309
-0.0980543
-0.0893643
-0.0754848
-0.0598149
-0.0396467
-0.0228435
-0.00543512
0.00799743
2.63348
2.24203
727.898
-0.0308791
-0.0396836
-0.0483107
-0.0563024
-0.0639086
-0.0704346
-0.0736901
-0.0742992
-0.0720552
-0.0645784
-0.0524963
-0.0363367
-0.0139228
0.00226905
0.0128285
0.00666023
0.376254
0.138725
496.973
-0.021725
-0.0278317
-0.0337646
-0.0389669
-0.0443586
-0.0489275
-0.0511909
-0.0520712
-0.0516803
-0.0465078
-0.0385238
-0.0253796
-0.00613831
0.018593
0.0502364
0.00872487
0.0509609
0.0315834
401.484
-0.0128828
-0.0165053
-0.02016
-0.0240349
-0.0265876
-0.0293969
-0.0314195
-0.0331927
-0.0347803
-0.0333673
-0.0322981
-0.0275784
-0.0255106
-0.0400854
0.0434093
0.00191328
0.10303
-0.0975885
99.3474
-0.00425113
-0.00545134
-0.00668604
-0.00796814
-0.00916404
-0.0107988
-0.0128536
-0.0158437
-0.0191762
-0.021971
-0.0278583
-0.0337747
-0.061448
-0.0217026
-0.0081412
-0.0938598
0.0120148
-0.283446
0.168542
)
;

boundaryField
{
    leftWall
    {
        type            fixedFluxPressure;
        gradient        uniform 0;
        value           nonuniform List<scalar> 
50
(
555.46
555.347
554.545
553.797
553.671
554.334
555.553
556.718
425.891
1.17194
1.08526
1.08644
1.02913
0.968785
0.924939
0.886096
0.850821
0.818962
0.788658
0.759357
0.730629
0.702138
0.673692
0.645184
0.616575
0.587891
0.559186
0.530531
0.502008
0.4737
0.445688
0.418048
0.390851
0.364164
0.338042
0.312513
0.287605
0.263337
0.239653
0.216571
0.194081
0.172141
0.15069
0.129678
0.109061
0.0887663
0.0687045
0.0488464
0.0292009
0.00968356
)
;
    }
    rightWall
    {
        type            fixedFluxPressure;
        gradient        uniform 0;
        value           nonuniform List<scalar> 
50
(
1268.15
1263.98
1236.9
1189.6
1128.9
1058.13
978.316
898.354
817.307
828.197
899.681
1016.74
1155.42
1316.61
1503.53
1695.63
1817.97
1744.4
1352.05
1568.47
2013.94
2134.98
2169.31
2031.53
2141.09
2319.26
2043.68
607.742
520.903
882.587
916.999
483.184
27.7998
97.2913
372.979
384.214
395.109
406.957
419.061
381.812
259.069
529.013
672.885
691.956
710.389
727.898
496.973
401.484
99.3474
0.168542
)
;
    }
    lowerWall
    {
        type            fixedFluxPressure;
        gradient        uniform 0;
        value           nonuniform List<scalar> 
62
(
555.46
552.944
553.764
558.21
567.674
582.116
599.206
615.616
631.237
647.696
666.013
686.185
707.752
730.208
752.995
775.46
796.766
814.408
827.278
832.915
828.36
840.408
879.634
879.634
873.835
870.239
874.263
887.179
901.26
906.117
914.531
882.786
898.95
919.488
925.014
773.336
761.613
768.145
819.133
827.116
830.796
852.354
839.461
773.336
746.65
938.331
1287.93
1167.64
1125.34
1108.2
781.698
424.963
281.85
242.733
238.229
251.872
268.855
281.423
419.941
888.166
1393.01
1268.15
)
;
    }
    atmosphere
    {
        type            totalPressure;
        rho             rho;
        psi             none;
        gamma           1;
        p0              uniform 0;
        value           nonuniform List<scalar> 
46
(
0
0
0
0
0
0
0
0
0
0
0
0
0
0
0
0
0
0
0
0
0
0
0
0
0
0
0
0
0
0
-1.47691e-05
-0.000522758
-0.00171681
-0.00398557
-0.00788744
-0.0120157
-0.0163317
-0.0250015
-0.0344833
-0.0809618
0
-0.0262627
-0.0811488
-0.0788409
-0.405518
0
)
;
    }
    defaultFaces
    {
        type            empty;
    }
}


// ************************************************************************* //
