/*--------------------------------*- C++ -*----------------------------------*\
| =========                 |                                                 |
| \\      /  F ield         | OpenFOAM: The Open Source CFD Toolbox           |
|  \\    /   O peration     | Version:  2012                                  |
|   \\  /    A nd           | Website:  www.openfoam.com                      |
|    \\/     M anipulation  |                                                 |
\*---------------------------------------------------------------------------*/
FoamFile
{
    version     2.0;
    format      ascii;
    class       surfaceScalarField;
    location    "0.6";
    object      phi;
}
// * * * * * * * * * * * * * * * * * * * * * * * * * * * * * * * * * * * * * //

dimensions      [0 3 -1 0 0 0 0];
oriented        oriented;


internalField   nonuniform List<scalar> 
4432
(
-3.15796e-06
3.15796e-06
-5.69728e-06
2.53932e-06
-6.05064e-06
3.53355e-07
-4.98881e-06
-1.06182e-06
-2.63038e-06
-2.35844e-06
9.86489e-07
-3.61686e-06
5.13785e-06
-4.15136e-06
8.77032e-06
-3.63247e-06
1.12241e-05
-2.45376e-06
1.24189e-05
-1.1948e-06
1.25354e-05
-1.16493e-07
1.17653e-05
7.70047e-07
1.03141e-05
1.45118e-06
8.29636e-06
2.01778e-06
5.63965e-06
2.65671e-06
2.09281e-06
3.54684e-06
-2.49159e-06
4.58439e-06
-7.13278e-06
4.64119e-06
-1.03062e-05
3.17341e-06
-1.51014e-05
4.79521e-06
-2.05417e-05
5.44031e-06
-1.61163e-05
-4.42538e-06
-1.61163e-05
-3.66787e-06
6.82583e-06
-5.4292e-06
4.30064e-06
-5.39408e-06
3.18235e-07
-4.49654e-06
-1.95936e-06
-2.42484e-06
-4.43013e-06
1.02436e-06
-7.06607e-06
5.1947e-06
-8.3217e-06
8.88463e-06
-7.3224e-06
1.13509e-05
-4.91998e-06
1.25452e-05
-2.3891e-06
1.28291e-05
-4.00389e-07
1.25784e-05
1.02075e-06
1.20091e-05
2.02043e-06
1.12249e-05
2.80203e-06
1.02178e-05
3.66379e-06
8.71932e-06
5.04531e-06
6.09642e-06
7.20729e-06
1.42242e-06
9.31519e-06
-5.19701e-06
9.79285e-06
-1.1988e-05
1.15862e-05
-1.53037e-05
8.75597e-06
-1.0864e-05
-8.86501e-06
-2.69804e-05
-2.74425e-06
9.57009e-06
-3.98223e-06
5.53862e-06
-4.13189e-06
4.67897e-07
-3.7493e-06
-2.34195e-06
-2.25474e-06
-5.92469e-06
8.55212e-07
-1.0176e-05
4.91642e-06
-1.23829e-05
8.60462e-06
-1.10106e-05
1.10377e-05
-7.35302e-06
1.21488e-05
-3.50019e-06
1.22796e-05
-5.31191e-07
1.18177e-05
1.4826e-06
1.10566e-05
2.78152e-06
1.02291e-05
3.62956e-06
9.54148e-06
4.3514e-06
9.18009e-06
5.4067e-06
9.09211e-06
7.29528e-06
8.06651e-06
1.03408e-05
4.77624e-06
1.30831e-05
-4.6776e-07
1.68302e-05
-4.84749e-06
1.31357e-05
-3.55561e-06
-1.01569e-05
-3.0536e-05
-1.35809e-06
1.09282e-05
-1.8238e-06
6.00433e-06
-2.02088e-06
6.6498e-07
-1.85512e-06
-2.50771e-06
-6.07972e-07
-7.17184e-06
1.98444e-06
-1.27684e-05
5.40372e-06
-1.58022e-05
8.50792e-06
-1.41148e-05
1.05627e-05
-9.40785e-06
1.14891e-05
-4.42658e-06
1.15468e-05
-5.88806e-07
1.10619e-05
1.96743e-06
1.03038e-05
3.53964e-06
9.4901e-06
4.44327e-06
8.79725e-06
5.04424e-06
8.41013e-06
5.79382e-06
8.72337e-06
6.98204e-06
9.77353e-06
9.29061e-06
1.05492e-05
1.23074e-05
1.06284e-05
1.6751e-05
8.63505e-06
1.5129e-05
5.24463e-06
-6.76646e-06
-2.52914e-05
5.4483e-07
1.03833e-05
1.38208e-06
5.16708e-06
1.8249e-06
2.2216e-07
2.64427e-06
-3.32708e-06
4.22173e-06
-8.7493e-06
6.24198e-06
-1.47887e-05
8.12867e-06
-1.76889e-05
9.55012e-06
-1.55363e-05
1.03904e-05
-1.02481e-05
1.07186e-05
-4.75473e-06
1.06133e-05
-4.83504e-07
1.01585e-05
2.42223e-06
9.51316e-06
4.18493e-06
8.87402e-06
5.08242e-06
8.38706e-06
5.53119e-06
8.11374e-06
6.06713e-06
8.27095e-06
6.82483e-06
9.42915e-06
8.1324e-06
1.17959e-05
9.94065e-06
1.50749e-05
1.3472e-05
1.60251e-05
1.41789e-05
1.07017e-05
-1.44313e-06
-1.45896e-05
3.02902e-06
7.35433e-06
5.86865e-06
2.32745e-06
8.01198e-06
-1.92117e-06
1.04852e-05
-5.80028e-06
1.27512e-05
-1.10153e-05
1.36436e-05
-1.56811e-05
1.31599e-05
-1.72051e-05
1.21041e-05
-1.44805e-05
1.10511e-05
-9.19507e-06
1.02429e-05
-3.94654e-06
9.68897e-06
7.04058e-08
9.17727e-06
2.93393e-06
8.6493e-06
4.71289e-06
8.21925e-06
5.51247e-06
8.00586e-06
5.74459e-06
7.98901e-06
6.08397e-06
8.2528e-06
6.56104e-06
9.17324e-06
7.21195e-06
1.1166e-05
7.94792e-06
1.49002e-05
9.73784e-06
1.73457e-05
1.17334e-05
1.26034e-05
3.29918e-06
-1.98628e-06
5.4923e-06
1.86203e-06
1.10975e-05
-3.27775e-06
1.66068e-05
-7.43048e-06
2.12213e-05
-1.04148e-05
2.29244e-05
-1.27184e-05
2.13923e-05
-1.4149e-05
1.82249e-05
-1.40376e-05
1.50354e-05
-1.12911e-05
1.24478e-05
-6.60742e-06
1.05334e-05
-2.03212e-06
9.22737e-06
1.37641e-06
8.37342e-06
3.78788e-06
7.79766e-06
5.28864e-06
7.54536e-06
5.76477e-06
7.63184e-06
5.6581e-06
7.87691e-06
5.8389e-06
8.33798e-06
6.09998e-06
9.3049e-06
6.24503e-06
1.07795e-05
6.47333e-06
1.35417e-05
6.97567e-06
1.62861e-05
8.98901e-06
1.38264e-05
5.7588e-06
1.18402e-05
8.29387e-06
-6.43183e-06
1.8116e-05
-1.30999e-05
2.67291e-05
-1.60436e-05
3.03757e-05
-1.40615e-05
2.87508e-05
-1.10935e-05
2.4181e-05
-9.57921e-06
1.95775e-05
-9.43419e-06
1.59679e-05
-7.68153e-06
1.32814e-05
-3.92092e-06
1.14289e-05
-1.79587e-07
9.86783e-06
2.93746e-06
8.51538e-06
5.14033e-06
7.47964e-06
6.32438e-06
6.98119e-06
6.26322e-06
7.15324e-06
5.48605e-06
7.56627e-06
5.42588e-06
8.2227e-06
5.44355e-06
9.43954e-06
5.0282e-06
1.09874e-05
4.92549e-06
1.29367e-05
5.02634e-06
1.48443e-05
7.08143e-06
1.30832e-05
7.51985e-06
2.49234e-05
-3.48041e-05
3.48041e-05
-4.50808e-05
1.02768e-05
-1.02879e-05
-3.47929e-05
3.92192e-05
-4.95071e-05
7.45789e-05
-3.53597e-05
6.51519e-05
9.42705e-06
-1.24458e-05
7.75977e-05
-0.000106503
9.40576e-05
-0.000151997
4.54932e-05
-0.000157579
5.58241e-06
-0.000154442
-3.1372e-06
-0.000150807
-3.63511e-06
-0.000147535
-3.27219e-06
-0.000142705
-4.82977e-06
-0.000134399
-8.30539e-06
-0.000119905
-1.44947e-05
-8.12812e-05
-3.86235e-05
-1.58892e-05
-6.5392e-05
-1.58892e-05
-1.97048e-05
5.45088e-05
-1.81798e-05
8.75175e-06
4.27474e-06
-5.72474e-05
2.74831e-05
-7.27154e-05
5.91528e-05
-6.70295e-05
4.28287e-05
2.57512e-05
-8.57363e-05
0.000206163
-0.000203821
0.000212142
-0.000236285
7.79571e-05
-0.000225622
-5.08053e-06
-0.000213881
-1.48781e-05
-0.000202188
-1.53274e-05
-0.000192478
-1.29826e-05
-0.000181675
-1.56332e-05
-0.000165911
-2.40688e-05
-0.000143717
-3.66891e-05
-9.99911e-05
-8.23492e-05
-3.07722e-05
-0.000134611
-4.66614e-05
-6.66245e-06
6.11713e-05
2.90134e-06
-8.12039e-07
1.93692e-05
-7.37153e-05
4.05588e-05
-9.39051e-05
6.03568e-05
-8.68275e-05
4.10904e-05
4.50175e-05
-9.52307e-05
0.000342484
-0.000223512
0.000340423
-0.000212842
6.7288e-05
-0.000253282
3.53593e-05
-0.000279003
1.08424e-05
-0.000290019
-4.31099e-06
-0.000286722
-1.62794e-05
-0.00026679
-3.55652e-05
-0.000237468
-5.3391e-05
-0.000186804
-8.73532e-05
-0.000120725
-0.000148429
-4.16343e-05
-0.000213701
-8.82957e-05
-5.6275e-07
6.1734e-05
1.66143e-05
-1.79891e-05
3.36488e-05
-9.07498e-05
5.27941e-05
-0.00011305
6.90482e-05
-0.000103082
6.41629e-05
4.99028e-05
4.7278e-05
0.000359369
-0.000114632
0.000502333
-0.000195338
0.000147994
-0.000226602
6.66244e-05
-0.000238411
2.26515e-05
-0.000244193
1.471e-06
-0.000242666
-1.78069e-05
-0.000236395
-4.18361e-05
-0.000222491
-6.72958e-05
-0.000195632
-0.000114212
-0.000136569
-0.000207492
-4.99704e-05
-0.000300299
-0.000138266
6.74853e-06
5.49855e-05
2.8594e-05
-3.98345e-05
4.51455e-05
-0.000107301
5.99112e-05
-0.000127816
7.2798e-05
-0.000115968
6.99833e-05
5.27175e-05
5.52424e-05
0.00037411
-2.69521e-05
0.000584527
-0.000159571
0.000280613
-0.000211337
0.00011839
-0.000215521
2.68348e-05
-0.000206092
-7.95776e-06
-0.000184055
-3.98439e-05
-0.000163995
-6.18953e-05
-0.000157177
-7.41143e-05
-0.000153654
-0.000117734
-0.000125037
-0.00023611
-4.88402e-05
-0.000376496
-0.000187106
1.59859e-05
3.89996e-05
3.97705e-05
-6.36191e-05
5.25129e-05
-0.000120044
6.28913e-05
-0.000138194
7.19426e-05
-0.00012502
5.40094e-05
7.06508e-05
3.36876e-05
0.000394431
-3.9094e-05
0.000657309
-0.000154733
0.000396252
-0.000193491
0.000157148
-0.000204496
3.78396e-05
-0.0002009
-1.15536e-05
-0.000173076
-6.76672e-05
-0.00012942
-0.000105552
-9.66185e-05
-0.000106916
-8.90996e-05
-0.000125253
-7.17307e-05
-0.000253478
-4.15051e-05
-0.000406722
-0.000228611
2.86255e-05
1.03741e-05
4.88822e-05
-8.38759e-05
5.51e-05
-0.000126262
6.25253e-05
-0.00014562
6.80476e-05
-0.000130542
3.47736e-05
0.000103925
1.76057e-08
0.000429187
-8.27604e-05
0.000740087
-0.000167387
0.000480878
-0.000197629
0.00018739
-0.000217609
5.78197e-05
-0.000218432
-1.07312e-05
-0.000187678
-9.84208e-05
-0.000139209
-0.000154021
-8.6038e-05
-0.000160087
-5.03667e-05
-0.000160925
-3.12706e-05
-0.000272575
-3.19989e-05
-0.000405993
-0.00026061
4.1796e-05
-3.14219e-05
5.33111e-05
-9.53909e-05
5.36031e-05
-0.000126554
5.98793e-05
-0.000151896
6.17281e-05
-0.000132391
2.4195e-05
0.000141458
-1.17783e-05
0.000465161
-0.000122242
0.00085055
-0.000183055
0.000541691
-0.000210323
0.000214659
-0.000245029
9.25258e-05
-0.000254175
-1.58527e-06
-0.000221225
-0.000131371
-0.000167422
-0.000207823
-0.000104076
-0.000223434
-3.92217e-05
-0.000225779
-7.90039e-06
-0.000303896
-2.23667e-05
-0.000391527
-0.000282977
2.44594e-05
-3.08912e-05
4.35179e-05
-3.21584e-05
4.5751e-05
-1.82767e-05
3.61875e-05
-4.49799e-06
3.06356e-05
-5.54151e-06
2.56126e-05
-4.55621e-06
2.20998e-05
-5.92141e-06
1.99414e-05
-5.52314e-06
1.94877e-05
-3.46716e-06
2.01111e-05
-8.03047e-07
2.05945e-05
2.45409e-06
1.94908e-05
6.24398e-06
1.77597e-05
8.05554e-06
1.68153e-05
7.20758e-06
1.71782e-05
5.12318e-06
1.72029e-05
5.40122e-06
1.76277e-05
5.01874e-06
1.98271e-05
2.82881e-06
2.36217e-05
1.13084e-06
2.85578e-05
9.02013e-08
3.59549e-05
-3.15631e-07
4.64278e-05
-2.95303e-06
3.27968e-06
6.80715e-05
1.54943e-05
-4.63855e-05
-3.79133e-05
2.12492e-05
-9.61357e-05
3.99458e-05
-9.23479e-05
-8.28586e-06
-4.92534e-05
-4.8636e-05
-3.79717e-05
-1.58378e-05
-3.79016e-05
-5.99153e-06
-3.56781e-05
-7.74666e-06
-2.60687e-05
-1.30766e-05
-1.37093e-05
-1.31624e-05
-4.09881e-06
-7.1564e-06
4.43782e-06
-2.29265e-06
1.35991e-05
-1.1057e-06
1.89044e-05
1.90222e-06
2.13591e-05
2.66847e-06
2.00522e-05
6.70813e-06
1.8709e-05
6.36195e-06
2.03189e-05
1.21893e-06
2.36893e-05
-2.23954e-06
2.74615e-05
-3.682e-06
3.25074e-05
-5.36157e-06
3.78284e-05
-8.27398e-06
-9.37012e-06
5.04782e-05
-1.69386e-05
-2.94468e-05
-3.89651e-05
4.32756e-05
-6.0077e-05
6.10578e-05
-7.45238e-05
6.16098e-06
-9.93548e-05
-2.3805e-05
-0.000124814
9.6218e-06
-0.000148605
1.77995e-05
-0.000167072
1.07195e-05
-0.000176682
-3.46662e-06
-0.000171132
-1.87118e-05
-0.000145678
-3.26104e-05
-0.000110739
-3.7232e-05
-5.70448e-05
-5.47997e-05
-2.89347e-05
-2.6208e-05
-1.12718e-05
-1.49944e-05
2.57897e-06
-7.14259e-06
1.27745e-05
-3.83358e-06
2.3308e-05
-9.31456e-06
2.90692e-05
-8.00073e-06
3.24122e-05
-7.02501e-06
3.72795e-05
-1.02289e-05
4.35201e-05
-1.45146e-05
-1.62265e-05
5.03765e-05
-3.18162e-05
2.36937e-06
-1.72534e-05
2.87129e-05
-5.42506e-06
4.92295e-05
-1.20658e-05
1.28018e-05
-3.95467e-05
3.67599e-06
-5.32949e-05
2.337e-05
-5.82426e-05
2.27471e-05
-6.28151e-05
1.5292e-05
-7.41798e-05
7.89799e-06
-9.17597e-05
-1.13197e-06
-0.000118469
-5.90139e-06
-0.000137353
-1.83484e-05
-0.000150994
-4.11584e-05
-0.000145836
-3.1366e-05
-0.000130981
-2.98492e-05
-9.62088e-05
-4.19148e-05
-6.68612e-05
-3.31812e-05
-3.87486e-05
-3.74271e-05
-1.22707e-05
-3.44787e-05
2.43569e-06
-2.17314e-05
1.19037e-05
-1.96969e-05
2.05276e-05
-2.31385e-05
-2.19419e-05
2.6243e-05
-1.69592e-05
1.93285e-05
-6.67249e-06
1.84262e-05
7.85057e-06
3.47064e-05
5.91811e-06
1.47342e-05
1.05843e-06
8.53571e-06
1.10275e-06
2.33257e-05
3.37683e-06
2.04731e-05
7.39239e-06
1.12765e-05
1.13337e-05
3.95663e-06
9.07548e-06
1.12622e-06
-1.58758e-06
4.76161e-06
-2.495e-05
5.01402e-06
-5.30063e-05
-1.31022e-05
-6.58046e-05
-1.85677e-05
-6.65895e-05
-2.90643e-05
-7.72289e-05
-3.12754e-05
-8.97201e-05
-2.069e-05
-0.00010079
-2.63569e-05
-0.000106357
-2.89124e-05
-0.000113645
-1.44429e-05
-0.000115004
-1.83376e-05
-0.000110669
-2.74737e-05
-5.07344e-05
-8.18767e-05
-5.36924e-06
2.46978e-05
-9.23728e-07
1.39806e-05
8.38781e-06
2.53949e-05
6.08665e-06
1.70354e-05
-2.04168e-06
1.66641e-05
1.04957e-06
2.02345e-05
2.35999e-06
1.91627e-05
-1.26348e-06
1.49e-05
-5.76129e-06
8.45444e-06
-4.95755e-06
3.22456e-07
1.47222e-06
-1.66822e-06
8.15066e-06
-1.66447e-06
-1.834e-06
-3.11755e-06
-1.4672e-05
-5.72971e-06
-2.0767e-05
-2.29693e-05
-2.76482e-05
-2.43942e-05
-3.34916e-05
-1.48464e-05
-3.956e-05
-2.02885e-05
-3.37357e-05
-3.47367e-05
-2.51197e-05
-2.30588e-05
-3.23312e-05
-1.1126e-05
-5.99754e-05
1.70598e-07
-2.38351e-07
-0.000110471
-3.61925e-06
2.8317e-05
-9.14492e-07
1.12758e-05
3.36024e-06
2.11201e-05
1.75321e-06
1.86424e-05
-9.83024e-09
1.84271e-05
9.43756e-07
1.9281e-05
1.72732e-06
1.83791e-05
1.02208e-06
1.56052e-05
-1.51272e-06
1.09893e-05
-7.29076e-06
6.10049e-06
-1.18035e-05
2.84451e-06
-1.43181e-05
8.50151e-07
-1.62184e-05
-1.21727e-06
-1.55451e-05
-6.40303e-06
-2.17128e-05
-1.68016e-05
-2.77074e-05
-1.83995e-05
-2.85817e-05
-1.39721e-05
-2.93818e-05
-1.94883e-05
-2.61473e-05
-3.79712e-05
-8.07558e-06
-4.11305e-05
1.78614e-05
-3.70629e-05
2.68278e-05
-8.7957e-06
3.5893e-05
-9.30335e-06
-2.7396e-06
3.10565e-05
-1.91632e-06
1.04525e-05
3.41684e-07
1.88621e-05
2.95043e-07
1.8689e-05
-1.60202e-08
1.87382e-05
5.64428e-07
1.87005e-05
5.94431e-07
1.83492e-05
-6.33623e-07
1.68333e-05
-3.30153e-06
1.36572e-05
-6.12761e-06
8.92656e-06
-7.56907e-06
4.28598e-06
-6.95551e-06
2.36595e-07
-6.56112e-06
-1.61163e-06
-7.97579e-06
-4.98832e-06
-1.25898e-05
-1.21875e-05
-1.69071e-05
-1.40821e-05
-1.70307e-05
-1.38485e-05
-1.72386e-05
-1.92803e-05
-2.01308e-05
-3.50789e-05
-1.53515e-05
-4.59098e-05
-8.94564e-07
-5.15199e-05
2.254e-05
-3.22303e-05
1.9744e-05
3.86887e-05
-2.61558e-06
3.36721e-05
-2.015e-06
9.85182e-06
-3.49712e-07
1.71967e-05
-3.07288e-07
1.86466e-05
-2.39323e-07
1.86702e-05
2.27239e-07
1.8234e-05
7.41942e-07
1.78345e-05
7.66552e-07
1.68087e-05
-2.0477e-07
1.46285e-05
-2.53665e-06
1.12584e-05
-5.54254e-06
7.29188e-06
-8.32052e-06
3.0146e-06
-8.82059e-06
-1.11154e-06
-8.90281e-06
-4.90605e-06
-1.18809e-05
-9.20935e-06
-1.47302e-05
-1.12327e-05
-1.50562e-05
-1.35224e-05
-1.45896e-05
-1.97469e-05
-1.73559e-05
-3.23126e-05
-1.77649e-05
-4.55008e-05
-1.18497e-05
-5.74351e-05
-8.42488e-07
-4.32374e-05
1.09808e-06
1.78036e-05
-1.99141e-06
3.56634e-05
-1.79283e-06
9.65315e-06
-8.46315e-07
1.62502e-05
-7.73213e-07
1.85734e-05
-6.35558e-07
1.85325e-05
-3.52816e-07
1.79513e-05
7.98253e-08
1.74019e-05
3.63871e-07
1.65247e-05
5.69072e-08
1.49355e-05
-9.81039e-07
1.22964e-05
-2.5317e-06
8.84255e-06
-4.53717e-06
5.02008e-06
-7.07274e-06
1.42406e-06
-9.96685e-06
-2.0119e-06
-1.38103e-05
-5.36584e-06
-1.73576e-05
-7.68539e-06
-1.96017e-05
-1.12782e-05
-2.10529e-05
-1.82956e-05
-2.4104e-05
-2.92615e-05
-2.86065e-05
-4.09984e-05
-3.32995e-05
-5.2742e-05
-3.15935e-05
-4.49435e-05
-5.16692e-06
-2.53286e-05
-1.44692e-06
3.71103e-05
-1.55048e-06
9.75662e-06
-1.14883e-06
1.58485e-05
-1.1465e-06
1.85711e-05
-1.13898e-06
1.8525e-05
-1.09468e-06
1.7907e-05
-9.4214e-07
1.72493e-05
-8.03573e-07
1.63861e-05
-9.1964e-07
1.50515e-05
-1.63783e-06
1.30146e-05
-3.13282e-06
1.03375e-05
-5.45647e-06
7.34373e-06
-8.38755e-06
4.35514e-06
-1.18695e-05
1.4701e-06
-1.61255e-05
-1.10989e-06
-2.02032e-05
-3.60764e-06
-2.39948e-05
-7.48666e-06
-2.80551e-05
-1.42353e-05
-3.40666e-05
-2.325e-05
-4.32034e-05
-3.18616e-05
-5.73831e-05
-3.85623e-05
-7.18493e-05
-3.04774e-05
8.25286e-06
-8.5269e-05
-9.9763e-07
3.81079e-05
-1.3315e-06
1.00904e-05
-1.31178e-06
1.58287e-05
-1.46311e-06
1.87224e-05
-1.64135e-06
1.87032e-05
-1.84756e-06
1.81132e-05
-2.04201e-06
1.74438e-05
-2.2714e-06
1.66155e-05
-2.69686e-06
1.5477e-05
-3.59899e-06
1.39167e-05
-5.2099e-06
1.19484e-05
-7.60668e-06
9.74048e-06
-1.07455e-05
7.49395e-06
-1.45873e-05
5.31193e-06
-1.88303e-05
3.13301e-06
-2.32731e-05
8.35186e-07
-2.82736e-05
-2.48611e-06
-3.46359e-05
-7.8731e-06
-4.32324e-05
-1.46535e-05
-5.47488e-05
-2.03451e-05
-7.12455e-05
-2.20657e-05
-9.06123e-05
-1.11106e-05
2.39704e-05
-0.00010633
-6.71784e-07
3.87796e-05
-1.15867e-06
1.05772e-05
-1.43056e-06
1.61005e-05
-1.75214e-06
1.9044e-05
-2.10336e-06
1.90545e-05
-2.52142e-06
1.85313e-05
-3.02165e-06
1.7944e-05
-3.63234e-06
1.72262e-05
-4.45745e-06
1.63021e-05
-5.67731e-06
1.51366e-05
-7.47279e-06
1.37439e-05
-9.93278e-06
1.22004e-05
-1.30621e-05
1.06233e-05
-1.67712e-05
9.02102e-06
-2.10132e-05
7.37489e-06
-2.58307e-05
5.65268e-06
-3.17983e-05
3.48159e-06
-3.98346e-05
1.6309e-07
-5.00569e-05
-4.43118e-06
-6.18396e-05
-8.56235e-06
-7.62763e-05
-7.62888e-06
-9.40037e-05
6.61679e-06
4.04455e-05
-0.000110479
-4.66079e-07
3.92457e-05
-1.05327e-06
1.11644e-05
-1.53178e-06
1.65791e-05
-2.00006e-06
1.95123e-05
-2.49569e-06
1.95501e-05
-3.07856e-06
1.91142e-05
-3.78472e-06
1.86502e-05
-4.65474e-06
1.80963e-05
-5.76309e-06
1.74105e-05
-7.2168e-06
1.65903e-05
-9.13408e-06
1.56611e-05
-1.15997e-05
1.4666e-05
-1.46318e-05
1.36554e-05
-1.8279e-05
1.26682e-05
-2.26141e-05
1.17099e-05
-2.77932e-05
1.08318e-05
-3.43276e-05
1.0016e-05
-4.31745e-05
9.0099e-06
-5.50491e-05
7.44338e-06
-6.96758e-05
6.06442e-06
-8.61448e-05
8.84007e-06
-0.000102286
2.27583e-05
5.29094e-05
-0.00011475
-3.58351e-07
3.9604e-05
-1.01073e-06
1.18168e-05
-1.62684e-06
1.71952e-05
-2.20597e-06
2.00914e-05
-2.81075e-06
2.0155e-05
-3.50547e-06
1.98089e-05
-4.33316e-06
1.94779e-05
-5.34282e-06
1.9106e-05
-6.59042e-06
1.86581e-05
-8.14704e-06
1.81469e-05
-1.00896e-05
1.76036e-05
-1.24889e-05
1.70653e-05
-1.54086e-05
1.6575e-05
-1.89416e-05
1.62012e-05
-2.32276e-05
1.59958e-05
-2.84213e-05
1.60255e-05
-3.47521e-05
1.63469e-05
-4.28272e-05
1.70849e-05
-5.379e-05
1.84062e-05
-6.84591e-05
2.07335e-05
-8.54623e-05
2.58432e-05
-0.000100742
3.80383e-05
6.22486e-05
-0.000110082
-3.19033e-07
3.9923e-05
-1.00979e-06
1.25075e-05
-1.71029e-06
1.78957e-05
-2.35985e-06
2.0741e-05
-3.03844e-06
2.08336e-05
-3.807e-06
2.05775e-05
-4.7028e-06
2.03738e-05
-5.77016e-06
2.01734e-05
-7.0538e-06
1.99418e-05
-8.61261e-06
1.97057e-05
-1.05024e-05
1.94934e-05
-1.27828e-05
1.93457e-05
-1.55226e-05
1.93148e-05
-1.87925e-05
1.94711e-05
-2.27011e-05
1.99044e-05
-2.73851e-05
2.07095e-05
-3.30057e-05
2.19674e-05
-3.98149e-05
2.38941e-05
-4.83041e-05
2.68954e-05
-5.92353e-05
3.16647e-05
-7.26879e-05
3.92958e-05
-8.62025e-05
5.15528e-05
7.07087e-05
-9.46626e-05
-3.15996e-07
4.0239e-05
-1.02857e-06
1.322e-05
-1.77445e-06
1.86415e-05
-2.45945e-06
2.1426e-05
-3.17877e-06
2.15529e-05
-3.98578e-06
2.13845e-05
-4.91108e-06
2.12991e-05
-5.98372e-06
2.12461e-05
-7.25002e-06
2.12081e-05
-8.75159e-06
2.12072e-05
-1.05342e-05
2.1276e-05
-1.2648e-05
2.14595e-05
-1.51452e-05
2.18121e-05
-1.80798e-05
2.24056e-05
-2.15135e-05
2.33381e-05
-2.55275e-05
2.47235e-05
-3.02696e-05
2.67093e-05
-3.58608e-05
2.94853e-05
-4.23576e-05
3.33922e-05
-4.9751e-05
3.9058e-05
-5.79196e-05
4.74644e-05
-6.59763e-05
5.96095e-05
7.59774e-05
-7.12451e-05
-3.24303e-07
4.05633e-05
-1.04727e-06
1.3943e-05
-1.80814e-06
1.94024e-05
-2.50612e-06
2.2124e-05
-3.23511e-06
2.22819e-05
-4.04739e-06
2.21968e-05
-4.9652e-06
2.22169e-05
-6.01291e-06
2.22938e-05
-7.22211e-06
2.24173e-05
-8.62663e-06
2.26118e-05
-1.02617e-05
2.29111e-05
-1.21621e-05
2.336e-05
-1.43644e-05
2.40143e-05
-1.69053e-05
2.49464e-05
-1.9818e-05
2.62508e-05
-2.31382e-05
2.80437e-05
-2.68938e-05
3.04649e-05
-3.11007e-05
3.36922e-05
-3.56962e-05
3.79876e-05
-4.04125e-05
4.37743e-05
-4.46561e-05
5.17081e-05
-4.75432e-05
6.24965e-05
7.62898e-05
-4.78555e-05
-3.29662e-07
4.08929e-05
-1.05579e-06
1.4669e-05
-1.80982e-06
2.01564e-05
-2.49887e-06
2.2813e-05
-3.21297e-06
2.29959e-05
-4.00183e-06
2.29857e-05
-4.88531e-06
2.31004e-05
-5.8763e-06
2.32848e-05
-6.99833e-06
2.35394e-05
-8.27564e-06
2.38891e-05
-9.7297e-06
2.43652e-05
-1.13844e-05
2.50147e-05
-1.32591e-05
2.5889e-05
-1.53672e-05
2.70545e-05
-1.77148e-05
2.85982e-05
-2.02958e-05
3.06247e-05
-2.30863e-05
3.32553e-05
-2.60229e-05
3.66288e-05
-2.89686e-05
4.09332e-05
-3.1627e-05
4.64326e-05
-3.33714e-05
5.34524e-05
-3.32496e-05
6.23747e-05
7.33101e-05
-3.02699e-05
-3.25177e-07
4.1218e-05
-1.04825e-06
1.5392e-05
-1.78016e-06
2.08882e-05
-2.43743e-06
2.34702e-05
-3.1197e-06
2.36782e-05
-3.86685e-06
2.37328e-05
-4.68772e-06
2.39214e-05
-5.59791e-06
2.41951e-05
-6.60979e-06
2.45513e-05
-7.73581e-06
2.50151e-05
-8.99152e-06
2.56209e-05
-1.03853e-05
2.64085e-05
-1.19216e-05
2.74253e-05
-1.35986e-05
2.87315e-05
-1.53997e-05
3.03992e-05
-1.72913e-05
3.25163e-05
-1.92162e-05
3.51801e-05
-2.10758e-05
3.84883e-05
-2.27063e-05
4.25636e-05
-2.3829e-05
4.75553e-05
-2.39651e-05
5.35885e-05
-2.23815e-05
6.07912e-05
6.91858e-05
-1.82573e-05
-3.06877e-07
4.15249e-05
-1.01866e-06
1.61037e-05
-1.71513e-06
2.15846e-05
-2.33157e-06
2.40867e-05
-2.96631e-06
2.43129e-05
-3.65371e-06
2.44202e-05
-4.40018e-06
2.46678e-05
-5.21176e-06
2.50067e-05
-6.09616e-06
2.54357e-05
-7.0603e-06
2.59792e-05
-8.10813e-06
2.66687e-05
-9.23924e-06
2.75396e-05
-1.04476e-05
2.86337e-05
-1.17172e-05
3.0001e-05
-1.30172e-05
3.16991e-05
-1.42979e-05
3.3797e-05
-1.54854e-05
3.63676e-05
-1.64717e-05
3.94744e-05
-1.70934e-05
4.31853e-05
-1.71122e-05
4.75741e-05
-1.61964e-05
5.26727e-05
-1.38684e-05
5.84632e-05
6.4895e-05
-9.57757e-06
-2.74201e-07
4.1799e-05
-9.65854e-07
1.67952e-05
-1.61765e-06
2.22364e-05
-2.18396e-06
2.4653e-05
-2.76157e-06
2.48906e-05
-3.38012e-06
2.50388e-05
-4.04038e-06
2.53282e-05
-4.74472e-06
2.57111e-05
-5.49584e-06
2.61868e-05
-6.29428e-06
2.67776e-05
-7.1361e-06
2.75106e-05
-8.0144e-06
2.84179e-05
-8.91561e-06
2.95348e-05
-9.81436e-06
3.08997e-05
-1.06715e-05
3.25563e-05
-1.14301e-05
3.45555e-05
-1.20111e-05
3.69485e-05
-1.23087e-05
3.97719e-05
-1.21761e-05
4.30527e-05
-1.14202e-05
4.68181e-05
-9.81162e-06
5.10642e-05
-7.05719e-06
5.57088e-05
6.06607e-05
-2.82291e-06
-2.28817e-07
4.20278e-05
-8.89708e-07
1.74561e-05
-1.48844e-06
2.28351e-05
-1.99824e-06
2.51628e-05
-2.51282e-06
2.54052e-05
-3.05634e-06
2.55823e-05
-3.62582e-06
2.58977e-05
-4.21989e-06
2.63052e-05
-4.83703e-06
2.6804e-05
-5.47291e-06
2.74135e-05
-6.1198e-06
2.81575e-05
-6.76501e-06
2.90632e-05
-7.3887e-06
3.01585e-05
-7.96099e-06
3.1472e-05
-8.43969e-06
3.30349e-05
-8.76494e-06
3.48807e-05
-8.86027e-06
3.70438e-05
-8.6295e-06
3.95411e-05
-7.94853e-06
4.23717e-05
-6.66408e-06
4.55336e-05
-4.60222e-06
4.90023e-05
-1.59517e-06
5.27017e-05
5.64769e-05
2.58863e-06
-1.72818e-07
4.22006e-05
-7.90889e-07
1.80741e-05
-1.32876e-06
2.3373e-05
-1.779e-06
2.56131e-05
-2.22718e-06
2.58533e-05
-2.69301e-06
2.60481e-05
-3.17084e-06
2.63756e-05
-3.65658e-06
2.67911e-05
-4.14544e-06
2.72928e-05
-4.62977e-06
2.78978e-05
-5.09829e-06
2.86261e-05
-5.53478e-06
2.94997e-05
-5.9148e-06
3.05386e-05
-6.20764e-06
3.17648e-05
-6.37055e-06
3.31978e-05
-6.34701e-06
3.48572e-05
-6.067e-06
3.67637e-05
-5.44549e-06
3.89196e-05
-4.37762e-06
4.13038e-05
-2.74385e-06
4.38998e-05
-3.9934e-07
4.66578e-05
2.77341e-06
4.95289e-05
5.24302e-05
6.8201e-06
-1.07695e-07
4.23082e-05
-6.72694e-07
1.8639e-05
-1.14261e-06
2.38429e-05
-1.53104e-06
2.60015e-05
-1.91105e-06
2.62333e-05
-2.29867e-06
2.64357e-05
-2.68665e-06
2.67637e-05
-3.06908e-06
2.71736e-05
-3.43878e-06
2.76626e-05
-3.78626e-06
2.82453e-05
-4.09682e-06
2.89367e-05
-4.35064e-06
2.97536e-05
-4.52514e-06
3.07131e-05
-4.58769e-06
3.18274e-05
-4.49792e-06
3.31081e-05
-4.20384e-06
3.45631e-05
-3.6417e-06
3.62015e-05
-2.73961e-06
3.80174e-05
-1.4127e-06
3.99769e-05
4.52718e-07
4.20344e-05
2.92054e-06
4.419e-05
6.08721e-06
4.63623e-05
4.84738e-05
1.00435e-05
-3.08385e-08
4.2339e-05
-5.41484e-07
1.91496e-05
-9.36641e-07
2.42381e-05
-1.26177e-06
2.63267e-05
-1.57191e-06
2.65434e-05
-1.88169e-06
2.67455e-05
-2.18317e-06
2.70652e-05
-2.46857e-06
2.7459e-05
-2.73047e-06
2.79245e-05
-2.95515e-06
2.84701e-05
-3.12779e-06
2.91094e-05
-3.22981e-06
2.98557e-05
-3.23592e-06
3.07193e-05
-3.11457e-06
3.1706e-05
-2.82919e-06
3.28227e-05
-2.3338e-06
3.40677e-05
-1.57404e-06
3.54418e-05
-4.87243e-07
3.69306e-05
1.00111e-06
3.84885e-05
2.94507e-06
4.00904e-05
5.45381e-06
4.16812e-05
8.57665e-06
4.32394e-05
4.46883e-05
1.23621e-05
6.66851e-08
4.22722e-05
-4.03363e-07
1.96195e-05
-7.19593e-07
2.45543e-05
-9.81538e-07
2.65887e-05
-1.22045e-06
2.67823e-05
-1.45337e-06
2.69784e-05
-1.67174e-06
2.72836e-05
-1.86566e-06
2.76529e-05
-2.02703e-06
2.80859e-05
-2.14343e-06
2.85865e-05
-2.19986e-06
2.91659e-05
-2.17414e-06
2.983e-05
-2.04521e-06
3.05904e-05
-1.7826e-06
3.14435e-05
-1.35227e-06
3.23924e-05
-7.1525e-07
3.34307e-05
1.79002e-07
3.45475e-05
1.3813e-06
3.57283e-05
2.92093e-06
3.69488e-05
4.8891e-06
3.81222e-05
7.33672e-06
3.92335e-05
1.03253e-05
4.02508e-05
4.11298e-05
1.38838e-05
1.93718e-07
4.20785e-05
-2.58989e-07
2.00722e-05
-5.0286e-07
2.47982e-05
-7.02887e-07
2.67887e-05
-8.6783e-07
2.69472e-05
-1.02596e-06
2.71366e-05
-1.16294e-06
2.74206e-05
-1.27227e-06
2.77623e-05
-1.34116e-06
2.81549e-05
-1.35962e-06
2.86051e-05
-1.31213e-06
2.91185e-05
-1.18156e-06
2.96996e-05
-9.41241e-07
3.03502e-05
-5.69405e-07
3.10717e-05
-3.25908e-08
3.18556e-05
7.01043e-07
3.2697e-05
1.66539e-06
3.35831e-05
2.90233e-06
3.44913e-05
4.46341e-06
3.53877e-05
6.36602e-06
3.62196e-05
8.69324e-06
3.69063e-05
1.14887e-05
3.74553e-05
3.78556e-05
1.47629e-05
3.52459e-07
4.1726e-05
-1.03975e-07
2.05285e-05
-2.98982e-07
2.49933e-05
-4.39764e-07
2.69295e-05
-5.29679e-07
2.70371e-05
-6.19049e-07
2.7226e-05
-6.80388e-07
2.7482e-05
-7.08391e-07
2.77903e-05
-6.90716e-07
2.81373e-05
-6.17657e-07
2.85322e-05
-4.7692e-07
2.89779e-05
-2.50112e-07
2.94729e-05
8.51917e-08
3.00149e-05
5.48736e-07
3.06082e-05
1.16195e-06
3.12424e-05
1.95829e-06
3.19007e-05
2.96088e-06
3.25805e-05
4.20959e-06
3.32426e-05
5.73053e-06
3.38668e-05
7.56149e-06
3.43886e-05
9.71924e-06
3.47486e-05
1.22669e-05
3.49076e-05
3.49138e-05
1.52087e-05
5.30029e-07
4.11959e-05
5.9716e-08
2.09989e-05
-1.20305e-07
2.51734e-05
-2.01901e-07
2.7011e-05
-2.1992e-07
2.70552e-05
-2.56123e-07
2.72623e-05
-2.46135e-07
2.7472e-05
-1.9928e-07
2.77436e-05
-1.05962e-07
2.80441e-05
4.87148e-08
2.83776e-05
2.78589e-07
2.87481e-05
5.92069e-07
2.91595e-05
1.00748e-06
2.95996e-05
1.54377e-06
3.00719e-05
2.22675e-06
3.05594e-05
3.07258e-06
3.10548e-05
4.1111e-06
3.1542e-05
5.35901e-06
3.19947e-05
6.84274e-06
3.2383e-05
8.57694e-06
3.26544e-05
1.05819e-05
3.27437e-05
1.28844e-05
3.26051e-05
3.22888e-05
1.55093e-05
7.0529e-07
4.04905e-05
1.90803e-07
2.15134e-05
1.54541e-08
2.53488e-05
1.70031e-08
2.70095e-05
1.48863e-08
2.70574e-05
4.4763e-08
2.72324e-05
1.03898e-07
2.74129e-05
2.08969e-07
2.76386e-05
3.68659e-07
2.78845e-05
5.88561e-07
2.81578e-05
8.83674e-07
2.84531e-05
1.26875e-06
2.87745e-05
1.75429e-06
2.91141e-05
2.36079e-06
2.94654e-05
3.10059e-06
2.98196e-05
3.99353e-06
3.01619e-05
5.06095e-06
3.04746e-05
6.31735e-06
3.07383e-05
7.77925e-06
3.09211e-05
9.45647e-06
3.09772e-05
1.13478e-05
3.08523e-05
1.34641e-05
3.04888e-05
2.99178e-05
1.58351e-05
8.77387e-07
3.96131e-05
3.18258e-07
2.20726e-05
1.38784e-07
2.55282e-05
1.53359e-07
2.69949e-05
1.80696e-07
2.70301e-05
2.37561e-07
2.71755e-05
3.30467e-07
2.732e-05
4.7005e-07
2.7499e-05
6.66818e-07
2.76878e-05
9.31406e-07
2.78933e-05
1.27271e-06
2.81119e-05
1.70198e-06
2.83452e-05
2.23406e-06
2.8582e-05
2.88218e-06
2.88174e-05
3.66326e-06
2.90386e-05
4.59034e-06
2.92348e-05
5.67953e-06
2.93854e-05
6.94497e-06
2.94728e-05
8.39922e-06
2.94668e-05
1.00483e-05
2.93281e-05
1.18828e-05
2.90178e-05
1.39045e-05
2.8467e-05
2.76987e-05
1.61236e-05
1.0467e-06
3.85665e-05
4.26743e-07
2.26926e-05
2.13251e-07
2.57416e-05
2.25251e-07
2.6983e-05
2.57027e-07
2.69983e-05
3.11448e-07
2.71211e-05
4.1094e-07
2.72206e-05
5.56295e-07
2.73537e-05
7.61414e-07
2.74827e-05
1.03351e-06
2.76213e-05
1.38478e-06
2.77607e-05
1.82236e-06
2.79077e-05
2.36058e-06
2.80439e-05
3.01232e-06
2.81656e-05
3.79329e-06
2.82576e-05
4.71583e-06
2.83122e-05
5.79753e-06
2.83036e-05
7.04465e-06
2.82256e-05
8.47293e-06
2.80385e-05
1.00877e-05
2.77134e-05
1.18864e-05
2.72192e-05
1.38553e-05
2.64982e-05
2.5549e-05
1.60051e-05
1.20243e-06
3.73641e-05
5.12023e-07
2.3383e-05
2.45212e-07
2.60084e-05
2.35167e-07
2.69931e-05
2.40323e-07
2.69932e-05
2.72997e-07
2.70885e-05
3.46952e-07
2.71466e-05
4.71548e-07
2.72291e-05
6.52377e-07
2.7302e-05
8.98009e-07
2.73757e-05
1.21617e-06
2.74426e-05
1.61869e-06
2.75053e-05
2.11732e-06
2.75453e-05
2.72491e-06
2.7558e-05
3.45512e-06
2.75273e-05
4.32249e-06
2.74448e-05
5.33453e-06
2.72915e-05
6.51103e-06
2.70491e-05
7.85941e-06
2.66902e-05
9.38611e-06
2.61867e-05
1.10969e-05
2.55084e-05
1.29862e-05
2.4609e-05
2.34913e-05
1.5044e-05
1.31737e-06
3.60468e-05
5.70205e-07
2.41301e-05
2.48575e-07
2.63301e-05
1.96825e-07
2.70448e-05
1.53712e-07
2.70363e-05
1.56847e-07
2.70853e-05
1.80945e-07
2.71225e-05
2.63591e-07
2.71465e-05
3.95616e-07
2.71699e-05
5.86251e-07
2.71851e-05
8.40615e-07
2.71883e-05
1.1772e-06
2.71687e-05
1.59855e-06
2.71239e-05
2.11976e-06
2.70368e-05
2.75051e-06
2.68965e-05
3.5063e-06
2.66889e-05
4.39802e-06
2.63998e-05
5.43694e-06
2.60102e-05
6.63344e-06
2.54937e-05
7.99746e-06
2.48227e-05
9.53603e-06
2.39699e-05
1.12435e-05
2.29016e-05
2.16213e-05
1.31135e-05
1.36985e-06
3.46769e-05
5.931e-07
2.49069e-05
2.32605e-07
2.66906e-05
1.32401e-07
2.7145e-05
3.29419e-08
2.71357e-05
-6.84691e-09
2.71251e-05
-2.23495e-08
2.7138e-05
4.6656e-09
2.71194e-05
7.68699e-08
2.70977e-05
2.01131e-07
2.70609e-05
3.84328e-07
2.70051e-05
6.34077e-07
2.6919e-05
9.61383e-07
2.67966e-05
1.37346e-06
2.66247e-05
1.88132e-06
2.63886e-05
2.49708e-06
2.60732e-05
3.23144e-06
2.56655e-05
4.0929e-06
2.51488e-05
5.08853e-06
2.4498e-05
6.2299e-06
2.36813e-05
7.51516e-06
2.26847e-05
8.95694e-06
2.14599e-05
2.00377e-05
1.05406e-05
1.36473e-06
3.33122e-05
5.84543e-07
2.56872e-05
2.04499e-07
2.70707e-05
7.06758e-08
2.72788e-05
-6.22112e-08
2.72685e-05
-1.60079e-07
2.72229e-05
-2.16011e-07
2.71938e-05
-2.36264e-07
2.71396e-05
-2.16416e-07
2.70779e-05
-1.53622e-07
2.69981e-05
-3.93995e-08
2.68909e-05
1.29954e-07
2.67496e-05
3.62136e-07
2.65644e-05
6.65686e-07
2.63211e-05
1.05044e-06
2.60039e-05
1.52731e-06
2.55963e-05
2.10126e-06
2.50915e-05
2.7782e-06
2.44718e-05
3.56405e-06
2.37122e-05
4.47175e-06
2.27737e-05
5.49413e-06
2.16623e-05
6.63863e-06
2.03154e-05
1.87854e-05
7.8909e-06
1.28816e-06
3.20241e-05
5.41692e-07
2.64337e-05
1.74686e-07
2.74376e-05