/*--------------------------------*- C++ -*----------------------------------*\
| =========                 |                                                 |
| \\      /  F ield         | OpenFOAM: The Open Source CFD Toolbox           |
|  \\    /   O peration     | Version:  2012                                  |
|   \\  /    A nd           | Website:  www.openfoam.com                      |
|    \\/     M anipulation  |                                                 |
\*---------------------------------------------------------------------------*/
FoamFile
{
    version     2.0;
    format      ascii;
    class       volVectorField;
    location    "0.00014";
    object      U;
}
// * * * * * * * * * * * * * * * * * * * * * * * * * * * * * * * * * * * * * //

dimensions      [0 1 -1 0 0 0 0];


internalField   nonuniform List<vector> 
5000
(
(4.835247244e-14 0 0)
(6.309779432e-14 0 0)
(7.209664401e-14 0 0)
(7.183064892e-14 0 0)
(6.371182443e-14 0 0)
(5.205300844e-14 0 0)
(3.24226651e-14 0 0)
(1.956733463e-14 0 0)
(1.057049641e-14 0 0)
(1.184272582e-15 0 0)
(-1.225892124e-14 0 0)
(-2.325550324e-14 0 0)
(-2.972174037e-14 0 0)
(-2.914983244e-14 0 0)
(-3.34903692e-14 0 0)
(-3.422556029e-14 0 0)
(-3.708140246e-14 0 0)
(-4.362201211e-14 0 0)
(-4.752488803e-14 0 0)
(-4.661027771e-14 0 0)
(-3.955814714e-14 0 0)
(-2.785801874e-14 0 0)
(-1.82964373e-14 0 0)
(-1.555131078e-14 0 0)
(-2.459928927e-14 0 0)
(-3.249791136e-14 0 0)
(-1.157312879e-13 0 0)
(-1.838335843e-13 0 0)
(-1.221355598e-13 0 0)
(-1.34123772e-13 0 0)
(-1.106694596e-13 0 0)
(-1.816141986e-14 0 0)
(2.683128392e-14 0 0)
(4.883497391e-14 0 0)
(8.448087077e-14 0 0)
(1.345241556e-13 0 0)
(1.623511264e-13 0 0)
(1.772694931e-13 0 0)
(1.592078087e-13 0 0)
(1.610992121e-13 0 0)
(2.193439379e-13 0 0)
(2.807855084e-13 0 0)
(1.703424236e-13 0 0)
(9.104188937e-14 0 0)
(1.070160677e-13 0 0)
(9.731499929e-14 0 0)
(9.798210822e-14 0 0)
(1.098211025e-13 0 0)
(1.274559665e-13 0 0)
(1.053417381e-13 0 0)
(1.593119244e-13 0 0)
(1.519580813e-13 0 0)
(1.538921244e-13 0 0)
(1.527011803e-13 0 0)
(1.610529473e-13 0 0)
(1.846329796e-13 0 0)
(2.175300537e-13 0 0)
(2.287410396e-13 0 0)
(2.319194229e-13 0 0)
(2.187590194e-13 0 0)
(2.00706816e-13 0 0)
(1.873056753e-13 0 0)
(1.842498438e-13 0 0)
(1.902195839e-13 0 0)
(2.096468325e-13 0 0)
(2.298629137e-13 0 0)
(2.342992629e-13 0 0)
(2.125107438e-13 0 0)
(1.778305121e-13 0 0)
(1.479771612e-13 0 0)
(1.395533206e-13 0 0)
(1.461629798e-13 0 0)
(1.52863965e-13 0 0)
(1.763994239e-13 0 0)
(1.874051637e-13 0 0)
(6.618767922e-14 0 0)
(-1.394979603e-14 0 0)
(-4.450102515e-14 0 0)
(-7.388125751e-14 0 0)
(-8.067029498e-14 0 0)
(-9.232985777e-14 0 0)
(-9.819334978e-14 0 0)
(-1.05209621e-13 0 0)
(-1.095396366e-13 0 0)
(-1.08482097e-13 0 0)
(-1.075542022e-13 0 0)
(-1.080266401e-13 0 0)
(-1.062775363e-13 0 0)
(-1.044856013e-13 0 0)
(-1.01428138e-13 0 0)
(-9.188904008e-14 0 0)
(-8.028736977e-14 0 0)
(-5.704075153e-14 0 0)
(-2.384215666e-14 0 0)
(2.698331369e-16 0 0)
(7.230989499e-14 0 0)
(1.563674244e-13 0 0)
(1.290034067e-13 0 0)
(5.883896586e-14 0 0)
(1.041741381e-13 0 0)
(1.409785286e-13 0 0)
(3.211856882e-14 0 0)
(-4.470296314e-14 0 0)
(-3.221577877e-14 0 0)
(-2.279819379e-14 0 0)
(-9.138317159e-15 0 0)
(1.19424476e-14 0 0)
(4.012582206e-14 0 0)
(6.603386305e-14 0 0)
(8.971416872e-14 0 0)
(9.916650019e-14 0 0)
(1.021324789e-13 0 0)
(1.125290046e-13 0 0)
(1.181037286e-13 0 0)
(1.151852583e-13 0 0)
(8.620974983e-14 0 0)
(6.526071168e-14 0 0)
(8.142524047e-14 0 0)
(1.128815137e-13 0 0)
(1.264429802e-13 0 0)
(1.254680757e-13 0 0)
(1.24529833e-13 0 0)
(1.068787349e-13 0 0)
(8.337230027e-14 0 0)
(5.783779773e-14 0 0)
(4.335195377e-14 0 0)
(3.820722026e-14 0 0)
(2.758189239e-14 0 0)
(1.839456895e-14 0 0)
(7.444609448e-15 0 0)
(5.461172499e-15 0 0)
(4.275580329e-15 0 0)
(3.387560143e-15 0 0)
(7.191864674e-15 0 0)
(1.00744984e-14 0 0)
(1.405857954e-14 0 0)
(1.531460175e-14 0 0)
(1.709666302e-14 0 0)
(1.585659962e-14 0 0)
(1.788900945e-14 0 0)
(1.843382196e-14 0 0)
(2.211032921e-14 0 0)
(1.768229066e-14 0 0)
(1.329276209e-14 0 0)
(9.732507088e-15 0 0)
(8.705579082e-15 0 0)
(8.565794085e-15 0 0)
(7.299381957e-15 0 0)
(1.058844612e-15 0 0)
(-9.17768696e-15 0 0)
(-2.280106159e-14 0 0)
(-3.968343615e-14 0 0)
(-5.862862342e-14 0 0)
(-8.00435573e-14 0 0)
(-1.161141903e-13 0 0)
(-1.349646845e-13 0 0)
(-1.335471777e-13 0 0)
(-1.115778439e-13 0 0)
(-8.984952208e-14 0 0)
(-1.023116522e-13 0 0)
(-1.2116621e-13 0 0)
(-1.238471938e-13 0 0)
(-1.036476992e-13 0 0)
(-6.477584434e-14 0 0)
(-4.945817838e-14 0 0)
(-7.053556187e-14 0 0)
(-1.078086016e-13 0 0)
(-1.192290643e-13 0 0)
(-1.208745128e-13 0 0)
(-1.280680303e-13 0 0)
(-1.307066614e-13 0 0)
(-1.266722648e-13 0 0)
(-1.034450142e-13 0 0)
(-7.453223797e-14 0 0)
(-5.369342956e-14 0 0)
(-4.490934913e-14 0 0)
(-4.411951209e-14 0 0)
(-5.091261881e-14 0 0)
(-6.565660798e-14 0 0)
(-8.337299306e-14 0 0)
(-9.089134987e-14 0 0)
(-9.133615843e-14 0 0)
(-8.779671165e-14 0 0)
(-8.433689125e-14 0 0)
(-7.619353381e-14 0 0)
(-5.921100519e-14 0 0)
(-4.405007393e-14 0 0)
(-2.428965674e-14 0 0)
(-1.050753821e-14 0 0)
(1.934396223e-15 0 0)
(1.202462561e-14 0 0)
(2.240461901e-14 0 0)
(3.06440471e-14 0 0)
(3.57060218e-14 0 0)
(4.444197959e-14 0 0)
(5.164747845e-14 0 0)
(5.888370373e-14 0 0)
(6.478322861e-14 0 0)
(7.644167393e-14 0 0)
(8.337853453e-14 0 0)
(9.337375653e-14 0 0)
(9.792149844e-14 0 0)
(9.268526735e-14 0 0)
(7.690435847e-14 0 0)
(6.189759923e-14 0 0)
(5.254206745e-14 0 0)
(4.802771963e-14 0 0)
(4.979391678e-14 0 0)
(5.077362571e-14 0 0)
(5.387558836e-14 0 0)
(5.341117759e-14 0 0)
(4.956912141e-14 0 0)
(4.618997403e-14 0 0)
(3.327003335e-14 0 0)
(2.169111203e-14 0 0)
(7.080263809e-15 0 0)
(-5.159909379e-15 0 0)
(-1.62099996e-14 0 0)
(-3.33255342e-14 0 0)
(-4.334576108e-14 0 0)
(-4.817413958e-14 0 0)
(-5.152756752e-14 0 0)
(-5.159608576e-14 0 0)
(-4.9642938e-14 0 0)
(-4.611387276e-14 0 0)
(-3.834697793e-14 0 0)
(-3.032127638e-14 0 0)
(-2.223731511e-14 0 0)
(-1.46789434e-14 0 0)
(-8.003242067e-15 0 0)
(8.418911277e-16 0 0)
(1.076930944e-14 0 0)
(2.568576832e-14 0 0)
(3.955315784e-14 0 0)
(4.412118343e-14 0 0)
(4.604604321e-14 0 0)
(4.222454295e-14 0 0)
(3.768473181e-14 0 0)
(3.6172492e-14 0 0)
(3.737468017e-14 0 0)
(3.279747967e-14 0 0)
(2.958238031e-14 0 0)
(2.742182418e-14 0 0)
(2.972026246e-14 0 0)
(3.538622725e-14 0 0)
(4.475599208e-14 0 0)
(6.338833134e-14 0 0)
(9.375689009e-14 0 0)
(1.219434088e-13 0 0)
(1.337301644e-13 0 0)
(1.359802125e-13 0 0)
(1.348539198e-13 0 0)
(1.349442547e-13 0 0)
(1.300316309e-13 0 0)
(1.296184677e-13 0 0)
(1.200520374e-13 0 0)
(1.095496836e-13 0 0)
(8.664827345e-14 0 0)
(6.703142519e-14 0 0)
(4.620233238e-14 0 0)
(3.266637337e-14 0 0)
(2.077034726e-14 0 0)
(1.184588885e-14 0 0)
(5.647880541e-15 0 0)
(1.442558165e-15 0 0)
(-4.38585277e-15 0 0)
(-1.016958442e-14 0 0)
(-1.564430602e-14 0 0)
(-2.156425876e-14 0 0)
(-2.679037145e-14 0 0)
(-2.64322755e-14 0 0)
(-2.367128544e-14 0 0)
(-1.82539267e-14 0 0)
(-3.929561439e-15 0 0)
(8.320863969e-15 0 0)
(1.642372333e-14 0 0)
(2.015827909e-14 0 0)
(2.033756465e-14 0 0)
(1.341033161e-14 0 0)
(4.984244345e-15 0 0)
(-1.457900918e-14 0 0)
(-2.694260607e-14 0 0)
(-3.103003626e-14 0 0)
(-3.002669986e-14 0 0)
(-2.664934616e-14 0 0)
(-2.125944098e-14 0 0)
(-1.530187209e-14 0 0)
(-1.582382217e-14 0 0)
(-1.489356698e-14 0 0)
(-1.329299901e-14 0 0)
(-1.043806161e-14 0 0)
(-8.330233451e-15 0 0)
(-6.259024295e-15 0 0)
(-2.963134224e-15 0 0)
(2.81232028e-15 0 0)
(8.655468245e-15 0 0)
(1.4103952e-14 0 0)
(1.864522004e-14 0 0)
(1.971740212e-14 0 0)
(1.92855084e-14 0 0)
(1.623760884e-14 0 0)
(1.167426041e-14 0 0)
(8.305154122e-16 0 0)
(-3.324882737e-15 0 0)
(-1.375487985e-14 0 0)
(-2.066758875e-14 0 0)
(-2.660570585e-14 0 0)
(-3.041752094e-14 0 0)
(-2.625773644e-14 0 0)
(-2.115134176e-14 0 0)
(-1.581501031e-14 0 0)
(-3.748979733e-15 0 0)
(6.746396866e-15 0 0)
(2.461159845e-14 0 0)
(3.101645298e-14 0 0)
(3.305222199e-14 0 0)
(3.411048683e-14 0 0)
(3.607351599e-14 0 0)
(3.548716063e-14 0 0)
(3.098637258e-14 0 0)
(2.478881844e-14 0 0)
(1.861733593e-14 0 0)
(6.964358972e-15 0 0)
(4.484541597e-15 0 0)
(7.017586186e-15 0 0)
(1.230170033e-14 0 0)
(1.69608638e-14 0 0)
(1.592873034e-14 0 0)
(1.042785097e-14 0 0)
(1.105537792e-14 0 0)
(5.099987864e-15 0 0)
(-9.18546932e-16 0 0)
(-1.088050084e-14 0 0)
(-1.739341664e-14 0 0)
(-2.318819077e-14 0 0)
(-2.628338249e-14 0 0)
(-3.760573199e-14 0 0)
(-4.604054338e-14 0 0)
(-5.705401334e-14 0 0)
(-6.153740615e-14 0 0)
(-6.534532348e-14 0 0)
(-5.712563685e-14 0 0)
(-4.077606762e-14 0 0)
(-2.525360846e-14 0 0)
(-7.940190241e-15 0 0)
(3.040407177e-15 0 0)
(9.778851575e-15 0 0)
(2.2238469e-14 0 0)
(2.96486178e-14 0 0)
(3.417493735e-14 0 0)
(3.078513264e-14 0 0)
(2.506527962e-14 0 0)
(1.824825296e-14 0 0)
(1.303203372e-14 0 0)
(9.250914106e-15 0 0)
(1.975460985e-15 0 0)
(-2.474553133e-15 0 0)
(-9.98524417e-15 0 0)
(-1.099648454e-14 0 0)
(-5.352668642e-15 0 0)
(3.94996869e-15 0 0)
(2.72878671e-14 0 0)
(3.650489227e-14 0 0)
(4.382351224e-14 0 0)
(4.450623238e-14 0 0)
(4.443861922e-14 0 0)
(3.672646726e-14 0 0)
(2.140506541e-14 0 0)
(5.225840325e-15 0 0)
(-7.679916194e-15 0 0)
(-1.598421609e-14 0 0)
(-2.045918518e-14 0 0)
(-1.903603046e-14 0 0)
(-1.413127828e-14 0 0)
(-5.755814135e-15 0 0)
(1.584927884e-15 0 0)
(5.898537537e-15 0 0)
(2.686039188e-15 0 0)
(-2.539531031e-15 0 0)
(-5.725758341e-15 0 0)
(-6.242542184e-15 0 0)
(-6.381462702e-15 0 0)
(-5.089192976e-15 0 0)
(-4.63267262e-15 0 0)
(-3.903997548e-15 0 0)
(-6.218695022e-15 0 0)
(-7.988661684e-15 0 0)
(-4.113293922e-15 0 0)
(1.909611444e-15 0 0)
(8.576071439e-15 0 0)
(1.447788164e-14 0 0)
(1.473734708e-14 0 0)
(1.125173982e-14 0 0)
(7.692238852e-15 0 0)
(3.004637468e-15 0 0)
(-1.567472907e-15 0 0)
(-5.214063754e-15 0 0)
(-6.8931756e-15 0 0)
(-7.48347162e-15 0 0)
(-7.820747952e-15 0 0)
(3.47531626e-16 0 0)
(8.706490352e-15 0 0)
(6.618761597e-15 0 0)
(5.681266942e-15 0 0)
(2.075624946e-15 0 0)
(-1.219455077e-14 0 0)
(-3.097394244e-14 0 0)
(-4.03897512e-14 0 0)
(-3.755110755e-14 0 0)
(-3.38547571e-14 0 0)
(-2.892267415e-14 0 0)
(-2.515308473e-14 0 0)
(-2.030743931e-14 0 0)
(-9.515149669e-15 0 0)
(-3.677829989e-15 0 0)
(1.409314215e-15 0 0)
(1.18764996e-15 0 0)
(3.328649383e-15 0 0)
(9.735709014e-15 0 0)
(1.990220164e-14 0 0)
(2.742933143e-14 0 0)
(2.816753716e-14 0 0)
(2.789847232e-14 0 0)
(1.879933121e-14 0 0)
(1.241423362e-14 0 0)
(1.028417528e-14 0 0)
(1.140367748e-14 0 0)
(1.093129328e-14 0 0)
(6.80056033e-15 0 0)
(1.655548718e-15 0 0)
(-4.658445626e-15 0 0)
(-1.184395942e-14 0 0)
(-1.662702081e-14 0 0)
(-1.470226786e-14 0 0)
(-1.328761051e-14 0 0)
(-1.164988687e-14 0 0)
(-9.565347234e-15 0 0)
(-4.363819188e-15 0 0)
(-2.929284366e-15 0 0)
(5.561160793e-16 0 0)
(-2.71726404e-15 0 0)
(-1.382964886e-14 0 0)
(-2.113201808e-14 0 0)
(-2.977123415e-14 0 0)
(-2.816238416e-14 0 0)
(-2.550837021e-14 0 0)
(-1.892474841e-14 0 0)
(-9.99135184e-15 0 0)
(7.329141038e-16 0 0)
(9.360181887e-15 0 0)
(2.178544529e-14 0 0)
(2.875905757e-14 0 0)
(2.741881243e-14 0 0)
(2.497377747e-14 0 0)
(2.524071303e-14 0 0)
(2.393147046e-14 0 0)
(2.378091757e-14 0 0)
(2.280927308e-14 0 0)
(1.989168419e-14 0 0)
(1.721163757e-14 0 0)
(1.390277006e-14 0 0)
(1.197039642e-14 0 0)
(1.262700678e-14 0 0)
(1.360189126e-14 0 0)
(1.272590247e-14 0 0)
(1.249535778e-14 0 0)
(1.210723665e-14 0 0)
(1.20366454e-14 0 0)
(1.133855122e-14 0 0)
(8.43493638e-15 0 0)
(3.549023896e-15 0 0)
(-8.311816641e-15 0 0)
(-2.670544332e-14 0 0)
(-4.227831681e-14 0 0)
(-5.681195547e-14 0 0)
(-6.482305867e-14 0 0)
(-5.505154084e-14 0 0)
(-4.036558175e-14 0 0)
(-1.95239274e-14 0 0)
(1.162244114e-14 0 0)
(3.224484628e-14 0 0)
(3.960287652e-14 0 0)
(4.375222027e-14 0 0)
(4.046173603e-14 0 0)
(3.528465412e-14 0 0)
(2.443012338e-14 0 0)
(1.736895367e-14 0 0)
(9.459237548e-15 0 0)
(3.528375256e-15 0 0)
(-5.700768763e-15 0 0)
(-1.715713654e-14 0 0)
(-2.541232897e-14 0 0)
(-2.485010345e-14 0 0)
(-2.05419322e-14 0 0)
(-1.304383503e-14 0 0)
(-9.263747887e-15 0 0)
(-8.392221602e-15 0 0)
(-1.699992017e-15 0 0)
(2.703885329e-15 0 0)
(4.64467606e-15 0 0)
(1.019708769e-14 0 0)
(1.23329171e-14 0 0)
(1.422245811e-14 0 0)
(1.622112444e-14 0 0)
(1.7696248e-14 0 0)
(1.753534912e-14 0 0)
(1.577586123e-14 0 0)
(1.298799066e-14 0 0)
(7.95873171e-15 0 0)
(4.004788799e-15 0 0)
(-3.199467734e-15 0 0)
(-6.164503946e-15 0 0)
(-1.439820086e-14 0 0)
(-2.234029197e-14 0 0)
(-2.745064552e-14 0 0)
(-2.899582757e-14 0 0)
(-2.596281989e-14 0 0)
(-2.238088003e-14 0 0)
(-1.809614216e-14 0 0)
(-7.998002079e-15 0 0)
(1.088154402e-14 0 0)
(2.502486234e-14 0 0)
(3.322548566e-14 0 0)
(3.466081026e-14 0 0)
(3.400355435e-14 0 0)
(3.172452174e-14 0 0)
(3.14671236e-14 0 0)
(3.208874618e-14 0 0)
(3.484828157e-14 0 0)
(3.730808633e-14 0 0)
(3.823869597e-14 0 0)
(3.533562548e-14 0 0)
(2.795085419e-14 0 0)
(9.17447084e-15 0 0)
(-4.999349715e-15 0 0)
(-1.621508544e-14 0 0)
(-2.038480781e-14 0 0)
(-1.694877448e-14 0 0)
(-1.336311076e-14 0 0)
(-8.80397836e-15 0 0)
(-2.951110136e-15 0 0)
(7.981706249e-15 0 0)
(1.633735098e-14 0 0)
(1.976495021e-14 0 0)
(2.055037076e-14 0 0)
(1.516687902e-14 0 0)
(4.138714374e-15 0 0)
(-1.169959762e-14 0 0)
(-2.681644421e-14 0 0)
(-3.214072715e-14 0 0)
(-3.861214504e-14 0 0)
(-4.085513679e-14 0 0)
(-4.642173173e-14 0 0)
(-4.89820205e-14 0 0)
(-4.914272005e-14 0 0)
(-4.699842085e-14 0 0)
(-3.952512124e-14 0 0)
(-2.68624644e-14 0 0)
(-1.344926815e-14 0 0)
(-2.439667992e-15 0 0)
(4.046343963e-15 0 0)
(5.886059991e-15 0 0)
(3.538963367e-15 0 0)
(-2.973412411e-16 0 0)
(-4.487310422e-15 0 0)
(-2.20903615e-15 0 0)
(3.845574339e-15 0 0)
(1.409253069e-14 0 0)
(2.097656147e-14 0 0)
(2.280235316e-14 0 0)
(2.254884476e-14 0 0)
(2.149168271e-14 0 0)
(1.819766396e-14 0 0)
(1.61025745e-14 0 0)
(1.425954658e-14 0 0)
(1.194203109e-14 0 0)
(7.124384051e-15 0 0)
(1.209545145e-15 0 0)
(-1.023585285e-14 0 0)
(-1.718626091e-14 0 0)
(-1.792372463e-14 0 0)
(-1.191844507e-14 0 0)
(-2.794417124e-15 0 0)
(4.9550977e-15 0 0)
(1.313047686e-14 0 0)
(1.881081421e-14 0 0)
(2.293800963e-14 0 0)
(2.090653235e-14 0 0)
(2.004557156e-14 0 0)
(1.839611146e-14 0 0)
(1.610759059e-14 0 0)
(1.063677327e-14 0 0)
(1.395364168e-15 0 0)
(-1.125419325e-15 0 0)
(-2.835377749e-15 0 0)
(-3.712786584e-15 0 0)
(-8.520545522e-15 0 0)
(-1.373698761e-14 0 0)
(-1.562243529e-14 0 0)
(-1.862091905e-14 0 0)
(-1.902571037e-14 0 0)
(-2.185668928e-14 0 0)
(-2.177718323e-14 0 0)
(-1.665924476e-14 0 0)
(-7.939540039e-15 0 0)
(3.702020224e-15 0 0)
(9.217333559e-15 0 0)
(1.208640231e-14 0 0)
(1.494510653e-14 0 0)
(1.496356534e-14 0 0)
(1.803170712e-14 0 0)
(1.864281584e-14 0 0)
(2.143233521e-14 0 0)
(1.69152261e-14 0 0)
(1.038743545e-14 0 0)
(6.667124562e-15 0 0)
(6.923177304e-15 0 0)
(3.583706697e-15 0 0)
(3.02773076e-15 0 0)
(3.54333646e-15 0 0)
(3.841095519e-15 0 0)
(4.251542533e-15 0 0)
(-3.879360987e-16 0 0)
(-5.910807023e-15 0 0)
(-1.032716831e-14 0 0)
(-1.091659188e-14 0 0)
(-6.657180151e-15 0 0)
(-2.031142087e-15 0 0)
(1.247561499e-15 0 0)
(1.123979403e-14 0 0)
(1.590220937e-14 0 0)
(1.584992441e-14 0 0)
(1.668299141e-14 0 0)
(1.803256106e-14 0 0)
(1.731690209e-14 0 0)
(1.832720947e-14 0 0)
(1.791820849e-14 0 0)
(1.423305419e-14 0 0)
(1.049107853e-14 0 0)
(2.778432989e-15 0 0)
(-2.555177748e-15 0 0)
(-6.994408297e-15 0 0)
(-9.810467387e-15 0 0)
(-1.557405758e-14 0 0)
(-1.636530019e-14 0 0)
(-2.443981707e-14 0 0)
(-2.492849685e-14 0 0)
(-2.598294325e-14 0 0)
(-2.38432606e-14 0 0)
(-2.063474488e-14 0 0)
(-1.436294907e-14 0 0)
(-2.23087581e-15 0 0)
(7.772267059e-15 0 0)
(1.950191435e-14 0 0)
(2.914739446e-14 0 0)
(3.028796273e-14 0 0)
(2.726844879e-14 0 0)
(2.047850375e-14 0 0)
(5.583821982e-15 0 0)
(-9.908297882e-15 0 0)
(-1.628247416e-14 0 0)
(-1.595590871e-14 0 0)
(-1.272884796e-14 0 0)
(-6.954963315e-15 0 0)
(-5.689536348e-15 0 0)
(-5.715537284e-15 0 0)
(-7.448792138e-15 0 0)
(-6.320780832e-15 0 0)
(-3.639942867e-15 0 0)
(2.915519877e-16 0 0)
(2.509773383e-15 0 0)
(6.519260813e-15 0 0)
(8.01628654e-15 0 0)
(5.824041333e-15 0 0)
(2.403385507e-15 0 0)
(-2.269509435e-15 0 0)
(-2.738031243e-15 0 0)
(-4.21241732e-15 0 0)
(-5.23299616e-15 0 0)
(-5.55709583e-15 0 0)
(-3.588808437e-15 0 0)
(-2.713986833e-15 0 0)
(1.160360896e-15 0 0)
(-1.544783085e-15 0 0)
(-3.651451589e-15 0 0)
(-6.14270603e-15 0 0)
(-1.331902388e-14 0 0)
(-1.812455939e-14 0 0)
(-2.194278668e-14 0 0)
(-2.261720125e-14 0 0)
(-2.200035824e-14 0 0)
(-1.411162566e-14 0 0)
(1.787453754e-15 0 0)
(1.267459983e-14 0 0)
(2.077620822e-14 0 0)
(2.317088903e-14 0 0)
(2.38424027e-14 0 0)
(2.261033864e-14 0 0)
(1.867260037e-14 0 0)
(1.522760834e-14 0 0)
(1.129792812e-14 0 0)
(9.454431247e-15 0 0)
(9.850984336e-15 0 0)
(7.057772413e-15 0 0)
(7.460945604e-15 0 0)
(6.124110356e-15 0 0)
(4.831511429e-17 0 0)
(-3.725120933e-15 0 0)
(-5.286375467e-15 0 0)
(-3.466082154e-15 0 0)
(-1.931580317e-15 0 0)
(1.994873822e-15 0 0)
(7.817724882e-15 0 0)
(1.169448301e-14 0 0)
(2.052120626e-14 0 0)
(2.789005554e-14 0 0)
(3.514235418e-14 0 0)
(3.79758506e-14 0 0)
(3.771535403e-14 0 0)
(3.201481209e-14 0 0)
(2.070132427e-14 0 0)
(5.196289528e-15 0 0)
(-1.155840635e-14 0 0)
(-2.357799112e-14 0 0)
(-3.543815502e-14 0 0)
(-4.424685366e-14 0 0)
(-4.832290414e-14 0 0)
(-4.825558644e-14 0 0)
(-4.617104122e-14 0 0)
(-3.559543677e-14 0 0)
(-1.543910492e-14 0 0)
(1.066151056e-15 0 0)
(1.703916704e-14 0 0)
(2.80583224e-14 0 0)
(3.574498507e-14 0 0)
(3.713619361e-14 0 0)
(3.83350523e-14 0 0)
(3.435726847e-14 0 0)
(2.988800167e-14 0 0)
(1.886571981e-14 0 0)
(6.632104921e-15 0 0)
(-3.790712536e-15 0 0)
(-1.122830884e-14 0 0)
(-2.036915886e-14 0 0)
(-2.614310497e-14 0 0)
(-3.038673268e-14 0 0)
(-3.041914872e-14 0 0)
(-2.482242503e-14 0 0)
(-1.332800601e-14 0 0)
(-2.144658303e-15 0 0)
(7.899976382e-15 0 0)
(9.238458664e-15 0 0)
(1.009155316e-14 0 0)
(9.756222291e-15 0 0)
(9.75233659e-15 0 0)
(9.597472251e-15 0 0)
(8.946266918e-15 0 0)
(2.515892245e-15 0 0)
(-1.238415801e-14 0 0)
(-2.774806366e-14 0 0)
(-3.752952821e-14 0 0)
(-4.071041615e-14 0 0)
(-4.170323997e-14 0 0)
(-3.671528285e-14 0 0)
(-2.823170852e-14 0 0)
(-1.272762846e-14 0 0)
(-6.39341249e-15 0 0)
(-8.821130561e-16 0 0)
(-6.904055892e-16 0 0)
(8.487969759e-16 0 0)
(4.24142943e-15 0 0)
(7.72876186e-15 0 0)
(1.008290482e-14 0 0)
(1.172418117e-14 0 0)
(1.148637819e-14 0 0)
(1.010468154e-14 0 0)
(7.551973216e-15 0 0)
(6.786875709e-15 0 0)
(9.516474377e-15 0 0)
(9.634320963e-15 0 0)
(6.934874369e-15 0 0)
(2.521149296e-15 0 0)
(-4.02830768e-15 0 0)
(-7.922690116e-15 0 0)
(-8.710470341e-15 0 0)
(-7.216226265e-15 0 0)
(-4.922997749e-15 0 0)
(-1.869704385e-15 0 0)
(4.687150885e-15 0 0)
(5.682655848e-15 0 0)
(6.527628047e-15 0 0)
(6.18007524e-15 0 0)
(6.294888257e-15 0 0)
(6.290384286e-15 0 0)
(2.997738004e-15 0 0)
(-1.799693297e-15 0 0)
(-4.655361907e-15 0 0)
(-3.896960731e-15 0 0)
(-3.806811341e-15 0 0)
(8.936378607e-16 0 0)
(7.483981101e-15 0 0)
(8.559816677e-15 0 0)
(1.032003945e-14 0 0)
(1.378139972e-14 0 0)
(1.53536043e-14 0 0)
(1.786259856e-14 0 0)
(1.633954177e-14 0 0)
(1.596490835e-14 0 0)
(1.961996863e-14 0 0)
(2.507892341e-14 0 0)
(2.45993827e-14 0 0)
(2.242891284e-14 0 0)
(1.885327899e-14 0 0)
(1.213374917e-14 0 0)
(9.431141459e-15 0 0)
(2.573455379e-16 0 0)
(-1.021536506e-14 0 0)
(-2.383738117e-14 0 0)
(-3.28734588e-14 0 0)
(-3.529740304e-14 0 0)
(-3.755165315e-14 0 0)
(-3.965262446e-14 0 0)
(-3.506520214e-14 0 0)
(-1.58851105e-14 0 0)
(-3.530583141e-15 0 0)
(2.722645598e-15 0 0)
(4.362106171e-15 0 0)
(1.278492812e-15 0 0)
(-7.820137376e-15 0 0)
(-1.76281337e-14 0 0)
(-2.780607286e-14 0 0)
(-3.169878735e-14 0 0)
(-3.603335898e-14 0 0)
(-3.607251353e-14 0 0)
(-3.282172378e-14 0 0)
(-2.581654196e-14 0 0)
(-2.01855458e-14 0 0)
(-1.364068969e-14 0 0)
(-1.230655135e-14 0 0)
(-9.398818616e-15 0 0)
(-4.520112648e-15 0 0)
(3.082484633e-15 0 0)
(1.816673237e-14 0 0)
(3.39920478e-14 0 0)
(4.705072867e-14 0 0)
(5.20187277e-14 0 0)
(4.807031882e-14 0 0)
(4.026404261e-14 0 0)
(3.036697654e-14 0 0)
(1.234699198e-14 0 0)
(2.344946967e-16 0 0)
(-1.489403025e-14 0 0)
(-2.360417427e-14 0 0)
(-3.166554938e-14 0 0)
(-3.915362577e-14 0 0)
(-3.609666604e-14 0 0)
(-3.113498631e-14 0 0)
(-1.813805178e-14 0 0)
(-6.796728229e-15 0 0)
(-1.868539012e-16 0 0)
(3.285325962e-16 0 0)
(1.28707844e-15 0 0)
(4.940682699e-16 0 0)
(4.265150612e-15 0 0)
(6.686907105e-15 0 0)
(1.119982052e-14 0 0)
(1.394863126e-14 0 0)
(1.949696616e-14 0 0)
(2.286148293e-14 0 0)
(2.137332047e-14 0 0)
(1.666102109e-14 0 0)
(3.084332847e-15 0 0)
(-6.024892978e-15 0 0)
(-1.347661206e-14 0 0)
(-1.972309332e-14 0 0)
(-2.674035345e-14 0 0)
(-3.239908576e-14 0 0)
(-3.279655254e-14 0 0)
(-3.405330682e-14 0 0)
(-3.343110422e-14 0 0)
(-2.670397512e-14 0 0)
(-2.162593039e-14 0 0)
(-2.230911569e-14 0 0)
(-2.034261678e-14 0 0)
(-1.832240092e-14 0 0)
(-1.694222385e-14 0 0)
(-1.621412505e-14 0 0)
(-1.81135085e-14 0 0)
(-2.028483858e-14 0 0)
(-2.062156076e-14 0 0)
(-2.038010525e-14 0 0)
(-2.119759198e-14 0 0)
(-1.999844463e-14 0 0)
(-1.871193295e-14 0 0)
(-1.480611848e-14 0 0)
(-7.229373319e-15 0 0)
(3.683035961e-15 0 0)
(1.71745873e-14 0 0)
(3.032461564e-14 0 0)
(3.810787481e-14 0 0)
(3.312406777e-14 0 0)
(2.824035403e-14 0 0)
(2.472581568e-14 0 0)
(2.842092059e-14 0 0)
(3.111446367e-14 0 0)
(3.382989407e-14 0 0)
(2.904596663e-14 0 0)
(2.921904126e-14 0 0)
(2.590476269e-14 0 0)
(1.456266518e-14 0 0)
(7.92544795e-15 0 0)
(-1.859459662e-16 0 0)
(-3.088949647e-15 0 0)
(-4.311249849e-15 0 0)
(-4.726960023e-15 0 0)
(-1.53427266e-15 0 0)
(1.032544099e-14 0 0)
(1.566688184e-14 0 0)
(1.931933558e-14 0 0)
(2.232933654e-14 0 0)
(2.339333081e-14 0 0)
(2.241890583e-14 0 0)
(2.324718576e-14 0 0)
(1.88572747e-14 0 0)
(1.482022255e-14 0 0)
(7.568288027e-15 0 0)
(3.776120818e-15 0 0)
(1.688014679e-15 0 0)
(-1.865478219e-15 0 0)
(-3.82171776e-15 0 0)
(-5.376461705e-15 0 0)
(-6.096372212e-15 0 0)
(-4.544639314e-15 0 0)
(-5.434718095e-15 0 0)
(-2.80642787e-15 0 0)
(1.374966128e-16 0 0)
(1.539118724e-15 0 0)
(5.958917006e-16 0 0)
(2.434682578e-15 0 0)
(8.227307474e-15 0 0)
(1.290011478e-14 0 0)
(9.825042289e-15 0 0)
(2.666525938e-15 0 0)
(-5.884666399e-15 0 0)
(-1.01015694e-14 0 0)
(-7.187546566e-15 0 0)
(-1.176566733e-15 0 0)
(7.815440658e-15 0 0)
(1.124068802e-14 0 0)
(1.097814852e-14 0 0)
(6.599283632e-15 0 0)
(3.247233382e-15 0 0)
(2.093198594e-15 0 0)
(1.036364177e-15 0 0)
(3.840747634e-15 0 0)
(6.928853507e-15 0 0)
(7.41462296e-15 0 0)
(1.070783509e-14 0 0)
(1.1888671e-14 0 0)
(1.169884985e-14 0 0)
(1.389588167e-14 0 0)
(1.581891157e-14 0 0)
(1.53940701e-14 0 0)
(1.023634901e-14 0 0)
(2.318932016e-15 0 0)
(-5.825817446e-15 0 0)
(-1.258137646e-14 0 0)
(-2.289342965e-14 0 0)
(-3.060775721e-14 0 0)
(-4.027697116e-14 0 0)
(-4.407900174e-14 0 0)
(-5.029375714e-14 0 0)
(-5.954426581e-14 0 0)
(-6.98686041e-14 0 0)
(-8.739244937e-14 0 0)
(-1.067395564e-13 0 0)
(-1.218719455e-13 0 0)
(-1.365570788e-13 0 0)
(-1.322484623e-13 0 0)
(-1.211070566e-13 0 0)
(-1.126006546e-13 0 0)
(-1.049225191e-13 0 0)
(-1.041523837e-13 0 0)
(-1.017349429e-13 0 0)
(-9.794623763e-14 0 0)
(-8.67665285e-14 0 0)
(-7.418973311e-14 0 0)
(-6.638274812e-14 0 0)
(-7.058635716e-14 0 0)
(-8.549275824e-14 0 0)
(-1.031707723e-13 0 0)
(-1.092056257e-13 0 0)
(-1.084109766e-13 0 0)
(-9.836768431e-14 0 0)
(-7.508370363e-14 0 0)
(-5.207018398e-14 0 0)
(-3.21206778e-14 0 0)
(-2.313906444e-14 0 0)
(-1.411667376e-14 0 0)
(-1.16242731e-14 0 0)
(-1.216054257e-14 0 0)
(-1.186598189e-14 0 0)
(-9.695016758e-15 0 0)
(-4.789759205e-15 0 0)
(-1.687282938e-15 0 0)
(1.850492596e-15 0 0)
(8.074713116e-15 0 0)
(1.84363013e-14 0 0)
(3.143784424e-14 0 0)
(4.421287173e-14 0 0)
(5.976519899e-14 0 0)
(8.059749913e-14 0 0)
(9.985956974e-14 0 0)
(1.124090163e-13 0 0)
(1.14647056e-13 0 0)
(1.123406064e-13 0 0)
(1.031237594e-13 0 0)
(7.975397634e-14 0 0)
(4.680662595e-14 0 0)
(1.828051495e-14 0 0)
(-2.184128233e-15 0 0)
(-9.160948292e-15 0 0)
(-1.017970432e-14 0 0)
(-1.057172617e-14 0 0)
(-4.386646934e-15 0 0)
(1.244954778e-14 0 0)
(3.042306792e-14 0 0)
(4.475909322e-14 0 0)
(4.817271668e-14 0 0)
(4.761257363e-14 0 0)
(4.529695642e-14 0 0)
(4.451510157e-14 0 0)
(4.750613994e-14 0 0)
(5.001421061e-14 0 0)
(5.263085422e-14 0 0)
(5.251283038e-14 0 0)
(4.677896067e-14 0 0)
(4.229261251e-14 0 0)
(3.771624146e-14 0 0)
(2.964191365e-14 0 0)
(1.429164478e-14 0 0)
(-3.853601267e-15 0 0)
(-2.335197166e-14 0 0)
(-3.067589737e-14 0 0)
(-3.519060272e-14 0 0)
(-3.412378457e-14 0 0)
(-2.851279677e-14 0 0)
(-2.474773142e-14 0 0)
(-2.453061153e-14 0 0)
(-2.479809229e-14 0 0)
(-2.721235689e-14 0 0)
(-3.028282159e-14 0 0)
(-3.077643944e-14 0 0)
(-2.118075578e-14 0 0)
(-1.842061785e-15 0 0)
(2.380840466e-14 0 0)
(4.440695967e-14 0 0)
(5.995677621e-14 0 0)
(7.09175882e-14 0 0)
(7.425701436e-14 0 0)
(7.088127426e-14 0 0)
(6.2812208e-14 0 0)
(5.290339393e-14 0 0)
(3.877267871e-14 0 0)
(2.223389401e-14 0 0)
(8.842424683e-16 0 0)
(-2.190183936e-14 0 0)
(-3.988698012e-14 0 0)
(-5.065182095e-14 0 0)
(-5.341630862e-14 0 0)
(-5.148250769e-14 0 0)
(-4.206510892e-14 0 0)
(-2.723202594e-14 0 0)
(-1.115662086e-14 0 0)
(1.42639273e-15 0 0)
(1.158528377e-14 0 0)
(1.283638661e-14 0 0)
(1.532105091e-14 0 0)
(1.319906036e-14 0 0)
(6.432227948e-15 0 0)
(-2.765071842e-15 0 0)
(-1.764072558e-14 0 0)
(-3.172344999e-14 0 0)
(-4.557490811e-14 0 0)
(-5.736967043e-14 0 0)
(-7.827202708e-14 0 0)
(-9.458080834e-14 0 0)
(-1.033777717e-13 0 0)
(-1.060370684e-13 0 0)
(-1.068390334e-13 0 0)
(-9.431145182e-14 0 0)
(-6.841982132e-14 0 0)
(-3.836907009e-14 0 0)
(-5.662021803e-15 0 0)
(1.846171682e-14 0 0)
(3.660343362e-14 0 0)
(4.202358541e-14 0 0)
(4.086448965e-14 0 0)
(2.724591788e-14 0 0)
(9.550967809e-15 0 0)
(-3.654615004e-15 0 0)
(-1.847932595e-14 0 0)
(-3.899019952e-14 0 0)
(-5.804187095e-14 0 0)
(-7.413386561e-14 0 0)
(-8.675688771e-14 0 0)
(-8.941573796e-14 0 0)
(-8.927630647e-14 0 0)
(-8.952392861e-14 0 0)
(-8.583048485e-14 0 0)
(-7.571817131e-14 0 0)
(-5.819296039e-14 0 0)
(-4.186388968e-14 0 0)
(-2.339521129e-14 0 0)
(-1.459377158e-14 0 0)
(-4.200393317e-15 0 0)
(4.139944704e-15 0 0)
(1.604859124e-14 0 0)
(2.7335216e-14 0 0)
(4.47193284e-14 0 0)
(5.603122584e-14 0 0)
(7.489522883e-14 0 0)
(1.388994841e-13 0 0)
(1.518778774e-13 0 0)
(5.197211357e-14 0 0)
(8.058375127e-14 0 0)
(1.43286355e-13 0 0)
(1.311108541e-13 0 0)
(1.128591289e-13 0 0)
(5.137717005e-14 0 0)
(-5.18321024e-15 0 0)
(-1.374842656e-14 0 0)
(-2.177499456e-14 0 0)
(-3.144431895e-14 0 0)
(-4.796224462e-14 0 0)
(-7.224003896e-14 0 0)
(-8.212729798e-14 0 0)
(-8.595783441e-14 0 0)
(-7.820381142e-14 0 0)
(-6.171298654e-14 0 0)
(-2.59795896e-14 0 0)
(1.019688843e-14 0 0)
(4.893005538e-14 0 0)
(7.457419872e-14 0 0)
(8.747302185e-14 0 0)
(9.132489438e-14 0 0)
(9.564488964e-14 0 0)
(9.237357612e-14 0 0)
(8.047119237e-14 0 0)
(5.8735349e-14 0 0)
(4.098542176e-14 0 0)
(1.410245938e-14 0 0)
(1.443461772e-15 0 0)
(-1.082181372e-14 0 0)
(-1.426471596e-14 0 0)
(-1.507088657e-14 0 0)
(-1.569914574e-14 0 0)
(-1.945847082e-14 0 0)
(-3.159092124e-14 0 0)
(-4.67647877e-14 0 0)
(-5.548881685e-14 0 0)
(-5.57865982e-14 0 0)
(-5.313007041e-14 0 0)
(-4.780605528e-14 0 0)
(-4.548685231e-14 0 0)
(-4.441727946e-14 0 0)
(-4.248573016e-14 0 0)
(-3.650059642e-14 0 0)
(-2.088885601e-14 0 0)
(-4.982103734e-15 0 0)
(9.637312311e-15 0 0)
(1.487132227e-14 0 0)
(2.31188615e-14 0 0)
(2.712495373e-14 0 0)
(2.705993591e-14 0 0)
(1.997649545e-14 0 0)
(7.493399464e-15 0 0)
(-1.062338832e-14 0 0)
(-2.96924417e-14 0 0)
(-4.70994454e-14 0 0)
(-5.625640811e-14 0 0)
(-6.175886351e-14 0 0)
(-6.890440697e-14 0 0)
(-7.8232158e-14 0 0)
(-8.921097643e-14 0 0)
(-8.911777323e-14 0 0)
(-9.194207736e-14 0 0)
(-9.440460801e-14 0 0)
(-9.422632435e-14 0 0)
(-8.44831095e-14 0 0)
(-7.012706864e-14 0 0)
(-5.507563262e-14 0 0)
(-3.573012616e-14 0 0)
(-1.694268643e-14 0 0)
(3.730832883e-15 0 0)
(2.49881832e-14 0 0)
(4.840446021e-14 0 0)
(7.050875092e-14 0 0)
(7.843976858e-14 0 0)
(8.574932197e-14 0 0)
(8.525726813e-14 0 0)
(8.372112873e-14 0 0)
(8.402641018e-14 0 0)
(8.7964226e-14 0 0)
(9.061160552e-14 0 0)
(9.106318312e-14 0 0)
(8.727888994e-14 0 0)
(7.75472146e-14 0 0)
(6.246325977e-14 0 0)
(3.961765059e-14 0 0)
(1.913694873e-14 0 0)
(8.028896098e-15 0 0)
(3.356527076e-15 0 0)
(-2.558935972e-15 0 0)
(-9.784300136e-15 0 0)
(-2.61291442e-14 0 0)
(-3.248879099e-14 0 0)
(-3.523542539e-14 0 0)
(-3.848390432e-14 0 0)
(-4.393502956e-14 0 0)
(-5.88829022e-14 0 0)
(-8.251937377e-14 0 0)
(-1.050863084e-13 0 0)
(-1.096382984e-13 0 0)
(-1.056370811e-13 0 0)
(-8.983689962e-14 0 0)
(-5.923562472e-14 0 0)
(-2.87926282e-14 0 0)
(7.085600726e-16 0 0)
(1.939237533e-14 0 0)
(3.210216372e-14 0 0)
(4.654246239e-14 0 0)
(5.973075771e-14 0 0)
(6.984900982e-14 0 0)
(8.301958735e-14 0 0)
(9.155728872e-14 0 0)
(9.214518405e-14 0 0)
(9.18430653e-14 0 0)
(8.679151871e-14 0 0)
(6.81698911e-14 0 0)
(4.117928915e-14 0 0)
(9.354405526e-15 0 0)
(-1.629239269e-14 0 0)
(-3.700783783e-14 0 0)
(-4.667308751e-14 0 0)
(-5.084714032e-14 0 0)
(-5.090231149e-14 0 0)
(-5.022877407e-14 0 0)
(-4.888180251e-14 0 0)
(-5.02190808e-14 0 0)
(-4.792628369e-14 0 0)
(-4.584799328e-14 0 0)
(-3.352987212e-14 0 0)
(-1.565282233e-14 0 0)
(1.224185747e-14 0 0)
(3.747623916e-14 0 0)
(5.430184042e-14 0 0)
(6.539122951e-14 0 0)
(6.63701719e-14 0 0)
(6.77325022e-14 0 0)
(6.095834723e-14 0 0)
(4.949816031e-14 0 0)
(3.081383902e-14 0 0)
(1.326217246e-14 0 0)
(1.834482306e-15 0 0)
(-6.027663926e-15 0 0)
(-8.018120121e-15 0 0)
(-5.266604283e-15 0 0)
(1.260008306e-15 0 0)
(7.881419408e-15 0 0)
(1.574146445e-14 0 0)
(3.110481752e-14 0 0)
(4.273651881e-14 0 0)
(5.960244044e-14 0 0)
(6.793536657e-14 0 0)
(7.766064599e-14 0 0)
(9.115213972e-14 0 0)
(1.052834313e-13 0 0)
(1.09694278e-13 0 0)
(1.106065986e-13 0 0)
(1.099655075e-13 0 0)
(1.059130734e-13 0 0)
(9.035126463e-14 0 0)
(6.636450785e-14 0 0)
(4.93591643e-14 0 0)
(2.879171748e-14 0 0)
(1.280260466e-14 0 0)
(-4.629978831e-15 0 0)
(-1.533518908e-14 0 0)
(-1.945000973e-14 0 0)
(-2.330035312e-14 0 0)
(-2.251654817e-14 0 0)
(-2.256848648e-14 0 0)
(-1.825809201e-14 0 0)
(-1.306091124e-14 0 0)
(-9.164808538e-15 0 0)
(-1.063285173e-14 0 0)
(-9.720033884e-15 0 0)
(-1.35768012e-14 0 0)
(-2.010202773e-14 0 0)
(-2.300201516e-14 0 0)
(-2.332747586e-14 0 0)
(-2.229116152e-14 0 0)