/*--------------------------------*- C++ -*----------------------------------*\
| =========                 |                                                 |
| \\      /  F ield         | OpenFOAM: The Open Source CFD Toolbox           |
|  \\    /   O peration     | Version:  2012                                  |
|   \\  /    A nd           | Website:  www.openfoam.com                      |
|    \\/     M anipulation  |                                                 |
\*---------------------------------------------------------------------------*/
FoamFile
{
    version     2.0;
    format      ascii;
    class       volScalarField;
    location    "1.4";
    object      maxKappa;
}
// * * * * * * * * * * * * * * * * * * * * * * * * * * * * * * * * * * * * * //

dimensions      [0 0 0 0 0 0 0];


internalField   nonuniform List<scalar> 
160
(
0.03737017899
0.07429914482
0.1106734491
0.1464643534
0.1817117767
0.2163305354
0.2502967065
0.2835517666
0.3160270166
0.3476593584
0.378369871
0.4080664175
0.4366252138
0.4638845202
0.4896475637
0.5137342637
0.5359817582
0.5563454319
0.5753824918
0.5936578695
0.6113829671
0.6284430262
0.6448498797
0.6603729158
0.675106891
0.6882924231
0.7007270231
0.7111142245
0.721074136
0.7287471599
0.736303224
0.7412309666
0.7462961685
0.7485437343
0.7511357074
0.7511357074
0.7510935513
0.7510935513
0.7484791099
0.7464228607
0.7415834398
0.7371984542
0.730095846
0.7232911358
0.7139478046
0.7048503521
0.6934996791
0.6822943583
0.6700655507
0.6586414756
0.647251196
0.6366963219
0.6266464012
0.6174520138
0.6090282887
0.6015038726
0.5948728281
0.5891693431
0.5842265745
0.5803889168
0.5769981366
0.5749662391
0.5730865263
0.5722195484
0.5712321618
0.5709535575
0.5703738725
0.5703748247
0.5708603991
0.5719469743
0.573594398
0.5760539139
0.5791022201
0.5830481259
0.5877085461
0.59336225
0.5998566365
0.6074532909
0.6160741241
0.6256501817
0.6362105577
0.6475989332
0.6599418847
0.6729455305
0.6861938011
0.6988250498
0.7111564879
0.7225678514
0.7335890163
0.743592631
0.7532964007
0.7619470179
0.7704186546
0.7778818823
0.7852621303
0.7917725998
0.7982361965
0.8039520238
0.8096531936
0.8147421095
0.8198235661
0.8245199004
0.8291566238
0.8336879083
0.8380263273
0.8424365257
0.8464380767
0.850445364
0.8537545885
0.8565732328
0.8584709641
0.8590184467
0.8590184467
0.8578933649
0.8546876969
0.8498734185
0.8433558558
0.8353713453
0.8259674064
0.8152892319
0.8034219363
0.7904719687
0.7765392526
0.7617329448
0.7461614747
0.7299286053
0.7130975105
0.6957248462
0.6778820562
0.6596378584
0.6410507597
0.6221705648
0.6030372857
0.5836806754
0.5641228193
0.5443805234
0.524467357
0.5043938734
0.4841737807
0.4638177172
0.4433340837
0.422728493
0.4020045439
0.3811627149
0.3601947293
0.3390852875
0.3178171975
0.2963748152
0.2747468445
0.252927354
0.2309148507
0.2087102894
0.1863150575
0.1637295898
0.1409527833
0.1179823302
0.09481680736
0.07144920553
0.04785169857
0.0241011867
)
;

boundaryField
{
    sides
    {
        type            calculated;
        value           uniform 0;
    }
    empty1
    {
        type            empty;
    }
    empty2
    {
        type            empty;
    }
}


// ************************************************************************* //
