/*--------------------------------*- C++ -*----------------------------------*\
| =========                 |                                                 |
| \\      /  F ield         | OpenFOAM: The Open Source CFD Toolbox           |
|  \\    /   O peration     | Version:  2012                                  |
|   \\  /    A nd           | Website:  www.openfoam.com                      |
|    \\/     M anipulation  |                                                 |
\*---------------------------------------------------------------------------*/
FoamFile
{
    version     2.0;
    format      ascii;
    class       volScalarField;
    location    "1.4";
    object      p;
}
// * * * * * * * * * * * * * * * * * * * * * * * * * * * * * * * * * * * * * //

dimensions      [1 -1 -2 0 0 0 0];


internalField   nonuniform List<scalar> 
160
(
1489008.77
1489227.309
1489616.602
1490191.055
1490959.465
1491920.911
1493069.343
1494392.388
1495871.12
1497483.675
1499207.654
1501021.56
1502903.163
1504823.458
1506774.569
1508778.855
1510748.744
1512604.006
1514453.739
1516363.825
1518149.657
1519781.173
1521073.988
1522035.245
1522489.514
1522692.529
1522331.399
1521678.925
1520431.058
1518623.998
1516403.402
1513572.018
1510055.461
1505937.811
1500702.609
1494938.108
1487497.982
1479900.205
1470073.22
1460224.325
1447460.908
1434848.087
1419000.471
1403484.641
1384426.152
1365785.55
1343548.377
1321799.975
1296546.294
1271978.888
1244391.248
1217832.121
1188864.569
1161249.611
1131822.143
1103947.33
1074946.643
1047596.706
1020526.775
994724.5139
970588.5935
946232.083
924436.043
902895.6218
881343.1924
861667.8208
845142.5106
826897.3842
811047.5338
795695.4837
781959.4304
768415.6858
757092.5103
745792.769
735573.957
725723.597
716901.6115
709373.2755
703007.2123
697919.3291
693713.3564
689777.5857
686315.3504
683946.3349
681963.7199
680514.2065
679690.9693
678986.3093
679060.7528
678896.1549
679418.1148
679389.2065
680521.6823
680621.511
681549.8627
681775.0364
682809.9789
682939.9345
683957.1243
683909.8543
684831.849
684528.6117
685285.421
684779.403
685379.2722
684800.2456
685328.5468
684828.971
685329.286
685044.1084
685612.142
685570.2006
685794.9178
686064.9236
686226.5837
686414.6258
686633.4056
686810.7855
686970.8601
687111.9939
687236.0363
687342.5047
687430.105
687494.5765
687532.8364
687546.4527
687534.8344
687501.3515
687446.5409
687368.6472
687267.033
687142.5234
686996.8544
686832.4629
686652.5298
686460.1244
686257.7314
686047.2546
685830.1061
685607.4129
685380.3144
685150.0906
684918.2057
684686.5522
684458.1133
684236.5415
684025.3852
683827.3043
683643.7971
683475.2965
683321.5645
683182.157
683056.7706
682945.4042
682848.3647
682766.1947
682699.7362
682651.1285
682623.9289
682593.1441
)
;

boundaryField
{
    sides
    {
        type            zeroGradient;
    }
    empty1
    {
        type            empty;
    }
    empty2
    {
        type            empty;
    }
}


// ************************************************************************* //
