/*--------------------------------*- C++ -*----------------------------------*\
| =========                 |                                                 |
| \\      /  F ield         | OpenFOAM: The Open Source CFD Toolbox           |
|  \\    /   O peration     | Version:  2012                                  |
|   \\  /    A nd           | Website:  www.openfoam.com                      |
|    \\/     M anipulation  |                                                 |
\*---------------------------------------------------------------------------*/
FoamFile
{
    version     2.0;
    format      ascii;
    class       volScalarField;
    location    "1.4";
    object      rho;
}
// * * * * * * * * * * * * * * * * * * * * * * * * * * * * * * * * * * * * * //

dimensions      [1 -3 0 0 0 0 0];


internalField   nonuniform List<scalar> 
160
(
16.56066399
16.57918164
16.61991532
16.6722611
16.74411263
16.82971809
16.93029295
17.04789579
17.18277967
17.33934054
17.52092609
17.73392922
17.98475476
18.28166698
18.63392261
19.05564781
19.55994688
20.15534482
20.87543434
21.77045526
22.87598901
24.22008939
25.83852249
27.77340721
30.06339265
32.73898607
35.82824309
39.34292829
43.29740601
47.70752685
52.58854263
57.96890797
63.90533981
70.43625148
77.59516908
85.40995059
93.88563184
103.0384413
112.8793238
123.451726
134.8215306
147.1061159
160.3620411
174.6102654
189.7815828
205.8290982
222.7709305
240.1657266
256.9991153
273.0362241
288.1109581
302.1309535
315.001691
326.675335
337.0939807
346.2402925
354.0950641
360.6815064
366.0383214
370.2380722
373.3821949
375.582996
376.9894429
377.7536733
378.0294362
378.0238532
377.8786668
377.431984
376.5179687
374.9340617
372.5585021
369.2928743
365.1197835
359.9633875
353.7624092
346.4204994
337.8620926
328.0199947
316.8541825
304.3272613
290.5022033
275.4000103
259.0928875
241.6370956
223.5179179
205.930844
189.1121339
173.1718351
158.1854728
144.1862416
131.1807721
119.1429154
108.0381938
97.80877507
88.39968459
79.75397862
71.82296221
64.56063605
57.93111544
51.90141403
46.44528448
41.53728168
37.15153447
33.26144328
29.83595114
26.84217956
24.24381609
22.00395327
20.08472796
18.44995466
17.06334146
15.88718599
14.8869273
14.0373044
13.31584378
12.70408611
12.18405181
11.74065856
11.36209823
11.03803857
10.75976614
10.52002134
10.31273742
10.13283125
9.976082771
9.83902855
9.718755872
9.612878596
9.519359756
9.436462067
9.362736331
9.296973331
9.238156336
9.185428504
9.138069646
9.095464841
9.057082228
9.022459604
8.991192953
8.962927857
8.937353608
8.914196551
8.893214755
8.874194847
8.856956335
8.841344222
8.827219673
8.814452174
8.802916641
8.792494089
8.783075369
8.774566221
8.76689238
8.760004433
8.753882546
8.748540867
8.744032572
8.740467507
8.738029028
8.736503085
)
;

boundaryField
{
    sides
    {
        type            calculated;
        value           nonuniform List<scalar> 2(8.736503085 16.56066399);
    }
    empty1
    {
        type            empty;
    }
    empty2
    {
        type            empty;
    }
}


// ************************************************************************* //
