/*--------------------------------*- C++ -*----------------------------------*\
| =========                 |                                                 |
| \\      /  F ield         | OpenFOAM: The Open Source CFD Toolbox           |
|  \\    /   O peration     | Version:  2012                                  |
|   \\  /    A nd           | Website:  www.openfoam.com                      |
|    \\/     M anipulation  |                                                 |
\*---------------------------------------------------------------------------*/
FoamFile
{
    version     2.0;
    format      ascii;
    class       volScalarField;
    location    "1.4";
    object      rho2;
}
// * * * * * * * * * * * * * * * * * * * * * * * * * * * * * * * * * * * * * //

dimensions      [1 -3 0 0 0 0 0];


internalField   nonuniform List<scalar> 
160
(
16.17026354
16.17159177
16.17228313
16.17075577
16.16535032
16.15430396
16.13581517
16.1080372
16.06914667
16.01753758
15.95198245
15.87169622
15.77622673
15.66516242
15.53814967
15.39477245
15.23299187
15.05041201
14.86646586
14.70597957
14.57496824
14.46937159
14.38638232
14.31893706
14.26634399
14.22134744
14.18564849
14.15090737
14.12191257
14.08811675
14.05673503
14.01535163
13.97179593
13.91539245
13.85319954
13.77667959
13.69094674
13.59292573
13.48266917
13.36038771
13.22156593
13.07186154
12.90439339
12.72758619
12.53141221
12.32689123
12.10329165
11.87249559
11.62376287
11.37037261
11.10329778
10.83556741
10.55908617
10.28582647
10.00820348
9.736524615
9.465206376
9.201810389
8.948089664
8.703865282
8.476895874
8.253396287
8.049399769
7.852356392
7.651407448
7.472135299
7.31659978
7.151277957
7.003652393
6.864805424
6.737357399
6.615434328
6.510583905
6.409150279
6.315426787
6.227384306
6.147367041
6.080409682
6.024440849
5.980258849
5.944096709
5.910614002
5.88174907
5.863244218
5.849314369
5.842219399
5.840909211
5.84385954
5.851399199
5.861731402
5.875030506
5.889828978
5.910910911
5.930668785
5.953016015
5.978407134
6.005581762
6.035738917
6.067994019
6.103784173
6.142492712
6.185585139
6.233364621
6.287426057
6.348435056
6.417644368
6.495688169
6.582521352
6.678148452
6.781396058
6.891286608
7.002877476
7.111955005
7.217087842
7.316411999
7.411569421
7.50276103
7.589221811
7.671300161
7.749010803
7.822445115
7.891667166
7.956765777
8.017814738
8.074912769
8.128223106
8.177882056
8.224077174
8.266973699
8.306709457
8.34343337
8.377305081
8.408488082
8.437145839
8.463443417
8.487538552
8.509576757
8.529691829
8.548006693
8.564635027
8.579683859
8.593254248
8.605442088
8.616339606
8.62604316
8.634649875
8.642250786
8.648924526
8.654735362
8.659734276
8.663962714
8.667457416
8.670255205
8.672397548
8.673935229
8.674933427
8.675478784
8.675697071
8.67575801
8.675495134
)
;

boundaryField
{
    sides
    {
        type            calculated;
        value           nonuniform List<scalar> 2(8.675495134 16.17026354);
    }
    empty1
    {
        type            empty;
    }
    empty2
    {
        type            empty;
    }
}


// ************************************************************************* //
