/*--------------------------------*- C++ -*----------------------------------*\
| =========                 |                                                 |
| \\      /  F ield         | OpenFOAM: The Open Source CFD Toolbox           |
|  \\    /   O peration     | Version:  3.0.1                                 |
|   \\  /    A nd           | Web:      www.OpenFOAM.org                      |
|    \\/     M anipulation  |                                                 |
\*---------------------------------------------------------------------------*/
FoamFile
{
    version     2.0;
    format      ascii;
    class       volVectorField;
    location    "0.2";
    object      U;
}
// * * * * * * * * * * * * * * * * * * * * * * * * * * * * * * * * * * * * * //

dimensions      [0 1 -1 0 0 0 0];

internalField   nonuniform List<vector> 
50
(
(89.6238 -0.00155459 0)
(93.2142 -0.00155441 0)
(96.1059 -0.0015557 0)
(98.914 -0.00155426 -9.91967e-15)
(102.123 -0.00154848 -1.0174e-14)
(105.512 -0.00155998 -1.05105e-14)
(109.121 -0.00156959 0)
(113.008 -0.00152449 0)
(117.193 -0.00154704 -1.15592e-14)
(121.712 -0.00163057 -1.19575e-14)
(126.612 -0.00148019 0)
(131.946 -0.0015103 -1.28398e-14)
(137.778 -0.00174681 0)
(144.185 -0.00133764 0)
(151.265 -0.00156984 -1.44251e-14)
(159.141 -0.00185291 0)
(167.969 -0.00110874 -1.57025e-14)
(177.957 -0.00194757 0)
(189.388 -0.000918295 0)
(202.663 -0.00257692 0)
(218.386 -0.00810186 0)
(237.55 0.0264329 0)
(261.996 0.0603552 0)
(295.787 -0.468753 0)
(350.428 -0.02101 0)
(451.31 5.59238 0)
(522.786 -5.81296 0)
(562.153 -5.97659 0)
(588.496 1.17786 0)
(609.223 1.86883 0)
(626.782 4.65048 0)
(641.374 3.80428 0)
(654.15 -0.265724 0)
(665.642 -0.896891 9.3087e-15)
(676.406 -3.70321 0)
(684.568 -3.15221 7.92428e-15)
(697.243 -0.742422 0)
(696.538 0.288388 0)
(435.576 13.3593 9.88793e-15)
(245.874 -8.98486 0)
(211.493 -11.8974 1.19672e-14)
(204.391 0.327719 1.11583e-14)
(194.605 7.88405 0)
(186.497 7.81902 0)
(181.282 2.45242 1.00933e-14)
(176.019 -3.4568 0)
(169.807 -4.11042 9.57561e-15)
(164.377 -0.822954 0)
(159.215 1.01406 0)
(152.264 0.997335 0)
)
;

boundaryField
{
    inlet
    {
        type            zeroGradient;
    }
    outlet
    {
        type            zeroGradient;
    }
    upperWall
    {
        type            slip;
    }
    lowerWall
    {
        type            slip;
    }
    frontAndBack
    {
        type            empty;
    }
}


// ************************************************************************* //
