/*--------------------------------*- C++ -*----------------------------------*\
| =========                 |                                                 |
| \\      /  F ield         | OpenFOAM: The Open Source CFD Toolbox           |
|  \\    /   O peration     | Version:  2012                                  |
|   \\  /    A nd           | Website:  www.openfoam.com                      |
|    \\/     M anipulation  |                                                 |
\*---------------------------------------------------------------------------*/
FoamFile
{
    version     2.0;
    format      ascii;
    class       volVectorField;
    location    "5020";
    object      U;
}
// * * * * * * * * * * * * * * * * * * * * * * * * * * * * * * * * * * * * * //

dimensions      [0 1 -1 0 0 0 0];


internalField   nonuniform List<vector> 
20400
(
(3.52847e-06 -3.45281e-06 0)
(5.17698e-06 -1.16965e-06 0)
(-4.67464e-06 3.70707e-06 0)
(-2.50057e-05 6.36396e-06 0)
(-5.82713e-05 7.81209e-06 0)
(-9.85101e-05 7.15746e-06 0)
(-0.000144674 6.39692e-06 0)
(-0.000193528 5.47919e-06 0)
(-0.000243169 4.70995e-06 0)
(-0.000293937 4.21507e-06 0)
(-0.000343455 4.26818e-06 0)
(-0.000393363 4.19495e-06 0)
(-0.0004425 4.01935e-06 0)
(-0.000491442 3.62763e-06 0)
(-0.000540079 3.0635e-06 0)
(-0.000588528 2.27955e-06 0)
(-0.000636826 1.25042e-06 0)
(-0.000685008 3.53773e-08 0)
(-0.000733091 -1.32856e-06 0)
(-0.000780982 -2.51544e-06 0)
(-0.000828586 -3.74367e-06 0)
(-0.000875902 -4.96911e-06 0)
(-0.000922961 -6.10925e-06 0)
(-0.000969748 -7.09169e-06 0)
(-0.00101625 -7.84304e-06 0)
(-0.00106245 -8.29572e-06 0)
(-0.00110834 -8.39392e-06 0)
(-0.00115391 -8.08077e-06 0)
(-0.00119919 -7.3246e-06 0)
(-0.00124418 -6.08571e-06 0)
(-0.00128893 -4.35791e-06 0)
(-0.0013334 -2.10938e-06 0)
(-0.0013775 7.66823e-07 0)
(-0.00142086 5.3426e-06 0)
(-0.00146338 8.93088e-06 0)
(-0.00150563 1.13673e-05 0)
(-0.00154885 1.50865e-05 0)
(-0.00159089 1.87789e-05 0)
(-0.00163279 2.22591e-05 0)
(-0.00167413 2.53968e-05 0)
(-0.00171508 2.8073e-05 0)
(-0.00175568 3.02102e-05 0)
(-0.00179594 3.17946e-05 0)
(-0.00183595 3.28294e-05 0)
(-0.00187572 3.33663e-05 0)
(-0.00191529 3.34697e-05 0)
(-0.00195465 3.32075e-05 0)
(-0.0019938 3.26356e-05 0)
(-0.00203275 3.17895e-05 0)
(-0.00207148 3.06817e-05 0)
(-0.00211 2.92991e-05 0)
(-0.0021483 2.76065e-05 0)
(-0.0021864 2.55357e-05 0)
(-0.0022243 2.30285e-05 0)
(-0.00226207 1.99583e-05 0)
(-0.00229963 1.63211e-05 0)
(-0.00233718 1.20378e-05 0)
(-0.00237434 7.68095e-06 0)
(-0.00241116 2.22652e-06 0)
(-0.0024483 -4.74406e-06 0)
(-0.00248585 -1.03697e-05 0)
(-0.00252345 -1.54008e-05 0)
(-0.0025608 -1.9146e-05 0)
(-0.00259811 -2.18644e-05 0)
(-0.00263524 -2.35753e-05 0)
(-0.00267219 -2.44763e-05 0)
(-0.00270895 -2.47348e-05 0)
(-0.00274554 -2.45028e-05 0)
(-0.00278198 -2.39074e-05 0)
(-0.00281829 -2.30368e-05 0)
(-0.0028545 -2.19642e-05 0)
(-0.0028906 -2.07277e-05 0)
(-0.00292662 -1.9367e-05 0)
(-0.00296256 -1.78918e-05 0)
(-0.00299843 -1.63258e-05 0)
(-0.00303423 -1.46661e-05 0)
(-0.00306996 -1.29316e-05 0)
(-0.00310561 -1.11163e-05 0)
(-0.00314119 -9.24455e-06 0)
(-0.00317669 -7.3018e-06 0)
(-0.00321214 -5.32696e-06 0)
(-0.0032475 -3.2951e-06 0)
(-0.00328284 -1.25419e-06 0)
(-0.00331804 8.39401e-07 0)
(-0.00335306 3.0444e-06 0)
(-0.00338748 5.79304e-06 0)
(-0.00342136 7.1055e-06 0)
(-0.00345601 7.91761e-06 0)
(-0.00349033 8.28319e-06 0)
(-0.00352445 8.37955e-06 0)
(-0.0035583 7.8145e-06 0)
(-0.00359163 7.02932e-06 0)
(-0.00362445 5.55477e-06 0)
(-0.00365665 2.06962e-06 0)
(-0.00368958 -9.80479e-07 0)
(-0.00372152 -4.32275e-06 0)
(-0.00375364 -8.16861e-06 0)
(-0.00378477 -1.20303e-05 0)
(-0.00381576 -1.64607e-05 0)
(-0.00384568 -2.06663e-05 0)
(-0.00387537 -2.56192e-05 0)
(-0.00390378 -3.00152e-05 0)
(-0.00393186 -3.5238e-05 0)
(-0.00395835 -3.92679e-05 0)
(-0.00398478 -4.4075e-05 0)
(-0.00400913 -4.7018e-05 0)
(-0.00403417 -5.04974e-05 0)
(-0.00405575 -5.01147e-05 0)
(-0.0040799 -5.07764e-05 0)
(-0.00409782 -4.44569e-05 0)
(-0.00412102 -3.84334e-05 0)
(-0.00413454 -2.2826e-05 0)
(-0.00415346 -5.11355e-06 0)
(-0.00415863 2.17984e-05 0)
(-0.00417063 4.36401e-05 0)
(-0.00417186 6.9036e-05 0)
(-0.0041772 8.32122e-05 0)
(-0.0041735 0.000105304 0)
(-0.00417235 0.000114047 0)
(-0.00416359 0.000133569 0)
(-0.00415575 0.000140044 0)
(-0.00414067 0.000157471 0)
(-0.00412596 0.000163434 0)
(-0.0041033 0.000178686 0)
(-0.00408101 0.00018423 0)
(-0.0040497 0.000196064 0)
(-0.00401861 0.00019993 0)
(-0.00397712 0.00020515 0)
(-0.00393529 0.000203144 0)
(-0.00388138 0.000195718 0)
(-0.00382514 0.000177591 0)
(-0.00375987 0.000148188 0)
(-0.0036872 0.000102781 0)
(-0.00361324 4.2921e-05 0)
(-0.00353235 -2.91535e-05 0)
(-0.00345979 -0.000108744 0)
(-0.00339264 -0.000171687 0)
(-0.00331725 -0.000228348 0)
(-0.00323707 -0.000260137 0)
(-0.00314697 -0.000295943 0)
(-0.00305642 -0.000311161 0)
(-0.00295449 -0.000333019 0)
(-0.0028561 -0.000338513 0)
(-0.00274695 -0.000345882 0)
(-0.0026436 -0.000337647 0)
(-0.00253155 -0.000321552 0)
(-0.0024266 -0.000281247 0)
(-0.00230951 -0.000225449 0)
(-0.00219685 -0.000127891 0)
(-0.00206497 -3.13222e-05 0)
(-0.00194101 9.42875e-05 0)
(-0.00176653 0.000169285 0)
(-0.00162963 0.000229118 0)
(-0.00146068 0.0002507 0)
(-0.00132184 0.000264005 0)
(-0.00114432 0.000256233 0)
(-0.00100275 0.000219888 0)
(-0.000775574 0.00015093 0)
(-0.000663643 1.21562e-05 0)
(-0.000565173 -2.60702e-05 0)
(-0.000430736 -5.6791e-05 0)
(-0.00029396 -6.49967e-05 0)
(-0.000158095 -6.8607e-05 0)
(-9.77854e-06 -6.76712e-05 0)
(0.000118767 -5.98627e-05 0)
(0.000271456 -5.44034e-05 0)
(0.000396612 -4.61269e-05 0)
(0.000544788 -4.17335e-05 0)
(0.000665796 -3.47692e-05 0)
(0.000808105 -3.26009e-05 0)
(0.000924662 -2.7183e-05 0)
(0.00105978 -2.64733e-05 0)
(0.00117143 -2.20008e-05 0)
(0.0012984 -2.21969e-05 0)
(0.00140478 -1.83441e-05 0)
(0.00152306 -1.90536e-05 0)
(0.00162384 -1.57488e-05 0)
(0.00173314 -1.66537e-05 0)
(0.00182791 -1.36518e-05 0)
(0.00192838 -1.45718e-05 0)
(0.00201663 -1.23291e-05 0)
(0.00210839 -1.26801e-05 0)
(0.00218979 -1.11907e-05 0)
(0.00227296 -1.10834e-05 0)
(0.00234751 -1.01208e-05 0)
(0.0024221 -9.7652e-06 0)
(0.00248979 -8.94094e-06 0)
(0.00255644 -8.59022e-06 0)
(0.00261709 -7.8691e-06 0)
(0.00267618 -7.51022e-06 0)
(0.00273002 -6.88066e-06 0)
(0.0027819 -6.52055e-06 0)
(0.00282921 -5.97265e-06 0)
(0.00287426 -5.61539e-06 0)
(0.00291539 -5.1412e-06 0)
(0.00295403 -4.78816e-06 0)
(0.00298935 -4.38486e-06 0)
(0.00302203 -4.03438e-06 0)
(0.00305199 -3.69029e-06 0)
(0.0030792 -3.30647e-06 0)
(0.003104 -3.09018e-06 0)
(0.00312636 -2.76139e-06 0)
(0.00314645 -2.46802e-06 0)
(0.00316431 -2.20887e-06 0)
(0.00318005 -1.93956e-06 0)
(0.00319385 -1.72519e-06 0)
(0.00320571 -1.44527e-06 0)
(0.0032158 -1.26738e-06 0)
(0.00322418 -1.02143e-06 0)
(0.00323093 -7.73156e-07 0)
(0.00323623 -5.48206e-07 0)
(0.00324018 -2.9587e-07 0)
(0.00324279 -6.54691e-08 0)
(0.0032442 1.53359e-07 0)
(0.00324461 2.57879e-07 0)
(0.00324366 4.96396e-07 0)
(0.00324183 6.6921e-07 0)
(0.0032389 6.94649e-07 0)
(0.00323535 6.66761e-07 0)
(0.00323064 6.63487e-07 0)
(0.00322571 5.71541e-07 0)
(0.00321948 5.57184e-07 0)
(0.00321351 5.04038e-07 0)
(0.00320611 4.37287e-07 0)
(0.0031993 4.81797e-07 0)
(0.003191 3.52262e-07 0)
(0.0031835 4.80577e-07 0)
(0.00317451 2.89016e-07 0)
(0.00316649 4.84438e-07 0)
(0.00315701 2.9195e-07 0)
(0.00314862 4.73597e-07 0)
(0.00313884 3.32609e-07 0)
(0.00313022 4.59816e-07 0)
(0.00312031 3.65679e-07 0)
(0.00311155 4.55472e-07 0)
(0.00310167 3.93905e-07 0)
(0.00309283 4.65624e-07 0)
(0.00308316 4.30574e-07 0)
(0.00307428 5.05201e-07 0)
(0.00306503 5.04209e-07 0)
(0.00305613 6.11587e-07 0)
(0.00304737 6.21286e-07 0)
(0.00303859 7.57315e-07 0)
(0.00303022 7.42897e-07 0)
(0.00302171 8.97701e-07 0)
(0.00301378 8.26552e-07 0)
(0.00300567 9.67881e-07 0)
(0.00299821 8.22363e-07 0)
(0.00299056 9.66148e-07 0)
(0.00298359 7.85039e-07 0)
(0.00297644 9.39229e-07 0)
(0.00296999 7.32289e-07 0)
(0.00296336 8.99212e-07 0)
(0.00295745 6.73953e-07 0)
(0.00295133 8.49638e-07 0)
(0.00294599 6.10897e-07 0)
(0.00294042 7.93094e-07 0)
(0.00293565 5.44642e-07 0)
(0.00293062 7.31064e-07 0)
(0.00292645 4.73044e-07 0)
(0.00292197 6.38791e-07 0)
(0.00291838 3.98078e-07 0)
(0.00291446 5.43239e-07 0)
(0.00291144 3.24703e-07 0)
(0.00290809 4.45695e-07 0)
(0.00290563 2.38646e-07 0)
(0.00290285 3.45812e-07 0)
(0.00290094 1.44317e-07 0)
(0.00289871 2.45245e-07 0)
(0.00289732 5.3813e-08 0)
(0.00289565 1.46049e-07 0)
(0.00289477 -3.26853e-08 0)
(0.00289366 5.03673e-08 0)
(0.00289324 -1.18274e-07 0)
(0.00289271 -3.68109e-08 0)
(0.00289268 -2.12785e-07 0)
(0.00289268 -7.88876e-08 0)
(0.00289316 -2.81241e-07 0)
(0.0028936 -1.27954e-07 0)
(0.00289452 -3.47734e-07 0)
(0.00289541 -2.11207e-07 0)
(0.00289679 -4.27085e-07 0)
(0.00289811 -3.03364e-07 0)
(0.00289984 -4.12957e-07 0)
(0.00290164 -3.51506e-07 0)
(0.00290373 -3.84712e-07 0)
(0.00290598 -3.6116e-07 0)
(0.00290842 -3.95804e-07 0)
(0.00291103 -3.99018e-07 0)
(0.00291381 -4.35401e-07 0)
(0.00291675 -4.63769e-07 0)
(0.00291986 -4.99414e-07 0)
(0.00292312 -5.25297e-07 0)
(0.00292653 -5.44597e-07 0)
(0.0029301 -5.59284e-07 0)
(0.00293373 -5.41709e-07 0)
(0.00293762 -5.65097e-07 0)
(0.00294143 -5.49152e-07 0)
(0.00294564 -5.35734e-07 0)
(0.0029496 -6.06238e-07 0)
(0.00295414 -5.12759e-07 0)
(0.00295821 -6.02353e-07 0)
(0.00296305 -5.37059e-07 0)
(0.00296724 -6.29546e-07 0)
(0.00297234 -5.85235e-07 0)
(0.00297664 -6.71248e-07 0)
(0.00298197 -6.34136e-07 0)
(0.00298639 -7.1608e-07 0)
(0.00299192 -6.80471e-07 0)
(0.00299646 -7.58199e-07 0)
(0.00300215 -7.21948e-07 0)
(0.00300681 -7.94633e-07 0)
(0.00301263 -7.55582e-07 0)
(0.00301738 -8.18047e-07 0)
(0.00302331 -7.74079e-07 0)
(0.00302815 -8.3e-07 0)
(0.00303416 -7.77331e-07 0)
(0.00303908 -8.34621e-07 0)
(0.00304516 -7.79111e-07 0)
(0.00305015 -8.34859e-07 0)
(0.00305628 -7.88918e-07 0)
(0.00306133 -8.35128e-07 0)
(0.00306749 -7.98804e-07 0)
(0.00307258 -8.38949e-07 0)
(0.00307876 -8.06227e-07 0)
(0.00308388 -8.39674e-07 0)
(0.00309007 -8.08012e-07 0)
(0.00309521 -8.35664e-07 0)
(0.00310139 -8.05855e-07 0)
(0.00310654 -8.28463e-07 0)
(0.00311271 -8.01716e-07 0)
(0.00311787 -8.1949e-07 0)
(0.00312401 -7.96425e-07 0)
(0.00312916 -8.09019e-07 0)
(0.00313526 -7.90436e-07 0)
(0.00314042 -7.9641e-07 0)
(0.00314645 -7.83514e-07 0)
(0.00315161 -7.8772e-07 0)
(0.00315757 -7.73951e-07 0)
(0.00316273 -7.76783e-07 0)
(0.0031686 -7.64678e-07 0)
(0.00317376 -7.6463e-07 0)
(0.00317953 -7.55929e-07 0)
(0.00318468 -7.53377e-07 0)
(0.00319035 -7.46641e-07 0)
(0.0031955 -7.41441e-07 0)
(0.00320105 -7.36652e-07 0)
(0.00320619 -7.28962e-07 0)
(0.00321163 -7.26429e-07 0)
(0.00321675 -7.16258e-07 0)
(0.00322206 -7.1563e-07 0)
(0.00322716 -7.0299e-07 0)
(0.00323235 -7.02598e-07 0)
(0.00323743 -6.97604e-07 0)
(0.00324251 -6.89954e-07 0)
(0.00324753 -6.84306e-07 0)
(0.00325252 -6.78043e-07 0)
(0.00325747 -6.72214e-07 0)
(0.00326238 -6.65972e-07 0)
(0.00326725 -6.59926e-07 0)
(0.00327208 -6.53698e-07 0)
(0.00327686 -6.47574e-07 0)
(0.00328161 -6.41416e-07 0)
(0.00328631 -6.35351e-07 0)
(0.00329097 -6.29265e-07 0)
(0.00329559 -6.23239e-07 0)
(0.00330016 -6.17179e-07 0)
(0.00330469 -6.11156e-07 0)
(0.00330918 -6.05109e-07 0)
(0.00331363 -5.991e-07 0)
(0.00331804 -5.93092e-07 0)
(0.0033224 -5.87126e-07 0)
(0.00332671 -5.81183e-07 0)
(0.00333099 -5.75284e-07 0)
(0.00333522 -5.6942e-07 0)
(0.00333941 -5.63602e-07 0)
(0.00334356 -5.57823e-07 0)
(0.00334766 -5.52087e-07 0)
(0.00335173 -5.46391e-07 0)
(0.00335575 -5.40736e-07 0)
(0.00335973 -5.35119e-07 0)
(0.00336366 -5.29546e-07 0)
(0.00336756 -5.24015e-07 0)
(0.00337141 -5.18529e-07 0)
(0.00337523 -5.13087e-07 0)
(0.003379 -5.07693e-07 0)
(0.00338273 -5.02344e-07 0)
(0.00338642 -4.97045e-07 0)
(0.00339008 -4.91793e-07 0)
(0.00339369 -4.8659e-07 0)
(0.00339726 -4.81437e-07 0)
(0.0034008 -4.76335e-07 0)
(0.00340429 -4.71282e-07 0)
(0.00340775 -4.6628e-07 0)
(0.00341117 -4.61328e-07 0)
(0.00341455 -4.56428e-07 0)
(0.0034179 -4.51578e-07 0)
(0.0034212 -4.4678e-07 0)
(0.00342447 -4.42032e-07 0)
(0.00342771 -4.37335e-07 0)
(0.00343091 -4.3269e-07 0)
(0.00343407 -4.28095e-07 0)
(0.0034372 -4.23551e-07 0)
(0.0034403 -4.19057e-07 0)
(0.00344336 -4.14613e-07 0)
(0.00344638 -4.1022e-07 0)
(0.00344938 -4.05876e-07 0)
(0.00345233 -4.01582e-07 0)
(0.00345526 -3.97337e-07 0)
(0.00345815 -3.93143e-07 0)
(0.00346102 -3.89003e-07 0)
(0.00346385 -3.84921e-07 0)
(0.00346665 -3.80919e-07 0)
(0.00346941 -3.76959e-07 0)
(0.00347215 -3.73026e-07 0)
(0.00347486 -3.69125e-07 0)
(0.00347753 -3.65261e-07 0)
(0.00348018 -3.61439e-07 0)
(0.0034828 -3.57659e-07 0)
(0.00348539 -3.53922e-07 0)
(0.00348795 -3.50229e-07 0)
(0.00349048 -3.46579e-07 0)
(0.00349299 -3.42971e-07 0)
(0.00349546 -3.39405e-07 0)
(0.00349791 -3.35881e-07 0)
(0.00350034 -3.32398e-07 0)
(0.00350273 -3.28955e-07 0)
(0.0035051 -3.25553e-07 0)
(0.00350745 -3.22189e-07 0)
(0.00350977 -3.18865e-07 0)
(0.00351206 -3.15578e-07 0)
(0.00351433 -3.1233e-07 0)
(0.00351657 -3.09118e-07 0)
(0.00351879 -3.05944e-07 0)
(0.00352099 -3.02805e-07 0)
(0.00352316 -2.99702e-07 0)
(0.0035253 -2.96633e-07 0)
(0.00352743 -2.936e-07 0)
(0.00352953 -2.906e-07 0)
(0.00353161 -2.87633e-07 0)
(0.00353367 -2.84699e-07 0)
(0.0035357 -2.81798e-07 0)
(0.00353771 -2.78928e-07 0)
(0.0035397 -2.76089e-07 0)
(0.00354167 -2.73281e-07 0)
(0.00354362 -2.70503e-07 0)
(0.00354555 -2.67755e-07 0)
(0.00354745 -2.65036e-07 0)
(0.00354934 -2.62346e-07 0)
(0.0035512 -2.59683e-07 0)
(0.00355305 -2.57048e-07 0)
(0.00355487 -2.5444e-07 0)
(0.00355668 -2.51858e-07 0)
(0.00355847 -2.49302e-07 0)
(0.00356023 -2.46772e-07 0)
(0.00356198 -2.44266e-07 0)
(0.00356371 -2.41784e-07 0)
(0.00356542 -2.39325e-07 0)
(0.00356711 -2.3689e-07 0)
(0.00356879 -2.34477e-07 0)
(0.00357044 -2.32086e-07 0)
(0.00357208 -2.29716e-07 0)
(0.0035737 -2.27365e-07 0)
(0.0035753 -2.2503e-07 0)
(0.00357689 -2.22706e-07 0)
(0.00357846 -2.20383e-07 0)
(0.00358001 -2.18042e-07 0)
(0.00358154 -2.15708e-07 0)
(0.00358306 -2.13417e-07 0)
(0.00358456 -2.1117e-07 0)
(0.00358604 -2.08956e-07 0)
(0.00358751 -2.06769e-07 0)
(0.00358896 -2.04604e-07 0)
(0.00359039 -2.02456e-07 0)
(0.00359181 -2.00323e-07 0)
(0.00359321 -1.98168e-07 0)
(0.0035946 -1.96052e-07 0)
(0.00359597 -1.93589e-07 0)
(0.00359732 -1.92482e-07 0)
(0.00359866 -1.88087e-07 0)
(0.00359999 -1.92029e-07 0)
(0.0036013 -1.81497e-07 0)
(0.00360259 -1.8854e-07 0)
(0.00360386 -1.76347e-07 0)
(0.00360513 -1.85832e-07 0)
(0.00360636 -1.70688e-07 0)
(0.00360762 -1.82546e-07 0)
(0.00360879 -1.64804e-07 0)
(0.00361005 -1.79122e-07 0)
(0.00361114 -1.57936e-07 0)
(0.00361244 -1.75932e-07 0)
(0.0036134 -1.48772e-07 0)
(0.00361478 -1.74008e-07 0)
(0.00361556 -1.35567e-07 0)
(0.00361711 -1.78103e-07 0)
(0.0036176 -1.18931e-07 0)
(0.00361949 -2.07986e-07 0)
(0.00361955 -1.10376e-07 0)
(0.0036224 -4.31174e-07 0)
(0.00362147 -9.9559e-07 0)
(1.08614e-06 -5.26498e-06 0)
(-1.30998e-05 1.24137e-05 0)
(-5.73177e-05 4.04867e-05 0)
(-0.000130437 6.40945e-05 0)
(-0.000228678 8.26151e-05 0)
(-0.000344065 9.24904e-05 0)
(-0.000472037 9.8333e-05 0)
(-0.000606796 9.99871e-05 0)
(-0.000745343 9.98686e-05 0)
(-0.00088585 9.84123e-05 0)
(-0.00102577 9.67179e-05 0)
(-0.00116634 9.5161e-05 0)
(-0.00130565 9.39886e-05 0)
(-0.00144407 9.33302e-05 0)
(-0.00158132 9.30855e-05 0)
(-0.00171758 9.32257e-05 0)
(-0.00185287 9.37253e-05 0)
(-0.00198718 9.4524e-05 0)
(-0.00212062 9.53551e-05 0)
(-0.00225288 9.586e-05 0)
(-0.00238369 9.64063e-05 0)
(-0.00251314 9.70456e-05 0)
(-0.00264125 9.76116e-05 0)
(-0.00276802 9.79966e-05 0)
(-0.00289344 9.81105e-05 0)
(-0.0030175 9.78934e-05 0)
(-0.00314024 9.72846e-05 0)
(-0.00326166 9.6271e-05 0)
(-0.00338187 9.48114e-05 0)
(-0.00350089 9.29224e-05 0)
(-0.00361882 9.05235e-05 0)
(-0.00373564 8.75349e-05 0)
(-0.00385132 8.33874e-05 0)
(-0.00396549 7.67974e-05 0)
(-0.00407808 7.18226e-05 0)
(-0.0041919 6.9967e-05 0)
(-0.00430399 6.552e-05 0)
(-0.00441573 6.04768e-05 0)
(-0.00452656 5.57782e-05 0)
(-0.00463651 5.15715e-05 0)
(-0.00474552 4.80009e-05 0)
(-0.00485356 4.5047e-05 0)
(-0.00496057 4.28412e-05 0)
(-0.00506659 4.12843e-05 0)
(-0.00517158 4.03179e-05 0)
(-0.00527558 3.98224e-05 0)
(-0.00537862 3.9704e-05 0)
(-0.00548076 3.98928e-05 0)
(-0.00558206 4.03482e-05 0)
(-0.00568259 4.10597e-05 0)
(-0.00578242 4.20399e-05 0)
(-0.00588165 4.33538e-05 0)
(-0.00598033 4.50017e-05 0)
(-0.00607853 4.7261e-05 0)
(-0.00617632 4.98761e-05 0)
(-0.00627355 5.35132e-05 0)
(-0.00637037 5.71866e-05 0)
(-0.00646637 6.08452e-05 0)
(-0.00656157 6.60811e-05 0)
(-0.00665518 7.40347e-05 0)
(-0.00674628 8.00948e-05 0)
(-0.00683707 8.45313e-05 0)
(-0.00692613 8.81636e-05 0)
(-0.00701529 9.05559e-05 0)
(-0.00710404 9.18816e-05 0)
(-0.00719269 9.23624e-05 0)
(-0.00728111 9.21974e-05 0)
(-0.00736928 9.1587e-05 0)
(-0.00745713 9.06412e-05 0)
(-0.0075446 8.94759e-05 0)
(-0.00763167 8.81196e-05 0)
(-0.00771828 8.66538e-05 0)
(-0.00780443 8.50556e-05 0)
(-0.00789007 8.33924e-05 0)
(-0.0079752 8.1617e-05 0)
(-0.00805979 7.97948e-05 0)
(-0.00814385 7.78659e-05 0)
(-0.00822734 7.5914e-05 0)
(-0.00831027 7.38306e-05 0)
(-0.00839258 7.18014e-05 0)
(-0.00847433 6.96342e-05 0)
(-0.0085554 6.75885e-05 0)
(-0.00863587 6.53818e-05 0)
(-0.00871556 6.31875e-05 0)
(-0.00879454 6.02015e-05 0)
(-0.00887267 5.62674e-05 0)
(-0.00895028 5.52687e-05 0)
(-0.00902741 5.51575e-05 0)
(-0.00910386 5.39389e-05 0)
(-0.00917916 5.3433e-05 0)
(-0.00925347 5.3054e-05 0)
(-0.00932605 5.28599e-05 0)
(-0.00939746 5.29076e-05 0)
(-0.00946673 5.64717e-05 0)
(-0.00953433 5.85541e-05 0)
(-0.00959993 6.13363e-05 0)
(-0.00966406 6.32991e-05 0)
(-0.00972538 6.64758e-05 0)
(-0.00978511 6.8367e-05 0)
(-0.00984143 7.18033e-05 0)
(-0.00989613 7.36855e-05 0)
(-0.00994624 7.72104e-05 0)
(-0.00999457 7.84942e-05 0)
(-0.010037 8.22793e-05 0)
(-0.0100782 8.22859e-05 0)
(-0.010112 8.61224e-05 0)
(-0.0101436 8.33951e-05 0)
(-0.0101669 8.60166e-05 0)
(-0.0101852 7.87472e-05 0)
(-0.0101975 7.71811e-05 0)
(-0.0102021 6.33962e-05 0)
(-0.0101985 5.0988e-05 0)
(-0.0101854 2.46261e-05 0)
(-0.010173 1.16188e-07 0)
(-0.0101687 -2.76643e-05 0)
(-0.0101534 -4.97385e-05 0)
(-0.0101361 -7.03252e-05 0)
(-0.0101025 -8.77064e-05 0)
(-0.0100679 -0.000104138 0)
(-0.0100148 -0.000118995 0)
(-0.00996222 -0.000133925 0)
(-0.00988948 -0.000147584 0)
(-0.00981884 -0.00016203 0)
(-0.00972668 -0.000174761 0)
(-0.00963843 -0.00018849 0)
(-0.00952646 -0.000199822 0)
(-0.00942185 -0.000211607 0)
(-0.0092904 -0.000220241 0)
(-0.00917123 -0.000227177 0)
(-0.00902157 -0.000229253 0)
(-0.00888852 -0.000224557 0)
(-0.00872032 -0.000208494 0)
(-0.00856933 -0.000190007 0)
(-0.00837555 -0.000144425 0)
(-0.00819826 -0.000110295 0)
(-0.00797037 -2.75653e-05 0)
(-0.007718 -4.58307e-06 0)
(-0.00745717 3.39348e-05 0)
(-0.00718898 3.10904e-05 0)
(-0.00691649 4.88277e-05 0)
(-0.00663506 4.19685e-05 0)
(-0.00634657 4.80247e-05 0)
(-0.00604717 4.04848e-05 0)
(-0.00573694 3.80476e-05 0)
(-0.00541412 2.8849e-05 0)
(-0.00506809 1.5171e-05 0)
(-0.0047243 -6.03328e-06 0)
(-0.0043146 -4.03216e-05 0)
(-0.0039756 -0.00010461 0)
(-0.00356733 -0.0001564 0)
(-0.00326117 -0.000247978 0)
(-0.00298884 -0.000278451 0)
(-0.00266351 -0.00030281 0)
(-0.00234992 -0.000315189 0)
(-0.00200031 -0.000321615 0)
(-0.00167521 -0.000329813 0)
(-0.00134075 -0.000338874 0)
(-0.00103311 -0.000362385 0)
(-0.000662884 -0.00039932 0)
(-0.000207467 -0.000389922 0)
(0.000152212 -0.000386297 0)
(0.000555391 -0.00036761 0)
(0.000902154 -0.00035792 0)
(0.00129051 -0.000348502 0)
(0.00163135 -0.000327563 0)
(0.00199896 -0.000316104 0)
(0.00232723 -0.000297725 0)
(0.00268126 -0.000293314 0)
(0.00299934 -0.000278236 0)
(0.00334094 -0.000274962 0)
(0.0036476 -0.000259764 0)
(0.00397398 -0.000256586 0)
(0.00426793 -0.000241677 0)
(0.00457708 -0.000238344 0)
(0.00485721 -0.000224168 0)
(0.00514772 -0.000220329 0)
(0.00541309 -0.000207188 0)
(0.0056842 -0.000202372 0)
(0.00593399 -0.000191167 0)
(0.00618485 -0.000184845 0)
(0.00641824 -0.000174896 0)
(0.00664946 -0.000167913 0)
(0.0068652 -0.000158943 0)
(0.0070771 -0.000151637 0)
(0.00727489 -0.000143403 0)
(0.00746767 -0.000136105 0)
(0.00764754 -0.000128299 0)
(0.00782162 -0.000121327 0)
(0.00798382 -0.000113923 0)
(0.00813969 -0.000107286 0)
(0.0082847 -0.000100269 0)
(0.00842303 -9.40111e-05 0)
(0.00855149 -8.73802e-05 0)
(0.00867307 -8.15515e-05 0)
(0.00878573 -7.52896e-05 0)
(0.00889142 -6.99326e-05 0)
(0.00898913 -6.40029e-05 0)
(0.00907989 -5.92516e-05 0)
(0.0091636 -5.36945e-05 0)
(0.00924047 -4.91385e-05 0)
(0.00931101 -4.42998e-05 0)
(0.00937504 -3.99605e-05 0)
(0.00943321 -3.56813e-05 0)
(0.00948555 -3.15713e-05 0)
(0.00953231 -2.77604e-05 0)
(0.00957385 -2.40619e-05 0)
(0.00961023 -2.0595e-05 0)
(0.00964191 -1.72926e-05 0)
(0.0096689 -1.41305e-05 0)
(0.00969162 -1.1308e-05 0)
(0.00971023 -8.75554e-06 0)
(0.00972492 -6.24259e-06 0)
(0.00973597 -3.90464e-06 0)
(0.00974358 -1.71954e-06 0)
(0.00974807 7.83564e-08 0)
(0.00974957 2.26393e-06 0)
(0.00974777 4.08212e-06 0)
(0.0097431 5.92317e-06 0)
(0.00973636 7.6414e-06 0)
(0.00972694 9.2572e-06 0)
(0.00971592 1.06502e-05 0)
(0.00970255 1.20001e-05 0)
(0.00968801 1.29924e-05 0)
(0.00967128 1.40357e-05 0)
(0.0096538 1.48917e-05 0)
(0.00963427 1.5666e-05 0)
(0.0096144 1.63861e-05 0)
(0.00959261 1.68902e-05 0)
(0.00957096 1.7477e-05 0)
(0.00954732 1.77211e-05 0)
(0.0095243 1.82157e-05 0)
(0.00949944 1.8187e-05 0)
(0.00947543 1.86195e-05 0)
(0.00944977 1.8427e-05 0)
(0.00942509 1.87336e-05 0)
(0.00939902 1.84673e-05 0)
(0.00937396 1.85769e-05 0)
(0.00934791 1.82709e-05 0)
(0.00932266 1.81668e-05 0)
(0.00929707 1.78357e-05 0)
(0.0092718 1.75363e-05 0)
(0.00924691 1.71455e-05 0)
(0.00922192 1.67987e-05 0)
(0.00919771 1.62922e-05 0)
(0.00917331 1.59653e-05 0)
(0.00914995 1.5308e-05 0)
(0.0091264 1.50473e-05 0)
(0.00910407 1.43036e-05 0)
(0.00908158 1.41226e-05 0)
(0.00906037 1.32952e-05 0)
(0.00903906 1.31358e-05 0)
(0.00901905 1.22855e-05 0)
(0.00899898 1.21201e-05 0)
(0.00898028 1.12431e-05 0)
(0.00896152 1.10744e-05 0)
(0.00894419 1.01747e-05 0)
(0.0089268 1.0004e-05 0)
(0.0089109 9.08828e-06 0)
(0.00889492 8.90976e-06 0)
(0.00888049 7.98935e-06 0)
(0.00886595 7.86106e-06 0)
(0.008853 6.90083e-06 0)
(0.00883993 6.80712e-06 0)
(0.00882846 5.81019e-06 0)
(0.00881689 5.75468e-06 0)
(0.00880689 4.75744e-06 0)
(0.0087968 4.71761e-06 0)
(0.00878826 3.74403e-06 0)
(0.00877965 3.69758e-06 0)
(0.00877253 2.75104e-06 0)
(0.0087654 2.69706e-06 0)
(0.00875966 1.78058e-06 0)
(0.00875397 1.72711e-06 0)
(0.0087496 8.2791e-07 0)
(0.00874532 8.17321e-07 0)
(0.00874228 -1.37084e-07 0)
(0.00873937 2.08305e-08 0)
(0.00873762 -1.02573e-06 0)
(0.00873601 -8.83131e-07 0)
(0.00873539 -1.85337e-06 0)
(0.00873508 -1.7744e-06 0)
(0.0087357 -2.60907e-06 0)
(0.00873667 -2.54243e-06 0)
(0.00873837 -3.34659e-06 0)
(0.00874051 -3.48073e-06 0)
(0.00874334 -4.09545e-06 0)
(0.00874655 -4.38156e-06 0)
(0.0087504 -4.72303e-06 0)
(0.00875467 -5.04686e-06 0)
(0.00875945 -5.35961e-06 0)
(0.00876473 -5.6312e-06 0)
(0.00877049 -5.93333e-06 0)
(0.00877672 -6.18423e-06 0)
(0.00878339 -6.47791e-06 0)
(0.00879046 -6.75057e-06 0)
(0.0087979 -6.9702e-06 0)
(0.00880576 -7.26179e-06 0)
(0.00881389 -7.47085e-06 0)
(0.00882257 -7.71982e-06 0)
(0.00883124 -7.94385e-06 0)
(0.00884072 -8.12059e-06 0)
(0.00884993 -8.41288e-06 0)
(0.00886013 -8.45445e-06 0)
(0.00886986 -8.79939e-06 0)
(0.00888071 -8.73672e-06 0)
(0.00889094 -9.123e-06 0)
(0.00890241 -9.02144e-06 0)
(0.00891311 -9.4013e-06 0)
(0.00892511 -9.27755e-06 0)
(0.00893625 -9.64192e-06 0)
(0.00894872 -9.5002e-06 0)
(0.00896025 -9.84365e-06 0)
(0.00897313 -9.69059e-06 0)
(0.00898502 -1.00148e-05 0)
(0.00899825 -9.86605e-06 0)
(0.00901046 -1.0162e-05 0)
(0.00902397 -1.0036e-05 0)
(0.00903645 -1.02871e-05 0)
(0.00905022 -1.0174e-05 0)
(0.00906293 -1.03959e-05 0)
(0.00907692 -1.02664e-05 0)
(0.00908982 -1.04786e-05 0)
(0.00910398 -1.03344e-05 0)
(0.00911706 -1.05226e-05 0)
(0.00913136 -1.03809e-05 0)
(0.00914457 -1.05449e-05 0)
(0.00915896 -1.04118e-05 0)
(0.00917227 -1.05507e-05 0)
(0.00918674 -1.04257e-05 0)
(0.00920012 -1.05405e-05 0)
(0.00921462 -1.04222e-05 0)
(0.00922805 -1.05138e-05 0)
(0.00924255 -1.04019e-05 0)
(0.00925601 -1.04708e-05 0)
(0.00927049 -1.03672e-05 0)
(0.00928395 -1.04091e-05 0)
(0.00929839 -1.0319e-05 0)
(0.00931184 -1.0333e-05 0)
(0.00932619 -1.02553e-05 0)
(0.00933963 -1.02521e-05 0)
(0.00935386 -1.01747e-05 0)
(0.00936727 -1.01611e-05 0)
(0.00938136 -1.00813e-05 0)
(0.00939474 -1.00548e-05 0)
(0.00940866 -9.97974e-06 0)
(0.009422 -9.93999e-06 0)
(0.00943574 -9.86875e-06 0)
(0.00944901 -9.81761e-06 0)
(0.00946256 -9.7494e-06 0)
(0.00947576 -9.68689e-06 0)
(0.00948909 -9.62189e-06 0)
(0.00950221 -9.54808e-06 0)
(0.00951532 -9.48476e-06 0)
(0.00952833 -9.41724e-06 0)
(0.00954126 -9.34185e-06 0)
(0.0095541 -9.26948e-06 0)
(0.00956685 -9.1942e-06 0)
(0.00957952 -9.12012e-06 0)
(0.00959209 -9.04419e-06 0)
(0.00960457 -8.96872e-06 0)
(0.00961696 -8.89151e-06 0)
(0.00962925 -8.81449e-06 0)
(0.00964145 -8.736e-06 0)
(0.00965355 -8.65765e-06 0)
(0.00966554 -8.57842e-06 0)
(0.00967744 -8.49917e-06 0)
(0.00968924 -8.41946e-06 0)
(0.00970094 -8.33968e-06 0)
(0.00971253 -8.25967e-06 0)
(0.00972402 -8.17967e-06 0)
(0.00973541 -8.09959e-06 0)
(0.0097467 -8.01957e-06 0)
(0.00975788 -7.93958e-06 0)
(0.00976896 -7.85972e-06 0)
(0.00977994 -7.77999e-06 0)
(0.00979081 -7.70046e-06 0)
(0.00980157 -7.62115e-06 0)
(0.00981224 -7.54213e-06 0)
(0.00982279 -7.46343e-06 0)
(0.00983325 -7.38508e-06 0)
(0.0098436 -7.30712e-06 0)
(0.00985385 -7.22957e-06 0)
(0.009864 -7.15247e-06 0)
(0.00987404 -7.07583e-06 0)
(0.00988398 -6.99967e-06 0)
(0.00989382 -6.92403e-06 0)
(0.00990356 -6.84892e-06 0)
(0.0099132 -6.77436e-06 0)
(0.00992274 -6.70037e-06 0)
(0.00993218 -6.62696e-06 0)
(0.00994152 -6.55415e-06 0)
(0.00995077 -6.48196e-06 0)
(0.00995991 -6.41039e-06 0)
(0.00996896 -6.33945e-06 0)
(0.00997792 -6.26916e-06 0)
(0.00998678 -6.19952e-06 0)
(0.00999554 -6.13055e-06 0)
(0.0100042 -6.06225e-06 0)
(0.0100128 -5.99463e-06 0)
(0.0100213 -5.92769e-06 0)
(0.0100297 -5.86143e-06 0)
(0.010038 -5.79587e-06 0)
(0.0100462 -5.73099e-06 0)
(0.0100543 -5.66682e-06 0)
(0.0100623 -5.60333e-06 0)
(0.0100703 -5.54055e-06 0)
(0.0100782 -5.47846e-06 0)
(0.0100859 -5.41707e-06 0)
(0.0100936 -5.35637e-06 0)
(0.0101012 -5.29637e-06 0)
(0.0101088 -5.23706e-06 0)
(0.0101162 -5.17843e-06 0)
(0.0101236 -5.1205e-06 0)
(0.0101309 -5.06324e-06 0)
(0.0101381 -5.00665e-06 0)
(0.0101452 -4.95073e-06 0)
(0.0101523 -4.89547e-06 0)
(0.0101592 -4.84087e-06 0)
(0.0101661 -4.78693e-06 0)
(0.010173 -4.73363e-06 0)
(0.0101797 -4.68099e-06 0)
(0.0101864 -4.62898e-06 0)
(0.010193 -4.5776e-06 0)
(0.0101995 -4.52684e-06 0)
(0.010206 -4.47671e-06 0)
(0.0102124 -4.42718e-06 0)
(0.0102187 -4.37826e-06 0)
(0.0102249 -4.32993e-06 0)
(0.0102311 -4.28219e-06 0)
(0.0102372 -4.23503e-06 0)
(0.0102433 -4.18844e-06 0)
(0.0102493 -4.14241e-06 0)
(0.0102552 -4.09694e-06 0)
(0.0102611 -4.05202e-06 0)
(0.0102669 -4.00764e-06 0)
(0.0102726 -3.96379e-06 0)
(0.0102783 -3.92046e-06 0)
(0.0102839 -3.87765e-06 0)
(0.0102894 -3.83535e-06 0)
(0.0102949 -3.79354e-06 0)
(0.0103004 -3.75222e-06 0)
(0.0103057 -3.71139e-06 0)
(0.0103111 -3.67103e-06 0)
(0.0103163 -3.63113e-06 0)
(0.0103215 -3.59169e-06 0)
(0.0103267 -3.55269e-06 0)
(0.0103318 -3.51414e-06 0)
(0.0103368 -3.47601e-06 0)
(0.0103418 -3.43831e-06 0)
(0.0103467 -3.40102e-06 0)
(0.0103516 -3.36414e-06 0)
(0.0103564 -3.32766e-06 0)
(0.0103612 -3.29156e-06 0)
(0.0103659 -3.25584e-06 0)
(0.0103706 -3.2205e-06 0)
(0.0103752 -3.18552e-06 0)
(0.0103798 -3.15089e-06 0)
(0.0103843 -3.11662e-06 0)
(0.0103888 -3.08268e-06 0)
(0.0103932 -3.04907e-06 0)
(0.0103976 -3.01579e-06 0)
(0.0104019 -2.98282e-06 0)
(0.0104062 -2.95015e-06 0)
(0.0104105 -2.91779e-06 0)
(0.0104147 -2.88573e-06 0)
(0.0104188 -2.85398e-06 0)
(0.0104229 -2.8226e-06 0)
(0.010427 -2.79154e-06 0)
(0.010431 -2.7607e-06 0)
(0.010435 -2.73005e-06 0)
(0.0104389 -2.69961e-06 0)
(0.0104428 -2.66937e-06 0)
(0.0104466 -2.63935e-06 0)
(0.0104504 -2.60952e-06 0)
(0.0104542 -2.57988e-06 0)
(0.0104579 -2.55022e-06 0)
(0.0104615 -2.52099e-06 0)
(0.0104652 -2.48972e-06 0)
(0.0104688 -2.46929e-06 0)
(0.0104723 -2.42856e-06 0)
(0.0104758 -2.41694e-06 0)
(0.0104793 -2.36771e-06 0)
(0.0104827 -2.3618e-06 0)
(0.0104861 -2.30857e-06 0)
(0.0104895 -2.3085e-06 0)
(0.0104927 -2.24828e-06 0)
(0.010496 -2.25077e-06 0)
(0.0104992 -2.19026e-06 0)
(0.0105025 -2.19179e-06 0)
(0.0105055 -2.13373e-06 0)
(0.0105087 -2.13214e-06 0)
(0.0105116 -2.07984e-06 0)
(0.0105149 -2.07315e-06 0)
(0.0105175 -2.03541e-06 0)
(0.0105209 -2.02233e-06 0)
(0.0105231 -2.02639e-06 0)
(0.0105269 -2.01567e-06 0)
(0.0105285 -2.15563e-06 0)
(0.0105329 -2.28384e-06 0)
(0.0105334 -3.27296e-06 0)
(-4.42722e-06 5.87224e-06 0)
(-4.63218e-05 5.89455e-05 0)
(-0.000133606 0.000123836 0)
(-0.000262724 0.000181794 0)
(-0.000426115 0.000227254 0)
(-0.000613921 0.000256518 0)
(-0.000818785 0.000274879 0)
(-0.00103362 0.000283358 0)
(-0.00125389 0.000286716 0)
(-0.00147649 0.000286467 0)
(-0.00169883 0.000284839 0)
(-0.00192039 0.000281959 0)
(-0.00213976 0.000278705 0)
(-0.00235706 0.000275596 0)
(-0.00257209 0.000272572 0)
(-0.00278477 0.000269477 0)
(-0.00299515 0.000266128 0)
(-0.00320304 0.000263015 0)
(-0.00340803 0.000259311 0)
(-0.00361056 0.000254875 0)
(-0.00381135 0.000250276 0)
(-0.00401005 0.000245703 0)
(-0.00420681 0.000241265 0)
(-0.00440143 0.000236992 0)
(-0.0045939 0.000233008 0)
(-0.00478419 0.000229449 0)
(-0.00497229 0.000226379 0)
(-0.00515819 0.000224 0)
(-0.00534194 0.000222272 0)
(-0.00552351 0.000221376 0)
(-0.00570298 0.000221104 0)
(-0.00588026 0.000221551 0)
(-0.00605555 0.000222115 0)
(-0.00622923 0.000222459 0)
(-0.00640188 0.000227495 0)
(-0.00657085 0.000230161 0)
(-0.00673651 0.000233261 0)
(-0.00690017 0.000236184 0)
(-0.00706171 0.0002387 0)
(-0.00722114 0.000240675 0)
(-0.00737846 0.000242078 0)
(-0.00753389 0.000242661 0)
(-0.00768743 0.00024262 0)
(-0.00783946 0.000241839 0)
(-0.00799004 0.000240459 0)
(-0.00813928 0.000238589 0)
(-0.00828716 0.000236354 0)
(-0.00843366 0.00023386 0)
(-0.00857873 0.000231177 0)
(-0.00872233 0.000228347 0)
(-0.00886444 0.000225371 0)
(-0.00900503 0.000222243 0)