/*--------------------------------*- C++ -*----------------------------------*\
| =========                 |                                                 |
| \\      /  F ield         | OpenFOAM: The Open Source CFD Toolbox           |
|  \\    /   O peration     | Version:  2012                                  |
|   \\  /    A nd           | Website:  www.openfoam.com                      |
|    \\/     M anipulation  |                                                 |
\*---------------------------------------------------------------------------*/
FoamFile
{
    version     2.0;
    format      ascii;
    class       volScalarField;
    location    "0.27";
    object      minKappa;
}
// * * * * * * * * * * * * * * * * * * * * * * * * * * * * * * * * * * * * * //

dimensions      [0 0 0 0 0 0 0];


internalField   nonuniform List<scalar> 
2268
(
1.07307e-06
2.44536e-06
3.87432e-06
5.40805e-06
6.91927e-06
8.39206e-06
9.88928e-06
1.13453e-05
1.28344e-05
1.41406e-05
1.55829e-05
1.65636e-05
1.78292e-05
1.87146e-05
1.92946e-05
1.96792e-05
1.95619e-05
1.89466e-05
1.7714e-05
1.56543e-05
1.24918e-05
8.69114e-06
4.09623e-06
1.07307e-06
2.44536e-06
3.87432e-06
5.40805e-06
6.91927e-06
8.39206e-06
9.88928e-06
1.13453e-05
1.28344e-05
1.41406e-05
1.55829e-05
1.65636e-05
1.78292e-05
1.87146e-05
1.92946e-05
1.96792e-05
1.95619e-05
1.89466e-05
1.7714e-05
1.56543e-05
1.24918e-05
8.69114e-06
4.09623e-06
1.63451e-06
2.74173e-06
4.07088e-06
5.55371e-06
7.03136e-06
8.4883e-06
9.97236e-06
1.14236e-05
1.29009e-05
1.42185e-05
1.56444e-05
1.66423e-05
1.79681e-05
1.87304e-05
1.94496e-05
1.98337e-05
1.98138e-05
1.92469e-05
1.81196e-05
1.62299e-05
1.33123e-05
9.84361e-06
6.19107e-06
2.29342e-06
3.17812e-06
4.37682e-06
5.78601e-06
7.21218e-06
8.64367e-06
1.01073e-05
1.15502e-05
1.30073e-05
1.43385e-05
1.57433e-05
1.67735e-05
1.813e-05
1.88349e-05
1.96395e-05
2.00457e-05
2.01316e-05
1.96553e-05
1.86242e-05
1.70009e-05
1.44987e-05
1.19372e-05
9.59764e-06
2.98325e-06
3.70782e-06
4.77167e-06
6.09749e-06
7.45888e-06
8.85747e-06
1.02956e-05
1.17273e-05
1.31577e-05
1.45071e-05
1.58863e-05
1.69659e-05
1.83425e-05
1.90261e-05
1.99212e-05
2.03492e-05
2.05801e-05
2.0253e-05
1.94114e-05
1.80638e-05
1.59522e-05
1.41434e-05
1.29643e-05
3.68605e-06
4.29585e-06
5.23398e-06
6.47668e-06
7.76426e-06
9.12339e-06
1.05311e-05
1.19475e-05
1.33466e-05
1.47155e-05
1.6061e-05
1.72039e-05
1.85927e-05
1.92752e-05
2.0325e-05
2.07323e-05
2.1069e-05
2.09367e-05
2.03417e-05
1.93729e-05
1.76917e-05
1.68869e-05
1.71907e-05
4.39498e-06
4.92146e-06
5.74878e-06
6.91338e-06
8.12537e-06
9.44041e-06
1.0814e-05
1.22115e-05
1.35803e-05
1.49687e-05
1.62766e-05
1.74983e-05
1.88845e-05
1.95848e-05
2.08173e-05
2.1175e-05
2.17026e-05
2.17133e-05
2.14897e-05
2.09371e-05
1.97615e-05
2.00343e-05
2.15584e-05
5.10805e-06
5.572e-06
6.30341e-06
7.39699e-06
8.53488e-06
9.80214e-06
1.11378e-05
1.25133e-05
1.38546e-05
1.52562e-05
1.65297e-05
1.7842e-05
1.91919e-05
1.99521e-05
2.13594e-05
2.1683e-05
2.24837e-05
2.26231e-05
2.27758e-05
2.27872e-05
2.20691e-05
2.36703e-05
2.76813e-05
2.4227e-05
8.77159e-05
0.000117129
0.000138468
0.000137568
0.000125606
0.000116313
9.58527e-05
7.74869e-05
5.58581e-05
3.65028e-05
1.88835e-05
6.29537e-06
9.26575e-06
1.31112e-05
1.75149e-05
1.29106e-05
1.23422e-05
4.00334e-06
2.4227e-05
8.77159e-05
0.000117129
0.000138468
0.000137568
0.000125606
0.000116313
9.58527e-05
7.74869e-05
5.58581e-05
3.65028e-05
1.88835e-05
6.29537e-06
9.26575e-06
1.31112e-05
1.75149e-05
1.29106e-05
1.23422e-05
4.00334e-06
4.56305e-05
9.58162e-05
0.000117389
0.000143062
0.000143998
0.000128511
0.000119476
9.89333e-05
7.99296e-05
5.90117e-05
3.90688e-05
2.30567e-05
1.11022e-05
1.2647e-05
1.47688e-05
1.84422e-05
1.34516e-05
1.28562e-05
5.44746e-06
6.53088e-05
0.000111509
0.00012955
0.000151892
0.00014612
0.000130299
0.000122124
0.000101039
8.19865e-05
6.18831e-05
4.15574e-05
2.71743e-05
1.63769e-05
1.63886e-05
1.70101e-05
2.01075e-05
1.52216e-05
1.47498e-05
8.21605e-06
9.11356e-05
0.000131289
0.000140672
0.000164736
0.000158819
0.000135063
0.000127261
0.000106465
8.60904e-05
6.75323e-05
4.60694e-05
3.32772e-05
2.1947e-05
2.09719e-05
2.00676e-05
2.22446e-05
1.70559e-05
1.67118e-05
1.13826e-05
0.000116342
0.000157546
0.00016253
0.000177966
0.000166143
0.000140617
0.000133859
0.000111905
9.08186e-05
7.3459e-05
5.11744e-05
3.99158e-05
2.86239e-05
2.63518e-05
2.41164e-05
2.53847e-05
2.00452e-05
1.9686e-05
1.47883e-05
0.00015047
0.000189754
0.000187672
0.000203655
0.000189952
0.000149838
0.000140818
0.000121514
9.75572e-05
8.17208e-05
5.75827e-05
4.73462e-05
3.53086e-05
3.19827e-05
2.86055e-05
2.89054e-05
2.3353e-05
2.31265e-05
1.88809e-05
0.000181508
0.000232887
0.000224657
0.000225003
0.000210141
0.00016235
0.000153586
0.00013232
0.000106489
9.14484e-05
6.57397e-05
5.58887e-05
4.34603e-05
3.87544e-05
3.44677e-05
3.3778e-05
2.77419e-05
2.73539e-05
2.3331e-05
9.10479e-06
9.75591e-06
1.0776e-05
1.23869e-05
1.4058e-05
1.59632e-05
1.79918e-05
2.01054e-05
2.21719e-05
2.4371e-05
2.63374e-05
2.85186e-05
3.05298e-05
3.19187e-05
3.43041e-05
3.48182e-05
3.66191e-05
3.69237e-05
3.81031e-05
3.87488e-05
4.00966e-05
4.48988e-05
5.63413e-05
1.56322e-05
1.63658e-05
1.74816e-05
1.94287e-05
2.14347e-05
2.36595e-05
2.60427e-05
2.86347e-05
3.13234e-05
3.41346e-05
3.69434e-05
3.99018e-05
4.27447e-05
4.56007e-05
4.85736e-05
5.06558e-05
5.40361e-05
5.496e-05
5.86601e-05
5.95001e-05
6.38526e-05
6.85193e-05
6.57986e-05
1.88771e-05
1.95062e-05
2.04306e-05
2.21773e-05
2.39676e-05
2.61679e-05
2.84543e-05
3.09398e-05
3.35808e-05
3.64166e-05
3.93417e-05
4.24327e-05
4.5546e-05
4.87922e-05
5.19171e-05
5.49467e-05
5.85513e-05
6.03692e-05
6.45826e-05
6.62149e-05
7.31168e-05
7.7025e-05
7.41887e-05
2.21143e-05
2.26685e-05
2.3471e-05
2.5059e-05
2.66908e-05
2.8752e-05
3.10684e-05
3.3464e-05
3.60474e-05
3.88537e-05
4.17768e-05
4.49371e-05
4.84281e-05
5.3128e-05
5.85182e-05
6.81985e-05
8.05895e-05
9.68216e-05
9.82532e-05
9.54476e-05
8.07654e-05
8.26769e-05
7.02479e-05
2.53319e-05
2.58303e-05
2.65682e-05
2.80263e-05
2.95477e-05
3.15062e-05
3.37409e-05
3.61914e-05
3.89255e-05
4.26124e-05
4.7199e-05
5.58985e-05
7.4273e-05
0.000102818
0.000148075
0.000233718
0.000395085
0.000573577
0.000574336
0.000511283
0.000226701
0.000208756
0.000192761
2.86468e-05
2.91218e-05
2.99213e-05
3.14436e-05
3.32826e-05
3.60178e-05
3.99635e-05
4.84096e-05
6.24262e-05
8.37641e-05
0.000117174
0.000199091
0.000430226
0.000682693
0.000870754
0.000972612
0.000887669
0.000887669
0.0010291
0.0013613
0.00168541
0.00160948
0.00137761
5.10457e-05
5.27876e-05
5.69135e-05
6.41098e-05
7.47086e-05
9.21233e-05
0.000123711
0.000219219
0.000380288
0.00056236
0.000785367
0.000966593
0.0012046
0.00135493
0.00113064
0.000969907
0.000933809
0.00113686
0.00138495
0.00187926
0.00199387
0.00213374
0.00162145
0.000338981
0.000353327
0.000389675
0.000447373
0.000524901
0.000630239
0.000699776
0.000842536
0.00100172
0.00115522
0.00134214
0.00147641
0.00160071
0.00163536
0.00146145
0.001293
0.00145816
0.00173089
0.00178467
0.00170914
0.00170166
0.00186847
0.00173761
0.000745002
0.000754401
0.000781642
0.000817019
0.000864723
0.000953005
0.00100669
0.00110511
0.00125065
0.0014446
0.00166598
0.00183732
0.00190139
0.00189799
0.00180528
0.00185509
0.0019283
0.00184492
0.00173244
0.00166156
0.00166156
0.00166887
0.00160066
0.000808647
0.000820697
0.000851888
0.000895647
0.000953839
0.00104495
0.0011259
0.00122738
0.00136463
0.00154051
0.00172908
0.00178913
0.00175868
0.00169396
0.00162552
0.00169556
0.00178
0.00181301
0.00179827
0.00175742
0.00173454
0.00177844
0.00151438
0.000890164
0.000904699
0.000936004
0.000983323
0.00103403
0.00109789
0.00118398
0.00128659
0.00142538
0.00159202
0.00165366
0.00159316
0.00150626
0.00135787
0.00117269
0.00116669
0.00127474
0.00138968
0.00151324
0.00163652
0.00175604
0.00186525
0.00163534
0.000962068
0.000974008
0.000999102
0.00104001
0.00108214
0.00113529
0.00121032
0.00130778
0.0014372
0.00154778
0.00152076
0.00144254
0.00129407
0.00107951
0.000920798
0.000844081
0.00094229
0.00108288
0.0012581
0.00144885
0.00165191
0.00186561
0.0017217
0.00102093
0.00103202
0.00105279
0.00108874
0.00112685
0.00117674
0.00124665
0.001334
0.00142737
0.00147468
0.0014329
0.00134108
0.00118993
0.000993805
0.000847167
0.000841119
0.000841119
0.000973289
0.00119286
0.00144788
0.00170435
0.00194813
0.0018347
0.00107113
0.00108183
0.00109831
0.00113101
0.00116204
0.00120226
0.00125707
0.00132015
0.00138371
0.00142135
0.00137818
0.00130809
0.00119119
0.0010706
0.000961649
0.000904088
0.000991588
0.0011674
0.0013715
0.00159612
0.00182822
0.00206923
0.00195695
0.00111596
0.00112446
0.00113782
0.00116487
0.00118999
0.00122265
0.00126478
0.00131282
0.00135901
0.00138692
0.00135344
0.00129846
0.0012354
0.00116493
0.001109
0.00110518
0.0011934
0.00134924
0.00152064
0.00171603
0.00193899
0.00218904
0.00209089
0.00115332
0.00116009
0.00117138
0.00119424
0.00121579
0.00124123
0.0012709
0.00130334
0.00133483
0.00136136
0.00135929
0.00134513
0.00130751
0.00126562
0.00126158
0.00128472
0.00136691
0.00150055
0.0016475
0.00183143
0.00205339
0.00231979
0.00222918
0.00118434
0.00119052
0.00120081
0.00121992
0.00123753
0.00125802
0.00128096
0.00130595
0.0013312
0.00135599
0.00137399
0.00137187
0.00136938
0.00135889
0.00137865
0.00141617
0.00150163
0.00161531
0.00176228
0.00194452
0.00216895
0.00244349
0.00235005
0.0012109
0.00121674
0.001226
0.00124141
0.00125639
0.00127476
0.00129419
0.00131396
0.00133464
0.00136038
0.00138584
0.00140291
0.00141965
0.0014291
0.00146659
0.00151435
0.00160625
0.00171484
0.0018596
0.00203705
0.00226161
0.00253904
0.00244932
0.00123368
0.00123859
0.00124635
0.00125834
0.00127132
0.00128749
0.00130568
0.00132622
0.0013466
0.00136936
0.00139636
0.00142446
0.00145692
0.00148346
0.00152548
0.0015806
0.00166421
0.00177675
0.00192089
0.00209929
0.00232622
0.00260613
0.0025016
0.00125226
0.00125597
0.0012627
0.00127284
0.00128491
0.00130026
0.00131703
0.00133648
0.00135782
0.00138202
0.00141154
0.00144261
0.00147839
0.0015136
0.00155846
0.00162367
0.0017148
0.0018305
0.00197263
0.00215039
0.00236979
0.00264502
0.00250412
0.00126661
0.00126986
0.0012764
0.0012848
0.00129556
0.00130913
0.00132445
0.00134371
0.00136558
0.00139085
0.0014205
0.00145032
0.00148592
0.0015274
0.00158207
0.00165228
0.00174057
0.00185316
0.00198968
0.00216269
0.00237329
0.00264203
0.0025053
0.00127826
0.00128152
0.00128672
0.00129421
0.0013041
0.00131721
0.0013321
0.00135004
0.00137092
0.00139475
0.00142342
0.00145528
0.00149488
0.00154079
0.0015955
0.00166403
0.00175206
0.00186347
0.00199501
0.00216167
0.00235991
0.00261606
0.00247105
0.00128777
0.00129041
0.00129415
0.00130062
0.00130927
0.00132084
0.0013345
0.00135182
0.00137206
0.00139512
0.00142311
0.00145477
0.00149318
0.00153725
0.00159225
0.00166244
0.00174653
0.00185086
0.00197421
0.00212969
0.00231339
0.00254628
0.00235402
0.00129436
0.00129515
0.00129859
0.0013047
0.00131283
0.00132375
0.00133639
0.00135195
0.00137073
0.00139257
0.00141942
0.00144967
0.00148638
0.00153066
0.00158304
0.00164709
0.00172585
0.0018243
0.00194047
0.00208474
0.00225457
0.00246448
0.00222789
0.00129766
0.00129766
0.00130083
0.00130616
0.00131316
0.00132269
0.00133424
0.00134875
0.00136623
0.00138607
0.00141004
0.00143838
0.00147269
0.00151253
0.00156089
0.00162072
0.00169116
0.00177838
0.00188247
0.00201201
0.00216683
0.00235727
0.00211233
0.00129871
0.00129871
0.00130134
0.00130601
0.00131217
0.00132042
0.00133027
0.00134253
0.00135777
0.00137583
0.00139773
0.00142304
0.00145399
0.00149118
0.00153491
0.00158803
0.00165122
0.00172806
0.00181897
0.00192969
0.00206192
0.00222323
0.00195933
0.00129753
0.00129753
0.00129966
0.00130342
0.00130841
0.00131525
0.00132363
0.00133409
0.00134682
0.00136174
0.00138007
0.00140162
0.00142763
0.00145885
0.00149671
0.00154286
0.00159738
0.00166388
0.00174273
0.00183814
0.00195085
0.00208638
0.00180044
0.00129521
0.00129521
0.00129691
0.00129991
0.00130379
0.00130907
0.00131561
0.0013239
0.0013339
0.00134612
0.00136002
0.0013772
0.0013981
0.00142309
0.00145294
0.00148991
0.00153268
0.00158686
0.00164873
0.00172743
0.00181705
0.0019296
0.00164906
0.00129126
0.00129126
0.00129243
0.00129455
0.00129723
0.0013009
0.00130463
0.00131044
0.00131631
0.00132473
0.00133431
0.00134644
0.00136146
0.00137987
0.00140228
0.00143008
0.00146274
0.0015041
0.00155202
0.00161259
0.00168243
0.00176908
0.00148734
0.0012874
0.0012874
0.00128795
0.001289
0.00128943
0.00129113
0.00129224
0.00129517
0.00129792
0.00130247
0.00130762
0.00131451
0.00132343
0.00133481
0.00134916
0.0013675
0.00138972
0.00141846
0.00145283
0.00149674
0.00154909
0.00161372
0.00134253
0.00128277
0.00128263
0.00128254
0.00128205
0.00128071
0.00128027
0.00127901
0.00127892
0.00127831
0.00127889
0.00127959
0.00128129
0.00128417
0.00128859
0.0012951
0.00130416
0.00131619
0.00133269
0.00135381
0.00138182
0.00141723
0.0014621
0.00120087
0.00127835
0.00127746
0.00127619
0.00127446
0.00127235
0.00126957
0.00126574
0.00126251
0.00125849
0.0012551
0.00125138
0.00124787
0.00124468
0.00124202
0.00124069
0.00124073
0.00124288
0.00124789
0.00125665
0.00127035
0.00129058
0.00131798
0.00107147
0.00127513
0.00127344
0.0012709
0.0012675
0.00126348
0.00125888
0.0012528
0.00124633
0.00123879
0.00123131
0.00122309
0.00121453
0.00120561
0.00119629
0.00118738
0.00117869
0.00117124
0.00116514
0.00116197
0.00116217
0.00116827
0.00118021
0.000947521
0.00127205
0.00126959
0.0012658
0.00126072
0.00125455
0.00124734
0.00123924
0.00123042
0.00122022
0.00120829
0.00119538
0.0011818
0.00116746
0.00115196
0.00113594
0.00111902
0.00110249
0.00108603
0.00107164
0.00105927
0.0010522
0.0010501
0.000834039
0.00127097
0.00126805
0.0012634
0.00125701
0.00124898
0.00123928
0.00122804
0.00121541
0.00120151
0.00118671
0.00116976
0.00115083
0.00113071
0.00110908
0.00108649
0.00106209
0.00103714
0.001011
0.000985982
0.000961721
0.000942125
0.000926819
0.000725901
0.0012701
0.00126658
0.00126091
0.00125311
0.00124325
0.0012313
0.00121734
0.00120147
0.00118376
0.00116439
0.0011433
0.00112075
0.00109676
0.00106987
0.00104051
0.0010089
0.000976172
0.000941217
0.000906376
0.00087099
0.000839409
0.000811504
0.000625179
0.00127078
0.00126707
0.0012609
0.00125225
0.00124118
0.00122764
0.00121162
0.0011931
0.00117202
0.00114855
0.00112272
0.00109474
0.00106454
0.00103228
0.000997968
0.000960685
0.000919918
0.000876455
0.000832487
0.000786829
0.000743825
0.000703489
0.000530282
0.00127068
0.0012665
0.00125969
0.00125018
0.001238
0.0012231
0.00120542
0.00118488
0.00116137
0.00113491
0.00110532
0.00107266
0.00103678
0.000997968
0.000956297
0.000912208
0.000865914
0.000817935
0.000766582
0.000710562
0.000656431
0.000603934
0.000440243
0.001272
0.00126762
0.00126052
0.00125063
0.00123797
0.00122242
0.00120393
0.00118236
0.00115745
0.00112907
0.00109692
0.00106099
0.00102107
0.000977149
0.000929059
0.000877063
0.000821372
0.00076286
0.00070245
0.000641782
0.000578654
0.000512839
0.000356563
0.00127103
0.0012663
0.00125879
0.00124846
0.00123531
0.00121919
0.00120002
0.00117766
0.00115183
0.00112232
0.00108876
0.00105098
0.00100852
0.000961284
0.000908909
0.000851437
0.000788784
0.000721487
0.000650258
0.000576886
0.000503768
0.000435129
0.00027675
0.00127246
0.00126762
0.00125997
0.00124948
0.00123616
0.00121986
0.00120051
0.00117797
0.00115197
0.00112226
0.00108833
0.0010499
0.00100651
0.000957995
0.000903815
0.000843713
0.000777183
0.000704215
0.000624824
0.000539878
0.000450819
0.000361613
0.000205244
0.00126971
0.00126463
0.00125669
0.00124589
0.00123224
0.00121562
0.00119594
0.00117307
0.00114676
0.00111679
0.00108262
0.00104392
0.00100009
0.000951
0.000896158
0.000835317
0.000767925
0.000693769
0.000612445
0.000524144
0.000429045
0.000328262
0.000164733
3.38881e-05
2.56692e-05
2.56692e-05
5.64882e-05
4.23298e-05
4.23298e-05
4.24118e-05
5.40754e-05
4.85204e-05
4.85204e-05
4.89871e-05
4.92545e-05
4.65914e-05
4.65914e-05
4.80469e-05
4.93594e-05
0.000171081
0.000121359
5.59409e-05
5.59409e-05
0.000964966
0.000907354
0.000437429
0.000264741
0.00106643
0.00106643
0.00109495
0.00111556
0.00113932
0.00113932
0.00114456
0.00114456
0.0011077
0.0011077
0.00117805
0.00123705
0.00102252
0.00102252
0.00108144
0.0011445
0.00109992
0.00109992
0.00115079
0.00120271
0.00116384
0.00116384
0.00122507
0.00128515
0.00124596
0.00124596
0.00131704
0.00138521
0.0013344
0.0013344
0.0014172
0.001497
0.00143073
0.00143073
0.00152172
0.0016216
0.00152896
0.00152896
0.00163772
0.00177224
0.00162085
0.00162085
0.00175292
0.00189608
0.00169455
0.00169455
0.00182905
0.00193297
0.00172875
0.00172875
0.00183657
0.00188233
0.00172268
0.00172268
0.00180442
0.00182067
0.00172154
0.00172154
0.001808
0.00182406
0.00169606
0.00169606
0.00178364
0.00180752
0.00161664
0.00161664
0.0017121
0.00175462
0.00151983
0.00151983
0.00161936
0.00169253
0.00143057
0.00143057
0.00152335
0.00162769
0.00131979
0.00131979
0.001389
0.0014725
0.00120586
0.00120586
0.00126051
0.00132198
0.00109825
0.00109825
0.00114021
0.00118574
0.000986216
0.000986216
0.00102032
0.00105724
0.000884871
0.000884871
0.00090968
0.000936554
0.000788416
0.000788416
0.000807693
0.000828629
0.00070017
0.00070017
0.000713951
0.000729207
0.000616856
0.000616856
0.000626991
0.000638585
0.000540526
0.000540526
0.00054705
0.000555004
0.000468598
0.000468598
0.000472815
0.000478515
0.000401245
0.000401245
0.000402908
0.000406202
0.000338217
0.000338081
0.000338081
0.000339778
0.000277841
0.000275532
0.000275505
0.000275505
0.00022155
0.00021703
0.000215299
0.000215299
0.000167312
0.000160315
0.000156936
0.000156936
0.000116209
0.00010477
9.8495e-05
9.8495e-05
8.26342e-05
6.14126e-05
4.5644e-05
4.5644e-05
0.000371058
0.000440776
0.000411429
0.000401982
0.000372083
0.00026552
0.000243919
0.0002299
0.000181193
0.000161013
0.000117458
0.000101875
8.06452e-05
7.12744e-05
6.29889e-05
6.08881e-05
5.12967e-05
5.06735e-05
4.48921e-05
0.000177624
0.000736751
0.00102869
0.000723576
0.000554645
0.000474487
0.000400222
0.000326561
0.00028861
0.000276053
0.000212448
0.00019251
0.000161062
0.000141765
0.000124798
0.000117168
0.000100548
9.76854e-05
8.95805e-05
8.21462e-05
0.000151978
0.000231651
0.000953052
0.00110829
0.000746431
0.000438331
0.00046894
0.000347736
0.000328291
0.000278723
0.000249302
0.000218653
0.000193836
0.000172367
0.000161128
0.000143479
0.000139306
0.000131551
8.42882e-05
0.000112245
0.000116749
0.000178254
0.000298531
0.00129731
0.00129131
0.000945844
0.000556217
0.000433065
0.000354621
0.000339875
0.000299195
0.000269082
0.000240049
0.000221459
0.000199827
0.00019235
0.000184661
8.31172e-05
0.000112245
0.000116749
0.00012015
0.000128238
0.000207387
0.000816082
0.00193649
0.00135823
0.000700009
0.000490775
0.000430774
0.000405372
0.000362462
0.00032966
0.00030339
0.000278755
0.000265916
0.000257124
0.000246906
0.00019809
0.000119425
0.00012015
0.000128238
0.000129796
0.00017218
0.00043886
0.0023103
0.00173219
0.0010292
0.000632679
0.000562204
0.000498537
0.000447035
0.000409092
0.00037784
0.000359738
0.000349679
0.00186226
0.00132714
0.000341751
0.000279374
0.000181771
0.000129796
0.0001468
0.000174411
0.00059779
0.00258402
0.00206516
0.00121724
0.000806664
0.000693347
0.000608198
0.000550794
0.000508364
0.000480509
0.000467845
0.00190972
0.00251509
0.00244177
0.00210978
0.00110255
0.00032058
0.000172666
0.000239081
0.000288436
0.00100508
0.00299664
0.00206623
0.00130699
0.000977513
0.00083136
0.000732192
0.000673439
0.000632115
0.000614235
0.00215031
0.00268761
0.00267803
0.00283093
0.00277457
0.0022121
0.000836142
0.000292975
0.000247821
0.000422954
0.00200101
0.00273478
0.00197072
0.00135345
0.00110137
0.000949613
0.000870403
0.000815234
0.000791947
0.00202925
0.00302861
0.00316856
0.00311588
0.00295663
0.00270877
0.00258456
0.000526221
0.000247821
0.000312217
0.000868529
0.00293309
0.00243052
0.00180985
0.00140053
0.00120586
0.00109379
0.00102474
0.000993269
0.00210195
0.00309798
0.00337668
0.00348538
0.00343588
0.0030912
0.00278182
0.00163933
0.000348727
0.000407156
0.000679074
0.00256963
0.00263577
0.00224197
0.0017482
0.00149524
0.00134895
0.0012617
0.00122146
0.00225668
0.00322287
0.00342304
0.00356686
0.0036294
0.00345756
0.00290218
0.00245307
0.000695449
0.000407156
0.000692588
0.00265456
0.00270353
0.00250367
0.00207697
0.00177721
0.00161317
0.0015106
0.0014646
0.00244346
0.00350115
0.00369129
0.00367864
0.00370342
0.0036148
0.00314308
0.00270579
0.00097159
0.000452872
0.000962156
0.00286291
0.00273705
0.0026664
0.002347
0.00204061
0.00186668
0.00175609
0.00170501
0.00266914
0.00382341
0.00403331
0.00392865
0.00383843
0.00367342
0.00324462
0.00234786
0.00102456
0.000677634
0.0011326
0.00297805
0.00278915
0.00282263
0.00257617
0.0022848
0.00210694
0.00199424
0.00193976
0.00292221
0.00412841
0.00431574
0.00416515
0.00396127
0.00365327
0.00319094
0.00179688
0.000936317
0.000755518
0.00116814
0.00301105
0.00289664
0.00300313
0.00276632
0.00249551
0.00231549
0.00220918
0.00215345
0.00319048
0.00421516
0.00421004
0.00412084
0.00404293
0.00365327
0.00294711
0.00159634
0.00109504
0.000886812
0.00180554
0.00309395
0.00305909
0.00325666
0.00295577
0.00269322
0.00250045
0.00240053
0.00234379
0.00332529
0.003751
0.00328437
0.00370871
0.00409241
0.00363937
0.00270449
0.00280255
0.00140727
0.00185873
0.00288552
0.00311832
0.00319225
0.00347671
0.00310291
0.00285945
0.00265895
0.00256169
0.00250457
0.00326236
0.00292057
0.0019278
0.00328672
0.00401594
0.00327737
0.00230343
0.00190496
0.0020903
0.00227396
0.00258704
0.00313642
0.00346587
0.00342082
0.00317553
0.00294795
0.00277318
0.0026784
0.00262809
0.00307954
0.00197672
0.00168011
0.00254972
0.00377394
0.00256699
0.00153299
0.00142302
0.00135258
0.00168163
0.0023763
0.00320977
0.00347512
0.00324568
0.00311498
0.00296239
0.0028449
0.0027577
0.00271652
0.00272212
0.001484
0.00168011
0.00322265
0.00329003
0.00262001
0.00189334
0.00145697
0.00135258
0.00156346
0.00229014
0.00303708
0.0032051
0.00309721
0.00304426
0.002939
0.00287194
0.00280006
0.00276873
0.00273337
0.00101889
0.00244194
0.00337588
0.00293016
0.0022138
0.00208748
0.00230152
0.00164282
0.00156346
0.00217484
0.00292165
0.00303072
0.0030071
0.0029813
0.00290795
0.00286498
0.0028191
0.00279675
0.00250373
0.00101889
0.00213496
0.00313693
0.00248187
0.00187072
0.00182999
0.00225441
0.00264964
0.00188864
0.0024142
0.00292165
0.00299492
0.00296259
0.00293648
0.00287863
0.00284404
0.00280685
0.00279125
0.00293417
0.00139652
0.00153178
0.00297848
0.00228332
0.00187072
0.00182999
0.00224113
0.00322125
0.00257534
0.00273317
0.00295083
0.00299492
0.00295402
0.00291359
0.00285246
0.00281736
0.00278317
0.00276812
0.00286191
0.00210403
0.00133388
0.00205768
0.00276971
0.00195629
0.00196255
0.00278068
0.00335385
0.00310281
0.0032156
0.0030687
0.00303311
0.0029489
0.00288322
0.00281888
0.00277968
0.00274762
0.00273296
0.00284993
0.00307815
0.00133388
0.00196422
0.00234982
0.00268728
0.00273848
0.00308637
0.00355845
0.00360813
0.00346429
0.00317526
0.00304374
0.00292651
0.00284032
0.00277594
0.00273155
0.00270151
0.0026864
0.00262264
0.00380554
0.00282103
0.0019239
0.0019239
0.0022909
0.0026952
0.00308637
0.00395186
0.00389532
0.00341546
0.00316446
0.00298108
0.00286512
0.00277615
0.00271507
0.00267085
0.00264364
0.00262933
0.00232906
0.00337003
0.00374224
0.00287847
0.00256321
0.00282269
0.00312254
0.00371211
0.00404055
0.00356458
0.0032361
0.00303409
0.00288173
0.0027768
0.00269647
0.00264109
0.00260055
0.00257645
0.00256384
0.00206641
0.00288368
0.00319306
0.00347001
0.0036408
0.00360453
0.00374233
0.00372511
0.00353086
0.00321478
0.00301735
0.00286808
0.00275126
0.00266617
0.00260012
0.00255393
0.0025201
0.00250019
0.00249007
0.00183673
0.00249752
0.0027303
0.0029551
0.00314723
0.00324904
0.00327929
0.00323146
0.00309141
0.00291369
0.00279381
0.00268931
0.00260659
0.00254441
0.00249489
0.00245975
0.00243383
0.00241834
0.00241081
0.00161679
0.00216207
0.00232895
0.00249422
0.00264978
0.00275503
0.00278663
0.00278052
0.0027215
0.00263534
0.00257381
0.00250997
0.00245916
0.00241809
0.00238508
0.00236107
0.00234371
0.00233237
0.00232758
0.00142592
0.0018762
0.00200474
0.00213702
0.00225264
0.00234991
0.0024068
0.00243679
0.00242427
0.00239501
0.00237159
0.002339
0.00231471
0.00229221
0.00227449
0.00226079
0.00225178
0.00224431
0.00224236
0.00124962
0.00162581
0.00172856
0.00183825
0.00194226
0.0020355
0.00210002
0.00215124
0.00217054
0.00218178
0.00218538
0.00218014
0.0021775
0.00217136
0.00216718
0.00216291
0.00216111
0.0021578
0.00215807
0.00109199
0.0014058
0.00149178
0.00158909
0.00168322
0.00177593
0.00185079
0.0019165
0.00195844
0.00199557
0.00201848
0.00203497
0.00204899
0.00205671
0.00206412
0.00206823
0.00207257
0.0020736
0.00207541
0.000946051
0.00120924
0.00128493
0.00137433
0.00146594
0.00155956
0.00164151
0.00171834
0.00177716
0.001833
0.00187069
0.00190534
0.00193182
0.00195167
0.00196851
0.00197993
0.00198944
0.0019945
0.00199755
0.000814475
0.00103297
0.00110313
0.00118952
0.00128076
0.00137697
0.00146593
0.00155129
0.00162295
0.00169114
0.00174073
0.00178929
0.00182519
0.00185545
0.00187973
0.00189757
0.0019114
0.00192008
0.00192416
0.000689753
0.000872091
0.000940888
0.00102742
0.00112171
0.00122179
0.00131752
0.00141033
0.00149222
0.00156963
0.00162925
0.00168839
0.00173154
0.00177057
0.00180047
0.00182385
0.00184112
0.00185284
0.00185785
0.000576241
0.000725757
0.000796907
0.000886929
0.000986106
0.00109103
0.00119314
0.00129203
0.00138179
0.00146569
0.00153353
0.00160004
0.00164899
0.00169511
0.0017293
0.00175752
0.00177747
0.00179171
0.00179755
0.000466589
0.000590406
0.000667713
0.000764311
0.000870644
0.000981494
0.00109012
0.00119455
0.00129076
0.00137976
0.0014543
0.00152596
0.00157982
0.00163134
0.00166872
0.00170087
0.00172277
0.00173897
0.00174549
0.000364046
0.000468739
0.000556758
0.000662708
0.000777215
0.000893869
0.00100798
0.00111645
0.00121715
0.00130945
0.00138891
0.0014638
0.00152162
0.00157682
0.00161657
0.00165181
0.00167509
0.00169288
0.00169997
0.000265598
0.000359303
0.000462962
0.000580353
0.000703518
0.00082578
0.000944712
0.0010565
0.00116069
0.00125554
0.0013387
0.00141559
0.0014765
0.00153402
0.00157554
0.00161301
0.00163723
0.0016562
0.0016637
0.000167076
0.000269811
0.000392238
0.000520308
0.000650386
0.000776416
0.00089837
0.00101187
0.00111802
0.00121411
0.0012995
0.00137721
0.0014403
0.00149891
0.00154172
0.00158054
0.00160527
0.00162502
0.00163277
7.43753e-05
0.000193239
0.00033059
0.000477378
0.000624353
0.000768083
0.00089837
0.00101187
0.00111802
0.00121411
0.0012995
0.00137721
0.0014403
0.00149891
0.00154172
0.00158054
0.00160527
0.00162502
0.00163277
)
;

boundaryField
{
    leftWall
    {
        type            calculated;
        value           uniform 0;
    }
    rightWall
    {
        type            calculated;
        value           uniform 0;
    }
    lowerWall
    {
        type            calculated;
        value           uniform 0;
    }
    atmosphere
    {
        type            calculated;
        value           uniform 0;
    }
    defaultFaces
    {
        type            empty;
    }
}


// ************************************************************************* //
