/*--------------------------------*- C++ -*----------------------------------*\
| =========                 |                                                 |
| \\      /  F ield         | OpenFOAM: The Open Source CFD Toolbox           |
|  \\    /   O peration     | Version:  2012                                  |
|   \\  /    A nd           | Website:  www.openfoam.com                      |
|    \\/     M anipulation  |                                                 |
\*---------------------------------------------------------------------------*/
FoamFile
{
    version     2.0;
    format      ascii;
    class       surfaceScalarField;
    location    "0.27";
    object      phi;
}
// * * * * * * * * * * * * * * * * * * * * * * * * * * * * * * * * * * * * * //

dimensions      [0 3 -1 0 0 0 0];
oriented        oriented;


internalField   nonuniform List<scalar> 
4432
(
4.23535e-06
-4.23535e-06
8.44561e-06
-4.21025e-06
1.26441e-05
-4.19847e-06
1.69119e-05
-4.2678e-06
2.1071e-05
-4.15915e-06
2.52012e-05
-4.13012e-06
2.92986e-05
-4.09742e-06
3.33874e-05
-4.08881e-06
3.7257e-05
-3.86964e-06
4.10664e-05
-3.80934e-06
4.44302e-05
-3.36385e-06
4.74781e-05
-3.04789e-06
5.05287e-05
-3.05054e-06
5.25651e-05
-2.03644e-06
5.38193e-05
-1.25421e-06
5.41304e-05
-3.11031e-07
5.30967e-05
1.03365e-06
5.05196e-05
2.5771e-06
4.59577e-05
4.56193e-06
3.8669e-05
7.28873e-06
2.8819e-05
9.84996e-06
1.5513e-05
1.3306e-05
1.55132e-05
4.23155e-06
-8.4669e-06
8.44937e-06
-8.42807e-06
1.26484e-05
-8.3975e-06
1.69153e-05
-8.53467e-06
2.10801e-05
-8.32394e-06
2.52145e-05
-8.26452e-06
2.93161e-05
-8.19904e-06
3.34091e-05
-8.18184e-06
3.7296e-05
-7.7565e-06
4.1117e-05
-7.63031e-06
4.44865e-05
-6.73333e-06
4.76529e-05
-6.21438e-06
5.05948e-05
-5.99235e-06
5.26031e-05
-4.04481e-06
5.40602e-05
-2.71125e-06
5.44497e-05
-7.00521e-07
5.34639e-05
2.0194e-06
5.08024e-05
5.23865e-06
4.60668e-05
9.29751e-06
3.83826e-05
1.4973e-05
2.78304e-05
2.04022e-05
1.39324e-05
2.7204e-05
2.94458e-05
4.22877e-06
-1.26957e-05
8.45907e-06
-1.26584e-05
1.26568e-05
-1.25952e-05
1.69238e-05
-1.28016e-05
2.11023e-05
-1.25025e-05
2.52477e-05
-1.24098e-05
2.93623e-05
-1.23137e-05
3.34682e-05
-1.22877e-05
3.73899e-05
-1.16782e-05
4.12392e-05
-1.14795e-05
4.46567e-05
-1.01508e-05
4.7948e-05
-9.50574e-06
5.08687e-05
-8.91302e-06
5.2997e-05
-6.17312e-06
5.46614e-05
-4.37559e-06
5.52508e-05
-1.28991e-06
5.45929e-05
2.67723e-06
5.23363e-05
7.49527e-06
4.82634e-05
1.33704e-05
4.15026e-05
2.17338e-05
3.17641e-05
3.01406e-05
1.74061e-05
4.15621e-05
4.68522e-05
4.22743e-06
-1.69231e-05
8.46763e-06
-1.68986e-05
1.26595e-05
-1.67871e-05
1.69237e-05
-1.70659e-05
2.11191e-05
-1.66978e-05
2.52799e-05
-1.65707e-05
2.94104e-05
-1.64442e-05
3.35259e-05
-1.64033e-05
3.74825e-05
-1.56348e-05
4.1372e-05
-1.5369e-05
4.48552e-05
-1.36341e-05
4.82484e-05
-1.2899e-05
5.11931e-05
-1.18576e-05
5.33515e-05
-8.33159e-06
5.51485e-05
-6.17258e-06
5.59065e-05
-2.04791e-06
5.53999e-05
3.18391e-06
5.30415e-05
9.85367e-06
4.87205e-05
1.76915e-05
4.16452e-05
2.88091e-05
3.17747e-05
4.00111e-05
1.74529e-05
5.58839e-05
6.43055e-05
4.22868e-06
-2.11518e-05
8.47927e-06
-2.11492e-05
1.26698e-05
-2.09776e-05
1.69341e-05
-2.13302e-05
2.11509e-05
-2.09146e-05
2.53386e-05
-2.07584e-05
2.94985e-05
-2.06041e-05
3.36353e-05
-2.054e-05
3.76503e-05
-1.96498e-05
4.1601e-05
-1.93197e-05
4.51931e-05
-1.72262e-05
4.87548e-05
-1.64607e-05
5.17848e-05
-1.48875e-05
5.41999e-05
-1.07467e-05
5.6237e-05
-8.20966e-06
5.73209e-05
-3.1318e-06
5.74181e-05
3.08667e-06
5.58622e-05
1.14096e-05
5.24838e-05
2.10699e-05
4.63426e-05
3.49503e-05
3.70794e-05
4.92743e-05
2.20121e-05
7.09512e-05
8.6318e-05
4.22639e-06
-2.53782e-05
8.48184e-06
-2.54046e-05
1.26727e-05
-2.51685e-05
1.6934e-05
-2.55915e-05
2.11658e-05
-2.51464e-05
2.5378e-05
-2.49707e-05
2.95633e-05
-2.47893e-05
3.37151e-05
-2.46917e-05
3.77828e-05
-2.37175e-05
4.17847e-05
-2.33217e-05
4.54813e-05
-2.09228e-05
4.91895e-05
-2.01689e-05
5.23098e-05
-1.80078e-05
5.50115e-05
-1.34485e-05
5.72627e-05
-1.04609e-05
5.83124e-05
-4.18146e-06
5.85857e-05
2.81337e-06
5.7199e-05
1.27963e-05
5.38941e-05
2.43748e-05
4.75317e-05
4.13127e-05
3.81452e-05
5.86608e-05
2.21375e-05
8.69588e-05
0.000108456
4.22797e-06
-2.96061e-05
8.49055e-06
-2.96672e-05
1.26883e-05
-2.93662e-05
1.69551e-05
-2.98583e-05
2.12095e-05
-2.94008e-05
2.54544e-05
-2.92156e-05
2.96791e-05
-2.9014e-05
3.38684e-05
-2.8881e-05
3.80178e-05
-2.78669e-05
4.20949e-05
-2.73988e-05
4.59483e-05
-2.47762e-05
4.98556e-05
-2.40762e-05
5.31001e-05
-2.12523e-05
5.62067e-05
-1.65551e-05
5.87313e-05
-1.29854e-05
6.02854e-05
-5.73559e-06
6.12786e-05
1.82015e-06
6.09143e-05
1.31607e-05
5.90612e-05
2.62279e-05
5.41649e-05
4.6209e-05
4.63481e-05
6.64776e-05
3.00762e-05
0.000103231
0.000138533
4.22531e-06
-3.38314e-05
8.48486e-06
-3.39267e-05
1.26906e-05
-3.3572e-05
1.69575e-05
-3.41252e-05
2.12239e-05
-3.36672e-05
2.54905e-05
-3.34822e-05
2.97447e-05
-3.32682e-05
3.39662e-05
-3.31025e-05
3.81781e-05
-3.20788e-05
4.23186e-05
-3.15393e-05
4.633e-05
-2.87876e-05
5.03549e-05
-2.8101e-05
5.37358e-05
-2.46333e-05
5.72434e-05
-2.00627e-05
6.00391e-05
-1.57812e-05
6.18607e-05
-7.55716e-06
6.32721e-05
4.08792e-07
6.31548e-05
1.32779e-05
6.19154e-05
2.74674e-05
5.72371e-05
5.08873e-05
4.94128e-05
7.43019e-05
3.25426e-05
0.000120101
0.000171076
-5.91132e-06
5.84571e-06
-1.22358e-05
6.25886e-06
-1.59172e-05
3.616e-06
-1.82144e-05
2.23196e-06
-1.77728e-05
-5.06545e-07
-1.61422e-05
-1.69532e-06
-1.40602e-05
-2.14628e-06
-1.11625e-05
-2.96157e-06
-8.37929e-06
-2.8467e-06
-5.35979e-06
-3.08256e-06
-2.85164e-06
-2.57078e-06
-5.28516e-07
-2.38538e-06
1.09899e-06
-1.68937e-06
2.22113e-06
-1.1837e-06
2.65768e-06
-4.97771e-07
2.54564e-06
5.10096e-08
1.96721e-06
5.17619e-07
1.0678e-06
8.38706e-07
1.00717e-06
-7.38956e-06
1.31697e-05
-1.40198e-05
1.28235e-05
-1.72239e-05
6.75477e-06
-1.83353e-05
3.27802e-06
-1.75517e-05
-1.35498e-06
-1.60216e-05
-3.2902e-06
-1.39601e-05
-4.27199e-06
-1.10571e-05
-5.92848e-06
-8.31411e-06
-5.65313e-06
-5.27302e-06
-6.18669e-06
-2.75435e-06
-5.15208e-06
-4.16785e-07
-4.78519e-06
1.22132e-06
-3.38931e-06
2.33401e-06
-2.35793e-06
2.76425e-06
-9.89222e-07
2.64786e-06
1.06392e-07
2.0525e-06
1.05218e-06
1.11398e-06
1.71654e-06
2.06055e-06
-6.81275e-06
1.99168e-05
-1.31214e-05
1.90666e-05
-1.6925e-05
1.0493e-05
-1.9842e-05
6.12964e-06
-1.89595e-05
-2.3024e-06
-1.67827e-05
-5.53172e-06
-1.45853e-05
-6.53363e-06
-1.14716e-05
-9.106e-06
-8.53196e-06
-8.65622e-06
-5.35169e-06
-9.42999e-06
-2.72072e-06
-7.84565e-06
-3.06994e-07
-7.26113e-06
1.38729e-06
-5.1454e-06
2.52594e-06
-3.55809e-06
2.93978e-06
-1.46424e-06
2.7679e-06
2.17304e-07
2.11772e-06
1.64161e-06
1.14485e-06
2.62878e-06
3.14484e-06
-8.39762e-06
2.82489e-05
-1.59421e-05
2.65455e-05
-1.91662e-05
1.36517e-05
-1.95052e-05
6.40339e-06
-1.81241e-05
-3.7484e-06
-1.65597e-05
-7.16077e-06
-1.4324e-05
-8.83353e-06
-1.10883e-05
-1.24055e-05
-8.21557e-06
-1.15924e-05
-4.97159e-06
-1.2737e-05
-2.31127e-06
-1.05685e-05
1.26854e-07
-9.76141e-06
1.82758e-06
-6.90789e-06
2.92267e-06
-4.71463e-06
3.30311e-06
-1.9058e-06
3.09363e-06
3.65879e-07
2.37354e-06
2.30102e-06
1.27952e-06
3.66223e-06
4.36386e-06
-8.05034e-06
3.62337e-05
-1.58545e-05
3.42841e-05
-2.02776e-05
1.80095e-05
-2.3407e-05
9.46743e-06
-2.12282e-05
-5.99205e-06
-1.78468e-05
-1.06069e-05
-1.53957e-05
-1.13488e-05
-1.18757e-05
-1.59894e-05
-8.65747e-06
-1.4874e-05
-5.17436e-06
-1.6283e-05
-2.29892e-06
-1.35065e-05
2.9427e-07
-1.24167e-05
2.11433e-06
-8.78964e-06
3.27147e-06
-5.93314e-06
3.62526e-06
-2.32063e-06
3.3269e-06
6.03425e-07
2.51426e-06
3.05306e-06
1.35058e-06
4.76542e-06
5.65404e-06
-1.08454e-05
4.70136e-05
-2.02718e-05
4.36449e-05
-2.30252e-05
2.06976e-05
-2.19756e-05
8.35254e-06
-1.97819e-05
-8.25051e-06
-1.7889e-05
-1.25646e-05
-1.53248e-05
-1.39771e-05
-1.13629e-05
-2.0015e-05
-8.16029e-06
-1.81399e-05
-4.47143e-06
-2.00347e-05
-1.50994e-06
-1.65304e-05
1.10875e-06
-1.50974e-05
2.93075e-06
-1.06733e-05
4.00084e-06
-7.06452e-06
4.29845e-06
-2.67919e-06
3.90231e-06
9.38843e-07
2.94557e-06
3.94931e-06
1.57369e-06
6.07691e-06
7.16742e-06
-1.02685e-05
5.72166e-05
-2.15852e-05
5.4896e-05
-2.72432e-05
2.62904e-05
-3.02463e-05
1.12902e-05
-2.56317e-05
-1.29299e-05
-1.96775e-05
-1.85834e-05
-1.6665e-05
-1.70538e-05
-1.2728e-05
-2.40156e-05
-8.91521e-06
-2.2016e-05
-4.8127e-06
-2.42e-05
-1.53007e-06
-1.98754e-05
1.35859e-06
-1.8048e-05
3.36271e-06
-1.27389e-05
4.52133e-06
-8.2843e-06
4.76799e-06
-2.98669e-06
4.25918e-06
1.38706e-06
3.17864e-06
4.96948e-06
1.69585e-06
7.49944e-06
8.8031e-06
-1.42042e-05
7.13554e-05
-2.85374e-05
6.91637e-05
-3.03401e-05
2.80278e-05
-2.74085e-05
8.29336e-06
-2.35733e-05
-1.68299e-05
-2.04113e-05
-2.18102e-05
-1.76531e-05
-1.98761e-05
-1.24838e-05
-2.92484e-05
-8.50535e-06
-2.60577e-05
-4.05865e-06
-2.87094e-05
-5.05724e-07
-2.34906e-05
2.49521e-06
-2.11107e-05
4.54409e-06
-1.48492e-05
5.63228e-06
-9.43353e-06
5.81727e-06
-3.23239e-06
5.11603e-06
2.02785e-06
3.78062e-06
6.24466e-06
2.00082e-06
9.21912e-06
1.07439e-05
8.9914e-06
-4.28228e-05
1.80502e-05
-4.29855e-05
2.70469e-05
-4.25687e-05
3.61513e-05
-4.32295e-05
4.53017e-05
-4.28176e-05
5.45013e-05
-4.26818e-05
6.372e-05
-4.24869e-05
7.29298e-05
-4.23123e-05
8.22074e-05
-4.13564e-05
9.13994e-05
-4.07313e-05
0.000100603
-3.79915e-05
0.000109613
-3.71102e-05
0.000117618
-3.26386e-05
0.000126595
-2.90398e-05
0.000133465
-2.2651e-05
0.000140212
-1.43043e-05
0.000145775
-5.15437e-06
0.000150589
8.46392e-06
0.000153805
2.42517e-05
0.000159131
4.55615e-05
0.000164689
6.87434e-05
0.00018001
0.00010478
0.000157107
0.00019398
8.97421e-06
-5.1797e-05
1.80031e-05
-5.20144e-05
2.7035e-05
-5.16006e-05
3.61527e-05
-5.23472e-05
4.5367e-05
-5.20319e-05
5.46868e-05
-5.20016e-05
6.40807e-05
-5.18808e-05
7.35258e-05
-5.17574e-05
8.31113e-05
-5.09419e-05
9.27539e-05
-5.03739e-05
0.000102637
-4.78749e-05
0.000112209
-4.66816e-05
0.000121858
-4.22877e-05
0.00013175
-3.89317e-05
0.000140191
-3.10926e-05
0.000149675
-2.37878e-05
0.000156657
-1.21363e-05
0.000162524
2.59656e-06
0.000165744
2.10318e-05
0.000169999
4.13067e-05
0.00017515
6.35921e-05
0.000192376
8.75539e-05
0.000128498
0.000221037
8.94279e-06
-6.07398e-05
1.79271e-05
-6.09987e-05
2.69838e-05
-6.06572e-05
3.61188e-05
-6.14823e-05
4.54127e-05
-6.13258e-05
5.48926e-05
-6.14815e-05
6.45511e-05
-6.15393e-05
7.43829e-05
-6.15892e-05
8.44895e-05
-6.10485e-05
9.48993e-05
-6.07836e-05
0.000105657
-5.86325e-05
0.000116407
-5.74321e-05
0.000127652
-5.35327e-05
0.000138784
-5.00635e-05
0.000150166
-4.2474e-05
0.000161923
-3.55449e-05
0.000171788
-2.20016e-05
0.000181766
-7.38122e-06
0.000190356
1.24703e-05
0.000200385
3.12775e-05
0.000211075
5.29029e-05
0.000228006
7.06225e-05
0.000104772
0.000251732
8.88356e-06
-6.96234e-05
1.78029e-05
-6.9918e-05
2.68609e-05
-6.97152e-05
3.59828e-05
-7.06042e-05
4.53172e-05
-7.06602e-05
5.48942e-05
-7.10584e-05
6.47171e-05
-7.13622e-05
7.47813e-05
-7.16534e-05
8.51616e-05
-7.14289e-05
9.59764e-05
-7.15984e-05
0.000107398
-7.00541e-05
0.000119415
-6.94492e-05
0.00013236
-6.64774e-05
0.000145995
-6.36991e-05
0.000160872
-5.73507e-05
0.000174421
-4.90949e-05
0.000187565
-3.51481e-05
0.000198058
-1.78749e-05
0.000205441
5.08407e-06
0.000213093
2.36162e-05
0.000220455
4.55401e-05
0.00023312
5.83582e-05
8.62176e-05
0.000251675
8.83384e-06
-7.84572e-05
1.76834e-05
-7.87676e-05
2.67501e-05
-7.87819e-05
3.58386e-05
-7.96927e-05
4.51877e-05
-8.00093e-05
5.48492e-05
-8.072e-05
6.48742e-05
-8.13872e-05
7.5367e-05
-8.21462e-05
8.63618e-05
-8.24237e-05
9.79662e-05
-8.3203e-05
0.000110388
-8.24769e-05
0.000123372
-8.24377e-05
0.000137288
-8.04219e-05
0.00015203
-7.85145e-05
0.000165453
-7.08563e-05
0.000177656
-6.13203e-05
0.000188673
-4.61355e-05
0.000196785
-2.59178e-05
0.000208342
-6.33798e-06
0.000218859
1.32122e-05
0.000228477
3.60164e-05
0.000242071
4.47686e-05
7.38043e-05
0.000254449
8.77582e-06
-8.72331e-05
1.75359e-05
-8.75277e-05
2.66159e-05
-8.78621e-05
3.57333e-05
-8.88103e-05
4.51729e-05
-8.94492e-05
5.49849e-05
-9.05329e-05
6.51644e-05
-9.15697e-05
7.57027e-05
-9.27021e-05
8.6555e-05
-9.33369e-05
9.76742e-05
-9.44574e-05
0.000108945
-9.39699e-05
0.000120649
-9.43257e-05
0.000134225
-9.40666e-05
0.000150736
-9.49335e-05
0.000152367
-6.68432e-05
0.000127493
-3.64415e-05
0.000119797
-3.84291e-05
0.000145092
-5.1104e-05
0.00018673
-4.78508e-05
0.00022152
-2.1498e-05
0.000233765
2.39084e-05
0.000241701
3.70493e-05
6.29886e-05
0.000252748
8.70516e-06
-9.60525e-05
1.73415e-05
-9.62885e-05
2.63821e-05
-9.70529e-05
3.54587e-05
-9.80808e-05
4.48009e-05
-9.90453e-05
5.43784e-05
-0.000100439
6.40734e-05
-0.000101651
7.41483e-05
-0.000103095
8.55582e-05
-0.000104942
0.000101691
-0.00011063
0.000124315
-0.000116526
0.000151162
-0.000121173
0.00017095
-0.000113853
0.00017529
-9.92693e-05
0.00015647
-4.80158e-05
0.000134469
-1.44325e-05
0.000143317
-4.72676e-05
0.000176981
-8.47623e-05
0.000215809
-8.66665e-05
0.000252792
-5.84699e-05
0.00028488
-8.15766e-06
0.000291557
3.03916e-05
7.55408e-05
0.000279053
8.59374e-06
-0.000104919
1.71477e-05
-0.000105097
2.6354e-05
-0.000106473
3.6085e-05
-0.000107964
4.72321e-05
-0.000110275
6.34075e-05
-0.000116624
8.16141e-05
-0.000119309
0.000101621
-0.000123104
0.000125727
-0.000129048
0.000154911
-0.00013981
0.000187825
-0.000149436
0.000216437
-0.000149779
0.000233968
-0.000131378
0.000233413
-9.87087e-05
0.000228362
-4.29577e-05
0.000229525
-1.55866e-05
0.000222482
-4.02174e-05
0.000211126
-7.34023e-05
0.000210941
-8.64735e-05
0.000225919
-7.34313e-05
0.000263052
-4.52769e-05
0.00029998
-6.52534e-06
4.7686e-05
0.000327848
1.01951e-05
-0.000115116
2.07986e-05
-0.000115702
3.24023e-05
-0.000118078
4.52275e-05
-0.00012079
5.9077e-05
-0.000124124
7.54114e-05
-0.000132956
9.45707e-05
-0.000138465
0.000118088
-0.000146618
0.000146345
-0.000157302
0.000178441
-0.000171901
0.00020968
-0.000180672
0.000233418
-0.000173512
0.000253094
-0.00015105
0.00027022
-0.000115829
0.000287788
-6.05189e-05
0.000295406
-2.31964e-05
0.000281832
-2.66355e-05
0.000256231
-4.77918e-05
0.000236562
-6.67951e-05
0.000229132
-6.59906e-05
0.000235582
-5.17157e-05
0.000261722
-3.26546e-05
-2.34564e-06
0.000311766
1.1553e-05
-0.000126668
2.36506e-05
-0.000127799
3.58864e-05
-0.000130313
4.96848e-05
-0.000134587
6.33795e-05
-0.000137817
7.62096e-05
-0.000145785
9.08786e-05
-0.000153133
0.000108938
-0.000164676
0.000131379
-0.000179741
0.000156852
-0.000197371
0.000180657
-0.000204473
0.000202483
-0.000195334
0.000224742
-0.000173304
0.00024413
-0.000135211
0.000261546
-7.79282e-05
0.000276522
-3.81649e-05
0.000283013
-3.31179e-05
0.000276249
-4.1019e-05
0.000260672
-5.1209e-05
0.000252366
-5.7674e-05
0.000256104
-5.54428e-05
0.00026909
-4.56301e-05
-2.85679e-05
0.000295325
1.00989e-05
-0.000136767
2.02285e-05
-0.000137929
2.9922e-05
-0.000140006
3.98603e-05
-0.000144525
5.0041e-05
-0.000147997
6.10148e-05
-0.000156758
7.37604e-05
-0.000165877
8.85928e-05
-0.000179506
0.00010627
-0.000197415
0.000120741
-0.000211839
0.000128068
-0.000211796
0.000134971
-0.000202233
0.000145888
-0.000184217
0.000160093
-0.00014941
0.000182123
-9.99523e-05
0.000204992
-6.10263e-05
0.000220243
-4.8361e-05
0.000228817
-4.95844e-05
0.0002347
-5.70832e-05
0.00024481
-6.77743e-05
0.000261701
-7.23228e-05
0.000284864
-6.87825e-05
-6.0553e-05
0.00031686
8.37662e-06
-0.000145143
1.68552e-05
-0.000146407
2.51575e-05
-0.000148307
3.32871e-05
-0.000152654
4.15801e-05
-0.000156289
4.93329e-05
-0.00016451
5.75059e-05
-0.000174048
6.61537e-05
-0.000188152
7.22721e-05
-0.000203531
7.19932e-05
-0.000211558
6.85095e-05
-0.000208309
6.55959e-05
-0.000199316
6.48189e-05
-0.000183436
6.90778e-05
-0.000153664
8.56189e-05
-0.000116488
0.000112489
-8.789e-05
0.000140836
-7.67005e-05
0.000167733
-7.64732e-05
0.000194203
-8.35444e-05
0.000221905
-9.5467e-05
0.000253535
-0.000103943
0.000287827
-0.000103064
-0.000100121
0.000327405
7.05534e-06
-0.000152197
1.41362e-05
-0.000153487
2.09458e-05
-0.000155116
2.74992e-05
-0.000159206
3.40764e-05
-0.000162865
3.981e-05
-0.000170242
4.48407e-05
-0.000179077
4.73647e-05
-0.000190674
4.51868e-05
-0.000201351
3.99389e-05
-0.000206307
3.39416e-05
-0.000202308
2.88469e-05
-0.000194217
2.56226e-05
-0.000180207
2.81819e-05
-0.000156218
4.4404e-05
-0.000132704
7.2065e-05
-0.000115545
0.000104502
-0.00010913
0.000140413
-0.000112377
0.000177309
-0.000120433
0.000213404
-0.000131553
0.000251122
-0.000141651
0.000291257
-0.000143189
-0.000146502
0.000337648
6.36972e-06
-0.000158566
1.24903e-05
-0.000159607
1.83843e-05
-0.000161009
2.36688e-05
-0.00016449
2.85865e-05
-0.000167781
3.2058e-05
-0.000173713
3.37283e-05
-0.000180746
3.23757e-05
-0.00018932
2.77981e-05
-0.000196771
2.19392e-05
-0.000200446
1.66017e-05
-0.000196968
1.27245e-05
-0.000190337
1.17485e-05
-0.000179227
1.94541e-05
-0.00016392
3.96811e-05
-0.000152926
6.92426e-05
-0.000145101
0.00010335
-0.000143231
0.000139227
-0.000148247
0.000175737
-0.000156935
0.000210325
-0.000166133
0.000247559
-0.000178877
0.000290352
-0.000185973
-0.000197424
0.000341282
5.25058e-06
-0.000163816
1.03035e-05
-0.000164659
1.52335e-05
-0.000165939
1.96144e-05
-0.00016887
2.36194e-05
-0.000171786
2.62317e-05
-0.000176324
2.6905e-05
-0.000181418
2.52442e-05
-0.000187658
2.12862e-05
-0.000192812
1.71063e-05
-0.000196264
1.44995e-05
-0.000194359
1.44456e-05
-0.00019028
1.97073e-05
-0.000184486
3.29518e-05
-0.00017716
5.31498e-05
-0.000173119
7.81918e-05
-0.000170137
0.000106515
-0.000171549
0.000136111
-0.000177836
0.000168091
-0.000188909
0.000201753
-0.000199788
0.000239396
-0.000216513
0.000283954
-0.000230522
-0.00025184
0.000338379
4.39223e-06
-0.000168208
8.731e-06
-0.000168997
1.30297e-05
-0.000170237
1.68676e-05
-0.000172708
2.02924e-05
-0.00017521
2.26147e-05
-0.000178645
2.33927e-05
-0.000182195
2.23129e-05
-0.000186577
1.98396e-05
-0.000190337
1.77176e-05
-0.00019414
1.7587e-05
-0.000194226
2.07686e-05
-0.000193459
2.86107e-05
-0.000192325
4.07575e-05
-0.000189303
5.68565e-05
-0.000189214
7.66374e-05
-0.000189914
0.000100354
-0.000195261
0.000125885
-0.000203361
0.000154751
-0.000217769
0.000186611
-0.000231641
0.000223836
-0.000253731
0.000268418
-0.000275097
-0.000306547
0.000323131
3.72361e-06
-0.000171931
7.42148e-06
-0.000172695
1.10472e-05
-0.000173862
1.42535e-05
-0.000175913
1.7138e-05
-0.000178094
1.95151e-05
-0.000181022
2.10278e-05
-0.000183707
2.15155e-05
-0.000187064
2.12186e-05
-0.000190039
2.12745e-05
-0.000194195
2.31524e-05
-0.000196102
2.72378e-05
-0.000197543
3.41203e-05
-0.000199205
4.40106e-05
-0.000199191
5.71763e-05
-0.000202376
7.31242e-05
-0.000205858
9.28783e-05
-0.00021501
0.000115084
-0.000225562
0.00014051
-0.00024319
0.000169415
-0.00026054
0.000203138
-0.000287449
0.000244
-0.000315953
-0.000356328
0.000293788
3.21202e-06
-0.000175143
6.31028e-06
-0.000175793
9.24708e-06
-0.000176799
1.18808e-05
-0.000178547
1.43035e-05
-0.000180516
1.64499e-05
-0.000183168
1.82977e-05
-0.000185554
1.98296e-05
-0.000188595
2.08572e-05
-0.000191066
2.18776e-05
-0.000195214
2.40243e-05
-0.000198248
2.79074e-05
-0.000201424
3.40664e-05
-0.000205361
4.23279e-05
-0.00020745
5.27087e-05
-0.000212754
6.55556e-05
-0.000218701
8.12215e-05
-0.000230672
9.93643e-05
-0.000243701
0.000119595
-0.000263417
0.000143979
-0.000284919
0.000171818
-0.000315282
0.00020678
-0.00035091
-0.000398098
0.000248556
2.59808e-06
-0.000177741
5.04193e-06
-0.000178236
7.37645e-06
-0.000179133
9.5587e-06
-0.000180729
1.15672e-05
-0.000182524
1.3417e-05
-0.000185017
1.51487e-05
-0.000187286
1.70452e-05
-0.000190491
1.89398e-05
-0.00019296
2.06103e-05
-0.000196884
2.30557e-05
-0.000200692
2.6506e-05
-0.000204873
3.09468e-05
-0.0002098
3.68343e-05
-0.000213335
4.43361e-05
-0.000220254
5.41702e-05
-0.000228532
6.57657e-05
-0.000242264
7.971e-05
-0.000257642
9.47455e-05
-0.000278448
0.000113593
-0.000303763
0.00013394
-0.000335625
0.000160064
-0.00037703
-0.000426532
0.000188503
2.00919e-06
-0.00017975
3.96526e-06
-0.000180192
5.91367e-06
-0.000181081
7.74684e-06
-0.000182562
9.43567e-06
-0.000184213
1.09604e-05
-0.000186542
1.23057e-05
-0.000188631
1.37199e-05
-0.000191905
1.53748e-05
-0.000194614
1.72434e-05
-0.000198752
1.93655e-05
-0.000202813
2.16561e-05
-0.000207162
2.45247e-05
-0.000212668
2.88613e-05
-0.00021767
3.47089e-05
-0.000226099
4.21399e-05
-0.000235961
5.01116e-05
-0.000250234
5.9501e-05
-0.000267028
6.90633e-05
-0.000288007
8.0702e-05
-0.000315398
9.22066e-05
-0.000347126
0.000106737
-0.000391557
-0.000439701
0.000119909
1.61632e-06
-0.000181366
3.24124e-06
-0.000181817
4.81004e-06
-0.00018265
6.25358e-06
-0.000184005
7.55691e-06
-0.000185516
8.73575e-06
-0.00018772
9.83616e-06
-0.000189731
1.08593e-05
-0.000192927
1.19722e-05
-0.000195727
1.30447e-05
-0.000199824
1.41715e-05
-0.00020394
1.55257e-05
-0.000208516
1.73864e-05
-0.000214527
2.05161e-05
-0.000220799
2.42246e-05
-0.000229806
2.84944e-05
-0.000240229
3.27431e-05
-0.00025448
3.75195e-05
-0.000271802
4.17648e-05
-0.00029225
4.64033e-05
-0.000320034
4.96102e-05
-0.00035033
5.30763e-05
-0.00039502
-0.000440296
5.36735e-05
1.32252e-06
-0.000182688
2.60333e-06
-0.000183097
3.78163e-06
-0.000183828
4.82747e-06
-0.000185051
5.7356e-06
-0.000186424
6.53154e-06
-0.000188516
7.23723e-06
-0.000190437
7.79997e-06
-0.00019349
8.32184e-06
-0.000196249
8.62855e-06
-0.00020013
8.98048e-06
-0.000204291
9.61508e-06
-0.00020915
1.04503e-05
-0.000215362
1.15862e-05
-0.000221934
1.2722e-05
-0.000230941
1.41575e-05
-0.000241663
1.50936e-05
-0.000255415
1.56839e-05
-0.00027239
1.51775e-05
-0.000291742
1.34316e-05
-0.000318286
9.22259e-06
-0.000346119
1.82275e-06
-0.000387618
-0.00042856
-9.91035e-06
9.01731e-07
-0.00018359
1.75423e-06
-0.00018395
2.52866e-06
-0.000184602
3.20191e-06
-0.000185724
3.74934e-06
-0.000186971
4.13734e-06
-0.000188904
4.39653e-06
-0.000190696
4.47153e-06
-0.000193565
4.45815e-06
-0.000196235
4.2694e-06
-0.000199941
4.00894e-06
-0.000204031
3.60748e-06
-0.000208748
2.96605e-06
-0.00021472
2.34753e-06
-0.000221315
1.39166e-06
-0.000229984
9.19072e-08
-0.000240363
-2.25682e-06
-0.000253065
-5.64747e-06
-0.000268998
-1.0621e-05
-0.000286767
-1.80341e-05
-0.000310871
-2.84737e-05
-0.000335677
-4.46551e-05
-0.000371435
-0.000406888
-6.63265e-05
4.94735e-07
-0.000184084
9.68713e-07
-0.000184424
1.38569e-06
-0.000185019
1.70407e-06
-0.000186042
1.8917e-06
-0.000187159
1.92504e-06
-0.000188938
1.81484e-06
-0.000190586
1.45267e-06
-0.000193203
9.49715e-07
-0.000195732
1.23555e-07
-0.000199115
-9.68794e-07
-0.000202938
-2.31077e-06
-0.000207406
-4.05572e-06
-0.000212975
-6.11969e-06
-0.000219251
-8.97795e-06
-0.000227126
-1.27902e-05
-0.00023655
-1.801e-05
-0.000247844
-2.49687e-05
-0.000262039
-3.40141e-05
-0.00027772
-4.63322e-05
-0.000298552
-6.20093e-05
-0.000319999
-8.40015e-05
-0.000349442
-0.000379385
-0.000111503
2.38128e-07
-0.000184322
4.38375e-07
-0.000184624
5.61435e-07
-0.000185142
5.60823e-07
-0.000186041
4.0769e-07
-0.000187006
3.35529e-08
-0.000188564
-5.17083e-07
-0.000190035
-1.36647e-06
-0.000192354
-2.43851e-06
-0.000194661
-3.85645e-06
-0.000197698
-5.68694e-06
-0.000201108
-7.89855e-06
-0.000205195
-1.06906e-05
-0.000210183
-1.41338e-05
-0.000215807
-1.84842e-05
-0.000222775
-2.39752e-05
-0.000231059
-3.12453e-05
-0.000240574
-4.08163e-05
-0.000252468
-5.3161e-05
-0.000265375
-6.9603e-05
-0.00028211
-9.04484e-05
-0.000299153
-0.000118273
-0.000321616
-0.000344235
-0.000153424
-1.32693e-08
-0.000184309
-8.08412e-08
-0.000184556
-2.41152e-07
-0.000184982
-5.34453e-07
-0.000185748
-9.84326e-07
-0.000186556
-1.66945e-06
-0.000187879
-2.58082e-06
-0.000189124
-3.86346e-06
-0.000191072
-5.48761e-06
-0.000193037
-7.52823e-06
-0.000195658
-1.00466e-05
-0.00019859
-1.31869e-05
-0.000202055
-1.70878e-05
-0.000206283
-2.17514e-05
-0.000211144
-2.75738e-05
-0.000216953
-3.48029e-05
-0.00022383
-4.37738e-05
-0.000231603
-5.51601e-05
-0.000241081
-6.93681e-05
-0.000251167
-8.77968e-05
-0.000263681
-0.000110898
-0.000276051
-0.000141
-0.000291513
-0.000306205
-0.000179028
-2.57052e-07
-0.000184052
-5.57068e-07
-0.000184256
-9.44671e-07
-0.000184594
-1.48456e-06
-0.000185208
-2.19955e-06
-0.000185841
-3.17206e-06
-0.000186906
-4.37451e-06
-0.000187922
-5.93888e-06
-0.000189508
-7.87542e-06
-0.000191101
-1.03232e-05
-0.00019321
-1.33402e-05
-0.000195574
-1.70094e-05
-0.000198387
-2.15632e-05
-0.00020173
-2.71412e-05
-0.000205567
-3.39891e-05
-0.000210106
-4.24072e-05
-0.000215412
-5.27435e-05
-0.000221268
-6.5535e-05
-0.00022829
-8.11835e-05
-0.000235519
-0.000100711
-0.000244153
-0.000124675
-0.000252087
-0.000154847
-0.000261343
-0.000268681
-0.000192371
-4.53031e-07
-0.000183599
-9.50914e-07
-0.000183758
-1.54251e-06
-0.000184002
-2.27937e-06
-0.000184471
-3.20616e-06
-0.000184915
-4.40746e-06
-0.000185705
-5.89906e-06
-0.000186431
-7.79889e-06
-0.000187608
-1.01178e-05
-0.000188782
-1.29617e-05
-0.000190367
-1.64281e-05
-0.000192108
-2.06141e-05
-0.000194201
-2.56799e-05
-0.000196665
-3.17903e-05
-0.000199457
-3.92506e-05
-0.000202646
-4.83481e-05
-0.000206315
-5.93926e-05
-0.000210224
-7.29617e-05
-0.000214721
-8.93839e-05
-0.000219097
-0.000109574
-0.000223964
-0.000133823
-0.000227838
-0.000163497
-0.000231668
-0.00023322
-0.000198958
-5.53245e-07
-0.000183045
-1.1621e-06
-0.000183149
-1.87997e-06
-0.000183284
-2.76916e-06
-0.000183582
-3.86468e-06
-0.000183819
-5.25065e-06
-0.000184319
-6.9451e-06
-0.000184736
-9.07042e-06
-0.000185483
-1.16622e-05
-0.000186191
-1.48265e-05
-0.000187203
-1.86524e-05
-0.000188283
-2.3263e-05
-0.000189591
-2.8809e-05
-0.000191119
-3.54266e-05
-0.00019284
-4.33021e-05
-0.000194772
-5.27295e-05
-0.000196889
-6.39526e-05
-0.000199001
-7.74227e-05
-0.000201252
-9.34474e-05
-0.000203073
-0.000112694
-0.000204718
-0.000135524
-0.000205009
-0.000162867
-0.000204327
-0.000200916
-0.000195172
-5.97605e-07
-0.000182447
-1.26042e-06
-0.000182486
-2.04639e-06
-0.000182498
-3.01898e-06
-0.000182609
-4.21263e-06
-0.000182625
-5.70319e-06
-0.000182829
-7.51417e-06
-0.000182926
-9.74727e-06
-0.00018325
-1.24432e-05
-0.000183495
-1.57163e-05
-0.00018393
-1.96601e-05
-0.00018434
-2.44017e-05
-0.00018485
-3.00861e-05
-0.000185436
-3.68685e-05
-0.000186059
-4.49395e-05
-0.000186701
-5.45342e-05
-0.000187295
-6.58583e-05
-0.000187678
-7.92646e-05
-0.000187847
-9.49539e-05
-0.000187385
-0.000113402
-0.000186271
-0.000134706
-0.000183705
-0.000159446
-0.000179588
-0.000172787
-0.000187576
-6.28871e-07
-0.000181818
-1.33e-06
-0.000181785
-2.16487e-06
-0.000181663
-3.19646e-06
-0.000181578
-4.45985e-06
-0.000181362
-6.03005e-06
-0.000181259
-7.94026e-06
-0.000181016
-1.02858e-05
-0.000180905
-1.3117e-05
-0.000180665
-1.65269e-05
-0.000180521
-2.05868e-05
-0.000180281
-2.54097e-05
-0.000180028
-3.11241e-05
-0.000179722
-3.78686e-05
-0.000179315
-4.57882e-05
-0.000178783
-5.50892e-05
-0.000177995
-6.59293e-05
-0.000176839
-7.85895e-05
-0.000175188
-9.32334e-05
-0.000172742
-0.000110194
-0.000169312
-0.000129552
-0.000164349
-0.000151603
-0.000157539
-0.000148172
-0.00017622
-5.30103e-07
-0.000181288
-1.13847e-06
-0.000181176
-1.88816e-06
-0.000180913
-2.84908e-06
-0.000180617
-4.0581e-06
-0.000180153
-5.59637e-06
-0.000179721
-7.49729e-06
-0.000179115
-9.84054e-06
-0.000178562
-1.26643e-05
-0.000177841
-1.60486e-05
-0.000177137
-2.0059e-05
-0.000176271
-2.48049e-05
-0.000175283
-3.04136e-05
-0.000174114
-3.70191e-05
-0.000172711
-4.47371e-05
-0.000171066
-5.37189e-05
-0.000169015
-6.40837e-05
-0.000166476
-7.6025e-05
-0.000163248
-8.96302e-05
-0.000159138
-0.000105091
-0.000153853
-0.000122382
-0.000147059
-0.000141636
-0.000138285
-0.000127188
-0.000162622
-4.1894e-07
-0.000180869
-9.18411e-07
-0.000180676
-1.5625e-06
-0.000180269
-2.42071e-06
-0.000179758
-3.53811e-06
-0.000179036
-4.99416e-06
-0.000178265
-6.82958e-06
-0.00017728
-9.113e-06
-0.000176279
-1.188e-05
-0.000175075
-1.52066e-05
-0.000173811
-1.91476e-05
-0.00017233
-2.37775e-05
-0.000170654
-2.91791e-05
-0.000168714
-3.54654e-05
-0.000166425
-4.27432e-05
-0.000163789
-5.11385e-05
-0.00016062
-6.07376e-05
-0.000156878
-7.16859e-05
-0.000152301
-8.40293e-05
-0.000146796
-9.78761e-05
-0.000140008
-0.000113163
-0.000131775
-0.000129898
-0.000121552
-0.000109279
-0.000147809
-2.91279e-07
-0.000180577
-6.43183e-07
-0.000180324
-1.10875e-06
-0.000179803
-1.75834e-06
-0.000179109
-2.64444e-06
-0.000178149
-3.85395e-06
-0.000177055
-5.4457e-06
-0.000175688
-7.50967e-06
-0.000174215
-1.01007e-05
-0.000172484
-1.32864e-05
-0.000170626
-1.70898e-05
-0.000168528
-2.15418e-05
-0.000166203
-2.66884e-05
-0.000163568
-3.26121e-05
-0.000160503
-3.9413e-05
-0.000156989
-4.71933e-05
-0.000152841
-5.60156e-05
-0.000148057
-6.59649e-05
-0.000142353
-7.70544e-05
-0.000135709
-8.93302e-05
-0.000127733
-0.000102697
-0.000118409
-0.000117075
-0.000107177
-9.41604e-05
-0.000132196
-1.15571e-07
-0.000180462
-2.82617e-07
-0.000180157
-5.49907e-07
-0.000179536
-9.84116e-07
-0.000178674
-1.63823e-06
-0.000177495
-2.59303e-06
-0.0001761
-3.90901e-06
-0.000174372
-5.67621e-06
-0.000172448
-7.95182e-06
-0.000170209
-1.08043e-05
-0.000167774
-1.42804e-05
-0.000165052
-1.84278e-05
-0.000162056
-2.32777e-05
-0.000158719
-2.88465e-05
-0.000154935
-3.51572e-05
-0.00015068
-4.2274e-05
-0.000145726
-5.02485e-05
-0.000140084
-5.9144e-05
-0.000133459
-6.89598e-05
-0.000125894
-7.97086e-05
-0.000116986
-9.12873e-05
-0.000106832
-0.000103597
-9.4869e-05
-8.13632e-05
-0.000116397
-2.21286e-08
-0.000180439
-7.83717e-08
-0.000180101
-2.12613e-07
-0.000179402
-4.85216e-07
-0.000178402
-9.42026e-07
-0.000177038
-1.64465e-06
-0.000175398
-2.64165e-06
-0.000173375
-4.00864e-06
-0.000171081
-5.81094e-06
-0.000168406
-8.14222e-06
-0.000165443
-1.10793e-05
-0.000162115
-1.46895e-05
-0.000158446
-1.90048e-05
-0.000154404
-2.40355e-05
-0.000149905
-2.97815e-05
-0.000144934
-3.62348e-05
-0.000139273
-4.33935e-05
-0.000132926
-5.12847e-05
-0.000125569
-5.99003e-05
-0.00011728
-6.92304e-05
-0.000107658
-7.91786e-05
-9.6886e-05
-8.96214e-05
-8.44281e-05
-7.06416e-05
-0.000100345
6.44521e-08
-0.000180504
9.66204e-08
-0.000180133
6.79857e-08
-0.000179373
-6.29075e-08
-0.000178271
-3.35197e-07
-0.000176766
-7.97808e-07
-0.000174935
-1.48979e-06
-0.000172683
-2.47473e-06
-0.000170096
-3.81463e-06