/*--------------------------------*- C++ -*----------------------------------*\
| =========                 |                                                 |
| \\      /  F ield         | OpenFOAM: The Open Source CFD Toolbox           |
|  \\    /   O peration     | Version:  2012                                  |
|   \\  /    A nd           | Website:  www.openfoam.com                      |
|    \\/     M anipulation  |                                                 |
\*---------------------------------------------------------------------------*/
FoamFile
{
    version     2.0;
    format      ascii;
    class       volVectorField;
    location    "0.27";
    object      Uc;
}
// * * * * * * * * * * * * * * * * * * * * * * * * * * * * * * * * * * * * * //

dimensions      [0 1 -1 0 0 0 0];


internalField   nonuniform List<vector> 
2268
(
(0.0241749 -0.0114249 0)
(0.0723815 -0.0113572 0)
(0.120378 -0.0113254 0)
(0.168702 -0.0115124 0)
(0.216802 -0.0112193 0)
(0.264116 -0.011141 0)
(0.311078 -0.0110528 0)
(0.357804 -0.0110296 0)
(0.40323 -0.0104384 0)
(0.447061 -0.0102757 0)
(0.488005 -0.00907401 0)
(0.524602 -0.0082217 0)
(0.559412 -0.00822885 0)
(0.588448 -0.0054933 0)
(0.60723 -0.00338323 0)
(0.616164 -0.000839008 0)
(0.61204 0.00278828 0)
(0.59143 0.00695174 0)
(0.550681 0.0123058 0)
(0.483039 0.0196614 0)
(0.385214 0.0265703 0)
(0.253042 0.0358931 0)
(0.0885462 0.0418469 0)
(0.0241532 -0.0342644 0)
(0.0723813 -0.0340919 0)
(0.120424 -0.0339777 0)
(0.168746 -0.0345347 0)
(0.216873 -0.0336732 0)
(0.264244 -0.0334346 0)
(0.311254 -0.0331697 0)
(0.358029 -0.0331001 0)
(0.403577 -0.0313616 0)
(0.447572 -0.0308585 0)
(0.488615 -0.0272372 0)
(0.525921 -0.024985 0)
(0.560787 -0.0243932 0)
(0.589042 -0.0164042 0)
(0.608822 -0.0106969 0)
(0.619362 -0.00272867 0)
(0.615959 0.00823561 0)
(0.59514 0.021083 0)
(0.552918 0.0373859 0)
(0.482027 0.060051 0)
(0.377936 0.0816053 0)
(0.238377 0.109276 0)
(0.0795243 0.121277 0)
(0.0241374 -0.0570861 0)
(0.0724208 -0.0568807 0)
(0.120527 -0.056628 0)
(0.168843 -0.0575548 0)
(0.217049 -0.0561794 0)
(0.264561 -0.0557692 0)
(0.311707 -0.0553331 0)
(0.358629 -0.0552168 0)
(0.40445 -0.0524253 0)
(0.448806 -0.0515488 0)
(0.490284 -0.0455451 0)
(0.528577 -0.0424051 0)
(0.564035 -0.0402073 0)
(0.592854 -0.0275629 0)
(0.614502 -0.0191168 0)
(0.627366 -0.00536921 0)
(0.626975 0.0126692 0)
(0.61034 0.0343498 0)
(0.574212 0.0611469 0)
(0.512374 0.0990166 0)
(0.418198 0.136339 0)
(0.280658 0.185497 0)
(0.0993519 0.205814 0)
(0.0241297 -0.0798967 0)
(0.072462 -0.0797299 0)
(0.120591 -0.0792589 0)
(0.168858 -0.0805677 0)
(0.217144 -0.078768 0)
(0.26484 -0.0781752 0)
(0.312166 -0.0775744 0)
(0.359234 -0.0773941 0)
(0.405308 -0.0736769 0)
(0.450092 -0.072424 0)
(0.492175 -0.0641599 0)
(0.531425 -0.0604368 0)
(0.567601 -0.0560289 0)
(0.596729 -0.0391265 0)
(0.619306 -0.0284537 0)
(0.63389 -0.00900379 0)
(0.635324 0.0158105 0)
(0.618971 0.0467988 0)
(0.580845 0.0837896 0)
(0.515797 0.13634 0)
(0.419072 0.189235 0)
(0.280985 0.262861 0)
(0.0996191 0.299848 0)
(0.0241368 -0.102707 0)
(0.0725356 -0.102634 0)
(0.120717 -0.10187 0)
(0.168976 -0.103573 0)
(0.217385 -0.10146 0)
(0.265357 -0.100696 0)
(0.313004 -0.0999378 0)
(0.36036 -0.0996546 0)
(0.40689 -0.0951801 0)
(0.452357 -0.0935731 0)
(0.495411 -0.0832457 0)
(0.536244 -0.0791978 0)
(0.573869 -0.0721452 0)
(0.604948 -0.0514639 0)
(0.630361 -0.0387962 0)
(0.648175 -0.0139723 0)
(0.654917 0.0169149 0)
(0.646591 0.0573577 0)
(0.618427 0.104559 0)
(0.56409 0.171991 0)
(0.476163 0.240848 0)
(0.337287 0.342138 0)
(0.125643 0.406307 0)
(0.0241238 -0.125515 0)
(0.0725372 -0.125579 0)
(0.120748 -0.124479 0)
(0.168992 -0.126571 0)
(0.21747 -0.12425 0)
(0.265667 -0.123354 0)
(0.313599 -0.122449 0)
(0.361186 -0.122013 0)
(0.408102 -0.116983 0)
(0.454162 -0.115025 0)
(0.498105 -0.102907 0)
(0.54037 -0.0988085 0)
(0.579347 -0.0887354 0)
(0.612578 -0.0652667 0)
(0.640849 -0.0503638 0)
(0.65969 -0.0197275 0)
(0.667241 0.0159154 0)
(0.660886 0.0652955 0)
(0.634107 0.122587 0)
(0.578927 0.20572 0)
(0.489034 0.291156 0)
(0.344087 0.425963 0)
(0.126359 0.525403 0)
(0.0241328 -0.14832 0)
(0.0725958 -0.148556 0)
(0.120886 -0.147108 0)
(0.169201 -0.149576 0)
(0.217839 -0.147141 0)
(0.266353 -0.146168 0)
(0.314696 -0.145135 0)
(0.362722 -0.144513 0)
(0.410318 -0.139149 0)
(0.457274 -0.136819 0)
(0.502541 -0.123273 0)
(0.546838 -0.119351 0)
(0.587659 -0.105904 0)
(0.623911 -0.0809347 0)
(0.656053 -0.0632465 0)
(0.679334 -0.0267513 0)
(0.693874 0.0124989 0)
(0.697463 0.0700189 0)
(0.684806 0.136501 0)
(0.646281 0.23609 0)
(0.573716 0.337562 0)
(0.436221 0.513037 0)
(0.171672 0.666254 0)
(0.0241176 -0.171123 0)
(0.0725482 -0.171545 0)
(0.120867 -0.169776 0)
(0.169228 -0.172596 0)
(0.217935 -0.170126 0)
(0.266641 -0.169127 0)
(0.315276 -0.168007 0)
(0.363654 -0.167201 0)
(0.411792 -0.161704 0)
(0.459466 -0.158986 0)
(0.505996 -0.144489 0)
(0.551866 -0.140748 0)
(0.594138 -0.123777 0)
(0.633457 -0.0987765 0)
(0.669435 -0.077598 0)
(0.69579 -0.0358573 0)
(0.714243 0.00601257 0)
(0.72163 0.071318 0)
(0.713887 0.144843 0)
(0.680108 0.261918 0)
(0.608745 0.379753 0)
(0.467792 0.602438 0)
(0.185749 0.835171 0)
(-0.0337411 0.0141929 0)
(-0.103582 0.015196 0)
(-0.160694 0.00877937 0)
(-0.194819 0.00541903 0)
(-0.205411 -0.00122985 0)
(-0.193583 -0.0041161 0)
(-0.172392 -0.00521101 0)
(-0.143968 -0.00719048 0)
(-0.111542 -0.00691156 0)
(-0.0784211 -0.00748422 0)
(-0.0468699 -0.00624166 0)
(-0.0192936 -0.00579152 0)
(0.00325621 -0.00410166 0)
(0.0189509 -0.00287392 0)
(0.0278477 -0.00120855 0)
(0.0296999 0.000123847 0)
(0.0257588 0.00125674 0)
(0.0173234 0.00203631 0)
(0.00609486 0.00244533 0)
(-0.0421788 0.0461679 0)
(-0.122202 0.0463305 0)
(-0.178335 0.0251794 0)
(-0.202968 0.0133778 0)
(-0.204839 -0.00451965 0)
(-0.191633 -0.0121045 0)
(-0.171132 -0.0155831 0)
(-0.142795 -0.0215844 0)
(-0.110569 -0.0206369 0)
(-0.0775538 -0.022505 0)
(-0.0458193 -0.0187505 0)
(-0.0181005 -0.0174096 0)
(0.00459219 -0.0123307 0)
(0.0202934 -0.00859881 0)
(0.0291003 -0.0036103 0)
(0.0308917 0.000382159 0)
(0.0268291 0.00381135 0)
(0.0180739 0.00620395 0)
(0.00635849 0.00744819 0)
(-0.0388864 0.0803315 0)
(-0.113782 0.0774266 0)
(-0.171502 0.0418763 0)
(-0.209862 0.0228411 0)
(-0.221474 -0.00887984 0)
(-0.204012 -0.021419 0)
(-0.179045 -0.0262352 0)
(-0.14873 -0.0365026 0)
(-0.114178 -0.034742 0)
(-0.0792463 -0.0379161 0)
(-0.0460764 -0.0315575 0)
(-0.0172819 -0.0292475 0)
(0.00616622 -0.0207216 0)
(0.0223363 -0.0143636 0)
(0.0311977 -0.00595682 0)
(0.0325788 0.000785909 0)
(0.0278866 0.00654033 0)
(0.0186224 0.0105501 0)
(0.00653465 0.0126383 0)
(-0.0479327 0.116943 0)
(-0.138928 0.110743 0)
(-0.200394 0.0586216 0)
(-0.220732 0.0304293 0)
(-0.214784 -0.0146909 0)
(-0.197971 -0.0308164 0)
(-0.176281 -0.0373103 0)
(-0.145051 -0.0522284 0)
(-0.110185 -0.0491621 0)
(-0.0752708 -0.0538197 0)
(-0.0415697 -0.0447082 0)
(-0.0124684 -0.0413294 0)
(0.0111557 -0.0292645 0)
(0.0271139 -0.0200855 0)
(0.0355361 -0.00818221 0)
(0.0365119 0.00141592 0)
(0.031206 0.00957242 0)
(0.0208513 0.0152741 0)
(0.00730335 0.0182306 0)
(-0.0459504 0.156559 0)
(-0.136446 0.14769 0)
(-0.206238 0.0768711 0)
(-0.249347 0.0385332 0)
(-0.254773 -0.0236491 0)
(-0.223036 -0.0431386 0)
(-0.189745 -0.0490011 0)
(-0.155662 -0.0689407 0)
(-0.117201 -0.0642583 0)
(-0.0789505 -0.0704583 0)
(-0.0426566 -0.0584523 0)
(-0.0114423 -0.0538468 0)
(0.013748 -0.0381124 0)
(0.0307416 -0.025852 0)
(0.0393658 -0.0102615 0)
(0.0396821 0.0023534 0)
(0.0333407 0.0129993 0)
(0.0220601 0.0204617 0)
(0.00770898 0.0243227 0)
(-0.0619045 0.202118 0)
(-0.177614 0.189206 0)
(-0.247134 0.0939781 0)
(-0.256859 0.0432655 0)
(-0.238347 -0.0345799 0)
(-0.215021 -0.0562585 0)
(-0.18958 -0.0614894 0)
(-0.15233 -0.0874159 0)
(-0.111436 -0.0801551 0)
(-0.0721004 -0.0881767 0)
(-0.034141 -0.0729272 0)
(-0.00228997 -0.0668022 0)
(0.023057 -0.0472545 0)
(0.0395647 -0.0315573 0)
(0.0473714 -0.0121392 0)
(0.046809 0.00374451 0)
(0.0390869 0.0170012 0)
(0.0257954 0.0263243 0)
(0.00898247 0.0311295 0)
(-0.0586115 0.253063 0)
(-0.181817 0.23925 0)
(-0.278707 0.114083 0)
(-0.328144 0.0476911 0)
(-0.318945 -0.0514243 0)
(-0.25862 -0.0756249 0)
(-0.207439 -0.0753407 0)
(-0.167772 -0.106903 0)
(-0.123537 -0.0974954 0)
(-0.0783574 -0.107399 0)
(-0.0362038 -0.0883905 0)
(-0.000978761 -0.0804745 0)
(0.0269487 -0.056843 0)
(0.0450012 -0.0372658 0)
(0.0530224 -0.0137563 0)
(0.051526 0.00564711 0)
(0.0424542 0.0216541 0)
(0.027823 0.0329623 0)
(0.0096797 0.0387752 0)
(-0.0810762 0.312163 0)
(-0.243965 0.301207 0)
(-0.336066 0.131881 0)
(-0.329623 0.0475474 0)
(-0.290998 -0.0722544 0)
(-0.251059 -0.0980725 0)
(-0.217267 -0.0896629 0)
(-0.172018 -0.129321 0)
(-0.119804 -0.116719 0)
(-0.0717139 -0.12846 0)
(-0.026053 -0.105289 0)
(0.0113558 -0.0950744 0)
(0.0401795 -0.0669818 0)
(0.0580855 -0.0430175 0)
(0.0653527 -0.0150994 0)
(0.062406 0.00829113 0)
(0.050781 0.0272271 0)
(0.0329998 0.0405914 0)
(0.0114205 0.0474586 0)
(0.0241284 -0.206775 0)
(0.0725659 -0.207471 0)
(0.121018 -0.20539 0)
(0.169592 -0.208665 0)
(0.218579 -0.206318 0)
(0.267821 -0.205453 0)
(0.317246 -0.20435 0)
(0.366699 -0.203432 0)
(0.41631 -0.198092 0)
(0.465873 -0.19495 0)
(0.515238 -0.180137 0)
(0.564113 -0.175908 0)
(0.609772 -0.154491 0)
(0.655344 -0.132454 0)
(0.69787 -0.103671 0)
(0.734411 -0.0589713 0)
(0.767445 -0.0128012 0)
(0.795292 0.0586485 0)
(0.81684 0.139512 0)
(0.839761 0.260171 0)
(0.868969 0.385865 0)
(0.924999 0.606617 0)
(1.0036 0.885273 0)
(0.0240822 -0.255238 0)
(0.0723935 -0.256263 0)
(0.120859 -0.254022 0)
(0.169564 -0.257819 0)
(0.218758 -0.255857 0)
(0.268494 -0.255409 0)
(0.318712 -0.254557 0)
(0.369266 -0.253753 0)
(0.420335 -0.248975 0)
(0.471934 -0.245757 0)
(0.524332 -0.231625 0)
(0.576538 -0.226029 0)
(0.628116 -0.202114 0)
(0.680554 -0.183353 0)
(0.729752 -0.144974 0)
(0.777854 -0.102754 0)
(0.82204 -0.0466416 0)
(0.856521 0.0298357 0)
(0.880906 0.122152 0)
(0.900964 0.234327 0)
(0.926206 0.356976 0)
(0.986255 0.518821 0)
(1.10939 0.77042 0)
(0.0239979 -0.303569 0)
(0.0721052 -0.304853 0)
(0.120518 -0.302816 0)
(0.169335 -0.307056 0)
(0.218789 -0.305783 0)
(0.269169 -0.306121 0)
(0.320526 -0.305951 0)
(0.372829 -0.305753 0)
(0.426333 -0.302095 0)
(0.481389 -0.299848 0)
(0.538191 -0.287304 0)
(0.595908 -0.280847 0)
(0.654933 -0.258476 0)
(0.714981 -0.240065 0)
(0.775395 -0.198446 0)
(0.837487 -0.16005 0)
(0.89551 -0.092087 0)
(0.948759 -0.0129066 0)
(0.998587 0.090372 0)
(1.04855 0.195796 0)
(1.10415 0.314246 0)
(1.17827 0.426681 0)
(1.28737 0.629246 0)
(0.023839 -0.351655 0)
(0.071613 -0.353148 0)
(0.119855 -0.35168 0)
(0.168641 -0.356304 0)
(0.218168 -0.356033 0)
(0.268917 -0.357527 0)
(0.320976 -0.358502 0)
(0.374343 -0.359423 0)
(0.429206 -0.357358 0)
(0.486083 -0.357101 0)
(0.545754 -0.347133 0)
(0.608652 -0.342263 0)
(0.675637 -0.323728 0)
(0.746965 -0.306875 0)
(0.823477 -0.269278 0)
(0.899757 -0.228316 0)
(0.971388 -0.154161 0)
(1.03482 -0.0681284 0)
(1.08279 0.0473529 0)
(1.12313 0.148076 0)
(1.16342 0.26555 0)
(1.21717 0.347926 0)
(1.30094 0.515195 0)
(0.0237056 -0.399448 0)
(0.0711589 -0.40108 0)
(0.119237 -0.400572 0)
(0.167957 -0.405427 0)
(0.217434 -0.406432 0)
(0.268449 -0.409423 0)
(0.321277 -0.412042 0)
(0.376337 -0.414875 0)
(0.433998 -0.415018 0)
(0.494643 -0.417577 0)
(0.559119 -0.411453 0)
(0.627296 -0.409716 0)
(0.69948 -0.396261 0)
(0.776383 -0.383622 0)
(0.851965 -0.345839 0)
(0.920731 -0.297846 0)
(0.98304 -0.219263 0)
(1.03437 -0.118131 0)
(1.08716 -0.00338243 0)
(1.14639 0.0993449 0)
(1.20042 0.219999 0)
(1.26271 0.278185 0)
(1.33241 0.43166 0)
(0.0235499 -0.44695 0)
(0.0706074 -0.448582 0)
(0.118481 -0.449523 0)
(0.167314 -0.454537 0)
(0.217112 -0.457115 0)
(0.268773 -0.461955 0)
(0.32242 -0.466552 0)
(0.378016 -0.471654 0)
(0.435418 -0.474115 0)
(0.494378 -0.47924 0)
(0.554461 -0.475966 0)
(0.616113 -0.47682 0)
(0.683951 -0.470683 0)
(0.764691 -0.467877 0)
(0.813375 -0.371445 0)
(0.751001 -0.263713 0)
(0.663599 -0.228113 0)
(0.710827 -0.207766 0)
(0.890442 -0.146174 0)
(1.09554 -0.0223508 0)
(1.22176 0.161647 0)
(1.27591 0.220704 0)
(1.32685 0.369 0)
(0.0233602 -0.494414 0)
(0.0698962 -0.495845 0)
(0.117332 -0.498809 0)
(0.16595 -0.50414 0)
(0.215376 -0.508465 0)
(0.266147 -0.515147 0)
(0.317865 -0.521213 0)
(0.370917 -0.528164 0)
(0.428572 -0.534858 0)
(0.502483 -0.553224 0)
(0.606488 -0.567814 0)
(0.739243 -0.581307 0)
(0.864385 -0.560863 0)
(0.929132 -0.523863 0)
(0.890277 -0.309833 0)
(0.780735 -0.137233 0)
(0.745437 -0.231167 0)
(0.859518 -0.3665 0)
(1.05405 -0.362861 0)
(1.25749 -0.215714 0)
(1.44284 0.0424876 0)
(1.54687 0.181922 0)
(1.53123 0.373684 0)
(0.0230613 -0.54212 0)
(0.069077 -0.543239 0)
(0.116737 -0.549012 0)
(0.167555 -0.555808 0)
(0.223581 -0.564644 0)
(0.296901 -0.585528 0)
(0.389165 -0.596039 0)
(0.49171 -0.610173 0)
(0.610087 -0.631189 0)
(0.753093 -0.675563 0)
(0.919732 -0.717433 0)
(1.08484 -0.730894 0)
(1.20866 -0.661511 0)
(1.25421 -0.534047 0)
(1.23917 -0.245402 0)
(1.22874 -0.0809766 0)
(1.21296 -0.235991 0)
(1.16358 -0.42665 0)
(1.13261 -0.467046 0)
(1.17231 -0.355804 0)
(1.31215 -0.14414 0)
(1.51089 0.0643794 0)
(1.68477 0.332405 0)
(0.0273586 -0.593543 0)
(0.0831715 -0.595608 0)
(0.142764 -0.605726 0)
(0.208319 -0.617065 0)
(0.279901 -0.632292 0)
(0.360899 -0.673242 0)
(0.456146 -0.695346 0)
(0.570668 -0.727578 0)
(0.709604 -0.77243 0)
(0.871561 -0.840842 0)
(1.04152 -0.890465 0)
(1.18905 -0.87208 0)
(1.30555 -0.761852 0)
(1.40431 -0.578715 0)
(1.49741 -0.279129 0)
(1.565 -0.104617 0)
(1.54902 -0.180336 0)
(1.44389 -0.326921 0)
(1.32241 -0.413443 0)
(1.24969 -0.376091 0)
(1.24706 -0.261638 0)
(1.33451 -0.105688 0)
(1.53895 0.122306 0)
(0.0310024 -0.652213 0)
(0.0944686 -0.656848 0)
(0.159767 -0.670034 0)
(0.22963 -0.688881 0)
(0.303407 -0.706586 0)
(0.374587 -0.751906 0)
(0.44838 -0.786587 0)
(0.536206 -0.839717 0)
(0.644889 -0.909174 0)
(0.773467 -0.996113 0)
(0.905705 -1.03893 0)
(1.02815 -0.994965 0)
(1.14646 -0.874948 0)
(1.25822 -0.67718 0)
(1.35698 -0.373462 0)
(1.4439 -0.165522 0)
(1.50151 -0.161185 0)
(1.50078 -0.239567 0)
(1.44083 -0.318317 0)
(1.37674 -0.333586 0)
(1.36448 -0.289061 0)
(1.40936 -0.211173 0)
(1.51461 -0.0833894 0)
(0.0271003 -0.710617 0)
(0.0813833 -0.716803 0)
(0.134579 -0.729185 0)
(0.187261 -0.752907 0)
(0.24125 -0.770984 0)
(0.298018 -0.816113 0)
(0.361669 -0.860529 0)
(0.435674 -0.928432 0)
(0.522912 -1.01738 0)
(0.609182 -1.10385 0)
(0.667677 -1.12289 0)
(0.705863 -1.07244 0)
(0.753684 -0.964415 0)
(0.821099 -0.767766 0)
(0.918336 -0.479833 0)
(1.03882 -0.267568 0)
(1.14112 -0.21979 0)
(1.20505 -0.244403 0)
(1.24385 -0.292119 0)
(1.28676 -0.338397 0)
(1.35922 -0.344648 0)
(1.4667 -0.308629 0)
(1.61472 -0.240404 0)
(0.0224786 -0.760452 0)
(0.0677094 -0.766995 0)
(0.112741 -0.777725 0)
(0.156836 -0.801641 0)
(0.200906 -0.820811 0)
(0.243965 -0.866622 0)
(0.286701 -0.916948 0)
(0.33184 -0.991759 0)
(0.371465 -1.08155 0)
(0.387135 -1.14211 0)
(0.377038 -1.13323 0)
(0.359871 -1.08318 0)
(0.349968 -0.991744 0)
(0.359311 -0.817544 0)
(0.415128 -0.583847 0)
(0.531623 -0.401702 0)
(0.679799 -0.337354 0)
(0.828045 -0.340041 0)
(0.971254 -0.379343 0)
(1.11662 -0.440344 0)
(1.27584 -0.475478 0)
(1.45274 -0.463556 0)
(1.65097 -0.433418 0)
(0.018933 -0.802076 0)
(0.0568674 -0.808963 0)
(0.0941424 -0.818485 0)
(0.130002 -0.841244 0)
(0.165238 -0.860917 0)
(0.198274 -0.902995 0)
(0.22716 -0.952556 0)
(0.247433 -1.02188 0)
(0.248362 -1.09217 0)
(0.228435 -1.12719 0)
(0.198258 -1.10764 0)
(0.168493 -1.06156 0)
(0.146169 -0.980927 0)
(0.144384 -0.835909 0)
(0.194784 -0.672196 0)
(0.312544 -0.548766 0)
(0.473816 -0.50128 0)
(0.657227 -0.509424 0)
(0.852606 -0.550229 0)
(1.04848 -0.612388 0)
(1.24655 -0.662492 0)
(1.45547 -0.664268 0)
(1.68766 -0.665267 0)
(0.0170931 -0.838286 0)
(0.0506108 -0.84457 0)
(0.0828519 -0.852749 0)
(0.112849 -0.873172 0)
(0.140227 -0.891919 0)
(0.162739 -0.927819 0)
(0.176537 -0.970624 0)
(0.17739 -1.02504 0)
(0.161476 -1.07394 0)
(0.13347 -1.09722 0)
(0.103424 -1.07705 0)
(0.0786968 -1.03734 0)
(0.0656731 -0.969576 0)
(0.083732 -0.863573 0)
(0.158689 -0.770489 0)
(0.292296 -0.703092 0)
(0.463151 -0.680747 0)
(0.650954 -0.703033 0)
(0.845204 -0.748201 0)
(1.036 -0.803011 0)
(1.22873 -0.864628 0)
(1.44348 -0.887915 0)
(1.69499 -0.927741 0)
(0.0140899 -0.869629 0)
(0.0417392 -0.874708 0)
(0.0685284 -0.881944 0)
(0.0935142 -0.89924 0)
(0.116018 -0.915983 0)
(0.133775 -0.944225 0)
(0.142592 -0.97694 0)
(0.139942 -1.0169 0)
(0.124864 -1.0509 0)
(0.103026 -1.07013 0)
(0.084814 -1.05561 0)
(0.077674 -1.02672 0)
(0.0916492 -0.981117 0)
(0.141311 -0.920064 0)
(0.231053 -0.879509 0)
(0.352454 -0.850356 0)
(0.495661 -0.849122 0)
(0.651086 -0.879609 0)
(0.816324 -0.932915 0)
(0.992475 -0.987075 0)
(1.18382 -1.06657 0)
(1.40441 -1.1235 0)
(1.67003 -1.21189 0)
(0.0117865 -0.895638 0)
(0.0352161 -0.900039 0)
(0.0583946 -0.906835 0)
(0.0802293 -0.921407 0)
(0.0997189 -0.936021 0)
(0.115141 -0.957531 0)
(0.12346 -0.980849 0)
(0.122651 -1.0095 0)
(0.113116 -1.03355 0)
(0.100785 -1.05312 0)
(0.0947396 -1.04821 0)
(0.102927 -1.03514 0)
(0.132509 -1.01645 0)
(0.186149 -0.988537 0)
(0.261947 -0.977397 0)
(0.35823 -0.97124 0)
(0.474955 -0.989471 0)
(0.60711 -1.02828 0)
(0.753085 -1.09702 0)
(0.916044 -1.16378 0)
(1.10143 -1.26848 0)
(1.32096 -1.36391 0)
(1.58742 -1.50625 0)
(0.00999229 -0.917528 0)
(0.0299078 -0.921715 0)
(0.0495607 -0.928209 0)
(0.0678943 -0.940406 0)
(0.0842389 -0.953038 0)
(0.0983586 -0.970204 0)
(0.108797 -0.987024 0)
(0.114165 -1.0079 0)
(0.114677 -1.02607 0)
(0.11403 -1.04754 0)
(0.119219 -1.05291 0)
(0.135222 -1.05473 0)
(0.164654 -1.05615 0)
(0.209664 -1.04797 0)
(0.271535 -1.05632 0)
(0.349661 -1.06759 0)
(0.445467 -1.10671 0)
(0.558067 -1.15702 0)
(0.685888 -1.24344 0)
(0.831683 -1.32766 0)
(0.999745 -1.45983 0)
(1.19989 -1.59436 0)
(1.44315 -1.78811 0)
(0.00861944 -0.936235 0)
(0.025553 -0.940046 0)
(0.0417481 -0.945909 0)
(0.0566966 -0.956157 0)
(0.0702653 -0.967352 0)
(0.0825265 -0.982403 0)
(0.0932451 -0.996085 0)
(0.102315 -1.01334 0)
(0.109183 -1.02803 0)
(0.114679 -1.05043 0)
(0.123178 -1.06376 0)
(0.139359 -1.07621 0)
(0.166306 -1.09132 0)
(0.205004 -1.09691 0)
(0.25503 -1.11982 0)
(0.317362 -1.14525 0)
(0.393876 -1.20223 0)
(0.484601 -1.26584 0)
(0.587577 -1.36657 0)
(0.707301 -1.47138 0)
(0.847441 -1.62587 0)
(1.01597 -1.79887 0)
(1.22189 -2.03507 0)
(0.00697192 -0.951906 0)
(0.0205019 -0.954994 0)
(0.0333247 -0.960127 0)
(0.0454454 -0.969146 0)
(0.0566912 -0.979303 0)
(0.067045 -0.993181 0)
(0.0766559 -1.00574 0)
(0.0863921 -1.02258 0)
(0.0965655 -1.03591 0)
(0.106132 -1.05768 0)
(0.117178 -1.07614 0)
(0.132999 -1.09599 0)
(0.154174 -1.1199 0)
(0.18189 -1.13507 0)
(0.21782 -1.16804 0)
(0.264341 -1.20641 0)
(0.321847 -1.27575 0)
(0.390383 -1.35237 0)
(0.468151 -1.46168 0)
(0.559077 -1.58797 0)
(0.664254 -1.75582 0)
(0.788958 -1.96362 0)
(0.935376 -2.22444 0)
(0.00539164 -0.964333 0)
(0.0160324 -0.966861 0)
(0.0265101 -0.971679 0)
(0.0366579 -0.979977 0)
(0.0461092 -0.989275 0)
(0.0547327 -1.00228 0)
(0.0624344 -1.01404 0)
(0.0698394 -1.03151 0)
(0.0780753 -1.04548 0)
(0.0875308 -1.06723 0)
(0.09824 -1.08846 0)
(0.110081 -1.11147 0)
(0.123926 -1.13961 0)
(0.143261 -1.16264 0)
(0.17059 -1.20404 0)
(0.206223 -1.25297 0)
(0.247556 -1.32852 0)
(0.294145 -1.4153 0)
(0.345002 -1.52802 0)
(0.401894 -1.67019 0)
(0.463999 -1.84172 0)
(0.533864 -2.07327 0)
(0.608204 -2.33667 0)
(0.00433739 -0.974111 0)
(0.0130352 -0.97652 0)
(0.0216056 -0.981166 0)
(0.0296892 -0.988815 0)
(0.0370604 -0.997345 0)
(0.0437213 -1.00957 0)
(0.0498376 -1.02063 0)
(0.0555361 -1.03809 0)
(0.0612683 -1.05295 0)
(0.0671329 -1.07516 0)
(0.0730346 -1.09722 0)
(0.0796923 -1.12129 0)
(0.0883195 -1.15236 0)
(0.101711 -1.18277 0)
(0.120061 -1.22981 0)
(0.141471 -1.28452 0)
(0.164331 -1.36147 0)
(0.188549 -1.4535 0)
(0.212759 -1.56525 0)
(0.236599 -1.71408 0)
(0.257652 -1.88139 0)
(0.275559 -2.1218 0)
(0.286462 -2.3738 0)
(0.00354897 -0.982038 0)
(0.010535 -0.984357 0)
(0.017134 -0.988575 0)
(0.0231025 -0.995529 0)
(0.028346 -1.00331 0)
(0.0329188 -1.0149 0)
(0.0369484 -1.0255 0)
(0.0403523 -1.04236 0)
(0.0432628 -1.05735 0)
(0.0454863 -1.07888 0)
(0.0472537 -1.1012 0)
(0.0499011 -1.12666 0)
(0.0538455 -1.15963 0)
(0.059135 -1.19427 0)
(0.0652309 -1.24287 0)
(0.0721309 -1.29991 0)
(0.0784953 -1.37544 0)
(0.0825912 -1.46796 0)
(0.0828162 -1.57532 0)
(0.0767724 -1.72187 0)
(0.0607925 -1.87867 0)
(0.0296401 -2.11117 0)
(-0.021703 -2.34374 0)
(0.00241979 -0.988037 0)
(0.00712726 -0.990111 0)
(0.0114931 -0.993842 0)
(0.015378 -1.00017 0)
(0.0186536 -1.00724 0)
(0.0211639 -1.01809 0)
(0.0229006 -1.02811 0)
(0.0237974 -1.04408 0)
(0.0239628 -1.05873 0)
(0.0234203 -1.0792 0)
(0.0222149 -1.10145 0)
(0.0204386 -1.12728 0)
(0.01764 -1.16015 0)
(0.014259 -1.19566 0)
(0.0100341 -1.24335 0)
(0.00398114 -1.30027 0)
(-0.00580953 -1.37163 0)
(-0.0212111 -1.4604 0)
(-0.0436563 -1.56053 0)
(-0.0768959 -1.69716 0)
(-0.124804 -1.83915 0)
(-0.196241 -2.04755 0)
(-0.297818 -2.25362 0)
(0.00132762 -0.991803 0)
(0.00392715 -0.993688 0)
(0.00631803 -0.997055 0)
(0.00829135 -1.00284 0)
(0.00964922 -1.00922 0)
(0.0102422 -1.01923 0)
(0.010036 -1.02851 0)
(0.00876835 -1.04331 0)
(0.00644678 -1.05733 0)
(0.00288012 -1.07646 0)
(-0.00226819 -1.0978 0)
(-0.0088007 -1.12258 0)
(-0.0170844 -1.15371 0)
(-0.0273057 -1.18843 0)
(-0.0405144 -1.23306 0)
(-0.0584146 -1.28647 0)
(-0.0826522 -1.35121 0)
(-0.115333 -1.43248 0)
(-0.15828 -1.52271 0)
(-0.215609 -1.64392 0)
(-0.290734 -1.76869 0)
(-0.391819 -1.94457 0)
(-0.524634 -2.12098 0)
(0.000639014 -0.993779 0)
(0.00181539 -0.995506 0)
(0.00268299 -0.998512 0)
(0.00301157 -1.0037 0)
(0.002599 -1.00931 0)
(0.00118407 -1.01831 0)
(-0.00129755 -1.02673 0)
(-0.0050545 -1.04004 0)
(-0.0102106 -1.05309 0)
(-0.0168925 -1.07041 0)
(-0.0256096 -1.08992 0)
(-0.0364566 -1.11299 0)
(-0.0498838 -1.14147 0)
(-0.0666162 -1.17357 0)
(-0.0875304 -1.21361 0)
(-0.11394 -1.26138 0)
(-0.148184 -1.31751 0)
(-0.193377 -1.38788 0)
(-0.252188 -1.465 0)
(-0.329436 -1.56634 0)
(-0.429497 -1.67017 0)
(-0.560103 -1.81018 0)
(-0.729097 -1.95197 0)
(-3.56081e-05 -0.994385 0)
(-0.000252545 -0.995864 0)
(-0.000864067 -0.998411 0)
(-0.00208133 -1.0029 0)
(-0.00407564 -1.00769 0)
(-0.0071214 -1.01545 0)
(-0.0114056 -1.02278 0)
(-0.0172932 -1.03429 0)
(-0.0250936 -1.04582 0)
(-0.034928 -1.06108 0)
(-0.0471619 -1.07819 0)
(-0.062347 -1.09856 0)
(-0.081242 -1.12342 0)
(-0.104225 -1.1517 0)
(-0.132364 -1.18617 0)
(-0.167388 -1.22706 0)
(-0.21086 -1.2737 0)
(-0.265488 -1.33135 0)
(-0.334171 -1.39337 0)
(-0.421751 -1.47227 0)
(-0.533197 -1.55162 0)
(-0.675968 -1.65392 0)
(-0.858795 -1.75456 0)
(-0.000689797 -0.993655 0)
(-0.00218469 -0.994871 0)
(-0.00402991 -0.996932 0)
(-0.00651882 -1.00066 0)
(-0.00988628 -1.00454 0)
(-0.0144147 -1.01098 0)
(-0.0202512 -1.01708 0)
(-0.0276759 -1.02661 0)
(-0.0370706 -1.03621 0)
(-0.048836 -1.04897 0)
(-0.0635008 -1.06326 0)
(-0.0814432 -1.08019 0)
(-0.103509 -1.10062 0)
(-0.130698 -1.12408 0)
(-0.164043 -1.15199 0)
(-0.205009 -1.18486 0)
(-0.255336 -1.22162 0)
(-0.3174 -1.26613 0)
(-0.393718 -1.31284 0)
(-0.488113 -1.36988 0)
(-0.604823 -1.42465 0)
(-0.750096 -1.49133 0)
(-0.931758 -1.55076 0)
(-0.00121571 -0.991739 0)
(-0.00376748 -0.992718 0)
(-0.00669109 -0.99429 0)
(-0.010256 -0.997212 0)
(-0.0147204 -1.00012 0)
(-0.0204311 -1.00512 0)
(-0.0276575 -1.00982 0)
(-0.0367584 -1.01727 0)
(-0.0480794 -1.02474 0)
(-0.0619339 -1.0347 0)
(-0.0788674 -1.04577 0)
(-0.0994024 -1.05901 0)
(-0.12423 -1.07467 0)
(-0.154221 -1.09255 0)
(-0.190638 -1.1134 0)
(-0.235071 -1.13761 0)
(-0.289121 -1.16395 0)
(-0.355172 -1.19503 0)
(-0.435653 -1.22633 0)
(-0.533901 -1.26275 0)
(-0.653154 -1.2946 0)
(-0.797858 -1.3299 0)
(-0.972647 -1.35388 0)
(-0.00148463 -0.989023 0)
(-0.00460313 -0.989732 0)
(-0.00816338 -0.990757 0)
(-0.0124759 -0.992826 0)
(-0.0178019 -0.99466 0)
(-0.0244609 -0.998142 0)
(-0.0327272 -1.00122 0)
(-0.0429776 -1.00641 0)
(-0.0556359 -1.01149 0)
(-0.0710823 -1.0185 0)
(-0.0898404 -1.02611 0)
(-0.11248 -1.03528 0)
(-0.139735 -1.04605 0)
(-0.172376 -1.05822 0)
(-0.211268 -1.07204 0)
(-0.2577 -1.08765 0)
(-0.313116 -1.10389 0)
(-0.37938 -1.12209 0)
(-0.458529 -1.13881 0)
(-0.55318 -1.15637 0)
(-0.666093 -1.1676 0)
(-0.800731 -1.1761 0)
(-0.960796 -1.17108 0)
(-0.00160367 -0.985918 0)
(-0.004986 -0.986301 0)
(-0.00887382 -0.9867 0)
(-0.0135929 -0.987803 0)
(-0.019406 -0.988485 0)
(-0.0266091 -0.990384 0)
(-0.0354687 -0.99177 0)
(-0.046321 -0.99466 0)
(-0.0595481 -0.99723 0)
(-0.075566 -1.00113 0)
(-0.0949325 -1.00515 0)
(-0.11824 -1.01006 0)
(-0.146218 -1.01576 0)
(-0.179672 -1.02208 0)
(-0.219531 -1.02903 0)
(-0.266937 -1.03634 0)
(-0.323073 -1.04307 0)
(-0.389436 -1.0496 0)
(-0.467514 -1.05326 0)
(-0.559122 -1.05469 0)
(-0.665798 -1.04856 0)
(-0.789357 -1.03561 0)
(-0.931232 -1.00806 0)
(-0.00168757 -0.982609 0)
(-0.00525662 -0.982621 0)
(-0.00937846 -0.982327 0)
(-0.0143871 -0.982397 0)
(-0.0205457 -0.981858 0)
(-0.0281496 -0.982128 0)
(-0.0374892 -0.981733 0)
(-0.0489094 -0.982311 0)
(-0.0628012 -0.982323 0)
(-0.0795491 -0.98311 0)
(-0.0995943 -0.983565 0)
(-0.123431 -0.984262 0)
(-0.151708 -0.985016 0)
(-0.185142 -0.985598 0)
(-0.224493 -0.985896 0)
(-0.270704 -0.985373 0)
(-0.324753 -0.983288 0)
(-0.387815 -0.979289 0)
(-0.461086 -0.971445 0)
(-0.545896 -0.959186 0)
(-0.643357 -0.938877 0)
(-0.754478 -0.9094 0)
(-0.87971 -0.865788 0)
(-0.00142253 -0.979481 0)
(-0.0044776 -0.979087 0)
(-0.00812194 -0.978052 0)
(-0.0127124 -0.977021 0)
(-0.0185354 -0.975188 0)
(-0.0259077 -0.973743 0)
(-0.0351368 -0.971453 0)
(-0.046526 -0.969664 0)
(-0.0603917 -0.967071 0)
(-0.077051 -0.964785 0)
(-0.0968945 -0.961799 0)
(-0.120392 -0.958454 0)
(-0.148179 -0.954476 0)
(-0.180955 -0.949592 0)
(-0.219392 -0.943719 0)
(-0.264206 -0.936061 0)
(-0.316123 -0.926094 0)
(-0.375981 -0.912934 0)
(-0.444535 -0.89525 0)
(-0.522533 -0.871738 0)
(-0.610421 -0.840025 0)
(-0.708491 -0.797986 0)
(-0.816477 -0.742785 0)
(-0.00112422 -0.97692 0)
(-0.00358878 -0.976098 0)
(-0.00665751 -0.974292 0)
(-0.0106889 -0.972114 0)
(-0.0159905 -0.968913 0)
(-0.0228963 -0.965666 0)
(-0.0317289 -0.961375 0)
(-0.0427818 -0.957185 0)
(-0.0563347 -0.951992 0)
(-0.0726868 -0.946686 0)
(-0.0921894 -0.940353 0)
(-0.115189 -0.933167 0)
(-0.142109 -0.92478 0)
(-0.173473 -0.914821 0)
(-0.209872 -0.903273 0)
(-0.251931 -0.889192 0)
(-0.300219 -0.872249 0)
(-0.355358 -0.851196 0)
(-0.417861 -0.825261 0)
(-0.488142 -0.79269 0)
(-0.566322 -0.752156 0)
(-0.652252 -0.700913 0)
(-0.745225 -0.637872 0)
(-0.000781646 -0.975003 0)
(-0.00250762 -0.973801 0)
(-0.00470131 -0.971298 0)
(-0.00769383 -0.968046 0)
(-0.0118148 -0.963508 0)
(-0.0174384 -0.958476 0)
(-0.0249556 -0.952131 0)
(-0.0347657 -0.945459 0)
(-0.0472573 -0.93754 0)
(-0.0627591 -0.929121 0)
(-0.0815142 -0.919466 0)
(-0.103668 -0.908673 0)
(-0.129426 -0.89633 0)
(-0.159133 -0.88189 0)
(-0.193279 -0.865301 0)
(-0.232408 -0.845565 0)
(-0.276961 -0.822564 0)
(-0.327334 -0.794832 0)
(-0.383792 -0.762059 0)
(-0.446492 -0.722233 0)
(-0.515305 -0.674872 0)
(-0.589757 -0.616997 0)
(-0.668916 -0.548779 0)
(-0.000310133 -0.973905 0)
(-0.00106853 -0.9724 0)
(-0.00223408 -0.96932 0)
(-0.00411655 -0.965122 0)
(-0.00703707 -0.959353 0)
(-0.0113546 -0.952638 0)
(-0.0174482 -0.944288 0)
(-0.0257219 -0.935126 0)
(-0.0365707 -0.924414 0)
(-0.0503318 -0.912836 0)
(-0.0673146 -0.899832 0)
(-0.0877722 -0.885479 0)
(-0.111916 -0.869369 0)
(-0.139875 -0.850894 0)
(-0.171754 -0.829938 0)
(-0.207786 -0.805386 0)
(-0.248284 -0.777261 0)
(-0.293554 -0.744006 0)
(-0.343766 -0.705675 0)
(-0.398951 -0.660133 0)
(-0.458867 -0.60759 0)
(-0.522971 -0.545019 0)
(-0.590352 -0.473476 0)
(-5.93821e-05 -0.973532 0)
(-0.000269692 -0.971797 0)
(-0.000780857 -0.968236 0)
(-0.00187262 -0.963215 0)
(-0.00383 -0.956356 0)
(-0.00694134 -0.948167 0)
(-0.0115023 -0.938049 0)
(-0.017846 -0.926672 0)
(-0.0263508 -0.913415 0)
(-0.0374432 -0.898854 0)
(-0.0515809 -0.882535 0)
(-0.0691503 -0.864556 0)
(-0.0904183 -0.844649 0)
(-0.115498 -0.822305 0)
(-0.144418 -0.79742 0)
(-0.177154 -0.768786 0)
(-0.213682 -0.736446 0)
(-0.254069 -0.69873 0)
(-0.298365 -0.655964 0)
(-0.346522 -0.605978 0)
(-0.398255 -0.549531 0)
(-0.452974 -0.483655 0)
(-0.509774 -0.410034 0)
(0.000172957 -0.973646 0)
(0.000432237 -0.971731 0)
(0.00044172 -0.967796 0)
(1.36272e-05 -0.962126 0)
(-0.00106831 -0.954389 0)
(-0.00304041 -0.945024 0)
(-0.00613876 -0.933494 0)
(-0.0106388 -0.920329 0)
(-0.0168775 -0.90494 0)
(-0.025237 -0.887778 0)
(-0.0361199 -0.868463 0)
(-0.0499231 -0.847096 0)
(-0.0670526 -0.823517 0)
(-0.0878889 -0.797288 0)
(-0.112689 -0.768446 0)
(-0.141479 -0.735921 0)
(-0.174041 -0.699871 0)
(-0.210031 -0.658542 0)
(-0.249098 -0.612368 0)
(-0.290968 -0.559092 0)
(-0.335363 -0.499804 0)
(-0.381852 -0.431665 0)
(-0.429754 -0.356795 0)
(0.000210047 -0.97403 0)
(0.00052746 -0.971925 0)
(0.000588673 -0.967672 0)
(0.000291264 -0.96152 0)
(-0.000477989 -0.953134 0)
(-0.00186261 -0.942905 0)
(-0.00401448 -0.930335 0)
(-0.00710576 -0.915857 0)
(-0.0113455 -0.89888 0)
(-0.0170026 -0.879751 0)
(-0.0244395 -0.858078 0)
(-0.0341 -0.833899 0)
(-0.0464455 -0.80709 0)
(-0.0619012 -0.777239 0)
(-0.0808287 -0.744546 0)
(-0.103515 -0.708083 0)
(-0.130083 -0.66828 0)
(-0.160388 -0.623502 0)
(-0.193998 -0.574363 0)
(-0.230267 -0.518563 0)
(-0.268502 -0.457286 0)
(-0.308062 -0.387702 0)
(-0.348332 -0.312144 0)
(0.000163385 -0.974405 0)
(0.00039974 -0.972106 0)
(0.000424306 -0.967576 0)
(0.000181302 -0.961071 0)
(-0.000372702 -0.952251 0)
(-0.00129497 -0.941468 0)
(-0.00267818 -0.928219 0)
(-0.00463136 -0.912903 0)
(-0.00727741 -0.894914 0)
(-0.0107944 -0.874497 0)
(-0.0154346 -0.851194 0)
(-0.021506 -0.824972 0)
(-0.0293514 -0.795724 0)
(-0.0393787 -0.762993 0)
(-0.0520388 -0.727044 0)
(-0.0677986 -0.686943 0)
(-0.0870772 -0.64334 0)
(-0.110154 -0.594788 0)
(-0.137015 -0.542299 0)
(-0.167221 -0.483816 0)
(-0.199912 -0.420748 0)
(-0.233935 -0.350287 0)
(-0.268176 -0.274672 0)
(2.69829e-05 -0.974595 0)
(3.1155e-06 -0.972127 0)
(-0.000199367 -0.967374 0)
(-0.000614861 -0.960609 0)
(-0.00126447 -0.951502 0)
(-0.0021716 -0.940377 0)
(-0.00337155 -0.926712 0)
(-0.00490515 -0.910904 0)
(-0.00681251 -0.892334 0)