/*--------------------------------*- C++ -*----------------------------------*\
| =========                 |                                                 |
| \\      /  F ield         | OpenFOAM: The Open Source CFD Toolbox           |
|  \\    /   O peration     | Version:  2012                                  |
|   \\  /    A nd           | Website:  www.openfoam.com                      |
|    \\/     M anipulation  |                                                 |
\*---------------------------------------------------------------------------*/
FoamFile
{
    version     2.0;
    format      ascii;
    class       volScalarField;
    location    "0.27";
    object      volumeFraction1;
}
// * * * * * * * * * * * * * * * * * * * * * * * * * * * * * * * * * * * * * //

dimensions      [0 0 0 0 0 0 0];


internalField   nonuniform List<scalar> 
2268
(
1
1
1
1
1
1
1
1
1
1
1
1
1
1
1
1
1
1
1
1
1
1
0.99653
1
1
1
1
1
1
1
1
1
1
1
1
1
1
1
1
1
1
1
1
1
1
0.996543
1
1
1
1
1
1
1
1
1
1
1
1
1
1
1
1
1
1
1
1
1
1
0.995271
1
1
1
1
1
1
1
1
1
1
1
1
1
1
1
1
1
1
1
1
1
1
0.995015
1
1
1
1
1
1
1
1
1
1
1
1
1
1
1
1
1
1
1
1
1
1
0.995014
1
1
1
1
1
1
1
1
1
1
1
1
1
1
1
1
1
1
1
1
1
1
0.994899
1
1
1
1
1
1
1
1
1
1
1
1
1
1
1
1
1
1
1
1
1
1
0.994862
1
1
1
1
1
1
1
1
1
1
1
1
1
1
1
1
1
1
1
1
1
1
0.994863
5.33721e-25
9.97388e-25
2.44836e-24
6.77746e-24
2.66964e-23
7.25511e-23
2.50017e-23
1.88854e-24
7.46741e-26
2.60952e-27
1.26348e-29
4.81985e-32
7.46336e-35
2.84548e-37
8.73126e-40
2.29451e-42
5.71321e-45
1.06191e-47
2.07206e-50
2.15918e-23
9.28602e-23
3.22218e-22
9.54065e-22
6.4082e-21
1.76549e-20
4.02438e-21
4.78314e-22
1.92852e-23
8.58132e-25
5.05921e-27
2.27563e-29
4.84941e-32
1.94888e-34
5.9604e-37
1.56556e-39
4.0145e-42
7.83888e-45
8.09207e-48
7.53986e-22
5.51858e-21
2.40759e-20
9.34407e-20
9.41716e-19
2.15353e-18
2.96101e-19
5.87921e-20
2.42445e-21
1.3188e-22
1.021e-24
5.5753e-27
1.70618e-29
7.44608e-32
2.31166e-34
6.0205e-37
1.54298e-39
3.04786e-42
3.22928e-45
2.4459e-20
2.3783e-19
1.36287e-18
9.01106e-18
9.46738e-17
1.48501e-16
1.28729e-17
4.4508e-18
1.88347e-19
1.21745e-20
1.30839e-22
8.93915e-25
3.99839e-27
1.99052e-29
6.65439e-32
1.82678e-34
4.90669e-37
1.03653e-39
1.19945e-42
1.74995e-18
2.58279e-17
1.57761e-16
9.67238e-16
6.47878e-15
7.07959e-15
3.63044e-16
2.29136e-16
1.01511e-17
7.46764e-19
1.16922e-20
1.02583e-22
6.5551e-25
3.81671e-27
1.42215e-29
4.12603e-32
1.12104e-34
2.34599e-37
2.71024e-40
2.05341e-16
2.57509e-15
1.39746e-14
5.04329e-14
2.64386e-13
2.10994e-13
7.08586e-15
8.29716e-15
3.9395e-16
3.16007e-17
7.52727e-19
8.75793e-21
7.99811e-23
5.63803e-25
2.50517e-27
8.65644e-30
2.67901e-32
6.21395e-35
7.83279e-38
1.32086e-14
1.97406e-13
9.45566e-13
2.52719e-12
6.97526e-12
4.83942e-12
1.02329e-13
2.07865e-13
1.13615e-14
9.34841e-16
3.55971e-17
5.76227e-19
7.00213e-21
6.06772e-23
3.19022e-25
1.2588e-27
4.26666e-30
1.03827e-32
1.32874e-35
2.30561e-13
4.42218e-12
4.12036e-11
1.19539e-10
1.02507e-10
7.81008e-11
1.30011e-12
3.7457e-12
2.42184e-13
1.93404e-14
1.22697e-15
2.96638e-17
4.85171e-19
5.3048e-21
3.49784e-23
1.76728e-25
7.41306e-28
2.1598e-30
3.19137e-33
1
1
1
1
1
1
1
1
1
1
1
1
1
1
1
1
1
1
1
1
1
1
0.999337
1
1
1
1
1
1
1
1
1
1
1
1
1
1
1
1
1
1
1
1
1
1
1
1
1
1
1
1
1
1
1
1
1
1
1
1
1
0.999997
0.999982
0.999924
0.99984
1
1
1
1
1
1
1
1
1
1
1
1
1
1
1
0.999997
0.999967
0.999597
0.997613
0.991538
0.975284
0.943226
0.898712
0.908289
0.937079
0.996367
1
1
1
1
1
1
1
0.999998
0.999992
0.999933
0.999489
0.997493
0.991526
0.971715
0.903788
0.788333
0.622475
0.425582
0.291984
0.186884
0.173156
0.203037
0.283189
0.422681
0.633234
0.999353
0.999222
0.998827
0.997915
0.996038
0.99204
0.983649
0.952267
0.884509
0.774693
0.627109
0.413808
0.228525
0.0732205
-1.22863e-20
-1.56424e-21
-3.80983e-23
-3.86322e-22
-1.71047e-22
0.000480467
0.00233312
0.00684978
0.0441114
0.849143
0.838489
0.811584
0.766413
0.703154
0.615995
0.485968
0.337986
0.205071
0.0921012
0.00289218
2.24979e-22
2.21191e-27
1.87365e-27
9.46297e-11
3.85606e-29
0.00017768
0.00190377
0.00237098
0.00236765
0.00123889
0.000191208
0.000182944
0.162714
0.152341
0.127962
0.0940388
0.0563485
0.0170045
-2.93802e-21
-2.62153e-30
-3.87669e-29
-1.49534e-29
6.55385e-29
6.95015e-11
1.28511e-09
8.50656e-10
2.07774e-09
4.71726e-25
0.000364907
0.00189185
0.00210688
0.000932485
8.94091e-05
6.23373e-06
7.32021e-07
3.52407e-36
-3.53698e-36
5.32072e-36
9.17368e-34
6.931e-32
-4.97537e-31
2.27994e-12
1.2262e-11
5.17266e-11
6.45698e-11
5.57503e-11
5.50815e-11
1.47097e-09
3.68486e-08
2.07796e-09
1.25954e-05
4.62571e-07
3.72518e-08
3.72672e-08
3.72518e-08
3.73274e-08
4.59295e-08
6.12094e-08
9.12433e-20
9.8177e-18
6.17742e-16
2.40649e-14
5.32002e-13
9.00719e-12
3.78964e-11
4.62517e-11
2.69232e-10
2.5107e-10
5.87451e-10
1.79399e-10
1.00636e-10
5.35417e-06
2.04359e-05
2.06953e-05
7.35398e-06
3.15341e-07
3.72675e-08
8.89308e-08
1.25681e-07
4.72009e-08
3.70743e-09
5.0933e-19
5.72434e-17
3.45253e-15
1.27005e-13
2.66079e-12
4.34984e-11
1.01046e-10
4.6252e-11
7.7559e-09
8.74361e-08
6.82762e-08
2.00086e-09
1.01407e-10
3.72518e-05
4.32625e-05
4.32962e-05
2.50674e-05
3.00804e-07
3.27834e-08
1.57483e-07
1.69226e-07
1.18829e-07
7.59708e-09
1.658e-18
1.96857e-16
1.17823e-14
4.1528e-13
8.35677e-12
1.0937e-10
1.18074e-10
4.62504e-11
2.5483e-07
1.86596e-06
5.82664e-07
1.99903e-09
7.26102e-06
3.10565e-05
3.22536e-05
1.34163e-05
7.11562e-07
4.93246e-08
2.91567e-11
1.08326e-12
1.08367e-12
3.90596e-13
2.9583e-11
4.36007e-18
5.00616e-16
2.6796e-14
8.21091e-13
1.51951e-11
1.45796e-10
1.00051e-10
4.62867e-11
1.93877e-06
2.57594e-06
8.34096e-07
4.8548e-07
3.17624e-16
3.17624e-16
3.17624e-16
3.17624e-16
3.17624e-16
2.36187e-09
9.31499e-10
9.94044e-11
9.28723e-12
9.50148e-13
1.49144e-12
6.98987e-18
7.40182e-16
3.64318e-14
1.03281e-12
1.8353e-11
1.47767e-10
4.80203e-11
4.62884e-11
2.5753e-06
2.57594e-06
4.77508e-07
5.47806e-11
5.4781e-11
1.21909e-11
1.86404e-12
1.7876e-13
1.2503e-14
3.17624e-16
3.17624e-16
9.80909e-15
1.42364e-13
2.37972e-13
1.32134e-12
7.91251e-18
8.10613e-16
3.85602e-14
1.05403e-12
1.68073e-11
1.23905e-10
4.80196e-11
2.31118e-08
1.80778e-06
2.56747e-06
3.05575e-07
5.96472e-10
5.24681e-10
1.98701e-10
1.74841e-11
1.3719e-12
1.13144e-13
1.04818e-14
2.86327e-15
2.54969e-15
2.21642e-14
2.97129e-14
1.86986e-12
7.21853e-18
6.93881e-16
3.03519e-14
7.27026e-13
9.3754e-12
5.9043e-11
4.90843e-11
5.06387e-08
1.78447e-11
4.89923e-07
2.64917e-07
3.10763e-09
2.30296e-09
7.37776e-10
5.59017e-11
3.70011e-12
2.4444e-13
1.69979e-14
1.42482e-15
5.46095e-16
3.91682e-15
6.94205e-15
1.18937e-11
3.57439e-18
3.08329e-16
1.23203e-14
2.70307e-13
3.40422e-12
2.47287e-11
6.99106e-11
4.64146e-09
1.78345e-11
4.56134e-13
3.06043e-08
7.71819e-09
5.40557e-09
1.18452e-09
7.72461e-11
4.64779e-12
2.72374e-13
1.59057e-14
9.05711e-16
3.67476e-16
8.46793e-15
6.94225e-15
2.40742e-11
1.02722e-18
8.50703e-17
3.3205e-15
7.30887e-14
9.97952e-13
1.05274e-11
1.21041e-10
7.75507e-13
7.7556e-13
7.0848e-12
7.08483e-12
6.85508e-09
6.43953e-09
1.29218e-09
7.23386e-11
3.49339e-12
1.52434e-13
6.62287e-15
3.0276e-16
3.71694e-16
1.3409e-14
3.74143e-14
2.51425e-11
1.75869e-19
1.48299e-17
6.0026e-16
1.47769e-14
2.54504e-13
3.53096e-12
3.41735e-11
1.91266e-12
1.51757e-12
1.51313e-11
1.42299e-10
5.3035e-09
3.03038e-09
6.59605e-10
3.55132e-11
1.38146e-12
4.67504e-14
1.5032e-15
6.42138e-17
4.94865e-16
1.49755e-14
1.99821e-13
5.64586e-12
1.48844e-20
1.56009e-18
7.66915e-17
2.38376e-15
5.1227e-14
7.49171e-13
3.27546e-12
2.24854e-13
1.4065e-12
1.3893e-11
1.85669e-10
1.07279e-09
3.7672e-10
1.88633e-10
1.21248e-11
3.82797e-13
9.41457e-15
2.06541e-16
1.83534e-17
4.76529e-16
1.30678e-14
1.99821e-13
1.99839e-13
5.40385e-22
8.83035e-20
6.22541e-18
2.40103e-16
5.27166e-15
5.83662e-14
1.27447e-13
4.9779e-14
5.09707e-13
3.51981e-12
1.50158e-11
1.5219e-14
1.31277e-12
3.41711e-11
4.10353e-12
8.62386e-14
1.2816e-15
1.60229e-17
1.01534e-17
2.75081e-16
6.52046e-15
1.22634e-13
8.49059e-13
3.03036e-24
2.56671e-22
1.12472e-20
3.35761e-19
7.20261e-18
8.14323e-17
8.00997e-16
9.23181e-15
7.68886e-14
3.93257e-13
5.13145e-13
1.52192e-14
1.00995e-15
2.70322e-12
7.35202e-13
6.09504e-15
2.91725e-17
4.03641e-19
8.67104e-18
2.46628e-16
7.75588e-15
3.17895e-13
1.09164e-11
4.02874e-25
3.90936e-23
1.94602e-21
6.8147e-20
2.00094e-18
3.85164e-17
2.1825e-16
9.62812e-16
5.26776e-15
1.13526e-14
7.62529e-15
7.21389e-15
1.00997e-15
5.77224e-23
2.13437e-14
4.78796e-18
7.70307e-21
3.28398e-19
1.25977e-17
5.7716e-16
2.92123e-14
1.18864e-12
3.18482e-11
2.66723e-26
2.66752e-24
1.24461e-22
3.54371e-21
6.85599e-20
9.36536e-19
9.36914e-18
6.71926e-17
3.39403e-16
7.94043e-16
1.07801e-15
1.50301e-15
2.99338e-16
5.77228e-23
1.97122e-23
1.61079e-22
4.91383e-21
2.15504e-19
1.3169e-17
8.58407e-16
4.36964e-14
1.58013e-12
3.93846e-11
1.43452e-31
9.60867e-30
2.92814e-28
5.2461e-27
5.74898e-26
1.66484e-25
1.95781e-26
1.9578e-26
1.97084e-26
1.97087e-26
1.97084e-26
1.98397e-26
2.44137e-24
3.57213e-23
1.97128e-23
4.70171e-23
1.73948e-21
5.29093e-20
1.28632e-18
2.46439e-17
3.58942e-16
3.50149e-15
6.94204e-15
1.26882e-35
1.12373e-33
4.8776e-32
1.4052e-30
3.16262e-29
6.72803e-28
1.95786e-26
1.90059e-25
1.0487e-24
4.18276e-24
7.90414e-24
8.53295e-24
7.14101e-24
1.89197e-24
3.90111e-25
1.0904e-23
4.11256e-22
1.25618e-20
3.08134e-19
6.05169e-18
9.53543e-17
1.22966e-15
1.34552e-14
8.4248e-39
7.0994e-37
2.82488e-35
7.00395e-34
1.20661e-32
1.5159e-31
1.43628e-30
1.0328e-29
5.79768e-29
2.64246e-28
1.11786e-27
3.46226e-27
1.10242e-27
1.13354e-27
3.21891e-26
1.50832e-24
5.80839e-23
1.81208e-21
4.55039e-20
9.14714e-19
1.46242e-17
1.84822e-16
1.83741e-15
2.84882e-44
3.04104e-42
1.56773e-40
5.17407e-39
1.22597e-37
2.20946e-36
3.15006e-35
3.62542e-34
3.43248e-33
2.67429e-32
1.70084e-31
8.49935e-31
3.42644e-30
4.42592e-29
2.3537e-27
1.14933e-25
4.6047e-24
1.50574e-22
3.99745e-21
8.57725e-20
1.47736e-18
2.03099e-17
2.21249e-16
1.09653e-47
1.24274e-45
6.82155e-44
2.41737e-42
6.24471e-41
1.25964e-39
2.08161e-38
2.89136e-37
3.40725e-36
3.35206e-35
2.69522e-34
1.92516e-33
3.37831e-32
2.02878e-30
1.2353e-28
6.22872e-27
2.57713e-25
8.73584e-24
2.41994e-22
5.4681e-21
1.00455e-19
1.495e-18
1.79179e-17
5.15235e-54
7.00041e-52
5.11563e-50
2.68137e-48
1.10198e-46
3.62157e-45
9.49873e-44
1.98211e-42
3.46475e-41
8.49606e-40
6.70937e-38
7.41733e-36
7.12027e-34
5.65221e-32
3.69991e-30
1.99637e-28
8.8705e-27
3.24268e-25
9.73076e-24
2.39293e-22
4.80742e-21
7.8732e-20
1.04708e-18
3.26265e-59
7.15059e-57
7.907e-55
5.80085e-53
3.12989e-51
1.32022e-49
4.96015e-48
2.96943e-46
4.35277e-44
7.6146e-42
1.1453e-39
1.42108e-37
1.45101e-35
1.22035e-33
8.46441e-32
4.84778e-30
2.29359e-28
8.97151e-27
2.90006e-25
7.74503e-24
1.70573e-22
3.09215e-21
4.59652e-20
2.32901e-63
7.23976e-61
1.10168e-58
1.08706e-56
7.92793e-55
5.31773e-53
6.10599e-51
1.39587e-48
3.37762e-46
6.8834e-44
1.14716e-41
1.56498e-39
1.75358e-37
1.61771e-35
1.23089e-33
7.73938e-32
4.0266e-30
1.73598e-28
6.20478e-27
1.83997e-25
4.52518e-24
9.22942e-23
1.55813e-21
7.3461e-68
3.24501e-65
7.39543e-63
1.21062e-60
1.97577e-58
5.12663e-56
1.899e-53
6.68322e-51
1.93424e-48
4.50552e-46
8.46081e-44
1.28874e-41
1.60197e-39
1.63367e-37
1.37221e-35
9.52538e-34
5.47828e-32
2.61727e-30
1.04032e-28
3.44668e-27
9.52586e-26
2.19875e-24
4.23686e-23
1.39982e-71
7.69085e-69
2.24858e-66
5.12949e-64
1.41215e-61
6.44339e-59
3.42281e-56
1.55722e-53
5.60507e-51
1.58305e-48
3.52878e-46
6.27504e-44
9.00136e-42
1.05171e-39
1.00814e-37
7.9698e-36
5.21606e-34
2.83626e-32
1.28467e-30
4.86043e-29
1.53879e-27
4.08587e-26
9.11028e-25
8.66734e-76
6.73169e-73
2.8961e-70
1.04245e-67
5.02678e-65
3.83935e-62
3.01301e-59
1.89653e-56
9.07619e-54
3.3057e-51
9.26716e-49
2.02762e-46
3.50905e-44
4.8638e-42
5.46262e-40
5.02182e-38
3.80767e-36
2.3958e-34
1.25646e-32
5.51434e-31
2.03085e-29
6.29453e-28
1.64476e-26
3.16888e-80
3.46136e-77
2.15665e-74
1.1421e-71
8.12824e-69
9.22506e-66
1.05808e-62
9.49753e-60
6.3418e-57
3.15882e-54
1.18563e-51
3.39641e-49
7.52757e-47
1.30969e-44
1.8149e-42
2.02998e-40
1.85424e-38
1.39692e-36
8.74495e-35
4.57762e-33
2.01285e-31
7.46724e-30
2.34443e-28
2.88956e-85
4.99629e-82
4.90521e-79
3.89011e-76
3.71422e-73
6.26901e-70
1.18026e-66
1.70333e-63
1.75525e-60
1.30026e-57
7.03921e-55
2.83674e-52
8.65435e-50
2.02944e-47
3.70851e-45
5.35349e-43
6.18979e-41
5.81183e-39
4.48634e-37
2.87822e-35
1.54736e-33
7.01934e-32
2.70038e-30
1.74267e-90
4.62783e-87
7.01968e-84
8.27151e-81
1.03526e-77
2.13546e-74
5.50392e-71
1.13957e-67
1.70315e-64
1.84132e-61
1.4616e-58
8.63055e-56
3.8315e-53
1.29298e-50
3.35466e-48
6.77265e-46
1.07642e-43
1.36369e-41
1.39449e-39
1.16614e-37
8.07188e-36
4.67613e-34
2.28728e-32
1.73927e-96
8.69564e-93
2.34909e-89
4.55175e-86
7.79718e-83
1.76658e-79
5.74233e-76
1.72924e-72
3.93912e-69
6.60096e-66
8.18553e-63
7.57702e-60
5.27903e-57
2.79138e-54
1.12774e-51
3.50665e-49
8.45096e-47
1.59194e-44
2.36579e-42
2.80637e-40
2.69237e-38
2.11979e-36
1.38916e-34
1.66191e-102
1.56216e-98
7.19364e-95
2.12902e-91
5.05695e-88
1.30368e-84
4.14614e-81
1.30478e-77
3.40713e-74
7.03662e-71
1.14858e-67
1.48975e-64
1.5374e-61
1.25799e-58
8.12356e-56
4.13152e-53
1.65178e-50
5.19269e-48
1.28418e-45
2.50533e-43
3.8725e-41
4.78004e-39
4.7617e-37
8.76278e-109
1.13775e-104
7.11628e-101
2.83672e-97
8.593e-94
2.42474e-90
7.41278e-87
2.33788e-83
6.68339e-80
1.61894e-76
3.27706e-73
5.56582e-70
7.94651e-67
9.50784e-64
9.4698e-61
7.80713e-58
5.29078e-55
2.92855e-52
1.31353e-49
4.737e-47
1.36199e-44
3.1041e-42
5.59472e-40
1.12629e-115
1.91134e-111
1.52873e-107
7.76743e-104
2.93381e-100
9.51024e-97
2.98188e-93
9.32696e-90
2.75894e-86
7.2747e-83
1.66418e-79
3.29076e-76
5.65161e-73
8.4643e-70
1.10548e-66
1.25955e-63
1.25144e-60
1.08526e-57
8.21372e-55
5.41774e-52
3.0971e-49
1.52333e-46
6.37742e-44
0.99982
1
1
0.169085
0.999973
0.999988
1
0.937677
0.99999
0.999991
0.999997
0.999222
1
1
1
1
0.775106
0.866414
0.969924
1
0.0902772
0.138559
0.202591
0.281953
0.000374801
0.000904192
0.00208548
0.00434551
1.47593e-07
9.153e-08
1.78524e-07
5.69783e-07
5.23985e-08
1.86331e-08
3.40632e-09
1.48687e-09
2.61803e-09
2.40749e-09
1.92663e-09
1.40646e-09
4.18116e-10
2.32249e-10
2.36504e-10
3.53168e-10
7.63601e-11
1.04261e-10
1.25895e-10
1.51901e-10
2.73575e-12
1.38632e-11
6.34505e-11
6.34289e-11
1.91622e-14
6.84306e-11
5.34835e-10
6.34331e-11
1.09379e-14
2.87333e-10
2.60452e-09
1.45168e-09
1.11524e-14
8.89703e-10
2.96394e-09
2.70113e-09
1.10501e-10
2.09884e-10
1.30515e-09
9.40105e-10
2.18485e-10
5.84631e-10
3.5909e-10
4.25203e-11
1.91621e-10
1.33928e-09
5.8243e-10
8.55677e-10
2.65578e-10
1.84052e-09
5.89169e-10
1.32083e-07
1.71947e-10
1.77091e-09
1.68685e-09
1.68694e-09
1.31366e-10
6.69592e-10
3.05491e-09
5.3699e-07
4.02538e-10
1.48001e-09
3.46805e-09
1.30754e-07
5.30994e-10
1.48589e-09
1.17653e-09
1.14692e-14
6.94454e-15
4.54448e-14
4.53907e-14
1.88629e-12
7.98486e-14
2.68927e-13
9.27971e-13
3.8208e-12
1.10547e-14
4.06902e-14
1.33588e-13
2.98403e-13
1.45482e-15
5.62831e-15
1.79039e-14
4.93979e-14
1.30999e-16
5.63065e-16
2.00427e-15
6.21521e-15
8.56959e-18
4.12817e-17
1.66585e-16
5.89782e-16
4.22923e-19
2.28598e-18
1.04215e-17
4.18515e-17
1.6407e-20
1.0155e-19
5.34639e-19
2.48443e-18
5.12843e-22
3.65726e-21
2.24415e-20
1.22373e-19
1.28194e-23
1.06392e-22
7.67847e-22
4.96223e-21
2.71653e-25
2.64189e-24
2.24987e-23
1.72425e-22
4.66244e-27
5.4557e-26
5.62378e-25
5.21682e-24
6.58696e-29
9.45812e-28
1.20583e-26
1.3885e-25
7.06906e-31
1.28506e-29
2.08935e-28
3.08039e-27
5.68712e-33
1.36242e-31
2.92491e-30
5.68965e-29
2.86982e-35
9.98666e-34
3.09183e-32
8.55489e-31
5.91048e-38
3.55247e-36
1.88017e-34
8.75283e-33
1.64813e-41
2.44546e-39
3.21283e-37
3.69398e-35
3.69124e-16
3.69119e-16
1.01417e-09
1.25279e-09
1.2544e-09
1.52524e-09
2.44142e-11
7.6326e-11
5.77922e-12
4.24061e-13
4.60926e-14
1.88875e-15
3.98888e-17
5.52499e-19
4.46299e-21
2.69766e-23
1.35787e-25
4.69049e-28
8.0636e-31
0.696387
0.177035
1.01417e-09
1.01426e-09
2.38525e-09
5.40528e-09
6.12442e-10
1.8966e-09
1.1612e-10
7.87696e-12
1.33805e-12
1.12661e-13
3.22713e-15
5.91487e-17
7.04388e-19
6.99924e-21
5.50222e-23
2.87921e-25
7.33627e-28
1
0.899063
0.602408
0.105311
2.29674e-09
2.29674e-09
2.32026e-09
8.29662e-09
1.59353e-09
1.06671e-10
1.87761e-11
4.49382e-12
1.65636e-13
3.67286e-15
5.35163e-17
6.75239e-19
6.75667e-21
4.48807e-23
1.45025e-25
1
0.999137
0.997052
0.874666
0.542222
0.0639119
2.32026e-09
2.32026e-09
4.42917e-09
6.31049e-10
2.54459e-10
1.44017e-10
6.76202e-12
1.79153e-13
3.76852e-15
6.90238e-17
9.74613e-19
9.08703e-21
4.1046e-23
1
1
0.999957
0.999547
0.993665
0.820416
0.332869
0.00804873
3.50247e-10
3.50217e-10
1.04998e-07
9.51503e-09
9.90761e-11
2.14106e-12
5.795e-14
1.30455e-15
2.228e-17
2.50696e-19
1.37205e-21
0.455364
0.757767
0.994573
1
1
1
0.933228
0.488492
0.0315118
0.000527126
1.48236e-05
2.29535e-07
8.25996e-11
5.27023e-13
2.46967e-14
8.74514e-16
2.14679e-17
3.38101e-19
2.68448e-21
0.0103246
0.0718551
0.210318
0.482473
0.893391
1
1
0.966001
0.465316
0.0290423
0.000525653
2.93537e-06
5.71126e-10
7.83034e-13
5.46637e-14
2.40825e-15
7.13082e-17
1.42229e-18
1.51425e-20
4.93993e-06
0.000518826
0.00245289
0.00981515
0.104856
0.439371
0.943173
0.968894
0.90231
0.30528
0.0116724
5.63189e-05
2.37482e-08
1.36045e-12
6.14375e-14
3.29196e-15
1.53219e-16
5.23663e-18
8.99088e-20
2.41227e-09
2.89228e-08
2.89227e-08
0.000124414
0.000244103
1.64197e-07
0.289383
0.897737
0.96857
0.702302
0.102747
0.00145559
6.26784e-07
1.67756e-12
2.34316e-14
2.60323e-15
2.0604e-16
9.99151e-18
2.13856e-19
5.22516e-10
4.77573e-10
3.91296e-08
3.51002e-07
4.37755e-07
1.64207e-07
1.00192e-10
0.464413
0.968572
0.919154
0.361629
0.0106927
4.08666e-06
1.52751e-12
1.17471e-14
2.72356e-15
3.12281e-16
1.87144e-17
4.66167e-19
5.54513e-10
4.77568e-10
2.10875e-09
7.14539e-09
1.21857e-07
9.05709e-08
1.00192e-10
0.123662
0.805113
0.919149
0.51888
0.0213093
1.07086e-05
3.06021e-12
1.27657e-14
3.83922e-15
5.15761e-16
3.42705e-17
9.24332e-19
3.76084e-10
5.9895e-10
1.09183e-09
1.09172e-09
2.34452e-08
3.2508e-08
4.07299e-09
1.00192e-10
0.522692
0.91928
0.479082
0.016384
7.69428e-06
2.38107e-12
1.69074e-14
5.8058e-15
8.4566e-16
5.95116e-17
1.67466e-18
1.77088e-08
7.83941e-09
1.07048e-08
4.99113e-08
4.68349e-08
1.07693e-08
7.49517e-10
1.00192e-10
0.422683
0.854246
0.376499
0.00962276
2.9383e-06
1.16221e-12
2.34422e-14
7.80408e-15
1.10801e-15
7.67838e-17
2.14115e-18
6.14036e-08
1.42178e-07
1.71911e-07
1.34255e-07
4.12401e-08
6.43295e-09
2.91702e-10
1.00192e-10
0.557819
0.810299
0.288215
0.00474294
6.72022e-07
4.54042e-13
2.73785e-14
7.95917e-15
1.08101e-15
7.31129e-17
2.00035e-18
1.80753e-13
1.43753e-06
7.47248e-07
2.5675e-08
2.5673e-08
2.56641e-08
1.00192e-10
0.131143
0.7008
0.798406
0.253083
0.00319284
2.37813e-07
2.17933e-13
2.78195e-14
7.47347e-15
9.5648e-16
6.15987e-17
1.61879e-18
1.80753e-13
2.90536e-06
4.39779e-05
2.56221e-05
3.52781e-06
3.14515e-08
1.00192e-10
0.154553
0.688259
0.630092
0.163013
0.0015998
5.5774e-08
1.04105e-13
2.62922e-14
6.23436e-15
7.31959e-16
4.37682e-17
1.08074e-18
1.80753e-13
1.8743e-05
0.000138564
0.000119253
1.34869e-05
2.36446e-08
1.00192e-10
0.100345
0.196158
0.137268
0.0336005
0.00102555
3.25328e-08
7.0805e-14
2.10156e-14
3.99838e-15
4.00548e-16
2.11146e-17
4.56622e-19
1.80753e-13
8.95324e-05
0.000141363
0.000123729
8.12838e-06
2.36418e-08
0.00387962
0.00446526
0.00204526
0.000926783
0.00112943
0.000374952
7.72489e-07
6.81426e-13
2.40889e-14
3.84727e-15
3.06538e-16
1.25559e-17
2.60736e-19
3.3193e-07
4.85892e-05
0.000141359
4.62373e-05
2.99389e-07
1.90136e-05
0.00059124
1.6366e-06
1.53192e-06
3.98872e-08
2.83937e-06
5.14803e-05
3.33742e-08
2.69996e-13
2.69989e-13
1.51576e-14
6.29843e-16
1.69904e-17
2.36735e-19
7.19951e-06
5.57773e-06
3.4772e-05
3.66103e-06
3.97955e-09
3.97955e-09
3.97955e-09
3.97955e-09
1.22049e-05
4.80852e-09
4.80815e-09
3.29008e-08
1.38848e-08
1.09721e-10
2.74286e-12
7.87798e-14
1.78725e-15
2.73431e-17
2.1899e-19
3.73243e-05
1.46629e-05
5.66437e-07
6.93219e-08
3.97955e-09
0.0982554
0.0981846
0.0284767
0.000844775
6.46411e-09
3.68285e-11
1.32367e-09
1.80472e-08
2.80445e-10
3.20655e-12
8.25155e-14
1.54655e-15
2.02089e-17
1.30372e-19
3.81721e-05
8.5147e-05
5.94113e-06
9.65016e-11
0.117428
0.452224
0.477669
0.179751
0.00230752
8.62349e-08
3.68311e-11
4.08467e-10
1.0909e-08
2.23958e-10
2.82115e-12
5.95071e-14
8.67648e-16
8.48971e-18
3.82208e-20
6.31543e-06
4.1332e-05
2.4687e-06
9.67196e-11
0.224613
0.479749
0.479789
0.216031
0.00234976
9.87194e-08
3.30969e-11
1.76391e-10
1.49409e-09
9.73349e-11
1.4682e-12
2.15551e-14
2.49309e-16
2.11331e-18
8.7711e-21
1.14714e-14
1.14692e-14
5.96798e-07
9.65016e-11
0.0907008
0.335838
0.311284
0.0932305
0.00165813
5.26913e-08
2.87444e-11
9.68498e-11
2.67797e-10
2.43634e-11
3.84056e-13
5.07806e-15
5.52676e-17
4.2628e-19
1.67435e-21
6.06257e-11
1.25973e-07
0.000154727
0.000938103
0.00442989
0.0249482
0.0147856
0.00478079
0.00054183
5.05514e-09
1.53758e-11
4.32523e-11
6.25585e-11
5.15881e-12
8.00208e-14
9.94712e-16
1.01329e-17
7.30559e-20
2.74209e-22
2.35128e-10
7.28229e-07
1.48191e-05
9.25981e-05
4.28988e-06
1.49572e-05
5.21229e-06
6.62518e-06
5.24107e-05
7.28476e-13
1.14186e-11
1.48723e-11
1.33425e-11
9.38619e-13
1.39932e-14
1.65772e-16
1.59457e-18
1.0912e-20
3.93354e-23
4.15956e-13
4.16034e-13
4.15896e-13
4.20083e-13
1.38791e-11
1.40024e-11
6.89535e-11
4.41039e-10
1.53483e-09
7.28941e-13
3.85001e-12
4.01517e-12
2.42196e-12
1.47336e-13
2.10424e-15
2.39653e-17
2.19958e-19
1.44218e-21
5.01695e-24
1.60537e-13
4.85032e-13
8.23091e-13
1.03417e-12
1.19239e-12
2.08982e-12
4.35251e-12
5.1804e-12
3.10451e-12
5.00022e-13
9.62894e-13
8.46669e-13
3.76835e-13
2.00482e-14
2.75989e-16
3.0468e-18
2.69314e-20
1.70339e-22
5.74901e-25
2.37079e-14
9.54254e-14
2.79306e-13
4.78635e-13
6.59554e-13
9.90826e-13
2.20304e-12
3.06353e-12
2.34477e-12
1.86909e-13
1.8954e-13
1.43179e-13
5.0759e-14
2.38448e-15
3.19364e-17
3.44217e-19
2.9525e-21
1.81117e-23
5.961e-26
2.64253e-15
1.28213e-14
4.5916e-14
1.04237e-13
1.67198e-13
2.43664e-13
4.7808e-13
7.63645e-13
7.42118e-13
3.9703e-14
2.98586e-14
1.99182e-14
5.93485e-15
2.49433e-16
3.2845e-18
3.47967e-20
2.91582e-22
1.74354e-24
5.62502e-27
2.18375e-16
1.27505e-15
5.76966e-15
1.81496e-14
3.15456e-14
4.40367e-14
6.76799e-14
1.13941e-13
1.1695e-13
6.28195e-15
3.91477e-15
2.33843e-15
6.07589e-16
2.31433e-17
3.02468e-19
3.16673e-21
2.60761e-23
1.52662e-25
4.8511e-28
1.52781e-17
1.06945e-16
5.96166e-16
2.46515e-15
4.83577e-15
6.50649e-15
7.70802e-15
1.20294e-14
1.29564e-14
7.88755e-16
4.33631e-16
2.37018e-16
5.48662e-17
1.91864e-18
2.50938e-20
2.60815e-22
2.12152e-24
1.22118e-26
3.84049e-29
9.02853e-19
7.67086e-18
5.22154e-17
2.70088e-16
6.16398e-16
8.33035e-16
7.91322e-16
9.99766e-16
1.07035e-15
8.1985e-17
4.13296e-17
2.10606e-17
4.40737e-18
1.43232e-19
1.88695e-21
1.95435e-23
1.57731e-25
8.96491e-28
2.80303e-30
4.44287e-20
4.66687e-19
3.99268e-18
2.45049e-17
6.65738e-17
9.42663e-17
7.59649e-17
7.20765e-17
6.93851e-17
7.2729e-18
3.44628e-18
1.65842e-18
3.17423e-19
9.69898e-21
1.29343e-22
1.33937e-24
1.0767e-26
6.06989e-29
1.89556e-31
1.86967e-21
2.42224e-20
2.61591e-19
1.88239e-18
6.22703e-18
9.4314e-18
6.90373e-18
4.86331e-18
3.7215e-18
5.64701e-19
2.55189e-19
1.16969e-19
2.06597e-20
6.00075e-22
8.12812e-24
8.44032e-26
6.78232e-28
3.81029e-30
1.19445e-32
6.90678e-23
1.09374e-21
1.46989e-20
1.23566e-19
5.0874e-19
8.33899e-19
6.05995e-19
3.18613e-19
1.77104e-19
3.91724e-20
1.70058e-20
7.46265e-21
1.22479e-21
3.41665e-23
4.71045e-25
4.91889e-27
3.96438e-29
2.23058e-31
7.05787e-34
2.31057e-24
4.591e-23
7.27429e-22
7.07493e-21
3.66579e-20
6.58462e-20
5.15494e-20
2.05038e-20
8.03847e-21
2.47051e-21
1.03252e-21
4.34701e-22
6.66509e-23
1.80274e-24
2.53265e-26
2.66718e-28
2.16339e-30
1.22572e-32
3.93847e-35
6.64907e-26
1.71735e-24
3.22647e-23
3.69961e-22
2.33577e-21
4.70399e-21
4.20137e-21
1.29525e-21
3.66212e-22
1.43849e-22
5.77825e-23
2.33299e-23
3.35584e-24
8.87611e-26
1.27138e-27
1.35434e-29
1.10955e-31
6.36776e-34
2.09113e-36
1.63592e-27
5.64489e-26
1.28126e-24
1.75195e-23
1.32825e-22
3.09288e-22
3.21886e-22
7.95711e-23
1.73048e-23
7.83634e-24
3.01269e-24
1.16359e-24
1.57566e-25
4.10655e-27
5.99909e-29
6.48536e-31
5.38791e-33
3.1525e-35
1.06468e-37
3.4596e-29
1.60823e-27
4.5251e-26
7.47879e-25
6.7708e-24
1.89692e-23
2.2975e-23
4.74458e-24
8.5226e-25
4.04421e-25
1.47872e-25
5.4406e-26
6.95447e-27
1.79761e-28
2.67939e-30
2.95035e-32
2.49702e-34
1.4999e-36
5.23827e-39
5.89165e-31
3.86348e-29
1.40927e-27
2.88107e-26
3.13338e-25
1.08524e-24
1.5299e-24
2.75083e-25
4.3084e-26
1.9998e-26
6.90217e-27
2.40524e-27
2.90814e-28
7.49771e-30
1.14122e-31
1.28538e-33
1.11417e-35
6.91939e-38
2.50909e-40
6.125e-33
6.84542e-31
3.55507e-29
9.45506e-28
1.26678e-26
5.51024e-26
9.09532e-26
1.48898e-26
2.10128e-27
9.19032e-28
2.97588e-28
9.77948e-29
1.12175e-29
2.89741e-31
4.50495e-33
5.20787e-35
4.64337e-37
2.99487e-39
1.1274e-41
)
;

boundaryField
{
    leftWall
    {
        type            zeroGradient;
    }
    rightWall
    {
        type            zeroGradient;
    }
    lowerWall
    {
        type            zeroGradient;
    }
    atmosphere
    {
        type            inletOutlet;
        inletValue      uniform 0;
        value           nonuniform List<scalar> 
46
(
0
0
0
0
0
0
0
0
0
0
0
0
0
0
0
0
0
0
0
0
0
0
0
0
0
0
0
6.125e-33
6.84542e-31
3.55507e-29
9.45506e-28
1.26678e-26
5.51024e-26
9.09532e-26
1.48898e-26
2.10128e-27
9.19032e-28
2.97588e-28
9.77948e-29
1.12175e-29
2.89741e-31
4.50495e-33
5.20787e-35
4.64337e-37
2.99487e-39
1.1274e-41
)
;
    }
    defaultFaces
    {
        type            empty;
    }
}


// ************************************************************************* //
