/*--------------------------------*- C++ -*----------------------------------*\
| =========                 |                                                 |
| \\      /  F ield         | OpenFOAM: The Open Source CFD Toolbox           |
|  \\    /   O peration     | Version:  3.0.1                                 |
|   \\  /    A nd           | Web:      www.OpenFOAM.org                      |
|    \\/     M anipulation  |                                                 |
\*---------------------------------------------------------------------------*/
FoamFile
{
    version     2.0;
    format      ascii;
    class       volScalarField;
    location    "0.00025";
    object      p;
}
// * * * * * * * * * * * * * * * * * * * * * * * * * * * * * * * * * * * * * //

dimensions      [1 -1 -2 0 0 0 0];

internalField   nonuniform List<scalar> 
1000
(
68969.4
68969.2
68968.7
68967.9
68966.6
68964.5
68961.1
68955.9
68948
68936
68918.2
68892.3
68855.1
68803
68731.3
68634.7
68507.5
68343.9
68138.9
67888.7
67591.6
67249
66866.3
66452.5
66021
65588.2
65172.6
64792.9
64465.6
64202.6
64009.4
63883.2
63813.8
63786.2
63782.3
63786.5
63789.9
63791.8
63792.7
63792.7
63792.3
63792.4
63792.1
63789.9
63787.1
63785
63783.1
63781
63778.9
63777.1
63776
63774.1
63777.4
63782.7
63783.3
63783.6
63784.9
63785.6
63786
63787.3
63788.6
63789.9
63791.2
63792
63793
63796.1
63803.4
63816.3
63831.2
63836.4
63813.4
63739.4
63592.5
63358
63033.6
62631
62174.2
61693.3
61218.9
60776.5
60383.7
60049.6
59775.8
59558.9
59391.9
59266.7
59175.1
59109.4
59063.3
59031.6
59010
58995.7
58986.3
58980.2
58976.3
58973.9
58972.4
58971.5
58970.9
58970.7
68969.4
68969.2
68968.7
68967.9
68966.6
68964.5
68961.1
68955.9
68948
68936
68918.2
68892.3
68855.1
68803
68731.3
68634.7
68507.5
68343.9
68138.9
67888.7
67591.6
67249
66866.3
66452.5
66021
65588.2
65172.6
64792.9
64465.6
64202.6
64009.4
63883.2
63813.9
63786.2
63782.3
63786.5
63789.9
63791.8
63792.6
63792.6
63792.2
63792.3
63792
63789.9
63787.2
63785
63783.1
63781.1
63778.9
63777.1
63775.9
63774.1
63777.4
63782.8
63783.4
63783.5
63784.7
63785.5
63786
63787.3
63788.5
63789.9
63791.3
63792.1
63793.1
63796.1
63803.4
63816.3
63831.2
63836.4
63813.4
63739.3
63592.5
63358
63033.5
62631
62174.2
61693.3
61218.9
60776.5
60383.7
60049.6
59775.8
59558.9
59391.9
59266.7
59175.1
59109.4
59063.3
59031.6
59010
58995.7
58986.3
58980.2
58976.3
58973.9
58972.4
58971.5
58970.9
58970.7
68969.4
68969.2
68968.7
68967.9
68966.6
68964.5
68961.1
68955.9
68948
68936
68918.2
68892.3
68855.1
68803
68731.3
68634.7
68507.5
68343.9
68138.9
67888.7
67591.6
67249
66866.3
66452.5
66021
65588.2
65172.6
64792.9
64465.6
64202.6
64009.4
63883.2
63813.9
63786.2
63782.3
63786.5
63789.9
63791.7
63792.5
63792.5
63791.9
63791.7
63791.6
63790.1
63787.6
63785.3
63783.4
63781.2
63779
63777.1
63776
63774.1
63777.4
63782.8
63783.4
63783.4
63784.7
63785.5
63786
63787.3
63788.5
63789.8
63791.3
63792.1
63793.1
63796.1
63803.4
63816.4
63831.1
63836.4
63813.4
63739.3
63592.4
63358
63033.5
62631
62174.2
61693.3
61218.9
60776.5
60383.7
60049.6
59775.8
59558.9
59391.9
59266.7
59175.1
59109.4
59063.3
59031.6
59010
58995.7
58986.3
58980.2
58976.3
58973.9
58972.4
58971.5
58970.9
58970.7
68969.4
68969.2
68968.7
68967.9
68966.6
68964.5
68961.1
68955.9
68948
68936
68918.2
68892.3
68855.1
68803
68731.3
68634.7
68507.5
68343.9
68138.9
67888.7
67591.6
67249
66866.2
66452.5
66021
65588.2
65172.6
64792.9
64465.6
64202.7
64009.4
63883.2
63814
63786.3
63782.3
63786.5
63789.8
63791.7
63792.5
63792.4
63791.8
63791.6
63791.5
63790.1
63787.6
63785.3
63783.4
63781.2
63779
63777.1
63775.8
63774.1
63777.4
63782.8
63783.4
63783.5
63784.7
63785.4
63786
63787.3
63788.5
63789.8
63791.3
63792.1
63793.2
63796.2
63803.4
63816.4
63831.1
63836.3
63813.3
63739.3
63592.4
63358
63033.5
62631
62174.2
61693.3
61218.9
60776.5
60383.7
60049.6
59775.8
59558.9
59391.9
59266.7
59175.1
59109.4
59063.3
59031.6
59010
58995.7
58986.3
58980.2
58976.3
58973.9
58972.4
58971.5
58970.9
58970.7
68969.4
68969.2
68968.7
68967.9
68966.6
68964.5
68961.1
68955.9
68948
68936
68918.2
68892.3
68855.1
68803
68731.3
68634.7
68507.5
68343.9
68138.9
67888.7
67591.6
67249
66866.2
66452.5
66021
65588.2
65172.6
64792.9
64465.5
64202.6
64009.4
63883.3
63814
63786.3
63782.3
63786.5
63789.9
63791.7
63792.5
63792.4
63791.8
63791.6
63791.5
63790.1
63787.6
63785.2
63783.3
63781.1
63778.9
63777
63775.8
63774
63777.4
63782.8
63783.5
63783.5
63784.7
63785.4
63786
63787.3
63788.5
63789.9
63791.3
63792.1
63793.2
63796.2
63803.4
63816.3
63831.1
63836.3
63813.3
63739.3
63592.4
63358
63033.6
62631.1
62174.2
61693.3
61218.9
60776.5
60383.7
60049.6
59775.8
59558.9
59391.9
59266.7
59175.1
59109.4
59063.3
59031.6
59010
58995.7
58986.3
58980.2
58976.3
58973.9
58972.4
58971.5
58970.9
58970.7
68969.4
68969.2
68968.7
68967.9
68966.6
68964.5
68961.1
68955.9
68948
68936
68918.2
68892.3
68855.1
68803
68731.3
68634.7
68507.5
68343.9
68139
67888.7
67591.6
67249
66866.2
66452.5
66021
65588.2
65172.6
64792.8
64465.5
64202.6
64009.4
63883.2
63814
63786.3
63782.3
63786.5
63789.9
63791.7
63792.5
63792.5
63792
63792.1
63791.9
63789.8
63787.1
63785
63783.1
63781.1
63778.9
63777
63775.8
63774
63777.4
63782.8
63783.5
63783.5
63784.7
63785.4
63786
63787.3
63788.5
63789.9
63791.3
63792.1
63793.2
63796.2
63803.4
63816.3
63831.1
63836.3
63813.3
63739.3
63592.4
63358
63033.6
62631.1
62174.2
61693.3
61218.9
60776.5
60383.7
60049.6
59775.8
59558.9
59391.9
59266.7
59175.1
59109.4
59063.3
59031.6
59010
58995.7
58986.3
58980.2
58976.3
58973.9
58972.4
58971.5
58970.9
58970.7
68969.4
68969.2
68968.7
68967.9
68966.6
68964.5
68961.1
68955.9
68948
68936
68918.2
68892.3
68855.1
68803
68731.3
68634.7
68507.5
68344
68139
67888.7
67591.6
67249
66866.3
66452.5
66021
65588.1
65172.5
64792.8
64465.5
64202.6
64009.3
63883.2
63813.9
63786.3
63782.3
63786.5
63789.9
63791.7
63792.5
63792.4
63791.9
63791.7
63791.5
63790.1
63787.6
63785.3
63783.3
63781.1
63778.9
63777
63775.8
63774
63777.4
63782.8
63783.5
63783.5
63784.7
63785.5
63786.1
63787.3
63788.5
63789.9
63791.3
63792.1
63793.1
63796.1
63803.4
63816.3
63831
63836.3
63813.3
63739.3
63592.4
63358
63033.6
62631.1
62174.2
61693.3
61218.9
60776.5
60383.7
60049.6
59775.8
59558.9
59391.9
59266.7
59175.1
59109.4
59063.3
59031.6
59010
58995.7
58986.3
58980.2
58976.3
58973.9
58972.4
58971.5
58970.9
58970.7
68969.4
68969.2
68968.7
68967.9
68966.6
68964.5
68961.1
68955.9
68948
68936
68918.2
68892.3
68855.1
68803
68731.3
68634.7
68507.5
68344
68139
67888.7
67591.6
67249
66866.3
66452.5
66021
65588.1
65172.5
64792.8
64465.4
64202.5
64009.3
63883.1
63813.8
63786.2
63782.3
63786.5
63789.9
63791.7
63792.5
63792.4
63791.8
63791.6
63791.5
63790.1
63787.7
63785.4
63783.5
63781.3
63779
63777.1
63775.9
63774.1
63777.4
63782.8
63783.4
63783.5
63784.7
63785.5
63786.1
63787.3
63788.5
63789.8
63791.3
63792
63793
63796
63803.3
63816.2
63831
63836.3
63813.3
63739.3
63592.5
63358
63033.6
62631.1
62174.2
61693.3
61218.9
60776.5
60383.7
60049.6
59775.8
59558.9
59391.9
59266.7
59175.1
59109.4
59063.3
59031.6
59010
58995.7
58986.3
58980.2
58976.3
58973.9
58972.4
58971.5
58970.9
58970.7
68969.4
68969.2
68968.7
68967.9
68966.6
68964.5
68961.1
68955.9
68948
68936
68918.2
68892.3
68855.1
68803
68731.3
68634.7
68507.5
68344
68139
67888.7
67591.6
67249
66866.3
66452.5
66021
65588.1
65172.5
64792.8
64465.4
64202.5
64009.2
63883
63813.7
63786.1
63782.2
63786.4
63789.9
63791.7
63792.6
63792.5
63791.9
63791.7
63791.6
63790.2
63787.7
63785.4
63783.5
63781.3
63779.1
63777.1
63775.9
63774.1
63777.4
63782.8
63783.5
63783.5
63784.7
63785.5
63786.1
63787.3
63788.5
63789.8
63791.2
63792
63793
63796
63803.3
63816.2
63831
63836.3
63813.3
63739.4
63592.5
63358.1
63033.6
62631.1
62174.3
61693.3
61218.9
60776.5
60383.7
60049.6
59775.8
59558.9
59391.9
59266.7
59175.1
59109.4
59063.3
59031.6
59010
58995.7
58986.3
58980.2
58976.3
58973.9
58972.4
58971.5
58970.9
58970.7
68969.4
68969.2
68968.7
68967.9
68966.6
68964.5
68961.1
68955.9
68948
68936
68918.2
68892.3
68855.1
68803
68731.3
68634.7
68507.5
68344
68139
67888.7
67591.6
67249
66866.3
66452.5
66021
65588.1
65172.5
64792.7
64465.4
64202.4
64009.2
63883
63813.7
63786.1
63782.2
63786.4
63789.9
63791.8
63792.6
63792.5
63792
63791.8
63791.6
63790.2
63787.8
63785.5
63783.6
63781.4
63779.1
63777.2
63776
63774.2
63777.5
63782.8
63783.5
63783.5
63784.7
63785.5
63786
63787.3
63788.5
63789.8
63791.1
63791.9
63792.9
63795.9
63803.2
63816.2
63831
63836.3
63813.4
63739.4
63592.5
63358.1
63033.7
62631.1
62174.3
61693.3
61218.9
60776.5
60383.7
60049.6
59775.8
59558.9
59391.9
59266.7
59175.1
59109.4
59063.3
59031.6
59010
58995.7
58986.3
58980.2
58976.3
58973.9
58972.4
58971.5
58970.9
58970.7
)
;

boundaryField
{
    sides1
    {
        type            zeroGradient;
    }
    sides2
    {
        type            slip;
    }
    empty
    {
        type            empty;
    }
}


// ************************************************************************* //
