/*--------------------------------*- C++ -*----------------------------------*\
| =========                 |                                                 |
| \\      /  F ield         | OpenFOAM: The Open Source CFD Toolbox           |
|  \\    /   O peration     | Version:  3.0.1                                 |
|   \\  /    A nd           | Web:      www.OpenFOAM.org                      |
|    \\/     M anipulation  |                                                 |
\*---------------------------------------------------------------------------*/
FoamFile
{
    version     2.0;
    format      ascii;
    class       volVectorField;
    location    "0.00025";
    object      U;
}
// * * * * * * * * * * * * * * * * * * * * * * * * * * * * * * * * * * * * * //

dimensions      [0 1 -1 0 0 0 0];

internalField   nonuniform List<vector> 
1000
(
(0.000846144 -9.28828e-09 0)
(0.00256174 -1.28729e-08 0)
(0.00474503 -1.99182e-08 0)
(0.00812168 -3.21434e-08 0)
(0.0134513 -5.22457e-08 0)
(0.0218643 -8.43883e-08 0)
(0.03503 -1.3473e-07 0)
(0.0553811 -2.12062e-07 0)
(0.0863976 -3.28482e-07 0)
(0.13295 -4.99961e-07 0)
(0.20169 -7.46518e-07 0)
(0.301454 -1.09158e-06 0)
(0.443625 -1.55992e-06 0)
(0.642362 -2.17344e-06 0)
(0.914579 -2.94404e-06 0)
(1.27954 -3.8631e-06 0)
(1.75793 -4.8877e-06 0)
(2.3703 -5.9249e-06 0)
(3.13489 -6.81726e-06 0)
(4.06486 -7.33452e-06 0)
(5.16524 -7.17916e-06 0)
(6.42996 -6.0061e-06 0)
(7.83933 -3.48538e-06 0)
(9.3588 6.28947e-07 0)
(10.9393 6.37176e-06 0)
(12.5197 1.30729e-05 0)
(14.0313 1.96116e-05 0)
(15.4051 2.46947e-05 0)
(16.5803 2.66396e-05 0)
(17.5142 2.34513e-05 0)
(18.1897 1.34952e-05 0)
(18.6199 -3.50453e-06 0)
(18.8452 -2.52387e-05 0)
(18.9262 -4.65723e-05 0)
(18.9291 -6.33119e-05 0)
(18.9086 -6.94333e-05 0)
(18.8924 -6.59086e-05 0)
(18.884 -5.27261e-05 0)
(18.8805 -2.75167e-05 0)
(18.8703 -3.10222e-06 0)
(18.8517 2.32243e-05 0)
(18.8391 6.27512e-05 0)
(18.8432 -2.9125e-05 0)
(18.8522 -0.000222826 0)
(18.8559 -0.00031725 0)
(18.8661 -0.000352297 0)
(18.8813 -0.000314385 0)
(18.9257 -0.000288431 0)
(18.9046 -0.000141074 0)
(18.9065 -0.00122283 0)
(19.3955 0.000545828 0)
(19.4606 0.00147365 0)
(19.0774 0.00112521 0)
(19.0502 -0.000305583 0)
(19.1956 -0.000723979 0)
(19.2103 -0.00103258 0)
(19.1958 -0.000686222 0)
(19.1934 0.000601944 0)
(19.1876 0.000789326 0)
(19.1922 0.000482458 0)
(19.2065 0.000270859 0)
(19.2079 0.000101461 0)
(19.2027 -2.12803e-05 0)
(19.2021 -6.5306e-05 0)
(19.2059 -2.73713e-05 0)
(19.2164 5.2398e-06 0)
(19.2413 2.94315e-05 0)
(19.2878 4.21846e-05 0)
(19.3477 4.42876e-05 0)
(19.3819 3.72882e-05 0)
(19.3284 2.34473e-05 0)
(19.0985 8.41131e-06 0)
(18.6045 -4.26516e-06 0)
(17.7797 -1.25741e-05 0)
(16.6 -1.59926e-05 0)
(15.0948 -1.55741e-05 0)
(13.3432 -1.26828e-05 0)
(11.4568 -8.72475e-06 0)
(9.55663 -4.72622e-06 0)
(7.75092 -1.52017e-06 0)
(6.12035 7.06009e-07 0)
(4.7125 1.98961e-06 0)
(3.54398 2.53012e-06 0)
(2.60732 2.56715e-06 0)
(1.87937 2.31284e-06 0)
(1.32905 1.9281e-06 0)
(0.923228 1.51853e-06 0)
(0.630642 1.14378e-06 0)
(0.424009 8.30501e-07 0)
(0.280836 5.84552e-07 0)
(0.183374 4.00461e-07 0)
(0.118117 2.67857e-07 0)
(0.0750974 1.75361e-07 0)
(0.0471447 1.12607e-07 0)
(0.0292233 7.10722e-08 0)
(0.017866 4.42089e-08 0)
(0.0107266 2.72401e-08 0)
(0.00623621 1.68323e-08 0)
(0.00335275 1.07636e-08 0)
(0.00110447 7.61782e-09 0)
(0.000846137 -2.61047e-08 0)
(0.00256172 -3.61931e-08 0)
(0.00474499 -5.60462e-08 0)
(0.00812161 -9.042e-08 0)
(0.0134512 -1.46957e-07 0)
(0.0218641 -2.3742e-07 0)
(0.0350297 -3.79221e-07 0)
(0.0553807 -5.9726e-07 0)
(0.086397 -9.25921e-07 0)
(0.132949 -1.4108e-06 0)
(0.201689 -2.1094e-06 0)
(0.301453 -3.0897e-06 0)
(0.443623 -4.42481e-06 0)
(0.642359 -6.18179e-06 0)
(0.914576 -8.40234e-06 0)
(1.27954 -1.10741e-05 0)
(1.75793 -1.40924e-05 0)
(2.3703 -1.72165e-05 0)
(3.13489 -2.00274e-05 0)
(4.06486 -2.1902e-05 0)
(5.16525 -2.20226e-05 0)
(6.42997 -1.9441e-05 0)
(7.83935 -1.32204e-05 0)
(9.35882 -2.63894e-06 0)
(10.9393 1.2438e-05 0)
(12.5197 3.0773e-05 0)
(14.0313 4.98981e-05 0)
(15.4051 6.58153e-05 0)
(16.5803 7.32828e-05 0)
(17.5142 6.71421e-05 0)
(18.1896 4.36687e-05 0)
(18.6198 2.74321e-06 0)
(18.8452 -5.07935e-05 0)
(18.9261 -0.000105411 0)
(18.9291 -0.000149986 0)
(18.9086 -0.000163323 0)
(18.8925 -0.000146692 0)
(18.8841 -9.86513e-05 0)
(18.8806 2.99619e-06 0)
(18.8704 0.000164963 0)
(18.8518 0.000453304 0)
(18.839 0.00138189 0)
(18.8426 0.00103869 0)
(18.8516 -0.000858819 0)
(18.8556 -0.00139892 0)
(18.866 -0.0007008 0)
(18.8812 -0.00051611 0)
(18.9256 0.000237578 0)
(18.9047 0.000373958 0)
(18.9086 0.000168106 0)
(19.3987 0.000134891 0)
(19.4622 0.000322183 0)
(19.0778 9.88863e-06 0)
(19.0487 -0.000651481 0)
(19.1945 -0.000796071 0)
(19.2114 -0.00121794 0)
(19.199 -0.00083152 0)
(19.196 0.000595185 0)
(19.1876 0.000726524 0)
(19.1913 0.000406956 0)
(19.2058 0.000234784 0)
(19.2074 6.43338e-05 0)
(19.2024 -7.98835e-05 0)
(19.2021 -0.000123596 0)
(19.206 -5.75717e-05 0)
(19.2165 1.39167e-05 0)
(19.2414 7.35627e-05 0)
(19.2878 0.000105646 0)
(19.3477 0.000107758 0)
(19.3819 8.71759e-05 0)
(19.3284 5.15532e-05 0)
(19.0985 1.26531e-05 0)
(18.6044 -1.90679e-05 0)
(17.7797 -3.90232e-05 0)
(16.6 -4.63573e-05 0)
(15.0949 -4.3381e-05 0)
(13.3432 -3.41757e-05 0)
(11.4568 -2.26848e-05 0)
(9.55665 -1.16676e-05 0)
(7.75093 -2.85298e-06 0)
(6.12036 3.09734e-06 0)
(4.7125 6.41287e-06 0)
(3.54398 7.68808e-06 0)
(2.60732 7.60258e-06 0)
(1.87937 6.75088e-06 0)
(1.32905 5.57513e-06 0)
(0.923227 4.36156e-06 0)
(0.630641 3.26849e-06 0)
(0.424008 2.36354e-06 0)
(0.280835 1.65782e-06 0)
(0.183373 1.13223e-06 0)
(0.118117 7.55142e-07 0)
(0.0750971 4.92997e-07 0)
(0.0471445 3.15683e-07 0)
(0.0292231 1.98658e-07 0)
(0.0178659 1.2318e-07 0)
(0.0107265 7.564e-08 0)
(0.00623618 4.65761e-08 0)
(0.00335273 2.97101e-08 0)
(0.00110447 2.11062e-08 0)
(0.000846125 -3.80442e-08 0)
(0.00256168 -5.26451e-08 0)
(0.00474492 -8.15969e-08 0)
(0.0081215 -1.31726e-07 0)
(0.013451 -2.14253e-07 0)
(0.0218638 -3.46498e-07 0)
(0.0350293 -5.54172e-07 0)
(0.05538 -8.74233e-07 0)
(0.086396 -1.35804e-06 0)
(0.132948 -2.07432e-06 0)
(0.201687 -3.11085e-06 0)
(0.30145 -4.57337e-06 0)
(0.443619 -6.57925e-06 0)
(0.642354 -9.243e-06 0)
(0.91457 -1.26505e-05 0)
(1.27953 -1.68195e-05 0)
(1.75792 -2.16454e-05 0)
(2.37029 -2.6838e-05 0)
(3.13488 -3.18565e-05 0)
(4.06485 -3.58637e-05 0)
(5.16525 -3.77235e-05 0)
(6.42998 -3.60854e-05 0)
(7.83937 -2.95495e-05 0)
(9.35885 -1.6959e-05 0)
(10.9394 2.12444e-06 0)
(12.5197 2.69698e-05 0)
(14.0313 5.48562e-05 0)
(15.4051 8.07119e-05 0)
(16.5803 9.79264e-05 0)
(17.5141 9.94064e-05 0)
(18.1895 7.93721e-05 0)
(18.6197 3.65921e-05 0)
(18.845 -2.4085e-05 0)
(18.926 -9.113e-05 0)
(18.929 -0.000148288 0)
(18.9086 -0.000170565 0)
(18.8925 -0.000161977 0)
(18.8842 -0.000121066 0)
(18.881 -2.3206e-05 0)
(18.8712 0.000132802 0)
(18.8539 0.000411967 0)
(18.8403 0.00130346 0)
(18.8387 0.00101656 0)
(18.8476 -0.000949598 0)
(18.8561 -0.00149901 0)
(18.8679 -0.000780379 0)
(18.8826 -0.000597692 0)
(18.9272 0.000201544 0)
(18.9046 0.000357363 0)
(18.9062 0.000180813 0)
(19.3955 0.000277863 0)
(19.4604 0.000430171 0)
(19.0764 0.000198044 0)
(19.0489 -0.000143571 0)
(19.1945 -0.000329342 0)
(19.2111 -0.000503726 0)
(19.1991 -0.000507273 0)
(19.196 -0.000296232 0)
(19.1875 -8.98883e-05 0)
(19.1914 -2.4542e-05 0)
(19.206 5.70263e-06 0)
(19.2075 -2.53643e-05 0)
(19.2024 -7.23956e-05 0)
(19.2022 -7.43742e-05 0)
(19.2062 -2.13722e-05 0)
(19.2166 4.5263e-05 0)
(19.2415 0.000100647 0)
(19.2878 0.000126336 0)
(19.3476 0.000117762 0)
(19.3818 8.42861e-05 0)
(19.3283 3.65107e-05 0)
(19.0984 -1.11495e-05 0)
(18.6044 -4.74014e-05 0)
(17.7797 -6.70903e-05 0)
(16.6 -7.05897e-05 0)
(15.0949 -6.16581e-05 0)
(13.3432 -4.57085e-05 0)
(11.4568 -2.78537e-05 0)
(9.55667 -1.19609e-05 0)
(7.75095 1.27543e-07 0)
(6.12037 7.88248e-06 0)
(4.71251 1.18438e-05 0)
(3.54398 1.29713e-05 0)
(2.60731 1.22798e-05 0)
(1.87937 1.06256e-05 0)
(1.32905 8.62497e-06 0)
(0.923224 6.66454e-06 0)
(0.630638 4.94771e-06 0)
(0.424006 3.55138e-06 0)
(0.280833 2.47582e-06 0)
(0.183372 1.68207e-06 0)
(0.118116 1.11666e-06 0)
(0.0750965 7.25892e-07 0)
(0.0471441 4.62898e-07 0)
(0.0292229 2.901e-07 0)
(0.0178658 1.79116e-07 0)
(0.0107265 1.09498e-07 0)
(0.00623612 6.71206e-08 0)
(0.0033527 4.26704e-08 0)
(0.00110446 3.0351e-08 0)
(0.000846109 -4.37329e-08 0)
(0.00256163 -6.04357e-08 0)
(0.00474483 -9.35577e-08 0)
(0.00812135 -1.51014e-07 0)
(0.0134508 -2.45739e-07 0)
(0.0218634 -3.97793e-07 0)
(0.0350287 -6.37136e-07 0)
(0.0553791 -1.00714e-06 0)
(0.0863947 -1.56869e-06 0)
(0.132946 -2.40425e-06 0)
(0.201684 -3.62112e-06 0)
(0.301446 -5.35191e-06 0)
(0.443614 -7.74995e-06 0)
(0.642347 -1.09762e-05 0)
(0.914561 -1.51739e-05 0)
(1.27952 -2.04279e-05 0)
(1.75791 -2.67063e-05 0)
(2.37028 -3.37885e-05 0)
(3.13487 -4.11862e-05 0)
(4.06485 -4.80761e-05 0)
(5.16525 -5.32686e-05 0)
(6.42999 -5.5253e-05 0)
(7.83939 -5.235e-05 0)
(9.35888 -4.30006e-05 0)
(10.9394 -2.61703e-05 0)
(12.5198 -1.75604e-06 0)
(14.0314 2.86529e-05 0)
(15.4052 6.16409e-05 0)
(16.5804 9.12011e-05 0)
(17.5141 0.000109806 0)
(18.1895 0.000110706 0)
(18.6196 9.07125e-05 0)
(18.8449 5.14837e-05 0)
(18.9259 9.07924e-07 0)
(18.9289 -4.76407e-05 0)
(18.9085 -7.70366e-05 0)
(18.8925 -9.04727e-05 0)
(18.8843 -8.76964e-05 0)
(18.8811 -6.41139e-05 0)
(18.8712 -4.92647e-05 0)
(18.854 -4.32937e-05 0)
(18.8401 -3.60897e-05 0)
(18.8381 -9.74231e-05 0)
(18.8469 -0.000236319 0)
(18.8557 -0.000257353 0)
(18.8678 -0.000245078 0)
(18.8826 -0.000186843 0)
(18.9272 -5.96281e-05 0)
(18.905 9.96243e-05 0)
(18.9085 -0.0010204 0)
(19.3989 0.000826293 0)
(19.4621 0.00161612 0)
(19.0771 0.00120496 0)
(19.0478 5.94329e-05 0)
(19.194 -0.000407031 0)
(19.2115 -0.000568983 0)
(19.1996 -0.000653354 0)
(19.1969 -0.000497916 0)
(19.1882 -0.000149521 0)
(19.1916 -1.17782e-05 0)
(19.2059 1.51062e-05 0)
(19.2074 7.1204e-06 0)
(19.2024 -9.5726e-06 0)
(19.2022 -5.59629e-06 0)
(19.2063 3.03993e-05 0)
(19.2167 6.92871e-05 0)
(19.2415 9.27935e-05 0)
(19.2878 9.07856e-05 0)
(19.3476 6.42236e-05 0)
(19.3817 2.39256e-05 0)
(19.3282 -2.20278e-05 0)
(19.0983 -6.10562e-05 0)
(18.6043 -8.55685e-05 0)
(17.7796 -9.26796e-05 0)
(16.6 -8.46335e-05 0)
(15.0949 -6.65288e-05 0)
(13.3433 -4.40873e-05 0)
(11.4569 -2.22937e-05 0)
(9.5567 -4.51285e-06 0)
(7.75097 7.892e-06 0)
(6.12038 1.51012e-05 0)
(4.71251 1.80543e-05 0)
(3.54398 1.80225e-05 0)
(2.60731 1.62126e-05 0)
(1.87936 1.35789e-05 0)
(1.32904 1.07757e-05 0)
(0.923219 8.18932e-06 0)
(0.630634 6.00321e-06 0)
(0.424003 4.2663e-06 0)
(0.280831 2.95039e-06 0)
(0.18337 1.99118e-06 0)
(0.118115 1.3144e-06 0)
(0.0750958 8.50197e-07 0)
(0.0471436 5.39734e-07 0)
(0.0292226 3.36827e-07 0)
(0.0178656 2.07112e-07 0)
(0.0107263 1.2609e-07 0)
(0.00623605 7.6979e-08 0)
(0.00335266 4.87749e-08 0)
(0.00110444 3.46491e-08 0)
(0.000846092 -4.27036e-08 0)
(0.00256158 -5.89914e-08 0)
(0.00474474 -9.12232e-08 0)
(0.0081212 -1.47264e-07 0)
(0.0134505 -2.39889e-07 0)
(0.021863 -3.89012e-07 0)
(0.0350281 -6.24611e-07 0)
(0.0553782 -9.9053e-07 0)
(0.0863933 -1.54909e-06 0)
(0.132944 -2.38617e-06 0)
(0.201681 -3.61601e-06 0)
(0.301442 -5.38427e-06 0)
(0.443608 -7.86717e-06 0)
(0.64234 -1.12636e-05 2.1289e-31)
(0.914551 -1.57765e-05 0)
(1.27951 -2.15791e-05 0)
(1.75789 -2.87641e-05 0)
(2.37026 -3.72746e-05 0)
(3.13485 -4.68211e-05 0)
(4.06483 -5.67964e-05 0)
(5.16524 -6.62071e-05 0)
(6.42998 -7.36465e-05 0)
(7.83939 -7.73569e-05 0)
(9.3589 -7.54214e-05 0)
(10.9395 -6.60517e-05 0)
(12.5198 -4.79728e-05 0)
(14.0315 -2.0744e-05 0)
(15.4052 1.45074e-05 0)
(16.5804 5.43462e-05 0)
(17.5142 9.36879e-05 0)
(18.1895 0.00012663 0)
(18.6196 0.000146996 2.11088e-31)
(18.8449 0.000151726 0)
(18.9258 0.000141532 0)
(18.9289 0.000120718 0)
(18.9085 9.80695e-05 0)
(18.8925 7.62841e-05 -2.07188e-31)
(18.8843 5.41824e-05 0)
(18.881 1.57752e-05 0)
(18.8712 -8.39611e-05 2.05797e-31)
(18.8539 -0.000315589 0)
(18.8401 -0.00110221 0)
(18.8382 -0.000840071 0)
(18.8472 0.000805125 -2.01338e-31)
(18.8558 0.00131442 0)
(18.8678 0.000736114 0)
(18.8825 0.0005271 0)
(18.9272 0.000460206 0)
(18.905 0.000393325 0)
(18.9085 0.000312529 0)
(19.3986 0.00023178 0)
(19.4616 0.000105191 0)
(19.0769 -5.24159e-05 0)
(19.0478 -0.000102313 0)
(19.194 -0.000145014 0)
(19.2115 -0.000258454 -1.08663e-31)
(19.1999 -0.00027574 1.07595e-31)
(19.1973 -0.000203601 0)
(19.1886 -8.8737e-05 0)
(19.1919 -1.57482e-05 -1.04306e-31)
(19.2061 2.84881e-05 0)
(19.2075 6.02637e-05 0)
(19.2024 7.88863e-05 0)
(19.2023 8.33572e-05 0)
(19.2063 8.17594e-05 0)
(19.2168 7.25463e-05 0)
(19.2415 5.04386e-05 0)
(19.2878 1.44651e-05 0)
(19.3475 -3.04184e-05 0)
(19.3816 -7.06211e-05 0)
(19.3281 -0.000102421 0)
(19.0982 -0.000120533 1.07045e-31)
(18.6043 -0.000122273 0)
(17.7797 -0.000109315 0)
(16.6001 -8.60373e-05 0)
(15.0949 -5.80971e-05 0)
(13.3433 -3.08627e-05 0)
(11.4569 -8.13288e-06 0)
(9.55673 8.40187e-06 0)
(7.75099 1.85645e-05 0)
(6.12039 2.32751e-05 0)
(4.71252 2.39582e-05 0)
(3.54398 2.20881e-05 0)
(2.60731 1.89008e-05 0)
(1.87936 1.5294e-05 0)
(1.32904 1.18361e-05 0)
(0.923214 8.82679e-06 0)
(0.63063 6.37684e-06 0)
(0.424 4.48032e-06 0)
(0.280829 3.07044e-06 0)
(0.183369 2.05725e-06 0)
(0.118114 1.35012e-06 -1.06624e-31)
(0.075095 8.69184e-07 0)
(0.0471431 5.49655e-07 -1.06606e-31)
(0.0292222 3.41915e-07 0)
(0.0178654 2.0966e-07 0)
(0.0107262 1.27329e-07 0)
(0.00623597 7.75622e-08 0)
(0.00335262 4.90553e-08 0)
(0.00110443 3.48501e-08 0)
(0.000846077 -3.69838e-08 0)
(0.00256154 -5.08852e-08 0)
(0.00474466 -7.85962e-08 0)
(0.00812106 -1.26886e-07 0)
(0.0134503 -2.06893e-07 0)
(0.0218627 -3.36122e-07 0)
(0.0350275 -5.41173e-07 0)
(0.0553773 -8.61421e-07 0)
(0.0863919 -1.3537e-06 0)
(0.132942 -2.09787e-06 0)
(0.201678 -3.20287e-06 0)
(0.301438 -4.8123e-06 0)
(0.443602 -7.10788e-06 0)
(0.642332 -1.03084e-05 -2.1289e-31)
(0.914541 -1.46609e-05 0)
(1.27949 -2.04197e-05 0)
(1.75788 -2.78092e-05 0)
(2.37024 -3.69685e-05 0)
(3.13483 -4.78746e-05 0)
(4.06481 -6.02493e-05 0)
(5.16521 -7.34586e-05 0)
(6.42996 -8.64193e-05 0)
(7.83938 -9.75353e-05 0)
(9.35891 -0.00010472 0)
(10.9395 -0.000105503 0)
(12.5199 -9.72576e-05 0)
(14.0315 -7.76412e-05 0)
(15.4053 -4.51904e-05 0)
(16.5805 6.4274e-07 0)
(17.5143 5.83864e-05 0)
(18.1896 0.000123588 0)
(18.6196 0.000188722 -2.11088e-31)
(18.8449 0.000246098 0)
(18.9258 0.0002879 0)
(18.9288 0.000309766 0)
(18.9084 0.00030847 0)
(18.8924 0.000294227 2.07196e-31)
(18.8841 0.000271243 0)
(18.8808 0.00023091 0)
(18.8706 0.000201801 -2.05691e-31)
(18.852 0.000180518 0)
(18.8389 0.000154732 0)
(18.8418 9.46744e-05 0)
(18.8507 7.01457e-05 2.02267e-31)
(18.8555 4.51506e-06 0)
(18.866 -5.82483e-05 0)
(18.8818 -8.84997e-05 0)
(18.927 -0.000165948 0)
(18.9049 -0.000137041 0)
(18.9084 -0.000107829 0)
(19.3985 0.000124638 0)
(19.4615 0.000185227 0)
(19.0768 0.000176218 0)
(19.0478 0.000192098 0)
(19.1939 0.000123355 0)
(19.2115 0.000217943 1.08662e-31)
(19.1999 0.000246923 -1.07603e-31)
(19.1973 0.00021666 0)
(19.1886 0.000175173 0)
(19.1919 0.000173191 1.04305e-31)
(19.2061 0.000170987 0)
(19.2076 0.000170818 0)
(19.2024 0.000182789 0)
(19.2022 0.000165755 0)
(19.2063 0.000118726 0)
(19.2167 5.56319e-05 0)
(19.2414 -1.33221e-05 0)
(19.2877 -7.84071e-05 0)
(19.3474 -0.000132684 0)
(19.3816 -0.000165505 0)
(19.3281 -0.000177155 0)
(19.0983 -0.000169055 -1.07045e-31)
(18.6043 -0.000145334 0)
(17.7797 -0.000111627 0)
(16.6001 -7.46528e-05 0)
(15.095 -3.99466e-05 0)
(13.3434 -1.13334e-05 0)
(11.457 9.47491e-06 0)
(9.55675 2.24398e-05 0)
(7.751 2.86763e-05 0)
(6.12039 2.99001e-05 0)
(4.71251 2.78815e-05 0)
(3.54397 2.41216e-05 0)
(2.6073 1.97328e-05 0)
(1.87935 1.54399e-05 0)
(1.32903 1.16431e-05 0)
(0.923209 8.50682e-06 0)
(0.630626 6.04557e-06 0)
(0.423997 4.1914e-06 0)
(0.280826 2.84136e-06 0)
(0.183367 1.8868e-06 0)
(0.118113 1.2291e-06 1.06624e-31)
(0.0750942 7.86389e-07 0)
(0.0471426 4.94701e-07 1.06606e-31)
(0.0292219 3.06349e-07 0)
(0.0178651 1.8711e-07 0)
(0.0107261 1.13228e-07 0)
(0.00623589 6.87494e-08 0)
(0.00335258 4.33776e-08 0)
(0.00110442 3.08389e-08 0)
(0.000846064 -2.87081e-08 0)
(0.0025615 -3.92955e-08 0)
(0.00474459 -6.05757e-08 0)
(0.00812095 -9.77539e-08 0)
(0.0134501 -1.59503e-07 0)
(0.0218624 -2.59571e-07 0)
(0.035027 -4.19075e-07 0)
(0.0553766 -6.69693e-07 0)
(0.0863908 -1.05791e-06 0)
(0.13294 -1.65041e-06 0)
(0.201676 -2.54051e-06 0)
(0.301434 -3.85525e-06 0)
(0.443597 -5.76212e-06 0)
(0.642325 -8.47394e-06 0)
(0.914531 -1.22491e-05 0)
(1.27948 -1.73837e-05 0)
(1.75786 -2.41911e-05 0)
(2.37022 -3.29638e-05 0)
(3.13481 -4.39118e-05 0)
(4.06478 -5.70763e-05 0)
(5.16518 -7.22136e-05 0)
(6.42993 -8.86588e-05 0)
(7.83936 -0.000105176 0)
(9.35889 -0.000119832 0)
(10.9395 -0.000129908 0)
(12.5199 -0.000131947 0)
(14.0316 -0.000121983 0)
(15.4054 -9.5898e-05 0)
(16.5806 -5.03304e-05 0)
(17.5144 1.62097e-05 0)
(18.1898 0.000102064 0)
(18.6198 0.000201718 0)
(18.845 0.000304242 0)
(18.9259 0.000396497 0)
(18.9289 0.000466051 0)
(18.9084 0.000495579 0)
(18.8924 0.000502065 0)
(18.8841 0.000496973 0)
(18.8809 0.000490503 0)
(18.8711 0.000567864 0)
(18.8538 0.000806669 0)
(18.84 0.00165334 0)
(18.8381 0.00136221 0)
(18.8471 -0.000336294 0)
(18.8557 -0.000838747 0)
(18.8678 -0.000240126 0)
(18.8826 6.14733e-05 0)
(18.9274 0.000167127 0)
(18.9049 0.000132762 0)
(18.9084 0.00126124 0)
(19.3991 -0.000505223 0)
(19.4618 -0.0012558 0)
(19.0765 -0.000922158 0)
(19.0475 0.000121306 0)
(19.1938 0.000354267 0)
(19.2114 0.000444646 0)
(19.1997 0.000540281 0)
(19.1971 0.000489425 0)
(19.1884 0.000295543 0)
(19.1918 0.000233718 0)
(19.206 0.000212997 0)
(19.2075 0.000196717 0)
(19.2024 0.000194591 0)
(19.2021 0.000155572 0)
(19.2061 7.92645e-05 0)
(19.2165 -1.17147e-05 0)
(19.2413 -0.00010133 0)
(19.2875 -0.000174001 0)
(19.3473 -0.000221118 0)
(19.3815 -0.000236276 0)
(19.3281 -0.000223753 0)
(19.0983 -0.000190956 0)
(18.6044 -0.000146394 0)
(17.7798 -9.87749e-05 0)
(16.6002 -5.45824e-05 0)
(15.0951 -1.84459e-05 0)
(13.3434 7.76772e-06 0)
(11.457 2.4238e-05 0)
(9.55677 3.24421e-05 0)
(7.751 3.44813e-05 0)
(6.12039 3.25139e-05 0)
(4.7125 2.83583e-05 0)
(3.54396 2.3359e-05 0)
(2.60729 1.83962e-05 0)
(1.87934 1.39633e-05 0)
(1.32902 1.02717e-05 0)
(0.923203 7.35263e-06 0)
(0.630622 5.13674e-06 0)
(0.423994 3.5105e-06 0)
(0.280824 2.35104e-06 0)
(0.183365 1.54514e-06 0)
(0.118112 9.97644e-07 0)
(0.0750935 6.33405e-07 0)
(0.0471422 3.95767e-07 0)
(0.0292216 2.43593e-07 0)
(0.017865 1.47946e-07 0)
(0.010726 8.90542e-08 0)
(0.00623583 5.38037e-08 0)
(0.00335254 3.38023e-08 0)
(0.0011044 2.3943e-08 0)
(0.000846056 -1.90228e-08 0)
(0.00256147 -2.59692e-08 0)
(0.00474454 -4.00757e-08 0)
(0.00812087 -6.48645e-08 0)
(0.01345 -1.06251e-07 0)
(0.0218622 -1.73711e-07 0)
(0.0350267 -2.8198e-07 0)
(0.0553761 -4.53488e-07 0)
(0.08639 -7.21725e-07 0)
(0.132939 -1.13573e-06 0)
(0.201674 -1.76585e-06 0)
(0.301431 -2.71061e-06 0)
(0.443593 -4.10458e-06 0)
(0.642319 -6.12594e-06 0)
(0.914523 -9.00247e-06 0)
(1.27947 -1.30129e-05 0)
(1.75785 -1.84797e-05 0)
(2.37021 -2.5748e-05 0)
(3.13478 -3.51438e-05 0)
(4.06475 -4.69048e-05 0)
(5.16515 -6.1076e-05 0)
(6.4299 -7.73692e-05 0)
(7.83932 -9.49926e-05 0)
(9.35886 -0.000112434 0)
(10.9394 -0.000127274 0)
(12.5199 -0.000136067 0)
(14.0316 -0.000134433 0)
(15.4055 -0.000117295 0)
(16.5808 -7.95409e-05 0)
(17.5146 -1.74151e-05 0)
(18.1899 6.97195e-05 0)
(18.62 0.000178002 0)
(18.8453 0.000297867 0)
(18.9261 0.000413859 0)
(18.929 0.000508727 0)
(18.9085 0.000554474 0)
(18.8924 0.000563527 0)
(18.8841 0.000540953 0)
(18.881 0.0004839 0)
(18.8712 0.000437028 0)
(18.8541 0.000412384 0)
(18.8402 0.000428732 0)
(18.838 0.000390984 0)
(18.8468 0.000251012 0)
(18.8559 9.67727e-05 0)
(18.8683 4.00213e-05 0)
(18.8832 8.80486e-05 0)
(18.9278 0.000106169 0)
(18.905 0.000118679 0)
(18.9063 0.000195311 0)
(19.3955 -2.3103e-05 0)
(19.4603 -0.000102791 0)
(19.0759 0.00010409 0)
(19.0482 0.000238197 0)
(19.1938 0.000181684 0)
(19.2109 0.000261577 0)
(19.1994 0.000340698 0)
(19.1966 0.000349275 0)
(19.188 0.000311817 0)
(19.1916 0.000309003 0)
(19.206 0.000263753 0)
(19.2075 0.00021627 0)
(19.2023 0.000188101 0)
(19.202 0.000122333 0)
(19.2059 3.52369e-05 0)
(19.2164 -6.30111e-05 0)
(19.2411 -0.000153869 0)
(19.2874 -0.000219447 0)
(19.3473 -0.000251745 0)
(19.3816 -0.000250116 0)
(19.3282 -0.000221236 0)
(19.0984 -0.000175799 0)
(18.6045 -0.000123904 0)
(17.7799 -7.43036e-05 0)
(16.6003 -3.24926e-05 0)
(15.0951 -1.21685e-06 0)
(13.3435 1.92749e-05 0)
(11.457 3.03356e-05 0)
(9.55677 3.4196e-05 0)
(7.751 3.32365e-05 0)
(6.12038 2.95271e-05 0)
(4.71249 2.46266e-05 0)
(3.54395 1.95743e-05 0)
(2.60728 1.49693e-05 0)
(1.87933 1.10855e-05 0)
(1.32902 7.98603e-06 0)
(0.923199 5.61552e-06 0)
(0.630618 3.86385e-06 0)
(0.423992 2.60643e-06 0)
(0.280823 1.72623e-06 0)
(0.183364 1.12372e-06 0)
(0.118111 7.19629e-07 0)
(0.075093 4.53672e-07 0)
(0.0471418 2.81726e-07 0)
(0.0292214 1.7246e-07 0)
(0.0178648 1.04227e-07 0)
(0.0107259 6.24533e-08 0)
(0.00623578 3.75752e-08 0)
(0.00335252 2.35276e-08 0)
(0.0011044 1.66108e-08 0)
(0.000846051 -1.01624e-08 0)
(0.00256146 -1.38038e-08 0)
(0.00474452 -2.14243e-08 0)
(0.00812082 -3.49362e-08 0)
(0.0134499 -5.76589e-08 0)
(0.021862 -9.49794e-08 0)
(0.0350265 -1.55378e-07 0)
(0.0553757 -2.51936e-07 0)
(0.0863895 -4.04485e-07 0)
(0.132938 -6.42579e-07 0)
(0.201673 -1.00945e-06 0)
(0.301429 -1.56706e-06 0)
(0.443591 -2.40215e-06 0)
(0.642315 -3.63299e-06 0)
(0.914518 -5.41584e-06 0)
(1.27946 -7.94947e-06 0)
(1.75783 -1.1475e-05 0)
(2.37019 -1.62671e-05 0)
(3.13477 -2.2611e-05 0)
(4.06473 -3.07591e-05 0)
(5.16512 -4.08605e-05 0)
(6.42987 -5.2857e-05 0)
(7.83929 -6.63348e-05 0)
(9.35882 -8.03523e-05 0)
(10.9394 -9.32643e-05 0)
(12.5199 -0.000102569 0)
(14.0316 -0.000104855 0)
(15.4055 -9.59487e-05 0)
(16.5808 -7.13301e-05 0)
(17.5147 -2.72299e-05 0)
(18.1901 3.81151e-05 0)
(18.6202 0.000122844 0)
(18.8455 0.000220298 0)
(18.9263 0.000318291 0)
(18.9292 0.000402041 0)
(18.9086 0.000445234 0)
(18.8924 0.000454926 0)
(18.884 0.000428581 0)
(18.8808 0.000357013 0)
(18.871 0.000280968 0)
(18.8538 0.000204112 0)
(18.84 0.000127134 0)
(18.8379 0.000116681 0)
(18.8465 8.36377e-05 0)
(18.8554 -1.64268e-05 0)
(18.8679 -9.26201e-05 0)
(18.8829 -0.000130373 0)
(18.9276 -0.000148089 0)
(18.9052 -6.74279e-05 0)
(18.9085 -0.000541549 0)
(19.3986 0.000321056 0)
(19.4619 0.00044964 0)
(19.0771 0.000397885 0)
(19.0478 0.000143053 0)
(19.1938 0.000123714 0)
(19.2115 0.000218431 0)
(19.1998 0.000244923 0)
(19.197 0.00028872 0)
(19.1884 0.000311796 0)
(19.1917 0.000315688 0)
(19.2058 0.000255022 0)
(19.2073 0.00019125 0)
(19.2022 0.00014826 0)
(19.2018 8.00726e-05 0)
(19.2057 7.36849e-06 0)
(19.2162 -7.09725e-05 0)
(19.241 -0.000139737 0)
(19.2874 -0.000184725 0)
(19.3473 -0.000201295 0)
(19.3816 -0.000191966 0)
(19.3283 -0.000163135 0)
(19.0985 -0.000123721 0)
(18.6046 -8.24471e-05 0)
(17.78 -4.48383e-05 0)
(16.6004 -1.49657e-05 0)
(15.0952 6.13787e-06 0)
(13.3435 1.89202e-05 0)
(11.457 2.49005e-05 0)
(9.55677 2.60155e-05 0)
(7.75099 2.41205e-05 0)
(6.12037 2.06937e-05 0)
(4.71249 1.67811e-05 0)
(3.54394 1.3027e-05 0)
(2.60727 9.76162e-06 0)
(1.87933 7.10164e-06 0)
(1.32901 5.03685e-06 0)
(0.923195 3.49342e-06 0)
(0.630616 2.37476e-06 0)
(0.42399 1.58491e-06 0)
(0.280821 1.03983e-06 0)
(0.183363 6.71275e-07 0)
(0.118111 4.26699e-07 0)
(0.0750927 2.67209e-07 0)
(0.0471416 1.64923e-07 0)
(0.0292213 1.00384e-07 0)
(0.0178648 6.03368e-08 0)
(0.0107258 3.59582e-08 0)
(0.00623575 2.1516e-08 0)
(0.0033525 1.34084e-08 0)
(0.00110439 9.50058e-09 0)
(0.000846049 -3.06222e-09 0)
(0.00256145 -4.12549e-09 0)
(0.0047445 -6.46157e-09 0)
(0.00812079 -1.06378e-08 0)
(0.0134498 -1.77088e-08 0)
(0.021862 -2.94018e-08 0)
(0.0350264 -4.84578e-08 0)
(0.0553756 -7.91409e-08 0)
(0.0863892 -1.27977e-07 0)
(0.132938 -2.04788e-07 0)
(0.201672 -3.24106e-07 0)
(0.301428 -5.07009e-07 0)
(0.443589 -7.83399e-07 0)
(0.642313 -1.19465e-06 0)
(0.914515 -1.7963e-06 0)
(1.27946 -2.66031e-06 0)
(1.75783 -3.87578e-06 0)
(2.37018 -5.54688e-06 0)
(3.13476 -7.78571e-06 0)
(4.06472 -1.06979e-05 0)
(5.16511 -1.43581e-05 0)
(6.42985 -1.87714e-05 0)
(7.83927 -2.38039e-05 0)
(9.3588 -2.91418e-05 0)
(10.9394 -3.42182e-05 0)
(12.5199 -3.81389e-05 0)
(14.0316 -3.95908e-05 0)
(15.4055 -3.69034e-05 0)
(16.5809 -2.83341e-05 0)
(17.5148 -1.23938e-05 0)
(18.1902 1.19937e-05 0)
(18.6204 4.44668e-05 0)
(18.8456 8.22869e-05 0)
(18.9264 0.000121361 0)
(18.9293 0.000156343 0)
(18.9086 0.000176297 0)
(18.8924 0.000184796 0)
(18.884 0.000180078 0)
(18.8807 0.000158837 0)
(18.8709 0.000139989 0)
(18.8538 0.000126901 0)
(18.8401 0.000127394 0)
(18.838 0.00015993 0)
(18.8465 0.000180064 0)
(18.8555 0.000201416 0)
(18.8679 0.000233132 0)
(18.883 0.000253975 0)
(18.9275 0.000274539 0)
(18.9051 0.000214721 0)
(18.9074 0.000736389 0)
(19.3967 -0.000179098 0)
(19.4604 -0.00080115 0)
(19.0764 -0.000734981 0)
(19.0484 -0.000117982 0)
(19.1943 0.000180378 0)
(19.2116 0.000179194 0)
(19.1998 0.000198235 0)
(19.1969 0.000220887 0)
(19.1882 0.000145789 0)
(19.1915 0.000112113 0)
(19.2057 8.90346e-05 0)
(19.2072 6.58254e-05 0)
(19.2021 4.68567e-05 0)
(19.2017 2.0328e-05 0)
(19.2056 -7.16045e-06 0)
(19.2161 -3.54668e-05 0)
(19.2409 -5.97149e-05 0)
(19.2873 -7.43191e-05 0)
(19.3473 -7.83347e-05 0)
(19.3816 -7.27693e-05 0)
(19.3283 -6.0486e-05 0)
(19.0986 -4.46914e-05 0)
(18.6047 -2.89071e-05 0)
(17.78 -1.49582e-05 0)
(16.6004 -4.03147e-06 0)
(15.0952 3.43585e-06 0)
(13.3435 7.75532e-06 0)
(11.457 9.59512e-06 0)
(9.55677 9.71702e-06 0)
(7.75099 8.82175e-06 0)
(6.12037 7.4454e-06 0)
(4.71248 5.95579e-06 0)
(3.54394 4.56911e-06 0)
(2.60727 3.3883e-06 0)
(1.87932 2.44224e-06 0)
(1.32901 1.71787e-06 0)
(0.923193 1.1827e-06 0)
(0.630615 7.98705e-07 0)
(0.423989 5.29942e-07 0)
(0.280821 3.45886e-07 0)
(0.183363 2.22267e-07 0)
(0.11811 1.40711e-07 0)
(0.0750925 8.77954e-08 0)
(0.0471415 5.40061e-08 0)
(0.0292212 3.27702e-08 0)
(0.0178647 1.96395e-08 0)
(0.0107258 1.16682e-08 0)
(0.00623574 6.95529e-09 0)
(0.00335249 4.30992e-09 0)
(0.00110439 3.05779e-09 0)
)
;

boundaryField
{
    sides1
    {
        type            zeroGradient;
    }
    sides2
    {
        type            slip;
    }
    empty
    {
        type            empty;
    }
}


// ************************************************************************* //
