# vtk DataFile Version 2.0
gauge_2
ASCII
DATASET POLYDATA
POINTS 43 double
0.2 0.0359992 0.005
0.2 0.0419991 0.005
0.2 0.047999 0.005
0.2 0.0607609 0.005
0.2 0.0735228 0.005
0.2 0.0862847 0.005
0.2 0.0990467 0.005
0.2 0.111809 0.005
0.2 0.124571 0.005
0.2 0.137332 0.005
0.2 0.150094 0.005
0.2 0.162856 0.005
0.2 0.175618 0.005
0.2 0.18838 0.005
0.2 0.201142 0.005
0.2 0.213904 0.005
0.2 0.226666 0.005
0.2 0.239428 0.005
0.2 0.25219 0.005
0.2 0.264952 0.005
0.2 0.277714 0.005
0.2 0.290476 0.005
0.2 0.303238 0.005
0.2 0.315999 0.005
0.2 0.328761 0.005
0.2 0.341523 0.005
0.2 0.354285 0.005
0.2 0.367047 0.005
0.2 0.379809 0.005
0.2 0.392571 0.005
0.2 0.405333 0.005
0.2 0.418095 0.005
0.2 0.430857 0.005
0.2 0.443619 0.005
0.2 0.456381 0.005
0.2 0.469143 0.005
0.2 0.481905 0.005
0.2 0.494666 0.005
0.2 0.507428 0.005
0.2 0.52019 0.005
0.2 0.532952 0.005
0.2 0.545714 0.005
0.2 0.558476 0.005
POINT_DATA 43
 FIELD attributes 1
alpha.water 1 43 float
1 0.948993 0.651784 0.175007 0.0665117 0.0585815 0.0506402 0.0412931 0.0478993 0.0325354 0.00626613 0.000328102 0.000528991 0.000246182 1.06657e-09 4.43168e-09 7.44979e-09 3.53881e-08 2.2522e-07 1.30226e-06 1.49009e-05 0.000152435 0.000366066 0.000489419 0.000539519 0.000565888 0.000574026 0.000543758 0.000449227 0.000191789 6.57214e-07 3.7167e-10 7.29941e-10 6.07611e-10 6.98797e-11 1.70948e-11 2.8748e-12 2.04828e-13 1.16658e-14 6.42227e-16 3.43404e-17 1.69017e-18 7.28855e-20
