/*--------------------------------*- C++ -*----------------------------------*\
| =========                 |                                                 |
| \\      /  F ield         | OpenFOAM: The Open Source CFD Toolbox           |
|  \\    /   O peration     | Version:  2012                                  |
|   \\  /    A nd           | Website:  www.openfoam.com                      |
|    \\/     M anipulation  |                                                 |
\*---------------------------------------------------------------------------*/
FoamFile
{
    version     2.0;
    format      ascii;
    class       volScalarField;
    location    "0.13";
    object      maxKappa;
}
// * * * * * * * * * * * * * * * * * * * * * * * * * * * * * * * * * * * * * //

dimensions      [0 0 0 0 0 0 0];


internalField   nonuniform List<scalar> 
2268
(
7.31337e-06
1.42714e-05
2.14675e-05
2.88404e-05
3.64465e-05
4.43586e-05
5.25705e-05
6.12505e-05
7.03405e-05
7.99392e-05
9.0195e-05
0.000101085
0.000112277
0.000123831
0.000135979
0.000148977
0.000162336
0.000176138
0.000182511
0.000182511
0.00017785
0.000178169
0.000235653
8.92314e-06
1.50731e-05
2.19947e-05
2.92297e-05
3.6755e-05
4.46125e-05
5.27859e-05
6.14381e-05
7.05112e-05
8.00979e-05
9.03392e-05
0.000101225
0.000112462
0.000124135
0.000136504
0.000149978
0.000163574
0.000176095
0.000181315
0.000181315
0.00017887
0.000206314
0.000325017
1.12616e-05
1.65324e-05
2.30033e-05
2.99877e-05
3.73597e-05
4.51118e-05
5.32098e-05
6.18056e-05
7.08434e-05
8.04075e-05
9.06211e-05
0.000101495
0.000112795
0.000124654
0.000137411
0.000151628
0.000165608
0.000176421
0.000180434
0.000181492
0.000195508
0.00044672
0.000602228
1.39501e-05
1.84718e-05
2.44258e-05
3.10846e-05
3.82459e-05
4.58492e-05
5.38397e-05
6.23527e-05
7.13369e-05
8.08692e-05
9.10465e-05
0.000101898
0.000113275
0.000125386
0.000138646
0.000153344
0.000167198
0.000176265
0.000181105
0.000217059
0.000569891
0.00159584
0.00159714
1.68162e-05
2.07339e-05
2.61765e-05
3.24707e-05
3.93802e-05
4.67979e-05
5.4651e-05
6.30553e-05
7.19626e-05
8.14505e-05
9.15841e-05
0.000102402
0.000113853
0.000126239
0.00014004
0.00015492
0.000167863
0.000175877
0.000216265
0.00062694
0.00214262
0.00442044
0.00442044
1.97822e-05
2.32169e-05
2.81861e-05
3.41058e-05
4.07399e-05
4.79457e-05
5.564e-05
6.39172e-05
7.2729e-05
8.21599e-05
9.22491e-05
0.000103037
0.000114586
0.000127297
0.000141666
0.000156286
0.000167822
0.000192516
0.000469804
0.00216759
0.00416655
0.00702366
0.00702366
2.27892e-05
2.58363e-05
3.03825e-05
3.59353e-05
4.2283e-05
4.92573e-05
5.67725e-05
6.49062e-05
7.36043e-05
8.29651e-05
9.30103e-05
0.000103784
0.000115434
0.000128443
0.000143146
0.000157017
0.000167137
0.000298721
0.00185587
0.00394483
0.00492818
0.00798006
0.00798006
2.58124e-05
2.85456e-05
3.27204e-05
3.79274e-05
4.39911e-05
5.0727e-05
5.8056e-05
6.60422e-05
7.46199e-05
8.39052e-05
9.39108e-05
0.000104681
0.000116457
0.000129789
0.000144463
0.000157072
0.000220538
0.0010926
0.00338429
0.00461844
0.00462627
0.00756795
0.00799723
0.000214429
0.000214429
0.000132277
0.000132277
6.51842e-05
0.000122139
0.000156659
0.000178144
0.000189552
0.000189552
0.000185663
0.000179775
0.000162732
0.000146799
0.000123642
0.000102238
7.65998e-05
5.23902e-05
2.61937e-05
0.000242273
0.000242273
0.000139741
0.000139741
6.94513e-05
0.00012906
0.000160804
0.000182059
0.000192759
0.000192759
0.000188462
0.000182082
0.000164779
0.000148659
0.000125458
0.000104257
7.88444e-05
5.64803e-05
3.16004e-05
0.000318849
0.000318849
0.000199276
0.000192007
0.000133558
0.000148324
0.000168565
0.000185382
0.000194231
0.000194231
0.000188581
0.000182352
0.000164847
0.000149185
0.000126164
0.000105665
8.07697e-05
6.03988e-05
3.70876e-05
0.000429041
0.000429041
0.000214333
0.000204226
0.000147414
0.000164735
0.000181136
0.000196986
0.00020374
0.00020374
0.000196795
0.000189099
0.000170852
0.000154622
0.000131469
0.000111389
8.70589e-05
6.90717e-05
4.8036e-05
0.000569746
0.000569746
0.00034031
0.000284501
0.00023094
0.000192617
0.000194737
0.000202603
0.000206491
0.000206491
0.000197135
0.000189755
0.000171112
0.000155708
0.000132892
0.000114003
9.05779e-05
7.45768e-05
5.53575e-05
0.000779025
0.000779025
0.000353727
0.000291458
0.000265035
0.000217503
0.000217503
0.000221809
0.000222183
0.000222183
0.000210522
0.000200671
0.000180838
0.000164423
0.000141361
0.00012274
9.998e-05
8.54694e-05
6.81374e-05
0.000975708
0.000975708
0.000535704
0.000394182
0.000357319
0.000249608
0.000249608
0.00023374
0.000228409
0.000225863
0.000211176
0.000201821
0.000181461
0.000166124
0.000143523
0.000126335
0.000104701
9.18537e-05
7.61371e-05
0.00131658
0.00131658
0.000573802
0.000414643
0.000414643
0.000292258
0.000285044
0.000266165
0.000255092
0.000247336
0.000229282
0.000216508
0.000194579
0.000177738
0.000154738
0.000137437
0.000116358
0.000104215
8.98073e-05
3.31101e-05
3.46085e-05
3.74769e-05
4.1534e-05
4.69705e-05
5.33419e-05
6.03691e-05
6.81176e-05
7.64925e-05
8.56294e-05
9.55442e-05
0.000106309
0.000118217
0.00013183
0.000145667
0.000168087
0.000446613
0.00262377
0.00418114
0.00418114
0.00415161
0.00771038
0.0114239
3.94374e-05
4.06857e-05
4.31626e-05
4.67178e-05
5.13033e-05
5.71905e-05
6.3788e-05
7.11893e-05
7.92735e-05
8.81607e-05
9.79258e-05
0.000108664
0.000120738
0.00013408
0.000145902
0.000317317
0.00237907
0.00396127
0.00409974
0.0036766
0.00368691
0.00758241
0.0114239
4.54599e-05
4.65319e-05
4.87181e-05
5.18882e-05
5.58185e-05
6.1264e-05
6.74546e-05
7.4507e-05
8.22942e-05
9.0903e-05
0.000100482
0.000111144
0.000123166
0.000135143
0.000250234
0.00168868
0.00357684
0.00389977
0.00354693
0.00266726
0.0033629
0.00708907
0.0108396
5.11287e-05
5.20712e-05
5.40316e-05
5.69033e-05
6.04695e-05
6.54088e-05
7.1222e-05
7.79425e-05
8.54158e-05
9.37573e-05
0.00010307
0.000113631
0.000125017
0.00015282
0.000548253
0.00297175
0.0036221
0.00348036
0.00271145
0.00190247
0.00286776
0.00589474
0.00957232
5.63952e-05
5.7241e-05
5.90177e-05
6.16537e-05
6.49134e-05
6.94731e-05
7.49546e-05
8.13545e-05
8.85151e-05
9.65843e-05
0.000105614
0.000115975
0.000126242
0.000262077
0.00192246
0.00339571
0.0036221
0.00267693
0.00176702
0.00212898
0.00279511
0.0047007
0.00781158
6.12218e-05
6.19926e-05
6.36174e-05
6.60603e-05
6.90698e-05
7.33346e-05
7.85254e-05
8.4605e-05
9.14883e-05
9.92527e-05
0.000108063
0.000117931
0.000131053
0.000383593
0.00278795
0.00340486
0.00293497
0.00159277
0.00210461
0.00230418
0.00283467
0.00355556
0.00589464
6.55732e-05
6.62846e-05
6.77828e-05
7.00577e-05
7.28712e-05
7.69325e-05
8.18697e-05
8.76447e-05
9.42678e-05
0.000101705
0.000110338
0.00011941
0.000216247
0.00148126
0.00314042
0.00340486
0.00235629
0.00165139
0.00224727
0.00235198
0.00283467
0.00292045
0.00439222
6.94206e-05
7.00869e-05
7.14732e-05
7.36061e-05
7.62619e-05
8.01588e-05
8.48382e-05
9.03474e-05
9.67119e-05
0.000103904
0.000112326
0.000120695
0.000291681
0.00228439
0.00326612
0.00287481
0.00149612
0.00201318
0.00224727
0.0022717
0.00273838
0.0024422
0.00344762
7.27402e-05
7.338e-05
7.46561e-05
7.66858e-05
7.92377e-05
8.3012e-05
8.74498e-05
9.27362e-05
9.87918e-05
0.000105764
0.00011376
0.00013749
0.00052153
0.00279968
0.00326612
0.0023236
0.0016258
0.00206531
0.00222546
0.00214448
0.00254365
0.00216518
0.00280928
7.55214e-05
7.61476e-05
7.73098e-05
7.92708e-05
8.17871e-05
8.53439e-05
8.952e-05
9.45554e-05
0.000100285
0.000107072
0.000114634
0.00021253
0.00148364
0.00303625
0.00313756
0.00174526
0.0021226
0.00197165
0.00218115
0.00198161
0.00233556
0.00194259
0.00238154
7.77661e-05
7.83822e-05
7.94363e-05
8.13339e-05
8.38405e-05
8.71925e-05
9.11671e-05
9.59481e-05
0.000101409
0.000107884
0.000115064
0.00026999
0.00208687
0.00312737
0.00260816
0.00148247
0.0021226
0.00192154
0.00212172
0.00185973
0.00214954
0.00181414
0.00207986
7.96176e-05
8.02362e-05
8.12291e-05
8.31943e-05
8.53452e-05
8.9103e-05
9.33691e-05
0.000101154
0.000111062
0.000143321
0.000182732
0.000340689
0.00250028
0.00312737
0.00207862
0.00167762
0.00207755
0.00178187
0.00200598
0.00174105
0.00197076
0.00167449
0.00185829
0.000112465
0.000115828
0.000120605
0.000131823
0.000143526
0.000167632
0.000193827
0.00025396
0.000338423
0.000761516
0.00110978
0.00170873
0.00285558
0.00305486
0.0017312
0.00170714
0.0018539
0.00168718
0.00185736
0.00165145
0.00181034
0.00157875
0.00168307
0.000621404
0.000651887
0.000694329
0.000794044
0.000893093
0.00108262
0.00125494
0.00155863
0.00164996
0.00209551
0.0025833
0.0029925
0.0029925
0.0029227
0.00128907
0.00179276
0.00168965
0.00164714
0.00173615
0.00158804
0.00168018
0.00148661
0.0015449
0.0015639
0.00158802
0.00163844
0.0017495
0.00187228
0.00203398
0.00220207
0.00220207
0.00214655
0.00230894
0.00249846
0.0026769
0.00272105
0.00256595
0.00134574
0.00196115
0.0017839
0.00168504
0.00166297
0.00156071
0.0015745
0.00142402
0.001432
0.00162467
0.00163601
0.00166145
0.00169181
0.00174213
0.00181796
0.00194355
0.00215703
0.00235982
0.00250539
0.00262131
0.00261061
0.00232194
0.00221205
0.00151276
0.00209951
0.00187789
0.00170929
0.00164118
0.00152458
0.00149035
0.00135676
0.00134071
0.00163721
0.00165829
0.00168666
0.00173088
0.00178998
0.00188073
0.00199974
0.00219059
0.00240499
0.00256843
0.00278703
0.00241635
0.00195462
0.00177119
0.00192136
0.00221239
0.00197966
0.00174379
0.00163348
0.00149501
0.00142203
0.00130386
0.00126291
0.00162342
0.00163009
0.00166036
0.00169605
0.00175979
0.0018629
0.00200372
0.00223827
0.00252136
0.00277388
0.00293395
0.00278293
0.00209333
0.00161211
0.0025902
0.00230395
0.00210752
0.00181251
0.00161099
0.00146292
0.00136165
0.00124249
0.00119449
0.00158339
0.00159195
0.00162584
0.00166902
0.00173489
0.00183707
0.00197565
0.00219782
0.00250764
0.00279664
0.00295386
0.00295386
0.0026273
0.0026043
0.00271188
0.00251541
0.00210991
0.00178158
0.00156177
0.00141128
0.00130305
0.00118478
0.00112931
0.00152837
0.00154057
0.00157549
0.00160063
0.00167309
0.00174139
0.00186451
0.00203831
0.00230216
0.00260939
0.00286639
0.00292817
0.00287539
0.0028513
0.00271188
0.00231885
0.00193155
0.00163774
0.00147746
0.00131467
0.00122804
0.00110642
0.00106301
0.00147356
0.00148057
0.00151045
0.00153135
0.00159657
0.00164382
0.00175661
0.0018497
0.00205425
0.00228492
0.00257916
0.00274563
0.00274825
0.00263227
0.00239263
0.00202212
0.00170885
0.00148544
0.00135885
0.00121843
0.00113733
0.00103262
0.000990746
0.00140778
0.00141195
0.00143798
0.00145452
0.00151008
0.0015452
0.00163718
0.00170141
0.00183603
0.00197094
0.00216275
0.00233252
0.00234048
0.0022339
0.00201668
0.00170451
0.0014914
0.00133008
0.00124199
0.00110892
0.001051
0.000955302
0.000921219
0.00133228
0.00133596
0.0013572
0.00136907
0.00141311
0.0014379
0.0015088
0.00155325
0.00164519
0.0017141
0.00181255
0.00188698
0.00189972
0.00182602
0.00165437
0.00145962
0.00132145
0.00120302
0.00113051
0.00101907
0.000971249
0.000887594
0.000855676
0.0012582
0.0012604
0.00127668
0.00128322
0.00131599
0.00132946
0.00138038
0.00140563
0.00146861
0.00150479
0.00155725
0.00158223
0.00156113
0.0015123
0.00138854
0.00127726
0.00117354
0.00108631
0.00102436
0.000922931
0.000893378
0.00081398
0.000791918
0.00118264
0.00118365
0.0011962
0.00119926
0.00122404
0.0012292
0.00126464
0.00127293
0.00131213
0.0013243
0.00135082
0.0013538
0.00132477
0.00128286
0.0011922
0.00112092
0.00103706
0.000977131
0.000920773
0.000840244
0.000817985
0.000748672
0.00073148
0.00110715
0.00110713
0.00111633
0.00111609
0.00113434
0.0011334
0.00115786
0.00115581
0.00117876
0.00117591
0.00118295
0.00117409
0.00113925
0.00110683
0.00103771
0.000988801
0.000921819
0.000879796
0.000825573
0.000765494
0.00074664
0.000686456
0.00067388
0.00103638
0.00103525
0.00104119
0.00103746
0.00104918
0.00104262
0.00105756
0.00104821
0.00105969
0.00104882
0.00104476
0.00103097
0.000996817
0.000968362
0.000913243
0.000875679
0.000821408
0.000788308
0.000737473
0.000696073
0.000676915
0.000627272
0.000618554
0.000968272
0.000966576
0.000970441
0.000964699
0.000971847
0.000961603
0.000969171
0.000954903
0.000957313
0.000941708
0.000929666
0.000912244
0.000878907
0.000852975
0.000807809
0.000776981
0.000732845
0.000704865
0.000661071
0.00063272
0.000611789
0.000573057
0.000566401
0.000905152
0.000902778
0.000904464
0.000896911
0.000899936
0.000887002
0.000888783
0.00087159
0.000867433
0.000848896
0.000832447
0.000812979
0.000781295
0.000756997
0.000718279
0.000691446
0.000654074
0.000629375
0.000592774
0.000572069
0.000550354
0.000522055
0.000515987
0.000847285
0.000844449
0.000844481
0.000835619
0.000835311
0.000820469
0.00081761
0.000798509
0.000789414
0.00076888
0.000749203
0.000728016
0.000698018
0.000674085
0.00064001
0.000615591
0.000583249
0.000561261
0.000531254
0.000514911
0.000494562
0.00047475
0.000468574
0.000794096
0.000790973
0.000789625
0.00077994
0.000776854
0.000760878
0.000754274
0.000733893
0.000721058
0.000699088
0.000677726
0.000655087
0.000626023
0.000602449
0.000571454
0.000548516
0.000519826
0.000500055
0.000474914
0.000461074
0.000443011
0.000429431
0.000423315
0.000746687
0.00074327
0.000740707
0.000730285
0.000724856
0.000707972
0.000698377
0.000677044
0.000661419
0.000638114
0.000615283
0.000591492
0.0005635
0.000539508
0.000510558
0.000488313
0.000462412
0.000444106
0.000422785
0.000410681
0.000395513
0.000386318
0.000381082
0.000704003
0.000700432
0.000696895
0.000686075
0.000678721
0.000661314
0.000649275
0.000627183
0.000609332
0.000585016
0.000561244
0.000536158
0.00050827
0.000483883
0.000456212
0.000434363
0.000410208
0.000393006
0.000374337
0.00036363
0.000351189
0.000345094
0.00034123
0.000666747
0.000663009
0.000658596
0.000647356
0.000638343
0.000620412
0.000606336
0.000583518
0.000563894
0.000538405
0.000513617
0.000487479
0.000459877
0.000434648
0.000407566
0.000385451
0.000362465
0.000345834
0.000329058
0.000319445
0.000309546
0.000305831
0.000303849
0.000634125
0.000630288
0.000625148
0.000613665
0.000603287
0.000584974
0.000569219
0.000545773
0.000524619
0.000498217
0.000472546
0.000445091
0.000416938
0.000390705
0.00036368
0.000341104
0.000318588
0.000302102
0.000286545
0.000277873
0.000270121
0.000268449
0.000268552
0.000606466
0.000602506
0.000596712
0.000584922
0.000573347
0.000554601
0.000537403
0.000513268
0.00049078
0.000463248
0.000436546
0.000407927
0.000379352
0.000351886
0.00032446
0.000300804
0.000278199
0.000261329
0.000246529
0.000238494
0.000232669
0.000232871
0.000235322
0.000583247
0.00057918
0.000572818
0.000560785
0.000548214
0.000529093
0.000510679
0.000485955
0.000462292
0.000433878
0.00040618
0.00037615
0.000346542
0.000317509
0.000289175
0.000264167
0.000240887
0.000223198
0.000208565
0.00020097
0.000196828
0.000198957
0.000203951
0.000564675
0.000560442
0.000553524
0.000541154
0.000527661
0.000508078
0.000488567
0.000463213
0.000438396
0.000411105
0.000382122
0.000351812
0.000320132
0.000288535
0.000258279
0.000231384
0.000206811
0.000187603
0.00017256
0.000165059
0.000162542
0.000166791
0.000174672
0.000550446
0.000546062
0.000538669
0.000525996
0.000511725
0.00049321
0.000472552
0.000448693
0.000422055
0.00039317
0.000362416
0.000330738
0.000298296
0.00026596
0.000233854
0.000203152
0.000175814
0.000154407
0.00013814
0.000130331
0.00012948
0.000136311
0.000147559
0.000540602
0.000536104
0.000528361
0.000515436
0.000500777
0.000482812
0.000461584
0.000437224
0.000410182
0.000380848
0.000349477
0.000316709
0.000282785
0.00024863
0.000214523
0.000181539
0.000150221
0.000124278
0.000105659
9.68125e-05
9.78645e-05
0.000108149
0.000123496
0.000534635
0.000530217
0.000522515
0.0005122
0.000498033
0.000479854
0.000458188
0.000433132
0.000405148
0.000374647
0.000342035
0.000307976
0.00027276
0.000237127
0.000201273
0.000166054
0.000131834
9.99119e-05
7.46688e-05
6.3658e-05
6.77438e-05
8.32151e-05
0.000103465
0.000531645
0.000527222
0.000519368
0.000508741
0.000494421
0.000476249
0.000454735
0.00042995
0.00040232
0.000372167
0.000339816
0.000305824
0.000270448
0.000234396
0.000197855
0.000161546
0.000125616
9.07448e-05
5.739e-05
3.22713e-05
4.35155e-05
7.04541e-05
8.96394e-05
0.00562669
0.003454
0.000995726
0.00220992
0.0086695
0.00560823
0.0023096
0.00220992
0.00871546
0.00700885
0.00472081
0.00269503
0.00871546
0.00700885
0.00513169
0.00381583
0.00760647
0.00653515
0.00513169
0.00381583
0.00599674
0.00542642
0.00463888
0.00377906
0.0043878
0.00405526
0.00370241
0.00324292
0.00324808
0.00301162
0.00283415
0.00260947
0.00255497
0.00241487
0.00228506
0.00214888
0.00211314
0.00205018
0.0019358
0.00185869
0.00181696
0.00180063
0.00168723
0.00164637
0.001614
0.0016239
0.00151388
0.00149585
0.00146278
0.00148545
0.00137966
0.00137492
0.00135628
0.00137921
0.00128068
0.0012825
0.00127271
0.00128684
0.00119937
0.00120054
0.0012058
0.00120927
0.00113445
0.00113002
0.00114303
0.00114014
0.00107405
0.00106532
0.00108567
0.00107842
0.00101959
0.00100731
0.0010275
0.00101846
0.000965067
0.000951024
0.000970021
0.000960149
0.000912599
0.000897786
0.000910745
0.000899635
0.000858666
0.000843947
0.000854151
0.000842858
0.000808138
0.000794505
0.00079867
0.000787668
0.000758073
0.000745633
0.000743184
0.000733659
0.000708624
0.000698006
0.00068988
0.000682275
0.000661009
0.000652203
0.000638071
0.000632388
0.000614259
0.000607336
0.000588054
0.00058431
0.000568901
0.000563996
0.000540822
0.000538624
0.00052559
0.000522546
0.000495552
0.00049441
0.000483817
0.000482372
0.000453177
0.00045257
0.000444463
0.000444112
0.000412632
0.000412282
0.000406718
0.000407033
0.000374356
0.000374332
0.000371116
0.000371875
0.000337742
0.000338213
0.000337023
0.000338288
0.00030302
0.000304234
0.000304784
0.000306751
0.000270023
0.00027215
0.000274206
0.000277083
0.000238899
0.000242105
0.000245545
0.000249493
0.000209601
0.000214019
0.000218776
0.000223928
0.000182488
0.000188256
0.000194339
0.000200783
0.000157748
0.000164998
0.000172432
0.000180229
0.000136298
0.000145122
0.000153905
0.000163024
0.000118968
0.000129328
0.000139338
0.000149635
0.000107363
0.000118893
0.000129786
0.000140886
0.00193808
0.00162771
0.00100737
0.000633024
0.000539138
0.000386664
0.000369846
0.00029252
0.000301396
0.000253448
0.000249869
0.000218771
0.000204083
0.000181268
0.000162571
0.000144354
0.000128183
0.000115195
0.000107097
0.00122176
0.00133551
0.00130997
0.000967267
0.000717837
0.000536939
0.000443846
0.000394167
0.000346485
0.000318206
0.000284381
0.000261828
0.000233994
0.000213812
0.000189973
0.000173141
0.000154287
0.000144003
0.00013301
0.00228112
0.00166853
0.00143448
0.00110446
0.000798579
0.000604309
0.000505605
0.000414241
0.000373516
0.000324628
0.000295515
0.000267635
0.000240289
0.00022304
0.00020113
0.000187338
0.000171069
0.000162907
0.000153974
0.00300499
0.00267405
0.00199208
0.00148502
0.0010688
0.000820218
0.000642713
0.000537484
0.000451764
0.000399101
0.000349708
0.000316771
0.000283278
0.000259625
0.000235185
0.000218331
0.000201464
0.00019208
0.000183479
0.00300499
0.00281695
0.00196823
0.00142864
0.00103413
0.000805951
0.00063836
0.000540949
0.000457466
0.000407729
0.000359034
0.000328463
0.00029613
0.000274928
0.000252287
0.000237676
0.000222734
0.0002147
0.000207409
0.00296533
0.00262004
0.00194127
0.00147324
0.00112624
0.000905951
0.000735795
0.000622337
0.000530014
0.000466357
0.000410973
0.00037141
0.000335223
0.000308839
0.000284377
0.000267025
0.000251519
0.000242213
0.000235053
0.00260204
0.00231222
0.00178521
0.0013869
0.00109929
0.000899152
0.000741976
0.000635408
0.000545037
0.000483909
0.000428671
0.000390724
0.000354928
0.000329963
0.000306417
0.000290327
0.000275901
0.000267362
0.000260881
0.00217117
0.00195678
0.00161989
0.00132175
0.00109467
0.000917713
0.000775996
0.000670921
0.000583909
0.000518959
0.000463753
0.000421733
0.000385504
0.000357615
0.000333781
0.000315922
0.000301472
0.00029199
0.000285747
0.00183702
0.00178889
0.00152001
0.00126657
0.00107313
0.000911296
0.00078446
0.000684496
0.000602056
0.000538967
0.000484872
0.000443891
0.000407984
0.000380982
0.000357552
0.000340443
0.000326505
0.000317474
0.000311567
0.00161179
0.00157793
0.001386
0.00119053
0.00103643
0.000897236
0.000787967
0.000694583
0.000619679
0.000557444
0.000506606
0.000464735
0.000430369
0.000402258
0.00037964
0.000361659
0.000348201
0.000338604
0.000333058
0.00148547
0.00148547
0.0013246
0.00115399
0.00101692
0.000890026
0.000790978
0.000703503
0.000633489
0.000573983
0.000525168
0.000484703
0.000451184
0.000423982
0.000401855
0.000384538
0.000371444
0.000362235
0.000356884
0.00135077
0.00135077
0.00122243
0.00108368
0.000972771
0.000864917
0.000779772
0.000700674
0.000638251
0.000581941
0.000537279
0.000497808
0.000466598
0.000439539
0.000418717
0.000401248
0.000388896
0.000379458
0.000374536
0.00129164
0.00129164
0.00117979
0.00105647
0.000955421
0.00085682
0.000778167
0.000704758
0.000646281
0.000593289
0.000550809
0.000513279
0.000483256
0.000457399
0.000437266
0.000420579
0.000408636
0.000399645
0.000394886
0.00119701
0.00119701
0.0010997
0.000995176
0.000911249
0.000826758
0.000759363
0.000694129
0.000642482
0.000593747
0.000555427
0.00052
0.000492505
0.000467639
0.000449007
0.000432721
0.000421631
0.000412704
0.000408388
0.001153
0.001153
0.00106593
0.000971574
0.00089488
0.000817235
0.00075445
0.000693971
0.000645474
0.000599988
0.000563728
0.000530447
0.00050426
0.000480797
0.000462983
0.000447603
0.000436986
0.000428578
0.000424427
0.00107985
0.00107985
0.00100034
0.000918093
0.000851899
0.000784814
0.000731086
0.000677798
0.000635485
0.000594489
0.000562239
0.000531619
0.000507995
0.000486051
0.000469821
0.000455235
0.000445523
0.000437421
0.000433707
0.00104047
0.00104047
0.000968824
0.000895537
0.000834956
0.00077318
0.000723344
0.000674002
0.000634311
0.000596209
0.000565852
0.000537311
0.000514995
0.000494493
0.000479127
0.000465493
0.000456283
0.000448727
0.000445174
0.000978097
0.000978097
0.000912269
0.00084699
0.000793358
0.00073981
0.000696781
0.000653789
0.000619631
0.000585904
0.000559346
0.000533679
0.000513902
0.000495209
0.000481462
0.00046888
0.00046061
0.000453548
0.000450433
0.00093934
0.00093934
0.000880527
0.000822568
0.000774117
0.000725727
0.00068606
0.000646685
0.000614871
0.000583713
0.000558927
0.00053518
0.000516667
0.000499356
0.000486466
0.000474808
0.000467031
0.000460482
0.00045749
0.000883485
0.000883485
0.000829261
0.000778014
0.000734702
0.000692604
0.000658013
0.000623988
0.000596659
0.000569742
0.000548425
0.000527602
0.000511542
0.000496153
0.000484878
0.000474413
0.000467599
0.000461684
0.000459194
0.0008421
0.0008421
0.00079449
0.00075038
0.000712068
0.000675193
0.000644064
0.000613676
0.000588617
0.000564176
0.000544501
0.000525509
0.000510664
0.000496605
0.00048617
0.00047658
0.000470239
0.000464759
0.000462265
0.000792187
0.000792187
0.0007489
0.000709932
0.000675703
0.000643647
0.000616447
0.000590356
0.000568872
0.000548003
0.000531277
0.000515009
0.000502402
0.000490269
0.000481383
0.00047306
0.000467684
0.000462946
0.000460914
0.00074883
0.00074883
0.000711812
0.000678898
0.000649741
0.000622568
0.000599047
0.000576567
0.00055763
0.000539323
0.00052435
0.000509895
0.000498501
0.000487638
0.000479561
0.000472054
0.000467117
0.000462778
0.000460888
0.000701853
0.000701853
0.000669914
0.00064168
0.000616384
0.000593047
0.000572836
0.000553756
0.000537735
0.000522349
0.000509843
0.000497744
0.000488294
0.000479192
0.000472519
0.00046621
0.000462152
0.000458507
0.000457039
0.000660354
0.000660354
0.000633279
0.000609777
0.000588827
0.000569674
0.000552994
0.000537251
0.000523855
0.000510975
0.000500339
0.000490049
0.000481891
0.000474046
0.000468219
0.000462728
0.000459162
0.000455976
0.000454675
0.000614952
0.000614952
0.000593046
0.000574112
0.000557094
0.00054155
0.000528007
0.000515223
0.000504396
0.000493989
0.000485473
0.000477196
0.000470717
0.000464414
0.000459815
0.000455393
0.000452605
0.000450027
0.00044905
0.000575989
0.000575989
0.000558365
0.000543308
0.000529873
0.000517746
0.000507249
0.000497366
0.000489009
0.000480915
0.000474253
0.000467704
0.000462538
0.000457461
0.000453743
0.000450136
0.000447868
0.000445748
0.00044495
0.000533564
0.000533564
0.000520535
0.000509451
0.000499693
0.000490902
0.000483371
0.000476203
0.000470222
0.000464316
0.000459542
0.000454753
0.000451074
0.000447345
0.000444703
0.00044203
0.000440436
0.000438838
0.00043831
0.000497116
0.000497116
0.000487958
0.00048023
0.000473661
0.000467818
0.000462953
0.000458285
0.000454491
0.000450637
0.000447592
0.000444384
0.000441959
0.000439375
0.000437595
0.000435695
0.000434614
0.000433449
0.000433108
0.000458548
0.000458548
0.000453226
0.00044891
0.000445611
0.00044272
0.000440551
0.000438333
0.000436706
0.000434816
0.000433475
0.000431824
0.000430724
0.000429327
0.000428497
0.000427408
0.000426914
0.000426199
0.00042609
0.000424923
0.000424923
0.000422887
0.000421656
0.000421222
0.000421195
0.000421195
0.00042152
0.00042152
0.000421648
0.000421648
0.000421453
0.000421453
0.000421088
0.000421057
0.000420669
0.000420661
0.000420414
0.000420414
0.000390442
0.000391553
0.000393409
0.000395813
0.000398187
0.000400789
0.000402954
0.000405205
0.000406866
0.000408587
0.000409709
0.000410919
0.000411582
0.000412379
0.000412694
0.000413192
0.000413262
0.000413542
0.000413542
0.000359859
0.000363865
0.00036862
0.000373582
0.000378371
0.000383109
0.000387253
0.000391235
0.000394486
0.000397566
0.000399919
0.000402147
0.000403714
0.000405223
0.000406151
0.000407082
0.000407498
0.000407951
0.000407951
0.000329321
0.000336231
0.00034381
0.000351275
0.000358402
0.000365205
0.000371239
0.000376879
0.000381631
0.000386009
0.000389528
0.000392741
0.000395176
0.000397385
0.000398906
0.000400266
0.000401012
0.000401642
0.000401642
0.000302216
0.000311895
0.0003221
0.000331872
0.000341155
0.000349829
0.000357591
0.000364719
0.00037083
0.000376365
0.000380925
0.000385001
0.000388199
0.000391011
0.000393045
0.000394773
0.000395804
0.00039658
0.00039658
0.000275923
0.000288429
0.000301175
0.000313191
0.000324497
0.000334927
0.000344275
0.000352772
0.000360118
0.000366709
0.000372217
0.000377089
0.000380989
0.000384366
0.000386878
0.000388957
0.000390257
0.000391179
0.000391179
0.000253038
0.000268208
0.000283291
0.000297354
0.000310485
0.000322486
0.00033325
0.000342957
0.000351397
0.000358912
0.000365248
0.000370805
0.000375306
0.000379158
0.000382069
0.000384433
0.000385948
0.00038698
0.00038698
0.000231967
0.000249768
0.000267032
0.000282977
0.000297717
0.000311096
0.000323074
0.000333817
0.000343184
0.000351488
0.000358531
0.000364681
0.000369706
0.000373983
0.000377259
0.000379896
0.000381622
0.000382774
0.000382774
0.000214599
0.000234749
0.000253922
0.000271491
0.000287611
0.000302165
0.000315176
0.000326797
0.000336948
0.000345912
0.000353541
0.000360173
0.000365618
0.000370224
0.000373769
0.000376591
0.000378451
0.000379669
0.000379669
0.000200399
0.000222577
0.000243298
0.000262149
0.000279314
0.00029475
0.000308521
0.00032079
0.000331516
0.000340973
0.000349046
0.000356054
0.000361835
0.000366718
0.000370507
0.000373519
0.000375532
0.000376841
0.000376841
0.000190448
0.000214113
0.000235967
0.000255753
0.000273687
0.000289776
0.000304109
0.000316859
0.00032801
0.000337826
0.000346219
0.000353494
0.000359509
0.000364578
0.000368522
0.000371648
0.000373744
0.000375094
0.000375094
0.000184749
0.00020919
0.000231596
0.000251835
0.000270132
0.000286537
0.000301148
0.000314144
0.00032552
0.000335535
0.000344109
0.00035154
0.000357694
0.000362878
0.000366921
0.000370118
0.000372265
0.000373642
0.000373642
)
;

boundaryField
{
    leftWall
    {
        type            calculated;
        value           uniform 0;
    }
    rightWall
    {
        type            calculated;
        value           uniform 0;
    }
    lowerWall
    {
        type            calculated;
        value           uniform 0;
    }
    atmosphere
    {
        type            calculated;
        value           uniform 0;
    }
    defaultFaces
    {
        type            empty;
    }
}


// ************************************************************************* //
