/*--------------------------------*- C++ -*----------------------------------*\
| =========                 |                                                 |
| \\      /  F ield         | OpenFOAM: The Open Source CFD Toolbox           |
|  \\    /   O peration     | Version:  2012                                  |
|   \\  /    A nd           | Website:  www.openfoam.com                      |
|    \\/     M anipulation  |                                                 |
\*---------------------------------------------------------------------------*/
FoamFile
{
    version     2.0;
    format      ascii;
    class       volVectorField;
    location    "0.13";
    object      U;
}
// * * * * * * * * * * * * * * * * * * * * * * * * * * * * * * * * * * * * * //

dimensions      [0 1 -1 0 0 0 0];


internalField   nonuniform List<vector> 
2268
(
(0.0330837 -0.0158685 0)
(0.10127 -0.0159784 0)
(0.168372 -0.0162612 0)
(0.238955 -0.0166214 0)
(0.309071 -0.0171214 0)
(0.383963 -0.017817 0)
(0.459858 -0.0184683 0)
(0.540434 -0.0195435 0)
(0.625241 -0.0204322 0)
(0.713635 -0.02161 0)
(0.808136 -0.0230681 0)
(0.909067 -0.0245262 0)
(1.0157 -0.0250723 0)
(1.12244 -0.0258381 0)
(1.23597 -0.0269597 0)
(1.35406 -0.0290948 0)
(1.48385 -0.0301 0)
(1.60884 -0.0322737 0)
(1.74757 -0.0143902 0)
(1.73055 0.0143337 0)
(1.65802 0.0485467 0)
(1.32017 0.0953115 0)
(0.862345 0.251629 0)
(0.0329928 -0.0476258 0)
(0.101125 -0.0479596 0)
(0.168079 -0.0488023 0)
(0.238544 -0.0498829 0)
(0.308535 -0.0513878 0)
(0.383296 -0.0534756 0)
(0.459096 -0.055436 0)
(0.539507 -0.0586647 0)
(0.624237 -0.061373 0)
(0.712596 -0.0648687 0)
(0.806941 -0.0692529 0)
(0.90772 -0.0736032 0)
(1.01456 -0.0757618 0)
(1.12216 -0.0782262 0)
(1.23716 -0.0825922 0)
(1.3579 -0.0878864 0)
(1.49413 -0.0906448 0)
(1.61746 -0.0918904 0)
(1.7353 -0.0438368 0)
(1.71931 0.0290962 0)
(1.68313 0.143301 0)
(1.37094 0.285939 0)
(0.947852 0.776827 0)
(0.0328316 -0.0792514 0)
(0.100817 -0.0798211 0)
(0.167486 -0.0811997 0)
(0.237718 -0.0830111 0)
(0.307455 -0.08551 0)
(0.381947 -0.0890031 0)
(0.457558 -0.0922506 0)
(0.537629 -0.0976373 0)
(0.622171 -0.102185 0)
(0.710443 -0.107999 0)
(0.804526 -0.115245 0)
(0.904956 -0.122681 0)
(1.01212 -0.12641 0)
(1.12099 -0.131011 0)
(1.23835 -0.138463 0)
(1.3636 -0.150378 0)
(1.50946 -0.153146 0)
(1.63204 -0.145716 0)
(1.72236 -0.0634778 0)
(1.7146 0.0401572 0)
(1.73096 0.210448 0)
(1.49521 0.448648 0)
(1.07526 1.3433 0)
(0.0326393 -0.110786 0)
(0.100314 -0.111598 0)
(0.166599 -0.113495 0)
(0.236485 -0.116042 0)
(0.305854 -0.119528 0)
(0.379936 -0.124444 0)
(0.455274 -0.128967 0)
(0.534847 -0.136507 0)
(0.619054 -0.142994 0)
(0.707193 -0.15109 0)
(0.80093 -0.161137 0)
(0.900867 -0.171742 0)
(1.00822 -0.177849 0)
(1.11875 -0.185099 0)
(1.23906 -0.197327 0)
(1.36989 -0.215853 0)
(1.51947 -0.21791 0)
(1.6399 -0.191742 0)
(1.7059 -0.0841387 0)
(1.74322 0.0269164 0)
(1.79775 0.244623 0)
(1.66593 0.601196 0)
(1.23088 1.98747 0)
(0.0324181 -0.142084 0)
(0.0995983 -0.143132 0)
(0.165409 -0.145549 0)
(0.234811 -0.148834 0)
(0.303694 -0.153284 0)
(0.377192 -0.15965 0)
(0.452148 -0.16542 0)
(0.531049 -0.175087 0)
(0.614725 -0.18359 0)
(0.702572 -0.193997 0)
(0.795922 -0.206738 0)
(0.895168 -0.220685 0)
(1.00261 -0.22938 0)
(1.11468 -0.240087 0)
(1.2382 -0.257228 0)
(1.37462 -0.282782 0)
(1.52274 -0.281035 0)
(1.63371 -0.233274 0)
(1.69758 -0.113322 0)
(1.78458 -0.00193017 0)
(1.84531 0.241827 0)
(1.82033 0.716351 0)
(1.3479 2.69137 0)
(0.0321397 -0.173175 0)
(0.0987029 -0.17445 0)
(0.163926 -0.177389 0)
(0.232707 -0.181405 0)
(0.301011 -0.186794 0)
(0.373759 -0.194633 0)
(0.448235 -0.201635 0)
(0.526348 -0.213385 0)
(0.609301 -0.224004 0)
(0.696704 -0.236763 0)
(0.789593 -0.252112 0)
(0.888121 -0.269447 0)
(0.995419 -0.281572 0)
(1.10932 -0.296387 0)
(1.23598 -0.320238 0)
(1.37842 -0.350247 0)
(1.51793 -0.340558 0)
(1.61923 -0.274086 0)
(1.69885 -0.155844 0)
(1.80825 -0.0422464 0)
(1.87609 0.224087 0)
(1.89055 0.840978 0)
(1.38483 3.42722 0)
(0.0318053 -0.20392 0)
(0.0976011 -0.205416 0)
(0.162127 -0.208874 0)
(0.230115 -0.213632 0)
(0.297737 -0.219926 0)
(0.369543 -0.22926 0)
(0.443387 -0.237495 0)
(0.520565 -0.251253 0)
(0.602616 -0.264058 0)
(0.689324 -0.279248 0)
(0.781709 -0.297169 0)
(0.879434 -0.317993 0)
(0.986649 -0.333924 0)
(1.10182 -0.353758 0)
(1.23099 -0.384489 0)
(1.3761 -0.41596 0)
(1.50319 -0.394851 0)
(1.59922 -0.318624 0)
(1.7004 -0.202993 0)
(1.83325 -0.0858534 0)
(1.91737 0.201766 0)
(1.8735 0.953552 0)
(1.40093 4.30222 0)
(0.0314146 -0.234328 0)
(0.0963203 -0.236038 0)
(0.16005 -0.240004 0)
(0.227107 -0.245501 0)
(0.293978 -0.252661 0)
(0.364691 -0.263493 0)
(0.437807 -0.272961 0)
(0.514004 -0.288676 0)
(0.595039 -0.303706 0)
(0.680878 -0.32144 0)
(0.772717 -0.341907 0)
(0.869599 -0.366322 0)
(0.976486 -0.386638 0)
(1.09308 -0.411808 0)
(1.22434 -0.449932 0)
(1.36645 -0.478857 0)
(1.47906 -0.446064 0)
(1.57959 -0.367303 0)
(1.70227 -0.267481 0)
(1.8522 -0.14436 0)
(1.92209 0.19879 0)
(1.54822 1.12088 0)
(0.870533 5.04363 0)
(-0.158815 -0.0202023 0)
(-0.0203502 -0.0211965 0)
(-0.0842669 -0.0228831 0)
(-0.0241642 -0.0169927 0)
(0.0222583 -0.0170443 0)
(0.0268704 -0.00990329 0)
(0.0785848 -0.010359 0)
(0.0588939 -0.00531432 0)
(0.0981043 -0.00542733 0)
(0.0691851 -0.00190964 0)
(0.0947971 -0.00197119 0)
(0.0640089 9.16529e-05 0)
(0.0797539 9.69765e-06 0)
(0.0499208 0.00114264 0)
(0.0592793 0.0010762 0)
(0.0309812 0.00166088 0)
(0.0366005 0.00162338 0)
(0.00945727 0.0018721 0)
(0.0133663 0.00185966 0)
(-0.158789 0.0964511 0)
(-0.0260879 -0.0109583 0)
(-0.0828453 0.0252871 0)
(-0.0223069 -0.0293121 0)
(0.0242532 -0.00354314 0)
(0.0295573 -0.0152344 0)
(0.0807369 -0.00208155 0)
(0.0611583 -0.0041111 0)
(0.0995282 0.00211488 0)
(0.0707103 0.00236673 0)
(0.0956196 0.00504133 0)
(0.0648744 0.00556759 0)
(0.0801852 0.00663454 0)
(0.0503824 0.0070403 0)
(0.0594939 0.00742073 0)
(0.0312169 0.0076639 0)
(0.0366864 0.00777378 0)
(0.00955893 0.0078816 0)
(0.0133597 0.00790285 0)
(-0.194382 0.0589266 0)
(-0.0570167 -0.0541907 0)
(-0.0945038 -0.0235501 0)
(-0.0338746 -0.0638042 0)
(0.0256483 -0.0378617 0)
(0.0276461 -0.0352198 0)
(0.0832438 -0.0226166 0)
(0.0609623 -0.0144717 0)
(0.10077 -0.00848586 0)
(0.0704637 -0.00121941 0)
(0.0961245 0.0013107 0)
(0.0647019 0.00590095 0)
(0.0803772 0.0067689 0)
(0.0502627 0.00940039 0)
(0.0595438 0.00962392 0)
(0.0311337 0.0110194 0)
(0.0366943 0.0110407 0)
(0.00951236 0.0116397 0)
(0.0133752 0.0116321 0)
(-0.198712 0.203282 0)
(-0.0783351 -0.0535577 0)
(-0.0930696 0.0161628 0)
(-0.0283624 -0.0811509 0)
(0.0337283 -0.0286399 0)
(0.0361928 -0.0408064 0)
(0.08974 -0.0150441 0)
(0.0678659 -0.0126482 0)
(0.105 -0.000791254 0)
(0.0749241 0.00341682 0)
(0.0985035 0.00843247 0)
(0.0672181 0.011545 0)
(0.0816284 0.0134859 0)
(0.0516175 0.0153953 0)
(0.0601712 0.0160436 0)
(0.0318308 0.0170837 0)
(0.0369474 0.017249 0)
(0.00981506 0.0176975 0)
(0.0133544 0.0177231 0)
(-0.272596 0.176901 0)
(-0.147794 -0.10038 0)
(-0.113892 -0.0438556 0)
(-0.0496207 -0.119422 0)
(0.0384311 -0.0640299 0)
(0.0336126 -0.060519 0)
(0.0947123 -0.0349213 0)
(0.0675454 -0.0222008 0)
(0.107385 -0.0105476 0)
(0.0745332 0.000536478 0)
(0.099489 0.00531701 0)
(0.0668933 0.012301 0)
(0.0819761 0.01394 0)
(0.051355 0.0179641 0)
(0.0602442 0.0183883 0)
(0.0316426 0.0205328 0)
(0.0369476 0.0205721 0)
(0.00971144 0.0214946 0)
(0.0133835 0.0214801 0)
(-0.293288 0.383278 0)
(-0.167177 -0.120437 0)
(-0.103664 -0.0245614 0)
(-0.037384 -0.146266 0)
(0.0544468 -0.0628516 0)
(0.0494999 -0.0656644 0)
(0.106259 -0.0281807 0)
(0.0793544 -0.0190545 0)
(0.114336 -0.00254129 0)
(0.0817289 0.00588548 0)
(0.103278 0.0126975 0)
(0.0709141 0.0182998 0)
(0.0839702 0.0208633 0)
(0.0535387 0.0241565 0)
(0.0612493 0.0249604 0)
(0.0327766 0.0267187 0)
(0.0373538 0.0268929 0)
(0.0102082 0.0276449 0)
(0.0133452 0.0276627 0)
(-0.3936 0.370444 0)
(-0.264848 -0.183629 0)
(-0.114756 -0.0985165 0)
(-0.0553335 -0.189094 0)
(0.0641813 -0.0997678 0)
(0.0493053 -0.0843188 0)
(0.113715 -0.0465076 0)
(0.0791792 -0.0270007 0)
(0.117667 -0.0106903 0)
(0.0812994 0.00417487 0)
(0.104635 0.0105735 0)
(0.0704373 0.0197039 0)
(0.0843986 0.0218056 0)
(0.0531027 0.0270415 0)
(0.0613016 0.0275189 0)
(0.0324568 0.0303084 0)
(0.0373274 0.0302998 0)
(0.010034 0.0314997 0)
(0.0133867 0.0314598 0)
(-0.394417 0.669472 0)
(-0.306351 -0.23679 0)
(-0.0440119 -0.111708 0)
(-0.021246 -0.222086 0)
(0.0964653 -0.10587 0)
(0.0746909 -0.0874118 0)
(0.13108 -0.0394223 0)
(0.095884 -0.021639 0)
(0.127077 -0.0021115 0)
(0.090826 0.0105994 0)
(0.109596 0.0184108 0)
(0.0757353 0.0262524 0)
(0.0870209 0.0290621 0)
(0.0560095 0.033529 0)
(0.0626288 0.0343188 0)
(0.0339834 0.0366698 0)
(0.0378609 0.036782 0)
(0.0107112 0.0377808 0)
(0.0133247 0.0377718 0)
(0.0307741 -0.281181 0)
(0.0941146 -0.283227 0)
(0.156541 -0.287975 0)
(0.221942 -0.294667 0)
(0.287526 -0.303123 0)
(0.356343 -0.316308 0)
(0.428059 -0.327797 0)
(0.50249 -0.346425 0)
(0.581751 -0.364972 0)
(0.665646 -0.38684 0)
(0.756198 -0.411374 0)
(0.851192 -0.441378 0)
(0.957112 -0.469369 0)
(1.07329 -0.504185 0)
(1.20614 -0.549747 0)
(1.33352 -0.568623 0)
(1.43589 -0.523524 0)
(1.54636 -0.456825 0)
(1.67358 -0.368858 0)
(1.76349 -0.213217 0)
(1.82765 0.450582 0)
(0.886008 1.62657 0)
(1.25527 5.58037 0)
(0.0296861 -0.342968 0)
(0.0902192 -0.345448 0)
(0.15044 -0.35118 0)
(0.212868 -0.359466 0)
(0.276213 -0.369518 0)
(0.34181 -0.385773 0)
(0.410935 -0.400014 0)
(0.48223 -0.422435 0)
(0.558556 -0.44552 0)
(0.638882 -0.473315 0)
(0.726512 -0.503281 0)
(0.818361 -0.541309 0)
(0.92105 -0.579986 0)
(1.03529 -0.628901 0)
(1.16045 -0.675659 0)
(1.26707 -0.677317 0)
(1.37202 -0.632942 0)
(1.50342 -0.575938 0)
(1.64406 -0.458535 0)
(1.49304 -0.223145 0)
(1.38305 0.898953 0)
(0.843161 1.65067 0)
(1.26728 5.47059 0)
(0.0284218 -0.401724 0)
(0.085598 -0.404635 0)
(0.143248 -0.411263 0)
(0.202098 -0.42114 0)
(0.262748 -0.432714 0)
(0.324548 -0.451805 0)
(0.390402 -0.468901 0)
(0.457856 -0.494908 0)
(0.530466 -0.522382 0)
(0.606442 -0.555748 0)
(0.689365 -0.591769 0)
(0.777525 -0.636932 0)
(0.873635 -0.687491 0)
(0.984231 -0.744754 0)
(1.08751 -0.782962 0)
(1.18517 -0.781589 0)
(1.29893 -0.76372 0)
(1.42686 -0.726218 0)
(1.55763 -0.36527 0)
(1.02727 0.0664713 0)
(1.00139 1.06856 0)
(0.610504 1.73944 0)
(1.25004 4.98492 0)
(0.0269711 -0.457563 0)
(0.0802423 -0.460869 0)
(0.134951 -0.468252 0)
(0.18966 -0.4796 0)
(0.247156 -0.492547 0)
(0.304597 -0.514127 0)
(0.366742 -0.533933 0)
(0.429448 -0.563286 0)
(0.498065 -0.594781 0)
(0.568208 -0.633106 0)
(0.646398 -0.675165 0)
(0.727445 -0.72658 0)
(0.818493 -0.787686 0)
(0.915525 -0.843965 0)
(1.00099 -0.877964 0)
(1.10132 -0.890884 0)
(1.21281 -0.883558 0)
(1.29909 -0.801627 0)
(1.04528 -0.0964239 0)
(0.353048 0.38723 0)
(0.420367 1.27782 0)
(0.0478294 1.46072 0)
(0.966682 4.23082 0)
(0.0253409 -0.50951 0)
(0.074259 -0.513207 0)
(0.125654 -0.521251 0)
(0.175766 -0.533975 0)
(0.229619 -0.54824 0)
(0.282248 -0.572078 0)
(0.340072 -0.594368 0)
(0.397397 -0.627005 0)
(0.46128 -0.6618 0)
(0.524614 -0.704967 0)
(0.597786 -0.751715 0)
(0.669247 -0.810115 0)
(0.756751 -0.876345 0)
(0.831443 -0.928623 0)
(0.914393 -0.970659 0)
(1.00602 -0.995577 0)
(1.09871 -0.965603 0)
(0.909675 -0.531892 0)
(0.40574 0.541842 0)
(-0.176426 0.723648 0)
(0.0138789 1.34533 0)
(-0.319567 1.20274 0)
(0.511026 3.33609 0)
(0.023502 -0.55766 0)
(0.0677178 -0.561699 0)
(0.115345 -0.57025 0)
(0.160541 -0.584106 0)
(0.210169 -0.599534 0)
(0.257764 -0.625162 0)
(0.31042 -0.649614 0)
(0.362412 -0.68515 0)
(0.419992 -0.722593 0)
(0.477275 -0.770355 0)
(0.542642 -0.820495 0)
(0.606551 -0.886421 0)
(0.685023 -0.950636 0)
(0.740495 -1.00314 0)
(0.826302 -1.0541 0)
(0.887508 -1.07054 0)
(0.963389 -0.804555 0)
(0.295218 -0.0712306 0)
(-0.0317941 0.961452 0)
(-0.286509 0.819829 0)
(-0.154342 1.386 0)
(-0.352571 1.00323 0)
(0.125073 2.42615 0)
(0.021505 -0.60122 0)
(0.0607626 -0.605559 0)
(0.104291 -0.614568 0)
(0.144356 -0.629333 0)
(0.189347 -0.645985 0)
(0.231721 -0.672894 0)
(0.278523 -0.699578 0)
(0.325194 -0.73718 0)
(0.374921 -0.77729 0)
(0.42716 -0.828217 0)
(0.481524 -0.881739 0)
(0.541837 -0.953099 0)
(0.60333 -1.0112 0)
(0.656008 -1.07156 0)
(0.73193 -1.11939 0)
(0.771032 -1.1208 0)
(0.725291 -0.397862 0)
(-0.149002 0.500255 0)
(-0.137433 1.09059 0)
(-0.297525 0.87679 0)
(-0.173444 1.37324 0)
(-0.227111 0.954935 0)
(-0.0303921 1.88596 0)
(0.0193276 -0.640332 0)
(0.0533595 -0.644905 0)
(0.0924826 -0.654239 0)
(0.127018 -0.66959 0)
(0.167257 -0.687303 0)
(0.203685 -0.714786 0)
(0.244909 -0.743512 0)
(0.28504 -0.782044 0)
(0.327689 -0.82505 0)
(0.373285 -0.877502 0)
(0.417484 -0.935831 0)
(0.472775 -1.00876 0)
(0.515488 -1.06606 0)
(0.575119 -1.13298 0)
(0.624218 -1.17108 0)
(0.640805 -1.05081 0)
(0.19111 0.104763 0)
(-0.29861 0.822696 0)
(-0.1899 1.08526 0)
(-0.282819 0.887026 0)
(-0.170612 1.28883 0)
(-0.118796 0.892975 0)
(-0.0590238 1.49536 0)
(0.0170665 -0.674306 0)
(0.0456941 -0.679129 0)
(0.0803669 -0.688628 0)
(0.109055 -0.704544 0)
(0.144826 -0.723075 0)
(0.174432 -0.751018 0)
(0.210884 -0.781365 0)
(0.242391 -0.820477 0)
(0.279709 -0.865953 0)
(0.31442 -0.918544 0)
(0.351826 -0.981645 0)
(0.394561 -1.0516 0)
(0.426157 -1.11478 0)
(0.488856 -1.18052 0)
(0.511908 -1.1891 0)
(0.510499 -0.674927 0)
(-0.254074 0.52258 0)
(-0.297298 0.902883 0)
(-0.248566 1.04871 0)
(-0.246768 0.879599 0)
(-0.162616 1.18123 0)
(-0.0597131 0.865733 0)
(-0.0565845 1.25599 0)
(0.0146682 -0.70339 0)
(0.037858 -0.708515 0)
(0.0677266 -0.717885 0)
(0.0904797 -0.734356 0)
(0.121349 -0.752954 0)
(0.143775 -0.781159 0)
(0.175196 -0.811718 0)
(0.197271 -0.851252 0)
(0.230006 -0.897293 0)
(0.251517 -0.950193 0)
(0.28578 -1.01614 0)
(0.307939 -1.08403 0)
(0.340888 -1.1614 0)
(0.391621 -1.21739 0)
(0.410635 -1.19876 0)
(0.221317 -0.259332 0)
(-0.462243 0.898251 0)
(-0.256633 0.840078 0)
(-0.298358 1.01516 0)
(-0.208554 0.824415 0)
(-0.178009 1.08081 0)
(-0.0426223 0.810777 0)
(-0.0659026 1.07374 0)
(0.0121701 -0.727134 0)
(0.0302801 -0.732496 0)
(0.0549885 -0.741566 0)
(0.0724024 -0.758487 0)
(0.0975319 -0.776718 0)
(0.113665 -0.805208 0)
(0.138673 -0.835217 0)
(0.152759 -0.87565 0)
(0.178765 -0.920492 0)
(0.18916 -0.974676 0)
(0.219137 -1.03809 0)
(0.222586 -1.10743 0)
(0.262644 -1.19904 0)
(0.276652 -1.24596 0)
(0.279467 -1.03429 0)
(-0.286907 0.225795 0)
(-0.436156 0.974829 0)
(-0.312659 0.758169 0)
(-0.286997 0.978175 0)
(-0.219514 0.776675 0)
(-0.179032 0.993563 0)
(-0.0549802 0.769637 0)
(-0.0723747 0.958091 0)
(0.00969098 -0.746027 0)
(0.0233837 -0.751518 0)
(0.042678 -0.760185 0)
(0.0552271 -0.777057 0)
(0.0739503 -0.794368 0)
(0.0848793 -0.82242 0)
(0.102973 -0.850919 0)
(0.11156 -0.891473 0)
(0.130716 -0.933793 0)
(0.135767 -0.990882 0)
(0.16075 -1.04968 0)
(0.156441 -1.12869 0)
(0.200215 -1.21552 0)
(0.178528 -1.22972 0)
(0.144724 -0.642494 0)
(-0.48657 0.478051 0)
(-0.316707 0.912717 0)
(-0.342457 0.705509 0)
(-0.25753 0.908707 0)
(-0.221511 0.732544 0)
(-0.181792 0.901651 0)
(-0.0756452 0.7203 0)
(-0.0913694 0.853317 0)
(0.00743776 -0.76043 0)
(0.0176084 -0.765691 0)
(0.0321969 -0.773649 0)
(0.0411186 -0.789965 0)
(0.0546888 -0.806648 0)
(0.0624014 -0.834459 0)
(0.0750179 -0.862213 0)
(0.0810379 -0.903616 0)
(0.093958 -0.944987 0)
(0.098439 -1.00472 0)
(0.116791 -1.05884 0)
(0.121156 -1.14651 0)
(0.186639 -1.22079 0)
(0.148257 -1.18956 0)
(0.0429092 -0.367829 0)
(-0.455455 0.692624 0)
(-0.223792 0.818346 0)
(-0.332929 0.709612 0)
(-0.233172 0.84174 0)
(-0.226571 0.713118 0)
(-0.183939 0.831981 0)
(-0.103004 0.690356 0)
(-0.107117 0.781555 0)
(0.00595855 -0.771148 0)
(0.0137587 -0.776349 0)
(0.024961 -0.783761 0)
(0.0315761 -0.799576 0)
(0.0416015 -0.815663 0)
(0.0479184 -0.842682 0)
(0.0579302 -0.869473 0)
(0.0641033 -0.910238 0)
(0.0758915 -0.951022 0)
(0.0846862 -1.0136 0)
(0.105179 -1.07231 0)
(0.129815 -1.19957 0)
(0.214551 -1.24226 0)
(0.176285 -1.08212 0)
(-0.0253939 -0.0431118 0)
(-0.331639 0.75812 0)
(-0.196746 0.780596 0)
(-0.309068 0.726799 0)
(-0.233646 0.791801 0)
(-0.234523 0.695397 0)
(-0.195788 0.76749 0)
(-0.129373 0.654926 0)
(-0.127172 0.711378 0)
(0.00472408 -0.780224 0)
(0.0109546 -0.784729 0)
(0.0208197 -0.791546 0)
(0.0290238 -0.806615 0)
(0.0393292 -0.823096 0)
(0.0483749 -0.850846 0)
(0.0614674 -0.878607 0)
(0.0856726 -0.921895 0)
(0.13183 -0.970422 0)
(0.250744 -1.0369 0)
(0.263295 -1.1067 0)
(0.39652 -1.25575 0)
(0.181431 -1.26631 0)
(0.141753 -0.946518 0)
(-0.0920016 0.136087 0)
(-0.318945 0.870467 0)
(-0.250212 0.786294 0)
(-0.325343 0.75464 0)
(-0.265901 0.756253 0)
(-0.258786 0.683768 0)
(-0.218555 0.715766 0)
(-0.161899 0.629418 0)
(-0.150131 0.661327 0)
(0.00231041 -0.789107 0)
(0.0207937 -0.79465 0)
(0.0262445 -0.804013 0)
(0.0529856 -0.819963 0)
(0.0557309 -0.836757 0)
(0.0958707 -0.865936 0)
(0.0979528 -0.907843 0)
(0.170033 -0.980089 0)
(0.180972 -1.1083 0)
(0.337446 -1.1462 0)
(0.358303 -1.21448 0)
(0.524262 -1.12457 0)
(0.126443 -0.987916 0)
(0.0942522 -0.807494 0)
(-0.222542 0.41808 0)
(-0.362306 0.92411 0)
(-0.340126 0.781351 0)
(-0.346419 0.750814 0)
(-0.31772 0.718102 0)
(-0.275985 0.656537 0)
(-0.25208 0.663232 0)
(-0.185812 0.594487 0)
(-0.176758 0.607978 0)
(-0.00987178 -0.800571 0)
(0.00705896 -0.805904 0)
(-0.0170744 -0.821195 0)
(0.00309957 -0.833764 0)
(-0.0246648 -0.864464 0)
(0.00952074 -0.891725 0)
(-0.017478 -0.953643 0)
(0.0428867 -1.00769 0)
(0.0140842 -1.14114 0)
(0.103295 -1.21487 0)
(0.151565 -1.29319 0)
(0.304843 -1.02095 0)
(0.21373 -0.822018 0)
(0.0761138 -0.598258 0)
(-0.399369 0.595769 0)
(-0.384371 0.991058 0)
(-0.440288 0.764477 0)
(-0.382966 0.737642 0)
(-0.37225 0.678169 0)
(-0.30676 0.623622 0)
(-0.286854 0.618015 0)
(-0.21586 0.558963 0)
(-0.203717 0.56635 0)
(-0.0182677 -0.787746 0)
(-0.0197234 -0.788954 0)
(-0.0547842 -0.801559 0)
(-0.0554308 -0.813524 0)
(-0.0910698 -0.844427 0)
(-0.0911655 -0.873272 0)
(-0.128434 -0.941947 0)
(-0.128034 -1.00823 0)
(-0.162245 -1.16987 0)
(-0.158356 -1.28458 0)
(-0.141992 -1.41998 0)
(-0.12853 -1.18988 0)
(0.0445337 -0.766111 0)
(-0.333268 -0.188865 0)
(-0.773155 0.868695 0)
(-0.517821 0.974102 0)
(-0.583589 0.772939 0)
(-0.431434 0.689224 0)
(-0.433533 0.636096 0)
(-0.335692 0.577055 0)
(-0.318251 0.567073 0)
(-0.240868 0.516731 0)
(-0.225648 0.519173 0)
(-0.0215185 -0.761074 0)
(-0.0333925 -0.767781 0)
(-0.0733697 -0.784076 0)
(-0.0855873 -0.795992 0)
(-0.128344 -0.827901 0)
(-0.144983 -0.853118 0)
(-0.198945 -0.916985 0)
(-0.235765 -0.973499 0)
(-0.320445 -1.1116 0)
(-0.43226 -1.23309 0)
(-0.562532 -1.32376 0)
(-0.763104 -1.20222 0)
(-0.858561 -0.6137 0)
(-1.10603 0.233551 0)
(-1.11236 0.775211 0)
(-0.753651 0.807463 0)
(-0.700107 0.672093 0)
(-0.510136 0.591635 0)
(-0.485022 0.576842 0)
(-0.373031 0.511651 0)
(-0.347664 0.517977 0)
(-0.267236 0.469197 0)
(-0.246784 0.478052 0)
(-0.0189104 -0.733734 0)
(-0.0335097 -0.738066 0)
(-0.0770103 -0.750142 0)
(-0.0982722 -0.75931 0)
(-0.148641 -0.785546 0)
(-0.182091 -0.80283 0)
(-0.248013 -0.851321 0)
(-0.315375 -0.885389 0)
(-0.426403 -0.973223 0)
(-0.598073 -1.04032 0)
(-0.821388 -1.09095 0)
(-1.10046 -0.889689 0)
(-1.33931 -0.428778 0)
(-1.34481 0.0763594 0)
(-1.12777 0.508134 0)
(-0.863159 0.56462 0)
(-0.692237 0.524386 0)
(-0.567609 0.477452 0)
(-0.482068 0.495092 0)
(-0.405722 0.443159 0)
(-0.350874 0.457749 0)
(-0.29049 0.419252 0)
(-0.255576 0.431069 0)
(-0.0209856 -0.707327 0)
(-0.0442156 -0.708278 0)
(-0.0899474 -0.71807 0)
(-0.118675 -0.722933 0)
(-0.171694 -0.743104 0)
(-0.21364 -0.752216 0)
(-0.281903 -0.783114 0)
(-0.35501 -0.793247 0)
(-0.46156 -0.828356 0)
(-0.615191 -0.834563 0)
(-0.818428 -0.820638 0)
(-1.0698 -0.680736 0)
(-1.19677 -0.36826 0)
(-1.19592 0.018403 0)
(-1.04549 0.288954 0)
(-0.825516 0.369598 0)
(-0.680625 0.373153 0)
(-0.567862 0.38164 0)
(-0.486554 0.411609 0)
(-0.409941 0.381475 0)
(-0.355864 0.399394 0)
(-0.298475 0.375143 0)
(-0.261926 0.38689 0)
(-0.0228153 -0.669118 0)
(-0.050091 -0.669688 0)
(-0.096781 -0.676152 0)
(-0.129815 -0.677989 0)
(-0.183027 -0.690819 0)
(-0.229798 -0.692619 0)
(-0.297057 -0.70985 0)
(-0.369208 -0.704739 0)
(-0.460174 -0.712545 0)
(-0.575547 -0.680976 0)
(-0.715135 -0.635679 0)
(-0.874165 -0.506889 0)
(-0.98463 -0.304867 0)
(-0.979297 -0.0711775 0)
(-0.874221 0.132413 0)
(-0.733614 0.201924 0)
(-0.628499 0.262425 0)
(-0.545035 0.286065 0)
(-0.470063 0.333723 0)
(-0.404951 0.315159 0)
(-0.352524 0.343486 0)
(-0.302735 0.327754 0)
(-0.264347 0.343023 0)
(-0.021888 -0.633233 0)
(-0.0510307 -0.633107 0)
(-0.0965903 -0.637198 0)
(-0.13099 -0.635458 0)
(-0.182766 -0.642086 0)
(-0.228933 -0.636845 0)
(-0.292694 -0.642895 0)
(-0.358817 -0.628513 0)
(-0.439406 -0.621362 0)
(-0.531673 -0.57734 0)
(-0.627184 -0.521492 0)
(-0.726657 -0.409526 0)
(-0.782189 -0.263366 0)
(-0.795532 -0.0929684 0)
(-0.729956 0.0412543 0)
(-0.653252 0.122665 0)
(-0.581884 0.182275 0)
(-0.513347 0.223112 0)
(-0.454511 0.268935 0)
(-0.39239 0.264425 0)
(-0.349098 0.294682 0)
(-0.299201 0.287597 0)
(-0.265155 0.303558 0)
(-0.0213422 -0.596532 0)
(-0.0517226 -0.595273 0)
(-0.095955 -0.59646 0)
(-0.130591 -0.591939 0)
(-0.179241 -0.592967 0)
(-0.222338 -0.582465 0)
(-0.279347 -0.579839 0)
(-0.336494 -0.557171 0)
(-0.405983 -0.539416 0)
(-0.479198 -0.491551 0)
(-0.552725 -0.440388 0)
(-0.620565 -0.349497 0)
(-0.658602 -0.236495 0)
(-0.664858 -0.121348 0)
(-0.624296 -0.0121264 0)
(-0.579853 0.055664 0)
(-0.522746 0.120076 0)
(-0.474918 0.160585 0)
(-0.423141 0.210433 0)
(-0.372516 0.211644 0)
(-0.33374 0.248309 0)
(-0.290348 0.245511 0)
(-0.25878 0.265388 0)
(-0.0213218 -0.559183 0)
(-0.0527783 -0.557476 0)
(-0.096417 -0.557351 0)
(-0.131024 -0.551197 0)
(-0.177763 -0.549449 0)
(-0.218237 -0.535758 0)
(-0.269854 -0.528017 0)
(-0.318876 -0.500813 0)
(-0.375131 -0.478142 0)
(-0.430522 -0.42945 0)
(-0.481817 -0.379911 0)
(-0.530254 -0.302876 0)
(-0.552316 -0.219533 0)
(-0.56268 -0.127541 0)
(-0.53765 -0.0448633 0)
(-0.511427 0.0206318 0)
(-0.470236 0.0758082 0)
(-0.435818 0.123372 0)
(-0.393724 0.164693 0)
(-0.35097 0.17522 0)
(-0.319953 0.210672 0)
(-0.279189 0.212928 0)
(-0.252563 0.233452 0)
(-0.0194181 -0.52261 0)
(-0.0490488 -0.520259 0)
(-0.0888539 -0.518335 0)
(-0.121128 -0.510541 0)
(-0.163786 -0.505754 0)
(-0.200879 -0.49006 0)
(-0.247087 -0.479074 0)
(-0.289713 -0.451199 0)
(-0.337154 -0.4276 0)
(-0.381594 -0.38382 0)
(-0.422162 -0.34065 0)
(-0.459024 -0.277695 0)
(-0.476481 -0.204459 0)
(-0.485594 -0.13479 0)
(-0.46926 -0.0643927 0)
(-0.453308 -0.0105663 0)
(-0.42152 0.0431851 0)
(-0.397113 0.0853251 0)
(-0.3586 0.124165 0)
(-0.326957 0.139177 0)
(-0.298604 0.1752 0)
(-0.264319 0.179297 0)
(-0.240312 0.202632 0)
(-0.0188285 -0.489925 0)
(-0.0478491 -0.487231 0)
(-0.0858457 -0.484495 0)
(-0.116349 -0.475523 0)
(-0.155486 -0.468997 0)
(-0.188743 -0.451765 0)
(-0.228952 -0.438616 0)
(-0.265262 -0.410068 0)
(-0.303933 -0.385878 0)
(-0.340316 -0.343794 0)
(-0.370753 -0.302361 0)
(-0.400004 -0.248183 0)
(-0.412112 -0.193253 0)
(-0.420654 -0.134842 0)
(-0.410734 -0.0777975 0)
(-0.400516 -0.0273852 0)
(-0.377738 0.0186877 0)
(-0.358506 0.0602406 0)
(-0.32763 0.0933311 0)
(-0.30326 0.115232 0)
(-0.278635 0.14674 0)
(-0.249114 0.154725 0)
(-0.228984 0.177679 0)
(-0.0170369 -0.455966 0)
(-0.0440965 -0.453191 0)
(-0.0784958 -0.449836 0)
(-0.106723 -0.440748 0)
(-0.141788 -0.433295 0)
(-0.171796 -0.416275 0)
(-0.206918 -0.402445 0)
(-0.238278 -0.375699 0)
(-0.270602 -0.352467 0)
(-0.300734 -0.316315 0)
(-0.325372 -0.281001 0)
(-0.348292 -0.235492 0)
(-0.358838 -0.184076 0)
(-0.367111 -0.135354 0)
(-0.360846 -0.0850519 0)
(-0.354545 -0.0427604 0)
(-0.337218 0.000483067 0)
(-0.322648 0.0360158 0)
(-0.297118 0.0681135 0)
(-0.278956 0.0910321 0)
(-0.255695 0.120229 0)
(-0.232284 0.130437 0)
(-0.213791 0.153792 0)
(-0.0157713 -0.428207 0)
(-0.0407301 -0.425176 0)
(-0.0723475 -0.421291 0)
(-0.0980114 -0.411693 0)
(-0.129635 -0.403399 0)
(-0.156364 -0.386144 0)
(-0.187059 -0.371698 0)
(-0.214208 -0.345925 0)
(-0.241294 -0.323131 0)
(-0.266715 -0.288616 0)
(-0.286498 -0.254736 0)
(-0.306034 -0.214517 0)
(-0.314604 -0.174606 0)
(-0.321644 -0.132861 0)
(-0.31793 -0.0907588 0)
(-0.313819 -0.0511863 0)
(-0.300981 -0.0138005 0)
(-0.289103 0.0199419 0)
(-0.269542 0.0488737 0)
(-0.254705 0.0737027 0)
(-0.234782 0.0991988 0)
(-0.215704 0.112788 0)
(-0.199406 0.134562 0)
(-0.0141752 -0.399399 0)
(-0.0373879 -0.396486 0)
(-0.0656302 -0.392481 0)
(-0.08914 -0.383275 0)
(-0.116927 -0.374852 0)
(-0.140818 -0.358575 0)
(-0.16708 -0.344517 0)
(-0.190623 -0.321083 0)
(-0.213349 -0.29992 0)
(-0.234695 -0.270634 0)
(-0.251123 -0.241705 0)
(-0.266597 -0.206805 0)
(-0.274253 -0.168619 0)
(-0.281067 -0.13147 0)
(-0.279183 -0.0931574 0)
(-0.276817 -0.0591665 0)
(-0.266967 -0.0246112 0)
(-0.258078 0.00509715 0)
(-0.24246 0.0332759 0)
(-0.230707 0.0568017 0)
(-0.213265 0.0807513 0)
(-0.19836 0.0955688 0)
(-0.183156 0.11643 0)
(-0.0127734 -0.376232 0)
(-0.0334257 -0.3733 0)
(-0.0588247 -0.369123 0)
(-0.0796735 -0.360011 0)
(-0.104433 -0.351332 0)
(-0.125438 -0.335633 0)
(-0.148417 -0.321565 0)
(-0.168877 -0.299333 0)
(-0.188258 -0.278843 0)
(-0.206586 -0.250578 0)
(-0.220573 -0.222791 0)
(-0.234315 -0.191271 0)
(-0.241081 -0.160244 0)
(-0.246857 -0.12794 0)
(-0.245885 -0.0952586 0)
(-0.244368 -0.0635139 0)
(-0.237119 -0.0329264 0)
(-0.229973 -0.00472099 0)
(-0.217902 0.0210083 0)
(-0.207888 0.0443678 0)
(-0.193481 0.0662799 0)
(-0.181208 0.0825813 0)
(-0.167847 0.101872 0)
(-0.0112538 -0.353085 0)
(-0.0301506 -0.350278 0)
(-0.0524189 -0.346126 0)
(-0.0712647 -0.337486 0)
(-0.0926948 -0.328992 0)
(-0.111308 -0.314364 0)
(-0.130875 -0.301006 0)
(-0.14856 -0.280959 0)
(-0.164957 -0.262178 0)
(-0.180398 -0.237976 0)
(-0.192052 -0.213973 0)
(-0.203021 -0.18589 0)
(-0.208971 -0.156151 0)
(-0.214397 -0.126282 0)
(-0.214429 -0.0957946 0)
(-0.213877 -0.0675661 0)
(-0.208401 -0.0392117 0)
(-0.203057 -0.0137758 0)
(-0.193517 0.0109499 0)
(-0.185519 0.0327131 0)
(-0.173495 0.053807 0)
(-0.163627 0.0702487 0)
(-0.151789 0.0886341 0)
(-0.00993599 -0.334544 0)
(-0.0263155 -0.331846 0)
(-0.0459439 -0.327718 0)
(-0.0622751 -0.319464 0)
(-0.0810636 -0.31101 0)
(-0.0971582 -0.297199 0)
(-0.114144 -0.284076 0)
(-0.129421 -0.265026 0)
(-0.143497 -0.246848 0)
(-0.156795 -0.223314 0)
(-0.167067 -0.200137 0)
(-0.177008 -0.174285 0)
(-0.182463 -0.148936 0)
(-0.187206 -0.122487 0)
(-0.187506 -0.0959399 0)
(-0.187295 -0.0696164 0)
(-0.183225 -0.0439981 0)
(-0.179062 -0.0197212 0)
(-0.171577 0.00314592 0)
(-0.164853 0.0242169 0)
(-0.155108 0.0440118 0)
(-0.146797 0.0607625 0)
(-0.136687 0.0780807 0)
(-0.00852562 -0.316707 0)
(-0.0231346 -0.314117 0)
(-0.0399317 -0.310052 0)
(-0.0543877 -0.302205 0)
(-0.0703448 -0.294015 0)
(-0.0843825 -0.281102 0)
(-0.0987313 -0.268678 0)
(-0.111798 -0.251393 0)
(-0.123662 -0.234765 0)
(-0.134842 -0.214156 0)
(-0.143314 -0.193737 0)
(-0.151267 -0.170208 0)
(-0.155931 -0.145977 0)
(-0.160194 -0.120972 0)
(-0.161021 -0.0957772 0)
(-0.161367 -0.0716011 0)
(-0.15847 -0.0475523 0)
(-0.15545 -0.0251972 0)
(-0.14958 -0.00338879 0)
(-0.144301 0.0164536 0)
(-0.13641 0.0356076 0)
(-0.129681 0.0520196 0)
(-0.121134 0.0687102 0)
(-0.00731424 -0.302697 0)
(-0.0195659 -0.300249 0)
(-0.0339733 -0.29627 0)
(-0.0461243 -0.288871 0)
(-0.0597958 -0.280826 0)
(-0.0716347 -0.268641 0)
(-0.0838796 -0.256498 0)
(-0.094936 -0.239945 0)
(-0.105065 -0.223696 0)
(-0.114588 -0.203554 0)
(-0.122112 -0.18369 0)
(-0.129327 -0.161629 0)
(-0.133647 -0.140055 0)
(-0.137498 -0.117403 0)
(-0.138371 -0.0948698 0)
(-0.13886 -0.072217 0)
(-0.136714 -0.0500789 0)
(-0.134426 -0.0286946 0)
(-0.129849 -0.00821567 0)
(-0.125556 0.0109459 0)
(-0.119224 0.0291433 0)
(-0.113643 0.0453837 0)
(-0.10654 0.0613596 0)
(-0.00602526 -0.289709 0)
(-0.0165237 -0.287324 0)
(-0.0283946 -0.283386 0)
(-0.0387771 -0.276246 0)
(-0.0500269 -0.268418 0)
(-0.0600476 -0.256874 0)
(-0.0701343 -0.245313 0)
(-0.0793824 -0.23005 0)
(-0.0877287 -0.215068 0)
(-0.095586 -0.196929 0)
(-0.101639 -0.178963 0)
(-0.107345 -0.158473 0)
(-0.110906 -0.1378 0)
(-0.114202 -0.116064 0)
(-0.115318 -0.0944423 0)
(-0.116097 -0.0730938 0)
(-0.114774 -0.0520375 0)
(-0.113266 -0.0319143 0)
(-0.109869 -0.0123244 0)
(-0.106623 0.00596069 0)
(-0.101706 0.0236215 0)
(-0.09729 0.0394519 0)
(-0.0915704 0.0549903 0)
(-0.0048814 -0.280038 0)
(-0.0131415 -0.277766 0)
(-0.0228114 -0.273898 0)
(-0.0310701 -0.267128 0)
(-0.0402965 -0.259439 0)
(-0.0483678 -0.248427 0)
(-0.0566833 -0.23706 0)
(-0.0642187 -0.222257 0)
(-0.0711877 -0.207426 0)
(-0.0777195 -0.189582 0)
(-0.0830083 -0.171919 0)
(-0.0880568 -0.152342 0)
(-0.0913588 -0.133229 0)
(-0.0943821 -0.112998 0)
(-0.0954773 -0.093042 0)
(-0.0963335 -0.0727936 0)
(-0.0954331 -0.0530132 0)
(-0.0944092 -0.0336566 0)
(-0.091833 -0.0149961 0)
(-0.0893568 0.00270912 0)
(-0.0855131 0.0196481 0)
(-0.0820367 0.0351685 0)
(-0.0774725 0.050197 0)
(-0.00367465 -0.271587 0)
(-0.0101623 -0.269285 0)
(-0.0174664 -0.265366 0)
(-0.0239655 -0.258654 0)
(-0.0309675 -0.251045 0)
(-0.037307 -0.240379 0)
(-0.0437029 -0.229403 0)
(-0.0496622 -0.215432 0)
(-0.0551195 -0.20152 0)
(-0.0603025 -0.184981 0)
(-0.0644433 -0.168584 0)
(-0.0683311 -0.149985 0)
(-0.0709777 -0.131453 0)
(-0.0734889 -0.11182 0)
(-0.0746941 -0.0924921 0)
(-0.0756964 -0.0730278 0)
(-0.0754243 -0.0539796 0)
(-0.074983 -0.0354178 0)
(-0.0733749 -0.0174045 0)
(-0.0717314 -0.000274729 0)
(-0.0690481 0.0162697 0)
(-0.0665024 0.0314838 0)
(-0.0631188 0.0462071 0)
(-0.00259263 -0.266155 0)
(-0.00693435 -0.263925 0)
(-0.0120917 -0.260042 0)
(-0.0164696 -0.253576 0)
(-0.0214258 -0.24604 0)
(-0.0258041 -0.235638 0)
(-0.0304301 -0.224653 0)
(-0.0347494 -0.210793 0)
(-0.0389272 -0.196753 0)
(-0.0430275 -0.18023 0)
(-0.0466134 -0.163889 0)
(-0.0502196 -0.145802 0)
(-0.0528096 -0.128093 0)
(-0.0552788 -0.109289 0)
(-0.0565666 -0.0908763 0)
(-0.0577114 -0.0720856 0)
(-0.0577301 -0.0537898 0)
(-0.0576375 -0.0357426 0)
(-0.0565505 -0.0183319 0)
(-0.0554714 -0.00166686 0)
(-0.0535843 0.0143169 0)
(-0.0518507 0.0291825 0)
(-0.049413 0.043512 0)
(-0.00156263 -0.261983 0)
(-0.00427108 -0.259705 0)
(-0.00724373 -0.255761 0)
(-0.00985964 -0.249244 0)
(-0.0127302 -0.241652 0)
(-0.0153994 -0.231301 0)
(-0.0181921 -0.22041 0)
(-0.020914 -0.206856 0)