/*--------------------------------*- C++ -*----------------------------------*\
| =========                 |                                                 |
| \\      /  F ield         | OpenFOAM: The Open Source CFD Toolbox           |
|  \\    /   O peration     | Version:  2012                                  |
|   \\  /    A nd           | Website:  www.openfoam.com                      |
|    \\/     M anipulation  |                                                 |
\*---------------------------------------------------------------------------*/
FoamFile
{
    version     2.0;
    format      ascii;
    class       volVectorField;
    location    "0.13";
    object      Uc;
}
// * * * * * * * * * * * * * * * * * * * * * * * * * * * * * * * * * * * * * //

dimensions      [0 1 -1 0 0 0 0];


internalField   nonuniform List<vector> 
2268
(
(0.0335676 -0.0158638 0)
(0.100937 -0.0159746 0)
(0.169136 -0.0162558 0)
(0.238692 -0.0166157 0)
(0.310069 -0.0171166 0)
(0.383978 -0.0178122 0)
(0.46074 -0.0184651 0)
(0.541162 -0.0195416 0)
(0.625768 -0.0204426 0)
(0.714761 -0.021615 0)
(0.809342 -0.0230833 0)
(0.910131 -0.0245489 0)
(1.0155 -0.0252457 0)
(1.1241 -0.0260801 0)
(1.23742 -0.027476 0)
(1.35765 -0.029343 0)
(1.48381 -0.0302763 0)
(1.6137 -0.0311089 0)
(1.7104 -0.014591 0)
(1.71826 0.0108765 0)
(1.59393 0.0478795 0)
(1.29148 0.0950535 0)
(0.545174 0.256039 0)
(0.0335086 -0.0475636 0)
(0.100769 -0.0479 0)
(0.168851 -0.0487361 0)
(0.23828 -0.0498184 0)
(0.309532 -0.0513195 0)
(0.38332 -0.0534098 0)
(0.45996 -0.0553645 0)
(0.540256 -0.0585958 0)
(0.624771 -0.0613141 0)
(0.713686 -0.0648215 0)
(0.808138 -0.0692124 0)
(0.908857 -0.0736514 0)
(1.0145 -0.0758617 0)
(1.12395 -0.0785161 0)
(1.23889 -0.082918 0)
(1.36244 -0.0891075 0)
(1.49208 -0.091401 0)
(1.61752 -0.0906476 0)
(1.70366 -0.0414626 0)
(1.7158 0.0282951 0)
(1.61626 0.136258 0)
(1.34425 0.278159 0)
(0.578965 0.784424 0)
(0.0333914 -0.07918 0)
(0.100427 -0.0797506 0)
(0.168271 -0.0811238 0)
(0.237449 -0.0829349 0)
(0.308449 -0.0854305 0)
(0.381992 -0.0889263 0)
(0.458384 -0.0921703 0)
(0.538414 -0.0975582 0)
(0.622725 -0.102138 0)
(0.711478 -0.107962 0)
(0.805681 -0.115229 0)
(0.90623 -0.122753 0)
(1.01225 -0.126788 0)
(1.123 -0.131657 0)
(1.24058 -0.139667 0)
(1.36942 -0.151633 0)
(1.50485 -0.15415 0)
(1.62544 -0.144167 0)
(1.69976 -0.0637744 0)
(1.72212 0.0342996 0)
(1.6698 0.202022 0)
(1.44978 0.444807 0)
(0.641615 1.35861 0)
(0.0332176 -0.110659 0)
(0.0999055 -0.111468 0)
(0.167395 -0.113364 0)
(0.236212 -0.11591 0)
(0.306838 -0.119388 0)
(0.380015 -0.124308 0)
(0.456044 -0.128822 0)
(0.535669 -0.136358 0)
(0.619651 -0.142873 0)
(0.70816 -0.151 0)
(0.80202 -0.161068 0)
(0.902262 -0.171806 0)
(1.00864 -0.178113 0)
(1.121 -0.185773 0)
(1.24189 -0.198251 0)
(1.37525 -0.216964 0)
(1.51339 -0.218107 0)
(1.62788 -0.191306 0)
(1.70081 -0.0862243 0)
(1.74896 0.0234271 0)
(1.75277 0.235658 0)
(1.59018 0.591072 0)
(0.722823 2.00061 0)
(0.0329837 -0.141945 0)
(0.0991957 -0.14299 0)
(0.166203 -0.145405 0)
(0.234538 -0.148686 0)
(0.304655 -0.153126 0)
(0.377322 -0.159494 0)
(0.452845 -0.165258 0)
(0.531904 -0.174915 0)
(0.615374 -0.183452 0)
(0.703497 -0.193895 0)
(0.796899 -0.206671 0)
(0.896692 -0.220738 0)
(1.00329 -0.229835 0)
(1.11722 -0.240992 0)
(1.24153 -0.25891 0)
(1.37825 -0.283948 0)
(1.51464 -0.28086 0)
(1.6237 -0.234201 0)
(1.7057 -0.115952 0)
(1.77956 -0.00395045 0)
(1.82512 0.238759 0)
(1.70772 0.719863 0)
(0.790369 2.71841 0)
(0.0326905 -0.172982 0)
(0.0983085 -0.174254 0)
(0.164713 -0.17719 0)
(0.232446 -0.181205 0)
(0.301931 -0.186581 0)
(0.373959 -0.194421 0)
(0.448856 -0.201419 0)
(0.527217 -0.21315 0)
(0.610011 -0.223793 0)
(0.697605 -0.236597 0)
(0.790465 -0.251996 0)
(0.889711 -0.269478 0)
(0.996468 -0.281927 0)
(1.11202 -0.29735 0)
(1.2399 -0.321735 0)
(1.37847 -0.351225 0)
(1.50949 -0.339957 0)
(1.6161 -0.277029 0)
(1.70932 -0.155352 0)
(1.79961 -0.0416028 0)
(1.86416 0.223621 0)
(1.75931 0.841118 0)
(0.816751 3.48632 0)
(0.0323317 -0.203712 0)
(0.0972253 -0.205204 0)
(0.162892 -0.208656 0)
(0.229884 -0.213409 0)
(0.298595 -0.219688 0)
(0.369822 -0.229016 0)
(0.443934 -0.237245 0)
(0.521441 -0.250986 0)
(0.60337 -0.263804 0)
(0.690253 -0.279043 0)
(0.782462 -0.297012 0)
(0.881115 -0.317987 0)
(0.987872 -0.334323 0)
(1.10458 -0.35472 0)
(1.23474 -0.386311 0)
(1.37254 -0.417261 0)
(1.49629 -0.394323 0)
(1.60374 -0.317588 0)
(1.71337 -0.204495 0)
(1.82386 -0.0869239 0)
(1.88851 0.208784 0)
(1.76334 0.965924 0)
(0.813454 4.26166 0)
(0.0319142 -0.234074 0)
(0.0959692 -0.235782 0)
(0.160783 -0.239743 0)
(0.226924 -0.245241 0)
(0.294754 -0.252384 0)
(0.365065 -0.263209 0)
(0.438294 -0.272683 0)
(0.514872 -0.288367 0)
(0.595825 -0.3034 0)
(0.681871 -0.321171 0)
(0.773354 -0.341695 0)
(0.871314 -0.366222 0)
(0.977952 -0.386936 0)
(1.09568 -0.412899 0)
(1.22646 -0.451448 0)
(1.36046 -0.480583 0)
(1.47907 -0.444512 0)
(1.58985 -0.363281 0)
(1.71581 -0.26366 0)
(1.8378 -0.136333 0)
(1.81826 0.2384 0)
(1.47227 1.15967 0)
(0.599603 4.93027 0)
(-0.044401 0.0188855 0)
(-0.0695144 -0.00820495 0)
(-0.051442 0.000516004 0)
(-0.02531 -0.0116329 0)
(0.0141418 -0.00514953 0)
(0.0410042 -0.00627756 0)
(0.0630133 -0.0030849 0)
(0.075732 -0.00232561 0)
(0.0830665 -0.000794449 0)
(0.0845759 0.000152295 0)
(0.0823276 0.00080408 0)
(0.0770182 0.00145449 0)
(0.0696063 0.00169853 0)
(0.0607124 0.00208498 0)
(0.0507299 0.00216166 0)
(0.0400786 0.00236951 0)
(0.0288989 0.00238647 0)
(0.017469 0.00247599 0)
(0.00582442 0.00247782 0)
(-0.0458194 0.0572598 0)
(-0.071973 -0.0247758 0)
(-0.0516531 0.00075288 0)
(-0.0234931 -0.0349662 0)
(0.0163018 -0.015527 0)
(0.0433957 -0.0188528 0)
(0.0653384 -0.00920633 0)
(0.0777619 -0.00689961 0)
(0.0847296 -0.00230454 0)
(0.0859012 0.000521743 0)
(0.0833373 0.00248166 0)
(0.0777646 0.00440604 0)
(0.0701535 0.00513778 0)
(0.0611045 0.0062787 0)
(0.051011 0.00650845 0)
(0.0402714 0.00712264 0)
(0.0290258 0.00717338 0)
(0.0175396 0.00743795 0)
(0.00584799 0.00744346 0)
(-0.0623845 0.103284 0)
(-0.0991484 -0.0440405 0)
(-0.0680175 -0.00187097 0)
(-0.031771 -0.0597411 0)
(0.0136733 -0.0270119 0)
(0.043449 -0.0315598 0)
(0.0660804 -0.0154607 0)
(0.0786128 -0.0112615 0)
(0.0852449 -0.00372801 0)
(0.0862176 0.00103287 0)
(0.0834862 0.00422302 0)
(0.0778524 0.00743181 0)
(0.0701764 0.00861515 0)
(0.0611042 0.0105101 0)
(0.0509849 0.0108757 0)
(0.0402434 0.0118936 0)
(0.0289971 0.0119708 0)
(0.0175217 0.0124088 0)
(0.00584033 0.0124159 0)
(-0.0687502 0.159061 0)
(-0.110362 -0.0664838 0)
(-0.0711016 -0.00937291 0)
(-0.0265367 -0.086616 0)
(0.0213063 -0.0398201 0)
(0.0513997 -0.0442194 0)
(0.0732228 -0.0217116 0)
(0.0847562 -0.0152481 0)
(0.090211 -0.0048832 0)
(0.0901027 0.00182015 0)
(0.0864218 0.00616334 0)
(0.0800184 0.010612 0)
(0.0717689 0.0122097 0)
(0.0622508 0.0148239 0)
(0.0518101 0.0153084 0)
(0.0408116 0.0167094 0)
(0.0293725 0.0168057 0)
(0.0177311 0.0174081 0)
(0.00591025 0.0174148 0)
(-0.104452 0.232733 0)
(-0.168536 -0.0952 0)
(-0.103988 -0.0248161 0)
(-0.0410526 -0.116902 0)
(0.0177808 -0.0549124 0)
(0.05259 -0.0567359 0)
(0.0750117 -0.0280164 0)
(0.0864566 -0.0187183 0)
(0.0912343 -0.00576602 0)
(0.0907549 0.00295271 0)
(0.0867376 0.00830543 0)
(0.0801887 0.0139796 0)
(0.0717956 0.0159218 0)
(0.0622228 0.019233 0)
(0.0517331 0.0198031 0)
(0.0407341 0.0215726 0)
(0.0292991 0.0216735 0)
(0.0176856 0.0224332 0)
(0.00589183 0.0224356 0)
(-0.114328 0.325792 0)
(-0.180475 -0.132867 0)
(-0.10039 -0.0486742 0)
(-0.0282133 -0.150518 0)
(0.0329422 -0.072337 0)
(0.0674742 -0.0688081 0)
(0.0877563 -0.03411 0)
(0.0969994 -0.0214254 0)
(0.099476 -0.00614505 0)
(0.097041 0.00457118 0)
(0.0914385 0.010779 0)
(0.0836448 0.0176071 0)
(0.0743419 0.019822 0)
(0.0640634 0.0237775 0)
(0.0530626 0.0244008 0)
(0.0416531 0.0265077 0)
(0.029908 0.0265993 0)
(0.0180258 0.0275028 0)
(0.00600553 0.0274969 0)
(-0.163596 0.444009 0)
(-0.256722 -0.183339 0)
(-0.134471 -0.0842722 0)
(-0.0373243 -0.186947 0)
(0.0333831 -0.0920001 0)
(0.071758 -0.0801584 0)
(0.0914269 -0.0397544 0)
(0.0996356 -0.0232051 0)
(0.101 -0.00599977 0)
(0.0980042 0.00673593 0)
(0.091892 0.0135974 0)
(0.0838513 0.0215244 0)
(0.0743269 0.0239137 0)
(0.0639625 0.0284673 0)
(0.0528983 0.0290975 0)
(0.041497 0.0315149 0)
(0.0297704 0.0315772 0)
(0.017941 0.0326122 0)
(0.00597263 0.0325926 0)
(-0.17374 0.587499 0)
(-0.259231 -0.250854 0)
(-0.100568 -0.136251 0)
(0.00568298 -0.221488 0)
(0.0645416 -0.112573 0)
(0.0969172 -0.0896818 0)
(0.110686 -0.0444552 0)
(0.114695 -0.0237021 0)
(0.11228 -0.00505644 0)
(0.106362 0.00958412 0)
(0.0980805 0.0168719 0)
(0.0883948 0.0257903 0)
(0.0776861 0.0282547 0)
(0.0664012 0.0333358 0)
(0.0546666 0.0339276 0)
(0.0427239 0.0366155 0)
(0.0305854 0.036629 0)
(0.0183972 0.0377778 0)
(0.00612517 0.0377391 0)
(0.0312032 -0.280522 0)
(0.0938312 -0.28256 0)
(0.15719 -0.287284 0)
(0.221856 -0.293961 0)
(0.288157 -0.302366 0)
(0.356848 -0.315506 0)
(0.428462 -0.326982 0)
(0.503362 -0.345551 0)
(0.582494 -0.36402 0)
(0.666787 -0.38595 0)
(0.756631 -0.410464 0)
(0.853 -0.440621 0)
(0.958382 -0.468866 0)
(1.07568 -0.504515 0)
(1.20308 -0.549704 0)
(1.33026 -0.573495 0)
(1.4448 -0.521784 0)
(1.55724 -0.449975 0)
(1.67362 -0.351288 0)
(1.76036 -0.190876 0)
(1.58909 0.475344 0)
(1.21753 1.45988 0)
(0.889643 5.3724 0)
(0.0299585 -0.342003 0)
(0.0900901 -0.34448 0)
(0.150903 -0.350184 0)
(0.212974 -0.358461 0)
(0.276611 -0.368481 0)
(0.342487 -0.384662 0)
(0.411221 -0.398907 0)
(0.483176 -0.421248 0)
(0.55917 -0.444258 0)
(0.640213 -0.471912 0)
(0.726907 -0.501962 0)
(0.820088 -0.539662 0)
(0.922298 -0.578502 0)
(1.03475 -0.625829 0)
(1.14795 -0.670246 0)
(1.27554 -0.671044 0)
(1.40487 -0.631132 0)
(1.52765 -0.5746 0)
(1.59253 -0.404828 0)
(1.51615 -0.145591 0)
(1.28679 0.833156 0)
(1.09487 1.66852 0)
(1.20583 5.38207 0)
(0.0284884 -0.400756 0)
(0.0856703 -0.403654 0)
(0.143468 -0.41024 0)
(0.202437 -0.420077 0)
(0.262887 -0.431599 0)
(0.325379 -0.450583 0)
(0.390576 -0.467616 0)
(0.458875 -0.493526 0)
(0.53098 -0.520852 0)
(0.607779 -0.553984 0)
(0.69017 -0.589857 0)
(0.77883 -0.634556 0)
(0.876239 -0.684269 0)
(0.980686 -0.738093 0)
(1.08779 -0.774373 0)
(1.20156 -0.766473 0)
(1.32666 -0.751163 0)
(1.44655 -0.693721 0)
(1.41017 -0.311527 0)
(1.16803 0.0816407 0)
(0.921837 1.084 0)
(0.878984 1.65372 0)
(1.24075 4.92182 0)
(0.0267885 -0.456321 0)
(0.0805609 -0.459622 0)
(0.13488 -0.466975 0)
(0.190259 -0.478287 0)
(0.247013 -0.491204 0)
(0.305616 -0.512705 0)
(0.36669 -0.532425 0)
(0.430706 -0.561723 0)
(0.498195 -0.592979 0)
(0.569951 -0.631187 0)
(0.646834 -0.67276 0)
(0.729723 -0.724098 0)
(0.819968 -0.783361 0)
(0.913522 -0.838036 0)
(1.00845 -0.872465 0)
(1.11515 -0.883534 0)
(1.22335 -0.863825 0)
(1.22438 -0.69851 0)
(0.948211 0.0081977 0)
(0.555523 0.400105 0)
(0.32053 1.24929 0)
(0.380961 1.47082 0)
(0.919156 4.20014 0)
(0.0248868 -0.508266 0)
(0.074843 -0.511947 0)
(0.125272 -0.519945 0)
(0.176617 -0.532596 0)
(0.229203 -0.546807 0)
(0.283415 -0.570506 0)
(0.339791 -0.592688 0)
(0.398863 -0.625191 0)
(0.460963 -0.659776 0)
(0.52691 -0.702811 0)
(0.597263 -0.749141 0)
(0.673326 -0.8075 0)
(0.753869 -0.871639 0)
(0.835357 -0.924383 0)
(0.920919 -0.966166 0)
(1.01259 -0.985704 0)
(1.03864 -0.891427 0)
(0.837519 -0.468026 0)
(0.395077 0.500167 0)
(0.0259898 0.673926 0)
(-0.107951 1.34638 0)
(-0.0198345 1.22445 0)
(0.545546 3.3372 0)
(0.0227938 -0.556196 0)
(0.0685409 -0.560221 0)
(0.114686 -0.568751 0)
(0.161578 -0.58254 0)
(0.20957 -0.597967 0)
(0.25892 -0.623448 0)
(0.310128 -0.647892 0)
(0.363672 -0.68319 0)
(0.419785 -0.720607 0)
(0.479185 -0.767981 0)
(0.542273 -0.818109 0)
(0.610448 -0.883523 0)
(0.680197 -0.946692 0)
(0.750188 -1.00027 0)
(0.824898 -1.04869 0)
(0.894334 -1.06042 0)
(0.783774 -0.72803 0)
(0.386179 -0.0291773 0)
(-0.00689339 0.901234 0)
(-0.182465 0.820395 0)
(-0.229183 1.38156 0)
(-0.176843 1.04813 0)
(0.241588 2.52461 0)
(0.0205577 -0.599774 0)
(0.0618063 -0.604093 0)
(0.103384 -0.61306 0)
(0.14553 -0.627734 0)
(0.188619 -0.64433 0)
(0.232741 -0.671044 0)
(0.278389 -0.697658 0)
(0.325846 -0.734953 0)
(0.375432 -0.775096 0)
(0.427568 -0.825609 0)
(0.482921 -0.87954 0)
(0.5422 -0.950211 0)
(0.602492 -1.01072 0)
(0.664566 -1.06913 0)
(0.727944 -1.11545 0)
(0.75286 -1.0834 0)
(0.522287 -0.360314 0)
(0.0764585 0.450994 0)
(-0.174806 1.0688 0)
(-0.220679 0.875463 0)
(-0.211739 1.3645 0)
(-0.158761 0.959357 0)
(0.102087 1.9306 0)
(0.0181646 -0.638698 0)
(0.054614 -0.643272 0)
(0.0913041 -0.652558 0)
(0.1284 -0.667893 0)
(0.166247 -0.68553 0)
(0.204817 -0.712967 0)
(0.244555 -0.741567 0)
(0.285582 -0.77999 0)
(0.328317 -0.822862 0)
(0.372779 -0.874946 0)
(0.419915 -0.933227 0)
(0.468525 -1.00498 0)
(0.522164 -1.06379 0)
(0.579019 -1.12899 0)
(0.623782 -1.1608 0)
(0.527927 -0.962586 0)
(0.184615 0.0963567 0)
(-0.145641 0.774486 0)
(-0.235958 1.0887 0)
(-0.22698 0.892675 0)
(-0.180862 1.29197 0)
(-0.112134 0.909568 0)
(0.0651043 1.54004 0)
(0.0156852 -0.672725 0)
(0.047193 -0.677557 0)
(0.0788487 -0.686975 0)
(0.110794 -0.702878 0)
(0.143243 -0.721208 0)
(0.176096 -0.749085 0)
(0.209588 -0.779063 0)
(0.243787 -0.818112 0)
(0.278987 -0.863083 0)
(0.315044 -0.915665 0)
(0.353135 -0.978179 0)
(0.392077 -1.04804 0)
(0.435832 -1.11196 0)
(0.482652 -1.1774 0)
(0.510844 -1.18232 0)
(0.320851 -0.651177 0)
(-0.0716461 0.524712 0)
(-0.271579 0.879108 0)
(-0.257036 1.06027 0)
(-0.222681 0.877565 0)
(-0.15419 1.1919 0)
(-0.0808037 0.866804 0)
(0.0458056 1.27738 0)
(0.0131293 -0.70169 0)
(0.039521 -0.706794 0)
(0.0659363 -0.716112 0)
(0.0924898 -0.732545 0)
(0.119212 -0.75102 0)
(0.145991 -0.779215 0)
(0.172821 -0.809569 0)
(0.199902 -0.849205 0)
(0.227169 -0.894783 0)
(0.254711 -0.947896 0)
(0.282826 -1.0125 0)
(0.311236 -1.08142 0)
(0.346602 -1.15844 0)
(0.385429 -1.21486 0)
(0.362516 -1.14645 0)
(0.0979722 -0.228876 0)
(-0.239159 0.835885 0)
(-0.316433 0.846608 0)
(-0.263312 1.02478 0)
(-0.220763 0.835776 0)
(-0.149052 1.09277 0)
(-0.0792462 0.822004 0)
(0.0178169 1.09736 0)
(0.0106131 -0.725557 0)
(0.0319302 -0.730886 0)
(0.0531649 -0.73992 0)
(0.0743262 -0.756702 0)
(0.0952715 -0.77478 0)
(0.115865 -0.803076 0)
(0.135919 -0.832837 0)
(0.155723 -0.873069 0)
(0.174853 -0.917558 0)
(0.19404 -0.972095 0)
(0.212338 -1.03496 0)
(0.232374 -1.1064 0)
(0.257245 -1.19355 0)
(0.274308 -1.2338 0)
(0.139267 -0.965365 0)
(-0.182485 0.17984 0)
(-0.367671 0.952234 0)
(-0.336244 0.776363 0)
(-0.275122 0.980201 0)
(-0.224614 0.786828 0)
(-0.156185 1.00087 0)
(-0.08808 0.775296 0)
(-0.00978083 0.9678 0)
(0.00827304 -0.744541 0)
(0.0247933 -0.749936 0)
(0.041006 -0.758512 0)
(0.0567816 -0.775239 0)
(0.0720058 -0.792601 0)
(0.0866599 -0.820686 0)
(0.100576 -0.849374 0)
(0.114195 -0.89013 0)
(0.127235 -0.932836 0)
(0.140825 -0.989766 0)
(0.153503 -1.04843 0)
(0.168653 -1.12704 0)
(0.183225 -1.21262 0)
(0.174354 -1.22197 0)
(-0.00480268 -0.658936 0)
(-0.287392 0.48102 0)
(-0.365627 0.915867 0)
(-0.314945 0.730209 0)
(-0.269192 0.918939 0)
(-0.219716 0.747602 0)
(-0.164018 0.915332 0)
(-0.104536 0.732591 0)
(-0.0414132 0.868355 0)
(0.00626983 -0.759161 0)
(0.0187341 -0.764453 0)
(0.0308136 -0.772436 0)
(0.0423153 -0.788736 0)
(0.0532492 -0.805401 0)
(0.0636242 -0.833051 0)
(0.0733281 -0.860762 0)
(0.0827356 -0.901914 0)
(0.0919528 -0.943499 0)
(0.10213 -1.00347 0)
(0.113408 -1.06034 0)
(0.135753 -1.15684 0)
(0.158297 -1.22479 0)
(0.128081 -1.17075 0)
(-0.05706 -0.342414 0)
(-0.274941 0.667623 0)
(-0.31027 0.843434 0)
(-0.281623 0.722913 0)
(-0.256741 0.855244 0)
(-0.21742 0.72205 0)
(-0.17387 0.84113 0)
(-0.123339 0.696218 0)
(-0.0709407 0.788614 0)
(0.00494518 -0.770857 0)
(0.0146463 -0.775943 0)
(0.0238771 -0.78342 0)
(0.0324993 -0.799347 0)
(0.0407257 -0.81589 0)
(0.0488269 -0.843738 0)
(0.0567556 -0.871461 0)
(0.0651688 -0.914258 0)
(0.0749801 -0.957167 0)
(0.0875736 -1.01985 0)
(0.106138 -1.08069 0)
(0.14444 -1.20461 0)
(0.181832 -1.24235 0)
(0.131511 -1.07296 0)
(-0.0546427 -0.0663114 0)
(-0.224494 0.781319 0)
(-0.260834 0.801795 0)
(-0.263907 0.738861 0)
(-0.253744 0.804081 0)
(-0.225142 0.704949 0)
(-0.18898 0.778116 0)
(-0.145065 0.664306 0)
(-0.100233 0.722798 0)
(0.00391894 -0.782597 0)
(0.0118558 -0.78754 0)
(0.0203939 -0.795256 0)
(0.0295299 -0.81083 0)
(0.0389883 -0.827613 0)
(0.0493301 -0.855959 0)
(0.0641053 -0.887655 0)
(0.0896765 -0.938296 0)
(0.145341 -1.00553 0)
(0.21745 -1.06301 0)
(0.284934 -1.12926 0)
(0.298836 -1.21167 0)
(0.21382 -1.18869 0)
(0.0823015 -0.944224 0)
(-0.0975224 0.172934 0)
(-0.250055 0.866206 0)
(-0.289503 0.793105 0)
(-0.294229 0.755404 0)
(-0.280657 0.763691 0)
(-0.251602 0.687394 0)
(-0.215073 0.722613 0)
(-0.173258 0.633642 0)
(-0.131734 0.666665 0)
(0.00545853 -0.794446 0)
(0.0166035 -0.799605 0)
(0.0300131 -0.809802 0)
(0.0448267 -0.824488 0)
(0.0623482 -0.844689 0)
(0.0829503 -0.872812 0)
(0.111311 -0.916115 0)
(0.150231 -0.975633 0)
(0.21235 -1.08636 0)
(0.297462 -1.13989 0)
(0.387156 -1.21041 0)
(0.375499 -1.1328 0)
(0.209402 -1.01514 0)
(0.0143341 -0.789567 0)
(-0.185212 0.399578 0)
(-0.327653 0.936125 0)
(-0.351203 0.786526 0)
(-0.340763 0.75625 0)
(-0.316652 0.724978 0)
(-0.281976 0.662055 0)
(-0.242544 0.671604 0)
(-0.200657 0.600522 0)
(-0.159551 0.616733 0)
(-0.000997881 -0.798947 0)
(-0.0040814 -0.803241 0)
(-0.00743811 -0.816305 0)
(-0.0109112 -0.829417 0)
(-0.0117505 -0.856559 0)
(-0.00898937 -0.884452 0)
(0.000687508 -0.942728 0)
(0.0162656 -1.00382 0)
(0.0385997 -1.14308 0)
(0.0874192 -1.21781 0)
(0.171462 -1.30715 0)
(0.236735 -1.08997 0)
(0.195288 -0.849323 0)
(-0.0157642 -0.547264 0)
(-0.283108 0.62646 0)
(-0.407495 0.977477 0)
(-0.416479 0.777892 0)
(-0.397917 0.73574 0)
(-0.361121 0.684273 0)
(-0.320003 0.626581 0)
(-0.275463 0.622677 0)
(-0.231437 0.563098 0)
(-0.189312 0.570501 0)
(-0.00976391 -0.788132 0)
(-0.0289331 -0.791693 0)
(-0.0475185 -0.805803 0)
(-0.0660639 -0.817792 0)
(-0.0845728 -0.848743 0)
(-0.103422 -0.876106 0)
(-0.122482 -0.941652 0)
(-0.140751 -1.0022 0)
(-0.157299 -1.15053 0)
(-0.160498 -1.25623 0)
(-0.148279 -1.3655 0)
(-0.0947057 -1.15109 0)
(-0.0994928 -0.741696 0)
(-0.357052 -0.18391 0)
(-0.606941 0.782934 0)
(-0.60343 0.942524 0)
(-0.533517 0.751611 0)
(-0.473373 0.682913 0)
(-0.411283 0.637707 0)
(-0.35785 0.578111 0)
(-0.304869 0.573126 0)
(-0.257519 0.520805 0)
(-0.213171 0.525878 0)
(-0.0139795 -0.764266 0)
(-0.0411633 -0.768966 0)
(-0.0676705 -0.783205 0)
(-0.0949612 -0.794318 0)
(-0.124029 -0.824396 0)
(-0.157048 -0.848321 0)
(-0.197831 -0.909289 0)
(-0.251463 -0.962297 0)
(-0.331415 -1.09344 0)
(-0.441685 -1.19927 0)
(-0.585007 -1.29068 0)
(-0.742305 -1.12164 0)
(-0.902201 -0.605601 0)
(-1.05247 0.0899446 0)
(-1.0277 0.73537 0)
(-0.834953 0.792809 0)
(-0.670154 0.665396 0)
(-0.5547 0.592623 0)
(-0.466056 0.576485 0)
(-0.396869 0.516082 0)
(-0.335629 0.520346 0)
(-0.283517 0.473612 0)
(-0.236739 0.481476 0)
(-0.0133314 -0.736812 0)
(-0.0414226 -0.740855 0)
(-0.0725874 -0.753343 0)
(-0.10715 -0.762005 0)
(-0.146442 -0.787995 0)
(-0.192714 -0.80502 0)
(-0.251283 -0.852724 0)
(-0.329694 -0.886136 0)
(-0.445323 -0.973007 0)
(-0.615238 -1.03806 0)
(-0.839831 -1.08206 0)
(-1.09518 -0.915465 0)
(-1.28622 -0.459014 0)
(-1.29463 0.102862 0)
(-1.12096 0.522984 0)
(-0.891091 0.580367 0)
(-0.707606 0.527742 0)
(-0.580644 0.486602 0)
(-0.487042 0.499316 0)
(-0.413311 0.449595 0)
(-0.351274 0.46292 0)
(-0.298255 0.425368 0)
(-0.252124 0.436335 0)
(-0.0165105 -0.706813 0)
(-0.0504687 -0.708479 0)
(-0.0867405 -0.71793 0)
(-0.126208 -0.723001 0)
(-0.170785 -0.742693 0)
(-0.222497 -0.751828 0)
(-0.285754 -0.783457 0)
(-0.366444 -0.795474 0)
(-0.476719 -0.836591 0)
(-0.6314 -0.848189 0)
(-0.834428 -0.842079 0)
(-1.04304 -0.68906 0)
(-1.16929 -0.366475 0)
(-1.16316 0.0126071 0)
(-1.03248 0.30731 0)
(-0.848248 0.379775 0)
(-0.692162 0.386996 0)
(-0.578756 0.385731 0)
(-0.490318 0.417205 0)
(-0.417723 0.384624 0)
(-0.356847 0.404343 0)
(-0.305118 0.378658 0)
(-0.259931 0.391258 0)
(-0.0184165 -0.671703 0)
(-0.0555181 -0.672156 0)
(-0.0943164 -0.678789 0)
(-0.13619 -0.680375 0)
(-0.183104 -0.69335 0)
(-0.236987 -0.695026 0)
(-0.300669 -0.71266 0)
(-0.376672 -0.708762 0)
(-0.46931 -0.719335 0)
(-0.584971 -0.693696 0)
(-0.723575 -0.65316 0)
(-0.865801 -0.525311 0)
(-0.959618 -0.309006 0)
(-0.95829 -0.0523609 0)
(-0.86908 0.151243 0)
(-0.74601 0.226939 0)
(-0.637046 0.273404 0)
(-0.54998 0.297811 0)
(-0.474944 0.340805 0)
(-0.410202 0.322977 0)
(-0.354948 0.349263 0)
(-0.307036 0.333585 0)
(-0.264485 0.348143 0)
(-0.0184019 -0.634691 0)
(-0.0556553 -0.634423 0)
(-0.0946618 -0.63831 0)
(-0.136537 -0.636668 0)
(-0.182891 -0.643303 0)
(-0.235194 -0.638333 0)
(-0.295434 -0.644788 0)
(-0.364907 -0.630402 0)
(-0.445033 -0.624034 0)
(-0.535475 -0.581821 0)
(-0.631321 -0.529365 0)
(-0.719007 -0.417996 0)
(-0.775023 -0.265707 0)
(-0.77922 -0.0927751 0)
(-0.73043 0.0529383 0)
(-0.657688 0.128414 0)
(-0.585423 0.189758 0)
(-0.518334 0.226503 0)
(-0.455949 0.273982 0)
(-0.399058 0.26754 0)
(-0.349156 0.299003 0)
(-0.304584 0.290887 0)
(-0.264386 0.307669 0)
(-0.0184176 -0.597679 0)
(-0.0556508 -0.596558 0)
(-0.0943339 -0.598079 0)
(-0.13518 -0.593745 0)
(-0.179228 -0.59535 0)
(-0.227488 -0.585199 0)
(-0.28131 -0.583268 0)
(-0.341784 -0.561299 0)
(-0.409327 -0.544699 0)
(-0.481913 -0.497278 0)
(-0.554087 -0.445012 0)
(-0.616028 -0.35194 0)
(-0.653627 -0.237659 0)
(-0.656112 -0.114105 0)
(-0.626188 -0.00485425 0)
(-0.579437 0.066094 0)
(-0.527592 0.127325 0)
(-0.476269 0.169913 0)
(-0.425501 0.216834 0)
(-0.377328 0.219083 0)
(-0.334203 0.253955 0)
(-0.294687 0.251414 0)
(-0.258651 0.270517 0)
(-0.0186599 -0.560407 0)
(-0.0562434 -0.558621 0)
(-0.0948582 -0.558313 0)
(-0.135032 -0.552067 0)
(-0.177431 -0.55013 0)
(-0.22252 -0.536583 0)
(-0.270927 -0.529122 0)
(-0.322646 -0.502667 0)
(-0.377056 -0.480742 0)
(-0.431835 -0.433207 0)
(-0.483549 -0.38455 0)
(-0.526225 -0.307239 0)
(-0.551983 -0.218671 0)
(-0.556434 -0.126119 0)
(-0.539872 -0.0395648 0)
(-0.510121 0.0239082 0)
(-0.4742 0.0812917 0)
(-0.436012 0.125976 0)
(-0.395465 0.168987 0)
(-0.355621 0.178461 0)
(-0.319043 0.214466 0)
(-0.284041 0.216004 0)
(-0.251619 0.23712 0)
(-0.0172388 -0.52432 0)
(-0.0519676 -0.522017 0)
(-0.0875984 -0.520284 0)
(-0.124596 -0.512522 0)
(-0.163499 -0.50795 0)
(-0.204492 -0.492233 0)
(-0.247727 -0.481353 0)
(-0.292657 -0.453283 0)
(-0.338303 -0.42955 0)
(-0.382685 -0.384721 0)
(-0.423398 -0.340126 0)
(-0.456423 -0.275566 0)
(-0.47668 -0.204086 0)
(-0.481516 -0.131365 0)
(-0.471588 -0.060942 0)
(-0.451512 -0.00479556 0)
(-0.425398 0.0476416 0)
(-0.3955 0.0911921 0)
(-0.362054 0.129398 0)
(-0.329371 0.14515 0)
(-0.29854 0.180022 0)
(-0.268141 0.184714 0)
(-0.239782 0.207318 0)
(-0.0167771 -0.490127 0)
(-0.0504294 -0.487472 0)
(-0.0845313 -0.484732 0)
(-0.119286 -0.475947 0)
(-0.154999 -0.469519 0)
(-0.191669 -0.452595 0)
(-0.22934 -0.439662 0)
(-0.267396 -0.411555 0)
(-0.305041 -0.387553 0)
(-0.34065 -0.346309 0)
(-0.372359 -0.305737 0)
(-0.397704 -0.25128 0)
(-0.41323 -0.1924 0)
(-0.418057 -0.133335 0)
(-0.412635 -0.0743975 0)
(-0.3993 -0.0249196 0)
(-0.380448 0.0225708 0)
(-0.357317 0.0629638 0)
(-0.330842 0.0974009 0)
(-0.304655 0.117978 0)
(-0.278729 0.150147 0)
(-0.252635 0.157809 0)
(-0.228067 0.181026 0)
(-0.0153806 -0.457801 0)
(-0.0462298 -0.454959 0)
(-0.0774514 -0.45158 0)
(-0.109124 -0.442324 0)
(-0.141398 -0.4348 0)
(-0.174127 -0.417554 0)
(-0.207187 -0.403603 0)
(-0.239883 -0.376493 0)
(-0.271539 -0.352954 0)
(-0.300964 -0.315534 0)
(-0.326625 -0.27884 0)
(-0.346944 -0.232272 0)
(-0.360044 -0.182629 0)
(-0.365257 -0.13301 0)
(-0.36259 -0.0828491 0)
(-0.353499 -0.0390056 0)
(-0.339538 0.00367885 0)
(-0.321459 0.0404374 0)
(-0.300398 0.07215 0)
(-0.279018 0.0954205 0)
(-0.256869 0.124386 0)
(-0.23461 0.134971 0)
(-0.213455 0.157907 0)
(-0.0142106 -0.428057 0)
(-0.0426606 -0.425097 0)
(-0.0713002 -0.421271 0)
(-0.100115 -0.411832 0)
(-0.129185 -0.40363 0)
(-0.158288 -0.386571 0)
(-0.187241 -0.372251 0)
(-0.215398 -0.346675 0)
(-0.242188 -0.324021 0)
(-0.266719 -0.290229 0)
(-0.287915 -0.257043 0)
(-0.304832 -0.216635 0)
(-0.315785 -0.174084 0)
(-0.320529 -0.131541 0)
(-0.319383 -0.0881467 0)
(-0.313157 -0.0490992 0)
(-0.302679 -0.0107879 0)
(-0.288573 0.0225574 0)
(-0.272025 0.0522306 0)
(-0.254647 0.0763854 0)
(-0.236106 0.102525 0)
(-0.21741 0.115669 0)
(-0.19924 0.137684 0)
(-0.0129673 -0.400738 0)
(-0.0388794 -0.397772 0)
(-0.0648378 -0.393715 0)
(-0.0907505 -0.384376 0)
(-0.116636 -0.375845 0)
(-0.142232 -0.359373 0)
(-0.167343 -0.345103 0)
(-0.191479 -0.321258 0)
(-0.214158 -0.299712 0)
(-0.234708 -0.26922 0)
(-0.252188 -0.239173 0)
(-0.265995 -0.203618 0)
(-0.27542 -0.166613 0)
(-0.28028 -0.129354 0)
(-0.280436 -0.091325 0)
(-0.276294 -0.0563372 0)
(-0.268507 -0.0219052 0)
(-0.257642 0.00857863 0)
(-0.244598 0.0364691 0)
(-0.230384 0.0603954 0)
(-0.214911 0.0843288 0)
(-0.199215 0.0992984 0)
(-0.183576 0.120073 0)
(-0.0116163 -0.376028 0)
(-0.0348194 -0.373114 0)
(-0.0580302 -0.36895 0)
(-0.0811281 -0.359878 0)
(-0.104094 -0.351239 0)
(-0.126654 -0.335575 0)
(-0.148615 -0.321585 0)
(-0.169539 -0.299481 0)
(-0.189007 -0.279122 0)
(-0.206591 -0.251476 0)
(-0.221654 -0.224201 0)
(-0.23376 -0.192539 0)
(-0.242044 -0.159888 0)
(-0.246392 -0.12682 0)
(-0.246961 -0.0931253 0)
(-0.244128 -0.0615435 0)
(-0.2383 -0.0303811 0)
(-0.229851 -0.00235464 0)
(-0.219467 0.0238574 0)
(-0.207778 0.0469741 0)
(-0.194933 0.0692888 0)
(-0.181782 0.085344 0)
(-0.168417 0.104875 0)
(-0.0104103 -0.353888 0)
(-0.031174 -0.351061 0)
(-0.0518644 -0.346876 0)
(-0.0723276 -0.338167 0)
(-0.0925166 -0.329572 0)
(-0.112178 -0.314803 0)
(-0.131129 -0.301233 0)
(-0.149052 -0.280785 0)
(-0.165604 -0.26161 0)
(-0.180404 -0.236434 0)
(-0.192882 -0.211558 0)
(-0.202805 -0.183036 0)
(-0.209901 -0.153928 0)
(-0.21412 -0.124165 0)
(-0.215349 -0.0939701 0)
(-0.213697 -0.0652032 0)
(-0.209455 -0.0368403 0)
(-0.202993 -0.0108791 0)
(-0.194839 0.0137507 0)
(-0.185398 0.0358446 0)
(-0.174859 0.0569159 0)
(-0.1639 0.0734843 0)
(-0.152562 0.0919052 0)
(-0.00911384 -0.334264 0)
(-0.0272856 -0.331551 0)
(-0.0453811 -0.327403 0)
(-0.0632528 -0.319109 0)
(-0.0808472 -0.310653 0)
(-0.0979306 -0.296789 0)
(-0.114346 -0.283698 0)
(-0.129828 -0.264742 0)
(-0.144073 -0.246696 0)
(-0.156867 -0.22361 0)
(-0.167854 -0.200795 0)
(-0.176792 -0.174837 0)
(-0.18321 -0.148542 0)
(-0.187031 -0.121466 0)
(-0.188311 -0.0941436 0)
(-0.187251 -0.0677517 0)
(-0.184099 -0.0417211 0)
(-0.179099 -0.0175167 0)
(-0.172596 0.00565773 0)
(-0.164883 0.0266971 0)
(-0.156203 0.0467472 0)
(-0.147032 0.0634204 0)
(-0.137429 0.0809213 0)
(-0.00795971 -0.317104 0)
(-0.0238174 -0.314509 0)
(-0.0395727 -0.310422 0)
(-0.0550761 -0.302545 0)
(-0.07026 -0.294271 0)
(-0.0849341 -0.28125 0)
(-0.0989546 -0.268644 0)
(-0.112107 -0.251014 0)
(-0.124156 -0.233996 0)
(-0.13488 -0.212669 0)
(-0.143937 -0.191587 0)
(-0.151227 -0.16773 0)
(-0.156631 -0.143764 0)
(-0.160145 -0.118868 0)
(-0.16171 -0.0938798 0)
(-0.161357 -0.0694318 0)
(-0.159222 -0.0453534 0)
(-0.155496 -0.0226532 0)
(-0.150454 -0.000808419 0)
(-0.144339 0.0192658 0)
(-0.13735 0.0384304 0)
(-0.129834 0.0549643 0)
(-0.121856 0.0717067 0)
(-0.00675782 -0.302312 0)
(-0.0202214 -0.299831 0)
(-0.0336021 -0.295816 0)
(-0.0467724 -0.288331 0)
(-0.0596748 -0.280255 0)
(-0.0721413 -0.267987 0)
(-0.0840469 -0.255848 0)
(-0.0952258 -0.239353 0)
(-0.105482 -0.223237 0)
(-0.114699 -0.203381 0)
(-0.122677 -0.183751 0)
(-0.129273 -0.161607 0)
(-0.134215 -0.139486 0)
(-0.137448 -0.116362 0)
(-0.13897 -0.0932813 0)
(-0.13889 -0.0704629 0)
(-0.137353 -0.0480121 0)
(-0.134509 -0.0265966 0)
(-0.13055 -0.00591101 0)
(-0.125646 0.0132944 0)
(-0.119979 0.0316812 0)
(-0.113793 0.0479414 0)
(-0.107174 0.0640573 0)
(-0.00566947 -0.289822 0)
(-0.0169646 -0.287438 0)
(-0.0281853 -0.283484 0)
(-0.0392193 -0.276337 0)
(-0.050004 -0.268443 0)
(-0.060405 -0.256816 0)
(-0.0703162 -0.245091 0)
(-0.079596 -0.229546 0)
(-0.0880854 -0.214202 0)
(-0.0956498 -0.195548 0)
(-0.102095 -0.177087 0)
(-0.107373 -0.156335 0)
(-0.111419 -0.135724 0)
(-0.114245 -0.114032 0)
(-0.115822 -0.0924946 0)
(-0.116156 -0.0709933 0)
(-0.115301 -0.0498843 0)
(-0.113352 -0.0295412 0)
(-0.110444 -0.00986779 0)
(-0.106718 0.00857871 0)
(-0.102317 0.0262763 0)
(-0.0974204 0.0422078 0)
(-0.0921087 0.0577988 0)
(-0.00453211 -0.27957 0)
(-0.0135749 -0.277251 0)
(-0.0225927 -0.273331 0)
(-0.0314983 -0.26645 0)
(-0.0402422 -0.258703 0)
(-0.0487104 -0.247591 0)
(-0.0568113 -0.236212 0)
(-0.0644398 -0.221431 0)
(-0.0714737 -0.206715 0)
(-0.0778341 -0.189038 0)
(-0.0833962 -0.171527 0)
(-0.0880874 -0.151873 0)
(-0.0917682 -0.132419 0)
(-0.0943868 -0.111863 0)
(-0.0959055 -0.0915505 0)
(-0.0963793 -0.0711249 0)
(-0.0958789 -0.0511137 0)
(-0.0944855 -0.0316706 0)
(-0.0923063 -0.0128511 0)
(-0.0894437 0.00494076 0)
(-0.0860121 0.022041 0)
(-0.0821477 0.0376375 0)
(-0.0779253 0.0527858 0)
(-0.00348063 -0.271517 0)
(-0.0104311 -0.26923 0)
(-0.0173727 -0.265312 0)
(-0.0242402 -0.258617 0)
(-0.0309899 -0.250965 0)
(-0.0375465 -0.240229 0)
(-0.0438528 -0.229094 0)
(-0.0498272 -0.214877 0)
(-0.0553681 -0.20063 0)
(-0.060383 -0.18369 0)
(-0.0647396 -0.166906 0)
(-0.0683955 -0.148103 0)
(-0.0713285 -0.12954 0)
(-0.0735535 -0.109873 0)
(-0.0750358 -0.0905232 0)
(-0.0757683 -0.070939 0)
(-0.0757662 -0.0518041 0)
(-0.0750664 -0.0330837 0)
(-0.0737284 -0.0149728 0)
(-0.0718191 0.00226639 0)
(-0.0694128 0.0188476 0)
(-0.0666046 0.0341241 0)
(-0.0634594 0.0488937 0)
(-0.00239801 -0.265609 0)
(-0.00718788 -0.26334 0)
(-0.0119789 -0.259412 0)
(-0.0167282 -0.252842 0)
(-0.021425 -0.245235 0)
(-0.0260384 -0.234732 0)
(-0.0305514 -0.223717 0)
(-0.0349362 -0.209842 0)
(-0.0391502 -0.19586 0)
(-0.0431598 -0.179389 0)
(-0.0468935 -0.163075 0)
(-0.0502526 -0.144883 0)
(-0.0530741 -0.126976 0)
(-0.0552834 -0.10798 0)
(-0.0568321 -0.0893691 0)
(-0.0577298 -0.0704541 0)
(-0.0579978 -0.0520214 0)
(-0.0576775 -0.0338913 0)
(-0.0568319 -0.0163596 0)
(-0.0555374 0.000433093 0)
(-0.0538781 0.0165945 0)
(-0.0519157 0.0315821 0)
(-0.0496863 0.0460334 0)
(-0.00146998 -0.261723 0)
(-0.00437199 -0.259497 0)
(-0.00721243 -0.255586 0)
(-0.0100035 -0.249091 0)
(-0.0127811 -0.241475 0)
(-0.0155516 -0.231072 0)
(-0.0183139 -0.220066 0)
(-0.0210445 -0.206342 0)