/*--------------------------------*- C++ -*----------------------------------*\
| =========                 |                                                 |
| \\      /  F ield         | OpenFOAM: The Open Source CFD Toolbox           |
|  \\    /   O peration     | Version:  2012                                  |
|   \\  /    A nd           | Website:  www.openfoam.com                      |
|    \\/     M anipulation  |                                                 |
\*---------------------------------------------------------------------------*/
FoamFile
{
    version     2.0;
    format      ascii;
    class       volScalarField;
    location    "0.13";
    object      volumeFraction1;
}
// * * * * * * * * * * * * * * * * * * * * * * * * * * * * * * * * * * * * * //

dimensions      [0 0 0 0 0 0 0];


internalField   nonuniform List<scalar> 
2268
(
1
1
1
1
1
1
1
1
1
1
1
1
1
1
1
1
1
1
1
1
1
1
0.813776
1
1
1
1
1
1
1
1
1
1
1
1
1
1
1
1
1
1
1
1
1
1
0.859125
1
1
1
1
1
1
1
1
1
1
1
1
1
1
1
1
1
1
1
1
1
0.973567
0.83034
1
1
1
1
1
1
1
1
1
1
1
1
1
1
1
1
1
1
1
1
0.968045
0.760546
0.686218
1
1
1
1
1
1
1
1
1
1
1
1
1
1
1
1
1
1
1
0.963767
0.752666
0.312872
0.303748
1
1
1
1
1
1
1
1
1
1
1
1
1
1
1
1
1
1
0.982255
0.738364
0.282899
0.0521302
0.0194362
1
1
1
1
1
1
1
1
1
1
1
1
1
1
1
1
1
1
0.800243
0.290947
0.0470717
0.00671231
0.000902708
1
1
1
1
1
1
1
1
1
1
1
1
1
1
1
1
1
0.927233
0.432914
0.0521351
0.00452463
0.000519227
7.40649e-05
3.49532e-27
2.10284e-25
1.44523e-29
8.31183e-29
3.79754e-31
4.69579e-33
4.14574e-35
3.83235e-37
3.12128e-39
2.43272e-41
1.89289e-43
1.39715e-45
9.2867e-48
5.38405e-50
2.59196e-52
9.94934e-55
2.8162e-57
5.24495e-60
9.55371e-63
7.7564e-25
4.50554e-23
4.92624e-27
2.0111e-26
1.00815e-28
1.36261e-30
1.27547e-32
1.21867e-34
1.0114e-36
8.00445e-39
6.27387e-41
4.63456e-43
3.07396e-45
1.77406e-47
8.49909e-50
3.24481e-52
9.13888e-55
1.69499e-57
1.53781e-60
1.11812e-22
4.50422e-21
1.32565e-24
2.28331e-24
1.13728e-26
1.89796e-28
1.92157e-30
1.91396e-32
1.6137e-34
1.27885e-36
9.96149e-39
7.30527e-41
4.80294e-43
2.75052e-45
1.30809e-47
4.96537e-50
1.39171e-52
2.57236e-55
2.32734e-58
6.92973e-21
2.54067e-19
2.3486e-22
1.54381e-22
9.74431e-25
1.76266e-26
1.97063e-28
2.08539e-30
1.87235e-32
1.57839e-34
1.28177e-36
9.61716e-39
6.39434e-41
3.66503e-43
1.73527e-45
6.52517e-48
1.80853e-50
3.29926e-53
2.94661e-56
4.0993e-19
9.34654e-18
2.42184e-20
6.95581e-21
5.44096e-23
1.11252e-24
1.35811e-26
1.51776e-28
1.39719e-30
1.19338e-32
9.723e-35
7.30778e-37
4.8456e-39
2.76837e-41
1.30362e-43
4.87621e-46
1.3432e-48
2.43724e-51
2.16489e-54
1.03473e-17
2.2186e-16
1.36557e-18
2.14175e-19
2.53761e-21
5.39858e-23
7.5373e-25
9.26921e-27
9.52941e-29
9.04724e-31
7.95373e-33
6.27547e-35
4.2948e-37
2.49196e-39
1.18034e-41
4.39759e-44
1.20016e-46
2.14555e-49
1.8738e-52
2.38585e-16
3.58056e-15
4.83231e-17
4.66178e-18
7.55258e-20
1.80385e-21
2.824e-23
3.73388e-25
3.97572e-27
3.87778e-29
3.45804e-31
2.76027e-33
1.89969e-35
1.10748e-37
5.25283e-40
1.95882e-42
5.33864e-45
9.52985e-48
8.29818e-51
2.51647e-15
3.99417e-14
1.11045e-15
7.26699e-17
1.80726e-18
4.74769e-20
8.89746e-22
1.36867e-23
1.72048e-25
1.92981e-27
1.9023e-29
1.62344e-31
1.17199e-33
7.03784e-36
3.40339e-38
1.27991e-40
3.49754e-43
6.2171e-46
5.37507e-49
1
1
1
1
1
1
1
1
1
1
1
1
1
1
1
1
0.986382
0.607172
0.0817638
0.00280359
0.000120063
1.11628e-05
2.121e-06
1
1
1
1
1
1
1
1
1
1
1
1
1
1
1
1
0.641435
0.0715492
0.00131215
5.35696e-05
4.50749e-06
1.64239e-07
9.3758e-09
1
1
1
1
1
1
1
1
1
1
1
1
1
1
1
0.791594
0.160099
0.00284727
1.40337e-09
1.40345e-09
9.87827e-08
1.27762e-08
3.21002e-10
1
1
1
1
1
1
1
1
1
1
1
1
1
1
0.975605
0.359299
0.0113428
5.09159e-05
8.16351e-08
1.40344e-09
2.21404e-09
7.78838e-10
2.12638e-10
1
1
1
1
1
1
1
1
1
1
1
1
1
1
0.7026
0.0824056
0.000692979
2.16795e-07
2.53352e-09
3.30752e-10
3.84748e-10
1.47674e-10
1.93833e-10
1
1
1
1
1
1
1
1
1
1
1
1
1
0.994485
0.356035
0.010244
1.80607e-05
1.43723e-09
2.59867e-10
1.26669e-10
1.25547e-10
4.552e-11
1.4994e-10
1
1
1
1
1
1
1
1
1
1
1
1
1
0.806669
0.127242
0.00138906
3.85445e-07
2.01206e-10
5.86662e-11
3.51036e-11
3.18323e-11
1.18953e-11
5.61728e-11
1
1
1
1
1
1
1
1
1
1
1
1
1
0.532369
0.0216864
5.39817e-05
5.01913e-09
1.67257e-11
1.5468e-11
7.50651e-12
6.70344e-12
2.38152e-12
1.01448e-11
1
1
1
1
1
1
1
1
1
1
1
1
0.975454
0.261808
0.00528219
2.47208e-06
2.43476e-10
8.81745e-13
3.51023e-12
1.32118e-12
1.18548e-12
3.86951e-13
1.36823e-12
1
1
1
1
1
1
1
1
1
1
1
1
0.791976
0.102275
0.000786959
9.27727e-08
9.05097e-15
8.8174e-13
6.48869e-13
1.95133e-13
1.76167e-13
5.24218e-14
1.4707e-13
1
1
1
1
1
1
1
1
1
1
1
1
0.582218
0.0292189
5.40494e-05
1.86291e-14
9.05279e-15
2.4343e-13
1.01698e-13
2.45374e-14
2.21979e-14
5.96682e-15
1.31508e-14
1
1
1
1
1
1
0.999999
0.999996
0.999981
0.99978
0.998814
0.995478
0.37134
0.0105939
4.40065e-06
1.30242e-24
3.16071e-15
3.25947e-14
1.35729e-14
2.69039e-15
2.37673e-15
5.77534e-16
1.00417e-15
0.999789
0.999733
0.999636
0.999325
0.998852
0.997422
0.995241
0.988811
0.978688
0.920345
0.839018
0.687846
0.173504
0.00829805
1.24805e-06
1.50781e-24
8.37942e-16
3.83678e-15
1.54095e-15
2.64314e-16
2.18306e-16
4.83663e-17
6.64709e-17
0.90877
0.899574
0.886653
0.854803
0.822363
0.755535
0.693423
0.573685
0.460267
0.274681
0.164395
0.0611642
0.0272384
0.0116086
2.42958e-06
1.30242e-24
1.5219e-16
4.15688e-16
1.5139e-16
2.37244e-17
1.74143e-17
3.56107e-18
3.85396e-18
0.24696
0.232861
0.214917
0.176982
0.145665
0.0950515
0.0603776
0.0129398
-4.94733e-22
-1.9964e-24
1.11721e-27
5.78868e-28
-6.41227e-31
0.0141044
0.000205888
1.50781e-24
3.98148e-17
4.34572e-17
1.3204e-17
1.95977e-18
1.2197e-18
2.33079e-19
1.9714e-19
3.14158e-38
1.34004e-38
3.16222e-38
-1.76302e-35
6.21894e-34
-3.22374e-33
-8.33849e-32
-3.11987e-30
5.18665e-13
-7.81631e-32
3.12343e-08
2.52647e-09
-1.30701e-28
0.0141037
0.000166666
1.30242e-24
1.18552e-17
4.62985e-18
1.04854e-18
1.48333e-19
7.58187e-20
1.36184e-20
8.95117e-21
4.18777e-21
2.1679e-20
1.15142e-18
4.65549e-17
1.23851e-15
2.30687e-14
2.94652e-13
2.46481e-12
1.24956e-11
6.43983e-27
4.25511e-07
1.17426e-05
-3.49308e-23
0.0111086
7.22801e-23
2.89527e-19
2.57391e-18
5.54126e-19
7.78741e-20
1.02533e-20
4.21403e-21
7.0751e-22
3.6303e-22
1.81074e-20
1.58254e-19
8.05296e-18
2.7708e-16
6.29431e-15
9.67157e-14
9.86856e-13
6.33933e-12
2.823e-11
4.05512e-09
3.31049e-06
6.35628e-05
8.27051e-05
0.000402708
1.51968e-22
1.18063e-19
4.89626e-18
7.37856e-20
5.59569e-21
6.50061e-22
2.09594e-22
3.25143e-23
1.32331e-23
2.31855e-20
2.57337e-19
1.29792e-17
4.27029e-16
9.22644e-15
1.33914e-13
1.2706e-12
7.72133e-12
9.04926e-11
3.46413e-08
6.46445e-06
5.91941e-05
7.20029e-05
3.7897e-05
3.3488e-05
1.61324e-24
6.44908e-18
1.04001e-20
3.98951e-22
3.78003e-23
9.31624e-24
1.31324e-24
4.32361e-25
1.38044e-20
1.86832e-19
1.01465e-17
3.45264e-16
7.52524e-15
1.06998e-13
9.68479e-13
7.03448e-12
4.27634e-10
1.25335e-07
4.26862e-07
4.26872e-07
1.91874e-05
3.7897e-05
3.15401e-05
1.42715e-24
6.55808e-18
1.20065e-21
2.8092e-23
2.03369e-24
3.68402e-25
4.62743e-26
1.25997e-26
2.42638e-21
3.91915e-20
2.1811e-18
7.55645e-17
1.67007e-15
2.37327e-14
2.03476e-13
9.93945e-13
1.80086e-12
2.31961e-15
1.81804e-07
5.67483e-06
8.85332e-06
4.85919e-06
1.67925e-06
1.61324e-24
3.04913e-18
1.02724e-22
1.86912e-24
1.03077e-25
1.29149e-26
1.42943e-27
3.25001e-28
1.73429e-26
2.16502e-24
1.23889e-22
4.26604e-21
9.72009e-20
1.54838e-18
1.94301e-17
1.21048e-16
1.21047e-16
2.31953e-15
8.62989e-20
8.62953e-20
8.62986e-20
4.50756e-07
2.47349e-07
1.42715e-24
4.45419e-19
7.08599e-24
1.10838e-25
4.84032e-27
4.05745e-28
3.87993e-29
7.38502e-30
7.55759e-27
1.22994e-24
9.41119e-23
4.22025e-21
1.24246e-19
2.63034e-18
4.06992e-17
4.59169e-16
3.72166e-15
1.6276e-14
2.32781e-14
1.92481e-14
9.55068e-15
9.55035e-15
7.86349e-09
1.61324e-24
4.45142e-20
4.16684e-25
5.5436e-27
2.03132e-28
1.16591e-29
9.35262e-31
1.47778e-31
4.88474e-30
9.09926e-28
7.93397e-26
4.26035e-24
1.56874e-22
4.17405e-21
8.22913e-20
1.2256e-18
1.38748e-17
1.23831e-16
9.3681e-16
6.71025e-15
7.28658e-14
8.48964e-13
4.34321e-12
1.42715e-24
2.78519e-21
2.31086e-26
2.25085e-28
7.28492e-30
3.10671e-31
2.02944e-32
2.60802e-33
1.71388e-33
3.03107e-31
2.49469e-29
1.25841e-27
4.33229e-26
1.07487e-24
1.97098e-23
2.71911e-22
2.81361e-21
2.20006e-20
1.27792e-19
4.09084e-19
5.61358e-19
2.35119e-19
2.04794e-21
4.74916e-20
1.3141e-22
1.18359e-27
7.22999e-30
2.15276e-31
7.65516e-33
4.04176e-34
4.10163e-35
7.8701e-39
1.64084e-36
1.61653e-34
9.92709e-33
4.23501e-31
1.3266e-29
3.14282e-28
5.75457e-27
8.2065e-26
9.23554e-25
8.17645e-24
5.71159e-23
3.07476e-22
1.20251e-21
2.04794e-21
2.07682e-21
4.44279e-24
4.88278e-29
1.81448e-31
5.14546e-33
1.70429e-34
7.45455e-36
5.83881e-37
6.42163e-42
1.34462e-39
1.33182e-37
8.25037e-36
3.57004e-34
1.14232e-32
2.7878e-31
5.30084e-30
7.91326e-29
9.36245e-28
8.73069e-27
6.40541e-26
3.61928e-25
1.14762e-24
1.59226e-24
1.10652e-24
9.98222e-26
1.40945e-30
3.5225e-33
9.83832e-35
3.31289e-36
1.26491e-37
7.68989e-39
7.56795e-48
1.52066e-45
1.4514e-43
8.73954e-42
3.73294e-40
1.20749e-38
3.08503e-37
6.43655e-36
1.12066e-34
1.66012e-33
2.10414e-32
2.29064e-31
2.12173e-30
1.64682e-29
1.03958e-28
5.03265e-28
1.06733e-27
2.59329e-32
5.28254e-35
1.49859e-36
5.45302e-38
1.93771e-39
9.55344e-41
3.02736e-52
8.32303e-50
1.0936e-47
9.10003e-46
5.37416e-44
2.3886e-42
8.28025e-41
2.29105e-39
5.13416e-38
9.41523e-37
1.41758e-35
1.75464e-34
1.77344e-33
1.44892e-32
9.22408e-32
2.59241e-31
2.86201e-31
2.75693e-34
6.06104e-37
1.80012e-38
7.42624e-40
2.6174e-41
1.1267e-42
7.11456e-58
1.89696e-55
2.39799e-53
1.90384e-51
1.06407e-49
4.43743e-48
1.43114e-46
3.65103e-45
7.4679e-44
1.23639e-42
1.65792e-41
1.79605e-40
1.54062e-39
1.00255e-38
4.47559e-38
1.14711e-37
3.22628e-37
1.52112e-36
5.17293e-39
1.69299e-40
8.26861e-42
3.0615e-43
1.24731e-44
1.65112e-66
6.49599e-64
1.23531e-61
1.50801e-59
1.32971e-57
9.00373e-56
4.88061e-54
2.17475e-52
8.14483e-51
2.6054e-49
7.21975e-48
1.75497e-46
3.78368e-45
7.33113e-44
1.28972e-42
2.08134e-41
3.06239e-40
2.03207e-39
3.11173e-41
1.23465e-42
7.48708e-44
3.06016e-45
1.26794e-46
1.91423e-71
7.51299e-69
1.41426e-66
1.6965e-64
1.46032e-62
9.59324e-61
5.0154e-59
2.14225e-57
7.62801e-56
2.29345e-54
5.86735e-53
1.28072e-51
2.37218e-50
3.69319e-49
4.79869e-48
5.40431e-47
6.4098e-46
1.08262e-44
1.23691e-43
6.90128e-45
5.50095e-46
2.59712e-47
1.1589e-48
1.42337e-78
8.10533e-76
2.25112e-73
4.05434e-71
5.33971e-69
5.47273e-67
4.56124e-65
3.17671e-63
1.89383e-61
9.83079e-60
4.5132e-58
1.85704e-56
6.93402e-55
2.38201e-53
7.61914e-52
2.30291e-50
6.67337e-49
1.86976e-47
2.58962e-46
2.91836e-47
3.28326e-48
1.86759e-49
9.39343e-51
5.43958e-83
3.53667e-80
1.122e-77
2.31e-75
3.48183e-73
4.08956e-71
3.91041e-69
3.12846e-67
2.14465e-65
1.28143e-63
6.78351e-62
3.22746e-60
1.39734e-58
5.57865e-57
2.08754e-55
7.51369e-54
2.67138e-52
9.3011e-51
1.50723e-49
9.13224e-50
1.5925e-50
1.13904e-51
6.70797e-53
4.47309e-89
3.12512e-86
1.07816e-83
2.44319e-81
4.09765e-79
5.3968e-77
5.80858e-75
5.22471e-73
4.00453e-71
2.65296e-69
1.54459e-67
8.07541e-66
3.9151e-64
1.84279e-62
8.83989e-61
4.46945e-59
2.38606e-57
1.32207e-55
7.45863e-54
2.08056e-52
6.30835e-53
5.92571e-54
4.22358e-55
3.69693e-95
3.94699e-92
2.06825e-89
7.07866e-87
1.78714e-84
3.54687e-82
5.78993e-80
8.00188e-78
9.60668e-76
1.02085e-73
9.77863e-72
8.57605e-70
6.98342e-68
5.35329e-66
3.91668e-64
2.78118e-62
1.94801e-60
1.35961e-58
9.4068e-57
3.22577e-55
2.05058e-55
2.64917e-56
2.35563e-57
5.08708e-100
6.83037e-97
4.49795e-94
1.9323e-91
6.11754e-89
1.52083e-86
3.10811e-84
5.37563e-82
8.07507e-80
1.07337e-77
1.28478e-75
1.40457e-73
1.42106e-71
1.34846e-69
1.21662e-67
1.06056e-65
9.03871e-64
7.50682e-62
5.8526e-60
3.19577e-58
5.55665e-58
1.03098e-58
1.17504e-59
1.01208e-105
1.69761e-102
1.39326e-99
7.44625e-97
2.92942e-94
9.05411e-92
2.30409e-89
4.98134e-87
9.41465e-85
1.59024e-82
2.45156e-80
3.50957e-78
4.73403e-76
6.10272e-74
7.64346e-72
9.48697e-70
1.17998e-67
1.45352e-65
1.70691e-63
1.8439e-61
1.25939e-60
3.54323e-61
5.30242e-62
9.224e-113
2.33138e-109
2.90417e-106
2.37309e-103
1.44018e-100
6.92953e-98
2.77542e-95
9.55158e-93
2.90563e-90
7.9582e-88
1.99166e-85
4.59703e-83
9.89947e-81
2.02145e-78
3.99332e-76
7.76856e-74
1.48713e-71
2.73024e-69
4.60559e-67
6.94082e-65
2.44806e-63
1.09769e-63
2.19809e-64
3.67125e-120
1.59113e-116
3.45037e-113
4.97619e-110
5.36779e-107
4.59574e-104
3.25626e-101
1.95976e-98
1.02582e-95
4.74791e-93
1.97424e-90
7.46627e-88
2.59815e-85
8.42168e-83
2.57792e-80
7.56381e-78
2.14558e-75
5.86981e-73
1.52455e-70
3.69739e-68
4.18392e-66
3.13371e-66
8.50818e-67
9.75791e-129
8.76773e-125
3.91107e-121
1.14642e-117
2.49514e-114
4.28711e-111
6.08787e-108
7.33615e-105
7.68178e-102
7.08508e-99
5.83497e-96
4.33191e-93
2.93011e-90
1.82406e-87
1.05636e-84
5.75581e-82
2.97298e-79
1.45793e-76
6.72823e-74
2.87946e-71
6.57191e-69
8.45758e-69
3.1332e-69
2.05045e-139
4.89e-135
5.38866e-131
3.66322e-127
1.75299e-123
6.40692e-120
1.89196e-116
4.71598e-113
1.02679e-109
2.01119e-106
3.62303e-103
6.11145e-100
9.75836e-97
1.489e-93
2.18613e-90
3.11248e-87
4.30598e-84
5.75709e-81
7.32309e-78
8.76917e-75
9.91592e-72
2.20952e-71
1.11616e-71
1.07924e-07
3.07039e-12
3.0708e-12
8.05372e-13
3.42395e-08
4.40314e-09
1.79527e-10
4.84177e-11
2.28188e-09
2.17076e-09
8.87542e-10
3.4524e-10
4.99434e-10
7.26037e-10
5.91521e-10
3.75998e-10
3.10221e-10
3.4049e-10
3.01838e-10
2.30447e-10
1.53396e-10
1.38194e-10
1.07269e-10
6.70528e-11
4.3897e-11
3.44669e-11
2.34601e-11
1.16391e-11
7.73476e-12
5.60707e-12
3.34078e-12
1.39494e-12
9.72754e-13
6.62229e-13
3.444e-13
1.26144e-13
9.45785e-14
6.05546e-14
2.74015e-14
9.03155e-15
7.47646e-15
4.49724e-15
1.7696e-15
5.33041e-16
4.94064e-16
2.7954e-16
9.60591e-17
2.67299e-17
2.8071e-17
1.4879e-17
4.48537e-18
1.16107e-18
1.4004e-18
6.906e-19
1.8477e-19
4.45299e-20
6.21894e-20
2.82423e-20
6.80475e-21
1.53004e-21
2.48066e-21
1.02832e-21
2.26468e-22
4.74153e-23
8.89887e-23
3.3534e-23
6.82459e-24
1.33037e-24
2.87293e-24
9.83788e-25
1.86666e-25
3.39262e-26
8.31154e-26
2.59523e-26
4.62113e-27
7.85897e-28
2.14381e-27
6.14729e-28
1.03261e-28
1.65287e-29
4.91769e-29
1.3033e-29
2.07757e-30
3.14886e-31
1.00067e-30
2.46798e-31
3.75748e-32
5.42946e-33
1.80363e-32
4.1657e-33
6.09766e-34
8.45361e-35
2.87097e-34
6.24873e-35
8.84821e-36
1.18491e-36
4.04522e-36
8.3393e-37
1.14821e-37
1.49481e-38
5.0617e-38
9.90432e-39
1.33089e-39
1.69505e-40
5.67474e-40
1.05081e-40
1.38e-41
1.72978e-42
5.78096e-42
1.00238e-42
1.28397e-43
1.59145e-44
5.45349e-44
8.68865e-45
1.07894e-45
1.32554e-46
4.85781e-46
6.94805e-47
8.27317e-48
1.00585e-48
4.13219e-48
5.21656e-49
5.86924e-50
7.01803e-51
3.3527e-50
3.73622e-51
3.9163e-52
4.5589e-53
2.56438e-52
2.57377e-53
2.49608e-54
2.79913e-55
1.82233e-54
1.7018e-55
1.53566e-56
1.64883e-57
1.19055e-56
1.07101e-57
9.14767e-59
9.42493e-60
7.11694e-59
6.35516e-60
5.25711e-61
5.25268e-62
3.89985e-61
3.53774e-62
2.89905e-63
2.85293e-64
1.97072e-63
1.84696e-64
1.528e-65
1.50516e-66
9.27914e-66
9.08961e-67
7.70003e-68
7.69918e-69
4.12167e-68
4.25247e-69
3.72515e-70
3.82088e-71
1.75241e-70
1.91263e-71
1.74327e-72
1.8472e-73
7.22019e-73
8.34771e-74
7.94026e-75
8.72283e-76
2.77349e-13
4.85165e-13
2.59655e-14
1.29118e-15
4.19531e-17
1.20954e-18
2.62609e-20
4.52203e-22
6.09728e-24
7.26769e-26
7.38693e-28
6.45191e-30
4.71372e-32
2.86775e-34
1.40068e-36
5.33831e-39
1.47694e-41
2.6652e-44
2.33615e-47
2.19095e-11
4.5309e-12
3.66287e-13
2.13823e-14
8.81072e-16
2.95941e-17
7.94087e-19
1.76703e-20
3.20838e-22
4.79576e-24
5.87222e-26
5.89999e-28
4.82387e-30
3.17752e-32
1.64833e-34
6.51842e-37
1.84872e-39
3.36614e-42
2.95741e-45
1.05458e-10
1.64295e-11
1.4543e-12
8.25446e-14
3.09596e-15
8.78539e-17
1.90199e-18
3.33912e-20
4.71646e-22
5.54367e-24
5.37901e-26
4.38256e-28
2.94907e-30
1.63978e-32
7.29607e-35
2.53291e-37
6.39867e-40
1.05779e-42
8.53532e-46
1.28135e-10
2.08291e-11
1.99306e-12
1.21763e-13
4.91072e-15
1.41799e-16
3.04347e-18
5.08069e-20
6.75594e-22
7.33193e-24
6.54803e-26
4.84684e-28
2.95948e-30
1.4783e-32
5.9124e-35
1.83261e-37
4.14274e-40
6.10782e-43
4.41628e-46
6.76176e-11
8.47678e-12
6.46199e-13
3.21773e-14
1.07742e-15
2.66943e-17
5.06199e-19
7.8015e-21
9.64176e-23
9.92506e-25
8.35683e-27
5.88033e-29
3.37661e-31
1.58892e-33
5.93361e-36
1.72139e-38
3.63029e-41
5.035e-44
3.45822e-47
1.44967e-11
1.5001e-12
9.74375e-14
4.4772e-15
1.45354e-16
3.60227e-18
6.84798e-20
1.04299e-21
1.27651e-23
1.28604e-25
1.06418e-27
7.30619e-30
4.12112e-32
1.90114e-34
7.00548e-37
2.00238e-39
4.17938e-42
5.70731e-45
3.8397e-48
2.00786e-12
1.74389e-13
9.69794e-15
4.01502e-16
1.19489e-17
2.79255e-19
5.01451e-21
7.3282e-23
8.56541e-25
8.32878e-27
6.61914e-29
4.40127e-31
2.39541e-33
1.07347e-35
3.83234e-38
1.06681e-40
2.1637e-43
2.88193e-46
1.88808e-49
1.99301e-13
1.52664e-14
7.5755e-16
2.91658e-17
8.16451e-19
1.83703e-20
3.19452e-22
4.57314e-24
5.25476e-26
5.03914e-28
3.95638e-30
2.59541e-32
1.39481e-34
6.15175e-37
2.1629e-39
5.90856e-42
1.17721e-44
1.53572e-47
9.87235e-51
1.53001e-14
1.05184e-15
4.64972e-17
1.65545e-18
4.28622e-20
9.14279e-22
1.50745e-23
2.07737e-25
2.29352e-27
2.1344e-29
1.62104e-31
1.03591e-33
5.40365e-36
2.32569e-38
7.95412e-41
2.12265e-43
4.12256e-46
5.26055e-49
3.30488e-52
9.5055e-16
6.00304e-17
2.40172e-18
8.00171e-20
1.93404e-21
3.93433e-23
6.19101e-25
8.25381e-27
8.82633e-29
8.01785e-31
5.94903e-33
3.727e-35
1.90698e-37
8.05639e-40
2.7064e-42
7.08849e-45
1.35258e-47
1.69366e-50
1.04577e-53
4.91447e-17
2.87742e-18
1.03896e-19
3.23922e-21
7.25823e-23
1.40182e-24
2.08626e-26
2.67318e-28
2.74055e-30
2.41253e-32
1.73057e-34
1.05577e-36
5.24822e-39
2.16516e-41
7.08903e-44
1.81679e-46
3.38829e-49
4.16003e-52
2.51878e-55
2.17563e-18
1.19364e-19
3.91109e-21
1.14864e-22
2.39805e-24
4.41244e-26
6.22844e-28
7.68394e-30
7.57023e-32
6.4672e-34
4.49827e-36
2.67684e-38
1.29765e-40
5.23764e-43
1.67833e-45
4.21591e-48
7.71467e-51
9.29814e-54
5.5367e-57
8.3325e-20
4.30552e-21
1.27171e-22
3.52616e-24
6.8176e-26
1.19516e-27
1.59163e-29
1.88728e-31
1.77742e-33
1.4698e-35
9.86207e-38
5.70979e-40
2.68693e-42
1.05897e-44
3.3092e-47
8.14043e-50
1.45843e-52
1.72633e-55
1.0106e-58
2.80668e-21
1.37572e-22
3.65826e-24
9.64748e-26
1.73069e-27
2.90119e-29
3.65076e-31
4.16821e-33
3.75641e-35
3.00959e-37
1.95e-39
1.09915e-41
5.02788e-44
1.93633e-46
5.91119e-49
1.42516e-51
2.50482e-54
2.91412e-57
1.68035e-60
8.60608e-23
3.90092e-24
9.20861e-26
2.32847e-27
3.84534e-29
6.19026e-31
7.32326e-33
8.06643e-35
6.93218e-37
5.38453e-39
3.36031e-41
1.84444e-43
8.18654e-46
3.08186e-48
9.1824e-51
2.17149e-53
3.74413e-56
4.28764e-59
2.43801e-62
2.43973e-24
1.0241e-25
2.08747e-27
5.06637e-29
7.67737e-31
1.1956e-32
1.32967e-34
1.41798e-36
1.16266e-38
8.77253e-41
5.27662e-43
2.82387e-45
1.2172e-47
4.48364e-50
1.30528e-52
3.03084e-55
5.134e-58
5.79377e-61
3.25443e-64
6.38764e-26
2.48438e-27
4.46606e-29
1.01971e-30
1.35503e-32
2.06107e-34
2.13777e-36
2.22225e-38
1.73173e-40
1.27422e-42
7.37404e-45
3.85784e-47
1.61416e-49
5.83071e-52
1.65945e-54
3.79168e-57
6.31919e-60
7.04477e-63
3.91849e-66
1.54508e-27
5.57556e-29
9.00645e-31
1.93751e-32
2.29926e-34
3.31949e-36
3.12447e-38
3.19303e-40
2.36173e-42
1.70249e-44
9.48148e-47
4.86261e-49
1.97655e-51
7.01541e-54
1.95413e-56
4.40118e-59
7.2269e-62
7.9724e-65
4.39875e-68
3.44043e-29
1.15611e-30
1.70412e-32
3.46291e-34
3.72835e-36
5.12329e-38
4.36862e-40
4.28344e-42
2.90002e-44
2.06313e-46
1.10217e-48
5.57238e-51
2.19926e-53
7.70153e-56
2.10196e-58
4.68321e-61
7.59537e-64
8.32164e-67
4.57276e-70
7.03853e-31
2.21209e-32
3.02032e-34
5.80961e-36
5.76126e-38
7.54478e-40
5.91114e-42
5.56521e-44
3.48799e-46
2.39159e-48
1.19404e-50
5.96062e-53
2.28401e-55
7.92172e-58
2.12069e-60
4.68742e-63
7.51991e-66
8.19912e-69
4.49277e-72
1.3192e-32
3.89255e-34
4.99539e-36
9.11721e-38
8.44651e-40
1.05631e-41
7.70583e-44
6.97667e-46
4.09377e-48
2.70995e-50
1.27626e-52
6.18433e-55
2.2588e-57
7.6818e-60
1.99039e-62
4.38241e-65
6.97013e-68
7.5935e-71
4.15743e-74
2.26054e-34
6.29178e-36
7.69723e-38
1.33671e-39
1.17258e-41
1.40312e-43
9.65201e-46
8.41428e-48
4.67195e-50
2.99087e-52
1.34079e-54
6.31925e-57
2.21662e-59
7.40549e-62
1.8631e-64
4.05445e-67
6.35015e-70
6.90584e-73
3.77495e-76
3.52855e-36
9.31958e-38
1.10087e-39
1.82628e-41
1.53574e-43
1.76378e-45
1.15767e-47
9.73954e-50
5.16958e-52
3.20839e-54
1.38125e-56
6.34931e-59
2.1547e-61
7.08942e-64
1.74377e-66
3.75982e-69
5.8256e-72
6.3397e-75
3.47007e-78
4.99874e-38
1.26328e-39
1.45884e-41
2.32413e-43
1.89533e-45
2.09703e-47
1.32803e-49
1.08103e-51
5.53892e-54
3.34169e-56
1.39357e-58
6.26724e-61
2.07264e-63
6.73565e-66
1.63065e-68
3.49422e-71
5.3795e-74
5.87089e-77
3.22551e-80
6.41809e-40
1.56552e-41
1.78736e-43
2.75184e-45
2.19931e-47
2.35562e-49
1.45425e-51
1.14964e-53
5.73947e-56
3.37846e-58
1.37645e-60
6.08005e-63
1.97365e-65
6.35724e-68
1.52463e-70
3.2578e-73
5.00349e-76
5.48566e-79
3.02994e-82
7.45404e-42
1.77219e-43
2.02226e-45
3.031e-47
2.39853e-49
2.5012e-51
1.52033e-53
1.17236e-55
5.75538e-58
3.31936e-60
1.33243e-62
5.80612e-65
1.86315e-67
5.96987e-70
1.4269e-72
3.04968e-75
4.68794e-78
5.16741e-81
2.87062e-84
7.83692e-44
1.83506e-45
2.11455e-47
3.10934e-49
2.45939e-51
2.51289e-53
1.51796e-55
1.1479e-57
5.59088e-60
3.17531e-62
1.2663e-64
5.47032e-67
1.74728e-69
5.58991e-72
1.33864e-74
2.86877e-77
4.42399e-80
4.90179e-83
2.73688e-86
7.46513e-46
1.74047e-47
2.04552e-49
2.9756e-51
2.3747e-53
2.39403e-55
1.45047e-57
1.08216e-59
5.27565e-62
2.96689e-64
1.18502e-66
5.1001e-69
1.6319e-71
5.22916e-74
1.25978e-76
2.71075e-79
4.19855e-82
4.67033e-85
2.61655e-88
6.46533e-48
1.51795e-49
1.83648e-51
2.66609e-53
2.16617e-55
2.17081e-57
1.33086e-59
9.86047e-62
4.8526e-64
2.71816e-66
1.0955e-68
4.71927e-71
1.52093e-73
4.89298e-76
1.18891e-78
2.56927e-81
3.99678e-84
4.45476e-87
2.49864e-90
5.11932e-50
1.22356e-51
1.53712e-53
2.24683e-55
1.87504e-57
1.8824e-59
1.17792e-61
8.72659e-64
4.37009e-66
2.45228e-68
1.00374e-70
4.34474e-73
1.41605e-75
4.57924e-78
1.12329e-80
2.43585e-83
3.80212e-86
4.23635e-89
2.37297e-92
3.73868e-52
9.18552e-54
1.2077e-55
1.79319e-57
1.5499e-59
1.57103e-61
1.01151e-63
7.54421e-66
3.87106e-68
2.18748e-70
9.13675e-73
3.98483e-75
1.31651e-77
4.28001e-80
1.05945e-82
2.30183e-85
3.59951e-88
3.99991e-91
2.23226e-94
2.54797e-54
6.48343e-56
8.98543e-58
1.36636e-59
1.23258e-61
1.27096e-63
8.47912e-66
6.40642e-68
3.38637e-70
1.93501e-72
8.27157e-75
3.64013e-77
1.21996e-79
3.98422e-82
9.93839e-85
2.15951e-87
3.37703e-90
3.73496e-93
2.07238e-96
1.6428e-56
4.35255e-58
6.39711e-60
1.00349e-61
9.50904e-64
1.00421e-65
6.97913e-68
5.36987e-70
2.93362e-72
1.69988e-74
7.44362e-77
3.30664e-79
1.12349e-81
3.68157e-84
9.23749e-87
2.00395e-89
3.12833e-92
3.43785e-95
1.89332e-98
1.0157e-58
2.81276e-60
4.4049e-62
7.17039e-64
7.17181e-66
7.79978e-68
5.66558e-70
4.45635e-72
2.51916e-74
1.48253e-76
6.64609e-79
2.979e-81
1.02477e-83
3.36511e-86
8.47765e-89
1.83346e-91
2.85294e-94
3.11131e-97
1.6985e-100
6.08756e-61
1.76915e-62
2.96117e-64
5.02587e-66
5.32046e-68
5.98333e-70
4.54743e-72
3.66569e-74
2.14291e-76
1.28153e-78
5.87216e-81
2.65393e-83
9.22816e-86
3.03347e-88
7.6609e-91
1.64995e-93
2.55612e-96
2.76388e-99
1.49422e-102
3.55778e-63
1.09111e-64
1.95564e-66
3.47399e-68
3.89599e-70
4.54266e-72
3.6102e-74
2.98643e-76
1.80237e-78
1.0953e-80
5.1201e-83
2.33151e-85
8.18228e-88
2.69051e-90
6.80305e-93
1.45811e-95
2.2471e-98
2.40766e-101
1.28816e-104
2.03062e-65
6.62212e-67
1.27262e-68
2.37395e-70
2.81913e-72
3.41371e-74
2.83217e-76
2.40564e-78
1.49571e-80
9.23445e-83
4.39575e-85
2.01568e-87
7.13068e-90
2.34456e-92
5.93025e-95
1.26439e-97
1.93728e-100
2.0561e-103
1.08818e-106
1.13021e-67
3.95471e-69
8.16059e-71
1.60347e-72
2.01435e-74
2.53571e-76
2.19187e-78
1.91212e-80
1.22233e-82
7.66563e-85
3.71014e-87
1.71266e-89
6.10188e-92
2.00593e-94
5.07253e-97
1.07571e-99
1.63808e-102
1.72186e-105
9.01183e-109
6.1273e-70
2.32141e-71
5.15226e-73
1.06947e-74
1.41977e-76
1.85928e-78
1.67144e-80
1.49771e-82
9.82713e-85
6.25981e-87
3.0769e-89
1.4297e-91
5.1268e-94
1.68521e-96
4.25895e-99
8.98331e-102
1.3593e-104
1.41501e-107
7.32243e-111
3.23687e-72
1.33845e-73
3.20091e-75
7.03722e-77
9.86439e-79
1.3446e-80
1.25523e-82
1.15539e-84
7.77115e-87
5.02827e-89
2.50787e-91
1.17301e-93
4.23189e-96
1.39116e-98
3.51296e-101
7.37073e-104
1.10812e-106
1.14242e-109
5.84467e-113
1.67118e-74
7.58916e-76
1.95856e-77
4.57022e-79
6.75953e-81
9.594e-83
9.28935e-85
8.78348e-87
6.04947e-89
3.97638e-91
2.01094e-93
9.4689e-96
3.4358e-98
1.1298e-100
2.85025e-103
5.94965e-106
8.88695e-109
9.07455e-112
4.58977e-115
8.43737e-77
4.22292e-78
1.17643e-79
2.9166e-81
4.54659e-83
6.71849e-85
6.73805e-87
6.54288e-89
4.60929e-91
3.07756e-93
1.57696e-95
7.47525e-98
2.72711e-100
8.97155e-103
2.26084e-105
4.69583e-108
6.96875e-111
7.04874e-114
3.5249e-117
)
;

boundaryField
{
    leftWall
    {
        type            zeroGradient;
    }
    rightWall
    {
        type            zeroGradient;
    }
    lowerWall
    {
        type            zeroGradient;
    }
    atmosphere
    {
        type            inletOutlet;
        inletValue      uniform 0;
        value           nonuniform List<scalar> 
46
(
0
0
0
0
0
0
0
0
0
0
0
0
0
0
0
0
0
0
0
0
9.91592e-72
2.20952e-71
1.11616e-71
7.22019e-73
8.34771e-74
7.94026e-75
8.72283e-76
8.43737e-77
4.22292e-78
1.17643e-79
2.9166e-81
4.54659e-83
6.71849e-85
6.73805e-87
6.54288e-89
4.60929e-91
3.07756e-93
1.57696e-95
7.47525e-98
2.72711e-100
8.97155e-103
2.26084e-105
4.69583e-108
6.96875e-111
7.04874e-114
3.5249e-117
)
;
    }
    defaultFaces
    {
        type            empty;
    }
}


// ************************************************************************* //
