/*--------------------------------*- C++ -*----------------------------------*\
| =========                 |                                                 |
| \\      /  F ield         | OpenFOAM: The Open Source CFD Toolbox           |
|  \\    /   O peration     | Version:  2012                                  |
|   \\  /    A nd           | Website:  www.openfoam.com                      |
|    \\/     M anipulation  |                                                 |
\*---------------------------------------------------------------------------*/
FoamFile
{
    version     2.0;
    format      ascii;
    class       volScalarField;
    location    "0.41";
    object      minKappa;
}
// * * * * * * * * * * * * * * * * * * * * * * * * * * * * * * * * * * * * * //

dimensions      [0 0 0 0 0 0 0];


internalField   nonuniform List<scalar> 
2268
(
6.35578e-07
1.49886e-06
2.34173e-06
3.21573e-06
4.08545e-06
4.98675e-06
5.80647e-06
6.51399e-06
7.33557e-06
7.88611e-06
8.50499e-06
9.02943e-06
9.4262e-06
9.6683e-06
9.78982e-06
9.72625e-06
9.50068e-06
9.02095e-06
8.29247e-06
7.21277e-06
5.70011e-06
3.94444e-06
1.92059e-06
6.35578e-07
1.49886e-06
2.34173e-06
3.21573e-06
4.08545e-06
4.98675e-06
5.80647e-06
6.51399e-06
7.33557e-06
7.88611e-06
8.50499e-06
9.02943e-06
9.4262e-06
9.6683e-06
9.78982e-06
9.72625e-06
9.50068e-06
9.02095e-06
8.29247e-06
7.21277e-06
5.70011e-06
3.94444e-06
1.92059e-06
9.8015e-07
1.67806e-06
2.45615e-06
3.30701e-06
4.15978e-06
5.04516e-06
5.84783e-06
6.56643e-06
7.37967e-06
7.92531e-06
8.55999e-06
9.07577e-06
9.44335e-06
9.7248e-06
9.8772e-06
9.82386e-06
9.6027e-06
9.14211e-06
8.47057e-06
7.47136e-06
6.05344e-06
4.39095e-06
2.62e-06
1.38051e-06
1.94569e-06
2.63695e-06
3.45122e-06
4.2791e-06
5.13912e-06
5.91562e-06
6.65104e-06
7.44853e-06
7.98931e-06
8.65286e-06
9.12889e-06
9.5116e-06
9.80918e-06
9.98199e-06
9.94926e-06
9.73996e-06
9.30939e-06
8.69244e-06
7.83011e-06
6.60022e-06
5.35067e-06
3.90275e-06
1.79877e-06
2.27508e-06
2.87419e-06
3.64319e-06
4.442e-06
5.27077e-06
6.01517e-06
6.77068e-06
7.54117e-06
8.08112e-06
8.77607e-06
9.2052e-06
9.62471e-06
9.91966e-06
1.01069e-05
1.01049e-05
9.94557e-06
9.56413e-06
9.02174e-06
8.28988e-06
7.25519e-06
6.36717e-06
5.19566e-06
2.22471e-06
2.64375e-06
3.15428e-06
3.8745e-06
4.64246e-06
5.43652e-06
6.14797e-06
6.92217e-06
7.65212e-06
8.2007e-06
8.92353e-06
9.31443e-06
9.76267e-06
1.00672e-05
1.02641e-05
1.02952e-05
1.01904e-05
9.89088e-06
9.43733e-06
8.86556e-06
8.03136e-06
7.63393e-06
6.96808e-06
2.65832e-06
3.03743e-06
3.46948e-06
4.14252e-06
4.87896e-06
5.63637e-06
6.31888e-06
7.10516e-06
7.78448e-06
8.35666e-06
9.09705e-06
9.4551e-06
9.93984e-06
1.02386e-05
1.04533e-05
1.05093e-05
1.04792e-05
1.02546e-05
9.93038e-06
9.53236e-06
8.93879e-06
9.04139e-06
8.78586e-06
3.0981e-06
3.4437e-06
3.81208e-06
4.44107e-06
5.14483e-06
5.8648e-06
6.52298e-06
7.31178e-06
7.94041e-06
8.55237e-06
9.28836e-06
9.62227e-06
1.01644e-05
1.04323e-05
1.06897e-05
1.07659e-05
1.08167e-05
1.06736e-05
1.04838e-05
1.03093e-05
9.92495e-06
1.06718e-05
1.12769e-05
7.22078e-06
1.13805e-05
1.4519e-05
1.30165e-05
6.15285e-06
4.34211e-05
4.80255e-05
9.7968e-05
0.00011834
0.000188442
0.000228317
0.000333511
0.000431111
0.000602001
0.000802467
0.00104812
0.00120416
0.000988802
0.000496281
7.22078e-06
1.13805e-05
1.4519e-05
1.30165e-05
4.99723e-06
4.27888e-05
4.7544e-05
9.78588e-05
0.000117375
0.000187475
0.000226533
0.000333511
0.000428938
0.000602001
0.000802467
0.00104647
0.00115334
0.000870964
0.000496281
1.05179e-05
1.75488e-05
1.74369e-05
9.94951e-06
4.99723e-06
4.22863e-05
4.70597e-05
9.78588e-05
0.000116721
0.000185591
0.000222037
0.000329111
0.000419435
0.000609029
0.000797872
0.000969385
0.0010119
0.000738463
0.000755338
1.27662e-05
2.25551e-05
2.07785e-05
9.94951e-06
8.50448e-06
4.22863e-05
4.63615e-05
9.80748e-05
0.000115513
0.000183202
0.000215978
0.000322499
0.000407255
0.000594581
0.000739173
0.000864118
0.000865087
0.000738463
0.000908503
1.57081e-05
3.12117e-05
2.7466e-05
1.14481e-05
1.42889e-05
4.23501e-05
4.63615e-05
9.85102e-05
0.000114843
0.000181895
0.000210038
0.000315896
0.00039289
0.000570772
0.000661557
0.000735356
0.000722301
0.000740524
0.00101536
2.11137e-05
4.31733e-05
3.68303e-05
1.63661e-05
2.16679e-05
4.26332e-05
4.7257e-05
9.90938e-05
0.000114066
0.000178836
0.000200032
0.000306616
0.000373389
0.000539713
0.000576183
0.000588397
0.000594238
0.00079299
0.00110645
2.89251e-05
5.70876e-05
4.76586e-05
2.15036e-05
3.10329e-05
4.66285e-05
4.81309e-05
0.000100636
0.000114066
0.000176177
0.000189903
0.000297994
0.000350713
0.000504324
0.000494021
0.000438193
0.000531816
0.000855669
0.00116399
4.10829e-05
7.81236e-05
6.58819e-05
3.40871e-05
4.14989e-05
5.06863e-05
5.11153e-05
0.00010307
0.000114425
0.000176177
0.000189903
0.000297994
0.000350713
0.000504324
0.000494021
0.000438193
0.000531816
0.000908415
0.00118229
5.54262e-06
6.0385e-06
6.54141e-06
7.46094e-06
8.50834e-06
9.57836e-06
1.05758e-05
1.17969e-05
1.27189e-05
1.37478e-05
1.48359e-05
1.5356e-05
1.63089e-05
1.66538e-05
1.71623e-05
1.72534e-05
1.75081e-05
1.73427e-05
1.74688e-05
1.74875e-05
1.7966e-05
2.01964e-05
2.47718e-05
9.73664e-06
1.03147e-05
1.08675e-05
1.19751e-05
1.32646e-05
1.46007e-05
1.5897e-05
1.75125e-05
1.86644e-05
2.02158e-05
2.13786e-05
2.22807e-05
2.36238e-05
2.39146e-05
2.49239e-05
2.4914e-05
2.57448e-05
2.53516e-05
2.63939e-05
2.64814e-05
2.79146e-05
2.98297e-05
2.96867e-05
2.31272e-05
2.4115e-05
2.50268e-05
2.70155e-05
2.93194e-05
3.17765e-05
3.41485e-05
3.73102e-05
3.89836e-05
4.16249e-05
4.25029e-05
4.33842e-05
4.26939e-05
4.05509e-05
3.79855e-05
3.26167e-05
2.77263e-05
2.71573e-05
2.84392e-05
2.84857e-05
3.11419e-05
3.23453e-05
2.99249e-05
0.000176642
0.000181827
0.000188099
0.00020053
0.000214204
0.000229358
0.000244479
0.000263837
0.000273467
0.000289229
0.000292927
0.000295635
0.000281751
0.000265376
0.000226738
0.000152154
7.41148e-05
6.08147e-05
4.49829e-05
3.07357e-05
3.179e-05
3.28103e-05
2.78602e-05
0.000323926
0.000324796
0.000332419
0.000336195
0.000335099
0.000332669
0.000328843
0.000323691
0.00031602
0.000314507
0.000315099
0.000323569
0.000340203
0.000355503
0.000389435
0.000399768
0.000463557
0.000426113
0.000268838
7.96379e-05
7.18406e-05
4.97636e-05
2.76927e-05
0.000337297
0.000334935
0.000335524
0.000332718
0.000326786
0.000318923
0.000309694
0.00029762
0.000289775
0.000286843
0.000286843
0.00029254
0.000300529
0.000315959
0.000336425
0.000370794
0.000438122
0.000510986
0.000592471
0.000609219
0.000496842
0.000277683
8.46145e-05
0.000347923
0.000347284
0.000344689
0.000344654
0.000338538
0.000331758
0.000322602
0.000314283
0.000304081
0.000305696
0.000309113
0.00032357
0.00032916
0.000351084
0.00036203
0.000411237
0.000440671
0.000492968
0.000574477
0.000678415
0.000685654
0.000690736
0.000541581
0.000359613
0.000359076
0.000355493
0.000353528
0.000348566
0.000342757
0.000335152
0.000330974
0.000325653
0.000332202
0.000342077
0.000354934
0.000355461
0.000354884
0.000354884
0.00035709
0.000380529
0.000407124
0.000456665
0.000556572
0.000712756
0.000769632
0.00058782
0.000371632
0.000370829
0.000367353
0.000366281
0.000361607
0.000357772
0.000351771
0.000351429
0.000347854
0.000354595
0.000362782
0.000370157
0.00036196
0.000365427
0.000357665
0.000368819
0.000373236
0.000374068
0.000390208
0.000432325
0.000524598
0.00067825
0.000686675
0.000384722
0.000383366
0.000381545
0.000380494
0.000377285
0.000375343
0.000370814
0.000371886
0.000368882
0.000372948
0.000378707
0.000381276
0.00037573
0.000377563
0.000371117
0.000378181
0.000380078
0.00038605
0.000396913
0.000413412
0.00043361
0.000491943
0.000570864
0.000398261
0.000397301
0.000396433
0.000396051
0.000393558
0.000393361
0.000389501
0.000391591
0.000388121
0.000390459
0.000393256
0.000396187
0.000393041
0.000396751
0.000393548
0.000397066
0.000398838
0.000399687
0.000406883
0.000407849
0.000415423
0.000429532
0.000384381
0.000414025
0.000413475
0.000412908
0.000412878
0.000410785
0.000411614
0.00040855
0.000410977
0.000408807
0.000410353
0.000413173
0.000417308
0.000418432
0.000424326
0.000424073
0.000429258
0.000428922
0.000430209
0.000434838
0.000439429
0.000447659
0.000458861
0.00036641
0.000429929
0.000429672
0.000429427
0.000429743
0.000428127
0.000429863
0.000427682
0.000430654
0.000429962
0.000432496
0.000435646
0.000441235
0.000444308
0.000451033
0.000453681
0.000459173
0.00046268
0.00046703
0.000475787
0.00048279
0.000489775
0.000503013
0.00040947
0.000447256
0.000447137
0.000446968
0.000447744
0.000446608
0.000448951
0.000447615
0.000450906
0.000451779
0.000454749
0.000458272
0.000463382
0.000467154
0.0004742
0.000477973
0.000484813
0.000489247
0.000496069
0.000507011
0.000515022
0.000530805
0.000549938
0.000448238
0.000465087
0.000465124
0.000465111
0.000466358
0.00046567
0.000468615
0.000467958
0.000471505
0.000473106
0.000476556
0.000480224
0.000485755
0.000489998
0.000497067
0.000502112
0.000509604
0.000516458
0.000525985
0.000538709
0.000550456
0.000570923
0.000590866
0.000476018
0.000483693
0.000483902
0.000484235
0.000485753
0.000485448
0.000488616
0.000488614
0.000492176
0.000494454
0.000498186
0.000502333
0.000507902
0.000512752
0.000520304
0.000526394
0.000535652
0.000544524
0.000556751
0.000571428
0.000586436
0.000609939
0.000630808
0.000512805
0.000502745
0.000503198
0.000503581
0.000505449
0.000505327
0.000508692
0.000509131
0.000512881
0.000515683
0.000519906
0.000524458
0.000530473
0.000536157
0.000544451
0.000552227
0.000563001
0.000574086
0.000588572
0.000605071
0.000623699
0.00064898
0.000672519
0.000546182
0.000522781
0.000523358
0.000523653
0.000525709
0.000525778
0.000529235
0.000530183
0.000534056
0.000537303
0.00054184
0.000546968
0.000553531
0.000560217
0.000569472
0.000578604
0.000590828
0.00060365
0.000619976
0.000638353
0.000659668
0.000686462
0.000713256
0.000583357
0.000542739
0.000543388
0.000543683
0.000545892
0.000546136
0.000549701
0.000551036
0.000555121
0.000558729
0.000563705
0.000569341
0.000576454
0.000583908
0.000593864
0.000604133
0.000617516
0.000631872
0.000649911
0.000670133
0.000694361
0.000722584
0.000753764
0.000616595
0.00056359
0.000564325
0.000564597
0.000566928
0.000567317
0.000570919
0.000572532
0.000576764
0.000580633
0.000585937
0.00059196
0.000599514
0.000607554
0.000618191
0.000629371
0.000643926
0.000659556
0.00067927
0.000701223
0.000726627
0.000755982
0.000790204
0.000647748
0.000584687
0.00058545
0.00058558
0.000587888
0.000588287
0.000591839
0.000593596
0.00059794
0.000601936
0.000607552
0.000613767
0.000621765
0.000630174
0.000641562
0.000653326
0.000669095
0.000685444
0.000705921
0.000728374
0.000754763
0.000785928
0.000822844
0.000675192
0.000606391
0.000607146
0.000607147
0.000609366
0.000609792
0.000613237
0.000615099
0.000619482
0.000623606
0.000629447
0.000635783
0.000644123
0.000652761
0.000664732
0.000676673
0.000693385
0.000709868
0.000730325
0.000753712
0.00078167
0.000814517
0.000853512
0.000700829
0.000628335
0.000629071
0.000628934
0.000631002
0.000631442
0.000634651
0.000636555
0.000640797
0.000645024
0.00065082
0.000657215
0.0006655
0.000674242
0.000686237
0.000698225
0.000713799
0.000730561
0.00075077
0.000774506
0.000803117
0.00083688
0.000877439
0.000721873
0.000650533
0.000651243
0.000650978
0.00065284
0.000653322
0.000656188
0.000658141
0.000662068
0.00066638
0.000671824
0.000678306
0.000686162
0.000694948
0.000706572
0.000718411
0.000733679
0.000750056
0.000770188
0.00079389
0.00082299
0.00085756
0.000899464
0.0007401
0.000672815
0.00067348
0.000673117
0.000674741
0.000675291
0.000677755
0.000679766
0.000683256
0.000687599
0.000692437
0.000698973
0.000706093
0.000714855
0.000725766
0.000737128
0.000750732
0.000766274
0.000786004
0.000809102
0.000838222
0.000872319
0.000914456
0.000749981
0.000694588
0.000695144
0.00069481
0.000696166
0.000696809
0.000698874
0.000700895
0.00070378
0.000708049
0.000712087
0.000718575
0.000724701
0.000733276
0.000743081
0.000753359
0.00076577
0.000780219
0.000798713
0.000820222
0.000847682
0.000879998
0.000921122
0.000754693
0.000715677
0.000716041
0.000715917
0.00071699
0.000717787
0.000719546
0.000721635
0.000723873
0.000727974
0.000731148
0.000737454
0.000742448
0.00075068
0.000759137
0.00076856
0.000779549
0.000792299
0.000808475
0.000827424
0.000852282
0.000882597
0.000922224
0.000756154
0.000735405
0.000735526
0.000735669
0.000736423
0.00073737
0.000738847
0.000741064
0.00074277
0.000746593
0.000748877
0.000754834
0.000758671
0.000766414
0.000773274
0.000780594
0.000789526
0.000800009
0.000813185
0.000829028
0.000850174
0.000877193
0.000913435
0.000748234
0.000753375
0.000753307
0.000753693
0.000754214
0.000755372
0.000756665
0.000759066
0.000760525
0.000764321
0.000765998
0.000771603
0.000774349
0.000781446
0.000786485
0.000793721
0.000800513
0.000808415
0.000818112
0.000829989
0.000846179
0.000868824
0.000901075
0.000736452
0.000769343
0.000769175
0.000769685
0.000770077
0.000771411
0.000772561
0.000775095
0.000776444
0.000780362
0.000781735
0.000787119
0.000788845
0.000795035
0.000798107
0.000802619
0.00080715
0.000811769
0.000817247
0.000824732
0.000835337
0.000851952
0.000878183
0.000712059
0.000783061
0.000782853
0.000783419
0.000783775
0.000785265
0.000786359
0.00078907
0.000790459
0.000794587
0.000795966
0.000801462
0.000802653
0.000808327
0.000809765
0.00081446
0.000816739
0.000819329
0.000820439
0.000821473
0.000820108
0.00082982
0.000844787
0.000686767
0.000794515
0.0007943
0.000794913
0.000795288
0.000796939
0.000798064
0.00080101
0.00080259
0.000807027
0.000808587
0.000814115
0.000815091
0.000819905
0.000820331
0.000822236
0.000820177
0.00081726
0.000813812
0.000809732
0.000803949
0.00080298
0.000802964
0.000648015
0.000803856
0.000803637
0.000804269
0.000804651
0.000806456
0.000807643
0.000810873
0.00081269
0.000817428
0.00081928
0.000825063
0.000826033
0.000831225
0.000830186
0.000832503
0.000829027
0.000823983
0.000814713
0.000802692
0.00078817
0.000776188
0.000760386
0.000606878
0.000811052
0.00081083
0.000811477
0.000811874
0.000813613
0.000815113
0.000817637
0.000820435
0.000824007
0.000827682
0.000831785
0.000835212
0.000838366
0.000838939
0.000836388
0.000829891
0.000819684
0.000805364
0.000786998
0.000767072
0.000746865
0.000723999
0.000554795
0.000816579
0.000816336
0.000816818
0.000817314
0.000818579
0.000820339
0.00082299
0.000826144
0.000830145
0.000834357
0.000839042
0.000842511
0.000847018
0.000846235
0.000846781
0.000840506
0.00082925
0.000812151
0.000788341
0.000759519
0.000726894
0.000691232
0.000514881
0.000819408
0.000819408
0.000819486
0.000819897
0.000821112
0.000822814
0.000825431
0.000828563
0.000832553
0.000836746
0.000841341
0.000845394
0.000848791
0.000849896
0.000845823
0.000837466
0.000823287
0.000802561
0.000773698
0.00073765
0.00069504
0.000654021
0.000462787
0.000822245
0.000822245
0.00082234
0.000822759
0.000823994
0.000825752
0.000828488
0.0008318
0.000836021
0.000840495
0.000845453
0.00084994
0.00085389
0.000854711
0.00085292
0.000845399
0.000831613
0.000810325
0.000779065
0.000737457
0.000685651
0.000629702
0.000429367
0.00082274
0.000822702
0.000822702
0.000822961
0.000824057
0.000825646
0.000828177
0.000831233
0.000835172
0.000839304
0.000843853
0.000847796
0.000851083
0.000851439
0.000846568
0.000837074
0.000820777
0.00079637
0.00076101
0.00071341
0.000652934
0.000583672
0.000379588
0.000824915
0.000824865
0.000824865
0.000825057
0.000826086
0.000827656
0.000830208
0.0008333
0.000837292
0.000841499
0.000846176
0.000850142
0.000853877
0.000852143
0.000850773
0.000841803
0.000826479
0.000802679
0.000767594
0.000718701
0.000652994
0.000573758
0.000361243
0.000823598
0.000823411
0.000823411
0.000823412
0.000824192
0.000825429
0.000827593
0.000830224
0.000833684
0.000837266
0.000841223
0.000844472
0.000847
0.000845375
0.000839294
0.000828498
0.000810607
0.000784076
0.00074577
0.000693377
0.00062311
0.000533771
0.000316627
0.000825626
0.000825429
0.00082541
0.00082541
0.000826164
0.00082737
0.000829484
0.000832056
0.000835465
0.000838555
0.000843009
0.000843963
0.000848072
0.000843482
0.000842208
0.000830381
0.000814729
0.000788647
0.000750121
0.000695973
0.00062163
0.000525679
0.000301742
0.00082252
0.00082219
0.000821951
0.000821951
0.000822407
0.00082322
0.000824844
0.000826816
0.000829494
0.000832165
0.000835093
0.000837164
0.000837367
0.000833932
0.000826454
0.000814388
0.000795396
0.000767933
0.000728428
0.000673882
0.000598698
0.000499377
0.000275696
1.55658e-05
1.17154e-05
1.17154e-05
1.66488e-05
1.90086e-05
1.90086e-05
1.91199e-05
2.17188e-05
1.93497e-05
1.9215e-05
1.87848e-05
1.87848e-05
1.84877e-05
1.84877e-05
1.89546e-05
1.92247e-05
1.80702e-05
1.80702e-05
1.8343e-05
1.85172e-05
7.76077e-05
6.9425e-05
2.59503e-05
2.59503e-05
0.000344315
0.000335556
0.00027468
9.95676e-05
0.000378263
0.000378263
0.000387684
0.000387684
0.000442432
0.000435716
0.000424129
0.000424129
0.000401918
0.000401918
0.000429415
0.000448469
0.000272213
0.000272213
0.00030676
0.00033812
0.000243271
0.000243271
0.000254684
0.000267502
0.000268054
0.000268054
0.000272696
0.000276987
0.00029361
0.00029361
0.00030045
0.000307505
0.000311796
0.000311796
0.000319568
0.000326523
0.000337247
0.000337247
0.000346104
0.000353989
0.00035971
0.00035971
0.000368609
0.000377454
0.000384429
0.000384429
0.00039419
0.000404819
0.00040626
0.00040626
0.000417039
0.00042893
0.000426904
0.000426904
0.00043906
0.000452154
0.000445552
0.000445552
0.000459137
0.00047435
0.000463218
0.000463218
0.000478559
0.000495693
0.00047766
0.00047766
0.000493994
0.000511721
0.000489497
0.000489497
0.000506042
0.000523518
0.000495753
0.000495753
0.000512621
0.00053059
0.000499525
0.000499525
0.000517398
0.00053626
0.000500617
0.000500617
0.000518149
0.000536267
0.000494964
0.000494964
0.000511837
0.00053005
0.000486558
0.000486558
0.000501953
0.000519164
0.000469716
0.000469716
0.000483737
0.000500009
0.000452904
0.000452904
0.000465435
0.000479613
0.000428092
0.000428092
0.000440559
0.000453632
0.000400597
0.000400597
0.00041313
0.000426464
0.000364998
0.000364998
0.000376516
0.000388677
0.000337086
0.000337086
0.000348188
0.000360802
0.000298504
0.000298504
0.000306699
0.000319158
0.000271698
0.000271698
0.000276403
0.000288949
0.000232199
0.000228246
0.000228246
0.000234709
0.000215342
0.000204963
0.000204963
0.00020561
0.000179466
0.000160848
0.000154096
0.000154096
0.000165453
0.000139176
0.000122588
0.000122588
0.000146314
0.000117924
0.000103951
0.000103951
0.000143436
0.00018251
0.00013379
6.67698e-05
7.49965e-05
9.50198e-05
8.768e-05
0.000163508
0.000178168
0.00027041
0.000280982
0.00045045
0.000509281
0.000727051
0.000673867
0.000490341
0.000869626
0.00146119
0.00184246
5.81985e-05
0.000296767
0.000328425
0.000164059
0.000136302
0.000147475
0.000138472
0.00021669
0.00023892
0.000321619
0.000279891
0.000450595
0.00045951
0.000643219
0.000622726
0.000441502
0.00106448
0.0018317
0.0023925
3.04092e-05
5.93021e-05
0.000400768
0.000400741
0.000328058
0.000287789
0.000208228
0.000232552
0.000253177
0.000294525
0.000253521
0.000362387
0.000407004
0.000467815
0.000549907
0.000379734
0.000911407
0.00166309
0.0014163
3.21501e-05
3.8741e-05
7.25548e-05
0.000457235
0.000494218
0.000519423
0.00048924
0.000381498
0.000357087
0.000294525
0.000253521
0.000313879
0.000376792
0.000412145
0.000526002
0.000379734
0.000755152
0.00118293
0.000787197
3.12539e-05
3.8741e-05
4.0786e-05
8.30108e-05
0.000282285
0.000512206
0.000675001
0.000692103
0.000669405
0.00055699
0.000554102
0.000489538
0.000599562
0.00050686
0.000768722
0.000415603
0.000832509
0.000931049
0.000652209
3.20856e-05
4.03664e-05
4.0786e-05
4.54136e-05
6.18518e-05
8.88167e-05
0.000125484
0.000189653
0.000273579
0.000400532
0.000510515
0.000625173
0.000750186
0.000854491
0.00107608
0.00061194
0.00110044
0.000717138
0.000460408
8.99479e-05
6.46804e-05
4.30899e-05
4.54136e-05
5.06789e-05
5.26751e-05
5.81699e-05
6.78712e-05
7.03963e-05
7.93099e-05
9.04547e-05
0.000101695
0.000115172
0.000138887
0.000257221
0.000528094
0.000726811
0.000434355
0.000133755
0.000627975
0.000380139
0.000108781
9.26795e-05
7.63513e-05
6.40363e-05
6.46049e-05
6.48231e-05
6.48231e-05
6.57002e-05
6.8193e-05
7.03795e-05
7.21358e-05
7.38073e-05
8.30261e-05
9.77267e-05
0.000111444
7.13685e-05
4.41961e-05
0.000684215
0.000848914
0.000794821
0.000645274
0.000466955
0.000304747
0.000168806
0.000139804
0.000134406
0.000135598
0.000133775
0.000126706
0.000113021
8.80474e-05
7.71471e-05
6.97623e-05
5.88433e-05
3.9941e-05
2.95737e-05
0.000756496
0.000871142
0.000862344
0.000883384
0.000916296
0.000959702
0.000988054
0.000999763
0.00101929
0.00101484
0.000975747
0.000880294
0.0007184
0.000423243
0.000156
9.78655e-05
5.50279e-05
3.74672e-05
2.95737e-05
0.000612954
0.000806431
0.000837562
0.000850884
0.000836797
0.000823151
0.000800566
0.000775319
0.000749918
0.000752346
0.000786823
0.00092416
0.000976597
0.000975972
0.00099546
0.000434075
7.15938e-05
3.63922e-05
5.83317e-05
0.000474784
0.000706598
0.000763268
0.000806069
0.000806197
0.000780064
0.000725898
0.000640855
0.000526898
0.000398363
0.000252935
0.000458972
0.000642497
0.000666204
0.000771509
0.000646702
9.12555e-05
3.51973e-05
7.53394e-05
0.000474194
0.000700699
0.000756397
0.000793536
0.000806197
0.000780064
0.000725898
0.000643587
0.000458593
0.000203572
0.000203572
0.000221622
0.000575719
0.000785346
0.000768128
0.000434783
6.7674e-05
3.15477e-05
7.98498e-05
0.000528764
0.000700699
0.000756397
0.000793536
0.000812073
0.000807174
0.000774704
0.000706039
0.000589533
0.000424629
0.000239604
0.000547526
0.000929313
0.000831614
0.000619674
0.000212181
4.20852e-05
3.15477e-05
0.000101725
0.000561232
0.00074534
0.00080532
0.000831148
0.000857984
0.000864409
0.000850658
0.000814435
0.000750017
0.000674784
0.000607805
0.000912705
0.000905414
0.000685066
0.000366047
9.72204e-05
5.04032e-05
3.45549e-05
0.000236597
0.000609482
0.000796957
0.0008715
0.000900164
0.000946666
0.000970493
0.000979365
0.000966981
0.000955533
0.000955028
0.00101259
0.00123117
0.00094034
0.000642748
0.000201718
7.10453e-05
4.22699e-05
7.17655e-05
0.000428725
0.00064996
0.000858069
0.000949024
0.000984842
0.00106136
0.00111031
0.0011523
0.00117047
0.00120853
0.00127562
0.00143687
0.00164087
0.00101869
0.000715251
0.000367462
9.1586e-05
4.22699e-05
6.15039e-05
0.000325605
0.000697221
0.000927385
0.00103493
0.00109428
0.00122284
0.00129259
0.00137393
0.00142468
0.00150018
0.00160227
0.00181771
0.00216911
0.00130604
0.000605131
0.000370495
0.000230604
5.72946e-05
9.73369e-05
0.000254528
0.000738938
0.00100759
0.00113845
0.00124114
0.00141748
0.0014849
0.00161799
0.00168964
0.00183826
0.00191623
0.00213919
0.00249627
0.0020778
0.000784845
0.000352535
0.000254295
9.07834e-05
0.000145807
0.000411282
0.000781443
0.00109533
0.00125544
0.00138968
0.00155952
0.00159412
0.0017557
0.00188135
0.00212292
0.00225964
0.00245821
0.00267443
0.00268418
0.00159786
0.000500615
0.000346604
9.07834e-05
0.000156667
0.000344243
0.000824435
0.00118279
0.00135803
0.00148267
0.00151175
0.0014448
0.00158346
0.00175188
0.00213412
0.00245567
0.00275111
0.00286518
0.00290628
0.00230465
0.00111811
0.00030305
0.000196224
0.000184167
0.000272578
0.000863243
0.00125448
0.00141891
0.00147978
0.00139612
0.00129138
0.0014489
0.00161942
0.0020255
0.00238438
0.00286597
0.00301051
0.00303233
0.00264386
0.00188082
0.000689627
0.000245745
0.000264607
0.000364723
0.000891589
0.0013059
0.00144082
0.00146449
0.001314
0.00123891
0.00143619
0.00159861
0.00196094
0.00228976
0.00280581
0.003088
0.0030795
0.00280155
0.00215675
0.000964912
0.000245745
0.000412048
0.000436133
0.000913188
0.00133707
0.00145224
0.00145098
0.00126176
0.00122661
0.00143619
0.00159861
0.00190074
0.00221667
0.0027316
0.00312111
0.00311714
0.00291533
0.002471
0.00131384
0.000343388
0.000456954
0.00057636
0.000927911
0.00134913
0.00147855
0.0014134
0.00121572
0.00120502
0.00146152
0.00158563
0.00180247
0.00213369
0.00269757
0.00312679
0.00313279
0.00299582
0.00260367
0.00163698
0.000594938
0.00043066
0.000652633
0.000936397
0.00135495
0.00150021
0.00137971
0.00119102
0.00119324
0.00151039
0.00143692
0.00151742
0.00206436
0.00265712
0.00315052
0.0031606
0.00305152
0.00265676
0.0017498
0.000711839
0.00043066
0.000754789
0.000933715
0.00136283
0.00146447
0.00137971
0.00115265
0.00112764
0.00145267
0.000996672
0.00108183
0.00185023
0.00276226
0.00323078
0.00317999
0.00310512
0.00267626
0.00187218
0.000776867
0.000411569
0.000841618
0.000922147
0.00135098
0.0014279
0.00140394
0.00101304
0.000985749
0.00112143
0.000569274
0.000871335
0.00172919
0.00295379
0.00334771
0.00321987
0.003137
0.00259913
0.00176947
0.000648521
0.000411569
0.000997905
0.000901496
0.00131588
0.00137193
0.00129174
0.000869192
0.000842956
0.000842407
0.000569274
0.00103297
0.00220437
0.00316499
0.0033619
0.00326411
0.00309165
0.00242873
0.0017067
0.000643519
0.000374594
0.00122601
0.000867959
0.00125684
0.00129869
0.00119092
0.000795256
0.000714044
0.000996427
0.000837702
0.00175527
0.00277104
0.00330353
0.00347235
0.00334781
0.00296487
0.0022606
0.00133408
0.000399006
0.000374594
0.00112154
0.000830432
0.00118132
0.00122374
0.0010974
0.000724002
0.000651731
0.00103985
0.00150825
0.00237199
0.00311455
0.00342924
0.00364934
0.00339951
0.00287256
0.00197767
0.00122126
0.000455873
0.000408389
0.00129709
0.000784331
0.00110887
0.00115394
0.000995073
0.000668969
0.000651731
0.00116907
0.00192595
0.00269851
0.00329036
0.00361763
0.00371162
0.00326543
0.00208689
0.00137227
0.000888416
0.000651564
0.000597223
0.00131231
0.000739211
0.00103077
0.00107742
0.00093481
0.000617603
0.000748295
0.0013935
0.0021574
0.00281893
0.0032248
0.00336404
0.00314771
0.00192642
0.00115417
0.00106934
0.000860643
0.00086585
0.000704706
0.00146807
0.000673926
0.000958374
0.00100896
0.000843783
0.000569715
0.000896413
0.001556
0.00219693
0.00271505
0.00294285
0.00291344
0.00187403
0.000979913
0.00115417
0.000825272
0.000779636
0.00087671
0.000829953
0.00178096
0.000627994
0.000891601
0.000954501
0.000808527
0.00056494
0.000957452
0.00170864
0.00219693
0.00250169
0.00252219
0.00205573
0.000878963
0.000758628
0.000991637
0.000825272
0.000779636
0.00087671
0.00107286
0.002326
0.000559414
0.000838203
0.000931351
0.000810144
0.00056494
0.000913023
0.00174679
0.00222422
0.00232019
0.00212176
0.00132593
0.000709558
0.0005962
0.0009365
0.000854701
0.00082315
0.000916502
0.00141738
0.00282442
0.000513267
0.000775072
0.00091626
0.000933954
0.000673852
0.000927485
0.00164493
0.00228116
0.00213295
0.00184783
0.00125898
0.000790999
0.0005962
0.00076613
0.00101384
0.00108643
0.00118481
0.00158463
0.0034
0.00041964
0.000705748
0.000888329
0.00100062
0.000880907
0.000927485
0.00152458
0.00212514
0.00191922
0.00163634
0.00113535
0.000768834
0.000657044
0.000621894
0.000855048
0.000986407
0.00111089
0.00141424
0.00357885
0.000367112
0.00063028
0.000822267
0.00105792
0.00111731
0.0010959
0.0015703
0.00183728
0.00170319
0.00141187
0.000909346
0.000478806
0.000349476
0.000393293
0.000719109
0.000973382
0.00111089
0.00158211
0.00368448
0.000274039
0.00052902
0.000735652
0.000969619
0.00122536
0.00134572
0.0015703
0.00163297
0.00154089
0.00112528
0.000576891
0.000252535
0.000222088
0.000222088
0.000454335
0.000858149
0.00118149
0.00181211
0.00388859
0.000206941
0.000426063
0.0006821
0.000979483
0.00118985
0.00138465
0.00153533
0.00153332
0.00146154
0.00117038
0.000815428
0.000446495
0.000275243
0.000318051
0.000418794
0.000681353
0.00124415
0.00203077
0.00409315
0.000195341
0.000460174
0.000697333
0.000921884
0.00112398
0.00130291
0.00147288
0.00153332
0.00146154
0.00123783
0.000946348
0.000664553
0.000497403
0.000542164
0.000640888
0.000681353
0.0010009
0.00225454
0.00439892
)
;

boundaryField
{
    leftWall
    {
        type            calculated;
        value           uniform 0;
    }
    rightWall
    {
        type            calculated;
        value           uniform 0;
    }
    lowerWall
    {
        type            calculated;
        value           uniform 0;
    }
    atmosphere
    {
        type            calculated;
        value           uniform 0;
    }
    defaultFaces
    {
        type            empty;
    }
}


// ************************************************************************* //
