/*--------------------------------*- C++ -*----------------------------------*\
| =========                 |                                                 |
| \\      /  F ield         | OpenFOAM: The Open Source CFD Toolbox           |
|  \\    /   O peration     | Version:  2012                                  |
|   \\  /    A nd           | Website:  www.openfoam.com                      |
|    \\/     M anipulation  |                                                 |
\*---------------------------------------------------------------------------*/
FoamFile
{
    version     2.0;
    format      ascii;
    class       volScalarField;
    location    "0.41";
    object      rho;
}
// * * * * * * * * * * * * * * * * * * * * * * * * * * * * * * * * * * * * * //

dimensions      [1 -3 0 0 0 0 0];


internalField   nonuniform List<scalar> 
2268
(
1000.05
1000.05
1000.05
1000.05
1000.05
1000.05
1000.05
1000.05
1000.05
1000.05
1000.05
1000.05
1000.05
1000.05
1000.05
1000.05
1000.05
1000.05
1000.05
1000.05
1000.05
1000.05
999.488
1000.05
1000.05
1000.05
1000.05
1000.05
1000.05
1000.05
1000.05
1000.05
1000.05
1000.05
1000.05
1000.05
1000.05
1000.05
1000.05
1000.05
1000.05
1000.05
1000.05
1000.05
1000.05
999.488
1000.05
1000.05
1000.05
1000.05
1000.05
1000.05
1000.05
1000.05
1000.05
1000.05
1000.05
1000.05
1000.05
1000.05
1000.05
1000.05
1000.05
1000.05
1000.05
1000.05
1000.05
1000.05
999.977
1000.05
1000.05
1000.05
1000.05
1000.05
1000.05
1000.05
1000.05
1000.05
1000.05
1000.05
1000.05
1000.05
1000.05
1000.05
1000.05
1000.05
1000.05
1000.05
1000.05
1000.05
1000.05
1000.05
1000.05
1000.05
1000.05
1000.05
1000.05
1000.05
1000.05
1000.05
1000.05
1000.05
1000.05
1000.05
1000.05
1000.05
1000.05
1000.05
1000.05
1000.05
1000.05
1000.05
1000.05
1000.05
999.812
1000.05
1000.05
1000.05
1000.05
1000.05
1000.05
1000.05
1000.05
1000.05
1000.05
1000.05
1000.05
1000.05
1000.05
1000.05
1000.05
1000.05
1000.05
1000.05
1000.05
1000.05
1000.05
998.949
1000.05
1000.05
1000.05
1000.05
1000.05
1000.05
1000.05
1000.05
1000.05
1000.05
1000.05
1000.05
1000.05
1000.05
1000.05
1000.05
1000.05
1000.05
1000.05
1000.05
1000.05
1000.05
998.933
1000.05
1000.05
1000.05
1000.05
1000.05
1000.05
1000.05
1000.05
1000.05
1000.05
1000.05
1000.05
1000.05
1000.05
1000.05
1000.05
1000.05
1000.05
1000.05
1000.05
1000.05
1000.05
998.933
1.28944
1.28944
1.28943
1.28943
1.28943
1.28943
1.28943
1.28943
1.28943
1.28942
1.28942
1.28942
1.28942
1.28941
1.28942
1.28944
1.28957
1.28971
1.28974
1.28944
1.28943
1.28943
1.28943
1.28943
1.28943
1.28943
1.28942
1.28943
1.28942
1.28942
1.28942
1.28942
1.28941
1.28945
1.28962
1.28982
1.28985
1.28976
1.28943
1.28943
1.28943
1.28943
1.28943
1.28943
1.28943
1.28942
1.28943
1.28942
1.28942
1.28941
1.28942
1.28942
1.28952
1.28974
1.28984
1.28967
1.2897
1.28943
1.28943
1.28943
1.28943
1.28943
1.28943
1.28943
1.28942
1.28942
1.28942
1.28942
1.28941
1.28942
1.28943
1.28958
1.28974
1.28972
1.28956
1.29005
1.28943
1.28943
1.28943
1.28943
1.28943
1.28943
1.28943
1.28942
1.28942
1.28942
1.28942
1.28941
1.28942
1.28943
1.28959
1.28968
1.28955
1.28949
1.29039
1.28943
1.28943
1.28943
1.28943
1.28943
1.28943
1.28943
1.28942
1.28942
1.28942
1.28942
1.28941
1.28941
1.28942
1.28955
1.28958
1.28936
1.28942
1.29048
1.28943
1.28943
1.28944
1.28943
1.28943
1.28943
1.28943
1.28942
1.28942
1.28942
1.28942
1.28941
1.28941
1.2894
1.28948
1.28945
1.28911
1.29042
1.29045
1.2895
1.28951
1.28943
1.28943
1.28943
1.28943
1.28943
1.28942
1.28942
1.28942
1.28942
1.28941
1.2894
1.28937
1.28941
1.28932
1.28884
1.29108
1.29021
1000.05
1000.05
1000.05
1000.05
1000.05
1000.05
1000.05
1000.05
1000.05
1000.05
1000.05
1000.05
1000.05
1000.05
1000.05
1000.05
1000.05
1000.05
1000.05
1000.05
1000.05
1000.05
998.934
997.834
997.707
997.728
997.622
997.49
997.395
997.399
997.269
997.5
997.619
997.993
998.458
998.993
999.509
999.876
1000.04
1000.05
1000.05
1000.05
1000.05
1000.05
1000.05
999.303
746.469
741.706
741.719
737.167
732.014
728.082
727.38
722.107
729.931
734.201
749.316
771.506
804.786
846.474
898.328
952.801
998.843
1000.05
1000.05
1000.05
1000.05
1000.05
1000.02
74.6774
72.4244
71.6959
68.8255
66.0383
63.675
62.7968
59.7972
63.4777
65.5832
73.721
86.806
108.327
139.438
190.839
267.091
404.612
618.315
877.35
1000.05
1000.05
1000.05
1000.05
1.29325
1.29325
1.29324
1.29324
1.29325
1.29325
1.29325
1.29325
1.29326
1.29325
1.29325
1.29325
1.29326
1.29326
1.29328
1.29329
4.02513
29.5379
112.371
275.687
547.537
886.268
1000.05
1.2932
1.2932
1.2932
1.2932
1.2932
1.2932
1.2932
1.2932
1.29319
1.29319
1.29321
1.29341
1.29388
1.29368
1.29336
1.29319
1.29319
1.30695
1.92741
6.06245
27.6485
138.856
369.814
1.29318
1.29318
1.29318
1.29318
1.29318
1.29318
1.29318
1.29318
1.29318
1.29318
1.29369
1.29522
1.29564
1.29549
1.29353
1.29318
1.29317
1.29317
1.29322
1.29499
1.36833
2.86837
13.3707
1.29317
1.29317
1.29317
1.29317
1.29317
1.29317
1.29317
1.29317
1.29317
1.29317
1.29457
1.29564
1.29564
1.29426
1.29326
1.29319
1.29317
1.29317
1.29339
1.29376
1.29458
1.29615
1.31014
1.29317
1.29317
1.29317
1.29317
1.29317
1.29317
1.29317
1.29317
1.29317
1.29317
1.29364
1.29414
1.29343
1.29317
1.29319
1.29322
1.29322
1.29317
1.29316
1.30045
1.30345
1.30054
1.30054
1.29317
1.29317
1.29317
1.29317
1.29317
1.29317
1.29317
1.29317
1.29317
1.2932
1.29317
1.29317
1.29317
1.29317
1.29317
1.29322
1.29322
1.29319
1.29316
1.29316
1.29459
1.30754
1.32263
1.29317
1.29317
1.29317
1.29317
1.29317
1.29317
1.29317
1.29317
1.29317
1.29317
1.29317
1.29317
1.29317
1.29317
1.29317
1.29317
1.29318
1.29317
1.29316
1.29316
1.29316
1.29315
1.29315
1.29317
1.29317
1.29317
1.29317
1.29317
1.29317
1.29317
1.29317
1.29317
1.29317
1.29317
1.29317
1.29316
1.29316
1.29316
1.29316
1.29316
1.29316
1.29316
1.29316
1.29316
1.29315
1.29315
1.29317
1.29317
1.29317
1.29317
1.29317
1.29317
1.29317
1.29317
1.29316
1.29316
1.29316
1.29316
1.29316
1.29316
1.29316
1.29316
1.29316
1.29316
1.29316
1.29316
1.29315
1.29315
1.29315
1.29316
1.29316
1.29316
1.29316
1.29316
1.29316
1.29316
1.29316
1.29316
1.29316
1.29316
1.29316
1.29316
1.29316
1.29316
1.29316
1.29316
1.29316
1.29316
1.29315
1.29315
1.29315
1.29315
1.29316
1.29316
1.29316
1.29316
1.29316
1.29316
1.29316
1.29316
1.29316
1.29316
1.29316
1.29316
1.29316
1.29316
1.29316
1.29316
1.29316
1.29316
1.29315
1.29315
1.29315
1.29315
1.29315
1.29316
1.29316
1.29316
1.29316
1.29316
1.29316
1.29316
1.29316
1.29316
1.29316
1.29316
1.29316
1.29316
1.29316
1.29316
1.29316
1.29316
1.29315
1.29315
1.29315
1.29315
1.29315
1.29315
1.29316
1.29316
1.29316
1.29316
1.29316
1.29316
1.29316
1.29316
1.29316
1.29316
1.29316
1.29316
1.29316
1.29316
1.29315
1.29315
1.29315
1.29315
1.29315
1.29315
1.29315
1.29315
1.29315
1.29316
1.29316
1.29316
1.29316
1.29316
1.29316
1.29316
1.29316
1.29316
1.29316
1.29316
1.29316
1.29315
1.29315
1.29315
1.29315
1.29315
1.29315
1.29315
1.29315
1.29315
1.29315
1.29315
1.29316
1.29316
1.29316
1.29316
1.29316
1.29316
1.29316
1.29315
1.29315
1.29315
1.29315
1.29315
1.29315
1.29315
1.29315
1.29315
1.29315
1.29315
1.29315
1.29315
1.29315
1.29315
1.29315
1.29315
1.29315
1.29315
1.29315
1.29315
1.29315
1.29315
1.29315
1.29315
1.29315
1.29315
1.29315
1.29315
1.29315
1.29315
1.29315
1.29315
1.29315
1.29315
1.29315
1.29315
1.29314
1.29314
1.29315
1.29315
1.29315
1.29315
1.29315
1.29315
1.29315
1.29315
1.29315
1.29315
1.29315
1.29315
1.29315
1.29315
1.29315
1.29315
1.29315
1.29315
1.29315
1.29315
1.29314
1.29314
1.29314
1.29315
1.29315
1.29315
1.29315
1.29315
1.29315
1.29315
1.29315
1.29315
1.29315
1.29315
1.29315
1.29315
1.29315
1.29315
1.29315
1.29315
1.29315
1.29314
1.29314
1.29314
1.29314
1.29314
1.29314
1.29314
1.29314
1.29315
1.29315
1.29315
1.29315
1.29315
1.29315
1.29315
1.29315
1.29315
1.29315
1.29315
1.29315
1.29314
1.29314
1.29314
1.29314
1.29314
1.29314
1.29314
1.29314
1.29314
1.29314
1.29314
1.29314
1.29314
1.29314
1.29314
1.29314
1.29314
1.29314
1.29314
1.29314
1.29314
1.29314
1.29314
1.29314
1.29314
1.29314
1.29314
1.29314
1.29314
1.29314
1.29314
1.29313
1.29313
1.29313
1.29313
1.29313
1.29313
1.29314
1.29314
1.29314
1.29314
1.29314
1.29314
1.29314
1.29314
1.29314
1.29314
1.29314
1.29314
1.29314
1.29314
1.29314
1.29314
1.29314
1.29312
1.29312
1.29312
1.29312
1.29312
1.29313
1.29313
1.29313
1.29313
1.29313
1.29313
1.29313
1.29313
1.29313
1.29313
1.29314
1.29314
1.29314
1.29314
1.29314
1.29314
1.29314
1.29313
1.29311
1.29311
1.29311
1.29311
1.29311
1.29311
1.29311
1.29311
1.29312
1.29312
1.29312
1.29312
1.29312
1.29313
1.29313
1.29313
1.29313
1.29313
1.29313
1.29313
1.29313
1.29313
1.29313
1.29309
1.29309
1.29309
1.2931
1.2931
1.2931
1.2931
1.2931
1.2931
1.2931
1.29311
1.29311
1.29311
1.29311
1.29312
1.29312
1.29312
1.29313
1.29313
1.29313
1.29313
1.29313
1.29313
1.29308
1.29308
1.29308
1.29308
1.29308
1.29308
1.29308
1.29309
1.29309
1.29309
1.29309
1.29309
1.29309
1.2931
1.2931
1.29311
1.29311
1.29312
1.29312
1.29313
1.29313
1.29313
1.29313
1.29307
1.29307
1.29307
1.29307
1.29307
1.29307
1.29307
1.29307
1.29307
1.29308
1.29308
1.29308
1.29308
1.29308
1.29309
1.29309
1.2931
1.2931
1.29311
1.29312
1.29312
1.29313
1.29313
1.29306
1.29306
1.29306
1.29306
1.29306
1.29306
1.29306
1.29307
1.29307
1.29307
1.29307
1.29307
1.29307
1.29307
1.29308
1.29308
1.29308
1.29309
1.2931
1.29311
1.29312
1.29312
1.29313
1.29306
1.29306
1.29306
1.29306
1.29306
1.29306
1.29306
1.29306
1.29306
1.29306
1.29306
1.29306
1.29306
1.29306
1.29307
1.29307
1.29307
1.29308
1.29309
1.2931
1.29311
1.29312
1.29313
1.29305
1.29305
1.29305
1.29305
1.29305
1.29305
1.29305
1.29305
1.29305
1.29305
1.29305
1.29306
1.29306
1.29306
1.29306
1.29306
1.29307
1.29307
1.29308
1.29309
1.2931
1.29311
1.29312
1.29305
1.29305
1.29305
1.29305
1.29305
1.29305
1.29305
1.29305
1.29305
1.29305
1.29305
1.29305
1.29305
1.29305
1.29306
1.29306
1.29306
1.29306
1.29307
1.29308
1.29309
1.2931
1.29312
1.29305
1.29305
1.29305
1.29305
1.29305
1.29305
1.29305
1.29305
1.29305
1.29305
1.29305
1.29305
1.29305
1.29305
1.29305
1.29305
1.29306
1.29306
1.29307
1.29307
1.29308
1.29309
1.29311
1.29305
1.29305
1.29305
1.29305
1.29305
1.29305
1.29305
1.29305
1.29305
1.29305
1.29305
1.29305
1.29305
1.29305
1.29305
1.29305
1.29306
1.29306
1.29306
1.29307
1.29308
1.29309
1.29311
1.29305
1.29305
1.29305
1.29305
1.29305
1.29305
1.29305
1.29305
1.29305
1.29305
1.29305
1.29305
1.29305
1.29305
1.29305
1.29305
1.29305
1.29306
1.29306
1.29307
1.29307
1.29308
1.2931
1.29305
1.29305
1.29305
1.29305
1.29305
1.29305
1.29305
1.29305
1.29305
1.29305
1.29305
1.29305
1.29305
1.29305
1.29305
1.29306
1.29306
1.29306
1.29306
1.29307
1.29307
1.29308
1.2931
1.29306
1.29306
1.29306
1.29306
1.29306
1.29306
1.29306
1.29306
1.29306
1.29306
1.29306
1.29306
1.29306
1.29306
1.29306
1.29306
1.29306
1.29307
1.29307
1.29307
1.29308
1.29308
1.29309
1.29306
1.29306
1.29306
1.29306
1.29306
1.29306
1.29306
1.29306
1.29306
1.29306
1.29306
1.29306
1.29306
1.29306
1.29307
1.29307
1.29307
1.29307
1.29308
1.29308
1.29309
1.29309
1.2931
1.29306
1.29306
1.29306
1.29306
1.29306
1.29306
1.29306
1.29306
1.29306
1.29306
1.29306
1.29306
1.29306
1.29306
1.29307
1.29307
1.29307
1.29307
1.29308
1.29308
1.29309
1.2931
1.29311
1.29306
1.29306
1.29306
1.29306
1.29306
1.29306
1.29306
1.29306
1.29306
1.29306
1.29306
1.29306
1.29306
1.29306
1.29306
1.29307
1.29307
1.29307
1.29308
1.29308
1.29309
1.2931
1.29311
999.411
999.96
996.108
260.747
999.434
999.96
1000.01
970.137
999.987
1000.04
1000.01
999.66
1000.05
1000.05
1000.05
1000.05
1000.05
1000.05
1000.05
1000.05
573.101
730.805
915.375
997.849
34.0888
71.1057
138.196
230.321
1.38491
1.70246
2.70626
4.89948
1.30151
1.30361
1.3064
1.30714
1.33415
1.33416
1.33416
1.33417
1.29315
1.32455
1.33416
1.33415
1.29318
1.29349
1.295
1.29992
1.29315
1.29315
1.29315
1.29315
1.29315
1.29315
1.29315
1.29315
1.29315
1.29315
1.29315
1.29315
1.29315
1.29315
1.29315
1.29315
1.29315
1.29315
1.29315
1.29315
1.29315
1.29315
1.29315
1.29314
1.29314
1.29314
1.29314
1.29314
1.29314
1.29314
1.29314
1.29314
1.29314
1.29314
1.29314
1.29314
1.29314
1.29314
1.29314
1.29314
1.29314
1.29314
1.29314
1.29313
1.29314
1.29313
1.29313
1.29313
1.29313
1.29313
1.29313
1.29313
1.29313
1.29313
1.29313
1.29313
1.29313
1.29313
1.29313
1.29313
1.29313
1.29313
1.29313
1.29313
1.29313
1.29313
1.29313
1.29313
1.29313
1.29313
1.29313
1.29313
1.29313
1.29313
1.29313
1.29313
1.29313
1.29313
1.29313
1.29313
1.29313
1.29313
1.29313
1.29313
1.29313
1.29313
1.29313
1.29313
1.29312
1.29313
1.29313
1.29313
1.29312
1.29313
1.29313
1.29313
1.29311
1.29312
1.29313
1.29313
1.29311
1.29312
1.29313
1.29313
1.2931
1.29311
1.29312
1.29313
1.29311
1.29312
1.29312
1.29313
1.29311
1.29312
1.29312
1.29313
1.29312
1.29313
1.29314
1.29315
7.19555
1.92569
1.3448
1.28972
1.28943
1.28943
1.28943
1.28942
1.28942
1.28941
1.28942
1.2894
1.28939
1.2893
1.28924
1.28916
1.28873
1.29113
1.28983
828.335
295.487
14.371
1.32131
1.28942
1.28943
1.28943
1.28942
1.28943
1.28942
1.28942
1.2894
1.28939
1.28931
1.28917
1.28894
1.28882
1.29033
3.17158
1000.05
798.497
123.779
3.02034
1.29338
1.28936
1.28918
1.28945
1.28944
1.28944
1.28945
1.28942
1.28941
1.28934
1.28922
1.28893
1.28918
1.29081
171.786
1000.05
1000.05
680.907
51.7635
1.2896
1.28924
1.28807
1.28832
1.28925
1.28952
1.28939
1.28945
1.28948
1.28952
1.28949
1.28924
1.28943
1.2912
623.892
1000.05
1000.05
1000.05
736.771
277.632
29.971
1.28427
1.28457
1.28667
1.29007
1.29091
1.29009
1.28906
1.28901
1.28925
1.28935
1.28956
1.29084
742.107
1000.05
1000.05
1000.05
994.832
923.695
746.563
487.603
355.305
299.793
241.536
177.234
126.173
64.1829
1.28696
1.28961
1.29012
1.49248
1.28893
742.309
471.351
848.945
998.709
1000.05
1000.05
1000.05
993.357
974.514
955.681
929.575
890.602
843.848
776.337
617.136
375.073
191.698
90.7576
236.125
836.194
12.8771
113.41
326.154
625.408
836.302
939.99
981.797
995.188
999.966
999.966
999.966
999.966
999.966
999.023
968.483
895.306
779.792
875.958
977.957
1.32553
2.3475
8.44909
43.13
128.735
258.806
390.112
447.686
479.38
521.687
588.455
682.109
795.228
933.834
995.114
995.114
991.391
991.732
988.601
1.30201
1.29422
1.29749
1.37377
2.00327
4.1772
8.02031
11.4338
14.2962
18.2282
30.1526
61.6043
124.274
247.497
514.421
863.569
988.105
991.732
940.812
1.32318
1.29388
1.29317
1.29317
1.29318
1.29332
1.29397
1.29517
1.29699
1.30092
1.31828
1.43797
2.23394
6.72004
6.77145
313.022
858.799
991.732
846.72
1.29999
1.29442
1.29315
1.29315
1.29315
1.29315
1.29315
1.29315
1.29315
1.29317
1.29317
1.29316
1.29333
1.29772
1.29773
53.8284
666.993
991.572
829.683
1.29315
1.29318
1.29316
1.29315
1.29315
1.29315
1.29315
1.29315
1.29315
1.29316
1.29316
1.29315
1.29315
1.29383
2.63168
112.087
747.903
991.732
813.979
1.29315
1.29315
1.29315
1.29315
1.29315
1.29315
1.29315
1.29315
1.29315
1.29315
1.29316
1.29315
1.29332
1.44566
16.6298
316.409
890.546
991.731
668.86
1.29315
1.29315
1.29315
1.29315
1.29315
1.29315
1.29315
1.29315
1.29315
1.29315
1.29316
1.29315
1.29404
3.781
127.847
647.13
895.533
896.961
326.396
1.29315
1.29315
1.29315
1.29315
1.29315
1.29315
1.29315
1.29315
1.29315
1.29315
1.29315
1.29315
1.29734
12.5155
373.896
839.635
895.105
714.893
311.695
1.29315
1.29314
1.29314
1.29314
1.29315
1.29315
1.29315
1.29315
1.29315
1.29315
1.29315
1.29314
1.29524
8.30839
229.925
690.877
886.879
772.753
329.746
1.29314
1.29314
1.29314
1.29314
1.29315
1.29317
1.29318
1.29315
1.29314
1.29314
1.29314
1.29313
1.29312
2.11681
11.4521
179.01
667.963
737.255
449.82
1.29314
1.29314
1.29314
1.29314
1.29316
1.29315
1.29318
1.2932
1.29319
1.29315
1.29314
1.29313
1.29312
1.32783
1.51247
13.4122
366.494
399.389
229.542
1.29314
1.29314
1.29314
1.29313
1.29361
1.29381
1.29323
1.2932
1.2932
1.29314
1.29313
1.29313
1.29312
1.29487
1.29313
3.1681
135.672
390.834
159.934
1.29314
1.29314
1.29313
1.29313
1.29318
1.30424
1.303
1.29419
1.29311
1.29311
1.29312
1.29313
1.29313
1.29312
1.29314
1.29313
1.2976
398.005
159.934
1.29314
1.29313
1.29313
1.29312
1.29382
1.30627
1.30899
1.30505
1.30489
1.30083
1.29496
1.29314
1.29313
1.29313
1.29314
1.29314
1.29318
397.76
159.935
1.29313
1.29313
1.29314
1.29312
1.29311
1.29676
1.32493
1.32596
1.32601
1.31507
1.29447
1.29312
1.29312
1.29313
1.29315
1.29315
1.29318
258.257
243.974
1.29313
1.29313
1.29313
1.2932
1.29311
1.29311
1.30293
1.31391
1.31194
1.30595
1.29421
1.29309
1.29312
1.29313
1.29315
1.29315
1.29318
18.6712
321.579
1.29313
1.29312
1.29312
1.29365
1.29438
1.29371
1.29356
1.29354
1.29367
1.30816
1.29308
1.29308
1.29331
1.29318
1.29315
1.29314
1.29319
1.29316
321.509
1.29313
1.29312
1.29311
1.29364
1.29626
1.29403
1.29355
1.29352
1.2935
1.30136
1.33121
1.31323
1.2938
1.29314
1.29314
1.29314
1.29318
1.29316
321.52
1.29313
1.29312
1.29311
1.29321
1.2963
1.29412
1.29354
1.30553
1.29346
1.34501
1.46868
1.35782
1.29341
1.29312
1.29315
1.29314
1.2932
1.29314
297.599
1.29312
1.29312
1.29311
1.29309
1.29628
1.29398
1.29352
1.36242
1.42657
1.46931
1.46939
1.33811
1.2931
1.29311
1.29314
1.29314
1.41604
1.29312
109.208
1.29312
1.29312
1.29311
1.29309
1.29506
1.29329
1.29778
1.4215
1.46934
1.46936
1.46939
1.29461
1.2931
1.29312
1.29315
1.29467
1.47973
1.29312
109.295
1.29312
1.29312
1.29311
1.29314
1.29312
1.29326
1.30001
1.42505
1.46937
1.46937
1.34306
1.29307
1.29311
1.29313
1.29455
1.33583
1.41789
1.2931
272.877
1.29312
1.29312
1.29311
1.29315
1.29403
1.29417
1.29554
1.35154
1.42736
1.35035
1.29306
1.29307
1.29311
1.29316
1.30987
1.3337
1.32093
1.46905
301.595
1.29313
1.29312
1.29312
1.29315
1.29508
1.29572
1.29311
1.29465
1.30007
1.29412
1.29308
1.29309
1.29311
1.29316
1.29319
1.29316
1.33251
4.54801
301.71
1.29313
1.29312
1.29312
1.29312
1.29471
1.29582
1.29313
1.29311
1.29312
1.29314
1.29309
1.29368
1.2954
1.29319
43.5838
64.1439
20.1227
6.81018
236.289
1.29313
1.29313
1.29312
1.29312
1.29387
1.29582
1.29315
1.29314
1.29314
1.29322
1.29321
1.29326
1.29327
40.3572
350.03
469.986
269.845
17.0714
23.4976
1.29313
1.29313
1.29312
1.29311
1.29327
1.29442
1.29315
1.29316
1.29315
1.29335
1.29337
1.29323
1.29335
55.7794
462.839
469.986
430.63
59.827
1.40921
1.29313
1.29313
1.29312
1.29311
1.29316
1.29496
1.29324
1.29317
1.29338
1.29336
1.29325
1.29322
1.29324
21.6906
202.583
354.394
248.612
33.5491
1.40884
1.29313
1.29313
1.29312
1.29311
1.29309
1.29642
1.30334
1.29316
1.29357
1.29325
1.29318
1.29318
1.4201
2.76097
6.54017
22.2026
12.8188
7.03662
1.46403
1.29313
1.29313
1.29313
1.29312
1.29309
1.29529
1.30723
1.30166
1.29322
1.29323
1.29565
1.33216
1.3459
1.31372
1.29688
1.3006
1.29597
1.5362
1.44085
1.29313
1.29313
1.29313
1.29312
1.2931
1.29354
1.30723
1.31438
1.30503
1.30798
1.31574
1.31571
1.29702
1.29327
1.29306
1.29303
1.29299
1.32854
1.3507
1.29313
1.29313
1.29313
1.29313
1.29312
1.29321
1.30342
1.31438
1.31439
1.30347
1.30837
1.29406
1.29318
1.2936
1.29374
1.29324
1.29299
1.29331
1.30051
1.29313
1.29313
1.29313
1.29313
1.29313
1.29331
1.29571
1.30315
1.30319
1.29379
1.29371
1.29295
1.2948
1.29607
1.29604
1.29294
1.29296
1.29299
1.29729
1.29315
1.29314
1.29313
1.29313
1.29314
1.29315
1.29315
1.29314
1.29312
1.29306
1.29293
1.29276
1.29263
1.29256
1.29252
1.30011
1.29447
1.29299
1.29357
)
;

boundaryField
{
    leftWall
    {
        type            calculated;
        value           nonuniform List<scalar> 
50
(
1000.05
1000.05
1000.05
1000.05
1000.05
1000.05
1000.05
1000.05
1000.05
997.834
746.469
74.6774
1.29325
1.2932
1.29318
1.29317
1.29317
1.29317
1.29317
1.29317
1.29317
1.29316
1.29316
1.29316
1.29316
1.29316
1.29316
1.29315
1.29315
1.29315
1.29314
1.29314
1.29313
1.29312
1.29311
1.29309
1.29308
1.29307
1.29306
1.29306
1.29305
1.29305
1.29305
1.29305
1.29305
1.29305
1.29306
1.29306
1.29306
1.29306
)
;
    }
    rightWall
    {
        type            calculated;
        value           nonuniform List<scalar> 
50
(
1.28974
1.28976
1.2897
1.29005
1.29039
1.29048
1.29045
1.29021
1.28983
3.17158
171.786
623.892
742.107
742.309
836.194
977.957
988.601
940.812
846.72
829.683
813.979
668.86
326.396
311.695
329.746
449.82
229.542
159.934
159.934
159.935
243.974
321.579
321.509
321.52
297.599
109.208
109.295
272.877
301.595
301.71
236.289
23.4976
1.40921
1.40884
1.46403
1.44085
1.3507
1.30051
1.29729
1.29357
)
;
    }
    lowerWall
    {
        type            calculated;
        value           nonuniform List<scalar> 
62
(
1000.05
1000.05
1000.05
1000.05
1000.05
1000.05
1000.05
1000.05
1000.05
1000.05
1000.05
1000.05
1000.05
1000.05
1000.05
1000.05
1000.05
1000.05
1000.05
1000.05
1000.05
1000.05
999.488
999.488
999.488
999.977
1000.05
999.812
998.949
998.933
998.933
999.411
999.96
996.108
260.748
1.28944
1.28944
1.28943
1.28943
1.28943
1.28943
1.28943
1.2895
1.28944
1.28944
1.28944
1.28943
1.28943
1.28943
1.28943
1.28943
1.28943
1.28942
1.28943
1.28942
1.28942
1.28941
1.28942
1.28944
1.28957
1.28971
1.28974
)
;
    }
    atmosphere
    {
        type            calculated;
        value           nonuniform List<scalar> 
46
(
1.29316
1.29316
1.29316
1.29316
1.29316
1.29316
1.29316
1.29316
1.29316
1.29316
1.29316
1.29316
1.29316
1.29316
1.29316
1.29316
1.29316
1.29317
1.29317
1.29318
1.29318
1.29319
1.29321
1.29322
1.29323
1.29323
1.29324
1.29324
1.29324
1.29323
1.29322
1.29323
1.29324
1.29325
1.29323
1.29321
1.29315
1.29303
1.29286
1.29272
1.29265
1.29262
1.30021
1.29457
1.29308
1.29366
)
;
    }
    defaultFaces
    {
        type            empty;
    }
}


// ************************************************************************* //
