/*--------------------------------*- C++ -*----------------------------------*\
| =========                 |                                                 |
| \\      /  F ield         | OpenFOAM: The Open Source CFD Toolbox           |
|  \\    /   O peration     | Version:  2012                                  |
|   \\  /    A nd           | Website:  www.openfoam.com                      |
|    \\/     M anipulation  |                                                 |
\*---------------------------------------------------------------------------*/
FoamFile
{
    version     2.0;
    format      ascii;
    class       volScalarField;
    location    "0.41";
    object      rho2;
}
// * * * * * * * * * * * * * * * * * * * * * * * * * * * * * * * * * * * * * //

dimensions      [1 -3 0 0 0 0 0];


internalField   nonuniform List<scalar> 
2268
(
1.30402
1.30402
1.30401
1.304
1.30399
1.30399
1.30397
1.30399
1.30399
1.304
1.30405
1.30406
1.30416
1.3042
1.30435
1.30441
1.30462
1.30468
1.30497
1.30501
1.30535
1.30537
1.30557
1.30326
1.30326
1.30325
1.30324
1.30323
1.30323
1.30321
1.30323
1.30323
1.30324
1.3033
1.3033
1.30341
1.30344
1.3036
1.30366
1.30388
1.30394
1.30424
1.30428
1.30462
1.30464
1.30484
1.30249
1.30249
1.30248
1.30248
1.30246
1.30246
1.30245
1.30246
1.30246
1.30247
1.30253
1.30253
1.30264
1.30268
1.30284
1.30289
1.3031
1.30314
1.30342
1.30341
1.30374
1.30371
1.3039
1.30172
1.30172
1.30171
1.30171
1.30169
1.3017
1.30168
1.30169
1.3017
1.30171
1.30176
1.30177
1.30189
1.30192
1.30209
1.30214
1.30236
1.30242
1.30272
1.30273
1.30308
1.30306
1.30321
1.30094
1.30093
1.30093
1.30092
1.30091
1.30091
1.30089
1.3009
1.30091
1.30092
1.30098
1.30099
1.3011
1.30113
1.3013
1.30135
1.30156
1.30157
1.30184
1.30173
1.30203
1.30181
1.30202
1.30015
1.30015
1.30014
1.30014
1.30013
1.30013
1.30011
1.30013
1.30013
1.30015
1.3002
1.30022
1.30034
1.30037
1.30055
1.3006
1.30083
1.30086
1.30116
1.30111
1.30146
1.30135
1.30148
1.29935
1.29935
1.29934
1.29933
1.29932
1.29932
1.29931
1.29932
1.29932
1.29935
1.29939
1.29942
1.29954
1.29956
1.29975
1.29978
1.30001
1.29997
1.30024
1.29997
1.30022
1.29955
1.29963
1.29856
1.29855
1.29855
1.29854
1.29853
1.29853
1.29852
1.29853
1.29854
1.29856
1.29861
1.29864
1.29876
1.2988
1.29899
1.29904
1.29929
1.29928
1.2996
1.2994
1.29974
1.29936
1.29953
1.28944
1.28944
1.28943
1.28943
1.28943
1.28943
1.28943
1.28943
1.28943
1.28942
1.28942
1.28942
1.28942
1.28941
1.28942
1.28944
1.28957
1.28971
1.28974
1.28944
1.28943
1.28943
1.28943
1.28943
1.28943
1.28943
1.28942
1.28943
1.28942
1.28942
1.28942
1.28942
1.28941
1.28945
1.28962
1.28982
1.28985
1.28976
1.28943
1.28943
1.28943
1.28943
1.28943
1.28943
1.28943
1.28942
1.28943
1.28942
1.28942
1.28941
1.28942
1.28942
1.28952
1.28974
1.28984
1.28967
1.2897
1.28943
1.28943
1.28943
1.28943
1.28943
1.28943
1.28943
1.28942
1.28942
1.28942
1.28942
1.28941
1.28942
1.28943
1.28958
1.28974
1.28972
1.28956
1.29005
1.28943
1.28943
1.28943
1.28943
1.28943
1.28943
1.28943
1.28942
1.28942
1.28942
1.28942
1.28941
1.28942
1.28943
1.28959
1.28968
1.28955
1.28949
1.29039
1.28943
1.28943
1.28943
1.28943
1.28943
1.28943
1.28943
1.28942
1.28942
1.28942
1.28942
1.28941
1.28941
1.28942
1.28955
1.28958
1.28934
1.28937
1.29048
1.28943
1.28943
1.28944
1.28943
1.28943
1.28943
1.28943
1.28942
1.28942
1.28942
1.28942
1.28941
1.28941
1.2894
1.28948
1.28945
1.28902
1.28927
1.29045
1.2895
1.28948
1.28943
1.28943
1.28943
1.28943
1.28943
1.28942
1.28942
1.28942
1.28942
1.28941
1.2894
1.28937
1.28941
1.28932
1.2888
1.28924
1.2902
1.29728
1.29728
1.29727
1.29726
1.29725
1.29724
1.29724
1.29724
1.29725
1.29727
1.29731
1.29736
1.29747
1.29751
1.29771
1.29773
1.29798
1.29785
1.29812
1.29744
1.29762
1.29519
1.2942
1.29558
1.29558
1.29557
1.29557
1.29556
1.29555
1.29555
1.29555
1.29557
1.2956
1.29564
1.2957
1.29581
1.29589
1.29609
1.29619
1.29649
1.29651
1.2969
1.29659
1.29689
1.29557
1.2957
1.29401
1.29401
1.294
1.29399
1.29399
1.29398
1.29398
1.29397
1.29398
1.29399
1.29401
1.29406
1.29412
1.29421
1.29436
1.29449
1.29472
1.29479
1.29503
1.29476
1.29477
1.2937
1.2935
1.29334
1.29334
1.29334
1.29333
1.29334
1.29334
1.29334
1.29334
1.29334
1.29334
1.29335
1.29335
1.29337
1.29339
1.29343
1.29349
1.2936
1.2938
1.29405
1.29413
1.29414
1.2937
1.29364
1.29325
1.29325
1.29324
1.29324
1.29325
1.29325
1.29325
1.29325
1.29326
1.29325
1.29325
1.29325
1.29326
1.29326
1.29328
1.29329
1.29328
1.29329
1.29334
1.29345
1.29356
1.29341
1.29312
1.2932
1.2932
1.2932
1.2932
1.2932
1.2932
1.2932
1.2932
1.29319
1.29319
1.29319
1.29319
1.29318
1.29318
1.29319
1.29319
1.29319
1.2932
1.29321
1.29323
1.29325
1.29334
1.2935
1.29318
1.29318
1.29318
1.29318
1.29318
1.29318
1.29318
1.29318
1.29318
1.29318
1.29317
1.29317
1.29317
1.29317
1.29317
1.29317
1.29317
1.29317
1.29317
1.29318
1.2932
1.29321
1.29323
1.29317
1.29317
1.29317
1.29317
1.29317
1.29317
1.29317
1.29317
1.29317
1.29317
1.29317
1.29317
1.29317
1.29317
1.29317
1.29317
1.29317
1.29317
1.29316
1.29316
1.29317
1.29318
1.29319
1.29317
1.29317
1.29317
1.29317
1.29317
1.29317
1.29317
1.29317
1.29317
1.29317
1.29317
1.29317
1.29317
1.29317
1.29317
1.29317
1.29316
1.29316
1.29316
1.29316
1.29316
1.29316
1.29317
1.29317
1.29317
1.29317
1.29317
1.29317
1.29317
1.29317
1.29317
1.29317
1.29317
1.29317
1.29317
1.29317
1.29317
1.29317
1.29316
1.29316
1.29316
1.29316
1.29316
1.29316
1.29316
1.29316
1.29317
1.29317
1.29317
1.29317
1.29317
1.29317
1.29317
1.29317
1.29317
1.29317
1.29317
1.29317
1.29317
1.29316
1.29316
1.29316
1.29316
1.29316
1.29316
1.29316
1.29316
1.29315
1.29315
1.29317
1.29317
1.29317
1.29317
1.29317
1.29317
1.29317
1.29317
1.29317
1.29317
1.29317
1.29316
1.29316
1.29316
1.29316
1.29316
1.29316
1.29316
1.29316
1.29316
1.29316
1.29315
1.29315
1.29317
1.29317
1.29317
1.29317
1.29317
1.29317
1.29317
1.29316
1.29316
1.29316
1.29316
1.29316
1.29316
1.29316
1.29316
1.29316
1.29316
1.29316
1.29316
1.29316
1.29315
1.29315
1.29315
1.29316
1.29316
1.29316
1.29316
1.29316
1.29316
1.29316
1.29316
1.29316
1.29316
1.29316
1.29316
1.29316
1.29316
1.29316
1.29316
1.29316
1.29316
1.29316
1.29315
1.29315
1.29315
1.29315
1.29316
1.29316
1.29316
1.29316
1.29316
1.29316
1.29316
1.29316
1.29316
1.29316
1.29316
1.29316
1.29316
1.29316
1.29316
1.29316
1.29316
1.29316
1.29315
1.29315
1.29315
1.29315
1.29315
1.29316
1.29316
1.29316
1.29316
1.29316
1.29316
1.29316
1.29316
1.29316
1.29316
1.29316
1.29316
1.29316
1.29316
1.29316
1.29316
1.29316
1.29315
1.29315
1.29315
1.29315
1.29315
1.29315
1.29316
1.29316
1.29316
1.29316
1.29316
1.29316
1.29316
1.29316
1.29316
1.29316
1.29316
1.29316
1.29316
1.29316
1.29315
1.29315
1.29315
1.29315
1.29315
1.29315
1.29315
1.29315
1.29315
1.29316
1.29316
1.29316
1.29316
1.29316
1.29316
1.29316
1.29316
1.29316
1.29316
1.29316
1.29316
1.29315
1.29315
1.29315
1.29315
1.29315
1.29315
1.29315
1.29315
1.29315
1.29315
1.29315
1.29316
1.29316
1.29316
1.29316
1.29316
1.29316
1.29316
1.29315
1.29315
1.29315
1.29315
1.29315
1.29315
1.29315
1.29315
1.29315
1.29315
1.29315
1.29315
1.29315
1.29315
1.29315
1.29315
1.29315
1.29315
1.29315
1.29315
1.29315
1.29315
1.29315
1.29315
1.29315
1.29315
1.29315
1.29315
1.29315
1.29315
1.29315
1.29315
1.29315
1.29315
1.29315
1.29315
1.29315
1.29314
1.29314
1.29315
1.29315
1.29315
1.29315
1.29315
1.29315
1.29315
1.29315
1.29315
1.29315
1.29315
1.29315
1.29315
1.29315
1.29315
1.29315
1.29315
1.29315
1.29315
1.29315
1.29314
1.29314
1.29314
1.29315
1.29315
1.29315
1.29315
1.29315
1.29315
1.29315
1.29315
1.29315
1.29315
1.29315
1.29315
1.29315
1.29315
1.29315
1.29315
1.29315
1.29315
1.29314
1.29314
1.29314
1.29314
1.29314
1.29314
1.29314
1.29314
1.29315
1.29315
1.29315
1.29315
1.29315
1.29315
1.29315
1.29315
1.29315
1.29315
1.29315
1.29315
1.29314
1.29314
1.29314
1.29314
1.29314
1.29314
1.29314
1.29314
1.29314
1.29314
1.29314
1.29314
1.29314
1.29314
1.29314
1.29314
1.29314
1.29314
1.29314
1.29314
1.29314
1.29314
1.29314
1.29314
1.29314
1.29314
1.29314
1.29314
1.29314
1.29314
1.29314
1.29313
1.29313
1.29313
1.29313
1.29313
1.29313
1.29314
1.29314
1.29314
1.29314
1.29314
1.29314
1.29314
1.29314
1.29314
1.29314
1.29314
1.29314
1.29314
1.29314
1.29314
1.29314
1.29314
1.29312
1.29312
1.29312
1.29312
1.29312
1.29313
1.29313
1.29313
1.29313
1.29313
1.29313
1.29313
1.29313
1.29313
1.29313
1.29314
1.29314
1.29314
1.29314
1.29314
1.29314
1.29314
1.29313
1.29311
1.29311
1.29311
1.29311
1.29311
1.29311
1.29311
1.29311
1.29312
1.29312
1.29312
1.29312
1.29312
1.29313
1.29313
1.29313
1.29313
1.29313
1.29313
1.29313
1.29313
1.29313
1.29313
1.29309
1.29309
1.29309
1.2931
1.2931
1.2931
1.2931
1.2931
1.2931
1.2931
1.29311
1.29311
1.29311
1.29311
1.29312
1.29312
1.29312
1.29313
1.29313
1.29313
1.29313
1.29313
1.29313
1.29308
1.29308
1.29308
1.29308
1.29308
1.29308
1.29308
1.29309
1.29309
1.29309
1.29309
1.29309
1.29309
1.2931
1.2931
1.29311
1.29311
1.29312
1.29312
1.29313
1.29313
1.29313
1.29313
1.29307
1.29307
1.29307
1.29307
1.29307
1.29307
1.29307
1.29307
1.29307
1.29308
1.29308
1.29308
1.29308
1.29308
1.29309
1.29309
1.2931
1.2931
1.29311
1.29312
1.29312
1.29313
1.29313
1.29306
1.29306
1.29306
1.29306
1.29306
1.29306
1.29306
1.29307
1.29307
1.29307
1.29307
1.29307
1.29307
1.29307
1.29308
1.29308
1.29308
1.29309
1.2931
1.29311
1.29312
1.29312
1.29313
1.29306
1.29306
1.29306
1.29306
1.29306
1.29306
1.29306
1.29306
1.29306
1.29306
1.29306
1.29306
1.29306
1.29306
1.29307
1.29307
1.29307
1.29308
1.29309
1.2931
1.29311
1.29312
1.29313
1.29305
1.29305
1.29305
1.29305
1.29305
1.29305
1.29305
1.29305
1.29305
1.29305
1.29305
1.29306
1.29306
1.29306
1.29306
1.29306
1.29307
1.29307
1.29308
1.29309
1.2931
1.29311
1.29312
1.29305
1.29305
1.29305
1.29305
1.29305
1.29305
1.29305
1.29305
1.29305
1.29305
1.29305
1.29305
1.29305
1.29305
1.29306
1.29306
1.29306
1.29306
1.29307
1.29308
1.29309
1.2931
1.29312
1.29305
1.29305
1.29305
1.29305
1.29305
1.29305
1.29305
1.29305
1.29305
1.29305
1.29305
1.29305
1.29305
1.29305
1.29305
1.29305
1.29306
1.29306
1.29307
1.29307
1.29308
1.29309
1.29311
1.29305
1.29305
1.29305
1.29305
1.29305
1.29305
1.29305
1.29305
1.29305
1.29305
1.29305
1.29305
1.29305
1.29305
1.29305
1.29305
1.29306
1.29306
1.29306
1.29307
1.29308
1.29309
1.29311
1.29305
1.29305
1.29305
1.29305
1.29305
1.29305
1.29305
1.29305
1.29305
1.29305
1.29305
1.29305
1.29305
1.29305
1.29305
1.29305
1.29305
1.29306
1.29306
1.29307
1.29307
1.29308
1.2931
1.29305
1.29305
1.29305
1.29305
1.29305
1.29305
1.29305
1.29305
1.29305
1.29305
1.29305
1.29305
1.29305
1.29305
1.29305
1.29306
1.29306
1.29306
1.29306
1.29307
1.29307
1.29308
1.2931
1.29306
1.29306
1.29306
1.29306
1.29306
1.29306
1.29306
1.29306
1.29306
1.29306
1.29306
1.29306
1.29306
1.29306
1.29306
1.29306
1.29306
1.29307
1.29307
1.29307
1.29308
1.29308
1.29309
1.29306
1.29306
1.29306
1.29306
1.29306
1.29306
1.29306
1.29306
1.29306
1.29306
1.29306
1.29306
1.29306
1.29306
1.29307
1.29307
1.29307
1.29307
1.29308
1.29308
1.29309
1.29309
1.2931
1.29306
1.29306
1.29306
1.29306
1.29306
1.29306
1.29306
1.29306
1.29306
1.29306
1.29306
1.29306
1.29306
1.29306
1.29307
1.29307
1.29307
1.29307
1.29308
1.29308
1.29309
1.2931
1.29311
1.29306
1.29306
1.29306
1.29306
1.29306
1.29306
1.29306
1.29306
1.29306
1.29306
1.29306
1.29306
1.29306
1.29306
1.29306
1.29307
1.29307
1.29307
1.29308
1.29308
1.29309
1.2931
1.29311
1.28689
1.29031
1.28791
1.29112
1.29212
1.29169
1.28979
1.2897
1.29154
1.29133
1.29058
1.29038
1.29235
1.29211
1.29141
1.29117
1.29249
1.2922
1.29188
1.29155
1.29352
1.29342
1.29319
1.29291
1.29324
1.29327
1.29332
1.29338
1.29321
1.29322
1.29322
1.29322
1.29317
1.29318
1.29319
1.2932
1.29316
1.29316
1.29316
1.29317
1.29315
1.29315
1.29315
1.29315
1.29315
1.29315
1.29315
1.29315
1.29315
1.29315
1.29315
1.29315
1.29315
1.29315
1.29315
1.29315
1.29315
1.29315
1.29315
1.29315
1.29315
1.29315
1.29315
1.29315
1.29315
1.29315
1.29315
1.29315
1.29315
1.29315
1.29315
1.29314
1.29314
1.29314
1.29314
1.29314
1.29314
1.29314
1.29314
1.29314
1.29314
1.29314
1.29314
1.29314
1.29314
1.29314
1.29314
1.29314
1.29314
1.29314
1.29314
1.29313
1.29314
1.29313
1.29313
1.29313
1.29313
1.29313
1.29313
1.29313
1.29313
1.29313
1.29313
1.29313
1.29313
1.29313
1.29313
1.29313
1.29313
1.29313
1.29313
1.29313
1.29313
1.29313
1.29313
1.29313
1.29313
1.29313
1.29313
1.29313
1.29313
1.29313
1.29313
1.29313
1.29313
1.29313
1.29313
1.29313
1.29313
1.29313
1.29313
1.29313
1.29313
1.29313
1.29313
1.29313
1.29312
1.29313
1.29313
1.29313
1.29312
1.29313
1.29313
1.29313
1.29311
1.29312
1.29313
1.29313
1.29311
1.29312
1.29313
1.29313
1.2931
1.29311
1.29312
1.29313
1.29311
1.29312
1.29312
1.29313
1.29311
1.29312
1.29312
1.29313
1.29312
1.29313
1.29314
1.29315
1.29504
1.29037
1.28944
1.28943
1.28943
1.28943
1.28943
1.28942
1.28942
1.28941
1.28942
1.2894
1.28939
1.2893
1.28924
1.28916
1.28873
1.28929
1.28951
1.28871
1.2883
1.28713
1.28876
1.28942
1.28943
1.28943
1.28942
1.28943
1.28942
1.28942
1.2894
1.28939
1.28931
1.28917
1.28894
1.28882
1.28987
1.2889
1.28961
1.28805
1.287
1.28964
1.28958
1.28936
1.28918
1.28945
1.28944
1.28943
1.28943
1.28941
1.28941
1.28934
1.28922
1.28893
1.28918
1.29081
1.28874
1.28985
1.28928
1.28688
1.2879
1.2896
1.28924
1.28807
1.28832
1.28925
1.28952
1.28938
1.28944
1.28944
1.28941
1.28938
1.28916
1.28943
1.2912
1.2886
1.29116
1.29008
1.28896
1.28749
1.28819
1.28771
1.28427
1.28457
1.28667
1.29007
1.29091
1.29009
1.28906
1.28899
1.28919
1.2893
1.28954
1.29084
1.28884
1.29213
1.29132
1.2902
1.28966
1.28833
1.28682
1.28553
1.2855
1.28612
1.28821
1.28915
1.28854
1.28709
1.28696
1.28961
1.29012
1.28951
1.28893
1.28905
1.2935
1.29312
1.29227
1.29124
1.29059
1.29011
1.28903
1.2883
1.28805
1.28817
1.28803
1.28746
1.28663
1.28677
1.2881
1.28806
1.28742
1.28796
1.2917
1.29322
1.29328
1.29339
1.29333
1.29284
1.29218
1.29173
1.29153
1.29135
1.29118
1.29097
1.29056
1.29012
1.2897
1.28941
1.28886
1.28961
1.29385
1.29884
1.29321
1.29321
1.29319
1.29319
1.29324
1.29331
1.29335
1.29334
1.29333
1.2933
1.29321
1.29297
1.29264
1.29229
1.29198
1.2927
1.29528
1.29776
1.30174
1.29318
1.29319
1.29319
1.29319
1.29318
1.29316
1.29313
1.2931
1.29309
1.29309
1.2931
1.29312
1.29318
1.29326
1.29349
1.29327
1.29553
1.29855
1.3012
1.29315
1.29316
1.29317
1.29317
1.29317
1.29316
1.29315
1.29314
1.29313
1.29313
1.29314
1.29314
1.29314
1.29312
1.29313
1.29352
1.29586
1.29775
1.29949
1.29315
1.29315
1.29315
1.29315
1.29315
1.29315
1.29315
1.29315
1.29315
1.29315
1.29315
1.29315
1.29314
1.29313
1.29314
1.29311
1.29434
1.29606
1.29673
1.29315
1.29315
1.29315
1.29315
1.29315
1.29315
1.29315
1.29315
1.29315
1.29315
1.29315
1.29315
1.29315
1.29314
1.29314
1.29314
1.29418
1.29547
1.29539
1.29315
1.29315
1.29315
1.29315
1.29315
1.29315
1.29315
1.29315
1.29315
1.29315
1.29315
1.29315
1.29316
1.29316
1.29317
1.29331
1.29455
1.2944
1.29411
1.29315
1.29315
1.29315
1.29315
1.29315
1.29315
1.29315
1.29315
1.29315
1.29315
1.29315
1.29315
1.29317
1.29317
1.2932
1.2935
1.29426
1.29368
1.29329
1.29315
1.29315
1.29315
1.29315
1.29315
1.29315
1.29315
1.29315
1.29315
1.29315
1.29315
1.29315
1.29316
1.29316
1.29329
1.29363
1.29416
1.29337
1.29273
1.29315
1.29314
1.29314
1.29314
1.29314
1.29314
1.29315
1.29315
1.29315
1.29315
1.29314
1.29314
1.29312
1.29313
1.29335
1.29347
1.2938
1.29315
1.29206
1.29314
1.29314
1.29314
1.29314
1.29314
1.29314
1.29314
1.29314
1.29314
1.29314
1.29314
1.29313
1.29312
1.29309
1.29315
1.29315
1.29344
1.29333
1.29188
1.29314
1.29314
1.29314
1.29314
1.29314
1.29313
1.29314
1.29313
1.29314
1.29314
1.29314
1.29313
1.29312
1.2931
1.29312
1.2931
1.29339
1.29297
1.29173
1.29314
1.29314
1.29314
1.29313
1.29313
1.29312
1.29312
1.29312
1.29313
1.29313
1.29313
1.29313
1.29312
1.29311
1.29313
1.29314
1.29335
1.29287
1.29191
1.29314
1.29314
1.29313
1.29313
1.29312
1.29311
1.29311
1.2931
1.29311
1.29311
1.29312
1.29312
1.29312
1.29312
1.29314
1.29313
1.29323
1.29306
1.29196
1.29314
1.29313
1.29313
1.29312
1.29311
1.2931
1.2931
1.29309
1.29309
1.29309
1.29311
1.29311
1.29312
1.29312
1.29314
1.29314
1.29318
1.29318
1.29263
1.29313
1.29313
1.29312
1.29311
1.2931
1.2931
1.29309
1.29308
1.29308
1.29308
1.29309
1.2931
1.29312
1.29313
1.29314
1.29315
1.29318
1.2932
1.29293
1.29313
1.29313
1.29312
1.29311
1.2931
1.29309
1.29309
1.29308
1.29307
1.29306
1.29307
1.29309
1.29311
1.29312
1.29314
1.29315
1.29318
1.29317
1.29289
1.29313
1.29312
1.29312
1.2931
1.29309
1.29309
1.29308
1.29306
1.29305
1.29304
1.29306
1.29308
1.29311
1.29312
1.29315
1.29314
1.29319
1.29316
1.29285
1.29313
1.29312
1.29311
1.2931
1.29309
1.29309
1.29307
1.29304
1.29302
1.29302
1.29304
1.29306
1.2931
1.29311
1.29314
1.29314
1.29318
1.29316
1.29285
1.29313
1.29312
1.29311
1.29309
1.29308
1.29308
1.29306
1.29301
1.29299
1.29299
1.29302
1.29305
1.29309
1.29311
1.29315
1.29314
1.2932
1.29314
1.29287
1.29312
1.29312
1.29311
1.29309
1.29307
1.29308
1.29305
1.29299
1.29297
1.29297
1.29302
1.29305
1.2931
1.29311
1.29314
1.29314
1.29318
1.29312
1.29287
1.29312
1.29312
1.29311
1.29309
1.29307
1.29308
1.29304
1.29299
1.29297
1.29298
1.29302
1.29305
1.2931
1.29311
1.29315
1.29315
1.29319
1.29312
1.29288
1.29312
1.29312
1.29311
1.29309
1.29308
1.29308
1.29305
1.293
1.293
1.293
1.29304
1.29307
1.29311
1.29311
1.29314
1.29314
1.29316
1.2931
1.2928
1.29312
1.29312
1.29311
1.2931
1.29309
1.29309
1.29307
1.29303
1.29302
1.29303
1.29306
1.29307
1.29311
1.2931
1.29315
1.29317
1.29319
1.29311
1.29273
1.29313
1.29312
1.29312
1.2931
1.29309
1.2931
1.29309
1.29306
1.29305
1.29306
1.29308
1.29309
1.29311
1.29314
1.29319
1.29316
1.29317
1.29307
1.29256
1.29313
1.29312
1.29312
1.29311
1.29309
1.2931
1.29311
1.29309
1.29308
1.29308
1.29309
1.2931
1.29314
1.29317
1.29324
1.29328
1.29329
1.29328
1.29298
1.29313
1.29313
1.29312
1.29311
1.2931
1.2931
1.29313
1.29311
1.2931
1.29311
1.29313
1.29314
1.29327
1.29337
1.29327
1.2932
1.29362
1.29388
1.29427
1.29313
1.29313
1.29312
1.29311
1.29309
1.29309
1.29313
1.29313
1.29313
1.29314
1.29316
1.29322
1.29335
1.29337
1.29336
1.29345
1.29348
1.29378
1.29331
1.29313
1.29313
1.29312
1.29311
1.29309
1.29308
1.29312
1.29314
1.29314
1.29315
1.29317
1.29322
1.29324
1.29323
1.2932
1.29304
1.293
1.293
1.29288
1.29313
1.29313
1.29312
1.29311
1.29309
1.29307
1.29309
1.29313
1.29314
1.29315
1.29318
1.29318
1.29313
1.29306
1.29294
1.29283
1.2928
1.29286
1.29278
1.29313
1.29313
1.29313
1.29312
1.29309
1.29306
1.29307
1.29311
1.29313
1.29314
1.29316
1.29312
1.29307
1.29302
1.29297
1.29291
1.29288
1.29289
1.2928
1.29313
1.29313
1.29313
1.29312
1.2931
1.29307
1.29306
1.29308
1.2931
1.29312
1.29312
1.29309
1.29308
1.29306
1.29304
1.29302
1.29299
1.29295
1.2928
1.29313
1.29313
1.29313
1.29313
1.29312
1.29309
1.29308
1.29308
1.29309
1.29311
1.2931
1.29309
1.29306
1.29291
1.29293
1.29297
1.29299
1.29298
1.29281
1.29313
1.29313
1.29313
1.29313
1.29313
1.29312
1.2931
1.2931
1.2931
1.2931
1.29306
1.29291
1.2927
1.2926
1.29257
1.2928
1.29296
1.29299
1.29282
1.29315
1.29314
1.29313
1.29313
1.29313
1.29313
1.29313
1.29312
1.29309
1.29305
1.29292
1.29274
1.29262
1.29256
1.29252
1.29263
1.29287
1.29299
1.29282
)
;

boundaryField
{
    leftWall
    {
        type            calculated;
        value           nonuniform List<scalar> 
50
(
1.30402
1.30326
1.30249
1.30172
1.30094
1.30015
1.29935
1.29856
1.29728
1.29558
1.29401
1.29334
1.29325
1.2932
1.29318
1.29317
1.29317
1.29317
1.29317
1.29317
1.29317
1.29316
1.29316
1.29316
1.29316
1.29316
1.29316
1.29315
1.29315
1.29315
1.29314
1.29314
1.29313
1.29312
1.29311
1.29309
1.29308
1.29307
1.29306
1.29306
1.29305
1.29305
1.29305
1.29305
1.29305
1.29305
1.29306
1.29306
1.29306
1.29306
)
;
    }
    rightWall
    {
        type            calculated;
        value           nonuniform List<scalar> 
50
(
1.28974
1.28976
1.2897
1.29005
1.29039
1.29048
1.29045
1.2902
1.28951
1.2889
1.28874
1.2886
1.28884
1.28905
1.2917
1.29884
1.30174
1.3012
1.29949
1.29673
1.29539
1.29411
1.29329
1.29273
1.29206
1.29188
1.29173
1.29191
1.29196
1.29263
1.29293
1.29289
1.29285
1.29285
1.29287
1.29287
1.29288
1.2928
1.29273
1.29256
1.29298
1.29427
1.29331
1.29288
1.29278
1.2928
1.2928
1.29281
1.29282
1.29282
)
;
    }
    lowerWall
    {
        type            calculated;
        value           nonuniform List<scalar> 
62
(
1.30439
1.30439
1.30438
1.30438
1.30437
1.30437
1.30435
1.30436
1.30436
1.30437
1.30443
1.30443
1.30454
1.30457
1.30473
1.30479
1.305
1.30506
1.30535
1.30538
1.30572
1.30575
1.30594
1.30557
1.30484
1.3039
1.30321
1.30202
1.30148
1.29963
1.29953
1.28769
1.29111
1.28871
1.29132
1.28944
1.28944
1.28943
1.28943
1.28943
1.28943
1.28943
1.2895
1.28944
1.28944
1.28944
1.28943
1.28943
1.28943
1.28943
1.28943
1.28943
1.28942
1.28943
1.28942
1.28942
1.28941
1.28942
1.28944
1.28957
1.28971
1.28974
)
;
    }
    atmosphere
    {
        type            calculated;
        value           nonuniform List<scalar> 
46
(
1.29316
1.29316
1.29316
1.29316
1.29316
1.29316
1.29316
1.29316
1.29316
1.29316
1.29316
1.29316
1.29316
1.29316
1.29316
1.29316
1.29316
1.29317
1.29317
1.29318
1.29318
1.29319
1.29321
1.29322
1.29323
1.29323
1.29324
1.29324
1.29324
1.29323
1.29322
1.29322
1.29323
1.29323
1.29321
1.29319
1.29314
1.29302
1.29283
1.29272
1.29265
1.29262
1.29273
1.29297
1.29308
1.29291
)
;
    }
    defaultFaces
    {
        type            empty;
    }
}


// ************************************************************************* //
