/*--------------------------------*- C++ -*----------------------------------*\
| =========                 |                                                 |
| \\      /  F ield         | OpenFOAM: The Open Source CFD Toolbox           |
|  \\    /   O peration     | Version:  2012                                  |
|   \\  /    A nd           | Website:  www.openfoam.com                      |
|    \\/     M anipulation  |                                                 |
\*---------------------------------------------------------------------------*/
FoamFile
{
    version     2.0;
    format      ascii;
    class       volVectorField;
    location    "0.41";
    object      U;
}
// * * * * * * * * * * * * * * * * * * * * * * * * * * * * * * * * * * * * * //

dimensions      [0 1 -1 0 0 0 0];


internalField   nonuniform List<vector> 
2268
(
(0.0176562 -0.00897508 0)
(0.0577844 -0.00900554 0)
(0.0934069 -0.00851302 0)
(0.129413 -0.00854903 0)
(0.165129 -0.0086887 0)
(0.202102 -0.00847425 0)
(0.235778 -0.0074992 0)
(0.264452 -0.0075331 0)
(0.298032 -0.00678334 0)
(0.320549 -0.0059461 0)
(0.345637 -0.00546521 0)
(0.366677 -0.00502324 0)
(0.38401 -0.00320413 0)
(0.392772 -0.00158331 0)
(0.39736 -0.000438478 0)
(0.394624 0.000722865 0)
(0.385853 0.00234748 0)
(0.366718 0.00271421 0)
(0.337509 0.00415039 0)
(0.29322 0.00376782 0)
(0.231815 0.00509664 0)
(0.15945 0.00607306 0)
(0.0632937 0.0308272 0)
(0.0175979 -0.0266726 0)
(0.0576631 -0.0267949 0)
(0.0935476 -0.0253282 0)
(0.129739 -0.0253492 0)
(0.165383 -0.0256493 0)
(0.20231 -0.0249255 0)
(0.235961 -0.0219443 0)
(0.265034 -0.0218932 0)
(0.298644 -0.0197275 0)
(0.321211 -0.0165212 0)
(0.346574 -0.0163703 0)
(0.368408 -0.0130498 0)
(0.383527 -0.00918271 0)
(0.394573 -0.00464606 0)
(0.399909 -0.00050166 0)
(0.397441 0.00482962 0)
(0.387718 0.0107529 0)
(0.367373 0.0203267 0)
(0.336427 0.0304803 0)
(0.290475 0.046491 0)
(0.224982 0.0580687 0)
(0.143815 0.0738734 0)
(0.0386579 0.0745632 0)
(0.0175103 -0.0445517 0)
(0.0576466 -0.0449137 0)
(0.0939118 -0.0425811 0)
(0.130375 -0.0425167 0)
(0.165937 -0.0429879 0)
(0.202766 -0.0418569 0)
(0.23637 -0.0371398 0)
(0.266252 -0.0371817 0)
(0.299857 -0.0333551 0)
(0.322537 -0.0285899 0)
(0.349057 -0.0278316 0)
(0.369809 -0.0224523 0)
(0.385106 -0.0156569 0)
(0.39727 -0.00928476 0)
(0.404473 -0.00191438 0)
(0.402523 0.00651825 0)
(0.393832 0.0163558 0)
(0.375633 0.0269523 0)
(0.349753 0.0400983 0)
(0.309226 0.0562946 0)
(0.249982 0.0738158 0)
(0.172049 0.0937526 0)
(0.0541739 0.116464 0)
(0.0174039 -0.062172 0)
(0.0577507 -0.0628888 0)
(0.0943562 -0.0596743 0)
(0.131125 -0.0593737 0)
(0.166668 -0.0598303 0)
(0.20333 -0.0582043 0)
(0.236885 -0.0519049 0)
(0.267854 -0.0518824 0)
(0.301373 -0.0463009 0)
(0.32443 -0.0397212 0)
(0.352408 -0.0387189 0)
(0.371761 -0.0299948 0)
(0.388566 -0.0221885 0)
(0.401242 -0.0136684 0)
(0.408433 -0.00301449 0)
(0.40756 0.0100686 0)
(0.398358 0.0234734 0)
(0.379294 0.0415652 0)
(0.350437 0.0620306 0)
(0.309302 0.0944622 0)
(0.247891 0.123394 0)
(0.171598 0.167598 0)
(0.0509676 0.182319 0)
(0.0172718 -0.0800931 0)
(0.0580533 -0.0813089 0)
(0.0949691 -0.0772795 0)
(0.132105 -0.0767257 0)
(0.167807 -0.0771336 0)
(0.204413 -0.0750864 0)
(0.237952 -0.0676547 0)
(0.270233 -0.067704 0)
(0.303353 -0.0601378 0)
(0.327061 -0.0527299 0)
(0.356677 -0.0502869 0)
(0.374628 -0.0395328 0)
(0.393519 -0.0297107 0)
(0.40595 -0.0186687 0)
(0.414618 -0.00507484 0)
(0.415099 0.0112388 0)
(0.409867 0.0294008 0)
(0.394267 0.0494047 0)
(0.371871 0.0724844 0)
(0.336007 0.104087 0)
(0.282241 0.137615 0)
(0.208264 0.185251 0)
(0.0769371 0.22017 0)
(0.0172989 -0.0977353 0)
(0.0583383 -0.09958 0)
(0.0955186 -0.0946304 0)
(0.133067 -0.0937631 0)
(0.169059 -0.0939551 0)
(0.205634 -0.0913227 0)
(0.23936 -0.0829496 0)
(0.272905 -0.0827541 0)
(0.305322 -0.0730997 0)
(0.33029 -0.0648508 0)
(0.361403 -0.0611759 0)
(0.37893 -0.0472849 0)
(0.398726 -0.0369931 0)
(0.412831 -0.0234611 0)
(0.421186 -0.00732722 0)
(0.422999 0.0126076 0)
(0.417659 0.0334099 0)
(0.403723 0.060156 0)
(0.379217 0.089944 0)
(0.343507 0.138308 0)
(0.285479 0.184925 0)
(0.214775 0.267529 0)
(0.0712629 0.319319 0)
(0.0178849 -0.11588 0)
(0.0584613 -0.118317 0)
(0.0961782 -0.112637 0)
(0.134337 -0.111533 0)
(0.170793 -0.111472 0)
(0.207446 -0.108375 0)
(0.241625 -0.0994945 0)
(0.276313 -0.0989457 0)
(0.307898 -0.0873289 0)
(0.334731 -0.0792859 0)
(0.367078 -0.0733852 0)
(0.383932 -0.0571971 0)
(0.406491 -0.045882 0)
(0.41931 -0.0293149 0)
(0.429937 -0.010106 0)
(0.432496 0.0128073 0)
(0.432771 0.0380847 0)
(0.421653 0.0672246 0)
(0.406929 0.0999894 0)
(0.378479 0.147139 0)
(0.334588 0.196298 0)
(0.273378 0.282871 0)
(0.116988 0.351536 0)
(0.0187689 -0.133764 0)
(0.0584097 -0.136532 0)
(0.0966917 -0.130432 0)
(0.13555 -0.12897 0)
(0.172508 -0.128439 0)
(0.209253 -0.124737 0)
(0.244038 -0.115414 0)
(0.279665 -0.114006 0)
(0.310773 -0.100616 0)
(0.340128 -0.0927268 0)
(0.372702 -0.0843625 0)
(0.389982 -0.0657619 0)
(0.415271 -0.0536896 0)
(0.427902 -0.0343073 0)
(0.440302 -0.0135252 0)
(0.443931 0.0116576 0)
(0.444795 0.0386804 0)
(0.436202 0.073214 0)
(0.420452 0.110845 0)
(0.396842 0.174698 0)
(0.347763 0.236349 0)
(0.291756 0.376009 0)
(0.125347 0.509733 0)
(0.0120235 -0.0196635 0)
(-0.0104063 -0.0278137 0)
(0.0276246 -0.0305229 0)
(-0.0201381 -0.0197574 0)
(-0.00340675 -0.0079611 0)
(-0.0901985 -0.000131291 0)
(-0.100645 0.00148909 0)
(-0.204396 0.00650297 0)
(-0.246718 0.0108592 0)
(-0.394645 0.0196474 0)
(-0.478549 0.0269691 0)
(-0.698552 0.0465282 0)
(-0.90341 0.0589091 0)
(-1.2568 0.0780955 0)
(-1.64753 0.0743505 0)
(-2.13998 0.072733 0)
(-2.49264 -0.0312857 0)
(-2.07941 -0.201855 0)
(-0.665926 -0.240214 0)
(0.00722591 0.000293556 0)
(-0.0179022 0.00215995 0)
(0.013461 0.0144116 0)
(-0.0216354 0.0150878 0)
(0.0045519 0.0165278 0)
(-0.0885234 0.0246699 0)
(-0.0975623 0.0251361 0)
(-0.202456 0.0399495 0)
(-0.244882 0.0469579 0)
(-0.389839 0.0647907 0)
(-0.471914 0.0776826 0)
(-0.688099 0.121811 0)
(-0.890063 0.152701 0)
(-1.24566 0.228065 0)
(-1.6958 0.27342 0)
(-2.24046 0.27143 0)
(-2.55609 -0.0105622 0)
(-1.97337 -0.595479 0)
(-0.996904 -0.950265 0)
(-0.0105185 -0.035345 0)
(-0.0275163 -0.0482789 0)
(0.0222989 -0.048531 0)
(-0.0152816 -0.0322445 0)
(0.00380651 -0.000213756 0)
(-0.0831905 0.0272768 0)
(-0.0945835 0.027992 0)
(-0.1969 0.0535755 0)
(-0.233442 0.0672651 0)
(-0.377678 0.10185 0)
(-0.454045 0.128855 0)
(-0.66808 0.211022 0)
(-0.85548 0.269126 0)
(-1.22444 0.407408 0)
(-1.66193 0.467891 0)
(-2.09222 0.425531 0)
(-2.27423 -0.161316 0)
(-1.3308 -0.886112 0)
(-0.95203 -1.5301 0)
(-0.0166626 7.68137e-05 0)
(-0.0219024 -0.0323025 0)
(0.0314787 -0.0121287 0)
(-0.00490892 0.00352803 0)
(0.0217022 0.023314 0)
(-0.0752474 0.0490067 0)
(-0.0842656 0.0514493 0)
(-0.189796 0.0833754 0)
(-0.225113 0.100809 0)
(-0.359335 0.14474 0)
(-0.424253 0.176633 0)
(-0.619759 0.281049 0)
(-0.783532 0.363444 0)
(-1.13528 0.562883 0)
(-1.50435 0.612723 0)
(-1.86232 0.524058 0)
(-1.93239 -0.358761 0)
(-0.946548 -1.17293 0)
(-0.606557 -1.93442 0)
(-0.0244905 -0.04269 0)
(-0.0356848 -0.0846778 0)
(0.0341428 -0.0739655 0)
(0.000959095 -0.0419576 0)
(0.026294 0.00982797 0)
(-0.0664769 0.057387 0)
(-0.0785739 0.0546539 0)
(-0.181076 0.0980201 0)
(-0.20782 0.115778 0)
(-0.34008 0.172256 0)
(-0.391872 0.214348 0)
(-0.574552 0.350755 0)
(-0.709763 0.460775 0)
(-1.01084 0.702346 0)
(-1.28041 0.744693 0)
(-1.58477 0.598824 0)
(-1.56589 -0.570607 0)
(-0.667097 -1.46565 0)
(-0.401286 -2.21903 0)
(-0.0360705 0.0156887 0)
(-0.0377092 -0.0808373 0)
(0.0512227 -0.0520287 0)
(0.0221775 -0.0148133 0)
(0.056239 0.0279418 0)
(-0.051028 0.0753388 0)
(-0.0666101 0.0779037 0)
(-0.169954 0.122978 0)
(-0.19582 0.14538 0)
(-0.319366 0.209581 0)
(-0.354629 0.251452 0)
(-0.512015 0.40535 0)
(-0.61104 0.522197 0)
(-0.852569 0.798322 0)
(-1.00419 0.824276 0)
(-1.24063 0.637028 0)
(-1.12843 -0.773772 0)
(-0.386532 -1.68719 0)
(-0.203787 -2.40519 0)
(-0.0686029 -0.0448791 0)
(-0.0692105 -0.133395 0)
(0.0561918 -0.113783 0)
(0.0336838 -0.0538509 0)
(0.0632866 0.0230245 0)
(-0.0411608 0.0961498 0)
(-0.0545795 0.0830539 0)
(-0.161826 0.137558 0)
(-0.175956 0.155248 0)
(-0.291246 0.225653 0)
(-0.300978 0.270622 0)
(-0.449724 0.447416 0)
(-0.501459 0.577207 0)
(-0.687004 0.860234 0)
(-0.704285 0.874685 0)
(-0.861077 0.647302 0)
(-0.602115 -0.956733 0)
(-0.153247 -1.86981 0)
(-0.0137203 -2.49962 0)
(-0.0408929 0.0805534 0)
(-0.0663347 -0.164601 0)
(0.0781627 -0.1274 0)
(0.0668721 -0.0428918 0)
(0.101866 0.0317279 0)
(-0.0194009 0.106266 0)
(-0.0433947 0.106528 0)
(-0.151241 0.15979 0)
(-0.169675 0.177323 0)
(-0.273954 0.250018 0)
(-0.260727 0.293078 0)
(-0.386458 0.480978 0)
(-0.386622 0.593933 0)
(-0.514897 0.879927 0)
(-0.409352 0.861706 0)
(-0.482607 0.591845 0)
(-0.0888817 -1.10402 0)
(0.0164457 -1.9513 0)
(0.139006 -2.48799 0)
(0.0197732 -0.162922 0)
(0.059088 -0.165728 0)
(0.0980847 -0.159705 0)
(0.138049 -0.157841 0)
(0.176006 -0.15648 0)
(0.213236 -0.152146 0)
(0.249196 -0.142679 0)
(0.286021 -0.139925 0)
(0.317472 -0.124676 0)
(0.350603 -0.117622 0)
(0.381497 -0.104256 0)
(0.40072 -0.0839332 0)
(0.431982 -0.0697848 0)
(0.440912 -0.0451201 0)
(0.460259 -0.0204477 0)
(0.460414 0.00989594 0)
(0.474295 0.0426227 0)
(0.464616 0.0811234 0)
(0.482938 0.121049 0)
(0.467643 0.182706 0)
(0.512763 0.246664 0)
(0.502719 0.384476 0)
(0.643472 0.556183 0)
(0.0209182 -0.202463 0)
(0.0600857 -0.204656 0)
(0.0997922 -0.199184 0)
(0.141009 -0.196816 0)
(0.180216 -0.193819 0)
(0.218374 -0.188337 0)
(0.255908 -0.178646 0)
(0.29411 -0.173177 0)
(0.327412 -0.156745 0)
(0.364416 -0.14797 0)
(0.393204 -0.127433 0)
(0.421665 -0.109758 0)
(0.452793 -0.0882533 0)
(0.465831 -0.0584239 0)
(0.491593 -0.0307057 0)
(0.493309 -0.0011197 0)
(0.508454 0.0329194 0)
(0.495031 0.0631905 0)
(0.506567 0.103975 0)
(0.490754 0.14579 0)
(0.527054 0.197334 0)
(0.528025 0.253431 0)
(0.662895 0.356111 0)
(0.0220389 -0.244505 0)
(0.0612619 -0.245171 0)
(0.1019 -0.241219 0)
(0.144487 -0.238858 0)
(0.185091 -0.234434 0)
(0.224547 -0.228435 0)
(0.264014 -0.219029 0)
(0.303629 -0.212025 0)
(0.339338 -0.195598 0)
(0.37778 -0.184019 0)
(0.408818 -0.162081 0)
(0.444418 -0.144064 0)
(0.470321 -0.114545 0)
(0.491774 -0.0842638 0)
(0.51953 -0.0485301 0)
(0.521601 -0.00705809 0)
(0.542985 0.0401075 0)
(0.534374 0.0829607 0)
(0.558322 0.123502 0)
(0.555782 0.161619 0)
(0.595399 0.205063 0)
(0.604437 0.246947 0)
(0.692297 0.317186 0)
(0.0236131 -0.286148 0)
(0.0627501 -0.284862 0)
(0.104113 -0.282792 0)
(0.148153 -0.280361 0)
(0.19003 -0.274202 0)
(0.23026 -0.267549 0)
(0.271381 -0.258026 0)
(0.310884 -0.248707 0)
(0.347179 -0.231146 0)
(0.385934 -0.217612 0)
(0.417998 -0.194259 0)
(0.454201 -0.17144 0)
(0.478557 -0.135715 0)
(0.518431 -0.107762 0)
(0.53392 -0.0607029 0)
(0.557803 -0.0244808 0)
(0.578396 0.0200735 0)
(0.567458 0.0487236 0)
(0.580839 0.0828719 0)
(0.58775 0.110669 0)
(0.607921 0.148891 0)
(0.616945 0.160121 0)
(0.672204 0.205972 0)
(0.0124524 -0.330893 0)
(0.0350294 -0.325675 0)
(0.0597596 -0.326673 0)
(0.0819714 -0.324878 0)
(0.108775 -0.316688 0)
(0.129427 -0.310013 0)
(0.155779 -0.299997 0)
(0.173611 -0.288213 0)
(0.199372 -0.271176 0)
(0.214896 -0.255461 0)
(0.250209 -0.230952 0)
(0.271351 -0.205392 0)
(0.32832 -0.179371 0)
(0.345229 -0.140235 0)
(0.421122 -0.0880999 0)
(0.387924 -0.0515265 0)
(0.47904 0.0303067 0)
(0.509146 0.0799694 0)
(0.546457 0.102535 0)
(0.565388 0.134047 0)
(0.601914 0.174822 0)
(0.639224 0.182598 0)
(0.685345 0.199084 0)
(0.00379341 -0.335259 0)
(0.0180083 -0.333699 0)
(0.0301294 -0.331372 0)
(0.0390632 -0.330735 0)
(0.0515966 -0.323101 0)
(0.0609394 -0.315448 0)
(0.070962 -0.303425 0)
(0.0791197 -0.292468 0)
(0.0899558 -0.273247 0)
(0.104003 -0.267954 0)
(0.1276 -0.25135 0)
(0.166009 -0.248389 0)
(0.210368 -0.210609 0)
(0.262052 -0.199526 0)
(0.321815 -0.105257 0)
(0.388911 -0.0839076 0)
(0.461933 -0.09955 0)
(0.539791 -0.0174328 0)
(0.57902 0.0289611 0)
(0.552632 0.056674 0)
(0.54032 0.0760111 0)
(0.580296 0.0781807 0)
(0.625772 0.130991 0)
(0.0055057 -0.352124 0)
(0.0161295 -0.35163 0)
(0.0285006 -0.347141 0)
(0.0361284 -0.346065 0)
(0.0480077 -0.338294 0)
(0.0557838 -0.329495 0)
(0.0696819 -0.318197 0)
(0.0785153 -0.308061 0)
(0.100053 -0.296619 0)
(0.115164 -0.294766 0)
(0.146757 -0.294105 0)
(0.1763 -0.290787 0)
(0.217204 -0.276816 0)
(0.260184 -0.253845 0)
(0.307567 -0.216724 0)
(0.409253 -0.19149 0)
(0.458588 -0.12424 0)
(0.543868 -0.0421721 0)
(0.62598 0.081137 0)
(0.702851 0.169772 0)
(0.675108 0.14457 0)
(0.602475 0.0931194 0)
(0.591736 0.0954848 0)
(0.00758061 -0.358315 0)
(0.0163767 -0.358022 0)
(0.0300937 -0.352821 0)
(0.0398405 -0.351355 0)
(0.0516886 -0.344065 0)
(0.0634766 -0.337873 0)
(0.0779769 -0.327267 0)
(0.092169 -0.323098 0)
(0.11205 -0.310735 0)
(0.129005 -0.314401 0)
(0.148397 -0.313293 0)
(0.168395 -0.318106 0)
(0.185644 -0.295538 0)
(0.207118 -0.289303 0)
(0.237071 -0.255575 0)
(0.27269 -0.235674 0)
(0.318803 -0.233641 0)
(0.387224 -0.182254 0)
(0.487194 -0.124584 0)
(0.638519 0.00897213 0)
(0.794171 0.17494 0)
(0.832009 0.165463 0)
(0.797046 0.12543 0)
(0.00855932 -0.375856 0)
(0.0161862 -0.374012 0)
(0.0321375 -0.370386 0)
(0.0428164 -0.367663 0)
(0.0584512 -0.361888 0)
(0.0711824 -0.356082 0)
(0.0900841 -0.347109 0)
(0.104306 -0.342847 0)
(0.125737 -0.334072 0)
(0.140603 -0.332217 0)
(0.157484 -0.334423 0)
(0.169608 -0.329384 0)
(0.182727 -0.316668 0)
(0.203239 -0.306281 0)
(0.217467 -0.284279 0)
(0.255594 -0.273536 0)
(0.275147 -0.242454 0)
(0.309924 -0.213069 0)
(0.35799 -0.175937 0)
(0.436909 -0.139451 0)
(0.588817 -0.0482897 0)
(0.788597 0.0880441 0)
(0.888397 0.191726 0)
(0.0071003 -0.384215 0)
(0.0196794 -0.382682 0)
(0.034324 -0.380622 0)
(0.0485789 -0.378611 0)
(0.0638011 -0.37352 0)
(0.0789536 -0.37021 0)
(0.0967616 -0.361353 0)
(0.112854 -0.359125 0)
(0.131698 -0.347794 0)
(0.147165 -0.346138 0)
(0.16046 -0.342841 0)
(0.16958 -0.343076 0)
(0.182126 -0.329736 0)
(0.195571 -0.323916 0)
(0.213933 -0.308295 0)
(0.234163 -0.293668 0)
(0.254612 -0.287562 0)
(0.281731 -0.264563 0)
(0.313735 -0.250924 0)
(0.355645 -0.222172 0)
(0.403159 -0.180498 0)
(0.518672 -0.133229 0)
(0.669873 0.00326912 0)
(0.00790852 -0.402666 0)
(0.0223033 -0.401316 0)
(0.0388297 -0.399353 0)
(0.0535738 -0.397332 0)
(0.0706795 -0.392463 0)
(0.0857687 -0.389439 0)
(0.104843 -0.381432 0)
(0.121173 -0.378416 0)
(0.140714 -0.369096 0)
(0.159448 -0.361801 0)
(0.175558 -0.357738 0)
(0.190402 -0.351902 0)
(0.204174 -0.343823 0)
(0.222997 -0.338689 0)
(0.237627 -0.324584 0)
(0.261151 -0.314561 0)
(0.27858 -0.292323 0)
(0.296202 -0.273332 0)
(0.316706 -0.252419 0)
(0.332941 -0.230615 0)
(0.362153 -0.21289 0)
(0.39276 -0.182546 0)
(0.449483 -0.121127 0)
(0.00799002 -0.415386 0)
(0.0232418 -0.414532 0)
(0.0396864 -0.412853 0)
(0.0554669 -0.411279 0)
(0.0723647 -0.406617 0)
(0.0888432 -0.405011 0)
(0.107176 -0.397568 0)
(0.125314 -0.395403 0)
(0.144332 -0.386754 0)
(0.165365 -0.381152 0)
(0.185873 -0.374313 0)
(0.204921 -0.371728 0)
(0.22511 -0.362728 0)
(0.244026 -0.357567 0)
(0.26378 -0.34667 0)
(0.284163 -0.33496 0)
(0.30451 -0.322558 0)
(0.32877 -0.302619 0)
(0.351297 -0.287587 0)
(0.378139 -0.267178 0)
(0.396607 -0.241028 0)
(0.419036 -0.219717 0)
(0.441124 -0.171798 0)
(0.00875644 -0.43413 0)
(0.0247215 -0.433283 0)
(0.0424273 -0.431848 0)
(0.0583914 -0.430358 0)
(0.0768741 -0.426216 0)
(0.0934272 -0.424729 0)
(0.112973 -0.418455 0)
(0.130821 -0.416204 0)
(0.151072 -0.40992 0)
(0.171913 -0.404148 0)
(0.193993 -0.398219 0)
(0.215686 -0.392023 0)
(0.236573 -0.384038 0)
(0.259052 -0.378106 0)
(0.279821 -0.366137 0)
(0.30385 -0.355953 0)
(0.326735 -0.33863 0)
(0.351105 -0.321175 0)
(0.379577 -0.303416 0)
(0.404711 -0.277483 0)
(0.43396 -0.254995 0)
(0.467279 -0.228989 0)
(0.495223 -0.193283 0)
(0.00886812 -0.44966 0)
(0.0260235 -0.448988 0)
(0.0440067 -0.447306 0)
(0.061318 -0.44643 0)
(0.080008 -0.442397 0)
(0.0979085 -0.441688 0)
(0.117448 -0.435644 0)
(0.136407 -0.433921 0)
(0.156025 -0.428448 0)
(0.176267 -0.424355 0)
(0.197098 -0.418609 0)
(0.217942 -0.414485 0)
(0.24005 -0.406522 0)
(0.261486 -0.401012 0)
(0.283689 -0.391747 0)
(0.306727 -0.382102 0)
(0.330616 -0.369947 0)
(0.357637 -0.355548 0)
(0.386628 -0.34139 0)
(0.417318 -0.321473 0)
(0.452703 -0.303943 0)
(0.491328 -0.280894 0)
(0.529222 -0.250302 0)
(0.00965772 -0.469414 0)
(0.0265128 -0.468841 0)
(0.0461268 -0.467569 0)
(0.0636147 -0.46683 0)
(0.0837097 -0.463321 0)
(0.101858 -0.462726 0)
(0.122435 -0.457607 0)
(0.141926 -0.455448 0)
(0.162748 -0.450591 0)
(0.183645 -0.446025 0)
(0.205536 -0.440845 0)
(0.227585 -0.435881 0)
(0.250032 -0.428678 0)
(0.273782 -0.422671 0)
(0.297282 -0.412655 0)
(0.322897 -0.403842 0)
(0.349476 -0.390968 0)
(0.378287 -0.378361 0)
(0.410072 -0.364494 0)
(0.442124 -0.344981 0)
(0.479997 -0.330338 0)
(0.516997 -0.307085 0)
(0.557789 -0.284396 0)
(0.00939511 -0.486481 0)
(0.027798 -0.486113 0)
(0.0469603 -0.485046 0)
(0.0654039 -0.484613 0)
(0.0850885 -0.481251 0)
(0.103803 -0.480918 0)
(0.123702 -0.476274 0)
(0.143244 -0.474621 0)
(0.163417 -0.470659 0)
(0.183961 -0.467419 0)
(0.205288 -0.462974 0)
(0.226782 -0.45918 0)
(0.24931 -0.453082 0)
(0.272469 -0.448443 0)
(0.296891 -0.441149 0)
(0.323227 -0.434509 0)
(0.351081 -0.425597 0)
(0.382224 -0.416371 0)
(0.415388 -0.405579 0)
(0.451894 -0.391678 0)
(0.493615 -0.379294 0)
(0.535837 -0.359082 0)
(0.583735 -0.33882 0)
(0.0100204 -0.507134 0)
(0.0291109 -0.506956 0)
(0.0493955 -0.505732 0)
(0.068323 -0.50554 0)
(0.0890212 -0.502351 0)
(0.108385 -0.501983 0)
(0.129366 -0.497786 0)
(0.149846 -0.495894 0)
(0.171259 -0.492166 0)
(0.192686 -0.48874 0)
(0.215051 -0.484635 0)
(0.23775 -0.480833 0)
(0.261482 -0.475441 0)
(0.286299 -0.471244 0)
(0.312152 -0.464597 0)
(0.339859 -0.459089 0)
(0.369042 -0.451208 0)
(0.400777 -0.443847 0)
(0.434723 -0.435359 0)
(0.471632 -0.424518 0)
(0.512804 -0.415443 0)
(0.555747 -0.398569 0)
(0.605669 -0.384792 0)
(0.00992074 -0.526143 0)
(0.0289777 -0.52602 0)
(0.0489351 -0.524774 0)
(0.0679857 -0.52473 0)
(0.0881857 -0.521801 0)
(0.107595 -0.521682 0)
(0.127967 -0.518185 0)
(0.148234 -0.51685 0)
(0.169165 -0.513897 0)
(0.190344 -0.511471 0)
(0.212497 -0.508392 0)
(0.235067 -0.505832 0)
(0.258882 -0.501958 0)
(0.283643 -0.499337 0)
(0.309812 -0.495026 0)
(0.338006 -0.491678 0)
(0.367943 -0.486872 0)
(0.401121 -0.482433 0)
(0.436468 -0.476892 0)
(0.476156 -0.470305 0)
(0.519811 -0.463979 0)
(0.567261 -0.452661 0)
(0.62293 -0.444408 0)
(0.0103858 -0.546652 0)
(0.0304512 -0.546604 0)
(0.0513603 -0.545385 0)
(0.0713691 -0.545451 0)
(0.0924693 -0.542668 0)
(0.112796 -0.542473 0)
(0.133971 -0.53922 0)
(0.154975 -0.53787 0)
(0.176589 -0.535155 0)
(0.198367 -0.532928 0)
(0.220964 -0.530314 0)
(0.244026 -0.528141 0)
(0.26806 -0.525042 0)
(0.293172 -0.523151 0)
(0.319366 -0.520038 0)
(0.347641 -0.518247 0)
(0.377383 -0.515408 0)
(0.410363 -0.513469 0)
(0.445404 -0.511431 0)
(0.485233 -0.509069 0)
(0.528249 -0.507571 0)
(0.576976 -0.502994 0)
(0.633643 -0.502483 0)
(0.0103185 -0.567434 0)
(0.0308018 -0.567444 0)
(0.0514731 -0.566131 0)
(0.0716791 -0.566256 0)
(0.0922726 -0.563642 0)
(0.112573 -0.563547 0)
(0.133092 -0.560744 0)
(0.153901 -0.559777 0)
(0.174824 -0.557641 0)
(0.196367 -0.556121 0)
(0.218276 -0.554391 0)
(0.241118 -0.553194 0)
(0.264547 -0.551452 0)
(0.289709 -0.550936 0)
(0.315546 -0.549879 0)
(0.344379 -0.550074 0)
(0.373949 -0.550048 0)
(0.408004 -0.550968 0)
(0.443134 -0.5523 0)
(0.484107 -0.553861 0)
(0.527435 -0.556335 0)
(0.577675 -0.558962 0)
(0.635476 -0.564522 0)
(0.0106882 -0.588439 0)
(0.0318989 -0.588428 0)
(0.0532478 -0.586948 0)
(0.0742238 -0.586939 0)
(0.0953609 -0.584292 0)
(0.116446 -0.584014 0)
(0.137313 -0.581334 0)
(0.15877 -0.580364 0)
(0.179702 -0.578457 0)
(0.201837 -0.577185 0)
(0.22325 -0.575943 0)
(0.24655 -0.575254 0)
(0.268801 -0.574547 0)
(0.294373 -0.575024 0)
(0.318202 -0.575637 0)
(0.347247 -0.577563 0)
(0.374026 -0.579951 0)
(0.408092 -0.583645 0)
(0.44017 -0.588422 0)
(0.481068 -0.594496 0)
(0.522207 -0.602025 0)
(0.57259 -0.612328 0)
(0.627963 -0.624547 0)
(0.0105889 -0.610428 0)
(0.0322178 -0.610408 0)
(0.0533617 -0.608854 0)
(0.0747648 -0.608748 0)
(0.095621 -0.606249 0)
(0.117162 -0.605844 0)
(0.137559 -0.603439 0)
(0.159431 -0.602486 0)
(0.179606 -0.601073 0)
(0.202236 -0.599981 0)
(0.222498 -0.599474 0)
(0.246383 -0.59907 0)
(0.266904 -0.599667 0)
(0.293061 -0.600705 0)
(0.314502 -0.603192 0)
(0.343993 -0.606349 0)
(0.36791 -0.61139 0)
(0.402337 -0.617695 0)
(0.431455 -0.625825 0)
(0.472549 -0.63668 0)
(0.511 -0.648438 0)
(0.561034 -0.665711 0)
(0.61312 -0.683895 0)
(0.0107597 -0.63192 0)
(0.0328481 -0.631876 0)
(0.0543371 -0.630182 0)
(0.0762407 -0.629879 0)
(0.0973696 -0.627403 0)
(0.119472 -0.626644 0)
(0.139951 -0.624344 0)
(0.162323 -0.623121 0)
(0.182191 -0.622028 0)
(0.205069 -0.620807 0)
(0.224344 -0.620872 0)
(0.248203 -0.620411 0)
(0.266967 -0.622012 0)
(0.292489 -0.623405 0)
(0.311553 -0.627347 0)
(0.339388 -0.631812 0)
(0.360721 -0.639055 0)
(0.392002 -0.648136 0)
(0.418758 -0.65937 0)
(0.455508 -0.675158 0)
(0.491859 -0.691232 0)
(0.537682 -0.7158 0)
(0.587647 -0.740396 0)
(0.0106631 -0.654419 0)
(0.0328532 -0.654367 0)
(0.0541636 -0.652625 0)
(0.0763035 -0.652145 0)
(0.0973154 -0.649854 0)
(0.119833 -0.648771 0)
(0.140261 -0.646656 0)
(0.163166 -0.645058 0)
(0.182936 -0.64418 0)
(0.206279 -0.642467 0)
(0.225099 -0.642965 0)
(0.249176 -0.642048 0)
(0.26696 -0.644306 0)
(0.292077 -0.645701 0)
(0.309422 -0.650431 0)
(0.335517 -0.656018 0)
(0.354281 -0.664325 0)
(0.382314 -0.676365 0)
(0.405619 -0.68964 0)
(0.438257 -0.710605 0)
(0.469874 -0.730917 0)
(0.511659 -0.762592 0)
(0.555246 -0.79393 0)
(0.0105551 -0.676086 0)
(0.032256 -0.67603 0)
(0.0532761 -0.674294 0)
(0.0752593 -0.673688 0)
(0.0960627 -0.671616 0)
(0.118625 -0.670258 0)
(0.139065 -0.66838 0)
(0.162078 -0.666483 0)
(0.181762 -0.665853 0)
(0.205109 -0.663683 0)
(0.223724 -0.664472 0)
(0.247542 -0.663021 0)
(0.264853 -0.665585 0)
(0.289112 -0.666673 0)
(0.305289 -0.671413 0)
(0.329433 -0.677562 0)
(0.345541 -0.68644 0)
(0.371062 -0.700489 0)
(0.388418 -0.715889 0)
(0.418531 -0.740592 0)
(0.439257 -0.765211 0)
(0.478854 -0.802563 0)
(0.506926 -0.840466 0)
(0.010292 -0.697592 0)
(0.0309344 -0.697452 0)
(0.0512903 -0.695985 0)
(0.0726406 -0.695282 0)
(0.0928709 -0.693567 0)
(0.115062 -0.69211 0)
(0.135348 -0.690437 0)
(0.158326 -0.688081 0)
(0.178031 -0.687516 0)
(0.201279 -0.68476 0)
(0.219996 -0.685664 0)
(0.243447 -0.68354 0)
(0.260707 -0.686084 0)
(0.284108 -0.686562 0)
(0.299595 -0.690872 0)
(0.322452 -0.69678 0)
(0.335864 -0.705972 0)
(0.359417 -0.719875 0)
(0.369773 -0.737014 0)
(0.396643 -0.762244 0)
(0.405238 -0.791084 0)
(0.441264 -0.831245 0)
(0.452395 -0.875734 0)
(0.00980467 -0.717915 0)
(0.0290402 -0.717644 0)
(0.0483394 -0.716617 0)
(0.0685029 -0.715899 0)
(0.0877379 -0.714682 0)
(0.108942 -0.713395 0)
(0.128541 -0.712316 0)
(0.151028 -0.709864 0)
(0.170707 -0.709481 0)
(0.193648 -0.706394 0)
(0.212627 -0.707298 0)
(0.235698 -0.704545 0)
(0.253323 -0.706845 0)
(0.276126 -0.706471 0)
(0.291362 -0.710261 0)
(0.313104 -0.714883 0)
(0.324227 -0.723768 0)
(0.345347 -0.735639 0)
(0.350249 -0.7533 0)
(0.372341 -0.777572 0)
(0.371558 -0.809826 0)
(0.400222 -0.851564 0)
(0.397173 -0.902597 0)
(0.00882231 -0.736742 0)
(0.0263072 -0.736312 0)
(0.0437378 -0.735747 0)
(0.0621182 -0.73499 0)
(0.0796484 -0.734292 0)
(0.0992254 -0.733211 0)
(0.117356 -0.732782 0)
(0.138445 -0.730545 0)
(0.157451 -0.730352 0)
(0.179836 -0.726991 0)
(0.199023 -0.727859 0)
(0.22187 -0.724586 0)
(0.239999 -0.726559 0)
(0.262517 -0.725023 0)
(0.277839 -0.727743 0)
(0.29875 -0.730175 0)
(0.308687 -0.737871 0)
(0.327239 -0.74662 0)
(0.329286 -0.763327 0)
(0.345396 -0.784567 0)
(0.338039 -0.817904 0)
(0.356281 -0.858213 0)
(0.342899 -0.914282 0)
(0.00774485 -0.753584 0)
(0.0237135 -0.753126 0)
(0.0391592 -0.752979 0)
(0.0557821 -0.752394 0)
(0.0715159 -0.752367 0)
(0.0892775 -0.751731 0)
(0.1057 -0.752146 0)
(0.124942 -0.750658 0)
(0.14259 -0.751503 0)
(0.163719 -0.748749 0)
(0.182548 -0.749956 0)
(0.20504 -0.7464 0)
(0.223477 -0.748048 0)
(0.245683 -0.745306 0)
(0.261304 -0.746924 0)
(0.282012 -0.746882 0)
(0.291708 -0.75248 0)
(0.307646 -0.757608 0)
(0.308108 -0.771377 0)
(0.318353 -0.787982 0)
(0.306399 -0.820258 0)
(0.313171 -0.858537 0)
(0.292384 -0.917555 0)
(0.00643642 -0.768443 0)
(0.0203364 -0.767992 0)
(0.0332653 -0.768051 0)
(0.0476317 -0.767605 0)
(0.0609583 -0.768006 0)
(0.0763328 -0.76765 0)
(0.090397 -0.768633 0)
(0.107212 -0.767692 0)
(0.122621 -0.769261 0)
(0.141397 -0.767226 0)
(0.158533 -0.769222 0)
(0.179508 -0.765828 0)
(0.197565 -0.767134 0)
(0.219564 -0.763231 0)
(0.23596 -0.763829 0)
(0.257054 -0.761054 0)
(0.267897 -0.762996 0)
(0.282707 -0.763607 0)
(0.283503 -0.773181 0)
(0.289375 -0.783599 0)
(0.274287 -0.811403 0)
(0.270141 -0.845203 0)
(0.241274 -0.90323 0)
(0.00532837 -0.780819 0)
(0.0172391 -0.780442 0)
(0.0279933 -0.780741 0)
(0.0402855 -0.780596 0)
(0.051457 -0.781552 0)
(0.0646536 -0.781725 0)
(0.0765764 -0.783534 0)
(0.0911798 -0.783514 0)
(0.104526 -0.786229 0)
(0.121128 -0.785406 0)
(0.136325 -0.788637 0)
(0.155093 -0.786327 0)
(0.171718 -0.788648 0)
(0.192208 -0.784733 0)
(0.207979 -0.784867 0)
(0.227851 -0.779994 0)
(0.238907 -0.778409 0)
(0.253388 -0.774489 0)
(0.254425 -0.778104 0)
(0.257148 -0.780173 0)
(0.240148 -0.800727 0)
(0.226082 -0.827147 0)
(0.187072 -0.883669 0)
(0.00421064 -0.791184 0)
(0.0139345 -0.79085 0)
(0.0224275 -0.791258 0)
(0.0324082 -0.791261 0)
(0.0411942 -0.792515 0)
(0.0519306 -0.792965 0)
(0.0613437 -0.795266 0)
(0.0733773 -0.795845 0)
(0.0840437 -0.799262 0)
(0.0978009 -0.799244 0)
(0.110211 -0.803155 0)
(0.12595 -0.801457 0)
(0.140149 -0.804103 0)
(0.157776 -0.799779 0)
(0.172201 -0.799163 0)
(0.19044 -0.792318 0)
(0.201841 -0.78803 0)
(0.21736 -0.77944 0)
(0.219498 -0.776187 0)
(0.222569 -0.769549 0)
(0.205837 -0.77913 0)
(0.186502 -0.792388 0)
(0.1378 -0.840693 0)
(0.00325691 -0.799361 0)
(0.0109568 -0.799079 0)
(0.0175224 -0.799612 0)
(0.025416 -0.799807 0)
(0.0322061 -0.801482 0)
(0.0407683 -0.802366 0)
(0.0480766 -0.805406 0)
(0.0578018 -0.806779 0)
(0.0660964 -0.811103 0)
(0.0773559 -0.812244 0)
(0.0871877 -0.817271 0)
(0.100247 -0.817083 0)
(0.111874 -0.820977 0)
(0.126728 -0.817757 0)
(0.139298 -0.818011 0)
(0.155227 -0.810764 0)
(0.165217 -0.805722 0)
(0.179143 -0.793351 0)
(0.180388 -0.783597 0)
(0.184017 -0.767725 0)
(0.167313 -0.764689 0)
(0.147739 -0.760351 0)
(0.0961883 -0.795115 0)
(0.00239228 -0.805465 0)
(0.00819147 -0.805199 0)
(0.0129654 -0.805771 0)
(0.0188616 -0.806033 0)
(0.0237061 -0.807897 0)
(0.0300624 -0.808928 0)
(0.0351891 -0.812291 0)
(0.0424015 -0.813965 0)
(0.0482023 -0.818754 0)
(0.0566622 -0.820444 0)
(0.0636156 -0.825906 0)
(0.0735471 -0.826257 0)
(0.0818603 -0.830346 0)
(0.0933742 -0.827337 0)
(0.102614 -0.827292 0)
(0.115531 -0.818383 0)
(0.123597 -0.811414 0)
(0.136072 -0.794729 0)
(0.137822 -0.780286 0)
(0.143468 -0.756365 0)
(0.12929 -0.741599 0)
(0.113149 -0.720827 0)
(0.0659326 -0.73429 0)
(0.0017506 -0.810334 0)
(0.00601531 -0.810057 0)
(0.00937226 -0.810658 0)
(0.0136165 -0.810971 0)
(0.0169342 -0.813062 0)
(0.0214821 -0.814316 0)
(0.0249187 -0.818138 0)
(0.0301205 -0.820326 0)
(0.0339882 -0.82578 0)
(0.0401638 -0.828287 0)
(0.0447591 -0.834607 0)
(0.0520856 -0.836083 0)
(0.0575551 -0.841286 0)
(0.0661578 -0.839412 0)
(0.0721595 -0.840668 0)
(0.0820383 -0.832806 0)
(0.0871909 -0.826746 0)
(0.0969005 -0.808748 0)
(0.0972461 -0.791456 0)
(0.101657 -0.760517 0)
(0.0884769 -0.734865 0)
(0.0747032 -0.698478 0)
(0.0328004 -0.68982 0)
(0.00113111 -0.813143 0)
(0.00403974 -0.812754 0)
(0.00619525 -0.813285 0)
(0.00910415 -0.813542 0)
(0.0111665 -0.815652 0)
(0.0142086 -0.816859 0)
(0.0162232 -0.820775 0)
(0.0196253 -0.822976 0)
(0.021742 -0.828583 0)
(0.0257129 -0.831145 0)
(0.0280396 -0.837535 0)
(0.0327265 -0.838964 0)
(0.0352669 -0.844029 0)
(0.0407937 -0.841833 0)
(0.0432703 -0.84266 0)
(0.0496801 -0.833284 0)
(0.0510643 -0.82562 0)
(0.0574382 -0.804594 0)
(0.0553237 -0.784119 0)
(0.0581047 -0.747102 0)
(0.0455724 -0.713045 0)
(0.0326363 -0.66394 0)
(-0.00523411 -0.632969 0)
(0.000767432 -0.815952 0)
(0.00285447 -0.815569 0)
(0.00425912 -0.816136 0)
(0.00624115 -0.816391 0)
(0.00744988 -0.818571 0)
(0.00944298 -0.819856 0)
(0.0104736 -0.823975 0)
(0.0125864 -0.826393 0)
(0.0134641 -0.832317 0)
(0.0158054 -0.835222 0)
(0.0165211 -0.842112 0)
(0.0191937 -0.844064 0)
(0.0196389 -0.849892 0)
(0.0227332 -0.848307 0)
(0.0225292 -0.850153 0)
(0.0259466 -0.841646 0)
(0.0244098 -0.835167 0)
(0.0275634 -0.814223 0)
(0.0228359 -0.792944 0)
(0.0226323 -0.7523 0)
(0.00903571 -0.710616 0)
(-0.00511794 -0.649762 0)
(-0.0414718 -0.598284 0)
(0.000411065 -0.816493 0)
(0.00174756 -0.815996 0)
(0.00246836 -0.816416 0)
(0.00365619 -0.81651 0)
(0.00409355 -0.818587 0)
(0.00518203 -0.819657 0)
(0.00534218 -0.823606 0)
(0.00634695 -0.825715 0)
(0.00612727 -0.831418 0)
(0.00705 -0.833909 0)
(0.0063357 -0.840446 0)
(0.00717326 -0.84173 0)
(0.00576707 -0.846973 0)
(0.00652554 -0.844296 0)
(0.00404192 -0.845123 0)
(0.00452499 -0.83463 0)
(0.000252453 -0.82628 0)
(-0.000172951 -0.80229 0)
(-0.00738869 -0.77783 0)
(-0.0105619 -0.73207 0)
(-0.0237481 -0.68303 0)
(-0.0373956 -0.611045 0)
(-0.0707237 -0.541478 0)
(0.000208933 -0.818632 0)
(0.00108035 -0.818147 0)
(0.00138395 -0.818534 0)
(0.00207275 -0.81853 0)
(0.00204051 -0.820574 0)
(0.00245994 -0.821644 0)
(0.00201963 -0.825638 0)
(0.00217911 -0.827778 0)
(0.00120862 -0.833559 0)
(0.00103271 -0.836122 0)
(-0.000618504 -0.842837 0)
(-0.00117449 -0.844311 0)
(-0.00373621 -0.849933 0)
(-0.00476212 -0.847556 0)
(-0.00863713 -0.84897 0)
(-0.0103235 -0.83904 0)
(-0.0158973 -0.83149 0)
(-0.0184436 -0.808088 0)
(-0.0263957 -0.783993 0)
(-0.0309584 -0.738053 0)
(-0.0431812 -0.686089 0)
(-0.0539111 -0.605961 0)
(-0.0813831 -0.523982 0)
(-4.80296e-05 -0.817368 0)
(0.000257068 -0.816767 0)
(3.39412e-05 -0.816997 0)
(0.000177162 -0.816769 0)
(-0.000323105 -0.818543 0)
(-0.00046097 -0.819224 0)
(-0.00144364 -0.82284 0)
(-0.00201098 -0.824444 0)
(-0.0036715 -0.829705 0)
(-0.00479268 -0.831543 0)
(-0.00731809 -0.837546 0)
(-0.00909648 -0.837957 0)