/*--------------------------------*- C++ -*----------------------------------*\
| =========                 |                                                 |
| \\      /  F ield         | OpenFOAM: The Open Source CFD Toolbox           |
|  \\    /   O peration     | Version:  2012                                  |
|   \\  /    A nd           | Website:  www.openfoam.com                      |
|    \\/     M anipulation  |                                                 |
\*---------------------------------------------------------------------------*/
FoamFile
{
    version     2.0;
    format      ascii;
    class       volScalarField;
    location    "0.41";
    object      volumeFraction1;
}
// * * * * * * * * * * * * * * * * * * * * * * * * * * * * * * * * * * * * * //

dimensions      [0 0 0 0 0 0 0];


internalField   nonuniform List<scalar> 
2268
(
1
1
1
1
1
1
1
1
1
1
1
1
1
1
1
1
1
1
1
1
1
1
0.999433
1
1
1
1
1
1
1
1
1
1
1
1
1
1
1
1
1
1
1
1
1
1
0.999433
1
1
1
1
1
1
1
1
1
1
1
1
1
1
1
1
1
1
1
1
1
1
0.999923
1
1
1
1
1
1
1
1
1
1
1
1
1
1
1
1
1
1
1
1
1
1
1
1
1
1
1
1
1
1
1
1
1
1
1
1
1
1
1
1
1
1
1
1
1
0.999758
1
1
1
1
1
1
1
1
1
1
1
1
1
1
1
1
1
1
1
1
1
1
0.998894
1
1
1
1
1
1
1
1
1
1
1
1
1
1
1
1
1
1
1
1
1
1
0.998877
1
1
1
1
1
1
1
1
1
1
1
1
1
1
1
1
1
1
1
1
1
1
0.998878
4.08717e-22
3.24723e-21
1.75336e-20
3.71064e-20
3.83814e-20
1.81585e-20
5.06472e-21
5.58822e-21
1.10575e-19
3.60976e-18
8.90473e-17
1.69889e-15
2.37348e-14
2.42284e-13
1.73643e-12
8.69115e-12
2.9974e-11
5.48195e-11
6.15239e-11
1.77471e-20
2.53608e-19
1.2522e-18
2.22502e-18
1.98566e-18
9.28267e-19
2.96602e-19
1.00315e-19
1.19433e-18
3.41288e-17
7.60828e-16
1.31384e-14
1.67758e-13
1.55184e-12
9.99596e-12
4.32559e-11
9.76708e-11
1.3114e-10
1.52916e-10
7.44226e-19
1.09554e-17
4.75473e-17
8.28302e-17
6.50095e-17
2.90092e-17
9.87492e-18
2.42885e-18
7.46061e-18
1.76462e-16
3.426e-15
5.10944e-14
5.63092e-13
4.39053e-12
2.32361e-11
7.67323e-11
1.25387e-10
1.65694e-10
2.83575e-10
1.83806e-17
3.19203e-16
1.21668e-15
1.9346e-15
1.314e-15
5.50388e-16
1.91662e-16
4.22473e-17
3.8456e-17
5.51051e-16
9.11153e-15
1.18826e-13
1.16674e-12
8.14651e-12
3.85999e-11
9.2817e-11
1.31629e-10
1.79433e-10
8.00656e-10
3.54378e-16
1.03022e-14
2.04799e-14
2.99105e-14
1.68803e-14
6.92328e-15
2.62462e-15
5.89507e-16
3.11632e-16
1.57501e-15
2.01267e-14
2.24055e-13
1.93341e-12
1.20044e-11
4.98787e-11
1.22251e-10
3.14956e-10
2.72919e-10
2.27677e-09
7.7703e-15
6.01653e-13
2.40215e-13
3.23716e-13
1.58319e-13
6.37062e-14
2.51334e-14
6.02062e-15
3.29971e-15
5.60878e-15
3.97148e-14
3.61964e-13
2.76378e-12
1.62907e-11
9.64757e-11
1.36563e-09
2.04371e-08
4.99839e-08
3.44319e-09
5.74674e-13
5.10869e-11
1.66654e-12
2.17682e-12
9.05719e-13
4.05628e-13
1.84053e-13
5.10314e-14
3.28762e-14
3.67051e-14
9.15046e-14
5.55587e-13
3.64208e-12
1.87451e-11
7.60996e-11
6.65837e-10
9.72872e-08
1.1496e-06
4.18543e-09
5.74656e-13
2.31778e-08
3.13012e-10
3.10504e-10
5.8221e-12
1.80669e-12
1.02205e-12
3.41302e-13
3.04364e-13
4.29882e-13
3.81628e-13
8.76011e-13
4.64922e-12
2.00063e-11
6.68325e-11
3.29992e-10
4.24641e-08
1.84545e-06
1.46872e-08
1
1
1
1
1
1
1
1
1
1
1
1
1
1
1
1
1
1
1
1
1
1
0.998879
0.997778
0.99765
0.997672
0.997565
0.997433
0.997338
0.997342
0.997212
0.997443
0.997562
0.997937
0.998403
0.998938
0.999455
0.999822
0.999989
1
1
1
1
1
1
0.999248
0.7461
0.741332
0.741344
0.736787
0.731627
0.727691
0.726988
0.721708
0.729542
0.733817
0.748951
0.771168
0.80449
0.84623
0.898148
0.952688
0.998787
1
1
1
1
1
0.999966
0.0734751
0.0712194
0.0704899
0.067616
0.0648253
0.0624591
0.0615798
0.0585765
0.0622616
0.0643697
0.0725176
0.0856188
0.107167
0.138316
0.189781
0.266127
0.403819
0.617788
0.877144
1
1
1
1
1.53393e-35
1.54346e-35
-1.08848e-35
7.50634e-33
1.61623e-32
1.62077e-31
-7.97454e-31
-4.49074e-30
-3.73943e-32
-5.62002e-31
-3.61134e-27
2.74949e-26
9.96851e-26
2.80149e-26
2.20516e-28
1.06166e-27
0.00273523
0.0282796
0.111216
0.274734
0.546922
0.886073
1
1.5183e-18
9.33099e-17
3.19035e-15
6.75556e-14
9.63386e-13
1.04428e-11
2.18103e-11
1.64427e-11
3.21679e-13
1.86187e-12
2.24217e-08
2.28976e-07
6.97128e-07
4.92328e-07
1.73117e-07
5.76303e-09
1.24347e-09
1.37724e-05
0.000634989
0.00477514
0.026388
0.137734
0.368978
4.07907e-18
2.44962e-16
8.07674e-15
1.57986e-13
2.18977e-12
2.3431e-11
4.02344e-11
4.68343e-11
1.00617e-11
2.26175e-14
5.15015e-07
2.04458e-06
2.47184e-06
2.32058e-06
3.6284e-07
4.78581e-09
1.2435e-09
1.24347e-09
5.28269e-08
1.81407e-06
7.52273e-05
0.00157711
0.0120925
5.10577e-18
3.01225e-16
9.7238e-15
1.82925e-13
2.47559e-12
2.63458e-11
4.05936e-11
7.68365e-11
5.79927e-11
2.25583e-14
1.40019e-06
2.47184e-06
2.47171e-06
1.09121e-06
9.17741e-08
2.52611e-08
7.24416e-09
1.2435e-09
2.2731e-07
5.95508e-07
1.41572e-06
2.9776e-06
1.69714e-05
5.19186e-18
3.0353e-16
9.6648e-15
1.76898e-13
2.24042e-12
2.38712e-11
2.51318e-11
1.52707e-10
4.15685e-10
1.67245e-12
4.73555e-07
9.74378e-07
2.6547e-07
8.27399e-11
1.97027e-08
5.83413e-08
5.42199e-08
8.96172e-09
1.18795e-09
7.29526e-06
1.03001e-05
7.38743e-06
7.38733e-06
4.10039e-18
2.28941e-16
6.85603e-15
1.15364e-13
1.21052e-12
1.28216e-11
6.81854e-12
3.08154e-10
1.79063e-09
3.42096e-08
1.32043e-11
1.30688e-11
1.30711e-11
8.27343e-11
2.96525e-09
5.45856e-08
5.65063e-08
2.50799e-08
1.18794e-09
8.61885e-11
1.43369e-06
1.4407e-05
2.95097e-05
1.99408e-18
1.07233e-16
3.09435e-15
5.03927e-14
4.93077e-13
5.11977e-12
6.90692e-13
4.57324e-10
2.41492e-09
1.32338e-09
1.92757e-10
8.36245e-11
2.82708e-10
1.42036e-09
1.2188e-09
4.86101e-09
2.191e-08
1.30379e-08
1.42293e-09
8.61861e-11
3.00648e-16
3.00648e-16
3.00648e-16
7.65602e-19
4.04841e-17
1.14774e-15
1.83411e-14
1.75973e-13
1.73795e-12
6.90692e-13
3.40143e-10
1.54054e-09
7.16586e-10
2.55847e-10
1.52543e-10
4.12688e-10
1.48149e-09
1.2188e-09
1.16587e-10
1.16587e-10
1.16587e-10
1.84941e-10
1.41256e-10
6.03354e-11
1.37431e-11
3.00648e-16
2.39656e-19
1.24222e-17
3.46844e-16
5.47811e-15
5.36178e-14
4.92011e-13
6.90693e-13
1.36644e-10
1.81696e-10
2.11949e-10
1.49161e-10
1.12216e-10
1.73137e-10
5.03261e-10
6.31129e-10
6.69098e-10
6.0409e-10
4.86566e-10
3.27868e-10
1.72092e-10
8.45487e-11
3.8991e-11
1.15022e-11
6.06995e-20
3.10184e-18
8.58896e-17
1.35468e-15
1.37215e-14
1.14152e-13
6.74035e-13
2.75055e-11
4.42873e-11
5.24225e-11
4.20508e-11
2.81146e-11
4.55037e-11
6.91618e-11
1.22896e-10
1.85985e-10
1.94159e-10
1.83896e-10
1.35384e-10
7.01527e-11
3.57715e-11
2.02988e-11
1.23822e-11
1.22849e-20
6.25286e-19
1.73454e-17
2.77639e-16
2.96573e-15
2.49481e-14
4.34063e-13
2.67019e-12
6.85512e-12
7.48892e-12
5.94712e-12
4.75769e-12
7.09224e-12
1.36937e-11
2.22137e-11
2.5142e-11
2.55037e-11
2.39467e-11
1.92841e-11
1.2202e-11
6.71435e-12
3.69356e-12
2.09283e-12
1.94835e-21
1.00295e-19
2.83261e-18
4.70972e-17
5.41669e-16
4.85945e-15
1.2066e-13
2.11327e-13
2.89578e-13
2.96358e-13
3.28814e-13
6.43581e-13
1.50735e-12
2.64787e-12
3.21445e-12
3.29701e-12
3.22638e-12
2.95996e-12
2.42698e-12
1.64821e-12
9.24294e-13
4.95726e-13
2.71733e-13
2.34639e-22
1.24053e-20
3.63879e-19
6.44224e-18
8.09881e-17
7.59258e-16
1.82767e-14
2.89385e-14
2.52448e-14
1.80131e-14
3.08469e-14
1.12172e-13
3.24267e-13
5.31238e-13
5.79938e-13
5.69851e-13
5.19105e-13
4.21753e-13
2.87856e-13
1.66511e-13
9.17486e-14
4.47547e-14
2.51059e-14
2.05389e-23
1.16184e-21
3.67161e-20
7.13049e-19
9.84456e-18
9.26785e-17
1.31926e-15
3.24475e-15
3.4857e-15
3.10616e-15
5.52053e-15
1.79091e-14
4.59728e-14
6.58751e-14
6.87523e-14
6.57282e-14
5.68425e-14
4.22899e-14
2.51123e-14
1.37285e-14
6.51009e-15
3.19758e-15
4.3216e-15
1.21981e-24
7.737e-23
2.73245e-21
5.90601e-20
8.79249e-19
8.2389e-18
5.92634e-17
1.09254e-16
1.24474e-16
1.83109e-16
5.63287e-16
1.81772e-15
3.88291e-15
4.68356e-15
4.70096e-15
4.42939e-15
3.82542e-15
2.92746e-15
1.83226e-15
9.38737e-16
3.8861e-16
4.37472e-16
1.95916e-15
4.42711e-26
3.39651e-24
1.39827e-22
3.37355e-21
5.28853e-20
4.7792e-19
2.62107e-18
3.96803e-18
5.86874e-18
1.38061e-17
4.89063e-17
1.36825e-16
1.87564e-16
1.86176e-16
1.79946e-16
1.74953e-16
1.65197e-16
1.42714e-16
1.03451e-16
4.62276e-17
3.20314e-17
1.30959e-16
1.37038e-15
8.59699e-28
8.06242e-26
3.85161e-24
1.00869e-22
1.61905e-21
1.38117e-20
5.32657e-20
1.18971e-19
3.0687e-19
9.96403e-19
3.30382e-18
6.17616e-18
6.04179e-18
4.8595e-18
4.72483e-18
5.33285e-18
5.45397e-18
4.94289e-18
3.50666e-18
1.61327e-18
4.41312e-18
6.79365e-17
1.23532e-15
1.22721e-29
7.49349e-28
2.59404e-26
5.92883e-25
1.09873e-23
1.34654e-22
8.10264e-22
3.71834e-21
1.60073e-20
5.61353e-20
1.494e-19
2.20012e-19
2.12594e-19
1.73347e-19
1.52865e-19
1.48633e-19
1.39463e-19
1.15482e-19
6.20839e-20
8.77393e-20
1.69185e-18
5.20053e-17
1.53034e-15
5.75125e-31
3.68379e-29
1.29673e-27
2.93149e-26
5.28042e-25
6.51527e-24
4.02437e-23
1.81325e-22
7.17797e-22
2.24945e-21
4.74577e-21
6.47151e-21
6.47994e-21
5.6255e-21
3.59059e-21
1.70686e-21
9.48855e-22
4.53905e-22
9.68826e-22
2.41304e-20
1.0647e-18
5.35648e-17
2.33332e-15
1.31847e-32
8.65095e-31
2.97998e-29
6.16241e-28
8.96096e-27
9.07453e-26
7.0315e-25
3.98725e-24
1.70281e-23
5.08947e-23
1.02288e-22
1.74424e-22
1.85502e-22
1.65169e-22
1.06528e-22
3.95236e-23
1.02313e-23
1.69448e-23
3.51636e-22
1.32914e-20
9.59719e-19
6.59927e-17
2.8802e-15
5.26544e-38
2.36684e-36
5.46412e-35
7.39711e-34
6.47612e-33
2.30962e-32
6.00359e-32
4.5017e-31
2.94775e-30
1.26746e-29
3.67615e-29
7.32536e-29
7.70354e-29
5.76051e-29
7.40377e-29
2.59174e-27
1.36707e-25
5.49646e-24
1.68702e-22
8.20409e-21
9.61896e-19
7.16608e-17
3.07027e-15
3.53752e-42
2.14086e-40
7.08538e-39
1.53851e-37
2.65558e-36
4.23332e-35
1.29663e-33
2.24132e-32
1.6915e-31
7.63016e-31
2.22917e-30
4.31546e-30
4.42839e-30
3.23824e-30
1.23442e-29
8.71687e-28
5.01555e-26
2.1725e-24
7.50333e-23
4.93334e-21
8.69156e-19
6.62534e-17
2.63829e-15
1.78133e-45
1.04983e-43
3.24808e-42
6.24584e-41
8.53713e-40
8.56479e-39
6.62137e-38
4.0023e-37
1.90767e-36
7.68077e-36
2.71508e-35
2.42e-34
6.40731e-34
2.33626e-32
2.70344e-30
2.54492e-28
1.59124e-26
7.52014e-25
3.0308e-23
2.60472e-21
4.71628e-19
3.47546e-17
1.26785e-15
4.81109e-51
3.68614e-49
1.50307e-47
3.92401e-46
7.4687e-45
1.08849e-43
1.26662e-42
1.2171e-41
9.55353e-41
6.4519e-40
3.94438e-39
1.36345e-37
2.48542e-35
4.52141e-33
6.03169e-31
6.3188e-29
4.2963e-27
2.25316e-25
1.08806e-23
1.1302e-21
1.82632e-19
1.32066e-17
4.87189e-16
1.47396e-54
1.22921e-52
5.43672e-51
1.56225e-49
3.31298e-48
5.55572e-47
7.66914e-46
9.1233e-45
9.12147e-44
9.41886e-43
5.45382e-41
1.46116e-38
3.45956e-36
7.26047e-34
1.10254e-31
1.29093e-29
9.59815e-28
5.73365e-26
3.37258e-24
3.81806e-22
5.37421e-20
3.84726e-18
1.43794e-16
5.70589e-61
5.95281e-59
3.63517e-57
1.60951e-55
5.62063e-54
1.59117e-52
3.67081e-51
1.15422e-49
2.43029e-47
1.02857e-44
3.85213e-42
1.3489e-39
3.76379e-37
9.17183e-35
1.60874e-32
2.1146e-30
1.73658e-28
1.21987e-26
8.76403e-25
9.55192e-23
1.09658e-20
7.62747e-19
2.88892e-17
3.14e-66
5.4469e-64
5.14758e-62
3.28656e-60
1.59214e-58
8.96533e-57
2.35757e-54
1.41512e-51
8.04059e-49
4.2936e-46
1.98225e-43
8.43752e-41
2.88943e-38
8.366e-36
1.75181e-33
2.63123e-31
2.448e-29
2.10566e-27
1.85147e-25
1.72971e-23
1.42224e-21
8.83299e-20
3.54304e-18
1.89337e-70
4.82612e-68
6.46971e-66
5.89772e-64
5.63842e-62
2.19922e-59
1.87955e-56
1.63814e-53
1.27509e-50
9.32162e-48
5.87529e-45
3.28435e-42
1.46682e-39
5.2146e-37
1.34947e-34
2.37764e-32
2.59066e-30
2.82277e-28
3.08227e-26
2.56895e-24
1.48488e-22
6.85714e-21
6.88693e-19
5.11712e-75
1.94349e-72
4.21389e-70
9.17784e-68
5.47659e-65
6.86986e-62
8.6643e-59
1.04568e-55
1.13314e-52
1.14421e-49
9.776e-47
7.22061e-44
4.14788e-41
1.89087e-38
6.2532e-36
1.39135e-33
1.89405e-31
2.70787e-29
3.86535e-27
4.07957e-25
2.96356e-23
1.73402e-21
9.53785e-19
8.19406e-79
3.98235e-76
1.13439e-73
3.58119e-71
3.15211e-68
5.31185e-65
9.60342e-62
1.69766e-58
2.72849e-55
4.20382e-52
5.27624e-49
6.0666e-46
5.29643e-43
3.72256e-40
1.77888e-37
5.40953e-35
9.46437e-33
1.72787e-30
3.30848e-28
4.69939e-26
4.55613e-24
3.94665e-22
1.47907e-18
4.27935e-83
3.00034e-80
1.24766e-77
5.44206e-75
6.17076e-72
1.53144e-68
4.17392e-65
1.18449e-61
2.92005e-58
6.76961e-55
1.29334e-51
2.29069e-48
2.85333e-45
3.04929e-42
2.0084e-39
9.43706e-37
2.35602e-34
5.84666e-32
1.72785e-29
3.8951e-27
7.30944e-25
2.35878e-22
1.21997e-18
1.44106e-87
1.86284e-84
4.11221e-81
2.87507e-77
1.99221e-73
1.08249e-69
4.92115e-66
1.68923e-62
4.08048e-59
7.09534e-56
9.72449e-53
1.05606e-49
9.54482e-47
7.60144e-44
5.13741e-41
2.99876e-38
1.24589e-35
5.48725e-33
3.49179e-30
1.6536e-27
1.02273e-24
1.3018e-21
6.2129e-19
1.95885e-88
3.1705e-84
4.78175e-80
4.55598e-76
3.09878e-72
1.6161e-68
7.07185e-65
2.423e-61
5.84515e-58
1.00122e-54
1.33354e-51
1.3762e-48
1.1237e-45
7.21072e-43
3.7617e-40
1.65701e-37
7.39803e-35
3.88998e-32
2.61113e-29
1.56264e-26
7.62347e-24
5.22797e-21
9.17137e-19
1.72075e-87
5.00925e-83
6.89805e-79
6.22866e-75
4.02251e-71
1.97763e-67
8.05489e-64
2.72446e-60
6.70778e-57
1.1522e-53
1.52936e-50
1.58012e-47
1.28164e-44
8.20754e-42
4.21929e-39
1.7915e-36
7.1006e-34
3.43122e-31
1.79558e-28
7.62266e-26
2.34332e-23
4.47241e-21
4.94837e-19
2.63748e-86
6.70589e-82
8.60763e-78
7.34652e-74
4.50883e-70
2.08286e-66
7.61507e-63
2.39144e-59
6.17847e-56
1.0815e-52
1.44202e-49
1.52243e-46
1.24545e-43
8.0448e-41
4.09944e-38
1.67725e-35
5.55639e-33
1.52683e-30
3.55057e-28
7.16926e-26
1.25671e-23
1.76723e-21
1.81393e-19
3.6467e-85
8.28138e-81
9.43024e-77
7.2753e-73
4.23468e-69
1.88004e-65
6.27763e-62
1.59287e-58
3.0609e-55
4.62435e-52
5.47434e-49
5.13544e-46
3.81018e-43
2.25784e-40
1.06427e-37
4.02982e-35
1.22339e-32
3.01213e-30
6.0095e-28
9.74729e-26
1.26899e-23
1.31057e-21
1.0628e-19
5.27493e-84
1.07106e-79
1.04318e-75
6.40442e-72
2.70865e-68
8.31327e-65
1.88999e-61
3.24523e-58
4.26312e-55
4.36218e-52
3.50739e-49
2.22205e-46
1.11937e-43
4.54937e-41
1.50828e-38
4.14165e-36
9.54759e-34
1.87559e-31
3.17218e-29
4.69108e-27
6.11528e-25
7.10825e-23
7.25766e-21
2.82771e-83
5.2102e-79
4.52007e-75
2.43402e-71
8.99606e-68
2.41333e-64
4.82882e-61
7.36942e-58
8.67484e-55
7.97432e-52
5.75324e-49
3.28476e-46
1.48755e-43
5.39005e-41
1.56872e-38
3.7017e-36
7.19731e-34
1.17925e-31
1.65451e-29
2.04416e-27
2.27466e-25
2.3431e-23
2.21463e-21
0.999356
0.999906
0.996049
0.259778
0.99938
0.999906
0.999953
0.970047
0.999933
0.999987
0.999953
0.999607
1
1
0.999993
0.999995
1
1
1
1
0.572517
0.730417
0.915216
0.997793
0.0328362
0.0698991
0.137073
0.229312
9.18205e-05
0.000409747
0.00141479
0.00361073
8.34703e-06
1.04452e-05
1.32272e-05
1.39646e-05
4.10462e-05
4.10558e-05
4.10466e-05
4.10558e-05
2.95994e-10
3.14406e-05
4.10561e-05
4.10466e-05
2.46336e-08
3.4051e-07
1.84944e-06
6.77848e-06
4.0492e-13
4.0492e-13
4.0492e-13
4.0492e-13
7.86901e-12
5.85994e-12
3.24896e-12
1.19129e-12
1.42957e-12
1.09042e-12
8.15964e-13
6.77735e-13
1.87496e-13
1.4564e-13
1.10747e-13
9.97232e-14
2.28455e-14
2.39065e-14
2.78351e-14
3.76661e-14
6.75284e-15
1.04618e-14
1.73819e-14
3.11838e-14
4.38859e-15
7.85603e-15
1.50953e-14
3.16625e-14
3.41321e-15
6.69885e-15
1.5536e-14
5.06968e-14
3.34569e-15
8.01736e-15
2.96935e-14
1.53591e-13
4.90081e-15
1.58885e-14
8.12806e-14
5.05906e-13
8.77784e-15
3.4669e-14
2.06573e-13
1.36245e-12
1.22504e-14
5.74867e-14
3.67429e-13
2.55013e-12
1.42064e-14
7.40759e-14
4.79488e-13
3.60071e-12
1.41644e-14
7.95956e-14
5.12367e-13
2.35701e-12
8.4248e-15
5.81917e-14
3.50232e-13
1.20851e-12
3.57636e-15
2.5461e-14
1.59904e-13
5.25887e-13
1.23306e-15
9.66919e-15
6.34148e-14
2.37792e-13
3.00856e-16
2.94587e-15
2.73718e-14
1.92521e-13
7.08295e-17
1.54534e-15
2.73968e-14
4.36288e-13
6.84349e-17
3.34903e-15
8.1904e-14
1.05664e-12
1.91045e-16
7.35668e-15
1.37341e-13
1.44881e-12
2.53852e-16
8.74164e-15
1.35572e-13
1.15274e-12
1.19888e-16
2.98117e-15
3.89275e-14
3.04163e-13
3.4348e-17
7.14081e-16
9.42394e-15
8.48405e-14
4.51186e-17
9.41291e-16
1.29057e-14
1.19451e-13
2.32634e-17
5.11541e-16
7.92691e-15
8.62774e-14
8.98712e-18
2.1848e-16
3.83781e-15
4.73243e-14
4.711e-18
1.09503e-16
1.96922e-15
2.64286e-14
4.63484e-19
1.69851e-17
5.23924e-16
1.26018e-14
1.37828e-19
5.12769e-18
1.68513e-16
4.55328e-15
0.00590785
0.000636107
5.54259e-05
2.95682e-07
2.65428e-10
9.85801e-11
3.34338e-11
6.89262e-12
1.91876e-12
4.29891e-13
2.12078e-12
6.7131e-12
1.64267e-11
3.72309e-11
9.04688e-11
2.12255e-10
1.39375e-11
1.84623e-06
3.14114e-07
0.828069
0.294562
0.0131
3.25844e-05
2.78054e-09
2.4308e-10
2.33551e-10
1.73078e-10
1.82741e-10
4.64653e-11
2.02531e-12
2.0253e-12
9.45923e-12
3.63218e-11
7.88912e-11
1.04949e-10
1.42108e-11
4.60684e-07
0.00188501
0.999999
0.798194
0.122644
0.00173284
3.80259e-06
1.72979e-10
1.63759e-10
1.93863e-10
6.39901e-10
4.95605e-09
1.25792e-08
9.55276e-09
1.75139e-12
1.75728e-12
7.0133e-11
2.53026e-11
6.24441e-10
3.38917e-16
0.170709
0.999999
1
0.68046
0.050538
3.50687e-16
3.53037e-16
1.90636e-11
4.29714e-11
1.50481e-10
1.51759e-09
7.05069e-09
1.15331e-08
3.90097e-08
1.07301e-07
1.11271e-07
8.8888e-08
7.6172e-09
3.40307e-16
0.623373
1
1
1
0.736393
0.276686
0.0287187
3.48851e-16
3.48843e-16
3.48815e-16
3.48843e-16
3.48835e-16
3.48861e-16
3.48835e-16
2.02596e-08
6.44818e-08
5.11084e-08
2.19963e-08
3.38859e-16
0.741735
1
1
1
0.994773
0.923547
0.746197
0.486917
0.354456
0.298875
0.240544
0.176163
0.125038
0.0629735
3.43132e-16
3.40911e-16
3.43094e-16
0.000203222
3.40561e-16
0.741937
0.470641
0.848704
0.998654
1
1
1
0.993296
0.974429
0.955573
0.929435
0.890413
0.843601
0.776008
0.61661
0.374247
0.190645
0.0895807
0.235127
0.835937
0.0115983
0.112256
0.325264
0.624889
0.836045
0.939862
0.981721
0.995129
0.999912
0.999912
0.999912
0.999912
0.999912
0.998969
0.96839
0.895123
0.779466
0.875751
0.977876
3.23558e-05
0.00105559
0.00716478
0.0418887
0.1276
0.257833
0.389301
0.446947
0.47868
0.521039
0.58789
0.681661
0.794921
0.933699
0.995054
0.995054
0.991326
0.991668
0.988532
8.83551e-06
1.03391e-06
4.30278e-06
8.0684e-05
0.00071097
0.00288762
0.00673553
0.0101533
0.0130192
0.0169562
0.0288953
0.060386
0.123133
0.246509
0.513764
0.863346
0.988036
0.991668
0.940684
3.00589e-05
7.22291e-07
8.7063e-10
6.825e-10
1.29646e-08
1.64609e-07
8.24988e-07
2.03506e-06
3.86178e-06
7.80283e-06
2.51736e-05
0.00014501
0.000941961
0.00543366
0.00548512
0.312115
0.858569
0.991668
0.846475
6.84774e-06
1.26955e-06
9.46719e-10
8.82749e-11
8.82749e-11
8.86779e-11
6.69573e-11
3.4804e-11
4.89924e-09
2.03786e-08
1.87679e-08
1.07903e-08
1.90748e-07
4.59726e-06
4.59723e-06
0.0526004
0.666526
0.991508
0.829417
4.0492e-13
3.25742e-08
1.52704e-08
1.7446e-09
4.27038e-10
1.67394e-10
5.99879e-11
3.38404e-11
9.11456e-10
6.99873e-09
5.35882e-09
1.53367e-09
1.61984e-09
6.94159e-07
0.00134021
0.110931
0.747536
0.991668
0.813694
4.0492e-13
1.2029e-10
6.66003e-10
4.94444e-10
1.99922e-10
8.97036e-11
4.43561e-11
3.38337e-11
4.74663e-10
3.79749e-09
4.39387e-09
1.5296e-09
1.595e-07
0.000152689
0.0153556
0.315506
0.890357
0.991668
0.668395
4.10444e-13
2.69742e-12
1.29376e-11
2.33255e-11
3.29297e-11
4.54054e-11
4.03059e-11
3.38423e-11
1.5032e-10
1.69727e-09
3.84575e-09
1.52962e-09
8.63947e-07
0.00249092
0.126711
0.646638
0.89535
0.89678
0.325507
1.17734e-13
9.29629e-13
1.20432e-11
8.57495e-11
4.55384e-11
3.50399e-11
1.75147e-10
2.25938e-10
2.05126e-10
5.95314e-10
2.75002e-09
1.52957e-09
4.18476e-06
0.0112362
0.373065
0.839382
0.894921
0.714486
0.310787
1.19251e-13
1.56076e-13
3.17054e-13
4.37068e-10
4.68904e-09
4.64387e-09
3.4175e-10
2.25941e-10
2.38669e-10
2.79363e-10
8.20854e-10
7.69224e-10
2.12392e-06
0.00702397
0.228915
0.690439
0.886685
0.772418
0.328861
2.30969e-13
1.97569e-13
8.75079e-11
1.26858e-10
5.09651e-09
3.35592e-08
3.51241e-08
6.94412e-09
2.38676e-10
4.59842e-10
1.23099e-09
7.69237e-10
5.80978e-10
0.000824743
0.0101715
0.177937
0.667497
0.736875
0.449085
5.07275e-13
1.61644e-12
1.61652e-12
5.86389e-09
2.2625e-08
2.10604e-08
4.13346e-08
6.96236e-08
4.70023e-08
1.15764e-08
4.27309e-09
1.23439e-09
5.79268e-10
3.47817e-05
0.000219623
0.0121342
0.365654
0.39859
0.228533
1.0142e-12
1.59466e-11
2.79077e-11
1.71388e-13
4.78961e-07
6.86182e-07
1.03082e-07
8.35652e-08
7.53771e-08
1.37361e-08
1.82582e-09
5.79268e-10
5.80978e-10
1.76387e-06
3.72939e-09
0.00187729
0.134545
0.390025
0.158839
2.26146e-12
2.37727e-11
4.71143e-10
1.71361e-13
5.81095e-08
1.11492e-05
9.91113e-06
1.09123e-06
9.7228e-10
9.53664e-10
9.7228e-10
1.04567e-08
6.89579e-09
5.25566e-09
3.72846e-09
1.39321e-09
4.38021e-06
0.397204
0.158839
4.75539e-12
4.75537e-12
5.48035e-09
1.71388e-13
7.09591e-07
1.31877e-05
1.59097e-05
1.19754e-05
1.18109e-05
7.74255e-06
1.85407e-06
2.26293e-08
3.50466e-09
2.19503e-09
2.81757e-09
1.38915e-09
2.95104e-11
0.396959
0.158839
8.6109e-12
8.06128e-12
1.22744e-08
6.57912e-09
3.22924e-09
3.66657e-06
3.18726e-05
3.29211e-05
3.29734e-05
2.20165e-05
1.38009e-06
1.20916e-08
2.19501e-09
2.19805e-09
3.27915e-09
1.54695e-09
2.95104e-11
0.257283
0.242982
1.19485e-11
8.06112e-12
6.68629e-09
9.68788e-08
1.47716e-08
1.47762e-08
9.8496e-06
2.08607e-05
1.88947e-05
1.29033e-05
1.14113e-06
4.15888e-09
2.19842e-09
9.50833e-09
6.41633e-09
1.11305e-09
2.95104e-11
0.0173996
0.320683
1.32034e-11
8.14732e-12
3.46274e-12
5.49083e-07
1.29175e-06
6.14919e-07
4.75816e-07
4.75816e-07
6.19514e-07
1.51373e-05
2.66807e-08
4.15895e-09
2.06785e-07
6.42637e-08
3.81789e-09
7.46756e-10
1.75057e-10
2.95104e-11
0.320613
1.1422e-11
6.06573e-12
3.47508e-12
5.47224e-07
3.1829e-06
9.44557e-07
4.75816e-07
4.75816e-07
4.75816e-07
8.35714e-06
3.82194e-05
2.01944e-05
6.96006e-07
2.90113e-08
1.426e-09
8.13862e-10
1.1886e-10
2.95104e-11
0.320625
4.97336e-12
4.94242e-12
3.46274e-12
1.21278e-07
3.21871e-06
1.03853e-06
4.75816e-07
1.25338e-05
4.75816e-07
5.2081e-05
0.000175875
6.48501e-05
3.19118e-07
6.42687e-09
1.15683e-09
6.30699e-10
2.95104e-11
2.95104e-11
0.296674
2.15755e-12
1.11661e-11
2.14966e-11
2.01098e-11
3.21653e-06
8.99445e-07
4.75816e-07
6.95197e-05
0.000133772
0.000176555
0.000176596
4.51151e-05
6.93042e-10
1.38089e-09
5.67532e-10
4.11199e-10
0.000123019
2.95104e-11
0.108049
1.87427e-12
2.85884e-11
2.68192e-10
2.00321e-11
1.99594e-06
2.11899e-07
4.74374e-06
0.000128671
0.000176589
0.000176596
0.000176589
1.56273e-06
6.93367e-10
7.7352e-10
5.67539e-10
1.52737e-06
0.000186768
2.95104e-11
0.108136
3.53104e-12
4.42953e-11
8.94896e-10
4.20486e-08
4.20488e-08
1.77169e-07
6.97079e-06
0.000132207
0.000176596
0.000176589
5.00818e-05
3.64794e-11
6.93168e-10
2.07222e-08
1.41414e-06
4.27476e-05
0.000124886
2.95104e-11
0.271921
8.49799e-12
7.17166e-11
1.893e-10
4.78453e-08
9.42268e-07
1.08433e-06
2.47668e-06
5.85821e-05
0.000134504
5.73953e-05
3.64794e-11
3.64786e-11
2.7337e-10
5.79522e-08
1.67407e-05
4.05828e-05
2.77739e-05
0.00017616
0.300675
1.26449e-11
8.11417e-11
1.88321e-10
4.45755e-08
1.99711e-06
2.62236e-06
2.37512e-08
1.59396e-06
7.02794e-06
1.06282e-06
3.64786e-11
3.64794e-11
2.75307e-09
1.54029e-08
3.27398e-11
3.27398e-11
3.93816e-05
0.00325898
0.30079
1.42615e-11
7.92351e-11
1.55947e-10
1.66539e-08
1.62048e-06
2.72064e-06
2.37512e-08
2.37512e-08
4.01181e-08
5.20405e-08
3.64794e-11
5.8605e-07
2.26565e-06
1.54093e-08
0.042343
0.0629286
0.0188527
0.00552375
0.235287
8.78824e-12
3.9938e-11
7.5634e-11
4.75452e-09
7.76949e-07
2.72159e-06
2.37512e-08
2.37512e-08
3.44183e-08
1.12535e-07
8.44702e-08
1.15223e-07
3.27402e-11
0.0391123
0.34917
0.469275
0.268885
0.0157971
0.0222309
2.30063e-12
1.18634e-11
3.56258e-11
1.09739e-09
1.75384e-07
1.32333e-06
2.37512e-08
2.37513e-08
2.41947e-08
2.10841e-07
2.10869e-07
9.34888e-10
3.27398e-11
0.0545537
0.462119
0.469275
0.429869
0.0586059
0.000116049
8.39025e-13
6.44683e-12
2.57259e-11
7.687e-11
6.6826e-08
1.88232e-06
1.24655e-07
3.39391e-08
2.37416e-07
2.10847e-07
8.40341e-08
2.35311e-09
3.27398e-11
0.0204226
0.20154
0.353539
0.247626
0.0322961
0.000116107
1.18386e-12
9.02799e-12
3.8155e-11
6.96794e-11
3.40399e-09
3.35528e-06
1.02638e-05
3.39372e-08
4.32215e-07
9.34374e-08
3.27398e-11
3.27398e-11
0.000127135
0.00146973
0.00525373
0.0209358
0.0115403
0.00575089
0.000171464
1.03569e-12
9.15518e-12
4.16839e-11
8.19415e-11
3.82261e-09
2.23344e-06
1.41814e-05
8.56144e-06
8.94894e-08
8.9478e-08
2.50114e-06
3.90887e-05
5.28935e-05
2.07275e-05
3.91765e-06
7.70081e-06
3.08902e-06
0.000243609
0.000148236
6.33438e-13
6.01947e-12
2.98937e-11
5.9187e-11
4.2001e-10
4.73709e-07
1.41823e-05
2.13254e-05
1.19492e-05
1.4877e-05
2.26466e-05
2.26473e-05
3.94652e-06
2.03674e-07
1.9053e-08
1.90556e-08
8.03572e-12
3.56356e-05
5.79767e-05
4.03892e-13
4.59098e-12
2.84813e-11
8.11453e-11
2.36961e-10
1.19716e-07
1.03606e-05
2.13254e-05
2.13254e-05
1.03679e-05
1.52813e-05
9.67747e-07
1.20874e-07
6.96891e-07
8.15129e-07
2.7076e-07
8.03572e-12
3.27149e-07
7.70832e-06
3.57552e-13
7.05504e-12
6.82569e-11
3.34907e-10
3.49706e-09
1.92791e-07
2.61497e-06
1.0067e-05
1.01019e-05
6.87348e-07
6.49977e-07
3.92942e-08
2.09554e-06
3.4786e-06
3.47329e-06
1.38616e-07
8.03572e-12
8.03572e-12
4.47151e-06
1.54279e-13
4.18645e-12
6.32579e-11
6.46254e-10
5.7978e-09
1.73992e-08
2.19671e-08
1.88519e-08
2.30907e-08
1.1202e-08
9.08976e-09
2.25813e-08
5.76347e-09
2.8534e-50
6.18585e-111
7.48222e-06
1.6007e-06
1.72257e-09
7.52558e-07
)
;

boundaryField
{
    leftWall
    {
        type            zeroGradient;
    }
    rightWall
    {
        type            zeroGradient;
    }
    lowerWall
    {
        type            zeroGradient;
    }
    atmosphere
    {
        type            inletOutlet;
        inletValue      uniform 0;
        value           nonuniform List<scalar> 
46
(
0
0
0
0
0
0
0
0
0
0
0
0
0
0
0
0
0
0
0
0
0
0
0
0
0
0
0
1.54279e-13
4.18645e-12
6.32579e-11
6.46254e-10
5.7978e-09
1.73992e-08
2.19671e-08
1.88519e-08
2.30907e-08
1.1202e-08
9.08976e-09
2.25813e-08
0
0
0
7.48222e-06
1.6007e-06
1.72257e-09
7.52558e-07
)
;
    }
    defaultFaces
    {
        type            empty;
    }
}


// ************************************************************************* //
