/*--------------------------------*- C++ -*----------------------------------*\
| =========                 |                                                 |
| \\      /  F ield         | OpenFOAM: The Open Source CFD Toolbox           |
|  \\    /   O peration     | Version:  2012                                  |
|   \\  /    A nd           | Website:  www.openfoam.com                      |
|    \\/     M anipulation  |                                                 |
\*---------------------------------------------------------------------------*/
FoamFile
{
    version     2.0;
    format      ascii;
    class       volVectorField;
    location    "0.21";
    object      Uc;
}
// * * * * * * * * * * * * * * * * * * * * * * * * * * * * * * * * * * * * * //

dimensions      [0 1 -1 0 0 0 0];


internalField   nonuniform List<vector> 
2268
(
(0.0263509 -0.0124532 0)
(0.0790275 -0.0124413 0)
(0.131983 -0.0125851 0)
(0.185604 -0.0127557 0)
(0.239497 -0.0127139 0)
(0.294023 -0.0130544 0)
(0.349579 -0.0132008 0)
(0.405583 -0.0132665 0)
(0.461708 -0.0132574 0)
(0.517932 -0.0133136 0)
(0.573691 -0.0130375 0)
(0.628372 -0.0128046 0)
(0.679191 -0.011212 0)
(0.722312 -0.00916658 0)
(0.759992 -0.00864036 0)
(0.788266 -0.00472191 0)
(0.795623 0.00124494 0)
(0.777135 0.00749244 0)
(0.728753 0.0153727 0)
(0.642368 0.025452 0)
(0.5115 0.0363953 0)
(0.334622 0.0471961 0)
(0.117378 0.0554795 0)
(0.0263199 -0.037345 0)
(0.0789785 -0.0373302 0)
(0.131917 -0.037741 0)
(0.185491 -0.0382591 0)
(0.239365 -0.0381408 0)
(0.293878 -0.0391578 0)
(0.349437 -0.0396092 0)
(0.405506 -0.0398233 0)
(0.461728 -0.0397945 0)
(0.518006 -0.0399443 0)
(0.574042 -0.0392398 0)
(0.629101 -0.0384652 0)
(0.680106 -0.0336726 0)
(0.724381 -0.0280083 0)
(0.762579 -0.0256576 0)
(0.790421 -0.014225 0)
(0.799821 0.00282895 0)
(0.783519 0.0223499 0)
(0.735202 0.0462145 0)
(0.647789 0.0767461 0)
(0.514743 0.109825 0)
(0.336212 0.14173 0)
(0.118023 0.166743 0)
(0.0262711 -0.062199 0)
(0.0788942 -0.0622314 0)
(0.131786 -0.0628544 0)
(0.185276 -0.063743 0)
(0.239134 -0.0635704 0)
(0.293649 -0.0652537 0)
(0.349244 -0.0660439 0)
(0.405465 -0.0664561 0)
(0.46193 -0.0664166 0)
(0.518506 -0.0666565 0)
(0.575115 -0.065762 0)
(0.630737 -0.0642505 0)
(0.682652 -0.0565266 0)
(0.729778 -0.0483491 0)
(0.770221 -0.0424821 0)
(0.799006 -0.0241618 0)
(0.812774 0.00181675 0)
(0.803597 0.0354034 0)
(0.76279 0.0752803 0)
(0.684599 0.125944 0)
(0.560898 0.181964 0)
(0.383401 0.237847 0)
(0.140093 0.288742 0)
(0.0262045 -0.0869985 0)
(0.0787383 -0.0871282 0)
(0.131513 -0.0878946 0)
(0.184868 -0.0891969 0)
(0.238688 -0.0890046 0)
(0.29318 -0.091335 0)
(0.348774 -0.0925097 0)
(0.405121 -0.093189 0)
(0.461869 -0.0931868 0)
(0.518905 -0.0935787 0)
(0.576042 -0.0925949 0)
(0.632175 -0.0902321 0)
(0.685416 -0.080241 0)
(0.735069 -0.0703715 0)
(0.778199 -0.059956 0)
(0.808494 -0.0346085 0)
(0.823333 -0.00125593 0)
(0.816063 0.0462492 0)
(0.775997 0.102654 0)
(0.695425 0.1736 0)
(0.567767 0.253099 0)
(0.384428 0.337241 0)
(0.138664 0.420492 0)
(0.0261267 -0.11173 0)
(0.0785248 -0.111987 0)
(0.131135 -0.11284 0)
(0.184344 -0.114613 0)
(0.238142 -0.114448 0)
(0.292647 -0.117402 0)
(0.348293 -0.119014 0)
(0.404857 -0.120046 0)
(0.462048 -0.120176 0)
(0.519829 -0.120851 0)
(0.577852 -0.119747 0)
(0.635123 -0.116674 0)
(0.690586 -0.105171 0)
(0.743669 -0.0939935 0)
(0.790795 -0.0789887 0)
(0.826362 -0.0467015 0)
(0.848606 -0.00668744 0)
(0.851502 0.0537479 0)
(0.825034 0.126599 0)
(0.760291 0.21833 0)
(0.645949 0.322736 0)
(0.462181 0.441096 0)
(0.174763 0.568619 0)
(0.0260097 -0.136369 0)
(0.0781917 -0.136771 0)
(0.130569 -0.137672 0)
(0.183567 -0.139974 0)
(0.237281 -0.139896 0)
(0.291736 -0.143448 0)
(0.347354 -0.145551 0)
(0.404051 -0.147035 0)
(0.461637 -0.14743 0)
(0.520057 -0.148512 0)
(0.578997 -0.147361 0)
(0.637671 -0.143855 0)
(0.695242 -0.13141 0)
(0.750991 -0.119188 0)
(0.801423 -0.0998995 0)
(0.841903 -0.0617299 0)
(0.869707 -0.0153111 0)
(0.876919 0.057595 0)
(0.854498 0.145856 0)
(0.791686 0.259354 0)
(0.676011 0.390416 0)
(0.481805 0.552042 0)
(0.179849 0.736207 0)
(0.0258771 -0.16089 0)
(0.0778049 -0.161452 0)
(0.129936 -0.162381 0)
(0.18273 -0.165261 0)
(0.236362 -0.165339 0)
(0.290797 -0.169466 0)
(0.346448 -0.172119 0)
(0.403386 -0.17417 0)
(0.461536 -0.174991 0)
(0.520857 -0.176595 0)
(0.581177 -0.17564 0)
(0.642054 -0.172074 0)
(0.702731 -0.159074 0)
(0.762607 -0.146168 0)
(0.8184 -0.123121 0)
(0.866782 -0.0805041 0)
(0.904758 -0.0276241 0)
(0.924625 0.0571111 0)
(0.92091 0.158692 0)
(0.882202 0.294496 0)
(0.792877 0.452157 0)
(0.613154 0.667018 0)
(0.245987 0.937453 0)
(0.0257031 -0.185267 0)
(0.0772872 -0.185994 0)
(0.129104 -0.186963 0)
(0.181619 -0.190447 0)
(0.235043 -0.190746 0)
(0.28933 -0.195439 0)
(0.344893 -0.198704 0)
(0.401938 -0.201452 0)
(0.46052 -0.202876 0)
(0.520614 -0.205144 0)
(0.582156 -0.204682 0)
(0.644845 -0.201428 0)
(0.70823 -0.18835 0)
(0.771998 -0.175325 0)
(0.832776 -0.149054 0)
(0.887543 -0.103318 0)
(0.932918 -0.0442018 0)
(0.960782 0.0511318 0)
(0.969626 0.162247 0)
(0.944748 0.320991 0)
(0.862267 0.506856 0)
(0.674823 0.78584 0)
(0.27229 1.18239 0)
(-0.0693898 0.0295054 0)
(-0.193918 0.0234434 0)
(-0.274701 0.0108974 0)
(-0.301853 0.000631116 0)
(-0.292909 -0.00445691 0)
(-0.256425 -0.011084 0)
(-0.206718 -0.0100815 0)
(-0.156956 -0.0111082 0)
(-0.109638 -0.00904233 0)
(-0.0695963 -0.00801382 0)
(-0.0371651 -0.00580551 0)
(-0.0131025 -0.00445493 0)
(0.00364109 -0.0026925 0)
(0.0136552 -0.00159296 0)
(0.0183291 -0.000421206 0)
(0.0185207 0.000313255 0)
(0.0155145 0.000938934 0)
(0.0101807 0.00130324 0)
(0.00354268 0.00149353 0)
(-0.0788047 0.0925209 0)
(-0.210488 0.069369 0)
(-0.282955 0.0301164 0)
(-0.299716 4.91746e-05 0)
(-0.286979 -0.0131399 0)
(-0.251934 -0.0328705 0)
(-0.20339 -0.0301311 0)
(-0.154236 -0.0331794 0)
(-0.10724 -0.027135 0)
(-0.0673325 -0.0239766 0)
(-0.0351351 -0.017382 0)
(-0.0113161 -0.0132957 0)
(0.00514038 -0.00802455 0)
(0.0148873 -0.00471828 0)
(0.0193144 -0.00121928 0)
(0.019294 0.00098562 0)
(0.0160795 0.00285954 0)
(0.0105285 0.0039593 0)
(0.00365827 0.00452975 0)
(-0.0811761 0.16055 0)
(-0.226259 0.119024 0)
(-0.315782 0.0493235 0)
(-0.337072 -0.00301449 0)
(-0.315831 -0.0245723 0)
(-0.26878 -0.0564019 0)
(-0.212368 -0.0512883 0)
(-0.158228 -0.0560056 0)
(-0.108229 -0.045613 0)
(-0.0668613 -0.0401182 0)
(-0.0338349 -0.029033 0)
(-0.00972055 -0.0220839 0)
(0.00674647 -0.0132916 0)
(0.0163126 -0.00771822 0)
(0.0204463 -0.00191306 0)
(0.0201129 0.001777 0)
(0.0165971 0.0048778 0)
(0.0108108 0.00671006 0)
(0.00374641 0.00765262 0)
(-0.0964912 0.236102 0)
(-0.24927 0.17013 0)
(-0.318549 0.0657241 0)
(-0.32194 -0.00895881 0)
(-0.299157 -0.0373973 0)
(-0.257885 -0.081189 0)
(-0.2033 -0.0737598 0)
(-0.149462 -0.0795096 0)
(-0.0998918 -0.0645083 0)
(-0.0589997 -0.0562613 0)
(-0.0269786 -0.0406075 0)
(-0.00389313 -0.0306367 0)
(0.0115369 -0.0183576 0)
(0.0202009 -0.0104587 0)
(0.0235301 -0.00239944 0)
(0.0225078 0.00278706 0)
(0.0183245 0.00708937 0)
(0.0118583 0.00965671 0)
(0.00409288 0.0109603 0)
(-0.114226 0.325713 0)
(-0.309339 0.228459 0)
(-0.407697 0.07866 0)
(-0.402523 -0.0226951 0)
(-0.352076 -0.0548534 0)
(-0.286941 -0.109037 0)
(-0.218486 -0.0982926 0)
(-0.156469 -0.104303 0)
(-0.101625 -0.0841755 0)
(-0.0580185 -0.0725847 0)
(-0.0244837 -0.0522181 0)
(-0.000826145 -0.0389593 0)
(0.0145986 -0.0232105 0)
(0.0228964 -0.0128729 0)
(0.0256412 -0.00262136 0)
(0.024022 0.00407942 0)
(0.0192893 0.00953613 0)
(0.0123959 0.0128389 0)
(0.00426201 0.0144872 0)
(-0.138457 0.433174 0)
(-0.338154 0.288894 0)
(-0.399689 0.0861952 0)
(-0.380059 -0.0408229 0)
(-0.335273 -0.0772772 0)
(-0.274225 -0.14033 0)
(-0.205373 -0.125449 0)
(-0.14184 -0.130597 0)
(-0.0869144 -0.10462 0)
(-0.044242 -0.0888888 0)
(-0.0125729 -0.0636986 0)
(0.00921834 -0.0468618 0)
(0.0228128 -0.027703 0)
(0.0295586 -0.0148319 0)
(0.0309329 -0.00246713 0)
(0.02811 0.00576136 0)
(0.0222064 0.0123248 0)
(0.0141427 0.0163586 0)
(0.00483837 0.0183312 0)
(-0.176923 0.567304 0)
(-0.459147 0.359714 0)
(-0.564106 0.0861529 0)
(-0.510561 -0.0719487 0)
(-0.413846 -0.106383 0)
(-0.319111 -0.177532 0)
(-0.227548 -0.156525 0)
(-0.151273 -0.159036 0)
(-0.0885985 -0.12625 0)
(-0.0419269 -0.10531 0)
(-0.00825136 -0.0751215 0)
(0.01412 -0.0542751 0)
(0.0274149 -0.0317789 0)
(0.0334596 -0.0162492 0)
(0.0339005 -0.00187493 0)
(0.0302041 0.00788863 0)
(0.023551 0.0154848 0)
(0.0149087 0.0202505 0)
(0.00508058 0.0225232 0)
(-0.210121 0.731917 0)
(-0.488729 0.433618 0)
(-0.536417 0.0771371 0)
(-0.486808 -0.106852 0)
(-0.409999 -0.145333 0)
(-0.307374 -0.222576 0)
(-0.209653 -0.192039 0)
(-0.130677 -0.189605 0)
(-0.068272 -0.148931 0)
(-0.023113 -0.121739 0)
(0.00822183 -0.0863952 0)
(0.0281846 -0.0610602 0)
(0.0390505 -0.0353227 0)
(0.0429934 -0.0170067 0)
(0.041511 -0.000727721 0)
(0.036038 0.0105878 0)
(0.027635 0.0191358 0)
(0.0173234 0.0246074 0)
(0.00588206 0.027159 0)
(0.0254268 -0.222973 0)
(0.0764621 -0.223967 0)
(0.127782 -0.225066 0)
(0.179841 -0.229493 0)
(0.2329 -0.230285 0)
(0.286973 -0.235912 0)
(0.342499 -0.240306 0)
(0.399864 -0.244474 0)
(0.459323 -0.247309 0)
(0.520995 -0.251105 0)
(0.585054 -0.252199 0)
(0.651615 -0.250446 0)
(0.720666 -0.238699 0)
(0.79258 -0.227401 0)
(0.864398 -0.197894 0)
(0.934073 -0.150399 0)
(0.99866 -0.0834885 0)
(1.05739 0.0182165 0)
(1.11217 0.135915 0)
(1.16186 0.309127 0)
(1.20552 0.513817 0)
(1.25851 0.814193 0)
(1.31576 1.28677 0)
(0.0249032 -0.273566 0)
(0.0748953 -0.274929 0)
(0.125246 -0.276306 0)
(0.176382 -0.281985 0)
(0.228638 -0.283658 0)
(0.282124 -0.29066 0)
(0.337258 -0.296795 0)
(0.394586 -0.303276 0)
(0.454655 -0.308659 0)
(0.517842 -0.315265 0)
(0.584784 -0.319724 0)
(0.656042 -0.321459 0)
(0.7324 -0.313852 0)
(0.81479 -0.307357 0)
(0.900916 -0.276707 0)
(0.990072 -0.231246 0)
(1.08004 -0.158002 0)
(1.16892 -0.0556536 0)
(1.24468 0.0785631 0)
(1.29644 0.264496 0)
(1.33221 0.478611 0)
(1.38359 0.744486 0)
(1.50797 1.17394 0)
(0.0242503 -0.322976 0)
(0.0729259 -0.324702 0)
(0.122019 -0.326496 0)
(0.171931 -0.33337 0)
(0.223072 -0.33621 0)
(0.275686 -0.344761 0)
(0.330192 -0.352905 0)
(0.387291 -0.362191 0)
(0.447777 -0.37093 0)
(0.512272 -0.381343 0)
(0.581947 -0.390976 0)
(0.658287 -0.398575 0)
(0.743334 -0.398984 0)
(0.838542 -0.40075 0)
(0.94279 -0.374684 0)
(1.05499 -0.335677 0)
(1.17185 -0.261478 0)
(1.29058 -0.160875 0)
(1.40179 -0.00416402 0)
(1.50479 0.192146 0)
(1.60284 0.416939 0)
(1.6973 0.659567 0)
(1.81423 1.01629 0)
(0.0233897 -0.370865 0)
(0.0703328 -0.372931 0)
(0.117766 -0.375296 0)
(0.16608 -0.38331 0)
(0.215694 -0.387552 0)
(0.26692 -0.397801 0)
(0.320096 -0.408108 0)
(0.375899 -0.42048 0)
(0.435324 -0.433178 0)
(0.499135 -0.44807 0)
(0.569104 -0.464622 0)
(0.648363 -0.48134 0)
(0.73984 -0.493666 0)
(0.845542 -0.508026 0)
(0.9665 -0.493789 0)
(1.1024 -0.465968 0)
(1.25004 -0.397066 0)
(1.39921 -0.294582 0)
(1.54028 -0.124034 0)
(1.64935 0.0993541 0)
(1.71004 0.350639 0)
(1.7571 0.583542 0)
(1.83122 0.90021 0)
(0.0224094 -0.416903 0)
(0.0673689 -0.419275 0)
(0.112837 -0.422338 0)
(0.159138 -0.431377 0)
(0.206685 -0.437153 0)
(0.255884 -0.449149 0)
(0.307131 -0.461728 0)
(0.36113 -0.477235 0)
(0.419135 -0.494466 0)
(0.481839 -0.513956 0)
(0.550502 -0.538092 0)
(0.629904 -0.567358 0)
(0.72599 -0.59619 0)
(0.842638 -0.629013 0)
(0.977611 -0.630073 0)
(1.12096 -0.610479 0)
(1.25549 -0.536545 0)
(1.35913 -0.40944 0)
(1.43483 -0.226098 0)
(1.53543 -0.00734301 0)
(1.66982 0.263475 0)
(1.7732 0.52228 0)
(1.84706 0.815996 0)
(0.021216 -0.460756 0)
(0.0637859 -0.463408 0)
(0.10692 -0.467269 0)
(0.15088 -0.477178 0)
(0.19617 -0.484674 0)
(0.243226 -0.498386 0)
(0.292272 -0.513308 0)
(0.343713 -0.531645 0)
(0.398544 -0.553482 0)
(0.458146 -0.577883 0)
(0.523854 -0.609239 0)
(0.60061 -0.653184 0)
(0.694467 -0.701299 0)
(0.805589 -0.753065 0)
(0.920356 -0.757794 0)
(1.03067 -0.737977 0)
(1.15553 -0.668952 0)
(1.303 -0.528829 0)
(1.44531 -0.324875 0)
(1.58505 -0.14812 0)
(1.71046 0.145582 0)
(1.78861 0.461237 0)
(1.84808 0.747697 0)
(0.020129 -0.502317 0)
(0.0604944 -0.505216 0)
(0.101354 -0.509894 0)
(0.14279 -0.520396 0)
(0.185289 -0.529703 0)
(0.229252 -0.544851 0)
(0.274839 -0.56197 0)
(0.32304 -0.583144 0)
(0.375319 -0.609653 0)
(0.433695 -0.640305 0)
(0.497544 -0.677055 0)
(0.564688 -0.730193 0)
(0.636769 -0.792165 0)
(0.731152 -0.869953 0)
(0.888616 -0.914636 0)
(1.10873 -0.9127 0)
(1.30459 -0.815394 0)
(1.45849 -0.684438 0)
(1.60076 -0.455249 0)
(1.70045 -0.258298 0)
(1.78514 0.0448511 0)
(1.90974 0.358905 0)
(2.01865 0.682205 0)
(0.0189014 -0.541551 0)
(0.0567308 -0.544584 0)
(0.0950208 -0.550087 0)
(0.133871 -0.560908 0)
(0.17394 -0.572189 0)
(0.215982 -0.588819 0)
(0.26024 -0.608317 0)
(0.307121 -0.63238 0)
(0.356307 -0.662452 0)
(0.407944 -0.698502 0)
(0.463693 -0.740621 0)
(0.531009 -0.803856 0)
(0.604652 -0.866101 0)
(0.725759 -1.0129 0)
(0.918218 -1.1227 0)
(1.11968 -1.12755 0)
(1.25708 -0.935408 0)
(1.26254 -0.724486 0)
(1.212 -0.507291 0)
(1.26169 -0.356287 0)
(1.46843 -0.149996 0)
(1.79014 0.105267 0)
(2.1101 0.504907 0)
(0.0180861 -0.578735 0)
(0.0542251 -0.581762 0)
(0.0910616 -0.588439 0)
(0.128726 -0.599491 0)
(0.167152 -0.612576 0)
(0.206108 -0.630112 0)
(0.245679 -0.652081 0)
(0.287446 -0.679485 0)
(0.333983 -0.714311 0)
(0.396067 -0.763672 0)
(0.49238 -0.83027 0)
(0.581186 -0.872659 0)
(0.627704 -0.918082 0)
(0.699061 -1.1536 0)
(0.782117 -1.25881 0)
(0.819885 -1.23177 0)
(0.811514 -0.960722 0)
(0.783164 -0.676019 0)
(0.832428 -0.554355 0)
(1.00822 -0.535753 0)
(1.29461 -0.466119 0)
(1.64841 -0.257495 0)
(2.00014 0.192633 0)
(0.0174555 -0.615756 0)
(0.0520411 -0.618514 0)
(0.0870245 -0.626834 0)
(0.122401 -0.6379 0)
(0.158227 -0.652424 0)
(0.196754 -0.67153 0)
(0.243165 -0.700065 0)
(0.331403 -0.764848 0)
(0.476069 -0.820041 0)
(0.646612 -0.890175 0)
(0.797728 -0.952883 0)
(0.871494 -0.913037 0)
(0.817492 -0.87009 0)
(0.699388 -1.15452 0)
(0.638739 -1.28035 0)
(0.599377 -1.20853 0)
(0.530474 -0.906122 0)
(0.532908 -0.704426 0)
(0.681049 -0.724263 0)
(0.922325 -0.784963 0)
(1.21673 -0.800619 0)
(1.54308 -0.60655 0)
(1.85531 -0.125574 0)
(0.0183313 -0.653292 0)
(0.0558503 -0.656592 0)
(0.102315 -0.673856 0)
(0.164216 -0.692113 0)
(0.243952 -0.717926 0)
(0.345227 -0.749683 0)
(0.465847 -0.791987 0)
(0.609757 -0.907166 0)
(0.771751 -0.982133 0)
(0.92541 -1.05002 0)
(1.02108 -1.04104 0)
(1.04243 -0.920409 0)
(0.93794 -0.703325 0)
(0.729498 -0.993035 0)
(0.588477 -1.23914 0)
(0.48447 -1.10554 0)
(0.386749 -0.841476 0)
(0.40015 -0.784864 0)
(0.510059 -0.9031 0)
(0.668993 -1.0083 0)
(0.866419 -1.07155 0)
(1.11676 -0.915167 0)
(1.4289 -0.444425 0)
(0.0285847 -0.700712 0)
(0.086948 -0.705989 0)
(0.150652 -0.735458 0)
(0.224322 -0.766846 0)
(0.310624 -0.810062 0)
(0.415962 -0.865207 0)
(0.539745 -0.9221 0)
(0.666093 -1.04867 0)
(0.791206 -1.12917 0)
(0.920167 -1.18701 0)
(1.02584 -1.10637 0)
(1.07554 -0.92643 0)
(1.01055 -0.526852 0)
(0.829833 -0.778288 0)
(0.614132 -1.0953 0)
(0.401918 -0.93142 0)
(0.284416 -0.79912 0)
(0.291577 -0.847772 0)
(0.349491 -1.00877 0)
(0.430993 -1.14419 0)
(0.549021 -1.25263 0)
(0.748404 -1.18602 0)
(1.06018 -0.800593 0)
(0.0291676 -0.758743 0)
(0.0890129 -0.766737 0)
(0.148567 -0.798563 0)
(0.20627 -0.83575 0)
(0.263228 -0.88511 0)
(0.324548 -0.957631 0)
(0.399331 -1.02922 0)
(0.497171 -1.16685 0)
(0.633765 -1.274 0)
(0.791568 -1.33036 0)
(0.9268 -1.20509 0)
(0.997041 -0.948197 0)
(0.982247 -0.42479 0)
(0.87504 -0.59084 0)
(0.626258 -0.815747 0)
(0.34211 -0.711913 0)
(0.201694 -0.759254 0)
(0.16698 -0.859821 0)
(0.161822 -1.04963 0)
(0.184679 -1.2081 0)
(0.258386 -1.38131 0)
(0.428064 -1.42817 0)
(0.76539 -1.21076 0)
(0.0162641 -0.80439 0)
(0.0509131 -0.816035 0)
(0.086639 -0.845001 0)
(0.124787 -0.88562 0)
(0.166691 -0.934568 0)
(0.214813 -1.01813 0)
(0.274328 -1.10366 0)
(0.350528 -1.26729 0)
(0.443985 -1.40474 0)
(0.533589 -1.44825 0)
(0.590077 -1.27985 0)
(0.589175 -0.943058 0)
(0.573866 -0.399585 0)
(0.513647 -0.447652 0)
(0.31804 -0.512125 0)
(0.114401 -0.525098 0)
(0.0236569 -0.713593 0)
(-0.00596387 -0.840691 0)
(-0.0203278 -1.049 0)
(-0.0219921 -1.22989 0)
(0.0196296 -1.4753 0)
(0.161172 -1.64686 0)
(0.465934 -1.63734 0)
(0.0104353 -0.831205 0)
(0.0323742 -0.846056 0)
(0.053005 -0.871584 0)
(0.0714557 -0.915883 0)
(0.0879923 -0.963 0)
(0.104228 -1.05434 0)
(0.123171 -1.14626 0)
(0.141758 -1.31991 0)
(0.145339 -1.44961 0)
(0.124719 -1.47266 0)
(0.0614139 -1.24852 0)
(-0.0195548 -0.892021 0)
(-0.0302991 -0.424352 0)
(-0.0483071 -0.34416 0)
(-0.125238 -0.341561 0)
(-0.158834 -0.457087 0)
(-0.16834 -0.680722 0)
(-0.189284 -0.822613 0)
(-0.215194 -1.02647 0)
(-0.255847 -1.20975 0)
(-0.299565 -1.49318 0)
(-0.303919 -1.76671 0)
(-0.215958 -1.91207 0)
(0.00408372 -0.845776 0)
(0.0121221 -0.861572 0)
(0.0175426 -0.882207 0)
(0.0192549 -0.925479 0)
(0.0166159 -0.967323 0)
(0.00680272 -1.05642 0)
(-0.0136496 -1.14261 0)
(-0.0574623 -1.29814 0)
(-0.139127 -1.39282 0)
(-0.259045 -1.38811 0)
(-0.401115 -1.12655 0)
(-0.513235 -0.81982 0)
(-0.531459 -0.467356 0)
(-0.490186 -0.324456 0)
(-0.434022 -0.340299 0)
(-0.370537 -0.488296 0)
(-0.344824 -0.665698 0)
(-0.358528 -0.802691 0)
(-0.399987 -0.978537 0)
(-0.477084 -1.13917 0)
(-0.603505 -1.39257 0)
(-0.783912 -1.68141 0)
(-0.961647 -1.90691 0)
(-0.000813152 -0.84904 0)
(-0.00420197 -0.862935 0)
(-0.012002 -0.878405 0)
(-0.0254022 -0.917484 0)
(-0.0463889 -0.951519 0)
(-0.0806322 -1.02789 0)
(-0.135582 -1.0953 0)
(-0.222939 -1.21355 0)
(-0.350087 -1.26745 0)
(-0.503954 -1.2382 0)
(-0.645191 -0.991608 0)
(-0.735975 -0.75073 0)
(-0.746472 -0.5075 0)
(-0.67293 -0.399646 0)
(-0.568326 -0.42663 0)
(-0.497848 -0.536532 0)
(-0.481177 -0.659962 0)
(-0.504532 -0.77106 0)
(-0.566993 -0.905576 0)
(-0.673974 -1.02694 0)
(-0.840821 -1.20982 0)
(-1.10332 -1.41873 0)
(-1.46559 -1.6265 0)
(-0.00587544 -0.842294 0)
(-0.0198941 -0.852137 0)
(-0.0381267 -0.862988 0)
(-0.0620376 -0.895348 0)
(-0.0943688 -0.920011 0)
(-0.141279 -0.977766 0)
(-0.210825 -1.02022 0)
(-0.312628 -1.09842 0)
(-0.450341 -1.11628 0)
(-0.60134 -1.08286 0)
(-0.718347 -0.887293 0)
(-0.77029 -0.711507 0)
(-0.751152 -0.555337 0)
(-0.683596 -0.493568 0)
(-0.613122 -0.508618 0)
(-0.56873 -0.569925 0)
(-0.563323 -0.648663 0)
(-0.597196 -0.724723 0)
(-0.668784 -0.817042 0)
(-0.784331 -0.891643 0)
(-0.958001 -1.00266 0)
(-1.21796 -1.10051 0)
(-1.60327 -1.19299 0)
(-0.0106146 -0.825697 0)
(-0.0322625 -0.832839 0)
(-0.05594 -0.840114 0)
(-0.0849524 -0.864978 0)
(-0.122377 -0.880215 0)
(-0.172755 -0.919718 0)
(-0.241792 -0.938913 0)
(-0.336046 -0.982598 0)
(-0.455199 -0.973843 0)
(-0.58005 -0.947948 0)
(-0.670829 -0.813273 0)
(-0.706827 -0.697064 0)
(-0.69738 -0.598446 0)
(-0.659709 -0.556164 0)
(-0.620827 -0.55587 0)
(-0.602947 -0.585184 0)
(-0.616918 -0.624702 0)
(-0.662589 -0.668622 0)
(-0.739097 -0.724159 0)
(-0.851213 -0.755547 0)
(-1.00686 -0.807575 0)
(-1.21525 -0.824641 0)
(-1.48575 -0.80944 0)
(-0.0130859 -0.801852 0)
(-0.0395568 -0.808273 0)
(-0.0675932 -0.812656 0)
(-0.100068 -0.830586 0)
(-0.138976 -0.837832 0)
(-0.186906 -0.863235 0)
(-0.246426 -0.866123 0)
(-0.31969 -0.886948 0)
(-0.405892 -0.863016 0)
(-0.495205 -0.84344 0)
(-0.566209 -0.755095 0)
(-0.604253 -0.680754 0)
(-0.612832 -0.615563 0)
(-0.605813 -0.583903 0)
(-0.600238 -0.572746 0)
(-0.608778 -0.577615 0)
(-0.638468 -0.588297 0)
(-0.688058 -0.609175 0)
(-0.760793 -0.633479 0)
(-0.86195 -0.631726 0)
(-0.995384 -0.640674 0)
(-1.16544 -0.610984 0)
(-1.36909 -0.546316 0)
(-0.0128704 -0.775742 0)
(-0.0400398 -0.780426 0)
(-0.0700007 -0.782165 0)
(-0.103849 -0.79437 0)
(-0.142656 -0.795888 0)
(-0.187806 -0.811572 0)
(-0.240234 -0.805211 0)
(-0.300093 -0.813997 0)
(-0.365751 -0.783266 0)
(-0.433154 -0.765607 0)
(-0.491156 -0.703196 0)
(-0.529848 -0.655462 0)
(-0.549955 -0.61196 0)
(-0.56093 -0.583466 0)
(-0.576218 -0.563351 0)
(-0.603235 -0.551196 0)
(-0.641418 -0.546411 0)
(-0.691563 -0.550722 0)
(-0.760335 -0.549595 0)
(-0.847624 -0.526084 0)
(-0.954229 -0.504919 0)
(-1.08073 -0.448523 0)
(-1.22065 -0.363295 0)
(-0.0147974 -0.747913 0)
(-0.0450585 -0.750492 0)
(-0.0767761 -0.750065 0)
(-0.111144 -0.757863 0)
(-0.149126 -0.755167 0)
(-0.191663 -0.764111 0)
(-0.239253 -0.752093 0)
(-0.291809 -0.754073 0)
(-0.346672 -0.721996 0)
(-0.399731 -0.705741 0)
(-0.444294 -0.659913 0)
(-0.477127 -0.626795 0)
(-0.502565 -0.594789 0)
(-0.525919 -0.566071 0)
(-0.552442 -0.538654 0)
(-0.584729 -0.516214 0)
(-0.623632 -0.503834 0)
(-0.672478 -0.493717 0)
(-0.734658 -0.474884 0)
(-0.808539 -0.4387 0)
(-0.894982 -0.39816 0)
(-0.992185 -0.330321 0)
(-1.09332 -0.239088 0)
(-0.0155942 -0.717348 0)
(-0.0470412 -0.718997 0)
(-0.0792867 -0.717233 0)
(-0.113458 -0.721768 0)
(-0.150256 -0.716058 0)
(-0.190214 -0.72026 0)
(-0.233095 -0.704964 0)
(-0.278169 -0.703025 0)
(-0.322319 -0.673474 0)
(-0.363675 -0.659314 0)
(-0.401745 -0.623232 0)
(-0.436238 -0.595751 0)
(-0.468371 -0.567912 0)
(-0.498974 -0.538658 0)
(-0.529994 -0.508168 0)
(-0.563632 -0.480374 0)
(-0.602519 -0.461416 0)
(-0.649162 -0.440084 0)
(-0.703563 -0.41126 0)
(-0.764086 -0.367149 0)
(-0.831016 -0.315469 0)
(-0.9015 -0.24438 0)
(-0.97026 -0.154184 0)
(-0.0150403 -0.686541 0)
(-0.0455296 -0.687518 0)
(-0.0769064 -0.68473 0)
(-0.109812 -0.686817 0)
(-0.144459 -0.679162 0)
(-0.181126 -0.680101 0)
(-0.219336 -0.663578 0)
(-0.258634 -0.659566 0)
(-0.297677 -0.633271 0)
(-0.336319 -0.619064 0)
(-0.373621 -0.587677 0)
(-0.407312 -0.562725 0)
(-0.439222 -0.536518 0)
(-0.47076 -0.507541 0)
(-0.502142 -0.476507 0)
(-0.534813 -0.445329 0)
(-0.571537 -0.420402 0)
(-0.613822 -0.39165 0)
(-0.66067 -0.35786 0)
(-0.711054 -0.309006 0)
(-0.764134 -0.252919 0)
(-0.817087 -0.182795 0)
(-0.866439 -0.0969933 0)
(-0.0145357 -0.656799 0)
(-0.0439201 -0.657051 0)
(-0.0739566 -0.65344 0)
(-0.105137 -0.653662 0)
(-0.137569 -0.644864 0)
(-0.171475 -0.643432 0)
(-0.206413 -0.62669 0)
(-0.242357 -0.620792 0)
(-0.278484 -0.596452 0)
(-0.313652 -0.581655 0)
(-0.347023 -0.55401 0)
(-0.378642 -0.530704 0)
(-0.410395 -0.504504 0)
(-0.442209 -0.475832 0)
(-0.473719 -0.444954 0)
(-0.505596 -0.411954 0)
(-0.539612 -0.382622 0)
(-0.576821 -0.349475 0)
(-0.616637 -0.312874 0)
(-0.65827 -0.261452 0)
(-0.6997 -0.205427 0)
(-0.738441 -0.138076 0)
(-0.772225 -0.0581112 0)
(-0.0141217 -0.627982 0)
(-0.0425774 -0.627706 0)
(-0.0714324 -0.623567 0)
(-0.101064 -0.622386 0)
(-0.131521 -0.612902 0)
(-0.163047 -0.609597 0)
(-0.195241 -0.593019 0)
(-0.227955 -0.585422 0)
(-0.26041 -0.562857 0)
(-0.292086 -0.548029 0)
(-0.323423 -0.52256 0)
(-0.353912 -0.49969 0)
(-0.383981 -0.473342 0)
(-0.413732 -0.445074 0)
(-0.443186 -0.414394 0)
(-0.472653 -0.380814 0)
(-0.503069 -0.348955 0)
(-0.535385 -0.313217 0)
(-0.569616 -0.274661 0)
(-0.604411 -0.222802 0)
(-0.637294 -0.169342 0)
(-0.666731 -0.105598 0)
(-0.691039 -0.0321717 0)
(-0.0135024 -0.600206 0)
(-0.0406559 -0.599567 0)
(-0.0680402 -0.595157 0)
(-0.0959269 -0.59296 0)
(-0.124286 -0.583187 0)
(-0.153282 -0.578456 0)
(-0.182557 -0.56235 0)
(-0.212031 -0.553557 0)
(-0.241496 -0.532457 0)
(-0.270744 -0.517163 0)
(-0.299731 -0.492762 0)
(-0.327948 -0.470448 0)
(-0.356029 -0.444103 0)
(-0.384058 -0.4162 0)
(-0.411808 -0.385735 0)
(-0.439192 -0.352295 0)
(-0.466699 -0.319218 0)
(-0.495087 -0.281903 0)
(-0.524308 -0.242163 0)
(-0.552675 -0.191782 0)
(-0.578337 -0.141488 0)
(-0.600579 -0.0814841 0)
(-0.617671 -0.0146555 0)
(-0.0125489 -0.574013 0)
(-0.0377762 -0.573094 0)
(-0.0631905 -0.568543 0)
(-0.0890322 -0.565552 0)
(-0.115245 -0.555725 0)
(-0.141953 -0.549909 0)
(-0.168913 -0.534351 0)
(-0.196127 -0.524555 0)
(-0.223482 -0.504325 0)
(-0.250571 -0.488644 0)
(-0.277453 -0.465099 0)
(-0.303873 -0.443167 0)
(-0.329979 -0.416893 0)
(-0.355654 -0.389401 0)
(-0.380901 -0.359237 0)
(-0.405703 -0.326309 0)
(-0.430262 -0.292841 0)
(-0.454955 -0.254897 0)
(-0.479579 -0.215019 0)
(-0.502696 -0.167153 0)
(-0.523111 -0.119783 0)
(-0.540474 -0.0633651 0)
(-0.553017 -0.0029778 0)
(-0.0117493 -0.549583 0)
(-0.0353474 -0.548434 0)
(-0.0590708 -0.543799 0)
(-0.0831045 -0.540149 0)
(-0.107378 -0.530366 0)
(-0.131979 -0.523679 0)
(-0.156729 -0.508589 0)
(-0.181569 -0.497976 0)
(-0.206354 -0.478477 0)
(-0.230853 -0.462619 0)
(-0.255165 -0.439644 0)
(-0.279082 -0.418005 0)
(-0.302812 -0.39194 0)
(-0.326285 -0.36493 0)
(-0.349361 -0.335115 0)
(-0.371882 -0.302841 0)
(-0.39389 -0.269479 0)
(-0.415435 -0.231763 0)
(-0.436211 -0.1925 0)
(-0.45519 -0.147343 0)
(-0.47162 -0.102545 0)
(-0.485127 -0.0495641 0)
(-0.494176 0.00492668 0)
(-0.0108344 -0.526878 0)
(-0.032569 -0.525563 0)
(-0.0543512 -0.52092 0)
(-0.0763102 -0.516788 0)
(-0.0983846 -0.50713 0)
(-0.120663 -0.499782 0)
(-0.143041 -0.485103 0)
(-0.165498 -0.473906 0)
(-0.188031 -0.45497 0)
(-0.210497 -0.438903 0)
(-0.232936 -0.416352 0)
(-0.255125 -0.394937 0)
(-0.277002 -0.369148 0)
(-0.298332 -0.342669 0)
(-0.319102 -0.313287 0)
(-0.339251 -0.281761 0)
(-0.358744 -0.248826 0)
(-0.377433 -0.211959 0)
(-0.394973 -0.173776 0)
(-0.410727 -0.131143 0)
(-0.42419 -0.0886898 0)
(-0.434756 -0.0392184 0)
(-0.441276 0.0102284 0)
(-0.00982663 -0.506107 0)
(-0.0295434 -0.504661 0)
(-0.0493249 -0.500036 0)
(-0.0692911 -0.495523 0)
(-0.0894001 -0.485986 0)
(-0.109723 -0.478096 0)
(-0.130168 -0.463737 0)
(-0.150709 -0.452042 0)
(-0.171274 -0.433502 0)
(-0.191648 -0.417298 0)
(-0.211777 -0.395157 0)
(-0.231498 -0.373993 0)
(-0.250925 -0.348562 0)
(-0.270012 -0.322616 0)
(-0.288677 -0.293688 0)
(-0.306695 -0.262981 0)
(-0.323952 -0.230654 0)
(-0.340214 -0.194989 0)
(-0.355144 -0.1581 0)
(-0.368335 -0.117717 0)
(-0.37945 -0.0774061 0)
(-0.387844 -0.0314447 0)
(-0.392673 0.0138571 0)
(-0.00889059 -0.48729 0)
(-0.0267186 -0.485734 0)
(-0.0445851 -0.481116 0)
(-0.0625714 -0.476289 0)
(-0.0806279 -0.466851 0)
(-0.0987963 -0.458534 0)
(-0.117 -0.444444 0)
(-0.135218 -0.432369 0)
(-0.153435 -0.414185 0)
(-0.171591 -0.397878 0)
(-0.189735 -0.376095 0)
(-0.207741 -0.355124 0)
(-0.225524 -0.330018 0)
(-0.242818 -0.304582 0)
(-0.259515 -0.276168 0)
(-0.275471 -0.246341 0)
(-0.290634 -0.214698 0)
(-0.304773 -0.180379 0)
(-0.317549 -0.144856 0)
(-0.328649 -0.106542 0)
(-0.337846 -0.0681631 0)
(-0.344564 -0.0255003 0)
(-0.34821 0.0164232 0)
(-0.00782281 -0.470489 0)
(-0.023517 -0.468837 0)
(-0.0392716 -0.464215 0)
(-0.0551709 -0.459126 0)
(-0.07119 -0.449759 0)
(-0.0873744 -0.441091 0)
(-0.103665 -0.427208 0)
(-0.120052 -0.414816 0)
(-0.13651 -0.396879 0)
(-0.152918 -0.380436 0)
(-0.169178 -0.358949 0)
(-0.185086 -0.338175 0)
(-0.200649 -0.31344 0)
(-0.215813 -0.288527 0)
(-0.230545 -0.260624 0)
(-0.244655 -0.231657 0)
(-0.258005 -0.200716 0)
(-0.270323 -0.167765 0)
(-0.281329 -0.133564 0)
(-0.290787 -0.0971695 0)
(-0.298505 -0.0605336 0)
(-0.304022 -0.0208366 0)
(-0.306935 0.0183433 0)
(-0.00681742 -0.455772 0)
(-0.0205081 -0.454015 0)
(-0.0342884 -0.449347 0)
(-0.0482344 -0.443992 0)
(-0.0623116 -0.434639 0)
(-0.0765223 -0.425656 0)
(-0.090795 -0.411918 0)
(-0.105096 -0.399256 0)
(-0.119381 -0.381533 0)
(-0.133593 -0.364999 0)
(-0.147769 -0.343787 0)
(-0.161851 -0.323188 0)
(-0.175804 -0.298753 0)
(-0.18942 -0.274281 0)
(-0.202547 -0.246863 0)
(-0.214991 -0.218723 0)
(-0.226667 -0.188491 0)
(-0.237361 -0.156858 0)
(-0.246865 -0.123854 0)
(-0.254965 -0.0892317 0)
(-0.26148 -0.0541679 0)
(-0.266059 -0.0170609 0)
(-0.268431 0.0198702 0)
(-0.00567548 -0.443215 0)
(-0.0170995 -0.441328 0)
(-0.028663 -0.436559 0)
(-0.0404492 -0.430914 0)
(-0.0524351 -0.421518 0)
(-0.0646358 -0.412228 0)
(-0.0770165 -0.398554 0)
(-0.0895499 -0.385645 0)
(-0.102187 -0.36808 0)
(-0.114846 -0.35144 0)
(-0.127457 -0.330418 0)
(-0.139843 -0.309949 0)
(-0.151952 -0.285792 0)
(-0.163707 -0.261737 0)
(-0.175086 -0.234772 0)
(-0.185939 -0.207394 0)
(-0.196139 -0.17783 0)
(-0.20547 -0.147392 0)
(-0.213748 -0.115447 0)
(-0.220762 -0.0824482 0)
(-0.226372 -0.0487691 0)
(-0.230315 -0.0139004 0)
(-0.232397 0.0211765 0)
(-0.00460557 -0.432881 0)
(-0.0138909 -0.430846 0)
(-0.0233255 -0.425935 0)
(-0.0329893 -0.419978 0)
(-0.0428806 -0.410464 0)
(-0.0530313 -0.400815 0)
(-0.0634208 -0.387079 0)
(-0.0740201 -0.373867 0)
(-0.0847658 -0.356353 0)
(-0.0955529 -0.339598 0)
(-0.106342 -0.318739 0)
(-0.11705 -0.298412 0)
(-0.127651 -0.2745 0)
(-0.138029 -0.250781 0)
(-0.148077 -0.22419 0)
(-0.157612 -0.197482 0)
(-0.166527 -0.168527 0)
(-0.174652 -0.13915 0)
(-0.181852 -0.108133 0)
(-0.18795 -0.0765862 0)
(-0.192818 -0.0441047 0)
(-0.196251 -0.0111584 0)
(-0.19811 0.0223862 0)
(-0.00342352 -0.424811 0)
(-0.0103416 -0.42263 0)
(-0.0174021 -0.417571 0)
(-0.0246832 -0.41131 0)
(-0.0322173 -0.401617 0)
(-0.0400803 -0.391555 0)
(-0.0483146 -0.377619 0)
(-0.0569532 -0.36399 0)
(-0.0659892 -0.346346 0)
(-0.0753582 -0.329344 0)
(-0.0849547 -0.308502 0)
(-0.0945585 -0.288231 0)
(-0.103997 -0.264538 0)
(-0.113089 -0.241171 0)
(-0.121803 -0.21494 0)
(-0.130071 -0.188836 0)
(-0.137819 -0.160424 0)
(-0.1449 -0.131971 0)
(-0.151193 -0.101752 0)
(-0.156536 -0.0714706 0)
(-0.160836 -0.0400091 0)
(-0.163942 -0.00868925 0)
(-0.165749 0.0235933 0)
(-0.0024464 -0.418911 0)
(-0.00735402 -0.416644 0)
(-0.0122951 -0.411495 0)
(-0.0173646 -0.404973 0)
(-0.0226492 -0.39507 0)
(-0.0282666 -0.384553 0)
(-0.0342913 -0.370289 0)
(-0.0407824 -0.356112 0)
(-0.0477586 -0.338129 0)
(-0.0551644 -0.3207 0)
(-0.0629238 -0.2997 0)
(-0.0709153 -0.279346 0)
(-0.0790568 -0.255752 0)
(-0.0871578 -0.232675 0)
(-0.0950225 -0.206773 0)
(-0.102457 -0.181221 0)
(-0.109368 -0.153306 0)
(-0.115643 -0.125665 0)
(-0.121213 -0.0961365 0)
(-0.12597 -0.0669372 0)
(-0.129842 -0.036333 0)
(-0.132695 -0.00638204 0)
(-0.134443 0.0248514 0)
(-0.00150691 -0.414938 0)
(-0.00454371 -0.412632 0)
(-0.00763487 -0.407433 0)
(-0.0108616 -0.400695 0)
(-0.0142786 -0.3906 0)
(-0.0179522 -0.379683 0)
(-0.0219243 -0.365109 0)
(-0.0262518 -0.350417 0)
(-0.0309998 -0.332039 0)
(-0.0362375 -0.31408 0)
(-0.0420365 -0.29269 0)
(-0.0483453 -0.271981 0)
(-0.0550384 -0.248205 0)
(-0.0619123 -0.225168 0)
(-0.0688046 -0.199445 0)
(-0.0754862 -0.174359 0)
(-0.0817558 -0.14692 0)
(-0.087425 -0.120047 0)
(-0.0923937 -0.0911631 0)
(-0.0966058 -0.0628974 0)
(-0.100069 -0.0330036 0)
(-0.102739 -0.00416505 0)
(-0.104562 0.0262173 0)
(-0.000920018 -0.412497 0)
(-0.00277975 -0.410149 0)
(-0.00468822 -0.404889 0)