/*--------------------------------*- C++ -*----------------------------------*\
| =========                 |                                                 |
| \\      /  F ield         | OpenFOAM: The Open Source CFD Toolbox           |
|  \\    /   O peration     | Version:  2012                                  |
|   \\  /    A nd           | Website:  www.openfoam.com                      |
|    \\/     M anipulation  |                                                 |
\*---------------------------------------------------------------------------*/
FoamFile
{
    version     2.0;
    format      ascii;
    class       volScalarField;
    location    "0.42";
    object      p_rgh;
}
// * * * * * * * * * * * * * * * * * * * * * * * * * * * * * * * * * * * * * //

dimensions      [1 -1 -2 0 0 0 0];


internalField   nonuniform List<scalar> 
2268
(
102191
102191
102192
102193
102195
102199
102203
102209
102218
102227
102245
102259
102287
102310
102349
102385
102437
102484
102549
102601
102668
102709
102745
102190
102191
102191
102193
102195
102198
102202
102209
102217
102226
102244
102258
102286
102309
102348
102384
102437
102484
102550
102602
102670
102711
102747
102189
102189
102190
102191
102193
102196
102200
102207
102215
102224
102241
102255
102282
102306
102345
102380
102432
102479
102545
102598
102668
102713
102753
102187
102187
102188
102189
102191
102194
102198
102204
102213
102222
102239
102252
102280
102303
102342
102377
102430
102478
102546
102601
102673
102721
102758
102184
102184
102185
102186
102188
102191
102194
102200
102208
102217
102233
102247
102273
102295
102335
102369
102421
102468
102536
102591
102668
102716
102771
102181
102181
102182
102183
102185
102187
102191
102197
102204
102213
102229
102242
102269
102291
102330
102364
102417
102466
102535
102595
102675
102735
102783
102176
102176
102177
102178
102179
102182
102185
102190
102197
102206
102220
102233
102259
102279
102318
102351
102404
102451
102522
102579
102664
102718
102794
102172
102172
102173
102174
102175
102177
102181
102185
102192
102201
102214
102227
102252
102273
102311
102344
102397
102444
102517
102579
102670
102744
102818
102958
102958
102959
102959
102959
102959
102959
102959
102959
102959
102960
102959
102960
102959
102959
102957
102960
102961
102964
102958
102958
102959
102958
102959
102959
102959
102959
102959
102959
102960
102959
102960
102959
102959
102957
102960
102961
102963
102958
102958
102959
102958
102959
102959
102959
102959
102959
102959
102960
102959
102960
102959
102959
102957
102959
102960
102962
102958
102958
102959
102958
102959
102959
102959
102959
102959
102959
102960
102959
102960
102958
102958
102956
102958
102960
102962
102958
102958
102959
102958
102959
102959
102959
102959
102959
102959
102959
102959
102959
102958
102958
102955
102958
102959
102961
102958
102958
102958
102958
102959
102958
102959
102959
102959
102959
102959
102959
102959
102957
102958
102955
102958
102958
102960
102958
102957
102958
102958
102959
102958
102959
102958
102959
102958
102959
102958
102959
102957
102958
102955
102957
102957
102960
102958
102957
102958
102958
102959
102958
102959
102958
102959
102958
102959
102958
102959
102957
102958
102955
102957
102957
102960
102162
102162
102163
102163
102164
102166
102168
102172
102178
102185
102196
102209
102230
102248
102284
102314
102369
102414
102492
102545
102650
102689
102811
102146
102145
102146
102146
102146
102147
102150
102152
102158
102164
102175
102187
102208
102228
102261
102291
102340
102383
102459
102524
102633
102725
102872
101855
101851
101852
101849
101846
101845
101849
101848
101860
101872
101893
101922
101966
102020
102092
102174
102268
102325
102397
102463
102543
102631
102764
101344
101343
101343
101342
101341
101341
101342
101342
101346
101350
101358
101371
101391
101421
101467
101535
101659
101877
102177
102389
102478
102590
102709
101333
101333
101333
101333
101333
101333
101333
101333
101333
101333
101333
101333
101334
101334
101334
101334
101336
101357
101434
101587
101877
102287
102550
101332
101332
101332
101332
101333
101333
101333
101333
101333
101333
101333
101333
101334
101334
101334
101334
101334
101335
101335
101339
101358
101465
101711
101332
101332
101332
101332
101333
101333
101333
101333
101333
101333
101333
101333
101333
101334
101334
101334
101334
101335
101335
101335
101335
101337
101348
101332
101332
101332
101332
101332
101332
101333
101333
101333
101333
101333
101333
101333
101334
101334
101334
101334
101334
101335
101335
101335
101336
101336
101332
101332
101332
101332
101332
101332
101333
101333
101333
101333
101333
101333
101333
101333
101334
101334
101334
101334
101335
101335
101335
101335
101336
101332
101332
101332
101332
101332
101332
101332
101332
101333
101333
101333
101333
101333
101333
101334
101334
101334
101334
101334
101335
101335
101335
101336
101332
101332
101332
101332
101332
101332
101332
101332
101332
101333
101333
101333
101333
101333
101333
101334
101334
101334
101334
101335
101335
101335
101336
101332
101332
101332
101332
101332
101332
101332
101332
101332
101332
101333
101333
101333
101333
101333
101333
101334
101334
101334
101334
101335
101335
101335
101332
101332
101332
101332
101332
101332
101332
101332
101332
101332
101332
101333
101333
101333
101333
101333
101333
101334
101334
101334
101334
101335
101335
101332
101332
101332
101332
101332
101332
101332
101332
101332
101332
101332
101332
101333
101333
101333
101333
101333
101333
101334
101334
101334
101334
101335
101332
101332
101332
101332
101332
101332
101332
101332
101332
101332
101332
101332
101332
101332
101333
101333
101333
101333
101333
101334
101334
101334
101334
101331
101331
101331
101331
101331
101331
101332
101332
101332
101332
101332
101332
101332
101332
101332
101333
101333
101333
101333
101333
101334
101334
101334
101331
101331
101331
101331
101331
101331
101331
101331
101332
101332
101332
101332
101332
101332
101332
101332
101333
101333
101333
101333
101333
101334
101334
101331
101331
101331
101331
101331
101331
101331
101331
101331
101331
101331
101332
101332
101332
101332
101332
101332
101332
101333
101333
101333
101333
101333
101331
101331
101331
101331
101331
101331
101331
101331
101331
101331
101331
101331
101331
101332
101332
101332
101332
101332
101332
101332
101333
101333
101333
101331
101331
101331
101331
101331
101331
101331
101331
101331
101331
101331
101331
101331
101331
101331
101332
101332
101332
101332
101332
101332
101332
101333
101330
101330
101330
101330
101330
101331
101331
101331
101331
101331
101331
101331
101331
101331
101331
101331
101331
101331
101332
101332
101332
101332
101332
101330
101330
101330
101330
101330
101330
101330
101330
101330
101330
101331
101331
101331
101331
101331
101331
101331
101331
101331
101331
101331
101332
101332
101330
101330
101330
101330
101330
101330
101330
101330
101330
101330
101330
101330
101330
101330
101331
101331
101331
101331
101331
101331
101331
101331
101331
101330
101330
101330
101330
101330
101330
101330
101330
101330
101330
101330
101330
101330
101330
101330
101330
101330
101330
101331
101331
101331
101331
101331
101330
101330
101330
101330
101330
101330
101330
101330
101330
101330
101330
101330
101330
101330
101330
101330
101330
101330
101330
101330
101330
101330
101330
101329
101329
101329
101329
101329
101329
101329
101329
101329
101329
101330
101330
101330
101330
101330
101330
101330
101330
101330
101330
101330
101330
101330
101329
101329
101329
101329
101329
101329
101329
101329
101329
101329
101329
101329
101329
101329
101329
101329
101329
101329
101329
101330
101330
101330
101329
101329
101329
101329
101329
101329
101329
101329
101329
101329
101329
101329
101329
101329
101329
101329
101329
101329
101329
101329
101329
101329
101329
101329
101329
101329
101329
101329
101329
101329
101329
101329
101329
101329
101329
101329
101329
101329
101329
101329
101329
101329
101329
101329
101329
101329
101329
101328
101328
101328
101328
101328
101328
101328
101328
101328
101328
101328
101328
101328
101328
101329
101329
101329
101329
101329
101329
101329
101328
101328
101328
101328
101328
101328
101328
101328
101328
101328
101328
101328
101328
101328
101328
101328
101328
101328
101328
101328
101328
101328
101328
101328
101328
101328
101328
101328
101328
101328
101328
101328
101328
101328
101328
101328
101328
101328
101328
101328
101328
101328
101328
101328
101328
101328
101328
101328
101328
101328
101328
101328
101328
101328
101328
101328
101328
101328
101328
101328
101328
101328
101328
101328
101328
101328
101328
101328
101328
101328
101328
101327
101327
101327
101327
101327
101327
101327
101327
101327
101327
101327
101327
101327
101327
101327
101327
101327
101327
101327
101327
101327
101327
101327
101327
101327
101327
101327
101327
101327
101327
101327
101327
101327
101327
101327
101327
101327
101327
101327
101327
101327
101327
101327
101327
101327
101327
101327
101327
101327
101327
101327
101327
101327
101327
101327
101327
101327
101327
101327
101327
101327
101327
101327
101327
101327
101327
101327
101327
101327
101326
101326
101326
101326
101326
101326
101326
101326
101326
101326
101326
101327
101327
101327
101327
101327
101327
101327
101326
101326
101326
101326
101326
101326
101326
101326
101326
101326
101326
101326
101326
101326
101326
101326
101326
101326
101326
101326
101326
101326
101326
101326
101326
101326
101326
101326
101326
101326
101326
101326
101326
101326
101326
101326
101326
101326
101326
101326
101326
101326
101326
101326
101326
101326
101326
101326
101326
101326
101326
101326
101326
101326
101326
101326
101326
101326
101326
101326
101326
101326
101326
101326
101326
101326
101326
101326
101326
101326
101326
101326
101326
101326
101325
101325
101325
101325
101325
101325
101325
101325
101325
101325
101325
101325
101325
101325
101325
101325
101325
101325
101325
101325
101325
101325
101325
101325
101325
101325
101325
101325
101325
101325
101325
101325
101325
101325
101325
101325
101325
101325
101325
101325
101325
101325
101325
101325
101325
101325
102708
103095
103188
103229
102971
103064
103135
103237
102843
102947
103025
103141
102787
102857
102931
103010
102644
102713
102783
102860
101934
102125
102393
102620
101364
101392
101446
101522
101336
101337
101337
101339
101336
101336
101337
101337
101336
101336
101336
101337
101336
101336
101336
101336
101336
101336
101336
101336
101335
101335
101336
101336
101335
101335
101335
101336
101335
101335
101335
101335
101334
101334
101335
101335
101334
101334
101334
101334
101334
101334
101334
101334
101333
101333
101333
101333
101333
101333
101333
101333
101332
101332
101332
101332
101332
101332
101332
101332
101331
101331
101331
101331
101331
101331
101331
101331
101330
101330
101330
101330
101330
101330
101330
101330
101329
101329
101329
101329
101329
101329
101329
101329
101329
101329
101329
101328
101328
101328
101328
101328
101328
101328
101328
101328
101328
101328
101328
101328
101328
101327
101327
101327
101327
101327
101327
101327
101327
101327
101327
101327
101327
101327
101327
101327
101326
101326
101326
101326
101326
101326
101326
101326
101326
101326
101326
101326
101326
101326
101326
101326
101325
101325
101325
101325
101325
101325
101325
101325
102977
102960
102959
102958
102958
102958
102958
102958
102959
102958
102959
102958
102959
102957
102958
102955
102957
102956
102970
103473
103287
102987
102958
102958
102957
102958
102958
102958
102958
102958
102957
102958
102957
102958
102956
102958
102956
103235
103275
103485
103214
102967
102957
102957
102958
102957
102958
102957
102958
102957
102958
102956
102958
102956
102958
102956
103483
103172
103357
103561
103151
102956
102956
102957
102956
102957
102956
102957
102956
102957
102956
102958
102956
102958
102956
103566
102982
103185
103415
103617
103356
102974
102956
102956
102956
102956
102957
102956
102957
102955
102957
102955
102958
102956
103638
102770
102983
103209
103442
103629
103771
103480
103233
103166
103125
103080
103038
102995
102955
102957
102955
102958
102965
103900
101772
102365
102825
103085
103321
103494
103674
103782
103816
103833
103839
103829
103815
103740
103508
103218
103141
103506
104332
101343
101422
101646
102084
102591
102934
103160
103280
103346
103400
103457
103531
103620
103758
103886
104031
104103
104417
104835
101337
101338
101343
101374
101483
101677
101951
102163
102239
102293
102374
102508
102730
103065
103434
103722
104096
104380
104656
101337
101338
101338
101339
101340
101344
101352
101363
101373
101384
101405
101447
101533
101707
102093
103013
103766
104170
104391
101337
101337
101338
101339
101339
101340
101341
101341
101343
101343
101345
101346
101349
101358
101357
101810
103191
103905
103904
101337
101337
101338
101338
101339
101340
101341
101341
101342
101343
101344
101345
101347
101349
101354
101394
102555
103702
103628
101336
101337
101337
101338
101339
101339
101340
101341
101342
101342
101344
101344
101347
101347
101356
101542
102913
103708
103546
101336
101336
101337
101337
101338
101339
101339
101340
101341
101342
101343
101343
101345
101348
101414
102157
103434
103692
103369
101335
101336
101336
101337
101338
101338
101339
101339
101340
101341
101342
101341
101344
101367
101892
103055
103587
103626
102520
101335
101335
101336
101336
101337
101337
101338
101338
101339
101339
101340
101339
101340
101465
102732
103560
103674
103125
102230
101335
101335
101335
101336
101336
101337
101337
101338
101338
101338
101338
101337
101333
101393
102246
103255
103708
103232
102226
101334
101334
101335
101335
101336
101336
101336
101337
101337
101337
101336
101335
101332
101336
101345
101862
103193
103342
102583
101334
101334
101334
101334
101335
101335
101335
101335
101336
101336
101335
101334
101333
101331
101332
101373
102295
102598
102134
101333
101333
101334
101334
101334
101334
101334
101334
101335
101334
101334
101334
101332
101332
101333
101341
101694
102420
101835
101333
101333
101333
101333
101333
101333
101333
101333
101333
101333
101333
101333
101333
101333
101333
101333
101335
102465
101838
101332
101332
101332
101332
101332
101332
101332
101332
101332
101332
101332
101332
101332
101333
101333
101334
101334
102511
101859
101331
101331
101331
101331
101331
101331
101331
101331
101331
101331
101331
101332
101332
101333
101334
101334
101334
102163
102001
101331
101331
101331
101330
101330
101330
101330
101330
101330
101330
101330
101330
101332
101332
101333
101334
101334
101405
102372
101330
101330
101330
101330
101329
101329
101329
101328
101328
101328
101329
101329
101331
101332
101333
101333
101335
101333
102406
101330
101329
101329
101329
101328
101328
101327
101327
101327
101327
101328
101328
101330
101331
101333
101333
101335
101332
102439
101329
101329
101328
101328
101327
101327
101326
101325
101325
101325
101326
101327
101330
101331
101333
101333
101335
101333
102477
101329
101328
101328
101327
101327
101326
101325
101323
101323
101323
101325
101327
101329
101330
101333
101332
101335
101332
102377
101328
101328
101327
101327
101326
101325
101324
101322
101322
101322
101325
101326
101329
101330
101333
101332
101335
101332
101514
101328
101328
101327
101327
101326
101325
101324
101322
101322
101322
101325
101326
101329
101329
101332
101332
101334
101332
101457
101328
101327
101327
101326
101326
101325
101324
101323
101323
101323
101325
101326
101328
101329
101332
101332
101333
101331
102320
101328
101327
101327
101327
101326
101326
101325
101324
101324
101324
101325
101326
101328
101327
101331
101330
101334
101370
102694
101327
101327
101327
101327
101326
101326
101326
101325
101325
101325
101326
101326
101327
101327
101328
101327
101411
101477
102785
101327
101327
101327
101327
101327
101327
101327
101326
101326
101326
101326
101326
101327
101325
101538
102924
102920
101648
103037
101327
101327
101327
101327
101327
101327
101327
101327
101326
101326
101326
101326
101328
101327
102463
103606
103688
102644
102065
101327
101327
101327
101327
101327
101327
101327
101327
101326
101326
101325
101325
101326
101326
101779
103345
103673
102543
101510
101326
101326
101326
101326
101326
101326
101327
101326
101326
101326
101325
101325
101327
101329
101353
101675
101797
101645
101378
101326
101326
101326
101326
101326
101326
101326
101326
101326
101325
101325
101325
101326
101326
101326
101326
101327
101330
101348
101326
101326
101326
101326
101325
101325
101326
101326
101326
101326
101326
101326
101326
101326
101326
101325
101326
101325
101332
101326
101326
101326
101326
101325
101325
101325
101326
101326
101326
101326
101326
101326
101325
101325
101325
101326
101325
101326
101325
101325
101325
101325
101325
101325
101325
101326
101326
101326
101326
101326
101326
101326
101326
101325
101326
101325
101326
101325
101325
101325
101325
101325
101325
101325
101325
101325
101325
101325
101325
101325
101325
101325
101325
101325
101325
101325
)
;

boundaryField
{
    leftWall
    {
        type            zeroGradient;
    }
    rightWall
    {
        type            zeroGradient;
    }
    lowerWall
    {
        type            zeroGradient;
    }
    atmosphere
    {
        type            fixedValue;
        value           uniform 101325;
    }
    defaultFaces
    {
        type            empty;
    }
}


// ************************************************************************* //
