/*--------------------------------*- C++ -*----------------------------------*\
| =========                 |                                                 |
| \\      /  F ield         | OpenFOAM: The Open Source CFD Toolbox           |
|  \\    /   O peration     | Version:  2012                                  |
|   \\  /    A nd           | Website:  www.openfoam.com                      |
|    \\/     M anipulation  |                                                 |
\*---------------------------------------------------------------------------*/
FoamFile
{
    version     2.0;
    format      ascii;
    class       volScalarField;
    location    "0.42";
    object      rho;
}
// * * * * * * * * * * * * * * * * * * * * * * * * * * * * * * * * * * * * * //

dimensions      [1 -3 0 0 0 0 0];


internalField   nonuniform List<scalar> 
2268
(
1000.05
1000.05
1000.05
1000.05
1000.05
1000.05
1000.05
1000.05
1000.05
1000.05
1000.05
1000.05
1000.05
1000.05
1000.05
1000.05
1000.05
1000.05
1000.05
1000.05
1000.05
1000.05
999.526
1000.05
1000.05
1000.05
1000.05
1000.05
1000.05
1000.05
1000.05
1000.05
1000.05
1000.05
1000.05
1000.05
1000.05
1000.05
1000.05
1000.05
1000.05
1000.05
1000.05
1000.05
1000.05
999.526
1000.05
1000.05
1000.05
1000.05
1000.05
1000.05
1000.05
1000.05
1000.05
1000.05
1000.05
1000.05
1000.05
1000.05
1000.05
1000.05
1000.05
1000.05
1000.05
1000.05
1000.05
1000.05
999.914
1000.05
1000.05
1000.05
1000.05
1000.05
1000.05
1000.05
1000.05
1000.05
1000.05
1000.05
1000.05
1000.05
1000.05
1000.05
1000.05
1000.05
1000.05
1000.05
1000.05
1000.05
1000.05
1000.05
1000.05
1000.05
1000.05
1000.05
1000.05
1000.05
1000.05
1000.05
1000.05
1000.05
1000.05
1000.05
1000.05
1000.05
1000.05
1000.05
1000.05
1000.05
1000.05
1000.05
1000.05
1000.05
1000.05
1000.05
1000.05
1000.05
1000.05
1000.05
1000.05
1000.05
1000.05
1000.05
1000.05
1000.05
1000.05
1000.05
1000.05
1000.05
1000.05
1000.05
1000.05
1000.05
1000.05
1000.05
1000.05
999.362
1000.05
1000.05
1000.05
1000.05
1000.05
1000.05
1000.05
1000.05
1000.05
1000.05
1000.05
1000.05
1000.05
1000.05
1000.05
1000.05
1000.05
1000.05
1000.05
1000.05
1000.05
1000.05
999.048
1000.05
1000.05
1000.05
1000.05
1000.05
1000.05
1000.05
1000.05
1000.05
1000.05
1000.05
1000.05
1000.05
1000.05
1000.05
1000.05
1000.05
1000.05
1000.05
1000.05
1000.05
1000.05
999.048
1.30808
1.30808
1.30808
1.30808
1.30808
1.30808
1.30808
1.30808
1.30808
1.30808
1.30809
1.30808
1.30809
1.3081
1.30821
1.30831
1.3084
1.30844
1.3085
1.30808
1.30808
1.30808
1.30808
1.30808
1.30808
1.30808
1.30808
1.30808
1.30808
1.30809
1.30808
1.3081
1.30815
1.30833
1.30841
1.30847
1.30854
1.30883
1.30808
1.30807
1.30808
1.30807
1.30808
1.30808
1.30808
1.30808
1.30808
1.30808
1.30808
1.30808
1.30811
1.30821
1.30838
1.30839
1.30838
1.30849
1.30899
1.30808
1.30807
1.30808
1.30807
1.30808
1.30807
1.30808
1.30807
1.30808
1.30807
1.30808
1.30808
1.30811
1.30823
1.30836
1.30831
1.3082
1.30837
1.30891
1.30807
1.30807
1.30807
1.30807
1.30808
1.30807
1.30808
1.30807
1.30808
1.30807
1.30808
1.30807
1.30811
1.30822
1.30832
1.30817
1.30824
1.30944
1.30872
1.30807
1.30807
1.30807
1.30807
1.30807
1.30807
1.30808
1.30807
1.30808
1.30807
1.30808
1.30807
1.3081
1.30819
1.30827
1.30802
1.30804
1.30968
1.30871
1.30807
1.3081
1.30808
1.30807
1.30807
1.30807
1.30807
1.30807
1.30808
1.30807
1.30808
1.30806
1.30809
1.30815
1.30821
1.30794
1.30754
1.30964
1.30923
1.30813
1.30993
1.30878
1.30821
1.30807
1.30807
1.30807
1.30807
1.30807
1.30807
1.30807
1.30806
1.30807
1.3081
1.30816
1.30795
1.30746
1.30859
1.32281
1000.05
1000.05
1000.05
1000.05
1000.05
1000.05
1000.05
1000.05
1000.05
1000.05
1000.05
1000.05
1000.05
1000.05
1000.05
1000.05
1000.05
1000.05
1000.05
1000.05
1000.05
1000.05
999.049
993.407
993.116
993.253
993.119
992.949
992.898
993.141
993.109
993.788
994.348
995.305
996.424
997.655
998.805
999.604
1000.02
1000.05
1000.05
1000.05
1000.05
1000.05
1000.05
999.304
616.028
610.93
612.571
609.517
606.258
604.993
608.906
607.961
621.188
633.439
656.15
687.44
732.742
788.221
855.774
927.88
994.473
1000.05
1000.05
1000.05
1000.05
1000.05
999.998
13.6852
12.5167
12.4238
11.1779
10.3192
9.8023
10.7378
10.4845
14.5641
18.8256
27.1698
39.8794
60.8255
90.4962
138.526
208.08
334.865
551.781
835.714
998.533
1000.05
1000.05
1000.05
1.29332
1.29332
1.29332
1.29332
1.29332
1.29333
1.29333
1.29333
1.29334
1.29334
1.29334
1.29334
1.29335
1.29335
1.29337
1.29339
3.10565
21.5667
92.0427
231.217
494.507
842.087
1000.05
1.29328
1.29328
1.29328
1.29328
1.29328
1.29328
1.29328
1.29328
1.29329
1.29328
1.29332
1.29361
1.29424
1.29406
1.29358
1.2933
1.2933
1.3027
1.71998
4.75219
19.4136
106.902
305.097
1.29327
1.29327
1.29327
1.29327
1.29327
1.29327
1.29327
1.29327
1.29327
1.29327
1.29378
1.29551
1.29573
1.29573
1.29395
1.29329
1.29328
1.29329
1.29332
1.2943
1.33453
2.27882
10.1225
1.29326
1.29326
1.29326
1.29326
1.29326
1.29326
1.29326
1.29326
1.29327
1.29327
1.29434
1.29563
1.29563
1.29421
1.29337
1.29331
1.29329
1.29328
1.29337
1.29382
1.29438
1.29561
1.30356
1.29326
1.29326
1.29326
1.29326
1.29326
1.29326
1.29326
1.29326
1.29326
1.29327
1.29348
1.29381
1.29329
1.29327
1.29328
1.29333
1.29333
1.2933
1.29328
1.29747
1.30108
1.30109
1.30101
1.29326
1.29326
1.29326
1.29326
1.29326
1.29326
1.29326
1.29326
1.29326
1.29329
1.29326
1.29327
1.29327
1.29327
1.29327
1.29331
1.29333
1.29331
1.29328
1.29328
1.29328
1.29692
1.30658
1.29325
1.29326
1.29326
1.29326
1.29326
1.29326
1.29326
1.29326
1.29326
1.29326
1.29326
1.29326
1.29326
1.29327
1.29327
1.29327
1.29328
1.29328
1.29328
1.29328
1.29328
1.29328
1.29329
1.29325
1.29325
1.29325
1.29325
1.29325
1.29325
1.29325
1.29326
1.29326
1.29326
1.29326
1.29326
1.29326
1.29326
1.29327
1.29327
1.29327
1.29327
1.29327
1.29328
1.29328
1.29328
1.29328
1.29325
1.29325
1.29325
1.29325
1.29325
1.29325
1.29325
1.29325
1.29325
1.29325
1.29326
1.29326
1.29326
1.29326
1.29326
1.29326
1.29327
1.29327
1.29327
1.29327
1.29327
1.29328
1.29328
1.29325
1.29325
1.29325
1.29325
1.29325
1.29325
1.29325
1.29325
1.29325
1.29325
1.29325
1.29325
1.29326
1.29326
1.29326
1.29326
1.29326
1.29326
1.29327
1.29327
1.29327
1.29327
1.29328
1.29324
1.29324
1.29324
1.29324
1.29324
1.29324
1.29325
1.29325
1.29325
1.29325
1.29325
1.29325
1.29325
1.29325
1.29325
1.29326
1.29326
1.29326
1.29326
1.29326
1.29327
1.29327
1.29327
1.29324
1.29324
1.29324
1.29324
1.29324
1.29324
1.29324
1.29324
1.29324
1.29324
1.29325
1.29325
1.29325
1.29325
1.29325
1.29325
1.29325
1.29326
1.29326
1.29326
1.29326
1.29326
1.29327
1.29324
1.29324
1.29324
1.29324
1.29324
1.29324
1.29324
1.29324
1.29324
1.29324
1.29324
1.29324
1.29324
1.29324
1.29325
1.29325
1.29325
1.29325
1.29325
1.29325
1.29326
1.29326
1.29326
1.29323
1.29323
1.29323
1.29323
1.29323
1.29323
1.29323
1.29323
1.29324
1.29324
1.29324
1.29324
1.29324
1.29324
1.29324
1.29324
1.29325
1.29325
1.29325
1.29325
1.29325
1.29325
1.29326
1.29323
1.29323
1.29323
1.29323
1.29323
1.29323
1.29323
1.29323
1.29323
1.29323
1.29323
1.29323
1.29324
1.29324
1.29324
1.29324
1.29324
1.29324
1.29324
1.29325
1.29325
1.29325
1.29325
1.29322
1.29322
1.29322
1.29322
1.29322
1.29323
1.29323
1.29323
1.29323
1.29323
1.29323
1.29323
1.29323
1.29323
1.29323
1.29323
1.29324
1.29324
1.29324
1.29324
1.29324
1.29324
1.29324
1.29322
1.29322
1.29322
1.29322
1.29322
1.29322
1.29322
1.29322
1.29322
1.29322
1.29322
1.29323
1.29323
1.29323
1.29323
1.29323
1.29323
1.29323
1.29323
1.29324
1.29324
1.29324
1.29324
1.29321
1.29321
1.29321
1.29321
1.29321
1.29321
1.29322
1.29322
1.29322
1.29322
1.29322
1.29322
1.29322
1.29322
1.29322
1.29323
1.29323
1.29323
1.29323
1.29323
1.29323
1.29323
1.29323
1.29321
1.29321
1.29321
1.29321
1.29321
1.29321
1.29321
1.29321
1.29321
1.29321
1.29321
1.29321
1.29322
1.29322
1.29322
1.29322
1.29322
1.29322
1.29322
1.29322
1.29323
1.29323
1.29323
1.2932
1.2932
1.2932
1.2932
1.2932
1.2932
1.2932
1.2932
1.2932
1.2932
1.29321
1.29321
1.29321
1.29321
1.29321
1.29321
1.29321
1.29322
1.29322
1.29322
1.29322
1.29322
1.29322
1.29319
1.29319
1.29319
1.29319
1.29319
1.29319
1.29319
1.29319
1.29319
1.2932
1.2932
1.2932
1.2932
1.2932
1.2932
1.29321
1.29321
1.29321
1.29321
1.29321
1.29321
1.29321
1.29321
1.29317
1.29317
1.29317
1.29317
1.29317
1.29318
1.29318
1.29318
1.29318
1.29318
1.29319
1.29319
1.29319
1.29319
1.29319
1.2932
1.2932
1.2932
1.2932
1.29321
1.29321
1.29321
1.29321
1.29315
1.29315
1.29315
1.29315
1.29316
1.29316
1.29316
1.29316
1.29316
1.29317
1.29317
1.29317
1.29317
1.29318
1.29318
1.29319
1.29319
1.29319
1.29319
1.2932
1.2932
1.2932
1.2932
1.29314
1.29314
1.29314
1.29314
1.29314
1.29314
1.29314
1.29314
1.29314
1.29315
1.29315
1.29315
1.29316
1.29316
1.29316
1.29317
1.29317
1.29318
1.29318
1.29319
1.29319
1.2932
1.2932
1.29312
1.29312
1.29312
1.29312
1.29312
1.29312
1.29313
1.29313
1.29313
1.29313
1.29313
1.29313
1.29314
1.29314
1.29314
1.29315
1.29316
1.29316
1.29317
1.29318
1.29318
1.29319
1.29319
1.29311
1.29311
1.29311
1.29311
1.29311
1.29311
1.29311
1.29311
1.29311
1.29312
1.29312
1.29312
1.29312
1.29313
1.29313
1.29313
1.29314
1.29315
1.29315
1.29316
1.29317
1.29318
1.29318
1.2931
1.2931
1.2931
1.2931
1.2931
1.2931
1.2931
1.2931
1.2931
1.2931
1.29311
1.29311
1.29311
1.29311
1.29311
1.29312
1.29312
1.29313
1.29314
1.29315
1.29316
1.29317
1.29318
1.29309
1.29309
1.29309
1.29309
1.29309
1.29309
1.29309
1.29309
1.29309
1.29309
1.2931
1.2931
1.2931
1.2931
1.2931
1.29311
1.29311
1.29312
1.29312
1.29313
1.29315
1.29316
1.29317
1.29308
1.29308
1.29308
1.29308
1.29308
1.29309
1.29309
1.29309
1.29309
1.29309
1.29309
1.29309
1.29309
1.29309
1.29309
1.2931
1.2931
1.29311
1.29311
1.29312
1.29313
1.29315
1.29316
1.29308
1.29308
1.29308
1.29308
1.29308
1.29308
1.29308
1.29308
1.29308
1.29308
1.29308
1.29308
1.29308
1.29309
1.29309
1.29309
1.29309
1.2931
1.2931
1.29311
1.29312
1.29314
1.29315
1.29307
1.29307
1.29307
1.29307
1.29307
1.29307
1.29307
1.29308
1.29308
1.29308
1.29308
1.29308
1.29308
1.29308
1.29308
1.29308
1.29309
1.29309
1.2931
1.2931
1.29311
1.29312
1.29314
1.29307
1.29307
1.29307
1.29307
1.29307
1.29307
1.29307
1.29307
1.29307
1.29307
1.29307
1.29307
1.29307
1.29308
1.29308
1.29308
1.29308
1.29309
1.29309
1.2931
1.2931
1.29312
1.29313
1.29307
1.29307
1.29307
1.29307
1.29307
1.29307
1.29307
1.29307
1.29307
1.29307
1.29307
1.29307
1.29307
1.29307
1.29307
1.29308
1.29308
1.29308
1.29309
1.29309
1.2931
1.29311
1.29312
1.29307
1.29307
1.29307
1.29307
1.29307
1.29307
1.29307
1.29307
1.29307
1.29307
1.29307
1.29307
1.29308
1.29308
1.29308
1.29308
1.29308
1.29308
1.29309
1.29309
1.2931
1.29311
1.29312
1.29308
1.29308
1.29308
1.29308
1.29308
1.29308
1.29308
1.29308
1.29308
1.29308
1.29308
1.29308
1.29308
1.29308
1.29308
1.29308
1.29308
1.29309
1.29309
1.29309
1.2931
1.2931
1.29311
1.29308
1.29308
1.29308
1.29308
1.29308
1.29308
1.29308
1.29308
1.29308
1.29308
1.29308
1.29308
1.29308
1.29308
1.29308
1.29308
1.29308
1.29309
1.29309
1.2931
1.2931
1.29311
1.29312
1.29307
1.29307
1.29307
1.29307
1.29307
1.29307
1.29307
1.29307
1.29307
1.29307
1.29307
1.29307
1.29307
1.29307
1.29308
1.29308
1.29308
1.29308
1.29309
1.29309
1.2931
1.29311
1.29312
1.29307
1.29307
1.29307
1.29307
1.29307
1.29307
1.29307
1.29307
1.29307
1.29307
1.29307
1.29307
1.29307
1.29307
1.29307
1.29307
1.29308
1.29308
1.29308
1.29309
1.2931
1.29311
1.29312
999.179
999.889
1000.01
605.12
999.316
999.87
1000.01
987.256
999.936
999.99
1000.01
999.942
1000.05
1000.05
1000.05
1000.05
1000.05
1000.05
1000.05
1000.05
480.875
626.912
826.964
979.224
21.4273
42.095
82.1049
138.068
1.33114
1.43205
1.81864
2.75616
1.30103
1.3026
1.30498
1.30738
1.3341
1.33436
1.33435
1.33437
1.29329
1.29329
1.32308
1.33434
1.29329
1.29329
1.29329
1.29545
1.29328
1.29328
1.29328
1.29329
1.29328
1.29328
1.29328
1.29328
1.29327
1.29327
1.29328
1.29328
1.29327
1.29327
1.29327
1.29327
1.29326
1.29326
1.29327
1.29327
1.29326
1.29326
1.29326
1.29326
1.29325
1.29325
1.29325
1.29325
1.29325
1.29325
1.29325
1.29325
1.29324
1.29324
1.29324
1.29324
1.29323
1.29323
1.29323
1.29323
1.29323
1.29323
1.29323
1.29323
1.29322
1.29322
1.29322
1.29322
1.29321
1.29321
1.29321
1.29321
1.29321
1.29321
1.29321
1.29321
1.2932
1.2932
1.2932
1.2932
1.2932
1.2932
1.2932
1.29319
1.29319
1.29319
1.29319
1.29319
1.29319
1.29319
1.29319
1.29318
1.29318
1.29318
1.29318
1.29318
1.29318
1.29318
1.29318
1.29318
1.29317
1.29317
1.29317
1.29317
1.29316
1.29317
1.29317
1.29317
1.29316
1.29316
1.29316
1.29316
1.29315
1.29316
1.29316
1.29316
1.29314
1.29315
1.29315
1.29316
1.29313
1.29314
1.29315
1.29315
1.29312
1.29313
1.29314
1.29315
1.29313
1.29313
1.29314
1.29315
1.29313
1.29313
1.29314
1.29314
1.29314
1.29315
1.29315
1.29316
45.3796
10.2069
2.30925
1.32919
1.3081
1.30806
1.30807
1.30806
1.30807
1.30806
1.30807
1.30805
1.30804
1.308
1.308
1.30787
1.30755
1.30876
24.0258
951.224
554.935
47.602
1.77548
1.30871
1.30806
1.30806
1.30806
1.30807
1.30806
1.30807
1.30805
1.30804
1.30797
1.30787
1.30765
1.30769
1.30918
420.656
1000.05
954.899
363.765
16.2581
1.48502
1.30809
1.30788
1.30806
1.30807
1.30807
1.30808
1.30805
1.30805
1.30798
1.30789
1.30764
1.30789
1.30928
669.658
1000.05
1000.05
879.947
228.672
1.3092
1.30805
1.30722
1.30728
1.30778
1.3081
1.30804
1.30807
1.30809
1.30811
1.30811
1.30794
1.30809
1.30899
669.468
1000.05
1000.05
1000.05
873.935
412.604
19.988
1.30604
1.30421
1.30495
1.30728
1.30885
1.30875
1.30809
1.30779
1.30784
1.30791
1.30834
1.30887
656.785
1000.05
1000.05
1000.05
999.386
954.458
783.647
480.091
254.896
192.508
156.219
114.278
77.0074
36.5586
1.30847
1.30735
1.30805
1.94186
6.62604
742.896
322.572
738.347
981.733
1000.05
1000.05
1000.05
989.602
942.521
907.295
878.07
841.05
795.588
743.41
643.263
453.371
216.667
147.68
396.394
915.536
5.56831
58.2925
208.853
496.176
797.125
935.052
991.819
999.966
999.966
999.966
999.966
999.967
999.966
999.967
981.418
923.919
854.241
931.908
992.641
1.30962
1.29576
4.09726
22.8593
90.698
211.688
380.462
508.28
550.371
578.313
618.213
680.685
774.398
907.562
995.114
995.115
993.489
993.49
992.641
1.31961
1.29572
1.29365
1.29517
1.652
3.40694
7.65043
13.4465
18.7676
24.7705
35.8247
59.7043
107.948
202.31
417.817
797.955
983.419
993.49
973.525
1.33436
1.3047
1.29333
1.29334
1.29335
1.29337
1.29398
1.29584
1.29884
1.30435
1.32172
1.41
1.97483
6.06176
1.29749
229.86
797.673
992.294
887.409
1.29981
1.2973
1.29346
1.29331
1.29332
1.29333
1.29334
1.29334
1.29335
1.29336
1.29337
1.29338
1.29356
1.29767
1.29742
22.7427
577.116
982.683
877.039
1.29329
1.2933
1.29332
1.29331
1.29331
1.29332
1.29333
1.29333
1.29334
1.29335
1.29337
1.29336
1.29339
1.29338
2.54371
93.5689
702.235
991.092
880.271
1.29329
1.29329
1.29329
1.2933
1.2933
1.29331
1.29332
1.29332
1.29333
1.29334
1.29335
1.29335
1.29877
2.06201
29.5905
369.093
901.008
991.173
820.067
1.29328
1.29328
1.29329
1.29329
1.2933
1.2933
1.29331
1.29331
1.29332
1.29333
1.29334
1.29334
1.31462
11.6086
237.533
731.385
928.886
937.813
447.602
1.29328
1.29328
1.29328
1.29329
1.29329
1.2933
1.2933
1.2933
1.29331
1.29331
1.29332
1.29332
1.38197
52.309
571.568
902.923
924.146
703.093
317.387
1.29327
1.29327
1.29328
1.29328
1.29329
1.29329
1.29329
1.2933
1.2933
1.2933
1.2933
1.29329
1.33655
24.8955
352.88
748.403
909.678
723.728
317.386
1.29326
1.29327
1.29327
1.29327
1.29328
1.29329
1.29331
1.2933
1.29329
1.29329
1.29328
1.29327
1.29365
2.85331
5.88524
199.83
689.74
732.213
446.142
1.29326
1.29326
1.29326
1.29326
1.2933
1.2933
1.2933
1.2933
1.29331
1.29329
1.29327
1.29326
1.29325
1.343
1.29325
16.2401
342.175
441.321
274.314
1.29325
1.29325
1.29325
1.29325
1.29329
1.29391
1.2933
1.29328
1.2933
1.2933
1.29327
1.29325
1.29324
1.29395
1.29324
4.0342
123.623
370.154
159.936
1.29324
1.29324
1.29325
1.29324
1.29324
1.29417
1.3038
1.29772
1.29324
1.29325
1.29325
1.29324
1.29324
1.29324
1.29325
1.29325
1.57342
373.615
159.936
1.29324
1.29324
1.29324
1.29323
1.29323
1.29322
1.30435
1.30991
1.30278
1.29322
1.29322
1.29328
1.29327
1.29324
1.29325
1.29325
1.29328
373.475
159.936
1.29323
1.29323
1.29323
1.29326
1.29323
1.29321
1.29652
1.32444
1.32449
1.32223
1.29956
1.29349
1.29324
1.29324
1.29325
1.29326
1.29327
253.163
199.298
1.29322
1.29322
1.29322
1.2933
1.29333
1.29321
1.29322
1.29706
1.32103
1.3227
1.31782
1.2949
1.29322
1.29323
1.29324
1.29325
1.29327
22.1386
303.822
1.29321
1.29321
1.29321
1.2932
1.29469
1.29473
1.29372
1.2936
1.29453
1.31197
1.31041
1.29499
1.29321
1.29322
1.29325
1.29324
1.29328
1.29326
303.866
1.29321
1.2932
1.2932
1.29319
1.29556
1.29565
1.29403
1.29358
1.29357
1.29456
1.29457
1.29364
1.29325
1.29326
1.29325
1.29323
1.29327
1.29325
302.801
1.2932
1.2932
1.29319
1.29318
1.29554
1.29455
1.29396
1.29886
1.29315
1.29315
1.29317
1.29319
1.29416
1.29337
1.29324
1.29323
1.29328
1.29324
302.773
1.29319
1.29319
1.29318
1.29317
1.29505
1.29366
1.29364
1.33255
1.33041
1.29558
1.31515
1.32528
1.29412
1.29329
1.29323
1.2934
1.35605
1.29321
267.515
1.29319
1.29318
1.29318
1.29316
1.29317
1.29317
1.30188
1.43274
1.47097
1.45687
1.45667
1.32877
1.29317
1.29321
1.29323
1.30044
1.42598
1.29321
45.3047
1.29318
1.29318
1.29317
1.29325
1.29324
1.29348
1.34088
1.47111
1.4711
1.47111
1.46593
1.29673
1.29317
1.29319
1.29322
1.31964
1.42057
1.29319
30.9617
1.29318
1.29317
1.29317
1.29339
1.2945
1.29428
1.3413
1.47112
1.47112
1.45394
1.3304
1.29314
1.29318
1.2932
1.30757
1.32091
1.31379
1.29317
231.849
1.29318
1.29317
1.29317
1.2935
1.2951
1.29496
1.30741
1.38886
1.41169
1.31556
1.29313
1.29314
1.29317
1.2934
1.29595
1.30007
1.36068
10.0924
301.751
1.29317
1.29317
1.29316
1.29341
1.29511
1.29466
1.2933
1.29446
1.29796
1.29369
1.29314
1.29327
1.30046
1.3253
1.29345
1.29354
19.0079
22.9684
301.752
1.29317
1.29317
1.29316
1.29321
1.29437
1.29466
1.29317
1.29315
1.29315
1.29317
1.29336
1.2937
1.29485
1.29332
46.5855
347.18
329.613
45.7998
301.753
1.29316
1.29316
1.29316
1.29316
1.2935
1.29366
1.29318
1.29317
1.29317
1.29327
1.29342
1.29343
1.29333
1.29347
238.421
469.693
469.689
247.47
77.6476
1.29316
1.29316
1.29316
1.29315
1.29348
1.2936
1.29319
1.2932
1.2933
1.29336
1.29338
1.29325
1.29331
1.29337
93.2553
409.248
469.693
218.644
7.88137
1.29316
1.29315
1.29315
1.29313
1.2938
1.29457
1.29318
1.29321
1.29334
1.29332
1.29323
1.29322
1.29318
1.78213
6.50993
69.8664
93.1532
63.1623
6.513
1.29315
1.29315
1.29315
1.29313
1.29366
1.29772
1.29316
1.29318
1.29325
1.29318
1.2932
1.31133
1.33491
1.32485
1.32465
1.48911
1.57898
1.92008
4.58704
1.29315
1.29315
1.29314
1.29313
1.29311
1.30051
1.30768
1.29403
1.29316
1.29317
1.30672
1.31604
1.30279
1.29354
1.29315
1.29308
1.29297
1.3094
2.06867
1.29315
1.29315
1.29315
1.29314
1.29313
1.30174
1.313
1.31213
1.30285
1.30731
1.30941
1.29809
1.29368
1.29389
1.29396
1.29325
1.29298
1.29572
1.31073
1.29314
1.29314
1.29314
1.29314
1.29316
1.29694
1.31301
1.31344
1.31154
1.29835
1.29755
1.29319
1.29493
1.29496
1.29492
1.29348
1.29294
1.29302
1.29689
1.29316
1.29315
1.29314
1.29314
1.29317
1.29348
1.29642
1.30092
1.29619
1.29317
1.29292
1.29273
1.29261
1.29255
1.29251
1.29841
1.29469
1.29296
1.29285
)
;

boundaryField
{
    leftWall
    {
        type            calculated;
        value           nonuniform List<scalar> 
50
(
1000.05
1000.05
1000.05
1000.05
1000.05
1000.05
1000.05
1000.05
1000.05
993.407
616.028
13.6852
1.29332
1.29328
1.29327
1.29326
1.29326
1.29326
1.29325
1.29325
1.29325
1.29325
1.29324
1.29324
1.29324
1.29323
1.29323
1.29322
1.29322
1.29321
1.29321
1.2932
1.29319
1.29317
1.29315
1.29314
1.29312
1.29311
1.2931
1.29309
1.29308
1.29308
1.29307
1.29307
1.29307
1.29307
1.29308
1.29308
1.29307
1.29307
)
;
    }
    rightWall
    {
        type            calculated;
        value           nonuniform List<scalar> 
50
(
1.3085
1.30883
1.30899
1.30891
1.30872
1.30871
1.30923
1.32281
24.0258
420.656
669.658
669.468
656.785
742.896
915.536
992.641
992.641
973.525
887.409
877.039
880.271
820.067
447.602
317.387
317.386
446.142
274.314
159.936
159.936
159.936
199.298
303.822
303.866
302.801
302.773
267.515
45.3047
30.9617
231.849
301.751
301.752
301.753
77.6476
7.88137
6.513
4.58704
2.06867
1.31073
1.29689
1.29285
)
;
    }
    lowerWall
    {
        type            calculated;
        value           nonuniform List<scalar> 
62
(
1000.05
1000.05
1000.05
1000.05
1000.05
1000.05
1000.05
1000.05
1000.05
1000.05
1000.05
1000.05
1000.05
1000.05
1000.05
1000.05
1000.05
1000.05
1000.05
1000.05
1000.05
1000.05
999.526
999.526
999.526
999.914
1000.05
1000.05
999.362
999.048
999.048
999.179
999.889
1000.01
605.12
1.30808
1.30808
1.30808
1.30808
1.30807
1.30807
1.30807
1.30813
1.30808
1.30808
1.30808
1.30808
1.30808
1.30808
1.30808
1.30808
1.30808
1.30808
1.30809
1.30808
1.30809
1.3081
1.30821
1.30831
1.3084
1.30844
1.3085
)
;
    }
    atmosphere
    {
        type            calculated;
        value           nonuniform List<scalar> 
46
(
1.29316
1.29316
1.29316
1.29316
1.29316
1.29316
1.29316
1.29316
1.29316
1.29316
1.29316
1.29316
1.29316
1.29316
1.29316
1.29317
1.29317
1.29317
1.29318
1.29318
1.29319
1.2932
1.29321
1.29323
1.29324
1.29324
1.29325
1.29325
1.29324
1.29323
1.29323
1.29326
1.29357
1.29651
1.30101
1.29628
1.29326
1.29302
1.29282
1.2927
1.29264
1.29261
1.2927
1.29479
1.29305
1.29294
)
;
    }
    defaultFaces
    {
        type            empty;
    }
}


// ************************************************************************* //
