/*--------------------------------*- C++ -*----------------------------------*\
| =========                 |                                                 |
| \\      /  F ield         | OpenFOAM: The Open Source CFD Toolbox           |
|  \\    /   O peration     | Version:  2012                                  |
|   \\  /    A nd           | Website:  www.openfoam.com                      |
|    \\/     M anipulation  |                                                 |
\*---------------------------------------------------------------------------*/
FoamFile
{
    version     2.0;
    format      ascii;
    class       volScalarField;
    location    "0.42";
    object      rho2;
}
// * * * * * * * * * * * * * * * * * * * * * * * * * * * * * * * * * * * * * //

dimensions      [1 -3 0 0 0 0 0];


internalField   nonuniform List<scalar> 
2268
(
1.30389
1.3039
1.3039
1.30392
1.30395
1.304
1.30404
1.30413
1.30424
1.30436
1.30458
1.30476
1.30511
1.30542
1.30591
1.30637
1.30704
1.30763
1.30847
1.30912
1.30998
1.31051
1.31096
1.30313
1.30314
1.30315
1.30316
1.30319
1.30324
1.30328
1.30337
1.30348
1.3036
1.30382
1.304
1.30435
1.30465
1.30515
1.30561
1.30628
1.30688
1.30772
1.30839
1.30925
1.30978
1.31024
1.30236
1.30237
1.30237
1.30239
1.30242
1.30246
1.30251
1.30259
1.3027
1.30282
1.30303
1.30321
1.30356
1.30386
1.30436
1.3048
1.30547
1.30607
1.30691
1.30759
1.30848
1.30905
1.30956
1.30159
1.30159
1.3016
1.30162
1.30164
1.30168
1.30173
1.30181
1.30192
1.30203
1.30225
1.30242
1.30277
1.30307
1.30357
1.30402
1.30469
1.30531
1.30617
1.30687
1.30779
1.3084
1.30888
1.3008
1.3008
1.30081
1.30082
1.30085
1.30089
1.30093
1.30101
1.30111
1.30123
1.30143
1.3016
1.30194
1.30222
1.30272
1.30316
1.30383
1.30443
1.3053
1.306
1.30697
1.3076
1.30829
1.30001
1.30001
1.30002
1.30003
1.30006
1.30009
1.30014
1.30021
1.30031
1.30042
1.30062
1.30079
1.30113
1.30141
1.30191
1.30235
1.30303
1.30364
1.30453
1.3053
1.30632
1.30708
1.30769
1.2992
1.2992
1.29921
1.29922
1.29924
1.29927
1.29932
1.29938
1.29947
1.29958
1.29976
1.29993
1.30025
1.30051
1.30101
1.30143
1.30211
1.30271
1.30362
1.30434
1.30543
1.30611
1.30709
1.2984
1.2984
1.29841
1.29842
1.29844
1.29846
1.29851
1.29857
1.29865
1.29876
1.29894
1.2991
1.29941
1.29968
1.30016
1.30058
1.30127
1.30187
1.3028
1.30359
1.30475
1.3057
1.30665
1.30808
1.30808
1.30808
1.30808
1.30808
1.30808
1.30808
1.30808
1.30808
1.30808
1.30809
1.30808
1.30809
1.3081
1.30821
1.30831
1.3084
1.30844
1.3085
1.30808
1.30808
1.30808
1.30808
1.30808
1.30808
1.30808
1.30808
1.30808
1.30808
1.30809
1.30808
1.3081
1.30815
1.30833
1.30841
1.30847
1.30854
1.30883
1.30808
1.30807
1.30808
1.30807
1.30808
1.30808
1.30808
1.30808
1.30808
1.30808
1.30808
1.30808
1.30811
1.30821
1.30838
1.30839
1.30838
1.30849
1.30899
1.30808
1.30807
1.30808
1.30807
1.30808
1.30807
1.30808
1.30807
1.30808
1.30807
1.30808
1.30808
1.30811
1.30823
1.30836
1.30831
1.30816
1.30827
1.3089
1.30807
1.30807
1.30807
1.30807
1.30808
1.30807
1.30808
1.30807
1.30808
1.30807
1.30808
1.30807
1.30811
1.30822
1.30832
1.30815
1.30783
1.30812
1.30872
1.30807
1.30807
1.30807
1.30807
1.30807
1.30807
1.30808
1.30807
1.30808
1.30807
1.30808
1.30807
1.3081
1.30819
1.30827
1.30801
1.30758
1.30807
1.30871
1.30807
1.3081
1.30808
1.30807
1.30807
1.30807
1.30807
1.30807
1.30808
1.30807
1.30808
1.30806
1.30809
1.30815
1.30821
1.30794
1.30748
1.30811
1.30923
1.30813
1.30901
1.30819
1.30807
1.30807
1.30807
1.30807
1.30807
1.30807
1.30807
1.30807
1.30806
1.30807
1.3081
1.30816
1.30795
1.30746
1.30833
1.31099
1.29711
1.29711
1.29711
1.29712
1.29713
1.29715
1.29719
1.29723
1.29731
1.2974
1.29753
1.2977
1.29796
1.2982
1.29866
1.29904
1.29973
1.30031
1.3013
1.30198
1.30333
1.30382
1.30538
1.2954
1.29539
1.2954
1.2954
1.29541
1.29542
1.29545
1.29548
1.29555
1.29562
1.29574
1.29589
1.29614
1.29637
1.29679
1.29716
1.29778
1.29833
1.29929
1.30012
1.3015
1.30268
1.30456
1.29392
1.29391
1.29391
1.29391
1.29391
1.29391
1.29391
1.29392
1.29394
1.29396
1.294
1.29406
1.29416
1.29429
1.29453
1.29484
1.29537
1.29602
1.29693
1.29776
1.29877
1.29989
1.30159
1.29341
1.29341
1.29341
1.29341
1.29342
1.29342
1.29342
1.29343
1.29344
1.29344
1.29345
1.29346
1.29347
1.2935
1.29354
1.2936
1.29371
1.29396
1.29448
1.29528
1.29637
1.2978
1.2993
1.29332
1.29332
1.29332
1.29332
1.29332
1.29333
1.29333
1.29333
1.29334
1.29334
1.29334
1.29334
1.29335
1.29335
1.29337
1.29339
1.29342
1.29345
1.2935
1.29361
1.29383
1.29446
1.29572
1.29328
1.29328
1.29328
1.29328
1.29328
1.29328
1.29328
1.29328
1.29329
1.29328
1.29328
1.29328
1.29329
1.29329
1.29329
1.29329
1.2933
1.29331
1.29334
1.29338
1.29343
1.29352
1.29372
1.29327
1.29327
1.29327
1.29327
1.29327
1.29327
1.29327
1.29327
1.29327
1.29327
1.29327
1.29327
1.29328
1.29328
1.29328
1.29328
1.29328
1.29329
1.29329
1.2933
1.29332
1.29336
1.29341
1.29326
1.29326
1.29326
1.29326
1.29326
1.29326
1.29326
1.29326
1.29327
1.29327
1.29327
1.29327
1.29327
1.29327
1.29328
1.29328
1.29328
1.29328
1.29328
1.29329
1.2933
1.29331
1.29333
1.29326
1.29326
1.29326
1.29326
1.29326
1.29326
1.29326
1.29326
1.29326
1.29327
1.29327
1.29327
1.29327
1.29327
1.29327
1.29327
1.29328
1.29328
1.29328
1.29328
1.29329
1.29329
1.2933
1.29326
1.29326
1.29326
1.29326
1.29326
1.29326
1.29326
1.29326
1.29326
1.29326
1.29326
1.29327
1.29327
1.29327
1.29327
1.29327
1.29327
1.29328
1.29328
1.29328
1.29328
1.29329
1.29329
1.29325
1.29326
1.29326
1.29326
1.29326
1.29326
1.29326
1.29326
1.29326
1.29326
1.29326
1.29326
1.29326
1.29327
1.29327
1.29327
1.29327
1.29327
1.29328
1.29328
1.29328
1.29328
1.29329
1.29325
1.29325
1.29325
1.29325
1.29325
1.29325
1.29325
1.29326
1.29326
1.29326
1.29326
1.29326
1.29326
1.29326
1.29326
1.29327
1.29327
1.29327
1.29327
1.29328
1.29328
1.29328
1.29328
1.29325
1.29325
1.29325
1.29325
1.29325
1.29325
1.29325
1.29325
1.29325
1.29325
1.29326
1.29326
1.29326
1.29326
1.29326
1.29326
1.29326
1.29327
1.29327
1.29327
1.29327
1.29328
1.29328
1.29325
1.29325
1.29325
1.29325
1.29325
1.29325
1.29325
1.29325
1.29325
1.29325
1.29325
1.29325
1.29326
1.29326
1.29326
1.29326
1.29326
1.29326
1.29327
1.29327
1.29327
1.29327
1.29328
1.29324
1.29324
1.29324
1.29324
1.29324
1.29324
1.29325
1.29325
1.29325
1.29325
1.29325
1.29325
1.29325
1.29325
1.29325
1.29326
1.29326
1.29326
1.29326
1.29326
1.29327
1.29327
1.29327
1.29324
1.29324
1.29324
1.29324
1.29324
1.29324
1.29324
1.29324
1.29324
1.29324
1.29325
1.29325
1.29325
1.29325
1.29325
1.29325
1.29325
1.29326
1.29326
1.29326
1.29326
1.29326
1.29327
1.29324
1.29324
1.29324
1.29324
1.29324
1.29324
1.29324
1.29324
1.29324
1.29324
1.29324
1.29324
1.29324
1.29324
1.29325
1.29325
1.29325
1.29325
1.29325
1.29325
1.29326
1.29326
1.29326
1.29323
1.29323
1.29323
1.29323
1.29323
1.29323
1.29323
1.29323
1.29324
1.29324
1.29324
1.29324
1.29324
1.29324
1.29324
1.29324
1.29325
1.29325
1.29325
1.29325
1.29325
1.29325
1.29326
1.29323
1.29323
1.29323
1.29323
1.29323
1.29323
1.29323
1.29323
1.29323
1.29323
1.29323
1.29323
1.29324
1.29324
1.29324
1.29324
1.29324
1.29324
1.29324
1.29325
1.29325
1.29325
1.29325
1.29322
1.29322
1.29322
1.29322
1.29322
1.29323
1.29323
1.29323
1.29323
1.29323
1.29323
1.29323
1.29323
1.29323
1.29323
1.29323
1.29324
1.29324
1.29324
1.29324
1.29324
1.29324
1.29324
1.29322
1.29322
1.29322
1.29322
1.29322
1.29322
1.29322
1.29322
1.29322
1.29322
1.29322
1.29323
1.29323
1.29323
1.29323
1.29323
1.29323
1.29323
1.29323
1.29324
1.29324
1.29324
1.29324
1.29321
1.29321
1.29321
1.29321
1.29321
1.29321
1.29322
1.29322
1.29322
1.29322
1.29322
1.29322
1.29322
1.29322
1.29322
1.29323
1.29323
1.29323
1.29323
1.29323
1.29323
1.29323
1.29323
1.29321
1.29321
1.29321
1.29321
1.29321
1.29321
1.29321
1.29321
1.29321
1.29321
1.29321
1.29321
1.29322
1.29322
1.29322
1.29322
1.29322
1.29322
1.29322
1.29322
1.29323
1.29323
1.29323
1.2932
1.2932
1.2932
1.2932
1.2932
1.2932
1.2932
1.2932
1.2932
1.2932
1.29321
1.29321
1.29321
1.29321
1.29321
1.29321
1.29321
1.29322
1.29322
1.29322
1.29322
1.29322
1.29322
1.29319
1.29319
1.29319
1.29319
1.29319
1.29319
1.29319
1.29319
1.29319
1.2932
1.2932
1.2932
1.2932
1.2932
1.2932
1.29321
1.29321
1.29321
1.29321
1.29321
1.29321
1.29321
1.29321
1.29317
1.29317
1.29317
1.29317
1.29317
1.29318
1.29318
1.29318
1.29318
1.29318
1.29319
1.29319
1.29319
1.29319
1.29319
1.2932
1.2932
1.2932
1.2932
1.29321
1.29321
1.29321
1.29321
1.29315
1.29315
1.29315
1.29315
1.29316
1.29316
1.29316
1.29316
1.29316
1.29317
1.29317
1.29317
1.29317
1.29318
1.29318
1.29319
1.29319
1.29319
1.29319
1.2932
1.2932
1.2932
1.2932
1.29314
1.29314
1.29314
1.29314
1.29314
1.29314
1.29314
1.29314
1.29314
1.29315
1.29315
1.29315
1.29316
1.29316
1.29316
1.29317
1.29317
1.29318
1.29318
1.29319
1.29319
1.2932
1.2932
1.29312
1.29312
1.29312
1.29312
1.29312
1.29312
1.29313
1.29313
1.29313
1.29313
1.29313
1.29313
1.29314
1.29314
1.29314
1.29315
1.29316
1.29316
1.29317
1.29318
1.29318
1.29319
1.29319
1.29311
1.29311
1.29311
1.29311
1.29311
1.29311
1.29311
1.29311
1.29311
1.29312
1.29312
1.29312
1.29312
1.29313
1.29313
1.29313
1.29314
1.29315
1.29315
1.29316
1.29317
1.29318
1.29318
1.2931
1.2931
1.2931
1.2931
1.2931
1.2931
1.2931
1.2931
1.2931
1.2931
1.29311
1.29311
1.29311
1.29311
1.29311
1.29312
1.29312
1.29313
1.29314
1.29315
1.29316
1.29317
1.29318
1.29309
1.29309
1.29309
1.29309
1.29309
1.29309
1.29309
1.29309
1.29309
1.29309
1.2931
1.2931
1.2931
1.2931
1.2931
1.29311
1.29311
1.29312
1.29312
1.29313
1.29315
1.29316
1.29317
1.29308
1.29308
1.29308
1.29308
1.29308
1.29309
1.29309
1.29309
1.29309
1.29309
1.29309
1.29309
1.29309
1.29309
1.29309
1.2931
1.2931
1.29311
1.29311
1.29312
1.29313
1.29315
1.29316
1.29308
1.29308
1.29308
1.29308
1.29308
1.29308
1.29308
1.29308
1.29308
1.29308
1.29308
1.29308
1.29308
1.29309
1.29309
1.29309
1.29309
1.2931
1.2931
1.29311
1.29312
1.29314
1.29315
1.29307
1.29307
1.29307
1.29307
1.29307
1.29307
1.29307
1.29308
1.29308
1.29308
1.29308
1.29308
1.29308
1.29308
1.29308
1.29308
1.29309
1.29309
1.2931
1.2931
1.29311
1.29312
1.29314
1.29307
1.29307
1.29307
1.29307
1.29307
1.29307
1.29307
1.29307
1.29307
1.29307
1.29307
1.29307
1.29307
1.29308
1.29308
1.29308
1.29308
1.29309
1.29309
1.2931
1.2931
1.29312
1.29313
1.29307
1.29307
1.29307
1.29307
1.29307
1.29307
1.29307
1.29307
1.29307
1.29307
1.29307
1.29307
1.29307
1.29307
1.29307
1.29308
1.29308
1.29308
1.29309
1.29309
1.2931
1.29311
1.29312
1.29307
1.29307
1.29307
1.29307
1.29307
1.29307
1.29307
1.29307
1.29307
1.29307
1.29307
1.29307
1.29308
1.29308
1.29308
1.29308
1.29308
1.29308
1.29309
1.29309
1.2931
1.29311
1.29312
1.29308
1.29308
1.29308
1.29308
1.29308
1.29308
1.29308
1.29308
1.29308
1.29308
1.29308
1.29308
1.29308
1.29308
1.29308
1.29308
1.29308
1.29309
1.29309
1.29309
1.2931
1.2931
1.29311
1.29308
1.29308
1.29308
1.29308
1.29308
1.29308
1.29308
1.29308
1.29308
1.29308
1.29308
1.29308
1.29308
1.29308
1.29308
1.29308
1.29308
1.29309
1.29309
1.2931
1.2931
1.29311
1.29312
1.29307
1.29307
1.29307
1.29307
1.29307
1.29307
1.29307
1.29307
1.29307
1.29307
1.29307
1.29307
1.29307
1.29307
1.29308
1.29308
1.29308
1.29308
1.29309
1.29309
1.2931
1.29311
1.29312
1.29307
1.29307
1.29307
1.29307
1.29307
1.29307
1.29307
1.29307
1.29307
1.29307
1.29307
1.29307
1.29307
1.29307
1.29307
1.29307
1.29308
1.29308
1.29308
1.29309
1.2931
1.29311
1.29312
1.30406
1.309
1.31025
1.3154
1.30582
1.30701
1.30792
1.30948
1.30258
1.30391
1.30491
1.30641
1.30028
1.30118
1.30212
1.30313
1.2969
1.29778
1.29866
1.29964
1.29396
1.29424
1.2947
1.29533
1.29344
1.29346
1.2935
1.29356
1.29334
1.29336
1.29338
1.29341
1.29331
1.29332
1.29333
1.29334
1.2933
1.2933
1.2933
1.29331
1.29329
1.29329
1.29329
1.2933
1.29329
1.29329
1.29329
1.29329
1.29328
1.29328
1.29328
1.29329
1.29328
1.29328
1.29328
1.29328
1.29327
1.29327
1.29328
1.29328
1.29327
1.29327
1.29327
1.29327
1.29326
1.29326
1.29327
1.29327
1.29326
1.29326
1.29326
1.29326
1.29325
1.29325
1.29325
1.29325
1.29325
1.29325
1.29325
1.29325
1.29324
1.29324
1.29324
1.29324
1.29323
1.29323
1.29323
1.29323
1.29323
1.29323
1.29323
1.29323
1.29322
1.29322
1.29322
1.29322
1.29321
1.29321
1.29321
1.29321
1.29321
1.29321
1.29321
1.29321
1.2932
1.2932
1.2932
1.2932
1.2932
1.2932
1.2932
1.29319
1.29319
1.29319
1.29319
1.29319
1.29319
1.29319
1.29319
1.29318
1.29318
1.29318
1.29318
1.29318
1.29318
1.29318
1.29318
1.29318
1.29317
1.29317
1.29317
1.29317
1.29316
1.29317
1.29317
1.29317
1.29316
1.29316
1.29316
1.29316
1.29315
1.29316
1.29316
1.29316
1.29314
1.29315
1.29315
1.29316
1.29313
1.29314
1.29315
1.29315
1.29312
1.29313
1.29314
1.29315
1.29313
1.29313
1.29314
1.29315
1.29313
1.29313
1.29314
1.29314
1.29314
1.29315
1.29315
1.29316
1.31938
1.31551
1.31011
1.30812
1.30807
1.30806
1.30807
1.30806
1.30807
1.30806
1.30807
1.30805
1.30804
1.308
1.308
1.30787
1.30755
1.30876
1.31325
1.31348
1.3143
1.31336
1.30854
1.30802
1.30806
1.30806
1.30806
1.30806
1.30806
1.30807
1.30805
1.30804
1.30797
1.30787
1.30765
1.30769
1.30918
1.31467
1.30816
1.31118
1.31302
1.3137
1.30933
1.30809
1.30788
1.30806
1.30807
1.30806
1.30807
1.30805
1.30805
1.30798
1.30789
1.30764
1.30788
1.30928
1.31469
1.30519
1.30743
1.31094
1.31359
1.3092
1.30805
1.30722
1.30728
1.30778
1.3081
1.30804
1.30806
1.30807
1.30804
1.30801
1.30784
1.30806
1.30899
1.31443
1.30118
1.30367
1.30626
1.31048
1.31347
1.31327
1.30604
1.30421
1.30495
1.30728
1.30885
1.30875
1.30809
1.30777
1.30779
1.30785
1.30827
1.30887
1.31404
1.29693
1.29959
1.30231
1.30515
1.30825
1.31238
1.31133
1.31035
1.31064
1.31205
1.31402
1.31422
1.31367
1.30847
1.30735
1.30805
1.3103
1.3115
1.31484
1.29372
1.29445
1.29629
1.29924
1.30216
1.30422
1.30635
1.30805
1.30904
1.31004
1.31133
1.31201
1.31232
1.31215
1.31266
1.31365
1.31381
1.31429
1.31638
1.29343
1.29348
1.29362
1.29401
1.29503
1.29688
1.29868
1.29997
1.30079
1.30149
1.30227
1.30318
1.30412
1.3058
1.30787
1.31079
1.31285
1.31555
1.31991
1.29336
1.29338
1.29342
1.29344
1.29349
1.29358
1.29374
1.29391
1.29404
1.29417
1.29441
1.29488
1.29585
1.29749
1.30044
1.30405
1.30884
1.31254
1.31606
1.29333
1.29334
1.29336
1.29336
1.29338
1.2934
1.29341
1.2934
1.29339
1.2934
1.29342
1.29345
1.29352
1.29374
1.29409
1.29775
1.3034
1.30836
1.31149
1.2933
1.29331
1.29332
1.29334
1.29334
1.29335
1.29335
1.29334
1.29334
1.29335
1.29337
1.29337
1.29342
1.29347
1.2935
1.2941
1.29877
1.30346
1.30566
1.29329
1.2933
1.29331
1.29331
1.29332
1.29333
1.29334
1.29334
1.29335
1.29336
1.29337
1.29337
1.29339
1.29341
1.29344
1.29348
1.29479
1.29952
1.3009
1.29329
1.29329
1.2933
1.2933
1.29331
1.29332
1.29333
1.29333
1.29334
1.29335
1.29336
1.29336
1.29338
1.29338
1.29348
1.29352
1.2952
1.29783
1.29826
1.29329
1.29329
1.29329
1.2933
1.2933
1.29331
1.29332
1.29332
1.29333
1.29334
1.29335
1.29335
1.29337
1.29341
1.29353
1.29367
1.29529
1.29604
1.29612
1.29328
1.29328
1.29329
1.29329
1.2933
1.2933
1.29331
1.29331
1.29332
1.29333
1.29334
1.29334
1.29339
1.29343
1.29356
1.294
1.29498
1.29507
1.29463
1.29328
1.29328
1.29328
1.29329
1.29329
1.2933
1.2933
1.2933
1.29331
1.29331
1.29332
1.29332
1.29335
1.29341
1.29363
1.294
1.29471
1.29408
1.2939
1.29327
1.29327
1.29328
1.29328
1.29328
1.29329
1.29329
1.2933
1.2933
1.2933
1.2933
1.29329
1.29326
1.29331
1.2936
1.29368
1.29413
1.29355
1.29288
1.29326
1.29327
1.29327
1.29327
1.29328
1.29328
1.29328
1.29328
1.29329
1.29329
1.29328
1.29327
1.29325
1.29326
1.29331
1.29333
1.2936
1.29343
1.29233
1.29326
1.29326
1.29326
1.29326
1.29327
1.29327
1.29327
1.29327
1.29328
1.29327
1.29327
1.29326
1.29325
1.29323
1.29324
1.29328
1.29346
1.29303
1.29197
1.29325
1.29325
1.29325
1.29325
1.29325
1.29325
1.29325
1.29325
1.29326
1.29326
1.29326
1.29325
1.29324
1.29324
1.29324
1.29329
1.29341
1.29285
1.29203
1.29324
1.29324
1.29324
1.29324
1.29324
1.29323
1.29323
1.29323
1.29323
1.29324
1.29324
1.29324
1.29324
1.29324
1.29325
1.29325
1.29332
1.29309
1.29204
1.29324
1.29324
1.29324
1.29323
1.29323
1.29322
1.29322
1.29321
1.29321
1.29321
1.29322
1.29323
1.29324
1.29324
1.29324
1.29325
1.29328
1.29332
1.2926
1.29323
1.29323
1.29323
1.29322
1.29322
1.29321
1.29321
1.2932
1.2932
1.2932
1.29321
1.29322
1.29323
1.29324
1.29325
1.29325
1.29327
1.29334
1.29301
1.29322
1.29322
1.29322
1.29321
1.2932
1.2932
1.2932
1.29319
1.29319
1.29318
1.29319
1.2932
1.29322
1.29323
1.29324
1.29325
1.29327
1.29331
1.293
1.29321
1.29321
1.29321
1.2932
1.29319
1.29319
1.29319
1.29318
1.29317
1.29316
1.29317
1.29318
1.29321
1.29322
1.29324
1.29324
1.29327
1.29326
1.293
1.29321
1.2932
1.2932
1.29319
1.29318
1.29318
1.29317
1.29316
1.29315
1.29314
1.29315
1.29316
1.2932
1.29321
1.29324
1.29323
1.29327
1.29325
1.29301
1.2932
1.2932
1.29319
1.29318
1.29316
1.29316
1.29315
1.29313
1.29311
1.2931
1.29313
1.29315
1.29319
1.2932
1.29323
1.29323
1.29328
1.29324
1.293
1.29319
1.29319
1.29318
1.29317
1.29315
1.29315
1.29313
1.29309
1.29307
1.29308
1.29311
1.29314
1.29318
1.29319
1.29323
1.29322
1.29327
1.29321
1.29299
1.29319
1.29318
1.29318
1.29316
1.29314
1.29315
1.29311
1.29306
1.29305
1.29306
1.2931
1.29313
1.29317
1.29319
1.29322
1.29322
1.29327
1.29321
1.29304
1.29318
1.29318
1.29317
1.29316
1.29314
1.29314
1.2931
1.29306
1.29305
1.29306
1.2931
1.29313
1.29317
1.29318
1.29322
1.29321
1.29325
1.29319
1.29304
1.29318
1.29317
1.29317
1.29315
1.29314
1.29313
1.2931
1.29307
1.29307
1.29308
1.29311
1.29314
1.29318
1.29319
1.29321
1.29322
1.29324
1.29317
1.29296
1.29317
1.29317
1.29317
1.29315
1.29314
1.29314
1.29311
1.29309
1.29309
1.2931
1.29313
1.29314
1.29317
1.29317
1.29322
1.29322
1.29328
1.29312
1.29331
1.29317
1.29317
1.29316
1.29315
1.29314
1.29314
1.29313
1.29311
1.29311
1.29312
1.29314
1.29315
1.29319
1.2932
1.2933
1.29339
1.2933
1.29365
1.29378
1.29317
1.29317
1.29316
1.29315
1.29314
1.29315
1.29314
1.29313
1.29313
1.29314
1.29315
1.29318
1.29322
1.29332
1.29344
1.29319
1.29405
1.2945
1.29637
1.29316
1.29316
1.29316
1.29314
1.29313
1.29315
1.29316
1.29315
1.29314
1.29316
1.29318
1.29322
1.29333
1.29347
1.29346
1.29382
1.2947
1.29477
1.29707
1.29316
1.29316
1.29316
1.29314
1.29312
1.29314
1.29316
1.29316
1.29316
1.29318
1.2932
1.29325
1.29327
1.29337
1.29334
1.29337
1.29356
1.29476
1.29423
1.29316
1.29315
1.29315
1.29313
1.29311
1.29312
1.29316
1.29317
1.29317
1.29318
1.2932
1.29322
1.29318
1.29314
1.29309
1.29298
1.2929
1.29287
1.29269
1.29315
1.29315
1.29315
1.29313
1.2931
1.2931
1.29314
1.29316
1.29316
1.29317
1.29319
1.29317
1.29312
1.29306
1.29301
1.29293
1.29285
1.29283
1.29256
1.29315
1.29315
1.29314
1.29313
1.2931
1.29309
1.29311
1.29314
1.29316
1.29317
1.29317
1.29313
1.2931
1.29307
1.29306
1.29302
1.29297
1.29289
1.29264
1.29315
1.29315
1.29315
1.29314
1.29311
1.29309
1.29309
1.29311
1.29313
1.29314
1.29313
1.29311
1.29306
1.29285
1.29287
1.29296
1.29298
1.29294
1.29269
1.29314
1.29314
1.29314
1.29314
1.29313
1.29311
1.2931
1.29311
1.29312
1.29313
1.29309
1.29292
1.29268
1.29258
1.29255
1.29275
1.29294
1.29296
1.29273
1.29316
1.29315
1.29314
1.29314
1.29314
1.29314
1.29313
1.29312
1.2931
1.29306
1.29291
1.29271
1.29261
1.29255
1.29251
1.2926
1.29284
1.29295
1.29277
)
;

boundaryField
{
    leftWall
    {
        type            calculated;
        value           nonuniform List<scalar> 
50
(
1.30389
1.30313
1.30236
1.30159
1.3008
1.30001
1.2992
1.2984
1.29711
1.2954
1.29392
1.29341
1.29332
1.29328
1.29327
1.29326
1.29326
1.29326
1.29325
1.29325
1.29325
1.29325
1.29324
1.29324
1.29324
1.29323
1.29323
1.29322
1.29322
1.29321
1.29321
1.2932
1.29319
1.29317
1.29315
1.29314
1.29312
1.29311
1.2931
1.29309
1.29308
1.29308
1.29307
1.29307
1.29307
1.29307
1.29308
1.29308
1.29307
1.29307
)
;
    }
    rightWall
    {
        type            calculated;
        value           nonuniform List<scalar> 
50
(
1.3085
1.30883
1.30899
1.3089
1.30872
1.30871
1.30923
1.31099
1.31325
1.31467
1.31469
1.31443
1.31404
1.31484
1.31638
1.31991
1.31606
1.31149
1.30566
1.3009
1.29826
1.29612
1.29463
1.2939
1.29288
1.29233
1.29197
1.29203
1.29204
1.2926
1.29301
1.293
1.293
1.29301
1.293
1.29299
1.29304
1.29304
1.29296
1.29331
1.29378
1.29637
1.29707
1.29423
1.29269
1.29256
1.29264
1.29269
1.29273
1.29277
)
;
    }
    lowerWall
    {
        type            calculated;
        value           nonuniform List<scalar> 
62
(
1.30427
1.30427
1.30428
1.3043
1.30433
1.30437
1.30442
1.3045
1.30462
1.30473
1.30496
1.30514
1.30549
1.30579
1.30629
1.30674
1.30741
1.30801
1.30884
1.3095
1.31036
1.31089
1.31134
1.31096
1.31024
1.30956
1.30888
1.30829
1.30769
1.30709
1.30665
1.30486
1.3098
1.31105
1.31588
1.30808
1.30808
1.30808
1.30808
1.30807
1.30807
1.30807
1.30813
1.30808
1.30808
1.30808
1.30808
1.30808
1.30808
1.30808
1.30808
1.30808
1.30808
1.30809
1.30808
1.30809
1.3081
1.30821
1.30831
1.3084
1.30844
1.3085
)
;
    }
    atmosphere
    {
        type            calculated;
        value           nonuniform List<scalar> 
46
(
1.29316
1.29316
1.29316
1.29316
1.29316
1.29316
1.29316
1.29316
1.29316
1.29316
1.29316
1.29316
1.29316
1.29316
1.29316
1.29317
1.29317
1.29317
1.29318
1.29318
1.29319
1.2932
1.29321
1.29323
1.29324
1.29324
1.29325
1.29325
1.29324
1.29323
1.29323
1.29323
1.29323
1.29322
1.29321
1.2932
1.29315
1.293
1.29281
1.2927
1.29264
1.29261
1.2927
1.29294
1.29304
1.29286
)
;
    }
    defaultFaces
    {
        type            empty;
    }
}


// ************************************************************************* //
