/*--------------------------------*- C++ -*----------------------------------*\
| =========                 |                                                 |
| \\      /  F ield         | OpenFOAM: The Open Source CFD Toolbox           |
|  \\    /   O peration     | Version:  2012                                  |
|   \\  /    A nd           | Website:  www.openfoam.com                      |
|    \\/     M anipulation  |                                                 |
\*---------------------------------------------------------------------------*/
FoamFile
{
    version     2.0;
    format      ascii;
    class       volScalarField;
    location    "0.42";
    object      rhogh;
}
// * * * * * * * * * * * * * * * * * * * * * * * * * * * * * * * * * * * * * //

dimensions      [1 -1 -2 0 0 0 0];


internalField   nonuniform List<scalar> 
2268
(
-29.4294
-29.4294
-29.4294
-29.4294
-29.4294
-29.4294
-29.4294
-29.4294
-29.4294
-29.4294
-29.4294
-29.4294
-29.4294
-29.4294
-29.4294
-29.4294
-29.4294
-29.4294
-29.4294
-29.4294
-29.4294
-29.4294
-29.4138
-88.2881
-88.2881
-88.2881
-88.2881
-88.2881
-88.2881
-88.2881
-88.2881
-88.2881
-88.2881
-88.2881
-88.2881
-88.2881
-88.2881
-88.2881
-88.2881
-88.2881
-88.2881
-88.2881
-88.2881
-88.2881
-88.2881
-88.2414
-147.147
-147.147
-147.147
-147.147
-147.147
-147.147
-147.147
-147.147
-147.147
-147.147
-147.147
-147.147
-147.147
-147.147
-147.147
-147.147
-147.147
-147.147
-147.147
-147.147
-147.147
-147.147
-147.126
-206.006
-206.006
-206.006
-206.006
-206.006
-206.006
-206.006
-206.006
-206.006
-206.006
-206.006
-206.006
-206.006
-206.006
-206.006
-206.006
-206.006
-206.006
-206.006
-206.006
-206.006
-206.006
-206.006
-264.864
-264.864
-264.864
-264.864
-264.864
-264.864
-264.864
-264.864
-264.864
-264.864
-264.864
-264.864
-264.864
-264.864
-264.864
-264.864
-264.864
-264.864
-264.864
-264.864
-264.864
-264.864
-264.864
-323.723
-323.723
-323.723
-323.723
-323.723
-323.723
-323.723
-323.723
-323.723
-323.723
-323.723
-323.723
-323.723
-323.723
-323.723
-323.723
-323.723
-323.723
-323.723
-323.723
-323.723
-323.723
-323.499
-382.582
-382.582
-382.582
-382.582
-382.582
-382.582
-382.582
-382.582
-382.582
-382.582
-382.582
-382.582
-382.582
-382.582
-382.582
-382.582
-382.582
-382.582
-382.582
-382.582
-382.582
-382.582
-382.196
-441.44
-441.44
-441.44
-441.44
-441.44
-441.44
-441.44
-441.44
-441.44
-441.44
-441.44
-441.44
-441.44
-441.44
-441.44
-441.44
-441.44
-441.44
-441.44
-441.44
-441.44
-441.44
-440.996
-1.8278e-20
-1.85995e-19
-1.08861e-18
-1.26872e-18
-1.11772e-18
-5.06074e-19
-2.30602e-19
-3.52936e-18
-1.71746e-16
-5.87614e-15
-1.37194e-13
-2.21437e-12
-2.33867e-11
-1.5948e-10
-6.62746e-10
-1.73293e-09
-3.11668e-09
-4.72693e-09
-6.46366e-09
-2.29419e-18
-4.68719e-17
-2.53056e-16
-2.61736e-16
-1.73051e-16
-7.47984e-17
-2.45625e-17
-7.24405e-17
-2.86572e-15
-8.43407e-14
-1.69686e-12
-2.33901e-11
-2.12087e-10
-1.22966e-09
-4.61009e-09
-1.14074e-08
-1.99848e-08
-4.23148e-08
-1.18582e-07
-1.75128e-16
-4.73569e-15
-1.73288e-14
-1.62883e-14
-9.43205e-15
-3.81503e-15
-1.23893e-15
-6.62839e-16
-1.48052e-14
-3.80239e-13
-6.74865e-12
-8.28413e-11
-6.71441e-10
-3.43548e-09
-1.07305e-08
-1.86553e-08
-4.55605e-08
-1.1956e-07
-4.58627e-07
-7.69639e-15
-3.30855e-13
-5.80092e-13
-5.27111e-13
-2.66836e-13
-9.92216e-14
-3.24853e-14
-8.04888e-15
-4.47617e-14
-9.6538e-13
-1.53455e-11
-1.71873e-10
-1.27801e-09
-6.50615e-09
-3.30683e-08
-4.98858e-07
-8.56461e-06
-2.07169e-05
-7.23546e-07
-6.85663e-13
-1.6778e-11
-1.08838e-11
-1.03861e-11
-4.4432e-12
-1.57782e-12
-5.6289e-13
-1.18299e-13
-1.42166e-13
-1.9633e-12
-2.77163e-11
-2.95773e-10
-2.31612e-09
-1.43163e-08
-9.73116e-08
-3.90495e-06
-0.000110512
-0.000349347
-9.16798e-07
-1.68833e-11
-3.67547e-10
-8.73675e-11
-1.23311e-10
-5.21297e-11
-1.74869e-11
-6.49985e-12
-1.38787e-12
-9.04675e-13
-3.90443e-12
-4.38209e-11
-4.4059e-10
-3.39531e-09
-1.96926e-08
-9.36374e-08
-2.39782e-06
-0.000149728
-0.000520475
-1.12053e-06
-1.60786e-09
-1.73426e-08
-9.87952e-10
-3.23388e-09
-6.1608e-11
-1.30483e-10
-5.59254e-11
-1.36514e-11
-8.85192e-12
-1.2067e-11
-6.46378e-11
-5.21253e-10
-3.6725e-09
-2.0848e-08
-9.79785e-08
-1.42975e-06
-2.36386e-05
-0.000586681
-1.32426e-06
-1.85531e-09
-0.000407104
-0.000262613
-6.34828e-05
-5.48978e-07
-1.41131e-09
-3.50943e-10
-1.05913e-10
-9.44151e-11
-1.25507e-10
-1.34782e-10
-6.05828e-10
-3.51432e-09
-1.7361e-08
-7.98218e-08
-3.45083e-07
-3.90258e-08
-0.000115416
-0.00522732
-533.467
-533.467
-533.467
-533.467
-533.467
-533.467
-533.467
-533.467
-533.467
-533.467
-533.467
-533.467
-533.467
-533.467
-533.467
-533.467
-533.467
-533.467
-533.467
-533.467
-533.467
-533.467
-532.93
-654.278
-654.087
-654.177
-654.088
-653.976
-653.943
-654.103
-654.082
-654.53
-654.899
-655.53
-656.268
-657.08
-657.838
-658.365
-658.64
-658.662
-658.662
-658.662
-658.662
-658.662
-658.662
-658.167
-482.461
-478.461
-479.749
-477.351
-474.794
-473.801
-476.872
-476.131
-486.511
-496.126
-513.951
-538.508
-574.062
-617.604
-670.621
-727.212
-779.476
-783.856
-783.856
-783.856
-783.856
-783.856
-783.812
-11.2787
-10.2152
-10.1307
-8.99668
-8.21504
-7.74461
-8.59607
-8.36555
-12.0787
-15.9574
-23.5521
-35.1201
-54.1849
-81.1904
-124.906
-188.212
-303.61
-501.042
-759.472
-907.666
-909.051
-909.051
-909.051
-1.52721e-32
-1.53804e-32
5.12492e-32
-7.76279e-30
-1.67144e-29
-1.6762e-28
8.24656e-28
1.57864e-26
-2.00387e-27
1.12664e-27
-7.19945e-24
-2.95536e-23
6.99792e-23
-2.89742e-23
3.64975e-25
5.74047e-25
-1.87662
-20.9935
-93.9735
-238.092
-510.736
-870.666
-1034.25
-2.38678e-15
-1.43181e-13
-4.76173e-12
-9.68838e-11
-1.3488e-09
-1.43617e-08
-2.85374e-08
-2.37687e-08
-3.18542e-09
6.47578e-29
-3.64014e-05
-0.00037267
-0.0011045
-0.000902261
-0.000331314
-1.03604e-05
-1.44173e-06
-0.0108944
-0.495285
-4.01526
-21.0353
-122.598
-352.678
-5.6782e-15
-3.33001e-13
-1.07538e-11
-2.05066e-10
-2.78477e-09
-2.96295e-08
-5.06923e-08
-6.93669e-08
-2.80929e-08
-1.78713e-27
-0.000658052
-0.00287192
-0.00315494
-0.00315424
-0.000865089
-9.40097e-06
-1.59745e-06
-1.59741e-06
-4.27082e-05
-0.0012785
-0.0529998
-1.26753
-11.3562
-7.20308e-15
-4.16654e-13
-1.32566e-11
-2.45472e-10
-3.2541e-09
-3.46558e-08
-5.26642e-08
-1.23537e-07
-1.63974e-07
1.11181e-26
-0.00150982
-0.00333099
-0.00333074
-0.00132285
-0.000126943
-4.26325e-05
-2.08415e-05
-1.75313e-06
-0.000115484
-0.000747185
-0.00152446
-0.00325168
-0.0144372
-7.66881e-15
-4.37358e-13
-1.36151e-11
-2.41433e-10
-2.88907e-09
-3.12843e-08
-2.94458e-08
-2.51739e-07
-1.0692e-06
-1.28281e-08
-0.000329671
-0.000827062
-3.79784e-05
-3.83758e-07
-9.51988e-06
-8.64766e-05
-8.64766e-05
-2.92933e-05
-3.42421e-06
-0.00644056
-0.0119732
-0.0119848
-0.0118503
-5.75484e-15
-3.10125e-13
-9.00036e-12
-1.47592e-10
-1.51276e-09
-1.62293e-08
-7.50172e-09
-4.70703e-07
-3.08618e-06
-3.98259e-05
-2.19539e-08
-2.16971e-08
-2.17008e-08
-4.15049e-07
-4.15057e-07
-6.21632e-05
-9.35296e-05
-5.38534e-05
-3.70355e-06
-1.00647e-10
-1.0373e-10
-0.00604403
-0.0220966
-2.77568e-15
-1.45491e-13
-4.12052e-12
-6.59335e-11
-6.36711e-10
-6.66706e-09
-1.11919e-09
-7.14292e-07
-3.54391e-06
-2.56659e-06
-4.99388e-07
-1.83166e-07
-4.6521e-07
-2.19994e-06
-2.11043e-06
-4.86414e-07
-2.02884e-05
-1.84792e-05
-4.71158e-06
-4.24e-07
-1.63399e-08
-5.3678e-13
-5.36781e-13
-1.08732e-15
-5.5991e-14
-1.55868e-12
-2.4504e-11
-2.33564e-10
-2.31631e-09
-1.19767e-09
-4.48038e-07
-2.15692e-06
-1.02043e-06
-5.04193e-07
-2.90102e-07
-5.98772e-07
-2.15924e-06
-2.18423e-06
-5.20523e-07
-2.22753e-07
-2.22752e-07
-3.56876e-07
-3.12097e-07
-1.69509e-07
-4.84867e-08
-9.85361e-08
-3.46301e-16
-1.74703e-14
-4.79124e-13
-7.44985e-12
-7.24891e-11
-6.51271e-10
-1.27615e-09
-1.72478e-07
-2.32825e-07
-3.01697e-07
-2.40241e-07
-1.77133e-07
-2.39186e-07
-6.22033e-07
-8.98545e-07
-1.07732e-06
-1.04061e-06
-9.01879e-07
-6.77982e-07
-3.92469e-07
-2.00805e-07
-1.00962e-07
-3.80708e-08
-8.89995e-17
-4.42894e-15
-1.20542e-13
-1.87365e-12
-1.88824e-11
-1.54981e-10
-1.18666e-09
-3.32491e-08
-6.03176e-08
-7.41161e-08
-6.37421e-08
-4.38579e-08
-6.13431e-08
-9.30967e-08
-1.61897e-07
-2.96758e-07
-2.94422e-07
-2.87741e-07
-2.38542e-07
-1.45783e-07
-7.54784e-08
-4.24741e-08
-2.79939e-08
-1.82308e-17
-9.04039e-16
-2.46663e-14
-3.8953e-13
-4.14102e-12
-3.45688e-11
-6.19693e-10
-3.35469e-09
-8.98036e-09
-1.03806e-08
-8.86365e-09
-7.27075e-09
-1.02615e-08
-1.89045e-08
-3.16538e-08
-3.74712e-08
-3.90617e-08
-3.80241e-08
-3.32087e-08
-2.40165e-08
-1.39656e-08
-7.96108e-09
-4.64763e-09
-2.91905e-18
-1.46411e-16
-4.07058e-15
-6.68394e-14
-7.64652e-13
-6.78361e-12
-1.6448e-10
-3.10039e-10
-4.23219e-10
-4.32691e-10
-4.83452e-10
-9.08527e-10
-2.14244e-09
-3.99069e-09
-5.10552e-09
-5.34815e-09
-5.30339e-09
-4.98491e-09
-4.27601e-09
-3.17889e-09
-1.92335e-09
-1.08122e-09
-6.11006e-10
-3.54136e-19
-1.82549e-17
-5.27683e-16
-9.22719e-15
-1.1513e-13
-1.06241e-12
-2.43177e-11
-4.3939e-11
-4.09043e-11
-3.0591e-11
-4.62283e-11
-1.52084e-10
-4.42143e-10
-8.02005e-10
-9.23355e-10
-9.24802e-10
-8.71291e-10
-7.4272e-10
-5.48273e-10
-3.358e-10
-1.94038e-10
-1.01294e-10
-5.57634e-11
-3.11874e-20
-1.72192e-18
-5.36651e-17
-1.02824e-15
-1.40441e-14
-1.30171e-13
-1.75224e-12
-4.63897e-12
-5.24868e-12
-4.86413e-12
-7.97786e-12
-2.41922e-11
-6.33597e-11
-1.00046e-10
-1.08575e-10
-1.0627e-10
-9.5964e-11
-7.64252e-11
-4.98962e-11
-2.85442e-11
-1.45263e-11
-6.91749e-12
-7.65247e-12
-1.86203e-21
-1.15139e-19
-4.00469e-18
-8.51397e-17
-1.24943e-15
-1.15124e-14
-8.10429e-14
-1.62125e-13
-1.90714e-13
-2.7444e-13
-7.77466e-13
-2.45894e-12
-5.53766e-12
-7.21096e-12
-7.4192e-12
-7.16229e-12
-6.4275e-12
-5.20457e-12
-3.5903e-12
-1.99965e-12
-8.49003e-13
-7.99997e-13
-2.72456e-12
-6.80176e-23
-5.07306e-21
-2.05121e-19
-4.85358e-18
-7.48851e-17
-6.66562e-16
-3.66814e-15
-5.94823e-15
-8.91847e-15
-1.99892e-14
-6.74072e-14
-1.91316e-13
-2.89141e-13
-2.9492e-13
-2.88494e-13
-2.80844e-13
-2.68835e-13
-2.41221e-13
-1.89584e-13
-1.0242e-13
-6.09305e-14
-1.79726e-13
-2.01589e-12
-1.33848e-24
-1.20888e-22
-5.63615e-21
-1.44252e-19
-2.27806e-18
-1.92375e-17
-7.53088e-17
-1.74627e-16
-4.46486e-16
-1.40993e-15
-4.56712e-15
-9.40652e-15
-9.77406e-15
-8.29264e-15
-7.68076e-15
-8.31954e-15
-8.69087e-15
-8.18425e-15
-6.454e-15
-3.35355e-15
-6.41892e-15
-9.88484e-14
-2.06592e-12
-1.99865e-26
-1.18303e-24
-4.01014e-23
-8.95965e-22
-1.62672e-20
-1.95937e-19
-1.17781e-18
-5.36567e-18
-2.27285e-17
-7.92815e-17
-2.13473e-16
-3.4733e-16
-3.48792e-16
-3.00276e-16
-2.54192e-16
-2.40595e-16
-2.25963e-16
-1.95176e-16
-1.18482e-16
-1.46227e-16
-2.4507e-15
-8.97419e-14
-3.08952e-12
-9.29271e-28
-5.75734e-26
-1.98148e-24
-4.37235e-23
-7.69438e-22
-9.2987e-21
-5.74421e-20
-2.58697e-19
-1.01666e-18
-3.19417e-18
-7.01458e-18
-1.03668e-17
-1.06837e-17
-9.69649e-18
-6.90329e-18
-3.44449e-18
-1.84803e-18
-8.68931e-19
-1.59661e-18
-3.61328e-17
-1.8927e-15
-1.06888e-13
-4.52288e-12
-2.10867e-29
-1.33785e-27
-4.50903e-26
-9.12342e-25
-1.3026e-23
-1.29745e-22
-9.9193e-22
-5.57991e-21
-2.37495e-20
-7.18945e-20
-1.4934e-19
-2.66908e-19
-2.99117e-19
-2.77687e-19
-2.00874e-19
-8.88562e-20
-2.42007e-20
-3.06286e-20
-5.39063e-19
-2.15871e-17
-1.88041e-15
-1.30066e-13
-5.34334e-12
-8.51159e-35
-3.7031e-33
-8.37417e-32
-1.11158e-30
-9.58986e-30
-3.45242e-29
-9.18085e-29
-6.61468e-28
-4.30571e-27
-1.86715e-26
-5.50874e-26
-1.18433e-25
-1.32877e-25
-1.06624e-25
-1.30872e-25
-3.96532e-24
-2.08049e-22
-8.32593e-21
-2.59063e-19
-1.36823e-17
-1.90542e-15
-1.37831e-13
-5.55252e-12
-5.77994e-39
-3.39001e-37
-1.0987e-35
-2.33612e-34
-3.95368e-33
-6.17293e-32
-1.83915e-30
-3.12953e-29
-2.35516e-28
-1.07064e-27
-3.18451e-27
-6.69919e-27
-7.30919e-27
-5.78849e-27
-1.94587e-26
-1.31203e-24
-7.52783e-23
-3.25953e-21
-1.15389e-19
-8.0907e-18
-1.4695e-15
-1.07247e-13
-3.86e-12
-2.93949e-42
-1.6826e-40
-5.10316e-39
-9.62612e-38
-1.29269e-36
-1.27639e-35
-9.72556e-35
-5.81831e-34
-2.7496e-33
-1.10167e-32
-3.86343e-32
-3.21174e-31
-9.49438e-31
-3.48761e-29
-4.02184e-27
-3.78645e-25
-2.36051e-23
-1.12106e-21
-4.65567e-20
-4.12503e-18
-6.88559e-16
-4.85725e-14
-1.70465e-12
-8.03261e-48
-5.99537e-46
-2.39928e-44
-6.1515e-43
-1.15019e-41
-1.64827e-40
-1.88554e-39
-1.78543e-38
-1.38011e-37
-9.21469e-37
-5.61379e-36
-2.0189e-34
-3.67817e-32
-6.68612e-30
-8.90414e-28
-9.32441e-26
-6.31989e-24
-3.35115e-22
-1.66817e-20
-1.72526e-18
-2.58155e-16
-1.80192e-14
-6.39618e-13
-2.49122e-51
-2.02959e-49
-8.82345e-48
-2.49402e-46
-5.20018e-45
-8.5804e-44
-1.16411e-42
-1.3634e-41
-1.33981e-40
-1.37498e-39
-8.14354e-38
-2.17924e-35
-5.11667e-33
-1.07107e-30
-1.62144e-28
-1.89611e-26
-1.40614e-24
-8.54158e-23
-5.16279e-21
-5.65952e-19
-7.37702e-17
-5.10913e-15
-1.83776e-13
-9.78172e-58
-1.00046e-55
-6.01759e-54
-2.62548e-52
-9.02404e-51
-2.51593e-49
-5.71001e-48
-1.78656e-46
-3.75581e-44
-1.57487e-41
-5.82063e-39
-2.02365e-36
-5.59348e-34
-1.35769e-31
-2.37161e-29
-3.11343e-27
-2.55527e-25
-1.83271e-23
-1.3486e-21
-1.40742e-19
-1.49651e-17
-1.00617e-15
-3.72151e-14
-5.46924e-63
-9.33001e-61
-8.70214e-59
-5.48578e-57
-2.62034e-55
-1.45792e-53
-3.78881e-51
-2.24716e-48
-1.25778e-45
-6.64659e-43
-3.02677e-40
-1.27907e-37
-4.33493e-35
-1.24956e-32
-2.60322e-30
-3.91057e-28
-3.64506e-26
-3.20477e-24
-2.88693e-22
-2.64822e-20
-2.06136e-18
-1.23964e-16
-6.01886e-15
-3.35599e-67
-8.44021e-65
-1.11925e-62
-1.00971e-60
-9.54233e-59
-3.68471e-56
-3.10745e-53
-2.67675e-50
-2.05247e-47
-1.48375e-44
-9.20646e-42
-5.09789e-39
-2.24402e-36
-7.93441e-34
-2.03755e-31
-3.59923e-29
-3.9365e-27
-4.37744e-25
-4.91339e-23
-4.28265e-21
-2.60127e-19
-1.29174e-17
-3.07528e-15
-9.24594e-72
-3.47493e-69
-7.46874e-67
-1.61297e-64
-9.52389e-62
-1.18287e-58
-1.47289e-55
-1.75764e-52
-1.87584e-49
-1.87174e-46
-1.57238e-43
-1.14943e-40
-6.50755e-38
-2.95458e-35
-9.70565e-33
-2.16911e-30
-2.96295e-28
-4.30754e-26
-6.31605e-24
-7.00494e-22
-5.39225e-20
-3.63431e-18
-4.8954e-15
-1.51087e-75
-7.28613e-73
-2.06152e-70
-6.46593e-68
-5.64199e-65
-9.43327e-62
-1.68689e-58
-2.95436e-55
-4.68453e-52
-7.1419e-49
-8.8256e-46
-1.00468e-42
-8.63943e-40
-6.03554e-37
-2.85447e-34
-8.7116e-32
-1.52853e-29
-2.8405e-27
-5.61875e-25
-8.60985e-23
-9.93262e-21
-1.73402e-18
-5.78404e-15
-8.06122e-80
-5.62172e-77
-2.34434e-74
-1.16169e-71
-1.89005e-68
-5.83771e-65
-1.85095e-61
-5.53712e-58
-1.35822e-54
-2.78817e-51
-4.62366e-48
-6.81352e-45
-7.49688e-42
-7.02338e-39
-4.36553e-36
-2.0089e-33
-5.53875e-31
-1.61138e-28
-5.98124e-26
-1.99143e-23
-5.88326e-21
-4.72966e-18
-5.41635e-15
-1.21038e-83
-1.00695e-79
-1.05164e-75
-7.76632e-72
-4.44274e-68
-2.03605e-64
-7.61313e-61
-2.32388e-57
-5.63186e-54
-1.01816e-50
-1.40715e-47
-1.4938e-44
-1.26248e-41
-8.24413e-39
-4.35532e-36
-1.8184e-33
-6.62076e-31
-2.65175e-28
-1.38224e-25
-7.97237e-23
-3.38703e-20
-3.29483e-17
-1.18603e-14
-6.96316e-83
-1.4693e-78
-1.49905e-74
-1.0183e-70
-5.23973e-67
-2.21352e-63
-7.64954e-60
-2.17877e-56
-5.05968e-53
-9.27668e-50
-1.35014e-46
-1.48827e-43
-1.28141e-40
-8.52328e-38
-4.49473e-35
-1.86083e-32
-6.6475e-30
-2.54478e-27
-1.20879e-24
-6.56727e-22
-3.24655e-19
-1.58215e-16
-2.36561e-14
-1.14108e-81
-2.20655e-77
-2.09685e-73
-1.3071e-69
-6.09102e-66
-2.34769e-62
-7.40525e-59
-1.92427e-55
-4.11971e-52
-7.42115e-49
-1.19237e-45
-1.36879e-42
-1.18734e-39
-8.01221e-37
-4.25167e-34
-1.80775e-31
-6.70703e-29
-2.61462e-26
-1.17803e-23
-4.53514e-21
-1.20483e-18
-1.99361e-16
-1.88031e-14
-1.88055e-80
-3.50739e-76
-3.19872e-72
-1.8904e-68
-8.16998e-65
-2.85095e-61
-8.12359e-58
-1.9095e-54
-3.69832e-51
-6.45137e-48
-1.17389e-44
-1.40487e-41
-1.20378e-38
-8.12483e-36
-4.29858e-33
-1.80862e-30
-6.10715e-28
-1.68694e-25
-3.84194e-23
-7.26792e-21
-1.12887e-18
-1.37847e-16
-1.18875e-14
-3.28867e-79
-6.06056e-75
-5.45155e-71
-3.15664e-67
-1.31105e-63
-4.24876e-60
-1.11083e-56
-2.3993e-53
-4.21918e-50
-5.9259e-47
-6.52049e-44
-5.85666e-41
-4.25264e-38
-2.48627e-35
-1.16335e-32
-4.38663e-30
-1.33271e-27
-3.29488e-25
-6.60442e-23
-1.06998e-20
-1.36908e-18
-1.3525e-16
-9.92601e-15
-5.60375e-78
-9.81156e-74
-8.23541e-70
-4.34844e-66
-1.58562e-62
-4.20464e-59
-8.30136e-56
-1.24263e-52
-1.42745e-49
-1.27563e-46
-9.00682e-44
-5.12354e-41
-2.37846e-38
-9.0342e-36
-2.85125e-33
-7.63346e-31
-1.76538e-28
-3.58207e-26
-6.42595e-24
-1.02174e-21
-1.42223e-19
-1.69143e-17
-1.6399e-15
-2.14148e-77
-3.46799e-73
-2.65739e-69
-1.26526e-65
-4.13545e-62
-9.81029e-59
-1.73828e-55
-2.35446e-52
-2.46866e-49
-2.03037e-46
-1.31999e-43
-6.86036e-41
-2.87579e-38
-9.90485e-36
-2.85715e-33
-7.12892e-31
-1.58173e-28
-3.15561e-26
-5.60386e-24
-8.73202e-22
-1.16876e-19
-1.32424e-17
-1.23157e-15
-532.999
-533.379
-533.445
-322.516
-658.175
-658.54
-658.634
-650.221
-783.763
-783.806
-783.818
-783.768
-909.051
-909.051
-909.046
-909.045
-1034.25
-1034.25
-1034.25
-1034.25
-556.735
-726.267
-958.503
-1135.26
-25.8968
-52.4801
-103.942
-175.924
-0.0533587
-0.195771
-0.741446
-2.06479
-0.0118594
-0.014259
-0.0179026
-0.0215792
-0.067826
-0.068247
-0.0682293
-0.0682479
-5.53036e-07
-7.49565e-07
-0.0532527
-0.0733744
-1.42277e-05
-8.27021e-07
-1.14032e-09
-0.00412533
-9.50794e-09
-2.82393e-09
-1.2151e-09
-8.24336e-10
-1.88149e-08
-1.46789e-08
-1.04122e-08
-5.4258e-09
-3.21842e-09
-2.54502e-09
-1.9142e-09
-1.56992e-09
-4.22682e-10
-3.40078e-10
-2.64039e-10
-2.15199e-10
-4.52238e-11
-4.55283e-11
-4.98049e-11
-6.15709e-11
-1.03344e-11
-1.50651e-11
-2.43378e-11
-4.25911e-11
-5.93638e-12
-1.06381e-11
-2.04781e-11
-4.28601e-11
-5.05936e-12
-9.84421e-12
-2.25405e-11
-7.26097e-11
-5.62384e-12
-1.30418e-11
-4.45295e-11
-2.17106e-10
-9.42655e-12
-2.64026e-11
-1.16253e-10
-6.68473e-10
-1.5305e-11
-5.20111e-11
-2.70723e-10
-1.78497e-09
-1.95115e-11
-7.59226e-11
-4.27234e-10
-3.49037e-09
-2.14416e-11
-9.07378e-11
-5.26303e-10
-3.60314e-09
-1.80079e-11
-9.07827e-11
-5.3869e-10
-2.10618e-09
-8.94303e-12
-5.22902e-11
-3.13351e-10
-1.18815e-09
-3.79789e-12
-2.4154e-11
-1.56177e-10
-6.64719e-10
-1.29995e-12
-1.01666e-11
-8.72453e-11
-5.62003e-10
-3.92003e-13
-5.84269e-12
-8.44779e-11
-1.02582e-09
-2.39372e-13
-8.10317e-12
-2.07308e-10
-3.08608e-09
-4.85371e-13
-2.19964e-11
-4.64636e-10
-5.53625e-09
-8.32628e-13
-3.23105e-11
-6.00652e-10
-6.78378e-09
-8.85634e-13
-3.36276e-11
-5.57288e-10
-4.01848e-09
-6.23646e-13
-1.619e-11
-2.04771e-10
-1.53303e-09
-6.16476e-13
-1.22505e-11
-1.49171e-10
-1.18655e-09
-1.01849e-12
-1.84437e-11
-2.15832e-10
-1.66979e-09
-7.54564e-13
-1.396e-11
-1.77475e-10
-1.53596e-09
-4.83008e-13
-9.35058e-12
-1.25996e-10
-1.15858e-09
-3.77103e-13
-7.16524e-12
-9.97749e-11
-9.84311e-10
-9.01864e-14
-2.59497e-12
-5.74897e-11
-9.18288e-10
-6.69049e-14
-1.93912e-12
-4.46572e-11
-7.69984e-10
-23.5345
-4.74926
-0.533678
-0.0112544
-1.44205e-05
-4.37799e-08
-1.50532e-08
-2.68444e-09
-6.17157e-10
-2.14413e-10
-1.04714e-09
-2.8247e-09
-7.18689e-09
-1.79485e-08
-5.12609e-08
-1.21526e-07
-4.7157e-08
-1.78787e-13
-12.1317
-626.458
-365.109
-30.527
-0.307944
-0.000454493
-5.30956e-07
-1.38636e-07
-9.51309e-08
-8.53691e-08
-2.64728e-10
-1.41085e-09
-1.41085e-09
-7.33788e-09
-1.95275e-08
-4.28304e-08
-6.75853e-08
-2.29812e-07
-2.22312e-13
-276.552
-783.854
-748.416
-284.468
-11.729
-0.137883
-5.30232e-07
-1.15234e-07
-1.4776e-07
-4.86389e-07
-3.43092e-06
-7.78076e-06
-4.97188e-06
-1.37284e-09
-1.37745e-09
-1.37284e-09
-1.4086e-09
-2.05564e-06
-2.62703e-13
-524.546
-909.048
-909.051
-799.73
-206.941
-2.69884e-08
-2.69886e-08
-3.32365e-08
-6.126e-08
-1.79032e-07
-1.53133e-06
-6.12113e-06
-7.98855e-06
-1.78395e-05
-6.87563e-05
-8.72727e-05
-8.7308e-05
-2.07137e-05
-3.06814e-13
-608.151
-1034.25
-1034.25
-1034.25
-903.643
-425.912
-19.3386
-3.599e-13
-3.59984e-13
-3.59884e-13
-3.59987e-13
-3.59884e-13
-3.59987e-13
-3.59891e-13
-1.55506e-05
-5.53915e-05
-5.92827e-05
-6.91932e-05
-3.46603e-13
-678.773
-1159.44
-1159.44
-1159.44
-1158.66
-1106.51
-908.213
-555.815
-294.387
-221.96
-179.831
-131.14
-87.8723
-40.916
-3.93795e-13
-3.91686e-13
-3.93811e-13
-0.733179
-6.16964
-860.904
-413.237
-948.019
-1261.07
-1284.63
-1284.63
-1284.63
-1271.19
-1210.63
-1165.32
-1127.73
-1080.11
-1021.64
-954.525
-825.711
-581.461
-276.999
-188.265
-508.174
-1175.92
-6.03433
-80.4586
-292.986
-698.565
-1123.38
-1318.07
-1398.21
-1409.71
-1409.71
-1409.71
-1409.71
-1409.71
-1409.71
-1409.71
-1383.52
-1302.36
-1204
-1313.63
-1399.36
-0.0249811
-0.0036448
-4.30931
-33.1451
-137.408
-323.361
-582.755
-779.202
-843.893
-886.838
-948.162
-1044.18
-1188.21
-1392.87
-1527.43
-1527.43
-1524.93
-1524.93
-1523.63
-0.0436846
-0.00394221
-0.000479211
-0.00300737
-0.596125
-3.51329
-10.5671
-20.2019
-29.047
-39.0255
-57.4006
-97.0952
-177.29
-334.145
-692.378
-1324.27
-1632.57
-1649.31
-1616.12
-0.0733944
-0.0203502
-4.64441e-06
-2.84313e-07
-1.6632e-06
-4.70365e-05
-0.00113385
-0.00445725
-0.00982521
-0.0196714
-0.0506812
-0.208475
-1.2181
-8.52394
-0.00712568
-408.592
-1423.63
-1771.54
-1584.04
-0.0124666
-0.00765811
-0.000285316
-3.04295e-07
-1.48332e-07
-9.27614e-08
-7.08484e-08
-6.60097e-08
-9.07968e-08
-2.78248e-07
-2.78322e-07
-1.39423e-05
-0.000322464
-0.0081538
-0.00762481
-41.0319
-1101.54
-1877.38
-1675.28
-8.24336e-10
-1.07512e-05
-3.6731e-05
-1.49111e-05
-2.06868e-06
-5.70444e-07
-1.8752e-07
-6.95153e-08
-1.1533e-06
-1.14324e-05
-9.50392e-06
-2.82681e-06
-2.82684e-06
-2.82681e-06
-2.54839
-188.088
-1428.75
-2017.53
-1791.64
-1.58102e-09
-1.58104e-09
-6.50516e-07
-1.21142e-06
-8.14862e-07
-3.53243e-07
-1.48667e-07
-7.37905e-08
-7.06707e-07
-8.73015e-06
-7.52374e-06
-3.24046e-06
-0.0116861
-1.663
-61.2256
-795.8
-1946.69
-2141.78
-1771.56
-9.9433e-10
-3.05961e-09
-9.92311e-09
-3.99594e-08
-7.38362e-08
-1.02877e-07
-9.90866e-08
-8.05174e-08
-2.48214e-07
-4.14468e-06
-7.29834e-06
-3.18787e-06
-0.0485957
-23.6117
-540.758
-1671.2
-2123.28
-2143.72
-1021.61
-2.45474e-10
-9.96905e-10
-1.19639e-08
-1.30521e-07
-2.03682e-07
-1.08513e-07
-1.17956e-07
-3.10036e-07
-3.8769e-07
-1.75329e-06
-6.85276e-06
-3.34496e-06
-0.213957
-123.171
-1376.86
-2176.87
-2228.12
-1694.41
-763.169
-2.12686e-10
-3.56937e-10
-6.01355e-09
-1.52481e-07
-5.53096e-06
-8.5305e-06
-1.85076e-06
-3.26115e-07
-3.85186e-07
-7.72597e-07
-3.99022e-06
-3.49882e-06
-0.109931
-59.9432
-892.934
-1897.46
-2307.05
-1834.79
-802.789
-4.03488e-10
-1.02042e-09
-6.7709e-08
-4.56176e-07
-4.56241e-07
-2.97631e-05
-7.053e-05
-2.80962e-05
-4.04229e-07
-4.04184e-07
-1.40044e-06
-1.40036e-06
-0.00109171
-4.15764
-12.2379
-529.116
-1834.76
-1947.96
-1185.56
-7.42185e-10
-8.42267e-09
-2.07579e-08
-9.11211e-09
-8.81924e-05
-8.75085e-05
-7.53333e-05
-9.1434e-05
-9.33098e-05
-3.44348e-05
-7.0233e-06
-2.36177e-06
-1.6144e-06
-0.138873
-1.12892e-05
-41.708
-951.205
-1227.87
-761.847
-1.6705e-09
-1.89431e-08
-4.11864e-07
-9.57216e-09
-9.31846e-05
-0.00191313
-0.000153974
-9.5534e-05
-0.000120649
-0.00012066
-4.2357e-05
-2.81896e-06
-1.68718e-06
-0.00207717
-1.17967e-05
-7.99189
-356.686
-1075.52
-462.57
-4.57973e-09
-4.57968e-09
-4.64635e-06
-2.13886e-06
-3.17048e-07
-0.0028482
-0.0321423
-0.0136512
-3.18787e-05
-3.18859e-05
-1.52779e-05
-1.75971e-06
-1.75944e-06
-1.09917e-05
-1.27109e-05
-4.75361e-06
-0.851826
-1132.28
-482.456
-1.30963e-08
-1.4255e-08
-1.13549e-05
-9.68526e-06
-8.69765e-07
-1.28936e-07
-0.0352622
-0.0528828
-0.0302857
-2.25221e-06
-2.20404e-06
-0.000162043
-0.000103538
-8.28812e-06
-1.0063e-05
-4.9497e-06
-9.33283e-08
-1178.5
-502.342
-2.22581e-08
-1.48192e-08
-5.20214e-06
-0.000131191
-3.43348e-05
-1.34116e-07
-0.0109084
-0.10283
-0.103001
-0.0955695
-0.0209066
-0.000906206
-4.90382e-05
-7.2095e-06
-7.70002e-06
-5.71895e-06
-9.70229e-08
-829.11
-651.798
-2.78496e-08
-2.3963e-08
-1.54416e-08
-0.00031576
-0.000433295
-4.78168e-05
-6.51763e-05
-0.0132164
-0.0951497
-0.100857
-0.0841743
-0.00579563
-1.20381e-05
-7.48403e-06
-8.04228e-06
-7.00348e-06
-1.00717e-07
-71.2321
-1033.79
-2.83832e-08
-2.52771e-08
-1.60092e-08
-1.35797e-08
-0.0053233
-0.0054573
-0.0018887
-0.0015056
-0.00480043
-0.0666221
-0.0610754
-0.00639322
-7.75856e-06
-7.75856e-06
-1.7379e-05
-1.03318e-05
-9.88724e-07
-1.04412e-07
-1071.87
-1.79801e-08
-2.30501e-08
-3.2254e-08
-1.39203e-08
-0.00874266
-0.00908339
-0.00315927
-0.00155882
-0.00154684
-0.0052164
-0.00523089
-0.00173429
-0.00018482
-0.000177904
-4.80279e-05
-6.69779e-06
-6.99881e-07
-1.08107e-07
-1105.9
-7.34461e-09
-2.91913e-08
-2.09714e-07
-1.45407e-08
-0.00902765
-0.00527288
-0.00305752
-0.0217335
-0.000151712
-0.000159256
-0.000151712
-0.000159263
-0.00370056
-0.000625561
-2.569e-05
-1.11801e-07
-1.11801e-07
-1.11801e-07
-1143.58
-5.97628e-09
-7.11677e-08
-6.44527e-07
-1.48718e-08
-0.00744754
-0.00199859
-0.00199885
-0.154592
-0.146309
-0.00982244
-0.0863626
-0.125957
-0.00367014
-0.000371717
-2.63232e-05
-0.000694554
-0.246005
-1.15496e-07
-1043.21
-1.002e-08
-1.40911e-07
-6.46555e-07
-1.2951e-05
-0.000103959
-0.000104029
-0.035479
-0.564856
-0.719487
-0.662443
-0.661456
-0.144114
-8.99397e-07
-7.83518e-05
-4.01756e-05
-0.0291973
-0.536668
-1.1919e-07
-177.98
-2.6394e-08
-2.30928e-07
-2.30927e-07
-0.00037979
-0.000428809
-0.00143574
-0.199205
-0.742332
-0.742332
-0.742332
-0.720547
-0.0150093
-9.29584e-07
-1.13438e-05
-1.13422e-05
-0.110194
-0.53083
-1.22885e-07
-123.697
-4.75163e-08
-3.07013e-07
-1.25154e-06
-0.00103494
-0.00584721
-0.00494001
-0.206998
-0.764651
-0.764651
-0.690851
-0.160132
-1.56468e-07
-9.56075e-07
-6.99919e-05
-0.0616666
-0.118919
-0.088263
-1.26579e-07
-990.152
-5.994e-08
-3.24263e-07
-1.79825e-06
-0.00154613
-0.00869378
-0.00805839
-0.0631849
-0.42331
-0.524207
-0.0992811
-1.61035e-07
-1.61035e-07
-1.61035e-07
-0.00102747
-0.0120799
-0.030296
-0.297921
-38.8927
-1328.02
-6.02541e-08
-2.3534e-07
-1.74921e-06
-0.00119157
-0.00894246
-0.00688975
-0.000799296
-0.00612402
-0.0220528
-0.00259755
-1.65602e-07
-0.000524352
-0.0330505
-0.145909
-0.000682526
-0.000660568
-80.5188
-98.519
-1365.68
-2.68139e-08
-1.11942e-07
-7.4247e-07
-0.000287469
-0.00575139
-0.0070613
-0.000110193
-0.000110193
-0.000110193
-0.000127541
-0.000971973
-0.00244638
-0.0076196
-1.577e-07
-211.545
-1615.52
-1533.47
-207.87
-1403.34
-1.14195e-08
-6.50891e-08
-4.95867e-07
-8.29535e-05
-0.00174016
-0.00243612
-0.00011315
-0.00011315
-0.00011315
-0.000512794
-0.0011335
-0.00101116
-3.57853e-05
-1.56827e-07
-1137.27
-2246.46
-2246.43
-1180.67
-366.18
-9.74353e-09
-5.75251e-08
-2.0433e-07
-2.98033e-05
-0.00176236
-0.00224018
-0.000116107
-0.000186366
-0.000685268
-0.000889505
-0.000889748
-3.51359e-06
-0.000202676
-1.60925e-07
-452.579
-2007.7
-2305.17
-1069.66
-32.4178
-1.33359e-08
-7.69539e-08
-2.01219e-07
-5.27841e-06
-0.00344879
-0.00733221
-0.000119065
-0.00022456
-0.000854489
-0.000709639
-0.00016161
-3.50836e-06
-4.3143e-06
-2.46779
-26.328
-346.071
-463.594
-312.238
-26.3455
-1.3671e-08
-8.31722e-08
-2.1389e-07
-2.68998e-06
-0.00286372
-0.0239087
-0.000122022
-0.000122022
-0.000448293
-5.06762e-05
-2.2725e-05
-0.0939211
-0.216127
-0.164413
-0.163627
-1.01465
-1.47988
-3.24422
-17.0393
-1.11871e-08
-7.7431e-08
-2.02382e-07
-2.62481e-07
-5.70545e-05
-0.0393242
-0.0771879
-0.0046755
-1.7673e-05
-1.79862e-05
-0.0717915
-0.121401
-0.0513445
-0.00250684
-0.000514076
-0.000331898
-1.7862e-07
-0.0874791
-4.11099
-1.03307e-08
-7.88347e-08
-2.72836e-07
-4.35229e-07
-9.99846e-05
-0.0468902
-0.107935
-0.103101
-0.0527419
-0.0767982
-0.0882555
-0.027047
-0.00333732
-0.00558977
-0.00593317
-0.00158676
-1.8712e-07
-0.0150994
-0.0977986
-1.57449e-08
-1.71725e-07
-8.02476e-07
-1.80799e-06
-0.000165351
-0.0212623
-0.110493
-0.112818
-0.102177
-0.0289799
-0.0247237
-0.00151309
-0.0124877
-0.0131904
-0.0131655
-0.00406193
-1.87073e-07
-0.000338012
-0.0230497
-1.54243e-08
-2.30105e-07
-1.78012e-06
-9.05414e-06
-0.000120296
-0.00189369
-0.0186633
-0.0442789
-0.0174964
-0.000591608
-7.34879e-05
-7.58438e-05
3.8179e-22
9.53267e-28
-0
-0.0329608
-0.0104961
-3.11348e-05
-0.000451888
)
;

boundaryField
{
    leftWall
    {
        type            calculated;
        value           nonuniform List<scalar> 
50
(
-29.4294
-88.2881
-147.147
-206.006
-264.864
-323.723
-382.582
-441.44
-533.467
-654.278
-482.461
-11.2787
-1.52721e-32
-2.38678e-15
-5.6782e-15
-7.20308e-15
-7.66881e-15
-5.75484e-15
-2.77568e-15
-1.08732e-15
-3.46301e-16
-8.89995e-17
-1.82308e-17
-2.91905e-18
-3.54136e-19
-3.11874e-20
-1.86203e-21
-6.80176e-23
-1.33848e-24
-1.99865e-26
-9.29271e-28
-2.10867e-29
-8.51159e-35
-5.77994e-39
-2.93949e-42
-8.03261e-48
-2.49122e-51
-9.78172e-58
-5.46924e-63
-3.35599e-67
-9.24594e-72
-1.51087e-75
-8.06122e-80
-1.21038e-83
-6.96316e-83
-1.14108e-81
-1.88055e-80
-3.28867e-79
-5.60375e-78
-2.14148e-77
)
;
    }
    rightWall
    {
        type            calculated;
        value           nonuniform List<scalar> 
50
(
-6.46366e-09
-1.18582e-07
-4.58627e-07
-7.23546e-07
-9.16798e-07
-1.12053e-06
-1.32426e-06
-0.00522732
-12.1317
-276.552
-524.546
-608.151
-678.773
-860.904
-1175.92
-1399.36
-1523.63
-1616.12
-1584.04
-1675.28
-1791.64
-1771.56
-1021.61
-763.169
-802.789
-1185.56
-761.847
-462.57
-482.456
-502.342
-651.798
-1033.79
-1071.87
-1105.9
-1143.58
-1043.21
-177.98
-123.697
-990.152
-1328.02
-1365.68
-1403.34
-366.18
-32.4178
-26.3455
-17.0393
-4.11099
-0.0977986
-0.0230497
-0.000451888
)
;
    }
    lowerWall
    {
        type            calculated;
        value           nonuniform List<scalar> 
62
(
0
0
0
0
0
0
0
0
0
0
0
0
0
0
0
0
0
0
0
0
0
0
0
-29.4138
-88.2414
-147.126
-206.006
-264.864
-323.499
-382.196
-440.996
-470.457
-470.792
-470.85
-284.672
-1.8278e-20
-2.29419e-18
-1.75128e-16
-7.69639e-15
-6.85663e-13
-1.68833e-11
-1.60786e-09
-1.85531e-09
0
0
0
0
0
0
0
0
0
0
0
0
0
0
0
0
0
0
0
)
;
    }
    atmosphere
    {
        type            calculated;
        value           nonuniform List<scalar> 
46
(
-0
-0
-0
-0
-0
-0
-0
-0
-0
-0
-0
-0
-0
-0
-0
-0
-0
-0
-0
-0
-0
-0
-0
-0
-0
-4.51505e-11
-7.7849e-10
-1.55947e-08
-2.32647e-07
-1.79978e-06
-9.15416e-06
-0.000121625
-0.00191461
-0.0188695
-0.044768
-0.0176897
-0.000598144
-7.42997e-05
-7.66816e-05
-0
-0
-0
-0
-0.010612
-3.14788e-05
-0.00045688
)
;
    }
    defaultFaces
    {
        type            empty;
    }
}


// ************************************************************************* //
