/*--------------------------------*- C++ -*----------------------------------*\
| =========                 |                                                 |
| \\      /  F ield         | OpenFOAM: The Open Source CFD Toolbox           |
|  \\    /   O peration     | Version:  2012                                  |
|   \\  /    A nd           | Website:  www.openfoam.com                      |
|    \\/     M anipulation  |                                                 |
\*---------------------------------------------------------------------------*/
FoamFile
{
    version     2.0;
    format      ascii;
    class       volVectorField;
    location    "0.42";
    object      U;
}
// * * * * * * * * * * * * * * * * * * * * * * * * * * * * * * * * * * * * * //

dimensions      [0 1 -1 0 0 0 0];


internalField   nonuniform List<vector> 
2268
(
(0.017036 -0.00875192 0)
(0.0560062 -0.00879928 0)
(0.0905369 -0.00828939 0)
(0.125198 -0.00827995 0)
(0.159456 -0.00842927 0)
(0.19514 -0.00827067 0)
(0.227853 -0.00725679 0)
(0.254768 -0.00722341 0)
(0.286884 -0.00653454 0)
(0.30801 -0.0056646 0)
(0.331177 -0.00509898 0)
(0.350059 -0.00476972 0)
(0.366397 -0.003172 0)
(0.373617 -0.00144207 0)
(0.376344 -0.000295533 0)
(0.371687 0.000673738 0)
(0.362065 0.00207275 0)
(0.342156 0.0021856 0)
(0.313753 0.00328925 0)
(0.271137 0.00247652 0)
(0.212871 0.00306222 0)
(0.146775 0.00313472 0)
(0.0572303 0.026733 0)
(0.0169755 -0.025763 0)
(0.0558762 -0.0259369 0)
(0.0906703 -0.0244034 0)
(0.125548 -0.02429 0)
(0.159747 -0.0246169 0)
(0.195362 -0.0240582 0)
(0.228013 -0.0209108 0)
(0.255335 -0.0206656 0)
(0.287526 -0.0186465 0)
(0.308677 -0.015214 0)
(0.331996 -0.0148311 0)
(0.351993 -0.0117857 0)
(0.365944 -0.00803167 0)
(0.374866 -0.00315463 0)
(0.378735 0.00114135 0)
(0.374409 0.006202 0)
(0.36393 0.0118075 0)
(0.342714 0.0208252 0)
(0.312247 0.0301798 0)
(0.267768 0.0454297 0)
(0.20542 0.0556109 0)
(0.130963 0.0705634 0)
(0.0326664 0.0696021 0)
(0.0168783 -0.0431899 0)
(0.0558605 -0.0436399 0)
(0.0910363 -0.0412232 0)
(0.126226 -0.0409383 0)
(0.160363 -0.0414301 0)
(0.19587 -0.0405528 0)
(0.228391 -0.0356066 0)
(0.256553 -0.0353589 0)
(0.288834 -0.0317875 0)
(0.310041 -0.0266537 0)
(0.334539 -0.025662 0)
(0.353612 -0.0207655 0)
(0.367611 -0.0141063 0)
(0.3772 -0.00745526 0)
(0.383383 -0.000228414 0)
(0.379673 0.00767979 0)
(0.370198 0.0168457 0)
(0.350767 0.0266087 0)
(0.325022 0.038412 0)
(0.285603 0.052938 0)
(0.229328 0.0674334 0)
(0.157919 0.0847905 0)
(0.0474281 0.104032 0)
(0.0167561 -0.0601204 0)
(0.0559746 -0.0609697 0)
(0.0914753 -0.0576365 0)
(0.127018 -0.0570366 0)
(0.161176 -0.0575067 0)
(0.196503 -0.0561946 0)
(0.228868 -0.0495573 0)
(0.258145 -0.0492033 0)
(0.290421 -0.043914 0)
(0.311906 -0.036735 0)
(0.337908 -0.0354424 0)
(0.35559 -0.0272798 0)
(0.370812 -0.0192006 0)
(0.380982 -0.0104198 0)
(0.386996 -2.70563e-05 0)
(0.384223 0.0126886 0)
(0.374077 0.0255128 0)
(0.35357 0.0425352 0)
(0.324589 0.0610788 0)
(0.284421 0.0911647 0)
(0.225586 0.116062 0)
(0.155789 0.156933 0)
(0.0426188 0.166457 0)
(0.0166012 -0.0775865 0)
(0.0563054 -0.0789785 0)
(0.0921109 -0.0748222 0)
(0.128046 -0.0739081 0)
(0.162405 -0.0742946 0)
(0.1977 -0.072581 0)
(0.229929 -0.0647684 0)
(0.260596 -0.0644818 0)
(0.292571 -0.0572629 0)
(0.31456 -0.0491049 0)
(0.342343 -0.0464366 0)
(0.358654 -0.0363148 0)
(0.375843 -0.0262923 0)
(0.385884 -0.0151392 0)
(0.393298 -0.00200515 0)
(0.391653 0.0136913 0)
(0.385449 0.031008 0)
(0.368026 0.0498229 0)
(0.345166 0.0706118 0)
(0.309503 0.0993951 0)
(0.257649 0.127683 0)
(0.189581 0.170801 0)
(0.0671029 0.197899 0)
(0.016699 -0.09454 0)
(0.0565761 -0.0966248 0)
(0.0926396 -0.0915027 0)
(0.129045 -0.0902205 0)
(0.163746 -0.0903822 0)
(0.19901 -0.0880687 0)
(0.23136 -0.0792284 0)
(0.263354 -0.0787567 0)
(0.294631 -0.069367 0)
(0.31771 -0.0601525 0)
(0.347091 -0.0562536 0)
(0.362975 -0.0429245 0)
(0.380812 -0.0320355 0)
(0.392411 -0.0183936 0)
(0.399499 -0.00267241 0)
(0.398811 0.0167579 0)
(0.392221 0.0368204 0)
(0.376017 0.0620826 0)
(0.35071 0.0889722 0)
(0.314943 0.133372 0)
(0.258375 0.173114 0)
(0.193592 0.248162 0)
(0.0592918 0.287521 0)
(0.0173878 -0.11226 0)
(0.0566769 -0.114911 0)
(0.0933146 -0.109116 0)
(0.130373 -0.107562 0)
(0.165585 -0.107409 0)
(0.200944 -0.104594 0)
(0.233715 -0.095236 0)
(0.266942 -0.0944453 0)
(0.297353 -0.0830497 0)
(0.322164 -0.0739508 0)
(0.353086 -0.0679982 0)
(0.368272 -0.0523122 0)
(0.388757 -0.0404517 0)
(0.39934 -0.0240901 0)
(0.408498 -0.00536309 0)
(0.408044 0.0169475 0)
(0.406945 0.0413573 0)
(0.393092 0.0691839 0)
(0.377336 0.0989083 0)
(0.347444 0.142433 0)
(0.30303 0.184227 0)
(0.244889 0.263579 0)
(0.10071 0.317193 0)
(0.0183338 -0.129487 0)
(0.0566749 -0.132454 0)
(0.0938156 -0.126273 0)
(0.131617 -0.124314 0)
(0.1674 -0.123668 0)
(0.202861 -0.120198 0)
(0.236239 -0.11034 0)
(0.270469 -0.108747 0)
(0.300253 -0.0953691 0)
(0.327566 -0.0863562 0)
(0.35901 -0.077951 0)
(0.374262 -0.0595374 0)
(0.397303 -0.0466164 0)
(0.407597 -0.0273453 0)
(0.418319 -0.00663155 0)
(0.418543 0.0179622 0)
(0.418047 0.0440873 0)
(0.406006 0.0766385 0)
(0.389006 0.110767 0)
(0.362981 0.169541 0)
(0.313127 0.222032 0)
(0.260293 0.346053 0)
(0.10737 0.451202 0)
(0.019506 -0.0204333 0)
(-0.0819296 -0.0165672 0)
(-0.00196391 -0.0245513 0)
(-0.0556758 -0.00858807 0)
(-0.0181044 -0.00036839 0)
(-0.106864 0.00812357 0)
(-0.106684 0.00776446 0)
(-0.226038 0.0135739 0)
(-0.264666 0.0181677 0)
(-0.443949 0.0296294 0)
(-0.539663 0.0403232 0)
(-0.825339 0.0659195 0)
(-1.08706 0.084712 0)
(-1.61423 0.115394 0)
(-2.23298 0.115237 0)
(-2.74879 0.0749206 0)
(-2.88671 -0.0635679 0)
(-1.961 -0.240719 0)
(-0.831828 -0.289627 0)
(0.0193042 0.043617 0)
(-0.0869444 0.0260159 0)
(-0.01557 0.00700803 0)
(-0.0562492 0.0165969 0)
(-0.0112331 0.0149882 0)
(-0.105987 0.0311542 0)
(-0.104393 0.0352555 0)
(-0.224625 0.0560969 0)
(-0.262401 0.0659058 0)
(-0.439366 0.0913407 0)
(-0.5325 0.112017 0)
(-0.814614 0.172828 0)
(-1.07246 0.239994 0)
(-1.64266 0.378184 0)
(-2.20355 0.350338 0)
(-2.61335 0.212608 0)
(-2.57207 -0.280588 0)
(-1.57509 -0.631132 0)
(-1.01051 -0.911836 0)
(-0.0120345 0.00382442 0)
(-0.118121 -0.00352607 0)
(-0.0160211 -0.0438515 0)
(-0.049365 -0.00923365 0)
(-0.00828122 0.0143263 0)
(-0.0954716 0.0498008 0)
(-0.0959823 0.0510052 0)
(-0.21432 0.0833889 0)
(-0.245038 0.100819 0)
(-0.421593 0.148145 0)
(-0.505933 0.189244 0)
(-0.780346 0.300436 0)
(-1.03557 0.422337 0)
(-1.53019 0.604246 0)
(-1.95693 0.51045 0)
(-2.27867 0.252396 0)
(-2.02283 -0.526301 0)
(-1.07683 -0.902244 0)
(-0.694047 -1.39012 0)
(-0.00255912 0.0966917 0)
(-0.107861 0.0310347 0)
(-0.00759414 -0.0290528 0)
(-0.0348607 0.0147316 0)
(0.00692454 0.0267241 0)
(-0.0901736 0.069727 0)
(-0.0882458 0.0776156 0)
(-0.208305 0.121948 0)
(-0.233675 0.145313 0)
(-0.398449 0.206705 0)
(-0.463454 0.255009 0)
(-0.709833 0.404657 0)
(-0.922245 0.549236 0)
(-1.31998 0.777325 0)
(-1.63104 0.651223 0)
(-1.93933 0.251454 0)
(-1.63508 -0.795218 0)
(-0.774871 -1.19207 0)
(-0.404264 -1.67246 0)
(-0.0409736 0.044729 0)
(-0.171417 -0.00642616 0)
(-0.0262496 -0.0815924 0)
(-0.0262929 -0.0143949 0)
(0.0189931 0.0317951 0)
(-0.0707605 0.0927775 0)
(-0.0715095 0.0943637 0)
(-0.191383 0.148093 0)
(-0.206819 0.17293 0)
(-0.369233 0.249696 0)
(-0.412995 0.310736 0)
(-0.638263 0.500665 0)
(-0.786621 0.667096 0)
(-1.09081 0.913654 0)
(-1.26388 0.755936 0)
(-1.55716 0.267518 0)
(-1.18269 -1.03991 0)
(-0.568355 -1.42213 0)
(-0.237981 -1.89625 0)
(-0.0278685 0.186202 0)
(-0.169761 0.0343317 0)
(-0.00973816 -0.0983129 0)
(0.00494578 -0.00199781 0)
(0.046088 0.0373525 0)
(-0.0595113 0.109354 0)
(-0.0638041 0.12018 0)
(-0.182503 0.18205 0)
(-0.190913 0.211825 0)
(-0.344672 0.299131 0)
(-0.359956 0.359292 0)
(-0.555047 0.571385 0)
(-0.620387 0.72908 0)
(-0.846666 0.992149 0)
(-0.86892 0.826554 0)
(-1.13111 0.238563 0)
(-0.645237 -1.23177 0)
(-0.453139 -1.58663 0)
(-0.0339679 -2.02561 0)
(-0.109817 0.119939 0)
(-0.281388 -0.0261931 0)
(-0.0451156 -0.163297 0)
(0.0278683 -0.0380013 0)
(0.0644364 0.0530282 0)
(-0.0326939 0.142379 0)
(-0.036668 0.140053 0)
(-0.163018 0.205307 0)
(-0.158801 0.233012 0)
(-0.307039 0.325909 0)
(-0.289989 0.388576 0)
(-0.473157 0.617695 0)
(-0.44494 0.7745 0)
(-0.618282 1.03029 0)
(-0.467742 0.853503 0)
(-0.723087 0.195975 0)
(-0.192765 -1.34752 0)
(-0.39902 -1.67109 0)
(0.167654 -2.11034 0)
(-0.0620807 0.354769 0)
(-0.0666339 0.0294489 0)
(-0.00348756 -0.239914 0)
(0.0788562 -0.0441343 0)
(0.104455 0.0552861 0)
(-0.0149547 0.153417 0)
(-0.0313253 0.166173 0)
(-0.157112 0.236741 0)
(-0.144868 0.263281 0)
(-0.282208 0.360314 0)
(-0.228981 0.418551 0)
(-0.392798 0.647202 0)
(-0.285521 0.775266 0)
(-0.410859 1.01686 0)
(-0.116676 0.846037 0)
(-0.335989 0.146501 0)
(0.116725 -1.39783 0)
(-0.382902 -1.7288 0)
(0.362966 -2.13516 0)
(0.019398 -0.158079 0)
(0.0574829 -0.160903 0)
(0.0952737 -0.154933 0)
(0.134233 -0.152611 0)
(0.171115 -0.151013 0)
(0.207035 -0.146802 0)
(0.241595 -0.136831 0)
(0.277138 -0.133844 0)
(0.30705 -0.118509 0)
(0.338362 -0.110556 0)
(0.368406 -0.0972392 0)
(0.385316 -0.0767541 0)
(0.414399 -0.062115 0)
(0.421483 -0.0381361 0)
(0.438657 -0.0134139 0)
(0.435174 0.0161447 0)
(0.446688 0.0482959 0)
(0.432337 0.0860629 0)
(0.448712 0.123147 0)
(0.428118 0.182286 0)
(0.466856 0.237551 0)
(0.446195 0.365843 0)
(0.554686 0.511383 0)
(0.0205713 -0.196398 0)
(0.058508 -0.198391 0)
(0.0969687 -0.193024 0)
(0.137111 -0.190269 0)
(0.175296 -0.186906 0)
(0.21216 -0.181355 0)
(0.248315 -0.171162 0)
(0.285281 -0.165358 0)
(0.316875 -0.148447 0)
(0.352179 -0.139112 0)
(0.37964 -0.118014 0)
(0.40533 -0.0992204 0)
(0.434886 -0.0772102 0)
(0.44527 -0.0472054 0)
(0.468423 -0.01778 0)
(0.46701 0.0113612 0)
(0.479761 0.0454699 0)
(0.462064 0.0720932 0)
(0.469742 0.1102 0)
(0.447964 0.148402 0)
(0.479905 0.197621 0)
(0.469731 0.255491 0)
(0.592553 0.353874 0)
(0.0218431 -0.237781 0)
(0.0598568 -0.23791 0)
(0.099229 -0.234175 0)
(0.140836 -0.231577 0)
(0.18049 -0.226708 0)
(0.218623 -0.220467 0)
(0.256871 -0.210643 0)
(0.295187 -0.203071 0)
(0.329239 -0.18614 0)
(0.366283 -0.174049 0)
(0.395529 -0.151189 0)
(0.428928 -0.13277 0)
(0.453651 -0.103027 0)
(0.472097 -0.0724021 0)
(0.49758 -0.0362093 0)
(0.496291 0.00431998 0)
(0.512796 0.0524117 0)
(0.498163 0.0962813 0)
(0.516213 0.13661 0)
(0.513443 0.172189 0)
(0.543877 0.214134 0)
(0.547607 0.251224 0)
(0.622745 0.326578 0)
(0.0241862 -0.278467 0)
(0.0614166 -0.276077 0)
(0.101641 -0.274355 0)
(0.144502 -0.271836 0)
(0.184745 -0.264945 0)
(0.221855 -0.25794 0)
(0.261197 -0.24793 0)
(0.296503 -0.237813 0)
(0.329356 -0.219689 0)
(0.365118 -0.205449 0)
(0.394234 -0.180688 0)
(0.428701 -0.157321 0)
(0.451123 -0.12028 0)
(0.489937 -0.0910478 0)
(0.506474 -0.0420378 0)
(0.526855 -0.00391362 0)
(0.545919 0.0431294 0)
(0.529184 0.0683364 0)
(0.538985 0.0942093 0)
(0.542442 0.120725 0)
(0.556037 0.163886 0)
(0.560232 0.178451 0)
(0.610631 0.224358 0)
(0.00827774 -0.322584 0)
(0.0239762 -0.314581 0)
(0.041531 -0.316575 0)
(0.0556489 -0.314037 0)
(0.0749896 -0.303634 0)
(0.0886521 -0.296441 0)
(0.107516 -0.285222 0)
(0.118954 -0.270911 0)
(0.138164 -0.254682 0)
(0.148748 -0.238797 0)
(0.178401 -0.214691 0)
(0.198008 -0.189829 0)
(0.251591 -0.164426 0)
(0.270996 -0.128366 0)
(0.348654 -0.0734772 0)
(0.325015 -0.0367576 0)
(0.424555 0.0497066 0)
(0.458029 0.103311 0)
(0.505743 0.122951 0)
(0.525905 0.153985 0)
(0.553345 0.194711 0)
(0.583479 0.194233 0)
(0.624101 0.224156 0)
(0.000999463 -0.313642 0)
(0.0105759 -0.311955 0)
(0.0189521 -0.308762 0)
(0.0224042 -0.307679 0)
(0.0307145 -0.300145 0)
(0.0360248 -0.292152 0)
(0.0417424 -0.280028 0)
(0.0465385 -0.26925 0)
(0.0544717 -0.251035 0)
(0.0637936 -0.245889 0)
(0.082443 -0.231447 0)
(0.113776 -0.229205 0)
(0.151442 -0.194866 0)
(0.193644 -0.183931 0)
(0.244016 -0.0980467 0)
(0.301585 -0.0729178 0)
(0.364088 -0.0834844 0)
(0.445057 -0.012276 0)
(0.489063 0.028886 0)
(0.488562 0.0760417 0)
(0.489565 0.109109 0)
(0.535995 0.108873 0)
(0.584482 0.162713 0)
(0.0041173 -0.331556 0)
(0.0104269 -0.330406 0)
(0.019738 -0.325941 0)
(0.023892 -0.323841 0)
(0.0324823 -0.315439 0)
(0.0368458 -0.306148 0)
(0.0476196 -0.294396 0)
(0.0531842 -0.283233 0)
(0.0710816 -0.271183 0)
(0.0818605 -0.267002 0)
(0.107422 -0.264865 0)
(0.129722 -0.260492 0)
(0.162109 -0.245985 0)
(0.195174 -0.224175 0)
(0.234545 -0.185728 0)
(0.319422 -0.162801 0)
(0.365816 -0.101853 0)
(0.438669 -0.0251759 0)
(0.507162 0.0760639 0)
(0.578392 0.151344 0)
(0.577474 0.145003 0)
(0.515066 0.0971535 0)
(0.539598 0.136566 0)
(0.00560497 -0.330297 0)
(0.0105165 -0.32954 0)
(0.0205444 -0.324221 0)
(0.0267213 -0.322118 0)
(0.0352295 -0.314776 0)
(0.0437472 -0.308493 0)
(0.0548276 -0.297664 0)
(0.0653907 -0.293304 0)
(0.0813926 -0.280675 0)
(0.0938594 -0.282126 0)
(0.108656 -0.279994 0)
(0.122879 -0.282629 0)
(0.135855 -0.260547 0)
(0.150639 -0.253649 0)
(0.174831 -0.221453 0)
(0.202699 -0.201048 0)
(0.240897 -0.19782 0)
(0.296136 -0.15465 0)
(0.385947 -0.108568 0)
(0.507252 0.00420673 0)
(0.650311 0.173409 0)
(0.693018 0.155094 0)
(0.676043 0.125943 0)
(0.00668466 -0.346315 0)
(0.0114113 -0.344137 0)
(0.0239751 -0.340842 0)
(0.0317909 -0.337512 0)
(0.0443141 -0.331414 0)
(0.0539468 -0.325101 0)
(0.0694406 -0.315374 0)
(0.0804243 -0.309619 0)
(0.0976992 -0.299511 0)
(0.109112 -0.294524 0)
(0.121604 -0.294392 0)
(0.129169 -0.288484 0)
(0.138598 -0.275102 0)
(0.15396 -0.264539 0)
(0.164536 -0.24065 0)
(0.195553 -0.23071 0)
(0.211461 -0.199645 0)
(0.237278 -0.171706 0)
(0.274861 -0.137872 0)
(0.331324 -0.113424 0)
(0.458123 -0.0449469 0)
(0.641793 0.0651843 0)
(0.737368 0.205737 0)
(0.00517943 -0.349627 0)
(0.0152253 -0.348011 0)
(0.0262792 -0.345786 0)
(0.0373832 -0.343488 0)
(0.0491187 -0.33797 0)
(0.0607967 -0.334375 0)
(0.074926 -0.324961 0)
(0.0875066 -0.321918 0)
(0.102766 -0.309898 0)
(0.115256 -0.305865 0)
(0.126151 -0.300182 0)
(0.132071 -0.298861 0)
(0.141721 -0.285125 0)
(0.150546 -0.278282 0)
(0.165397 -0.262204 0)
(0.180962 -0.246629 0)
(0.197449 -0.237656 0)
(0.218621 -0.217299 0)
(0.245723 -0.201766 0)
(0.276721 -0.178746 0)
(0.310475 -0.137566 0)
(0.386423 -0.120969 0)
(0.509181 -0.0223434 0)
(0.00645761 -0.36607 0)
(0.0177312 -0.364657 0)
(0.0313462 -0.362395 0)
(0.0429387 -0.359911 0)
(0.0570345 -0.354376 0)
(0.0689773 -0.350693 0)
(0.0847449 -0.341903 0)
(0.0980294 -0.337505 0)
(0.11407 -0.327444 0)
(0.130047 -0.318202 0)
(0.143979 -0.311742 0)
(0.156461 -0.304554 0)
(0.167975 -0.294686 0)
(0.182947 -0.288842 0)
(0.195091 -0.272972 0)
(0.213359 -0.263439 0)
(0.228857 -0.239749 0)
(0.241755 -0.220885 0)
(0.258262 -0.198301 0)
(0.269022 -0.17904 0)
(0.290436 -0.157928 0)
(0.313848 -0.135935 0)
(0.336964 -0.0788972 0)
(0.00647383 -0.374554 0)
(0.0186792 -0.373624 0)
(0.0320058 -0.371697 0)
(0.0446154 -0.369796 0)
(0.0584405 -0.364618 0)
(0.0717397 -0.362516 0)
(0.086864 -0.354498 0)
(0.101725 -0.351408 0)
(0.117614 -0.342246 0)
(0.135116 -0.335626 0)
(0.153254 -0.3267 0)
(0.16933 -0.322376 0)
(0.187046 -0.311408 0)
(0.202395 -0.30476 0)
(0.218961 -0.292076 0)
(0.235356 -0.279678 0)
(0.251458 -0.265201 0)
(0.271011 -0.245753 0)
(0.289237 -0.228327 0)
(0.310825 -0.209679 0)
(0.323827 -0.181699 0)
(0.340944 -0.165855 0)
(0.351666 -0.120861 0)
(0.00745958 -0.391009 0)
(0.0206327 -0.390022 0)
(0.0357045 -0.388147 0)
(0.0488561 -0.386265 0)
(0.0646408 -0.381423 0)
(0.0783701 -0.379169 0)
(0.0950032 -0.371996 0)
(0.109891 -0.368463 0)
(0.126875 -0.361186 0)
(0.144162 -0.354241 0)
(0.162706 -0.346551 0)
(0.181142 -0.338895 0)
(0.1988 -0.328681 0)
(0.217888 -0.321307 0)
(0.235209 -0.307281 0)
(0.255138 -0.296483 0)
(0.274032 -0.277079 0)
(0.293696 -0.259479 0)
(0.316994 -0.239775 0)
(0.336861 -0.214684 0)
(0.358929 -0.189788 0)
(0.385824 -0.16502 0)
(0.401505 -0.124538 0)
(0.00758707 -0.403089 0)
(0.0218352 -0.402312 0)
(0.0372628 -0.400332 0)
(0.0517922 -0.399109 0)
(0.0678221 -0.394493 0)
(0.0829168 -0.393134 0)
(0.0996327 -0.386312 0)
(0.115735 -0.383367 0)
(0.132479 -0.376725 0)
(0.149552 -0.37136 0)
(0.167301 -0.363785 0)
(0.184807 -0.35818 0)
(0.20371 -0.348102 0)
(0.221733 -0.340756 0)
(0.240465 -0.329068 0)
(0.25964 -0.317979 0)
(0.279154 -0.303333 0)
(0.301494 -0.287983 0)
(0.32476 -0.271085 0)
(0.349438 -0.250731 0)
(0.376661 -0.23011 0)
(0.407463 -0.207671 0)
(0.43411 -0.173729 0)
(0.00844875 -0.420483 0)
(0.0228223 -0.419781 0)
(0.0399993 -0.418177 0)
(0.0549704 -0.416958 0)
(0.0725346 -0.412698 0)
(0.0880907 -0.411187 0)
(0.105908 -0.405092 0)
(0.12268 -0.401607 0)
(0.140665 -0.395437 0)
(0.158651 -0.389481 0)
(0.177534 -0.382406 0)
(0.196528 -0.375829 0)
(0.215669 -0.366414 0)
(0.236115 -0.358641 0)
(0.256109 -0.346243 0)
(0.278041 -0.335821 0)
(0.300375 -0.320192 0)
(0.324621 -0.305952 0)
(0.350828 -0.289001 0)
(0.377162 -0.26771 0)
(0.407424 -0.24907 0)
(0.437405 -0.223784 0)
(0.467025 -0.195808 0)
(0.00826039 -0.434622 0)
(0.0243315 -0.434139 0)
(0.0411574 -0.432722 0)
(0.0571819 -0.431881 0)
(0.0744444 -0.427831 0)
(0.0907271 -0.426661 0)
(0.108138 -0.421083 0)
(0.125197 -0.418165 0)
(0.142859 -0.412823 0)
(0.160761 -0.408145 0)
(0.179423 -0.401726 0)
(0.198179 -0.396107 0)
(0.217805 -0.387668 0)
(0.237965 -0.380897 0)
(0.259003 -0.370861 0)
(0.281717 -0.361872 0)
(0.305209 -0.349709 0)
(0.331779 -0.337968 0)
(0.359139 -0.323424 0)
(0.389614 -0.306854 0)
(0.423457 -0.290093 0)
(0.458155 -0.26704 0)
(0.495687 -0.24146 0)
(0.00899848 -0.453303 0)
(0.0258006 -0.452929 0)
(0.0439704 -0.451273 0)
(0.0606416 -0.45052 0)
(0.079112 -0.446544 0)
(0.0962329 -0.445194 0)
(0.114887 -0.439952 0)
(0.133071 -0.436699 0)
(0.152083 -0.431496 0)
(0.171035 -0.426501 0)
(0.190769 -0.420439 0)
(0.210873 -0.414747 0)
(0.231742 -0.40695 0)
(0.253666 -0.400442 0)
(0.276219 -0.390902 0)
(0.300536 -0.382717 0)
(0.325749 -0.371277 0)
(0.353359 -0.360729 0)
(0.382246 -0.347867 0)
(0.413843 -0.333062 0)
(0.448179 -0.318573 0)
(0.484032 -0.29717 0)
(0.524336 -0.275981 0)
(0.00893403 -0.469568 0)
(0.0259666 -0.469276 0)
(0.0439399 -0.467697 0)
(0.060975 -0.467158 0)
(0.0791323 -0.463544 0)
(0.0965218 -0.462514 0)
(0.114789 -0.458024 0)
(0.132979 -0.455365 0)
(0.151757 -0.450858 0)
(0.170753 -0.446751 0)
(0.190571 -0.441595 0)
(0.210791 -0.43693 0)
(0.231988 -0.430451 0)
(0.254093 -0.425173 0)
(0.277219 -0.417679 0)
(0.30227 -0.411172 0)
(0.328485 -0.402462 0)
(0.357787 -0.394237 0)
(0.3883 -0.383854 0)
(0.42289 -0.372653 0)
(0.460115 -0.360247 0)
(0.50052 -0.343263 0)
(0.547142 -0.326537 0)
(0.00952694 -0.488542 0)
(0.0279308 -0.488292 0)
(0.0470964 -0.486634 0)
(0.065358 -0.486082 0)
(0.0846206 -0.482489 0)
(0.103135 -0.481243 0)
(0.122346 -0.476875 0)
(0.141398 -0.4741 0)
(0.16094 -0.469812 0)
(0.180692 -0.465801 0)
(0.201076 -0.461101 0)
(0.221978 -0.456705 0)
(0.243612 -0.450966 0)
(0.266371 -0.446269 0)
(0.289933 -0.439881 0)
(0.3155 -0.434651 0)
(0.342148 -0.427655 0)
(0.371799 -0.421316 0)
(0.402911 -0.413823 0)
(0.438298 -0.405786 0)
(0.476116 -0.397019 0)
(0.518397 -0.385234 0)
(0.567376 -0.374657 0)
(0.00949145 -0.507122 0)
(0.0283541 -0.506953 0)
(0.047373 -0.505207 0)
(0.0659402 -0.504761 0)
(0.0848695 -0.501394 0)
(0.103557 -0.500272 0)
(0.122402 -0.496344 0)
(0.141553 -0.49394 0)
(0.160763 -0.490195 0)
(0.180601 -0.486826 0)
(0.200691 -0.482914 0)
(0.221693 -0.479377 0)
(0.243113 -0.474873 0)
(0.266209 -0.471394 0)
(0.28979 -0.466844 0)
(0.316112 -0.463306 0)
(0.343052 -0.45882 0)
(0.373979 -0.454989 0)
(0.405972 -0.450442 0)
(0.442973 -0.445978 0)
(0.482402 -0.440464 0)
(0.527117 -0.434794 0)
(0.579068 -0.4296 0)
(0.00999113 -0.526781 0)
(0.0298364 -0.526577 0)
(0.0498006 -0.524629 0)
(0.0694149 -0.523989 0)
(0.0891515 -0.520553 0)
(0.108892 -0.519202 0)
(0.128347 -0.515368 0)
(0.148418 -0.512908 0)
(0.167907 -0.509403 0)
(0.188609 -0.5062 0)
(0.208538 -0.502782 0)
(0.230282 -0.499624 0)
(0.250967 -0.496118 0)
(0.274636 -0.493475 0)
(0.296881 -0.490462 0)
(0.323415 -0.488493 0)
(0.348678 -0.486218 0)
(0.379479 -0.484908 0)
(0.410138 -0.483511 0)
(0.447011 -0.483032 0)
(0.48652 -0.481873 0)
(0.532015 -0.482863 0)
(0.584651 -0.483543 0)
(0.00992657 -0.547037 0)
(0.0302292 -0.546858 0)
(0.0500928 -0.544864 0)
(0.0702042 -0.54418 0)
(0.0898506 -0.540945 0)
(0.110184 -0.539497 0)
(0.129443 -0.535943 0)
(0.150121 -0.533499 0)
(0.169226 -0.53046 0)
(0.190594 -0.527439 0)
(0.20986 -0.524671 0)
(0.232344 -0.52178 0)
(0.252005 -0.519328 0)
(0.27633 -0.517298 0)
(0.297165 -0.51575 0)
(0.324005 -0.51514 0)
(0.347713 -0.51504 0)
(0.378404 -0.516584 0)
(0.407913 -0.518139 0)
(0.444424 -0.522638 0)
(0.483664 -0.525681 0)
(0.529302 -0.5333 0)
(0.581722 -0.54047 0)
(0.0101941 -0.567349 0)
(0.0310729 -0.567163 0)
(0.0514665 -0.56503 0)
(0.0722229 -0.564164 0)
(0.0923465 -0.560986 0)
(0.113419 -0.559212 0)
(0.133062 -0.555787 0)
(0.154484 -0.553113 0)
(0.173712 -0.550382 0)
(0.195624 -0.547264 0)
(0.214449 -0.54506 0)
(0.237222 -0.54221 0)
(0.255834 -0.540649 0)
(0.279893 -0.539098 0)
(0.299217 -0.538694 0)
(0.324784 -0.53955 0)
(0.346852 -0.541186 0)
(0.374994 -0.545707 0)
(0.402938 -0.550119 0)
(0.436314 -0.559522 0)
(0.473857 -0.567412 0)
(0.517398 -0.581788 0)
(0.568318 -0.596982 0)
(0.010099 -0.588397 0)
(0.0309377 -0.58823 0)
(0.0511392 -0.586105 0)
(0.0721128 -0.58514 0)
(0.0921878 -0.582237 0)
(0.113714 -0.580268 0)
(0.133493 -0.577108 0)
(0.155567 -0.574183 0)
(0.175016 -0.571703 0)
(0.197645 -0.568198 0)
(0.216537 -0.566375 0)
(0.239886 -0.56319 0)
(0.258222 -0.562105 0)
(0.282384 -0.56073 0)
(0.300875 -0.560741 0)
(0.325496 -0.56287 0)
(0.345833 -0.565344 0)
(0.372029 -0.572848 0)
(0.396906 -0.57956 0)
(0.427833 -0.593851 0)
(0.460865 -0.606958 0)
(0.501817 -0.628166 0)
(0.547595 -0.652212 0)
(0.0100317 -0.608791 0)
(0.0302878 -0.608614 0)
(0.0502268 -0.606623 0)
(0.0710084 -0.605621 0)
(0.0908962 -0.60303 0)
(0.112468 -0.600927 0)
(0.132408 -0.598106 0)
(0.154702 -0.595056 0)
(0.174265 -0.592947 0)
(0.197073 -0.589218 0)
(0.216077 -0.587798 0)
(0.239512 -0.584349 0)
(0.257813 -0.583644 0)
(0.281821 -0.582238 0)
(0.299666 -0.582302 0)
(0.323714 -0.585035 0)
(0.341833 -0.588237 0)
(0.367569 -0.597362 0)
(0.38668 -0.606497 0)
(0.417005 -0.624148 0)
(0.439972 -0.642065 0)
(0.479498 -0.669297 0)
(0.51279 -0.700958 0)
(0.00973449 -0.628817 0)
(0.0287478 -0.628532 0)
(0.0479394 -0.626926 0)
(0.0679085 -0.6259 0)
(0.0871107 -0.623799 0)
(0.108174 -0.621853 0)
(0.12787 -0.619443 0)
(0.150199 -0.616095 0)
(0.169916 -0.614161 0)
(0.192853 -0.610053 0)
(0.212197 -0.608875 0)
(0.235738 -0.604968 0)
(0.254278 -0.604437 0)
(0.278236 -0.602639 0)
(0.295631 -0.602609 0)
(0.319693 -0.605104 0)
(0.335291 -0.609141 0)
(0.360669 -0.61779 0)
(0.373487 -0.628921 0)
(0.402478 -0.647281 0)
(0.41459 -0.669445 0)
(0.45204 -0.701163 0)
(0.470955 -0.739735 0)
(0.00913979 -0.647646 0)
(0.0267739 -0.647208 0)
(0.0447606 -0.646172 0)
(0.0634584 -0.645186 0)
(0.0815107 -0.643715 0)
(0.101456 -0.642102 0)
(0.120174 -0.640582 0)
(0.14179 -0.637548 0)
(0.161396 -0.636073 0)
(0.184169 -0.631981 0)
(0.203835 -0.631167 0)
(0.227406 -0.626961 0)
(0.246473 -0.626619 0)
(0.270605 -0.624187 0)
(0.287977 -0.624213 0)
(0.312042 -0.625368 0)
(0.325797 -0.629629 0)
(0.35008 -0.636327 0)
(0.358558 -0.648667 0)
(0.384694 -0.66615 0)
(0.388559 -0.691967 0)
(0.42105 -0.726711 0)
(0.426796 -0.772451 0)
(0.00802759 -0.664803 0)
(0.0240538 -0.664242 0)
(0.0399981 -0.663683 0)
(0.0569086 -0.662726 0)
(0.0731326 -0.661867 0)
(0.0913748 -0.660579 0)
(0.108451 -0.659837 0)
(0.128418 -0.657375 0)
(0.146944 -0.65658 0)
(0.16901 -0.652548 0)
(0.188715 -0.652107 0)
(0.212323 -0.647662 0)
(0.231853 -0.647566 0)
(0.256138 -0.644221 0)
(0.273658 -0.643875 0)
(0.297718 -0.643028 0)
(0.31076 -0.646854 0)
(0.333357 -0.650732 0)
(0.339651 -0.662975 0)
(0.360955 -0.677656 0)
(0.35937 -0.704993 0)
(0.382938 -0.739933 0)
(0.378968 -0.791992 0)
(0.00692197 -0.680061 0)
(0.021506 -0.679532 0)
(0.0354007 -0.67937 0)
(0.0505964 -0.678686 0)
(0.0649345 -0.678552 0)
(0.0813425 -0.677818 0)
(0.096567 -0.678031 0)
(0.114635 -0.676492 0)
(0.131426 -0.677105 0)
(0.151855 -0.674271 0)
(0.170647 -0.674946 0)
(0.193584 -0.670708 0)
(0.213249 -0.670888 0)
(0.237398 -0.666681 0)
(0.255334 -0.666199 0)
(0.279634 -0.663267 0)
(0.293103 -0.665566 0)
(0.313796 -0.66616 0)
(0.319174 -0.67637 0)
(0.335325 -0.687022 0)
(0.329885 -0.71381 0)
(0.34274 -0.747746 0)
(0.330806 -0.805032 0)
(0.00566368 -0.693271 0)
(0.0182188 -0.692779 0)
(0.0296625 -0.692809 0)
(0.0426829 -0.692314 0)
(0.0546241 -0.692644 0)
(0.0687304 -0.692261 0)
(0.0815579 -0.693145 0)
(0.097291 -0.692284 0)
(0.11172 -0.693787 0)
(0.129709 -0.691833 0)
(0.146309 -0.693778 0)
(0.167126 -0.690332 0)
(0.185648 -0.691241 0)
(0.209033 -0.686408 0)
(0.227325 -0.685842 0)
(0.251401 -0.680941 0)
(0.266051 -0.680534 0)
(0.285637 -0.677 0)
(0.29208 -0.68374 0)
(0.303541 -0.688654 0)
(0.296279 -0.711278 0)
(0.297359 -0.741279 0)
(0.276612 -0.79917 0)
(0.00462925 -0.704216 0)
(0.0152951 -0.703824 0)
(0.024679 -0.704109 0)
(0.0357271 -0.703954 0)
(0.0455563 -0.704889 0)
(0.0575767 -0.705091 0)
(0.0682356 -0.706907 0)
(0.0818281 -0.707053 0)
(0.0940534 -0.709877 0)
(0.109854 -0.709343 0)
(0.124254 -0.712755 0)
(0.14258 -0.710659 0)
(0.159105 -0.71322 0)
(0.180108 -0.709088 0)
(0.197216 -0.708969 0)
(0.219296 -0.702856 0)
(0.23373 -0.700107 0)
(0.252757 -0.693114 0)
(0.259779 -0.694446 0)
(0.26751 -0.692183 0)
(0.258922 -0.707587 0)
(0.250073 -0.729105 0)
(0.218131 -0.784396 0)
(0.00358215 -0.71321 0)
(0.0121714 -0.71286 0)
(0.0194246 -0.713248 0)
(0.0282875 -0.713228 0)
(0.035847 -0.714493 0)
(0.0455389 -0.714983 0)
(0.0537608 -0.717379 0)
(0.0648811 -0.718153 0)
(0.0743975 -0.721764 0)
(0.087407 -0.722096 0)
(0.0988269 -0.726407 0)
(0.114099 -0.725246 0)
(0.127744 -0.728589 0)
(0.145422 -0.724607 0)
(0.160329 -0.724724 0)
(0.1799 -0.717554 0)
(0.193503 -0.713514 0)
(0.212188 -0.70314 0)
(0.219445 -0.697819 0)
(0.226979 -0.687689 0)
(0.218191 -0.692897 0)
(0.205245 -0.700208 0)
(0.165103 -0.744953 0)
(0.00274411 -0.720172 0)
(0.00951627 -0.719886 0)
(0.015029 -0.720422 0)
(0.0219907 -0.720612 0)
(0.0276941 -0.72234 0)
(0.0353534 -0.723273 0)
(0.0415474 -0.726463 0)
(0.0504396 -0.728012 0)
(0.0575996 -0.732644 0)
(0.0681765 -0.734177 0)
(0.0769375 -0.739727 0)
(0.0895102 -0.740099 0)
(0.100239 -0.744875 0)
(0.11493 -0.742326 0)
(0.127201 -0.74381 0)
(0.143714 -0.736834 0)
(0.154975 -0.732756 0)
(0.170826 -0.719922 0)
(0.175866 -0.709554 0)
(0.183672 -0.691731 0)
(0.173353 -0.686084 0)
(0.159329 -0.676675 0)
(0.117205 -0.705716 0)
(0.00197117 -0.725472 0)
(0.00702734 -0.725164 0)
(0.0109172 -0.725716 0)
(0.0160805 -0.725921 0)
(0.0200265 -0.727837 0)
(0.0256882 -0.728876 0)
(0.0298857 -0.732424 0)
(0.0364783 -0.734254 0)
(0.0413216 -0.739424 0)
(0.049264 -0.741487 0)
(0.0552084 -0.747613 0)
(0.064736 -0.748592 0)
(0.0720562 -0.753805 0)
(0.0832925 -0.751604 0)
(0.0917248 -0.753199 0)
(0.104626 -0.745337 0)
(0.112713 -0.740162 0)
(0.125911 -0.723982 0)
(0.129563 -0.710023 0)
(0.138033 -0.68486 0)
(0.128412 -0.667606 0)
(0.117112 -0.643263 0)
(0.0775901 -0.652339 0)
(0.00142337 -0.729292 0)
(0.00517518 -0.728968 0)
(0.00787149 -0.729584 0)
(0.0116332 -0.72987 0)
(0.0142873 -0.73205 0)
(0.0183943 -0.733311 0)
(0.0211466 -0.73736 0)
(0.0259544 -0.739677 0)
(0.0290757 -0.745559 0)
(0.034895 -0.748367 0)
(0.0386298 -0.755369 0)
(0.0456402 -0.757354 0)
(0.0501395 -0.763659 0)
(0.0584072 -0.76253 0)
(0.063447 -0.765434 0)
(0.0729533 -0.758506 0)
(0.0773599 -0.754396 0)
(0.0869005 -0.737568 0)
(0.0873416 -0.722089 0)
(0.0925919 -0.691454 0)
(0.0810397 -0.665621 0)
(0.0698355 -0.626815 0)
(0.0312449 -0.61422 0)
(0.000900175 -0.732105 0)
(0.00351407 -0.73166 0)
(0.00520182 -0.732197 0)
(0.00781358 -0.732396 0)
(0.00940155 -0.734605 0)
(0.0122027 -0.735802 0)
(0.0137404 -0.739963 0)
(0.0169272 -0.74225 0)
(0.0185082 -0.7483 0)
(0.0222682 -0.751094 0)
(0.0239597 -0.758231 0)
(0.0284275 -0.760118 0)
(0.0302116 -0.76636 0)
(0.0354212 -0.764872 0)
(0.0370137 -0.767416 0)
(0.0428563 -0.75913 0)
(0.0433203 -0.753627 0)
(0.0489781 -0.73371 0)
(0.0460751 -0.715002 0)
(0.0482886 -0.677977 0)
(0.0357699 -0.643648 0)
(0.0229158 -0.5921 0)
(-0.0145377 -0.557754 0)
(0.000578207 -0.733702 0)
(0.00247463 -0.733279 0)
(0.00355553 -0.733871 0)
(0.00536797 -0.734094 0)
(0.00622881 -0.736419 0)
(0.00807823 -0.737699 0)
(0.00876806 -0.742071 0)
(0.01076 -0.74454 0)
(0.0112649 -0.75091 0)
(0.0134789 -0.753985 0)
(0.0137571 -0.761586 0)
(0.0162461 -0.763875 0)
(0.0161567 -0.770783 0)
(0.018917 -0.769735 0)
(0.0180615 -0.773103 0)
(0.0208206 -0.765375 0)
(0.0184062 -0.760899 0)
(0.0204131 -0.741069 0)
(0.0146495 -0.722009 0)
(0.0130097 -0.682193 0)
(-0.00117181 -0.641255 0)
(-0.0164669 -0.578141 0)
(-0.0531307 -0.524246 0)
(0.000282203 -0.735309 0)
(0.00149088 -0.734794 0)
(0.00196618 -0.735219 0)
(0.00305555 -0.735225 0)
(0.00325191 -0.737427 0)
(0.00422581 -0.738496 0)
(0.00412632 -0.742724 0)
(0.00502052 -0.744885 0)
(0.00451594 -0.751044 0)
(0.00530868 -0.753683 0)
(0.00427117 -0.760939 0)
(0.00493506 -0.762538 0)
(0.00313965 -0.768851 0)
(0.00357043 -0.766679 0)
(0.000590252 -0.768972 0)
(0.000458071 -0.759196 0)
(-0.00443998 -0.752631 0)
(-0.00591687 -0.729375 0)
(-0.0141112 -0.706586 0)
(-0.0191236 -0.660958 0)
(-0.0338695 -0.612267 0)
(-0.0500211 -0.537636 0)
(-0.0849283 -0.465832 0)
(6.01047e-05 -0.73529 0)
(0.000733798 -0.734794 0)
(0.000774961 -0.735263 0)
(0.00137028 -0.735237 0)
(0.00117347 -0.737414 0)
(0.0015435 -0.738452 0)
(0.000923138 -0.742699 0)
(0.000996609 -0.744849 0)
(-0.000198377 -0.751065 0)
(-0.000505045 -0.753735 0)
(-0.00242445 -0.761146 0)
(-0.0031885 -0.762857 0)
(-0.00609059 -0.769464 0)
(-0.00753039 -0.767466 0)
(-0.0118673 -0.770215 0)
(-0.0142864 -0.760867 0)
(-0.0205057 -0.755039 0)
(-0.0242575 -0.732307 0)
(-0.0331638 -0.70984 0)
(-0.0397041 -0.66407 0)
(-0.0534156 -0.612396 0)
(-0.0672451 -0.529937 0)
(-0.0971604 -0.444798 0)
(-0.000158549 -0.736422 0)
(-1.63815e-05 -0.735828 0)
(-0.00046815 -0.736143 0)
(-0.000512643 -0.735918 0)
(-0.00124126 -0.737863 0)
(-0.00153155 -0.738532 0)
(-0.00271877 -0.742405 0)
(-0.00341208 -0.744018 0)
(-0.00526018 -0.749702 0)
(-0.00653738 -0.75164 0)
(-0.00926916 -0.7583 0)
(-0.0113267 -0.758928 0)