/*--------------------------------*- C++ -*----------------------------------*\
| =========                 |                                                 |
| \\      /  F ield         | OpenFOAM: The Open Source CFD Toolbox           |
|  \\    /   O peration     | Version:  2012                                  |
|   \\  /    A nd           | Website:  www.openfoam.com                      |
|    \\/     M anipulation  |                                                 |
\*---------------------------------------------------------------------------*/
FoamFile
{
    version     2.0;
    format      ascii;
    class       volVectorField;
    location    "0.42";
    object      Uc;
}
// * * * * * * * * * * * * * * * * * * * * * * * * * * * * * * * * * * * * * //

dimensions      [0 1 -1 0 0 0 0];


internalField   nonuniform List<vector> 
2268
(
(0.0182597 -0.00862939 0)
(0.0548961 -0.00868472 0)
(0.0905689 -0.00817394 0)
(0.125096 -0.00814322 0)
(0.15981 -0.00826229 0)
(0.194396 -0.00808295 0)
(0.226402 -0.00704281 0)
(0.256059 -0.0069731 0)
(0.284138 -0.00629643 0)
(0.308508 -0.00522081 0)
(0.330102 -0.00498415 0)
(0.34941 -0.00414091 0)
(0.364105 -0.00280373 0)
(0.372478 -0.00115346 0)
(0.374483 0.00020617 0)
(0.370426 0.00171097 0)
(0.359483 0.00346053 0)
(0.340016 0.00573937 0)
(0.310199 0.00835196 0)
(0.267222 0.0119586 0)
(0.210906 0.0146559 0)
(0.14092 0.018419 0)
(0.0509729 0.0240894 0)
(0.0182121 -0.0258657 0)
(0.0548493 -0.026077 0)
(0.0906905 -0.0245786 0)
(0.125377 -0.0244482 0)
(0.160098 -0.0247718 0)
(0.194619 -0.0242333 0)
(0.226679 -0.0211693 0)
(0.256544 -0.0209763 0)
(0.284767 -0.018901 0)
(0.309207 -0.0156836 0)
(0.331162 -0.0151021 0)
(0.350468 -0.0122722 0)
(0.364674 -0.00833059 0)
(0.373587 -0.00379587 0)
(0.376671 0.000443908 0)
(0.372851 0.00519532 0)
(0.361235 0.0106373 0)
(0.340385 0.0176161 0)
(0.308743 0.0255202 0)
(0.263299 0.0365776 0)
(0.202387 0.0454379 0)
(0.125012 0.057279 0)
(0.0408794 0.0674981 0)
(0.0181839 -0.0430661 0)
(0.0549087 -0.0435469 0)
(0.0910391 -0.0411219 0)
(0.125961 -0.0408012 0)
(0.160703 -0.0412463 0)
(0.195122 -0.0403399 0)
(0.227299 -0.0354205 0)
(0.257575 -0.0351467 0)
(0.286066 -0.0315338 0)
(0.310851 -0.026314 0)
(0.333179 -0.0253994 0)
(0.35233 -0.0201493 0)
(0.366497 -0.0138622 0)
(0.376331 -0.00712402 0)
(0.380893 0.000158579 0)
(0.378212 0.00855282 0)
(0.367697 0.017739 0)
(0.349172 0.0291227 0)
(0.321605 0.0419955 0)
(0.281388 0.0605849 0)
(0.225542 0.0766096 0)
(0.148157 0.0992458 0)
(0.0513043 0.111063 0)
(0.018182 -0.0602523 0)
(0.0550448 -0.0611376 0)
(0.091485 -0.0578276 0)
(0.12667 -0.0572277 0)
(0.161465 -0.0576822 0)
(0.195761 -0.0563781 0)
(0.228094 -0.0498694 0)
(0.258887 -0.0495584 0)
(0.287724 -0.044215 0)
(0.313023 -0.0373021 0)
(0.335825 -0.0357397 0)
(0.354961 -0.0279027 0)
(0.369537 -0.0196925 0)
(0.379925 -0.0108507 0)
(0.384782 -0.000565889 0)
(0.382359 0.0116892 0)
(0.371473 0.0247171 0)
(0.351434 0.0403694 0)
(0.321791 0.057786 0)
(0.279755 0.083666 0)
(0.222842 0.106818 0)
(0.144963 0.142414 0)
(0.0495836 0.158742 0)
(0.0182259 -0.0774584 0)
(0.0553303 -0.0788879 0)
(0.0921428 -0.074696 0)
(0.127651 -0.0737684 0)
(0.162637 -0.0741195 0)
(0.196932 -0.0723562 0)
(0.229537 -0.0645803 0)
(0.260917 -0.0642302 0)
(0.290074 -0.0569507 0)
(0.315996 -0.0487728 0)
(0.339473 -0.0461407 0)
(0.358859 -0.0357068 0)
(0.374045 -0.0259539 0)
(0.385208 -0.0147742 0)
(0.391014 -0.00168118 0)
(0.390489 0.0141971 0)
(0.382628 0.0310696 0)
(0.366646 0.0510397 0)
(0.341967 0.0727878 0)
(0.305456 0.105785 0)
(0.253613 0.136096 0)
(0.175992 0.186624 0)
(0.0641198 0.212478 0)
(0.0183184 -0.094729 0)
(0.0556222 -0.096782 0)
(0.0927243 -0.0917333 0)
(0.128618 -0.090475 0)
(0.163885 -0.0906139 0)
(0.19828 -0.0883245 0)
(0.231269 -0.0796112 0)
(0.26317 -0.0791051 0)
(0.292581 -0.0697553 0)
(0.319274 -0.0608331 0)
(0.343716 -0.0567265 0)
(0.363449 -0.0436082 0)
(0.379241 -0.0326929 0)
(0.391263 -0.0189921 0)
(0.397534 -0.00317065 0)
(0.397309 0.0160408 0)
(0.389797 0.0364915 0)
(0.37372 0.0607683 0)
(0.348092 0.0868342 0)
(0.309749 0.127114 0)
(0.256329 0.164513 0)
(0.176245 0.232737 0)
(0.0632119 0.272654 0)
(0.0185158 -0.112137 0)
(0.0560134 -0.114725 0)
(0.0934189 -0.109002 0)
(0.12991 -0.107415 0)
(0.16562 -0.107217 0)
(0.200295 -0.104364 0)
(0.233827 -0.0950097 0)
(0.266234 -0.0940979 0)
(0.295953 -0.0827071 0)
(0.323681 -0.0736003 0)
(0.349152 -0.0675474 0)
(0.369581 -0.0517676 0)
(0.386272 -0.0398853 0)
(0.398962 -0.0234781 0)
(0.406073 -0.00500879 0)
(0.407852 0.0171444 0)
(0.403731 0.0408852 0)
(0.392586 0.0692392 0)
(0.373805 0.0993511 0)
(0.34381 0.146893 0)
(0.299647 0.190852 0)
(0.223425 0.280267 0)
(0.0863366 0.343329 0)
(0.0187521 -0.129749 0)
(0.0563741 -0.132613 0)
(0.0939799 -0.126563 0)
(0.131112 -0.124647 0)
(0.167318 -0.123972 0)
(0.202339 -0.120547 0)
(0.236451 -0.110795 0)
(0.269354 -0.109178 0)
(0.299635 -0.0959821 0)
(0.328591 -0.0871141 0)
(0.354961 -0.0785336 0)
(0.376195 -0.0604707 0)
(0.394107 -0.0475357 0)
(0.407681 -0.0282392 0)
(0.41567 -0.00738412 0)
(0.418325 0.0174245 0)
(0.41513 0.0440624 0)
(0.404734 0.076242 0)
(0.386746 0.109725 0)
(0.357033 0.164736 0)
(0.312411 0.214968 0)
(0.23535 0.328592 0)
(0.0919238 0.427573 0)
(-0.015067 0.00571829 0)
(-0.0370401 0.00224729 0)
(-0.0352979 -0.00436893 0)
(-0.0329505 0.00199009 0)
(-0.049465 0.00365435 0)
(-0.0843158 0.00978997 0)
(-0.135792 0.0107263 0)
(-0.205108 0.0173785 0)
(-0.29854 0.0209844 0)
(-0.422115 0.0302005 0)
(-0.585766 0.038031 0)
(-0.818544 0.059604 0)
(-1.1523 0.080983 0)
(-1.63641 0.123554 0)
(-2.20421 0.116566 0)
(-2.65257 0.0727706 0)
(-2.62343 -0.0865323 0)
(-1.91163 -0.217617 0)
(-0.700829 -0.298824 0)
(-0.0163668 0.0177078 0)
(-0.0429997 0.00817096 0)
(-0.0435108 -0.0135775 0)
(-0.0349382 0.00379291 0)
(-0.0459685 0.0108076 0)
(-0.0815943 0.029855 0)
(-0.134068 0.0321178 0)
(-0.203255 0.052142 0)
(-0.295891 0.0626083 0)
(-0.417457 0.090092 0)
(-0.578355 0.113431 0)
(-0.807821 0.178065 0)
(-1.14935 0.246999 0)
(-1.63969 0.369255 0)
(-2.16246 0.331962 0)
(-2.49898 0.188497 0)
(-2.33603 -0.286682 0)
(-1.68385 -0.600411 0)
(-0.648588 -0.874192 0)
(-0.0318799 0.0368489 0)
(-0.0665705 0.0123527 0)
(-0.0499007 -0.0273935 0)
(-0.0308698 0.00310685 0)
(-0.0401841 0.0173871 0)
(-0.0734982 0.0498402 0)
(-0.124646 0.0534498 0)
(-0.19164 0.0859774 0)
(-0.280159 0.103071 0)
(-0.397569 0.148523 0)
(-0.552083 0.186406 0)
(-0.77479 0.294667 0)
(-1.09418 0.40876 0)
(-1.51255 0.591249 0)
(-1.92753 0.506086 0)
(-2.13233 0.241916 0)
(-1.85289 -0.531002 0)
(-1.21837 -0.906178 0)
(-0.444743 -1.34054 0)
(-0.0269447 0.0604893 0)
(-0.0569557 0.0134719 0)
(-0.0395333 -0.0457753 0)
(-0.0177748 0.00137774 0)
(-0.0276735 0.0245284 0)
(-0.0651387 0.0700463 0)
(-0.117929 0.074696 0)
(-0.183833 0.118502 0)
(-0.267137 0.140875 0)
(-0.372516 0.202727 0)
(-0.507381 0.252535 0)
(-0.700703 0.402742 0)
(-0.967185 0.547125 0)
(-1.29765 0.768642 0)
(-1.62696 0.642545 0)
(-1.78434 0.256814 0)
(-1.49865 -0.789038 0)
(-0.897574 -1.17654 0)
(-0.297096 -1.65736 0)
(-0.0521012 0.0927311 0)
(-0.103053 0.0129069 0)
(-0.0628626 -0.0724772 0)
(-0.0151218 -0.00424301 0)
(-0.0147358 0.0314352 0)
(-0.0482365 0.0905663 0)
(-0.100445 0.0960797 0)
(-0.164428 0.149609 0)
(-0.242108 0.175487 0)
(-0.338555 0.251206 0)
(-0.456871 0.308992 0)
(-0.61849 0.494504 0)
(-0.82399 0.653359 0)
(-1.05765 0.899603 0)
(-1.29013 0.747826 0)
(-1.38836 0.257571 0)
(-1.12548 -1.02591 0)
(-0.639307 -1.40501 0)
(-0.204464 -1.87208 0)
(-0.048438 0.134115 0)
(-0.0947486 0.0101326 0)
(-0.0464504 -0.110103 0)
(0.011224 -0.0142169 0)
(0.00937716 0.0392703 0)
(-0.0339568 0.112655 0)
(-0.0915189 0.117925 0)
(-0.154036 0.178813 0)
(-0.225693 0.207048 0)
(-0.309012 0.293354 0)
(-0.403279 0.354513 0)
(-0.522157 0.565539 0)
(-0.658913 0.725144 0)
(-0.795351 0.982486 0)
(-0.924831 0.816187 0)
(-0.942473 0.235802 0)
(-0.721451 -1.21278 0)
(-0.395946 -1.56627 0)
(-0.125259 -2.01385 0)
(-0.095986 0.194164 0)
(-0.179916 0.00272011 0)
(-0.0869427 -0.165544 0)
(0.018506 -0.0309251 0)
(0.0308343 0.0487599 0)
(-0.00919758 0.135867 0)
(-0.0663017 0.140729 0)
(-0.129394 0.206681 0)
(-0.195237 0.23491 0)
(-0.26464 0.327697 0)
(-0.338258 0.388826 0)
(-0.41987 0.613751 0)
(-0.493524 0.763672 0)
(-0.537023 1.01774 0)
(-0.565167 0.84525 0)
(-0.525304 0.194573 0)
(-0.379319 -1.33047 0)
(-0.205192 -1.66398 0)
(-0.0621298 -2.09525 0)
(-0.0304063 0.245984 0)
(-0.0498594 -0.00842631 0)
(0.000165791 -0.217983 0)
(0.0639379 -0.0532471 0)
(0.0680095 0.0613455 0)
(0.0109628 0.161817 0)
(-0.057655 0.165499 0)
(-0.121525 0.233159 0)
(-0.18043 0.258739 0)
(-0.233423 0.353175 0)
(-0.281338 0.412287 0)
(-0.324512 0.640614 0)
(-0.341825 0.772748 0)
(-0.305611 1.00902 0)
(-0.241375 0.835897 0)
(-0.166719 0.15249 0)
(-0.122975 -1.37189 0)
(-0.0708401 -1.72165 0)
(-0.00976104 -2.12765 0)
(0.0192207 -0.157932 0)
(0.0574086 -0.160598 0)
(0.0955645 -0.154707 0)
(0.133713 -0.1524 0)
(0.170874 -0.150685 0)
(0.206693 -0.146391 0)
(0.24184 -0.136402 0)
(0.275728 -0.133185 0)
(0.307398 -0.118121 0)
(0.338041 -0.109462 0)
(0.365122 -0.09587 0)
(0.388344 -0.0765126 0)
(0.408896 -0.060618 0)
(0.423978 -0.036733 0)
(0.433468 -0.0122052 0)
(0.438873 0.0155581 0)
(0.440177 0.0461277 0)
(0.439961 0.0793072 0)
(0.439477 0.115647 0)
(0.442899 0.169416 0)
(0.452112 0.222114 0)
(0.47852 0.331318 0)
(0.519679 0.451253 0)
(0.0197704 -0.197127 0)
(0.058638 -0.198861 0)
(0.0973878 -0.193751 0)
(0.136621 -0.191142 0)
(0.174965 -0.187841 0)
(0.211981 -0.18245 0)
(0.248518 -0.172402 0)
(0.283938 -0.166855 0)
(0.317802 -0.150328 0)
(0.350218 -0.140643 0)
(0.379199 -0.121044 0)
(0.406287 -0.101912 0)
(0.430089 -0.0798034 0)
(0.448438 -0.0511541 0)
(0.462253 -0.0212103 0)
(0.470482 0.0108586 0)
(0.472063 0.0479273 0)
(0.46834 0.0814667 0)
(0.462367 0.119979 0)
(0.461315 0.162701 0)
(0.469318 0.211523 0)
(0.503085 0.281421 0)
(0.576989 0.385484 0)
(0.0204262 -0.237808 0)
(0.0601951 -0.237778 0)
(0.0997849 -0.234132 0)
(0.140347 -0.231518 0)
(0.180109 -0.22652 0)
(0.21865 -0.220254 0)
(0.256889 -0.21028 0)
(0.294123 -0.202502 0)
(0.32999 -0.185243 0)
(0.364339 -0.17327 0)
(0.396572 -0.150328 0)
(0.426762 -0.130527 0)
(0.452084 -0.100825 0)
(0.473846 -0.0706346 0)
(0.490869 -0.032839 0)
(0.500667 0.00431165 0)
(0.50478 0.0487324 0)
(0.506234 0.083651 0)
(0.511053 0.119665 0)
(0.521569 0.1535 0)
(0.536856 0.197312 0)
(0.564993 0.233406 0)
(0.617956 0.305968 0)
(0.021401 -0.280159 0)
(0.0621449 -0.27697 0)
(0.102267 -0.275675 0)
(0.143803 -0.273102 0)
(0.183902 -0.265806 0)
(0.222321 -0.258912 0)
(0.260106 -0.248612 0)
(0.295797 -0.238022 0)
(0.329976 -0.220666 0)
(0.363383 -0.206462 0)
(0.395505 -0.182303 0)
(0.425638 -0.159649 0)
(0.455186 -0.127302 0)
(0.484345 -0.0957696 0)
(0.507429 -0.0484326 0)
(0.526548 -0.00950238 0)
(0.536972 0.0476198 0)
(0.535773 0.0848025 0)
(0.537262 0.112521 0)
(0.544605 0.142565 0)
(0.552818 0.184833 0)
(0.570035 0.200505 0)
(0.610263 0.24519 0)
(0.00800059 -0.309758 0)
(0.0242498 -0.304747 0)
(0.0403584 -0.304506 0)
(0.0565117 -0.302345 0)
(0.0730094 -0.293536 0)
(0.0892499 -0.286206 0)
(0.104838 -0.275052 0)
(0.11992 -0.262703 0)
(0.134901 -0.245496 0)
(0.152215 -0.232725 0)
(0.174492 -0.210851 0)
(0.204853 -0.192078 0)
(0.24137 -0.161501 0)
(0.28354 -0.133545 0)
(0.321546 -0.0723993 0)
(0.354751 -0.0384491 0)
(0.406611 0.0137186 0)
(0.460604 0.0654177 0)
(0.498617 0.0921264 0)
(0.527527 0.126607 0)
(0.55269 0.167314 0)
(0.579736 0.173397 0)
(0.618141 0.217095 0)
(0.00281877 -0.32066 0)
(0.0100954 -0.317547 0)
(0.0174205 -0.315316 0)
(0.0231824 -0.313618 0)
(0.0294091 -0.30516 0)
(0.0354484 -0.297033 0)
(0.0406901 -0.285219 0)
(0.0463732 -0.273466 0)
(0.053731 -0.257246 0)
(0.0648764 -0.249641 0)
(0.0842132 -0.235825 0)
(0.113781 -0.227407 0)
(0.150865 -0.20022 0)
(0.19373 -0.180368 0)
(0.243718 -0.114094 0)
(0.300317 -0.0870932 0)
(0.365629 -0.0553992 0)
(0.432738 0.0129723 0)
(0.475137 0.0640406 0)
(0.486677 0.114355 0)
(0.499069 0.141975 0)
(0.534376 0.136123 0)
(0.581047 0.192798 0)
(0.00357707 -0.327116 0)
(0.0109982 -0.325918 0)
(0.0181533 -0.321553 0)
(0.0245808 -0.319687 0)
(0.0308888 -0.311744 0)
(0.0377809 -0.303502 0)
(0.0455272 -0.29186 0)
(0.0553338 -0.282451 0)
(0.0682445 -0.268693 0)
(0.0843277 -0.265623 0)
(0.105258 -0.26038 0)
(0.130692 -0.258202 0)
(0.160592 -0.23682 0)
(0.19483 -0.221337 0)
(0.243738 -0.172602 0)
(0.307428 -0.149569 0)
(0.369319 -0.12086 0)
(0.43396 -0.0540679 0)
(0.503269 0.0187612 0)
(0.554157 0.0969501 0)
(0.555099 0.146245 0)
(0.52995 0.122076 0)
(0.534457 0.155687 0)
(0.00396812 -0.334726 0)
(0.0116257 -0.333517 0)
(0.0192943 -0.328907 0)
(0.0269003 -0.326492 0)
(0.0347099 -0.319183 0)
(0.0437448 -0.312127 0)
(0.0539324 -0.301318 0)
(0.0658518 -0.294888 0)
(0.0794845 -0.282993 0)
(0.0932644 -0.281399 0)
(0.107201 -0.279712 0)
(0.121076 -0.278443 0)
(0.134665 -0.260357 0)
(0.151103 -0.248804 0)
(0.173659 -0.217037 0)
(0.202852 -0.198568 0)
(0.242318 -0.173815 0)
(0.301495 -0.125649 0)
(0.389926 -0.068296 0)
(0.508049 0.0140371 0)
(0.620081 0.115526 0)
(0.673414 0.124449 0)
(0.663721 0.158669 0)
(0.00446841 -0.343232 0)
(0.0132048 -0.341542 0)
(0.0225131 -0.338 0)
(0.0325784 -0.335215 0)
(0.0430924 -0.328932 0)
(0.0547926 -0.323275 0)
(0.0675811 -0.31332 0)
(0.0811341 -0.308547 0)
(0.0952531 -0.297288 0)
(0.108258 -0.294086 0)
(0.119116 -0.292008 0)
(0.12821 -0.289297 0)
(0.138505 -0.273574 0)
(0.150992 -0.264727 0)
(0.167649 -0.240597 0)
(0.189557 -0.226444 0)
(0.211373 -0.20761 0)
(0.237331 -0.177505 0)
(0.276381 -0.144661 0)
(0.345363 -0.0977573 0)
(0.468958 -0.00961917 0)
(0.617262 0.0468216 0)
(0.726927 0.135722 0)
(0.00504649 -0.352822 0)
(0.0153206 -0.351113 0)
(0.0260279 -0.3486 0)
(0.0371712 -0.345986 0)
(0.0486267 -0.340298 0)
(0.0608203 -0.33598 0)
(0.0738406 -0.326612 0)
(0.0873561 -0.32252 0)
(0.101142 -0.311421 0)
(0.113792 -0.305799 0)
(0.12372 -0.301247 0)
(0.13166 -0.297241 0)
(0.140044 -0.284468 0)
(0.150388 -0.276847 0)
(0.163758 -0.258727 0)
(0.17916 -0.245887 0)
(0.196376 -0.227474 0)
(0.217668 -0.20521 0)
(0.244109 -0.182864 0)
(0.274741 -0.159766 0)
(0.318599 -0.116019 0)
(0.396237 -0.0739833 0)
(0.516625 0.0251839 0)
(0.00599651 -0.363948 0)
(0.0181666 -0.362599 0)
(0.0305917 -0.360418 0)
(0.0432129 -0.358108 0)
(0.0560455 -0.352643 0)
(0.0693749 -0.349344 0)
(0.0834656 -0.340554 0)
(0.0979446 -0.336773 0)
(0.113177 -0.326393 0)
(0.128536 -0.319041 0)
(0.142504 -0.312084 0)
(0.154978 -0.306986 0)
(0.167468 -0.295768 0)
(0.180731 -0.289341 0)
(0.194968 -0.27405 0)
(0.210869 -0.262097 0)
(0.226272 -0.244123 0)
(0.240601 -0.224441 0)
(0.254733 -0.204493 0)
(0.269629 -0.183981 0)
(0.289126 -0.155571 0)
(0.312417 -0.135971 0)
(0.349516 -0.0712258 0)
(0.00623943 -0.376274 0)
(0.018819 -0.375203 0)
(0.031591 -0.373194 0)
(0.0445888 -0.371137 0)
(0.0578839 -0.36593 0)
(0.0716717 -0.363368 0)
(0.0861795 -0.355331 0)
(0.101259 -0.351763 0)
(0.117198 -0.342794 0)
(0.134347 -0.335377 0)
(0.151709 -0.3273 0)
(0.168594 -0.321342 0)
(0.185211 -0.310733 0)
(0.201326 -0.303973 0)
(0.217453 -0.290008 0)
(0.233702 -0.278526 0)
(0.250658 -0.260293 0)
(0.268973 -0.241159 0)
(0.288367 -0.221552 0)
(0.307063 -0.200769 0)
(0.323437 -0.174923 0)
(0.338246 -0.155003 0)
(0.356532 -0.107955 0)
(0.00697777 -0.389585 0)
(0.0209751 -0.388658 0)
(0.0350047 -0.386732 0)
(0.0492045 -0.38499 0)
(0.0637307 -0.380096 0)
(0.0786065 -0.378069 0)
(0.0939916 -0.370733 0)
(0.109743 -0.367408 0)
(0.126193 -0.359762 0)
(0.143621 -0.353223 0)
(0.161735 -0.345174 0)
(0.179906 -0.338767 0)
(0.198026 -0.328289 0)
(0.216226 -0.320976 0)
(0.23456 -0.307712 0)
(0.253508 -0.29627 0)
(0.272809 -0.279066 0)
(0.293168 -0.261335 0)
(0.314736 -0.242629 0)
(0.336114 -0.220055 0)
(0.358995 -0.195178 0)
(0.382152 -0.172997 0)
(0.40647 -0.132875 0)
(0.00731289 -0.403976 0)
(0.0220071 -0.40316 0)
(0.0368334 -0.401288 0)
(0.0518796 -0.399884 0)
(0.0672201 -0.395276 0)
(0.0828688 -0.393625 0)
(0.098947 -0.386858 0)
(0.115277 -0.383587 0)
(0.131864 -0.376848 0)
(0.148939 -0.370877 0)
(0.166382 -0.363321 0)
(0.184214 -0.356873 0)
(0.20248 -0.346822 0)
(0.220823 -0.339241 0)
(0.239437 -0.326655 0)
(0.258536 -0.315641 0)
(0.278649 -0.299386 0)
(0.300526 -0.283545 0)
(0.323949 -0.265721 0)
(0.349016 -0.24373 0)
(0.376624 -0.222337 0)
(0.405706 -0.198436 0)
(0.437811 -0.164242 0)
(0.00777815 -0.419171 0)
(0.0234092 -0.418498 0)
(0.0392587 -0.416835 0)
(0.0553525 -0.41569 0)
(0.0716935 -0.411368 0)
(0.0882385 -0.409947 0)
(0.105158 -0.40376 0)
(0.122417 -0.400503 0)
(0.14003 -0.394366 0)
(0.158165 -0.38881 0)
(0.176786 -0.381698 0)
(0.195721 -0.375515 0)
(0.215093 -0.366077 0)
(0.235046 -0.358546 0)
(0.255597 -0.346784 0)
(0.277117 -0.33641 0)
(0.299823 -0.321729 0)
(0.324098 -0.307667 0)
(0.349894 -0.291151 0)
(0.377272 -0.271097 0)
(0.406585 -0.252269 0)
(0.436724 -0.228119 0)
(0.468797 -0.199158 0)
(0.00811154 -0.435168 0)
(0.0244152 -0.434652 0)
(0.0407833 -0.433117 0)
(0.0572472 -0.432186 0)
(0.0738884 -0.428078 0)
(0.0906275 -0.426747 0)
(0.107604 -0.421086 0)
(0.124833 -0.417898 0)
(0.142342 -0.41233 0)
(0.16031 -0.407193 0)
(0.17875 -0.400627 0)
(0.197643 -0.394671 0)
(0.217141 -0.386055 0)
(0.237344 -0.378996 0)
(0.258556 -0.36838 0)
(0.28103 -0.359105 0)
(0.305098 -0.346123 0)
(0.331126 -0.333911 0)
(0.359108 -0.319041 0)
(0.389734 -0.301592 0)
(0.423037 -0.284798 0)
(0.458371 -0.261489 0)
(0.496382 -0.236324 0)
(0.00866614 -0.452058 0)
(0.0260464 -0.451671 0)
(0.0434371 -0.450082 0)
(0.0608684 -0.449343 0)
(0.0784915 -0.445414 0)
(0.0962691 -0.444159 0)
(0.114365 -0.438983 0)
(0.132813 -0.435917 0)
(0.15155 -0.430801 0)
(0.170657 -0.426046 0)
(0.190241 -0.420053 0)
(0.210398 -0.414558 0)
(0.231303 -0.406843 0)
(0.25309 -0.40048 0)
(0.275909 -0.391221 0)
(0.300003 -0.383142 0)
(0.325601 -0.372081 0)
(0.35296 -0.361691 0)
(0.382248 -0.348904 0)
(0.413928 -0.334437 0)
(0.448034 -0.319794 0)
(0.484738 -0.29899 0)
(0.525157 -0.277748 0)
(0.0086947 -0.469534 0)
(0.0261143 -0.469226 0)
(0.0435614 -0.467596 0)
(0.0610532 -0.466983 0)
(0.0786839 -0.463262 0)
(0.0964276 -0.462069 0)
(0.114405 -0.457386 0)
(0.132708 -0.454509 0)
(0.151346 -0.449834 0)
(0.170447 -0.445475 0)
(0.19012 -0.440144 0)
(0.210446 -0.43522 0)
(0.231599 -0.428519 0)
(0.25371 -0.422994 0)
(0.277051 -0.415173 0)
(0.301913 -0.408467 0)
(0.32862 -0.399402 0)
(0.357487 -0.390962 0)
(0.388753 -0.380576 0)
(0.423053 -0.369165 0)
(0.460481 -0.357053 0)
(0.50174 -0.340183 0)
(0.548039 -0.32381 0)
(0.00933692 -0.487683 0)
(0.0280423 -0.487438 0)
(0.0467405 -0.485767 0)
(0.0654257 -0.485228 0)
(0.0842029 -0.481664 0)
(0.103028 -0.480475 0)
(0.12198 -0.476153 0)
(0.141147 -0.473459 0)
(0.160579 -0.469206 0)
(0.180396 -0.465278 0)
(0.200719 -0.460601 0)
(0.221645 -0.456287 0)
(0.243356 -0.450599 0)
(0.266019 -0.445982 0)
(0.289876 -0.439693 0)
(0.315218 -0.434478 0)
(0.34236 -0.427589 0)
(0.371659 -0.421314 0)
(0.40351 -0.413744 0)
(0.438499 -0.405723 0)
(0.476884 -0.396781 0)
(0.519804 -0.385155 0)
(0.568412 -0.374325 0)
(0.00943705 -0.506579 0)
(0.0283221 -0.506376 0)
(0.0471434 -0.504591 0)
(0.0658668 -0.504055 0)
(0.0846022 -0.500594 0)
(0.103344 -0.499358 0)
(0.122187 -0.495313 0)
(0.141236 -0.492766 0)
(0.160554 -0.488903 0)
(0.180264 -0.485368 0)
(0.200492 -0.481329 0)
(0.221347 -0.477614 0)
(0.243066 -0.472987 0)
(0.265854 -0.469343 0)
(0.289997 -0.464645 0)
(0.315798 -0.460999 0)
(0.343594 -0.45636 0)
(0.373825 -0.452452 0)
(0.406835 -0.447877 0)
(0.443251 -0.443441 0)
(0.483447 -0.438131 0)
(0.528716 -0.432534 0)
(0.579965 -0.427406 0)
(0.00993484 -0.526075 0)
(0.0298025 -0.525881 0)
(0.0496092 -0.523962 0)
(0.0692993 -0.523345 0)
(0.0889687 -0.519956 0)
(0.108597 -0.518614 0)
(0.128243 -0.514796 0)
(0.147979 -0.51232 0)
(0.167888 -0.508831 0)
(0.188065 -0.505588 0)
(0.20862 -0.502159 0)
(0.229626 -0.498919 0)
(0.25131 -0.495368 0)
(0.273872 -0.492606 0)
(0.297546 -0.48951 0)
(0.322702 -0.48742 0)
(0.349682 -0.485067 0)
(0.379097 -0.48377 0)
(0.411374 -0.482256 0)
(0.447406 -0.481959 0)
(0.487803 -0.480701 0)
(0.533643 -0.481626 0)
(0.58587 -0.482409 0)
(0.0100195 -0.546156 0)
(0.0300627 -0.545964 0)
(0.0500626 -0.543938 0)
(0.0699582 -0.543207 0)
(0.0898594 -0.539918 0)
(0.109717 -0.538391 0)
(0.12957 -0.534772 0)
(0.14947 -0.532236 0)
(0.16951 -0.529122 0)
(0.189763 -0.52599 0)
(0.210341 -0.523156 0)
(0.231301 -0.520161 0)
(0.252825 -0.517616 0)
(0.27511 -0.515497 0)
(0.298322 -0.51381 0)
(0.322891 -0.513166 0)
(0.349144 -0.512894 0)
(0.377826 -0.514409 0)
(0.409409 -0.515878 0)
(0.4449 -0.520303 0)
(0.485104 -0.523451 0)
(0.530889 -0.531054 0)
(0.583611 -0.538556 0)
(0.0102993 -0.566603 0)
(0.0309014 -0.566419 0)
(0.0514759 -0.564314 0)
(0.0719502 -0.563456 0)
(0.0924405 -0.560316 0)
(0.112888 -0.558554 0)
(0.133307 -0.555138 0)
(0.15371 -0.552431 0)
(0.174137 -0.549653 0)
(0.194587 -0.546425 0)
(0.215157 -0.544135 0)
(0.235893 -0.541148 0)
(0.256901 -0.539437 0)
(0.278416 -0.537761 0)
(0.300489 -0.537124 0)
(0.323636 -0.537878 0)
(0.348113 -0.539238 0)
(0.374718 -0.543706 0)
(0.404097 -0.547928 0)
(0.437199 -0.557273 0)
(0.475245 -0.56521 0)
(0.519179 -0.579556 0)
(0.570698 -0.594915 0)
(0.010244 -0.587274 0)
(0.0307341 -0.587096 0)
(0.0512608 -0.584995 0)
(0.0717877 -0.584034 0)
(0.0924251 -0.581125 0)
(0.113125 -0.579152 0)
(0.133893 -0.575988 0)
(0.154715 -0.573068 0)
(0.175598 -0.570588 0)
(0.196483 -0.56709 0)
(0.217412 -0.565235 0)
(0.238388 -0.562028 0)
(0.259429 -0.560877 0)
(0.280721 -0.559406 0)
(0.302168 -0.559281 0)
(0.324201 -0.561195 0)
(0.347091 -0.563595 0)
(0.37152 -0.57071 0)
(0.398269 -0.577409 0)
(0.428248 -0.591269 0)
(0.462777 -0.604236 0)
(0.502997 -0.625195 0)
(0.550514 -0.648902 0)
(0.0100662 -0.607711 0)
(0.0301697 -0.607506 0)
(0.050375 -0.605571 0)
(0.0706973 -0.604562 0)
(0.0912079 -0.602002 0)
(0.111928 -0.599955 0)
(0.132846 -0.597131 0)
(0.153851 -0.594015 0)
(0.174893 -0.59183 0)
(0.195928 -0.588033 0)
(0.216981 -0.586541 0)
(0.238022 -0.583009 0)
(0.25903 -0.582216 0)
(0.280078 -0.580682 0)
(0.30102 -0.580669 0)
(0.322052 -0.583152 0)
(0.343573 -0.586339 0)
(0.365777 -0.594902 0)
(0.389375 -0.603888 0)
(0.415093 -0.620841 0)
(0.444081 -0.638579 0)
(0.477945 -0.665393 0)
(0.518037 -0.696842 0)
(0.00960775 -0.627508 0)
(0.028758 -0.627209 0)
(0.0480795 -0.625643 0)
(0.0676406 -0.624623 0)
(0.0874812 -0.622544 0)
(0.107719 -0.620626 0)
(0.128398 -0.618317 0)
(0.149402 -0.615101 0)
(0.170564 -0.613213 0)
(0.19179 -0.609177 0)
(0.213074 -0.608 0)
(0.234316 -0.604101 0)
(0.255457 -0.603542 0)
(0.276431 -0.601648 0)
(0.297138 -0.60162 0)
(0.317439 -0.603804 0)
(0.337608 -0.607651 0)
(0.357436 -0.615898 0)
(0.377453 -0.626794 0)
(0.398226 -0.644731 0)
(0.42092 -0.666704 0)
(0.447444 -0.698037 0)
(0.47934 -0.736629 0)
(0.00896683 -0.646199 0)
(0.0268323 -0.645766 0)
(0.0448914 -0.6447 0)
(0.0632313 -0.643703 0)
(0.0819023 -0.642216 0)
(0.101052 -0.640587 0)
(0.120787 -0.639023 0)
(0.141165 -0.636034 0)
(0.162054 -0.634593 0)
(0.183254 -0.630488 0)
(0.204666 -0.629651 0)
(0.226138 -0.625433 0)
(0.247595 -0.625077 0)
(0.268785 -0.622545 0)
(0.289522 -0.622434 0)
(0.309362 -0.623393 0)
(0.328332 -0.627458 0)
(0.346073 -0.63391 0)
(0.362919 -0.645893 0)
(0.379133 -0.66287 0)
(0.395733 -0.688124 0)
(0.414434 -0.722141 0)
(0.437299 -0.767636 0)
(0.00801018 -0.663284 0)
(0.0240078 -0.662759 0)
(0.040199 -0.662174 0)
(0.0566806 -0.661271 0)
(0.0735667 -0.66043 0)
(0.091 -0.659186 0)
(0.109078 -0.658474 0)
(0.127954 -0.656082 0)
(0.147716 -0.65545 0)
(0.168304 -0.65168 0)
(0.189569 -0.651402 0)
(0.211189 -0.647044 0)
(0.232924 -0.64693 0)
(0.254345 -0.643571 0)
(0.275192 -0.643257 0)
(0.294891 -0.642363 0)
(0.313079 -0.645889 0)
(0.329254 -0.649626 0)
(0.343376 -0.66136 0)
(0.355267 -0.67571 0)
(0.365693 -0.702508 0)
(0.376153 -0.737128 0)
(0.38928 -0.788891 0)
(0.0070981 -0.678489 0)
(0.0213119 -0.677959 0)
(0.0356909 -0.67774 0)
(0.0503339 -0.677028 0)
(0.0653917 -0.67682 0)
(0.0809759 -0.676023 0)
(0.0971967 -0.676152 0)
(0.114229 -0.674537 0)
(0.13224 -0.675004 0)
(0.15135 -0.672072 0)
(0.171583 -0.672766 0)
(0.192673 -0.668654 0)
(0.214275 -0.668927 0)
(0.235768 -0.664756 0)
(0.256848 -0.664265 0)
(0.276879 -0.661339 0)
(0.294863 -0.663321 0)
(0.309963 -0.663681 0)
(0.321865 -0.673515 0)
(0.329981 -0.683719 0)
(0.334514 -0.709591 0)
(0.336661 -0.742774 0)
(0.339049 -0.798898 0)
(0.00596293 -0.691635 0)
(0.0179225 -0.691156 0)
(0.0300266 -0.691198 0)
(0.0423724 -0.690734 0)
(0.0551139 -0.691092 0)
(0.068351 -0.690758 0)
(0.0822155 -0.691696 0)
(0.096892 -0.690904 0)
(0.11253 -0.6925 0)
(0.129284 -0.690664 0)
(0.14728 -0.692642 0)
(0.166478 -0.689317 0)
(0.186789 -0.690437 0)
(0.207702 -0.685915 0)
(0.228714 -0.685462 0)
(0.249016 -0.68073 0)
(0.267262 -0.680396 0)
(0.282362 -0.67701 0)
(0.293358 -0.683251 0)
(0.298925 -0.687787 0)
(0.29844 -0.709642 0)
(0.29203 -0.738489 0)
(0.282025 -0.795579 0)
(0.00497442 -0.702645 0)
(0.0149591 -0.702237 0)
(0.0250693 -0.70248 0)
(0.0353882 -0.702268 0)
(0.0460604 -0.703127 0)
(0.0571864 -0.703246 0)
(0.068911 -0.704964 0)
(0.0814258 -0.705003 0)
(0.094881 -0.707681 0)
(0.10944 -0.706995 0)
(0.125169 -0.71025 0)
(0.142071 -0.708035 0)
(0.160165 -0.710363 0)
(0.179093 -0.706077 0)
(0.19842 -0.705891 0)
(0.217371 -0.699801 0)
(0.234872 -0.697301 0)
(0.249779 -0.690313 0)
(0.260001 -0.691322 0)
(0.263502 -0.688878 0)
(0.258948 -0.703532 0)
(0.244435 -0.723614 0)
(0.221034 -0.776923 0)
(0.00393268 -0.711614 0)
(0.0118245 -0.711268 0)
(0.0198051 -0.711664 0)
(0.0279332 -0.711658 0)
(0.0363431 -0.71295 0)
(0.0451299 -0.713471 0)
(0.0544368 -0.715912 0)
(0.0644302 -0.716713 0)
(0.075216 -0.720372 0)
(0.0869576 -0.720775 0)
(0.0997358 -0.725159 0)
(0.113647 -0.724135 0)
(0.128708 -0.727627 0)
(0.1447 -0.723952 0)
(0.161469 -0.724339 0)
(0.178405 -0.717467 0)
(0.194781 -0.713727 0)
(0.209364 -0.703571 0)
(0.21957 -0.698641 0)
(0.222976 -0.688546 0)
(0.217256 -0.69358 0)
(0.198587 -0.700254 0)
(0.165662 -0.743707 0)
(0.00306022 -0.718658 0)
(0.00919086 -0.718349 0)
(0.0153727 -0.718849 0)
(0.0216526 -0.718985 0)
(0.028152 -0.720639 0)
(0.0349529 -0.721481 0)
(0.0421815 -0.724554 0)
(0.0499658 -0.725971 0)
(0.0584088 -0.730473 0)
(0.0676806 -0.731829 0)
(0.0778474 -0.737203 0)
(0.0890141 -0.737332 0)
(0.101196 -0.741849 0)
(0.114306 -0.739019 0)
(0.128247 -0.740178 0)
(0.142408 -0.732923 0)
(0.156138 -0.728572 0)
(0.168163 -0.715511 0)
(0.17662 -0.705501 0)
(0.179222 -0.687766 0)
(0.172537 -0.681931 0)
(0.152446 -0.672981 0)
(0.115678 -0.700965 0)
(0.00224557 -0.724004 0)
(0.00672736 -0.723696 0)
(0.0112201 -0.724258 0)
(0.015757 -0.724476 0)
(0.0204296 -0.726406 0)
(0.0252942 -0.727468 0)
(0.0304511 -0.731045 0)
(0.0360079 -0.732919 0)
(0.0420598 -0.738125 0)
(0.0487313 -0.740233 0)
(0.0560702 -0.746425 0)
(0.0641574 -0.747495 0)
(0.0730107 -0.752863 0)
(0.0825794 -0.750833 0)
(0.092835 -0.752719 0)
(0.103434 -0.745304 0)
(0.114013 -0.740662 0)
(0.123568 -0.725148 0)
(0.130831 -0.711701 0)
(0.133596 -0.686998 0)
(0.128101 -0.670492 0)
(0.110192 -0.646259 0)
(0.074521 -0.654908 0)
(0.00164624 -0.727928 0)
(0.00490465 -0.727577 0)
(0.00812521 -0.728155 0)
(0.0113409 -0.728396 0)
(0.0146294 -0.730513 0)
(0.0180331 -0.731697 0)
(0.0216333 -0.735644 0)
(0.0255063 -0.737825 0)
(0.0297208 -0.743565 0)
(0.0343478 -0.746177 0)
(0.0394224 -0.752987 0)
(0.0449925 -0.75469 0)
(0.0510644 -0.7607 0)
(0.0575936 -0.759208 0)
(0.0645628 -0.76169 0)
(0.0716926 -0.754186 0)
(0.0786682 -0.749459 0)
(0.0846688 -0.732021 0)
(0.0886049 -0.716119 0)
(0.0884728 -0.68526 0)
(0.0812346 -0.659464 0)
(0.0631191 -0.621108 0)
(0.0275862 -0.608516 0)
(0.00110094 -0.730701 0)
(0.00327771 -0.73029 0)
(0.0054229 -0.730858 0)
(0.00754557 -0.731082 0)
(0.00968786 -0.733309 0)
(0.011869 -0.734538 0)
(0.014131 -0.738719 0)
(0.0165049 -0.741053 0)
(0.0190298 -0.747136 0)
(0.0217311 -0.749997 0)
(0.0246335 -0.75721 0)
(0.0277424 -0.759216 0)
(0.0310559 -0.765634 0)
(0.0345142 -0.76434 0)
(0.0380793 -0.767175 0)
(0.041527 -0.759362 0)
(0.0446455 -0.754458 0)
(0.0468799 -0.735329 0)
(0.0474137 -0.717334 0)
(0.0446838 -0.681198 0)
(0.0357805 -0.647331 0)
(0.0168807 -0.596064 0)
(-0.0185483 -0.562259 0)
(0.000761509 -0.732583 0)
(0.00226763 -0.73213 0)
(0.00373074 -0.732665 0)
(0.00512068 -0.732826 0)
(0.00646268 -0.735088 0)
(0.00777452 -0.736291 0)
(0.00907667 -0.74057 0)
(0.0103721 -0.742912 0)
(0.0116742 -0.749146 0)
(0.0129797 -0.752037 0)
(0.0142947 -0.759433 0)
(0.0155911 -0.761446 0)
(0.0168613 -0.768036 0)
(0.0180126 -0.766595 0)
(0.0189704 -0.76949 0)
(0.0195421 -0.761112 0)
(0.0195361 -0.755862 0)
(0.0185075 -0.735163 0)
(0.0157319 -0.715273 0)
(0.00994141 -0.674722 0)
(-0.00136076 -0.633524 0)
(-0.0217047 -0.57045 0)
(-0.0568129 -0.516996 0)
(0.000441609 -0.733802 0)
(0.00130447 -0.733312 0)
(0.00211351 -0.733787 0)
(0.00282558 -0.733836 0)
(0.00343639 -0.73606 0)
(0.00394716 -0.737171 0)
(0.00436188 -0.741436 0)
(0.00465874 -0.743667 0)
(0.00482666 -0.749889 0)
(0.00483991 -0.752641 0)
(0.00468512 -0.760017 0)
(0.00431317 -0.761812 0)
(0.00369104 -0.768343 0)
(0.00271886 -0.766491 0)
(0.00130839 -0.769162 0)
(-0.000718932 -0.76 0)
(-0.00356142 -0.754135 0)
(-0.00756209 -0.731859 0)
(-0.0132695 -0.710074 0)
(-0.0215002 -0.665851 0)
(-0.0341508 -0.618341 0)
(-0.0546286 -0.544622 0)
(-0.0880579 -0.473953 0)
(0.000196724 -0.734453 0)
(0.000573024 -0.733925 0)
(0.00090886 -0.734343 0)
(0.0011669 -0.734274 0)
(0.00130762 -0.736397 0)
(0.00128833 -0.737347 0)
(0.0010871 -0.741494 0)
(0.000670682 -0.743509 0)
(1.36884e-05 -0.749575 0)
(-0.000916395 -0.752053 0)
(-0.0021438 -0.759236 0)
(-0.00372802 -0.760648 0)
(-0.00572862 -0.766892 0)
(-0.00825336 -0.764448 0)
(-0.011383 -0.766663 0)
(-0.0152255 -0.756621 0)
(-0.0198715 -0.750009 0)
(-0.0255218 -0.726307 0)
(-0.0325371 -0.70286 0)
(-0.041452 -0.655853 0)
(-0.053381 -0.603655 0)
(-0.0711978 -0.520837 0)
(-0.101351 -0.433847 0)
(-4.50343e-05 -0.734615 0)
(-0.000167207 -0.734037 0)
(-0.000370673 -0.734383 0)
(-0.000687773 -0.734194 0)
(-0.00113698 -0.736185 0)
(-0.00176119 -0.73693 0)
(-0.00260198 -0.740882 0)
(-0.00370686 -0.742611 0)
(-0.00512445 -0.748408 0)
(-0.00690651 -0.750514 0)
(-0.00910633 -0.75735 0)
(-0.011805 -0.758249 0)
(-0.0150858 -0.764003 0)