/*--------------------------------*- C++ -*----------------------------------*\
| =========                 |                                                 |
| \\      /  F ield         | OpenFOAM: The Open Source CFD Toolbox           |
|  \\    /   O peration     | Version:  2012                                  |
|   \\  /    A nd           | Website:  www.openfoam.com                      |
|    \\/     M anipulation  |                                                 |
\*---------------------------------------------------------------------------*/
FoamFile
{
    version     2.0;
    format      ascii;
    class       volScalarField;
    location    "0.42";
    object      volumeFraction1;
}
// * * * * * * * * * * * * * * * * * * * * * * * * * * * * * * * * * * * * * //

dimensions      [0 0 0 0 0 0 0];


internalField   nonuniform List<scalar> 
2268
(
1
1
1
1
1
1
1
1
1
1
1
1
1
1
1
1
1
1
1
1
1
1
0.999471
1
1
1
1
1
1
1
1
1
1
1
1
1
1
1
1
1
1
1
1
1
1
0.999471
1
1
1
1
1
1
1
1
1
1
1
1
1
1
1
1
1
1
1
1
1
1
0.99986
1
1
1
1
1
1
1
1
1
1
1
1
1
1
1
1
1
1
1
1
1
1
1
1
1
1
1
1
1
1
1
1
1
1
1
1
1
1
1
1
1
1
1
1
1
1
1
1
1
1
1
1
1
1
1
1
1
1
1
1
1
1
1
1
1
1
1
1
0.999307
1
1
1
1
1
1
1
1
1
1
1
1
1
1
1
1
1
1
1
1
1
1
0.998993
1
1
1
1
1
1
1
1
1
1
1
1
1
1
1
1
1
1
1
1
1
1
0.998993
6.2108e-22
6.32004e-21
3.69906e-20
4.31108e-20
3.79798e-20
1.71962e-20
7.83578e-21
1.19926e-19
5.83586e-18
1.99669e-16
4.66179e-15
7.52434e-14
7.94674e-13
5.41908e-12
2.25199e-11
5.88843e-11
1.05904e-10
1.60619e-10
2.19633e-10
2.59852e-20
5.30898e-19
2.86625e-18
2.96456e-18
1.96007e-18
8.47208e-19
2.78209e-19
8.20502e-19
3.24587e-17
9.55289e-16
1.92196e-14
2.64929e-13
2.40222e-12
1.39278e-11
5.22164e-11
1.29207e-10
2.26359e-10
4.79281e-10
1.34312e-09
1.19016e-18
3.21835e-17
1.17765e-16
1.10694e-16
6.40996e-17
2.59267e-17
8.41966e-18
4.50461e-18
1.00615e-16
2.58408e-15
4.58634e-14
5.62984e-13
4.56307e-12
2.33473e-11
7.29238e-11
1.2678e-10
3.09626e-10
8.12519e-10
3.1168e-09
3.73601e-17
1.60605e-15
2.81591e-15
2.55872e-15
1.29529e-15
4.81645e-16
1.57691e-16
3.90712e-17
2.17284e-16
4.68618e-15
7.44909e-14
8.34313e-13
6.20375e-12
3.15824e-11
1.60522e-10
2.42157e-09
4.15747e-08
1.00565e-07
3.51227e-09
2.58873e-15
6.33456e-14
4.10919e-14
3.92128e-14
1.67754e-14
5.95707e-15
2.1252e-15
4.46641e-16
5.36752e-16
7.41249e-15
1.04644e-13
1.1167e-12
8.74456e-12
5.40516e-11
3.67402e-10
1.47432e-08
4.1724e-07
1.31897e-06
3.46139e-09
5.21534e-14
1.13537e-12
2.69884e-13
3.80915e-13
1.61032e-13
5.40181e-14
2.00784e-14
4.2872e-15
2.7946e-15
1.2061e-14
1.35365e-13
1.36101e-12
1.04883e-11
6.08316e-11
2.89251e-10
7.40702e-09
4.6252e-07
1.60778e-06
3.46139e-09
4.20267e-12
4.53304e-11
2.58233e-12
8.45277e-12
1.61032e-13
3.4106e-13
1.46179e-13
3.56823e-14
2.31373e-14
3.1541e-14
1.68952e-13
1.36246e-12
9.59926e-12
5.44928e-11
2.56098e-10
3.73711e-09
6.17871e-08
1.53348e-06
3.46139e-09
4.20286e-12
9.22218e-07
5.94901e-07
1.43808e-07
1.24361e-09
3.19706e-12
7.94995e-13
2.39926e-13
2.1388e-13
2.84313e-13
3.05323e-13
1.37239e-12
7.96103e-12
3.9328e-11
1.80821e-10
7.8172e-10
8.84055e-11
2.61452e-07
1.18415e-05
0.999999
0.999999
0.999999
0.999999
0.999999
0.999999
0.999999
0.999999
0.999999
1
1
1
1
1
1
1
1
1
1
1
1
1
0.998994
0.993345
0.993054
0.993191
0.993057
0.992887
0.992836
0.993079
0.993047
0.993727
0.994288
0.995245
0.996366
0.997599
0.998749
0.99955
0.999968
1
1
1
1
1
1
0.999249
0.615497
0.610394
0.612037
0.608978
0.605716
0.604448
0.608367
0.607421
0.620664
0.63293
0.655669
0.686998
0.732357
0.787905
0.855541
0.927737
0.994412
1
1
1
1
1
0.999944
0.0124071
0.0112372
0.0111443
0.00989678
0.00903694
0.00851945
0.0094561
0.00920252
0.0132872
0.017554
0.0259085
0.0386338
0.059606
0.0893134
0.137403
0.207043
0.333986
0.55117
0.835456
0.998477
1
1
1
1.47664e-35
1.48711e-35
-4.95523e-35
7.50575e-33
1.6161e-32
1.6207e-31
-7.9735e-31
-1.52637e-29
1.93752e-30
-1.08933e-30
6.96107e-27
2.8575e-26
-6.76621e-26
2.80148e-26
-3.5289e-28
-5.5504e-28
0.00181448
0.0202984
0.0908619
0.230208
0.493825
0.841837
1
2.05856e-18
1.23491e-16
4.10692e-15
8.35609e-14
1.16332e-12
1.23868e-11
2.46131e-11
2.05002e-11
2.74738e-12
-5.58526e-32
3.13957e-08
3.21422e-07
9.52612e-07
7.78187e-07
2.85753e-07
8.93568e-09
1.24347e-09
9.39629e-06
0.000427176
0.0034631
0.0181427
0.105739
0.30418
4.42009e-18
2.59219e-16
8.37107e-15
1.5963e-13
2.16776e-12
2.30645e-11
3.94605e-11
5.39974e-11
2.18684e-11
1.39116e-30
5.12248e-07
2.23559e-06
2.45591e-06
2.45536e-06
6.73413e-07
7.31801e-09
1.2435e-09
1.24347e-09
3.32455e-08
9.95221e-07
4.12567e-05
0.000986684
0.00884006
5.10919e-18
2.95535e-16
9.40297e-15
1.74114e-13
2.30815e-12
2.45815e-11
3.73551e-11
8.76254e-11
1.16308e-10
-7.88616e-30
1.07092e-06
2.36269e-06
2.36252e-06
9.38308e-07
9.00415e-08
3.02395e-08
1.4783e-08
1.2435e-09
8.19136e-08
5.29983e-07
1.08131e-06
2.30643e-06
1.02404e-05
4.99589e-18
2.84919e-16
8.86967e-15
1.57283e-13
1.8821e-12
2.03804e-11
1.91826e-11
1.63997e-10
6.96534e-10
8.35696e-12
2.14766e-07
5.38794e-07
2.47413e-08
2.50001e-10
6.20178e-09
5.63357e-08
5.63357e-08
1.90833e-08
2.23072e-09
4.19574e-06
7.80004e-06
7.80754e-06
7.71998e-06
3.46632e-18
1.86798e-16
5.42119e-15
8.8899e-14
9.11181e-13
9.7754e-12
4.51851e-12
2.83519e-10
1.8589e-09
2.39884e-08
1.32235e-11
1.30688e-11
1.30711e-11
2.49997e-10
2.50001e-10
3.74428e-08
5.63357e-08
3.24376e-08
2.23076e-09
6.0623e-14
6.24798e-14
3.6405e-06
1.33094e-05
1.55464e-18
8.14889e-17
2.30788e-15
3.6929e-14
3.56619e-13
3.73419e-12
6.26851e-13
4.00071e-10
1.98492e-09
1.43753e-09
2.79705e-10
1.0259e-10
2.60562e-10
1.23217e-09
1.18204e-09
2.72438e-10
1.13634e-08
1.03501e-08
2.63893e-09
2.3748e-10
9.15189e-12
3.00648e-16
3.00648e-16
5.69097e-19
2.93054e-17
8.15803e-16
1.28253e-14
1.22246e-13
1.21234e-12
6.26854e-13
2.34501e-10
1.12892e-09
5.34087e-10
2.63892e-10
1.51838e-10
3.13394e-10
1.13013e-09
1.14321e-09
2.72439e-10
1.16587e-10
1.16587e-10
1.86787e-10
1.6335e-10
8.87202e-11
2.53776e-11
5.15732e-11
1.70105e-19
8.58155e-18
2.35349e-16
3.65942e-15
3.56072e-14
3.19909e-13
6.26854e-13
8.47222e-11
1.14365e-10
1.48196e-10
1.18008e-10
8.70088e-11
1.1749e-10
3.05547e-10
4.41372e-10
5.29185e-10
5.11157e-10
4.43009e-10
3.3303e-10
1.92784e-10
9.86369e-11
4.95932e-11
1.87007e-11
4.11845e-20
2.04949e-18
5.57807e-17
8.67031e-16
8.7378e-15
7.17175e-14
5.49128e-13
1.5386e-11
2.7912e-11
3.42972e-11
2.94966e-11
2.02952e-11
2.83865e-11
4.30805e-11
7.49179e-11
1.37324e-10
1.36243e-10
1.33152e-10
1.10385e-10
6.74612e-11
3.49276e-11
1.96549e-11
1.29542e-11
7.97431e-21
3.95435e-19
1.07892e-17
1.70384e-16
1.81132e-15
1.51207e-14
2.71059e-13
1.46737e-12
3.92809e-12
4.54056e-12
3.87704e-12
3.18029e-12
4.48846e-12
8.26897e-12
1.38456e-11
1.63902e-11
1.70859e-11
1.66321e-11
1.45258e-11
1.0505e-11
6.1087e-12
3.48225e-12
2.03292e-12
1.21053e-21
6.07167e-20
1.68807e-18
2.77183e-17
3.17101e-16
2.81316e-15
6.82099e-14
1.28573e-13
1.75509e-13
1.79437e-13
2.00487e-13
3.76766e-13
8.88467e-13
1.65494e-12
2.11726e-12
2.21787e-12
2.19931e-12
2.06724e-12
1.77326e-12
1.31828e-12
7.97614e-13
4.48381e-13
2.53384e-13
1.39612e-22
7.19664e-21
2.08029e-19
3.63765e-18
4.53878e-17
4.18834e-16
9.58682e-15
1.73222e-14
1.61258e-14
1.20599e-14
1.82247e-14
5.99564e-14
1.74307e-13
3.16176e-13
3.64016e-13
3.64586e-13
3.43491e-13
2.92804e-13
2.16147e-13
1.32383e-13
7.64958e-14
3.99332e-14
2.19837e-14
1.17168e-23
6.46906e-22
2.01614e-20
3.863e-19
5.27621e-18
4.89038e-17
6.58298e-16
1.74281e-15
1.97187e-15
1.8274e-15
2.9972e-15
9.08876e-15
2.38035e-14
3.75862e-14
4.07904e-14
3.99245e-14
3.60527e-14
2.87121e-14
1.87455e-14
1.07237e-14
5.45736e-15
2.59883e-15
2.87495e-15
6.68119e-25
4.13134e-23
1.43693e-21
3.05492e-20
4.48311e-19
4.13079e-18
2.90792e-17
5.81727e-17
6.84306e-17
9.84727e-17
2.78965e-16
8.823e-16
1.98698e-15
2.58738e-15
2.66211e-15
2.56992e-15
2.30627e-15
1.86747e-15
1.28825e-15
7.175e-16
3.04633e-16
2.87049e-16
9.77607e-16
2.33564e-26
1.74202e-24
7.04359e-23
1.66666e-21
2.57146e-20
2.28889e-19
1.25959e-18
2.04255e-18
3.06249e-18
6.86402e-18
2.31468e-17
6.56956e-17
9.92875e-17
1.01272e-16
9.90651e-17
9.64384e-17
9.23145e-17
8.28323e-17
6.51008e-17
3.51698e-17
2.09228e-17
6.17155e-17
6.92231e-16
4.40672e-28
3.98002e-26
1.85561e-24
4.74925e-23
7.50014e-22
6.33363e-21
2.47942e-20
5.74932e-20
1.46998e-19
4.64195e-19
1.50365e-18
3.09694e-18
3.21795e-18
2.73022e-18
2.52876e-18
2.73907e-18
2.86132e-18
2.69453e-18
2.12487e-18
1.1041e-18
2.11332e-18
3.25442e-17
6.80169e-16
6.31973e-30
3.74074e-28
1.26801e-26
2.83304e-25
5.1437e-24
6.19555e-23
3.72425e-22
1.69663e-21
7.18677e-21
2.50688e-20
6.75003e-20
1.09826e-19
1.10288e-19
9.49475e-20
8.03755e-20
7.60762e-20
7.14495e-20
6.17148e-20
3.74642e-20
4.6237e-20
7.74914e-19
2.83764e-17
9.76909e-16
2.82647e-31
1.75115e-29
6.02686e-28
1.32989e-26
2.34032e-25
2.82829e-24
1.74716e-23
7.86851e-23
3.09227e-22
9.71538e-22
2.13355e-21
3.15315e-21
3.24955e-21
2.94928e-21
2.0997e-21
1.04767e-21
5.62096e-22
2.64294e-22
4.85623e-22
1.09901e-20
5.75683e-19
3.2511e-17
1.37568e-15
6.17846e-33
3.91995e-31
1.32116e-29
2.67318e-28
3.81666e-27
3.80156e-26
2.90638e-25
1.63493e-24
6.95867e-24
2.10653e-23
4.37571e-23
7.82047e-23
8.7642e-23
8.1363e-23
5.88567e-23
2.60351e-23
7.09085e-24
8.97426e-24
1.57947e-22
6.32508e-21
5.50966e-19
3.81096e-17
1.56561e-15
2.40567e-38
1.04662e-36
2.36683e-35
3.14172e-34
2.71043e-33
9.75775e-33
2.59483e-32
1.86954e-31
1.21694e-30
5.27721e-30
1.55696e-29
3.34733e-29
3.75557e-29
3.01356e-29
3.6989e-29
1.12074e-27
5.88019e-26
2.3532e-24
7.32203e-23
3.8671e-21
5.38538e-19
3.89559e-17
1.56934e-15
1.57778e-42
9.25391e-41
2.99919e-39
6.37705e-38
1.07926e-36
1.68506e-35
5.02043e-34
8.54286e-33
6.42901e-32
2.92257e-31
8.69293e-31
1.82871e-30
1.99523e-30
1.58012e-30
5.31174e-30
3.58152e-28
2.05492e-26
8.89771e-25
3.14984e-23
2.20856e-21
4.01139e-19
2.92758e-17
1.05369e-15
7.75894e-46
4.44132e-44
1.34701e-42
2.54086e-41
3.41213e-40
3.3691e-39
2.56711e-38
1.53577e-37
7.2577e-37
2.90791e-36
1.01977e-35
8.47755e-35
2.50609e-34
9.20572e-33
1.06159e-30
9.99452e-29
6.23068e-27
2.95909e-25
1.22889e-23
1.08882e-21
1.81749e-19
1.28209e-17
4.49952e-16
2.05242e-51
1.53189e-49
6.13044e-48
1.57178e-46
2.93887e-45
4.21152e-44
4.81777e-43
4.56197e-42
3.52635e-41
2.35446e-40
1.43439e-39
5.15852e-38
9.39815e-36
1.70838e-33
2.27511e-31
2.38249e-29
1.6148e-27
8.56256e-26
4.26236e-24
4.40824e-22
6.59615e-20
4.60412e-18
1.6343e-16
6.16804e-55
5.0251e-53
2.18461e-51
6.17497e-50
1.28752e-48
2.12443e-47
2.88222e-46
3.37565e-45
3.31724e-44
3.40433e-43
2.01627e-41
5.39562e-39
1.26684e-36
2.65188e-34
4.01455e-32
4.6946e-30
3.48147e-28
2.11482e-26
1.27826e-24
1.40125e-22
1.82649e-20
1.26498e-18
4.55014e-17
2.34906e-61
2.40259e-59
1.44511e-57
6.30503e-56
2.1671e-54
6.04195e-53
1.37125e-51
4.29039e-50
9.01949e-48
3.782e-45
1.39781e-42
4.85974e-40
1.34326e-37
3.26047e-35
5.69536e-33
7.47683e-31
6.13641e-29
4.40121e-27
3.23863e-25
3.37989e-23
3.59382e-21
2.4163e-19
8.93711e-18
1.27509e-66
2.17518e-64
2.0288e-62
1.27894e-60
6.10902e-59
3.39897e-57
8.83317e-55
5.23899e-52
2.93237e-49
1.54957e-46
7.05656e-44
2.98199e-41
1.01064e-38
2.91319e-36
6.0691e-34
9.11703e-32
8.49803e-30
7.47153e-28
6.73053e-26
6.17401e-24
4.80582e-22
2.89008e-20
1.40323e-18
7.6022e-71
1.91193e-68
2.5354e-66
2.28726e-64
2.16159e-62
8.34683e-60
7.03919e-57
6.06353e-54
4.6494e-51
3.36109e-48
2.08551e-45
1.15481e-42
5.0833e-40
1.79735e-37
4.61558e-35
8.1532e-33
8.91722e-31
9.91605e-29
1.11301e-26
9.70132e-25
5.89255e-23
2.92613e-21
6.96633e-19
2.03669e-75
7.65456e-73
1.64521e-70
3.55304e-68
2.09792e-65
2.60562e-62
3.24447e-59
3.87171e-56
4.13209e-53
4.12305e-50
3.46364e-47
2.53196e-44
1.43348e-41
6.50832e-39
2.13795e-36
4.77811e-34
6.52676e-32
9.48863e-30
1.39129e-27
1.54304e-25
1.1878e-23
8.00563e-22
1.07835e-18
3.23882e-79
1.56191e-76
4.41923e-74
1.38608e-71
1.20946e-68
2.02219e-65
3.61614e-62
6.33318e-59
1.00421e-55
1.53099e-52
1.89192e-49
2.1537e-46
1.85201e-43
1.29382e-40
6.11906e-38
1.86748e-35
3.27667e-33
6.0891e-31
1.20448e-28
1.84567e-26
2.12923e-24
3.71717e-22
1.23991e-18
1.6829e-83
1.17362e-80
4.89416e-78
2.4252e-75
3.94576e-72
1.21871e-68
3.86413e-65
1.15595e-61
2.83549e-58
5.82072e-55
9.65257e-52
1.42242e-48
1.56509e-45
1.46623e-42
9.11368e-40
4.19388e-37
1.1563e-34
3.364e-32
1.24867e-29
4.15741e-27
1.22822e-24
9.87387e-22
1.13074e-18
2.46249e-87
2.04862e-83
2.13953e-79
1.58004e-75
9.03863e-72
4.14229e-68
1.54887e-64
4.72787e-61
1.14579e-57
2.07142e-54
2.86281e-51
3.03909e-48
2.56848e-45
1.67725e-42
8.86078e-40
3.6995e-37
1.34698e-34
5.39492e-32
2.81212e-29
1.62196e-26
6.89083e-24
6.70324e-21
2.41294e-18
1.38145e-86
2.915e-82
2.97404e-78
2.02024e-74
1.03953e-70
4.3915e-67
1.51762e-63
4.32255e-60
1.00381e-56
1.84044e-53
2.6786e-50
2.95265e-47
2.54224e-44
1.69097e-41
8.91728e-39
3.69179e-36
1.31882e-33
5.04869e-31
2.39817e-28
1.30291e-25
6.44097e-23
3.13889e-20
4.69323e-18
2.20898e-85
4.27156e-81
4.0592e-77
2.53037e-73
1.17914e-69
4.54479e-66
1.43355e-62
3.72511e-59
7.97518e-56
1.43663e-52
2.30827e-49
2.64978e-46
2.29853e-43
1.55105e-40
8.23064e-38
3.49955e-35
1.29839e-32
5.06153e-30
2.2805e-27
8.77939e-25
2.33238e-22
3.85935e-20
3.64002e-18
3.55434e-84
6.62914e-80
6.04576e-76
3.57296e-72
1.54417e-68
5.38844e-65
1.5354e-61
3.60906e-58
6.99001e-55
1.21934e-51
2.21871e-48
2.65529e-45
2.2752e-42
1.53564e-39
8.12454e-37
3.41838e-34
1.15428e-31
3.1884e-29
7.26147e-27
1.37367e-24
2.13362e-22
2.60539e-20
2.2468e-18
6.07208e-83
1.119e-78
1.00655e-74
5.8283e-71
2.42068e-67
7.84475e-64
2.05099e-60
4.42998e-57
7.79013e-54
1.09414e-50
1.20392e-47
1.08135e-44
7.85191e-42
4.59056e-39
2.14797e-36
8.09932e-34
2.46066e-31
6.08354e-29
1.21942e-26
1.97558e-24
2.52781e-22
2.4972e-20
1.8327e-18
1.01128e-81
1.77064e-77
1.4862e-73
7.8474e-70
2.86148e-66
7.58789e-63
1.4981e-59
2.24251e-56
2.57604e-53
2.30206e-50
1.62541e-47
9.24618e-45
4.29228e-42
1.63036e-39
5.1455e-37
1.37757e-34
3.18588e-32
6.46437e-30
1.15966e-27
1.84388e-25
2.56663e-23
3.05244e-21
2.95944e-19
3.77922e-81
6.12022e-77
4.68969e-73
2.23289e-69
7.29814e-66
1.7313e-62
3.06768e-59
4.1551e-56
4.35662e-53
3.58314e-50
2.32948e-47
1.2107e-44
5.07512e-42
1.74798e-39
5.04222e-37
1.25809e-34
2.7914e-32
5.56894e-30
9.88955e-28
1.54101e-25
2.0626e-23
2.33699e-21
2.17345e-19
0.999123
0.999834
0.999959
0.604567
0.999261
0.999815
0.999959
0.987186
0.999882
0.999936
0.999952
0.999887
1
1
0.999995
0.999994
1
1
1
1
0.480176
0.626395
0.826695
0.979144
0.0201589
0.0408522
0.0809117
0.136944
3.78476e-05
0.000138862
0.000525912
0.00146457
7.72588e-06
9.28909e-06
1.16628e-05
1.40579e-05
4.08537e-05
4.11073e-05
4.10966e-05
4.11078e-05
3.09753e-10
4.19828e-10
2.98266e-05
4.10966e-05
7.44668e-09
4.32858e-10
5.96834e-13
2.15917e-06
4.67037e-12
1.38713e-12
5.96867e-13
4.0492e-13
8.70657e-12
6.79264e-12
4.81824e-12
2.51079e-12
1.40776e-12
1.11322e-12
8.37289e-13
6.86695e-13
1.75286e-13
1.4103e-13
1.09497e-13
8.9243e-14
1.78287e-14
1.79487e-14
1.96347e-14
2.42732e-14
3.88253e-15
5.65981e-15
9.14345e-15
1.6001e-14
2.13005e-15
3.81707e-15
7.34781e-15
1.53788e-14
1.73732e-15
3.38038e-15
7.74013e-15
2.49333e-14
1.85156e-15
4.29379e-15
1.46606e-14
7.14784e-14
2.98068e-15
8.34851e-15
3.67593e-14
2.11371e-13
4.65515e-15
1.58197e-14
8.23429e-14
5.42917e-13
5.71693e-15
2.22455e-14
1.25181e-13
1.02269e-12
6.06015e-15
2.56457e-14
1.48752e-13
1.01837e-12
4.91573e-15
2.47815e-14
1.47049e-13
5.74937e-13
2.36056e-15
1.38023e-14
8.27106e-14
3.13619e-13
9.70404e-16
6.17163e-15
3.9905e-14
1.69843e-13
3.21855e-16
2.51715e-15
2.16012e-14
1.39147e-13
9.41385e-17
1.40311e-15
2.02871e-14
2.46347e-13
5.58067e-17
1.88916e-15
4.83314e-14
7.19483e-13
1.09949e-16
4.98276e-15
1.05252e-13
1.25411e-12
1.83411e-16
7.11733e-15
1.32311e-13
1.49433e-12
1.89851e-16
7.20867e-15
1.19464e-13
8.61431e-13
1.30195e-16
3.37991e-15
4.27491e-14
3.20043e-13
1.2542e-16
2.49233e-15
3.03485e-14
2.414e-13
2.02062e-16
3.65913e-15
4.28198e-14
3.31277e-13
1.46073e-16
2.70246e-15
3.43566e-14
2.9734e-13
9.1291e-17
1.76731e-15
2.38139e-14
2.18978e-13
6.96269e-17
1.32296e-15
1.84221e-14
1.81739e-13
1.62755e-17
4.68301e-16
1.03749e-14
1.65719e-13
1.18072e-17
3.42212e-16
7.88099e-15
1.35885e-13
0.044116
0.00890263
0.00100039
2.10967e-05
2.70316e-08
8.20667e-11
2.82177e-11
5.03206e-12
1.15688e-12
4.01924e-13
1.96289e-12
5.29499e-12
1.3472e-11
3.3645e-11
9.60902e-11
2.27805e-10
8.83973e-11
3.35141e-16
0.0227412
0.951108
0.554319
0.046347
0.00046753
6.90025e-07
8.06114e-10
2.10482e-10
1.44431e-10
1.2961e-10
4.01918e-13
2.14199e-12
2.14199e-12
1.11406e-11
2.96472e-11
6.50264e-11
1.0261e-10
3.48907e-10
3.37522e-16
0.41987
0.999997
0.954788
0.362908
0.0149632
0.000175904
6.76441e-10
1.47009e-10
1.88503e-10
6.20508e-10
4.37697e-09
9.92626e-09
6.34284e-09
1.75139e-12
1.75728e-12
1.75139e-12
1.79701e-12
2.62248e-09
3.35141e-16
0.669187
0.999997
1
0.879742
0.227645
2.96885e-11
2.96888e-11
3.65618e-11
6.73889e-11
1.96944e-10
1.68454e-09
6.73354e-09
8.7878e-09
1.96243e-08
7.56352e-08
9.60042e-08
9.6043e-08
2.27861e-08
3.3751e-16
0.668996
1
1
1
0.873722
0.411809
0.0186983
3.47983e-16
3.48065e-16
3.47968e-16
3.48068e-16
3.47968e-16
3.48068e-16
3.47975e-16
1.50357e-08
5.35574e-08
5.73198e-08
6.69021e-08
3.35127e-16
0.656298
1
1
1
0.999331
0.954347
0.78332
0.479383
0.253905
0.191438
0.155102
0.113107
0.0757886
0.0352894
3.39643e-16
3.37824e-16
3.39656e-16
0.000632357
0.00532123
0.742518
0.321677
0.737968
0.981657
1
1
1
0.989535
0.942395
0.907124
0.877862
0.840796
0.795276
0.743032
0.64276
0.452628
0.215625
0.146551
0.395579
0.915375
0.00428018
0.0570698
0.207817
0.495497
0.796819
0.934917
0.991755
0.999912
0.999912
0.999912
0.999912
0.999912
0.999912
0.999912
0.98134
0.923769
0.854003
0.931767
0.992577
1.62741e-05
2.37442e-06
0.00280733
0.0215926
0.0895155
0.210656
0.379639
0.507616
0.549759
0.577736
0.617685
0.680235
0.774064
0.907393
0.995054
0.995054
0.993427
0.993427
0.992577
2.63126e-05
2.37451e-06
2.88644e-07
1.81143e-06
0.000359064
0.00211616
0.00636491
0.0121682
0.0174959
0.0235062
0.0345741
0.0584834
0.106787
0.201266
0.417041
0.79765
0.983344
0.993427
0.973438
4.11078e-05
1.13981e-05
2.60131e-09
1.59242e-10
9.3155e-10
2.63449e-08
6.35066e-07
2.49648e-06
5.50305e-06
1.10179e-05
2.83863e-05
0.000116766
0.000682252
0.00477421
3.99105e-06
0.22885
0.797367
0.99223
0.887214
6.52493e-06
4.00821e-06
1.49333e-07
1.59266e-10
7.76361e-11
4.85508e-11
3.70816e-11
3.45491e-11
4.75225e-11
1.45633e-10
1.45672e-10
7.2973e-09
1.68776e-07
4.26765e-06
3.99078e-06
0.0214759
0.576537
0.982607
0.876832
4.0492e-13
5.28107e-09
1.80425e-08
7.32444e-09
1.01615e-09
2.80206e-10
9.21111e-11
3.41464e-11
5.6651e-10
5.61569e-09
4.66839e-09
1.38855e-09
1.38857e-09
1.38855e-09
0.00125179
0.09239
0.701811
0.991027
0.880068
7.31619e-13
7.31627e-13
3.01026e-10
5.60584e-10
3.77077e-10
1.63463e-10
6.87957e-11
3.41465e-11
3.27028e-10
4.03987e-09
3.48161e-09
1.49952e-09
5.40774e-06
0.000769554
0.0283321
0.368256
0.900831
0.991109
0.81979
4.34929e-13
1.3383e-12
4.34046e-12
1.74786e-11
3.22966e-11
4.49993e-11
4.33414e-11
3.5219e-11
1.08571e-10
1.81292e-09
3.19236e-09
1.3944e-09
2.12562e-05
0.010328
0.236533
0.730998
0.928743
0.937682
0.446861
1.01798e-13
4.13416e-13
4.96142e-12
5.4127e-11
8.44669e-11
4.50003e-11
4.89165e-11
1.28572e-10
1.60775e-10
7.2709e-10
2.84183e-09
1.38715e-09
8.87278e-05
0.0510789
0.570982
0.902749
0.923998
0.70267
0.316486
8.38474e-14
1.40716e-13
2.37073e-12
6.01128e-11
2.18048e-09
3.36299e-09
7.2963e-10
1.28565e-10
1.51852e-10
3.04582e-10
1.57307e-09
1.37935e-09
4.33381e-05
0.0236315
0.352023
0.748037
0.909512
0.723332
0.316485
1.51586e-13
3.83362e-13
2.54375e-11
1.7138e-10
1.71405e-10
1.11817e-08
2.64974e-08
1.05554e-08
1.51864e-10
1.51848e-10
5.26129e-10
5.26102e-10
4.10144e-07
0.00156198
0.00459763
0.198783
0.689301
0.731827
0.445401
2.66305e-13
3.02216e-12
7.44819e-12
3.26954e-12
3.16446e-08
3.13992e-08
2.70305e-08
3.28077e-08
3.34807e-08
1.23556e-08
2.52005e-09
8.47433e-10
5.79268e-10
4.98294e-05
4.05071e-09
0.0149653
0.341304
0.440574
0.273361
5.73627e-13
6.50482e-12
1.41429e-10
3.28696e-12
3.19984e-08
6.56945e-07
5.28728e-08
3.28052e-08
4.14295e-08
4.14332e-08
1.45449e-08
9.67995e-10
5.79355e-10
7.13272e-07
4.05085e-09
0.00274431
0.122482
0.369319
0.158841
1.5078e-12
1.50779e-12
1.52974e-09
7.04183e-10
1.04383e-10
9.37722e-07
1.05823e-05
4.49444e-06
1.04955e-08
1.04979e-08
5.02999e-09
5.79355e-10
5.79268e-10
3.61885e-09
4.18484e-09
1.56505e-09
0.00028045
0.372784
0.158841
4.14105e-12
4.50743e-12
3.59042e-09
3.06248e-09
2.7502e-10
4.07697e-11
1.11499e-05
1.67216e-05
9.57636e-06
7.1215e-10
6.96918e-10
5.12381e-08
3.27388e-08
2.6207e-09
3.18191e-09
1.5651e-09
2.95104e-11
0.372643
0.158841
6.77003e-12
4.50742e-12
1.58228e-09
3.9903e-08
1.04433e-08
4.07927e-11
3.31791e-06
3.12768e-05
3.13289e-05
2.90684e-05
6.35894e-06
2.75631e-07
1.49155e-08
2.19284e-09
2.34204e-09
1.73947e-09
2.95104e-11
0.252182
0.198251
8.16e-12
7.02122e-12
4.52442e-12
9.25185e-08
1.26957e-07
1.40104e-08
1.90968e-08
3.87242e-06
2.78791e-05
2.95514e-05
2.46633e-05
1.69813e-06
3.52719e-09
2.19284e-09
2.35641e-09
2.05204e-09
2.95104e-11
0.0208712
0.302904
8.02207e-12
7.14419e-12
4.52474e-12
3.8381e-12
1.50455e-06
1.54242e-06
5.33811e-07
4.25535e-07
1.35677e-06
1.88297e-05
1.7262e-05
1.80695e-06
2.19284e-09
2.19284e-09
4.91192e-09
2.92013e-09
2.79448e-10
2.95104e-11
0.302949
4.90812e-12
6.29213e-12
8.80455e-12
3.79991e-12
2.38653e-06
2.47955e-06
8.62404e-07
4.2552e-07
4.2225e-07
1.42395e-06
1.4279e-06
4.73418e-07
5.04512e-08
4.85634e-08
1.31104e-08
1.82833e-09
1.91051e-10
2.95104e-11
0.301882
1.93865e-12
7.70518e-12
5.5355e-11
3.8381e-12
2.38289e-06
1.3918e-06
8.07048e-07
5.73666e-06
4.0045e-08
4.20363e-08
4.0045e-08
4.20382e-08
9.7678e-07
1.6512e-07
6.78101e-09
2.95104e-11
2.95104e-11
2.95104e-11
0.301854
1.52701e-12
1.81841e-11
1.64684e-10
3.79991e-12
1.90293e-06
5.10662e-07
5.1073e-07
3.95e-05
3.73837e-05
2.50975e-06
2.20666e-05
3.21835e-05
9.37764e-07
9.49779e-08
6.72587e-09
1.77467e-07
6.28571e-05
2.95104e-11
0.266552
2.48086e-12
3.48884e-11
1.60081e-10
3.20655e-09
2.57393e-08
2.57566e-08
8.78428e-06
0.000139854
0.000178139
0.000164015
0.000163771
3.56814e-05
2.22683e-10
1.93992e-08
9.94713e-09
7.22899e-06
0.000132874
2.95104e-11
0.0440663
6.33844e-12
5.54567e-11
5.54566e-11
9.12055e-08
1.02977e-07
3.44788e-07
4.78386e-05
0.000178269
0.000178269
0.000178269
0.000173037
3.60445e-06
2.23237e-10
2.72417e-09
2.72379e-09
2.64628e-05
0.000127477
2.95104e-11
0.0297055
1.10779e-11
7.15765e-11
2.91782e-10
2.41284e-07
1.36321e-06
1.1517e-06
4.82591e-05
0.000178269
0.000178269
0.000161064
3.73329e-05
3.64786e-11
2.22897e-10
1.63178e-08
1.43768e-05
2.77245e-05
2.05775e-05
2.95104e-11
0.230842
1.3578e-11
7.34542e-11
4.07352e-10
3.50239e-07
1.96937e-06
1.82544e-06
1.4313e-05
9.58909e-05
0.000118747
2.24898e-05
3.64786e-11
3.64786e-11
3.64786e-11
2.3275e-07
2.73642e-06
6.86283e-06
6.7487e-05
0.00881021
0.300831
1.32727e-11
5.18404e-11
3.85314e-10
2.62477e-07
1.96984e-06
1.51767e-06
1.76068e-07
1.34899e-06
4.85777e-06
5.72187e-07
3.64786e-11
1.15504e-07
7.28034e-06
3.21408e-05
1.50346e-07
1.45509e-07
0.0177366
0.0217017
0.300831
5.74802e-12
2.39967e-11
1.59161e-10
6.16241e-08
1.23291e-06
1.51371e-06
2.36217e-08
2.36217e-08
2.36217e-08
2.73407e-08
2.08359e-07
5.24424e-07
1.63339e-06
3.38058e-11
0.0453483
0.346316
0.328726
0.0445606
0.300831
2.384e-12
1.35883e-11
1.03519e-10
1.73178e-08
3.63284e-07
5.08576e-07
2.36217e-08
2.36217e-08
2.36217e-08
1.07053e-07
2.36635e-07
2.11094e-07
7.4707e-09
3.27398e-11
0.237422
0.468981
0.468976
0.246481
0.0764456
1.9823e-12
1.17033e-11
4.15704e-11
6.0634e-09
3.58547e-07
4.5576e-07
2.36217e-08
3.79157e-08
1.39416e-07
1.80967e-07
1.81017e-07
7.14831e-10
4.1234e-08
3.27398e-11
0.0920761
0.408461
0.468981
0.217619
0.00659532
2.64576e-12
1.52672e-11
3.99207e-11
1.04721e-09
6.84221e-07
1.45467e-06
2.36217e-08
4.45513e-08
1.69526e-07
1.40788e-07
3.20624e-08
6.96038e-10
8.55932e-10
0.000489596
0.00522332
0.0686585
0.0919743
0.0619462
0.00522679
2.64652e-12
1.6101e-11
4.14062e-11
5.20743e-10
5.54376e-07
4.6284e-06
2.36217e-08
2.36217e-08
8.67832e-08
9.8102e-09
4.39923e-09
1.81818e-05
4.18391e-05
3.1828e-05
3.1676e-05
0.000196422
0.000286484
0.000628035
0.00329857
2.11441e-12
1.46349e-11
3.82512e-11
4.96103e-11
1.07836e-08
7.43248e-06
1.45889e-05
8.83693e-07
3.34028e-09
3.39948e-09
1.3569e-05
2.29455e-05
9.70437e-06
4.73806e-07
9.7163e-08
6.27305e-08
3.37601e-11
1.6534e-05
0.000776998
1.90742e-12
1.45557e-11
5.03754e-11
8.03591e-11
1.84608e-08
8.65762e-06
1.99287e-05
1.90363e-05
9.73808e-06
1.41797e-05
1.62952e-05
4.99386e-06
6.16191e-07
1.03207e-06
1.09548e-06
2.92973e-07
3.45491e-11
2.78789e-06
1.80572e-05
2.8414e-12
3.09904e-11
1.44819e-10
3.26279e-10
2.98401e-08
3.8371e-06
1.99402e-05
2.03597e-05
1.84394e-05
5.22984e-06
4.46176e-06
2.73059e-07
2.25358e-06
2.3804e-06
2.37592e-06
7.33034e-07
3.37601e-11
6.09992e-08
4.15966e-06
2.72205e-12
4.06085e-11
3.14151e-10
1.59785e-09
2.12296e-08
3.34194e-07
3.29366e-06
7.81423e-06
3.08772e-06
1.04406e-07
1.2969e-08
1.33847e-08
-6.73773e-26
-1.6823e-31
0
5.81685e-06
1.85232e-06
5.49459e-09
7.97482e-08
)
;

boundaryField
{
    leftWall
    {
        type            zeroGradient;
    }
    rightWall
    {
        type            zeroGradient;
    }
    lowerWall
    {
        type            zeroGradient;
    }
    atmosphere
    {
        type            inletOutlet;
        inletValue      uniform 0;
        value           nonuniform List<scalar> 
46
(
0
0
0
0
0
0
0
0
0
0
0
0
0
0
0
0
0
0
0
0
0
0
0
0
0
7.88099e-15
1.35885e-13
2.72205e-12
4.06085e-11
3.14151e-10
1.59785e-09
2.12296e-08
3.34194e-07
3.29366e-06
7.81423e-06
3.08772e-06
1.04406e-07
1.2969e-08
1.33847e-08
0
0
0
0
1.85232e-06
5.49459e-09
7.97482e-08
)
;
    }
    defaultFaces
    {
        type            empty;
    }
}


// ************************************************************************* //
