/*--------------------------------*- C++ -*----------------------------------*\
| =========                 |                                                 |
| \\      /  F ield         | OpenFOAM: The Open Source CFD Toolbox           |
|  \\    /   O peration     | Version:  2012                                  |
|   \\  /    A nd           | Website:  www.openfoam.com                      |
|    \\/     M anipulation  |                                                 |
\*---------------------------------------------------------------------------*/
FoamFile
{
    version     2.0;
    format      ascii;
    class       volScalarField;
    location    "0.35";
    object      maxKappa;
}
// * * * * * * * * * * * * * * * * * * * * * * * * * * * * * * * * * * * * * //

dimensions      [0 0 0 0 0 0 0];


internalField   nonuniform List<scalar> 
2268
(
5.29663e-06
1.02602e-05
1.5156e-05
2.01614e-05
2.51128e-05
2.98485e-05
3.43041e-05
3.87935e-05
4.27906e-05
4.65824e-05
5.01346e-05
5.27812e-05
5.48808e-05
5.64665e-05
5.71367e-05
5.71367e-05
5.65463e-05
5.46311e-05
5.1128e-05
4.57757e-05
3.81921e-05
2.83807e-05
1.6473e-05
6.4567e-06
1.08241e-05
1.55448e-05
2.04611e-05
2.53505e-05
3.00476e-05
3.44977e-05
3.89689e-05
4.29498e-05
4.67712e-05
5.03023e-05
5.29425e-05
5.5223e-05
5.67464e-05
5.72689e-05
5.72689e-05
5.67342e-05
5.48662e-05
5.14193e-05
4.60797e-05
3.84743e-05
2.87652e-05
1.80478e-05
8.17171e-06
1.18852e-05
1.62959e-05
2.10386e-05
2.58066e-05
3.04231e-05
3.48521e-05
3.92811e-05
4.32342e-05
4.70933e-05
5.05782e-05
5.32615e-05
5.56993e-05
5.72045e-05
5.77784e-05
5.77784e-05
5.75618e-05
5.60733e-05
5.31751e-05
4.86062e-05
4.19449e-05
3.322e-05
2.35377e-05
1.01223e-05
1.32901e-05
1.73483e-05
2.18772e-05
2.64836e-05
3.09964e-05
3.54094e-05
3.97896e-05
4.37159e-05
4.76208e-05
5.10498e-05
5.37877e-05
5.62918e-05
5.78086e-05
5.8455e-05
5.8455e-05
5.82072e-05
5.67007e-05
5.37989e-05
4.95313e-05
4.37791e-05
3.75527e-05
3.17159e-05
1.22638e-05
1.49794e-05
1.86661e-05
2.29473e-05
2.73563e-05
3.17275e-05
3.60954e-05
4.03894e-05
4.42861e-05
4.82313e-05
5.15927e-05
5.44264e-05
5.70028e-05
5.86666e-05
5.96178e-05
5.97597e-05
5.97597e-05
5.887e-05
5.68405e-05
5.35896e-05
4.88149e-05
4.31012e-05
3.75964e-05
1.44673e-05
1.68262e-05
2.01758e-05
2.42257e-05
2.84395e-05
3.26678e-05
3.6992e-05
4.12004e-05
4.50935e-05
4.90703e-05
5.23516e-05
5.53041e-05
5.79876e-05
5.96205e-05
6.07214e-05
6.09496e-05
6.09496e-05
6.01648e-05
5.82738e-05
5.55027e-05
5.19306e-05
4.9416e-05
4.9283e-05
1.67778e-05
1.88438e-05
2.18739e-05
2.56836e-05
2.96872e-05
3.37494e-05
3.79896e-05
4.2077e-05
4.59698e-05
4.99411e-05
5.31297e-05
5.62862e-05
5.90118e-05
6.08647e-05
6.23849e-05
6.30219e-05
6.30219e-05
6.29229e-05
6.20622e-05
6.05918e-05
5.8348e-05
5.67287e-05
5.61993e-05
1.90958e-05
2.09224e-05
2.36868e-05
2.72945e-05
3.11061e-05
3.50254e-05
3.91896e-05
4.31962e-05
4.71371e-05
5.10598e-05
5.41983e-05
5.75791e-05
6.03637e-05
6.22862e-05
6.39947e-05
6.46475e-05
6.48152e-05
6.48152e-05
6.42215e-05
6.34916e-05
6.4488e-05
7.31191e-05
7.31191e-05
0.000178747
0.000402606
0.000640143
0.000877193
0.00110502
0.00130931
0.0014598
0.00157715
0.00168377
0.00174986
0.00177245
0.00178577
0.00178577
0.00172272
0.00165085
0.00148091
0.00125731
0.00092838
0.00049984
0.000206784
0.000458729
0.000699732
0.000889331
0.00109543
0.00130003
0.00146282
0.00159373
0.00170738
0.00176879
0.00178314
0.00179241
0.00179241
0.00173077
0.0016662
0.00150474
0.00129349
0.000992491
0.000618149
0.000257797
0.000442247
0.000648997
0.000891496
0.00114259
0.00135239
0.00147947
0.00158251
0.00169027
0.00176279
0.00178878
0.00181522
0.00181522
0.0017628
0.0017033
0.00155745
0.00136844
0.00111405
0.000805324
0.000256897
0.000480871
0.000733045
0.000910703
0.00112342
0.0013255
0.00148208
0.00162971
0.00176163
0.00181838
0.00181838
0.00183277
0.00183277
0.00178732
0.00174772
0.00162581
0.00146854
0.00127133
0.00102296
0.000322307
0.00049869
0.000682899
0.00092312
0.00120635
0.00143252
0.0015237
0.00160509
0.00172299
0.00179921
0.0018265
0.00188409
0.00188409
0.00184978
0.00181557
0.00172237
0.00160343
0.0014672
0.00127657
0.000304758
0.000531948
0.00081233
0.000967182
0.00119297
0.00139363
0.00152322
0.00168431
0.00185613
0.00190329
0.00190329
0.00190399
0.00190399
0.00188439
0.00188439
0.001828
0.00175272
0.00168357
0.00154903
0.000416055
0.000609441
0.000740233
0.00097132
0.00132327
0.00157893
0.00159816
0.00163512
0.00178221
0.00186868
0.00189712
0.00199589
0.00199589
0.00198021
0.00197985
0.00195629
0.00193546
0.00193546
0.0018615
0.000397969
0.000622688
0.000956818
0.00107617
0.00132332
0.00152381
0.00157945
0.00173397
0.00199277
0.00204437
0.00204437
0.00204088
0.00204275
0.00208521
0.00209956
0.00212928
0.00221081
0.00221081
0.00220516
2.4872e-05
2.62049e-05
2.77229e-05
3.0709e-05
3.39617e-05
3.74355e-05
4.12438e-05
4.52754e-05
4.90354e-05
5.31918e-05
5.63161e-05
6.00386e-05
6.36424e-05
6.55096e-05
6.92249e-05
7.0074e-05
7.26681e-05
7.28603e-05
7.53962e-05
7.86654e-05
8.70419e-05
0.00010484
0.000113184
3.02357e-05
3.13963e-05
3.26843e-05
3.53376e-05
3.82687e-05
4.1482e-05
4.50231e-05
4.90468e-05
5.26432e-05
5.71345e-05
6.05729e-05
6.50706e-05
6.83048e-05
7.17711e-05
7.51442e-05
7.61213e-05
7.86536e-05
7.90663e-05
8.26085e-05
8.32989e-05
8.95904e-05
9.62328e-05
0.000113184
4.51574e-05
4.6884e-05
4.92169e-05
5.39213e-05
5.95992e-05
6.65688e-05
7.50999e-05
8.56106e-05
9.62865e-05
0.000110148
0.000122444
0.000137995
0.000149428
0.000163767
0.000166102
0.000168304
0.000158399
0.000145325
0.000124937
9.23113e-05
9.7841e-05
0.000107215
0.000111962
0.000235467
0.000250052
0.000274957
0.000322706
0.000364336
0.000417667
0.000484396
0.000566979
0.000651633
0.000758261
0.00085198
0.000965235
0.00105041
0.00114014
0.00117176
0.0011945
0.0011185
0.000992039
0.000736982
0.000243403
0.000219531
0.000172587
0.000112896
0.000850338
0.00086825
0.000900624
0.000950628
0.00100439
0.00106838
0.0011663
0.00127662
0.00139466
0.00151421
0.0016321
0.00174961
0.00184616
0.0019337
0.00201276
0.00203034
0.00203034
0.00213202
0.00210288
0.00188603
0.00157219
0.00105822
0.000279726
0.00102195
0.00103283
0.00105171
0.00107498
0.0010941
0.00113181
0.00116254
0.00118684
0.00123669
0.00130898
0.00137674
0.00147632
0.00157293
0.00172064
0.00188314
0.00204057
0.00220613
0.00237653
0.00245258
0.0023481
0.00227611
0.00225615
0.00207206
0.00109658
0.00110453
0.00110895
0.00112224
0.00111874
0.00111961
0.00112672
0.00115058
0.00120107
0.00129369
0.00140158
0.00155002
0.00171017
0.00187757
0.0020538
0.00225828
0.00247675
0.00267203
0.00274786
0.00292816
0.00280012
0.00258808
0.00246513
0.00116503
0.00117156
0.00116998
0.00118479
0.00118544
0.00119303
0.00121071
0.00124715
0.00131446
0.00141128
0.00151399
0.00159759
0.00166039
0.00175299
0.00186873
0.00200501
0.0021963
0.002482
0.00292587
0.00316997
0.00318474
0.00324964
0.00311501
0.0012435
0.00124698
0.00124641
0.00125749
0.00126081
0.00127107
0.00128972
0.00132599
0.00137336
0.00145361
0.00152233
0.00156007
0.0016017
0.001643
0.00167869
0.00173719
0.00184453
0.00203395
0.00237387
0.00287831
0.00332541
0.00351951
0.00354097
0.00131131
0.0013129
0.00131581
0.00132591
0.00133448
0.00135097
0.00137299
0.0014115
0.00145156
0.0015142
0.0015589
0.00157877
0.00158665
0.00159604
0.00159223
0.00160868
0.00163252
0.00168882
0.00187075
0.00224173
0.00278974
0.00330856
0.00354097
0.00138674
0.0013884
0.0013935
0.00140479
0.00141576
0.00143402
0.00145331
0.00148812
0.0015167
0.00156213
0.00159802
0.00161834
0.00163131
0.00164212
0.00163648
0.00163366
0.00161837
0.00160713
0.00161071
0.00173212
0.00211942
0.00269498
0.00318532
0.00145939
0.00146172
0.00146793
0.00148008
0.00149218
0.00151318
0.00153141
0.00156343
0.00158415
0.00162335
0.0016604
0.00168821
0.00171188
0.00173494
0.00174565
0.00176283
0.00177028
0.00179566
0.0018339
0.00191788
0.00204827
0.00230801
0.002656
0.00153557
0.00153854
0.00154557
0.00155723
0.00156913
0.00159043
0.00160717
0.00163829
0.00165982
0.00169769
0.00173655
0.00177183
0.00180659
0.00184131
0.00186758
0.00190179
0.00193368
0.00198766
0.00205522
0.00216868
0.00232536
0.00255491
0.00281342
0.00160967
0.00161325
0.00162033
0.00163288
0.00164502
0.00166747
0.00168447
0.00171717
0.00174109
0.00177826
0.00181819
0.0018585
0.00189921
0.00194211
0.00197936
0.00202685
0.00207544
0.00214985
0.0022399
0.00237205
0.00254106
0.00277245
0.00301632
0.00168662
0.00169014
0.00169662
0.00170948
0.00172172
0.00174491
0.00176255
0.00179511
0.00182143
0.00185846
0.00189861
0.00194051
0.0019849
0.00203363
0.0020799
0.00213869
0.0022028
0.0022939
0.00240092
0.00254778
0.00273011
0.00296261
0.00320955
0.0017607
0.00176454
0.00177137
0.00178488
0.0017973
0.00182122
0.00183926
0.00187172
0.00189997
0.00193678
0.00197728
0.00202158
0.00206898
0.00212291
0.00217755
0.002248
0.00232631
0.00243203
0.00255391
0.00271247
0.0029102
0.00315238
0.00340394
0.00183577
0.00184009
0.00184703
0.00186114
0.00187357
0.0018978
0.0019163
0.00194852
0.00197802
0.00201535
0.00205708
0.00210329
0.0021536
0.00221296
0.00227647
0.00235729
0.0024473
0.00256301
0.00269517
0.00287172
0.00308095
0.00333509
0.00358675
0.00190978
0.00191433
0.00192103
0.00193525
0.00194734
0.00197151
0.00199031
0.00202244
0.00205289
0.00209142
0.00213375
0.00218267
0.00223625
0.00230203
0.00237231
0.00246059
0.00255763
0.00268237
0.0028338
0.00301741
0.00323554
0.00350345
0.00375137
0.00198275
0.00198742
0.00199388
0.00200834
0.00202031
0.00204469
0.00206391
0.00209637
0.00212721
0.00216717
0.00221013
0.00226234
0.00231826
0.0023884
0.00246152
0.00255483
0.00265815
0.00279132
0.00295051
0.00314274
0.0033718
0.00365209
0.00389214
0.00205436
0.0020591
0.00206537
0.00207994
0.00209176
0.00211604
0.00213523
0.00216787
0.00219825
0.00224003
0.00228254
0.00233756
0.00239303
0.00246644
0.00254388
0.00264255
0.00275931
0.00289829
0.00306303
0.00325978
0.00349443
0.00378071
0.00399376
0.00212431
0.00212908
0.00213518
0.00214966
0.00216133
0.00218528
0.00220448
0.00223713
0.00226715
0.00230974
0.00235136
0.00240752
0.00246235
0.00253797
0.00261532
0.00271644
0.00283643
0.00297647
0.00314321
0.0033398
0.00357721
0.00386482
0.00405694
0.00219364
0.00219825
0.00220401
0.00221795
0.00222933
0.00225251
0.00227166
0.00230366
0.00233327
0.00237546
0.00241673
0.00247258
0.00252829
0.00260347
0.0026918
0.00279304
0.00291276
0.0030511
0.003217
0.00341101
0.00364647
0.00392726
0.00408122
0.0022608
0.0022651
0.00227047
0.00228355
0.00229462
0.00231649
0.00233556
0.002366
0.00239552
0.00243586
0.00247738
0.00253074
0.00258655
0.00265923
0.00274452
0.00284356
0.00295969
0.00309579
0.00325689
0.00344501
0.00367029
0.00393359
0.00408122
0.00232719
0.00233112
0.00233608
0.00234804
0.00235867
0.00237877
0.0023975
0.00242577
0.00245512
0.00249266
0.00253433
0.00258369
0.00264193
0.00271378
0.00279671
0.00289363
0.0030052
0.00313631
0.00328721
0.0034667
0.0036742
0.00392174
0.00407535
0.00239165
0.00239511
0.00239959
0.00241017
0.00242024
0.00243811
0.00245621
0.00248154
0.00251034
0.00254411
0.00258519
0.00262978
0.00268696
0.00275566
0.00283357
0.00292463
0.00302797
0.00315029
0.00329003
0.00345703
0.00364592
0.00387527
0.00404553
0.00245509
0.00245804
0.00246195
0.002471
0.00248043
0.00249585
0.00251303
0.00253504
0.00256279
0.00259229
0.00263194
0.0026722
0.0027272
0.00279133
0.00286373
0.00294919
0.00304542
0.00315902
0.00328535
0.00343655
0.00360439
0.00380641
0.00397942
0.00251635
0.00251885
0.00252221
0.00252976
0.00253845
0.00255125
0.00256716
0.00258553
0.00261145
0.00263616
0.00267309
0.00270958
0.00275922
0.00281758
0.00288387
0.00296171
0.00304839
0.00314967
0.00326227
0.00339533
0.00354223
0.00371871
0.00388651
0.00257568
0.00257775
0.00258066
0.0025868
0.00259468
0.00260494
0.00261931
0.00263411
0.00265753
0.00267739
0.0027107
0.00273888
0.00278329
0.00283569
0.00289471
0.00296437
0.0030422
0.00313413
0.00323394
0.00335027
0.00347627
0.00362288
0.00377763
0.00263205
0.00263361
0.00263623
0.00264099
0.00264802
0.00265595
0.0026685
0.00267971
0.0027
0.00271506
0.00274395
0.00276761
0.00280506
0.00284933
0.00289975
0.0029595
0.00302686
0.00310609
0.00319383
0.00329414
0.00340453
0.00352865
0.00366414
0.00268464
0.00268565
0.00268819
0.00269176
0.00269817
0.00270427
0.00271528
0.00272342
0.00274045
0.00275137
0.00277561
0.00279117
0.00282182
0.00285346
0.00289417
0.00294352
0.00299986
0.00306817
0.0031438
0.00323121
0.00332639
0.0034338
0.00355621
0.0027326
0.00273313
0.00273556
0.00273813
0.00274401
0.00274866
0.00275836
0.0027641
0.00277795
0.00278509
0.00280425
0.00281423
0.00283774
0.00286075
0.00289035
0.00292698
0.00296921
0.00302176
0.0030896
0.003157
0.00324966
0.00333894
0.00345243
0.00277502
0.00277522
0.00277749
0.00277942
0.00278494
0.00278858
0.00279735
0.00280149
0.00281329
0.0028177
0.00283275
0.00283799
0.00285521
0.00286164
0.00288039
0.00290131
0.00294081
0.00296964
0.00303021
0.00307577
0.00315895
0.0032253
0.00333135
0.00281171
0.00281165
0.00281373
0.00281518
0.00282032
0.00282317
0.00283115
0.00283427
0.00284468
0.00284727
0.00285905
0.00286034
0.00287179
0.00287118
0.00288038
0.002888
0.00291242
0.0029247
0.00296656
0.00299683
0.00306306
0.00311458
0.00320154
0.00284238
0.00284214
0.00284403
0.00284513
0.00284994
0.00285231
0.00285989
0.00286266
0.0028724
0.00287404
0.00288384
0.00288234
0.00288952
0.00288335
0.00288528
0.00287712
0.0028857
0.00288079
0.00289919
0.00290943
0.00295556
0.00299498
0.0030641
0.00286712
0.00286674
0.00286844
0.00286931
0.00287392
0.00287615
0.00288355
0.0028863
0.00289559
0.00289698
0.00290571
0.00290255
0.00290638
0.00289557
0.00289101
0.00287958
0.00286827
0.0028475
0.00284114
0.0028242
0.00284203
0.00286335
0.00291687
0.00288646
0.00288598
0.00288751
0.00288823
0.0028927
0.00289485
0.00290209
0.00290483
0.00291381
0.00291528
0.00292347
0.0029199
0.00292189
0.00290828
0.00289922
0.002872
0.00285352
0.00281899
0.00279104
0.0027478
0.00272763
0.00271553
0.00274405
0.00290075
0.0029001
0.00290141
0.002902
0.00290632
0.0029084
0.00291555
0.00291843
0.00292735
0.00292906
0.00293704
0.00293371
0.00293491
0.00292268
0.00291048
0.00289069
0.00286161
0.00282162
0.00276971
0.00270611
0.00263527
0.00258023
0.00256769
0.00291073
0.00290998
0.0029111
0.00291155
0.00291565
0.00291758
0.00292456
0.00292749
0.00293628
0.00293815
0.00294588
0.00294267
0.00294345
0.0029287
0.00291518
0.00288491
0.0028505
0.00280358
0.002742
0.00266501
0.00257073
0.00246896
0.00239689
0.00291718
0.00291623
0.00291702
0.00291715
0.00292092
0.00292262
0.00292939
0.00293319
0.00294099
0.00294438
0.00295066
0.00294763
0.00294835
0.00294016
0.00292648
0.00290304
0.0028672
0.00281708
0.00274924
0.00266225
0.00255364
0.00242717
0.00228617
0.00292058
0.00291945
0.00291997
0.00291974
0.00292315
0.00292455
0.00293098
0.00293364
0.00294203
0.00294385
0.00295125
0.00294811
0.00294858
0.00293392
0.00292001
0.00289465
0.0028576
0.00280524
0.0027338
0.00264152
0.00252339
0.0023805
0.00220883
0.00292202
0.00292077
0.00292105
0.00292047
0.00292348
0.00292539
0.00293098
0.00293577
0.00294203
0.00294606
0.00295125
0.00294852
0.00294858
0.00294073
0.00292658
0.00290261
0.00286588
0.00281388
0.00274191
0.00264822
0.00252652
0.00237739
0.00219572
0.00292202
0.00292077
0.00292105
0.00292047
0.00292348
0.00292444
0.00293043
0.00293263
0.00294062
0.00294203
0.00294913
0.0029456
0.00294588
0.00293075
0.00291636
0.00288713
0.002849
0.0027956
0.00272205
0.00262633
0.00250163
0.00234705
0.00215511
0.000104732
8.03946e-05
0.00022378
0.000499019
0.000113276
0.000108673
0.00022378
0.000625364
0.000116711
0.0001174
0.000123822
0.000171509
0.000116711
0.000118917
0.000121318
0.000121811
0.000251514
0.000233674
0.000204122
0.000176482
0.00181504
0.00159285
0.00127155
0.000982966
0.00241623
0.00248061
0.00252718
0.00251099
0.003018
0.0029419
0.0028984
0.00285453
0.00363963
0.00367294
0.00370325
0.00369862
0.00363963
0.00367294
0.00379939
0.00393389
0.00345872
0.0036238
0.00379939
0.00393389
0.00297803
0.00317702
0.0033765
0.00355356
0.00306325
0.00322884
0.00339012
0.0035615
0.00326516
0.00341915
0.00357645
0.00374465
0.00345913
0.00360611
0.00376954
0.00393761
0.00365402
0.0038003
0.00397532
0.00414515
0.00383673
0.00399113
0.00418063
0.00435312
0.00400304
0.00417066
0.00436791
0.00454765
0.00414702
0.0043245
0.00452926
0.00473221
0.00425397
0.00443686
0.00466045
0.0048962
0.00432001
0.00450854
0.00474979
0.00501051
0.00434063
0.00452938
0.00476832
0.00503261
0.00434063
0.00452938
0.00476832
0.00503261
0.00431795
0.0044891
0.00470386
0.00495726
0.00424387
0.00439134
0.00457251
0.00481149
0.00412779
0.00426374
0.0043973
0.00462005
0.00400317
0.00412677
0.00421277
0.00440775
0.00387992
0.00398202
0.00404874
0.00419629
0.00375985
0.00384488
0.00391046
0.00402314
0.00363575
0.00371048
0.00376828
0.00386403
0.00352589
0.00359118
0.00364588
0.00372416
0.00340158
0.00346065
0.00351627
0.00358746
0.00325934
0.00331037
0.00335894
0.00342304
0.00311066
0.00315053
0.00319138
0.00324271
0.00295277
0.00298198
0.00301403
0.00305379
0.00277162
0.00279253
0.00281711
0.00284372
0.00257952
0.00259205
0.0026091
0.00262137
0.00237184
0.00236711
0.00237369
0.00237744
0.00218652
0.00215159
0.00213504
0.00212315
0.00205105
0.0019752
0.00191987
0.00186898
0.00196193
0.00185363
0.00176057
0.00166644
0.00191381
0.0017893
0.00167283
0.00154442
0.000946807
0.00095666
0.00095666
0.00123119
0.0018966
0.00207047
0.00207047
0.0017121
0.00171514
0.00213471
0.00199205
0.00221534
0.00223186
0.00226808
0.00235128
0.00249724
0.00277389
0.00291202
0.00328742
0.00110863
0.00115665
0.00144814
0.00169825
0.0017354
0.00152204
0.0017381
0.00210255
0.00250179
0.00250179
0.0024256
0.00205438
0.00222315
0.00244084
0.00269063
0.00307514
0.00357228
0.00402413
0.00502976
0.0011945
0.0018849
0.00209554
0.00209554
0.0020575
0.0020575
0.00194518
0.00189344
0.00184988
0.00187458
0.00236578
0.00263969
0.00263969
0.00256595
0.00273959
0.00344077
0.00439904
0.00580946
0.00754838
0.000231546
0.000530332
0.00102219
0.00155481
0.00200216
0.00247993
0.00298433
0.00298433
0.00283464
0.00268351
0.00207057
0.00187233
0.00182042
0.00234006
0.00275749
0.00338579
0.00452319
0.00757635
0.0100817
0.000140418
0.000154043
0.000215758
0.000303424
0.000377163
0.000556086
0.00114224
0.00169405
0.0021302
0.00297169
0.00316766
0.00316766
0.00302481
0.00237741
0.00215515
0.00188791
0.00370801
0.00879754
0.0118543
0.000444012
0.000287053
0.000271998
0.000262903
0.00025326
0.000240977
0.000226997
0.00028732
0.000353737
0.000615329
0.00136533
0.0021388
0.00341535
0.00371532
0.00371532
0.00317167
0.00306571
0.00882679
0.0123911
0.00239144
0.00211547
0.00193032
0.00178633
0.00164545
0.00147495
0.00126304
0.000943012
0.000434803
0.000372674
0.00032494
0.000343196
0.000781596
0.00198449
0.00354063
0.00403791
0.00403791
0.00847203
0.0124145
0.00315681
0.00327498
0.00337559
0.00343098
0.00343098
0.00341438
0.00332793
0.00321446
0.00303975
0.00271827
0.00216028
0.000890879
0.000402433
0.000317969
0.000776193
0.00262906
0.00398956
0.00907508
0.0124145
0.00370429
0.00367245
0.00362949
0.00360498
0.003606
0.00384262
0.00406618
0.00419589
0.00424
0.00424
0.00420821
0.00384047
0.00288833
0.000908362
0.000376351
0.000448463
0.00226316
0.00702223
0.0110844
0.0047449
0.00477423
0.00477423
0.0047472
0.00467493
0.00455479
0.00437861
0.0041749
0.00398317
0.00382391
0.00427164
0.00441935
0.00441935
0.00398685
0.00194875
0.000405269
0.000755594
0.00407615
0.00790439
0.00461338
0.00497084
0.00525038
0.00543903
0.00550765
0.00550765
0.00539668
0.0051447
0.0048157
0.00439544
0.00392638
0.0036089
0.00378193
0.00362226
0.00328019
0.00120861
0.00045679
0.00200607
0.00476365
0.00428031
0.00467603
0.00501009
0.00526315
0.00544642
0.00552105
0.00552105
0.00549281
0.00535903
0.00505894
0.00455891
0.00389747
0.00328985
0.00284456
0.00283492
0.00221562
0.000559061
0.000911925
0.00257743
0.00436321
0.00479544
0.00519416
0.00549787
0.00568951
0.00576088
0.00576088
0.00571887
0.00556697
0.00525874
0.00477562
0.00410024
0.00337021
0.0024406
0.00233882
0.00211657
0.000619893
0.000429065
0.00129873
0.00452677
0.00495805
0.00536029
0.00569202
0.00594422
0.00608373
0.00609618
0.00609618
0.00598974
0.00573929
0.00532346
0.00473402
0.00403485
0.00311872
0.00186582
0.00183509
0.000711423
0.0004268
0.000613676
0.00476523
0.00525005
0.00569568
0.00607952
0.00640505
0.00660791
0.00665663
0.00665663
0.00655991
0.00630819
0.00591427
0.00541
0.00477829
0.00400347
0.00276166
0.00157538
0.000656047
0.000456685
0.000878373
0.00501656
0.00554633
0.00606445
0.00658404
0.00703739
0.007333
0.00744323
0.00744323
0.00735755
0.00710066
0.00672924
0.00632177
0.00584531
0.00549744
0.0038617
0.00194705
0.00078253
0.000560149
0.00136882
0.00533591
0.00598713
0.00667463
0.00733606
0.00786067
0.00821575
0.00842745
0.00842745
0.00841025
0.00813754
0.00771056
0.00736598
0.00689331
0.00681523
0.00587453
0.00256752
0.000356827
0.000895984
0.0019302
0.00569153
0.00650123
0.00726982
0.00789707
0.00840017
0.00882744
0.00918198
0.00939679
0.00939679
0.0092886
0.00884867
0.00842373
0.00790915
0.00784048
0.00703321
0.00383915
0.000892445
0.00158575
0.00244487
0.00609396
0.00697969
0.00760464
0.00800934
0.00837161
0.00876049
0.0091806
0.00959988
0.00984863
0.00984863
0.00973691
0.00937571
0.00886742
0.00867968
0.00775946
0.00465837
0.00140631
0.00186136
0.00295921
0.00644504
0.0071412
0.00732931
0.00732931
0.00741153
0.00790566
0.00876333
0.00928071
0.00977633
0.0100703
0.0100703
0.0100568
0.00977594
0.00955177
0.00818656
0.00503667
0.00190904
0.0019546
0.00380236
0.00652096
0.00681072
0.00681072
0.00650291
0.00606721
0.00624713
0.00705719
0.00843537
0.00928949
0.00995915
0.0103391
0.010412
0.010412
0.010383
0.00871502
0.00504238
0.00322775
0.00270805
0.00530184
0.00635909
0.00635909
0.00632537
0.00555179
0.00484435
0.00461101
0.00459419
0.00635839
0.00812445
0.00932033
0.0100844
0.0105609
0.0108
0.0108
0.00925933
0.00544021
0.00400869
0.00561898
0.00714926
0.00608888
0.00608888
0.00577062
0.00442534
0.0035982
0.00304769
0.00212548
0.00410357
0.00674458
0.00844181
0.00954294
0.0102925
0.0106855
0.0106855
0.009627
0.00655721
0.00398357
0.00710629
0.00959541
0.00583045
0.00583045
0.00522802
0.00336413
0.00264838
0.00251192
0.00242964
0.00375045
0.0056379
0.00731129
0.00852676
0.00963681
0.0102363
0.0102363
0.00971582
0.00778428
0.00472364
0.00783076
0.0102054
0.00553175
0.00553175
0.00463387
0.00230698
0.00253709
0.00330309
0.00384439
0.00429392
0.00500851
0.00618182
0.00733362
0.00865279
0.00949164
0.00949164
0.00934644
0.00825921
0.00634101
0.007809
0.0102054
0.00523439
0.00523439
0.00422988
0.00175452
0.00177522
0.00307202
0.00409856
0.00451993
0.00474711
0.00512897
0.00573242
0.00705321
0.00822924
0.00857057
0.00857057
0.0080816
0.00765592
0.00905902
0.0111387
0.00487428
0.00487428
0.00421986
0.00260231
0.00211882
0.00214153
0.00325587
0.00386744
0.00401488
0.00418226
0.0046097
0.0054926
0.00640375
0.00709337
0.00748218
0.00819944
0.00865023
0.0107502
0.01248
0.00464676
0.00464676
0.00441649
0.0029897
0.00327802
0.00355639
0.00329438
0.00283563
0.00282515
0.00298448
0.00326826
0.00423569
0.00569248
0.00662395
0.00710802
0.00820777
0.00974664
0.0125639
0.0139924
0.00458167
0.00458167
0.00446897
0.0034867
0.00381476
0.0046495
0.0046495
0.00427097
0.00360681
0.00312279
0.00323823
0.00353997
0.00482336
0.00708699
0.00761071
0.00837099
0.0105558
0.0141945
0.0155184
0.00444855
0.00444855
0.00440637
0.00400736
0.00306851
0.00477873
0.00490196
0.00490196
0.00461572
0.00439406
0.00431652
0.00327088
0.00429665
0.00564572
0.00714723
0.00869113
0.0113476
0.0157065
0.0170674
0.00432309
0.00445733
0.00445733
0.00426963
0.00330584
0.0038868
0.00477119
0.00477119
0.00444454
0.00415978
0.00302268
0.00260602
0.0033145
0.00465285
0.00609591
0.00870912
0.0121827
0.0172267
0.018709
0.00416025
0.00439351
0.00439351
0.00436509
0.00402907
0.00239199
0.00419977
0.00444436
0.00444436
0.00420821
0.00346527
0.002694
0.003753
0.00453127
0.00576318
0.00851081
0.0128646
0.0188257
0.0205089
0.00394272
0.00422211
0.00443795
0.00443795
0.00428524
0.00337161
0.00287196
0.0042015
0.00421624
0.00438003
0.00438003
0.00408463
0.00458905
0.00467789
0.00585227
0.00886725
0.0139359
0.0207492
0.0224957
0.00368585
0.00394182
0.00423645
0.00438191
0.00438191
0.00405396
0.00254796
0.00347631
0.00447996
0.00447996
0.00444284
0.00436502
0.00450247
0.00481988
0.00595984
0.00924982
0.0153148
0.022969
0.024699
0.00344985
0.00366162
0.00397191
0.00427094
0.00428867
0.00428867
0.00374638
0.00220964
0.00300778
0.00333799
0.00338419
0.00334977
0.00318545
0.00358558
0.00510239
0.0091009
0.016329
0.0251435
0.0265623
0.00314512
0.00331822
0.00358505
0.00395587
0.00428422
0.00428422
0.0042755
0.00379832
0.0029902
0.00282102
0.00291369
0.00264593
0.00221447
0.00179595
0.00249228
0.00767968
0.0169484
0.0267429
0.0270851
0.00286279
0.00298475
0.00318862
0.00350587
0.00390566
0.00425024
0.00430181
0.00430181
0.00416613
0.00403223
0.0039118
0.00362952
0.00299407
0.00252952
0.00283765
0.00740835
0.0175494
0.0270155
0.0270851
0.00252437
0.00261441
0.00276768
0.00301187
0.00335642
0.00377633
0.00410534
0.0042121
0.00421979
0.00421979
0.00419132
0.00399556
0.00371369
0.00404916
0.00511476
0.00920518
0.0173248
0.0255525
0.0261449
0.00223352
0.0022937
0.0024238
0.00264498
0.00294655
0.00335133
0.00378505
0.00408868
0.00422556
0.00427099
0.00427099
0.00426866
0.0045508
0.0055113
0.00715195
0.0107403
0.0168372
0.0232102
0.0242202
0.00184331
0.00188769
0.00199582
0.00218412
0.00243478
0.00274376
0.00310903
0.00346687
0.00373977
0.00391364
0.00403872
0.00427579
0.00476465
0.00583711
0.00757036
0.0107579
0.0154041
0.0199847
0.0212863
0.00156658
0.00156311
0.00165667
0.0018527
0.00211202
0.00241004
0.00273556
0.00305414
0.0033334
0.00355469
0.00377132
0.00412402
0.00475477
0.00585209
0.00766708
0.0104777
0.0140238
0.0167796
0.0176843
0.00136628
0.00125764
0.00120752
0.00132651
0.00159735
0.00188709
0.00218086
0.00244881
0.00269977
0.0029356
0.00320686
0.00357333
0.00419237
0.00509668
0.00660649
0.00869989
0.0113031
0.0129493
0.0136934
)
;

boundaryField
{
    leftWall
    {
        type            calculated;
        value           uniform 0;
    }
    rightWall
    {
        type            calculated;
        value           uniform 0;
    }
    lowerWall
    {
        type            calculated;
        value           uniform 0;
    }
    atmosphere
    {
        type            calculated;
        value           uniform 0;
    }
    defaultFaces
    {
        type            empty;
    }
}


// ************************************************************************* //
