/*--------------------------------*- C++ -*----------------------------------*\
| =========                 |                                                 |
| \\      /  F ield         | OpenFOAM: The Open Source CFD Toolbox           |
|  \\    /   O peration     | Version:  2012                                  |
|   \\  /    A nd           | Website:  www.openfoam.com                      |
|    \\/     M anipulation  |                                                 |
\*---------------------------------------------------------------------------*/
FoamFile
{
    version     2.0;
    format      ascii;
    class       volScalarField;
    location    "0.35";
    object      minKappa;
}
// * * * * * * * * * * * * * * * * * * * * * * * * * * * * * * * * * * * * * //

dimensions      [0 0 0 0 0 0 0];


internalField   nonuniform List<scalar> 
2268
(
1.66725e-06
3.88739e-06
6.07735e-06
8.4327e-06
1.07672e-05
1.30846e-05
1.52265e-05
1.72949e-05
1.94631e-05
2.10669e-05
2.30631e-05
2.44162e-05
2.55631e-05
2.64876e-05
2.70336e-05
2.70516e-05
2.65016e-05
2.52622e-05
2.32147e-05
2.02061e-05
1.60327e-05
1.09772e-05
5.3685e-06
1.66725e-06
3.88739e-06
6.07735e-06
8.4327e-06
1.07672e-05
1.30846e-05
1.52265e-05
1.72949e-05
1.94631e-05
2.10669e-05
2.30631e-05
2.44162e-05
2.55631e-05
2.64876e-05
2.70336e-05
2.70516e-05
2.65016e-05
2.52622e-05
2.32147e-05
2.02061e-05
1.60327e-05
1.09772e-05
5.3685e-06
2.56209e-06
4.35121e-06
6.38137e-06
8.66723e-06
1.0947e-05
1.32324e-05
1.53499e-05
1.74301e-05
1.9558e-05
2.11813e-05
2.31898e-05
2.44989e-05
2.57073e-05
2.67304e-05
2.71396e-05
2.72489e-05
2.67842e-05
2.56613e-05
2.37833e-05
2.09754e-05
1.70372e-05
1.22599e-05
7.43631e-06
3.60604e-06
5.0395e-06
6.85835e-06
9.04243e-06
1.12408e-05
1.34738e-05
1.55566e-05
1.7654e-05
1.97216e-05
2.13794e-05
2.33929e-05
2.46487e-05
2.59567e-05
2.6986e-05
2.73861e-05
2.75633e-05
2.71663e-05
2.61463e-05
2.44226e-05
2.19668e-05
1.85521e-05
1.48969e-05
1.12999e-05
4.69771e-06
5.88156e-06
7.47843e-06
9.5423e-06
1.16428e-05
1.38039e-05
1.58426e-05
1.79552e-05
1.99438e-05
2.1654e-05
2.36559e-05
2.4865e-05
2.62909e-05
2.72679e-05
2.77954e-05
2.80238e-05
2.7745e-05
2.68897e-05
2.5412e-05
2.33332e-05
2.0433e-05
1.76861e-05
1.54312e-05
5.81019e-06
6.82223e-06
8.2087e-06
1.01481e-05
1.21467e-05
1.42241e-05
1.6212e-05
1.83334e-05
2.0232e-05
2.20166e-05
2.39781e-05
2.51579e-05
2.67147e-05
2.76456e-05
2.82744e-05
2.86166e-05
2.84491e-05
2.78236e-05
2.65936e-05
2.49739e-05
2.26444e-05
2.108e-05
2.04625e-05
6.93605e-06
7.82935e-06
9.02763e-06
1.08449e-05
1.27427e-05
1.47294e-05
1.6662e-05
1.87784e-05
2.05843e-05
2.24597e-05
2.43428e-05
2.55194e-05
2.72323e-05
2.80777e-05
2.88816e-05
2.93179e-05
2.92904e-05
2.88985e-05
2.79873e-05
2.68904e-05
2.52341e-05
2.49312e-05
2.55231e-05
8.07343e-06
8.87902e-06
9.91351e-06
1.1618e-05
1.34196e-05
1.53125e-05
1.71928e-05
1.92859e-05
2.10197e-05
2.29899e-05
2.47526e-05
2.59822e-05
2.78448e-05
2.85884e-05
2.96313e-05
3.01162e-05
3.0241e-05
3.0147e-05
2.9551e-05
2.91035e-05
2.80443e-05
2.92433e-05
3.26502e-05
2.63764e-05
0.000137646
0.000228869
0.000341453
0.000410638
0.000526556
0.000585011
0.000660356
0.000690937
0.000754553
0.000745276
0.000770347
0.000754873
0.000717064
0.00069653
0.0005757
0.000510746
0.000307201
0.000168495
2.63764e-05
0.000137646
0.000228869
0.000341453
0.000410638
0.000526556
0.000585011
0.000660356
0.000690937
0.000754553
0.000745276
0.000770347
0.000754873
0.000717064
0.00069653
0.0005757
0.000510746
0.000307201
0.000168495
4.5131e-05
0.000152507
0.000230857
0.000343233
0.000414952
0.000538247
0.000591619
0.000662056
0.000691464
0.000756757
0.000748521
0.000773957
0.000763682
0.000725238
0.000710578
0.00059409
0.000539507
0.000357312
0.000248202
6.62137e-05
0.000152733
0.000240023
0.000348165
0.000419
0.000546035
0.000594669
0.000667219
0.000701663
0.000769736
0.000756719
0.000779298
0.000775514
0.000737451
0.000733019
0.000623109
0.000584875
0.00043046
0.000347046
7.78759e-05
0.000168487
0.000248253
0.000354373
0.000426261
0.000565949
0.000608863
0.000671806
0.000706649
0.000778664
0.000763253
0.000788738
0.000795346
0.000754631
0.000763575
0.000662679
0.000645217
0.000520223
0.000457427
9.70774e-05
0.000169623
0.000268821
0.000367467
0.000437072
0.000584661
0.000619179
0.000679036
0.000722729
0.000802973
0.000775244
0.000798283
0.000816174
0.000774344
0.000802049
0.000710272
0.000718504
0.000622152
0.000578839
0.000107956
0.000198576
0.00028693
0.000373771
0.000451293
0.000620298
0.000645953
0.000683948
0.000730529
0.000820373
0.000787374
0.000816182
0.000845912
0.000800186
0.000846204
0.000765697
0.000803908
0.00073577
0.000713464
0.000145775
0.000200409
0.000323689
0.000398424
0.000472859
0.000654088
0.000667621
0.000686257
0.000749437
0.000859898
0.000808182
0.000838916
0.000881632
0.000832816
0.000899179
0.000828407
0.000901437
0.000862345
0.000865258
1.44186e-05
1.5569e-05
1.69854e-05
1.94896e-05
2.21625e-05
2.49783e-05
2.7842e-05
3.10501e-05
3.36936e-05
3.68756e-05
3.9423e-05
4.1549e-05
4.45689e-05
4.56235e-05
4.76433e-05
4.8387e-05
4.90632e-05
4.924e-05
4.92422e-05
4.96257e-05
5.04522e-05
5.55141e-05
6.81028e-05
2.4872e-05
2.62049e-05
2.77229e-05
3.0709e-05
3.39617e-05
3.74355e-05
4.08872e-05
4.46979e-05
4.84738e-05
5.24068e-05
5.61112e-05
5.97114e-05
6.3305e-05
6.55096e-05
6.91891e-05
7.0074e-05
7.26681e-05
7.28603e-05
7.53962e-05
7.63872e-05
7.96296e-05
8.44199e-05
7.86936e-05
3.02357e-05
3.13963e-05
3.26843e-05
3.53376e-05
3.82687e-05
4.1482e-05
4.50231e-05
4.90468e-05
5.26432e-05
5.71345e-05
6.05729e-05
6.50706e-05
6.83048e-05
7.17711e-05
7.51442e-05
7.61213e-05
7.86536e-05
7.90663e-05
8.26085e-05
8.32989e-05
8.95904e-05
9.36684e-05
8.62126e-05
4.51574e-05
4.6884e-05
4.92169e-05
5.39213e-05
5.95992e-05
6.65688e-05
7.50999e-05
8.56106e-05
9.62865e-05
0.000110148
0.000122444
0.000137995
0.000149428
0.000163767
0.000166102
0.000168304
0.000158399
0.000145325
0.000124937
9.18441e-05
9.57485e-05
9.91492e-05
8.26149e-05
0.000235467
0.000250052
0.000274957
0.000322706
0.000364336
0.000417667
0.000484396
0.000566979
0.000651633
0.000758261
0.00085198
0.000965235
0.00105041
0.00114014
0.00117176
0.0011945
0.0011185
0.000992039
0.000736982
0.000243403
0.000219531
0.000172587
8.61277e-05
0.000850338
0.00086825
0.000900624
0.000950628
0.00100439
0.00106838
0.00111717
0.0011338
0.00116262
0.00121111
0.00125588
0.00132733
0.00142654
0.00155283
0.00170322
0.00184304
0.00194486
0.00206966
0.00210288
0.00188603
0.00157219
0.00105822
0.000279726
0.00102195
0.00103283
0.00105171
0.00107498
0.0010885
0.00107921
0.00107771
0.00107771
0.00110198
0.00116855
0.00127089
0.00140023
0.00155002
0.00171017
0.00186873
0.00200501
0.0021963
0.00237653
0.00245258
0.0023481
0.00227611
0.00225615
0.0017983
0.00109658
0.00110453
0.00110895
0.00112224
0.00111874
0.00111961
0.00112672
0.00115058
0.00120107
0.00129369
0.00140158
0.00151399
0.00159759
0.001643
0.00167869
0.00173719
0.00184453
0.00203395
0.00237387
0.00287831
0.00280012
0.00258808
0.00189059
0.00116503
0.00117156
0.00116998
0.00118479
0.00118544
0.00119303
0.00121071
0.00124715
0.00129812
0.00136579
0.00144968
0.00151486
0.00154852
0.00156674
0.00158116
0.00160134
0.00163252
0.00168882
0.00187075
0.00224173
0.00278974
0.00324964
0.0025736
0.0012435
0.00124698
0.00124641
0.00125749
0.00126081
0.00127107
0.00128972
0.00132599
0.00137336
0.00144814
0.00151232
0.00155151
0.00156604
0.00157614
0.00158239
0.00157728
0.00156543
0.00155843
0.00158642
0.00173212
0.00211942
0.00269498
0.00269787
0.00131131
0.0013129
0.00131581
0.00132591
0.00133448
0.00135097
0.00137299
0.0014115
0.00145156
0.00150453
0.00154783
0.00157311
0.00158506
0.0015873
0.00157387
0.00155558
0.00152868
0.00150484
0.00150484
0.00153694
0.0016936
0.00203648
0.00221909
0.00138674
0.0013884
0.0013935
0.00140479
0.00141576
0.00143402
0.00145331
0.00148812
0.0015167
0.00156109
0.00159802
0.00161834
0.00163131
0.00164212
0.00163648
0.00163366
0.00161837
0.00160713
0.00161071
0.00168396
0.00182296
0.00200402
0.00198279
0.00145939
0.00146172
0.00146793
0.00148008
0.00149218
0.00151318
0.00153141
0.00156343
0.00158415
0.00162335
0.0016604
0.00168821
0.00171188
0.00173494
0.00174565
0.00176283
0.00177028
0.00179566
0.0018339
0.00191788
0.00204827
0.00229636
0.00209916
0.00153557
0.00153854
0.00154557
0.00155723
0.00156913
0.00159043
0.00160717
0.00163829
0.00165982
0.00169769
0.00173655
0.00177183
0.00180659
0.00184131
0.00186758
0.00190179
0.00193368
0.00198766
0.00205522
0.00216868
0.00232536
0.00253578
0.00225823
0.00160967
0.00161325
0.00162033
0.00163288
0.00164502
0.00166747
0.00168447
0.00171717
0.00174109
0.00177826
0.00181819
0.0018585
0.00189921
0.00194211
0.00197936
0.00202685
0.00207544
0.00214985
0.0022399
0.00237205
0.00253446
0.00273011
0.00239601
0.00168662
0.00169014
0.00169662
0.00170948
0.00172172
0.00174491
0.00176255
0.00179511
0.00182143
0.00185846
0.00189861
0.00194051
0.0019849
0.00203363
0.0020799
0.00213869
0.0022028
0.0022939
0.00240092
0.0025433
0.00271055
0.0029102
0.00254327
0.0017607
0.00176454
0.00177137
0.00178488
0.0017973
0.00182122
0.00183926
0.00187172
0.00189997
0.00193678
0.00197728
0.00202158
0.00206898
0.00212291
0.00217755
0.002248
0.00232631
0.00243108
0.00255013
0.00269452
0.00287172
0.00308095
0.00268296
0.00183577
0.00184009
0.00184703
0.00186114
0.00187357
0.0018978
0.0019163
0.00194852
0.00197802
0.00201535
0.00205708
0.00210329
0.0021536
0.00221296
0.00227647
0.00235729
0.0024473
0.00255581
0.00268237
0.0028338
0.00301741
0.00323554
0.00281337
0.00190978
0.00191433
0.00192103
0.00193525
0.00194734
0.00197151
0.00199031
0.00202244
0.00205289
0.00209142
0.00213375
0.00218267
0.00223625
0.00230195
0.00237175
0.00245269
0.00254698
0.00265815
0.00279132
0.00295051
0.00314274
0.0033718
0.00292891
0.00198275
0.00198742
0.00199388
0.00200834
0.00202031
0.00204469
0.00206391
0.00209637
0.00212721
0.00216717
0.00221013
0.00226234
0.00231826
0.0023871
0.00245954
0.00254388
0.00264255
0.00275931
0.00289829
0.00306303
0.00325978
0.00349443
0.00302663
0.00205436
0.0020591
0.00206537
0.00207994
0.00209176
0.00211604
0.00213523
0.00216787
0.00219825
0.00224003
0.00228254
0.00233614
0.00239081
0.00245499
0.00252834
0.00261532
0.00271644
0.00283643
0.00297647
0.00314321
0.0033398
0.00357721
0.00308737
0.00212431
0.00212908
0.00213518
0.00214966
0.00216133
0.00218528
0.00220448
0.00223713
0.00226715
0.00230974
0.00235136
0.00240718
0.00246235
0.00252829
0.00260347
0.0026918
0.00279304
0.00291276
0.0030511
0.003217
0.00341101
0.00364647
0.00312659
0.00219364
0.00219825
0.00220401
0.00221795
0.00222933
0.00225251
0.00227166
0.00230366
0.00233327
0.00237546
0.00241673
0.0024668
0.0025217
0.00258573
0.00265923
0.00274452
0.00284356
0.00295969
0.00309579
0.00325689
0.00344501
0.00367029
0.00312372
0.0022608
0.0022651
0.00227047
0.00228355
0.00229462
0.00231649
0.00233556
0.002366
0.00239552
0.00243586
0.00247738
0.00252631
0.00258009
0.00264193
0.00271378
0.00279671
0.00289363
0.0030052
0.00313631
0.00328721
0.0034667
0.0036742
0.00310512
0.00232719
0.00233112
0.00233608
0.00234804
0.00235867
0.00237877
0.0023975
0.00242577
0.00245512
0.00249266
0.00253306
0.00257704
0.00262834
0.00268696
0.00275566
0.00283357
0.00292463
0.00302797
0.00315029
0.00329003
0.00345703
0.00364592
0.00303892
0.00239165
0.00239511
0.00239959
0.00241017
0.00242024
0.00243811
0.00245621
0.00248154
0.00251034
0.00254411
0.00258239
0.0026236
0.0026722
0.0027272
0.00279133
0.00286373
0.00294919
0.00304542
0.00315902
0.00328535
0.00343655
0.00360439
0.00296045
0.00245509
0.00245804
0.00246195
0.002471
0.00248043
0.00249585
0.00251303
0.00253504
0.00256279
0.00259229
0.00262827
0.00266563
0.00270958
0.00275922
0.00281758
0.00288387
0.00296171
0.00304839
0.00314967
0.00326227
0.00339533
0.00354223
0.00287227
0.00251635
0.00251885
0.00252221
0.00252976
0.00253845
0.00255125
0.00256716
0.00258553
0.00261145
0.00263616
0.00266768
0.00270027
0.00273888
0.00278329
0.00283569
0.00289471
0.00296437
0.0030422
0.00313413
0.00323394
0.00335027
0.00347627
0.00278696
0.00257568
0.00257775
0.00258066
0.0025868
0.00259468
0.00260494
0.00261931
0.00263411
0.00265753
0.00267739
0.0027074
0.00273507
0.00276761
0.00280506
0.00284933
0.00289975
0.0029595
0.00302686
0.00310609
0.00319383
0.00329414
0.00340453
0.00269927
0.00263205
0.00263361
0.00263623
0.00264099
0.00264802
0.00265595
0.0026685
0.00267971
0.0027
0.00271506
0.00273891
0.00276103
0.00278712
0.00281749
0.00285346
0.00289417
0.00294352
0.00299986
0.00306817
0.0031438
0.00323121
0.00332639
0.00261234
0.00268464
0.00268565
0.00268819
0.00269176
0.00269817
0.00270427
0.00271528
0.00272342
0.00274045
0.00275137
0.00277561
0.00279117
0.00281305
0.00283523
0.00286075
0.00289035
0.00292698
0.0029692
0.00302176
0.00307577
0.003157
0.0032253
0.00254084
0.0027326
0.00273313
0.00273556
0.00273813
0.00274401
0.00274866
0.00275836
0.0027641
0.00277795
0.00278509
0.00280169
0.00281314
0.00282651
0.00284151
0.00285856
0.0028774
0.00290131
0.0029247
0.00296642
0.00299683
0.00306306
0.00311458
0.00243105
0.00277502
0.00277522
0.00277749
0.00277942
0.00278494
0.00278858
0.00279735
0.00280149
0.00281329
0.0028177
0.00283275
0.00283799
0.00285475
0.00286164
0.00287118
0.00287712
0.0028857
0.00288079
0.00289919
0.00290943
0.00295556
0.00299498
0.00233662
0.00281171
0.00281165
0.00281373
0.00281518
0.00282032
0.00282317
0.00283115
0.00283427
0.00284468
0.00284727
0.00285812
0.00286034
0.002866
0.00286807
0.00286698
0.00286408
0.00285871
0.0028475
0.00284114
0.0028242
0.00284203
0.00286335
0.00221639
0.00284238
0.00284214
0.00284403
0.00284513
0.00284994
0.00285231
0.00285989
0.00286266
0.0028724
0.00287404
0.00288384
0.00288234
0.00288952
0.00288335
0.00287958
0.00286542
0.00284568
0.00281899
0.00279104
0.0027478
0.00272763
0.00271553
0.0021081
0.00286712
0.00286674
0.00286844
0.00286931
0.00287392
0.00287615
0.00288355
0.0028863
0.00289479
0.00289698
0.00290349
0.00290255
0.00289778
0.00288712
0.00287042
0.00284698
0.00281592
0.00277701
0.0027305
0.00268192
0.00263527
0.00258023
0.001953
0.00288646
0.00288598
0.00288751
0.00288823
0.0028927
0.00289485
0.00290209
0.00290483
0.00291381
0.00291528
0.00292347
0.0029199
0.00292189
0.00290828
0.00289069
0.00286161
0.00282162
0.00276971
0.00270611
0.00263399
0.0025618
0.00246896
0.00183218
0.00290075
0.0029001
0.00290141
0.002902
0.00290504
0.00290791
0.00291218
0.00291685
0.00292229
0.00292708
0.00293129
0.00293109
0.00292342
0.00290869
0.00288491
0.0028505
0.00280358
0.002742
0.00266501
0.00257073
0.00246225
0.00234973
0.00166457
0.00291058
0.00290998
0.00291083
0.00291155
0.00291403
0.00291714
0.00292175
0.00292696
0.00293319
0.00293815
0.00294438
0.00294267
0.00294016
0.00292648
0.00290304
0.0028672
0.00281708
0.00274924
0.00266225
0.00255364
0.00242717
0.00228617
0.00158189
0.0029149
0.00291446
0.00291446
0.00291449
0.00291603
0.00291838
0.00292223
0.00292668
0.00293204
0.00293692
0.00294124
0.00294134
0.0029339
0.00291913
0.00289465
0.0028576
0.00280524
0.0027338
0.00264152
0.00252339
0.0023805
0.00220883
0.00148657
0.00291725
0.00291706
0.00291706
0.00291731
0.00291896
0.00292141
0.00292539
0.00293006
0.00293577
0.00294114
0.00294606
0.0029456
0.00294073
0.00292658
0.00290261
0.00286588
0.00281388
0.00274191
0.00264822
0.00252652
0.00237739
0.00219572
0.00146489
0.00291767
0.00291688
0.00291634
0.00291634
0.00291712
0.00291864
0.00292161
0.00292516
0.00292965
0.0029337
0.00293728
0.0029361
0.00292797
0.00291249
0.00288713
0.002849
0.0027956
0.00272205
0.00262633
0.00250163
0.00234705
0.00215511
0.0014227
3.81594e-05
3.81594e-05
5.69426e-05
0.00022305
4.87027e-05
4.87027e-05
5.28682e-05
0.000124721
5.55268e-05
5.51382e-05
5.30421e-05
5.30421e-05
5.45423e-05
5.45423e-05
5.58596e-05
5.65055e-05
5.60162e-05
5.60162e-05
5.70541e-05
5.77565e-05
0.000251514
0.000233674
0.000204122
0.000176482
0.00115107
0.00114317
0.00111431
0.000982966
0.00118464
0.00118464
0.00120686
0.0012519
0.00162625
0.00158725
0.00154165
0.00154165
0.00179989
0.00179989
0.00186863
0.00192672
0.00151589
0.00151589
0.00160795
0.00169454
0.00136671
0.00136671
0.00146059
0.00154967
0.00142521
0.00142521
0.00150451
0.00158427
0.00152357
0.00152357
0.00159655
0.00167168
0.00161006
0.00161006
0.00168209
0.00175854
0.00170349
0.00170349
0.00177609
0.00185407
0.00179413
0.00179413
0.00187134
0.0019541
0.00188074
0.00188074
0.00196407
0.00205021
0.00195891
0.00195891
0.00204619
0.0021362
0.0020235
0.0020235
0.00211532
0.00221626
0.00206516
0.00206516
0.00216432
0.00227923
0.00209163
0.00209163
0.00219499
0.00231679
0.0020879
0.0020879
0.00218662
0.00230281
0.00206477
0.00206477
0.00214884
0.00225461
0.00200908
0.00200908
0.00208102
0.00217482
0.00195143
0.00195143
0.00200764
0.0020833
0.00188669
0.00188669
0.00193028
0.00198837
0.00182554
0.00182554
0.0018624
0.00190638
0.00176558
0.00176558
0.0018005
0.00184148
0.00170362
0.00170362
0.00173188
0.00176408
0.00165757
0.00165757
0.00168646
0.00171737
0.00158309
0.00158309
0.00160853
0.00163749
0.00151857
0.00151857
0.00154002
0.00156413
0.00143656
0.00143656
0.00145303
0.00147223
0.00136356
0.00136356
0.00137575
0.00139016
0.00126101
0.00126101
0.00126997
0.00127939
0.00117771
0.00117771
0.00118237
0.00118643
0.00105657
0.00105244
0.00105244
0.00105289
0.000988238
0.000967763
0.000953567
0.000953567
0.000909374
0.000867679
0.000831479
0.000831479
0.000888642
0.000835117
0.000782779
0.000782779
0.000856316
0.000795977
0.000732628
0.000732628
0.000258964
0.000414064
0.00055585
0.000654247
0.000843929
0.00116273
0.00110027
0.00106026
0.00116318
0.00137462
0.00128175
0.00135041
0.00144394
0.00135894
0.00149736
0.00140647
0.0015845
0.00156927
0.00162945
0.000625364
0.000891645
0.000885079
0.00113713
0.00145362
0.00129019
0.00129019
0.00146422
0.00161287
0.00187458
0.00177383
0.00183722
0.00203368
0.00197229
0.00229596
0.0022728
0.00277389
0.00291202
0.00328742
0.00012736
0.000530332
0.00102219
0.0014926
0.00173033
0.00144259
0.00137252
0.00129503
0.00129503
0.00134442
0.00155007
0.00165962
0.00168204
0.00202343
0.00235491
0.00253716
0.00336648
0.0038464
0.00502976
9.68411e-05
0.000154043
0.000215758
0.000303424
0.000377163
0.000556086
0.00114224
0.00169405
0.00184988
0.00180118
0.00117861
0.00104738
0.00104738
0.0015228
0.00161497
0.00188791
0.00281483
0.00451706
0.00754838
9.76943e-05
0.000129255
0.000134215
0.000143775
0.000153318
0.000174242
0.000226997
0.00028732
0.000353737
0.000615329
0.00136533
0.00187233
0.00182042
0.0012802
0.00110692
0.00110692
0.0018095
0.00370801
0.00879754
0.000140418
0.000129255
0.000134215
0.000143775
0.000153318
0.000162403
0.000167165
0.000173394
0.000182036
0.000195347
0.000255964
0.000343196
0.000781596
0.00198449
0.00215515
0.00172714
0.00220664
0.00283456
0.00882679
0.000444012
0.000287053
0.000271998
0.000262903
0.00025326
0.000240977
0.000225369
0.000206904
0.000182036
0.00019121
0.00019121
0.000195496
0.000218382
0.000317969
0.000726313
0.00245636
0.00306571
0.00283456
0.00847203
0.00214743
0.00211547
0.00193032
0.00178633
0.00164545
0.00147495
0.00126304
0.000943012
0.000434803
0.000372674
0.00032494
0.000220091
0.000201705
0.000201705
0.000241748
0.000447507
0.00213531
0.003092
0.00907508
0.00251866
0.00284838
0.00288793
0.00303864
0.00314611
0.00322399
0.00326748
0.00321446
0.00303975
0.00271827
0.00216028
0.000890879
0.000402433
0.000220828
0.000283023
0.000246892
0.000448463
0.00226316
0.00702223
0.00329423
0.00367245
0.00362949
0.00360498
0.00360204
0.00359516
0.00358112
0.00356008
0.00350739
0.00348082
0.00342917
0.00340859
0.00288833
0.000908362
0.000376351
0.000246892
0.000293969
0.000755594
0.00407615
0.00298022
0.00421645
0.00450917
0.00458334
0.0046158
0.00453528
0.00435253
0.00411759
0.00387474
0.00355163
0.00342917
0.00319644
0.00301528
0.00276316
0.00120861
0.00030193
0.000319645
0.00045679
0.00200607
0.00274056
0.00411465
0.00450218
0.00477648
0.00496136
0.00500531
0.00492714
0.00474688
0.00450106
0.00408822
0.00361684
0.00319644
0.00275822
0.0020302
0.00221562
0.000559061
0.000296166
0.000345681
0.000911925
0.00279329
0.00411465
0.00450218
0.00478378
0.00501078
0.00512503
0.00514107
0.0050565
0.00487539
0.00449814
0.00397667
0.00327883
0.0024406
0.00198885
0.00149803
0.000619893
0.000296166
0.000318869
0.000429065
0.00293013
0.00423087
0.00464199
0.00496638
0.00522405
0.00536901
0.00541219
0.00533598
0.00516913
0.00481977
0.00434479
0.00366439
0.00304186
0.00186582
0.00141395
0.000711423
0.000332987
0.000325097
0.000338978
0.0030779
0.00442098
0.00486307
0.00520022
0.00552313
0.00572876
0.00582977
0.00577586
0.00563367
0.00530726
0.00488687
0.00430405
0.00367121
0.00276166
0.00141395
0.000656047
0.000444088
0.000373823
0.000420367
0.00323924
0.00466199
0.005154
0.00554873
0.00598935
0.00626621
0.0064402
0.00639902
0.006258
0.00591904
0.00554637
0.0050765
0.00452864
0.0038617
0.00194705
0.00078253
0.000299941
0.000353674
0.000560149
0.00341559
0.00495013
0.005532
0.00605952
0.00662386
0.00696827
0.0072193
0.00724419
0.00710227
0.00673739
0.00635379
0.00603414
0.00547775
0.00549744
0.00256752
0.000299832
0.000299832
0.000325094
0.000895984
0.00358855
0.00530956
0.00603443
0.00664865
0.00722845
0.00761194
0.00795179
0.00810862
0.00809767
0.00772726
0.00728117
0.00700316
0.00636658
0.00681523
0.00383915
0.000892445
0.000356827
0.000541074
0.00158575
0.00376014
0.00572294
0.00651286
0.00685427
0.00707518
0.00726674
0.00785639
0.00831637
0.00877638
0.00859581
0.00823644
0.00785295
0.00728751
0.00759971
0.00465837
0.00140631
0.000735355
0.000935447
0.00186136
0.00393716
0.00610047
0.00642068
0.00611398
0.00604424
0.00609537
0.00679251
0.00762846
0.00842562
0.00884774
0.00894071
0.00860391
0.00820046
0.00818656
0.00503667
0.00190904
0.00112652
0.00114616
0.0019546
0.00407383
0.00600726
0.00586851
0.00503871
0.00484435
0.00461101
0.00459419
0.00576269
0.00762609
0.00829988
0.00908976
0.00914332
0.00903023
0.00871502
0.00504238
0.00277197
0.00177797
0.00152803
0.00270805
0.00412359
0.00570207
0.00521624
0.00389648
0.0035982
0.00304769
0.00212548
0.00330119
0.00602345
0.0074223
0.00856189
0.00908082
0.00956355
0.00925933
0.00544021
0.00277197
0.00312216
0.00227747
0.00530184
0.00405902
0.00545031
0.00442534
0.00259841
0.00264838
0.00190534
0.00130919
0.00176118
0.00410357
0.00642472
0.0077297
0.00849797
0.00940569
0.00938094
0.00655721
0.00357288
0.00303649
0.00398357
0.00710629
0.00393554
0.00522802
0.00336413
0.00143417
0.00212367
0.00208725
0.00130919
0.00230133
0.00375045
0.00545822
0.00666473
0.00757566
0.00885821
0.00886387
0.00778428
0.00464138
0.00303649
0.00405964
0.00783076
0.00376553
0.00463387
0.00230698
0.000659302
0.00144696
0.00244824
0.00242964
0.0031158
0.00410273
0.00472705
0.00543725
0.00628559
0.00781993
0.00810172
0.00809972
0.00573443
0.00430746
0.00414258
0.007809
0.00358178
0.00422988
0.00175452
0.000659302
0.000787183
0.00177522
0.00292386
0.00370251
0.0038664
0.0040528
0.0043474
0.00496053
0.00632972
0.00687401
0.0072586
0.00650276
0.00611736
0.004973
0.00905902
0.00341009
0.00421986
0.00260231
0.000988437
0.00107445
0.00138694
0.00214153
0.00273395
0.00282515
0.00298448
0.00326826
0.00368677
0.00507375
0.00582917
0.00657282
0.00661638
0.00752243
0.0066125
0.0107502
0.00326998
0.00414146
0.0029897
0.00156809
0.00211882
0.00210066
0.00248404
0.00227495
0.00227495
0.00236129
0.00274993
0.00297933
0.00404597
0.0054629
0.00657282
0.00661638
0.00817727
0.00838397
0.01248
0.00316656
0.00411763
0.0034867
0.00198349
0.00209414
0.00355639
0.00329438
0.00283563
0.0024827
0.00236129
0.00276138
0.00285223
0.003446
0.00482336
0.00661643
0.00664426
0.00833493
0.00990718
0.0139924
0.00302071
0.00404352
0.00387155
0.00272768
0.00192388
0.00306851
0.00438271
0.00391994
0.00352283
0.00312279
0.00263376
0.00239722
0.00279594
0.00409563
0.00528332
0.00681297
0.0085174
0.0111331
0.0155184
0.00293632
0.0039288
0.00393785
0.00330584
0.00192388
0.0017269
0.0038868
0.00417736
0.00386595
0.00302268
0.00243272
0.0022891
0.00260602
0.0033145
0.00437347
0.00609591
0.00870912
0.0121827
0.0170674
0.00279985
0.00376589
0.00399968
0.00373533
0.00236752
0.00161525
0.00239199
0.00389673
0.00386595
0.00346527
0.00243272
0.0022891
0.00265046
0.003753
0.00430596
0.00576318
0.00851081
0.0128646
0.018709
0.00266826
0.0035356
0.00382615
0.00393577
0.00337161
0.00161525
0.00138285
0.00287196
0.00386577
0.00404206
0.00306679
0.00257964
0.00322446
0.00426132
0.00430596
0.00585227
0.00886725
0.0139359
0.0205089
0.00250613
0.00329764
0.00356238
0.00384639
0.00382181
0.00254796
0.00138285
0.00172546
0.00300778
0.00333799
0.00338419
0.00331041
0.00318545
0.00345857
0.00402048
0.00595984
0.00924982
0.0153148
0.0224957
0.00236077
0.00303817
0.00326263
0.00356193
0.00387222
0.00357145
0.00212214
0.00168824
0.00168824
0.0024285
0.00271449
0.00258469
0.00221447
0.00179595
0.00238778
0.00448853
0.0091009
0.016329
0.024699
0.00216514
0.00275569
0.00293705
0.00318415
0.0035633
0.00384823
0.00338162
0.00206402
0.0021307
0.00237386
0.00241977
0.00220613
0.00134265
0.00102883
0.00102883
0.00249228
0.00767968
0.0169484
0.0265623
0.00199733
0.00245785
0.00260128
0.00278385
0.00311309
0.00346278
0.00381256
0.00347306
0.0029902
0.00282102
0.00291369
0.00264593
0.00205897
0.00121319
0.00140173
0.00237241
0.00740835
0.0175494
0.0261449
0.00177085
0.00216135
0.00227486
0.0024205
0.00269959
0.00301038
0.0034536
0.0037105
0.00379492
0.0037006
0.00365139
0.00326329
0.00281898
0.00252952
0.00283765
0.00396981
0.00920518
0.0173248
0.0242202
0.00158725
0.00184299
0.00193718
0.00206104
0.00231094
0.00256523
0.00296293
0.00329618
0.00356793
0.00366675
0.00376285
0.0036359
0.0036079
0.00381424
0.00488035
0.00629038
0.0107403
0.0168372
0.0212863
0.00134933
0.00151185
0.00159647
0.00170861
0.00194691
0.00217365
0.00250093
0.00280424
0.00311639
0.00330357
0.00347232
0.00361141
0.00400019
0.00445866
0.00583711
0.00753397
0.0107579
0.0150802
0.0176843
0.00123341
0.00118301
0.00120752
0.00131788
0.00156077
0.00180043
0.002096
0.00236314
0.00262756
0.002843
0.0030403
0.00328292
0.00368971
0.00441134
0.00549815
0.00740778
0.0098981
0.0128333
0.0136934
0.00111983
0.00109385
0.00109385
0.00113429
0.00132651
0.00159735
0.00188709
0.00218086
0.00244881
0.00269977
0.0029356
0.00320686
0.00357333
0.00419237
0.00509668
0.00660649
0.00869989
0.0113031
0.0129493
)
;

boundaryField
{
    leftWall
    {
        type            calculated;
        value           uniform 0;
    }
    rightWall
    {
        type            calculated;
        value           uniform 0;
    }
    lowerWall
    {
        type            calculated;
        value           uniform 0;
    }
    atmosphere
    {
        type            calculated;
        value           uniform 0;
    }
    defaultFaces
    {
        type            empty;
    }
}


// ************************************************************************* //
