/*--------------------------------*- C++ -*----------------------------------*\
| =========                 |                                                 |
| \\      /  F ield         | OpenFOAM: The Open Source CFD Toolbox           |
|  \\    /   O peration     | Version:  2012                                  |
|   \\  /    A nd           | Website:  www.openfoam.com                      |
|    \\/     M anipulation  |                                                 |
\*---------------------------------------------------------------------------*/
FoamFile
{
    version     2.0;
    format      ascii;
    class       volScalarField;
    location    "0.35";
    object      pcorr;
}
// * * * * * * * * * * * * * * * * * * * * * * * * * * * * * * * * * * * * * //

dimensions      [1 -1 -2 0 0 0 0];


internalField   nonuniform List<scalar> 
2268
(
100976
100968
100952
100928
100895
100850
100792
100718
100625
100509
100364
100184
99961.2
99686.6
99350.8
98943.8
98458
97890.7
97250.1
96563.6
95889.4
95323.6
94989.1
100977
100970
100954
100931
100897
100853
100795
100723
100631
100516
100372
100194
99972.7
99700.3
99366.5
98961.4
98476.3
97907.2
97260.3
96560.8
95865.2
95272
94915.1
100981
100973
100958
100935
100902
100859
100802
100731
100641
100528
100388
100213
99995.7
99727.6
99398.3
98996.8
98513.2
97941.1
97282.4
96557.2
95818.1
95167.6
94761.8
100986
100978
100964
100941
100909
100867
100813
100744
100657
100547
100411
100241
100030
99768.6
99446
99050.5
98570
97994.2
97319.3
96556.7
95751.2
95008.6
94518.6
100992
100985
100971
100950
100919
100879
100827
100760
100677
100573
100442
100279
100076
99823.3
99510.1
99123.1
98647.9
98069.6
97375.8
96565.7
95670.3
94793.2
94167.9
101000
100994
100981
100960
100931
100893
100843
100781
100702
100603
100480
100326
100133
99891.5
99590.6
99215.5
98748.9
98170.6
97458.2
96593.7
95585.3
94521.6
93679.3
101010
101004
100991
100972
100945
100909
100863
100805
100732
100640
100525
100381
100200
99973.1
99687.6
99328.2
98874.9
98301.6
97574.5
96653.8
95512.6
94200.6
93004.3
101021
101015
101004
100986
100961
100928
100886
100832
100765
100681
100576
100444
100278
100068
99801.2
99461.8
99027.5
98466.9
97734
96763
95477.7
93853.8
92063
78401.6
78400.6
78398.8
78396.7
78394.3
78391.8
78389.2
78386.5
78383.6
78380.5
78377.2
78373.8
78370.5
78367.2
78364.2
78361.6
78359.5
78358
78357.3
78401.8
78400.7
78398.9
78396.7
78394.3
78391.9
78389.3
78386.5
78383.6
78380.5
78377.2
78373.8
78370.5
78367.2
78364.1
78361.5
78359.4
78357.9
78357.1
78402.2
78401
78399
78396.8
78394.4
78391.9
78389.3
78386.6
78383.7
78380.6
78377.3
78373.8
78370.4
78367.1
78364
78361.3
78359.2
78357.6
78356.9
78402.7
78401.4
78399.2
78396.9
78394.4
78392
78389.4
78386.7
78383.8
78380.6
78377.3
78373.9
78370.4
78367
78363.8
78361
78358.8
78357.2
78356.4
78403.6
78401.9
78399.5
78397
78394.5
78392
78389.5
78386.8
78383.9
78380.8
78377.4
78373.9
78370.3
78366.8
78363.5
78360.6
78358.3
78356.7
78355.9
78404.7
78402.5
78399.8
78397.1
78394.6
78392.1
78389.6
78387
78384.1
78380.9
78377.5
78373.9
78370.2
78366.6
78363.2
78360.2
78357.7
78356
78355.2
78406.3
78403.3
78400
78397.1
78394.6
78392.3
78389.8
78387.2
78384.3
78381.1
78377.6
78373.9
78370.1
78366.3
78362.7
78359.6
78357
78355.2
78354.3
78408.4
78404.1
78400.2
78397.1
78394.7
78392.4
78390
78387.4
78384.6
78381.4
78377.8
78374
78370
78366
78362.2
78358.9
78356.2
78354.2
78353.3
101040
101035
101025
101010
100989
100961
100925
100880
100824
100754
100666
100555
100415
100235
100004
99704
99310.3
98785.5
98066.4
97043.3
95540.9
93369.8
89967.3
101071
101067
101060
101049
101033
101013
100988
100956
100918
100870
100811
100737
100641
100516
100350
100128
99827.5
99415.2
98825.5
97908.6
96300.8
93952.9
90541.4
101106
101104
101099
101092
101082
101070
101056
101040
101021
100999
100972
100939
100895
100837
100752
100630
100457
100224
99915.1
99471.7
97807.1
95606.9
92736.8
101142
101141
101139
101135
101131
101127
101122
101119
101116
101116
101116
101118
101117
101118
101107
101087
101046
100992
101084
102268
99853.6
97935.9
95677.8
101172
101172
101172
101171
101170
101169
101167
101165
101163
101161
101158
101155
101152
101148
101144
101140
101136
101133
101131
101150
100975
100349
99099
101174
101173
101173
101172
101171
101170
101168
101167
101165
101162
101160
101157
101153
101150
101146
101142
101139
101135
101131
101127
101112
101089
101009
101175
101174
101174
101173
101172
101171
101169
101168
101165
101163
101161
101158
101154
101151
101147
101143
101139
101135
101130
101124
101116
101106
101093
101176
101176
101175
101174
101173
101172
101171
101169
101167
101164
101162
101159
101156
101152
101149
101145
101140
101136
101130
101124
101117
101108
101099
101177
101177
101176
101176
101175
101173
101172
101170
101168
101166
101163
101160
101157
101154
101150
101146
101142
101137
101132
101125
101118
101110
101102
101179
101179
101178
101177
101176
101175
101174
101172
101170
101168
101165
101162
101159
101156
101152
101148
101144
101139
101134
101128
101121
101114
101106
101181
101180
101180
101179
101178
101177
101176
101174
101172
101170
101167
101165
101161
101158
101155
101151
101146
101141
101136
101130
101124
101117
101110
101183
101183
101182
101181
101180
101179
101178
101176
101174
101172
101170
101167
101164
101161
101157
101153
101149
101144
101139
101134
101128
101121
101114
101185
101185
101184
101184
101183
101182
101180
101179
101177
101175
101172
101170
101167
101164
101160
101156
101152
101148
101143
101138
101132
101126
101119
101188
101187
101187
101186
101185
101184
101183
101181
101180
101178
101175
101173
101170
101167
101163
101160
101156
101151
101147
101142
101136
101131
101125
101190
101190
101190
101189
101188
101187
101186
101184
101183
101181
101178
101176
101173
101170
101167
101163
101160
101155
101151
101146
101141
101136
101130
101193
101193
101193
101192
101191
101190
101189
101188
101186
101184
101182
101179
101177
101174
101171
101167
101164
101160
101156
101151
101146
101141
101136
101197
101197
101196
101196
101195
101194
101192
101191
101189
101188
101185
101183
101181
101178
101175
101172
101168
101164
101160
101156
101152
101147
101142
101200
101200
101200
101199
101198
101197
101196
101195
101193
101191
101189
101187
101185
101182
101179
101176
101173
101169
101166
101162
101157
101153
101148
101204
101204
101203
101203
101202
101201
101200
101199
101197
101195
101193
101191
101189
101187
101184
101181
101178
101174
101171
101167
101163
101159
101155
101208
101207
101207
101207
101206
101205
101204
101203
101201
101200
101198
101196
101194
101191
101189
101186
101183
101180
101176
101173
101169
101165
101161
101212
101211
101211
101211
101210
101209
101208
101207
101205
101204
101202
101200
101198
101196
101194
101191
101188
101185
101182
101179
101175
101172
101168
101216
101216
101215
101215
101214
101213
101212
101211
101210
101208
101207
101205
101203
101201
101199
101196
101194
101191
101188
101185
101182
101178
101175
101220
101220
101220
101219
101219
101218
101217
101216
101215
101213
101212
101210
101208
101206
101204
101202
101199
101197
101194
101191
101188
101185
101182
101225
101224
101224
101224
101223
101222
101222
101221
101219
101218
101217
101215
101213
101212
101210
101207
101205
101203
101200
101198
101195
101192
101189
101229
101229
101229
101228
101228
101227
101226
101225
101224
101223
101222
101220
101219
101217
101215
101213
101211
101209
101207
101204
101202
101199
101196
101234
101234
101234
101233
101233
101232
101231
101230
101229
101228
101227
101226
101224
101223
101221
101219
101217
101215
101213
101211
101208
101206
101204
101239
101239
101239
101238
101238
101237
101236
101236
101235
101234
101232
101231
101230
101228
101227
101225
101223
101221
101219
101217
101215
101213
101211
101244
101244
101244
101243
101243
101242
101242
101241
101240
101239
101238
101237
101235
101234
101233
101231
101229
101228
101226
101224
101222
101220
101218
101249
101249
101249
101248
101248
101248
101247
101246
101245
101245
101244
101242
101241
101240
101239
101237
101236
101234
101233
101231
101229
101227
101226
101254
101254
101254
101254
101253
101253
101252
101252
101251
101250
101249
101248
101247
101246
101245
101244
101242
101241
101239
101238
101236
101235
101233
101260
101259
101259
101259
101259
101258
101258
101257
101257
101256
101255
101254
101253
101252
101251
101250
101249
101247
101246
101245
101243
101242
101240
101265
101265
101265
101265
101264
101264
101263
101263
101262
101262
101261
101260
101259
101258
101257
101256
101255
101254
101253
101252
101250
101249
101248
101270
101270
101270
101270
101270
101269
101269
101269
101268
101267
101267
101266
101265
101264
101264
101263
101262
101261
101260
101259
101257
101256
101255
101276
101276
101276
101276
101275
101275
101275
101274
101274
101273
101273
101272
101271
101271
101270
101269
101268
101267
101266
101266
101265
101264
101263
101282
101282
101281
101281
101281
101281
101281
101280
101280
101279
101279
101278
101278
101277
101276
101276
101275
101274
101273
101273
101272
101271
101270
101287
101287
101287
101287
101287
101287
101286
101286
101286
101285
101285
101284
101284
101283
101283
101282
101281
101281
101280
101280
101279
101278
101278
101293
101293
101293
101293
101293
101292
101292
101292
101292
101291
101291
101291
101290
101290
101289
101289
101288
101288
101287
101287
101286
101285
101285
101299
101299
101299
101299
101298
101298
101298
101298
101298
101297
101297
101297
101296
101296
101296
101295
101295
101294
101294
101294
101293
101293
101292
101305
101305
101304
101304
101304
101304
101304
101304
101304
101303
101303
101303
101303
101302
101302
101302
101302
101301
101301
101301
101300
101300
101300
101310
101310
101310
101310
101310
101310
101310
101310
101310
101310
101309
101309
101309
101309
101309
101308
101308
101308
101308
101308
101307
101307
101307
101316
101316
101316
101316
101316
101316
101316
101316
101316
101316
101316
101316
101315
101315
101315
101315
101315
101315
101315
101315
101314
101314
101314
101322
101322
101322
101322
101322
101322
101322
101322
101322
101322
101322
101322
101322
101322
101322
101322
101322
101322
101322
101322
101321
101321
101321
84961.3
81335.1
78489
78439.3
86838.3
84161.2
81244.1
78627.5
90072.6
88279.7
86521.4
85024.2
93656.8
92242.4
90713.7
89037.5
97744.4
96702.4
95561.5
94361.1
100839
100554
100084
99468.6
101080
101072
101062
101042
101091
101087
101082
101077
101095
101091
101087
101083
101100
101096
101092
101087
101104
101100
101097
101093
101109
101106
101102
101098
101114
101111
101108
101104
101120
101117
101114
101111
101126
101123
101120
101117
101132
101129
101127
101124
101138
101136
101133
101131
101145
101143
101140
101138
101152
101149
101147
101145
101158
101156
101154
101152
101165
101164
101162
101160
101172
101171
101169
101167
101180
101178
101177
101175
101187
101185
101184
101183
101194
101193
101192
101190
101202
101200
101199
101198
101209
101208
101207
101206
101217
101216
101215
101214
101224
101223
101222
101221
101232
101231
101230
101229
101239
101239
101238
101237
101247
101246
101246
101245
101254
101254
101253
101253
101262
101262
101261
101261
101270
101269
101269
101269
101277
101277
101277
101276
101285
101284
101284
101284
101292
101292
101292
101291
101299
101299
101299
101299
101307
101307
101307
101306
101314
101314
101314
101314
101321
101321
101321
101321
78412.9
78405.3
78400.2
78396.9
78394.7
78392.6
78390.3
78387.9
78385.2
78381.9
78378.2
78374.1
78369.8
78365.5
78361.3
78357.6
78354.6
78352.5
78351.3
78410.7
78404.9
78398.8
78395.8
78394.6
78392.9
78390.9
78388.8
78386.4
78383
78378.9
78374.5
78369.6
78364.6
78359.7
78355.3
78351.7
78349.2
78347.8
79430.2
78409.2
78391
78391.2
78395
78393.6
78391.6
78390
78388.5
78384.6
78379.9
78375.2
78369.6
78363.6
78357.7
78352.4
78348
78344.9
78343.2
85748.6
82323.6
79881.9
78488.5
78401.6
78395.6
78392.5
78391.9
78392.7
78386.9
78381
78376.7
78369.9
78362.5
78355.3
78348.8
78343.3
78339.3
78337.3
92313.5
89682
87276.2
85392.9
84168.1
82972.3
81295
79486.9
78411.1
78392.2
78380.1
78380.4
78370.8
78361.2
78352.4
78344.2
78337.2
78332.2
78329.7
98299.5
97033.1
94965.3
93590.9
92644
92032.5
91826.2
91145.2
86427.9
83590.1
80664.8
78405.7
78373.4
78357.8
78348.8
78338.7
78329.5
78323.1
78319.9
100977
100835
100483
99998.5
99472.3
98939
98346.3
97414.9
95395.5
93077.8
90106.9
86552.2
82828
78675.5
78350.2
78327.5
78319.7
78310.2
78307
101067
101051
101034
101019
101004
100986
100956
100893
100745
100349
99063
96498.4
92507.1
87207.4
82358.5
78499.7
78307.5
78279.3
78279.7
101075
101063
101051
101040
101029
101017
101005
100990
100971
100950
100920
100819
100232
96497.9
90199.5
83961.3
79166.5
78231.4
78250.7
101080
101070
101059
101048
101038
101028
101017
101005
100991
100978
100963
100944
100906
100875
97367.9
90520.5
83486.5
78965.5
78603.4
101086
101076
101067
101057
101047
101036
101026
101015
101003
100990
100978
100965
100948
100928
100903
96541.4
88573.7
81990.9
80259.8
101092
101083
101074
101065
101055
101046
101036
101025
101014
101003
100991
100979
100966
100950
100934
100876
93439.6
86311.3
83995.3
101099
101090
101082
101073
101064
101055
101046
101036
101026
101016
101005
100994
100982
100970
100957
100931
96749.9
90329.7
88109.5
101105
101098
101090
101081
101073
101065
101056
101047
101038
101029
101019
101010
101000
100989
100979
100959
98870.1
93667.1
91740.7
101112
101105
101097
101090
101082
101074
101066
101058
101050
101042
101034
101025
101017
101009
101001
100986
100188
96378.9
94832.2
101119
101112
101106
101098
101091
101084
101077
101070
101062
101055
101048
101041
101035
101028
101022
101013
100729
98602.2
97628.3
101126
101120
101114
101107
101101
101094
101087
101081
101075
101068
101063
101057
101052
101047
101043
101038
100878
100143
99932.6
101134
101128
101122
101116
101110
101104
101098
101092
101087
101081
101077
101072
101068
101065
101063
101059
100908
100823
100831
101141
101136
101130
101125
101119
101114
101108
101103
101098
101094
101090
101087
101085
101083
101081
101074
100881
101017
101182
101149
101144
101139
101134
101128
101123
101118
101114
101110
101106
101104
101101
101100
101100
101102
101114
100931
101123
101432
101157
101152
101147
101143
101138
101133
101129
101125
101121
101118
101116
101115
101115
101116
101120
101127
101129
101085
101483
101164
101160
101156
101152
101148
101144
101140
101136
101133
101130
101128
101128
101128
101130
101134
101141
101162
101196
101508
101172
101168
101165
101161
101157
101153
101150
101146
101143
101141
101140
101139
101141
101143
101148
101158
101173
101185
101185
101180
101177
101173
101170
101166
101163
101159
101156
101153
101151
101150
101150
101152
101155
101160
101170
101180
101188
101200
101188
101185
101182
101178
101175
101172
101168
101165
101162
101160
101159
101159
101161
101165
101171
101178
101185
101191
101197
101196
101193
101190
101187
101184
101181
101177
101174
101171
101168
101167
101167
101170
101174
101180
101186
101192
101196
101199
101204
101201
101198
101196
101193
101190
101186
101183
101179
101176
101173
101174
101177
101182
101188
101194
101198
101202
101204
101212
101209
101207
101204
101202
101199
101195
101192
101187
101182
101178
101177
101182
101189
101196
101202
101206
101209
101211
101220
101218
101216
101213
101211
101208
101205
101201
101196
101187
101179
101178
101185
101195
101206
101212
101215
101217
101219
101228
101226
101224
101222
101220
101218
101215
101212
101207
101196
101171
101163
101188
101209
101220
101223
101225
101227
101227
101236
101234
101233
101231
101230
101228
101226
101224
101220
101207
100823
100959
101081
101239
101236
101236
101236
101236
101236
101244
101243
101241
101240
101239
101238
101237
101236
101236
101236
101061
101067
101272
101263
101251
101248
101247
101246
101246
101252
101251
101250
101249
101249
101248
101248
101249
101251
101262
101284
101299
101298
101273
101262
101259
101257
101255
101255
101260
101259
101259
101258
101258
101258
101259
101260
101264
101273
101282
101288
101287
101280
101272
101268
101266
101264
101264
101268
101267
101267
101267
101267
101267
101268
101270
101274
101279
101284
101288
101287
101284
101279
101276
101274
101273
101272
101276
101275
101275
101275
101275
101276
101277
101279
101281
101285
101288
101290
101290
101288
101286
101283
101282
101281
101280
101284
101283
101283
101283
101283
101284
101285
101286
101288
101291
101293
101294
101294
101293
101292
101290
101289
101288
101288
101291
101291
101291
101291
101291
101292
101293
101294
101295
101297
101298
101299
101299
101298
101297
101297
101296
101295
101295
101299
101299
101299
101299
101299
101299
101300
101301
101302
101303
101304
101304
101304
101304
101304
101303
101302
101302
101302
101306
101306
101306
101306
101306
101307
101307
101308
101308
101309
101310
101310
101310
101310
101310
101309
101309
101309
101309
101314
101314
101314
101314
101314
101314
101314
101315
101315
101315
101316
101316
101316
101316
101316
101316
101315
101315
101315
101321
101321
101321
101321
101321
101321
101321
101322
101322
101322
101322
101322
101322
101322
101322
101322
101322
101322
101322
)
;

boundaryField
{
    leftWall
    {
        type            zeroGradient;
    }
    rightWall
    {
        type            zeroGradient;
    }
    lowerWall
    {
        type            zeroGradient;
    }
    atmosphere
    {
        type            fixedValue;
        value           uniform 101325;
    }
    defaultFaces
    {
        type            empty;
    }
}


// ************************************************************************* //
