/*--------------------------------*- C++ -*----------------------------------*\
| =========                 |                                                 |
| \\      /  F ield         | OpenFOAM: The Open Source CFD Toolbox           |
|  \\    /   O peration     | Version:  2012                                  |
|   \\  /    A nd           | Website:  www.openfoam.com                      |
|    \\/     M anipulation  |                                                 |
\*---------------------------------------------------------------------------*/
FoamFile
{
    version     2.0;
    format      ascii;
    class       volScalarField;
    location    "0.35";
    object      rho;
}
// * * * * * * * * * * * * * * * * * * * * * * * * * * * * * * * * * * * * * //

dimensions      [1 -3 0 0 0 0 0];


internalField   nonuniform List<scalar> 
2268
(
1000.05
1000.05
1000.05
1000.05
1000.05
1000.05
1000.05
1000.05
1000.05
1000.05
1000.05
1000.05
1000.05
1000.05
1000.05
1000.05
1000.05
1000.05
1000.05
1000.05
1000.05
1000.05
999.069
1000.05
1000.05
1000.05
1000.05
1000.05
1000.05
1000.05
1000.05
1000.05
1000.05
1000.05
1000.05
1000.05
1000.05
1000.05
1000.05
1000.05
1000.05
1000.05
1000.05
1000.05
1000.05
999.555
1000.05
1000.05
1000.05
1000.05
1000.05
1000.05
1000.05
1000.05
1000.05
1000.05
1000.05
1000.05
1000.05
1000.05
1000.05
1000.05
1000.05
1000.05
1000.05
1000.05
1000.05
1000.05
999.45
1000.05
1000.05
1000.05
1000.05
1000.05
1000.05
1000.05
1000.05
1000.05
1000.05
1000.05
1000.05
1000.05
1000.05
1000.05
1000.05
1000.05
1000.05
1000.05
1000.05
1000.05
1000.05
997.993
1000.05
1000.05
1000.05
1000.05
1000.05
1000.05
1000.05
1000.05
1000.05
1000.05
1000.05
1000.05
1000.05
1000.05
1000.05
1000.05
1000.05
1000.05
1000.05
1000.05
1000.05
1000.05
997.921
1000.05
1000.05
1000.05
1000.05
1000.05
1000.05
1000.05
1000.05
1000.05
1000.05
1000.05
1000.05
1000.05
1000.05
1000.05
1000.05
1000.05
1000.05
1000.05
1000.05
1000.05
1000.05
997.92
1000.05
1000.05
1000.05
1000.05
1000.05
1000.05
1000.05
1000.05
1000.05
1000.05
1000.05
1000.05
1000.05
1000.05
1000.05
1000.05
1000.05
1000.05
1000.05
1000.05
1000.05
1000.05
997.892
1000.05
1000.05
1000.05
1000.05
1000.05
1000.05
1000.05
1000.05
1000.05
1000.05
1000.05
1000.05
1000.05
1000.05
1000.05
1000.05
1000.05
1000.05
1000.05
1000.05
1000.05
1000.05
997.892
1.29001
1.29001
1.29001
1.29001
1.29
1.29
1.28999
1.28999
1.28999
1.28998
1.28998
1.28998
1.28998
1.28998
1.28998
1.28998
1.28998
1.28998
1.28998
1.29001
1.29001
1.29001
1.29001
1.29
1.29
1.28999
1.28999
1.28999
1.28998
1.28998
1.28998
1.28998
1.28998
1.28998
1.28998
1.28998
1.28998
1.28998
1.29001
1.29001
1.29001
1.29001
1.29
1.29
1.28999
1.28999
1.28999
1.28998
1.28998
1.28998
1.28998
1.28997
1.28998
1.28998
1.28998
1.28998
1.28998
1.29001
1.29001
1.29001
1.29001
1.29
1.29
1.28999
1.28999
1.28999
1.28998
1.28998
1.28998
1.28998
1.28997
1.28997
1.28997
1.28998
1.28998
1.28998
1.29001
1.29001
1.29001
1.29001
1.29
1.29
1.28999
1.28999
1.28999
1.28998
1.28998
1.28997
1.28998
1.28997
1.28997
1.28997
1.28998
1.28998
1.28998
1.29001
1.29001
1.29001
1.29001
1.29
1.29
1.28999
1.28999
1.28998
1.28998
1.28998
1.28997
1.28997
1.28997
1.28997
1.28997
1.28997
1.28998
1.28998
1.29001
1.29001
1.29001
1.29001
1.29
1.29
1.28999
1.28999
1.28998
1.28998
1.28998
1.28997
1.28997
1.28997
1.28997
1.28997
1.28997
1.28998
1.28998
1.29001
1.29001
1.29001
1.29001
1.29
1.29
1.28999
1.28999
1.28998
1.28998
1.28998
1.28997
1.28997
1.28997
1.28997
1.28997
1.28997
1.28998
1.28998
1000.05
1000.05
1000.05
1000.05
1000.05
1000.05
1000.05
1000.05
1000.05
1000.05
1000.05
1000.05
1000.05
1000.05
1000.05
1000.05
1000.05
1000.05
1000.05
1000.05
1000.05
1000.05
999.43
1000.05
1000.05
1000.05
1000.05
1000.05
1000.05
1000.05
1000.05
1000.05
1000.05
1000.05
1000.05
1000.05
1000.05
1000.05
1000.05
1000.05
1000.05
1000.05
1000.05
1000.05
1000.05
999.672
1000
999.998
999.985
999.952
999.897
999.804
999.648
999.379
999.017
998.442
997.82
997.009
996.477
995.91
996.417
997.355
999.721
1000.05
1000.05
1000.05
1000.05
1000.05
999.966
947.358
944.108
938.725
927.809
913.639
895.556
872.858
844.222
814.835
779.107
748.217
713.433
692.604
669.443
678.163
697.378
741.524
814.612
911.731
1000.05
1000.05
1000.05
1000.05
311.651
303.98
291.224
268.771
243.19
214.928
184.601
151.995
124.473
94.4819
74.3433
52.0609
41.5408
29.8819
31.0668
37.5234
56.9364
98.2889
181.566
334.33
570.752
823.845
998.251
1.29334
1.29334
1.29333
1.29334
1.29335
1.29334
1.29335
1.29334
1.29333
1.2933
1.29328
1.29328
1.29327
1.29327
1.29327
1.29327
1.29328
1.41881
2.6605
7.72202
29.8884
127.003
325.22
1.29327
1.29327
1.29326
1.29326
1.29326
1.29325
1.29325
1.29325
1.29324
1.29324
1.29325
1.29344
1.29344
1.29332
1.29324
1.29324
1.29327
1.29327
1.29336
1.29502
1.35241
2.64134
10.1348
1.29323
1.29323
1.29323
1.29323
1.29322
1.29322
1.29322
1.29322
1.29322
1.29323
1.29408
1.29553
1.29502
1.29348
1.29322
1.29322
1.29341
1.29429
1.29346
1.29341
1.29346
1.29364
1.30163
1.29322
1.29322
1.29322
1.29322
1.29321
1.29321
1.29322
1.29322
1.29322
1.29384
1.2957
1.2957
1.2951
1.29338
1.29323
1.29322
1.29322
1.3004
1.31898
1.3124
1.29722
1.29355
1.29356
1.29321
1.29321
1.29321
1.29321
1.29321
1.29321
1.29321
1.29321
1.29321
1.2942
1.29568
1.2949
1.2934
1.29324
1.29329
1.29329
1.29322
1.29922
1.32927
1.33366
1.33365
1.33367
1.31668
1.29321
1.29321
1.29321
1.29321
1.29321
1.29321
1.29321
1.29321
1.29321
1.29333
1.29347
1.29321
1.29321
1.29321
1.2933
1.29338
1.29327
1.29321
1.29347
1.29857
1.3039
1.30708
1.30498
1.29321
1.29321
1.29321
1.29321
1.29321
1.29321
1.29321
1.29321
1.29322
1.29321
1.29321
1.29321
1.29321
1.29323
1.29321
1.29321
1.29321
1.29321
1.29321
1.29321
1.29321
1.29321
1.29327
1.29321
1.29321
1.29321
1.29321
1.29321
1.29321
1.29321
1.29321
1.29321
1.29321
1.29321
1.29321
1.29321
1.29321
1.29321
1.29321
1.29321
1.29321
1.29321
1.29321
1.29321
1.29321
1.29321
1.2932
1.2932
1.2932
1.2932
1.29321
1.29321
1.29321
1.29321
1.29321
1.29321
1.29321
1.29321
1.29321
1.29321
1.29321
1.29321
1.29321
1.29321
1.29321
1.29321
1.29321
1.29321
1.29321
1.2932
1.2932
1.2932
1.2932
1.2932
1.2932
1.2932
1.2932
1.2932
1.2932
1.2932
1.2932
1.2932
1.2932
1.2932
1.2932
1.2932
1.2932
1.2932
1.2932
1.2932
1.2932
1.2932
1.2932
1.2932
1.2932
1.2932
1.2932
1.2932
1.2932
1.2932
1.2932
1.2932
1.2932
1.2932
1.2932
1.2932
1.2932
1.2932
1.2932
1.2932
1.2932
1.2932
1.2932
1.2932
1.2932
1.2932
1.2932
1.2932
1.2932
1.2932
1.2932
1.2932
1.2932
1.2932
1.2932
1.2932
1.2932
1.2932
1.2932
1.2932
1.2932
1.2932
1.2932
1.2932
1.2932
1.2932
1.2932
1.2932
1.29319
1.29319
1.29319
1.29319
1.29319
1.29319
1.29319
1.29319
1.29319
1.29319
1.29319
1.29319
1.29319
1.29319
1.29319
1.29319
1.29319
1.29319
1.29319
1.29319
1.29319
1.29319
1.29319
1.29319
1.29319
1.29319
1.29319
1.29319
1.29319
1.29319
1.29319
1.29319
1.29319
1.29319
1.29319
1.29319
1.29319
1.29319
1.29319
1.29319
1.29319
1.29319
1.29319
1.29319
1.29319
1.29319
1.29319
1.29319
1.29319
1.29319
1.29319
1.29319
1.29319
1.29319
1.29319
1.29319
1.29319
1.29319
1.29319
1.29319
1.29319
1.29319
1.29319
1.29319
1.29319
1.29319
1.29319
1.29318
1.29318
1.29319
1.29319
1.29319
1.29319
1.29319
1.29319
1.29319
1.29319
1.29319
1.29319
1.29319
1.29319
1.29319
1.29319
1.29318
1.29318
1.29318
1.29318
1.29318
1.29318
1.29318
1.29318
1.29318
1.29318
1.29318
1.29318
1.29318
1.29318
1.29318
1.29318
1.29318
1.29318
1.29318
1.29318
1.29318
1.29318
1.29318
1.29318
1.29318
1.29318
1.29318
1.29318
1.29318
1.29318
1.29318
1.29317
1.29318
1.29318
1.29318
1.29318
1.29318
1.29318
1.29318
1.29318
1.29318
1.29318
1.29318
1.29318
1.29318
1.29318
1.29318
1.29318
1.29318
1.29318
1.29318
1.29318
1.29317
1.29317
1.29317
1.29318
1.29318
1.29318
1.29318
1.29318
1.29318
1.29318
1.29318
1.29318
1.29318
1.29318
1.29318
1.29318
1.29318
1.29318
1.29318
1.29317
1.29317
1.29317
1.29317
1.29317
1.29317
1.29317
1.29317
1.29317
1.29317
1.29317
1.29317
1.29317
1.29317
1.29317
1.29317
1.29317
1.29317
1.29317
1.29317
1.29317
1.29317
1.29317
1.29317
1.29317
1.29317
1.29317
1.29317
1.29317
1.29316
1.29317
1.29317
1.29317
1.29317
1.29317
1.29317
1.29317
1.29317
1.29317
1.29317
1.29317
1.29317
1.29317
1.29317
1.29317
1.29317
1.29317
1.29317
1.29317
1.29317
1.29316
1.29316
1.29316
1.29316
1.29316
1.29316
1.29316
1.29316
1.29316
1.29316
1.29316
1.29316
1.29317
1.29317
1.29317
1.29317
1.29317
1.29317
1.29317
1.29316
1.29316
1.29316
1.29316
1.29316
1.29316
1.29316
1.29316
1.29316
1.29316
1.29316
1.29316
1.29316
1.29316
1.29316
1.29316
1.29316
1.29316
1.29316
1.29316
1.29316
1.29316
1.29316
1.29316
1.29316
1.29316
1.29316
1.29316
1.29316
1.29315
1.29315
1.29315
1.29315
1.29315
1.29315
1.29315
1.29315
1.29315
1.29315
1.29315
1.29315
1.29316
1.29316
1.29316
1.29316
1.29316
1.29316
1.29316
1.29316
1.29316
1.29315
1.29315
1.29315
1.29314
1.29314
1.29314
1.29314
1.29314
1.29314
1.29314
1.29314
1.29314
1.29314
1.29315
1.29315
1.29315
1.29315
1.29315
1.29315
1.29315
1.29315
1.29315
1.29315
1.29315
1.29315
1.29315
1.29312
1.29312
1.29312
1.29312
1.29312
1.29312
1.29313
1.29313
1.29313
1.29313
1.29313
1.29314
1.29314
1.29314
1.29314
1.29315
1.29315
1.29315
1.29315
1.29315
1.29315
1.29315
1.29315
1.29311
1.29311
1.29311
1.29311
1.29311
1.29311
1.29311
1.29311
1.29311
1.29312
1.29312
1.29312
1.29313
1.29313
1.29313
1.29314
1.29314
1.29314
1.29315
1.29315
1.29315
1.29315
1.29314
1.29309
1.29309
1.29309
1.29309
1.29309
1.29309
1.29309
1.2931
1.2931
1.2931
1.2931
1.2931
1.29311
1.29311
1.29312
1.29312
1.29313
1.29313
1.29314
1.29314
1.29314
1.29314
1.29314
1.29308
1.29308
1.29308
1.29308
1.29308
1.29308
1.29308
1.29308
1.29309
1.29309
1.29309
1.29309
1.29309
1.2931
1.2931
1.29311
1.29311
1.29312
1.29313
1.29314
1.29314
1.29314
1.29314
1.29307
1.29307
1.29307
1.29307
1.29307
1.29307
1.29307
1.29307
1.29307
1.29308
1.29308
1.29308
1.29308
1.29308
1.29309
1.29309
1.2931
1.2931
1.29311
1.29312
1.29313
1.29314
1.29314
1.29306
1.29306
1.29306
1.29306
1.29306
1.29306
1.29306
1.29307
1.29307
1.29307
1.29307
1.29307
1.29307
1.29307
1.29308
1.29308
1.29308
1.29309
1.2931
1.29311
1.29312
1.29313
1.29314
1.29306
1.29306
1.29306
1.29306
1.29306
1.29306
1.29306
1.29306
1.29306
1.29306
1.29306
1.29306
1.29306
1.29306
1.29307
1.29307
1.29307
1.29308
1.29308
1.29309
1.2931
1.29312
1.29313
1.29305
1.29305
1.29305
1.29305
1.29305
1.29305
1.29305
1.29305
1.29305
1.29305
1.29306
1.29306
1.29306
1.29306
1.29306
1.29306
1.29307
1.29307
1.29308
1.29308
1.29309
1.29311
1.29312
1.29305
1.29305
1.29305
1.29305
1.29305
1.29305
1.29305
1.29305
1.29305
1.29305
1.29305
1.29305
1.29305
1.29305
1.29306
1.29306
1.29306
1.29307
1.29307
1.29308
1.29308
1.29309
1.29311
1.29305
1.29305
1.29305
1.29305
1.29305
1.29305
1.29305
1.29305
1.29305
1.29305
1.29305
1.29305
1.29305
1.29305
1.29305
1.29306
1.29306
1.29306
1.29307
1.29307
1.29308
1.29309
1.2931
1.29304
1.29304
1.29304
1.29304
1.29304
1.29304
1.29304
1.29304
1.29304
1.29304
1.29304
1.29304
1.29304
1.29305
1.29305
1.29305
1.29305
1.29305
1.29306
1.29306
1.29307
1.29308
1.29308
1.29304
1.29304
1.29304
1.29304
1.29304
1.29304
1.29304
1.29304
1.29304
1.29304
1.29304
1.29304
1.29304
1.29304
1.29304
1.29304
1.29305
1.29305
1.29305
1.29306
1.29306
1.29307
1.29308
999.756
1000.02
505.479
6.06016
999.745
1000.02
973.079
720.434
999.89
999.966
998.704
1000.05
1000.05
1000.03
1000.04
1000.05
1000.05
1000.05
1000.05
1000.05
509.522
647.472
795.412
893.65
20.1396
44.9961
93.4238
161.14
1.32551
1.42844
1.84262
3.01174
1.29358
1.29389
1.29497
1.29772
1.29549
1.29323
1.29323
1.29323
1.29802
1.29322
1.29321
1.29321
1.29335
1.29333
1.29323
1.29321
1.29321
1.29321
1.29321
1.29321
1.29321
1.2932
1.2932
1.2932
1.2932
1.2932
1.2932
1.2932
1.2932
1.2932
1.2932
1.2932
1.2932
1.29319
1.29319
1.29319
1.29319
1.29319
1.29319
1.29319
1.29319
1.29319
1.29318
1.29318
1.29318
1.29318
1.29318
1.29318
1.29318
1.29317
1.29317
1.29317
1.29317
1.29317
1.29317
1.29317
1.29317
1.29317
1.29316
1.29316
1.29316
1.29316
1.29316
1.29316
1.29316
1.29316
1.29316
1.29316
1.29316
1.29316
1.29316
1.29315
1.29315
1.29315
1.29315
1.29315
1.29315
1.29315
1.29315
1.29315
1.29315
1.29315
1.29315
1.29314
1.29315
1.29314
1.29314
1.29314
1.29314
1.29314
1.29314
1.29314
1.29314
1.29314
1.29314
1.29314
1.29314
1.29314
1.29314
1.29313
1.29314
1.29314
1.29314
1.29313
1.29314
1.29314
1.29313
1.29313
1.29314
1.29314
1.29314
1.29313
1.29313
1.29313
1.29313
1.29313
1.29313
1.29313
1.29314
1.29314
1.29312
1.29312
1.29313
1.29313
1.29311
1.29312
1.29312
1.29313
1.29309
1.2931
1.2931
1.29311
1.29309
1.29309
1.2931
1.2931
1.29
1.29002
1.29001
1.29001
1.29
1.28999
1.28999
1.28999
1.28998
1.28998
1.28998
1.28997
1.28997
1.28996
1.28997
1.28996
1.28997
1.28998
1.28999
55.901
1.28551
1.28975
1.29107
1.29012
1.29001
1.29
1.28999
1.28998
1.28997
1.28998
1.28997
1.28997
1.28996
1.28997
1.28996
1.28997
1.28999
1.29002
743.056
345.643
122.33
8.0099
1.28689
1.28588
1.28872
1.29049
1.29
1.29001
1.29007
1.28998
1.29004
1.29006
1.29
1.28998
1.29
1.29004
1.28995
993.545
953.585
839.201
658.21
520.386
377.098
180.293
52.0903
1.28619
1.28704
1.2917
1.29043
1.29008
1.2909
1.29129
1.29054
1.29008
1.28992
1.28892
1000.05
999.968
998.79
994.48
988.796
968.768
889.606
767.266
618.204
401.331
147.666
1.28746
1.28813
1.29083
1.29266
1.29616
1.30157
1.28947
1.28646
979.38
1000.05
1000.05
1000.05
1000.05
1000.05
1000.05
1000.05
996.926
972.249
889.186
691.743
352.901
15.0639
1.28948
1.29269
1.31729
1.29303
1.28564
309.932
520.078
642.189
728.893
789.206
843.688
897.079
943.157
994.678
1000.01
1000.01
999.595
960.596
775.306
361.622
13.4164
1.31662
1.56043
1.39853
7.89687
18.0472
38.6645
69.8926
107.474
152.774
217.683
305.837
409.417
557.534
742.519
957.15
999.966
999.966
957.074
651.532
124.695
13.5317
11.5786
1.30201
1.30746
1.32595
1.4021
1.59979
2.05193
3.25846
6.19399
11.6843
26.3871
85.2709
241.694
551.888
957.405
980.654
980.757
717.418
176.28
37.5422
1.29323
1.29323
1.29323
1.29323
1.29327
1.2933
1.29337
1.2939
1.29713
1.32562
1.88142
5.10293
22.6781
260.594
808.929
980.654
938.739
530.307
100.739
1.29321
1.29321
1.29321
1.29321
1.29321
1.29327
1.29327
1.29324
1.29323
1.29323
1.29323
1.29666
2.06167
1.29326
288.675
876.275
935.97
743.641
214.745
1.29321
1.29321
1.29321
1.29321
1.29321
1.29323
1.29325
1.29324
1.29322
1.29323
1.29323
1.29326
1.29335
1.29328
1.29337
566.309
929.709
836.449
268.009
1.29321
1.2932
1.2932
1.2932
1.2932
1.29321
1.29321
1.29322
1.29322
1.29323
1.29323
1.29324
1.29325
1.2933
1.29333
304.514
907.15
857.002
261.645
1.2932
1.2932
1.2932
1.2932
1.2932
1.29321
1.29321
1.29321
1.29322
1.29323
1.29323
1.29324
1.29324
1.29328
1.29334
159.427
827.352
810.911
261.642
1.2932
1.2932
1.2932
1.2932
1.2932
1.2932
1.2932
1.29321
1.29321
1.29323
1.29323
1.29324
1.29324
1.29327
1.3051
69.3276
757.059
810.908
281.608
1.2932
1.2932
1.2932
1.2932
1.2932
1.2932
1.2932
1.2932
1.29321
1.29322
1.29323
1.29324
1.29323
1.29326
1.31097
38.5384
646.911
811.05
353.613
1.29319
1.29319
1.2932
1.29335
1.2934
1.29332
1.29321
1.29319
1.2932
1.29321
1.29322
1.29323
1.29321
1.29324
1.29325
55.2941
503.869
674.154
293.226
1.29319
1.29319
1.2932
1.29337
1.29355
1.29354
1.29342
1.29319
1.29318
1.29319
1.29321
1.29322
1.29321
1.29322
1.29327
67.8984
642.463
395.566
108.976
1.29318
1.2932
1.29318
1.29315
1.2934
1.29463
1.29312
1.29312
1.29314
1.29316
1.29318
1.2932
1.2932
1.2932
1.29326
196.821
642.477
508.807
108.935
1.29318
1.29327
1.29318
1.29312
1.30459
1.32128
1.38085
1.36396
1.30143
1.29379
1.29316
1.29318
1.29319
1.29319
1.29326
76.2328
624.425
651.409
163.395
1.29317
1.2947
1.29335
1.2931
1.40936
1.45711
1.45708
1.45707
1.40128
1.29827
1.29314
1.29315
1.29317
1.29317
1.29324
1.29329
247.527
651.902
254.207
1.29316
1.29484
1.29333
1.37535
1.45714
1.4571
1.45707
1.45704
1.39558
1.29587
1.29315
1.29327
1.29323
1.29318
1.29325
2.36036
10.5036
224.687
254.269
1.29316
1.29392
1.29887
1.40343
1.39838
1.34015
1.33228
1.32913
1.31198
1.29393
1.29317
1.2935
1.29354
1.29317
1.37185
2.37051
1.89402
1.71522
176.34
1.29315
1.29313
1.31375
1.38542
1.2961
1.30255
1.33721
1.31606
1.29312
1.29314
1.29316
1.29337
1.29336
1.29317
1.59657
1.67564
1.38266
1.29355
25.2633
1.29315
1.29313
1.31987
1.32462
1.29611
1.32493
1.35275
1.35273
1.32138
1.29361
1.29313
1.29314
1.29317
1.29318
1.48727
1.38273
1.30859
1.29361
1.3588
1.29315
1.29339
1.2942
1.29344
1.29353
1.30337
1.33097
1.33595
1.31543
1.30486
1.30341
1.29922
1.29715
1.3141
1.31598
1.29911
1.29463
1.29345
1.29193
1.29315
1.29315
1.29313
1.29353
1.29326
1.29345
1.29403
1.29496
1.29445
1.29693
1.29806
1.29806
1.29998
1.30901
1.29422
1.29326
1.29327
1.2932
1.29194
1.29314
1.29314
1.29337
1.3008
1.29609
1.29313
1.29314
1.29315
1.2932
1.29324
1.29325
1.29346
1.29443
1.29383
1.29384
1.30661
1.29554
1.29311
1.29197
1.29314
1.29313
1.29336
1.29823
1.30342
1.29473
1.29312
1.29313
1.29319
1.29333
1.29346
1.29342
1.29332
1.53715
1.55482
1.31567
1.29373
1.29308
1.292
1.29314
1.29313
1.29313
1.29311
1.29925
1.31434
1.29942
1.29337
1.29318
4.88869
169.468
358.301
143.602
9.14806
1.42819
1.29696
1.29315
1.29304
1.29203
1.29314
1.29313
1.29312
1.29311
1.29495
1.31445
1.31447
1.29622
1.29318
67.9866
463.344
472.447
404.19
49.2172
1.37727
1.2934
1.29305
1.29301
1.29207
1.29314
1.29313
1.29312
1.29311
1.29515
1.31028
1.31271
1.29545
1.29316
49.9711
371.932
472.421
327.164
29.9014
1.32899
1.293
1.29296
1.29295
1.29209
1.29313
1.29313
1.29312
1.29311
1.29309
1.29304
1.30035
1.29455
1.29309
10.2734
81.0399
139.044
64.9373
9.04072
1.36147
1.29296
1.29287
1.29289
1.29211
1.29313
1.29313
1.29312
1.29311
1.2931
1.2934
1.30682
1.30884
1.47337
1.66271
1.82433
1.98316
1.62405
1.6035
1.36682
1.29312
1.2927
1.29277
1.29214
1.29313
1.29313
1.29312
1.29311
1.2931
1.29313
1.29313
1.30255
1.3523
1.29633
1.29295
1.29286
1.29291
1.29297
1.29603
1.2939
1.29273
1.29261
1.29209
1.29313
1.29313
1.29312
1.29312
1.29311
1.2931
1.29308
1.29304
1.29301
1.29298
1.29297
1.29299
1.29298
1.29293
1.29356
1.29956
1.29238
1.29248
1.29199
1.29313
1.29313
1.29312
1.29312
1.29311
1.2931
1.29309
1.29307
1.29306
1.29304
1.29304
1.29303
1.29301
1.29292
1.29539
1.3063
1.29393
1.29239
1.29192
1.29313
1.29313
1.29313
1.29312
1.29312
1.29311
1.29311
1.2931
1.29308
1.29307
1.29307
1.29305
1.29302
1.29294
1.29525
1.30678
1.30537
1.29228
1.29191
1.29313
1.29313
1.29313
1.29312
1.29312
1.29312
1.29311
1.29311
1.2931
1.29309
1.29308
1.29307
1.29305
1.293
1.29343
1.30355
1.30709
1.29841
1.29197
1.29313
1.29314
1.29313
1.29313
1.29313
1.29312
1.29312
1.29312
1.29311
1.29311
1.2931
1.29309
1.29307
1.29305
1.29303
1.29551
1.30693
1.30681
1.30404
1.29312
1.29313
1.29313
1.29313
1.29312
1.29312
1.29312
1.29312
1.29311
1.29311
1.29311
1.2931
1.29309
1.29309
1.29307
1.29315
1.29565
1.30113
1.29705
1.29311
1.29312
1.29312
1.29312
1.29311
1.29311
1.2931
1.2931
1.2931
1.29309
1.29309
1.29309
1.29309
1.2931
1.29311
1.2931
1.29303
1.293
1.29278
)
;

boundaryField
{
    leftWall
    {
        type            calculated;
        value           nonuniform List<scalar> 
50
(
1000.05
1000.05
1000.05
1000.05
1000.05
1000.05
1000.05
1000.05
1000.05
1000.05
1000
947.358
311.651
1.29334
1.29327
1.29323
1.29322
1.29321
1.29321
1.29321
1.29321
1.2932
1.2932
1.2932
1.2932
1.29319
1.29319
1.29319
1.29319
1.29318
1.29318
1.29318
1.29317
1.29317
1.29316
1.29316
1.29315
1.29314
1.29312
1.29311
1.29309
1.29308
1.29307
1.29306
1.29306
1.29305
1.29305
1.29305
1.29304
1.29304
)
;
    }
    rightWall
    {
        type            calculated;
        value           nonuniform List<scalar> 
50
(
1.28998
1.28998
1.28998
1.28998
1.28998
1.28998
1.28998
1.28998
1.28999
1.29002
1.28995
1.28892
1.28646
1.28564
1.39853
11.5786
37.5422
100.739
214.745
268.009
261.645
261.642
281.608
353.613
293.226
108.976
108.935
163.395
254.207
254.269
176.34
25.2633
1.3588
1.29193
1.29194
1.29197
1.292
1.29203
1.29207
1.29209
1.29211
1.29214
1.29209
1.29199
1.29192
1.29191
1.29197
1.30404
1.29705
1.29278
)
;
    }
    lowerWall
    {
        type            calculated;
        value           nonuniform List<scalar> 
62
(
1000.05
1000.05
1000.05
1000.05
1000.05
1000.05
1000.05
1000.05
1000.05
1000.05
1000.05
1000.05
1000.05
1000.05
1000.05
1000.05
1000.05
1000.05
1000.05
1000.05
1000.05
1000.05
999.069
999.069
999.555
999.45
997.993
997.921
997.92
997.892
997.892
999.756
1000.02
505.479
6.06016
1.29001
1.29001
1.29001
1.29001
1.29001
1.29001
1.29001
1.29001
1.29001
1.29001
1.29001
1.29001
1.29
1.29
1.28999
1.28999
1.28999
1.28998
1.28998
1.28998
1.28998
1.28998
1.28998
1.28998
1.28998
1.28998
1.28998
)
;
    }
    atmosphere
    {
        type            calculated;
        value           nonuniform List<scalar> 
46
(
1.29313
1.29313
1.29313
1.29313
1.29313
1.29313
1.29313
1.29313
1.29313
1.29313
1.29313
1.29313
1.29313
1.29313
1.29313
1.29314
1.29314
1.29314
1.29315
1.29315
1.29316
1.29316
1.29317
1.29318
1.29318
1.29319
1.29319
1.2932
1.29321
1.29321
1.29321
1.2932
1.2932
1.2932
1.2932
1.29319
1.29319
1.29319
1.29319
1.29319
1.2932
1.29321
1.2932
1.29313
1.29312
1.29292
)
;
    }
    defaultFaces
    {
        type            empty;
    }
}


// ************************************************************************* //
