/*--------------------------------*- C++ -*----------------------------------*\
| =========                 |                                                 |
| \\      /  F ield         | OpenFOAM: The Open Source CFD Toolbox           |
|  \\    /   O peration     | Version:  2012                                  |
|   \\  /    A nd           | Website:  www.openfoam.com                      |
|    \\/     M anipulation  |                                                 |
\*---------------------------------------------------------------------------*/
FoamFile
{
    version     2.0;
    format      ascii;
    class       volScalarField;
    location    "0.35";
    object      rho2;
}
// * * * * * * * * * * * * * * * * * * * * * * * * * * * * * * * * * * * * * //

dimensions      [1 -3 0 0 0 0 0];


internalField   nonuniform List<scalar> 
2268
(
1.30676
1.30675
1.30672
1.30669
1.30662
1.30658
1.30649
1.30645
1.30636
1.30632
1.30628
1.30619
1.30624
1.30618
1.30633
1.3063
1.30656
1.30659
1.30701
1.30708
1.30759
1.30768
1.30799
1.306
1.30599
1.30596
1.30593
1.30587
1.30582
1.30573
1.30569
1.3056
1.30556
1.30552
1.30543
1.30548
1.30543
1.30558
1.30555
1.30582
1.30586
1.30629
1.30637
1.30689
1.30698
1.30729
1.30524
1.30523
1.30519
1.30516
1.3051
1.30506
1.30497
1.30492
1.30483
1.30479
1.30475
1.30466
1.30471
1.30465
1.30479
1.30475
1.305
1.30501
1.3054
1.30541
1.30591
1.30592
1.30625
1.30446
1.30445
1.30442
1.30439
1.30432
1.30428
1.30419
1.30415
1.30406
1.30401
1.30397
1.30389
1.30394
1.30389
1.30403
1.30402
1.30429
1.30431
1.30474
1.30479
1.30533
1.30539
1.30562
1.30368
1.30367
1.30364
1.30361
1.30354
1.3035
1.30341
1.30336
1.30327
1.30323
1.30318
1.30311
1.30314
1.30308
1.3032
1.30317
1.30341
1.30336
1.30372
1.30359
1.30405
1.30382
1.30421
1.30289
1.30288
1.30284
1.30281
1.30275
1.3027
1.30262
1.30257
1.30248
1.30243
1.30238
1.30232
1.30235
1.3023
1.30244
1.30243
1.3027
1.30268
1.30311
1.30307
1.30361
1.30357
1.30378
1.30209
1.30208
1.30205
1.30202
1.30196
1.30191
1.30182
1.30177
1.30168
1.30163
1.30157
1.30151
1.30153
1.30147
1.30159
1.30155
1.30176
1.30166
1.30199
1.30164
1.30201
1.30123
1.30147
1.30129
1.30127
1.30124
1.30121
1.30114
1.30109
1.30101
1.30095
1.30087
1.30081
1.30075
1.3007
1.30072
1.30067
1.30081
1.3008
1.30104
1.30098
1.30138
1.30117
1.30167
1.30131
1.30156
1.29001
1.29001
1.29001
1.29001
1.29
1.29
1.28999
1.28999
1.28999
1.28998
1.28998
1.28998
1.28998
1.28998
1.28998
1.28998
1.28998
1.28998
1.28998
1.29001
1.29001
1.29001
1.29001
1.29
1.29
1.28999
1.28999
1.28999
1.28998
1.28998
1.28998
1.28998
1.28998
1.28998
1.28998
1.28998
1.28998
1.28998
1.29001
1.29001
1.29001
1.29001
1.29
1.29
1.28999
1.28999
1.28999
1.28998
1.28998
1.28998
1.28998
1.28997
1.28998
1.28998
1.28998
1.28998
1.28998
1.29001
1.29001
1.29001
1.29001
1.29
1.29
1.28999
1.28999
1.28999
1.28998
1.28998
1.28998
1.28998
1.28997
1.28997
1.28997
1.28998
1.28998
1.28998
1.29001
1.29001
1.29001
1.29001
1.29
1.29
1.28999
1.28999
1.28999
1.28998
1.28998
1.28997
1.28998
1.28997
1.28997
1.28997
1.28998
1.28998
1.28998
1.29001
1.29001
1.29001
1.29001
1.29
1.29
1.28999
1.28999
1.28998
1.28998
1.28998
1.28997
1.28997
1.28997
1.28997
1.28997
1.28997
1.28998
1.28998
1.29001
1.29001
1.29001
1.29001
1.29
1.29
1.28999
1.28999
1.28998
1.28998
1.28998
1.28997
1.28997
1.28997
1.28997
1.28997
1.28997
1.28998
1.28998
1.29001
1.29001
1.29001
1.29001
1.29
1.29
1.28999
1.28999
1.28998
1.28998
1.28998
1.28997
1.28997
1.28997
1.28997
1.28997
1.28997
1.28998
1.28998
1.30002
1.30001
1.29998
1.29994
1.29988
1.29982
1.29974
1.29968
1.2996
1.29953
1.29946
1.29941
1.29941
1.29935
1.29944
1.29937
1.29955
1.29933
1.29956
1.29875
1.29885
1.29592
1.2947
1.29825
1.29823
1.2982
1.29816
1.29809
1.29803
1.29795
1.29787
1.29778
1.2977
1.29764
1.29759
1.29758
1.29755
1.29767
1.29764
1.29792
1.29783
1.29828
1.29782
1.29833
1.29669
1.29683
1.29648
1.29646
1.29643
1.29638
1.29632
1.29625
1.29617
1.29609
1.29601
1.29592
1.29586
1.29578
1.29575
1.29572
1.29578
1.29576
1.29595
1.2958
1.29604
1.29552
1.29551
1.29393
1.29363
1.29472
1.29471
1.29468
1.29463
1.29457
1.29451
1.29443
1.29434
1.29426
1.29417
1.2941
1.29403
1.29399
1.29395
1.29396
1.29399
1.2941
1.29424
1.29452
1.29463
1.29481
1.29435
1.2941
1.29362
1.29361
1.2936
1.29359
1.29357
1.29355
1.29353
1.2935
1.29346
1.29343
1.2934
1.29338
1.29337
1.29336
1.29336
1.29337
1.29339
1.29342
1.29349
1.29356
1.29358
1.29331
1.29298
1.29334
1.29334
1.29333
1.29334
1.29335
1.29334
1.29335
1.29334
1.29333
1.2933
1.29328
1.29328
1.29327
1.29327
1.29327
1.29327
1.29328
1.2933
1.29332
1.29333
1.29336
1.29344
1.29357
1.29327
1.29327
1.29326
1.29326
1.29326
1.29325
1.29325
1.29325
1.29324
1.29324
1.29323
1.29323
1.29323
1.29323
1.29323
1.29323
1.29323
1.29323
1.29325
1.29327
1.29329
1.29331
1.29332
1.29323
1.29323
1.29323
1.29323
1.29322
1.29322
1.29322
1.29322
1.29322
1.29322
1.29322
1.29322
1.29322
1.29322
1.29322
1.29322
1.29322
1.29322
1.29322
1.29323
1.29326
1.29328
1.29329
1.29322
1.29322
1.29322
1.29322
1.29321
1.29321
1.29321
1.29322
1.29322
1.29322
1.29322
1.29322
1.29322
1.29322
1.29322
1.29322
1.29322
1.29321
1.29321
1.29322
1.29322
1.29324
1.29325
1.29321
1.29321
1.29321
1.29321
1.29321
1.29321
1.29321
1.29321
1.29321
1.29321
1.29322
1.29322
1.29322
1.29322
1.29322
1.29322
1.29321
1.29321
1.29321
1.29321
1.29321
1.29322
1.29322
1.29321
1.29321
1.29321
1.29321
1.29321
1.29321
1.29321
1.29321
1.29321
1.29321
1.29321
1.29321
1.29321
1.29321
1.29321
1.29321
1.29321
1.29321
1.29321
1.29321
1.29321
1.29321
1.29321
1.29321
1.29321
1.29321
1.29321
1.29321
1.29321
1.29321
1.29321
1.29321
1.29321
1.29321
1.29321
1.29321
1.29321
1.29321
1.29321
1.29321
1.29321
1.29321
1.29321
1.29321
1.29321
1.29321
1.29321
1.29321
1.29321
1.29321
1.29321
1.29321
1.29321
1.29321
1.29321
1.29321
1.29321
1.29321
1.29321
1.29321
1.29321
1.29321
1.29321
1.29321
1.29321
1.29321
1.29321
1.29321
1.29321
1.2932
1.2932
1.2932
1.2932
1.29321
1.29321
1.29321
1.29321
1.29321
1.29321
1.29321
1.29321
1.29321
1.29321
1.29321
1.29321
1.29321
1.29321
1.29321
1.29321
1.29321
1.29321
1.29321
1.2932
1.2932
1.2932
1.2932
1.2932
1.2932
1.2932
1.2932
1.2932
1.2932
1.2932
1.2932
1.2932
1.2932
1.2932
1.2932
1.2932
1.2932
1.2932
1.2932
1.2932
1.2932
1.2932
1.2932
1.2932
1.2932
1.2932
1.2932
1.2932
1.2932
1.2932
1.2932
1.2932
1.2932
1.2932
1.2932
1.2932
1.2932
1.2932
1.2932
1.2932
1.2932
1.2932
1.2932
1.2932
1.2932
1.2932
1.2932
1.2932
1.2932
1.2932
1.2932
1.2932
1.2932
1.2932
1.2932
1.2932
1.2932
1.2932
1.2932
1.2932
1.2932
1.2932
1.2932
1.2932
1.2932
1.2932
1.2932
1.2932
1.29319
1.29319
1.29319
1.29319
1.29319
1.29319
1.29319
1.29319
1.29319
1.29319
1.29319
1.29319
1.29319
1.29319
1.29319
1.29319
1.29319
1.29319
1.29319
1.29319
1.29319
1.29319
1.29319
1.29319
1.29319
1.29319
1.29319
1.29319
1.29319
1.29319
1.29319
1.29319
1.29319
1.29319
1.29319
1.29319
1.29319
1.29319
1.29319
1.29319
1.29319
1.29319
1.29319
1.29319
1.29319
1.29319
1.29319
1.29319
1.29319
1.29319
1.29319
1.29319
1.29319
1.29319
1.29319
1.29319
1.29319
1.29319
1.29319
1.29319
1.29319
1.29319
1.29319
1.29319
1.29319
1.29319
1.29319
1.29318
1.29318
1.29319
1.29319
1.29319
1.29319
1.29319
1.29319
1.29319
1.29319
1.29319
1.29319
1.29319
1.29319
1.29319
1.29319
1.29318
1.29318
1.29318
1.29318
1.29318
1.29318
1.29318
1.29318
1.29318
1.29318
1.29318
1.29318
1.29318
1.29318
1.29318
1.29318
1.29318
1.29318
1.29318
1.29318
1.29318
1.29318
1.29318
1.29318
1.29318
1.29318
1.29318
1.29318
1.29318
1.29318
1.29318
1.29317
1.29318
1.29318
1.29318
1.29318
1.29318
1.29318
1.29318
1.29318
1.29318
1.29318
1.29318
1.29318
1.29318
1.29318
1.29318
1.29318
1.29318
1.29318
1.29318
1.29318
1.29317
1.29317
1.29317
1.29318
1.29318
1.29318
1.29318
1.29318
1.29318
1.29318
1.29318
1.29318
1.29318
1.29318
1.29318
1.29318
1.29318
1.29318
1.29318
1.29317
1.29317
1.29317
1.29317
1.29317
1.29317
1.29317
1.29317
1.29317
1.29317
1.29317
1.29317
1.29317
1.29317
1.29317
1.29317
1.29317
1.29317
1.29317
1.29317
1.29317
1.29317
1.29317
1.29317
1.29317
1.29317
1.29317
1.29317
1.29317
1.29316
1.29317
1.29317
1.29317
1.29317
1.29317
1.29317
1.29317
1.29317
1.29317
1.29317
1.29317
1.29317
1.29317
1.29317
1.29317
1.29317
1.29317
1.29317
1.29317
1.29317
1.29316
1.29316
1.29316
1.29316
1.29316
1.29316
1.29316
1.29316
1.29316
1.29316
1.29316
1.29316
1.29317
1.29317
1.29317
1.29317
1.29317
1.29317
1.29317
1.29316
1.29316
1.29316
1.29316
1.29316
1.29316
1.29316
1.29316
1.29316
1.29316
1.29316
1.29316
1.29316
1.29316
1.29316
1.29316
1.29316
1.29316
1.29316
1.29316
1.29316
1.29316
1.29316
1.29316
1.29316
1.29316
1.29316
1.29316
1.29316
1.29315
1.29315
1.29315
1.29315
1.29315
1.29315
1.29315
1.29315
1.29315
1.29315
1.29315
1.29315
1.29316
1.29316
1.29316
1.29316
1.29316
1.29316
1.29316
1.29316
1.29316
1.29315
1.29315
1.29315
1.29314
1.29314
1.29314
1.29314
1.29314
1.29314
1.29314
1.29314
1.29314
1.29314
1.29315
1.29315
1.29315
1.29315
1.29315
1.29315
1.29315
1.29315
1.29315
1.29315
1.29315
1.29315
1.29315
1.29312
1.29312
1.29312
1.29312
1.29312
1.29312
1.29313
1.29313
1.29313
1.29313
1.29313
1.29314
1.29314
1.29314
1.29314
1.29315
1.29315
1.29315
1.29315
1.29315
1.29315
1.29315
1.29315
1.29311
1.29311
1.29311
1.29311
1.29311
1.29311
1.29311
1.29311
1.29311
1.29312
1.29312
1.29312
1.29313
1.29313
1.29313
1.29314
1.29314
1.29314
1.29315
1.29315
1.29315
1.29315
1.29314
1.29309
1.29309
1.29309
1.29309
1.29309
1.29309
1.29309
1.2931
1.2931
1.2931
1.2931
1.2931
1.29311
1.29311
1.29312
1.29312
1.29313
1.29313
1.29314
1.29314
1.29314
1.29314
1.29314
1.29308
1.29308
1.29308
1.29308
1.29308
1.29308
1.29308
1.29308
1.29309
1.29309
1.29309
1.29309
1.29309
1.2931
1.2931
1.29311
1.29311
1.29312
1.29313
1.29314
1.29314
1.29314
1.29314
1.29307
1.29307
1.29307
1.29307
1.29307
1.29307
1.29307
1.29307
1.29307
1.29308
1.29308
1.29308
1.29308
1.29308
1.29309
1.29309
1.2931
1.2931
1.29311
1.29312
1.29313
1.29314
1.29314
1.29306
1.29306
1.29306
1.29306
1.29306
1.29306
1.29306
1.29307
1.29307
1.29307
1.29307
1.29307
1.29307
1.29307
1.29308
1.29308
1.29308
1.29309
1.2931
1.29311
1.29312
1.29313
1.29314
1.29306
1.29306
1.29306
1.29306
1.29306
1.29306
1.29306
1.29306
1.29306
1.29306
1.29306
1.29306
1.29306
1.29306
1.29307
1.29307
1.29307
1.29308
1.29308
1.29309
1.2931
1.29312
1.29313
1.29305
1.29305
1.29305
1.29305
1.29305
1.29305
1.29305
1.29305
1.29305
1.29305
1.29306
1.29306
1.29306
1.29306
1.29306
1.29306
1.29307
1.29307
1.29308
1.29308
1.29309
1.29311
1.29312
1.29305
1.29305
1.29305
1.29305
1.29305
1.29305
1.29305
1.29305
1.29305
1.29305
1.29305
1.29305
1.29305
1.29305
1.29306
1.29306
1.29306
1.29307
1.29307
1.29308
1.29308
1.29309
1.29311
1.29305
1.29305
1.29305
1.29305
1.29305
1.29305
1.29305
1.29305
1.29305
1.29305
1.29305
1.29305
1.29305
1.29305
1.29305
1.29306
1.29306
1.29306
1.29307
1.29307
1.29308
1.29309
1.2931
1.29304
1.29304
1.29304
1.29304
1.29304
1.29304
1.29304
1.29304
1.29304
1.29304
1.29304
1.29304
1.29304
1.29305
1.29305
1.29305
1.29305
1.29305
1.29306
1.29306
1.29307
1.29308
1.29308
1.29304
1.29304
1.29304
1.29304
1.29304
1.29304
1.29304
1.29304
1.29304
1.29304
1.29304
1.29304
1.29304
1.29304
1.29304
1.29304
1.29305
1.29305
1.29305
1.29306
1.29306
1.29307
1.29308
1.28591
1.29005
1.28728
1.29046
1.29265
1.29191
1.28915
1.28822
1.29087
1.29109
1.29004
1.28992
1.29279
1.29263
1.29176
1.29139
1.29227
1.29221
1.29174
1.29169
1.29361
1.29353
1.29329
1.29311
1.29332
1.29332
1.29334
1.29339
1.29328
1.29327
1.29327
1.29327
1.29326
1.29326
1.29326
1.29326
1.29322
1.29322
1.29323
1.29323
1.29321
1.29321
1.29321
1.29321
1.29321
1.29321
1.29321
1.29321
1.29321
1.29321
1.29321
1.29321
1.29321
1.2932
1.2932
1.2932
1.2932
1.2932
1.2932
1.2932
1.2932
1.2932
1.2932
1.2932
1.2932
1.29319
1.29319
1.29319
1.29319
1.29319
1.29319
1.29319
1.29319
1.29319
1.29318
1.29318
1.29318
1.29318
1.29318
1.29318
1.29318
1.29317
1.29317
1.29317
1.29317
1.29317
1.29317
1.29317
1.29317
1.29317
1.29316
1.29316
1.29316
1.29316
1.29316
1.29316
1.29316
1.29316
1.29316
1.29316
1.29316
1.29316
1.29316
1.29315
1.29315
1.29315
1.29315
1.29315
1.29315
1.29315
1.29315
1.29315
1.29315
1.29315
1.29315
1.29314
1.29315
1.29314
1.29314
1.29314
1.29314
1.29314
1.29314
1.29314
1.29314
1.29314
1.29314
1.29314
1.29314
1.29314
1.29314
1.29313
1.29314
1.29314
1.29314
1.29313
1.29314
1.29314
1.29313
1.29313
1.29314
1.29314
1.29314
1.29313
1.29313
1.29313
1.29313
1.29313
1.29313
1.29313
1.29314
1.29314
1.29312
1.29312
1.29313
1.29313
1.29311
1.29312
1.29312
1.29313
1.29309
1.2931
1.2931
1.29311
1.29309
1.29309
1.2931
1.2931
1.29
1.29002
1.29001
1.29001
1.29
1.28999
1.28999
1.28999
1.28998
1.28998
1.28998
1.28997
1.28997
1.28996
1.28997
1.28996
1.28997
1.28998
1.28999
1.2884
1.28551
1.28975
1.29107
1.29012
1.29001
1.29
1.28999
1.28998
1.28997
1.28998
1.28997
1.28997
1.28996
1.28997
1.28996
1.28997
1.28999
1.29002
1.28746
1.28646
1.28957
1.29135
1.28689
1.28588
1.28872
1.29049
1.29
1.29001
1.29007
1.28997
1.28998
1.28997
1.28999
1.28998
1.29
1.29004
1.28995
1.29017
1.28847
1.28804
1.28828
1.2878
1.28729
1.28896
1.29042
1.28619
1.28704
1.2917
1.29043
1.29002
1.29005
1.29011
1.29008
1.29007
1.28992
1.28892
1.291
1.29082
1.2907
1.29041
1.28979
1.28885
1.28836
1.28807
1.28729
1.28822
1.29102
1.28746
1.28813
1.29083
1.29041
1.29036
1.2903
1.28947
1.28646
1.29263
1.29196
1.29149
1.29118
1.29109
1.29088
1.2909
1.29067
1.28991
1.28939
1.28898
1.28803
1.28887
1.28999
1.28857
1.29178
1.29094
1.28957
1.28534
1.29345
1.29352
1.29348
1.29326
1.293
1.29276
1.29236
1.29196
1.29161
1.29133
1.29112
1.29014
1.28975
1.28818
1.28886
1.29143
1.29028
1.29006
1.28582
1.29326
1.29325
1.29325
1.29326
1.29329
1.29333
1.2934
1.29348
1.29349
1.29339
1.29283
1.29213
1.29123
1.29046
1.28966
1.28867
1.28929
1.28908
1.28734
1.29325
1.29323
1.29321
1.29319
1.29319
1.29319
1.29321
1.29323
1.29324
1.29326
1.29331
1.29341
1.29339
1.29222
1.29122
1.2913
1.29065
1.28943
1.28914
1.29323
1.29322
1.29322
1.29321
1.29321
1.29321
1.29321
1.29322
1.29321
1.29321
1.29321
1.29323
1.29325
1.29351
1.29328
1.29347
1.29609
1.29839
1.29835
1.29321
1.29321
1.29321
1.29321
1.29321
1.29321
1.29321
1.29322
1.29322
1.29322
1.29323
1.29321
1.29324
1.29325
1.29357
1.29475
1.29895
1.30368
1.30627
1.29321
1.29321
1.29321
1.29321
1.29321
1.29321
1.29321
1.29322
1.29322
1.29322
1.29323
1.29323
1.29324
1.29328
1.29337
1.29361
1.29935
1.30625
1.30898
1.29321
1.2932
1.2932
1.2932
1.2932
1.29321
1.29321
1.29321
1.29322
1.29323
1.29323
1.29324
1.29325
1.29329
1.29333
1.2934
1.2979
1.30518
1.30669
1.2932
1.2932
1.2932
1.2932
1.2932
1.29321
1.29321
1.29321
1.29322
1.29322
1.29323
1.29324
1.29324
1.29328
1.29334
1.2934
1.29632
1.30393
1.30481
1.2932
1.2932
1.2932
1.2932
1.2932
1.2932
1.2932
1.29321
1.29321
1.29322
1.29323
1.29324
1.29324
1.29327
1.29334
1.2934
1.29475
1.30202
1.3025
1.2932
1.2932
1.2932
1.29319
1.2932
1.2932
1.2932
1.2932
1.29321
1.29322
1.29322
1.29323
1.29323
1.29326
1.2933
1.29336
1.29493
1.30123
1.30146
1.29319
1.29319
1.29319
1.29318
1.29318
1.29318
1.29318
1.29319
1.29319
1.29321
1.29321
1.29322
1.29321
1.29324
1.29325
1.29342
1.2942
1.3001
1.30018
1.29319
1.29319
1.29318
1.29317
1.29317
1.29316
1.29316
1.29316
1.29317
1.29319
1.2932
1.29321
1.29321
1.29322
1.29327
1.2934
1.29453
1.30079
1.29988
1.29318
1.29318
1.29316
1.29315
1.29313
1.29312
1.29312
1.29312
1.29314
1.29316
1.29318
1.29319
1.2932
1.2932
1.29326
1.2934
1.2954
1.30047
1.30013
1.29318
1.29316
1.29315
1.29312
1.2931
1.29308
1.29307
1.29307
1.2931
1.29313
1.29316
1.29318
1.29319
1.29319
1.29326
1.29335
1.29427
1.29964
1.30089
1.29317
1.29315
1.29312
1.2931
1.29308
1.29305
1.29303
1.29302
1.29305
1.29309
1.29314
1.29315
1.29317
1.29317
1.29324
1.29329
1.29334
1.29629
1.30037
1.29316
1.29314
1.29311
1.29309
1.29308
1.29305
1.29301
1.29299
1.29303
1.29306
1.29312
1.29314
1.29317
1.29317
1.29325
1.29323
1.2933
1.2935
1.29457
1.29316
1.29313
1.2931
1.29309
1.29309
1.29305
1.29302
1.29299
1.29303
1.29306
1.29311
1.29313
1.29316
1.29316
1.29324
1.29321
1.29323
1.29301
1.2936
1.29315
1.29313
1.29309
1.2931
1.2931
1.29307
1.29305
1.29302
1.29305
1.29307
1.29311
1.29313
1.29317
1.29316
1.29325
1.29319
1.29325
1.29297
1.29208
1.29315
1.29313
1.29309
1.29311
1.29311
1.29309
1.29308
1.29306
1.29308
1.29309
1.29312
1.29313
1.29317
1.29318
1.29322
1.29319
1.29322
1.29302
1.29191
1.29315
1.29313
1.2931
1.29312
1.29313
1.29311
1.2931
1.29309
1.29311
1.29311
1.29314
1.29314
1.29318
1.29318
1.29321
1.29317
1.29321
1.29307
1.29189
1.29315
1.29314
1.29311
1.29312
1.29313
1.29314
1.29314
1.29313
1.29314
1.29314
1.29316
1.29316
1.29319
1.29318
1.29319
1.29317
1.29319
1.2931
1.29193
1.29314
1.29314
1.29312
1.2931
1.29312
1.29313
1.29314
1.29315
1.2932
1.29323
1.29324
1.29322
1.29322
1.29318
1.29319
1.29314
1.29317
1.29309
1.29196
1.29314
1.29313
1.29312
1.29309
1.2931
1.2931
1.29312
1.29313
1.29319
1.29333
1.29346
1.29342
1.29332
1.29321
1.29318
1.29312
1.29313
1.29308
1.292
1.29314
1.29313
1.29313
1.29311
1.29307
1.29308
1.2931
1.29312
1.29318
1.2934
1.29336
1.29314
1.29323
1.29315
1.29313
1.29308
1.29309
1.29304
1.29203
1.29314
1.29313
1.29312
1.29311
1.29307
1.29304
1.29306
1.29309
1.29318
1.29336
1.29328
1.29339
1.29301
1.29297
1.293
1.29302
1.29304
1.29301
1.29207
1.29314
1.29313
1.29312
1.29311
1.29308
1.29304
1.29303
1.29307
1.29316
1.29322
1.29314
1.29287
1.2928
1.29279
1.29288
1.29296
1.29296
1.29295
1.29209
1.29313
1.29313
1.29312
1.29311
1.29309
1.29304
1.29301
1.29303
1.29309
1.29302
1.2929
1.29278
1.29264
1.29274
1.29289
1.29292
1.29287
1.29289
1.29211
1.29313
1.29313
1.29312
1.29311
1.2931
1.29307
1.29302
1.293
1.293
1.29293
1.29282
1.29272
1.29269
1.29282
1.29288
1.2928
1.2927
1.29277
1.29214
1.29313
1.29313
1.29312
1.29311
1.2931
1.29308
1.29304
1.29299
1.29296
1.29292
1.29285
1.29285
1.29291
1.29296
1.29284
1.29261
1.29252
1.29261
1.29209
1.29313
1.29313
1.29312
1.29312
1.29311
1.2931
1.29308
1.29304
1.29301
1.29298
1.29297
1.29299
1.29298
1.29293
1.2927
1.29238
1.2923
1.29248
1.29199
1.29313
1.29313
1.29312
1.29312
1.29311
1.2931
1.29309
1.29307
1.29306
1.29304
1.29304
1.29303
1.29301
1.29292
1.29263
1.29229
1.2922
1.29239
1.29192
1.29313
1.29313
1.29313
1.29312
1.29312
1.29311
1.29311
1.2931
1.29308
1.29307
1.29307
1.29305
1.29302
1.29293
1.29267
1.29229
1.29215
1.29228
1.29191
1.29313
1.29313
1.29313
1.29312
1.29312
1.29312
1.29311
1.29311
1.2931
1.29309
1.29308
1.29307
1.29305
1.293
1.29282
1.29244
1.29219
1.29215
1.29197
1.29313
1.29314
1.29313
1.29313
1.29313
1.29312
1.29312
1.29312
1.29311
1.29311
1.2931
1.29309
1.29307
1.29305
1.29296
1.29269
1.29235
1.29223
1.29209
1.29312
1.29313
1.29313
1.29313
1.29312
1.29312
1.29312
1.29312
1.29311
1.29311
1.29311
1.2931
1.29309
1.29309
1.29306
1.29296
1.29265
1.29248
1.29237
1.29311
1.29312
1.29312
1.29312
1.29311
1.29311
1.2931
1.2931
1.2931
1.29309
1.29309
1.29309
1.29309
1.2931
1.2931
1.2931
1.29301
1.29284
1.29277
)
;

boundaryField
{
    leftWall
    {
        type            calculated;
        value           nonuniform List<scalar> 
50
(
1.30676
1.306
1.30524
1.30446
1.30368
1.30289
1.30209
1.30129
1.30002
1.29825
1.29648
1.29472
1.29362
1.29334
1.29327
1.29323
1.29322
1.29321
1.29321
1.29321
1.29321
1.2932
1.2932
1.2932
1.2932
1.29319
1.29319
1.29319
1.29319
1.29318
1.29318
1.29318
1.29317
1.29317
1.29316
1.29316
1.29315
1.29314
1.29312
1.29311
1.29309
1.29308
1.29307
1.29306
1.29306
1.29305
1.29305
1.29305
1.29304
1.29304
)
;
    }
    rightWall
    {
        type            calculated;
        value           nonuniform List<scalar> 
50
(
1.28998
1.28998
1.28998
1.28998
1.28998
1.28998
1.28998
1.28998
1.28999
1.29002
1.28995
1.28892
1.28646
1.28534
1.28582
1.28734
1.28914
1.29835
1.30627
1.30898
1.30669
1.30481
1.3025
1.30146
1.30018
1.29988
1.30013
1.30089
1.30037
1.29457
1.2936
1.29208
1.29191
1.29189
1.29193
1.29196
1.292
1.29203
1.29207
1.29209
1.29211
1.29214
1.29209
1.29199
1.29192
1.29191
1.29197
1.29209
1.29237
1.29277
)
;
    }
    lowerWall
    {
        type            calculated;
        value           nonuniform List<scalar> 
62
(
1.30714
1.30713
1.30709
1.30707
1.307
1.30696
1.30687
1.30683
1.30673
1.30669
1.30665
1.30657
1.30661
1.30656
1.3067
1.30667
1.30694
1.30697
1.30739
1.30745
1.30796
1.30806
1.30836
1.30799
1.30729
1.30625
1.30562
1.30421
1.30378
1.30147
1.30156
1.28671
1.29085
1.28768
1.29047
1.29001
1.29001
1.29001
1.29001
1.29001
1.29001
1.29001
1.29001
1.29001
1.29001
1.29001
1.29001
1.29
1.29
1.28999
1.28999
1.28999
1.28998
1.28998
1.28998
1.28998
1.28998
1.28998
1.28998
1.28998
1.28998
1.28998
)
;
    }
    atmosphere
    {
        type            calculated;
        value           nonuniform List<scalar> 
46
(
1.29313
1.29313
1.29313
1.29313
1.29313
1.29313
1.29313
1.29313
1.29313
1.29313
1.29313
1.29313
1.29313
1.29313
1.29313
1.29314
1.29314
1.29314
1.29315
1.29315
1.29316
1.29316
1.29317
1.29318
1.29318
1.29319
1.29319
1.2932
1.29321
1.29321
1.29321
1.2932
1.2932
1.2932
1.2932
1.29319
1.29319
1.29319
1.29319
1.29319
1.2932
1.29321
1.2932
1.29311
1.29297
1.2929
)
;
    }
    defaultFaces
    {
        type            empty;
    }
}


// ************************************************************************* //
