/*--------------------------------*- C++ -*----------------------------------*\
| =========                 |                                                 |
| \\      /  F ield         | OpenFOAM: The Open Source CFD Toolbox           |
|  \\    /   O peration     | Version:  2012                                  |
|   \\  /    A nd           | Website:  www.openfoam.com                      |
|    \\/     M anipulation  |                                                 |
\*---------------------------------------------------------------------------*/
FoamFile
{
    version     2.0;
    format      ascii;
    class       volScalarField;
    location    "0.35";
    object      rhogh;
}
// * * * * * * * * * * * * * * * * * * * * * * * * * * * * * * * * * * * * * //

dimensions      [1 -1 -2 0 0 0 0];


internalField   nonuniform List<scalar> 
2268
(
-29.4294
-29.4294
-29.4294
-29.4294
-29.4294
-29.4294
-29.4294
-29.4294
-29.4294
-29.4294
-29.4294
-29.4294
-29.4294
-29.4294
-29.4294
-29.4294
-29.4294
-29.4294
-29.4294
-29.4294
-29.4294
-29.4294
-29.4003
-88.2881
-88.2881
-88.2881
-88.2881
-88.2881
-88.2881
-88.2881
-88.2881
-88.2881
-88.2881
-88.2881
-88.2881
-88.2881
-88.2881
-88.2881
-88.2881
-88.2881
-88.2881
-88.2881
-88.2881
-88.2881
-88.2881
-88.2439
-147.147
-147.147
-147.147
-147.147
-147.147
-147.147
-147.147
-147.147
-147.147
-147.147
-147.147
-147.147
-147.147
-147.147
-147.147
-147.147
-147.147
-147.147
-147.147
-147.147
-147.147
-147.147
-147.058
-206.006
-206.006
-206.006
-206.006
-206.006
-206.006
-206.006
-206.006
-206.006
-206.006
-206.006
-206.006
-206.006
-206.006
-206.006
-206.006
-206.006
-206.006
-206.006
-206.006
-206.006
-206.006
-205.58
-264.864
-264.864
-264.864
-264.864
-264.864
-264.864
-264.864
-264.864
-264.864
-264.864
-264.864
-264.864
-264.864
-264.864
-264.864
-264.864
-264.864
-264.864
-264.864
-264.864
-264.864
-264.864
-264.298
-323.723
-323.723
-323.723
-323.723
-323.723
-323.723
-323.723
-323.723
-323.723
-323.723
-323.723
-323.723
-323.723
-323.723
-323.723
-323.723
-323.723
-323.723
-323.723
-323.723
-323.723
-323.723
-323.031
-382.582
-382.582
-382.582
-382.582
-382.582
-382.582
-382.582
-382.582
-382.582
-382.582
-382.582
-382.582
-382.582
-382.582
-382.582
-382.582
-382.582
-382.582
-382.582
-382.582
-382.582
-382.582
-381.754
-441.44
-441.44
-441.44
-441.44
-441.44
-441.44
-441.44
-441.44
-441.44
-441.44
-441.44
-441.44
-441.44
-441.44
-441.44
-441.44
-441.44
-441.44
-441.44
-441.44
-441.44
-441.44
-440.485
-1.08349e-21
-1.41336e-20
-1.49827e-19
-7.80454e-19
-1.31727e-18
-1.28413e-18
-6.47033e-19
-2.36432e-19
-2.92873e-20
-6.76068e-21
-2.46566e-21
-2.27181e-21
-3.13242e-21
-1.19744e-21
-1.94809e-21
-1.13879e-20
-1.01359e-19
-3.60688e-19
-1.29839e-20
-2.10088e-19
-5.13072e-18
-5.1054e-17
-2.33986e-16
-3.60531e-16
-3.20668e-16
-1.69167e-16
-7.58931e-17
-8.98715e-18
-2.33879e-18
-8.99156e-19
-6.2511e-19
-1.22423e-18
-2.29077e-19
-6.21866e-19
-3.50637e-18
-2.69529e-17
-8.9288e-17
-2.29331e-18
-1.85088e-17
-4.28312e-16
-4.43533e-15
-2.01202e-14
-3.01858e-14
-2.54181e-14
-1.30768e-14
-5.82567e-15
-7.37477e-16
-2.009e-16
-8.57332e-17
-6.55401e-17
-1.27072e-16
-1.99731e-17
-5.21501e-17
-2.83017e-16
-1.81083e-15
-5.57244e-15
-2.1071e-16
-1.07603e-15
-2.42475e-14
-2.32809e-13
-9.23114e-13
-1.32196e-12
-1.02492e-12
-4.91645e-13
-2.07944e-13
-2.9175e-14
-9.10162e-15
-4.50344e-15
-3.70528e-15
-6.94892e-15
-8.99792e-16
-2.35493e-15
-1.19824e-14
-6.11371e-14
-1.75137e-13
-9.8319e-15
-3.51845e-14
-7.59592e-13
-7.2391e-12
-2.5464e-11
-3.38795e-11
-2.34964e-11
-1.16396e-11
-4.7991e-12
-7.52184e-13
-2.54774e-13
-1.44553e-13
-1.30479e-13
-2.4154e-13
-2.67892e-14
-7.06865e-14
-3.24276e-13
-1.26194e-12
-3.39921e-12
-2.82391e-13
-9.22415e-13
-1.81093e-11
-1.49127e-10
-4.38139e-10
-5.5744e-10
-3.71048e-10
-1.7844e-10
-6.79637e-11
-1.20668e-11
-4.96205e-12
-3.49646e-12
-3.33638e-12
-5.88786e-12
-5.86235e-13
-1.53842e-12
-6.07536e-12
-1.74231e-11
-4.55082e-11
-5.37397e-12
-1.55049e-11
-2.54888e-10
-1.88483e-09
-4.65416e-09
-5.44737e-09
-3.52968e-09
-1.90882e-09
-7.32805e-10
-1.47918e-10
-6.98606e-11
-5.91229e-11
-6.10719e-11
-1.06394e-10
-1.03627e-11
-2.50231e-11
-8.10583e-11
-1.71727e-10
-4.60261e-10
-6.97732e-11
-1.68249e-10
-4.25854e-09
-2.75479e-08
-6.58915e-08
-8.28759e-08
-2.80954e-08
-1.60025e-08
-5.55946e-09
-1.15185e-09
-7.38747e-10
-8.19079e-10
-8.75374e-10
-1.52746e-09
-1.45444e-10
-2.95117e-10
-7.66849e-10
-1.29705e-09
-3.81105e-09
-6.19337e-10
-533.467
-533.467
-533.467
-533.467
-533.467
-533.467
-533.467
-533.467
-533.467
-533.467
-533.467
-533.467
-533.467
-533.467
-533.467
-533.467
-533.467
-533.467
-533.467
-533.467
-533.467
-533.467
-533.134
-658.662
-658.662
-658.662
-658.662
-658.662
-658.662
-658.662
-658.662
-658.662
-658.662
-658.662
-658.662
-658.661
-658.661
-658.661
-658.662
-658.662
-658.662
-658.662
-658.662
-658.662
-658.662
-658.41
-783.818
-783.812
-783.802
-783.776
-783.733
-783.66
-783.537
-783.327
-783.043
-782.591
-782.103
-781.467
-781.049
-780.604
-781.002
-781.738
-783.595
-783.856
-783.856
-783.856
-783.856
-783.856
-783.788
-861.088
-858.13
-853.231
-843.295
-830.398
-813.939
-793.279
-767.215
-740.468
-707.949
-679.834
-648.175
-629.217
-608.135
-616.073
-633.561
-673.742
-740.265
-828.661
-909.051
-909.051
-909.051
-909.051
-321.384
-313.441
-300.231
-276.98
-250.491
-221.224
-189.821
-156.055
-127.556
-96.4994
-75.6453
-52.5713
-41.6774
-29.6042
-30.8312
-37.5172
-57.62
-100.442
-186.678
-344.869
-589.69
-851.777
-1032.38
4.41711e-36
2.00449e-33
5.13272e-33
-1.02171e-30
-1.45388e-29
-2.0061e-28
4.12228e-28
2.36757e-27
3.33663e-21
2.07413e-25
1.00905e-25
-2.55838e-23
2.06862e-23
-1.89171e-24
1.31074e-26
-2.23541e-25
3.01807e-24
-0.145706
-1.58713
-7.46293
-33.1954
-145.934
-376.039
-3.99247e-16
-2.80439e-14
-1.16157e-12
-3.11975e-11
-5.07541e-10
-7.33142e-09
-2.25784e-08
-1.86849e-08
3.93745e-27
-7.001e-07
-2.47838e-05
-0.000272871
-0.00027116
-0.000124072
-1.15056e-05
-9.57662e-06
-4.88985e-05
-5.29392e-05
-0.00014409
-0.00225326
-0.0760427
-1.73388
-11.3721
-3.09903e-15
-2.2087e-13
-8.618e-12
-2.04479e-10
-3.17582e-09
-3.73467e-08
-6.75665e-08
-4.68284e-08
1.56274e-27
-8.61414e-06
-0.00121291
-0.00326511
-0.00253667
-0.000363529
-3.41086e-06
-3.15219e-06
-0.00027178
-0.00150802
-0.000332571
-0.000245149
-0.000282523
-0.000506174
-0.0117832
-7.0972e-15
-4.8676e-13
-1.77431e-11
-3.78146e-10
-5.85019e-09
-6.13844e-08
-8.31409e-08
-5.93566e-08
-5.69133e-27
-0.00095689
-0.00381503
-0.00381558
-0.00289904
-0.000257941
-2.03965e-05
-3.6399e-06
-3.34662e-06
-0.0110421
-0.0396028
-0.0294857
-0.00614318
-0.000479259
-0.000479375
-9.5072e-15
-6.43396e-13
-2.28946e-11
-4.71497e-10
-7.198e-09
-7.00406e-08
-8.35523e-08
-1.03708e-07
4.13217e-26
-0.00163259
-0.00410226
-0.00280158
-0.00031019
-3.42576e-05
-0.000132524
-0.00012259
-3.61294e-06
-0.00998842
-0.0599338
-0.0672382
-0.0672156
-0.0672382
-0.0390032
-1.03971e-14
-6.92375e-13
-2.40888e-11
-4.78822e-10
-6.37764e-09
-6.12265e-08
-4.22966e-08
-4.89082e-07
-2.02362e-07
-0.000209018
-0.000453083
-2.33333e-08
-2.33373e-08
-2.33333e-08
-0.00015072
-0.000293602
-9.69682e-05
-8.86433e-08
-0.000460484
-0.00957643
-0.0191076
-0.0247887
-0.0210338
-8.57694e-15
-5.50568e-13
-1.80848e-11
-3.30678e-10
-3.36324e-09
-3.27352e-08
-8.18349e-09
-1.77544e-06
-2.70582e-05
-5.04033e-08
-5.0212e-08
-3.03874e-07
-1.47562e-06
-2.85014e-05
-1.71571e-06
-1.71423e-06
-9.4859e-08
-9.48594e-08
-5.89835e-13
-5.74483e-13
-5.89835e-13
-5.74483e-13
-0.000120175
-4.21247e-15
-2.61564e-13
-8.29329e-12
-1.46521e-10
-1.49691e-09
-1.29736e-08
-8.71973e-09
-2.46079e-06
-2.30944e-06
-7.93371e-07
-1.11539e-07
-9.36337e-07
-2.8437e-06
-5.90457e-06
-4.43517e-06
-2.37718e-06
-1.13444e-06
-4.56605e-07
-1.52681e-07
-5.68802e-08
-1.59083e-08
-2.9591e-09
-4.28299e-10
-1.59441e-15
-9.74631e-14
-3.04496e-12
-5.31177e-11
-5.56386e-10
-4.70573e-09
-3.33999e-09
-2.07362e-06
-1.75966e-06
-1.0288e-06
-1.9352e-07
-8.75e-07
-2.84028e-06
-2.78286e-06
-3.60441e-06
-3.00202e-06
-1.43695e-06
-5.03042e-07
-1.85117e-07
-6.97689e-08
-2.71502e-08
-1.07429e-08
-4.70829e-09
-4.74881e-16
-2.85956e-14
-8.85167e-13
-1.54488e-11
-1.68907e-10
-1.46822e-09
-3.6152e-09
-5.2541e-07
-6.70079e-07
-4.59989e-07
-1.31129e-07
-1.2895e-07
-8.17843e-07
-1.36337e-06
-1.34166e-06
-1.04855e-06
-5.39172e-07
-2.09583e-07
-7.94837e-08
-2.96823e-08
-1.12623e-08
-4.23671e-09
-1.73339e-09
-1.09481e-16
-6.6281e-15
-2.07118e-13
-3.7138e-12
-4.36199e-11
-4.09158e-10
-6.45205e-09
-2.33911e-08
-3.64064e-08
-3.02054e-08
-1.82314e-08
-4.97995e-08
-8.83479e-08
-1.36254e-07
-1.49352e-07
-1.42371e-07
-1.06024e-07
-4.89668e-08
-1.86578e-08
-6.89838e-09
-2.51856e-09
-8.56374e-10
-4.22194e-10
-1.89591e-17
-1.16952e-15
-3.75299e-14
-7.11326e-13
-9.23122e-12
-9.70038e-11
-2.67522e-09
-1.18565e-09
-3.78847e-10
-5.27115e-10
-3.40183e-09
-1.90808e-08
-3.4342e-08
-3.40793e-08
-3.11264e-08
-2.54751e-08
-1.70514e-08
-7.7157e-09
-3.01101e-09
-1.09435e-09
-3.66114e-10
-1.33858e-10
-2.16472e-10
-2.35352e-18
-1.53631e-16
-5.25708e-15
-1.09707e-13
-1.60398e-12
-1.67861e-11
-3.69519e-10
-5.17545e-10
-3.49027e-10
-2.36771e-10
-1.08542e-09
-4.90272e-09
-7.32663e-09
-7.05183e-09
-5.9166e-09
-4.11583e-09
-2.12675e-09
-8.97987e-10
-3.39861e-10
-1.15734e-10
-3.42911e-11
-4.31602e-11
-3.8177e-10
-1.9435e-19
-1.419e-17
-5.43859e-16
-1.28853e-14
-2.09501e-13
-2.22162e-12
-1.69159e-11
-1.95798e-11
-1.84019e-11
-3.60147e-11
-2.0067e-10
-6.63452e-10
-7.9566e-10
-7.36188e-10
-6.07793e-10
-4.36194e-10
-2.39622e-10
-9.76561e-11
-3.44477e-11
-9.63696e-12
-5.39451e-12
-4.31409e-11
-7.36052e-10
-9.50141e-21
-8.55806e-19
-3.90674e-17
-1.06115e-15
-1.84897e-14
-1.87728e-13
-9.09047e-13
-8.7991e-13
-1.33935e-12
-4.73456e-12
-2.39016e-11
-4.62425e-11
-4.03356e-11
-3.71787e-11
-3.77678e-11
-3.38021e-11
-2.29946e-11
-9.0962e-12
-2.75169e-12
-7.43965e-13
-2.60829e-12
-6.4069e-11
-9.62259e-10
-2.32903e-22
-2.74175e-20
-1.52277e-18
-4.60806e-17
-8.2164e-16
-7.54248e-15
-2.59819e-14
-4.09597e-14
-1.26373e-13
-5.12146e-13
-1.71812e-12
-1.74291e-12
-9.06686e-13
-1.07661e-12
-1.85546e-12
-1.81981e-12
-1.26546e-12
-4.72069e-13
-1.08495e-13
-1.05144e-13
-2.83904e-12
-7.31145e-11
-1.02265e-09
-3.09212e-24
-2.25546e-22
-8.85299e-21
-2.32822e-19
-4.9008e-18
-6.7018e-17
-4.09515e-16
-2.05531e-15
-1.02606e-14
-3.83133e-14
-7.60205e-14
-7.35203e-14
-4.44752e-14
-4.90238e-14
-7.04579e-14
-6.52216e-14
-4.06595e-14
-1.25825e-14
-3.50967e-15
-5.05945e-14
-2.83365e-12
-6.42968e-11
-6.72337e-10
-2.07011e-25
-1.60789e-23
-6.49579e-22
-1.71286e-20
-3.6008e-19
-5.12331e-18
-3.13348e-17
-1.42209e-16
-6.04931e-16
-1.82731e-15
-2.45482e-15
-2.54005e-15
-2.11403e-15
-9.45807e-16
-4.78636e-16
-3.61734e-16
-2.31421e-16
-7.65687e-17
-3.77298e-16
-3.24965e-14
-1.59515e-12
-3.01019e-11
-3.16647e-10
-6.82184e-27
-5.4599e-25
-2.14875e-23
-5.08062e-22
-8.27473e-21
-9.33883e-20
-7.90691e-19
-4.7643e-18
-2.10584e-17
-5.75001e-17
-8.92648e-17
-1.16647e-16
-9.7179e-17
-4.49536e-17
-1.01256e-17
-1.75635e-18
-3.96164e-19
-4.65539e-18
-1.89172e-16
-1.26811e-14
-5.80385e-13
-1.16326e-11
-1.76556e-10
-3.27805e-32
-1.78993e-30
-4.68832e-29
-7.16161e-28
-6.86468e-27
-2.28713e-26
-4.55655e-26
-4.28512e-25
-2.77157e-24
-1.11693e-23
-2.73079e-23
-3.32456e-23
-2.62272e-23
-1.07242e-23
-2.30325e-23
-1.26414e-21
-6.67277e-20
-2.73096e-18
-9.5311e-17
-4.37004e-15
-1.76541e-13
-4.80002e-12
-1.4074e-10
-2.63331e-36
-1.93113e-34
-7.27239e-33
-1.79743e-31
-3.49879e-30
-6.33191e-29
-2.28651e-27
-4.34819e-26
-3.35637e-25
-1.43809e-24
-3.37312e-24
-3.92877e-24
-2.8467e-24
-9.17572e-25
-7.93278e-24
-6.00979e-22
-3.41532e-20
-1.45712e-18
-4.70663e-17
-1.56453e-15
-6.04588e-14
-3.12028e-12
-1.41389e-10
-1.58863e-39
-1.12623e-37
-3.94643e-36
-8.5667e-35
-1.30636e-33
-1.44454e-32
-1.21991e-31
-7.82405e-31
-3.94526e-30
-1.62627e-29
-6.17157e-29
-7.07022e-28
-6.79243e-28
-2.52251e-26
-2.82864e-24
-2.47025e-22
-1.51405e-20
-6.80654e-19
-2.22606e-17
-7.50033e-16
-4.20414e-14
-3.08684e-12
-1.5467e-10
-5.06504e-45
-4.61319e-43
-2.12104e-41
-6.22586e-40
-1.32523e-38
-2.14142e-37
-2.76348e-36
-2.88534e-35
-2.48186e-34
-1.77042e-33
-1.09643e-32
-2.46133e-31
-4.08073e-29
-6.90579e-27
-8.79954e-25
-8.56217e-23
-5.66597e-21
-2.69837e-19
-9.54729e-18
-4.66167e-16
-4.43264e-14
-3.64196e-12
-1.70689e-10
-1.82213e-48
-1.78361e-46
-8.83992e-45
-2.83467e-43
-6.70149e-42
-1.24276e-40
-1.90777e-39
-2.47916e-38
-2.74025e-37
-2.87223e-36
-1.31096e-34
-3.27465e-32
-7.72558e-30
-1.52983e-27
-2.21483e-25
-2.42124e-23
-1.7312e-21
-8.85081e-20
-3.68065e-18
-3.10026e-16
-4.82138e-14
-3.93461e-12
-1.74238e-10
-8.14901e-55
-9.78778e-53
-6.62824e-51
-3.24331e-49
-1.25686e-47
-3.91855e-46
-1.00025e-44
-3.19433e-43
-6.5646e-41
-2.85708e-38
-1.12349e-35
-3.93108e-33
-1.1021e-30
-2.57638e-28
-4.30478e-26
-5.32506e-24
-4.12865e-22
-2.35304e-20
-1.26021e-18
-1.67183e-16
-3.2555e-14
-2.51999e-12
-1.0033e-10
-5.10353e-60
-1.00165e-57
-1.03888e-55
-7.24865e-54
-3.85948e-52
-2.34758e-50
-6.64036e-48
-4.26192e-45
-2.63055e-42
-1.46844e-39
-7.18523e-37
-3.08136e-34
-1.06841e-31
-3.00886e-29
-6.03496e-27
-8.51891e-25
-7.28491e-23
-4.9624e-21
-3.4621e-19
-5.01379e-17
-6.36885e-15
-4.61123e-13
-1.8634e-11
-3.44861e-64
-9.73635e-62
-1.41205e-59
-1.38614e-57
-1.43308e-55
-5.96614e-53
-5.53796e-50
-5.15653e-47
-4.36234e-44
-3.35947e-41
-2.28045e-38
-1.31253e-35
-6.16819e-33
-2.17921e-30
-5.59964e-28
-9.21675e-26
-9.10942e-24
-8.0017e-22
-6.64195e-20
-3.92825e-18
-1.56865e-16
-4.4285e-15
-8.69106e-14
-1.02648e-68
-4.23484e-66
-9.80029e-64
-2.27017e-61
-1.45591e-58
-1.94942e-55
-2.66179e-52
-3.43041e-49
-4.05404e-46
-4.34958e-43
-4.05045e-40
-3.11568e-37
-1.89378e-34
-8.54232e-32
-2.78633e-29
-5.73752e-27
-7.11821e-25
-8.6274e-23
-9.63706e-21
-7.08349e-19
-3.42495e-17
-1.19357e-15
-3.08634e-14
-1.78603e-72
-9.24808e-70
-2.77222e-67
-9.17944e-65
-8.56587e-62
-1.51958e-58
-2.93692e-55
-5.4799e-52
-9.49723e-49
-1.54288e-45
-2.09233e-42
-2.50388e-39
-2.32581e-36
-1.64708e-33
-8.01898e-31
-2.29937e-28
-3.72964e-26
-5.89565e-24
-8.97574e-22
-8.70852e-20
-5.31713e-18
-2.23427e-16
-6.07821e-15
-9.98384e-77
-7.33028e-74
-3.16737e-71
-1.43013e-68
-1.6914e-65
-4.34038e-62
-1.24066e-58
-3.66401e-55
-9.6429e-52
-2.35104e-48
-4.83399e-45
-8.91694e-42
-1.17488e-38
-1.26224e-35
-8.3766e-33
-3.6875e-30
-8.47479e-28
-1.78713e-25
-4.12451e-23
-6.262e-21
-5.82617e-19
-3.62998e-17
-1.24547e-15
-3.48152e-81
-3.61651e-78
-2.22391e-75
-1.2926e-72
-1.68775e-69
-5.72626e-66
-2.35358e-62
-1.00914e-58
-3.99513e-55
-1.4947e-51
-4.86556e-48
-1.36378e-44
-2.88507e-41
-5.14278e-38
-5.46744e-35
-4.00569e-32
-1.35241e-29
-3.88533e-27
-1.39182e-24
-3.19238e-22
-4.258e-20
-3.79154e-18
-1.69904e-16
-3.12125e-86
-5.19703e-83
-5.02214e-80
-3.97704e-77
-4.45311e-74
-1.74446e-70
-1.0998e-66
-7.23588e-63
-4.7808e-59
-2.77017e-55
-1.41386e-51
-6.12583e-48
-2.24662e-44
-6.31952e-41
-1.10844e-37
-1.34657e-34
-7.49822e-32
-2.74188e-29
-1.28671e-26
-4.82495e-24
-1.07411e-21
-1.55896e-19
-1.20236e-17
-1.87333e-91
-4.87469e-88
-7.3768e-85
-8.77426e-82
-1.20567e-78
-5.39838e-75
-4.85493e-71
-4.6678e-67
-4.48201e-63
-3.83375e-59
-3.11689e-55
-2.21099e-51
-1.38638e-47
-7.248e-44
-2.07206e-40
-4.29155e-37
-3.39877e-34
-1.85917e-31
-1.78469e-28
-1.10615e-25
-3.81819e-23
-8.81021e-21
-8.38694e-19
-1.90017e-97
-1.05804e-93
-6.05843e-90
-5.0241e-86
-4.95082e-82
-4.20422e-78
-6.20339e-74
-7.70854e-70
-6.16123e-66
-3.04382e-62
-1.40646e-58
-7.61154e-55
-5.26614e-51
-4.05984e-47
-1.74976e-43
-4.33289e-40
-4.7843e-37
-3.86431e-34
-4.78326e-31
-3.82952e-28
-1.88328e-25
-6.21645e-23
-1.18545e-20
-5.6301e-99
-3.91582e-94
-1.41776e-89
-3.16092e-85
-3.98987e-81
-3.2763e-77
-2.79722e-73
-2.50637e-69
-1.5517e-65
-6.48346e-62
-1.9301e-58
-4.3216e-55
-8.32321e-52
-1.36941e-48
-2.26674e-45
-5.96446e-42
-1.29334e-38
-1.68554e-35
-1.58214e-32
-1.20905e-29
-7.83822e-27
-2.36085e-24
-3.90801e-22
-1.37783e-98
-1.58609e-93
-7.47605e-89
-1.87275e-84
-2.60407e-80
-2.21938e-76
-1.2952e-72
-5.92669e-69
-2.37737e-65
-8.54365e-62
-3.16194e-58
-7.30406e-55
-1.14458e-51
-1.3289e-48
-1.26198e-45
-1.0812e-42
-7.68812e-40
-4.5907e-37
-2.32517e-34
-9.74805e-32
-3.35243e-29
-8.92804e-27
-1.76752e-24
-1.78514e-98
-2.00479e-93
-1.26034e-88
-4.81802e-84
-8.20403e-80
-7.78561e-76
-4.60636e-72
-1.84726e-68
-5.27879e-65
-1.12041e-61
-1.80036e-58
-2.43217e-55
-2.75777e-52
-2.55738e-49
-1.95269e-46
-1.24558e-43
-6.6486e-41
-2.99653e-38
-1.14051e-35
-3.67893e-33
-1.00152e-30
-2.28559e-28
-4.28276e-26
-533.308
-533.45
-269.302
-2.54763
-658.458
-658.64
-640.872
-474.259
-783.728
-783.788
-782.797
-783.856
-909.051
-909.031
-909.04
-909.051
-1034.25
-1034.25
-1034.25
-1034.25
-589.992
-750.135
-921.876
-1035.92
-24.2407
-56.2118
-118.501
-205.599
-0.0454966
-0.190801
-0.775443
-2.42575
-0.000491044
-0.000972923
-0.00263545
-0.00686475
-0.00376337
-7.25359e-06
-4.49297e-06
-9.11335e-06
-0.00859626
-2.16783e-05
-4.17877e-07
-4.17881e-07
-0.000265694
-0.000230646
-4.52607e-05
-1.84426e-06
-4.28002e-10
-4.28299e-10
-9.04565e-08
-1.99146e-07
-1.75724e-09
-7.01135e-10
-4.52563e-10
-4.52692e-10
-9.94192e-10
-7.2799e-10
-6.44205e-10
-6.64875e-10
-4.16363e-10
-4.52869e-10
-5.92311e-10
-1.16734e-09
-3.76985e-10
-6.48552e-10
-1.50786e-09
-4.22424e-09
-9.61856e-10
-1.85188e-09
-5.02907e-09
-1.20438e-08
-1.88098e-09
-3.66452e-09
-1.04114e-08
-1.85789e-08
-2.4503e-09
-4.80599e-09
-1.62676e-08
-2.1452e-08
-2.5917e-09
-5.17628e-09
-1.94176e-08
-1.71997e-08
-1.7984e-09
-4.80906e-09
-2.77893e-08
-2.34538e-08
-1.25351e-09
-5.66404e-09
-4.62217e-08
-5.43545e-08
-1.2541e-09
-9.89936e-09
-6.16856e-08
-1.05026e-07
-1.6553e-09
-1.35783e-08
-7.31994e-08
-1.34408e-07
-2.00489e-09
-1.61403e-08
-8.20714e-08
-1.70334e-07
-2.32471e-09
-1.84602e-08
-9.91472e-08
-2.9568e-07
-2.64723e-09
-2.17733e-08
-1.24926e-07
-3.77072e-07
-2.78806e-09
-2.2943e-08
-1.2946e-07
-3.41704e-07
-1.58277e-09
-1.24414e-08
-6.55501e-08
-1.33471e-07
-3.12865e-10
-2.59805e-09
-1.36374e-08
-2.42582e-08
-8.42089e-13
-3.05094e-12
-5.91653e-12
-2.49837e-11
-4.052e-13
-3.50307e-12
-1.65277e-11
-6.72555e-11
-7.72189e-14
-5.6622e-13
-3.61549e-12
-2.15358e-11
-1.8753e-14
-1.60882e-13
-1.18895e-12
-7.97248e-12
-3.11266e-15
-3.21023e-14
-2.84358e-13
-2.2444e-12
-3.01921e-16
-4.07462e-15
-4.60407e-14
-4.52002e-13
-2.65221e-17
-4.38755e-16
-5.96881e-15
-6.9435e-14
-6.25727e-19
-1.66266e-17
-3.51455e-16
-6.11854e-15
-2.64908e-20
-9.26483e-19
-2.58905e-17
-5.84818e-16
-1.80699e-22
-1.01586e-20
-4.8036e-19
-1.87832e-17
-4.70603e-24
-2.8919e-22
-1.51692e-20
-6.70074e-19
-2.03322e-10
-1.33117e-08
-1.71434e-07
-3.06784e-07
-3.17455e-07
-3.09054e-07
-2.37216e-07
-8.86588e-08
-1.40172e-08
-9.4563e-09
-1.48344e-08
-1.49718e-08
-3.11542e-08
-2.45488e-09
-3.53454e-09
-7.83969e-09
-1.26196e-08
-4.17879e-08
-5.64386e-09
-36.0157
-2.41312e-13
-2.41264e-13
-2.41319e-13
-5.54764e-08
-2.39217e-07
-4.88572e-07
-2.75639e-07
-1.32513e-07
-2.50019e-07
-5.04163e-07
-6.27909e-07
-1.73003e-06
-1.10275e-07
-3.15024e-08
-6.77336e-08
-1.23527e-07
-4.50197e-07
-2.23698e-08
-582.158
-270.259
-94.9957
-5.27291
-2.8635e-13
-2.86192e-13
-2.8635e-13
-2.86192e-13
-3.47729e-08
-5.75969e-07
-2.30484e-06
-8.66464e-06
-4.15975e-05
-6.65561e-05
-3.20949e-06
-2.58331e-06
-5.70742e-07
-1.37072e-06
-3.20786e-08
-903.127
-866.757
-762.647
-597.914
-472.47
-342.053
-162.925
-46.2369
-3.30638e-13
-3.31159e-13
-3.30669e-13
-1.03678e-06
-5.97734e-05
-0.000768969
-0.00107237
-0.000416294
-8.27915e-06
-1.27054e-06
-3.72021e-08
-1034.25
-1034.16
-1032.94
-1028.47
-1022.59
-1001.85
-919.875
-793.188
-638.831
-414.254
-151.576
-3.96441e-08
-3.96258e-08
-3.96441e-08
-0.00232675
-0.00601108
-0.0116699
-2.40753e-07
-2.40755e-07
-1135.44
-1159.44
-1159.44
-1159.44
-1159.44
-1159.44
-1159.44
-1159.44
-1155.81
-1127.16
-1030.74
-801.531
-408.177
-15.9898
-0.00106055
-0.00106055
-0.0305857
-0.0040144
-0.000353028
-396.98
-667.275
-824.338
-935.859
-1013.44
-1083.51
-1152.19
-1211.45
-1277.72
-1284.58
-1284.58
-1284.04
-1233.88
-995.559
-463.469
-15.5954
-0.0338884
-0.34776
-0.144972
-9.32151
-23.6495
-52.7524
-96.8334
-149.882
-213.827
-305.451
-429.887
-576.099
-785.177
-1046.3
-1349.27
-1409.71
-1409.71
-1349.16
-917.866
-174.197
-17.2813
-14.5268
-0.0134643
-0.0218687
-0.0503203
-0.167384
-0.471231
-1.16612
-3.02045
-7.53213
-15.9703
-38.5675
-129.068
-369.479
-846.224
-1469.48
-1505.21
-1505.37
-1100.63
-268.947
-55.7182
-1.12879e-05
-8.4844e-06
-9.60155e-06
-2.76368e-05
-9.02537e-05
-0.000143563
-0.000251154
-0.00113244
-0.0065135
-0.053874
-0.977758
-6.33279
-35.5476
-431.029
-1342.52
-1627.97
-1558.29
-879.363
-165.299
-4.17878e-07
-3.91374e-07
-2.40511e-07
-3.70316e-08
-2.40725e-06
-0.000115259
-0.000111751
-4.49352e-05
-9.50006e-06
-2.78524e-06
-2.78534e-06
-0.00615149
-1.37366
-9.26877e-06
-513.731
-1564.14
-1670.85
-1327.04
-381.554
-5.39572e-07
-3.98206e-07
-1.77243e-07
-3.96309e-08
-5.05182e-07
-4.13237e-05
-7.107e-05
-3.8473e-05
-4.03717e-06
-1.64884e-06
-3.74285e-06
-6.3338e-05
-0.000213877
-9.92004e-06
-3.15166e-08
-1080.86
-1776.04
-1597.63
-510.199
-1.31655e-07
-6.07566e-08
-3.77704e-08
-6.59375e-08
-4.86678e-07
-2.0826e-06
-9.3099e-06
-1.25281e-05
-6.36965e-06
-1.75694e-06
-1.76e-06
-2.09326e-06
-1.40556e-05
-7.53643e-06
-3.81128e-08
-618.064
-1846.43
-1744.21
-530.662
-5.41937e-10
-3.09603e-09
-5.85257e-09
-1.12049e-08
-4.77356e-08
-1.84357e-07
-9.38399e-07
-3.39103e-06
-3.56844e-06
-1.98989e-06
-1.78999e-06
-1.79057e-06
-3.95538e-06
-5.53168e-06
-3.56469e-08
-342.151
-1787.32
-1751.75
-563.291
-9.94307e-10
-6.15267e-08
-1.57549e-07
-1.158e-07
-5.42609e-08
-4.45034e-08
-1.3359e-07
-1.11328e-06
-4.51558e-06
-7.81764e-06
-5.88012e-06
-2.83211e-06
-2.77492e-06
-1.52109e-06
-0.0269181
-155.732
-1729.97
-1853.23
-641.634
-1.04877e-09
-1.92609e-07
-4.35733e-06
-1.71377e-05
-8.131e-06
-2.49354e-07
-3.89104e-08
-3.93714e-08
-4.94302e-06
-1.47523e-05
-1.55069e-05
-7.41883e-06
-2.18333e-06
-1.60435e-06
-0.0426451
-89.9235
-1558.76
-1955.05
-850.621
-2.80241e-09
-2.23929e-09
-3.11161e-05
-0.000428587
-0.000550739
-0.000339951
-6.33054e-05
-9.34907e-06
-6.07133e-06
-1.49856e-05
-1.76235e-05
-1.40192e-05
-3.93866e-06
-1.76317e-06
-7.48556e-08
-137.147
-1276.4
-1708.88
-741.417
-7.00198e-09
-2.34355e-09
-5.74461e-05
-0.000529298
-0.00101364
-0.00101458
-0.000704633
-6.3995e-05
-3.5063e-06
-6.34559e-06
-1.64466e-05
-1.45154e-05
-4.98081e-06
-1.88946e-06
-7.85505e-08
-177.508
-1708.77
-1050.76
-286.967
-6.46069e-09
-5.38368e-05
-3.68336e-05
-2.88615e-06
-0.000747997
-0.00422648
-8.22447e-08
-8.22451e-08
-8.22447e-08
-8.22451e-08
-6.51851e-06
-9.42528e-06
-4.24367e-06
-1.67407e-06
-8.22447e-08
-545.606
-1789.18
-1416.17
-300.349
-6.75108e-09
-0.000321072
-0.000110144
-3.01706e-06
-0.0335073
-0.0822311
-0.255933
-0.206688
-0.0242943
-0.00192284
-1.9002e-05
-1.7564e-06
-1.30341e-06
-6.92022e-07
-8.59397e-08
-218.507
-1816.91
-1895.58
-472.633
-7.04114e-09
-0.0047034
-0.00068233
-3.14545e-06
-0.353618
-0.498914
-0.498914
-0.498914
-0.329135
-0.0157418
-2.52204e-06
-1.39396e-07
-1.39116e-07
-3.81651e-06
-5.95224e-07
-5.95254e-07
-748.828
-1978.58
-769.127
-2.97297e-08
-0.0053721
-0.000710279
-0.260485
-0.519478
-0.519478
-0.519478
-0.519478
-0.324736
-0.00890177
-0.000109539
-0.000389881
-0.000161626
-2.64991e-05
-6.1979e-07
-3.37903
-29.1643
-707.372
-801.04
-3.09059e-08
-0.0025901
-0.0190215
-0.363212
-0.346604
-0.155041
-0.129258
-0.118963
-0.0623846
-0.00285833
-0.000173297
-0.0012301
-0.0012301
-2.73349e-05
-0.258757
-3.54628
-1.97772
-1.38982
-576.224
-3.52813e-08
-2.14129e-08
-0.0705965
-0.315465
-0.010261
-0.0323978
-0.150921
-0.0787347
-0.000244607
-0.000244612
-0.000167107
-0.000844343
-0.000640973
-2.83756e-05
-1.0365
-1.30688
-0.305534
-0.00200078
-81.9137
-4.09263e-08
-2.21966e-08
-0.0948573
-0.111629
-0.0106376
-0.112827
-0.211393
-0.211393
-0.100268
-0.00183614
-2.94165e-05
-2.94167e-05
-2.94165e-05
-2.94167e-05
-0.6874
-0.317198
-0.0544611
-0.00207461
-0.236952
-4.23732e-08
-0.000956504
-0.00402533
-0.00115832
-0.00145319
-0.0376312
-0.138889
-0.157188
-0.0818838
-0.0431048
-0.0376673
-0.0222876
-0.0145672
-0.0767183
-0.0834932
-0.0217981
-0.00519003
-0.00139858
-0.00015039
-1.25302e-06
-5.59568e-05
-5.59565e-05
-0.00155273
-0.000463807
-0.00120753
-0.00339336
-0.006946
-0.00497407
-0.0143813
-0.0186075
-0.0185922
-0.0257681
-0.060077
-0.00392623
-0.000328404
-0.000323648
-0.00036755
-2.92242e-05
-5.99876e-07
-5.99876e-07
-0.000981313
-0.0301697
-0.0116625
-3.04298e-07
-3.04298e-07
-5.08227e-07
-2.14826e-06
-3.7262e-05
-2.57134e-05
-0.000951377
-0.00471617
-0.00253543
-0.00253565
-0.0527555
-0.0093085
-6.09852e-05
-8.7135e-06
-5.23765e-07
-2.35998e-06
-0.000966605
-0.0207672
-0.0417653
-0.00658985
-1.17017e-07
-1.17004e-07
-1.38118e-07
-1.35327e-07
-1.3532e-07
-1.35327e-07
-1.3532e-07
-0.986444
-1.05804
-0.0911684
-0.00241601
-1.27578e-05
-3.60212e-06
-1.83223e-07
-1.8077e-06
-7.26999e-06
-6.02154e-06
-0.0257583
-0.0886631
-0.0263752
-0.00103443
-8.20298e-08
-14.9898
-701.165
-1488.47
-593.327
-32.7493
-0.563089
-0.0162031
-0.000251912
-4.11378e-06
-2.10774e-06
-2.37561e-08
-3.10076e-09
-3.10041e-09
-1.34755e-05
-0.00806844
-0.0919324
-0.0919309
-0.0134542
-8.47527e-08
-286.423
-1984.34
-2023.43
-1730.29
-205.817
-0.361914
-0.00164384
-2.8478e-05
-2.124e-06
-1.48665e-06
-3.2062e-10
-3.40395e-09
-3.05789e-08
-1.53225e-05
-0.00914588
-0.0762343
-0.0869668
-0.0105254
-8.69623e-08
-215.155
-1638.21
-2082.38
-1440.34
-126.45
-0.159644
-0.000166188
-4.85856e-06
-1.68443e-06
-1.12541e-06
-3.86443e-10
-2.5278e-09
-1.4424e-08
-2.83868e-08
-8.53726e-09
-8.1886e-09
-0.0333871
-0.00694005
-8.97002e-08
-40.8189
-362.476
-626.125
-289.286
-35.2171
-0.311721
-0.00021826
-2.46352e-06
-1.36711e-06
-8.96428e-07
-1.95924e-10
-2.17154e-09
-1.8204e-08
-1.08718e-07
-1.76161e-06
-0.00155748
-0.0644412
-0.0740147
-0.842444
-1.7271
-2.48249
-3.22485
-1.54765
-1.45109
-0.345346
-0.00148988
-1.13037e-06
-1.13037e-06
-7.81268e-07
-8.00829e-11
-1.04142e-09
-1.44157e-08
-2.00135e-07
-7.7942e-06
-0.000256473
-0.000409592
-0.0458291
-0.284606
-0.0163672
-0.000464705
-4.90885e-05
-1.08639e-05
-3.79647e-05
-0.0152708
-0.00620638
-0.000994391
-2.31839e-06
-6.36579e-07
-2.49185e-11
-2.8543e-10
-2.37676e-09
-1.20592e-08
-1.74972e-08
-1.75093e-08
-1.75515e-08
-1.79462e-08
-5.76292e-06
-9.0433e-06
-2.3692e-08
-2.41028e-08
-4.90615e-08
-4.90614e-08
-0.00425163
-0.0352922
-0.000409251
-1.315e-06
-5.11681e-07
-6.18602e-12
-8.48115e-11
-8.36629e-10
-5.87444e-09
-2.75496e-08
-4.6994e-08
-5.33881e-08
-5.1393e-08
-3.10515e-08
-2.54216e-08
-2.42825e-08
-4.70645e-08
-8.31623e-08
-4.72283e-06
-0.0139174
-0.0707166
-0.00875713
-1.55083e-07
-2.4771e-07
-1.12358e-12
-1.80996e-11
-2.11092e-10
-1.77552e-09
-1.06143e-08
-3.89791e-08
-5.98271e-08
-6.01525e-08
-4.66923e-08
-2.76607e-08
-2.82796e-08
-6.72604e-08
-1.47806e-07
-1.37053e-05
-0.0133297
-0.0749159
-0.0683632
-1.58935e-07
-1.58935e-07
-1.44243e-13
-3.05233e-12
-4.43266e-11
-4.55227e-10
-3.31407e-09
-1.71085e-08
-4.33005e-08
-5.55415e-08
-5.01176e-08
-3.12927e-08
-2.76709e-08
-7.25354e-08
-2.37456e-07
-5.9149e-06
-0.00325255
-0.058817
-0.0789455
-0.0331354
-1.62787e-07
-1.74176e-14
-4.39099e-13
-7.29416e-12
-8.52509e-11
-7.10412e-10
-4.32207e-09
-1.85936e-08
-3.78233e-08
-4.36062e-08
-3.22479e-08
-2.22752e-08
-5.05106e-08
-2.74081e-07
-2.39019e-06
-0.000351209
-0.0152939
-0.0790812
-0.0790565
-0.0648251
-9.71729e-16
-3.93414e-14
-9.16136e-13
-1.35776e-11
-1.3569e-10
-9.57141e-10
-4.76788e-09
-1.6366e-08
-2.63511e-08
-2.71025e-08
-1.64857e-08
-1.91107e-08
-1.47732e-07
-1.43129e-06
-4.16082e-05
-0.00107152
-0.0166706
-0.0479829
-0.0259516
-4.00301e-17
-2.12541e-15
-6.58471e-14
-1.25828e-12
-1.57002e-11
-1.36495e-10
-8.09966e-10
-3.4343e-09
-8.17875e-09
-1.14503e-08
-9.7641e-09
-5.20027e-09
-1.82466e-08
-2.09391e-07
-2.30195e-06
-1.79648e-05
-0.000119133
-0.000892172
-7.5224e-05
)
;

boundaryField
{
    leftWall
    {
        type            calculated;
        value           nonuniform List<scalar> 
50
(
-29.4294
-88.2881
-147.147
-206.006
-264.864
-323.723
-382.582
-441.44
-533.467
-658.662
-783.818
-861.088
-321.384
4.41711e-36
-3.99247e-16
-3.09903e-15
-7.0972e-15
-9.5072e-15
-1.03971e-14
-8.57694e-15
-4.21247e-15
-1.59441e-15
-4.74881e-16
-1.09481e-16
-1.89591e-17
-2.35352e-18
-1.9435e-19
-9.50141e-21
-2.32903e-22
-3.09212e-24
-2.07011e-25
-6.82184e-27
-3.27805e-32
-2.63331e-36
-1.58863e-39
-5.06504e-45
-1.82213e-48
-8.14901e-55
-5.10353e-60
-3.44861e-64
-1.02648e-68
-1.78603e-72
-9.98384e-77
-3.48152e-81
-3.12125e-86
-1.87333e-91
-1.90017e-97
-5.6301e-99
-1.37783e-98
-1.78514e-98
)
;
    }
    rightWall
    {
        type            calculated;
        value           nonuniform List<scalar> 
50
(
-1.29839e-20
-2.29331e-18
-2.1071e-16
-9.8319e-15
-2.82391e-13
-5.37397e-12
-6.97732e-11
-6.19337e-10
-5.64386e-09
-2.23698e-08
-3.20786e-08
-3.72021e-08
-2.40755e-07
-0.000353028
-0.144972
-14.5268
-55.7182
-165.299
-381.554
-510.199
-530.662
-563.291
-641.634
-850.621
-741.417
-286.967
-300.349
-472.633
-769.127
-801.04
-576.224
-81.9137
-0.236952
-0.00015039
-2.92242e-05
-8.7135e-06
-3.60212e-06
-2.10774e-06
-1.48665e-06
-1.12541e-06
-8.96428e-07
-7.81268e-07
-6.36579e-07
-5.11681e-07
-2.4771e-07
-1.58935e-07
-1.62787e-07
-0.0648251
-0.0259516
-7.5224e-05
)
;
    }
    lowerWall
    {
        type            calculated;
        value           nonuniform List<scalar> 
62
(
0
0
0
0
0
0
0
0
0
0
0
0
0
0
0
0
0
0
0
0
0
0
0
-29.4003
-88.2439
-147.058
-205.58
-264.298
-323.031
-381.754
-440.485
-470.73
-470.855
-237.702
-2.24869
-1.08349e-21
-2.10088e-19
-1.85088e-17
-1.07603e-15
-3.51845e-14
-9.22415e-13
-1.55049e-11
-1.68249e-10
0
0
0
0
0
0
0
0
0
0
0
0
0
0
0
0
0
0
0
)
;
    }
    atmosphere
    {
        type            calculated;
        value           nonuniform List<scalar> 
46
(
-0
-0
-0
-0
-0
-0
-0
-0
-0
-0
-0
-0
-0
-0
-0
-0
-0
-0
-0
-0
-0
-0
-0
-0
-0
-0
-0
-0
-0
-0
-0
-0
-0
-8.18914e-10
-3.47224e-09
-8.2691e-09
-1.15768e-08
-9.87197e-09
-5.25772e-09
-1.84482e-08
-2.11704e-07
-2.32738e-06
-1.81633e-05
-0.000120449
-0.000902028
-7.6055e-05
)
;
    }
    defaultFaces
    {
        type            empty;
    }
}

