/*--------------------------------*- C++ -*----------------------------------*\
| =========                 |                                                 |
| \\      /  F ield         | OpenFOAM: The Open Source CFD Toolbox           |
|  \\    /   O peration     | Version:  2012                                  |
|   \\  /    A nd           | Website:  www.openfoam.com                      |
|    \\/     M anipulation  |                                                 |
\*---------------------------------------------------------------------------*/
FoamFile
{
    version     2.0;
    format      ascii;
    class       volScalarField;
    location    "0.35";
    object      volumeFraction1;
}
// * * * * * * * * * * * * * * * * * * * * * * * * * * * * * * * * * * * * * //

dimensions      [0 0 0 0 0 0 0];


internalField   nonuniform List<scalar> 
2268
(
1
1
1
1
1
1
1
1
1
1
1
1
1
1
1
1
1
1
1
1
1
1
0.999014
1
1
1
1
1
1
1
1
1
1
1
1
1
1
1
1
1
1
1
1
1
1
0.9995
1
1
1
1
1
1
1
1
1
1
1
1
1
1
1
1
1
1
1
1
1
1
0.999395
1
1
1
1
1
1
1
1
1
1
1
1
1
1
1
1
1
1
1
1
1
1
0.997937
1
1
1
1
1
1
1
1
1
1
1
1
1
1
1
1
1
1
1
1
1
1
0.997864
1
1
1
1
1
1
1
1
1
1
1
1
1
1
1
1
1
1
1
1
1
1
0.997864
1
1
1
1
1
1
1
1
1
1
1
1
1
1
1
1
1
1
1
1
1
1
0.997835
1
1
1
1
1
1
1
1
1
1
1
1
1
1
1
1
1
1
1
1
1
1
0.997835
3.68168e-23
4.80256e-22
5.09107e-21
2.65196e-20
4.47605e-20
4.36342e-20
2.1986e-20
8.03387e-21
9.95172e-22
2.29726e-22
8.37822e-23
7.71953e-23
1.06439e-22
4.06888e-23
6.61953e-23
3.86957e-22
3.44414e-21
1.2256e-20
4.4119e-22
2.37957e-21
5.81134e-20
5.78267e-19
2.65026e-18
4.08358e-18
3.63206e-18
1.91608e-18
8.59607e-19
1.01793e-19
2.64905e-20
1.01843e-20
7.08035e-21
1.38663e-20
2.59465e-21
7.0436e-21
3.9715e-20
3.05283e-19
1.01133e-18
2.59753e-20
1.25784e-19
2.91078e-18
3.01422e-17
1.36736e-16
2.0514e-16
1.7274e-16
8.88693e-17
3.95909e-17
5.01185e-18
1.3653e-18
5.82637e-19
4.45406e-19
8.63576e-19
1.35736e-19
3.54409e-19
1.92336e-18
1.23063e-17
3.787e-17
1.43197e-18
5.22332e-18
1.17703e-16
1.13011e-15
4.48102e-15
6.41709e-15
4.97522e-15
2.38656e-15
1.00941e-15
1.41622e-16
4.41815e-17
2.18608e-17
1.79863e-17
3.37317e-17
4.3678e-18
1.14314e-17
5.81655e-17
2.96774e-16
8.50155e-16
4.77264e-17
1.3284e-16
2.86785e-15
2.73314e-14
9.614e-14
1.27913e-13
8.87111e-14
4.39455e-14
1.81191e-14
2.83989e-15
9.61903e-16
5.45764e-16
4.92627e-16
9.11937e-16
1.01143e-16
2.66878e-16
1.22431e-15
4.76448e-15
1.28338e-14
1.06617e-15
2.84939e-15
5.59408e-14
4.60663e-13
1.35344e-12
1.72196e-12
1.14619e-12
5.51213e-13
2.09944e-13
3.72751e-14
1.53281e-14
1.08008e-14
1.03063e-14
1.8188e-14
1.81092e-15
4.75226e-15
1.87671e-14
5.38209e-14
1.40578e-13
1.66005e-14
4.05271e-14
6.66231e-13
4.92661e-12
1.21651e-11
1.42384e-11
9.22595e-12
4.98932e-12
1.91542e-12
3.86631e-13
1.82603e-13
1.54537e-13
1.59631e-13
2.78096e-13
2.70862e-14
6.54058e-14
2.11872e-13
4.48864e-13
1.20304e-12
1.82375e-13
3.81137e-13
9.64692e-12
6.24046e-11
1.49265e-10
1.8774e-10
6.36448e-11
3.62506e-11
1.25939e-11
2.60929e-12
1.67349e-12
1.85547e-12
1.983e-12
3.46017e-12
3.29477e-13
6.68531e-13
1.73715e-12
2.93822e-12
8.63322e-12
1.40299e-12
1
1
1
1
1
1
1
1
1
1
1
1
1
1
1
1
1
1
1
1
1
1
0.999375
1
1
1
1
1
1
1
1
1
1
1
1
1
1
1
1
1
1
1
1
1
1
0.999618
0.999951
0.999944
0.999931
0.999898
0.999843
0.99975
0.999593
0.999325
0.998962
0.998387
0.997764
0.996952
0.996419
0.995852
0.996358
0.997298
0.999667
1
1
1
1
1
0.999912
0.947239
0.943985
0.938595
0.927665
0.913478
0.895373
0.872646
0.843974
0.814551
0.778779
0.747851
0.713024
0.692169
0.668978
0.67771
0.696948
0.74115
0.814328
0.911567
1
1
1
1
0.310743
0.303062
0.29029
0.267809
0.242197
0.213899
0.183535
0.150888
0.123333
0.0933042
0.0731406
0.0508306
0.0402974
0.028624
0.0298104
0.036275
0.0557121
0.0971159
0.180497
0.33345
0.570165
0.823573
0.998195
-3.80969e-39
-1.72885e-36
-4.4269e-36
8.81212e-34
1.25395e-32
1.73023e-31
-3.55541e-31
-2.04199e-30
-2.87779e-24
-1.78891e-28
-8.70289e-29
2.20657e-26
-1.78415e-26
1.63157e-27
-1.13049e-29
1.92801e-28
-2.60305e-27
0.000125669
0.00136888
0.00643667
0.0286305
0.125866
0.324328
3.10786e-19
2.18303e-17
9.04205e-16
2.42851e-14
3.95086e-13
5.70701e-12
1.75758e-11
1.45449e-11
-3.06503e-30
5.4498e-10
1.92925e-08
2.12412e-07
2.11079e-07
9.65819e-08
8.95636e-09
7.45475e-09
3.80641e-08
4.12095e-08
1.12164e-07
1.75401e-06
5.9194e-05
0.0013497
0.00885241
2.19816e-18
1.56665e-16
6.1128e-15
1.45038e-13
2.25263e-12
2.64902e-11
4.79253e-11
3.32156e-11
-1.10846e-30
6.11006e-09
8.60325e-07
2.31596e-06
1.79928e-06
2.57853e-07
2.41934e-09
2.23587e-09
1.92775e-07
1.06965e-06
2.35895e-07
1.73886e-07
2.00395e-07
3.59032e-07
8.35787e-06
4.62352e-18
3.17103e-16
1.15589e-14
2.46345e-13
3.81114e-12
3.99892e-11
5.41626e-11
3.86682e-11
3.70765e-30
6.23372e-07
2.48532e-06
2.48568e-06
1.88859e-06
1.68037e-07
1.32874e-08
2.37123e-09
2.18018e-09
7.19344e-06
2.57995e-05
1.92086e-05
4.00201e-06
3.12216e-07
3.12291e-07
5.72648e-18
3.87537e-16
1.37901e-14
2.83997e-13
4.33558e-12
4.21876e-11
5.03261e-11
6.24662e-11
-2.48893e-29
9.83357e-07
2.47092e-06
1.68748e-06
1.86837e-07
2.06344e-08
7.98234e-08
7.38398e-08
2.17619e-09
6.01633e-06
3.61e-05
4.04996e-05
4.0486e-05
4.04996e-05
2.34928e-05
5.82334e-18
3.87796e-16
1.3492e-14
2.68186e-13
3.57208e-12
3.42926e-11
2.36901e-11
2.73932e-10
1.13342e-10
1.1707e-07
2.53769e-07
1.30688e-11
1.30711e-11
1.30688e-11
8.44173e-08
1.64445e-07
5.43114e-08
4.96486e-11
2.57915e-07
5.36371e-06
1.07021e-05
1.3884e-05
1.17809e-05
4.48912e-18
2.88164e-16
9.46546e-15
1.73075e-13
1.7603e-12
1.71334e-11
4.28319e-12
9.29257e-10
1.41621e-08
2.63808e-11
2.62807e-11
1.59046e-10
7.72329e-10
1.49175e-08
8.97992e-10
8.9722e-10
4.96486e-11
4.96488e-11
3.08716e-16
3.00681e-16
3.08716e-16
3.00681e-16
6.28987e-08
2.06919e-18
1.28482e-16
4.07372e-15
7.19723e-14
7.35294e-13
6.3727e-12
4.28319e-12
1.20876e-09
1.13441e-09
3.8971e-10
5.47886e-11
4.59935e-10
1.39685e-09
2.90036e-09
2.17858e-09
1.16769e-09
5.57244e-10
2.24288e-10
7.49978e-11
2.794e-11
7.81429e-12
1.45353e-12
2.10383e-13
7.37811e-19
4.5101e-17
1.40906e-15
2.45802e-14
2.57468e-13
2.17758e-12
1.54558e-12
9.59568e-10
8.14281e-10
4.76077e-10
8.95514e-11
4.04906e-10
1.31434e-09
1.28777e-09
1.66794e-09
1.38918e-09
6.64946e-10
2.32782e-10
8.56629e-11
3.22855e-11
1.25638e-11
4.97126e-12
2.17876e-12
2.07717e-19
1.2508e-17
3.8718e-16
6.75742e-15
7.38813e-14
6.42213e-13
1.58132e-12
2.29819e-10
2.93098e-10
2.01203e-10
5.7357e-11
5.64037e-11
3.57732e-10
5.96349e-10
5.86852e-10
4.58644e-10
2.35839e-10
9.16733e-11
3.47669e-11
1.29833e-11
4.92623e-12
1.85318e-12
7.58199e-13
4.54015e-20
2.74867e-18
8.58915e-17
1.54011e-15
1.80891e-14
1.69678e-13
2.67566e-12
9.70026e-12
1.50977e-11
1.25262e-11
7.56057e-12
2.06518e-11
3.66378e-11
5.65043e-11
6.19362e-11
5.90411e-11
4.3968e-11
2.03065e-11
7.73738e-12
2.86075e-12
1.04444e-12
3.55138e-13
1.75084e-13
7.47426e-21
4.61061e-19
1.47955e-17
2.80427e-16
3.63924e-15
3.8242e-14
1.05466e-12
4.67422e-13
1.49353e-13
2.07805e-13
1.34111e-12
7.52225e-12
1.35387e-11
1.34351e-11
1.2271e-11
1.00431e-11
6.72221e-12
3.04177e-12
1.18703e-12
4.31429e-13
1.44334e-13
5.27712e-14
8.534e-14
8.84193e-22
5.77177e-20
1.97503e-18
4.12156e-17
6.02599e-16
6.30637e-15
1.38824e-13
1.94436e-13
1.31126e-13
8.89523e-14
4.07781e-13
1.8419e-12
2.75254e-12
2.6493e-12
2.2228e-12
1.54627e-12
7.98996e-13
3.37364e-13
1.27682e-13
4.348e-14
1.28828e-14
1.62148e-14
1.43427e-13
6.97354e-23
5.09154e-21
1.95144e-19
4.62339e-18
7.51716e-17
7.97144e-16
6.06963e-15
7.0255e-15
6.60284e-15
1.29225e-14
7.20029e-14
2.38055e-13
2.85493e-13
2.64154e-13
2.18084e-13
1.56512e-13
8.59795e-14
3.50403e-14
1.23603e-14
3.45787e-15
1.93562e-15
1.54795e-14
2.64105e-13
3.26266e-24
2.93873e-22
1.34153e-20
3.64386e-19
6.34912e-18
6.44634e-17
3.12155e-16
3.0215e-16
4.59916e-16
1.62579e-15
8.20751e-15
1.58791e-14
1.38507e-14
1.27667e-14
1.2969e-14
1.16072e-14
7.89605e-15
3.12352e-15
9.44895e-16
2.55468e-16
8.95654e-16
2.20005e-14
3.30428e-13
7.66793e-26
9.02675e-24
5.01347e-22
1.51713e-20
2.70512e-19
2.48324e-18
8.55412e-18
1.34853e-17
4.16063e-17
1.68616e-16
5.65662e-16
5.73825e-16
2.98512e-16
3.54456e-16
6.10879e-16
5.99143e-16
4.16631e-16
1.55421e-16
3.57203e-17
3.46168e-17
9.34708e-16
2.40718e-14
3.36691e-13
9.77729e-28
7.13179e-26
2.79932e-24
7.36185e-23
1.54964e-21
2.11911e-20
1.29489e-19
6.4989e-19
3.24439e-18
1.21147e-17
2.40377e-17
2.32471e-17
1.40631e-17
1.55013e-17
2.22788e-17
2.06231e-17
1.28566e-17
3.97859e-18
1.10976e-18
1.5998e-17
8.96001e-16
2.03307e-14
2.12593e-13
6.29644e-29
4.89055e-27
1.97576e-25
5.20984e-24
1.09522e-22
1.5583e-21
9.53078e-21
4.32543e-20
1.83996e-19
5.55795e-19
7.46658e-19
7.72582e-19
6.43002e-19
2.87676e-19
1.45582e-19
1.10025e-19
7.0389e-20
2.32891e-20
1.14759e-19
9.88413e-18
4.85181e-16
9.15579e-15
9.63112e-14
1.99882e-30
1.59976e-28
6.29589e-27
1.48863e-25
2.42451e-24
2.7363e-23
2.31674e-22
1.39595e-21
6.17016e-21
1.68477e-20
2.61548e-20
3.41779e-20
2.84737e-20
1.31715e-20
2.96683e-21
5.14614e-22
1.16077e-22
1.36404e-21
5.54279e-20
3.71558e-18
1.70054e-16
3.40837e-15
5.17313e-14
9.2649e-36
5.05897e-34
1.32508e-32
2.02412e-31
1.9402e-30
6.46423e-30
1.28784e-29
1.21112e-28
7.83342e-28
3.15683e-27
7.71817e-27
9.39636e-27
7.41273e-27
3.03104e-27
6.50978e-27
3.5729e-25
1.88596e-23
7.71864e-22
2.69382e-20
1.23512e-18
4.98965e-17
1.35665e-15
3.97781e-14
7.18828e-40
5.27152e-38
1.98518e-36
4.90655e-35
9.55084e-34
1.72846e-32
6.24161e-31
1.18695e-29
9.16206e-29
3.92563e-28
9.20779e-28
1.07246e-27
7.77081e-28
2.50475e-28
2.16546e-27
1.64053e-25
9.323e-24
3.97758e-22
1.28479e-20
4.27079e-19
1.65038e-17
8.51759e-16
3.85958e-14
4.19326e-43
2.97274e-41
1.04168e-39
2.26122e-38
3.44821e-37
3.81292e-36
3.22001e-35
2.0652e-34
1.04137e-33
4.29263e-33
1.62902e-32
1.86622e-31
1.7929e-31
6.65828e-30
7.46635e-28
6.52035e-26
3.99641e-24
1.79662e-22
5.87579e-21
1.97975e-19
1.1097e-17
8.14788e-16
4.08258e-14
1.29418e-48
1.17872e-46
5.41951e-45
1.59078e-43
3.38612e-42
5.47157e-41
7.061e-40
7.37237e-39
6.34144e-38
4.52363e-37
2.80149e-36
6.28899e-35
1.04267e-32
1.76451e-30
2.24838e-28
2.18773e-26
1.44772e-24
6.89465e-23
2.43944e-21
1.19111e-19
1.13259e-17
9.30561e-16
4.3613e-14
4.51143e-52
4.41605e-50
2.18869e-48
7.0184e-47
1.65923e-45
3.07696e-44
4.72346e-43
6.13818e-42
6.78462e-41
7.11139e-40
3.24583e-38
8.10774e-36
1.91279e-33
3.78772e-31
5.48374e-29
5.99479e-27
4.2863e-25
2.19138e-23
9.11297e-22
7.67597e-20
1.19373e-17
9.74174e-16
4.31399e-14
1.95696e-58
2.35051e-56
1.59175e-54
7.78872e-53
3.01833e-51
9.41029e-50
2.40207e-48
7.67111e-47
1.57647e-44
6.8612e-42
2.69803e-39
9.4404e-37
2.64665e-34
6.1871e-32
1.03378e-29
1.2788e-27
9.91484e-26
5.65076e-24
3.02637e-22
4.01485e-20
7.81799e-18
6.0517e-16
2.40939e-14
1.18983e-63
2.33522e-61
2.42204e-59
1.68994e-57
8.99791e-56
5.47311e-54
1.54812e-51
9.93615e-49
6.13281e-46
3.42348e-43
1.67515e-40
7.18382e-38
2.49087e-35
7.0148e-33
1.40698e-30
1.98608e-28
1.69839e-26
1.15692e-24
8.07148e-23
1.16891e-20
1.48482e-18
1.07505e-16
4.3443e-15
7.81202e-68
2.20554e-65
3.19866e-63
3.13997e-61
3.24631e-59
1.35149e-56
1.25449e-53
1.16809e-50
9.88186e-48
7.61007e-45
5.16583e-42
2.97323e-39
1.39726e-36
4.93648e-34
1.26847e-31
2.08784e-29
2.06352e-27
1.81259e-25
1.50458e-23
8.89853e-22
3.5534e-20
1.00317e-18
1.96875e-17
2.26112e-72
9.32849e-70
2.1588e-67
5.00072e-65
3.20708e-62
4.29416e-59
5.86337e-56
7.55648e-53
8.9302e-50
9.58123e-47
8.92231e-44
6.86319e-41
4.1716e-38
1.8817e-35
6.13771e-33
1.26386e-30
1.568e-28
1.90044e-26
2.12284e-24
1.56035e-22
7.54445e-21
2.62919e-19
6.79856e-18
3.82867e-76
1.98249e-73
5.94274e-71
1.96777e-68
1.83624e-65
3.25748e-62
6.29581e-59
1.17471e-55
2.0359e-52
3.30744e-49
4.48527e-46
5.3675e-43
4.98579e-40
3.53081e-37
1.71901e-34
4.92911e-32
7.99513e-30
1.26384e-27
1.92411e-25
1.86682e-23
1.13982e-21
4.78956e-20
1.30297e-18
2.08427e-80
1.5303e-77
6.61234e-75
2.9856e-72
3.53104e-69
9.06118e-66
2.59005e-62
7.64916e-59
2.0131e-55
4.90814e-52
1.00917e-48
1.86154e-45
2.45273e-42
2.63511e-39
1.74874e-36
7.6982e-34
1.76924e-31
3.7309e-29
8.61052e-27
1.30728e-24
1.2163e-22
7.57813e-21
2.6001e-19
7.08305e-85
7.35769e-82
4.52449e-79
2.62977e-76
3.43369e-73
1.16499e-69
4.7883e-66
2.05306e-62
8.128e-59
3.04092e-55
9.89885e-52
2.77457e-48
5.86959e-45
1.04629e-41
1.11234e-38
8.14948e-36
2.75144e-33
7.90461e-31
2.83162e-28
6.49482e-26
8.6628e-24
7.71379e-22
3.45666e-20
6.19238e-90
1.03106e-86
9.96364e-84
7.89021e-81
8.83472e-78
3.46091e-74
2.18194e-70
1.43556e-66
9.48484e-63
5.49585e-59
2.80502e-55
1.21533e-51
4.45716e-48
1.25376e-44
2.19908e-41
2.67152e-38
1.4876e-35
5.43973e-33
2.55276e-30
9.57242e-28
2.13096e-25
3.09288e-23
2.38541e-21
3.6265e-95
9.43672e-92
1.42804e-88
1.69857e-85
2.334e-82
1.04505e-78
9.39846e-75
9.0362e-71
8.67654e-67
7.42159e-63
6.03386e-59
4.28017e-55
2.68383e-51
1.40311e-47
4.01122e-44
8.30784e-41
6.57954e-38
3.5991e-35
3.45492e-32
2.14135e-29
7.39149e-27
1.70553e-24
1.62359e-22
3.59141e-101
1.99976e-97
1.14507e-93
9.49581e-90
9.35731e-86
7.9462e-82
1.17247e-77
1.45695e-73
1.16451e-69
5.75298e-66
2.65829e-62
1.43862e-58
9.95329e-55
7.67331e-51
3.30714e-47
8.18939e-44
9.04258e-41
7.30375e-38
9.04062e-35
7.23798e-32
3.55949e-29
1.17494e-26
2.24056e-24
1.03952e-102
7.23002e-98
2.61769e-93
5.83621e-89
7.36675e-85
6.04924e-81
5.16468e-77
4.62767e-73
2.865e-69
1.19708e-65
3.56367e-62
7.97925e-59
1.53677e-55
2.52843e-52
4.18522e-49
1.10126e-45
2.38798e-42
3.11212e-39
2.9212e-36
2.23235e-33
1.44722e-30
4.35898e-28
7.2156e-26
2.4865e-102
2.86234e-97
1.34916e-92
3.37965e-88
4.69943e-84
4.0052e-80
2.33739e-76
1.06956e-72
4.29031e-69
1.54183e-65
5.70619e-62
1.31812e-58
2.06556e-55
2.39819e-52
2.27743e-49
1.95119e-46
1.38743e-43
8.2846e-41
4.19611e-38
1.75918e-35
6.04996e-33
1.6112e-30
3.18974e-28
3.15038e-102
3.538e-97
2.22422e-92
8.50272e-88
1.44783e-83
1.37399e-79
8.1292e-76
3.26e-72
9.31587e-69
1.97726e-65
3.17723e-62
4.29223e-59
4.86685e-56
4.51321e-53
3.44606e-50
2.19818e-47
1.17333e-44
5.28819e-42
2.01275e-39
6.49248e-37
1.76745e-34
4.03355e-32
7.55812e-30
0.999703
0.999968
0.504815
0.0047756
0.999691
0.999968
0.972992
0.720035
0.999836
0.999913
0.998649
1
1
0.999978
0.999988
1
1
1
1
1
0.50886
0.64698
0.795105
0.893465
0.0188697
0.0437571
0.0922449
0.160045
3.2271e-05
0.000135336
0.000550026
0.0017206
3.19893e-07
6.33816e-07
1.71688e-06
4.47208e-06
2.26679e-06
4.36906e-09
2.70625e-09
5.48925e-09
4.81472e-06
1.21419e-08
2.34051e-10
2.34053e-10
1.39063e-07
1.20719e-07
2.36892e-08
9.65276e-10
2.10238e-13
2.10383e-13
4.44329e-11
9.78221e-11
8.1316e-13
3.2445e-13
2.09423e-13
2.09483e-13
4.34868e-13
3.1843e-13
2.81781e-13
2.90822e-13
1.72666e-13
1.87805e-13
2.45631e-13
4.84093e-13
1.48619e-13
2.5568e-13
5.94445e-13
1.66533e-12
3.61359e-13
6.9573e-13
1.88937e-12
4.52471e-12
6.74921e-13
1.31488e-12
3.73575e-12
6.66636e-12
8.41402e-13
1.65032e-12
5.58608e-12
7.36634e-12
8.53274e-13
1.70421e-12
6.39293e-12
5.6627e-12
5.68655e-13
1.52063e-12
8.78698e-12
7.41609e-12
3.81267e-13
1.72277e-12
1.40588e-11
1.65324e-11
3.67453e-13
2.90054e-12
1.8074e-11
3.07729e-11
4.67846e-13
3.83771e-12
2.06887e-11
3.79882e-11
5.47287e-13
4.40591e-12
2.24035e-11
4.64969e-11
6.1362e-13
4.87266e-12
2.61704e-11
7.80463e-11
6.76398e-13
5.56333e-12
3.192e-11
9.63462e-11
6.903e-13
5.6805e-12
3.20531e-11
8.46029e-11
3.80098e-13
2.98778e-12
1.57417e-11
3.20528e-11
7.29409e-14
6.05704e-13
3.17939e-12
5.6555e-12
1.90755e-16
6.91118e-16
1.34025e-15
5.65946e-15
8.92571e-17
7.71653e-16
3.64072e-15
1.4815e-14
1.65532e-17
1.21379e-16
7.75044e-16
4.61657e-15
3.91496e-18
3.35866e-17
2.48211e-16
1.66437e-15
6.33263e-19
6.53113e-18
5.78519e-17
4.56618e-16
5.98994e-20
8.08381e-19
9.1342e-18
8.96746e-17
5.13431e-21
8.49368e-20
1.15548e-18
1.34416e-17
1.18266e-22
3.14251e-21
6.64269e-20
1.15644e-18
4.89117e-24
1.71062e-22
4.78033e-21
1.07979e-19
3.26098e-26
1.83327e-24
8.66881e-23
3.38971e-21
8.30508e-28
5.10356e-26
2.67702e-24
1.18253e-22
3.81133e-13
2.49532e-11
3.21358e-10
5.75077e-10
5.9508e-10
5.79332e-10
4.44668e-10
1.66194e-10
2.62756e-11
1.77261e-11
2.78075e-11
2.8065e-11
5.83995e-11
4.60175e-12
6.62559e-12
1.46957e-11
2.36558e-11
7.83326e-11
1.05796e-11
0.0546801
3.66368e-16
3.66294e-16
3.66378e-16
8.4226e-11
3.63187e-10
7.41765e-10
4.18483e-10
2.01185e-10
3.79587e-10
7.65436e-10
9.5331e-10
2.62658e-09
1.67423e-10
4.78278e-11
1.02835e-10
1.87543e-10
6.83503e-10
3.39625e-11
0.742685
0.344782
0.12119
0.00672688
3.65309e-16
3.65108e-16
3.6531e-16
3.65108e-16
4.43614e-11
7.34789e-10
2.94038e-09
1.10539e-08
5.30678e-08
8.49086e-08
4.09449e-09
3.29565e-09
7.28121e-10
1.74869e-09
4.09241e-11
0.993483
0.953474
0.838949
0.657734
0.51974
0.376275
0.179225
0.0508628
3.63718e-16
3.64291e-16
3.63752e-16
1.14051e-09
6.57537e-08
8.45903e-07
1.17966e-06
4.57943e-07
9.10747e-09
1.39766e-09
4.09241e-11
1
0.999915
0.998735
0.994419
0.988729
0.968676
0.889416
0.766925
0.617679
0.400538
0.146557
3.83314e-11
3.83138e-11
3.83314e-11
2.24971e-06
5.81205e-06
1.12835e-05
2.32782e-10
2.32783e-10
0.979301
1
1
1
1
1
1
1
0.996869
0.972161
0.888996
0.691309
0.352047
0.013791
9.1471e-07
9.14706e-07
2.63797e-05
3.46236e-06
3.04482e-07
0.309022
0.519428
0.641691
0.728503
0.788891
0.843441
0.896897
0.943033
0.994618
0.99996
0.99996
0.999541
0.960494
0.774975
0.360779
0.01214
2.63798e-05
0.000270708
0.000112851
0.0066118
0.0167747
0.0374176
0.0686845
0.106312
0.151668
0.216658
0.304922
0.40863
0.556931
0.742146
0.957043
0.999912
0.999912
0.956967
0.651048
0.123559
0.0122577
0.0103039
8.77138e-06
1.42465e-05
3.27815e-05
0.000109043
0.000306986
0.000759674
0.00196769
0.00490685
0.0104039
0.025125
0.0840819
0.240699
0.551278
0.957298
0.980577
0.98068
0.717015
0.175207
0.0362979
6.79905e-09
5.11042e-09
5.78331e-09
1.66465e-08
5.43626e-08
8.64726e-08
1.51278e-07
6.82102e-07
3.92328e-06
3.24499e-05
0.000588933
0.00381443
0.0214114
0.259622
0.808638
0.980577
0.938609
0.529668
0.0995647
2.34051e-10
2.19207e-10
1.34709e-10
2.07412e-11
1.34829e-09
6.45559e-08
6.25911e-08
2.5168e-08
5.32093e-09
1.56e-09
1.56006e-09
3.44542e-06
0.000769381
5.19139e-09
0.287738
0.876067
0.935836
0.743266
0.213706
2.82409e-10
2.08419e-10
9.27681e-11
2.07426e-11
2.64409e-10
2.16286e-08
3.71976e-08
2.01366e-08
2.11303e-09
8.62995e-10
1.95898e-09
3.31507e-08
1.11942e-07
5.19209e-09
1.64956e-11
0.565717
0.929568
0.83619
0.267035
6.46698e-11
2.98441e-11
1.85531e-11
3.2389e-11
2.3906e-10
1.02299e-09
4.57309e-09
6.15389e-09
3.12882e-09
8.6302e-10
8.64527e-10
1.02822e-09
6.90422e-09
3.70195e-09
1.87213e-11
0.303597
0.90698
0.856769
0.260665
2.50781e-13
1.43269e-12
2.70827e-12
5.18506e-12
2.20896e-11
8.53113e-11
4.34244e-10
1.5692e-09
1.65129e-09
9.20821e-10
8.28317e-10
8.28586e-10
1.83035e-09
2.55978e-09
1.64956e-11
0.15833
0.827083
0.810621
0.260663
4.34919e-13
2.69123e-11
6.89131e-11
5.06521e-11
2.37342e-11
1.94662e-11
5.84332e-11
4.86957e-10
1.97515e-09
3.4195e-09
2.57202e-09
1.23879e-09
1.21378e-09
6.65337e-10
1.17742e-05
0.0681187
0.756703
0.810618
0.280656
4.34923e-13
7.98747e-11
1.80698e-09
7.10698e-09
3.37192e-09
1.03407e-10
1.61361e-11
1.63273e-11
2.04987e-09
6.11776e-09
6.43069e-09
3.07658e-09
9.05425e-10
6.65324e-10
1.76849e-05
0.0372912
0.646419
0.81076
0.352752
1.1048e-12
8.82797e-13
1.2267e-08
1.68963e-07
2.17119e-07
1.34019e-07
2.4957e-08
3.6857e-09
2.39351e-09
5.9078e-09
6.94773e-09
5.52681e-09
1.55274e-09
6.95096e-10
2.95105e-11
0.0540677
0.503199
0.673693
0.29229
2.63057e-12
8.80448e-13
2.15819e-08
1.98852e-07
3.80814e-07
3.81168e-07
2.64723e-07
2.40423e-08
1.31728e-09
2.38397e-09
6.17882e-09
5.45329e-09
1.87124e-09
7.0985e-10
2.95106e-11
0.0666877
0.641965
0.394758
0.10781
2.31818e-12
1.93173e-08
1.32164e-08
1.03559e-09
2.68391e-07
1.51652e-06
2.95105e-11
2.95106e-11
2.95105e-11
2.95106e-11
2.33892e-09
3.38191e-09
1.52268e-09
6.00679e-10
2.95105e-11
0.195771
0.641979
0.50814
0.107769
2.31824e-12
1.10252e-07
3.7822e-08
1.03602e-09
1.1506e-05
2.82371e-05
8.7884e-05
7.09741e-05
8.34234e-06
6.60277e-07
6.52504e-09
6.03125e-10
4.47573e-10
2.37632e-10
2.95106e-11
0.0750325
0.623905
0.65092
0.162296
2.31818e-12
1.54852e-06
2.24646e-07
1.03559e-09
0.000116423
0.000164259
0.000164259
0.000164259
0.000108362
5.18273e-06
8.3034e-10
4.58938e-11
4.58016e-11
1.25652e-09
1.95968e-10
1.95978e-10
0.246539
0.651416
0.253222
9.40055e-12
1.69866e-06
2.2459e-07
8.23654e-05
0.000164259
0.000164259
0.000164259
0.000164259
0.000102682
2.81474e-06
3.46362e-08
1.23281e-07
5.11062e-08
8.37902e-09
1.95978e-10
0.00106845
0.00922177
0.223671
0.253289
9.40032e-12
7.87805e-07
5.78556e-06
0.000110475
0.000105423
4.71572e-05
3.93149e-05
3.61838e-05
1.89749e-05
8.69388e-07
5.27099e-08
3.74146e-07
3.74146e-07
8.31418e-09
7.87035e-05
0.00107864
0.000601543
0.000422729
0.175264
1.03375e-11
6.27404e-12
2.06849e-05
9.24319e-05
3.00651e-06
9.49264e-06
4.42201e-05
2.30695e-05
7.16706e-08
7.1672e-08
4.89629e-08
2.47395e-07
1.87807e-07
8.31411e-09
0.000303698
0.00038292
8.95221e-05
5.86235e-07
0.0240009
1.15672e-11
6.27352e-12
2.681e-05
3.15501e-05
3.00656e-06
3.18887e-05
5.9747e-05
5.9747e-05
2.83392e-05
5.18957e-07
8.31411e-09
8.31418e-09
8.31411e-09
8.31418e-09
0.000194283
8.96512e-05
1.53926e-05
5.86357e-07
6.6971e-05
1.15668e-11
2.61102e-07
1.09882e-06
3.16194e-07
3.96686e-07
1.02724e-05
3.79134e-05
4.29086e-05
2.23523e-05
1.17666e-05
1.02823e-05
6.08398e-06
3.9765e-06
2.09422e-05
2.27916e-05
5.95034e-06
1.41675e-06
3.81778e-07
4.10527e-08
3.30742e-10
1.47701e-08
1.477e-08
4.0985e-07
1.22424e-07
3.18733e-07
8.95695e-07
1.83343e-06
1.31293e-06
3.79601e-06
4.91153e-06
4.9075e-06
6.80161e-06
1.58576e-05
1.03635e-06
8.66838e-08
8.54284e-08
9.70166e-08
7.71387e-09
1.53275e-10
1.53275e-10
2.50737e-07
7.70871e-06
2.9799e-06
7.77516e-11
7.77516e-11
1.29858e-10
5.48905e-10
9.52086e-09
6.57007e-09
2.43088e-07
1.20504e-06
6.47832e-07
6.47889e-07
1.34796e-05
2.37843e-06
1.55824e-08
2.2264e-09
1.2968e-10
5.8431e-10
2.39323e-07
5.14178e-06
1.03407e-05
1.63159e-06
2.89724e-11
2.89692e-11
3.41967e-11
3.35059e-11
3.35041e-11
3.35059e-11
3.35041e-11
0.000244235
0.000261963
2.25725e-05
5.98184e-07
3.15873e-09
8.91852e-10
4.40005e-11
4.34115e-10
1.74587e-09
1.44606e-09
6.1858e-06
2.12922e-05
6.33394e-06
2.48415e-07
1.96993e-11
0.00359976
0.168383
0.357451
0.142486
0.00786466
0.000135224
3.89113e-06
6.0496e-08
9.87915e-10
5.06169e-10
5.53846e-12
7.22904e-13
7.22824e-13
3.14165e-09
1.88106e-06
2.1433e-05
2.14326e-05
3.13668e-06
1.97591e-11
0.0667761
0.462624
0.471739
0.403397
0.0479837
8.4376e-05
3.83243e-07
6.63931e-09
4.95185e-10
3.46595e-10
7.2629e-14
7.71084e-13
6.92693e-12
3.47096e-09
2.07178e-06
1.72691e-05
1.97003e-05
2.38429e-06
1.96993e-11
0.0487383
0.371098
0.471713
0.326275
0.0286442
3.61636e-05
3.7646e-08
1.10059e-09
3.81567e-10
2.54936e-10
8.51254e-14
5.56821e-13
3.17731e-12
6.25303e-12
1.88058e-12
1.80378e-12
7.35448e-06
1.52875e-06
1.97591e-11
0.00899155
0.079846
0.137922
0.0637237
0.00775759
6.86658e-05
4.80781e-08
5.42662e-10
3.01146e-10
1.97464e-10
4.19998e-14
4.65507e-13
3.90235e-12
2.33056e-11
3.77631e-10
3.33874e-07
1.38141e-05
1.58663e-05
0.000180593
0.000370234
0.000532166
0.000691302
0.000331766
0.000311067
7.40309e-05
3.19381e-07
2.42315e-10
2.42314e-10
1.67479e-10
1.67185e-14
2.17412e-13
3.00949e-12
4.17811e-11
1.62715e-09
5.35425e-08
8.55083e-08
9.5675e-06
5.94158e-05
3.41689e-06
9.7014e-08
1.02479e-08
2.268e-09
7.92568e-09
3.188e-06
1.29567e-06
2.07594e-07
4.83998e-10
1.32895e-10
5.0696e-15
5.80699e-14
4.83545e-13
2.45341e-12
3.55975e-12
3.56222e-12
3.57081e-12
3.65112e-12
1.17245e-09
1.83984e-09
4.82008e-12
4.90366e-12
9.98144e-12
9.98141e-12
8.64984e-07
7.1801e-06
8.3261e-08
2.67533e-10
1.041e-10
1.22727e-15
1.68261e-14
1.65982e-13
1.16545e-12
5.46569e-12
9.32333e-12
1.05919e-11
1.01961e-11
6.16044e-12
5.04349e-12
4.81752e-12
9.33733e-12
1.64989e-11
9.36981e-10
2.76113e-06
1.40298e-05
1.73736e-06
3.07675e-11
4.91442e-11
2.1751e-16
3.50382e-15
4.08644e-14
3.43716e-13
2.05478e-12
7.5458e-12
1.15817e-11
1.16447e-11
9.03896e-12
5.35472e-12
5.47452e-12
1.30207e-11
2.86132e-11
2.65315e-09
2.58045e-06
1.45027e-05
1.32342e-05
3.07675e-11
3.07675e-11
2.72627e-17
5.76907e-16
8.37795e-15
8.60403e-14
6.26376e-13
3.23359e-12
8.18402e-12
1.04976e-11
9.47248e-12
5.91448e-12
5.22994e-12
1.37096e-11
4.48804e-11
1.11795e-09
6.14749e-07
1.11167e-05
1.49211e-05
6.26276e-06
3.07675e-11
3.21592e-18
8.10737e-17
1.34677e-15
1.57404e-14
1.31168e-13
7.98011e-13
3.43305e-12
6.98355e-12
8.05129e-12
5.95414e-12
4.11282e-12
9.32608e-12
5.06053e-11
4.41316e-10
6.48459e-08
2.82381e-06
1.46013e-05
1.45967e-05
1.19691e-05
1.75363e-19
7.09974e-18
1.6533e-16
2.45027e-15
2.44873e-14
1.7273e-13
8.60434e-13
2.95349e-12
4.75544e-12
4.89105e-12
2.97508e-12
3.4488e-12
2.66604e-11
2.58298e-10
7.50881e-09
1.93372e-07
3.00846e-06
8.65923e-06
4.68336e-06
7.06441e-21
3.75087e-19
1.16205e-17
2.22058e-16
2.77074e-15
2.40884e-14
1.42941e-13
6.06076e-13
1.44337e-12
2.02072e-12
1.72315e-12
9.17731e-13
3.22012e-12
3.69528e-11
4.06242e-10
3.17039e-09
2.10243e-08
1.57448e-07
1.32754e-08
)
;

boundaryField
{
    leftWall
    {
        type            zeroGradient;
    }
    rightWall
    {
        type            zeroGradient;
    }
    lowerWall
    {
        type            zeroGradient;
    }
    atmosphere
    {
        type            inletOutlet;
        inletValue      uniform 0;
        value           nonuniform List<scalar> 
46
(
0
0
0
0
0
0
0
0
0
0
0
0
0
0
0
0
0
0
0
0
0
0
0
0
0
0
0
0
0
0
0
0
0
1.42941e-13
6.06076e-13
1.44337e-12
2.02072e-12
1.72315e-12
9.17731e-13
3.22012e-12
3.69528e-11
4.06242e-10
3.17039e-09
2.10243e-08
1.57448e-07
1.32754e-08
)
;
    }
    defaultFaces
    {
        type            empty;
    }
}


// ************************************************************************* //
