/*--------------------------------*- C++ -*----------------------------------*\
| =========                 |                                                 |
| \\      /  F ield         | OpenFOAM: The Open Source CFD Toolbox           |
|  \\    /   O peration     | Version:  2012                                  |
|   \\  /    A nd           | Website:  www.openfoam.com                      |
|    \\/     M anipulation  |                                                 |
\*---------------------------------------------------------------------------*/
FoamFile
{
    version     2.0;
    format      ascii;
    class       surfaceScalarField;
    location    "0.05";
    object      alphaPhi0.water;
}
// * * * * * * * * * * * * * * * * * * * * * * * * * * * * * * * * * * * * * //

dimensions      [0 3 -1 0 0 0 0];
oriented        oriented;


internalField   nonuniform List<scalar> 
4432
(
2.87056e-06
-2.87056e-06
5.88264e-06
-3.01198e-06
8.93873e-06
-3.05608e-06
1.21342e-05
-3.19544e-06
1.55367e-05
-3.40252e-06
1.92272e-05
-3.69049e-06
2.33155e-05
-4.08833e-06
2.79587e-05
-4.64323e-06
3.33961e-05
-5.4373e-06
4.00091e-05
-6.61299e-06
4.86282e-05
-8.61911e-06
5.95856e-05
-1.09573e-05
7.52845e-05
-1.64239e-05
5.92735e-05
-1.63984e-05
6.44044e-06
-2.61649e-06
2.5536e-06
2.23823e-07
8.22778e-07
3.67411e-07
1.76621e-07
2.48128e-07
2.6061e-08
6.54523e-08
3.00901e-09
1.00066e-08
4.30712e-10
1.24421e-09
1.42561e-10
1.38195e-10
7.50975e-12
2.86608e-06
-5.73659e-06
5.8708e-06
-6.01663e-06
8.91936e-06
-6.10467e-06
1.21046e-05
-6.3807e-06
1.54929e-05
-6.79091e-06
1.91633e-05
-7.36078e-06
2.32213e-05
-8.14636e-06
2.78174e-05
-9.23933e-06
3.31692e-05
-1.0789e-05
3.96571e-05
-1.3101e-05
4.77515e-05
-1.67134e-05
5.79066e-05
-2.11126e-05
6.45066e-05
-3.05902e-05
3.33493e-05
-2.78157e-05
4.49697e-06
-5.40964e-06
1.99819e-06
-3.0086e-07
6.53752e-07
3.91638e-07
1.60559e-07
3.10202e-07
2.76026e-08
9.94403e-08
3.39533e-09
1.8304e-08
4.39136e-10
2.49784e-09
1.02737e-10
3.19911e-10
1.89468e-11
2.84866e-06
-8.58525e-06
5.83117e-06
-8.99916e-06
8.85622e-06
-9.12974e-06
1.20131e-05
-9.53752e-06
1.53649e-05
-1.01428e-05
1.8986e-05
-1.09818e-05
2.29738e-05
-1.21341e-05
2.74631e-05
-1.37286e-05
3.26418e-05
-1.59676e-05
3.88246e-05
-1.92838e-05
4.63154e-05
-2.42041e-05
5.61258e-05
-3.09231e-05
5.23428e-05
-4.36436e-05
8.85016e-06
-2.50651e-05
2.72968e-06
-4.17466e-06
9.95995e-07
-1.89864e-07
2.66783e-07
2.03904e-07
4.02868e-08
1.19372e-07
-5.50711e-09
3.62263e-08
-6.46024e-10
4.6958e-09
-2.45864e-11
8.99024e-10
4.38469e-11
1.61684e-10
1.44004e-11
2.82224e-06
-1.14075e-05
5.77201e-06
-1.1949e-05
8.7621e-06
-1.21198e-05
1.1877e-05
-1.26524e-05
1.51753e-05
-1.34411e-05
1.87246e-05
-1.4531e-05
2.26109e-05
-1.60204e-05
2.69481e-05
-1.80659e-05
3.18875e-05
-2.09071e-05
3.76572e-05
-2.50536e-05
4.44384e-05
-3.09853e-05
5.30239e-05
-3.95085e-05
3.95892e-05
-5.28629e-05
4.31068e-06
-1.93204e-05
1.48224e-06
-3.17626e-06
4.06751e-07
6.67849e-08
1.00436e-07
1.56543e-07
1.94382e-08
4.57776e-08
1.84049e-09
7.54584e-09
-3.02681e-11
1.83978e-09
-8.37928e-12
3.92089e-10
2.07086e-11
8.46701e-11
9.87176e-12
2.78726e-06
-1.41948e-05
5.69422e-06
-1.4856e-05
8.63857e-06
-1.50641e-05
1.1699e-05
-1.57128e-05
1.49282e-05
-1.66704e-05
1.83857e-05
-1.79885e-05
2.21439e-05
-1.97785e-05
2.62934e-05
-2.22154e-05
3.09442e-05
-2.55579e-05
3.62392e-05
-3.03486e-05
4.22343e-05
-3.69804e-05
4.93477e-05
-4.6622e-05
2.90226e-05
-5.76794e-05
2.90769e-06
-1.4966e-05
6.24627e-07
-2.02866e-06
1.21958e-07
1.60804e-07
3.06148e-08
9.39948e-08
7.54197e-09
2.33288e-08
7.60577e-10
3.94097e-09
-1.75675e-12
7.83604e-10
-8.33994e-12
1.6981e-10
9.70206e-12
4.15119e-11
6.19837e-12
2.74419e-06
-1.6939e-05
5.59905e-06
-1.77109e-05
8.48773e-06
-1.79528e-05
1.14822e-05
-1.87073e-05
1.46289e-05
-1.9817e-05
1.79778e-05
-2.13375e-05
2.15872e-05
-2.33879e-05
2.55236e-05
-2.61518e-05
2.98547e-05
-2.98891e-05
3.46524e-05
-3.51463e-05
3.98444e-05
-4.21724e-05
4.56216e-05
-5.23992e-05
2.08982e-05
-5.91664e-05
1.95684e-06
-1.14037e-05
2.40154e-07
-1.02435e-06
2.99592e-08
1.7305e-07
8.38472e-09
5.02351e-08
2.52041e-09
1.05445e-08
3.49171e-10
1.82539e-09
6.1209e-12
3.45942e-10
-4.21234e-12
7.39933e-11
4.63844e-12
1.93281e-11
3.56091e-12
2.69393e-06
-1.96329e-05
5.48836e-06
-2.05054e-05
8.31277e-06
-2.07772e-05
1.12318e-05
-2.16263e-05
1.42849e-05
-2.28701e-05
1.75127e-05
-2.45653e-05
2.0959e-05
-2.68342e-05
2.46678e-05
-2.98607e-05
2.86692e-05
-3.38904e-05
3.29755e-05
-3.94526e-05
3.73831e-05
-4.658e-05
4.19767e-05
-5.69928e-05
1.49068e-05
-5.88631e-05
1.2104e-06
-8.74718e-06
7.01813e-08
-3.22675e-07
6.71803e-09
1.42089e-07
2.68129e-09
2.69931e-08
9.14516e-10
4.82283e-09
1.50512e-10
8.55827e-10
7.06983e-12
1.59321e-10
-1.39531e-12
3.33083e-11
2.04827e-12
8.60981e-12
1.9151e-12
2.63746e-06
-2.22703e-05
5.36314e-06
-2.32311e-05
8.1159e-06
-2.353e-05
1.09516e-05
-2.4462e-05
1.39028e-05
-2.58213e-05
1.7001e-05
-2.76636e-05
2.02768e-05
-3.011e-05
2.37542e-05
-3.33381e-05
2.74375e-05
-3.75737e-05
3.13084e-05
-4.33235e-05
3.49475e-05
-5.02191e-05
3.84879e-05
-6.05332e-05
1.08019e-05
-5.79187e-05
6.47461e-07
-7.0242e-06
1.02481e-08
4.70422e-08
7.77063e-10
1.05131e-07
7.79182e-10
1.54473e-08
2.90332e-10
2.31638e-09
5.56517e-11
3.96659e-10
4.07601e-12
7.2498e-11
-5.03852e-13
1.49901e-11
5.62983e-13
3.84895e-12
1.03986e-12
1.38468e-27
-1.02109e-26
2.7468e-29
-2.78994e-28
1.18069e-30
-7.22834e-30
8.26989e-32
-1.74152e-31
1.29572e-33
-4.05162e-33
2.84985e-35
1.3023e-35
8.84603e-37
7.36317e-37
2.31198e-38
3.00006e-38
5.56658e-40
9.73166e-40
1.19225e-41
2.70159e-41
2.23739e-43
6.53822e-43
3.61143e-45
1.37928e-44
4.89307e-47
2.51607e-46
5.38218e-49
3.90452e-48
4.57175e-51
5.03735e-50
2.76742e-53
5.18613e-52
1.4238e-55
4.00813e-54
4.06995e-56
2.08634e-56
1.06133e-58
1.12043e-25
-5.3788e-25
2.90843e-27
-3.86032e-26
9.87302e-29
-9.99381e-28
5.66076e-30
-2.26239e-29
1.12779e-31
-3.02659e-31
2.82134e-33
4.54802e-33
8.48717e-35
2.7321e-34
2.28128e-36
1.13216e-35
5.60557e-38
3.74468e-37
1.22534e-39
1.06008e-38
2.34695e-41
2.61504e-40
3.86656e-43
5.62751e-42
5.34719e-45
1.04801e-43
6.00421e-47
1.66124e-45
5.20641e-49
2.18626e-47
3.21743e-51
2.29745e-49
1.23266e-53
1.81676e-51
6.638e-56
9.72295e-54
2.59146e-56
4.77216e-24
-3.06578e-23
1.17858e-25
-2.23806e-24
4.13056e-27
-5.73116e-26
2.16445e-28
-1.2187e-27
4.69904e-30
-1.28053e-29
1.24576e-31
3.0393e-31
3.75433e-33
1.86051e-32
1.01086e-34
7.57742e-34
2.47138e-36
2.48274e-35
5.37321e-38
6.97879e-37
1.02348e-39
1.71128e-38
1.6768e-41
3.66199e-40
2.30596e-43
6.77968e-42
2.57472e-45
1.06825e-43
2.21994e-47
1.40096e-45
1.5261e-49
1.46577e-47
7.10877e-52
1.1518e-49
4.07751e-54
6.15011e-52
1.66674e-54
1.37492e-22
-1.06191e-21
3.41852e-24
-7.91067e-23
1.17041e-25
-1.9799e-24
5.35024e-27
-3.9025e-26
1.30994e-28
-2.88311e-28
3.82441e-30
1.25356e-29
1.14288e-31
7.74783e-31
3.08492e-33
3.09689e-32
7.5203e-35
1.00649e-33
1.6295e-36
2.81444e-35
3.09242e-38
6.87156e-37
5.04675e-40
1.46436e-38
6.9121e-42
2.70336e-40
8.24544e-44
4.24857e-42
7.87423e-46
5.54788e-44
5.58188e-48
5.78586e-46
2.66651e-50
4.52471e-48
1.68807e-52
2.42955e-50
6.59777e-53
2.98131e-21
-2.53569e-20
7.66039e-23
-1.92618e-21
2.49563e-24
-4.69068e-23
1.02676e-25
-8.45967e-25
2.76086e-27
-3.25848e-27
8.84673e-29
3.93349e-28
2.635e-30
2.29186e-29
7.11839e-32
8.97526e-31
1.73046e-33
2.89161e-32
3.73669e-35
8.04068e-34
7.06382e-37
1.95413e-35
1.20554e-38
4.15218e-37
1.76857e-40
7.6383e-39
2.14258e-42
1.1964e-40
2.05942e-44
1.55475e-42
1.47279e-46
1.6129e-44
7.20001e-49
1.25481e-46
4.89401e-51
6.77676e-49
1.84379e-51
5.07891e-20
-4.57146e-19
1.37455e-21
-3.5562e-20
4.17066e-23
-8.18195e-22
1.55023e-24
-1.30204e-23
4.92476e-26
1.07806e-26
1.61567e-27
9.62107e-27
4.80797e-29
5.14719e-28
1.2976e-30
1.97315e-29
3.14528e-32
6.29783e-31
6.94743e-34
1.74084e-32
1.3888e-35
4.2164e-34
2.40305e-37
8.92593e-36
3.52948e-39
1.63446e-37
4.28375e-41
2.54609e-39
4.12917e-43
3.2903e-41
2.9662e-45
3.39419e-43
1.47608e-47
2.62612e-45
1.07144e-49
1.41335e-47
3.88678e-50
7.93842e-19
-1.87686e-17
2.04537e-20
-2.36127e-18
5.81663e-22
-1.99723e-20
2.1552e-23
-1.95581e-22
7.3185e-25
1.29412e-24
2.3886e-26
1.82937e-25
7.10911e-28
9.08208e-27
1.91488e-29
3.40786e-28
4.82594e-31
1.07709e-29
1.10086e-32
2.96503e-31
2.2008e-34
7.14251e-33
3.80425e-36
1.50374e-34
5.58257e-38
2.73741e-36
6.77214e-40
4.239e-38
6.52889e-42
5.44521e-40
4.69622e-44
5.58367e-42
2.34878e-46
4.29446e-44
1.8432e-48
2.29409e-46
6.3963e-49
2.13793e-17
-3.78205e-16
2.63354e-19
-1.32822e-17
6.83148e-21
-3.15577e-19
2.44215e-22
-3.46972e-21
8.45707e-24
3.03563e-23
2.77694e-25
2.57177e-24
8.25842e-27
1.19957e-25
2.26516e-28
4.41559e-27
5.8374e-30
1.38431e-28
1.32958e-31
3.78781e-30
2.65104e-33
9.0796e-32
4.56932e-35
1.90063e-33
6.68541e-37
3.4402e-35
8.08721e-39
5.29648e-37
7.77783e-41
6.76395e-39
5.58414e-43
6.8959e-41
2.78785e-45
5.27298e-43
2.50293e-47
2.79233e-45
7.90039e-48
5.39805e-06
-2.76684e-05
1.09494e-05
-2.87826e-05
1.6544e-05
-2.91245e-05
2.22768e-05
-3.01948e-05
2.81952e-05
-3.17397e-05
3.43393e-05
-3.38076e-05
4.07376e-05
-3.65084e-05
4.73911e-05
-3.99915e-05
5.42642e-05
-4.44468e-05
6.11274e-05
-5.01868e-05
6.81017e-05
-5.71934e-05
7.39253e-05
-6.63568e-05
1.50567e-05
-5.34354e-05
4.55344e-07
-3.85219e-06
-1.85006e-08
2.56181e-07
-2.44309e-09
5.23146e-08
6.53032e-11
5.86314e-09
8.1429e-11
7.06036e-10
2.184e-11
1.00554e-10
3.01837e-12
1.6727e-11
1.07585e-13
3.13648e-12
2.07325e-13
6.90058e-13
1.68298e-13
2.57272e-13
5.06287e-06
-3.27312e-05
1.02288e-05
-3.39485e-05
1.54196e-05
-3.43153e-05
2.06956e-05
-3.54708e-05
2.60769e-05
-3.71211e-05
3.15719e-05
-3.93026e-05
3.7169e-05
-4.21055e-05
4.28222e-05
-4.56447e-05
4.8432e-05
-5.00566e-05
5.3785e-05
-5.55398e-05
5.86463e-05
-6.20547e-05
6.2321e-05
-7.00315e-05
6.82248e-06
-4.72817e-05
6.66477e-08
-2.14619e-06
-1.0699e-08
2.16812e-07
-7.74716e-10
2.76108e-08
6.10341e-11
2.73573e-09
3.4089e-11
3.02284e-10
8.94832e-12
3.77139e-11
1.95957e-12
5.38779e-12
3.62058e-13
8.72091e-13
6.4081e-14
1.55791e-13
3.08779e-14
2.36219e-14
4.69656e-06
-3.74278e-05
9.44845e-06
-3.87004e-05
1.42101e-05
-3.9077e-05
1.90106e-05
-4.02713e-05
2.38487e-05
-4.19592e-05
2.87102e-05
-4.41641e-05
3.35588e-05
-4.69542e-05
3.83241e-05
-5.04101e-05
4.2886e-05
-5.46185e-05
4.7043e-05
-5.96968e-05
5.05341e-05
-6.55458e-05
5.29423e-05
-7.24397e-05
3.40193e-06
-4.1285e-05
-1.73234e-08
-1.12406e-06
-8.50782e-09
1.54992e-07
-7.80243e-10
1.3862e-08
-5.66961e-11
1.19938e-09
-1.0442e-12
1.19104e-10
8.20279e-13
1.31942e-11
2.79229e-13
1.60397e-12
7.47782e-14
2.14648e-13
2.04409e-14
3.37065e-14
6.12761e-15
6.5931e-15
4.31265e-06
-4.17404e-05
8.6391e-06
-4.30268e-05
1.29638e-05
-4.34018e-05
1.72896e-05
-4.45971e-05
2.16001e-05
-4.62697e-05
2.58671e-05
-4.84311e-05
3.00413e-05
-5.11284e-05
3.40443e-05
-5.44131e-05
3.77585e-05
-5.83326e-05
4.10091e-05
-6.29474e-05
4.35867e-05
-6.81235e-05
4.52275e-05
-7.40805e-05
1.41221e-06
-3.58916e-05
-2.7142e-08
-5.1671e-07
-4.27564e-09
1.04274e-07
-3.69178e-10
7.26216e-09
-3.14878e-11
5.46591e-10
-2.21498e-12
4.81493e-11
-2.03328e-14
4.73595e-12
4.38058e-14
4.98095e-13
1.64118e-14
6.00551e-14
5.7096e-15
7.86668e-15
1.35937e-15
1.04859e-15
3.92334e-06
-4.56638e-05
7.82656e-06
-4.69301e-05
1.17201e-05
-4.72953e-05
1.55863e-05
-4.84633e-05
1.93991e-05
-5.00826e-05
2.31228e-05
-5.21547e-05
2.67038e-05
-5.47094e-05
3.00656e-05
-5.77749e-05
3.31039e-05
-6.13708e-05
3.56772e-05
-6.55208e-05
3.76336e-05
-7.00798e-05
3.88106e-05
-7.52576e-05
5.19932e-07
-3.11618e-05
-2.72666e-08
-1.65928e-07
-2.56388e-09
6.51946e-08
-1.91307e-10
3.64984e-09
-1.5601e-11
2.45091e-10
-1.2505e-12
1.93256e-11
-6.84464e-14
1.69737e-12
5.38783e-15
1.60702e-13
3.78671e-15
1.69962e-14
1.27509e-15
2.15523e-15
2.85376e-16
1.61673e-16
3.53834e-06
-4.92022e-05
7.03058e-06
-5.04223e-05
1.05084e-05
-5.07731e-05
1.39392e-05
-5.1894e-05
1.72916e-05
-5.3435e-05
2.05269e-05
-5.539e-05
2.35927e-05
-5.77752e-05
2.64196e-05
-6.06018e-05
2.89198e-05
-6.3871e-05
3.09832e-05
-6.75842e-05
3.25033e-05
-7.15999e-05
3.33793e-05
-7.61337e-05
3.65518e-07
-2.70168e-05
-2.30608e-08
1.2627e-07
-1.47553e-09
3.74602e-08
-9.58412e-11
1.76921e-09
-7.22073e-12
1.09107e-10
-5.58039e-13
7.73136e-12
-3.37014e-14
6.10304e-13
3.63799e-16
5.41075e-14
1.40497e-15
4.86283e-15
2.79407e-16
5.89594e-16
6.13302e-17
2.36062e-17
3.16494e-06
-5.23671e-05
6.26516e-06
-5.35226e-05
9.34893e-06
-5.38569e-05
1.23733e-05
-5.49184e-05
1.5305e-05
-5.63666e-05
1.81056e-05
-5.81906e-05
2.07264e-05
-6.0396e-05
2.31071e-05
-6.29826e-05
2.51762e-05
-6.594e-05
2.68489e-05
-6.92568e-05
2.80512e-05
-7.28023e-05
2.87168e-05
-7.67993e-05
2.22472e-07
-2.33729e-05
-1.41865e-08
3.20927e-07
-6.91102e-10
2.19494e-08
-4.18807e-11
9.4537e-10
-3.00982e-12
5.26324e-11
-2.15774e-13
3.34853e-12
-1.21711e-14
2.3815e-13
5.65264e-16
1.86177e-14
3.99908e-16
1.58715e-15
5.63269e-17
1.54809e-16
1.40211e-17
3.8927e-18
2.80813e-06
-5.51753e-05
5.53918e-06
-5.62536e-05
8.25384e-06
-5.65715e-05
1.09028e-05
-5.75674e-05
1.3453e-05
-5.89168e-05
1.58682e-05
-6.06058e-05
1.8105e-05
-6.26327e-05
2.0112e-05
-6.49898e-05
2.18317e-05
-6.76597e-05
2.31993e-05
-7.06243e-05
2.41628e-05
-7.37658e-05
2.46756e-05
-7.73122e-05
7.81588e-08
-2.01673e-05
-5.90509e-09
3.79873e-07
-2.77665e-10
1.5515e-08
-1.71203e-11
6.18358e-10
-1.18845e-12
3.08129e-11
-7.80075e-14
1.71995e-12
-4.03932e-15
1.05145e-13
5.66352e-16
6.95022e-15
1.14316e-16
5.55249e-16
1.12698e-17
4.38481e-17
3.45499e-18
6.00058e-19
2.47083e-06
-5.76461e-05
4.8573e-06
-5.86401e-05
7.22899e-06
-5.89433e-05
9.5333e-06
-5.98717e-05
1.17389e-05
-6.11224e-05
1.38129e-05
-6.26797e-05
1.57171e-05
-6.4537e-05
1.74089e-05
-6.66816e-05
1.8842e-05
-6.90928e-05
1.99667e-05
-7.1749e-05
2.07461e-05
-7.45451e-05
2.11454e-05
-7.77113e-05
-6.06197e-09
-1.73501e-05
-2.72029e-09
3.53683e-07
-1.31164e-10
1.21708e-08
-7.87642e-12
4.52062e-10
-5.14527e-13
2.05589e-11
-3.00449e-14
1.01487e-12
-1.39838e-15
5.30112e-14
2.39032e-16
2.93986e-15
3.26559e-17
2.05008e-16
2.49464e-18
1.38059e-17
9.33991e-19
7.87454e-20
2.15437e-06
-5.98005e-05
4.22096e-06
-6.07067e-05
6.27551e-06
-6.09978e-05
8.26449e-06
-6.18606e-05
1.01592e-05
-6.30171e-05
1.19302e-05
-6.44507e-05
1.3545e-05
-6.61517e-05
1.49682e-05
-6.81047e-05
1.61629e-05
-7.02875e-05
1.70909e-05
-7.2677e-05
1.77259e-05
-7.51801e-05
1.80396e-05
-7.8025e-05
-4.29158e-08
-1.48783e-05
-2.45722e-09
2.92843e-07
-9.51853e-11
9.01554e-09
-4.88758e-12
3.23581e-10
-2.78235e-13
1.39275e-11
-1.40309e-14
6.28677e-13
-5.89037e-16
2.8605e-14
9.46897e-17
1.35936e-15
9.93369e-18
8.40353e-17
6.06882e-19
4.7972e-18
2.76804e-19
7.68449e-21
1.85888e-06
-6.16593e-05
3.62935e-06
-6.24771e-05
5.39132e-06
-6.27597e-05
7.09205e-06
-6.35614e-05
8.70581e-06
-6.46309e-05
1.02069e-05
-6.59518e-05
1.15679e-05
-6.75126e-05
1.27596e-05
-6.92964e-05
1.37527e-05
-7.12806e-05
1.45173e-05
-7.34416e-05
1.50372e-05
-7.56999e-05
1.52849e-05
-7.82726e-05
-5.39734e-08
-1.2706e-05
-2.27274e-09
2.24867e-07
-7.797e-11
6.47657e-09
-3.53223e-12
2.18484e-10
-1.76479e-13
9.02206e-12
-7.84406e-15
3.79777e-13
-3.44653e-16
1.55172e-14
3.81285e-17
6.68714e-16
3.20895e-18
3.59347e-17
1.58435e-19
1.75211e-18
8.66428e-20
-6.62891e-22
1.58367e-06
-6.3243e-05
3.08019e-06
-6.39736e-05
4.57215e-06
-6.42517e-05
6.00913e-06
-6.49983e-05
7.36809e-06
-6.59898e-05
8.62738e-06
-6.7211e-05
9.7638e-06
-6.8649e-05
1.07535e-05
-7.0286e-05
1.15727e-05
-7.20996e-05
1.21971e-05
-7.40659e-05
1.2621e-05
-7.61237e-05
1.28125e-05
-7.84638e-05
-5.28319e-08
-1.08017e-05
-1.66505e-09
1.61912e-07
-5.48212e-11
4.2993e-09
-2.31633e-12
1.47561e-10
-1.06838e-13
5.80857e-12
-4.29344e-15
2.27523e-13
-7.81826e-17
8.41844e-15
1.57112e-17
3.40236e-16
9.36363e-19
1.53273e-17
4.23849e-20
6.42446e-19
2.7215e-20
-8.68537e-22
1.32655e-06
-6.45693e-05
2.56924e-06
-6.5216e-05
3.8112e-06
-6.54934e-05
5.00556e-06
-6.61924e-05
6.13189e-06
-6.71158e-05
7.17237e-06
-6.82512e-05
8.10792e-06
-6.95842e-05
8.91956e-06
-7.10972e-05
9.58778e-06
-7.27672e-05
1.00921e-05
-7.45696e-05
1.0432e-05
-7.64629e-05
1.05459e-05
-7.85763e-05
-4.37444e-08
-9.1513e-06
-9.06831e-10
1.10744e-07
-2.77704e-11
3.00106e-09
-1.17856e-12
1.04277e-10
-5.31743e-14
3.98475e-12
-2.056e-15
1.46939e-13
1.44585e-17
4.87457e-15
6.34734e-18
1.7574e-16
2.77316e-19
6.57635e-18
1.10232e-20
2.32878e-19
8.29868e-21
-4.14234e-22
1.08585e-06
-6.56537e-05
2.09128e-06
-6.62199e-05
3.10001e-06
-6.65005e-05
4.06843e-06
-6.71592e-05
4.98019e-06
-6.80257e-05
5.82051e-06
-6.90895e-05
6.57362e-06
-7.03351e-05
7.22477e-06
-7.17459e-05
7.75828e-06
-7.32979e-05
8.16634e-06
-7.49742e-05
8.45969e-06
-7.67523e-05
8.37532e-06
-7.84848e-05
-2.84607e-08
-7.69925e-06
-1.97384e-10
7.58352e-08
-2.06917e-12
2.57732e-09
-1.1736e-13
9.28649e-11
-1.24405e-14
3.46531e-12
-6.36031e-16
1.16787e-13
1.70301e-17
3.4703e-15
2.41662e-18
1.01191e-16
8.267e-20
3.05383e-18
2.69344e-21
8.62545e-20
2.45426e-21
-1.41129e-22
8.70528e-07
-6.65151e-05
1.64537e-06
-6.69854e-05
2.43585e-06
-6.72813e-05
3.19474e-06
-6.7908e-05
3.90986e-06
-6.873e-05
4.56834e-06
-6.97362e-05
5.15724e-06
-7.09111e-05
5.66219e-06
-7.22366e-05
6.05973e-06
-7.36795e-05
6.34244e-06
-7.52382e-05
6.59259e-06
-7.69809e-05
5.83748e-06
-7.76921e-05
-4.01314e-08
-6.26707e-06
-8.38394e-11
3.12138e-08
9.94871e-12
2.2476e-09
5.61487e-13
9.13899e-11
1.41178e-14
3.95724e-12
-2.47609e-16
1.38402e-13
7.64596e-18
2.77717e-15
9.61313e-19
6.40936e-17
2.45064e-20
1.45254e-18
5.99616e-22
3.06479e-20
6.55793e-22
-4.30422e-23
6.53331e-07
-6.71143e-05
1.22744e-06
-6.75039e-05
1.83138e-06
-6.78282e-05
2.40508e-06
-6.84222e-05
2.94655e-06
-6.92086e-05
3.4486e-06
-7.01711e-05
3.90433e-06
-7.12942e-05
4.30112e-06
-7.25537e-05
4.60529e-06
-7.38964e-05
4.71534e-06
-7.52488e-05
4.57629e-06
-7.67284e-05
1.86752e-06
-7.47899e-05
-6.76622e-09
-7.78746e-06
-1.30137e-09
3.44675e-09
-2.97263e-11
9.03068e-10
-4.97772e-13
6.08865e-11
-2.0682e-14
3.35705e-12
-1.32534e-15
1.19694e-13
7.74266e-18
1.88921e-15
3.84946e-19
2.74316e-17
4.81178e-21
4.47468e-19
9.04148e-23
7.02609e-21
1.15419e-22
-1.01619e-23
4.85552e-07
-6.72868e-05
8.89921e-07
-6.75894e-05
1.31429e-06
-6.79268e-05
1.72677e-06
-6.84974e-05
2.1175e-06
-6.92463e-05
2.48251e-06
-7.01629e-05
2.82017e-06
-7.1234e-05
3.12939e-06
-7.24349e-05
3.43856e-06
-7.37432e-05
3.6246e-06
-7.49164e-05
3.41575e-06
-7.59414e-05
3.11874e-06
-7.35206e-05
-4.54283e-08
-1.71967e-05
2.06818e-09
-3.983e-08
1.92721e-10
2.94039e-09
1.04138e-11
2.46789e-10
2.1639e-13
1.35873e-11
1.07229e-16
3.34969e-13
1.77378e-18
2.00338e-15
3.61997e-20
2.50822e-17
5.03784e-22
8.27589e-20
5.44906e-24
8.82203e-22
1.14903e-23
-8.08451e-25
2.66175e-07
-5.26266e-05
4.97892e-07
-5.27067e-05
7.42631e-07
-5.2749e-05
9.74253e-07
-5.28358e-05
1.18805e-06
-5.29298e-05
1.37645e-06
-5.30144e-05
1.52602e-06
-5.30556e-05
1.63589e-06
-5.29998e-05
1.73848e-06
-5.29817e-05
2.31269e-06
-5.18417e-05
3.18609e-06
-5.045e-05
1.01231e-05
-3.57948e-05
-5.73064e-07
-1.37249e-05
8.74218e-08
-6.27407e-07
8.89678e-09
8.53341e-08
4.6858e-10
8.73629e-09
1.09821e-11
4.66951e-10
6.75663e-14
1.10452e-11
1.25107e-16
6.89749e-14
-2.61742e-20
1.56006e-16
-1.78091e-23
6.52788e-21
-2.96398e-25
6.79491e-23
8.55658e-25
-6.49229e-27
-1.06926e-07
-1.01049e-24
-2.46285e-07
-2.038e-22
-3.6436e-07
-1.33627e-20
-4.89223e-07
-5.75671e-19
-6.13418e-07
-1.82362e-17
-7.33432e-07
-4.50142e-16
-8.26535e-07
-8.86292e-15
-8.55595e-07
-1.41593e-13
-9.30204e-07
-1.94786e-12
-3.36815e-09
-2.41505e-11
2.10214e-06
-2.59501e-10
1.6206e-06
-2.78974e-09
3.74707e-06
-2.49439e-08
1.35609e-07
-1.33269e-07
3.51604e-08
1.81922e-07
2.41991e-09
4.02472e-08
2.69834e-11
2.82492e-09
-6.01157e-14
3.80632e-11
-1.40716e-16
8.99014e-15
-5.73422e-21
1.54084e-17
-8.3907e-24
6.69287e-22
-1.18721e-25
6.03304e-24
7.30979e-26
-2.92068e-27
-1.19169e-24
-3.37286e-25
-1.58623e-22
-4.73379e-23
-1.02587e-20
-3.3268e-21
-4.31709e-19
-1.58314e-19
-1.32018e-17
-5.63637e-18
-3.0919e-16
-1.59315e-16
-5.68554e-15
-3.60728e-15
-8.25023e-14
-6.7029e-14
-8.97085e-13
-1.16758e-12
-6.11187e-12
-1.93648e-11
2.82927e-13
-2.70453e-10
6.22481e-11
-2.89009e-09
2.36009e-10
-2.53694e-08
6.65975e-08
-5.35608e-08
-2.0833e-08
9.89625e-08
-2.2088e-09
1.79709e-08
-3.48886e-11
5.14805e-10
-8.25258e-15
3.23727e-12
-1.43417e-17
7.49641e-16
-3.8667e-22
1.11346e-18
-1.69641e-24
6.25489e-23
-1.93351e-26
5.51056e-25
6.16619e-27
-4.41255e-28
-3.76399e-25
-3.81277e-26
-4.19721e-23
-6.26074e-24
-2.9946e-21
-4.33708e-22
-1.45431e-19
-2.00491e-20
-5.28438e-18
-6.91285e-19
-1.52416e-16
-1.88661e-17
-3.51967e-15
-4.21307e-16
-6.67698e-14
-7.79023e-15
-1.17697e-12
-1.31193e-13
-1.9814e-11
-1.94626e-12
-2.82552e-10
-2.41998e-11
-3.02001e-09
-2.72108e-10
-2.77154e-08
-1.17902e-09
-5.90736e-08
-2.52246e-09
-1.16781e-08
3.90415e-09
-3.70473e-10
1.48386e-09
-2.68247e-12
7.67649e-11
-6.72679e-16
5.63632e-13
-1.03561e-18
1.09472e-16
-2.9506e-23
8.54143e-20
-2.06764e-25
5.47777e-24
-2.37942e-27
4.5227e-26
4.75238e-28
-4.97407e-29
-3.98055e-26
-1.65096e-27
-6.1008e-24
-2.76987e-25
-4.31351e-22
-1.8481e-23
-2.03451e-20
-8.21251e-22
-7.15462e-19
-2.71193e-20
-1.9904e-17
-7.05649e-19
-4.4741e-16
-1.51402e-17
-8.29252e-15
-2.94456e-16
-1.3677e-13
-7.5129e-15
-2.00606e-12
-1.30954e-13
-2.52675e-11
-1.43575e-12
-2.88494e-10
-1.25507e-11
-1.90838e-09
-4.17784e-11
-5.04338e-09
-1.62647e-10
-1.45523e-09
1.61568e-10
-7.20548e-11
7.73913e-11
-5.23596e-13
5.19315e-12
-1.05038e-16
4.76809e-14
-9.64938e-20
8.65249e-18
-3.54622e-24
3.05746e-21
-2.25245e-26
4.16317e-25
-2.41904e-28
3.29427e-27
3.32115e-29
-4.68513e-30
-1.67061e-27
-1.94289e-29
-2.78731e-25
-3.228e-27
-1.88888e-23
-2.11686e-25
-8.44473e-22
-9.26481e-24
-2.80752e-20
-3.00895e-22
-7.35613e-19
-7.67976e-21
-1.58885e-17
-1.6074e-19
-3.09831e-16
-2.88701e-18
-7.7791e-15
-6.01195e-17
-1.37165e-13
-1.4897e-15
-1.55069e-12
-1.845e-14
-1.38766e-11
-1.62561e-13
-6.57728e-11
-6.04066e-13
-2.32198e-10
-5.50708e-12
-7.65793e-11
2.1048e-12
-5.01362e-12
3.26816e-12
-4.55425e-14
2.23682e-13
-8.89932e-18
3.33294e-15
-3.093e-21
5.7563e-19
-3.12986e-25
1.524e-22
-2.05161e-27
2.67276e-26
-2.08578e-29
2.10378e-28
2.07876e-30
-3.82319e-31
-1.94738e-29
-4.58309e-32
-3.23893e-27
-7.58668e-30
-2.10711e-25
-5.0053e-28
-9.21647e-24
-2.21582e-26
-2.99511e-22
-7.27885e-25
-7.66005e-21
-1.88001e-23
-1.60739e-19
-3.97244e-22
-2.89647e-18
-7.01866e-21
-6.0131e-17
-1.13081e-19
-1.47727e-15
-2.20314e-18
-1.89425e-14
-4.8911e-17
-1.73589e-13
-6.03379e-16
-6.65532e-13
-3.05377e-15
-5.3842e-12
-3.24668e-14
-3.27094e-12
-3.34361e-14
-2.2166e-13
6.68282e-14
-3.39747e-15
6.07609e-15
-6.81941e-19
6.74915e-17
-1.47244e-22
1.62518e-20
-2.33059e-26
8.8696e-24
-1.54546e-28
1.5956e-27
-1.54212e-30
1.17832e-29
1.24072e-31
-2.70498e-32
-3.9848e-32
-1.01663e-34
-4.93983e-30
-1.19849e-32
-3.44664e-28
-8.27327e-31
-1.59681e-26
-3.78452e-29
-5.48038e-25
-1.28128e-27
-1.47758e-23
-3.40719e-26
-3.22878e-22
-7.35133e-25
-5.96694e-21
-1.33567e-23
-9.97525e-20
-2.09173e-22
-1.90937e-18
-2.73311e-21
-4.43902e-17
-3.34749e-20
-6.03339e-16
-5.03452e-19
-3.61464e-15
-6.38228e-18
-3.60384e-14
-9.81105e-17
-6.97141e-14
-2.6516e-16
-6.16559e-15
6.54848e-16
-7.81378e-17
1.21511e-16
-1.69083e-20
1.27442e-18
-8.44108e-24
2.93038e-22
-1.47107e-27
4.20453e-25
-1.00164e-29
8.21243e-29
-9.9712e-32
6.02725e-31
6.80219e-33
-1.6738e-33
-8.53748e-35
-2.34715e-37
-1.20876e-32
-3.43319e-35
-8.42063e-31
-2.45539e-33
-3.87833e-29
-1.16149e-31
-1.32319e-27
-4.07233e-30
-3.55099e-26
-1.1245e-28
-7.73349e-25
-2.52532e-27
-1.40406e-23
-4.74289e-26
-2.1581e-22
-7.56601e-25
-2.8496e-21
-1.03534e-23
-3.52237e-20
-1.25315e-22
-5.09882e-19
-1.27159e-21
-6.86865e-18
-8.75419e-21
-1.47814e-16
-5.97777e-20
-7.57089e-16
-3.04096e-19
-1.18363e-16
3.19824e-18
-1.22708e-18
2.14246e-18
-2.81509e-22
3.44335e-20
-4.02958e-25
9.54307e-24
-7.49143e-29
1.66111e-26
-5.36348e-31
3.56829e-30
-5.51974e-33
2.77191e-32
3.24556e-34
-9.05047e-35
-2.28537e-37
-1.11558e-40
-3.44652e-35
-1.75608e-38
-2.47927e-33
-1.31664e-36
-1.179e-31
-6.52799e-35
-4.16549e-30
-2.40706e-33
-1.15962e-28
-7.00691e-32
-2.63494e-27
-1.66963e-30
-5.00444e-26
-3.33977e-29
-8.04658e-25
-5.68927e-28
-1.10714e-23
-8.34253e-27
-1.3847e-22
-1.07395e-25
-1.67743e-21
-1.14558e-24
-1.86445e-20
-9.81702e-24
-8.48135e-19
-8.63909e-23
-5.17196e-18
-4.27171e-22
-2.03884e-18
7.60137e-22
-3.36748e-20
1.53233e-20
-9.18909e-24
7.15405e-22
-1.60883e-26
2.66165e-25
-3.26135e-30
5.54017e-28
-2.46929e-32
1.29515e-31
-2.64377e-34
1.09136e-33
1.34469e-35
-4.27099e-36
-1.10812e-40
-1.92979e-44
-1.76226e-38
-3.24193e-42
-1.32933e-36
-2.58353e-40
-6.64359e-35
-1.36468e-38
-2.46821e-33
-5.36591e-37
-7.23949e-32
-1.66941e-35
-1.73837e-30
-4.26563e-34
-3.50414e-29
-9.19026e-33
-6.01099e-28
-1.69506e-31
-8.81149e-27
-2.68866e-30
-1.16094e-25
-3.67396e-29
-1.50306e-24
-4.25793e-28
-2.2428e-23
-4.53857e-27
-5.49899e-22
-4.17874e-26
-5.30816e-21
-3.23399e-25
-1.51857e-20
-1.35341e-24
-7.04751e-22
8.12126e-23
-2.57866e-25
9.34784e-24
-5.39663e-28
5.19683e-27
-1.23292e-31
1.35569e-29
-9.70087e-34
3.91014e-33
-1.09716e-35
3.66232e-35
4.85213e-37
-1.76063e-37
-1.93076e-44
-8.56625e-48
-3.2591e-42
-1.54596e-45
-2.59787e-40
-1.31851e-43
-1.37627e-38
-7.47752e-42
-5.42723e-37
-3.16106e-40
-1.69372e-35
-1.05991e-38
-4.34255e-34
-2.92894e-37
-9.3947e-33
-6.85844e-36
-1.74561e-31
-1.38734e-34
-2.78888e-30
-2.42875e-33
-3.92642e-29
-3.63573e-32
-5.93075e-28
-4.99083e-31
-8.30155e-27
-6.20779e-30
-1.14823e-25
-6.81965e-29
-9.58838e-24
-6.81279e-28
-8.84807e-23
-5.97367e-27
-9.23927e-24
1.11464e-25
-5.02739e-27
7.79598e-26
-1.32552e-29
7.98149e-29
-3.53635e-33
2.75828e-31
-3.2321e-35
9.79535e-35
-3.94534e-37
1.04651e-36
1.52219e-38
-6.36944e-39
-8.31384e-48
-1.0825e-52
-1.43194e-45
-2.01719e-50
-1.23262e-43
-1.87969e-48
-7.04163e-42
-1.16327e-46
-2.99889e-40
-5.37444e-45
-1.01352e-38
-1.97478e-43
-2.82592e-37
-6.00473e-42
-6.67165e-36
-1.5523e-40
-1.36106e-34
-3.48558e-39
-2.42437e-33
-6.87939e-38
-3.86261e-32
-1.20433e-36
-6.68405e-31
-1.91934e-35
-1.05839e-29
-2.75895e-34
-1.68378e-28
-3.55377e-33
-1.77511e-26
-4.00276e-32
-1.88177e-25
-3.68056e-31
-7.71698e-26
-9.18018e-31
-7.68603e-29
2.56799e-28
-2.70696e-31
9.01539e-31
-8.73951e-35
4.42873e-33
-9.12302e-37
2.03511e-36
-1.22586e-38
2.55782e-38
4.15722e-40
-2.01998e-40
-1.07545e-52
-3.92916e-56
-2.02704e-50
-8.11624e-54
-1.90023e-48
-8.33455e-52
-1.18309e-46
-5.6889e-50
-5.49981e-45
-2.90302e-48
-2.03367e-43
-1.18069e-46
-6.22485e-42
-3.9859e-45
-1.62043e-40
-1.14842e-43
-3.66283e-39
-2.88575e-42
-7.28271e-38
-6.41517e-41
-1.29241e-36
-1.27487e-39
-2.42298e-35
-2.31623e-38
-4.38983e-34
-3.8501e-37
-7.46717e-33
-5.82204e-36
-1.25903e-31
-7.90862e-35
-1.86253e-29
-9.50585e-34
-2.4943e-28
-1.05891e-32
-8.57264e-31
6.1425e-31
-4.35752e-33
7.03039e-33
-1.77823e-36
5.51432e-35
-2.17996e-38
3.46548e-38
-3.30141e-40
5.31096e-40
9.72629e-42
-5.62431e-42
-3.92397e-56
-1.05377e-60
-8.15261e-54
-2.43054e-58
-8.41365e-52
-2.78279e-56
-5.77141e-50
-2.1191e-54
-2.95973e-48
-1.20781e-52
-1.20992e-46
-5.49767e-51
-4.10571e-45
-2.08245e-49
-1.18937e-43
-6.75565e-48
-3.00425e-42
-1.91857e-46
-6.71588e-41
-4.84553e-45
-1.3451e-39
-1.10067e-43
-2.72122e-38
-2.29082e-42
-5.60845e-37
-4.41687e-41
-1.09008e-35
-7.82846e-40
-2.11041e-34
-1.27296e-38
-3.9991e-32
-2.02682e-37
-6.18998e-31
-3.08459e-36
-6.66101e-33
7.36328e-35
-5.43132e-35
3.21748e-35
-2.95037e-38
5.26969e-37
-4.38909e-40
4.6025e-40
-7.64912e-42
9.14083e-42
1.93003e-43
-1.37311e-43
-1.05315e-60
-1.66784e-66
-2.44031e-58
-4.34804e-64
-2.8059e-56
-5.62136e-62
-2.14612e-54
-4.83623e-60
-1.22871e-52
-3.11752e-58
-5.61816e-51
-1.60745e-56
-2.13779e-49
-6.91241e-55
-6.96682e-48
-2.55277e-53
-1.98726e-46
-8.27946e-52
-5.04246e-45
-2.39826e-50
-1.15115e-43
-6.27833e-49
-2.47521e-42
-1.51106e-47
-5.83031e-41
-3.37865e-46
-1.29735e-39
-7.03184e-45
-3.05458e-38
-1.35248e-43
-6.5489e-36
-2.34684e-42
-1.04835e-34
-3.37889e-41
-3.13098e-35
-3.08651e-40
-5.18403e-37
5.24089e-38
-3.98856e-40
3.88411e-39
-7.45307e-42
5.10305e-42
-1.52919e-43
1.3263e-43
3.35228e-45
-2.94346e-45
-1.66811e-66
-1.68014e-70
-4.36583e-64
-5.02151e-68
-5.66682e-62
-7.43873e-66
-4.895e-60
-7.33489e-64
-3.16825e-58
-5.42335e-62
-1.64032e-56
-3.21162e-60
-7.08299e-55
-1.58897e-58
-2.62676e-53
-6.76678e-57
-8.55427e-52
-2.53723e-55
-2.48942e-50
-8.52753e-54
-6.5532e-49
-2.60179e-52
-1.58767e-47
-7.31868e-51
-4.00622e-46
-1.91383e-49
-1.03828e-44
-4.70575e-48
-2.60453e-43
-1.07883e-46
-6.35661e-42
-2.2716e-45
-2.22182e-39
-4.18206e-44
-5.42572e-38
-9.61356e-43
-3.80541e-39
4.85023e-41
-4.51309e-42
1.94566e-41
-1.09882e-43
4.4595e-44
-2.71563e-45
1.60199e-45
5.08054e-47
-5.60102e-47
-1.67974e-70
-1.66586e-76
-5.03511e-68
-5.8044e-74
-7.48386e-66
-1.00242e-71
-7.4039e-64
-1.15251e-69
-5.49235e-62
-9.94188e-68
-3.2631e-60
-6.87589e-66
-1.61966e-58
-3.97892e-64
-6.9195e-57
-1.98561e-62
-2.60247e-55
-8.74338e-61
-8.77446e-54
-3.46047e-59
-2.68961e-52
-1.24884e-57
-7.58812e-51
-4.16177e-56
-2.0104e-49
-1.29363e-54
-6.06441e-48
-3.78015e-53
-1.77224e-46
-1.04193e-51
-5.0596e-45
-2.66806e-50
-2.34393e-42
-6.11439e-49
-6.72304e-41
-1.11949e-47
-1.87968e-41
-1.64478e-47
-4.01143e-44
4.16077e-44
-1.33706e-45
3.0939e-46
-4.1215e-47
1.6305e-47
6.82571e-49
-9.42239e-49
-1.66613e-76
-1.45934e-80
-5.82301e-74
-6.06219e-78
-1.00873e-71
-1.24811e-75
-1.16339e-69
-1.71095e-73
-1.00677e-67
-1.76068e-71
-6.98547e-66
-1.45393e-69
-4.05574e-64
-1.00582e-67
-2.03088e-62
-6.00989e-66
-8.97439e-61
-3.17425e-64
-3.56436e-59
-1.50959e-62
-1.2918e-57
-6.56364e-61
-4.32441e-56
-2.64151e-59
-1.3516e-54
-9.93829e-58
-4.19366e-53
-3.52258e-56
-1.44928e-51
-1.18147e-54
-4.9223e-50
-3.72486e-53
-1.65794e-48
-1.07054e-51
-1.08995e-45
-2.55482e-50
-3.79169e-44
-5.1405e-49
-2.83433e-46
9.57152e-47
-1.36514e-47
1.70731e-48
-5.41645e-49
1.41519e-49
7.99358e-51
-1.42319e-50
-1.45961e-80
-4.45807e-85
-6.07822e-78
-2.27654e-82
-1.25456e-75
-5.76251e-80
-1.72416e-73
-9.71304e-78
-1.77881e-71
-1.2296e-75
-1.47268e-69
-1.25003e-73
-1.02142e-67
-1.0657e-71
-6.11891e-66
-7.8569e-70
-3.2403e-64
-5.12772e-68
-1.54511e-62
-3.01813e-66
-6.73693e-61
-1.62707e-64
-2.71951e-59
-8.13482e-63
-1.02679e-57
-3.81113e-61
-3.6579e-56
-1.68599e-59
-1.36584e-54
-7.06812e-58
-5.58422e-53