/*--------------------------------*- C++ -*----------------------------------*\
| =========                 |                                                 |
| \\      /  F ield         | OpenFOAM: The Open Source CFD Toolbox           |
|  \\    /   O peration     | Version:  2012                                  |
|   \\  /    A nd           | Website:  www.openfoam.com                      |
|    \\/     M anipulation  |                                                 |
\*---------------------------------------------------------------------------*/
FoamFile
{
    version     2.0;
    format      ascii;
    class       volScalarField;
    location    "0.05";
    object      alpha.water;
}
// * * * * * * * * * * * * * * * * * * * * * * * * * * * * * * * * * * * * * //

dimensions      [0 0 0 0 0 0 0];


internalField   nonuniform List<scalar> 
2268
(
1
0.999998
1
1
1
1
1
1
1
1
1
1
0.99731
0.918289
0.461401
0.0368417
0.0119317
0.00309621
0.000609807
8.83487e-05
8.67926e-06
9.45048e-07
8.45861e-07
1
1
1
1
0.999999
0.999999
0.999999
1
1
0.999999
1
1
0.984754
0.741963
0.244823
0.0316776
0.011542
0.00329197
0.000694479
0.000105887
1.0925e-05
9.63806e-07
5.66816e-07
1
1
1
1
0.999999
0.999999
0.999999
1
1
1
1
1
0.968102
0.461852
0.0488149
0.016514
0.00774806
0.00305962
0.000688311
5.76988e-05
6.23274e-06
5.57456e-07
2.99672e-07
1
1
0.999999
0.999999
0.999999
1
1
1
1
0.999999
1
1
0.93435
0.293018
0.0210511
0.00797476
0.00287814
0.0011057
0.000293241
3.04757e-05
3.08063e-06
2.96795e-07
1.55934e-07
1
1
0.999999
1
1
1
1
1
0.999999
1
1
1
0.886038
0.203518
0.0118115
0.00375269
0.00122227
0.000329077
7.06571e-05
1.18626e-05
1.44837e-06
1.55232e-07
8.24816e-08
1
1
1
1
1
1
1
0.999999
1
1
1
1
0.829597
0.137383
0.00675307
0.00173101
0.000509015
0.000133391
2.89548e-05
5.06735e-06
6.69471e-07
8.22359e-08
4.47979e-08
1
1
1
1
1
1
0.999999
0.999999
1
1
1
1
0.777909
0.0943417
0.003936
0.000803677
0.00021026
5.31885e-05
1.16443e-05
2.13308e-06
3.09e-07
4.47909e-08
2.2742e-08
1
1
1
1
1
1
1
1
1
1
1
1
0.734049
0.0694928
0.00237054
0.000393583
8.90686e-05
2.12611e-05
4.64993e-06
8.91877e-07
1.43579e-07
2.27416e-08
8.87302e-09
4.59413e-23
8.52002e-24
1.63011e-25
3.14339e-27
7.04268e-29
2.35227e-30
1.38499e-31
4.28305e-33
1.11177e-34
2.66525e-36
5.68464e-38
1.06175e-39
1.70341e-41
2.28851e-43
2.48569e-45
2.07025e-47
1.20968e-49
4.15563e-52
2.08731e-52
2.17132e-21
7.69224e-22
1.88011e-23
3.22659e-25
2.21234e-27
2.30912e-28
1.27004e-29
3.67505e-31
9.53856e-33
2.27897e-34
4.84437e-36
8.99091e-38
1.42411e-39
1.86746e-41
1.93976e-43
1.4823e-45
7.16056e-48
1.31548e-50
2.08619e-52
1.32723e-19
3.58213e-20
8.45576e-22
1.59274e-23
1.90603e-25
1.19063e-26
5.28636e-28
1.49891e-29
3.822e-31
8.9141e-33
1.84658e-34
3.32649e-36
5.07625e-38
6.32212e-40
6.03716e-42
3.91921e-44
1.98207e-46
5.22068e-49
1.25302e-50
4.69213e-18
1.10493e-18
2.61451e-20
5.18431e-22
8.51313e-24
4.17454e-25
1.52497e-26
4.17935e-28
1.04584e-29
2.37755e-31
4.78398e-33
8.31369e-35
1.20586e-36
1.38355e-38
1.41982e-40
1.12122e-42
5.89393e-45
1.44835e-47
5.37416e-49
1.12229e-16
2.49547e-17
5.99749e-19
1.23607e-20
2.88739e-22
1.05267e-23
3.29214e-25
8.76665e-27
2.14419e-28
4.73081e-30
9.17977e-32
1.51369e-33
2.3235e-35
3.05483e-37
3.20572e-39
2.52008e-41
1.31745e-43
3.17575e-46
1.60288e-47
2.01222e-15
4.37356e-16
1.06859e-17
2.27607e-19
6.43414e-21
1.99005e-22
5.57093e-24
1.44548e-25
3.43763e-27
7.30761e-29
1.43838e-30
2.64914e-32
4.17345e-34
5.46243e-36
5.70479e-38
4.462e-40
2.32047e-42
6.16427e-45
3.60749e-46
9.28188e-14
1.63434e-14
2.01189e-16
3.74275e-18
9.94635e-20
2.77854e-21
7.5802e-23
1.92084e-24
4.41193e-26
9.95349e-28
2.10147e-29
3.86294e-31
6.05912e-33
7.89138e-35
8.19794e-37
6.37613e-39
3.30053e-41
9.1433e-44
6.39385e-45
1.80451e-12
1.69803e-13
2.90185e-15
5.1597e-17
1.07864e-18
3.01637e-20
8.24319e-22
2.05368e-23
4.82169e-25
1.14581e-26
2.41284e-28
4.41835e-30
6.89798e-32
8.93633e-34
9.23053e-36
7.13579e-38
3.67202e-40
1.02948e-42
9.14773e-44
1
1
1
1
1
1
1
1
1
1
1
1
0.671549
0.0433729
0.00119482
0.00015538
2.68176e-05
5.45219e-06
1.13274e-06
2.26755e-07
4.35447e-08
8.87301e-09
2.42377e-09
1
1
1
1
1
1
1
1
1
1
1
1
0.576736
0.0186614
0.000588886
6.78245e-05
9.35804e-06
1.55605e-06
2.89373e-07
5.66389e-08
1.14732e-08
2.42376e-09
5.26571e-10
1
1
1
1
1
1
1
1
1
1
1
1
0.497322
0.00817098
0.000287321
2.9609e-05
3.54461e-06
4.91478e-07
7.83006e-08
1.37968e-08
2.60751e-09
5.2264e-10
1.16337e-10
1
1
1
1
1
1
1
1
1
1
1
1
0.429893
0.00327467
0.000150656
1.35503e-05
1.42361e-06
1.68748e-07
2.27839e-08
3.4625e-09
5.76329e-10
1.13162e-10
2.83504e-11
1
1
1
1
1
0.999999
1
1
1
1
1
1
0.371643
0.00117329
7.97422e-05
6.37812e-06
5.87375e-07
6.09311e-08
7.06649e-09
9.17912e-10
1.45848e-10
2.75056e-11
6.62227e-12
1
1
1
1
1
1
1
1
1
1
1
1
0.320744
0.000687587
4.04638e-05
2.93323e-06
2.42269e-07
2.22761e-08
2.26961e-09
2.70055e-10
3.78196e-11
8.9357e-12
1.47472e-12
1
1
1
1
1
1
1
1
1
1
1
1
0.27708
0.000416232
2.0505e-05
1.37843e-06
1.05555e-07
8.29735e-09
7.50721e-10
8.89837e-11
1.33884e-11
2.62497e-12
3.13096e-13
1
1
1
1
1
1
1
1
1
1
1
1
0.239389
0.000287025
1.21153e-05
7.28189e-07
4.74426e-08
3.33129e-09
2.85134e-10
2.97223e-11
5.82092e-12
7.45494e-13
6.90071e-14
1
1
1
1
1
1
1
1
1
1
1
1
0.206545
0.000217208
8.62982e-06
4.45676e-07
2.51137e-08
1.54962e-09
1.192e-10
1.06301e-11
2.23033e-12
2.17685e-13
1.66122e-14
1
1
1
1
1
1
1
1
1
1
1
1
0.177824
0.000162144
6.4732e-06
2.94195e-07
1.45798e-08
7.86423e-10
5.49154e-11
4.1931e-12
8.4087e-13
6.76346e-14
4.33793e-15
1
1
1
1
1
1
1
1
1
1
1
1
0.152649
0.000116147
3.707e-06
1.95027e-07
9.0104e-09
4.3504e-10
2.61103e-11
1.87801e-12
3.33519e-13
2.2102e-14
1.2134e-15
1
1
1
1
1
1
1
1
0.999999
0.999999
0.999999
0.999999
0.13056
8.00966e-05
3.06299e-06
1.13717e-07
5.29009e-09
2.38889e-10
1.24723e-11
1.2409e-12
1.35974e-13
7.13776e-15
3.52017e-16
0.999999
0.999999
0.999999
0.999999
0.999999
0.999999
0.999999
0.999998
0.999998
0.999998
0.999997
0.999995
0.111171
5.52291e-05
2.0493e-06
8.00093e-08
3.2388e-09
1.29226e-10
6.04105e-12
7.51674e-13
5.42645e-14
2.34265e-15
1.0166e-16
0.999994
0.999994
0.999994
0.999993
0.999993
0.999992
0.999991
0.99999
0.999989
0.999986
0.999984
0.999972
0.0944148
4.27804e-05
1.26072e-06
4.72831e-08
1.87226e-09
7.67254e-11
2.98082e-12
3.56172e-13
2.06139e-14
7.6285e-16
2.83593e-17
0.999961
0.99996
0.999959
0.999957
0.999954
0.99995
0.999945
0.999939
0.999932
0.999921
0.999909
0.99984
0.0772872
3.84946e-05
1.4799e-06
5.3841e-08
7.12333e-11
-5.03343e-11
1.72426e-12
1.68674e-13
8.65153e-15
2.61343e-16
7.81267e-18
0.999747
0.999741
0.999735
0.999723
0.999708
0.999688
0.999663
0.999632
0.999597
0.999542
0.999481
0.999099
0.0649967
7.37164e-05
7.67929e-07
2.1575e-08
8.69352e-10
1.09132e-11
-2.08154e-12
1.50912e-13
4.5936e-15
9.23963e-17
2.02968e-18
0.998374
0.998346
0.998311
0.998253
0.998175
0.998074
0.997949
0.997798
0.997625
0.99735
0.997055
0.994938
0.136292
7.87523e-06
4.75921e-07
2.37407e-08
7.61974e-10
1.61514e-11
1.1214e-13
2.29381e-15
1.40119e-15
2.20742e-17
3.49167e-19
0.942519
0.941692
0.940301
0.938174
0.935281
0.931587
0.927004
0.921293
0.915012
0.901593
0.888227
0.756208
0.21953
0.000125159
7.86765e-06
5.11072e-07
2.44343e-08
6.51737e-10
1.46813e-12
-1.5976e-14
2.34337e-16
2.72199e-18
3.25813e-20
0.298749
0.297041
0.294037
0.289613
0.283751
0.276529
0.267916
0.25763
0.247169
0.223869
0.204538
0.0631823
0.0633526
0.0192896
0.000331497
2.11003e-05
2.95789e-07
5.93989e-11
3.37324e-14
-3.09704e-16
6.20424e-18
1.73527e-19
2.03603e-21
1.68102e-21
3.14497e-21
2.1007e-19
1.38141e-17
5.95626e-16
1.88347e-14
4.62913e-13
9.16152e-12
1.4954e-10
2.03548e-09
2.40084e-08
2.41497e-07
2.39802e-06
0.00581161
0.00205716
0.000105024
1.87956e-06
-2.2765e-10
5.74239e-15
-1.31571e-16
8.16588e-19
1.19195e-20
1.43975e-22
2.36502e-22
1.68102e-21
2.00927e-19
1.4596e-17
7.07465e-16
2.56123e-14
7.36116e-13
1.74527e-11
3.4942e-10
5.90498e-09
7.30319e-08
5.67607e-07
4.88452e-05
0.000157845
0.000494925
4.24913e-05
4.8524e-07
-6.00493e-11
-9.09297e-14
-2.23945e-17
9.16923e-20
9.24569e-22
9.93845e-24
1.03546e-23
2.36502e-22
3.12304e-20
2.18232e-18
1.0096e-16
3.45079e-15
7.8215e-14
1.36641e-12
1.98233e-11
2.37365e-10
2.34027e-09
1.86125e-08
2.88617e-06
8.34967e-06
1.90517e-06
1.33876e-07
3.43482e-10
-2.99371e-11
-1.26313e-14
-3.95741e-17
4.94975e-21
5.92775e-23
5.98526e-25
1.26522e-25
1.0271e-23
1.12825e-21
4.85933e-20
1.54524e-18
3.80553e-17
7.45578e-16
1.15073e-14
1.16896e-13
4.78769e-13
-7.12545e-12
-1.93712e-10
8.05719e-08
2.99176e-07
4.86604e-08
1.31795e-08
2.93292e-11
-4.66753e-12
-2.3483e-15
-5.32177e-19
2.49206e-22
3.14053e-24
3.08441e-26
3.15631e-28
1.15625e-27
-1.15846e-23
-7.64986e-22
-3.29753e-20
-1.04031e-18
-2.60419e-17
-5.35882e-16
-1.01882e-14
-2.62316e-13
-4.35168e-12
-4.17105e-11
2.94771e-10
1.01518e-09
4.48855e-10
8.04378e-10
-2.22749e-14
-4.39504e-13
-3.56203e-16
-1.05942e-20
6.34037e-24
1.34772e-25
1.26341e-27
-2.06135e-29
-9.32087e-27
-5.76783e-25
-2.43446e-23
-7.62941e-22
-1.87666e-20
-3.82377e-19
-6.36697e-18
-9.64121e-17
-1.82032e-15
-3.49807e-14
-3.2764e-13
-1.20626e-13
2.26501e-13
2.17428e-12
1.39983e-11
-2.54995e-13
-3.52581e-14
-3.99693e-18
2.65459e-23
1.55095e-25
3.72805e-27
5.44912e-29
-4.55189e-32
1.55356e-31
1.55636e-29
6.77978e-28
2.37332e-26
7.42802e-25
1.73732e-23
-4.34836e-23
-1.77002e-20
-2.46246e-19
-2.78278e-18
-1.07776e-16
1.23531e-16
1.57272e-13
1.63365e-12
9.29829e-14
9.97334e-15
3.87248e-18
6.66736e-21
1.45155e-24
1.20842e-26
1.24987e-28
2.94556e-30
-1.74195e-35
-2.11247e-34
-2.49172e-32
-1.80031e-30
-6.30936e-29
-1.67579e-27
-1.60099e-26
-1.81884e-27
-4.33605e-24
-2.55909e-22
9.52254e-21
9.26962e-19
2.73322e-17
2.83605e-15
1.68777e-14
3.12188e-16
4.52493e-16
1.48291e-19
2.90108e-22
-8.82931e-26
5.81225e-28
6.19557e-30
1.42494e-31
-2.1958e-39
-1.35425e-37
-1.45789e-35
-5.41396e-34
-1.66646e-32
-4.43083e-31
-1.10033e-29
-2.7356e-28
-8.15747e-27
-3.88922e-25
3.05056e-24
8.84542e-22
3.7019e-20
2.5781e-18
2.42949e-17
2.93169e-17
2.89984e-18
4.397e-21
1.01302e-23
2.59771e-27
1.02117e-29
2.67927e-31
6.02244e-33
4.94355e-44
-1.55885e-42
-4.59283e-39
-3.70815e-37
-1.9917e-35
-7.89472e-34
-2.45583e-32
-6.14484e-31
-1.16348e-29
-2.00785e-28
-6.48748e-29
3.92577e-25
9.77136e-24
1.99897e-22
2.98377e-20
2.70733e-19
7.28869e-21
9.96888e-23
2.85034e-25
8.4254e-29
8.56877e-31
1.01654e-32
2.26513e-34
-6.8743e-46
-3.33227e-43
-2.73652e-41
-1.53156e-39
-6.39867e-38
-2.11249e-36
-5.68833e-35
-1.31487e-33
-2.62754e-32
-4.01934e-31
9.40946e-32
4.01211e-28
1.15145e-26
2.78445e-25
5.59484e-23
5.87593e-22
1.39325e-24
1.69894e-24
6.41511e-27
2.27285e-30
2.61405e-32
3.3531e-34
7.58236e-36
-1.81905e-51
-2.41858e-51
3.04368e-48
3.83032e-46
2.75455e-44
1.4088e-42
5.78291e-41
1.97233e-39
5.08113e-38
1.24805e-36
4.72954e-35
1.08632e-32
4.03144e-31
1.01739e-29
2.30969e-28
5.49101e-26
7.26248e-25
2.11204e-26
1.14481e-28
5.08795e-32
6.8159e-34
9.81368e-36
2.23969e-37
-1.37051e-55
-7.07819e-54
-5.76942e-52
-3.77505e-50
-2.32797e-48
-8.06867e-47
-2.40014e-45
-2.11475e-45
-3.45048e-43
3.43145e-41
9.34181e-39
7.83399e-36
4.30456e-34
1.32037e-32
3.55324e-31
1.17592e-28
1.79586e-27
7.83758e-30
1.08023e-30
9.41504e-34
1.42917e-35
2.48558e-37
5.54558e-39
-1.69088e-60
-2.06947e-58
-3.49637e-56
-2.84027e-54
-1.53267e-52
-6.54409e-51
-2.33213e-49
-7.20308e-48
-2.70498e-46
-4.81068e-45
2.76392e-44
2.28703e-40
3.65424e-38
1.45433e-36
5.22295e-35
2.19406e-32
3.71446e-31
2.96202e-34
3.6665e-33
1.42924e-35
1.78329e-37
4.68948e-39
1.08549e-40
1.15966e-66
4.32593e-64
6.86407e-62
7.63424e-60
6.26631e-58
4.05727e-56
2.19844e-54
1.03829e-52
3.97394e-51
1.75333e-49
7.72333e-48
3.20102e-46
1.27746e-43
8.02365e-42
3.12495e-40
1.02172e-38
5.9666e-36
1.41957e-34
5.26098e-36
1.78335e-37
1.8242e-39
6.55914e-41
1.75189e-42
-1.05444e-70
-8.57231e-68
-1.39957e-65
-1.56149e-63
-1.34768e-61
-9.23046e-60
-5.20566e-58
-2.47711e-56
-1.06093e-54
-3.56273e-53
2.45394e-53
1.48146e-51
5.70227e-48
3.14484e-45
1.72114e-43
7.11281e-42
6.28503e-39
1.75528e-37
1.97063e-40
1.81957e-39
1.52709e-41
7.94367e-43
2.68284e-44
1.0967e-76
6.7971e-74
1.64601e-71
2.58603e-69
3.00396e-67
2.77585e-65
2.13982e-63
1.42496e-61
8.35791e-60
4.20541e-58
2.14761e-56
9.7329e-55
4.25068e-53
8.03447e-51
1.0439e-48
6.05818e-47
3.07114e-45
2.98732e-42
9.99916e-41
1.05513e-41
1.04686e-43
8.34825e-45
4.00094e-46
8.50461e-81
4.46969e-78
1.17106e-75
2.04903e-73
2.71091e-71
2.89874e-69
2.61832e-67
2.06222e-65
1.44839e-63
9.226e-62
5.49957e-60
3.08478e-58
1.65791e-56
9.26328e-55
4.01141e-52
4.66303e-50
3.06368e-48
5.75346e-45
2.38491e-43
1.82072e-44
5.90071e-46
7.71557e-47
5.02118e-48
5.62767e-86
3.75427e-83
1.21558e-80
2.68672e-78
4.54533e-76
6.25158e-74
7.29654e-72
7.45589e-70
6.80579e-68
5.7211e-66
4.46119e-64
3.24527e-62
2.28462e-60
1.54527e-58
1.19157e-56
1.24535e-53
1.66039e-51
6.42993e-48
3.32744e-46
1.52771e-47
2.76251e-48
6.36187e-49
5.79373e-50
-7.54342e-91
-5.22472e-88
-1.77557e-85
-3.97002e-83
-6.55408e-81
-8.46654e-79
-8.78781e-77
-7.28817e-75
-4.51256e-73
-1.17869e-71
-3.25139e-69
3.87221e-67
3.78923e-65
3.59709e-63
3.36134e-61
4.45871e-59
2.19697e-55
3.18473e-51
2.15217e-49
2.83733e-51
1.09716e-50
4.76987e-51
6.24485e-52
-2.12827e-99
-3.95551e-96
-2.89639e-93
-1.26839e-90
-3.90268e-88
-9.16526e-86
-1.72278e-83
-2.65659e-81
-3.3732e-79
-3.22388e-77
-2.53835e-75
8.50526e-74
3.47632e-71
1.37147e-68
2.11932e-66
3.26516e-64
5.06232e-62
6.10112e-57
7.91993e-54
1.01438e-52
5.61607e-53
3.34209e-53
6.40801e-54
-1.25878e-105
-2.13416e-102
-1.77068e-99
-9.72453e-97
-3.99014e-94
-1.30646e-91
-3.55553e-89
-8.25598e-87
-1.66027e-84
-2.96101e-82
-4.29415e-80
-1.12885e-77
3.59826e-78
1.28226e-74
9.61215e-72
4.38724e-69
2.02216e-66
9.82522e-64
1.08841e-57
2.20004e-55
2.71134e-55
3.43182e-55
7.39616e-56
-6.95688e-118
-3.78136e-114
-9.69182e-111
-1.63601e-107
-2.06442e-104
-2.08274e-101
-1.75201e-98
-1.26413e-95
-7.97101e-93
-4.43864e-90
-2.17264e-87
-9.11418e-85
-7.69727e-82
-4.18605e-81
-2.3007e-78
-1.36561e-78
-5.4681e-76
-9.05882e-77
4.59972e-62
1.27457e-58
8.35435e-58
6.39024e-56
6.69415e-57
8.37403e-10
3.02367e-10
7.8576e-11
2.32748e-11
1.94547e-10
1.4195e-10
6.35722e-11
9.24325e-12
3.0929e-11
2.91028e-11
1.20561e-11
1.76514e-12
5.82446e-12
4.41551e-12
1.61075e-12
2.60426e-13
1.10182e-12
6.98127e-13
2.17029e-13
3.72303e-14
2.07849e-13
1.13717e-13
3.03712e-14
5.26481e-15
4.2524e-14
1.9328e-14
4.44197e-15
7.48222e-16
8.40311e-15
3.41047e-15
6.91226e-16
1.08304e-16
1.64667e-15
6.30711e-16
1.14053e-16
1.60941e-17
3.4504e-16
1.24064e-16
1.9738e-17
2.46842e-18
7.66319e-17
2.57532e-17
3.56176e-18
3.90661e-19
1.7464e-17
5.4853e-18
6.55331e-19
6.29732e-20
3.90417e-18
1.14885e-18
1.18323e-19
1.00373e-20
8.20527e-19
2.26363e-19
2.00274e-20
1.51651e-21
1.53601e-19
4.03771e-20
3.03697e-21
2.07103e-22
2.53839e-20
6.04609e-21
3.87513e-22
2.42547e-23
5.97891e-21
6.62739e-22
3.67755e-23
2.29921e-24
1.06038e-21
4.94113e-23
2.70209e-24
1.71918e-25
6.87121e-23
2.9108e-24
1.61287e-25
1.06572e-26
3.71924e-24
1.74787e-25
9.66174e-27
6.65939e-28
1.91868e-25
9.28358e-27
5.19582e-28
3.9159e-29
9.35693e-27
4.87947e-28
2.94433e-29
2.051e-30
6.43774e-28
3.32227e-29
1.93036e-30
9.065e-32
4.12807e-29
2.09845e-30
1.17879e-31
3.56871e-33
2.40166e-30
1.20998e-31
6.29598e-33
2.06462e-34
1.27948e-31
6.10266e-33
3.03094e-34
1.10817e-35
6.02112e-33
2.61424e-34
1.32317e-35
5.47077e-37
2.26368e-34
1.00369e-35
5.16206e-37
2.48186e-38
7.56368e-36
3.45165e-37
1.81387e-38
1.03108e-39
2.24586e-37
1.06376e-38
5.75271e-40
3.49176e-41
5.93123e-39
2.94174e-40
1.65017e-41
1.03448e-42
1.4046e-40
7.32237e-42
4.29179e-43
2.79816e-44
2.9957e-42
1.64446e-43
1.01992e-44
6.94564e-46
5.69543e-44
3.35168e-45
2.20438e-46
1.58533e-47
9.88689e-46
6.24915e-47
4.39117e-48
3.34474e-49
1.49492e-47
1.06613e-48
8.10824e-50
6.58404e-51
2.19111e-49
1.70605e-50
1.40045e-51
1.21873e-52
3.01019e-51
2.56317e-52
2.28662e-53
2.14231e-54
3.94612e-53
3.66505e-54
3.56783e-55
3.61548e-56
4.99789e-55
5.06104e-56
5.38982e-57
5.94253e-58
6.69415e-57
7.56292e-58
8.85414e-59
1.24123e-59
7.56293e-58
8.85552e-59
1.05856e-59
1.2533e-60
5.54144e-12
1.6766e-13
6.04299e-15
2.70933e-16
1.02356e-17
3.57273e-19
1.1492e-20
3.37393e-22
8.94513e-24
2.1183e-25
4.4226e-27
8.00996e-29
1.23171e-30
1.55959e-32
1.55566e-34
1.13194e-36
5.10832e-39
1.02758e-41
1.0295e-42
1.67897e-12
4.60546e-14
2.15955e-15
1.17765e-16
5.34236e-18
2.15647e-19
7.70785e-21
2.45621e-22
6.97789e-24
1.76028e-25
3.91463e-27
7.59329e-29
1.26657e-30
1.78319e-32
2.05551e-34
1.85937e-36
1.23314e-38
5.28872e-41
1.75939e-42
2.97832e-13
8.61551e-15
4.54806e-16
2.63253e-17
1.26264e-18
5.39537e-20
2.04069e-21
6.84332e-23
2.03365e-24
5.33929e-26
1.23126e-27
2.47152e-29
4.25937e-31
6.16816e-33
7.32808e-35
6.86125e-37
4.74592e-39
2.12071e-41
3.72927e-43
4.41171e-14
1.40557e-15
8.05234e-17
4.76011e-18
2.33581e-19
1.01909e-20
3.93576e-22
1.34643e-23
4.07515e-25
1.08749e-26
2.54358e-28
5.16794e-30
9.00428e-32
1.32101e-33
1.5895e-35
1.50785e-37
1.05803e-39
4.82883e-42
6.59674e-44
6.24526e-15
2.15304e-16
1.32055e-17
7.97878e-19
4.01697e-20
1.78912e-21
7.03228e-23
2.44196e-24
7.4849e-26
2.01891e-27
4.7657e-29
9.76121e-31
1.71336e-32
2.53182e-34
3.06939e-36
2.93642e-38
2.08132e-40
9.65068e-43
1.00768e-44
8.59871e-16
3.0777e-17
1.96829e-18
1.20582e-19
6.18815e-21
2.80077e-22
1.11634e-23
3.92277e-25
1.21438e-26
3.3027e-28
7.84988e-30
1.61728e-31
2.85374e-33
4.23846e-35
5.16627e-37
4.97371e-39
3.55313e-41
1.66831e-43
1.35468e-45
1.17425e-16
4.21513e-18
2.74157e-19
1.68273e-20
8.7134e-22
3.97559e-23
1.59642e-24
5.64642e-26
1.7576e-27
4.80156e-29
1.14539e-30
2.36686e-32
4.18733e-34
6.23526e-36
7.62264e-38
7.36621e-40
5.28918e-42
2.50502e-44
1.6231e-46
1.61308e-17
5.63208e-19
3.64259e-20
2.21136e-21
1.1428e-22
5.20999e-24
2.0922e-25
7.40222e-27
2.30467e-28
6.29609e-30
1.50153e-31
3.10155e-33
5.48492e-35
8.16622e-37
9.98701e-39
9.66311e-41
6.95587e-43
3.31213e-45
1.74939e-47
2.24895e-18
7.41936e-20
4.67273e-21
2.76876e-22
1.41208e-23
6.37418e-25
2.54049e-26
8.93369e-28
2.76699e-29
7.52383e-31
1.78666e-32
3.67606e-34
6.47829e-36
9.61706e-38
1.1736e-39
1.13423e-41
8.16568e-44
3.8982e-46
1.70866e-48
3.20024e-19
9.70326e-21
5.83347e-22
3.32748e-23
1.65563e-24
7.33194e-26
2.87826e-27
9.99584e-29
3.0632e-30
8.25219e-32
1.94353e-33
3.96961e-35
6.95054e-37
1.02611e-38
1.24655e-40
1.20071e-42
8.62722e-45
4.11941e-47
1.52158e-49
4.6425e-20
1.2633e-21
7.11629e-23
3.85262e-24
1.84859e-25
7.95787e-27
3.05409e-28
1.04105e-29
3.14027e-31
8.34518e-33
1.94213e-34
3.92543e-36
6.81056e-38
9.9755e-40
1.2039e-41
1.15358e-43
8.25748e-46
3.93616e-48
1.24191e-50
6.7655e-21
1.63045e-22
8.47359e-24
4.29492e-25
1.96544e-26
8.15338e-28
3.03795e-29
1.01069e-30
2.98708e-32
7.80059e-34
1.78815e-35
3.56698e-37
6.1184e-39
8.87416e-41
1.06216e-42
1.01094e-44
7.1993e-47
3.42093e-49
9.33451e-52
9.59468e-22
2.05605e-23
9.76216e-25
4.58185e-26
1.9813e-27
7.86281e-29
2.82788e-30
9.13987e-32
2.63677e-33
6.74595e-35
1.5194e-36
2.98518e-38
5.05376e-40
7.24814e-42
8.59353e-44
8.11566e-46
5.74435e-48
2.71827e-50
6.53073e-53
1.26528e-22
2.46991e-24
1.06886e-25
4.61931e-27
1.87718e-28
7.09355e-30
2.45323e-31
7.67934e-33
2.15722e-34
5.39636e-36
1.19234e-37
2.30436e-39
3.84647e-41
5.45056e-43
6.39699e-45
5.99097e-47
4.21259e-49
1.98391e-51
4.66127e-54
1.46899e-23
2.73549e-25
1.08482e-26
4.32425e-28
1.65123e-29
5.93647e-31
1.97214e-32
5.97311e-34
1.63245e-35
3.9901e-37
8.64414e-39
1.6427e-40
2.70282e-42
3.78338e-44
4.39492e-46
4.08137e-48
2.85082e-50
1.33609e-52
3.13694e-55
1.40546e-24
2.70031e-26
9.93756e-28
3.68809e-29
1.33086e-30
4.56747e-32
1.46045e-33
4.28513e-35
1.14036e-36
2.72523e-38
5.7918e-40
1.08278e-41
1.75688e-43
2.43037e-45
2.79545e-47
2.57518e-49
1.78749e-51
8.33973e-54
1.95213e-56
1.03969e-25
2.31337e-27
8.03948e-29
2.82185e-30
9.72257e-32
3.20716e-33
9.91587e-35
2.82761e-36
7.34445e-38
1.71922e-39
3.58968e-41
6.61022e-43
1.05884e-44
1.44892e-46
1.65162e-48
1.51047e-50
1.04263e-52
4.84576e-55
1.13081e-57
5.57778e-27
1.69629e-28
5.67512e-30
1.92096e-31
6.39923e-33
2.04678e-34
6.15743e-36
1.71425e-37
4.36091e-39
1.00263e-40
2.06131e-42
3.74582e-44
5.93292e-46
8.04229e-48
9.09646e-50
8.268e-52
5.68114e-54
2.63252e-56
6.12784e-59
3.41129e-28
1.08776e-29
3.5362e-31
1.16187e-32
3.78405e-34
1.18551e-35
3.49711e-37
9.55487e-39
2.39038e-40
5.41581e-42
1.09932e-43
1.97592e-45
3.10072e-47
4.17079e-49
4.68814e-51
4.24077e-53
2.90411e-55
1.34308e-57
3.12038e-60
2.30699e-29
6.80674e-31
2.08863e-32
6.49082e-34
2.0595e-35
6.30612e-37
1.81725e-38
4.90118e-40
1.21212e-41
2.71737e-43
5.46213e-45
9.73579e-47
1.5171e-48
2.02888e-50
2.27022e-52
2.04681e-54
1.39877e-56
6.46351e-59
1.49967e-61
1.49887e-30
4.20634e-32
1.23351e-33
3.67284e-35
1.10908e-36
3.23623e-38
8.90705e-40
2.36142e-41
5.74373e-43
1.26927e-44
2.5357e-46
4.49669e-48
6.97737e-50
9.29617e-52
1.03735e-53
9.33651e-56
6.37592e-58
2.94705e-60
6.83177e-63
9.14158e-32
2.47916e-33
7.02385e-35
2.02181e-36
5.89068e-38
1.66083e-39
4.42656e-41
1.12827e-42
2.64553e-44
5.66818e-46
1.12047e-47
1.96774e-49
3.02804e-51
4.02601e-53
4.48995e-55
4.04131e-57
2.76202e-59
1.27856e-61
2.96205e-64
5.21584e-33
1.37973e-34
3.80589e-36
1.0659e-37
3.02353e-39
8.30418e-41
2.15829e-42
5.35846e-44
1.22617e-45
2.5664e-47
4.93447e-49
8.4551e-51
1.27326e-52
1.68186e-54
1.86892e-56
1.67819e-58
1.14582e-60
5.30626e-63
1.22716e-65
2.74092e-34
7.2174e-36
1.95672e-37
5.37366e-39
1.49289e-40
4.01452e-42
1.02193e-43
2.48824e-45
5.58961e-47
1.14972e-48
2.1727e-50
3.66612e-52
5.44757e-54
7.08349e-56
7.76651e-58
6.90276e-60
4.67964e-62
2.15879e-64
4.97641e-67
1.31953e-35
3.53226e-37
9.50877e-39
2.58203e-40
7.07477e-42
1.87392e-43
4.69659e-45
1.12596e-46
2.49181e-48
5.05404e-50
9.43129e-52
1.57344e-53
2.31491e-55
2.98228e-57
3.24513e-59
2.86795e-61
1.93707e-63
8.92199e-66
2.05218e-68
5.87012e-37
1.61219e-38
4.35585e-40
1.17968e-41
3.21107e-43
8.42941e-45
2.09112e-46
4.95921e-48
1.08561e-49
2.17878e-51
4.02561e-53
6.65548e-55
9.71416e-57
1.24328e-58
1.34578e-60
1.18475e-62
7.98256e-65
3.67416e-67
8.43199e-70
2.44127e-38
6.79775e-40
1.87825e-41
5.11786e-43
1.39402e-44
3.64935e-46
9.00905e-48
2.12338e-49
4.61653e-51
9.20042e-53
1.68829e-54
2.77332e-56
4.02453e-58
5.12536e-60
5.52574e-62
4.85027e-64
3.26217e-66
1.50106e-68
3.43629e-71
9.33562e-40
2.66749e-41
7.62266e-43
2.1076e-44
5.78574e-46
1.5197e-47
3.75312e-49
8.8318e-51
1.91471e-52
3.80237e-54
6.95053e-56
1.13734e-57
1.64453e-59
2.08773e-61
2.24502e-63
1.96691e-65
1.3215e-67
6.08171e-70
1.38856e-72
3.28382e-41
9.8027e-43
2.91075e-44
8.2442e-46
2.29646e-47
6.08769e-49
1.51172e-50
3.56754e-52
7.74239e-54
1.53729e-55
2.80743e-57
4.58766e-59
6.62354e-61
8.39653e-63
9.01825e-65
7.8946e-67
5.30228e-69
2.44153e-71
5.55873e-74
1.06527e-42
3.40906e-44
1.04634e-45
3.06788e-47
8.7261e-49
2.34746e-50
5.88977e-52
1.39985e-53
3.05251e-55
6.0796e-57
1.11235e-58
1.81961e-60
2.62847e-62
3.33283e-64
3.58006e-66
3.13452e-68
2.10592e-70
9.70596e-73
2.20323e-75
3.52188e-44
1.11432e-45
3.56703e-47
1.08858e-48
3.17956e-50
8.72429e-52
2.22161e-53
5.33914e-55
1.17395e-56
2.35257e-58
4.32396e-60
7.09684e-62
1.02766e-63
1.30541e-65
1.40418e-67
1.23079e-69
8.27683e-72
3.81942e-74
8.6429e-77
1.18702e-45
3.43934e-47
1.16204e-48
3.69198e-50
1.1134e-51
3.13034e-53
8.124e-55
1.98155e-56
4.40771e-58
8.9132e-60
1.64981e-61
2.72267e-63
3.95938e-65
5.04607e-67
5.44174e-69
4.77916e-71
3.21877e-73
1.48758e-75
3.3552e-78
3.53246e-47
1.0559e-48
3.61955e-50
1.20222e-51
3.75668e-53
1.08669e-54
2.8851e-56
7.16656e-58
1.61757e-59
3.30956e-61
6.18352e-63
1.02811e-64
1.50399e-66
1.92573e-68
2.08427e-70
1.83556e-72
1.23876e-74
5.73507e-77
1.28911e-79
8.866e-49
2.96758e-50
1.08327e-51
3.7684e-53
1.22484e-54
3.65876e-56
9.97121e-58
2.53021e-59
5.81108e-61
1.20588e-62
2.27906e-64
3.82464e-66
5.63674e-68
7.26014e-70
7.89409e-72
6.9763e-74
4.71983e-76
2.18937e-78
4.9037e-81
2.07269e-50
7.67895e-52
3.1168e-53
1.14098e-54
3.87107e-56
1.19803e-57
3.36177e-59
8.73864e-61
2.04725e-62
4.31828e-64
8.27135e-66
1.40329e-67
2.08647e-69
2.70629e-71
2.95873e-73
2.62549e-75
1.78142e-77
8.2807e-80
1.84787e-82
4.54213e-52
2.00166e-53
8.67398e-55
3.34946e-56
1.18984e-57
3.82642e-59
1.10859e-60
2.9593e-62
7.08762e-64
1.52256e-65
2.96061e-67
5.08525e-69
7.63696e-71
9.98508e-73
1.09846e-74
9.79278e-77
6.66598e-79
3.1054e-81
6.90349e-84
9.42673e-54
5.045e-55
2.34394e-56
9.56807e-58
3.56907e-59
1.19591e-60
3.58595e-62
9.85169e-64
2.4168e-65
5.29632e-67
1.04701e-68
1.82295e-70
2.76802e-72
3.65112e-74
4.0442e-76
3.62386e-78
2.47544e-80
1.15581e-82
2.55941e-85
2.10224e-55
1.23553e-56
6.15938e-58
2.66984e-59
1.04866e-60
3.67e-62
1.14136e-63
3.23315e-65
8.13728e-67
1.82173e-68
3.66566e-70
6.47601e-72
9.95066e-74
1.32502e-75
1.47853e-77
1.33211e-79
9.13349e-82
4.27428e-84
9.42708e-87
4.58018e-57
2.95279e-58
1.58106e-59
7.30707e-61
3.02992e-62
1.1099e-63
3.58651e-65
1.04915e-66
2.7126e-68
6.21077e-70
1.27326e-71
2.28428e-73
3.55405e-75
4.78007e-77
5.37536e-79
4.87089e-81
3.35262e-83
1.57252e-85
3.45412e-88
9.71392e-59
6.8722e-60
3.98622e-61
1.97047e-62
8.64558e-64
3.32077e-65
1.11657e-66
3.37698e-68
8.9784e-70
2.10412e-71
4.39787e-73
8.01662e-75
1.26355e-76
1.7171e-78
1.94649e-80
1.77426e-82
1.22605e-84
5.76345e-87
1.21805e-89
1.96757e-60
1.5335e-61
9.73788e-63
5.1949e-64
2.42821e-65
9.83131e-67
3.45288e-68
1.08229e-69
2.9609e-71
7.10622e-73
1.51494e-74
2.80679e-76
4.48285e-78
6.15656e-80
7.03614e-82
6.45207e-84
4.4763e-86
2.1087e-88
4.43126e-91
9.34196e-62
5.69194e-63
2.93861e-64
1.33688e-65
5.29363e-67
1.84787e-68
5.7894e-70
1.71373e-71
4.83545e-73
1.19078e-74
2.59344e-76
4.89056e-78
7.92438e-80
1.10099e-81
1.26977e-83
1.17235e-85
8.1723e-88
3.86089e-90
4.43126e-91
)
;

boundaryField
{
    leftWall
    {
        type            zeroGradient;
    }
    rightWall
    {
        type            zeroGradient;
    }
    lowerWall
    {
        type            zeroGradient;
    }
    atmosphere
    {
        type            inletOutlet;
        inletValue      uniform 0;
        value           nonuniform List<scalar> 
46
(
0
0
0
0
0
0
0
0
0
0
0
0
0
0
0
0
0
0
0
0
8.35435e-58
6.39024e-56
6.69415e-57
7.56293e-58
8.85552e-59
1.05856e-59
1.2533e-60
9.34196e-62
5.69194e-63
2.93861e-64
1.33688e-65
5.29363e-67
1.84787e-68
5.7894e-70
1.71373e-71
4.83545e-73
1.19078e-74
2.59344e-76
4.89056e-78
7.92438e-80
1.10099e-81
1.26977e-83
1.17235e-85
8.1723e-88
3.86089e-90
4.43126e-91
)
;
    }
    defaultFaces
    {
        type            empty;
    }
}


// ************************************************************************* //
