/*--------------------------------*- C++ -*----------------------------------*\
| =========                 |                                                 |
| \\      /  F ield         | OpenFOAM: The Open Source CFD Toolbox           |
|  \\    /   O peration     | Version:  2012                                  |
|   \\  /    A nd           | Website:  www.openfoam.com                      |
|    \\/     M anipulation  |                                                 |
\*---------------------------------------------------------------------------*/
FoamFile
{
    version     2.0;
    format      ascii;
    class       volScalarField;
    location    "0.05";
    object      p;
}
// * * * * * * * * * * * * * * * * * * * * * * * * * * * * * * * * * * * * * //

dimensions      [1 -1 -2 0 0 0 0];


internalField   nonuniform List<scalar> 
2268
(
1327.29
1318.74
1300.22
1271.99
1233.72
1184.72
1124.13
1050.71
963.272
858.384
735.875
599.415
412.836
182.641
42.9174
8.65835
4.51018
3.92856
3.29354
2.9234
2.6996
2.56434
2.50218
1269.92
1261.39
1242.89
1214.71
1176.49
1127.56
1067.03
993.658
906.252
801.083
678.323
540.377
343.586
119.573
20.3887
4.93066
3.31942
3.35101
3.10271
2.82724
2.6144
2.48335
2.42376
1214.09
1205.58
1187.13
1159.04
1120.93
1072.13
1011.75
938.506
851.179
745.63
622.537
481.196
269.696
64.3966
10.1872
3.07886
2.47933
2.73348
2.79316
2.65086
2.48437
2.37394
2.32085
1159.79
1151.3
1132.93
1104.98
1067.05
1018.46
958.31
885.304
798.16
692.339
569.132
423.991
202.292
35.3455
6.07826
2.21981
2.0199
2.33282
2.49552
2.44274
2.33051
2.2433
2.19639
1107.02
1098.57
1080.32
1052.55
1014.86
966.555
906.75
834.126
747.34
641.574
518.817
370.448
145.095
20.1204
3.79839
1.89354
1.83744
2.11191
2.25829
2.24244
2.16747
2.09737
2.05294
1055.8
1047.4
1029.29
1001.75
964.371
916.458
857.125
785.06
698.879
593.662
472.146
321.858
100.251
11.4421
2.70664
1.71554
1.74955
1.95133
2.05805
2.05533
2.00111
1.94041
1.89124
1006.11
997.767
979.836
952.58
915.574
868.146
809.419
738.096
652.785
548.643
429.269
278.881
67.3267
6.50235
2.19305
1.59452
1.67327
1.80302
1.8785
1.87918
1.83483
1.77573
1.70921
957.894
949.602
931.882
904.95
868.383
821.53
763.528
693.115
608.9
506.303
389.581
240.92
44.2864
3.58415
1.80382
1.49821
1.57802
1.66025
1.71396
1.71293
1.67136
1.60782
1.50588
1.11333
1.10509
1.08817
1.06593
1.04117
1.01574
0.990827
0.967143
0.945155
0.9251
0.907109
0.891208
0.877401
0.865645
0.855922
0.848178
0.842416
0.838573
0.836685
1.05564
1.04742
1.03012
1.00749
0.982422
0.956791
0.931747
0.907989
0.88596
0.865885
0.847886
0.831983
0.818177
0.806423
0.796706
0.788965
0.783208
0.779364
0.777479
0.999155
0.990979
0.972918
0.949457
0.923787
0.897754
0.872454
0.848541
0.826426
0.806304
0.788284
0.772374
0.758571
0.746823
0.737115
0.729381
0.723633
0.719793
0.71791
0.943826
0.935862
0.916565
0.891809
0.865221
0.838592
0.812917
0.788782
0.76654
0.746352
0.728301
0.712383
0.698584
0.686845
0.67715
0.669428
0.663691
0.659861
0.657979
0.889742
0.882208
0.861057
0.834478
0.806661
0.779258
0.753106
0.72869
0.70629
0.686021
0.667934
0.652007
0.638214
0.62649
0.616811
0.609108
0.603384
0.599567
0.597687
0.83635
0.830237
0.806355
0.777358
0.748015
0.719688
0.692977
0.668239
0.645661
0.625302
0.607178
0.591244
0.57746
0.565756
0.5561
0.54842
0.542714
0.538913
0.537037
0.780577
0.779978
0.752415
0.720291
0.689207
0.659805
0.632481
0.607399
0.584634
0.564185
0.546025
0.530089
0.516323
0.504646
0.495018
0.487366
0.481681
0.477898
0.476028
0.72678
0.731162
0.699083
0.663065
0.629995
0.599509
0.571562
0.546136
0.523189
0.502657
0.48447
0.468542
0.4548
0.443158
0.433564
0.425948
0.420287
0.416526
0.414663
884.922
876.723
859.398
833.061
797.314
751.548
694.944
626.336
544.354
445.305
332.548
188.92
23.7227
2.07984
1.35925
1.3573
1.40433
1.44841
1.47686
1.46869
1.42402
1.34105
1.14895
792.518
784.559
767.933
742.686
708.455
664.717
610.777
545.679
468.353
375.999
272.374
140.939
9.8466
1.3129
1.00631
1.13399
1.16127
1.18243
1.19167
1.17515
1.12969
1.05385
0.947209
706.824
699.172
683.388
659.455
627.059
585.783
535.082
474.241
402.539
317.968
224.729
107.031
4.30697
0.938377
0.797704
0.899827
0.917357
0.929903
0.930478
0.912149
0.874068
0.816912
0.744993
627.642
620.363
605.544
583.113
552.818
514.351
467.324
411.254
345.739
269.422
186.706
82.4443
1.97197
0.636609
0.618371
0.671673
0.682638
0.689624
0.685774
0.668045
0.636004
0.589748
0.530397
554.69
547.843
534.085
513.297
485.297
449.878
406.792
355.761
296.636
228.547
155.847
64.0602
0.990513
0.453029
0.44428
0.452372
0.456168
0.458846
0.452797
0.436372
0.409114
0.371232
0.323933
487.632
481.264
468.633
449.587
424.005
391.771
352.755
306.837
254.05
193.866
130.405
49.9334
0.530543
0.238715
0.246079
0.233358
0.233691
0.234543
0.228333
0.214032
0.191382
0.160766
0.123282
426.082
420.229
408.767
391.519
368.418
339.421
304.488
263.616
216.956
164.199
109.111
38.7525
0.099584
-0.0668219
0.0172402
0.0101931
0.0132038
0.0152087
0.0105378
-0.00101473
-0.0193431
-0.0439284
-0.0738467
369.619
364.308
354.033
338.598
317.987
292.206
261.283
225.293
184.452
138.59
91.0585
29.8162
-0.25237
-0.364933
-0.223067
-0.212541
-0.203486
-0.198831
-0.201244
-0.209967
-0.224468
-0.244076
-0.267953
317.798
313.041
303.946
290.306
272.142
249.5
222.446
191.107
155.73
116.229
75.5435
22.6472
-0.489002
-0.585356
-0.44786
-0.425971
-0.412846
-0.406447
-0.407124
-0.413528
-0.424875
-0.440435
-0.459456
270.152
265.947
258.003
246.107
230.313
210.688
187.321
160.366
130.084
96.4477
62.0112
16.8588
-0.665552
-0.742596
-0.645002
-0.624957
-0.612976
-0.607231
-0.607473
-0.612424
-0.621364
-0.633685
-0.648782
226.199
222.531
215.693
205.471
191.942
175.19
155.313
132.476
106.947
78.7461
50.0761
12.1783
-0.830009
-0.880938
-0.82397
-0.81228
-0.805221
-0.802226
-0.803319
-0.807662
-0.814841
-0.824537
-0.836379
185.406
182.253
176.469
167.844
156.462
142.424
125.836
106.866
85.7872
62.6656
39.3906
8.40505
-0.993986
-1.0224
-0.995353
-0.99316
-0.992483
-0.993367
-0.996134
-1.00043
-1.00627
-1.01372
-1.02271
147.335
144.683
139.908
132.8
123.443
111.95
98.4461
83.1128
66.2172
47.8473
29.6309
5.32438
-1.14911
-1.16849
-1.16424
-1.17145
-1.17761
-1.18277
-1.18749
-1.19193
-1.19656
-1.2019
-1.2082
112.101
109.92
106.112
100.428
92.967
83.8591
73.2522
61.3565
48.4397
34.5523
21.039
2.90693
-1.27927
-1.31965
-1.33227
-1.34964
-1.36336
-1.37275
-1.37912
-1.3834
-1.38659
-1.38967
-1.39323
78.6795
76.7904
73.8513
69.466
63.7176
56.7721
48.7915
40.0288
30.8045
21.2197
12.5129
0.76923
-1.49076
-1.47385
-1.49896
-1.53084
-1.55326
-1.56625
-1.57311
-1.57616
-1.57716
-1.5775
-1.57801
41.7981
40.1296
37.8989
34.6345
30.3478
25.219
19.4276
13.2601
7.07418
1.29973
-2.16844
-4.47022
-1.8332
-1.60451
-1.66607
-1.72188
-1.75212
-1.7665
-1.77153
-1.77141
-1.76891
-1.76568
-1.76266
8.50637
7.5137
6.08432
3.93131
1.16572
-2.07662
-5.60764
-9.16195
-12.4359
-14.861
-14.4752
-11.5204
-1.96041
-1.66834
-1.83728
-1.93469
-1.96647
-1.97677
-1.97601
-1.96998
-1.96216
-1.95425
-1.94707
6.27789
5.88655
5.40072
4.63545
3.68667
2.64759
1.65504
0.849893
0.591175
0.719279
3.72975
10.7114
-2.25316
-1.78533
-2.041
-2.18327
-2.20574
-2.20043
-2.18724
-2.17179
-2.1566
-2.14287
-2.13089
14.485
14.3853
14.2012
13.9322
13.5759
13.1379
12.6145
11.9919
11.3746
9.93424
8.61492
0.0543169
-0.653681
-3.56515
-2.8075
-2.56872
-2.48097
-2.43943
-2.40406
-2.37548
-2.35124
-2.33076
-2.31354
-4.12494
-4.11901
-4.11243
-4.10269
-4.09007
-4.07479
-4.05718
-4.03709
-4.01811
-4.01604
-4.03418
-4.01411
-4.6751
-5.26048
-3.64553
-3.02466
-2.79615
-2.68802
-2.6234
-2.57851
-2.5441
-2.51658
-2.49413
-4.17043
-4.16659
-4.15971
-4.14954
-4.13623
-4.11975
-4.09965
-4.07609
-4.05258
-4.02505
-3.98749
-4.0214
-4.3454
-4.34074
-3.86157
-3.32161
-3.06258
-2.92007
-2.83424
-2.77567
-2.73234
-2.6986
-2.67153
-4.20063
-4.19707
-4.18963
-4.17871
-4.16436
-4.14623
-4.12388
-4.09763
-4.06828
-4.03129
-3.99179
-3.9861
-4.01312
-3.89548
-3.65255
-3.4053
-3.23402
-3.11082
-3.02434
-2.96104
-2.91292
-2.8751
-2.84468
-4.24184
-4.23813
-4.23051
-4.21929
-4.20432
-4.18522
-4.16164
-4.13354
-4.10015
-4.05961
-4.01822
-3.9845
-3.93224
-3.80863
-3.6373
-3.48647
-3.36788
-3.27125
-3.19439
-3.13334
-3.08457
-3.04515
-3.0129
-4.28702
-4.28298
-4.27534
-4.2639
-4.2484
-4.22857
-4.20414
-4.17478
-4.13954
-4.09788
-4.05193
-4.00006
-3.93016
-3.83103
-3.71307
-3.59965
-3.50274
-3.42074
-3.35226
-3.29535
-3.24812
-3.20885
-3.17606
-4.33697
-4.33305
-4.32545
-4.31393
-4.29826
-4.27822
-4.25356
-4.22394
-4.18867
-4.14748
-4.1005
-4.04524
-3.97684
-3.89387
-3.8035
-3.71508
-3.63453
-3.56355
-3.50221
-3.44969
-3.40492
-3.36684
-3.33444
-4.39163
-4.38798
-4.38043
-4.36898
-4.35353
-4.33382
-4.3096
-4.28058
-4.24632
-4.2065
-4.16071
-4.1076
-4.04575
-3.97593
-3.90235
-3.82996
-3.76216
-3.70063
-3.64593
-3.59792
-3.55609
-3.51982
-3.48845
-4.45139
-4.4478
-4.44034
-4.42915
-4.4142
-4.39521
-4.37192
-4.3441
-4.3115
-4.27386
-4.23085
-4.182
-4.12724
-4.06774
-4.00608
-3.94519
-3.88722
-3.83356
-3.78486
-3.74125
-3.70257
-3.66848
-3.63857
-4.51573
-4.51212
-4.5049
-4.4942
-4.47994
-4.46189
-4.43983
-4.41359
-4.38305
-4.34808
-4.30858
-4.26454
-4.21638
-4.16516
-4.11259
-4.0605
-4.01045
-3.96344
-3.92009
-3.88066
-3.84515
-3.81343
-3.78526
-4.58388
-4.58039
-4.57363
-4.5636
-4.55019
-4.53323
-4.51259
-4.48817
-4.45995
-4.42791
-4.39214
-4.35286
-4.31058
-4.26619
-4.22088
-4.17589
-4.13233
-4.09099
-4.05241
-4.01688
-3.9845
-3.95524
-3.92898
-4.65553
-4.65236
-4.64618
-4.63692
-4.62446
-4.60871
-4.58962
-4.56715
-4.54137
-4.51234
-4.48026
-4.44541
-4.40831
-4.36966
-4.33034
-4.29122
-4.25314
-4.21674
-4.18244
-4.15054
-4.12118
-4.09439
-4.07013
-4.73071
-4.72793
-4.72235
-4.71386
-4.70239
-4.6879
-4.67041
-4.64995
-4.62662
-4.60055
-4.57196
-4.54116
-4.50861
-4.47487
-4.44061
-4.40649
-4.37313
-4.34105
-4.31062
-4.28209
-4.25563
-4.23129
-4.20909
-4.80931
-4.80688
-4.80184
-4.79407
-4.78357
-4.77036
-4.75448
-4.73601
-4.71506
-4.6918
-4.66646
-4.63933
-4.6108
-4.58133
-4.55144
-4.52165
-4.49244
-4.46425
-4.43732
-4.41194
-4.38824
-4.36631
-4.34617
-4.89093
-4.88876
-4.88418
-4.8771
-4.86755
-4.8556
-4.8413
-4.82476
-4.8061
-4.78549
-4.76314
-4.73933
-4.71439
-4.68871
-4.66268
-4.63671
-4.6112
-4.58646
-4.56282
-4.5404
-4.51935
-4.49977
-4.48168
-4.97496
-4.97301
-4.96884
-4.96242
-4.95383
-4.94312
-4.93038
-4.9157
-4.89921
-4.88108
-4.86152
-4.84075
-4.81907
-4.79678
-4.77422
-4.75171
-4.72956
-4.70804
-4.68739
-4.66775
-4.64924
-4.63193
-4.61587
-5.06087
-5.05909
-5.05533
-5.04959
-5.04196
-5.03249
-5.02126
-5.00838
-4.99398
-4.9782
-4.96123
-4.94328
-4.92458
-4.9054
-4.88601
-4.86666
-4.8476
-4.82906
-4.81123
-4.79421
-4.77812
-4.76303
-4.74897
-5.14825
-5.14664
-5.14331
-5.13828
-5.13161
-5.12337
-5.11363
-5.1025
-5.09009
-5.07655
-5.06202
-5.0467
-5.03078
-5.01448
-4.99802
-4.9816
-4.96542
-4.94966
-4.93447
-4.91996
-4.9062
-4.89326
-4.88118
-5.23687
-5.23546
-5.23258
-5.22826
-5.22255
-5.21553
-5.20726
-5.19782
-5.18734
-5.17593
-5.16372
-5.15088
-5.13757
-5.12396
-5.11023
-5.09655
-5.08308
-5.06995
-5.05728
-5.04516
-5.03366
-5.02281
-5.01266
-5.32659
-5.32538
-5.32297
-5.31937
-5.31463
-5.30881
-5.30196
-5.29418
-5.28555
-5.27618
-5.26618
-5.2557
-5.24485
-5.23379
-5.22265
-5.21156
-5.20065
-5.19002
-5.17976
-5.16995
-5.16062
-5.15182
-5.14357
-5.41729
-5.41632
-5.41437
-5.41149
-5.4077
-5.40305
-5.3976
-5.39142
-5.38458
-5.37718
-5.3693
-5.36106
-5.35257
-5.34393
-5.33525
-5.32663
-5.31817
-5.30994
-5.30201
-5.29443
-5.28723
-5.28043
-5.27405
-5.50898
-5.50824
-5.50677
-5.50458
-5.50172
-5.49821
-5.49411
-5.48947
-5.48435
-5.47883
-5.47299
-5.46691
-5.46067
-5.45435
-5.44803
-5.44179
-5.43568
-5.42977
-5.4241
-5.4187
-5.41358
-5.40875
-5.40421
-5.60137
-5.60088
-5.59988
-5.59838
-5.59643
-5.59404
-5.59125
-5.58811
-5.58467
-5.58099
-5.57712
-5.57312
-5.56906
-5.56498
-5.56096
-5.55702
-5.55321
-5.54957
-5.54611
-5.54285
-5.53979
-5.5369
-5.53419
-5.69258
-5.69236
-5.69187
-5.69112
-5.69015
-5.68896
-5.68759
-5.68606
-5.6844
-5.68266
-5.68086
-5.67904
-5.67723
-5.67547
-5.67378
-5.67218
-5.6707
-5.66933
-5.6681
-5.66698
-5.66596
-5.665
-5.6641
0.859756
0.813513
0.799822
0.765438
0.841001
0.782165
0.731083
0.683831
0.673212
0.624435
0.579697
0.539387
0.477282
0.44257
0.409006
0.376895
0.284111
0.257804
0.231382
0.205384
0.0920771
0.0713344
0.0502139
0.0291123
-0.0986473
-0.11517
-0.132159
-0.149347
-0.28775
-0.300987
-0.314707
-0.328729
-0.475289
-0.485913
-0.496987
-0.508394
-0.661406
-0.669903
-0.678793
-0.688003
-0.846314
-0.853021
-0.860057
-0.867377
-1.03028
-1.0354
-1.0408
-1.04644
-1.21356
-1.21721
-1.22109
-1.22517
-1.39638
-1.39859
-1.40098
-1.40355
-1.57886
-1.57957
-1.58046
-1.58154
-1.76099
-1.76012
-1.75945
-1.759
-1.94263
-1.94006
-1.93777
-1.93575
-2.12344
-2.11907
-2.11509
-2.1115
-2.30296
-2.29675
-2.29107
-2.2859
-2.48049
-2.4725
-2.46519
-2.45851
-2.65518
-2.6456
-2.63684
-2.62883
-2.82623
-2.8154
-2.80548
-2.79636
-2.99311
-2.98143
-2.97068
-2.96078
-3.15564
-3.14351
-3.13229
-3.12189
-3.31396
-3.30171
-3.29032
-3.27971
-3.46834
-3.45625
-3.44494
-3.43435
-3.61916
-3.60742
-3.59639
-3.58601
-3.76678
-3.75555
-3.74495
-3.73494
-3.91158
-3.90097
-3.89092
-3.8814
-4.05393
-4.04402
-4.0346
-4.02565
-4.19415
-4.18499
-4.17626
-4.16794
-4.33255
-4.32417
-4.31617
-4.30853
-4.46939
-4.46181
-4.45457
-4.44764
-4.60492
-4.59816
-4.59168
-4.58548
-4.73935
-4.73341
-4.72771
-4.72224
-4.87289
-4.86776
-4.86283
-4.8581
-5.00568
-5.00136
-4.99721
-4.99322
-5.13789
-5.13437
-5.13099
-5.12774
-5.26965
-5.26693
-5.26431
-5.26179
-5.40109
-5.39915
-5.39729
-5.39549
-5.53233
-5.53117
-5.53005
-5.52898
-5.66348
-5.6631
-5.66273
-5.66237
0.692236
0.656463
0.614794
0.572903
0.536615
0.504449
0.475562
0.449628
0.426425
0.405787
0.38758
0.371684
0.357998
0.346426
0.336898
0.329347
0.323733
0.320011
0.318164
0.609944
0.541266
0.489758
0.44471
0.405889
0.372145
0.342382
0.316
0.292616
0.271961
0.253832
0.238065
0.224528
0.213108
0.20372
0.196291
0.190771
0.187116
0.185301
0.477382
0.409299
0.355578
0.309796
0.270357
0.236156
0.206176
0.179764
0.156479
0.136004
0.118099
0.102573
0.0892724
0.0780743
0.0688816
0.0616156
0.0562199
0.0526504
0.0508773
0.325684
0.264141
0.212624
0.168337
0.129853
0.0962569
0.0667601
0.04079
0.0179325
-0.0021264
-0.0196334
-0.0347874
-0.0477488
-0.0586474
-0.0675854
-0.074644
-0.0798829
-0.083347
-0.0850676
0.163043
0.109401
0.0623975
0.0210924
-0.0153233
-0.0474573
-0.0758462
-0.100921
-0.123019
-0.142417
-0.159342
-0.173984
-0.1865
-0.197017
-0.205638
-0.212443
-0.217492
-0.22083
-0.222487
-0.00580104
-0.0517368
-0.0934508
-0.130984
-0.164625
-0.194683
-0.221467
-0.245257
-0.266297
-0.284802
-0.300967
-0.31496
-0.326924
-0.336978
-0.34522
-0.351725
-0.356551
-0.359741
-0.361325
-0.178141
-0.217111
-0.253494
-0.286943
-0.317421
-0.345007
-0.369827
-0.392026
-0.411755
-0.429167
-0.444412
-0.457629
-0.468943
-0.478457
-0.486261
-0.492422
-0.496994
-0.500016
-0.501517
-0.352454
-0.385276
-0.416597
-0.445938
-0.473091
-0.49798
-0.520598
-0.540984
-0.559208
-0.575362
-0.589552
-0.601885
-0.612461
-0.621367
-0.628678
-0.634455
-0.638744
-0.64158
-0.642989
-0.527856
-0.555266
-0.581898
-0.607259
-0.631068
-0.653158
-0.673436
-0.691861
-0.70844
-0.723213
-0.736242
-0.747601
-0.757366
-0.765605
-0.772378
-0.777736
-0.781717
-0.784352
-0.78566
-0.703817
-0.726431
-0.74875
-0.770324
-0.790854
-0.810128
-0.828001
-0.844382
-0.859226
-0.87253
-0.884319
-0.894638
-0.903534
-0.911059
-0.917258
-0.922168
-0.925822
-0.928241
-0.929443
-0.880007
-0.898318
-0.916665
-0.934661
-0.952019
-0.968514
-0.983974
-0.998273
-1.01133
-1.02312
-1.03362
-1.04285
-1.05084
-1.05761
-1.06321
-1.06765
-1.07096
-1.07315
-1.07424
-1.05621
-1.0706
-1.08527
-1.09988
-1.11419
-1.12798
-1.14106
-1.15328
-1.16454
-1.17478
-1.18396
-1.19208
-1.19913
-1.20514
-1.21011
-1.21407
-1.21703
-1.21899
-1.21997
-1.2323
-1.24304
-1.25425
-1.26566
-1.27706
-1.28822
-1.29897
-1.30915
-1.31863
-1.32732
-1.33518
-1.34218
-1.34829
-1.35352
-1.35786
-1.36133
-1.36393
-1.36565
-1.36651
-1.40815
-1.41543
-1.42336
-1.43173
-1.44034
-1.44898
-1.45748
-1.46566
-1.47339
-1.48057
-1.48712
-1.49299
-1.49816
-1.50261
-1.50633
-1.50931
-1.51155
-1.51304
-1.51378
-1.58363
-1.58757
-1.59236
-1.59783
-1.60377
-1.61001
-1.61634
-1.62259
-1.62863
-1.63433
-1.6396
-1.64438
-1.64863
-1.65231
-1.65541
-1.6579
-1.65978
-1.66104
-1.66166
-1.7586
-1.75928
-1.76105
-1.76373
-1.76714
-1.77108
-1.77535
-1.77976
-1.78417
-1.78844
-1.79248
-1.7962
-1.79955
-1.80249
-1.80498
-1.807
-1.80853
-1.80956
-1.81007
-1.93285
-1.93033
-1.92919
-1.92922
-1.93023
-1.93199
-1.9343
-1.93697
-1.93984
-1.94275
-1.94561
-1.94832
-1.95081
-1.95303
-1.95494
-1.9565
-1.9577
-1.9585
-1.9589
-2.1061
-2.10047
-2.09655
-2.09408
-2.09282
-2.09255
-2.09303
-2.09407
-2.09548
-2.09711
-2.09886
-2.10061
-2.10228
-2.10382
-2.10518
-2.1063
-2.10717
-2.10776
-2.10806
-2.27805
-2.26944
-2.2629
-2.25809
-2.25473
-2.25256
-2.25136
-2.25088
-2.25094
-2.25139
-2.2521
-2.25295
-2.25386
-2.25476
-2.2556
-2.25631
-2.25688
-2.25727
-2.25746
-2.44834
-2.43697
-2.428
-2.42104
-2.41576
-2.41186
-2.40916
-2.40727
-2.4061
-2.40547
-2.40522
-2.40525
-2.40545
-2.40576
-2.40611
-2.40644
-2.40672
-2.40692
-2.40702
-2.61658
-2.60275
-2.59163
-2.58276
-2.57577
-2.57035
-2.56622
-2.56311
-2.56083
-2.55923
-2.55811
-2.55739
-2.55696
-2.55672
-2.55662
-2.5566
-2.55662
-2.55665
-2.55667
-2.78241
-2.76652
-2.75357
-2.74306
-2.7346
-2.72784
-2.72249
-2.7183
-2.71505
-2.71257
-2.71069
-2.7093
-2.70829
-2.70757
-2.70707
-2.70673
-2.70652
-2.70639
-2.70633
-2.94554
-2.92805
-2.91364
-2.9018
-2.89211
-2.88423
-2.87786
-2.87274
-2.86865
-2.86541
-2.86287
-2.8609
-2.85938
-2.85823
-2.85738
-2.85676
-2.85634
-2.85607
-2.85594
-3.10583
-3.08722
-3.07173
-3.05887
-3.04823
-3.03945
-3.03224
-3.02635
-3.02157
-3.0177
-3.01459
-3.01212
-3.01017
-3.00865
-3.00749
-3.00663
-3.00602
-3.00564
-3.00545
-3.26324
-3.24398
-3.22779
-3.21423
-3.20289
-3.19343
-3.18559
-3.17909
-3.17375
-3.16936
-3.16579
-3.16291
-3.1606
-3.15877
-3.15735
-3.15629
-3.15553
-3.15504
-3.1548
-3.41785
-3.39835
-3.38182
-3.36785
-3.35606
-3.34616
-3.33785
-3.33091
-3.32515
-3.32037
-3.31644
-3.31323
-3.31063
-3.30855
-3.30693
-3.3057
-3.30481
-3.30424
-3.30396
-3.56978
-3.55042
-3.53387
-3.51976
-3.50777
-3.49761
-3.48903
-3.4818
-3.47575
-3.47069
-3.4665
-3.46305
-3.46023
-3.45796
-3.45618
-3.45482
-3.45384
-3.45321
-3.45289
-3.71922
-3.70031
-3.68401
-3.67002
-3.65804
-3.64782
-3.63912
-3.63176
-3.62554
-3.62032
-3.61596
-3.61235
-3.60938
-3.60699
-3.60509
-3.60364
-3.60259
-3.60191
-3.60157
-3.86639
-3.84818
-3.83237
-3.8187
-3.80693
-3.79682
-3.78817
-3.78079
-3.77453
-3.76925
-3.76481
-3.76112
-3.75807
-3.7556
-3.75364
-3.75213
-3.75103
-3.75032
-3.74997
-4.01149
-3.99419
-3.97907
-3.96591
-3.95451
-3.94466
-3.93619
-3.92894
-3.92275
-3.91749
-3.91307
-3.90937
-3.9063
-3.90381
-3.90182
-3.90029
-3.89917
-3.89844
-3.89808
-4.15475
-4.13851
-4.12424
-4.11175
-4.10087
-4.09142
-4.08326
-4.07623
-4.07021
-4.06508
-4.06074
-4.0571
-4.05407
-4.0516
-4.04963
-4.0481
-4.04699
-4.04626
-4.0459
-4.29638
-4.28134
-4.26804
-4.25635
-4.2461
-4.23717
-4.22942
-4.22272
-4.21696
-4.21203
-4.20785
-4.20433
-4.2014
-4.199
-4.19707
-4.19558
-4.19449
-4.19378
-4.19343
-4.43659
-4.42283
-4.41061
-4.39981
-4.39032
-4.382
-4.37476
-4.36847
-4.36305
-4.3584
-4.35443
-4.35109
-4.3483
-4.34601
-4.34416
-4.34274
-4.34169
-4.34101
-4.34067
-4.57557
-4.56316
-4.5521
-4.54228
-4.53361
-4.526
-4.51934
-4.51354
-4.50852
-4.50421
-4.50052
-4.4974
-4.4948
-4.49265
-4.49092
-4.48958
-4.4886
-4.48795
-4.48764
-4.71349
-4.70249
-4.69263
-4.68386
-4.67609
-4.66924
-4.66324
-4.65799
-4.65344
-4.64952
-4.64616
-4.64331
-4.64092
-4.63895
-4.63737
-4.63613
-4.63523
-4.63464
-4.63435
-4.85052
-4.84095
-4.83236
-4.82469
-4.81787
-4.81184
-4.80654
-4.8019
-4.79786
-4.79438
-4.79139
-4.78885
-4.78671
-4.78495
-4.78353
-4.78242
-4.78161
-4.78108
-4.78082
-4.98682
-4.9787
-4.9714
-4.96486
-4.95903
-4.95387
-4.94932
-4.94533
-4.94186
-4.93884
-4.93626
-4.93406
-4.9322
-4.93067
-4.92944
-4.92847
-4.92776
-4.9273
-4.92708
-5.12251
-5.11587
-5.10987
-5.1045
-5.0997
-5.09543
-5.09167
-5.08836
-5.08548
-5.08298
-5.08082
-5.07898
-5.07744
-5.07616
-5.07512
-5.07432
-5.07373
-5.07334
-5.07315
-5.25773
-5.25257
-5.2479
-5.2437
-5.23995
-5.23662
-5.23367
-5.23107
-5.2288
-5.22683
-5.22513
-5.22368
-5.22246
-5.22145
-5.22063
-5.21999
-5.21952
-5.21922
-5.21907
-5.39261
-5.38892
-5.38559
-5.38259
-5.3799
-5.37751
-5.37539
-5.37352
-5.37189
-5.37047
-5.36925
-5.3682
-5.36732
-5.36659
-5.36599
-5.36553
-5.36519
-5.36497
-5.36487
-5.52725
-5.52505
-5.52305
-5.52125
-5.51964
-5.5182
-5.51692
-5.5158
-5.51482
-5.51396
-5.51322
-5.51259
-5.51206
-5.51161
-5.51126
-5.51098
-5.51077
-5.51064
-5.51058
-5.6618
-5.66107
-5.6604
-5.6598
-5.65926
-5.65878
-5.65836
-5.65798
-5.65765
-5.65737
-5.65712
-5.65691
-5.65673
-5.65658
-5.65646
-5.65636
-5.6563
-5.65625
-5.65623
)
;

boundaryField
{
    leftWall
    {
        type            calculated;
        value           nonuniform List<scalar> 
50
(
1327.29
1269.92
1214.09
1159.79
1107.02
1055.8
1006.11
957.894
884.922
792.518
706.824
627.642
554.69
487.632
426.082
369.619
317.798
270.152
226.199
185.406
147.335
112.101
78.6795
41.7981
8.50637
6.27789
14.485
-4.12494
-4.17043
-4.20063
-4.24184
-4.28702
-4.33697
-4.39163
-4.45139
-4.51573
-4.58388
-4.65553
-4.73071
-4.80931
-4.89093
-4.97496
-5.06087
-5.14825
-5.23687
-5.32659
-5.41729
-5.50898
-5.60137
-5.69258
)
;
    }
    rightWall
    {
        type            calculated;
        value           nonuniform List<scalar> 
50
(
0.836685
0.777479
0.71791
0.657979
0.597687
0.537037
0.476028
0.414663
0.318164
0.185301
0.0508773
-0.0850676
-0.222487
-0.361325
-0.501517
-0.642989
-0.78566
-0.929443
-1.07424
-1.21997
-1.36651
-1.51378
-1.66166
-1.81007
-1.9589
-2.10806
-2.25746
-2.40702
-2.55667
-2.70633
-2.85594
-3.00545
-3.1548
-3.30396
-3.45289
-3.60157
-3.74997
-3.89808
-4.0459
-4.19343
-4.34067
-4.48764
-4.63435
-4.78082
-4.92708
-5.07315
-5.21907
-5.36487
-5.51058
-5.65623
)
;
    }
    lowerWall
    {
        type            calculated;
        value           nonuniform List<scalar> 
62
(
1356.72
1348.17
1329.65
1301.42
1263.15
1214.15
1153.56
1080.13
992.701
887.814
765.304
628.844
442.186
209.668
56.512
9.77093
4.8904
4.04902
3.3409
2.95543
2.72929
2.5938
2.53164
2.50218
2.42376
2.32085
2.19639
2.05294
1.89124
1.70921
1.50588
0.922353
0.876111
0.862419
0.828036
1.11333
1.05564
0.999155
0.943826
0.889742
0.83635
0.780577
0.72678
1.14276
1.13452
1.1176
1.09536
1.0706
1.04517
1.02026
0.996572
0.974584
0.95453
0.936538
0.920638
0.906831
0.895074
0.885352
0.877608
0.871845
0.868002
0.866115
)
;
    }
    atmosphere
    {
        type            calculated;
        value           nonuniform List<scalar> 
46
(
-5.73679
-5.73675
-5.73655
-5.73623
-5.73583
-5.73534
-5.73478
-5.73417
-5.73352
-5.73286
-5.73221
-5.73158
-5.731
-5.73047
-5.73003
-5.72966
-5.72938
-5.72918
-5.72907
-5.72904
-5.72904
-5.72904
-5.72904
-5.72904
-5.72904
-5.72904
-5.72904
-5.72904
-5.72904
-5.72904
-5.72904
-5.72904
-5.72904
-5.72904
-5.72904
-5.72904
-5.72904
-5.72904
-5.72904
-5.72904
-5.72904
-5.72904
-5.72904
-5.72904
-5.72904
-5.72904
)
;
    }
    defaultFaces
    {
        type            empty;
    }
}


// ************************************************************************* //
