/*--------------------------------*- C++ -*----------------------------------*\
| =========                 |                                                 |
| \\      /  F ield         | OpenFOAM: The Open Source CFD Toolbox           |
|  \\    /   O peration     | Version:  2012                                  |
|   \\  /    A nd           | Website:  www.openfoam.com                      |
|    \\/     M anipulation  |                                                 |
\*---------------------------------------------------------------------------*/
FoamFile
{
    version     2.0;
    format      ascii;
    class       volScalarField;
    location    "0.05";
    object      p_rgh;
}
// * * * * * * * * * * * * * * * * * * * * * * * * * * * * * * * * * * * * * //

dimensions      [1 -1 -2 0 0 0 0];


internalField   nonuniform List<scalar> 
2268
(
1356.72
1348.17
1329.65
1301.42
1263.15
1214.15
1153.56
1080.13
992.701
887.814
765.304
628.844
442.186
209.668
56.512
9.77093
4.8904
4.04902
3.3409
2.95543
2.72929
2.5938
2.53164
1358.21
1349.68
1331.18
1303
1264.78
1215.85
1155.32
1081.95
994.54
889.371
766.611
628.665
430.529
185.102
42.0704
7.8129
4.42571
3.72965
3.25225
2.92487
2.70365
2.57172
2.5121
1361.24
1352.72
1334.27
1306.18
1268.08
1219.28
1158.9
1085.65
998.326
892.777
769.684
628.343
412.154
132.436
17.5101
5.65356
3.76544
3.33039
3.04149
2.80649
2.63243
2.52117
2.46804
1365.79
1357.31
1338.94
1310.99
1273.06
1224.46
1164.32
1091.31
1004.17
898.344
775.137
629.997
394.787
95.8545
10.6166
4.06702
2.81822
2.76638
2.76187
2.65502
2.53715
2.44937
2.40243
1371.89
1363.44
1345.18
1317.41
1279.72
1231.42
1171.61
1098.99
1012.2
906.438
783.681
635.312
379.805
74.2361
7.18857
3.15137
2.42571
2.46385
2.54185
2.51044
2.43272
2.36228
2.31782
1379.53
1371.12
1353.01
1325.48
1288.09
1240.18
1180.85
1108.78
1022.6
917.385
795.87
645.582
368.866
56.1955
5.2143
2.59907
2.23789
2.31819
2.39113
2.38069
2.32505
2.26416
2.21498
1388.69
1380.35
1362.42
1335.16
1298.16
1250.73
1192
1120.68
1035.37
931.225
811.851
661.462
365.025
42.9423
4.07997
2.28427
2.13621
2.20593
2.26554
2.26257
2.21753
2.15833
2.0918
1399.33
1391.04
1373.32
1346.39
1309.82
1262.97
1204.97
1134.56
1050.34
947.743
831.022
682.361
368.443
34.6718
3.29066
2.11322
2.05874
2.11106
2.15746
2.15476
2.11286
2.04927
1.94732
1.14276
1.13452
1.1176
1.09536
1.0706
1.04517
1.02026
0.996572
0.974584
0.95453
0.936538
0.920638
0.906831
0.895074
0.885352
0.877608
0.871845
0.868002
0.866115
1.14393
1.1357
1.11841
1.09578
1.07071
1.04508
1.02003
0.996277
0.974249
0.954173
0.936174
0.920271
0.906466
0.894711
0.884994
0.877253
0.871496
0.867652
0.865767
1.1463
1.13813
1.12006
1.0966
1.07093
1.0449
1.0196
0.995688
0.973573
0.953451
0.935431
0.919521
0.905718
0.89397
0.884262
0.876528
0.870779
0.86694
0.865057
1.14983
1.14187
1.12257
1.09781
1.07123
1.0446
1.01892
0.994787
0.972545
0.952358
0.934307
0.918388
0.904589
0.892851
0.883155
0.875434
0.869696
0.865867
0.863984
1.15461
1.14707
1.12592
1.09934
1.07152
1.04412
1.01797
0.993554
0.971154
0.950885
0.932799
0.916871
0.903078
0.891354
0.881675
0.873972
0.868248
0.864431
0.862552
1.16007
1.15396
1.13008
1.10108
1.07174
1.04341
1.0167
0.991962
0.969384
0.949025
0.930901
0.914967
0.901183
0.889479
0.879823
0.872143
0.866437
0.862636
0.86076
1.16316
1.16256
1.135
1.10287
1.07179
1.04239
1.01506
0.989981
0.967216
0.946767
0.928607
0.912671
0.898904
0.887227
0.877599
0.869948
0.864262
0.86048
0.85861
1.16822
1.1726
1.14052
1.10451
1.07144
1.04095
1.013
0.987576
0.96463
0.944097
0.92591
0.909982
0.89624
0.884598
0.875004
0.867388
0.861727
0.857967
0.856104
1418.39
1410.19
1392.86
1366.53
1330.78
1285.02
1228.41
1159.8
1077.82
978.772
866.015
722.387
382.147
25.7282
2.52948
1.97358
1.95209
1.98478
2.01093
2.00228
1.95751
1.87453
1.68242
1451.18
1443.22
1426.59
1401.35
1367.12
1323.38
1269.44
1204.34
1127.01
1034.66
931.035
799.601
389.999
14.2508
2.05246
1.83728
1.82609
1.84211
1.85052
1.83385
1.78836
1.71251
1.60587
1490.68
1483.03
1467.24
1443.31
1410.92
1369.64
1318.94
1258.1
1186.39
1101.82
1008.59
890.887
394.53
8.1207
1.80655
1.70687
1.70399
1.71414
1.7144
1.69602
1.65793
1.60077
1.52885
1536.69
1529.41
1514.59
1492.16
1461.87
1423.4
1376.37
1320.3
1254.79
1178.47
1095.76
991.495
393.285
4.51952
1.66424
1.59303
1.59298
1.59883
1.59485
1.5771
1.54505
1.4988
1.43945
1588.94
1582.09
1568.33
1547.54
1519.54
1484.12
1441.04
1390.01
1330.88
1262.79
1190.09
1098.31
386.01
2.69953
1.56092
1.49321
1.49102
1.49315
1.48705
1.47062
1.44336
1.40548
1.35818
1647.07
1640.7
1628.07
1609.03
1583.44
1551.21
1512.19
1466.28
1413.49
1353.31
1289.85
1209.37
373.202
2.19457
1.45239
1.3962
1.39341
1.39401
1.38778
1.37347
1.35082
1.32021
1.28272
1710.72
1704.86
1693.4
1676.15
1653.05
1624.05
1589.12
1548.25
1501.59
1448.83
1393.74
1323.39
356.975
1.75198
1.32819
1.2966
1.29797
1.29985
1.29517
1.28362
1.26529
1.24071
1.21079
1779.45
1774.14
1763.86
1748.43
1727.81
1702.03
1671.11
1635.12
1594.28
1548.42
1500.89
1439.65
338.318
1.44915
1.20383
1.19831
1.20641
1.211
1.20859
1.19986
1.18536
1.16575
1.14188
1852.82
1848.06
1838.97
1825.33
1807.17
1784.52
1757.47
1726.13
1690.75
1651.25
1610.57
1557.67
317.781
1.28275
1.1004
1.10974
1.12222
1.12858
1.1279
1.1215
1.11015
1.09459
1.07557
1930.37
1926.17
1918.22
1906.33
1890.53
1870.91
1847.54
1820.58
1790.3
1756.67
1722.23
1677.08
295.926
1.18655
1.02595
1.03575
1.04727
1.05299
1.05275
1.04779
1.03885
1.02653
1.01144
2011.61
2007.94
2001.11
1990.88
1977.35
1960.6
1940.73
1917.89
1892.36
1864.16
1835.49
1797.59
273.224
1.11164
0.968055
0.97348
0.980207
0.983187
0.982094
0.97775
0.970571
0.960875
0.949034
2096.01
2092.86
2087.08
2078.45
2067.07
2053.03
2036.44
2017.47
1996.39
1973.27
1950
1919.01
250.116
1.04109
0.9211
0.917664
0.918134
0.91724
0.914473
0.910173
0.904338
0.896891
0.887899
2183.14
2180.48
2175.71
2168.6
2159.24
2147.75
2134.25
2118.91
2102.01
2083.64
2065.43
2041.12
226.983
0.979636
0.875731
0.864519
0.858196
0.853036
0.848312
0.843867
0.839241
0.833906
0.827599
2273.08
2270.9
2267.09
2261.41
2253.95
2244.84
2234.23
2222.33
2209.41
2195.52
2182
2163.84
204.708
0.933701
0.831448
0.811453
0.797636
0.788249
0.781875
0.777597
0.774407
0.771329
0.767771
2364.78
2362.89
2359.95
2355.56
2349.8
2342.85
2334.86
2326.08
2316.84
2307.23
2298.5
2286.59
177.312
0.900258
0.790614
0.755469
0.732926
0.719943
0.713082
0.710034
0.709029
0.708693
0.708176
2452.57
2450.89
2448.64
2445.35
2441.03
2435.85
2430
2423.76
2417.49
2411.58
2407.97
2404.74
157.153
0.984461
0.747165
0.689555
0.659272
0.644884
0.639853
0.639975
0.642474
0.645705
0.648722
2540.97
2539.9
2538.38
2536.08
2533.12
2529.62
2525.78
2521.84
2518.13
2515
2514.64
2512.23
345.947
0.8882
0.700507
0.601948
0.570115
0.559805
0.560567
0.566599
0.574416
0.582328
0.589514
2515.2
2512.61
2508.43
2502.01
2493.37
2482.5
2469.33
2453.33
2436.37
2400.82
2368.29
2024.22
584.162
1.20926
0.641691
0.479867
0.456101
0.461345
0.474537
0.489985
0.50517
0.518903
0.530886
849.043
844.189
835.639
823.055
806.378
785.833
761.328
732.069
702.326
636.013
580.874
178.752
178.518
52.9277
0.902415
0.276991
0.306827
0.347536
0.382904
0.411486
0.435724
0.45621
0.473424
-1.21278
-1.20685
-1.20027
-1.19052
-1.1779
-1.16263
-1.14502
-1.12493
-1.10594
-1.10387
-1.12195
-1.10125
-1.75596
14.5591
5.25142
0.193042
0.121479
0.224141
0.288763
0.333648
0.368063
0.395587
0.418034
-1.13307
-1.12923
-1.12235
-1.11218
-1.09888
-1.08239
-1.0623
-1.03873
-1.01522
-0.987669
-0.949911
-0.982317
-1.15983
-0.824431
0.677546
-0.155318
-0.0237461
0.117289
0.203118
0.261683
0.305016
0.338758
0.365829
-1.03808
-1.03452
-1.02708
-1.01616
-1.00181
-0.983675
-0.961326
-0.935079
-0.90573
-0.868733
-0.829228
-0.823494
-0.841447
-0.706548
-0.483979
-0.242322
-0.0714621
0.0517331
0.138207
0.201516
0.249637
0.287449
0.317876
-0.954091
-0.950379
-0.942762
-0.931546
-0.916578
-0.897477
-0.873896
-0.84579
-0.8124
-0.771868
-0.73047
-0.696756
-0.644232
-0.519897
-0.349397
-0.198676
-0.0801381
0.0164925
0.0933603
0.154408
0.203173
0.242593
0.27485
-0.874081
-0.870043
-0.862395
-0.850961
-0.83546
-0.815627
-0.791197
-0.761838
-0.726599
-0.684939
-0.638986
-0.587123
-0.517214
-0.418083
-0.300126
-0.186706
-0.0897957
-0.00779786
0.0606769
0.117591
0.164818
0.204087
0.236877
-0.798837
-0.794913
-0.787312
-0.775796
-0.760129
-0.740084
-0.715427
-0.685808
-0.650533
-0.609343
-0.56236
-0.507104
-0.438703
-0.355731
-0.265365
-0.176948
-0.0963908
-0.0254111
0.0359269
0.0884503
0.133217
0.171298
0.203695
-0.728303
-0.724648
-0.717098
-0.705646
-0.6902
-0.67049
-0.646266
-0.617246
-0.582988
-0.543174
-0.497385
-0.444272
-0.382419
-0.312597
-0.239017
-0.166631
-0.0988347
-0.0373034
0.0173954
0.0654106
0.107241
0.143512
0.174879
-0.662867
-0.659278
-0.651812
-0.640623
-0.625674
-0.606683
-0.583391
-0.555576
-0.522977
-0.485336
-0.442328
-0.393476
-0.338711
-0.279212
-0.217556
-0.156666
-0.0986984
-0.0450374
0.00366548
0.0472714
0.0859556
0.120048
0.149957
-0.602013
-0.598402
-0.591179
-0.580476
-0.566219
-0.54817
-0.526108
-0.499872
-0.469331
-0.434361
-0.394858
-0.350825
-0.302661
-0.251443
-0.19887
-0.146782
-0.0967356
-0.0497198
-0.00636649
0.0330634
0.068566
0.100285
0.128458
-0.544964
-0.541478
-0.534712
-0.524686
-0.511274
-0.494321
-0.473679
-0.44926
-0.421032
-0.388998
-0.353227
-0.313944
-0.271663
-0.227274
-0.181962
-0.136972
-0.0934156
-0.0520794
-0.0134993
0.0220294
0.054409
0.0836699
0.109934
-0.491422
-0.488248
-0.482072
-0.472816
-0.460353
-0.444605
-0.425508
-0.403046
-0.377258
-0.348236
-0.31615
-0.281306
-0.244202
-0.205554
-0.166227
-0.127114
-0.0890341
-0.0526295
-0.0183293
0.0135721
0.042933
0.0697187
0.0939767
-0.441406
-0.438622
-0.433047
-0.42456
-0.413082
-0.398596
-0.381105
-0.360649
-0.337315
-0.311245
-0.282654
-0.251858
-0.219304
-0.185566
-0.151302
-0.117183
-0.0838265
-0.0517518
-0.021316
0.00721173
0.033677
0.0580115
0.0802172
-0.394815
-0.392383
-0.38734
-0.379575
-0.369075
-0.35586
-0.33998
-0.32151
-0.300564
-0.277305
-0.251961
-0.224829
-0.196298
-0.166831
-0.136942
-0.107152
-0.0779428
-0.0497496
-0.0228227
0.00255807
0.0262541
0.0481848
0.0683257
-0.351235
-0.349072
-0.344487
-0.337404
-0.327862
-0.315908
-0.301612
-0.28507
-0.266407
-0.245794
-0.223448
-0.199641
-0.174703
-0.149014
-0.122984
-0.0970218
-0.071508
-0.0467674
-0.0231266
-0.000708694
0.0203381
0.0399243
0.0580099
-0.310078
-0.308119
-0.30395
-0.297536
-0.288945
-0.278236
-0.26549
-0.25081
-0.234324
-0.216197
-0.19663
-0.175864
-0.154181
-0.131893
-0.109331
-0.0868219
-0.0646728
-0.0431556
-0.0225054
-0.00286444
0.0156515
0.0329588
0.0490125
-0.27079
-0.269006
-0.265249
-0.259514
-0.251878
-0.242407
-0.23118
-0.218302
-0.203897
-0.188119
-0.171148
-0.153196
-0.134501
-0.115322
-0.0959262
-0.0765774
-0.0575224
-0.0389818
-0.0211444
-0.00412922
0.0119615
0.0270552
0.0411078
-0.232976
-0.231368
-0.228039
-0.223003
-0.216333
-0.20809
-0.198355
-0.187226
-0.174819
-0.161272
-0.146747
-0.131426
-0.115509
-0.0992083
-0.0827417
-0.0663207
-0.0501432
-0.0343849
-0.0191917
-0.00468419
0.00907187
0.0220133
0.0340984
-0.1964
-0.194986
-0.192106
-0.187785
-0.182083
-0.175059
-0.166786
-0.157355
-0.14687
-0.135455
-0.12325
-0.110408
-0.0970977
-0.0834915
-0.0697642
-0.0560847
-0.0426103
-0.0294799
-0.0168112
-0.00469319
0.00681277
0.0176594
0.0278116
-0.160922
-0.15972
-0.157306
-0.153705
-0.148966
-0.143142
-0.136299
-0.128516
-0.119885
-0.110514
-0.10052
-0.0900331
-0.0791888
-0.0681265
-0.0569847
-0.0458962
-0.0349833
-0.0243537
-0.0140978
-0.00428467
0.00504096
0.0138431
0.022095
-0.126432
-0.125457
-0.123515
-0.120631
-0.116842
-0.112194
-0.106745
-0.100561
-0.0937217
-0.0863162
-0.0784424
-0.0702047
-0.0617112
-0.0530712
-0.0443917
-0.035774
-0.0273102
-0.0190802
-0.01115
-0.00357122
0.00363174
0.0104318
0.0168125
-0.0929254
-0.0921861
-0.0907141
-0.0885302
-0.0856649
-0.0821576
-0.0780553
-0.0734138
-0.0682982
-0.0627809
-0.0569398
-0.0508563
-0.0446134
-0.0382933
-0.031975
-0.0257318
-0.0196285
-0.0137197
-0.008048
-0.00264147
0.00247464
0.00730467
0.0118391
-0.0601259
-0.0596325
-0.058629
-0.0571359
-0.0551783
-0.0527874
-0.0500009
-0.0468631
-0.0434246
-0.0397411
-0.0358709
-0.031874
-0.0278101
-0.0237366
-0.0197071
-0.0157695
-0.011964
-0.00832239
-0.00486643
-0.00160649
0.00146107
0.00434708
0.00705571
-0.0261349
-0.0259166
-0.0254225
-0.0246784
-0.0237032
-0.0225174
-0.0211454
-0.019616
-0.0179611
-0.0162153
-0.0144141
-0.0125929
-0.0107856
-0.0090234
-0.00733353
-0.0057382
-0.00425401
-0.00289141
-0.00165421
-0.0005376
0.000485919
0.00144257
0.00234122
1.39322
1.34698
1.33329
1.29891
1.49966
1.44083
1.38974
1.34249
1.45707
1.40829
1.36355
1.32324
1.38633
1.35162
1.31806
1.28595
1.31836
1.29205
1.26563
1.23963
1.25152
1.23077
1.20965
1.18855
1.18599
1.16946
1.15248
1.13529
1.12208
1.10884
1.09512
1.0811
1.05973
1.04911
1.03804
1.02663
0.998812
0.990314
0.981425
0.972215
0.939099
0.932391
0.925356
0.918035
0.880331
0.875203
0.869805
0.864166
0.822242
0.818587
0.81471
0.81063
0.764614
0.762408
0.760015
0.757442
0.70733
0.706618
0.705728
0.704655
0.650391
0.651265
0.651932
0.652385
0.593949
0.59652
0.598813
0.600826
0.538331
0.542702
0.54668
0.550275
0.484008
0.490222
0.495899
0.501073
0.431673
0.439668
0.446974
0.453651
0.382178
0.391756
0.400513
0.40853
0.33632
0.347152
0.357076
0.366188
0.294637
0.306316
0.317062
0.326971
0.257298
0.269428
0.28065
0.29105
0.224177
0.236422
0.247814
0.258428
0.194987
0.20708
0.218392
0.228981
0.16937
0.181107
0.192139
0.202512
0.146943
0.158172
0.168772
0.178776
0.127331
0.137942
0.147994
0.157514
0.110176
0.120091
0.129513
0.138461
0.0951489
0.104314
0.113047
0.12136
0.0819481
0.0903294
0.0983321
0.105967
0.0703016
0.0778784
0.0851263
0.0920536
0.0599663
0.0667286
0.0732072
0.0794086
0.0507263
0.0566712
0.0623742
0.0678402
0.0423905
0.0475201
0.0524466
0.0571736
0.0347897
0.0391095
0.0432624
0.0472508
0.0277736
0.0312909
0.0346751
0.0379279
0.0212066
0.0239294
0.0265509
0.0290723
0.0149631
0.0168991
0.0187642
0.0205589
0.00892271
0.0100796
0.0111943
0.0122671
0.0029612
0.00334527
0.00371533
0.00407146
1.2257
1.18993
1.14826
1.10637
1.07008
1.03792
1.00903
0.983095
0.959892
0.939254
0.921047
0.905151
0.891465
0.879893
0.870366
0.862814
0.8572
0.853478
0.851631
1.26861
1.19993
1.14842
1.10337
1.06455
1.03081
1.00104
0.974661
0.951278
0.930623
0.912494
0.896727
0.883189
0.87177
0.862382
0.854953
0.849433
0.845778
0.843962
1.26124
1.19316
1.13943
1.09365
1.05421
1.02001
0.990032
0.96362
0.940335
0.91986
0.901955
0.886429
0.873129
0.86193
0.852738
0.845472
0.840076
0.836507
0.834733
1.23473
1.17319
1.12167
1.07739
1.0389
1.00531
0.975811
0.949841
0.926983
0.906924
0.889417
0.874263
0.861302
0.850403
0.841465
0.834407
0.829168
0.825704
0.823983
1.19729
1.14365
1.09664
1.05534
1.01892
0.986788
0.958399
0.933325
0.911226
0.891828
0.874903
0.860261
0.847745
0.837228
0.828607
0.821802
0.816753
0.813416
0.811758
1.15364
1.1077
1.06599
1.02846
0.994815
0.964757
0.937973
0.914183
0.893143
0.874637
0.858472
0.84448
0.832516
0.822462
0.81422
0.807715
0.802888
0.799698
0.798114
1.10649
1.06752
1.03114
0.997692
0.967213
0.939627
0.914807
0.892608
0.872879
0.855467
0.840222
0.827005
0.815692
0.806177
0.798374
0.792212
0.78764
0.784618
0.783117
1.05737
1.02455
0.993232
0.963891
0.936738
0.911849
0.889231
0.868845
0.850621
0.834467
0.820276
0.807943
0.797368
0.788462
0.781151
0.775374
0.771084
0.768248
0.76684
1.00717
0.979757
0.953126
0.927764
0.903955
0.881865
0.861588
0.843162
0.826583
0.811811
0.798782
0.787422
0.777658
0.769419
0.762645
0.757287
0.753306
0.750672
0.749363
0.956401
0.933787
0.911468
0.889893
0.869364
0.85009
0.832217
0.815836
0.800992
0.787688
0.775898
0.76558
0.756684
0.749159
0.74296
0.73805
0.734396
0.731977
0.730775
0.905406
0.887094
0.868747
0.850751
0.833393
0.816899
0.801439
0.787139
0.774078
0.762295
0.751796
0.742565
0.734577
0.7278
0.722205
0.717763
0.714453
0.712259
0.711168
0.854392
0.840002
0.825341
0.810724
0.796413
0.782628
0.769552
0.75733
0.746067
0.735828
0.726645
0.71853
0.711475
0.705468
0.700492
0.696533
0.693577
0.691615
0.69064
0.803503
0.792759
0.781553
0.770137
0.758742
0.747577
0.736829
0.726654
0.717175
0.708478
0.700618
0.693625
0.687514
0.682286
0.67794
0.67447
0.671874
0.670148
0.669289
0.75285
0.745568
0.737639
0.729267
0.72066
0.712015
0.70352
0.695339
0.687608
0.68043
0.673879
0.668003
0.662831
0.658382
0.654664
0.651685
0.649448
0.647959
0.647218
0.702557
0.698619
0.693827
0.688362
0.682416
0.676183
0.669853
0.663597
0.657561
0.651863
0.646591
0.64181
0.637562
0.633878
0.630781
0.628286
0.626407
0.625152
0.624527
0.652781
0.652108
0.650338
0.647651
0.64424
0.640305
0.63604
0.631624
0.627216
0.622943
0.618907
0.615185
0.611834
0.608896
0.606404
0.604383
0.602852
0.601827
0.601316
0.603731
0.606254
0.607394
0.607355
0.606349
0.604588
0.602276
0.599605
0.596742
0.593826
0.59097
0.588263
0.585772
0.583551
0.581642
0.580077
0.578884
0.578082
0.577681
0.555676
0.561304
0.565226
0.567692
0.568949
0.569227
0.568742
0.567708
0.566297
0.564659
0.562916
0.561168
0.559493
0.557953
0.556599
0.555471
0.5546
0.554011
0.553716
0.508924
0.517524
0.524073
0.528877
0.532238
0.534407
0.535605
0.536089
0.536026
0.535575
0.53487
0.534017
0.533105
0.532205
0.531373
0.530657
0.530091
0.529703
0.529508
0.463825
0.475191
0.484161
0.491118
0.4964
0.500308
0.503004
0.504889
0.506062
0.506696
0.506944
0.506917
0.506711
0.506403
0.506057
0.505724
0.505443
0.505242
0.505139
0.420778
0.434603
0.445727
0.454595
0.461583
0.467011
0.471139
0.474247
0.476527
0.478129
0.479243
0.479967
0.480401
0.480635
0.480734
0.480753
0.480733
0.480705
0.480687
0.380146
0.396034
0.408986
0.419491
0.427953
0.434714
0.440061
0.444254
0.447504
0.449986
0.451862
0.453255
0.45426
0.454981
0.455482
0.455818
0.456034
0.456161
0.456222
0.342205
0.359695
0.374108
0.385948
0.395633
0.403514
0.409886
0.415009
0.419097
0.422333
0.424874
0.42685
0.428366
0.429515
0.430368
0.430985
0.431409
0.431675
0.431807
0.30711
0.32572
0.341209
0.354069
0.364714
0.373491
0.380697
0.386586
0.391374
0.395243
0.398349
0.400823
0.402774
0.404293
0.405452
0.406312
0.406917
0.407302
0.407496
0.274892
0.294157
0.310342
0.323909
0.33525
0.344702
0.352551
0.359043
0.36439
0.368772
0.372341
0.375228
0.37754
0.379367
0.380783
0.381848
0.382606
0.383092
0.383337
0.245484
0.26498
0.281508
0.295481
0.307266
0.317175
0.32548
0.332416
0.338184
0.34296
0.346891
0.350103
0.352703
0.354779
0.356403
0.357634
0.358517
0.359086
0.359372
0.218747
0.238106
0.254657
0.268763
0.280754
0.290915
0.299497
0.306722
0.312778
0.317832
0.322026
0.325479
0.328296
0.33056
0.332343
0.333703
0.334684
0.335318
0.335634
0.194497
0.213409
0.229706
0.2437
0.255679
0.265901
0.274595
0.281962
0.28818
0.293402
0.297762
0.301374
0.304337
0.306733
0.308629
0.31008
0.311131
0.311813
0.312152
0.172528
0.190738
0.206544
0.22021
0.231986
0.242097
0.250748
0.258122
0.264381
0.269666
0.274102
0.277796
0.28084
0.283311
0.285275
0.286784
0.287879
0.288592
0.288945
0.152619
0.169923
0.185043
0.198197
0.2096
0.219446
0.227916
0.235173
0.241362
0.246614
0.251041
0.254743
0.257806
0.260301
0.26229
0.263823
0.264938
0.265665
0.266025
0.134553
0.150789
0.165062
0.177551
0.188434
0.19788
0.206046
0.213074
0.219094
0.224223
0.228564
0.232206
0.235229
0.2377
0.239675
0.241201
0.242314
0.24304
0.243398
0.118114
0.133159
0.146457
0.158152
0.168393
0.177323
0.185075
0.191775
0.197537
0.202463
0.206646
0.210167
0.213098
0.2155
0.217425
0.218915
0.220004
0.220715
0.221065
0.103099
0.11686
0.129081
0.139879
0.149375
0.157689
0.164935
0.171221
0.176644
0.181296
0.185258
0.188603
0.191393
0.193686
0.195527
0.196955
0.198
0.198683
0.199018
0.089317
0.101725
0.11279
0.122608
0.131275
0.138891
0.145551
0.151347
0.156364
0.160679
0.164364
0.167482
0.17009
0.172237
0.173964
0.175306
0.176289
0.176932
0.177246
0.0765891
0.0875946
0.0974463
0.106217
0.113987
0.120837
0.126845
0.132089
0.13664
0.140564
0.143923
0.146771
0.149158
0.151127
0.152714
0.153948
0.154852
0.155444
0.155733
0.0647515
0.0743214
0.0829152
0.0905899
0.0974085
0.103436
0.108738
0.113376
0.117411
0.120898
0.123889
0.12643
0.128563
0.130326
0.131748
0.132855
0.133667
0.134198
0.134456
0.0536534
0.0617658
0.0690703
0.0756104
0.0814357
0.0865976
0.091148
0.0951375
0.0986149
0.101626
0.104213
0.106415
0.108267
0.109798
0.111035
0.111999
0.112706
0.113169
0.113392
0.0431555
0.0497972
0.0557905
0.0611682
0.0659681
0.0702298
0.0739937
0.0772997
0.0801861
0.0826896
0.0848439
0.0866801
0.0882261
0.0895061
0.0905409
0.0913474
0.0919394
0.0923272
0.0925127
0.0331279
0.0382918
0.0429597
0.0471554
0.0509064
0.0542422
0.057193
0.0597886
0.0620581
0.064029
0.0657273
0.0671765
0.0683979
0.0694099
0.0702285
0.0708669
0.0713356
0.0716426
0.071788
0.023447
0.0271308
0.0304652
0.0334663
0.0361528
0.038545
0.0406636
0.0425294
0.0441626
0.0455825
0.0468072
0.0478533
0.0487355
0.049467
0.0500589
0.0505207
0.0508598
0.0510821
0.0511857
0.0139933
0.0161989
0.0181972
0.0199976
0.0216109
0.0230487
0.0243233
0.0254468
0.0264311
0.0272876
0.0280268
0.0286586
0.0291918
0.029634
0.029992
0.0302714
0.0304766
0.0306114
0.0306726
0.00464428
0.00537749
0.00604252
0.00664225
0.00718014
0.00765999
0.00808573
0.00846133
0.00879066
0.00907742
0.00932511
0.00953693
0.00971577
0.00986418
0.00998437
0.0100782
0.0101472
0.0101926
0.0102125
)
;

boundaryField
{
    leftWall
    {
        type            fixedFluxPressure;
        gradient        uniform 0;
        value           nonuniform List<scalar> 
50
(
1356.72
1358.21
1361.24
1365.79
1371.89
1379.53
1388.69
1399.33
1418.39
1451.18
1490.68
1536.69
1588.94
1647.07
1710.72
1779.45
1852.82
1930.37
2011.61
2096.01
2183.14
2273.08
2364.78
2452.57
2540.97
2515.2
849.043
-1.21278
-1.13307
-1.03808
-0.954091
-0.874081
-0.798837
-0.728303
-0.662867
-0.602013
-0.544964
-0.491422
-0.441406
-0.394815
-0.351235
-0.310078
-0.27079
-0.232976
-0.1964
-0.160922
-0.126432
-0.0929254
-0.0601259
-0.0261349
)
;
    }
    rightWall
    {
        type            fixedFluxPressure;
        gradient        uniform 0;
        value           nonuniform List<scalar> 
50
(
0.866115
0.865767
0.865057
0.863984
0.862552
0.86076
0.85861
0.856104
0.851631
0.843962
0.834733
0.823983
0.811758
0.798114
0.783117
0.76684
0.749363
0.730775
0.711168
0.69064
0.669289
0.647218
0.624527
0.601316
0.577681
0.553716
0.529508
0.505139
0.480687
0.456222
0.431807
0.407496
0.383337
0.359372
0.335634
0.312152
0.288945
0.266025
0.243398
0.221065
0.199018
0.177246
0.155733
0.134456
0.113392
0.0925127
0.071788
0.0511857
0.0306726
0.0102125
)
;
    }
    lowerWall
    {
        type            fixedFluxPressure;
        gradient        uniform 0;
        value           nonuniform List<scalar> 
62
(
1356.72
1348.17
1329.65
1301.42
1263.15
1214.15
1153.56
1080.13
992.701
887.814
765.304
628.844
442.186
209.668
56.512
9.77093
4.8904
4.04902
3.3409
2.95543
2.72929
2.5938
2.53164
2.53164
2.5121
2.46804
2.40243
2.31782
2.21498
2.0918
1.94732
1.39322
1.34698
1.33329
1.29891
1.14276
1.14393
1.1463
1.14983
1.15461
1.16007
1.16316
1.16822
1.14276
1.13452
1.1176
1.09536
1.0706
1.04517
1.02026
0.996572
0.974584
0.95453
0.936538
0.920638
0.906831
0.895074
0.885352
0.877608
0.871845
0.868002
0.866115
)
;
    }
    atmosphere
    {
        type            totalPressure;
        rho             rho;
        psi             none;
        gamma           1;
        p0              uniform 0;
        value           nonuniform List<scalar> 
46
(
-0.00774602
-0.00771282
-0.00750558
-0.00719479
-0.0067887
-0.00629859
-0.00573876
-0.00512608
-0.00447945
-0.00381903
-0.00316533
-0.00253824
-0.00195598
-0.00143419
-0.000985251
-0.00061776
-0.000336369
-0.000141866
-3.16064e-05
0
0
0
0
0
0
0
0
0
0
0
0
0
0
0
0
0
0
0
0
0
0
0
0
0
0
0
)
;
    }
    defaultFaces
    {
        type            empty;
    }
}


// ************************************************************************* //
