/*--------------------------------*- C++ -*----------------------------------*\
| =========                 |                                                 |
| \\      /  F ield         | OpenFOAM: The Open Source CFD Toolbox           |
|  \\    /   O peration     | Version:  2012                                  |
|   \\  /    A nd           | Website:  www.openfoam.com                      |
|    \\/     M anipulation  |                                                 |
\*---------------------------------------------------------------------------*/
FoamFile
{
    version     2.0;
    format      ascii;
    class       volVectorField;
    location    "0.05";
    object      U;
}
// * * * * * * * * * * * * * * * * * * * * * * * * * * * * * * * * * * * * * //

dimensions      [0 1 -1 0 0 0 0];


internalField   nonuniform List<vector> 
2268
(
(0.0182635 -0.00863373 0)
(0.0557498 -0.00915504 0)
(0.0945711 -0.00923106 0)
(0.134402 -0.00961966 0)
(0.176245 -0.0102079 0)
(0.221017 -0.011019 0)
(0.269826 -0.0121251 0)
(0.323801 -0.0136358 0)
(0.387146 -0.0157551 0)
(0.452371 -0.0186784 0)
(0.556759 -0.0236861 0)
(0.63887 -0.0294596 0)
(0.724743 -0.0424557 0)
(0.884975 -0.0544761 0)
(1.11912 -0.0462988 0)
(1.40521 -0.0107735 0)
(1.36383 0.0157344 0)
(1.09186 0.0491059 0)
(0.833123 0.0656305 0)
(0.596815 0.0511545 0)
(0.39277 0.0411251 0)
(0.226103 0.0368689 0)
(0.0754233 0.0355387 0)
(0.0182307 -0.0258262 0)
(0.0556546 -0.0273822 0)
(0.0943945 -0.0276161 0)
(0.134116 -0.0287735 0)
(0.175813 -0.0305218 0)
(0.220382 -0.0329279 0)
(0.2689 -0.0362025 0)
(0.322431 -0.0406757 0)
(0.385141 -0.0469047 0)
(0.448885 -0.0556758 0)
(0.553382 -0.0700802 0)
(0.626828 -0.0852626 0)
(0.703287 -0.119216 0)
(0.903039 -0.147976 0)
(1.22312 -0.129589 0)
(1.53075 -0.052546 0)
(1.60242 0.0257394 0)
(1.41083 0.139059 0)
(1.05413 0.202719 0)
(0.689785 0.179162 0)
(0.434425 0.137787 0)
(0.25017 0.115703 0)
(0.0842069 0.109876 0)
(0.0181198 -0.0429994 0)
(0.0553033 -0.0455577 0)
(0.093766 -0.0459488 0)
(0.133166 -0.0478587 0)
(0.174474 -0.050741 0)
(0.21854 -0.054702 0)
(0.266382 -0.0600794 0)
(0.318953 -0.067408 0)
(0.38024 -0.077523 0)
(0.441583 -0.0919383 0)
(0.544446 -0.114018 0)
(0.606329 -0.139154 0)
(0.681404 -0.193758 0)
(0.891501 -0.240381 0)
(1.18824 -0.23619 0)
(1.34918 -0.151297 0)
(1.34401 0.0402165 0)
(1.13259 0.271102 0)
(0.803967 0.367096 0)
(0.544661 0.307087 0)
(0.381522 0.229871 0)
(0.231473 0.193047 0)
(0.0797764 0.185957 0)
(0.017957 -0.0600547 0)
(0.0547823 -0.0635766 0)
(0.0928335 -0.0641193 0)
(0.131765 -0.06675 0)
(0.172508 -0.0707138 0)
(0.21585 -0.0761506 0)
(0.262721 -0.0835074 0)
(0.313937 -0.0934885 0)
(0.373183 -0.107144 0)
(0.431482 -0.12658 0)
(0.530674 -0.154933 0)
(0.579406 -0.190061 0)
(0.639973 -0.270213 0)
(0.838594 -0.325432 0)
(1.06045 -0.281122 0)
(1.12365 -0.167011 0)
(0.988726 0.100753 0)
(0.722583 0.406774 0)
(0.522783 0.485909 0)
(0.429956 0.387924 0)
(0.336749 0.296057 0)
(0.217271 0.25942 0)
(0.0777211 0.258753 0)
(0.0177447 -0.0769434 0)
(0.0540985 -0.0813787 0)
(0.0916099 -0.0820634 0)
(0.129933 -0.0853752 0)
(0.169948 -0.0903528 0)
(0.212363 -0.0971611 0)
(0.258001 -0.106333 0)
(0.307522 -0.118702 0)
(0.364224 -0.135462 0)
(0.418931 -0.159136 0)
(0.512963 -0.19253 0)
(0.547258 -0.235405 0)
(0.594055 -0.333322 0)
(0.776338 -0.387936 0)
(0.939223 -0.302051 0)
(0.920665 -0.123002 0)
(0.64529 0.213572 0)
(0.408134 0.49572 0)
(0.3663 0.514879 0)
(0.362624 0.415655 0)
(0.305799 0.340741 0)
(0.210123 0.316399 0)
(0.0790205 0.329614 0)
(0.0174853 -0.0935675 0)
(0.0532613 -0.0988513 0)
(0.0901141 -0.0996661 0)
(0.127703 -0.103607 0)
(0.166841 -0.109511 0)
(0.208152 -0.117557 0)
(0.252337 -0.128337 0)
(0.299893 -0.142772 0)
(0.353676 -0.162112 0)
(0.404428 -0.189149 0)
(0.492401 -0.226052 0)
(0.511827 -0.274452 0)
(0.549777 -0.383105 0)
(0.71622 -0.434338 0)
(0.836626 -0.303174 0)
(0.720503 -0.029179 0)
(0.371592 0.325925 0)
(0.260923 0.518635 0)
(0.306569 0.500351 0)
(0.323432 0.424103 0)
(0.286336 0.37332 0)
(0.211322 0.365567 0)
(0.0849038 0.402648 0)
(0.0171861 -0.109939 0)
(0.05229 -0.115999 0)
(0.0883794 -0.11693 0)
(0.125127 -0.121445 0)
(0.163271 -0.128187 0)
(0.203342 -0.137339 0)
(0.245917 -0.149532 0)
(0.291339 -0.165733 0)
(0.341986 -0.187162 0)
(0.388733 -0.216804 0)
(0.470225 -0.255449 0)
(0.475121 -0.307431 0)
(0.507135 -0.422953 0)
(0.657583 -0.469709 0)
(0.740971 -0.274185 0)
(0.528527 0.0927731 0)
(0.223028 0.402485 0)
(0.223692 0.505681 0)
(0.280491 0.47896 0)
(0.298605 0.427274 0)
(0.276556 0.396655 0)
(0.224102 0.405376 0)
(0.100654 0.476521 0)
(0.0168562 -0.126293 0)
(0.051199 -0.133088 0)
(0.0864269 -0.134129 0)
(0.12225 -0.139181 0)
(0.15931 -0.146694 0)
(0.198052 -0.156849 0)
(0.238925 -0.170292 0)
(0.282163 -0.188004 0)
(0.329617 -0.211149 0)
(0.372813 -0.242793 0)
(0.448022 -0.281895 0)
(0.43892 -0.335557 0)
(0.467208 -0.454315 0)
(0.602328 -0.497114 0)
(0.640746 -0.235576 0)
(0.35603 0.215119 0)
(0.179813 0.439344 0)
(0.220644 0.482479 0)
(0.264347 0.459864 0)
(0.282996 0.4265 0)
(0.27456 0.411362 0)
(0.250936 0.439288 0)
(0.101506 0.573971 0)
(0.0160193 -0.00670014 0)
(0.0454542 -0.00562462 0)
(0.067334 -0.00351891 0)
(0.0798507 -0.00174451 0)
(0.0850712 -0.00047656 0)
(0.0852618 0.000352208 0)
(0.0822883 0.000860616 0)
(0.0774367 0.00115872 0)
(0.0714869 0.00132729 0)
(0.0649374 0.00141628 0)
(0.0580842 0.00145706 0)
(0.0511097 0.00146949 0)
(0.0441157 0.00146561 0)
(0.0371608 0.00145396 0)
(0.0302693 0.00143924 0)
(0.0234465 0.00142531 0)
(0.0166885 0.00141206 0)
(0.0099824 0.00140374 0)
(0.00331576 0.00140454 0)
(0.0168794 -0.0205371 0)
(0.0477856 -0.0173471 0)
(0.0703408 -0.0107739 0)
(0.0828451 -0.00528697 0)
(0.0878019 -0.00141274 0)
(0.0878142 0.00109905 0)
(0.0847141 0.00264989 0)
(0.0796982 0.0035658 0)
(0.0735587 0.00408409 0)
(0.0668092 0.00435656 0)
(0.0597493 0.0044799 0)
(0.0525678 0.00451606 0)
(0.0453685 0.00450352 0)
(0.0382127 0.00446715 0)
(0.0311234 0.00442121 0)
(0.0241058 0.00437706 0)
(0.0171566 0.00433781 0)
(0.0102619 0.00431147 0)
(0.00340278 0.00428036 0)
(0.0180335 -0.0351021 0)
(0.05068 -0.0294839 0)
(0.0736376 -0.0179414 0)
(0.0854832 -0.00857653 0)
(0.0896149 -0.00211852 0)
(0.0888984 0.00200799 0)
(0.0852607 0.00454753 0)
(0.079911 0.0060448 0)
(0.073579 0.00688802 0)
(0.0667249 0.00732766 0)
(0.0596156 0.00752362 0)
(0.0524182 0.00757732 0)
(0.0452223 0.00755235 0)
(0.0380796 0.00748812 0)
(0.0310098 0.00740893 0)
(0.0240153 0.00733289 0)
(0.0170912 0.00726886 0)
(0.0102233 0.00722366 0)
(0.00339022 0.00717423 0)
(0.0199006 -0.0509238 0)
(0.0553318 -0.0423697 0)
(0.0788216 -0.0249162 0)
(0.0895039 -0.0114041 0)
(0.0923014 -0.00240565 0)
(0.090565 0.00322812 0)
(0.0862483 0.00665178 0)
(0.0804667 0.00865119 0)
(0.0738703 0.00976734 0)
(0.066858 0.0103427 0)
(0.0596575 0.0105931 0)
(0.0524091 0.0106533 0)
(0.0451873 0.0106085 0)
(0.0380339 0.010512 0)
(0.0309637 0.0103976 0)
(0.0239753 0.010289 0)
(0.0170607 0.0101993 0)
(0.0102048 0.0101347 0)
(0.00338434 0.0100635 0)
(0.022396 -0.0675279 0)
(0.0621369 -0.0562793 0)
(0.0861825 -0.0314811 0)
(0.0949651 -0.0134915 0)
(0.0958275 -0.00212071 0)
(0.0927055 0.00485283 0)
(0.0875084 0.00901561 0)
(0.081177 0.0114167 0)
(0.0742464 0.0127428 0)
(0.0670339 0.013415 0)
(0.0597161 0.013695 0)
(0.0524013 0.0137461 0)
(0.0451454 0.0136718 0)
(0.0379779 0.0135378 0)
(0.0309068 0.0133855 0)
(0.0239255 0.0132421 0)
(0.0170224 0.0131246 0)
(0.010181 0.0130397 0)
(0.00337661 0.0129463 0)
(0.0253503 -0.0847659 0)
(0.0712396 -0.0715502 0)
(0.096086 -0.037364 0)
(0.101885 -0.0144922 0)
(0.100097 -0.00104208 0)
(0.0952444 0.00699846 0)
(0.0889777 0.0117001 0)
(0.0819957 0.0143776 0)
(0.0746745 0.015836 0)
(0.0672284 0.0165565 0)
(0.0597738 0.0168361 0)
(0.0523821 0.0168596 0)
(0.0450874 0.016745 0)
(0.0379048 0.0165668 0)
(0.0308337 0.0163722 0)
(0.0238618 0.0161908 0)
(0.0169734 0.0160431 0)
(0.0101505 0.0159369 0)
(0.00336658 0.015821 0)
(0.0428249 -0.118638 0)
(0.0851915 -0.0897492 0)
(0.108981 -0.0420125 0)
(0.110254 -0.0139747 0)
(0.104949 0.00112664 0)
(0.0980538 0.00977297 0)
(0.0905767 0.0147559 0)
(0.0828757 0.0175625 0)
(0.0751255 0.0190638 0)
(0.0674235 0.0197776 0)
(0.0598197 0.0200229 0)
(0.052345 0.0199982 0)
(0.0450094 0.0198304 0)
(0.0378121 0.0195995 0)
(0.0307426 0.0193568 0)
(0.023783 0.0191336 0)
(0.0169132 0.0189534 0)
(0.010113 0.0188249 0)
(0.0033542 0.0186864 0)
(0.131362 -0.165291 0)
(0.121975 -0.105335 0)
(0.126137 -0.0425015 0)
(0.119867 -0.011366 0)
(0.110148 0.00444061 0)
(0.100971 0.0132071 0)
(0.0922278 0.0182052 0)
(0.0837769 0.020987 0)
(0.0755787 0.022439 0)
(0.0676092 0.0230893 0)
(0.0598496 0.0232644 0)
(0.0522885 0.0231685 0)
(0.0449109 0.0229324 0)
(0.0376993 0.0226385 0)
(0.0306334 0.0223408 0)
(0.0236891 0.0220714 0)
(0.0168418 0.0218559 0)
(0.0100686 0.021704 0)
(0.0033395 0.0215422 0)
(0.0162765 -0.150463 0)
(0.0493021 -0.158185 0)
(0.0830572 -0.159352 0)
(0.117306 -0.165065 0)
(0.152537 -0.173505 0)
(0.189062 -0.184827 0)
(0.227155 -0.199665 0)
(0.266893 -0.218931 0)
(0.309397 -0.243736 0)
(0.347635 -0.276579 0)
(0.413451 -0.31646 0)
(0.387945 -0.368737 0)
(0.413365 -0.483004 0)
(0.532497 -0.504844 0)
(0.519559 -0.115141 0)
(0.209305 0.341681 0)
(0.183858 0.450731 0)
(0.218717 0.456164 0)
(0.247757 0.439886 0)
(0.270395 0.41927 0)
(0.287322 0.411275 0)
(0.336277 0.433518 0)
(0.40425 0.559797 0)
(0.0153225 -0.182268 0)
(0.0462591 -0.190996 0)
(0.0777064 -0.192302 0)
(0.109473 -0.198735 0)
(0.141864 -0.208131 0)
(0.175017 -0.2206 0)
(0.209 -0.236715 0)
(0.243661 -0.257253 0)
(0.279566 -0.283161 0)
(0.310426 -0.316056 0)
(0.364202 -0.356058 0)
(0.32438 -0.404711 0)
(0.352539 -0.511207 0)
(0.449065 -0.489138 0)
(0.375578 0.076374 0)
(0.151669 0.407861 0)
(0.183674 0.439126 0)
(0.209026 0.428109 0)
(0.232139 0.413126 0)
(0.257911 0.395989 0)
(0.287154 0.381499 0)
(0.331959 0.371455 0)
(0.414268 0.353473 0)
(0.0142699 -0.211991 0)
(0.042927 -0.221321 0)
(0.0718877 -0.222696 0)
(0.101015 -0.229546 0)
(0.13045 -0.239442 0)
(0.160193 -0.252431 0)
(0.190163 -0.268984 0)
(0.220062 -0.2897 0)
(0.250121 -0.315265 0)
(0.274722 -0.346766 0)
(0.318996 -0.383952 0)
(0.271528 -0.42739 0)
(0.302921 -0.524945 0)
(0.380666 -0.442427 0)
(0.242686 0.212508 0)
(0.127403 0.424826 0)
(0.172245 0.422085 0)
(0.193861 0.404483 0)
(0.215276 0.387983 0)
(0.23889 0.368939 0)
(0.264091 0.346667 0)
(0.291695 0.317907 0)
(0.332259 0.271859 0)
(0.0131542 -0.239527 0)
(0.0394274 -0.249129 0)
(0.0658235 -0.250529 0)
(0.0922628 -0.257559 0)
(0.118748 -0.267605 0)
(0.14518 -0.280655 0)
(0.171384 -0.297066 0)
(0.196989 -0.317263 0)
(0.222042 -0.341688 0)
(0.241609 -0.371018 0)
(0.27847 -0.40465 0)
(0.22778 -0.442867 0)
(0.261972 -0.532662 0)
(0.325101 -0.365757 0)
(0.14976 0.302674 0)
(0.123416 0.416055 0)
(0.159962 0.400478 0)
(0.177772 0.383043 0)
(0.19688 0.366109 0)
(0.21682 0.346135 0)
(0.23664 0.322251 0)
(0.256189 0.29263 0)
(0.275633 0.25507 0)
(0.0120102 -0.264778 0)
(0.0358702 -0.274368 0)
(0.0597052 -0.275761 0)
(0.0834912 -0.282776 0)
(0.107121 -0.292695 0)
(0.130434 -0.305457 0)
(0.153205 -0.321313 0)
(0.175044 -0.340534 0)
(0.19591 -0.363366 0)
(0.211539 -0.390188 0)
(0.24259 -0.420188 0)
(0.191488 -0.453714 0)
(0.227445 -0.537013 0)
(0.278582 -0.260203 0)
(0.101883 0.34656 0)
(0.121138 0.40063 0)
(0.147183 0.380962 0)
(0.161746 0.364395 0)
(0.178363 0.347594 0)
(0.19494 0.328002 0)
(0.210469 0.305064 0)
(0.22444 0.277819 0)
(0.234802 0.245241 0)
(0.0108668 -0.287719 0)
(0.0323438 -0.297068 0)
(0.0536819 -0.298434 0)
(0.0749085 -0.305287 0)
(0.0958349 -0.314881 0)
(0.116267 -0.327117 0)
(0.135962 -0.342157 0)
(0.154548 -0.360151 0)
(0.171947 -0.381199 0)
(0.184518 -0.405478 0)
(0.210925 -0.432099 0)
(0.161178 -0.461596 0)
(0.197781 -0.539554 0)
(0.239298 -0.178771 0)
(0.069943 0.368681 0)
(0.112079 0.385132 0)
(0.132831 0.364013 0)
(0.145784 0.3482 0)
(0.160327 0.331955 0)
(0.174093 0.313377 0)
(0.18622 0.292047 0)
(0.196165 0.267497 0)
(0.202397 0.239468 0)
(0.00974723 -0.308375 0)
(0.0289148 -0.317311 0)
(0.0478614 -0.318643 0)
(0.0666598 -0.325231 0)
(0.0850649 -0.334369 0)
(0.102871 -0.345935 0)
(0.119838 -0.360018 0)
(0.135629 -0.37668 0)
(0.150163 -0.395922 0)
(0.160348 -0.417791 0)
(0.182962 -0.4414 0)
(0.135695 -0.467501 0)
(0.171937 -0.540906 0)
(0.202658 -0.0852039 0)
(0.0389087 0.37279 0)
(0.0980155 0.367972 0)
(0.117917 0.348147 0)
(0.130383 0.333718 0)
(0.143309 0.318633 0)
(0.154802 0.301538 0)
(0.164339 0.282193 0)
(0.1716 0.260469 0)
(0.175616 0.236547 0)
(0.00866823 -0.326814 0)
(0.0256291 -0.335213 0)
(0.042314 -0.336515 0)
(0.0588358 -0.342774 0)
(0.074913 -0.351382 0)
(0.0903425 -0.362208 0)
(0.1049 -0.375284 0)
(0.118291 -0.390611 0)
(0.130444 -0.408126 0)
(0.138742 -0.4278 0)
(0.158175 -0.448792 0)
(0.114096 -0.472058 0)
(0.149117 -0.541568 0)
(0.170668 0.0220495 0)
(0.0224695 0.359585 0)
(0.0848337 0.348797 0)
(0.104543 0.332707 0)
(0.116532 0.320591 0)
(0.127897 0.307264 0)
(0.13741 0.291976 0)
(0.144887 0.274719 0)
(0.150235 0.255578 0)
(0.152871 0.234895 0)
(0.00764028 -0.343129 0)
(0.0225141 -0.350914 0)
(0.0370793 -0.352196 0)
(0.0514832 -0.358094 0)
(0.0654236 -0.366145 0)
(0.0787091 -0.376213 0)
(0.0911366 -0.388295 0)
(0.102458 -0.402348 0)
(0.112612 -0.418273 0)
(0.119391 -0.435995 0)
(0.136096 -0.454741 0)
(0.0956576 -0.475632 0)
(0.128773 -0.541678 0)
(0.144419 0.120313 0)
(0.0252696 0.341304 0)
(0.0768806 0.329816 0)
(0.0943668 0.318439 0)
(0.10499 0.309086 0)
(0.114459 0.297801 0)
(0.122018 0.284403 0)
(0.127676 0.269111 0)
(0.131495 0.25217 0)
(0.13314 0.233997 0)
(0.00666826 -0.35743 0)
(0.0195821 -0.364555 0)
(0.0321726 -0.365833 0)
(0.044615 -0.371362 0)
(0.0565995 -0.378858 0)
(0.0679508 -0.388189 0)
(0.0784896 -0.399325 0)
(0.088011 -0.412199 0)
(0.0964665 -0.426694 0)
(0.101997 -0.442711 0)
(0.116325 -0.459545 0)
(0.0798174 -0.478448 0)
(0.110507 -0.541242 0)
(0.125269 0.191489 0)
(0.0381423 0.324828 0)
(0.0743359 0.31397 0)
(0.087631 0.306633 0)
(0.0958603 0.29977 0)
(0.103005 0.290409 0)
(0.108495 0.278731 0)
(0.112398 0.265124 0)
(0.114851 0.249953 0)
(0.115662 0.233681 0)
(0.00575344 -0.369823 0)
(0.0168355 -0.376266 0)
(0.0275932 -0.377558 0)
(0.0382225 -0.382725 0)
(0.0484178 -0.389688 0)
(0.0580207 -0.398322 0)
(0.0668746 -0.408583 0)
(0.0748139 -0.420388 0)
(0.0818024 -0.433614 0)
(0.0862807 -0.448153 0)
(0.0984942 -0.463383 0)
(0.066098 -0.480662 0)
(0.093927 -0.540433 0)
(0.109822 0.233716 0)
(0.0506839 0.313416 0)
(0.0742345 0.302724 0)
(0.083306 0.29806 0)
(0.08869 0.293096 0)
(0.0932321 0.285304 0)
(0.096519 0.274995 0)
(0.0986508 0.262673 0)
(0.0997924 0.248802 0)
(0.0998251 0.233882 0)
(0.00489472 -0.380482 0)
(0.0142702 -0.386244 0)
(0.0233306 -0.387568 0)
(0.0322834 -0.392395 0)
(0.0408391 -0.398864 0)
(0.0488559 -0.406865 0)
(0.0561965 -0.416338 0)
(0.062729 -0.427197 0)
(0.0684296 -0.439321 0)
(0.0719822 -0.452591 0)
(0.0822559 -0.466498 0)
(0.0540734 -0.482425 0)
(0.0785632 -0.539373 0)
(0.0956476 0.254772 0)
(0.0594162 0.305463 0)
(0.0749991 0.295357 0)
(0.0805718 0.292768 0)
(0.0829947 0.289339 0)
(0.0847235 0.282727 0)
(0.0856519 0.273332 0)
(0.0859567 0.261788 0)
(0.0857993 0.248685 0)
(0.08509 0.234581 0)
(0.00408514 -0.389629 0)
(0.0118714 -0.394704 0)
(0.0193593 -0.396075 0)
(0.0267554 -0.400598 0)
(0.033799 -0.40662 0)
(0.0403638 -0.414061 0)
(0.0463325 -0.422845 0)
(0.0515981 -0.432885 0)
(0.0561558 -0.444071 0)
(0.0588612 -0.456279 0)
(0.067379 -0.469141 0)
(0.0434843 -0.483845 0)
(0.0640231 -0.538254 0)
(0.0836802 0.258417 0)
(0.0670946 0.298508 0)
(0.0772206 0.290885 0)
(0.0794266 0.290801 0)
(0.0785199 0.288855 0)
(0.077044 0.282982 0)
(0.0753653 0.27391 0)
(0.0737505 0.262511 0)
(0.0723169 0.249568 0)
(0.0709369 0.235733 0)
(0.00333259 -0.396548 0)
(0.00964325 -0.400938 0)
(0.01565 -0.402351 0)
(0.0215845 -0.406602 0)
(0.0272281 -0.412213 0)
(0.0324496 -0.419128 0)
(0.0371616 -0.42727 0)
(0.0412673 -0.436558 0)
(0.0447819 -0.446889 0)
(0.0466506 -0.458213 0)
(0.053699 -0.470434 0)
(0.0341586 -0.484313 0)
(0.0493681 -0.538732 0)
(0.0827542 0.24691 0)
(0.0777355 0.291962 0)
(0.0825865 0.289429 0)
(0.0804107 0.292756 0)
(0.0750492 0.29217 0)
(0.0696003 0.286383 0)
(0.0649652 0.276821 0)
(0.0613591 0.264799 0)
(0.0587453 0.251349 0)
(0.0568475 0.237227 0)
(0.00262692 -0.400741 0)
(0.00759959 -0.404617 0)
(0.0122297 -0.406144 0)
(0.0167918 -0.410149 0)
(0.0211792 -0.415425 0)
(0.0251977 -0.421901 0)
(0.0287834 -0.429502 0)
(0.0318508 -0.438145 0)
(0.034361 -0.447664 0)
(0.0352127 -0.458121 0)
(0.0404989 -0.469845 0)
(0.0247962 -0.4817 0)
(0.0299983 -0.555874 0)
(0.0873544 0.212011 0)
(0.0916279 0.282927 0)
(0.0927634 0.293075 0)
(0.0839338 0.30044 0)
(0.0720093 0.300389 0)
(0.0614928 0.293508 0)
(0.0535375 0.282227 0)
(0.0480031 0.268563 0)
(0.0444564 0.253831 0)
(0.0423266 0.238853 0)
(0.00184682 -0.4111 0)
(0.00563798 -0.414141 0)
(0.00920901 -0.416009 0)
(0.0126065 -0.419899 0)
(0.0159026 -0.425064 0)
(0.0189123 -0.431401 0)
(0.0215785 -0.438829 0)
(0.0238673 -0.447227 0)
(0.0255045 -0.456318 0)
(0.0255706 -0.465853 0)
(0.0280944 -0.476286 0)
(0.0134702 -0.476371 0)
(0.0129872 -0.604853 0)
(0.000118507 0.159476 0)
(0.114715 0.277068 0)
(0.113768 0.306764 0)
(0.089802 0.317471 0)
(0.0679367 0.315538 0)
(0.051174 0.305072 0)
(0.0397158 0.290116 0)
(0.0326442 0.273477 0)
(0.0287196 0.256607 0)
(0.026879 0.240231 0)
(0.00146249 -0.425715 0)
(0.0042477 -0.427742 0)
(0.00658294 -0.42973 0)
(0.00909528 -0.433399 0)
(0.0114503 -0.438238 0)
(0.013602 -0.444145 0)
(0.015495 -0.451014 0)
(0.0171276 -0.458667 0)
(0.0179617 -0.466993 0)
(0.0184532 -0.474493 0)
(0.0208254 -0.482634 0)
(0.00741632 -0.465829 0)
(0.0903328 -0.531601 0)
(-0.0274042 0.0100156 0)
(0.17918 0.250399 0)
(0.151001 0.336702 0)
(0.0952359 0.349707 0)
(0.0592717 0.339899 0)
(0.0356448 0.321291 0)
(0.0215286 0.299855 0)
(0.0141061 0.278733 0)
(0.0108564 0.258942 0)
(0.010119 0.240778 0)
(0.000630543 -0.378187 0)
(0.00213631 -0.380176 0)
(0.00331332 -0.381971 0)
(0.00458237 -0.385013 0)
(0.0057059 -0.388964 0)
(0.00664763 -0.393747 0)
(0.00737852 -0.399209 0)
(0.0077548 -0.4052 0)
(0.00792832 -0.411834 0)
(0.00661158 -0.417763 0)
(0.0206699 -0.423169 0)
(0.029081 -0.454341 0)
(0.243793 -0.407997 0)
(0.2956 -0.160199 0)
(0.243164 0.411046 0)
(0.211553 0.445967 0)
(0.0967457 0.402244 0)
(0.0393448 0.374407 0)
(0.0105067 0.340795 0)
(-0.00335894 0.309841 0)
(-0.00870637 0.282897 0)
(-0.00961639 0.259715 0)
(-0.0081398 0.239709 0)
(-0.000602213 -0.333866 0)
(-0.00514094 -0.335192 0)
(-0.00816227 -0.337655 0)
(-0.0116625 -0.341275 0)
(-0.0153094 -0.346087 0)
(-0.0190791 -0.352051 0)
(-0.0228819 -0.359204 0)
(-0.0257392 -0.367721 0)
(-0.0247504 -0.377412 0)
(-0.0325069 -0.398127 0)
(0.029318 -0.421146 0)
(0.111023 -0.652329 0)
(0.21134 -0.572996 0)
(0.487417 -0.393446 0)
(0.451785 0.168295 0)
(0.223013 0.524624 0)
(0.048544 0.513054 0)
(-0.00234213 0.420418 0)
(-0.0296561 0.359659 0)
(-0.0368135 0.316442 0)
(-0.0364582 0.283438 0)
(-0.032731 0.25732 0)
(-0.0276843 0.236035 0)
(-0.00376028 -0.532707 0)
(-0.0285007 -0.532982 0)
(-0.0447428 -0.536002 0)
(-0.0631911 -0.539319 0)
(-0.0817916 -0.544296 0)
(-0.100144 -0.550908 0)
(-0.117674 -0.560162 0)
(-0.12843 -0.572676 0)
(-0.129735 -0.58783 0)
(-0.135119 -0.652436 0)
(-0.0665604 -0.771408 0)
(0.140921 -0.845522 0)
(-0.224441 -1.13809 0)
(0.234405 0.0412012 0)
(-0.0333722 0.432512 0)
(-0.19173 0.706326 0)
(-0.128865 0.577487 0)
(-0.106689 0.44255 0)
(-0.0928878 0.364118 0)
(-0.0800879 0.313015 0)
(-0.0683271 0.277019 0)
(-0.0574659 0.250036 0)
(-0.0476921 0.228834 0)
(-0.00956134 -0.357209 0)
(-0.0273083 -0.358163 0)
(-0.0453378 -0.359582 0)
(-0.0639196 -0.361991 0)
(-0.0834317 -0.365576 0)
(-0.103972 -0.371014 0)
(-0.125598 -0.379451 0)
(-0.147761 -0.392804 0)
(-0.180048 -0.419438 0)
(-0.214305 -0.471295 0)
(-0.24664 -0.555182 0)
(-0.460333 -0.635065 0)
(-0.761917 -0.566473 0)
(-0.838268 -0.154992 0)
(-0.640468 0.530557 0)
(-0.541001 0.63277 0)
(-0.31849 0.503122 0)
(-0.218988 0.40353 0)
(-0.16051 0.338307 0)
(-0.124783 0.293392 0)
(-0.100033 0.261117 0)
(-0.0814165 0.23675 0)
(-0.0667095 0.217584 0)
(-0.00954435 -0.369549 0)
(-0.0284639 -0.371824 0)
(-0.0475739 -0.372856 0)
(-0.0675734 -0.374984 0)
(-0.0885995 -0.37805 0)
(-0.111269 -0.382447 0)
(-0.136109 -0.388655 0)
(-0.164836 -0.397789 0)
(-0.203366 -0.411996 0)
(-0.248917 -0.428222 0)
(-0.317458 -0.462539 0)
(-0.478964 -0.527634 0)
(-0.708076 -0.489712 0)
(-0.820772 -0.176387 0)
(-0.734772 0.207314 0)
(-0.555984 0.360536 0)
(-0.380178 0.348694 0)
(-0.274897 0.319163 0)
(-0.204623 0.287088 0)
(-0.158165 0.259334 0)
(-0.125551 0.236556 0)
(-0.101492 0.217954 0)
(-0.0830098 0.202612 0)
(-0.00964116 -0.344848 0)
(-0.028928 -0.346521 0)
(-0.0486683 -0.347066 0)
(-0.0693323 -0.347916 0)
(-0.0911893 -0.349188 0)
(-0.11499 -0.350998 0)
(-0.141536 -0.353468 0)
(-0.172629 -0.35697 0)
(-0.210779 -0.361042 0)
(-0.254953 -0.361907 0)
(-0.31845 -0.361308 0)
(-0.426699 -0.346193 0)
(-0.55075 -0.264742 0)
(-0.613376 -0.104812 0)
(-0.572341 0.0632468 0)
(-0.462955 0.181752 0)
(-0.360366 0.224579 0)
(-0.281387 0.235597 0)
(-0.220939 0.230425 0)
(-0.175836 0.219574 0)
(-0.141837 0.207417 0)
(-0.115762 0.195717 0)
(-0.0953858 0.185057 0)
(-0.009538 -0.326299 0)
(-0.0290068 -0.327715 0)
(-0.0490194 -0.327685 0)
(-0.0697567 -0.327476 0)
(-0.0917752 -0.32717 0)
(-0.115689 -0.326666 0)
(-0.1423 -0.325758 0)
(-0.17286 -0.324151 0)
(-0.208653 -0.320522 0)
(-0.250626 -0.312859 0)
(-0.30475 -0.301203 0)
(-0.374064 -0.272283 0)
(-0.439168 -0.199598 0)
(-0.468413 -0.0858872 0)
(-0.447606 0.0287516 0)
(-0.390815 0.106645 0)
(-0.32698 0.150831 0)
(-0.269499 0.173113 0)
(-0.220975 0.181273 0)
(-0.181473 0.181599 0)
(-0.149686 0.177924 0)
(-0.12413 0.172457 0)
(-0.103531 0.166363 0)
(-0.00941427 -0.30667 0)
(-0.028679 -0.30795 0)
(-0.0483942 -0.307189 0)
(-0.06878 -0.305977 0)
(-0.0903561 -0.30419 0)
(-0.113564 -0.301607 0)
(-0.139023 -0.297826 0)
(-0.167432 -0.29222 0)
(-0.199358 -0.283475 0)
(-0.235489 -0.269876 0)
(-0.277607 -0.249255 0)
(-0.323641 -0.213834 0)
(-0.361753 -0.155465 0)
(-0.377339 -0.0790969 0)
(-0.365749 -0.00157346 0)
(-0.333636 0.0597579 0)
(-0.292413 0.101062 0)
(-0.250722 0.126784 0)
(-0.212553 0.141244 0)
(-0.179344 0.148221 0)
(-0.151145 0.150487 0)
(-0.127485 0.149933 0)
(-0.107792 0.147759 0)
(-0.00923867 -0.287846 0)
(-0.0279121 -0.28878 0)
(-0.0469313 -0.287398 0)
(-0.0666409 -0.285309 0)
(-0.0872954 -0.282273 0)
(-0.109224 -0.278012 0)
(-0.132816 -0.272075 0)
(-0.158399 -0.263766 0)
(-0.186149 -0.252032 0)
(-0.21615 -0.235531 0)
(-0.248157 -0.212248 0)
(-0.279424 -0.178211 0)
(-0.303395 -0.131124 0)
(-0.313145 -0.0751645 0)
(-0.306458 -0.0192748 0)
(-0.286675 0.0288251 0)
(-0.259199 0.0656142 0)
(-0.229053 0.0916906 0)
(-0.199505 0.109028 0)
(-0.172282 0.11985 0)
(-0.148052 0.12606 0)
(-0.126921 0.129122 0)
(-0.108787 0.130075 0)
(-0.00888735 -0.269805 0)
(-0.0266984 -0.270313 0)
(-0.0448117 -0.268505 0)
(-0.0635349 -0.265708 0)
(-0.0829289 -0.261695 0)
(-0.103227 -0.256188 0)
(-0.124623 -0.248764 0)
(-0.147208 -0.238816 0)
(-0.170901 -0.225538 0)
(-0.195391 -0.207931 0)
(-0.219817 -0.184651 0)
(-0.241938 -0.154028 0)
(-0.258067 -0.115815 0)
(-0.264751 -0.0727727 0)
(-0.26084 -0.0297639 0)
(-0.248034 0.00883461 0)
(-0.22913 0.040669 0)
(-0.207101 0.0653043 0)
(-0.184314 0.0834327 0)
(-0.162298 0.0962245 0)
(-0.141884 0.104889 0)
(-0.123456 0.110476 0)
(-0.107189 0.113796 0)
(-0.00836332 -0.252489 0)
(-0.0251532 -0.252683 0)
(-0.0422149 -0.250598 0)
(-0.059702 -0.247292 0)
(-0.0776277 -0.242603 0)
(-0.0961266 -0.236283 0)
(-0.115257 -0.227975 0)
(-0.134963 -0.217211 0)
(-0.155021 -0.203411 0)
(-0.174964 -0.185911 0)
(-0.193881 -0.163967 0)
(-0.210164 -0.137 0)
(-0.221685 -0.105386 0)
(-0.226625 -0.07096 0)
(-0.224361 -0.0365414 0)
(-0.215753 -0.00477651 0)
(-0.202398 0.0227867 0)
(-0.18609 0.0454021 0)
(-0.168473 0.0632186 0)
(-0.150769 0.0767974 0)
(-0.13377 0.0868599 0)
(-0.117948 0.0941121 0)
(-0.103623 0.0991486 0)
(-0.00775262 -0.236145 0)
(-0.0234173 -0.236157 0)
(-0.0392927 -0.233867 0)
(-0.0553926 -0.230232 0)
(-0.0717535 -0.225132 0)
(-0.0884179 -0.218363 0)
(-0.105358 -0.20965 0)
(-0.122437 -0.198652 0)
(-0.139375 -0.184984 0)
(-0.155691 -0.168249 0)
(-0.170614 -0.148105 0)
(-0.183036 -0.124459 0)
(-0.191687 -0.0978135 0)
(-0.195566 -0.0694191 0)
(-0.194318 -0.0410095 0)
(-0.188344 -0.0142545 0)
(-0.178696 0.00973639 0)
(-0.166482 0.0302618 0)
(-0.152793 0.0472521 0)
(-0.138576 0.0609217 0)
(-0.124513 0.0716724 0)
(-0.111071 0.0799567 0)
(-0.09862 0.0861859 0)
(-0.00712695 -0.221033 0)
(-0.021582 -0.22094 0)
(-0.0361616 -0.218498 0)
(-0.0508176 -0.214674 0)
(-0.0655967 -0.209368 0)
(-0.0804745 -0.202423 0)
(-0.0953721 -0.193639 0)
(-0.110118 -0.182785 0)
(-0.124429 -0.169626 0)
(-0.137879 -0.153956 0)
(-0.149863 -0.135663 0)
(-0.159626 -0.114856 0)
(-0.166386 -0.0920128 0)
(-0.169557 -0.0680112 0)
(-0.168934 -0.0439723 0)
(-0.164747 -0.0210108 0)
(-0.157675 4.1085e-08 0)
(-0.148403 0.018631 0)
(-0.137686 0.0346054 0)
(-0.126257 0.0479816 0)
(-0.114664 0.0589655 0)
(-0.103324 0.0678333 0)
(-0.0926053 0.074855 0)
(-0.00651064 -0.20725 0)
(-0.0196924 -0.207086 0)
(-0.032914 -0.204552 0)
(-0.0461317 -0.200651 0)
(-0.0593633 -0.195291 0)
(-0.0725473 -0.188362 0)
(-0.0855781 -0.179726 0)
(-0.0982797 -0.169241 0)
(-0.110394 -0.156779 0)
(-0.121564 -0.142259 0)
(-0.131337 -0.125693 0)
(-0.139194 -0.107264 0)
(-0.144638 -0.0873832 0)
(-0.147315 -0.0666873 0)
(-0.147112 -0.045946 0)
(-0.144176 -0.0259332 0)
(-0.138854 -0.00729394 0)
(-0.131721 0.00963925 0)
(-0.123319 0.0245562 0)
(-0.114123 0.0374426 0)
(-0.104587 0.0483803 0)
(-0.0950674 0.0575255 0)
(-0.085907 0.0650442 0)
(-0.00589886 -0.194779 0)
(-0.0177744 -0.194557 0)
(-0.0296274 -0.192 0)
(-0.0414453 -0.188107 0)
(-0.0531938 -0.182806 0)
(-0.0647959 -0.176021 0)
(-0.0761383 -0.16767 0)
(-0.0870562 -0.157674 0)
(-0.0973257 -0.145981 0)
(-0.106661 -0.132584 0)
(-0.114725 -0.117561 0)
(-0.12116 -0.101111 0)
(-0.125641 -0.0835759 0)
(-0.127945 -0.0654323 0)
(-0.128004 -0.0472327 0)
(-0.125915 -0.0295245 0)
(-0.121916 -0.0127837 0)
(-0.116419 0.00261283 0)
(-0.10977 0.0165372 0)
(-0.102346 0.0288579 0)
(-0.0945091 0.0395896 0)
(-0.0865501 0.0488111 0)
(-0.0787695 0.0566154 0)
(-0.0052849 -0.183579 0)
(-0.0158558 -0.183309 0)
(-0.0263697 -0.180786 0)
(-0.0368395 -0.176965 0)
(-0.047182 -0.171797 0)
(-0.0573181 -0.165239 0)
(-0.0671387 -0.157248 0)
(-0.0764965 -0.147794 0)
(-0.0852033 -0.136871 0)
(-0.0930348 -0.124518 0)
(-0.0997421 -0.110843 0)
(-0.105074 -0.0960369 0)
(-0.108814 -0.0803839 0)
(-0.110817 -0.0642504 0)
(-0.111044 -0.0480486 0)
(-0.109566 -0.0321886 0)
(-0.106557 -0.0170386 0)
(-0.102264 -0.00289776 0)
(-0.0969745 0.0101237 0)
(-0.0909914 0.0218669 0)
(-0.0845661 0.0323098 0)
(-0.0779391 0.0414814 0)
(-0.0713695 0.0494248 0)
(-0.00466998 -0.173624 0)
(-0.013966 -0.173315 0)
(-0.0231924 -0.17086 0)
(-0.0323704 -0.167152 0)
(-0.0413869 -0.162164 0)
(-0.0501683 -0.155877 0)
(-0.0586143 -0.148279 0)
(-0.0665971 -0.139371 0)
(-0.0739621 -0.129179 0)
(-0.0805356 -0.117767 0)
(-0.0861336 -0.105253 0)
(-0.0905782 -0.0918114 0)
(-0.0937204 -0.0776807 0)
(-0.0954655 -0.0631502 0)
(-0.0957907 -0.0485381 0)
(-0.0947509 -0.0341604 0)
(-0.0924685 -0.0203037 0)
(-0.0891144 -0.00720077 0)
(-0.0849192 0.00499622 0)
(-0.08009 0.0161802 0)
(-0.0748333 0.0263012 0)
(-0.0693417 0.0353498 0)
(-0.0638308 0.0433348 0)
(-0.00406142 -0.164894 0)
(-0.0121292 -0.164556 0)
(-0.0201274 -0.162185 0)
(-0.0280704 -0.158609 0)
(-0.0358388 -0.153822 0)
(-0.0433664 -0.147822 0)
(-0.0505632 -0.140617 0)
(-0.0573211 -0.13223 0)
(-0.0635159 -0.122705 0)
(-0.0690142 -0.11212 0)
(-0.0736792 -0.100593 0)
(-0.077383 -0.0882816 0)
(-0.0800223 -0.075387 0)
(-0.0815342 -0.0621441 0)
(-0.0819062 -0.0488059 0)
(-0.0811801 -0.0356238 0)
(-0.0794443 -0.0228279 0)
(-0.0768238 -0.0106153 0)
(-0.0735107 0.000860626 0)
(-0.0696263 0.0115592 0)
(-0.065341 0.0213643 0)
(-0.0608208 0.0302548 0)
(-0.0562369 0.0382204 0)
(-0.00346822 -0.157362 0)
(-0.0103598 -0.157006 0)
(-0.0171871 -0.154721 0)
(-0.0239511 -0.151283 0)
(-0.0305437 -0.146698 0)
(-0.0369051 -0.140978 0)
(-0.0429572 -0.134143 0)
(-0.048611 -0.12623 0)
(-0.0537687 -0.117297 0)
(-0.0583277 -0.107425 0)
(-0.0621859 -0.0967263 0)
(-0.0652509 -0.0853444 0)
(-0.0674508 -0.0734517 0)
(-0.0687434 -0.0612437 0)
(-0.069123 -0.0489273 0)
(-0.0686221 -0.0367079 0)
(-0.0673093 -0.0247762 0)
(-0.0652831 -0.0133003 0)
(-0.0626492 -0.00241993 0)
(-0.0595333 0.0078349 0)
(-0.0560865 0.0173411 0)
(-0.0524083 0.0260612 0)
(-0.0486409 0.0339723 0)
(-0.00289621 -0.150994 0)
(-0.00866106 -0.150631 0)
(-0.0143685 -0.148428 0)
(-0.0200069 -0.145121 0)
(-0.0254876 -0.140726 0)
(-0.0307574 -0.135263 0)
(-0.0357512 -0.128762 0)
(-0.0403978 -0.121266 0)
(-0.0446207 -0.112841 0)
(-0.0483415 -0.103568 0)
(-0.0514841 -0.0935541 0)
(-0.0539821 -0.0829282 0)
(-0.0557854 -0.0718414 0)
(-0.056866 -0.06046 0)
(-0.0572221 -0.0489582 0)
(-0.0568788 -0.0375082 0)
(-0.0558879 -0.0262714 0)
(-0.0543217 -0.0153906 0)
(-0.0522642 -0.00498297 0)
(-0.0498125 0.00486884 0)
(-0.0470665 0.0141029 0)
(-0.0441184 0.0226569 0)
(-0.0410749 0.030497 0)
(-0.00234619 -0.145738 0)
(-0.0070271 -0.145377 0)
(-0.0116583 -0.143248 0)
(-0.0162197 -0.14006 0)
(-0.0206434 -0.135836 0)
(-0.0248843 -0.130599 0)
(-0.0288904 -0.124385 0)
(-0.032606 -0.117245 0)
(-0.0359722 -0.109244 0)
(-0.0389296 -0.100463 0)
(-0.0414228 -0.0910028 0)
(-0.0434047 -0.0809813 0)
(-0.0448409 -0.070533 0)
(-0.045713 -0.0598029 0)
(-0.0460211 -0.0489414 0)
(-0.0457852 -0.0380972 0)
(-0.0450442 -0.027411 0)
(-0.0438519 -0.0170091 0)
(-0.0422737 -0.00700018 0)
(-0.0403862 0.00253737 0)
(-0.0382514 0.0115438 0)
(-0.0359474 0.0199501 0)
(-0.0335542 0.0277171 0)
(-0.00181592 -0.141501 0)
(-0.00544807 -0.141147 0)
(-0.00903985 -0.139082 0)
(-0.0125661 -0.135999 0)
(-0.0159792 -0.131922 0)
(-0.019243 -0.126878 0)
(-0.0223176 -0.120907 0)
(-0.0251607 -0.114062 0)
(-0.0277283 -0.106407 0)
(-0.0299772 -0.0980208 0)
(-0.0318686 -0.0889996 0)
(-0.0333701 -0.0794525 0)
(-0.0344588 -0.0695008 0)
(-0.0351229 -0.0592738 0)
(-0.0353639 -0.048905 0)
(-0.0351976 -0.0385264 0)
(-0.034653 -0.0282637 0)