/*--------------------------------*- C++ -*----------------------------------*\
| =========                 |                                                 |
| \\      /  F ield         | OpenFOAM: The Open Source CFD Toolbox           |
|  \\    /   O peration     | Version:  2012                                  |
|   \\  /    A nd           | Website:  www.openfoam.com                      |
|    \\/     M anipulation  |                                                 |
\*---------------------------------------------------------------------------*/
FoamFile
{
    version     2.0;
    format      ascii;
    class       volScalarField;
    location    "0.65";
    object      alpha.water;
}
// * * * * * * * * * * * * * * * * * * * * * * * * * * * * * * * * * * * * * //

dimensions      [0 0 0 0 0 0 0];


internalField   nonuniform List<scalar> 
2268
(
1
1
1
1
1
1
1
1
1
1
1
1
1
1
1
1
0.999999
0.985572
0.935186
0.944217
0.998494
0.998503
0.998488
1
1
1
1
1
1
1
1
1
1
1
1
1
1
1
1
1
0.998446
0.959669
0.938526
0.965461
0.994009
0.997858
1
1
1
1
1
1
1
1
1
1
1
1
1
1
1
1
1
1
0.999061
0.944181
0.935763
0.935763
0.992505
1
1
1
1
1
1
1
1
1
1
1
1
1
1
1
1
1
1
1
0.997745
0.935763
0.936002
0.991461
1
1
1
1
1
1
1
1
1
1
1
1
1
1
1
1
1
1
1
0.999999
0.971185
0.990369
0.999991
1
1
1
1
1
1
1
1
1
1
1
1
1
1
1
1
1
1
1
1
0.999999
1
0.999992
1
1
1
1
0.999992
0.999985
0.99999
0.999999
1
1
1
1
1
1
1
1
1
1
1
1
1
1
0.999948
0.979384
0.949213
0.912184
0.884716
0.887252
0.907077
0.95882
0.998216
0.999999
1
1
1
1
1
1
1
1
1
1
1
1
1
0.999947
0.628236
0.999966
0.999966
0.999966
0.999966
0.697386
0.553813
0.584911
0.88255
0.882964
0.883292
0.883912
0.884436
0.886583
0.887843
0.889466
0.891041
0.890969
0.803943
0.625236
0.999966
0.999966
0.999966
0.999966
0.999966
0.658555
0.807903
0.879793
0.853903
0.716688
0.705341
0.727545
0.776771
0.842349
0.882813
0.895243
0.898979
0.898977
0.475451
0.99996
0.999827
0.999965
0.999966
0.999965
0.744214
0.818556
0.723164
0.13017
0.0651924
0.0698077
0.0813399
0.119065
0.221384
0.444583
0.722041
0.898976
0.898981
0.449005
0.905116
0.999845
0.999952
0.99996
0.999964
0.707075
0.785901
0.316237
0.00256308
0.000370007
0.00037699
0.000689693
0.00120762
0.00401467
0.0133817
0.205188
0.877557
0.898976
0.450132
0.867892
0.999481
0.999836
0.999909
0.999954
0.700511
0.621131
0.0043884
0.0003686
0.000114021
0.000331849
0.00046679
0.000289525
0.0011424
0.00404214
0.0174714
0.475284
0.898912
0.711559
0.970661
0.998923
0.999459
0.999507
0.999873
0.903277
0.535554
0.0116977
0.000111169
6.89514e-05
3.39878e-05
4.93003e-05
7.18666e-05
0.000255456
0.00112756
0.00505524
0.295566
0.898565
0.998289
0.999492
0.999147
0.998923
0.981145
0.992884
0.986861
0.679125
0.0308942
0.000170138
0.000128747
2.78833e-05
2.56073e-05
2.93036e-05
5.55436e-05
0.000223236
0.00131877
0.234068
0.897281
0.999907
0.999728
0.99958
0.997451
0.656574
0.712086
0.976845
0.719706
0.0377895
0.000454471
2.3553e-05
2.56702e-05
2.3779e-05
2.41996e-05
2.6891e-05
3.15168e-05
7.59112e-05
0.178106
0.893481
0.358755
0.31421
0.285271
0.300511
0.346988
0.438786
0.574549
0.721344
0.847386
0.942508
1
1
1
1
1
1
1
1
1
1
1
1
0.999949
1.06439e-06
1.33489e-05
0.0025235
0.0258924
0.0577921
0.085316
0.0987258
0.119819
0.18524
0.302163
0.466269
0.638723
0.763088
0.878417
0.99395
1
1
1
0.999999
0.999998
0.999999
0.999999
0.999972
6.86237e-08
1.00839e-06
8.77074e-09
4.75218e-10
1.56486e-09
1.47189e-08
5.32706e-08
6.74063e-10
3.22417e-09
2.36089e-08
0.00392072
0.0520159
0.118539
0.220773
0.359687
0.535158
0.651934
0.726234
0.828281
0.906298
0.939634
0.960152
0.983132
4.98898e-09
3.35404e-08
4.74892e-10
3.9397e-10
1.41703e-10
5.4965e-10
5.03652e-10
4.33868e-10
6.81322e-10
1.53929e-09
2.29241e-09
3.09567e-09
1.09247e-08
8.0596e-08
4.32028e-07
2.24145e-06
0.0275763
0.0498484
0.0916715
0.166599
0.247316
0.336664
0.549752
5.65055e-10
4.0232e-09
1.87622e-09
3.76693e-09
1.0333e-10
4.26597e-11
6.40356e-11
4.31868e-10
1.07391e-09
1.75449e-09
1.96823e-09
2.30322e-09
3.0988e-09
1.09247e-08
9.62908e-08
4.31835e-07
2.23848e-06
1.26865e-05
6.53811e-05
0.0003068
0.0013511
0.00592812
0.248473
4.59277e-11
3.42557e-10
3.95065e-10
1.42067e-09
1.08468e-10
1.49696e-11
1.72048e-11
4.75852e-11
4.55156e-08
2.0148e-07
1.3671e-07
3.09881e-09
1.07781e-06
1.89882e-05
2.0804e-05
1.13815e-05
1.41021e-05
3.19891e-05
4.39671e-05
0.000128779
0.000436211
0.00151303
0.0864466
5.44098e-12
2.68276e-11
1.28841e-11
8.46941e-11
1.87247e-11
1.46942e-11
1.50586e-11
1.65134e-11
6.01257e-08
2.24008e-07
2.24828e-07
1.00189e-07
2.35987e-07
1.43841e-06
3.05948e-06
1.93647e-06
3.23058e-06
0.000145714
0.00027627
0.00027962
0.000308863
0.000760835
0.00232482
5.8205e-13
1.25487e-12
1.96141e-12
2.14662e-12
5.87492e-12
1.46802e-11
1.79138e-11
1.93658e-11
2.61096e-08
2.01407e-07
2.22492e-07
8.48662e-08
1.59377e-07
2.14844e-07
6.56641e-08
6.834e-08
2.39944e-07
3.17335e-05
0.000192156
0.000284429
0.000284349
0.000206247
0.000183841
4.26517e-14
1.68144e-13
1.89649e-13
4.98443e-13
4.79978e-12
1.45368e-11
2.11481e-11
2.19586e-11
2.56482e-09
4.23106e-08
7.96834e-08
2.98393e-08
2.80754e-07
2.7891e-07
6.26351e-08
4.81227e-08
6.86832e-08
2.4309e-07
2.01883e-05
0.000185166
0.000286271
0.000181886
0.000120429
2.74049e-15
8.43798e-15
1.08295e-14
2.16533e-13
3.0892e-12
1.08892e-11
1.81793e-11
2.50076e-11
6.0074e-11
8.13533e-11
1.35871e-10
3.78928e-09
1.35677e-07
2.17842e-07
2.15172e-09
3.84185e-08
3.0094e-07
3.41188e-07
7.2463e-07
0.000115704
0.000283484
0.000169027
0.00011208
1.79259e-16
2.99604e-16
8.87334e-16
8.17839e-14
1.27134e-12
4.92223e-12
1.02213e-11
2.01075e-11
4.15571e-11
4.57186e-11
7.13458e-11
2.92475e-10
1.55093e-09
8.0293e-09
7.55036e-10
4.09294e-08
1.85386e-07
1.84646e-07
4.08596e-07
6.57609e-05
0.000275736
0.000171424
0.00011208
1.22883e-17
1.1985e-17
1.4145e-16
2.3135e-14
3.5408e-13
1.3989e-12
3.43697e-12
1.0782e-11
3.30395e-11
5.81855e-11
6.86169e-11
7.66147e-11
9.2881e-11
1.46068e-10
4.95534e-10
6.47797e-09
8.89819e-09
4.87256e-08
7.63518e-06
0.000176195
0.000259413
0.000181525
0.000104378
8.81634e-19
5.14253e-19
2.79849e-17
5.0237e-15
7.84484e-14
3.12836e-13
8.33263e-13
3.71533e-12
2.11063e-11
5.53025e-11
7.05449e-11
7.60161e-11
1.11573e-10
1.48629e-10
1.02706e-10
1.78535e-10
1.67479e-09
2.63278e-08
2.96635e-06
0.000145977
0.000241502
0.000198199
7.36131e-05
6.39652e-20
2.58891e-20
5.31591e-18
8.94922e-16
1.46814e-14
6.35936e-14
2.01709e-13
1.01424e-12
8.46897e-12
3.70732e-11
6.01595e-11
6.3107e-11
6.2449e-11
6.17653e-11
1.48622e-11
4.68946e-11
5.52002e-10
1.01383e-08
2.14934e-07
5.18682e-05
0.000161818
0.000101053
3.4997e-05
4.01274e-21
1.80805e-21
9.06374e-19
1.34642e-16
2.28759e-15
1.18001e-14
5.54118e-14
2.92339e-13
2.00389e-12
1.3682e-11
3.30819e-11
3.70163e-11
2.18112e-11
1.14204e-11
3.45917e-12
9.3866e-12
1.32876e-10
2.44389e-09
2.86275e-07
1.68e-06
7.16114e-06
4.93461e-06
1.3481e-05
8.53553e-23
1.82753e-22
1.42631e-19
1.71354e-17
2.94549e-16
1.97755e-15
1.63085e-14
9.45128e-14
3.97385e-13
2.64112e-12
9.2459e-12
1.22104e-11
6.94297e-12
2.32578e-12
1.01724e-12
8.86902e-12
3.95938e-11
6.6595e-10
2.80598e-08
7.59624e-08
3.25878e-07
7.78629e-07
6.25282e-06
-4.3449e-22
3.91424e-24
2.10031e-20
1.84415e-18
3.17224e-17
3.09202e-16
4.52417e-15
3.01163e-14
9.90744e-14
3.75862e-13
1.25905e-12
1.9101e-12
1.54045e-12
4.74557e-13
1.97468e-13
2.78717e-12
2.3234e-11
1.03432e-10
9.41381e-10
9.88546e-09
4.83474e-08
1.64697e-07
2.28566e-06
-8.60857e-22
-3.82793e-23
2.79053e-21
1.71601e-19
2.92059e-18
4.76463e-17
1.06716e-15
8.3186e-15
2.86468e-14
6.988e-14
1.36711e-13
1.83272e-13
1.78241e-13
5.9447e-14
2.3497e-14
3.30804e-13
6.17349e-12
3.73248e-11
1.7602e-10
1.33907e-09
6.6981e-09
2.7987e-08
1.86458e-07
-8.05078e-22
-8.90355e-23
3.21698e-22
1.44993e-20
2.389e-19
7.37272e-18
2.08943e-16
1.8647e-15
7.62134e-15
1.69607e-14
2.31836e-14
2.46177e-14
1.74383e-14
5.89484e-15
2.05599e-15
2.7542e-14
6.40721e-13
8.33669e-12
3.29009e-11
1.96784e-10
8.77702e-10
3.14732e-09
2.25535e-08
-6.10641e-22
-6.38239e-23
2.46547e-23
1.12536e-21
1.85302e-20
1.07976e-18
3.44273e-17
3.39442e-16
1.62649e-15
3.97351e-15
5.2383e-15
5.22102e-15
3.03224e-15
9.60026e-16
2.36865e-16
2.09852e-15
4.8987e-14
8.49661e-13
7.65602e-12
2.83202e-11
1.38229e-10
4.04301e-10
2.97979e-09
-4.02658e-22
-3.15704e-23
5.18193e-25
7.43632e-23
1.42451e-21
1.33625e-19
4.70714e-18
5.1541e-17
2.70543e-16
7.36754e-16
1.0627e-15
1.09772e-15
6.54648e-16
2.13537e-16
4.23643e-17
1.6594e-16
3.75474e-15
6.48921e-14
9.04661e-13
6.05697e-12
2.05798e-11
5.68046e-11
2.67224e-10
-2.35483e-22
-1.24068e-23
-1.48387e-41
4.11238e-24
1.05185e-22
1.25987e-20
5.09175e-19
6.50353e-18
3.60308e-17
1.00525e-16
1.5436e-16
1.68398e-16
1.1144e-16
4.03275e-17
7.83958e-18
1.39684e-17
2.85567e-16
5.05728e-15
6.97586e-14
7.46952e-13
4.22464e-12
1.17064e-11
3.73529e-11
-1.23241e-22
-4.10796e-24
-4.13422e-25
2.18494e-25
7.01652e-24
8.79908e-22
4.19081e-20
6.51304e-19
3.85232e-18
1.02745e-17
1.54072e-17
1.72729e-17
1.25234e-17
5.14341e-18
1.11687e-18
1.18613e-18
2.07601e-17
3.81369e-16
5.53383e-15
6.21812e-14
5.22875e-13
2.61217e-12
9.12677e-12
-5.8066e-23
-1.19606e-24
-2.61395e-25
9.96858e-27
4.19898e-25
4.99828e-23
2.67776e-21
4.94131e-20
3.17704e-19
8.22413e-19
1.17757e-18
1.32504e-18
1.00603e-18
4.57201e-19
1.15932e-19
1.00112e-19
1.43204e-18
2.74287e-17
4.56259e-16
6.4667e-15
6.26526e-14
4.62784e-13
3.80935e-12
-2.47486e-23
-3.24381e-25
-1.02836e-25
4.05311e-29
2.39733e-26
2.6961e-24
1.47205e-22
2.92266e-21
2.00932e-20
5.34807e-20
7.71108e-20
8.80685e-20
6.9134e-20
3.36951e-20
9.6375e-21
8.01921e-21
9.58053e-20
1.95634e-18
4.37492e-17
1.1001e-15
1.56925e-14
1.28218e-13
1.28302e-12
-9.58355e-24
-8.84906e-26
-3.11342e-26
-1.84291e-28
1.33495e-27
1.48465e-25
7.89202e-24
1.54813e-22
1.08859e-21
3.04273e-21
4.58692e-21
5.39872e-21
4.40761e-21
2.27561e-21
6.99872e-22
5.85735e-22
6.565e-21
1.55602e-19
5.79757e-18
2.82202e-16
6.02759e-15
5.52184e-14
4.27489e-13
-3.38547e-24
-2.58963e-26
-7.82123e-27
-3.33533e-28
6.63928e-29
8.27904e-27
4.33043e-25
8.31424e-24
5.84786e-23
1.68442e-22
2.63227e-22
3.18227e-22
2.68578e-22
1.45571e-22
4.65298e-23
4.02072e-23
5.19403e-22
1.66865e-20
1.04046e-18
7.97596e-17
2.37187e-15
2.49878e-14
1.60121e-13
-1.09511e-24
-8.15462e-27
-1.69936e-27
-1.33881e-28
1.1577e-30
4.59636e-28
2.39363e-26
4.57626e-25
3.22878e-24
9.44411e-24
1.50447e-23
1.84937e-23
1.5949e-23
8.97645e-24
2.92217e-24
2.8473e-24
5.36212e-23
2.43437e-21
1.98786e-19
1.99991e-17
7.97045e-16
9.89577e-15
6.03716e-14
-3.25438e-25
-2.62896e-27
-3.29369e-28
-3.73005e-29
1.4263e-48
2.528e-29
1.30858e-27
2.50784e-26
1.78002e-25
5.26388e-25
8.4848e-25
1.0531e-24
9.20385e-25
5.32633e-25
1.75873e-25
2.26675e-25
6.82295e-24
3.81088e-22
3.30566e-20
3.93472e-18
2.10989e-16
3.19655e-15
2.04713e-14
-8.90847e-26
-8.20728e-28
-5.8727e-29
-8.39931e-30
0
1.36403e-30
7.03523e-29
1.34992e-27
9.62111e-27
2.86809e-26
4.65955e-26
5.81173e-26
5.11905e-26
3.02047e-26
1.02047e-26
2.10483e-26
8.89562e-25
5.25615e-23
4.32789e-21
5.66267e-19
4.22408e-17
8.26417e-16
5.87089e-15
-2.25055e-26
-2.38572e-28
-9.99112e-30
-1.62188e-30
-9.63335e-33
7.11337e-32
3.71931e-30
7.12931e-29
5.08624e-28
1.52259e-27
2.4832e-27
3.09878e-27
2.73768e-27
1.63398e-27
5.71341e-28
2.11443e-27
1.05035e-25
5.9419e-24
4.32848e-22
5.71326e-20
6.06874e-18
1.64674e-16
1.36487e-15
-5.25408e-27
-6.33909e-29
-1.68843e-30
-2.77428e-31
-3.74267e-33
3.62249e-33
1.93574e-31
3.6998e-30
2.63435e-29
7.88584e-29
1.28537e-28
1.59751e-28
1.40895e-28
8.43556e-29
3.11477e-29
2.06184e-28
1.1024e-26
5.69777e-25
3.44659e-23
4.03369e-21
5.96218e-19
2.40577e-17
2.45602e-16
-1.13452e-27
-1.53518e-29
-2.92194e-31
-4.2971e-32
-8.12241e-34
1.71722e-34
9.93025e-33
1.89013e-31
1.33946e-30
3.99196e-30
6.47276e-30
7.97434e-30
6.98616e-30
4.15727e-30
1.67511e-30
1.91263e-29
1.08439e-27
5.21448e-26
2.54249e-24
2.25259e-22
4.19967e-20
2.63222e-18
3.40108e-17
-2.26706e-28
-3.39693e-30
-5.20145e-32
-6.1309e-33
-1.38772e-34
6.58211e-36
5.02153e-34
9.52055e-33
6.69939e-32
1.9792e-31
3.17745e-31
3.86216e-31
3.34292e-31
1.95758e-31
9.02281e-32
1.7429e-30
1.05619e-28
5.05761e-27
2.1385e-25
1.34843e-23
2.69627e-21
2.52156e-19
3.97265e-18
-4.19312e-29
-6.87403e-31
-9.31258e-33
-8.17414e-34
-2.03652e-35
1.49323e-37
2.46531e-35
4.72287e-34
3.29849e-33
9.62678e-33
1.52428e-32
1.82022e-32
1.54797e-32
8.83238e-33
4.96797e-33
1.55287e-31
1.01009e-29
5.11671e-28
2.16172e-26
1.13543e-24
2.2127e-22
2.58393e-20
4.44961e-19
-7.18e-30
-1.27093e-31
-1.61965e-33
-1.03049e-34
-2.67146e-36
0
1.09711e-36
2.2738e-35
1.59001e-34
4.5898e-34
7.16058e-34
8.37896e-34
6.96492e-34
3.8402e-34
2.78443e-34
1.26679e-32
8.7815e-31
4.81508e-29
2.2715e-27
1.25144e-25
2.4113e-23
2.85662e-21
4.77428e-20
-1.13902e-30
-2.14929e-32
-2.65806e-34
-1.23843e-35
-3.2086e-37
-1.76597e-38
2.2514e-38
9.91034e-37
7.30637e-36
2.11633e-35
3.28544e-35
3.781e-35
3.06019e-35
1.62229e-35
1.49105e-35
8.58682e-34
6.23639e-32
3.71094e-30
2.05271e-28
1.35253e-26
2.56461e-24
2.75325e-22
4.24464e-21
-1.6766e-31
-3.33357e-33
-4.04636e-35
-1.42439e-36
-3.58846e-38
-1.04026e-38
-1.71974e-46
2.04108e-38
2.69111e-37
8.53827e-37
1.44228e-36
1.67493e-36
1.31954e-36
6.71503e-37
7.03637e-37
4.47465e-35
3.33042e-33
2.1436e-31
1.37651e-29
1.08118e-27
1.88538e-25
1.78947e-23
2.64022e-22
-2.29587e-32
-4.74966e-34
-5.66512e-36
-1.56791e-37
-3.78603e-39
-2.51595e-39
-9.7084e-39
-8.57208e-47
3.60469e-39
1.48667e-38
5.41958e-38
7.22653e-38
5.60817e-38
2.74027e-38
2.88663e-38
1.81284e-36
1.33982e-34
9.04446e-33
6.3146e-31
5.31649e-29
7.7624e-27
6.6578e-25
1.0234e-23
-2.93685e-33
-6.22117e-35
-7.25823e-37
-1.64748e-38
-3.81079e-40
-4.67243e-40
-2.86452e-39
-8.17518e-39
-1.08575e-38
0
7.61888e-40
2.87352e-39
2.35528e-39
1.09524e-39
1.09847e-39
6.51205e-38
4.5809e-36
3.00134e-34
2.0461e-32
1.62317e-30
1.92232e-28
1.49467e-26
2.43066e-25
-3.53077e-34
-7.54746e-36
-8.53508e-38
-1.64666e-39
-3.69551e-41
-7.48648e-41
-5.5481e-40
-2.33144e-39
-6.20936e-39
-8.05626e-39
-7.12462e-40
7.08477e-41
8.26075e-41
3.37378e-41
2.63241e-41
2.38426e-39
1.56119e-37
9.33767e-36
5.71877e-34
4.00544e-32
4.12802e-30
2.79003e-28
4.13831e-27
-4.01702e-35
-8.40677e-37
-9.05706e-39
-1.54752e-40
-3.46737e-42
-1.08292e-41
-8.90038e-41
-4.35402e-40
-1.34418e-39
-2.05125e-39
-7.34236e-40
0
1.52462e-41
2.37477e-41
2.37477e-41
4.59272e-41
2.81326e-39
1.54389e-37
8.51522e-36
5.32521e-34
4.94263e-32
2.86116e-30
3.50765e-29
0.999955
0.999957
0.999957
0.999955
0.999956
0.999957
0.999955
0.999944
0.997623
0.999471
0.993414
0.983362
0.806183
0.826977
0.621228
0.549702
0.658334
0.623556
0.178731
0.0361036
0.291374
0.192668
0.0179007
0.00493322
0.00229756
0.121911
0.310953
0.310953
0.000564174
0.00139718
0.00707142
0.11387
0.000183814
0.000469866
0.00154891
0.0041498
0.000120406
0.000217183
0.000556368
0.00151045
0.000112065
0.000169519
0.000373472
0.000881839
0.000116689
0.000228828
0.000625884
0.00172092
0.00011451
0.000330747
0.00108788
0.00304797
7.35848e-05
0.000268564
0.00220462
0.0093834
3.4988e-05
0.000160996
0.00303351
0.00884471
2.79298e-05
0.000247372
0.00247412
0.00365958
2.05174e-05
7.70917e-05
0.00142251
0.000884826
8.02683e-07
5.89958e-06
0.000131572
3.92241e-05
1.49056e-07
7.81689e-07
5.0602e-06
6.52316e-06
1.80405e-08
9.71813e-08
6.87567e-07
8.52074e-07
2.00914e-09
9.74824e-09
6.60917e-08
8.86945e-08
1.71938e-10
8.02629e-10
5.46879e-09
7.74342e-09
2.52461e-11
7.94588e-11
4.22062e-10
7.00849e-10
8.29874e-12
2.0265e-11
7.58126e-11
1.90607e-10
4.41645e-12
1.29986e-11
4.09776e-11
1.30689e-10
1.51033e-12
6.08398e-12
2.92065e-11
1.04804e-10
4.45767e-13
1.91071e-12
1.3133e-11
5.93441e-11
1.47359e-13
5.3715e-13
4.257e-12
2.36492e-11
4.73696e-14
1.39862e-13
1.07907e-12
6.59231e-12
1.33562e-14
2.93926e-14
1.72493e-13
1.21657e-12
3.22886e-15
5.59874e-15
1.62328e-14
1.42233e-13
6.2508e-16
1.0947e-15
1.89268e-15
9.27254e-15
9.10743e-17
1.80725e-16
3.47166e-16
5.5025e-16
1.06384e-17
2.20736e-17
7.49959e-17
8.55128e-17
1.14935e-18
2.40039e-18
1.26378e-17
1.35672e-17
1.1926e-19
2.87687e-19
1.95396e-18
2.0517e-18
1.06751e-20
3.80413e-20
3.08942e-19
2.93118e-19
7.04614e-22
4.11938e-21
3.41342e-20
5.33036e-20
3.01516e-23
2.53711e-22
2.42923e-21
1.49169e-20
7.976e-25
8.15493e-24
1.20573e-22
3.20163e-21
1.37235e-26
1.61892e-25
3.14574e-24
1.80805e-22
2.29789e-28
1.35922e-27
2.55351e-26
1.30636e-24
0.999944
0.999907
0.999186
0.715492
0.238981
0.272094
0.880047
0.819157
0.107987
0.00197578
0.000108209
2.37697e-05
2.35775e-05
2.37796e-05
2.42356e-05
2.71011e-05
3.56349e-05
0.133981
0.856695
0.999907
0.999186
0.757969
0.0485964
0.0798273
0.450307
0.858578
0.852308
0.491635
0.0169406
0.00025426
2.35472e-05
2.35369e-05
2.35781e-05
2.53458e-05
3.4451e-05
5.99913e-05
0.102393
0.771665
0.982276
0.736911
0.0209482
0.0102937
0.373204
0.669925
0.748753
0.852738
0.493504
0.0174043
0.0004095
8.82142e-05
2.35261e-05
2.34587e-05
4.00924e-05
5.97113e-05
8.27045e-05
0.0869517
0.755511
0.440243
0.0599097
0.000675695
0.0056853
0.0665612
0.116269
0.09946
0.372225
0.207821
0.0120387
7.51891e-05
4.12017e-05
2.32985e-05
4.63998e-05
0.000149939
0.000163755
0.000131128
0.0797712
0.748734
0.0100381
0.000675695
0.000585286
0.000503671
0.000472943
0.000713849
0.0119346
0.00858805
0.0026566
0.00218639
3.63078e-05
3.63078e-05
1.84764e-05
0.000450475
0.000836462
0.000671133
0.000324044
0.0927361
0.744418
0.00425693
0.00228052
0.000492391
0.000380048
0.000262943
0.00246579
0.00565895
0.00156465
0.000889285
0.000329571
0.000183994
3.60624e-05
0.00082389
0.00371565
0.00839928
0.00341922
0.00105541
0.13143
0.755769
0.311446
0.295926
0.0171519
0.000262943
0.000177826
0.000508226
0.000866242
0.000595924
0.000770118
0.00057146
0.000332481
0.000837378
0.0223484
0.215182
0.415745
0.229475
0.00404479
0.292459
0.772887
0.290692
0.333105
0.265965
0.000177832
0.000170031
0.000177832
0.000214002
0.000331583
0.000595924
0.000786034
0.000983562
0.116015
0.482127
0.798274
0.851743
0.747669
0.0969244
0.526033
0.776465
0.0486388
0.292651
0.320533
0.207073
0.000170501
0.000170442
0.00019153
0.000302592
0.00080729
0.010571
0.167673
0.523773
0.845214
0.851743
0.851743
0.851743
0.435047
0.67168
0.776465
0.00421934
0.0828422
0.29232
0.283899
0.0715549
0.0215316
0.127792
0.20428
0.284074
0.406386
0.517147
0.522492
0.426944
0.832664
0.851743
0.64356
0.517776
0.35157
0.763814
0.00206019
0.00472154
0.0544234
0.332118
0.501881
0.537629
0.641526
0.670268
0.670268
0.661735
0.362507
0.0840659
0.0521321
0.570878
0.849189
0.560257
0.333276
0.333276
0.636667
0.00453764
0.0309258
0.415505
0.663461
0.664953
0.664956
0.667611
0.670268
0.390231
0.0323239
0.0246303
0.0251221
0.0329109
0.449842
0.850255
0.862314
0.425823
0.415854
0.862903
0.00802817
0.0586111
0.459813
0.650902
0.663461
0.664953
0.35981
0.0186593
0.00659315
0.0100375
0.0262041
0.0251983
0.0152656
0.181768
0.745311
0.896888
0.901762
0.873956
0.919169
0.0135511
0.00139194
1.62139e-06
0.0243773
0.155819
0.166455
0.0393262
0.00520476
0.00611409
0.0193119
0.0167306
0.00352957
0.00251775
0.0018987
0.116221
0.77947
0.913519
0.918364
0.919391
0.00374337
9.9996e-07
9.86979e-07
8.95789e-07
9.1467e-07
3.36986e-06
1.72026e-05
0.00162861
0.00313264
0.000958576
1.43095e-06
7.06664e-06
3.40028e-05
0.000171731
0.000928163
0.104944
0.670549
0.913127
0.90687
3.96267e-06
1.01622e-06
9.98648e-07
7.17383e-07
5.41576e-07
4.2699e-06
6.8558e-08
1.34294e-07
1.32179e-07
5.12322e-08
2.27141e-07
1.34632e-06
5.98772e-06
2.52803e-05
0.000121065
0.000696835
0.0201062
0.474498
0.81866
1.8709e-05
5.69537e-06
8.80558e-06
1.87785e-06
1.34175e-07
1.40675e-07
1.16521e-08
6.91416e-08
1.92287e-07
3.05076e-08
5.12322e-08
2.27141e-07
1.34618e-06
5.66802e-06
2.3858e-05
0.000106539
0.000702057
0.049577
0.73663
6.17107e-05
5.76763e-06
8.19103e-07
7.40177e-07
2.76205e-07
6.88732e-09
3.45877e-09
3.08744e-09
1.90338e-07
2.63266e-08
1.03004e-06
7.95502e-06
1.69059e-05
2.12857e-05
2.15218e-05
1.7601e-05
0.000158928
0.0249188
0.214008
3.29441e-05
8.59812e-06
1.41117e-07
2.68137e-08
1.26082e-08
6.72833e-09
2.89206e-09
2.8443e-09
6.86206e-09
2.98224e-09
3.04764e-09
1.41067e-05
4.54927e-05
4.52092e-05
2.06796e-05
4.46324e-06
1.79691e-05
0.00959298
0.0368278
1.83782e-06
1.90899e-06
2.21575e-07
6.39747e-09
1.64868e-09
2.71892e-09
2.8443e-09
2.8443e-09
2.8443e-09
2.89757e-09
2.98224e-09
3.04764e-09
3.01588e-05
4.55132e-05
3.91047e-05
2.96291e-06
4.05057e-06
0.00493264
0.0417181
4.90633e-08
1.58576e-08
1.78037e-08
2.97298e-09
9.82648e-10
5.03749e-09
5.88238e-09
5.98629e-09
2.91561e-09
2.98224e-09
3.04764e-09
3.12896e-09
4.75096e-09
4.01853e-05
3.46361e-05
1.0858e-06
0.000231793
0.00347094
0.0229947
4.819e-09
2.22823e-09
1.28425e-09
1.0372e-09
9.17915e-10
9.11348e-10
9.14537e-10
4.96781e-08
2.03288e-07
1.97505e-07
9.44845e-08
4.75096e-09
1.16683e-08
1.12769e-05
4.17441e-06
4.32959e-07
0.000278887
0.00136395
0.0208864
8.78864e-10
1.08841e-09
1.03242e-09
9.8758e-10
9.14362e-10
9.11348e-10
9.11348e-10
2.30999e-08
3.5867e-07
3.7212e-07
3.71325e-07
1.86308e-07
2.20538e-08
3.51776e-08
1.14166e-07
2.04311e-07
9.81664e-05
0.000602161
0.0747745
5.79685e-10
1.01208e-09
1.05644e-09
1.04307e-09
9.58486e-10
9.11348e-10
9.14537e-10
1.09288e-09
6.93514e-08
3.67689e-07
3.7212e-07
3.71226e-07
1.36085e-07
1.06463e-07
1.29638e-07
1.57177e-07
1.25449e-06
0.000514963
0.074774
5.42452e-10
1.04012e-09
1.23478e-09
1.12664e-09
7.59352e-10
1.32838e-09
1.31826e-08
1.35301e-08
1.40251e-08
9.16351e-08
3.70651e-07
3.19079e-07
8.94312e-08
4.03339e-07
6.99813e-07
9.29063e-06
8.66834e-06
0.000152963
0.0747835
5.37491e-10
1.18417e-09
1.24693e-09
9.68279e-10
7.35407e-10
1.07581e-08
2.55437e-08
2.52172e-08
1.27043e-08
1.54434e-08
2.118e-07
1.88481e-07
9.34561e-08
4.63124e-07
3.72868e-07
0.000123322
7.45052e-05
1.33096e-06
0.0746917
4.06505e-10
1.01388e-09
1.12345e-09
8.83071e-10
7.31358e-10
1.03999e-09
2.03313e-09
2.41392e-09
6.09722e-09
5.90001e-08
1.3871e-07
1.03832e-07
3.5855e-08
3.50704e-08
3.74914e-07
0.000133799
7.9944e-05
2.88541e-07
0.0744911
1.89394e-10
5.55294e-10
6.48635e-10
6.13752e-10
5.20627e-10
5.10485e-11
5.55481e-11
2.47354e-09
3.48713e-07
6.68436e-07
2.03918e-07
3.40027e-08
3.31036e-08
3.30382e-08
3.31036e-08
0.000133042
7.62206e-06
1.55882e-07
0.0726741
6.64393e-11
2.09284e-10
3.51883e-10
4.16058e-10
2.38532e-10
1.27705e-11
2.15684e-11
1.46589e-06
2.64921e-06
7.37018e-07
3.62831e-08
3.32585e-08
3.30382e-08
3.30302e-08
3.30382e-08
2.05797e-05
7.87337e-07
1.49581e-07
0.03469
2.64497e-11
1.17732e-10
2.74932e-10
2.69018e-10
9.24784e-11
9.99902e-12
1.19297e-06
3.22849e-06
3.15501e-06
2.44066e-07
3.37346e-08
3.30583e-08
3.30302e-08
3.30377e-08
1.0976e-06
1.248e-07
1.4178e-07
1.45926e-07
0.0410868
1.26355e-11
7.94285e-11
1.82619e-10
1.48709e-10
3.88275e-11
9.18797e-12
3.01959e-06
3.22849e-06
1.46948e-06
3.52403e-08
3.38363e-08
3.30786e-08
3.30582e-08
2.96554e-06
2.58642e-06
1.03893e-07
1.248e-07
1.4648e-07
0.117624
4.80027e-12
3.81143e-11
7.74397e-11
5.60386e-11
1.81815e-11
9.03712e-12
1.48999e-06
3.22849e-06
8.0081e-07
3.87029e-08
3.59204e-08
2.35792e-07
1.05496e-05
1.53684e-05
2.43717e-06
4.48471e-08
9.15995e-08
1.5909e-07
0.118616
8.92509e-13
7.72135e-12
1.76544e-11
1.77208e-11
1.37834e-11
8.97778e-12
5.86736e-10
3.19635e-06
1.61906e-06
4.63264e-08
3.90957e-08
5.44554e-06
1.5426e-05
1.5426e-05
1.93129e-06
8.80437e-09
4.48471e-08
3.45696e-07
0.118802
6.25471e-14
5.33901e-13
2.34539e-12
1.22208e-11
1.55562e-11
8.91886e-12
8.97778e-12
9.4452e-07
2.42977e-06
6.97539e-07
2.10814e-07
9.60811e-06
1.5426e-05
4.83442e-06
6.85578e-09
4.92996e-09
7.58284e-05
2.36196e-05
0.118936
3.98414e-15
3.3988e-14
4.51861e-13
7.86134e-12
1.48511e-11
8.953e-12
8.8114e-11
5.90756e-11
1.73537e-06
2.14112e-06
5.8067e-07
2.70926e-06
1.88423e-06
4.68637e-09
4.93169e-09
4.93172e-09
0.000154417
2.5693e-05
0.118936
6.13735e-16
5.01335e-15
1.35251e-13
3.02348e-12
5.23079e-12
5.15775e-12
3.54436e-10
1.08711e-10
1.22343e-11
4.95102e-07
8.75032e-07
8.0459e-07
3.35341e-07
4.76951e-10
3.3977e-09
4.97455e-09
0.000155163
6.8067e-05
0.118768
1.18451e-16
8.27938e-16
2.54519e-14
2.96178e-13
5.76902e-13
2.76013e-12
1.87796e-11
1.20035e-10
1.1963e-11
-6.52611e-29
2.19333e-08
4.2804e-31
-1.91859e-27
3.58193e-10
3.95867e-10
2.79295e-09
5.55022e-05
5.95396e-05
0.115922
1.90028e-17
9.39432e-17
1.56641e-15
4.59454e-15
1.04565e-13
2.87053e-12
1.46429e-12
1.33705e-12
1.04852e-13
-1.73106e-14
-5.07943e-14
-5.56692e-14
-5.56565e-14
8.60566e-27
4.72422e-07
8.75106e-09
3.1418e-08
0.00101811
0.0234206
1.90625e-18
6.41701e-18
3.48411e-17
2.54365e-17
7.52865e-15
4.25336e-13
1.73336e-13
9.08662e-15
-6.28759e-14
-1.10322e-13
-1.13207e-13
-1.05442e-13
-6.97475e-14
1.37066e-09
1.57252e-06
6.35895e-07
1.42265e-07
3.09569e-09
3.1185e-09
9.41819e-20
2.63078e-19
6.89411e-19
-2.63858e-20
8.04097e-17
1.97015e-15
6.55231e-16
2.15724e-17
-6.40878e-14
-9.9954e-14
-8.73356e-14
-7.04397e-14
-3.23498e-14
1.1259e-10
1.57336e-06
1.57181e-06
1.39383e-06
7.51768e-08
1.54784e-09
1.89832e-21
5.22584e-21
1.315e-20
-9.57125e-19
-9.90255e-20
2.45208e-19
9.05877e-20
-1.59052e-18
-9.39112e-15
-9.61468e-15
-5.54728e-15
-2.8798e-15
-1.07181e-15
8.9112e-07
7.79385e-07
1.13637e-06
1.33461e-06
1.91597e-07
-3.32544e-32
1.08017e-23
3.10966e-23
7.45114e-23
-4.6126e-19
-2.28456e-20
-6.96327e-22
-2.22569e-21
-1.35045e-21
-4.74428e-22
-1.1747e-22
-2.2952e-23
-4.5625e-24
-7.99256e-25
1.19457e-05
-2.62162e-26
-2.7967e-27
-1.15295e-27
-5.8466e-28
-5.74494e-28
)
;

boundaryField
{
    leftWall
    {
        type            zeroGradient;
    }
    rightWall
    {
        type            zeroGradient;
    }
    lowerWall
    {
        type            zeroGradient;
    }
    atmosphere
    {
        type            inletOutlet;
        inletValue      uniform 0;
        value           nonuniform List<scalar> 
46
(
-4.01702e-35
-8.40677e-37
-9.05706e-39
-1.54752e-40
-3.46737e-42
-1.08292e-41
-8.90038e-41
-4.35402e-40
-1.34418e-39
-2.05125e-39
-7.34236e-40
0
1.52462e-41
2.37477e-41
2.37477e-41
4.59272e-41
2.81326e-39
1.54389e-37
8.51522e-36
5.32521e-34
4.94263e-32
2.86116e-30
3.50765e-29
2.29789e-28
1.35922e-27
2.55351e-26
1.30636e-24
1.08017e-23
0
0
0
0
0
0
0
0
0
0
0
0
1.19457e-05
0
0
0
0
0
)
;
    }
    defaultFaces
    {
        type            empty;
    }
}


// ************************************************************************* //
