/*--------------------------------*- C++ -*----------------------------------*\
| =========                 |                                                 |
| \\      /  F ield         | OpenFOAM: The Open Source CFD Toolbox           |
|  \\    /   O peration     | Version:  2012                                  |
|   \\  /    A nd           | Website:  www.openfoam.com                      |
|    \\/     M anipulation  |                                                 |
\*---------------------------------------------------------------------------*/
FoamFile
{
    version     2.0;
    format      ascii;
    class       surfaceScalarField;
    location    "0.65";
    object      alphaPhi0.water;
}
// * * * * * * * * * * * * * * * * * * * * * * * * * * * * * * * * * * * * * //

dimensions      [0 3 -1 0 0 0 0];
oriented        oriented;


internalField   nonuniform List<scalar> 
4432
(
-3.19486e-06
3.19486e-06
-6.22036e-06
3.0255e-06
-7.58004e-06
1.35969e-06
-7.81199e-06
2.31944e-07
-6.98771e-06
-8.24283e-07
-4.79052e-06
-2.19719e-06
-1.41678e-06
-3.37374e-06
2.00178e-06
-3.41855e-06
4.44645e-06
-2.44467e-06
5.61389e-06
-1.16743e-06
5.6316e-06
-1.7716e-08
4.70552e-06
9.26089e-07
3.13559e-06
1.56993e-06
1.08397e-06
2.05162e-06
-1.47063e-06
2.55461e-06
-4.82823e-06
3.3576e-06
-8.71535e-06
3.88726e-06
-1.09369e-05
2.94714e-06
-1.37186e-05
2.65039e-06
-1.98966e-05
5.09966e-06
-2.32396e-05
3.34831e-06
-1.60853e-05
-7.14913e-06
-1.60788e-05
-3.87572e-06
7.07058e-06
-6.19657e-06
5.34635e-06
-7.02738e-06
2.1905e-06
-7.39366e-06
5.98223e-07
-6.94177e-06
-1.27617e-06
-4.99507e-06
-4.14389e-06
-1.61821e-06
-6.7506e-06
1.946e-06
-6.98276e-06
4.50782e-06
-5.00649e-06
5.73434e-06
-2.39394e-06
5.97407e-06
-2.57441e-07
5.66711e-06
1.23305e-06
5.00646e-06
2.23059e-06
4.09851e-06
2.95957e-06
2.88253e-06
3.77059e-06
1.09522e-06
5.14492e-06
-1.97651e-06
6.95879e-06
-6.76675e-06
7.87602e-06
-1.20518e-05
8.74163e-06
-1.69149e-05
9.4536e-06
-1.74711e-05
3.47486e-06
-1.13152e-05
-1.28598e-05
-2.7335e-05
-2.93493e-06
1.00055e-05
-4.67407e-06
7.08549e-06
-5.69532e-06
3.21174e-06
-6.56298e-06
1.46588e-06
-6.66105e-06
-1.1781e-06
-5.08299e-06
-5.72195e-06
-1.93065e-06
-9.90294e-06
1.55074e-06
-1.04641e-05
4.10271e-06
-7.55844e-06
5.29718e-06
-3.58841e-06
5.4017e-06
-3.61953e-07
4.8807e-06
1.75405e-06
4.11229e-06
2.99901e-06
3.38233e-06
3.68954e-06
2.90111e-06
4.25181e-06
2.74963e-06
5.2964e-06
2.51184e-06
7.19658e-06
8.36215e-07
9.55165e-06
-2.1011e-06
1.18108e-05
-5.28562e-06
1.32092e-05
-6.6056e-06
4.6842e-06
-4.17998e-06
-1.53961e-05
-3.14291e-05
-1.47696e-06
1.14825e-05
-2.40165e-06
8.01018e-06
-3.36032e-06
4.17041e-06
-4.1826e-06
2.28816e-06
-4.16802e-06
-1.19268e-06
-2.74948e-06
-7.1405e-06
-4.31663e-07
-1.22208e-05
1.96646e-06
-1.28623e-05
3.76727e-06
-9.35926e-06
4.6212e-06
-4.44233e-06
4.61482e-06
-3.55576e-07
4.04311e-06
2.32576e-06
3.21809e-06
3.82404e-06
2.46061e-06
4.44702e-06
2.02031e-06
4.69211e-06
2.07307e-06
5.24365e-06
2.90152e-06
6.36813e-06
4.04925e-06
8.40392e-06
5.13099e-06
1.07291e-05
5.95899e-06
1.25969e-05
4.6691e-06
5.86344e-06
3.15179e-06
-1.39642e-05
-2.83723e-05
4.65515e-07
1.1017e-05
9.50722e-07
7.52498e-06
8.15218e-07
4.30591e-06
1.01299e-06
2.09039e-06
2.00742e-06
-2.18711e-06
3.27883e-06
-8.41192e-06
4.0546e-06
-1.29965e-05
4.29107e-06
-1.30987e-05
4.19788e-06
-9.26607e-06
3.99286e-06
-4.23731e-06
3.6371e-06
1.8741e-10
3.0515e-06
2.91136e-06
2.30549e-06
4.57004e-06
1.68882e-06
5.06369e-06
1.42407e-06
4.95687e-06
1.51323e-06
5.15449e-06
2.22579e-06
5.65557e-06
3.97977e-06
6.64995e-06
7.03987e-06
7.66898e-06
1.07357e-05
8.90111e-06
1.12583e-05
5.24778e-06
7.43658e-06
-1.05838e-05
-2.09357e-05
2.90003e-06
8.11693e-06
5.47139e-06
4.95362e-06
7.196e-06
2.5813e-06
9.29226e-06
-5.86842e-09
1.1504e-05
-4.39883e-06
1.20983e-05
-9.00624e-06
1.06881e-05
-1.15864e-05
8.1824e-06
-1.0593e-05
5.66589e-06
-6.74956e-06
3.78653e-06
-2.35796e-06
2.73285e-06
1.05387e-06
1.96793e-06
3.67628e-06
1.29055e-06
5.24742e-06
8.69015e-07
5.48523e-06
9.07133e-07
4.91875e-06
1.22921e-06
4.83242e-06
1.8927e-06
4.99208e-06
3.30554e-06
5.23711e-06
5.93761e-06
5.03693e-06
9.98375e-06
4.85497e-06
1.20824e-05
3.14915e-06
8.62125e-06
-7.12265e-06
-1.23147e-05
4.91939e-06
3.19753e-06
1.04532e-05
-5.80215e-07
1.56436e-05
-2.60909e-06
2.01874e-05
-4.54992e-06
2.20335e-05
-6.24523e-06
2.02116e-05
-7.18462e-06
1.60641e-05
-7.43894e-06
1.14461e-05
-5.97501e-06
7.39821e-06
-2.70163e-06
4.19877e-06
8.41472e-07
2.2518e-06
3.00084e-06
1.0202e-06
4.90789e-06
2.33162e-07
6.03446e-06
-5.59482e-09
5.72398e-06
3.85522e-07
4.52763e-06
1.0022e-06
4.21574e-06
1.80595e-06
4.18833e-06
3.07686e-06
3.9662e-06
4.8863e-06
3.22748e-06
7.78537e-06
1.95591e-06
1.01152e-05
8.19279e-07
8.52968e-06
-5.53709e-06
-3.78545e-06
8.45584e-06
-4.29131e-06
1.67852e-05
-7.44015e-06
2.18613e-05
-6.36129e-06
2.40962e-05
-5.23221e-06
2.30809e-05
-3.61866e-06
1.96704e-05
-2.15461e-06
1.55347e-05
-1.95219e-06
1.11361e-05
-1.37196e-06
7.62975e-06
8.04741e-07
4.82454e-06
3.64668e-06
2.73176e-06
5.09362e-06
9.43924e-07
6.69572e-06
-3.37341e-07
7.31572e-06
-8.04865e-07
6.19151e-06
-2.79229e-07
4.00199e-06
5.76936e-07
3.35957e-06
1.55952e-06
3.20575e-06
2.95459e-06
2.57112e-06
4.63857e-06
1.54351e-06
6.476e-06
1.18486e-07
7.83946e-06
-5.44183e-07
6.84962e-06
-4.54723e-06
3.06368e-06
-3.70903e-05
1.9565e-05
-4.78554e-05
1.07651e-05
-3.26062e-05
-1.52492e-05
-9.17601e-06
-2.34301e-05
1.3475e-05
-2.2651e-05
2.34786e-05
-2.01904e-05
2.77331e-05
-1.0863e-05
6.38732e-06
3.14384e-05
-5.86968e-05
6.47842e-05
-0.00010889
4.98632e-05
-0.000128785
1.9547e-05
-0.000134051
4.89181e-06
-0.000132581
-1.86655e-06
-0.000126051
-6.82399e-06
-0.000114715
-1.15681e-05
-9.45846e-05
-2.03112e-05
-5.39891e-05
-4.07301e-05
-1.39344e-06
-5.26913e-05
-1.55818e-06
-3.3649e-05
3.23813e-05
-3.29713e-05
1.00826e-05
-1.43436e-05
-3.38768e-05
4.24508e-06
-4.20188e-05
2.15958e-05
-4.00016e-05
3.82653e-05
-3.68599e-05
2.08908e-05
-5.47366e-06
-4.54906e-05
0.000105462
-0.000118446
0.000138072
-0.000135491
5.10723e-05
-0.000132322
8.12142e-06
-0.000128503
4.95664e-07
-0.000129329
-2.98306e-06
-0.000131475
-8.41726e-06
-0.00012777
-1.85076e-05
-0.000109216
-4.03127e-05
-7.22835e-05
-7.77155e-05
-1.95835e-05
-0.000105389
-2.11394e-05
-1.42681e-05
4.08267e-05
-9.27799e-06
5.01941e-06
4.78799e-06
-4.79261e-05
2.13334e-05
-5.85642e-05
3.49378e-05
-5.3606e-05
4.06276e-05
-4.25496e-05
6.58326e-06
1.45628e-05
-5.74045e-05
0.000170702
-5.06007e-05
0.000102731
-2.12513e-05
1.03603e-05
-1.69525e-05
1.28339e-06
-1.77435e-05
-9.9453e-08
-2.17908e-05
-6.05515e-07
-3.17873e-05
-1.88319e-06
-5.00098e-05
-5.50474e-06
-7.9103e-05
-1.63625e-05
-8.19199e-05
-7.82628e-05
-3.4306e-05
-0.000153001
-5.54433e-05
1.98763e-06
3.78459e-05
1.11521e-05
-1.50034e-06
2.23758e-05
-5.91419e-05
3.64573e-05
-7.26453e-05
4.48487e-05
-6.19975e-05
4.1255e-05
-3.89558e-05
4.77891e-06
4.01973e-05
-3.42359e-05
0.00019415
-9.40735e-06
8.88883e-06
-1.4639e-06
2.21072e-06
-2.54057e-07
8.97599e-08
-3.53941e-07
-2.0462e-09
-9.38588e-07
-2.10512e-08
-2.59437e-06
-2.25666e-07
-6.9243e-06
-1.16838e-06
-1.82617e-05
-5.06145e-06
-6.99747e-05
-2.87936e-05
-4.25393e-05
-0.000181895
-9.79802e-05
8.21037e-06
2.86723e-05
2.51596e-05
-8.13925e-06
3.81312e-05
-7.20886e-05
5.05111e-05
-8.50216e-05
5.46906e-05
-6.61778e-05
4.64301e-05
-3.06956e-05
7.07156e-06
6.74198e-05
3.31694e-09
0.000176832
-1.61223e-06
1.01588e-05
-1.76709e-07
7.88993e-07
-8.19634e-08
1.4882e-08
-8.28403e-08
2.87353e-09
-1.00937e-07
-3.96441e-10
-2.84926e-07
-3.97156e-08
-1.15464e-06
-2.96566e-07
-4.25763e-06
-1.96085e-06
-2.14843e-05
-1.13704e-05
-4.46028e-05
-0.000158116
-0.000142577
1.53051e-05
4.17501e-05
3.66627e-05
-2.53653e-05
5.10019e-05
-8.63438e-05
6.19264e-05
-9.5917e-05
6.41006e-05
-6.83549e-05
5.47949e-05
-2.13898e-05
1.7014e-05
0.000104014
4.31046e-06
0.00020532
1.42383e-07
1.61152e-05
-3.34018e-08
9.8243e-07
-8.73551e-09
9.74993e-09
-9.06662e-09
2.61996e-09
-1.15638e-08
4.48715e-10
-4.34106e-08
-6.66721e-09
-2.6799e-07
-7.06888e-08
-1.58251e-06
-6.44506e-07
-7.32622e-06
-5.6193e-06
-3.95604e-05
-0.000123787
-0.000182108
2.22398e-05
2.01382e-05
4.70001e-05
-5.00848e-05
5.95707e-05
-9.88329e-05
6.93907e-05
-0.000105653
7.04741e-05
-6.80537e-05
6.2212e-05
-1.2131e-05
3.67751e-05
0.000130377
1.34357e-05
0.000233542
1.27167e-06
2.64753e-05
-1.03066e-08
2.32933e-06
-3.97577e-09
7.01855e-08
-4.20571e-09
2.9493e-09
-5.3219e-09
1.71169e-09
-1.01005e-08
-1.82325e-09
-6.40181e-08
-1.61067e-08
-5.62715e-07
-1.45188e-07
-4.08041e-06
-2.11184e-06
-3.04405e-05
-9.4617e-05
-0.000212432
3.35318e-05
-1.33897e-05
5.34767e-05
-7.00087e-05
6.17017e-05
-0.000107022
6.71867e-05
-0.000110922
5.09924e-05
-4.70436e-05
5.29151e-05
-1.82342e-06
4.93247e-05
0.000134118
2.01108e-05
0.0002214
1.98193e-06
3.46696e-05
1.53787e-07
4.1568e-06
-1.01642e-09
2.26389e-07
-2.2471e-09
4.65821e-09
-2.87235e-09
2.34081e-09
-3.87769e-09
-7.79794e-10
-1.42532e-08
-5.98113e-09
-1.40059e-07
-2.00908e-08
-2.16539e-06
-1.01194e-07
-2.00705e-05
-7.30387e-05
-0.000232124
6.55099e-06
-3.44575e-08
7.13456e-06
-4.42664e-07
4.74686e-06
-9.64045e-08
3.46485e-06
-2.62197e-07
3.14676e-06
-4.94365e-07
3.39684e-06
-4.04377e-07
4.04532e-06
-6.61007e-07
4.36587e-06
-3.90483e-07
4.51433e-06
5.234e-07
4.83391e-06
2.22526e-06
4.80976e-06
5.11776e-06
2.85912e-06
8.64636e-06
-5.7845e-08
1.02327e-05
-1.06892e-06
7.20259e-06
5.37508e-07
2.39556e-06
2.03817e-06
1.85891e-06
3.25301e-06
1.9909e-06
5.42877e-06
3.95353e-07
9.03207e-06
-2.05979e-06
1.29343e-05
-3.78376e-06
1.71434e-05
-4.75327e-06
2.06937e-05
-8.09753e-06
-6.1124e-06
2.98676e-05
-3.42289e-08
-4.922e-10
-4.79487e-07
6.32021e-10
-1.37319e-06
1.195e-10
-3.2e-06
-1.63793e-11
-4.49675e-06
-1.42261e-10
-5.01823e-06
-1.02065e-09
-5.57412e-06
-6.05589e-09
-6.49041e-06
-3.33816e-08
-7.915e-06
-1.70111e-07
-9.43166e-06
-6.06388e-07
-9.46677e-06
-1.07782e-06
-6.73233e-06
-7.86826e-08
-3.14492e-06
1.32137e-06
1.48435e-06
8.62547e-07
5.1303e-06
-9.61377e-07
5.87641e-06
1.1128e-06
5.25632e-06
2.61099e-06
6.42928e-06
-7.776e-07
1.01179e-05
-5.74831e-06
1.3473e-05
-7.13869e-06
1.53734e-05
-6.65357e-06
1.46253e-05
-7.34945e-06
-9.01906e-06
1.75312e-05
-5.13646e-10
1.22295e-12
-1.19875e-10
-7.78276e-12
-1.35407e-12
-4.74988e-13
-1.78093e-11
-5.59086e-15
-1.59945e-10
-3.87333e-13
-1.17454e-09
-8.02662e-12
-7.24385e-09
8.45069e-12
-4.0625e-08
-4.56887e-13
-2.10732e-07
-4.48836e-12
-8.17079e-07
-4.18359e-11
-2.9151e-06
-3.22661e-10
-5.93814e-06
-2.26467e-09
-8.27058e-06
-1.37528e-08
-1.04471e-05
-7.99222e-08
-1.19141e-05
-4.43209e-07
-7.80235e-06
-2.27544e-06
-2.014e-06
-2.3752e-06
4.47134e-06
-3.1824e-06
1.24083e-05
-5.9587e-06
1.81504e-05
-6.93094e-06
2.04598e-05
-5.79342e-06
1.80829e-05
-3.46567e-06
-2.37573e-06
1.21753e-05
3.40376e-13
-1.41988e-13
-1.91405e-13
2.78171e-12
-1.47223e-14
-7.34134e-13
-8.22106e-14
4.95229e-15
-4.39535e-13
7.89361e-15
-8.53882e-12
-2.66012e-15
-8.28596e-14
1.62938e-14
-5.49497e-13
4.49723e-15
-4.98973e-12
-2.65409e-14
-4.641e-11
-2.30229e-13
-3.68519e-10
-2.37985e-13
-2.63148e-09
-1.422e-12
-1.637e-08
-1.35061e-11
-9.61462e-08
-1.41647e-10
-5.38781e-07
-6.2758e-10
-2.81192e-06
-2.97952e-09
-3.36224e-06
-1.93148e-08
-4.80347e-06
-8.49202e-08
-6.59922e-06
-3.6222e-07
-7.09116e-06
-1.15348e-06
-6.83428e-06
-1.70196e-06
-1.11441e-05
1.99751e-08
3.9132e-06
-3.78522e-05
1.99198e-14
-1.63686e-14
1.8056e-12
2.12185e-13
-4.86707e-15
9.62493e-14
4.70582e-15
1.07056e-13
-1.50399e-15
3.1303e-15
-1.11438e-14
2.68311e-15
-2.40692e-15
1.10739e-15
-6.12613e-15
2.3793e-15
-2.01099e-14
-3.06431e-14
-4.76217e-14
1.95356e-13
-1.48338e-13
2.24674e-13
-1.18309e-12
-7.60583e-14
-1.18095e-11
-2.58854e-12
-6.87768e-11
-8.38134e-11
-4.57224e-10
-2.22735e-10
-3.35697e-09
-1.33097e-10
-2.30904e-08
-2.62234e-10
-1.11935e-07
-4.5936e-10
-4.88054e-07
-7.83226e-09
-1.65523e-06
-8.03739e-08
-3.30431e-06
-4.32943e-07
-4.09382e-06
-7.453e-07
4.34205e-07
-7.49806e-05
-1.05624e-14
8.4769e-16
1.00033e-13
1.1122e-14
1.04942e-14
3.10203e-15
1.85435e-14
1.74133e-14
4.70699e-16
3.15003e-15
2.97093e-16
1.57468e-15
3.16407e-16
6.54537e-16
-1.27685e-14
1.28387e-14
-2.92184e-12
6.73803e-13
-5.95389e-12
1.4906e-12
1.31611e-12
2.56189e-12
8.44582e-13
6.86551e-13
-3.47851e-10
1.78209e-11
-1.34708e-09
1.24211e-10
-1.08179e-09
1.70692e-10
1.42946e-10
1.07986e-10
-5.9436e-10
2.62897e-10
3.37875e-09
9.05056e-10
-7.03245e-09
2.246e-09
-1.29809e-07
3.86516e-09
-6.97343e-07
8.4584e-09
-1.97493e-06
1.03329e-08
-3.24965e-10
-5.60436e-05
-3.02352e-16
1.78083e-16
3.21831e-15
5.02945e-16
5.10381e-16
2.46034e-16
8.74532e-16
3.84718e-16
7.0012e-17
3.03383e-16
4.71757e-17
5.73482e-16
3.20608e-18
5.61868e-16
-5.68189e-15
1.81547e-14
-4.54334e-12
1.20112e-12
-6.16383e-12
4.23012e-12
-6.43435e-12
3.83758e-12
6.11592e-13
1.77839e-12
-3.40542e-11
9.68071e-13
-1.84991e-10
-9.912e-12
-1.34671e-10
-3.3865e-12
2.82606e-10
1.35377e-11
-3.45854e-10
3.01127e-10
-5.11085e-09
2.1785e-09
-9.75747e-09
2.66509e-09
-1.53066e-08
1.63597e-09
-2.55493e-08
-2.50452e-09
-2.87923e-07
-3.01101e-09
-5.80368e-08
-9.16005e-07
-8.16381e-18
1.37802e-17
5.80933e-17
5.98876e-17
1.82631e-17
2.63731e-17
1.28442e-17
3.50822e-17
1.82711e-18
2.09966e-16
-2.54933e-17
5.98345e-16
3.66691e-16
7.84841e-16
1.06775e-14
7.55856e-15
-2.0499e-12
2.78776e-13
-5.98265e-12
2.46441e-12
-4.8814e-12
3.95937e-12
-2.10124e-12
8.97974e-13
-1.01214e-11
3.94172e-12
-5.82706e-12
-2.34013e-13
-7.27353e-12
-7.98933e-13
-3.37444e-12
2.65196e-12
2.35356e-10
1.4096e-11
-4.41397e-09
8.64475e-11
-1.04141e-08
1.23927e-09
-1.48357e-08
3.16516e-09
-2.26011e-08
4.73255e-10
-3.42495e-08
7.16562e-09
2.15767e-08
-1.47065e-07
-1.13187e-18
9.52762e-19
-2.24602e-21
3.35422e-18
2.97973e-19
1.87707e-18
-4.60884e-19
1.22466e-17
-2.23866e-17
1.8149e-16
-7.24657e-17
6.17234e-16
-1.3842e-16
8.92456e-16
6.18289e-15
1.18605e-15
-2.5849e-13
-1.91008e-15
-1.80283e-12
-1.84599e-14
-1.55074e-13
4.08435e-14
-6.97498e-12
2.68152e-13
-1.09137e-11
6.60367e-12
-5.33611e-12
7.79273e-12
-4.23908e-12
1.59893e-12
-5.12405e-12
1.30489e-12
-5.7803e-13
4.17519e-12
2.17182e-11
1.29034e-11
-3.54999e-09
5.21498e-11
-7.68639e-09
1.9088e-09
-1.60603e-08
5.84443e-09
-1.29735e-08
9.32113e-09
2.37424e-08
-3.65724e-08
-7.08804e-20
6.79876e-20
-2.79271e-20
1.27135e-19
-3.18098e-20
1.20137e-19
-2.0153e-18
5.74957e-18
-2.54266e-17
1.01365e-16
-7.71206e-17
3.83691e-16
-1.47088e-16
6.98753e-16
-5.0191e-16
1.01255e-15
-7.86825e-15
1.78617e-15
-3.75736e-14
3.27687e-15
-9.67161e-15
1.47597e-15
-1.15339e-12
2.8827e-14
-7.25034e-12
3.41539e-13
-2.14583e-12
2.51904e-12
-8.54149e-13
8.30122e-14
-9.86409e-13
1.66478e-12
8.89316e-12
1.06845e-11
7.92319e-12
1.96865e-11
-2.18308e-10
2.01671e-10
-1.4498e-08
2.4471e-09
-2.51488e-08
1.12437e-08
-8.45177e-09
1.95537e-08
2.16986e-08
-2.76442e-08
-2.91289e-21
4.9851e-21
-2.72492e-21
5.33523e-21
-1.48931e-20
1.43084e-20
-1.21072e-18
2.02057e-18
-1.25781e-17
3.18711e-17
-4.24696e-17
1.26949e-16
-1.08185e-16
3.02213e-16
-3.55705e-16
7.42053e-16
-8.42694e-16
1.58376e-15
-1.72576e-15
2.41539e-15
-4.59227e-15
3.04509e-15
-4.46873e-14
3.58904e-15
-3.56843e-13
6.86043e-16
-5.6094e-14
6.74651e-15
-9.88474e-14
5.22367e-14
-1.55631e-12
1.68038e-12
3.61511e-12
4.3919e-12
-4.34332e-12
2.65604e-11
-1.18512e-11
1.68829e-10
-1.1604e-08
4.36994e-09
-3.33128e-08
1.12236e-08
-1.40611e-08
2.67747e-08
2.23811e-08
-3.59796e-08
-8.00618e-23
3.73622e-22
-1.65726e-22
2.37714e-22
-5.07891e-21
2.90324e-21
-4.11845e-19
4.87363e-19
-3.79445e-18
7.29318e-18
-1.29845e-17
2.87609e-17
-4.66074e-17
7.74729e-17
-2.32287e-16
3.27006e-16
-7.02976e-16
1.30566e-15
-1.09762e-15
2.74019e-15
-1.5869e-15
3.34776e-15
-3.8764e-15
3.72673e-15
-1.51776e-14
5.0235e-15
-2.39381e-14
4.88e-15
-8.64101e-15
1.74973e-14
7.05776e-13
1.23102e-13
1.56842e-12
2.00381e-12
-3.59893e-11
5.48781e-11
-2.98794e-09
7.25689e-10
-1.55928e-08
9.77045e-09
-3.64246e-08
1.36751e-08
-3.11327e-09
2.16484e-08
2.26357e-08
-2.53795e-08
-3.90931e-24
2.83924e-23
-7.79485e-24
1.14947e-23
-1.206e-21
6.31535e-22
-1.00122e-19
9.27555e-20
-8.81439e-19
1.45148e-18
-2.97409e-18
5.94463e-18
-1.17627e-17
1.75178e-17
-1.0701e-16
9.29007e-17
-6.08214e-16
7.53674e-16
-1.10814e-15
2.63887e-15
-1.46931e-15
3.58774e-15
-2.40103e-15
3.77158e-15
-4.51987e-15
5.11261e-15
-4.7313e-15
5.98529e-15
8.74367e-15
4.16438e-15
5.57947e-14
5.27923e-14
3.07059e-13
1.36485e-12
2.14072e-11
2.74961e-11
-1.49674e-09
4.01453e-10
-1.67033e-08
5.3487e-09
-3.11378e-08
1.72282e-08
-9.58356e-09
1.41677e-08
1.89265e-08
-2.29978e-08
-1.69432e-25
2.12637e-24
-4.58287e-25
6.72977e-25
-2.17013e-22
1.16692e-22
-1.82238e-20
1.5073e-20
-1.64347e-19
2.48738e-19
-6.37083e-19
1.17559e-18
-2.71498e-18
4.63754e-18
-2.88346e-17
2.52565e-17
-3.19491e-16
2.28023e-16
-9.2139e-16
1.42905e-15
-1.22574e-15
2.87833e-15
-1.45526e-15
3.05892e-15
-1.75321e-15
2.28929e-15
-1.28319e-15
1.79982e-15
4.3034e-16
9.8334e-16
2.57004e-14
1.8049e-14
7.93582e-13
4.43927e-13
1.75526e-11
7.92063e-12
2.55929e-10
7.37822e-11
-9.69644e-09
-4.30914e-11
-1.55074e-08
3.44905e-09
-5.62523e-09
2.41508e-09
9.73361e-09
-3.50698e-09
-8.19453e-27
1.76543e-25
-4.03678e-26
5.39558e-26
-3.18997e-23
1.85937e-23
-2.49834e-21
2.10229e-21
-2.38037e-20
3.55225e-20
-1.34573e-19
2.12301e-19
-7.55286e-19
1.39597e-18
-5.70698e-18
7.93819e-18
-8.01373e-17
4.36015e-17
-4.3999e-16
3.55203e-16
-6.54138e-16
1.17891e-15
-5.91429e-16
1.45568e-15
-3.63674e-16
7.10044e-16
-2.5129e-16
2.79596e-16
-2.80514e-16
2.44302e-16
1.2444e-14
3.69937e-15
3.55614e-13
5.95154e-14
6.82119e-12
6.7789e-13
-5.6581e-11
1.13191e-11
-8.73044e-10
-6.01786e-11
-1.11581e-09
6.29072e-11
-4.25319e-10
3.67525e-10
4.19426e-09
1.63084e-09
-6.27246e-28
1.36253e-25
-4.79855e-27
5.67999e-27
-3.932e-24
2.71196e-24
-2.62149e-22
2.50436e-22
-2.74103e-21
4.25951e-21
-2.7855e-20
3.51409e-20
-2.50805e-19
4.20849e-19
-1.30893e-18
2.67717e-18
-1.17181e-17
9.31743e-18
-9.66643e-17
5.0268e-17
-1.90763e-16
2.08328e-16
-1.74389e-16
3.21464e-16
-6.57085e-17
2.07434e-16
-4.89118e-17
6.28088e-17
-1.17638e-16
5.22392e-17
-3.99378e-17
9.57927e-16
3.81708e-14
9.68119e-15
4.01781e-13
6.90667e-14
-2.63634e-12
-1.06362e-13
-8.83965e-11
-1.6304e-12
-1.39605e-10
1.60769e-11
-4.61468e-11
9.41113e-11
1.30188e-09
7.919e-10
-6.50669e-29
-3.098e-26
-6.48859e-28
5.34388e-27
-4.08064e-25
3.64897e-25
-2.14762e-23
2.57523e-23
-2.69327e-22
4.40645e-22
-5.32122e-21
5.60147e-21
-7.62795e-20
1.10893e-19
-3.6198e-19
8.24236e-19
-1.77077e-18
2.63994e-18
-1.119e-17
7.61615e-18
-2.68842e-17
2.13554e-17
-2.91757e-17
3.40865e-17
-1.15031e-17
3.48648e-17
-7.22256e-18
1.14521e-17
-1.64982e-17
7.70358e-18
-2.76422e-16
1.35768e-16
9.9139e-17
2.27604e-15
2.11455e-14
1.30269e-14
-4.34534e-13
4.0854e-14
-5.97414e-12
2.84103e-13
-9.45743e-12
3.05462e-12
5.23098e-12
2.17751e-11
3.37765e-10
3.10842e-10
1.62719e-29
-6.17468e-26
-5.85469e-27
-1.7674e-27
-3.61737e-26
4.39316e-26
-1.42395e-24
2.36956e-24
-2.40185e-23
4.06863e-23
-8.6969e-22
8.90336e-22
-1.68251e-20
2.3751e-20
-9.85328e-20
2.06305e-19
-3.59781e-19
7.79125e-19
-1.18422e-18
1.70334e-18
-2.3827e-18
2.77228e-18
-2.66691e-18
3.52214e-18
-1.21659e-18
3.3073e-18
-6.88971e-19
1.2306e-18
-1.3721e-18
8.02533e-19
-3.15678e-17
1.35047e-17
-3.90291e-16
2.88944e-16
-1.5317e-15
3.33656e-15
-3.30449e-14
8.97061e-15
-3.38143e-13
9.35436e-14
-3.90542e-13
6.07085e-13
7.65988e-12
5.19364e-12
7.92712e-11
2.39768e-10
2.71231e-29
-5.79912e-26
-5.3677e-28
-4.16828e-27
-2.79556e-27
4.33662e-27
-8.22416e-26
2.02139e-25
-2.02566e-24
3.50647e-24
-1.1854e-22
1.37347e-22
-2.64312e-21
4.19829e-21
-2.06824e-20
4.08582e-20
-7.71043e-20
1.90099e-19
-1.62546e-19
4.3617e-19
-2.30668e-19
5.71881e-19
-2.33369e-19
6.09845e-19
-9.58232e-20
4.14612e-19
-4.53084e-20
1.48336e-19
-8.1832e-20
7.51439e-20
-1.61505e-18
1.18589e-18
-3.22837e-17
2.49957e-17
-2.12885e-16
4.26941e-16
-7.95954e-16
3.43166e-15
4.31614e-15
1.54825e-14
2.16945e-13
1.10703e-13
3.68885e-12
8.03849e-13
1.06808e-11
6.51196e-11
1.17299e-29
-4.40979e-26
-3.62641e-29
-3.02065e-27
-1.74297e-28
2.66375e-28
-4.34791e-27
1.57199e-26
-1.59704e-25
2.9257e-25
-1.30717e-23
1.8813e-23
-3.1114e-22
6.24318e-22
-2.89969e-21
6.63524e-21
-1.24848e-20
3.51475e-20
-2.34966e-20
9.4184e-20
-2.67877e-20
1.30842e-19
-2.27844e-20
1.36216e-19
-8.20833e-21
8.26209e-20
-2.13278e-21
2.81982e-20
-2.76538e-21
8.64766e-21
-2.97363e-20
9.49446e-20
7.05093e-20
2.08359e-18
1.44326e-17
3.65325e-17
3.72125e-16
5.17666e-16
5.19537e-15
3.28254e-15
5.8756e-14
1.31275e-14
6.48206e-13
9.13008e-14
1.2061e-12
9.10434e-12
1.81716e-30
-2.91015e-26
-1.42725e-30
-1.50626e-27
-7.31941e-30
7.47136e-29
-1.94805e-28
1.07116e-27
-1.02083e-26
2.33416e-26
-1.02509e-24
2.06049e-24
-2.62994e-23
7.60145e-23
-2.56946e-22
9.08069e-22
-1.15814e-21
5.08075e-21
-2.13733e-21
1.48182e-20
-2.0969e-21
2.31517e-20
-1.31015e-21
2.55572e-20
-2.3875e-22
1.66159e-20
5.38712e-23
5.96367e-21
1.40811e-22
1.32353e-21
4.89155e-21
7.71275e-21
1.80565e-19
1.75032e-19
4.55267e-18
3.15746e-18
8.1769e-17
4.39077e-17
9.60421e-16
4.49551e-16
7.84552e-15
2.34e-15
7.86512e-14
7.28302e-15
9.75369e-14
1.09975e-12
-1.88454e-29
-1.70003e-26
-2.04937e-32
-5.95291e-28
-2.31757e-30
5.76459e-30
-5.83543e-30
6.66853e-29
-3.65949e-28
1.70202e-27
-3.85439e-26
1.72145e-25
-9.90901e-25
7.30666e-24
-7.64157e-24
1.0271e-22
-1.44486e-23
6.00604e-22
3.26081e-23
1.7125e-21
1.55486e-22
2.7452e-21
3.2553e-22
3.18455e-21
2.63182e-22
2.31687e-21
9.59681e-23
9.36703e-22
7.04322e-23
2.05377e-22
8.67367e-22
6.21513e-22
2.77988e-20
1.38939e-20
6.42395e-19
2.58746e-19
1.09623e-17
3.65821e-18
1.32647e-16
3.85954e-17
1.0359e-15
2.90241e-16
6.31121e-15
1.08228e-15
5.83595e-15
8.93403e-14
-2.71028e-29
-8.87011e-27
-2.47656e-31
-1.97761e-28
-3.68144e-33
-2.21127e-29
1.08564e-31
4.00478e-30
5.56837e-30
1.13412e-28
1.00329e-27
1.17554e-26
6.99673e-26
5.62248e-25
1.46516e-24
9.26829e-24
1.12056e-23
5.77181e-23
3.64274e-23
1.56646e-22
6.65553e-23
2.39698e-22
9.56532e-23
2.80762e-22
7.03582e-23
2.16813e-22
2.46301e-23
9.73466e-23
1.55252e-23
2.44952e-23
9.52939e-23
4.82886e-23
3.05868e-21
1.02935e-21
6.96441e-20
1.96758e-20
1.18659e-18
2.89439e-19
1.4537e-17
3.17437e-18
1.21503e-16
2.47537e-17
6.8651e-16
1.40051e-16
7.84397e-16
5.84469e-15
-2.07606e-29
-4.15847e-27
-3.51063e-31
-5.76562e-29
-9.99611e-32
-1.39579e-29
1.50944e-31
3.20666e-31
1.73284e-30
7.26918e-30
2.38445e-28
7.45129e-28
1.46246e-26
3.7344e-26
2.96119e-25
6.72469e-25
2.09478e-24
4.44797e-24
5.97504e-24
1.20319e-23
9.90912e-24
1.80232e-23
1.32763e-23
2.11769e-23
9.94878e-24
1.67043e-23
3.70746e-24
7.96405e-24
2.28883e-24
2.26496e-24
8.68071e-24
3.61305e-24
2.81518e-22
7.15663e-23
6.42412e-21
1.39772e-21
1.12613e-19
2.20668e-20
1.48195e-18
2.94281e-19
1.34456e-17
2.8167e-18
8.92683e-17
1.87245e-17
1.79527e-16
7.65555e-16
-1.21491e-29
-1.76025e-27
-1.68103e-31
-1.5628e-29
-7.59734e-32
-5.46857e-30
4.14157e-32
1.86095e-31
1.93501e-31
4.52012e-31
2.56148e-29
4.64754e-29
1.56937e-27
2.33768e-27
3.2617e-26
4.28309e-26
2.32935e-25
2.91836e-25
6.46364e-25
8.14164e-25
1.0453e-24
1.2448e-24
1.36552e-24
1.48533e-24
1.05206e-24
1.19931e-24
4.14928e-25
5.95957e-25
2.52867e-25
1.81561e-25
7.17434e-25
2.562e-25
2.28657e-23
4.71127e-24
5.2832e-22
9.46744e-23
1.00758e-20
1.76647e-21
1.74369e-19
3.98993e-20
2.1427e-18
6.28454e-19
1.76351e-17
5.19643e-18
4.40732e-17
1.805e-16
-5.93096e-30
-6.75704e-28
-6.44347e-32
-4.25365e-30
-3.32812e-32
-1.64504e-30
-2.76743e-34
-1.01559e-32
1.7267e-32
2.70294e-32
2.20495e-30
2.85901e-30
1.34447e-28
1.43957e-28
2.80257e-27
2.63366e-27
2.0151e-26
1.80773e-26
5.62059e-26
5.16286e-26
9.09439e-26
8.08503e-26
1.17261e-25
9.81201e-26
9.36622e-26
8.11016e-26
3.86727e-26
4.17553e-26
2.35383e-26
1.32497e-26
5.38896e-26
1.70627e-26
1.69749e-24
3.00346e-25
4.05702e-23
6.48546e-24
9.62042e-22
1.76943e-22
3.05271e-20
8.5426e-21
6.19729e-19
2.17993e-19
6.0911e-18
2.10985e-18
1.35702e-17
5.12316e-17
-2.51926e-30
-2.36179e-28
-2.38147e-32
-1.24027e-30
-1.06683e-32
-4.09774e-31
-6.31142e-34
-1.8204e-32
2.05297e-33
1.45032e-33
1.68257e-31
1.71916e-31
1.02217e-29
8.70996e-30
2.13296e-28
1.60168e-28
1.53581e-27
1.10503e-27
4.3141e-27
3.18856e-27
7.00949e-27
5.05474e-27
8.9702e-27
6.19753e-27
7.38996e-27
5.20478e-27
3.16697e-27
2.75578e-27
1.93088e-27
8.97049e-28
3.73883e-27
1.08923e-27
1.20028e-25
1.96146e-26
3.16811e-24
5.12596e-25
1.1547e-22
2.4424e-23
7.24766e-21
2.08462e-21
2.22416e-19
7.46742e-20
2.49351e-18
8.33832e-19
4.61684e-18
1.66867e-17
-9.56388e-31
-7.54413e-29
-8.89307e-33
-3.88784e-31
-2.7553e-33
-8.81314e-32
-2.97807e-34
-7.22642e-33
4.12965e-34
2.00812e-34
1.1824e-32
1.00848e-32
7.17791e-31
5.13523e-31
1.5007e-29
9.51624e-30
1.08196e-28
6.60443e-29
3.04718e-28
1.91671e-28
4.96366e-28
3.0558e-28
6.31129e-28
3.76385e-28
5.31575e-28
3.19027e-28
2.3461e-28
1.72411e-28
1.44901e-28
5.70772e-29
2.48538e-28
6.95402e-29
8.7191e-27
1.45296e-27
2.88625e-25
5.2779e-26
1.73214e-23
3.80106e-24
1.70139e-21
4.27897e-22
7.14215e-20
2.01261e-20
9.24695e-19
2.66185e-19
1.48432e-18
5.61798e-18
-3.30486e-31
-2.20888e-29
-3.25925e-33
-1.24749e-31
-6.02504e-34
-1.68873e-32
-9.32868e-35
-1.98829e-33
7.59875e-35
3.1538e-35
7.79174e-34
5.7739e-34
4.72017e-32
2.94547e-32
9.88816e-31
5.48696e-31
7.13788e-30
3.82249e-30
2.01353e-29
1.11314e-29
3.27879e-29
1.7793e-29
4.14205e-29
2.19304e-29
3.53816e-29
1.86685e-29
1.59682e-29
1.02296e-29
9.81464e-30
3.43319e-30
1.7419e-29
4.69881e-30
7.18826e-28
1.31011e-28
3.22728e-26
6.34454e-27
2.60945e-24
5.13005e-25
3.24433e-22
6.43057e-23
1.82128e-20
4.0492e-21
2.82876e-19
6.67318e-20
4.07219e-19
1.73863e-18
-1.04466e-31
-5.94206e-30
-1.12538e-33
-3.87821e-32
-1.16719e-34
-2.97485e-33
-2.27591e-35
-4.41657e-34
6.63364e-36
2.14533e-36
4.85199e-35
3.21964e-35
2.93138e-33
1.64586e-33
6.14781e-32
3.07253e-32
4.43738e-31
2.14217e-31
1.25138e-30
6.2422e-31
2.03399e-30
9.97415e-31
2.55343e-30
1.22586e-30
2.19636e-30
1.04353e-30
1.00779e-30
5.76222e-31
6.18033e-31
1.96154e-31
1.3758e-30
3.52988e-31
6.88295e-29
1.32353e-29
3.82177e-27
7.10752e-28
3.31421e-25
5.3291e-26
4.6182e-23
6.8299e-24
3.5342e-21
5.96453e-22
6.96784e-20
1.31314e-20
9.13409e-20
4.61058e-19
-2.99569e-32
-1.47119e-30
-3.54705e-34
-1.12362e-32
-2.09353e-35
-5.00023e-34
-4.61383e-36
-8.40673e-35
-3.51811e-38
-4.99164e-37
2.89964e-36
1.74823e-36
1.72487e-34
8.97458e-35
3.61541e-33
1.67464e-33
2.60556e-32
1.16523e-32
7.33549e-32
3.38752e-32
1.18774e-31
5.3936e-32
1.48196e-31
6.58697e-32
1.2758e-31
5.58414e-32
5.92325e-32
3.08877e-32
3.64195e-32
1.06867e-32
1.22182e-31
2.89085e-32
6.94351e-30
1.30722e-30
4.09549e-28
6.73165e-29
3.33014e-26
4.29969e-27
4.73813e-24
5.13159e-25
4.98943e-22
6.13103e-23
1.33462e-20
1.93234e-21
1.61149e-20
1.01098e-19
-7.75936e-33
-3.35699e-31
-1.00138e-34
-2.97906e-33
-3.62603e-36
-8.35414e-35
-8.03011e-37
-1.41728e-35
-1.38414e-38
-1.90923e-37
1.75288e-37
9.2428e-38
9.61467e-36
4.78407e-36
2.01095e-34
8.90334e-35
1.4444e-33
6.16675e-34
4.05125e-33
1.78321e-33
6.52204e-33
2.82001e-33
8.0867e-33
3.41024e-33
6.92724e-33
2.86726e-33
3.24028e-33
1.57912e-33
2.01357e-33
5.5893e-34
1.11105e-32
2.41119e-33
6.72469e-31
1.20922e-31
3.8267e-29
5.70803e-30
2.69645e-27
2.97214e-28
3.52286e-25
2.9173e-26
4.93212e-23
4.38274e-24
1.89754e-21
2.06181e-22
2.1532e-21
1.74508e-20
-1.82435e-33
-7.06639e-32
-2.52137e-35
-7.20935e-34
-6.2419e-37
-1.43132e-35
-1.22494e-37
-2.16455e-36
-2.93981e-39
-4.08102e-38
1.16401e-38
4.68604e-39
5.06426e-37
2.49811e-37
1.05491e-35
4.62865e-36
7.5359e-35
3.18365e-35
2.09994e-34
9.12986e-35
3.35259e-34
1.42937e-34
4.12978e-34
1.70574e-34
3.49872e-34
1.41641e-34
1.64296e-34
7.71868e-35
1.0436e-34
2.82978e-35
9.7243e-34
2.00651e-34
6.14524e-32
1.08853e-32
3.30822e-30
4.89487e-31
1.93716e-28
2.09351e-29
2.07085e-26
1.51645e-27
3.54325e-24
2.52582e-25
2.02149e-22
1.75895e-23
2.27379e-22
2.31092e-21
-3.90511e-34
-1.373e-32
-5.68166e-36
-1.59692e-34
-1.07234e-37
-2.52771e-36
-1.66285e-38
-3.0484e-37
-4.73429e-40
-6.87538e-39
8.9768e-40
2.44645e-40
2.51147e-38
1.27907e-38
5.20059e-37
2.35922e-37
3.68551e-36
1.60821e-36
1.01723e-35
4.56129e-36
1.60521e-35
7.04818e-36
1.96292e-35
8.27251e-36
1.63387e-35
6.75633e-36
7.68207e-36
3.62025e-36
5.06498e-36
1.40366e-36
8.11674e-35
1.67515e-35
5.38281e-33
9.80241e-34
2.84707e-31
4.49853e-32
1.42412e-29
1.74571e-30
1.15144e-27
9.36657e-29
2.1816e-25
1.58228e-26
1.81278e-23
1.49472e-24
2.19607e-23
2.49482e-22
-7.56296e-35
-2.46385e-33
-1.14744e-36
-3.24075e-35
-1.80113e-38
-4.50089e-37
-2.03566e-39
-4.01885e-38
-6.28958e-41
-9.96804e-40
7.40776e-41
2.25217e-41
1.16752e-39
6.38776e-40
2.40348e-38
1.18063e-38
1.68552e-37
7.97084e-38
4.59217e-37
2.23153e-37
7.13805e-37
3.39513e-37
8.65669e-37
3.90778e-37
7.03068e-37
3.12702e-37
3.31025e-37
1.63794e-37
2.31272e-37
6.92214e-38
6.35696e-36
1.35402e-36
4.46106e-34
8.4812e-35
2.44185e-32
4.15842e-33
1.15958e-30
1.68823e-31
7.44496e-29
8.06693e-30
1.47482e-26
1.36165e-27
1.60824e-24
1.4513e-25
2.1318e-24
2.43312e-23
-1.31125e-35
-4.08779e-34
-2.06197e-37
-6.0177e-36
-2.85806e-39
-7.80491e-38
-2.27386e-40
-5.02087e-39
-7.1684e-42
-1.29485e-40
5.52692e-42
9.82637e-42
5.03049e-41
3.22215e-41
1.03903e-39
5.77284e-40
7.20117e-39
3.87667e-39
1.93169e-38
1.07146e-38
2.94979e-38
1.60379e-38
3.54358e-38
1.80712e-38
2.78995e-38
1.41203e-38
1.32227e-38
7.19578e-39
9.99533e-39
3.39609e-39
4.43552e-37
9.77553e-38
3.28621e-35
6.42692e-36
1.91573e-33
3.39045e-34
9.7063e-32
1.58096e-32
5.99365e-30
8.45113e-31
1.22136e-27
1.42894e-28
1.44964e-25
1.42354e-26
1.89581e-25
2.15818e-24
-2.02952e-36
-6.28182e-35
-3.2789e-38
-1.02317e-36
-4.14708e-40
-1.27997e-38
-2.33512e-41
-5.99372e-40
-7.17408e-43
-1.54396e-41
-4.67393e-44
-8.43664e-43
1.9781e-42
1.49968e-41
4.16148e-41
2.84782e-41
2.8672e-40
1.82773e-40
7.57597e-40
5.01848e-40
1.13547e-39
7.43942e-40
1.35142e-39
8.21851e-40
1.02543e-39
6.25559e-40
4.92919e-40
3.09061e-40
4.04825e-40
1.61319e-40
2.56215e-38
5.81583e-39
1.97387e-36
3.90083e-37
1.23035e-34
2.18541e-35
7.06876e-33
1.18182e-33
4.93775e-31
7.71974e-32
1.00362e-28
1.24664e-29
1.11607e-26
1.0616e-27
1.27082e-26
1.54864e-25
-2.79997e-37
-8.96662e-36
-4.6005e-39
-1.59661e-37
-5.38646e-41
-1.95047e-39
-2.207e-42
-6.86269e-41
-6.39567e-44
-1.7184e-42
-2.1615e-44
-4.93891e-43
4.23331e-44