/*--------------------------------*- C++ -*----------------------------------*\
| =========                 |                                                 |
| \\      /  F ield         | OpenFOAM: The Open Source CFD Toolbox           |
|  \\    /   O peration     | Version:  2012                                  |
|   \\  /    A nd           | Website:  www.openfoam.com                      |
|    \\/     M anipulation  |                                                 |
\*---------------------------------------------------------------------------*/
FoamFile
{
    version     2.0;
    format      ascii;
    class       volScalarField;
    location    "0.65";
    object      p_rgh;
}
// * * * * * * * * * * * * * * * * * * * * * * * * * * * * * * * * * * * * * //

dimensions      [1 -1 -2 0 0 0 0];


internalField   nonuniform List<scalar> 
2268
(
528.434
527.589
529.126
533.864
543.536
558.87
578.924
600.187
620.709
641.281
662.631
684.75
707.246
729.675
751.67
772.532
791.298
807.319
818.389
821.542
824.417
847.307
882.032
528.067
526.759
528.109
532.726
542.235
557.549
577.944
599.616
620.352
641.012
662.355
684.506
707.069
729.569
751.584
772.539
791.703
808.8
820.494
820.562
815.991
835
876.612
526.802
525.163
526.476
530.685
539.666
554.817
575.902
598.475
619.685
640.53
662.037
684.294
706.905
729.427
751.363
772.123
791.381
808.743
824.589
820.578
810.944
821.29
872.301
525.197
523.207
524.28
527.767
535.857
550.748
572.94
596.91
618.856
639.953
661.627
684.045
706.778
729.429
751.466
772.102
791.292
808.863
824.186
831.463
815.941
825.156
874.854
523.789
521.291
521.834
524.35
531.25
546.26
569.897
595.21
617.904
639.345
661.215
683.812
706.692
729.577
751.922
772.521
791.739
809.542
825.184
836.156
834.668
850.259
885.503
522.545
519.846
519.205
520.467
527.595
543.187
567.59
593.488
616.517
638.545
660.903
683.631
706.653
729.844
752.73
773.24
792.558
810.679
827.15
841.057
852.995
865.921
895.331
521.376
519.967
517.661
519.173
525.817
541.873
566.062
591.399
614.174
637.049
660.291
683.47
706.683
730.251
753.967
774.207
793.625
811.996
829.207
845.144
860.416
876.514
903.7
509.58
493.604
476.495
467.066
475.98
500.822
546.496
587.731
611.217
635.129
659.537
683.236
706.84
731.262
754.886
775.328
794.916
813.478
831.272
848.725
866.523
886.171
916.216
852.354
801.445
900.189
1052.99
1163.45
1194.53
1252.41
1294.02
1126.52
702.967
410.978
300.692
276.015
279.096
334.529
577.221
1012.42
1254.81
1182.79
825.505
756.342
864.335
1033.28
1140.3
1188.1
1249.97
1303.28
1036.17
516.692
275.5
240.319
244.042
261.172
311.077
502.364
909.466
1214.95
1186.62
767.605
726.8
837.16
1008.84
1109.94
1156.18
1257.58
1221.69
635.03
222.945
157.413
152.519
154.051
161.789
186.351
291.395
659.867
1139.03
1185.12
743.156
706.119
819.515
977.505
1068.92
1117.01
1238.85
993.879
301.926
155.408
142.272
139.953
139.344
139.34
141.338
164.8
338.104
970.711
1171.39
745.616
736.903
813.478
942.502
1017.19
1066.78
1195.7
659.522
191.405
145.305
140.971
139.77
139.049
138.677
139.418
147.565
207.297
631.269
1137.12
833.278
808.968
817.094
903.205
947.986
995.503
1206.99
596.446
170.03
142.72
140.575
139.619
138.816
138.382
138.596
141.86
167.72
395.268
1082.78
951.167
856.563
824.769
855.866
844.35
888.181
1157.99
730.698
174.848
141.765
140.377
139.568
138.684
138.177
138.167
139.474
148.332
280.665
1003.35
962.48
887.612
828.53
791.656
588.26
647.436
1018.65
773.162
179.743
141.961
140.184
139.55
138.528
137.946
137.877
138.521
140.766
226.584
904.598
215.731
188.348
172.369
185.53
216.175
273.116
356.034
446.702
531.41
603.348
657.793
682.633
706.92
733.399
757.432
777.397
797.141
815.753
834.212
853.286
874.363
899.509
934.787
2.36851
2.08492
3.66559
20.3747
43.286
63.1385
72.9272
88.1953
135.354
219.653
338.313
466.624
566.29
662.079
758.753
782.641
801.48
818.608
836.706
856.943
880.089
909.623
949.848
2.08011
1.95475
1.84071
1.8581
1.83611
1.78786
1.76227
1.77646
1.80554
1.83309
5.30531
45.6525
102.18
188.977
306.599
455.075
557.338
624.973
715.685
789.961
833.211
880.094
952.764
1.90938
1.81558
1.72149
1.74881
1.7875
1.73962
1.69964
1.71929
1.78055
1.84946
1.91415
1.96734
2.08156
2.20874
2.28177
2.37554
28.8493
51.0842
91.628
163.551
239.596
327.04
578.717
1.81994
1.78119
1.74349
1.76195
1.7728
1.72764
1.70177
1.71009
1.75225
1.81612
1.88004
1.9602
2.05647
2.1627
2.27659
2.39677
2.5041
2.65587
2.7884
2.91663
3.06336
7.05541
260.004
1.75517
1.75075
1.73103
1.72302
1.72296
1.715
1.71565
1.73976
1.77445
1.81819
1.87543
1.94179
2.02298
2.12737
2.21457
2.2832
2.38618
2.56233
2.77709
3.08035
3.4651
4.93127
106.463
1.69786
1.69597
1.68664
1.68227
1.6834
1.68555
1.69467
1.71392
1.74197
1.78208
1.83323
1.89177
1.96268
2.04076
2.12509
2.20557
2.28817
2.57011
2.86049
3.00424
3.22076
3.91104
5.828
1.64308
1.6405
1.63762
1.63908
1.64338
1.64738
1.65949
1.68005
1.70921
1.74604
1.78799
1.8359
1.89179
1.95479
2.02316
2.09268
2.1613
2.28085
2.61134
2.88888
3.04689
3.01892
3.12288
1.58851
1.58718
1.58731
1.58971
1.59479
1.60258
1.61569
1.6349
1.66001
1.69089
1.72711
1.76876
1.8164
1.86881
1.9247
1.98209
2.04194
2.10534
2.21177
2.5789
2.88514
2.86666
2.92688
1.53317
1.53294
1.53446
1.53734
1.54302
1.55152
1.56399
1.5808
1.60222
1.62837
1.659
1.69357
1.73231
1.77458
1.81866
1.86435
1.91299
1.96635
2.02769
2.29102
2.67494
2.66451
2.82741
1.47716
1.47739
1.47955
1.48291
1.4887
1.4965
1.50749
1.5219
1.53996
1.56151
1.58616
1.61352
1.64333
1.67506
1.70774
1.74079
1.77529
1.81404
1.86015
2.0213
2.4429
2.38453
2.51539
1.42025
1.42083
1.42305
1.42627
1.43145
1.43827
1.44742
1.45903
1.4732
1.48973
1.50835
1.5287
1.55024
1.57221
1.59373
1.6142
1.63397
1.65524
1.69257
2.03077
2.18589
2.04986
1.93787
1.36245
1.36318
1.36514
1.36786
1.37203
1.37745
1.38446
1.39307
1.40329
1.41495
1.42772
1.44106
1.45431
1.46664
1.47709
1.48472
1.48906
1.49093
1.49273
1.76331
1.91637
1.73835
1.31151
1.30389
1.30456
1.30608
1.30812
1.31109
1.31487
1.31958
1.32518
1.33157
1.3385
1.34557
1.35217
1.35756
1.36075
1.36057
1.35562
1.34441
1.32616
1.29644
1.35074
1.49769
1.20119
0.722692
1.24474
1.24523
1.2462
1.24743
1.24912
1.25117
1.25357
1.25621
1.2589
1.26131
1.263
1.26331
1.2614
1.25617
1.24624
1.22982
1.20467
1.16828
1.11595
1.03577
0.916915
0.690718
0.270741
1.1852
1.18547
1.18585
1.1862
1.18659
1.18692
1.18708
1.18689
1.1861
1.18434
1.18109
1.17565
1.16712
1.15432
1.13573
1.10933
1.07247
1.02178
0.951513
0.850401
0.698581
0.447608
-0.0160133
1.12555
1.12556
1.12535
1.12484
1.12398
1.12267
1.12072
1.1179
1.11393
1.10839
1.10072
1.0902
1.07586
1.05648
1.03048
0.995769
0.949563
0.888202
0.805947
0.692653
0.529519
0.273956
-0.163683
1.06607
1.06582
1.06507
1.06373
1.06172
1.05888
1.05501
1.04983
1.04303
1.03416
1.02266
1.00777
0.988527
0.963705
0.931706
0.890472
0.837319
0.76866
0.679109
0.560474
0.397999
0.161242
-0.208813
1.00707
1.00658
1.00533
1.00323
1.00018
0.995986
0.990416
0.983178
0.973929
0.962226
0.947499
0.929015
0.905827
0.876734
0.840202
0.794278
0.736541
0.664059
0.571426
0.452829
0.300194
0.0901304
-0.198406
0.948822
0.948109
0.946418
0.943642
0.939679
0.934323
0.927312
0.918346
0.90707
0.89305
0.875728
0.854404
0.828198
0.795996
0.756375
0.707469
0.647038
0.574547
0.48232
0.368136
0.225874
0.0443701
-0.182966
0.891599
0.890656
0.888597
0.885236
0.880505
0.874182
0.865999
0.855647
0.842769
0.826959
0.807674
0.784241
0.755881
0.721666
0.680386
0.630228
0.569646
0.496763
0.408093
0.300675
0.170763
0.0126618
-0.175856
0.835633
0.834417
0.832094
0.82822
0.82288
0.815786
0.806696
0.795289
0.781216
0.764161
0.743552
0.718712
0.68904
0.653686
0.611583
0.561407
0.501742
0.430938
0.346862
0.247231
0.129712
-0.00888037
-0.169506
0.781037
0.779623
0.777135
0.772736
0.766983
0.759312
0.749568
0.73744
0.722603
0.704682
0.683218
0.657654
0.627387
0.591715
0.549764
0.500491
0.442741
0.375258
0.296574
0.205159
0.0995826
-0.0218067
-0.158986
0.727951
0.726395
0.723669
0.719122
0.712946
0.704869
0.694683
0.682107
0.666827
0.648486
0.626675
0.600922
0.570697
0.535411
0.494371
0.446762
0.391682
0.32821
0.255353
0.17216
0.0778081
-0.0283888
-0.145926
0.676488
0.674841
0.671974
0.667265
0.660849
0.652521
0.642088
0.6293
0.613868
0.59547
0.573738
0.548271
0.518618
0.48429
0.444739
0.399349
0.347455
0.288383
0.221502
0.146246
0.0622266
-0.0307187
-0.131921
0.626721
0.625017
0.622075
0.617265
0.610736
0.602301
0.591796
0.579001
0.563666
0.545503
0.524195
0.499395
0.470728
0.437797
0.40017
0.357387
0.308985
0.254495
0.193525
0.125781
0.0511677
-0.0302034
-0.117589
0.578682
0.57694
0.573986
0.569148
0.562615
0.554199
0.543776
0.531156
0.516127
0.498438
0.477821
0.453985
0.426617
0.395399
0.36
0.320082
0.275323
0.225428
0.170173
0.109451
0.0433414
-0.0278955
-0.103506
0.532365
0.5306
0.527688
0.522895
0.516457
0.508174
0.497975
0.485689
0.471141
0.454122
0.434403
0.41175
0.385907
0.356619
0.323639
0.286724
0.245654
0.200268
0.15046
0.0962411
0.0377838
-0.0245714
-0.0901074
0.487729
0.485958
0.483132
0.478453
0.472198
0.464159
0.454311
0.442498
0.428578
0.412383
0.393728
0.372418
0.348252
0.321033
0.290578
0.256719
0.219319
0.178296
0.133628
0.0853947
0.0338186
-0.0207292
-0.0775964
0.444717
0.442958
0.440256
0.435749
0.429754
0.422058
0.412672
0.401448
0.38828
0.373034
0.355564
0.335716
0.313332
0.288269
0.260391
0.229587
0.195778
0.158934
0.119087
0.0763552
0.0309802
-0.0166734
-0.0660303
0.403249
0.40154
0.398977
0.394691
0.389023
0.381753
0.372917
0.362381
0.350068
0.335871
0.319682
0.301382
0.280852
0.257988
0.232696
0.204902
0.174571
0.141707
0.106372
0.0687046
0.0289404
-0.0125869
-0.0553826
0.363226
0.361613
0.359194
0.355173
0.349885
0.343106
0.334894
0.325124
0.313748
0.300685
0.285852
0.26916
0.250524
0.22987
0.207137
0.182282
0.155299
0.126213
0.0951047
0.0621111
0.0274509
-0.00858527
-0.0455814
0.324546
0.323058
0.320797
0.317077
0.312209
0.30597
0.298441
0.2895
0.279128
0.267261
0.253835
0.238788
0.22206
0.203602
0.18338
0.161378
0.137604
0.112101
0.0849498
0.0562803
0.0262872
-0.0047836
-0.03659
0.287102
0.285757
0.283668
0.280273
0.275854
0.270193
0.263393
0.255331
0.246011
0.23538
0.223392
0.210004
0.195178
0.178887
0.161116
0.141865
0.121155
0.0990335
0.07558
0.0509124
0.0252004
-0.00135155
-0.0284701
0.250757
0.249585
0.247671
0.244618
0.240672
0.235623
0.229585
0.222435
0.2142
0.204829
0.194291
0.182562
0.169618
0.15545
0.140055
0.123443
0.10564
0.0866954
0.0666863
0.0457192
0.0239381
0.0015083
-0.0213611
0.215366
0.214402
0.21267
0.209977
0.206522
0.20211
0.196857
0.190644
0.18351
0.175409
0.166324
0.156239
0.145147
0.133046
0.11994
0.105845
0.0907909
0.0748275
0.0580265
0.0404798
0.022304
0.00362723
-0.0153965
0.180801
0.180066
0.178534
0.176223
0.173276
0.169519
0.165065
0.159799
0.153774
0.146944
0.139303
0.130842
0.12156
0.111462
0.100555
0.0888604
0.0764095
0.0632483
0.0494375
0.0350505
0.0201793
0.00491977
-0.0106152
0.146935
0.146436
0.145123
0.143208
0.140783
0.137694
0.134048
0.129736
0.124822
0.119256
0.113041
0.106175
0.0986605
0.0905033
0.0817161
0.0723175
0.0623364
0.0518131
0.0407962
0.029342
0.0175228
0.00540741
-0.00692612
0.113622
0.113362
0.112273
0.110769
0.108877
0.106462
0.103631
0.100277
0.0964699
0.0921582
0.0873523
0.082053
0.0762645
0.0699948
0.0632558
0.0560611
0.0484344
0.0404109
0.0320301
0.0233325
0.0143699
0.00518781
-0.00416843
0.0807431
0.0807001
0.0798529
0.0787746
0.0774211
0.0756889
0.0736732
0.0712797
0.0685726
0.0655047
0.0620921
0.0583344
0.054236
0.0498037
0.0450475
0.0399803
0.0346204
0.0289907
0.0231193
0.0170351
0.0107708
0.00435425
-0.00218838
0.0482485
0.0483414
0.0477649
0.0471223
0.0463114
0.0452693
0.0440656
0.0426316
0.0410175
0.0391844
0.0371492
0.0349103
0.0324711
0.0298374
0.027015
0.024013
0.0208434
0.0175183
0.0140535
0.010469
0.00678236
0.00300659
-0.000845277
0.0159593
0.0161203
0.0158905
0.0156778
0.0154094
0.0150568
0.0146598
0.014179
0.0136442
0.0130346
0.0123606
0.0116203
0.0108143
0.00994546
0.00901601
0.00802869
0.00698889
0.00590109
0.00476932
0.0036
0.00239704
0.00116491
-9.43309e-05
965.035
981.693
995.568
1001.71
982.364
1000.66
1014.78
1023.74
1006.53
1026.53
1032.98
1029.43
885.503
927.279
732.358
652.103
725.741
727.78
286.433
142.656
362.045
288.513
117.07
105.902
6.93169
162.609
426.001
467.114
3.84598
5.03522
14.1197
168.52
3.20447
3.835
5.68829
9.60108
3.12847
3.50774
4.2217
5.63865
2.77423
3.06249
3.56343
4.40153
1.98125
2.18662
2.87478
4.76298
1.17648
1.46065
2.79585
6.28587
0.353397
0.425529
4.12979
18.8045
-0.250224
-0.408347
5.49901
17.8579
-0.579231
-0.555347
4.04489
6.06935
-0.709293
-1.03359
1.72431
-0.259055
-0.675942
-1.0224
-1.13584
-1.82274
-0.518803
-0.758379
-1.02348
-1.3081
-0.406759
-0.567969
-0.740544
-0.922148
-0.347683
-0.466891
-0.590911
-0.718264
-0.308439
-0.402804
-0.499563
-0.597738
-0.273097
-0.349707
-0.427842
-0.506832
-0.241049
-0.304346
-0.368687
-0.433594
-0.212194
-0.265211
-0.318913
-0.372944
-0.185841
-0.230648
-0.275872
-0.321226
-0.161867
-0.199983
-0.238304
-0.27659
-0.140224
-0.172805
-0.205431
-0.237899
-0.120761
-0.148714
-0.176609
-0.204273
-0.103278
-0.127329
-0.151278
-0.17497
-0.0875386
-0.108267
-0.128889
-0.149271
-0.0732946
-0.0911478
-0.108918
-0.126493
-0.0603668
-0.0756844
-0.0909502
-0.106075
-0.0487101
-0.0617514
-0.074766
-0.0876879
-0.0384046
-0.0493869
-0.0603569
-0.0712703
-0.0295584
-0.038682
-0.0478023
-0.0568942
-0.022173
-0.0296174
-0.0370694
-0.0445168
-0.0161054
-0.0220223
-0.0279593
-0.0339106
-0.0111403
-0.0156398
-0.0201657
-0.0247162
-0.00707105
-0.0102277
-0.0134133
-0.0166286
-0.00372133
-0.00558633
-0.00747562
-0.00939254
-0.00103601
-0.00164866
-0.00227281
-0.00291008
997.8
938.449
827.386
549.4
227.725
281.605
737.942
749.032
206.687
141.812
140.263
139.489
138.228
137.512
137.416
137.836
138.662
209.953
772.906
1026.4
973.918
691.704
135.378
59.523
189.441
529.921
622.337
440.86
146.033
139.766
139.202
137.733
137.011
136.922
137.358
137.896
205.164
716.009
1019
771.483
150.357
117.844
362.521
512.13
567.118
639.083
476.556
143.741
138.625
138.662
137.521
136.937
136.839
137.212
137.677
206.858
762.109
536.019
170.873
116.865
117.483
171.32
203.531
151.147
398.261
279.027
141.242
137.159
138.434
137.726
137.191
137.1
137.666
138.717
213.654
848.947
118.017
111.388
112.245
110.784
107.256
97.7301
89.0654
80.5623
100.494
130.717
136.329
138.353
138.246
137.741
137.075
137.9
140.566
242.072
948.336
107.921
112.521
112.319
111.233
108.66
106.104
101.095
95.4918
111.08
127.915
134.865
137.307
138.877
140.338
142.119
136.634
138.193
295.719
1063.83
480.528
475.027
133.98
112.003
110.499
109.031
107.48
108.391
116.557
126.05
131.764
136.225
163.714
396.796
633.99
403.161
124.787
500.942
1178.51
431.036
527.12
485.736
112.768
111.002
110.333
110.653
112.911
117.075
123.172
129.227
292.795
798.229
1219.63
1228.05
1094.29
219.046
835.487
1261.98
78.1084
458.94
555.292
426.527
111.082
110.692
110.862
112.622
116.428
136.295
380.685
949.461
1452.2
1400.7
1260.07
1228.5
648.32
1049.98
1295.39
9.63268
145.256
519.888
558.583
225.575
144.247
313.65
439.355
570.159
789.038
1012.4
996.739
821.462
1435.15
1326.21
940.093
786.252
548.571
1293.51
6.10126
12.1363
111.475
651.548
997.91
1055.79
1256.24
1306.68
1303.87
1268.98
713.775
203.449
131.998
1027.71
1412.64
896.763
529.987
569.833
1152.5
9.72995
60.0041
800.016
1315.43
1343.08
1349.86
1344.59
1328.97
779.24
87.8505
75.6598
73.1035
72.903
851.078
1522.91
1560.03
775.603
800.622
1689.38
14.993
120.097
949.831
1319.59
1348.13
1374.68
751.873
46.5067
22.6877
32.9718
67.7864
62.2548
38.0119
371.549
1457.49
1772.74
1826.34
1808.56
1930.95
26.4645
0.107186
-3.29302
51.0273
343.383
366.857
84.3238
10.8743
14.6223
43.1735
35.8358
8.00598
6.97744
1.8438
238.629
1687.68
2017.34
2054.7
2057.82
5.41008
-3.27988
-3.05568
-2.68391
-2.44982
-2.46902
-2.52691
1.33019
4.82594
-0.122679
-2.47355
-2.141
-1.72205
-2.29723
-1.37937
245.473
1598.68
2172.5
2119.48
-3.15008
-3.27692
-3.0336
-2.59309
-2.311
-2.31181
-2.42682
-2.56896
-2.76232
-2.89826
-2.98851
-3.04799
-3.03896
-3.04466
-2.54433
0.615951
58.5589
1182.18
1993.83
-2.91154
-3.05104
-2.82713
-2.47252
-2.18595
-2.14721
-2.34578
-2.65931
-2.93356
-3.17368
-3.39881
-3.58674
-3.59717
-3.32378
-2.73969
-1.57565
3.15366
136.67
1914.37
-2.27773
-2.61859
-2.53599
-2.29206
-2.0813
-2.06594
-2.26515
-2.587
-2.90498
-3.19458
-3.45751
-3.69545
-3.67776
-3.31728
-2.64664
-1.85592
-0.197884
70.5538
607.336
-1.66426
-2.02461
-2.09365
-2.02298
-1.94874
-1.97314
-2.11919
-2.35381
-2.62482
-2.93165
-3.18402
-3.34442
-3.27135
-2.98845
-2.46969
-1.87551
-1.20694
26.8877
115.498
-1.22791
-1.53406
-1.68364
-1.73433
-1.76518
-1.826
-1.93934
-2.09669
-2.27924
-2.46834
-2.68031
-2.81846
-2.71636
-2.4505
-2.03315
-1.69444
-1.21285
13.4507
124.411
-0.938355
-1.20098
-1.37462
-1.48262
-1.56181
-1.6473
-1.7471
-1.8622
-1.98623
-2.10791
-2.21403
-2.25975
-2.20079
-1.88353
-1.5643
-1.34362
-0.267391
9.6227
70.5431
-0.764856
-0.979902
-1.14784
-1.27295
-1.37285
-1.46467
-1.55548
-1.64612
-1.73222
-1.80513
-1.84956
-1.8401
-1.74606
-1.51752
-1.25573
-1.01673
0.0987838
3.55312
66.4235
-0.640369
-0.818083
-0.969676
-1.09333
-1.19624
-1.28664
-1.36913
-1.4443
-1.50775
-1.55315
-1.56598
-1.53044
-1.42631
-1.24436
-0.994475
-0.786707
-0.314329
1.3621
245.522
-0.542947
-0.690771
-0.823159
-0.936978
-1.03442
-1.11943
-1.19462
-1.25991
-1.31154
-1.34137
-1.33971
-1.29358
-1.192
-1.0293
-0.812555
-0.63636
-0.519769
1.19555
254.817
-0.463653
-0.586891
-0.700244
-0.800892
-0.889102
-0.966882
-1.03584
-1.0955
-1.14134
-1.16514
-1.15658
-1.10872
-1.01514
-0.871489
-0.685481
-0.505479
-0.421815
0.0235461
264.192
-0.397103
-0.500143
-0.596191
-0.683101
-0.760644
-0.830199
-0.893658
-0.95074
-0.995589
-1.01878
-1.01003
-0.963886
-0.879112
-0.754449
-0.60131
-0.0257645
-0.135417
-0.46463
273.211
-0.340414
-0.426826
-0.507765
-0.581634
-0.648241
-0.709184
-0.767764
-0.824537
-0.872059
-0.899299
-0.89523
-0.853366
-0.777056
-0.670072
-0.542645
0.0633569
-0.078712
-0.433865
281.848
-0.291821
-0.364529
-0.432609
-0.494814
-0.551018
-0.603428
-0.658021
-0.716512
-0.768589
-0.804078
-0.810959
-0.775418
-0.705003
-0.609679
-0.503663
0.0968625
-0.336883
-0.415617
284.12
-0.250056
-0.311548
-0.368978
-0.421314
-0.468232
-0.512889
-0.564771
-0.620334
-0.676371
-0.733659
-0.753365
-0.723254
-0.655935
-0.567813
-0.47459
-0.331776
-0.361762
-0.411564
139.639
-0.214076
-0.266466
-0.315341
-0.359761
-0.399153
-0.437423
-0.48185
-0.535978
-0.602372
-0.676545
-0.705741
-0.681539
-0.616737
-0.535617
-0.444089
-0.416898
-0.371353
-0.381835
170.788
-0.182875
-0.227886
-0.269996
-0.308413
-0.342532
-0.375759
-0.407557
-0.464684
-0.537217
-0.61172
-0.648126
-0.631612
-0.573016
-0.487843
-0.423235
-0.419867
-0.368336
-0.368436
504.063
-0.155471
-0.194386
-0.231046
-0.264897
-0.295572
-0.324834
-0.355672
-0.395275
-0.460569
-0.525837
-0.5637
-0.555519
-0.46613
-0.402028
-0.421933
-0.404123
-0.338691
-0.342581
523.233
-0.131039
-0.164707
-0.196729
-0.226738
-0.254703
-0.28115
-0.311115
-0.331429
-0.376702
-0.427103
-0.453833
-0.431197
-0.374056
-0.362261
-0.400863
-0.371149
-0.294123
-0.310564
538.895
-0.109055
-0.138032
-0.165886
-0.192391
-0.217665
-0.241942
-0.266882
-0.288592
-0.305496
-0.335346
-0.349978
-0.313796
-0.301719
-0.360859
-0.359838
-0.322619
0.105038
-0.168114
554.427
-0.0893685
-0.114072
-0.138109
-0.161295
-0.18377
-0.205665
-0.227431
-0.248741
-0.257291
-0.2668
-0.279765
-0.281234
-0.30104
-0.317353
-0.294459
-0.267015
0.529661
-0.116599
569.334
-0.0720273
-0.0928425
-0.113351
-0.133351
-0.152996
-0.17222
-0.191026
-0.208996
-0.223504
-0.230287
-0.233459
-0.239905
-0.249426
-0.249282
-0.231514
-0.211175
0.595331
0.15307
583.437
-0.0569634
-0.0742119
-0.0914597
-0.108438
-0.125305
-0.14193
-0.157827
-0.17279
-0.185798
-0.194583
-0.198824
-0.201673
-0.201337
-0.197395
-0.186359
-0.169681
0.157339
0.128017
583.993
-0.0439074
-0.0579748
-0.0720266
-0.0861192
-0.10027
-0.114473
-0.127809
-0.14031
-0.15182
-0.159969
-0.164417
-0.16586
-0.162353
-0.159726
-0.153729
-0.154596
-0.0937382
4.85223
121.801
-0.0323951
-0.0433248
-0.0544291
-0.0657737
-0.0773014
-0.0891469
-0.100312
-0.110983
-0.121364
-0.128814
-0.13375
-0.13518
-0.131756
-0.127446
-0.120671
-0.163598
-0.119313
-0.377236
-0.312697
-0.0220864
-0.0299847
-0.0382112
-0.0468856
-0.0559652
-0.0655167
-0.0748737
-0.0842118
-0.0937246
-0.101048
-0.107328
-0.110345
-0.111967
-0.112352
-0.0897611
-0.158299
-0.122713
-0.295053
-0.247031
-0.0126744
-0.0175652
-0.0229495
-0.0289879
-0.0357179
-0.0431138
-0.0508656
-0.0590932
-0.0677004
-0.0752114
-0.0829413
-0.088685
-0.0989416
-0.107718
-0.072897
-0.145508
-0.117247
-0.225745
-0.197774
-0.00401084
-0.00576725
-0.00816377
-0.0114459
-0.0157751
-0.0210715
-0.027281
-0.0345091
-0.0420379
-0.0491537
-0.0577057
-0.0659131
-0.0853343
-0.0488909
-0.0638935
-0.121286
-0.0995791
-0.180429
-0.144759
)
;

boundaryField
{
    leftWall
    {
        type            fixedFluxPressure;
        gradient        uniform 0;
        value           nonuniform List<scalar> 
50
(
528.434
528.067
526.802
525.197
523.789
522.545
521.376
509.58
215.731
2.36851
2.08011
1.90938
1.81994
1.75517
1.69786
1.64308
1.58851
1.53317
1.47716
1.42025
1.36245
1.30389
1.24474
1.1852
1.12555
1.06607
1.00707
0.948822
0.891599
0.835633
0.781037
0.727951
0.676488
0.626721
0.578682
0.532365
0.487729
0.444717
0.403249
0.363226
0.324546
0.287102
0.250757
0.215366
0.180801
0.146935
0.113622
0.0807431
0.0482485
0.0159593
)
;
    }
    rightWall
    {
        type            fixedFluxPressure;
        gradient        uniform 0;
        value           nonuniform List<scalar> 
50
(
1182.79
1186.62
1185.12
1171.39
1137.12
1082.78
1003.35
904.598
772.906
716.009
762.109
848.947
948.336
1063.83
1178.51
1261.98
1295.39
1293.51
1152.5
1689.38
1930.95
2057.82
2119.48
1993.83
1914.37
607.336
115.498
124.411
70.5431
66.4235
245.522
254.817
264.192
273.211
281.848
284.12
139.639
170.788
504.063
523.233
538.895
554.427
569.334
583.437
583.993
121.801
-0.312697
-0.247031
-0.197774
-0.144759
)
;
    }
    lowerWall
    {
        type            fixedFluxPressure;
        gradient        uniform 0;
        value           nonuniform List<scalar> 
62
(
528.434
527.589
529.126
533.864
543.536
558.87
578.924
600.187
620.709
641.281
662.631
684.75
707.246
729.675
751.67
772.532
791.298
807.319
818.389
821.542
824.417
847.307
882.032
882.032
876.612
872.301
874.854
885.503
895.331
903.7
916.216
965.035
981.693
995.568
1001.71
852.354
825.505
767.605
743.156
745.616
833.278
951.167
962.48
852.354
801.445
900.189
1052.99
1163.45
1194.53
1252.41
1294.02
1126.52
702.967
410.978
300.692
276.015
279.096
334.529
577.221
1012.42
1254.81
1182.79
)
;
    }
    atmosphere
    {
        type            totalPressure;
        rho             rho;
        psi             none;
        gamma           1;
        p0              uniform 0;
        value           nonuniform List<scalar> 
46
(
0
0
0
0
0
0
0
0
0
0
0
0
0
0
0
0
0
0
0
0
0
0
0
0
0
0
0
0
-5.04825e-05
-0.000871853
-0.00268996
-0.00587585
-0.0100318
-0.0153979
-0.0222186
-0.0290198
-0.0350824
-0.043953
-0.052037
-0.0800003
0
-0.0398646
-0.112983
-0.0862031
-0.213425
-0.0713676
)
;
    }
    defaultFaces
    {
        type            empty;
    }
}


// ************************************************************************* //
