/*--------------------------------*- C++ -*----------------------------------*\
| =========                 |                                                 |
| \\      /  F ield         | OpenFOAM: The Open Source CFD Toolbox           |
|  \\    /   O peration     | Version:  3.0.1                                 |
|   \\  /    A nd           | Web:      www.OpenFOAM.org                      |
|    \\/     M anipulation  |                                                 |
\*---------------------------------------------------------------------------*/
FoamFile
{
    version     2.0;
    format      ascii;
    class       volScalarField;
    location    "5e-05";
    object      maxKappa;
}
// * * * * * * * * * * * * * * * * * * * * * * * * * * * * * * * * * * * * * //

dimensions      [0 0 0 0 0 0 0];

internalField   nonuniform List<scalar> 
1000
(
3.10462e-14
3.10462e-14
2.55674e-14
4.24046e-14
6.71406e-14
3.28724e-14
1.27837e-14
2.4736e-14
1.27837e-14
6.00732e-14
5.30058e-14
1.64362e-14
1.48416e-13
2.73937e-14
4.9472e-14
1.64362e-14
1.461e-14
5.30058e-14
1.461e-14
9.89441e-14
1.27837e-14
6.71406e-14
2.82697e-14
4.59383e-14
9.18766e-14
7.77418e-14
7.30498e-15
7.30498e-15
4.24046e-14
1.27837e-14
3.53372e-14
3.10462e-14
2.55674e-14
4.24046e-14
1.35142e-13
2.93477e-12
8.545e-11
2.40613e-09
6.64304e-08
1.80018e-06
4.77695e-05
0.001209
0.024887
0.237393
0.644711
0.863795
0.948298
0.969445
0.969445
0.965318
0.957297
0.947982
0.937623
0.919603
0.876732
0.751068
0.398714
0.0590922
0.00297258
0.00011105
3.92127e-06
1.35718e-07
4.54759e-09
1.26599e-10
8.20185e-12
6.80402e-12
7.92432e-13
5.44663e-14
4.13296e-14
2.47977e-14
2.02914e-14
2.02914e-14
1.49515e-14
8.26591e-15
3.30637e-14
5.01945e-14
5.01945e-14
9.9191e-14
7.85262e-14
5.37284e-14
5.99279e-14
1.65318e-14
4.95955e-14
3.71966e-14
1.03324e-14
7.47577e-15
1.65318e-14
2.27313e-14
8.54374e-15
4.3396e-14
5.87382e-14
5.87382e-14
2.89307e-14
4.54625e-14
2.06648e-14
1.28156e-14
4.27187e-15
3.71966e-14
1.70875e-14
2.06648e-14
7.06743e-14
6.71406e-14
8.12755e-14
4.24046e-14
6.71406e-14
1.09575e-14
3.18035e-14
2.4736e-14
2.82697e-14
6.00732e-14
5.30058e-14
2.00887e-14
1.48416e-13
4.24046e-14
1.09545e-13
1.76686e-14
3.53372e-14
5.30058e-14
2.37412e-14
9.89441e-14
2.00887e-14
1.09545e-13
3.53372e-14
8.12755e-14
9.18766e-14
8.12755e-14
2.37412e-14
9.89441e-14
4.24046e-14
6.00732e-14
3.53372e-14
5.65395e-14
2.73937e-14
5.65395e-14
6.20923e-14
2.91469e-12
8.52254e-11
2.3954e-09
6.61564e-08
1.79293e-06
4.75833e-05
0.00120457
0.0248145
0.237127
0.644823
0.864024
0.948201
0.969397
0.969397
0.964753
0.956901
0.947794
0.937542
0.919576
0.876735
0.751104
0.398676
0.0590624
0.00297036
0.000110962
3.91945e-06
1.3596e-07
4.62357e-09
1.48155e-10
8.20185e-12
2.00035e-12
3.27866e-13
5.87382e-14
4.13296e-14
4.13296e-14
5.98062e-14
5.98062e-14
4.91265e-14
4.91265e-14
6.40608e-14
4.7529e-14
5.1662e-14
9.9191e-14
7.85262e-14
6.19943e-14
5.99279e-14
2.06648e-14
4.95955e-14
4.27187e-14
6.19943e-14
2.24273e-14
3.09972e-14
5.99279e-14
2.27313e-14
4.3396e-14
2.27313e-14
1.23989e-14
2.89307e-14
4.54625e-14
2.06648e-14
5.37284e-14
1.92234e-14
5.37284e-14
2.89307e-14
2.27313e-14
7.77418e-14
6.71406e-14
8.12755e-14
4.59383e-14
8.48092e-14
3.88709e-14
3.18035e-14
2.4736e-14
2.82697e-14
4.24046e-14
3.46986e-14
1.06012e-13
5.65395e-14
4.24046e-14
1.09545e-13
2.82697e-14
4.9472e-14
5.30058e-14
2.12023e-14
8.48092e-14
4.24046e-14
1.09545e-13
3.53372e-14
8.48092e-14
4.59383e-14
8.12755e-14
3.88709e-14
9.89441e-14
1.76686e-14
6.00732e-14
4.59383e-14
5.65395e-14
1.09575e-14
5.65395e-14
6.71406e-14
2.92199e-12
8.46318e-11
2.38549e-09
6.5885e-08
1.78605e-06
4.74126e-05
0.00120063
0.0247509
0.236879
0.644835
0.864174
0.948244
0.969408
0.969408
0.964722
0.956977
0.947931
0.93762
0.919609
0.876728
0.751069
0.39861
0.0590363
0.00296858
0.000110892
3.91767e-06
1.36064e-07
4.65899e-09
1.5646e-10
4.91799e-12
4.81489e-13
6.61273e-14
1.85983e-14
4.13296e-15
4.13296e-14
2.45633e-14
2.13593e-14
2.34953e-14
2.34953e-14
6.40608e-14
4.3396e-14
5.1662e-14
6.81938e-14
2.89307e-14
6.19943e-14
3.71966e-14
2.06648e-14
3.63109e-14
4.7529e-14
6.19943e-14
1.44653e-14
3.09972e-14
5.99279e-14
2.45633e-14
3.30637e-14
3.63109e-14
3.92631e-14
1.70875e-14
4.3396e-14
2.02914e-14
5.37284e-14
1.65318e-14
5.37284e-14
2.89307e-14
4.13296e-14
7.77418e-14
6.00732e-14
7.42081e-14
4.59383e-14
8.48092e-14
7.42081e-14
4.38299e-14
4.38299e-14
4.20036e-14
4.24046e-14
1.82624e-14
1.06012e-13
2.4736e-14
3.53372e-14
2.4736e-14
3.18035e-14
4.9472e-14
5.65395e-14
6.00732e-14
3.18035e-14
7.06743e-14
2.82697e-14
6.36069e-14
8.48092e-14
4.59383e-14
2.4736e-14
3.88709e-14
6.00732e-14
7.77418e-14
4.9472e-14
4.59383e-14
1.06012e-14
1.82624e-14
1.82624e-14
6.71406e-14
2.9019e-12
8.47268e-11
2.38236e-09
6.58249e-08
1.78481e-06
4.73894e-05
0.00120025
0.0247468
0.236859
0.644828
0.864219
0.9483
0.969446
0.969446
0.964778
0.957119
0.947985
0.937593
0.919553
0.876666
0.751016
0.398613
0.0590471
0.00296917
0.00011091
3.91842e-06
1.36132e-07
4.66828e-09
1.57829e-10
5.1711e-12
1.8369e-13
4.95955e-14
6.40608e-14
2.27313e-14
7.02603e-14
1.85983e-14
1.85983e-14
4.54625e-14
7.43932e-14
5.78614e-14
4.3396e-14
3.71966e-14
2.56312e-14
2.56312e-14
4.54625e-14
1.65318e-14
6.4078e-15
2.99031e-14
4.7529e-14
2.47977e-14
3.09972e-14
3.09972e-14
2.34953e-14
2.06648e-14
3.30637e-14
2.68642e-14
4.13296e-14
3.09972e-14
4.3396e-14
4.05828e-14
4.13296e-14
2.06648e-14
2.47977e-14
3.63109e-14
4.95955e-14
6.00732e-14
5.65395e-14
3.46986e-14
3.65249e-14
4.24046e-14
7.42081e-14
5.29611e-14
5.84398e-14
5.84398e-14
3.88709e-14
1.76686e-14
5.65395e-14
5.30058e-14
3.53372e-14
4.59383e-14
4.9472e-14
9.13122e-15
5.65395e-14
6.00732e-14
2.92199e-14
7.06743e-14
3.18035e-14
6.36069e-14
3.88709e-14
1.09575e-14
2.12023e-14
3.53372e-14
5.30058e-14
7.77418e-14
6.36069e-14
1.82624e-14
3.10462e-14
8.12755e-14
4.9472e-14
7.67023e-14
2.85077e-12
8.46282e-11
2.38222e-09
6.58166e-08
1.78467e-06
4.73859e-05
0.00120016
0.0247441
0.236828
0.644756
0.864169
0.948316
0.96948
0.96948
0.964865
0.957222
0.948071
0.937613
0.919529
0.876614
0.750942
0.398561
0.0590382
0.00296881
0.000110899
3.91805e-06
1.36116e-07
4.66741e-09
1.57696e-10
5.26935e-12
1.93302e-13
6.40608e-14
6.40608e-14
2.34953e-14
7.02603e-14
2.47977e-14
1.23989e-14
4.54625e-14
7.43932e-14
1.92234e-14
3.09711e-14
3.71966e-14
5.99279e-14
4.3396e-14
4.54625e-14
3.51301e-14
1.92234e-14
5.57949e-14
3.09972e-14
2.47977e-14
3.09972e-14
3.09972e-14
4.80585e-14
4.80585e-14
3.2039e-14
3.2039e-14
4.13296e-14
3.09972e-14
2.27313e-14
1.03324e-14
4.13296e-14
3.30637e-14
8.67921e-14
1.49515e-14
4.95955e-14
7.06743e-14
6.71406e-14
2.4736e-14
4.24046e-14
2.55674e-14
1.41349e-14
5.84398e-14
6.02661e-14
6.02661e-14
6.93973e-14
6.93973e-14
5.66136e-14
5.30058e-14
3.53372e-14
4.59383e-14
4.9472e-14
1.64362e-14
1.76686e-14
2.4736e-14
2.82697e-14
4.59383e-14
3.18035e-14
2.55674e-14
3.88709e-14
3.53372e-14
3.53372e-14
6.57448e-14
6.57448e-14
4.9472e-14
6.36069e-14
5.65395e-14
3.53372e-14
8.12755e-14
5.65395e-14
6.20923e-14
2.90921e-12
8.46391e-11
2.38185e-09
6.5812e-08
1.78454e-06
4.73824e-05
0.00120006
0.024742
0.236815
0.644751
0.86418
0.948329
0.969486
0.969486
0.964875
0.957251
0.948064
0.937614
0.919531
0.876606
0.750927
0.398543
0.0590326
0.00296847
0.000110887
3.91777e-06
1.36122e-07
4.66889e-09
1.58055e-10
5.39324e-12
1.30292e-13
7.85262e-14
5.99279e-14
3.63109e-14
3.63109e-14
5.57949e-14
6.61273e-14
3.30637e-14
3.71966e-14
2.89307e-14
1.70875e-14
9.0925e-14
7.23267e-14
4.3396e-14
3.51301e-14
9.5058e-14
6.19943e-14
5.57949e-14
2.45633e-14
6.19943e-14
3.71966e-14
2.66992e-14
5.57949e-14
1.81554e-14
1.03324e-13
2.27313e-14
1.85983e-14
3.71966e-14
2.06648e-14
2.27313e-14
6.19943e-14
3.30637e-14
8.67921e-14
4.7529e-14
8.67921e-14
7.06743e-14
6.71406e-14
2.4736e-14
4.24046e-14
4.38299e-14
4.74824e-14
7.42081e-14
4.56561e-14
4.01774e-14
6.36069e-14
2.73937e-14
6.71406e-14
2.12023e-14
6.00732e-14
4.9472e-14
7.06743e-14
4.59383e-14
7.77418e-14
6.36069e-14
6.00732e-14
4.59383e-14
3.88709e-14
2.12023e-14
3.88709e-14
3.53372e-14
1.06012e-13
3.53372e-14
2.82697e-14
2.92199e-14
8.12755e-14
5.65395e-14
4.56561e-14
5.47873e-14
5.65395e-14
1.29663e-13
2.99139e-12
8.43761e-11
2.38153e-09
6.57901e-08
1.7839e-06
4.73655e-05
0.00119967
0.0247365
0.236803
0.64478
0.864227
0.948347
0.96949
0.96949
0.964846
0.957135
0.947975
0.937597
0.919557
0.876663
0.750995
0.398562
0.0590271
0.00296785
0.000110861
3.91694e-06
1.36113e-07
4.67051e-09
1.58247e-10
5.09954e-12
2.24273e-13
7.85262e-14
3.92631e-14
3.09972e-14
4.54625e-14
5.57949e-14
6.61273e-14
2.56312e-14
4.3396e-14
2.89307e-14
2.89307e-14
9.0925e-14
7.23267e-14
3.2039e-14
1.38836e-14
9.5058e-14
7.02603e-14
3.51301e-14
2.27313e-14
6.19943e-14
3.71966e-14
3.52429e-14
5.57949e-14
8.54374e-15
1.03324e-13
2.06648e-14
1.85983e-14
3.71966e-14
3.4175e-14
3.4175e-14
6.19943e-14
3.92631e-14
2.89307e-14
4.7529e-14
8.67921e-14
4.59383e-14
2.12023e-14
5.65395e-14
2.4736e-14
3.46986e-14
3.46986e-14
7.42081e-14
4.38299e-14
4.01774e-14
1.461e-14
7.42081e-14
6.71406e-14
3.88709e-14
6.00732e-14
6.71406e-14
7.06743e-14
9.18766e-14
1.20146e-13
6.36069e-14
1.02478e-13
8.12755e-14
6.71406e-14
5.65395e-14
7.06743e-14
1.64362e-14
1.06012e-13
3.10462e-14
9.54104e-14
3.88709e-14
8.12755e-14
4.59383e-14
8.48092e-14
3.10462e-14
8.03548e-14
8.03548e-14
2.88912e-12
8.45222e-11
2.37977e-09
6.57429e-08
1.78251e-06
4.73267e-05
0.00119867
0.0247181
0.236709
0.644728
0.864203
0.948348
0.969547
0.969547
0.964848
0.957041
0.947988
0.937667
0.919598
0.87668
0.750981
0.398477
0.0589927
0.00296586
0.000110789
3.91472e-06
1.36058e-07
4.6697e-09
1.58487e-10
5.27149e-12
2.21069e-13
9.9191e-14
4.13296e-14
3.09972e-14
6.19943e-14
2.13593e-14
4.7529e-14
4.3396e-14
4.3396e-14
2.47977e-14
2.89307e-14
6.19943e-14
3.3107e-14
5.78614e-14
9.0925e-14
3.4175e-14
7.02603e-14
3.51301e-14
1.8185e-13
3.09972e-14
7.02603e-14
4.54625e-14
6.81938e-14
3.52429e-14
5.78614e-14
3.63109e-14
3.52429e-14
1.65318e-14
2.89307e-14
4.95955e-14
2.27313e-14
3.92631e-14
3.51301e-14
5.78614e-14
3.95148e-14
8.12755e-14
1.64362e-14
5.65395e-14
4.01774e-14
4.01774e-14
4.01774e-14
3.46986e-14
3.46986e-14
3.28724e-14
3.28724e-14
7.42081e-14
2.82697e-14
6.00732e-14
6.00732e-14
6.71406e-14
8.48092e-14
9.18766e-14
1.37815e-13
2.19149e-14
1.02478e-13
8.12755e-14
6.71406e-14
5.65395e-14
7.42081e-14
6.00732e-14
1.06012e-13
3.53372e-14
9.54104e-14
3.88709e-14
4.38299e-14
4.38299e-14
8.48092e-14
4.38299e-14
4.38299e-14
7.06743e-14
2.87816e-12
8.46757e-11
2.37853e-09
6.57173e-08
1.78179e-06
4.73085e-05
0.00119828
0.0247129
0.236703
0.644771
0.864267
0.94837
0.969551
0.969551
0.964812
0.956938
0.947912
0.937655
0.919633
0.876742
0.751057
0.398505
0.0589907
0.00296545
0.000110769
3.91393e-06
1.36034e-07
4.67008e-09
1.5823e-10
5.32382e-12
2.58448e-13
9.9191e-14
7.85262e-14
8.11655e-14
8.11655e-14
3.09972e-14
4.7529e-14
4.3396e-14
4.7529e-14
1.44653e-14
2.27313e-14
5.78614e-14
1.60195e-14
5.78614e-14
9.0925e-14
9.0925e-14
8.26591e-14
6.30101e-14
1.8185e-13
6.81938e-14
9.5058e-14
6.81938e-14
8.88586e-14
4.13296e-14
5.78614e-14
3.95148e-14
3.95148e-14
1.65318e-14
2.68642e-14
4.95955e-14
4.95955e-14
2.06648e-14
3.51301e-14
5.78614e-14
5.37284e-14
8.12755e-14
4.56561e-14
3.28724e-14
2.92199e-14
4.20036e-14
4.20036e-14
2.92199e-14
2.92199e-14
1.82624e-14
2.4736e-14
2.12023e-14
1.06012e-14
6.00732e-14
3.53372e-14
3.10462e-14
8.48092e-14
4.74824e-14
1.37815e-13
1.76686e-14
8.48092e-14
1.27837e-14
4.9472e-14
2.4736e-14
7.42081e-14
6.00732e-14
1.06012e-13
3.53372e-14
1.64362e-14
4.56561e-14
4.56561e-14
2.19149e-14
2.19149e-14
3.28724e-14
3.28724e-14
9.13122e-14
2.84346e-12
8.45113e-11
2.37866e-09
6.5711e-08
1.78159e-06
4.7303e-05
0.00119814
0.0247101
0.236686
0.644754
0.864259
0.948373
0.969551
0.969551
0.964817
0.957016
0.947964
0.937652
0.919608
0.876722
0.751031
0.39849
0.0589877
0.00296529
0.000110762
3.91372e-06
1.36027e-07
4.66973e-09
1.58311e-10
5.42527e-12
1.4204e-13
5.37284e-14
7.85262e-14
3.92631e-14
6.81938e-14
3.09972e-14
2.66992e-14
1.85983e-14
4.7529e-14
1.38836e-14
1.85983e-14
1.60195e-14
2.34953e-14
4.7529e-14
2.45633e-14
9.0925e-14
8.26591e-14
5.57949e-14
3.51301e-14
6.81938e-14
9.5058e-14
6.81938e-14
8.88586e-14
4.13296e-14
3.71966e-14
2.45633e-14
2.45633e-14
2.24273e-14
2.68642e-14
4.7529e-14
4.95955e-14
1.85983e-14
1.81554e-14
4.7529e-14
5.37284e-14
)
;

boundaryField
{
    sides1
    {
        type            calculated;
        value           uniform 0;
    }
    sides2
    {
        type            calculated;
        value           uniform 0;
    }
    empty
    {
        type            empty;
    }
}


// ************************************************************************* //
