/*--------------------------------*- C++ -*----------------------------------*\
| =========                 |                                                 |
| \\      /  F ield         | OpenFOAM: The Open Source CFD Toolbox           |
|  \\    /   O peration     | Version:  3.0.1                                 |
|   \\  /    A nd           | Web:      www.OpenFOAM.org                      |
|    \\/     M anipulation  |                                                 |
\*---------------------------------------------------------------------------*/
FoamFile
{
    version     2.0;
    format      ascii;
    class       volVectorField;
    location    "0.1";
    object      U;
}
// * * * * * * * * * * * * * * * * * * * * * * * * * * * * * * * * * * * * * //

dimensions      [0 1 -1 0 0 0 0];

internalField   nonuniform List<vector> 
50
(
(89.6238 -0.00155499 0)
(93.2142 -0.00155503 0)
(96.1059 -0.00155434 0)
(98.9141 -0.00155686 -9.91967e-15)
(102.123 -0.00155942 -1.0174e-14)
(105.512 -0.00154482 -1.05105e-14)
(109.121 -0.00155058 0)
(113.008 -0.00158923 0)
(117.193 -0.00153167 -1.15592e-14)
(121.712 -0.00150414 -1.19575e-14)
(126.612 -0.00166271 0)
(131.946 -0.00150892 -1.28398e-14)
(137.778 -0.00143416 0)
(144.185 -0.00182681 0)
(151.265 -0.00133063 -1.44251e-14)
(159.141 -0.00146703 0)
(167.969 -0.00200328 -1.57025e-14)
(177.957 -0.00101151 0)
(189.388 -0.00167704 0)
(202.663 -0.00147798 0)
(218.386 -0.0093607 0)
(237.551 0.0139128 0)
(261.997 0.105841 0)
(295.78 -0.381064 0)
(350.446 -0.705121 0)
(451.406 6.04361 0)
(522.418 -2.67563 0)
(562.568 -7.43765 0)
(588.307 -0.804566 0)
(609.276 0.607736 0)
(626.635 3.62659 0)
(641.634 4.88536 0)
(653.996 1.13384 0)
(665.684 0.312998 9.29489e-15)
(676.248 -2.61489 0)
(684.757 -3.58468 7.94021e-15)
(697.23 -1.58196 0)
(696.382 -0.282765 0)
(432.346 -8.4839 9.92142e-15)
(236.487 20.6183 0)
(216.01 0.0974227 1.21627e-14)
(206.522 -9.76517 1.13634e-14)
(197.28 -8.86578 0)
(190.178 -2.05987 0)
(182.695 4.64034 1.02137e-14)
(175.049 5.47142 0)
(169.395 1.44274 9.58692e-15)
(163.546 -2.47547 0)
(158.083 -1.25697 0)
(149.301 -0.545673 0)
)
;

boundaryField
{
    inlet
    {
        type            zeroGradient;
    }
    outlet
    {
        type            zeroGradient;
    }
    upperWall
    {
        type            slip;
    }
    lowerWall
    {
        type            slip;
    }
    frontAndBack
    {
        type            empty;
    }
}


// ************************************************************************* //
