# vtk DataFile Version 2.0
gauge_2
ASCII
DATASET POLYDATA
POINTS 43 double
0.2 0.0359992 0.005
0.2 0.0419991 0.005
0.2 0.047999 0.005
0.2 0.0607609 0.005
0.2 0.0735228 0.005
0.2 0.0862847 0.005
0.2 0.0990467 0.005
0.2 0.111809 0.005
0.2 0.124571 0.005
0.2 0.137332 0.005
0.2 0.150094 0.005
0.2 0.162856 0.005
0.2 0.175618 0.005
0.2 0.18838 0.005
0.2 0.201142 0.005
0.2 0.213904 0.005
0.2 0.226666 0.005
0.2 0.239428 0.005
0.2 0.25219 0.005
0.2 0.264952 0.005
0.2 0.277714 0.005
0.2 0.290476 0.005
0.2 0.303238 0.005
0.2 0.315999 0.005
0.2 0.328761 0.005
0.2 0.341523 0.005
0.2 0.354285 0.005
0.2 0.367047 0.005
0.2 0.379809 0.005
0.2 0.392571 0.005
0.2 0.405333 0.005
0.2 0.418095 0.005
0.2 0.430857 0.005
0.2 0.443619 0.005
0.2 0.456381 0.005
0.2 0.469143 0.005
0.2 0.481905 0.005
0.2 0.494666 0.005
0.2 0.507428 0.005
0.2 0.52019 0.005
0.2 0.532952 0.005
0.2 0.545714 0.005
0.2 0.558476 0.005
POINT_DATA 43
 FIELD attributes 1
alpha.water 1 43 float
1 1 1 1 0.999985 0.986262 0.671651 0.185402 4.63974e-05 3.64484e-05 3.64432e-05 4.35967e-05 0.000106084 0.00029353 0.000855621 0.00113454 0.000563761 7.20394e-05 2.48002e-12 2.05466e-12 7.30698e-13 1.6708e-13 3.69488e-14 1.18792e-14 5.16811e-15 2.39705e-15 9.63253e-16 3.24611e-16 9.80699e-17 2.73998e-17 7.15667e-18 1.79875e-18 3.36345e-19 4.29229e-20 3.84435e-21 2.50185e-22 9.74929e-24 2.21511e-25 3.28256e-27 2.89831e-29 1.1732e-31 1.69552e-34 3.35332e-38
