/*--------------------------------*- C++ -*----------------------------------*\
| =========                 |                                                 |
| \\      /  F ield         | OpenFOAM: The Open Source CFD Toolbox           |
|  \\    /   O peration     | Version:  2012                                  |
|   \\  /    A nd           | Website:  www.openfoam.com                      |
|    \\/     M anipulation  |                                                 |
\*---------------------------------------------------------------------------*/
FoamFile
{
    version     2.0;
    format      ascii;
    class       volScalarField;
    location    "0.63";
    object      p_rgh;
}
// * * * * * * * * * * * * * * * * * * * * * * * * * * * * * * * * * * * * * //

dimensions      [1 -1 -2 0 0 0 0];


internalField   nonuniform List<scalar> 
2268
(
101881
101884
101888
101894
101903
101915
101929
101945
101964
101985
102007
102033
102058
102086
102112
102141
102165
102194
102215
102241
102258
102275
102283
101881
101883
101887
101894
101903
101914
101928
101945
101963
101985
102007
102033
102058
102086
102112
102141
102165
102194
102216
102241
102259
102276
102284
101880
101882
101886
101893
101902
101913
101927
101943
101962
101984
102006
102032
102057
102086
102112
102142
102165
102195
102217
102244
102262
102280
102290
101878
101880
101885
101891
101900
101912
101926
101942
101961
101983
102005
102031
102057
102086
102112
102142
102166
102196
102218
102245
102263
102282
102292
101876
101878
101882
101889
101898
101909
101923
101939
101958
101980
102004
102030
102056
102085
102112
102142
102167
102197
102220
102249
102269
102291
102306
101874
101876
101880
101887
101896
101907
101921
101937
101956
101978
102002
102028
102055
102085
102112
102142
102167
102198
102221
102250
102271
102294
102307
101870
101872
101877
101883
101891
101902
101916
101933
101952
101975
101999
102027
102054
102084
102112
102143
102168
102200
102224
102256
102281
102309
102335
101859
101861
101868
101877
101886
101898
101913
101930
101950
101972
101996
102024
102052
102084
102112
102144
102169
102201
102225
102257
102280
102311
102332
102703
102005
102036
102013
102116
102268
102594
102603
102537
102278
102165
102016
101949
101899
101910
101944
102065
102587
103268
102442
101908
101981
101988
102100
102261
102673
102641
102520
102233
102134
101994
101933
101890
101894
101908
101997
102450
103055
102100
101880
101945
101919
102045
102244
102630
102637
102506
102205
102093
101937
101863
101812
101823
101815
101871
102257
102902
102110
101892
101939
101899
101943
102155
102653
102693
102493
102194
102096
101911
101844
101798
101800
101786
101800
102010
102670
102045
101897
101939
101898
101939
102038
102583
102624
102575
102351
102232
102038
101875
101792
101802
101786
101789
101869
102475
102184
101900
101938
101898
101937
102093
102587
102558
102438
102260
102185
102138
102078
101884
101797
101783
101775
101811
102309
102192
101893
101939
101898
101939
102207
102501
102475
102348
102104
102038
102057
102055
101920
101775
101780
101768
101785
102144
102255
101910
101945
101898
102048
102288
102483
102398
102113
101869
101796
101800
101822
101817
101772
101770
101769
101771
102090
101617
101623
101640
101665
101698
101733
101780
101830
101886
101943
101988
102020
102050
102083
102112
102145
102171
102205
102232
102267
102302
102345
102414
101331
101331
101331
101331
101337
101353
101376
101408
101460
101533
101639
101776
101918
102049
102115
102147
102172
102205
102230
102267
102289
102357
102377
101331
101331
101331
101331
101331
101331
101331
101331
101331
101334
101342
101372
101440
101558
101747
101919
102037
102190
102234
102264
102296
102340
102384
101331
101331
101331
101331
101331
101331
101331
101331
101331
101331
101331
101332
101333
101341
101365
101430
101480
101595
101768
101910
102059
102230
102304
101331
101331
101331
101331
101331
101331
101331
101331
101331
101331
101332
101332
101332
101332
101332
101332
101332
101333
101333
101333
101370
101469
101547
101331
101331
101331
101331
101331
101331
101331
101331
101331
101331
101331
101332
101332
101332
101332
101332
101332
101333
101333
101333
101333
101334
101334
101331
101331
101331
101331
101331
101331
101331
101331
101331
101331
101331
101332
101332
101332
101332
101332
101332
101332
101333
101333
101333
101334
101334
101331
101331
101331
101331
101331
101331
101331
101331
101331
101331
101331
101331
101331
101332
101332
101332
101332
101332
101333
101333
101333
101333
101334
101331
101331
101331
101331
101331
101331
101331
101331
101331
101331
101331
101331
101331
101332
101332
101332
101332
101332
101332
101332
101333
101333
101333
101331
101331
101331
101331
101331
101331
101331
101331
101331
101331
101331
101331
101331
101331
101332
101332
101332
101332
101332
101332
101332
101332
101332
101331
101331
101331
101331
101331
101331
101331
101331
101331
101331
101331
101331
101331
101331
101331
101331
101332
101332
101332
101332
101332
101332
101331
101331
101331
101331
101331
101331
101331
101331
101331
101331
101331
101331
101331
101331
101331
101331
101331
101331
101331
101332
101332
101331
101331
101331
101331
101331
101331
101331
101331
101331
101331
101331
101331
101331
101331
101331
101331
101331
101331
101331
101331
101331
101331
101331
101331
101331
101331
101330
101330
101330
101330
101330
101331
101331
101331
101331
101331
101331
101331
101331
101331
101331
101331
101331
101331
101331
101331
101331
101331
101330
101330
101330
101330
101330
101330
101330
101330
101330
101330
101331
101331
101331
101331
101331
101331
101331
101331
101331
101331
101331
101331
101331
101330
101330
101330
101330
101330
101330
101330
101330
101330
101330
101330
101330
101331
101331
101331
101331
101331
101331
101331
101331
101331
101331
101330
101330
101330
101330
101330
101330
101330
101330
101330
101330
101330
101330
101330
101330
101330
101330
101330
101331
101331
101331
101331
101330
101330
101330
101330
101330
101330
101330
101330
101330
101330
101330
101330
101330
101330
101330
101330
101330
101330
101330
101330
101330
101330
101330
101330
101330
101330
101330
101330
101330
101330
101330
101330
101330
101330
101330
101330
101330
101330
101330
101330
101330
101330
101330
101330
101330
101330
101330
101330
101330
101330
101330
101330
101330
101330
101330
101330
101330
101330
101330
101330
101330
101330
101330
101330
101330
101330
101330
101330
101330
101330
101330
101330
101330
101330
101330
101330
101330
101330
101330
101330
101330
101330
101330
101330
101330
101330
101330
101330
101330
101330
101330
101330
101330
101330
101330
101330
101329
101329
101329
101329
101329
101330
101330
101330
101330
101330
101330
101330
101330
101330
101330
101330
101330
101330
101330
101330
101330
101330
101330
101329
101329
101329
101329
101329
101329
101329
101329
101329
101329
101330
101330
101330
101330
101330
101330
101330
101330
101330
101330
101330
101330
101330
101329
101329
101329
101329
101329
101329
101329
101329
101329
101329
101329
101329
101330
101330
101330
101330
101330
101330
101330
101330
101330
101330
101330
101329
101329
101329
101329
101329
101329
101329
101329
101329
101329
101329
101329
101329
101329
101329
101330
101330
101330
101330
101330
101330
101330
101330
101329
101329
101329
101329
101329
101329
101329
101329
101329
101329
101329
101329
101329
101329
101329
101329
101329
101330
101330
101330
101330
101330
101330
101329
101329
101329
101329
101329
101329
101329
101329
101329
101329
101329
101329
101329
101329
101329
101329
101329
101329
101329
101329
101330
101329
101329
101328
101328
101328
101329
101329
101329
101329
101329
101329
101329
101329
101329
101329
101329
101329
101329
101329
101329
101329
101329
101329
101329
101329
101328
101328
101328
101328
101328
101328
101328
101328
101328
101329
101329
101329
101329
101329
101329
101329
101329
101329
101329
101329
101329
101329
101329
101328
101328
101328
101328
101328
101328
101328
101328
101328
101328
101328
101329
101329
101329
101329
101329
101329
101329
101329
101329
101329
101329
101329
101328
101328
101328
101328
101328
101328
101328
101328
101328
101328
101328
101328
101328
101329
101329
101329
101329
101329
101329
101329
101329
101329
101329
101328
101328
101328
101328
101328
101328
101328
101328
101328
101328
101328
101328
101328
101328
101328
101329
101329
101329
101329
101329
101329
101329
101329
101327
101327
101327
101327
101328
101328
101328
101328
101328
101328
101328
101328
101328
101328
101328
101328
101328
101329
101329
101329
101329
101329
101329
101327
101327
101327
101327
101327
101327
101327
101327
101328
101328
101328
101328
101328
101328
101328
101328
101328
101328
101328
101329
101329
101329
101328
101327
101327
101327
101327
101327
101327
101327
101327
101327
101327
101327
101328
101328
101328
101328
101328
101328
101328
101328
101328
101328
101328
101328
101327
101327
101327
101327
101327
101327
101327
101327
101327
101327
101327
101327
101327
101327
101328
101328
101328
101328
101328
101328
101328
101328
101328
101326
101326
101326
101327
101327
101327
101327
101327
101327
101327
101327
101327
101327
101327
101327
101327
101327
101327
101327
101327
101327
101327
101327
101326
101326
101326
101326
101326
101326
101326
101326
101327
101327
101327
101327
101327
101327
101327
101327
101327
101327
101327
101327
101327
101327
101327
101326
101326
101326
101326
101326
101326
101326
101326
101326
101326
101326
101326
101326
101327
101327
101327
101327
101327
101327
101327
101327
101327
101326
101326
101326
101326
101326
101326
101326
101326
101326
101326
101326
101326
101326
101326
101326
101326
101326
101326
101326
101326
101326
101326
101326
101326
101325
101325
101325
101325
101325
101325
101325
101325
101325
101325
101326
101326
101326
101326
101326
101326
101326
101326
101326
101326
101326
101326
101326
101325
101325
101325
101325
101325
101325
101325
101325
101325
101325
101325
101325
101326
101326
101326
101325
101325
101325
101325
101325
101325
101325
101325
102457
102530
102517
102412
102496
102510
102599
102572
102420
102443
102463
102491
102386
102393
102437
102438
101654
101686
101762
101777
101334
101334
101335
101334
101335
101335
101336
101337
101334
101334
101335
101337
101333
101333
101332
101333
101332
101331
101331
101331
101331
101330
101330
101330
101330
101330
101329
101329
101330
101330
101329
101329
101330
101330
101329
101329
101330
101330
101330
101330
101330
101330
101330
101330
101330
101330
101330
101330
101330
101330
101330
101330
101330
101330
101330
101330
101330
101330
101330
101330
101330
101330
101330
101330
101330
101330
101330
101330
101330
101330
101330
101330
101330
101330
101330
101330
101330
101330
101330
101329
101330
101329
101329
101329
101329
101329
101329
101329
101329
101329
101329
101329
101329
101329
101329
101329
101329
101329
101329
101329
101329
101329
101329
101329
101329
101329
101329
101329
101329
101329
101329
101328
101328
101328
101328
101328
101328
101328
101328
101328
101328
101328
101327
101327
101327
101327
101327
101327
101327
101327
101327
101327
101326
101326
101326
101326
101326
101326
101326
101326
101326
101326
101326
101326
101325
101325
101325
101325
102012
101920
101984
101980
102283
102397
102452
102155
101832
101759
101756
101755
101756
101758
101761
101759
101766
101763
102142
102472
102272
102476
102521
102589
102494
102293
101826
101755
101755
101754
101755
101754
101755
101758
101762
101764
101764
102236
102512
102507
102606
102598
102684
102587
101939
101755
101754
101754
101755
101755
101756
101756
101758
101760
101762
101762
102324
102533
102510
102598
102630
102756
102554
101776
101755
101755
101755
101755
101755
101756
101757
101759
101761
101761
101764
102436
101979
102085
102295
102419
102764
102216
101756
101756
101755
101755
101756
101756
101757
101758
101759
101760
101761
101775
102597
101353
101409
101621
102081
102596
101983
101755
101755
101756
101756
101756
101756
101757
101758
101759
101760
101760
101823
102760
101338
101345
101399
101930
102446
101907
101756
101756
101756
101756
101756
101756
101757
101758
101759
101759
101760
101965
102939
101343
101353
101367
101641
102189
102013
101755
101755
101756
101756
101757
101756
101757
101758
101759
101759
101759
102191
103121
101363
101409
101426
101459
101931
102398
101862
101756
101756
101757
101757
101758
101758
101758
101759
101759
101760
102432
103287
101357
101677
101843
101804
101840
102504
102549
101821
101755
101815
101846
101893
101994
101972
101906
101830
101918
102625
103393
101337
101652
102030
102107
102142
102602
102858
102803
102541
102671
102663
102438
102440
102472
102499
102259
102271
102660
103278
101329
101329
101433
102134
102674
102785
102864
102931
102953
102955
102937
102191
102176
102208
102446
102489
102295
102237
102996
101329
101328
101329
101330
101584
102338
102698
102794
102792
102796
102704
102394
102527
102914
103213
103354
103298
103063
103574
101328
101329
101329
101330
101330
101330
101409
101584
101604
101584
101822
102423
102783
102963
103248
103601
103641
103642
103645
101329
101329
101330
101330
101330
101330
101330
101330
101330
101330
101330
101330
101331
101371
101684
102873
103676
103719
103714
101330
101330
101330
101330
101330
101330
101329
101329
101329
101330
101330
101331
101331
101331
101331
101813
103731
103794
103781
101330
101330
101330
101330
101330
101329
101329
101329
101329
101329
101330
101330
101330
101330
101332
101465
102862
103884
103894
101330
101330
101330
101330
101330
101329
101329
101329
101329
101330
101330
101330
101330
101331
101331
101351
101788
103397
103804
101330
101330
101330
101330
101329
101329
101329
101329
101329
101329
101330
101330
101330
101330
101331
101335
101336
101653
102108
101330
101330
101330
101330
101329
101329
101329
101329
101329
101330
101330
101330
101330
101330
101329
101332
101334
101350
101361
101330
101330
101329
101329
101329
101329
101329
101329
101329
101329
101329
101329
101329
101329
101329
101335
101357
101586
101452
101330
101330
101329
101329
101329
101329
101329
101329
101329
101329
101329
101329
101329
101328
101330
101429
101717
102069
101714
101330
101329
101329
101329
101329
101329
101329
101329
101329
101329
101329
101329
101328
101328
101330
101505
102092
102098
101727
101330
101329
101329
101329
101329
101329
101329
101329
101329
101329
101329
101329
101328
101328
101330
101473
101840
102052
101646
101329
101329
101329
101329
101329
101329
101329
101329
101329
101328
101328
101328
101328
101327
101331
101341
101325
101375
101869
101329
101329
101329
101329
101329
101329
101329
101328
101328
101328
101328
101328
101327
101327
101331
101326
101326
101327
102790
101329
101329
101329
101329
101329
101329
101328
101328
101328
101328
101328
101328
101327
101327
101330
101326
101326
101336
102840
101329
101329
101329
101329
101329
101328
101328
101328
101328
101328
101328
101327
101327
101327
101328
101327
101326
101326
102878
101329
101329
101329
101329
101328
101328
101328
101328
101328
101328
101327
101327
101327
101327
101327
101327
101326
101326
102853
101329
101329
101329
101328
101328
101328
101328
101328
101327
101327
101327
101327
101327
101327
101327
101327
101325
101326
102904
101329
101329
101328
101328
101328
101328
101327
101327
101327
101327
101327
101327
101326
101326
101327
101327
101325
101326
102986
101329
101328
101328
101328
101327
101327
101327
101327
101327
101327
101327
101327
101326
101326
101326
101327
101325
101326
103014
101328
101328
101328
101327
101327
101327
101326
101326
101326
101326
101326
101326
101326
101326
101326
101326
101326
101326
101867
101328
101328
101327
101327
101326
101326
101326
101325
101326
101326
101326
101326
101326
101326
101326
101326
101326
101326
101398
101328
101327
101327
101326
101326
101326
101325
101325
101325
101325
101325
101326
101326
101326
101326
101326
101326
101326
101636
101327
101327
101326
101326
101325
101325
101324
101324
101324
101325
101325
101325
101326
101326
101326
101326
101327
101326
101897
101327
101326
101326
101325
101324
101324
101324
101324
101324
101324
101325
101325
101325
101326
101326
101326
101326
101326
101912
101326
101326
101325
101325
101324
101323
101323
101323
101324
101324
101325
101325
101325
101325
101326
101326
101326
101326
101925
101326
101326
101325
101325
101324
101323
101323
101324
101324
101324
101325
101325
101325
101325
101326
101325
101326
101325
101574
101326
101325
101325
101325
101324
101324
101323
101323
101324
101324
101325
101325
101325
101325
101325
101326
101326
101326
101345
101325
101325
101325
101325
101325
101325
101324
101324
101325
101325
101325
101325
101325
101325
101325
101325
101325
101325
101325
101325
101325
101325
101324
101324
101324
101324
101324
101324
101324
101325
101325
101325
101325
101325
101326
101325
101326
101327
)
;

boundaryField
{
    leftWall
    {
        type            zeroGradient;
    }
    rightWall
    {
        type            zeroGradient;
    }
    lowerWall
    {
        type            zeroGradient;
    }
    atmosphere
    {
        type            fixedValue;
        value           uniform 101325;
    }
    defaultFaces
    {
        type            empty;
    }
}


// ************************************************************************* //
