/*--------------------------------*- C++ -*----------------------------------*\
| =========                 |                                                 |
| \\      /  F ield         | OpenFOAM: The Open Source CFD Toolbox           |
|  \\    /   O peration     | Version:  2012                                  |
|   \\  /    A nd           | Website:  www.openfoam.com                      |
|    \\/     M anipulation  |                                                 |
\*---------------------------------------------------------------------------*/
FoamFile
{
    version     2.0;
    format      ascii;
    class       surfaceScalarField;
    location    "0.63";
    object      phi;
}
// * * * * * * * * * * * * * * * * * * * * * * * * * * * * * * * * * * * * * //

dimensions      [0 3 -1 0 0 0 0];
oriented        oriented;


internalField   nonuniform List<scalar> 
4432
(
7.33473e-07
-7.33473e-07
1.59814e-06
-8.64664e-07
2.2931e-06
-6.94964e-07
2.73153e-06
-4.38424e-07
3.00132e-06
-2.69789e-07
3.39096e-06
-3.89647e-07
3.63969e-06
-2.48727e-07
3.49351e-06
1.46186e-07
3.25159e-06
2.41918e-07
2.87262e-06
3.78967e-07
2.31426e-06
5.58364e-07
1.67019e-06
6.44067e-07
1.09307e-06
5.77128e-07
6.48092e-07
4.44974e-07
2.53482e-07
3.94612e-07
-1.19756e-07
3.7324e-07
-4.37543e-07
3.1779e-07
-5.82613e-07
1.45073e-07
-6.0734e-07
2.47297e-08
-4.19857e-07
-1.87479e-07
-1.56534e-07
-2.6332e-07
4.73009e-07
-6.29538e-07
4.73032e-07
7.20176e-07
-1.45365e-06
1.5871e-06
-1.73159e-06
2.30296e-06
-1.41082e-06
2.77476e-06
-9.10223e-07
3.06395e-06
-5.58981e-07
3.44173e-06
-7.67429e-07
3.6691e-06
-4.7609e-07
3.51905e-06
2.96234e-07
3.3163e-06
4.44666e-07
2.93136e-06
7.63908e-07
2.32916e-06
1.16056e-06
1.7057e-06
1.26753e-06
1.11833e-06
1.1645e-06
6.23919e-07
9.39384e-07
2.01973e-07
8.16559e-07
-1.71456e-07
7.46671e-07
-4.639e-07
6.10236e-07
-6.09594e-07
2.9077e-07
-7.10455e-07
1.25593e-07
-7.03178e-07
-1.94752e-07
-7.90911e-07
-1.75583e-07
-7.45959e-07
-6.74486e-07
-2.72895e-07
7.12529e-07
-2.16618e-06
1.60379e-06
-2.62285e-06
2.34848e-06
-2.15551e-06
2.87065e-06
-1.43239e-06
3.19435e-06
-8.82687e-07
3.54298e-06
-1.11606e-06
3.70393e-06
-6.37039e-07
3.53499e-06
4.65174e-07
3.30288e-06
6.76776e-07
2.8829e-06
1.18389e-06
2.29737e-06
1.74609e-06
1.71782e-06
1.84708e-06
1.15699e-06
1.72533e-06
6.43761e-07
1.45261e-06
1.90903e-07
1.26942e-06
-1.86885e-07
1.12446e-06
-4.33841e-07
8.57194e-07
-5.01246e-07
3.58179e-07
-5.16224e-07
1.40573e-07
-4.36377e-07
-2.74595e-07
-4.04576e-07
-2.07381e-07
-3.02888e-07
-7.76168e-07
-5.75753e-07
7.29007e-07
-2.89518e-06
1.63413e-06
-3.52798e-06
2.38688e-06
-2.90826e-06
2.96182e-06
-2.00732e-06
3.34338e-06
-1.26425e-06
3.68139e-06
-1.45406e-06
3.8036e-06
-7.59254e-07
3.68314e-06
5.85635e-07
3.47367e-06
8.86246e-07
3.04159e-06
1.61597e-06
2.43191e-06
2.35577e-06
1.77184e-06
2.50715e-06
1.10221e-06
2.39496e-06
4.89011e-07
2.06582e-06
1.29572e-08
1.74547e-06
-3.38372e-07
1.47579e-06
-5.50867e-07
1.06969e-06
-6.46143e-07
4.53458e-07
-6.89199e-07
1.83632e-07
-6.18153e-07
-3.45637e-07
-5.45238e-07
-2.80292e-07
-5.18549e-07
-8.02852e-07
-1.09427e-06
7.89641e-07
-3.68482e-06
1.67981e-06
-4.41815e-06
2.45535e-06
-3.6838e-06
3.09359e-06
-2.64556e-06
3.55645e-06
-1.72711e-06
3.86726e-06
-1.76487e-06
3.90321e-06
-7.95205e-07
3.76568e-06
7.23159e-07
3.48489e-06
1.16704e-06
2.96927e-06
2.13159e-06
2.37044e-06
2.9546e-06
1.74703e-06
3.13056e-06
1.11541e-06
3.02658e-06
5.37924e-07
2.64331e-06
4.62996e-08
2.2371e-06
-3.61955e-07
1.88405e-06
-5.76467e-07
1.2842e-06
-6.27371e-07
5.04365e-07
-6.34852e-07
1.91116e-07
-5.86294e-07
-3.94191e-07
-5.32036e-07
-3.34547e-07
-2.21778e-07
-1.1131e-06
-1.31603e-06
9.07232e-07
-4.59205e-06
1.71854e-06
-5.22946e-06
2.49659e-06
-4.46184e-06
3.19213e-06
-3.3411e-06
3.75391e-06
-2.2889e-06
4.07863e-06
-2.08958e-06
4.11834e-06
-8.34922e-07
4.0853e-06
7.56198e-07
3.84476e-06
1.40759e-06
3.27081e-06
2.70553e-06
2.57556e-06
3.64986e-06
1.80775e-06
3.89837e-06
9.82876e-07
3.85146e-06
2.72872e-07
3.35331e-06
-2.25188e-07
2.73516e-06
-6.11636e-07
2.2705e-06
-7.83401e-07
1.45597e-06
-8.23566e-07
5.44533e-07
-7.87995e-07
1.55547e-07
-7.37593e-07
-4.44589e-07
-6.38485e-07
-4.33651e-07
-2.66893e-07
-1.48469e-06
-1.58292e-06
1.02935e-06
-5.62141e-06
1.81468e-06
-6.01478e-06
2.60305e-06
-5.25021e-06
3.38789e-06
-4.12594e-06
4.06203e-06
-2.96304e-06
4.35993e-06
-2.38748e-06
4.34494e-06
-8.19929e-07
4.25508e-06
8.46058e-07
3.8425e-06
1.82017e-06
3.14872e-06
3.39932e-06
2.46609e-06
4.33249e-06
1.76384e-06
4.60063e-06
1.02533e-06
4.58997e-06
3.78982e-07
3.99966e-06
-1.54987e-07
3.26913e-06
-6.81199e-07
2.79671e-06
-9.21844e-07
1.69662e-06
-9.26023e-07
5.48715e-07
-8.27654e-07
5.71801e-08
-8.64298e-07
-4.07942e-07
-8.82095e-07
-4.15849e-07
-1.01353e-07
-2.26543e-06
-1.68426e-06
1.14882e-06
-6.77015e-06
1.95948e-06
-6.82537e-06
2.77558e-06
-6.06624e-06
3.64132e-06
-4.99164e-06
4.40546e-06
-3.72714e-06
4.73469e-06
-2.71668e-06
4.8298e-06
-9.15029e-07
4.81492e-06
8.60947e-07
4.37035e-06
2.26474e-06
3.6691e-06
4.10056e-06
2.84146e-06
5.16013e-06
1.84202e-06
5.60007e-06
8.1824e-07
5.61375e-06
2.86126e-08
4.78928e-06
-4.80593e-07
3.77834e-06
-9.81679e-07
3.2978e-06
-1.17734e-06
1.89228e-06
-1.12259e-06
4.93966e-07
-9.27671e-07
-1.3774e-07
-9.54515e-07
-3.81095e-07
-8.91449e-07
-4.7891e-07
6.52496e-08
-3.22212e-06
-1.61901e-06
-0.000121514
0.000121383
-0.000145756
2.43908e-05
-0.000150962
5.31882e-06
-0.000146372
-4.47797e-06
-0.000140108
-6.15025e-06
-0.000128053
-1.18597e-05
-0.000115583
-1.2292e-05
-0.000111889
-3.56533e-06
-0.00011942
7.60102e-06
-0.000132619
1.33108e-05
-0.000143178
1.0644e-05
-0.00015085
7.78672e-06
-0.000155709
4.97223e-06
-0.000157954
2.37573e-06
-0.00015788
7.2834e-08
-0.000154316
-3.41974e-06
-0.000136373
-1.7744e-05
-9.2133e-05
-4.39541e-05
-9.20159e-05
-8.46229e-05
0.000206188
-9.40086e-05
3.41992e-05
-0.000100968
1.25776e-05
-9.32038e-05
-1.20796e-05
-8.60352e-05
-1.3217e-05
-7.51897e-05
-2.2509e-05
-7.02118e-05
-1.70242e-05
-8.1288e-05
7.71061e-06
-9.82098e-05
2.45999e-05
-0.000111927
2.71709e-05
-0.000121501
2.03713e-05
-0.00012796
1.44519e-05
-0.000131905
9.11074e-06
-0.000133461
4.11884e-06
-0.000133134
-4.92729e-08
-0.000130603
-5.73644e-06
-0.000107515
-4.05693e-05
-6.77348e-05
-8.35264e-05
-0.000159661
-4.0318e-05
0.000246792
-5.1828e-05
4.61453e-05
-8.1863e-05
4.29982e-05
-6.73454e-05
-2.62018e-05
-4.7171e-05
-3.31698e-05
-1.54805e-05
-5.41117e-05
1.45387e-05
-4.70093e-05
1.3764e-05
8.66655e-06
-1.09994e-05
4.98728e-05
-3.88106e-05
5.55215e-05
-6.67916e-05
4.87663e-05
-9.99214e-05
4.8032e-05
-0.000127177
3.68521e-05
-0.000138068
1.55481e-05
-0.000140439
2.88202e-06
-0.000133045
-1.25849e-05
-9.95413e-05
-7.34714e-05
-5.08467e-05
-0.000131921
-0.000210455
8.13032e-06
0.000238907
-4.87622e-05
0.000103497
-8.99055e-05
8.44275e-05
-8.49938e-05
-3.08226e-05
-4.64241e-05
-7.12669e-05
-3.98801e-06
-9.63578e-05
2.42898e-05
-7.52574e-05
5.81034e-05
-2.51192e-05
9.58769e-05
1.22951e-05
0.000112965
3.88484e-05
0.000108957
5.32249e-05
9.22366e-05
6.5528e-05
5.54931e-05
7.41661e-05
2.03628e-06
6.95289e-05
-6.76455e-05
7.3092e-05
-0.000132213
5.25167e-05
-0.000103449
-0.000101479
-4.30252e-05
-0.000191834
-0.00025344
1.07622e-05
0.000228752
-7.37154e-05
0.000188436
-4.87602e-05
5.97686e-05
-1.61826e-05
-6.31081e-05
-1.58023e-05
-7.13359e-05
2.3648e-05
-0.00013551
3.98459e-05
-9.14194e-05
6.47563e-05
-5.00279e-05
9.23756e-05
-1.532e-05
0.000113044
1.81908e-05
0.000125369
4.096e-05
0.000138222
5.29575e-05
0.000152337
6.0708e-05
0.000154261
6.8303e-05
0.000100468
0.000127465
-3.80506e-05
0.000191496
-8.84968e-05
-5.04015e-05
-3.31271e-05
-0.000246585
-0.000286521
5.82033e-06
0.000222948
-6.08531e-05
0.000255585
-1.17766e-05
1.0982e-05
2.72718e-05
-0.000101869
3.16353e-05
-7.54212e-05
3.88277e-05
-0.000142509
5.04946e-05
-0.00010308
7.37455e-05
-7.32771e-05
9.49192e-05
-3.64887e-05
0.000107981
5.14295e-06
0.000118752
3.02017e-05
0.000128698
4.30238e-05
0.000135111
5.43908e-05
0.000138475
6.55232e-05
0.00016178
0.000104831
6.06306e-05
0.000293097
-5.76535e-05
6.84324e-05
-2.37179e-05
-0.000279876
-0.000310228
4.15959e-06
0.000219009
2.89783e-05
0.000231238
5.67483e-05
-1.64529e-05
4.7734e-05
-9.25712e-05
5.75308e-05
-8.48518e-05
4.81096e-05
-0.000133014
5.65106e-05
-0.000111478
7.34613e-05
-9.0226e-05
9.07037e-05
-5.3683e-05
0.000103949
-7.82587e-06
0.000114635
1.97795e-05
0.000123956
3.3894e-05
0.000129449
4.9086e-05
0.000130495
6.5008e-05
0.000137304
9.8778e-05
8.28483e-05
0.00034802
-1.60152e-05
0.000167795
-1.52142e-05
-0.000280045
-0.000325311
5.91554e-06
0.000213287
6.72077e-05
0.00017038
8.5731e-05
-3.46033e-05
5.89989e-05
-6.55202e-05
5.70714e-05
-8.26072e-05
5.09646e-05
-0.000126866
5.83184e-05
-0.00011883
7.21896e-05
-0.000104093
8.7824e-05
-6.90392e-05
0.000101351
-2.07336e-05
0.000112444
9.37879e-06
0.000122565
2.44586e-05
0.00012729
4.50157e-05
0.000125649
6.73266e-05
0.000114483
0.000110645
8.36797e-05
0.000379345
2.09631e-05
0.000230995
-5.76708e-06
-0.000252653
-0.000330836
2.76076e-06
-9.53932e-06
4.6676e-06
-8.73997e-06
6.61295e-06
-8.01875e-06
8.65662e-06
-7.04096e-06
1.04743e-05
-5.54832e-06
1.14466e-05
-3.68981e-06
1.20747e-05
-1.54213e-06
1.20193e-05
9.18126e-07
1.05973e-05
3.68776e-06
8.6196e-06
6.07864e-06
6.30749e-06
7.47232e-06
4.0398e-06
7.86776e-06
2.2194e-06
7.43415e-06
8.16767e-07
6.19192e-06
-4.31191e-07
5.0263e-06
-2.15184e-06
5.01845e-06
-3.03421e-06
2.77466e-06
-2.32676e-06
-2.13483e-07
-1.03827e-06
-1.42622e-06
-3.58252e-07
-1.06111e-06
5.534e-07
-1.39056e-06
-1.94172e-06
-7.26981e-07
4.03352e-06
-7.59424e-06
-8.79703e-06
-7.32844e-07
-1.55417e-05
-1.98578e-06
-2.31258e-05
-4.24844e-07
-2.3745e-05
-6.41166e-06
-1.37059e-05
-1.55728e-05
-6.31237e-06
-1.10697e-05
-1.69342e-07
-7.67377e-06
3.8292e-06
-3.06544e-06
6.03631e-06
1.50184e-06
6.75605e-06
5.38361e-06
6.16051e-06
8.08911e-06
5.29593e-06
8.74188e-06
4.48626e-06
8.24672e-06
2.5456e-06
8.13317e-06
-5.18152e-07
8.09005e-06
-3.87958e-06
8.37988e-06
-5.15201e-06
4.0471e-06
-4.39254e-06
-9.7295e-07
-3.12088e-06
-2.69788e-06
-2.56359e-06
-1.61839e-06
-6.65327e-07
-3.28881e-06
-3.60176e-06
2.20947e-06
6.17235e-06
-5.74058e-06
-2.02609e-06
1.30349e-06
-4.15863e-06
1.57019e-07
-6.05724e-06
1.48404e-06
-8.42804e-06
-4.03054e-06
-1.19617e-05
-1.20289e-05
-1.6809e-05
-6.21198e-06
-2.35215e-05
-9.50956e-07
-3.1597e-05
5.0236e-06
-3.39978e-05
3.91742e-06
-2.92813e-05
6.90438e-07
-2.58216e-05
4.6643e-06
-2.12959e-05
4.26798e-06
-1.65334e-05
3.54145e-06
-1.27869e-05
4.43968e-06
-9.29134e-06
4.62627e-06
-5.17137e-06
4.27231e-06
3.95652e-08
-1.16013e-06
2.12514e-06
-3.05797e-06
1.85457e-06
-2.42724e-06
2.41084e-06
-2.17456e-06
4.12171e-06
-4.99963e-06
6.76952e-06
-4.38314e-07
1.72062e-06
1.12215e-05
1.24209e-06
7.16371e-08
1.41016e-06
-7.98904e-10
3.0307e-06
-1.26231e-07
4.99729e-08
-1.03954e-06
-9.77841e-06
-2.19034e-06
-1.74946e-05
1.5146e-06
-2.38378e-05
5.4027e-06
-3.03207e-05
1.1517e-05
-3.73683e-05
1.09759e-05
-4.30161e-05
6.34949e-06
-4.79167e-05
9.57604e-06
-5.96165e-05
1.5982e-05
-6.24609e-05
6.40886e-06
-5.02549e-05
-7.73314e-06
-4.00182e-05
-5.56094e-06
-3.82472e-05
2.55192e-06
-3.42424e-05
-5.12916e-06
-1.96897e-05
-1.76038e-05
-6.41413e-06
-1.57201e-05
4.42469e-06
-1.30346e-05
1.29929e-05
-1.35871e-05
1.64329e-05
-3.87749e-06
-1.37681e-07
1.82937e-05
-3.49868e-06
3.58051e-06
-6.65366e-06
3.1644e-06
-1.00154e-05
3.24577e-06
-1.32858e-05
2.24112e-06
-1.63092e-05
8.43291e-07
-1.83824e-05
3.59825e-06
-1.86277e-05
5.65839e-06
-1.70258e-05
9.92556e-06
-1.84313e-05
1.2392e-05
-2.38218e-05
1.17508e-05
-2.77425e-05
1.35076e-05
-3.94077e-05
2.76582e-05
-5.38512e-05
2.08646e-05
-6.3592e-05
2.01871e-06
-7.44778e-05
5.33658e-06
-9.31946e-05
2.12884e-05
-0.000101325
3.01403e-06
-9.31242e-05
-2.57924e-05
-8.8665e-05
-2.01664e-05
-6.81642e-05
-3.35104e-05
-3.39615e-05
-4.77584e-05
-1.17151e-05
-2.61208e-05
-1.94574e-05
7.59089e-06
-1.26781e-06
4.85847e-06
-3.09053e-06
4.99728e-06
-5.14105e-06
5.30646e-06
-8.64195e-06
5.75224e-06
-1.40273e-05
6.23885e-06
-1.91735e-05
8.75485e-06
-2.40889e-05
1.05842e-05
-2.76251e-05
1.34724e-05
-2.91361e-05
1.39137e-05
-3.09663e-05
1.35918e-05
-3.05687e-05
1.31209e-05
-2.54015e-05
2.25021e-05
-2.66895e-05
2.21642e-05
-3.83312e-05
1.36718e-05
-5.23722e-05
1.93894e-05
-6.51101e-05
3.4039e-05
-7.88315e-05
1.67482e-05
-0.000105227
6.15349e-07
-0.000143663
1.82851e-05
-0.000180185
3.02629e-06
-0.000208764
-1.91652e-05
-0.000220081
-1.47859e-05
-3.78085e-05
-0.000201711
-2.7956e-06
7.66414e-06
-5.53539e-06
7.74715e-06
-8.17556e-06
7.95674e-06
-1.06931e-05
8.27998e-06
-1.29978e-05
8.55368e-06
-1.46972e-05
1.04646e-05
-1.59815e-05
1.18789e-05
-1.69231e-05
1.44244e-05
-1.88218e-05
1.5823e-05
-2.34286e-05
1.82092e-05
-2.88488e-05
1.85521e-05
-3.02356e-05
2.39001e-05
-3.07505e-05
2.26904e-05
-3.49714e-05
1.79043e-05
-3.91476e-05
2.35775e-05
-3.80502e-05
3.2954e-05
-4.60935e-05
2.48043e-05
-6.89186e-05
2.34536e-05
-9.45197e-05
4.38996e-05
-0.000141659
5.01792e-05
-0.000209183
4.83723e-05
-0.000275651
5.17006e-05
2.44321e-05
-0.000337874
-1.78503e-06
9.45917e-06
-3.76657e-06
9.7387e-06
-5.90333e-06
1.01035e-05
-8.44592e-06
1.08327e-05
-1.15491e-05
1.1667e-05
-1.44599e-05
1.33856e-05
-1.73558e-05
1.47851e-05
-1.98613e-05
1.69403e-05
-2.20282e-05
1.80004e-05
-2.40765e-05
2.02682e-05
-2.68869e-05
2.13733e-05
-2.82745e-05
2.52988e-05
-3.24675e-05
2.68946e-05
-4.16537e-05
2.71021e-05
-4.87056e-05
3.06413e-05
-5.28352e-05
3.70959e-05
-6.29451e-05
3.49268e-05
-7.65197e-05
3.70414e-05
-8.50642e-05
5.24579e-05
-0.000100118
6.52478e-05
-0.000131174
7.94429e-05
-0.000185251
0.000105794
0.000118098
-0.000278897
-2.02251e-06
1.14916e-05
-3.9626e-06
1.16887e-05
-5.89337e-06
1.20442e-05
-7.73698e-06
1.26863e-05
-9.53966e-06
1.34797e-05
-1.11053e-05
1.49613e-05
-1.26006e-05
1.62905e-05
-1.41794e-05
1.85295e-05
-1.62192e-05
2.00505e-05
-1.89912e-05
2.30508e-05
-2.25719e-05
2.49648e-05
-2.56341e-05
2.83719e-05
-2.92446e-05
3.05163e-05
-3.4481e-05
3.235e-05
-4.01139e-05
3.6286e-05
-4.58822e-05
4.28763e-05
-5.81633e-05
4.72204e-05
-7.50975e-05
5.39885e-05
-9.03596e-05
6.77336e-05
-0.000108449
8.3351e-05
-0.000131697
0.000102706
-0.000165164
0.000139278
0.000175516
-0.000222564
-1.59168e-06
1.3093e-05
-3.21811e-06
1.33249e-05
-4.9759e-06
1.38118e-05
-6.82675e-06
1.4547e-05
-8.86569e-06
1.55285e-05
-1.08553e-05
1.69609e-05
-1.28488e-05
1.82941e-05
-1.47547e-05
2.04456e-05
-1.66761e-05
2.19823e-05
-1.84339e-05
2.4819e-05
-2.07562e-05
2.72977e-05
-2.32499e-05
3.08763e-05
-2.68484e-05
3.41259e-05
-3.22091e-05
3.7722e-05
-3.80971e-05
4.21855e-05
-4.39569e-05
4.87481e-05
-5.19812e-05
5.5257e-05
-6.26777e-05
6.46978e-05
-7.41486e-05
7.92178e-05
-8.87227e-05
9.79391e-05
-0.000107606
0.000121603
-0.000132802
0.00016449
0.000213098
-0.000170366
-1.39004e-06
1.44927e-05
-2.76233e-06
1.47069e-05
-4.12329e-06
1.51825e-05
-5.43285e-06
1.58663e-05
-6.71214e-06
1.68176e-05
-7.94816e-06
1.82068e-05
-9.17097e-06
1.95269e-05
-1.04945e-05
2.17792e-05
-1.20524e-05
2.35503e-05
-1.37374e-05
2.65142e-05
-1.5689e-05
2.92598e-05
-1.77218e-05
3.29197e-05
-2.03843e-05
3.67992e-05
-2.38493e-05
4.1198e-05
-2.83283e-05
4.66759e-05
-3.34797e-05
5.39112e-05
-4.03534e-05
6.21428e-05
-4.89209e-05
7.32777e-05
-5.7662e-05
8.79719e-05
-6.73307e-05
0.000107621
-7.81807e-05
0.000132467
-8.81277e-05
0.000174452
0.000229072
-0.000104085
-1.17119e-06
1.56734e-05
-2.35163e-06
1.58968e-05
-3.57292e-06
1.64133e-05
-4.81242e-06
1.71153e-05
-6.08171e-06
1.80965e-05
-7.35276e-06
1.94875e-05
-8.59716e-06
2.0781e-05
-9.81528e-06
2.30071e-05
-1.10913e-05
2.48363e-05
-1.22712e-05
2.77043e-05
-1.35717e-05
3.05706e-05
-1.493e-05
3.42885e-05
-1.65746e-05
3.84545e-05
-1.88079e-05
4.34422e-05
-2.1555e-05
4.94342e-05
-2.4631e-05
5.69986e-05
-2.85104e-05
6.6034e-05
-3.30085e-05
7.77879e-05
-3.75619e-05
9.25379e-05
-4.1342e-05
0.000111414
-4.38976e-05
0.000135037
-3.89307e-05
0.000169499
0.000217498
-2.73404e-05
-8.28763e-07
1.65115e-05
-1.62999e-06
1.67074e-05
-2.41734e-06
1.721e-05
-3.17825e-06
1.78856e-05
-3.89926e-06
1.88269e-05
-4.64188e-06
2.02396e-05
-5.35187e-06
2.15006e-05
-6.10441e-06
2.37694e-05
-6.92443e-06
2.56661e-05
-7.77275e-06
2.85625e-05
-8.71009e-06
3.1518e-05
-9.65919e-06
3.52478e-05
-1.06946e-05
3.95003e-05
-1.18232e-05
4.45814e-05
-1.30641e-05
5.0686e-05
-1.43209e-05
5.82665e-05
-1.55274e-05
6.7252e-05
-1.6417e-05
7.86892e-05
-1.65963e-05
9.27294e-05
-1.5007e-05
0.000109838
-1.06056e-05
0.000130648
2.31932e-06
0.000156587
0.000189758
3.00728e-05
-6.89449e-07
1.72101e-05
-1.36632e-06
1.73934e-05
-2.04704e-06
1.78999e-05
-2.72631e-06
1.85741e-05
-3.3481e-06
1.9458e-05
-3.97281e-06
2.08737e-05
-4.49233e-06
2.20295e-05
-4.98001e-06
2.42665e-05
-5.3794e-06
2.6075e-05
-5.7094e-06
2.89022e-05
-5.96797e-06
3.17864e-05
-6.17401e-06
3.54638e-05
-6.31102e-06
3.96474e-05
-6.38686e-06
4.46676e-05
-6.32509e-06
5.06348e-05
-5.91112e-06
5.78633e-05
-5.06976e-06
6.64217e-05
-3.16831e-06
7.67991e-05
3.95097e-07
8.91777e-05
6.70529e-06
0.000103539
1.67172e-05
0.000120649
3.40447e-05
0.000139272
0.000161066
6.27506e-05
-3.20949e-07
1.754e-05
-6.20005e-07
1.77014e-05
-9.19707e-07
1.82086e-05
-1.20589e-06
1.88693e-05
-1.42764e-06
1.96888e-05
-1.65293e-06
2.11081e-05
-1.7753e-06
2.2161e-05
-1.86786e-06
2.43683e-05
-1.80616e-06
2.60227e-05
-1.71332e-06
2.88188e-05
-1.42367e-06
3.15063e-05
-1.01846e-06
3.50683e-05
-3.74197e-07
3.9013e-05
5.16688e-07
4.37868e-05
1.7709e-06
4.93908e-05
3.60719e-06
5.60374e-05
6.18392e-06
6.38556e-05
9.91365e-06
7.30803e-05
1.53505e-05
8.37521e-05
2.32367e-05
9.56645e-05
3.46757e-05
0.000109222
5.14131e-05
0.000122547
0.000137143
7.53475e-05
-1.96307e-07
1.7745e-05
-3.72733e-07
1.78866e-05
-5.30965e-07
1.83756e-05
-6.77101e-07
1.90242e-05
-7.26801e-07
1.97473e-05
-7.48477e-07
2.11386e-05
-6.16862e-07
2.20384e-05
-4.18879e-07
2.41794e-05
8.06293e-09
2.56048e-05
5.34034e-07
2.8302e-05
1.37005e-06
3.06796e-05
2.37885e-06
3.40689e-05
3.78181e-06
3.76197e-05
5.52421e-06
4.20541e-05
7.78887e-06
4.7136e-05
1.07924e-05
5.3044e-05
1.46426e-05
6.00158e-05
1.99371e-05
6.77963e-05
2.68339e-05
7.68661e-05
3.61236e-05
8.63857e-05
4.8067e-05
9.72895e-05
6.37625e-05
0.000106863
0.00011754
8.33775e-05
1.17613e-07
1.76359e-05
2.59638e-07
1.77531e-05
4.17619e-07
1.82261e-05
5.9166e-07
1.88588e-05
8.47937e-07
1.94996e-05
1.17333e-06
2.08218e-05
1.6414e-06
2.1579e-05
2.21042e-06
2.36191e-05
3.03176e-06
2.47923e-05
3.97668e-06
2.7366e-05
5.33498e-06
2.93303e-05
6.90259e-06
3.25105e-05
8.99881e-06
3.55327e-05
1.14799e-05
3.95824e-05
1.46481e-05
4.39774e-05
1.85747e-05
4.91271e-05
2.34205e-05
5.518e-05
2.95815e-05
6.16454e-05
3.70814e-05
6.93764e-05
4.66172e-05
7.68604e-05
5.8213e-05
8.57043e-05
7.25252e-05
9.25615e-05
0.000100958
8.9118e-05
2.18206e-07
1.7426e-05
4.65237e-07
1.75143e-05
7.4607e-07
1.79536e-05
1.06799e-06
1.85451e-05
1.49098e-06
1.9085e-05
2.0229e-06
2.02983e-05
2.71004e-06
2.09003e-05
3.55443e-06
2.27832e-05
4.67024e-06
2.36851e-05
5.98281e-06
2.60621e-05
7.73305e-06
2.75888e-05
9.76658e-06
3.04858e-05
1.24259e-05
3.28824e-05
1.55107e-05
3.65067e-05
1.93835e-05
4.01138e-05
2.40255e-05
4.44944e-05
2.96395e-05
4.95754e-05
3.64948e-05
5.47997e-05
4.45507e-05
6.13304e-05
5.42368e-05
6.71843e-05
6.53902e-05
7.4561e-05
7.81504e-05
7.98116e-05
8.70756e-05
9.20433e-05
3.86352e-07
1.70476e-05
7.94882e-07
1.71138e-05
1.26251e-06
1.7494e-05
1.79542e-06
1.80203e-05
2.43729e-06
1.84512e-05
3.24555e-06
1.94982e-05
4.19616e-06
1.99579e-05
5.38711e-06
2.16005e-05
6.84959e-06
2.22309e-05
8.57986e-06
2.43403e-05
1.07523e-05
2.54249e-05
1.32631e-05
2.79835e-05
1.64185e-05
2.97356e-05
2.00193e-05
3.29146e-05
2.4484e-05
3.5658e-05
2.96761e-05
3.93113e-05
3.58285e-05
4.34322e-05
4.30699e-05
4.75676e-05
5.14125e-05
5.29972e-05
6.11185e-05
5.74878e-05
7.20474e-05
6.36418e-05
8.41918e-05
6.7677e-05
7.41907e-05
9.70866e-05
3.50347e-07
1.6705e-05
6.93996e-07
1.67779e-05
1.15331e-06
1.70425e-05
1.70334e-06
1.74781e-05
2.3911e-06
1.77713e-05
3.30355e-06
1.85936e-05
4.39475e-06
1.88746e-05
5.81319e-06
2.019e-05
7.51752e-06
2.05346e-05
9.59558e-06
2.22703e-05
1.21129e-05
2.29157e-05
1.50994e-05
2.50053e-05
1.87098e-05
2.61335e-05
2.28515e-05
2.87813e-05
2.78964e-05
3.06217e-05
3.35862e-05
3.36301e-05
4.02938e-05
3.67333e-05
4.79236e-05
3.99466e-05
5.65443e-05
4.43855e-05
6.62032e-05
4.7838e-05
7.68318e-05
5.30225e-05
8.81795e-05
5.63385e-05
6.2253e-05
0.000100127
3.28876e-07
1.63836e-05
6.22247e-07
1.6492e-05
1.07723e-06
1.6595e-05
1.63511e-06
1.69277e-05
2.34671e-06
1.70672e-05
3.31742e-06
1.76305e-05
4.49582e-06
1.77038e-05
6.07339e-06
1.86201e-05
7.94975e-06
1.86659e-05
1.02979e-05
1.99298e-05
1.30922e-05
2.01293e-05
1.64499e-05
2.16555e-05
2.04169e-05
2.21745e-05
2.50341e-05
2.41721e-05
3.0542e-05
2.5122e-05
3.66786e-05
2.75017e-05
4.39383e-05
2.9482e-05
5.1957e-05
3.19363e-05
6.09923e-05
3.53587e-05
7.09239e-05
3.79151e-05
8.17057e-05
4.22494e-05
9.30589e-05
4.49941e-05
5.04697e-05
0.000104851
2.80544e-08
1.63627e-05
3.24287e-08
1.64948e-05
2.16352e-07
1.64182e-05
5.25821e-07
1.66254e-05
1.04716e-06
1.65531e-05
1.87535e-06
1.68096e-05
2.98358e-06
1.66028e-05
4.56024e-06
1.70508e-05
6.52362e-06
1.67099e-05
9.06684e-06
1.7394e-05
1.21331e-05
1.70705e-05
1.58804e-05
1.79158e-05
2.02704e-05
1.77921e-05
2.54617e-05
1.89884e-05
3.15103e-05
1.90811e-05
3.82881e-05
2.07318e-05
4.62077e-05
2.15702e-05
5.47556e-05
2.33965e-05
6.43772e-05
2.57452e-05
7.47294e-05
2.7571e-05
8.57887e-05
3.11983e-05
9.71825e-05
3.36088e-05
3.87394e-05
0.000108921
-1.74377e-07
1.6544e-05
-3.46466e-07
1.66738e-05
-3.77748e-07
1.64564e-05
-2.9194e-07
1.65465e-05
-2.22366e-09
1.62703e-05
5.71963e-07
1.62423e-05
1.43139e-06
1.57504e-05
2.74921e-06
1.574e-05
4.47637e-06
1.49898e-05
6.81229e-06
1.50652e-05
9.73606e-06
1.41538e-05
1.34288e-05
1.42302e-05
1.78741e-05
1.3354e-05
2.32829e-05
1.35869e-05
2.96037e-05
1.27677e-05
3.68866e-05
1.34563e-05
4.53791e-05
1.30852e-05
5.46134e-05
1.41697e-05
6.51531e-05
1.52133e-05
7.63995e-05
1.63323e-05
8.83437e-05
1.92619e-05
0.000100615
2.13455e-05
2.61295e-05
0.000113233
-6.78493e-07
1.72291e-05
-1.31455e-06
1.73165e-05
-1.84494e-06
1.69934e-05
-2.22518e-06
1.69334e-05
-2.38324e-06
1.6435e-05
-2.24422e-06
1.61099e-05
-1.77175e-06
1.52846e-05
-8.07017e-07
1.4782e-05
6.55842e-07
1.35337e-05
2.81859e-06
1.29093e-05
5.67732e-06
1.13019e-05
9.40384e-06
1.05106e-05
1.40111e-05
8.75353e-06
1.97078e-05
7.89717e-06
2.64079e-05
6.07466e-06
3.42923e-05
5.57886e-06
4.33728e-05
4.01173e-06
5.34166e-05
4.13311e-06
6.49405e-05
3.69654e-06
7.7186e-05
4.09407e-06
9.02746e-05
6.18067e-06
0.000103788
7.84001e-06
1.22068e-05
0.000117718
-9.47033e-07
1.81824e-05
-1.84364e-06
1.82193e-05
-2.68421e-06
1.78402e-05
-3.39391e-06
1.76494e-05
-3.92422e-06
1.69716e-05
-4.20816e-06
1.64002e-05
-4.19541e-06
1.52782e-05
-3.75191e-06
1.43448e-05
-2.84716e-06
1.26353e-05
-1.28696e-06
1.13555e-05
9.52875e-07
9.06853e-06
4.05142e-06
7.41851e-06
8.06842e-06
4.74305e-06
1.32144e-05
2.75774e-06
1.95121e-05
-2.16461e-07
2.72285e-05
-2.13081e-06
3.63146e-05
-5.06766e-06
4.68145e-05
-6.36007e-06
5.90332e-05
-8.51539e-06
7.22047e-05
-9.07058e-06
8.66605e-05
-8.26821e-06
0.000101952
-7.44464e-06
-3.75787e-06
0.000117924
-1.48572e-06
1.96741e-05
-2.92487e-06
1.96645e-05
-4.31918e-06
1.92405e-05
-5.5826e-06
1.89188e-05
-6.67752e-06
1.80725e-05
-7.53376e-06
1.72624e-05
-8.09232e-06
1.58427e-05
-8.22889e-06
1.44874e-05
-7.89532e-06
1.23078e-05
-6.88805e-06
1.03543e-05
-5.14518e-06
7.33176e-06
-2.4222e-06
4.70167e-06
1.36634e-06
9.60652e-07
6.37801e-06
-2.24774e-06
1.26394e-05
-6.47163e-06
2.03967e-05
-9.88191e-06
2.96315e-05
-1.42961e-05
4.05808e-05
-1.73031e-05
5.32748e-05
-2.1203e-05
6.72678e-05
-2.30572e-05
8.31226e-05
-2.41166e-05
0.000100305
-2.46209e-05
-2.18902e-05
0.000118444
-1.76856e-06
2.14482e-05
-3.50676e-06
2.14083e-05
-5.22191e-06
2.09613e-05
-6.8373e-06
2.05398e-05
-8.32052e-06
1.95614e-05
-9.60913e-06
1.85567e-05
-1.06445e-05
1.68838e-05
-1.13235e-05
1.51722e-05
-1.15867e-05
1.25767e-05
-1.12635e-05
1.00368e-05
-1.03011e-05
6.37508e-06
-8.47446e-06
2.88085e-06
-5.68559e-06
-1.82243e-06
-1.7024e-06
-6.22511e-06
3.57599e-06
-1.17442e-05
1.04462e-05
-1.67463e-05
1.90223e-05
-2.28663e-05
2.96228e-05
-2.78977e-05
4.22247e-05
-3.37989e-05
5.67088e-05
-3.75354e-05
7.35578e-05
-4.09596e-05
9.21922e-05
-4.32493e-05
-4.18195e-05
0.000112128
-2.27312e-06
2.37267e-05
-4.52535e-06
2.36658e-05
-6.76358e-06
2.32048e-05
-8.9318e-06
2.27133e-05
-1.09967e-05
2.16316e-05
-1.29039e-05
2.04692e-05
-1.45852e-05
1.85705e-05
-1.59478e-05
1.65401e-05
-1.69315e-05
1.35658e-05
-1.737e-05
1.04806e-05
-1.71953e-05
6.20586e-06
-1.61662e-05
1.85716e-06
-1.41648e-05
-3.8184e-06
-1.08389e-05
-9.54558e-06
-5.96264e-06
-1.6615e-05
7.13526e-07
-2.3417e-05
9.23144e-06
-3.13788e-05
1.98955e-05
-3.85563e-05
3.27762e-05
-4.66741e-05
4.81113e-05
-5.2865e-05
6.60901e-05
-5.8933e-05
8.62081e-05
-6.33619e-05
-6.36521e-05
0.000108046
-2.53531e-06
2.62669e-05
-5.06427e-06
2.61997e-05
-7.5928e-06
2.57383e-05
-1.00838e-05
2.52093e-05
-1.25027e-05
2.40554e-05
-1.48176e-05
2.27892e-05
-1.69677e-05
2.07256e-05
-1.88921e-05
1.84695e-05
-2.05146e-05
1.51934e-05
-2.16884e-05
1.16594e-05
-2.23332e-05
6.85569e-06
-2.22314e-05
1.76043e-06
-2.12879e-05
-4.75687e-06
-1.92368e-05
-1.15916e-05
-1.59072e-05
-1.99396e-05
-1.08819e-05
-2.84373e-05
-3.87027e-06
-3.83853e-05
5.61038e-06
-4.80319e-05
1.77268e-05
-5.87855e-05
3.2828e-05
-6.79613e-05
5.10458e-05
-7.71458e-05
7.22374e-05
-8.45486e-05
-8.74206e-05
9.6011e-05
-2.97557e-06
2.92471e-05
-5.95981e-06
2.91886e-05
-8.96444e-06
2.87476e-05
-1.19751e-05
2.82246e-05
-1.49706e-05
2.70556e-05
-1.79326e-05
2.57558e-05
-2.08036e-05
2.36013e-05
-2.35306e-05
2.12011e-05
-2.60287e-05
1.76962e-05
-2.81924e-05
1.38278e-05
-2.99229e-05
8.59091e-06
-3.10188e-05
2.86106e-06
-3.13382e-05
-4.43278e-06
-3.05501e-05
-1.2375e-05
-2.844e-05
-2.2045e-05
-2.43862e-05
-3.24864e-05
-1.81171e-05
-4.46497e-05
-9.26251e-06
-5.68819e-05
2.29832e-06
-7.03417e-05
1.70451e-05
-8.27035e-05
3.47844e-05
-9.48805e-05
5.60455e-05
-0.000105805
-0.000112732
8.13615e-05
-3.18114e-06
3.24326e-05
-6.38337e-06
3.23951e-05
-9.62422e-06
3.19928e-05
-1.29076e-05
3.15123e-05
-1.6227e-05
3.03793e-05
-1.95916e-05
2.91248e-05
-2.29559e-05
2.69699e-05
-2.63179e-05
2.45674e-05
-2.96039e-05
2.09865e-05
-3.27529e-05
1.69812e-05
-3.56264e-05
1.14687e-05
-3.80635e-05
5.30245e-06
-3.98768e-05
-2.61513e-06
-4.08055e-05
-1.1442e-05
-4.06443e-05
-2.22019e-05
-3.90895e-05
-3.4037e-05
-3.59912e-05
-4.77436e-05
-3.08198e-05
-6.20491e-05
-2.3713e-05
-7.74445e-05
-1.4153e-05
-9.22592e-05
-5.32298e-07
-0.000108496
1.9409e-05
-0.000125741
-0.000139515
4.61978e-05
-3.58008e-06
3.60166e-05
-7.19277e-06
3.60118e-05
-1.08731e-05
3.56771e-05
-1.46472e-05
3.52904e-05
-1.8532e-05
3.4268e-05
-2.25544e-05
3.31512e-05
-2.66964e-05
3.11159e-05
-3.09764e-05
2.88514e-05
-3.53379e-05
2.5352e-05
-3.97374e-05
2.13846e-05
-4.40818e-05
1.58172e-05
-4.82727e-05
9.49733e-06
-5.21454e-05
1.26154e-06
-5.54572e-05
-8.12624e-06
-5.7917e-05
-1.97381e-05
-5.91863e-05
-3.27638e-05
-5.9056e-05
-4.78701e-05
-5.81888e-05
-6.29124e-05
-5.76897e-05
-7.79393e-05
-5.40561e-05
-9.58881e-05
-4.21268e-05
-0.000120421
-2.06455e-05
-0.000147218
-0.000169048
8.89011e-06
-3.64564e-06
3.96659e-05
-7.3432e-06
3.9713e-05
-1.11472e-05
3.94847e-05
-1.51132e-05
3.926e-05
-1.92912e-05
3.84496e-05
-2.37332e-05
3.75968e-05
-2.84603e-05
3.58466e-05
-3.35115e-05
3.39062e-05
-3.88795e-05
3.07235e-05
-4.45804e-05
2.70891e-05
-5.05847e-05
2.18251e-05
-5.68047e-05
1.5721e-05
-6.3134e-05
7.59441e-06
-6.94051e-05
-1.85155e-06
-7.56314e-05
-1.35082e-05
-8.19918e-05
-2.64e-05
-8.97723e-05
-4.0086e-05
-9.90777e-05
-5.36031e-05
-0.000104761
-7.22519e-05
-9.83588e-05
-0.000102286
-7.90998e-05
-0.000139678
-5.25088e-05
-0.000173807
-0.000200428
-2.11261e-05
-4.00116e-06
4.36703e-05
-8.07221e-06
4.37873e-05
-1.2286e-05
4.37017e-05
-1.67031e-05
4.36804e-05
-2.13869e-05
4.31367e-05
-2.641e-05
4.26232e-05
-3.18303e-05
4.12702e-05
-3.77247e-05
3.98039e-05
-4.41533e-05
3.71554e-05
-5.12019e-05
3.41411e-05
-5.89053e-05
2.95318e-05
-6.72706e-05
2.40896e-05
-7.63372e-05
1.66643e-05
-8.61094e-05
7.92384e-06
-9.691e-05
-2.70448e-06
-0.000109195
-1.41114e-05
-0.000123676
-2.56012e-05
-0.000136967
-4.03086e-05
-0.000138361
-7.0854e-05
-0.000123073
-0.000117572
-9.92376e-05
-0.000163512
-7.28008e-05
-0.000200242
-0.000228698
-4.45285e-05
-3.80054e-06
4.74737e-05
-7.68746e-06
4.76771e-05
-1.17621e-05
4.77793e-05
-1.61297e-05
4.80508e-05
-2.09075e-05
4.79174e-05
-2.62231e-05
4.79417e-05
-3.22008e-05
4.72509e-05
-3.89666e-05
4.65725e-05
-4.66193e-05
4.4811e-05
-5.52409e-05
4.27655e-05
-6.49497e-05
3.92435e-05
-7.58707e-05
3.50135e-05
-8.81396e-05
2.89361e-05
-0.00010206
2.18473e-05
-0.000118447
1.36848e-05
-0.000138215
5.66012e-06
-0.000158996
-4.81664e-06
-0.00016917
-3.01312e-05
-0.000159688
-8.03344e-05
-0.000140419
-0.00013684
-0.000121308
-0.000182621
-0.00010122
-0.000220328
-0.000251046
-7.88687e-05
-4.10287e-06
5.15791e-05
-8.31609e-06
5.18928e-05
-1.27442e-05
5.22099e-05
-1.7487e-05
5.2796e-05
-2.26647e-05
5.30977e-05
-2.84094e-05
5.36888e-05
-3.48658e-05
5.37098e-05
-4.21846e-05
5.38938e-05
-5.05116e-05
5.31406e-05
-5.99974e-05
5.22537e-05
-7.08872e-05
5.01358e-05
-8.35781e-05
4.7707e-05
-9.84839e-05
4.38444e-05
-0.000116119
3.94853e-05
-0.000136947
3.45151e-05
-0.000159731
2.84475e-05
-0.000179106
1.45631e-05
-0.00018278
-2.64554e-05
-0.000171359
-9.17553e-05
-0.000158029
-0.00015017
-0.000144492
-0.000196154
-0.000127938
-0.00023688
-0.000270583
-0.000108399
-3.49938e-06
5.50805e-05
-7.1186e-06
5.5514e-05
-1.09886e-05
5.60819e-05
-1.52506e-05
5.70601e-05
-2.0047e-05
5.78961e-05
-2.55559e-05
5.91998e-05
-3.1992e-05
6.01479e-05
-3.96566e-05
6.15606e-05
-4.89011e-05
6.23871e-05
-6.01774e-05
6.35321e-05
-7.38098e-05
6.37704e-05
-9.01333e-05
6.40326e-05
-0.000109414
6.31273e-05
-0.000131972
6.20457e-05
-0.000157719
6.0265e-05
-0.000184094
5.48261e-05
-0.000200333
3.08046e-05
-0.000196714
-3.00735e-05
-0.000186656
-0.000101813
-0.000177211
-0.000159614
-0.000165089
-0.000208274
-0.000150599
-0.000251368
-0.000287572
-0.00013361
-3.70969e-06
5.87917e-05
-7.55153e-06