/*--------------------------------*- C++ -*----------------------------------*\
| =========                 |                                                 |
| \\      /  F ield         | OpenFOAM: The Open Source CFD Toolbox           |
|  \\    /   O peration     | Version:  2012                                  |
|   \\  /    A nd           | Website:  www.openfoam.com                      |
|    \\/     M anipulation  |                                                 |
\*---------------------------------------------------------------------------*/
FoamFile
{
    version     2.0;
    format      ascii;
    class       volScalarField;
    location    "0.91";
    object      p_rgh;
}
// * * * * * * * * * * * * * * * * * * * * * * * * * * * * * * * * * * * * * //

dimensions      [1 -1 -2 0 0 0 0];


internalField   nonuniform List<scalar> 
2268
(
102461
102451
102432
102408
102377
102348
102313
102287
102256
102234
102206
102186
102160
102139
102114
102092
102071
102051
102035
102024
102022
102022
102029
102462
102452
102433
102408
102377
102347
102313
102286
102255
102234
102205
102186
102159
102138
102113
102092
102070
102050
102034
102022
102020
102021
102028
102467
102457
102437
102411
102378
102348
102313
102286
102255
102233
102206
102186
102159
102138
102113
102090
102067
102046
102030
102018
102018
102020
102029
102471
102460
102439
102412
102378
102346
102311
102284
102252
102232
102204
102185
102159
102137
102111
102088
102064
102042
102025
102013
102015
102017
102026
102481
102470
102446
102417
102381
102347
102310
102282
102252
102231
102205
102185
102159
102137
102109
102085
102058
102034
102015
102003
102007
102012
102024
102489
102476
102451
102418
102381
102345
102306
102278
102248
102230
102203
102185
102158
102136
102107
102081
102054
102027
102005
101993
101998
102007
102023
102504
102491
102462
102427
102383
102343
102304
102275
102245
102227
102204
102185
102159
102135
102105
102076
102043
102011
101984
101972
101980
101994
102008
102517
102501
102471
102428
102384
102341
102299
102268
102240
102226
102201
102185
102158
102134
102101
102071
102037
102002
101970
101955
101958
101991
102017
102285
101725
101699
101700
101703
101791
101880
102058
102363
102229
102115
102030
101976
101810
101784
101798
101817
101920
102033
102297
101743
101699
101697
101696
101728
101801
101989
102300
102197
102095
102043
101952
101781
101757
101764
101786
101890
102005
102138
101739
101698
101693
101691
101744
101798
101925
102228
102145
102053
101953
101877
101768
101750
101724
101724
101847
101998
102172
101800
101698
101693
101717
101798
101774
101934
102179
102099
102001
101925
101782
101734
101796
101715
101724
101884
101997
102064
101819
101698
101703
101834
101857
101838
102027
102134
102048
101948
101819
101716
101660
101789
101780
101839
101959
102008
102096
101744
101723
101748
101736
101826
101980
102074
102099
102032
101843
101638
101601
101521
101691
101906
102000
101984
102007
101956
101788
101880
101727
101656
101667
102027
102093
102087
101964
101648
101567
101528
101503
101559
101945
102051
102003
102004
102051
101988
101981
101661
101654
101663
101965
102128
102079
101880
101566
101573
101535
101513
101534
101841
102023
102008
101966
102550
102533
102493
102445
102385
102333
102289
102259
102231
102220
102203
102185
102160
102133
102097
102058
101994
101886
101761
101718
101766
101878
101939
102602
102576
102532
102451
102394
102330
102270
102188
102179
102191
102178
102165
102134
102099
102011
101861
101619
101451
101378
101389
101461
101650
101990
102681
102653
102579
102487
102292
101940
101756
101719
101744
101892
101999
102001
101964
101787
101497
101372
101358
101359
101359
101364
101516
101755
101755
102766
102738
102657
102274
101773
101693
101645
101538
101503
101506
101640
101762
101567
101361
101358
101358
101357
101358
101364
101564
101981
102003
101879
102874
102846
102679
102137
101768
101619
101529
101424
101391
101384
101384
101375
101361
101361
101358
101358
101358
101358
101413
102030
102217
102095
102096
102714
102825
102518
101927
101617
101435
101446
101477
101532
101458
101362
101350
101351
101354
101357
101358
101357
101357
101424
102088
102395
102338
102363
102277
102431
101757
101426
101362
101337
101415
101567
101555
101565
101411
101345
101346
101352
101371
101437
101452
101381
101358
101700
102456
102537
102567
101728
101706
101374
101330
101330
101328
101329
101339
101462
101545
101430
101347
101346
101357
101501
101692
101688
101513
101357
101467
102282
102734
102763
101439
101336
101333
101328
101328
101327
101327
101326
101327
101327
101346
101384
101398
101419
101666
101709
101715
101578
101352
101404
101860
102298
102466
101526
101326
101329
101327
101328
101327
101327
101326
101327
101327
101327
101327
101329
101347
101439
101495
101424
101341
101349
101411
101576
101597
101624
101658
101326
101328
101326
101327
101326
101327
101326
101327
101326
101326
101328
101326
101326
101326
101326
101326
101326
101326
101327
101326
101326
101334
101681
101325
101328
101326
101327
101326
101326
101326
101326
101326
101326
101326
101326
101326
101326
101325
101326
101326
101326
101326
101326
101326
101326
101656
101325
101327
101325
101327
101325
101326
101326
101326
101326
101326
101326
101326
101326
101326
101326
101326
101326
101326
101326
101326
101326
101326
101379
101325
101327
101325
101326
101325
101326
101325
101326
101326
101326
101326
101326
101326
101326
101326
101326
101326
101326
101326
101326
101326
101326
101325
101325
101326
101325
101326
101325
101326
101325
101326
101326
101326
101326
101326
101326
101326
101326
101326
101326
101326
101326
101326
101326
101326
101324
101324
101325
101324
101325
101325
101325
101325
101326
101325
101326
101326
101326
101326
101326
101326
101326
101326
101326
101326
101326
101326
101326
101324
101324
101324
101324
101325
101324
101325
101325
101325
101325
101326
101326
101326
101326
101326
101326
101326
101326
101326
101326
101326
101326
101326
101324
101323
101323
101323
101324
101324
101325
101325
101325
101325
101326
101326
101326
101326
101326
101326
101326
101326
101326
101326
101326
101326
101326
101323
101323
101322
101322
101323
101323
101324
101325
101325
101325
101326
101326
101326
101326
101326
101326
101326
101326
101326
101326
101326
101326
101326
101323
101322
101322
101321
101323
101323
101324
101324
101325
101325
101326
101326
101326
101326
101326
101326
101326
101326
101326
101326
101326
101326
101326
101323
101323
101322
101321
101323
101323
101324
101325
101325
101325
101326
101326
101326
101326
101326
101326
101326
101326
101326
101326
101326
101326
101326
101323
101323
101322
101322
101323
101324
101324
101325
101325
101325
101326
101326
101326
101326
101326
101326
101326
101326
101326
101326
101326
101326
101326
101324
101324
101323
101323
101324
101324
101325
101325
101325
101326
101326
101326
101326
101326
101326
101326
101326
101326
101326
101326
101326
101326
101326
101325
101325
101324
101324
101325
101325
101325
101325
101326
101326
101326
101326
101326
101326
101326
101326
101326
101326
101326
101326
101326
101326
101326
101326
101326
101325
101325
101325
101326
101326
101326
101326
101326
101326
101326
101326
101326
101326
101326
101326
101326
101326
101326
101326
101326
101326
101327
101327
101326
101326
101326
101326
101326
101326
101326
101326
101326
101326
101326
101326
101326
101326
101326
101326
101326
101326
101326
101326
101326
101327
101327
101327
101327
101326
101326
101326
101326
101326
101326
101326
101326
101326
101326
101326
101326
101326
101326
101326
101326
101326
101326
101326
101327
101327
101327
101327
101327
101326
101326
101326
101326
101326
101326
101326
101326
101326
101326
101326
101326
101326
101326
101326
101326
101326
101326
101327
101327
101327
101327
101327
101326
101326
101326
101326
101326
101326
101326
101326
101326
101326
101326
101326
101326
101326
101326
101326
101326
101326
101327
101327
101327
101327
101327
101326
101326
101326
101326
101326
101326
101326
101326
101326
101326
101326
101326
101326
101326
101326
101326
101326
101326
101327
101327
101327
101327
101326
101326
101326
101326
101326
101326
101326
101326
101326
101326
101326
101326
101326
101326
101326
101326
101326
101326
101326
101326
101326
101326
101326
101326
101326
101326
101326
101326
101326
101326
101326
101326
101326
101326
101326
101326
101326
101326
101326
101326
101326
101326
101326
101326
101326
101326
101326
101326
101326
101326
101326
101326
101326
101326
101326
101326
101326
101326
101326
101326
101326
101326
101326
101326
101326
101326
101326
101326
101326
101326
101326
101326
101326
101326
101326
101326
101326
101326
101326
101326
101326
101326
101326
101326
101326
101326
101325
101325
101326
101326
101326
101326
101326
101326
101326
101326
101326
101326
101326
101326
101326
101326
101326
101326
101326
101326
101325
101325
101325
101325
101325
101326
101326
101326
101326
101326
101326
101326
101326
101326
101326
101326
101326
101326
101326
101326
101325
101325
101325
101325
101325
101325
101325
101325
101326
101326
101326
101326
101326
101326
101326
101326
101326
101326
101326
101326
101326
101325
101325
101325
101325
101325
101325
101325
101325
101325
101325
101326
101326
101326
101326
101326
101326
101326
101326
101326
101326
101326
101326
101325
101325
101325
101325
101325
101325
101325
101325
101325
101325
101325
101326
101326
101326
101326
101326
101326
101326
101325
101325
101325
101325
101325
101325
101325
101325
101325
101325
101325
101325
101325
101325
101325
101325
101326
101326
101326
101326
101326
101326
101326
101325
101325
101325
101325
101325
101325
101325
101325
101325
101325
101325
101325
101325
101325
101325
101325
101325
101325
101325
101325
101325
101325
101325
101325
101325
101325
101325
101325
101325
101325
101325
101325
101325
101325
101325
101325
101325
101325
101325
101325
101325
101325
101325
101325
101325
101325
101325
101325
101325
101325
101325
101325
101325
101325
101325
101325
101325
101325
101325
101325
101325
101325
101942
101798
101848
101739
101996
101878
101914
102045
101802
101862
102099
102125
101905
102092
102167
102218
102152
102187
102226
102238
102401
102360
102234
102021
101974
101672
101580
101547
102015
101536
101522
101509
102406
101885
101580
101530
101737
101832
101638
101534
101376
101417
101446
101434
101331
101404
101441
101444
101326
101327
101328
101331
101326
101326
101326
101327
101326
101326
101326
101327
101326
101326
101326
101326
101326
101326
101326
101326
101326
101326
101326
101326
101326
101326
101326
101327
101326
101326
101326
101327
101326
101326
101326
101326
101326
101326
101326
101326
101326
101326
101326
101326
101326
101326
101326
101326
101326
101326
101326
101326
101326
101326
101326
101326
101326
101326
101326
101326
101326
101326
101326
101326
101326
101326
101326
101326
101326
101326
101326
101326
101326
101326
101326
101326
101326
101326
101326
101326
101326
101326
101326
101326
101325
101325
101325
101325
101325
101325
101325
101325
101325
101325
101325
101325
101325
101325
101325
101325
101325
101325
101325
101325
101325
101325
101325
101325
101325
101325
101325
101325
101325
101325
101325
101325
101325
101325
101325
101325
102193
102102
101733
101657
101658
101657
101932
102148
102057
101696
101568
101558
101658
101702
101702
101848
102038
102001
101917
102134
102126
101735
101760
101668
101728
102129
102194
101807
101559
101547
101583
101758
101939
101945
101968
101892
101717
101588
102235
101888
101747
102191
102283
102250
102249
101970
101521
101467
101595
101678
101657
101590
101594
101623
101483
101355
101333
102181
101827
102044
102321
102307
102331
102311
102009
101463
101479
101490
101552
101549
101535
101410
101347
101332
101332
101332
102012
101795
101959
101834
101698
101980
102171
102156
101999
101764
101376
101335
101334
101334
101344
101331
101332
101332
101331
101736
101574
101488
101319
101327
101398
101579
101797
101639
101587
101483
101336
101331
101332
101332
101332
101332
101331
101331
101568
101330
101316
101316
101332
101355
101329
101329
101329
101328
101341
101346
101358
101349
101333
101331
101330
101330
101331
101501
101485
101313
101314
101364
101389
101343
101328
101328
101330
101332
101394
101398
101394
101336
101330
101330
101330
101330
101440
101590
101475
101328
101381
101394
101340
101328
101328
101328
101328
101328
101340
101338
101330
101330
101330
101330
101330
101345
101524
101514
101394
101397
101348
101328
101328
101328
101328
101328
101328
101328
101328
101329
101330
101329
101330
101330
101355
101349
101351
101335
101384
101329
101328
101328
101328
101328
101328
101328
101328
101329
101329
101329
101329
101329
101329
101429
101355
101329
101330
101336
101334
101328
101328
101328
101328
101328
101328
101328
101329
101329
101329
101329
101329
101329
101346
101363
101354
101354
101327
101331
101327
101327
101327
101328
101328
101328
101328
101329
101329
101329
101329
101329
101329
101331
101343
101347
101338
101327
101327
101327
101327
101327
101328
101328
101328
101328
101328
101329
101329
101329
101329
101329
101327
101327
101327
101327
101327
101327
101327
101327
101327
101327
101328
101328
101328
101328
101328
101329
101329
101329
101329
101327
101328
101326
101327
101327
101327
101327
101327
101327
101327
101328
101328
101328
101328
101328
101328
101329
101329
101329
101327
101327
101327
101327
101327
101327
101327
101327
101327
101328
101328
101328
101328
101328
101328
101328
101328
101328
101328
101327
101327
101327
101327
101327
101328
101328
101328
101328
101328
101328
101328
101328
101328
101328
101328
101328
101328
101328
101327
101327
101327
101327
101327
101328
101328
101328
101328
101328
101328
101328
101328
101328
101328
101328
101328
101328
101328
101327
101327
101327
101327
101327
101328
101328
101328
101328
101328
101328
101328
101328
101328
101328
101328
101328
101328
101328
101327
101327
101327
101327
101327
101327
101328
101328
101328
101328
101328
101328
101328
101328
101328
101328
101328
101328
101328
101327
101327
101327
101327
101327
101327
101327
101328
101328
101328
101328
101328
101328
101328
101328
101328
101328
101328
101328
101326
101327
101327
101327
101327
101327
101327
101327
101327
101328
101328
101328
101328
101328
101328
101328
101328
101328
101328
101326
101326
101327
101327
101327
101327
101327
101327
101327
101327
101327
101327
101328
101328
101328
101328
101328
101328
101328
101326
101326
101326
101326
101327
101327
101327
101327
101327
101327
101327
101327
101327
101328
101328
101328
101328
101328
101328
101326
101326
101326
101326
101326
101326
101327
101327
101327
101327
101327
101327
101327
101327
101328
101328
101328
101328
101328
101326
101326
101326
101326
101326
101326
101326
101327
101327
101327
101327
101327
101327
101327
101327
101328
101328
101328
101328
101326
101326
101326
101326
101326
101326
101326
101326
101326
101327
101327
101327
101327
101327
101327
101328
101328
101328
101328
101326
101326
101326
101326
101326
101326
101326
101326
101326
101326
101327
101327
101327
101327
101327
101327
101328
101328
101328
101326
101326
101326
101326
101326
101326
101326
101326
101326
101326
101327
101327
101327
101327
101327
101327
101327
101328
101328
101326
101326
101326
101326
101326
101326
101326
101326
101326
101326
101326
101327
101327
101327
101327
101327
101327
101327
101328
101326
101326
101326
101326
101326
101326
101326
101326
101326
101326
101326
101327
101327
101327
101327
101327
101327
101327
101327
101326
101326
101326
101326
101326
101326
101326
101326
101326
101326
101326
101326
101327
101327
101327
101327
101327
101327
101327
101325
101326
101326
101326
101326
101326
101326
101326
101326
101326
101326
101326
101326
101327
101327
101327
101327
101327
101327
101325
101325
101325
101325
101325
101326
101326
101326
101326
101326
101326
101326
101326
101327
101327
101327
101327
101327
101327
101325
101325
101325
101325
101325
101325
101325
101326
101326
101326
101326
101326
101326
101326
101327
101327
101327
101327
101327
101325
101325
101325
101325
101325
101325
101325
101325
101326
101326
101326
101326
101326
101326
101326
101327
101327
101327
101327
101325
101325
101325
101325
101325
101325
101325
101325
101325
101325
101326
101326
101326
101326
101326
101326
101327
101327
101327
101325
101325
101325
101325
101325
101325
101325
101325
101325
101325
101325
101326
101326
101326
101326
101326
101326
101326
101326
101325
101325
101325
101325
101325
101325
101325
101325
101325
101325
101325
101325
101325
101326
101326
101326
101326
101326
101326
101325
101325
101325
101325
101325
101325
101325
101325
101325
101325
101325
101325
101325
101325
101325
101325
101326
101325
101325
101325
101325
101325
101325
101325
101325
101325
101325
101325
101325
101325
101325
101325
101325
101325
101325
101325
101325
101325
)
;

boundaryField
{
    leftWall
    {
        type            zeroGradient;
    }
    rightWall
    {
        type            zeroGradient;
    }
    lowerWall
    {
        type            zeroGradient;
    }
    atmosphere
    {
        type            fixedValue;
        value           uniform 101325;
    }
    defaultFaces
    {
        type            empty;
    }
}


// ************************************************************************* //
