/*--------------------------------*- C++ -*----------------------------------*\
| =========                 |                                                 |
| \\      /  F ield         | OpenFOAM: The Open Source CFD Toolbox           |
|  \\    /   O peration     | Version:  2012                                  |
|   \\  /    A nd           | Website:  www.openfoam.com                      |
|    \\/     M anipulation  |                                                 |
\*---------------------------------------------------------------------------*/
FoamFile
{
    version     2.0;
    format      ascii;
    class       surfaceScalarField;
    location    "0.91";
    object      phi;
}
// * * * * * * * * * * * * * * * * * * * * * * * * * * * * * * * * * * * * * //

dimensions      [0 3 -1 0 0 0 0];
oriented        oriented;


internalField   nonuniform List<scalar> 
4432
(
-1.95795e-06
1.95796e-06
-3.84733e-06
1.88938e-06
-5.60642e-06
1.75909e-06
-7.18544e-06
1.57902e-06
-8.57728e-06
1.39184e-06
-9.81394e-06
1.23666e-06
-1.08852e-05
1.07127e-06
-1.17991e-05
9.13907e-07
-1.25297e-05
7.30539e-07
-1.28794e-05
3.49694e-07
-1.27653e-05
-1.14057e-07
-1.22095e-05
-5.55838e-07
-1.11395e-05
-1.06999e-06
-9.50293e-06
-1.63655e-06
-7.27103e-06
-2.23191e-06
-4.32227e-06
-2.94876e-06
-8.90156e-07
-3.43211e-06
2.6585e-06
-3.54865e-06
5.72753e-06
-3.06904e-06
7.6718e-06
-1.94427e-06
6.69835e-06
9.73444e-07
4.45986e-06
2.23849e-06
4.45985e-06
-1.97275e-06
3.93071e-06
-3.90618e-06
3.82282e-06
-5.67837e-06
3.53128e-06
-7.21942e-06
3.12007e-06
-8.56617e-06
2.73859e-06
-9.79178e-06
2.46228e-06
-1.08968e-05
2.17629e-06
-1.18457e-05
1.86279e-06
-1.26025e-05
1.48731e-06
-1.29705e-05
7.1771e-07
-1.28701e-05
-2.14424e-07
-1.23432e-05
-1.08271e-06
-1.12897e-05
-2.12353e-06
-9.63439e-06
-3.29185e-06
-7.35583e-06
-4.51047e-06
-4.38002e-06
-5.92458e-06
-8.78555e-07
-6.93358e-06
2.78709e-06
-7.2143e-06
5.91345e-06
-6.1954e-06
7.82724e-06
-3.85806e-06
7.01213e-06
1.78855e-06
4.47291e-06
4.77771e-06
8.93275e-06
-2.04699e-06
5.9777e-06
-3.95294e-06
5.72877e-06
-5.7066e-06
5.28495e-06
-7.30366e-06
4.71713e-06
-8.73066e-06
4.16559e-06
-1.00149e-05
3.74648e-06
-1.11237e-05
3.28513e-06
-1.20448e-05
2.78392e-06
-1.27482e-05
2.19068e-06
-1.31199e-05
1.08943e-06
-1.30744e-05
-2.59976e-07
-1.25781e-05
-1.57902e-06
-1.14964e-05
-3.20518e-06
-9.8324e-06
-4.95586e-06
-7.49619e-06
-6.84668e-06
-4.43066e-06
-8.99011e-06
-7.43486e-07
-1.06208e-05
3.22973e-06
-1.11875e-05
6.72252e-06
-9.68818e-06
9.15914e-06
-6.29469e-06
8.4329e-06
2.51479e-06
5.1304e-06
8.08021e-06
1.40631e-05
-2.05187e-06
8.02958e-06
-4.00963e-06
7.68654e-06
-5.76918e-06
7.04449e-06
-7.30048e-06
6.24843e-06
-8.68211e-06
5.54723e-06
-9.95825e-06
5.02262e-06
-1.11205e-05
4.44736e-06
-1.2134e-05
3.79748e-06
-1.29595e-05
3.01609e-06
-1.34509e-05
1.58088e-06
-1.34643e-05
-2.46625e-07
-1.30004e-05
-2.04288e-06
-1.19655e-05
-4.24006e-06
-1.03249e-05
-6.59654e-06
-7.96627e-06
-9.20527e-06
-4.86242e-06
-1.2094e-05
-9.60228e-07
-1.4523e-05
3.41524e-06
-1.5563e-05
7.46327e-06
-1.37362e-05
1.03275e-05
-9.15895e-06
9.86752e-06
2.97479e-06
5.92006e-06
1.20277e-05
1.99832e-05
-2.2256e-06
1.02552e-05
-4.20634e-06
9.66728e-06
-5.98808e-06
8.82624e-06
-7.60157e-06
7.86192e-06
-9.06087e-06
7.00654e-06
-1.03867e-05
6.34842e-06
-1.15071e-05
5.56779e-06
-1.24504e-05
4.74082e-06
-1.32366e-05
3.80229e-06
-1.37641e-05
2.10839e-06
-1.38711e-05
-1.39628e-07
-1.34772e-05
-2.43679e-06
-1.24293e-05
-5.28803e-06
-1.07828e-05
-8.24305e-06
-8.31272e-06
-1.16753e-05
-4.98477e-06
-1.54219e-05
-7.22552e-07
-1.87852e-05
4.20403e-06
-2.04896e-05
9.22211e-06
-1.87543e-05
1.30791e-05
-1.30159e-05
1.26862e-05
3.36771e-06
8.29945e-06
1.64144e-05
2.82826e-05
-2.21466e-06
1.24698e-05
-4.33045e-06
1.17831e-05
-6.09349e-06
1.05893e-05
-7.60653e-06
9.37496e-06
-9.03102e-06
8.43103e-06
-1.03316e-05
7.64906e-06
-1.1488e-05
6.72409e-06
-1.25745e-05
5.82735e-06
-1.36304e-05
4.85818e-06
-1.43794e-05
2.85739e-06
-1.45444e-05
2.54226e-08
-1.418e-05
-2.80124e-06
-1.32517e-05
-6.21637e-06
-1.16416e-05
-9.85313e-06
-9.1437e-06
-1.41732e-05
-5.79071e-06
-1.87749e-05
-1.27096e-06
-2.33049e-05
4.27662e-06
-2.60372e-05
1.02945e-05
-2.47722e-05
1.44273e-05
-1.71487e-05
1.37749e-05
4.02005e-06
8.57242e-06
2.16169e-05
3.6855e-05
-2.3741e-06
1.48439e-05
-4.46378e-06
1.38728e-05
-6.3067e-06
1.24322e-05
-7.9046e-06
1.09729e-05
-9.42634e-06
9.95277e-06
-1.08545e-05
9.07725e-06
-1.19677e-05
7.83724e-06
-1.29395e-05
6.79916e-06
-1.39749e-05
5.89361e-06
-1.47999e-05
3.68241e-06
-1.51503e-05
3.75759e-07
-1.49919e-05
-2.95958e-06
-1.40886e-05
-7.11973e-06
-1.24059e-05
-1.15358e-05
-9.78079e-06
-1.67983e-05
-6.22313e-06
-2.23326e-05
-1.46828e-06
-2.80598e-05
4.28354e-06
-3.1789e-05
1.06028e-05
-3.10915e-05
1.52185e-05
-2.17644e-05
1.57739e-05
3.46467e-06
1.17587e-05
2.56321e-05
4.86137e-05
-2.81665e-06
1.76606e-05
-5.22376e-06
1.62799e-05
-6.7762e-06
1.39847e-05
-8.13697e-06
1.23336e-05
-9.60817e-06
1.1424e-05
-1.09069e-05
1.0376e-05
-1.19303e-05
8.86063e-06
-1.30676e-05
7.9364e-06
-1.45464e-05
7.37245e-06
-1.57071e-05
4.84308e-06
-1.6118e-05
7.86641e-07
-1.59576e-05
-3.11998e-06
-1.50745e-05
-8.00283e-06
-1.34073e-05
-1.3203e-05
-1.11229e-05
-1.90826e-05
-8.28171e-06
-2.51738e-05
-4.06089e-06
-3.22806e-05
1.15133e-06
-3.70013e-05
7.24407e-06
-3.71846e-05
1.22251e-05
-2.67461e-05
1.3548e-05
2.14133e-06
1.08273e-05
2.83528e-05
5.9441e-05
-6.57016e-05
6.57271e-05
-0.000104344
3.86205e-05
-0.000140354
3.60125e-05
-0.000159926
1.95727e-05
-0.000155034
-4.85734e-06
-0.000141163
-1.38488e-05
-0.000119772
-2.13767e-05
-8.03728e-05
-3.93858e-05
-3.35413e-05
-4.68296e-05
-1.87162e-06
-3.16641e-05
1.37238e-05
-1.5578e-05
-2.91756e-08
1.37694e-05
-3.26871e-05
3.26541e-05
-5.36483e-05
2.09611e-05
-5.9681e-05
6.03377e-06
-5.84787e-05
-1.20157e-06
-5.17906e-05
-6.68674e-06
-3.05214e-05
-2.12675e-05
-3.05209e-05
-4.86975e-05
0.000114455
-8.06797e-05
7.05634e-05
-0.00013454
8.98721e-05
-0.000179522
6.45664e-05
-0.000168601
-1.57531e-05
-0.000134651
-4.77299e-05
-9.8827e-05
-5.70906e-05
-6.13312e-05
-7.68609e-05
-2.66457e-05
-8.15152e-05
-3.2464e-06
-5.5062e-05
2.0358e-05
-3.9178e-05
3.38634e-05
2.7017e-07
2.2784e-05
4.37358e-05
-6.43624e-06
5.01938e-05
-3.24954e-05
3.21109e-05
-4.13327e-05
7.64052e-06
-3.36271e-05
-1.43839e-05
-1.76792e-05
-3.72108e-05
-4.81996e-05
-4.26582e-05
0.000157158
-8.08766e-05
0.000108766
-9.80207e-05
0.000107018
-9.49411e-05
6.15007e-05
-7.59494e-05
-3.47133e-05
-7.4413e-05
-4.92472e-05
-7.40807e-05
-5.7402e-05
-4.24668e-05
-0.000108446
-2.30711e-05
-0.000100911
-5.80818e-06
-7.2324e-05
1.20894e-05
-5.70729e-05
3.84775e-05
-2.61086e-05
5.54818e-05
2.67378e-05
4.84992e-05
5.7181e-05
2.40533e-05
5.65678e-05
-1.04193e-05
4.21295e-05
-1.46328e-05
-1.0149e-05
-1.3065e-06
-5.05261e-05
-4.95057e-05
-3.32669e-05
0.000190434
-4.68521e-05
0.000122287
-1.91958e-05
7.93653e-05
-5.78892e-06
4.81075e-05
-1.68498e-05
-2.36123e-05
-2.781e-05
-3.82726e-05
-3.44999e-05
-5.06576e-05
-2.71908e-05
-0.000115725
-2.08797e-05
-0.000107223
-8.44036e-06
-8.47634e-05
4.4079e-06
-6.99201e-05
2.97948e-05
-5.14941e-05
5.41293e-05
2.41933e-06
5.40101e-05
5.73045e-05
4.27347e-05
6.78358e-05
2.56386e-05
5.92621e-05
1.53561e-05
1.46397e-07
1.08022e-05
-4.59677e-05
-3.87029e-05
-2.49288e-05
0.000215392
-1.65356e-05
0.000113876
-1.39586e-07
6.29711e-05
-9.01473e-06
5.70002e-05
-1.08383e-05
-2.1791e-05
-8.41426e-06
-4.07015e-05
-1.11091e-05
-4.78791e-05
-1.78654e-05
-0.000108963
-1.89753e-05
-0.000106112
-1.08786e-05
-9.2859e-05
-2.74281e-06
-7.80555e-05
7.14957e-06
-6.13971e-05
3.14182e-05
-2.18493e-05
4.60556e-05
4.26838e-05
3.72638e-05
7.66188e-05
3.19182e-05
6.45775e-05
2.6787e-05
5.27156e-06
1.50064e-05
-3.4187e-05
-2.36963e-05
-9.32407e-06
0.000224715
-6.38229e-06
0.00011103
-9.65378e-06
6.62223e-05
-1.24106e-05
5.97479e-05
-8.14172e-06
-2.6068e-05
-4.54308e-06
-4.43341e-05
-5.2239e-06
-4.71831e-05
-1.52907e-05
-9.88959e-05
-2.01247e-05
-0.000101278
-1.62313e-05
-9.67524e-05
-9.79961e-06
-8.45121e-05
-8.00718e-06
-6.32337e-05
1.23253e-05
-4.2225e-05
3.24576e-05
2.25904e-05
2.62269e-05
8.28601e-05
2.49511e-05
6.58322e-05
2.20671e-05
8.15582e-06
1.16136e-05
-2.37331e-05
-1.20823e-05
-3.86027e-07
0.000225307
-8.09363e-06
0.000118721
-1.59015e-05
7.39564e-05
-6.48998e-06
5.03403e-05
-1.00726e-05
-2.24751e-05
-1.10352e-05
-4.3342e-05
-5.90491e-06
-5.23165e-05
-1.89757e-05
-8.58241e-05
-2.53371e-05
-9.49157e-05
-2.36078e-05
-9.84876e-05
-2.42861e-05
-8.3906e-05
-3.24645e-05
-5.50804e-05
-2.86367e-05
-4.60692e-05
-6.11856e-06
7.5394e-08
9.01254e-06
6.77993e-05
1.52074e-05
5.96233e-05
1.10204e-05
1.23435e-05
3.9745e-06
-1.66853e-05
-8.10714e-06
-3.99987e-06
0.000229239
-1.42634e-05
0.000128922
-1.03148e-05
6.99841e-05
1.48931e-05
2.51693e-05
4.01239e-06
-1.15827e-05
-1.28685e-05
-2.64333e-05
-1.12631e-05
-5.39128e-05
-2.57355e-05
-7.13509e-05
-3.24745e-05
-8.81764e-05
-3.5915e-05
-9.512e-05
-4.72327e-05
-7.25927e-05
-6.02205e-05
-4.21231e-05
-6.61302e-05
-4.01717e-05
-4.7246e-05
-1.87921e-05
-1.62215e-05
3.68281e-05
-3.58131e-06
4.70124e-05
-7.1216e-06
1.58922e-05
-7.54591e-06
-1.62587e-05
-1.56486e-05
-6.01614e-06
2.36767e-05
-1.12443e-05
2.1508e-05
-1.5572e-05
1.83124e-05
-1.89772e-05
1.57389e-05
-2.25592e-05
1.5006e-05
-2.57205e-05
1.35373e-05
-2.6991e-05
1.01311e-05
-2.80491e-05
8.99458e-06
-3.07461e-05
1.00694e-05
-3.37729e-05
7.86987e-06
-3.57805e-05
2.79432e-06
-3.66725e-05
-2.228e-06
-3.58245e-05
-8.85094e-06
-3.40456e-05
-1.49819e-05
-3.06653e-05
-2.24631e-05
-2.51555e-05
-3.06844e-05
-1.57645e-05
-4.16795e-05
-5.29111e-06
-4.75308e-05
2.68087e-06
-4.52773e-05
7.66521e-06
-3.18549e-05
2.92596e-05
-1.95376e-05
4.33708e-05
1.42206e-05
5.38355e-05
4.89761e-05
-8.66384e-06
3.23406e-05
-1.40933e-05
2.69375e-05
-1.59954e-05
2.02145e-05
-1.84218e-05
1.81653e-05
-2.082e-05
1.74041e-05
-2.19245e-05
1.46418e-05
-2.19226e-05
1.0129e-05
-2.44753e-05
1.15448e-05
-3.25532e-05
1.81392e-05
-4.01309e-05
1.54459e-05
-4.34969e-05
6.15535e-06
-4.49813e-05
-7.4781e-07
-4.65699e-05
-7.26858e-06
-4.73735e-05
-1.41868e-05
-4.52983e-05
-2.45742e-05
-3.98881e-05
-3.62295e-05
-3.03455e-05
-5.14837e-05
-2.9255e-05
-4.88553e-05
-3.64092e-05
-3.83127e-05
-2.88967e-05
-3.95385e-05
-3.82021e-06
-4.47485e-05
1.47001e-05
-4.38214e-06
5.11385e-05
1.73861e-05
-1.45681e-05
4.69087e-05
-2.50023e-05
3.73717e-05
-2.94711e-05
2.46833e-05
-3.08516e-05
1.9546e-05
-2.9143e-05
1.57004e-05
-2.35982e-05
9.14974e-06
-1.0937e-05
-2.52037e-06
-1.43779e-06
2.07193e-06
-1.63232e-05
3.30475e-05
-4.46418e-05
4.37919e-05
-6.18164e-05
2.33126e-05
-6.52344e-05
2.63995e-06
-6.37953e-05
-8.77659e-06
-6.1585e-05
-1.66079e-05
-5.05122e-05
-3.5921e-05
-9.11034e-06
-7.78245e-05
-3.64426e-06
-5.70888e-05
-3.43992e-05
-1.8235e-05
-2.55155e-05
-4.73293e-05
-2.19507e-06
-6.29713e-05
7.34235e-06
-5.42619e-05
1.32938e-05
-1.03835e-05
5.49885e-05
9.44833e-06
-2.22949e-05
6.92036e-05
-4.38544e-05
5.89312e-05
-6.66713e-05
4.75012e-05
-8.4443e-05
3.72636e-05
-8.9354e-05
2.07181e-05
-7.65517e-05
-3.64236e-06
-5.06444e-05
-2.84673e-05
-2.52621e-05
-2.34179e-05
-1.11811e-05
1.8873e-05
-2.26159e-05
5.53795e-05
-4.26174e-05
4.33412e-05
-5.10077e-05
1.09345e-05
-3.25974e-05
-2.74451e-05
-2.72885e-05
-2.20823e-05
-4.58437e-05
-1.74951e-05
-4.21643e-05
-8.16315e-05
-3.79037e-05
-6.14808e-05
-3.47586e-05
-2.15115e-05
-2.47253e-05
-5.74864e-05
-2.59918e-05
-6.14723e-05
-2.85043e-05
-5.17416e-05
-3.27055e-05
-6.19255e-06
6.86203e-05
-4.63794e-05
-4.05543e-05
0.000109759
-8.76232e-05
0.000106003
-0.000137353
9.72207e-05
-0.00016913
6.89018e-05
-0.000177657
2.91345e-05
-0.000187876
6.48605e-06
-0.000202643
-1.40239e-05
-0.000179853
-4.63545e-05
-0.000111368
-4.96429e-05
-2.768e-05
-2.83172e-05
2.33186e-05
-7.6802e-06
3.81226e-05
-3.92739e-06
2.77085e-06
7.75892e-06
-7.15559e-05
5.20901e-05
-0.000109529
2.0343e-05
-0.000111055
-8.02347e-05
-8.76869e-05
-8.49844e-05
-6.29875e-05
-4.63249e-05
-7.36219e-05
-4.66371e-05
-8.35334e-05
-5.15126e-05
-9.36562e-05
-4.16212e-05
-0.000105431
5.58267e-06
8.61859e-05
-0.000123007
-5.68049e-05
0.000166596
-0.000116054
0.000165243
-0.000185958
0.000167005
-0.000233665
0.000116383
-0.000272866
6.79743e-05
-0.000321043
5.45083e-05
-0.000324758
-1.02204e-05
-0.000306136
-6.48616e-05
-0.000270531
-8.53667e-05
-0.000205682
-9.33042e-05
-0.000130353
-8.31447e-05
-0.000164876
3.04995e-05
-0.000266472
0.000109263
-0.00027427
5.97917e-05
-0.000211412
-4.26365e-05
-0.000169135
-0.000122605
-0.000136021
-0.000118183
-9.94259e-05
-8.30049e-05
-0.000107156
-3.85393e-05
-0.000119106
-3.94599e-05
-0.000135289
-2.5445e-05
-0.000145888
1.6181e-05
8.64387e-05
-0.000146148
-5.00669e-05
0.000217027
-9.49172e-05
0.000210215
-0.000166643
0.000239403
-0.000232409
0.000182573
-0.000287011
0.000122665
-0.000321364
8.9011e-05
-0.000311473
-1.96198e-05
-0.000297618
-7.89188e-05
-0.000288715
-9.43407e-05
-0.000285406
-9.6941e-05
-0.000272964
-9.59551e-05
-0.000312495
6.99508e-05
-0.000335819
0.000132497
-0.000241939
-3.41613e-05
-0.000173475
-0.000111059
-0.000172183
-0.000123678
-0.000163167
-0.000127124
-0.000130728
-0.000115529
-0.000123297
-4.58445e-05
-0.000134018
-2.80419e-05
-0.000142984
-1.64725e-05
-0.00014537
1.85657e-05
7.91883e-05
-0.000138173
-3.0249e-05
0.000248051
-6.511e-05
0.000246021
-0.000130656
0.000305424
-0.000209523
0.000261543
-0.000236732
0.000149898
-0.000260866
0.000113158
-0.00028374
3.27724e-06
-0.000290557
-7.18675e-05
-0.000288131
-9.66053e-05
-0.000293443
-9.1973e-05
-0.000324112
-6.57838e-05
-0.00028883
3.4591e-05
-0.000208601
5.21955e-05
-0.000173848
-6.88482e-05
-0.000172494
-0.000111889
-0.000173649
-0.000122598
-0.000176093
-0.00012484
-0.000179248
-0.000112741
-0.000182483
-4.25577e-05
-0.000171042
-3.86042e-05
-0.000144435
-4.27992e-05
-0.000112629
-1.32394e-05
6.41375e-05
-9.76088e-05
-1.2296e-05
0.000260663
-5.32347e-05
0.000287486
-0.000117603
0.000369865
-0.000181935
0.000325882
-0.000188133
0.000156099
-0.000177549
0.000102574
-0.000186243
1.19734e-05
-0.000221892
-3.62183e-05
-0.000256241
-6.2258e-05
-0.000275192
-7.30023e-05
-0.000280148
-6.07284e-05
-0.000254441
8.82348e-06
-0.000203972
1.66529e-06
-0.000177099
-9.54873e-05
-0.000172793
-0.00011631
-0.000167695
-0.000127859
-0.000163956
-0.000128918
-0.000172231
-0.00010507
-0.000182144
-3.26216e-05
-0.000170196
-5.01288e-05
-0.00014241
-7.01122e-05
-9.3457e-05
-6.22516e-05
1.61245e-05
-4.53207e-05
-1.49494e-05
0.000275299
-6.46965e-05
0.00033725
-0.000120128
0.000425311
-0.000144589
0.000350349
-0.000144955
0.000156467
-0.000128876
8.64985e-05
-0.000126948
1.00471e-05
-0.000143474
-1.96915e-05
-0.00016788
-3.78521e-05
-0.000186916
-5.39674e-05
-0.000198473
-4.91788e-05
-0.000199743
1.01126e-05
-0.000197384
-6.4895e-07
-0.000186371
-0.000106405
-0.000171636
-0.000131093
-0.000155543
-0.000144295
-0.000143194
-0.000141592
-0.000142348
-0.000105932
-0.000147717
-2.72063e-05
-0.000144102
-5.35426e-05
-0.000129989
-8.4432e-05
-0.000102654
-8.98099e-05
-4.31084e-05
-4.33379e-05
-2.73649e-05
0.000302361
-7.02121e-05
0.000380104
-0.000105335
0.00046044
-0.00011917
0.000364192
-0.000123646
0.000160946
-0.000110135
7.29908e-05
-0.000105917
5.83197e-06
-9.98581e-05
-2.57496e-05
-0.000100931
-3.67777e-05
-0.000114413
-4.04882e-05
-0.000133991
-2.96e-05
-0.000102711
-2.11689e-05
-7.48496e-05
-2.85086e-05
-9.40606e-05
-8.71981e-05
-0.000121092
-0.00010406
-0.000139895
-0.000125496
-0.000158041
-0.000123445
-0.00016293
-0.00010104
-0.000146378
-4.37522e-05
-0.000136365
-6.3557e-05
-0.000125277
-9.55161e-05
-0.000114101
-0.000100977
-6.96216e-05
-8.75598e-05
-1.81022e-05
0.0003204
-6.2718e-05
0.000424724
-9.32242e-05
0.000490951
-9.29433e-05
0.000363918
-0.000101041
0.000169048
-8.76756e-05
5.96302e-05
-8.37417e-05
1.90152e-06
-7.54062e-05
-3.40829e-05
-7.49202e-05
-3.72608e-05
-7.33048e-05
-4.21027e-05
-6.89506e-05
-3.39531e-05
-5.19067e-05
-3.82116e-05
-4.11788e-05
-3.92346e-05
-5.24201e-05
-7.59569e-05
-7.75762e-05
-7.89012e-05
-0.00010763
-9.54407e-05
-0.000137642
-9.34296e-05
-0.000148709
-8.99707e-05
-0.000127809
-6.46489e-05
-0.000118728
-7.26336e-05
-0.000122684
-9.15561e-05
-0.000127337
-9.63187e-05
-7.65631e-05
-0.000120386
-2.84763e-06
0.000323288
-4.61273e-05
0.000468013
-8.99468e-05
0.000534776
-8.27644e-05
0.000356744
-8.59615e-05
0.00017225
-7.116e-05
4.48337e-05
-6.59508e-05
-3.30363e-06
-5.70911e-05
-4.29396e-05
-5.58099e-05
-3.85386e-05
-5.53627e-05
-4.25488e-05
-5.90468e-05
-3.02658e-05
-5.51509e-05
-4.21076e-05
-4.81161e-05
-4.62653e-05
-5.43095e-05
-6.97627e-05
-6.19291e-05
-7.12775e-05
-7.5101e-05
-8.2266e-05
-9.17338e-05
-7.67928e-05
-0.000102245
-7.94554e-05
-0.000100181
-6.67094e-05
-0.000100838
-7.19722e-05
-0.000107155
-8.52343e-05
-0.000113301
-9.01671e-05
-8.73586e-05
-0.000102502
-1.18372e-05
0.00033613
-5.54521e-05
0.000511636
-9.72532e-05
0.000576582
-8.40183e-05
0.000343518
-7.70178e-05
0.000165256
-5.99397e-05
2.77614e-05
-5.22135e-05
-1.1025e-05
-4.5643e-05
-4.95058e-05
-4.38937e-05
-4.02835e-05
-4.09776e-05
-4.54614e-05
-3.86837e-05
-3.25553e-05
-3.68485e-05
-4.39394e-05
-4.16603e-05
-4.14493e-05
-5.16926e-05
-5.97275e-05
-6.40818e-05
-5.8884e-05
-7.76134e-05
-6.87307e-05
-8.90272e-05
-6.53747e-05
-9.87242e-05
-6.97538e-05
-0.000101812
-6.36167e-05
-0.000107277
-6.6502e-05
-0.000118316
-7.41895e-05
-0.000130198
-7.82794e-05
-8.10412e-05
-0.000136511
-6.09076e-05
0.000397152
-0.000105044
0.000555784
-0.000118577
0.000590123
-9.57842e-05
0.000320737
-7.40489e-05
0.000143526
-5.54357e-05
9.15457e-06
-4.42223e-05
-2.22331e-05
-4.02958e-05
-5.34272e-05
-4.07207e-05
-3.98535e-05
-4.1269e-05
-4.49087e-05
-4.19042e-05
-3.1915e-05
-4.36539e-05
-4.21858e-05
-4.50735e-05
-4.00246e-05
-5.20405e-05
-5.27563e-05
-5.98164e-05
-5.1103e-05
-6.96057e-05
-5.89367e-05
-7.93077e-05
-5.56676e-05
-8.8891e-05
-6.01653e-05
-9.51693e-05
-5.73332e-05
-0.000103005
-5.86605e-05
-0.000115274
-6.19158e-05
-0.000130655
-6.28924e-05
-6.47326e-05
-0.000146957
-9.90182e-05
0.000496177
-0.000135824
0.000592601
-0.000131712
0.000586019
-0.000106864
0.000295901
-7.45697e-05
0.000111239
-5.37372e-05
-1.16713e-05
-4.06903e-05
-3.52737e-05
-3.78118e-05
-5.62996e-05
-3.82781e-05
-3.93812e-05
-3.86583e-05
-4.45226e-05
-3.8705e-05
-3.18623e-05
-4.07289e-05
-4.01564e-05
-4.60824e-05
-3.46652e-05
-5.50381e-05
-4.37951e-05
-6.50272e-05
-4.11081e-05
-7.51667e-05
-4.87915e-05
-8.42333e-05
-4.65952e-05
-9.38898e-05
-5.05028e-05
-0.000102801
-4.84157e-05
-0.00011297
-4.84858e-05
-0.000124891
-4.99888e-05
-0.000138441
-4.93364e-05
-4.96818e-05
-0.000153485
-9.14896e-05
0.000587677
-0.000127031
0.000628153
-0.000124929
0.000583925
-0.000105893
0.000276876
-7.35865e-05
7.89407e-05
-5.15645e-05
-3.36862e-05
-3.94114e-05
-4.742e-05
-3.68895e-05
-5.88144e-05
-3.72986e-05
-3.89652e-05
-3.88222e-05
-4.29921e-05
-4.06247e-05
-3.00531e-05
-4.48268e-05
-3.59478e-05
-4.96198e-05
-2.98656e-05
-5.64511e-05
-3.69573e-05
-6.33299e-05
-3.42229e-05
-7.21317e-05
-3.99832e-05
-8.10524e-05
-3.76682e-05
-9.05134e-05
-4.10353e-05
-9.89664e-05
-3.99565e-05
-0.000107023
-4.0423e-05
-0.000116244
-4.07608e-05
-0.000126503
-3.90711e-05
-3.74027e-05
-0.000138776
-6.76497e-05
0.000655337
-0.000105304
0.000665819
-0.000105916
0.000584549
-9.4274e-05
0.000265245
-6.49712e-05
4.9646e-05
-4.38318e-05
-5.48178e-05
-3.34119e-05
-5.7832e-05
-3.1914e-05
-6.03043e-05
-3.32177e-05
-3.76535e-05
-3.60021e-05
-4.01999e-05
-3.94663e-05
-2.65812e-05
-4.45688e-05
-3.08376e-05
-5.08725e-05
-2.35545e-05
-5.88302e-05
-2.89923e-05
-6.7369e-05
-2.56769e-05
-7.64003e-05
-3.09448e-05
-8.49137e-05
-2.91478e-05
-9.37774e-05
-3.21644e-05
-0.000102298
-3.14288e-05
-0.000110307
-3.24076e-05
-0.00011809
-3.29705e-05
-0.000125168
-3.19861e-05
-3.0173e-05
-0.000132391
-4.93026e-05
0.00070465
-7.30813e-05
0.000689611
-7.30291e-05
0.000584508
-6.60722e-05
0.0002583
-4.14701e-05
2.50527e-05
-2.59942e-05
-7.02849e-05
-1.99512e-05
-6.38661e-05
-2.10652e-05
-5.91814e-05
-2.454e-05
-3.417e-05
-3.01847e-05
-3.45465e-05
-3.65577e-05
-2.01997e-05
-4.4224e-05
-2.3163e-05
-5.18251e-05
-1.59453e-05
-6.03056e-05
-2.05037e-05
-6.86865e-05
-1.72881e-05
-7.76818e-05
-2.19417e-05
-8.60698e-05
-2.07523e-05
-9.42909e-05
-2.39357e-05
-0.000102009
-2.37029e-05
-0.000109266
-2.51435e-05
-0.000116674
-2.55557e-05
-0.000123777
-2.48763e-05
-2.35324e-05
-0.000130411
-3.37426e-05
0.000738405
-3.5239e-05
0.00069112
-2.49406e-05
0.000574223
-1.60532e-05
0.000249425
-1.33439e-06
1.03439e-05
2.63057e-06
-7.424e-05
-9.7485e-08
-6.11282e-05
-7.56791e-06
-5.17011e-05
-1.52423e-05
-2.64859e-05
-2.41377e-05
-2.56415e-05
-3.26069e-05
-1.17212e-05
-4.16764e-05
-1.40844e-05
-5.05298e-05
-7.08303e-06
-5.98166e-05
-1.12082e-05
-6.86426e-05
-8.45373e-06
-7.7688e-05
-1.2888e-05
-8.62648e-05
-1.21674e-05
-9.44826e-05
-1.57099e-05
-0.000102047
-1.61301e-05
-0.00010924
-1.79435e-05
-0.000116436
-1.83515e-05
-0.000123222
-1.80836e-05
-1.73732e-05
-0.000129374
-9.19602e-06
0.000747613
2.84477e-06
0.000679092
3.01746e-05
0.000546905
4.89195e-05
0.000230691
5.05793e-05
8.69465e-06
3.93644e-05
-6.30137e-05
2.52893e-05
-4.70422e-05
9.51575e-06
-3.59168e-05
-3.54704e-06
-1.34128e-05
-1.70224e-05
-1.21559e-05
-2.87687e-05
3.49277e-08
-4.03863e-05
-2.45705e-06
-5.08582e-05
3.39822e-06
-6.1355e-05
-7.02171e-07
-7.11205e-05
1.32064e-06
-8.06186e-05
-3.38109e-06
-8.90665e-05
-3.71105e-06
-9.70205e-05
-7.74755e-06
-0.00010459
-8.55219e-06
-0.000112178
-1.03476e-05
-0.000120219
-1.03036e-05
-0.000127999
-1.02961e-05
-1.02248e-05
-0.00013514
1.28869e-05
0.000734737
4.12868e-05
0.000650704
8.36953e-05
0.00050451
0.00011277
0.000201628
0.000101614
1.98628e-05
7.41856e-05
-3.55729e-05
4.7556e-05
-2.04009e-05
2.41647e-05
-1.25141e-05
6.40549e-06
4.35749e-06
-1.01857e-05
4.44622e-06
-2.41889e-05
1.40485e-05
-3.77031e-05
1.10674e-05
-4.97613e-05
1.54663e-05
-6.14238e-05
1.097e-05
-7.19477e-05
1.18539e-05
-8.2076e-05
6.75642e-06
-9.14715e-05
5.69341e-06
-0.000100947
1.737e-06
-0.000110644
1.15305e-06
-0.000121085
1.01302e-07
-0.000131788
4.07267e-07
-0.000141266
-8.10088e-07
-2.18647e-06
-0.000149297
3.15682e-05
0.000703178
7.92652e-05
0.000603017
0.000138283
0.000445501
0.00016571
0.000174212
0.000140391
4.51951e-05
9.98673e-05
4.96404e-06
6.42748e-05
1.5204e-05
3.52408e-05
1.65319e-05
1.27482e-05
2.68616e-05
-7.13218e-06
2.43378e-05
-2.34872e-05
3.04144e-05
-3.85826e-05
2.61734e-05
-5.16426e-05
2.85365e-05
-6.40057e-05
2.33431e-05
-7.51254e-05
2.29834e-05
-8.59578e-05
1.75984e-05
-9.64003e-05
1.61452e-05
-0.000107638
1.29834e-05
-0.00011994
1.34641e-05
-0.000132487
1.26565e-05
-0.000144112
1.20399e-05
-0.000153518
8.60382e-06
5.66066e-06
-0.000161357
5.45935e-05
0.000648592
0.000120477
0.000537143
0.000188818
0.000377172
0.000196554
0.000166489
0.000157622
8.41426e-05
0.000110075
5.25238e-05
7.19338e-05
5.33585e-05
4.12267e-05
4.72512e-05
1.70861e-05
5.1014e-05
-4.20697e-06
4.56425e-05
-2.19732e-05
4.81918e-05
-3.8383e-05
4.25942e-05
-5.26049e-05
4.27689e-05
-6.60468e-05
3.67952e-05
-7.83269e-05
3.52736e-05
-9.06873e-05
2.99685e-05
-0.000103507
2.89744e-05
-0.000117734
2.7219e-05
-0.000132131
2.78699e-05
-0.000144337
2.48716e-05
-0.000153412
2.11231e-05
-0.000160352
1.55516e-05
1.28496e-05
-0.000167533
8.67566e-05
0.000561845
0.000161908
0.000462004
0.000213985
0.000325108
0.000195972
0.000184515
0.000151899
0.000128231
0.000105818
9.86178e-05
6.95009e-05
8.96889e-05
3.89765e-05
7.77879e-05
1.45e-05
7.55025e-05
-7.27169e-06
6.74258e-05
-2.55374e-05
6.64688e-05
-4.24934e-05
5.95611e-05
-5.73528e-05
5.76391e-05
-7.15503e-05
5.10031e-05
-8.49153e-05
4.86487e-05
-9.89669e-05
4.40297e-05
-0.000114138
4.4155e-05
-0.000129449
4.25386e-05
-0.000142448
4.08782e-05
-0.000151548
3.39805e-05
-0.000157374
2.6957e-05
-0.000163384
2.15695e-05
1.99257e-05
-0.000170453
0.000104968
0.000456891
0.000168287
0.000398697
0.000193704
0.000299704
0.000166578
0.000211656
0.000128754
0.000166068
9.14311e-05
0.000135954
6.09026e-05
0.00012023
3.35681e-05
0.000105135
1.06264e-05
9.84562e-05
-1.04562e-05
8.852e-05
-2.86159e-05
8.46397e-05
-4.57313e-05
7.66875e-05
-6.11484e-05
7.3067e-05
-7.63836e-05
6.62488e-05
-9.16519e-05
6.39269e-05
-0.000108273
6.066e-05
-0.000125045
6.09375e-05
-0.000139063
5.65657e-05
-0.000147849
4.96729e-05
-0.000152753
3.88932e-05
-0.000157179
3.13909e-05
-0.000162493
2.68916e-05
2.48018e-05
-0.000167362
8.25316e-05
0.000374377
0.000130258
0.000350987
0.000143667
0.000286312
0.000124234
0.000231103
9.87032e-05
0.000191612
7.09741e-05
0.000163696
4.60359e-05
0.000145181
2.22315e-05
0.000128951
1.21012e-06
0.000119489
-1.8759e-05
0.000108501
-3.65317e-05
0.000102424
-5.36561e-05
9.38228e-05
-6.95147e-05
8.89363e-05
-8.55856e-05
8.23299e-05
-0.000102256
8.06076e-05
-0.000119392
7.78056e-05
-0.000134243
7.57974e-05
-0.000144045
6.63774e-05
-0.000148527
5.41633e-05
-0.000152355
4.27292e-05
-0.000156538
3.5582e-05
-0.000159839
3.02004e-05
2.62823e-05
-0.000161312
4.79426e-05
0.000326449
8.23913e-05
0.000316554
9.3415e-05
0.000275302
8.57821e-05
0.000238749
7.0376e-05
0.000207031
5.10232e-05
0.000183061
3.15147e-05
0.000164701
1.16307e-05
0.000148847
-6.96163e-06
0.000138093
-2.53195e-05
0.00012687
-4.23231e-05
0.000119438
-5.91641e-05
0.000110675
-7.57256e-05
0.000105508
-9.32822e-05
9.98965e-05
-0.000111498
9.88329e-05
-0.000128121
9.44387e-05
-0.000139059
8.67448e-05
-0.000143835
7.11623e-05
-0.00014679
5.71263e-05
-0.00015046
4.64075e-05
-0.000153072
3.82013e-05
-0.000153687
3.0823e-05
2.3633e-05
-0.00015103
2.73816e-05
0.000299081
5.03378e-05
0.000293611
5.88455e-05
0.000266807
5.57508e-05
0.000241856
4.51572e-05
0.000217637
3.05058e-05
0.000197724
1.42989e-05
0.00018092
-2.97607e-06
0.000166134
-1.9883e-05
0.000155012
-3.69139e-05
0.000143912
-5.32446e-05
0.00013578
-6.98212e-05
0.000127262
-8.66221e-05
0.000122319
-0.000104751
0.000118035
-0.000122071
0.000116162
-0.000134928
0.000107305
-0.000140245
9.20707e-05
-0.000142921
7.38473e-05
-0.000145743
5.9956e-05
-0.000147463
4.81361e-05
-0.000147067
3.78123e-05
-0.000143723
2.74871e-05
1.73655e-05
-0.000137449
1.53292e-05
0.000283764
2.98134e-05
0.000279139
3.52875e-05
0.000261345
3.33608e-05
0.000243795
2.57646e-05
0.000225245
1.45764e-05
0.000208924
1.24568e-06
0.000194262
-1.36854e-05
0.000181076
-2.90451e-05
0.000170382
-4.49695e-05
0.000159847
-6.08892e-05
0.00015171
-7.76177e-05
0.000144
-9.5433e-05
0.000140144
-0.000113694
0.000136306
-0.000128461
0.000130939
-0.000135648
0.000114501
-0.000137856
9.42872e-05
-0.000140592
7.6591e-05
-0.000142289
6.16608e-05
-0.00014175
4.76049e-05
-0.00013841
3.44799e-05
-0.000132377
2.14612e-05
9.3219e-06
-0.000124327
8.10094e-06
0.000275675
1.57919e-05
0.000271459
1.78656e-05
0.000259283
1.50921e-05
0.000246579
8.07124e-06
0.000232277
-1.94135e-06
0.000218948
-1.40656e-05
0.000206397
-2.7747e-05
0.000194768
-4.21415e-05
0.000184787
-5.72632e-05
0.000174979
-7.29653e-05
0.000167422
-8.96699e-05
0.000160714
-0.000106982
0.000157466
-0.000123052
0.000152385
-0.000132011
0.000139907
-0.000134762
0.000117261
-0.000136485
9.60189e-05
-0.000137375
7.74884e-05
-0.000136007
6.0301e-05
-0.000132301
4.39062e-05
-0.000126368
2.85532e-05
-0.000119001
1.41012e-05
7.44893e-07
-0.000110418
3.40207e-06
0.000272284
6.50588e-06
0.000268366
6.13161e-06
0.000259668
2.65098e-06
0.000250071
-3.99355e-06
0.000238932
-1.3128e-05
0.000228092
-2.42659e-05
0.000217545
-3.69165e-05
0.000207428
-5.0479e-05
0.00019836
-6.51611e-05
0.000189671
-8.08676e-05
0.000183138
-9.81259e-05
0.000177982
-0.000115176
0.000174525
-0.000127195
0.000164413
-0.000130937
0.000143657
-0.000132238
0.000118569
-0.000133312
9.71005e-05
-0.00013231
7.64944e-05
-0.000129118
5.71157e-05
-0.00012386
3.86549e-05
-0.000117043
2.1743e-05
-0.000109038
6.10261e-06
-8.30236e-06
-9.99851e-05
5.32631e-08
0.000272241
-7.4885e-07
0.000269178
-3.92324e-06
0.000262852
-9.25097e-06
0.000255408
-1.68875e-05
0.000246578
-2.63928e-05
0.000237607
-3.73981e-05
0.00022856
-4.96043e-05
0.000219644
-6.27754e-05
0.00021154
-7.71338e-05
0.000204038
-9.26751e-05
0.000198688
-0.000109037
0.000194352
-0.000123001
0.000188498
-0.000128905
0.000170324
-0.000129295
0.000144054
-0.000129486
0.000118769
-0.000127936
9.55577e-05
-0.00012434
7.2905e-05
-0.000119003
5.17857e-05
-0.000112412
3.20698e-05
-0.000104828
1.41652e-05
-9.64455e-05
-2.27418e-06
-1.73043e-05
-8.74382e-05
-2.14235e-06
0.000274392
-5.30857e-06
0.000272354
-1.00845e-05
0.000267638
-1.63995e-05
0.000261733
-2.44515e-05
0.000254639
-3.4002e-05
0.000247167
-4.48621e-05
0.000239429
-5.69025e-05
0.000231693
-7.01069e-05
0.000224753
-8.46739e-05
0.000218613
-0.000100552
0.000214574
-0.00011599
0.000209797
-0.000125073
0.00019759
-0.000126678
0.000171936
-0.000126312
0.000143695
-0.000125258
0.000117721
-0.000122093
9.23997e-05
-0.00011737
6.81884e-05
-0.000111326
4.5747e-05
-0.000104295
2.50455e-05
-9.63677e-05
6.24296e-06
-8.77045e-05
-1.09322e-05
-2.63927e-05
-7.86111e-05
-4.89609e-06
0.000279297
-1.06032e-05
0.00027807
-1.75011e-05
0.000274544
-2.55151e-05
0.000269755
-3.476e-05
0.000263892
-4.50821e-05
0.000257497
-5.63969e-05
0.000250752
-6.87218e-05
0.000244026
-8.20629e-05
0.000238101
-9.64904e-05
0.000233048
-0.000111006
0.000229097
-0.000122275
0.000221074
-0.00012558
0.000200901
-0.000124282
0.000170645
-0.000122369
0.000141788
-0.000118665
0.000114024
-0.000113376
8.71162e-05
-0.000107069
6.18874e-05
-9.99488e-05
3.86322e-05
-9.22093e-05
1.73111e-05
-8.40629e-05
-1.89844e-06
-7.57349e-05
-1.92555e-05
-3.50083e-05
-6.71148e-05
-6.3858e-06
0.00028569
-1.3221e-05
0.000284913
-2.09597e-05
0.00028229
-2.96208e-05
0.000278424
-3.93427e-05
0.000273622
-5.00709e-05
0.000268233
-6.1771e-05
0.000262459
-7.45226e-05
0.000256785
-8.82345e-05
0.00025182
-0.00010286
0.000247681
-0.000116656
0.000242899
-0.000123635
0.00022806
-0.000123112
0.000200384
-0.000120922
0.000168461
-0.000117681
0.000138553
-0.000112787
0.000109135
-0.000106888
8.12224e-05
-0.000100264
5.5269e-05
-9.30314e-05
3.14039e-05
-8.52188e-05
9.50297e-06
-7.68077e-05
-1.03052e-05
-6.8412e-05
-2.76471e-05
-4.33538e-05
-6.00627e-05
-9.26276e-06
0.00029496
-1.85075e-05
0.000294164
-2.80969e-05
0.000291886
-3.8328e-05
0.000288661
-4.93488e-05
0.000284649
-6.10916e-05
0.000279982
-7.35761e-05