/*--------------------------------*- C++ -*----------------------------------*\
| =========                 |                                                 |
| \\      /  F ield         | OpenFOAM: The Open Source CFD Toolbox           |
|  \\    /   O peration     | Version:  2012                                  |
|   \\  /    A nd           | Website:  www.openfoam.com                      |
|    \\/     M anipulation  |                                                 |
\*---------------------------------------------------------------------------*/
FoamFile
{
    version     2.0;
    format      ascii;
    class       volScalarField;
    location    "0.91";
    object      rho;
}
// * * * * * * * * * * * * * * * * * * * * * * * * * * * * * * * * * * * * * //

dimensions      [1 -3 0 0 0 0 0];


internalField   nonuniform List<scalar> 
2268
(
1000.05
1000.05
1000.05
1000.05
1000.05
1000.05
1000.05
1000.05
1000.05
1000.05
1000.05
1000.05
1000.05
1000.05
1000.05
1000.05
1000.05
1000.05
1000.05
1000.05
1000.05
1000.05
999.938
1000.05
1000.05
1000.05
1000.05
1000.05
1000.05
1000.05
1000.05
1000.05
1000.05
1000.05
1000.05
1000.05
1000.05
1000.05
1000.05
1000.05
1000.05
1000.05
1000.05
1000.05
1000.05
999.803
1000.05
1000.05
1000.05
1000.05
1000.05
1000.05
1000.05
1000.05
1000.05
1000.05
1000.05
1000.05
1000.05
1000.05
1000.05
1000.05
1000.05
1000.05
1000.05
1000.05
1000.05
1000.05
999.797
1000.05
1000.05
1000.05
1000.05
1000.05
1000.05
1000.05
1000.05
1000.05
1000.05
1000.05
1000.05
1000.05
1000.05
1000.05
1000.05
1000.05
1000.05
1000.05
1000.05
1000.05
1000.05
999.797
1000.05
1000.05
1000.05
1000.05
1000.05
1000.05
1000.05
1000.05
1000.05
1000.05
1000.05
1000.05
1000.05
1000.05
1000.05
1000.05
1000.05
1000.05
1000.05
1000.05
1000.05
1000.05
999.806
1000.05
1000.05
1000.05
1000.05
1000.05
1000.05
1000.05
1000.05
1000.05
1000.05
1000.05
1000.05
1000.05
1000.05
1000.05
1000.05
1000.05
1000.05
1000.05
1000.05
1000.05
1000.05
999.991
1000.05
1000.05
1000.05
1000.05
1000.05
1000.05
1000.05
1000.05
1000.05
1000.05
1000.05
1000.05
1000.05
1000.05
1000.05
1000.05
1000.05
1000.05
1000.03
999.96
1000.04
1000.03
1000.05
1000.05
1000.05
1000.05
1000.05
1000.05
1000.05
1000.05
1000.05
1000.05
1000.05
1000.05
1000.05
1000.05
1000.05
1000.05
1000.05
999.994
999.179
995.65
991.202
993.568
1000.05
1000.05
910.567
497.193
2.59155
4.36979
172.215
669.888
867.115
917.768
927.16
922.708
829.269
807.941
920.913
951.939
951.938
967.409
972.761
974.837
974.837
910.555
370.868
2.59157
4.69744
26.4841
67.2362
196.879
599.692
946.564
972.581
951.91
935.827
935.839
750.299
548.795
720.805
738.356
845.436
981.527
905.53
312.805
2.5916
2.63987
6.359
11.834
11.8333
369.637
976.798
976.798
963.865
866.347
935.833
928.023
627.843
240.497
210.58
597.927
981.53
918.903
514.157
2.59156
2.59157
138.799
359.585
40.1262
535.052
976.799
976.798
976.798
962.288
683.029
877.753
848.51
246.407
210.579
788.872
981.53
919.368
486.717
2.59149
49.527
572.8
573.796
327.585
847.701
976.799
976.799
976.217
868.886
650.229
688.938
848.51
427.861
590.591
966.182
991.061
919.322
181.157
89.1732
246.648
246.646
487.325
777.65
976.8
976.8
976.772
825.151
321.385
333.242
229.471
603.093
833.698
973.411
991.06
991.06
539.243
275.839
519.599
209.263
16.0124
43.2438
845.121
976.8
976.799
918.41
345.642
157.377
165.203
167.245
200.425
850.402
970.684
951.61
984.326
712.758
714.016
684.358
29.8367
16.0124
29.876
635.925
976.799
975.838
699.996
162.71
157.379
157.467
169.961
169.963
593.401
858.165
950.251
898.784
1000.05
1000.05
1000.05
1000.05
1000.05
1000.05
1000.05
1000.05
1000.05
1000.05
1000.05
999.938
999.866
999.686
999.072
994.722
964.462
837.635
662.596
588.327
631.691
838.245
999.3
1000.05
1000.05
1000.05
1000.05
1000.05
1000.05
994.033
934.364
931.194
956.005
963.026
958.984
954.403
946.562
876.668
695.221
364.267
130.062
26.8051
27.1909
151.199
419.89
937.422
1000.05
1000.05
1000.05
999.3
893.296
535.385
338.902
317.773
384.94
560.74
701.106
727.566
707.367
510.385
166.427
17.9817
1.29345
1.29341
1.29335
7.41508
208.169
567.358
602.433
1000.05
999.817
988.598
761.219
255.068
198.927
198.926
134.531
90.4571
118.223
289.083
428.113
229.481
5.54533
1.29345
1.29342
1.29335
1.29738
8.31572
232.694
788.772
919.456
808.191
982.741
979.616
960.849
574.201
285.465
206.847
123.069
21.9882
14.7083
14.7084
19.4794
27.8037
13.5113
5.82285
1.40833
1.2933
1.29322
1.35269
56.0271
672.334
945.058
945.058
945.058
816.542
933.082
764.313
400.646
180.46
43.4314
39.0773
73.5182
124.506
69.7876
9.27674
1.29336
1.31928
1.46398
1.44387
1.55031
1.59451
1.42122
62.5707
654.151
945.058
945.059
945.058
577.733
716.151
275.225
64.7745
23.0895
4.21205
61.864
166.424
166.233
166.424
50.1135
1.29327
1.30842
2.30164
13.6911
66.6788
82.8996
21.4419
22.6607
281.023
885.54
945.059
924.78
238.133
240.145
28.2369
1.29316
1.48525
1.56974
2.66384
9.70706
93.3649
152.505
63.8517
1.29328
1.29319
9.01442
111.512
246.147
246.13
116.986
13.5975
84.008
649.157
945.058
938.011
55.1588
6.38303
3.25416
1.29315
1.29346
1.29555
1.29525
1.29317
1.29317
1.29316
14.2386
32.379
41.4889
62.2369
214.617
246.13
246.147
160.109
13.6034
44.3664
327.748
599.916
702.698
118.305
1.29294
1.30419
1.30137
1.29317
1.29319
1.2932
1.29319
1.2932
1.29321
1.29321
1.39815
3.47292
14.1884
67.3325
99.8331
58.7302
10.6959
13.6035
51.2491
146.461
158.941
175.283
185.642
1.29294
1.29436
1.30231
1.29319
1.2932
1.29322
1.29321
1.29321
1.29327
1.29341
1.29343
1.29383
1.29319
1.2932
1.2932
1.29322
1.29321
1.33427
2.06694
1.29321
1.29321
5.93312
185.697
1.29294
1.29317
1.29518
1.29321
1.2932
1.29322
1.29321
1.29321
1.2932
1.2933
1.2941
1.29433
1.2936
1.29319
1.29319
1.2932
1.2932
1.29321
1.2932
1.2932
1.29319
1.29318
162.487
1.29294
1.29301
1.29311
1.2932
1.29321
1.29322
1.29321
1.29321
1.2932
1.29321
1.29347
1.29434
1.2941
1.2932
1.2932
1.2932
1.2932
1.29321
1.29323
1.29323
1.2932
1.29342
24.5728
1.29295
1.29301
1.29313
1.29328
1.2932
1.29321
1.2932
1.29321
1.2932
1.2932
1.29319
1.29325
1.29332
1.2932
1.29319
1.2932
1.2932
1.29321
1.29323
1.29323
1.29321
1.29316
1.32199
1.29299
1.29303
1.29317
1.29362
1.2932
1.29321
1.29319
1.2932
1.29319
1.2932
1.2932
1.2932
1.29319
1.2932
1.29319
1.2932
1.29319
1.2932
1.29319
1.2932
1.29319
1.29317
1.29295
1.29301
1.29306
1.29316
1.29362
1.2932
1.2932
1.29319
1.29319
1.29319
1.29319
1.2932
1.29319
1.29319
1.29319
1.29319
1.29319
1.29319
1.29319
1.29319
1.29319
1.29319
1.29318
1.29297
1.29303
1.29348
1.29675
1.29319
1.29318
1.29319
1.29318
1.29318
1.29318
1.29319
1.29319
1.29319
1.29319
1.29319
1.29319
1.29319
1.29319
1.29319
1.29319
1.29319
1.29319
1.29319
1.29297
1.29308
1.29569
1.29732
1.29318
1.29317
1.29318
1.29317
1.29318
1.29318
1.29318
1.29318
1.29319
1.29318
1.29319
1.29319
1.29319
1.29319
1.29319
1.29319
1.29319
1.29319
1.29319
1.29297
1.29307
1.29547
1.29706
1.29315
1.29316
1.29317
1.29317
1.29318
1.29318
1.29318
1.29318
1.29318
1.29318
1.29319
1.29319
1.29319
1.29319
1.29319
1.29319
1.29318
1.29318
1.29318
1.29298
1.29305
1.29346
1.29379
1.29314
1.29315
1.29317
1.29317
1.29317
1.29317
1.29318
1.29318
1.29318
1.29318
1.29318
1.29318
1.29318
1.29318
1.29318
1.29318
1.29317
1.29317
1.29316
1.29298
1.29304
1.29308
1.29346
1.29313
1.29314
1.29316
1.29317
1.29317
1.29317
1.29318
1.29318
1.29318
1.29318
1.29318
1.29318
1.29318
1.29318
1.29317
1.29316
1.29315
1.29315
1.29315
1.29298
1.30927
1.31087
1.29424
1.2931
1.29315
1.29316
1.29317
1.29317
1.29317
1.29318
1.29318
1.29318
1.29318
1.29318
1.29318
1.29317
1.29316
1.29315
1.29314
1.29315
1.29318
1.29315
1.34233
1.48743
1.40543
1.29478
1.29311
1.29315
1.29316
1.29317
1.29317
1.29317
1.29317
1.29317
1.29318
1.29318
1.29318
1.29317
1.29316
1.29314
1.29313
1.29315
1.29318
1.29316
1.29308
1.49717
1.49743
1.39438
1.29404
1.29313
1.29316
1.29317
1.29317
1.29317
1.29317
1.29317
1.29317
1.29317
1.29317
1.29317
1.29315
1.29313
1.29312
1.29315
1.29317
1.29315
1.29307
1.29303
1.49742
1.44087
1.31558
1.29356
1.29316
1.29317
1.29317
1.29317
1.29317
1.29317
1.29317
1.29317
1.29317
1.29316
1.29315
1.29313
1.29312
1.29314
1.29316
1.29314
1.29305
1.29303
1.29301
1.34005
1.30507
1.29418
1.29322
1.29317
1.29317
1.29317
1.29317
1.29317
1.29317
1.29317
1.29317
1.29316
1.29315
1.29313
1.29313
1.29318
1.29318
1.29311
1.29304
1.29303
1.29301
1.293
1.29314
1.29315
1.29316
1.29317
1.29317
1.29317
1.29317
1.29317
1.29317
1.29317
1.29317
1.29316
1.29315
1.29313
1.29312
1.29314
1.29319
1.29315
1.29305
1.29303
1.29302
1.29301
1.29299
1.29316
1.29316
1.29317
1.29317
1.29317
1.29317
1.29317
1.29317
1.29317
1.29317
1.29316
1.29315
1.29314
1.29312
1.29311
1.29315
1.29312
1.29306
1.29304
1.29302
1.29301
1.293
1.29299
1.29317
1.29317
1.29317
1.29317
1.29317
1.29317
1.29317
1.29317
1.29316
1.29316
1.29315
1.29314
1.29312
1.29315
1.29328
1.29315
1.29305
1.29304
1.29303
1.29302
1.29301
1.293
1.29299
1.29317
1.29317
1.29317
1.29317
1.29317
1.29317
1.29316
1.29316
1.29316
1.29315
1.29314
1.29312
1.29314
1.29328
1.29326
1.29312
1.29304
1.29303
1.29303
1.29302
1.29302
1.29301
1.29301
1.29316
1.29316
1.29316
1.29316
1.29316
1.29316
1.29316
1.29316
1.29315
1.29314
1.29313
1.29311
1.29316
1.29327
1.29323
1.29305
1.29304
1.29303
1.29303
1.29303
1.29303
1.29302
1.29302
1.29316
1.29316
1.29316
1.29316
1.29316
1.29316
1.29315
1.29315
1.29314
1.29313
1.29311
1.2931
1.2931
1.29319
1.2931
1.29304
1.29304
1.29304
1.29304
1.29304
1.29304
1.29304
1.29303
1.29316
1.29315
1.29315
1.29315
1.29315
1.29315
1.29315
1.29314
1.29313
1.29311
1.2931
1.29309
1.29322
1.29306
1.29305
1.29304
1.29304
1.29304
1.29304
1.29305
1.29305
1.29305
1.29305
1.29315
1.29315
1.29315
1.29315
1.29315
1.29314
1.29314
1.29313
1.29311
1.2931
1.29319
1.29352
1.29321
1.29305
1.29305
1.29304
1.29304
1.29305
1.29305
1.29306
1.29306
1.29306
1.29306
1.29314
1.29314
1.29314
1.29314
1.29314
1.29313
1.29313
1.29311
1.2931
1.2931
1.2934
1.29351
1.29318
1.29305
1.29304
1.29305
1.29305
1.29306
1.29306
1.29306
1.29307
1.29307
1.29307
1.29313
1.29313
1.29313
1.29313
1.29313
1.29312
1.29311
1.2931
1.29309
1.29317
1.29347
1.29345
1.29305
1.29305
1.29305
1.29305
1.29306
1.29306
1.29307
1.29307
1.29308
1.29308
1.29308
1.29313
1.29313
1.29312
1.29312
1.29312
1.29311
1.2931
1.29309
1.29308
1.29313
1.29346
1.29312
1.29305
1.29305
1.29305
1.29306
1.29306
1.29307
1.29308
1.29308
1.29309
1.29309
1.29309
1.29312
1.29312
1.29312
1.29311
1.29311
1.2931
1.29309
1.29308
1.29308
1.2931
1.29329
1.29305
1.29305
1.29305
1.29305
1.29306
1.29307
1.29308
1.29308
1.29309
1.29309
1.2931
1.2931
1.29311
1.2931
1.2931
1.2931
1.29309
1.29308
1.29308
1.29307
1.29335
1.29371
1.29306
1.29305
1.29305
1.29305
1.29306
1.29307
1.29308
1.29309
1.29309
1.2931
1.2931
1.2931
1.2931
1.2931
1.2931
1.29309
1.29309
1.29308
1.29307
1.29307
1.29326
1.29402
1.294
1.29305
1.29305
1.29305
1.29306
1.29307
1.29308
1.29308
1.29309
1.2931
1.2931
1.2931
1.2931
1.29311
1.29308
1.29308
1.29308
1.29307
1.29307
1.29306
1.29306
1.29348
1.29401
1.29367
1.29305
1.29305
1.29305
1.29306
1.29308
1.29309
1.29309
1.2931
1.2931
1.2931
1.29311
1.29311
1.29311
1.29307
1.29307
1.29307
1.29307
1.29306
1.29306
1.29321
1.29368
1.29359
1.29309
1.29305
1.29305
1.29306
1.29308
1.29309
1.29309
1.2931
1.2931
1.2931
1.2931
1.2931
1.2931
1.2931
999.97
807.229
697.041
840.824
864.486
668.404
729.48
936.587
602.433
682.373
934.016
945.058
750.099
925.087
945.058
945.058
945.058
945.058
945.058
918.263
945.059
895.461
774.089
593.592
456.845
237.575
180.99
167.028
450.892
123.571
122.977
122.951
672.87
343.151
148.027
122.947
255.655
305.432
185.621
122.528
28.4297
45.0515
57.5121
54.9221
3.77453
40.424
59.4301
59.4391
1.30031
1.4875
2.28571
3.60223
1.29314
1.29313
1.29486
1.49675
1.29314
1.29316
1.35653
1.60735
1.29316
1.29346
1.29608
1.32168
1.29319
1.29318
1.29316
1.29586
1.29319
1.29319
1.29321
1.29329
1.29318
1.29318
1.29318
1.29319
1.29317
1.29317
1.29317
1.29317
1.29314
1.29313
1.29314
1.29313
1.29309
1.29308
1.29309
1.29309
1.29305
1.29304
1.29304
1.29303
1.29302
1.29301
1.29301
1.293
1.293
1.29299
1.29299
1.29298
1.29299
1.29298
1.29298
1.29297
1.29299
1.29298
1.29298
1.29297
1.29298
1.29298
1.29298
1.29297
1.29299
1.29299
1.29298
1.29298
1.293
1.293
1.293
1.293
1.29302
1.29302
1.29301
1.29301
1.29303
1.29303
1.29303
1.29303
1.29305
1.29305
1.29305
1.29304
1.29306
1.29306
1.29306
1.29306
1.29307
1.29307
1.29307
1.29307
1.29308
1.29308
1.29308
1.29308
1.29309
1.29309
1.29309
1.29309
1.2931
1.2931
1.29309
1.29309
1.2931
1.2931
1.2931
1.2931
1.2931
1.2931
1.2931
1.2931
1.29311
1.2931
1.2931
1.2931
1.2931
1.2931
1.2931
1.2931
941.073
870.456
139.57
35.6675
18.1292
30.4261
529.891
976.799
914.433
392.943
155.772
157.655
392.373
528.038
422.004
545.509
900.84
910.926
814.658
941.073
770.512
65.8079
196.38
47.1777
140.314
768.683
961.619
492.231
142.037
142.116
187.986
488.578
794.028
794.029
793.066
730.683
526.367
356.196
905.734
324.887
149.025
813.612
895.158
880.651
931.525
651.393
103.514
54.9878
228.452
350.584
350.581
285.219
297.46
344.551
181.35
29.4758
1.5096
771.194
324.874
558.527
928.231
928.231
931.525
931.535
632.595
54.9877
54.938
108.337
233.451
225.734
210.542
81.5944
17.8284
1.50954
1.50961
1.50963
620.126
374.908
563.19
472.856
340.384
577.113
756.236
751.748
590.206
378.088
42.9505
1.30263
1.30286
1.30287
12.3552
1.5821
2.36213
1.89464
1.37372
357.508
211.288
140.602
1.35943
1.35943
51.9708
200.926
385.258
255.849
212.946
124.588
4.30876
1.30252
1.30267
1.30284
1.58209
2.1488
1.32178
1.3218
194.32
15.5743
1.30129
1.87604
10.4599
19.08
1.34176
1.34164
1.34162
1.34157
11.0115
17.1258
21.3261
14.2385
3.37576
1.31959
1.31622
1.35563
1.41705
138.668
124.681
1.30112
3.11445
35.9895
44.4242
11.2761
1.42823
1.34163
2.4263
3.86915
46.6379
49.3907
47.8782
5.84701
1.33017
1.3281
1.42976
1.42984
69.2338
185.396
109.701
15.137
45.1414
44.4229
8.89944
1.3005
1.33509
1.2952
1.2952
1.2952
9.42733
7.64007
1.89524
1.33008
1.29701
1.41594
1.31727
11.3189
118.042
112.9
41.4648
45.1319
13.1729
1.29768
1.30163
1.32403
1.32403
1.30531
1.2952
1.29518
1.35994
1.32197
1.29746
1.29323
1.30088
1.29324
11.3193
11.8826
14.4059
4.81509
31.8738
1.30604
1.30607
1.34406
1.34031
1.29522
1.29523
1.29523
1.29569
1.29594
1.29538
1.29322
1.29323
1.29322
1.29323
53.8512
16.5887
2.57902
2.58006
6.19466
4.21174
1.29389
1.32914
1.34082
1.31354
1.29519
1.29555
1.29319
1.29321
1.29322
1.29328
1.29323
1.29322
1.29323
11.1428
18.8576
15.5928
13.839
1.36731
3.08185
1.29387
1.31649
1.3293
1.29898
1.2994
1.29622
1.29324
1.29319
1.29331
1.29333
1.29323
1.29322
1.29323
3.61045
9.13209
10.7804
6.31036
1.29321
1.34313
1.29695
1.29512
1.2931
1.29311
1.29318
1.29316
1.29318
1.29323
1.29332
1.29324
1.29321
1.29322
1.29337
1.77045
1.81519
1.79848
1.38569
1.29322
1.29682
1.29855
1.2937
1.29364
1.29381
1.29342
1.29326
1.29332
1.29342
1.29328
1.2932
1.29321
1.29326
1.29351
1.53432
1.74647
1.32953
1.29318
1.29318
1.29489
1.29856
1.29417
1.29522
1.29513
1.29353
1.29329
1.29339
1.29342
1.2933
1.2932
1.2932
1.29341
1.29351
1.35004
1.46618
1.46618
1.35699
1.29318
1.29359
1.29447
1.29528
1.29518
1.29354
1.29315
1.29315
1.29316
1.29318
1.2932
1.2932
1.2932
1.29347
1.2935
1.29378
1.30387
1.33591
1.3483
1.31115
1.29534
1.29733
1.29411
1.29313
1.29311
1.29309
1.2931
1.29311
1.29313
1.29315
1.29317
1.29319
1.29328
1.29324
1.29319
1.29319
1.2932
1.29331
1.29318
1.29317
1.29315
1.2931
1.29305
1.29302
1.29301
1.29302
1.29305
1.29308
1.29312
1.29315
1.29318
1.2932
1.2932
1.29317
1.29317
1.29316
1.29315
1.29311
1.29307
1.29303
1.29299
1.29297
1.29295
1.29295
1.29297
1.29318
1.29332
1.29314
1.29313
1.29317
1.29319
1.2932
1.29313
1.29311
1.29308
1.29305
1.29301
1.29298
1.29296
1.29294
1.29292
1.29291
1.29291
1.29292
1.29336
1.29357
1.29345
1.29313
1.29316
1.29319
1.2932
1.29307
1.29304
1.29301
1.29298
1.29296
1.29294
1.29293
1.29291
1.2929
1.29289
1.29289
1.2929
1.29311
1.29354
1.2936
1.29324
1.29316
1.2932
1.2932
1.29301
1.29299
1.29297
1.29295
1.29294
1.29293
1.29292
1.2929
1.29289
1.29288
1.29287
1.29297
1.29299
1.29317
1.29357
1.29338
1.29315
1.29323
1.29324
1.29299
1.29297
1.29295
1.29294
1.29293
1.29292
1.29291
1.2929
1.29288
1.29287
1.29286
1.29301
1.29311
1.29302
1.29354
1.29347
1.29316
1.29326
1.29334
1.29297
1.29296
1.29295
1.29294
1.29293
1.29292
1.29291
1.2929
1.29288
1.29286
1.29285
1.29287
1.29308
1.29301
1.29338
1.29349
1.29317
1.29332
1.29336
1.29297
1.29296
1.29295
1.29294
1.29294
1.29294
1.29293
1.29292
1.2929
1.29287
1.29284
1.29282
1.29305
1.29393
1.29302
1.29346
1.29321
1.29332
1.29333
1.29297
1.29296
1.29296
1.29296
1.29295
1.29295
1.29294
1.29293
1.29291
1.29288
1.29285
1.29281
1.29303
1.29416
1.29298
1.29327
1.2932
1.29324
1.29328
1.29297
1.29297
1.29297
1.29297
1.29297
1.29296
1.29295
1.29294
1.29292
1.2929
1.29286
1.29282
1.29291
1.29394
1.29299
1.29302
1.29313
1.29315
1.29349
1.29298
1.29298
1.29298
1.29298
1.29298
1.29298
1.29297
1.29295
1.29293
1.29291
1.29287
1.29282
1.29279
1.29293
1.29848
1.29325
1.29306
1.29313
1.29416
1.29299
1.29299
1.29299
1.29299
1.29299
1.29299
1.29298
1.29296
1.29294
1.29292
1.29288
1.29284
1.29278
1.2929
1.30223
1.29458
1.29301
1.29312
1.29421
1.29301
1.29301
1.293
1.293
1.293
1.293
1.29299
1.29297
1.29295
1.29293
1.29289
1.29285
1.29279
1.2928
1.3019
1.29628
1.29297
1.2931
1.29421
1.29303
1.29302
1.29302
1.29301
1.29301
1.29301
1.293
1.29298
1.29296
1.29294
1.2929
1.29286
1.2928
1.29275
1.29361
1.29718
1.29324
1.29307
1.2942
1.29304
1.29304
1.29303
1.29302
1.29302
1.29301
1.293
1.29299
1.29297
1.29294
1.29291
1.29286
1.2928
1.29274
1.29273
1.30278
1.29494
1.29307
1.2936
1.29305
1.29305
1.29304
1.29303
1.29303
1.29302
1.29301
1.293
1.29298
1.29295
1.29292
1.29287
1.29281
1.29274
1.29272
1.32977
1.30072
1.29307
1.29313
1.29307
1.29306
1.29305
1.29304
1.29304
1.29303
1.29302
1.293
1.29298
1.29296
1.29292
1.29288
1.29281
1.29274
1.29271
1.33259
1.31198
1.29311
1.29312
1.29308
1.29307
1.29306
1.29305
1.29304
1.29303
1.29302
1.29301
1.29299
1.29296
1.29293
1.29288
1.29282
1.29274
1.2927
1.33256
1.32261
1.29406
1.29311
1.29308
1.29308
1.29307
1.29306
1.29305
1.29304
1.29303
1.29301
1.29299
1.29297
1.29293
1.29288
1.29282
1.29274
1.29269
1.32457
1.32943
1.29584
1.2931
1.29309
1.29308
1.29307
1.29306
1.29305
1.29304
1.29303
1.29301
1.29299
1.29297
1.29293
1.29288
1.29282
1.29274
1.29268
1.29505
1.33803
1.29819
1.29308
1.2931
1.29309
1.29308
1.29307
1.29306
1.29304
1.29303
1.29301
1.29299
1.29297
1.29293
1.29288
1.29282
1.29274
1.29268
1.29267
1.34347
1.30258
1.29307
1.2931
1.29309
1.29308
1.29307
1.29306
1.29304
1.29303
1.29301
1.29299
1.29297
1.29293
1.29288
1.29282
1.29274
1.29267
1.29265
1.34346
1.30843
1.29306
1.2931
1.29309
1.29308
1.29307
1.29306
1.29304
1.29303
1.29301
1.29299
1.29297
1.29293
1.29288
1.29281
1.29273
1.29267
1.29264
1.34343
1.31101
1.29304
1.29309
1.29309
1.29308
1.29306
1.29305
1.29304
1.29303
1.29301
1.29299
1.29296
1.29293
1.29288
1.29281
1.29273
1.29266
1.29263
1.32292
1.31033
1.2932
)
;

boundaryField
{
    leftWall
    {
        type            calculated;
        value           nonuniform List<scalar> 
50
(
1000.05
1000.05
1000.05
1000.05
1000.05
1000.05
1000.05
1000.05
1000.05
1000.05
1000.05
1000.05
982.741
816.542
577.733
238.133
55.1588
118.305
185.642
185.697
162.487
24.5728
1.32199
1.29295
1.29297
1.29297
1.29297
1.29298
1.29298
1.29298
1.34233
1.49717
1.49742
1.34005
1.29314
1.29316
1.29317
1.29317
1.29316
1.29316
1.29316
1.29315
1.29314
1.29313
1.29313
1.29312
1.29311
1.2931
1.29308
1.29307
)
;
    }
    rightWall
    {
        type            calculated;
        value           nonuniform List<scalar> 
50
(
974.837
981.527
981.53
981.53
991.061
991.06
984.326
898.784
814.658
356.196
1.5096
1.50963
1.37372
1.3218
1.41705
1.42984
1.31727
1.29324
1.29323
1.29323
1.29323
1.29337
1.29351
1.29351
1.2935
1.29324
1.2932
1.2932
1.2932
1.2932
1.29324
1.29334
1.29336
1.29333
1.29328
1.29349
1.29416
1.29421
1.29421
1.2942
1.2936
1.29313
1.29312
1.29311
1.2931
1.29308
1.29307
1.29306
1.29304
1.2932
)
;
    }
    lowerWall
    {
        type            calculated;
        value           nonuniform List<scalar> 
62
(
1000.05
1000.05
1000.05
1000.05
1000.05
1000.05
1000.05
1000.05
1000.05
1000.05
1000.05
1000.05
1000.05
1000.05
1000.05
1000.05
1000.05
1000.05
1000.05
1000.05
1000.05
1000.05
999.938
999.938
999.803
999.797
999.797
999.806
999.991
1000.05
1000.05
999.97
807.229
697.042
840.824
910.567
910.555
905.53
918.903
919.368
919.322
539.243
712.758
910.567
497.193
2.59155
4.36979
172.215
669.888
867.115
917.768
927.16
922.708
829.269
807.941
920.913
951.939
951.938
967.409
972.761
974.837
974.837
)
;
    }
    atmosphere
    {
        type            calculated;
        value           nonuniform List<scalar> 
46
(
1.29316
1.29316
1.29316
1.29315
1.29315
1.29315
1.2933
1.29377
1.29368
1.29318
1.29314
1.29314
1.29316
1.29317
1.29318
1.29319
1.29319
1.29319
1.2932
1.2932
1.2932
1.2932
1.2932
1.2932
1.2932
1.29319
1.29319
1.29319
1.29318
1.29317
1.29316
1.29315
1.29313
1.29312
1.2931
1.29308
1.29306
1.29302
1.29297
1.2929
1.29282
1.29275
1.29273
1.32302
1.31042
1.29329
)
;
    }
    defaultFaces
    {
        type            empty;
    }
}


// ************************************************************************* //
