/*--------------------------------*- C++ -*----------------------------------*\
| =========                 |                                                 |
| \\      /  F ield         | OpenFOAM: The Open Source CFD Toolbox           |
|  \\    /   O peration     | Version:  2012                                  |
|   \\  /    A nd           | Website:  www.openfoam.com                      |
|    \\/     M anipulation  |                                                 |
\*---------------------------------------------------------------------------*/
FoamFile
{
    version     2.0;
    format      ascii;
    class       volScalarField;
    location    "0.91";
    object      rho2;
}
// * * * * * * * * * * * * * * * * * * * * * * * * * * * * * * * * * * * * * //

dimensions      [1 -3 0 0 0 0 0];


internalField   nonuniform List<scalar> 
2268
(
1.30734
1.30722
1.30697
1.30667
1.30627
1.30589
1.30546
1.30512
1.30472
1.30445
1.30408
1.30383
1.30349
1.30323
1.30291
1.30264
1.30236
1.30211
1.30191
1.30176
1.30173
1.30174
1.30183
1.3066
1.30648
1.30623
1.30592
1.30551
1.30514
1.3047
1.30436
1.30396
1.30369
1.30333
1.30308
1.30274
1.30247
1.30215
1.30188
1.3016
1.30134
1.30114
1.30099
1.30097
1.30097
1.30106
1.30591
1.30579
1.30553
1.3052
1.30478
1.30439
1.30395
1.3036
1.3032
1.30293
1.30258
1.30233
1.30199
1.30172
1.30139
1.30111
1.30081
1.30054
1.30034
1.30018
1.30019
1.30021
1.30032
1.30522
1.30508
1.30481
1.30446
1.30403
1.30362
1.30317
1.30282
1.30242
1.30217
1.30181
1.30157
1.30123
1.30096
1.30062
1.30033
1.30002
1.29974
1.29952
1.29937
1.29939
1.29942
1.29954
1.30459
1.30445
1.30415
1.30378
1.30331
1.30288
1.30241
1.30205
1.30166
1.3014
1.30107
1.30082
1.30048
1.3002
1.29985
1.29954
1.2992
1.29888
1.29864
1.29847
1.29854
1.2986
1.29876
1.30394
1.30378
1.30346
1.30304
1.30256
1.3021
1.30161
1.30125
1.30086
1.30063
1.30029
1.30006
1.29972
1.29943
1.29907
1.29875
1.29839
1.29805
1.29774
1.29755
1.29763
1.29777
1.29799
1.30339
1.30321
1.30285
1.3024
1.30184
1.30134
1.30083
1.30046
1.30008
1.29985
1.29955
1.29931
1.29898
1.29868
1.2983
1.29794
1.2975
1.29705
1.29664
1.2964
1.29657
1.29681
1.29704
1.3028
1.3026
1.30221
1.30167
1.30111
1.30055
1.30002
1.29962
1.29927
1.29909
1.29877
1.29858
1.29823
1.29792
1.29751
1.29712
1.29665
1.29611
1.29561
1.29535
1.29544
1.29594
1.29639
1.3042
1.29727
1.29717
1.2972
1.29718
1.29814
1.29923
1.30151
1.30542
1.30372
1.30228
1.30114
1.30045
1.29834
1.29802
1.2982
1.29846
1.2998
1.30127
1.30365
1.29727
1.29719
1.29721
1.29718
1.29754
1.29834
1.30032
1.30399
1.30269
1.30138
1.30068
1.29947
1.29746
1.29735
1.2974
1.29767
1.29893
1.30032
1.30094
1.29706
1.29722
1.29721
1.29714
1.29777
1.29845
1.29947
1.30233
1.3013
1.30011
1.29898
1.29786
1.29644
1.2967
1.2971
1.29711
1.29812
1.29952
1.30065
1.29705
1.29719
1.29718
1.29705
1.29757
1.29801
1.29887
1.30099
1.29999
1.29865
1.29767
1.2966
1.29548
1.29628
1.29679
1.29696
1.29759
1.29877
1.29855
1.29695
1.29711
1.29707
1.29714
1.29749
1.29783
1.29864
1.29971
1.2986
1.29722
1.29591
1.29533
1.2945
1.29559
1.29684
1.29703
1.29746
1.29818
1.29825
1.29684
1.29704
1.29684
1.29685
1.29704
1.29772
1.29817
1.29856
1.29763
1.29576
1.29523
1.29474
1.29411
1.29472
1.29646
1.29712
1.29706
1.29745
1.2976
1.29679
1.29693
1.29665
1.29667
1.29673
1.29753
1.29774
1.29768
1.2963
1.295
1.29494
1.29445
1.29404
1.29457
1.29629
1.29713
1.29686
1.2967
1.29743
1.2967
1.29699
1.2967
1.29664
1.29669
1.29729
1.29748
1.29685
1.29576
1.29473
1.29494
1.29453
1.29412
1.29432
1.29587
1.29688
1.29624
1.29586
1.30206
1.30184
1.30132
1.30072
1.29995
1.2993
1.29874
1.29836
1.29801
1.29787
1.29765
1.29742
1.29709
1.29674
1.29628
1.29577
1.29507
1.29444
1.29394
1.29383
1.29411
1.29422
1.29412
1.30114
1.30082
1.30026
1.29923
1.29851
1.2977
1.29699
1.29643
1.29634
1.29627
1.29604
1.29592
1.29554
1.29512
1.29452
1.29407
1.29369
1.29344
1.2933
1.29337
1.29319
1.29332
1.29356
1.30058
1.30022
1.29929
1.29812
1.29667
1.29572
1.29525
1.29494
1.2946
1.29479
1.29478
1.29452
1.2942
1.29387
1.29357
1.29344
1.29342
1.29337
1.29331
1.29323
1.29309
1.29253
1.29227
1.30007
1.29971
1.29878
1.29642
1.29579
1.29539
1.29477
1.29416
1.29422
1.29396
1.29371
1.29366
1.29344
1.2934
1.29342
1.29339
1.29332
1.29331
1.29325
1.29312
1.29196
1.29072
1.29044
1.30006
1.29972
1.29771
1.29581
1.29491
1.29409
1.29405
1.29402
1.29367
1.29356
1.2935
1.29326
1.29325
1.29334
1.29337
1.29327
1.29318
1.29317
1.29312
1.29286
1.29164
1.29006
1.29003
1.29888
1.29851
1.29698
1.2948
1.29414
1.29385
1.294
1.29385
1.2938
1.29364
1.29331
1.29328
1.29328
1.29327
1.29322
1.29315
1.29312
1.2931
1.29302
1.29278
1.29241
1.29164
1.29187
1.29589
1.29548
1.29403
1.29329
1.29318
1.29314
1.29318
1.29341
1.29325
1.29333
1.29324
1.29319
1.29312
1.29311
1.29313
1.29311
1.29304
1.2931
1.29274
1.29287
1.29264
1.29268
1.2933
1.29402
1.29358
1.29313
1.29312
1.29314
1.29313
1.29313
1.29313
1.29319
1.29317
1.29323
1.2932
1.29311
1.2931
1.29319
1.29325
1.29321
1.29322
1.29293
1.293
1.29325
1.2937
1.29413
1.29348
1.29298
1.29303
1.2931
1.29316
1.29316
1.29318
1.29317
1.29317
1.29316
1.29313
1.2932
1.29315
1.29308
1.29328
1.29324
1.29332
1.29322
1.2931
1.29311
1.29339
1.29363
1.29357
1.29312
1.29294
1.29301
1.2931
1.29317
1.29318
1.2932
1.29319
1.29319
1.29318
1.29319
1.29318
1.29315
1.29317
1.29323
1.29327
1.29325
1.29321
1.29319
1.29317
1.29328
1.29329
1.29321
1.29306
1.29294
1.293
1.29309
1.29319
1.2932
1.29322
1.29321
1.29321
1.29319
1.29319
1.2932
1.29319
1.29319
1.2932
1.2932
1.29322
1.29321
1.29321
1.2932
1.29321
1.29321
1.29317
1.29303
1.29294
1.293
1.29309
1.29319
1.2932
1.29322
1.29321
1.29321
1.2932
1.29319
1.29319
1.29319
1.29319
1.29319
1.29319
1.2932
1.2932
1.2932
1.2932
1.2932
1.29319
1.29317
1.29297
1.29294
1.293
1.2931
1.2932
1.2932
1.29322
1.29321
1.29321
1.2932
1.2932
1.29319
1.2932
1.29319
1.2932
1.2932
1.2932
1.2932
1.2932
1.2932
1.2932
1.29319
1.29317
1.29294
1.29295
1.29301
1.29312
1.2932
1.2932
1.29321
1.2932
1.29321
1.2932
1.2932
1.29319
1.29319
1.29319
1.29319
1.29319
1.2932
1.29319
1.2932
1.2932
1.2932
1.29319
1.29316
1.29292
1.29296
1.29303
1.29314
1.2932
1.2932
1.29321
1.29319
1.2932
1.29319
1.2932
1.29319
1.29319
1.29319
1.29319
1.29319
1.2932
1.29319
1.2932
1.29319
1.2932
1.29319
1.29317
1.29294
1.29298
1.29305
1.29316
1.2932
1.2932
1.2932
1.29319
1.29319
1.29319
1.29319
1.29319
1.29319
1.29319
1.29319
1.29319
1.29319
1.29319
1.29319
1.29319
1.29319
1.29319
1.29318
1.29296
1.29301
1.29308
1.29316
1.29319
1.29318
1.29319
1.29318
1.29318
1.29318
1.29319
1.29319
1.29319
1.29319
1.29319
1.29319
1.29319
1.29319
1.29319
1.29319
1.29319
1.29319
1.29319
1.29296
1.29303
1.2931
1.29315
1.29317
1.29317
1.29318
1.29317
1.29318
1.29318
1.29318
1.29318
1.29319
1.29318
1.29319
1.29319
1.29319
1.29319
1.29319
1.29319
1.29319
1.29319
1.29319
1.29297
1.29304
1.2931
1.29314
1.29315
1.29316
1.29317
1.29317
1.29318
1.29318
1.29318
1.29318
1.29318
1.29318
1.29319
1.29319
1.29319
1.29319
1.29319
1.29319
1.29318
1.29318
1.29318
1.29297
1.29304
1.29309
1.29311
1.29313
1.29315
1.29317
1.29317
1.29317
1.29317
1.29318
1.29318
1.29318
1.29318
1.29318
1.29318
1.29318
1.29318
1.29318
1.29318
1.29317
1.29317
1.29316
1.29297
1.29304
1.29308
1.29308
1.29311
1.29314
1.29316
1.29317
1.29317
1.29317
1.29318
1.29318
1.29318
1.29318
1.29318
1.29318
1.29318
1.29318
1.29317
1.29316
1.29315
1.29314
1.29313
1.29297
1.29303
1.29306
1.29306
1.2931
1.29315
1.29316
1.29317
1.29317
1.29317
1.29318
1.29318
1.29318
1.29318
1.29318
1.29318
1.29317
1.29316
1.29315
1.29313
1.29312
1.29311
1.2931
1.29298
1.29302
1.29304
1.29305
1.29311
1.29315
1.29316
1.29317
1.29317
1.29317
1.29317
1.29317
1.29318
1.29318
1.29318
1.29317
1.29316
1.29314
1.29313
1.29311
1.2931
1.29308
1.29306
1.29298
1.293
1.29302
1.29307
1.29313
1.29316
1.29317
1.29317
1.29317
1.29317
1.29317
1.29317
1.29317
1.29317
1.29317
1.29315
1.29313
1.29312
1.29311
1.29309
1.29307
1.29305
1.29303
1.29299
1.29301
1.29304
1.29311
1.29315
1.29317
1.29317
1.29317
1.29317
1.29317
1.29317
1.29317
1.29317
1.29316
1.29315
1.29313
1.29312
1.2931
1.29309
1.29307
1.29305
1.29303
1.29301
1.29303
1.29306
1.29309
1.29315
1.29317
1.29317
1.29317
1.29317
1.29317
1.29317
1.29317
1.29317
1.29316
1.29315
1.29313
1.29311
1.2931
1.29309
1.29307
1.29304
1.29303
1.29301
1.293
1.29311
1.29312
1.29315
1.29317
1.29317
1.29317
1.29317
1.29317
1.29317
1.29317
1.29317
1.29316
1.29315
1.29313
1.29312
1.2931
1.29309
1.29307
1.29305
1.29303
1.29302
1.29301
1.29299
1.29316
1.29316
1.29317
1.29317
1.29317
1.29317
1.29317
1.29317
1.29317
1.29317
1.29316
1.29315
1.29314
1.29312
1.2931
1.29309
1.29307
1.29305
1.29303
1.29302
1.29301
1.293
1.29299
1.29317
1.29317
1.29317
1.29317
1.29317
1.29317
1.29317
1.29317
1.29316
1.29316
1.29315
1.29314
1.29312
1.2931
1.29309
1.29307
1.29305
1.29304
1.29303
1.29302
1.29301
1.293
1.29299
1.29317
1.29317
1.29317
1.29317
1.29317
1.29317
1.29316
1.29316
1.29316
1.29315
1.29314
1.29312
1.29311
1.29309
1.29308
1.29306
1.29304
1.29303
1.29303
1.29302
1.29302
1.29301
1.29301
1.29316
1.29316
1.29316
1.29316
1.29316
1.29316
1.29316
1.29316
1.29315
1.29314
1.29313
1.29311
1.2931
1.29308
1.29306
1.29305
1.29304
1.29303
1.29303
1.29303
1.29303
1.29302
1.29302
1.29316
1.29316
1.29316
1.29316
1.29316
1.29316
1.29315
1.29315
1.29314
1.29313
1.29311
1.2931
1.29309
1.29307
1.29305
1.29304
1.29304
1.29304
1.29304
1.29304
1.29304
1.29304
1.29303
1.29316
1.29315
1.29315
1.29315
1.29315
1.29315
1.29315
1.29314
1.29313
1.29311
1.2931
1.29309
1.29307
1.29306
1.29305
1.29304
1.29304
1.29304
1.29304
1.29305
1.29305
1.29305
1.29305
1.29315
1.29315
1.29315
1.29315
1.29315
1.29314
1.29314
1.29313
1.29311
1.2931
1.29309
1.29308
1.29306
1.29305
1.29305
1.29304
1.29304
1.29305
1.29305
1.29306
1.29306
1.29306
1.29306
1.29314
1.29314
1.29314
1.29314
1.29314
1.29313
1.29313
1.29311
1.2931
1.29309
1.29308
1.29307
1.29305
1.29305
1.29304
1.29305
1.29305
1.29306
1.29306
1.29306
1.29307
1.29307
1.29307
1.29313
1.29313
1.29313
1.29313
1.29313
1.29312
1.29311
1.2931
1.29309
1.29308
1.29307
1.29306
1.29305
1.29305
1.29305
1.29305
1.29306
1.29306
1.29307
1.29307
1.29308
1.29308
1.29308
1.29313
1.29313
1.29312
1.29312
1.29312
1.29311
1.2931
1.29309
1.29308
1.29307
1.29306
1.29305
1.29305
1.29305
1.29305
1.29306
1.29306
1.29307
1.29308
1.29308
1.29309
1.29309
1.29309
1.29312
1.29312
1.29312
1.29311
1.29311
1.2931
1.29309
1.29308
1.29308
1.29307
1.29306
1.29305
1.29305
1.29305
1.29305
1.29306
1.29307
1.29308
1.29308
1.29309
1.29309
1.2931
1.2931
1.29311
1.2931
1.2931
1.2931
1.29309
1.29308
1.29308
1.29307
1.29307
1.29306
1.29305
1.29305
1.29305
1.29305
1.29306
1.29307
1.29308
1.29309
1.29309
1.2931
1.2931
1.2931
1.2931
1.2931
1.2931
1.29309
1.29309
1.29308
1.29307
1.29307
1.29307
1.29306
1.29305
1.29305
1.29305
1.29305
1.29306
1.29307
1.29308
1.29308
1.29309
1.2931
1.2931
1.2931
1.2931
1.29311
1.29308
1.29308
1.29308
1.29307
1.29307
1.29306
1.29306
1.29306
1.29306
1.29305
1.29305
1.29305
1.29305
1.29306
1.29308
1.29309
1.29309
1.2931
1.2931
1.2931
1.29311
1.29311
1.29311
1.29307
1.29307
1.29307
1.29307
1.29306
1.29306
1.29306
1.29306
1.29305
1.29305
1.29305
1.29305
1.29306
1.29308
1.29309
1.29309
1.2931
1.2931
1.2931
1.2931
1.2931
1.2931
1.2931
1.29414
1.29359
1.29492
1.29208
1.2943
1.29437
1.2941
1.29371
1.29295
1.2928
1.29308
1.29315
1.29145
1.29167
1.29228
1.29287
1.29069
1.29109
1.29155
1.29204
1.29232
1.29251
1.29269
1.29265
1.29336
1.29309
1.29283
1.29265
1.29329
1.29304
1.29286
1.29269
1.29328
1.29306
1.29296
1.29279
1.29266
1.29271
1.29273
1.29271
1.29302
1.293
1.29304
1.29294
1.29312
1.29311
1.2931
1.29311
1.29314
1.29313
1.29312
1.29309
1.29314
1.29313
1.29312
1.2931
1.29314
1.29313
1.29313
1.29313
1.29316
1.29314
1.29314
1.29313
1.29319
1.29318
1.29316
1.29315
1.29319
1.29319
1.29319
1.29318
1.29318
1.29318
1.29318
1.29318
1.29316
1.29316
1.29316
1.29316
1.29313
1.29313
1.29312
1.29312
1.29309
1.29308
1.29308
1.29307
1.29305
1.29304
1.29304
1.29303
1.29302
1.29301
1.29301
1.293
1.293
1.29299
1.29299
1.29298
1.29299
1.29298
1.29298
1.29297
1.29299
1.29298
1.29298
1.29297
1.29298
1.29298
1.29298
1.29297
1.29299
1.29299
1.29298
1.29298
1.293
1.293
1.293
1.293
1.29302
1.29302
1.29301
1.29301
1.29303
1.29303
1.29303
1.29303
1.29305
1.29305
1.29305
1.29304
1.29306
1.29306
1.29306
1.29306
1.29307
1.29307
1.29307
1.29307
1.29308
1.29308
1.29308
1.29308
1.29309
1.29309
1.29309
1.29309
1.2931
1.2931
1.29309
1.29309
1.2931
1.2931
1.2931
1.2931
1.2931
1.2931
1.2931
1.2931
1.29311
1.2931
1.2931
1.2931
1.2931
1.2931
1.2931
1.2931
1.29686
1.29635
1.29685
1.29656
1.29664
1.29655
1.29685
1.2966
1.29585
1.29466
1.29458
1.29458
1.29434
1.29399
1.29466
1.29565
1.29567
1.29514
1.29483
1.29467
1.29625
1.2972
1.29646
1.29658
1.29664
1.29656
1.29579
1.29479
1.29438
1.2941
1.29415
1.29387
1.29362
1.29371
1.29404
1.29377
1.29354
1.29346
1.2949
1.29651
1.29649
1.29561
1.296
1.29575
1.29529
1.2946
1.29436
1.29406
1.29381
1.29354
1.29318
1.29296
1.29292
1.29297
1.29311
1.29322
1.29331
1.29443
1.29523
1.29533
1.29467
1.2945
1.29475
1.29451
1.29428
1.29409
1.29429
1.29379
1.29315
1.29324
1.29322
1.29312
1.29314
1.29323
1.29332
1.29334
1.29311
1.29372
1.2935
1.29318
1.29321
1.2937
1.29363
1.29338
1.29358
1.29336
1.29279
1.29294
1.29317
1.29318
1.29318
1.29325
1.29329
1.2933
1.2933
1.29255
1.29284
1.29292
1.29285
1.29294
1.29319
1.29333
1.29325
1.29323
1.29317
1.29301
1.29282
1.29283
1.29299
1.29315
1.29324
1.29325
1.29325
1.29327
1.29252
1.29256
1.29267
1.2926
1.2926
1.29308
1.29314
1.29317
1.29316
1.2931
1.29286
1.29278
1.29287
1.29292
1.29301
1.29314
1.2932
1.29323
1.29325
1.29233
1.29245
1.29253
1.29237
1.29237
1.293
1.29315
1.29316
1.29317
1.29316
1.29314
1.29309
1.29304
1.29297
1.29303
1.2931
1.29319
1.29323
1.29325
1.29269
1.29232
1.29238
1.29222
1.29231
1.293
1.29317
1.29315
1.29317
1.29315
1.29316
1.29315
1.29311
1.29305
1.29306
1.29315
1.29322
1.29323
1.29324
1.29264
1.29263
1.29257
1.29243
1.29248
1.29308
1.29317
1.29314
1.29315
1.29315
1.29316
1.29315
1.29313
1.29311
1.29314
1.29322
1.29322
1.29323
1.29324
1.2929
1.29275
1.2926
1.29247
1.29273
1.29314
1.29317
1.29317
1.29318
1.29318
1.29318
1.29318
1.29318
1.29319
1.29319
1.29322
1.29322
1.29322
1.29323
1.29297
1.2927
1.29252
1.29249
1.29293
1.29315
1.29317
1.29316
1.29315
1.29314
1.29314
1.29316
1.29318
1.29319
1.2932
1.29321
1.29322
1.29322
1.29323
1.29301
1.29277
1.29254
1.29272
1.29313
1.29315
1.29315
1.29312
1.2931
1.2931
1.29311
1.29314
1.29316
1.29318
1.29319
1.29321
1.29322
1.29322
1.29322
1.29307
1.29297
1.29286
1.29307
1.29314
1.29314
1.29313
1.29309
1.29308
1.29309
1.29312
1.29314
1.29316
1.29318
1.29319
1.2932
1.29321
1.29321
1.29322
1.29312
1.29312
1.29311
1.29314
1.29314
1.29313
1.29312
1.29309
1.29309
1.29312
1.29314
1.29316
1.29317
1.29318
1.29319
1.2932
1.29321
1.29321
1.29321
1.29313
1.29314
1.29315
1.29315
1.29314
1.29313
1.29312
1.29311
1.29312
1.29314
1.29315
1.29316
1.29317
1.29318
1.29319
1.2932
1.2932
1.29321
1.29321
1.29313
1.29313
1.29314
1.29314
1.29314
1.29313
1.29313
1.29313
1.29314
1.29314
1.29315
1.29315
1.29316
1.29317
1.29318
1.29319
1.2932
1.2932
1.29321
1.29318
1.29315
1.29314
1.29314
1.29314
1.29314
1.29314
1.29314
1.29313
1.29311
1.29309
1.2931
1.29311
1.29313
1.29315
1.29317
1.29319
1.2932
1.2932
1.29319
1.29319
1.29318
1.29318
1.29318
1.29317
1.29315
1.2931
1.29305
1.29301
1.29301
1.29302
1.29304
1.29308
1.29311
1.29315
1.29318
1.29319
1.2932
1.29316
1.29316
1.29316
1.29314
1.29311
1.29307
1.29303
1.29299
1.29297
1.29295
1.29295
1.29297
1.293
1.29304
1.29308
1.29313
1.29316
1.29319
1.2932
1.29311
1.2931
1.29308
1.29305
1.29301
1.29298
1.29296
1.29294
1.29292
1.29291
1.29291
1.29292
1.29296
1.293
1.29306
1.29311
1.29315
1.29318
1.29319
1.29306
1.29304
1.29301
1.29298
1.29296
1.29294
1.29293
1.29291
1.2929
1.29289
1.29288
1.29289
1.29292
1.29297
1.29303
1.29309
1.29314
1.29318
1.29319
1.29301
1.29299
1.29297
1.29295
1.29294
1.29293
1.29292
1.2929
1.29289
1.29287
1.29286
1.29286
1.29288
1.29293
1.293
1.29308
1.29313
1.29317
1.29318
1.29299
1.29297
1.29295
1.29294
1.29293
1.29292
1.29291
1.2929
1.29288
1.29287
1.29285
1.29284
1.29285
1.2929
1.29297
1.29305
1.29312
1.29317
1.29318
1.29297
1.29296
1.29295
1.29294
1.29293
1.29292
1.29291
1.2929
1.29288
1.29286
1.29284
1.29283
1.29283
1.29286
1.29293
1.29303
1.29311
1.29316
1.29318
1.29297
1.29296
1.29295
1.29294
1.29294
1.29294
1.29293
1.29292
1.2929
1.29287
1.29284
1.29282
1.29281
1.29283
1.29289
1.29299
1.2931
1.29315
1.29317
1.29297
1.29296
1.29296
1.29296
1.29295
1.29295
1.29294
1.29293
1.29291
1.29288
1.29285
1.29281
1.2928
1.29281
1.29286
1.29295
1.29308
1.29315
1.29317
1.29297
1.29297
1.29297
1.29297
1.29297
1.29296
1.29295
1.29294
1.29292
1.2929
1.29286
1.29281
1.29279
1.29279
1.29282
1.29291
1.29305
1.29314
1.29317
1.29298
1.29298
1.29298
1.29298
1.29298
1.29298
1.29297
1.29295
1.29293
1.29291
1.29287
1.29282
1.29278
1.29277
1.2928
1.29287
1.29301
1.29312
1.29316
1.29299
1.29299
1.29299
1.29299
1.29299
1.29299
1.29298
1.29296
1.29294
1.29292
1.29288
1.29284
1.29278
1.29276
1.29278
1.29284
1.29297
1.29311
1.29316
1.29301
1.29301
1.293
1.293
1.293
1.293
1.29299
1.29297
1.29295
1.29293
1.29289
1.29285
1.29279
1.29275
1.29276
1.29281
1.29293
1.29309
1.29315
1.29303
1.29302
1.29302
1.29301
1.29301
1.29301
1.293
1.29298
1.29296
1.29294
1.2929
1.29286
1.2928
1.29274
1.29275
1.29278
1.29289
1.29306
1.29315
1.29304
1.29304
1.29303
1.29302
1.29302
1.29301
1.293
1.29299
1.29297
1.29294
1.29291
1.29286
1.2928
1.29274
1.29273
1.29276
1.29285
1.29303
1.29314
1.29305
1.29305
1.29304
1.29303
1.29303
1.29302
1.29301
1.293
1.29298
1.29295
1.29292
1.29287
1.29281
1.29274
1.29272
1.29275
1.29282
1.293
1.29313
1.29307
1.29306
1.29305
1.29304
1.29304
1.29303
1.29302
1.293
1.29298
1.29296
1.29292
1.29288
1.29281
1.29274
1.29271
1.29273
1.2928
1.29296
1.29312
1.29308
1.29307
1.29306
1.29305
1.29304
1.29303
1.29302
1.29301
1.29299
1.29296
1.29293
1.29288
1.29282
1.29274
1.2927
1.29271
1.29277
1.29293
1.29311
1.29308
1.29308
1.29307
1.29306
1.29305
1.29304
1.29303
1.29301
1.29299
1.29297
1.29293
1.29288
1.29282
1.29274
1.29269
1.2927
1.29275
1.2929
1.29309
1.29309
1.29308
1.29307
1.29306
1.29305
1.29304
1.29303
1.29301
1.29299
1.29297
1.29293
1.29288
1.29282
1.29274
1.29268
1.29268
1.29273
1.29288
1.29308
1.2931
1.29309
1.29308
1.29307
1.29306
1.29304
1.29303
1.29301
1.29299
1.29297
1.29293
1.29288
1.29282
1.29274
1.29268
1.29267
1.29271
1.29285
1.29306
1.2931
1.29309
1.29308
1.29307
1.29306
1.29304
1.29303
1.29301
1.29299
1.29297
1.29293
1.29288
1.29282
1.29274
1.29267
1.29265
1.2927
1.29283
1.29305
1.2931
1.29309
1.29308
1.29307
1.29306
1.29304
1.29303
1.29301
1.29299
1.29297
1.29293
1.29288
1.29281
1.29273
1.29267
1.29264
1.29267
1.29281
1.29303
1.29309
1.29309
1.29308
1.29306
1.29305
1.29304
1.29303
1.29301
1.29299
1.29296
1.29293
1.29288
1.29281
1.29273
1.29266
1.29263
1.29266
1.29279
1.29302
)
;

boundaryField
{
    leftWall
    {
        type            calculated;
        value           nonuniform List<scalar> 
50
(
1.30734
1.3066
1.30591
1.30522
1.30459
1.30394
1.30339
1.3028
1.30206
1.30114
1.30058
1.30007
1.30006
1.29888
1.29589
1.29402
1.29348
1.29312
1.29306
1.29303
1.29297
1.29294
1.29292
1.29294
1.29296
1.29296
1.29297
1.29297
1.29297
1.29297
1.29298
1.29298
1.29299
1.29303
1.29311
1.29316
1.29317
1.29317
1.29316
1.29316
1.29316
1.29315
1.29314
1.29313
1.29313
1.29312
1.29311
1.2931
1.29308
1.29307
)
;
    }
    rightWall
    {
        type            calculated;
        value           nonuniform List<scalar> 
50
(
1.30127
1.30032
1.29952
1.29877
1.29818
1.29745
1.2967
1.29586
1.29483
1.29346
1.29331
1.29334
1.2933
1.29327
1.29325
1.29325
1.29324
1.29324
1.29323
1.29323
1.29322
1.29322
1.29321
1.29321
1.29321
1.2932
1.2932
1.2932
1.29319
1.29319
1.29318
1.29318
1.29318
1.29317
1.29317
1.29317
1.29316
1.29316
1.29315
1.29315
1.29314
1.29313
1.29312
1.29311
1.29309
1.29308
1.29306
1.29305
1.29303
1.29302
)
;
    }
    lowerWall
    {
        type            calculated;
        value           nonuniform List<scalar> 
62
(
1.30771
1.30759
1.30735
1.30704
1.30664
1.30627
1.30583
1.3055
1.3051
1.30482
1.30446
1.30421
1.30387
1.3036
1.30329
1.30301
1.30274
1.30248
1.30229
1.30214
1.30211
1.30212
1.3022
1.30183
1.30106
1.30032
1.29954
1.29876
1.29799
1.29704
1.29639
1.29494
1.29423
1.29548
1.29276
1.3042
1.30365
1.30094
1.30065
1.29855
1.29825
1.2976
1.29743
1.30455
1.29745
1.29717
1.2972
1.29724
1.29839
1.29956
1.30186
1.30577
1.30406
1.30259
1.30145
1.30079
1.29869
1.29837
1.29856
1.29883
1.30017
1.30164
)
;
    }
    atmosphere
    {
        type            calculated;
        value           nonuniform List<scalar> 
46
(
1.29316
1.29316
1.29316
1.29315
1.29315
1.29315
1.29315
1.29315
1.29314
1.29314
1.29314
1.29314
1.29316
1.29317
1.29318
1.29319
1.29319
1.29319
1.2932
1.2932
1.2932
1.2932
1.2932
1.2932
1.2932
1.29319
1.29319
1.29319
1.29318
1.29317
1.29316
1.29315
1.29313
1.29312
1.2931
1.29308
1.29306
1.29302
1.29297
1.2929
1.29282
1.29275
1.29273
1.29275
1.29288
1.29311
)
;
    }
    defaultFaces
    {
        type            empty;
    }
}


// ************************************************************************* //
