/*--------------------------------*- C++ -*----------------------------------*\
| =========                 |                                                 |
| \\      /  F ield         | OpenFOAM: The Open Source CFD Toolbox           |
|  \\    /   O peration     | Version:  2012                                  |
|   \\  /    A nd           | Website:  www.openfoam.com                      |
|    \\/     M anipulation  |                                                 |
\*---------------------------------------------------------------------------*/
FoamFile
{
    version     2.0;
    format      ascii;
    class       volScalarField;
    location    "0.91";
    object      rhogh;
}
// * * * * * * * * * * * * * * * * * * * * * * * * * * * * * * * * * * * * * //

dimensions      [1 -1 -2 0 0 0 0];


internalField   nonuniform List<scalar> 
2268
(
-29.4294
-29.4294
-29.4294
-29.4294
-29.4294
-29.4294
-29.4294
-29.4294
-29.4294
-29.4294
-29.4294
-29.4294
-29.4294
-29.4294
-29.4294
-29.4294
-29.4294
-29.4294
-29.4294
-29.4294
-29.4294
-29.4294
-29.426
-88.2881
-88.2881
-88.2881
-88.2881
-88.2881
-88.2881
-88.2881
-88.2881
-88.2881
-88.2881
-88.2881
-88.2881
-88.2881
-88.2881
-88.2881
-88.2881
-88.2881
-88.2881
-88.2881
-88.2881
-88.2881
-88.2878
-88.2659
-147.147
-147.147
-147.147
-147.147
-147.147
-147.147
-147.147
-147.147
-147.147
-147.147
-147.147
-147.147
-147.147
-147.147
-147.147
-147.147
-147.147
-147.147
-147.147
-147.147
-147.147
-147.147
-147.109
-206.006
-206.006
-206.006
-206.006
-206.006
-206.006
-206.006
-206.006
-206.006
-206.006
-206.006
-206.006
-206.006
-206.006
-206.006
-206.006
-206.006
-206.005
-206.006
-206.006
-206.006
-206.006
-205.953
-264.864
-264.864
-264.864
-264.864
-264.864
-264.864
-264.864
-264.864
-264.864
-264.864
-264.864
-264.864
-264.864
-264.864
-264.864
-264.864
-264.864
-264.864
-264.864
-264.864
-264.864
-264.864
-264.799
-323.723
-323.723
-323.723
-323.723
-323.723
-323.723
-323.723
-323.723
-323.723
-323.723
-323.723
-323.723
-323.723
-323.723
-323.723
-323.723
-323.723
-323.723
-323.721
-323.722
-323.723
-323.723
-323.703
-382.582
-382.582
-382.582
-382.582
-382.582
-382.582
-382.582
-382.582
-382.582
-382.582
-382.582
-382.582
-382.582
-382.582
-382.582
-382.582
-382.582
-382.582
-382.573
-382.546
-382.575
-382.571
-382.579
-441.44
-441.44
-441.44
-441.44
-441.44
-441.44
-441.44
-441.44
-441.44
-441.44
-441.44
-441.44
-441.44
-441.44
-441.44
-441.439
-441.414
-441.054
-439.494
-437.528
-438.574
-441.437
-441.437
-26.7925
-14.6121
-0.0381403
-0.0905368
-5.03626
-19.7007
-25.5122
-27.0047
-27.2814
-27.1503
-24.397
-23.7685
-27.0974
-28.0116
-28.0116
-28.4674
-28.6251
-28.6863
-28.6863
-80.3765
-32.6693
-0.11442
-0.300574
-2.22647
-5.82885
-17.2889
-52.8968
-83.5597
-85.8595
-84.0323
-82.6105
-82.6116
-66.2103
-48.3977
-63.603
-65.1545
-74.6202
-86.6503
-133.221
-45.8945
-0.190701
-0.197814
-0.745763
-1.5523
-1.5521
-54.2673
-143.72
-143.72
-141.815
-127.448
-137.685
-136.535
-92.309
-35.2413
-30.8336
-87.9014
-144.418
-189.267
-105.783
-0.266981
-0.266982
-28.3614
-73.9011
-8.00879
-110.093
-201.209
-201.209
-201.209
-198.216
-140.615
-180.78
-174.748
-50.5568
-43.167
-162.447
-202.185
-243.467
-128.731
-0.343262
-12.7903
-151.559
-151.823
-86.5294
-224.461
-258.697
-258.697
-258.543
-230.079
-172.093
-182.358
-224.676
-113.122
-156.277
-255.882
-262.479
-297.556
-58.2972
-28.4829
-79.5245
-79.5241
-157.534
-251.636
-316.186
-316.186
-316.177
-267.033
-103.749
-107.592
-73.9579
-195.058
-269.803
-315.088
-320.808
-320.808
-206.065
-105.165
-198.54
-79.6633
-5.63699
-16.0682
-323.234
-373.674
-373.674
-351.307
-131.905
-59.7885
-62.7863
-63.5686
-76.2782
-325.256
-371.331
-364.025
-376.557
-314.458
-315.015
-301.906
-12.6144
-6.5042
-12.6318
-280.499
-431.162
-430.737
-308.818
-71.3436
-68.9873
-69.0264
-74.5487
-74.5497
-261.704
-378.727
-419.428
-396.68
-533.467
-533.467
-533.467
-533.467
-533.467
-533.467
-533.467
-533.467
-533.467
-533.467
-533.467
-533.406
-533.367
-533.27
-532.943
-530.619
-514.456
-446.714
-353.221
-313.552
-336.714
-447.04
-533.065
-658.662
-658.662
-658.662
-658.662
-658.662
-658.662
-654.691
-615.34
-613.25
-629.612
-634.243
-631.577
-628.556
-623.385
-577.291
-457.631
-239.374
-84.9201
-16.8245
-17.0789
-98.86
-276.056
-617.358
-783.856
-783.856
-783.856
-783.265
-700.069
-419.17
-264.964
-248.382
-301.096
-439.069
-549.233
-569.999
-554.147
-399.55
-129.602
-13.0975
-2.63673e-05
-2.63673e-05
-2.63673e-05
-4.8046
-162.362
-444.265
-471.792
-909.051
-908.835
-898.624
-691.668
-230.979
-179.88
-179.88
-121.27
-81.1542
-106.426
-261.94
-388.482
-207.692
-3.87002
-3.05785e-05
-3.05785e-05
-3.05785e-05
-0.00370375
-6.39171
-210.616
-716.747
-835.693
-734.422
-1016.32
-1013.08
-993.647
-593.261
-294.267
-212.856
-126.101
-21.4294
-13.8913
-13.8915
-18.8321
-27.4523
-12.6522
-4.69043
-0.119043
-3.47898e-05
-3.47898e-05
-0.0616292
-56.6786
-694.882
-977.296
-977.296
-977.296
-946.404
-1081.69
-885.773
-463.6
-207.99
-48.9166
-43.8619
-83.8437
-143.034
-79.5132
-9.2678
-8.7611e-05
-0.0301891
-0.198176
-0.174888
-0.29853
-0.349875
-0.148727
-71.136
-757.889
-1095.6
-1095.6
-1095.6
-741.432
-919.469
-352.339
-81.6513
-28.0351
-3.75438
-77.908
-212.395
-212.15
-212.395
-62.794
-9.7087e-05
-0.0196871
-1.29719
-15.9466
-84.1009
-104.965
-25.916
-27.4841
-359.796
-1137.34
-1213.9
-1187.81
-334.317
-337.158
-38.0332
-6.0322e-05
-0.271172
-0.390459
-1.93487
-11.8769
-129.967
-213.447
-88.3062
-0.000106531
-0.000106549
-10.8992
-155.582
-345.63
-345.607
-163.309
-17.3688
-116.759
-914.511
-1332.2
-1322.25
-82.7872
-7.82304
-3.01412
-6.70537e-05
-0.000455983
-0.00366171
-0.00318738
-3.68561e-07
-3.67499e-07
-3.68561e-07
-19.8963
-47.7767
-61.778
-93.6662
-327.863
-376.297
-376.322
-244.088
-18.9201
-66.2005
-501.738
-920.041
-1078.01
-194.507
-7.09411e-07
-0.0185759
-0.0137417
-4.06115e-07
-1.49421e-05
-8.57208e-06
-3.90105e-06
-2.5196e-05
-4.63435e-05
-4.63385e-05
-0.174493
-3.62339
-21.4354
-109.776
-163.801
-95.4763
-15.6299
-20.4631
-83.0406
-241.309
-262.055
-289.22
-329.547
-7.89701e-07
-0.00242112
-0.0164704
-4.36773e-07
-4.20657e-07
-4.23179e-07
-5.31202e-07
-2.46576e-06
-0.000143637
-0.000401419
-0.00041414
-0.00114239
-2.38112e-07
-2.38112e-07
-2.38112e-07
-2.38112e-07
-2.38112e-07
-0.0734062
-1.38316
-2.38112e-07
-2.38112e-07
-8.29451
-352.76
-8.16403e-07
-0.000320957
-0.00398492
-2.47103e-05
-4.50135e-07
-4.53249e-07
-6.38563e-07
-6.38561e-07
-1.00527e-06
-0.000200015
-0.00173442
-0.0021839
-0.000783536
-2.54809e-07
-6.60496e-07
-2.41147e-06
-2.87711e-06
-2.71087e-06
-2.70014e-06
-1.07457e-05
-4.58664e-06
-4.58537e-06
-328.565
-9.0045e-07
-2.11509e-05
-1.46128e-05
-1.22502e-05
-1.22483e-05
-1.57411e-06
-8.46807e-07
-1.15151e-06
-1.35473e-06
-1.214e-05
-0.000564258
-0.00232682
-0.00184299
-2.71506e-07
-8.15265e-07
-4.13075e-06
-5.57191e-06
-2.41778e-05
-6.03238e-05
-6.19424e-05
-3.64057e-05
-0.0005136
-50.3702
-9.23394e-07
-8.16317e-06
-3.69342e-05
-0.000169815
-4.22711e-07
-1.44717e-06
-8.38009e-07
-1.26051e-06
-1.73588e-06
-1.58266e-06
-1.58262e-06
-0.000132443
-0.000280677
-5.86545e-06
-8.65599e-07
-2.52929e-06
-3.0224e-06
-2.0904e-05
-6.37164e-05
-6.57495e-05
-4.08812e-05
-1.93771e-06
-0.066546
-7.75093e-05
-8.63604e-06
-7.79997e-05
-0.000956202
-1.88737e-07
-5.92527e-07
-5.11843e-07
-9.87684e-07
-1.66705e-06
-4.15831e-06
-2.49928e-05
-2.38447e-05
-3.17333e-07
-1.93881e-06
-3.34324e-06
-2.52548e-06
-1.07849e-06
-1.47844e-07
-1.47845e-07
-1.47844e-07
-1.48683e-07
-5.03867e-06
-1.22488e-05
-5.20905e-05
-9.09262e-06
-9.34306e-06
-0.00100781
-2.03461e-07
-3.39813e-07
-3.89547e-07
-8.40794e-07
-1.41014e-06
-5.30045e-06
-1.81282e-05
-3.34711e-07
-3.3471e-07
-9.044e-07
-2.19796e-06
-2.00181e-06
-1.05237e-06
-4.86872e-07
-2.24375e-07
-1.5796e-07
-1.56044e-07
-1.56801e-07
-1.26918e-05
-4.1679e-05
-0.000996694
-0.00912435
-5.02338e-07
-2.09267e-07
-2.7663e-07
-3.21634e-07
-7.15454e-07
-1.2845e-06
-3.70378e-06
-8.38496e-06
-2.11622e-06
-4.61091e-07
-6.34303e-07
-8.48361e-07
-7.21543e-07
-4.15062e-07
-3.12818e-07
-2.61081e-07
-1.95303e-07
-1.77353e-07
-2.69321e-07
-1.33182e-05
-0.000134652
-0.0068996
-0.0110997
-1.16427e-05
-2.19598e-07
-2.19598e-07
-2.56848e-07
-5.52633e-07
-1.28013e-06
-3.06718e-06
-2.43868e-06
-8.16808e-07
-3.17207e-07
-4.23886e-07
-4.25699e-07
-3.06456e-07
-1.70572e-07
-1.12537e-07
-9.3531e-08
-9.96556e-08
-1.49756e-07
-3.01564e-07
-1.39446e-05
-0.00010365
-0.00661293
-0.0109522
-4.61613e-07
-4.6161e-07
-1.9967e-07
-2.00673e-07
-4.2009e-07
-1.06574e-06
-2.58989e-06
-1.46525e-06
-3.17367e-07
-2.02439e-07
-2.27057e-07
-1.98773e-07
-1.12299e-07
-6.28924e-08
-5.05418e-08
-5.82382e-08
-9.86575e-08
-2.15295e-07
-4.77217e-07
-1.4571e-05
-2.7815e-05
-0.00108006
-0.00196782
-3.74465e-05
-5.14157e-07
-1.88396e-07
-1.51909e-07
-3.26007e-07
-9.37128e-07
-1.71245e-06
-7.09941e-07
-1.64828e-07
-1.21161e-07
-1.157e-07
-7.85787e-08
-4.09545e-08
-3.18545e-08
-4.61491e-08
-1.41645e-07
-4.82449e-07
-1.43532e-06
-4.17154e-06
-1.51974e-05
-1.51974e-05
-1.51974e-05
-0.00114854
-6.03561e-05
-3.89852e-07
-1.39844e-07
-1.12492e-07
-2.6827e-07
-8.47969e-07
-9.79616e-07
-3.04232e-07
-9.18568e-08
-6.53809e-08
-4.90249e-08
-2.70622e-08
-2.17524e-08
-4.3052e-08
-2.12704e-07
-1.03999e-06
-5.53524e-06
-2.99227e-05
-5.952e-05
-1.58238e-05
-0.0514091
-0.0563787
-0.00374182
-2.23086e-06
-1.90167e-07
-9.12827e-08
-8.41177e-08
-2.4043e-07
-6.90622e-07
-5.43499e-07
-1.33684e-07
-5.10683e-08
-3.17401e-08
-1.96729e-08
-1.74203e-08
-3.98113e-08
-2.29411e-07
-1.20843e-06
-8.00284e-06
-7.29203e-05
-0.000202739
-0.000152505
-0.162466
-0.639951
-0.369999
-0.00570495
-1.71859e-06
-1.44544e-07
-6.39988e-08
-6.60902e-08
-2.21831e-07
-4.71316e-07
-2.59357e-07
-6.23535e-08
-2.52162e-08
-1.50503e-08
-1.56357e-08
-4.031e-08
-2.26407e-07
-1.12383e-06
-7.98622e-06
-0.00011044
-0.000255613
-0.000250777
-5.46269e-05
-0.697758
-0.698574
-0.346364
-0.00333339
-2.12579e-06
-1.4323e-07
-4.74719e-08
-5.40197e-08
-2.01271e-07
-2.75573e-07
-1.16357e-07
-2.91339e-08
-1.15076e-08
-1.02087e-08
-2.67559e-08
-1.1792e-07
-6.17814e-07
-8.49632e-06
-0.000155523
-0.000265196
-0.000256628
-4.82499e-05
-4.61586e-08
-0.724199
-0.523777
-0.0798191
-0.00162706
-3.26711e-06
-1.75198e-07
-3.45211e-08
-4.55553e-08
-1.62121e-07
-1.45104e-07
-4.90009e-08
-1.34499e-08
-8.17216e-09
-9.86756e-09
-1.31827e-08
-1.3183e-08
-1.31852e-08
-0.000114658
-0.000258978
-0.000247682
-2.84252e-05
-8.87101e-08
-8.87069e-08
-0.172452
-0.0440801
-0.00399907
-0.000249061
-3.85335e-06
-1.78914e-07
-1.92062e-08
-3.79698e-08
-1.06611e-07
-7.07343e-08
-2.14337e-08
-8.85328e-09
-3.51356e-08
-2.78566e-07
-2.3316e-06
-4.72962e-05
-0.000291198
-0.000321312
-0.000158235
-3.92723e-08
-1.96321e-06
-1.75139e-07
-1.18892e-07
-0.00013412
-0.000101481
-2.12147e-05
-7.58906e-06
-7.87474e-07
-4.49549e-08
-8.90766e-09
-3.11023e-08
-6.10984e-08
-2.43673e-08
-7.15599e-09
-5.46078e-09
-1.72461e-08
-9.69522e-08
-1.74653e-06
-0.000143263
-0.000376581
-0.000332021
-4.06145e-08
-4.06082e-08
-1.74283e-07
-1.03543e-07
-6.73045e-08
-9.63093e-09
-3.52595e-08
-6.04403e-08
-2.04418e-07
-6.13149e-08
-5.12459e-09
-6.11809e-09
-2.30881e-08
-3.0624e-08
-1.46588e-08
-1.57267e-08
-3.47669e-08
-5.10063e-09
-5.10353e-09
-1.13867e-05
-0.000223448
-0.000191756
-5.38861e-05
-1.06149e-06
-2.66946e-08
-5.78166e-08
-3.6352e-08
-1.66574e-08
-6.26251e-10
-3.1442e-09
-6.02096e-09
-1.68077e-08
-4.95249e-09
-1.30473e-09
-5.10783e-09
-1.50261e-08
-1.50462e-08
-1.64915e-08
-9.94753e-08
-7.59488e-07
-6.58365e-06
-0.000165583
-0.000757278
-0.000319448
-1.57513e-08
-2.66049e-06
-1.09611e-06
-2.75476e-08
-1.39436e-08
-6.2742e-09
-2.4775e-09
-9.38118e-11
-4.22003e-10
-6.82133e-10
-1.48832e-09
-5.29219e-10
-8.365e-10
-3.9651e-09
-6.75766e-09
-6.90396e-09
-2.61436e-08
-2.62011e-07
-3.8149e-06
-0.000156963
-0.00077909
-0.000781443
-0.000266931
-1.62394e-08
-3.39627e-07
-2.82567e-07
-1.73452e-08
-2.69478e-09
-7.82897e-10
-2.48855e-10
-1.55259e-11
-5.43964e-11
-7.89506e-11
-1.48455e-10
-1.34429e-10
-5.96051e-10
-2.28242e-09
-4.71412e-09
-9.62398e-09
-3.26082e-08
-2.19535e-07
-4.29935e-06
-0.000271735
-0.000802604
-0.000716888
-1.67659e-08
-3.01264e-08
-8.51283e-08
-4.92353e-08
-4.10299e-09
-4.11933e-10
-8.04414e-11
-2.26605e-11
-2.57964e-12
-7.00699e-12
-1.07364e-11
-2.30676e-11
-7.58908e-11
-4.56577e-10
-2.09062e-09
-8.7442e-09
-3.70164e-08
-4.51523e-08
-4.9972e-08
-4.99804e-08
-5.46015e-05
-0.000557114
-0.000192793
-1.72698e-08
-1.77076e-08
-2.20996e-08
-7.08641e-09
-6.30343e-10
-4.76866e-11
-7.15194e-12
-2.06987e-12
-4.16903e-13
-9.67856e-13
-2.22116e-12
-1.18832e-11
-8.64624e-11
-6.09684e-10
-4.06753e-09
-3.74746e-08
-3.81664e-07
-9.82398e-07
-5.13979e-08
-2.25445e-05
-0.00064929
-4.83093e-06
-6.8601e-06
-5.14534e-07
-2.24978e-08
-6.30219e-09
-1.00313e-09
-7.67091e-11
-4.42239e-12
-5.67551e-13
-1.89085e-13
-6.21953e-14
-1.90265e-13
-1.66316e-12
-1.86024e-11
-1.92824e-10
-1.51605e-09
-1.01648e-08
-7.70984e-08
-6.08678e-07
-1.292e-05
-0.000464846
-0.00206968
-0.000667317
-5.65025e-09
-4.36843e-07
-4.14825e-07
-2.26592e-08
-2.30745e-09
-1.47757e-10
-7.50143e-12
-3.25824e-13
-4.18643e-14
-1.44563e-14
-1.80625e-14
-2.0217e-13
-4.46746e-12
-7.74105e-11
-9.12532e-10
-6.99846e-09
-3.47631e-08
-1.36512e-07
-9.10075e-07
-6.69866e-05
-0.00151181
-0.00212593
-0.000622239
-5.82847e-09
-8.20671e-08
-1.22574e-07
-1.26722e-08
-6.75751e-10
-2.24441e-11
-6.25169e-13
-2.11548e-14
-3.34733e-15
-1.01299e-15
-1.78993e-14
-6.30115e-13
-1.78126e-11
-3.22849e-10
-3.89779e-09
-2.92571e-08
-1.02235e-07
-2.2087e-07
-3.48585e-06
-0.000441567
-0.00194431
-0.00194357
-1.23993e-05
-5.95353e-09
-4.52534e-08
-2.19977e-08
-3.14727e-09
-1.41706e-10
-2.90041e-12
-4.03203e-14
-1.29702e-15
-2.13173e-16
-5.82008e-17
-5.28856e-14
-2.57838e-12
-6.65275e-11
-1.14919e-09
-1.447e-08
-1.31805e-07
-4.14438e-07
-4.93673e-07
-2.06136e-06
-0.000270328
-0.00199118
-0.000318607
-5.26443e-08
-6.25674e-08
-5.08884e-08
-4.05163e-09
-6.31182e-10
-2.32832e-11
-2.94679e-13
-1.98524e-15
-9.82962e-17
-1.29668e-17
-3.01051e-18
-1.78434e-13
-7.72953e-12
-1.74014e-10
-2.6656e-09
-3.03137e-08
-2.60348e-07
-7.8716e-07
-5.05909e-07
-5.05707e-07
-0.000173239
-0.00119559
-1.38724e-09
-5.3955e-08
-8.76721e-08
-4.70164e-08
-7.8798e-10
-1.08374e-10
-2.97782e-12
-1.99126e-14
-5.80688e-17
-4.65899e-18
-5.42238e-19
-1.17826e-19
-6.09858e-13
-2.22071e-11
-4.12825e-10
-5.19836e-09
-4.95149e-08
-3.72991e-07
-2.01781e-06
-3.09929e-06
-0.00151752
-0.00343382
-7.3205e-05
-1.42106e-09
-4.94762e-08
-7.19944e-08
-2.16534e-08
-1.77264e-10
-1.7273e-11
-3.11354e-13
-8.16045e-16
-2.66923e-18
-1.92772e-19
-1.9044e-20
-3.65076e-21
-1.7223e-12
-5.43461e-11
-8.46563e-10
-8.66176e-09
-6.39831e-08
-3.6718e-07
-1.1805e-05
-0.00103383
-0.0051647
-0.00515163
-1.45448e-09
-6.61835e-09
-3.312e-08
-3.08649e-08
-5.15417e-09
-4.28573e-11
-2.47371e-12
-2.40727e-14
-1.3227e-17
-5.14471e-20
-3.27772e-21
-3.18084e-22
-6.65219e-23
-4.83486e-12
-1.34005e-10
-1.7684e-09
-1.46063e-08
-8.15642e-08
-1.90257e-07
-1.90269e-07
-0.00234262
-0.00528744
-0.00345942
-1.48811e-09
-8.94578e-09
-2.22892e-08
-9.76986e-09
-1.02688e-09
-1.04561e-11
-3.23832e-13
-1.31162e-15
-1.38851e-20
-4.51358e-22
-2.1389e-23
-2.17534e-24
-5.75213e-25
-2.37896e-11
-5.53115e-10
-6.19015e-09
-4.56338e-08
-2.72331e-07
-7.6772e-06
-0.000835253
-0.00353276
-0.00306128
-0.000246737
-1.52173e-09
-1.29792e-08
-1.46715e-08
-3.02942e-09
-1.54423e-10
-1.94128e-12
-3.22728e-14
-4.1309e-17
-1.815e-25
-1.33433e-29
-1.54443e-31
-2.59824e-32
-4.57154e-33
-533.423
-430.474
-371.619
-448.418
-569.258
-439.945
-480.224
-616.806
-471.792
-534.531
-732.028
-740.694
-681.547
-840.817
-858.995
-858.995
-977.296
-977.296
-977.296
-949.549
-1095.6
-1038.02
-897.123
-687.588
-585.944
-303.913
-231.131
-213.174
-634.644
-172.605
-171.766
-171.73
-1032.17
-525.412
-225.52
-186.974
-422.82
-505.564
-306.405
-201.526
-48.5103
-78.2239
-100.499
-95.869
-4.74689
-74.8566
-111.215
-111.232
-0.0145964
-0.396187
-2.02323
-4.70677
-1.93847e-06
-1.93771e-06
-0.00377429
-0.440625
-2.05085e-06
-6.21498e-05
-0.145124
-0.719271
-1.27464e-06
-0.000760052
-0.00709786
-0.0689136
-4.90752e-07
-4.87863e-07
-4.87772e-07
-0.00688494
-6.52618e-07
-2.54099e-06
-5.3117e-05
-0.000276813
-7.52287e-07
-7.76169e-07
-5.32744e-07
-3.26589e-07
-1.02035e-05
-1.26921e-05
-1.38233e-05
-1.40107e-05
-4.72886e-05
-2.90822e-05
-4.27603e-05
-4.63677e-05
-1.18195e-05
-2.37343e-06
-2.90861e-05
-4.70628e-05
-4.44654e-08
-1.53564e-06
-1.43459e-06
-4.83232e-07
-4.61569e-08
-5.87906e-08
-6.09906e-08
-8.68948e-08
-1.62188e-07
-1.84091e-07
-1.93785e-07
-1.96036e-07
-1.45917e-07
-1.48849e-07
-1.48388e-07
-1.41504e-07
-5.99524e-08
-5.43567e-08
-4.82196e-08
-4.10098e-08
-1.24008e-08
-1.06997e-08
-9.01324e-09
-7.35723e-09
-1.60773e-09
-1.29647e-09
-1.04093e-09
-8.38457e-10
-1.37632e-10
-1.05971e-10
-8.55192e-11
-7.13784e-11
-1.22996e-11
-9.83875e-12
-7.99207e-12
-6.55668e-12
-1.25151e-12
-9.8763e-13
-7.92074e-13
-6.44073e-13
-1.09936e-13
-8.54274e-14
-6.77051e-14
-5.464e-14
-8.13394e-15
-6.263e-15
-4.93606e-15
-3.97589e-15
-5.44674e-16
-4.13045e-16
-3.21724e-16
-2.57148e-16
-3.05136e-17
-2.2999e-17
-1.78174e-17
-1.4172e-17
-1.4867e-18
-1.10154e-18
-8.43384e-19
-6.65197e-19
-5.73843e-20
-4.19754e-20
-3.17159e-20
-2.47289e-20
-1.72252e-21
-1.24142e-21
-9.21226e-22
-7.04809e-22
-3.24657e-23
-2.33569e-23
-1.72807e-23
-1.32069e-23
-2.9532e-25
-2.14441e-25
-1.60261e-25
-1.23258e-25
-1.15485e-33
-5.6065e-34
-2.77354e-34
-1.43919e-34
-501.963
-464.245
-73.8559
-18.3586
-8.99079
-15.559
-282.339
-521.046
-487.735
-209.191
-82.5113
-83.5167
-208.887
-281.349
-224.713
-290.681
-480.474
-485.861
-434.441
-619.765
-507.283
-42.5436
-128.654
-30.2578
-91.679
-506.077
-633.315
-323.763
-92.8166
-92.8691
-123.119
-321.354
-522.792
-522.793
-522.158
-481.017
-346.275
-234.051
-709.831
-253.964
-115.942
-637.531
-701.531
-690.145
-730.073
-510.217
-80.2248
-42.1404
-178.28
-274.133
-274.131
-222.833
-232.44
-269.399
-141.314
-22.1185
-0.169755
-700.747
-294.515
-507.181
-843.679
-843.68
-846.678
-846.687
-574.598
-48.8708
-48.8254
-97.4285
-211.306
-204.281
-190.454
-73.0885
-15.05
-0.196879
-0.196867
-0.196869
-640.82
-386.889
-581.86
-488.317
-351.138
-596.278
-781.765
-777.117
-609.836
-390.182
-43.1378
-0.0100306
-0.0100306
-0.0100306
-11.455
-0.29911
-1.10681
-0.622697
-0.0832777
-413.523
-243.779
-161.721
-0.0772951
-0.0771863
-58.8306
-231.75
-445.737
-295.509
-245.703
-143.131
-3.50114
-0.0112448
-0.0112448
-0.0112448
-0.335317
-0.993198
-0.0331202
-0.0331236
-248.277
-18.3696
-0.0110826
-0.750433
-11.7912
-22.8781
-0.0625292
-0.0623353
-0.0623365
-0.0623353
-12.5004
-20.3649
-25.7673
-16.6509
-2.67889
-0.03403
-0.0296049
-0.0802607
-0.159237
-193.917
-174.172
-0.0121227
-2.57201
-48.9777
-60.8831
-14.0917
-0.19066
-0.0684114
-1.59951
-3.63624
-64.0077
-67.8937
-65.7587
-6.42831
-0.052326
-0.0492793
-0.192728
-0.192808
-104.421
-282.954
-166.616
-21.2783
-67.3928
-66.2875
-11.6903
-0.0112924
-0.0644366
-0.0031487
-0.0031487
-0.0031487
-12.5017
-9.75491
-0.925499
-0.056765
-0.00581983
-0.188594
-0.0369247
-16.6665
-194.07
-185.522
-66.7775
-72.8732
-19.7476
-0.00750355
-0.0141125
-0.0513361
-0.051331
-0.0201942
-0.0034055
-0.0034055
-0.111076
-0.0479294
-0.00706166
-6.24066e-06
-0.0127132
-1.93753e-07
-17.9234
-18.9307
-23.4417
-6.29713
-54.6675
-0.0230518
-0.0230476
-0.090969
-0.0842575
-0.00366326
-0.00366231
-0.00366231
-0.00448802
-0.00491416
-0.0039193
-7.76495e-06
-7.76494e-06
-2.08363e-07
-2.08478e-07
-100.543
-29.261
-2.46105
-2.46311
-9.3769
-5.58321
-0.00136617
-0.0688281
-0.0911868
-0.0390349
-0.00392173
-0.00456656
-2.39717e-05
-2.39399e-05
-2.39717e-05
-0.00013663
-2.4522e-05
-7.28478e-07
-4.85065e-07
-20.0772
-35.803
-29.1486
-25.5734
-0.151196
-3.64598
-0.0014556
-0.047621
-0.0737836
-0.0119774
-0.0128192
-0.00629447
-0.000168239
-2.55424e-05
-0.000240482
-0.000240486
-2.61656e-05
-2.55739e-06
-7.74061e-06
-5.01407
-16.9613
-20.528
-10.8558
-0.000153187
-0.10818
-0.00825924
-0.00438975
-2.70353e-05
-2.69514e-05
-0.000133593
-6.06368e-05
-6.06362e-05
-0.000109335
-0.000273582
-8.457e-05
-3.08197e-06
-1.12335e-05
-0.000324143
-1.09261
-1.19502
-1.1568
-0.211861
-0.000162016
-0.00844431
-0.0124413
-0.00140369
-0.00126174
-0.00158081
-0.000645846
-0.000227678
-0.000347603
-0.000547172
-0.000204613
-4.56895e-07
-4.56896e-07
-0.000102314
-0.000673329
-0.582325
-1.0945
-0.0878533
-8.65833e-05
-8.65746e-05
-0.00424296
-0.0131279
-0.00255235
-0.00506538
-0.0048036
-0.000911561
-0.000307499
-0.00052342
-0.00057313
-0.000280876
-1.15402e-05
-4.81915e-07
-0.000495716
-0.00071044
-0.144531
-0.439501
-0.439498
-0.16217
-9.10786e-05
-0.00115099
-0.00341645
-0.0054537
-0.00517535
-0.000998998
-8.05966e-08
-8.18038e-08
-8.05966e-08
-3.44848e-05
-5.78079e-05
-2.21008e-05
-5.06936e-07
-0.000683583
-0.000734301
-0.001603
-0.0285497
-0.113974
-0.147023
-0.047992
-0.00586067
-0.0111591
-0.00258037
-7.92923e-08
-7.93215e-08
-2.13335e-07
-5.9907e-06
-9.95934e-07
-7.93215e-08
-7.92923e-08
-4.01907e-06
-5.31955e-07
-0.00020719
-0.000103388
-3.26605e-07
-3.26589e-07
-5.11203e-05
-0.000354447
-8.30523e-08
-8.30218e-08
-9.00827e-07
-8.14224e-07
-1.07385e-06
-8.05461e-07
-7.04828e-07
-1.07977e-05
-1.78468e-05
-8.12631e-06
-3.8201e-06
-1.61311e-06
-8.48769e-07
-1.59042e-05
-9.26474e-06
-1.36918e-05
-1.27754e-05
-9.89381e-06
-6.59425e-06
-7.08714e-06
-4.27018e-06
-2.17843e-06
-1.20111e-06
-1.18797e-06
-8.81097e-07
-9.38125e-07
-8.46743e-07
-0.000538655
-0.00083683
-0.000178683
-1.34692e-05
-8.03562e-06
-7.92186e-06
-9.68093e-06
-4.63753e-05
-2.88409e-05
-1.11166e-05
-6.71381e-06
-3.85194e-06
-1.88912e-06
-9.2692e-07
-3.93962e-07
-3.17675e-07
-9.45666e-07
-3.26806e-06
-8.83914e-07
-0.00123968
-0.00174366
-0.00120682
-8.52643e-05
-3.54144e-05
-2.37165e-05
-1.94295e-05
-3.23133e-05
-2.95715e-06
-1.22512e-06
-6.25073e-07
-2.42589e-07
-1.01867e-07
-6.37631e-08
-8.77014e-08
-3.18182e-07
-1.70663e-06
-1.69006e-05
-3.96961e-05
-0.000594533
-0.0018157
-0.00181553
-0.000478797
-5.77147e-05
-7.09927e-05
-3.83757e-05
-1.415e-07
-8.38665e-08
-8.38668e-08
-7.58432e-08
-4.15601e-08
-2.51655e-08
-3.06211e-08
-9.50782e-08
-3.48993e-07
-1.55539e-06
-3.39425e-05
-0.000339104
-0.000340748
-0.000769543
-0.00188758
-0.000994941
-6.87544e-05
-0.000200454
-0.000188862
-1.20324e-07
-1.44407e-07
-1.25541e-07
-6.0453e-08
-2.0088e-08
-1.22726e-08
-1.91131e-08
-6.56486e-08
-2.13895e-07
-7.92918e-07
-1.91795e-05
-0.00055904
-0.000873488
-0.000434645
-0.00195898
-0.00143616
-0.000107686
-0.000313947
-0.000550234
-1.93966e-07
-1.57035e-07
-6.63132e-08
-1.8439e-08
-5.8839e-09
-3.9768e-09
-7.58781e-09
-2.88971e-08
-1.16946e-07
-5.12631e-07
-5.7475e-06
-0.000164326
-0.000907236
-0.000517833
-0.00159831
-0.0016571
-0.000188958
-0.000576558
-0.00063459
-1.16144e-07
-5.76665e-08
-1.86275e-08
-4.63156e-09
-1.4192e-09
-1.01887e-09
-2.57941e-09
-1.15982e-08
-5.31119e-08
-2.44287e-07
-6.35785e-07
-6.35898e-07
-0.000890126
-0.00400965
-0.000463838
-0.00171611
-0.000407465
-0.000596959
-0.000566737
-2.82375e-08
-1.29524e-08
-4.26886e-09
-1.04222e-09
-2.98432e-10
-2.07798e-10
-6.10318e-10
-2.90614e-09
-1.26039e-08
-3.86372e-08
-6.44771e-08
-1.58799e-06
-0.00088374
-0.00514564
-0.000480021
-0.00121982
-0.000460219
-0.000343207
-0.000416553
-5.00427e-09
-2.4348e-09
-8.42e-10
-2.07289e-10
-5.43501e-11
-3.10353e-11
-8.00131e-11
-3.71898e-10
-1.53694e-09
-6.5883e-09
-4.76825e-08
-1.9247e-06
-0.000456708
-0.00451343
-0.000637309
-0.000428873
-0.000329217
-4.7899e-05
-0.00128515
-5.96067e-10
-3.11664e-10
-1.20698e-10
-3.27759e-11
-8.32995e-12
-3.24443e-12
-4.36397e-12
-2.17952e-11
-1.6349e-10
-2.13288e-09
-3.47959e-08
-5.83238e-07
-1.70229e-05
-0.000664423
-0.0229721
-0.00153878
-0.000223185
-3.33954e-05
-0.0040391
-5.1988e-11
-2.90608e-11
-1.305e-11
-4.20661e-12
-1.12636e-12
-2.58525e-13
-1.05155e-13
-9.05249e-13
-1.9128e-11
-3.5123e-10
-4.66302e-09
-1.78583e-08
-1.17671e-08
-0.000582304
-0.0394111
-0.00726162
-0.000184384
-3.44297e-05
-0.00440392
-4.75349e-12
-2.72746e-12
-1.33271e-12
-4.79902e-13
-1.33656e-13
-2.96887e-14
-6.64986e-15
-1.8374e-15
-7.87609e-15
-4.98119e-14
-2.78801e-13
-4.8731e-11
-1.21215e-08
-0.000210684
-0.0392447
-0.0149269
-0.000198966
-3.54658e-05
-0.00453701
-4.64763e-13
-2.68568e-13
-1.3504e-13
-5.02226e-14
-1.37419e-14
-2.80804e-15
-6.64742e-16
-1.21014e-16
-1.38534e-17
-1.6593e-16
-3.27559e-14
-5.79865e-12
-1.1656e-09
-6.03224e-06
-0.00382697
-0.019418
-0.00155742
-3.77643e-05
-0.00466986
-3.93154e-14
-2.29556e-14
-1.18708e-14
-4.57521e-15
-1.26238e-15
-2.24297e-16
-5.53443e-17
-1.21139e-17
-1.17329e-18
-1.20597e-19
-1.74419e-20
-9.33859e-41
6.9328e-25
6.76425e-22
2.93455e-21
-0.0455479
-0.00950391
-0.00016558
-0.0020972
-2.87188e-15
-1.70914e-15
-9.15221e-16
-3.66108e-16
-1.05846e-16
-1.55414e-17
-3.7073e-18
-1.01453e-18
-9.09214e-20
-8.48733e-21
-5.07975e-22
-5.87011e-23
-1.10886e-23
3.87004e-22
4.56758e-21
-0.172929
-0.0368745
-0.000332987
-2.05253e-05
-1.85296e-16
-1.11663e-16
-6.24071e-17
-2.65234e-17
-8.3008e-18
-1.00317e-18
-2.02376e-19
-6.88552e-20
-6.22148e-21
-5.34303e-22
-3.45041e-23
-2.87071e-24
-5.50231e-25
1.6361e-22
4.69537e-21
-0.191156
-0.0919914
-0.000712771
-2.45023e-06
-1.01744e-17
-6.15085e-18
-3.54347e-18
-1.61195e-18
-5.60421e-19
-6.07093e-20
-9.56142e-21
-3.50246e-21
-3.84325e-22
-3.57989e-23
-2.62742e-24
-1.73541e-25
-2.25255e-26
5.48605e-23
3.83617e-21
-0.196113
-0.146829
-0.00553786
-2.51502e-06
-4.74345e-19
-2.86791e-19
-1.70359e-19
-8.33689e-20
-3.29521e-20
-3.35986e-21
-4.34618e-22
-1.41681e-22
-2.06496e-23
-2.07907e-24
-1.63447e-25
-1.02715e-26
-8.93666e-28
1.48824e-23
2.53066e-21
-0.160869
-0.185118
-0.0148439
-5.08109e-06
-1.74736e-20
-1.0546e-20
-6.42956e-21
-3.30848e-21
-1.44426e-21
-1.50218e-22
-1.91004e-23
-4.83578e-24
-7.39699e-25
-7.93775e-26
-6.68571e-27
-4.35307e-28
-3.19684e-29
3.21754e-24
1.28845e-21
-0.0122189
-0.234283
-0.0275042
-1.28905e-05
-4.88689e-22
-2.92988e-22
-1.86122e-22
-1.00885e-22
-4.88145e-23
-6.17457e-24
-7.40823e-25
-1.39572e-25
-2.09084e-26
-2.33809e-27
-2.08566e-28
-1.43037e-29
-1.00435e-30
5.04741e-25
4.39201e-22
1.54733e-20
-0.268877
-0.0515218
-3.35827e-05
-9.1919e-24
-5.60193e-24
-3.64145e-24
-2.02674e-24
-9.96112e-25
-1.39434e-25
-1.63487e-26
-2.62175e-27
-3.61822e-28
-3.89232e-29
-3.4239e-30
-2.34552e-31
-1.57994e-32
5.10662e-26
1.00279e-22
3.08992e-22
-0.275285
-0.084585
-4.22651e-05
-8.61055e-26
-5.31386e-26
-3.55924e-26
-2.05676e-26
-1.06064e-26
-1.89555e-27
-2.27241e-28
-3.00522e-29
-3.76517e-30
-3.95015e-31
-3.51073e-32
-2.47614e-33
-1.68975e-34
2.24287e-27
9.96481e-24
5.96933e-22
-0.28159
-0.100989
-4.32392e-05
-5.87653e-35
-1.15088e-35
-2.06151e-36
-2.14478e-37
-1.20031e-38
-5.90726e-40
-2.80389e-41
-9.14291e-43
-5.9061e-45
5.58973e-45
3.54829e-45
1.22125e-45
4.91888e-46
4.0747e-46
3.11621e-46
3.64475e-22
-0.171705
-0.0994816
-0.00103149
)
;

boundaryField
{
    leftWall
    {
        type            calculated;
        value           nonuniform List<scalar> 
50
(
-29.4294
-88.2881
-147.147
-206.006
-264.864
-323.723
-382.582
-441.44
-533.467
-658.662
-783.856
-909.051
-1016.32
-946.404
-741.432
-334.317
-82.7872
-194.507
-329.547
-352.76
-328.565
-50.3702
-0.066546
-1.22488e-05
-1.26918e-05
-1.33182e-05
-1.39446e-05
-1.4571e-05
-1.51974e-05
-1.58238e-05
-0.162466
-0.697758
-0.724199
-0.172452
-0.00013412
-9.63093e-09
-6.26251e-10
-9.38118e-11
-1.55259e-11
-2.57964e-12
-4.16903e-13
-6.21953e-14
-1.80625e-14
-1.78993e-14
-5.28856e-14
-1.78434e-13
-6.09858e-13
-1.7223e-12
-4.83486e-12
-2.37896e-11
)
;
    }
    rightWall
    {
        type            calculated;
        value           nonuniform List<scalar> 
50
(
-28.6863
-86.6503
-144.418
-202.185
-262.479
-320.808
-376.557
-396.68
-434.441
-234.051
-0.169755
-0.196869
-0.0832777
-0.0331236
-0.159237
-0.192808
-0.0369247
-1.93753e-07
-2.08478e-07
-4.85065e-07
-7.74061e-06
-0.000324143
-0.000673329
-0.00071044
-0.000734301
-0.000103388
-9.26474e-06
-9.68093e-06
-1.94295e-05
-3.83757e-05
-0.000188862
-0.000550234
-0.00063459
-0.000566737
-0.000416553
-0.00128515
-0.0040391
-0.00440392
-0.00453701
-0.00466986
-0.0020972
-2.05253e-05
-2.45023e-06
-2.51502e-06
-5.08109e-06
-1.28905e-05
-3.35827e-05
-4.22651e-05
-4.32392e-05
-0.00103149
)
;
    }
    lowerWall
    {
        type            calculated;
        value           nonuniform List<scalar> 
62
(
0
0
0
0
0
0
0
0
0
0
0
0
0
0
0
0
0
0
0
0
0
0
0
-29.426
-88.2659
-147.109
-205.953
-264.799
-323.703
-382.579
-441.437
-470.831
-379.962
-328.013
-395.801
-26.7925
-80.3765
-133.221
-189.267
-243.467
-297.556
-206.065
-314.458
0
0
0
0
0
0
0
0
0
0
0
0
0
0
0
0
0
0
0
)
;
    }
    atmosphere
    {
        type            calculated;
        value           nonuniform List<scalar> 
46
(
-2.40524e-11
-5.59225e-10
-6.25854e-09
-4.61379e-08
-2.75339e-07
-7.76201e-06
-0.00084448
-0.00357179
-0.00309509
-0.000249462
-1.53854e-09
-1.31226e-08
-1.48336e-08
-3.06288e-09
-1.56129e-10
-1.96273e-12
-3.26293e-14
-4.17654e-17
-0
-0
-0
-0
-0
-0
-0
-0
-0
-0
-0
-0
-0
-0
-0
-0
-0
-0
-0
-0
-0
-0
-0
-0
-0
-0.173602
-0.100581
-0.00104288
)
;
    }
    defaultFaces
    {
        type            empty;
    }
}


// ************************************************************************* //
