/*--------------------------------*- C++ -*----------------------------------*\
| =========                 |                                                 |
| \\      /  F ield         | OpenFOAM: The Open Source CFD Toolbox           |
|  \\    /   O peration     | Version:  2012                                  |
|   \\  /    A nd           | Website:  www.openfoam.com                      |
|    \\/     M anipulation  |                                                 |
\*---------------------------------------------------------------------------*/
FoamFile
{
    version     2.0;
    format      ascii;
    class       volVectorField;
    location    "0.91";
    object      U;
}
// * * * * * * * * * * * * * * * * * * * * * * * * * * * * * * * * * * * * * //

dimensions      [0 1 -1 0 0 0 0];


internalField   nonuniform List<vector> 
2268
(
(-0.0111739 0.00600881 0)
(-0.0335289 0.00538384 0)
(-0.0543523 0.0052467 0)
(-0.0736449 0.0036826 0)
(-0.0904797 0.00275603 0)
(-0.105324 0.00177957 0)
(-0.118835 0.00268084 0)
(-0.129628 0.00258027 0)
(-0.139872 0.0028618 0)
(-0.146109 0.00172779 0)
(-0.148055 0.000399102 0)
(-0.143314 -0.00170664 0)
(-0.135529 -0.0029753 0)
(-0.11875 -0.00511061 0)
(-0.0982625 -0.00681379 0)
(-0.0677258 -0.00898912 0)
(-0.0309724 -0.0107155 0)
(0.0106339 -0.0114208 0)
(0.0500708 -0.0113335 0)
(0.0806683 -0.0107034 0)
(0.0945455 -0.00740553 0)
(0.0583823 -0.00688174 0)
(0.0435342 0.00515792 0)
(-0.0111421 0.0150904 0)
(-0.0339006 0.0149707 0)
(-0.0553216 0.0137062 0)
(-0.0743233 0.0133182 0)
(-0.0905746 0.0122357 0)
(-0.104976 0.0115459 0)
(-0.118679 0.00885994 0)
(-0.130045 0.00727152 0)
(-0.140523 0.0050012 0)
(-0.147113 0.00204076 0)
(-0.149137 -0.00164849 0)
(-0.144619 -0.00429458 0)
(-0.137282 -0.00858192 0)
(-0.120423 -0.0125517 0)
(-0.0995937 -0.0172733 0)
(-0.0683295 -0.0228277 0)
(-0.0316885 -0.0263119 0)
(0.0116158 -0.0268598 0)
(0.0520191 -0.0217815 0)
(0.082969 -0.010261 0)
(0.0957966 0.0179011 0)
(0.0642917 0.0310159 0)
(0.0379292 0.0429309 0)
(-0.0118613 0.0273819 0)
(-0.0348743 0.0263457 0)
(-0.0554212 0.0244542 0)
(-0.0748632 0.0204234 0)
(-0.0919636 0.0173663 0)
(-0.107345 0.0150599 0)
(-0.121399 0.0146593 0)
(-0.132513 0.0128478 0)
(-0.14259 0.0110836 0)
(-0.148386 0.00570807 0)
(-0.151262 -0.000630036 0)
(-0.147171 -0.00738722 0)
(-0.140082 -0.0143133 0)
(-0.122348 -0.0229653 0)
(-0.102187 -0.0313893 0)
(-0.0689411 -0.0411038 0)
(-0.0322353 -0.0485184 0)
(0.0152421 -0.0510092 0)
(0.0585051 -0.0450763 0)
(0.0949345 -0.0314047 0)
(0.114268 0.00140517 0)
(0.0782464 0.0205641 0)
(0.0390091 0.0535342 0)
(-0.0118282 0.0370386 0)
(-0.0350253 0.035375 0)
(-0.0565569 0.0324932 0)
(-0.0751735 0.0303689 0)
(-0.0915706 0.0275152 0)
(-0.106633 0.0253195 0)
(-0.120823 0.0207413 0)
(-0.13301 0.0171637 0)
(-0.144143 0.0125025 0)
(-0.151635 0.00604027 0)
(-0.155593 -0.00223519 0)
(-0.15172 -0.00965951 0)
(-0.145193 -0.0203059 0)
(-0.127937 -0.0305175 0)
(-0.107849 -0.042497 0)
(-0.0740071 -0.0558895 0)
(-0.0370291 -0.0660441 0)
(0.0150888 -0.0696508 0)
(0.0628778 -0.0594282 0)
(0.107483 -0.036449 0)
(0.1284 0.0257506 0)
(0.0968767 0.0666349 0)
(0.0384145 0.0981768 0)
(-0.0132595 0.049713 0)
(-0.0375551 0.0476928 0)
(-0.0585319 0.0436191 0)
(-0.0781833 0.0371945 0)
(-0.0954513 0.0324184 0)
(-0.111402 0.028932 0)
(-0.125829 0.0273036 0)
(-0.136842 0.0238513 0)
(-0.147516 0.0201026 0)
(-0.154615 0.0110161 0)
(-0.159733 -0.000357562 0)
(-0.156898 -0.0123863 0)
(-0.150882 -0.0254125 0)
(-0.132845 -0.0406569 0)
(-0.113389 -0.0568189 0)
(-0.0763756 -0.0746221 0)
(-0.0374616 -0.0907213 0)
(0.0209388 -0.0983669 0)
(0.0750459 -0.0888452 0)
(0.135442 -0.0624789 0)
(0.163295 0.00630888 0)
(0.126333 0.0631108 0)
(0.0633222 0.117471 0)
(-0.0123676 0.0608263 0)
(-0.0382105 0.0564736 0)
(-0.0606921 0.0515104 0)
(-0.0784682 0.0474717 0)
(-0.0952519 0.0431165 0)
(-0.110932 0.0395236 0)
(-0.125045 0.0327237 0)
(-0.137189 0.0272563 0)
(-0.15001 0.0208609 0)
(-0.161077 0.0117365 0)
(-0.167359 -0.00124348 0)
(-0.164606 -0.0139172 0)
(-0.159244 -0.0316996 0)
(-0.143242 -0.0483005 0)
(-0.122612 -0.0691767 0)
(-0.0861181 -0.0917565 0)
(-0.0461176 -0.111869 0)
(0.017075 -0.12256 0)
(0.080537 -0.113378 0)
(0.15445 -0.0778149 0)
(0.175038 0.0300854 0)
(0.139495 0.114121 0)
(0.056429 0.187939 0)
(-0.0144755 0.073864 0)
(-0.0397293 0.0708433 0)
(-0.0622466 0.0628621 0)
(-0.0817525 0.0538809 0)
(-0.0988109 0.0479085 0)
(-0.116396 0.0430483 0)
(-0.131513 0.0398765 0)
(-0.141677 0.0356869 0)
(-0.153843 0.0316151 0)
(-0.165136 0.0190745 0)
(-0.172854 0.00160844 0)
(-0.172987 -0.0163222 0)
(-0.169373 -0.0353388 0)
(-0.152235 -0.0580119 0)
(-0.131057 -0.08373 0)
(-0.0922111 -0.110854 0)
(-0.049911 -0.139738 0)
(0.0163461 -0.158638 0)
(0.0814124 -0.154179 0)
(0.160604 -0.107498 0)
(0.186962 0.013169 0)
(0.173269 0.118876 0)
(0.0953927 0.209316 0)
(-0.0154148 0.0861871 0)
(-0.0489202 0.0786686 0)
(-0.0703681 0.0711927 0)
(-0.08443 0.0643063 0)
(-0.101374 0.0594827 0)
(-0.118013 0.0549095 0)
(-0.131086 0.0446737 0)
(-0.141278 0.0375997 0)
(-0.15715 0.0319432 0)
(-0.174841 0.0206865 0)
(-0.183917 0.0023303 0)
(-0.18397 -0.0156216 0)
(-0.180468 -0.0415488 0)
(-0.163627 -0.0664832 0)
(-0.142548 -0.0975692 0)
(-0.111352 -0.130081 0)
(-0.0777645 -0.162817 0)
(-0.0149973 -0.184038 0)
(0.0412151 -0.180909 0)
(0.124159 -0.127044 0)
(0.154865 0.0240427 0)
(0.154745 0.158084 0)
(0.0927628 0.316427 0)
(-0.460073 0.22601 0)
(-1.04982 0.141104 0)
(-1.35112 0.0637151 0)
(-1.82583 -0.0272928 0)
(-1.82951 -0.0506485 0)
(-1.70758 -0.0465139 0)
(-1.51586 -0.0831083 0)
(-1.21898 -0.115657 0)
(-0.613158 -0.125165 0)
(-0.155903 -0.0887481 0)
(0.112832 -0.011211 0)
(0.200311 0.1035 0)
(-0.20031 0.0960533 0)
(-0.547437 -0.0156763 0)
(-0.67682 -0.00823172 0)
(-0.685622 0.0383322 0)
(-0.650005 -0.0114812 0)
(-0.532075 -0.0867053 0)
(-0.164121 -0.0863808 0)
(-0.317695 0.414894 0)
(-0.805199 0.23547 0)
(-1.0494 0.287541 0)
(-2.00171 0.208961 0)
(-2.10249 0.00583806 0)
(-1.74207 -0.0984701 0)
(-1.33183 -0.129099 0)
(-0.92334 -0.267816 0)
(-0.474188 -0.330401 0)
(-0.13698 -0.219132 0)
(0.0622991 -0.140509 0)
(0.40288 0.0313359 0)
(0.370321 0.221398 0)
(0.148448 0.219343 0)
(-0.29427 0.0670763 0)
(-0.447919 -0.0509332 0)
(-0.496135 -0.0540205 0)
(-0.271162 -0.120287 0)
(-0.131912 -0.210732 0)
(-0.273236 0.691473 0)
(-0.708948 0.448056 0)
(-1.11265 0.577765 0)
(-1.14681 0.404261 0)
(-1.06275 -0.173726 0)
(-0.622831 -0.325764 0)
(-1.08303 -0.373916 0)
(-0.602927 -0.478829 0)
(-0.363933 -0.461866 0)
(-0.165028 -0.316206 0)
(0.0320549 -0.240325 0)
(0.243844 -0.0307371 0)
(0.634746 0.202181 0)
(0.631107 0.267558 0)
(0.476993 0.243872 0)
(0.0727779 0.127181 0)
(-0.312961 -0.0854453 0)
(-0.0198771 -0.241351 0)
(-0.00926151 -0.257211 0)
(-0.246402 0.839398 0)
(-0.518486 0.609175 0)
(-0.531691 0.462303 0)
(0.0778598 0.212485 0)
(-0.209928 -0.152712 0)
(-0.17319 -0.183528 0)
(-0.463564 -0.240285 0)
(-0.32403 -0.575043 0)
(-0.295399 -0.51819 0)
(-0.183109 -0.386391 0)
(-0.0101638 -0.314539 0)
(0.110894 -0.222146 0)
(0.569373 0.0577495 0)
(0.665569 0.287847 0)
(0.568733 0.306019 0)
(0.407405 0.27853 0)
(0.176703 -0.0149029 0)
(0.174121 -0.249632 0)
(0.0730482 -0.223758 0)
(-0.212 1.00599 0)
(-0.35997 0.57872 0)
(0.0143909 0.311578 0)
(-0.0488134 0.25042 0)
(-0.157869 -0.0757577 0)
(-0.0895293 -0.187712 0)
(-0.102188 -0.244127 0)
(-0.152062 -0.54835 0)
(-0.25553 -0.523678 0)
(-0.179081 -0.437779 0)
(-0.0697214 -0.364881 0)
(0.00664515 -0.279916 0)
(0.157278 -0.0355668 0)
(0.55883 0.26793 0)
(0.493848 0.352705 0)
(0.358155 0.298734 0)
(0.369426 0.0169724 0)
(0.241979 -0.196273 0)
(0.100906 -0.152032 0)
(-0.121228 1.08827 0)
(-0.0966713 0.527614 0)
(-0.0436318 0.296247 0)
(-0.179485 0.298723 0)
(-0.104564 -0.137111 0)
(-0.0813761 -0.208496 0)
(-0.0213975 -0.221122 0)
(-0.0985155 -0.510771 0)
(-0.250763 -0.507558 0)
(-0.209418 -0.463755 0)
(-0.162601 -0.394435 0)
(-0.0604337 -0.316188 0)
(-0.121828 -0.176565 0)
(0.401464 0.146393 0)
(0.341245 0.390297 0)
(0.258917 0.327254 0)
(0.310542 0.0344524 0)
(0.192512 -0.136416 0)
(0.0729605 -0.0784207 0)
(-0.0440564 1.09294 0)
(0.0324665 0.549277 0)
(-0.215725 0.345874 0)
(-0.148873 0.279764 0)
(0.00105518 -0.115254 0)
(-0.238666 -0.223262 0)
(-0.00651437 -0.237233 0)
(-0.128956 -0.450257 0)
(-0.304575 -0.47636 0)
(-0.275108 -0.477721 0)
(-0.265587 -0.427 0)
(-0.285769 -0.299417 0)
(-0.456218 -0.235258 0)
(-0.198376 0.0727219 0)
(0.0588333 0.416679 0)
(0.149808 0.312936 0)
(0.197387 0.0450311 0)
(0.0533518 -0.0937237 0)
(0.0374248 -0.0391316 0)
(-0.0164895 1.09445 0)
(-0.0758977 0.603251 0)
(-0.24889 0.373349 0)
(0.00736984 0.214916 0)
(0.335823 -0.107944 0)
(-0.249944 -0.195409 0)
(-0.0383284 -0.270734 0)
(-0.219462 -0.383175 0)
(-0.369112 -0.446194 0)
(-0.373189 -0.47813 0)
(-0.449506 -0.388176 0)
(-0.62344 -0.232722 0)
(-0.752437 -0.209932 0)
(-0.757884 -0.0722696 0)
(-0.321944 0.236521 0)
(-0.0448442 0.265296 0)
(-0.0368853 0.0745382 0)
(-0.126884 -0.0689919 0)
(-0.045386 -0.0398679 0)
(-0.0173294 0.114831 0)
(-0.0472261 0.107624 0)
(-0.0735903 0.0845884 0)
(-0.0935432 0.0716566 0)
(-0.110309 0.0661236 0)
(-0.131837 0.058162 0)
(-0.144312 0.0544449 0)
(-0.145359 0.0540881 0)
(-0.155826 0.0564136 0)
(-0.17408 0.0376266 0)
(-0.188497 0.00845695 0)
(-0.195548 -0.0194607 0)
(-0.198146 -0.0465973 0)
(-0.186337 -0.0813138 0)
(-0.179138 -0.114295 0)
(-0.149947 -0.148012 0)
(-0.120198 -0.198676 0)
(-0.0490762 -0.2336 0)
(-0.00788606 -0.243726 0)
(0.0366004 -0.182185 0)
(0.0460189 -0.0151773 0)
(0.26821 0.140876 0)
(0.197354 0.32725 0)
(-0.0239801 0.140557 0)
(-0.0690925 0.124266 0)
(-0.0821112 0.113023 0)
(-0.0899983 0.097865 0)
(-0.107538 0.0960753 0)
(-0.116047 0.0882793 0)
(-0.119348 0.0550244 0)
(-0.116162 0.0427802 0)
(-0.146353 0.0524265 0)
(-0.202974 0.0473913 0)
(-0.227981 0.0215495 0)
(-0.238787 -0.00458005 0)
(-0.244159 -0.0489896 0)
(-0.255612 -0.0803877 0)
(-0.253042 -0.128234 0)
(-0.233109 -0.18324 0)
(-0.195051 -0.25108 0)
(-0.130933 -0.279109 0)
(-0.18664 -0.243534 0)
(-0.19679 -0.155809 0)
(-0.120415 -0.196359 0)
(0.0804563 0.0133711 0)
(0.077293 0.25533 0)
(-0.0405331 0.208601 0)
(-0.115798 0.16658 0)
(-0.152834 0.104879 0)
(-0.163556 0.0985838 0)
(-0.167964 0.091178 0)
(-0.144995 0.0683743 0)
(-0.108202 0.0531855 0)
(-0.00891137 0.0819105 0)
(-0.00728044 0.142378 0)
(-0.167131 0.119262 0)
(-0.312196 0.0451698 0)
(-0.351569 -0.00361766 0)
(-0.348691 -0.0294189 0)
(-0.335875 -0.0725122 0)
(-0.325468 -0.136542 0)
(-0.218784 -0.205947 0)
(0.115202 -0.293567 0)
(-0.139666 -0.232378 0)
(-0.247662 -0.166605 0)
(-0.0152685 -0.286983 0)
(-0.0134015 -0.28346 0)
(0.090952 -0.0602555 0)
(0.0515311 0.296584 0)
(-0.0594967 0.297475 0)
(-0.179859 0.236521 0)
(-0.290664 0.161909 0)
(-0.426942 0.111399 0)
(-0.47821 0.0798494 0)
(-0.480106 0.0348629 0)
(-0.342493 -0.0781852 0)
(-0.203723 -0.0609592 0)
(-0.0628447 0.217861 0)
(-0.0584436 0.353823 0)
(-0.18478 0.206011 0)
(-0.272243 0.0325958 0)
(-0.275705 -0.0647565 0)
(-0.0749504 -0.102737 0)
(-0.209426 -0.248633 0)
(-0.281777 -0.634935 0)
(-0.175171 -0.330309 0)
(-0.228895 0.0197334 0)
(-0.142737 -0.340923 0)
(-0.123046 -0.375474 0)
(-0.158046 -0.303879 0)
(-0.148436 -0.0529482 0)
(-0.20295 0.295036 0)
(-0.114084 0.450372 0)
(-0.320872 0.400348 0)
(-0.620863 0.350303 0)
(-0.854583 0.291604 0)
(-0.959733 0.141779 0)
(-0.948581 -0.0803138 0)
(-1.06657 -0.233167 0)
(-1.10101 -0.190041 0)
(-0.842631 -0.0408798 0)
(-0.34542 0.227563 0)
(0.054867 0.267592 0)
(0.187879 0.0860094 0)
(0.221529 -0.22993 0)
(-0.181673 -0.132672 0)
(-0.586246 0.0721922 0)
(-0.592235 -0.230981 0)
(-0.60822 -0.317071 0)
(-0.314729 -0.225753 0)
(-0.366945 -0.275966 0)
(-0.424131 -0.28717 0)
(-0.472965 -0.254064 0)
(-0.533244 -0.0141074 0)
(-0.598048 0.445275 0)
(-0.168502 0.735078 0)
(-0.441444 0.744077 0)
(-0.805 0.700572 0)
(-1.19352 0.452609 0)
(-1.31356 0.173992 0)
(-1.61822 0.160404 0)
(-1.81897 0.0972239 0)
(-1.67232 -0.306647 0)
(-1.61341 -0.46841 0)
(-1.28925 -0.516746 0)
(-0.931836 -0.361789 0)
(-0.469863 -0.0900058 0)
(-1.28743 0.354053 0)
(-1.566 0.699115 0)
(-1.36736 0.142865 0)
(-0.909976 -0.641393 0)
(-0.910679 -0.591562 0)
(-0.524656 -0.280637 0)
(-0.548801 -0.224649 0)
(-0.601483 -0.267974 0)
(-0.676869 -0.193984 0)
(-0.776005 0.0758693 0)
(-0.789547 0.48615 0)
(-0.168061 1.06144 0)
(-0.370163 1.03776 0)
(-0.651438 1.0981 0)
(-1.14332 0.797146 0)
(-1.35015 0.546766 0)
(-1.73541 0.368062 0)
(-1.70748 -0.221785 0)
(-1.63416 -0.394447 0)
(-1.56281 -0.456056 0)
(-1.53538 -0.493082 0)
(-1.52766 -0.529037 0)
(-1.4139 0.359814 0)
(-1.94046 0.771316 0)
(-1.64703 -0.0513979 0)
(-0.947509 -0.59718 0)
(-0.917326 -0.67721 0)
(-0.93225 -0.694113 0)
(-0.807968 -0.604742 0)
(-0.60842 -0.197301 0)
(-0.69797 -0.156493 0)
(-0.741444 -0.0807132 0)
(-0.793642 0.0985076 0)
(-0.766185 0.446558 0)
(-0.0647525 1.27708 0)
(-0.263123 1.22807 0)
(-0.444737 1.47324 0)
(-0.988014 1.14027 0)
(-1.23806 0.785528 0)
(-1.31669 0.635413 0)
(-1.48193 4.0946e-05 0)
(-1.5683 -0.464505 0)
(-1.54728 -0.559356 0)
(-1.54646 -0.551615 0)
(-1.60307 -0.504588 0)
(-1.84715 0.480298 0)
(-1.28859 0.720261 0)
(-0.940715 -0.306396 0)
(-0.923943 -0.600177 0)
(-0.92816 -0.656744 0)
(-0.936323 -0.677148 0)
(-0.951709 -0.640243 0)
(-0.976524 -0.280244 0)
(-0.96479 -0.144424 0)
(-0.868901 -0.0957466 0)
(-0.68178 0.102629 0)
(-0.526611 0.408196 0)
(-0.0586042 1.39309 0)
(-0.110811 1.39662 0)
(-0.434365 1.82185 0)
(-0.857956 1.70559 0)
(-1.07666 0.838431 0)
(-0.961265 0.603631 0)
(-0.942808 0.0489201 0)
(-1.0698 -0.300341 0)
(-1.30665 -0.479042 0)
(-1.45497 -0.417326 0)
(-1.50551 -0.20871 0)
(-1.49685 -0.143969 0)
(-1.23503 -0.183987 0)
(-0.957541 -0.444686 0)
(-0.941278 -0.606575 0)
(-0.914696 -0.666222 0)
(-0.884994 -0.669375 0)
(-0.874346 -0.576485 0)
(-0.971778 -0.189943 0)
(-0.977181 -0.277092 0)
(-0.844685 -0.366509 0)
(-0.68456 -0.245792 0)
(-0.318349 0.283636 0)
(-0.259012 1.41651 0)
(0.0592815 1.69935 0)
(-0.696215 2.16778 0)
(-0.631652 1.81625 0)
(-0.905658 0.842672 0)
(-0.669032 0.498817 0)
(-0.709584 0.0753464 0)
(-0.664692 -0.0929277 0)
(-0.8747 -0.20104 0)
(-0.935746 -0.386991 0)
(-1.07151 -0.431818 0)
(-1.06221 0.213765 0)
(-1.08916 0.195299 0)
(-1.02767 -0.580812 0)
(-0.971579 -0.647164 0)
(-0.870681 -0.710987 0)
(-0.799008 -0.718916 0)
(-0.740506 -0.553601 0)
(-0.781653 -0.165917 0)
(-0.805274 -0.267654 0)
(-0.740569 -0.392563 0)
(-0.655006 -0.426822 0)
(-0.445674 -0.110539 0)
(-0.362474 1.55516 0)
(0.0438974 1.94091 0)
(-0.74986 2.41509 0)
(-0.420992 1.95417 0)
(-0.833796 0.844278 0)
(-0.517811 0.433408 0)
(-0.65299 0.0354245 0)
(-0.499945 -0.11927 0)
(-0.566688 -0.202402 0)
(-0.525212 -0.192498 0)
(-0.710433 -0.10593 0)
(-0.711419 -0.0529046 0)
(-0.416744 -0.187127 0)
(-0.376202 -0.564045 0)
(-0.630495 -0.759184 0)
(-0.676844 -0.83769 0)
(-0.814988 -0.799556 0)
(-0.887118 -0.585786 0)
(-0.846453 -0.135279 0)
(-0.730397 -0.311563 0)
(-0.727789 -0.519937 0)
(-0.620019 -0.540679 0)
(-0.60318 -0.355572 0)
(-0.413452 1.70747 0)
(0.190125 2.15449 0)
(-0.812523 2.55255 0)
(-0.229084 1.97554 0)
(-0.74254 0.889939 0)
(-0.366405 0.352423 0)
(-0.562477 0.0235903 0)
(-0.350832 -0.159949 0)
(-0.453574 -0.197691 0)
(-0.358931 -0.245704 0)
(-0.42739 -0.212076 0)
(-0.315824 -0.190113 0)
(-0.242864 -0.116399 0)
(-0.201306 -0.381157 0)
(-0.35868 -0.373962 0)
(-0.477655 -0.521324 0)
(-0.671251 -0.538613 0)
(-0.810652 -0.507389 0)
(-0.772161 -0.33146 0)
(-0.609678 -0.379019 0)
(-0.65482 -0.51016 0)
(-0.666644 -0.548943 0)
(-0.694671 -0.393273 0)
(-0.419682 1.74978 0)
(0.362449 2.42357 0)
(-0.812643 2.74065 0)
(-0.191079 1.94788 0)
(-0.671418 0.932111 0)
(-0.276092 0.289701 0)
(-0.473127 -0.00228769 0)
(-0.250897 -0.2079 0)
(-0.353782 -0.201736 0)
(-0.256059 -0.206869 0)
(-0.334578 -0.150514 0)
(-0.303753 -0.211487 0)
(-0.287387 -0.302942 0)
(-0.234429 -0.433365 0)
(-0.341696 -0.467895 0)
(-0.330406 -0.502608 0)
(-0.466991 -0.461888 0)
(-0.523345 -0.460598 0)
(-0.566119 -0.368434 0)
(-0.513546 -0.404671 0)
(-0.56299 -0.479999 0)
(-0.589178 -0.492368 0)
(-0.62393 -0.440507 0)
(-0.413707 1.74192 0)
(0.25404 2.62947 0)
(-0.808986 3.02908 0)
(-0.26712 1.9001 0)
(-0.611166 0.9254 0)
(-0.239007 0.192621 0)
(-0.390255 -0.0354227 0)
(-0.184705 -0.256361 0)
(-0.297822 -0.21615 0)
(-0.182565 -0.252424 0)
(-0.253455 -0.17777 0)
(-0.167458 -0.244999 0)
(-0.225702 -0.19888 0)
(-0.22581 -0.320409 0)
(-0.325108 -0.305821 0)
(-0.366954 -0.386741 0)
(-0.460961 -0.370761 0)
(-0.498243 -0.398403 0)
(-0.555434 -0.351211 0)
(-0.540879 -0.372938 0)
(-0.605888 -0.439803 0)
(-0.665713 -0.481325 0)
(-0.729882 -0.502948 0)
(-0.399114 1.87069 0)
(-0.266318 2.88545 0)
(-0.842843 3.18796 0)
(-0.452665 1.80474 0)
(-0.557352 0.856209 0)
(-0.257447 0.105887 0)
(-0.324752 -0.0837261 0)
(-0.163483 -0.278078 0)
(-0.261004 -0.217324 0)
(-0.186056 -0.23762 0)
(-0.25114 -0.170916 0)
(-0.206216 -0.226793 0)
(-0.257311 -0.24442 0)
(-0.233166 -0.32199 0)
(-0.319576 -0.324981 0)
(-0.328176 -0.352466 0)
(-0.413204 -0.330904 0)
(-0.441992 -0.352657 0)
(-0.507686 -0.335003 0)
(-0.516154 -0.345098 0)
(-0.58618 -0.361849 0)
(-0.652203 -0.364587 0)
(-0.748596 -0.372608 0)
(-0.449606 2.41297 0)
(-0.618418 3.10734 0)
(-0.830397 3.17496 0)
(-0.596828 1.6541 0)
(-0.538531 0.689003 0)
(-0.276011 -0.00856685 0)
(-0.291388 -0.158261 0)
(-0.156126 -0.299478 0)
(-0.243373 -0.214378 0)
(-0.175436 -0.247363 0)
(-0.235175 -0.175137 0)
(-0.186084 -0.228743 0)
(-0.247684 -0.189591 0)
(-0.251431 -0.247635 0)
(-0.335848 -0.228687 0)
(-0.365672 -0.284271 0)
(-0.437668 -0.271835 0)
(-0.468976 -0.297554 0)
(-0.535711 -0.284339 0)
(-0.569287 -0.288379 0)
(-0.641089 -0.306715 0)
(-0.699962 -0.314447 0)
(-0.785135 -0.326723 0)
(-0.386821 2.9452 0)
(-0.60083 3.28711 0)
(-0.756402 3.14868 0)
(-0.596427 1.53618 0)
(-0.528541 0.510689 0)
(-0.273244 -0.118743 0)
(-0.27217 -0.222873 0)
(-0.160184 -0.308522 0)
(-0.229907 -0.210251 0)
(-0.177962 -0.233007 0)
(-0.234042 -0.16743 0)
(-0.208154 -0.203964 0)
(-0.268858 -0.182542 0)
(-0.268751 -0.224136 0)
(-0.333319 -0.212941 0)
(-0.350246 -0.241322 0)
(-0.420591 -0.229432 0)
(-0.451914 -0.246902 0)
(-0.517142 -0.237953 0)
(-0.546398 -0.235268 0)
(-0.600694 -0.23335 0)
(-0.647528 -0.218965 0)
(-0.709473 -0.210156 0)
(-0.218574 3.38993 0)
(-0.511639 3.48634 0)
(-0.61562 3.14823 0)
(-0.530667 1.44904 0)
(-0.470997 0.338498 0)
(-0.235338 -0.246494 0)
(-0.228841 -0.29056 0)
(-0.137357 -0.327311 0)
(-0.200562 -0.211538 0)
(-0.16208 -0.231644 0)
(-0.220793 -0.158114 0)
(-0.207528 -0.184401 0)
(-0.268054 -0.141034 0)
(-0.281487 -0.175038 0)
(-0.347533 -0.157498 0)
(-0.378154 -0.190635 0)
(-0.439754 -0.17808 0)
(-0.473333 -0.196454 0)
(-0.531583 -0.193825 0)
(-0.567285 -0.201426 0)
(-0.615668 -0.207126 0)
(-0.652069 -0.203205 0)
(-0.691001 -0.194324 0)
(-0.160737 3.67834 0)
(-0.371156 3.69514 0)
(-0.412829 3.15563 0)
(-0.37956 1.40992 0)
(-0.319257 0.195284 0)
(-0.133043 -0.346573 0)
(-0.140509 -0.334457 0)
(-0.0803296 -0.32421 0)
(-0.141713 -0.195084 0)
(-0.127154 -0.202423 0)
(-0.193519 -0.128444 0)
(-0.203283 -0.148339 0)
(-0.268615 -0.112493 0)
(-0.291065 -0.137682 0)
(-0.353878 -0.118979 0)
(-0.385831 -0.143156 0)
(-0.446083 -0.136122 0)
(-0.479286 -0.150749 0)
(-0.531476 -0.145527 0)
(-0.564177 -0.148735 0)
(-0.607831 -0.149137 0)
(-0.644751 -0.142661 0)
(-0.683434 -0.131915 0)
(-0.160316 3.92149 0)
(-0.204438 3.74259 0)
(-0.173127 3.1494 0)
(-0.104196 1.37474 0)
(-0.0575738 0.0727319 0)
(0.0377705 -0.413499 0)
(-0.00466092 -0.355929 0)
(-0.0023433 -0.315405 0)
(-0.0755298 -0.174592 0)
(-0.0926747 -0.171103 0)
(-0.163789 -0.0904052 0)
(-0.189723 -0.102149 0)
(-0.255574 -0.0603862 0)
(-0.289387 -0.0840059 0)
(-0.351028 -0.0682773 0)
(-0.387573 -0.094043 0)
(-0.445004 -0.0884004 0)
(-0.482058 -0.107973 0)
(-0.531156 -0.110743 0)
(-0.564744 -0.123095 0)
(-0.607234 -0.12722 0)
(-0.642705 -0.126355 0)
(-0.679725 -0.122736 0)
(-0.0743368 4.0441 0)
(-0.0259805 3.71348 0)
(0.0569314 3.04487 0)
(0.257027 1.31457 0)
(0.278558 0.0372008 0)
(0.259804 -0.389178 0)
(0.16718 -0.304656 0)
(0.0989836 -0.243458 0)
(0.00596884 -0.111809 0)
(-0.0479971 -0.106143 0)
(-0.132457 -0.0363729 0)
(-0.179434 -0.050207 0)
(-0.25223 -0.016189 0)
(-0.295999 -0.0372627 0)
(-0.361108 -0.0231025 0)
(-0.403907 -0.0453804 0)
(-0.460341 -0.0432221 0)
(-0.49665 -0.0620103 0)
(-0.544015 -0.0638388 0)
(-0.579093 -0.0711019 0)
(-0.624564 -0.071438 0)
(-0.665992 -0.0694879 0)
(-0.707726 -0.0654242 0)
(-0.0297934 4.02137 0)
(0.166349 3.61203 0)
(0.277505 2.85546 0)
(0.612146 1.17405 0)
(0.607636 0.05655 0)
(0.479535 -0.290898 0)
(0.319765 -0.203611 0)
(0.187031 -0.144426 0)
(0.0740315 -0.0336415 0)
(-0.00821364 -0.0255641 0)
(-0.0994656 0.0360858 0)
(-0.162627 0.0231839 0)
(-0.240668 0.0522802 0)
(-0.295315 0.0292667 0)
(-0.362896 0.0368653 0)
(-0.410676 0.00852209 0)
(-0.469453 0.00279207 0)
(-0.513238 -0.0219875 0)
(-0.569667 -0.0288164 0)
(-0.618449 -0.0410197 0)
(-0.680842 -0.0401753 0)
(-0.73392 -0.0421064 0)
(-0.782254 -0.0454676 0)
(0.0416355 3.90378 0)
(0.296239 3.40765 0)
(0.55363 2.58586 0)
(0.925842 1.00091 0)
(0.859185 0.156606 0)
(0.645407 -0.0938136 0)
(0.428376 -0.0174695 0)
(0.258873 0.00842607 0)
(0.120664 0.0799284 0)
(0.0137777 0.0727734 0)
(-0.0889626 0.114884 0)
(-0.165215 0.0955882 0)
(-0.247733 0.114028 0)
(-0.308191 0.088463 0)
(-0.377889 0.0904359 0)
(-0.42963 0.0637106 0)
(-0.492313 0.0579394 0)
(-0.543156 0.0400505 0)
(-0.611705 0.040517 0)
(-0.676093 0.0414171 0)
(-0.745743 0.0437269 0)
(-0.801249 0.0325392 0)
(-0.846403 0.0210659 0)
(0.184277 3.68396 0)
(0.399894 3.09755 0)
(0.892964 2.22066 0)
(1.13074 0.87813 0)
(0.983735 0.331527 0)
(0.706012 0.147322 0)
(0.476797 0.181392 0)
(0.293248 0.169505 0)
(0.150291 0.209391 0)
(0.0312648 0.189337 0)
(-0.0753844 0.212756 0)
(-0.162119 0.18636 0)
(-0.24893 0.193435 0)
(-0.317052 0.163029 0)
(-0.391089 0.157207 0)
(-0.45066 0.125851 0)
(-0.522095 0.115984 0)
(-0.589662 0.099668 0)
(-0.673566 0.104439 0)
(-0.745149 0.0946722 0)
(-0.803821 0.0858121 0)
(-0.843049 0.0598459 0)
(-0.877987 0.0394829 0)
(0.345783 3.3128 0)
(0.58562 2.69797 0)
(1.15051 1.85055 0)
(1.14625 0.920021 0)
(0.958224 0.575664 0)
(0.671608 0.418757 0)
(0.464807 0.393418 0)
(0.279814 0.339444 0)
(0.139325 0.340165 0)
(0.0148946 0.302242 0)
(-0.0921346 0.306368 0)
(-0.183307 0.272358 0)
(-0.272038 0.267174 0)
(-0.344693 0.233113 0)
(-0.422651 0.2225 0)
(-0.489674 0.196644 0)
(-0.572053 0.195792 0)
(-0.653675 0.193248 0)
(-0.735499 0.195331 0)
(-0.793744 0.172886 0)
(-0.832785 0.141157 0)
(-0.856574 0.107019 0)
(-0.896968 0.0983231 0)
(0.432184 2.75038 0)
(0.698769 2.29079 0)
(1.10115 1.6561 0)
(0.980074 1.0689 0)
(0.808396 0.807485 0)
(0.572864 0.644421 0)
(0.408951 0.573599 0)
(0.243844 0.49922 0)
(0.116996 0.473877 0)
(-0.00397678 0.424736 0)
(-0.107664 0.410326 0)
(-0.200541 0.369869 0)
(-0.289706 0.354373 0)
(-0.367593 0.316875 0)
(-0.451685 0.302134 0)
(-0.532877 0.278094 0)
(-0.628785 0.280283 0)
(-0.714061 0.265219 0)
(-0.778186 0.245373 0)
(-0.809147 0.193276 0)
(-0.83027 0.149247 0)
(-0.856938 0.125296 0)
(-0.887191 0.116063 0)
(0.317292 2.17901 0)
(0.568923 2.00612 0)
(0.826785 1.57667 0)
(0.717104 1.21468 0)
(0.615187 0.982946 0)
(0.444373 0.821463 0)
(0.317494 0.722582 0)
(0.176081 0.634118 0)
(0.0628973 0.587426 0)
(-0.0506931 0.529344 0)
(-0.150216 0.501893 0)
(-0.242744 0.456532 0)
(-0.332689 0.432954 0)
(-0.41425 0.39689 0)
(-0.503899 0.386596 0)
(-0.594336 0.375497 0)
(-0.686873 0.376226 0)
(-0.754458 0.344268 0)
(-0.791404 0.289701 0)
(-0.803223 0.225449 0)
(-0.831789 0.188653 0)
(-0.848709 0.163921 0)
(-0.866769 0.150793 0)
(0.150103 1.85625 0)
(0.365678 1.77964 0)
(0.517005 1.51052 0)
(0.486153 1.27602 0)
(0.434184 1.08294 0)
(0.321142 0.943433 0)
(0.226517 0.842875 0)
(0.111352 0.756393 0)
(0.0136914 0.701112 0)
(-0.0890049 0.64074 0)
(-0.182445 0.602717 0)
(-0.272503 0.555371 0)
(-0.362145 0.526289 0)
(-0.451312 0.491101 0)
(-0.549517 0.482806 0)
(-0.647944 0.463499 0)
(-0.726892 0.441165 0)
(-0.766057 0.371499 0)
(-0.777757 0.294095 0)
(-0.79796 0.235141 0)
(-0.816937 0.194624 0)
(-0.826178 0.161415 0)
(-0.823362 0.132109 0)
(0.0705649 1.66573 0)
(0.223575 1.63429 0)
(0.31618 1.45859 0)
(0.315587 1.29912 0)
(0.282471 1.14981 0)
(0.202162 1.03071 0)
(0.125232 0.933167 0)
(0.0279409 0.848572 0)
(-0.059753 0.787838 0)
(-0.154126 0.727079 0)
(-0.241852 0.684899 0)
(-0.330212 0.637635 0)
(-0.418887 0.61098 0)
(-0.5114 0.58566 0)
(-0.612694 0.582475 0)
(-0.69807 0.554483 0)
(-0.749808 0.49394 0)
(-0.756086 0.395264 0)
(-0.777627 0.321558 0)
(-0.787035 0.26473 0)
(-0.795581 0.216884 0)
(-0.783161 0.17043 0)
(-0.759402 0.122242 0)
(0.033446 1.55957 0)
(0.13144 1.53253 0)
(0.188109 1.41871 0)
(0.190724 1.30904 0)
(0.167137 1.19718 0)
(0.109325 1.10157 0)
(0.0470794 1.01792 0)
(-0.0339448 0.943095 0)
(-0.112891 0.883911 0)
(-0.199211 0.825032 0)
(-0.283316 0.77957 0)
(-0.37065 0.735066 0)
(-0.462203 0.708405 0)
(-0.562614 0.687467 0)
(-0.657568 0.670414 0)
(-0.721499 0.602914 0)
(-0.734524 0.498783 0)
(-0.745331 0.40108 0)
(-0.763609 0.324671 0)
(-0.76385 0.253991 0)
(-0.757532 0.190298 0)
(-0.728258 0.125326 0)
(-0.692526 0.0642847 0)
(0.0157301 1.50161 0)
(0.0712968 1.47844 0)
(0.0980629 1.40034 0)
(0.093662 1.32058 0)
(0.0682105 1.23225 0)
(0.0183173 1.15172 0)
(-0.0391893 1.07715 0)
(-0.111991 1.00966 0)
(-0.185776 0.953462 0)
(-0.266848 0.898588 0)
(-0.347653 0.856214 0)
(-0.435902 0.81741 0)
(-0.526315 0.80256 0)
(-0.622445 0.782081 0)
(-0.698132 0.74126 0)
(-0.719115 0.631449 0)
(-0.727283 0.517681 0)
(-0.737866 0.424474 0)
(-0.736546 0.339931 0)
(-0.72348 0.259016 0)
(-0.696488 0.181196 0)
(-0.660013 0.105761 0)
(-0.617221 0.0358325 0)
(0.00515726 1.47155 0)
(0.0314374 1.44938 0)
(0.0382733 1.39603 0)
(0.0275123 1.33878 0)
(0.000867661 1.27283 0)
(-0.043833 1.20962 0)
(-0.0971048 1.14885 0)
(-0.16352 1.09095 0)
(-0.23271 1.03954 0)
(-0.309309 0.988757 0)
(-0.390041 0.949685 0)
(-0.47813 0.916329 0)
(-0.575093 0.895967 0)
(-0.661479 0.861642 0)
(-0.703442 0.768007 0)
(-0.702561 0.633093 0)
(-0.716456 0.517797 0)
(-0.714777 0.410838 0)
(-0.705242 0.309855 0)
(-0.68083 0.213774 0)
(-0.648529 0.125907 0)
(-0.607871 0.0453807 0)
(-0.562426 -0.0287659 0)
(-0.00120428 1.46563 0)
(0.00174517 1.44544 0)
(-0.00979712 1.40499 0)
(-0.0323673 1.35865 0)
(-0.0669718 1.30437 0)
(-0.114381 1.25059 0)
(-0.168917 1.1975 0)
(-0.232642 1.14617 0)
(-0.299755 1.09965 0)
(-0.374257 1.05652 0)
(-0.453542 1.02506 0)
(-0.541472 1.00261 0)
(-0.628774 0.985856 0)
(-0.691619 0.911144 0)
(-0.692129 0.78061 0)
(-0.695643 0.645456 0)
(-0.694236 0.529007 0)
(-0.679079 0.413906 0)
(-0.655492 0.305892 0)
(-0.62193 0.202922 0)
(-0.584608 0.108349 0)
(-0.540634 0.0201469 0)
(-0.494553 -0.0611741 0)
(-0.0054689 1.47058 0)
(-0.0175521 1.45773 0)
(-0.039472 1.42985 0)
(-0.0687982 1.39592 0)
(-0.107252 1.35499 0)
(-0.15528 1.31207 0)
(-0.209682 1.26766 0)
(-0.271965 1.22295 0)
(-0.338773 1.18219 0)
(-0.413857 1.14457 0)
(-0.494914 1.11842 0)
(-0.58457 1.09419 0)
(-0.660385 1.04761 0)
(-0.682204 0.926222 0)
(-0.677557 0.773322 0)
(-0.678281 0.635274 0)
(-0.666191 0.501196 0)
(-0.644383 0.371703 0)
(-0.615385 0.251769 0)
(-0.579597 0.141942 0)
(-0.539839 0.0433207 0)
(-0.49457 -0.0458312 0)
(-0.446786 -0.126618 0)
(-0.0128581 1.48945 0)
(-0.0396935 1.48033 0)
(-0.0741433 1.45731 0)
(-0.113738 1.42746 0)
(-0.160142 1.39175 0)
(-0.213022 1.35392 0)
(-0.270864 1.31469 0)
(-0.334571 1.27577 0)
(-0.403033 1.24147 0)
(-0.477901 1.21268 0)
(-0.557739 1.19517 0)
(-0.633961 1.16782 0)
(-0.678291 1.08295 0)
(-0.669953 0.92757 0)
(-0.663863 0.77609 0)
(-0.649728 0.634131 0)
(-0.623945 0.495226 0)
(-0.593041 0.363669 0)
(-0.556174 0.241574 0)
(-0.516674 0.128108 0)
(-0.473046 0.023867 0)
(-0.429283 -0.0723193 0)
(-0.383614 -0.158382 0)
(-0.0173389 1.52276 0)
(-0.0512108 1.51866 0)
(-0.0907037 1.50373 0)
(-0.134292 1.48205 0)
(-0.183645 1.45467 0)
(-0.238695 1.42366 0)
(-0.298731 1.39029 0)
(-0.364368 1.35681 0)
(-0.435494 1.32736 0)
(-0.511628 1.30179 0)
(-0.592445 1.2767 0)
(-0.659765 1.21749 0)
(-0.667235 1.08445 0)
(-0.654403 0.913242 0)
(-0.64339 0.753053 0)
(-0.6199 0.595176 0)
(-0.590638 0.443592 0)
(-0.55672 0.302791 0)
(-0.519434 0.173921 0)
(-0.479172 0.0573013 0)
(-0.4355 -0.0456774 0)
(-0.388942 -0.136719 0)
(-0.345349 -0.22057 0)
(-0.0253267 1.55898 0)
(-0.0741164 1.55463 0)
(-0.124536 1.54113 0)
(-0.177072 1.5209 0)
(-0.234317 1.49631 0)
(-0.295409 1.46902 0)
(-0.360299 1.43996 0)
(-0.429486 1.4121 0)
(-0.502346 1.38785 0)
(-0.575225 1.36869 0)
(-0.643177 1.34219 0)
(-0.673901 1.24145 0)
(-0.659222 1.07617 0)
(-0.63767 0.903335 0)
(-0.613228 0.741136 0)
(-0.577586 0.581936 0)
(-0.542099 0.432562 0)
(-0.500911 0.293483 0)
(-0.460238 0.164917 0)
(-0.415213 0.045269 0)
(-0.374982 -0.0655178 0)
(-0.331618 -0.161618 0)
(-0.291311 -0.247264 0)
(-0.026195 1.62299 0)
(-0.0780877 1.61882 0)
(-0.130906 1.60792 0)
(-0.187423 1.59357 0)
(-0.247031 1.57504 0)
(-0.310892 1.55206 0)
(-0.37813 1.5269 0)
(-0.450611 1.50173 0)
(-0.524722 1.47603 0)
(-0.599154 1.44568 0)
(-0.657502 1.37809 0)
(-0.66055 1.23538 0)
(-0.64018 1.04915 0)
(-0.616693 0.867379 0)
(-0.586544 0.692262 0)
(-0.549171 0.522899 0)
(-0.512388 0.36516 0)
(-0.470957 0.219062 0)
(-0.431917 0.0861812 0)
(-0.387366 -0.0299757 0)
(-0.345893 -0.131181 0)
(-0.304954 -0.222221 0)
(-0.26635 -0.304228 0)
(-0.0335805 1.66207 0)
(-0.099722 1.65812 0)
(-0.166934 1.64888 0)
(-0.234307 1.63507 0)
(-0.302529 1.61753 0)
(-0.373637 1.59801 0)
(-0.446608 1.57738 0)
(-0.521744 1.55687 0)
(-0.592273 1.53408 0)
(-0.654928 1.5001 0)
(-0.679143 1.40144 0)
(-0.657056 1.22271 0)
(-0.623968 1.03173 0)
(-0.588983 0.849629 0)
(-0.547995 0.674253 0)
(-0.505372 0.508858 0)
(-0.462183 0.35579 0)
(-0.417116 0.214477 0)
(-0.373817 0.0828855 0)
(-0.333289 -0.0393239 0)
(-0.297466 -0.146554 0)
(-0.259815 -0.239872 0)
(-0.226729 -0.324481 0)
(-0.0338462 1.76131 0)
(-0.0998796 1.75731 0)
(-0.167991 1.74796 0)
(-0.23546 1.73494 0)
(-0.307061 1.72029 0)
(-0.379799 1.70182 0)
(-0.45501 1.68033 0)
(-0.530515 1.65222 0)
(-0.602813 1.61337 0)
(-0.660199 1.53574 0)
(-0.662976 1.38224 0)
(-0.635654 1.1806 0)
(-0.606303 0.980528 0)
(-0.570336 0.790028 0)
(-0.529502 0.606662 0)
(-0.485836 0.434596 0)