/*--------------------------------*- C++ -*----------------------------------*\
| =========                 |                                                 |
| \\      /  F ield         | OpenFOAM: The Open Source CFD Toolbox           |
|  \\    /   O peration     | Version:  2012                                  |
|   \\  /    A nd           | Website:  www.openfoam.com                      |
|    \\/     M anipulation  |                                                 |
\*---------------------------------------------------------------------------*/
FoamFile
{
    version     2.0;
    format      ascii;
    class       volScalarField;
    location    "0.91";
    object      volumeFraction1;
}
// * * * * * * * * * * * * * * * * * * * * * * * * * * * * * * * * * * * * * //

dimensions      [0 0 0 0 0 0 0];


internalField   nonuniform List<scalar> 
2268
(
1
1
1
1
1
1
1
1
1
1
1
1
1
1
1
1
1
1
1
1
1
1
0.999884
1
1
1
1
1
1
1
1
1
1
1
1
1
1
1
1
1
1
1
1
1
0.999997
0.999749
1
1
1
1
1
1
1
1
1
1
1
1
1
1
1
1
1
1
1
1
1
1
0.999743
1
1
1
1
1
1
1
1
1
1
1
1
1
1
1
1
1
1
1
1
1
1
0.999743
1
1
1
1
1
1
1
1
1
1
1
1
1
1
1
1
1
0.999999
1
1
1
1
0.999752
1
1
1
1
1
1
1
1
1
1
1
1
1
1
1
1
1
1
0.999995
0.999998
1
1
0.999937
1
1
1
1
1
1
1
1
1
1
1
1
1
1
1
1
1
1
0.999976
0.999906
0.999983
0.999973
0.999993
1
1
1
1
1
1
1
1
1
1
1
1
1
1
1
0.999998
0.99994
0.999124
0.99559
0.991137
0.993506
0.999993
0.999993
0.910401
0.496513
0.00129599
0.00307641
0.171131
0.669423
0.866896
0.917612
0.927015
0.922557
0.829001
0.807647
0.92076
0.951825
0.951824
0.967314
0.972673
0.974751
0.974752
0.910389
0.370031
0.00129599
0.00340447
0.0252182
0.0660208
0.195824
0.599138
0.946443
0.972493
0.951796
0.935693
0.935705
0.749935
0.548179
0.720403
0.737976
0.84519
0.98145
0.905358
0.311896
0.00129599
0.00134433
0.00506816
0.0105493
0.010548
0.368797
0.976715
0.976715
0.963766
0.866126
0.935699
0.92788
0.627326
0.239497
0.209543
0.597372
0.981453
0.918747
0.513498
0.00129599
0.00129599
0.137673
0.358734
0.0388766
0.534419
0.976716
0.976715
0.976715
0.962187
0.682581
0.877548
0.848268
0.245415
0.209543
0.788556
0.981453
0.919214
0.486025
0.00129599
0.04829
0.572214
0.573211
0.326693
0.847458
0.976716
0.976716
0.976134
0.868669
0.649741
0.688498
0.848268
0.427095
0.590027
0.966086
0.990996
0.919168
0.180084
0.0879856
0.245656
0.245655
0.486633
0.777319
0.976717
0.976717
0.97669
0.82488
0.320487
0.33236
0.22846
0.602546
0.833437
0.973325
0.990996
0.990996
0.538616
0.274884
0.518947
0.208226
0.0147341
0.0419993
0.844874
0.976717
0.976716
0.918254
0.344776
0.156276
0.164112
0.166157
0.199378
0.850162
0.970594
0.951496
0.984252
0.712346
0.713606
0.683912
0.0285755
0.014734
0.0286149
0.635418
0.976716
0.975754
0.69957
0.161615
0.156278
0.156366
0.168876
0.168878
0.592842
0.857934
0.950135
0.898604
1
1
1
1
1
1
1
1
1
1
1
0.999885
0.999812
0.999631
0.999017
0.994662
0.964364
0.83738
0.662123
0.587762
0.63118
0.83799
0.999246
1
1
1
1
1
1
0.993972
0.934228
0.931055
0.955896
0.962927
0.958879
0.954293
0.946442
0.876461
0.694789
0.363424
0.128928
0.0255434
0.0259297
0.150092
0.419116
0.937291
1
1
1
0.999245
0.893109
0.534753
0.338027
0.316871
0.384122
0.56014
0.700681
0.727173
0.70695
0.509723
0.165339
0.016709
3.36379e-08
3.36379e-08
3.36379e-08
0.00612944
0.207133
0.566768
0.601886
1
0.999763
0.98853
0.760868
0.254088
0.197877
0.197877
0.133403
0.0892736
0.117074
0.288147
0.42735
0.228471
0.00425721
3.36379e-08
3.36379e-08
3.36379e-08
4.07431e-06
0.00703119
0.231688
0.788457
0.919303
0.8079
0.982665
0.979537
0.960746
0.573617
0.284524
0.205808
0.121926
0.0207199
0.0134313
0.0134315
0.0182085
0.0265433
0.0122333
0.00453513
0.000115101
3.36379e-08
3.36379e-08
5.95886e-05
0.0548019
0.671874
0.944936
0.944937
0.944937
0.81626
0.932945
0.763966
0.399848
0.179388
0.0421899
0.0378302
0.072314
0.123365
0.068579
0.00799334
7.55632e-08
2.60377e-05
0.000170924
0.000150839
0.000257478
0.000301762
0.000128275
0.0613538
0.653669
0.944937
0.944937
0.944937
0.577154
0.715744
0.274272
0.06356
0.0218234
0.00292253
0.060646
0.165335
0.165144
0.165335
0.0488808
7.55756e-08
1.53251e-05
0.00100978
0.0124134
0.0654668
0.0817078
0.0201738
0.0213945
0.280077
0.885345
0.944937
0.924633
0.237133
0.239148
0.0269772
4.27868e-08
0.000192344
0.000276955
0.00137241
0.00842437
0.092186
0.151399
0.0626361
7.55632e-08
7.55756e-08
0.0077309
0.110355
0.245157
0.245141
0.115836
0.0123198
0.0828177
0.648668
0.944936
0.937881
0.0539322
0.00509636
0.00196357
4.36825e-08
2.97053e-07
2.38544e-06
2.07644e-06
2.40101e-10
2.3941e-10
2.40101e-10
0.0129615
0.0311244
0.0402456
0.0610194
0.213588
0.245141
0.245157
0.159013
0.0123256
0.0431267
0.32686
0.599366
0.702275
0.117157
4.273e-10
1.11888e-05
8.27704e-06
2.44616e-10
9.00006e-09
5.16323e-09
2.34972e-09
1.51764e-08
2.79141e-08
2.79111e-08
0.000105103
0.00218248
0.0129112
0.0661213
0.0986621
0.0575083
0.00941437
0.0123255
0.0500179
0.145348
0.157843
0.174206
0.184577
4.42308e-10
1.35606e-06
9.22497e-06
2.44634e-10
2.35608e-10
2.3702e-10
2.97524e-10
1.38106e-09
8.04504e-08
2.24833e-07
2.31958e-07
6.39849e-07
1.33366e-10
1.33366e-10
1.33366e-10
1.33366e-10
1.33366e-10
4.11144e-05
0.000774698
1.33366e-10
1.33366e-10
0.00464571
0.184632
4.273e-10
1.67987e-07
2.08568e-06
1.29332e-08
2.35598e-10
2.37228e-10
3.3422e-10
3.34219e-10
5.26153e-10
1.04687e-07
9.07787e-07
1.14304e-06
4.10098e-07
1.33366e-10
3.457e-10
1.26215e-09
1.50586e-09
1.41885e-09
1.41323e-09
5.62423e-09
2.40062e-09
2.39995e-09
0.161394
4.42308e-10
1.03895e-08
7.17793e-09
6.01739e-09
6.01643e-09
7.73212e-10
4.15958e-10
5.65628e-10
6.65451e-10
5.96323e-09
2.77167e-07
1.14295e-06
9.05287e-07
1.33366e-10
4.00464e-10
2.02905e-09
2.73696e-09
1.18763e-08
2.96315e-08
3.04266e-08
1.78827e-08
2.52284e-07
0.0233088
4.273e-10
3.7775e-09
1.70913e-08
7.85818e-08
1.95609e-10
6.69675e-10
3.87788e-10
5.833e-10
8.03278e-10
7.32374e-10
7.32355e-10
6.12881e-08
1.29883e-07
2.71424e-09
4.00555e-10
1.17043e-09
1.39861e-09
9.6733e-09
2.94847e-08
3.04256e-08
1.89178e-08
8.96674e-10
2.91078e-05
3.39033e-08
3.77748e-09
3.41178e-08
4.18251e-07
8.25553e-11
2.59177e-10
2.23885e-10
4.32022e-10
7.29183e-10
1.81888e-09
1.09321e-08
1.04299e-08
1.38804e-10
8.48052e-10
1.46236e-09
1.10467e-09
4.71741e-10
6.46685e-11
6.46688e-11
6.46685e-11
6.50354e-11
2.20396e-09
5.07955e-09
2.16019e-08
3.7707e-09
3.87456e-09
4.1794e-07
8.43752e-11
1.4092e-10
1.61545e-10
3.48677e-10
5.84784e-10
2.19809e-09
7.51776e-09
1.38804e-10
1.38804e-10
3.75054e-10
9.11492e-10
8.30149e-10
4.36419e-10
2.01906e-10
9.30482e-11
6.55059e-11
6.47115e-11
6.50252e-11
5.0035e-09
1.64312e-08
3.92928e-07
3.59711e-06
1.98038e-10
8.24999e-11
1.09056e-10
1.26798e-10
2.82055e-10
5.06389e-10
1.46015e-09
3.30562e-09
8.34283e-10
1.81777e-10
2.50062e-10
3.34451e-10
2.84455e-10
1.63631e-10
1.23323e-10
1.02926e-10
7.69945e-11
6.99183e-11
1.06175e-10
5.0035e-09
5.05874e-08
2.5921e-06
4.17004e-06
4.37405e-09
8.25006e-11
8.25006e-11
9.64951e-11
2.07618e-10
4.80931e-10
1.15231e-09
9.16187e-10
3.06866e-10
1.19171e-10
1.59249e-10
1.5993e-10
1.15132e-10
6.4082e-11
4.22789e-11
3.51386e-11
3.74396e-11
5.62619e-11
1.13294e-10
5.0035e-09
3.7191e-08
2.3728e-06
3.92978e-06
1.65633e-10
1.65631e-10
7.16441e-11
7.2004e-11
1.50734e-10
3.82402e-10
9.29285e-10
5.2575e-10
1.13875e-10
7.26376e-11
8.14708e-11
7.13224e-11
4.02945e-11
2.25666e-11
1.81351e-11
2.08966e-11
3.53996e-11
7.72505e-11
1.71232e-10
5.0035e-09
9.55134e-09
3.7088e-07
6.75723e-07
1.28587e-08
1.76555e-10
6.46928e-11
5.21637e-11
1.11947e-10
3.21798e-10
5.88035e-10
2.43785e-10
5.65998e-11
4.16052e-11
3.97301e-11
2.69829e-11
1.40632e-11
1.09384e-11
1.5847e-11
4.86393e-11
1.65667e-10
4.92871e-10
1.43245e-09
5.0035e-09
5.0035e-09
5.0035e-09
3.78138e-07
1.98713e-08
1.28352e-10
4.60413e-11
3.70361e-11
8.83234e-11
2.7918e-10
3.22523e-10
1.00163e-10
3.02423e-11
2.15256e-11
1.61406e-11
8.90977e-12
7.16163e-12
1.41742e-11
7.00291e-11
3.42401e-10
1.82239e-09
9.85154e-09
1.9596e-08
5.0035e-09
1.62556e-05
1.7827e-05
1.18317e-06
7.054e-10
6.0131e-11
2.88636e-11
2.6598e-11
7.60239e-11
2.18375e-10
1.71854e-10
4.22708e-11
1.61478e-11
1.00362e-11
6.22057e-12
5.5083e-12
1.25883e-11
7.254e-11
3.82105e-10
2.5305e-09
2.30574e-08
6.4106e-08
4.82222e-08
4.94157e-05
0.000194647
0.000112539
1.73521e-06
5.22724e-10
4.39643e-11
1.94659e-11
2.0102e-11
6.7472e-11
1.43355e-10
7.88859e-11
1.89654e-11
7.66974e-12
4.57768e-12
4.75574e-12
1.22607e-11
6.88639e-11
3.41824e-10
2.42909e-09
3.35915e-08
7.77471e-08
7.62763e-08
1.66153e-08
0.000204445
0.000204684
0.000101485
9.76691e-07
6.22863e-10
4.19667e-11
1.39094e-11
1.58279e-11
5.8973e-11
8.07436e-11
3.4093e-11
8.53631e-12
3.37177e-12
2.99117e-12
7.83955e-12
3.4551e-11
1.81021e-10
2.48944e-09
4.55687e-08
7.77031e-08
7.51926e-08
1.41373e-08
1.35246e-11
0.000204684
0.000148038
2.25596e-05
4.59865e-07
9.23397e-10
4.95172e-11
9.75685e-12
1.28755e-11
4.58211e-11
4.10113e-11
1.38494e-11
3.8014e-12
2.30974e-12
2.78891e-12
3.72588e-12
3.72598e-12
3.7266e-12
3.24062e-08
7.31961e-08
7.00035e-08
8.03396e-09
2.50726e-11
2.50716e-11
4.70751e-05
1.20328e-05
1.09165e-06
6.79875e-08
1.05187e-09
4.88391e-11
5.24284e-12
1.03648e-11
2.91022e-11
1.93088e-11
5.85088e-12
2.41673e-12
9.59117e-12
7.60418e-11
6.36471e-10
1.29107e-08
7.949e-08
8.77104e-08
4.31944e-08
1.07204e-11
5.35909e-10
4.78087e-11
3.24547e-11
3.54017e-08
2.67865e-08
5.59973e-09
2.00317e-09
2.07858e-10
1.18661e-11
2.35122e-12
8.20962e-12
1.61272e-11
6.43188e-12
1.88886e-12
1.4414e-12
4.55219e-12
2.5591e-11
4.61004e-10
3.7815e-08
9.94004e-08
8.76386e-08
1.07204e-11
1.07187e-11
4.60029e-11
2.73307e-11
1.77654e-11
2.46081e-12
9.0092e-12
1.54432e-11
5.22312e-11
1.56667e-11
1.30939e-12
1.56324e-12
5.89928e-12
7.82479e-12
3.7455e-12
4.01836e-12
8.88335e-12
1.30327e-12
1.30401e-12
2.90944e-09
5.70934e-08
4.89958e-08
1.37685e-08
2.71222e-10
6.82078e-12
1.47728e-11
9.28835e-12
4.25617e-12
1.55054e-13
7.78477e-13
1.49074e-12
4.16144e-12
1.22619e-12
3.23041e-13
1.26465e-12
3.72034e-12
3.72531e-12
4.08316e-12
2.46292e-11
1.88043e-10
1.63005e-09
4.0997e-08
1.87495e-07
7.90926e-08
3.8999e-12
6.58715e-10
2.71387e-10
6.82055e-12
3.45233e-12
1.55344e-12
6.13406e-13
2.25287e-14
1.01343e-13
1.63812e-13
3.57417e-13
1.27091e-13
2.00883e-13
9.52208e-13
1.62283e-12
1.65797e-12
6.27833e-12
6.29213e-11
9.16138e-10
3.76943e-08
1.87096e-07
1.87662e-07
6.41029e-08
3.89985e-12
8.15607e-11
6.78578e-11
4.16541e-12
6.47144e-13
1.88011e-13
5.97619e-14
3.61968e-15
1.26819e-14
1.84064e-14
3.46104e-14
3.13406e-14
1.38962e-13
5.3212e-13
1.09904e-12
2.24372e-12
7.60222e-12
5.11819e-11
1.00234e-09
6.33517e-08
1.87118e-07
1.67134e-07
3.90876e-12
7.02361e-12
1.98466e-11
1.14786e-11
9.56562e-13
9.60372e-14
1.8754e-14
5.28302e-15
5.84357e-16
1.58727e-15
2.43208e-15
5.22542e-15
1.71913e-14
1.03427e-13
4.73581e-13
1.98079e-12
8.38519e-12
1.02282e-11
1.132e-11
1.13219e-11
1.23687e-08
1.26201e-07
4.36728e-08
3.91205e-12
4.01124e-12
5.00613e-12
1.60526e-12
1.42789e-13
1.08023e-14
1.6201e-15
4.68879e-16
9.18351e-17
2.13199e-16
4.89274e-16
2.61763e-15
1.90459e-14
1.34301e-13
8.95994e-13
8.25487e-12
8.40728e-11
2.16402e-10
1.13219e-11
4.9661e-09
1.43025e-07
1.06415e-09
1.51114e-09
1.13341e-10
4.9558e-12
1.38824e-12
2.20968e-13
1.68974e-14
9.74161e-16
1.2502e-16
4.16515e-17
1.33326e-17
4.07867e-17
3.56528e-16
3.98775e-15
4.13352e-14
3.24991e-13
2.179e-12
1.65274e-11
1.30481e-10
2.76963e-09
9.96478e-08
4.43673e-07
1.43051e-07
1.21123e-12
9.3645e-11
8.8925e-11
4.85739e-12
4.94642e-13
3.16743e-14
1.60806e-15
6.9846e-17
8.97435e-18
3.09896e-18
3.77081e-18
4.22059e-17
9.32647e-16
1.61606e-14
1.90505e-13
1.46103e-12
7.25731e-12
2.84989e-11
1.89992e-10
1.39845e-08
3.15612e-07
4.4382e-07
1.29902e-07
1.21678e-12
1.71327e-11
2.5589e-11
2.64552e-12
1.41073e-13
4.68554e-15
1.30513e-16
4.41637e-18
6.98804e-19
2.11476e-19
3.64157e-18
1.28195e-16
3.62392e-15
6.56828e-14
7.92995e-13
5.95228e-12
2.07995e-11
4.49354e-11
7.09186e-10
8.98357e-08
3.95565e-07
3.95414e-07
2.52261e-09
1.21123e-12
9.20669e-12
4.47537e-12
6.40304e-13
2.88298e-14
5.90082e-16
8.20307e-18
2.63875e-19
4.33696e-20
1.18408e-20
1.04922e-17
5.11535e-16
1.31987e-14
2.27992e-13
2.87077e-12
2.61494e-11
8.22222e-11
9.79418e-11
4.08961e-10
5.36316e-08
3.95039e-07
6.32098e-08
1.04443e-11
1.2413e-11
1.0096e-11
8.0382e-13
1.25223e-13
4.61926e-15
5.84627e-17
3.9386e-19
1.95014e-20
2.57254e-21
5.97269e-22
3.45423e-17
1.49633e-15
3.36866e-14
5.16022e-13
5.8683e-12
5.03997e-11
1.52383e-10
9.79368e-11
9.78978e-11
3.35366e-08
2.31449e-07
2.68551e-13
1.04449e-11
1.69721e-11
9.10171e-12
1.52542e-13
2.09796e-14
5.76464e-16
3.85481e-18
1.12413e-20
9.01915e-22
1.0497e-22
2.28095e-23
1.15266e-16
4.19726e-15
7.80262e-14
9.82516e-13
9.35858e-12
7.04973e-11
3.81376e-10
5.85783e-10
2.8682e-07
6.49009e-07
1.38361e-08
2.68588e-13
9.35126e-12
1.36073e-11
4.09261e-12
3.35038e-14
3.26469e-15
5.88475e-17
1.54237e-19
5.04499e-22
3.64349e-23
3.59941e-24
6.90012e-25
3.18e-16
1.00343e-14
1.56306e-13
1.59927e-12
1.18136e-11
6.77947e-11
2.17963e-09
1.90883e-07
9.53591e-07
9.51178e-07
2.68551e-13
1.22199e-12
6.11516e-12
5.69878e-12
9.51647e-13
7.91301e-15
4.56736e-16
4.44469e-18
2.44218e-21
9.499e-24
6.05186e-25
5.87299e-26
1.22824e-26
8.72522e-16
2.41831e-14
3.19135e-13
2.63592e-12
1.47195e-11
3.43346e-11
3.43368e-11
4.2276e-07
9.54196e-07
6.24304e-07
2.68551e-13
1.6144e-12
4.02242e-12
1.76312e-12
1.85316e-13
1.88696e-15
5.84402e-17
2.36702e-19
2.50577e-24
8.14541e-26
3.85996e-27
3.92572e-28
1.03806e-28
4.19833e-15
9.76123e-14
1.09242e-12
8.05334e-12
4.80603e-11
1.35485e-09
1.47403e-07
6.23453e-07
5.40247e-07
4.35435e-08
2.68551e-13
2.29054e-12
2.58919e-12
5.34624e-13
2.72521e-14
3.42593e-16
5.69543e-18
7.29011e-21
3.20306e-29
2.35479e-33
2.72558e-35
4.58532e-36
8.06774e-37
0.999917
0.806936
0.696611
0.840573
0.864264
0.667938
0.72909
0.936454
0.601886
0.681925
0.93388
0.944936
0.749735
0.92494
0.944936
0.944936
0.944937
0.944936
0.944936
0.918108
0.944937
0.895278
0.773755
0.593035
0.456117
0.236575
0.17992
0.165941
0.450157
0.12243
0.121835
0.121809
0.67241
0.342283
0.146916
0.121805
0.254677
0.304517
0.184557
0.121385
0.0271704
0.0438128
0.0562888
0.0536957
0.00248449
0.0391795
0.0582092
0.0582181
7.16983e-06
0.00019461
0.000993823
0.002312
8.97026e-10
8.96674e-10
1.74655e-06
0.000203899
8.97059e-10
2.71849e-08
6.34786e-05
0.000314616
5.28594e-10
3.15193e-07
2.94348e-06
2.85784e-05
1.9347e-10
1.92331e-10
1.92295e-10
2.71426e-06
2.45182e-10
9.54622e-10
1.99555e-08
1.03996e-07
2.6993e-10
2.78499e-10
1.91155e-10
1.17184e-10
3.50376e-09
4.3583e-09
4.74675e-09
4.8111e-09
1.5569e-08
9.57483e-09
1.40781e-08
1.52658e-08
3.73732e-09
7.50481e-10
9.19703e-09
1.48813e-08
1.35246e-11
4.67079e-10
4.36346e-10
1.4698e-10
1.35241e-11
1.72258e-11
1.78704e-11
2.54604e-11
4.58398e-11
5.20306e-11
5.47703e-11
5.54065e-11
3.98317e-11
4.06321e-11
4.05062e-11
3.8627e-11
1.58247e-11
1.43477e-11
1.27278e-11
1.08247e-11
3.16854e-12
2.7339e-12
2.30298e-12
1.87986e-12
3.98059e-13
3.20994e-13
2.57725e-13
2.07595e-13
3.3052e-14
2.54487e-14
2.05372e-14
1.71414e-14
2.8675e-15
2.29379e-15
1.86326e-15
1.52861e-15
2.83501e-16
2.23724e-16
1.79426e-16
1.459e-16
2.42167e-17
1.88179e-17
1.4914e-17
1.20361e-17
1.74365e-18
1.34258e-18
1.05813e-18
8.52302e-19
1.13709e-19
8.62293e-20
6.71646e-20
5.36835e-20
6.20792e-21
4.67908e-21
3.6249e-21
2.88326e-21
2.94954e-22
2.18538e-22
1.67322e-22
1.31971e-22
1.11088e-23
8.12584e-24
6.13975e-24
4.78718e-24
3.25565e-25
2.34635e-25
1.74116e-25
1.33213e-25
5.99435e-27
4.31253e-27
3.19065e-27
2.43848e-27
5.32949e-29
3.8699e-29
2.89215e-29
2.22438e-29
2.03805e-37
9.89421e-38
4.89468e-38
2.53986e-38
0.940945
0.870242
0.138445
0.0344137
0.0168535
0.0291658
0.529252
0.976716
0.914273
0.392135
0.15467
0.156555
0.391564
0.527398
0.421232
0.54489
0.900663
0.910761
0.814374
0.940946
0.770173
0.0645911
0.195327
0.0459383
0.13919
0.768342
0.961518
0.491547
0.140917
0.140997
0.186923
0.487889
0.793719
0.79372
0.792756
0.730295
0.525725
0.355343
0.905563
0.323993
0.147912
0.813327
0.894974
0.880448
0.931387
0.650906
0.102346
0.0537604
0.22744
0.349724
0.349721
0.284278
0.296534
0.343684
0.18028
0.0282176
0.000216564
0.770856
0.323981
0.557924
0.928088
0.928089
0.931387
0.931397
0.632085
0.0537603
0.0537103
0.107176
0.232446
0.224719
0.209509
0.080401
0.0165558
0.000216576
0.000216564
0.000216565
0.619601
0.374078
0.562594
0.472148
0.339512
0.576535
0.75588
0.751386
0.589644
0.377262
0.0417094
9.69848e-06
9.69848e-06
9.69848e-06
0.0110757
0.000289206
0.00107016
0.000602079
8.05203e-05
0.356658
0.210256
0.139482
6.66659e-05
6.65721e-05
0.0507405
0.199881
0.384442
0.254872
0.211915
0.123448
0.00301968
9.69848e-06
9.69848e-06
9.69848e-06
0.000289206
0.000856619
2.85657e-05
2.85686e-05
0.193267
0.0142995
8.62704e-06
0.000584161
0.00917863
0.017809
4.86747e-05
4.85238e-05
4.85247e-05
4.85238e-05
0.00973073
0.0158527
0.0200581
0.0129616
0.00208533
2.64901e-05
2.30454e-05
6.24775e-05
0.000123955
0.137546
0.123541
8.59874e-06
0.00182434
0.0347402
0.0431848
0.00999532
0.000135237
4.85246e-05
0.00113455
0.00257921
0.0454011
0.0481574
0.046643
0.00455964
3.71152e-05
3.49541e-05
0.000136703
0.00013676
0.0680254
0.184332
0.108543
0.0138619
0.0439035
0.0431834
0.00761572
7.35651e-06
4.19776e-05
2.05124e-06
2.05124e-06
2.05124e-06
0.00814432
0.0063549
0.000602922
3.69799e-05
3.79136e-06
0.000122861
2.40548e-05
0.0100387
0.116894
0.111745
0.0402222
0.0438938
0.0118946
4.51962e-06
8.50037e-06
3.09213e-05
3.09182e-05
1.21636e-05
2.05124e-06
2.05124e-06
6.69045e-05
2.88694e-05
4.25345e-06
3.75894e-09
7.65757e-06
1.16703e-10
0.0100388
0.010603
0.0131296
0.00352699
0.030619
1.29112e-05
1.29088e-05
5.09513e-05
4.71922e-05
2.05177e-06
2.05124e-06
2.05124e-06
2.51372e-06
2.75239e-06
2.19518e-06
4.34911e-09
4.3491e-09
1.16703e-10
1.16767e-10
0.0526235
0.015315
0.0012881
0.00128918
0.00490781
0.00292222
7.15046e-07
3.60242e-05
4.77266e-05
2.04306e-05
2.05261e-06
2.39011e-06
1.25466e-08
1.253e-08
1.25466e-08
7.15111e-08
1.28347e-08
3.81281e-10
2.5388e-10
0.00986205
0.0175867
0.014318
0.0125618
7.42688e-05
0.00179093
7.15001e-07
2.33918e-05
3.6243e-05
5.8834e-06
6.29688e-06
3.09189e-06
8.26403e-08
1.25466e-08
1.18127e-07
1.18128e-07
1.28527e-08
1.25621e-09
3.80224e-09
0.00232026
0.00784885
0.00949931
0.00502352
7.08871e-08
5.00602e-05
3.82196e-06
2.03136e-06
1.25106e-08
1.24718e-08
6.182e-08
2.80597e-08
2.80594e-08
5.05946e-08
1.266e-07
3.91347e-08
1.42618e-09
5.19831e-09
1.49997e-07
0.000477919
0.000522714
0.000505993
9.267e-05
7.08674e-08
3.69362e-06
5.44192e-06
6.13985e-07
5.51897e-07
6.91458e-07
2.82499e-07
9.95885e-08
1.52044e-07
2.39338e-07
8.94994e-08
1.9985e-10
1.9985e-10
4.4753e-08
2.9452e-07
0.00024149
0.000453887
3.64327e-05
3.59061e-08
3.59024e-08
1.75955e-06
5.44413e-06
1.05846e-06
2.10061e-06
1.99205e-06
3.78024e-07
1.2752e-07
2.17062e-07
2.37677e-07
1.16479e-07
4.78571e-09
1.9985e-10
2.05573e-07
2.94619e-07
5.69787e-05
0.000173265
0.000173264
6.39324e-05
3.59061e-08
4.53756e-07
1.34687e-06
2.15002e-06
2.04029e-06
3.93837e-07
3.17737e-11
3.22497e-11
3.17737e-11
1.3595e-08
2.27897e-08
8.71282e-09
1.9985e-10
2.6949e-07
2.89485e-07
6.02231e-07
1.07258e-05
4.2819e-05
5.52349e-05
1.80301e-05
2.20179e-06
4.19234e-06
9.69419e-07
2.97893e-11
2.98002e-11
8.01478e-11
2.25064e-09
3.74162e-10
2.98002e-11
2.97893e-11
1.50992e-09
1.9985e-10
7.78391e-08
3.88417e-08
1.1719e-10
1.17184e-10
1.83426e-08
1.2718e-07
2.98002e-11
2.97893e-11
3.23228e-10
2.92154e-10
3.8531e-10
2.8901e-10
2.52901e-10
3.87437e-09
6.40365e-09
2.91582e-09
1.3707e-09
5.78804e-10
3.04549e-10
5.70662e-09
3.32431e-09
4.70159e-09
4.38692e-09
3.39741e-09
2.26438e-09
2.43363e-09
1.46633e-09
7.48045e-10
4.12447e-10
4.07932e-10
3.02558e-10
3.2214e-10
2.90761e-10
1.84967e-07
2.87357e-07
6.13574e-08
4.62515e-09
2.75933e-09
2.72027e-09
3.32431e-09
1.52683e-08
9.49539e-09
3.65996e-09
2.21041e-09
1.26819e-09
6.21962e-10
3.05173e-10
1.29705e-10
1.04589e-10
3.11345e-10
1.07596e-09
2.91014e-10
4.08145e-07
5.74072e-07
3.97326e-07
2.80719e-08
1.16596e-08
7.80828e-09
6.39685e-09
1.02175e-08
9.35051e-10
3.87383e-10
1.97648e-10
7.67066e-11
3.22103e-11
2.01619e-11
2.77312e-11
1.00609e-10
5.39638e-10
5.34399e-09
1.25519e-08
1.87992e-07
5.74124e-07
5.74072e-07
1.51396e-07
1.82494e-08
2.24479e-08
1.21344e-08
4.30385e-11
2.55088e-11
2.55089e-11
2.30684e-11
1.26409e-11
7.65433e-12
9.31369e-12
2.8919e-11
1.0615e-10
4.73087e-10
1.03239e-08
1.03142e-07
1.03642e-07
2.34064e-07
5.74126e-07
3.02621e-07
2.09123e-08
6.09699e-08
5.74443e-08
3.52551e-11
4.23116e-11
3.67837e-11
1.77129e-11
5.88585e-12
3.59589e-12
5.60017e-12
1.92352e-11
6.26717e-11
2.32327e-10
5.61964e-09
1.638e-07
2.55934e-07
1.27352e-07
5.73987e-07
4.20798e-07
3.15523e-08
9.19872e-08
1.6122e-07
5.48216e-11
4.43835e-11
1.87424e-11
5.2115e-12
1.66299e-12
1.12398e-12
2.14458e-12
8.16733e-12
3.30531e-11
1.44887e-10
1.62444e-09
4.64444e-08
2.56416e-07
1.46358e-07
4.51737e-07
4.68354e-07
5.34062e-08
1.62955e-07
1.79357e-07
3.17044e-11
1.57416e-11
5.08485e-12
1.2643e-12
3.87407e-13
2.78127e-13
7.04117e-13
3.16602e-12
1.44982e-11
6.66845e-11
1.73554e-10
1.73585e-10
2.42983e-07
1.09454e-06
1.26617e-07
4.68457e-07
1.11228e-07
1.62955e-07
1.54705e-07
7.45343e-12
3.41885e-12
1.12679e-12
2.751e-13
7.87726e-14
5.48493e-14
1.61097e-13
7.67091e-13
3.32685e-12
1.01985e-11
1.70191e-11
4.19157e-10
2.33268e-07
1.35822e-06
1.26704e-07
3.21977e-07
1.21477e-07
9.05912e-08
1.09951e-07
1.27865e-12
6.2212e-13
2.15141e-13
5.29646e-14
1.38871e-14
7.92988e-15
2.04443e-14
9.50241e-14
3.92706e-13
1.68339e-12
1.21834e-11
4.91783e-10
1.16694e-07
1.15323e-06
1.6284e-07
1.09582e-07
8.41188e-08
1.22387e-08
3.2837e-07
1.47581e-13
7.71652e-14
2.98838e-14
8.11503e-15
2.06242e-15
8.03292e-16
1.08048e-15
5.3963e-15
4.04786e-14
5.28083e-13
8.61517e-12
1.44405e-10
4.21471e-09
1.64505e-07
5.6877e-06
3.80989e-07
5.52586e-08
8.26842e-09
1.00005e-06
1.24848e-14
6.97887e-15
3.13393e-15
1.01021e-15
2.70493e-16
6.20842e-17
2.52526e-17
2.17393e-16
4.59353e-15
8.43469e-14
1.11981e-12
4.28863e-12
2.82584e-12
1.39839e-07
9.46447e-06
1.74386e-06
4.42794e-08
8.26821e-09
1.05759e-06
1.10822e-15
6.35876e-16
3.10706e-16
1.11883e-16
3.11603e-17
6.92157e-18
1.55034e-18
4.28367e-19
1.83622e-18
1.16131e-17
6.49991e-17
1.13611e-14
2.82598e-12
4.91185e-08
9.14943e-06
3.48003e-06
4.63866e-08
8.26842e-09
1.05775e-06
1.05281e-16
6.08377e-17
3.05902e-17
1.13767e-17
3.11291e-18
6.36096e-19
1.50582e-19
2.7413e-20
3.13815e-21
3.75874e-20
7.42007e-18
1.31355e-15
2.64039e-13
1.36646e-09
8.6691e-07
4.39868e-06
3.52797e-07
8.5546e-09
1.05785e-06
8.66038e-18
5.05664e-18
2.61489e-18
1.00782e-18
2.78076e-19
4.94081e-20
1.21912e-20
2.66844e-21
2.58451e-22
2.6565e-23
3.84209e-24
2.0571e-44
-1.52715e-28
-1.49002e-25
-6.4642e-25
1.00333e-05
2.09351e-06
3.64738e-08
4.61969e-07
6.15637e-19
3.66385e-19
1.96194e-19
7.84817e-20
2.26899e-20
3.33157e-21
7.94725e-22
2.17482e-22
1.94906e-23
1.81941e-24
1.08893e-25
1.25836e-26
2.37703e-27
-8.2961e-26
-9.79141e-25
3.70705e-05
7.9047e-06
7.13816e-08
4.39996e-09
3.86833e-20
2.33112e-20
1.30284e-20
5.53716e-21
1.73292e-21
2.09427e-22
4.22489e-23
1.43745e-23
1.29883e-24
1.11544e-25
7.20323e-27
5.99304e-28
1.14869e-28
-3.41561e-26
-9.80228e-25
3.99066e-05
1.92046e-05
1.48802e-07
5.11522e-10
2.06996e-21
1.25138e-21
7.2091e-22
3.27946e-22
1.14016e-22
1.23512e-23
1.94525e-24
7.12565e-25
7.81899e-26
7.28319e-27
5.34541e-28
3.53065e-29
4.58275e-30
-1.11612e-26
-7.80458e-25
3.98986e-05
2.9872e-05
1.12666e-06
5.11675e-10
9.41074e-23
5.68977e-23
3.37983e-23
1.65399e-23
6.53751e-24
6.66577e-25
8.62256e-26
2.81087e-26
4.09676e-27
4.12476e-28
3.24269e-29
2.03781e-30
1.77298e-31
-2.95258e-27
-5.02068e-25
3.19155e-05
3.67264e-05
2.94495e-06
1.00806e-09
3.38265e-24
2.04156e-24
1.24467e-24
6.40474e-25
2.79588e-25
2.90802e-26
3.69758e-27
9.36139e-28
1.43195e-28
1.53664e-29
1.29426e-30
8.42692e-32
6.18864e-33
-6.2287e-28
-2.49426e-25
2.3654e-06
4.5354e-05
5.32443e-06
2.49543e-09
9.23648e-26
5.53763e-26
3.5178e-26
1.90679e-26
9.2262e-27
1.16703e-27
1.40019e-28
2.63798e-29
3.95179e-30
4.41911e-31
3.942e-32
2.70348e-33
1.89828e-34
-9.53987e-29
-8.30114e-26
-2.92453e-24
5.08192e-05
9.73789e-06
6.34731e-09
1.69716e-27
1.03432e-27
6.72344e-28
3.7421e-28
1.83918e-28
2.57446e-29
3.01856e-30
4.8407e-31
6.68054e-32
7.18663e-33
6.32177e-34
4.33068e-35
2.91715e-36
-9.42867e-30
-1.85151e-26
-5.70511e-26
5.08275e-05
1.56175e-05
7.80367e-09
1.5539e-29
9.58965e-30
6.42318e-30
3.71173e-30
1.91408e-30
3.4208e-31
4.1009e-32
5.42336e-33
6.79481e-34
7.12864e-35
6.33564e-36
4.46856e-37
3.04941e-38
-4.04759e-31
-1.7983e-27
-1.07725e-25
5.08171e-05
1.82249e-05
7.80316e-09
1.03708e-38
2.03105e-39
3.6381e-40
3.78505e-41
2.11827e-42
1.0425e-43
4.94823e-45
1.61352e-46
1.04229e-48
-9.86462e-49
-6.26194e-49
-2.15524e-49
-8.68073e-50
-7.19093e-50
-5.49941e-50
-6.43216e-26
3.0302e-05
1.75563e-05
1.82034e-07
)
;

boundaryField
{
    leftWall
    {
        type            zeroGradient;
    }
    rightWall
    {
        type            zeroGradient;
    }
    lowerWall
    {
        type            zeroGradient;
    }
    atmosphere
    {
        type            inletOutlet;
        inletValue      uniform 0;
        value           nonuniform List<scalar> 
46
(
4.19833e-15
9.76123e-14
1.09242e-12
8.05334e-12
4.80603e-11
1.35485e-09
1.47403e-07
6.23453e-07
5.40247e-07
4.35435e-08
2.68551e-13
2.29054e-12
2.58919e-12
5.34624e-13
2.72521e-14
3.42593e-16
5.69543e-18
7.29011e-21
0
0
0
0
0
0
0
0
0
0
0
0
0
0
0
0
0
0
0
0
0
0
0
0
0
3.0302e-05
1.75563e-05
1.82034e-07
)
;
    }
    defaultFaces
    {
        type            empty;
    }
}


// ************************************************************************* //
