/*--------------------------------*- C++ -*----------------------------------*\
| =========                 |                                                 |
| \\      /  F ield         | OpenFOAM: The Open Source CFD Toolbox           |
|  \\    /   O peration     | Version:  2012                                  |
|   \\  /    A nd           | Website:  www.openfoam.com                      |
|    \\/     M anipulation  |                                                 |
\*---------------------------------------------------------------------------*/
FoamFile
{
    version     2.0;
    format      ascii;
    class       volVectorField;
    location    "1220";
    object      U;
}
// * * * * * * * * * * * * * * * * * * * * * * * * * * * * * * * * * * * * * //

dimensions      [0 1 -1 0 0 0 0];


internalField   nonuniform List<vector> 
20400
(
(3.52952e-06 -3.45388e-06 0)
(5.181e-06 -1.17054e-06 0)
(-4.67064e-06 3.70725e-06 0)
(-2.50028e-05 6.36515e-06 0)
(-5.82732e-05 7.8139e-06 0)
(-9.85174e-05 7.15935e-06 0)
(-0.00014469 6.39889e-06 0)
(-0.000193553 5.48082e-06 0)
(-0.000243202 4.71266e-06 0)
(-0.000293988 4.21421e-06 0)
(-0.000343513 4.26794e-06 0)
(-0.000393442 4.19581e-06 0)
(-0.000442594 4.01983e-06 0)
(-0.000491557 3.62696e-06 0)
(-0.000540219 3.06129e-06 0)
(-0.000588696 2.27539e-06 0)
(-0.000637026 1.2451e-06 0)
(-0.000685246 2.94926e-08 0)
(-0.000733371 -1.33019e-06 0)
(-0.000781313 -2.51096e-06 0)
(-0.000828972 -3.72931e-06 0)
(-0.000876352 -4.94027e-06 0)
(-0.000923481 -6.06098e-06 0)
(-0.000970345 -7.01886e-06 0)
(-0.00101693 -7.73952e-06 0)
(-0.00106322 -8.15675e-06 0)
(-0.0011092 -8.20868e-06 0)
(-0.00115489 -7.84571e-06 0)
(-0.00120029 -7.02602e-06 0)
(-0.00124544 -5.71402e-06 0)
(-0.00129036 -3.88601e-06 0)
(-0.00133503 -1.48827e-06 0)
(-0.00137928 1.70358e-06 0)
(-0.00142262 6.65695e-06 0)
(-0.00146495 9.47498e-06 0)
(-0.00150805 1.21817e-05 0)
(-0.00155099 1.58142e-05 0)
(-0.00159359 1.94959e-05 0)
(-0.00163563 2.29743e-05 0)
(-0.00167724 2.608e-05 0)
(-0.00171847 2.87112e-05 0)
(-0.00175937 3.07951e-05 0)
(-0.00179997 3.23169e-05 0)
(-0.00184033 3.3287e-05 0)
(-0.00188049 3.37572e-05 0)
(-0.00192047 3.37905e-05 0)
(-0.00196028 3.34511e-05 0)
(-0.00199991 3.27871e-05 0)
(-0.00203937 3.18263e-05 0)
(-0.00207865 3.05658e-05 0)
(-0.00211776 2.89901e-05 0)
(-0.00215673 2.70152e-05 0)
(-0.00219547 2.4631e-05 0)
(-0.00223417 2.16597e-05 0)
(-0.00227261 1.81082e-05 0)
(-0.00231139 1.39104e-05 0)
(-0.00234947 9.27511e-06 0)
(-0.00238756 5.1969e-06 0)
(-0.00242428 -3.0598e-06 0)
(-0.00246463 -8.87151e-06 0)
(-0.00250229 -1.46144e-05 0)
(-0.00254197 -1.87676e-05 0)
(-0.00257995 -2.21967e-05 0)
(-0.00261907 -2.4289e-05 0)
(-0.00265724 -2.56673e-05 0)
(-0.00269596 -2.61905e-05 0)
(-0.00273414 -2.62212e-05 0)
(-0.00277256 -2.57698e-05 0)
(-0.00281072 -2.50291e-05 0)
(-0.00284903 -2.40093e-05 0)
(-0.0028872 -2.28261e-05 0)
(-0.00292554 -2.14483e-05 0)
(-0.00296377 -1.99739e-05 0)
(-0.00300223 -1.83226e-05 0)
(-0.00304054 -1.66065e-05 0)
(-0.00307917 -1.47e-05 0)
(-0.00311759 -1.27416e-05 0)
(-0.00315643 -1.05639e-05 0)
(-0.003195 -8.3402e-06 0)
(-0.00323412 -5.84325e-06 0)
(-0.00327288 -3.29456e-06 0)
(-0.00331236 -3.87612e-07 0)
(-0.00335128 2.75215e-06 0)
(-0.00339009 6.92771e-06 0)
(-0.00342802 8.90253e-06 0)
(-0.00346774 1.10514e-05 0)
(-0.0035057 1.25359e-05 0)
(-0.00354497 1.3351e-05 0)
(-0.00358309 1.29458e-05 0)
(-0.00362242 1.1934e-05 0)
(-0.00366079 1.01819e-05 0)
(-0.00369977 8.27332e-06 0)
(-0.00373758 6.16249e-06 0)
(-0.0037753 1.60216e-06 0)
(-0.0038134 -2.4144e-06 0)
(-0.0038514 -6.95376e-06 0)
(-0.00388899 -1.14859e-05 0)
(-0.00392636 -1.64529e-05 0)
(-0.00396281 -2.11537e-05 0)
(-0.00399909 -2.63554e-05 0)
(-0.00403418 -3.0841e-05 0)
(-0.00406906 -3.57561e-05 0)
(-0.0041024 -3.87771e-05 0)
(-0.00413577 -4.16849e-05 0)
(-0.00416702 -4.14734e-05 0)
(-0.00419886 -3.94163e-05 0)
(-0.0042276 -3.27109e-05 0)
(-0.00425791 -2.07655e-05 0)
(-0.00428202 -4.29904e-06 0)
(-0.00430704 1.95613e-05 0)
(-0.00432029 4.06466e-05 0)
(-0.00434191 6.35883e-05 0)
(-0.00435005 7.91672e-05 0)
(-0.00436485 9.93939e-05 0)
(-0.00436808 0.000110156 0)
(-0.00437588 0.000129966 0)
(-0.00437274 0.000137953 0)
(-0.00437293 0.000158195 0)
(-0.00436219 0.000163854 0)
(-0.00435375 0.00018427 0)
(-0.00433399 0.000187123 0)
(-0.00431565 0.000205657 0)
(-0.00428567 0.000204255 0)
(-0.0042539 0.000216387 0)
(-0.00421157 0.000205542 0)
(-0.004162 0.000202938 0)
(-0.00410339 0.00016928 0)
(-0.00403305 0.000138448 0)
(-0.00395987 6.08872e-05 0)
(-0.00388308 -5.92842e-07 0)
(-0.00381021 -0.000103783 0)
(-0.0037358 -0.000166022 0)
(-0.00366825 -0.000235987 0)
(-0.00358112 -0.000274741 0)
(-0.00349382 -0.000316469 0)
(-0.00339393 -0.000338568 0)
(-0.00328998 -0.000363101 0)
(-0.00318038 -0.00037252 0)
(-0.00306491 -0.000381234 0)
(-0.00294969 -0.000371578 0)
(-0.00282747 -0.000352051 0)
(-0.00270729 -0.000303214 0)
(-0.00257931 -0.000231805 0)
(-0.0024401 -0.000124125 0)
(-0.00230619 -8.36501e-06 0)
(-0.00213249 0.000136624 0)
(-0.00196245 0.000207877 0)
(-0.00177559 0.000274941 0)
(-0.00159658 0.000292264 0)
(-0.00140688 0.000300483 0)
(-0.00121795 0.000276657 0)
(-0.000995727 0.000212055 0)
(-0.00081632 0.000106666 0)
(-0.000661913 -1.00574e-05 0)
(-0.000541043 -4.57924e-05 0)
(-0.000357906 -7.69433e-05 0)
(-0.000210949 -8.00718e-05 0)
(-2.16484e-05 -8.34432e-05 0)
(0.000127272 -7.26899e-05 0)
(0.000319577 -6.63733e-05 0)
(0.000469089 -5.57147e-05 0)
(0.000654342 -5.03958e-05 0)
(0.000801099 -4.19351e-05 0)
(0.000978457 -3.90665e-05 0)
(0.00112106 -3.27226e-05 0)
(0.001289 -3.1621e-05 0)
(0.00142637 -2.65012e-05 0)
(0.00158364 -2.65167e-05 0)
(0.001715 -2.2207e-05 0)
(0.00186083 -2.28149e-05 0)
(0.00198548 -1.91289e-05 0)
(0.00211964 -1.98664e-05 0)
(0.00223675 -1.69675e-05 0)
(0.00235929 -1.72199e-05 0)
(0.00246817 -1.54521e-05 0)
(0.00257886 -1.49624e-05 0)
(0.00267917 -1.37419e-05 0)
(0.0027784 -1.31355e-05 0)
(0.00286966 -1.20474e-05 0)
(0.00295806 -1.1582e-05 0)
(0.00304007 -1.05021e-05 0)
(0.00311789 -1.01427e-05 0)
(0.00319077 -9.49104e-06 0)
(0.00325898 -8.85553e-06 0)
(0.00332242 -8.22678e-06 0)
(0.00338135 -7.54181e-06 0)
(0.00343591 -6.87131e-06 0)
(0.0034862 -6.23772e-06 0)
(0.00353235 -5.65348e-06 0)
(0.00357449 -5.12991e-06 0)
(0.00361279 -4.67371e-06 0)
(0.00364716 -4.21252e-06 0)
(0.00367825 -3.82111e-06 0)
(0.00370548 -3.38788e-06 0)
(0.00372992 -3.03378e-06 0)
(0.00375063 -2.61562e-06 0)
(0.00376899 -2.28554e-06 0)
(0.00378381 -1.86057e-06 0)
(0.00379662 -1.44508e-06 0)
(0.00380629 -9.91509e-07 0)
(0.00381413 -6.15832e-07 0)
(0.00381927 -1.61094e-07 0)
(0.00382266 9.16711e-08 0)
(0.00382404 5.96791e-07 0)
(0.0038235 5.92092e-07 0)
(0.00382108 1.14378e-06 0)
(0.00381706 1.38104e-06 0)
(0.00381149 1.47016e-06 0)
(0.00380446 1.49013e-06 0)
(0.00379609 1.48875e-06 0)
(0.00378652 1.4734e-06 0)
(0.00377586 1.45025e-06 0)
(0.00376422 1.42628e-06 0)
(0.00375167 1.41527e-06 0)
(0.00373835 1.45798e-06 0)
(0.00372426 1.51272e-06 0)
(0.00370976 1.50366e-06 0)
(0.00369432 1.38632e-06 0)
(0.00367913 1.44336e-06 0)
(0.0036624 1.18359e-06 0)
(0.00364673 1.35146e-06 0)
(0.00362911 1.03666e-06 0)
(0.00361308 1.23608e-06 0)
(0.00359489 9.74283e-07 0)
(0.00357869 1.12182e-06 0)
(0.00356018 9.19397e-07 0)
(0.00354392 1.03628e-06 0)
(0.00352534 8.80094e-07 0)
(0.0035091 9.69307e-07 0)
(0.00349069 8.54707e-07 0)
(0.00347456 9.03982e-07 0)
(0.00345651 8.32574e-07 0)
(0.00344053 8.34191e-07 0)
(0.00342303 7.94103e-07 0)
(0.00340723 7.52356e-07 0)
(0.00339049 7.67748e-07 0)
(0.00337486 6.74023e-07 0)
(0.00335901 7.04464e-07 0)
(0.00334373 6.10009e-07 0)
(0.00332857 6.3348e-07 0)
(0.0033139 5.21808e-07 0)
(0.00329938 5.59011e-07 0)
(0.00328544 4.30118e-07 0)
(0.00327159 4.82996e-07 0)
(0.00325841 3.36478e-07 0)
(0.00324527 4.09071e-07 0)
(0.00323288 2.41907e-07 0)
(0.00322047 3.40382e-07 0)
(0.00320888 1.44528e-07 0)
(0.00319723 2.7726e-07 0)
(0.00318644 4.96088e-08 0)
(0.00317555 2.19746e-07 0)
(0.00316558 -3.70968e-08 0)
(0.00315546 1.68322e-07 0)
(0.00314631 -1.1376e-07 0)
(0.00313694 1.23128e-07 0)
(0.0031286 -1.78327e-07 0)
(0.00312 8.64701e-08 0)
(0.00311245 -2.23143e-07 0)
(0.0031046 6.69526e-08 0)
(0.00309785 -2.35644e-07 0)
(0.00309074 7.8191e-08 0)
(0.00308476 -1.97625e-07 0)
(0.00307838 1.35744e-07 0)
(0.00307316 -9.7682e-08 0)
(0.00306751 2.45757e-07 0)
(0.00306301 4.72812e-08 0)
(0.00305807 3.777e-07 0)
(0.00305428 1.66014e-07 0)
(0.00305001 4.43488e-07 0)
(0.00304691 1.65407e-07 0)
(0.00304328 3.69463e-07 0)
(0.00304083 1.04126e-07 0)
(0.00303784 2.68344e-07 0)
(0.003036 3.07e-08 0)
(0.00303366 1.62556e-07 0)
(0.0030324 -6.11998e-08 0)
(0.00303069 5.27623e-08 0)
(0.00302997 -1.62071e-07 0)
(0.0030289 -5.24182e-08 0)
(0.00302866 -2.69778e-07 0)
(0.00302819 -1.43837e-07 0)
(0.00302841 -3.46768e-07 0)
(0.0030285 -1.91361e-07 0)
(0.0030292 -4.22419e-07 0)
(0.00302971 -2.49609e-07 0)
(0.00303087 -4.67226e-07 0)
(0.00303182 -3.19456e-07 0)
(0.00303342 -5.36347e-07 0)
(0.00303483 -4.0482e-07 0)
(0.00303671 -5.49625e-07 0)
(0.00303858 -4.48709e-07 0)
(0.00304075 -4.84723e-07 0)
(0.00304308 -4.44822e-07 0)
(0.00304559 -4.55832e-07 0)
(0.00304825 -4.31212e-07 0)
(0.00305107 -4.40912e-07 0)
(0.00305403 -4.33305e-07 0)
(0.00305716 -4.48035e-07 0)
(0.00306033 -4.57482e-07 0)
(0.00306384 -4.21335e-07 0)
(0.00306713 -4.99377e-07 0)
(0.00307107 -4.01537e-07 0)
(0.00307444 -4.87346e-07 0)
(0.0030787 -3.93935e-07 0)
(0.0030822 -4.82146e-07 0)
(0.00308674 -3.84368e-07 0)
(0.00309037 -4.72184e-07 0)
(0.00309515 -3.78568e-07 0)
(0.00309892 -4.64062e-07 0)
(0.00310389 -3.76374e-07 0)
(0.00310779 -4.59389e-07 0)
(0.00311291 -3.75595e-07 0)
(0.00311694 -4.58655e-07 0)
(0.00312219 -3.76144e-07 0)
(0.00312633 -4.57097e-07 0)
(0.00313169 -3.76732e-07 0)
(0.00313592 -4.5245e-07 0)
(0.00314137 -3.76173e-07 0)
(0.0031457 -4.45963e-07 0)
(0.00315121 -3.74442e-07 0)
(0.0031556 -4.38404e-07 0)
(0.00316117 -3.71034e-07 0)
(0.00316562 -4.2988e-07 0)
(0.00317122 -3.6617e-07 0)
(0.00317572 -4.19759e-07 0)
(0.00318134 -3.61358e-07 0)
(0.00318587 -4.08969e-07 0)
(0.0031915 -3.58924e-07 0)
(0.00319605 -3.98295e-07 0)
(0.00320168 -3.56616e-07 0)
(0.00320625 -3.87839e-07 0)
(0.00321185 -3.54302e-07 0)
(0.00321643 -3.78237e-07 0)
(0.00322201 -3.52606e-07 0)
(0.00322658 -3.72662e-07 0)
(0.00323212 -3.52392e-07 0)
(0.00323669 -3.67888e-07 0)
(0.00324218 -3.54704e-07 0)
(0.00324675 -3.67123e-07 0)
(0.00325216 -3.59066e-07 0)
(0.00325673 -3.72031e-07 0)
(0.00326205 -3.6577e-07 0)
(0.00326662 -3.78534e-07 0)
(0.00327186 -3.77686e-07 0)
(0.00327642 -3.90193e-07 0)
(0.00328156 -3.9463e-07 0)
(0.00328611 -4.07706e-07 0)
(0.00329114 -4.15211e-07 0)
(0.00329569 -4.25712e-07 0)
(0.00330059 -4.31255e-07 0)
(0.00330512 -4.34151e-07 0)
(0.00330991 -4.45757e-07 0)
(0.00331443 -4.51345e-07 0)
(0.00331911 -4.73402e-07 0)
(0.0033236 -4.86761e-07 0)
(0.00332816 -5.10093e-07 0)
(0.00333263 -5.29997e-07 0)
(0.00333708 -5.47651e-07 0)
(0.00334149 -5.63099e-07 0)
(0.00334586 -5.73162e-07 0)
(0.00335019 -5.79325e-07 0)
(0.00335449 -5.81955e-07 0)
(0.00335874 -5.82734e-07 0)
(0.00336296 -5.81854e-07 0)
(0.00336714 -5.80058e-07 0)
(0.00337128 -5.77443e-07 0)
(0.00337538 -5.74287e-07 0)
(0.00337944 -5.70623e-07 0)
(0.00338346 -5.66584e-07 0)
(0.00338743 -5.62181e-07 0)
(0.00339137 -5.57511e-07 0)
(0.00339526 -5.5258e-07 0)
(0.00339911 -5.47471e-07 0)
(0.00340292 -5.42203e-07 0)
(0.00340669 -5.36834e-07 0)
(0.00341042 -5.3139e-07 0)
(0.00341411 -5.25895e-07 0)
(0.00341775 -5.20375e-07 0)
(0.00342136 -5.14838e-07 0)
(0.00342492 -5.09307e-07 0)
(0.00342844 -5.03786e-07 0)
(0.00343193 -4.98293e-07 0)
(0.00343537 -4.92832e-07 0)
(0.00343877 -4.87413e-07 0)
(0.00344214 -4.82036e-07 0)
(0.00344546 -4.76708e-07 0)
(0.00344875 -4.71429e-07 0)
(0.003452 -4.66204e-07 0)
(0.00345521 -4.61036e-07 0)
(0.00345838 -4.55927e-07 0)
(0.00346152 -4.50879e-07 0)
(0.00346462 -4.45894e-07 0)
(0.00346768 -4.40974e-07 0)
(0.00347071 -4.36118e-07 0)
(0.0034737 -4.31328e-07 0)
(0.00347666 -4.26603e-07 0)
(0.00347959 -4.21943e-07 0)
(0.00348247 -4.17352e-07 0)
(0.00348533 -4.12832e-07 0)
(0.00348815 -4.08403e-07 0)
(0.00349094 -4.04027e-07 0)
(0.0034937 -3.99689e-07 0)
(0.00349642 -3.95392e-07 0)
(0.00349912 -3.91141e-07 0)
(0.00350178 -3.86937e-07 0)
(0.00350441 -3.82782e-07 0)
(0.00350701 -3.78675e-07 0)
(0.00350958 -3.74616e-07 0)
(0.00351212 -3.70602e-07 0)
(0.00351463 -3.66632e-07 0)
(0.00351711 -3.62705e-07 0)
(0.00351956 -3.5882e-07 0)
(0.00352198 -3.54974e-07 0)
(0.00352437 -3.51166e-07 0)
(0.00352674 -3.47394e-07 0)
(0.00352908 -3.43659e-07 0)
(0.00353139 -3.39957e-07 0)
(0.00353367 -3.36289e-07 0)
(0.00353592 -3.32652e-07 0)
(0.00353815 -3.29047e-07 0)
(0.00354035 -3.25472e-07 0)
(0.00354252 -3.21926e-07 0)
(0.00354467 -3.18411e-07 0)
(0.00354679 -3.14924e-07 0)
(0.00354888 -3.11467e-07 0)
(0.00355095 -3.08038e-07 0)
(0.00355299 -3.04639e-07 0)
(0.00355501 -3.01269e-07 0)
(0.003557 -2.97929e-07 0)
(0.00355897 -2.94618e-07 0)
(0.00356092 -2.91337e-07 0)
(0.00356284 -2.88087e-07 0)
(0.00356473 -2.84868e-07 0)
(0.0035666 -2.81679e-07 0)
(0.00356845 -2.78522e-07 0)
(0.00357028 -2.75397e-07 0)
(0.00357208 -2.72304e-07 0)
(0.00357386 -2.69244e-07 0)
(0.00357562 -2.66215e-07 0)
(0.00357735 -2.63219e-07 0)
(0.00357906 -2.60255e-07 0)
(0.00358076 -2.57322e-07 0)
(0.00358243 -2.54418e-07 0)
(0.00358408 -2.5154e-07 0)
(0.0035857 -2.48679e-07 0)
(0.00358731 -2.45826e-07 0)
(0.0035889 -2.42952e-07 0)
(0.00359047 -2.40131e-07 0)
(0.00359201 -2.37376e-07 0)
(0.00359354 -2.34675e-07 0)
(0.00359505 -2.3202e-07 0)
(0.00359654 -2.29403e-07 0)
(0.00359801 -2.2682e-07 0)
(0.00359946 -2.24269e-07 0)
(0.0036009 -2.21747e-07 0)
(0.00360231 -2.19254e-07 0)
(0.00360371 -2.16787e-07 0)
(0.00360509 -2.14347e-07 0)
(0.00360645 -2.11932e-07 0)
(0.00360779 -2.09541e-07 0)
(0.00360912 -2.07173e-07 0)
(0.00361043 -2.04828e-07 0)
(0.00361172 -2.02504e-07 0)
(0.003613 -2.00202e-07 0)
(0.00361426 -1.9792e-07 0)
(0.0036155 -1.95658e-07 0)
(0.00361672 -1.93418e-07 0)
(0.00361793 -1.91203e-07 0)
(0.00361912 -1.89018e-07 0)
(0.0036203 -1.86869e-07 0)
(0.00362145 -1.84762e-07 0)
(0.0036226 -1.8266e-07 0)
(0.00362372 -1.80537e-07 0)
(0.00362483 -1.78398e-07 0)
(0.00362593 -1.76133e-07 0)
(0.00362701 -1.74046e-07 0)
(0.00362807 -1.70671e-07 0)
(0.00362912 -1.73403e-07 0)
(0.00363015 -1.64023e-07 0)
(0.00363116 -1.6986e-07 0)
(0.00363216 -1.58491e-07 0)
(0.00363315 -1.66941e-07 0)
(0.0036341 -1.52538e-07 0)
(0.00363507 -1.63515e-07 0)
(0.00363597 -1.46347e-07 0)
(0.00363694 -1.6011e-07 0)
(0.00363775 -1.39177e-07 0)
(0.00363875 -1.57242e-07 0)
(0.00363945 -1.29607e-07 0)
(0.00364051 -1.55724e-07 0)
(0.00364103 -1.15239e-07 0)
(0.0036422 -1.57639e-07 0)
(0.00364249 -9.17762e-08 0)
(0.00364383 -1.63503e-07 0)
(0.0036438 -3.92487e-08 0)
(0.00364561 -2.10353e-07 0)
(0.0036448 -9.39751e-08 0)
(0.00364783 -3.44751e-07 0)
(0.00364556 -7.14587e-07 0)
(1.08689e-06 -5.26897e-06 0)
(-1.30982e-05 1.24115e-05 0)
(-5.73221e-05 4.04903e-05 0)
(-0.000130453 6.41039e-05 0)
(-0.000228713 8.26295e-05 0)
(-0.000344123 9.2508e-05 0)
(-0.000472125 9.83535e-05 0)
(-0.000606913 0.00010001 0)
(-0.000745504 9.98944e-05 0)
(-0.000886043 9.84426e-05 0)
(-0.00102602 9.675e-05 0)
(-0.00116664 9.51986e-05 0)
(-0.00130601 9.40304e-05 0)
(-0.0014445 9.33786e-05 0)
(-0.00158183 9.31423e-05 0)
(-0.00171818 9.32919e-05 0)
(-0.00185356 9.38017e-05 0)
(-0.00198799 9.4611e-05 0)
(-0.00212155 9.54528e-05 0)
(-0.00225395 9.59635e-05 0)
(-0.00238491 9.65133e-05 0)
(-0.00251453 9.71508e-05 0)
(-0.00264282 9.77097e-05 0)
(-0.0027698 9.80808e-05 0)
(-0.00289544 9.81753e-05 0)
(-0.00301975 9.79295e-05 0)
(-0.00314274 9.73009e-05 0)
(-0.00326446 9.62522e-05 0)
(-0.00338497 9.47722e-05 0)
(-0.00350433 9.28505e-05 0)
(-0.00362261 9.04242e-05 0)
(-0.0037398 8.73054e-05 0)
(-0.00385584 8.26372e-05 0)
(-0.00397051 7.49288e-05 0)
(-0.0040843 7.17799e-05 0)
(-0.00419813 6.99697e-05 0)
(-0.00431105 6.51483e-05 0)
(-0.00442339 6.01262e-05 0)
(-0.00453495 5.54788e-05 0)
(-0.00464567 5.13604e-05 0)
(-0.0047555 4.78768e-05 0)
(-0.00486442 4.50468e-05 0)
(-0.00497238 4.29475e-05 0)
(-0.00507939 4.15105e-05 0)
(-0.00518546 4.06644e-05 0)
(-0.00529061 4.02934e-05 0)
(-0.00539491 4.0311e-05 0)
(-0.00549841 4.06545e-05 0)
(-0.00560119 4.13051e-05 0)
(-0.00570335 4.22318e-05 0)
(-0.00580496 4.35581e-05 0)
(-0.00590613 4.50564e-05 0)
(-0.00600681 4.73808e-05 0)
(-0.00610727 4.9832e-05 0)
(-0.00620719 5.37021e-05 0)
(-0.00630698 5.72468e-05 0)
(-0.00640586 6.18308e-05 0)
(-0.00650441 6.37546e-05 0)
(-0.0066014 7.43449e-05 0)
(-0.00669664 8.11299e-05 0)
(-0.00679089 8.6222e-05 0)
(-0.00688396 9.0458e-05 0)
(-0.00697677 9.34292e-05 0)
(-0.00706933 9.55983e-05 0)
(-0.00716202 9.6595e-05 0)
(-0.00725472 9.69495e-05 0)
(-0.00734739 9.66729e-05 0)
(-0.00744001 9.60575e-05 0)
(-0.00753248 9.51406e-05 0)
(-0.00762482 9.40355e-05 0)
(-0.00771694 9.2773e-05 0)
(-0.00780889 9.13925e-05 0)
(-0.00790058 8.98999e-05 0)
(-0.00799208 8.83227e-05 0)
(-0.00808329 8.66308e-05 0)
(-0.0081743 8.48563e-05 0)
(-0.00826499 8.29664e-05 0)
(-0.00835547 8.0976e-05 0)
(-0.00844559 7.88938e-05 0)
(-0.00853551 7.67064e-05 0)
(-0.008625 7.44076e-05 0)
(-0.00871428 7.18295e-05 0)
(-0.00880308 6.8584e-05 0)
(-0.00889167 6.27292e-05 0)
(-0.00898014 6.2156e-05 0)
(-0.00906868 5.97413e-05 0)
(-0.00915706 5.79125e-05 0)
(-0.00924514 5.71135e-05 0)
(-0.00933218 5.74401e-05 0)
(-0.00941822 5.86452e-05 0)
(-0.00950271 6.01165e-05 0)
(-0.00958613 6.07983e-05 0)
(-0.00966788 6.17657e-05 0)
(-0.0097485 6.5966e-05 0)
(-0.00982703 7.00729e-05 0)
(-0.00990395 7.31786e-05 0)
(-0.00997829 7.70366e-05 0)
(-0.0100509 7.95838e-05 0)
(-0.01012 8.35269e-05 0)
(-0.0101871 8.57584e-05 0)
(-0.0102493 8.95023e-05 0)
(-0.0103088 9.06282e-05 0)
(-0.0103614 9.36613e-05 0)
(-0.0104114 9.20697e-05 0)
(-0.0104523 9.2681e-05 0)
(-0.0104895 8.65528e-05 0)
(-0.0105161 8.14132e-05 0)
(-0.0105382 6.54963e-05 0)
(-0.0105492 5.04287e-05 0)
(-0.0105603 1.42758e-05 0)
(-0.0105777 1.16465e-07 0)
(-0.0105837 -3.12854e-05 0)
(-0.0105883 -4.25244e-05 0)
(-0.0105762 -6.97819e-05 0)
(-0.0105599 -7.77962e-05 0)
(-0.010528 -0.00010404 0)
(-0.010492 -0.000110779 0)
(-0.0104384 -0.000136019 0)
(-0.0103824 -0.000143161 0)
(-0.0103061 -0.000166899 0)
(-0.0102297 -0.000174893 0)
(-0.0101304 -0.000196273 0)
(-0.0100341 -0.000203942 0)
(-0.0099119 -0.0002204 0)
(-0.00979651 -0.000224986 0)
(-0.00965378 -0.000229866 0)
(-0.00951913 -0.000223803 0)
(-0.00935726 -0.000205453 0)
(-0.00919401 -0.000163428 0)
(-0.00899287 -0.000115967 0)
(-0.00877321 -4.44419e-05 0)
(-0.00851224 -3.77697e-06 0)
(-0.00824528 3.75254e-05 0)
(-0.00796058 3.65761e-05 0)
(-0.00767 5.81425e-05 0)
(-0.00736599 4.73161e-05 0)
(-0.00705055 5.679e-05 0)
(-0.00672071 4.52636e-05 0)
(-0.00637635 4.45037e-05 0)
(-0.00601243 3.09551e-05 0)
(-0.00562591 1.53051e-05 0)
(-0.00521397 -1.49941e-05 0)
(-0.00477877 -5.91042e-05 0)
(-0.00436492 -0.000132782 0)
(-0.00392786 -0.000198921 0)
(-0.00356915 -0.000291865 0)
(-0.00326103 -0.000328132 0)
(-0.00286467 -0.000361918 0)
(-0.00250976 -0.00036969 0)
(-0.00209001 -0.000385929 0)
(-0.00172427 -0.000392083 0)
(-0.00132318 -0.000418386 0)
(-0.000950611 -0.00044665 0)
(-0.000430216 -0.000474423 0)
(1.40864e-05 -0.000461257 0)
(0.000511417 -0.000453353 0)
(0.000928962 -0.000428738 0)
(0.00140351 -0.00042836 0)
(0.00181453 -0.000399939 0)
(0.0022633 -0.000386354 0)
(0.00266018 -0.000363531 0)
(0.00309404 -0.000357791 0)
(0.00348017 -0.000339752 0)
(0.00389933 -0.00033535 0)
(0.00427316 -0.000317264 0)
(0.00467368 -0.000312717 0)
(0.00503318 -0.000295078 0)
(0.00541209 -0.000289937 0)
(0.00575544 -0.000273427 0)
(0.00611071 -0.000267081 0)
(0.00643636 -0.000252589 0)
(0.00676648 -0.000244289 0)
(0.00707287 -0.000232016 0)
(0.00737748 -0.000222074 0)
(0.00766259 -0.000211126 0)
(0.00794224 -0.000200736 0)
(0.00820452 -0.000190429 0)
(0.00845936 -0.000180325 0)
(0.00869846 -0.000170174 0)
(0.00892864 -0.000160755 0)
(0.00914457 -0.000150554 0)
(0.00935036 -0.000141702 0)
(0.00954342 -0.000132556 0)
(0.00972565 -0.000123554 0)
(0.00989645 -0.000114863 0)
(0.0100561 -0.000106472 0)
(0.0102048 -9.83319e-05 0)
(0.0103429 -9.04343e-05 0)
(0.0104707 -8.27718e-05 0)
(0.0105883 -7.53384e-05 0)
(0.0106963 -6.80216e-05 0)
(0.0107946 -6.11806e-05 0)
(0.0108842 -5.44281e-05 0)
(0.0109644 -4.81828e-05 0)
(0.0110367 -4.19897e-05 0)
(0.0111002 -3.63811e-05 0)
(0.0111567 -3.07215e-05 0)
(0.0112049 -2.57105e-05 0)
(0.0112468 -2.09067e-05 0)
(0.011281 -1.64496e-05 0)
(0.0113097 -1.2274e-05 0)
(0.0113313 -8.21958e-06 0)
(0.0113481 -4.73271e-06 0)
(0.0113584 -9.23283e-07 0)
(0.011365 1.65802e-06 0)
(0.0113657 5.41468e-06 0)
(0.0113615 8.21595e-06 0)
(0.0113531 1.11824e-05 0)
(0.0113407 1.39904e-05 0)
(0.0113245 1.65545e-05 0)
(0.0113048 1.88793e-05 0)
(0.0112819 2.09893e-05 0)
(0.011256 2.29112e-05 0)
(0.0112275 2.46577e-05 0)
(0.0111965 2.60968e-05 0)
(0.011163 2.73961e-05 0)
(0.0111279 2.85979e-05 0)
(0.0110905 2.96782e-05 0)
(0.011052 3.07708e-05 0)
(0.0110114 3.15157e-05 0)
(0.0109704 3.24983e-05 0)
(0.010927 3.28239e-05 0)
(0.0108842 3.37228e-05 0)
(0.0108388 3.35927e-05 0)
(0.0107947 3.44136e-05 0)
(0.0107479 3.40493e-05 0)
(0.010703 3.46732e-05 0)
(0.0106555 3.41801e-05 0)
(0.0106101 3.45428e-05 0)
(0.0105623 3.40044e-05 0)
(0.0105169 3.41192e-05 0)
(0.0104693 3.35742e-05 0)
(0.0104241 3.34378e-05 0)
(0.0103772 3.29299e-05 0)
(0.0103323 3.25589e-05 0)
(0.0102867 3.20805e-05 0)
(0.0102424 3.15549e-05 0)
(0.0101981 3.10462e-05 0)
(0.0101548 3.04306e-05 0)
(0.0101118 2.98791e-05 0)
(0.0100699 2.91839e-05 0)
(0.0100284 2.85997e-05 0)
(0.00998812 2.78443e-05 0)
(0.0099482 2.72372e-05 0)
(0.00990965 2.64329e-05 0)
(0.00987142 2.58161e-05 0)
(0.00983472 2.49675e-05 0)
(0.0097983 2.43534e-05 0)
(0.00976353 2.34581e-05 0)
(0.00972898 2.28591e-05 0)
(0.0096962 2.19174e-05 0)
(0.00966358 2.13426e-05 0)
(0.00963283 2.03606e-05 0)
(0.00960219 1.98136e-05 0)
(0.00957349 1.87977e-05 0)
(0.00954485 1.82801e-05 0)
(0.00951821 1.72345e-05 0)
(0.00949158 1.6747e-05 0)
(0.00946701 1.56706e-05 0)
(0.0094424 1.52105e-05 0)
(0.00941987 1.40959e-05 0)
(0.00939728 1.36585e-05 0)
(0.00937677 1.24946e-05 0)
(0.00935618 1.20773e-05 0)
(0.00933766 1.08584e-05 0)
(0.00931903 1.04684e-05 0)
(0.00930244 9.2174e-06 0)
(0.0092857 8.8818e-06 0)
(0.00927097 7.67019e-06 0)
(0.00925605 7.40903e-06 0)
(0.00924316 6.29773e-06 0)
(0.00923007 6.17471e-06 0)
(0.00921897 5.05816e-06 0)
(0.00920765 4.9954e-06 0)
(0.00919827 3.86257e-06 0)
(0.00918869 3.8495e-06 0)
(0.00918097 2.73745e-06 0)
(0.00917309 2.73955e-06 0)
(0.00916696 1.66451e-06 0)
(0.00916073 1.69335e-06 0)
(0.00915609 6.20525e-07 0)
(0.00915141 7.4198e-07 0)
(0.0091482 -3.29844e-07 0)
(0.00914502 -7.99511e-08 0)
(0.00914317 -1.2718e-06 0)
(0.0091413 -9.83436e-07 0)
(0.00914063 -2.07504e-06 0)
(0.00914007 -1.88017e-06 0)
(0.00914063 -2.82893e-06 0)
(0.00914142 -2.64209e-06 0)
(0.00914295 -3.47655e-06 0)
(0.00914488 -3.47028e-06 0)
(0.00914752 -4.13801e-06 0)
(0.00915055 -4.45874e-06 0)
(0.0091542 -4.77788e-06 0)
(0.00915823 -5.1109e-06 0)
(0.00916278 -5.41039e-06 0)
(0.00916774 -5.7036e-06 0)
(0.00917317 -5.98537e-06 0)
(0.00917896 -6.28028e-06 0)
(0.00918534 -6.45835e-06 0)
(0.00919175 -6.82261e-06 0)
(0.00919907 -6.91347e-06 0)
(0.00920606 -7.27201e-06 0)
(0.00921416 -7.34315e-06 0)
(0.00922172 -7.72004e-06 0)
(0.00923055 -7.74515e-06 0)
(0.00923865 -8.12444e-06 0)
(0.00924812 -8.11114e-06 0)
(0.00925674 -8.46128e-06 0)
(0.00926675 -8.42615e-06 0)
(0.00927585 -8.75249e-06 0)
(0.00928634 -8.69762e-06 0)
(0.00929587 -9.01156e-06 0)
(0.00930679 -8.93465e-06 0)
(0.00931671 -9.22757e-06 0)
(0.00932802 -9.1413e-06 0)
(0.00933827 -9.40588e-06 0)
(0.0093499 -9.31596e-06 0)
(0.00936045 -9.55145e-06 0)
(0.00937235 -9.45656e-06 0)
(0.00938316 -9.66743e-06 0)
(0.00939529 -9.56678e-06 0)
(0.00940632 -9.76075e-06 0)
(0.00941863 -9.6527e-06 0)
(0.00942984 -9.82918e-06 0)
(0.0094423 -9.71615e-06 0)
(0.00945367 -9.86964e-06 0)
(0.00946624 -9.75249e-06 0)
(0.00947772 -9.88441e-06 0)
(0.00949037 -9.767e-06 0)
(0.00950194 -9.87843e-06 0)
(0.00951464 -9.762e-06 0)
(0.00952626 -9.85413e-06 0)
(0.00953898 -9.73857e-06 0)
(0.00955065 -9.80714e-06 0)
(0.00956335 -9.69596e-06 0)
(0.00957503 -9.74224e-06 0)
(0.0095877 -9.6376e-06 0)
(0.00959938 -9.65834e-06 0)
(0.00961199 -9.56305e-06 0)
(0.00962365 -9.56119e-06 0)
(0.00963616 -9.47047e-06 0)
(0.0096478 -9.45429e-06 0)
(0.00966018 -9.3612e-06 0)
(0.0096718 -9.33005e-06 0)
(0.00968404 -9.23738e-06 0)
(0.00969562 -9.19021e-06 0)
(0.00970769 -9.09738e-06 0)
(0.00971922 -9.02915e-06 0)
(0.0097311 -8.94629e-06 0)
(0.00974256 -8.88136e-06 0)
(0.00975424 -8.80142e-06 0)
(0.00976562 -8.72618e-06 0)
(0.0097771 -8.64027e-06 0)
(0.00978839 -8.55084e-06 0)
(0.00979967 -8.45584e-06 0)
(0.00981085 -8.3579e-06 0)
(0.00982196 -8.25603e-06 0)
(0.00983299 -8.16326e-06 0)
(0.00984395 -8.07473e-06 0)
(0.00985481 -7.99224e-06 0)
(0.00986559 -7.91191e-06 0)
(0.00987627 -7.8336e-06 0)
(0.00988687 -7.75524e-06 0)
(0.00989737 -7.67741e-06 0)
(0.00990779 -7.5989e-06 0)
(0.00991811 -7.52073e-06 0)
(0.00992833 -7.44215e-06 0)
(0.00993846 -7.36386e-06 0)
(0.00994849 -7.28541e-06 0)
(0.00995843 -7.20717e-06 0)
(0.00996827 -7.12899e-06 0)
(0.00997801 -7.05106e-06 0)
(0.00998765 -6.97327e-06 0)
(0.0099972 -6.89577e-06 0)
(0.0100066 -6.81849e-06 0)
(0.010016 -6.74158e-06 0)
(0.0100252 -6.665e-06 0)
(0.0100344 -6.58889e-06 0)
(0.0100434 -6.5132e-06 0)
(0.0100524 -6.43805e-06 0)
(0.0100613 -6.36342e-06 0)
(0.01007 -6.28942e-06 0)
(0.0100787 -6.21601e-06 0)
(0.0100873 -6.14329e-06 0)
(0.0100957 -6.07124e-06 0)
(0.0101041 -5.99992e-06 0)
(0.0101124 -5.92931e-06 0)
(0.0101206 -5.85947e-06 0)
(0.0101287 -5.79038e-06 0)
(0.0101367 -5.72209e-06 0)
(0.0101447 -5.65457e-06 0)
(0.0101525 -5.58786e-06 0)
(0.0101603 -5.52193e-06 0)
(0.0101679 -5.45679e-06 0)
(0.0101755 -5.39244e-06 0)
(0.010183 -5.32885e-06 0)
(0.0101904 -5.26603e-06 0)
(0.0101977 -5.20395e-06 0)
(0.0102049 -5.14261e-06 0)
(0.0102121 -5.08199e-06 0)
(0.0102192 -5.02205e-06 0)
(0.0102262 -4.96279e-06 0)
(0.0102331 -4.90419e-06 0)
(0.0102399 -4.84623e-06 0)
(0.0102467 -4.7889e-06 0)
(0.0102533 -4.73218e-06 0)
(0.0102599 -4.67606e-06 0)
(0.0102665 -4.6205e-06 0)
(0.0102729 -4.56551e-06 0)
(0.0102793 -4.51106e-06 0)
(0.0102856 -4.45714e-06 0)
(0.0102918 -4.40373e-06 0)
(0.0102979 -4.35083e-06 0)
(0.010304 -4.29841e-06 0)
(0.01031 -4.24649e-06 0)
(0.0103159 -4.19503e-06 0)
(0.0103218 -4.14404e-06 0)
(0.0103276 -4.09352e-06 0)
(0.0103333 -4.04345e-06 0)
(0.010339 -3.99383e-06 0)
(0.0103445 -3.94467e-06 0)
(0.01035 -3.89595e-06 0)
(0.0103555 -3.84768e-06 0)
(0.0103609 -3.79987e-06 0)
(0.0103662 -3.75251e-06 0)
(0.0103714 -3.70561e-06 0)
(0.0103766 -3.65917e-06 0)
(0.0103817 -3.61319e-06 0)
(0.0103868 -3.56769e-06 0)
(0.0103918 -3.52266e-06 0)
(0.0103967 -3.4781e-06 0)
(0.0104016 -3.43404e-06 0)
(0.0104064 -3.39046e-06 0)
(0.0104111 -3.34737e-06 0)
(0.0104158 -3.30477e-06 0)
(0.0104204 -3.26268e-06 0)
(0.010425 -3.22108e-06 0)
(0.0104295 -3.17998e-06 0)
(0.0104339 -3.13938e-06 0)
(0.0104383 -3.09927e-06 0)
(0.0104427 -3.05966e-06 0)
(0.010447 -3.02055e-06 0)
(0.0104512 -2.98192e-06 0)
(0.0104554 -2.9438e-06 0)
(0.0104595 -2.9062e-06 0)
(0.0104635 -2.86921e-06 0)
(0.0104676 -2.83266e-06 0)
(0.0104715 -2.79647e-06 0)
(0.0104755 -2.76066e-06 0)
(0.0104793 -2.72523e-06 0)
(0.0104831 -2.6902e-06 0)
(0.0104869 -2.65557e-06 0)
(0.0104906 -2.62131e-06 0)
(0.0104943 -2.58742e-06 0)
(0.0104979 -2.5539e-06 0)
(0.0105015 -2.52071e-06 0)
(0.010505 -2.48785e-06 0)
(0.0105085 -2.45531e-06 0)
(0.010512 -2.42306e-06 0)
(0.0105154 -2.39109e-06 0)
(0.0105187 -2.35938e-06 0)
(0.010522 -2.32792e-06 0)
(0.0105253 -2.29669e-06 0)
(0.0105285 -2.26569e-06 0)
(0.0105317 -2.23488e-06 0)
(0.0105348 -2.20427e-06 0)
(0.0105379 -2.17383e-06 0)
(0.0105409 -2.14355e-06 0)
(0.0105439 -2.11336e-06 0)
(0.0105469 -2.0832e-06 0)
(0.0105498 -2.05326e-06 0)
(0.0105527 -2.02352e-06 0)
(0.0105555 -1.99391e-06 0)
(0.0105583 -1.96417e-06 0)
(0.010561 -1.93479e-06 0)
(0.0105638 -1.90271e-06 0)
(0.0105664 -1.88469e-06 0)
(0.010569 -1.84028e-06 0)
(0.0105716 -1.82727e-06 0)
(0.0105742 -1.77926e-06 0)
(0.0105767 -1.77236e-06 0)
(0.0105791 -1.71677e-06 0)
(0.0105816 -1.71287e-06 0)
(0.0105839 -1.65538e-06 0)
(0.0105863 -1.65025e-06 0)
(0.0105885 -1.59137e-06 0)
(0.0105909 -1.58496e-06 0)
(0.0105929 -1.51917e-06 0)
(0.0105953 -1.51642e-06 0)
(0.010597 -1.43053e-06 0)
(0.0105995 -1.44748e-06 0)
(0.0106009 -1.31755e-06 0)
(0.0106036 -1.3983e-06 0)
(0.0106045 -1.18849e-06 0)
(0.0106075 -1.43745e-06 0)
(0.0106076 -1.21292e-06 0)
(0.0106117 -1.58979e-06 0)
(0.0106099 -1.77758e-06 0)
(-4.42792e-06 5.86909e-06 0)
(-4.63287e-05 5.89505e-05 0)
(-0.00013363 0.000123855 0)
(-0.000262775 0.000181827 0)
(-0.000426203 0.000227299 0)
(-0.000614053 0.000256573 0)
(-0.000818969 0.000274944 0)
(-0.00103387 0.00028343 0)
(-0.00125419 0.000286797 0)
(-0.00147688 0.000286562 0)
(-0.00169929 0.000284944 0)
(-0.00192096 0.000282078 0)
(-0.00214042 0.000278838 0)
(-0.00235785 0.000275745 0)
(-0.00257301 0.000272738 0)
(-0.00278585 0.000269658 0)
(-0.00299639 0.000266329 0)
(-0.00320447 0.000263233 0)
(-0.00340967 0.00025956 0)
(-0.00361245 0.000255158 0)
(-0.00381351 0.0002506 0)
(-0.00401251 0.000246077 0)
(-0.0042096 0.000241695 0)
(-0.00440458 0.000237483 0)
(-0.00459745 0.000233572 0)
(-0.00478816 0.000230072 0)
(-0.0049767 0.000227134 0)
(-0.0051631 0.000224839 0)
(-0.00534736 0.000223266 0)
(-0.0055295 0.000222465 0)
(-0.00570953 0.000222349 0)
(-0.00588746 0.000222877 0)
(-0.00606347 0.000223703 0)
(-0.00623813 0.000225608 0)
(-0.00641164 0.000229411 0)
(-0.00658116 0.000232 0)
(-0.00674762 0.000235337 0)
(-0.00691226 0.000238377 0)
(-0.00707484 0.000240988 0)
(-0.00723537 0.000243035 0)
(-0.00739391 0.000244469 0)
(-0.00755061 0.000245121 0)
(-0.00770557 0.000245102 0)
(-0.0078591 0.000244369 0)
(-0.00801129 0.000243058 0)
(-0.00816225 0.000241276 0)
(-0.00831195 0.000239149 0)
(-0.00846037 0.000236775 0)
(-0.00860747 0.00023423 0)
(-0.00875323 0.000231502 0)
(-0.0088976 0.000228687 0)
(-0.00904071 0.000225322 0)
(-0.00918198 0.000222148 0)
(-0.00932238 0.000217742 0)
(-0.00946044 0.000213621 0)
(-0.00959821 0.000207374 0)