/*--------------------------------*- C++ -*----------------------------------*\
| =========                 |                                                 |
| \\      /  F ield         | OpenFOAM: The Open Source CFD Toolbox           |
|  \\    /   O peration     | Version:  2012                                  |
|   \\  /    A nd           | Website:  www.openfoam.com                      |
|    \\/     M anipulation  |                                                 |
\*---------------------------------------------------------------------------*/
FoamFile
{
    version     2.0;
    format      ascii;
    class       surfaceScalarField;
    location    "0.1";
    object      alphaPhi0.water;
}
// * * * * * * * * * * * * * * * * * * * * * * * * * * * * * * * * * * * * * //

dimensions      [0 3 -1 0 0 0 0];
oriented        oriented;


internalField   nonuniform List<scalar> 
4432
(
4.7143e-06
-4.7143e-06
1.04338e-05
-5.71953e-06
1.59657e-05
-5.53191e-06
2.15175e-05
-5.55178e-06
2.72674e-05
-5.74991e-06
3.32969e-05
-6.02948e-06
3.96761e-05
-6.37918e-06
4.64707e-05
-6.79462e-06
5.37981e-05
-7.32741e-06
6.17152e-05
-7.9171e-06
7.03525e-05
-8.63725e-06
7.9834e-05
-9.48156e-06
9.04804e-05
-1.06464e-05
0.000102484
-1.2004e-05
0.000114741
-1.22568e-05
0.000124459
-1.00219e-05
0.000130752
-6.61471e-06
0.000135734
-5.37312e-06
0.000140432
-5.07375e-06
6.52928e-05
-3.11488e-07
6.5671e-06
5.44017e-06
2.08871e-06
2.83324e-06
4.43554e-07
4.73136e-06
-9.44566e-06
1.04357e-05
-1.14238e-05
1.59677e-05
-1.10639e-05
2.15199e-05
-1.1104e-05
2.72653e-05
-1.14954e-05
3.32876e-05
-1.20519e-05
3.9655e-05
-1.27466e-05
4.64407e-05
-1.35803e-05
5.37427e-05
-1.46294e-05
6.16324e-05
-1.58068e-05
7.02758e-05
-1.72806e-05
7.97413e-05
-1.89471e-05
9.01512e-05
-2.10562e-05
0.000101841
-2.36963e-05
0.000114457
-2.48865e-05
0.000126636
-2.21987e-05
0.000135239
-1.68478e-05
0.000128757
-1.28574e-05
9.58336e-05
-9.15104e-06
4.22709e-05
-2.66681e-06
6.72574e-06
3.09491e-06
3.38662e-06
4.38603e-06
2.18502e-06
4.72734e-06
-1.4173e-05
1.0393e-05
-1.70895e-05
1.58943e-05
-1.65652e-05
2.14192e-05
-1.66289e-05
2.71334e-05
-1.72095e-05
3.31199e-05
-1.80384e-05
3.94453e-05
-1.90719e-05
4.61857e-05
-2.03208e-05
5.34285e-05
-2.18722e-05
6.12571e-05
-2.36354e-05
6.98601e-05
-2.58836e-05
7.92654e-05
-2.83524e-05
8.95231e-05
-3.13139e-05
0.000101077
-3.52532e-05
0.000114092
-3.79061e-05
0.000128209
-3.63194e-05
0.000136071
-3.04136e-05
8.6316e-05
-2.21162e-05
1.57089e-05
-4.25866e-06
9.1593e-06
-2.47523e-07
8.79479e-06
1.36875e-07
4.04048e-06
3.73187e-06
4.43918e-06
4.71574e-06
-1.88887e-05
1.03301e-05
-2.27038e-05
1.57856e-05
-2.20207e-05
2.12694e-05
-2.21127e-05
2.69386e-05
-2.28787e-05
3.28741e-05
-2.39739e-05
3.91404e-05
-2.53383e-05
4.58146e-05
-2.69949e-05
5.29795e-05
-2.9037e-05
6.07242e-05
-3.13801e-05
6.92465e-05
-3.44059e-05
7.85639e-05
-3.76698e-05
8.87342e-05
-4.14842e-05
0.000100317
-4.68356e-05
0.000113854
-5.14431e-05
0.000128478
-5.09462e-05
0.000112294
-4.59489e-05
2.94946e-05
-1.74471e-05
4.22976e-06
-1.31299e-06
2.49989e-06
3.64453e-08
3.23749e-06
3.38917e-08
2.79093e-06
1.20168e-06
5.28948e-06
4.69641e-06
-2.35851e-05
1.02464e-05
-2.82537e-05
1.56423e-05
-2.74167e-05
2.10716e-05
-2.7542e-05
2.66825e-05
-2.84897e-05
3.25526e-05
-2.9844e-05
3.87441e-05
-3.15298e-05
4.53348e-05
-3.35856e-05
5.24022e-05
-3.61044e-05
6.00446e-05
-3.90226e-05
6.84627e-05
-4.28239e-05
7.76636e-05
-4.68707e-05
8.77535e-05
-5.15741e-05
9.94269e-05
-5.85091e-05
0.000113727
-6.57428e-05
0.000121265
-6.44374e-05
5.53809e-05
-4.45573e-05
3.65431e-06
-6.22658e-06
1.08753e-06
-1.9115e-07
6.85179e-07
3.36183e-08
5.23481e-07
4.43335e-08
1.42569e-06
5.9067e-07
4.99117e-06
4.67106e-06
-2.82562e-05
1.0145e-05
-3.37276e-05
1.54698e-05
-3.27416e-05
2.08342e-05
-3.29064e-05
2.63775e-05
-3.4033e-05
3.21728e-05
-3.56393e-05
3.82803e-05
-3.76373e-05
4.47788e-05
-4.00841e-05
5.17406e-05
-4.30662e-05
5.92713e-05
-4.65533e-05
6.75781e-05
-5.11306e-05
7.66608e-05
-5.59535e-05
8.66527e-05
-6.1566e-05
9.83446e-05
-7.0201e-05
0.000112983
-8.03821e-05
8.92178e-05
-8.09416e-05
9.62216e-06
-2.53356e-05
1.01928e-06
-1.72293e-06
3.13327e-07
3.34889e-08
1.71797e-07
2.30569e-08
1.75781e-07
1.63798e-08
4.90931e-07
1.78859e-07
2.83985e-06
4.64557e-06
-3.29018e-05
1.00296e-05
-3.91117e-05
1.52737e-05
-3.79857e-05
2.05669e-05
-3.81996e-05
2.60371e-05
-3.95031e-05
3.17519e-05
-4.13541e-05
3.77702e-05
-4.36556e-05
4.41693e-05
-4.64833e-05
5.10203e-05
-4.99173e-05
5.84312e-05
-5.39641e-05
6.66022e-05
-5.93017e-05
7.55124e-05
-6.48637e-05
8.53189e-05
-7.13725e-05
9.69384e-05
-8.18206e-05
0.000109315
-9.27632e-05
4.25805e-05
-7.65259e-05
2.18365e-06
-9.28721e-06
1.84295e-07
-4.66108e-07
7.37789e-08
5.80643e-08
3.7148e-08
1.81329e-08
5.075e-08
4.55794e-09
1.68273e-07
5.89346e-08
6.54693e-07
4.62099e-06
-3.75228e-05
9.89405e-06
-4.43847e-05
1.50483e-05
-4.31399e-05
2.0261e-05
-4.34123e-05
2.56471e-05
-4.48892e-05
3.12681e-05
-4.69751e-05
3.71804e-05
-4.95679e-05
4.34586e-05
-5.27615e-05
5.01677e-05
-5.66264e-05
5.7425e-05
-6.12213e-05
6.54042e-05
-6.72808e-05
7.40218e-05
-7.34814e-05
8.34773e-05
-8.0828e-05
9.48454e-05
-9.31887e-05
9.4149e-05
-9.70313e-05
1.22362e-05
-5.4505e-05
8.98846e-07
-4.14084e-06
8.16923e-08
6.58493e-09
1.56628e-08
5.21579e-08
6.40423e-09
1.06929e-08
9.08833e-09
2.04477e-09
2.7383e-08
1.73006e-08
1.42476e-07
5.47439e-24
-8.13099e-24
8.95921e-24
-2.55194e-23
1.30797e-24
-6.21513e-24
3.16934e-26
-2.57468e-25
6.50843e-28
-3.75173e-27
1.89005e-29
-3.06638e-29
7.09358e-31
1.79792e-31
2.40612e-32
1.75727e-32
7.04869e-34
8.26883e-34
1.84511e-35
3.04406e-35
4.19497e-37
9.39963e-37
8.05511e-39
2.45913e-38
1.27147e-40
5.41957e-40
1.58969e-42
9.89644e-42
1.48852e-44
1.45716e-43
9.52407e-47
1.65443e-45
3.36777e-49
1.34409e-47
9.89225e-50
6.07562e-50
1.30387e-50
1.50903e-22
-9.74056e-22
1.29717e-21
-4.93176e-21
1.96108e-22
-1.14004e-21
3.81377e-24
-4.29075e-23
7.52811e-26
-6.21595e-25
2.16525e-27
-5.37243e-27
7.24202e-29
6.40694e-29
2.27704e-30
6.52676e-30
6.38313e-32
2.95887e-31
1.6127e-33
1.04562e-32
3.56523e-35
3.11668e-34
6.69128e-37
7.91963e-36
1.0329e-38
1.70127e-37
1.25678e-40
3.0271e-39
1.13098e-42
4.31591e-41
6.77206e-45
4.67241e-43
2.19512e-47
3.49772e-45
1.27213e-49
1.49225e-47
5.43684e-50
5.91298e-21
-7.51529e-20
7.10573e-20
-3.64629e-19
9.47291e-21
-8.1478e-20
1.76877e-22
-2.92584e-21
3.68619e-24
-4.22319e-23
1.0179e-25
-3.43529e-25
2.9961e-27
4.95478e-27
8.44638e-29
4.11073e-28
2.17054e-30
1.67179e-29
5.05728e-32
5.38325e-31
1.04007e-33
1.47745e-32
1.82914e-35
3.48794e-34
2.65234e-37
7.00206e-36
3.01876e-39
1.16569e-37
2.50153e-41
1.54538e-39
1.34118e-43
1.52572e-41
3.91162e-46
1.01861e-43
7.04574e-49
4.07795e-46
2.27239e-48
5.31846e-20
-9.18141e-19
2.40025e-18
-1.58726e-17
3.37027e-19
-4.36791e-18
5.86706e-21
-1.54352e-19
1.21743e-22
-1.95477e-21
3.26452e-24
-1.3581e-23
8.87803e-26
2.41325e-25
2.30112e-27
1.64917e-26
5.47334e-29
6.09859e-28
1.18012e-30
1.80503e-29
2.25354e-32
4.57574e-31
3.69294e-34
1.00221e-32
4.98545e-36
1.87127e-34
5.25239e-38
2.89015e-36
4.05083e-40
3.54575e-38
2.08167e-42
3.29834e-40
5.96007e-45
2.12175e-42
1.43065e-47
8.38816e-45
7.36e-47
-7.85248e-18
-2.67426e-18
6.244e-17
-8.66884e-16
9.92037e-18
-2.63546e-16
1.38247e-19
-6.43245e-18
2.77277e-21
-6.13138e-20
7.38882e-23
-3.36346e-22
1.94194e-24
7.85713e-24
4.7593e-26
4.561e-25
1.06449e-27
1.56604e-26
2.1477e-29
4.3324e-28
3.82644e-31
1.02576e-29
5.84377e-33
2.0951e-31
7.37766e-35
3.64967e-33
7.37603e-37
5.29126e-35
5.49796e-39
6.21474e-37
2.74479e-41
5.53703e-39
7.95207e-44
3.53558e-41
2.47578e-46
1.39402e-43
1.75092e-45
-1.58585e-16
-3.06308e-16
1.51955e-15
-2.14711e-14
1.36388e-16
-4.70587e-15
1.63535e-18
-7.30302e-17
3.70698e-20
-6.43614e-19
1.035e-21
-2.53521e-21
2.73035e-23
1.46282e-22
6.561e-25
7.57823e-24
1.42821e-26
2.51064e-25
2.78227e-28
6.73377e-27
4.75695e-30
1.53949e-28
6.97324e-32
3.02661e-30
8.52655e-34
5.09317e-32
8.28157e-36
7.18183e-34
6.00496e-38
8.1514e-36
2.99298e-40
7.21671e-38
8.48082e-43
4.48985e-40
3.4726e-45
1.77152e-42
3.13757e-44
5.22003e-15
7.19033e-15
1.3473e-14
-5.80963e-14
4.74565e-16
-8.2611e-15
7.34812e-18
-1.51152e-16
2.22986e-19
-1.8948e-18
6.95433e-21
-2.27313e-21
1.93377e-22
1.19924e-21
4.82116e-24
5.99579e-23
1.07862e-25
2.03731e-24
2.13895e-27
5.61224e-26
3.70185e-29
1.3093e-27
5.49733e-31
2.62484e-29
6.74733e-33
4.48403e-31
6.55054e-35
6.33909e-33
4.82493e-37
7.30869e-35
2.39171e-39
6.49931e-37
6.72665e-42
4.0243e-39
3.91264e-44
1.58865e-41
4.34908e-43
5.96476e-14
-1.3604e-13
1.56277e-14
-7.53916e-14
4.56637e-16
-5.33802e-15
1.6721e-17
-1.88317e-16
7.66815e-19
-2.94641e-18
2.7545e-20
2.69791e-20
8.26655e-22
5.66017e-21
2.21373e-23
2.88925e-22
5.25483e-25
1.04669e-23
1.09291e-26
3.06975e-25
1.96451e-28
7.55202e-27
3.02045e-30
1.58695e-28
3.81133e-32
2.82233e-30
3.75986e-34
4.12253e-32
2.7797e-36
4.82779e-34
1.38803e-38
4.35922e-36
4.01231e-41
2.71033e-38
3.56601e-43
1.07205e-40
4.62358e-42
9.62769e-06
-4.71505e-05
2.04956e-05
-5.52527e-05
3.1079e-05
-5.37232e-05
4.18166e-05
-5.41498e-05
5.2907e-05
-5.59796e-05
6.44487e-05
-5.85168e-05
7.65546e-05
-6.16738e-05
8.93416e-05
-6.55486e-05
0.000102987
-7.02718e-05
0.000117644
-7.58787e-05
0.000133611
-8.32471e-05
0.000150801
-9.06717e-05
0.000170427
-0.000100454
0.000193827
-0.000116588
0.000112961
-0.000107758
4.69924e-06
-1.48968e-05
2.89466e-07
-1.01845e-06
-1.97644e-09
6.93852e-08
-3.97928e-10
1.39203e-08
1.2341e-09
1.54266e-09
2.33946e-09
4.05792e-10
1.43144e-08
5.49884e-09
5.04498e-08
9.57714e-08
9.33903e-06
-5.64895e-05
1.95843e-05
-6.54979e-05
2.96049e-05
-6.37438e-05
3.97968e-05
-6.43418e-05
5.02995e-05
-6.64823e-05
6.11841e-05
-6.94013e-05
7.25377e-05
-7.30274e-05
8.44603e-05
-7.74711e-05
9.70679e-05
-8.28794e-05
0.000110503
-8.93137e-05
0.000124944
-9.76882e-05
0.000140154
-0.000105881
0.000157764
-0.000118065
0.000167906
-0.000126732
2.21842e-05
-6.71317e-05
1.29216e-06
-3.98184e-06
8.63044e-10
-3.48388e-08
-4.21197e-09
2.7367e-08
-1.31737e-11
2.80791e-09
1.84818e-10
2.69286e-10
4.57923e-10
7.91623e-11
4.63283e-09
9.76113e-10
1.12611e-08
4.18619e-08
8.9757e-06
-6.54652e-05
1.85249e-05
-7.50471e-05
2.79092e-05
-7.31282e-05
3.74799e-05
-7.39125e-05
4.7311e-05
-7.63134e-05
5.7446e-05
-7.95363e-05
6.79482e-05
-8.35296e-05
7.88891e-05
-8.84121e-05
9.03342e-05
-9.43245e-05
0.000102381
-0.000101361
0.000115082
-0.00011039
0.000128127
-0.000118926
0.000143495
-0.000133432
0.000100177
-0.000138158
3.29952e-06
-2.78195e-05
1.51667e-07
-1.4339e-06
-1.34922e-08
5.9406e-08
-1.59321e-09
7.06838e-09
-1.09117e-10
2.71789e-10
2.5532e-11
-7.88162e-12
8.934e-11
1.31324e-11
8.67522e-10
1.43336e-10
1.76227e-09
1.00847e-08
8.53645e-06
-7.40016e-05
1.73353e-05
-8.38459e-05
2.60331e-05
-8.18261e-05
3.49211e-05
-8.28005e-05
4.40136e-05
-8.54059e-05
5.333e-05
-8.88528e-05
6.29108e-05
-9.31103e-05
7.27962e-05
-9.82975e-05
8.30085e-05
-0.000104537
9.35917e-05
-0.000111944
0.000104466
-0.000121264
0.000115355
-0.000129815
0.000127945
-0.000146022
4.35508e-05
-0.000119493
1.321e-06
-8.0333e-06
-2.02022e-08
-2.7629e-07
-5.21237e-09
2.97612e-08
-3.43e-10
1.18907e-09
-3.54147e-11
1.42678e-11
4.21809e-12
-3.65173e-12
1.7349e-11
1.89273e-12
1.38186e-10
1.38353e-11
1.63487e-10
1.67883e-09
8.03036e-06
-8.2032e-05
1.60424e-05
-9.18579e-05
2.40207e-05
-8.98044e-05
3.21818e-05
-9.09616e-05
4.04903e-05
-9.37144e-05
4.89464e-05
-9.73089e-05
5.75701e-05
-0.000101734
6.63739e-05
-0.000107101
7.53456e-05
-0.000113508
8.4485e-05
-0.000121083
9.36122e-05
-0.000130391
0.000102575
-0.000138778
0.000109923
-0.00015337
1.01316e-05
-8.5185e-05
3.32862e-07
-3.03255e-06
-1.96154e-08
3.44577e-08
-9.00255e-10
8.80509e-09
-5.77152e-11
1.97537e-10
-6.5689e-12
-7.9824e-13
5.49212e-13
-6.76049e-13
2.87745e-12
3.70862e-13
1.47432e-11
8.92192e-13
1.30667e-11
1.56949e-10
7.46667e-06
-8.94986e-05
1.46732e-05
-9.90644e-05
2.1913e-05
-9.70441e-05
2.93192e-05
-9.83678e-05
3.68177e-05
-0.000101213
4.43951e-05
-0.000104886
5.20546e-05
-0.000109393
5.97867e-05
-0.000114833
6.75555e-05
-0.000121277
7.53322e-05
-0.00012886
8.28912e-05
-0.00013795
9.02777e-05
-0.000146164
7.69142e-05
-0.000154432
1.73631e-06
-5.38581e-05
3.91237e-08
-1.53425e-06
-6.85936e-09
7.26048e-08
-1.63334e-10
1.90266e-09
-9.74114e-12
2.86886e-11
-9.38558e-13
-6.34459e-13
9.73718e-14
-2.08636e-13
4.0048e-13
1.28881e-13
1.20757e-12
1.08313e-13
1.14026e-12
1.2029e-11
6.85644e-06
-9.63551e-05
1.32543e-05
-0.000105462
1.97484e-05
-0.000103538
2.63859e-05
-0.000105005
3.30657e-05
-0.000107893
3.97654e-05
-0.000111586
4.64754e-05
-0.000116103
5.31704e-05
-0.000121528
5.98009e-05
-0.000127908
6.63213e-05
-0.00013538
7.24914e-05
-0.00014412
7.84993e-05
-0.000152172
5.00781e-05
-0.000152755
9.19274e-07
-3.13019e-05
-3.8865e-08
-6.68285e-07
-1.72333e-09
3.41047e-08
-3.67532e-11
2.04151e-10
-1.6682e-12
6.67568e-12
-1.23879e-13
1.77494e-13
2.48982e-14
1.26112e-13
5.65426e-14
1.15459e-13
9.93222e-14
4.03747e-14
1.39212e-13
9.23447e-13
6.21271e-06
-0.000102568
1.18101e-05
-0.00011106
1.75609e-05
-0.000109289
2.3428e-05
-0.000110872
2.92939e-05
-0.000113758
3.51312e-05
-0.000117423
4.09208e-05
-0.000121893
4.66274e-05
-0.000127235
5.21959e-05
-0.000133476
5.75731e-05
-0.000140757
6.25316e-05
-0.000149079
6.73834e-05
-0.000157024
3.15395e-05
-0.000142671
5.82109e-07
-1.62934e-05
-2.58807e-08
-8.39554e-08
-2.22033e-10
8.22268e-09
-3.44807e-12
2.76324e-11
-3.40767e-13
1.81732e-12
-3.19559e-15
1.79009e-13
2.75684e-14
1.18976e-13
1.98072e-14
7.02676e-14
1.74052e-14
2.56891e-14
-1.63008e-15
7.20999e-14
5.5482e-06
-0.000108116
1.03633e-05
-0.000115875
1.53804e-05
-0.000114306
2.04849e-05
-0.000115977
2.55524e-05
-0.000118826
3.05525e-05
-0.000122424
3.54595e-05
-0.0001268
4.02322e-05
-0.000132008
4.48152e-05
-0.000138059
4.91519e-05
-0.000145094
5.3046e-05
-0.000152973
5.68667e-05
-0.000160845
1.75515e-05
-0.000128434
1.59605e-07
-7.00496e-06
-7.00186e-09
7.99705e-08
-3.58508e-11
1.22688e-09
-3.21477e-13
2.56837e-12
-1.48706e-14
1.32159e-13
1.52838e-14
1.01215e-13
1.55594e-14
6.36155e-14
8.87197e-15
3.12814e-14
5.3255e-15
1.2577e-14
4.68499e-15
6.99695e-15
4.8748e-06
-0.000112991
8.93213e-06
-0.000119932
1.32306e-05
-0.000118605
1.75884e-05
-0.000120335
2.18805e-05
-0.000123118
2.60755e-05
-0.000126619
3.01425e-05
-0.000130867
3.40377e-05
-0.000135903
3.77076e-05
-0.000141729
4.1093e-05
-0.000148479
4.40472e-05
-0.000155927
4.68823e-05
-0.00016368
7.73751e-06
-0.000108363
-5.24445e-08
-2.05927e-06
-1.2063e-09
2.84996e-08
-2.03493e-12
2.18976e-11
-5.66792e-14
4.5158e-13
9.39669e-15
8.03253e-14
9.34831e-15
5.20747e-14
6.28976e-15
2.62831e-14
3.22331e-15
1.14735e-14
1.55813e-15
4.24407e-15
1.66748e-15
9.05756e-16
4.19949e-06
-0.00011719
7.52876e-06
-0.000123261
1.11285e-05
-0.000122204
1.47608e-05
-0.000123967
1.83051e-05
-0.000126662
2.17306e-05
-0.000130044
2.50033e-05
-0.00013414
2.80802e-05
-0.00013898
3.0911e-05
-0.00014456
3.34281e-05
-0.000150996
3.5541e-05
-0.000158039
3.73004e-05
-0.000165437
1.66829e-06
-7.98795e-05
-1.96181e-08
-7.51304e-07
-1.04328e-11
8.98611e-09
-2.20475e-13
1.1892e-11
-2.45342e-15
2.53049e-13
7.41972e-15
4.88632e-14
3.87972e-15
2.45153e-14
2.06557e-15
1.00434e-14
8.90527e-16
3.54053e-15
3.14061e-16
9.96062e-16
2.35796e-16
9.76256e-17
3.53824e-06
-0.000120728
6.17707e-06
-0.0001259
9.10455e-06
-0.000125131
1.20402e-05
-0.000126902
1.48747e-05
-0.000129496
1.7576e-05
-0.000132745
2.01075e-05
-0.00013667
2.24242e-05
-0.000141295
2.44811e-05
-0.000146615
2.61638e-05
-0.000152676
2.74003e-05
-0.000159272
2.75576e-05
-0.000165584
4.25508e-07
-5.04237e-05
-5.27271e-09
-3.25908e-07
-6.20243e-11
3.83551e-09
-8.80679e-13
2.73584e-11
-1.37187e-14
3.2938e-13
2.50502e-15
2.00694e-14
1.91289e-15
1.17665e-14
6.13315e-16
3.86498e-15
1.83565e-16
9.54266e-16
4.72702e-17
1.9041e-16
3.68615e-17
9.30942e-18
2.9304e-06
-0.000123655
4.91967e-06
-0.000127884
7.22344e-06
-0.00012743
9.51404e-06
-0.000129187
1.16998e-05
-0.000131676
1.37428e-05
-0.00013478
1.55977e-05
-0.000138515
1.72018e-05
-0.000142887
1.85012e-05
-0.000147899
1.92357e-05
-0.00015339
1.92145e-05
-0.000159222
1.64906e-05
-0.000162788
2.94898e-07
-3.47343e-05
-3.50766e-09
-2.79265e-08
-4.74356e-12
3.23817e-10
2.32069e-14
1.8892e-11
-8.07415e-15
7.90257e-13
1.00272e-15
1.16893e-14
9.45901e-16
5.21287e-15
1.52986e-16
1.31628e-15
3.06034e-17
2.40565e-16
6.0513e-18
3.62475e-17
5.76774e-18
7.9423e-19
2.36869e-06
-0.000125987
3.74911e-06
-0.000129223
5.49876e-06
-0.000129137
7.21073e-06
-0.000130852
8.80509e-06
-0.000133216
1.02401e-05
-0.000136151
1.14557e-05
-0.000139654
1.23609e-05
-0.000143699
1.28757e-05
-0.000148299
1.26561e-05
-0.000153019
1.11853e-05
-0.000157554
7.84213e-06
-0.000158955
-2.92486e-08
-3.46618e-05
-8.58067e-11
-5.71189e-08
3.61674e-12
2.31555e-10
2.61185e-13
2.2372e-11
9.8118e-15
1.15706e-12
4.3989e-16
2.97052e-14
2.40518e-16
2.71222e-15
3.3521e-17
3.42068e-16
4.88567e-18
6.42154e-17
6.91352e-19
7.86393e-18
9.21049e-19
5.06814e-20
1.74422e-06
-0.000127405
2.53424e-06
-0.000129656
3.72044e-06
-0.000129953
4.83347e-06
-0.00013156
5.79338e-06
-0.000133721
6.56455e-06
-0.000136401
7.08096e-06
-0.000139564
7.26837e-06
-0.00014317
7.03526e-06
-0.000147215
6.67569e-06
-0.000150134
6.19354e-06
-0.000148504
7.94635e-06
-0.000118087
-2.18164e-07
-3.68266e-05
1.41138e-08
-1.55637e-06
1.90086e-09
1.24289e-08
6.2186e-11
1.85783e-09
8.55526e-13
5.99913e-11
8.91974e-15
8.51233e-13
-1.81358e-17
1.11939e-14
3.84526e-18
1.79525e-16
8.33516e-19
2.18632e-17
6.91921e-20
2.13002e-18
1.52162e-19
4.07316e-22
8.01322e-07
-7.7908e-05
9.26844e-07
-7.70005e-05
1.33873e-06
-7.55699e-05
1.62392e-06
-7.33789e-05
1.75225e-06
-7.03459e-05
1.68996e-06
-6.65039e-05
1.45245e-06
-6.19149e-05
1.12987e-06
-5.65818e-05
7.25258e-07
-5.07032e-05
1.51913e-06
-4.08045e-05
4.06279e-06
-2.45858e-05
4.3692e-06
-7.17228e-07
1.94281e-06
-1.80455e-05
8.14833e-08
-4.9375e-06
2.42015e-08
3.05921e-08
9.26853e-10
2.29598e-08
1.35158e-11
9.23096e-10
1.58493e-13
1.40014e-11
5.08732e-16
1.68779e-13
6.58238e-20
6.8007e-16
-5.46847e-21
9.49739e-18
-2.24572e-22
6.26802e-19
2.57407e-20
-6.59055e-23
-1.21061e-07
-7.69072e-26
-3.34376e-07
-6.87673e-25
-4.62684e-07
-7.22808e-23
-5.88704e-07
-4.96139e-21
-6.81391e-07
-2.40264e-19
-7.21351e-07
-8.57754e-18
-6.54747e-07
-2.30402e-16
-4.95553e-07
-4.6451e-15
-1.52776e-07
-9.03526e-14
2.05374e-07
-2.03921e-12
7.34101e-07
-3.86261e-11
1.72298e-08
-3.96654e-10
1.00329e-06
-4.1518e-09
1.98545e-06
-1.00912e-06
2.47795e-09
-7.2061e-08
5.12191e-10
2.38063e-08
2.75455e-12
1.41956e-09
-7.52704e-14
1.69337e-11
-6.00727e-16
9.38193e-14
-7.30049e-19
7.67426e-17
-6.2151e-20
4.04677e-18
-2.59615e-21
1.68804e-19
4.30087e-21
-1.43394e-22
-2.4022e-27
-1.77734e-25
-3.7738e-25
-4.14435e-25
-3.65445e-23
-3.63015e-23
-2.3854e-21
-2.62191e-21
-1.02526e-19
-1.40766e-19
-2.97796e-18
-5.73391e-18
-5.5941e-17
-1.78625e-16
-7.96465e-16
-3.93607e-15
-1.30397e-15
-9.04629e-14
3.18339e-14
-2.08444e-12
1.38983e-12
-4.0288e-11
2.37946e-11
-4.24711e-10
3.38217e-10
-4.50667e-09
1.85105e-07
-4.26748e-07
5.34804e-08
-5.36963e-08
-4.6097e-10
3.07753e-08
-1.22979e-11
4.21233e-10
-8.37568e-14
4.74641e-12
-7.23218e-17
6.70053e-15
-1.06275e-18
4.46475e-18
-3.55215e-20
3.1885e-18
-8.8183e-22
3.68262e-20
5.86185e-22
-4.1477e-23
-2.89769e-27
-1.00521e-25
-2.62403e-26
-4.00321e-25
-4.10001e-24
-4.15296e-23
-3.7011e-22
-3.11481e-21
-2.65187e-20
-1.9395e-19
-1.46706e-18
-9.65347e-18
-3.43381e-17
-3.27727e-16
1.40794e-16
-5.59395e-15
4.43046e-14
-1.56331e-13
6.1878e-13
-3.3216e-12
4.74994e-12
-6.09145e-11
4.75954e-13
-6.76386e-10
1.15849e-09
-7.066e-09
-1.68818e-07
-8.61392e-08
-2.66679e-08
4.62865e-09
-3.60166e-10
4.6066e-09
-4.15484e-12
6.49278e-11
-5.72907e-15
6.18539e-13
-3.68733e-18
9.84506e-16
-9.08582e-19
1.45092e-19
-1.11857e-20
2.21509e-18
-1.76395e-22
5.23944e-21
5.89384e-23
-7.11809e-24
-3.58368e-27
-4.01076e-26
-5.72836e-26
-3.50925e-25
-9.36186e-24
-4.07302e-23
-1.02385e-21
-3.40557e-21
-8.55375e-20
-2.14436e-19
-1.02882e-17
-1.0569e-17
-1.00278e-16
-4.2016e-16
1.00059e-14
-1.3571e-14
2.45224e-13
-4.06649e-13
5.18384e-12
-8.64227e-12
6.89717e-11
-1.31892e-10
7.72228e-10
-2.08708e-09
1.9455e-10
-1.31789e-08
-1.87771e-07
-2.12415e-08
-4.38647e-09
8.5008e-09
-5.95422e-11
2.99262e-10
-5.71806e-13
5.69206e-12
-9.21612e-16
4.77578e-14
-4.33589e-19
6.05072e-17
-5.38557e-19
4.67012e-20
-1.97527e-21
5.11113e-19
-2.41198e-23
4.50155e-22
4.67797e-24
-8.55377e-25
-5.87272e-28
-5.55533e-27
-4.27869e-25
7.6356e-26
-4.27712e-23
1.61319e-24
-3.45208e-21
6.48467e-24
-2.17122e-19
-8.87463e-22
-1.07447e-17
-3.01604e-20
-4.28061e-16
-8.95477e-19
-1.39568e-14
-4.8324e-17
-4.1833e-13
-2.31123e-15
-9.01417e-12
-4.34103e-14
-1.40011e-10
-8.74194e-13
-6.17011e-09
-1.11005e-11
-1.39096e-08
-8.09499e-11
-8.34885e-09
-4.83113e-10
-2.87958e-10
5.47873e-10
-5.22405e-12
1.8587e-11
-4.42501e-14
5.05563e-13
-5.81252e-17
3.73846e-15
-3.06462e-20
2.34792e-18
-9.66135e-20
1.67647e-20
-2.19718e-22
2.73548e-20
-2.50959e-24
2.88193e-23
3.16427e-25
-7.84665e-26
3.36115e-27
3.32313e-27
1.43267e-25
2.30806e-25
8.67617e-25
7.17106e-24
-7.85501e-23
1.30472e-22
-2.43183e-21
1.46582e-21
-4.21473e-20
9.55502e-21
-9.57376e-19
1.9752e-20
-4.90031e-17
-4.01077e-19
-2.3343e-15
-1.39508e-17
-4.52955e-14
-4.12359e-16
-9.10705e-13
-8.20964e-15
-1.18994e-11
-1.08686e-13
-9.24714e-11
-8.62499e-13
-5.67486e-10
-7.75964e-12
-1.87237e-11
8.17623e-12
-4.7926e-13
4.98857e-13
-3.6826e-15
2.00168e-14
-2.0748e-18
8.79942e-17
-4.99431e-21
4.45892e-20
-6.92169e-21
9.99501e-22
-1.83207e-23
9.33239e-22
-2.09198e-25
1.57838e-24
1.82315e-26
-5.8054e-27
1.12576e-26
3.60114e-27
7.08572e-25
2.70521e-25
1.95214e-23
9.35317e-24
2.9777e-22
1.93849e-22
2.48898e-21
2.60206e-21
6.39329e-21
2.2746e-20
-9.22468e-20
1.22413e-19
-8.28894e-19
3.3557e-19
-1.47414e-17
9.97167e-20
-4.24947e-16
-1.16883e-18
-8.63602e-15
-2.17167e-17
-1.16689e-13
-6.7766e-16
-9.74732e-13
-4.66212e-15
-8.70619e-12
-2.66594e-14
-5.22551e-13
1.75153e-14
-1.93764e-14
4.65114e-15
-6.68482e-17
9.84374e-17
-4.30162e-20
1.09687e-17
-4.77875e-22
9.68222e-22
-4.23758e-22
4.5788e-23
-1.18763e-24
3.74781e-23
-1.40802e-26
7.06841e-26
8.6898e-28
-3.58561e-28
1.43782e-26
7.34557e-30
1.00435e-24
1.81291e-28
3.17115e-23
1.00565e-27
5.80063e-22
-6.63797e-27
6.53363e-21
-3.24258e-25
4.39201e-20
-1.23137e-23
1.48053e-19
-3.75392e-22
5.40085e-20
-9.33874e-21
-1.01256e-18
-1.89946e-19
-2.66705e-18
-1.82669e-18
-1.68026e-17
-2.66441e-17
-3.16266e-16
-4.04525e-16
-2.79163e-15
-2.22094e-15
-2.63337e-14
-3.07968e-15
-5.05821e-15
-7.65929e-16
-9.70975e-17
7.29915e-18
5.14052e-19
8.2583e-19
-1.35226e-21
-1.93466e-19
-3.3945e-23
4.26957e-23
-2.07492e-23
2.34821e-24
-6.09035e-26
1.30125e-24
-7.53755e-28
2.57365e-27
3.4271e-29
-1.90211e-29
1.02656e-29
-1.22693e-34
1.14933e-28
-2.54779e-32
-1.15928e-27
-2.60327e-30
-7.47193e-27
-3.25322e-28
-3.1557e-25
-1.61601e-26
-1.20025e-23
-6.26817e-25
-3.68773e-22
-1.92577e-23
-9.71453e-21
-4.3628e-22
-2.11691e-19
-8.15297e-21
-3.15728e-18
-9.9673e-20
-7.67058e-17
-1.85542e-18
-1.95488e-15
-2.86325e-17
-1.09411e-14
-1.32272e-16
-1.09923e-14
-7.49157e-17
-1.14286e-16
-4.6648e-17
-4.04204e-18
1.68238e-19
2.20191e-19
1.25229e-19
-5.52252e-23
-6.56324e-20
-2.62546e-24
1.55136e-24
-9.94396e-25
1.09141e-25
-2.4822e-27
3.86331e-26
-3.40416e-29
8.82066e-29
1.22292e-30
-8.85183e-31
-1.21642e-34
-1.05071e-36
-2.53734e-32
-2.26194e-34
-2.60476e-30
-2.3883e-32
-3.27633e-28
-1.63866e-30
-1.64702e-26
-8.42714e-29
-6.42492e-25
-3.39462e-27
-1.98736e-23
-1.0894e-25
-4.55727e-22
-2.60721e-24
-8.60602e-21
-5.1853e-23
-1.10903e-19
-6.86759e-22
-3.92364e-18
-1.39336e-20
-7.41885e-17
-2.44158e-19
-2.57526e-16
-1.3031e-18
-2.55351e-16
-1.72191e-18
-3.60756e-18
-7.43371e-19
-8.38799e-19
-3.78014e-22
1.42584e-20
2.57125e-20
-2.81312e-24
-3.32443e-21
-1.48035e-25
1.22577e-25
-3.72619e-26
3.7519e-27
-8.66888e-29
1.13658e-27
-1.39185e-30
2.61908e-30
4.1652e-32
-3.66853e-32
-1.05071e-36
-1.58444e-40
-2.27243e-34
-3.5758e-38
-2.411e-32
-3.9551e-36
-1.66274e-30
-2.84449e-34
-8.59323e-29
-1.53364e-32
-3.47905e-27
-6.52328e-31
-1.12353e-25
-2.22492e-29
-2.71715e-24
-5.72259e-28
-5.45018e-23
-1.23152e-26
-7.51056e-22
-1.77343e-25
-2.96778e-20
-3.36541e-24
-6.5847e-19
-6.34148e-23
-2.48075e-18
-9.70122e-22
-2.49009e-18
-5.33204e-21
-5.95462e-20
-6.88806e-21
-5.67247e-20
-1.68331e-21
3.78742e-22
5.01148e-22
-2.05171e-25
-6.68654e-23
-5.95596e-27
7.29485e-27
-1.10759e-27
1.03566e-28
-2.6425e-30
2.70748e-29
-5.24923e-32
5.32523e-32
1.35123e-33
-1.37591e-33
-1.58452e-40
-1.33453e-43
-3.59167e-38
-3.19443e-41
-3.99078e-36
-3.75812e-39
-2.88405e-34
-2.82648e-37
-1.54601e-32
-1.63911e-35
-6.59913e-31
-7.67071e-34
-2.25892e-29
-2.88307e-32
-5.8476e-28
-8.25061e-31
-1.26909e-26
-1.98861e-29
-1.89512e-25
-3.37446e-28
-4.16402e-24
-6.99896e-27
-1.44038e-22
-1.41649e-25
-3.42122e-21
-2.71729e-24
-1.66294e-20
-2.34206e-23
-1.67007e-20
-4.50894e-23
-5.50696e-22
-2.21361e-23
1.60798e-24
3.17418e-26
-9.98423e-27
-2.02034e-25
-2.17336e-28
1.73257e-28
-2.65307e-29
2.95983e-30
-7.02856e-32
5.22619e-31
-1.83341e-33
1.13025e-33
4.13872e-35
-4.76514e-35
-1.33458e-43
-4.15378e-47
-3.19932e-41
-1.1013e-44
-3.77065e-39
-1.43933e-42
-2.48364e-37
-8.21658e-41
-1.46834e-35
-5.11453e-39
-6.95121e-34
-2.51979e-37
-2.64042e-32
-1.01369e-35
-7.7989e-31
-3.33902e-34
-1.94663e-29
-9.40783e-33
-3.57114e-28
-2.10834e-31
-8.0421e-27
-4.8207e-30
-2.82282e-25
-1.09131e-28
-1.03733e-23
-2.47033e-27
-7.95454e-23
-2.84665e-26
-9.77947e-23
-7.30887e-26
-4.33628e-25
-4.90976e-26
-1.05512e-25
-5.86594e-28
-5.57587e-28
5.12514e-27
-7.5685e-30
3.46214e-30
-5.15901e-31
8.04612e-32
-1.77362e-33
7.94152e-33
-6.06333e-35
2.79414e-35
1.18731e-36
-1.55401e-36
-3.54247e-47
-7.92872e-52
-9.50333e-45
-2.21498e-49
-1.25651e-42
-3.05489e-47
-8.34244e-41
-2.77452e-45
-5.19809e-39
-1.88375e-43
-2.57185e-37
-1.01538e-41
-1.03943e-35
-4.48633e-40
-3.44308e-34
-1.63184e-38
-9.75255e-33
-5.10294e-37
-2.206e-31
-1.28239e-35
-5.2657e-30
-3.25914e-34
-1.96363e-28
-7.92147e-33
-9.25092e-27
-1.69055e-31
-9.71089e-26
-3.69914e-30
-1.48355e-25
-5.36467e-29
-1.62108e-26
-1.69861e-28
-2.20965e-27
-9.21774e-29
-1.55725e-29
9.22982e-31
-2.31034e-31
6.16167e-32
-8.12011e-33
1.73654e-33
-4.55085e-35
4.88324e-35
-1.85533e-36
7.05411e-37
3.17994e-38
-4.8265e-38
-7.9311e-52
-2.34093e-55
-2.22359e-49
-7.19878e-53
-3.07809e-47
-1.09185e-50
-2.80622e-45
-1.09224e-48
-1.91247e-43
-8.18058e-47
-1.03488e-41
-4.87581e-45
-4.59152e-40
-2.39015e-43
-1.67847e-38
-9.69033e-42
-5.27346e-37
-3.39182e-40
-1.33618e-35
-9.62871e-39
-3.40401e-34
-2.7669e-37
-9.57296e-33
-7.51289e-36
-3.08772e-31
-1.87817e-34
-1.67163e-29
-4.83303e-33
-2.78205e-28
-9.35398e-32
-5.49647e-28
-4.02505e-31
-4.43447e-30
-3.23556e-31
-3.30739e-31
-3.56416e-35
-5.40566e-33
7.54412e-34
-1.1028e-34
2.45508e-35
-1.26619e-36
5.84376e-37
-5.23414e-38
1.84559e-38
7.82122e-40
-1.42644e-39
-2.34094e-55
-8.65538e-61
-7.22223e-53
-2.9719e-58
-1.09908e-50
-5.01915e-56
-1.10324e-48
-5.59564e-54
-8.29091e-47
-4.67331e-52
-4.95544e-45
-3.1122e-50
-2.43752e-43
-1.71098e-48
-9.92111e-42
-7.80871e-47
-3.48464e-40
-3.08824e-45
-9.96255e-39
-1.00049e-43
-2.8682e-37
-3.27557e-42
-8.50939e-36
-9.99421e-41
-3.0305e-34
-2.90978e-39
-2.02254e-32
-7.32829e-38
-4.76192e-31
-1.88006e-36
-1.15916e-30
-4.25397e-35
-2.24853e-33
-2.23774e-34
-2.89209e-33
-9.66642e-35
-7.92294e-35
4.57861e-36
-1.66792e-36
1.9211e-37
-3.49972e-38
1.48484e-38
-1.33281e-39
4.2805e-40
1.74741e-41
-3.96902e-41
-8.65803e-61
-2.0192e-64
-2.98152e-58
-7.8442e-62
-5.05044e-56
-1.49512e-59
-5.64735e-54
-1.87493e-57
-4.69353e-52
-1.75014e-55
-3.13317e-50
-1.323e-53
-1.72598e-48
-8.2591e-52
-7.89539e-47
-4.29454e-50
-3.1349e-45
-1.94894e-48
-1.02913e-43
-7.40309e-47
-3.38865e-42
-2.80917e-45
-1.0648e-40
-9.80597e-44
-3.60055e-39
-3.2695e-42
-1.24356e-37
-9.94084e-41
-8.54759e-36
-3.01977e-39
-3.10223e-34
-9.27615e-38
-1.08931e-33
-7.15174e-37
-3.63923e-35
-7.03376e-37
-7.31297e-37
3.2777e-39
-3.13155e-38
1.00237e-39
-8.46768e-40
1.77335e-40
-3.08833e-41
8.24619e-42
3.68555e-43
-1.02386e-42
-2.0194e-64
-1.37912e-68
-7.84895e-62
-6.16733e-66
-1.49695e-59
-1.3501e-63
-1.7764e-57
-1.71305e-61
-1.68143e-55
-1.8541e-59
-1.27974e-53
-1.60383e-57
-8.03967e-52
-1.15249e-55
-4.23028e-50
-7.03686e-54
-1.94594e-48
-3.76569e-52
-7.59694e-47
-1.75061e-50
-2.88798e-45
-7.72191e-49
-1.01131e-43
-3.14247e-47
-3.68915e-42
-1.18953e-45
-1.45392e-40
-4.39577e-44
-1.17655e-38
-1.59864e-42
-6.59801e-37
-6.35743e-41
-3.07001e-36
-6.75004e-40
-3.25326e-38
-9.07585e-40
-4.72088e-39
-7.2485e-43
-4.34886e-40
5.07432e-42
-1.56345e-41
1.54899e-42
-6.69852e-43
1.1881e-43
7.50907e-45
-2.43789e-44
-1.29106e-68
-5.87772e-75
-5.79543e-66
-3.04799e-72
-1.27724e-63
-7.74623e-70
-1.72582e-61
-1.30234e-67
-1.87136e-59
-1.6412e-65
-1.62255e-57
-1.6547e-63
-1.16872e-55
-1.38804e-61
-7.15374e-54
-9.91359e-60
-3.83723e-52
-6.21884e-58
-1.78897e-50
-3.39958e-56
-7.90081e-49
-1.76532e-54
-3.22151e-47
-8.48801e-53
-1.21284e-45
-3.80583e-51
-5.59698e-44
-1.62167e-49
-5.27361e-42
-6.60359e-48
-4.28627e-40
-2.54731e-46
-2.61402e-39
-1.15905e-44
-1.61085e-41
-1.67123e-43
-2.19084e-41
-1.6695e-43
-4.24611e-42
2.25438e-44
-2.37943e-43
1.10694e-44
-1.33433e-44
1.54892e-45
1.41323e-46
-5.45906e-46
-5.87881e-75
-5.06992e-79
-3.05451e-72
-3.12387e-76
-7.77864e-70
-9.43814e-74
-1.31049e-67
-1.88652e-71
-1.65484e-65
-2.82806e-69
-1.67189e-63
-3.39509e-67
-1.40537e-61
-3.39561e-65
-1.00594e-59
-2.89653e-63
-6.32353e-58
-2.17382e-61
-3.46074e-56
-1.42417e-59
-1.8038e-54
-8.91067e-58
-8.69002e-53
-5.16303e-56
-3.90598e-51
-2.79643e-54
-1.72212e-49
-1.42727e-52
-8.66261e-48
-6.99638e-51
-7.86694e-46
-3.37706e-49
-1.08916e-43
-1.99535e-47
-1.14251e-42
-4.24374e-46
-1.12337e-43
-7.10435e-46
-3.33099e-44
2.10214e-47
-3.12703e-45
8.95024e-47
-2.37026e-46
1.85035e-47
2.42377e-48
-1.17898e-47
-5.07003e-79
-5.0474e-84
-3.12902e-76
-3.80213e-81
-9.4697e-74
-1.40652e-78
-1.89605e-71
-3.44391e-76
-2.84713e-69
-6.32789e-74
-3.42236e-67
-9.31745e-72
-3.42819e-65
-1.14506e-69
-2.92883e-63
-1.20189e-67
-2.20104e-61
-1.11169e-65
-1.44449e-59
-9.00991e-64
-9.05843e-58
-6.98165e-62
-5.25558e-56
-5.01468e-60
-2.85025e-54
-3.37406e-58
-1.45666e-52
-2.144e-56
-7.73965e-51