/*--------------------------------*- C++ -*----------------------------------*\
| =========                 |                                                 |
| \\      /  F ield         | OpenFOAM: The Open Source CFD Toolbox           |
|  \\    /   O peration     | Version:  2012                                  |
|   \\  /    A nd           | Website:  www.openfoam.com                      |
|    \\/     M anipulation  |                                                 |
\*---------------------------------------------------------------------------*/
FoamFile
{
    version     2.0;
    format      ascii;
    class       volScalarField;
    location    "0.1";
    object      p;
}
// * * * * * * * * * * * * * * * * * * * * * * * * * * * * * * * * * * * * * //

dimensions      [1 -1 -2 0 0 0 0];


internalField   nonuniform List<scalar> 
2268
(
1956.4
1951.88
1936.4
1911.74
1878.75
1836.74
1784.85
1722.19
1647.68
1560.29
1457.99
1339.24
1203.57
1048.27
867.366
660.946
449.672
269.534
150.149
102.391
77.7207
76.6013
86.4655
1897.69
1893.16
1877.63
1852.98
1819.98
1777.93
1725.99
1663.24
1588.6
1501.01
1398.39
1279.09
1142.56
986.155
804.026
595.996
382.428
200.187
78.7961
34.7575
43.1701
65.9203
84.8067
1839.14
1834.58
1818.97
1794.32
1761.32
1719.2
1667.16
1604.25
1529.34
1441.35
1338.1
1217.72
1079.58
921.038
736.13
523.631
303.373
121.223
28.7438
11.0243
18.5908
45.5358
74.9734
1780.77
1776.14
1760.45
1735.8
1702.77
1660.57
1608.38
1545.22
1469.94
1381.39
1277.17
1155.24
1014.94
853.3
662.932
439.712
208.435
52.1964
8.42423
5.52755
7.93183
21.2311
53.0987
1722.61
1717.9
1702.1
1677.46
1644.39
1602.08
1549.72
1486.27
1410.53
1321.27
1215.85
1091.96
948.935
783.125
583.706
342.502
110.621
14.7462
3.42231
3.41108
4.75469
8.51627
27.1753
1664.69
1659.87
1643.98
1619.33
1586.23
1543.81
1491.26
1427.49
1351.25
1261.18
1154.39
1028.32
882.246
711.183
497.544
233.661
39.9927
5.07215
2.2591
2.56806
3.24538
4.28772
10.1212
1607
1602.03
1586.05
1561.41
1528.28
1485.75
1433
1368.87
1292.09
1201.14
1092.79
964.422
815.56
638.45
404.942
128.738
13.5014
2.72701
1.84035
2.10101
2.42968
2.41451
3.33272
1549.58
1544.36
1528.31
1503.69
1470.52
1427.87
1374.91
1310.4
1233.04
1141.12
1031.02
900.237
748.94
564.22
308.053
53.2603
5.1372
1.59776
1.56714
1.78814
1.92832
1.62142
1.50513
0.613264
0.647059
0.670021
0.688835
0.70222
0.710233
0.713712
0.713694
0.711195
0.707102
0.702093
0.696707
0.691362
0.686348
0.681921
0.678209
0.675372
0.673428
0.672487
0.550323
0.587349
0.611253
0.630688
0.644231
0.65215
0.655429
0.655237
0.652595
0.648383
0.643282
0.637823
0.632425
0.62737
0.622914
0.61918
0.616332
0.614376
0.613434
0.483182
0.526568
0.552626
0.573354
0.587174
0.594909
0.597838
0.597255
0.594273
0.589791
0.584483
0.578868
0.573357
0.568219
0.563707
0.559931
0.557058
0.555086
0.554134
0.411824
0.463906
0.494274
0.516999
0.53113
0.538515
0.540864
0.539685
0.536191
0.531302
0.525685
0.519839
0.51416
0.508902
0.504304
0.500469
0.497556
0.495562
0.494596
0.335694
0.398489
0.436583
0.461823
0.476193
0.482992
0.484506
0.482502
0.478323
0.472895
0.466871
0.460725
0.454827
0.449412
0.444703
0.440792
0.437827
0.435805
0.43482
0.252601
0.333177
0.380556
0.408087
0.422462
0.428362
0.428738
0.425672
0.420633
0.41454
0.408019
0.401507
0.395345
0.389742
0.384898
0.380897
0.377868
0.375812
0.374806
0.160331
0.268328
0.326457
0.356064
0.37003
0.374626
0.373524
0.369146
0.363075
0.356199
0.349099
0.342166
0.335698
0.32988
0.324882
0.320777
0.317675
0.315579
0.314549
0.0526733
0.198286
0.273011
0.30595
0.31903
0.321769
0.318797
0.312853
0.30559
0.297828
0.290078
0.282676
0.275871
0.269814
0.264645
0.260427
0.257243
0.255103
0.254047
1460.4
1454.7
1438.64
1414.05
1380.84
1338.05
1284.79
1219.75
1141.52
1048.11
935.379
801.281
646.035
443.385
165.043
13.7529
1.8965
0.960661
1.207
1.36712
1.36725
1.03473
0.167798
1341.05
1334.86
1318.79
1294.37
1261.27
1218.51
1165.15
1099.76
1020.87
926.123
810.825
674.538
515.137
287.985
39.0642
2.98363
0.650143
0.634999
0.856992
0.947602
0.939804
0.806499
0.677208
1224.07
1217.43
1201.45
1177.37
1144.6
1102.17
1049.13
983.97
905.253
810.217
694.113
558.76
394.583
155.278
7.73949
0.852898
0.224275
0.415811
0.568528
0.65525
0.70628
0.721764
0.951535
1109.98
1102.97
1087.25
1063.7
1031.57
989.904
937.772
873.635
796.187
702.336
587.975
456.891
288.542
60.1429
2.52877
0.263627
0.0600574
0.218849
0.3285
0.422713
0.501591
0.55662
0.715365
999.231
991.954
976.685
953.917
922.756
882.348
831.78
769.561
694.573
603.5
493.588
369.334
200.37
12.6893
0.307605
-0.195162
-0.0706117
0.0228995
0.116144
0.200499
0.26937
0.317212
0.379153
892.193
884.783
870.176
848.43
818.62
779.982
731.662
672.266
600.896
514.118
410.908
294.59
131.048
2.64856
-0.209979
-0.461887
-0.226848
-0.168413
-0.0869444
-0.0198073
0.0337404
0.0731177
0.103588
789.136
781.726
767.985
747.513
719.428
683.066
637.652
581.927
515.208
434.04
339.139
230.994
78.6075
1.12862
-0.30119
-0.557207
-0.405598
-0.347922
-0.284325
-0.232585
-0.189305
-0.156654
-0.136944
690.245
682.978
670.292
651.336
625.329
591.714
549.805
498.508
437.321
362.879
277.463
178.102
41.4793
0.0581901
-0.666951
-0.629261
-0.599096
-0.522028
-0.478696
-0.439148
-0.404395
-0.379014
-0.366011
595.604
588.616
577.145
559.918
536.302
505.837
467.939
421.685
366.726
299.891
224.702
134.577
17.6744
-0.7016
-1.06309
-0.748627
-0.797014
-0.704514
-0.673362
-0.64212
-0.614751
-0.594939
-0.584712
504.875
498.275
488.137
472.809
451.827
424.82
391.304
350.534
302.281
243.681
179.189
98.9307
5.23979
-0.83897
-1.16697
-0.910502
-0.957675
-0.892295
-0.866012
-0.841671
-0.820443
-0.804262
-0.794782
417.681
411.594
402.901
389.615
371.471
348.183
319.362
284.427
243.239
193.311
139.651
69.4189
0.319192
-1.00721
-1.13872
-1.07447
-1.08546
-1.06629
-1.05387
-1.03836
-1.02263
-1.00893
-0.99935
334.968
329.515
322.38
311.254
296.112
276.754
252.874
224.029
190.128
149.104
105.839
45.0671
-0.718392
-1.17458
-1.19764
-1.21719
-1.22943
-1.24177
-1.24328
-1.23558
-1.2238
-1.21117
-1.20047
256.043
251.114
245.508
236.487
224.265
208.715
189.605
166.609
139.651
107.135
73.2494
23.3487
-1.21332
-1.30403
-1.24496
-1.35316
-1.38914
-1.42761
-1.44048
-1.43741
-1.42663
-1.41284
-1.39958
175.159
170.609
166.466
159.48
150.109
138.297
123.957
106.928
87.183
63.5734
39.0655
5.14492
-1.37731
-1.10776
-1.23539
-1.48112
-1.57793
-1.6339
-1.65182
-1.64771
-1.63343
-1.61539
-1.59767
98.0844
94.3851
92.0644
87.6544
81.9046
74.8746
66.7367
57.5124
47.575
36.4831
24.811
5.62261
-4.32772
-1.08902
-1.27826
-1.67894
-1.82851
-1.8765
-1.88467
-1.86966
-1.84552
-1.81942
-1.79509
43.5016
41.5285
40.9979
39.4248
37.5559
35.461
33.3357
31.1911
29.6103
28.9407
28.8804
12.4244
2.03379
-1.97954
-1.69122
-2.12861
-2.20162
-2.17342
-2.14479
-2.104
-2.06236
-2.02419
-1.99124
7.6207
7.05269
6.49827
5.60276
4.44949
3.1082
1.65013
0.126872
-1.37827
-3.30819
-4.0526
-4.68226
-4.55271
-4.09062
-3.12191
-3.00083
-2.71001
-2.52562
-2.42828
-2.34533
-2.28004
-2.22749
-2.18496
-3.75428
-3.75587
-3.767
-3.78328
-3.80833
-3.84508
-3.89925
-3.97897
-4.09354
-4.22317
-4.4681
-4.8554
-5.19231
-5.6778
-5.71846
-3.9857
-3.23586
-2.89166
-2.70597
-2.58001
-2.49146
-2.42498
-2.37352
-3.83654
-3.84003
-3.8496
-3.86442
-3.88638
-3.91731
-3.96124
-4.02254
-4.10518
-4.22079
-4.45498
-4.85823
-5.29291
-5.88042
-5.76861
-4.30929
-3.59081
-3.17825
-2.94388
-2.79217
-2.68834
-2.61228
-2.55452
-3.89605
-3.8993
-3.90708
-3.91876
-3.93553
-3.95875
-3.99014
-4.03139
-4.08604
-4.16695
-4.33165
-4.67217
-5.12275
-5.39031
-5.01181
-4.20064
-3.69404
-3.33831
-3.11982
-2.9704
-2.86469
-2.7862
-2.72615
-3.95396
-3.95654
-3.96183
-3.96995
-3.98117
-3.99603
-4.01501
-4.03919
-4.06896
-4.10715
-4.18565
-4.36541
-4.60832
-4.69226
-4.44409
-3.98023
-3.65242
-3.41027
-3.24328
-3.11643
-3.02056
-2.94636
-2.88798
-4.01476
-4.01643
-4.01926
-4.02369
-4.02957
-4.03678
-4.04523
-4.05511
-4.06464
-4.07212
-4.09125
-4.14671
-4.21471
-4.1839
-4.009
-3.78572
-3.61213
-3.46259
-3.34271
-3.24263
-3.16138
-3.09515
-3.04109
-4.07467
-4.07511
-4.07589
-4.07705
-4.07832
-4.07926
-4.07944
-4.07822
-4.07348
-4.06396
-4.05609
-4.05554
-4.04262
-3.977
-3.8586
-3.73656
-3.63198
-3.53035
-3.44073
-3.36166
-3.29386
-3.23615
-3.18741
-4.13607
-4.13543
-4.13456
-4.13307
-4.13063
-4.12682
-4.12106
-4.11234
-4.09908
-4.0807
-4.05963
-4.03599
-3.99997
-3.94057
-3.86278
-3.77698
-3.69513
-3.61611
-3.5445
-3.47982
-3.42252
-3.37234
-3.32886
-4.19974
-4.19858
-4.19643
-4.19296
-4.18781
-4.18062
-4.1708
-4.1574
-4.13933
-4.11647
-4.08951
-4.05713
-4.01511
-3.96194
-3.9019
-3.83876
-3.77458
-3.71158
-3.65269
-3.59845
-3.54938
-3.50556
-3.46685
-4.26627
-4.26487
-4.26177
-4.25688
-4.24994
-4.24055
-4.22826
-4.21232
-4.19208
-4.16744
-4.13856
-4.10476
-4.06459
-4.01807
-3.96768
-3.91581
-3.86372
-3.8124
-3.76338
-3.71744
-3.67513
-3.63675
-3.60231
-4.33661
-4.33493
-4.33117
-4.3254
-4.31739
-4.3068
-4.29323
-4.27623
-4.25541
-4.2307
-4.2021
-4.16937
-4.13238
-4.09171
-4.04873
-4.00486
-3.96089
-3.91773
-3.87619
-3.83686
-3.80019
-3.7665
-3.73588
-4.41073
-4.40875
-4.40463
-4.3984
-4.3899
-4.37879
-4.3648
-4.34765
-4.32715
-4.30328
-4.27609
-4.24565
-4.21219
-4.17635
-4.13908
-4.10129
-4.06361
-4.02663
-3.9909
-3.95687
-3.92489
-3.89524
-3.868
-4.48824
-4.48609
-4.48187
-4.47554
-4.46694
-4.4558
-4.44195
-4.42525
-4.40562
-4.3831
-4.35782
-4.32999
-4.29998
-4.26833
-4.23574
-4.20284
-4.17016
-4.13813
-4.10711
-4.07745
-4.04942
-4.02325
-3.99902
-4.56886
-4.56671
-4.56258
-4.55639
-4.54795
-4.53711
-4.52377
-4.50787
-4.48942
-4.46853
-4.44538
-4.42021
-4.3934
-4.36543
-4.33681
-4.30802
-4.27949
-4.25154
-4.22446
-4.19849
-4.17384
-4.15071
-4.12917
-4.65252
-4.6505
-4.64658
-4.64063
-4.63253
-4.62219
-4.60957
-4.59469
-4.57761
-4.55848
-4.53748
-4.51488
-4.49103
-4.46631
-4.44113
-4.41587
-4.39087
-4.3664
-4.34267
-4.31988
-4.29819
-4.27775
-4.25862
-4.73919
-4.73737
-4.73367
-4.72802
-4.72035
-4.71063
-4.69887
-4.68512
-4.66948
-4.65212
-4.63322
-4.61304
-4.59188
-4.57006
-4.54791
-4.52574
-4.50381
-4.48236
-4.46155
-4.44155
-4.42247
-4.40444
-4.38751
-4.82868
-4.82705
-4.82359
-4.81826
-4.81108
-4.80205
-4.7912
-4.77863
-4.76445
-4.74881
-4.73191
-4.71397
-4.69526
-4.67604
-4.65659
-4.63714
-4.61794
-4.59915
-4.58094
-4.56342
-4.5467
-4.53086
-4.51595
-4.92067
-4.91918
-4.91596
-4.91099
-4.90434
-4.89603
-4.88614
-4.87475
-4.86198
-4.848
-4.83297
-4.81711
-4.80063
-4.78376
-4.76673
-4.74974
-4.73297
-4.71659
-4.70072
-4.68546
-4.67088
-4.65707
-4.64404
-5.01472
-5.01336
-5.01037
-5.0058
-4.99971
-4.99216
-4.98322
-4.973
-4.96161
-4.9492
-4.93593
-4.92199
-4.90756
-4.89283
-4.87801
-4.86325
-4.84872
-4.83453
-4.82081
-4.80763
-4.79505
-4.78311
-4.77184
-5.11045
-5.10919
-5.10646
-5.10231
-5.09681
-5.09004
-5.08206
-5.07298
-5.06292
-5.05201
-5.0404
-5.02824
-5.01572
-5.00298
-4.99019
-4.9775
-4.96503
-4.95289
-4.94117
-4.92993
-4.91921
-4.90905
-4.89945
-5.2075
-5.20634
-5.20389
-5.20019
-5.19531
-5.18932
-5.1823
-5.17435
-5.16557
-5.1561
-5.14606
-5.1356
-5.12486
-5.11398
-5.1031
-5.09235
-5.08182
-5.0716
-5.06176
-5.05236
-5.04341
-5.03494
-5.02694
-5.30556
-5.30452
-5.30237
-5.29914
-5.2949
-5.28971
-5.28364
-5.2768
-5.26928
-5.2612
-5.25267
-5.24383
-5.23479
-5.22568
-5.21662
-5.2077
-5.19901
-5.19062
-5.18258
-5.17492
-5.16768
-5.16083
-5.15437
-5.40459
-5.40368
-5.40183
-5.39908
-5.39547
-5.39107
-5.38595
-5.38019
-5.37389
-5.36715
-5.36008
-5.35279
-5.34539
-5.33798
-5.33065
-5.32349
-5.31657
-5.30993
-5.30363
-5.29767
-5.29206
-5.28678
-5.28182
-5.50477
-5.50401
-5.50247
-5.50018
-5.49718
-5.49354
-5.48932
-5.48459
-5.47945
-5.47398
-5.4683
-5.46248
-5.45663
-5.45083
-5.44516
-5.43969
-5.43447
-5.42954
-5.42492
-5.4206
-5.41659
-5.41285
-5.40934
-5.60564
-5.60508
-5.60385
-5.60203
-5.59965
-5.59676
-5.59342
-5.58971
-5.5857
-5.58148
-5.57713
-5.57274
-5.56839
-5.56415
-5.56009
-5.55626
-5.5527
-5.54943
-5.54645
-5.54376
-5.54133
-5.5391
-5.53701
-5.70616
-5.70586
-5.70499
-5.70366
-5.70193
-5.69984
-5.69744
-5.6948
-5.69198
-5.68905
-5.68609
-5.68317
-5.68036
-5.67771
-5.67528
-5.67309
-5.67119
-5.66958
-5.66825
-5.66719
-5.66635
-5.66562
-5.66493
-1.8693
-1.28915
-1.10266
-0.842179
-0.278481
-0.713857
-0.749307
-0.560329
0.667884
0.369858
0.204436
0.158924
0.638882
0.529999
0.428823
0.344682
0.348549
0.30827
0.261235
0.210598
0.0909561
0.0719328
0.045293
0.0133797
-0.14401
-0.155481
-0.172423
-0.193282
-0.370096
-0.376727
-0.386929
-0.400122
-0.585898
-0.589268
-0.595216
-0.603457
-0.793751
-0.794946
-0.798017
-0.802786
-0.996362
-0.995761
-0.996524
-0.998561
-1.19532
-1.19297
-1.19166
-1.19136
-1.39178
-1.38757
-1.3842
-1.38171
-1.58655
-1.58019
-1.57465
-1.56995
-1.77987
-1.77102
-1.7631
-1.75612
-1.97128
-1.95967
-1.94923
-1.93991
-2.1598
-2.1453
-2.13231
-2.12071
-2.34369
-2.3266
-2.31134
-2.29771
-2.52127
-2.50224
-2.48525
-2.47006
-2.69128
-2.67124
-2.65329
-2.63716
-2.85337
-2.8333
-2.81518
-2.79877
-3.00815
-2.98883
-2.97122
-2.9551
-3.15691
-3.13882
-3.12213
-3.10672
-3.30102
-3.28435
-3.26881
-3.25432
-3.44163
-3.42639
-3.41208
-3.39862
-3.57956
-3.56571
-3.55261
-3.54021
-3.7154
-3.70287
-3.69093
-3.67957
-3.84961
-3.83829
-3.82746
-3.8171
-3.98252
-3.97234
-3.96254
-3.95313
-4.11441
-4.10525
-4.09642
-4.08793
-4.24545
-4.23726
-4.22933
-4.22169
-4.37581
-4.36851
-4.36144
-4.35462
-4.50561
-4.49916
-4.4929
-4.48685
-4.63498
-4.62932
-4.62383
-4.61852
-4.764
-4.7591
-4.75435
-4.74975
-4.89277
-4.8886
-4.88456
-4.88064
-5.02138
-5.01791
-5.01454
-5.01128
-5.14989
-5.14709
-5.14438
-5.14176
-5.27838
-5.27623
-5.27416
-5.27215
-5.40692
-5.40541
-5.40395
-5.40254
-5.53558
-5.53469
-5.53383
-5.533
-5.66446
-5.66417
-5.66389
-5.66362
-0.282642
0.0787264
0.198178
0.233382
0.242097
0.240446
0.233885
0.225109
0.215744
0.206451
0.197592
0.189395
0.182018
0.17556
0.170105
0.165694
0.162375
0.160158
0.159059
-0.171311
0.0810643
0.150762
0.156405
0.146452
0.133386
0.119492
0.105842
0.0930884
0.0814266
0.0708944
0.0615113
0.0532915
0.0462394
0.0403656
0.0356691
0.0321573
0.0298255
0.0286694
0.132217
0.13477
0.113576
0.0800792
0.0494854
0.0245445
0.00338221
-0.0150407
-0.0310691
-0.0450198
-0.0571651
-0.0676903
-0.0767199
-0.0843427
-0.0906167
-0.095587
-0.0992815
-0.101723
-0.102931
0.219918
0.113294
0.0428377
-0.0125372
-0.0559817
-0.0896617
-0.116641
-0.138946
-0.157666
-0.173522
-0.187021
-0.19851
-0.208225
-0.216332
-0.222944
-0.228146
-0.231993
-0.234526
-0.235777
0.120068
0.0123639
-0.0658474
-0.12626
-0.174185
-0.211987
-0.242223
-0.266933
-0.287423
-0.304578
-0.319024
-0.331196
-0.341399
-0.34985
-0.356702
-0.362065
-0.366018
-0.368613
-0.369893
-0.0474353
-0.131885
-0.201172
-0.258059
-0.304896
-0.342975
-0.373995
-0.399534
-0.420753
-0.438501
-0.453405
-0.465916
-0.476363
-0.484983
-0.491948
-0.497384
-0.501381
-0.504001
-0.505292
-0.234099
-0.296778
-0.353732
-0.403457
-0.446053
-0.481862
-0.511764
-0.53677
-0.557748
-0.575395
-0.590256
-0.602744
-0.61317
-0.621766
-0.628704
-0.634113
-0.638085
-0.640687
-0.641969
-0.427027
-0.472427
-0.517165
-0.558467
-0.595323
-0.627377
-0.654866
-0.678306
-0.698245
-0.715184
-0.729543
-0.741663
-0.751809
-0.760187
-0.766955
-0.772232
-0.776109
-0.778647
-0.779898
-0.620963
-0.653043
-0.686922
-0.719904
-0.750561
-0.778135
-0.802437
-0.823605
-0.84191
-0.857655
-0.871127
-0.882576
-0.892207
-0.900187
-0.906648
-0.911695
-0.915405
-0.917837
-0.919035
-0.813561
-0.835349
-0.860039
-0.885399
-0.909972
-0.932842
-0.953573
-0.972046
-0.988313
-1.00251
-1.01479
-1.02532
-1.03424
-1.04167
-1.0477
-1.05242
-1.05591
-1.05819
-1.05932
-1.00413
-1.01775
-1.03471
-1.05328
-1.07215
-1.09039
-1.10743
-1.123
-1.13699
-1.1494
-1.16028
-1.1697
-1.17775
-1.18449
-1.19
-1.19433
-1.19752
-1.19962
-1.20066
-1.1926
-1.19945
-1.20981
-1.22238
-1.23602
-1.24985
-1.26325
-1.27586
-1.28746
-1.29795
-1.30729
-1.31548
-1.32254
-1.32851
-1.33341
-1.33728
-1.34015
-1.34204
-1.34297
-1.37906
-1.38002
-1.38465
-1.39189
-1.40078
-1.41049
-1.4204
-1.4301
-1.4393
-1.44781
-1.45554
-1.46242
-1.46843
-1.47355
-1.47779
-1.48116
-1.48367
-1.48533
-1.48615
-1.56356
-1.5592
-1.55871
-1.56119
-1.56577
-1.57169
-1.57833
-1.58524
-1.59209
-1.59864
-1.60474
-1.61028
-1.6152
-1.61944
-1.62299
-1.62584
-1.62796
-1.62937
-1.63007
-1.74601
-1.73672
-1.7316
-1.7298
-1.7305
-1.73295
-1.73656
-1.74085
-1.74545
-1.7501
-1.75461
-1.75882
-1.76265
-1.76601
-1.76886
-1.77116
-1.7729
-1.77405
-1.77463
-1.92612
-1.91225
-1.90294
-1.89731
-1.89453
-1.89386
-1.8947
-1.89656
-1.89907
-1.90192
-1.9049
-1.90783
-1.91059
-1.91308
-1.91523
-1.917
-1.91835
-1.91925
-1.9197
-2.10343
-2.08539
-2.07235
-2.06333
-2.05751
-2.05405
-2.0524
-2.05206
-2.05264
-2.05382
-2.05537
-2.05709
-2.05883
-2.06049
-2.06197
-2.06322
-2.06418
-2.06484
-2.06516
-2.27738
-2.25573
-2.23948
-2.22752
-2.21913
-2.21322
-2.20938
-2.20709
-2.20593
-2.2056
-2.20583
-2.20642
-2.20722
-2.20809
-2.20894
-2.20969
-2.21029
-2.21071
-2.21092
-2.44737
-2.42288
-2.40406
-2.38973
-2.37903
-2.37111
-2.36538
-2.3614
-2.35873
-2.35704
-2.35609
-2.35567
-2.3556
-2.35575
-2.35601
-2.3563
-2.35656
-2.35676
-2.35686
-2.61297
-2.58653
-2.5658
-2.54964
-2.53715
-2.52756
-2.52027
-2.51484
-2.51086
-2.508
-2.50602
-2.50469
-2.50384
-2.50334
-2.50307
-2.50294
-2.5029
-2.50289
-2.50288
-2.77401
-2.74653
-2.72458
-2.70714
-2.69332
-2.68242
-2.67389
-2.66728
-2.6622
-2.65835
-2.65548
-2.65337
-2.65184
-2.65077
-2.65002
-2.64952
-2.6492
-2.64901
-2.6489
-2.93058
-2.90289
-2.88039
-2.86218
-2.84747
-2.83564
-2.82616
-2.81862
-2.81267
-2.808
-2.80439
-2.80161
-2.79951
-2.79794
-2.79679
-2.79596
-2.7954
-2.79505
-2.79485
-3.08305
-3.05583
-3.03332
-3.01481
-2.99961
-2.98716
-2.97703
-2.96881
-2.96219
-2.95688
-2.95267
-2.94936
-2.94677
-2.94479
-2.94329
-2.94218
-2.94141
-2.94094
-2.94065
-3.23189
-3.20563
-3.18356
-3.16513
-3.14978
-3.13703
-3.12649
-3.11782
-3.11072
-3.10494
-3.10028
-3.09654
-3.09358
-3.09126
-3.08947
-3.08814
-3.0872
-3.08661
-3.08626
-3.37762
-3.35264
-3.33134
-3.31331
-3.29809
-3.28529
-3.27458
-3.26565
-3.25826
-3.25216
-3.24718
-3.24313
-3.23988
-3.2373
-3.2353
-3.23379
-3.23271
-3.23202
-3.23164
-3.52073
-3.49722
-3.47692
-3.45952
-3.44466
-3.43203
-3.42135
-3.41235
-3.40482
-3.39854
-3.39336
-3.38911
-3.38565
-3.38289
-3.38073
-3.37908
-3.3779
-3.37714
-3.37674
-3.66163
-3.6397
-3.62055
-3.60396
-3.58964
-3.57736
-3.56687
-3.55795
-3.55042
-3.5441
-3.53882
-3.53446
-3.53089
-3.52802
-3.52575
-3.52401
-3.52276
-3.52195
-3.52153
-3.80067
-3.78037
-3.76246
-3.74681
-3.73318
-3.72138
-3.71122
-3.70252
-3.69512
-3.68885
-3.68359
-3.6792
-3.67559
-3.67266
-3.67034
-3.66855
-3.66726
-3.66642
-3.66599
-3.93816
-3.91949
-3.90289
-3.88826
-3.87542
-3.86422
-3.85451
-3.84614
-3.83896
-3.83284
-3.82767
-3.82335
-3.81976
-3.81684
-3.8145
-3.81271
-3.8114
-3.81055
-3.81012
-4.07435
-4.0573
-4.04203
-4.02847
-4.0165
-4.00599
-3.99682
-3.98886
-3.982
-3.97612
-3.97112
-3.96691
-3.96341
-3.96054
-3.95825
-3.95647
-3.95518
-3.95433
-3.95391
-4.20946
-4.194
-4.18006
-4.16762
-4.15657
-4.14681
-4.13825
-4.13078
-4.1243
-4.11872
-4.11396
-4.10994
-4.10657
-4.1038
-4.10158
-4.09986
-4.09859
-4.09777
-4.09737
-4.34367
-4.32975
-4.31715
-4.30585
-4.29575
-4.28679
-4.27889
-4.27197
-4.26593
-4.26072
-4.25625
-4.25245
-4.24926
-4.24664
-4.24452
-4.24287
-4.24167
-4.24088
-4.2405
-4.47713
-4.46472
-4.45344
-4.44328
-4.43416
-4.42604
-4.41884
-4.4125
-4.40696
-4.40216
-4.39802
-4.39449
-4.39152
-4.38907
-4.38709
-4.38554
-4.38441
-4.38366
-4.38331
-4.60998
-4.59904
-4.58906
-4.58003
-4.57191
-4.56464
-4.55818
-4.55247
-4.54746
-4.54309
-4.53933
-4.5361
-4.53339
-4.53113
-4.52931
-4.52788
-4.52684
-4.52615
-4.52583
-4.74234
-4.73283
-4.72413
-4.71623
-4.7091
-4.7027
-4.69699
-4.69193
-4.68748
-4.68359
-4.68022
-4.67733
-4.67489
-4.67286
-4.67121
-4.66993
-4.66898
-4.66836
-4.66808
-4.87433
-4.8662
-4.85875
-4.85197
-4.84583
-4.84031
-4.83537
-4.83098
-4.8271
-4.8237
-4.82076
-4.81822
-4.81608
-4.81429
-4.81284
-4.8117
-4.81087
-4.81032
-4.81007
-5.00602
-4.99924
-4.99302
-4.98734
-4.98219
-4.97754
-4.97338
-4.96966
-4.96638
-4.96349
-4.96098
-4.95882
-4.95699
-4.95546
-4.95421
-4.95324
-4.95252
-4.95205
-4.95184
-5.13753
-5.13206
-5.12703
-5.12243
-5.11826
-5.11448
-5.11109
-5.10806
-5.10538
-5.10301
-5.10095
-5.09918
-5.09767
-5.09641
-5.09538
-5.09457
-5.09398
-5.09359
-5.09342
-5.26891
-5.26472
-5.26086
-5.25733
-5.25412
-5.25121
-5.24859
-5.24624
-5.24416
-5.24232
-5.24072
-5.23934
-5.23816
-5.23717
-5.23637
-5.23574
-5.23527
-5.23497
-5.23484
-5.40027
-5.39732
-5.3946
-5.39211
-5.38984
-5.38778
-5.38593
-5.38426
-5.38278
-5.38148
-5.38033
-5.37935
-5.3785
-5.3778
-5.37722
-5.37677
-5.37644
-5.37622
-5.37614
-5.53166
-5.52992
-5.52831
-5.52684
-5.52549
-5.52427
-5.52317
-5.52218
-5.5213
-5.52052
-5.51984
-5.51925
-5.51875
-5.51833
-5.51798
-5.51771
-5.51751
-5.51738
-5.51734
-5.66318
-5.66261
-5.66209
-5.66161
-5.66117
-5.66077
-5.66041
-5.66008
-5.65979
-5.65954
-5.65931
-5.65912
-5.65895
-5.65881
-5.6587
-5.65861
-5.65854
-5.65849
-5.65849
)
;

boundaryField
{
    leftWall
    {
        type            calculated;
        value           nonuniform List<scalar> 
50
(
1956.4
1897.69
1839.14
1780.77
1722.61
1664.69
1607
1549.58
1460.4
1341.05
1224.07
1109.98
999.231
892.193
789.136
690.245
595.604
504.875
417.681
334.968
256.043
175.159
98.0844
43.5016
7.6207
-3.75428
-3.83654
-3.89605
-3.95396
-4.01476
-4.07467
-4.13607
-4.19974
-4.26627
-4.33661
-4.41073
-4.48824
-4.56886
-4.65252
-4.73919
-4.82868
-4.92067
-5.01472
-5.11045
-5.2075
-5.30556
-5.40459
-5.50477
-5.60564
-5.70616
)
;
    }
    rightWall
    {
        type            calculated;
        value           nonuniform List<scalar> 
50
(
0.672487
0.613434
0.554134
0.494596
0.43482
0.374806
0.314549
0.254047
0.159059
0.0286694
-0.102931
-0.235777
-0.369893
-0.505292
-0.641969
-0.779898
-0.919035
-1.05932
-1.20066
-1.34297
-1.48615
-1.63007
-1.77463
-1.9197
-2.06516
-2.21092
-2.35686
-2.50288
-2.6489
-2.79485
-2.94065
-3.08626
-3.23164
-3.37674
-3.52153
-3.66599
-3.81012
-3.95391
-4.09737
-4.2405
-4.38331
-4.52583
-4.66808
-4.81007
-4.95184
-5.09342
-5.23484
-5.37614
-5.51734
-5.65849
)
;
    }
    lowerWall
    {
        type            calculated;
        value           nonuniform List<scalar> 
62
(
1985.83
1981.31
1965.83
1941.17
1908.18
1866.17
1814.28
1751.62
1677.11
1589.72
1487.42
1368.67
1233
1077.7
896.795
690.367
478.988
298.852
179.452
127.419
83.0296
76.9259
86.7901
86.4655
84.8067
74.9734
53.0987
27.1753
10.1212
3.33272
1.50513
-1.78936
-1.22562
-1.04005
-0.779567
0.613264
0.550323
0.483182
0.411824
0.335694
0.252601
0.160331
0.0526733
0.642693
0.676488
0.69945
0.718265
0.73165
0.739663
0.743141
0.743123
0.740624
0.736531
0.731522
0.726136
0.720791
0.715778
0.71135
0.707638
0.704801
0.702857
0.701916
)
;
    }
    atmosphere
    {
        type            calculated;
        value           nonuniform List<scalar> 
46
(
-5.75563
-5.7556
-5.7549
-5.75385
-5.75248
-5.75084
-5.74898
-5.74694
-5.74479
-5.74258
-5.74039
-5.73827
-5.73629
-5.73449
-5.73291
-5.73159
-5.73054
-5.72978
-5.72929
-5.72906
-5.72904
-5.72904
-5.72904
-5.72904
-5.72904
-5.72904
-5.72904
-5.72904
-5.72904
-5.72904
-5.72904
-5.72904
-5.72904
-5.72904
-5.72904
-5.72904
-5.72904
-5.72904
-5.72904
-5.72904
-5.72904
-5.72904
-5.72904
-5.72904
-5.72904
-5.72904
)
;
    }
    defaultFaces
    {
        type            empty;
    }
}


// ************************************************************************* //
