/*--------------------------------*- C++ -*----------------------------------*\
| =========                 |                                                 |
| \\      /  F ield         | OpenFOAM: The Open Source CFD Toolbox           |
|  \\    /   O peration     | Version:  2012                                  |
|   \\  /    A nd           | Website:  www.openfoam.com                      |
|    \\/     M anipulation  |                                                 |
\*---------------------------------------------------------------------------*/
FoamFile
{
    version     2.0;
    format      ascii;
    class       volVectorField;
    location    "0.1";
    object      U;
}
// * * * * * * * * * * * * * * * * * * * * * * * * * * * * * * * * * * * * * //

dimensions      [0 1 -1 0 0 0 0];


internalField   nonuniform List<vector> 
2268
(
(0.0268308 -0.012826 0)
(0.0869431 -0.015714 0)
(0.152219 -0.0151755 0)
(0.216696 -0.015183 0)
(0.281785 -0.0157045 0)
(0.349489 -0.0164554 0)
(0.420987 -0.0173975 0)
(0.49631 -0.0185053 0)
(0.577803 -0.0199294 0)
(0.664361 -0.0215056 0)
(0.758515 -0.0233187 0)
(0.861905 -0.0254245 0)
(0.973661 -0.0285957 0)
(1.09793 -0.0326802 0)
(1.23711 -0.0339695 0)
(1.37561 -0.0274778 0)
(1.48232 -0.0162652 0)
(1.54327 -0.0115548 0)
(1.58883 -0.0137068 0)
(1.62293 0.00267854 0)
(1.54286 0.0606427 0)
(1.09467 0.173077 0)
(0.349057 0.126247 0)
(0.026828 -0.0384278 0)
(0.0870016 -0.0469757 0)
(0.152288 -0.045435 0)
(0.216693 -0.0454829 0)
(0.281731 -0.0470386 0)
(0.349365 -0.0492832 0)
(0.420773 -0.0520835 0)
(0.49592 -0.0554094 0)
(0.57733 -0.0596113 0)
(0.663538 -0.0642899 0)
(0.757378 -0.0699635 0)
(0.86133 -0.0765113 0)
(0.973035 -0.0851217 0)
(1.09428 -0.0957202 0)
(1.2301 -0.0999532 0)
(1.37461 -0.0862612 0)
(1.51027 -0.0591239 0)
(1.61946 -0.0429715 0)
(1.69231 -0.0534052 0)
(1.76961 -0.0298821 0)
(1.86092 0.140103 0)
(1.59871 0.49299 0)
(0.895436 0.609335 0)
(0.0267284 -0.0641366 0)
(0.0866993 -0.078152 0)
(0.151672 -0.0756626 0)
(0.215673 -0.0757638 0)
(0.280353 -0.0783292 0)
(0.34761 -0.0820502 0)
(0.418598 -0.0866829 0)
(0.493222 -0.0922341 0)
(0.574137 -0.0991323 0)
(0.659637 -0.106918 0)
(0.752867 -0.116614 0)
(0.856644 -0.127386 0)
(0.967634 -0.140207 0)
(1.08678 -0.156885 0)
(1.22034 -0.167885 0)
(1.36808 -0.158282 0)
(1.52555 -0.131544 0)
(1.68716 -0.103673 0)
(1.8307 -0.0755264 0)
(1.82235 -0.0583759 0)
(1.72181 0.17368 0)
(1.6216 0.64382 0)
(1.12451 1.06216 0)
(0.0266083 -0.0898308 0)
(0.086259 -0.10911 0)
(0.150745 -0.105706 0)
(0.214179 -0.105882 0)
(0.278357 -0.109435 0)
(0.345083 -0.114603 0)
(0.415476 -0.121031 0)
(0.489385 -0.12878 0)
(0.56956 -0.138325 0)
(0.654184 -0.149187 0)
(0.746483 -0.162973 0)
(0.84956 -0.177947 0)
(0.959828 -0.194992 0)
(1.07821 -0.218362 0)
(1.21167 -0.237905 0)
(1.3631 -0.236358 0)
(1.53537 -0.218094 0)
(1.71764 -0.189675 0)
(1.8719 -0.117242 0)
(1.86686 0.0033191 0)
(1.50378 0.227641 0)
(1.35754 0.802776 0)
(1.13183 1.57345 0)
(0.0264666 -0.115399 0)
(0.085675 -0.139692 0)
(0.149504 -0.135407 0)
(0.212222 -0.135691 0)
(0.275755 -0.140215 0)
(0.341803 -0.146793 0)
(0.411436 -0.154968 0)
(0.484455 -0.164865 0)
(0.563714 -0.176985 0)
(0.647224 -0.190869 0)
(0.738438 -0.208708 0)
(0.840581 -0.227975 0)
(0.950044 -0.249648 0)
(1.06794 -0.280236 0)
(1.20083 -0.310288 0)
(1.35711 -0.322968 0)
(1.54933 -0.313057 0)
(1.75976 -0.254846 0)
(1.8619 -0.0996922 0)
(1.68609 0.0954662 0)
(1.3 0.455687 0)
(0.956826 0.995009 0)
(1.0211 2.07504 0)
(0.0263209 -0.140784 0)
(0.0849786 -0.169788 0)
(0.147992 -0.164647 0)
(0.209879 -0.165074 0)
(0.272666 -0.170551 0)
(0.337937 -0.178498 0)
(0.406708 -0.188364 0)
(0.478747 -0.200363 0)
(0.557012 -0.214973 0)
(0.639296 -0.231864 0)
(0.729363 -0.253732 0)
(0.830558 -0.277139 0)
(0.939425 -0.303566 0)
(1.0561 -0.342269 0)
(1.1848 -0.387129 0)
(1.34405 -0.420741 0)
(1.55404 -0.41124 0)
(1.80247 -0.265848 0)
(1.69877 -0.0303882 0)
(1.3291 0.221395 0)
(1.01733 0.661794 0)
(0.592836 1.19062 0)
(0.871567 2.52121 0)
(0.0262256 -0.166247 0)
(0.0842279 -0.199663 0)
(0.146246 -0.193695 0)
(0.207227 -0.194306 0)
(0.269211 -0.200731 0)
(0.333645 -0.210022 0)
(0.401478 -0.22155 0)
(0.472478 -0.235639 0)
(0.549662 -0.252701 0)
(0.630599 -0.272636 0)
(0.719371 -0.298626 0)
(0.819298 -0.32606 0)
(0.927013 -0.356923 0)
(1.04016 -0.40382 0)
(1.16022 -0.467707 0)
(1.32051 -0.5234 0)
(1.54519 -0.496376 0)
(1.71413 -0.219875 0)
(1.42287 0.104692 0)
(1.00481 0.374294 0)
(0.78561 0.768927 0)
(0.435697 1.31867 0)
(0.727827 2.84014 0)
(0.0261762 -0.191702 0)
(0.0833756 -0.229221 0)
(0.144197 -0.222486 0)
(0.204177 -0.223343 0)
(0.265247 -0.23072 0)
(0.328703 -0.241331 0)
(0.395413 -0.254499 0)
(0.465165 -0.270641 0)
(0.540965 -0.290153 0)
(0.620128 -0.313097 0)
(0.707132 -0.343206 0)
(0.805057 -0.374718 0)
(0.910079 -0.40999 0)
(1.01567 -0.465433 0)
(1.12555 -0.548647 0)
(1.28558 -0.61851 0)
(1.51464 -0.534808 0)
(1.55802 -0.155467 0)
(1.18496 0.235853 0)
(0.777883 0.512268 0)
(0.586761 0.837029 0)
(0.314405 1.3784 0)
(0.542053 3.0527 0)
(0.00250324 -0.00214467 0)
(0.0291887 -0.00850008 0)
(0.071703 -0.00757087 0)
(0.103443 -0.00513623 0)
(0.122749 -0.00281376 0)
(0.131646 -0.000957223 0)
(0.132791 0.00034178 0)
(0.128868 0.0011801 0)
(0.121738 0.00170802 0)
(0.112499 0.00204887 0)
(0.101947 0.00226083 0)
(0.0905942 0.00238733 0)
(0.0787792 0.00245832 0)
(0.0667256 0.00249373 0)
(0.0545687 0.00250723 0)
(0.0423854 0.00250957 0)
(0.0302165 0.0025057 0)
(0.018085 0.00249949 0)
(0.00599796 0.00251802 0)
(0.000995466 -0.00662526 0)
(0.0295088 -0.0271908 0)
(0.076759 -0.0242078 0)
(0.110743 -0.0162785 0)
(0.13076 -0.00886659 0)
(0.139907 -0.003182 0)
(0.1419 0.000865076 0)
(0.138443 0.00361499 0)
(0.131134 0.00539383 0)
(0.121316 0.00652946 0)
(0.109961 0.00722618 0)
(0.0976945 0.0076326 0)
(0.0849182 0.00785287 0)
(0.0718915 0.00795644 0)
(0.0587675 0.00799046 0)
(0.0456308 0.00798881 0)
(0.0325212 0.00797025 0)
(0.0194594 0.00794821 0)
(0.00643029 0.00786852 0)
(-0.00387927 -0.0103273 0)
(0.0249879 -0.0471375 0)
(0.078966 -0.0418455 0)
(0.114845 -0.0276285 0)
(0.134478 -0.0147514 0)
(0.142585 -0.00523277 0)
(0.14318 0.00148713 0)
(0.138615 0.00613303 0)
(0.130641 0.00917477 0)
(0.120483 0.0111045 0)
(0.108991 0.012281 0)
(0.0967153 0.0129599 0)
(0.0840068 0.0133212 0)
(0.071091 0.0134853 0)
(0.0581009 0.013534 0)
(0.0451091 0.0135231 0)
(0.0321483 0.0134872 0)
(0.0192381 0.013449 0)
(0.00635728 0.0133243 0)
(-0.0128733 -0.0122896 0)
(0.0167791 -0.0693363 0)
(0.0824334 -0.0615754 0)
(0.121426 -0.0392914 0)
(0.1402 -0.0201983 0)
(0.146703 -0.00665396 0)
(0.145938 0.00269068 0)
(0.140343 0.00906502 0)
(0.131632 0.013213 0)
(0.120988 0.0158279 0)
(0.109195 0.0174136 0)
(0.096743 0.0183216 0)
(0.0839404 0.0187982 0)
(0.0709831 0.0190085 0)
(0.0579845 0.0190643 0)
(0.0450049 0.0190409 0)
(0.0320679 0.0189866 0)
(0.0191895 0.0189322 0)
(0.00634236 0.0187541 0)
(-0.0264905 -0.00709696 0)
(0.00516922 -0.0948441 0)
(0.0874371 -0.0852388 0)
(0.131066 -0.051396 0)
(0.148174 -0.0248927 0)
(0.152226 -0.00735994 0)
(0.149644 0.00446434 0)
(0.142759 0.012415 0)
(0.133133 0.017537 0)
(0.121879 0.0207369 0)
(0.109691 0.0226611 0)
(0.0969897 0.0237505 0)
(0.0840378 0.0243113 0)
(0.0709965 0.0245479 0)
(0.0579565 0.0245982 0)
(0.044963 0.0245544 0)
(0.0320288 0.024477 0)
(0.019164 0.0244038 0)
(0.00633442 0.0241714 0)
(-0.0267041 0.00503978 0)
(0.00708883 -0.124187 0)
(0.0969835 -0.113003 0)
(0.144409 -0.0639917 0)
(0.158544 -0.0284452 0)
(0.159093 -0.00703057 0)
(0.154156 0.00699252 0)
(0.145666 0.0162883 0)
(0.13493 0.0222136 0)
(0.122943 0.0258771 0)
(0.110281 0.0280559 0)
(0.097283 0.0292705 0)
(0.0841523 0.029878 0)
(0.0710102 0.0301161 0)
(0.0579205 0.0301447 0)
(0.0449102 0.0300703 0)
(0.0319799 0.0299634 0)
(0.0191318 0.029868 0)
(0.00632397 0.0295811 0)
(0.0332608 0.0062077 0)
(0.0530129 -0.155273 0)
(0.118213 -0.139521 0)
(0.16124 -0.0753689 0)
(0.171017 -0.0303644 0)
(0.167149 -0.00521898 0)
(0.159361 0.0104924 0)
(0.148974 0.0207961 0)
(0.136955 0.0273098 0)
(0.12413 0.0312896 0)
(0.110933 0.0336233 0)
(0.0976 0.0348969 0)
(0.0842686 0.0355072 0)
(0.0710141 0.0357179 0)
(0.0578697 0.0357061 0)
(0.0448423 0.035589 0)
(0.0319186 0.0354454 0)
(0.0190915 0.0353236 0)
(0.00631074 0.0349811 0)
(0.0949375 -0.00889193 0)
(0.116476 -0.192471 0)
(0.151768 -0.161349 0)
(0.180488 -0.0832796 0)
(0.184701 -0.0304182 0)
(0.176096 -0.0020154 0)
(0.165058 0.0149773 0)
(0.152568 0.0259563 0)
(0.139139 0.032841 0)
(0.1254 0.0369917 0)
(0.111621 0.0393818 0)
(0.0979272 0.0406481 0)
(0.0843799 0.0412164 0)
(0.0710053 0.0413692 0)
(0.0578033 0.0412963 0)
(0.0447593 0.0411226 0)
(0.0318453 0.0409328 0)
(0.0190436 0.0407793 0)
(0.00629484 0.0403792 0)
(0.0259382 -0.230501 0)
(0.081557 -0.273566 0)
(0.140212 -0.265666 0)
(0.198314 -0.267052 0)
(0.257544 -0.275883 0)
(0.318987 -0.288405 0)
(0.383384 -0.303959 0)
(0.450512 -0.323009 0)
(0.523346 -0.346132 0)
(0.598594 -0.3734 0)
(0.681596 -0.409168 0)
(0.775075 -0.446201 0)
(0.871398 -0.490133 0)
(0.957791 -0.56379 0)
(1.05863 -0.664441 0)
(1.21148 -0.711558 0)
(1.35129 -0.47415 0)
(1.19687 0.0642364 0)
(0.75901 0.485595 0)
(0.487065 0.711182 0)
(0.353344 0.93594 0)
(0.316695 1.32975 0)
(0.622628 3.02877 0)
(0.0253049 -0.282453 0)
(0.0784557 -0.331893 0)
(0.133858 -0.322487 0)
(0.188932 -0.324729 0)
(0.245186 -0.335425 0)
(0.303367 -0.350285 0)
(0.364074 -0.368726 0)
(0.426965 -0.391272 0)
(0.495073 -0.418709 0)
(0.564073 -0.451154 0)
(0.640514 -0.493469 0)
(0.727187 -0.53619 0)
(0.806829 -0.592581 0)
(0.863017 -0.693115 0)
(0.964512 -0.801719 0)
(1.11169 -0.78662 0)
(1.09226 -0.334461 0)
(0.681886 0.361395 0)
(0.367878 0.729597 0)
(0.269302 0.866539 0)
(0.210108 0.988477 0)
(0.284587 1.18572 0)
(0.68533 2.25192 0)
(0.0244806 -0.332566 0)
(0.0747474 -0.386219 0)
(0.126476 -0.375636 0)
(0.178136 -0.378857 0)
(0.23098 -0.391136 0)
(0.28541 -0.407881 0)
(0.341886 -0.428614 0)
(0.399942 -0.453937 0)
(0.462634 -0.484641 0)
(0.524425 -0.521037 0)
(0.593719 -0.568069 0)
(0.672169 -0.61376 0)
(0.727512 -0.682351 0)
(0.764914 -0.801426 0)
(0.870344 -0.891782 0)
(0.950757 -0.676843 0)
(0.752799 0.0403712 0)
(0.303307 0.6369 0)
(0.183586 0.853164 0)
(0.183407 0.900763 0)
(0.188392 0.944459 0)
(0.244544 1.0253 0)
(0.601044 1.44933 0)
(0.0234401 -0.380575 0)
(0.0704616 -0.436612 0)
(0.118221 -0.425212 0)
(0.166181 -0.429502 0)
(0.215253 -0.443103 0)
(0.265539 -0.461329 0)
(0.317379 -0.483838 0)
(0.370188 -0.511265 0)
(0.426994 -0.544342 0)
(0.481011 -0.583532 0)
(0.543245 -0.633438 0)
(0.611479 -0.680177 0)
(0.639664 -0.760758 0)
(0.675687 -0.884827 0)
(0.773781 -0.924167 0)
(0.770687 -0.513176 0)
(0.353112 0.3849 0)
(0.115617 0.786944 0)
(0.122794 0.863932 0)
(0.157172 0.863992 0)
(0.20173 0.870606 0)
(0.253368 0.893732 0)
(0.491749 1.01209 0)
(0.0221997 -0.426045 0)
(0.065688 -0.482747 0)
(0.109279 -0.470908 0)
(0.153339 -0.476281 0)
(0.198375 -0.490898 0)
(0.244252 -0.510183 0)
(0.291209 -0.533928 0)
(0.338574 -0.562762 0)
(0.389291 -0.5973 0)
(0.435459 -0.638118 0)
(0.49128 -0.689066 0)
(0.547183 -0.735415 0)
(0.551546 -0.826049 0)
(0.597006 -0.942483 0)
(0.67128 -0.886029 0)
(0.541383 -0.190765 0)
(0.0713431 0.618326 0)
(0.062244 0.815938 0)
(0.108294 0.818752 0)
(0.153666 0.809616 0)
(0.2126 0.807331 0)
(0.274988 0.804065 0)
(0.415208 0.81973 0)
(0.0207833 -0.468625 0)
(0.0605238 -0.524485 0)
(0.0998335 -0.512602 0)
(0.139869 -0.519012 0)
(0.180696 -0.534343 0)
(0.222013 -0.554296 0)
(0.263981 -0.578792 0)
(0.305877 -0.608413 0)
(0.350509 -0.643633 0)
(0.389153 -0.685104 0)
(0.439367 -0.735672 0)
(0.481414 -0.781118 0)
(0.470998 -0.878621 0)
(0.52572 -0.977349 0)
(0.567183 -0.746653 0)
(0.337933 0.172223 0)
(-0.0188465 0.732964 0)
(0.0622841 0.781316 0)
(0.106082 0.764544 0)
(0.153528 0.757372 0)
(0.209502 0.750021 0)
(0.269821 0.732587 0)
(0.35215 0.70739 0)
(0.019223 -0.508034 0)
(0.0550732 -0.56178 0)
(0.0900603 -0.55024 0)
(0.126013 -0.557591 0)
(0.16254 -0.573347 0)
(0.199247 -0.593624 0)
(0.236235 -0.618444 0)
(0.272766 -0.648322 0)
(0.311464 -0.683589 0)
(0.343142 -0.724954 0)
(0.388359 -0.774168 0)
(0.416033 -0.818764 0)
(0.40097 -0.918209 0)
(0.457476 -0.99091 0)
(0.466911 -0.611829 0)
(0.120436 0.486439 0)
(0.00470145 0.762017 0)
(0.0638497 0.732282 0)
(0.102425 0.717436 0)
(0.147103 0.709693 0)
(0.194012 0.696339 0)
(0.244023 0.672342 0)
(0.298228 0.635587 0)
(0.0175493 -0.544019 0)
(0.0494352 -0.594621 0)
(0.0801222 -0.583781 0)
(0.111985 -0.591938 0)
(0.144192 -0.607856 0)
(0.17632 -0.628159 0)
(0.208417 -0.652942 0)
(0.239767 -0.682643 0)
(0.27276 -0.717467 0)
(0.298135 -0.758167 0)
(0.338695 -0.805436 0)
(0.352449 -0.849448 0)
(0.339823 -0.94723 0)
(0.391981 -0.991805 0)
(0.344001 -0.397357 0)
(-0.095643 0.638148 0)
(0.0478173 0.72646 0)
(0.0520125 0.686747 0)
(0.0955272 0.677649 0)
(0.135278 0.668061 0)
(0.17365 0.651773 0)
(0.21355 0.62685 0)
(0.252731 0.591112 0)
(0.0157955 -0.576309 0)
(0.0437056 -0.622974 0)
(0.0701655 -0.613154 0)
(0.0979756 -0.621958 0)
(0.1259 -0.637813 0)
(0.153537 -0.657897 0)
(0.180893 -0.682356 0)
(0.207289 -0.71154 0)
(0.234841 -0.745565 0)
(0.25458 -0.785212 0)
(0.290565 -0.830255 0)
(0.291604 -0.874011 0)
(0.285683 -0.967452 0)
(0.328476 -0.975271 0)
(0.196081 -0.0159467 0)
(-0.171883 0.682389 0)
(0.0584971 0.657668 0)
(0.0424279 0.646269 0)
(0.0881562 0.642499 0)
(0.121789 0.63292 0)
(0.152957 0.616712 0)
(0.184094 0.592835 0)
(0.212811 0.560088 0)
(0.0139919 -0.605011 0)
(0.0379658 -0.647178 0)
(0.0603094 -0.638652 0)
(0.0841355 -0.647947 0)
(0.107864 -0.663565 0)
(0.13114 -0.683251 0)
(0.153938 -0.70718 0)
(0.175632 -0.735618 0)
(0.198034 -0.768611 0)
(0.212754 -0.806939 0)
(0.244087 -0.84967 0)
(0.23412 -0.893117 0)
(0.236529 -0.979977 0)
(0.268064 -0.924445 0)
(0.0788417 0.350518 0)
(-0.0918364 0.66185 0)
(0.0506471 0.599516 0)
(0.0484908 0.61081 0)
(0.0834594 0.612161 0)
(0.109451 0.604454 0)
(0.133444 0.589408 0)
(0.156737 0.56697 0)
(0.177534 0.537156 0)
(0.0121562 -0.630521 0)
(0.0322764 -0.667737 0)
(0.0506445 -0.660707 0)
(0.0705767 -0.670318 0)
(0.0902317 -0.685535 0)
(0.10931 -0.704654 0)
(0.127758 -0.72785 0)
(0.145022 -0.755329 0)
(0.162601 -0.787085 0)
(0.172919 -0.82386 0)
(0.199472 -0.864318 0)
(0.180291 -0.906749 0)
(0.189791 -0.988934 0)
(0.208774 -0.823009 0)
(-0.00950577 0.434189 0)
(0.0156712 0.61725 0)
(0.0490357 0.570434 0)
(0.0606635 0.585488 0)
(0.0820896 0.589859 0)
(0.0988621 0.583651 0)
(0.11528 0.569427 0)
(0.13151 0.548139 0)
(0.146114 0.520674 0)
(0.0103472 -0.651464 0)
(0.0267903 -0.683429 0)
(0.0413465 -0.677987 0)
(0.0575162 -0.687722 0)
(0.0732961 -0.702377 0)
(0.0884156 -0.720756 0)
(0.102795 -0.743013 0)
(0.115943 -0.769326 0)
(0.129011 -0.799677 0)
(0.135479 -0.834657 0)
(0.156477 -0.873013 0)
(0.128939 -0.913277 0)
(0.141292 -0.999857 0)
(0.137563 -0.700442 0)
(-0.0482984 0.477242 0)
(0.0734877 0.576614 0)
(0.055479 0.556886 0)
(0.0718148 0.572326 0)
(0.0815039 0.577261 0)
(0.0887856 0.57109 0)
(0.0976688 0.556588 0)
(0.107578 0.535463 0)
(0.117199 0.509182 0)
(0.00864282 -0.666973 0)
(0.0217386 -0.693791 0)
(0.032729 -0.690103 0)
(0.0454001 -0.699926 0)
(0.057646 -0.714111 0)
(0.0691612 -0.731859 0)
(0.0798477 -0.753319 0)
(0.0892101 -0.778606 0)
(0.0979421 -0.80775 0)
(0.100709 -0.840586 0)
(0.113873 -0.87629 0)
(0.078139 -0.91164 0)
(0.0912259 -1.00527 0)
(0.0450602 -0.603294 0)
(-0.100837 0.469881 0)
(0.117893 0.525513 0)
(0.0717497 0.549718 0)
(0.0833137 0.570015 0)
(0.0805829 0.574606 0)
(0.0778951 0.566799 0)
(0.0793116 0.550362 0)
(0.0836329 0.52793 0)
(0.0893481 0.501432 0)
(0.0069834 -0.684452 0)
(0.0170124 -0.705927 0)
(0.0247568 -0.704369 0)
(0.0343011 -0.714264 0)
(0.0433217 -0.728107 0)
(0.0514645 -0.745348 0)
(0.0586717 -0.766064 0)
(0.0642872 -0.790168 0)
(0.0686396 -0.817785 0)
(0.0674079 -0.846936 0)
(0.0723838 -0.87668 0)
(0.0350929 -0.903346 0)
(0.0700531 -0.97398 0)
(-0.0363335 -0.320198 0)
(0.00719036 0.369672 0)
(0.185609 0.48633 0)
(0.118057 0.556977 0)
(0.09795 0.582355 0)
(0.0779758 0.583825 0)
(0.0641897 0.571113 0)
(0.0583839 0.550124 0)
(0.0581266 0.524498 0)
(0.0611688 0.496322 0)
(0.0052121 -0.701455 0)
(0.0119476 -0.716665 0)
(0.0165099 -0.717119 0)
(0.0228943 -0.726271 0)
(0.0284888 -0.73868 0)
(0.0329481 -0.754048 0)
(0.0363682 -0.772173 0)
(0.0377231 -0.792742 0)
(0.0378404 -0.815814 0)
(0.0327367 -0.838435 0)
(0.0402436 -0.858912 0)
(0.0308626 -0.894216 0)
(0.132684 -0.909736 0)
(0.0814841 -0.630046 0)
(0.301776 0.281874 0)
(0.345851 0.542799 0)
(0.192184 0.611222 0)
(0.111349 0.619913 0)
(0.0688946 0.60825 0)
(0.043768 0.584228 0)
(0.0321978 0.554881 0)
(0.0292485 0.523827 0)
(0.0313247 0.492576 0)
(0.00288695 -0.689938 0)
(0.00479575 -0.699549 0)
(0.00570368 -0.701786 0)
(0.00768274 -0.709799 0)
(0.00866012 -0.720386 0)
(0.00849695 -0.733529 0)
(0.00717188 -0.748959 0)
(0.00465921 -0.766711 0)
(0.00337177 -0.78631 0)
(0.000733576 -0.813251 0)
(0.0365542 -0.845935 0)
(0.109365 -0.948446 0)
(0.233728 -0.89975 0)
(0.390755 -0.793967 0)
(0.459404 0.172063 0)
(0.50798 0.722007 0)
(0.247571 0.753967 0)
(0.0975978 0.691835 0)
(0.0415984 0.647903 0)
(0.0102618 0.603745 0)
(-0.00262361 0.562105 0)
(-0.00484228 0.523788 0)
(-0.00128892 0.488533 0)
(-0.000219867 -0.680127 0)
(-0.00894741 -0.686377 0)
(-0.0146305 -0.691844 0)
(-0.0201551 -0.700537 0)
(-0.0277737 -0.712853 0)
(-0.0345861 -0.728325 0)
(-0.0422523 -0.748174 0)
(-0.0426885 -0.773534 0)
(-0.0343517 -0.805272 0)
(-0.000317386 -0.880949 0)
(0.107254 -1.0212 0)
(0.284878 -1.14493 0)
(0.337721 -1.09416 0)
(0.381373 -0.805815 0)
(0.353605 -0.213209 0)
(0.437593 0.92736 0)
(0.189377 0.946696 0)
(0.0240784 0.790015 0)
(-0.0178978 0.693297 0)
(-0.0428633 0.622675 0)
(-0.0484641 0.567077 0)
(-0.0450769 0.521171 0)
(-0.0371448 0.482024 0)
(-0.0022217 -0.724141 0)
(-0.0274376 -0.728463 0)
(-0.0407791 -0.736495 0)
(-0.0523093 -0.743765 0)
(-0.066152 -0.75676 0)
(-0.0721101 -0.773791 0)
(-0.0734867 -0.800326 0)
(-0.0537316 -0.837632 0)
(-0.0225536 -0.897456 0)
(0.0610967 -1.00905 0)
(0.173905 -1.21086 0)
(0.311861 -1.18616 0)
(0.493494 -1.16162 0)
(0.0697376 -0.675558 0)
(0.155972 -0.152003 0)
(0.0109039 0.97496 0)
(-0.0756058 1.08658 0)
(-0.122298 0.860432 0)
(-0.117818 0.720914 0)
(-0.116757 0.629233 0)
(-0.104907 0.563081 0)
(-0.0907161 0.511955 0)
(-0.0754991 0.470616 0)
(-0.00757616 -0.68887 0)
(-0.0288507 -0.692339 0)
(-0.0453423 -0.702577 0)
(-0.0633532 -0.71127 0)
(-0.0779872 -0.727356 0)
(-0.0896948 -0.748741 0)
(-0.100504 -0.783649 0)
(-0.106673 -0.833696 0)
(-0.099569 -0.917841 0)
(-0.0761645 -1.07385 0)
(-0.0746992 -1.28264 0)
(-0.0857696 -1.29948 0)
(0.0166571 -1.03512 0)
(-0.385203 -0.478813 0)
(-0.159896 0.0906738 0)
(-0.589052 1.103 0)
(-0.404165 1.08957 0)
(-0.310538 0.849618 0)
(-0.242036 0.705019 0)
(-0.201414 0.610961 0)
(-0.16654 0.54356 0)
(-0.138428 0.492654 0)
(-0.114198 0.452388 0)
(-0.0112604 -0.65357 0)
(-0.0329188 -0.659646 0)
(-0.0541003 -0.667037 0)
(-0.0761506 -0.677243 0)
(-0.0997016 -0.693567 0)
(-0.124682 -0.716613 0)
(-0.151459 -0.750281 0)
(-0.183254 -0.798169 0)
(-0.223757 -0.87911 0)
(-0.284459 -1.02079 0)
(-0.400933 -1.18335 0)
(-0.591604 -1.20183 0)
(-0.759861 -0.898063 0)
(-0.742863 -0.340039 0)
(-0.713975 0.304584 0)
(-0.988694 1.02824 0)
(-0.624909 0.916928 0)
(-0.470503 0.742908 0)
(-0.353256 0.637958 0)
(-0.278694 0.562895 0)
(-0.224001 0.50592 0)
(-0.182841 0.461923 0)
(-0.150043 0.426563 0)
(-0.0122263 -0.62432 0)
(-0.0366248 -0.633086 0)
(-0.0616184 -0.638318 0)
(-0.0875117 -0.647919 0)
(-0.116111 -0.661774 0)
(-0.148274 -0.681445 0)
(-0.186363 -0.708196 0)
(-0.235471 -0.74427 0)
(-0.302066 -0.796529 0)
(-0.399947 -0.880521 0)
(-0.580094 -0.987595 0)
(-0.854716 -0.996782 0)
(-1.10757 -0.751832 0)
(-1.23331 -0.25588 0)
(-1.21168 0.348465 0)
(-1.06284 0.750858 0)
(-0.715302 0.64607 0)
(-0.554002 0.584767 0)
(-0.421891 0.53674 0)
(-0.333589 0.49202 0)
(-0.268255 0.45364 0)
(-0.218748 0.421477 0)
(-0.179905 0.394028 0)
(-0.0134239 -0.606766 0)
(-0.0409204 -0.61466 0)
(-0.0690119 -0.61863 0)
(-0.0992015 -0.6259 0)
(-0.132249 -0.636044 0)
(-0.169807 -0.649622 0)
(-0.214235 -0.667037 0)
(-0.270064 -0.688237 0)
(-0.340353 -0.712176 0)
(-0.433139 -0.741285 0)
(-0.588478 -0.775976 0)
(-0.83468 -0.761307 0)
(-1.08942 -0.581738 0)
(-1.21058 -0.213505 0)
(-1.14525 0.182058 0)
(-0.932039 0.406705 0)
(-0.696478 0.407913 0)
(-0.563826 0.432351 0)
(-0.446367 0.428024 0)
(-0.361675 0.412739 0)
(-0.295214 0.394209 0)
(-0.24328 0.375346 0)
(-0.201811 0.357086 0)
(-0.014407 -0.573513 0)
(-0.0433799 -0.579837 0)
(-0.0735395 -0.582903 0)
(-0.105919 -0.587434 0)
(-0.141274 -0.593584 0)
(-0.181323 -0.601221 0)
(-0.22833 -0.610162 0)
(-0.285659 -0.61955 0)
(-0.355223 -0.626097 0)
(-0.440626 -0.624771 0)
(-0.558537 -0.6079 0)
(-0.719003 -0.553814 0)
(-0.880232 -0.425203 0)
(-0.956798 -0.206904 0)
(-0.904041 0.0341085 0)
(-0.765649 0.191759 0)
(-0.631853 0.258876 0)
(-0.533079 0.312506 0)
(-0.440754 0.332211 0)
(-0.367316 0.337931 0)
(-0.306198 0.33523 0)
(-0.256395 0.328143 0)
(-0.215371 0.318622 0)
(-0.0145264 -0.546229 0)
(-0.0448139 -0.551658 0)
(-0.0762663 -0.55335 0)
(-0.109413 -0.555315 0)
(-0.145525 -0.557608 0)
(-0.185842 -0.559757 0)
(-0.232026 -0.560998 0)
(-0.286018 -0.559579 0)
(-0.349164 -0.552574 0)
(-0.42316 -0.537232 0)
(-0.511892 -0.506445 0)
(-0.612213 -0.440327 0)
(-0.701392 -0.320902 0)
(-0.743545 -0.161984 0)
(-0.719046 -0.00918283 0)
(-0.646955 0.100326 0)
(-0.566024 0.173604 0)
(-0.491001 0.226761 0)
(-0.420039 0.256799 0)
(-0.358702 0.27394 0)
(-0.305374 0.281659 0)
(-0.260043 0.283423 0)
(-0.221489 0.281141 0)
(-0.0145651 -0.51491 0)
(-0.0451805 -0.520019 0)
(-0.0767401 -0.520006 0)
(-0.109684 -0.519735 0)
(-0.14524 -0.518707 0)
(-0.184278 -0.51636 0)
(-0.227846 -0.511748 0)
(-0.276747 -0.503154 0)
(-0.331439 -0.487885 0)
(-0.392824 -0.463005 0)
(-0.461837 -0.424051 0)
(-0.53225 -0.362828 0)
(-0.587064 -0.272409 0)
(-0.609559 -0.159144 0)
(-0.59603 -0.045524 0)
(-0.55607 0.0470612 0)
(-0.503828 0.114451 0)
(-0.447893 0.164444 0)
(-0.39298 0.198365 0)
(-0.342444 0.221047 0)
(-0.296881 0.235094 0)
(-0.256746 0.242956 0)
(-0.221641 0.246214 0)
(-0.0146483 -0.48504 0)
(-0.0446421 -0.489539 0)
(-0.0753736 -0.4881 0)
(-0.107486 -0.485962 0)
(-0.141562 -0.482349 0)
(-0.178311 -0.476651 0)
(-0.218294 -0.467884 0)
(-0.261762 -0.45462 0)
(-0.308708 -0.434978 0)
(-0.358857 -0.406842 0)
(-0.411081 -0.366772 0)
(-0.460681 -0.310007 0)
(-0.498159 -0.235509 0)
(-0.51427 -0.150344 0)
(-0.507046 -0.0659834 0)
(-0.481825 0.00853086 0)
(-0.446149 0.069083 0)
(-0.405249 0.11644 0)
(-0.362873 0.151645 0)
(-0.321817 0.177228 0)
(-0.283425 0.19516 0)
(-0.248534 0.207159 0)
(-0.217236 0.214525 0)
(-0.0143857 -0.456172 0)
(-0.0431313 -0.459653 0)
(-0.0725426 -0.457271 0)
(-0.103267 -0.453593 0)
(-0.135289 -0.448006 0)
(-0.1692 -0.4399 0)
(-0.205236 -0.428396 0)
(-0.243318 -0.412377 0)
(-0.28316 -0.39048 0)
(-0.324113 -0.361192 0)
(-0.364554 -0.322613 0)
(-0.400787 -0.272776 0)
(-0.427298 -0.211866 0)
(-0.439385 -0.144297 0)
(-0.435998 -0.0771135 0)
(-0.419975 -0.0159552 0)
(-0.395035 0.03642 0)
(-0.364608 0.0798464 0)
(-0.331824 0.114356 0)
(-0.298759 0.141068 0)
(-0.266781 0.161209 0)
(-0.236882 0.175931 0)
(-0.209422 0.186266 0)
(-0.0136379 -0.428362 0)
(-0.0408575 -0.430923 0)
(-0.0687012 -0.428006 0)
(-0.0975476 -0.423229 0)
(-0.127201 -0.416273 0)
(-0.158064 -0.406595 0)
(-0.190189 -0.393484 0)
(-0.223345 -0.376123 0)
(-0.257081 -0.35359 0)
(-0.29059 -0.324882 0)
(-0.322349 -0.288941 0)
(-0.349775 -0.245112 0)
(-0.369586 -0.194244 0)
(-0.379172 -0.139264 0)
(-0.377931 -0.0842973 0)
(-0.367324 -0.0329225 0)
(-0.349559 0.0129499 0)
(-0.326853 0.0522564 0)
(-0.301383 0.0849718 0)
(-0.274803 0.111547 0)
(-0.24833 0.132658 0)
(-0.222955 0.149016 0)
(-0.199145 0.161402 0)
(-0.0125989 -0.40177 0)
(-0.0381567 -0.403772 0)
(-0.0642257 -0.400488 0)
(-0.0908534 -0.395018 0)
(-0.117988 -0.387206 0)
(-0.145793 -0.376621 0)
(-0.174221 -0.362733 0)
(-0.202976 -0.344961 0)
(-0.231556 -0.322703 0)
(-0.259173 -0.295365 0)
(-0.28457 -0.262464 0)
(-0.305963 -0.223945 0)
(-0.321363 -0.180687 0)
(-0.329264 -0.134688 0)
(-0.329261 -0.0885472 0)
(-0.322137 -0.0446042 0)
(-0.309288 -0.00440018 0)
(-0.292159 0.0311282 0)
(-0.272274 0.0617326 0)
(-0.250897 0.0875119 0)
(-0.229048 0.108805 0)
(-0.207644 0.126023 0)
(-0.187172 0.139748 0)
(-0.0115312 -0.376929 0)
(-0.0352863 -0.378678 0)
(-0.0593677 -0.375075 0)
(-0.083631 -0.369207 0)
(-0.108202 -0.360924 0)
(-0.133056 -0.349923 0)
(-0.158083 -0.335827 0)
(-0.182969 -0.318246 0)
(-0.207228 -0.29681 0)
(-0.230166 -0.271207 0)
(-0.250807 -0.241285 0)
(-0.267924 -0.207246 0)
(-0.280269 -0.169875 0)
(-0.286938 -0.130564 0)
(-0.287665 -0.0910364 0)
(-0.282872 -0.0529184 0)
(-0.273443 -0.0173899 0)
(-0.260387 0.0147942 0)
(-0.244776 0.0432502 0)
(-0.227559 0.0679243 0)
(-0.209557 0.088934 0)
(-0.191578 0.106491 0)
(-0.174093 0.121032 0)
(-0.0105572 -0.354222 0)
(-0.0323468 -0.355851 0)
(-0.0542674 -0.351987 0)
(-0.0761751 -0.345913 0)
(-0.0982222 -0.337432 0)
(-0.120292 -0.326349 0)
(-0.14223 -0.31241 0)
(-0.163735 -0.295369 0)
(-0.184372 -0.275021 0)
(-0.203561 -0.251241 0)
(-0.220563 -0.224055 0)
(-0.234531 -0.193758 0)
(-0.244657 -0.161011 0)
(-0.250376 -0.126821 0)
(-0.251515 -0.092385 0)
(-0.248298 -0.0588613 0)
(-0.241301 -0.0271677 0)
(-0.231287 0.00207644 0)
(-0.218962 0.0285006 0)
(-0.205065 0.0519513 0)
(-0.190246 0.0724146 0)
(-0.175195 0.0899693 0)
(-0.160341 0.104953 0)
(-0.00965274 -0.333727 0)
(-0.0293457 -0.335245 0)
(-0.0490256 -0.331228 0)
(-0.0686647 -0.325081 0)
(-0.088287 -0.316598 0)
(-0.107764 -0.305654 0)
(-0.126915 -0.292095 0)
(-0.145467 -0.27578 0)
(-0.163047 -0.256619 0)
(-0.179187 -0.234601 0)
(-0.193333 -0.209845 0)
(-0.204892 -0.182664 0)
(-0.213329 -0.153603 0)
(-0.218276 -0.123418 0)
(-0.219618 -0.092973 0)
(-0.217501 -0.0631171 0)
(-0.21231 -0.0345869 0)
(-0.204563 -0.00789075 0)
(-0.194766 0.0166913 0)
(-0.183533 0.0389192 0)
(-0.171346 0.0587069 0)
(-0.158784 0.0760485 0)
(-0.146231 0.0912114 0)
(-0.00875128 -0.315348 0)
(-0.0262927 -0.316715 0)
(-0.0437484 -0.312671 0)
(-0.0612221 -0.306557 0)
(-0.0785469 -0.298209 0)
(-0.0956212 -0.28755 0)
(-0.11226 -0.274499 0)
(-0.128222 -0.258995 0)
(-0.143196 -0.241021 0)
(-0.156811 -0.220636 0)
(-0.168654 -0.198 0)
(-0.178306 -0.173414 0)
(-0.185402 -0.14733 0)
(-0.189697 -0.12033 0)
(-0.191117 -0.093065 0)
(-0.189763 -0.0661808 0)
(-0.185887 -0.0402555 0)
(-0.179855 -0.0157057 0)
(-0.172075 0.00721847 0)
(-0.162984 0.0282854 0)
(-0.152979 0.047356 0)
(-0.142531 0.0643659 0)
(-0.131979 0.0795304 0)
(-0.0078122 -0.298973 0)
(-0.0232304 -0.300152 0)
(-0.0385474 -0.296176 0)
(-0.053945 -0.290177 0)
(-0.0691025 -0.282055 0)
(-0.0839504 -0.271771 0)
(-0.0983138 -0.259295 0)
(-0.111983 -0.244619 0)
(-0.124704 -0.227778 0)
(-0.136187 -0.208866 0)
(-0.146122 -0.188062 0)
(-0.15421 -0.165642 0)
(-0.160198 -0.141983 0)
(-0.163921 -0.117546 0)
(-0.165329 -0.0928371 0)
(-0.164495 -0.068362 0)
(-0.161597 -0.04458 0)
(-0.156907 -0.0218606 0)
(-0.150755 -0.000426035 0)
(-0.143388 0.0196084 0)
(-0.135191 0.0379837 0)
(-0.126542 0.05461 0)
(-0.117729 0.0696626 0)
(-0.00684081 -0.284539 0)
(-0.0202198 -0.285522 0)
(-0.0335093 -0.281662 0)
(-0.0469053 -0.275825 0)
(-0.0600156 -0.26798 0)
(-0.0727919 -0.258113 0)
(-0.0850771 -0.24623 0)
(-0.0966931 -0.232357 0)
(-0.107434 -0.216559 0)
(-0.117076 -0.198953 0)
(-0.125388 -0.179717 0)
(-0.132152 -0.159101 0)
(-0.137192 -0.137426 0)
(-0.140395 -0.115065 0)
(-0.141729 -0.0924252 0)
(-0.141252 -0.0699108 0)
(-0.139096 -0.0478981 0)
(-0.135466 -0.0267128 0)
(-0.130585 -0.00654976 0)
(-0.124631 0.0125526 0)
(-0.117967 0.0302854 0)
(-0.110862 0.0465192 0)
(-0.103567 0.0613939 0)
(-0.00586362 -0.272042 0)
(-0.0173073 -0.272846 0)
(-0.0286767 -0.269109 0)
(-0.0401376 -0.263456 0)
(-0.0513069 -0.255902 0)
(-0.0621435 -0.246455 0)
(-0.072512 -0.23514 0)
(-0.0822641 -0.222007 0)
(-0.0912363 -0.20714 0)
(-0.0992555 -0.190665 0)
(-0.106149 -0.172754 0)
(-0.11176 -0.153632 0)
(-0.115962 -0.133576 0)
(-0.118679 -0.112896 0)
(-0.119893 -0.0919268 0)
(-0.119649 -0.0710004 0)
(-0.118046 -0.0504305 0)
(-0.115237 -0.0304959 0)
(-0.111393 -0.0113817 0)
(-0.106658 0.00686125 0)
(-0.101276 0.0240166 0)
(-0.0955044 0.0398767 0)
(-0.089539 0.054543 0)
(-0.00490422 -0.261437 0)
(-0.0145074 -0.262101 0)
(-0.0240454 -0.258478 0)
(-0.033634 -0.253009 0)
(-0.0429532 -0.24574 0)
(-0.0519603 -0.236687 0)
(-0.0605431 -0.225891 0)
(-0.0685817 -0.213417 0)
(-0.0759474 -0.199358 0)
(-0.0825079 -0.18384 0)
(-0.0881346 -0.167029 0)
(-0.0927137 -0.14913 0)
(-0.0961571 -0.130381 0)
(-0.0984126 -0.111051 0)
(-0.0994707 -0.0914195 0)
(-0.0993672 -0.0717676 0)
(-0.0981795 -0.0523624 0)
(-0.0960217 -0.0334459 0)
(-0.0930329 -0.0152015 0)
(-0.0893391 0.00230704 0)
(-0.0850591 0.0189757 0)
(-0.0804495 0.0345049 0)
(-0.0756617 0.04896 0)
(-0.00397431 -0.252488 0)
(-0.0118105 -0.253056 0)
(-0.0195881 -0.249539 0)
(-0.0273658 -0.244252 0)
(-0.0349126 -0.237252 0)
(-0.0421818 -0.228565 0)
(-0.0490846 -0.21824 0)
(-0.0555265 -0.206347 0)
(-0.0614089 -0.192984 0)
(-0.0666321 -0.178275 0)
(-0.0711021 -0.162375 0)
(-0.0747378 -0.145471 0)
(-0.0774778 -0.127776 0)
(-0.0792875 -0.109521 0)
(-0.0801633 -0.0909498 0)
(-0.0801344 -0.0723062 0)
(-0.0792617 -0.0538233 0)
(-0.0776315 -0.0357174 0)
(-0.0753558 -0.0181699 0)
(-0.0725428 -0.00126258 0)
(-0.0692292 0.0150106 0)
(-0.0656577 0.0302645 0)
(-0.0619314 0.044525 0)
(-0.00306794 -0.245306 0)
(-0.00919093 -0.245813 0)
(-0.0152794 -0.242373 0)
(-0.0213144 -0.237238 0)
(-0.027164 -0.230463 0)
(-0.0327783 -0.222078 0)
(-0.0380906 -0.212139 0)
(-0.0430294 -0.20072 0)
(-0.0475213 -0.187918 0)
(-0.0514944 -0.173857 0)
(-0.0548826 -0.158681 0)
(-0.0576305 -0.142563 0)
(-0.0596978 -0.125694 0)
(-0.0610633 -0.108279 0)
(-0.0617281 -0.0905343 0)
(-0.0617172 -0.0726731 0)
(-0.0610782 -0.0549029 0)
(-0.059878 -0.0374179 0)
(-0.0582037 -0.0203956 0)
(-0.0561462 -0.00394191 0)
(-0.0537075 0.0120118 0)
(-0.0510812 0.0270517 0)
(-0.0483324 0.0411471 0)
(-0.00215467 -0.240934 0)
(-0.0065769 -0.241377 0)
(-0.0110292 -0.237976 0)
(-0.0153802 -0.232935 0)
(-0.0195921 -0.226293 0)
(-0.0236208 -0.218089 0)
(-0.0274196 -0.208382 0)
(-0.0309375 -0.197249 0)