/*--------------------------------*- C++ -*----------------------------------*\
  =========                 |
  \\      /  F ield         | OpenFOAM: The Open Source CFD Toolbox
   \\    /   O peration     | Website:  https://openfoam.org
    \\  /    A nd           | Version:  6
     \\/     M anipulation  |
\*---------------------------------------------------------------------------*/
FoamFile
{
    version     2.0;
    format      ascii;
    class       surfaceScalarField;
    location    "0.25";
    object      phi;
}
// * * * * * * * * * * * * * * * * * * * * * * * * * * * * * * * * * * * * * //

dimensions      [1 0 -1 0 0 0 0];

internalField   nonuniform List<scalar> 
799
(
2.71051e-19
8.13152e-20
5.42101e-20
1.0842e-19
-8.13152e-20
5.42101e-20
-1.35525e-19
-2.43945e-19
-2.71051e-19
-1.89735e-19
-1.89735e-19
-3.52366e-19
-2.71051e-19
-2.1684e-19
3.52366e-19
2.43945e-19
1.6263e-19
5.42101e-20
1.0842e-19
-1.0842e-19
8.13152e-20
1.35525e-19
5.42101e-20
-5.42101e-20
-2.43945e-19
-1.35525e-19
-2.71051e-19
3.25261e-19
5.42101e-20
2.71051e-20
-2.43945e-19
5.42101e-20
2.1684e-19
1.6263e-19
1.89735e-19
2.71051e-20
-8.13152e-20
2.71051e-20
2.43945e-19
5.42101e-19
2.1684e-19
1.35525e-19
-1.6263e-19
-5.69206e-19
-4.60786e-19
-5.14996e-19
-5.96311e-19
-4.06576e-19
-2.71051e-19
5.42101e-20
1.0842e-19
3.52366e-19
1.0842e-19
-2.1684e-19
-2.71051e-19
-2.1684e-19
-2.1684e-19
-2.98156e-19
-2.1684e-19
2.71051e-20
0
-5.42101e-20
2.71051e-20
-5.42101e-20
0
1.89735e-19
5.42101e-20
-8.13152e-20
-1.0842e-19
2.71051e-19
2.1684e-19
2.43945e-19
2.98156e-19
2.71051e-19
0
0
0
-2.43945e-19
-5.42101e-20
-4.60786e-19
-5.96311e-19
-4.33681e-19
-5.14996e-19
-4.33681e-19
-4.33681e-19
-1.6263e-19
-1.6263e-19
-2.1684e-19
-1.6263e-19
5.42101e-20
-1.0842e-19
-5.42101e-20
0
1.6263e-19
8.13152e-19
2.62919e-18
6.04443e-18
1.32002e-17
2.87043e-17
6.08237e-17
1.26797e-16
2.62648e-16
5.3752e-16
1.09084e-15
2.19353e-15
4.37194e-15
8.63532e-15
1.69012e-14
3.27752e-14
6.29657e-14
1.1982e-13
2.25819e-13
4.21437e-13
7.78728e-13
1.42447e-12
2.57912e-12
4.62145e-12
8.19424e-12
1.43748e-11
2.49454e-11
4.28172e-11
7.26814e-11
1.21996e-10
2.02455e-10
3.32136e-10
5.38584e-10
8.63156e-10
1.36702e-09
2.13926e-09
3.3076e-09
5.05222e-09
7.62317e-09
1.13617e-08
1.67255e-08
2.43176e-08
3.49185e-08
4.95197e-08
6.93568e-08
9.59399e-08
1.31078e-07
1.76893e-07
2.35824e-07
3.1061e-07
4.04264e-07
5.20017e-07
6.61257e-07
8.31445e-07
1.03402e-06
1.27231e-06
1.54942e-06
1.86817e-06
2.23097e-06
2.6398e-06
3.09617e-06
3.60106e-06
4.15494e-06
4.75778e-06
5.4091e-06
6.10797e-06
6.8531e-06
7.64289e-06
8.47546e-06
9.34874e-06
1.02605e-05
1.12084e-05
1.21901e-05
1.32032e-05
1.42453e-05
1.5314e-05
1.6407e-05
1.75223e-05
1.86575e-05
1.98109e-05
2.09803e-05
2.21642e-05
2.33606e-05
2.45682e-05
2.57853e-05
2.70107e-05
2.8243e-05
2.9481e-05
3.07237e-05
3.197e-05
3.3219e-05
3.44699e-05
3.57217e-05
3.69738e-05
3.82255e-05
3.94762e-05
4.07252e-05
4.19721e-05
4.32163e-05
4.44574e-05
4.5695e-05
4.69287e-05
4.81581e-05
4.93829e-05
5.06029e-05
5.18176e-05
5.3027e-05
5.42307e-05
5.54285e-05
5.66202e-05
5.78057e-05
5.89848e-05
6.01573e-05
6.13231e-05
6.2482e-05
6.3634e-05
6.4779e-05
6.59167e-05
6.70472e-05
6.81704e-05
6.92861e-05
7.03944e-05
7.14951e-05
7.25882e-05
7.36737e-05
7.47514e-05
7.58215e-05
7.68837e-05
7.79382e-05
7.89848e-05
8.00236e-05
8.10545e-05
8.20775e-05
8.30926e-05
8.40998e-05
8.5099e-05
8.60903e-05
8.70737e-05
8.80492e-05
8.90167e-05
8.99763e-05
9.09279e-05
9.18716e-05
9.28074e-05
9.37353e-05
9.46552e-05
9.55673e-05
9.64715e-05
9.73678e-05
9.82563e-05
9.9137e-05
0.00010001
0.000100875
0.000101732
0.000102582
0.000103423
0.000104257
0.000105084
0.000105902
0.000106713
0.000107517
0.000108312
0.0001091
0.000109881
0.000110654
0.00011142
0.000112178
0.000112928
0.000113671
0.000114407
0.000115136
0.000115857
0.00011657
0.000117277
0.000117976
0.000118668
0.000119353
0.00012003
0.000120701
0.000121364
0.00012202
0.000122669
0.000123311
0.000123946
0.000124575
0.000125196
0.00012581
0.000126418
0.000127018
0.000127612
0.000128199
0.000128779
0.000129353
0.00012992
0.00013048
0.000131033
0.00013158
0.000132121
0.000132655
0.000133182
0.000133703
0.000134217
0.000134725
0.000135227
0.000135722
0.000136211
0.000136694
0.000137171
0.000137641
0.000138105
0.000138563
0.000139015
0.000139461
0.0001399
0.000140334
0.000140762
0.000141183
0.000141599
0.000142009
0.000142413
0.000142811
0.000143203
0.00014359
0.000143971
0.000144346
0.000144715
0.000145079
0.000145437
0.000145789
0.000146136
0.000146478
0.000146814
0.000147144
0.000147469
0.000147789
0.000148103
0.000148412
0.000148715
0.000149014
0.000149307
0.000149594
0.000149877
0.000150154
0.000150427
0.000150694
0.000150956
0.000151213
0.000151465
0.000151712
0.000151954
0.000152191
0.000152423
0.000152651
0.000152873
0.000153091
0.000153304
0.000153512
0.000153715
0.000153914
0.000154108
0.000154297
0.000154482
0.000154662
0.000154838
0.000155009
0.000155175
0.000155337
0.000155495
0.000155648
0.000155797
0.000155941
0.000156081
0.000156217
0.000156349
0.000156476
0.000156599
0.000156718
0.000156832
0.000156943
0.000157049
0.000157151
0.00015725
0.000157344
0.000157434
0.00015752
0.000157602
0.00015768
0.000157754
0.000157824
0.00015789
0.000157951
0.000158004
0.000158048
0.000158076
0.000158088
0.000158091
0.000158092
0.000158093
0.000158093
0.000158093
0.000158092
0.000158092
0.000158091
0.000158092
0.000158092
0.000158092
0.000158093
0.000158092
0.000158091
0.000158088
0.000158083
0.00015808
0.00015808
0.00015808
0.000158082
0.000158083
0.000158082
0.000158081
0.000158079
0.00015808
0.000158079
0.00015808
0.00015808
0.000158079
0.000158078
0.000158078
0.000158077
0.000158077
0.000158076
0.000158076
0.000158076
0.000158076
0.000158075
0.000158075
0.000158075
0.000158075
0.000158074
0.000158074
0.000158074
0.000158073
0.000158073
0.000158073
0.000158072
0.000158072
0.000158071
0.000158071
0.000158071
0.00015807
0.00015807
0.00015807
0.000158069
0.000158069
0.000158068
0.000158068
0.000158068
0.000158067
0.000158067
0.000158067
0.000158066
0.000158066
0.000158066
0.000158065
0.000158065
0.000158065
0.000158064
0.000158064
0.000158063
0.000158063
0.000158062
0.000158062
0.000158061
0.000158061
0.00015806
0.00015806
0.000158059
0.000158059
0.000158058
0.000158057
0.000158057
0.000158056
0.000158056
0.000158055
0.000158054
0.000158054
0.000158053
0.000158052
0.000158052
0.000158051
0.00015805
0.00015805
0.000158049
0.000158048
0.000158048
0.000158047
0.000158046
0.000158046
0.000158045
0.000158044
0.000158043
0.000158042
0.000158042
0.000158041
0.00015804
0.000158039
0.000158038
0.000158037
0.000158036
0.000158035
0.000158034
0.000158033
0.000158031
0.00015803
0.000158029
0.000158028
0.000158027
0.000158026
0.000158025
0.000158024
0.000158022
0.000158021
0.000158019
0.000158018
0.000158017
0.000158015
0.000158013
0.000158012
0.00015801
0.000158008
0.000158007
0.000158005
0.000158003
0.000158001
0.000157999
0.000157997
0.000157995
0.000157993
0.000157991
0.000157988
0.000157986
0.000157984
0.000157981
0.000157978
0.000157976
0.000157973
0.00015797
0.000157967
0.000157964
0.000157961
0.000157957
0.000157954
0.00015795
0.000157946
0.000157942
0.000157938
0.000157933
0.000157929
0.000157924
0.000157918
0.000157912
0.000157906
0.000157899
0.000157891
0.000157881
0.000157869
0.000157853
0.000157833
0.000157805
0.000157767
0.000157716
0.000157645
0.000157547
0.000157414
0.000157235
0.000156997
0.000156683
0.000156276
0.000155755
0.000155099
0.000154284
0.000153288
0.000152092
0.000150677
0.000149031
0.000147148
0.000145029
0.000142684
0.000140133
0.000137403
0.000134529
0.000131554
0.000128523
0.000125485
0.000122489
0.000119581
0.000116804
0.000114193
0.000111779
0.000109584
0.000107619
0.000105892
0.000104401
0.000103136
0.000102084
0.000101227
0.000100542
0.000100008
9.95999e-05
9.92965e-05
9.90768e-05
9.89222e-05
9.88169e-05
9.87478e-05
9.87043e-05
9.86786e-05
9.86645e-05
9.86579e-05
9.86558e-05
9.86556e-05
9.86559e-05
9.86567e-05
9.86581e-05
9.86598e-05
9.86617e-05
9.86634e-05
9.8665e-05
9.86664e-05
9.86676e-05
9.86686e-05
9.86694e-05
9.86702e-05
9.86708e-05
9.86714e-05
9.8672e-05
9.86725e-05
9.8673e-05
9.86734e-05
9.86739e-05
9.86743e-05
9.86747e-05
9.86751e-05
9.86754e-05
9.86758e-05
9.86761e-05
9.86764e-05
9.86767e-05
9.8677e-05
9.86773e-05
9.86776e-05
9.86779e-05
9.86782e-05
9.86785e-05
9.86787e-05
9.8679e-05
9.86793e-05
9.86795e-05
9.86798e-05
9.86801e-05
9.86803e-05
9.86806e-05
9.86809e-05
9.86811e-05
9.86813e-05
9.86815e-05
9.86818e-05
9.86821e-05
9.86823e-05
9.86825e-05
9.86828e-05
9.8683e-05
9.86833e-05
9.86835e-05
9.86838e-05
9.86841e-05
9.86843e-05
9.86846e-05
9.86848e-05
9.8685e-05
9.86853e-05
9.86856e-05
9.86859e-05
9.86862e-05
9.86864e-05
9.86867e-05
9.8687e-05
9.86873e-05
9.86876e-05
9.86879e-05
9.86882e-05
9.86884e-05
9.86888e-05
9.86892e-05
9.86895e-05
9.86897e-05
9.869e-05
9.86904e-05
9.86907e-05
9.8691e-05
9.86913e-05
9.86917e-05
9.86921e-05
9.86924e-05
9.86927e-05
9.8693e-05
9.86933e-05
9.86937e-05
9.86941e-05
9.86944e-05
9.86947e-05
9.86951e-05
9.86955e-05
9.86959e-05
9.86962e-05
9.86965e-05
9.86968e-05
9.86973e-05
9.86977e-05
9.8698e-05
9.86983e-05
9.86987e-05
9.86992e-05
9.86996e-05
9.86999e-05
9.87002e-05
9.87007e-05
9.87014e-05
9.87018e-05
9.8702e-05
9.87022e-05
9.87028e-05
9.87036e-05
9.8704e-05
9.87041e-05
9.87043e-05
9.87053e-05
9.87067e-05
9.87069e-05
9.87066e-05
9.87058e-05
9.87061e-05
9.87067e-05
9.87057e-05
9.8699e-05
9.86919e-05
9.86827e-05
9.86647e-05
9.86283e-05
9.85558e-05
9.8418e-05
9.81562e-05
9.76643e-05
9.67367e-05
9.50004e-05
9.1794e-05
8.59915e-05
7.58793e-05
5.94066e-05
3.62416e-05
1.41981e-05
3.40847e-06
5.59061e-07
8.19366e-08
1.18669e-08
1.72005e-09
2.49585e-10
3.62384e-11
5.2631e-12
7.6448e-13
1.11049e-13
1.61312e-14
2.34325e-15
3.40297e-16
4.93752e-17
7.14218e-18
9.89334e-19
1.05032e-19
-6.77626e-21
3.38813e-21
-6.77626e-21
6.77626e-21
-1.35525e-20
-1.01644e-20
-1.35525e-20
-6.77626e-21
-4.06576e-20
-4.06576e-20
-9.14796e-20
-1.28749e-19
-1.49078e-19
-1.59242e-19
-1.69407e-19
-1.55854e-19
-1.21973e-19
-1.38913e-19
-1.42302e-19
-9.48677e-20
-1.21973e-19
-1.15196e-19
-1.11808e-19
-1.15196e-19
-9.48677e-20
-1.28749e-19
-7.11508e-20
-8.13152e-20
-4.40457e-20
-6.09864e-20
-2.37169e-20
)
;

boundaryField
{
    sides
    {
        type            calculated;
        value           uniform 0;
    }
    empty1
    {
        type            empty;
        value           nonuniform 0();
    }
    empty2
    {
        type            empty;
        value           nonuniform 0();
    }
}


// ************************************************************************* //
