/*--------------------------------*- C++ -*----------------------------------*\
  =========                 |
  \\      /  F ield         | OpenFOAM: The Open Source CFD Toolbox
   \\    /   O peration     | Website:  https://openfoam.org
    \\  /    A nd           | Version:  6
     \\/     M anipulation  |
\*---------------------------------------------------------------------------*/
FoamFile
{
    version     2.0;
    format      ascii;
    class       volScalarField;
    location    "0.25";
    object      T;
}
// * * * * * * * * * * * * * * * * * * * * * * * * * * * * * * * * * * * * * //

dimensions      [0 0 0 1 0 0 0];

internalField   nonuniform List<scalar> 
800
(
2.5
2.5
2.5
2.5
2.5
2.5
2.5
2.5
2.5
2.5
2.5
2.5
2.5
2.5
2.5
2.5
2.5
2.5
2.5
2.5
2.5
2.5
2.5
2.5
2.5
2.5
2.5
2.5
2.5
2.5
2.5
2.5
2.5
2.5
2.5
2.5
2.5
2.5
2.5
2.5
2.5
2.5
2.5
2.5
2.5
2.5
2.5
2.5
2.5
2.5
2.5
2.5
2.5
2.5
2.5
2.5
2.5
2.5
2.5
2.5
2.5
2.5
2.5
2.5
2.5
2.5
2.5
2.5
2.5
2.5
2.5
2.5
2.5
2.5
2.5
2.5
2.5
2.5
2.5
2.5
2.5
2.5
2.5
2.5
2.5
2.5
2.5
2.5
2.5
2.5
2.5
2.5
2.5
2.5
2.5
2.5
2.5
2.5
2.5
2.5
2.5
2.5
2.5
2.5
2.5
2.5
2.5
2.5
2.5
2.5
2.5
2.5
2.5
2.5
2.5
2.5
2.5
2.5
2.5
2.5
2.5
2.5
2.5
2.5
2.5
2.5
2.5
2.5
2.5
2.49999
2.49999
2.49999
2.49998
2.49997
2.49996
2.49994
2.49991
2.49988
2.49983
2.49977
2.49968
2.49958
2.49944
2.49926
2.49905
2.49878
2.49846
2.49807
2.49761
2.49707
2.49645
2.49573
2.49492
2.49401
2.49299
2.49187
2.49063
2.4893
2.48785
2.4863
2.48464
2.48289
2.48103
2.47908
2.47705
2.47493
2.47272
2.47044
2.46809
2.46567
2.46318
2.46063
2.45803
2.45538
2.45267
2.44993
2.44713
2.4443
2.44144
2.43853
2.4356
2.43264
2.42965
2.42663
2.42359
2.42053
2.41745
2.41435
2.41123
2.40809
2.40494
2.40178
2.3986
2.39541
2.39221
2.389
2.38578
2.38256
2.37932
2.37607
2.37282
2.36956
2.3663
2.36302
2.35975
2.35647
2.35318
2.34989
2.3466
2.3433
2.34
2.3367
2.33339
2.33009
2.32678
2.32346
2.32015
2.31683
2.31352
2.3102
2.30688
2.30356
2.30024
2.29692
2.2936
2.29027
2.28695
2.28363
2.28031
2.27698
2.27366
2.27034
2.26702
2.2637
2.26038
2.25706
2.25374
2.25042
2.2471
2.24378
2.24047
2.23715
2.23384
2.23053
2.22721
2.2239
2.22059
2.21729
2.21398
2.21067
2.20737
2.20407
2.20077
2.19747
2.19417
2.19087
2.18758
2.18429
2.181
2.17771
2.17442
2.17113
2.16785
2.16457
2.16129
2.15801
2.15473
2.15146
2.14819
2.14492
2.14165
2.13838
2.13512
2.13186
2.12859
2.12534
2.12208
2.11883
2.11558
2.11233
2.10908
2.10583
2.10259
2.09935
2.09611
2.09288
2.08964
2.08641
2.08318
2.07995
2.07673
2.07351
2.07029
2.06707
2.06386
2.06064
2.05743
2.05422
2.05102
2.04782
2.04462
2.04142
2.03822
2.03503
2.03184
2.02865
2.02546
2.02228
2.0191
2.01592
2.01275
2.00957
2.0064
2.00323
2.00007
1.9969
1.99374
1.99059
1.98743
1.98428
1.98113
1.97798
1.97484
1.97169
1.96855
1.96542
1.96228
1.95915
1.95602
1.95289
1.94977
1.94665
1.94353
1.94041
1.9373
1.93419
1.93108
1.92797
1.92487
1.92177
1.91867
1.91558
1.91249
1.9094
1.90631
1.90323
1.90014
1.89707
1.89399
1.89092
1.88785
1.88478
1.88171
1.87865
1.87559
1.87253
1.86948
1.86643
1.86338
1.86033
1.85729
1.85425
1.85121
1.84817
1.84514
1.84211
1.83908
1.83606
1.83304
1.83002
1.827
1.82399
1.82097
1.81796
1.81496
1.81195
1.80895
1.80595
1.80295
1.79996
1.79697
1.794
1.79104
1.78813
1.78534
1.78283
1.7809
1.7798
1.77939
1.77923
1.77915
1.7791
1.77909
1.77909
1.77909
1.77912
1.77914
1.77914
1.77912
1.77904
1.77898
1.77899
1.77909
1.77936
1.77967
1.77975
1.77972
1.77959
1.77943
1.77944
1.77948
1.7796
1.77971
1.77971
1.77968
1.77964
1.77963
1.77964
1.77967
1.7797
1.7797
1.77969
1.77969
1.7797
1.77971
1.77971
1.77971
1.77972
1.77972
1.77972
1.77972
1.77973
1.77973
1.77973
1.77973
1.77973
1.77973
1.77974
1.77974
1.77975
1.77975
1.77975
1.77975
1.77975
1.77976
1.77977
1.77977
1.77978
1.77978
1.77977
1.77978
1.77978
1.77979
1.77979
1.7798
1.7798
1.7798
1.7798
1.7798
1.77981
1.77982
1.77982
1.77983
1.77983
1.77984
1.77985
1.77985
1.77986
1.77986
1.77987
1.77987
1.77988
1.77988
1.77989
1.7799
1.7799
1.77991
1.77991
1.77992
1.77993
1.77993
1.77994
1.77994
1.77995
1.77996
1.77997
1.77997
1.77998
1.77999
1.78
1.78001
1.78002
1.78002
1.78003
1.78004
1.78006
1.78007
1.78008
1.78009
1.7801
1.78011
1.78012
1.78013
1.78014
1.78016
1.78017
1.78018
1.78019
1.7802
1.78022
1.78023
1.78024
1.78026
1.78027
1.78029
1.78031
1.78032
1.78034
1.78036
1.78038
1.7804
1.78042
1.78044
1.78045
1.78048
1.7805
1.78052
1.78054
1.78057
1.78059
1.78062
1.78064
1.78067
1.7807
1.78073
1.78076
1.78079
1.78082
1.78085
1.78089
1.78092
1.78096
1.781
1.78104
1.78108
1.78113
1.78117
1.78122
1.78128
1.78133
1.78139
1.78145
1.78152
1.7816
1.78168
1.78178
1.78191
1.78207
1.78227
1.78254
1.78291
1.78341
1.78411
1.78506
1.78637
1.78814
1.79052
1.79367
1.79781
1.80316
1.81
1.81862
1.82934
1.84249
1.85841
1.87742
1.89984
1.92592
1.95586
1.9898
2.02775
2.06963
2.11524
2.16419
2.21601
2.27003
2.32549
2.3815
2.43711
2.49135
2.54326
2.59199
2.63681
2.67716
2.7127
2.7433
2.76905
2.7902
2.80714
2.82038
2.83045
2.83791
2.84327
2.84701
2.84952
2.85115
2.85215
2.85272
2.85303
2.85316
2.85319
2.85319
2.85318
2.85315
2.85311
2.85306
2.85302
2.85297
2.85294
2.8529
2.85288
2.85286
2.85284
2.85282
2.85281
2.8528
2.85279
2.85278
2.85278
2.85277
2.85276
2.85276
2.85275
2.85275
2.85275
2.85274
2.85274
2.85274
2.85274
2.85273
2.85273
2.85273
2.85273
2.85273
2.85273
2.85273
2.85273
2.85273
2.85272
2.85272
2.85272
2.85272
2.85272
2.85272
2.85272
2.85272
2.85272
2.85272
2.85272
2.85272
2.85272
2.85272
2.85272
2.85272
2.85272
2.85272
2.85272
2.85272
2.85272
2.85272
2.85272
2.85272
2.85272
2.85271
2.85272
2.85272
2.85272
2.85271
2.85271
2.85272
2.85272
2.85272
2.85272
2.85272
2.85272
2.85272
2.85272
2.85272
2.85272
2.85272
2.85272
2.85272
2.85272
2.85272
2.85273
2.85273
2.85273
2.85273
2.85273
2.85273
2.85273
2.85274
2.85274
2.85274
2.85274
2.85274
2.85274
2.85274
2.85274
2.85274
2.85275
2.85275
2.85275
2.85275
2.85275
2.85276
2.85276
2.85276
2.85275
2.85275
2.85277
2.85278
2.85277
2.85276
2.85276
2.85279
2.8528
2.85277
2.85275
2.85276
2.85281
2.85282
2.85278
2.85272
2.85273
2.85278
2.85272
2.85257
2.85241
2.85221
2.85176
2.85076
2.84888
2.84543
2.83887
2.82629
2.80206
2.75534
2.66624
2.50686
2.28189
2.09269
2.01667
2.00258
2.00038
2.00006
2.00001
2
2
2
2
2
2
2
2
2
2
2
2
2
2
2
2
2
2
2
2
2
2
2
2
2
2
2
2
2
2
2
2
2
2
2
2
2
2
2
2
2
2
2
)
;

boundaryField
{
    sides
    {
        type            zeroGradient;
    }
    empty1
    {
        type            empty;
    }
    empty2
    {
        type            empty;
    }
}


// ************************************************************************* //
