/*--------------------------------*- C++ -*----------------------------------*\
| =========                 |                                                 |
| \\      /  F ield         | OpenFOAM: The Open Source CFD Toolbox           |
|  \\    /   O peration     | Version:  3.0.1                                 |
|   \\  /    A nd           | Web:      www.OpenFOAM.org                      |
|    \\/     M anipulation  |                                                 |
\*---------------------------------------------------------------------------*/
FoamFile
{
    version     2.0;
    format      ascii;
    class       surfaceScalarField;
    location    "0.00025";
    object      phi;
}
// * * * * * * * * * * * * * * * * * * * * * * * * * * * * * * * * * * * * * //

dimensions      [1 0 -1 0 0 0 0];

internalField   nonuniform List<scalar> 
1890
(
8.32667e-17
2.60209e-17
1.42247e-16
-5.72459e-17
2.42861e-16
-1.73472e-17
2.28983e-16
8.67362e-18
1.31839e-16
-5.20417e-18
9.02056e-17
7.97973e-17
2.60209e-16
2.94903e-17
7.97973e-17
2.60209e-17
-1.42247e-16
1.12757e-16
4.16334e-17
-1.49186e-16
-1.38778e-17
1.64799e-16
2.22045e-16
-5.89806e-17
1.46064e-15
1.49186e-16
3.44273e-14
-3.86843e-16
8.27713e-13
1.52135e-15
2.01713e-11
-2.57259e-15
4.89963e-10
-1.14665e-15
1.18731e-08
-5.66075e-14
2.83718e-07
-1.25904e-12
6.26166e-06
-2.8617e-11
9.53356e-05
-4.46192e-10
0.000534532
-2.50746e-09
0.00105363
-4.46213e-09
0.00134316
-5.45851e-09
0.00152252
-1.74464e-09
0.00163838
-1.6873e-09
0.00171017
-8.35028e-10
0.00175128
5.45725e-10
0.00177285
1.78237e-09
0.00178323
2.34544e-09
0.00178781
1.94948e-09
0.00178967
1.83956e-09
0.00179035
1.04031e-09
0.00179054
9.00404e-10
0.00179058
5.04745e-10
0.00179057
-3.94621e-11
0.00179054
-6.84932e-10
0.00179055
-1.61832e-09
0.00179056
-2.43263e-09
0.00179057
-3.92716e-09
0.00179056
-6.55738e-09
0.00179054
-1.00548e-08
0.00179057
-1.77529e-08
0.00179069
-2.14978e-08
0.00179095
-4.56796e-08
0.00179124
-4.24773e-08
0.00179146
-5.87682e-08
0.00179113
-5.22223e-08
0.0017889
-4.98478e-08
0.00178248
-1.70125e-08
0.00177014
1.37868e-08
0.0017531
4.47124e-08
0.0017358
5.68849e-08
0.00172279
6.86843e-08
0.00171562
4.84156e-08
0.00171279
2.80542e-08
0.00171197
1.71102e-08
0.00171169
1.15748e-08
0.00171154
1.3353e-08
0.00171156
5.28748e-09
0.00171164
1.53988e-09
0.00171164
7.39353e-10
0.00171161
2.47582e-10
0.00171154
1.03099e-09
0.00171143
1.6099e-09
0.0017113
2.47187e-09
0.00171119
1.08018e-09
0.00171111
1.51885e-09
0.00171101
9.82925e-10
0.00171078
4.6129e-10
0.00171009
-1.23539e-10
0.00170817
-5.72478e-10
0.00170326
-5.89146e-10
0.00169161
-1.52773e-09
0.00166585
-1.79977e-09
0.00161217
-1.10027e-09
0.00150613
-2.13935e-10
0.0013
6.38449e-10
0.000848738
2.39253e-09
0.000220141
1.93839e-09
1.64402e-05
5.29906e-10
7.10828e-07
3.97681e-11
2.73936e-08
1.63176e-12
1.03633e-09
5.91914e-14
3.90941e-11
2.80158e-16
1.47443e-12
1.02349e-15
5.53585e-14
-8.67362e-19
2.12157e-15
5.9848e-17
-6.76542e-17
5.37764e-17
-1.42247e-16
5.11743e-17
-1.07553e-16
-5.0307e-17
-2.77556e-17
-1.21431e-17
-1.04083e-17
1.56125e-17
3.98986e-17
1.47451e-17
-5.89806e-17
1.22298e-16
7.97973e-17
-5.9848e-17
1.09288e-16
1.04083e-17
2.75821e-16
-1.5786e-16
3.98986e-16
-5.55112e-17
-2.14238e-16
5.0307e-16
4.30211e-16
3.01842e-16
1.9082e-16
9.02056e-17
2.13371e-16
2.08167e-17
1.14492e-16
-2.77556e-17
5.0307e-17
4.16334e-17
6.59195e-17
9.71445e-17
2.42861e-17
1.04083e-16
1.9082e-17
1.56125e-16
8.84709e-17
-2.01228e-16
1.83881e-16
-7.28584e-17
2.87964e-16
-1.17961e-16
-6.59195e-17
2.21004e-15
-9.19403e-17
3.37785e-14
3.62557e-16
8.32053e-13
-1.17961e-16
2.01626e-11
-4.85723e-17
4.8992e-10
-4.98906e-15
1.1872e-08
-1.05294e-13
2.83691e-07
-2.2893e-12
6.26109e-06
-4.78877e-11
9.53289e-05
-7.20569e-10
0.000534516
-4.60841e-09
0.00105363
-9.62088e-09
0.00134316
-8.20825e-09
0.00152252
-5.60953e-09
0.00163839
-2.9917e-09
0.00171018
-4.2538e-10
0.00175129
1.61493e-09
0.00177285
3.8813e-09
0.00178323
4.1967e-09
0.00178781
2.30845e-09
0.00178967
2.53613e-09
0.00179035
2.27816e-09
0.00179054
1.74501e-09
0.00179057
1.15666e-09
0.00179056
8.7453e-11
0.00179053
-3.32832e-10
0.00179054
-1.3416e-09
0.00179055
-2.39457e-09
0.00179055
-4.34002e-09
0.00179054
-5.89144e-09
0.00179051
-8.07649e-09
0.00179051
-1.24728e-08
0.00179061
-1.81548e-08
0.00179081
-2.48416e-08
0.00179105
-3.13233e-08
0.00179119
-3.68764e-08
0.00179076
-1.25755e-08
0.00178846
-2.48264e-08
0.00178201
-5.7392e-09
0.00176969
1.1494e-08
0.00175272
2.64968e-08
0.0017355
2.59087e-08
0.00172263
1.16172e-09
0.00171556
1.01526e-08
0.00171277
1.89657e-08
0.00171197
1.70316e-08
0.00171168
1.93617e-08
0.00171155
1.57058e-08
0.00171158
1.1897e-08
0.00171165
7.45476e-09
0.00171165
6.97631e-09
0.00171161
3.23782e-09
0.00171155
4.15388e-09
0.00171144
3.01342e-09
0.0017113
4.18835e-09
0.00171119
3.62181e-09
0.0017111
3.47145e-09
0.001711
2.54323e-09
0.00171077
1.76015e-09
0.00171009
6.09165e-10
0.00170817
-4.74423e-10
0.00170326
-1.23588e-09
0.00169161
-1.79347e-09
0.00166585
-2.65945e-09
0.00161218
-1.80216e-09
0.00150614
-2.84182e-10
0.00130001
1.60281e-09
0.000848732
3.00473e-09
0.000220135
2.8376e-09
1.64394e-05
6.42459e-10
7.10793e-07
4.79435e-11
2.73923e-08
2.20645e-12
1.03629e-09
9.57368e-14
3.90897e-11
3.35149e-15
1.47455e-12
2.22912e-16
5.51208e-14
2.83627e-16
2.13371e-15
-4.25007e-17
2.81025e-16
-1.38778e-17
1.38778e-17
1.0842e-16
-1.07553e-16
7.89299e-17
-1.49186e-16
9.28077e-17
-1.00614e-16
3.64292e-17
-9.02056e-17
-6.07153e-18
2.08167e-17
-5.0307e-17
6.59195e-17
-8.41341e-17
2.11636e-16
6.245e-17
-1.21431e-17
-9.71445e-17
-4.68375e-17
3.29597e-17
-1.76942e-16
-1.63064e-16
3.1572e-16
-3.1225e-17
1.17961e-16
5.89806e-17
1.59595e-16
6.59195e-17
8.32667e-17
1.04083e-17
1.12757e-16
2.77556e-17
6.59195e-17
4.16334e-17
5.20417e-18
4.16334e-17
8.67362e-17
1.83881e-16
-2.25514e-17
2.5327e-16
1.21431e-16
5.72459e-16
-1.11022e-16
1.04083e-17
2.7929e-16
1.20737e-15
6.93889e-17
3.41636e-14
1.83881e-16
8.2976e-13
-3.66027e-16
2.01609e-11
2.56739e-16
4.89814e-10
-6.81226e-15
1.18695e-08
-1.17101e-13
2.83636e-07
-2.78713e-12
6.26e-06
-6.146e-11
9.53171e-05
-9.83072e-10
0.000534494
-6.57539e-09
0.00105363
-1.33926e-08
0.00134318
-1.23788e-08
0.00152254
-7.71e-09
0.0016384
-2.69821e-09
0.00171018
8.2427e-10
0.00175129
2.80785e-09
0.00177285
3.35872e-09
0.00178323
3.87947e-09
0.00178781
3.18167e-09
0.00178967
2.40163e-09
0.00179034
1.79538e-09
0.00179054
1.12936e-09
0.00179057
5.60306e-10
0.00179056
-5.26514e-10
0.00179053
-1.79072e-09
0.00179054
-3.81054e-09
0.00179056
-5.33082e-09
0.00179057
-7.77542e-09
0.00179056
-1.01095e-08
0.00179054
-1.14754e-08
0.00179054
-1.31002e-08
0.00179064
-1.35414e-08
0.00179085
-1.40347e-08
0.00179108
-1.77205e-08
0.00179123
-1.65317e-08
0.00179082
1.34591e-08
0.00178851
4.16339e-09
0.00178206
-1.29119e-09
0.00176975
3.45426e-09
0.00175278
7.50589e-09
0.00173554
2.28972e-08
0.00172258
1.56262e-08
0.00171547
8.69357e-09
0.00171268
2.46971e-09
0.0017119
3.82972e-09
0.00171164
2.26541e-09
0.00171152
6.40717e-09
0.00171156
6.1742e-09
0.00171164
7.14291e-09
0.00171165
8.68513e-09
0.00171161
5.72115e-09
0.00171154
6.81498e-09
0.00171143
3.57384e-09
0.0017113
4.23184e-09
0.00171119
3.20353e-09
0.0017111
3.32063e-09
0.001711
2.93048e-09
0.00171077
2.63099e-09
0.00171009
1.81681e-09
0.00170817
8.14148e-10
0.00170326
-3.79003e-10
0.00169161
-1.50157e-09
0.00166585
-1.8349e-09
0.00161218
-1.65251e-09
0.00150615
-4.86065e-11
0.00130002
2.53497e-09
0.000848731
4.79685e-09
0.000220127
3.67163e-09
1.64383e-05
7.98216e-10
7.10733e-07
5.71979e-11
2.73898e-08
2.63805e-12
1.0362e-09
1.02873e-13
3.9086e-11
6.49567e-15
1.47347e-12
-2.00361e-16
5.52926e-14
1.75207e-16
1.97238e-15
5.20417e-18
-5.20417e-18
8.58688e-17
-5.55112e-17
-1.56125e-17
-9.71445e-17
1.56125e-16
-3.81639e-17
2.25514e-17
7.11237e-17
5.20417e-18
2.41127e-16
3.46945e-18
-2.94903e-17
1.01481e-16
-5.55112e-17
-1.21431e-17
-5.20417e-18
1.12757e-17
-2.25514e-17
-9.36751e-17
9.88792e-17
-5.11743e-17
-9.28077e-17
-1.56125e-16
1.82146e-16
-1.45717e-16
1.00614e-16
-1.38778e-16
1.52656e-16
-1.11022e-16
8.67362e-17
-9.02056e-17
1.00614e-16
-1.38778e-17
5.72459e-17
-3.1225e-17
7.28584e-17
1.11022e-16
7.63278e-17
1.73472e-16
-2.77556e-17
-2.42861e-17
1.35308e-16
-1.45717e-16
-3.29597e-17
2.46331e-16
1.02349e-16
1.80411e-15
-9.54098e-17
3.46355e-14
2.15106e-16
8.28015e-13
2.08167e-16
2.01579e-11
-1.16226e-15
4.89667e-10
-5.49387e-15
1.18662e-08
-1.41477e-13
2.83559e-07
-3.3579e-12
6.25845e-06
-7.36884e-11
9.53002e-05
-1.17878e-09
0.000534462
-7.91472e-09
0.00105363
-1.62299e-08
0.0013432
-1.46842e-08
0.00152255
-8.56655e-09
0.00163841
-2.39863e-09
0.00171019
1.68646e-09
0.00175129
3.86568e-09
0.00177285
4.83471e-09
0.00178323
3.05902e-09
0.00178781
2.48109e-09
0.00178967
1.94007e-09
0.00179034
1.25395e-09
0.00179054
1.09417e-09
0.00179057
7.42314e-10
0.00179055
2.77722e-10
0.00179052
-4.38783e-11
0.00179053
-8.19551e-10
0.00179054
-1.70948e-09
0.00179054
-2.99474e-09
0.00179052
-4.52851e-09
0.00179049
-6.50496e-09
0.00179049
-9.66116e-09
0.0017906
-1.15118e-08
0.00179081
-1.12976e-08
0.00179105
-1.15574e-08
0.00179121
-8.94634e-09
0.00179084
6.06849e-09
0.00178856
9.56116e-09
0.00178211
1.12257e-08
0.00176978
1.07642e-08
0.0017528
1.8796e-09
0.00173557
-1.40623e-09
0.00172264
8.00161e-10
0.00171554
-4.02399e-09
0.00171273
1.49893e-09
0.00171193
6.64369e-09
0.00171166
7.80099e-09
0.00171153
6.10334e-09
0.00171156
7.64405e-09
0.00171163
7.10309e-09
0.00171164
8.43479e-09
0.0017116
4.8696e-09
0.00171153
6.33533e-09
0.00171142
2.88585e-09
0.00171129
4.0381e-09
0.00171118
2.78519e-09
0.00171109
3.17516e-09
0.00171099
2.77385e-09
0.00171076
2.50761e-09
0.00171008
1.664e-09
0.00170816
6.72365e-10
0.00170325
-4.63167e-10
0.00169161
-1.46419e-09
0.00166585
-2.25505e-09
0.00161219
-1.30391e-09
0.00150616
4.33159e-10
0.00130003
3.35366e-09
0.000848727
5.6132e-09
0.000220116
4.44729e-09
1.64367e-05
9.55855e-10
7.10655e-07
6.79945e-11
2.73865e-08
3.07649e-12
1.03606e-09
1.2424e-13
3.90816e-11
6.1149e-15
1.47342e-12
2.73219e-16
5.55112e-14
5.20417e-17
2.09381e-15
-2.68882e-17
2.15106e-16
1.4138e-16
-9.71445e-17
-6.07153e-17
-9.71445e-17
1.79544e-16
-3.29597e-17
-3.38271e-17
-2.02963e-16
1.78677e-16
-2.32453e-16
6.41848e-17
-1.63064e-16
7.45931e-17
-2.22045e-16
9.80119e-17
-2.96638e-16
1.0842e-16
-5.20417e-16
1.58727e-16
-8.04912e-16
1.30104e-16
2.60209e-17
-5.41234e-16
-1.73472e-18
-4.85723e-16
-4.33681e-17
-2.74086e-16
-3.34802e-16
-1.66533e-16
-3.98986e-17
-7.28584e-17
-6.93889e-18
-1.31839e-16
2.25514e-17
1.00614e-16
-3.46945e-17
2.87964e-16
9.02056e-17
1.63064e-16
-7.28584e-17
3.81639e-17
1.43982e-16
2.42861e-17
-3.64292e-17
6.93889e-17
1.12757e-16
1.35308e-15
-1.56125e-17
3.4632e-14
5.55112e-17
8.28653e-13
-6.41848e-17
2.01486e-11
-5.37764e-17
4.89503e-10
-6.89726e-15
1.18623e-08
-1.39694e-13
2.83467e-07
-3.37317e-12
6.25658e-06
-7.4809e-11
9.52799e-05
-1.21198e-09
0.000534423
-8.25338e-09
0.00105364
-1.72786e-08
0.00134322
-1.60405e-08
0.00152258
-1.00609e-08
0.00163843
-3.33743e-09
0.00171019
1.58677e-09
0.00175129
4.14823e-09
0.00177285
3.86039e-09
0.00178322
2.69212e-09
0.00178781
1.9726e-09
0.00178967
1.53836e-09
0.00179034
1.3955e-09
0.00179053
1.35147e-09
0.00179056
1.13963e-09
0.00179055
3.23818e-10
0.00179052
5.77073e-11
0.00179053
-7.27581e-10
0.00179054
-1.00749e-09
0.00179055
-1.84285e-09
0.00179053
-2.61271e-09
0.0017905
-3.37997e-09
0.0017905
-4.22242e-09
0.0017906
-4.64246e-09
0.00179081
-4.06785e-09
0.00179105
-4.5957e-09
0.00179121
-3.26026e-09
0.00179084
6.09222e-10
0.00178857
2.96421e-09
0.00178215
3.73337e-09
0.00176984
3.12263e-09
0.00175285
-7.8015e-10
0.00173559
-2.10084e-09
0.00172264
-7.75623e-10
0.00171551
-1.09254e-08
0.00171269
1.16938e-08
0.00171189
7.70462e-09
0.00171163
8.65999e-09
0.00171151
-4.13085e-09
0.00171154
-7.88889e-09
0.00171162
2.96592e-09
0.00171163
1.34914e-09
0.0017116
-4.21955e-09
0.00171154
2.38149e-09
0.00171143
9.56966e-10
0.0017113
2.3519e-09
0.00171118
1.14121e-09
0.0017111
1.33175e-09
0.00171099
1.20836e-09
0.00171076
1.17668e-09
0.00171008
7.93961e-10
0.00170816
-2.44943e-11
0.00170325
-6.52005e-10
0.0016916
-7.55135e-10
0.00166585
-2.41287e-09
0.0016122
-4.6771e-10
0.00150618
1.97087e-09
0.00130004
4.9418e-09
0.000848723
7.3642e-09
0.000220102
5.06165e-09
1.64349e-05
1.06811e-09
7.10562e-07
7.50972e-11
2.73827e-08
3.35435e-12
1.03591e-09
1.31841e-13
3.90749e-11
7.36564e-15
1.47371e-12
-4.571e-16
5.51278e-14
5.10009e-16
1.90473e-15
-1.10155e-16
3.1225e-17
1.02349e-16
-9.71445e-17
-7.80626e-18
-3.98986e-17
1.31839e-16
-8.1532e-17
-6.93889e-18
-5.20417e-18
9.54098e-17
2.77556e-17
4.33681e-17
-3.1225e-17
9.62772e-17
-1.16226e-16
1.59595e-16
-3.98986e-17
1.30972e-16
-1.42247e-16
2.58474e-16
-7.97973e-17
1.43115e-16
3.76435e-16
-3.46945e-17
-1.99493e-16
-1.249e-16
0
-1.04083e-16
-6.76542e-17
-2.28983e-16
9.02056e-17
-1.52656e-16
-6.07153e-17
-1.249e-16
-1.73472e-18
-9.02056e-17
3.1225e-17
3.43475e-16
-2.25514e-17
-5.55112e-17
8.84709e-17
2.04697e-16
-1.50921e-16
-6.59195e-17
3.20924e-16
1.49186e-16
-9.54098e-17
1.2039e-15
2.13371e-16
3.43579e-14
-1.31839e-16
8.27713e-13
3.83374e-16
2.01433e-11
-6.01949e-16
4.89337e-10
-6.09929e-15
1.18583e-08
-1.13364e-13
2.83375e-07
-2.77702e-12
6.25468e-06
-6.24288e-11
9.52587e-05
-1.0314e-09
0.000534381
-7.23725e-09
0.00105364
-1.60521e-08
0.00134325
-1.54007e-08
0.00152261
-1.14912e-08
0.00163844
-5.97415e-09
0.0017102
-6.26e-10
0.00175129
3.12849e-09
0.00177284
4.18901e-09
0.00178322
3.65958e-09
0.0017878
3.00836e-09
0.00178966
2.48224e-09
0.00179033
2.56013e-09
0.00179053
2.78581e-09
0.00179056
2.91604e-09
0.00179055
1.94661e-09
0.00179051
2.07797e-09
0.00179052
1.59232e-09
0.00179053
1.34146e-09
0.00179053
6.84157e-10
0.00179052
4.4952e-10
0.00179049
6.08094e-10
0.00179049
9.53748e-10
0.00179059
5.24836e-10
0.0017908
-4.84753e-11
0.00179105
-1.86275e-09
0.00179121
-2.70752e-09
0.00179085
-1.2896e-08
0.00178859
-1.29038e-08
0.00178218
-1.15056e-08
0.00176987
-7.80687e-09
0.00175287
5.40825e-09
0.0017356
9.00662e-09
0.00172264
1.86903e-08
0.00171551
1.24814e-08
0.00171271
1.16673e-08
0.00171191
8.77271e-09
0.00171163
6.75597e-09
0.0017115
1.89163e-09
0.00171154
-2.03033e-09
0.00171162
-5.25387e-10
0.00171163
-3.77955e-10
0.00171159
-1.50975e-09
0.00171153
-1.50012e-09
0.00171142
-2.45544e-09
0.00171129
-2.58631e-09
0.00171117
-3.53827e-09
0.00171109
-4.02331e-09
0.00171099
-4.25595e-09
0.00171076
-4.2855e-09
0.00171007
-2.34289e-09
0.00170815
-1.01382e-09
0.00170325
-4.06058e-09
0.0016916
-1.54173e-09
0.00166585
-1.14211e-09
0.0016122
1.21951e-09
0.00150619
4.37343e-09
0.00130006
7.02319e-09
0.000848714
8.13219e-09
0.000220087
5.23176e-09
1.64329e-05
1.03138e-09
7.10464e-07
7.00897e-11
2.73787e-08
3.10523e-12
1.03574e-09
1.31242e-13
3.90714e-11
4.55191e-15
1.47237e-12
4.44089e-16
5.55805e-14
4.59702e-17
1.83881e-15
2.35055e-16
-1.21431e-17
-6.07153e-17
-8.50015e-17
4.59702e-17
9.54098e-17
-1.56125e-17
5.89806e-17
9.19403e-17
1.49186e-16
1.0842e-16
2.08167e-17
1.07553e-16
-5.72459e-17
1.34441e-16
1.56125e-17
1.37043e-16
3.46945e-18
1.58727e-16
3.29597e-17
2.73219e-16
-6.07153e-17
2.61943e-16
4.33681e-16
-5.55112e-17
-9.36751e-17
-4.16334e-17
-6.76542e-17
-4.16334e-17
-1.05818e-16
1.21431e-16
-3.98986e-17
5.55112e-17
-3.46945e-18
5.55112e-17
1.21431e-17
-4.16334e-17
1.21431e-16
5.89806e-17
-6.93889e-17
-3.81639e-17
1.47451e-16
-1.2837e-16
-5.55112e-17
-3.81639e-17
3.01842e-16
2.74086e-16
-3.95517e-16
1.7486e-15
1.70003e-16
3.45696e-14
-3.24393e-16
8.27161e-13
1.25767e-15
2.01401e-11
-2.97679e-15
4.89197e-10
1.79717e-15
1.1855e-08
-8.42486e-14
2.83297e-07
-1.83972e-12
6.25307e-06
-4.16016e-11
9.52401e-05
-6.89809e-10
0.00053434
-4.98577e-09
0.00105363
-1.20042e-08
0.00134327
-1.54845e-08
0.00152263
-1.1934e-08
0.00163846
-9.25373e-09
0.00171021
-4.77877e-09
0.00175129
8.12257e-12
0.00177284
3.16683e-09
0.00178322
4.40497e-09
0.0017878
4.22437e-09
0.00178966
5.31671e-09
0.00179034
4.23003e-09
0.00179053
3.85978e-09
0.00179056
4.01498e-09
0.00179055
3.64305e-09
0.00179052
3.42791e-09
0.00179052
3.05455e-09
0.00179054
2.69625e-09
0.00179054
2.14715e-09
0.00179052
1.44003e-09
0.0017905
7.01069e-10
0.0017905
-2.95367e-10
0.00179061
-6.55891e-10
0.00179082
4.30835e-10
0.00179107
-5.03853e-10
0.00179123
9.24587e-10
0.00179084
-6.82952e-09
0.00178856
-1.75911e-09
0.00178211
1.09294e-08
0.00176977
7.26542e-09
0.00175278
7.85162e-09
0.00173555
-1.24277e-08
0.00172262
4.18868e-09
0.00171553
1.24508e-09
0.00171273
1.12281e-08
0.00171193
1.16085e-08
0.00171165
1.05541e-08
0.00171152
8.36859e-09
0.00171155
6.05553e-09
0.00171163
3.24016e-09
0.00171164
2.02309e-09
0.0017116
-1.31751e-10
0.00171153
-1.44793e-09
0.00171142
-2.39291e-09
0.00171129
-3.06834e-09
0.00171117
-4.08366e-09
0.00171109
-8.35294e-09
0.00171099
-5.59184e-09
0.00171076
-8.9986e-09
0.00171007
-7.60104e-09
0.00170815
-6.42918e-09
0.00170325
-4.99957e-09
0.00169161
-3.19203e-09
0.00166586
-1.50839e-11
0.00161222
3.74886e-09
0.0015062
7.1189e-09
0.00130006
8.50062e-09
0.0008487
8.39013e-09
0.000220071
4.39681e-09
1.64311e-05
7.8367e-10
7.10374e-07
5.14153e-11
2.73751e-08
2.16833e-12
1.0356e-09
9.0053e-14
3.90667e-11
2.80158e-15
1.47228e-12
1.17181e-15
5.50723e-14
-2.74086e-16
2.41994e-15
-1.10155e-16
1.63064e-16
9.28077e-17
-4.16334e-17
1.73472e-16
-5.72459e-17
-5.20417e-18
1.8735e-16
2.60209e-18
1.64799e-16
2.77556e-17
1.04083e-16
5.46438e-17
1.43982e-16
1.04083e-16
1.89085e-16
1.31839e-16
2.13371e-16
1.56992e-16
3.64292e-16
1.77809e-16
4.82253e-16
2.08167e-16
2.21177e-16
1.83881e-16
-6.93889e-18
9.36751e-17
5.72459e-17
1.73472e-17
-1.38778e-17
-1.31839e-16
1.73472e-17
-1.59595e-16
1.73472e-18
-1.49186e-16
2.77556e-17
-9.36751e-17
3.29597e-17
-2.84495e-16
1.30104e-16
1.97758e-16
-4.33681e-17
-7.63278e-17
-1.9082e-17
2.42861e-16
1.9082e-17
-1.97758e-16
-1.56125e-17
1.29063e-15
1.26635e-16
3.33067e-14
-2.68882e-16
8.3054e-13
-3.33067e-16
2.01285e-11
8.67362e-16
4.89122e-10
-6.55552e-15
1.18528e-08
-3.7189e-14
2.83244e-07
-1.0753e-12
6.25195e-06
-2.37673e-11
9.52271e-05
-3.90345e-10
0.000534308
-2.82495e-09
0.00105362
-7.22446e-09
0.00134327
-1.034e-08
0.00152265
-9.10936e-09
0.00163848
-8.73605e-09
0.00171023
-6.73014e-09
0.0017513
-3.23903e-09
0.00177285
-3.23119e-10
0.00178322
1.8619e-09
0.0017878
4.0468e-09
0.00178966
7.68242e-09
0.00179033
2.19612e-09
0.00179053
4.03084e-09
0.00179056
5.51608e-09
0.00179054
4.73313e-09
0.00179051
4.24636e-09
0.00179052
4.10169e-09
0.00179053
3.90267e-09
0.00179053
3.64404e-09
0.00179052
3.30702e-09
0.00179049
3.22737e-09
0.00179049
2.65676e-09
0.00179059
2.00967e-09
0.0017908
1.40011e-09
0.00179105
1.129e-10
0.00179122
-4.6602e-10
0.00179083
-8.06735e-09
0.00178857
-1.48092e-08
0.00178214
-5.93457e-09
0.00176983
-1.90346e-09
0.00175285
9.11903e-09
0.00173558
1.18753e-08
0.00172261
2.93501e-08
0.00171549
1.78628e-08
0.00171268
1.48179e-08
0.00171189
1.02661e-08
0.00171162
6.39373e-09
0.00171149
5.74684e-09
0.00171153
2.13502e-09
0.00171161
1.21218e-09
0.00171163
-1.96649e-09
0.00171159
-1.88981e-09
0.00171153
-6.16038e-09
0.00171142
-4.20303e-09
0.00171129
-7.62648e-09
0.00171118
-6.28424e-09
0.00171109
-9.47181e-09
0.00171099
-9.38817e-09
0.00171076
-1.03831e-08
0.00171008
-9.55113e-09
0.00170816
-7.89189e-09
0.00170326
-5.62248e-09
0.00169162
-2.69055e-09
0.00166588
1.01268e-09
0.00161223
5.16679e-09
0.00150621
7.69833e-09
0.00130006
8.7492e-09
0.000848681
6.57403e-09
0.000220058
2.8544e-09
1.64296e-05
4.37252e-10
7.10311e-07
2.23531e-11
2.73727e-08
5.97734e-13
1.03552e-09
8.31366e-15
3.90616e-11
-1.26375e-15
1.47183e-12
9.57567e-16
5.61877e-14
-8.50882e-16
1.87524e-15
3.73833e-16
3.46945e-16
-9.28077e-17
2.93168e-16
3.81639e-17
1.76942e-16
-1.73472e-17
1.63064e-16
1.23165e-16
1.56125e-16
5.55112e-17
8.32667e-17
1.11022e-16
2.04697e-16
-3.46945e-18
1.9082e-16
1.29237e-16
2.30718e-16
1.24033e-16
2.48065e-16
1.84748e-16
2.84495e-16
1.39645e-16
2.17708e-16
8.32667e-17
-1.73472e-18
1.70003e-16
-9.54098e-17
6.59195e-17
1.73472e-18
1.14492e-16
1.21431e-17
2.42861e-17
2.94903e-17
-3.81639e-17
1.73472e-17
-3.1225e-17
1.38778e-17
1.21431e-16
-4.16334e-17
1.52656e-16
-7.63278e-17
2.42861e-17
9.19403e-17
4.16334e-17
1.05818e-16
9.02056e-17
-5.72459e-17
1.76942e-15
-8.67362e-18
3.35496e-14
-2.77556e-17
8.27852e-13
3.10516e-16
2.01326e-11
-1.43809e-15
4.89057e-10
2.81025e-16
1.18515e-08
-2.7419e-14
2.83214e-07
-5.45891e-13
6.25133e-06
-1.20793e-11
9.52197e-05
-1.9736e-10
0.000534289
-1.31432e-09
0.00105361
-3.04521e-09
0.00134327
-4.46859e-09
0.00152265
-6.37509e-09
0.00163849
-5.68486e-09
0.00171024
-5.72792e-09
0.00175132
-2.32661e-09
0.00177286
-1.70495e-09
0.00178322
-1.1056e-09
0.0017878
4.703e-10
0.00178966
2.12801e-09
0.00179033
1.86037e-09
0.00179053
2.90928e-09
0.00179056
3.523e-09
0.00179054
3.24825e-09
0.00179051
2.67114e-09
0.00179052
3.31614e-09
0.00179053
3.029e-09
0.00179053
2.43638e-09
0.00179052
1.52219e-09
0.00179049
7.67793e-10
0.0017905
-2.83772e-10
0.00179061
-9.38463e-10
0.00179082
-1.23938e-09
0.00179107
-7.08229e-10
0.00179124
-1.15897e-09
0.00179084
8.6017e-10
0.00178855
1.03616e-09
0.00178209
5.52961e-09
0.00176976
4.50319e-09
0.00175278
3.45538e-09
0.00173554
2.56617e-09
0.00172262
3.93091e-09
0.00171552
4.73934e-09
0.00171272
6.16153e-09
0.00171193
5.87054e-09
0.00171165
5.38314e-09
0.00171152
4.49772e-09
0.00171155
3.16359e-09
0.00171162
1.29798e-09
0.00171163
-2.77948e-10
0.00171159
-9.4513e-10
0.00171152
-3.39738e-09
0.00171141
-2.50429e-09
0.00171128
-6.85706e-09
0.00171117
-5.54837e-09
0.00171109
-7.45427e-09
0.00171099
-7.56951e-09
0.00171076
-8.30436e-09
0.00171008
-6.72123e-09
0.00170817
-4.62099e-09
0.00170327
-2.12245e-09
0.00169164
2.59265e-10
0.0016659
1.81719e-09
0.00161224
1.87139e-09
0.00150621
5.99233e-09
0.00130005
4.9183e-09
0.000848662
3.06151e-09
0.000220048
1.07969e-09
1.64289e-05
1.17169e-10
7.10282e-07
4.46976e-12
2.73719e-08
1.10049e-13
1.03551e-09
4.08267e-15
3.90584e-11
-5.55979e-16
1.4737e-12
-3.60822e-16
5.47028e-14
3.96384e-16
2.27769e-15
-2.74954e-16
3.57353e-16
3.38271e-17
-9.19403e-17
6.93889e-17
-7.97973e-17
2.1684e-17
8.50015e-17
-9.54098e-18
2.74086e-16
-7.71952e-17
3.55618e-16
3.64292e-17
3.41741e-16
4.0766e-17
3.10516e-16
8.84709e-17
4.11129e-16
-3.46945e-18
5.55112e-16
3.90313e-17
6.76542e-16
1.99493e-17
-9.54098e-18
1.73472e-16
1.38778e-16
6.59195e-17
1.04083e-17
-4.16334e-17
-5.20417e-17
-4.16334e-17
-1.73472e-16
-2.74086e-16
-1.07553e-16
3.85109e-16
2.81025e-16
1.29757e-15
3.322e-14
8.28886e-13
2.01274e-11
4.89045e-10
1.1851e-08
2.83202e-07
6.25106e-06
9.52162e-05
0.000534277
0.0010536
0.00134326
0.00152265
0.00163849
0.00171024
0.00175132
0.00177286
0.00178323
0.00178781
0.00178967
0.00179034
0.00179053
0.00179056
0.00179055
0.00179051
0.00179052
0.00179053
0.00179053
0.00179052
0.00179049
0.00179049
0.00179059
0.0017908
0.00179105
0.00179121
0.00179082
0.00178854
0.00178211
0.00176979
0.0017528
0.00173556
0.00172261
0.0017155
0.0017127
0.0017119
0.00171163
0.0017115
0.00171153
0.00171161
0.00171162
0.00171158
0.00171151
0.00171141
0.00171128
0.00171117
0.00171109
0.00171099
0.00171077
0.0017101
0.00170819
0.00170329
0.00169165
0.0016659
0.00161224
0.0015062
0.00130004
0.000848651
0.000220045
1.64287e-05
7.10276e-07
2.73717e-08
1.0355e-09
3.90602e-11
1.47234e-12
5.60194e-14
2.09034e-15
3.43475e-16
2.81025e-16
2.498e-16
2.30718e-16
1.56125e-16
1.94289e-16
2.41127e-16
3.05311e-16
2.74086e-16
2.8276e-16
3.33067e-16
)
;

boundaryField
{
    sides1
    {
        type            calculated;
        value           nonuniform List<scalar> 
20
(
6.66134e-16
1.56125e-17
1.21431e-17
-1.09635e-15
-2.61943e-16
3.46945e-18
6.99094e-16
2.55004e-16
9.02056e-16
3.10516e-16
-1.35308e-16
-7.80626e-16
2.25514e-16
2.56739e-16
7.07767e-16
1.70003e-16
-5.20417e-17
-3.1572e-16
-1.59595e-16
-1.17961e-16
)
;
    }
    sides2
    {
        type            calculated;
        value           uniform 0;
    }
    empty
    {
        type            empty;
        value           nonuniform 0();
    }
}


// ************************************************************************* //
