/*--------------------------------*- C++ -*----------------------------------*\
| =========                 |                                                 |
| \\      /  F ield         | OpenFOAM: The Open Source CFD Toolbox           |
|  \\    /   O peration     | Version:  3.0.1                                 |
|   \\  /    A nd           | Web:      www.OpenFOAM.org                      |
|    \\/     M anipulation  |                                                 |
\*---------------------------------------------------------------------------*/
FoamFile
{
    version     2.0;
    format      ascii;
    class       volVectorField;
    location    "0.00025";
    object      U;
}
// * * * * * * * * * * * * * * * * * * * * * * * * * * * * * * * * * * * * * //

dimensions      [0 1 -1 0 0 0 0];

internalField   nonuniform List<vector> 
1000
(
(1.31373e-12 -4.53674e-12 0)
(9.28367e-13 -1.02763e-12 0)
(-1.90928e-12 -2.10196e-12 0)
(5.72201e-12 8.46624e-14 0)
(-1.95599e-12 -3.49452e-12 0)
(1.48889e-12 1.4597e-13 0)
(3.07704e-12 -4.39369e-12 0)
(-4.88123e-12 -4.90458e-13 0)
(2.96027e-12 -2.25085e-12 0)
(-5.62859e-12 -1.91804e-12 0)
(2.91939e-13 3.01573e-12 0)
(1.75164e-13 -3.66676e-12 0)
(3.55582e-12 2.45229e-12 0)
(7.9752e-11 -4.41704e-12 0)
(1.81327e-09 1.15199e-11 0)
(4.50406e-08 -9.22237e-12 0)
(1.09435e-06 -1.79543e-12 0)
(2.67876e-05 -1.2669e-10 0)
(0.000672983 -2.64719e-09 0)
(0.0178807 -6.25214e-08 0)
(0.37947 -1.11106e-06 0)
(3.18519 -9.03702e-06 0)
(8.8894 -2.48498e-05 0)
(12.7746 -3.41902e-05 0)
(15.1006 -3.48712e-05 0)
(16.6662 -3.46759e-05 0)
(17.6898 -2.97729e-05 0)
(18.3143 -1.90902e-05 0)
(18.6645 -5.0538e-06 0)
(18.8445 7.96757e-06 0)
(18.9293 1.3606e-05 0)
(18.966 1.63857e-05 0)
(18.9805 1.53594e-05 0)
(18.9856 9.59582e-06 0)
(18.9872 5.57732e-07 0)
(18.9873 -1.50785e-05 0)
(18.987 -2.52191e-05 0)
(18.9867 -4.35313e-05 0)
(18.9867 -6.41784e-05 0)
(18.987 -0.000102722 0)
(18.9875 -0.000151165 0)
(18.9879 -0.000208407 0)
(18.9882 -0.000372668 0)
(18.9887 -0.000211793 0)
(18.9892 -0.000918989 0)
(18.9901 -0.000701337 0)
(18.9908 -0.000825428 0)
(18.991 -0.000639136 0)
(18.9909 -0.000428032 0)
(18.9898 -0.000175021 0)
(18.9884 0.00014895 0)
(18.9879 0.000410638 0)
(18.9879 0.000446381 0)
(18.9879 0.000425992 0)
(18.9879 0.000366952 0)
(18.988 0.000328166 0)
(18.9879 0.000277612 0)
(18.9874 0.000178681 0)
(18.9866 7.5434e-05 0)
(18.9859 -8.19984e-06 0)
(18.9853 -2.68595e-05 0)
(18.9844 -4.44634e-05 0)
(18.9835 -1.93535e-05 0)
(18.9827 -6.8634e-06 0)
(18.9819 6.16175e-08 0)
(18.9809 5.54515e-06 0)
(18.9798 -1.09455e-07 0)
(18.9789 -2.87698e-06 0)
(18.9779 -8.48273e-06 0)
(18.9758 -1.16645e-05 0)
(18.9707 -1.27983e-05 0)
(18.9567 -1.39692e-05 0)
(18.9202 -1.24683e-05 0)
(18.8319 -9.95332e-06 0)
(18.6333 -3.38157e-06 0)
(18.2148 6.05193e-06 0)
(17.3827 1.38935e-05 0)
(15.7969 1.86188e-05 0)
(12.7284 1.88396e-05 0)
(6.38767 1.00118e-05 0)
(1.05578 1.67396e-06 0)
(0.0542231 1.00917e-07 0)
(0.00180547 3.92459e-09 0)
(6.44881e-05 1.32812e-10 0)
(2.40545e-06 3.36836e-12 0)
(9.05357e-08 1.69528e-12 0)
(3.43276e-09 2.59157e-12 0)
(1.21947e-10 -2.2194e-12 0)
(5.25827e-12 1.61845e-12 0)
(-1.04141e-12 -2.83742e-12 0)
(5.12169e-14 3.15155e-12 0)
(-2.74522e-12 -3.23861e-12 0)
(2.1716e-12 1.43578e-12 0)
(1.39651e-12 -3.32227e-12 0)
(-1.18823e-12 -1.0858e-12 0)
(-1.07214e-12 -3.6125e-12 0)
(1.66284e-12 2.93643e-13 0)
(2.23988e-12 -3.11569e-12 0)
(1.68333e-12 -7.81911e-13 0)
(7.90789e-12 -4.16393e-12 0)
(7.84149e-12 3.12083e-12 0)
(5.39504e-12 1.58523e-12 0)
(7.99914e-13 2.96319e-12 0)
(1.26118e-12 1.67865e-12 0)
(-7.18171e-13 7.03574e-13 0)
(8.75818e-14 1.28453e-12 0)
(8.93335e-13 1.34876e-12 0)
(1.5356e-12 9.92594e-14 0)
(-3.47408e-12 2.36179e-12 0)
(7.88236e-12 -1.13856e-12 0)
(-4.08715e-12 6.80803e-12 0)
(-1.76915e-12 1.95016e-12 0)
(1.10353e-11 5.92929e-12 0)
(5.98943e-11 -1.72244e-13 0)
(1.90789e-09 1.35343e-11 0)
(4.48693e-08 -7.6021e-12 0)
(1.09441e-06 -2.4266e-11 0)
(2.67847e-05 -1.27752e-09 0)
(0.000672918 -2.74241e-08 0)
(0.0178789 -6.12113e-07 0)
(0.379439 -1.01427e-05 0)
(3.18505 -7.46198e-05 0)
(8.8893 -0.000173741 0)
(12.7746 -0.000188526 0)
(15.1006 -0.000164097 0)
(16.6663 -0.000124556 0)
(17.6898 -7.05136e-05 0)
(18.3144 -2.40287e-05 0)
(18.6646 7.88293e-06 0)
(18.8445 2.7616e-05 0)
(18.9294 4.40436e-05 0)
(18.966 4.95674e-05 0)
(18.9805 5.06228e-05 0)
(18.9855 4.98506e-05 0)
(18.9872 4.56646e-05 0)
(18.9873 3.58398e-05 0)
(18.9869 1.99608e-05 0)
(18.9866 3.00469e-06 0)
(18.9866 -1.30783e-05 0)
(18.9869 -3.1209e-05 0)
(18.9873 -6.08727e-05 0)
(18.9876 -0.000109795 0)
(18.9877 -0.000249501 0)
(18.988 -0.0005443 0)
(18.9881 -0.000826274 0)
(18.9882 -0.0011365 0)
(18.9882 -0.00146994 0)
(18.9877 -0.00159004 0)
(18.9866 -0.00143795 0)
(18.9849 -0.000702986 0)
(18.9836 -0.000277037 0)
(18.9834 0.00049755 0)
(18.9842 0.000730861 0)
(18.9854 0.00152664 0)
(18.9868 0.0015107 0)
(18.9876 0.00124165 0)
(18.9877 0.000845885 0)
(18.9873 0.000749523 0)
(18.9867 0.000505036 0)
(18.9861 0.000234459 0)
(18.9854 0.000120942 0)
(18.9845 0.00010603 0)
(18.9835 4.14953e-05 0)
(18.9828 4.98707e-05 0)
(18.9819 6.39935e-05 0)
(18.9809 8.98719e-05 0)
(18.9798 8.693e-05 0)
(18.9789 8.32914e-05 0)
(18.9779 5.63578e-05 0)
(18.9758 3.11132e-05 0)
(18.9706 6.31532e-07 0)
(18.9566 -2.2502e-05 0)
(18.9202 -3.79066e-05 0)
(18.8319 -4.32147e-05 0)
(18.6334 -4.11425e-05 0)
(18.2148 -2.25523e-05 0)
(17.3827 1.52674e-05 0)
(15.797 6.15233e-05 0)
(12.7284 8.73254e-05 0)
(6.38758 6.2557e-05 0)
(1.05574 1.24685e-05 0)
(0.0542202 8.26833e-07 0)
(0.00180537 3.48023e-08 0)
(6.44848e-05 1.40102e-09 0)
(2.40552e-06 -9.40171e-12 0)
(9.04631e-08 3.28471e-11 0)
(3.44261e-09 1.94795e-12 0)
(1.17017e-10 4.73244e-12 0)
(4.87926e-12 1.45456e-12 0)
(1.86771e-12 3.87712e-12 0)
(-1.05848e-12 2.76571e-13 0)
(-6.97232e-12 2.04014e-12 0)
(2.76571e-12 9.73121e-13 0)
(-4.00857e-12 -1.87795e-14 0)
(-1.66967e-12 2.2672e-12 0)
(1.89161e-12 -7.44352e-13 0)
(2.45841e-12 2.77425e-12 0)
(-5.83872e-13 -3.43495e-12 0)
(-3.89248e-13 1.45114e-13 0)
(1.16092e-13 -3.4708e-12 0)
(-2.27713e-12 8.93335e-12 0)
(-1.34292e-12 2.49316e-12 0)
(-1.23198e-12 3.27848e-12 0)
(1.8509e-12 3.08872e-12 0)
(-1.97351e-12 2.38223e-12 0)
(2.01438e-12 2.77634e-12 0)
(-6.30589e-13 2.92523e-12 0)
(-1.8217e-12 1.0539e-12 0)
(1.17944e-12 1.2495e-12 0)
(1.29037e-12 4.03752e-12 0)
(7.08245e-12 -2.92523e-12 0)
(-3.17046e-12 6.68833e-12 0)
(3.50327e-13 -6.01395e-12 0)
(7.67976e-11 8.63849e-12 0)
(1.85755e-09 -1.79076e-11 0)
(4.49286e-08 1.11258e-11 0)
(1.09411e-06 -1.08937e-10 0)
(2.67788e-05 -1.96157e-09 0)
(0.000672777 -4.47727e-08 0)
(0.0178753 -9.72801e-07 0)
(0.379381 -1.55946e-05 0)
(3.18482 -0.000108396 0)
(8.8892 -0.000231223 0)
(12.7747 -0.00021704 0)
(15.1008 -0.000122817 0)
(16.6664 -2.09128e-05 0)
(17.6899 4.42469e-05 0)
(18.3145 7.75063e-05 0)
(18.6646 9.08352e-05 0)
(18.8445 9.03931e-05 0)
(18.9294 8.43789e-05 0)
(18.966 7.47941e-05 0)
(18.9805 5.91573e-05 0)
(18.9855 4.02471e-05 0)
(18.9872 1.79509e-05 0)
(18.9873 -9.33431e-06 0)
(18.9869 -3.08074e-05 0)
(18.9866 -6.6799e-05 0)
(18.9867 -0.00010098 0)
(18.987 -0.000146725 0)
(18.9875 -0.000185668 0)
(18.9878 -0.00022692 0)
(18.988 -0.000268396 0)
(18.9883 -0.000238461 0)
(18.9885 -0.000190501 0)
(18.9886 -0.000159764 0)
(18.9886 -9.91537e-05 0)
(18.9882 0.00106035 0)
(18.9871 0.00152429 0)
(18.9855 0.00144449 0)
(18.9842 0.00127424 0)
(18.9841 0.000719797 0)
(18.9847 0.000608949 0)
(18.9853 2.34259e-05 0)
(18.986 -9.80163e-05 0)
(18.9866 -2.09151e-05 0)
(18.9869 5.93816e-05 0)
(18.9867 0.000114308 0)
(18.9863 0.000192166 0)
(18.9859 0.000259445 0)
(18.9853 0.000257238 0)
(18.9844 0.00029754 0)
(18.9835 0.000185799 0)
(18.9827 0.000275093 0)
(18.9819 6.76973e-05 0)
(18.9809 0.000109288 0)
(18.9798 6.19942e-05 0)
(18.9789 6.14612e-05 0)
(18.9778 3.76523e-05 0)
(18.9757 2.49825e-05 0)
(18.9706 6.36373e-06 0)
(18.9566 -1.17877e-05 0)
(18.9201 -3.4908e-05 0)
(18.8319 -5.28141e-05 0)
(18.6334 -6.02797e-05 0)
(18.2148 -5.36422e-05 0)
(17.3828 -2.16956e-05 0)
(15.7971 3.36046e-05 0)
(12.7284 8.54493e-05 0)
(6.38749 7.19453e-05 0)
(1.05569 1.58065e-05 0)
(0.0542155 1.1196e-06 0)
(0.0018052 5.05728e-08 0)
(6.44781e-05 2.05065e-09 0)
(2.40547e-06 6.85145e-11 0)
(9.04432e-08 2.35598e-13 0)
(3.41833e-09 2.07087e-12 0)
(1.25451e-10 -9.38976e-13 0)
(2.91936e-12 5.46313e-13 0)
(-3.94711e-12 7.80204e-13 0)
(-3.56128e-12 -2.53182e-12 0)
(3.55104e-13 1.34871e-12 0)
(-2.70425e-12 1.26335e-13 0)
(3.4247e-12 -2.47548e-13 0)
(-3.4486e-12 4.31929e-13 0)
(5.32656e-13 -1.39822e-12 0)
(-3.30178e-12 -1.96331e-13 0)
(-1.21896e-12 -4.75634e-12 0)
(1.87454e-12 -1.43919e-12 0)
(1.19506e-13 -9.14904e-12 0)
(-2.6041e-12 5.30746e-12 0)
(-4.84036e-12 2.44645e-12 0)
(2.71504e-12 2.56323e-12 0)
(-4.43748e-13 7.00655e-13 0)
(-2.69168e-12 1.10645e-12 0)
(1.26702e-12 5.89718e-13 0)
(-8.81657e-13 -2.47565e-12 0)
(-2.76175e-12 2.55447e-12 0)
(2.9661e-12 -3.08288e-12 0)
(2.86101e-13 4.1689e-12 0)
(1.45386e-12 -1.59691e-12 0)
(-5.68698e-12 -2.97778e-13 0)
(6.5336e-12 3.50327e-14 0)
(8.1311e-11 2.72379e-12 0)
(1.81956e-09 1.03347e-12 0)
(4.49937e-08 -1.09769e-12 0)
(1.09364e-06 -1.1719e-10 0)
(2.67711e-05 -2.36534e-09 0)
(0.000672582 -5.63073e-08 0)
(0.0178702 -1.24251e-06 0)
(0.379299 -2.02893e-05 0)
(3.18449 -0.000143292 0)
(8.88906 -0.000310622 0)
(12.7748 -0.000297563 0)
(15.101 -0.000189071 0)
(16.6666 -7.74322e-05 0)
(17.69 -8.69227e-08 0)
(18.3145 4.06032e-05 0)
(18.6646 5.30771e-05 0)
(18.8445 4.76117e-05 0)
(18.9293 3.6503e-05 0)
(18.966 2.78093e-05 0)
(18.9805 2.02774e-05 0)
(18.9855 7.89986e-06 0)
(18.9871 6.35199e-06 0)
(18.9872 -1.26284e-05 0)
(18.9868 -2.48638e-05 0)
(18.9865 -5.13486e-05 0)
(18.9865 -7.5515e-05 0)
(18.9867 -0.000105895 0)
(18.9871 -0.000149917 0)
(18.9874 -0.000200992 0)
(18.9875 -0.000300293 0)
(18.9878 -0.000385068 0)
(18.9881 -0.000416185 0)
(18.9883 -0.000467431 0)
(18.9883 -0.000426956 0)
(18.9882 7.89752e-05 0)
(18.9875 0.000297501 0)
(18.9859 0.000308011 0)
(18.9845 0.000221712 0)
(18.9842 -0.000241082 0)
(18.9849 -0.000357576 0)
(18.9858 -0.000936463 0)
(18.9867 -0.000581931 0)
(18.9873 -0.000343005 0)
(18.9874 -2.21042e-05 0)
(18.987 3.24056e-05 0)
(18.9864 0.000137783 0)
(18.9858 0.000142261 0)
(18.9852 0.000127463 0)
(18.9842 0.000105526 0)
(18.9833 6.74446e-05 0)
(18.9826 7.0157e-05 0)
(18.9818 6.0864e-05 0)
(18.9808 6.89986e-05 0)
(18.9797 6.66876e-05 0)
(18.9788 7.58778e-05 0)
(18.9778 8.03449e-05 0)
(18.9757 7.91697e-05 0)
(18.9705 7.08135e-05 0)
(18.9565 5.23451e-05 0)
(18.9201 2.61446e-05 0)
(18.8319 -6.00919e-06 0)
(18.6333 -2.65239e-05 0)
(18.2149 -2.14577e-05 0)
(17.3829 1.2542e-05 0)
(15.7972 7.06699e-05 0)
(12.7285 0.000119988 0)
(6.38736 9.27121e-05 0)
(1.05561 1.96701e-05 0)
(0.0542093 1.37683e-06 0)
(0.00180497 6.2265e-08 0)
(6.44701e-05 2.44018e-09 0)
(2.40496e-06 1.5012e-10 0)
(9.04611e-08 -7.91813e-12 0)
(3.41704e-09 3.39739e-12 0)
(1.27591e-10 -2.9757e-12 0)
(3.94029e-12 2.50109e-12 0)
(-2.43792e-12 -3.16862e-12 0)
(-5.9753e-13 4.84512e-12 0)
(-1.76186e-12 -7.01671e-13 0)
(1.02434e-14 2.91083e-12 0)
(-1.95648e-12 7.46059e-13 0)
(-4.84853e-12 1.81478e-12 0)
(1.1336e-12 1.96331e-12 0)
(-4.94414e-12 1.14726e-12 0)
(-3.56811e-12 1.05507e-12 0)
(-7.983e-12 1.28213e-12 0)
(-1.2951e-11 6.82892e-14 0)
(-7.07077e-12 8.02833e-13 0)
(-5.15565e-12 1.84214e-12 0)
(-3.9295e-12 3.85944e-12 0)
(-2.70336e-12 4.84619e-13 0)
(-6.13073e-13 2.43769e-12 0)
(-4.33238e-12 -2.36471e-13 0)
(2.86101e-12 2.29756e-12 0)
(-4.34406e-12 9.634e-13 0)
(5.04471e-12 7.03574e-13 0)
(4.28567e-12 1.99103e-12 0)
(-1.68157e-12 -2.30632e-13 0)
(6.36428e-13 5.5089e-12 0)
(4.3207e-13 1.49181e-12 0)
(8.77585e-11 1.02471e-12 2.13188e-32)
(1.83274e-09 1.52976e-12 0)
(4.49325e-08 -4.38493e-12 0)
(1.0933e-06 -1.09413e-10 0)
(2.6762e-05 -2.57609e-09 0)
(0.00067235 -6.16924e-08 0)
(0.0178641 -1.36814e-06 0)
(0.3792 -2.25013e-05 0)
(3.18409 -0.000160138 0)
(8.8889 -0.00034818 0)
(12.775 -0.000329437 0)
(15.1013 -0.000192055 0)
(16.6668 -4.52056e-05 0)
(17.6901 5.69523e-05 0)
(18.3145 0.000105295 0)
(18.6646 0.000112139 0)
(18.8445 9.80556e-05 0)
(18.9293 6.89641e-05 0)
(18.966 5.0851e-05 2.08531e-32)
(18.9804 2.423e-05 0)
(18.9855 2.88104e-05 0)
(18.9871 8.20401e-06 0)
(18.9872 3.47933e-06 0)
(18.9868 2.69706e-07 -1.97918e-32)
(18.9865 -6.26658e-06 0)
(18.9865 -1.30248e-05 0)
(18.9868 -4.09372e-05 2.02315e-32)
(18.9872 -6.76436e-05 0)
(18.9875 -9.92572e-05 0)
(18.9876 -0.00012861 0)
(18.9879 -0.000118623 -2.07312e-32)
(18.9881 -0.000100459 0)
(18.9883 -8.23128e-05 0)
(18.9883 -5.56604e-05 0)
(18.9882 5.11738e-05 0)
(18.9876 0.000109103 0)
(18.9862 0.000160797 0)
(18.9849 0.000207314 0)
(18.9847 0.000504576 0)
(18.9853 0.00056284 0)
(18.9859 0.000552715 0)
(18.9865 0.000496504 0)
(18.987 0.000399549 -1.06224e-32)
(18.9869 0.00031531 1.06099e-32)
(18.9866 0.000301958 0)
(18.9861 0.000255192 0)
(18.9856 0.000222068 -1.09326e-32)
(18.985 0.000170655 0)
(18.9841 0.000200974 0)
(18.9833 0.000130929 0)
(18.9826 0.000231047 0)
(18.9818 9.55689e-05 0)
(18.9808 0.000143775 0)
(18.9798 9.54183e-05 0)
(18.9788 8.98596e-05 0)
(18.9778 5.33677e-05 0)
(18.9757 3.33396e-05 0)
(18.9705 6.2827e-06 0)
(18.9565 -2.07771e-05 1.08548e-32)
(18.92 -4.29875e-05 0)
(18.8318 -5.56436e-05 0)
(18.6333 -5.49484e-05 0)
(18.2149 -3.45158e-05 0)
(17.383 1.48508e-05 0)
(15.7974 8.73745e-05 0)
(12.7286 0.00014501 0)
(6.3872 0.000108741 0)
(1.05552 2.26333e-05 0)
(0.054202 1.55902e-06 0)
(0.00180471 6.92935e-08 0)
(6.44604e-05 2.76479e-09 0)
(2.40454e-06 1.40985e-10 0)
(9.04396e-08 -3.13106e-12 0)
(3.4303e-09 3.93858e-12 0)
(1.19731e-10 -1.00214e-12 0)
(4.71204e-12 3.43153e-12 0)
(-1.40681e-12 -1.41529e-12 0)
(2.01106e-12 4.03418e-12 0)
(-4.17923e-12 1.9121e-13 -1.06594e-32)
(3.31151e-13 4.43538e-12 0)
(6.3177e-13 1.34359e-12 -1.06594e-32)
(-2.86875e-13 4.77e-12 0)
(7.34057e-13 3.34446e-12 0)
(-4.88601e-12 3.97784e-12 0)
(-1.42389e-12 7.00476e-12 0)
(6.62487e-13 5.16949e-12 0)
(-3.05594e-12 1.18396e-11 0)
(-1.68741e-12 -6.63286e-12 0)
(-1.22615e-13 -2.25085e-12 0)
(-2.3939e-13 -5.68114e-12 0)
(-2.25961e-12 8.81657e-13 0)
(-3.59669e-12 -5.52349e-12 0)
(2.80262e-13 2.17203e-12 0)
(2.10196e-12 -2.17203e-12 0)
(-5.97308e-12 9.95513e-13 0)
(5.48846e-12 -2.21582e-12 0)
(-2.62162e-12 2.10196e-12 0)
(5.58772e-12 -6.13073e-12 0)
(-1.57647e-12 2.4844e-12 0)
(1.45386e-12 -7.12624e-12 0)
(8.01549e-11 4.14262e-12 -2.13188e-32)
(1.82476e-09 -1.09828e-11 0)
(4.49501e-08 1.11258e-11 0)
(1.09287e-06 -1.29571e-10 0)
(2.6753e-05 -2.28463e-09 0)
(0.000672119 -5.595e-08 0)
(0.017858 -1.25299e-06 0)
(0.379098 -2.09374e-05 0)
(3.18367 -0.00015305 0)
(8.8887 -0.000347822 0)
(12.7752 -0.000355781 0)
(15.1016 -0.000234627 0)
(16.667 -8.59151e-05 0)
(17.6903 2.53394e-05 0)
(18.3146 7.65237e-05 0)
(18.6645 8.44186e-05 0)
(18.8444 7.39207e-05 0)
(18.9292 6.68444e-05 0)
(18.9659 5.03488e-05 -2.08534e-32)
(18.9804 4.75994e-05 0)
(18.9854 3.58417e-05 0)
(18.987 3.30136e-05 0)
(18.9871 1.01909e-05 0)
(18.9867 3.59429e-06 1.98218e-32)
(18.9864 -1.4594e-05 0)
(18.9864 -1.53091e-05 0)
(18.9867 -1.00863e-05 -2.02017e-32)
(18.9871 -7.31161e-06 0)
(18.9874 -9.87002e-06 0)
(18.9875 -1.37511e-05 0)
(18.9878 -3.42106e-05 2.07519e-32)
(18.988 -3.89296e-05 0)
(18.9882 -5.2695e-05 0)
(18.9883 -3.93468e-05 0)
(18.9882 2.39582e-05 0)
(18.9877 5.2441e-05 0)
(18.9864 8.17522e-05 0)
(18.9852 6.76503e-05 0)
(18.9851 -0.000124228 0)
(18.9855 -0.000181032 0)
(18.986 -0.000147342 0)
(18.9865 -0.000212748 0)
(18.987 -0.000177994 1.06702e-32)
(18.9871 -0.000125497 -1.0637e-32)
(18.9867 -0.000120801 0)
(18.9861 -0.000127455 0)
(18.9856 -0.000203941 1.09789e-32)
(18.985 -0.000150595 0)
(18.9842 -0.000173529 0)
(18.9833 -8.33797e-05 0)
(18.9826 -7.97819e-05 0)
(18.9817 -4.41616e-05 0)
(18.9807 -4.73255e-05 0)
(18.9797 -4.1013e-05 0)
(18.9787 -3.67701e-05 0)
(18.9777 -1.92377e-05 0)
(18.9756 -1.12445e-05 0)
(18.9704 -7.6865e-06 0)
(18.9564 -1.17707e-05 -1.08549e-32)
(18.92 -1.64744e-05 0)
(18.8318 -1.77656e-05 0)
(18.6333 -1.26734e-05 0)
(18.215 1.36835e-05 0)
(17.3831 6.79936e-05 0)
(15.7975 0.000135743 0)
(12.7286 0.000173783 0)
(6.387 0.000118052 0)
(1.05543 2.31534e-05 0)
(0.0541941 1.54257e-06 0)
(0.00180443 6.74954e-08 0)
(6.44505e-05 2.67625e-09 0)
(2.40396e-06 1.28988e-10 0)
(9.05065e-08 -1.39805e-11 0)
(3.40001e-09 8.69321e-12 0)
(1.28466e-10 -3.05935e-12 0)
(3.0457e-12 1.09604e-12 0)
(-4.23393e-13 7.34109e-14 0)
(2.4789e-12 5.46313e-13 0)
(-1.16092e-12 -6.89721e-13 1.06594e-32)
(2.49255e-12 1.2036e-12 0)
(-1.86771e-12 1.12677e-12 1.06594e-32)
(1.04824e-12 4.30222e-13 0)
(-2.19891e-12 2.64621e-12 0)
(1.50919e-12 8.91174e-13 0)
(-2.79986e-13 6.41406e-12 0)
(5.668e-13 3.21983e-12 0)
(3.41446e-14 1.00044e-11 0)
(5.43007e-13 -9.1377e-13 0)
(-2.90772e-12 1.62026e-12 0)
(1.86841e-12 7.2109e-13 0)
(-3.00114e-12 1.41591e-12 0)
(1.31957e-12 3.46532e-12 0)
(1.78667e-12 1.35752e-12 0)
(5.07975e-13 3.81565e-12 0)
(-4.20977e-12 -7.7364e-13 0)
(6.35844e-12 4.85203e-12 0)
(-1.42466e-12 -5.30162e-12 0)
(-5.37169e-13 8.23269e-12 0)
(-2.0319e-12 -8.0984e-12 0)
(4.68855e-12 6.37596e-12 0)
(8.07504e-11 -9.85296e-12 0)
(1.81938e-09 1.43517e-11 0)
(4.49826e-08 -2.17874e-11 0)
(1.09247e-06 -1.06003e-11 0)
(2.67456e-05 -1.81352e-09 0)
(0.000671928 -4.13212e-08 0)
(0.0178529 -9.35674e-07 0)
(0.379011 -1.58235e-05 0)
(3.18329 -0.000119353 0)
(8.88847 -0.000290689 0)
(12.7753 -0.000333744 0)
(15.1018 -0.000297478 0)
(16.6673 -0.000199865 0)
(17.6905 -8.79473e-05 0)
(18.3147 5.8829e-06 0)
(18.6645 5.02203e-05 0)
(18.8444 6.5087e-05 0)
(18.9292 6.12105e-05 0)
(18.9659 4.42673e-05 0)
(18.9804 5.66297e-05 0)
(18.9854 3.3026e-05 0)
(18.987 4.91791e-05 0)
(18.9872 4.95068e-05 0)
(18.9868 5.7165e-05 0)
(18.9864 5.29276e-05 0)
(18.9865 3.90015e-05 0)
(18.9867 8.60999e-06 0)
(18.9871 -8.75133e-06 0)
(18.9874 -1.36181e-05 0)
(18.9876 -4.43371e-06 0)
(18.9879 1.01792e-05 0)
(18.9882 1.45709e-05 0)
(18.9885 -1.75684e-05 0)
(18.9886 -6.46443e-05 0)
(18.9883 -0.000401192 0)
(18.9875 -0.000666384 0)
(18.9859 -0.000571638 0)
(18.9843 -0.000431511 0)
(18.984 0.000159501 0)
(18.9847 0.000287601 0)
(18.9856 0.000724547 0)
(18.9865 0.000677835 0)
(18.9873 0.000547312 0)
(18.9874 0.00035262 0)
(18.987 0.000287035 0)
(18.9863 0.000214504 0)
(18.9858 0.000119572 0)
(18.9851 7.48748e-05 0)
(18.9843 6.55983e-05 0)
(18.9834 1.72166e-05 0)
(18.9826 1.59996e-05 0)
(18.9818 -5.66486e-05 0)
(18.9807 -6.03977e-05 0)
(18.9797 -9.20976e-05 0)
(18.9788 -0.000101987 0)
(18.9777 -0.000121002 0)
(18.9756 -0.000128585 0)
(18.9705 -0.000126075 0)
(18.9564 -0.000108191 0)
(18.92 -8.74502e-05 0)
(18.8318 -5.20589e-05 0)
(18.6334 1.64282e-06 0)
(18.2151 6.86995e-05 0)
(17.3833 0.000136741 0)
(15.7976 0.000184802 0)
(12.7286 0.000186619 0)
(6.38677 0.00010941 0)
(1.05533 1.95259e-05 0)
(0.054187 1.23851e-06 0)
(0.00180418 5.22875e-08 0)
(6.44416e-05 2.21362e-09 0)
(2.40361e-06 4.02718e-11 0)
(9.05196e-08 1.39805e-11 0)
(3.40226e-09 -5.35899e-12 0)
(1.16085e-10 7.54937e-12 0)
(1.0257e-11 -1.76015e-12 0)
(-7.81911e-13 6.93989e-12 0)
(-4.1315e-13 -8.70687e-14 0)
(-2.77254e-12 3.47592e-12 0)
(3.67396e-12 2.67523e-12 0)
(-6.89721e-13 2.20745e-12 0)
(3.37349e-12 5.24632e-12 0)
(6.82892e-14 2.9279e-12 0)
(3.58518e-12 6.32358e-12 0)
(2.47207e-12 4.94755e-12 0)
(5.07047e-12 5.52459e-12 0)
(8.20153e-12 6.19554e-12 0)
(3.19966e-12 -1.39547e-12 0)
(1.59983e-12 -9.89675e-13 0)
(2.16035e-13 -9.6632e-13 0)
(3.12959e-12 -5.98476e-13 0)
(-3.84776e-12 -7.12332e-13 0)
(1.47721e-12 4.37909e-14 0)
(-2.9953e-12 -2.02606e-12 0)
(-2.499e-12 -1.58231e-12 0)
(-3.66092e-12 4.14554e-13 0)
(2.48732e-12 -2.76175e-12 0)
(2.06109e-12 2.70044e-12 0)
(-3.69011e-12 -1.98811e-12 0)
(4.20977e-12 5.11186e-12 0)
(6.00227e-11 -3.69303e-12 0)
(1.89792e-09 4.60388e-12 0)
(4.47846e-08 -8.3845e-12 0)
(1.09268e-06 -2.93224e-11 0)
(2.67399e-05 -1.00459e-09 0)
(0.000671799 -2.53163e-08 0)
(0.0178495 -5.6922e-07 0)
(0.378951 -9.675e-06 0)
(3.18301 -7.43211e-05 0)
(8.88824 -0.000190048 0)
(12.7753 -0.000243041 0)
(15.1019 -0.000240397 0)
(16.6675 -0.000209086 0)
(17.6906 -0.000133356 0)
(18.3148 -3.91701e-05 0)
(18.6646 4.82075e-05 0)
(18.8445 0.000126247 0)
(18.9292 0.000150982 0)
(18.9659 0.000172472 0)
(18.9804 0.000156638 0)
(18.9854 0.000140869 0)
(18.987 0.000118602 0)
(18.9871 9.99449e-05 0)
(18.9867 8.60289e-05 0)
(18.9864 7.43516e-05 0)
(18.9864 6.14443e-05 0)
(18.9866 6.61932e-05 0)
(18.987 6.3348e-05 0)
(18.9873 5.78544e-05 0)
(18.9875 5.17968e-05 0)
(18.9878 4.68796e-05 0)
(18.988 3.02235e-05 0)
(18.9883 -1.62054e-05 0)
(18.9884 -3.80901e-05 0)
(18.9882 -0.000408282 0)
(18.9876 -0.0005433 0)
(18.9862 -0.000488601 0)
(18.9851 -0.00031888 0)
(18.9849 0.000184655 0)
(18.9853 0.000219839 0)
(18.9857 0.00107063 0)
(18.9862 0.000585971 0)
(18.9867 0.000479108 0)
(18.9868 0.000247902 0)
(18.9865 0.000168754 0)
(18.986 0.000100269 0)
(18.9855 5.03531e-05 0)
(18.9849 3.60819e-06 0)
(18.9841 -4.25359e-05 0)
(18.9832 -7.66015e-05 0)
(18.9825 -0.000194384 0)
(18.9817 -0.000130193 0)
(18.9807 -0.00019464 0)
(18.9797 -0.000181083 0)
(18.9788 -0.000216532 0)
(18.9777 -0.000229239 0)
(18.9756 -0.000237169 0)
(18.9705 -0.000231625 0)
(18.9565 -0.000211121 0)
(18.9201 -0.000165258 0)
(18.8319 -9.49438e-05 0)
(18.6335 -1.9697e-06 0)
(18.2152 9.87167e-05 0)
(17.3834 0.000172827 0)
(15.7976 0.00019184 0)
(12.7285 0.000166916 0)
(6.38656 8.12568e-05 0)
(1.05526 1.22671e-05 0)
(0.054182 6.55047e-07 0)
(0.00180402 2.16273e-08 0)
(6.44357e-05 5.57545e-10 0)
(2.40358e-06 -9.86437e-12 0)
(9.04567e-08 2.9868e-11 0)
(3.38583e-09 -1.10185e-11 0)
(1.4955e-10 3.84127e-12 0)
(-4.53782e-12 -2.39012e-12 0)
(3.4247e-12 9.44098e-13 0)
(-3.75249e-12 -5.5485e-13 0)
(4.83487e-12 -5.80458e-14 0)
(8.36542e-13 -5.03633e-13 0)
(1.75503e-12 7.25572e-13 0)
(1.35895e-12 5.71922e-13 0)
(-7.47766e-13 2.43109e-12 0)
(6.93818e-12 5.42899e-13 0)
(-2.0316e-12 3.94882e-12 0)
(6.25187e-12 3.56469e-12 0)
(3.00472e-12 4.59074e-12 0)
(1.57647e-12 3.73682e-13 0)
(-2.71504e-12 -6.33509e-13 0)
(3.11207e-12 -5.57604e-13 0)
(-2.66833e-12 -5.2841e-13 0)
(3.04785e-12 -7.59043e-13 0)
(-6.13073e-13 4.84619e-13 0)
(-2.7092e-12 -1.52392e-12 0)
(1.2495e-12 2.25669e-12 0)
(3.14127e-12 -2.42018e-12 0)
(2.75591e-12 3.73391e-12 0)
(-1.16192e-12 -6.30881e-12 0)
(1.44802e-12 -8.64141e-13 0)
(7.94659e-12 -1.33416e-12 0)
(6.15116e-11 -1.43926e-12 0)
(1.85361e-09 -4.01125e-12 0)
(4.49087e-08 -3.39526e-12 0)
(1.0923e-06 -2.22896e-11 0)
(2.67375e-05 -5.18972e-10 0)
(0.000671726 -1.27314e-08 0)
(0.0178475 -2.8372e-07 0)
(0.378917 -4.95569e-06 0)
(3.18285 -4.10416e-05 0)
(8.88809 -0.000117646 0)
(12.7753 -0.000170492 0)
(15.1019 -0.000190146 0)
(16.6675 -0.000190553 0)
(17.6908 -0.000185123 0)
(18.315 -0.000166928 0)
(18.6648 -0.000113256 0)
(18.8445 -8.61972e-05 0)
(18.9293 -3.58446e-05 0)
(18.9659 -7.35462e-06 0)
(18.9804 1.58785e-05 0)
(18.9854 4.44971e-05 0)
(18.987 6.45232e-05 0)
(18.9871 8.85454e-05 0)
(18.9867 9.33173e-05 0)
(18.9864 9.91511e-05 0)
(18.9864 0.000102674 0)
(18.9867 8.88078e-05 0)
(18.9871 7.61407e-05 0)
(18.9874 6.49539e-05 0)
(18.9876 3.99526e-05 0)
(18.9879 2.68982e-05 0)
(18.9882 1.8321e-05 0)
(18.9885 3.65887e-05 0)
(18.9886 4.34226e-05 0)
(18.9883 0.000117873 0)
(18.9875 0.000204944 0)
(18.9858 0.000228701 0)
(18.9844 0.000212698 0)
(18.9841 6.31982e-05 0)
(18.9847 3.35844e-05 0)
(18.9856 -1.15865e-05 0)
(18.9865 5.60606e-05 0)
(18.9871 9.03313e-05 0)
(18.9872 0.00010363 0)
(18.9869 8.6613e-05 0)
(18.9863 8.51993e-05 0)
(18.9858 3.54071e-05 0)
(18.9851 8.75135e-06 0)
(18.9842 -5.98848e-05 0)
(18.9832 -5.16736e-05 0)
(18.9825 -0.000149894 0)
(18.9816 -0.000119689 0)
(18.9806 -0.000225899 0)
(18.9796 -0.000179045 0)
(18.9787 -0.000229241 0)
(18.9777 -0.000213125 0)
(18.9756 -0.00020788 0)
(18.9705 -0.000180011 0)
(18.9566 -0.000126345 0)
(18.9202 -4.29909e-05 0)
(18.8322 5.16737e-05 0)
(18.6338 0.000136441 0)
(18.2154 0.000185493 0)
(17.3834 0.00019444 0)
(15.7976 0.00017275 0)
(12.7284 0.000112209 0)
(6.38639 3.94958e-05 0)
(1.05521 4.15066e-06 0)
(0.0541797 1.65117e-07 0)
(0.00180397 3.6827e-09 0)
(6.44349e-05 5.61832e-11 0)
(2.40372e-06 -2.75257e-11 0)
(9.03545e-08 -1.16604e-12 0)
(3.44574e-09 -1.39993e-12 0)
(1.14825e-10 -2.82376e-12 0)
(5.30265e-12 -1.2753e-12 0)
(3.94711e-12 -5.82165e-13 0)
(-3.42129e-12 -5.46313e-14 0)
(-1.3453e-12 3.46909e-12 0)
(3.62274e-12 -4.02906e-13 0)
(2.13745e-12 3.65176e-12 0)
(6.88013e-12 -2.81693e-13 0)
(-1.02434e-14 3.67908e-12 0)
(6.78453e-12 8.74101e-13 0)
(6.14944e-12 3.03887e-12 0)
(5.03291e-12 1.35213e-12 0)
(1.06463e-11 1.76015e-12 0)
(1.23198e-12 2.10196e-12 0)
(7.82398e-13 2.48149e-12 0)
(1.98519e-13 3.03909e-12 0)
(2.36471e-12 1.50933e-12 0)
(-1.79835e-12 5.02428e-12 0)
(-5.48846e-13 -5.51766e-13 0)
(5.66363e-13 5.15565e-12 0)
(-5.07391e-12 3.91199e-13 0)
(-2.74423e-13 2.41726e-12 0)
(-3.1763e-12 -1.65822e-12 0)
(-7.54372e-12 -1.02179e-13 0)
(6.51609e-12 -4.1251e-12 0)
(1.30789e-12 1.40423e-12 0)
(6.30122e-11 -6.88977e-12 0)
(1.87392e-09 4.49003e-12 0)
(4.48117e-08 -1.75777e-11 0)
(1.09247e-06 1.48597e-11 0)
(2.67361e-05 -6.8235e-11 0)
(0.000671696 -1.12229e-09 0)
(0.0178467 -2.52104e-08 0)
(0.378903 -4.56693e-07 0)
(3.18277 -4.19333e-06 0)
(8.88798 -1.40785e-05 0)
(12.7752 -2.45437e-05 0)
(15.1019 -3.47264e-05 0)
(16.6675 -3.74877e-05 0)
(17.6908 -4.18413e-05 0)
(18.315 -3.82499e-05 0)
(18.6648 -3.67171e-05 0)
(18.8446 -3.80793e-05 0)
(18.9293 -2.40384e-05 0)
(18.966 -1.15702e-05 0)
(18.9804 -3.129e-07 0)
(18.9854 1.023e-05 0)
(18.987 7.28452e-06 0)
(18.9871 1.04158e-05 0)
(18.9867 9.75003e-06 0)
(18.9864 1.0902e-05 0)
(18.9864 4.61144e-06 0)
(18.9866 -8.65548e-07 0)
(18.987 -1.20722e-05 0)
(18.9873 -2.54851e-05 0)
(18.9875 -4.87095e-05 0)
(18.9877 -7.31121e-05 0)
(18.988 -8.4933e-05 0)
(18.9882 -0.000100903 0)
(18.9883 -0.000111577 0)
(18.9881 -0.000103021 0)
(18.9874 -6.61633e-05 0)
(18.9859 -6.5937e-06 0)
(18.9846 3.48705e-05 0)
(18.9844 0.000171939 0)
(18.9849 0.000197915 0)
(18.9856 0.000245406 0)
(18.9863 0.000203962 0)
(18.9869 0.000172072 0)
(18.987 0.000120189 0)
(18.9867 9.82254e-05 0)
(18.9861 6.44069e-05 0)
(18.9856 3.23981e-05 0)
(18.9849 -9.64119e-06 0)
(18.984 -2.62004e-05 0)
(18.9831 -5.20773e-05 0)
(18.9824 -8.25453e-05 0)
(18.9816 -7.01557e-05 0)
(18.9806 -9.01727e-05 0)
(18.9796 -6.14004e-05 0)
(18.9788 -6.82003e-05 0)
(18.9778 -4.84256e-05 0)
(18.9757 -3.53082e-05 0)
(18.9706 -1.38676e-05 0)
(18.9567 7.50131e-06 0)
(18.9204 2.60886e-05 0)
(18.8323 3.83845e-05 0)
(18.6338 4.37822e-05 0)
(18.2154 4.36256e-05 0)
(17.3834 4.09192e-05 0)
(15.7975 2.77114e-05 0)
(12.7282 1.31542e-05 0)
(6.38631 3.18703e-06 0)
(1.0552 2.1485e-07 0)
(0.0541793 6.43253e-09 0)
(0.00180396 8.93609e-11 0)
(6.44346e-05 2.01521e-11 0)
(2.40375e-06 -1.26557e-11 0)
(9.03999e-08 -1.64065e-12 0)
(3.40482e-09 -1.30944e-12 0)
(1.41779e-10 -3.41275e-12 0)
(2.29793e-12 1.89502e-13 0)
(4.82463e-12 -9.15075e-13 0)
(2.95009e-12 3.09009e-13 0)
(3.30178e-12 1.49383e-12 0)
(6.9655e-13 2.44305e-12 0)
(2.36622e-12 2.86815e-13 0)
(2.18867e-12 2.13233e-12 0)
(1.54675e-12 -1.25652e-12 0)
(5.67483e-12 2.32695e-12 0)
(1.19848e-12 -1.99234e-12 0)
(4.26807e-12 4.57537e-13 0)
(3.67054e-12 -2.69059e-12 0)
)
;

boundaryField
{
    sides1
    {
        type            zeroGradient;
    }
    sides2
    {
        type            slip;
    }
    empty
    {
        type            empty;
    }
}


// ************************************************************************* //
