/*--------------------------------*- C++ -*----------------------------------*\
| =========                 |                                                 |
| \\      /  F ield         | OpenFOAM: The Open Source CFD Toolbox           |
|  \\    /   O peration     | Version:  3.0.1                                 |
|   \\  /    A nd           | Web:      www.OpenFOAM.org                      |
|    \\/     M anipulation  |                                                 |
\*---------------------------------------------------------------------------*/
FoamFile
{
    version     2.0;
    format      ascii;
    class       volVectorField;
    location    "0.00025";
    object      U;
}
// * * * * * * * * * * * * * * * * * * * * * * * * * * * * * * * * * * * * * //

dimensions      [0 1 -1 0 0 0 0];

internalField   nonuniform List<vector> 
1000
(
(0.0307996 -5.31361e-08 0)
(0.0876089 -6.0843e-08 0)
(0.14245 -7.19735e-08 0)
(0.204163 -8.85537e-08 0)
(0.275445 -1.11127e-07 0)
(0.359247 -1.40945e-07 0)
(0.45882 -1.79229e-07 0)
(0.577754 -2.27171e-07 0)
(0.720009 -2.85976e-07 0)
(0.88993 -3.56718e-07 0)
(1.09224 -4.40036e-07 0)
(1.33199 -5.35669e-07 0)
(1.61455 -6.41813e-07 0)
(1.9454 -7.54226e-07 0)
(2.3301 -8.64995e-07 0)
(2.77401 -9.60908e-07 0)
(3.28205 -1.02131e-06 0)
(3.85846 -1.01548e-06 0)
(4.50636 -8.99408e-07 0)
(5.22746 -6.12263e-07 0)
(6.02156 -7.26205e-08 0)
(6.8862 8.24294e-07 0)
(7.81624 2.21833e-06 0)
(8.80351 4.2699e-06 0)
(9.83658 7.1552e-06 0)
(10.9007 1.10502e-05 0)
(11.9778 1.61747e-05 0)
(13.047 2.26944e-05 0)
(14.0851 3.06698e-05 0)
(15.068 3.9971e-05 0)
(15.9715 5.02375e-05 0)
(16.7736 6.06088e-05 0)
(17.4562 6.99637e-05 0)
(18.0072 7.65104e-05 0)
(18.422 7.7818e-05 0)
(18.7051 7.082e-05 0)
(18.8695 5.17645e-05 0)
(18.935 1.65726e-05 0)
(18.9366 -4.13953e-05 0)
(18.906 -9.80888e-05 0)
(18.8651 -0.000179434 0)
(18.8291 -0.000305257 0)
(18.8159 -0.00039699 0)
(18.7897 -0.000585552 0)
(18.7658 -0.000986931 0)
(18.7516 -0.00163867 0)
(18.7169 -0.000984235 0)
(18.6598 -0.0051899 0)
(18.6264 -0.00404729 0)
(18.6686 0.000642524 0)
(19.2966 -0.00111742 0)
(19.899 0.00495899 0)
(19.5442 0.00577555 0)
(19.224 -0.0018716 0)
(19.2999 -0.00180496 0)
(19.3471 0.000388322 0)
(19.355 0.00103028 0)
(19.3271 0.00080347 0)
(19.3202 0.000441184 0)
(19.3309 0.000248327 0)
(19.3731 0.000181242 0)
(19.4221 0.000133008 0)
(19.4927 8.83194e-05 0)
(19.5509 6.19044e-05 0)
(19.583 4.00498e-05 0)
(19.5559 2.23783e-05 0)
(19.4347 9.30804e-06 0)
(19.1958 1.66574e-07 0)
(18.8198 -5.51914e-06 0)
(18.2952 -8.44451e-06 0)
(17.6201 -9.31581e-06 0)
(16.8019 -8.85453e-06 0)
(15.8569 -7.52075e-06 0)
(14.8083 -5.808e-06 0)
(13.6836 -4.06601e-06 0)
(12.5127 -2.38797e-06 0)
(11.3251 -9.75775e-07 0)
(10.1485 1.24997e-07 0)
(9.00704 9.29884e-07 0)
(7.92042 1.467e-06 0)
(6.90362 1.77452e-06 0)
(5.96689 1.90601e-06 0)
(5.11612 1.90778e-06 0)
(4.35337 1.82016e-06 0)
(3.6776 1.67624e-06 0)
(3.08534 1.50175e-06 0)
(2.57137 1.31575e-06 0)
(2.12936 1.13156e-06 0)
(1.7523 9.57899e-07 0)
(1.43298 7.99953e-07 0)
(1.16425 6.60281e-07 0)
(0.939248 5.39633e-07 0)
(0.75154 4.37578e-07 0)
(0.5952 3.52994e-07 0)
(0.464831 2.8438e-07 0)
(0.355556 2.30104e-07 0)
(0.26298 1.88593e-07 0)
(0.183128 1.5857e-07 0)
(0.112398 1.39455e-07 0)
(0.0394398 1.32197e-07 0)
(0.0307996 -1.47808e-07 0)
(0.0876089 -1.66256e-07 0)
(0.14245 -1.96521e-07 0)
(0.204163 -2.43103e-07 0)
(0.275445 -3.06922e-07 0)
(0.359247 -3.90763e-07 0)
(0.45882 -4.9813e-07 0)
(0.577754 -6.32774e-07 0)
(0.720009 -7.98424e-07 0)
(0.889929 -9.9836e-07 0)
(1.09224 -1.23468e-06 0)
(1.33199 -1.50718e-06 0)
(1.61455 -1.81164e-06 0)
(1.9454 -2.13748e-06 0)
(2.3301 -2.46448e-06 0)
(2.77401 -2.75839e-06 0)
(3.28205 -2.96529e-06 0)
(3.85846 -3.00453e-06 0)
(4.50637 -2.76032e-06 0)
(5.22746 -2.07214e-06 0)
(6.02156 -7.24902e-07 0)
(6.8862 1.55993e-06 0)
(7.81624 5.14945e-06 0)
(8.80352 1.04752e-05 0)
(9.83659 1.80201e-05 0)
(10.9007 2.83031e-05 0)
(11.9778 4.16479e-05 0)
(13.047 5.87426e-05 0)
(14.0852 7.97212e-05 0)
(15.068 0.000104253 0)
(15.9715 0.000131423 0)
(16.7737 0.000158813 0)
(17.4563 0.0001837 0)
(18.0072 0.000201338 0)
(18.422 0.000205315 0)
(18.705 0.000187707 0)
(18.8694 0.000139268 0)
(18.9348 5.02087e-05 0)
(18.9364 -9.52751e-05 0)
(18.9057 -0.000222625 0)
(18.8647 -0.000393733 0)
(18.8286 -0.000582635 0)
(18.8151 -0.000572687 0)
(18.7887 -0.000620581 0)
(18.7642 -0.000551999 0)
(18.751 -0.000552851 0)
(18.7121 -0.000131248 0)
(18.6542 0.000685637 0)
(18.6419 0.00115935 0)
(18.6875 -0.00117256 0)
(19.291 -0.0013048 0)
(19.9002 -0.00158345 0)
(19.5504 -0.00221972 0)
(19.2182 -0.00174954 0)
(19.2993 -0.00137308 0)
(19.3503 -0.00077279 0)
(19.3562 -0.000255508 0)
(19.3262 0.000158345 0)
(19.3191 0.000211379 0)
(19.3304 0.000162508 0)
(19.3729 0.000172804 0)
(19.4218 0.000165915 0)
(19.4926 0.000137059 0)
(19.5508 0.000105829 0)
(19.5829 7.38324e-05 0)
(19.5558 4.13085e-05 0)
(19.4347 1.38886e-05 0)
(19.1958 -6.34574e-06 0)
(18.8198 -1.90381e-05 0)
(18.2952 -2.53265e-05 0)
(17.6201 -2.67148e-05 0)
(16.8019 -2.4573e-05 0)
(15.8569 -2.04406e-05 0)
(14.8083 -1.54912e-05 0)
(13.6836 -1.04572e-05 0)
(12.5127 -5.81379e-06 0)
(11.3251 -1.94835e-06 0)
(10.1485 1.04178e-06 0)
(9.00704 3.20584e-06 0)
(7.92042 4.62903e-06 0)
(6.90362 5.41807e-06 0)
(5.96689 5.72086e-06 0)
(5.11612 5.66738e-06 0)
(4.35337 5.37033e-06 0)
(3.6776 4.92198e-06 0)
(3.08534 4.39406e-06 0)
(2.57137 3.8395e-06 0)
(2.12936 3.29521e-06 0)
(1.7523 2.78518e-06 0)
(1.43298 2.32343e-06 0)
(1.16425 1.91667e-06 0)
(0.939247 1.56654e-06 0)
(0.75154 1.27131e-06 0)
(0.5952 1.0273e-06 0)
(0.46483 8.29803e-07 0)
(0.355556 6.73774e-07 0)
(0.26298 5.54342e-07 0)
(0.183128 4.67207e-07 0)
(0.112397 4.08837e-07 0)
(0.0394398 3.76253e-07 0)
(0.0307996 -2.21929e-07 0)
(0.0876088 -2.46563e-07 0)
(0.14245 -2.91315e-07 0)
(0.204163 -3.59037e-07 0)
(0.275444 -4.52525e-07 0)
(0.359247 -5.75559e-07 0)
(0.45882 -7.33058e-07 0)
(0.577754 -9.30713e-07 0)
(0.720009 -1.17446e-06 0)
(0.889929 -1.46985e-06 0)
(1.09224 -1.82106e-06 0)
(1.33199 -2.22953e-06 0)
(1.61454 -2.69181e-06 0)
(1.9454 -3.19652e-06 0)
(2.3301 -3.72017e-06 0)
(2.77401 -4.22152e-06 0)
(3.28205 -4.63429e-06 0)
(3.85846 -4.85811e-06 0)
(4.50637 -4.74762e-06 0)
(5.22746 -4.10019e-06 0)
(6.02156 -2.64293e-06 0)
(6.88621 -1.93735e-08 0)
(7.81625 4.21892e-06 0)
(8.80353 1.06157e-05 0)
(9.83661 1.98216e-05 0)
(10.9007 3.25302e-05 0)
(11.9778 4.92185e-05 0)
(13.047 7.03869e-05 0)
(14.0852 9.6614e-05 0)
(15.0681 0.000127465 0)
(15.9716 0.000161753 0)
(16.7737 0.000196705 0)
(17.4563 0.000228797 0)
(18.0072 0.000252153 0)
(18.422 0.000258867 0)
(18.7049 0.000239241 0)
(18.8692 0.000182382 0)
(18.9345 7.7344e-05 0)
(18.936 -9.49726e-05 0)
(18.9052 -0.000239947 0)
(18.8642 -0.000433656 0)
(18.8282 -0.000622555 0)
(18.8154 -0.000563016 0)
(18.7896 -0.000552557 0)
(18.7657 -0.000349081 0)
(18.7529 -0.000245712 0)
(18.7196 0.000179226 0)
(18.662 0.000333568 0)
(18.626 0.000346173 0)
(18.667 -0.00210989 0)
(19.2942 -0.00254133 0)
(19.8994 -0.00196137 0)
(19.5452 -0.00167469 0)
(19.2259 -0.00231403 0)
(19.3025 -0.00201688 0)
(19.3507 -0.00121308 0)
(19.3581 -0.000331191 0)
(19.3285 0.000345718 0)
(19.3206 0.000394921 0)
(19.3311 0.000263271 0)
(19.3733 0.000239346 0)
(19.422 0.000216274 0)
(19.4926 0.000169365 0)
(19.5508 0.000124722 0)
(19.5829 8.14771e-05 0)
(19.5558 4.00646e-05 0)
(19.4346 5.76037e-06 0)
(19.1958 -1.81599e-05 0)
(18.8198 -3.23215e-05 0)
(18.2952 -3.85088e-05 0)
(17.6201 -3.83283e-05 0)
(16.8019 -3.38705e-05 0)
(15.8569 -2.72415e-05 0)
(14.8083 -1.97385e-05 0)
(13.6836 -1.23006e-05 0)
(12.5127 -5.74275e-06 0)
(11.3251 -3.97521e-07 0)
(10.1485 3.68216e-06 0)
(9.00705 6.55866e-06 0)
(7.92042 8.35406e-06 0)
(6.90362 9.26333e-06 0)
(5.96689 9.49102e-06 0)
(5.11612 9.22577e-06 0)
(4.35337 8.63027e-06 0)
(3.6776 7.83708e-06 0)
(3.08533 6.94862e-06 0)
(2.57137 6.03993e-06 0)
(2.12935 5.16277e-06 0)
(1.7523 4.35011e-06 0)
(1.43298 3.62053e-06 0)
(1.16425 2.98205e-06 0)
(0.939247 2.43538e-06 0)
(0.751539 1.97647e-06 0)
(0.595199 1.59853e-06 0)
(0.46483 1.29345e-06 0)
(0.355555 1.05281e-06 0)
(0.262979 8.68611e-07 0)
(0.183128 7.33731e-07 0)
(0.112397 6.4183e-07 0)
(0.0394397 5.84752e-07 0)
(0.0307995 -2.63432e-07 0)
(0.0876088 -2.91731e-07 0)
(0.14245 -3.45066e-07 0)
(0.204163 -4.22833e-07 0)
(0.275444 -5.30106e-07 0)
(0.359246 -6.72048e-07 0)
(0.458819 -8.54323e-07 0)
(0.577753 -1.08351e-06 0)
(0.720008 -1.36692e-06 0)
(0.889928 -1.71206e-06 0)
(1.09223 -2.12573e-06 0)
(1.33199 -2.61282e-06 0)
(1.61454 -3.17434e-06 0)
(1.9454 -3.80476e-06 0)
(2.3301 -4.4883e-06 0)
(2.77401 -5.19396e-06 0)
(3.28205 -5.86901e-06 0)
(3.85846 -6.43076e-06 0)
(4.50637 -6.75663e-06 0)
(5.22746 -6.6736e-06 0)
(6.02157 -5.94609e-06 0)
(6.88621 -4.26307e-06 0)
(7.81626 -1.25124e-06 0)
(8.80355 3.55555e-06 0)
(9.83663 1.07411e-05 0)
(10.9008 2.09116e-05 0)
(11.9779 3.4769e-05 0)
(13.0471 5.2572e-05 0)
(14.0853 7.44638e-05 0)
(15.0681 0.000100584 0)
(15.9717 0.000130025 0)
(16.7738 0.000161091 0)
(17.4564 0.000189867 0)
(18.0072 0.000211997 0)
(18.4219 0.000221261 0)
(18.7049 0.000209824 0)
(18.8691 0.000169723 0)
(18.9343 9.16086e-05 0)
(18.9356 -3.77664e-05 0)
(18.9047 -0.000142963 0)
(18.8637 -0.000277801 0)
(18.8275 -0.000404904 0)
(18.8147 -0.000293542 0)
(18.7887 -0.000150513 0)
(18.7646 7.8663e-05 0)
(18.7525 0.000326118 0)
(18.7134 0.00253063 0)
(18.6537 0.00196983 0)
(18.6401 -0.000101095 0)
(18.6858 -0.00565719 0)
(19.2899 -0.00683246 0)
(19.9018 0.000287733 0)
(19.5524 0.00268956 0)
(19.2197 -0.00507369 0)
(19.302 -0.00423654 0)
(19.3547 -0.000892815 0)
(19.3603 0.000720267 0)
(19.3281 0.0011259 0)
(19.3195 0.000782736 0)
(19.3304 0.000425814 0)
(19.3729 0.00031361 0)
(19.4218 0.000238279 0)
(19.4924 0.000156475 0)
(19.5506 9.93728e-05 0)
(19.5828 5.13491e-05 0)
(19.5557 1.18549e-05 0)
(19.4346 -1.73197e-05 0)
(19.1957 -3.5816e-05 0)
(18.8198 -4.49193e-05 0)
(18.2952 -4.62851e-05 0)
(17.6201 -4.22381e-05 0)
(16.8019 -3.50513e-05 0)
(15.857 -2.62413e-05 0)
(14.8083 -1.71366e-05 0)
(13.6836 -8.73454e-06 0)
(12.5127 -1.60907e-06 0)
(11.3251 4.05297e-06 0)
(10.1485 8.21685e-06 0)
(9.00705 1.09716e-05 0)
(7.92042 1.25066e-05 0)
(6.90362 1.30898e-05 0)
(5.96689 1.29474e-05 0)
(5.11612 1.22932e-05 0)
(4.35337 1.13104e-05 0)
(3.6776 1.01463e-05 0)
(3.08533 8.91341e-06 0)
(2.57137 7.69294e-06 0)
(2.12935 6.53952e-06 0)
(1.7523 5.4866e-06 0)
(1.43298 4.55151e-06 0)
(1.16425 3.73989e-06 0)
(0.939245 3.04937e-06 0)
(0.751538 2.47259e-06 0)
(0.595198 1.99937e-06 0)
(0.464829 1.6184e-06 0)
(0.355555 1.31833e-06 0)
(0.262979 1.08871e-06 0)
(0.183127 9.20651e-07 0)
(0.112397 8.07359e-07 0)
(0.0394396 7.43834e-07 0)
(0.0307995 -2.69349e-07 0)
(0.0876087 -2.98416e-07 0)
(0.14245 -3.50808e-07 0)
(0.204162 -4.28307e-07 0)
(0.275444 -5.34752e-07 0)
(0.359246 -6.7515e-07 0)
(0.458819 -8.5553e-07 0)
(0.577753 -1.08308e-06 0)
(0.720007 -1.36591e-06 0)
(0.889927 -1.71297e-06 0)
(1.09223 -2.13377e-06 0)
(1.33199 -2.63769e-06 0)
(1.61454 -3.23283e-06 0)
(1.9454 -3.9245e-06 5.3043e-31)
(2.3301 -4.71308e-06 0)
(2.774 -5.59153e-06 0)
(3.28205 -6.54267e-06 0)
(3.85846 -7.53294e-06 0)
(4.50637 -8.50403e-06 0)
(5.22746 -9.37113e-06 0)
(6.02157 -1.00172e-05 0)
(6.88622 -1.02837e-05 0)
(7.81627 -9.97452e-06 0)
(8.80356 -8.8343e-06 0)
(9.83665 -6.57119e-06 0)
(10.9008 -2.85781e-06 0)
(11.9779 2.73628e-06 0)
(13.0471 1.0584e-05 0)
(14.0853 2.05739e-05 0)
(15.0682 3.29905e-05 0)
(15.9717 4.76548e-05 0)
(16.7738 6.40526e-05 5.22901e-31)
(17.4564 8.0557e-05 0)
(18.0073 9.53271e-05 0)
(18.4219 0.00010569 0)
(18.7048 0.000108409 0)
(18.869 0.000100531 -5.35461e-31)
(18.9341 7.80301e-05 0)
(18.9355 3.75474e-05 0)
(18.9045 8.93736e-06 5.02697e-31)
(18.8635 -2.08838e-05 0)
(18.8276 -1.87963e-05 0)
(18.8153 0.000135646 0)
(18.7901 0.000414865 -5.22092e-31)
(18.767 0.000937799 0)
(18.7579 0.00174553 0)
(18.7241 0.00337577 0)
(18.6582 0.0076002 0)
(18.6173 0.00563797 0)
(18.6714 -0.0054801 0)
(19.2932 -0.00491737 0)
(19.9086 -0.00413368 0)
(19.5576 -0.00321513 0)
(19.2243 -0.00251395 0)
(19.3057 -0.00186334 0)
(19.3577 -0.00111455 -2.93591e-31)
(19.3628 -0.00049027 3.02288e-31)
(19.329 -4.66636e-05 0)
(19.3197 2.02674e-05 0)
(19.3303 -2.00534e-05 -2.6455e-31)
(19.373 -1.13493e-05 0)
(19.4218 -1.09454e-05 0)
(19.4923 -2.09409e-05 0)
(19.5505 -3.41632e-05 0)
(19.5827 -4.59299e-05 0)
(19.5556 -5.5597e-05 0)
(19.4345 -6.08722e-05 0)
(19.1957 -6.15139e-05 0)
(18.8198 -5.74583e-05 0)
(18.2952 -4.96679e-05 0)
(17.6201 -3.99758e-05 0)
(16.8019 -2.94319e-05 2.71613e-31)
(15.857 -1.88819e-05 0)
(14.8083 -9.24784e-06 0)
(13.6836 -1.07864e-06 0)
(12.5127 5.46215e-06 0)
(11.3251 1.03811e-05 0)
(10.1485 1.37055e-05 0)
(9.00706 1.56218e-05 0)
(7.92042 1.64123e-05 0)
(6.90362 1.63368e-05 0)
(5.96689 1.5626e-05 0)
(5.11611 1.44894e-05 0)
(4.35337 1.31019e-05 0)
(3.67759 1.16016e-05 0)
(3.08533 1.00915e-05 0)
(2.57137 8.64368e-06 0)
(2.12935 7.30487e-06 0)
(1.75229 6.10152e-06 0)
(1.43298 5.04493e-06 0)
(1.16425 4.1356e-06 0)
(0.939244 3.36689e-06 -2.67151e-31)
(0.751537 2.72786e-06 0)
(0.595197 2.20543e-06 -2.66931e-31)
(0.464829 1.78592e-06 0)
(0.355554 1.4561e-06 0)
(0.262979 1.20397e-06 0)
(0.183127 1.01942e-06 0)
(0.112397 8.94908e-07 0)
(0.0394396 8.28382e-07 0)
(0.0307995 -2.46427e-07 0)
(0.0876086 -2.7314e-07 0)
(0.142449 -3.17015e-07 0)
(0.204162 -3.84269e-07 0)
(0.275444 -4.77359e-07 0)
(0.359246 -6.00097e-07 0)
(0.458818 -7.57773e-07 0)
(0.577752 -9.56967e-07 0)
(0.720007 -1.20587e-06 0)
(0.889926 -1.51435e-06 0)
(1.09223 -1.89415e-06 0)
(1.33199 -2.35888e-06 0)
(1.61454 -2.9242e-06 0)
(1.9454 -3.60715e-06 -5.3043e-31)
(2.3301 -4.42559e-06 0)
(2.774 -5.40015e-06 0)
(3.28205 -6.55452e-06 0)
(3.85845 -7.91648e-06 0)
(4.50636 -9.51886e-06 0)
(5.22746 -1.13945e-05 0)
(6.02157 -1.35749e-05 0)
(6.88621 -1.60914e-05 0)
(7.81627 -1.89774e-05 0)
(8.80355 -2.22594e-05 0)
(9.83665 -2.59836e-05 0)
(10.9008 -3.01695e-05 0)
(11.9779 -3.47759e-05 0)
(13.0471 -3.97363e-05 0)
(14.0853 -4.47121e-05 0)
(15.0682 -4.96135e-05 0)
(15.9717 -5.38952e-05 0)
(16.7738 -5.67563e-05 -5.22901e-31)
(17.4564 -5.66515e-05 0)
(18.0073 -5.2499e-05 0)
(18.422 -4.25313e-05 0)
(18.7048 -2.48581e-05 0)
(18.869 2.54173e-06 5.35461e-31)
(18.9342 4.17512e-05 0)
(18.9355 9.55731e-05 0)
(18.9046 0.000129805 -5.02695e-31)
(18.8635 0.000155609 0)
(18.8276 0.000144523 0)
(18.8153 -3.23512e-05 0)
(18.7901 -0.000338637 5.22085e-31)
(18.7671 -0.000872238 0)
(18.758 -0.00171517 0)
(18.7244 -0.00318128 0)
(18.6584 -0.00728455 0)
(18.617 -0.00567413 0)
(18.6713 0.00519016 0)
(19.2932 0.004376 0)
(19.9087 0.0039011 0)
(19.5577 0.00289704 0)
(19.224 0.00281926 0)
(19.3054 0.00223871 0)
(19.3576 0.00124879 2.93509e-31)
(19.3628 0.000482701 -3.01909e-31)
(19.3292 -6.68067e-05 0)
(19.3199 -0.000128892 0)
(19.3305 -7.15452e-05 2.64548e-31)
(19.3731 -0.000100006 0)
(19.4218 -0.000122649 0)
(19.4924 -0.000137353 0)
(19.5505 -0.000136819 0)
(19.5827 -0.000129665 0)
(19.5556 -0.000116331 0)
(19.4346 -9.9739e-05 0)
(19.1957 -8.21548e-05 0)
(18.8198 -6.45964e-05 0)
(18.2953 -4.80549e-05 0)
(17.6201 -3.29937e-05 0)
(16.8019 -1.96873e-05 -2.71613e-31)
(15.857 -8.41986e-06 0)
(14.8084 7.40008e-07 0)
(13.6837 7.85318e-06 0)
(12.5127 1.30332e-05 0)
(11.3251 1.6479e-05 0)
(10.1485 1.84498e-05 0)
(9.00706 1.92201e-05 0)
(7.92042 1.90763e-05 0)
(6.90362 1.82546e-05 0)
(5.96689 1.69707e-05 0)
(5.11611 1.54073e-05 0)
(4.35336 1.37108e-05 0)
(3.67759 1.19929e-05 0)
(3.08533 1.03338e-05 0)
(2.57136 8.78713e-06 0)
(2.12935 7.38494e-06 0)
(1.75229 6.14269e-06 0)
(1.43297 5.06353e-06 0)
(1.16424 4.14216e-06 0)
(0.939243 3.3678e-06 2.67151e-31)
(0.751536 2.7268e-06 0)
(0.595197 2.20426e-06 2.66931e-31)
(0.464828 1.78544e-06 0)
(0.355554 1.45661e-06 0)
(0.262978 1.20571e-06 0)
(0.183127 1.02275e-06 0)
(0.112397 8.99637e-07 0)
(0.0394395 8.29898e-07 0)
(0.0307994 -2.03304e-07 0)
(0.0876085 -2.22228e-07 0)
(0.142449 -2.56127e-07 0)
(0.204162 -3.07379e-07 0)
(0.275443 -3.78634e-07 0)
(0.359245 -4.731e-07 0)
(0.458818 -5.9489e-07 0)
(0.577752 -7.49492e-07 0)
(0.720006 -9.44161e-07 0)
(0.889926 -1.18816e-06 0)
(1.09223 -1.49348e-06 0)
(1.33199 -1.87549e-06 0)
(1.61454 -2.35394e-06 0)
(1.9454 -2.95529e-06 0)
(2.3301 -3.71529e-06 0)
(2.774 -4.67934e-06 0)
(3.28205 -5.9039e-06 0)
(3.85845 -7.46277e-06 0)
(4.50636 -9.45704e-06 0)
(5.22746 -1.20143e-05 0)
(6.02156 -1.5292e-05 0)
(6.88621 -1.94843e-05 0)
(7.81626 -2.48273e-05 0)
(8.80354 -3.15941e-05 0)
(9.83663 -4.00862e-05 0)
(10.9008 -5.06083e-05 0)
(11.9779 -6.34128e-05 0)
(13.0471 -7.86024e-05 0)
(14.0853 -9.60578e-05 0)
(15.0682 -0.000115304 0)
(15.9717 -0.000135215 0)
(16.7738 -0.000153697 0)
(17.4564 -0.000167661 0)
(18.0073 -0.000172914 0)
(18.422 -0.000163865 0)
(18.7049 -0.000133447 0)
(18.8691 -7.55892e-05 0)
(18.9343 1.76386e-05 0)
(18.9356 0.000157532 0)
(18.9047 0.000266456 0)
(18.8636 0.000394512 0)
(18.8275 0.000506742 0)
(18.8146 0.000360051 0)
(18.7886 0.000181835 0)
(18.7644 -9.40042e-05 0)
(18.7524 -0.000397979 0)
(18.7138 -0.0026315 0)
(18.6536 -0.00214009 0)
(18.6391 -0.000127016 0)
(18.6852 0.00541935 0)
(19.2907 0.00650344 0)
(19.9017 -0.000356854 0)
(19.5521 -0.00298651 0)
(19.2203 0.00516473 0)
(19.3024 0.00456445 0)
(19.3544 0.00129495 0)
(19.3598 -0.000466354 0)
(19.3277 -0.00104752 0)
(19.3193 -0.00077392 0)
(19.3303 -0.000462633 0)
(19.3728 -0.0003895 0)
(19.4217 -0.000346336 0)
(19.4923 -0.000293997 0)
(19.5505 -0.000252239 0)
(19.5827 -0.000211874 0)
(19.5557 -0.000170618 0)
(19.4346 -0.00013132 0)
(19.1958 -9.67424e-05 0)
(18.8198 -6.76726e-05 0)
(18.2953 -4.39075e-05 0)
(17.6201 -2.48779e-05 0)
(16.802 -1.01044e-05 0)
(15.857 1.01679e-06 0)
(14.8084 9.07914e-06 0)
(13.6837 1.46183e-05 0)
(12.5127 1.81311e-05 0)
(11.3251 2.00213e-05 0)
(10.1485 2.06843e-05 0)
(9.00706 2.04238e-05 0)
(7.92042 1.94952e-05 0)
(6.90361 1.81173e-05 0)
(5.96688 1.64698e-05 0)
(5.11611 1.46948e-05 0)
(4.35336 1.29002e-05 0)
(3.67759 1.1164e-05 0)
(3.08532 9.53924e-06 0)
(2.57136 8.05851e-06 0)
(2.12934 6.73839e-06 0)
(1.75229 5.58341e-06 0)
(1.43297 4.58954e-06 0)
(1.16424 3.747e-06 0)
(0.939241 3.04274e-06 0)
(0.751535 2.46205e-06 0)
(0.595196 1.98998e-06 0)
(0.464827 1.61223e-06 0)
(0.355553 1.31583e-06 0)
(0.262978 1.08969e-06 0)
(0.183126 9.24973e-07 0)
(0.112397 8.14753e-07 0)
(0.0394394 7.5006e-07 0)
(0.0307994 -1.48708e-07 0)
(0.0876085 -1.56629e-07 0)
(0.142449 -1.79819e-07 0)
(0.204162 -2.14417e-07 0)
(0.275443 -2.61762e-07 0)
(0.359245 -3.2427e-07 0)
(0.458818 -4.05333e-07 0)
(0.577751 -5.09515e-07 0)
(0.720006 -6.42854e-07 0)
(0.889925 -8.13496e-07 0)
(1.09223 -1.03209e-06 0)
(1.33199 -1.31307e-06 0)
(1.61454 -1.67644e-06 0)
(1.9454 -2.15055e-06 0)
(2.33009 -2.77539e-06 0)
(2.774 -3.6042e-06 0)
(3.28204 -4.70774e-06 0)
(3.85845 -6.17953e-06 0)
(4.50635 -8.14222e-06 0)
(5.22745 -1.07597e-05 0)
(6.02155 -1.42467e-05 0)
(6.8862 -1.88733e-05 0)
(7.81624 -2.49668e-05 0)
(8.80352 -3.29104e-05 0)
(9.83661 -4.31241e-05 0)
(10.9007 -5.60482e-05 0)
(11.9778 -7.20765e-05 0)
(13.0471 -9.14228e-05 0)
(14.0852 -0.000114014 0)
(15.0681 -0.000139286 0)
(15.9717 -0.000165889 0)
(16.7738 -0.000191357 0)
(17.4564 -0.000211781 0)
(18.0073 -0.000221612 0)
(18.422 -0.000213738 0)
(18.705 -0.000178935 0)
(18.8693 -0.00010835 0)
(18.9346 8.47328e-06 0)
(18.936 0.000187939 0)
(18.9052 0.000333298 0)
(18.8642 0.000518441 0)
(18.8281 0.000697242 0)
(18.8153 0.000609014 0)
(18.7895 0.000570432 0)
(18.7656 0.000393579 0)
(18.7528 0.00028615 0)
(18.7196 -0.000312403 0)
(18.662 -0.000552494 0)
(18.6258 -0.000272905 0)
(18.6668 0.00233286 0)
(19.2942 0.00288673 0)
(19.8994 0.00220512 0)
(19.5453 0.00224235 0)
(19.226 0.00228997 0)
(19.3025 0.00181136 0)
(19.3504 0.00106166 0)
(19.3578 0.000214955 0)
(19.3283 -0.000450451 0)
(19.3206 -0.000508753 0)
(19.3311 -0.000389478 0)
(19.3732 -0.000367568 0)
(19.422 -0.000346501 0)
(19.4926 -0.00030323 0)
(19.5508 -0.000261815 0)
(19.5829 -0.000218016 0)
(19.5558 -0.000171166 0)
(19.4347 -0.000127715 0)
(19.1959 -8.99508e-05 0)
(18.8199 -5.90387e-05 0)
(18.2954 -3.48167e-05 0)
(17.6202 -1.6422e-05 0)
(16.802 -2.96105e-06 0)
(15.857 6.48553e-06 0)
(14.8084 1.27605e-05 0)
(13.6837 1.65914e-05 0)
(12.5127 1.86323e-05 0)
(11.3251 1.93616e-05 0)
(10.1485 1.9154e-05 0)
(9.00706 1.82986e-05 0)
(7.92042 1.70222e-05 0)
(6.90361 1.54991e-05 0)
(5.96688 1.38613e-05 0)
(5.1161 1.22062e-05 0)
(4.35336 1.06029e-05 0)
(3.67758 9.09851e-06 0)
(3.08532 7.72193e-06 0)
(2.57136 6.48844e-06 0)
(2.12934 5.40285e-06 0)
(1.75229 4.46244e-06 0)
(1.43297 3.65937e-06 0)
(1.16424 2.98261e-06 0)
(0.93924 2.41947e-06 0)
(0.751534 1.95673e-06 0)
(0.595195 1.58154e-06 0)
(0.464827 1.28206e-06 0)
(0.355553 1.04742e-06 0)
(0.262977 8.68349e-07 0)
(0.183126 7.37146e-07 0)
(0.112396 6.48088e-07 0)
(0.0394394 5.9788e-07 0)
(0.0307994 -8.91392e-08 0)
(0.0876085 -9.50563e-08 0)
(0.142449 -1.07435e-07 0)
(0.204162 -1.26161e-07 0)
(0.275443 -1.5204e-07 0)
(0.359245 -1.86481e-07 0)
(0.458818 -2.31627e-07 0)
(0.577751 -2.90368e-07 0)
(0.720006 -3.66776e-07 0)
(0.889925 -4.66607e-07 0)
(1.09223 -5.97588e-07 0)
(1.33199 -7.7057e-07 0)
(1.61454 -1.00102e-06 0)
(1.94539 -1.30993e-06 0)
(2.33009 -1.72557e-06 0)
(2.774 -2.28821e-06 0)
(3.28204 -3.05496e-06 0)
(3.85844 -4.10398e-06 0)
(4.50635 -5.53842e-06 0)
(5.22744 -7.49468e-06 0)
(6.02154 -1.01504e-05 0)
(6.88619 -1.37306e-05 0)
(7.81623 -1.851e-05 0)
(8.80351 -2.4813e-05 0)
(9.83659 -3.2998e-05 0)
(10.9007 -4.34307e-05 0)
(11.9778 -5.64403e-05 0)
(13.047 -7.22542e-05 0)
(14.0852 -9.08297e-05 0)
(15.0681 -0.000111716 0)
(15.9716 -0.000133828 0)
(16.7737 -0.000155213 0)
(17.4563 -0.000172643 0)
(18.0073 -0.000181506 0)
(18.4221 -0.000175806 0)
(18.7051 -0.000148469 0)
(18.8695 -9.07131e-05 0)
(18.9349 5.10679e-06 0)
(18.9364 0.000154514 0)
(18.9056 0.000279955 0)
(18.8646 0.000443303 0)
(18.8284 0.000618512 0)
(18.815 0.000583242 0)
(18.7885 0.000606971 0)
(18.7641 0.000508937 0)
(18.751 0.000481983 0)
(18.7119 1.97782e-06 0)
(18.654 -0.000913376 0)
(18.6418 -0.0014514 0)
(18.6875 0.000875256 0)
(19.2912 0.00086578 0)
(19.9003 0.00161662 0)
(19.5507 0.00182164 0)
(19.2186 0.00222091 0)
(19.2996 0.00196448 0)
(19.3502 0.00117704 0)
(19.3559 0.000423715 0)
(19.326 -0.000138089 0)
(19.319 -0.000218218 0)
(19.3303 -0.000178793 0)
(19.3728 -0.000211273 0)
(19.4218 -0.000220872 0)
(19.4925 -0.000207516 0)
(19.5508 -0.000184494 0)
(19.583 -0.000156003 0)
(19.5559 -0.000122496 0)
(19.4348 -9.01649e-05 0)
(19.1959 -6.21486e-05 0)
(18.82 -3.93244e-05 0)
(18.2954 -2.16663e-05 0)
(17.6202 -8.61431e-06 0)
(16.802 6.30723e-07 0)
(15.857 6.84546e-06 0)
(14.8084 1.07619e-05 0)
(13.6837 1.29752e-05 0)
(12.5127 1.39496e-05 0)
(11.3251 1.40559e-05 0)
(10.1485 1.35777e-05 0)
(9.00705 1.27255e-05 0)
(7.92042 1.16539e-05 0)
(6.90361 1.04751e-05 0)
(5.96688 9.26875e-06 0)
(5.1161 8.09034e-06 0)
(4.35335 6.97686e-06 0)
(3.67758 5.9514e-06 0)
(3.08532 5.02657e-06 0)
(2.57135 4.20718e-06 0)
(2.12934 3.49242e-06 0)
(1.75229 2.87758e-06 0)
(1.43297 2.35544e-06 0)
(1.16424 1.91738e-06 0)
(0.939239 1.55409e-06 0)
(0.751533 1.25642e-06 0)
(0.595194 1.0156e-06 0)
(0.464826 8.23532e-07 0)
(0.355552 6.73247e-07 0)
(0.262977 5.58589e-07 0)
(0.183126 4.74389e-07 0)
(0.112396 4.16572e-07 0)
(0.0394393 3.86081e-07 0)
(0.0307994 -3.04826e-08 0)
(0.0876085 -3.53499e-08 0)
(0.142449 -3.92378e-08 0)
(0.204162 -4.48153e-08 0)
(0.275443 -5.29286e-08 0)
(0.359245 -6.40574e-08 0)
(0.458818 -7.87755e-08 0)
(0.577751 -9.80572e-08 0)
(0.720006 -1.23225e-07 0)
(0.889925 -1.56034e-07 0)
(1.09223 -1.99277e-07 0)
(1.33199 -2.56994e-07 0)
(1.61454 -3.34791e-07 0)
(1.94539 -4.40541e-07 0)
(2.33009 -5.85345e-07 0)
(2.774 -7.8482e-07 0)
(3.28204 -1.06058e-06 0)
(3.85844 -1.44198e-06 0)
(4.50635 -1.96849e-06 0)
(5.22744 -2.69256e-06 0)
(6.02154 -3.68266e-06 0)
(6.88618 -5.02583e-06 0)
(7.81622 -6.82857e-06 0)
(8.80349 -9.21684e-06 0)
(9.83657 -1.23321e-05 0)
(10.9007 -1.63133e-05 0)
(11.9778 -2.12882e-05 0)
(13.047 -2.73468e-05 0)
(14.0852 -3.44893e-05 0)
(15.068 -4.2531e-05 0)
(15.9716 -5.10608e-05 0)
(16.7737 -5.93339e-05 0)
(17.4563 -6.61213e-05 0)
(18.0073 -6.96521e-05 0)
(18.4221 -6.76017e-05 0)
(18.7052 -5.71836e-05 0)
(18.8696 -3.48075e-05 0)
(18.935 2.64776e-06 0)
(18.9366 6.27411e-05 0)
(18.906 0.00011976 0)
(18.865 0.000201285 0)
(18.829 0.000324742 0)
(18.8157 0.000409431 0)
(18.7896 0.000603879 0)
(18.7657 0.000964075 0)
(18.7514 0.00161423 0)
(18.7166 0.000958878 0)
(18.6595 0.00512852 0)
(18.6266 0.0039623 0)
(18.6685 -0.000776252 0)
(19.2972 0.000736878 0)
(19.8986 -0.00487094 0)
(19.5437 -0.00607812 0)
(19.2242 0.00224896 0)
(19.2999 0.00225188 0)
(19.3468 -0.000148361 0)
(19.3544 -0.000994486 0)
(19.3267 -0.000861947 0)
(19.3201 -0.000489253 0)
(19.3309 -0.000277579 0)
(19.373 -0.00021059 0)
(19.422 -0.000164046 0)
(19.4927 -0.000117768 0)
(19.5509 -9.08668e-05 0)
(19.5831 -6.97942e-05 0)
(19.556 -5.19364e-05 0)
(19.4349 -3.64042e-05 0)
(19.196 -2.41312e-05 0)
(18.82 -1.47036e-05 0)
(18.2954 -7.71185e-06 0)
(17.6202 -2.74355e-06 0)
(16.802 6.42082e-07 0)
(15.8571 2.83438e-06 0)
(14.8084 4.17396e-06 0)
(13.6837 4.89552e-06 0)
(12.5127 5.16948e-06 0)
(11.3251 5.13975e-06 0)
(10.1485 4.91234e-06 0)
(9.00705 4.56358e-06 0)
(7.92042 4.14839e-06 0)
(6.90361 3.70542e-06 0)
(5.96688 3.26139e-06 0)
(5.1161 2.8341e-06 0)
(4.35335 2.43496e-06 0)
(3.67758 2.07066e-06 0)
(3.08532 1.74444e-06 0)
(2.57135 1.45704e-06 0)
(2.12934 1.20749e-06 0)
(1.75228 9.93616e-07 0)
(1.43297 8.12539e-07 0)
(1.16424 6.60984e-07 0)
(0.939239 5.35552e-07 0)
(0.751533 4.32957e-07 0)
(0.595194 3.50063e-07 0)
(0.464826 2.83813e-07 0)
(0.355552 2.31965e-07 0)
(0.262977 1.92342e-07 0)
(0.183126 1.63328e-07 0)
(0.112396 1.43597e-07 0)
(0.0394393 1.33607e-07 0)
)
;

boundaryField
{
    sides1
    {
        type            zeroGradient;
    }
    sides2
    {
        type            slip;
    }
    empty
    {
        type            empty;
    }
}


// ************************************************************************* //
