/*--------------------------------*- C++ -*----------------------------------*\
| =========                 |                                                 |
| \\      /  F ield         | OpenFOAM: The Open Source CFD Toolbox           |
|  \\    /   O peration     | Version:  3.0.1                                 |
|   \\  /    A nd           | Web:      www.OpenFOAM.org                      |
|    \\/     M anipulation  |                                                 |
\*---------------------------------------------------------------------------*/
FoamFile
{
    version     2.0;
    format      ascii;
    class       surfaceScalarField;
    location    "0.0002";
    object      phi;
}
// * * * * * * * * * * * * * * * * * * * * * * * * * * * * * * * * * * * * * //

dimensions      [1 0 -1 0 0 0 0];

internalField   nonuniform List<scalar> 
1890
(
6.91458e-07
-1.1184e-10
1.40363e-06
-1.24469e-10
2.22089e-06
-1.45801e-10
3.20533e-06
-1.79885e-10
4.42532e-06
-2.28646e-10
5.9641e-06
-2.95707e-10
7.92238e-06
-3.85674e-10
1.04234e-05
-5.04524e-10
1.36181e-05
-6.605e-10
1.76908e-05
-8.6249e-10
2.28654e-05
-1.1216e-09
2.94122e-05
-1.45673e-09
3.76546e-05
-1.87818e-09
4.79755e-05
-2.41567e-09
6.08229e-05
-3.08384e-09
7.67145e-05
-3.91958e-09
9.62388e-05
-4.94243e-09
0.000120054
-6.18371e-09
0.000148879
-7.67518e-09
0.000183483
-9.43724e-09
0.000224661
-1.14923e-08
0.000273203
-1.38111e-08
0.000329853
-1.63942e-08
0.000395254
-1.91578e-08
0.00046988
-2.20399e-08
0.000553964
-2.47986e-08
0.000647411
-2.7262e-08
0.000749708
-2.91071e-08
0.000859845
-2.95637e-08
0.000976234
-2.52869e-08
0.00109668
-2.37506e-08
0.00121834
-2.06414e-08
0.00133781
-9.08275e-09
0.00145123
-1.30451e-08
0.00155452
1.72782e-09
0.00164376
1.2214e-08
0.0017156
2.48437e-08
0.00176799
1.98872e-08
0.00180028
5.56727e-08
0.00181506
-5.70531e-08
0.00181514
1.49701e-07
0.00180955
1.0711e-07
0.0018061
-6.41872e-08
0.00180274
-1.71883e-07
0.00179941
-4.42584e-08
0.00179771
-2.87492e-08
0.00179799
3.38307e-08
0.00180272
-4.49925e-06
0.00180203
-6.61393e-07
0.00179873
9.94264e-06
0.00175324
1.18615e-05
0.00171832
-7.31044e-06
0.00171678
-6.88759e-06
0.00171648
-4.60636e-07
0.00171586
6.23817e-08
0.00171621
-4.90518e-08
0.00171905
-7.76054e-08
0.00172386
-1.47934e-07
0.00172971
-3.53979e-07
0.00173578
-4.42301e-07
0.00173814
-3.84989e-07
0.00173175
-2.05747e-07
0.0017122
-2.55517e-07
0.00167589
-2.59179e-07
0.00162088
-2.1967e-07
0.00154703
-1.64521e-07
0.00145602
-1.23492e-07
0.00135086
-3.57517e-08
0.00123562
-3.91029e-08
0.00111462
-6.56085e-10
0.000992141
1.86987e-08
0.000871982
2.94593e-08
0.000757262
3.48138e-08
0.000650304
3.56838e-08
0.000552639
3.4292e-08
0.000465088
3.15381e-08
0.000387874
2.80309e-08
0.000320761
2.4304e-08
0.000263186
2.07095e-08
0.000214369
1.73179e-08
0.000173415
1.4325e-08
0.00013939
1.16878e-08
0.000111368
9.48673e-09
8.84766e-05
7.59347e-09
6.99152e-05
6.05078e-09
5.49678e-05
4.79093e-09
4.30066e-05
3.76649e-09
3.34909e-05
2.94798e-09
2.59609e-05
2.29574e-09
2.00307e-05
1.77976e-09
1.53796e-05
1.37457e-09
1.17432e-05
1.05818e-09
8.9056e-06
8.12988e-10
6.69065e-06
6.24762e-10
4.95541e-06
4.81733e-10
3.58364e-06
3.74521e-10
2.47976e-06
2.96327e-10
1.56558e-06
2.41581e-10
7.705e-07
2.07215e-10
1.87021e-10
6.91413e-07
-2.14366e-10
1.40354e-06
-2.38302e-10
2.22074e-06
-2.7884e-10
3.20512e-06
-3.43862e-10
4.42503e-06
-4.3668e-10
5.9637e-06
-5.64359e-10
7.92185e-06
-7.35345e-10
1.04227e-05
-9.60912e-10
1.36172e-05
-1.25561e-09
1.76896e-05
-1.63675e-09
2.28639e-05
-2.12631e-09
2.94102e-05
-2.75249e-09
3.76521e-05
-3.54338e-09
4.79722e-05
-4.53836e-09
6.08188e-05
-5.77823e-09
7.67094e-05
-7.30867e-09
9.62325e-05
-9.17795e-09
0.000120046
-1.14381e-08
0.000148869
-1.41313e-08
0.000183471
-1.72889e-08
0.000224647
-2.09132e-08
0.000273187
-2.49834e-08
0.000329834
-2.94773e-08
0.000395233
-3.41253e-08
0.000469857
-3.88603e-08
0.00055394
-4.33799e-08
0.000647386
-4.73755e-08
0.000749685
-5.09408e-08
0.000859831
-5.55275e-08
0.000976218
-3.22006e-08
0.00109667
-3.3831e-08
0.00121834
-2.75223e-08
0.00133783
-1.31224e-08
0.00145124
1.58679e-09
0.00155454
2.12537e-08
0.00164376
4.6277e-08
0.00171557
8.90202e-08
0.00176786
1.36245e-07
0.00180009
2.00444e-07
0.0018144
3.78157e-07
0.0018144
4.31888e-07
0.00180844
6.54593e-07
0.00180391
9.23153e-07
0.00179869
1.40568e-06
0.00179365
1.56583e-06
0.00178962
2.27928e-06
0.00178833
1.4835e-06
0.00178131
3.01364e-06
0.00177776
2.02933e-06
0.00180216
-1.70072e-05
0.00179231
-4.21806e-06
0.00173189
1.49863e-05
0.00171062
1.73623e-06
0.00171226
-3.14596e-06
0.00171279
-1.05071e-06
0.0017139
-9.92535e-07
0.00171728
-6.60838e-07
0.00172287
-9.53677e-07
0.00172901
-9.97361e-07
0.0017352
-9.00671e-07
0.00173779
-8.48433e-07
0.00173181
-7.48338e-07
0.00171245
-6.52227e-07
0.00167618
-5.33342e-07
0.00162114
-4.23436e-07
0.00154725
-3.22049e-07
0.00145616
-2.22537e-07
0.00135099
-1.40846e-07
0.00123569
-7.63461e-08
0.00111466
-2.11637e-08
0.000992151
2.13234e-08
0.00087197
4.90011e-08
0.00075724
5.7311e-08
0.000650276
6.05863e-08
0.000552611
5.9708e-08
0.00046506
5.59507e-08
0.000387848
5.05806e-08
0.000320739
4.45234e-08
0.000263166
3.82928e-08
0.000214352
3.2356e-08
0.000173402
2.69314e-08
0.000139378
2.21502e-08
0.000111359
1.79882e-08
8.84691e-05
1.44952e-08
6.99092e-05
1.15914e-08
5.4963e-05
9.19975e-09
4.30029e-05
7.2537e-09
3.34879e-05
5.6872e-09
2.59586e-05
4.43434e-09
2.00289e-05
3.44076e-09
1.53782e-05
2.65853e-09
1.17422e-05
2.04784e-09
8.90477e-06
1.5741e-09
6.69003e-06
1.20954e-09
4.95495e-06
9.32226e-10
3.5833e-06
7.24576e-10
2.47953e-06
5.73047e-10
1.56543e-06
4.66789e-10
7.70428e-07
4.00254e-10
3.61196e-10
6.91336e-07
-2.97658e-10
1.40338e-06
-3.30858e-10
2.2205e-06
-3.86848e-10
3.20477e-06
-4.76872e-10
4.42455e-06
-6.04911e-10
5.96306e-06
-7.80508e-10
7.921e-06
-1.0153e-09
1.04216e-05
-1.32434e-09
1.36158e-05
-1.72653e-09
1.76878e-05
-2.24546e-09
2.28615e-05
-2.90938e-09
2.94073e-05
-3.75272e-09
3.76483e-05
-4.81489e-09
4.79676e-05
-6.14624e-09
6.08131e-05
-7.79093e-09
7.67024e-05
-9.81485e-09
9.62241e-05
-1.22643e-08
0.000120036
-1.52062e-08
0.000148858
-1.86797e-08
0.000183458
-2.2725e-08
0.000224632
-2.73395e-08
0.000273171
-3.25101e-08
0.000329818
-3.80335e-08
0.000395217
-4.39591e-08
0.000469844
-4.97976e-08
0.000553931
-5.52202e-08
0.000647384
-5.96179e-08
0.000749691
-6.19397e-08
0.000859834
-5.96464e-08
0.00097624
-3.91278e-08
0.00109672
-5.93531e-08
0.00121841
-3.71842e-08
0.00133791
-1.26567e-08
0.00145135
1.04008e-08
0.00155467
4.16841e-08
0.00164392
7.73296e-08
0.00171581
9.65479e-08
0.00176823
1.43404e-07
0.00180063
2.21667e-07
0.00181565
1.88397e-07
0.00181603
3.91831e-07
0.0018111
1.15876e-07
0.00180823
1.17045e-07
0.00180604
-1.23412e-07
0.00180406
-8.36303e-08
0.00180529
-1.09804e-06
0.0018074
-8.97172e-07
0.00181402
-3.5643e-06
0.0018155
-5.71958e-07
0.001797
7.90879e-06
0.00174999
9.61443e-06
0.00173396
-1.04464e-05
0.00172904
-1.62119e-06
0.0017216
3.20622e-06
0.00171812
1.48595e-06
0.00171702
9.33646e-08
0.00171981
-7.00002e-07
0.00172456
-9.94335e-07
0.00173011
-9.54001e-07
0.00173622
-1.07784e-06
0.00173871
-9.28033e-07
0.00173262
-9.1429e-07
0.00171321
-8.48142e-07
0.00167689
-6.94348e-07
0.00162175
-5.48335e-07
0.00154776
-4.04346e-07
0.0014566
-2.80408e-07
0.00135131
-1.75085e-07
0.00123592
-8.51559e-08
0.0011148
-2.24994e-08
0.000992231
1.93785e-08
0.000872028
3.09637e-08
0.000757267
6.17659e-08
0.000650281
7.0731e-08
0.0005526
7.19574e-08
0.000465041
6.9041e-08
0.000387826
6.35305e-08
0.000320715
5.66539e-08
0.000263143
4.93529e-08
0.000214331
4.21834e-08
0.000173383
3.54586e-08
0.000139362
2.94292e-08
0.000111345
2.41592e-08
8.84579e-05
1.96156e-08
6.99001e-05
1.57883e-08
5.49556e-05
1.26018e-08
4.29969e-05
9.99011e-09
3.34832e-05
7.86505e-09
2.59548e-05
6.15569e-09
2.00259e-05
4.79152e-09
1.53758e-05
3.71246e-09
1.17404e-05
2.86528e-09
8.90339e-06
2.20544e-09
6.68897e-06
1.69719e-09
4.95416e-06
1.30949e-09
3.58273e-06
1.01838e-09
2.47913e-06
8.05883e-10
1.56518e-06
6.56174e-10
7.70302e-07
5.62709e-10
5.07457e-10
6.91229e-07
-3.53729e-10
1.40317e-06
-3.9328e-10
2.22016e-06
-4.59365e-10
3.20429e-06
-5.6573e-10
4.42388e-06
-7.16629e-10
5.96217e-06
-9.2332e-10
7.91983e-06
-1.19888e-09
1.04201e-05
-1.5605e-09
1.36138e-05
-2.02926e-09
1.76852e-05
-2.63137e-09
2.28583e-05
-3.3988e-09
2.94032e-05
-4.36837e-09
3.76433e-05
-5.58222e-09
4.79613e-05
-7.08979e-09
6.08054e-05
-8.94778e-09
7.6693e-05
-1.12068e-08
9.62129e-05
-1.39265e-08
0.000120023
-1.71526e-08
0.000148842
-2.09285e-08
0.00018344
-2.52584e-08
0.000224612
-3.01488e-08
0.000273149
-3.54826e-08
0.000329795
-4.11495e-08
0.000395193
-4.68554e-08
0.00046982
-5.22746e-08
0.000553909
-5.68759e-08
0.000647365
-5.98783e-08
0.000749677
-6.05264e-08
0.000859837
-5.84265e-08
0.000976273
-4.89238e-08
0.00109674
-3.46731e-08
0.00121844
-2.2572e-08
0.00133795
2.65123e-09
0.00145141
3.94316e-08
0.00155473
7.72982e-08
0.00164398
1.19134e-07
0.00171585
1.38725e-07
0.00176822
2.29556e-07
0.00180066
2.40562e-07
0.00181531
3.77134e-07
0.00181563
3.95994e-07
0.00180974
5.32971e-07
0.00180534
6.192e-07
0.0018006
5.37725e-07
0.00179583
7.02935e-07
0.00179227
2.36423e-07
0.00179058
6.22545e-07
0.00178795
-5.44574e-07
0.00178553
1.01607e-06
0.00180097
-1.02191e-05
0.00178146
3.30349e-06
0.00172918
4.2511e-06
0.00171193
3.0182e-06
0.00171399
-4.41976e-07
0.00171493
-5.3476e-07
0.00171554
-4.85505e-07
0.00171842
-7.15655e-07
0.0017239
-1.51039e-06
0.00172964
-9.06355e-07
0.00173591
-1.06533e-06
0.00173876
-9.73591e-07
0.0017329
-9.6125e-07
0.0017136
-8.65904e-07
0.00167735
-7.35745e-07
0.00162227
-6.06348e-07
0.00154822
-4.38296e-07
0.00145697
-3.07795e-07
0.0013516
-2.00984e-07
0.00123614
-1.10183e-07
0.00111496
-4.95463e-08
0.000992353
-1.71413e-08
0.000872074
3.00867e-08
0.000757287
4.09172e-08
0.000650283
5.95804e-08
0.000552588
6.79798e-08
0.00046502
6.86843e-08
0.0003878
6.55035e-08
0.000320688
6.0053e-08
0.000263117
5.34338e-08
0.000214306
4.64687e-08
0.00017336
3.97085e-08
0.000139342
3.33796e-08
0.000111328
2.77056e-08
8.84434e-05
2.2706e-08
6.9888e-05
1.84147e-08
5.49456e-05
1.48005e-08
4.29888e-05
1.17928e-08
3.34767e-05
9.33194e-09
2.59496e-05
7.32855e-09
2.00218e-05
5.72306e-09
1.53726e-05
4.44521e-09
1.17378e-05
3.43693e-09
8.90145e-06
2.65076e-09
6.6875e-06
2.04115e-09
4.95305e-06
1.57655e-09
3.58192e-06
1.2269e-09
2.47857e-06
9.70821e-10
1.56482e-06
7.90531e-10
7.70123e-07
6.78054e-10
6.10673e-10
6.91103e-07
-3.76292e-10
1.40291e-06
-4.18417e-10
2.21976e-06
-4.88265e-10
3.20372e-06
-6.00799e-10
4.4231e-06
-7.59962e-10
5.96113e-06
-9.77478e-10
7.91846e-06
-1.26662e-09
1.04183e-05
-1.64476e-09
1.36115e-05
-2.13325e-09
1.76823e-05
-2.75793e-09
2.28546e-05
-3.54967e-09
2.93986e-05
-4.54396e-09
3.76376e-05
-5.7808e-09
4.79543e-05
-7.3066e-09
6.07969e-05
-9.17031e-09
7.66827e-05
-1.14093e-08
9.62006e-05
-1.40821e-08
0.000120008
-1.72196e-08
0.000148826
-2.08454e-08
0.000183422
-2.49492e-08
0.000224592
-2.94733e-08
0.000273127
-3.43223e-08
0.000329773
-3.94239e-08
0.000395172
-4.43029e-08
0.000469803
-4.88028e-08
0.000553897
-5.23517e-08
0.000647364
-5.42748e-08
0.000749692
-5.38505e-08
0.000859871
-5.09327e-08
0.000976312
-3.56319e-08
0.00109683
-3.01494e-08
0.00121856
-1.2978e-08
0.00133811
1.16788e-08
0.00145161
5.5009e-08
0.00155497
9.57244e-08
0.00164426
1.5044e-07
0.00171612
2.52195e-07
0.00176855
3.26895e-07
0.00180098
4.01684e-07
0.00181586
4.97455e-07
0.00181613
6.17778e-07
0.00181054
7.05243e-07
0.00180651
6.88216e-07
0.00180208
5.39202e-07
0.00179801
4.31063e-07
0.00179542
1.41055e-07
0.00179356
1.88399e-06
0.00179283
3.54092e-08
0.00179335
-2.28624e-07
0.00178227
-1.27542e-06
0.00176055
-8.26029e-07
0.0017289
-8.55889e-07
0.00171989
-2.63286e-07
0.00171934
-1.43887e-06
0.00171796
-2.79395e-07
0.00171851
-1.00851e-06
0.00172034
5.46345e-07
0.00172564
-1.78377e-06
0.00173088
-9.66211e-08
0.00173673
-2.47161e-07
0.00173959
-5.88141e-07
0.00173378
-6.56248e-07
0.00171445
-5.64075e-07
0.00167817
-5.73142e-07
0.00162295
-4.61105e-07
0.00154882
-3.73765e-07
0.00145748
-2.82846e-07
0.00135201
-1.95164e-07
0.00123645
-1.29048e-07
0.00111519
-6.63194e-08
0.000992491
-2.73993e-08
0.000872187
-4.41537e-09
0.000757344
2.90048e-08
0.000650306
4.30464e-08
0.000552592
5.15877e-08
0.00046501
5.94207e-08
0.00038778
5.96164e-08
0.000320664
5.63219e-08
0.000263091
5.13917e-08
0.00021428
4.55929e-08
0.000173336
3.9554e-08
0.000139321
3.36907e-08
0.000111309
2.82471e-08
8.84271e-05
2.33839e-08
6.98742e-05
1.91363e-08
5.49342e-05
1.5492e-08
4.29794e-05
1.24215e-08
3.34691e-05
9.8704e-09
2.59435e-05
7.79166e-09
2.0017e-05
6.10562e-09
1.53688e-05
4.7566e-09
1.17349e-05
3.68822e-09
8.89915e-06
2.84834e-09
6.68574e-06
2.19834e-09
4.95173e-06
1.69859e-09
3.58096e-06
1.3231e-09
2.47789e-06
1.04798e-09
1.56439e-06
8.52737e-10
7.69908e-07
7.31886e-10
6.58516e-10
6.90969e-07
-3.6227e-10
1.40265e-06
-4.02889e-10
2.21934e-06
-4.6968e-10
3.20312e-06
-5.77394e-10
4.42228e-06
-7.29273e-10
5.96003e-06
-9.36418e-10
7.91704e-06
-1.21093e-09
1.04165e-05
-1.56874e-09
1.36092e-05
-2.02934e-09
1.76793e-05
-2.6156e-09
2.28509e-05
-3.35405e-09
2.93939e-05
-4.27602e-09
3.76318e-05
-5.41664e-09
4.79472e-05
-6.80928e-09
6.07883e-05
-8.48761e-09
7.66726e-05
-1.04998e-08
9.61886e-05
-1.28598e-08
0.000119994
-1.55886e-08
0.00014881
-1.86771e-08
0.000183404
-2.21012e-08
0.000224572
-2.57863e-08
0.000273107
-2.96496e-08
0.000329752
-3.33753e-08
0.000395152
-3.69167e-08
0.000469785
-3.97581e-08
0.000553884
-4.14228e-08
0.000647356
-4.17524e-08
0.000749692
-3.86588e-08
0.000859877
-2.87994e-08
0.000976345
-2.78268e-08
0.00109686
-2.85079e-09
0.00121863
-5.80188e-09
0.00133822
2.42414e-08
0.00145175
6.48528e-08
0.00155516
1.18565e-07
0.00164449
1.96453e-07
0.00171648
2.50269e-07
0.00176897
3.56307e-07
0.00180143
4.35619e-07
0.00181622
5.81942e-07
0.00181657
5.58647e-07
0.00181099
6.42825e-07
0.00180703
5.55346e-07
0.00180259
5.51269e-07
0.00179789
6.92362e-07
0.001794
1.13903e-06
0.00179234
2.40977e-06
0.00178979
2.17797e-06
0.00178848
4.28657e-07
0.00178566
-6.06776e-07
0.00176281
-3.40137e-06
0.00172999
-4.44101e-06
0.00171869
-1.0761e-06
0.00171739
-1.43393e-06
0.00171771
-1.29229e-06
0.00171797
-9.39432e-07
0.00172196
-6.40913e-08
0.00172564
3.3318e-07
0.00173148
3.94081e-07
0.00173765
4.59422e-07
0.00174037
1.36165e-07
0.00173427
-1.16853e-08
0.00171488
-1.53161e-07
0.00167849
-2.37619e-07
0.00162325
-2.55902e-07
0.00154911
-2.80925e-07
0.00145773
-2.43177e-07
0.00135223
-1.95759e-07
0.00123664
-1.43013e-07
0.00111534
-9.49614e-08
0.000992609
-5.24081e-08
0.000872248
-2.31162e-08
0.000757379
7.52116e-09
0.000650329
7.48111e-09
0.000552594
3.16845e-08
0.000465
4.21455e-08
0.000387763
4.57801e-08
0.000320642
4.57686e-08
0.000263067
4.33396e-08
0.000214257
3.96065e-08
0.000173314
3.5207e-08
0.0001393
3.05517e-08
0.00011129
2.59934e-08
8.84109e-05
2.17777e-08
6.98604e-05
1.79777e-08
5.49226e-05
1.46664e-08
4.29698e-05
1.18345e-08
3.34612e-05
9.45822e-09
2.59371e-05
7.49497e-09
2.00119e-05
5.89486e-09
1.53647e-05
4.60547e-09
1.17317e-05
3.57844e-09
8.89669e-06
2.77024e-09
6.68385e-06
2.13953e-09
4.95031e-06
1.65625e-09
3.57992e-06
1.29062e-09
2.47716e-06
1.02237e-09
1.56392e-06
8.32161e-10
7.69676e-07
7.14149e-10
6.41956e-10
6.90841e-07
-3.11635e-10
1.40239e-06
-3.46645e-10
2.21894e-06
-4.03781e-10
3.20254e-06
-4.96055e-10
4.4215e-06
-6.25822e-10
5.959e-06
-8.02468e-10
7.91569e-06
-1.03597e-09
1.04147e-05
-1.33947e-09
1.3607e-05
-1.72868e-09
1.76765e-05
-2.22185e-09
2.28474e-05
-2.8405e-09
2.93896e-05
-3.6088e-09
3.76265e-05
-4.55052e-09
4.79408e-05
-5.69353e-09
6.07807e-05
-7.06257e-09
7.66636e-05
-8.67503e-09
9.61782e-05
-1.05492e-08
0.000119983
-1.26827e-08
0.000148797
-1.50602e-08
0.00018339
-1.76423e-08
0.000224558
-2.03516e-08
0.000273092
-2.30597e-08
0.000329739
-2.55937e-08
0.000395142
-2.75756e-08
0.000469779
-2.82677e-08
0.000553882
-2.6292e-08
0.000647359
-2.26802e-08
0.000749699
-1.49201e-08
0.000859914
-2.24337e-08
0.000976393
-6.64281e-09
0.00109696
8.0925e-09
0.00121874
2.56653e-08
0.00133835
5.42919e-08
0.00145192
8.70849e-08
0.00155536
1.39292e-07
0.00164474
1.94561e-07
0.00171669
2.63383e-07
0.00176917
3.48904e-07
0.00180163
4.15146e-07
0.00181631
6.61034e-07
0.0018166
4.56487e-07
0.00181102
5.87146e-07
0.00180653
9.48858e-07
0.00180135
1.30361e-06
0.00179627
1.35866e-06
0.00179257
2.08764e-06
0.00179314
1.04728e-06
0.00179325
1.72061e-06
0.00179389
-3.08326e-07
0.00179714
-5.86665e-06
0.00177741
-9.45896e-06
0.00172688
9.07792e-06
0.00171486
-4.87646e-07
0.00171395
-1.58584e-06
0.00171317
-1.21006e-06
0.00171284
-6.0127e-07
0.00171659
-4.976e-07
0.00172223
1.11673e-07
0.00172863
2.87923e-08
0.0017356
1.48e-07
0.00173906
-8.07309e-09
0.00173355
3.85923e-08
0.00171455
-6.39009e-08
0.00167844
-1.09794e-07
0.00162337
-1.46666e-07
0.0015493
-1.896e-07
0.00145797
-1.82502e-07
0.00135248
-1.62864e-07
0.00123687
-1.29826e-07
0.00111554
-9.66804e-08
0.000992768
-6.44279e-08
0.000872376
-3.52407e-08
0.000757482
-1.40156e-08
0.000650373
1.07506e-08
0.000552621
9.98088e-09
0.000465012
2.22954e-08
0.000387764
2.88051e-08
0.000320635
3.24185e-08
0.000263054
3.34969e-08
0.00021424
3.1609e-08
0.000173296
2.8572e-08
0.000139283
2.51261e-08
0.000111274
2.16231e-08
8.83966e-05
1.82602e-08
6.98479e-05
1.51905e-08
5.49119e-05
1.24655e-08
4.29608e-05
1.01123e-08
3.34538e-05
8.1181e-09
2.59311e-05
6.45486e-09
2.0007e-05
5.09107e-09
1.53609e-05
3.98669e-09
1.17286e-05
3.10374e-09
8.89431e-06
2.4055e-09
6.68203e-06
1.86076e-09
4.94894e-06
1.44099e-09
3.57891e-06
1.12346e-09
2.47646e-06
8.90458e-10
1.56347e-06
7.24466e-10
7.69449e-07
6.21951e-10
5.58691e-10
6.9073e-07
-2.28929e-10
1.40217e-06
-2.54737e-10
2.2186e-06
-2.96577e-10
3.20205e-06
-3.64051e-10
4.42083e-06
-4.58794e-10
5.95811e-06
-5.87556e-10
7.91453e-06
-7.5743e-10
1.04133e-05
-9.77663e-10
1.36051e-05
-1.25919e-09
1.76742e-05
-1.61463e-09
2.28444e-05
-2.05845e-09
2.9386e-05
-2.60665e-09
3.76221e-05
-3.27462e-09
4.79355e-05
-4.07787e-09
6.07744e-05
-5.03129e-09
7.66562e-05
-6.14123e-09
9.61697e-05
-7.41095e-09
0.000119973
-8.82909e-09
0.000148786
-1.03695e-08
0.000183378
-1.19878e-08
0.000224545
-1.36082e-08
0.00027308
-1.51057e-08
0.000329726
-1.63775e-08
0.000395131
-1.72699e-08
0.000469771
-1.78809e-08
0.000553882
-1.45744e-08
0.000647374
-1.21903e-08
0.00074974
-9.00496e-09
0.000859957
-3.9803e-09
0.000976459
4.62012e-09
0.00109704
1.49684e-08
0.00121885
2.93141e-08
0.0013385
5.11208e-08
0.0014521
7.93534e-08
0.0015556
1.09932e-07
0.00164503
1.47049e-07
0.00171708
1.94479e-07
0.00176966
2.34285e-07
0.00180221
2.78634e-07
0.0018173
2.92801e-07
0.00181774
1.25612e-07
0.00181251
4.83015e-08
0.00180948
-1.18092e-07
0.00180698
-5.207e-07
0.00180482
-7.02706e-07
0.00180561
-1.37511e-06
0.00180714
-1.16703e-06
0.00181135
-2.6357e-06
0.00181184
-1.98858e-06
0.00179383
1.8601e-05
0.00174675
4.57834e-06
0.00172945
-1.50252e-05
0.00172465
-3.64843e-06
0.0017205
1.73095e-06
0.00171812
3.04648e-07
0.00171722
3.63485e-07
0.00171966
1.26313e-07
0.00172442
4.18171e-07
0.0017302
1.78288e-07
0.00173651
2.53439e-07
0.00173927
2.32678e-07
0.00173357
1.32452e-07
0.00171442
6.61967e-08
0.0016783
1.3443e-09
0.00162329
-7.3494e-08
0.00154928
-1.17382e-07
0.00145801
-1.28848e-07
0.00135256
-1.2118e-07
0.00123697
-1.06242e-07
0.00111564
-8.66931e-08
0.000992871
-6.56571e-08
0.000872465
-4.09012e-08
0.000757544
-2.12274e-08
0.000650436
-5.61718e-09
0.000552653
2.80422e-09
0.000465024
9.58703e-09
0.000387764
1.50036e-08
0.000320628
1.8103e-08
0.000263041
2.36494e-08
0.000214226
2.17698e-08
0.000173281
1.97981e-08
0.000139268
1.76095e-08
0.000111261
1.53214e-08
8.83843e-05
1.30678e-08
6.98372e-05
1.09555e-08
5.49027e-05
9.04864e-09
4.29531e-05
7.37632e-09
3.34474e-05
5.94448e-09
2.59259e-05
4.74236e-09
2.00028e-05
3.74954e-09
1.53575e-05
2.94217e-09
1.1726e-05
2.29396e-09
8.89224e-06
1.78001e-09
6.68044e-06
1.37793e-09
4.94774e-06
1.0678e-09
3.57803e-06
8.32875e-10
2.47584e-06
6.60179e-10
1.56307e-06
5.37055e-10
7.6925e-07
4.61064e-10
4.13908e-10
6.9065e-07
-1.22146e-10
1.40201e-06
-1.35904e-10
2.21835e-06
-1.58372e-10
3.2017e-06
-1.94457e-10
4.42035e-06
-2.45154e-10
5.95748e-06
-3.13971e-10
7.91371e-06
-4.04742e-10
1.04122e-05
-5.22355e-10
1.36038e-05
-6.72571e-10
1.76725e-05
-8.62014e-10
2.28424e-05
-1.09821e-09
2.93835e-05
-1.38916e-09
3.76191e-05
-1.74259e-09
4.79321e-05
-2.16618e-09
6.07704e-05
-2.66579e-09
7.66516e-05
-3.24382e-09
9.61647e-05
-3.89879e-09
0.000119968
-4.62055e-09
0.000148781
-5.39022e-09
0.000183373
-6.17498e-09
0.000224541
-6.91995e-09
0.000273077
-7.55745e-09
0.000329726
-8.00581e-09
0.000395133
-8.16858e-09
0.000469776
-8.04739e-09
0.000553894
-7.74261e-09
0.000647392
-7.05839e-09
0.000749759
-1.58153e-10
0.000859991
2.19059e-09
0.000976504
6.77029e-09
0.00109709
1.36541e-08
0.00121892
2.27609e-08
0.00133859
3.47071e-08
0.00145221
5.11271e-08
0.00155571
7.25399e-08
0.00164514
9.96596e-08
0.00171717
1.28757e-07
0.00176967
1.70982e-07
0.00180208
2.02427e-07
0.00181668
3.27657e-07
0.00181659
2.3459e-07
0.00181044
3.70883e-07
0.00180566
5.73733e-07
0.00179997
8.90303e-07
0.00179432
8.94213e-07
0.00178944
1.27558e-06
0.00178753
5.94463e-07
0.0017817
3.31206e-06
0.00177698
1.83428e-06
0.00179929
-6.17399e-06
0.0017874
-9.00974e-06
0.00172695
8.02252e-06
0.00170872
2.24074e-06
0.00171176
-2.36485e-06
0.00171265
-1.22267e-06
0.00171372
-7.31005e-07
0.00171732
-4.22655e-07
0.00172298
-3.24034e-07
0.00172897
-8.29196e-08
0.00173539
6.08104e-08
0.0017385
-3.16735e-08
0.00173291
-1.14277e-08
0.00171394
-1.37699e-08
0.001678
-4.12725e-08
0.00162314
-7.32539e-08
0.00154923
-5.79497e-08
0.00145803
-6.88944e-08
0.00135264
-7.18516e-08
0.00123708
-6.3179e-08
0.00111576
-5.1261e-08
0.000992978
-3.90321e-08
0.000872555
-3.02725e-08
0.00075762
-2.11272e-08
0.000650488
-3.07561e-09
0.000552692
4.58703e-09
0.000465051
4.42101e-09
0.000387778
8.64253e-09
0.000320631
1.02968e-08
0.000263042
1.17438e-08
0.000214223
1.14726e-08
0.000173276
1.06232e-08
0.000139261
9.51109e-09
0.000111254
8.29787e-09
8.83772e-05
7.08771e-09
6.98305e-05
5.94671e-09
5.48968e-05
4.91354e-09
4.2948e-05
4.00583e-09
3.3443e-05
3.22764e-09
2.59223e-05
2.57406e-09
1.99998e-05
2.03432e-09
1.53551e-05
1.59533e-09
1.17241e-05
1.24302e-09
8.89076e-06
9.63836e-10
6.67929e-06
7.45511e-10
4.94687e-06
5.77234e-10
3.57739e-06
4.49805e-10
2.47539e-06
3.56204e-10
1.56279e-06
2.89444e-10
7.69106e-07
2.48242e-10
2.23003e-10
6.90599e-07
1.40191e-06
2.21819e-06
3.20147e-06
4.42004e-06
5.95706e-06
7.91316e-06
1.04115e-05
1.36028e-05
1.76714e-05
2.28409e-05
2.93817e-05
3.76169e-05
4.79293e-05
6.07671e-05
7.66478e-05
9.61602e-05
0.000119963
0.000148775
0.000183367
0.000224535
0.000273071
0.000329722
0.000395131
0.000469777
0.000553896
0.000647395
0.000749771
0.000860009
0.00097653
0.00109713
0.00121898
0.00133867
0.00145232
0.00155585
0.00164533
0.00171741
0.00177
0.0018025
0.00181742
0.00181759
0.00181199
0.00180844
0.00180512
0.00180201
0.00180109
0.00180193
0.0018058
0.00180675
0.00180707
0.0017644
0.00172935
0.00172327
0.00172001
0.00171793
0.00171705
0.00171955
0.00172394
0.0017296
0.00173592
0.00173871
0.00173297
0.00171395
0.00167799
0.00162312
0.00154927
0.0014581
0.00135271
0.00123715
0.00111583
0.000993036
0.000872599
0.000757641
0.000650502
0.000552702
0.000465052
0.000387775
0.000320625
0.000263033
0.000214213
0.000173266
0.000139252
0.000111245
8.83699e-05
6.98243e-05
5.48916e-05
4.29437e-05
3.34395e-05
2.59195e-05
1.99976e-05
1.53534e-05
1.17227e-05
8.88972e-06
6.6785e-06
4.94628e-06
3.57695e-06
2.47509e-06
1.5626e-06
7.6901e-07
)
;

boundaryField
{
    sides1
    {
        type            calculated;
        value           nonuniform List<scalar> 
20
(
4.37495e-08
4.37447e-08
4.37353e-08
4.37212e-08
4.37029e-08
4.36818e-08
4.36603e-08
4.36406e-08
4.36257e-08
4.36163e-08
-3.99085e-08
-3.99053e-08
-3.98993e-08
-3.98906e-08
-3.98798e-08
-3.98679e-08
-3.9856e-08
-3.98455e-08
-3.98376e-08
-3.98328e-08
)
;
    }
    sides2
    {
        type            calculated;
        value           uniform 0;
    }
    empty
    {
        type            empty;
        value           nonuniform 0();
    }
}


// ************************************************************************* //
