/*--------------------------------*- C++ -*----------------------------------*\
| =========                 |                                                 |
| \\      /  F ield         | OpenFOAM: The Open Source CFD Toolbox           |
|  \\    /   O peration     | Version:  3.0.1                                 |
|   \\  /    A nd           | Web:      www.OpenFOAM.org                      |
|    \\/     M anipulation  |                                                 |
\*---------------------------------------------------------------------------*/
FoamFile
{
    version     2.0;
    format      ascii;
    class       volScalarField;
    location    "0.0002";
    object      rho;
}
// * * * * * * * * * * * * * * * * * * * * * * * * * * * * * * * * * * * * * //

dimensions      [1 -3 0 0 0 0 0];

internalField   nonuniform List<scalar> 
1000
(
0.831177
0.831171
0.83116
0.831143
0.831118
0.831085
0.83104
0.830981
0.830905
0.830807
0.830682
0.830523
0.830323
0.830071
0.829757
0.829369
0.828891
0.828307
0.827599
0.826747
0.825732
0.824533
0.82313
0.821506
0.819647
0.817546
0.815202
0.812624
0.809836
0.806874
0.803791
0.80066
0.797566
0.794612
0.791907
0.78956
0.787669
0.786294
0.785476
0.7851
0.785239
0.785287
0.785414
0.785557
0.785737
0.785764
0.785949
0.785875
0.785622
0.787041
0.778341
0.761247
0.752685
0.751382
0.751319
0.751351
0.751369
0.751435
0.751567
0.751722
0.751892
0.751997
0.751911
0.751518
0.75073
0.749496
0.74781
0.745705
0.743251
0.740538
0.737671
0.734752
0.731874
0.729114
0.726532
0.724168
0.722043
0.720166
0.718533
0.71713
0.71594
0.714942
0.714112
0.713429
0.712871
0.712419
0.712055
0.711764
0.711533
0.71135
0.711207
0.711095
0.711009
0.710942
0.710892
0.710854
0.710826
0.710806
0.710794
0.710788
0.831177
0.831171
0.83116
0.831143
0.831118
0.831085
0.83104
0.830981
0.830905
0.830807
0.830682
0.830523
0.830323
0.830071
0.829757
0.829369
0.828891
0.828307
0.827599
0.826747
0.825732
0.824533
0.82313
0.821506
0.819648
0.817546
0.815202
0.812624
0.809835
0.806873
0.80379
0.800658
0.797564
0.794609
0.791904
0.789557
0.787666
0.786292
0.785471
0.785099
0.78523
0.78528
0.785412
0.785563
0.785738
0.785769
0.785893
0.785934
0.78576
0.784873
0.777587
0.762799
0.753254
0.751444
0.751397
0.751371
0.751369
0.75143
0.751566
0.751722
0.751891
0.752002
0.751919
0.751527
0.750739
0.749504
0.747817
0.745711
0.743255
0.740541
0.737673
0.734753
0.731874
0.729114
0.726532
0.724167
0.722043
0.720166
0.718533
0.71713
0.71594
0.714942
0.714112
0.713429
0.712871
0.712419
0.712055
0.711764
0.711533
0.71135
0.711207
0.711095
0.711009
0.710942
0.710892
0.710854
0.710826
0.710806
0.710794
0.710787
0.831177
0.831171
0.83116
0.831143
0.831118
0.831085
0.83104
0.830981
0.830905
0.830807
0.830682
0.830523
0.830323
0.830071
0.829758
0.829369
0.828891
0.828307
0.827599
0.826748
0.825733
0.824533
0.82313
0.821506
0.819648
0.817546
0.815201
0.812623
0.809834
0.806871
0.803788
0.800655
0.79756
0.794605
0.791899
0.789552
0.78766
0.786284
0.785462
0.785085
0.785214
0.785262
0.785393
0.785536
0.785733
0.785752
0.785893
0.78584
0.785695
0.787022
0.778167
0.761099
0.752867
0.751603
0.751432
0.751347
0.751342
0.751414
0.751552
0.751711
0.751885
0.752002
0.751925
0.751538
0.750752
0.749517
0.747828
0.745721
0.743263
0.740548
0.737678
0.734756
0.731876
0.729116
0.726533
0.724168
0.722043
0.720166
0.718532
0.71713
0.71594
0.714941
0.714112
0.713428
0.712871
0.712418
0.712055
0.711764
0.711533
0.71135
0.711207
0.711095
0.711009
0.710942
0.710892
0.710854
0.710826
0.710806
0.710794
0.710787
0.831177
0.831171
0.83116
0.831143
0.831118
0.831085
0.83104
0.830981
0.830905
0.830807
0.830682
0.830523
0.830323
0.830071
0.829758
0.829369
0.828891
0.828307
0.827599
0.826748
0.825733
0.824534
0.823131
0.821507
0.819648
0.817546
0.8152
0.812622
0.809832
0.806869
0.803785
0.800652
0.797556
0.7946
0.791893
0.789545
0.787653
0.786276
0.785451
0.785075
0.785197
0.785246
0.785389
0.785548
0.78573
0.7858
0.785918
0.785965
0.785789
0.784882
0.777518
0.762721
0.753307
0.751463
0.751331
0.75132
0.75133
0.751399
0.751544
0.751708
0.751883
0.752006
0.751934
0.75155
0.750766
0.749532
0.747843
0.745733
0.743273
0.740556
0.737684
0.734761
0.731879
0.729117
0.726534
0.724168
0.722043
0.720166
0.718532
0.717129
0.715939
0.714941
0.714111
0.713428
0.71287
0.712418
0.712054
0.711764
0.711533
0.71135
0.711207
0.711095
0.711009
0.710942
0.710892
0.710854
0.710826
0.710806
0.710794
0.710787
0.831177
0.831171
0.83116
0.831143
0.831118
0.831085
0.83104
0.830981
0.830905
0.830807
0.830682
0.830524
0.830323
0.830071
0.829758
0.829369
0.828891
0.828307
0.8276
0.826748
0.825733
0.824534
0.823131
0.821507
0.819647
0.817545
0.8152
0.812621
0.809831
0.806867
0.803782
0.800648
0.797551
0.794594
0.791886
0.789536
0.787641
0.786263
0.785434
0.785055
0.78517
0.785217
0.785362
0.785522
0.785715
0.785787
0.785896
0.785939
0.785749
0.78478
0.777387
0.762606
0.753219
0.751476
0.751349
0.751317
0.751309
0.75139
0.751528
0.751692
0.751878
0.752009
0.751943
0.751563
0.750781
0.749547
0.747857
0.745746
0.743284
0.740564
0.73769
0.734765
0.731883
0.72912
0.726535
0.724169
0.722043
0.720166
0.718532
0.717129
0.715939
0.714941
0.714111
0.713428
0.71287
0.712418
0.712054
0.711763
0.711532
0.71135
0.711207
0.711095
0.711009
0.710942
0.710891
0.710854
0.710826
0.710806
0.710794
0.710787
0.831177
0.831171
0.83116
0.831143
0.831118
0.831085
0.83104
0.830981
0.830905
0.830808
0.830682
0.830524
0.830323
0.830072
0.829758
0.82937
0.828892
0.828308
0.8276
0.826748
0.825733
0.824534
0.823131
0.821507
0.819647
0.817545
0.815199
0.81262
0.809829
0.806865
0.803779
0.800644
0.797546
0.794588
0.791879
0.789528
0.787632
0.786253
0.785425
0.785045
0.785162
0.785209
0.785354
0.785512
0.785708
0.785789
0.785924
0.785966
0.785772
0.784805
0.777346
0.762608
0.753296
0.751437
0.75128
0.751287
0.751306
0.751361
0.751527
0.751705
0.751886
0.752021
0.751953
0.751572
0.75079
0.749556
0.747866
0.745755
0.743292
0.740571
0.737696
0.73477
0.731886
0.729122
0.726537
0.72417
0.722044
0.720166
0.718532
0.717129
0.715939
0.71494
0.714111
0.713428
0.71287
0.712418
0.712054
0.711763
0.711532
0.71135
0.711207
0.711095
0.711009
0.710942
0.710891
0.710854
0.710826
0.710806
0.710794
0.710787
0.831177
0.831171
0.83116
0.831143
0.831118
0.831085
0.83104
0.830982
0.830905
0.830808
0.830683
0.830524
0.830323
0.830072
0.829758
0.82937
0.828892
0.828308
0.8276
0.826749
0.825734
0.824534
0.823131
0.821507
0.819647
0.817545
0.815199
0.812619
0.809828
0.806863
0.803777
0.80064
0.797542
0.794583
0.791873
0.789522
0.787626
0.786247
0.785421
0.785045
0.785165
0.785215
0.785362
0.785528
0.785724
0.785801
0.78586
0.785744
0.785731
0.785
0.777529
0.762496
0.75321
0.751536
0.751397
0.751347
0.751312
0.751377
0.751533
0.7517
0.751877
0.752012
0.751946
0.751569
0.750789
0.749558
0.747869
0.745759
0.743297
0.740576
0.7377
0.734773
0.731889
0.729124
0.726538
0.724171
0.722045
0.720166
0.718532
0.717129
0.715939
0.71494
0.71411
0.713427
0.71287
0.712418
0.712054
0.711763
0.711532
0.71135
0.711207
0.711095
0.711009
0.710942
0.710891
0.710853
0.710826
0.710806
0.710794
0.710787
0.831177
0.831171
0.83116
0.831143
0.831119
0.831085
0.83104
0.830982
0.830905
0.830808
0.830683
0.830524
0.830323
0.830072
0.829758
0.82937
0.828892
0.828308
0.8276
0.826749
0.825734
0.824534
0.823131
0.821507
0.819647
0.817545
0.815198
0.812618
0.809827
0.806862
0.803775
0.800639
0.79754
0.79458
0.79187
0.789518
0.787623
0.786243
0.785418
0.78504
0.785171
0.78522
0.785363
0.785518
0.785725
0.785753
0.785898
0.78584
0.785703
0.787028
0.77817
0.761087
0.752858
0.75159
0.751416
0.751335
0.751324
0.751399
0.751542
0.751702
0.751882
0.752007
0.751941
0.751563
0.750785
0.749555
0.747868
0.745759
0.743298
0.740578
0.737703
0.734776
0.731891
0.729126
0.72654
0.724172
0.722045
0.720167
0.718532
0.717129
0.715939
0.71494
0.71411
0.713427
0.712869
0.712417
0.712054
0.711763
0.711532
0.71135
0.711207
0.711095
0.711008
0.710942
0.710891
0.710853
0.710826
0.710806
0.710794
0.710787
0.831177
0.831171
0.83116
0.831143
0.831119
0.831085
0.83104
0.830982
0.830906
0.830808
0.830683
0.830524
0.830323
0.830072
0.829758
0.82937
0.828892
0.828308
0.8276
0.826749
0.825734
0.824534
0.823131
0.821507
0.819647
0.817544
0.815198
0.812618
0.809827
0.806861
0.803775
0.800638
0.797539
0.794579
0.791869
0.789517
0.787622
0.786244
0.785421
0.785048
0.785181
0.785238
0.785383
0.785551
0.785736
0.785777
0.785911
0.785968
0.785777
0.784885
0.777579
0.76274
0.753233
0.751462
0.751387
0.751367
0.751339
0.751406
0.751545
0.751702
0.751878
0.752001
0.751933
0.751555
0.750777
0.74955
0.747865
0.745758
0.743298
0.740579
0.737705
0.734778
0.731893
0.729128
0.726541
0.724173
0.722046
0.720167
0.718532
0.717129
0.715939
0.71494
0.71411
0.713427
0.712869
0.712417
0.712054
0.711763
0.711532
0.71135
0.711207
0.711095
0.711008
0.710942
0.710891
0.710853
0.710826
0.710806
0.710794
0.710787
0.831177
0.831171
0.83116
0.831143
0.831119
0.831085
0.83104
0.830982
0.830906
0.830808
0.830683
0.830524
0.830323
0.830072
0.829758
0.82937
0.828892
0.828308
0.8276
0.826749
0.825734
0.824534
0.823131
0.821507
0.819647
0.817544
0.815198
0.812618
0.809826
0.806861
0.803774
0.800637
0.797538
0.794578
0.791867
0.789515
0.78762
0.786242
0.78542
0.785045
0.785186
0.785243
0.785383
0.785539
0.78574
0.785774
0.785971
0.785863
0.785649
0.787
0.77826
0.761183
0.752818
0.751589
0.751444
0.751377
0.751341
0.751413
0.751543
0.751696
0.751876
0.751998
0.75193
0.751552
0.750776
0.749549
0.747865
0.745759
0.7433
0.740581
0.737706
0.73478
0.731895
0.729129
0.726542
0.724174
0.722046
0.720167
0.718532
0.717129
0.715939
0.71494
0.71411
0.713427
0.712869
0.712417
0.712054
0.711763
0.711532
0.71135
0.711207
0.711095
0.711008
0.710942
0.710891
0.710853
0.710826
0.710806
0.710794
0.710787
)
;

boundaryField
{
    sides1
    {
        type            calculated;
        value           nonuniform List<scalar> 
20
(
0.710788
0.710787
0.710787
0.710787
0.710787
0.710787
0.710787
0.710787
0.710787
0.710787
0.831177
0.831177
0.831177
0.831177
0.831177
0.831177
0.831177
0.831177
0.831177
0.831177
)
;
    }
    sides2
    {
        type            calculated;
        value           nonuniform List<scalar> 
200
(
0.831177
0.831171
0.83116
0.831143
0.831118
0.831085
0.83104
0.830981
0.830905
0.830807
0.830682
0.830523
0.830323
0.830071
0.829757
0.829369
0.828891
0.828307
0.827599
0.826747
0.825732
0.824533
0.82313
0.821506
0.819647
0.817546
0.815202
0.812624
0.809836
0.806874
0.803791
0.80066
0.797566
0.794612
0.791907
0.78956
0.787669
0.786294
0.785476
0.7851
0.785239
0.785287
0.785414
0.785557
0.785737
0.785764
0.785949
0.785875
0.785622
0.787041
0.778341
0.761247
0.752685
0.751382
0.751319
0.751351
0.751369
0.751435
0.751567
0.751722
0.751892
0.751997
0.751911
0.751518
0.75073
0.749496
0.74781
0.745705
0.743251
0.740538
0.737671
0.734752
0.731874
0.729114
0.726532
0.724168
0.722043
0.720166
0.718533
0.71713
0.71594
0.714942
0.714112
0.713429
0.712871
0.712419
0.712055
0.711764
0.711533
0.71135
0.711207
0.711095
0.711009
0.710942
0.710892
0.710854
0.710826
0.710806
0.710794
0.710788
0.831177
0.831171
0.83116
0.831143
0.831119
0.831085
0.83104
0.830982
0.830906
0.830808
0.830683
0.830524
0.830323
0.830072
0.829758
0.82937
0.828892
0.828308
0.8276
0.826749
0.825734
0.824534
0.823131
0.821507
0.819647
0.817544
0.815198
0.812618
0.809826
0.806861
0.803774
0.800637
0.797538
0.794578
0.791867
0.789515
0.78762
0.786242
0.78542
0.785045
0.785186
0.785243
0.785383
0.785539
0.78574
0.785774
0.785971
0.785863
0.785649
0.787
0.77826
0.761183
0.752818
0.751589
0.751444
0.751377
0.751341
0.751413
0.751543
0.751696
0.751876
0.751998
0.75193
0.751552
0.750776
0.749549
0.747865
0.745759
0.7433
0.740581
0.737706
0.73478
0.731895
0.729129
0.726542
0.724174
0.722046
0.720167
0.718532
0.717129
0.715939
0.71494
0.71411
0.713427
0.712869
0.712417
0.712054
0.711763
0.711532
0.71135
0.711207
0.711095
0.711008
0.710942
0.710891
0.710853
0.710826
0.710806
0.710794
0.710787
)
;
    }
    empty
    {
        type            empty;
    }
}


// ************************************************************************* //
