/*--------------------------------*- C++ -*----------------------------------*\
| =========                 |                                                 |
| \\      /  F ield         | OpenFOAM: The Open Source CFD Toolbox           |
|  \\    /   O peration     | Version:  3.0.1                                 |
|   \\  /    A nd           | Web:      www.OpenFOAM.org                      |
|    \\/     M anipulation  |                                                 |
\*---------------------------------------------------------------------------*/
FoamFile
{
    version     2.0;
    format      ascii;
    class       volVectorField;
    location    "0.0002";
    object      U;
}
// * * * * * * * * * * * * * * * * * * * * * * * * * * * * * * * * * * * * * //

dimensions      [0 1 -1 0 0 0 0];

internalField   nonuniform List<vector> 
1000
(
(0.00138633 -4.45201e-07 0)
(0.0116376 -4.94819e-07 0)
(0.0179262 -5.83699e-07 0)
(0.0272144 -7.27134e-07 0)
(0.0380988 -9.34673e-07 0)
(0.0519026 -1.22284e-06 0)
(0.0693794 -1.61423e-06 0)
(0.0916977 -2.13902e-06 0)
(0.120227 -2.83744e-06 0)
(0.15666 -3.76003e-06 0)
(0.203059 -4.96542e-06 0)
(0.261926 -6.55685e-06 0)
(0.336274 -8.58553e-06 0)
(0.429695 -1.13101e-05 0)
(0.54643 -1.47678e-05 0)
(0.691426 -1.92632e-05 0)
(0.870378 -2.50094e-05 0)
(1.08974 -3.23339e-05 0)
(1.3567 -4.17067e-05 0)
(1.67911 -5.35381e-05 0)
(2.06531 -6.85177e-05 0)
(2.52392 -8.72469e-05 0)
(3.06347 -0.000111262 0)
(3.69198 -0.000142525 0)
(4.41631 -0.000187569 0)
(5.24145 -0.000221238 0)
(6.16965 -0.000248068 0)
(7.19943 -0.000273673 0)
(8.32448 -0.000303398 0)
(9.53257 -0.00038814 0)
(10.8047 -0.000413244 0)
(12.1142 -0.000417561 0)
(13.4263 -0.000395768 0)
(14.7002 -0.000495378 0)
(15.8896 -0.000533444 0)
(16.9442 -0.000493771 0)
(17.8277 -0.000705782 0)
(18.4754 -0.000889375 0)
(18.9855 -0.00115062 0)
(19.0144 -0.0018334 0)
(19.3365 -0.00181225 0)
(19.1143 -0.00516205 0)
(19.3345 -0.00599853 0)
(19.0361 -0.0134796 0)
(19.2082 -0.014161 0)
(18.9383 -0.0197273 0)
(19.2541 -0.0357164 0)
(18.825 -0.092232 0)
(19.3824 -0.0594352 0)
(19.3568 -0.692147 0)
(17.5688 0.185755 0)
(18.0711 0.442506 0)
(18.9248 0.0929958 0)
(19.0296 0.0811983 0)
(19.0373 0.0707212 0)
(19.0309 0.0439881 0)
(19.0532 0.0276312 0)
(19.0793 0.0145116 0)
(19.1455 0.00654651 0)
(19.2146 0.0028609 0)
(19.2072 0.00150388 0)
(19.1958 -0.000129872 0)
(19.064 -0.00038624 0)
(18.7771 -0.000581663 0)
(18.3062 -0.000188381 0)
(17.6368 0.000293077 0)
(16.7745 0.000247862 0)
(15.7397 0.000153046 0)
(14.5664 0.000409902 0)
(13.2968 0.0005636 0)
(11.9745 0.000493404 0)
(10.643 0.000360275 0)
(9.34175 0.000340398 0)
(8.10226 0.000339256 0)
(6.94852 0.000324344 0)
(5.89643 0.000301221 0)
(4.95446 0.00022569 0)
(4.12482 0.000174629 0)
(3.4048 0.000137863 0)
(2.78813 0.000108631 0)
(2.26625 8.61408e-05 0)
(1.82935 6.69083e-05 0)
(1.46716 5.34122e-05 0)
(1.16957 4.13708e-05 0)
(0.927061 3.22554e-05 0)
(0.730904 2.50497e-05 0)
(0.573331 1.93781e-05 0)
(0.447548 1.49403e-05 0)
(0.34772 1.14827e-05 0)
(0.268904 8.79581e-06 0)
(0.206962 6.71695e-06 0)
(0.158466 5.1213e-06 0)
(0.120601 3.89838e-06 0)
(0.0910642 2.9686e-06 0)
(0.067999 2.26863e-06 0)
(0.0498334 1.74879e-06 0)
(0.0355421 1.37208e-06 0)
(0.0233922 1.1096e-06 0)
(0.0151476 9.4628e-07 0)
(0.00179841 8.55598e-07 0)
(0.00138623 -3.6186e-06 0)
(0.0116368 -4.02037e-06 0)
(0.017925 -4.71874e-06 0)
(0.0272126 -5.84288e-06 0)
(0.0380962 -7.45479e-06 0)
(0.0518991 -9.68109e-06 0)
(0.0693748 -1.26785e-05 0)
(0.0916915 -1.66586e-05 0)
(0.120219 -2.18932e-05 0)
(0.156649 -2.87078e-05 0)
(0.203045 -3.75473e-05 0)
(0.261909 -4.89434e-05 0)
(0.336252 -6.35523e-05 0)
(0.429666 -8.20046e-05 0)
(0.546393 -0.000105383 0)
(0.69138 -0.000134673 0)
(0.87032 -0.000171045 0)
(1.08967 -0.000215649 0)
(1.35661 -0.00026986 0)
(1.679 -0.000334643 0)
(2.06518 -0.000411351 0)
(2.52376 -0.000499449 0)
(3.06329 -0.00059714 0)
(3.69178 -0.000701267 0)
(4.41608 -0.000797097 0)
(5.2412 -0.000909001 0)
(6.16939 -0.00105954 0)
(7.19917 -0.00120036 0)
(8.32429 -0.00131087 0)
(9.53243 -0.00124927 0)
(10.8045 -0.00126126 0)
(12.1142 -0.00119847 0)
(13.4264 -0.00108573 0)
(14.7005 -0.000577257 0)
(15.8897 -0.000109032 0)
(16.9445 0.000148447 0)
(17.827 0.000707705 0)
(18.4766 0.00119966 0)
(18.9785 0.00241633 0)
(19.0216 0.000918744 0)
(19.3284 0.00618545 0)
(19.1038 0.00587916 0)
(19.3054 0.00676093 0)
(19.0172 0.014155 0)
(19.1314 0.0228462 0)
(18.9066 0.031008 0)
(19.0611 0.0158054 0)
(18.8669 0.0300267 0)
(18.8719 0.0582318 0)
(18.8607 0.165543 0)
(18.6757 0.0029715 0)
(18.4701 -0.0673675 0)
(18.7239 -0.127269 0)
(19.0048 -0.0941459 0)
(18.9958 -0.0447317 0)
(19.0023 -0.0365446 0)
(19.0351 -0.029812 0)
(19.0617 -0.0217407 0)
(19.138 -0.0189736 0)
(19.2061 -0.0185947 0)
(19.206 -0.017127 0)
(19.1911 -0.0148702 0)
(19.066 -0.0125599 0)
(18.7802 -0.00963565 0)
(18.3091 -0.00724037 0)
(17.6393 -0.00519488 0)
(16.7764 -0.00271476 0)
(15.741 -0.000955764 0)
(14.5676 0.000115989 0)
(13.2973 0.000742673 0)
(11.9747 0.0014223 0)
(10.6429 0.00181519 0)
(9.34154 0.00183926 0)
(8.10197 0.00170046 0)
(6.94819 0.00150908 0)
(5.8961 0.0012906 0)
(4.95416 0.00117929 0)
(4.12454 0.00102558 0)
(3.40455 0.000868293 0)
(2.78792 0.000721154 0)
(2.26608 0.000590945 0)
(1.8292 0.000479962 0)
(1.46704 0.000384056 0)
(1.16948 0.000306813 0)
(0.926982 0.000242778 0)
(0.730841 0.000191055 0)
(0.57328 0.000149464 0)
(0.447508 0.000116344 0)
(0.347689 9.01717e-05 0)
(0.268879 6.9579e-05 0)
(0.206943 5.34925e-05 0)
(0.158452 4.10125e-05 0)
(0.12059 3.13796e-05 0)
(0.0910558 2.40161e-05 0)
(0.0679927 1.8439e-05 0)
(0.0498287 1.428e-05 0)
(0.0355388 1.12556e-05 0)
(0.02339 9.14113e-06 0)
(0.0151461 7.82265e-06 0)
(0.00179823 7.07016e-06 0)
(0.00138607 -5.10138e-06 0)
(0.0116355 -5.66749e-06 0)
(0.017923 -6.62819e-06 0)
(0.0272096 -8.17376e-06 0)
(0.0380921 -1.03748e-05 0)
(0.0518935 -1.33969e-05 0)
(0.0693672 -1.74432e-05 0)
(0.0916817 -2.27767e-05 0)
(0.120206 -2.97289e-05 0)
(0.156633 -3.87133e-05 0)
(0.203024 -5.02419e-05 0)
(0.261882 -6.49305e-05 0)
(0.336218 -8.33644e-05 0)
(0.429624 -0.000106678 0)
(0.54634 -0.000135553 0)
(0.691315 -0.000170924 0)
(0.870241 -0.000214011 0)
(1.08957 -0.000265994 0)
(1.3565 -0.000327525 0)
(1.67887 -0.000399502 0)
(2.06503 -0.00048052 0)
(2.5236 -0.000571213 0)
(3.06313 -0.000672973 0)
(3.69161 -0.000774488 0)
(4.41593 -0.000881795 0)
(5.24109 -0.000992866 0)
(6.16935 -0.00103822 0)
(7.19922 -0.00104904 0)
(8.32436 -0.00101213 0)
(9.53256 -0.00102665 0)
(10.805 -0.00085469 0)
(12.1149 -0.000601179 0)
(13.4273 -0.000134132 0)
(14.7016 0.000238566 0)
(15.8912 0.000722788 0)
(16.9459 0.00156455 0)
(17.8296 0.00287717 0)
(18.4785 0.00349813 0)
(18.9869 0.00553484 0)
(19.0255 0.00813996 0)
(19.3454 0.010918 0)
(19.1239 0.0143349 0)
(19.3502 0.0182954 0)
(19.0642 0.0207568 0)
(19.2564 0.0211044 0)
(18.9896 0.03318 0)
(19.3388 0.0406114 0)
(18.9414 0.0441201 0)
(19.5365 0.0341327 0)
(19.3718 0.0712159 0)
(17.5224 0.0390708 0)
(18.1303 0.0224473 0)
(19.1449 0.0289931 0)
(19.136 0.0137629 0)
(19.0737 0.00743547 0)
(19.0483 -0.013563 0)
(19.0727 -0.0147372 0)
(19.0864 -0.0290481 0)
(19.1491 -0.0257499 0)
(19.2222 -0.0251527 0)
(19.2131 -0.0219934 0)
(19.2015 -0.0212454 0)
(19.0743 -0.0186567 0)
(18.7884 -0.0147 0)
(18.3162 -0.011172 0)
(17.6457 -0.00810263 0)
(16.7817 -0.00575238 0)
(15.7452 -0.00344759 0)
(14.5705 -0.00164221 0)
(13.2994 -0.00028549 0)
(11.9759 0.000377302 0)
(10.6437 0.000957859 0)
(9.34203 0.00129175 0)
(8.10213 0.00147657 0)
(6.94815 0.00153076 0)
(5.89593 0.00149442 0)
(4.95391 0.00135618 0)
(4.12427 0.00119347 0)
(3.40428 0.00102974 0)
(2.78766 0.000875923 0)
(2.26584 0.000733065 0)
(1.829 0.000605354 0)
(1.46687 0.000495526 0)
(1.16933 0.000400007 0)
(0.926862 0.000321334 0)
(0.730743 0.000255716 0)
(0.573201 0.000202128 0)
(0.447444 0.000158835 0)
(0.347638 0.000123975 0)
(0.268839 9.6351e-05 0)
(0.206912 7.45138e-05 0)
(0.158428 5.74108e-05 0)
(0.120571 4.41518e-05 0)
(0.0910414 3.39232e-05 0)
(0.0679819 2.61534e-05 0)
(0.0498207 2.03275e-05 0)
(0.035533 1.60727e-05 0)
(0.0233862 1.30862e-05 0)
(0.0151436 1.12206e-05 0)
(0.00179791 1.01323e-05 0)
(0.00138583 -6.55648e-06 0)
(0.0116336 -7.2867e-06 0)
(0.0179203 -8.51698e-06 0)
(0.0272054 -1.04978e-05 0)
(0.0380863 -1.33125e-05 0)
(0.0518856 -1.71738e-05 0)
(0.0693569 -2.23303e-05 0)
(0.0916681 -2.91103e-05 0)
(0.120188 -3.79182e-05 0)
(0.15661 -4.9269e-05 0)
(0.202995 -6.37744e-05 0)
(0.261845 -8.21314e-05 0)
(0.336172 -0.000105334 0)
(0.429566 -0.000134198 0)
(0.54627 -0.000169731 0)
(0.691228 -0.000213701 0)
(0.870136 -0.000266583 0)
(1.08945 -0.000329751 0)
(1.35636 -0.000404189 0)
(1.6787 -0.000490548 0)
(2.06484 -0.000590323 0)
(2.52339 -0.000702589 0)
(3.06289 -0.000816784 0)
(3.69136 -0.000949247 0)
(4.41568 -0.00107533 0)
(5.24085 -0.00118712 0)
(6.16913 -0.00127952 0)
(7.19904 -0.00133656 0)
(8.32429 -0.00132369 0)
(9.53281 -0.00118725 0)
(10.8053 -0.000993055 0)
(12.1151 -0.000635622 0)
(13.4278 -0.00020027 0)
(14.7023 0.000290342 0)
(15.8919 0.00107954 0)
(16.9469 0.00187663 0)
(17.8297 0.00159125 0)
(18.4808 0.0036429 0)
(18.9823 0.00455353 0)
(19.0349 0.00397281 0)
(19.343 0.00738646 0)
(19.1111 0.000430601 0)
(19.3214 -0.00381115 0)
(19.0335 -0.0144911 0)
(19.1575 -0.0231234 0)
(18.9379 -0.047345 0)
(19.0728 -0.0590095 0)
(18.9192 -0.123901 0)
(18.9608 -0.0258793 0)
(18.9336 -0.656611 0)
(18.5277 0.131809 0)
(18.3908 0.202219 0)
(18.7947 0.0904412 0)
(18.9896 0.0589351 0)
(19.0229 0.0150629 0)
(19.0265 0.0115837 0)
(19.0492 -0.0131899 0)
(19.0753 -0.0165495 0)
(19.1437 -0.0118867 0)
(19.2182 -0.0162511 0)
(19.2141 -0.0159639 0)
(19.2015 -0.0168892 0)
(19.0778 -0.0174913 0)
(18.7927 -0.0154081 0)
(18.3215 -0.012863 0)
(17.6508 -0.00982478 0)
(16.7859 -0.00668575 0)
(15.749 -0.00441527 0)
(14.5731 -0.00231254 0)
(13.3014 -0.000885187 0)
(11.9775 0.000303143 0)
(10.6446 0.000812248 0)
(9.34233 0.00136045 0)
(8.10225 0.00160012 0)
(6.94808 0.00165968 0)
(5.89572 0.00162914 0)
(4.95363 0.00148215 0)
(4.12395 0.00136937 0)
(3.40396 0.0012074 0)
(2.78735 0.00104235 0)
(2.26556 0.000884891 0)
(1.82875 0.000740708 0)
(1.46665 0.000611459 0)
(1.16914 0.000500282 0)
(0.926705 0.000403602 0)
(0.730613 0.00032341 0)
(0.573095 0.000257151 0)
(0.447358 0.000202839 0)
(0.347569 0.000159146 0)
(0.268785 0.000123953 0)
(0.206869 9.61587e-05 0)
(0.158394 7.42847e-05 0)
(0.120545 5.71915e-05 0)
(0.0910214 4.40396e-05 0)
(0.0679667 3.39634e-05 0)
(0.0498095 2.64186e-05 0)
(0.0355249 2.09031e-05 0)
(0.0233809 1.7009e-05 0)
(0.0151399 1.45914e-05 0)
(0.00179745 1.31572e-05 0)
(0.00138554 -7.33257e-06 0)
(0.0116314 -8.15192e-06 0)
(0.0179171 -9.51813e-06 0)
(0.0272005 -1.17193e-05 0)
(0.0380795 -1.48377e-05 0)
(0.0518765 -1.91042e-05 0)
(0.0693447 -2.47865e-05 0)
(0.0916523 -3.22327e-05 0)
(0.120168 -4.18703e-05 0)
(0.156584 -5.42356e-05 0)
(0.202962 -6.99665e-05 0)
(0.261803 -8.97591e-05 0)
(0.336119 -0.00011448 0)
(0.429502 -0.000145135 5.32332e-31)
(0.54619 -0.000182942 0)
(0.691132 -0.000228297 0)
(0.870021 -0.000283107 0)
(1.08931 -0.00034801 0)
(1.3562 -0.000424029 0)
(1.67852 -0.000510625 0)
(2.06464 -0.000607583 0)
(2.52317 -0.000711418 0)
(3.06266 -0.000829808 0)
(3.69114 -0.000936833 0)
(4.41548 -0.0010491 0)
(5.2407 -0.0011304 0)
(6.16907 -0.00119712 0)
(7.19912 -0.0012088 0)
(8.32458 -0.00116644 0)
(9.53321 -0.0010593 0)
(10.806 -0.000731021 0)
(12.1164 -0.000561683 5.20674e-31)
(13.4294 -9.77927e-06 0)
(14.7042 0.00095865 0)
(15.8943 0.00198801 0)
(16.95 0.00289296 0)
(17.8326 0.00602007 -5.22019e-31)
(18.485 0.00608494 0)
(18.9844 0.0087249 0)
(19.0434 0.010922 5.19931e-31)
(19.3493 0.0154394 0)
(19.1158 0.019994 0)
(19.3325 0.0281052 0)
(19.0458 0.0387651 -4.1356e-31)
(19.1807 0.0451548 0)
(18.9671 0.0493078 0)
(19.1056 0.0519023 0)
(18.9532 0.0571576 0)
(19.0465 0.038131 0)
(18.9391 0.0901857 0)
(18.2346 -0.0166 0)
(18.2653 -0.0413743 0)
(18.8855 -0.0364215 0)
(19.0613 -0.0635998 0)
(19.0741 -0.022099 0)
(19.0578 -0.0267119 -2.56861e-31)
(19.0792 -0.0202234 2.51559e-31)
(19.0956 -0.0444818 0)
(19.1588 -0.0510531 0)
(19.2358 -0.045984 -2.39514e-31)
(19.2182 -0.0341402 0)
(19.2113 -0.0279184 0)
(19.0876 -0.0203135 0)
(18.8021 -0.0159792 0)
(18.3297 -0.0126903 0)
(17.6577 -0.00848412 0)
(16.7921 -0.00637257 0)
(15.7538 -0.00422196 0)
(14.5771 -0.00276118 0)
(13.3045 -0.00131505 0)
(11.9794 -9.41034e-05 0)
(10.646 0.000816281 2.72014e-31)
(9.3433 0.00108975 0)
(8.10267 0.00134 0)
(6.94822 0.00153356 0)
(5.89568 0.00154348 0)
(4.95345 0.00151453 0)
(4.12369 0.00135388 0)
(3.40366 0.00124892 0)
(2.78705 0.00108878 0)
(2.26527 0.000935728 0)
(1.82848 0.000790758 0)
(1.4664 0.000660213 0)
(1.16893 0.000542572 0)
(0.926527 0.00044268 0)
(0.730464 0.000356936 0)
(0.572972 0.000285184 0)
(0.447258 0.00022624 0)
(0.347488 0.000177945 0)
(0.26872 0.00013927 0)
(0.206818 0.000108302 0)
(0.158354 8.38033e-05 -2.66609e-31)
(0.120514 6.4683e-05 0)
(0.0909975 4.98348e-05 -2.66559e-31)
(0.0679486 3.8515e-05 0)
(0.049796 2.99654e-05 0)
(0.0355152 2.37175e-05 0)
(0.0233745 1.93065e-05 0)
(0.0151356 1.65598e-05 0)
(0.00179688 1.49128e-05 0)
(0.00138524 -7.41608e-06 0)
(0.0116291 -8.24774e-06 0)
(0.0179137 -9.62066e-06 0)
(0.0271954 -1.18335e-05 0)
(0.0380724 -1.49587e-05 0)
(0.0518668 -1.92261e-05 0)
(0.069332 -2.489e-05 0)
(0.0916358 -3.22858e-05 0)
(0.120147 -4.18269e-05 0)
(0.156557 -5.39951e-05 0)
(0.202928 -6.93655e-05 0)
(0.261761 -8.86581e-05 0)
(0.336066 -0.000112568 0)
(0.429436 -0.00014191 -5.32332e-31)
(0.546111 -0.000177471 0)
(0.691037 -0.000220389 0)
(0.869908 -0.00027104 0)
(1.08918 -0.000330099 0)
(1.35604 -0.000397567 0)
(1.67835 -0.000473717 0)
(2.06445 -0.000556666 0)
(2.52297 -0.000645805 0)
(3.06245 -0.000732516 0)
(3.69093 -0.000820561 0)
(4.41528 -0.000893917 0)
(5.24053 -0.000946568 0)
(6.16896 -0.000984698 0)
(7.1991 -0.0010016 0)
(8.3246 -0.000990486 0)
(9.53344 -0.000846327 0)
(10.8064 -0.000643716 0)
(12.117 0.000123017 -5.20676e-31)
(13.4304 0.000680188 0)
(14.7056 0.00157508 0)
(15.8964 0.00230632 0)
(16.9523 0.00429563 0)
(17.836 0.00477541 5.22014e-31)
(18.4894 0.00786537 0)
(18.9896 0.0100078 0)
(19.0475 0.00959642 -5.1993e-31)
(19.3537 0.0106509 0)
(19.1213 0.00786906 0)
(19.3368 0.00614143 0)
(19.0532 -0.00198005 4.13513e-31)
(19.186 -0.00119031 0)
(18.9541 -0.00466773 0)
(19.094 -0.0115123 0)
(18.9325 -0.0336732 0)
(18.9979 -0.0126421 0)
(18.9152 -0.0726552 0)
(18.2797 0.0296041 0)
(18.2616 0.0855594 0)
(18.9343 0.0253542 0)
(19.0333 0.0129773 0)
(19.0592 0.0285423 0)
(19.0536 0.0126523 2.75544e-31)
(19.0861 0.0126474 -2.51159e-31)
(19.1041 0.0237532 0)
(19.1609 0.0183199 0)
(19.2406 0.0107928 2.43711e-31)
(19.2348 -0.00132841 0)
(19.2158 -0.00398643 0)
(19.0953 -0.00550028 0)
(18.806 -0.00716186 0)
(18.3327 -0.0062602 0)
(17.6607 -0.0073271 0)
(16.7949 -0.00610316 0)
(15.7563 -0.0046385 0)
(14.5794 -0.00325135 0)
(13.3063 -0.0019237 0)
(11.981 -0.00107562 0)
(10.647 -0.000297842 -2.7201e-31)
(9.34379 0.000562798 0)
(8.103 0.000961511 0)
(6.94836 0.0010733 0)
(5.89562 0.00119251 0)
(4.95328 0.00120877 0)
(4.12346 0.0011968 0)
(3.40339 0.00106253 0)
(2.78677 0.000977194 0)
(2.26499 0.000864642 0)
(1.82822 0.000746517 0)
(1.46617 0.000631284 0)
(1.16873 0.000527719 0)
(0.926349 0.00043415 0)
(0.730313 0.00035329 0)
(0.572846 0.000284441 0)
(0.447154 0.000226698 0)
(0.347404 0.000179465 0)
(0.268652 0.000140945 0)
(0.206763 0.000109955 0)
(0.158311 8.53845e-05 2.66609e-31)
(0.120481 6.60316e-05 0)
(0.0909719 5.09714e-05 2.66559e-31)
(0.0679291 3.94207e-05 0)
(0.0497815 3.07154e-05 0)
(0.0355047 2.4328e-05 0)
(0.0233676 1.97986e-05 0)
(0.0151308 1.69901e-05 0)
(0.00179626 1.52778e-05 0)
(0.00138494 -6.7883e-06 0)
(0.0116268 -7.55369e-06 0)
(0.0179104 -8.80662e-06 0)
(0.0271904 -1.0828e-05 0)
(0.0380656 -1.36765e-05 0)
(0.0518577 -1.75602e-05 0)
(0.06932 -2.27044e-05 0)
(0.0916202 -2.94067e-05 0)
(0.120127 -3.80297e-05 0)
(0.156531 -4.89942e-05 0)
(0.202896 -6.27947e-05 0)
(0.261721 -8.00239e-05 0)
(0.336018 -0.000101282 0)
(0.429377 -0.000127256 0)
(0.54604 -0.0001586 0)
(0.690952 -0.000195994 0)
(0.869809 -0.000240008 0)
(1.08907 -0.000290967 0)
(1.35592 -0.000348939 0)
(1.67821 -0.000413522 0)
(2.0643 -0.000483961 0)
(2.52281 -0.000559839 0)
(3.06231 -0.000638648 0)
(3.69081 -0.000709167 0)
(4.4152 -0.000759101 0)
(5.2405 -0.000812892 0)
(6.16897 -0.000813917 0)
(7.19912 -0.000731443 0)
(8.32484 -0.000551643 0)
(9.5339 -0.000279689 0)
(10.8072 5.16341e-05 0)
(12.1182 0.000416057 0)
(13.4318 0.000986415 0)
(14.7075 0.00142725 0)
(15.8984 0.00281383 0)
(16.955 0.00379073 0)
(17.8388 0.00575875 0)
(18.4917 0.00764451 0)
(18.9916 0.00906123 0)
(19.0498 0.0169161 0)
(19.3537 0.0147773 0)
(19.1219 0.0235858 0)
(19.3332 0.0254822 0)
(19.0473 0.0374647 0)
(19.1614 0.0456458 0)
(18.9522 0.066483 0)
(19.0468 0.0779935 0)
(18.9515 0.14606 0)
(19.043 0.0918337 0)
(18.9274 0.780197 0)
(18.4378 -0.150094 0)
(18.3216 -0.243964 0)
(18.837 -0.0923673 0)
(19.0085 -0.0279433 0)
(19.0155 -0.0308416 0)
(18.9924 -0.0312646 0)
(19.0337 -0.0179793 0)
(19.0538 -0.00495547 0)
(19.1298 -0.00208135 0)
(19.2139 -0.000507692 0)
(19.2181 -0.00216651 0)
(19.2015 -0.00243522 0)
(19.0895 -0.00371933 0)
(18.8033 -0.00449382 0)
(18.3332 -0.00497051 0)
(17.6623 -0.00450912 0)
(16.7972 -0.00373899 0)
(15.759 -0.00355035 0)
(14.582 -0.00279292 0)
(13.3086 -0.00226766 0)
(11.983 -0.00135547 0)
(10.6486 -0.000621805 0)
(9.34517 -0.000227528 0)
(8.10383 0.000333569 0)
(6.94874 0.000724778 0)
(5.89585 0.000864153 0)
(4.95337 0.000968837 0)
(4.12343 0.000983309 0)
(3.40327 0.000947009 0)
(2.78659 0.000872019 0)
(2.26479 0.000783765 0)
(1.82802 0.000674823 0)
(1.46598 0.000573822 0)
(1.16855 0.000480043 0)
(0.926189 0.000396534 0)
(0.730175 0.000323647 0)
(0.572729 0.000261364 0)
(0.447057 0.000209102 0)
(0.347324 0.000165757 0)
(0.268588 0.00013037 0)
(0.206712 0.0001019 0)
(0.15827 7.91878e-05 0)
(0.120449 6.12778e-05 0)
(0.0909471 4.73467e-05 0)
(0.0679103 3.6623e-05 0)
(0.0497675 2.85339e-05 0)
(0.0354945 2.25963e-05 0)
(0.0233609 1.83746e-05 0)
(0.0151261 1.57663e-05 0)
(0.00179565 1.41588e-05 0)
(0.00138469 -5.36574e-06 0)
(0.0116249 -5.97022e-06 0)
(0.0179076 -6.94731e-06 0)
(0.0271862 -8.52359e-06 0)
(0.0380597 -1.07353e-05 0)
(0.0518498 -1.37397e-05 0)
(0.0693097 -1.77008e-05 0)
(0.0916069 -2.28326e-05 0)
(0.12011 -2.93885e-05 0)
(0.15651 -3.7662e-05 0)
(0.202869 -4.79855e-05 0)
(0.261688 -6.07238e-05 0)
(0.335977 -7.62455e-05 0)
(0.429328 -9.48939e-05 0)
(0.545981 -0.000117026 0)
(0.690882 -0.000142775 0)
(0.869728 -0.000172223 0)
(1.08897 -0.000205135 0)
(1.35581 -0.000240881 0)
(1.67809 -0.000278478 0)
(2.06418 -0.00031616 0)
(2.52269 -0.00035008 0)
(3.06218 -0.000376796 0)
(3.69068 -0.000401337 0)
(4.4151 -0.000426325 0)
(5.24045 -0.000424144 0)
(6.16904 -0.000367419 0)
(7.19945 -0.000283039 0)
(8.32532 -0.000122731 0)
(9.53448 5.03506e-05 0)
(10.808 0.000362162 0)
(12.1192 0.00073221 0)
(13.4332 0.00130718 0)
(14.7092 0.00217187 0)
(15.9008 0.00287825 0)
(16.9577 0.00390099 0)
(17.8431 0.00484506 0)
(18.4945 0.00584352 0)
(19.0033 0.00694296 0)
(19.0454 0.00637426 0)
(19.367 0.00498536 0)
(19.135 0.00675946 0)
(19.3691 0.00671297 0)
(19.0766 0.00365671 0)
(19.264 -0.00442729 0)
(18.9954 -0.0108794 0)
(19.3397 -0.0194174 0)
(18.9301 -0.0205318 0)
(19.4898 -0.0572261 0)
(19.3435 -0.0996563 0)
(17.4777 -0.039094 0)
(18.0923 -0.00113433 0)
(19.0867 -0.0327463 0)
(19.0972 -0.0060774 0)
(19.0816 -0.00406726 0)
(19.0413 0.0146497 0)
(19.0744 0.010745 0)
(19.0881 0.0169672 0)
(19.1464 0.00609265 0)
(19.2295 0.00930352 0)
(19.2149 0.00614736 0)
(19.2097 0.00463238 0)
(19.0854 0.000313531 0)
(18.8018 -0.00140886 0)
(18.3319 -0.00256096 0)
(17.6618 -0.00311114 0)
(16.7973 -0.00405362 0)
(15.7595 -0.00367352 0)
(14.5829 -0.00313249 0)
(13.3097 -0.00231606 0)
(11.9841 -0.00181537 0)
(10.6497 -0.0012482 0)
(9.346 -0.000604785 0)
(8.10458 -0.000235603 0)
(6.94933 0.000125663 0)
(5.89611 0.000411649 0)
(4.95343 0.000523189 0)
(4.12338 0.00056522 0)
(3.40316 0.000592121 0)
(2.78643 0.000553617 0)
(2.26462 0.000500181 0)
(1.82784 0.00045523 0)
(1.46581 0.000400824 0)
(1.1684 0.000344465 0)
(0.926054 0.000290411 0)
(0.730058 0.00024089 0)
(0.572629 0.000197061 0)
(0.446974 0.000159279 0)
(0.347255 0.000127369 0)
(0.268532 0.000100935 0)
(0.206667 7.93522e-05 0)
(0.158235 6.19724e-05 0)
(0.120421 4.81678e-05 0)
(0.0909255 3.73401e-05 0)
(0.0678938 2.89801e-05 0)
(0.0497552 2.26303e-05 0)
(0.0354855 1.796e-05 0)
(0.023355 1.46296e-05 0)
(0.015122 1.25689e-05 0)
(0.0017951 1.12848e-05 0)
(0.0013845 -3.96252e-06 0)
(0.0116235 -4.42271e-06 0)
(0.0179056 -5.17407e-06 0)
(0.0271831 -6.38763e-06 0)
(0.0380555 -8.09976e-06 0)
(0.0518442 -1.04378e-05 0)
(0.0693024 -1.354e-05 0)
(0.0915975 -1.75866e-05 0)
(0.120098 -2.27943e-05 0)
(0.156495 -2.94185e-05 0)
(0.20285 -3.77539e-05 0)
(0.261665 -4.81276e-05 0)
(0.335949 -6.08815e-05 0)
(0.429295 -7.63606e-05 0)
(0.545943 -9.48803e-05 0)
(0.690839 -0.000116661 0)
(0.869679 -0.000141802 0)
(1.08892 -0.00017014 0)
(1.35576 -0.000201174 0)
(1.67804 -0.000233901 0)
(2.06413 -0.000266632 0)
(2.52265 -0.000296752 0)
(3.06216 -0.000319948 0)
(3.6907 -0.000334841 0)
(4.41514 -0.000325921 0)
(5.24054 -0.000288351 0)
(6.16921 -0.000241782 0)
(7.19965 -0.000175622 0)
(8.32559 -7.22457e-05 0)
(9.5349 0.00010982 0)
(10.8085 0.00032606 0)
(12.1198 0.00062038 0)
(13.434 0.00105507 0)
(14.7103 0.00155546 0)
(15.902 0.00224765 0)
(16.9591 0.00302988 0)
(17.844 0.00420023 0)
(18.4961 0.00524174 0)
(19.0004 0.00620973 0)
(19.0451 0.00784408 0)
(19.3564 0.00746012 0)
(19.1198 0.00745654 0)
(19.3339 0.00799746 0)
(19.0329 0.00530224 0)
(19.1414 0.00105941 0)
(18.9092 -0.00769238 0)
(19.0451 -0.0171786 0)
(18.8643 -0.0363209 0)
(18.8716 -0.0397008 0)
(18.8577 -0.0946624 0)
(18.6032 -0.00188804 0)
(18.4112 0.0424413 0)
(18.6897 0.031822 0)
(18.996 0.0147447 0)
(18.9929 0.0037149 0)
(19.0025 0.00124758 0)
(19.0281 -0.00346451 0)
(19.0682 -0.00283773 0)
(19.1343 0.000555086 0)
(19.2146 0.00225216 0)
(19.2071 0.000783417 0)
(19.2013 -0.000562938 0)
(19.079 -0.000519689 0)
(18.7977 -0.00139326 0)
(18.3294 -0.00291734 0)
(17.6606 -0.00352653 0)
(16.7971 -0.00302275 0)
(15.7602 -0.00255551 0)
(14.584 -0.00232042 0)
(13.3111 -0.00192324 0)
(11.9854 -0.00131271 0)
(10.6508 -0.000673105 0)
(9.347 -0.000268268 0)
(8.10534 4.44439e-05 0)
(6.94984 0.000256935 0)
(5.89649 0.000427222 0)
(4.95367 0.000509576 0)
(4.12348 0.000544901 0)
(3.40317 0.000553346 0)
(2.78642 0.000514489 0)
(2.26457 0.000461895 0)
(1.82777 0.000413807 0)
(1.46572 0.000357538 0)
(1.16831 0.000302005 0)
(0.925972 0.000250608 0)
(0.729983 0.000204889 0)
(0.572563 0.0001654 0)
(0.446917 0.000132061 0)
(0.347208 0.000104425 0)
(0.268493 8.18756e-05 0)
(0.206635 6.37302e-05 0)
(0.158209 4.93085e-05 0)
(0.120401 3.79803e-05 0)
(0.09091 2.91894e-05 0)
(0.0678819 2.24604e-05 0)
(0.0497464 1.73963e-05 0)
(0.035479 1.36953e-05 0)
(0.0233508 1.10697e-05 0)
(0.015119 9.45224e-06 0)
(0.0017947 8.44901e-06 0)
(0.00138438 -5.10382e-07 0)
(0.0116226 -5.72289e-07 0)
(0.0179043 -6.75708e-07 0)
(0.0271811 -8.43274e-07 0)
(0.0380528 -1.08244e-06 0)
(0.0518405 -1.4122e-06 0)
(0.0692975 -1.85546e-06 0)
(0.091591 -2.44203e-06 0)
(0.120089 -3.20913e-06 0)
(0.156484 -4.20254e-06 0)
(0.202837 -5.47746e-06 0)
(0.261648 -7.09923e-06 0)
(0.335929 -9.14293e-06 0)
(0.42927 -1.16914e-05 0)
(0.545912 -1.4837e-05 0)
(0.690803 -1.86704e-05 0)
(0.869637 -2.32819e-05 0)
(1.08887 -2.87443e-05 0)
(1.3557 -3.51051e-05 0)
(1.67798 -4.23608e-05 0)
(2.06407 -5.04672e-05 0)
(2.52259 -5.93224e-05 0)
(3.06211 -6.94947e-05 0)
(3.69066 -7.45293e-05 0)
(4.41514 -7.91393e-05 0)
(5.24057 -8.05677e-05 0)
(6.16923 -8.63125e-05 0)
(7.19971 -8.58138e-05 0)
(8.32575 -8.06724e-05 0)
(9.53515 -6.3762e-05 0)
(10.8089 -2.63862e-05 0)
(12.1204 3.0017e-05 0)
(13.4348 9.3716e-05 0)
(14.7113 0.000223121 0)
(15.9034 0.000405821 0)
(16.9607 0.000670343 0)
(17.8469 0.000939555 0)
(18.4975 0.00161347 0)
(19.0089 0.00175433 0)
(19.042 0.00398379 0)
(19.3664 0.00312819 0)
(19.1338 0.00812328 0)
(19.365 0.00955677 0)
(19.0642 0.0201643 0)
(19.2312 0.0257716 0)
(18.9697 0.047627 0)
(19.2911 0.0623221 0)
(18.8638 0.123231 0)
(19.4255 0.090555 0)
(19.3838 0.766198 0)
(17.6924 -0.114889 0)
(18.1695 -0.360207 0)
(19.0539 -0.121072 0)
(19.0912 -0.0575187 0)
(19.0743 -0.0334073 0)
(19.0435 -0.0243793 0)
(19.0628 -0.0147018 0)
(19.0893 -0.00818671 0)
(19.1412 -0.00475146 0)
(19.2242 -0.00191551 0)
(19.2064 -0.00124494 0)
(19.2047 -0.000731234 0)
(19.0795 -0.000731396 0)
(18.7978 -0.000713765 0)
(18.3292 -0.000353997 0)
(17.6607 -0.000208723 0)
(16.7977 -0.000329231 0)
(15.761 -0.000360699 0)
(14.5848 -0.000101934 0)
(13.3118 5.07722e-05 0)
(11.9861 0.000143804 0)
(10.6514 0.000124766 0)
(9.34734 0.000172156 0)
(8.10551 0.000188554 0)
(6.95 0.000186355 0)
(5.89657 0.000165432 0)
(4.95366 0.000168626 0)
(4.12343 0.000164133 0)
(3.40309 0.000130776 0)
(2.7863 0.00012219 0)
(2.26445 0.00011085 0)
(1.82765 8.59798e-05 0)
(1.46562 6.86449e-05 0)
(1.16822 5.47689e-05 0)
(0.925891 4.34438e-05 0)
(0.729915 3.42214e-05 0)
(0.572507 2.67649e-05 0)
(0.446871 2.07908e-05 0)
(0.347171 1.60477e-05 0)
(0.268463 1.23141e-05 0)
(0.206612 9.40059e-06 0)
(0.158191 7.14523e-06 0)
(0.120387 5.41399e-06 0)
(0.0908991 4.09724e-06 0)
(0.0678737 3.10705e-06 0)
(0.0497403 2.37316e-06 0)
(0.0354746 1.84346e-06 0)
(0.0233479 1.47209e-06 0)
(0.015117 1.24447e-06 0)
(0.00179443 1.10535e-06 0)
)
;

boundaryField
{
    sides1
    {
        type            zeroGradient;
    }
    sides2
    {
        type            slip;
    }
    empty
    {
        type            empty;
    }
}


// ************************************************************************* //
