/*--------------------------------*- C++ -*----------------------------------*\
| =========                 |                                                 |
| \\      /  F ield         | OpenFOAM: The Open Source CFD Toolbox           |
|  \\    /   O peration     | Version:  2012                                  |
|   \\  /    A nd           | Website:  www.openfoam.com                      |
|    \\/     M anipulation  |                                                 |
\*---------------------------------------------------------------------------*/
FoamFile
{
    version     2.0;
    format      ascii;
    class       volScalarField;
    location    "0.78";
    object      minKappa;
}
// * * * * * * * * * * * * * * * * * * * * * * * * * * * * * * * * * * * * * //

dimensions      [0 0 0 0 0 0 0];


internalField   nonuniform List<scalar> 
2268
(
8.07406e-07
1.69886e-06
2.70389e-06
3.72496e-06
4.73121e-06
5.55971e-06
6.32162e-06
7.00675e-06
7.58872e-06
7.975e-06
8.30635e-06
8.37828e-06
8.31653e-06
8.02189e-06
7.5699e-06
6.93851e-06
6.15384e-06
5.09267e-06
3.96648e-06
2.55281e-06
1.29492e-06
6.62665e-07
1.33081e-06
8.07406e-07
1.69886e-06
2.70389e-06
3.72496e-06
4.73121e-06
5.55971e-06
6.32162e-06
7.00675e-06
7.58872e-06
7.975e-06
8.30635e-06
8.37828e-06
8.31653e-06
8.02189e-06
7.5699e-06
6.93851e-06
6.15384e-06
5.09267e-06
3.96648e-06
2.55281e-06
1.29492e-06
6.62665e-07
1.33081e-06
1.19521e-06
1.89923e-06
2.84561e-06
3.82409e-06
4.80467e-06
5.62934e-06
6.40031e-06
7.07888e-06
7.64959e-06
8.03302e-06
8.36065e-06
8.4296e-06
8.38262e-06
8.09149e-06
7.65519e-06
7.01002e-06
6.23789e-06
5.18688e-06
4.0937e-06
2.77619e-06
1.5167e-06
1.16192e-06
1.36091e-06
1.67822e-06
2.20579e-06
3.07746e-06
3.9972e-06
4.92871e-06
5.73621e-06
6.51167e-06
7.1794e-06
7.73911e-06
8.12572e-06
8.45651e-06
8.53307e-06
8.5041e-06
8.20634e-06
7.79023e-06
7.14422e-06
6.42732e-06
5.41243e-06
4.38257e-06
3.15553e-06
1.87267e-06
1.72654e-06
1.87198e-06
2.18324e-06
2.5675e-06
3.36871e-06
4.23089e-06
5.10658e-06
5.89837e-06
6.6806e-06
7.33146e-06
7.87148e-06
8.25506e-06
8.58573e-06
8.6681e-06
8.67513e-06
8.37442e-06
7.98212e-06
7.33247e-06
6.67078e-06
5.70725e-06
4.75067e-06
3.67782e-06
2.48993e-06
2.55712e-06
2.4899e-06
2.70371e-06
2.99122e-06
3.72678e-06
4.52827e-06
5.33573e-06
6.09592e-06
6.87505e-06
7.50523e-06
8.03386e-06
8.43104e-06
8.76465e-06
8.86396e-06
8.88786e-06
8.57541e-06
8.21252e-06
7.57945e-06
7.01028e-06
6.12585e-06
5.29821e-06
4.39082e-06
3.41272e-06
3.58835e-06
3.67839e-06
3.22677e-06
3.45405e-06
4.12529e-06
4.86791e-06
5.60767e-06
6.34851e-06
7.12065e-06
7.71614e-06
8.2243e-06
8.62757e-06
8.96491e-06
9.08706e-06
9.15385e-06
8.84827e-06
8.51433e-06
7.89345e-06
7.40118e-06
6.59495e-06
5.93011e-06
5.28963e-06
4.59831e-06
4.56472e-06
4.88704e-06
3.75781e-06
3.95902e-06
4.5625e-06
5.2442e-06
5.92116e-06
6.66695e-06
7.44888e-06
8.0145e-06
8.49599e-06
8.88646e-06
9.22137e-06
9.37947e-06
9.44604e-06
9.13369e-06
8.83512e-06
8.2547e-06
7.8483e-06
7.15472e-06
6.7492e-06
6.49083e-06
6.0795e-06
5.42051e-06
6.23192e-06
5.32692e-05
9.05997e-05
0.000119369
0.000130453
0.000131402
0.000171792
0.000188426
0.000210241
0.000225481
0.000239945
0.000280233
0.000337563
0.000371451
0.000414319
0.000447814
0.000428781
0.000287991
8.57792e-05
3.76729e-05
5.32692e-05
8.17803e-05
0.000119369
0.000130453
0.000131402
0.000134862
0.000161424
0.000210241
0.000225481
0.000239945
0.000280233
0.000337563
0.000371451
0.000414319
0.000447814
0.000428781
0.000265154
3.50374e-05
2.43755e-05
6.70435e-05
8.17803e-05
0.000126298
0.000163705
0.00013256
3.91976e-05
0.000109809
0.000215818
0.00024591
0.00030141
0.000515925
0.00084084
0.00108116
0.00124503
0.00103776
0.000787203
0.000214474
3.50374e-05
2.43755e-05
8.37932e-05
8.36018e-05
0.000321375
0.000437375
0.000111386
1.84078e-05
1.12077e-05
0.000181849
0.000539863
0.00071237
0.000949674
0.00100586
0.00107292
0.000808963
0.000469884
0.000498145
0.000334458
4.11288e-05
2.47593e-05
9.65413e-05
0.000161987
0.00045849
0.000516659
0.000131222
1.84078e-05
8.93009e-06
3.37004e-05
0.000163782
0.000356446
0.000523261
0.000524145
0.000442346
0.000420328
0.000296118
0.000196486
5.88132e-05
3.58548e-05
2.27021e-05
0.000106603
0.000224977
0.000416394
0.000397614
0.000252193
2.18594e-05
8.93009e-06
2.0292e-05
3.22646e-05
7.97147e-05
0.000208262
0.000201447
8.98081e-05
7.36703e-05
6.28531e-05
5.48745e-05
3.57714e-05
2.23692e-05
1.87417e-05
0.000112277
0.000179434
0.000359691
0.000395794
0.000286491
4.41548e-05
1.7985e-05
2.0292e-05
2.37403e-05
2.6408e-05
3.18693e-05
3.05882e-05
4.36975e-05
5.90037e-05
6.28531e-05
5.48745e-05
3.57714e-05
2.02176e-05
1.87417e-05
0.000117461
0.000179434
0.000359691
0.000395794
0.000286491
0.000141623
0.000105573
3.84729e-05
2.37403e-05
2.6408e-05
3.04133e-05
2.47709e-05
4.36975e-05
5.90037e-05
8.8688e-05
8.17887e-05
6.33717e-05
2.02176e-05
2.53344e-05
9.97001e-06
1.01438e-05
1.05932e-05
1.08939e-05
1.0843e-05
1.08121e-05
1.19691e-05
1.27976e-05
1.35557e-05
1.42148e-05
1.48187e-05
1.51797e-05
1.5302e-05
1.48197e-05
1.43826e-05
1.3535e-05
1.30171e-05
1.21159e-05
1.19053e-05
1.2099e-05
1.31414e-05
1.6147e-05
2.13438e-05
0.000134078
0.000133199
0.000125211
0.000110631
7.75048e-05
4.01624e-05
3.63611e-05
3.17503e-05
2.817e-05
2.53101e-05
2.352e-05
2.20563e-05
2.15619e-05
2.12925e-05
2.10641e-05
2.01763e-05
2.00585e-05
1.94524e-05
2.00642e-05
2.22142e-05
3.97892e-05
0.000197483
5.29206e-05
0.000328657
0.000345058
0.000359158
0.00037394
0.000378878
0.000367119
0.000312289
0.00024714
0.000191127
0.000135952
9.27617e-05
7.41982e-05
6.837e-05
5.61194e-05
4.69293e-05
3.97245e-05
3.69266e-05
3.17028e-05
2.73983e-05
2.80476e-05
5.41633e-05
0.000286161
0.000199089
0.000376761
0.000398283
0.000422261
0.00046558
0.000530709
0.000645562
0.000723108
0.000852763
0.00100429
0.00123103
0.00147723
0.00143473
0.00118651
0.000928556
0.00071616
0.000506393
0.000298414
0.000131801
6.34508e-05
4.09759e-05
6.95233e-05
0.000217529
0.000483405
0.000466117
0.000503897
0.000557946
0.000647514
0.000780329
0.000995133
0.00135118
0.0021102
0.00268203
0.00337529
0.00366368
0.00293105
0.00180111
0.00143493
0.00124156
0.00104669
0.0008193
0.000442967
0.000222198
0.000141785
0.000156161
0.000312816
0.000312816
0.000624918
0.00066742
0.000744909
0.00087755
0.00108278
0.00138717
0.00186944
0.00264538
0.00313238
0.00311754
0.00295585
0.00181842
0.00155737
0.00155625
0.00149828
0.0016105
0.0017586
0.0017145
0.00144277
0.00109341
0.000785616
0.00046224
0.000345995
0.000767739
0.00080332
0.000878224
0.000987389
0.00115862
0.00141037
0.00179064
0.00225265
0.00269048
0.00222576
0.00226764
0.00255779
0.0018549
0.00177613
0.00220963
0.00278618
0.00262727
0.00279716
0.0028841
0.00275402
0.00234542
0.00186371
0.00103312
0.000896735
0.000930878
0.00100434
0.0011298
0.0012935
0.00151628
0.0018629
0.00228214
0.00218383
0.00182531
0.00146004
0.00198271
0.00228002
0.00228002
0.00236686
0.00225546
0.00156491
0.00155406
0.00160289
0.00263145
0.00268415
0.00327953
0.00276312
0.0010152
0.00104595
0.00110867
0.00119084
0.00131988
0.00149264
0.00175526
0.00210491
0.00223688
0.00156732
0.00121427
0.00115215
0.00160617
0.00203802
0.00235758
0.00154832
0.0012996
0.00127267
0.0012147
0.00140061
0.00184516
0.00232138
0.00281063
0.00109838
0.00112708
0.00118827
0.00127324
0.00138296
0.00152753
0.00171662
0.00196781
0.00213624
0.00168043
0.000922192
0.000743119
0.000727966
0.000869744
0.00120826
0.00155507
0.00151029
0.00123742
0.00114352
0.00114352
0.00117136
0.00124144
0.00152962
0.00116293
0.00118728
0.00121873
0.00127372
0.00135684
0.00146664
0.00160397
0.00178841
0.001913
0.0017825
0.00132466
0.000785837
0.000302605
0.000271421
0.000271421
0.00058073
0.000702361
0.0011036
0.00136365
0.0011238
0.00093495
0.00093495
0.000995078
0.00119976
0.00121942
0.00125326
0.00129801
0.00136016
0.00144023
0.00152102
0.00162468
0.00168827
0.00168587
0.00141813
0.00108983
0.000718631
0.000352702
0.000356538
0.000219561
0.000208597
0.000345366
0.000675263
0.000914758
0.0011179
0.00112369
0.000561199
0.00121991
0.00122256
0.00123901
0.00126931
0.00131237
0.00136777
0.00141352
0.00147157
0.0014979
0.00150619
0.00140258
0.00118901
0.000937024
0.000689786
0.000483528
0.000326164
0.000208597
0.000304123
0.000353815
0.000376586
0.000532171
0.000707627
0.000730891
0.00121556
0.00122299
0.00123607
0.00125572
0.00127649
0.00130335
0.00131977
0.0013431
0.00133777
0.00132437
0.00125619
0.00112707
0.000955614
0.000793378
0.000651979
0.000502689
0.000376659
0.000393907
0.000379324
0.000437568
0.000474238
0.000335184
0.000144616
0.00120204
0.0012057
0.00121221
0.00122177
0.00122944
0.00123994
0.00123848
0.00123934
0.00121479
0.0011848
0.00111489
0.0010298
0.000905584
0.000772815
0.000660067
0.000570943
0.000511457
0.000480093
0.000447772
0.000470135
0.000470135
0.000443599
0.000386225
0.001187
0.00118835
0.00118956
0.00119113
0.00118876
0.0011863
0.00117171
0.00115671
0.00111894
0.00107801
0.00100563
0.000913757
0.000815764
0.000719952
0.000638489
0.000570094
0.000518828
0.000486151
0.00046569
0.000462076
0.000488848
0.000492904
0.000363069
0.00116929
0.00116841
0.00116593
0.00116163
0.00115214
0.0011407
0.00111701
0.00109195
0.001047
0.000993704
0.000920836
0.000838248
0.000749649
0.000661446
0.000584512
0.000523601
0.00047621
0.000439889
0.000415977
0.000402399
0.000412799
0.000426525
0.000371077
0.00115499
0.00115205
0.00114633
0.00113713
0.0011221
0.00110423
0.00107429
0.00103742
0.000988367
0.000928473
0.000856818
0.00077795
0.000696189
0.000616155
0.000543323
0.000481157
0.000426264
0.000383551
0.000352522
0.000342401
0.000349663
0.000366119
0.000311145
0.00114215
0.00113679
0.00112756
0.0011132
0.00109423
0.00106762
0.00103375
0.000990235
0.000937016
0.000874539
0.000803399
0.00072672
0.000647303
0.000568817
0.000494598
0.00042836
0.000372965
0.000325353
0.000284285
0.00026882
0.000277456
0.000304872
0.000295654
0.00113195
0.0011257
0.00111465
0.00109745
0.00107471
0.0010442
0.00100713
0.000961658
0.000907742
0.000845873
0.000776218
0.000701127
0.000621785
0.000541826
0.000463583
0.000390534
0.000326567
0.000272901
0.000218038
0.00019567
0.000208493
0.000250128
0.000251549
0.00112458
0.00111695
0.00110432
0.00108526
0.00106031
0.00102723
0.000987486
0.000939259
0.000882917
0.000818951
0.000747409
0.000671333
0.000591705
0.000511316
0.000431451
0.000352649
0.000279076
0.000214222
0.000156365
0.000114598
0.000137683
0.000200208
0.000245802
0.00112381
0.00111566
0.00110227
0.00108218
0.00105589
0.00102179
0.000981666
0.000933868
0.000879105
0.000817371
0.000748247
0.000674224
0.000594122
0.000510493
0.000424242
0.000337169
0.000251705
0.000168779
9.98249e-05
4.98867e-05
8.54615e-05
0.000139042
0.00022177
0.00112753
0.00111901
0.00110493
0.00108431
0.0010577
0.00102337
0.000982442
0.000933205
0.00087691
0.00081359
0.000743194
0.000668414
0.000589458
0.000508569
0.000425137
0.00033831
0.000249999
0.00015941
6.99811e-05
4.98867e-05
5.34599e-05
0.000126651
0.000223265
0.00113817
0.0011298
0.00111571
0.00109498
0.0010684
0.00103487
0.000995433
0.000948543
0.000895506
0.000836175
0.000770526
0.00069983
0.000623222
0.000541748
0.000456879
0.000372138
0.000289303
0.000215058
0.000147641
8.64333e-05
0.000123051
0.000198868
0.000259902
0.00115252
0.00114648
0.00113278
0.00111275
0.00108688
0.00105409
0.00101495
0.000968312
0.000915529
0.000856721
0.000792509
0.000724236
0.000653839
0.00058282
0.000511985
0.000442642
0.000370513
0.000301744
0.000245393
0.000218546
0.000236035
0.000293054
0.000324423
0.00117292
0.00116714
0.00115679
0.00113856
0.00111396
0.00108348
0.00104776
0.00100591
0.000959025
0.000906941
0.00085074
0.000790773
0.000726685
0.000660875
0.000590291
0.00052811
0.000466024
0.000420825
0.000386003
0.000382732
0.000401245
0.000447037
0.000445805
0.00120086
0.00119561
0.00118557
0.00116992
0.00114886
0.00112179
0.00108784
0.00104841
0.00100465
0.000956772
0.000906481
0.000855434
0.000797637
0.000743468
0.000686625
0.000640346
0.000595968
0.000571609
0.000560048
0.00057737
0.000596264
0.000634981
0.000565546
0.00123652
0.00123193
0.00122239
0.00120826
0.00118919
0.00116531
0.00113646
0.00110352
0.00106517
0.0010249
0.000979678
0.00093583
0.00088848
0.000846398
0.000805463
0.00077577
0.000752647
0.000755359
0.000763371
0.000774947
0.000783259
0.000803811
0.000664293
0.00128099
0.00127715
0.00126839
0.00125602
0.00123919
0.0012184
0.00119396
0.00116617
0.00113487
0.00110228
0.00106716
0.00103416
0.000999749
0.000970388
0.000944816
0.000934877
0.000938847
0.000951276
0.000939349
0.000932158
0.000921904
0.000926039
0.000738738
0.00133378
0.00133081
0.00132338
0.00131341
0.00129966
0.00128295
0.0012636
0.00124174
0.00121796
0.00119341
0.00116806
0.00114432
0.00112161
0.00110762
0.00110485
0.00111804
0.00112252
0.00109292
0.00105737
0.00103103
0.00100612
0.00100476
0.000801577
0.00139595
0.00139372
0.00138772
0.0013801
0.00136956
0.00135728
0.00134336
0.00132799
0.00131193
0.00129572
0.00127994
0.00126653
0.00125869
0.00126402
0.00128285
0.00128486
0.00123298
0.00117233
0.00110948
0.00106979
0.00105282
0.00105877
0.000852398
0.00146709
0.00146576
0.00146176
0.00145696
0.00145003
0.00144229
0.00143349
0.00142399
0.00141434
0.00140504
0.00139759
0.00139546
0.00140472
0.00142726
0.00142289
0.00133037
0.00125229
0.00116898
0.00110541
0.0010813
0.00107558
0.00109519
0.000897288
0.00154628
0.00154576
0.00154357
0.00154142
0.001538
0.00153464
0.00153071
0.001527
0.00152381
0.0015228
0.00152645
0.00153958
0.00156435
0.00157423
0.00145892
0.0013548
0.00124671
0.00114895
0.00109129
0.00107139
0.00107667
0.00110431
0.000925349
0.00163614
0.00163629
0.00163584
0.00163593
0.00163544
0.00163541
0.00163505
0.00163568
0.00163821
0.00164586
0.00166102
0.00168562
0.00169295
0.00156307
0.00143486
0.001314
0.00119472
0.00110971
0.00106145
0.00104506
0.00106929
0.00111506
0.000954709
0.00173045
0.00173176
0.00173374
0.0017363
0.00173858
0.00174194
0.00174544
0.00175096
0.00175995
0.00177671
0.00180085
0.00182421
0.00171556
0.00156164
0.00141947
0.00127232
0.00114331
0.00105888
0.00101779
0.00102011
0.00104219
0.0011048
0.000968606
0.0018393
0.00184081
0.00184304
0.00184613
0.00185034
0.00185621
0.00186248
0.00187203
0.00188683
0.00190933
0.00193383
0.00185511
0.00167766
0.00150997
0.00134666
0.0011923
0.00107852
0.00100528
0.000971188
0.000992792
0.00103847
0.00111946
0.000999027
0.00194758
0.00194967
0.00195292
0.00195842
0.00196525
0.00197332
0.00198344
0.00199876
0.00202011
0.00204479
0.00203082
0.00185774
0.00165999
0.00147366
0.00128822
0.001126
0.00101018
0.0009503
0.000934795
0.000951902
0.00100901
0.00110732
0.00100907
0.00207306
0.00207535
0.0020789
0.00208453
0.00209044
0.00209979
0.00211243
0.00213163
0.00215316
0.00216742
0.00201966
0.00179952
0.00158309
0.00137765
0.00119145
0.00104768
0.000954667
0.000896822
0.00090228
0.000947963
0.00102622
0.00114099
0.00104861
0.00219265
0.00219527
0.00219971
0.00220604
0.00221395
0.00222628
0.00224277
0.00226632
0.00228487
0.00223471
0.00202156
0.00177452
0.00154429
0.00132639
0.00113382
0.000984568
0.000889791
0.000854395
0.000865324
0.000907813
0.0010024
0.00113193
0.00105727
0.00233446
0.00233759
0.00234276
0.00234928
0.00235686
0.0023679
0.00238459
0.00240367
0.00240138
0.00221733
0.00194736
0.00168246
0.00143801
0.00122
0.00104267
0.000917855
0.000850902
0.000822285
0.000860353
0.000927767
0.0010414
0.00118383
0.00110713
0.00246223
0.00246573
0.00247132
0.0024783
0.002487
0.00250082
0.00252061
0.00253667
0.00247929
0.00223588
0.00193827
0.00166064
0.00140517
0.00118056
0.000996626
0.000866043
0.00080447
0.000798144
0.00082131
0.000901171
0.00102653
0.00117793
0.00111216
0.00262154
0.0026262
0.00263357
0.00264289
0.00265366
0.00266668
0.00267946
0.00267515
0.00247516
0.002158
0.0018325
0.00154379
0.00128954
0.00107693
0.000913117
0.000812355
0.000786367
0.000786367
0.000834741
0.000940628
0.00108401
0.00124739
0.00117397
8.2795e-05
7.9912e-05
5.9988e-05
5.9988e-05
3.26055e-05
3.26055e-05
8.78619e-05
0.000154464
0.000127706
0.000127706
0.000185486
0.000418421
0.000327616
0.000327616
0.000419738
0.000486784
0.000287296
0.000202603
0.000112838
0.000112838
0.000168357
0.000125018
9.48796e-05
9.48796e-05
0.000508597
0.000387956
0.000387956
0.000390927
0.00163069
0.00152298
0.00144656
0.00144656
0.00209404
0.00209404
0.00210098
0.00210098
0.00117889
0.00117889
0.0011955
0.0012583
0.000740859
0.00069545
0.00069545
0.00070501
0.000264319
0.000239804
0.000230809
0.000230809
0.00066697
0.000657728
0.000656156
0.000656156
4.23856e-05
4.23856e-05
4.77107e-05
0.00014415
0.000263758
0.000263758
0.000274149
0.000274149
0.000223479
0.000214712
0.000205901
0.000205901
0.000243752
0.000243752
0.000247352
0.00024824
0.0002037
0.0002037
0.000208241
0.000211738
0.00020083
0.00020083
0.000210468
0.000219891
0.000173684
0.000173684
0.000186079
0.000198213
0.000174476
0.000174476
0.000190237
0.000205931
0.000165291
0.000165291
0.000183945
0.000202219
0.000170093
0.000170093
0.000189914
0.000209706
0.000185083
0.000185083
0.000203765
0.000222481
0.000222829
0.000222829
0.000238745
0.000255039
0.000297492
0.000297492
0.000310128
0.000323189
0.000371709
0.000371709
0.00038161
0.000393088
0.000434223
0.000434223
0.000444912
0.000457773
0.000484543
0.000484543
0.00049789
0.00051285
0.000527954
0.000527954
0.000544026
0.000561395
0.000563909
0.000563909
0.000582398
0.000601639
0.000595295
0.000595295
0.000615475
0.00063587
0.000615804
0.000615804
0.000637923
0.000659878
0.000637258
0.000637258
0.000661598
0.000685479
0.000648851
0.000648851
0.000675583
0.000701646
0.000670441
0.000670441
0.000699171
0.000727095
0.000679032
0.000679032
0.000709832
0.000739767
0.000705963
0.000705963
0.000738107
0.000769369
0.000713217
0.000713217
0.000746956
0.00077976
0.00074641
0.00074641
0.000781189
0.000814944
0.000750706
0.000750706
0.000786476
0.000821161
0.000791532
0.000791532
0.000828362
0.000864041
0.000168182
0.000339589
0.000424128
0.000620521
0.00040936
0.000429749
0.000462626
0.000314169
7.01965e-05
5.18001e-05
3.04133e-05
2.47709e-05
0.000105226
0.000322944
0.000654284
0.000309142
6.85476e-05
3.03434e-05
5.74657e-05
0.000439552
0.000464962
0.000409239
0.000550744
0.000617645
0.000872038
0.00189743
0.00148526
0.0015965
0.00128402
0.000857364
0.000414255
0.000207185
0.000390992
0.000397106
0.000225163
0.000198019
8.54532e-05
0.000392639
0.000908335
0.000330665
0.000334975
0.000521071
0.00132945
0.00356206
0.00513886
0.00388751
0.00382676
0.00264573
0.000609136
0.000142417
0.000102453
0.000120361
0.000332834
0.000252322
0.000198019
0.000498678
0.000703976
0.000401373
0.000330665
0.000385861
0.000882031
0.00493834
0.00397086
0.00234128
0.00175943
0.00199335
0.0017008
0.000397156
0.000127115
9.94025e-05
0.000100792
0.000172354
0.00073215
0.000276803
0.000375892
0.000129349
0.00014805
0.000328153
0.000786267
0.00435525
0.00421635
0.00136584
0.00103338
0.000871945
0.00100703
0.00102983
0.000700431
0.0001432
9.94025e-05
0.000100792
0.000111977
0.000177174
0.0004626
0.000119487
7.32633e-05
0.000133044
0.000403144
0.00327801
0.0046973
0.00134056
0.00103335
0.000729574
0.000511819
0.000723089
0.000573215
0.000678074
0.000370639
0.000177641
0.000170886
0.000111587
0.000101946
9.96476e-05
0.000102987
7.32633e-05
0.000354723
0.00226051
0.00523125
0.00293393
0.000688188
0.000949748
0.000552907
0.00042543
0.000514658
0.000356283
0.000356283
0.000738137
0.000870095
0.000945264
0.000198084
9.95407e-05
8.56657e-05
8.56657e-05
7.79011e-05
0.00207206
0.00422141
0.00412993
0.00155762
0.000688188
0.000806729
0.000482008
0.000388789
0.000461133
0.000375572
0.000570199
0.00060831
0.00060831
0.00109364
0.001179
0.000254395
0.000158597
0.000155334
0.000198823
0.00338247
0.0029347
0.0022493
0.00108903
0.000931153
0.000497123
0.000392838
0.000388789
0.000470699
0.000593896
0.000767576
0.000655894
0.000848778
0.00131049
0.00179901
0.00157014
0.00119869
0.00113035
0.0014864
0.00208855
0.00156403
0.000685529
0.000934827
0.000358986
0.000195555
0.00036048
0.000472339
0.000712563
0.000761759
0.000951483
0.00127188
0.00171022
0.00173404
0.00235834
0.00239733
0.0024955
0.002248
0.00290846
0.000669763
0.000521859
0.000273322
0.000271225
0.000152839
0.000152839
0.000251072
0.000572352
0.00112247
0.00113335
0.00149373
0.00187557
0.00148622
0.0013298
0.00180255
0.00232323
0.00298226
0.00291539
0.00350107
0.000361201
0.000396443
0.000273322
0.000352057
0.000247982
0.000155254
0.000662987
0.000917596
0.00144002
0.00161477
0.00182567
0.0014307
0.000951166
0.001051
0.0014764
0.00200033
0.0025584
0.00311125
0.00337404
0.000612012
0.000516363
0.00050158
0.000466405
0.000305246
0.000263556
0.00104163
0.00163159
0.00169667
0.0016629
0.00147792
0.00112008
0.000899591
0.000993198
0.00145703
0.00192963
0.0023904
0.00283291
0.00330926
0.000324123
0.000417128
0.000410308
0.000402728
0.000305246
0.000704082
0.00115365
0.00122401
0.000951958
0.000956159
0.000928705
0.00093143
0.000899591
0.00124159
0.00169884
0.00197737
0.00230567
0.00262752
0.00328695
0.000417939
0.000383058
0.000266844
0.000137088
0.000347679
0.000494221
0.000887676
0.00076145
0.000425484
0.000425484
0.000526842
0.000749686
0.00114965
0.00152009
0.0018716
0.00204817
0.00228482
0.00250195
0.00311135
0.000327865
0.000298746
0.000163157
8.15969e-05
8.15969e-05
0.000300771
0.000641082
0.000861108
0.000553599
0.000510671
0.000645307
0.000952685
0.00145375
0.00171494
0.00198946
0.00200017
0.00218528
0.00242516
0.00302641
0.000409123
0.000398085
0.000312934
0.000218666
0.000260922
0.000431312
0.000602671
0.000834825
0.000868814
0.000818024
0.00095027
0.00129121
0.00172995
0.00184823
0.00200717
0.00184949
0.00198234
0.00217216
0.0031144
0.000361577
0.000479905
0.000457207
0.000454984
0.000550684
0.000618295
0.000825446
0.00098376
0.00115528
0.00118744
0.00142116
0.00166598
0.00192081
0.00190555
0.00189322
0.00163802
0.00168438
0.00187596
0.00292814
0.000382187
0.000514762
0.000558696
0.000615657
0.000752165
0.000927149
0.00112985
0.00131001
0.00149372
0.00160168
0.00181286
0.00194079
0.00198763
0.001791
0.00169079
0.00137784
0.00138806
0.00161268
0.00272619
0.000354395
0.000552924
0.000618119
0.000716253
0.000865807
0.00105129
0.00130126
0.00151683
0.00173317
0.00186147
0.00195066
0.00191976
0.00183521
0.00161579
0.00148387
0.00115929
0.00112729
0.00123644
0.00258092
0.000371605
0.000574837
0.000666806
0.000773335
0.000925178
0.00109812
0.00131272
0.00151409
0.00167849
0.00180276
0.0018435
0.00178491
0.00168665
0.00147185
0.00133592
0.000991334
0.000917962
0.000955204
0.00223044
0.000371365
0.000610662
0.000713295
0.000833146
0.000983683
0.00114347
0.00133284
0.00151409
0.00166488
0.0017731
0.00178004
0.00171793
0.00161042
0.00140044
0.0012142
0.000919289
0.000831222
0.000712058
0.00226342
0.000385183
0.000634933
0.000750543
0.000877749
0.00103165
0.00118482
0.00136338
0.00151786
0.00165869
0.00174449
0.00175913
0.00169671
0.0015861
0.00138325
0.00119261
0.000919289
0.000766727
0.000615564
0.00186882
0.000406143
0.00066194
0.000779738
0.000913806
0.0010619
0.00121014
0.0013661
0.00149001
0.00162379
0.00168924
0.00173035
0.00168331
0.0015855
0.00138325
0.00120277
0.000932764
0.000858564
0.000615564
0.00169414
0.000456197
0.000701539
0.000818681
0.000951987
0.0010844
0.00121699
0.00136111
0.00145133
0.0015676
0.00161384
0.00166972
0.0016529
0.0015855
0.00139228
0.0012491
0.000975714
0.000900609
0.00069584
0.00141794
0.000566138
0.000794794
0.000905596
0.00103726
0.00113939
0.00124289
0.00136111
0.00145005
0.00153058
0.00154856
0.00159022
0.00158093
0.0015794
0.00141939
0.0012853
0.00103789
0.000909586
0.000705306
0.0010479
0.000682421
0.000929941
0.00104087
0.00116555
0.00123
0.00130517
0.0013908
0.00145005
0.00153058
0.00153693
0.00154288
0.00149843
0.0015301
0.00144653
0.00132893
0.00109854
0.000930894
0.000705306
0.000617649
0.000793044
0.00107317
0.00118534
0.00129504
0.00131657
0.00138929
0.00146502
0.0015135
0.00156
0.00153693
0.00154288
0.00146296
0.00146285
0.00146852
0.00138643
0.00117643
0.00103201
0.000682172
0.00036273
0.000887317
0.00120564
0.00131417
0.00139798
0.00139549
0.00149996
0.00159198
0.0016512
0.00167472
0.00161463
0.00156561
0.00146296
0.00142184
0.00146973
0.00146023
0.00128323
0.00115818
0.000710437
0.00036273
0.000971277
0.00132221
0.00141817
0.00148465
0.00148303
0.00163164
0.00175307
0.00184133
0.00185199
0.00176564
0.00165886
0.00149386
0.00142184
0.00146333
0.00154287
0.00141651
0.00132907
0.000975861
0.000428553
0.00104005
0.00141835
0.00150336
0.00156772
0.00158333
0.00176999
0.00192771
0.00205746
0.00206213
0.00196039
0.00180381
0.00158077
0.00142999
0.00146333
0.00162952
0.0015736
0.00152845
0.00129745
0.000721432
0.0010986
0.00149943
0.00158104
0.00165482
0.00169282
0.0019035
0.00209818
0.00227385
0.00227865
0.00217585
0.00197925
0.00169728
0.00147631
0.00147175
0.00171988
0.00174721
0.00174181
0.0015935
0.00104694
0.00114128
0.00157014
0.00165555
0.00174202
0.00180345
0.00202753
0.00225648
0.00247774
0.00249351
0.00240527
0.00218372
0.00183515
0.00154582
0.00150284
0.00182421
0.00194276
0.00198239
0.00185519
0.00136398
0.00118689
0.00163591
0.00172773
0.00182475
0.00191204
0.00214792
0.00240222
0.00266817
0.00270453
0.00264326
0.00241264
0.00199467
0.00161754
0.00154162
0.00193753
0.00214982
0.00223826
0.00213538
0.00168875
0.00121734
0.00169562
0.00179668
0.00190418
0.00201624
0.00226678
0.00253752
0.00284546
0.00291061
0.00288903
0.0026632
0.00218259
0.00169127
0.00157362
0.00204396
0.00236377
0.00249762
0.0024155
0.0020039
0.00126309
0.00175607
0.00186696
0.0019843
0.00211493
0.00238331
0.00266549
0.00300747
0.00310758
0.00313601
0.00292534
0.00237246
0.0017618
0.00158357
0.0021172
0.00257873
0.00275943
0.0026953
0.00230552
0.00128772
0.0018134
0.00193415
0.002061
0.002205
0.00249322
0.00278556
0.00315366
0.00329575
0.00337756
0.00319392
0.00252099
0.00185493
0.00156186
0.00216276
0.00279334
0.00301092
0.00296025
0.00258251
0.00133941
0.00187338
0.0020025
0.00213894
0.00229111
0.00259754
0.00289901
0.00328493
0.00347258
0.00360017
0.00345145
0.00258543
0.00179472
0.00145171
0.00218377
0.00299645
0.00325291
0.00320885
0.00284419
0.00135944
0.00192949
0.00206508
0.00221144
0.00236788
0.00268931
0.00300101
0.00339604
0.00363007
0.00378772
0.00368612
0.00262599
0.00159366
0.00128595
0.00217234
0.00316289
0.00345893
0.00342571
0.00307146
0.00141994
0.0019898
0.00212991
0.00228569
0.00244467
0.00277386
0.00309545
0.00348999
0.00376552
0.00393346
0.00389333
0.00253025
0.00138456
0.00111385
0.0021294
0.00329627
0.00362543
0.0036226
0.00325453
0.00143188
0.00204324
0.00218583
0.00234879
0.00250955
0.00284025
0.00317053
0.00355867
0.00386509
0.00403157
0.0040503
0.00250162
0.00112782
0.000999848
0.00205254
0.00336487
0.00374155
0.00376216
0.00337847
0.00150526
0.00210455
0.00224979
0.00241767
0.00258276
0.00290828
0.00324856
0.00362153
0.00395057
0.0041023
0.00414479
0.00230827
0.00107435
0.000999848
0.00195076
0.00329077
0.00381331
0.00386365
0.00348166
)
;

boundaryField
{
    leftWall
    {
        type            calculated;
        value           uniform 0;
    }
    rightWall
    {
        type            calculated;
        value           uniform 0;
    }
    lowerWall
    {
        type            calculated;
        value           uniform 0;
    }
    atmosphere
    {
        type            calculated;
        value           uniform 0;
    }
    defaultFaces
    {
        type            empty;
    }
}


// ************************************************************************* //
