/*--------------------------------*- C++ -*----------------------------------*\
| =========                 |                                                 |
| \\      /  F ield         | OpenFOAM: The Open Source CFD Toolbox           |
|  \\    /   O peration     | Version:  2012                                  |
|   \\  /    A nd           | Website:  www.openfoam.com                      |
|    \\/     M anipulation  |                                                 |
\*---------------------------------------------------------------------------*/
FoamFile
{
    version     2.0;
    format      ascii;
    class       volScalarField;
    location    "0.78";
    object      p;
}
// * * * * * * * * * * * * * * * * * * * * * * * * * * * * * * * * * * * * * //

dimensions      [1 -1 -2 0 0 0 0];


internalField   nonuniform List<scalar> 
2268
(
101967
101972
101981
101994
102010
102031
102052
102078
102102
102132
102156
102186
102205
102226
102237
102247
102250
102246
102243
102226
102218
102195
102193
101907
101912
101921
101934
101950
101971
101992
102018
102043
102073
102097
102127
102146
102167
102178
102186
102189
102186
102182
102166
102155
102132
102129
101845
101850
101859
101873
101889
101910
101932
101959
101984
102015
102040
102070
102092
102113
102125
102134
102137
102132
102129
102109
102102
102072
102074
101782
101787
101796
101810
101827
101848
101870
101898
101924
101955
101981
102012
102033
102053
102063
102070
102073
102069
102063
102046
102032
102002
101998
101717
101722
101732
101746
101764
101786
101809
101837
101864
101896
101925
101957
101982
102005
102017
102024
102026
102020
102016
101991
101983
101937
101944
101651
101656
101666
101681
101699
101722
101746
101775
101803
101837
101866
101901
101923
101943
101952
101957
101959
101954
101946
101927
101905
101860
101852
101581
101587
101598
101614
101634
101658
101683
101713
101743
101777
101812
101846
101879
101901
101913
101918
101919
101910
101905
101873
101856
101778
101788
101513
101519
101530
101546
101567
101591
101618
101648
101680
101718
101752
101794
101818
101839
101846
101847
101846
101840
101828
101806
101772
101700
101676
102910
102327
101970
101869
102076
102379
102362
102313
102271
102227
102216
102188
102183
102219
102253
102410
102684
103377
103493
102810
102201
101860
101789
101998
102341
102322
102287
102215
102172
102159
102148
102143
102154
102207
102357
102610
103272
103328
102477
101981
101686
101714
101918
102301
102347
102161
102167
102129
102128
102121
102124
102165
102198
102287
102408
103042
103131
102263
101801
101599
101634
101812
102193
102257
102242
102132
102110
102119
102124
102123
102132
102187
102322
102535
103022
102975
102014
101644
101583
101603
101718
102076
102152
102035
102104
102115
102121
102114
102119
102157
102188
102301
102412
102846
102835
101889
101605
101581
101601
101625
101937
101973
102004
102058
102096
102114
102119
102107
102121
102179
102297
102461
102810
102719
101759
101598
101582
101594
101622
101788
101766
101785
101874
102038
102175
102194
102221
102219
102180
102258
102278
102612
102582
101685
101571
101581
101573
101583
101651
101580
101629
101784
102042
102407
102503
102455
102313
102171
102197
102267
102495
102428
101408
101414
101425
101442
101463
101489
101519
101550
101584
101619
101669
101703
101764
101784
101799
101795
101797
101782
101780
101732
101702
101554
101561
101337
101339
101342
101347
101356
101370
101391
101418
101453
101498
101542
101620
101623
101656
101637
101635
101627
101624
101598
101586
101489
101421
101324
101330
101330
101330
101330
101331
101333
101337
101345
101362
101386
101453
101488
101662
101657
101657
101598
101594
101574
101582
101538
101517
101404
101397
101329
101329
101329
101329
101330
101330
101331
101333
101347
101364
101423
101540
101529
101558
101504
101473
101460
101445
101431
101419
101399
101421
101402
101329
101329
101329
101330
101330
101330
101330
101330
101329
101331
101378
101385
101546
101483
101467
101380
101371
101380
101395
101404
101406
101393
101408
101329
101329
101329
101329
101329
101329
101329
101328
101328
101326
101333
101372
101378
101397
101354
101341
101344
101341
101344
101355
101363
101370
101379
101328
101328
101328
101328
101328
101328
101328
101327
101324
101323
101321
101323
101332
101336
101318
101331
101340
101348
101359
101360
101359
101359
101357
101328
101328
101328
101328
101328
101327
101327
101326
101325
101322
101321
101322
101322
101323
101321
101327
101326
101332
101348
101357
101361
101358
101360
101327
101327
101327
101327
101327
101327
101326
101325
101324
101322
101321
101321
101322
101322
101323
101331
101332
101315
101323
101354
101358
101359
101359
101327
101327
101327
101327
101326
101326
101326
101325
101324
101323
101322
101322
101322
101323
101324
101323
101328
101346
101332
101319
101336
101355
101361
101327
101326
101326
101326
101326
101326
101325
101325
101324
101323
101322
101322
101322
101323
101323
101324
101324
101324
101324
101339
101358
101353
101324
101326
101326
101326
101326
101326
101325
101325
101325
101324
101324
101323
101323
101323
101323
101324
101324
101324
101324
101324
101324
101324
101325
101333
101326
101326
101326
101326
101325
101325
101325
101325
101324
101324
101323
101323
101323
101323
101324
101324
101324
101324
101324
101325
101325
101325
101325
101325
101325
101325
101325
101325
101325
101325
101325
101324
101324
101324
101324
101324
101324
101324
101324
101324
101324
101324
101324
101324
101324
101325
101325
101325
101325
101325
101325
101325
101325
101324
101324
101324
101324
101324
101324
101324
101324
101324
101324
101324
101324
101325
101325
101325
101325
101325
101325
101325
101325
101325
101325
101324
101324
101324
101324
101324
101324
101324
101324
101324
101324
101324
101324
101324
101324
101324
101324
101325
101325
101325
101325
101324
101324
101324
101324
101324
101324
101324
101324
101324
101324
101324
101324
101324
101324
101324
101324
101324
101325
101325
101325
101324
101324
101324
101324
101324
101324
101324
101324
101324
101324
101324
101324
101324
101324
101324
101324
101324
101324
101324
101324
101324
101324
101325
101324
101324
101324
101324
101324
101324
101324
101324
101324
101324
101324
101324
101324
101324
101324
101324
101324
101324
101324
101324
101324
101325
101325
101324
101324
101324
101324
101324
101324
101324
101324
101324
101324
101324
101324
101324
101324
101324
101324
101324
101324
101324
101324
101324
101324
101324
101324
101324
101324
101324
101324
101324
101324
101324
101324
101324
101324
101324
101324
101324
101324
101324
101324
101324
101324
101324
101324
101324
101325
101323
101323
101323
101323
101323
101323
101323
101323
101323
101324
101324
101324
101324
101324
101324
101324
101324
101324
101324
101324
101324
101324
101324
101323
101323
101323
101323
101323
101323
101323
101323
101323
101323
101323
101323
101323
101324
101324
101324
101324
101324
101324
101324
101324
101324
101324
101323
101323
101323
101323
101323
101323
101323
101323
101323
101323
101323
101323
101323
101323
101323
101323
101324
101324
101324
101324
101324
101324
101324
101323
101323
101323
101323
101323
101323
101323
101323
101323
101323
101323
101323
101323
101323
101323
101323
101323
101323
101324
101324
101324
101324
101324
101323
101323
101323
101323
101323
101323
101323
101323
101323
101323
101323
101323
101323
101323
101323
101323
101323
101323
101323
101323
101324
101324
101324
101322
101322
101322
101322
101323
101323
101323
101323
101323
101323
101323
101323
101323
101323
101323
101323
101323
101323
101323
101323
101323
101323
101324
101322
101322
101322
101322
101322
101322
101322
101322
101322
101322
101322
101323
101323
101323
101323
101323
101323
101323
101323
101323
101323
101323
101323
101322
101322
101322
101322
101322
101322
101322
101322
101322
101322
101322
101322
101322
101322
101322
101322
101323
101323
101323
101323
101323
101323
101323
101322
101322
101322
101322
101322
101322
101322
101322
101322
101322
101322
101322
101322
101322
101322
101322
101322
101322
101322
101322
101322
101322
101323
101322
101322
101322
101322
101322
101322
101322
101322
101322
101322
101322
101322
101322
101322
101322
101322
101322
101322
101322
101322
101322
101322
101322
101321
101321
101321
101321
101321
101321
101321
101321
101321
101321
101321
101321
101321
101321
101321
101321
101321
101322
101322
101322
101322
101322
101322
101321
101321
101321
101321
101321
101321
101321
101321
101321
101321
101321
101321
101321
101321
101321
101321
101321
101321
101321
101321
101321
101321
101321
101321
101321
101321
101321
101321
101321
101321
101321
101321
101321
101321
101321
101321
101321
101321
101321
101321
101321
101321
101321
101321
101321
101321
101320
101320
101320
101320
101320
101320
101320
101320
101320
101320
101320
101320
101320
101320
101320
101320
101320
101320
101320
101320
101320
101321
101321
101320
101320
101320
101320
101320
101320
101320
101320
101320
101320
101320
101320
101320
101320
101320
101320
101320
101320
101320
101320
101320
101320
101320
101320
101320
101320
101320
101320
101320
101320
101320
101320
101320
101320
101320
101320
101320
101320
101320
101320
101320
101320
101320
101320
101320
101320
101320
101320
101320
101320
101320
101320
101320
101320
101319
101319
101319
101319
101319
101319
101319
101319
101319
101319
101319
101319
101319
101319
101319
101319
101319
101319
101319
101319
101319
101319
101319
101319
101319
101319
101319
101319
101319
101319
101319
101319
101319
101319
101319
101319
101319
101319
101319
101319
101319
101319
101319
101319
101319
101319
101319
101319
101319
101319
101318
101318
101318
101318
101318
101318
101318
101318
101318
101318
101318
101318
101318
101318
101318
101318
101318
101318
101318
101318
101318
101318
101318
101318
101318
101318
101318
101318
101318
101318
101318
101318
101318
101318
101318
101318
101318
101318
101318
101318
101318
101318
101318
101318
101318
101318
101318
101318
101318
101318
101318
101318
101318
101318
101318
101318
101318
101376
101387
101413
101399
101327
101236
101243
101149
101291
101314
101307
101417
101426
101420
101442
101461
101397
101398
101397
101422
101379
101376
101370
101374
101356
101354
101355
101353
101360
101360
101359
101359
101359
101359
101359
101360
101362
101361
101365
101368
101356
101351
101354
101357
101364
101365
101364
101358
101325
101325
101325
101326
101324
101325
101325
101325
101325
101325
101325
101325
101325
101325
101325
101325
101325
101325
101325
101325
101325
101325
101325
101325
101325
101325
101325
101325
101325
101325
101325
101325
101325
101325
101325
101325
101324
101324
101325
101325
101324
101324
101324
101325
101324
101324
101324
101324
101324
101324
101324
101324
101324
101324
101324
101324
101324
101324
101324
101324
101323
101323
101323
101323
101323
101323
101323
101323
101323
101323
101323
101323
101322
101322
101322
101322
101322
101322
101322
101322
101321
101322
101322
101322
101321
101321
101321
101321
101321
101321
101321
101321
101320
101320
101320
101320
101320
101320
101320
101320
101319
101319
101319
101319
101319
101319
101319
101319
101318
101318
101318
101318
101318
101318
101318
101318
101318
101318
101318
101318
101623
101533
101582
101533
101520
101501
101470
101494
101570
101861
102561
102811
102511
102305
102159
102151
102044
102275
102328
101482
101485
101551
101482
101432
101461
101464
101494
101561
102033
102667
102727
102618
102309
102130
102084
102149
102169
102224
101317
101504
101442
101473
101419
101456
101477
101474
101501
101559
102187
102177
102174
102086
102110
102074
102166
102121
102247
101474
101327
101379
101396
101425
101416
101442
101510
101523
101510
101662
101909
101979
101949
102026
102004
101993
102048
102035
101459
101381
101373
101368
101397
101430
101441
101459
101499
101456
101487
101584
101701
101713
101834
101966
102086
102030
102038
101372
101363
101366
101365
101363
101373
101392
101450
101517
101446
101507
101490
101398
101531
101596
101739
101836
101867
101818
101357
101362
101363
101364
101358
101366
101361
101415
101422
101450
101412
101347
101335
101353
101395
101525
101655
101724
101642
101358
101365
101361
101363
101358
101364
101347
101409
101361
101428
101334
101332
101332
101332
101334
101359
101396
101443
101451
101362
101367
101362
101363
101358
101363
101344
101367
101361
101356
101332
101331
101332
101331
101332
101330
101337
101384
101366
101368
101371
101366
101365
101363
101354
101347
101336
101329
101331
101329
101330
101329
101330
101329
101331
101331
101339
101353
101365
101374
101367
101360
101354
101351
101334
101327
101329
101327
101328
101328
101328
101328
101328
101328
101330
101335
101335
101345
101333
101333
101341
101338
101329
101328
101328
101327
101328
101328
101328
101328
101328
101328
101328
101328
101329
101330
101329
101330
101329
101327
101327
101328
101326
101326
101327
101326
101327
101327
101327
101327
101327
101327
101328
101328
101328
101325
101325
101325
101325
101326
101326
101327
101326
101326
101326
101326
101327
101327
101327
101327
101327
101328
101328
101328
101325
101326
101326
101326
101326
101327
101326
101326
101325
101325
101325
101326
101326
101326
101327
101327
101328
101328
101328
101325
101325
101325
101326
101326
101326
101326
101325
101325
101325
101326
101326
101326
101327
101327
101327
101328
101328
101328
101325
101326
101326
101326
101326
101326
101326
101326
101325
101325
101325
101325
101326
101326
101327
101327
101328
101328
101329
101325
101325
101325
101325
101326
101326
101326
101325
101325
101325
101326
101326
101326
101327
101327
101327
101328
101327
101328
101325
101325
101325
101326
101326
101326
101326
101326
101326
101325
101326
101326
101326
101326
101327
101327
101328
101327
101328
101325
101325
101325
101325
101326
101326
101326
101326
101326
101326
101326
101326
101326
101327
101327
101327
101328
101327
101328
101325
101325
101325
101325
101325
101326
101326
101326
101326
101326
101326
101326
101326
101326
101327
101327
101327
101327
101328
101325
101325
101325
101325
101325
101325
101325
101325
101326
101326
101326
101326
101326
101326
101327
101327
101327
101327
101327
101325
101325
101325
101325
101325
101325
101325
101325
101325
101325
101326
101326
101326
101326
101326
101326
101327
101326
101326
101324
101325
101325
101325
101325
101325
101325
101325
101325
101325
101326
101326
101326
101326
101326
101326
101327
101326
101326
101324
101324
101325
101325
101325
101325
101325
101325
101325
101325
101325
101325
101326
101326
101326
101326
101327
101326
101327
101324
101324
101324
101324
101325
101325
101325
101325
101325
101325
101325
101325
101326
101326
101326
101326
101326
101326
101327
101324
101324
101324
101324
101324
101324
101325
101325
101325
101325
101325
101325
101325
101325
101326
101326
101326
101326
101327
101324
101324
101324
101324
101324
101324
101324
101324
101325
101325
101325
101325
101325
101325
101325
101326
101326
101326
101327
101323
101323
101323
101324
101324
101324
101324
101324
101324
101324
101324
101324
101325
101325
101325
101325
101326
101326
101326
101323
101323
101323
101323
101323
101324
101324
101324
101324
101324
101324
101324
101324
101325
101325
101325
101325
101326
101326
101322
101323
101323
101323
101323
101323
101323
101323
101324
101324
101324
101324
101324
101324
101324
101325
101325
101325
101325
101322
101322
101322
101322
101323
101323
101323
101323
101323
101323
101323
101323
101324
101324
101324
101324
101324
101325
101325
101322
101322
101322
101322
101322
101322
101322
101323
101323
101323
101323
101323
101323
101323
101323
101324
101324
101324
101324
101321
101321
101321
101322
101322
101322
101322
101322
101322
101322
101322
101322
101322
101322
101323
101323
101323
101323
101324
101321
101321
101321
101321
101321
101321
101321
101322
101322
101322
101322
101322
101322
101322
101322
101322
101322
101323
101323
101320
101320
101320
101321
101321
101321
101321
101321
101321
101321
101321
101321
101321
101321
101321
101321
101322
101322
101322
101320
101320
101320
101320
101320
101320
101320
101320
101320
101320
101320
101320
101320
101320
101320
101320
101321
101321
101321
101319
101319
101320
101320
101320
101320
101320
101320
101320
101320
101320
101319
101319
101319
101319
101320
101320
101320
101321
101319
101319
101319
101319
101319
101319
101319
101319
101319
101319
101319
101318
101318
101318
101318
101319
101319
101319
101320
101319
101319
101319
101319
101319
101319
101319
101319
101319
101318
101318
101318
101317
101317
101318
101318
101319
101319
101319
101318
101318
101318
101318
101318
101319
101319
101318
101318
101318
101318
101317
101317
101317
101317
101318
101318
101318
101318
101318
101317
101317
101317
101317
101317
101317
101317
101317
101317
101317
101317
101317
101317
101317
101318
101318
101318
101318
)
;

boundaryField
{
    leftWall
    {
        type            zeroGradient;
    }
    rightWall
    {
        type            zeroGradient;
    }
    lowerWall
    {
        type            zeroGradient;
    }
    atmosphere
    {
        type            fixedValue;
        value           uniform 101325;
    }
    defaultFaces
    {
        type            empty;
    }
}


// ************************************************************************* //
