/*--------------------------------*- C++ -*----------------------------------*\
| =========                 |                                                 |
| \\      /  F ield         | OpenFOAM: The Open Source CFD Toolbox           |
|  \\    /   O peration     | Version:  2012                                  |
|   \\  /    A nd           | Website:  www.openfoam.com                      |
|    \\/     M anipulation  |                                                 |
\*---------------------------------------------------------------------------*/
FoamFile
{
    version     2.0;
    format      ascii;
    class       surfaceScalarField;
    location    "0.78";
    object      phi;
}
// * * * * * * * * * * * * * * * * * * * * * * * * * * * * * * * * * * * * * //

dimensions      [0 3 -1 0 0 0 0];
oriented        oriented;


internalField   nonuniform List<scalar> 
4432
(
-2.96089e-06
2.96089e-06
-5.7632e-06
2.80231e-06
-8.59238e-06
2.82918e-06
-1.14037e-05
2.81129e-06
-1.39351e-05
2.53142e-06
-1.61035e-05
2.16839e-06
-1.80727e-05
1.9692e-06
-1.98052e-05
1.73255e-06
-2.11359e-05
1.33063e-06
-2.21044e-05
9.68498e-07
-2.265e-05
5.45631e-07
-2.26569e-05
6.92311e-09
-2.21738e-05
-4.83169e-07
-2.11465e-05
-1.02723e-06
-1.96677e-05
-1.47881e-06
-1.77248e-05
-1.94295e-06
-1.51747e-05
-2.55006e-06
-1.21444e-05
-3.03034e-06
-8.57005e-06
-3.57433e-06
-4.81801e-06
-3.75204e-06
-1.86045e-06
-2.95756e-06
1.55343e-06
-3.41388e-06
1.55342e-06
-2.98537e-06
5.94626e-06
-5.79952e-06
5.61646e-06
-8.62218e-06
5.65184e-06
-1.14148e-05
5.60394e-06
-1.39469e-05
5.06353e-06
-1.61431e-05
4.36458e-06
-1.81372e-05
3.96325e-06
-1.98682e-05
3.46358e-06
-2.11947e-05
2.65706e-06
-2.21808e-05
1.95464e-06
-2.27473e-05
1.11211e-06
-2.27593e-05
1.89704e-08
-2.22726e-05
-9.69875e-07
-2.12486e-05
-2.05122e-06
-1.97606e-05
-2.96684e-06
-1.78094e-05
-3.89413e-06
-1.52717e-05
-5.0878e-06
-1.22507e-05
-6.05134e-06
-8.73746e-06
-7.08758e-06
-5.0889e-06
-7.4006e-06
-2.13938e-06
-5.90709e-06
8.05013e-07
-6.35827e-06
2.35843e-06
-3.03504e-06
8.9813e-06
-5.85773e-06
8.43914e-06
-8.674e-06
8.46811e-06
-1.1473e-05
8.40292e-06
-1.40655e-05
7.65601e-06
-1.6333e-05
6.63216e-06
-1.83591e-05
5.98935e-06
-2.00886e-05
5.19306e-06
-2.14165e-05
3.98494e-06
-2.23907e-05
2.92886e-06
-2.29325e-05
1.65388e-06
-2.29732e-05
5.96326e-08
-2.25239e-05
-1.41918e-06
-2.15175e-05
-3.05756e-06
-1.99945e-05
-4.48989e-06
-1.79578e-05
-5.93083e-06
-1.53145e-05
-7.73105e-06
-1.21382e-05
-9.22767e-06
-8.45765e-06
-1.07681e-05
-4.37972e-06
-1.14785e-05
-7.08833e-07
-9.57798e-06
2.43938e-06
-9.50648e-06
4.7978e-06
-3.07133e-06
1.20526e-05
-5.91684e-06
1.12847e-05
-8.75346e-06
1.13047e-05
-1.15236e-05
1.11731e-05
-1.41096e-05
1.0242e-05
-1.64258e-05
8.94836e-06
-1.8499e-05
8.0625e-06
-2.02529e-05
6.94701e-06
-2.16203e-05
5.3523e-06
-2.26638e-05
3.9724e-06
-2.32828e-05
2.27281e-06
-2.33666e-05
1.43472e-07
-2.28846e-05
-1.90118e-06
-2.18425e-05
-4.09968e-06
-2.03149e-05
-6.01744e-06
-1.83538e-05
-7.892e-06
-1.58143e-05
-1.02705e-05
-1.26656e-05
-1.23764e-05
-8.91445e-06
-1.45193e-05
-4.53221e-06
-1.58608e-05
-2.49502e-07
-1.38607e-05
2.96127e-06
-1.27172e-05
7.75906e-06
-3.1085e-06
1.51611e-05
-6.01878e-06
1.41949e-05
-8.90158e-06
1.41875e-05
-1.17105e-05
1.3982e-05
-1.4382e-05
1.29135e-05
-1.68161e-05
1.13825e-05
-1.89431e-05
1.01895e-05
-2.06816e-05
8.68558e-06
-2.20273e-05
6.69792e-06
-2.30473e-05
4.99244e-06
-2.36387e-05
2.86417e-06
-2.37998e-05
3.04571e-07
-2.34049e-05
-2.29608e-06
-2.23862e-05
-5.11831e-06
-2.08105e-05
-7.59317e-06
-1.87278e-05
-9.97474e-06
-1.60405e-05
-1.29578e-05
-1.26427e-05
-1.57742e-05
-8.57052e-06
-1.85914e-05
-3.44455e-06
-2.09867e-05
2.26963e-06
-1.95749e-05
5.93435e-06
-1.6382e-05
1.36934e-05
-3.12506e-06
1.82862e-05
-6.15707e-06
1.72269e-05
-9.06749e-06
1.7098e-05
-1.18276e-05
1.67421e-05
-1.44541e-05
1.554e-05
-1.69294e-05
1.38577e-05
-1.91266e-05
1.23867e-05
-2.09424e-05
1.05014e-05
-2.24184e-05
8.17388e-06
-2.35747e-05
6.14872e-06
-2.42896e-05
3.57914e-06
-2.44709e-05
4.85812e-07
-2.39577e-05
-2.80931e-06
-2.28631e-05
-6.21284e-06
-2.13001e-05
-9.15618e-06
-1.93817e-05
-1.18932e-05
-1.68874e-05
-1.54522e-05
-1.36478e-05
-1.90137e-05
-9.45486e-06
-2.27844e-05
-3.69926e-06
-2.67423e-05
3.18486e-06
-2.6459e-05
7.24152e-06
-2.04386e-05
2.09349e-05
-3.11809e-06
2.14043e-05
-6.31822e-06
2.04271e-05
-9.33499e-06
2.01147e-05
-1.21582e-05
1.95653e-05
-1.48944e-05
1.82763e-05
-1.75131e-05
1.64764e-05
-1.97352e-05
1.46088e-05
-2.149e-05
1.22563e-05
-2.29129e-05
9.59677e-06
-2.40465e-05
7.28234e-06
-2.47667e-05
4.29925e-06
-2.5122e-05
8.41154e-07
-2.48093e-05
-3.12206e-06
-2.37915e-05
-7.23059e-06
-2.21901e-05
-1.07576e-05
-2.01222e-05
-1.39611e-05
-1.74139e-05
-1.81605e-05
-1.39077e-05
-2.25199e-05
-9.40321e-06
-2.72889e-05
-2.86289e-06
-3.32827e-05
4.95022e-06
-3.42721e-05
9.3592e-06
-2.48476e-05
3.02941e-05
-3.10045e-06
2.45047e-05
-6.40818e-06
2.37348e-05
-9.48488e-06
2.31914e-05
-1.22799e-05
2.23603e-05
-1.50651e-05
2.10615e-05
-1.79107e-05
1.93219e-05
-2.03377e-05
1.70358e-05
-2.21957e-05
1.41142e-05
-2.36863e-05
1.10874e-05
-2.48906e-05
8.4867e-06
-2.57599e-05
5.16851e-06
-2.60514e-05
1.1327e-06
-2.54619e-05
-3.71156e-06
-2.43045e-05
-8.38797e-06
-2.27441e-05
-1.2318e-05
-2.08576e-05
-1.58477e-05
-1.83834e-05
-2.06347e-05
-1.5412e-05
-2.54912e-05
-1.16081e-05
-3.10929e-05
-5.83272e-06
-3.9058e-05
2.50801e-06
-4.26129e-05
7.115e-06
-2.94547e-05
3.74091e-05
-6.88404e-05
6.88121e-05
-0.000108167
3.92819e-05
-0.000129063
2.08738e-05
-0.000131284
2.22173e-06
-0.000120364
-1.0889e-05
-0.000110948
-9.41116e-06
-0.000118227
7.2696e-06
-0.000132888
1.46763e-05
-0.000143322
1.04086e-05
-0.000151935
8.606e-06
-0.00015994
7.99531e-06
-0.000166674
6.72326e-06
-0.000171058
4.38483e-06
-0.000173086
2.02683e-06
-0.000170542
-2.5403e-06
-0.000155456
-1.50211e-05
-0.000113872
-4.14487e-05
-5.76607e-05
-5.6193e-05
-5.76539e-05
-5.74319e-05
0.000126222
-9.26239e-05
7.44384e-05
-0.000109951
3.81876e-05
-0.000108591
8.58314e-07
-9.71807e-05
-2.22514e-05
-9.21953e-05
-1.43849e-05
-0.000101827
1.68892e-05
-0.000114532
2.73923e-05
-0.000123462
1.93209e-05
-0.000131575
1.671e-05
-0.000138822
1.52237e-05
-0.000144561
1.24166e-05
-0.000149885
9.69972e-06
-0.000154684
6.82787e-06
-0.000152084
-5.15409e-06
-0.00012681
-4.01819e-05
-8.27143e-05
-8.54857e-05
-4.45853e-05
-9.43329e-05
-0.000102243
-4.98756e-05
0.000176113
-7.84284e-05
0.000102971
-9.40904e-05
5.38433e-05
-8.3484e-05
-9.76098e-06
-5.92557e-05
-4.64482e-05
-4.8481e-05
-2.51556e-05
-6.73348e-05
3.56758e-05
-9.78904e-05
5.80446e-05
-0.000117275
3.86529e-05
-0.000128627
2.80049e-05
-0.000138259
2.47895e-05
-0.000159103
3.32009e-05
-0.000186237
3.68365e-05
-0.000200902
2.14706e-05
-0.000163855
-4.22247e-05
-9.54812e-05
-0.000108315
-4.81054e-05
-0.000132557
-2.391e-05
-0.000118526
-0.000126153
-3.59998e-05
0.00021212
-6.25468e-05
0.000129485
-7.83629e-05
6.96334e-05
-6.19042e-05
-2.62525e-05
-3.31411e-05
-7.51852e-05
-1.13692e-05
-4.69278e-05
-1.13113e-05
3.56011e-05
-4.84676e-05
9.52218e-05
-0.000100078
9.02624e-05
-0.00013668
6.45922e-05
-0.000160803
4.89044e-05
-0.000185676
5.80412e-05
-0.000160402
1.15811e-05
-6.97652e-05
-6.91306e-05
-1.73369e-05
-9.47328e-05
-1.08793e-05
-0.000114782
-6.51567e-06
-0.000137143
-5.84806e-06
-0.000119276
-0.000132003
-2.49957e-05
0.000237128
-3.77723e-05
0.000142241
-6.74981e-05
9.93239e-05
-4.16087e-05
-5.22101e-05
-9.09038e-06
-0.000107805
5.65539e-06
-6.16772e-05
2.04912e-05
2.07651e-05
3.10739e-05
8.46844e-05
1.21041e-05
0.000109094
-3.75859e-05
0.000114235
-6.59732e-05
7.72528e-05
-1.12858e-05
3.30758e-06
5.76844e-05
-5.73959e-05
6.90883e-05
-8.05579e-05
6.91713e-05
-9.48342e-05
5.68504e-05
-0.000102384
3.48241e-05
-0.000115114
1.15102e-05
-9.59668e-05
-0.000120493
-1.44387e-05
0.000251569
1.05539e-06
0.000126695
-2.34044e-05
0.000123721
-1.80188e-05
-5.7692e-05
1.12622e-05
-0.000137138
2.16459e-05
-7.20732e-05
3.13123e-05
1.10984e-05
3.90771e-05
7.69188e-05
4.60677e-05
0.000102076
5.14841e-05
0.000108705
5.82166e-05
7.04619e-05
6.5243e-05
-3.76804e-06
7.10894e-05
-6.31769e-05
7.55744e-05
-8.50112e-05
7.69404e-05
-9.62131e-05
7.00566e-05
-9.55062e-05
5.15179e-05
-9.65778e-05
2.24092e-05
-6.68607e-05
-9.80853e-05
-1.10633e-05
0.000262631
2.9037e-06
0.000112622
1.90523e-05
0.000107501
3.15196e-05
-7.02443e-05
3.035e-05
-0.000135991
3.49108e-05
-7.66958e-05
4.13309e-05
4.66976e-06
4.43923e-05
7.38575e-05
4.51378e-05
0.00010133
4.81052e-05
0.000105727
5.35512e-05
6.49483e-05
5.96472e-05
-9.86472e-06
6.55901e-05
-6.91148e-05
7.30444e-05
-9.24629e-05
7.83244e-05
-0.000101494
7.34185e-05
-9.06014e-05
5.49362e-05
-7.80961e-05
2.30723e-05
-3.49976e-05
-7.5014e-05
-5.5221e-06
0.000268148
-1.16336e-05
0.000118663
1.54038e-05
8.03962e-05
4.26992e-05
-9.76023e-05
3.87885e-05
-0.000132159
4.50134e-05
-8.30725e-05
4.87639e-05
8.74853e-07
4.51018e-05
7.74582e-05
4.04954e-05
0.000105935
3.94663e-05
0.000106754
4.28264e-05
6.15859e-05
4.9584e-05
-1.66224e-05
5.92981e-05
-7.88367e-05
7.14733e-05
-0.000104616
7.59243e-05
-0.000105951
6.64735e-05
-8.1196e-05
4.50644e-05
-5.6748e-05
1.7167e-05
-7.10474e-06
-5.78827e-05
-6.75323e-06
3.12643e-05
-1.39264e-05
3.09125e-05
-2.04677e-05
2.9735e-05
-2.6273e-05
2.81662e-05
-3.17975e-05
2.65858e-05
-3.74177e-05
2.49421e-05
-4.24252e-05
2.20434e-05
-4.66605e-05
1.83494e-05
-5.04601e-05
1.4887e-05
-5.39066e-05
1.19332e-05
-5.66448e-05
7.90666e-06
-5.83446e-05
2.83254e-06
-5.79204e-05
-4.13574e-06
-5.57696e-05
-1.05388e-05
-5.23492e-05
-1.57383e-05
-4.79633e-05
-2.02336e-05
-4.24355e-05
-2.61624e-05
-3.65398e-05
-3.1387e-05
-2.96671e-05
-3.79656e-05
-1.76927e-05
-5.10324e-05
3.04584e-06
-6.33531e-05
3.2201e-05
-5.8647e-05
-3.68549e-06
7.32907e-05
-9.21833e-06
4.06254e-05
-1.81894e-05
4.00277e-05
-2.60372e-05
3.77249e-05
-3.28982e-05
3.51592e-05
-3.91363e-05
3.29386e-05
-4.4812e-05
3.06995e-05
-4.91909e-05
2.645e-05
-5.24544e-05
2.1618e-05
-5.47355e-05
1.71624e-05
-5.66202e-05
1.38158e-05
-5.79148e-05
9.19692e-06
-5.7517e-05
2.43381e-06
-5.66654e-05
-4.98742e-06
-5.51797e-05
-1.20246e-05
-5.22443e-05
-1.86739e-05
-4.90928e-05
-2.33853e-05
-4.58908e-05
-2.93646e-05
-4.32425e-05
-3.40355e-05
-3.97908e-05
-4.14173e-05
-3.53133e-05
-5.551e-05
-2.58648e-05
-7.2808e-05
-1.23193e-05
-7.21954e-05
-1.96879e-05
3.67679e-06
-1.04564e-05
5.11302e-05
-2.13085e-05
5.09336e-05
-3.17104e-05
4.81909e-05
-4.13345e-05
4.48596e-05
-5.0522e-05
4.22221e-05
-5.87774e-05
3.90793e-05
-6.47075e-05
3.25539e-05
-6.9013e-05
2.60815e-05
-7.27034e-05
2.09439e-05
-7.66273e-05
1.77923e-05
-8.25121e-05
1.50647e-05
-8.99252e-05
9.78071e-06
-8.72839e-05
-7.8423e-06
-7.47455e-05
-2.45589e-05
-6.13361e-05
-3.21178e-05
-5.25152e-05
-3.21739e-05
-4.89506e-05
-3.29369e-05
-4.87606e-05
-3.42106e-05
-5.22948e-05
-3.78841e-05
-6.18329e-05
-4.59719e-05
-7.62154e-05
-5.84645e-05
-9.32797e-05
-5.50343e-05
-5.34597e-07
-0.000112384
-1.32415e-05
6.43986e-05
-2.70882e-05
6.48072e-05
-4.19054e-05
6.30354e-05
-5.67404e-05
5.97215e-05
-7.19565e-05
5.74677e-05
-8.85616e-05
5.57197e-05
-0.000115691
5.97373e-05
-0.000160759
7.12339e-05
-0.000225335
8.5608e-05
-0.00030907
0.000101786
-0.000355507
6.16609e-05
-0.000331402
-1.44693e-05
-0.000284047
-5.50062e-05
-0.000236562
-7.19397e-05
-0.000191663
-7.66308e-05
-0.00015367
-6.99658e-05
-0.000123554
-6.29772e-05
-0.00010339
-5.43809e-05
-9.39119e-05
-4.73699e-05
-9.46365e-05
-4.52496e-05
-0.000107799
-4.53274e-05
-0.000126379
-3.65439e-05
1.53532e-06
-0.000128293
-2.2748e-05
8.71736e-05
-4.58372e-05
8.7923e-05
-7.16786e-05
8.8904e-05
-0.000102968
9.10364e-05
-0.000143938
9.84661e-05
-0.000200157
0.000111963
-0.00027999
0.000139608
-0.000366606
0.000157929
-0.000448698
0.000167734
-0.000504416
0.00015768
-0.000459215
1.67751e-05
-0.000391468
-8.09077e-05
-0.000341044
-0.000105083
-0.000300391
-0.000112286
-0.000263778
-0.000113343
-0.000231006
-0.00010293
-0.000203418
-9.08288e-05
-0.000177144
-8.08586e-05
-0.000150493
-7.41706e-05
-0.000126378
-6.95098e-05
-0.000108309
-6.35254e-05
-9.77136e-05
-4.72263e-05
-9.33225e-06
-8.70213e-05
-1.97333e-05
0.000106934
-4.03653e-05
0.000108582
-6.39689e-05
0.000112534
-9.40056e-05
0.000121099
-0.000135372
0.00013986
-0.000191699
0.000168317
-0.000270166
0.000218107
-0.000358387
0.000246196
-0.000440535
0.000249934
-0.00043593
0.000153127
-0.000371111
-4.7471e-05
-0.00034898
-0.00010188
-0.000337097
-0.000117051
-0.000327308
-0.000122269
-0.000318095
-0.000123762
-0.000333318
-8.79355e-05
-0.00034745
-7.67719e-05
-0.000336617
-9.17643e-05
-0.000279565
-0.000131225
-0.000196425
-0.000152624
-0.000140844
-0.000119083
-0.000101441
-8.6677e-05
-3.85659e-05
-7.22913e-05
-1.85654e-05
0.000125526
-3.78502e-05
0.000127894
-5.8745e-05
0.000133457
-8.18098e-05
0.000144191
-0.000107115
0.000165194
-0.000135456
0.000196687
-0.000173721
0.000256403
-0.000236035
0.000308541
-0.000298173
0.000312097
-0.000332542
0.000187529
-0.000352296
-2.76459e-05
-0.000350161
-0.000103597
-0.000343856
-0.000123138
-0.000340842
-0.000126105
-0.000357091
-0.00010809
-0.000368564
-7.6328e-05
-0.000373963
-7.12705e-05
-0.000394935
-7.0721e-05
-0.000428055
-9.80772e-05
-0.000444518
-0.000136175
-0.000402861
-0.000160763
-0.00032133
-0.000168232
-0.000165192
-0.000194726
-1.64092e-05
0.000141963
-3.33613e-05
0.000144873
-5.14334e-05
0.000151556
-7.02305e-05
0.000163015
-8.84993e-05
0.00018349
-0.000103216
0.000211431
-0.000113817
0.000267035
-0.000128368
0.000323125
-0.000151005
0.00033476
-0.000205424
0.000241977
-0.000269164
3.61212e-05
-0.000299325
-7.34045e-05
-0.000298047
-0.000124391
-0.000302606
-0.000121525
-0.000322705
-8.75197e-05
-0.000317168
-8.12984e-05
-0.000309856
-7.84239e-05
-0.000304877
-7.57639e-05
-0.000330165
-7.27316e-05
-0.000404377
-6.19225e-05
-0.000465502
-9.9652e-05
-0.000507434
-0.000126314
-0.000189181
-0.000483453
-1.19607e-05
0.000153951
-2.43439e-05
0.000157283
-3.72515e-05
0.000164491
-5.02396e-05
0.000176031
-6.12728e-05
0.000194551
-6.78816e-05
0.000218068
-5.85854e-05
0.000257768
-4.23304e-05
0.0003069
-3.61971e-05
0.000328655
-7.68386e-05
0.000282647
-0.000181301
0.000140604
-0.000267384
1.2707e-05
-0.000306247
-8.55023e-05
-0.000307625
-0.000120118
-0.000293094
-0.00010169
-0.000284106
-8.88289e-05
-0.000278177
-8.45977e-05
-0.000272975
-8.10261e-05
-0.000271649
-7.46609e-05
-0.00027307
-6.08237e-05
-0.00032513
-4.74945e-05
-0.00042236
-2.90897e-05
-5.84112e-05
-0.000553136
-8.88705e-06
0.000162865
-1.75626e-05
0.000165986
-2.55689e-05
0.000172524
-3.24199e-05
0.000182909
-3.65496e-05
0.000198708
-3.68793e-05
0.000218425
-2.43448e-05
0.000245261
1.82634e-06
0.000280757
3.33725e-05
0.000297136
4.22803e-05
0.000273766
-2.75105e-06
0.00018566
-8.08636e-05
9.08452e-05
-0.000161029
-5.31137e-06
-0.000216565
-6.45552e-05
-0.000251896
-6.63247e-05
-0.00026363
-7.69405e-05
-0.000253369
-9.39424e-05
-0.000246932
-8.7245e-05
-0.000245979
-7.58273e-05
-0.000250849
-5.62985e-05
-0.000254924
-4.42496e-05
-0.000255281
-2.84826e-05
-3.98297e-06
-0.000309541
-5.33856e-06
0.00016823
-1.02234e-05
0.000170898
-1.3919e-05
0.000176247
-1.56448e-05
0.000184662
-1.34541e-05
0.000196544
-6.45905e-06
0.000211457
1.0234e-05
0.000228595
4.00318e-05
0.000250988
7.6745e-05
0.000260451
0.000105612
0.000244926
0.000105508
0.000185788
7.98042e-05
0.000116574
2.94876e-05
4.50289e-05
-3.13325e-05
-3.71217e-06
-8.26543e-05
-1.49789e-05
-0.00012436
-3.52128e-05
-0.00017723
-4.10505e-05
-0.000229931
-3.45417e-05
-0.000245774
-5.94659e-05
-0.000230656
-7.03104e-05
-0.00022204
-5.30827e-05
-0.000219318
-3.15513e-05
-1.95094e-05
-0.000205071
-2.65033e-06
0.000170907
-4.67135e-06
0.000172945
-5.42813e-06
0.00017703
-4.22375e-06
0.000183484
5.3437e-07
0.000191812
9.76895e-06
0.000202249
2.63064e-05
0.000212084
5.36205e-05
0.0002237
8.84748e-05
0.000225623
0.000119142
0.000214286
0.000131072
0.000173883
0.000124925
0.000122745
0.000101471
6.85067e-05
7.22462e-05
2.55354e-05
4.95188e-05
7.77205e-06
1.4681e-05
-3.53359e-07
-3.9921e-05
1.35727e-05
-9.90556e-05
2.46138e-05
-0.000152133
-6.3608e-06
-0.000197868
-2.4562e-05
-0.000215807
-3.51236e-05
-0.00020268
-4.44116e-05
-3.90251e-05
-0.000181439
-5.06751e-07
0.00017144
-3.72906e-07
0.000172837
1.12087e-06
0.000175562
4.70777e-06
0.000179923
1.15047e-05
0.000185042
2.24601e-05
0.00019132
3.87066e-05
0.000195863
6.18217e-05
0.000200611
8.98699e-05
0.0001976
0.000117
0.000187182
0.000131614
0.000159294
0.000131195
0.000123188
0.000115949
8.37758e-05
9.10366e-05
5.04711e-05
6.60741e-05
3.27571e-05
4.53731e-05
2.03692e-05
4.0175e-05
1.87916e-05
3.73787e-05
2.74296e-05
4.95924e-07
3.05417e-05
-6.13926e-05
3.73435e-05
-0.000114838
1.83406e-05
-0.000146827
-1.24048e-05
-2.11661e-05
-0.000164669
1.15057e-06
0.000170315
2.66783e-06
0.000171346
5.10248e-06
0.000173153
9.26751e-06
0.000175783
1.59229e-05
0.000178412
2.58678e-05
0.0001814
3.95531e-05
0.000182203
5.78113e-05
0.000182378
7.91845e-05
0.000176252
0.000100649
0.000165742
0.000115363
0.000144605
0.000119929
0.000118646
0.000114005
8.97229e-05
0.000100973
6.35255e-05
8.69878e-05
4.67645e-05
7.10594e-05
3.6319e-05
5.75107e-05
3.23609e-05
5.22591e-05
3.27013e-05
5.72837e-05
2.55371e-05
6.70941e-05
2.75518e-05
6.33451e-05
2.21077e-05
4.57315e-05
5.22529e-06
-3.51616e-06
2.8099e-05
1.84651e-06
0.000168493
4.19353e-06
0.000169024
7.55261e-06
0.000169819
1.2402e-05
0.000170959
1.91584e-05
0.00017168
2.82534e-05
0.00017233
3.97377e-05
0.000170744
5.3847e-05
0.000168293
6.92686e-05
0.000160854
8.43385e-05
0.000150696
9.56369e-05
0.00013333
0.00010083
0.000113476
9.84544e-05
9.21214e-05
9.01549e-05
7.18472e-05
8.04933e-05
5.64479e-05
7.13195e-05
4.5514e-05
6.60458e-05
3.76551e-05
6.45042e-05
3.42628e-05
6.11414e-05
2.89194e-05
6.25712e-05
2.61404e-05
6.67937e-05
1.79034e-05
6.84852e-05
3.55059e-06
-5.83208e-06
7.0818e-05
2.19533e-06
0.000166322
4.76692e-06
0.000166476
8.03686e-06
0.000166574
1.24209e-05
0.000166599
1.81838e-05
0.000165941
2.5636e-05
0.000164902
3.46363e-05
0.000161767
4.52078e-05
0.000157746
5.63829e-05
0.000149703
6.70883e-05
0.000140014
7.49922e-05
0.000125449
7.93634e-05
0.000109127
7.98681e-05
9.16388e-05
7.65409e-05
7.51961e-05
7.17085e-05
6.13016e-05
6.66665e-05
5.05768e-05
6.31078e-05
4.1234e-05
6.25899e-05
3.48006e-05
6.47967e-05
2.67316e-05
6.98468e-05
2.1109e-05
7.34942e-05
1.42737e-05
7.24945e-05
4.56747e-06
-3.21358e-06
6.98926e-05
2.4876e-06
0.000163858
5.2933e-06
0.000163694
8.61426e-06
0.000163276
1.27488e-05
0.000162488
1.78302e-05
0.000160883
2.40397e-05
0.000158716
3.12332e-05
0.000154597
3.92937e-05
0.000149708
4.74161e-05
0.000141603
5.5036e-05
0.000132417
6.07164e-05
0.000119791
6.37569e-05
0.000106109
6.40476e-05
9.13698e-05
6.21206e-05
7.71446e-05
5.95441e-05
6.3899e-05
5.74216e-05
5.27198e-05
5.59748e-05
4.27007e-05
5.61245e-05
3.46704e-05
5.66066e-05
2.62684e-05
5.89144e-05
1.88194e-05
6.28524e-05
1.03533e-05
6.67184e-05
7.18291e-07
-6.48019e-06
7.00014e-05
2.05363e-06
0.000161828
4.3831e-06
0.000161388
7.14471e-06
0.000160538
1.05346e-05
0.000159121
1.46074e-05
0.000156834
1.93889e-05
0.000153957
2.47433e-05
0.000149265
3.057e-05
0.000143904
3.63175e-05
0.000135878
4.17241e-05
0.000127032
4.59439e-05
0.000115593
4.85925e-05
0.000103482
4.97065e-05
9.02769e-05
4.93913e-05
7.74806e-05
4.83098e-05
6.50009e-05
4.72571e-05
5.37925e-05
4.67928e-05
4.31845e-05
4.75269e-05
3.39555e-05
4.93113e-05
2.45026e-05
5.18994e-05
1.62496e-05
5.45077e-05
7.76237e-06
5.67092e-05
-1.46606e-06
-9.0853e-06
5.93307e-05
1.82015e-06
0.00016003
3.78285e-06
0.000159448
6.0034e-06
0.00015834
8.64256e-06
0.000156505
1.17536e-05
0.000153745
1.53837e-05
0.000150349
1.94177e-05
0.000145253
2.36921e-05
0.000139652
2.78457e-05
0.000131746
3.16435e-05
0.000123256
3.45833e-05
0.000112675
3.64172e-05
0.000101669
3.71642e-05
8.95506e-05
3.7095e-05
7.75702e-05
3.66152e-05
6.55007e-05
3.6336e-05
5.40913e-05
3.64591e-05
4.30805e-05
3.74768e-05
3.29566e-05
3.92751e-05
2.27225e-05
4.21321e-05
1.34104e-05
4.56036e-05
4.30802e-06
4.93879e-05
-5.23374e-06
-1.40047e-05
5.43234e-05
1.22235e-06
0.00015883
2.56002e-06
0.000158132
4.05278e-06
0.000156869
5.80482e-06
0.000154774
7.84923e-06
0.000151722
1.02538e-05
0.000147966
1.29128e-05
0.000142616
1.56918e-05
0.000136894
1.8391e-05
0.000129068
2.07867e-05
0.000120881
2.26944e-05
0.000110787
2.40396e-05
0.000100344
2.47756e-05
8.88347e-05
2.51192e-05
7.72464e-05
2.5173e-05
6.54664e-05
2.53244e-05
5.3959e-05
2.59011e-05
4.25226e-05
2.71036e-05
3.17725e-05
2.91856e-05
2.06585e-05
3.23085e-05
1.03051e-05
3.59539e-05
6.79704e-07
3.98711e-05
-9.13426e-06
-1.86142e-05
4.44967e-05
5.17699e-07
0.000158333
1.17254e-06
0.000157498
1.94493e-06
0.000156118
2.9001e-06
0.00015384
4.0323e-06
0.000150611
5.39803e-06
0.000146621
6.89358e-06
0.000141141
8.4669e-06
0.000135341
9.98744e-06
0.000127568
1.12735e-05
0.000119615
1.23012e-05
0.00010978
1.29642e-05
9.97012e-05
1.32685e-05
8.85499e-05
1.34186e-05
7.71155e-05
1.35576e-05
6.53464e-05
1.40051e-05
5.35301e-05
1.49771e-05
4.15688e-05
1.66456e-05
3.01219e-05
1.90846e-05
1.8237e-05
2.26552e-05
6.75149e-06
2.7214e-05
-3.8624e-06
3.26638e-05
-1.45679e-05
-2.5016e-05
3.90814e-05
-1.9094e-07
0.000158545
-3.30598e-07
0.000157658
-3.91441e-07
0.000156199
-3.24943e-07
0.000153794
-1.62111e-07
0.000150468
1.26267e-07
0.000146353
4.44099e-07
0.000140843
8.53944e-07
0.000134951
1.24915e-06
0.000127193
1.56293e-06
0.000119321
1.77762e-06
0.000109584
1.83956e-06
9.96585e-05
1.81987e-06
8.85886e-05
1.76782e-06
7.71863e-05
1.8336e-06
6.52991e-05
2.22185e-06
5.31601e-05
3.17077e-06
4.06378e-05
4.8276e-06
2.84826e-05
7.34025e-06
1.57415e-05
1.09417e-05
3.16686e-06
1.55801e-05
-8.48433e-06
2.15354e-05
-2.0507e-05
-3.19584e-05
2.84936e-05
-9.89067e-07
0.000159553
-1.9761e-06
0.000158665
-2.90545e-06
0.000157148
-3.7412e-06
0.000154649
-4.5045e-06
0.000151251
-5.19927e-06
0.000147067
-5.91352e-06
0.000141577
-6.54089e-06
0.000135598
-7.18625e-06
0.000127857
-7.80802e-06
0.000119962
-8.4956e-06
0.000110291
-9.21791e-06
0.000100399
-9.89279e-06
8.92818e-05
-1.04952e-05
7.78068e-05
-1.06756e-05
6.54973e-05
-1.0445e-05
5.29471e-05
-9.53174e-06
3.97418e-05
-7.76637e-06
2.67343e-05
-5.11496e-06
1.31068e-05
-1.43869e-06
-4.93115e-07
3.36913e-06
-1.32761e-05
9.75238e-06
-2.68747e-05
-3.94993e-05
1.73084e-05
-1.86135e-06
0.000161434
-3.72897e-06
0.000160551
-5.56913e-06
0.000159007
-7.37537e-06
0.000156474
-9.14362e-06
0.000153038
-1.08451e-05
0.000148788
-1.25601e-05
0.00014331
-1.41698e-05
0.000137226
-1.58179e-05
0.000129523
-1.73576e-05
0.00012152
-1.89439e-05
0.000111895
-2.04414e-05
0.000101915
-2.17879e-05
9.0646e-05
-2.29868e-05
7.90233e-05
-2.38161e-05
6.63439e-05
-2.42893e-05
5.34374e-05
-2.40792e-05
3.95486e-05
-2.31354e-05
2.58071e-05
-2.13094e-05
1.12971e-05
-1.85397e-05
-3.24686e-06
-1.44426e-05
-1.73577e-05
-8.77877e-06
-3.25233e-05
-4.59621e-05
-2.30105e-06
-2.84377e-06
0.000164295
-5.68932e-06
0.000163415
-8.4801e-06
0.000161815
-1.12498e-05
0.000159262
-1.40026e-05
0.000155809
-1.67095e-05
0.000151512
-1.94541e-05
0.000146073
-2.21273e-05
0.000139917
-2.48867e-05
0.000132301
-2.75422e-05
0.000124193
-3.023e-05
0.0001146
-3.28405e-05
0.000104542
-3.53202e-05
9.31428e-05
-3.75574e-05
8.12773e-05
-3.93713e-05
6.81746e-05
-4.08617e-05
5.49444e-05
-4.17802e-05
4.04832e-05
-4.19801e-05
2.60229e-05
-4.11936e-05
1.05261e-05
-3.94072e-05
-5.01791e-06
-3.65183e-05
-2.02316e-05
-3.27043e-05
-3.63225e-05
-5.04278e-05
-2.82241e-05
-3.88286e-06
0.000168195
-7.79143e-06
0.000167341
-1.16451e-05
0.000165686
-1.54978e-05
0.000163132
-1.93299e-05
0.000159658
-2.31044e-05
0.000155304
-2.6894e-05
0.000149879
-3.06137e-05
0.000143653
-3.44259e-05
0.00013613
-3.81595e-05
0.000127943
-4.19191e-05
0.000118376
-4.55863e-05
0.000108226
-4.92155e-05
9.67884e-05
-5.27585e-05
8.48367e-05
-5.61991e-05
7.16312e-05
-5.92387e-05
5.79996e-05
-6.18385e-05
4.30984e-05
-6.36619e-05
2.78614e-05
-6.50609e-05
1.19403e-05
-6.60687e-05
-3.99514e-06
-6.58309e-05
-2.04546e-05
-6.41645e-05
-3.79744e-05
-5.45473e-05
-6.00307e-05
-4.98251e-06
0.000173194
-9.99309e-06
0.000172368
-1.4945e-05
0.000170655
-1.9911e-05
0.000168114
-2.48852e-05
0.000164648
-2.98651e-05
0.0001603
-3.4922e-05
0.000154952
-3.99812e-05
0.000148729
-4.5169e-05
0.000141333
-5.03671e-05
0.000133157
-5.56872e-05
0.000123712
-6.1028e-05
0.000113583
-6.62689e-05
0.000102045
-7.12253e-05
8.98083e-05
-7.59823e-05
7.64031e-05
-8.04309e-05
6.2463e-05
-8.46249e-05
4.73072e-05
-8.89399e-05
3.21913e-05
-9.31967e-05
1.62117e-05
-9.54485e-05
-1.72899e-06
-9.50911e-05
-2.07979e-05
-9.1895e-05
-4.11567e-05
-6.14571e-05
-8.49718e-05
-6.20447e-06
0.000179414
-1.24381e-05
0.000178617
-1.86238e-05
0.000176856
-2.48148e-05
0.000174321
-3.09818e-05
0.000170831
-3.71431e-05
0.000166477
-4.3353e-05
0.000161178
-4.95951e-05
0.000154986
-5.59501e-05
0.000147704
-6.23502e-05
0.000139572
-6.88663e-05
0.000130244
-7.54598e-05
0.000120191
-8.22417e-05
0.000108841
-8.9109e-05
9.669e-05
-9.59246e-05
8.32331e-05
-0.000102752
6.93047e-05
-0.000110489
5.50586e-05
-0.000117657
3.93735e-05
-0.000121078
1.96472e-05
-0.000120846
-1.94766e-06
-0.000117475
-2.41554e-05
-0.000110651
-4.79674e-05
-7.15988e-05
-0.000100497
-7.39157e-06
0.00018682
-1.48183e-05
0.000186058
-2.22547e-05
0.000184307
-2.97577e-05
0.000181838
-3.73229e-05
0.00017841
-4.49807e-05
0.000174149
-5.27499e-05
0.000168961
-6.06267e-05
0.000162877
-6.86765e-05
0.000155768
-7.68563e-05
0.000147766
-8.51773e-05
0.000138579
-9.33893e-05
0.000128417
-0.000101385
0.000116851
-0.000109427
0.000104745
-0.00011828
9.21003e-05
-0.00012803
7.90683e-05
-0.00013642
6.34626e-05
-0.00013987
4.2837e-05
-0.000139711
1.95017e-05
-0.000136736
-4.90968e-06
-0.000130072
-3.0807e-05
-0.000120825
-5.72025e-05
-8.34095e-05
-0.000109002
-8.68282e-06
0.000195517
-1.73718e-05
0.000194761
-2.60573e-05
0.000193006
-3.47635e-05
0.000190558
-4.34908e-05
0.000187151
-5.22887e-05
0.000182961
-6.11604e-05
0.000177846
-7.01345e-05
0.000171865
-7.92358e-05
0.000164882
-8.84906e-05
0.000157035
-9.79733e-05
0.000148074
-0.000107841
0.000138298
-0.000118408
0.000127431
-0.000129748
0.000116098
-0.000141593
0.000103959
-0.000151209
8.86972e-05
-0.000154594
6.68602e-05
-0.000154196
4.24516e-05
-0.00015169
1.70083e-05
-0.000145309
-1.12782e-05
-0.000136154
-3.99499e-05
-0.000125316
-6.80292e-05
-9.52792e-05
-0.000113435
-9.9889e-06
0.000205519
-2.00129e-05
0.000204798
-3.01304e-05
0.000203136
-4.03563e-05
0.000200797
-5.07006e-05
0.000197508
-6.11836e-05
0.000193456
-7.17783e-05
0.000188454
-8.24751e-05
0.000182574
-9.32139e-05
0.000175634
-0.000103924
0.000167757
-0.000114608
0.00015877
-0.000125589
0.000149291
-0.00013765
0.000139505
-0.000150965
0.000129427
-0.00016184
0.000114846
-0.000165263
9.21324e-05
-0.000164774
6.63828e-05
-0.000162477
4.01664e-05
-0.000156012
1.05552e-05
-0.000147347
-1.99318e-05
-0.000137749
-4.95368e-05
-0.00012726
-7.8507e-05
-0.000106226
-0.000116303
-1.10618e-05
0.000216592
-2.21315e-05
0.000215879
-3.32419e-05
0.000214258
-4.44101e-05
0.000211976
-5.56562e-05
0.000208766
-6.70142e-05
0.000204826
-7.84794e-05
0.000199931
-9.01183e-05
0.000194225
-0.00010196
0.000187487
-0.000114131
0.00017994
-0.000126727
0.000171378
-0.000140008
0.000162584
-0.000154066
0.000153575
-0.000166133
0.000141506
-0.000170637
0.000119361
-0.000170348
9.18546e-05
-0.00016886
6.49064e-05
-0.000163126
3.44433e-05
-0.000155107
2.54634e-06
-0.000146557
-2.84707e-05
-0.000137238
-5.8845e-05
-0.000127398
-8.83371e-05
-0.000116585
-0.000117028
-1.26472e-05
0.00022925
-2.53053e-05
0.000228548
-3.8034e-05
0.000226998
-5.08127e-05
0.000224766
-6.36525e-05
0.000221617
-7.653e-05
0.000217714
-8.94056e-05
0.000212817
-0.000102327
0.000207157
-0.000115455
0.000200625
-0.000129152
0.000193647
-0.000143722
0.000185958
-0.000158822
0.000177695
-0.000172056
0.00016682
-0.000177326
0.000146785
-0.000176238
0.000118284
-0.000174194
8.98209e-05
-0.00016884
5.95625e-05
-0.000160836
2.64493e-05
-0.000152471
-5.80943e-06
-0.000143529
-3.74031e-05
-0.000134077
-6.82871e-05
-0.000124346
-9.80594e-05
-0.000126532
-0.00011439
-1.32074e-05
0.000242468
-2.64744e-05
0.000241825
-3.98863e-05
0.000240419
-5.33731e-05
0.000238263
-6.6912e-05
0.000235166
-8.05152e-05
0.000231327
-9.41749e-05
0.000226487
-0.000107963
0.000220955
-0.00012204
0.000214711
-0.000136802
0.000208419
-0.000152526
0.000201692
-0.000167999
0.000193178
-0.000176715
0.000175545
-0.000176501
0.000146581
-0.000174625
0.000116417
-0.000170975
8.61801e-05
-0.00016381
5.24063e-05
-0.00015592
1.8568e-05
-0.000147321
-1.43987e-05
-0.000138244
-4.64713e-05
-0.000128952
-7.75708e-05
-0.00011948
-0.000107523
-0.000136031
-0.000109972
-1.5295e-05
0.000257771
-3.05428e-05
0.000257081
-4.56867e-05
0.000255572
-6.07122e-05
0.000253297
-7.57386e-05
0.000250201
-9.08079e-05
0.000246405
-0.000105905
0.000241593
-0.000121114
0.000236173
-0.000136574
0.000230181
-0.000152198
0.000224052
-0.000167427
0.00021693
-0.000177923
0.000203683
-0.000179421
0.000177052
-0.000176869
0.000144037
-0.000172988
0.000112544
-0.000165889
7.90895e-05
-0.000157313
4.38387e-05
-0.000148661
9.92342e-06
-0.000139749
-2.33021e-05
-0.000130622
-5.55908e-05
-0.000121433
-8.67524e-05
-0.000112208
-0.000116741
-0.000145328
-0.000102904
-1.52893e-05
0.000273069
-3.05862e-05
0.000272386
-4.58813e-05
0.000270875
-6.12889e-05
0.000268713
-7.67946e-05
0.000265715
-9.23244e-05
0.000261943
-0.000108052
0.000257329
-0.000124208
0.000252337
-0.000140837
0.000246817
-0.000157484
0.000240707
-0.000171559
0.000231014
-0.000176981
0.000209112
-0.000174893
0.000174972
-0.000171855
0.000141006
-0.000166453
0.00010715
-0.000158396
7.10395e-05
-0.000150159
3.56085e-05
-0.000141387
1.15857e-06
-0.000132529
-3.21533e-05
-0.000123649
-6.44642e-05
-0.000114707
-9.56878e-05
-0.000105873
-0.000125569
-0.000154237
-9.69575e-05
-1.74951e-05
0.00029057
-3.49638e-05
0.000289862
-5.23758e-05
0.000288294
-6.96346e-05
0.000285978
-8.66033e-05
0.00028269
-0.000103515
0.000278861
-0.000120584
0.000274404
-0.000137923
0.000269683
-0.000155085
0.000263986
-0.000170563
0.000256192
-0.000178755
0.000239212
-0.000178015
0.000208378
-0.000173601
0.000170565
-0.000167529
0.000134941
-0.000159013
9.86401e-05
-0.000149688
6.17214e-05
-0.000140757
2.66832e-05