/*--------------------------------*- C++ -*----------------------------------*\
| =========                 |                                                 |
| \\      /  F ield         | OpenFOAM: The Open Source CFD Toolbox           |
|  \\    /   O peration     | Version:  2012                                  |
|   \\  /    A nd           | Website:  www.openfoam.com                      |
|    \\/     M anipulation  |                                                 |
\*---------------------------------------------------------------------------*/
FoamFile
{
    version     2.0;
    format      ascii;
    class       volScalarField;
    location    "0.78";
    object      rho2;
}
// * * * * * * * * * * * * * * * * * * * * * * * * * * * * * * * * * * * * * //

dimensions      [1 -3 0 0 0 0 0];


internalField   nonuniform List<scalar> 
2268
(
1.30142
1.30147
1.30159
1.30176
1.30196
1.30222
1.30249
1.30283
1.30314
1.30352
1.30382
1.3042
1.30445
1.30472
1.30486
1.30498
1.30502
1.30498
1.30493
1.30472
1.30462
1.30432
1.3043
1.30065
1.30071
1.30082
1.30099
1.30119
1.30146
1.30173
1.30207
1.30238
1.30277
1.30307
1.30346
1.3037
1.30396
1.3041
1.30421
1.30425
1.30421
1.30415
1.30395
1.30381
1.30352
1.30348
1.29986
1.29992
1.30003
1.30021
1.30042
1.30069
1.30096
1.3013
1.30162
1.30202
1.30234
1.30273
1.303
1.30328
1.30343
1.30354
1.30358
1.30352
1.30348
1.30323
1.30314
1.30275
1.30278
1.29905
1.29911
1.29923
1.29941
1.29962
1.29989
1.30018
1.30053
1.30086
1.30126
1.30159
1.30199
1.30225
1.3025
1.30264
1.30273
1.30276
1.30271
1.30264
1.30242
1.30224
1.30186
1.30181
1.29822
1.29828
1.29841
1.29859
1.29882
1.2991
1.2994
1.29975
1.3001
1.30051
1.30088
1.30129
1.30161
1.30189
1.30204
1.30214
1.30217
1.30209
1.30204
1.30172
1.30162
1.30102
1.30112
1.29739
1.29745
1.29758
1.29776
1.298
1.29828
1.29859
1.29896
1.29932
1.29975
1.30013
1.30057
1.30085
1.3011
1.30123
1.30129
1.30131
1.30124
1.30114
1.3009
1.30062
1.30004
1.29995
1.2965
1.29658
1.29672
1.29692
1.29717
1.29748
1.2978
1.29817
1.29855
1.29899
1.29943
1.29987
1.30029
1.30057
1.30073
1.30078
1.3008
1.30069
1.30062
1.30021
1.29998
1.29894
1.29912
1.29567
1.29574
1.29588
1.29608
1.29633
1.29664
1.29697
1.29736
1.29776
1.29824
1.29868
1.2992
1.29952
1.29978
1.29987
1.29988
1.29988
1.29979
1.29964
1.29935
1.29887
1.29781
1.29768
1.31281
1.30529
1.30067
1.29932
1.30187
1.30564
1.30535
1.30467
1.30412
1.30356
1.30343
1.30311
1.30312
1.30365
1.30413
1.30617
1.30968
1.31851
1.31995
1.31155
1.30379
1.29945
1.29854
1.30108
1.30523
1.30483
1.30434
1.3034
1.30286
1.30272
1.30267
1.30273
1.30297
1.30371
1.30567
1.30896
1.31741
1.31789
1.30734
1.30111
1.29737
1.29773
1.30035
1.30517
1.30526
1.30272
1.30278
1.30233
1.30243
1.30242
1.30247
1.30295
1.30329
1.30446
1.30644
1.31465
1.3154
1.30464
1.29882
1.2962
1.29663
1.299
1.30392
1.30466
1.30387
1.30216
1.30163
1.30171
1.30177
1.30172
1.30177
1.30243
1.30453
1.30799
1.31451
1.31344
1.30149
1.2968
1.2959
1.29621
1.29779
1.30241
1.30343
1.30165
1.30214
1.30188
1.30178
1.30159
1.30161
1.30226
1.30299
1.30476
1.30648
1.31234
1.31169
1.2999
1.2963
1.29587
1.29619
1.29662
1.30064
1.30112
1.30151
1.30203
1.30216
1.30211
1.30215
1.30227
1.30274
1.30367
1.30528
1.30745
1.31196
1.31022
1.29825
1.29623
1.29588
1.29616
1.29659
1.29874
1.29846
1.29873
1.29986
1.30187
1.30349
1.3038
1.3043
1.30436
1.30392
1.30494
1.30523
1.30948
1.30843
1.29731
1.2959
1.29596
1.29595
1.2961
1.297
1.29608
1.29669
1.29872
1.30202
1.30669
1.30796
1.30739
1.30554
1.30376
1.30415
1.3051
1.30801
1.3064
1.29436
1.29444
1.29458
1.29478
1.29504
1.29537
1.29574
1.29613
1.29656
1.297
1.29763
1.29806
1.29884
1.29908
1.29928
1.29923
1.29925
1.29906
1.29902
1.29838
1.29789
1.29575
1.29588
1.29345
1.29347
1.29351
1.29358
1.29369
1.29387
1.29415
1.2945
1.29494
1.29551
1.29606
1.29705
1.29708
1.29749
1.29725
1.29721
1.29711
1.29707
1.29672
1.2965
1.29508
1.29392
1.29256
1.29335
1.29336
1.29335
1.29335
1.29337
1.2934
1.29345
1.29356
1.29377
1.29409
1.29494
1.29539
1.29761
1.29754
1.29753
1.29677
1.29671
1.29645
1.29653
1.29592
1.2954
1.29368
1.29354
1.29332
1.29333
1.29332
1.29332
1.29334
1.29335
1.29336
1.29339
1.29356
1.29378
1.29453
1.29598
1.29577
1.2961
1.2954
1.295
1.29487
1.29471
1.29456
1.29439
1.29395
1.29395
1.29358
1.29329
1.29329
1.29329
1.2933
1.29333
1.29335
1.29335
1.29332
1.29328
1.29322
1.2937
1.29371
1.29575
1.29494
1.29474
1.29364
1.29355
1.29369
1.29391
1.29405
1.29407
1.2938
1.29378
1.29326
1.29326
1.29326
1.29327
1.2933
1.29331
1.29331
1.29325
1.29313
1.293
1.29304
1.29353
1.29362
1.29385
1.2933
1.29314
1.29317
1.29313
1.29317
1.29333
1.29344
1.29352
1.29363
1.29325
1.29325
1.29325
1.29326
1.29328
1.29329
1.29328
1.29321
1.29308
1.29301
1.29299
1.29304
1.29316
1.29318
1.2929
1.29304
1.29312
1.2932
1.29336
1.29343
1.29343
1.29343
1.29339
1.29324
1.29324
1.29324
1.29324
1.29326
1.29327
1.29326
1.29321
1.2931
1.29304
1.29306
1.2931
1.2931
1.29308
1.29293
1.29287
1.2928
1.29286
1.29308
1.29332
1.29345
1.29342
1.29345
1.29324
1.29323
1.29323
1.29324
1.29324
1.29325
1.29325
1.29322
1.29312
1.29306
1.29306
1.2931
1.29311
1.29311
1.29305
1.29303
1.29297
1.2927
1.29278
1.2932
1.29337
1.29342
1.29343
1.29323
1.29323
1.29323
1.29323
1.29323
1.29323
1.29324
1.29323
1.29317
1.2931
1.29307
1.29309
1.29311
1.29314
1.29315
1.29311
1.29313
1.29333
1.2931
1.29287
1.29307
1.29329
1.29342
1.29322
1.29322
1.29322
1.29322
1.29322
1.29322
1.29322
1.29322
1.2932
1.29315
1.29311
1.2931
1.29311
1.29313
1.29316
1.29318
1.29318
1.29313
1.2931
1.29324
1.29341
1.29324
1.29283
1.29322
1.29322
1.29322
1.29322
1.29322
1.29322
1.29322
1.29322
1.29321
1.29319
1.29317
1.29315
1.29315
1.29316
1.29318
1.29319
1.2932
1.2932
1.29318
1.29316
1.29313
1.29311
1.29319
1.29322
1.29322
1.29322
1.29322
1.29321
1.29321
1.29321
1.29321
1.29321
1.2932
1.29319
1.29319
1.29318
1.29319
1.29319
1.2932
1.2932
1.2932
1.2932
1.2932
1.29318
1.29318
1.29317
1.29321
1.29321
1.29321
1.29321
1.29321
1.29321
1.29321
1.29321
1.29321
1.2932
1.2932
1.2932
1.2932
1.2932
1.2932
1.2932
1.2932
1.2932
1.29321
1.29321
1.2932
1.2932
1.2932
1.29321
1.29321
1.29321
1.29321
1.29321
1.29321
1.29321
1.29321
1.2932
1.2932
1.2932
1.2932
1.2932
1.2932
1.2932
1.2932
1.2932
1.29321
1.29321
1.29321
1.29321
1.29321
1.29321
1.29321
1.29321
1.29321
1.29321
1.29321
1.29321
1.2932
1.2932
1.2932
1.2932
1.2932
1.2932
1.2932
1.2932
1.2932
1.2932
1.2932
1.2932
1.29321
1.29321
1.29321
1.29321
1.29321
1.29321
1.29321
1.29321
1.2932
1.2932
1.2932
1.2932
1.2932
1.2932
1.2932
1.2932
1.2932
1.2932
1.2932
1.2932
1.2932
1.2932
1.2932
1.2932
1.29321
1.29321
1.29321
1.29321
1.2932
1.2932
1.2932
1.2932
1.2932
1.2932
1.2932
1.2932
1.2932
1.2932
1.2932
1.2932
1.2932
1.2932
1.2932
1.2932
1.2932
1.2932
1.2932
1.2932
1.2932
1.29321
1.29321
1.2932
1.2932
1.2932
1.2932
1.2932
1.2932
1.2932
1.2932
1.2932
1.2932
1.2932
1.2932
1.2932
1.2932
1.2932
1.2932
1.2932
1.2932
1.2932
1.2932
1.29321
1.29321
1.29321
1.2932
1.2932
1.2932
1.2932
1.2932
1.2932
1.2932
1.2932
1.2932
1.2932
1.2932
1.2932
1.2932
1.2932
1.2932
1.2932
1.2932
1.2932
1.2932
1.2932
1.2932
1.2932
1.2932
1.29319
1.29319
1.29319
1.29319
1.29319
1.29319
1.29319
1.29319
1.29319
1.29319
1.29319
1.2932
1.2932
1.2932
1.2932
1.2932
1.2932
1.2932
1.2932
1.2932
1.2932
1.2932
1.2932
1.29319
1.29319
1.29319
1.29319
1.29319
1.29319
1.29319
1.29319
1.29319
1.29319
1.29319
1.29319
1.29319
1.29319
1.29319
1.29319
1.29319
1.2932
1.2932
1.2932
1.2932
1.29319
1.29319
1.29318
1.29318
1.29318
1.29319
1.29319
1.29319
1.29319
1.29319
1.29319
1.29319
1.29319
1.29319
1.29319
1.29319
1.29319
1.29319
1.29319
1.29319
1.29319
1.29318
1.29318
1.29317
1.29316
1.29318
1.29318
1.29318
1.29318
1.29318
1.29318
1.29318
1.29318
1.29318
1.29318
1.29318
1.29318
1.29318
1.29318
1.29318
1.29318
1.29317
1.29317
1.29316
1.29314
1.29314
1.29314
1.29314
1.29317
1.29317
1.29317
1.29317
1.29317
1.29317
1.29317
1.29317
1.29317
1.29317
1.29317
1.29317
1.29317
1.29316
1.29316
1.29315
1.29314
1.29313
1.29313
1.29312
1.29313
1.29313
1.29314
1.29316
1.29316
1.29316
1.29316
1.29316
1.29316
1.29316
1.29316
1.29316
1.29316
1.29315
1.29315
1.29315
1.29314
1.29313
1.29312
1.29312
1.29312
1.29312
1.29313
1.29313
1.29313
1.29313
1.29314
1.29314
1.29314
1.29314
1.29314
1.29314
1.29314
1.29314
1.29314
1.29314
1.29313
1.29313
1.29312
1.29312
1.29311
1.29311
1.29312
1.29312
1.29313
1.29313
1.29313
1.29312
1.29311
1.29313
1.29313
1.29313
1.29313
1.29313
1.29313
1.29312
1.29312
1.29312
1.29312
1.29311
1.29311
1.29311
1.29311
1.29311
1.29312
1.29312
1.29313
1.29312
1.29312
1.29311
1.2931
1.29309
1.29311
1.29311
1.29311
1.29311
1.29311
1.29311
1.29311
1.29311
1.29311
1.2931
1.2931
1.2931
1.2931
1.29311
1.29312
1.29312
1.29312
1.29312
1.29311
1.2931
1.29309
1.29308
1.29308
1.2931
1.2931
1.2931
1.2931
1.2931
1.2931
1.2931
1.2931
1.2931
1.2931
1.2931
1.2931
1.29311
1.29311
1.29312
1.29311
1.29311
1.2931
1.29309
1.29308
1.29308
1.29307
1.29307
1.29309
1.29309
1.29309
1.29309
1.29309
1.29309
1.29309
1.29309
1.29309
1.29309
1.2931
1.2931
1.29311
1.29311
1.29311
1.2931
1.2931
1.29309
1.29308
1.29308
1.29307
1.29307
1.29306
1.29309
1.29309
1.29309
1.29309
1.29309
1.29309
1.29309
1.29309
1.29309
1.29309
1.2931
1.29311
1.29311
1.2931
1.2931
1.29309
1.29309
1.29308
1.29308
1.29307
1.29307
1.29306
1.29306
1.29308
1.29308
1.29308
1.29308
1.29308
1.29308
1.29308
1.29308
1.29309
1.29309
1.2931
1.2931
1.2931
1.29309
1.29309
1.29308
1.29308
1.29308
1.29307
1.29307
1.29307
1.29306
1.29306
1.29308
1.29308
1.29308
1.29308
1.29308
1.29308
1.29308
1.29308
1.29309
1.2931
1.2931
1.2931
1.29309
1.29308
1.29308
1.29308
1.29308
1.29307
1.29307
1.29307
1.29307
1.29306
1.29306
1.29307
1.29307
1.29307
1.29307
1.29307
1.29308
1.29308
1.29308
1.29309
1.29309
1.29309
1.29308
1.29308
1.29308
1.29308
1.29307
1.29307
1.29307
1.29307
1.29307
1.29307
1.29306
1.29306
1.29307
1.29307
1.29307
1.29307
1.29307
1.29307
1.29308
1.29309
1.29309
1.29309
1.29308
1.29308
1.29307
1.29307
1.29307
1.29307
1.29307
1.29307
1.29307
1.29307
1.29307
1.29306
1.29306
1.29307
1.29307
1.29307
1.29307
1.29307
1.29307
1.29308
1.29308
1.29309
1.29308
1.29307
1.29307
1.29307
1.29307
1.29307
1.29307
1.29307
1.29307
1.29307
1.29307
1.29307
1.29307
1.29306
1.29306
1.29306
1.29306
1.29307
1.29307
1.29307
1.29308
1.29308
1.29308
1.29307
1.29306
1.29306
1.29306
1.29306
1.29306
1.29307
1.29307
1.29307
1.29307
1.29307
1.29307
1.29307
1.29306
1.29306
1.29306
1.29306
1.29306
1.29306
1.29307
1.29308
1.29308
1.29307
1.29306
1.29305
1.29305
1.29305
1.29306
1.29306
1.29307
1.29307
1.29307
1.29307
1.29308
1.29307
1.29307
1.29307
1.29306
1.29306
1.29306
1.29306
1.29307
1.29308
1.29308
1.29308
1.29306
1.29305
1.29304
1.29304
1.29305
1.29305
1.29306
1.29307
1.29307
1.29307
1.29307
1.29308
1.29307
1.29307
1.29307
1.29305
1.29305
1.29305
1.29306
1.29306
1.29307
1.29307
1.29306
1.29305
1.29304
1.29303
1.29304
1.29305
1.29305
1.29306
1.29307
1.29307
1.29308
1.29308
1.29308
1.29307
1.29307
1.29307
1.29307
1.29307
1.29307
1.29307
1.29307
1.29308
1.29307
1.29305
1.29303
1.29302
1.29302
1.29302
1.29304
1.29305
1.29306
1.29307
1.29307
1.29307
1.29307
1.29307
1.29307
1.29307
1.29306
1.29347
1.29357
1.29383
1.29361
1.29263
1.29156
1.29167
1.29048
1.29228
1.29261
1.29254
1.29397
1.29395
1.29392
1.29422
1.29448
1.29358
1.2936
1.2936
1.29395
1.29356
1.29348
1.29338
1.29341
1.29337
1.29334
1.29333
1.29327
1.29343
1.29342
1.29341
1.2934
1.29343
1.29343
1.29343
1.29342
1.29349
1.29347
1.2935
1.29353
1.29325
1.29314
1.29316
1.29322
1.29359
1.29357
1.29351
1.29339
1.29316
1.29315
1.29314
1.29315
1.29319
1.29319
1.29319
1.2932
1.29321
1.29321
1.29321
1.29321
1.29321
1.29321
1.29321
1.29321
1.29321
1.29321
1.29321
1.29321
1.29321
1.29321
1.29321
1.29321
1.29321
1.29321
1.29321
1.29321
1.29321
1.29321
1.29321
1.29321
1.2932
1.2932
1.2932
1.2932
1.29319
1.29319
1.29319
1.29318
1.29316
1.29316
1.29315
1.29315
1.29314
1.29314
1.29314
1.29314
1.29314
1.29314
1.29314
1.29314
1.29313
1.29313
1.29312
1.29312
1.2931
1.2931
1.29309
1.29309
1.29308
1.29308
1.29308
1.29307
1.29307
1.29307
1.29307
1.29306
1.29307
1.29306
1.29306
1.29306
1.29306
1.29306
1.29306
1.29305
1.29306
1.29306
1.29305
1.29305
1.29306
1.29306
1.29305
1.29305
1.29306
1.29306
1.29305
1.29305
1.29306
1.29306
1.29305
1.29305
1.29306
1.29306
1.29305
1.29305
1.29306
1.29306
1.29306
1.29305
1.29306
1.29306
1.29306
1.29305
1.29306
1.29306
1.29306
1.29306
1.29306
1.29306
1.29306
1.29305
1.29307
1.29306
1.29306
1.29306
1.29306
1.29306
1.29305
1.29305
1.29652
1.29545
1.29606
1.29545
1.29531
1.29508
1.29467
1.29493
1.29591
1.29966
1.30862
1.31182
1.30784
1.30514
1.30339
1.30344
1.30222
1.30519
1.30503
1.2948
1.29494
1.29565
1.29479
1.29419
1.29455
1.29448
1.29488
1.29565
1.30161
1.3096
1.31029
1.3089
1.30504
1.30288
1.30248
1.30316
1.3031
1.30364
1.2927
1.29508
1.29431
1.2947
1.29388
1.29416
1.29433
1.29423
1.29457
1.29532
1.30336
1.30331
1.30333
1.30221
1.30242
1.30183
1.30291
1.30187
1.30395
1.29466
1.29287
1.29352
1.29357
1.29389
1.2936
1.29382
1.29463
1.29477
1.29477
1.29683
1.30009
1.30109
1.3007
1.30145
1.30071
1.30008
1.30005
1.30149
1.29445
1.29352
1.29339
1.29328
1.29351
1.29389
1.29407
1.29431
1.2947
1.29424
1.2947
1.29607
1.29773
1.29789
1.2993
1.30045
1.30121
1.30019
1.30185
1.29335
1.29335
1.29333
1.29323
1.29314
1.29324
1.29345
1.29424
1.29509
1.29417
1.29503
1.295
1.29399
1.2957
1.29645
1.29817
1.29929
1.29962
1.29923
1.2933
1.29336
1.2933
1.29325
1.29318
1.29332
1.2931
1.29389
1.29395
1.29426
1.2939
1.29333
1.29328
1.29348
1.29395
1.29557
1.2972
1.29809
1.29706
1.29336
1.2934
1.29331
1.29331
1.29338
1.29337
1.29301
1.29391
1.29323
1.29407
1.29303
1.29326
1.29325
1.29323
1.2932
1.29351
1.29397
1.29458
1.29472
1.29343
1.29345
1.29337
1.29341
1.29344
1.29338
1.29307
1.29348
1.29339
1.29336
1.29321
1.29325
1.29324
1.29317
1.29316
1.29316
1.29325
1.29388
1.29373
1.29353
1.29354
1.29348
1.29351
1.29343
1.29323
1.29323
1.2932
1.29317
1.29325
1.29326
1.29323
1.29317
1.29316
1.29314
1.29317
1.29318
1.29332
1.29361
1.29337
1.29354
1.29348
1.29336
1.29311
1.29324
1.29319
1.29313
1.29324
1.29325
1.29324
1.29319
1.29316
1.29315
1.29317
1.29316
1.29318
1.29324
1.29337
1.2932
1.29301
1.29303
1.2932
1.29321
1.29316
1.29315
1.2932
1.29324
1.29325
1.29324
1.29321
1.29319
1.29319
1.2932
1.2932
1.29318
1.29318
1.29323
1.29318
1.29321
1.2932
1.29319
1.29317
1.29312
1.29314
1.2932
1.29321
1.29321
1.29321
1.2932
1.2932
1.29319
1.2932
1.2932
1.29321
1.29317
1.29309
1.2932
1.29319
1.29318
1.29315
1.29312
1.29308
1.29313
1.29315
1.29313
1.29313
1.29316
1.29317
1.29319
1.29319
1.2932
1.29321
1.29321
1.29318
1.29302
1.29321
1.29321
1.29321
1.29317
1.29311
1.29308
1.29306
1.29309
1.29306
1.29306
1.2931
1.29315
1.29318
1.29319
1.2932
1.29321
1.29321
1.29319
1.29297
1.29321
1.29321
1.29321
1.29318
1.29315
1.2931
1.29306
1.29305
1.29304
1.29304
1.29308
1.29315
1.29318
1.2932
1.29321
1.29321
1.29322
1.29319
1.2929
1.29321
1.29322
1.29321
1.29321
1.29318
1.29315
1.2931
1.29307
1.29306
1.29308
1.29313
1.29316
1.29319
1.2932
1.29321
1.29321
1.29322
1.29319
1.29285
1.29321
1.29321
1.29321
1.29321
1.2932
1.29319
1.29317
1.29314
1.29314
1.29315
1.29317
1.29318
1.2932
1.29321
1.29322
1.29322
1.29322
1.2932
1.29284
1.29321
1.29321
1.29321
1.29322
1.29321
1.29321
1.2932
1.29319
1.29318
1.29318
1.29319
1.2932
1.29321
1.29321
1.29322
1.29322
1.29323
1.2932
1.29293
1.29321
1.29321
1.29321
1.29321
1.29321
1.29321
1.29321
1.29321
1.29321
1.29321
1.29321
1.29321
1.29322
1.29322
1.29322
1.29322
1.29323
1.2932
1.2931
1.2932
1.29321
1.29321
1.29321
1.29321
1.29321
1.29321
1.29321
1.29321
1.29321
1.29321
1.29321
1.29322
1.29322
1.29322
1.29322
1.29322
1.29321
1.29325
1.29318
1.29318
1.29318
1.29318
1.29319
1.29319
1.29319
1.29319
1.2932
1.2932
1.29321
1.29321
1.29321
1.29322
1.29322
1.29322
1.29322
1.29321
1.29334
1.29315
1.29316
1.29316
1.29316
1.29316
1.29316
1.29316
1.29317
1.29317
1.29317
1.29318
1.29319
1.2932
1.29321
1.29322
1.29322
1.29322
1.2932
1.29333
1.29314
1.29314
1.29314
1.29314
1.29314
1.29314
1.29314
1.29314
1.29315
1.29315
1.29316
1.29317
1.29318
1.29319
1.29321
1.29321
1.29322
1.2932
1.29326
1.29313
1.29313
1.29313
1.29312
1.29312
1.29312
1.29312
1.29312
1.29313
1.29314
1.29315
1.29315
1.29316
1.29318
1.2932
1.29321
1.29322
1.29321
1.29323
1.29311
1.2931
1.29309
1.29308
1.29308
1.29308
1.29308
1.29308
1.29309
1.29311
1.29313
1.29314
1.29315
1.29316
1.29318
1.2932
1.29321
1.29321
1.29322
1.29308
1.29308
1.29307
1.29306
1.29305
1.29305
1.29304
1.29305
1.29305
1.29306
1.29309
1.29312
1.29314
1.29316
1.29317
1.29319
1.29321
1.29321
1.29321
1.29307
1.29306
1.29305
1.29304
1.29303
1.29303
1.29302
1.29302
1.29302
1.29303
1.29305
1.29308
1.29312
1.29314
1.29316
1.29318
1.2932
1.2932
1.2932
1.29306
1.29305
1.29304
1.29303
1.29302
1.29301
1.293
1.29299
1.29299
1.293
1.29301
1.29304
1.29308
1.29312
1.29315
1.29317
1.2932
1.2932
1.2932
1.29305
1.29304
1.29303
1.29302
1.29301
1.293
1.29299
1.29297
1.29297
1.29298
1.29299
1.29301
1.29304
1.2931
1.29314
1.29316
1.29319
1.2932
1.29319
1.29305
1.29304
1.29303
1.29301
1.293
1.29299
1.29297
1.29296
1.29295
1.29295
1.29296
1.29298
1.29301
1.29306
1.29312
1.29315
1.29318
1.29319
1.29318
1.29304
1.29303
1.29302
1.29301
1.29299
1.29298
1.29297
1.29295
1.29294
1.29294
1.29294
1.29296
1.29298
1.29303
1.2931
1.29314
1.29317
1.29318
1.29318
1.29304
1.29303
1.29302
1.293
1.29299
1.29297
1.29296
1.29294
1.29292
1.29292
1.29292
1.29294
1.29296
1.293
1.29307
1.29312
1.29317
1.29318
1.29317
1.29304
1.29303
1.29302
1.293
1.29298
1.29297
1.29295
1.29293
1.29291
1.2929
1.2929
1.29292
1.29294
1.29298
1.29304
1.29311
1.29316
1.29317
1.29316
1.29304
1.29303
1.29302
1.293
1.29298
1.29296
1.29295
1.29293
1.2929
1.29288
1.29289
1.2929
1.29292
1.29296
1.29302
1.29309
1.29314
1.29316
1.29315
1.29304
1.29303
1.29302
1.293
1.29298
1.29296
1.29294
1.29292
1.29289
1.29287
1.29287
1.29288
1.29291
1.29294
1.293
1.29307
1.29313
1.29316
1.29314
1.29305
1.29304
1.29302
1.293
1.29298
1.29296
1.29294
1.29291
1.29289
1.29286
1.29285
1.29286
1.29289
1.29293
1.29298
1.29305
1.29312
1.29315
1.29313
1.29305
1.29304
1.29302
1.293
1.29298
1.29296
1.29294
1.29291
1.29288
1.29285
1.29283
1.29284
1.29288
1.29292
1.29297
1.29304
1.29311
1.29314
1.29312
1.29305
1.29304
1.29302
1.293
1.29298
1.29296
1.29293
1.2929
1.29287
1.29284
1.29282
1.29282
1.29287
1.29292
1.29297
1.29304
1.2931
1.29313
1.29311
1.29305
1.29304
1.29302
1.293
1.29298
1.29295
1.29293
1.2929
1.29286
1.29283
1.2928
1.29281
1.29287
1.29292
1.29297
1.29304
1.2931
1.29312
1.2931
1.29305
1.29304
1.29302
1.293
1.29298
1.29296
1.29293
1.2929
1.29286
1.29283
1.2928
1.2928
1.29286
1.29293
1.29298
1.29304
1.2931
1.29312
1.29309
1.29304
1.29303
1.29301
1.29299
1.29297
1.29295
1.29292
1.29289
1.29285
1.29281
1.29279
1.29279
1.29286
1.29293
1.29299
1.29304
1.2931
1.29312
1.29309
)
;

boundaryField
{
    leftWall
    {
        type            calculated;
        value           nonuniform List<scalar> 
50
(
1.30142
1.30065
1.29986
1.29905
1.29822
1.29739
1.2965
1.29567
1.29436
1.29345
1.29335
1.29332
1.29329
1.29326
1.29325
1.29324
1.29324
1.29323
1.29322
1.29322
1.29322
1.29321
1.29321
1.29321
1.29321
1.2932
1.2932
1.2932
1.29319
1.29319
1.29318
1.29318
1.29317
1.29316
1.29314
1.29313
1.29311
1.2931
1.29309
1.29309
1.29308
1.29308
1.29307
1.29307
1.29307
1.29306
1.29306
1.29306
1.29305
1.29307
)
;
    }
    rightWall
    {
        type            calculated;
        value           nonuniform List<scalar> 
50
(
1.31995
1.31789
1.3154
1.31344
1.31169
1.31022
1.30843
1.3064
1.30503
1.30364
1.30395
1.30149
1.30185
1.29923
1.29706
1.29472
1.29373
1.29361
1.29337
1.29323
1.29309
1.29302
1.29297
1.2929
1.29285
1.29284
1.29293
1.2931
1.29325
1.29334
1.29333
1.29326
1.29323
1.29322
1.29321
1.2932
1.2932
1.29319
1.29318
1.29318
1.29317
1.29316
1.29315
1.29314
1.29313
1.29312
1.29311
1.2931
1.29309
1.29309
)
;
    }
    lowerWall
    {
        type            calculated;
        value           nonuniform List<scalar> 
62
(
1.30179
1.30185
1.30196
1.30213
1.30233
1.3026
1.30287
1.3032
1.30351
1.3039
1.3042
1.30458
1.30483
1.3051
1.30524
1.30535
1.3054
1.30535
1.30531
1.3051
1.30499
1.3047
1.30467
1.3043
1.30348
1.30278
1.30181
1.30112
1.29995
1.29912
1.29768
1.29407
1.29421
1.29447
1.29425
1.31281
1.31155
1.30734
1.30464
1.30149
1.2999
1.29825
1.29731
1.31315
1.30564
1.30102
1.29966
1.30221
1.30596
1.30566
1.30498
1.30444
1.30387
1.30375
1.30343
1.30343
1.30396
1.30443
1.30647
1.30998
1.31881
1.32024
)
;
    }
    atmosphere
    {
        type            calculated;
        value           nonuniform List<scalar> 
46
(
1.29315
1.29315
1.29315
1.29315
1.29316
1.29316
1.29316
1.29314
1.29312
1.29311
1.29311
1.29312
1.29313
1.29315
1.29316
1.29316
1.29317
1.29317
1.29317
1.29317
1.29316
1.29316
1.29316
1.29315
1.29315
1.29315
1.29314
1.29314
1.29313
1.29311
1.29309
1.29307
1.29304
1.29302
1.29298
1.29295
1.29291
1.29289
1.29289
1.29295
1.29303
1.29308
1.29314
1.29319
1.29321
1.29318
)
;
    }
    defaultFaces
    {
        type            empty;
    }
}


// ************************************************************************* //
