/*--------------------------------*- C++ -*----------------------------------*\
| =========                 |                                                 |
| \\      /  F ield         | OpenFOAM: The Open Source CFD Toolbox           |
|  \\    /   O peration     | Version:  2012                                  |
|   \\  /    A nd           | Website:  www.openfoam.com                      |
|    \\/     M anipulation  |                                                 |
\*---------------------------------------------------------------------------*/
FoamFile
{
    version     2.0;
    format      ascii;
    class       volScalarField;
    location    "0.78";
    object      rhogh;
}
// * * * * * * * * * * * * * * * * * * * * * * * * * * * * * * * * * * * * * //

dimensions      [1 -1 -2 0 0 0 0];


internalField   nonuniform List<scalar> 
2268
(
-29.4294
-29.4294
-29.4294
-29.4294
-29.4294
-29.4294
-29.4294
-29.4294
-29.4294
-29.4294
-29.4294
-29.4294
-29.4294
-29.4294
-29.4294
-29.4294
-29.4294
-29.4294
-29.4294
-29.4294
-29.4294
-29.4286
-29.4228
-88.2881
-88.2881
-88.2881
-88.2881
-88.2881
-88.2881
-88.2881
-88.2881
-88.2881
-88.2881
-88.2881
-88.2881
-88.2881
-88.2881
-88.2881
-88.2881
-88.2881
-88.2881
-88.2881
-88.2881
-88.2881
-88.2811
-88.2626
-147.147
-147.147
-147.147
-147.147
-147.147
-147.147
-147.147
-147.147
-147.147
-147.147
-147.147
-147.147
-147.147
-147.147
-147.147
-147.147
-147.147
-147.147
-147.147
-147.147
-147.147
-147.142
-147.104
-206.006
-206.006
-206.006
-206.006
-206.006
-206.006
-206.006
-206.006
-206.006
-206.006
-206.006
-206.006
-206.006
-206.006
-206.006
-206.006
-206.006
-206.006
-206.006
-206.006
-206.006
-206.005
-205.954
-264.864
-264.864
-264.864
-264.864
-264.864
-264.864
-264.864
-264.864
-264.864
-264.864
-264.864
-264.864
-264.864
-264.864
-264.864
-264.864
-264.864
-264.864
-264.864
-264.864
-264.864
-264.864
-264.861
-323.723
-323.723
-323.723
-323.723
-323.723
-323.723
-323.723
-323.723
-323.723
-323.723
-323.723
-323.723
-323.723
-323.723
-323.723
-323.723
-323.723
-323.723
-323.723
-323.723
-323.723
-323.723
-323.723
-382.582
-382.582
-382.582
-382.582
-382.582
-382.582
-382.582
-382.582
-382.582
-382.582
-382.582
-382.582
-382.582
-382.582
-382.582
-382.582
-382.582
-382.582
-382.582
-382.577
-382.572
-382.58
-382.582
-441.44
-441.44
-441.44
-441.44
-441.44
-441.44
-441.44
-441.44
-441.44
-441.44
-441.44
-441.44
-441.44
-441.44
-441.44
-441.44
-441.44
-441.44
-441.44
-441.419
-440.563
-439.022
-441.44
-27.1194
-27.126
-27.126
-27.126
-27.126
-25.0486
-24.2918
-24.3008
-24.6678
-24.6681
-24.6678
-24.6675
-24.6632
-24.188
-23.7371
-23.588
-23.588
-23.0573
-23.0573
-81.3581
-81.3782
-81.3781
-80.4582
-76.2804
-72.3981
-72.8754
-74.0037
-74.0044
-74.0052
-65.2265
-47.3049
-37.2109
-32.0027
-29.5168
-30.9514
-59.0252
-84.5932
-85.748
-135.628
-135.63
-115.225
-91.5489
-121.324
-118.797
-71.7563
-76.933
-88.0613
-61.4815
-31.5029
-15.1319
-8.3232
-5.99216
-4.94058
-6.71861
-50.2036
-144.414
-145.866
-189.879
-174.075
-65.5083
-39.8801
-151.935
-196.93
-173.337
-63.6801
-1.19924
-1.1543
-0.609479
-0.215703
-0.121048
-0.121049
-0.126586
-0.825233
-30.0651
-170.009
-204.212
-243.922
-165.375
-0.0295844
-7.09519
-124.473
-253.195
-264.149
-200.525
-76.3893
-0.155542
-0.155542
-0.155542
-1.56365
-12.1001
-48.1192
-87.3854
-175.283
-216.793
-262.405
-298.315
-146.71
-0.0361707
-0.628196
-92.0093
-305.213
-322.849
-322.307
-294.74
-152.669
-55.1364
-53.128
-119.093
-207.751
-271.553
-296.632
-320.907
-320.907
-320.907
-352.554
-228.157
-0.418275
-3.51173
-139.561
-315.455
-350.335
-381.564
-381.564
-374.716
-328.54
-333.155
-371.425
-376.338
-376.337
-376.302
-375.097
-379.189
-377.827
-405.358
-267.403
-8.93583e-18
-92.4185
-259.79
-233.436
-205.51
-336.12
-440.281
-440.281
-440.281
-440.281
-415.507
-354.458
-234.186
-252.904
-316.76
-420.187
-307.918
-426.541
-439.346
-462.245
-488.199
-514.342
-533.467
-533.467
-533.467
-533.467
-533.467
-533.467
-533.467
-533.467
-533.467
-533.467
-533.467
-533.467
-533.467
-533.467
-533.43
-524.071
-408.348
-394.162
-68.3544
-84.1886
-116.002
-165.583
-236.323
-336.68
-453.407
-539.175
-592.958
-625.005
-643.996
-654.519
-657.561
-657.919
-657.532
-657.481
-657.342
-657.198
-657.823
-658.15
-600.544
-293.709
-247.8
-0.280049
-0.513854
-1.25872
-3.35244
-8.68754
-22.2734
-62.214
-132.816
-219.788
-300.85
-360.809
-408.073
-457.678
-529.856
-569.833
-595.382
-625.286
-699.961
-757.988
-779.956
-675.679
-349.541
-431.149
-2.50713e-06
-2.13363e-05
-0.000349558
-0.00460596
-0.0439319
-0.312647
-1.6996
-7.27209
-25.4492
-59.5501
-82.7301
-100.437
-134.586
-152.508
-169.64
-289.495
-540.971
-756.471
-855.483
-886.461
-843.648
-471.797
-331.293
-4.60471e-09
-2.35475e-07
-7.48138e-06
-0.000137748
-0.00133344
-0.00646955
-0.104701
-5.49908
-14.6766
-9.34298
-3.93936
-46.2429
-290.536
-484.324
-542.257
-539.862
-488.158
-503.305
-604.692
-691.879
-732.499
-732.506
-553.401
-1.23393e-09
-3.42681e-08
-3.34451e-07
-2.99342e-06
-1.61352e-05
-0.000270616
-0.139443
-0.634631
-0.49111
-0.0658044
-3.18944
-239.105
-608.725
-608.301
-488.423
-20.4718
-0.0381378
-0.0380176
-0.0381378
-28.3061
-75.8962
-202.57
-314.542
-4.77066e-10
-1.18292e-08
-1.06646e-07
-4.02714e-07
-2.58815e-06
-0.00144505
-0.0187673
-0.00217914
-0.000216673
-0.000929087
-1.2675
-28.5853
-193.223
-305.758
-105.547
-1.1044
-1.10432
-1.10478
-0.229223
-4.32132e-05
-4.32132e-05
-4.32132e-05
-4.32132e-05
-2.09787e-10
-5.41329e-09
-6.1877e-08
-4.61912e-07
-1.07193e-05
-0.000176988
-9.20948e-06
-9.75124e-07
-3.53243e-06
-0.0123101
-0.0348954
-2.02338e-05
-2.0252e-05
-2.02338e-05
-0.627937
-200.798
-350.171
-234.784
-85.4833
-2.50668
-4.74245e-05
-0.00393062
-0.00716103
-9.05235e-11
-2.38687e-09
-3.01117e-08
-3.03667e-07
-3.03206e-06
-5.23244e-06
-3.18042e-06
-1.06501e-06
-7.94888e-06
-0.00637213
-0.0221078
-0.00468392
-2.20305e-05
-0.00086014
-2.23461
-217.609
-776.985
-789.421
-780.526
-186.26
-5.16359e-05
-0.0532007
-0.0784042
-3.86618e-11
-1.02184e-09
-1.24403e-08
-1.04154e-07
-7.11438e-07
-2.65523e-06
-1.38024e-05
-1.83378e-05
-2.4133e-06
-0.000519201
-0.000252627
-0.000599671
-0.00163433
-0.00396621
-0.458981
-4.87678
-98.8052
-591.426
-851.72
-851.535
-436.739
-46.1922
-19.0454
-1.53662e-11
-4.23406e-10
-5.22343e-09
-3.97863e-08
-2.26073e-07
-1.11977e-06
-1.29961e-05
-6.67139e-05
-0.000203949
-5.46425e-05
-5.51754e-05
-5.46425e-05
-0.000654666
-0.00191746
-3.21789e-06
-3.21788e-06
-3.21789e-06
-3.21788e-06
-0.670967
-399.66
-976.46
-976.668
-666.991
-5.60587e-12
-1.65856e-10
-2.21107e-09
-1.75932e-08
-9.46285e-08
-4.01293e-07
-4.37747e-06
-2.80363e-05
-0.000456705
-0.0012052
-0.00131245
-0.00162406
-0.00136694
-0.000228442
-1.87338e-05
-1.95145e-05
-1.43612e-05
-0.000440088
-0.00028005
-0.000280043
-0.000280155
-7.48832
-211.188
-1.84458e-12
-5.92988e-11
-8.79516e-10
-7.9794e-09
-4.90518e-08
-2.10007e-07
-1.02268e-06
-4.49072e-07
-0.000240106
-0.00173802
-0.00273586
-0.0027384
-0.00273586
-0.00049609
-4.24644e-06
-3.6408e-06
-3.64068e-06
-5.47139e-05
-0.000298402
-0.0015191
-0.00307886
-7.81897e-07
-7.81897e-07
-5.57326e-13
-1.94947e-11
-3.23483e-10
-3.38798e-09
-2.50334e-08
-1.39539e-07
-5.13529e-07
-4.76483e-07
-4.50173e-05
-0.000428592
-0.00152593
-0.00228701
-0.00147322
-0.000235346
-9.21402e-06
-3.86457e-06
-4.53638e-06
-9.11313e-06
-9.41897e-06
-0.000184412
-0.00124898
-0.00108665
-0.00599499
-1.59721e-13
-5.98988e-12
-1.09021e-10
-1.28879e-09
-1.11559e-08
-7.82826e-08
-3.82931e-07
-1.13663e-06
-5.07702e-06
-1.18686e-05
-2.8476e-05
-0.000129924
-3.1321e-05
-2.84133e-05
-1.1852e-05
-4.60871e-06
-5.81191e-06
-6.69531e-06
-3.98969e-06
-6.18833e-06
-1.15325e-05
-5.58713e-05
-0.000421543
-4.3335e-14
-1.71784e-12
-3.36521e-11
-4.38023e-10
-4.28925e-09
-3.50061e-08
-2.44132e-07
-1.11407e-06
-1.45852e-06
-9.49625e-07
-4.63173e-07
-4.38449e-07
-3.49464e-07
-1.76367e-06
-3.15233e-06
-3.16743e-06
-4.82207e-06
-4.48835e-06
-2.85616e-06
-1.71946e-06
-1.07104e-06
-1.17288e-06
-4.2031e-07
-1.11559e-14
-4.61384e-13
-9.55788e-12
-1.33705e-10
-1.4327e-09
-1.28687e-08
-1.0012e-07
-5.54553e-07
-6.96004e-07
-5.36165e-07
-2.85922e-07
-1.74509e-07
-2.0842e-07
-4.48478e-07
-7.36094e-07
-1.31546e-06
-2.07798e-06
-1.78089e-06
-1.34602e-06
-1.16314e-06
-9.60576e-07
-7.55215e-07
-6.11381e-07
-2.74033e-15
-1.17122e-13
-2.53024e-12
-3.73341e-11
-4.27215e-10
-4.09179e-09
-3.29902e-08
-1.70332e-07
-2.73662e-07
-2.38103e-07
-1.70915e-07
-1.40258e-07
-1.32321e-07
-1.76902e-07
-2.61481e-07
-4.80182e-07
-6.27596e-07
-5.81532e-07
-5.19772e-07
-5.15583e-07
-4.908e-07
-4.26705e-07
-4.16185e-07
-6.47686e-16
-2.83122e-14
-6.29471e-13
-9.63553e-12
-1.15439e-10
-1.15532e-09
-9.43931e-09
-4.92502e-08
-8.97943e-08
-8.5242e-08
-6.9148e-08
-6.81512e-08
-5.62552e-08
-6.54558e-08
-9.20701e-08
-1.5296e-07
-1.82373e-07
-1.73983e-07
-1.64199e-07
-1.60019e-07
-1.49731e-07
-1.35951e-07
-1.34361e-07
-1.48386e-16
-6.58484e-15
-1.49107e-13
-2.33615e-12
-2.88553e-11
-2.97685e-10
-2.44594e-09
-1.31771e-08
-2.55947e-08
-2.6197e-08
-2.2074e-08
-2.1166e-08
-1.85393e-08
-2.10233e-08
-2.85001e-08
-4.22698e-08
-4.70816e-08
-4.45659e-08
-4.10657e-08
-3.74287e-08
-3.30148e-08
-2.77757e-08
-2.41081e-08
-3.33838e-17
-1.49316e-15
-3.41166e-14
-5.40528e-13
-6.79115e-12
-7.13828e-11
-5.8689e-10
-3.25399e-09
-6.54404e-09
-7.10486e-09
-6.00801e-09
-5.70821e-09
-5.16684e-09
-5.81285e-09
-7.55377e-09
-1.00465e-08
-1.03551e-08
-9.35648e-09
-7.91874e-09
-6.34634e-09
-4.82218e-09
-3.37545e-09
-2.5895e-09
-7.62598e-18
-3.41326e-16
-7.80587e-15
-1.2374e-13
-1.56165e-12
-1.64731e-11
-1.34118e-10
-7.52375e-10
-1.53634e-09
-1.7325e-09
-1.45183e-09
-1.37473e-09
-1.25464e-09
-1.39525e-09
-1.71592e-09
-2.03675e-09
-1.897e-09
-1.55215e-09
-1.12074e-09
-6.67684e-10
-3.6358e-10
-6.64544e-10
-2.65194e-09
-1.81019e-18
-8.08041e-17
-1.84435e-15
-2.91877e-14
-3.68156e-13
-3.83954e-12
-3.0374e-11
-1.65758e-10
-3.36094e-10
-3.84509e-10
-3.20363e-10
-2.99696e-10
-2.70936e-10
-2.93754e-10
-3.34913e-10
-3.5006e-10
-2.84975e-10
-1.85028e-10
-1.06039e-10
-6.46397e-11
-9.03036e-10
-1.2929e-08
-4.84488e-08
-4.4257e-19
-1.9676e-17
-4.47782e-16
-7.0743e-15
-8.87647e-14
-9.02858e-13
-6.82772e-12
-3.51845e-11
-6.94656e-11
-7.89983e-11
-6.549e-11
-5.98179e-11
-5.27911e-11
-5.47521e-11
-5.5742e-11
-4.9891e-11
-3.22985e-11
-3.08321e-11
-6.70112e-11
-2.16889e-09
-3.7886e-08
-2.29661e-07
-9.12726e-07
-1.11424e-19
-4.93273e-18
-1.1181e-16
-1.7603e-15
-2.17946e-14
-2.13249e-13
-1.51929e-12
-7.25583e-12
-1.37074e-11
-1.52837e-11
-1.25195e-11
-1.058e-11
-9.12596e-12
-8.11076e-12
-8.11076e-12
-9.29101e-12
-5.52255e-11
-7.96621e-10
-1.30334e-08
-2.17074e-07
-2.62136e-06
-1.01409e-05
-6.41337e-05
-2.8954e-20
-1.27748e-18
-2.8842e-17
-4.51128e-16
-5.4538e-15
-5.06492e-14
-3.35853e-13
-1.47288e-12
-2.60424e-12
-2.7703e-12
-2.1387e-12
-2.10062e-12
-2.10062e-12
-9.80316e-12
-8.81253e-11
-8.52622e-10
-5.15577e-09
-9.35342e-09
-9.35347e-09
-4.17332e-05
-0.00034063
-0.000535135
-0.000579688
-7.88902e-21
-3.46612e-19
-7.76769e-18
-1.19367e-16
-1.38099e-15
-1.18772e-14
-7.11699e-14
-2.65901e-13
-4.27508e-13
-5.0386e-13
-8.85078e-13
-3.54504e-12
-1.96761e-11
-1.01508e-10
-3.2734e-10
-5.24581e-10
-5.24582e-10
-5.24572e-10
-0.000457165
-0.00128935
-0.00128917
-0.00124858
-0.000423995
-1.86754e-21
-8.35528e-20
-1.82427e-18
-2.77825e-17
-3.16601e-16
-2.74748e-15
-1.87719e-14
-1.18705e-13
-8.79596e-13
-9.96806e-12
-1.16268e-10
-1.14689e-09
-8.55805e-09
-1.72033e-08
-1.50808e-08
-5.41917e-10
-4.15692e-05
-0.00252715
-0.0033186
-0.00236161
-5.17532e-08
-5.17514e-08
-5.17532e-08
-1.46678e-21
-6.30973e-20
-2.53789e-18
-8.19442e-17
-2.2459e-15
-5.09174e-14
-9.46107e-13
-1.43722e-11
-1.77909e-10
-1.78083e-09
-1.43032e-08
-6.3169e-08
-8.63747e-08
-5.02186e-08
-1.55628e-08
-0.000935586
-0.00463712
-0.00463756
-0.00206108
-6.39142e-08
-7.24836e-08
-1.91669e-07
-2.70364e-07
-1.59005e-20
-1.61951e-18
-8.12182e-17
-2.60919e-15
-5.99587e-14
-1.04231e-12
-1.41113e-11
-1.50474e-10
-1.25982e-09
-8.14528e-09
-3.94588e-08
-7.33522e-08
-6.38572e-08
-5.17744e-08
-0.00161548
-0.00665027
-0.00649675
-0.000785075
-1.78688e-07
-1.96679e-07
-3.17148e-07
-3.11051e-07
-2.76668e-07
-4.60104e-19
-4.03063e-17
-1.69414e-15
-4.5204e-14
-8.55848e-13
-1.21496e-11
-1.32845e-10
-1.12218e-09
-7.153e-09
-2.98094e-08
-5.01173e-08
-5.0118e-08
-5.01147e-08
-0.00145741
-0.00684896
-0.00684958
-0.00129282
-1.22888e-07
-1.84062e-07
-2.53424e-07
-1.81383e-07
-8.63297e-08
-4.29738e-08
-5.60375e-18
-4.20275e-16
-1.50319e-14
-3.40173e-13
-5.46874e-12
-6.6656e-11
-6.45329e-10
-5.16361e-09
-3.63109e-08
-1.39175e-07
-1.05953e-07
-5.15774e-08
-0.00105811
-0.0066849
-0.00704818
-0.00213121
-7.13653e-08
-1.26475e-07
-1.6196e-07
-6.79323e-08
-2.34197e-08
-1.06725e-08
-5.72546e-09
-5.72485e-17
-3.76913e-15
-1.17633e-13
-2.29257e-12
-3.10483e-11
-3.09302e-10
-2.39078e-09
-1.56914e-08
-1.01783e-07
-6.78038e-07
-2.34035e-05
-0.000846134
-0.00566384
-0.00687469
-0.00310891
-4.03641e-08
-7.3389e-08
-9.2421e-08
-2.66145e-08
-8.36417e-09
-3.55741e-09
-1.77792e-09
-9.1612e-10
-3.39018e-16
-2.1131e-14
-6.32361e-13
-1.20099e-11
-1.60367e-10
-1.55313e-09
-1.0703e-08
-4.83076e-08
-9.16886e-08
-1.92566e-07
-4.3972e-05
-0.00370754
-0.00809574
-0.0037928
-1.1181e-08
-4.14771e-08
-5.76588e-08
-2.02851e-08
-3.55977e-09
-1.32162e-09
-6.00325e-10
-2.81265e-10
-1.2797e-10
-1.86703e-15
-1.04906e-13
-2.85865e-12
-5.07319e-11
-6.64383e-10
-6.88865e-09
-5.96842e-08
-4.13008e-07
-1.29665e-06
-1.97785e-07
-0.00044895
-0.00727102
-0.00830924
-3.2439e-09
-1.14813e-08
-2.67312e-08
-1.94192e-08
-2.4409e-09
-5.35261e-10
-2.09789e-10
-9.04323e-11
-3.79753e-11
-1.49024e-11
-6.8034e-15
-3.52214e-13
-8.7222e-12
-1.38422e-10
-1.58449e-09
-1.37718e-08
-9.01833e-08
-4.25933e-07
-6.26352e-06
-0.000486678
-0.00465342
-0.00745924
-0.00345566
-3.31517e-09
-9.54769e-09
-1.19419e-08
-2.83193e-09
-2.7989e-10
-7.55917e-11
-2.84447e-11
-1.1216e-11
-4.17382e-12
-1.4038e-12
-2.53171e-14
-1.19422e-12
-2.63537e-11
-3.60282e-10
-3.39766e-09
-2.30628e-08
-1.11026e-07
-3.26027e-07
-7.06958e-06
-0.00206279
-0.0079396
-0.00693562
-1.8077e-09
-3.80699e-09
-7.15938e-09
-3.12135e-09
-3.78938e-10
-3.23656e-11
-8.93044e-12
-3.13177e-12
-1.12213e-12
-3.70416e-13
-1.07743e-13
-7.17978e-14
-3.216e-12
-6.66135e-11
-8.39952e-10
-7.13266e-09
-4.22056e-08
-1.06542e-07
-1.06078e-07
-1.06076e-07
-0.00196667
-0.00814033
-0.00221225
-1.85151e-09
-2.10081e-09
-3.0054e-09
-6.69779e-10
-4.83014e-11
-3.52119e-12
-7.94017e-13
-2.55212e-13
-8.28243e-14
-2.43217e-14
-6.28139e-15
-2.02105e-13
-8.59889e-12
-1.6799e-10
-1.99548e-09
-1.6467e-08
-1.12498e-07
-7.76201e-07
-2.26513e-05
-0.00039248
-0.00291991
-0.00680483
-1.89638e-09
-1.89639e-09
-1.89639e-09
-1.28613e-09
-1.94499e-10
-1.32411e-11
-4.07986e-13
-5.12153e-14
-1.45644e-14
-4.24295e-15
-1.12323e-15
-2.70826e-16
-4.59936e-13
-1.89955e-11
-3.58899e-10
-4.12731e-09
-3.27393e-08
-1.06998e-07
-1.06998e-07
-2.22901e-05
-0.00269239
-0.0116394
-0.00222638
-1.9424e-09
-1.94125e-09
-2.14372e-09
-8.6527e-10
-1.25089e-10
-7.12412e-12
-5.08437e-14
-2.00505e-15
-4.62615e-16
-1.14585e-16
-2.67809e-17
-6.4884e-18
-9.93005e-13
-4.02015e-11
-7.52791e-10
-8.75858e-09
-7.19392e-08
-4.38966e-07
-7.33124e-06
-0.000445592
-0.00939105
-0.0119091
-0.000714336
-1.98731e-09
-2.33303e-09
-3.03869e-09
-8.4436e-10
-1.02256e-10
-1.84991e-12
-4.14402e-15
-3.79868e-17
-5.75263e-18
-9.67103e-19
-1.59526e-19
-4.36544e-20
-2.6655e-12
-9.93847e-11
-1.69761e-09
-1.76011e-08
-1.22929e-07
-1.31251e-06
-0.000240716
-0.005587
-0.00975231
-0.0063843
-3.62792e-09
-5.80223e-09
-9.08245e-09
-5.16963e-09
-9.05135e-10
-5.99069e-11
-6.87728e-14
1.64214e-40
-9.16159e-22
-1.7983e-24
-2.10229e-26
-1.27488e-26
-2.02269e-26
-396.295
-426.558
-426.558
-426.558
-491.922
-526.663
-526.663
-526.663
-624.719
-624.27
-398.382
-314.767
-425.103
-355.34
-246.367
-246.387
-270.038
-270.029
-548.614
-653.418
-339.099
-294.707
-188.367
-291.79
-0.00436609
-0.00436511
-0.050659
-0.668963
-0.0240944
-0.0291461
-0.0291522
-0.0273019
-0.0500365
-0.0016838
-0.00164487
-0.00442929
-0.377713
-0.0169709
-0.0765921
-0.0212033
-3.09134
-110.159
-127.18
-67.5381
-1205.83
-1268.49
-1268.6
-1203.2
-7.81897e-07
-7.81897e-07
-7.81897e-07
-29.5996
-0.00983446
-0.00983045
-4.89729e-06
-8.29981e-07
-0.000883018
-0.000560997
-0.00117508
-0.00307164
-3.55469e-07
-3.55472e-07
-3.55469e-07
-2.46484e-05
-5.90075e-07
-5.87175e-07
-4.15157e-07
-3.59607e-07
-4.22158e-07
-4.31852e-07
-4.3099e-07
-4.09533e-07
-1.35552e-07
-1.38578e-07
-1.40423e-07
-1.39183e-07
-2.26386e-08
-2.23002e-08
-2.24644e-08
-2.25012e-08
-2.60705e-09
-2.78962e-09
-3.56422e-09
-5.06334e-09
-6.50881e-09
-1.35151e-08
-2.97423e-08
-5.67386e-08
-1.12208e-07
-2.14296e-07
-4.26855e-07
-9.46309e-07
-2.69049e-06
-6.22561e-06
-1.48149e-05
-4.17728e-05
-0.000140037
-0.000239886
-0.000367224
-0.000460046
-0.000661961
-0.000661969
-0.000653992
-0.000548083
-9.12748e-05
-2.06119e-05
-5.24584e-08
-5.26227e-08
-5.17514e-08
-5.17532e-08
-1.26684e-07
-3.22557e-07
-3.80031e-07
-4.35108e-07
-4.66268e-07
-4.66527e-07
-2.09255e-07
-1.53016e-07
-1.25838e-07
-1.23414e-07
-2.71643e-08
-2.08964e-08
-1.69526e-08
-1.43567e-08
-3.79987e-09
-3.07772e-09
-2.5443e-09
-2.15092e-09
-5.67491e-10
-4.43933e-10
-3.57721e-10
-2.9844e-10
-7.1749e-11
-5.41055e-11
-4.25402e-11
-3.51669e-11
-7.46505e-12
-5.4474e-12
-4.22459e-12
-3.52094e-12
-6.30717e-13
-4.537e-13
-3.56795e-13
-3.08328e-13
-4.46944e-14
-3.26136e-14
-2.66772e-14
-2.42217e-14
-2.56474e-15
-1.96523e-15
-1.70523e-15
-1.62744e-15
-1.1502e-16
-9.27769e-17
-8.50569e-17
-8.48454e-17
-3.23587e-18
-2.84356e-18
-2.76796e-18
-3.22478e-18
-3.40766e-20
-3.90215e-20
-4.58868e-20
-5.5286e-20
-2.55279e-26
-2.76337e-26
-2.86567e-26
-2.91974e-26
-413.18
-94.8391
-5.82772e-18
-212.007
-313.835
-144.764
-47.0757
-68.8959
-186.763
-362.834
-427.836
-376.107
-247.933
-151.545
-114.346
-130.993
-297.06
-506.156
-132.75
-276.519
-33.1976
-310.736
-327.67
-205.212
-18.4617
-0.118997
-10.7358
-44.02
-67.3627
-75.5205
-160.209
-232.805
-184.049
-150.1
-474.767
-494.524
-375.297
-38.3684
-282.796
-308.609
-392.39
-310.92
-0.0287234
-0.340256
-0.0881881
-0.196166
-0.663742
-27.0224
-402.307
-728.129
-776.099
-739.594
-494.044
-352.222
-416.546
-46.829
-77.371
-327.946
-407.427
-345.615
-0.120722
-0.033311
-0.033311
-0.546226
-0.990401
-0.30969
-9.51653
-329.7
-869.149
-900.054
-900.054
-710.139
-60.933
-60.9342
-37.3003
-661.292
-653.529
-273.763
-0.0346952
-0.0348189
-0.485603
-14.3548
-101.467
-159.617
-0.352334
-2.0295
-222.649
-923.882
-1023.18
-1021.7
-1009.13
-587.898
-107.545
-116.427
-1024.11
-390.528
-2.48497
-0.0388832
-0.120914
-0.628144
-53.0322
-494.91
-683.623
-45.6868
-0.289524
-178.003
-804.035
-660.479
-827.453
-1137.72
-1137.73
-977.692
-918.756
-1148.07
-3.51553
-0.10153
-0.0430762
-0.202461
-0.268198
-52.4738
-693.356
-895.188
-490.31
-0.321142
-219.317
-256.166
-14.8122
-206.796
-852.449
-1254.64
-1272.07
-1272.07
-1267.13
-0.0256321
-0.0211272
-0.0173554
-0.0280447
-0.000552871
-39.7653
-788.645
-982.429
-908.859
-228.777
-218.229
-0.0136733
-0.0136732
-0.0136734
-100.268
-592.054
-986.847
-1003.33
-868.69
-0.00464076
-0.00323971
-0.000267781
-0.000602029
-0.000602033
-55.4974
-874.902
-1047.11
-842.562
-556.918
-102.211
-0.0148874
-0.023737
-0.0453381
-0.0391895
-0.0391904
-58.3699
-100.562
-113.653
-3.33118e-23
7.11712e-21
-3.90825e-22
-3.99469e-22
-18.6498
-269.382
-793.08
-241.498
-48.5241
-68.2627
-0.0162207
-0.0162208
-0.0279738
-0.268266
-0.387379
-0.303237
-0.303144
-0.454857
-37.7465
-29.8685
-1.06034
-0.796136
-0.00323362
-416.901
-780.262
-254.009
-7.28837e-05
-6.95374e-05
-7.28837e-05
-0.166612
-0.330695
-0.0027718
-0.0175782
-0.730737
-1.73197
-3.75399
-29.0447
-40.5991
-1301.66
-1301.76
-1117.35
-746.292
-353.839
-85.1281
-0.0330795
-0.0598499
-1.29756
-1.776
-1.51222
-0.0128607
-0.00016911
-0.00210144
-3.34428e-05
-0.792552
-2.35933
-9.13179
-23.5432
-103.156
-141.976
-99.4596
-16.1631
-7.81897e-07
-7.81897e-07
-0.842341
-2.87796
-2.87824
-1.29778
-0.000274936
-0.00165156
-0.000180804
-0.00127264
-3.56243e-05
-3.22782e-05
-3.22782e-05
-3.22782e-05
-3.22782e-05
-8.29981e-07
-8.29981e-07
-8.29981e-07
-8.29981e-07
-8.29981e-07
-0.00530732
-0.55451
-1.04051
-0.162639
-1.85964e-05
-0.000291842
-0.00307996
-0.0132766
-0.0116259
-0.000278048
-3.42632e-05
-0.00073587
-3.42632e-05
-3.42632e-05
-0.00307268
-0.000616532
-0.00207692
-0.00152736
-1.19519e-06
-0.0042316
-0.0646162
-0.0385407
-0.0226739
-1.96795e-05
-0.00244192
-0.0465395
-0.0722236
-0.0395318
-0.000431126
-3.71162e-05
-0.00261645
-0.000754902
-3.62482e-05
-3.85949e-07
-3.5151e-07
-0.00111211
-0.00209729
-0.00091233
-0.000447817
-0.0030788
-0.00222913
-0.000690755
-2.07511e-05
-0.0065989
-0.0761786
-0.0761802
-0.0415163
-0.000745141
-3.60599e-05
-0.00100847
-0.270555
-0.0141729
-3.59606e-07
-5.83795e-07
-5.83802e-07
-0.000745255
-3.2042e-07
-0.00760896
-0.00888085
-0.00722019
-0.000774337
-2.18349e-05
-0.0611158
-0.0801353
-0.060498
-0.00570599
-0.00037958
-3.79338e-05
-1.98877e-08
-0.763693
-22.7557
-3.77355e-07
-5.6273e-07
-6.91454e-07
-2.51462e-06
-3.37211e-07
-0.00214006
-0.0086843
-0.00255083
-0.000812557
-0.0604597
-0.0766178
-0.076604
-0.00951324
-1.28682e-07
-9.73933e-06
-2.74632e-05
-2.08811e-08
-0.545399
-230.311
-1.31987e-07
-1.73559e-07
-2.57589e-07
-4.55021e-08
-1.39321e-05
-7.08422e-05
-0.000303249
-3.90706e-05
-0.00131643
-0.00388797
-0.00748913
-4.04697e-08
-4.0065e-08
-1.34737e-07
-2.18508e-08
-2.18632e-08
-2.18508e-08
-0.619621
-292.874
-2.26979e-08
-3.04492e-08
-7.79099e-08
-4.75467e-08
-7.69258e-06
-1.05795e-05
-1.51648e-05
-4.0825e-05
-3.24753e-06
-2.57962e-08
-2.5587e-08
-1.00202e-07
-2.4173e-07
-3.91643e-07
-1.78302e-07
-2.60461e-06
-2.28454e-08
-0.648701
-306.027
-1.0263e-08
-2.81647e-08
-7.73289e-08
-1.79527e-07
-1.63127e-07
-1.6313e-07
-2.80567e-07
-4.81194e-07
-9.17304e-07
-8.78372e-07
-5.19553e-07
-3.73171e-07
-4.08773e-07
-4.03134e-07
-2.13311e-08
-0.000132037
-3.3532e-06
-3.35369e-06
-312.456
-1.34153e-07
-3.37629e-07
-1.31963e-06
-2.67465e-06
-3.83731e-06
-2.67634e-06
-1.41491e-06
-6.21863e-07
-3.63808e-07
-2.48589e-07
-1.95506e-07
-1.80689e-07
-1.98636e-07
-1.51692e-07
-2.22103e-08
-0.0009037
-2.48096e-08
-0.245866
-66.3423
-3.58265e-06
-6.52402e-06
-3.49676e-05
-4.09849e-05
-2.70757e-05
-1.54072e-05
-9.5363e-06
-4.33562e-06
-2.1065e-06
-1.11855e-06
-6.0363e-07
-3.06542e-07
-1.72308e-07
-6.57082e-08
-2.30896e-08
-0.00134839
-2.57771e-08
-0.051994
-2.14007e-05
-0.000179417
-0.000213567
-0.000185705
-9.63963e-05
-3.40201e-05
-2.23668e-05
-1.99571e-05
-1.7903e-05
-6.42583e-06
-2.47993e-06
-1.45139e-06
-9.06656e-07
-4.39512e-07
-1.11449e-07
-5.35384e-08
-0.00140262
-0.00136088
-2.22156e-05
-2.22262e-05
-0.000460039
-0.00043267
-0.000129048
-1.57076e-05
-8.5714e-06
-1.07363e-05
-1.49259e-05
-3.77208e-05
-3.47863e-05
-1.46332e-05
-7.44208e-06
-3.11857e-06
-1.33624e-06
-3.699e-07
-2.48481e-08
-0.00141107
-0.00156385
-0.0002621
-2.51924e-05
-0.000271528
-5.41537e-08
-5.39693e-08
-5.41537e-08
-8.31799e-08
-7.21765e-07
-1.6633e-07
-4.48206e-06
-0.000603988
-0.00115457
-0.000780358
-0.000120389
-1.2414e-05
-1.59535e-06
-2.57273e-08
-0.000840994
-0.00276743
-0.00169863
-0.000444006
-5.24584e-08
-1.01705e-07
-3.8027e-07
-2.12453e-07
-8.42195e-08
-5.50784e-07
-1.81376e-07
-6.19098e-08
-0.00112723
-0.00268645
-0.00268895
-0.00146075
-0.00010258
-6.0445e-06
-4.52232e-07
-2.66065e-08
-0.00271112
-0.00211932
-0.00349064
-4.8987e-07
-6.11249e-07
-5.33826e-07
-2.63841e-07
-9.24852e-08
-1.46738e-06
-8.02007e-07
-6.41731e-08
-0.000120762
-0.00152445
-0.00277523
-0.00277781
-0.00121381
-3.44861e-05
-1.00662e-06
-2.74858e-08
-0.00681121
-0.0202432
-0.0161675
-4.62122e-07
-3.9529e-07
-1.54132e-07
-8.18649e-08
-9.41221e-08
-1.50312e-06
-1.26959e-06
-3.48417e-07
-8.15053e-08
-8.01924e-08
-0.000980337
-0.002864
-0.002227
-0.000217672
-1.87194e-06
-2.8365e-08
-0.0191718
-0.06891
-0.0256234
-1.00062e-07
-6.31546e-08
-2.89919e-08
-2.20364e-08
-6.72224e-08
-6.84658e-07
-3.74757e-07
-4.99962e-07
-2.56123e-07
-1.50919e-07
-1.5092e-07
-0.000869238
-0.00160647
-0.000344823
-2.58302e-06
-2.92442e-08
-0.0342671
-0.0710864
-0.0315689
-1.14053e-08
-8.14574e-09
-5.94458e-09
-5.39339e-09
-8.22802e-09
-2.15713e-08
-1.44235e-07
-4.32009e-07
-2.75929e-07
-4.48988e-09
-0.000157951
-7.56567e-05
-0.000265088
-0.000180724
-1.76584e-05
-3.01234e-08
-0.021736
-0.0731931
-0.0268011
-1.71272e-09
-1.2933e-09
-1.12707e-09
-1.24887e-09
-2.53961e-09
-7.78627e-09
-3.78644e-08
-1.52786e-07
-8.17466e-08
-4.62105e-09
-0.000767192
-0.000275493
-0.00105448
-0.00103403
-0.000198815
-3.10027e-08
-0.00288578
-0.0455306
-0.0114961
-2.3968e-10
-1.91733e-10
-1.86883e-10
-2.66971e-10
-5.98629e-10
-1.59737e-09
-6.0609e-09
-2.55824e-08
-1.70769e-08
-8.36371e-10
-0.00059253
-0.00149505
-0.00248459
-0.00208311
-0.000444184
-3.84784e-06
-0.000298129
-0.000880244
-0.000675246
-2.87803e-11
-2.44811e-11
-3.01577e-11
-5.16677e-11
-1.13705e-10
-2.54682e-10
-8.30811e-10
-4.3242e-09
-3.65756e-09
-8.59443e-10
1.40855e-28
-0.00465139
-0.00716932
-0.00415769
-0.000650473
-1.0306e-05
-4.33403e-06
-6.61903e-07
-3.40245e-06
-3.03888e-12
-2.86825e-12
-4.5973e-12
-8.5432e-12
-1.7907e-11
-3.38869e-11
-9.76888e-11
-7.06161e-10
-6.75143e-10
-4.02198e-10
-1.30186e-29
-0.0271781
-0.0327046
-0.019137
-0.00200299
-1.67108e-05
-9.06367e-07
-5.04568e-07
-5.04576e-07
-2.8445e-13
-3.33698e-13
-6.2159e-13
-1.19764e-12
-2.41319e-12
-3.93144e-12
-1.01403e-11
-9.80336e-11
-9.33419e-11
-5.38889e-11
-1.52015e-29
-0.0515633
-0.166513
-0.0702783
-0.00612473
-1.54515e-05
-5.59206e-07
-5.17763e-07
-5.17756e-07
-2.36112e-14
-3.58085e-14
-6.95764e-14
-1.37775e-13
-2.74955e-13
-4.05241e-13
-9.51072e-13
-1.08013e-11
-9.61172e-12
-5.22061e-12
-3.67992e-30
-0.00632323
-0.644382
-0.304243
-0.00942022
-1.27018e-05
-5.30951e-07
-5.30943e-07
-0.0150818
-1.82267e-15
-3.13943e-15
-6.29197e-15
-1.29501e-14
-2.63476e-14
-3.71529e-14
-8.32261e-14
-9.32463e-13
-7.43014e-13
-3.01356e-13
-1.23409e-29
-0.017674
-0.660556
-0.593473
-0.0470377
-5.41445e-05
-5.44131e-07
-5.44139e-07
-0.0494984
-1.12683e-16
-1.97794e-16
-4.18347e-16
-9.12873e-16
-1.96794e-15
-2.80403e-15
-6.07413e-15
-5.82457e-14
-4.13444e-14
-1.39366e-14
-1.30972e-15
3.78346e-34
-0.573981
-0.793428
-0.146519
-0.000233752
-5.57326e-07
-0.027263
-0.0507679
-4.54831e-18
-8.48973e-18
-1.95998e-17
-4.60555e-17
-1.0588e-16
-1.54435e-16
-3.18701e-16
-2.40712e-15
-1.43415e-15
-3.5802e-16
-3.89708e-17
-3.17393e-37
-0.547445
-0.812227
-0.275048
-0.000364974
-0.0017949
-0.0548867
-0.0397059
-8.57784e-20
-1.84086e-19
-4.75374e-19
-1.20591e-18
-2.97302e-18
-4.47002e-18
-8.32335e-18
-4.74872e-17
-2.21238e-17
-4.06102e-18
-4.30091e-19
2.70246e-38
-0.535316
-0.830977
-0.244736
-0.000539056
-0.00403561
-0.0560941
-0.00750348
-2.96958e-26
-2.96811e-26
-2.54942e-26
-1.30901e-26
-2.70511e-27
2.11718e-73
4.59637e-73
4.15641e-72
3.77503e-34
4.9237e-34
7.78312e-34
9.00539e-34
-0.182833
-0.3441
-0.0888379
-0.000456716
-0.00299746
-0.0301598
-0.00172591
)
;

boundaryField
{
    leftWall
    {
        type            calculated;
        value           nonuniform List<scalar> 
50
(
-29.4294
-88.2881
-147.147
-206.006
-264.864
-323.723
-382.582
-441.44
-426.541
-68.3544
-0.280049
-2.50713e-06
-4.60471e-09
-1.23393e-09
-4.77066e-10
-2.09787e-10
-9.05235e-11
-3.86618e-11
-1.53662e-11
-5.60587e-12
-1.84458e-12
-5.57326e-13
-1.59721e-13
-4.3335e-14
-1.11559e-14
-2.74033e-15
-6.47686e-16
-1.48386e-16
-3.33838e-17
-7.62598e-18
-1.81019e-18
-4.4257e-19
-1.11424e-19
-2.8954e-20
-7.88902e-21
-1.86754e-21
-1.46678e-21
-1.59005e-20
-4.60104e-19
-5.60375e-18
-5.72485e-17
-3.39018e-16
-1.86703e-15
-6.8034e-15
-2.53171e-14
-7.17978e-14
-2.02105e-13
-4.59936e-13
-9.93005e-13
-2.6655e-12
)
;
    }
    rightWall
    {
        type            calculated;
        value           nonuniform List<scalar> 
50
(
-23.0573
-85.748
-145.866
-204.212
-262.405
-320.907
-377.827
-307.918
-132.75
-38.3684
-77.371
-661.292
-1024.11
-1148.07
-1267.13
-868.69
-113.653
-37.7465
-40.5991
-23.5432
-3.22782e-05
-3.42632e-05
-3.62482e-05
-0.0141729
-22.7557
-230.311
-292.874
-306.027
-312.456
-66.3423
-2.14007e-05
-2.22262e-05
-2.51924e-05
-0.000444006
-0.00349064
-0.0161675
-0.0256234
-0.0315689
-0.0268011
-0.0114961
-0.000675246
-3.40245e-06
-5.04576e-07
-5.17756e-07
-0.0150818
-0.0494984
-0.0507679
-0.0397059
-0.00750348
-0.00172591
)
;
    }
    lowerWall
    {
        type            calculated;
        value           nonuniform List<scalar> 
62
(
0
0
0
0
0
0
0
0
0
0
0
0
0
0
0
0
0
0
0
0
0
0
0
-29.4228
-88.2626
-147.104
-205.954
-264.861
-323.723
-382.582
-441.44
-349.794
-376.506
-376.505
-376.506
-27.1194
-81.3581
-135.628
-189.879
-243.922
-298.315
-352.554
-405.358
0
0
0
0
0
0
0
0
0
0
0
0
0
0
0
0
0
0
0
)
;
    }
    atmosphere
    {
        type            calculated;
        value           nonuniform List<scalar> 
46
(
-2.69494e-12
-1.00483e-10
-1.71637e-09
-1.77955e-08
-1.24287e-07
-1.32701e-06
-0.000243375
-0.00564871
-0.00986004
-0.00645483
-3.668e-09
-5.86632e-09
-9.18278e-09
-5.22674e-09
-9.15134e-10
-6.05687e-11
-0
-0
-0
-0
-0
-0
-0
-0
-0
-0
-0
-0
-0
-0
-0
-0
-0
-0
-0
-0
-0
-0
-0
-0
-0.347901
-0.0898192
-0.000461762
-0.00303057
-0.030493
-0.00174498
)
;
    }
    defaultFaces
    {
        type            empty;
    }
}


// ************************************************************************* //
