/*--------------------------------*- C++ -*----------------------------------*\
| =========                 |                                                 |
| \\      /  F ield         | OpenFOAM: The Open Source CFD Toolbox           |
|  \\    /   O peration     | Version:  2012                                  |
|   \\  /    A nd           | Website:  www.openfoam.com                      |
|    \\/     M anipulation  |                                                 |
\*---------------------------------------------------------------------------*/
FoamFile
{
    version     2.0;
    format      ascii;
    class       volVectorField;
    location    "0.78";
    object      U;
}
// * * * * * * * * * * * * * * * * * * * * * * * * * * * * * * * * * * * * * //

dimensions      [0 1 -1 0 0 0 0];


internalField   nonuniform List<vector> 
2268
(
(-0.0179131 0.00680319 0)
(-0.0496872 0.00638961 0)
(-0.0818915 0.00643336 0)
(-0.114277 0.00657234 0)
(-0.146089 0.0060118 0)
(-0.172049 0.00520016 0)
(-0.195627 0.00476211 0)
(-0.216969 0.0043831 0)
(-0.235235 0.00349313 0)
(-0.247278 0.00267895 0)
(-0.257439 0.00155931 0)
(-0.259634 0.000378269 0)
(-0.2577 -0.0015185 0)
(-0.248529 -0.00287427 0)
(-0.234324 -0.00409368 0)
(-0.214738 -0.00514569 0)
(-0.189986 -0.0068852 0)
(-0.156553 -0.00853863 0)
(-0.120733 -0.0106125 0)
(-0.0750683 -0.0126634 0)
(-0.0349034 -0.0115797 0)
(-0.00773786 -0.0168292 0)
(0.0432508 -0.00836442 0)
(-0.0181172 0.0251463 0)
(-0.0500421 0.0238473 0)
(-0.082366 0.024091 0)
(-0.114483 0.0237573 0)
(-0.146137 0.0212972 0)
(-0.172272 0.018191 0)
(-0.196309 0.0164812 0)
(-0.21776 0.0143086 0)
(-0.235882 0.0108624 0)
(-0.247973 0.00776936 0)
(-0.258489 0.00431806 0)
(-0.260802 -0.000312174 0)
(-0.258871 -0.00372097 0)
(-0.249618 -0.00825432 0)
(-0.235564 -0.0119131 0)
(-0.215622 -0.0158796 0)
(-0.191036 -0.020695 0)
(-0.157713 -0.0242123 0)
(-0.122013 -0.0280343 0)
(-0.0775949 -0.0278663 0)
(-0.0385832 -0.0204406 0)
(-0.0104126 -0.0200608 0)
(0.0288268 0.0250092 0)
(-0.018686 0.0390074 0)
(-0.0506071 0.0367508 0)
(-0.0831295 0.0368936 0)
(-0.114902 0.0367148 0)
(-0.147044 0.0333465 0)
(-0.174071 0.0289132 0)
(-0.198846 0.0262904 0)
(-0.220292 0.0230688 0)
(-0.23838 0.0178124 0)
(-0.250544 0.013326 0)
(-0.260704 0.00770394 0)
(-0.262822 0.000542429 0)
(-0.261725 -0.00667802 0)
(-0.252496 -0.0137695 0)
(-0.238826 -0.0199734 0)
(-0.217698 -0.0259916 0)
(-0.192344 -0.0340529 0)
(-0.157398 -0.0409651 0)
(-0.119736 -0.0482846 0)
(-0.0735274 -0.0519145 0)
(-0.0264008 -0.0431103 0)
(0.00998334 -0.0484794 0)
(0.0458078 0.000638953 0)
(-0.0191586 0.057911 0)
(-0.0509633 0.0543125 0)
(-0.0841232 0.0544756 0)
(-0.115723 0.0539444 0)
(-0.147379 0.0492492 0)
(-0.174746 0.0426325 0)
(-0.200287 0.0383232 0)
(-0.222044 0.032958 0)
(-0.240379 0.0251788 0)
(-0.253197 0.0182742 0)
(-0.264287 0.0101151 0)
(-0.267229 7.75733e-05 0)
(-0.266301 -0.00871972 0)
(-0.25616 -0.0193559 0)
(-0.242573 -0.0286285 0)
(-0.221275 -0.0381868 0)
(-0.197811 -0.0495618 0)
(-0.163327 -0.0587598 0)
(-0.125883 -0.0681354 0)
(-0.0777604 -0.0720575 0)
(-0.0257174 -0.0605409 0)
(0.0198386 -0.0542139 0)
(0.0478183 0.0507856 0)
(-0.0191988 0.0721133 0)
(-0.0517707 0.0674326 0)
(-0.0856432 0.0674946 0)
(-0.117585 0.0666168 0)
(-0.149781 0.0612741 0)
(-0.178562 0.0539385 0)
(-0.205381 0.0486862 0)
(-0.227093 0.0420095 0)
(-0.245114 0.0325839 0)
(-0.257764 0.0245918 0)
(-0.268458 0.0144515 0)
(-0.271206 0.00150418 0)
(-0.272186 -0.0116483 0)
(-0.262157 -0.0246607 0)
(-0.248989 -0.0360336 0)
(-0.226177 -0.0466668 0)
(-0.201442 -0.0609504 0)
(-0.164891 -0.0745475 0)
(-0.123748 -0.0882191 0)
(-0.0721309 -0.0989574 0)
(-0.00639237 -0.0886686 0)
(0.0578429 -0.08294 0)
(0.0778342 0.0333337 0)
(-0.0183616 0.091507 0)
(-0.0529867 0.0857522 0)
(-0.0875843 0.0855984 0)
(-0.119432 0.0842442 0)
(-0.150606 0.0780474 0)
(-0.179386 0.0688556 0)
(-0.20714 0.0612389 0)
(-0.229524 0.0516969 0)
(-0.248638 0.0396736 0)
(-0.263164 0.0292829 0)
(-0.275108 0.0164042 0)
(-0.27939 0.0017746 0)
(-0.279343 -0.0132936 0)
(-0.267612 -0.030788 0)
(-0.254416 -0.0461749 0)
(-0.231935 -0.0612745 0)
(-0.210622 -0.0792015 0)
(-0.175022 -0.0959252 0)
(-0.136631 -0.112772 0)
(-0.0793478 -0.127661 0)
(-0.00511431 -0.123 0)
(0.0775647 -0.0939037 0)
(0.0878399 0.113888 0)
(-0.0170967 0.105746 0)
(-0.0540906 0.100084 0)
(-0.0901598 0.0988609 0)
(-0.122964 0.0963956 0)
(-0.154619 0.0896401 0)
(-0.185426 0.0806957 0)
(-0.214426 0.0724416 0)
(-0.23614 0.0616301 0)
(-0.254515 0.0485424 0)
(-0.268602 0.0370489 0)
(-0.280403 0.0222844 0)
(-0.285048 0.00345795 0)
(-0.288472 -0.0167621 0)
(-0.277954 -0.0359195 0)
(-0.26525 -0.0521805 0)
(-0.241436 -0.0665809 0)
(-0.218013 -0.0870419 0)
(-0.179702 -0.108862 0)
(-0.137807 -0.132586 0)
(-0.0771178 -0.160727 0)
(0.0119296 -0.162072 0)
(0.100515 -0.12676 0)
(0.11347 0.112472 0)
(-0.0162114 0.125275 0)
(-0.0545737 0.120378 0)
(-0.0917306 0.11821 0)
(-0.124817 0.114723 0)
(-0.155542 0.107549 0)
(-0.188401 0.0970527 0)
(-0.220527 0.0851484 0)
(-0.243795 0.0705927 0)
(-0.262975 0.0549844 0)
(-0.277779 0.041564 0)
(-0.290536 0.0240249 0)
(-0.297505 0.00568998 0)
(-0.297312 -0.0172253 0)
(-0.283962 -0.0423975 0)
(-0.270973 -0.0643234 0)
(-0.248357 -0.0845043 0)
(-0.227902 -0.10941 0)
(-0.191907 -0.134535 0)
(-0.16005 -0.162457 0)
(-0.105077 -0.198654 0)
(-0.028097 -0.208303 0)
(0.084971 -0.141225 0)
(0.0775305 0.21378 0)
(-0.518028 0.219248 0)
(-1.05641 0.105251 0)
(-1.41286 0.0554315 0)
(-1.53348 0.0254367 0)
(-1.46238 -0.0121869 0)
(-1.28355 -0.00114357 0)
(-1.24967 0.0322934 0)
(-1.44853 -0.0205036 0)
(-1.58515 -0.0115737 0)
(-1.68699 0.0397089 0)
(-1.78162 0.0293958 0)
(-1.87012 0.0118944 0)
(-1.93523 -0.000989863 0)
(-1.97001 -0.00812496 0)
(-1.98216 -0.026475 0)
(-1.9111 -0.0683949 0)
(-1.63849 -0.0950129 0)
(-0.9573 -0.146451 0)
(-0.360692 -0.142159 0)
(-0.41506 0.450791 0)
(-0.899138 0.276692 0)
(-1.21521 0.147565 0)
(-1.29479 -0.00418567 0)
(-1.18318 -0.0939642 0)
(-1.03302 -0.0902854 0)
(-1.07226 0.0378246 0)
(-1.25109 0.164466 0)
(-1.36377 0.112882 0)
(-1.45488 0.0439647 0)
(-1.549 0.0481863 0)
(-1.62045 0.0536021 0)
(-1.67999 0.0435942 0)
(-1.74212 0.0264648 0)
(-1.78978 0.00122044 0)
(-1.68182 -0.0776545 0)
(-1.21309 -0.307281 0)
(-0.671219 -0.399156 0)
(-0.348123 -0.418541 0)
(-0.397528 0.772753 0)
(-0.743613 0.445615 0)
(-1.04726 0.222426 0)
(-1.10033 0.0124922 0)
(-0.804631 -0.122564 0)
(-0.545415 -0.04923 0)
(-0.559808 0.128275 0)
(-0.977499 0.0985797 0)
(-1.25563 0.0754122 0)
(-1.42227 0.118548 0)
(-1.51391 0.100028 0)
(-1.64279 0.0664236 0)
(-1.99086 0.04994 0)
(-2.25661 0.0502988 0)
(-2.33345 -0.0486084 0)
(-1.40047 -0.330041 0)
(-0.778086 -0.532359 0)
(-0.313075 -0.519598 0)
(-0.233696 -0.574638 0)
(-0.29358 0.939172 0)
(-0.530877 0.555057 0)
(-0.898063 0.300445 0)
(-0.890965 -0.109181 0)
(-0.519904 -0.329811 0)
(-0.233854 -0.196246 0)
(-0.0251909 0.216461 0)
(-0.229088 0.475049 0)
(-0.901813 0.302208 0)
(-1.35671 0.142786 0)
(-1.73798 0.133707 0)
(-1.91319 0.301418 0)
(-2.31708 0.325772 0)
(-1.36096 -0.0617501 0)
(-0.22236 -0.409362 0)
(-0.0818724 -0.657281 0)
(-0.125062 -0.739472 0)
(-0.0134452 -0.628643 0)
(-0.121308 -0.649808 0)
(-0.250864 1.11992 0)
(-0.322518 0.701952 0)
(-0.665188 0.35525 0)
(-0.757237 -0.151474 0)
(-0.182945 -0.401354 0)
(-0.020782 -0.26014 0)
(0.150793 0.129076 0)
(0.317387 0.439504 0)
(0.394588 0.57441 0)
(-0.0981677 0.53364 0)
(-0.723366 0.361626 0)
(-0.794939 0.138547 0)
(0.564444 -0.237789 0)
(0.772348 -0.392064 0)
(0.804297 -0.463546 0)
(0.776916 -0.509361 0)
(0.520296 -0.603752 0)
(0.279178 -0.531023 0)
(-0.017285 -0.631301 0)
(-0.216048 1.18413 0)
(-0.116297 0.680185 0)
(0.0492002 0.626186 0)
(-0.493409 -0.336094 0)
(0.0839396 -0.648331 0)
(0.178603 -0.339562 0)
(0.315797 0.0713802 0)
(0.400154 0.384157 0)
(0.492972 0.483881 0)
(0.55966 0.534832 0)
(0.616095 0.366086 0)
(0.71354 -0.0363612 0)
(0.775814 -0.318295 0)
(0.847682 -0.395338 0)
(0.878297 -0.453926 0)
(0.878851 -0.480741 0)
(0.720739 -0.508109 0)
(0.458159 -0.396923 0)
(0.0524715 -0.537289 0)
(-0.209378 1.25866 0)
(-0.0445225 0.550955 0)
(0.0768971 0.588231 0)
(0.389982 -0.232708 0)
(0.333851 -0.680701 0)
(0.361829 -0.360926 0)
(0.435343 0.0351947 0)
(0.508987 0.359284 0)
(0.505259 0.503761 0)
(0.526212 0.51747 0)
(0.572837 0.317072 0)
(0.6498 0.000917433 0)
(0.71265 -0.292023 0)
(0.78576 -0.425644 0)
(0.882251 -0.476618 0)
(0.906887 -0.443537 0)
(0.768382 -0.430378 0)
(0.488476 -0.25249 0)
(0.0376866 -0.413674 0)
(-0.150879 1.29226 0)
(0.0237128 0.542773 0)
(-0.245066 0.444089 0)
(0.55291 -0.454743 0)
(0.422191 -0.640354 0)
(0.465338 -0.384037 0)
(0.561918 0.00804555 0)
(0.55227 0.356238 0)
(0.478211 0.479576 0)
(0.446716 0.508342 0)
(0.455875 0.313605 0)
(0.522616 -0.0946031 0)
(0.610589 -0.375491 0)
(0.744686 -0.468393 0)
(0.887369 -0.505272 0)
(0.847254 -0.433472 0)
(0.669874 -0.323247 0)
(0.361113 -0.0849972 0)
(0.0302956 -0.31386 0)
(-0.0162926 0.146722 0)
(-0.0561911 0.144185 0)
(-0.0932898 0.139682 0)
(-0.126402 0.133141 0)
(-0.1556 0.126551 0)
(-0.185694 0.11959 0)
(-0.215929 0.106365 0)
(-0.239464 0.0879995 0)
(-0.261372 0.0701313 0)
(-0.2803 0.0546785 0)
(-0.298225 0.0362341 0)
(-0.309928 0.00677803 0)
(-0.31607 -0.0253056 0)
(-0.305727 -0.0506495 0)
(-0.292825 -0.0699423 0)
(-0.269214 -0.0866028 0)
(-0.245623 -0.11432 0)
(-0.210085 -0.14306 0)
(-0.182047 -0.177889 0)
(-0.136734 -0.235948 0)
(-0.0528197 -0.274878 0)
(0.084254 -0.197238 0)
(0.263259 0.177185 0)
(-0.023723 0.190196 0)
(-0.0752069 0.188973 0)
(-0.120007 0.180828 0)
(-0.159433 0.170493 0)
(-0.193643 0.160082 0)
(-0.226396 0.149366 0)
(-0.25458 0.131368 0)
(-0.273431 0.109938 0)
(-0.289617 0.0904932 0)
(-0.297845 0.074225 0)
(-0.310049 0.0490078 0)
(-0.311216 0.0241816 0)
(-0.306492 -0.0200913 0)
(-0.301321 -0.0635292 0)
(-0.291153 -0.100656 0)
(-0.269595 -0.132276 0)
(-0.257533 -0.168679 0)
(-0.2351 -0.196185 0)
(-0.229338 -0.232709 0)
(-0.197576 -0.315201 0)
(-0.181996 -0.41002 0)
(-0.0953351 -0.435958 0)
(-0.0381497 -0.220042 0)
(-0.0257579 0.246572 0)
(-0.0863257 0.241365 0)
(-0.141941 0.224752 0)
(-0.198032 0.207497 0)
(-0.245334 0.194037 0)
(-0.296701 0.180974 0)
(-0.333888 0.153595 0)
(-0.360408 0.123073 0)
(-0.380107 0.0944449 0)
(-0.400458 0.074493 0)
(-0.421514 0.050224 0)
(-0.465384 0.000909292 0)
(-0.497902 -0.0319823 0)
(-0.439455 -0.0648783 0)
(-0.36244 -0.0990017 0)
(-0.296485 -0.118858 0)
(-0.267215 -0.147105 0)
(-0.258603 -0.170316 0)
(-0.264717 -0.21314 0)
(-0.297026 -0.283182 0)
(-0.36639 -0.374174 0)
(-0.452614 -0.342286 0)
(-0.547017 0.0111108 0)
(-0.0347874 0.302009 0)
(-0.107251 0.304977 0)
(-0.182722 0.291841 0)
(-0.266662 0.272543 0)
(-0.340896 0.257276 0)
(-0.430614 0.235289 0)
(-0.518788 0.194741 0)
(-0.723068 0.157312 0)
(-0.997075 0.133199 0)
(-1.42244 0.119247 0)
(-1.89414 0.11416 0)
(-1.91509 0.113391 0)
(-1.64478 -0.0554081 0)
(-1.40039 -0.200493 0)
(-1.14032 -0.249809 0)
(-0.91739 -0.228912 0)
(-0.732574 -0.208904 0)
(-0.594144 -0.199436 0)
(-0.515833 -0.196519 0)
(-0.492308 -0.213442 0)
(-0.523847 -0.257703 0)
(-0.632852 -0.251496 0)
(-0.723937 -0.0172086 0)
(-0.0602248 0.393888 0)
(-0.183812 0.395514 0)
(-0.307669 0.389716 0)
(-0.460814 0.374385 0)
(-0.644259 0.365402 0)
(-0.896766 0.371603 0)
(-1.25086 0.450219 0)
(-1.75307 0.608785 0)
(-2.18154 0.783539 0)
(-2.64598 0.966517 0)
(-2.71978 0.550966 0)
(-2.23233 -0.286131 0)
(-1.95296 -0.532377 0)
(-1.71043 -0.575254 0)
(-1.51412 -0.576736 0)
(-1.31887 -0.527939 0)
(-1.16038 -0.471638 0)
(-1.02302 -0.387317 0)
(-0.878363 -0.313884 0)
(-0.737142 -0.274008 0)
(-0.619504 -0.230386 0)
(-0.543369 -0.142923 0)
(-0.505144 0.0335265 0)
(-0.052672 0.541239 0)
(-0.159088 0.547576 0)
(-0.273448 0.563905 0)
(-0.412999 0.601436 0)
(-0.59431 0.691151 0)
(-0.858354 0.827379 0)
(-1.19445 1.05187 0)
(-1.70777 1.09455 0)
(-2.12849 1.03458 0)
(-2.61997 0.728548 0)
(-2.04416 -0.405903 0)
(-1.90862 -0.576671 0)
(-1.83834 -0.605359 0)
(-1.78004 -0.638027 0)
(-1.73454 -0.648435 0)
(-1.67397 -0.582195 0)
(-1.88439 -0.48923 0)
(-1.87806 -0.52188 0)
(-1.74686 -0.557286 0)
(-1.23208 -0.476429 0)
(-0.87683 -0.45385 0)
(-0.63512 -0.365304 0)
(-0.453514 -0.133476 0)
(-0.0489262 0.61212 0)
(-0.150291 0.623485 0)
(-0.255378 0.649505 0)
(-0.374766 0.70432 0)
(-0.502347 0.81564 0)
(-0.645978 0.987052 0)
(-0.805276 1.29557 0)
(-1.05597 1.5558 0)
(-1.4822 1.63627 0)
(-1.70554 0.911147 0)
(-1.87577 -0.117216 0)
(-1.9003 -0.531429 0)
(-1.85806 -0.657125 0)
(-1.8329 -0.680863 0)
(-1.82765 -0.684175 0)
(-2.00385 -0.376449 0)
(-1.96735 -0.357031 0)
(-2.05833 -0.410069 0)
(-2.15919 -0.737598 0)
(-2.45206 -1.14475 0)
(-2.32835 -0.836731 0)
(-1.98521 -0.567247 0)
(-1.46786 -0.306711 0)
(-0.0444059 0.737553 0)
(-0.131702 0.751727 0)
(-0.225798 0.78579 0)
(-0.326234 0.846567 0)
(-0.426226 0.962372 0)
(-0.523827 1.12984 0)
(-0.580653 1.46782 0)
(-0.642559 1.76884 0)
(-0.730557 1.73979 0)
(-0.89825 1.10197 0)
(-1.30983 -0.170104 0)
(-1.57659 -0.58616 0)
(-1.65574 -0.676533 0)
(-1.54197 -0.665358 0)
(-1.73636 -0.460491 0)
(-1.7224 -0.416748 0)
(-1.6827 -0.40391 0)
(-1.6435 -0.37423 0)
(-1.62854 -0.373322 0)
(-1.90925 -0.356125 0)
(-2.42076 -0.880877 0)
(-2.6026 -1.25416 0)
(-2.81733 -1.43833 0)
(-0.0322154 0.792401 0)
(-0.0961461 0.809555 0)
(-0.164778 0.847397 0)
(-0.234933 0.910199 0)
(-0.303646 1.01463 0)
(-0.353503 1.14891 0)
(-0.374216 1.40832 0)
(-0.253759 1.71281 0)
(-0.20315 1.85828 0)
(-0.18608 1.50429 0)
(-0.644772 0.548885 0)
(-1.30128 -0.218286 0)
(-1.57566 -0.666977 0)
(-1.71669 -0.651641 0)
(-1.59088 -0.48057 0)
(-1.53933 -0.458755 0)
(-1.5113 -0.44152 0)
(-1.4751 -0.443406 0)
(-1.45549 -0.414131 0)
(-1.4577 -0.307987 0)
(-1.46213 -0.204729 0)
(-2.02985 -0.0965141 0)
(-2.49516 -0.619781 0)
(-0.0248235 0.864488 0)
(-0.070571 0.883251 0)
(-0.117691 0.923143 0)
(-0.156797 0.984687 0)
(-0.190631 1.08027 0)
(-0.20199 1.19927 0)
(-0.192742 1.36979 0)
(-0.0695616 1.5946 0)
(0.089241 1.68812 0)
(0.266017 1.54058 0)
(0.182559 0.964392 0)
(-0.210755 0.356553 0)
(-0.6647 -0.254291 0)
(-1.06105 -0.633334 0)
(-1.26416 -0.615559 0)
(-1.44195 -0.504346 0)
(-1.3842 -0.467993 0)
(-1.33453 -0.429028 0)
(-1.3164 -0.389749 0)
(-1.32484 -0.349779 0)
(-1.36694 -0.321562 0)
(-1.36709 -0.225688 0)
(-1.37294 0.00267124 0)
(-0.0153994 0.890492 0)
(-0.0419044 0.90538 0)
(-0.0677417 0.935932 0)
(-0.0816571 0.986318 0)
(-0.0862165 1.06075 0)
(-0.0581116 1.15439 0)
(-0.0115816 1.2718 0)
(0.121548 1.43 0)
(0.306031 1.5105 0)
(0.517374 1.40854 0)
(0.612063 1.03416 0)
(0.51961 0.616866 0)
(0.333113 0.191583 0)
(-0.0166487 -0.07185 0)
(-0.32007 -0.106167 0)
(-0.569591 -0.330219 0)
(-0.763295 -0.553362 0)
(-1.14623 -0.515675 0)
(-1.34566 -0.3867 0)
(-1.26684 -0.254956 0)
(-1.20891 -0.153997 0)
(-1.17454 -0.0763262 0)
(-1.18065 -0.0525608 0)
(-0.00863274 0.920632 0)
(-0.0198427 0.934487 0)
(-0.0303327 0.961644 0)
(-0.0279839 1.00207 0)
(-0.0174969 1.056 0)
(0.0230513 1.12328 0)
(0.0814024 1.19164 0)
(0.200575 1.27495 0)
(0.373636 1.29798 0)
(0.574918 1.23135 0)
(0.701074 0.969002 0)
(0.705183 0.641791 0)
(0.632625 0.29539 0)
(0.456004 0.0331736 0)
(0.318595 -0.0565342 0)
(0.209181 -0.0555386 0)
(-0.0508422 0.104291 0)
(-0.381986 0.140616 0)
(-0.683716 -0.292897 0)
(-0.951354 -0.515914 0)
(-1.17956 -0.415977 0)
(-1.14184 -0.254893 0)
(-1.0272 -0.15506 0)
(-0.00276656 0.92105 0)
(-0.00269008 0.929162 0)
(-0.00143173 0.945958 0)
(0.0133676 0.974942 0)
(0.0368421 1.01057 0)
(0.0864891 1.05557 0)
(0.15376 1.09266 0)
(0.261556 1.13448 0)
(0.400236 1.13129 0)
(0.564002 1.07601 0)
(0.68921 0.901681 0)
(0.72266 0.676675 0)
(0.683012 0.437926 0)
(0.560622 0.237149 0)
(0.415033 0.135756 0)
(0.291814 0.0488175 0)
(0.19435 0.0383489 0)
(0.233298 0.120233 0)
(0.164002 0.218679 0)
(-0.15841 0.250827 0)
(-0.507597 0.0364994 0)
(-0.725597 -0.226421 0)
(-0.854001 -0.282582 0)
(0.00158043 0.924908 0)
(0.0107223 0.931882 0)
(0.0177441 0.944567 0)
(0.036911 0.962767 0)
(0.0621294 0.982507 0)
(0.10857 1.00541 0)
(0.168239 1.01764 0)
(0.255928 1.02707 0)
(0.363195 0.998247 0)
(0.485941 0.940852 0)
(0.59243 0.814917 0)
(0.64489 0.651039 0)
(0.640471 0.464964 0)
(0.581578 0.305842 0)
(0.501017 0.215814 0)
(0.429802 0.16755 0)
(0.332009 0.161543 0)
(0.281892 0.173209 0)
(0.277209 0.109412 0)
(0.334471 0.145658 0)
(0.381978 0.155723 0)
(0.294079 0.0836473 0)
(0.19558 0.0485721 0)
(0.00367976 0.91025 0)
(0.0160812 0.914341 0)
(0.0287364 0.921047 0)
(0.052156 0.931028 0)
(0.0805041 0.939481 0)
(0.124847 0.948596 0)
(0.17755 0.94484 0)
(0.248573 0.937182 0)
(0.327984 0.899608 0)
(0.414874 0.843733 0)
(0.488627 0.741309 0)
(0.536787 0.624822 0)
(0.543677 0.498747 0)
(0.511666 0.375856 0)
(0.454337 0.285106 0)
(0.407523 0.221538 0)
(0.356221 0.184581 0)
(0.350125 0.177002 0)
(0.33935 0.162952 0)
(0.314894 0.151782 0)
(0.352865 0.0836657 0)
(0.361284 -0.0242578 0)
(0.369978 -0.0857975 0)
(0.00448261 0.904401 0)
(0.0190214 0.906071 0)
(0.0319232 0.908001 0)
(0.0541639 0.910419 0)
(0.078659 0.909802 0)
(0.11621 0.907805 0)
(0.158094 0.894501 0)
(0.213202 0.875801 0)
(0.270797 0.833256 0)
(0.333619 0.779502 0)
(0.384962 0.694738 0)
(0.418846 0.597263 0)
(0.431409 0.493062 0)
(0.424264 0.396948 0)
(0.395733 0.321555 0)
(0.371761 0.266633 0)
(0.342133 0.218974 0)
(0.332645 0.189569 0)
(0.336979 0.146216 0)
(0.355616 0.125692 0)
(0.391278 0.1046 0)
(0.394007 0.0563328 0)
(0.381377 0.0176839 0)
(0.00531055 0.887496 0)
(0.0213178 0.887445 0)
(0.0352833 0.88652 0)
(0.0569542 0.884286 0)
(0.0794185 0.877763 0)
(0.111586 0.868451 0)
(0.145659 0.847895 0)
(0.189029 0.823118 0)
(0.231608 0.778823 0)
(0.276521 0.728025 0)
(0.312843 0.655607 0)
(0.337706 0.576956 0)
(0.345102 0.492502 0)
(0.340857 0.411458 0)
(0.324259 0.337074 0)
(0.312946 0.276687 0)
(0.301507 0.223687 0)
(0.297021 0.18412 0)
(0.303032 0.140654 0)
(0.302085 0.101737 0)
(0.327453 0.0496024 0)
(0.344145 -0.00573119 0)
(0.368996 -0.0508611 0)
(0.00420514 0.877571 0)
(0.0177683 0.875869 0)
(0.0290559 0.872296 0)
(0.0474068 0.866066 0)
(0.0651934 0.855279 0)
(0.0912095 0.84126 0)
(0.116144 0.817392 0)
(0.148867 0.789506 0)
(0.178215 0.746398 0)
(0.210776 0.698155 0)
(0.235801 0.634399 0)
(0.256213 0.565521 0)
(0.263909 0.490974 0)
(0.268152 0.418501 0)
(0.260383 0.349939 0)
(0.256324 0.289561 0)
(0.249058 0.234407 0)
(0.251075 0.187194 0)
(0.256832 0.139863 0)
(0.270023 0.0979775 0)
(0.284439 0.0585007 0)
(0.297806 0.00961543 0)
(0.308007 -0.0229193 0)
(0.003754 0.865862 0)
(0.0157043 0.862806 0)
(0.024691 0.857203 0)
(0.0394962 0.848121 0)
(0.0528329 0.834224 0)
(0.0728999 0.817173 0)
(0.0915365 0.790418 0)
(0.116258 0.760415 0)
(0.137108 0.716937 0)
(0.160909 0.669715 0)
(0.17759 0.610094 0)
(0.192467 0.548316 0)
(0.197075 0.480495 0)
(0.200395 0.415018 0)
(0.196225 0.349122 0)
(0.195047 0.288771 0)
(0.193193 0.229752 0)
(0.196102 0.177627 0)
(0.204096 0.123396 0)
(0.215134 0.0766748 0)
(0.234769 0.0251699 0)
(0.252013 -0.0251075 0)
(0.275606 -0.0741229 0)
(0.00217173 0.858136 0)
(0.0108677 0.854908 0)
(0.0164044 0.848556 0)
(0.0268471 0.837859 0)
(0.0350358 0.821989 0)
(0.0487901 0.802446 0)
(0.0606142 0.774236 0)
(0.0773708 0.743869 0)
(0.0901731 0.702079 0)
(0.10639 0.657777 0)
(0.115629 0.603253 0)
(0.126882 0.546373 0)
(0.129846 0.483441 0)
(0.134749 0.4197 0)
(0.133349 0.355324 0)
(0.135261 0.292589 0)
(0.134786 0.232712 0)
(0.141413 0.175649 0)
(0.147443 0.119291 0)
(0.163776 0.0655685 0)
(0.180671 0.0186346 0)
(0.202965 -0.0338786 0)
(0.222414 -0.0796962 0)
(0.000273675 0.853114 0)
(0.00520025 0.848815 0)
(0.00719263 0.841543 0)
(0.0134248 0.829632 0)
(0.0173118 0.812576 0)
(0.0255304 0.791585 0)
(0.0318129 0.762078 0)
(0.0415439 0.730691 0)
(0.0485364 0.688074 0)
(0.0578121 0.644035 0)
(0.0621969 0.589718 0)
(0.0687575 0.533944 0)
(0.0692014 0.472808 0)
(0.0719014 0.411591 0)
(0.0707349 0.349066 0)
(0.0732323 0.287761 0)
(0.075488 0.22453 0)
(0.0834716 0.165739 0)
(0.093382 0.102576 0)
(0.10942 0.044765 0)
(0.131753 -0.0116445 0)
(0.158064 -0.0648693 0)
(0.19041 -0.12074 0)
(-0.00133292 0.852744 0)
(-0.00080566 0.848028 0)
(-0.00292651 0.840408 0)
(-0.0015289 0.827766 0)
(-0.00233241 0.809996 0)
(0.000164622 0.787981 0)
(0.000622355 0.758384 0)
(0.00353586 0.727258 0)
(0.00486581 0.686039 0)
(0.00773773 0.64435 0)
(0.00808085 0.592577 0)
(0.0099921 0.539694 0)
(0.00860025 0.480528 0)
(0.00972398 0.418443 0)
(0.00788454 0.353951 0)
(0.0103947 0.287834 0)
(0.0118681 0.221947 0)
(0.0205778 0.157343 0)
(0.0294373 0.0921793 0)
(0.0475807 0.0262192 0)
(0.0678579 -0.0320188 0)
(0.0974499 -0.0940681 0)
(0.13153 -0.15106 0)
(-0.0032105 0.855612 0)
(-0.00749107 0.850767 0)
(-0.0138937 0.842641 0)
(-0.0175434 0.829336 0)
(-0.0229602 0.811232 0)
(-0.0258104 0.788851 0)
(-0.030522 0.759012 0)
(-0.0335523 0.726563 0)
(-0.0373569 0.684098 0)
(-0.0405665 0.640863 0)
(-0.0441192 0.587638 0)
(-0.0480535 0.533448 0)
(-0.0519446 0.473274 0)
(-0.0554189 0.412402 0)
(-0.0584643 0.348823 0)
(-0.0574937 0.284064 0)
(-0.0560321 0.215082 0)
(-0.0478428 0.148637 0)
(-0.037095 0.0766284 0)
(-0.0195617 0.00702158 0)
(0.00240517 -0.0600769 0)
(0.0318408 -0.12765 0)
(0.0710225 -0.193784 0)
(-0.00543223 0.863573 0)
(-0.0146302 0.858835 0)
(-0.0255587 0.850601 0)
(-0.0344587 0.836966 0)
(-0.0450351 0.818422 0)
(-0.0535106 0.795697 0)
(-0.0633938 0.766329 0)
(-0.0719871 0.734326 0)
(-0.0807733 0.693317 0)
(-0.0897447 0.651445 0)
(-0.097404 0.600373 0)
(-0.106838 0.54793 0)
(-0.113584 0.488185 0)
(-0.121352 0.425321 0)
(-0.126577 0.356066 0)
(-0.130291 0.285491 0)
(-0.131791 0.211974 0)
(-0.128058 0.138192 0)
(-0.121796 0.0631501 0)
(-0.108472 -0.0138229 0)
(-0.092195 -0.0846765 0)
(-0.0644804 -0.163624 0)
(-0.0315481 -0.233745 0)
(-0.00790199 0.8761 0)
(-0.0227055 0.871321 0)
(-0.0385141 0.862892 0)
(-0.0527388 0.84921 0)
(-0.0683172 0.830694 0)
(-0.0823671 0.807568 0)
(-0.0974458 0.777858 0)
(-0.111913 0.744215 0)
(-0.126207 0.70214 0)
(-0.141627 0.657657 0)
(-0.154769 0.604929 0)
(-0.170582 0.549706 0)
(-0.182839 0.487956 0)
(-0.197308 0.425488 0)
(-0.206888 0.358114 0)
(-0.216902 0.289533 0)
(-0.22291 0.213397 0)
(-0.226891 0.139009 0)
(-0.225055 0.0577119 0)
(-0.218594 -0.0221361 0)
(-0.205839 -0.103277 0)
(-0.18774 -0.187854 0)
(-0.164828 -0.262423 0)
(-0.0105387 0.894418 0)
(-0.0312214 0.889702 0)
(-0.0525518 0.88088 0)
(-0.072659 0.867025 0)
(-0.0939761 0.848299 0)
(-0.113866 0.825102 0)
(-0.134561 0.796158 0)
(-0.154615 0.763446 0)
(-0.17456 0.723404 0)
(-0.195606 0.680496 0)
(-0.214712 0.629789 0)
(-0.236025 0.576585 0)
(-0.254159 0.51538 0)
(-0.275037 0.449888 0)
(-0.292286 0.375866 0)
(-0.312001 0.301768 0)
(-0.32501 0.22187 0)
(-0.339944 0.140348 0)
(-0.344651 0.054486 0)
(-0.355023 -0.0332608 0)
(-0.355497 -0.116201 0)
(-0.352526 -0.205101 0)
(-0.33767 -0.282702 0)
(-0.0134 0.918339 0)
(-0.0401638 0.913836 0)
(-0.06723 0.904817 0)
(-0.0933887 0.891122 0)
(-0.120592 0.872383 0)
(-0.146858 0.848613 0)
(-0.1741 0.819042 0)
(-0.201221 0.784575 0)
(-0.228451 0.74345 0)
(-0.256996 0.698024 0)
(-0.284286 0.645547 0)
(-0.314198 0.589246 0)
(-0.341645 0.527132 0)
(-0.370548 0.463752 0)
(-0.394865 0.395474 0)
(-0.421727 0.32259 0)
(-0.442609 0.241907 0)
(-0.466861 0.159116 0)
(-0.48895 0.0733273 0)
(-0.512582 -0.0107123 0)
(-0.513209 -0.10527 0)
(-0.508743 -0.205267 0)
(-0.478952 -0.30632 0)
(-0.0166843 0.948338 0)
(-0.0499954 0.943925 0)
(-0.0836344 0.934466 0)
(-0.116456 0.920764 0)
(-0.150145 0.902126 0)
(-0.182717 0.879019 0)
(-0.216334 0.850938 0)
(-0.249438 0.818329 0)
(-0.283394 0.77973 0)
(-0.317713 0.737034 0)
(-0.352155 0.687673 0)
(-0.387705 0.634777 0)
(-0.423001 0.572428 0)
(-0.460546 0.503823 0)
(-0.496793 0.427434 0)
(-0.533711 0.349991 0)
(-0.570186 0.267114 0)
(-0.616763 0.186924 0)
(-0.64716 0.100393 0)
(-0.653597 -0.00911839 0)
(-0.64463 -0.120155 0)
(-0.617505 -0.239743 0)
(-0.571359 -0.357575 0)
(-0.0199177 0.985592 0)
(-0.0595043 0.981407 0)
(-0.0996615 0.971876 0)
(-0.139387 0.958236 0)
(-0.180244 0.939233 0)
(-0.22066 0.915363 0)
(-0.262483 0.886271 0)
(-0.304128 0.852061 0)
(-0.347063 0.812089 0)
(-0.390614 0.767038 0)
(-0.434887 0.71578 0)
(-0.480021 0.660226 0)
(-0.523043 0.600224 0)
(-0.565929 0.537827 0)
(-0.609373 0.469203 0)
(-0.661079 0.396429 0)
(-0.713967 0.325815 0)
(-0.751282 0.236806 0)
(-0.750997 0.110576 0)
(-0.7496 -0.012729 0)
(-0.719137 -0.141244 0)
(-0.678046 -0.278416 0)
(-0.619927 -0.415483 0)
(-0.0234815 1.02819 0)
(-0.0698009 1.02415 0)
(-0.116766 1.01479 0)
(-0.163081 1.00182 0)
(-0.210265 0.983867 0)
(-0.256812 0.961813 0)
(-0.304747 0.93499 0)
(-0.352091 0.903644 0)
(-0.401123 0.866978 0)
(-0.449829 0.825801 0)
(-0.500521 0.777985 0)
(-0.551642 0.724003 0)
(-0.606503 0.659222 0)
(-0.665101 0.591019 0)
(-0.728291 0.523172 0)
(-0.792232 0.455424 0)
(-0.831632 0.357584 0)
(-0.828544 0.224156 0)
(-0.827387 0.0987251 0)
(-0.801743 -0.0413484 0)
(-0.758845 -0.192106 0)
(-0.703568 -0.339682 0)
(-0.642469 -0.485236 0)
(-0.0270628 1.07965 0)
(-0.0802401 1.07553 0)
(-0.134663 1.06596 0)
(-0.188891 1.05252 0)
(-0.244462 1.03371 0)
(-0.299984 1.01053 0)
(-0.357013 0.982163 0)
(-0.41377 0.948942 0)
(-0.471848 0.910272 0)
(-0.529113 0.866751 0)
(-0.586815 0.817931 0)
(-0.643879 0.766418 0)
(-0.704675 0.714082 0)
(-0.7734 0.660142 0)
(-0.847627 0.597136 0)
(-0.890218 0.500259 0)
(-0.884364 0.362684 0)
(-0.884979 0.232888 0)
(-0.859805 0.0838643 0)
(-0.815547 -0.0810767 0)
(-0.76687 -0.2396 0)
(-0.712537 -0.394851 0)
(-0.654282 -0.543218 0)
(-0.0299488 1.13587 0)
(-0.0888712 1.13222 0)
(-0.148764 1.12389 0)
(-0.208169 1.11213 0)
(-0.268679 1.09552 0)
(-0.328925 1.07506 0)
(-0.390632 1.04953 0)
(-0.452029 1.01941 0)
(-0.515607 0.983271 0)
(-0.579162 0.941924 0)
(-0.646297 0.893827 0)
(-0.714361 0.84319 0)
(-0.788939 0.789895 0)
(-0.865316 0.735037 0)
(-0.918417 0.640761 0)
(-0.913791 0.492582 0)
(-0.915253 0.352359 0)
(-0.897935 0.199243 0)
(-0.853669 0.0288636 0)
(-0.811914 -0.135101 0)
(-0.761911 -0.295914 0)
(-0.711922 -0.453161 0)
(-0.656291 -0.603779 0)
(-0.0342594 1.19956 0)
(-0.101581 1.19549 0)
(-0.170113 1.18631 0)
(-0.238243 1.17341 0)
(-0.307306 1.15535 0)
(-0.376108 1.13325 0)
(-0.445551 1.10593 0)
(-0.514365 1.07444 0)
(-0.584252 1.03788 0)
(-0.655344 0.997763 0)
(-0.731252 0.953533 0)
(-0.81185 0.909263 0)
(-0.89327 0.865526 0)
(-0.954 0.79028 0)
(-0.949902 0.645706 0)
(-0.942253 0.49734 0)
(-0.928068 0.346949 0)
(-0.884769 0.171594 0)
(-0.842196 -0.00206796 0)
(-0.795019 -0.172647 0)
(-0.746208 -0.339449 0)
(-0.693613 -0.500304 0)
(-0.641737 -0.654356 0)
(-0.0358096 1.27205 0)
(-0.106046 1.26857 0)
(-0.178179 1.2611 0)
(-0.250044 1.24999 0)
(-0.322968 1.23417 0)
(-0.395401 1.21427 0)
(-0.46901 1.18885 0)
(-0.542049 1.15937 0)
(-0.617047 1.12552 0)
(-0.693163 1.09046 0)
(-0.775532 1.05176 0)
(-0.861967 1.00696 0)
(-0.941688 0.933214 0)
(-0.955496 0.792311 0)
(-0.939467 0.629333 0)
(-0.935342 0.470472 0)
(-0.900347 0.294333 0)
(-0.858433 0.112395 0)
(-0.815665 -0.0619409 0)
(-0.766189 -0.232172 0)
(-0.718242 -0.398529 0)
(-0.666478 -0.55883 0)
(-0.616568 -0.711904 0)
(-0.0413034 1.3425 0)
(-0.122968 1.33902 0)
(-0.204922 1.33127 0)
(-0.285539 1.31904 0)
(-0.366236 1.30137 0)
(-0.44685 1.2798 0)
(-0.528007 1.25295 0)
(-0.608931 1.22271 0)
(-0.691264 1.18921 0)
(-0.774927 1.15637 0)
(-0.858932 1.12257 0)
(-0.938578 1.07539 0)
(-0.971406 0.959247 0)
(-0.954879 0.787764 0)
(-0.94386 0.625644 0)
(-0.913335 0.45852 0)
(-0.867672 0.27048 0)
(-0.821298 0.0874777 0)
(-0.77485 -0.0938133 0)
(-0.725633 -0.269531 0)
(-0.676918 -0.438624 0)
(-0.626998 -0.60139 0)
(-0.577932 -0.755801 0)
(-0.0413098 1.43728 0)
(-0.122899 1.43335 0)
(-0.205449 1.42488 0)
(-0.287089 1.41266 0)
(-0.370841 1.39705 0)
(-0.453554 1.37777 0)
(-0.537554 1.35278 0)
(-0.622389 1.3246 0)
(-0.711008 1.29346 0)
(-0.800842 1.26023 0)
(-0.889856 1.21711 0)
(-0.951675 1.12156 0)
(-0.948448 0.949973 0)
(-0.928938 0.765239 0)
(-0.916093 0.587189 0)
(-0.870861 0.393237 0)
(-0.829653 0.200877 0)
(-0.782461 0.0179691 0)
(-0.735516 -0.159124 0)
(-0.687394 -0.33172 0)
(-0.640247 -0.498789 0)
(-0.591386 -0.659516 0)
(-0.545469 -0.813482 0)
(-0.0471094 1.50674 0)
(-0.140789 1.50329 0)
(-0.234525 1.49542 0)
(-0.327719 1.48424 0)
(-0.419773 1.46743 0)
(-0.509886 1.44596 0)
(-0.601301 1.42118 0)
(-0.69311 1.39556 0)
(-0.787445 1.36722 0)
(-0.877307 1.33464 0)
(-0.953685 1.27326 0)
(-0.965231 1.13261 0)
(-0.945661 0.936455 0)
(-0.917977 0.75496 0)
(-0.880401 0.568245 0)
(-0.826704 0.372793 0)
(-0.780244 0.183099 0)
(-0.730909 -0.00561787 0)
(-0.685176 -0.187874 0)
(-0.636438 -0.363811 0)
(-0.591904 -0.533506 0)
(-0.542802 -0.695086 0)
(-0.498627 -0.850312 0)
(-0.0461682 1.62816 0)
(-0.138264 1.62398 0)
(-0.230316 1.61496 0)
(-0.322614 1.60122 0)
(-0.413773 1.58265 0)
(-0.506345 1.56289 0)
(-0.598553 1.53954 0)
(-0.693782 1.51411 0)
(-0.789381 1.48091 0)
(-0.88107 1.42915 0)
(-0.940981 1.30728 0)
(-0.931196 1.11491 0)
(-0.905049 0.902624 0)
(-0.880097 0.69949 0)
(-0.830254 0.494198 0)
(-0.789397 0.291287 0)
(-0.740768 0.102822 0)
(-0.69562 -0.0792313 0)
(-0.649437 -0.25573 0)
(-0.603566 -0.427193 0)
(-0.559374 -0.594693 0)
(-0.513571 -0.755125 0)
(-0.469717 -0.908922 0)
(-0.0523642 1.68819 0)
(-0.156252 1.68466 0)
(-0.261187 1.67687 0)
(-0.365497 1.66477 0)
(-0.469788 1.6481 0)
(-0.571873 1.62763 0)
(-0.672747 1.60576 0)
(-0.773279 1.58405 0)
(-0.86649 1.55233 0)
(-0.942338 1.48495 0)
(-0.955656 1.32159 0)
(-0.928867 1.09591 0)
(-0.891629 0.885298 0)
(-0.847366 0.680665 0)
(-0.792011 0.478864 0)
(-0.741737 0.284564 0)
(-0.692906 0.0912111 0)
(-0.643444 -0.0955211 0)
(-0.600287 -0.278144 0)
(-0.553452 -0.452259 0)
(-0.511245 -0.62155 0)
(-0.465668 -0.782832 0)
(-0.424024 -0.937943 0)
(-0.0510493 1.84447 0)
(-0.152486 1.84067 0)
(-0.254435 1.83193 0)
(-0.355724 1.8174 0)
(-0.456761 1.79665 0)
(-0.55727 1.77329 0)
(-0.659078 1.7478 0)
(-0.759539 1.71392 0)
(-0.854503 1.65485 0)
(-0.920792 1.52193 0)
(-0.911398 1.29534 0)
(-0.880843 1.05086 0)
(-0.851022 0.820048 0)
(-0.801606 0.597857 0)
(-0.758114 0.386097 0)
(-0.705804 0.189336 0)
(-0.66124 0.00156273 0)
(-0.612088 -0.174638 0)
(-0.569671 -0.348691 0)
(-0.525181 -0.51926 0)
(-0.485064 -0.685768 0)
(-0.441747 -0.845815 0)
(-0.402609 -1.00046 0)
(-0.0567608 1.88198 0)
(-0.169492 1.87865 0)
(-0.283838 1.87071 0)
(-0.397934 1.85802 0)