/*--------------------------------*- C++ -*----------------------------------*\
| =========                 |                                                 |
| \\      /  F ield         | OpenFOAM: The Open Source CFD Toolbox           |
|  \\    /   O peration     | Version:  2012                                  |
|   \\  /    A nd           | Website:  www.openfoam.com                      |
|    \\/     M anipulation  |                                                 |
\*---------------------------------------------------------------------------*/
FoamFile
{
    version     2.0;
    format      ascii;
    class       volScalarField;
    location    "1.1";
    object      rho1;
}
// * * * * * * * * * * * * * * * * * * * * * * * * * * * * * * * * * * * * * //

dimensions      [1 -3 0 0 0 0 0];


internalField   nonuniform List<scalar> 
160
(
1035.265879
1035.269557
1035.280292
1035.306578
1035.333103
1035.381087
1035.418626
1035.477778
1035.51999
1035.584228
1035.618691
1035.684234
1035.714742
1035.758797
1035.775159
1035.809567
1035.805323
1035.81687
1035.807033
1035.748176
1035.729172
1035.657739
1035.621112
1035.5311
1035.477381
1035.374466
1035.306581
1035.195904
1035.115712
1035.003095
1034.91193
1034.799825
1034.701512
1034.591253
1034.484427
1034.379837
1034.270066
1034.173336
1034.063274
1033.974452
1033.869233
1033.789718
1033.694331
1033.627793
1033.545503
1033.493879
1033.427199
1033.388452
1033.337206
1033.309796
1033.272349
1033.25319
1033.225927
1033.21271
1033.192283
1033.183085
1033.167596
1033.162328
1033.15195
1033.148913
1033.142283
1033.140323
1033.136533
1033.137268
1033.134891
1033.135959
1033.134495
1033.135713
1033.137166
1033.138045
1033.139823
1033.14094
1033.142824
1033.144062
1033.146074
1033.147409
1033.149439
1033.150712
1033.152503
1033.153576
1033.155078
1033.155907
1033.157131
1033.15792
1033.158727
1033.159174
1033.159759
1033.159895
1033.160374
1033.160406
1033.160787
1033.16072
1033.160964
1033.160804
1033.160916
1033.160664
1033.160682
1033.160444
1033.160308
1033.160014
1033.159608
1033.159423
1033.158904
1033.158623
1033.158117
1033.1578
1033.15729
1033.156945
1033.156437
1033.156098
1033.155613
1033.155277
1033.154906
1033.154623
1033.154308
1033.154133
1033.153901
1033.153757
1033.153685
1033.153568
1033.153498
1033.153396
1033.153336
1033.153269
1033.153213
1033.153136
1033.15307
1033.152975
1033.152882
1033.152741
1033.152603
1033.152428
1033.152203
1033.152035
1033.151663
1033.151314
1033.150577
1033.15001
1033.149327
1033.148693
1033.148055
1033.147377
1033.146686
1033.145913
1033.145393
1033.144811
1033.144187
1033.143679
1033.14322
1033.142847
1033.142521
1033.142227
1033.142005
1033.141834
1033.141603
1033.141482
1033.141406
1033.141272
1033.141143
1033.14099
)
;

boundaryField
{
    sides
    {
        type            calculated;
        value           nonuniform List<scalar> 2(1033.14099 1035.265879);
    }
    empty1
    {
        type            empty;
    }
    empty2
    {
        type            empty;
    }
}


// ************************************************************************* //
