/*--------------------------------*- C++ -*----------------------------------*\
| =========                 |                                                 |
| \\      /  F ield         | OpenFOAM: The Open Source CFD Toolbox           |
|  \\    /   O peration     | Version:  2012                                  |
|   \\  /    A nd           | Website:  www.openfoam.com                      |
|    \\/     M anipulation  |                                                 |
\*---------------------------------------------------------------------------*/
FoamFile
{
    version     2.0;
    format      ascii;
    class       volScalarField;
    location    "1.1";
    object      volumeFraction1;
}
// * * * * * * * * * * * * * * * * * * * * * * * * * * * * * * * * * * * * * //

dimensions      [0 0 0 0 0 0 0];


internalField   nonuniform List<scalar> 
160
(
7.949598638e-05
0.0003429500419
0.001112751523
0.002771506058
0.006105925026
0.0119189024
0.02038828316
0.03231555383
0.04697164809
0.06226369749
0.07951869208
0.09884611081
0.1200370249
0.1414449157
0.1659651821
0.1921740152
0.2225745441
0.2548177861
0.2922572333
0.328724819
0.3633705577
0.3938045972
0.4215242933
0.4448195139
0.4651225461
0.480993834
0.4939745827
0.5035438703
0.5107372869
0.5145358216
0.516913605
0.5180313321
0.5180336521
0.517480248
0.5165406019
0.5127852759
0.506615039
0.4989260654
0.4869024458
0.4711267426
0.4528375271
0.4299188938
0.4028384829
0.373739081
0.3395983807
0.3047479692
0.2718277076
0.2404636056
0.2113061445
0.1849064999
0.1603025196
0.1387837468
0.118563789
0.1010196393
0.08537385094
0.07205061826
0.06005013709
0.04997476002
0.04132377851
0.03421061953
0.02803856742
0.02308652937
0.01897900124
0.01544441112
0.01283621882
0.01043910386
0.008464201502
0.007219784199
0.005743677624
0.005067650991
0.004126998058
0.003590808227
0.003019251234
0.002629373118
0.00226659901
0.002010244644
0.00173814012
0.001588647528
0.001359982461
0.001266302091
0.001103732928
0.001020281929
0.0008982360232
0.0008134274525
0.0007512038557
0.0006810825178
0.0006247173197
0.0005673302286
0.0005226941118
0.0004753101482
0.0004371450932
0.0003995155043
0.0003681897265
0.0003371888378
0.0003110483378
0.0002855618133
0.0002634760961
0.0002422176263
0.0002232531174
0.000205824327
0.0001893129258
0.0001748896757
0.0001609460721
0.0001486996188
0.0001369806031
0.0001264403978
0.0001165591173
0.0001076383344
9.915438519e-05
9.158327733e-05
8.432511697e-05
7.791734052e-05
7.1737601e-05
6.626755692e-05
6.105326513e-05
5.63672039e-05
5.195153045e-05
4.7927912e-05
4.416442263e-05
4.069024217e-05
3.746626894e-05
3.446813243e-05
3.168321672e-05
2.914327573e-05
2.672402134e-05
2.453061407e-05
2.2470957e-05
2.056973615e-05
1.881006229e-05
1.719127146e-05
1.568686632e-05
1.426620805e-05
1.299926615e-05
1.179407062e-05
1.072584362e-05
9.662618002e-06
8.741940427e-06
7.88627036e-06
7.101381897e-06
6.375367001e-06
5.720185957e-06
5.122707612e-06
4.582929936e-06
4.093766049e-06
3.649623466e-06
3.251781327e-06
2.889817696e-06
2.569983322e-06
2.283241353e-06
2.029938756e-06
1.803743726e-06
1.607730449e-06
1.436521794e-06
1.29106901e-06
1.167498638e-06
1.067753239e-06
9.882955376e-07
9.308741813e-07
8.962473338e-07
8.663149262e-07
)
;

boundaryField
{
    sides
    {
        type            zeroGradient;
    }
    empty1
    {
        type            empty;
    }
    empty2
    {
        type            empty;
    }
}


// ************************************************************************* //
