# vtk DataFile Version 2.0
gauge_2
ASCII
DATASET POLYDATA
POINTS 43 double
0.2 0.0359992 0.005
0.2 0.0419991 0.005
0.2 0.047999 0.005
0.2 0.0607609 0.005
0.2 0.0735228 0.005
0.2 0.0862847 0.005
0.2 0.0990467 0.005
0.2 0.111809 0.005
0.2 0.124571 0.005
0.2 0.137332 0.005
0.2 0.150094 0.005
0.2 0.162856 0.005
0.2 0.175618 0.005
0.2 0.18838 0.005
0.2 0.201142 0.005
0.2 0.213904 0.005
0.2 0.226666 0.005
0.2 0.239428 0.005
0.2 0.25219 0.005
0.2 0.264952 0.005
0.2 0.277714 0.005
0.2 0.290476 0.005
0.2 0.303238 0.005
0.2 0.315999 0.005
0.2 0.328761 0.005
0.2 0.341523 0.005
0.2 0.354285 0.005
0.2 0.367047 0.005
0.2 0.379809 0.005
0.2 0.392571 0.005
0.2 0.405333 0.005
0.2 0.418095 0.005
0.2 0.430857 0.005
0.2 0.443619 0.005
0.2 0.456381 0.005
0.2 0.469143 0.005
0.2 0.481905 0.005
0.2 0.494666 0.005
0.2 0.507428 0.005
0.2 0.52019 0.005
0.2 0.532952 0.005
0.2 0.545714 0.005
0.2 0.558476 0.005
POINT_DATA 43
 FIELD attributes 1
alpha.water 1 43 float
1 1 1 1 0.773353 0.285393 0.0120401 1.54124e-05 2.06449e-05 5.43294e-06 1.34124e-08 5.19938e-08 5.53485e-08 1.6282e-08 2.08354e-12 6.42985e-13 1.53645e-13 3.67516e-14 7.95825e-15 6.64312e-16 8.4038e-17 1.92637e-17 4.44655e-18 8.49709e-19 1.3117e-19 1.80923e-20 2.42539e-21 3.46298e-22 6.14271e-23 1.1543e-23 2.02627e-24 3.1516e-25 4.24814e-26 5.04013e-27 5.52493e-28 5.80146e-29 5.76738e-30 5.12726e-31 3.72628e-32 1.99237e-33 7.14445e-35 1.63617e-36 2.54196e-38
