/*--------------------------------*- C++ -*----------------------------------*\
| =========                 |                                                 |
| \\      /  F ield         | OpenFOAM: The Open Source CFD Toolbox           |
|  \\    /   O peration     | Version:  3.0.1                                 |
|   \\  /    A nd           | Web:      www.OpenFOAM.org                      |
|    \\/     M anipulation  |                                                 |
\*---------------------------------------------------------------------------*/
FoamFile
{
    version     2.0;
    format      ascii;
    class       volScalarField;
    location    "0.01";
    object      T;
}
// * * * * * * * * * * * * * * * * * * * * * * * * * * * * * * * * * * * * * //

dimensions      [0 0 0 1 0 0 0];

internalField   nonuniform List<scalar> 
50
(
495.05
494.848
495.007
495.313
495.73
496.279
496.944
497.698
498.512
499.353
500.195
501.022
501.784
502.184
502.128
501.852
501.213
500.115
498.456
496.087
492.785
488.202
481.685
471.676
453.185
411.359
375.708
353.326
337.329
324.33
313.171
303.345
294.545
286.609
279.238
272.992
263.97
265.405
452.337
475.724
475.037
473.273
468.839
460.912
453.128
450.883
451.921
456.586
466.945
479.874
)
;

boundaryField
{
    inlet
    {
        type            totalTemperature;
        gamma           1.4;
        T0              uniform 500;
        value           uniform 494.949;
    }
    outlet
    {
        type            zeroGradient;
    }
    upperWall
    {
        type            zeroGradient;
    }
    lowerWall
    {
        type            zeroGradient;
    }
    frontAndBack
    {
        type            empty;
    }
}


// ************************************************************************* //
