/*--------------------------------*- C++ -*----------------------------------*\
| =========                 |                                                 |
| \\      /  F ield         | OpenFOAM: The Open Source CFD Toolbox           |
|  \\    /   O peration     | Version:  3.0.1                                 |
|   \\  /    A nd           | Web:      www.OpenFOAM.org                      |
|    \\/     M anipulation  |                                                 |
\*---------------------------------------------------------------------------*/
FoamFile
{
    version     2.0;
    format      ascii;
    class       volVectorField;
    location    "0.02";
    object      U;
}
// * * * * * * * * * * * * * * * * * * * * * * * * * * * * * * * * * * * * * //

dimensions      [0 1 -1 0 0 0 0];

internalField   nonuniform List<vector> 
50
(
(85.3567 1.13049e-12 0)
(88.8303 1.02382e-12 0)
(91.6336 6.43992e-12 0)
(94.3888 -4.93266e-11 -9.83891e-15)
(97.5545 3.97955e-10 -1.00897e-14)
(100.921 -2.78238e-09 -1.04185e-14)
(104.53 1.7967e-08 0)
(108.436 -1.09689e-07 0)
(112.66 6.14027e-07 -1.14483e-14)
(117.24 -3.13696e-06 -1.18412e-14)
(122.223 1.45733e-05 0)
(127.662 -6.11984e-05 -1.27145e-14)
(133.619 0.000231137 0)
(140.174 -0.000781045 0)
(147.425 0.00234543 -1.42896e-14)
(155.492 -0.00619387 0)
(164.532 0.0141119 -1.55613e-14)
(174.754 -0.0266887 0)
(186.438 0.0383838 0)
(199.987 -0.0315792 0)
(216.008 -0.0152584 0)
(235.494 0.0849382 0)
(260.285 -0.0865173 0)
(294.447 -0.0297528 0)
(349.489 0.0729084 0)
(450.163 0.19223 0)
(521.057 -0.189393 0)
(560.834 -0.280847 0)
(587.493 -0.119531 0)
(608.247 0.151691 0)
(625.495 0.249736 0)
(640.285 0.270003 0)
(653.248 0.166858 0)
(664.686 0.0218204 9.30592e-15)
(675.191 -0.0668818 0)
(683.782 -0.171741 7.91986e-15)
(696.438 -0.15603 0)
(695.048 0.0600661 0)
(407.317 -16.2362 1.01507e-14)
(255.643 16.1292 0)
(227.815 13.4719 1.18051e-14)
(218.857 1.18769 1.09465e-14)
(209.365 -7.88609 0)
(200.527 -10.0444 0)
(192.923 -6.59332 9.78532e-15)
(185.953 -0.620617 0)
(179.078 3.67932 9.34143e-15)
(172.6 5.15237 0)
(169.28 1.77925 0)
(160.405 0.59222 0)
)
;

boundaryField
{
    inlet
    {
        type            zeroGradient;
    }
    outlet
    {
        type            zeroGradient;
    }
    upperWall
    {
        type            slip;
    }
    lowerWall
    {
        type            slip;
    }
    frontAndBack
    {
        type            empty;
    }
}


// ************************************************************************* //
