/*--------------------------------*- C++ -*----------------------------------*\
| =========                 |                                                 |
| \\      /  F ield         | OpenFOAM: The Open Source CFD Toolbox           |
|  \\    /   O peration     | Version:  3.0.1                                 |
|   \\  /    A nd           | Web:      www.OpenFOAM.org                      |
|    \\/     M anipulation  |                                                 |
\*---------------------------------------------------------------------------*/
FoamFile
{
    version     2.0;
    format      ascii;
    class       surfaceScalarField;
    location    "5e-05";
    object      phi;
}
// * * * * * * * * * * * * * * * * * * * * * * * * * * * * * * * * * * * * * //

dimensions      [1 0 -1 0 0 0 0];

internalField   nonuniform List<scalar> 
1890
(
1.25767e-17
1.77809e-17
1.12757e-17
1.01915e-17
-6.93889e-17
2.11419e-17
3.9465e-17
2.47198e-17
2.60209e-18
1.72388e-17
-4.29344e-17
2.04914e-17
3.90313e-18
3.10082e-17
-1.99493e-17
2.01662e-17
1.34441e-17
1.36609e-17
-5.85469e-17
1.66967e-17
5.72459e-17
3.62124e-17
-1.30104e-18
2.00577e-17
8.67362e-18
2.71051e-17
-7.54605e-17
1.97325e-17
-7.80626e-18
3.71881e-17
-1.04083e-17
4.97649e-17
1.32501e-33
3.41524e-17
-1.64799e-17
3.33934e-17
-4.33681e-17
1.96241e-17
4.72712e-17
3.18755e-17
2.1684e-17
2.51535e-17
9.97466e-18
3.1984e-17
1.34441e-17
2.71051e-17
2.12504e-17
2.21177e-17
6.28837e-17
2.72135e-17
3.68629e-17
1.99493e-17
8.76035e-17
2.21177e-17
1.14188e-15
1.95156e-17
1.15003e-14
4.65123e-17
9.42844e-14
2.75387e-17
7.31243e-13
3.23092e-17
5.35479e-12
9.54098e-18
3.75451e-11
-1.43115e-17
2.47061e-10
7.69784e-18
1.54634e-09
-2.94903e-17
9.00019e-09
-2.01987e-16
4.93402e-08
-1.36458e-15
2.48673e-07
-7.98168e-15
1.1635e-06
-3.38196e-14
4.93018e-06
-1.5311e-13
1.89653e-05
-4.7953e-13
6.46335e-05
-1.71454e-12
0.000192732
-3.22317e-12
0.000488874
-7.49335e-12
0.000996543
3.4333e-12
0.0015225
2.23475e-11
0.00185825
1.10772e-10
0.00191326
6.74869e-11
0.00182805
2.54522e-10
0.0017605
-1.36548e-10
0.0016969
8.24655e-11
0.00173052
-1.74627e-10
0.00189266
-7.94349e-11
0.0018481
-1.3343e-10
0.00118303
-5.10323e-11
0.000544469
-1.43939e-11
0.000207895
5.61545e-12
6.83149e-05
2.16632e-12
1.9796e-05
1.36051e-12
5.10491e-06
3.421e-13
1.19821e-06
1.16875e-13
2.55239e-07
2.34766e-14
5.05094e-08
5.70854e-15
9.20008e-09
8.11634e-16
1.57835e-09
6.451e-17
2.51999e-10
1.98409e-17
3.82586e-11
1.87567e-17
5.45441e-12
9.32414e-18
7.44317e-13
2.40693e-17
9.59424e-14
2.38524e-17
1.17384e-14
2.25514e-17
1.22992e-15
2.10335e-17
6.89553e-17
2.35272e-17
1.30104e-17
2.32019e-17
9.97466e-18
2.68882e-17
3.03577e-18
1.76725e-17
-6.72205e-17
1.53957e-17
-3.03577e-18
1.71304e-17
1.12757e-17
1.30104e-17
-4.81386e-17
7.37257e-18
-3.55618e-17
2.54788e-17
-3.33934e-17
1.43115e-17
3.51282e-17
3.1225e-17
3.64292e-17
3.31766e-17
5.07407e-17
3.69713e-17
2.81893e-17
3.24176e-17
-4.38018e-17
3.23092e-17
-4.94396e-17
3.76218e-17
3.42608e-17
3.91397e-17
3.16587e-17
2.94903e-17
6.07153e-18
2.74303e-17
2.73219e-17
1.77809e-17
3.1225e-17
6.93889e-18
-3.68629e-17
-1.30104e-18
1.04083e-17
1.77809e-17
-3.90313e-18
1.57209e-17
-4.46691e-17
7.26415e-18
1.86483e-17
1.55041e-17
-5.37764e-17
1.25767e-17
1.81062e-17
-1.73472e-17
3.9465e-17
5.85469e-17
3.46945e-17
-5.85469e-17
1.26852e-17
2.86229e-17
2.56956e-17
1.30104e-17
9.75782e-18
-3.90313e-18
8.78204e-18
-3.16587e-17
1.66967e-17
-3.64292e-17
2.92735e-17
3.20924e-17
3.98986e-17
-2.60209e-18
2.61293e-17
-6.62507e-34
2.97071e-17
2.47198e-17
3.17671e-17
-1.82146e-17
3.13334e-17
-9.1073e-18
5.49691e-17
2.81893e-17
6.08237e-17
-5.85469e-17
6.81963e-17
-1.12757e-17
7.03647e-17
-6.33174e-17
6.53774e-17
-9.1073e-18
5.89806e-17
1.86483e-17
5.74627e-17
4.64039e-17
5.56196e-17
-2.1684e-18
4.74881e-17
-3.03577e-18
4.05492e-17
3.68629e-17
3.51282e-17
2.34188e-17
2.85145e-17
5.1608e-17
3.10082e-17
9.36751e-17
-1.51788e-18
1.1705e-15
-5.42101e-18
1.14986e-14
6.61363e-18
9.42536e-14
2.53703e-17
7.31197e-13
1.21431e-17
5.35475e-12
1.60462e-17
3.75451e-11
1.37694e-17
2.47061e-10
-1.35525e-17
1.54634e-09
-2.02637e-16
9.00019e-09
-7.00286e-16
4.93402e-08
-2.01629e-15
2.48673e-07
-7.9523e-15
1.1635e-06
-2.95033e-14
4.93018e-06
-1.08594e-13
1.89653e-05
-2.58614e-13
6.46336e-05
-4.88212e-13
0.000192732
4.39076e-13
0.000488875
6.34549e-12
0.000996543
2.05403e-11
0.0015225
7.73938e-11
0.00185825
1.06002e-10
0.00191326
9.7513e-11
0.00182805
-4.57559e-11
0.0017605
4.72862e-11
0.0016969
-7.08299e-11
0.00173052
4.53876e-11
0.00189266
-3.9505e-11
0.0018481
-1.17914e-10
0.00118303
-1.05032e-10
0.00054447
-2.43633e-11
0.000207895
-7.24331e-12
6.8315e-05
-7.29159e-13
1.9796e-05
4.02643e-13
5.10492e-06
2.25614e-13
1.19821e-06
9.93272e-14
2.5524e-07
2.68683e-14
5.05095e-08
7.35078e-15
9.20008e-09
1.80422e-15
1.57835e-09
6.90203e-16
2.51999e-10
1.98409e-16
3.82586e-11
6.5269e-17
5.45443e-12
3.50197e-17
7.44319e-13
2.51535e-17
9.59393e-14
4.49944e-17
1.17428e-14
3.67545e-17
1.22949e-15
4.05492e-17
6.89553e-17
2.67798e-17
2.94903e-17
2.15756e-17
-1.56125e-17
1.45283e-17
-8.67362e-19
1.06252e-17
-7.15573e-17
2.13588e-17
-1.64799e-17
4.33681e-17
-1.51788e-17
4.53197e-17
2.0383e-17
3.79471e-17
-6.54858e-17
3.02492e-17
2.51535e-17
5.04154e-17
3.64292e-17
5.62701e-17
5.94143e-17
6.00648e-17
3.03577e-17
4.43439e-17
2.94903e-17
3.77302e-17
-3.42608e-17
2.94903e-17
-3.64292e-17
4.54281e-17
-4.77049e-18
5.25838e-17
1.9082e-17
4.55365e-17
-3.29597e-17
3.02492e-17
-1.73472e-17
3.64292e-17
1.30104e-18
2.40693e-17
2.77556e-17
1.39862e-17
4.33681e-18
7.58942e-19
-3.55618e-17
1.84314e-18
-2.60209e-18
2.07083e-17
6.07153e-18
2.94903e-17
-3.85976e-17
2.86229e-17
3.52366e-17
-2.64545e-17
5.96311e-18
-2.1684e-17
2.42861e-17
-1.69136e-17
2.47198e-17
-2.86229e-17
2.41777e-17
5.20417e-18
2.04914e-17
1.9082e-17
6.61363e-18
8.23994e-18
3.03577e-18
-8.67362e-19
1.19262e-17
-2.1684e-17
9.6494e-18
3.90313e-18
3.6646e-17
1.77809e-17
3.02492e-17
3.38271e-17
3.7405e-17
8.23994e-17
4.47775e-17
1.17094e-17
4.03323e-17
6.15827e-17
4.81386e-17
-6.07153e-17
4.52112e-17
-2.1684e-17
4.93312e-17
-8.2833e-17
5.21501e-17
-1.60462e-17
6.48353e-17
2.77556e-17
6.78711e-17
9.97466e-18
6.46184e-17
-3.68629e-17
4.26091e-17
-2.42861e-17
2.80808e-17
7.80626e-18
2.63461e-17
2.42861e-17
2.4503e-17
-6.54858e-17
1.17094e-17
6.50521e-17
1.94072e-17
1.20173e-15
4.33681e-18
1.15272e-14
-7.04731e-18
9.42519e-14
-1.64799e-17
7.31195e-13
-1.56125e-17
5.35474e-12
8.13152e-18
3.75449e-11
1.56125e-17
2.4706e-10
8.46762e-17
1.54633e-09
5.4492e-16
9.00015e-09
2.95922e-15
4.934e-08
1.45926e-14
2.48672e-07
7.8356e-14
1.1635e-06
3.34828e-13
4.93017e-06
1.53661e-12
1.89653e-05
5.15692e-12
6.46335e-05
1.90506e-11
0.000192732
4.52827e-11
0.000488874
1.194e-10
0.000996543
1.44264e-10
0.0015225
1.36598e-10
0.00185825
-2.43417e-10
0.00191326
1.64382e-11
0.00182805
-1.043e-09
0.00176049
5.58382e-10
0.0016969
-3.92958e-10
0.00173052
6.52291e-10
0.00189266
1.90289e-10
0.0018481
3.01768e-10
0.00118303
-1.0027e-10
0.00054447
-1.42525e-10
0.000207895
-1.19431e-10
6.83149e-05
-4.38032e-11
1.9796e-05
-1.86006e-11
5.1049e-06
-4.9775e-12
1.19821e-06
-1.49336e-12
2.55239e-07
-3.23077e-13
5.05093e-08
-7.59571e-14
9.20004e-09
-1.40543e-14
1.57834e-09
-2.84679e-15
2.51998e-10
-5.17923e-16
3.82584e-11
-1.06252e-16
5.45441e-12
9.75782e-19
7.44342e-13
-1.84314e-18
9.59424e-14
1.73472e-18
1.17276e-14
1.25767e-17
1.2091e-15
1.14925e-17
4.42354e-17
2.81893e-18
3.46945e-18
2.43945e-17
-3.68629e-17
1.79978e-17
4.64039e-17
4.44523e-18
2.08167e-17
-9.1073e-18
-1.73472e-18
-5.42101e-18
-4.59702e-17
-2.92735e-18
-6.93889e-18
3.05745e-17
9.1073e-18
2.87314e-17
3.90313e-17
3.52366e-17
4.85723e-17
3.15503e-17
1.30104e-18
3.78387e-17
1.21431e-17
2.82977e-17
3.03577e-18
2.52619e-17
2.42861e-17
3.3285e-17
-1.04083e-17
1.61546e-17
-4.64039e-17
1.81062e-17
-3.55618e-17
1.43115e-17
-1.30104e-17
1.66967e-17
-6.63532e-17
2.63461e-17
-2.81893e-17
3.6646e-17
-2.47198e-17
3.07913e-17
9.54098e-18
3.30682e-17
4.25007e-17
2.90566e-17
2.55872e-17
1.84314e-17
6.07153e-18
1.6263e-18
-1.34441e-17
-2.49366e-18
1.2902e-17
4.16334e-17
2.42861e-17
-3.25261e-17
1.22515e-17
-2.21177e-17
2.12504e-17
-5.89806e-17
3.77302e-17
-3.46945e-17
3.80555e-17
1.95156e-17
3.61039e-17
4.46691e-17
2.52619e-17
7.80626e-18
2.35272e-17
8.37004e-17
2.11419e-17
-6.50521e-18
-8.67362e-19
3.51282e-17
3.46945e-18
6.85216e-17
5.31259e-18
5.9848e-17
-3.36103e-18
3.9465e-17
-8.99888e-18
5.85469e-17
4.22839e-18
-5.29091e-17
-5.52943e-18
-3.90313e-18
1.72388e-17
-4.46691e-17
2.50451e-17
-1.0842e-17
2.4503e-17
1.12757e-17
5.74627e-18
-7.02563e-17
-1.96241e-17
-9.41087e-17
-2.32019e-17
-2.38524e-17
-2.81893e-18
2.60209e-18
2.81893e-18
-2.29851e-17
-1.05168e-17
-3.20924e-17
-1.58294e-17
1.43115e-17
-1.73472e-17
1.16226e-15
-2.92735e-18
1.15012e-14
6.50521e-18
9.42579e-14
3.25261e-18
7.31235e-13
-5.20417e-18
5.35481e-12
-2.08167e-17
3.75453e-11
1.14925e-17
2.47063e-10
-5.09575e-18
1.54635e-09
1.16335e-16
9.00025e-09
7.96455e-16
4.93405e-08
4.75444e-15
2.48674e-07
2.70592e-14
1.16351e-06
1.20572e-13
4.9302e-06
5.74713e-13
1.89654e-05
2.02313e-12
6.46337e-05
7.86591e-12
0.000192732
2.00115e-11
0.000488875
5.75947e-11
0.000996543
8.1806e-11
0.0015225
1.3e-10
0.00185825
-9.36184e-11
0.00191326
-2.39843e-11
0.00182805
-6.87508e-10
0.0017605
3.64974e-10
0.0016969
-3.20556e-10
0.00173052
4.64016e-10
0.00189265
1.33917e-10
0.0018481
1.32494e-10
0.00118303
-1.22021e-10
0.00054447
-8.07607e-11
0.000207895
-5.73403e-11
6.83151e-05
-1.93411e-11
1.97961e-05
-7.67038e-12
5.10493e-06
-1.95417e-12
1.19822e-06
-5.5891e-13
2.55241e-07
-1.16564e-13
5.05097e-08
-2.6288e-14
9.20014e-09
-4.57815e-15
1.57836e-09
-7.80626e-16
2.52001e-10
-8.45678e-17
3.8259e-11
-6.39679e-18
5.45448e-12
1.47451e-17
7.44352e-13
6.28837e-18
9.59688e-14
3.57787e-18
1.17263e-14
-1.33357e-17
1.20997e-15
-4.55365e-18
1.13191e-16
1.34441e-17
-2.60209e-17
4.87891e-18
-8.97719e-17
5.20417e-18
-5.20417e-18
1.81062e-17
2.64545e-17
2.36356e-17
6.50521e-18
1.10589e-17
7.76289e-17
8.45678e-18
-1.17094e-17
7.37257e-18
4.55365e-17
2.71051e-17
2.86229e-17
2.73219e-17
7.80626e-17
1.99493e-17
-4.2067e-17
-1.10589e-17
-1.30104e-17
-7.26415e-18
3.1225e-17
-1.26852e-17
-2.86229e-17
-2.25514e-17
-6.07153e-18
-1.89735e-17
-4.72712e-17
-2.74303e-17
-1.77809e-17
-5.96311e-18
2.0383e-17
-1.86483e-17
-2.38524e-17
-1.77809e-17
-4.16334e-17
-1.40946e-17
-2.34188e-17
4.77049e-18
-1.38778e-17
1.59378e-17
-6.93889e-18
2.13588e-17
-3.9465e-17
1.84314e-17
1.30104e-18
1.6263e-17
3.64292e-17
2.15756e-17
8.0231e-18
-5.63785e-18
-1.55041e-17
7.37257e-18
-1.37694e-17
4.51028e-17
-1.65883e-17
-5.33427e-17
-2.33103e-17
-5.68122e-17
-1.32273e-17
-3.33934e-17
2.60209e-18
3.20924e-17
1.51788e-17
-1.30104e-17
6.07153e-18
-8.67362e-18
2.62377e-17
1.95156e-17
2.09251e-17
2.9924e-17
1.34441e-17
3.07913e-17
1.65883e-17
4.16334e-17
1.9082e-17
9.58435e-17
-3.25261e-19
1.9082e-17
-2.81893e-17
4.25007e-17
-2.29851e-17
1.17094e-17
-1.46367e-17
-3.20924e-17
-1.05168e-17
-9.36751e-17
4.44523e-18
-8.67362e-17
1.6263e-17
-6.98226e-17
1.8323e-17
-1.99493e-17
1.53957e-17
-4.77049e-18
9.43256e-18
-5.59448e-17
9.1073e-18
-3.81639e-17
2.27682e-18
-4.33681e-17
-6.50521e-18
6.72205e-17
-1.25767e-17
1.19306e-15
3.36103e-18
1.14956e-14
-4.44523e-18
9.42354e-14
5.20417e-18
7.31244e-13
-1.09504e-17
5.35484e-12
4.22839e-18
3.75454e-11
-1.99493e-17
2.47063e-10
4.11997e-18
1.54635e-09
-1.24683e-17
9.00026e-09
-2.14672e-17
4.93405e-08
-6.61363e-18
2.48674e-07
-1.39862e-17
1.16351e-06
5.08491e-17
4.9302e-06
5.12177e-16
1.89654e-05
2.87281e-15
6.46337e-05
1.19165e-14
0.000192732
4.36078e-14
0.000488875
1.28852e-13
0.000996543
3.18031e-13
0.0015225
5.16943e-13
0.00185825
6.56636e-13
0.00191326
-1.62678e-13
0.00182805
1.03857e-12
0.0017605
-2.5186e-12
0.0016969
2.59154e-12
0.00173052
-1.89329e-12
0.00189265
9.57615e-13
0.0018481
-3.1806e-13
0.00118303
5.18869e-13
0.00054447
-9.57065e-13
0.000207895
-5.0464e-13
6.83151e-05
-3.52703e-13
1.97961e-05
-1.15136e-13
5.10494e-06
-4.41461e-14
1.19822e-06
-1.09469e-14
2.55241e-07
-2.94046e-15
5.05098e-08
-5.09358e-16
9.20015e-09
-7.65447e-17
1.57836e-09
-1.39862e-17
2.52001e-10
8.34836e-18
3.8259e-11
-1.40946e-17
5.45448e-12
2.92735e-18
7.44335e-13
-3.90313e-18
9.59376e-14
-6.61363e-18
1.17454e-14
-4.22839e-18
1.23382e-15
-1.0842e-19
8.84709e-17
-2.28767e-17
-1.95156e-17
-2.6563e-17
-4.16334e-17
-2.52619e-17
7.37257e-18
-1.36609e-17
-1.82146e-17
1.84314e-18
-8.67362e-19
-3.46945e-18
6.93889e-17
3.90313e-18
6.63532e-17
-1.2902e-17
4.33681e-17
-1.6263e-17
-8.67362e-18
-2.12504e-17
-2.12504e-17
-2.02746e-17
-3.9465e-17
-1.2902e-17
-3.33934e-17
-1.95156e-18
-9.1073e-18
4.01155e-18
-1.9082e-17
-7.37257e-18
-3.59955e-17
-1.33357e-17
1.9082e-17
-1.18178e-17
-5.68122e-17
-1.47451e-17
2.42861e-17
-2.49366e-18
-4.77049e-18
-2.10335e-17
3.68629e-17
-2.17925e-17
1.99493e-17
-2.93819e-17
1.38778e-17
-2.3744e-17
-1.30104e-17
-2.69966e-17
-4.55365e-17
-2.59124e-17
1.56125e-17
-9.75782e-18
-1.69136e-17
-2.13588e-17
-1.4962e-17
6.07153e-18
2.32019e-17
1.73472e-18
1.37694e-17
2.25514e-17
6.07153e-18
-3.90313e-18
5.85469e-18
6.07153e-18
4.55365e-18
2.25514e-17
-5.31259e-18
-8.67362e-19
-5.74627e-18
7.069e-17
-1.11673e-17
-2.0383e-17
-2.68882e-17
-1.86483e-17
-1.96241e-17
4.59702e-17
-1.06252e-17
3.20924e-17
-1.89735e-17
-4.38018e-17
-1.31188e-17
-6.07153e-18
4.01155e-18
3.16587e-17
9.54098e-18
7.97973e-17
3.90313e-18
2.68882e-17
-3.40439e-17
2.1684e-17
-3.23092e-17
-4.72712e-17
-2.94903e-17
-7.71952e-17
-2.76472e-17
-9.02056e-17
-3.25261e-17
-4.42354e-17
-9.97466e-18
-1.86483e-17
-1.47451e-17
-7.67615e-17
-1.06252e-17
-6.98226e-17
3.90313e-18
-6.85216e-17
6.72205e-18
1.21864e-16
1.98409e-17
1.19045e-15
1.17094e-17
1.14973e-14
-2.60209e-18
9.42297e-14
-1.33357e-17
7.31223e-13
1.01915e-17
5.35482e-12
7.69784e-18
3.75454e-11
2.81893e-18
2.47063e-10
-1.07336e-17
1.54635e-09
-1.05059e-16
9.00026e-09
-7.95804e-16
4.93405e-08
-4.75737e-15
2.48674e-07
-2.70285e-14
1.16351e-06
-1.20403e-13
4.9302e-06
-5.73692e-13
1.89654e-05
-2.01827e-12
6.46337e-05
-7.84522e-12
0.000192732
-1.99368e-11
0.000488875
-5.73632e-11
0.000996543
-8.12412e-11
0.0015225
-1.28932e-10
0.00185825
9.42056e-11
0.00191326
2.37183e-11
0.00182805
6.87569e-10
0.0017605
-3.67303e-10
0.0016969
3.22773e-10
0.00173052
-4.66275e-10
0.00189265
-1.32832e-10
0.0018481
-1.32844e-10
0.00118303
1.23967e-10
0.00054447
7.9405e-11
0.000207895
5.63684e-11
6.83151e-05
1.8647e-11
1.97961e-05
7.42568e-12
5.10494e-06
1.85941e-12
1.19822e-06
5.34168e-13
2.55241e-07
1.09635e-13
5.05098e-08
2.48193e-14
9.20015e-09
4.23619e-15
1.57836e-09
7.11887e-16
2.52001e-10
7.13405e-17
3.8259e-11
2.98156e-17
5.45447e-12
-1.0842e-19
7.4432e-13
-1.91904e-17
9.59454e-14
-5.63785e-18
1.17324e-14
-4.77049e-18
1.20173e-15
-1.30104e-17
6.245e-17
-4.11997e-18
-6.93889e-18
5.52943e-18
8.23994e-18
9.86624e-18
6.85216e-17
1.14925e-17
-2.21177e-17
-3.25261e-19
2.47198e-17
4.77049e-18
1.38778e-17
1.57209e-17
4.90059e-17
1.31188e-17
2.60209e-17
-1.20346e-17
-5.63785e-18
-3.25261e-18
-4.50936e-34
3.79471e-18
1.21431e-17
1.27936e-17
-1.73472e-18
-4.33681e-19
-4.46691e-17
-3.46945e-18
-4.2067e-17
-2.60209e-18
-2.73219e-17
-1.0842e-18
5.63785e-18
-9.97466e-18
-9.54098e-18
-3.25261e-18
-4.94396e-17
2.27682e-18
-8.23994e-18
5.09575e-18
-1.73472e-18
-4.87891e-18
4.81386e-17
-1.78893e-17
8.67362e-19
-2.71051e-17
-1.34441e-17
-2.28767e-17
1.73472e-17
-1.56125e-17
-3.38271e-17
-2.12504e-17
1.34441e-17
-2.51535e-17
-3.77302e-17
-3.85976e-17
-3.76218e-17
-4.46691e-17
-3.76218e-17
1.64799e-17
-1.91904e-17
-9.54098e-18
-2.46114e-17
-3.25261e-17
-5.31259e-18
1.64799e-17
1.95156e-18
-2.47198e-17
4.44523e-18
8.67362e-18
-2.38524e-18
1.86483e-17
-1.26852e-17
1.73472e-17
-2.17925e-17
2.81893e-17
-1.17094e-17
6.28837e-17
-3.43692e-17
2.42861e-17
-4.04407e-17
2.94903e-17
-4.22839e-17
-9.97466e-18
-4.4886e-17
-7.28584e-17
-4.99817e-17
3.33934e-17
-1.91904e-17
3.25261e-17
-3.15503e-17
-3.1225e-17
-4.78133e-17
-8.71699e-17
-5.10659e-17
-1.30104e-17
-4.60786e-17
-4.68375e-17
-5.01986e-17
-1.73472e-18
-4.14165e-17
-2.0383e-17
-3.78387e-17
-5.59448e-17
-1.8323e-17
-2.0383e-17
6.83047e-18
9.45424e-17
-5.52943e-18
1.14882e-15
-2.2443e-17
1.14821e-14
3.25261e-19
9.42501e-14
1.74557e-17
7.31236e-13
1.74557e-17
5.35481e-12
2.81893e-18
3.75453e-11
6.28837e-18
2.47063e-10
-7.10152e-17
1.54635e-09
-5.41667e-16
9.00025e-09
-2.95369e-15
4.93405e-08
-1.46778e-14
2.48674e-07
-7.87007e-14
1.16351e-06
-3.36487e-13
4.9302e-06
-1.54312e-12
1.89654e-05
-5.18168e-12
6.46337e-05
-1.91284e-11
0.000192732
-4.55102e-11
0.000488875
-1.19912e-10
0.000996543
-1.45234e-10
0.0015225
-1.37703e-10
0.00185825
2.425e-10
0.00191326
-1.55566e-11
0.00182805
1.04321e-09
0.0017605
-5.56066e-10
0.0016969
3.91645e-10
0.00173052
-6.49606e-10
0.00189265
-1.90876e-10
0.0018481
-3.01175e-10
0.00118303
9.90649e-11
0.00054447
1.43023e-10
0.000207895
1.19964e-10
6.83151e-05
4.43292e-11
1.97961e-05
1.87942e-11
5.10493e-06
5.06044e-12
1.19822e-06
1.5155e-12
2.55241e-07
3.29655e-13
5.05097e-08
7.7395e-14
9.20014e-09
1.43826e-14
1.57836e-09
2.91358e-15
2.52001e-10
5.11093e-16
3.8259e-11
9.28077e-17
5.45445e-12
-5.31259e-18
7.44328e-13
5.20417e-18
9.59476e-14
-1.22515e-17
1.17315e-14
4.33681e-18
1.22211e-15
-1.84314e-18
8.93383e-17
4.66207e-18
4.33681e-18
-1.55041e-17
5.20417e-18
-4.98733e-18
2.68882e-17
-1.40946e-18
-1.95156e-17
-1.20346e-17
6.02816e-17
-1.9082e-17
1.73472e-18
-3.26345e-17
-4.51028e-17
-2.56956e-17
4.85723e-17
-1.18178e-17
3.16587e-17
-2.12504e-17
3.46945e-17
-3.49113e-17
-4.42354e-17
-2.61293e-17
-2.1684e-17
-1.4962e-17
-4.68375e-17
-3.71881e-17
-3.98986e-17
-2.59124e-17
-5.68122e-17
-8.78204e-18
2.08167e-17
-8.67362e-18
2.25514e-17
-2.5804e-17
-3.98986e-17
-3.23092e-17
-5.33427e-17
-1.72388e-17
-5.94143e-17
-1.45283e-17
1.21431e-17
-1.44199e-17
1.56125e-17
-1.82146e-17
1.43115e-17
-1.19262e-17
-8.23994e-18
-5.42101e-19
-4.85723e-17
1.14925e-17
-3.72966e-17
2.92735e-17
2.86229e-17
-2.73219e-17
-4.56449e-17
3.38271e-17
-4.16334e-17
9.54098e-18
-4.30428e-17
6.28837e-17
-2.86229e-17
-6.50521e-18
-3.35018e-17
2.42861e-17
-3.95734e-17
-4.72712e-17
-5.32343e-17
-3.46945e-17
-4.47775e-17
-3.20924e-17
-4.49944e-17
4.46691e-17
-2.71051e-17
-5.94143e-17
-4.33681e-17
2.90566e-17
-4.16334e-17
2.73219e-17
-5.45354e-17
1.86483e-17
-7.20994e-17
-5.20417e-18
-6.92805e-17
5.07407e-17
-5.94143e-17
-2.68882e-17
-7.36173e-17
-3.98986e-17
-5.86553e-17
-4.68375e-17
-6.07153e-17
-8.63025e-17
-4.80302e-17
-2.55872e-17
-3.27429e-17
-1.34441e-17
-4.40186e-17
2.21177e-17
-4.44523e-17
5.07407e-17
-4.35849e-17
3.51282e-17
-4.43439e-17
-7.1991e-17
-6.13658e-17
3.68629e-17
-3.84892e-17
1.19999e-15
-3.13334e-17
1.15329e-14
-4.62954e-17
9.42605e-14
-4.14165e-17
7.31221e-13
-3.75134e-17
5.35475e-12
-1.94072e-17
3.75448e-11
-2.42861e-17
2.4706e-10
2.07083e-17
1.54633e-09
1.73256e-16
9.00015e-09
6.65375e-16
4.934e-08
1.73928e-15
2.48672e-07
7.19672e-15
1.1635e-06
2.61039e-14
4.93017e-06
9.6227e-14
1.89653e-05
2.1372e-13
6.46335e-05
3.65519e-13
0.000192732
-7.77724e-13
0.000488874
-6.94228e-12
0.000996543
-2.14371e-11
0.0015225
-7.82195e-11
0.00185825
-1.07236e-10
0.00191326
-9.56433e-11
0.00182805
4.42854e-11
0.00176049
-4.32089e-11
0.0016969
6.82579e-11
0.00173052
-4.24175e-11
0.00189266
3.84739e-11
0.0018481
1.19444e-10
0.00118303
1.05361e-10
0.00054447
2.55177e-11
0.000207895
7.84064e-12
6.83149e-05
1.10898e-12
1.9796e-05
-2.93016e-13
5.1049e-06
-1.84722e-13
1.19821e-06
-9.04206e-14
2.55239e-07
-2.45075e-14
5.05093e-08
-6.9506e-15
9.20004e-09
-1.64951e-15
1.57834e-09
-6.79578e-16
2.51998e-10
-1.92663e-16
3.82585e-11
-6.13658e-17
5.45438e-12
-3.68629e-17
7.44321e-13
-2.54788e-17
9.59575e-14
-2.67798e-17
1.17371e-14
-2.94903e-17
1.21084e-15
-3.6646e-17
4.16334e-17
-4.02239e-17
3.98986e-17
-3.13334e-17
2.64545e-17
-3.91397e-17
-1.47451e-17
-4.78133e-17
-4.16334e-17
-4.6187e-17
9.97466e-18
-4.11997e-17
3.33934e-17
-4.31512e-17
1.25767e-17
-5.29091e-17
5.63785e-18
-5.94143e-17
-2.73219e-17
-6.19079e-17
6.1149e-17
-5.22585e-17
-4.33681e-18
-6.00648e-17
-9.58435e-17
-5.37764e-17
-2.1684e-18
-2.66714e-17
2.29851e-17
-3.24176e-17
-5.89806e-17
-4.45607e-17
-4.77049e-17
-3.72966e-17
-1.73472e-18
-3.43692e-17
1.34441e-17
-3.18755e-17
-4.16334e-17
-3.95734e-17
-5.76796e-17
-2.25514e-17
4.33681e-18
1.13841e-17
3.90313e-17
1.89735e-17
5.89806e-17
2.73219e-17
4.29344e-17
1.78893e-17
2.47198e-17
1.11673e-17
-4.59702e-17
2.71051e-18
2.33103e-17
-2.9924e-17
-6.74374e-17
2.42861e-17
-4.19586e-17
6.28837e-17
-2.71051e-17
3.90313e-17
-2.27682e-17
-2.77556e-17
-2.3744e-17
-3.03577e-17
-2.60209e-17
-1.56125e-17
-2.54788e-17
-3.42608e-17
-2.29851e-17
4.16334e-17
-2.6563e-17
-1.17094e-17
-2.95987e-17
-6.20164e-17
-2.41777e-17
-2.12504e-17
-1.35525e-17
-3.33934e-17
-2.17925e-17
1.82146e-17
-3.59955e-17
9.54098e-18
-5.00901e-17
-1.73472e-18
-4.56449e-17
4.72712e-17
-3.00324e-17
-4.94396e-17
-3.20924e-17
1.64799e-17
-3.13334e-17
-2.64545e-17
-3.80555e-17
-6.54858e-17
-2.79724e-17
-1.95156e-17
-3.1984e-17
1.99493e-17
-3.10082e-17
4.68375e-17
-2.49366e-17
-1.82146e-17
-3.68629e-17
2.47198e-17
-3.92481e-17
6.98226e-17
-3.4586e-17
1.18265e-15
-2.56956e-17
1.15259e-14
-3.02492e-17
9.42848e-14
-2.53703e-17
7.31248e-13
-3.49113e-17
5.35478e-12
-2.11419e-17
3.75451e-11
-4.87891e-18
2.47061e-10
-2.35272e-17
1.54634e-09
1.26852e-17
9.00019e-09
1.4409e-16
4.93402e-08
1.15945e-15
2.48673e-07
7.16343e-15
1.1635e-06
3.01248e-14
4.93018e-06
1.4015e-13
1.89653e-05
4.31257e-13
6.46336e-05
1.59098e-12
0.000192732
2.88727e-12
0.000488875
6.99191e-12
0.000996543
-4.58122e-12
0.0015225
-2.26721e-11
0.00185825
-1.11637e-10
0.00191326
-6.62416e-11
0.00182805
-2.56642e-10
0.0017605
1.38366e-10
0.0016969
-8.28442e-11
0.00173052
1.74719e-10
0.00189266
7.88102e-11
0.0018481
1.33726e-10
0.00118303
5.27114e-11
0.00054447
1.61112e-11
0.000207895
-5.21323e-12
6.8315e-05
-2.00579e-12
1.9796e-05
-1.30814e-12
5.10492e-06
-3.27313e-13
1.19821e-06
-1.13397e-13
2.5524e-07
-2.27143e-14
5.05095e-08
-5.57096e-15
9.20008e-09
-7.83878e-16
1.57835e-09
-5.56196e-17
2.51999e-10
-6.17995e-18
3.82586e-11
-1.30104e-17
5.45442e-12
-1.60462e-17
7.4432e-13
-1.24683e-17
9.5948e-14
-2.1684e-17
1.17215e-14
-3.13334e-17
1.19913e-15
-3.30682e-17
6.54858e-17
-2.50451e-17
4.77049e-18
-1.65883e-17
-9.97466e-18
-2.50451e-17
-2.60209e-18
-2.4503e-17
-2.38524e-17
-1.32273e-17
5.63785e-18
-2.17925e-17
-5.63785e-18
-3.89229e-17
-1.56125e-17
-3.08998e-17
-3.90313e-18
-2.71051e-17
1.82146e-17
-2.00577e-17
3.77302e-17
-3.58871e-17
1.69136e-17
-3.38271e-17
1.04083e-17
-2.94903e-17
-2.81893e-17
-3.23092e-17
-2.08167e-17
-3.14419e-17
-3.46945e-17
-3.25261e-17
-2.34188e-17
-2.95987e-17
5.20417e-18
-2.21177e-17
-3.46945e-18
-2.54788e-17
3.25261e-17
-1.58294e-17
7.50268e-17
-1.94072e-17
3.98986e-17
-2.5804e-17
6.67869e-17
-1.64799e-17
1.21431e-17
-1.9082e-17
1.82146e-17
-1.44199e-17
-3.46945e-18
-1.13841e-17
4.11997e-17
-1.17094e-17
-1.36609e-17
5.68122e-17
1.04083e-16
8.2833e-17
2.60209e-17
-2.12504e-17
-2.94903e-17
-1.04083e-17
-4.2067e-17
2.73219e-17
1.69136e-17
-2.77556e-17
-5.76796e-17
-8.67362e-17
-3.98986e-17
3.20924e-17
6.15827e-17
4.64039e-17
-5.37764e-17
-7.80626e-18
7.80626e-18
-7.41594e-17
-1.69136e-17
4.46691e-17
-2.60209e-18
-1.95156e-17
2.77556e-17
9.75782e-17
1.19002e-15
1.15272e-14
9.42788e-14
7.31274e-13
5.35481e-12
3.75451e-11
2.47061e-10
1.54634e-09
9.00019e-09
4.93402e-08
2.48673e-07
1.1635e-06
4.93018e-06
1.89653e-05
6.46335e-05
0.000192732
0.000488874
0.000996543
0.0015225
0.00185825
0.00191326
0.00182805
0.0017605
0.0016969
0.00173052
0.00189266
0.0018481
0.00118303
0.000544469
0.000207895
6.83149e-05
1.9796e-05
5.10491e-06
1.19821e-06
2.55239e-07
5.05094e-08
9.20008e-09
1.57835e-09
2.51999e-10
3.82586e-11
5.45441e-12
7.44305e-13
9.59267e-14
1.17155e-14
1.22385e-15
8.80372e-17
-1.38778e-17
-2.25514e-17
3.46945e-17
-5.20417e-17
-5.29091e-17
1.86483e-17
-6.07153e-18
2.42861e-17
-3.81639e-17
4.98733e-17
2.51535e-17
2.60209e-18
-1.99493e-17
-3.03577e-17
-2.55872e-17
9.1073e-18
-1.30104e-17
2.64545e-17
1.21431e-17
5.20417e-17
7.41594e-17
5.89806e-17
3.42608e-17
2.42861e-17
-1.60462e-17
2.77556e-17
)
;

boundaryField
{
    sides1
    {
        type            calculated;
        value           nonuniform List<scalar> 
20
(
-3.02854e-17
-2.21317e-17
-6.69774e-18
2.59173e-17
-2.41701e-17
7.57136e-18
-1.77636e-17
-2.30053e-17
2.03844e-17
4.36809e-18
-1.51427e-17
3.49447e-18
6.40653e-18
-1.74724e-17
-4.07688e-18
-8.73618e-18
2.62085e-17
1.28131e-17
1.63075e-17
-5.24171e-17
)
;
    }
    sides2
    {
        type            calculated;
        value           uniform 0;
    }
    empty
    {
        type            empty;
        value           nonuniform 0();
    }
}


// ************************************************************************* //
