/*--------------------------------*- C++ -*----------------------------------*\
| =========                 |                                                 |
| \\      /  F ield         | OpenFOAM: The Open Source CFD Toolbox           |
|  \\    /   O peration     | Version:  3.0.1                                 |
|   \\  /    A nd           | Web:      www.OpenFOAM.org                      |
|    \\/     M anipulation  |                                                 |
\*---------------------------------------------------------------------------*/
FoamFile
{
    version     2.0;
    format      ascii;
    class       volVectorField;
    location    "5e-05";
    object      U;
}
// * * * * * * * * * * * * * * * * * * * * * * * * * * * * * * * * * * * * * //

dimensions      [0 1 -1 0 0 0 0];

internalField   nonuniform List<vector> 
1000
(
(1.34292e-13 1.4305e-13 0)
(1.63486e-13 3.21133e-14 0)
(-4.55426e-13 1.60567e-13 0)
(-1.05098e-13 2.13116e-13 0)
(2.68584e-13 1.51809e-13 0)
(-1.63486e-13 1.98519e-13 0)
(-2.21874e-13 2.83181e-13 0)
(-5.83879e-14 2.01438e-13 0)
(1.16776e-14 1.63486e-13 0)
(-2.97778e-13 1.9268e-13 0)
(-4.08715e-14 3.91199e-13 0)
(3.50327e-13 2.07277e-13 0)
(9.34206e-14 2.62745e-13 0)
(-3.8536e-13 7.59043e-14 0)
(-5.13813e-13 3.50327e-13 0)
(-2.33552e-14 5.2841e-13 0)
(-7.59043e-14 3.3573e-13 0)
(-8.75818e-14 3.70763e-13 0)
(-2.80262e-13 1.72244e-13 0)
(-4.08715e-14 2.97778e-13 0)
(3.44489e-13 2.4231e-13 0)
(1.75164e-13 2.94859e-13 0)
(1.10937e-13 2.45229e-13 0)
(2.3939e-13 3.79521e-14 0)
(3.73682e-13 2.33552e-13 0)
(4.72942e-13 1.81002e-13 0)
(6.42267e-13 2.01438e-13 0)
(3.53831e-12 1.69325e-13 0)
(3.59728e-11 4.84619e-13 0)
(3.08078e-10 2.59826e-13 0)
(2.42716e-09 3.32811e-13 0)
(1.84958e-08 1.10937e-13 0)
(1.32046e-07 -9.05012e-14 0)
(9.0991e-07 8.75818e-14 0)
(5.81436e-06 -2.04358e-13 0)
(3.5687e-05 -1.05682e-12 0)
(0.000200598 -2.04066e-12 0)
(0.00107466 4.02878e-12 0)
(0.00519208 6.2201e-11 0)
(0.0235993 5.38315e-10 0)
(0.0948491 2.81558e-09 0)
(0.350481 1.51211e-08 0)
(1.11345 5.74927e-08 0)
(3.1046 2.18458e-07 0)
(6.94601 5.77292e-07 0)
(12.4864 1.31404e-06 0)
(17.1961 1.75111e-06 0)
(20.8487 2.60159e-06 0)
(19.7524 -1.37404e-07 0)
(19.8076 2.63925e-06 0)
(20.2762 -2.02802e-06 0)
(18.0713 -5.62249e-07 0)
(20.5609 -1.9267e-06 0)
(20.4596 -2.42218e-06 0)
(16.5642 -1.88505e-06 0)
(9.37394 -8.39908e-07 0)
(3.98178 -3.09439e-07 0)
(1.38947 -9.58763e-08 0)
(0.430083 -2.66823e-08 0)
(0.115283 -6.80984e-09 0)
(0.0284785 -1.51902e-09 0)
(0.0062434 -3.26991e-10 0)
(0.00128764 -5.80577e-11 0)
(0.000240038 -9.28903e-12 0)
(4.26164e-05 -1.03287e-12 0)
(6.93996e-06 2.04868e-13 0)
(1.08462e-06 2.42427e-13 0)
(1.57368e-07 1.29749e-13 0)
(2.20214e-08 3.4486e-13 0)
(2.88926e-09 2.74864e-13 0)
(3.66645e-10 2.54377e-13 0)
(4.38485e-11 1.84381e-13 0)
(4.90658e-12 2.76571e-13 0)
(3.61933e-13 2.88522e-13 0)
(1.16092e-13 3.67054e-13 0)
(1.87795e-13 2.61206e-13 0)
(-3.96077e-13 2.27062e-13 0)
(-4.7461e-13 2.56084e-13 0)
(9.21904e-14 1.7243e-13 0)
(-2.35598e-13 9.73121e-14 0)
(-4.81439e-13 3.09009e-13 0)
(-4.16564e-13 1.21213e-13 0)
(-5.80458e-14 3.77298e-13 0)
(4.4388e-13 4.04613e-13 0)
(5.3607e-13 4.49001e-13 0)
(5.49728e-13 3.73883e-13 0)
(-1.9121e-13 3.85834e-13 0)
(-5.94116e-13 4.60952e-13 0)
(-7.85325e-14 4.50709e-13 0)
(3.96077e-13 3.38031e-13 0)
(2.5267e-13 3.41446e-13 0)
(1.70723e-13 1.98039e-13 0)
(4.02906e-13 6.48747e-14 0)
(-5.12169e-14 -4.26807e-14 0)
(-1.74137e-13 1.99746e-13 0)
(6.82892e-14 1.84381e-13 0)
(-2.62913e-13 6.99964e-14 0)
(-1.84381e-13 1.74137e-13 0)
(-2.59499e-13 1.74137e-13 0)
(-3.48275e-13 2.13404e-13 0)
(-8.1743e-14 5.54685e-13 0)
(2.10196e-13 4.49587e-13 0)
(-5.83879e-15 3.67844e-13 0)
(-1.28453e-13 5.66363e-13 0)
(2.04358e-13 3.47408e-13 0)
(8.1743e-14 3.47408e-13 0)
(-2.16035e-13 5.34249e-13 0)
(-3.79521e-13 4.96297e-13 0)
(1.75164e-14 5.48846e-13 0)
(1.81002e-13 4.55426e-13 0)
(-2.91939e-14 7.12332e-13 0)
(8.75818e-14 5.66363e-13 0)
(1.28453e-13 6.2767e-13 0)
(-1.9268e-13 8.05753e-13 0)
(1.22615e-13 1.08601e-12 0)
(-1.40131e-13 1.22615e-12 0)
(-3.79521e-13 1.11229e-12 0)
(-4.02876e-13 1.01887e-12 0)
(-2.68584e-13 8.6706e-13 0)
(2.33552e-14 9.45884e-13 0)
(3.21133e-13 8.49544e-13 0)
(2.04358e-13 9.05012e-13 0)
(-1.16776e-14 7.29849e-13 0)
(1.28453e-13 6.2767e-13 0)
(3.56166e-13 5.51766e-13 0)
(3.3865e-13 4.93378e-13 0)
(7.29849e-13 2.01438e-13 0)
(4.0638e-12 1.4305e-13 0)
(3.61771e-11 5.40088e-13 0)
(3.07815e-10 5.16733e-13 0)
(2.42674e-09 4.64184e-13 0)
(1.84949e-08 2.8902e-13 0)
(1.32046e-07 5.83879e-15 0)
(9.0991e-07 -8.75818e-15 0)
(5.81435e-06 -2.86976e-12 0)
(3.5687e-05 -1.7385e-11 0)
(0.000200598 -9.1812e-11 0)
(0.00107466 -5.04323e-10 0)
(0.00519208 -2.14809e-09 0)
(0.0235993 -9.90741e-09 0)
(0.0948491 -3.24656e-08 0)
(0.350481 -1.20557e-07 0)
(1.11345 -2.66358e-07 0)
(3.1046 -7.06549e-07 0)
(6.94601 -5.75238e-07 0)
(12.4864 -5.17639e-07 0)
(17.1961 3.76156e-06 0)
(20.8487 1.00473e-06 0)
(19.7524 1.21895e-05 0)
(19.8076 -7.30042e-06 0)
(20.2762 4.96587e-06 0)
(18.0713 -8.3249e-06 0)
(20.5609 -2.63045e-06 0)
(20.4596 -4.63298e-06 0)
(16.5642 -1.84862e-07 0)
(9.37394 4.60566e-07 0)
(3.98178 7.64694e-07 0)
(1.38947 2.77092e-07 0)
(0.430083 1.30617e-07 0)
(0.115283 3.4018e-08 0)
(0.0284785 1.0584e-08 0)
(0.0062434 2.23023e-09 0)
(0.00128765 5.30038e-10 0)
(0.000240039 9.40478e-11 0)
(4.26164e-05 1.8071e-11 0)
(6.93996e-06 3.14301e-12 0)
(1.08462e-06 1.04312e-12 0)
(1.57368e-07 5.44606e-13 0)
(2.20216e-08 6.02652e-13 0)
(2.88927e-09 8.21177e-13 0)
(3.66593e-10 6.91428e-13 0)
(4.38416e-11 7.05086e-13 0)
(4.95097e-12 6.04359e-13 0)
(4.88268e-13 5.39484e-13 0)
(7.17036e-14 5.01925e-13 0)
(-9.21904e-14 3.3291e-13 0)
(-3.55104e-13 4.35343e-13 0)
(-6.04359e-13 7.32401e-13 0)
(-1.94624e-13 7.20451e-13 0)
(3.07301e-14 5.90701e-13 0)
(-2.42427e-13 6.74356e-13 0)
(-2.73157e-13 7.81911e-13 0)
(3.68762e-13 1.05336e-12 0)
(5.73629e-13 1.13019e-12 0)
(4.84853e-13 9.67999e-13 0)
(4.1315e-13 8.48493e-13 0)
(-7.17036e-14 8.10934e-13 0)
(-4.23393e-13 1.038e-12 0)
(-2.45841e-13 1.11824e-12 0)
(1.26335e-13 8.82638e-13 0)
(-7.17036e-14 6.72648e-13 0)
(-3.41446e-13 6.14603e-13 0)
(-1.16092e-13 3.31202e-13 0)
(2.28769e-13 1.24628e-13 0)
(2.49255e-13 1.87795e-13 0)
(-1.77552e-13 1.74137e-13 0)
(-2.93643e-13 3.31202e-13 0)
(4.09735e-14 5.13876e-13 0)
(-1.39993e-13 4.72903e-13 0)
(-2.59499e-13 6.35089e-13 0)
(-1.16776e-13 5.02136e-13 0)
(-2.56907e-13 6.33509e-13 0)
(-2.16035e-13 4.17473e-13 0)
(-1.57647e-13 5.02136e-13 0)
(-1.63486e-13 2.77342e-13 0)
(1.22615e-13 1.08018e-13 0)
(9.92594e-14 1.75164e-13 0)
(4.67103e-14 3.99957e-13 0)
(-9.92594e-14 4.87539e-13 0)
(-5.25491e-14 6.01395e-13 0)
(1.16776e-13 5.80959e-13 0)
(2.45229e-13 6.91896e-13 0)
(6.01395e-13 7.76559e-13 0)
(4.78781e-13 9.25448e-13 0)
(4.02876e-13 1.12689e-12 0)
(-6.54755e-28 1.14732e-12 0)
(-4.3207e-13 1.19403e-12 0)
(-6.30589e-13 1.13564e-12 0)
(-5.3133e-13 1.19403e-12 0)
(8.75818e-14 1.2495e-12 0)
(2.10196e-13 1.23782e-12 0)
(-1.40131e-13 8.78738e-13 0)
(-3.56166e-13 7.2401e-13 0)
(-1.57647e-13 5.89718e-13 0)
(2.21874e-13 5.57604e-13 0)
(-2.16035e-13 4.75861e-13 0)
(-1.16776e-13 2.04358e-13 0)
(4.12802e-12 -2.91939e-15 0)
(3.67669e-11 1.75164e-14 0)
(3.07914e-10 1.05098e-13 0)
(2.42667e-09 -4.96297e-14 0)
(1.8495e-08 2.33552e-13 0)
(1.32045e-07 2.68584e-13 0)
(9.09905e-07 6.91896e-13 0)
(5.81432e-06 3.53831e-12 0)
(3.56868e-05 2.29026e-11 0)
(0.000200597 1.18136e-10 0)
(0.00107465 6.49907e-10 0)
(0.00519206 2.82727e-09 0)
(0.0235992 1.32907e-08 0)
(0.0948489 4.56737e-08 0)
(0.350481 1.74724e-07 0)
(1.11345 4.31705e-07 0)
(3.1046 1.22005e-06 0)
(6.94601 1.67372e-06 0)
(12.4864 2.52789e-06 0)
(17.1961 -1.87056e-06 0)
(20.8487 1.06208e-06 0)
(19.7524 -1.35244e-05 0)
(19.8075 8.98445e-06 0)
(20.2762 -6.96833e-06 0)
(18.0713 9.29304e-06 0)
(20.5609 1.8044e-06 0)
(20.4596 2.49058e-06 0)
(16.5642 -2.52009e-06 0)
(9.37394 -1.86728e-06 0)
(3.98178 -1.39714e-06 0)
(1.38947 -4.80544e-07 0)
(0.430083 -1.97545e-07 0)
(0.115283 -5.08576e-08 0)
(0.0284784 -1.49498e-08 0)
(0.00624338 -3.14533e-09 0)
(0.00128764 -7.28184e-10 0)
(0.000240037 -1.31221e-10 0)
(4.26162e-05 -2.50007e-11 0)
(6.93993e-06 -3.97614e-12 0)
(1.08461e-06 -5.20705e-13 0)
(1.57367e-07 4.11442e-13 0)
(2.20219e-08 2.79986e-13 0)
(2.88947e-09 5.49728e-13 0)
(3.66447e-10 5.92409e-13 0)
(4.36163e-11 6.19724e-13 0)
(4.54123e-12 3.46568e-13 0)
(2.25354e-13 5.30948e-13 0)
(-2.04868e-13 3.51689e-13 0)
(-5.46313e-14 1.67308e-13 0)
(4.16564e-13 9.38976e-14 0)
(1.12677e-13 3.99492e-13 0)
(-2.11696e-13 4.93389e-13 0)
(-3.61933e-13 7.52888e-13 0)
(-1.70723e-14 6.7777e-13 0)
(2.90229e-13 9.76535e-13 0)
(5.08754e-13 1.01409e-12 0)
(3.38031e-13 1.13531e-12 0)
(2.73157e-14 8.502e-13 0)
(1.43407e-13 6.98257e-13 0)
(2.18525e-13 6.91428e-13 0)
(2.04868e-14 6.86306e-13 0)
(-3.58518e-13 8.36542e-13 0)
(-4.78024e-13 7.46059e-13 0)
(-3.10716e-13 5.44606e-13 0)
(-4.54123e-13 7.52888e-13 0)
(-5.59971e-13 7.30694e-13 0)
(-3.07301e-13 6.06066e-13 0)
(-8.1947e-14 4.28515e-13 0)
(3.38031e-13 3.84127e-13 0)
(3.89248e-13 4.71195e-13 0)
(1.67308e-13 4.06321e-13 0)
(-6.48747e-14 3.3291e-13 0)
(-6.82892e-14 5.65093e-13 0)
(2.04358e-13 2.83181e-13 0)
(9.34206e-14 3.50327e-13 0)
(-2.68584e-13 4.37909e-13 0)
(-4.49587e-13 5.48846e-13 0)
(-5.13813e-13 5.07975e-13 0)
(-1.34292e-13 3.73682e-13 0)
(4.26232e-13 2.53987e-13 0)
(2.33552e-13 3.32811e-13 0)
(3.73682e-13 2.30632e-13 0)
(4.67103e-13 3.44489e-13 0)
(1.51809e-13 3.06536e-13 0)
(5.02136e-13 3.59086e-13 0)
(6.2475e-13 3.67844e-13 0)
(4.61264e-13 2.59826e-13 0)
(4.78781e-13 4.75861e-13 0)
(1.34292e-13 3.76602e-13 0)
(-3.3865e-13 6.51025e-13 0)
(-4.26232e-13 7.35687e-13 0)
(-1.98519e-13 8.72899e-13 0)
(-2.91939e-14 6.83138e-13 0)
(-2.86101e-13 3.62005e-13 0)
(-7.76559e-13 1.54728e-13 0)
(-6.18912e-13 1.98519e-13 0)
(-1.16776e-13 2.77342e-13 0)
(-8.75818e-14 1.05098e-13 0)
(-3.21133e-13 -6.71461e-14 0)
(-1.9268e-13 -2.62745e-14 0)
(3.63173e-12 -5.83879e-15 0)
(3.64107e-11 -2.04358e-14 0)
(3.0764e-10 -1.31373e-13 0)
(2.42709e-09 -2.4231e-13 0)
(1.84955e-08 -1.51809e-13 0)
(1.32047e-07 2.91939e-13 0)
(9.09916e-07 7.79478e-13 0)
(5.8144e-06 7.23134e-12 0)
(3.56872e-05 4.44799e-11 0)
(0.000200599 2.35154e-10 0)
(0.00107466 1.30103e-09 0)
(0.00519211 5.67372e-09 0)
(0.0235994 2.66615e-08 0)
(0.0948494 9.15441e-08 0)
(0.350482 3.4971e-07 0)
(1.11345 8.60512e-07 0)
(3.10461 2.42101e-06 0)
(6.94601 3.23966e-06 0)
(12.4864 4.69304e-06 0)
(17.1961 -4.47159e-06 0)
(20.8487 7.13013e-07 0)
(19.7524 -2.78677e-05 0)
(19.8076 1.63081e-05 0)
(20.2762 -1.29739e-05 0)
(18.0713 1.91251e-05 0)
(20.5609 4.60453e-06 0)
(20.4596 5.97304e-06 0)
(16.5642 -4.43497e-06 0)
(9.37394 -3.59691e-06 0)
(3.98178 -2.77903e-06 0)
(1.38947 -9.69691e-07 0)
(0.430084 -3.99134e-07 0)
(0.115284 -1.03565e-07 0)
(0.0284786 -3.03612e-08 0)
(0.00624343 -6.41943e-09 0)
(0.00128765 -1.47802e-09 0)
(0.00024004 -2.65107e-10 0)
(4.26167e-05 -5.0312e-11 0)
(6.94001e-06 -7.71497e-12 0)
(1.08462e-06 -1.36578e-12 0)
(1.5737e-07 1.69016e-13 0)
(2.20219e-08 4.4388e-14 0)
(2.8898e-09 6.31675e-14 0)
(3.66761e-10 -3.41446e-15 0)
(4.34183e-11 9.04832e-14 0)
(4.7939e-12 2.2194e-13 0)
(4.60952e-13 3.3291e-13 0)
(-6.07774e-13 2.66328e-13 0)
(-6.35089e-13 2.90229e-13 0)
(8.53615e-14 1.94624e-13 0)
(1.80966e-13 6.82892e-14 0)
(5.0534e-13 -3.41446e-15 0)
(4.33636e-13 4.09735e-13 0)
(1.22921e-13 6.33382e-13 0)
(4.67781e-13 7.3923e-13 0)
(7.06793e-13 6.29968e-13 0)
(1.6048e-13 3.24374e-13 0)
(-4.02906e-13 2.25354e-13 0)
(1.22921e-13 1.36578e-13 0)
(-3.7559e-14 6.48747e-14 0)
(-1.63894e-13 -8.36542e-14 0)
(-1.9121e-13 -1.28042e-13 0)
(-4.1315e-13 5.9753e-14 0)
(-2.39012e-14 6.82892e-15 0)
(6.82892e-15 1.55358e-13 0)
(-3.82419e-13 3.20959e-13 0)
(-3.10716e-13 4.72903e-13 0)
(-1.87795e-13 6.50454e-13 0)
(-1.26335e-13 6.38504e-13 0)
(-2.62913e-13 4.84853e-13 0)
(-3.03887e-13 2.59499e-13 0)
(2.15111e-13 2.69742e-13 0)
(2.79986e-13 2.834e-13 0)
(-6.31089e-28 6.42267e-14 0)
(5.83879e-14 -6.5436e-28 0)
(2.68584e-13 4.96297e-14 0)
(-6.42267e-14 2.13116e-13 0)
(-5.48846e-13 3.15295e-13 0)
(-5.13813e-13 4.55426e-13 0)
(7.59043e-14 4.23312e-13 0)
(8.1743e-14 3.3573e-13 0)
(-1.16776e-13 5.45927e-13 0)
(9.92594e-14 2.24793e-13 0)
(1.57647e-13 1.78083e-13 0)
(2.97778e-13 1.9268e-13 0)
(3.8536e-13 1.37212e-13 0)
(6.56579e-13 -1.02179e-13 2.13188e-32)
(6.5131e-13 -2.65665e-13 0)
(2.68584e-13 -3.12375e-13 0)
(3.21133e-13 7.35218e-28 0)
(-1.81002e-13 1.75164e-13 0)
(-6.48106e-13 2.80262e-13 0)
(-8.52463e-13 2.21874e-13 0)
(-8.81657e-13 -1.4597e-14 0)
(-4.87824e-13 -9.34206e-14 0)
(-4.93446e-14 5.83879e-14 0)
(-3.97038e-13 9.05012e-14 0)
(-4.37909e-13 -1.22615e-13 0)
(-4.61264e-13 -2.53987e-13 0)
(5.25491e-14 -3.12375e-13 0)
(4.19809e-12 -2.62745e-14 0)
(3.64282e-11 -1.4597e-14 0)
(3.07535e-10 3.21133e-14 0)
(2.42667e-09 -1.63486e-13 0)
(1.84961e-08 -1.57647e-13 2.13188e-32)
(1.32047e-07 -5.25491e-14 0)
(9.09918e-07 -1.4597e-14 0)
(5.81441e-06 9.42964e-13 0)
(3.56873e-05 5.04471e-12 0)
(0.000200599 2.72613e-11 -2.13188e-32)
(0.00107466 1.42578e-10 0)
(0.00519211 6.36302e-10 0)
(0.0235994 2.9259e-09 2.13181e-32)
(0.0948495 1.0592e-08 0)
(0.350482 3.93172e-08 0)
(1.11345 1.04975e-07 0)
(3.10461 2.75982e-07 -2.12277e-32)
(6.94601 4.13303e-07 0)
(12.4864 3.32626e-07 0)
(17.1961 -5.94403e-07 0)
(20.8487 -1.95385e-06 0)
(19.7524 -2.03077e-06 0)
(19.8076 -2.61847e-06 0)
(20.2762 9.76849e-07 0)
(18.0713 2.07246e-06 0)
(20.5609 2.09895e-06 0)
(20.4596 1.2907e-06 0)
(16.5642 -1.97487e-07 0)
(9.37394 -4.20871e-07 -1.0782e-32)
(3.98178 -3.05434e-07 1.07156e-32)
(1.38947 -1.156e-07 0)
(0.430084 -4.42174e-08 0)
(0.115284 -1.18848e-08 -1.06612e-32)
(0.0284786 -3.31748e-09 0)
(0.00624343 -7.21381e-10 0)
(0.00128765 -1.63558e-10 0)
(0.00024004 -3.10835e-11 0)
(4.26167e-05 -6.3065e-12 0)
(6.94002e-06 -6.72648e-13 0)
(1.08463e-06 -2.32183e-13 0)
(1.5737e-07 2.04868e-13 0)
(2.20218e-08 3.07301e-14 0)
(2.88924e-09 -5.9753e-14 0)
(3.66638e-10 -2.39012e-13 0)
(4.39605e-11 -9.38976e-14 1.06594e-32)
(5.01925e-12 -1.48529e-13 0)
(3.61264e-13 -2.97058e-13 0)
(-4.1248e-13 -2.68035e-13 0)
(-4.37189e-14 2.42969e-28 0)
(-1.73434e-13 2.95351e-13 0)
(-1.32495e-13 1.12677e-13 0)
(4.75313e-13 1.6048e-13 0)
(7.65508e-13 -8.53615e-14 0)
(6.93804e-13 1.45114e-13 0)
(1.27039e-13 4.26807e-14 0)
(-1.22251e-13 -4.60952e-14 0)
(-4.09031e-13 -3.05594e-13 0)
(-4.32967e-13 -1.17799e-13 0)
(-1.2908e-13 -9.73121e-14 0)
(-3.03183e-13 -3.34617e-13 0)
(-2.99803e-13 -3.53396e-13 0)
(-1.36406e-14 -4.76317e-13 0)
(-3.29847e-13 -3.12423e-13 0)
(-9.42494e-14 -2.78278e-13 0)
(4.71333e-14 -5.08754e-13 -1.06594e-32)
(1.2769e-13 -4.71195e-13 0)
(4.42533e-13 -3.29495e-13 -1.06594e-32)
(1.76857e-13 -1.02434e-13 0)
(4.57434e-14 -8.70687e-14 0)
(-4.70496e-13 -1.04141e-13 0)
(-1.48199e-13 4.60952e-14 0)
(4.11372e-15 8.53615e-15 0)
(-2.45841e-13 -1.24628e-13 0)
(7.00655e-14 5.83879e-14 0)
(4.67103e-14 -6.71461e-14 0)
(1.05098e-13 -1.78083e-13 0)
(1.05098e-13 -2.56907e-13 0)
(-2.20881e-28 -1.19695e-13 0)
(1.63486e-13 -4.67103e-14 0)
(1.05098e-13 7.59043e-14 0)
(3.56166e-13 -1.05098e-13 0)
(1.86841e-13 -7.29849e-14 0)
(-1.28453e-13 1.16776e-14 0)
(1.22615e-13 6.13073e-14 0)
(3.8536e-13 3.50327e-14 0)
(-1.75164e-14 8.1743e-14 0)
(-2.10196e-13 6.42267e-14 -2.13188e-32)
(5.83879e-14 -1.4305e-13 0)
(6.48106e-13 -1.9268e-13 0)
(5.07975e-13 -4.96297e-13 0)
(1.75164e-13 -4.43748e-13 0)
(-1.05098e-13 -2.53987e-13 0)
(-5.02136e-13 -1.05098e-13 0)
(-9.57561e-13 -1.28453e-13 0)
(-5.7804e-13 6.42267e-14 0)
(-3.44489e-13 -4.96297e-14 0)
(-5.25491e-13 1.4597e-14 0)
(-7.29849e-13 7.59043e-14 0)
(-7.18171e-13 -2.91939e-15 0)
(2.68584e-13 7.00655e-14 0)
(4.30319e-12 1.83922e-13 0)
(3.6434e-11 -4.37909e-14 0)
(3.07424e-10 -6.71461e-14 0)
(2.42671e-09 -1.4597e-14 0)
(1.84956e-08 1.05098e-13 -2.13188e-32)
(1.32047e-07 -2.3939e-13 0)
(9.09919e-07 -7.88236e-14 0)
(5.81441e-06 -1.06266e-12 0)
(3.56873e-05 -5.27827e-12 0)
(0.000200599 -2.72409e-11 2.13188e-32)
(0.00107466 -1.41454e-10 0)
(0.00519211 -6.28703e-10 0)
(0.0235994 -2.88781e-09 -2.13181e-32)
(0.0948495 -1.04187e-08 0)
(0.350482 -3.86419e-08 0)
(1.11345 -1.02585e-07 0)
(3.10461 -2.69092e-07 2.12277e-32)
(6.94601 -3.96804e-07 0)
(12.4864 -3.06968e-07 0)
(17.1961 6.26919e-07 0)
(20.8487 1.94444e-06 0)
(19.7524 2.06739e-06 0)
(19.8076 2.51486e-06 0)
(20.2762 -8.8022e-07 0)
(18.0713 -2.16183e-06 0)
(20.5609 -2.0499e-06 0)
(20.4596 -1.29983e-06 0)
(16.5642 2.26195e-07 0)
(9.37394 3.70399e-07 1.0782e-32)
(3.98178 2.75609e-07 -1.07156e-32)
(1.38947 9.40647e-08 0)
(0.430084 3.69097e-08 0)
(0.115284 9.02784e-09 1.06612e-32)
(0.0284786 2.58489e-09 0)
(0.00624343 5.14268e-10 0)
(0.00128765 1.19738e-10 0)
(0.00024004 2.11901e-11 0)
(4.26167e-05 4.6522e-12 0)
(6.94002e-06 7.59717e-13 0)
(1.08463e-06 1.87795e-13 0)
(1.5737e-07 5.29241e-14 0)
(2.20212e-08 -2.44134e-13 0)
(2.88945e-09 -1.34871e-13 0)
(3.66648e-10 -1.12677e-13 0)
(4.36265e-11 -1.6048e-13 -1.06594e-32)
(4.43538e-12 -3.00472e-13 0)
(1.16092e-13 -2.09989e-13 0)
(9.90193e-14 -1.70723e-13 0)
(4.81439e-13 -4.09735e-14 0)
(4.23393e-13 -1.19506e-14 0)
(-5.80458e-14 1.53651e-14 0)
(1.84381e-13 2.44134e-13 0)
(5.3607e-13 -5.12169e-15 0)
(4.09735e-13 -3.4486e-13 0)
(2.834e-13 -3.12423e-13 0)
(-1.02434e-13 -2.23647e-13 0)
(2.73157e-14 3.41446e-15 0)
(2.32183e-13 -1.70723e-14 0)
(-2.35598e-13 1.53651e-14 0)
(-3.55104e-13 -1.21213e-13 0)
(-4.95097e-13 -1.50236e-13 0)
(-2.86815e-13 -2.27062e-13 0)
(1.22921e-13 -1.70723e-13 0)
(-3.51689e-13 2.39012e-14 0)
(-3.34617e-13 -1.70723e-13 1.06594e-32)
(-8.1947e-14 -2.76571e-13 0)
(3.03887e-13 -5.61678e-13 1.06594e-32)
(4.78024e-13 -5.99238e-13 0)
(-9.56048e-14 -5.8558e-13 0)
(-3.41446e-15 -5.22412e-13 0)
(-7.51181e-14 -3.96077e-13 0)
(-2.73157e-13 -5.87287e-13 0)
(1.33164e-13 -6.31675e-13 0)
(-2.45229e-13 -7.00655e-14 0)
(-4.3207e-13 -1.81002e-13 0)
(-1.34292e-13 -7.00655e-14 0)
(2.33552e-14 -1.10937e-13 0)
(-1.81002e-13 2.62745e-14 0)
(-5.83879e-14 -2.91939e-15 0)
(-4.67103e-14 -3.045e-28 0)
(-1.34292e-13 -1.22615e-13 0)
(8.75818e-14 -3.76602e-13 0)
(2.45229e-13 -4.3499e-13 0)
(2.04358e-13 -2.30632e-13 0)
(4.78781e-13 -5.16733e-13 0)
(5.02136e-13 -4.93378e-13 0)
(1.98519e-13 -3.12375e-13 0)
(7.59043e-14 -2.48149e-13 0)
(-4.14554e-13 -3.47408e-13 0)
(-2.27713e-13 -4.26232e-13 0)
(3.09456e-13 -5.92637e-13 0)
(-4.67103e-14 -7.41526e-13 0)
(-5.60524e-13 -7.59043e-13 0)
(-4.61264e-13 -7.38607e-13 0)
(-3.21133e-13 -5.66363e-13 0)
(-2.16035e-13 -5.10894e-13 0)
(-1.10937e-13 -4.40829e-13 0)
(-4.78781e-13 -1.25534e-13 0)
(-3.3865e-13 1.60567e-13 0)
(3.91199e-13 1.98519e-13 0)
(3.85944e-12 -9.634e-14 0)
(3.59611e-11 -5.83879e-15 0)
(3.07558e-10 7.59043e-14 0)
(2.42702e-09 3.00698e-13 0)
(1.84956e-08 1.57647e-13 0)
(1.32046e-07 1.25534e-13 0)
(9.09917e-07 -8.08672e-13 0)
(5.8144e-06 -6.93064e-12 0)
(3.56872e-05 -4.42376e-11 0)
(0.000200599 -2.35677e-10 0)
(0.00107466 -1.30259e-09 0)
(0.00519211 -5.68262e-09 0)
(0.0235994 -2.66939e-08 0)
(0.0948494 -9.16723e-08 0)
(0.350482 -3.50091e-07 0)
(1.11345 -8.61664e-07 0)
(3.10461 -2.4233e-06 0)
(6.94601 -3.2439e-06 0)
(12.4864 -4.69623e-06 0)
(17.1961 4.4686e-06 0)
(20.8487 -7.06806e-07 0)
(19.7524 2.78702e-05 0)
(19.8076 -1.63045e-05 0)
(20.2762 1.29824e-05 0)
(18.0713 -1.91262e-05 0)
(20.5609 -4.59946e-06 0)
(20.4596 -5.98347e-06 0)
(16.5642 4.42027e-06 0)
(9.37394 3.58066e-06 0)
(3.98178 2.77134e-06 0)
(1.38947 9.65979e-07 0)
(0.430084 3.97954e-07 0)
(0.115284 1.03177e-07 0)
(0.0284786 3.0268e-08 0)
(0.00624343 6.39688e-09 0)
(0.00128765 1.47442e-09 0)
(0.00024004 2.64354e-10 0)
(4.26167e-05 5.03684e-11 0)
(6.94001e-06 7.31718e-12 0)
(1.08462e-06 1.45968e-12 0)
(1.57369e-07 -8.36542e-14 0)
(2.20213e-08 -1.70723e-13 0)
(2.88968e-09 -1.69016e-13 0)
(3.66443e-10 3.7559e-14 0)
(4.36982e-11 -1.417e-13 0)
(4.90658e-12 5.29241e-14 0)
(5.22412e-13 -6.99964e-14 0)
(-2.73157e-14 8.1947e-14 0)
(1.84381e-13 1.417e-13 0)
(1.09263e-13 -1.417e-13 0)
(2.93643e-13 -1.65601e-13 0)
(3.55104e-13 -1.79259e-13 0)
(-2.76571e-13 -9.73121e-14 0)
(1.02434e-14 -2.61206e-13 0)
(5.32656e-13 -2.45841e-13 0)
(3.79005e-13 -3.05594e-13 0)
(-9.21904e-14 -9.56048e-14 0)
(-3.99492e-13 -1.57065e-13 0)
(-3.61933e-13 -4.45587e-13 0)
(-4.71195e-13 -3.22666e-13 0)
(-5.53142e-13 -1.05848e-13 0)
(-1.74137e-13 -2.06575e-13 0)
(3.10716e-13 -3.17545e-13 0)
(-1.50236e-13 -2.98765e-13 0)
(-5.3607e-13 -1.22921e-13 0)
(-6.86306e-13 -2.45841e-13 0)
(-2.28769e-13 -4.01199e-13 0)
(1.98039e-13 -5.58264e-13 0)
(1.26335e-13 -4.21686e-13 0)
(3.7559e-14 -2.13404e-13 0)
(-3.38031e-13 -1.16092e-13 0)
(-5.15583e-13 4.4388e-14 0)
(-2.11696e-13 -1.29749e-13 0)
(-1.16776e-13 -8.08672e-13 0)
(5.83879e-14 -7.88236e-13 0)
(1.98519e-13 -5.63443e-13 0)
(3.21133e-13 -4.67103e-13 0)
(3.09456e-13 -3.15295e-13 0)
(5.83879e-14 -3.56166e-13 0)
(-1.22615e-13 -4.26232e-13 0)
(-3.91199e-13 -4.26232e-13 0)
(-3.50327e-13 -5.07975e-13 0)
(8.75818e-14 -4.43748e-13 0)
(-6.42267e-14 -5.13813e-13 0)
(-1.34292e-13 -7.29849e-13 0)
(2.51068e-13 -9.72158e-13 0)
(2.3939e-13 -1.17068e-12 0)
(8.75818e-14 -1.15024e-12 0)
(2.86101e-13 -1.11229e-12 0)
(1.16776e-13 -8.72899e-13 0)
(-4.08715e-13 -8.58302e-13 0)
(-3.91199e-13 -1.05974e-12 0)
(-6.77299e-13 -9.6632e-13 0)
(-6.07234e-13 -8.02833e-13 0)
(-1.98519e-13 -9.69239e-13 0)
(1.75164e-14 -8.58302e-13 0)
(3.62005e-13 -8.26189e-13 0)
(4.84619e-13 -5.95556e-13 0)
(-2.16035e-13 -5.07975e-13 0)
(-2.97778e-13 -4.29151e-13 0)
(3.9295e-12 -5.54685e-13 0)
(3.68778e-11 -4.52506e-13 0)
(3.07979e-10 -2.04358e-13 0)
(2.42684e-09 -1.81002e-13 0)
(1.84954e-08 -1.31373e-13 0)
(1.32045e-07 -1.63486e-13 0)
(9.09905e-07 -4.87539e-13 0)
(5.81432e-06 -3.83608e-12 0)
(3.56868e-05 -2.30603e-11 0)
(0.000200597 -1.20434e-10 0)
(0.00107465 -6.59617e-10 0)
(0.00519206 -2.87098e-09 0)
(0.0235992 -1.34581e-08 0)
(0.0948489 -4.62749e-08 0)
(0.350481 -1.76557e-07 0)
(1.11345 -4.36796e-07 0)
(3.1046 -1.23138e-06 0)
(6.94601 -1.69538e-06 0)
(12.4864 -2.55445e-06 0)
(17.1961 1.84402e-06 0)
(20.8487 -1.04033e-06 0)
(19.7524 1.34998e-05 0)
(19.8075 -8.87505e-06 0)
(20.2762 6.8829e-06 0)
(18.0713 -9.19698e-06 0)
(20.5609 -1.8336e-06 0)
(20.4596 -2.45967e-06 0)
(16.5642 2.49998e-06 0)
(9.37394 1.90923e-06 0)
(3.98178 1.41878e-06 0)
(1.38947 4.97242e-07 0)
(0.430083 2.02932e-07 0)
(0.115283 5.3024e-08 0)
(0.0284784 1.54804e-08 0)
(0.00624338 3.29607e-09 0)
(0.00128764 7.58451e-10 0)
(0.000240038 1.37835e-10 0)
(4.26162e-05 2.61052e-11 0)
(6.93993e-06 3.92833e-12 0)
(1.08461e-06 3.7559e-13 0)
(1.57367e-07 -5.07047e-13 0)
(2.20212e-08 -2.16818e-13 0)
(2.88964e-09 -4.60952e-13 0)
(3.66757e-10 -3.05594e-13 0)
(4.36778e-11 -4.18271e-13 0)
(4.52416e-12 -4.26807e-13 0)
(3.89248e-13 -5.58264e-13 0)
(3.41446e-13 -4.95097e-13 0)
(3.41446e-15 -5.68507e-13 0)
(-3.07301e-13 -6.88013e-13 0)
(-1.80966e-13 -6.98257e-13 0)
(3.51689e-13 -8.63858e-13 0)
(2.32183e-13 -8.62151e-13 0)
(8.87759e-14 -7.75082e-13 0)
(-5.46313e-14 -9.50927e-13 0)
(2.04868e-13 -1.00897e-12 0)
(3.7559e-13 -1.02604e-12 0)
(-5.73629e-13 -7.92154e-13 0)
(-6.14603e-13 -7.22158e-13 0)
(9.56048e-14 -6.52162e-13 0)
(-2.15111e-13 -5.92409e-13 0)
(-5.15583e-13 -5.30948e-13 0)
(-2.86815e-13 -7.20451e-13 0)
(-1.70723e-14 -7.76789e-13 0)
(-2.08282e-13 -6.58991e-13 0)
(-5.46313e-13 -4.08028e-13 0)
(-2.93643e-13 1.70723e-15 0)
(2.45841e-13 7.17036e-14 0)
(5.9753e-13 2.40719e-13 0)
(5.42899e-13 2.23647e-13 0)
(4.1315e-13 3.07301e-13 0)
(-1.29749e-13 4.42172e-13 0)
(-2.97058e-13 6.67527e-13 0)
(-1.86841e-13 -1.20279e-12 0)
(1.92798e-27 -8.55383e-13 0)
(4.55426e-13 -7.79478e-13 0)
(5.48846e-13 -5.83879e-13 0)
(5.25491e-14 -6.2767e-13 0)
(-3.03617e-13 -6.65622e-13 0)
(-2.56907e-13 -8.61221e-13 0)
(-2.56907e-13 -7.2109e-13 0)
(4.08715e-14 -7.94075e-13 0)
(2.16035e-13 -6.33509e-13 0)
(-4.20393e-13 -7.2401e-13 0)
(-3.91199e-13 -6.42267e-13 0)
(-2.80262e-13 -8.46624e-13 0)
(-1.51809e-13 -1.13856e-12 0)
(2.04358e-13 -1.31081e-12 0)
(-5.6798e-28 -1.16484e-12 0)
(2.3939e-13 -1.20279e-12 0)
(-1.75164e-14 -1.01595e-12 0)
(-1.63486e-13 -1.05098e-12 0)
(-8.1743e-14 -9.634e-13 0)
(-4.37909e-13 -7.00655e-13 0)
(-3.67844e-13 -8.55383e-13 0)
(2.33552e-14 -8.52463e-13 0)
(2.68584e-13 -7.56123e-13 0)
(9.34206e-14 -8.78738e-13 0)
(-4.18096e-29 -1.10353e-12 0)
(4.72942e-13 -7.85317e-13 0)
(3.88279e-12 -5.83879e-13 0)
(3.65975e-11 -7.96995e-13 0)
(3.08113e-10 -6.91896e-13 0)
(2.42721e-09 -7.61962e-13 0)
(1.84956e-08 -4.67103e-13 0)
(1.32046e-07 -3.44489e-13 0)
(9.09909e-07 -4.96297e-14 0)
(5.81435e-06 2.29464e-12 0)
(3.5687e-05 1.6369e-11 0)
(0.000200598 8.69396e-11 0)
(0.00107466 4.83385e-10 0)
(0.00519208 2.05249e-09 0)
(0.0235993 9.56784e-09 0)
(0.0948491 3.12052e-08 0)
(0.350481 1.17298e-07 0)
(1.11345 2.57289e-07 0)
(3.1046 6.92803e-07 0)
(6.94601 5.51602e-07 0)
(12.4864 5.12548e-07 0)
(17.1961 -3.77227e-06 0)
(20.8487 -9.6385e-07 0)
(19.7524 -1.22198e-05 0)
(19.8076 7.33642e-06 0)
(20.2762 -4.96418e-06 0)
(18.0713 8.32584e-06 0)
(20.5609 2.62481e-06 0)
(20.4596 4.64604e-06 0)
(16.5642 2.10124e-07 0)
(9.37394 -4.39216e-07 0)
(3.98178 -7.55966e-07 0)
(1.38947 -2.73688e-07 0)
(0.430083 -1.29765e-07 0)
(0.115283 -3.3796e-08 0)
(0.0284785 -1.05506e-08 0)
(0.0062434 -2.22582e-09 0)
(0.00128765 -5.30772e-10 0)
(0.000240039 -9.44661e-11 0)
(4.26164e-05 -1.81803e-11 0)
(6.93996e-06 -2.86132e-12 0)
(1.08462e-06 -9.23611e-13 0)
(1.57368e-07 -6.23139e-13 0)
(2.20214e-08 -4.57537e-13 0)
(2.88954e-09 -5.82165e-13 0)
(3.66457e-10 -7.25572e-13 0)
(4.34046e-11 -8.3825e-13 0)
(4.64708e-12 -7.85325e-13 0)
(3.10716e-13 -5.99238e-13 0)
(-1.70723e-14 -7.93862e-13 0)
(-8.53615e-14 -8.89466e-13 0)
(-1.57065e-13 -7.44352e-13 0)
(-1.29749e-13 -7.61424e-13 0)
(-1.36578e-14 -1.01409e-12 0)
(-9.56048e-14 -1.03117e-12 0)
(-1.09263e-13 -1.07897e-12 0)
(3.07301e-14 -1.01068e-12 0)
(3.1413e-13 -1.10287e-12 0)
(4.02906e-13 -1.12336e-12 0)
(1.46822e-13 -1.038e-12 0)
(-1.43407e-13 -7.42645e-13 0)
(-2.90229e-13 -7.87033e-13 0)
(-2.86815e-13 -9.45805e-13 0)
(-3.51689e-13 -8.21177e-13 0)
(-1.05848e-13 -7.05086e-13 0)
(-1.02434e-14 -6.82892e-13 0)
(1.43407e-13 -6.62405e-13 0)
(6.31675e-13 -4.7461e-13 0)
(6.72648e-13 -1.53651e-13 0)
(6.41918e-13 4.4388e-14 0)
(4.57537e-13 1.14384e-13 0)
(1.77552e-13 4.95097e-14 0)
(1.36578e-13 1.02434e-14 0)
(2.11696e-13 -1.17799e-13 0)
(2.56084e-13 1.02434e-13 0)
(4.96297e-13 -7.06493e-13 0)
(8.58302e-13 -4.05796e-13 0)
(8.46624e-13 -2.74423e-13 0)
(6.30589e-13 -2.21874e-13 0)
(2.33552e-14 -2.24793e-13 0)
(-3.44489e-13 -2.68584e-13 0)
(-2.04358e-13 -2.53987e-13 0)
(-2.33552e-13 -2.27713e-13 0)
(-9.92594e-14 -2.56907e-13 0)
(2.10196e-13 -2.68584e-13 0)
(-7.00655e-14 -2.62745e-13 0)
(-3.67844e-13 -1.16776e-13 0)
(-8.23269e-13 -2.01438e-13 0)
(-6.42267e-13 -3.82441e-13 0)
(-1.75164e-14 -4.99216e-13 0)
(4.26232e-13 -4.93378e-13 0)
(5.66363e-13 -2.94859e-13 0)
(-3.50327e-14 -2.97778e-13 0)
(-3.21133e-13 -2.77342e-13 0)
(-3.50327e-14 -3.59086e-13 0)
(-2.97778e-13 -2.68584e-13 0)
(-5.07975e-13 -2.74423e-13 0)
(1.86841e-13 -2.86101e-13 0)
(2.45229e-13 -2.51068e-13 0)
(-2.10196e-13 -3.62005e-13 0)
(4.08715e-14 -3.97038e-13 0)
(6.59783e-13 -3.26972e-13 0)
(3.90615e-12 -2.53987e-13 0)
(3.67026e-11 -3.06536e-13 0)
(3.07984e-10 -2.53987e-13 0)
(2.42725e-09 -3.47408e-13 0)
(1.84962e-08 -2.16035e-13 0)
(1.32046e-07 -4.08715e-14 0)
(9.0991e-07 -2.62745e-13 0)
(5.81435e-06 9.92594e-14 0)
(3.5687e-05 2.27713e-13 0)
(0.000200598 -1.1444e-12 0)
(0.00107466 -1.84243e-11 0)
(0.00519208 -1.30267e-10 0)
(0.0235993 -7.79337e-10 0)
(0.0948491 -3.77066e-09 0)
(0.350481 -1.75847e-08 0)
(1.11345 -6.4977e-08 0)
(3.1046 -2.29998e-07 0)
(6.94601 -6.00215e-07 0)
(12.4864 -1.3231e-06 0)
(17.1961 -1.77843e-06 0)
(20.8487 -2.58272e-06 0)
(19.7524 6.87174e-08 0)
(19.8076 -2.61016e-06 0)
(20.2762 2.00404e-06 0)
(18.0713 5.61472e-07 0)
(20.5609 1.91143e-06 0)
(20.4596 2.44112e-06 0)
(16.5642 1.92142e-06 0)
(9.37394 8.70108e-07 0)
(3.98178 3.23308e-07 0)
(1.38947 1.01564e-07 0)
(0.430083 2.842e-08 0)
(0.115283 7.32437e-09 0)
(0.0284785 1.64291e-09 0)
(0.0062434 3.56253e-10 0)
(0.00128764 6.3753e-11 0)
(0.000240039 1.03782e-11 0)
(4.26164e-05 1.27189e-12 0)
(6.93996e-06 -5.12169e-14 0)
(1.08462e-06 -1.7243e-13 0)
(1.57368e-07 -2.20233e-13 0)
(2.20213e-08 -1.62187e-13 0)
(2.88909e-09 -2.85107e-13 0)
(3.6632e-10 -3.84127e-13 0)
(4.35617e-11 -3.65347e-13 0)
(5.00218e-12 -3.09009e-13 0)
(3.27788e-13 -2.04868e-13 0)
(-2.2194e-13 -3.19252e-13 0)
(1.09263e-13 -3.05594e-13 0)
(-1.12677e-13 -1.89502e-13 0)
(-6.14603e-13 -2.81693e-13 0)
(-2.15111e-13 -4.40465e-13 0)
(7.85325e-14 -3.89248e-13 0)
(1.53651e-13 -3.48275e-13 0)
(-7.85325e-14 -2.45841e-13 0)
(1.36578e-14 -4.1315e-13 0)
(4.91682e-13 -3.87541e-13 0)
(1.84381e-13 -3.68762e-13 0)
(-1.33164e-13 -3.67054e-13 0)
(-2.90229e-13 -3.6364e-13 0)
(-3.27788e-13 -3.90956e-13 0)
(-6.82892e-14 -3.46568e-13 0)
(-1.36578e-14 -2.35598e-13 0)
(9.21904e-14 -2.97058e-13 0)
(1.74137e-13 -2.11696e-13 0)
(3.68762e-13 -2.79986e-13 0)
(8.12641e-13 -3.29495e-13 0)
(7.85325e-13 -2.27062e-13 0)
(5.49728e-13 -2.68035e-13 0)
(3.55104e-13 -1.92917e-13 0)
(6.14603e-14 -1.86088e-13 0)
(3.41446e-14 -2.13404e-13 0)
(8.87759e-14 -2.85107e-13 0)
)
;

boundaryField
{
    sides1
    {
        type            zeroGradient;
    }
    sides2
    {
        type            slip;
    }
    empty
    {
        type            empty;
    }
}


// ************************************************************************* //
