/*--------------------------------*- C++ -*----------------------------------*\
| =========                 |                                                 |
| \\      /  F ield         | OpenFOAM: The Open Source CFD Toolbox           |
|  \\    /   O peration     | Version:  2012                                  |
|   \\  /    A nd           | Website:  www.openfoam.com                      |
|    \\/     M anipulation  |                                                 |
\*---------------------------------------------------------------------------*/
FoamFile
{
    version     2.0;
    format      ascii;
    class       volScalarField;
    location    "0.19";
    object      minKappa;
}
// * * * * * * * * * * * * * * * * * * * * * * * * * * * * * * * * * * * * * //

dimensions      [0 0 0 0 0 0 0];


internalField   nonuniform List<scalar> 
2268
(
1.02319e-06
2.32123e-06
3.7086e-06
5.20593e-06
6.67157e-06
8.21111e-06
9.78073e-06
1.13765e-05
1.29919e-05
1.46552e-05
1.63021e-05
1.79624e-05
1.94883e-05
2.08543e-05
2.22205e-05
2.31497e-05
2.35557e-05
2.3116e-05
2.18647e-05
1.94919e-05
1.59729e-05
1.10291e-05
7.66615e-06
1.02319e-06
2.32123e-06
3.7086e-06
5.20593e-06
6.67157e-06
8.21111e-06
9.78073e-06
1.13765e-05
1.29919e-05
1.46552e-05
1.63021e-05
1.79624e-05
1.94883e-05
2.08543e-05
2.22205e-05
2.31497e-05
2.35557e-05
2.3116e-05
2.18647e-05
1.94919e-05
1.59729e-05
1.10291e-05
7.66615e-06
1.55445e-06
2.60364e-06
3.89434e-06
5.34024e-06
6.77659e-06
8.29959e-06
9.85604e-06
1.14446e-05
1.30577e-05
1.47153e-05
1.6371e-05
1.80438e-05
1.95583e-05
2.10097e-05
2.2339e-05
2.32796e-05
2.38313e-05
2.35094e-05
2.24022e-05
2.0248e-05
1.70493e-05
1.25129e-05
1.03247e-05
2.17818e-06
3.01795e-06
4.18443e-06
5.55612e-06
6.94753e-06
8.44438e-06
9.97956e-06
1.15562e-05
1.31643e-05
1.48165e-05
1.6482e-05
1.81585e-05
1.96903e-05
2.12375e-05
2.25394e-05
2.35085e-05
2.41762e-05
2.40391e-05
2.31404e-05
2.12723e-05
1.85037e-05
1.47084e-05
1.2377e-05
2.82931e-06
3.51644e-06
4.55735e-06
5.8436e-06
7.17905e-06
8.64227e-06
1.01496e-05
1.17101e-05
1.33113e-05
1.49606e-05
1.66364e-05
1.83106e-05
1.98942e-05
2.1519e-05
2.28476e-05
2.38945e-05
2.4664e-05
2.47631e-05
2.42139e-05
2.27291e-05
2.05318e-05
1.74958e-05
1.61552e-05
3.48986e-06
4.06604e-06
4.99325e-06
6.19156e-06
7.46425e-06
8.8882e-06
1.03624e-05
1.19028e-05
1.34948e-05
1.51421e-05
1.6828e-05
1.85037e-05
2.01524e-05
2.18357e-05
2.32212e-05
2.44232e-05
2.53007e-05
2.56315e-05
2.55493e-05
2.45859e-05
2.30343e-05
2.10705e-05
2.44838e-05
4.15243e-06
4.64625e-06
5.47533e-06
6.58936e-06
7.79654e-06
9.17769e-06
1.06155e-05
1.21329e-05
1.37145e-05
1.53617e-05
1.7059e-05
1.8752e-05
2.04685e-05
2.21994e-05
2.36923e-05
2.50796e-05
2.60974e-05
2.67195e-05
2.71551e-05
2.67823e-05
2.59328e-05
2.51945e-05
4.05866e-05
4.81356e-06
5.24474e-06
5.99074e-06
7.02775e-06
8.16908e-06
9.50499e-06
1.09043e-05
1.23967e-05
1.39667e-05
1.56154e-05
1.73252e-05
1.90474e-05
2.08283e-05
2.26181e-05
2.42412e-05
2.58015e-05
2.69929e-05
2.80145e-05
2.89732e-05
2.93083e-05
2.92266e-05
3.00114e-05
5.38002e-05
9.31251e-05
0.000132545
0.000166468
0.000158873
0.000137124
0.000122476
8.84398e-05
7.37431e-05
4.78531e-05
3.64769e-05
2.07556e-05
1.4163e-05
5.52129e-06
3.4325e-06
2.46798e-06
1.20104e-06
3.85865e-06
1.40318e-06
2.74744e-06
9.31251e-05
0.000132545
0.000166468
0.000158873
0.000137124
0.000122476
8.84398e-05
7.37431e-05
4.78531e-05
3.64769e-05
2.07556e-05
1.4163e-05
5.52129e-06
3.4325e-06
2.46798e-06
1.20104e-06
3.85865e-06
1.07569e-06
2.6823e-06
0.000101342
0.00014171
0.000178374
0.000171678
0.000143039
0.000127573
9.11459e-05
7.59707e-05
4.94349e-05
3.78485e-05
2.19664e-05
1.51922e-05
6.75312e-06
4.3156e-06
3.23386e-06
1.51009e-06
3.98646e-06
1.07569e-06
2.6823e-06
0.000145345
0.000167646
0.000190713
0.000175482
0.000143369
0.000129552
9.14418e-05
7.67305e-05
4.97382e-05
3.82893e-05
2.22865e-05
1.55735e-05
7.30657e-06
4.69036e-06
3.91043e-06
1.80185e-06
4.36122e-06
1.45299e-06
3.0629e-06
0.000191258
0.000202257
0.000221074
0.000195745
0.000151688
0.000136599
9.49599e-05
7.99378e-05
5.19332e-05
4.02355e-05
2.39569e-05
1.70016e-05
8.793e-06
5.69663e-06
4.8665e-06
2.17633e-06
4.71821e-06
1.47034e-06
3.22966e-06
0.000265144
0.0002442
0.000240538
0.00021087
0.000157231
0.000142545
9.7903e-05
8.24633e-05
5.37091e-05
4.17319e-05
2.5422e-05
1.82218e-05
1.04623e-05
6.90756e-06
6.11337e-06
3.02034e-06
5.37983e-06
2.06106e-06
3.79421e-06
0.000341446
0.000307405
0.000287165
0.000238873
0.00016966
0.000152081
0.000102971
8.67259e-05
5.66212e-05
4.41625e-05
2.7556e-05
1.99632e-05
1.21947e-05
8.05752e-06
7.26023e-06
3.61175e-06
5.99085e-06
2.76957e-06
4.26747e-06
0.000473423
0.000365028
0.000311605
0.000274708
0.000187082
0.000164174
0.000110067
9.13044e-05
6.03249e-05
4.6671e-05
3.01532e-05
2.18959e-05
1.4538e-05
9.75386e-06
8.88198e-06
4.84827e-06
6.94846e-06
3.657e-06
5.06727e-06
8.55399e-06
9.15413e-06
1.02136e-05
1.17301e-05
1.34147e-05
1.54324e-05
1.75602e-05
1.98531e-05
2.22881e-05
2.48693e-05
2.75651e-05
3.03122e-05
3.3202e-05
3.61239e-05
3.8892e-05
4.16018e-05
4.38513e-05
4.62503e-05
4.85298e-05
5.02497e-05
5.20749e-05
5.64413e-05
8.57025e-05
1.45726e-05
1.52366e-05
1.64403e-05
1.82545e-05
2.0285e-05
2.24556e-05
2.49943e-05
2.77788e-05
3.08479e-05
3.42117e-05
3.78576e-05
4.17506e-05
4.59467e-05
5.04694e-05
5.5253e-05
6.01049e-05
6.5328e-05
7.06628e-05
7.54113e-05
7.97833e-05
8.69617e-05
9.57394e-05
9.04291e-05
1.74327e-05
1.79921e-05
1.90213e-05
2.06406e-05
2.24531e-05
2.45806e-05
2.69738e-05
2.96485e-05
3.26538e-05
3.60143e-05
3.97439e-05
4.38363e-05
4.83939e-05
5.35264e-05
5.91097e-05
6.52232e-05
7.18866e-05
7.83362e-05
8.69804e-05
9.50659e-05
0.000100219
0.000108703
0.000101522
2.01909e-05
2.06774e-05
2.15804e-05
2.30515e-05
2.46915e-05
2.6757e-05
2.90137e-05
3.15789e-05
3.45136e-05
3.78628e-05
4.16612e-05
4.59483e-05
5.08838e-05
5.65977e-05
6.30278e-05
6.99671e-05
7.79167e-05
0.00010906
0.000165293
0.000237906
0.000264514
0.000276347
0.000253156
2.28256e-05
2.32565e-05
2.40659e-05
2.54173e-05
2.69206e-05
2.88812e-05
3.10243e-05
3.34998e-05
3.63698e-05
3.96878e-05
4.35199e-05
4.79896e-05
5.33503e-05
5.96828e-05
6.79453e-05
8.09792e-05
0.000149776
0.000483687
0.000943952
0.00147977
0.00203106
0.00211113
0.00174204
2.53078e-05
2.56965e-05
2.64394e-05
2.76931e-05
2.90901e-05
3.09548e-05
3.29757e-05
3.53353e-05
3.81044e-05
4.13593e-05
4.52214e-05
4.99004e-05
5.56462e-05
6.37077e-05
0.000115204
0.000225547
0.000963204
0.00144486
0.00161267
0.00173603
0.00190092
0.0022226
0.00230287
2.76228e-05
2.79777e-05
2.86698e-05
2.98311e-05
3.11429e-05
3.28477e-05
3.47639e-05
3.7029e-05
3.97206e-05
4.28722e-05
4.6654e-05
5.18816e-05
6.27711e-05
0.000136707
0.000648918
0.00121989
0.00153556
0.00155442
0.00134783
0.00123033
0.00139139
0.00184621
0.00199693
2.975e-05
3.00793e-05
3.07334e-05
3.18136e-05
3.3073e-05
3.46782e-05
3.64831e-05
3.86019e-05
4.11808e-05
4.47542e-05
5.35043e-05
8.16511e-05
0.000169046
0.000891698
0.00148737
0.00164255
0.00147821
0.00100826
0.000840281
0.000906257
0.000990553
0.00129479
0.00189057
3.17005e-05
3.20102e-05
3.26262e-05
3.36337e-05
3.48449e-05
3.63276e-05
3.85284e-05
4.24134e-05
5.03656e-05
7.6662e-05
0.000139417
0.000457258
0.000983816
0.0014232
0.00171916
0.00147259
0.000897078
0.000650133
0.000712688
0.000828113
0.000968569
0.000993149
0.00153903
3.45453e-05
3.50647e-05
3.61173e-05
3.82348e-05
4.23927e-05
5.21223e-05
6.76181e-05
9.73318e-05
0.00017615
0.000464074
0.000838132
0.00119254
0.00140172
0.0016544
0.00164834
0.000967998
0.000592425
0.000635328
0.000695011
0.000823634
0.000899729
0.000604769
0.00114961
7.86531e-05
8.28527e-05
9.10936e-05
0.000110157
0.000154999
0.000288409
0.000426914
0.000627924
0.000812403
0.00106463
0.00128704
0.00140975
0.00127497
0.00147326
0.00120886
0.000687436
0.00051528
0.000618563
0.000768903
0.000908162
0.000725732
0.000604769
0.000734131
0.000527826
0.000550164
0.000590673
0.000597739
0.000682871
0.000787963
0.000896836
0.00105533
0.00117364
0.00133903
0.00147003
0.00128613
0.00103681
0.00126739
0.000975673
0.000557152
0.00048227
0.000599767
0.000776353
0.000949105
0.000962391
0.000619121
0.000619121
0.000760271
0.000760271
0.000788496
0.000812992
0.000871234
0.000936896
0.00104298
0.00119333
0.00132748
0.00144154
0.00141026
0.0011127
0.000822863
0.00104892
0.000749818
0.000441672
0.000474663
0.00058618
0.000783864
0.000986269
0.00116727
0.00109309
0.000386366
0.000789229
0.000798021
0.000840366
0.000879581
0.00092755
0.000993835
0.00108271
0.00120913
0.00137413
0.00151777
0.00137559
0.00097001
0.000607934
0.000696786
0.00043856
0.000407393
0.000448462
0.000592681
0.000766448
0.000973166
0.00120366
0.00144708
0.00124505
0.000831909
0.00084331
0.000870868
0.000908226
0.000959834
0.00103076
0.00112461
0.00125808
0.001427
0.00153662
0.00123422
0.000707994
0.000390909
0.000421155
0.000381504
0.000381504
0.000485787
0.00062259
0.000756728
0.000921645
0.00110213
0.00131955
0.00133215
0.00085057
0.000862581
0.000882378
0.000915952
0.000961493
0.0010318
0.00112603
0.00127379
0.00144535
0.00148896
0.0011319
0.000595333
0.000348078
0.000348078
0.00049665
0.000504279
0.000603341
0.000689163
0.000779071
0.000896492
0.00103343
0.00118655
0.00113307
0.000848564
0.000860256
0.000878081
0.000911009
0.000955145
0.0010224
0.00111254
0.00124629
0.00139487
0.00141969
0.00121028
0.000991927
0.000586292
0.000645608
0.000746909
0.000663022
0.000697454
0.000754913
0.000795212
0.000866842
0.00095412
0.0010577
0.000953578
0.000832645
0.000844395
0.000857488
0.000890082
0.00092417
0.000982176
0.00105542
0.00116655
0.00128482
0.00137928
0.00126129
0.00117552
0.00100675
0.00093457
0.000844787
0.000763985
0.00076627
0.000775563
0.000797095
0.000840606
0.000890949
0.000953501
0.000807393
0.000807418
0.000815285
0.000824523
0.000855013
0.000877116
0.000932821
0.000972853
0.00106439
0.00112623
0.00122481
0.0011993
0.00113977
0.00103116
0.000930387
0.000839615
0.000783926
0.00076405
0.000755618
0.000767889
0.000789387
0.00081549
0.000855645
0.000698913
0.000772204
0.000780515
0.00078707
0.000811363
0.00082491
0.000867381
0.000888296
0.00094904
0.00097593
0.00104079
0.00103084
0.000999504
0.000935941
0.000855582
0.000797728
0.000742123
0.000729779
0.000719211
0.000722536
0.000734998
0.000745991
0.000769989
0.000611655
0.000735884
0.000742291
0.000746172
0.000764844
0.000772625
0.000803405
0.000812859
0.000852004
0.000857531
0.000890675
0.000878215
0.000857615
0.00081872
0.00076471
0.000726825
0.000690148
0.000688179
0.000668369
0.000673511
0.000674794
0.000680183
0.000691753
0.00053878
0.000698822
0.000703172
0.00070478
0.000718653
0.000721804
0.000743989
0.000746238
0.000772414
0.000768679
0.000783984
0.000769108
0.000751463
0.000727499
0.000690507
0.00066709
0.000640145
0.000638396
0.000616219
0.00062361
0.000616426
0.000620688
0.000622588
0.000480111
0.000659505
0.000662961
0.000663362
0.000673635
0.000673572
0.000688937
0.00068618
0.000702573
0.000694914
0.000701756
0.000686684
0.000669993
0.000653271
0.00062938
0.000613113
0.00059188
0.00058565
0.000567598
0.00057341
0.000561658
0.000566
0.000560468
0.00042923
0.000620796
0.000623373
0.000622606
0.00062976
0.000627418
0.000637561
0.000631933
0.000641403
0.000631989
0.000633132
0.000619201
0.000605077
0.000592276
0.000575304
0.000562382
0.000544831
0.000535528
0.00052205
0.000523019
0.000511664
0.000515199
0.000505785
0.00038645
0.000584257
0.000585881
0.000584132
0.00058862
0.00058461
0.000590667
0.000583393
0.000588136
0.000577665
0.000575812
0.000563404
0.00055135
0.000538881
0.000525599
0.000513725
0.00049947
0.000489006
0.000478029
0.000474407
0.000465855
0.000467127
0.000457083
0.000348523
0.000549732
0.000550668
0.000548285
0.000550745
0.000545644
0.000548529
0.00054027
0.000541498
0.000530657
0.000526909
0.000514376
0.00050376
0.000491796
0.000480204
0.000468729
0.000456414
0.000445733
0.000435714
0.000429855
0.000423916
0.000421979
0.000413598
0.000314958
0.000517051
0.000517474
0.000514748
0.000515692
0.000509959
0.00051044
0.000501584
0.000500277
0.000489047
0.000483783
0.000471408
0.000461594
0.000449336
0.000438482
0.000427003
0.000415986
0.000405371
0.000396113
0.000389507
0.000384758
0.000379985
0.000373935
0.000284628
0.000487187
0.000487146
0.000484086
0.000483705
0.000477456
0.000476055
0.000466766
0.000463567
0.000451917
0.000445632
0.000432891
0.000423345
0.000410991
0.000400493
0.000388913
0.000378555
0.00036817
0.000359505
0.000352469
0.000347992
0.000341687
0.000337738
0.000257081
0.000459807
0.000459402
0.000456114
0.000454669
0.000448053
0.000445181
0.000435527
0.000430833
0.000418872
0.000411726
0.00039869
0.000388993
0.000376167
0.000365619
0.000353789
0.000343705
0.000333429
0.000325265
0.000317834
0.000313441
0.000306843
0.000304565
0.000231952
0.000434946
0.000434262
0.000430826
0.000428567
0.000421672
0.000417631
0.000407614
0.000401697
0.0003893
0.00038122
0.00036773
0.000357633
0.000344505
0.000333811
0.000321714
0.000311667
0.000301359
0.000293445
0.000285709
0.000281272
0.000275005
0.000273816
0.000208708
0.000412742
0.000411801
0.000408193
0.000405212
0.000398014
0.000392966
0.000382585
0.000375596
0.000362836
0.000353964
0.000340132
0.000329523
0.000315816
0.000304682
0.000292134
0.000281911
0.000271359
0.000263526
0.000255574
0.000251155
0.000245349
0.000244857
0.000187464
0.000392994
0.000391848
0.000388095
0.000384544
0.000377094
0.000371226
0.000360506
0.000352562
0.000339379
0.000329586
0.000315213
0.000303887
0.000289666
0.000278074
0.000265056
0.000254504
0.000243569
0.000235605
0.000227494
0.000223091
0.000217735
0.00021762
0.000167522
0.000375731
0.000374401
0.000370486
0.000366415
0.000358672
0.00035203
0.000340939
0.000332101
0.000318483
0.000307818
0.000292985
0.000280989
0.000266117
0.000253849
0.000240118
0.000229064
0.000217611
0.000209349
0.000200994
0.00019662
0.000191655
0.000191842
0.000149208
0.000360899
0.00035939
0.000355293
0.000350746
0.000342719
0.000335412
0.000323999
0.000313935
0.0003003
0.000288754
0.000273294
0.00026041
0.000244787
0.000231787
0.000217343
0.000205659
0.000193537
0.000184796
0.000176121
0.000171671
0.000167059
0.000167518
0.000131674
0.000348443
0.00034674
0.000342419
0.000337389
0.000329034
0.000320812
0.000309262
0.000297839
0.000284345
0.000270203
0.000255503
0.000241041
0.000225829
0.000211971
0.00019657
0.000184063
0.000171093
0.000161713
0.000152579
0.00014793
0.00014363
0.000144391
0.000115631
0.000338429
0.000336521
0.00033195
0.000325315
0.00031686
0.000306672
0.000295269
0.000282626
0.000269196
0.000255075
0.000240154
0.000224668
0.000208906
0.000193727
0.00017785
0.0001644
0.000150402
0.00014017
0.00013035
0.000125335
0.000121274
0.000122381
0.00010007
0.000330754
0.000328458
0.000323278
0.000316018
0.000307168
0.000296547
0.000284585
0.000271159
0.000256546
0.000240916
0.000224728
0.000208521
0.000192349
0.000176466
0.000161132
0.000146632
0.000131388
0.000120065
0.000109291
0.000103708
9.98057e-05
0.00010135
8.59272e-05
0.000324793
0.000321211
0.000315633
0.00030786
0.000298336
0.000286917
0.000274109
0.000259978
0.000245024
0.000229343
0.000212979
0.000196012
0.000178701
0.000161605
0.000145087
0.000129654
0.000114296
0.000101633
8.94813e-05
8.29655e-05
7.90856e-05
8.12047e-05
7.22465e-05
0.000321043
0.000317476
0.000311838
0.000303918
0.000294098
0.00028226
0.000268827
0.000253762
0.000237456
0.000220117
0.000202232
0.000184169
0.000166161
0.000148339
0.00013091
0.000114285
9.89901e-05
8.50261e-05
7.10909e-05
6.31982e-05
5.90588e-05
6.20402e-05
6.0101e-05
0.000317928
0.000314245
0.000308391
0.000300184
0.000289999
0.00027774
0.000263851
0.00024837
0.000231746
0.00021407
0.000195634
0.000176571
0.000157227
0.000137965
0.000119149
0.000101102
8.42905e-05
6.9437e-05
5.43342e-05
4.42428e-05
3.94474e-05
4.40456e-05
4.90067e-05
0.000317363
0.000313784
0.000307975
0.000299797
0.000289629
0.000277364
0.000263377
0.000247627
0.000230493
0.000212082
0.000192811
0.000172888
0.000152636
0.000132197
0.000111872
9.1898e-05
7.27499e-05
5.50878e-05
4.03804e-05
2.83446e-05
2.02402e-05
2.83584e-05
4.03051e-05
0.000315591
0.000311742
0.000305727
0.000297425
0.000287197
0.00027495
0.000261076
0.000245548
0.000228733
0.000210655
0.000191633
0.000171774
0.000151408
0.000130704
0.000109955
8.92599e-05
6.88955e-05
4.89639e-05
3.00856e-05
1.62296e-05
1.59588e-05
1.59588e-05
3.03656e-05
8.57025e-05
8.59589e-05
0.000597177
0.000941326
6.60343e-05
6.60343e-05
0.000184466
0.000562426
6.59274e-05
6.59274e-05
6.78484e-05
8.21614e-05
8.42015e-05
6.66466e-05
6.65366e-05
6.65366e-05
0.000898682
0.000351116
0.0001257
0.0001257
0.00130832
0.00129093
0.000751487
0.000279154
0.00131151
0.00130592
0.00115601
0.000670414
0.00129721
0.00129721
0.00133794
0.00105911
0.00119555
0.00119555
0.00131728
0.00117236
0.00109227
0.00109227
0.00126287
0.00120057
0.000942738
0.000942738
0.00117132
0.00139686
0.000735821
0.000747534
0.00109669
0.00144831
0.000306108
0.000306108
0.000776526
0.00142308
0.000792569
0.000792569
0.000837219
0.000921547
0.000930112
0.000930112
0.00100026
0.0010567
0.000771209
0.000771209
0.000820942
0.000866335
0.000639897
0.000639897
0.000664752
0.000683671
0.000530245
0.000530245
0.000540236
0.000550626
0.000455192
0.000455192
0.000459445
0.000463685
0.000395004
0.000395004
0.000395958
0.00039772
0.0003466
0.000346441
0.000346441
0.000346993
0.000307946
0.000307143
0.000306946
0.000306946
0.000274876
0.000273931
0.000273357
0.000273357
0.000247109
0.000246013
0.00024517
0.00024517
0.000222779
0.000221812
0.000220993
0.000220993
0.000201237
0.000200307
0.0001995
0.0001995
0.000181955
0.000181243
0.000180635
0.000180635
0.000164389
0.000163811
0.000163333
0.000163333
0.000148515
0.000148193
0.000147966
0.000147966
0.000133775
0.000133607
0.000133551
0.000133551
0.000120385
0.000120385
0.000120457
0.000120649
0.000107714
0.000107714
0.000107953
0.000108311
9.61693e-05
9.61693e-05
9.66637e-05
9.72713e-05
8.50802e-05
8.50802e-05
8.57837e-05
8.66071e-05
7.50341e-05
7.50341e-05
7.60233e-05
7.7137e-05
6.52743e-05
6.52743e-05
6.65183e-05
6.79013e-05
5.65163e-05
5.65163e-05
5.80963e-05
5.98241e-05
4.80648e-05
4.80648e-05
4.99809e-05
5.2056e-05
4.07169e-05
4.07169e-05
4.30671e-05
4.55653e-05
3.40917e-05
3.40917e-05
3.68889e-05
3.98019e-05
2.90871e-05
2.90871e-05
3.23697e-05
3.56974e-05
2.57564e-05
2.57564e-05
2.93678e-05
3.2947e-05
0.00109589
0.000794364
0.000561401
0.000479698
0.000320779
0.000278197
0.000185212
0.000152297
0.000101272
7.81531e-05
5.14977e-05
3.74514e-05
2.58273e-05
1.73253e-05
1.61134e-05
9.17646e-06
1.23714e-05
7.29624e-06
9.23376e-06
0.00180192
0.000815466
0.000712068
0.000737974
0.000524231
0.000404898
0.000300263
0.000225174
0.000167398
0.000123955
9.22221e-05
6.83012e-05
5.13105e-05
3.68275e-05
3.24339e-05
2.13696e-05
2.33687e-05
1.5582e-05
1.76703e-05
0.000360516
0.00174535
0.000712068
0.000725274
0.000595344
0.000471853
0.000331069
0.000251793
0.000185393
0.00013896
0.000103742
7.75111e-05
6.06012e-05
4.45597e-05
3.85318e-05
2.87505e-05
2.94759e-05
2.37284e-05
2.49899e-05
0.000170202
0.001996
0.00161438
0.000725274
0.000756681
0.000553424
0.00041536
0.000294979
0.000225062
0.000166678
0.000128957
9.80675e-05
7.88638e-05
6.01652e-05
5.32294e-05
4.03287e-05
3.99389e-05
3.28628e-05
3.34668e-05
0.000143303
0.00110662
0.00228128
0.000809128
0.000766914
0.000582573
0.000427707
0.000319439
0.000245104
0.000188228
0.000147403
0.000114921
9.40282e-05
7.4297e-05
6.63429e-05
5.35447e-05
5.205e-05
4.52804e-05
4.53032e-05
0.000378454
0.000736777
0.00247728
0.00127958
0.000761813
0.000634659
0.000481277
0.000359443
0.000280281
0.000217589
0.000173126
0.000138235
0.000114473
9.25789e-05
8.23622e-05
6.82097e-05
6.53854e-05
5.81711e-05
5.77832e-05
0.000403162
0.000848017
0.00254123
0.00127314
0.000721535
0.000585108
0.000466175
0.000372384
0.000296545
0.000240041
0.000195097
0.00015938
0.000134637
0.000112179
0.000100694
8.61049e-05
8.20027e-05
7.45519e-05
7.36619e-05
0.000574854
0.0013113
0.00256492
0.0012873
0.000726653
0.000610495
0.00050396
0.000411136
0.000329003
0.000270898
0.000220102
0.00018379
0.00015572
0.000131978
0.000118952
0.000103591
9.87342e-05
9.09415e-05
8.97676e-05
0.000910942
0.00149142
0.00265212
0.00130195
0.000726653
0.000616964
0.000519286
0.000430802
0.000355067
0.000299378
0.000246466
0.000209964
0.000180201
0.000155225
0.000140631
0.000124353
0.000118396
0.000110205
0.000108692
0.000990888
0.00154523
0.00279646
0.00142851
0.000765269
0.000653624
0.000545922
0.000465502
0.00037704
0.000324037
0.000268337
0.000231988
0.000201215
0.000175765
0.00016057
0.000143789
0.000137439
0.000128971
0.00012732
0.0011475
0.00220622
0.00290718
0.00158124
0.000890185
0.000748855
0.000600215
0.000514273
0.00041464
0.00035826
0.000298666
0.000259553
0.00022695
0.000199668
0.000183302
0.00016556
0.000158401
0.000149557
0.000147625
0.00230884
0.00338129
0.00302231
0.00177408
0.0010381
0.000836166
0.000639629
0.000547278
0.000438819
0.000381041
0.000320355
0.000280506
0.00024781
0.000219976
0.000203436
0.000185448
0.000178047
0.000169142
0.000167125
0.00283548
0.00319024
0.00286135
0.00189053
0.00120048
0.000915072
0.000693969
0.000583746
0.00047093
0.000407417
0.00034621
0.000303831
0.000270799
0.000241735
0.000224628
0.000206093
0.000198187
0.000189041
0.000186836
0.00183206
0.00262532
0.00225482
0.00154093
0.00113563
0.000888549
0.000714951
0.0005963
0.000491327
0.000423785
0.000365317
0.0003213
0.000289554
0.000259981
0.000243221
0.000224646
0.000216725
0.000207631
0.000205397
0.00184275
0.00201081
0.00174534
0.0012711
0.00104033
0.000829841
0.000697454
0.000584987
0.000502368
0.000433962
0.000380795
0.00033659
0.000306393
0.000277052
0.00026045
0.000242142
0.00023403
0.000225083
0.000222747
0.00149442
0.00156705
0.00139307
0.00108056
0.000936666
0.000765208
0.000666799
0.000566527
0.000501025
0.000438933
0.000391262
0.000348074
0.000319812
0.000291324
0.000275268
0.000257591
0.000249552
0.00024094
0.000238599
0.00115555
0.00125579
0.00113239
0.000938521
0.000841716
0.000706308
0.000631845
0.000545512
0.00049096
0.000435587
0.000396648
0.000356299
0.000329787
0.00030312
0.000287468
0.000270892
0.00026283
0.000254734
0.000252347
0.000932865
0.00104223
0.000956294
0.000830519
0.000756073
0.000653491
0.000594117
0.00052319
0.000476985
0.000429393
0.000395574
0.000361307
0.000336672
0.000312298
0.000297274
0.000282057
0.000274152
0.000266704
0.000264341
0.00078015
0.000882948
0.000820437
0.000739368
0.000679797
0.000606399
0.00055584
0.000499955
0.000460073
0.000420571
0.000390304
0.000363
0.00034041
0.000318874
0.000304331
0.000290773
0.000282956
0.000276271
0.000273897
0.000668292
0.000764498
0.000719251
0.000663895
0.000615502
0.000562718
0.000518948
0.000477195
0.000441456
0.000410476
0.000382762
0.000360432
0.000340418
0.000322985
0.000309199
0.000297353
0.000289822
0.000283962
0.000281662
0.000581682
0.000671337
0.000636621
0.000598966
0.000560402
0.000522887
0.000485231
0.000454773
0.000422259
0.000398739
0.000373426
0.000355793
0.000337316
0.000324696
0.000311691
0.000301668
0.00029435
0.000289328
0.000287087
0.000513472
0.000597101
0.000569241
0.000543717
0.000512169
0.000485403
0.000453433
0.000431652
0.000402932
0.000386022
0.000362834
0.000349824
0.000332518
0.000322881
0.000311176
0.000304101
0.000297171
0.000293003
0.000290825
0.000456741
0.000535354
0.000512178
0.000495947
0.000469982
0.000451765
0.000425116
0.000409827
0.000384809
0.000372851
0.000351742
0.00034248
0.000326528
0.000319496
0.000308629
0.000303776
0.000297549
0.000294736
0.000292586
0.000409134
0.000483534
0.000463505
0.000454193
0.000432101
0.000420522
0.000398
0.00038786
0.00036637
0.000358589
0.00034004
0.000334019
0.000319566
0.000314893
0.000304818
0.000301499
0.000295621
0.000293893
0.000291956
0.000368741
0.000438576
0.000421148
0.000417219
0.000398393
0.000392291
0.000373442
0.000367578
0.000349405
0.000344792
0.000328675
0.000325078
0.000312156
0.000309349
0.000300167
0.000298142
0.000292698
0.000291632
0.000289841
0.000332706
0.000399039
0.000383795
0.00038405
0.000367817
0.000366116
0.000350092
0.000347794
0.000332372
0.000330507
0.000316677
0.000315287
0.000304036
0.0003029
0.000294736
0.000293857
0.000288946
0.000288484
0.000286846
0.000301429
0.000363699
0.000350641
0.000354094
0.000340311
0.000342141
0.000328673
0.000329428
0.000316571
0.000317025
0.000305351
0.000305679
0.000295977
0.000296125
0.000288947
0.000288957
0.000284588
0.000284573
0.000283108
0.000272606
0.000331784
0.00032075
0.000326729
0.000315152
0.000319826
0.000308541
0.000311853
0.000301118
0.000303594
0.000293802
0.000295686
0.000287456
0.000288802
0.000282651
0.000283505
0.000279724
0.000280134
0.000278868
0.000247259
0.000302774
0.000293805
0.000301751
0.000292333
0.000299249
0.00029005
0.000295482
0.00028674
0.000290952
0.000282935
0.000286131
0.000279296
0.000281582
0.000276387
0.000277851
0.000274619
0.000275338
0.000274238
0.000223346
0.000276207
0.000269212
0.000278766
0.000271358
0.000280109
0.000272811
0.000280014
0.000273019
0.000278723
0.000272244
0.000276613
0.000271027
0.000274191
0.000269898
0.000271957
0.000269266
0.000270288
0.000269365
0.00020213
0.000251726
0.000246839
0.000257655
0.00025224
0.000262464
0.000257001
0.000265654
0.000260329
0.000267287
0.000262267
0.000267624
0.000263219
0.000267099
0.000263656
0.000266173
0.00026399
0.000265226
0.000264473
0.000181778
0.000229049
0.000226349
0.000238192
0.000234686
0.000246151
0.00024239
0.000252275
0.000248454
0.000256488
0.000252758
0.000258983
0.00025562
0.000260152
0.000257471
0.000260425
0.000258703
0.000260156
0.000259558
0.000163804
0.000208071
0.000207669
0.000220331
0.000218725
0.000231212
0.000229087
0.00023999
0.000237593
0.000246522
0.000244007
0.000250957
0.000248573
0.000253642
0.000251677
0.000254979
0.000253691
0.000255312
0.00025486
0.000146379
0.000188779
0.000190621
0.000203965
0.000204217
0.000217575
0.000216979
0.000228756
0.000227649
0.000237349
0.000235913
0.000243493
0.000241967
0.000247513
0.000246173
0.000249793
0.000248884
0.000250665
0.00025034
0.000131063
0.000171223
0.000175156
0.000189141
0.000191212
0.000205289
0.000206146
0.00021864
0.00021873
0.000229062
0.000228619
0.000236717
0.000235981
0.000241916
0.000241153
0.000245032
0.000244475
0.000246384
0.000246178
0.000116078
0.000155401
0.000161177
0.000175873
0.000179643
0.00019434
0.00019655
0.000209652
0.000210818
0.000221691
0.000222118
0.00023066
0.000230607
0.000236879
0.000236608
0.000240713
0.000240452
0.000242475
0.000242368
0.000103142
0.000141423
0.000148807
0.000164304
0.000169585
0.000184801
0.000188245
0.000201818
0.000203951
0.000215246
0.000216444
0.000225336
0.000225886
0.000232426
0.000232593
0.000236878
0.000236885
0.000239
0.000238984
9.07016e-05
0.000129339
0.000138107
0.000154477
0.000161032
0.000176733
0.000181254
0.000195214
0.000198184
0.000209827
0.000211678
0.000220861
0.000221913
0.000228677
0.000229204
0.000233641
0.000233862
0.000236056
0.00023611
8.05057e-05
0.000119426
0.000129324
0.000146523
0.000154072
0.000170187
0.000175572
0.000189803
0.000193466
0.00020535
0.000207739
0.00021713
0.000218595
0.000225524
0.000226347
0.000230897
0.000231296
0.000233547
0.000233663
7.1482e-05
0.000111801
0.000122563
0.000140495
0.000148776
0.000165257
0.000171285
0.000185732
0.000189927
0.000201994
0.000204795
0.000214349
0.000216127
0.000223187
0.000224236
0.000228878
0.000229415
0.000231718
0.000231881
6.52274e-05
0.000106636
0.000117925
0.000136357
0.000145079
0.000161793
0.000168227
0.000182799
0.000187348
0.000199512
0.000202598
0.000212241
0.000214239
0.000221374
0.000222578
0.000227277
0.000227909
0.000230242
0.000230435
6.0987e-05
0.000104434
0.000117925
0.000136357
0.000145079
0.000161793
0.000168227
0.000182799
0.000187348
0.000199512
0.000202598
0.000212241
0.000214239
0.000221374
0.000222578
0.000227277
0.000227909
0.000230242
0.000230435
)
;

boundaryField
{
    leftWall
    {
        type            calculated;
        value           uniform 0;
    }
    rightWall
    {
        type            calculated;
        value           uniform 0;
    }
    lowerWall
    {
        type            calculated;
        value           uniform 0;
    }
    atmosphere
    {
        type            calculated;
        value           uniform 0;
    }
    defaultFaces
    {
        type            empty;
    }
}


// ************************************************************************* //
