/*--------------------------------*- C++ -*----------------------------------*\
| =========                 |                                                 |
| \\      /  F ield         | OpenFOAM: The Open Source CFD Toolbox           |
|  \\    /   O peration     | Version:  2012                                  |
|   \\  /    A nd           | Website:  www.openfoam.com                      |
|    \\/     M anipulation  |                                                 |
\*---------------------------------------------------------------------------*/
FoamFile
{
    version     2.0;
    format      ascii;
    class       volVectorField;
    location    "0.19";
    object      U;
}
// * * * * * * * * * * * * * * * * * * * * * * * * * * * * * * * * * * * * * //

dimensions      [0 1 -1 0 0 0 0];


internalField   nonuniform List<vector> 
2268
(
(0.027873 -0.0133842 0)
(0.0854572 -0.0133989 0)
(0.141377 -0.0136034 0)
(0.200631 -0.0138092 0)
(0.25825 -0.0139242 0)
(0.318522 -0.0143878 0)
(0.379916 -0.0146235 0)
(0.442235 -0.0148303 0)
(0.50525 -0.0151686 0)
(0.570195 -0.0153162 0)
(0.634302 -0.0153091 0)
(0.698767 -0.0148977 0)
(0.758752 -0.0137093 0)
(0.810879 -0.0128206 0)
(0.864603 -0.0118111 0)
(0.901228 -0.00739793 0)
(0.914782 -0.00215097 0)
(0.896456 0.00339856 0)
(0.846736 0.00947816 0)
(0.751376 0.0139402 0)
(0.60877 0.0199815 0)
(0.404317 0.0276087 0)
(0.159673 0.0652478 0)
(0.0277585 -0.0401747 0)
(0.0854188 -0.0402432 0)
(0.141253 -0.0408214 0)
(0.200426 -0.0414371 0)
(0.258024 -0.0417683 0)
(0.318249 -0.0431366 0)
(0.379632 -0.0438138 0)
(0.442017 -0.044425 0)
(0.505136 -0.0452773 0)
(0.570056 -0.0456954 0)
(0.634537 -0.0454246 0)
(0.699756 -0.0439261 0)
(0.759102 -0.0392513 0)
(0.813631 -0.037179 0)
(0.866714 -0.0308778 0)
(0.902952 -0.0162218 0)
(0.921197 0.00444125 0)
(0.904817 0.0289802 0)
(0.855413 0.0591414 0)
(0.761422 0.0989762 0)
(0.619459 0.143986 0)
(0.415103 0.185026 0)
(0.169814 0.200904 0)
(0.0275667 -0.0668708 0)
(0.0853349 -0.0670369 0)
(0.140993 -0.0679496 0)
(0.200012 -0.0690086 0)
(0.257587 -0.0695865 0)
(0.317725 -0.0718885 0)
(0.3791 -0.0730916 0)
(0.441625 -0.0741754 0)
(0.50499 -0.0756616 0)
(0.569993 -0.0765122 0)
(0.635285 -0.076598 0)
(0.701426 -0.0738181 0)
(0.761366 -0.067556 0)
(0.820654 -0.0637519 0)
(0.872267 -0.0541134 0)
(0.910791 -0.0333238 0)
(0.93626 -0.0032838 0)
(0.926504 0.0341953 0)
(0.885396 0.0766517 0)
(0.800801 0.124816 0)
(0.668461 0.182938 0)
(0.462461 0.23985 0)
(0.196099 0.341923 0)
(0.0273635 -0.0935311 0)
(0.0851518 -0.093849 0)
(0.140549 -0.0950108 0)
(0.199349 -0.0965499 0)
(0.256881 -0.0973749 0)
(0.316877 -0.100585 0)
(0.378194 -0.102335 0)
(0.440877 -0.103935 0)
(0.5045 -0.105904 0)
(0.569789 -0.107273 0)
(0.635822 -0.107493 0)
(0.702525 -0.103473 0)
(0.764489 -0.0955391 0)
(0.827441 -0.089444 0)
(0.879848 -0.0734096 0)
(0.919807 -0.046017 0)
(0.948087 -0.00284596 0)
(0.945057 0.053885 0)
(0.907232 0.119243 0)
(0.823003 0.203341 0)
(0.68455 0.305079 0)
(0.47236 0.410405 0)
(0.186862 0.511236 0)
(0.0272039 -0.120044 0)
(0.0848124 -0.120529 0)
(0.139928 -0.121913 0)
(0.198443 -0.124001 0)
(0.255935 -0.125111 0)
(0.315764 -0.129254 0)
(0.377022 -0.131673 0)
(0.439898 -0.13391 0)
(0.503927 -0.136576 0)
(0.569737 -0.138636 0)
(0.636882 -0.139345 0)
(0.704422 -0.134713 0)
(0.769933 -0.126671 0)
(0.836765 -0.118427 0)
(0.892632 -0.0979935 0)
(0.939203 -0.0658814 0)
(0.974163 -0.0158164 0)
(0.982156 0.0527506 0)
(0.963279 0.132998 0)
(0.895549 0.227829 0)
(0.777799 0.345806 0)
(0.568415 0.471208 0)
(0.25467 0.653664 0)
(0.027039 -0.146471 0)
(0.0843087 -0.147124 0)
(0.139117 -0.148706 0)
(0.197231 -0.151385 0)
(0.254634 -0.152795 0)
(0.314232 -0.157828 0)
(0.375337 -0.160961 0)
(0.43835 -0.163916 0)
(0.502738 -0.167214 0)
(0.569097 -0.170089 0)
(0.63724 -0.17108 0)
(0.705864 -0.166265 0)
(0.774649 -0.158 0)
(0.844239 -0.147191 0)
(0.903907 -0.121663 0)
(0.958525 -0.0839233 0)
(0.99747 -0.0227573 0)
(1.01249 0.0603471 0)
(1.0063 0.161403 0)
(0.947815 0.294652 0)
(0.823157 0.463471 0)
(0.613109 0.665201 0)
(0.252106 0.901396 0)
(0.0268655 -0.172663 0)
(0.0836576 -0.173495 0)
(0.13815 -0.175273 0)
(0.19579 -0.178608 0)
(0.253083 -0.180389 0)
(0.312428 -0.186334 0)
(0.373397 -0.190316 0)
(0.43655 -0.194174 0)
(0.501447 -0.198365 0)
(0.568602 -0.202281 0)
(0.638164 -0.204017 0)
(0.708968 -0.199768 0)
(0.781678 -0.19219 0)
(0.854806 -0.179735 0)
(0.922258 -0.152323 0)
(0.986529 -0.110535 0)
(1.03555 -0.0421685 0)
(1.06732 0.0475613 0)
(1.08564 0.161654 0)
(1.05036 0.310708 0)
(0.95508 0.498343 0)
(0.768447 0.730151 0)
(0.3852 1.05718 0)
(0.0266706 -0.198706 0)
(0.0828672 -0.199719 0)
(0.136995 -0.201694 0)
(0.194079 -0.205711 0)
(0.251126 -0.207891 0)
(0.310097 -0.2147 0)
(0.370792 -0.219574 0)
(0.433983 -0.224432 0)
(0.499256 -0.229557 0)
(0.567136 -0.23467 0)
(0.637864 -0.237334 0)
(0.710723 -0.233971 0)
(0.786633 -0.226824 0)
(0.863701 -0.213308 0)
(0.937042 -0.183715 0)
(1.00929 -0.136677 0)
(1.06584 -0.0605392 0)
(1.11454 0.0385342 0)
(1.14827 0.170711 0)
(1.13326 0.361518 0)
(1.03938 0.602861 0)
(0.858654 0.95002 0)
(0.411943 1.4595 0)
(-0.111445 -0.068559 0)
(-0.223812 -0.0904896 0)
(-0.315291 -0.0918241 0)
(-0.319815 -0.0682348 0)
(-0.278066 -0.0450851 0)
(-0.248041 -0.0319991 0)
(-0.179297 -0.0241895 0)
(-0.148688 -0.0189125 0)
(-0.0965463 -0.0153196 0)
(-0.073365 -0.0117273 0)
(-0.0416764 -0.0100223 0)
(-0.0283797 -0.00720497 0)
(-0.0106251 -0.00644983 0)
(-0.00661145 -0.00446586 0)
(0.00357707 -0.00416294 0)
(0.000330243 -0.00287415 0)
(0.0070023 -0.00277682 0)
(-0.000725941 -0.00212437 0)
(0.00460154 -0.00210645 0)
(-0.120976 0.211416 0)
(-0.23202 0.176381 0)
(-0.312161 0.136679 0)
(-0.307555 0.0493533 0)
(-0.268661 0.0193377 0)
(-0.241689 -0.0136636 0)
(-0.173886 -0.0142111 0)
(-0.145195 -0.0190502 0)
(-0.0934528 -0.0142587 0)
(-0.0710774 -0.0131174 0)
(-0.0397588 -0.00790084 0)
(-0.0268547 -0.00649847 0)
(-0.00944906 -0.00242751 0)
(-0.00561907 -0.00149214 0)
(0.00426054 0.00120759 0)
(0.00093224 0.00169335 0)
(0.00731633 0.00316638 0)
(-0.000432517 0.00336558 0)
(0.00460265 0.00381631 0)
(-0.141558 0.0825712 0)
(-0.277933 -0.0134674 0)
(-0.371608 -0.0589168 0)
(-0.366856 -0.0932779 0)
(-0.297448 -0.0697363 0)
(-0.259242 -0.0777503 0)
(-0.181655 -0.0616671 0)
(-0.148442 -0.0566153 0)
(-0.0941539 -0.0444708 0)
(-0.0710384 -0.0363944 0)
(-0.0388859 -0.0276855 0)
(-0.0261922 -0.0207543 0)
(-0.00850223 -0.0151585 0)
(-0.00514272 -0.0103165 0)
(0.0049235 -0.00700996 0)
(0.00113527 -0.003976 0)
(0.00770661 -0.00231345 0)
(-0.000449313 -0.00081316 0)
(0.00478783 -0.000327695 0)
(-0.154496 0.391434 0)
(-0.281305 0.27861 0)
(-0.345137 0.182633 0)
(-0.326253 0.0184839 0)
(-0.269938 -0.0200164 0)
(-0.241508 -0.0647177 0)
(-0.166108 -0.0571227 0)
(-0.13768 -0.0582511 0)
(-0.0847289 -0.0446065 0)
(-0.0636893 -0.037777 0)
(-0.0330059 -0.0256854 0)
(-0.0214613 -0.0197443 0)
(-0.00489975 -0.0109322 0)
(-0.00208788 -0.00701579 0)
(0.00700811 -0.00140212 0)
(0.00298329 0.000862302 0)
(0.00866493 0.0038408 0)
(0.000444874 0.00488919 0)
(0.00479208 0.00578032 0)
(-0.227813 0.263834 0)
(-0.41369 0.0558694 0)
(-0.496329 -0.0443749 0)
(-0.439415 -0.136314 0)
(-0.322639 -0.104086 0)
(-0.269648 -0.129323 0)
(-0.178619 -0.10267 0)
(-0.142773 -0.0955532 0)
(-0.0855963 -0.0737214 0)
(-0.0633114 -0.0606161 0)
(-0.0312497 -0.0445928 0)
(-0.0201683 -0.0335667 0)
(-0.0031247 -0.0231441 0)
(-0.00123826 -0.0155218 0)
(0.00822765 -0.00928803 0)
(0.00330581 -0.0045692 0)
(0.00937566 -0.00140803 0)
(0.000378331 0.000924317 0)
(0.00514782 0.0018469 0)
(-0.246269 0.67547 0)
(-0.390376 0.408424 0)
(-0.419786 0.208706 0)
(-0.384333 -0.0500367 0)
(-0.280723 -0.0837772 0)
(-0.243255 -0.125958 0)
(-0.154352 -0.106433 0)
(-0.125319 -0.0989106 0)
(-0.0697056 -0.075684 0)
(-0.0511495 -0.0615964 0)
(-0.0213771 -0.0426538 0)
(-0.0122028 -0.0318049 0)
(0.00293342 -0.0184566 0)
(0.00393451 -0.0115333 0)
(0.0117278 -0.0032027 0)
(0.00644629 0.000808669 0)
(0.0109896 0.00515045 0)
(0.00189134 0.00703323 0)
(0.0051523 0.00830926 0)
(-0.407391 0.513901 0)
(-0.663892 0.102266 0)
(-0.68321 -0.0593107 0)
(-0.532025 -0.212405 0)
(-0.352804 -0.164084 0)
(-0.277412 -0.192228 0)
(-0.169506 -0.150153 0)
(-0.130458 -0.136712 0)
(-0.0699174 -0.103242 0)
(-0.0496261 -0.0838458 0)
(-0.0186475 -0.0602122 0)
(-0.01023 -0.0450128 0)
(0.00539069 -0.0298333 0)
(0.0050558 -0.0195494 0)
(0.0133563 -0.010544 0)
(0.00680214 -0.00424131 0)
(0.0119323 0.000295876 0)
(0.00174831 0.00342533 0)
(0.00565369 0.0047291 0)
(-0.449005 1.16998 0)
(-0.56223 0.565595 0)
(-0.538806 0.176395 0)
(-0.500448 -0.179491 0)
(-0.314355 -0.181591 0)
(-0.251327 -0.202203 0)
(-0.14076 -0.163884 0)
(-0.108277 -0.141357 0)
(-0.0487054 -0.107242 0)
(-0.0338783 -0.0835392 0)
(-0.00471099 -0.0579576 0)
(0.000747453 -0.0418261 0)
(0.0140286 -0.0243538 0)
(0.0123383 -0.0144521 0)
(0.0182961 -0.00373755 0)
(0.0112998 0.00194181 0)
(0.0141517 0.00743249 0)
(0.00391616 0.0101177 0)
(0.0056467 0.0116996 0)
(0.0263471 -0.238923 0)
(0.0814589 -0.240239 0)
(0.134977 -0.242553 0)
(0.191112 -0.247696 0)
(0.247615 -0.2506 0)
(0.305977 -0.258838 0)
(0.36628 -0.265357 0)
(0.429451 -0.272146 0)
(0.495419 -0.279187 0)
(0.564624 -0.286594 0)
(0.637815 -0.291416 0)
(0.714628 -0.29064 0)
(0.797186 -0.285943 0)
(0.882653 -0.272336 0)
(0.970797 -0.242777 0)
(1.05929 -0.19178 0)
(1.14194 -0.111001 0)
(1.23281 -0.0101339 0)
(1.30631 0.139255 0)
(1.3411 0.355198 0)
(1.36637 0.630228 0)
(1.31952 1.03735 0)
(1.35644 1.72989 0)
(0.0257886 -0.292585 0)
(0.0790625 -0.29432 0)
(0.131467 -0.297183 0)
(0.185897 -0.303826 0)
(0.241236 -0.307916 0)
(0.298372 -0.318111 0)
(0.357721 -0.327108 0)
(0.420305 -0.337079 0)
(0.48654 -0.347442 0)
(0.557072 -0.359091 0)
(0.632789 -0.368517 0)
(0.71453 -0.373622 0)
(0.804141 -0.374361 0)
(0.901622 -0.366101 0)
(1.00765 -0.339997 0)
(1.11561 -0.287719 0)
(1.2373 -0.217005 0)
(1.35243 -0.106258 0)
(1.44368 0.0729855 0)
(1.50498 0.311562 0)
(1.56514 0.619406 0)
(1.57791 0.960275 0)
(1.68792 1.47861 0)
(0.025035 -0.344309 0)
(0.0759322 -0.346466 0)
(0.126825 -0.349927 0)
(0.179046 -0.358065 0)
(0.232844 -0.363632 0)
(0.288275 -0.376004 0)
(0.346318 -0.387898 0)
(0.407701 -0.401749 0)
(0.473591 -0.416653 0)
(0.544656 -0.433746 0)
(0.622917 -0.44971 0)
(0.709393 -0.463081 0)
(0.807448 -0.474115 0)
(0.920078 -0.477181 0)
(1.04641 -0.458163 0)
(1.18903 -0.422919 0)
(1.3434 -0.349942 0)
(1.49212 -0.217189 0)
(1.63889 -0.0163038 0)
(1.79163 0.232485 0)
(1.91391 0.547589 0)
(1.93909 0.902331 0)
(2.02505 1.41616 0)
(0.0241418 -0.394098 0)
(0.0722981 -0.396667 0)
(0.1213 -0.400837 0)
(0.170876 -0.41043 0)
(0.222492 -0.417675 0)
(0.275453 -0.432207 0)
(0.331268 -0.447063 0)
(0.390242 -0.465031 0)
(0.454398 -0.484988 0)
(0.523845 -0.509198 0)
(0.601922 -0.533976 0)
(0.690738 -0.559037 0)
(0.793754 -0.586013 0)
(0.917192 -0.606081 0)
(1.06078 -0.610325 0)
(1.22194 -0.585749 0)
(1.39742 -0.521969 0)
(1.56551 -0.404064 0)
(1.73009 -0.232534 0)
(1.80483 0.0336881 0)
(1.88421 0.46499 0)
(1.93839 0.858479 0)
(1.96522 1.39999 0)
(0.0229983 -0.441219 0)
(0.0677519 -0.44411 0)
(0.114431 -0.448977 0)
(0.160759 -0.459789 0)
(0.20981 -0.468715 0)
(0.259629 -0.485408 0)
(0.31273 -0.503274 0)
(0.368132 -0.525636 0)
(0.429046 -0.550971 0)
(0.494843 -0.582144 0)
(0.568876 -0.617496 0)
(0.657537 -0.656043 0)
(0.763719 -0.701895 0)
(0.8915 -0.745893 0)
(1.04248 -0.764426 0)
(1.20228 -0.762284 0)
(1.36283 -0.697342 0)
(1.4513 -0.552008 0)
(1.51542 -0.267078 0)
(1.66559 0.0746572 0)
(1.864 0.422658 0)
(1.93089 0.822524 0)
(1.95356 1.39702 0)
(0.0217799 -0.485362 0)
(0.0629268 -0.488632 0)
(0.10708 -0.494357 0)
(0.149702 -0.506368 0)
(0.195567 -0.517051 0)
(0.241412 -0.535707 0)
(0.290384 -0.556031 0)
(0.341158 -0.581936 0)
(0.396444 -0.612211 0)
(0.457286 -0.64977 0)
(0.523017 -0.697402 0)
(0.604281 -0.754995 0)
(0.707212 -0.820762 0)
(0.831659 -0.886289 0)
(0.966942 -0.923857 0)
(1.08547 -0.908207 0)
(1.16724 -0.780785 0)
(1.34431 -0.570584 0)
(1.56087 -0.416091 0)
(1.78971 -0.288004 0)
(1.98239 0.197234 0)
(2.1091 0.780822 0)
(1.99343 1.40345 0)
(0.0203875 -0.526308 0)
(0.057314 -0.529807 0)
(0.0986066 -0.536126 0)
(0.136804 -0.548688 0)
(0.179356 -0.56083 0)
(0.220827 -0.580727 0)
(0.26566 -0.603565 0)
(0.311174 -0.632371 0)
(0.359916 -0.667842 0)
(0.413105 -0.709439 0)
(0.469581 -0.765191 0)
(0.539065 -0.840961 0)
(0.631778 -0.93131 0)
(0.738376 -1.00837 0)
(0.826488 -1.01856 0)
(0.936975 -0.980497 0)
(1.25956 -0.937479 0)
(1.38963 -0.914034 0)
(1.50909 -0.733485 0)
(1.41807 -0.387393 0)
(1.59806 0.0910482 0)
(1.90092 0.785978 0)
(2.00093 1.5724 0)
(0.0192454 -0.563524 0)
(0.0520947 -0.567344 0)
(0.091011 -0.574328 0)
(0.124616 -0.587669 0)
(0.164219 -0.601576 0)
(0.200044 -0.622585 0)
(0.24085 -0.646719 0)
(0.279211 -0.676659 0)
(0.324297 -0.71427 0)
(0.370208 -0.760049 0)
(0.425087 -0.823842 0)
(0.475673 -0.91931 0)
(0.549801 -1.02094 0)
(0.634559 -1.08018 0)
(0.819664 -1.14702 0)
(1.04733 -1.27489 0)
(1.12011 -1.23359 0)
(0.925795 -0.8582 0)
(0.761824 -0.426084 0)
(0.77368 -0.368026 0)
(0.995225 -0.262247 0)
(1.38742 0.379093 0)
(1.74173 1.40475 0)
(0.0179775 -0.597954 0)
(0.0468342 -0.601879 0)
(0.0828797 -0.608901 0)
(0.112238 -0.622141 0)
(0.148604 -0.63645 0)
(0.180459 -0.657603 0)
(0.218934 -0.683143 0)
(0.254498 -0.716369 0)
(0.296491 -0.75984 0)
(0.335339 -0.811158 0)
(0.382354 -0.871523 0)
(0.424407 -0.965809 0)
(0.5634 -1.07305 0)
(0.726203 -1.30776 0)
(0.90517 -1.38459 0)
(0.936529 -1.31414 0)
(0.692635 -0.830777 0)
(0.317234 -0.553306 0)
(0.416207 -0.583844 0)
(0.584773 -0.627648 0)
(0.822021 -0.543087 0)
(1.1255 0.0394992 0)
(1.34073 1.21211 0)
(0.0169203 -0.62873 0)
(0.0432795 -0.632665 0)
(0.0770553 -0.64021 0)
(0.105057 -0.653931 0)
(0.138446 -0.670493 0)
(0.167848 -0.693653 0)
(0.20065 -0.72136 0)
(0.233063 -0.75481 0)
(0.26995 -0.795181 0)
(0.313715 -0.845821 0)
(0.400227 -0.912355 0)
(0.542995 -1.12526 0)
(0.653649 -1.2898 0)
(0.52858 -1.44577 0)
(0.650185 -1.36455 0)
(0.437053 -1.06749 0)
(0.129985 -0.600537 0)
(0.115836 -0.580985 0)
(0.231737 -0.690204 0)
(0.320755 -0.773332 0)
(0.531437 -0.801387 0)
(0.73761 -0.136189 0)
(0.925554 1.10121 0)
(0.016275 -0.658582 0)
(0.0408775 -0.662432 0)
(0.0723993 -0.671034 0)
(0.0983479 -0.683866 0)
(0.127643 -0.699354 0)
(0.156458 -0.719789 0)
(0.191683 -0.748337 0)
(0.240607 -0.786 0)
(0.418267 -0.845495 0)
(0.561092 -0.946484 0)
(0.769861 -1.10776 0)
(0.750386 -1.20926 0)
(0.743571 -1.08225 0)
(0.32927 -1.30494 0)
(0.452156 -1.27909 0)
(0.0565075 -0.796982 0)
(-0.0374875 -0.505141 0)
(-0.0834676 -0.663062 0)
(-0.00103105 -0.791999 0)
(-0.00907261 -0.932487 0)
(0.150126 -0.974187 0)
(0.149009 -0.363604 0)
(0.646948 0.77688 0)
(0.016479 -0.686028 0)
(0.0416948 -0.688917 0)
(0.0777234 -0.698107 0)
(0.131962 -0.711299 0)
(0.201787 -0.730932 0)
(0.282871 -0.7595 0)
(0.396676 -0.807733 0)
(0.507269 -0.983597 0)
(0.665403 -1.09442 0)
(0.800965 -1.19449 0)
(0.92519 -1.12137 0)
(0.824616 -1.0631 0)
(0.677749 -0.869733 0)
(0.267659 -1.15099 0)
(0.369442 -1.08411 0)
(-0.156453 -0.574634 0)
(-0.0955288 -0.458416 0)
(-0.275541 -0.612329 0)
(-0.254768 -0.762487 0)
(-0.39831 -0.917741 0)
(-0.381564 -0.956855 0)
(-0.511251 -0.615003 0)
(0.0490153 0.373139 0)
(0.0325051 -0.717009 0)
(0.0566509 -0.723802 0)
(0.124928 -0.761432 0)
(0.163239 -0.799347 0)
(0.254092 -0.854647 0)
(0.316331 -0.910697 0)
(0.454531 -0.975324 0)
(0.535742 -1.0663 0)
(0.663207 -1.15536 0)
(0.74043 -1.20116 0)
(0.855019 -1.14233 0)
(0.827754 -0.946391 0)
(0.666906 -0.543709 0)
(0.262244 -0.991893 0)
(0.270617 -0.852775 0)
(-0.31824 -0.329697 0)
(-0.211406 -0.390404 0)
(-0.440603 -0.50535 0)
(-0.466932 -0.67414 0)
(-0.680286 -0.80806 0)
(-0.790178 -0.877673 0)
(-0.980778 -0.806219 0)
(-0.740129 -0.33455 0)
(0.0305986 -0.775923 0)
(0.0513968 -0.783236 0)
(0.119284 -0.810899 0)
(0.133797 -0.840656 0)
(0.202826 -0.888201 0)
(0.210036 -0.954467 0)
(0.306214 -1.03601 0)
(0.333837 -1.17129 0)
(0.49463 -1.30435 0)
(0.574787 -1.37688 0)
(0.754702 -1.22247 0)
(0.737082 -0.856192 0)
(0.616963 -0.318702 0)
(0.403691 -0.748916 0)
(0.0179982 -0.490068 0)
(-0.363997 -0.0967617 0)
(-0.345142 -0.327628 0)
(-0.546146 -0.354761 0)
(-0.619916 -0.51624 0)
(-0.86806 -0.582711 0)
(-1.05962 -0.656966 0)
(-1.37455 -0.629129 0)
(-1.54871 -0.447557 0)
(0.0175419 -0.798554 0)
(0.0174945 -0.81181 0)
(0.0594019 -0.83987 0)
(0.0535233 -0.881359 0)
(0.108908 -0.933844 0)
(0.0982634 -1.01302 0)
(0.182134 -1.10378 0)
(0.172265 -1.25987 0)
(0.323874 -1.40387 0)
(0.303785 -1.45928 0)
(0.475411 -1.31248 0)
(0.328099 -0.799034 0)
(0.392797 -0.21111 0)
(0.260659 -0.388813 0)
(-0.321194 -0.0851121 0)
(-0.39157 0.0336936 0)
(-0.48801 -0.208716 0)
(-0.610322 -0.233449 0)
(-0.702231 -0.353921 0)
(-0.894144 -0.37085 0)
(-1.06584 -0.378386 0)
(-1.34727 -0.315922 0)
(-1.59358 -0.125979 0)
(0.0129364 -0.811869 0)
(-0.000876524 -0.826037 0)
(0.0254355 -0.849264 0)
(0.00313167 -0.889799 0)
(0.0312398 -0.935572 0)
(-0.0053464 -1.02334 0)
(0.0302422 -1.11456 0)
(-0.01738 -1.3039 0)
(0.025136 -1.44037 0)
(-0.0712119 -1.52328 0)
(-0.0451716 -1.25146 0)
(-0.305562 -0.767977 0)
(-0.123778 -0.255951 0)
(-0.374718 -0.0326611 0)
(-0.58222 0.169131 0)
(-0.555345 0.0700747 0)
(-0.600598 -0.103803 0)
(-0.687837 -0.138826 0)
(-0.747417 -0.226257 0)
(-0.900937 -0.212899 0)
(-1.02298 -0.199905 0)
(-1.21471 -0.0950591 0)
(-1.39003 0.0486348 0)
(0.00493717 -0.810242 0)
(-0.0205929 -0.82315 0)
(-0.00934495 -0.844057 0)
(-0.0447959 -0.884885 0)
(-0.0383348 -0.92717 0)
(-0.0923655 -1.00969 0)
(-0.102007 -1.09459 0)
(-0.194775 -1.25338 0)
(-0.26854 -1.35543 0)
(-0.435855 -1.38358 0)
(-0.587762 -1.08639 0)
(-0.801487 -0.701731 0)
(-0.809565 -0.147526 0)
(-0.840505 0.0732498 0)
(-0.799096 0.0994802 0)
(-0.691231 0.0488103 0)
(-0.704486 -0.074071 0)
(-0.722592 -0.0904106 0)
(-0.772624 -0.140388 0)
(-0.859197 -0.0985243 0)
(-0.949605 -0.0660513 0)
(-1.06149 0.0499697 0)
(-1.15635 0.183938 0)
(0.00221268 -0.796647 0)
(-0.0320181 -0.811703 0)
(-0.0345296 -0.826048 0)
(-0.0813346 -0.859946 0)
(-0.0957513 -0.889763 0)
(-0.165044 -0.956827 0)
(-0.211178 -1.01449 0)
(-0.337466 -1.13156 0)
(-0.474259 -1.2015 0)
(-0.691892 -1.19723 0)
(-0.870418 -0.886701 0)
(-1.02443 -0.543134 0)
(-1.05816 -0.216875 0)
(-0.920827 -0.0430864 0)
(-0.857722 0.019711 0)
(-0.749879 -0.0251513 0)
(-0.736135 -0.0700615 0)
(-0.73716 -0.0696271 0)
(-0.77191 -0.0856054 0)
(-0.822749 -0.0336477 0)
(-0.880574 0.0071546 0)
(-0.945916 0.113642 0)
(-0.986323 0.22314 0)
(-0.0033559 -0.780013 0)
(-0.044637 -0.78539 0)
(-0.0596503 -0.794827 0)
(-0.110862 -0.821798 0)
(-0.139381 -0.844052 0)
(-0.212685 -0.891842 0)
(-0.275295 -0.923173 0)
(-0.401687 -0.987362 0)
(-0.548565 -1.00316 0)
(-0.770421 -0.983321 0)
(-0.940271 -0.757986 0)
(-1.01539 -0.508602 0)
(-1.00201 -0.25736 0)
(-0.920371 -0.127983 0)
(-0.83903 -0.0728645 0)
(-0.752276 -0.0750577 0)
(-0.730883 -0.0860038 0)
(-0.722671 -0.0572609 0)
(-0.742958 -0.0540693 0)
(-0.767604 0.00723626 0)
(-0.800576 0.0575594 0)
(-0.835292 0.153331 0)
(-0.847889 0.246173 0)
(-0.0109798 -0.748714 0)
(-0.0554418 -0.755022 0)
(-0.0771147 -0.760267 0)
(-0.128984 -0.779229 0)
(-0.163744 -0.788709 0)
(-0.23714 -0.81879 0)
(-0.30154 -0.825959 0)
(-0.416159 -0.854368 0)
(-0.535417 -0.832769 0)
(-0.708329 -0.800079 0)
(-0.839058 -0.641895 0)
(-0.89932 -0.478315 0)
(-0.895565 -0.31201 0)
(-0.830782 -0.205953 0)
(-0.777996 -0.148295 0)
(-0.714293 -0.13418 0)
(-0.700947 -0.0982757 0)
(-0.700337 -0.0576895 0)
(-0.704825 -0.0382172 0)
(-0.723211 0.0244156 0)
(-0.734064 0.0777977 0)
(-0.7508 0.161037 0)
(-0.743871 0.237644 0)
(-0.011715 -0.713077 0)
(-0.0570784 -0.718414 0)
(-0.0841544 -0.72109 0)
(-0.136315 -0.73383 0)
(-0.174439 -0.735972 0)
(-0.241024 -0.752313 0)
(-0.300135 -0.744518 0)
(-0.39066 -0.751304 0)
(-0.47929 -0.711454 0)
(-0.594417 -0.677396 0)
(-0.68829 -0.567294 0)
(-0.742234 -0.451818 0)
(-0.752208 -0.327804 0)
(-0.720466 -0.246387 0)
(-0.689916 -0.190541 0)
(-0.658084 -0.153441 0)
(-0.663804 -0.0993492 0)
(-0.653842 -0.0549832 0)
(-0.658491 -0.0303381 0)
(-0.664054 0.0345333 0)
(-0.665867 0.085956 0)
(-0.668198 0.161263 0)
(-0.653885 0.225635 0)
(-0.0125275 -0.679762 0)
(-0.0573186 -0.682114 0)
(-0.0865116 -0.68109 0)
(-0.137042 -0.688037 0)
(-0.175476 -0.684156 0)
(-0.237117 -0.69148 0)
(-0.290543 -0.676325 0)
(-0.366428 -0.672832 0)
(-0.436333 -0.628801 0)
(-0.518747 -0.588535 0)
(-0.590038 -0.494088 0)
(-0.629714 -0.412788 0)
(-0.646528 -0.333535 0)
(-0.629685 -0.26781 0)
(-0.623501 -0.210583 0)
(-0.607905 -0.159997 0)
(-0.620854 -0.102166 0)
(-0.603382 -0.062968 0)
(-0.612623 -0.0269815 0)
(-0.60907 0.0317399 0)
(-0.608154 0.0833355 0)
(-0.601911 0.148621 0)
(-0.584652 0.204658 0)
(-0.0147142 -0.642711 0)
(-0.0596596 -0.64372 0)
(-0.0908542 -0.641059 0)
(-0.139226 -0.643874 0)
(-0.176852 -0.635807 0)
(-0.232768 -0.63599 0)
(-0.280794 -0.615299 0)
(-0.345404 -0.60402 0)
(-0.403078 -0.559187 0)
(-0.464395 -0.522371 0)
(-0.511647 -0.456032 0)
(-0.539119 -0.394996 0)
(-0.558913 -0.328229 0)
(-0.559542 -0.269784 0)
(-0.564141 -0.212598 0)
(-0.559772 -0.156503 0)
(-0.56775 -0.103652 0)
(-0.55396 -0.063915 0)
(-0.564392 -0.0241304 0)
(-0.553908 0.0290981 0)
(-0.553301 0.0793641 0)
(-0.539602 0.136591 0)
(-0.523362 0.187151 0)
(-0.0150146 -0.605125 0)
(-0.0579105 -0.605492 0)
(-0.0892969 -0.60142 0)
(-0.134778 -0.601252 0)
(-0.17091 -0.590593 0)
(-0.22087 -0.586375 0)
(-0.263433 -0.563677 0)
(-0.316288 -0.54913 0)
(-0.362574 -0.509731 0)
(-0.407628 -0.478655 0)
(-0.447978 -0.419187 0)
(-0.474746 -0.364884 0)
(-0.49686 -0.312742 0)
(-0.504615 -0.262268 0)
(-0.514926 -0.209917 0)
(-0.514118 -0.156403 0)
(-0.518513 -0.107519 0)
(-0.510494 -0.0664366 0)
(-0.517702 -0.0264774 0)
(-0.505998 0.0204408 0)
(-0.505705 0.0696715 0)
(-0.488431 0.11825 0)
(-0.474274 0.16584 0)
(-0.0144525 -0.569303 0)
(-0.0545294 -0.568811 0)
(-0.0847599 -0.563858 0)
(-0.126682 -0.561453 0)
(-0.160307 -0.549537 0)
(-0.204748 -0.542495 0)
(-0.242311 -0.519808 0)
(-0.286962 -0.503883 0)
(-0.325949 -0.467723 0)
(-0.365139 -0.436345 0)
(-0.39977 -0.38874 0)
(-0.421827 -0.345848 0)
(-0.441485 -0.298238 0)
(-0.453713 -0.251845 0)
(-0.464555 -0.202974 0)
(-0.46786 -0.153235 0)
(-0.470409 -0.107008 0)
(-0.467056 -0.0651484 0)
(-0.468863 -0.0282639 0)
(-0.459906 0.0165524 0)
(-0.458762 0.0621407 0)
(-0.441038 0.104448 0)
(-0.428589 0.149749 0)
(-0.0139016 -0.53587 0)
(-0.0510934 -0.534753 0)
(-0.0797743 -0.529105 0)
(-0.118087 -0.525078 0)
(-0.149071 -0.512447 0)
(-0.188637 -0.503545 0)
(-0.22219 -0.481416 0)
(-0.260794 -0.464586 0)
(-0.294901 -0.431479 0)
(-0.327602 -0.404024 0)
(-0.35601 -0.362231 0)
(-0.378041 -0.322793 0)
(-0.396971 -0.28052 0)
(-0.410152 -0.238984 0)
(-0.420942 -0.195386 0)
(-0.425808 -0.150563 0)
(-0.428243 -0.107924 0)
(-0.426215 -0.0681322 0)
(-0.425256 -0.0332108 0)
(-0.419736 0.0100961 0)
(-0.416492 0.0512072 0)
(-0.400986 0.0877245 0)
(-0.38946 0.131191 0)
(-0.0134819 -0.503875 0)
(-0.0481701 -0.502381 0)
(-0.0755927 -0.496538 0)
(-0.110613 -0.491498 0)
(-0.139199 -0.47878 0)
(-0.174293 -0.468643 0)
(-0.203998 -0.447512 0)
(-0.237246 -0.430476 0)
(-0.266159 -0.400736 0)
(-0.294069 -0.374779 0)
(-0.318936 -0.338139 0)
(-0.338546 -0.304636 0)
(-0.355184 -0.265939 0)
(-0.368293 -0.227846 0)
(-0.378107 -0.187152 0)
(-0.384086 -0.146098 0)
(-0.386266 -0.106405 0)
(-0.385605 -0.0684391 0)
(-0.384011 -0.0344531 0)
(-0.380895 0.00735011 0)
(-0.375093 0.0436847 0)
(-0.362987 0.0768612 0)
(-0.352172 0.117557 0)
(-0.0123971 -0.473962 0)
(-0.0437928 -0.472266 0)
(-0.0689059 -0.466481 0)
(-0.100407 -0.460972 0)
(-0.126298 -0.448646 0)
(-0.157439 -0.438138 0)
(-0.183762 -0.418365 0)
(-0.212872 -0.401811 0)
(-0.23817 -0.374534 0)
(-0.263193 -0.350751 0)
(-0.284873 -0.317515 0)
(-0.303666 -0.286262 0)
(-0.319211 -0.250509 0)
(-0.331731 -0.215895 0)
(-0.340912 -0.179304 0)
(-0.347169 -0.142373 0)
(-0.349614 -0.106106 0)
(-0.349774 -0.0704817 0)
(-0.348307 -0.0375705 0)
(-0.345871 0.000954965 0)
(-0.338601 0.0336507 0)
(-0.329241 0.064505 0)
(-0.319424 0.102153 0)
(-0.0114973 -0.447331 0)
(-0.0400673 -0.44543 0)
(-0.0632372 -0.43965 0)
(-0.0917226 -0.433605 0)
(-0.115304 -0.421557 0)
(-0.143146 -0.410646 0)
(-0.166617 -0.391936 0)
(-0.192461 -0.375575 0)
(-0.214628 -0.350254 0)
(-0.236568 -0.327702 0)
(-0.255147 -0.297513 0)
(-0.271675 -0.270065 0)
(-0.285082 -0.237711 0)
(-0.296699 -0.206063 0)
(-0.304922 -0.171574 0)
(-0.311173 -0.137465 0)
(-0.313665 -0.103671 0)
(-0.314789 -0.0699397 0)
(-0.313266 -0.0381752 0)
(-0.311495 -0.00268915 0)
(-0.304038 0.0272514 0)
(-0.297158 0.0572536 0)
(-0.287807 0.0914964 0)
(-0.0105286 -0.422132 0)
(-0.0362647 -0.42018 0)
(-0.0573337 -0.414617 0)
(-0.0827433 -0.408491 0)
(-0.103781 -0.397064 0)
(-0.128284 -0.386363 0)
(-0.148821 -0.368913 0)
(-0.171436 -0.353355 0)
(-0.190543 -0.330281 0)
(-0.210031 -0.309883 0)
(-0.226516 -0.282208 0)
(-0.241992 -0.256096 0)
(-0.254544 -0.225274 0)
(-0.265378 -0.195908 0)
(-0.273001 -0.164609 0)
(-0.27904 -0.133566 0)
(-0.281723 -0.102261 0)
(-0.283374 -0.0709027 0)
(-0.281986 -0.040605 0)
(-0.280485 -0.00841255 0)
(-0.273728 0.0195938 0)
(-0.268541 0.048066 0)
(-0.259324 0.0793181 0)
(-0.0094243 -0.400284 0)
(-0.0323196 -0.398309 0)
(-0.0511697 -0.392967 0)
(-0.0737824 -0.386798 0)
(-0.0925569 -0.375861 0)
(-0.114394 -0.365226 0)
(-0.132663 -0.348655 0)
(-0.152874 -0.3335 0)
(-0.169855 -0.311521 0)
(-0.187314 -0.291442 0)
(-0.201698 -0.265426 0)
(-0.215238 -0.241846 0)
(-0.225898 -0.214203 0)
(-0.235577 -0.187517 0)
(-0.242397 -0.157813 0)
(-0.24822 -0.128764 0)
(-0.250825 -0.099258 0)
(-0.252888 -0.0697957 0)
(-0.251578 -0.0409738 0)
(-0.250494 -0.0111838 0)
(-0.244614 0.0154197 0)
(-0.24079 0.0425202 0)
(-0.232022 0.0710396 0)
(-0.00844056 -0.380124 0)
(-0.0287496 -0.378119 0)
(-0.0455691 -0.372933 0)
(-0.0655514 -0.366755 0)
(-0.0821111 -0.356273 0)
(-0.101253 -0.345895 0)
(-0.11711 -0.330276 0)
(-0.134693 -0.315826 0)
(-0.149256 -0.295694 0)
(-0.164424 -0.277771 0)
(-0.176984 -0.254107 0)
(-0.189276 -0.231695 0)
(-0.1992 -0.204752 0)
(-0.208249 -0.179272 0)
(-0.214626 -0.151783 0)
(-0.220069 -0.125054 0)
(-0.222638 -0.0974065 0)
(-0.224898 -0.0701256 0)
(-0.223907 -0.0428026 0)
(-0.223188 -0.0154342 0)
(-0.218162 0.0101077 0)
(-0.215204 0.0353501 0)
(-0.207087 0.0618406 0)
(-0.00735452 -0.362929 0)
(-0.0250402 -0.360972 0)
(-0.0396828 -0.35603 0)
(-0.0571003 -0.350017 0)
(-0.0715047 -0.340052 0)
(-0.0882671 -0.329971 0)
(-0.102134 -0.315117 0)
(-0.117656 -0.30111 0)
(-0.130483 -0.281683 0)
(-0.144081 -0.26351 0)
(-0.155235 -0.240482 0)
(-0.166118 -0.219497 0)
(-0.174611 -0.19515 0)
(-0.182496 -0.172023 0)
(-0.188087 -0.145927 0)
(-0.193195 -0.120762 0)
(-0.19566 -0.0943855 0)
(-0.19804 -0.0686102 0)
(-0.197285 -0.0426468 0)
(-0.196992 -0.017097 0)
(-0.192784 0.00748447 0)
(-0.190511 0.0312022 0)
(-0.183384 0.0560309 0)
(-0.00635841 -0.347477 0)
(-0.0216031 -0.345506 0)
(-0.034285 -0.340651 0)
(-0.049339 -0.334634 0)
(-0.0618219 -0.324916 0)
(-0.0763058 -0.31497 0)
(-0.0882318 -0.300721 0)
(-0.101549 -0.28721 0)
(-0.112516 -0.269122 0)
(-0.124091 -0.252797 0)
(-0.133584 -0.231905 0)
(-0.143085 -0.212135 0)
(-0.150757 -0.188202 0)
(-0.158083 -0.165665 0)
(-0.16335 -0.14092 0)
(-0.168109 -0.117389 0)
(-0.170538 -0.0923972 0)
(-0.172911 -0.06845 0)
(-0.172448 -0.0436878 0)
(-0.172567 -0.0199396 0)
(-0.16908 0.00380112 0)
(-0.16739 0.0258976 0)
(-0.161221 0.0495243 0)
(-0.00527466 -0.334885 0)
(-0.0180353 -0.332935 0)
(-0.0286196 -0.32823 0)
(-0.0413181 -0.322348 0)
(-0.0518431 -0.313031 0)
(-0.0641627 -0.303414 0)
(-0.0743346 -0.28982 0)
(-0.0858335 -0.276678 0)
(-0.095289 -0.259073 0)
(-0.105456 -0.242317 0)
(-0.113866 -0.221434 0)
(-0.122306 -0.202252 0)
(-0.128988 -0.18011 0)
(-0.135313 -0.159397 0)
(-0.13989 -0.135865 0)
(-0.144238 -0.113594 0)
(-0.14654 -0.0895628 0)
(-0.148908 -0.0667753 0)
(-0.148765 -0.0429803 0)
(-0.149187 -0.0205962 0)
(-0.146446 0.00231717 0)
(-0.145259 0.0231601 0)
(-0.140169 0.0457046 0)
(-0.0042742 -0.32393 0)
(-0.0146574 -0.321903 0)
(-0.0233063 -0.31715 0)
(-0.0337347 -0.311148 0)
(-0.0424444 -0.301878 0)
(-0.0526548 -0.292225 0)
(-0.0611922 -0.27888 0)
(-0.0707982 -0.266031 0)
(-0.0788304 -0.249351 0)
(-0.0873386 -0.234028 0)
(-0.0943788 -0.214895 0)
(-0.101489 -0.196838 0)
(-0.107295 -0.175029 0)
(-0.113014 -0.154632 0)
(-0.117307 -0.131839 0)
(-0.121359 -0.110642 0)
(-0.123683 -0.0875739 0)
(-0.126041 -0.0661618 0)
(-0.12621 -0.0432595 0)
(-0.126932 -0.0222346 0)
(-0.124861 2.12914e-05 0)
(-0.124146 0.0196157 0)
(-0.120003 0.0413865 0)
(-0.00317472 -0.315956 0)
(-0.0111119 -0.313886 0)
(-0.0176161 -0.309159 0)
(-0.0256775 -0.303173 0)
(-0.0323445 -0.294115 0)
(-0.0403923 -0.28461 0)
(-0.0471575 -0.271668 0)
(-0.0550285 -0.258974 0)
(-0.0617373 -0.242509 0)
(-0.0690995 -0.226715 0)
(-0.0754273 -0.20727 0)
(-0.0818889 -0.189321 0)
(-0.0871874 -0.16858 0)
(-0.0922168 -0.149392 0)
(-0.0960309 -0.127511 0)
(-0.0997033 -0.107255 0)
(-0.101935 -0.0848765 0)
(-0.104243 -0.0643205 0)
(-0.104708 -0.0420924 0)
(-0.105639 -0.0220534 0)
(-0.104232 -0.000476358 0)
(-0.103937 0.0181621 0)
(-0.100807 0.0391704 0)
(-0.00224388 -0.309423 0)
(-0.00792775 -0.307231 0)
(-0.0124626 -0.302381 0)
(-0.0181568 -0.296193 0)
(-0.0228229 -0.286981 0)
(-0.0286114 -0.277199 0)
(-0.0336029 -0.264082 0)
(-0.0395663 -0.251259 0)
(-0.0449063 -0.235134 0)
(-0.0508618 -0.220164 0)
(-0.0561513 -0.201949 0)
(-0.0615523 -0.184914 0)
(-0.0662891 -0.16454 0)
(-0.0709376 -0.145661 0)
(-0.0746754 -0.124206 0)
(-0.0782176 -0.104642 0)
(-0.0805941 -0.0828966 0)
(-0.0829602 -0.0633213 0)
(-0.0838167 -0.0417321 0)
(-0.0850376 -0.0226718 0)
(-0.0842923 -0.00155659 0)
(-0.0844118 0.0162108 0)
(-0.0821313 0.0366953 0)
(-0.00133318 -0.305863 0)
(-0.00495205 -0.303731 0)
(-0.00762343 -0.299001 0)
(-0.0112406 -0.292854 0)
(-0.0140606 -0.283715 0)
(-0.0178179 -0.273849 0)
(-0.0209799 -0.260746 0)
(-0.0249615 -0.247669 0)
(-0.0285803 -0.231224 0)
(-0.0328778 -0.215468 0)
(-0.0370851 -0.196594 0)
(-0.0417452 -0.179204 0)
(-0.0461409 -0.159209 0)
(-0.0505174 -0.141032 0)
(-0.0542822 -0.120233 0)
(-0.0578286 -0.101374 0)
(-0.0603999 -0.0801326 0)
(-0.062806 -0.0611552 0)
(-0.0639358 -0.0400147 0)