/*--------------------------------*- C++ -*----------------------------------*\
| =========                 |                                                 |
| \\      /  F ield         | OpenFOAM: The Open Source CFD Toolbox           |
|  \\    /   O peration     | Version:  2012                                  |
|   \\  /    A nd           | Website:  www.openfoam.com                      |
|    \\/     M anipulation  |                                                 |
\*---------------------------------------------------------------------------*/
FoamFile
{
    version     2.0;
    format      ascii;
    class       volVectorField;
    location    "0.19";
    object      Uc;
}
// * * * * * * * * * * * * * * * * * * * * * * * * * * * * * * * * * * * * * //

dimensions      [0 1 -1 0 0 0 0];


internalField   nonuniform List<vector> 
2268
(
(0.0283298 -0.0133884 0)
(0.0850334 -0.0134092 0)
(0.142195 -0.0136049 0)
(0.200205 -0.0138102 0)
(0.258885 -0.0139216 0)
(0.31877 -0.0143795 0)
(0.380107 -0.0146076 0)
(0.442359 -0.0148121 0)
(0.505672 -0.0151094 0)
(0.569915 -0.015251 0)
(0.634309 -0.0151812 0)
(0.697547 -0.0147044 0)
(0.756673 -0.0132385 0)
(0.811136 -0.0125002 0)
(0.860168 -0.0106718 0)
(0.895267 -0.00591581 0)
(0.906601 0.000559502 0)
(0.888346 0.0080679 0)
(0.835054 0.0171175 0)
(0.73924 0.0281637 0)
(0.592999 0.0409487 0)
(0.393961 0.0531151 0)
(0.140785 0.0665484 0)
(0.0282916 -0.0401472 0)
(0.0849547 -0.0402266 0)
(0.142072 -0.0407948 0)
(0.200015 -0.0414185 0)
(0.258653 -0.0417569 0)
(0.318506 -0.0431318 0)
(0.379842 -0.0438293 0)
(0.442151 -0.0444565 0)
(0.505527 -0.0453375 0)
(0.569876 -0.0457942 0)
(0.63464 -0.045677 0)
(0.698188 -0.0441266 0)
(0.757785 -0.0399242 0)
(0.813129 -0.0377086 0)
(0.862346 -0.0318948 0)
(0.898257 -0.0182516 0)
(0.91233 0.000888193 0)
(0.896302 0.0239412 0)
(0.843984 0.051155 0)
(0.749101 0.0842484 0)
(0.603546 0.122764 0)
(0.404558 0.159404 0)
(0.146022 0.20212 0)
(0.0282227 -0.0668554 0)
(0.0848 -0.0670349 0)
(0.141818 -0.067926 0)
(0.199634 -0.0689938 0)
(0.2582 -0.0695711 0)
(0.318002 -0.071866 0)
(0.379348 -0.0730733 0)
(0.441786 -0.0741668 0)
(0.505341 -0.0756137 0)
(0.569995 -0.076484 0)
(0.635416 -0.0765117 0)
(0.699776 -0.07374 0)
(0.761093 -0.0674535 0)
(0.818593 -0.0635087 0)
(0.868846 -0.0531032 0)
(0.907321 -0.0321972 0)
(0.927239 -0.00123022 0)
(0.91841 0.0378065 0)
(0.874243 0.0828884 0)
(0.788526 0.137865 0)
(0.649719 0.203534 0)
(0.447037 0.26846 0)
(0.164395 0.348841 0)
(0.0281261 -0.0934854 0)
(0.0845467 -0.0938068 0)
(0.141385 -0.0949616 0)
(0.199015 -0.0965172 0)
(0.257469 -0.0973506 0)
(0.317176 -0.100566 0)
(0.378496 -0.102344 0)
(0.441064 -0.103972 0)
(0.504859 -0.105992 0)
(0.569906 -0.107401 0)
(0.635911 -0.107706 0)
(0.701242 -0.103837 0)
(0.764627 -0.0962893 0)
(0.824666 -0.0902213 0)
(0.876589 -0.0746784 0)
(0.916681 -0.0477518 0)
(0.940043 -0.00612905 0)
(0.936101 0.0487403 0)
(0.895331 0.112096 0)
(0.809089 0.189924 0)
(0.66572 0.28483 0)
(0.453724 0.383139 0)
(0.164657 0.504354 0)
(0.0280015 -0.120011 0)
(0.0841819 -0.120496 0)
(0.140763 -0.121874 0)
(0.198171 -0.123971 0)
(0.256492 -0.125084 0)
(0.316091 -0.129215 0)
(0.377388 -0.131643 0)
(0.44014 -0.133898 0)
(0.504316 -0.136545 0)
(0.570003 -0.138632 0)
(0.636905 -0.139285 0)
(0.703818 -0.134755 0)
(0.770158 -0.126678 0)
(0.833888 -0.118325 0)
(0.890166 -0.09771 0)
(0.936091 -0.065371 0)
(0.967205 -0.0142547 0)
(0.975159 0.0549697 0)
(0.950767 0.136662 0)
(0.882668 0.238299 0)
(0.754539 0.364763 0)
(0.541928 0.503872 0)
(0.205434 0.679258 0)
(0.0278344 -0.146398 0)
(0.0836865 -0.147054 0)
(0.139929 -0.148635 0)
(0.197037 -0.151329 0)
(0.255156 -0.152755 0)
(0.314579 -0.157792 0)
(0.375776 -0.160956 0)
(0.438649 -0.163954 0)
(0.503176 -0.167313 0)
(0.569477 -0.17024 0)
(0.637287 -0.171341 0)
(0.70581 -0.166705 0)
(0.774749 -0.15866 0)
(0.841628 -0.148068 0)
(0.902504 -0.123333 0)
(0.954398 -0.085976 0)
(0.991281 -0.0257843 0)
(1.00691 0.0553549 0)
(0.992898 0.154425 0)
(0.93088 0.282027 0)
(0.801263 0.442843 0)
(0.575005 0.633198 0)
(0.216206 0.878547 0)
(0.0276283 -0.17261 0)
(0.083076 -0.173442 0)
(0.138923 -0.175219 0)
(0.195688 -0.17856 0)
(0.253571 -0.180346 0)
(0.312806 -0.186278 0)
(0.373906 -0.190267 0)
(0.436942 -0.194146 0)
(0.501959 -0.198343 0)
(0.56914 -0.202293 0)
(0.638405 -0.204068 0)
(0.709352 -0.199891 0)
(0.781688 -0.192239 0)
(0.853258 -0.179919 0)
(0.921328 -0.152421 0)
(0.982505 -0.110324 0)
(1.03104 -0.0418028 0)
(1.06363 0.0485838 0)
(1.07189 0.163915 0)
(1.03491 0.319326 0)
(0.931782 0.515537 0)
(0.718901 0.768038 0)
(0.288088 1.11695 0)
(0.027382 -0.198607 0)
(0.0823436 -0.199623 0)
(0.137721 -0.201602 0)
(0.194055 -0.205627 0)
(0.251583 -0.207821 0)
(0.310501 -0.214641 0)
(0.371381 -0.219551 0)
(0.434462 -0.224464 0)
(0.499858 -0.229657 0)
(0.567788 -0.234831 0)
(0.63833 -0.237601 0)
(0.711399 -0.23442 0)
(0.786833 -0.227545 0)
(0.862648 -0.214266 0)
(0.936637 -0.18521 0)
(1.00516 -0.138832 0)
(1.06368 -0.0638874 0)
(1.11048 0.0331468 0)
(1.13572 0.163523 0)
(1.11309 0.347889 0)
(1.01695 0.581144 0)
(0.791718 0.909482 0)
(0.317576 1.40326 0)
(-0.0834007 0.0355057 0)
(-0.216274 0.0210747 0)
(-0.29128 0.0108898 0)
(-0.305011 -0.00499041 0)
(-0.277747 -0.00654934 0)
(-0.235158 -0.0115114 0)
(-0.185414 -0.00959348 0)
(-0.140423 -0.00949212 0)
(-0.100702 -0.00735285 0)
(-0.068781 -0.00617605 0)
(-0.0437367 -0.00442855 0)
(-0.0252765 -0.00337647 0)
(-0.0121432 -0.00216352 0)
(-0.00357438 -0.00143545 0)
(0.0015112 -0.000682505 0)
(0.00378553 -0.000240004 0)
(0.00409372 0.00015341 0)
(0.0029771 0.000365955 0)
(0.00108432 0.000483344 0)
(-0.0878456 0.108408 0)
(-0.221931 0.0618493 0)
(-0.288641 0.0305155 0)
(-0.295689 -0.0156601 0)
(-0.268352 -0.01899 0)
(-0.228263 -0.0341284 0)
(-0.18023 -0.0284588 0)
(-0.136549 -0.0282408 0)
(-0.0977023 -0.0219222 0)
(-0.0663841 -0.018408 0)
(-0.0418214 -0.013201 0)
(-0.0237408 -0.0100527 0)
(-0.0109248 -0.0064323 0)
(-0.00261369 -0.00425506 0)
(0.00225169 -0.00200521 0)
(0.00433546 -0.000681316 0)
(0.00447462 0.000493423 0)
(0.0032023 0.00113086 0)
(0.00115807 0.00148139 0)
(-0.104266 0.190186 0)
(-0.264688 0.105467 0)
(-0.344604 0.0493864 0)
(-0.347341 -0.0302512 0)
(-0.3019 -0.035241 0)
(-0.24614 -0.0585374 0)
(-0.189295 -0.0485531 0)
(-0.140261 -0.0474803 0)
(-0.0988501 -0.0367199 0)
(-0.0663083 -0.0306758 0)
(-0.0412089 -0.0219612 0)
(-0.0229498 -0.0166557 0)
(-0.010167 -0.0106252 0)
(-0.0019719 -0.00699179 0)
(0.00275234 -0.00325725 0)
(0.00470025 -0.00105455 0)
(0.00471576 0.000889786 0)
(0.00333755 0.00195058 0)
(0.00120002 0.00252861 0)
(-0.108335 0.280679 0)
(-0.262781 0.14903 0)
(-0.321852 0.0650627 0)
(-0.313376 -0.0482508 0)
(-0.27345 -0.0534384 0)
(-0.22647 -0.0839315 0)
(-0.174343 -0.0694039 0)
(-0.12863 -0.0668276 0)
(-0.0895842 -0.0514947 0)
(-0.0588054 -0.0427373 0)
(-0.0352381 -0.0305045 0)
(-0.0182137 -0.0230266 0)
(-0.0064162 -0.0146173 0)
(0.000976158 -0.00953871 0)
(0.00502083 -0.00435019 0)
(0.00638365 -0.00128036 0)
(0.0058805 0.00141176 0)
(0.00402435 0.00289284 0)
(0.00142498 0.00368928 0)
(-0.159331 0.394594 0)
(-0.384654 0.196779 0)
(-0.458712 0.0740633 0)
(-0.420821 -0.0768562 0)
(-0.334992 -0.0782093 0)
(-0.256764 -0.112309 0)
(-0.188865 -0.0919731 0)
(-0.134464 -0.0867401 0)
(-0.0911883 -0.0664978 0)
(-0.0583674 -0.0546895 0)
(-0.0339422 -0.0388708 0)
(-0.0166743 -0.0291534 0)
(-0.00499448 -0.0183848 0)
(0.00215224 -0.0118647 0)
(0.00592189 -0.00525826 0)
(0.00702747 -0.00133303 0)
(0.00629854 0.00207694 0)
(0.00425732 0.00397364 0)
(0.00149693 0.00497612 0)
(-0.157983 0.529629 0)
(-0.357944 0.24277 0)
(-0.400458 0.0777784 0)
(-0.363427 -0.112322 0)
(-0.293491 -0.108885 0)
(-0.226974 -0.143093 0)
(-0.165695 -0.11603 0)
(-0.115684 -0.106994 0)
(-0.0758007 -0.0815154 0)
(-0.0458418 -0.066279 0)
(-0.0239571 -0.0468844 0)
(-0.00870962 -0.0348774 0)
(0.00132419 -0.0218052 0)
(0.00712583 -0.0138615 0)
(0.00975088 -0.00589211 0)
(0.00987376 -0.00113291 0)
(0.00826875 0.00295763 0)
(0.0054168 0.00526218 0)
(0.00187684 0.00645495 0)
(-0.265859 0.709975 0)
(-0.600088 0.289774 0)
(-0.637309 0.0648131 0)
(-0.520979 -0.164472 0)
(-0.374793 -0.14855 0)
(-0.265727 -0.178005 0)
(-0.183038 -0.142249 0)
(-0.122012 -0.127905 0)
(-0.0768024 -0.0967004 0)
(-0.044411 -0.0775191 0)
(-0.0217215 -0.0545097 0)
(-0.00641061 -0.0401579 0)
(0.00332177 -0.0248413 0)
(0.00871241 -0.0154962 0)
(0.0109306 -0.00622856 0)
(0.0106946 -0.000659966 0)
(0.00879091 0.00406481 0)
(0.00570585 0.00676784 0)
(0.00196573 0.00813299 0)
(-0.250417 0.929645 0)
(-0.522197 0.328011 0)
(-0.531145 0.0463393 0)
(-0.459425 -0.225868 0)
(-0.340908 -0.199633 0)
(-0.235847 -0.217895 0)
(-0.156524 -0.171166 0)
(-0.0984021 -0.149567 0)
(-0.0566699 -0.111921 0)
(-0.0277442 -0.0882852 0)
(-0.00805099 -0.0616775 0)
(0.00471894 -0.0448427 0)
(0.0122121 -0.0273929 0)
(0.0157436 -0.0166502 0)
(0.016346 -0.00618585 0)
(0.0147293 0.000173326 0)
(0.0115665 0.00547383 0)
(0.00734039 0.00855574 0)
(0.0025066 0.0100787 0)
(0.0269492 -0.238637 0)
(0.0810546 -0.239955 0)
(0.135619 -0.24229 0)
(0.19119 -0.247423 0)
(0.248057 -0.250376 0)
(0.306437 -0.258615 0)
(0.366964 -0.265191 0)
(0.430112 -0.272114 0)
(0.496183 -0.279329 0)
(0.565566 -0.287008 0)
(0.63866 -0.292238 0)
(0.715983 -0.292041 0)
(0.797836 -0.287855 0)
(0.883205 -0.275599 0)
(0.970772 -0.246867 0)
(1.05763 -0.196867 0)
(1.14382 -0.120156 0)
(1.22806 -0.0173795 0)
(1.29624 0.133593 0)
(1.3379 0.346634 0)
(1.34756 0.618119 0)
(1.3376 0.988967 0)
(1.31037 1.57551 0)
(0.0262105 -0.292074 0)
(0.07884 -0.29381 0)
(0.131962 -0.296684 0)
(0.186112 -0.303324 0)
(0.241666 -0.307483 0)
(0.298904 -0.31773 0)
(0.358501 -0.326827 0)
(0.421185 -0.336967 0)
(0.487575 -0.347628 0)
(0.558323 -0.35957 0)
(0.634242 -0.369468 0)
(0.716434 -0.375157 0)
(0.806041 -0.377094 0)
(0.90367 -0.370314 0)
(1.00804 -0.345092 0)
(1.11889 -0.297373 0)
(1.23552 -0.223545 0)
(1.34611 -0.109835 0)
(1.43581 0.0673573 0)
(1.50383 0.302613 0)
(1.55286 0.603137 0)
(1.60173 0.964841 0)
(1.70318 1.52528 0)
(0.0252397 -0.343793 0)
(0.0759268 -0.345947 0)
(0.127148 -0.349435 0)
(0.17943 -0.357561 0)
(0.233235 -0.363175 0)
(0.28891 -0.37554 0)
(0.347129 -0.387447 0)
(0.4088 -0.401351 0)
(0.474852 -0.416377 0)
(0.546417 -0.433877 0)
(0.62493 -0.450399 0)
(0.712236 -0.464608 0)
(0.811042 -0.47704 0)
(0.923441 -0.481492 0)
(1.05043 -0.466479 0)
(1.19188 -0.429605 0)
(1.34191 -0.359365 0)
(1.49136 -0.235416 0)
(1.63996 -0.046607 0)
(1.78236 0.205059 0)
(1.88965 0.550068 0)
(1.95518 0.909427 0)
(2.00297 1.43098 0)
(0.0241078 -0.393398 0)
(0.072506 -0.395944 0)
(0.121436 -0.40011 0)
(0.171378 -0.409643 0)
(0.222814 -0.416885 0)
(0.276153 -0.431413 0)
(0.332038 -0.446274 0)
(0.391515 -0.464304 0)
(0.455696 -0.484336 0)
(0.525973 -0.508501 0)
(0.604573 -0.533709 0)
(0.694251 -0.559206 0)
(0.79882 -0.586879 0)
(0.922205 -0.608666 0)
(1.06514 -0.610635 0)
(1.22547 -0.588806 0)
(1.39567 -0.522059 0)
(1.56484 -0.393 0)
(1.70784 -0.182055 0)
(1.80595 0.0998575 0)
(1.87775 0.484737 0)
(1.93165 0.863844 0)
(1.95699 1.40374 0)
(0.0226853 -0.440436 0)
(0.0682303 -0.44334 0)
(0.114337 -0.448247 0)
(0.161433 -0.459051 0)
(0.209991 -0.467994 0)
(0.26044 -0.484633 0)
(0.313291 -0.502359 0)
(0.369493 -0.524502 0)
(0.430247 -0.549724 0)
(0.49688 -0.580737 0)
(0.572503 -0.616502 0)
(0.661894 -0.656417 0)
(0.769101 -0.70255 0)
(0.897273 -0.745866 0)
(1.04474 -0.765356 0)
(1.2027 -0.754038 0)
(1.34501 -0.671115 0)
(1.44568 -0.514123 0)
(1.53689 -0.293616 0)
(1.67584 -0.0237323 0)
(1.83083 0.38461 0)
(1.92041 0.824331 0)
(1.94069 1.40085 0)
(0.0211743 -0.484524 0)
(0.0636755 -0.487758 0)
(0.106692 -0.493418 0)
(0.150508 -0.505267 0)
(0.195556 -0.515872 0)
(0.242187 -0.534341 0)
(0.290824 -0.554667 0)
(0.342272 -0.580405 0)
(0.39782 -0.61073 0)
(0.458496 -0.647705 0)
(0.526883 -0.694296 0)
(0.609653 -0.751682 0)
(0.712587 -0.818522 0)
(0.834565 -0.881351 0)
(0.96292 -0.90738 0)
(1.07758 -0.886479 0)
(1.19203 -0.795365 0)
(1.35162 -0.648635 0)
(1.55915 -0.456673 0)
(1.77784 -0.218141 0)
(1.96522 0.236163 0)
(2.0493 0.80024 0)
(2.00658 1.45104 0)
(0.0194222 -0.525332 0)
(0.0584016 -0.528855 0)
(0.0978268 -0.535192 0)
(0.13789 -0.547809 0)
(0.179083 -0.56002 0)
(0.221669 -0.579877 0)
(0.265824 -0.602407 0)
(0.311976 -0.630775 0)
(0.361018 -0.665495 0)
(0.413916 -0.707106 0)
(0.472778 -0.762809 0)
(0.544894 -0.838864 0)
(0.635488 -0.925885 0)
(0.733755 -0.996192 0)
(0.837338 -1.02639 0)
(0.989064 -1.03459 0)
(1.20057 -0.972615 0)
(1.38314 -0.813512 0)
(1.45525 -0.572786 0)
(1.48429 -0.351011 0)
(1.62867 0.0355882 0)
(1.85327 0.69063 0)
(1.96346 1.49334 0)
(0.017831 -0.56278 0)
(0.0536045 -0.566551 0)
(0.0896759 -0.573387 0)
(0.126115 -0.586516 0)
(0.163283 -0.600083 0)
(0.201297 -0.620835 0)
(0.240237 -0.644978 0)
(0.280873 -0.675446 0)
(0.324499 -0.713975 0)
(0.372452 -0.760004 0)
(0.424064 -0.820968 0)
(0.481607 -0.911381 0)
(0.552391 -1.01758 0)
(0.663797 -1.11718 0)
(0.827269 -1.17347 0)
(0.999894 -1.21216 0)
(1.05048 -1.05772 0)
(0.931063 -0.791832 0)
(0.803888 -0.539054 0)
(0.824569 -0.434663 0)
(1.03881 -0.241208 0)
(1.3797 0.399056 0)
(1.65155 1.40094 0)
(0.0161967 -0.596985 0)
(0.0486158 -0.600894 0)
(0.0811911 -0.608049 0)
(0.113985 -0.621449 0)
(0.147495 -0.636197 0)
(0.182146 -0.657767 0)
(0.218207 -0.68344 0)
(0.25609 -0.715918 0)
(0.295761 -0.757285 0)
(0.337375 -0.80729 0)
(0.380932 -0.871545 0)
(0.454737 -0.996136 0)
(0.564003 -1.11643 0)
(0.716632 -1.28297 0)
(0.864265 -1.31829 0)
(0.864811 -1.24102 0)
(0.656789 -0.870519 0)
(0.432921 -0.633886 0)
(0.43178 -0.567953 0)
(0.600659 -0.596258 0)
(0.83907 -0.534575 0)
(1.10542 0.0820857 0)
(1.31468 1.23436 0)
(0.0150386 -0.628388 0)
(0.0451022 -0.632309 0)
(0.0755688 -0.640017 0)
(0.106397 -0.653458 0)
(0.137511 -0.669218 0)
(0.168789 -0.691309 0)
(0.200562 -0.718976 0)
(0.23396 -0.75411 0)
(0.271484 -0.800165 0)
(0.324798 -0.863474 0)
(0.415175 -0.952975 0)
(0.528593 -1.10557 0)
(0.587867 -1.177 0)
(0.589978 -1.37595 0)
(0.564241 -1.34644 0)
(0.410873 -1.05909 0)
(0.200713 -0.63198 0)
(0.145729 -0.592045 0)
(0.223326 -0.68658 0)
(0.349582 -0.77424 0)
(0.530332 -0.777877 0)
(0.734373 -0.147382 0)
(0.938864 1.04799 0)
(0.0142626 -0.659315 0)
(0.0425217 -0.663068 0)
(0.0708466 -0.671734 0)
(0.0990744 -0.685 0)
(0.127513 -0.701777 0)
(0.158034 -0.724896 0)
(0.195118 -0.758208 0)
(0.273078 -0.830178 0)
(0.40772 -0.897061 0)
(0.572056 -0.984676 0)
(0.710328 -1.06237 0)
(0.74987 -1.1496 0)
(0.636908 -1.07892 0)
(0.463145 -1.30136 0)
(0.320497 -1.25161 0)
(0.128735 -0.806839 0)
(-0.0281013 -0.515221 0)
(-0.053869 -0.627554 0)
(-0.0258061 -0.757211 0)
(0.0308153 -0.887371 0)
(0.109654 -0.92562 0)
(0.273795 -0.369667 0)
(0.58129 0.755707 0)
(0.0145262 -0.69006 0)
(0.0443694 -0.694354 0)
(0.0822425 -0.710739 0)
(0.133788 -0.730189 0)
(0.201465 -0.75737 0)
(0.287514 -0.790223 0)
(0.391167 -0.837057 0)
(0.514249 -0.954685 0)
(0.656553 -1.04738 0)
(0.794706 -1.13461 0)
(0.866326 -1.12336 0)
(0.809067 -1.07074 0)
(0.607943 -0.841986 0)
(0.395129 -1.14971 0)
(0.210202 -1.07392 0)
(-0.0131284 -0.567116 0)
(-0.158756 -0.450811 0)
(-0.227977 -0.596401 0)
(-0.298187 -0.745919 0)
(-0.360828 -0.892532 0)
(-0.419515 -0.940632 0)
(-0.339902 -0.599594 0)
(0.0390873 0.295663 0)
(0.0219818 -0.727083 0)
(0.0668048 -0.732939 0)
(0.116425 -0.760464 0)
(0.174638 -0.790896 0)
(0.244793 -0.835175 0)
(0.331978 -0.886529 0)
(0.437119 -0.950592 0)
(0.543643 -1.0719 0)
(0.647046 -1.17709 0)
(0.746411 -1.24359 0)
(0.816987 -1.15725 0)
(0.790606 -0.95271 0)
(0.602091 -0.568284 0)
(0.364794 -0.971038 0)
(0.117988 -0.818638 0)
(-0.147809 -0.330586 0)
(-0.298227 -0.389667 0)
(-0.392981 -0.492634 0)
(-0.516207 -0.655159 0)
(-0.657796 -0.777914 0)
(-0.811901 -0.841263 0)
(-0.877105 -0.713367 0)
(-0.664593 -0.185065 0)
(0.0202548 -0.76952 0)
(0.0625641 -0.778049 0)
(0.104941 -0.80779 0)
(0.145652 -0.84296 0)
(0.18543 -0.893562 0)
(0.229664 -0.960188 0)
(0.286085 -1.03928 0)
(0.363954 -1.16851 0)
(0.471544 -1.29251 0)
(0.596605 -1.3537 0)
(0.702636 -1.22461 0)
(0.708228 -0.864384 0)
(0.589524 -0.347712 0)
(0.357036 -0.719388 0)
(0.0147884 -0.478152 0)
(-0.267266 -0.120262 0)
(-0.403343 -0.311919 0)
(-0.51741 -0.360388 0)
(-0.666372 -0.51371 0)
(-0.857322 -0.584997 0)
(-1.09331 -0.641953 0)
(-1.34297 -0.596051 0)
(-1.51754 -0.340389 0)
(0.00857079 -0.798476 0)
(0.0273438 -0.810457 0)
(0.0465148 -0.837214 0)
(0.0673039 -0.875315 0)
(0.0907101 -0.924674 0)
(0.119504 -1.00243 0)
(0.156284 -1.09066 0)
(0.209863 -1.2492 0)
(0.278091 -1.38849 0)
(0.349051 -1.45469 0)
(0.393302 -1.27461 0)
(0.378164 -0.80471 0)
(0.339447 -0.249071 0)
(0.145035 -0.388819 0)
(-0.196813 -0.120971 0)
(-0.401408 0.0118236 0)
(-0.497629 -0.210412 0)
(-0.605787 -0.238425 0)
(-0.730106 -0.360877 0)
(-0.892346 -0.3827 0)
(-1.09624 -0.40197 0)
(-1.34207 -0.337812 0)
(-1.60121 -0.162498 0)
(0.00287066 -0.809956 0)
(0.00856211 -0.823527 0)
(0.0124395 -0.847269 0)
(0.014382 -0.888063 0)
(0.0135023 -0.934519 0)
(0.0106891 -1.01865 0)
(0.00722498 -1.10788 0)
(0.0025783 -1.28111 0)
(-0.0119839 -1.41046 0)
(-0.0432644 -1.47254 0)
(-0.118581 -1.22547 0)
(-0.197712 -0.759024 0)
(-0.236218 -0.217059 0)
(-0.366601 -0.0942641 0)
(-0.526903 0.0893211 0)
(-0.576471 0.0570976 0)
(-0.614082 -0.121075 0)
(-0.683916 -0.148757 0)
(-0.773814 -0.235122 0)
(-0.896252 -0.222196 0)
(-1.04355 -0.209352 0)
(-1.21387 -0.111978 0)
(-1.38227 0.0415701 0)
(-0.00404667 -0.808752 0)
(-0.0119309 -0.822484 0)
(-0.0217921 -0.842253 0)
(-0.0355218 -0.881184 0)
(-0.0548295 -0.921057 0)
(-0.0830806 -1.00083 0)
(-0.124715 -1.0803 0)
(-0.192306 -1.23601 0)
(-0.294139 -1.3385 0)
(-0.434216 -1.37218 0)
(-0.60547 -1.0779 0)
(-0.752597 -0.679089 0)
(-0.818652 -0.191818 0)
(-0.825306 0.0183204 0)
(-0.785464 0.0978985 0)
(-0.724352 0.0369903 0)
(-0.708559 -0.0789574 0)
(-0.733428 -0.0955955 0)
(-0.784658 -0.146331 0)
(-0.863142 -0.108922 0)
(-0.958033 -0.0790719 0)
(-1.06046 0.0320324 0)
(-1.15556 0.162559 0)
(-0.00756872 -0.797054 0)
(-0.024571 -0.809122 0)
(-0.0462951 -0.82382 0)
(-0.0742952 -0.857622 0)
(-0.110717 -0.888549 0)
(-0.160832 -0.954514 0)
(-0.232961 -1.01221 0)
(-0.34213 -1.12637 0)
(-0.496447 -1.1906 0)
(-0.684276 -1.1904 0)
(-0.866431 -0.904363 0)
(-0.996785 -0.573632 0)
(-1.01832 -0.209165 0)
(-0.941886 -0.0344037 0)
(-0.849378 0.0176527 0)
(-0.776033 -0.0178496 0)
(-0.742567 -0.0735569 0)
(-0.748324 -0.0701305 0)
(-0.778726 -0.0896529 0)
(-0.827361 -0.0377288 0)
(-0.885399 0.00355886 0)
(-0.942722 0.110086 0)
(-0.984286 0.221992 0)
(-0.0121071 -0.777254 0)
(-0.0384997 -0.785257 0)
(-0.0693295 -0.794812 0)
(-0.106137 -0.821439 0)
(-0.151695 -0.842276 0)
(-0.211421 -0.890322 0)
(-0.292799 -0.922044 0)
(-0.408626 -0.990309 0)
(-0.569144 -1.01012 0)
(-0.759395 -0.990769 0)
(-0.91873 -0.760666 0)
(-0.995458 -0.509106 0)
(-0.987468 -0.260015 0)
(-0.922841 -0.12528 0)
(-0.840266 -0.067399 0)
(-0.771093 -0.0759882 0)
(-0.736742 -0.0835146 0)
(-0.732373 -0.0586998 0)
(-0.746694 -0.0560446 0)
(-0.772377 0.00345486 0)
(-0.803779 0.0523744 0)
(-0.832586 0.147946 0)
(-0.847644 0.241151 0)
(-0.0167063 -0.748269 0)
(-0.0501271 -0.754074 0)
(-0.0852319 -0.759673 0)
(-0.12555 -0.779004 0)
(-0.174417 -0.789746 0)
(-0.236155 -0.820705 0)
(-0.315507 -0.830042 0)
(-0.418944 -0.861849 0)
(-0.550551 -0.844878 0)
(-0.699579 -0.814907 0)
(-0.82345 -0.651786 0)
(-0.885388 -0.478537 0)
(-0.882517 -0.301441 0)
(-0.836007 -0.195509 0)
(-0.777646 -0.138775 0)
(-0.729185 -0.122791 0)
(-0.706564 -0.09391 0)
(-0.704033 -0.055164 0)
(-0.710797 -0.0383075 0)
(-0.723853 0.0247407 0)
(-0.738114 0.0770755 0)
(-0.747496 0.161722 0)
(-0.744532 0.239624 0)
(-0.0172905 -0.714074 0)
(-0.0528493 -0.718887 0)
(-0.0909417 -0.721238 0)
(-0.133565 -0.734021 0)
(-0.182469 -0.736404 0)
(-0.240294 -0.753813 0)
(-0.309264 -0.74779 0)
(-0.391649 -0.757259 0)
(-0.487499 -0.720772 0)
(-0.590788 -0.685325 0)
(-0.680151 -0.566965 0)
(-0.733117 -0.447796 0)
(-0.743811 -0.324258 0)
(-0.722836 -0.240467 0)
(-0.691759 -0.183658 0)
(-0.669653 -0.148777 0)
(-0.662144 -0.0981416 0)
(-0.659739 -0.055821 0)
(-0.66105 -0.0294603 0)
(-0.665451 0.0335186 0)
(-0.668389 0.0856674 0)
(-0.666426 0.16067 0)
(-0.654933 0.226228 0)
(-0.0175481 -0.679033 0)
(-0.0537266 -0.681775 0)
(-0.0923131 -0.681228 0)
(-0.134702 -0.688532 0)
(-0.182108 -0.685037 0)
(-0.236092 -0.692741 0)
(-0.297318 -0.677939 0)
(-0.366255 -0.674951 0)
(-0.440918 -0.631626 0)
(-0.517496 -0.593613 0)
(-0.583827 -0.502117 0)
(-0.625745 -0.417208 0)
(-0.639969 -0.32974 0)
(-0.634256 -0.261753 0)
(-0.623142 -0.204722 0)
(-0.617058 -0.155986 0)
(-0.615339 -0.100142 0)
(-0.612152 -0.0593723 0)
(-0.611583 -0.0250932 0)
(-0.611893 0.0339595 0)
(-0.609026 0.085373 0)
(-0.601349 0.151351 0)
(-0.585678 0.20832 0)
(-0.0186708 -0.642604 0)
(-0.0564995 -0.643768 0)
(-0.0955719 -0.641129 0)
(-0.137157 -0.644177 0)
(-0.182177 -0.636439 0)
(-0.231726 -0.637221 0)
(-0.285997 -0.617314 0)
(-0.344868 -0.607054 0)
(-0.405316 -0.563658 0)
(-0.462285 -0.527287 0)
(-0.508254 -0.455507 0)
(-0.538795 -0.390927 0)
(-0.555825 -0.324549 0)
(-0.56229 -0.266132 0)
(-0.563741 -0.209998 0)
(-0.564725 -0.155777 0)
(-0.564227 -0.102517 0)
(-0.561961 -0.062415 0)
(-0.561149 -0.0233728 0)
(-0.558371 0.0298264 0)
(-0.552049 0.0803386 0)
(-0.540971 0.137602 0)
(-0.523636 0.188963 0)
(-0.0183025 -0.605417 0)
(-0.0552823 -0.605715 0)
(-0.0932051 -0.601744 0)
(-0.132999 -0.601716 0)
(-0.175051 -0.59133 0)
(-0.219863 -0.587433 0)
(-0.26697 -0.565151 0)
(-0.31573 -0.550978 0)
(-0.363481 -0.510923 0)
(-0.40774 -0.478217 0)
(-0.445992 -0.419867 0)
(-0.47505 -0.366606 0)
(-0.494835 -0.311809 0)
(-0.506869 -0.260222 0)
(-0.513836 -0.20739 0)
(-0.517133 -0.154023 0)
(-0.517179 -0.104665 0)
(-0.516094 -0.0635744 0)
(-0.514801 -0.0242674 0)
(-0.510686 0.0238563 0)
(-0.503309 0.0726028 0)
(-0.491045 0.12194 0)
(-0.473743 0.169873 0)
(-0.0173083 -0.569601 0)
(-0.0522915 -0.569153 0)
(-0.0880313 -0.564218 0)
(-0.125113 -0.561924 0)
(-0.163632 -0.550088 0)
(-0.203791 -0.543218 0)
(-0.244958 -0.520588 0)
(-0.286534 -0.50469 0)
(-0.327102 -0.468384 0)
(-0.365173 -0.437949 0)
(-0.397918 -0.38872 0)
(-0.422571 -0.343714 0)
(-0.441058 -0.296178 0)
(-0.454847 -0.249844 0)
(-0.464219 -0.20129 0)
(-0.469247 -0.151699 0)
(-0.470559 -0.105569 0)
(-0.469992 -0.0642735 0)
(-0.467848 -0.0269654 0)
(-0.463541 0.0181485 0)
(-0.456305 0.0636819 0)
(-0.444035 0.106261 0)
(-0.427726 0.151827 0)
(-0.0163052 -0.535792 0)
(-0.0491662 -0.534724 0)
(-0.0824987 -0.529175 0)
(-0.116711 -0.525261 0)
(-0.151781 -0.512736 0)
(-0.187824 -0.503929 0)
(-0.224249 -0.481837 0)
(-0.260565 -0.4651 0)
(-0.295554 -0.431979 0)
(-0.327604 -0.403823 0)
(-0.355588 -0.361755 0)
(-0.378495 -0.322824 0)
(-0.396842 -0.279993 0)
(-0.410909 -0.23798 0)
(-0.420877 -0.193663 0)
(-0.426644 -0.148423 0)
(-0.428617 -0.10549 0)
(-0.427986 -0.0655016 0)
(-0.425652 -0.0301845 0)
(-0.42184 0.013262 0)
(-0.414967 0.0544422 0)
(-0.403514 0.0917108 0)
(-0.388637 0.135087 0)
(-0.0154643 -0.503837 0)
(-0.0465347 -0.502374 0)
(-0.0777786 -0.496571 0)
(-0.109417 -0.491631 0)
(-0.141338 -0.478986 0)
(-0.17357 -0.469007 0)
(-0.205606 -0.447899 0)
(-0.236976 -0.430958 0)
(-0.266819 -0.400908 0)
(-0.294285 -0.375024 0)
(-0.318689 -0.337848 0)
(-0.338924 -0.303319 0)
(-0.355494 -0.264353 0)
(-0.368706 -0.226152 0)
(-0.37844 -0.18564 0)
(-0.384456 -0.144553 0)
(-0.386915 -0.104855 0)
(-0.386745 -0.0668909 0)
(-0.385033 -0.0328119 0)
(-0.381623 0.00868086 0)
(-0.374921 0.0454302 0)
(-0.364705 0.0789939 0)
(-0.35162 0.119749 0)
(-0.0140944 -0.474105 0)
(-0.0423851 -0.472397 0)
(-0.0707623 -0.466578 0)
(-0.0993759 -0.46102 0)
(-0.128074 -0.448624 0)
(-0.156799 -0.438056 0)
(-0.185113 -0.418147 0)
(-0.212655 -0.401451 0)
(-0.238926 -0.373968 0)
(-0.263247 -0.349866 0)
(-0.285119 -0.316447 0)
(-0.303873 -0.285484 0)
(-0.319539 -0.249741 0)
(-0.332021 -0.214891 0)
(-0.341356 -0.177689 0)
(-0.347418 -0.140317 0)
(-0.350281 -0.103694 0)
(-0.350618 -0.0678375 0)
(-0.349341 -0.0348224 0)
(-0.345933 0.00388565 0)
(-0.339356 0.036926 0)
(-0.330394 0.0682692 0)
(-0.319032 0.105949 0)
(-0.0129337 -0.446918 0)
(-0.0388638 -0.445045 0)
(-0.0648002 -0.439297 0)
(-0.090831 -0.433335 0)
(-0.116787 -0.421333 0)
(-0.142562 -0.410525 0)
(-0.167801 -0.391807 0)
(-0.192208 -0.375533 0)
(-0.215316 -0.350211 0)
(-0.236532 -0.327809 0)
(-0.25551 -0.297401 0)
(-0.27182 -0.269244 0)
(-0.285617 -0.236326 0)
(-0.296871 -0.204405 0)
(-0.305494 -0.170083 0)
(-0.311324 -0.135926 0)
(-0.314446 -0.102026 0)
(-0.315263 -0.0683019 0)
(-0.314361 -0.0365038 0)
(-0.311225 -0.00096552 0)
(-0.305341 0.0292953 0)
(-0.297687 0.0592428 0)
(-0.28784 0.0937014 0)
(-0.011737 -0.422101 0)
(-0.0352292 -0.420147 0)
(-0.0586296 -0.414566 0)
(-0.0819505 -0.408422 0)
(-0.105024 -0.396925 0)
(-0.12775 -0.386144 0)
(-0.149872 -0.368545 0)
(-0.171159 -0.352827 0)
(-0.191309 -0.329397 0)
(-0.210007 -0.308465 0)
(-0.227053 -0.280496 0)
(-0.242096 -0.254596 0)
(-0.255001 -0.224094 0)
(-0.265497 -0.194733 0)
(-0.273567 -0.162937 0)
(-0.279187 -0.131523 0)
(-0.282479 -0.0999415 0)
(-0.28364 -0.0683578 0)
(-0.283003 -0.0379545 0)
(-0.280212 -0.00543095 0)
(-0.275168 0.022817 0)
(-0.268568 0.0514356 0)
(-0.259819 0.0828575 0)
(-0.0104709 -0.399761 0)
(-0.0314256 -0.397775 0)
(-0.0522993 -0.392399 0)
(-0.0730912 -0.386212 0)
(-0.0936597 -0.375232 0)
(-0.113911 -0.364602 0)
(-0.133625 -0.347999 0)
(-0.152605 -0.332862 0)
(-0.170576 -0.311007 0)
(-0.187197 -0.291317 0)
(-0.202195 -0.265398 0)
(-0.215268 -0.241396 0)
(-0.226449 -0.213047 0)
(-0.235691 -0.185903 0)
(-0.243012 -0.15626 0)
(-0.248303 -0.127196 0)
(-0.251601 -0.0976064 0)
(-0.252968 -0.068115 0)
(-0.252573 -0.0391975 0)
(-0.250231 -0.00930994 0)
(-0.24607 0.0174811 0)
(-0.240484 0.0445613 0)
(-0.232903 0.0733556 0)
(-0.00932887 -0.379842 0)
(-0.0279814 -0.377848 0)
(-0.0465283 -0.372668 0)
(-0.0649345 -0.36651 0)
(-0.0830572 -0.356011 0)
(-0.100796 -0.345603 0)
(-0.117966 -0.329891 0)
(-0.134418 -0.315322 0)
(-0.149943 -0.294844 0)
(-0.164354 -0.276254 0)
(-0.177549 -0.252089 0)
(-0.189354 -0.229665 0)
(-0.199692 -0.203115 0)
(-0.208321 -0.177837 0)
(-0.215165 -0.150054 0)
(-0.220144 -0.123046 0)
(-0.223376 -0.0951579 0)
(-0.224911 -0.067613 0)
(-0.224814 -0.040159 0)
(-0.222948 -0.0125432 0)
(-0.219521 0.0131209 0)
(-0.214745 0.038542 0)
(-0.208208 0.0652181 0)
(-0.00812659 -0.362281 0)
(-0.0243714 -0.360301 0)
(-0.0405257 -0.355305 0)
(-0.0565579 -0.349226 0)
(-0.0723603 -0.339163 0)
(-0.0878658 -0.329004 0)
(-0.102924 -0.314066 0)
(-0.117408 -0.300021 0)
(-0.13115 -0.280695 0)
(-0.143986 -0.262984 0)
(-0.155727 -0.240263 0)
(-0.166115 -0.219153 0)
(-0.17509 -0.194183 0)
(-0.18258 -0.170535 0)
(-0.188651 -0.144344 0)
(-0.193238 -0.11911 0)
(-0.196362 -0.0926731 0)
(-0.197989 -0.0668881 0)
(-0.198144 -0.0407936 0)
(-0.196756 -0.0151478 0)
(-0.194014 0.00955565 0)
(-0.190036 0.0333401 0)
(-0.184557 0.058373 0)
(-0.007015 -0.347048 0)
(-0.0210429 -0.345078 0)
(-0.035009 -0.340224 0)
(-0.048881 -0.33422 0)
(-0.0625555 -0.324512 0)
(-0.0759491 -0.314579 0)
(-0.0889089 -0.300301 0)
(-0.101334 -0.28671 0)
(-0.113084 -0.268354 0)
(-0.124024 -0.2514 0)
(-0.134078 -0.229912 0)
(-0.14315 -0.209916 0)
(-0.151224 -0.186254 0)
(-0.158146 -0.163949 0)
(-0.163825 -0.13909 0)
(-0.168145 -0.115383 0)
(-0.17116 -0.0902012 0)
(-0.172846 -0.066001 0)
(-0.173247 -0.0410931 0)
(-0.172319 -0.0171482 0)
(-0.170186 0.00668361 0)
(-0.166919 0.0289585 0)
(-0.162367 0.0527003 0)
(-0.00584897 -0.334105 0)
(-0.0175609 -0.332123 0)
(-0.0292617 -0.327354 0)
(-0.0409346 -0.321388 0)
(-0.0524941 -0.311955 0)
(-0.0638709 -0.302212 0)
(-0.074952 -0.288477 0)
(-0.0856463 -0.27527 0)
(-0.0958279 -0.257724 0)
(-0.10541 -0.241377 0)
(-0.1143 -0.220868 0)
(-0.122319 -0.201755 0)
(-0.12938 -0.179178 0)
(-0.135377 -0.158015 0)
(-0.140355 -0.134287 0)
(-0.144264 -0.111891 0)
(-0.147109 -0.0877787 0)
(-0.14884 -0.0649628 0)
(-0.149474 -0.0410655 0)
(-0.148964 -0.0185963 0)
(-0.147404 0.00444368 0)
(-0.144847 0.0253709 0)
(-0.141203 0.0480745 0)
(-0.00475132 -0.323439 0)
(-0.0142831 -0.321414 0)
(-0.0238481 -0.316666 0)
(-0.0334413 -0.310678 0)
(-0.0429922 -0.301423 0)
(-0.0524456 -0.291784 0)
(-0.061703 -0.278439 0)
(-0.0706807 -0.265512 0)
(-0.0792574 -0.248605 0)
(-0.0873075 -0.232751 0)
(-0.0947605 -0.213044 0)
(-0.10155 -0.19467 0)
(-0.107684 -0.172978 0)
(-0.113086 -0.152734 0)
(-0.117693 -0.129911 0)
(-0.121386 -0.108605 0)
(-0.124164 -0.085391 0)
(-0.125972 -0.0637699 0)
(-0.126834 -0.0407329 0)
(-0.12672 -0.019534 0)
(-0.125687 0.00279726 0)
(-0.123772 0.0225447 0)
(-0.120924 0.0443971 0)
(-0.00358712 -0.315048 0)
(-0.0108031 -0.312951 0)
(-0.0180863 -0.308174 0)
(-0.0254425 -0.302114 0)
(-0.0328337 -0.292939 0)
(-0.0402461 -0.283297 0)
(-0.0476373 -0.270173 0)
(-0.0549684 -0.257366 0)
(-0.0621578 -0.240884 0)
(-0.0691211 -0.225362 0)
(-0.0757646 -0.206245 0)
(-0.0819212 -0.188437 0)
(-0.0874633 -0.167456 0)
(-0.0922709 -0.147975 0)
(-0.0963688 -0.125901 0)
(-0.0997267 -0.105509 0)
(-0.102348 -0.0830411 0)
(-0.104182 -0.0624396 0)
(-0.10523 -0.0401247 0)
(-0.105461 -0.020006 0)
(-0.104917 0.00170372 0)
(-0.103632 0.0204409 0)
(-0.101571 0.0415854 0)
(-0.00255546 -0.308866 0)
(-0.00768032 -0.306713 0)
(-0.0128178 -0.301912 0)
(-0.0179915 -0.295766 0)
(-0.0232199 -0.286586 0)
(-0.028553 -0.276823 0)
(-0.0340101 -0.263717 0)
(-0.0395965 -0.250822 0)
(-0.045268 -0.234485 0)
(-0.0509221 -0.219063 0)
(-0.0564251 -0.20032 0)
(-0.0616477 -0.182909 0)
(-0.0665443 -0.162476 0)
(-0.0709994 -0.143628 0)
(-0.0749287 -0.122162 0)
(-0.0782368 -0.102531 0)
(-0.0809109 -0.0806804 0)
(-0.0829068 -0.0609351 0)
(-0.0842367 -0.039223 0)
(-0.0848757 -0.0200177 0)
(-0.0848387 0.00114734 0)
(-0.0841396 0.019019 0)
(-0.082758 0.0395626 0)
(-0.00158108 -0.304701 0)
(-0.00474604 -0.302532 0)
(-0.00791028 -0.297736 0)
(-0.0111119 -0.291511 0)
(-0.0143845 -0.282284 0)
(-0.0177775 -0.272341 0)
(-0.0213112 -0.259149 0)
(-0.025014 -0.246041 0)
(-0.0289098 -0.229637 0)
(-0.0330295 -0.214073 0)
(-0.0373874 -0.195384 0)
(-0.0418802 -0.178066 0)
(-0.0463499 -0.157891 0)
(-0.0505877 -0.139463 0)
(-0.0544605 -0.118473 0)
(-0.0578243 -0.0995014 0)
(-0.0606049 -0.0782144 0)
(-0.0627369 -0.0592392 0)
(-0.0642304 -0.0380682 0)