/*--------------------------------*- C++ -*----------------------------------*\
| =========                 |                                                 |
| \\      /  F ield         | OpenFOAM: The Open Source CFD Toolbox           |
|  \\    /   O peration     | Version:  2012                                  |
|   \\  /    A nd           | Website:  www.openfoam.com                      |
|    \\/     M anipulation  |                                                 |
\*---------------------------------------------------------------------------*/
FoamFile
{
    version     2.0;
    format      ascii;
    class       volScalarField;
    location    "0.19";
    object      volumeFraction1;
}
// * * * * * * * * * * * * * * * * * * * * * * * * * * * * * * * * * * * * * //

dimensions      [0 0 0 0 0 0 0];


internalField   nonuniform List<scalar> 
2268
(
1
1
1
1
1
1
1
1
1
1
1
1
1
1
1
1
1
1
1
1
1
1
0.983937
1
1
1
1
1
1
1
1
1
1
1
1
1
1
1
1
1
1
1
1
1
1
0.983936
1
1
1
1
1
1
1
1
1
1
1
1
1
1
1
1
1
1
1
1
1
1
0.993996
1
1
1
1
1
1
1
1
1
1
1
1
1
1
1
1
1
1
1
1
1
1
1
1
1
1
1
1
1
1
1
1
1
1
1
1
1
1
1
1
1
1
1
1
1
0.998279
1
1
1
1
1
1
1
1
1
1
1
1
1
1
1
1
1
1
1
1
1
1
0.979279
1
1
1
1
1
1
1
1
1
1
1
1
1
1
1
1
1
1
1
1
1
1
0.974562
1
1
1
1
1
1
1
1
1
1
1
1
1
1
1
1
1
1
1
1
0.999999
1
0.974556
3.55921e-25
6.29312e-25
3.9144e-25
1.6656e-24
9.26283e-26
9.24383e-27
1.53617e-28
1.09758e-30
7.16417e-33
1.74211e-35
5.22015e-38
7.00406e-41
1.44418e-43
1.83557e-46
4.2666e-49
8.1669e-52
2.06609e-54
3.88474e-57
8.52749e-60
3.51694e-23
7.69409e-23
5.26624e-23
2.54639e-22
1.54784e-23
1.11761e-24
2.07193e-26
1.63957e-28
1.22906e-30
3.66601e-33
1.29947e-35
2.1088e-38
4.87098e-41
6.67351e-44
1.57354e-46
2.98405e-49
7.45039e-52
1.39583e-54
1.51831e-57
2.02668e-21
4.59609e-21
4.29422e-21
1.93811e-20
1.25237e-21
6.43624e-23
1.31117e-24
1.14957e-26
9.82682e-29
3.6149e-31
1.52615e-33
3.05071e-36
8.02678e-39
1.2143e-41
2.9914e-44
5.76767e-47
1.418e-49
2.53054e-52
2.65496e-55
6.16493e-20
1.65007e-19
1.5995e-19
8.05787e-19
5.32756e-20
2.20177e-21
4.89574e-23
4.86159e-25
4.74893e-27
2.17395e-29
1.10386e-31
2.78091e-34
8.50924e-37
1.45212e-39
3.94754e-42
8.51684e-45
2.17939e-47
4.18327e-50
4.49204e-53
1.28781e-18
3.59708e-18
5.86088e-18
2.24675e-17
1.52319e-18
5.20554e-20
1.24397e-21
1.41074e-23
1.56693e-25
8.96626e-28
5.52676e-30
1.79594e-32
6.56016e-35
1.31168e-37
3.95257e-40
9.1116e-43
2.24427e-45
4.06379e-48
4.13467e-51
1.58442e-17
6.72342e-17
1.30674e-16
3.77045e-16
2.74811e-17
8.7309e-19
2.22505e-20
2.92899e-22
3.68503e-24
2.64431e-26
1.99493e-28
8.57759e-31
3.85575e-33
1.03725e-35
3.73368e-38
1.0191e-40
2.613e-43
5.50897e-46
6.32355e-49
3.91221e-16
2.49604e-15
5.90596e-15
4.82567e-15
3.46983e-16
1.0984e-17
2.9459e-19
4.54591e-21
6.42451e-23
5.78622e-25
5.36999e-27
3.1277e-29
1.79522e-31
6.8938e-34
2.89216e-36
8.34772e-39
2.00414e-41
3.70971e-44
3.75187e-47
3.86139e-16
3.8617e-16
2.09893e-13
5.19357e-14
3.12151e-15
1.06664e-16
2.98198e-18
5.44017e-20
8.55644e-22
9.7003e-24
1.10721e-25
8.89678e-28
7.11464e-30
4.40304e-32
2.34538e-34
8.90105e-37
2.65593e-39
5.7663e-42
6.61206e-45
1
1
1
1
1
1
1
1
1
1
1
1
1
1
1
1
1
1
1
0.999999
0.999999
1
0.982287
1
1
1
1
1
1
1
1
1
1
1
1
1
1
1
1
1
1
0.999741
1
1
1
0.99916
1
1
1
1
1
1
1
1
1
1
1
1
1
1
1
0.999999
1
0.999632
0.995443
0.99301
1
1
1
1
1
1
1
1
1
1
1
1
1
1
1
1
1
0.999999
0.99998
0.998568
0.943408
0.82776
0.593335
0.36238
0.429203
0.698765
1
1
1
1
1
1
1
1
1
1
1
1
1
1
0.996644
0.987789
0.771321
0.351565
0.0343966
0.00747055
0.00540938
0.00894865
0.0833216
1
1
1
1
1
1
1
1
1
1
1
1
0.999988
0.996489
0.862118
0.458784
0.0163186
1.21656e-09
1.21656e-09
1.21656e-09
2.43828e-07
5.30486e-06
0.000653201
1
1
1
1
1
1
1
1
1
1
0.999976
0.998784
0.989684
0.712118
0.204291
1.21621e-09
1.21623e-09
4.21309e-06
1.39472e-06
3.34982e-09
8.6708e-10
8.68003e-10
3.68521e-07
1
1
1
1
1
1
1
0.999998
0.999928
0.998317
0.986431
0.894779
0.528806
0.0783352
0.000124426
0.00012443
8.65757e-05
1.88102e-05
1.9974e-11
1.03107e-09
1.03604e-08
2.79723e-09
1.00454e-09
0.999999
0.999999
0.999998
0.999994
0.999971
0.999758
0.998488
0.9926
0.970383
0.847398
0.593674
0.239101
2.94318e-20
-5.11131e-21
0.000531044
0.000323111
5.34714e-06
1.98394e-11
1.98392e-11
3.60518e-09
4.52435e-08
1.41088e-08
9.86284e-10
0.994454
0.993283
0.990915
0.984932
0.968648
0.917219
0.824348
0.664761
0.425424
0.179351
0.0120716
6.13602e-21
-9.00977e-23
0.00351646
0.00333168
0.000344467
2.60014e-12
1.98396e-11
9.1485e-11
9.14847e-11
1.79728e-08
1.97405e-07
1.00192e-10
0.660328
0.636078
0.595189
0.51019
0.397674
0.265827
0.148776
0.0438165
-7.40835e-22
9.94453e-30
1.0475e-28
8.82376e-13
-4.05487e-31
0.00864068
0.00360956
2.60014e-12
2.60013e-12
2.01428e-11
6.28729e-11
1.91087e-10
1.91086e-10
3.93854e-07
1.01837e-06
0.041207
0.0313648
0.016636
1.81428e-21
1.58953e-33
-4.93357e-32
1.09737e-30
-2.53172e-29
8.16917e-12
7.88112e-12
5.26009e-11
3.22145e-11
-1.27984e-29
0.00864202
0.00179635
5.55602e-07
6.73798e-13
5.43027e-12
2.3907e-11
9.95582e-11
1.24044e-09
1.54106e-07
6.89776e-06
2.4757e-37
2.43878e-37
1.92527e-37
3.02311e-17
3.56897e-15
1.27496e-13
2.13214e-12
2.43887e-11
6.00593e-11
7.88166e-12
2.27306e-07
3.97776e-07
-1.5125e-24
0.00601404
0.000683135
1.04491e-31
6.73797e-13
2.48784e-12
1.63936e-11
9.36584e-11
1.0197e-09
9.30071e-08
3.83172e-06
1.04617e-20
6.38393e-19
3.70153e-17
1.52377e-15
4.8085e-14
1.02147e-12
1.30573e-11
1.49508e-10
8.54771e-11
7.87862e-12
2.18211e-05
3.47688e-05
5.83922e-06
9.63087e-10
3.84563e-05
2.01923e-31
2.01457e-13
8.98393e-13
9.62018e-12
9.22059e-11
8.59387e-10
3.3903e-08
4.46548e-07
4.60502e-20
3.50347e-18
2.12064e-16
8.65777e-15
2.4689e-13
4.54049e-12
4.91455e-11
7.85028e-10
8.5476e-11
3.56454e-06
5.8044e-05
5.80767e-05
2.2e-05
9.63086e-10
9.06454e-16
2.26521e-14
6.04445e-14
9.7352e-14
3.36206e-13
1.95032e-12
3.71899e-12
2.97962e-12
8.71825e-11
1.31719e-19
1.38998e-17
9.00421e-16
3.68377e-14
9.77167e-13
1.57162e-11
1.55336e-10
5.09547e-09
2.14909e-07
1.29644e-05
5.4525e-05
4.68874e-05
9.64245e-06
1.77623e-16
3.50094e-15
1.21585e-14
1.52698e-14
1.95462e-14
4.42812e-14
2.15511e-13
9.69187e-13
2.97968e-12
4.74323e-12
4.04223e-19
5.37156e-17
3.60432e-15
1.41547e-13
3.38754e-12
4.54052e-11
5.17751e-10
2.86531e-08
6.56185e-07
8.27117e-06
5.34957e-06
3.17646e-16
3.17624e-16
4.15951e-16
1.99624e-15
3.13076e-15
3.18359e-15
3.50919e-15
6.30217e-15
2.83243e-14
1.27845e-13
4.98914e-13
1.03412e-12
7.49174e-19
1.09341e-16
7.22954e-15
2.7515e-13
6.56791e-12
9.75269e-11
1.2927e-09
6.03589e-08
2.08596e-07
1.12105e-12
2.19356e-12
3.29729e-09
3.50939e-10
1.08514e-17
4.4311e-16
5.56268e-16
5.15512e-16
5.12017e-16
7.56528e-16
3.15643e-15
1.41167e-14
5.67573e-14
1.40101e-13
9.59142e-19
1.39205e-16
9.017e-15
3.41848e-13
8.49255e-12
1.58741e-10
1.40591e-09
1.00067e-09
1.00066e-09
9.14433e-07
2.471e-06
1.66769e-06
4.27253e-16
4.268e-16
2.04707e-14
6.68292e-17
6.23523e-17
5.88698e-17
7.44603e-17
2.88853e-16
1.30218e-15
5.28275e-15
1.37308e-14
4.16739e-19
5.77128e-17
3.78987e-15
1.4668e-13
3.41697e-12
4.29686e-11
1.25158e-10
1.2516e-10
2.89616e-09
1.58874e-06
4.89172e-06
4.8917e-06
8.83628e-07
4.27253e-16
3.35374e-12
1.61324e-24
5.77241e-18
5.10515e-18
5.99576e-18
2.17533e-17
9.79857e-17
3.97179e-16
1.02117e-15
4.17078e-21
2.46377e-19
6.10123e-18
6.94345e-17
3.4079e-16
3.43972e-14
3.26448e-12
1.47039e-10
4.86621e-09
2.38769e-08
3.38751e-07
8.94815e-07
3.91954e-07
1.91112e-13
2.10474e-10
1.42715e-24
5.30522e-19
3.40061e-19
3.84301e-19
1.31461e-18
5.92468e-18
2.41861e-17
5.95298e-17
1.93695e-23
1.57642e-21
5.79695e-20
1.28609e-18
1.97363e-17
2.0671e-16
3.2894e-16
3.29078e-16
3.30029e-16
3.58836e-16
3.58903e-16
3.59981e-16
2.91061e-12
3.2321e-08
2.47229e-09
1.61324e-24
9.01663e-20
1.74226e-20
1.96303e-20
6.39847e-20
2.89959e-19
1.20096e-18
2.80045e-18
4.68041e-24
3.85911e-22
1.45356e-20
3.34752e-19
5.4479e-18
6.97654e-17
7.73826e-16
6.40751e-15
3.90929e-14
1.98261e-13
1.14323e-12
8.7964e-12
7.87929e-11
4.59222e-10
6.87606e-10
1.42715e-24
2.31765e-20
6.76548e-22
7.98138e-22
2.50059e-21
1.15322e-20
4.87113e-20
1.08533e-19
4.80394e-26
6.48263e-24
4.23739e-22
1.75716e-20
5.10521e-19
1.09095e-17
1.76906e-16
2.20906e-15
2.1693e-14
1.61572e-13
8.47306e-13
2.01615e-12
2.11761e-12
1.81308e-23
1.81302e-23
2.70625e-21
3.40288e-21
2.0111e-23
2.57425e-23
7.86282e-23
3.74501e-22
1.61428e-21
3.52275e-21
2.13665e-30
1.94847e-28
8.28813e-27
2.17345e-25
3.91493e-24
5.10433e-23
4.98636e-22
1.80303e-21
1.438e-22
1.81301e-23
1.81308e-23
1.81301e-23
1.81308e-23
5.48624e-22
3.27055e-21
4.63163e-21
2.61547e-22
4.56444e-25
6.45217e-25
1.9896e-24
9.94388e-24
4.37205e-23
9.68994e-23
5.30029e-35
5.87335e-33
3.06806e-31
1.00247e-29
2.29212e-28
3.89444e-27
5.13724e-26
5.41727e-25
4.73265e-24
3.4476e-23
1.66227e-22
5.41852e-22
8.705e-22
9.6808e-22
8.07388e-22
2.79698e-22
6.58339e-24
7.88517e-27
1.24484e-26
4.10925e-26
2.1704e-25
9.72282e-25
2.27844e-24
3.38322e-38
3.8001e-36
2.00957e-34
6.63841e-33
1.52972e-31
2.60049e-30
3.37685e-29
3.39984e-28
2.69481e-27
1.66603e-26
7.96935e-26
2.76273e-25
5.10884e-25
6.42513e-25
4.73509e-25
2.90962e-25
1.7145e-25
1.03885e-28
1.83879e-28
6.91922e-28
3.8942e-27
1.78537e-26
4.59644e-26
3.52745e-44
4.68873e-42
2.99195e-40
1.21799e-38
3.53529e-37
7.76282e-36
1.33773e-34
1.84854e-33
2.08895e-32
1.94243e-31
1.50816e-30
9.79441e-30
5.42005e-29
2.589e-28
1.08504e-27
2.30325e-27
2.30435e-27
1.08253e-30
2.09668e-30
9.414e-30
5.75196e-29
2.74278e-28
7.95669e-28
8.89232e-48
1.32418e-45
9.35899e-44
4.1754e-42
1.31503e-40
3.10527e-39
5.7057e-38
8.34064e-37
9.90016e-36
9.66054e-35
7.98609e-34
5.80594e-33
3.98974e-32
2.69334e-31
1.70601e-30
5.55523e-30
6.54715e-30
9.13397e-33
1.82872e-32
1.00554e-31
6.9626e-31
3.57332e-30
1.18254e-29
4.90907e-54
7.13253e-52
4.91113e-50
2.13259e-48
6.54205e-47
1.50964e-45
2.74213e-44
4.10282e-43
5.48346e-42
7.38845e-41
1.10497e-39
1.72223e-38
2.44479e-37
2.83465e-36
2.50852e-35
1.22829e-34
1.82211e-34
5.95408e-35
1.25375e-34
8.38268e-34
6.93439e-33
3.98272e-32
1.51241e-31
8.87306e-61
2.03025e-58
2.24933e-56
1.61177e-54
8.39659e-53
3.40164e-51
1.12021e-49
3.10229e-48
7.4448e-47
1.5859e-45
3.06652e-44
5.42637e-43
8.76425e-42
1.25762e-40
1.53242e-39
1.45833e-38
9.30149e-38
2.82108e-37
6.74965e-37
5.56255e-36
5.6966e-35
3.79765e-34
1.66626e-33
1.68806e-66
3.944e-64
4.74112e-62
4.14851e-60
3.13237e-58
2.17988e-56
1.3764e-54
7.612e-53
3.60154e-51
1.44357e-49
4.87957e-48
1.38166e-46
3.24618e-45
6.2058e-44
9.39411e-43
1.075e-41
8.77829e-41
5.03482e-40
2.95222e-39
2.98797e-38
3.88591e-37
3.10847e-36
1.58823e-35
1.13734e-71
4.06732e-69
7.22814e-67
8.59455e-65
7.76379e-63
5.75046e-61
3.66557e-59
2.07393e-57
1.057e-55
4.8687e-54
2.01973e-52
7.48996e-51
2.46264e-49
7.08164e-48
1.75227e-46
3.63645e-45
6.16184e-44
8.38374e-43
9.89389e-42
1.30908e-40
2.20568e-39
2.18773e-38
1.31747e-37
4.71626e-76
2.07451e-73
4.64703e-71
7.15137e-69
8.56019e-67
8.5219e-65
7.30479e-63
5.48876e-61
3.63759e-59
2.13026e-57
1.10104e-55
5.00322e-54
1.988e-52
6.83776e-51
2.01313e-49
4.98463e-48
1.02272e-46
1.74178e-45
2.70481e-44
4.78912e-43
1.04896e-41
1.33319e-40
9.59303e-40
1.35502e-81
1.12285e-78
4.67835e-76
1.29084e-73
2.62552e-71
4.17754e-69
5.38769e-67
5.77821e-65
5.24212e-63
4.07677e-61
2.74012e-59
1.59981e-57
8.13232e-56
3.5875e-54
1.36477e-52
4.41885e-51
1.20883e-49
2.83202e-48
6.23999e-47
1.52591e-45
4.22171e-44
7.09075e-43
6.18779e-42
2.69908e-86
2.71573e-83
1.39398e-80
4.79998e-78
1.2293e-75
2.47548e-73
4.04773e-71
5.50315e-69
6.31903e-67
6.20936e-65
5.26931e-63
3.88509e-61
2.49761e-59
1.39946e-57
6.83826e-56
2.91397e-54
1.09545e-52
3.74159e-51
1.24302e-49
4.27002e-48
1.4651e-46
3.33162e-45
3.57798e-44
2.21144e-91
2.73001e-88
1.75571e-85
7.73237e-83
2.57388e-80
6.80773e-78
1.46985e-75
2.64347e-73
4.01475e-71
5.21773e-69
5.86359e-67
5.75779e-65
4.9925e-63
3.85474e-61
2.66964e-59
1.66119e-57
9.33671e-56
4.78445e-54
2.2995e-52
1.05662e-50
4.49317e-49
1.40142e-47
1.8785e-46
5.65883e-97
1.03281e-93
9.64929e-91
6.11037e-88
2.91505e-85
1.10779e-82
3.45344e-80
9.02249e-78
2.00161e-75
3.81749e-73
6.31844e-71
9.1533e-69
1.16653e-66
1.30889e-64
1.29435e-62
1.12683e-60
8.69426e-59
6.02838e-57
3.87156e-55
2.32366e-53
1.25119e-51
5.35986e-50
9.09534e-49
2.97642e-103
9.41418e-100
1.51291e-96
1.63651e-93
1.32252e-90
8.44769e-88
4.38899e-85
1.89614e-82
6.88549e-80
2.12128e-77
5.55739e-75
1.24064e-72
2.36521e-70
3.85995e-68
5.41734e-66
6.56397e-64
6.96012e-62
6.58925e-60
5.74339e-58
4.60907e-56
3.2523e-54
1.88961e-52
4.12472e-51
1.47048e-110
8.6855e-107
2.62568e-103
5.33882e-100
8.04221e-97
9.4959e-94
9.04271e-91
7.10867e-88
4.66184e-85
2.57847e-82
1.20784e-79
4.80367e-77
1.6183e-74
4.5905e-72
1.09307e-69
2.183e-67
3.69983e-65
5.4205e-63
7.06419e-61
8.1604e-59
8.01375e-57
6.21649e-55
1.78494e-53
1.07289e-118
1.37533e-114
8.46099e-111
3.32243e-107
9.33005e-104
2.01638e-100
3.49809e-97
5.05198e-94
6.18933e-91
6.52806e-88
5.92856e-85
4.62139e-82
3.06678e-79
1.718e-76
8.06108e-74
3.13658e-71
1.01229e-68
2.72667e-66
6.25374e-64
1.21339e-61
1.89629e-59
1.90771e-57
7.48608e-56
2.61993e-126
6.39064e-122
6.81325e-118
4.32743e-114
1.87855e-110
6.05623e-107
1.52803e-103
3.14785e-100
5.47134e-97
8.27363e-94
1.11599e-90
1.36612e-87
1.5276e-84
1.54937e-81
1.40855e-78
1.12899e-75
7.89188e-73
4.77135e-70
2.52309e-67
1.16443e-64
4.34311e-62
5.28212e-60
3.09363e-58
1
0.590028
3.86139e-16
3.86139e-16
1
0.966155
0.728675
0.309996
1
0.998817
0.995081
0.964169
0.936574
0.999186
0.999186
0.999186
0.194407
0.360749
0.761215
0.995605
0.00434455
2.99877e-07
0.144047
0.754224
1.2975e-06
3.00242e-07
1.00192e-10
0.388971
4.59466e-09
2.41697e-08
1.00192e-10
0.248503
3.33363e-10
2.97664e-10
1.00192e-10
0.252777
1.00192e-10
1.00192e-10
1.00192e-10
0.2498
1.00192e-10
1.00192e-10
1.00192e-10
0.182226
1.50385e-05
1.15531e-06
1.00192e-10
0.0518312
3.17943e-05
6.24075e-05
0.000463134
0.00150858
3.16722e-06
4.82742e-05
0.000116721
4.17188e-13
5.60231e-08
3.16065e-07
2.94776e-08
4.16548e-13
9.88514e-12
6.41961e-12
1.76494e-12
9.29706e-13
1.20309e-12
1.01645e-12
6.55577e-13
4.19353e-13
1.87223e-13
1.77601e-13
1.08846e-13
6.50424e-14
1.91771e-14
1.88256e-14
1.14577e-14
6.78525e-15
1.44455e-15
1.44152e-15
8.76927e-16
5.16586e-16
8.37832e-17
8.44479e-17
5.13859e-17
3.01439e-17
3.86417e-18
3.9243e-18
2.38256e-18
1.39205e-18
1.44919e-19
1.48227e-19
8.96125e-20
5.21764e-20
4.48942e-21
4.62594e-21
2.77988e-21
1.61549e-21
1.16167e-22
1.2081e-22
7.20942e-23
4.19347e-23
2.53291e-24
2.66759e-24
1.58025e-24
9.2284e-25
4.68578e-26
5.02273e-26
2.95581e-26
1.73929e-26
7.425e-28
8.12619e-28
4.75762e-28
2.83191e-28
1.01315e-29
1.13765e-29
6.6399e-30
4.01565e-30
1.19966e-31
1.38825e-31
8.09823e-32
4.99727e-32
1.24229e-33
1.48665e-33
8.69541e-34
5.49684e-34
1.13445e-35
1.408e-35
8.28672e-36
5.38442e-36
9.19134e-38
1.18787e-37
7.06115e-38
4.73422e-38
6.65778e-40
9.00454e-40
5.42469e-40
3.77174e-40
4.34626e-42
6.18767e-42
3.78698e-42
2.75125e-42
2.58302e-44
3.89495e-44
2.42664e-44
1.85592e-44
1.41227e-46
2.26934e-46
1.44145e-46
1.1688e-46
7.19418e-49
1.23894e-48
8.02867e-49
6.9465e-49
3.45645e-51
6.41175e-51
4.23843e-51
3.93439e-51
1.58969e-53
3.19012e-53
2.14812e-53
2.14877e-53
7.08412e-56
1.54384e-55
1.05636e-55
1.14186e-55
3.10172e-58
7.34553e-58
5.09615e-58
5.94996e-58
3.86139e-16
3.27049e-10
1.79493e-11
2.00412e-13
3.07417e-14
1.22419e-15
3.59242e-17
7.87555e-19
1.40027e-20
2.06609e-22
2.91418e-24
3.30107e-26
3.47855e-28
2.94603e-30
1.99924e-32
9.12213e-35
3.15527e-37
6.71998e-40
6.46745e-43
0.00146959
3.27074e-10
2.74145e-09
2.00414e-13
2.66325e-13
1.37549e-14
4.46619e-16
1.20787e-17
2.66488e-19
5.47805e-21
9.9938e-23
1.58201e-24
2.13799e-26
2.45903e-28
2.38195e-30
1.86101e-32
1.07921e-34
3.97773e-37
6.93823e-40
0.305417
0.00865001
7.90592e-06
2.00383e-13
1.49598e-12
1.18342e-13
4.94402e-15
1.75095e-16
4.72533e-18
1.13634e-19
2.21387e-21
3.60797e-23
4.63412e-25
4.6704e-27
3.45168e-29
1.86791e-31
6.93597e-34
1.61834e-36
1.85237e-39
0.71227
0.0628625
0.000284947
5.41249e-09
6.68603e-12
8.60795e-13
5.55519e-14
2.69976e-15
9.42598e-17
2.6856e-18
6.11106e-20
1.16691e-21
1.84209e-23
2.38607e-25
2.45412e-27
1.89856e-29
1.03582e-31
3.50291e-34
5.55453e-37
0.929373
0.216581
0.00217031
9.20522e-08
1.50139e-11
3.26053e-12
3.19198e-13
1.85165e-14
7.51443e-16
2.24865e-17
5.01296e-19
8.50265e-21
1.0738e-22
1.02173e-24
7.28943e-27
3.81383e-29
1.40442e-31
3.29415e-34
5.55426e-37
0.929364
0.308924
0.00359735
2.01852e-07
2.76472e-11
8.79539e-12
1.26633e-12
1.01624e-13
5.52654e-15
2.18198e-16
6.39688e-18
1.42496e-19
2.4118e-21
3.09971e-23
2.97247e-25
2.06449e-27
9.85966e-30
2.9011e-32
4.00455e-35
0.907491
0.279134
0.00284301
1.11396e-07
4.1539e-11
1.62092e-11
2.77909e-12
2.6197e-13
1.56047e-14
6.24592e-16
1.70853e-17
3.37142e-19
4.87653e-21
5.21978e-23
4.101e-25
2.31423e-27
8.94731e-30
2.13296e-32
4.00409e-35
0.799842
0.202602
0.00137608
2.19874e-08
5.18183e-11
2.53847e-11
5.47221e-12
6.87981e-13
5.58511e-14
3.0755e-15
1.17828e-16
3.20197e-18
6.23579e-20
8.75173e-22
8.80392e-24
6.21732e-26
2.9462e-28
8.45049e-31
1.12096e-33
0.770886
0.159104
0.000670705
4.92412e-09
4.84609e-11
2.39134e-11
4.96308e-12
5.8274e-13
4.29745e-14
2.1083e-15
7.14385e-17
1.71528e-18
2.96362e-20
3.70642e-22
3.33788e-24
2.11863e-26
9.05949e-29
2.35017e-31
5.50676e-34
0.770911
0.161761
0.000658009
6.33571e-09
4.13018e-11
2.4832e-11
6.77186e-12
9.90974e-13
8.75996e-14
4.96193e-15
1.88355e-16
4.95226e-18
9.19849e-20
1.21902e-21
1.14913e-23
7.56115e-26
3.32189e-28
8.80498e-31
1.07891e-33
0.600777
0.151058
0.000668739
3.49381e-08
1.53943e-10
4.80898e-11
1.18636e-11
1.45386e-12
1.04531e-13
4.81423e-15
1.50713e-16
3.29296e-18
5.13637e-20
5.77196e-22
4.66466e-24
2.65944e-26
1.02277e-28
2.39847e-31
2.61682e-34
0.134611
0.0761936
0.00354615
1.00147e-06
7.61815e-10
2.10363e-11
7.10913e-12
9.73773e-13
7.25147e-14
3.30742e-15
9.91111e-17
2.04346e-18
2.98158e-20
3.10829e-22
2.31337e-24
1.20665e-26
4.2223e-29
8.96179e-32
8.81416e-35
0.00100183
0.00145486
0.00199664
0.00021278
1.59056e-08
9.70631e-11
1.56557e-11
1.39086e-12
6.9442e-14
2.20208e-15
4.74188e-17
7.21767e-19
7.98754e-21
6.49991e-23
3.88308e-25
1.66913e-27
4.92844e-30
9.02361e-33
7.798e-36
2.57365e-08
9.15507e-08
1.67315e-05
3.84738e-05
2.43901e-06
3.33971e-10
9.76275e-12
8.78757e-13
3.63291e-14
8.81162e-16
1.44527e-17
1.69585e-19
1.47056e-21
9.5702e-24
4.67448e-26
1.68362e-28
4.26504e-31
6.85231e-34
5.29489e-37
4.19533e-13
7.84367e-13
6.95022e-11
1.5388e-09
2.2479e-07
6.74092e-09
2.86853e-11
5.57574e-13
9.69727e-15
1.3724e-16
1.57943e-18
1.44493e-20
1.03858e-22
5.80669e-25
2.49411e-27
8.03583e-30
1.84642e-32
2.72571e-35
1.95604e-38
4.01117e-13
1.24593e-13
1.07821e-13
2.00092e-12
4.01676e-10
4.10073e-10
6.80483e-12
6.68219e-14
7.4761e-16
8.3069e-18
8.1312e-20
6.5579e-22
4.24026e-24
2.16505e-26
8.58401e-29
2.57787e-31
5.56006e-34
7.76053e-37
5.2917e-40
1.82879e-13
3.57119e-14
4.05093e-14
5.79701e-13
1.19209e-11
1.07307e-11
2.12216e-13
2.35917e-15
2.69945e-17
2.84294e-19
2.57766e-21
1.91805e-23
1.14951e-25
5.48534e-28
2.04819e-30
5.84004e-33
1.20283e-35
1.61268e-38
1.05982e-41
2.82358e-14
5.7848e-15
7.21256e-15
8.54872e-14
9.02976e-13
2.84492e-13
4.86791e-15
5.96964e-17
6.97203e-19
7.09101e-21
6.05644e-23
4.22866e-25
2.38107e-27
1.07652e-29
3.82857e-32
1.04786e-34
2.07933e-37
2.69943e-40
1.72086e-43
2.91891e-15
6.15008e-16
7.57095e-16
7.07673e-15
4.20106e-14
6.63129e-15
1.01562e-16
1.22649e-18
1.41715e-20
1.3807e-22
1.11058e-24
7.3293e-27
3.90829e-29
1.69067e-31
5.77976e-34
1.5322e-36
2.95338e-39
3.7402e-42
2.3283e-45
2.19157e-16
4.64051e-17
5.39951e-17
3.96699e-16
1.39924e-15
1.3795e-16
1.9807e-18
2.29818e-20
2.41867e-22
2.24022e-24
1.69551e-26
1.06715e-28
5.41851e-31
2.26146e-33
7.46565e-36
1.92713e-38
3.61685e-41
4.48004e-44
2.729e-47
1.25493e-17
2.62562e-18
2.83921e-18
1.64581e-17
3.60139e-17
2.59133e-18
3.53155e-20
3.95395e-22
3.7755e-24
3.19914e-26
2.18273e-28
1.31819e-30
6.40213e-33
2.60191e-35
8.33569e-38
2.10794e-40
3.86643e-43
4.70181e-46
2.80665e-49
5.66103e-19
1.16037e-19
1.15443e-19
5.32792e-19
7.52149e-19
4.4222e-20
5.69593e-22
6.17783e-24
5.35373e-26
4.22214e-28
2.63033e-30
1.49268e-32
6.75255e-35
2.68754e-37
8.35892e-40
2.08e-42
3.72722e-45
4.46019e-48
2.61016e-51
2.06337e-20
4.1388e-21
3.61235e-21
1.40067e-20
1.31034e-20
6.81108e-22
8.22899e-24
8.70169e-26
6.8871e-28
5.15193e-30
2.96474e-32
1.60693e-34
6.84048e-37
2.62368e-39
7.76494e-42
1.87291e-44
3.2454e-47
3.82642e-50
2.20015e-53
6.18849e-22
1.22571e-22
9.0183e-23
3.05647e-22
1.94702e-22
9.41724e-24
1.0638e-25
1.10651e-27
8.0734e-30
5.82978e-32
3.12999e-34
1.64365e-36
6.63316e-39
2.47126e-41
6.98442e-44
1.64337e-46
2.7621e-49
3.19115e-52
1.7991e-55
1.55041e-23
3.0776e-24
1.86492e-24
5.59505e-24
2.515e-24
1.1627e-25
1.22981e-27
1.27237e-29
8.65289e-32
6.13246e-34
3.10286e-36
1.59908e-38
6.15123e-41
2.24225e-43
6.07163e-46
1.40197e-48
2.289e-51
2.59902e-54
1.44024e-57
3.28385e-25
6.65319e-26
3.27204e-26
8.71275e-26
2.86167e-26
1.28199e-27
1.27788e-29
1.33156e-31
8.54086e-34
6.02589e-36
2.89872e-38
1.48107e-40
5.4522e-43
1.9563e-45
5.09284e-48
1.15975e-50
1.84213e-53
2.06315e-56
1.1275e-59
5.94189e-27
1.25345e-27
4.95016e-28
1.16908e-27
2.89116e-28
1.26592e-29
1.1996e-31
1.27513e-33
7.79938e-36
5.54687e-38
2.55594e-40
1.306e-42
4.61847e-45
1.64047e-47
4.1224e-50
9.29955e-53
1.44079e-55
1.59939e-58
8.65839e-62
9.2744e-29
2.07837e-29
6.54362e-30
1.36684e-29
2.61391e-30
1.12626e-31
1.02493e-33
1.1253e-35
6.63127e-38
4.8035e-40
2.13407e-42
1.09757e-44
3.74179e-47
1.32224e-49
3.22097e-52
7.22782e-55
1.09641e-57
1.21311e-60
6.54254e-64
1.25938e-30
3.05837e-31
7.63746e-32
1.40651e-31
2.13075e-32
9.09592e-34
8.0297e-36
9.20853e-38
5.27212e-40
3.92265e-42
1.68923e-44
8.79243e-47
2.90046e-49
1.02511e-51
2.43256e-54
5.4573e-57
8.14898e-60
9.04958e-63
4.89669e-66
1.50088e-32
4.02416e-33
7.94797e-34
1.28609e-33
1.57825e-34
6.7254e-36
5.8143e-38
7.03117e-40
3.93812e-42
3.02968e-44
1.27064e-46
6.7243e-49
2.1554e-51
7.66076e-54
1.7803e-56
4.01588e-59
5.94239e-62
6.67619e-65
3.65264e-68
1.58266e-34
4.76815e-35
7.43965e-36
1.05468e-35
1.07043e-36
4.59295e-38
3.92034e-40
5.03685e-42
2.77421e-44
2.21826e-46
9.09767e-49
4.91721e-51
1.53863e-53
5.53447e-56
1.26735e-58
2.89552e-61
4.27994e-64
4.90783e-67
2.73643e-70
1.49039e-36
5.12212e-37
6.32192e-38
7.83004e-38
6.69944e-39
2.92236e-40
2.47869e-42
3.4023e-44
1.85018e-46
1.54418e-48
6.21822e-51
3.4486e-53
1.05907e-55
3.8832e-58
8.82433e-61
2.05936e-63
3.06743e-66
3.62092e-69
2.07084e-72
1.26553e-38
5.01809e-39
4.92306e-40
5.31394e-40
3.89851e-41
1.74681e-42
1.47903e-44
2.17745e-46
1.17264e-48
1.02555e-50
4.07122e-53
2.32927e-55
7.0636e-58
2.66241e-60
6.05171e-63
1.45646e-65
2.20481e-68
2.69837e-71
1.58874e-74
9.78886e-41
4.51188e-41
3.54931e-42
3.33141e-42
2.12517e-43
9.88449e-45
8.37843e-47
1.32667e-48
7.09392e-51
6.52752e-53
2.56587e-55
1.52414e-57
4.59639e-60
1.79798e-62
4.12257e-65
1.03287e-67
1.60003e-70
2.0386e-73
1.23571e-76
6.95864e-43
3.74963e-43
2.39395e-44
1.95183e-44
1.09338e-45
5.33362e-47
4.53245e-49
7.73745e-51
4.11801e-53
4.00605e-55
1.5668e-57
9.7383e-60
2.94325e-62
1.20723e-64
2.81448e-67
7.39888e-70
1.17726e-72
1.56214e-75
9.71564e-79
4.58583e-45
2.90667e-45
1.52714e-46
1.08251e-46
5.35116e-48
2.76406e-49
2.3559e-51
4.34735e-53
2.30902e-55
2.38909e-57
9.34707e-60
6.13544e-62
1.87344e-64
8.13845e-67
1.94101e-69
5.37958e-72
8.79077e-75
1.2111e-77
7.68575e-81
2.82762e-47
2.11704e-47
9.3105e-49
5.76493e-49
2.51277e-50
1.38668e-51
1.1851e-53
2.37253e-55
1.26125e-57
1.39854e-59
5.50468e-62
3.85578e-64
1.1981e-66
5.55732e-69
1.35969e-71
3.97585e-74
6.64839e-77
9.45919e-80
6.08641e-83
1.64828e-49
1.4606e-49
5.48123e-51
2.99576e-51
1.14348e-52
6.79792e-54
5.81938e-56
1.27049e-57
6.78146e-60
8.13232e-62
3.23796e-64
2.44532e-66
7.77111e-69
3.86626e-71
9.69375e-74
2.98154e-76
5.07291e-79
7.40805e-82
4.80446e-85
9.17154e-52
9.62153e-52
3.14526e-53
1.54514e-53
5.10299e-55
3.29574e-56
2.81992e-58
6.76214e-60
3.63469e-62
4.7611e-64
1.92577e-66
1.58117e-68
5.14641e-71
2.74631e-73
7.02488e-76
2.26034e-78
3.8883e-81
5.7941e-84
3.76891e-87
4.92552e-54
6.10492e-54
1.77536e-55
8.04515e-56
2.26568e-57
1.60382e-58
1.36617e-60
3.63029e-62
1.96862e-64
2.84282e-66
1.17018e-68
1.04913e-70
3.4884e-73
1.98852e-75
5.15651e-78
1.72478e-80
2.98232e-83
4.51271e-86
2.93306e-89
2.57738e-56
3.76261e-56
9.93252e-58
4.29016e-58
1.01764e-59
7.9707e-61
6.71782e-63
1.99671e-64
1.09202e-66
1.74941e-68
7.31624e-71
7.15809e-73
2.41752e-75
1.46239e-77
3.81864e-80
1.31991e-82
2.28312e-85
3.49489e-88
2.26357e-91
1.32384e-58
2.26125e-58
5.51922e-60
2.35453e-60
4.68639e-62
4.09501e-63
3.38721e-65
1.13374e-66
6.23316e-69
1.10862e-70
4.68743e-73
4.97677e-75
1.69487e-77
1.07963e-79
2.82188e-82
1.00272e-84
1.72889e-87
2.66968e-90
1.71985e-93
)
;

boundaryField
{
    leftWall
    {
        type            zeroGradient;
    }
    rightWall
    {
        type            zeroGradient;
    }
    lowerWall
    {
        type            zeroGradient;
    }
    atmosphere
    {
        type            inletOutlet;
        inletValue      uniform 0;
        value           nonuniform List<scalar> 
46
(
0
0
0
0
0
0
0
0
0
0
0
0
0
0
0
0
0
0
0
0
4.34311e-62
5.28212e-60
3.09363e-58
3.10172e-58
7.34553e-58
5.09615e-58
5.94996e-58
1.32384e-58
2.26125e-58
5.51922e-60
2.35453e-60
4.68639e-62
4.09501e-63
3.38721e-65
1.13374e-66
6.23316e-69
1.10862e-70
4.68743e-73
4.97677e-75
1.69487e-77
1.07963e-79
2.82188e-82
1.00272e-84
1.72889e-87
2.66968e-90
1.71985e-93
)
;
    }
    defaultFaces
    {
        type            empty;
    }
}


// ************************************************************************* //
