/*--------------------------------*- C++ -*----------------------------------*\
| =========                 |                                                 |
| \\      /  F ield         | OpenFOAM: The Open Source CFD Toolbox           |
|  \\    /   O peration     | Version:  2012                                  |
|   \\  /    A nd           | Website:  www.openfoam.com                      |
|    \\/     M anipulation  |                                                 |
\*---------------------------------------------------------------------------*/
FoamFile
{
    version     2.0;
    format      ascii;
    class       volScalarField;
    location    "1.6";
    object      rho1;
}
// * * * * * * * * * * * * * * * * * * * * * * * * * * * * * * * * * * * * * //

dimensions      [1 -3 0 0 0 0 0];


internalField   nonuniform List<scalar> 
160
(
1035.02128
1035.022136
1035.025731
1035.029038
1035.040432
1035.046548
1035.063497
1035.071956
1035.092929
1035.103037
1035.127166
1035.136876
1035.160921
1035.171748
1035.192506
1035.20072
1035.217593
1035.22348
1035.238107
1035.244579
1035.231686
1035.237661
1035.221338
1035.223812
1035.20118
1035.196961
1035.167839
1035.159317
1035.120631
1035.106653
1035.057047
1035.036222
1034.983829
1034.955853
1034.896851
1034.864082
1034.804227
1034.768099
1034.709342
1034.673744
1034.614659
1034.58191
1034.522608
1034.488686
1034.427947
1034.393079
1034.33009
1034.294188
1034.230583
1034.193747
1034.131466
1034.095175
1034.035332
1034.000852
1033.942511
1033.908289
1033.857751
1033.81796
1033.775508
1033.720255
1033.691957
1033.640973
1033.613124
1033.563895
1033.538967
1033.494549
1033.473097
1033.43531
1033.418327
1033.387073
1033.374806
1033.348511
1033.339258
1033.317781
1033.310755
1033.293105
1033.287887
1033.273527
1033.269814
1033.258353
1033.255928
1033.246942
1033.245531
1033.238548
1033.237941
1033.233377
1033.232453
1033.233606
1033.232777
1033.233632
1033.233577
1033.236584
1033.23662
1033.238258
1033.238853
1033.240942
1033.241839
1033.244838
1033.24595
1033.249285
1033.2505
1033.253882
1033.2554
1033.258507
1033.259996
1033.263017
1033.264429
1033.267269
1033.268566
1033.271154
1033.272312
1033.274617
1033.275632
1033.277663
1033.278549
1033.280332
1033.28111
1033.282683
1033.283375
1033.284775
1033.285399
1033.286657
1033.287228
1033.288366
1033.288893
1033.289918
1033.290404
1033.291324
1033.291776
1033.292611
1033.293037
1033.293798
1033.2942
1033.294924
1033.295223
1033.295792
1033.296129
1033.296631
1033.296916
1033.297382
1033.297785
1033.298163
1033.298378
1033.298683
1033.29898
1033.29924
1033.299479
1033.299683
1033.299877
1033.300042
1033.300203
1033.30033
1033.300445
1033.30052
1033.300601
1033.300645
1033.300698
1033.300724
1033.300764
1033.300807
)
;

boundaryField
{
    sides
    {
        type            calculated;
        value           nonuniform List<scalar> 2(1033.300807 1035.02128);
    }
    empty1
    {
        type            empty;
    }
    empty2
    {
        type            empty;
    }
}


// ************************************************************************* //
