/*--------------------------------*- C++ -*----------------------------------*\
| =========                 |                                                 |
| \\      /  F ield         | OpenFOAM: The Open Source CFD Toolbox           |
|  \\    /   O peration     | Version:  2012                                  |
|   \\  /    A nd           | Website:  www.openfoam.com                      |
|    \\/     M anipulation  |                                                 |
\*---------------------------------------------------------------------------*/
FoamFile
{
    version     2.0;
    format      ascii;
    class       volScalarField;
    location    "1.6";
    object      rho2;
}
// * * * * * * * * * * * * * * * * * * * * * * * * * * * * * * * * * * * * * //

dimensions      [1 -3 0 0 0 0 0];


internalField   nonuniform List<scalar> 
160
(
48.83467742
48.85537711
48.94222726
49.02213212
49.29739566
49.44515945
49.85465947
50.05902272
50.56573624
50.80996801
51.39293008
51.6275078
52.20844452
52.47002864
52.97155913
53.17001317
53.57766105
53.71988459
54.07328345
54.22965729
53.91815927
54.06250397
53.66813606
53.72791626
53.1811234
53.07920081
52.37559083
52.16969351
51.23502424
50.89733288
49.69883827
49.19569443
47.92986047
47.25395221
45.82844443
45.03675065
43.5906323
42.71776733
41.29818855
40.43811057
39.01060886
38.21937726
36.78662214
35.96707018
34.49959629
33.65717288
32.13535354
31.267933
29.73123336
28.841251
27.33653598
26.45972257
25.01389811
24.18086211
22.7713169
21.94451855
20.72351021
19.76213228
18.73649312
17.40155775
16.71788175
15.48608754
14.81325378
13.62386294
13.02158286
11.9484477
11.43014757
10.51720308
10.10689406
9.351800068
9.055414323
8.42011696
8.196568282
7.677680539
7.507925166
7.081501213
6.955418248
6.60849243
6.518773268
6.241892289
6.183297981
5.966176552
5.932090796
5.763391603
5.748716071
5.638462112
5.616127068
5.643992187
5.623967725
5.644614424
5.643276037
5.71592828
5.716811586
5.756391568
5.770754085
5.821235528
5.842902907
5.915362594
5.942221184
6.022794152
6.052139718
6.133860648
6.170544084
6.245610983
6.281571642
6.354566198
6.388687722
6.457305304
6.488638737
6.551162061
6.579122231
6.634829069
6.659353434
6.708410365
6.72982278
6.772896463
6.791690959
6.829709612
6.846418075
6.880241749
6.895321067
6.925704672
6.939517729
6.966993829
6.979742912
7.004491491
7.016243082
7.038469642
7.049382827
7.069574473
7.079847429
7.098242761
7.107960026
7.125453841
7.132674282
7.146422223
7.154556297
7.166677772
7.173583497
7.18483858
7.194576862
7.203696601
7.208889675
7.216267579
7.223450749
7.229733164
7.235506913
7.240417952
7.245122725
7.24909364
7.252978746
7.256048483
7.258824919
7.260650642
7.2625991
7.263661454
7.264944043
7.265579849
7.266546954
7.267576179
)
;

boundaryField
{
    sides
    {
        type            calculated;
        value           nonuniform List<scalar> 2(7.267576179 48.83467742);
    }
    empty1
    {
        type            empty;
    }
    empty2
    {
        type            empty;
    }
}


// ************************************************************************* //
