/*--------------------------------*- C++ -*----------------------------------*\
| =========                 |                                                 |
| \\      /  F ield         | OpenFOAM: The Open Source CFD Toolbox           |
|  \\    /   O peration     | Version:  2012                                  |
|   \\  /    A nd           | Website:  www.openfoam.com                      |
|    \\/     M anipulation  |                                                 |
\*---------------------------------------------------------------------------*/
FoamFile
{
    version     2.0;
    format      ascii;
    class       volScalarField;
    location    "1.6";
    object      T;
}
// * * * * * * * * * * * * * * * * * * * * * * * * * * * * * * * * * * * * * //

dimensions      [0 0 0 1 0 0 0];


internalField   nonuniform List<scalar> 
160
(
455.847312
455.7859777
454.7803181
454.5035343
451.0561844
450.6435035
445.4967307
445.0238691
438.4719675
438.0004363
430.6065922
430.1728758
422.4353265
422.045843
414.6503721
414.3184735
407.4996852
407.2178134
401.1968816
400.9645504
395.9140345
395.7277524
391.5488076
391.3991333
387.9408902
387.8202388
384.9881493
384.892939
382.5620392
382.4822201
380.4018067
380.3273359
380.2048614
380.1463357
380.0884691
380.0457238
380.0151719
379.9941912
379.9679589
379.9523124
379.7909174
379.7841353
379.6848123
379.6770657
379.6605252
379.5857727
379.5744696
379.5049441
379.5047796
379.4698637
379.4685038
379.4224757
379.422074
379.3087883
379.3042667
379.2925016
379.2731004
379.2041609
379.1812181
378.1952595
378.1335361
378.0673476
376.0373615
375.9287975
375.8314272
375.7395323
375.6485912
375.5529026
374.8045458
372.9777443
372.8798481
370.1761227
370.0844462
367.429784
367.3333213
364.4584744
364.3490508
361.0963983
360.9699545
357.2724915
357.1266009
352.9647217
352.7979101
348.0400156
347.8394138
342.5146127
342.2970745
336.6104356
336.36779
330.3353999
330.0607483
323.5967129
323.2873597
316.6269294
316.2918987
309.5953469
309.2309116
302.5642863
302.1770315
295.6272539
295.2129747
288.99759
288.5798407
282.82521
282.405316
277.1716682
276.7645574
272.1293038
271.7454506
267.7340311
267.3812916
263.9645299
263.6458749
260.7558984
260.4704934
258.0279151
257.7728831
255.6953516
255.4669763
253.6878734
253.4827809
251.946966
251.7621885
250.4297971
250.263987
249.115527
248.9690685
247.9853684
247.8562596
247.0066287
246.8919452
246.1610094
246.0618266
245.4448254
245.3599202
244.876113
244.8024601
244.4095787
244.3503446
243.9941737
243.9415839
243.6521185
243.6115929
243.3836625
243.3487984
243.1697279
243.1440458
243.0157336
242.9973372
242.9003372
242.8851191
242.8136514
242.8040692
242.7889884
242.7754458
242.7736366
242.7703876
242.7705967
242.7706776
242.7702827
)
;

boundaryField
{
    sides
    {
        type            zeroGradient;
    }
    empty1
    {
        type            empty;
    }
    empty2
    {
        type            empty;
    }
}


// ************************************************************************* //
