/*--------------------------------*- C++ -*----------------------------------*\
| =========                 |                                                 |
| \\      /  F ield         | OpenFOAM: The Open Source CFD Toolbox           |
|  \\    /   O peration     | Version:  2012                                  |
|   \\  /    A nd           | Website:  www.openfoam.com                      |
|    \\/     M anipulation  |                                                 |
\*---------------------------------------------------------------------------*/
FoamFile
{
    version     2.0;
    format      ascii;
    class       volVectorField;
    location    "1.6";
    object      U;
}
// * * * * * * * * * * * * * * * * * * * * * * * * * * * * * * * * * * * * * //

dimensions      [0 1 -1 0 0 0 0];


internalField   nonuniform List<vector> 
160
(
(-0.2011436959 0 0)
(0.5417959692 0 0)
(0.02390459661 0 0)
(1.127357688 0 0)
(0.6103406206 0 0)
(1.542564416 0 0)
(1.095918932 0 0)
(1.794786972 0 0)
(1.519193242 0 0)
(1.867338252 0 0)
(1.826154562 0 0)
(1.89767489 0 0)
(1.935134464 0 0)
(1.797698673 0 0)
(1.922721872 0 0)
(1.706406074 0 0)
(1.823096857 0 0)
(1.641792084 0 0)
(1.7527381 0 0)
(1.752105451 0 0)
(1.875301622 0 0)
(1.691894307 0 0)
(1.83762594 0 0)
(1.720355528 0 0)
(1.927537952 0 0)
(1.77273238 0 0)
(1.999014522 0 0)
(1.749470214 0 0)
(2.03682789 0 0)
(1.758591328 0 0)
(2.085341959 0 0)
(1.758152916 0 0)
(2.083114078 0 0)
(1.852655949 0 0)
(2.122550032 0 0)
(1.932169653 0 0)
(2.179406741 0 0)
(1.984520883 0 0)
(2.215748003 0 0)
(2.051539411 0 0)
(2.208052422 0 0)
(2.100819459 0 0)
(2.211169013 0 0)
(2.144300516 0 0)
(2.252709094 0 0)
(2.19540633 0 0)
(2.311348494 0 0)
(2.240804173 0 0)
(2.363292609 0 0)
(2.266744887 0 0)
(2.41280113 0 0)
(2.288561599 0 0)
(2.459560564 0 0)
(2.32871524 0 0)
(2.502897596 0 0)
(2.342012243 0 0)
(2.585222966 0 0)
(2.361075252 0 0)
(2.768696535 0 0)
(2.389135847 0 0)
(2.795846752 0 0)
(2.437225655 0 0)
(2.851346136 0 0)
(2.415185251 0 0)
(2.85688999 0 0)
(2.420790566 0 0)
(2.875358857 0 0)
(2.455830089 0 0)
(2.931063381 0 0)
(2.537132323 0 0)
(2.965914358 0 0)
(2.684451 0 0)
(3.012294535 0 0)
(2.817713351 0 0)
(3.096003184 0 0)
(2.957812123 0 0)
(3.203855832 0 0)
(3.100763794 0 0)
(3.319886584 0 0)
(3.236661751 0 0)
(3.429023101 0 0)
(3.343679341 0 0)
(3.511396037 0 0)
(3.419957422 0 0)
(3.551497152 0 0)
(3.697387474 0 0)
(3.607683936 0 0)
(3.68747566 0 0)
(3.556804921 0 0)
(3.62189172 0 0)
(3.883973336 0 0)
(3.404799104 0 0)
(3.412320436 0 0)
(3.296049604 0 0)
(3.339543144 0 0)
(3.264332157 0 0)
(3.305338966 0 0)
(3.368636586 0 0)
(3.294336317 0 0)
(3.400475775 0 0)
(3.28159887 0 0)
(3.243762941 0 0)
(3.145941563 0 0)
(3.282677124 0 0)
(3.093116793 0 0)
(3.306989363 0 0)
(3.061852962 0 0)
(3.327385921 0 0)
(3.056041368 0 0)
(3.345266028 0 0)
(3.078435744 0 0)
(3.367021387 0 0)
(3.126153208 0 0)
(3.396810902 0 0)
(3.190844761 0 0)
(3.433259353 0 0)
(3.262361121 0 0)
(3.471041927 0 0)
(3.327942591 0 0)
(3.50145102 0 0)
(3.37686033 0 0)
(3.516015823 0 0)
(3.399598322 0 0)
(3.506271342 0 0)
(3.388280269 0 0)
(3.464148756 0 0)
(3.341630795 0 0)
(3.388065504 0 0)
(3.261673413 0 0)
(3.283118372 0 0)
(3.145019915 0 0)
(3.150143551 0 0)
(2.985714649 0 0)
(3.017731871 0 0)
(2.72186705 0 0)
(2.783348615 0 0)
(2.577054495 0 0)
(2.57667462 0 0)
(2.353509408 0 0)
(2.340928898 0 0)
(2.060925136 0 0)
(2.1627583 0 0)
(1.857505796 0 0)
(1.863691442 0 0)
(1.613919147 0 0)
(1.635832271 0 0)
(1.383662246 0 0)
(1.407474015 0 0)
(1.155829005 0 0)
(1.182436956 0 0)
(0.9292500196 0 0)
(0.9622211048 0 0)
(0.6960908441 0 0)
(0.7237383456 0 0)
(0.5037890291 0 0)
(0.5033423399 0 0)
(0.3047699332 0 0)
(0.2910617818 0 0)
(0.1082718875 0 0)
(0.1464788921 0 0)
)
;

boundaryField
{
    sides
    {
        type            fixedValue;
        value           uniform (0 0 0);
    }
    empty1
    {
        type            empty;
    }
    empty2
    {
        type            empty;
    }
}


// ************************************************************************* //
