/*--------------------------------*- C++ -*----------------------------------*\
| =========                 |                                                 |
| \\      /  F ield         | OpenFOAM: The Open Source CFD Toolbox           |
|  \\    /   O peration     | Version:  2012                                  |
|   \\  /    A nd           | Website:  www.openfoam.com                      |
|    \\/     M anipulation  |                                                 |
\*---------------------------------------------------------------------------*/
FoamFile
{
    version     2.0;
    format      ascii;
    class       volScalarField;
    location    "1.6";
    object      volumeFraction1;
}
// * * * * * * * * * * * * * * * * * * * * * * * * * * * * * * * * * * * * * //

dimensions      [0 0 0 0 0 0 0];


internalField   nonuniform List<scalar> 
160
(
0.0017410312
0.001910668377
0.002365242324
0.003278985156
0.00468716665
0.006832656435
0.009514724914
0.01331769859
0.01767460567
0.02340230148
0.02883936197
0.03740362423
0.0448041556
0.05341317778
0.06292957326
0.07288977765
0.08193613244
0.09187118889
0.1045003075
0.1115442842
0.1302957521
0.135865849
0.1549900913
0.1633697588
0.1788181264
0.1963485993
0.2096412582
0.2268598017
0.2403579893
0.2558404328
0.2688929601
0.2814571788
0.2911191915
0.3014892943
0.3100991748
0.3185230209
0.3245462946
0.3308168837
0.3348459839
0.3393289945
0.3404380724
0.3434487127
0.3446032495
0.3442854031
0.3445245613
0.3454242251
0.3439567026
0.3445116923
0.3417951197
0.3415231037
0.3380246882
0.3363192151
0.3327461763
0.3299087688
0.324739864
0.3196192656
0.3134068935
0.3069634213
0.2974194777
0.287659732
0.2781352833
0.2658441334
0.2538501055
0.2405100588
0.2275635709
0.2115804141
0.1965462
0.1812658062
0.1671002264
0.1534151606
0.1415195319
0.1289140274
0.1182990018
0.1073630421
0.09809472335
0.08855564714
0.08051197864
0.07228523476
0.06534849326
0.05825257628
0.05238993255
0.04635644616
0.04144411315
0.03654722127
0.03271463056
0.02865092154
0.02522731987
0.02249645119
0.01892967097
0.01739809453
0.01448347859
0.01329571871
0.01133688796
0.01013029722
0.008710532759
0.007842252784
0.007054096084
0.006062471838
0.005664263773
0.004816565903
0.00453670169
0.004026016083
0.003642683255
0.003289046299
0.003021322221
0.002712466917
0.002518784743
0.002262182618
0.002102037129
0.001900789419
0.001768773319
0.001601696348
0.001495208172
0.001358930952
0.001265664966
0.00115358858
0.001079395982
0.0009855157439
0.0009191081602
0.0008437018375
0.0007862826422
0.000722951255
0.0006753296678
0.0006216291623
0.0005787182007
0.0005362891905
0.0004988348973
0.0004608820792
0.0004279253959
0.0003983515037
0.0003693273216
0.0003421561095
0.0003182753774
0.0002955344456
0.0002745367352
0.0002540769863
0.0002370023849
0.000218866543
0.0002046243678
0.0001891151009
0.0001772516645
0.0001640988309
0.0001538648248
0.0001432812572
0.0001345313145
0.0001258482033
0.0001186143963
0.0001115625536
0.0001056797827
0.0001000707941
9.531367695e-05
9.106357905e-05
8.717548216e-05
8.407042448e-05
8.128295075e-05
7.885584724e-05
7.70483627e-05
7.555632283e-05
7.491553773e-05
7.426413796e-05
)
;

boundaryField
{
    sides
    {
        type            zeroGradient;
    }
    empty1
    {
        type            empty;
    }
    empty2
    {
        type            empty;
    }
}


// ************************************************************************* //
