/*--------------------------------*- C++ -*----------------------------------*\
| =========                 |                                                 |
| \\      /  F ield         | OpenFOAM: The Open Source CFD Toolbox           |
|  \\    /   O peration     | Version:  2012                                  |
|   \\  /    A nd           | Website:  www.openfoam.com                      |
|    \\/     M anipulation  |                                                 |
\*---------------------------------------------------------------------------*/
FoamFile
{
    version     2.0;
    format      ascii;
    class       volScalarField;
    location    "0.11";
    object      maxKappa;
}
// * * * * * * * * * * * * * * * * * * * * * * * * * * * * * * * * * * * * * //

dimensions      [0 0 0 0 0 0 0];


internalField   nonuniform List<scalar> 
2268
(
4.00307e-06
7.81537e-06
1.17636e-05
1.5816e-05
2.0018e-05
2.43983e-05
2.89899e-05
3.38723e-05
3.90337e-05
4.46134e-05
5.06252e-05
5.69651e-05
6.37643e-05
7.14559e-05
8.03437e-05
9.0325e-05
9.88568e-05
0.000103111
0.00010407
0.000161563
0.000957828
0.0021487
0.0021487
4.88243e-06
8.25357e-06
1.20513e-05
1.60282e-05
2.01853e-05
2.4535e-05
2.91045e-05
3.39713e-05
3.91202e-05
4.46858e-05
5.06934e-05
5.70592e-05
6.39273e-05
7.17103e-05
8.06262e-05
8.98568e-05
9.72248e-05
0.000101455
0.000141332
0.000645435
0.00178521
0.00256126
0.00256126
6.16141e-06
9.05128e-06
1.26019e-05
1.64411e-05
2.0513e-05
2.48032e-05
2.93285e-05
3.41629e-05
3.92874e-05
4.4826e-05
5.08182e-05
5.72122e-05
6.41675e-05
7.20976e-05
8.11061e-05
8.95238e-05
9.5629e-05
0.000118626
0.000386233
0.00148347
0.00236554
0.00286004
0.00286004
7.6306e-06
1.01109e-05
1.3378e-05
1.70383e-05
2.09933e-05
2.51999e-05
2.96623e-05
3.44494e-05
3.95397e-05
4.50423e-05
5.10059e-05
5.74277e-05
6.44848e-05
7.25669e-05
8.14659e-05
8.90587e-05
9.81872e-05
0.000205157
0.00115739
0.00223647
0.00245314
0.00288982
0.00288982
9.19751e-06
1.13473e-05
1.43332e-05
1.77926e-05
2.16072e-05
2.57089e-05
3.00902e-05
3.48121e-05
3.98548e-05
4.53104e-05
5.12271e-05
5.76601e-05
6.48094e-05
7.30212e-05
8.16173e-05
8.84291e-05
0.000142473
0.000798131
0.00199353
0.00251613
0.00251613
0.00277
0.00277
1.08166e-05
1.27025e-05
1.54283e-05
1.86817e-05
2.23426e-05
2.6325e-05
3.06134e-05
3.52577e-05
4.02423e-05
4.56465e-05
5.15088e-05
5.79438e-05
6.51847e-05
7.34702e-05
8.15737e-05
0.00010251
0.000352319
0.00159757
0.00244148
0.00244148
0.00238633
0.00273934
0.00273934
1.24581e-05
1.41317e-05
1.66243e-05
1.9675e-05
2.31747e-05
2.7025e-05
3.12072e-05
3.57596e-05
4.0669e-05
4.60111e-05
5.18125e-05
5.82248e-05
6.55244e-05
7.37637e-05
8.12337e-05
0.000149136
0.00098775
0.00216544
0.00242693
0.00242693
0.00198554
0.00288063
0.00288063
1.4105e-05
1.56067e-05
1.78942e-05
2.07536e-05
2.4093e-05
2.78066e-05
3.18793e-05
3.6336e-05
4.11669e-05
4.64504e-05
5.22046e-05
5.85978e-05
6.595e-05
7.39569e-05
8.36967e-05
0.000221284
0.0015663
0.00234645
0.00234645
0.00205928
0.00188132
0.00311239
0.00311239
6.19152e-05
6.19152e-05
9.17861e-05
0.000138474
0.000164111
0.000177237
0.000181005
0.000181005
0.000176208
0.000168176
0.00015454
0.00014054
0.000123568
0.00010707
8.91216e-05
7.17203e-05
5.36669e-05
3.603e-05
1.83067e-05
7.0414e-05
7.0414e-05
9.51659e-05
0.00014311
0.000167572
0.00018028
0.000183334
0.000183334
0.000177905
0.000169471
0.000155552
0.000141377
0.000124321
0.000107802
8.99005e-05
7.2629e-05
5.48165e-05
3.77851e-05
2.16185e-05
0.000105049
0.000105049
0.000110594
0.000151489
0.000171561
0.000182183
0.0001847
0.0001847
0.000178556
0.000170072
0.000156056
0.000142003
0.000125055
0.000108721
9.10443e-05
7.41197e-05
5.68175e-05
4.08263e-05
2.65817e-05
0.000134678
0.000134678
0.000120924
0.000166304
0.000182716
0.000191143
0.00019151
0.00019151
0.000183665
0.000173919
0.000159081
0.000144498
0.000127306
0.000110897
9.33376e-05
7.67392e-05
6.0025e-05
4.51922e-05
3.27103e-05
0.000192164
0.000192164
0.000164322
0.000182011
0.000190757
0.00019448
0.00019448
0.000193922
0.000184725
0.000175014
0.000160033
0.000145686
0.000128705
0.000112641
9.55e-05
7.95e-05
6.35973e-05
5.00114e-05
3.90649e-05
0.000257813
0.000257813
0.000192989
0.000209049
0.000210856
0.000210856
0.000209966
0.000205443
0.000193263
0.000181337
0.000165056
0.000149815
0.00013243
0.000116203
9.91947e-05
8.35825e-05
6.83651e-05
5.5828e-05
4.60991e-05
0.000302216
0.000302216
0.000276175
0.000231978
0.000231978
0.000222871
0.000214108
0.000208412
0.000194472
0.000182746
0.000166342
0.000151435
0.000134363
0.000118612
0.000102166
8.72835e-05
7.29699e-05
6.1525e-05
5.28856e-05
0.000392203
0.000392203
0.00035207
0.000289072
0.000274679
0.000253732
0.000236637
0.000224282
0.000206232
0.000191367
0.000173297
0.000157157
0.000139524
0.000123484
0.000107119
9.25617e-05
7.8852e-05
6.81801e-05
6.03337e-05
1.80801e-05
1.88871e-05
2.04798e-05
2.26702e-05
2.57008e-05
2.92054e-05
3.31048e-05
3.74126e-05
4.21089e-05
4.7286e-05
5.29543e-05
5.92727e-05
6.6559e-05
7.39219e-05
0.000132206
0.000861197
0.00197118
0.0020755
0.00199122
0.00167023
0.00216703
0.00322857
0.00354488
2.15141e-05
2.21825e-05
2.35581e-05
2.54625e-05
2.80202e-05
3.12381e-05
3.48785e-05
3.89627e-05
4.34329e-05
4.84167e-05
5.39044e-05
6.00801e-05
6.69841e-05
8.35309e-05
0.00030076
0.00159053
0.00201451
0.0020755
0.00160855
0.0015056
0.00210758
0.00279516
0.00354488
2.4774e-05
2.5345e-05
2.65558e-05
2.82401e-05
3.04181e-05
3.33716e-05
3.67574e-05
4.06122e-05
4.4842e-05
4.96065e-05
5.48623e-05
6.08375e-05
6.70378e-05
0.00013525
0.000975463
0.00184414
0.00201451
0.00158836
0.00115655
0.00155281
0.00191008
0.00231916
0.00290354
2.78382e-05
2.83376e-05
2.94164e-05
3.09284e-05
3.28861e-05
3.55368e-05
3.86891e-05
4.23096e-05
4.63091e-05
5.08186e-05
5.58306e-05
6.14654e-05
6.76532e-05
0.000184646
0.00143367
0.00183026
0.00165969
0.00106333
0.0012321
0.00148449
0.00169557
0.00184818
0.00229913
3.06818e-05
3.11267e-05
3.20974e-05
3.34702e-05
3.52464e-05
3.76401e-05
4.05759e-05
4.39553e-05
4.77288e-05
5.19497e-05
5.67161e-05
6.18793e-05
0.00010271
0.000660727
0.00162328
0.00183026
0.00135289
0.000964572
0.00126773
0.00138478
0.00154078
0.00153118
0.00178762
3.32934e-05
3.36953e-05
3.45756e-05
3.58314e-05
3.74577e-05
3.96524e-05
4.23897e-05
4.55444e-05
4.90979e-05
5.30433e-05
5.75604e-05
6.22213e-05
0.000133748
0.000997851
0.00166931
0.00164927
0.000994927
0.00111593
0.0012151
0.00127384
0.00138635
0.00131685
0.00143236
3.56545e-05
3.60225e-05
3.68246e-05
3.79824e-05
3.94832e-05
4.15194e-05
4.40643e-05
4.70121e-05
5.03345e-05
5.40321e-05
5.82391e-05
6.24525e-05
0.000159845
0.00125706
0.00166931
0.00131801
0.000788039
0.00114576
0.00117312
0.00120066
0.00125057
0.00116694
0.00120832
3.77615e-05
3.81037e-05
3.88342e-05
3.99127e-05
4.13004e-05
4.32203e-05
4.55882e-05
4.83568e-05
5.14542e-05
5.49431e-05
5.883e-05
7.85658e-05
0.000380034
0.00140817
0.001659
0.00112728
0.000932097
0.00113659
0.00112053
0.00111973
0.00113705
0.00106327
0.00105978
3.96012e-05
3.99255e-05
4.05875e-05
4.16087e-05
4.28868e-05
4.47257e-05
4.69259e-05
4.95265e-05
5.24094e-05
5.57234e-05
5.93202e-05
9.80522e-05
0.000629625
0.00147094
0.00160171
0.000931681
0.00112678
0.00107915
0.00108263
0.00103606
0.00104696
0.000976816
0.000956497
4.11767e-05
4.14913e-05
4.20868e-05
4.30713e-05
4.42497e-05
4.60267e-05
4.80905e-05
5.05472e-05
5.32538e-05
5.64114e-05
5.97369e-05
0.000118126
0.000844768
0.00154235
0.00146178
0.000786527
0.00116362
0.00105657
0.00105654
0.000977599
0.000978477
0.000905807
0.00088154
4.24809e-05
4.27914e-05
4.33241e-05
4.42878e-05
4.54456e-05
4.7102e-05
4.90379e-05
5.13362e-05
5.38748e-05
5.6842e-05
5.99451e-05
0.000139705
0.00107151
0.0015679
0.00119487
0.000915059
0.00116362
0.00100546
0.00101505
0.000926852
0.000919179
0.000854599
0.000820431
4.35216e-05
4.38306e-05
4.43107e-05
4.52533e-05
4.63941e-05
4.79545e-05
4.98046e-05
5.19648e-05
5.43922e-05
5.71593e-05
6.00788e-05
0.000156277
0.00122408
0.0015679
0.000972914
0.000944469
0.00106029
0.000923152
0.000947842
0.000869901
0.000864786
0.000802187
0.000771483
4.4317e-05
4.462e-05
4.50527e-05
4.59747e-05
4.71135e-05
4.85623e-05
5.03102e-05
5.23151e-05
5.46308e-05
5.85001e-05
6.23648e-05
0.000166056
0.00130444
0.00153854
0.000783028
0.000990687
0.000921902
0.000894816
0.00087916
0.000834886
0.000814241
0.000768677
0.000728255
5.24425e-05
5.34862e-05
5.49147e-05
5.84801e-05
6.1861e-05
6.91014e-05
7.52635e-05
8.84813e-05
9.93753e-05
0.000127768
0.000156565
0.000308454
0.00133324
0.00148937
0.000697732
0.000990687
0.000880416
0.000900817
0.000846855
0.000818778
0.000778492
0.000736574
0.000695791
0.000190293
0.00020208
0.000218889
0.000266458
0.000318198
0.00038473
0.00043838
0.000551537
0.000634721
0.000821744
0.00096254
0.001137
0.00140637
0.00139291
0.000731951
0.00103658
0.000857284
0.000903641
0.000838379
0.000805945
0.000759539
0.000713987
0.000674138
0.000783886
0.000796912
0.000813145
0.000849402
0.000879891
0.000943971
0.00102715
0.00113309
0.00124221
0.00138069
0.00138069
0.00135572
0.00140637
0.00137053
0.000718616
0.00113263
0.000954033
0.000908007
0.000841071
0.000791455
0.000741079
0.000692693
0.000649098
0.000889631
0.000896093
0.000908348
0.000923543
0.00094498
0.000971031
0.00100619
0.00105121
0.00111954
0.00121846
0.00131788
0.0013547
0.00131848
0.00112136
0.000868226
0.00120995
0.00105587
0.000924203
0.000856699
0.000784042
0.000727564
0.000674913
0.000629124
0.000891131
0.000897967
0.00090942
0.000927689
0.000951704
0.000987392
0.00103378
0.00110878
0.00120972
0.00129181
0.00142931
0.00139042
0.0011739
0.000885657
0.00117751
0.00129657
0.00114682
0.000980355
0.000863884
0.000779661
0.000710458
0.000653528
0.000605024
0.00087724
0.000881665
0.000892445
0.000905633
0.000930216
0.000968583
0.00102197
0.00111572
0.00124264
0.00141474
0.00152573
0.00154088
0.00142706
0.0010771
0.00154342
0.00137916
0.00124477
0.00102269
0.000868686
0.000776635
0.000690017
0.000633808
0.000581204
0.000844636
0.000850774
0.000863337
0.000877196
0.000903987
0.000941921
0.000997679
0.00109103
0.00122794
0.00140659
0.00155958
0.00157559
0.00157945
0.00157042
0.00157042
0.00147349
0.00120671
0.000977873
0.000836197
0.000741201
0.00066011
0.000603791
0.000554048
0.000809749
0.00081557
0.000827562
0.000840183
0.000866866
0.000889648
0.000942611
0.000986693
0.00109925
0.00121163
0.00141695
0.00153359
0.00157945
0.00157046
0.00150477
0.00123777
0.00101861
0.000855413
0.00076341
0.00067735
0.000615061
0.000561209
0.000522776
0.000775017
0.000778207
0.000788975
0.00079918
0.000823749
0.000842503
0.00088813
0.000920534
0.000996347
0.00105821
0.00120022
0.00130241
0.00141251
0.00138177
0.00123985
0.00103894
0.000883484
0.000775622
0.000698912
0.000632111
0.000574939
0.000531067
0.000492767
0.000734318
0.00073673
0.000745985
0.000754062
0.000774689
0.000789938
0.000827463
0.000852171
0.000909699
0.000943667
0.00102091
0.00106316
0.00111872
0.00110734
0.00100674
0.000879262
0.000772785
0.000692875
0.000638017
0.000571485
0.000533524
0.000490452
0.000461711
0.000693431
0.000695168
0.000702387
0.00070737
0.000722952
0.000731481
0.000758807
0.000772678
0.000815462
0.000833195
0.000884871
0.000897878
0.00091907
0.000901492
0.000827787
0.000753226
0.000677984
0.000620111
0.000577558
0.000522261
0.00049196
0.000454118
0.0004298
0.000652793
0.000653887
0.000659569
0.000662861
0.000674778
0.000679656
0.000698854
0.000704426
0.000731225
0.000735915
0.000764795
0.000766572
0.000767425
0.000751514
0.000700985
0.000654139
0.000597104
0.000556058
0.000520994
0.00047483
0.000452588
0.000418897
0.000399434
0.000611733
0.000612177
0.000616209
0.000617449
0.000626075
0.000627522
0.000641354
0.000641537
0.000659351
0.000656584
0.000671315
0.000664997
0.00065807
0.000641934
0.000603046
0.000569864
0.000526049
0.000497814
0.000466309
0.000430796
0.000413615
0.000383966
0.00036907
0.000573417
0.000573306
0.000575845
0.000575319
0.000580645
0.000579002
0.00058726
0.000583354
0.000592989
0.000586082
0.000591169
0.000582165
0.000570272
0.000555112
0.000525558
0.000500791
0.00046763
0.000446078
0.000417335
0.000391224
0.000376455
0.000351271
0.000340192
0.000536066
0.000535576
0.000537012
0.000535293
0.000538269
0.00053463
0.000538937
0.000532405
0.00053636
0.00052708
0.000525709
0.000514665
0.000501591
0.000486668
0.000462241
0.000441671
0.000415369
0.000397708
0.000372941
0.000354248
0.000340518
0.000320397
0.000311983
0.000501755
0.000500872
0.000501212
0.000498361
0.000499102
0.000493793
0.000494621
0.000486314
0.000485754
0.000475028
0.000469643
0.000457554
0.00044337
0.00042876
0.000408534
0.000391134
0.000370085
0.000354798
0.000334291
0.000320234
0.000307303
0.000291896
0.000285106
0.00046973
0.00046859
0.000468098
0.000464498
0.000463517
0.00045711
0.000455301
0.000445922
0.000442082
0.000430506
0.000422212
0.000409447
0.000395388
0.000381136
0.000363018
0.000347476
0.000329348
0.000315725
0.000298745
0.000287698
0.000276158
0.000264807
0.000259171
0.000440597
0.000439232
0.000438017
0.000433784
0.000431333
0.00042405
0.000420091
0.00040981
0.000403532
0.000391217
0.000381239
0.000367773
0.000353429
0.000339168
0.00032295
0.000308682
0.000293063
0.000280918
0.000266901
0.000257675
0.000247778
0.000239449
0.000234757
0.000414231
0.000412696
0.000410873
0.00040618
0.000402521
0.000394649
0.000388978
0.000378184
0.000369997
0.000357172
0.000345761
0.000331989
0.000317746
0.000303633
0.000288225
0.000274655
0.000260445
0.000249221
0.000237256
0.000229312
0.000221053
0.00021506
0.000211439
0.000390633
0.000388963
0.000386653
0.000381587
0.000376961
0.000368566
0.000361567
0.000350208
0.000340635
0.000327287
0.00031498
0.000300592
0.000286055
0.000271691
0.000256982
0.000243857
0.000230781
0.000220315
0.000210002
0.000203059
0.000196386
0.000192113
0.000189642
0.0003698
0.000368018
0.000365273
0.000359912
0.000354446
0.00034568
0.000337545
0.000325808
0.000315041
0.000301235
0.000288027
0.000273337
0.00025864
0.000244143
0.00022954
0.000216494
0.000203901
0.000193851
0.000184534
0.000178332
0.000172973
0.000170105
0.000168843
0.000351591
0.000349717
0.000346635
0.000341019
0.000334905
0.00032576
0.000316759
0.000304584
0.000292926
0.000278643
0.000264762
0.000249434
0.00023426
0.00021925
0.000204612
0.000191429
0.000179137
0.000169276
0.000160706
0.000155137
0.000150963
0.000149309
0.000149324
0.000335988
0.00033403
0.000330634
0.000324797
0.00031809
0.000308643
0.00029886
0.000286324
0.00027382
0.000259061
0.000244446
0.00022869
0.00021309
0.000197648
0.000182634
0.000169034
0.000156562
0.000146573
0.000138326
0.000133174
0.00012996
0.000129423
0.00013074
0.000322843
0.000320812
0.000317175
0.000311136
0.00030398
0.000294228
0.000283849
0.000270932
0.000257782
0.000242547
0.000227297
0.000210846
0.000194589
0.000178366
0.000162783
0.000148521
0.00013565
0.000125278
0.000117112
0.000112252
0.000109927
0.000110522
0.000113249
0.000312145
0.000310029
0.000306144
0.000299904
0.000292317
0.000282291
0.00027135
0.000258085
0.000244291
0.00022954
0.000213684
0.000196985
0.000179612
0.000162159
0.000145559
0.000130407
0.000116718
0.000105575
9.70633e-05
9.22612e-05
9.07096e-05
9.25206e-05
9.679e-05
0.000303814
0.000301612
0.000297529
0.000291098
0.000283177
0.000273006
0.00026194
0.00024916
0.000234867
0.000219304
0.000202707
0.000185435
0.000167673
0.000149809
0.000132057
0.000114942
9.94868e-05
8.71744e-05
7.79113e-05
7.29226e-05
7.21789e-05
7.54479e-05
8.15495e-05
0.000297823
0.00029554
0.000291269
0.000284671
0.000276434
0.000266814
0.000255545
0.000242576
0.00022811
0.000212308
0.000195358
0.000177531
0.000159038
0.000140265
0.000121458
0.000103103
8.55959e-05
7.06743e-05
5.99515e-05
5.42858e-05
5.43795e-05
5.95682e-05
6.79003e-05
0.000294051
0.000291787
0.000287472
0.000281886
0.000274313
0.00026464
0.000253045
0.000239643
0.000224639
0.000208242
0.000190677
0.000172226
0.000153098
0.000133616
0.000113975
9.45504e-05
7.56303e-05
5.78053e-05
4.29995e-05
3.59029e-05
3.73057e-05
4.54034e-05
5.64892e-05
0.000292101
0.000289843
0.000285498
0.00027985
0.000272215
0.000262553
0.000251036
0.00023775
0.000222882
0.000206599
0.000189096
0.000170619
0.000151362
0.000131626
0.000111587
9.15542e-05
7.16936e-05
5.22997e-05
3.36754e-05
1.85669e-05
2.27582e-05
3.77755e-05
4.85635e-05
0.00245312
0.00148768
0.000926407
0.000821152
0.0024695
0.00196783
0.00153041
0.00111976
0.0024695
0.00196783
0.0016356
0.00139992
0.00218599
0.00194081
0.0016356
0.00139992
0.0017619
0.00167952
0.00150499
0.00135104
0.00139629
0.00135964
0.00126693
0.0011802
0.0011637
0.00112626
0.0010657
0.00100974
0.00101706
0.00098313
0.000933609
0.000892206
0.000911955
0.000881638
0.000839458
0.000807035
0.000836707
0.000809917
0.000772959
0.000746527
0.000775854
0.000752615
0.000720084
0.000697488
0.000729542
0.000708985
0.000680803
0.00066002
0.0006906
0.000671194
0.000646818
0.000626909
0.000661129
0.000640784
0.000620053
0.000600059
0.000634935
0.000612927
0.000595324
0.00057485
0.000612124
0.000589403
0.000573798
0.000553119
0.000589481
0.000567575
0.000552228
0.000532311
0.00056745
0.000547239
0.000531419
0.000512832
0.000543992
0.000525727
0.000509351
0.000492311
0.000519884
0.000503965
0.000487231
0.000471859
0.000491992
0.000477858
0.000462237
0.000448513
0.000465768
0.000452807
0.000438837
0.000426453
0.000437929
0.000426297
0.000413745
0.000402819
0.000409126
0.000399278
0.000388364
0.000379168
0.000381243
0.000373212
0.000363639
0.000356037
0.000353064
0.000346835
0.000338498
0.000332501
0.000326194
0.000321619
0.00031437
0.000309871
0.000300061
0.000296864
0.000290669
0.00028751
0.000275379
0.000273178
0.000268092
0.000266028
0.000251697
0.000250207
0.000246294
0.00024508
0.000229366
0.000228375
0.000225631
0.00022504
0.000207912
0.000207393
0.00020577
0.000205703
0.000187667
0.00018763
0.000186988
0.000187414
0.000168238
0.000168737
0.000168985
0.000169948
0.000149931
0.000151018
0.000152059
0.000153608
0.000132508
0.000134227
0.000136028
0.000138208
0.000116181
0.000118592
0.000121138
0.000123995
0.000100961
0.000104119
0.000107429
0.000110995
8.70928e-05
9.10752e-05
9.51801e-05
9.94857e-05
7.49698e-05
7.98273e-05
8.47341e-05
8.97633e-05
6.51732e-05
7.08987e-05
7.65546e-05
8.22343e-05
5.85934e-05
6.49872e-05
7.11893e-05
7.73184e-05
0.000658874
0.000569868
0.000523749
0.000393909
0.000324172
0.000276765
0.000246269
0.000228807
0.000208072
0.000193623
0.000175516
0.00016011
0.000143179
0.000128084
0.000112778
9.94395e-05
8.71022e-05
7.77925e-05
7.11353e-05
0.00107187
0.000957448
0.000760993
0.000573762
0.000434837
0.000359108
0.000307341
0.000272455
0.000242119
0.000218527
0.000195978
0.000176818
0.000158151
0.000141876
0.000126386
0.000113276
0.000101698
9.32301e-05
8.7414e-05
0.00115363
0.00104492
0.000719823
0.00053674
0.000414355
0.000356357
0.000305022
0.000274257
0.000243867
0.000222108
0.000200302
0.000182596
0.000165154
0.000150325
0.000136298
0.000124665
0.000114567
0.000107317
0.000102451
0.00115363
0.00106947
0.000799935
0.000627202
0.000503894
0.000421256
0.000359105
0.000313406
0.000276452
0.000247259
0.000221888
0.000200766
0.000181746
0.000165662
0.000151294
0.000139551
0.000129766
0.000122819
0.000118302
0.00108412
0.00100163
0.000777767
0.000615652
0.000499453
0.000422181
0.000360777
0.000317948
0.000281362
0.000253744
0.000229101
0.000209191
0.000191174
0.000176214
0.000162947
0.000152228
0.000143415
0.000137189
0.000133217
0.000962267
0.000900199
0.000743113
0.000612583
0.000516701
0.000441857
0.000385079
0.000339216
0.000302381
0.000271887
0.00024627
0.000224707
0.000206135
0.00019053
0.000177209
0.000166451
0.000157867
0.000151805
0.000148033
0.000852598
0.000842616
0.000716383
0.000603475
0.000517631
0.000447344
0.000391812
0.000347693
0.000311027
0.000281425
0.000256117
0.000235227
0.000217201
0.00020225
0.000189581
0.000179418
0.000171399
0.00016573
0.000162258
0.000775447
0.000770866
0.000674585
0.00058445
0.000512524
0.000449072
0.000399424
0.000356525
0.000322164
0.000292527
0.000268047
0.000247022
0.000229376
0.000214451
0.000202092
0.000192095
0.000184365
0.00017887
0.00017557
0.000740799
0.000740799
0.000655873
0.00057599
0.000510465
0.000452105
0.000405037
0.000364179
0.000330651
0.000301935
0.000277905
0.000257442
0.000240243
0.000225783
0.000213867
0.000204253
0.000196875
0.000191612
0.000188488
0.000689402
0.000689402
0.000619968
0.000554244
0.000498268
0.000446859
0.000404819
0.000366916
0.000335991
0.000308527
0.000285892
0.000266072
0.000249672
0.000235649
0.000224254
0.000214968
0.000207936
0.000202885
0.000199931
0.000670309
0.000670309
0.000606825
0.000546949
0.000494669
0.000447287
0.00040743
0.000371817
0.00034209
0.000315852
0.000293924
0.000274833
0.000258939
0.000245403
0.00023441
0.000225463
0.00021871
0.000213843
0.000211015
0.000632417
0.000632417
0.000577231
0.000526147
0.000480636
0.000438959
0.000403227
0.000370848
0.000343588
0.000319159
0.000298731
0.000280704
0.000265758
0.000252893
0.000242506
0.000233995
0.000227618
0.000222998
0.00022034
0.000617205
0.000617205
0.000565979
0.000519024
0.000475996
0.000437264
0.000403323
0.000372983
0.000346953
0.000323845
0.000304264
0.000287088
0.000272743
0.000260444
0.000250483
0.000242334
0.000236226
0.000231792
0.000229249
0.000587716
0.000587716
0.000541235
0.00049971
0.000461532
0.000427168
0.000396711
0.000369316
0.0003456
0.000324398
0.000306335
0.000290388
0.000277045
0.000265541
0.000256231
0.000248582
0.000242866
0.000238705
0.000236332
0.000573579
0.000573579
0.000530101
0.000491479
0.000455451
0.000423411
0.000394566
0.000368906
0.000346413
0.000326465
0.000309315
0.000294253
0.000281574
0.00027068
0.000261833
0.000254576
0.000249142
0.000245184
0.000242928
0.000548356
0.000548356
0.000508236
0.000473352
0.000440876
0.000412103
0.000386214
0.000363084
0.000342749
0.00032462
0.00030897
0.000295165
0.00028351
0.000273459
0.000265286
0.000258566
0.000253535
0.000249865
0.000247778
0.000533359
0.000533359
0.000496077
0.000463307
0.000433021
0.000406126
0.000381863
0.00036028
0.000341182
0.000324242
0.00030954
0.000296618
0.000285665
0.000276242
0.00026856
0.000262251
0.000257518
0.000254066
0.000252101
0.000509533
0.000509533
0.000475446
0.000445281
0.000418074
0.000393831
0.000372154
0.000352769
0.000335654
0.000320379
0.000307115
0.000295408
0.00028547
0.000276894
0.000269893
0.00026413
0.000259808
0.000256649
0.000254855
0.000492393
0.000492393
0.000461228
0.000433141
0.000408122
0.000385647
0.000365624
0.000347691
0.000331864
0.000317759
0.000305486
0.000294662
0.000285456
0.000277519
0.000271029
0.00026569
0.000261678
0.000258749
0.000257078
0.000469537
0.000469537
0.000440991
0.000415288
0.000392819
0.000372643
0.000354838
0.000338869
0.00032482
0.000312265
0.000301345
0.000291683
0.000283456
0.00027634
0.000270518
0.000265716
0.000262111
0.000259468
0.000257975
0.000448623
0.000448623
0.000423289
0.000400497
0.00038039
0.000362288
0.000346233
0.000331813
0.000319084
0.000307706
0.00029779
0.000289023
0.00028155
0.000275089
0.000269796
0.000265428
0.000262144
0.000259744
0.000258365
0.000427918
0.000427918
0.00040436
0.00038352
0.000365356
0.000349163
0.000334923
0.000322197
0.000311012
0.00030103
0.00029234
0.000284651
0.000278094
0.000272416
0.000267764
0.000263923
0.000261036
0.000258914
0.000257687
0.000403504
0.000403504
0.000383651
0.000366086
0.000350574
0.00033671
0.000324405
0.000313369
0.000303604
0.000294868
0.000287228
0.00028046
0.000274672
0.000269656
0.000265536
0.000262129
0.000259567
0.00025768
0.000256602
0.000383435
0.000383435
0.000365611
0.000349883
0.000336083
0.000323812
0.000313028
0.000303419
0.000294978
0.000287456
0.000280904
0.000275108
0.000270159
0.00026587
0.000262351
0.000259433
0.000257232
0.000255609
0.000254698
0.000358861
0.000358861
0.000344131
0.000331253
0.000320001
0.000310018
0.000301202
0.00029331
0.000286339
0.000280093
0.000274625
0.000269765
0.000265599
0.000261973
0.00025899
0.000256514
0.000254653
0.000253283
0.000252516
0.000338253
0.000338253
0.000325893
0.000315043
0.00030558
0.000297165
0.000289792
0.000283202
0.000277426
0.000272269
0.000267782
0.0002638
0.0002604
0.000257439
0.000255009
0.000252983
0.000251462
0.000250338
0.000249713
0.000315021
0.000315021
0.000305312
0.000296833
0.00028955
0.000283109
0.000277519
0.000272528
0.000268167
0.000264246
0.000260825
0.000257759
0.000255128
0.000252818
0.000250921
0.000249333
0.000248146
0.000247264
0.000246776
0.000294734
0.000294734
0.000287265
0.000280717
0.000275207
0.00027033
0.00026616
0.000262424
0.000259192
0.000256274
0.000253748
0.000251485
0.000249563
0.000247866
0.000246476
0.000245303
0.000244429
0.000243772
0.000243412
0.000273143
0.000273143
0.000267982
0.000263498
0.000259907
0.000256762
0.000254175
0.000251861
0.000249907
0.00024813
0.000246609
0.000245209
0.000244013
0.000242931
0.000242049
0.00024129
0.00024073
0.000240299
0.000240069
0.000253928
0.000253928
0.00025072
0.000248007
0.000246053
0.000244379
0.00024313
0.000242008
0.000241122
0.000240285
0.000239593
0.00023893
0.000238383
0.000237862
0.000237444
0.000237061
0.000236788
0.000236561
0.000236448
0.000234175
0.000234175
0.000232926
0.000232074
0.000231821
0.000231873
0.000232029
0.000232291
0.00023248
0.000232692
0.000232814
0.000232933
0.000232976
0.000233025
0.000233025
0.000233037
0.000233037
0.000233025
0.000233025
0.000216409
0.000216871
0.000217663
0.000218887
0.000220133
0.000221518
0.000222773
0.000224009
0.000225063
0.000226035
0.000226827
0.000227528
0.000228072
0.000228535
0.000228867
0.000229137
0.000229301
0.000229415
0.000229415
0.000198638
0.000200816
0.000203295
0.000206035
0.000208694
0.000211341
0.000213742
0.000215994
0.000217956
0.000219723
0.000221209
0.000222501
0.000223547
0.000224423
0.000225092
0.000225618
0.000225966
0.000226188
0.000226188
0.000182498
0.000186301
0.000190317
0.000194409
0.00019831
0.000202047
0.000205433
0.000208549
0.000211278
0.000213714
0.000215788
0.000217585
0.000219063
0.000220297
0.000221255
0.000222001
0.000222507
0.000222822
0.000222822
0.00016693
0.000172324
0.000177854
0.000183301
0.000188451
0.000193292
0.000197675
0.000201666
0.000205173
0.000208284
0.000210947
0.000213246
0.000215151
0.000216735
0.000217978
0.000218939
0.0002196
0.000220005
0.000220005
0.000152761
0.000159739
0.000166692
0.000173374
0.000179625
0.000185417
0.000190644
0.000195364
0.000199517
0.000203185
0.000206335
0.000209049
0.00021131
0.000213186
0.000214668
0.000215811
0.000216603
0.000217084
0.000217084
0.000139728
0.000148218
0.000156524
0.000164396
0.000171705
0.000178418
0.000184463
0.000189893
0.000194672
0.000198878
0.000202498
0.000205609
0.000208207
0.00021036
0.000212064
0.000213374
0.000214283
0.000214832
0.000214832
0.000128198
0.000138171
0.000147723
0.000156643
0.000164848
0.000172318
0.000179021
0.000185013
0.000190284
0.000194912
0.000198899
0.000202324
0.00020519
0.000207565
0.000209453
0.000210905
0.000211919
0.000212532
0.000212532
0.000118376
0.000129688
0.000140355
0.000150216
0.000159224
0.000167381
0.000174681
0.000181185
0.000186904
0.000191916
0.000196236
0.000199939
0.000203041
0.000205606
0.000207643
0.000209204
0.000210291
0.000210945
0.000210945
0.000110505
0.000122976
0.000134545
0.000145129
0.000154731
0.000163379
0.000171097
0.000177955
0.000183982
0.000189258
0.000193809
0.000197712
0.000200986
0.000203697
0.00020586
0.000207522
0.000208688
0.000209389
0.000209389
0.00010497
0.000118301
0.000130537
0.000141664
0.000151716
0.000160743
0.000168786
0.000175923
0.000182192
0.000187676
0.000192408
0.000196462
0.000199866
0.000202682
0.000204927
0.000206652
0.000207861
0.000208588
0.000208588
0.000101836
0.000115617
0.000128182
0.000139566
0.000149825
0.000159025
0.000167218
0.000174485
0.00018087
0.000186454
0.000191274
0.000195404
0.000198874
0.000201745
0.000204036
0.000205794
0.000207028
0.000207769
0.000207769
)
;

boundaryField
{
    leftWall
    {
        type            calculated;
        value           uniform 0;
    }
    rightWall
    {
        type            calculated;
        value           uniform 0;
    }
    lowerWall
    {
        type            calculated;
        value           uniform 0;
    }
    atmosphere
    {
        type            calculated;
        value           uniform 0;
    }
    defaultFaces
    {
        type            empty;
    }
}


// ************************************************************************* //
