/*--------------------------------*- C++ -*----------------------------------*\
| =========                 |                                                 |
| \\      /  F ield         | OpenFOAM: The Open Source CFD Toolbox           |
|  \\    /   O peration     | Version:  2012                                  |
|   \\  /    A nd           | Website:  www.openfoam.com                      |
|    \\/     M anipulation  |                                                 |
\*---------------------------------------------------------------------------*/
FoamFile
{
    version     2.0;
    format      ascii;
    class       volVectorField;
    location    "0.11";
    object      U;
}
// * * * * * * * * * * * * * * * * * * * * * * * * * * * * * * * * * * * * * //

dimensions      [0 1 -1 0 0 0 0];


internalField   nonuniform List<vector> 
2268
(
(0.031349 -0.014963 0)
(0.0952953 -0.0150812 0)
(0.158972 -0.0153651 0)
(0.225375 -0.0157409 0)
(0.292132 -0.0162852 0)
(0.363312 -0.0169973 0)
(0.435874 -0.0177737 0)
(0.513954 -0.018939 0)
(0.59605 -0.0199682 0)
(0.683278 -0.0216431 0)
(0.779101 -0.0232534 0)
(0.880545 -0.0244788 0)
(0.987162 -0.0260947 0)
(1.10365 -0.0296804 0)
(1.23952 -0.0347467 0)
(1.3953 -0.0401906 0)
(1.56748 -0.0345533 0)
(1.67607 -0.0160924 0)
(1.70756 -0.00212767 0)
(1.70761 0.00092106 0)
(1.71062 -0.000836307 0)
(1.70972 0.0107814 0)
(1.60502 0.270978 0)
(0.0312794 -0.0448849 0)
(0.0951232 -0.0452423 0)
(0.158666 -0.0460907 0)
(0.224941 -0.0472195 0)
(0.291556 -0.0488572 0)
(0.362591 -0.0509986 0)
(0.435009 -0.053334 0)
(0.512886 -0.0568606 0)
(0.594892 -0.059944 0)
(0.681847 -0.0649656 0)
(0.777371 -0.0698941 0)
(0.878958 -0.0739282 0)
(0.986239 -0.079256 0)
(1.10385 -0.0896379 0)
(1.24064 -0.103071 0)
(1.39551 -0.114885 0)
(1.54499 -0.0982064 0)
(1.6415 -0.0500435 0)
(1.687 -0.0127909 0)
(1.71492 -0.00242268 0)
(1.7444 -0.000782255 0)
(1.73828 0.0536915 0)
(1.58091 1.13475 0)
(0.0311568 -0.0746969 0)
(0.0947621 -0.0752934 0)
(0.158049 -0.076697 0)
(0.224065 -0.0785744 0)
(0.290395 -0.0812923 0)
(0.361131 -0.0848566 0)
(0.433263 -0.0887171 0)
(0.510697 -0.0945996 0)
(0.592498 -0.0997087 0)
(0.678958 -0.10798 0)
(0.773851 -0.116327 0)
(0.875476 -0.123266 0)
(0.983524 -0.132297 0)
(1.10225 -0.149956 0)
(1.24076 -0.172614 0)
(1.39614 -0.184022 0)
(1.52172 -0.150643 0)
(1.60661 -0.0831848 0)
(1.66899 -0.0368829 0)
(1.72691 -0.0263103 0)
(1.77182 -0.0125683 0)
(1.74161 0.100138 0)
(1.38016 1.97825 0)
(0.0309888 -0.104389 0)
(0.094212 -0.10522 0)
(0.157136 -0.107179 0)
(0.222765 -0.109795 0)
(0.288682 -0.113587 0)
(0.358966 -0.118581 0)
(0.430701 -0.123933 0)
(0.507463 -0.132214 0)
(0.588937 -0.139357 0)
(0.674753 -0.150769 0)
(0.768706 -0.162687 0)
(0.870022 -0.173096 0)
(0.978902 -0.186335 0)
(1.09857 -0.211267 0)
(1.23837 -0.242007 0)
(1.38902 -0.247689 0)
(1.49813 -0.197812 0)
(1.58258 -0.119631 0)
(1.66543 -0.0697336 0)
(1.74308 -0.0513657 0)
(1.78356 -0.00861029 0)
(1.63992 0.254281 0)
(0.837749 2.62851 0)
(0.0307658 -0.133863 0)
(0.0934711 -0.134921 0)
(0.155913 -0.137431 0)
(0.22101 -0.140774 0)
(0.286378 -0.145614 0)
(0.356018 -0.152039 0)
(0.427226 -0.158811 0)
(0.503038 -0.169479 0)
(0.583953 -0.178664 0)
(0.668953 -0.193032 0)
(0.761631 -0.208529 0)
(0.862095 -0.222682 0)
(0.971518 -0.24022 0)
(1.09151 -0.272636 0)
(1.23198 -0.30986 0)
(1.37348 -0.306791 0)
(1.47433 -0.241899 0)
(1.5699 -0.162288 0)
(1.67704 -0.11343 0)
(1.76911 -0.0817749 0)
(1.77819 0.0291148 0)
(1.26577 0.565351 0)
(0.241081 3.10121 0)
(0.0304905 -0.163098 0)
(0.0925509 -0.164373 0)
(0.154403 -0.167432 0)
(0.218829 -0.171483 0)
(0.283547 -0.177344 0)
(0.352356 -0.185209 0)
(0.422952 -0.193331 0)
(0.497618 -0.20638 0)
(0.577741 -0.217666 0)
(0.661806 -0.234832 0)
(0.753045 -0.253882 0)
(0.852122 -0.272367 0)
(0.961739 -0.294657 0)
(1.08172 -0.334466 0)
(1.22149 -0.375376 0)
(1.35061 -0.362206 0)
(1.45182 -0.291068 0)
(1.56657 -0.215838 0)
(1.70097 -0.164528 0)
(1.78652 -0.0950911 0)
(1.63414 0.21897 0)
(0.763042 1.026 0)
(-0.145685 3.32363 0)
(0.0301618 -0.19201 0)
(0.0914218 -0.193494 0)
(0.15257 -0.19709 0)
(0.21615 -0.20184 0)
(0.280096 -0.208671 0)
(0.347843 -0.217986 0)
(0.417671 -0.227379 0)
(0.490951 -0.242725 0)
(0.569958 -0.25616 0)
(0.652792 -0.275972 0)
(0.742419 -0.298389 0)
(0.839687 -0.32138 0)
(0.948523 -0.348651 0)
(1.06779 -0.395451 0)
(1.20429 -0.43685 0)
(1.32006 -0.415552 0)
(1.42949 -0.343828 0)
(1.56575 -0.280993 0)
(1.72069 -0.218388 0)
(1.74061 -0.0490262 0)
(1.35721 0.498031 0)
(0.447474 1.4042 0)
(-0.380256 3.37617 0)
(0.029778 -0.220548 0)
(0.0901129 -0.222229 0)
(0.150458 -0.22635 0)
(0.213041 -0.231778 0)
(0.276153 -0.239528 0)
(0.342651 -0.250284 0)
(0.411653 -0.260877 0)
(0.483455 -0.278435 0)
(0.56117 -0.294052 0)
(0.64271 -0.316419 0)
(0.730769 -0.342117 0)
(0.826185 -0.369833 0)
(0.933683 -0.402357 0)
(1.05213 -0.455474 0)
(1.18005 -0.494721 0)
(1.28638 -0.46892 0)
(1.40572 -0.408685 0)
(1.56768 -0.355133 0)
(1.73062 -0.245509 0)
(1.54627 0.100094 0)
(0.997135 0.815061 0)
(0.191812 1.88764 0)
(-0.394457 3.34495 0)
(-0.0625699 -0.0164988 0)
(0.0206058 -0.0210774 0)
(0.0503305 -0.0169697 0)
(0.0855008 -0.0131886 0)
(0.123813 -0.00943271 0)
(0.125406 -0.00533536 0)
(0.144126 -0.0030931 0)
(0.131248 -0.00103475 0)
(0.136854 0.000190579 0)
(0.119025 0.00128039 0)
(0.116079 0.00179032 0)
(0.0977033 0.00227973 0)
(0.0902244 0.00247007 0)
(0.0725785 0.00267214 0)
(0.0628862 0.00273542 0)
(0.0460677 0.0028094 0)
(0.0353666 0.00282463 0)
(0.0191132 0.00284692 0)
(0.00802944 0.00284894 0)
(-0.0637665 0.0357117 0)
(0.0197449 -0.0277137 0)
(0.0531462 -0.00890938 0)
(0.0888024 -0.0193312 0)
(0.126712 -0.00604824 0)
(0.128027 -0.00439566 0)
(0.146197 0.00172 0)
(0.132707 0.00333077 0)
(0.13782 0.00576467 0)
(0.119711 0.00701847 0)
(0.116489 0.00776774 0)
(0.0979901 0.00837386 0)
(0.0903869 0.00852086 0)
(0.0726879 0.00874808 0)
(0.0629446 0.00872062 0)
(0.0461063 0.00878298 0)
(0.0353841 0.00873213 0)
(0.0191246 0.00874036 0)
(0.00803066 0.00871912 0)
(-0.0871034 -6.80858e-05 0)
(0.00224008 -0.0726727 0)
(0.0517262 -0.0463402 0)
(0.0873561 -0.0461353 0)
(0.129219 -0.0254362 0)
(0.128462 -0.0149627 0)
(0.147811 -0.00439451 0)
(0.133151 0.00156184 0)
(0.138378 0.00625875 0)
(0.11986 0.00971147 0)
(0.116622 0.0114065 0)
(0.0980148 0.0129762 0)
(0.090382 0.0134773 0)
(0.0726605 0.0140993 0)
(0.0629019 0.014189 0)
(0.0460694 0.0143965 0)
(0.0353476 0.0143736 0)
(0.019106 0.0144256 0)
(0.00802005 0.0144079 0)
(-0.0895573 0.0771934 0)
(0.000197219 -0.0866539 0)
(0.0585562 -0.0414745 0)
(0.0987464 -0.0532831 0)
(0.139234 -0.0211654 0)
(0.13654 -0.0131852 0)
(0.153664 0.00127841 0)
(0.137571 0.00670277 0)
(0.14118 0.012394 0)
(0.12188 0.0158386 0)
(0.117814 0.0176587 0)
(0.0988566 0.0192566 0)
(0.0908576 0.0196673 0)
(0.0729837 0.0202679 0)
(0.0630725 0.0202427 0)
(0.0461818 0.020414 0)
(0.0353974 0.020312 0)
(0.0191383 0.0203398 0)
(0.00802311 0.0202948 0)
(-0.145044 0.0313332 0)
(-0.0386145 -0.138726 0)
(0.0560095 -0.0899307 0)
(0.0950035 -0.0825518 0)
(0.145249 -0.0415739 0)
(0.137302 -0.0227016 0)
(0.156694 -0.004537 0)
(0.138198 0.00573807 0)
(0.142135 0.0132595 0)
(0.122087 0.0189071 0)
(0.118005 0.0214615 0)
(0.0988456 0.0239757 0)
(0.090802 0.0246643 0)
(0.072892 0.0256353 0)
(0.0629645 0.0257011 0)
(0.0460935 0.0260092 0)
(0.0353167 0.0259275 0)
(0.0190972 0.0259969 0)
(0.00800083 0.0259538 0)
(-0.142106 0.166322 0)
(-0.0246308 -0.171758 0)
(0.0766116 -0.0924372 0)
(0.118635 -0.0921876 0)
(0.163977 -0.0358762 0)
(0.151829 -0.0187978 0)
(0.166485 0.00288921 0)
(0.14558 0.0123871 0)
(0.146539 0.0204395 0)
(0.125339 0.0257681 0)
(0.119883 0.028252 0)
(0.100195 0.0306162 0)
(0.0915568 0.0311268 0)
(0.0734132 0.0319818 0)
(0.0632356 0.0318861 0)
(0.0462734 0.032111 0)
(0.0353944 0.0319266 0)
(0.0191482 0.0319523 0)
(0.00800489 0.0318749 0)
(-0.200961 0.0889573 0)
(-0.0464413 -0.235618 0)
(0.0929289 -0.154134 0)
(0.11707 -0.122158 0)
(0.17494 -0.0563819 0)
(0.153213 -0.0256022 0)
(0.170457 -0.00193164 0)
(0.146098 0.0129342 0)
(0.147605 0.0219976 0)
(0.125424 0.0294127 0)
(0.119985 0.0323011 0)
(0.100031 0.0355009 0)
(0.0913694 0.0361704 0)
(0.0731926 0.0373628 0)
(0.0630195 0.0373176 0)
(0.0461013 0.0376684 0)
(0.0352498 0.0374918 0)
(0.0190724 0.0375563 0)
(0.00796762 0.0374781 0)
(0.0121189 0.292238 0)
(0.0583193 -0.298476 0)
(0.173314 -0.153651 0)
(0.163993 -0.128364 0)
(0.204409 -0.0470638 0)
(0.175491 -0.0175974 0)
(0.183541 0.00831052 0)
(0.156066 0.0217085 0)
(0.153208 0.0306184 0)
(0.129695 0.0372771 0)
(0.122394 0.039864 0)
(0.101814 0.0426443 0)
(0.0923523 0.0430214 0)
(0.0738885 0.0439586 0)
(0.0633752 0.0436895 0)
(0.0463426 0.0438893 0)
(0.0353512 0.0435784 0)
(0.0191412 0.0435718 0)
(0.00797199 0.0434495 0)
(0.0291491 -0.264531 0)
(0.0878881 -0.266513 0)
(0.146932 -0.27142 0)
(0.207763 -0.277921 0)
(0.269535 -0.286998 0)
(0.33387 -0.300028 0)
(0.401395 -0.312443 0)
(0.470755 -0.333241 0)
(0.546168 -0.352364 0)
(0.625077 -0.378664 0)
(0.710378 -0.409227 0)
(0.80206 -0.444124 0)
(0.905263 -0.485343 0)
(1.02009 -0.543741 0)
(1.12995 -0.577269 0)
(1.23127 -0.552397 0)
(1.35531 -0.517805 0)
(1.49797 -0.471465 0)
(1.5801 -0.19444 0)
(1.16113 0.40923 0)
(0.77581 1.27853 0)
(0.297668 2.15188 0)
(0.660233 3.22724 0)
(0.0280963 -0.322314 0)
(0.0839774 -0.324677 0)
(0.140863 -0.330535 0)
(0.198545 -0.338446 0)
(0.258035 -0.349065 0)
(0.318661 -0.365014 0)
(0.383416 -0.379722 0)
(0.448599 -0.404364 0)
(0.520168 -0.427967 0)
(0.59372 -0.459216 0)
(0.674586 -0.495655 0)
(0.758621 -0.539061 0)
(0.855124 -0.591476 0)
(0.957554 -0.649831 0)
(1.04849 -0.677457 0)
(1.1527 -0.667775 0)
(1.27832 -0.645908 0)
(1.3915 -0.51622 0)
(1.09841 0.0580996 0)
(0.559062 0.830399 0)
(0.42873 1.48628 0)
(0.334444 1.99067 0)
(0.90339 2.56297 0)
(0.0268867 -0.377201 0)
(0.0794128 -0.379925 0)
(0.133838 -0.386552 0)
(0.18781 -0.395802 0)
(0.244645 -0.407663 0)
(0.301034 -0.426199 0)
(0.362418 -0.442934 0)
(0.422803 -0.470884 0)
(0.490088 -0.498067 0)
(0.556868 -0.534103 0)
(0.63307 -0.574762 0)
(0.70677 -0.625849 0)
(0.797245 -0.685025 0)
(0.87813 -0.738696 0)
(0.962574 -0.774654 0)
(1.06182 -0.786621 0)
(1.16707 -0.752024 0)
(1.09447 -0.272794 0)
(0.560169 0.61083 0)
(0.222925 1.10557 0)
(0.273212 1.47299 0)
(0.340723 1.69866 0)
(0.950856 1.98038 0)
(0.0255192 -0.429132 0)
(0.0742804 -0.432201 0)
(0.125914 -0.439419 0)
(0.175801 -0.449883 0)
(0.229525 -0.462778 0)
(0.281468 -0.48348 0)
(0.338782 -0.502009 0)
(0.394302 -0.532804 0)
(0.456309 -0.562603 0)
(0.516542 -0.603053 0)
(0.585953 -0.646228 0)
(0.650213 -0.704182 0)
(0.731181 -0.763597 0)
(0.791674 -0.817178 0)
(0.875999 -0.863607 0)
(0.947616 -0.874156 0)
(1.02531 -0.677348 0)
(0.550363 0.106467 0)
(0.197695 0.916421 0)
(0.116056 1.13957 0)
(0.210054 1.34823 0)
(0.354332 1.34291 0)
(0.762254 1.50651 0)
(0.0239811 -0.477531 0)
(0.0686411 -0.480903 0)
(0.117104 -0.488568 0)
(0.16264 -0.500037 0)
(0.21275 -0.513827 0)
(0.260111 -0.536103 0)
(0.312643 -0.556301 0)
(0.363432 -0.589077 0)
(0.418859 -0.620916 0)
(0.473676 -0.664378 0)
(0.533435 -0.70923 0)
(0.591651 -0.771577 0)
(0.657258 -0.827606 0)
(0.708132 -0.88581 0)
(0.782991 -0.931828 0)
(0.823468 -0.929776 0)
(0.847746 -0.362537 0)
(0.173317 0.567681 0)
(0.0909205 1.03302 0)
(0.0707666 1.10342 0)
(0.203246 1.21878 0)
(0.317857 1.15168 0)
(0.5713 1.19983 0)
(0.0223155 -0.522197 0)
(0.0626729 -0.525822 0)
(0.107701 -0.53383 0)
(0.148718 -0.546069 0)
(0.194928 -0.560682 0)
(0.237579 -0.583934 0)
(0.285067 -0.605823 0)
(0.331071 -0.639593 0)
(0.379493 -0.673454 0)
(0.429493 -0.718122 0)
(0.478592 -0.765073 0)
(0.533034 -0.828237 0)
(0.579876 -0.881741 0)
(0.630521 -0.944765 0)
(0.682377 -0.978054 0)
(0.705753 -0.935774 0)
(0.456151 -0.0197805 0)
(-0.00666294 0.874959 0)
(0.0547865 1.00948 0)
(0.0527672 1.04129 0)
(0.181278 1.08797 0)
(0.268191 0.990365 0)
(0.423093 1.00118 0)
(0.0205188 -0.562978 0)
(0.0563689 -0.5668 0)
(0.0977197 -0.575032 0)
(0.133985 -0.587802 0)
(0.176156 -0.603099 0)
(0.213733 -0.626779 0)
(0.256347 -0.650213 0)
(0.296871 -0.684046 0)
(0.338981 -0.719781 0)
(0.383121 -0.763979 0)
(0.423259 -0.81335 0)
(0.472265 -0.873123 0)
(0.503862 -0.927012 0)
(0.554196 -0.989041 0)
(0.576734 -1.00355 0)
(0.598182 -0.712383 0)
(0.0748206 0.354652 0)
(-0.0314258 0.968769 0)
(0.00887968 0.966934 0)
(0.0515648 0.980494 0)
(0.153755 0.994025 0)
(0.22781 0.913238 0)
(0.321226 0.894145 0)
(0.0186309 -0.599435 0)
(0.0498985 -0.60343 0)
(0.087439 -0.611764 0)
(0.118823 -0.624961 0)
(0.157009 -0.640753 0)
(0.189165 -0.664632 0)
(0.22744 -0.689292 0)
(0.261572 -0.72282 0)
(0.298843 -0.760004 0)
(0.335335 -0.803083 0)
(0.36983 -0.854474 0)
(0.410246 -0.909529 0)
(0.434833 -0.965266 0)
(0.47804 -1.01737 0)
(0.481764 -1.02062 0)
(0.499028 -0.427749 0)
(-0.132549 0.614335 0)
(-0.0177266 0.946754 0)
(-0.0340269 0.921376 0)
(0.04278 0.9048 0)
(0.108782 0.904501 0)
(0.179517 0.831712 0)
(0.24049 0.800611 0)
(0.0166381 -0.631895 0)
(0.0432828 -0.636043 0)
(0.0768456 -0.644293 0)
(0.103251 -0.657824 0)
(0.137455 -0.673731 0)
(0.163909 -0.697673 0)
(0.198276 -0.722829 0)
(0.225281 -0.755975 0)
(0.259072 -0.793603 0)
(0.286468 -0.835636 0)
(0.318488 -0.888123 0)
(0.34735 -0.939161 0)
(0.371327 -0.995866 0)
(0.402324 -1.03415 0)
(0.40601 -1.02789 0)
(0.357919 -0.0874669 0)
(-0.240295 0.865202 0)
(-0.0102464 0.87219 0)
(-0.067636 0.900363 0)
(0.0319719 0.839779 0)
(0.0689904 0.850799 0)
(0.13734 0.783217 0)
(0.180583 0.754384 0)
(0.0145558 -0.659603 0)
(0.0366555 -0.663937 0)
(0.066126 -0.671959 0)
(0.0876987 -0.685928 0)
(0.117934 -0.701648 0)
(0.138838 -0.725894 0)
(0.169442 -0.750888 0)
(0.189344 -0.784197 0)
(0.220242 -0.82132 0)
(0.237995 -0.863284 0)
(0.268844 -0.915215 0)
(0.283521 -0.963699 0)
(0.310696 -1.02067 0)
(0.328743 -1.04848 0)
(0.344717 -0.983333 0)
(0.0271732 0.234704 0)
(-0.229545 0.975082 0)
(-0.0682158 0.781893 0)
(-0.0775074 0.874466 0)
(-0.00432373 0.774403 0)
(0.0321802 0.794665 0)
(0.0878245 0.725689 0)
(0.12758 0.697861 0)
(0.0123692 -0.683424 0)
(0.0301319 -0.687957 0)
(0.0552328 -0.695606 0)
(0.0722295 -0.709955 0)
(0.0980455 -0.725078 0)
(0.11375 -0.749462 0)
(0.139955 -0.773435 0)
(0.153545 -0.807051 0)
(0.180746 -0.842185 0)
(0.189868 -0.884621 0)
(0.21905 -0.933301 0)
(0.219713 -0.982235 0)
(0.25091 -1.04106 0)
(0.254376 -1.06455 0)
(0.259475 -0.738046 0)
(-0.298967 0.505418 0)
(-0.148336 0.948538 0)
(-0.149686 0.724404 0)
(-0.0714264 0.829783 0)
(-0.0396428 0.732586 0)
(0.00544584 0.753416 0)
(0.0488619 0.689084 0)
(0.0827481 0.667451 0)
(0.0100659 -0.702257 0)
(0.0237406 -0.706986 0)
(0.0441976 -0.714223 0)
(0.0571715 -0.728981 0)
(0.0780024 -0.743394 0)
(0.0894604 -0.768123 0)
(0.110415 -0.790972 0)
(0.119207 -0.825415 0)
(0.141038 -0.857956 0)
(0.144176 -0.902119 0)
(0.168791 -0.945248 0)
(0.158716 -0.996721 0)
(0.190398 -1.05477 0)
(0.175994 -1.05759 0)
(0.164556 -0.423381 0)
(-0.411547 0.644094 0)
(-0.0694156 0.824323 0)
(-0.18973 0.708612 0)
(-0.0644397 0.761633 0)
(-0.0776317 0.701646 0)
(-0.0166363 0.703283 0)
(0.00508729 0.652067 0)
(0.0431533 0.625353 0)
(0.00778191 -0.71746 0)
(0.0179057 -0.722312 0)
(0.0334531 -0.72923 0)
(0.0426243 -0.743913 0)
(0.0578451 -0.757482 0)
(0.0655254 -0.781919 0)
(0.0804459 -0.803172 0)
(0.0856387 -0.837598 0)
(0.101437 -0.867007 0)
(0.101939 -0.912192 0)
(0.121988 -0.94761 0)
(0.110113 -1.0044 0)
(0.139752 -1.05682 0)
(0.105042 -1.04277 0)
(0.0894769 -0.138206 0)
(-0.375257 0.736596 0)
(-0.0515942 0.724263 0)
(-0.194637 0.721896 0)
(-0.0752024 0.712848 0)
(-0.100118 0.687137 0)
(-0.0433777 0.66668 0)
(-0.0263939 0.630385 0)
(0.00526598 0.599597 0)
(0.00553084 -0.72805 0)
(0.0125779 -0.732772 0)
(0.0234798 -0.739085 0)
(0.0297401 -0.753547 0)
(0.0401301 -0.766531 0)
(0.0452765 -0.79101 0)
(0.055105 -0.811448 0)
(0.0584481 -0.846821 0)
(0.0689866 -0.874782 0)
(0.0698618 -0.923147 0)
(0.0849923 -0.95413 0)
(0.0803592 -1.0151 0)
(0.10965 -1.04788 0)
(0.0490037 -1.01048 0)
(-0.0224856 0.0580374 0)
(-0.305295 0.785232 0)
(-0.0935997 0.639772 0)
(-0.191317 0.735355 0)
(-0.10528 0.663688 0)
(-0.124988 0.673298 0)
(-0.0737439 0.626848 0)
(-0.0622472 0.606373 0)
(-0.0285551 0.565645 0)
(0.00400919 -0.73564 0)
(0.00902233 -0.740316 0)
(0.0164449 -0.746427 0)
(0.0204563 -0.760522 0)
(0.0271149 -0.772932 0)
(0.0304867 -0.796655 0)
(0.036683 -0.816051 0)
(0.0391724 -0.850973 0)
(0.0464933 -0.877828 0)
(0.0492551 -0.927308 0)
(0.0647273 -0.95716 0)
(0.0798534 -1.02777 0)
(0.163508 -1.02432 0)
(0.0724677 -0.909889 0)
(-0.0133018 0.225567 0)
(-0.146918 0.812569 0)
(-0.141091 0.607342 0)
(-0.174485 0.737445 0)
(-0.148393 0.642703 0)
(-0.140367 0.657906 0)
(-0.11272 0.600796 0)
(-0.0883112 0.586199 0)
(-0.0656876 0.54265 0)
(0.00267165 -0.740877 0)
(0.00612417 -0.744981 0)
(0.0125234 -0.750331 0)
(0.0167575 -0.76401 0)
(0.0226831 -0.776432 0)
(0.0263484 -0.80049 0)
(0.0323671 -0.820146 0)
(0.036616 -0.856721 0)
(0.045152 -0.885193 0)
(0.0600218 -0.941931 0)
(0.0852397 -0.985656 0)
(0.155259 -1.11977 0)
(0.181997 -1.03802 0)
(0.174343 -0.830712 0)
(-0.0421928 0.260006 0)
(-0.0214416 0.921335 0)
(-0.203988 0.660736 0)
(-0.166114 0.746374 0)
(-0.199555 0.626423 0)
(-0.160926 0.640426 0)
(-0.152319 0.572616 0)
(-0.116818 0.561605 0)
(-0.0992901 0.514075 0)
(0.00219557 -0.74775 0)
(0.0116126 -0.753473 0)
(0.0150438 -0.760404 0)
(0.0277575 -0.773829 0)
(0.0265036 -0.785796 0)
(0.0478763 -0.809224 0)
(0.0398113 -0.829319 0)
(0.0825992 -0.866289 0)
(0.0742196 -0.90335 0)
(0.17682 -0.96938 0)
(0.194487 -1.05684 0)
(0.309989 -1.11193 0)
(0.152263 -1.05094 0)
(0.157335 -0.680145 0)
(-0.178227 0.414807 0)
(-0.0729386 0.985141 0)
(-0.284641 0.745373 0)
(-0.204186 0.737414 0)
(-0.256912 0.633474 0)
(-0.193158 0.612559 0)
(-0.196439 0.554061 0)
(-0.145117 0.533872 0)
(-0.134501 0.492242 0)
(-0.00767672 -0.750988 0)
(-0.0142601 -0.754657 0)
(-0.033195 -0.76194 0)
(-0.0376374 -0.77326 0)
(-0.0626966 -0.791169 0)
(-0.0597443 -0.812586 0)
(-0.092441 -0.849083 0)
(-0.065583 -0.890789 0)
(-0.101513 -0.975631 0)
(0.00658535 -1.06378 0)
(-0.01181 -1.11906 0)
(0.215849 -1.08441 0)
(0.0741602 -0.875764 0)
(0.140081 -0.502951 0)
(-0.39352 0.500358 0)
(-0.223977 1.02814 0)
(-0.396259 0.79459 0)
(-0.272424 0.720884 0)
(-0.314827 0.614566 0)
(-0.236407 0.582005 0)
(-0.234107 0.523191 0)
(-0.177696 0.501316 0)
(-0.163652 0.462927 0)
(-0.0176784 -0.726725 0)
(-0.0361644 -0.729726 0)
(-0.0699935 -0.737609 0)
(-0.0866909 -0.746658 0)
(-0.12431 -0.763649 0)
(-0.139793 -0.783037 0)
(-0.184241 -0.821706 0)
(-0.197817 -0.863416 0)
(-0.249913 -0.969135 0)
(-0.26058 -1.06927 0)
(-0.310065 -1.25447 0)
(-0.269807 -1.2077 0)
(-0.343392 -0.970139 0)
(-0.432485 -0.211558 0)
(-0.870819 0.760984 0)
(-0.543471 0.995261 0)
(-0.576399 0.783917 0)
(-0.374281 0.659052 0)
(-0.393219 0.593198 0)
(-0.280671 0.532768 0)
(-0.275365 0.493094 0)
(-0.205393 0.46362 0)
(-0.190324 0.435869 0)
(-0.0171384 -0.695745 0)
(-0.0421961 -0.70135 0)
(-0.0778011 -0.709261 0)
(-0.103919 -0.718679 0)
(-0.144766 -0.735223 0)
(-0.17247 -0.753029 0)
(-0.227229 -0.787987 0)
(-0.264744 -0.825601 0)
(-0.355289 -0.911525 0)
(-0.449429 -1.00306 0)
(-0.636473 -1.11238 0)
(-0.861596 -1.05 0)
(-1.0996 -0.709495 0)
(-1.28943 0.0450682 0)
(-1.21351 0.613536 0)
(-0.851928 0.737934 0)
(-0.670381 0.625181 0)
(-0.503389 0.540562 0)
(-0.432612 0.519869 0)
(-0.341709 0.465747 0)
(-0.301184 0.446836 0)
(-0.241865 0.417238 0)
(-0.212326 0.401952 0)
(-0.0170949 -0.667815 0)
(-0.0404596 -0.66998 0)
(-0.0802327 -0.67579 0)
(-0.106009 -0.680996 0)
(-0.153811 -0.694192 0)
(-0.184602 -0.702439 0)
(-0.247906 -0.726994 0)
(-0.295058 -0.737856 0)
(-0.397429 -0.778828 0)
(-0.514404 -0.79084 0)
(-0.73017 -0.832516 0)
(-0.96834 -0.747015 0)
(-1.22611 -0.54122 0)
(-1.28424 -0.09868 0)
(-1.10057 0.316836 0)
(-0.836275 0.446668 0)
(-0.645743 0.432115 0)
(-0.524029 0.419118 0)
(-0.431133 0.429894 0)
(-0.358168 0.400231 0)
(-0.304275 0.392178 0)
(-0.254795 0.37424 0)
(-0.219325 0.364288 0)
(-0.0188528 -0.637063 0)
(-0.0500211 -0.637597 0)
(-0.0899652 -0.642102 0)
(-0.124103 -0.645094 0)
(-0.170623 -0.654647 0)
(-0.212403 -0.659512 0)
(-0.271425 -0.675517 0)
(-0.329765 -0.676986 0)
(-0.411124 -0.691175 0)
(-0.504853 -0.670561 0)
(-0.634065 -0.659363 0)
(-0.796314 -0.553615 0)
(-0.95145 -0.392835 0)
(-1.02167 -0.0816061 0)
(-0.919785 0.163382 0)
(-0.749814 0.279689 0)
(-0.621761 0.312107 0)
(-0.524261 0.325695 0)
(-0.44179 0.353055 0)
(-0.372685 0.339157 0)
(-0.319701 0.342637 0)
(-0.271998 0.332472 0)
(-0.234273 0.328823 0)
(-0.0196478 -0.59904 0)
(-0.0485489 -0.599247 0)
(-0.0896734 -0.601343 0)
(-0.121478 -0.6009 0)
(-0.169955 -0.604805 0)
(-0.20915 -0.602294 0)
(-0.272495 -0.607357 0)
(-0.327319 -0.598623 0)
(-0.413079 -0.59944 0)
(-0.490056 -0.567631 0)
(-0.601152 -0.534592 0)
(-0.698602 -0.429303 0)
(-0.794245 -0.311681 0)
(-0.826572 -0.130529 0)
(-0.756994 0.0430253 0)
(-0.662608 0.146961 0)
(-0.568621 0.204767 0)
(-0.494094 0.238226 0)
(-0.425918 0.276871 0)
(-0.363813 0.277652 0)
(-0.315724 0.290579 0)
(-0.270784 0.288491 0)
(-0.234637 0.290112 0)
(-0.0181663 -0.568056 0)
(-0.0501848 -0.567207 0)
(-0.088092 -0.568011 0)
(-0.122715 -0.564949 0)
(-0.165007 -0.565621 0)
(-0.205349 -0.557585 0)
(-0.255853 -0.556071 0)
(-0.306826 -0.53741 0)
(-0.371065 -0.527753 0)
(-0.438699 -0.483579 0)
(-0.516068 -0.450781 0)
(-0.58964 -0.3606 0)
(-0.640491 -0.264839 0)
(-0.668565 -0.119511 0)
(-0.633379 -0.000510423 0)
(-0.58101 0.0898345 0)
(-0.516446 0.143158 0)
(-0.459693 0.182355 0)
(-0.407032 0.221931 0)
(-0.352105 0.228793 0)
(-0.311348 0.248833 0)
(-0.269311 0.25127 0)
(-0.236731 0.257754 0)
(-0.019126 -0.530483 0)
(-0.04963 -0.529266 0)
(-0.0893386 -0.528277 0)
(-0.12195 -0.52398 0)
(-0.166181 -0.521116 0)
(-0.202877 -0.511376 0)
(-0.254151 -0.5041 0)
(-0.296947 -0.483176 0)
(-0.356537 -0.46491 0)
(-0.406141 -0.422208 0)
(-0.466527 -0.380485 0)
(-0.515405 -0.3047 0)
(-0.551669 -0.230576 0)
(-0.568202 -0.137599 0)
(-0.543247 -0.0445875 0)
(-0.51104 0.0294723 0)
(-0.460755 0.0829 0)
(-0.4215 0.128418 0)
(-0.376735 0.168515 0)
(-0.332328 0.181737 0)
(-0.29779 0.207161 0)
(-0.259715 0.213702 0)
(-0.230672 0.22462 0)
(-0.0168966 -0.498805 0)
(-0.0472959 -0.496827 0)
(-0.0820694 -0.494909 0)
(-0.114218 -0.488352 0)
(-0.151972 -0.483745 0)
(-0.187566 -0.470249 0)
(-0.229867 -0.461016 0)
(-0.270085 -0.4359 0)
(-0.316315 -0.417714 0)
(-0.359667 -0.374447 0)
(-0.402656 -0.341075 0)
(-0.440857 -0.275954 0)
(-0.462771 -0.212038 0)
(-0.477828 -0.128853 0)
(-0.465226 -0.0578239 0)
(-0.446059 0.00622232 0)
(-0.41289 0.0532884 0)
(-0.38428 0.0975975 0)
(-0.347219 0.13214 0)
(-0.31176 0.149506 0)
(-0.282877 0.175561 0)
(-0.248912 0.183936 0)
(-0.223901 0.197913 0)
(-0.017033 -0.465916 0)
(-0.0455833 -0.463816 0)
(-0.080376 -0.460766 0)
(-0.10986 -0.453846 0)
(-0.146789 -0.446888 0)
(-0.177943 -0.43323 0)
(-0.217617 -0.42036 0)
(-0.250691 -0.396446 0)
(-0.291518 -0.373803 0)
(-0.324902 -0.335528 0)
(-0.359806 -0.297728 0)
(-0.388887 -0.244356 0)
(-0.406957 -0.192465 0)
(-0.417356 -0.134897 0)
(-0.407822 -0.0759581 0)
(-0.395087 -0.0229477 0)
(-0.369253 0.0211452 0)
(-0.347973 0.0625916 0)
(-0.316101 0.0956923 0)
(-0.289261 0.11735 0)
(-0.26346 0.143902 0)
(-0.234933 0.154691 0)
(-0.213015 0.171299 0)
(-0.0149997 -0.435866 0)
(-0.0423907 -0.433402 0)
(-0.0728417 -0.43008 0)
(-0.101032 -0.42214 0)
(-0.132672 -0.414933 0)
(-0.162139 -0.399868 0)
(-0.194874 -0.38746 0)
(-0.225383 -0.362599 0)
(-0.257208 -0.34279 0)
(-0.286577 -0.306798 0)
(-0.312659 -0.276627 0)
(-0.335624 -0.229314 0)
(-0.34808 -0.183479 0)
(-0.357307 -0.128755 0)
(-0.353379 -0.0802358 0)
(-0.345166 -0.0331894 0)
(-0.328351 0.00594832 0)
(-0.312043 0.0437475 0)
(-0.28768 0.073027 0)
(-0.266609 0.0964626 0)
(-0.244226 0.120735 0)
(-0.220375 0.133259 0)
(-0.201381 0.150406 0)
(-0.0143715 -0.408147 0)
(-0.0392891 -0.405661 0)
(-0.068319 -0.401619 0)
(-0.09353 -0.393757 0)
(-0.123259 -0.385131 0)
(-0.148823 -0.370788 0)
(-0.178851 -0.356316 0)
(-0.204303 -0.333864 0)
(-0.23239 -0.311706 0)
(-0.256247 -0.279794 0)
(-0.278239 -0.247858 0)
(-0.297203 -0.20872 0)
(-0.308404 -0.170143 0)
(-0.315763 -0.129345 0)
(-0.312462 -0.0877298 0)
(-0.307107 -0.0478828 0)
(-0.293475 -0.0118361 0)
(-0.280527 0.0218856 0)
(-0.26045 0.0501908 0)
(-0.243985 0.0738909 0)
(-0.224037 0.0974303 0)
(-0.204755 0.111874 0)
(-0.18767 0.129683 0)
(-0.012647 -0.381947 0)
(-0.0360696 -0.379361 0)
(-0.0614254 -0.375413 0)
(-0.0849933 -0.367298 0)
(-0.11039 -0.359085 0)
(-0.134029 -0.344538 0)
(-0.158818 -0.331377 0)
(-0.181842 -0.309431 0)
(-0.20434 -0.29031 0)
(-0.224991 -0.261365 0)
(-0.242156 -0.235273 0)
(-0.257216 -0.199526 0)
(-0.265827 -0.164781 0)
(-0.272288 -0.125233 0)
(-0.271655 -0.0889611 0)
(-0.268237 -0.0527641 0)
(-0.259114 -0.0207894 0)
(-0.24917 0.0101939 0)
(-0.234225 0.0362346 0)
(-0.220868 0.0596775 0)
(-0.204524 0.0811631 0)
(-0.188624 0.0966731 0)
(-0.173763 0.113793 0)
(-0.0116751 -0.359125 0)
(-0.032457 -0.356621 0)
(-0.0558235 -0.352313 0)
(-0.0765418 -0.344571 0)
(-0.0997967 -0.335637 0)
(-0.120208 -0.322158 0)
(-0.14259 -0.307975 0)
(-0.162086 -0.288142 0)
(-0.181867 -0.268014 0)
(-0.1992 -0.241776 0)
(-0.214267 -0.215185 0)
(-0.22736 -0.184898 0)
(-0.235345 -0.154711 0)
(-0.24091 -0.123336 0)
(-0.240336 -0.0915286 0)
(-0.238082 -0.0603163 0)
(-0.230686 -0.0307788 0)
(-0.222829 -0.00299101 0)
(-0.210552 0.0218898 0)
(-0.199597 0.0441879 0)
(-0.185487 0.06506 0)
(-0.172543 0.0811348 0)
(-0.159223 0.0981499 0)
(-0.0101879 -0.337586 0)
(-0.0292837 -0.335093 0)
(-0.0495384 -0.330993 0)
(-0.068472 -0.323335 0)
(-0.0882634 -0.31501 0)
(-0.106722 -0.301865 0)
(-0.125346 -0.289071 0)
(-0.142614 -0.270348 0)
(-0.158829 -0.252805 0)
(-0.17368 -0.229191 0)
(-0.185685 -0.206792 0)
(-0.196152 -0.178669 0)
(-0.202604 -0.15108 0)
(-0.207455 -0.12057 0)
(-0.208119 -0.0917972 0)
(-0.206857 -0.0627872 0)
(-0.201912 -0.0361393 0)
(-0.195829 -0.0102944 0)
(-0.186719 0.0128451 0)
(-0.177805 0.0343297 0)
(-0.166592 0.0538841 0)
(-0.155839 0.0702238 0)
(-0.144633 0.0864187 0)
(-0.00912135 -0.319435 0)
(-0.0257083 -0.317078 0)
(-0.0438357 -0.312859 0)
(-0.0602054 -0.305678 0)
(-0.0778767 -0.297076 0)
(-0.0936967 -0.284921 0)
(-0.110183 -0.271743 0)
(-0.124885 -0.254518 0)
(-0.139075 -0.236627 0)
(-0.151711 -0.214798 0)
(-0.162468 -0.19247 0)
(-0.171818 -0.167898 0)
(-0.177845 -0.143212 0)
(-0.182209 -0.117721 0)
(-0.182805 -0.0919774 0)
(-0.182079 -0.0664519 0)
(-0.178041 -0.041727 0)
(-0.173315 -0.0181664 0)
(-0.165815 0.00387011 0)
(-0.158466 0.0240555 0)
(-0.148996 0.0430191 0)
(-0.140085 0.0591834 0)
(-0.130286 0.0750999 0)
(-0.00783023 -0.302551 0)
(-0.0226472 -0.300241 0)
(-0.038133 -0.296229 0)
(-0.0526931 -0.289243 0)
(-0.067599 -0.281218 0)
(-0.0815405 -0.269579 0)
(-0.0952793 -0.257577 0)
(-0.108032 -0.241526 0)
(-0.119727 -0.225692 0)
(-0.130432 -0.205887 0)
(-0.139045 -0.186433 0)
(-0.14654 -0.163388 0)
(-0.151455 -0.140546 0)
(-0.155187 -0.11578 0)
(-0.156309 -0.0918992 0)
(-0.156098 -0.0677649 0)
(-0.153488 -0.0449525 0)
(-0.149903 -0.0227377 0)
(-0.144326 -0.00210361 0)
(-0.138432 0.017324 0)
(-0.131032 0.0353571 0)
(-0.123672 0.0513761 0)
(-0.115666 0.066668 0)
(-0.00676756 -0.28882 0)
(-0.0192807 -0.286652 0)
(-0.0326775 -0.282646 0)
(-0.0449622 -0.276101 0)
(-0.0578708 -0.268036 0)
(-0.0696145 -0.257139 0)
(-0.0814878 -0.245046 0)
(-0.0922179 -0.229983 0)
(-0.102337 -0.214046 0)
(-0.111431 -0.19542 0)
(-0.119141 -0.176241 0)
(-0.125865 -0.155458 0)
(-0.13043 -0.13447 0)
(-0.133864 -0.112823 0)
(-0.134906 -0.0909918 0)
(-0.134961 -0.0692392 0)
(-0.132871 -0.0478824 0)
(-0.130119 -0.0273181 0)
(-0.125578 -0.00760696 0)
(-0.120805 0.0107543 0)
(-0.114656 0.0282057 0)
(-0.108599 0.0438152 0)
(-0.101795 0.0587973 0)
(-0.00563811 -0.27632 0)
(-0.0163921 -0.274189 0)
(-0.0275188 -0.270332 0)
(-0.0380415 -0.263963 0)
(-0.0486842 -0.256338 0)
(-0.058671 -0.245924 0)
(-0.0683865 -0.234748 0)
(-0.0774161 -0.220669 0)
(-0.0856264 -0.206263 0)
(-0.0931304 -0.189086 0)
(-0.0992227 -0.171802 0)
(-0.104555 -0.152116 0)
(-0.108215 -0.132421 0)
(-0.111068 -0.111374 0)
(-0.112271 -0.0907583 0)
(-0.11258 -0.0699082 0)
(-0.11135 -0.0498127 0)
(-0.109375 -0.0301515 0)
(-0.106105 -0.0114767 0)
(-0.102395 0.00628838 0)
(-0.0977209 0.0230579 0)
(-0.0928451 0.0384232 0)
(-0.0874717 0.0529578 0)
(-0.0046004 -0.266726 0)
(-0.0132176 -0.264714 0)
(-0.0223402 -0.260914 0)
(-0.0308231 -0.254881 0)
(-0.0396146 -0.247306 0)
(-0.0477108 -0.237385 0)
(-0.0557871 -0.226197 0)
(-0.0631531 -0.212702 0)
(-0.070065 -0.198248 0)
(-0.0763096 -0.181806 0)
(-0.0816347 -0.16477 0)
(-0.0863165 -0.146466 0)
(-0.0896644 -0.127923 0)
(-0.0922967 -0.108757 0)
(-0.0934267 -0.0894511 0)
(-0.0938823 -0.0701493 0)
(-0.0929717 -0.0510752 0)
(-0.0915377 -0.0325593 0)
(-0.0889579 -0.0145991 0)
(-0.0860765 0.00236525 0)
(-0.0823155 0.0186152 0)
(-0.0784481 0.0335606 0)
(-0.0740602 0.0478003 0)
(-0.00356978 -0.25834 0)
(-0.0104337 -0.256312 0)
(-0.0175216 -0.252551 0)
(-0.0242883 -0.246588 0)
(-0.0311059 -0.239273 0)
(-0.0375534 -0.229683 0)
(-0.0438097 -0.219133 0)
(-0.0496604 -0.206343 0)
(-0.0550038 -0.192939 0)
(-0.0598985 -0.177476 0)
(-0.0639499 -0.161642 0)
(-0.0675053 -0.144061 0)
(-0.0700881 -0.126334 0)
(-0.0721955 -0.107624 0)
(-0.0733162 -0.0891245 0)
(-0.0738909 -0.0704084 0)
(-0.0735375 -0.0521566 0)
(-0.0726769 -0.0342278 0)
(-0.0710233 -0.016971 0)
(-0.0689809 -0.000418187 0)
(-0.0663379 0.0153731 0)
(-0.0634317 0.0301118 0)
(-0.0601835 0.044046 0)
(-0.00255284 -0.252725 0)
(-0.00737291 -0.250765 0)
(-0.0124855 -0.247048 0)
(-0.0172897 -0.241294 0)
(-0.0222642 -0.234015 0)
(-0.0269122 -0.224673 0)
(-0.0315826 -0.214061 0)
(-0.0359468 -0.201506 0)
(-0.040131 -0.187993 0)
(-0.0440271 -0.172872 0)
(-0.047498 -0.157164 0)
(-0.0506494 -0.140345 0)
(-0.0530433 -0.123236 0)
(-0.0550221 -0.105535 0)
(-0.0561212 -0.0877546 0)
(-0.0568065 -0.0699258 0)
(-0.056668 -0.0522902 0)
(-0.0561728 -0.03507 0)
(-0.0549853 -0.0183064 0)
(-0.0535507 -0.00231995 0)
(-0.0516205 0.0130384 0)
(-0.0495492 0.0274038 0)
(-0.0471375 0.0410741 0)
(-0.00164037 -0.248273 0)
(-0.00476685 -0.246253 0)
(-0.00792272 -0.24249 0)
(-0.0109309 -0.236709 0)
(-0.0139721 -0.229511 0)
(-0.0169163 -0.220288 0)
(-0.0198333 -0.209964 0)