/*--------------------------------*- C++ -*----------------------------------*\
| =========                 |                                                 |
| \\      /  F ield         | OpenFOAM: The Open Source CFD Toolbox           |
|  \\    /   O peration     | Version:  2012                                  |
|   \\  /    A nd           | Website:  www.openfoam.com                      |
|    \\/     M anipulation  |                                                 |
\*---------------------------------------------------------------------------*/
FoamFile
{
    version     2.0;
    format      ascii;
    class       volVectorField;
    location    "0.11";
    object      Uc;
}
// * * * * * * * * * * * * * * * * * * * * * * * * * * * * * * * * * * * * * //

dimensions      [0 1 -1 0 0 0 0];


internalField   nonuniform List<vector> 
2268
(
(0.0316552 -0.01496 0)
(0.0952172 -0.015079 0)
(0.15963 -0.0153621 0)
(0.225438 -0.0157384 0)
(0.293197 -0.016284 0)
(0.36362 -0.0169975 0)
(0.4372 -0.0177756 0)
(0.514908 -0.0189487 0)
(0.597274 -0.019977 0)
(0.685359 -0.0216514 0)
(0.780449 -0.0232871 0)
(0.881786 -0.0246041 0)
(0.989593 -0.0263447 0)
(1.10848 -0.0298418 0)
(1.24458 -0.0344762 0)
(1.39961 -0.0387903 0)
(1.552 -0.0332258 0)
(1.65728 -0.0165309 0)
(1.70015 -0.00373042 0)
(1.70872 -0.000318201 0)
(1.71012 -0.000367123 0)
(1.67571 0.0164217 0)
(0.820284 0.386807 0)
(0.0315947 -0.0448514 0)
(0.0950371 -0.0452089 0)
(0.159325 -0.0460552 0)
(0.225 -0.0471833 0)
(0.29262 -0.0488181 0)
(0.362899 -0.0509584 0)
(0.43632 -0.0532857 0)
(0.513868 -0.0568115 0)
(0.59607 -0.0598882 0)
(0.683921 -0.0648864 0)
(0.778827 -0.0698427 0)
(0.880325 -0.0739071 0)
(0.988779 -0.0792451 0)
(1.10862 -0.0897658 0)
(1.24524 -0.103435 0)
(1.39437 -0.113575 0)
(1.53217 -0.0955795 0)
(1.62925 -0.0498148 0)
(1.68311 -0.0159291 0)
(1.71579 -0.00737283 0)
(1.7362 -0.00361633 0)
(1.69453 0.055446 0)
(0.823355 1.16263 0)
(0.0314737 -0.0746571 0)
(0.0946716 -0.0752525 0)
(0.158707 -0.0766565 0)
(0.224118 -0.0785321 0)
(0.291455 -0.0812492 0)
(0.361442 -0.084816 0)
(0.434534 -0.0886688 0)
(0.511737 -0.0945628 0)
(0.593603 -0.0996744 0)
(0.680997 -0.10792 0)
(0.775471 -0.116309 0)
(0.877019 -0.123399 0)
(0.986138 -0.132576 0)
(1.10716 -0.150266 0)
(1.24505 -0.172664 0)
(1.38885 -0.182782 0)
(1.512 -0.149694 0)
(1.60167 -0.0837805 0)
(1.66852 -0.0385948 0)
(1.72431 -0.0262065 0)
(1.75445 -0.0084011 0)
(1.65348 0.127874 0)
(0.774064 1.91744 0)
(0.0312941 -0.104321 0)
(0.0941261 -0.10515 0)
(0.157788 -0.107108 0)
(0.222811 -0.109722 0)
(0.289732 -0.113509 0)
(0.35929 -0.118504 0)
(0.431903 -0.12384 0)
(0.508588 -0.132119 0)
(0.589962 -0.139264 0)
(0.676717 -0.150632 0)
(0.770479 -0.162556 0)
(0.87184 -0.173046 0)
(0.981527 -0.186335 0)
(1.10355 -0.211371 0)
(1.24115 -0.241751 0)
(1.37871 -0.246667 0)
(1.49256 -0.197813 0)
(1.58318 -0.120684 0)
(1.66507 -0.0717365 0)
(1.73469 -0.0519245 0)
(1.74122 0.000620162 0)
(1.47074 0.294745 0)
(0.611561 2.57227 0)
(0.031053 -0.133786 0)
(0.093394 -0.134841 0)
(0.156552 -0.137351 0)
(0.221051 -0.140691 0)
(0.287404 -0.145525 0)
(0.356371 -0.151954 0)
(0.428322 -0.15871 0)
(0.504261 -0.169378 0)
(0.584914 -0.178578 0)
(0.670802 -0.192908 0)
(0.763505 -0.208401 0)
(0.86425 -0.222714 0)
(0.974064 -0.240401 0)
(1.09656 -0.272864 0)
(1.23231 -0.309442 0)
(1.36318 -0.305834 0)
(1.47386 -0.242566 0)
(1.57455 -0.164115 0)
(1.67501 -0.114107 0)
(1.74913 -0.0766196 0)
(1.65375 0.067975 0)
(1.13553 0.6003 0)
(0.368328 3.03538 0)
(0.0307539 -0.162995 0)
(0.0924874 -0.164268 0)
(0.155021 -0.167325 0)
(0.218875 -0.171375 0)
(0.284527 -0.177225 0)
(0.352762 -0.185094 0)
(0.423914 -0.193199 0)
(0.498928 -0.206228 0)
(0.578665 -0.217527 0)
(0.663528 -0.234655 0)
(0.754927 -0.253659 0)
(0.854656 -0.272199 0)
(0.964202 -0.294585 0)
(1.08657 -0.334398 0)
(1.21897 -0.37464 0)
(1.34408 -0.361607 0)
(1.45649 -0.290029 0)
(1.57394 -0.217317 0)
(1.69215 -0.163344 0)
(1.72764 -0.0781797 0)
(1.45948 0.241708 0)
(0.754576 1.00465 0)
(0.148942 3.27987 0)
(0.0303892 -0.191891 0)
(0.0913823 -0.193372 0)
(0.153152 -0.196966 0)
(0.216213 -0.201713 0)
(0.281003 -0.208533 0)
(0.348321 -0.217848 0)
(0.418478 -0.227226 0)
(0.492327 -0.242553 0)
(0.570853 -0.255996 0)
(0.65442 -0.275784 0)
(0.74425 -0.298177 0)
(0.842463 -0.321226 0)
(0.950963 -0.348605 0)
(1.07193 -0.395373 0)
(1.1993 -0.436434 0)
(1.31947 -0.415029 0)
(1.43845 -0.345216 0)
(1.57445 -0.281155 0)
(1.69265 -0.209909 0)
(1.64002 -0.0228074 0)
(1.22998 0.506953 0)
(0.470815 1.43132 0)
(0.0123535 3.35612 0)
(0.0299657 -0.220414 0)
(0.0901035 -0.222095 0)
(0.150991 -0.226211 0)
(0.213144 -0.231643 0)
(0.276955 -0.239378 0)
(0.343233 -0.25014 0)
(0.412296 -0.260728 0)
(0.484877 -0.278253 0)
(0.562064 -0.293885 0)
(0.644271 -0.316239 0)
(0.73253 -0.341886 0)
(0.829076 -0.369558 0)
(0.936204 -0.402178 0)
(1.05419 -0.454726 0)
(1.17514 -0.49444 0)
(1.29133 -0.468022 0)
(1.42066 -0.408579 0)
(1.57439 -0.353402 0)
(1.65078 -0.228335 0)
(1.45642 0.112634 0)
(0.93699 0.810791 0)
(0.250422 1.81074 0)
(-0.0531328 3.33687 0)
(-0.0105308 0.00448112 0)
(0.00796104 -0.0123436 0)
(0.0525463 -0.00661819 0)
(0.0873389 -0.00817841 0)
(0.115799 -0.00392469 0)
(0.130779 -0.0024449 0)
(0.137373 -0.000357709 0)
(0.13686 0.000577805 0)
(0.131996 0.00149309 0)
(0.123585 0.00208663 0)
(0.113037 0.00240215 0)
(0.101095 0.00267911 0)
(0.088303 0.00276396 0)
(0.0750561 0.00287248 0)
(0.0615322 0.00288173 0)
(0.0479053 0.00291628 0)
(0.0342179 0.00290749 0)
(0.0205327 0.00291528 0)
(0.00684044 0.00291052 0)
(-0.0110155 0.0136496 0)
(0.00795985 -0.0374426 0)
(0.0545814 -0.0203089 0)
(0.0904375 -0.0245333 0)
(0.118737 -0.0117081 0)
(0.133342 -0.00724088 0)
(0.139432 -0.000952476 0)
(0.138353 0.00185355 0)
(0.133017 0.00456011 0)
(0.124274 0.00632018 0)
(0.113485 0.00724823 0)
(0.101382 0.00806424 0)
(0.0884832 0.00831044 0)
(0.0751661 0.00862875 0)
(0.0615983 0.00865261 0)
(0.0479436 0.00875325 0)
(0.034239 0.00872532 0)
(0.0205431 0.00874759 0)
(0.00684355 0.00873287 0)
(-0.0213086 0.0274026 0)
(-0.00694983 -0.0653681 0)
(0.0492049 -0.0360944 0)
(0.0900016 -0.0413473 0)
(0.119779 -0.019593 0)
(0.134595 -0.0118654 0)
(0.140474 -0.00141465 0)
(0.139119 0.00335526 0)
(0.13345 0.00774365 0)
(0.124521 0.0106574 0)
(0.113597 0.0121504 0)
(0.101427 0.0134905 0)
(0.0884805 0.0138813 0)
(0.0751404 0.0144003 0)
(0.0615608 0.0144319 0)
(0.0479052 0.014594 0)
(0.0342068 0.014544 0)
(0.0205219 0.0145789 0)
(0.00683622 0.0145534 0)
(-0.0223317 0.0459692 0)
(-0.00679516 -0.0966443 0)
(0.0550088 -0.0549871 0)
(0.0999675 -0.058926 0)
(0.129677 -0.0273127 0)
(0.142628 -0.0159521 0)
(0.146533 -0.0014851 0)
(0.143503 0.00529521 0)
(0.136463 0.0112136 0)
(0.126534 0.0152128 0)
(0.114909 0.01719 0)
(0.102266 0.0190091 0)
(0.089009 0.019512 0)
(0.0754636 0.0202089 0)
(0.0617544 0.0202341 0)
(0.0480163 0.0204472 0)
(0.0342675 0.0203691 0)
(0.0205512 0.0204125 0)
(0.00684494 0.0203744 0)
(-0.0461074 0.0750844 0)
(-0.0406436 -0.134685 0)
(0.0432689 -0.0789221 0)
(0.0989894 -0.0778104 0)
(0.132022 -0.0351113 0)
(0.145278 -0.0192965 0)
(0.148426 -0.00113602 0)
(0.144814 0.0077753 0)
(0.137161 0.0149877 0)
(0.126924 0.0200205 0)
(0.115057 0.0223783 0)
(0.102294 0.0246309 0)
(0.088956 0.025206 0)
(0.0753764 0.0260562 0)
(0.0616552 0.0260581 0)
(0.0479246 0.0263106 0)
(0.0341945 0.0261974 0)
(0.0205047 0.0262449 0)
(0.00682899 0.0261925 0)
(-0.0416446 0.112415 0)
(-0.0275913 -0.180311 0)
(0.0630544 -0.107541 0)
(0.120747 -0.0974272 0)
(0.150956 -0.0423901 0)
(0.159715 -0.0213775 0)
(0.158809 -4.45539e-06 0)
(0.152071 0.0110503 0)
(0.142024 0.019246 0)
(0.130126 0.0251812 0)
(0.117145 0.0277906 0)
(0.103628 0.0304005 0)
(0.0897999 0.0309955 0)
(0.0758936 0.0319616 0)
(0.061965 0.0319172 0)
(0.0481015 0.0321922 0)
(0.0342905 0.032034 0)
(0.0205505 0.0320791 0)
(0.00684257 0.0320095 0)
(-0.0622214 0.1566 0)
(-0.0490377 -0.236074 0)
(0.0657158 -0.139141 0)
(0.126811 -0.11635 0)
(0.156516 -0.0489474 0)
(0.164145 -0.021786 0)
(0.161314 0.00199779 0)
(0.153589 0.0152039 0)
(0.142722 0.0239924 0)
(0.130461 0.0307148 0)
(0.117181 0.0334311 0)
(0.103524 0.0363218 0)
(0.0896106 0.0368781 0)
(0.0756816 0.0379224 0)
(0.0617583 0.0378069 0)
(0.0479245 0.0380873 0)
(0.0341557 0.0378737 0)
(0.0204669 0.0379098 0)
(0.00681417 0.0378202 0)
(0.0178417 0.175483 0)
(0.0771039 -0.285764 0)
(0.143854 -0.166649 0)
(0.177911 -0.12931 0)
(0.188578 -0.0531546 0)
(0.185977 -0.0197128 0)
(0.175925 0.00540868 0)
(0.163266 0.0204675 0)
(0.149083 0.0293881 0)
(0.134607 0.0366956 0)
(0.119897 0.0393599 0)
(0.105266 0.0424287 0)
(0.0907198 0.0428806 0)
(0.0763641 0.0439545 0)
(0.0621689 0.0437387 0)
(0.048159 0.0440024 0)
(0.0342829 0.0437209 0)
(0.0205274 0.0437395 0)
(0.00683214 0.0436264 0)
(0.0292517 -0.26398 0)
(0.0879519 -0.265956 0)
(0.147351 -0.270835 0)
(0.207967 -0.277325 0)
(0.270129 -0.28634 0)
(0.334621 -0.299329 0)
(0.401795 -0.311702 0)
(0.472211 -0.332363 0)
(0.54698 -0.351413 0)
(0.626612 -0.37761 0)
(0.711903 -0.407963 0)
(0.804817 -0.442506 0)
(0.907885 -0.483464 0)
(1.01803 -0.53992 0)
(1.12885 -0.57369 0)
(1.24038 -0.551624 0)
(1.36644 -0.511101 0)
(1.48661 -0.441598 0)
(1.45894 -0.147308 0)
(1.1726 0.411376 0)
(0.757544 1.17476 0)
(0.505501 2.02461 0)
(0.667682 3.10348 0)
(0.0280101 -0.321541 0)
(0.0842148 -0.3239 0)
(0.141032 -0.329714 0)
(0.198962 -0.33761 0)
(0.25827 -0.348159 0)
(0.31964 -0.36403 0)
(0.383459 -0.378679 0)
(0.450134 -0.403194 0)
(0.520601 -0.426577 0)
(0.595503 -0.457786 0)
(0.67535 -0.493787 0)
(0.761741 -0.536922 0)
(0.856646 -0.588056 0)
(0.954992 -0.644911 0)
(1.05342 -0.674925 0)
(1.16311 -0.667432 0)
(1.28256 -0.638483 0)
(1.29261 -0.442103 0)
(1.04129 0.134264 0)
(0.665537 0.795382 0)
(0.442289 1.4324 0)
(0.503584 1.95873 0)
(0.924025 2.58374 0)
(0.0265657 -0.376402 0)
(0.0798726 -0.379123 0)
(0.133693 -0.385707 0)
(0.188486 -0.394929 0)
(0.244479 -0.406743 0)
(0.30222 -0.42518 0)
(0.362095 -0.441868 0)
(0.424455 -0.469713 0)
(0.489894 -0.496674 0)
(0.559179 -0.532629 0)
(0.632459 -0.572871 0)
(0.711071 -0.623703 0)
(0.795069 -0.681113 0)
(0.879893 -0.735626 0)
(0.968586 -0.77178 0)
(1.06836 -0.778213 0)
(1.12879 -0.704514 0)
(0.981577 -0.236848 0)
(0.61382 0.55138 0)
(0.324135 1.04719 0)
(0.28233 1.44705 0)
(0.479444 1.68434 0)
(0.903852 2.00888 0)
(0.0249401 -0.428177 0)
(0.0749818 -0.431236 0)
(0.125443 -0.43842 0)
(0.176715 -0.448835 0)
(0.22902 -0.461701 0)
(0.282737 -0.482262 0)
(0.338248 -0.500774 0)
(0.395827 -0.531371 0)
(0.455776 -0.56106 0)
(0.518758 -0.6012 0)
(0.584687 -0.644236 0)
(0.654569 -0.701607 0)
(0.726595 -0.760048 0)
(0.798968 -0.814354 0)
(0.876266 -0.858125 0)
(0.95312 -0.865395 0)
(0.892236 -0.613965 0)
(0.58527 0.129495 0)
(0.270071 0.871568 0)
(0.164421 1.12441 0)
(0.22686 1.3491 0)
(0.424071 1.38591 0)
(0.752818 1.55023 0)
(0.0231453 -0.476513 0)
(0.0695737 -0.479873 0)
(0.116336 -0.487513 0)
(0.163734 -0.498926 0)
(0.211997 -0.512703 0)
(0.261318 -0.534836 0)
(0.312105 -0.555053 0)
(0.364463 -0.587603 0)
(0.418568 -0.619478 0)
(0.474747 -0.662565 0)
(0.532969 -0.707671 0)
(0.593619 -0.769385 0)
(0.654512 -0.825884 0)
(0.716156 -0.883228 0)
(0.778183 -0.926286 0)
(0.82438 -0.916415 0)
(0.677999 -0.353057 0)
(0.325108 0.531938 0)
(0.111421 1.00078 0)
(0.113232 1.09958 0)
(0.202958 1.22097 0)
(0.356295 1.16167 0)
(0.570398 1.22879 0)
(0.0212365 -0.521127 0)
(0.0638215 -0.524738 0)
(0.10666 -0.532717 0)
(0.149964 -0.544898 0)
(0.193967 -0.559479 0)
(0.238695 -0.5826 0)
(0.284575 -0.60446 0)
(0.331518 -0.638015 0)
(0.379679 -0.671867 0)
(0.428966 -0.716193 0)
(0.479542 -0.763409 0)
(0.530788 -0.826127 0)
(0.582523 -0.882358 0)
(0.634845 -0.941046 0)
(0.680202 -0.972924 0)
(0.644067 -0.87602 0)
(0.408935 -0.00928515 0)
(0.128541 0.824772 0)
(0.0437953 1.00794 0)
(0.0895532 1.04461 0)
(0.174846 1.10001 0)
(0.288825 1.01392 0)
(0.422983 1.02647 0)
(0.0192113 -0.561786 0)
(0.057725 -0.565601 0)
(0.0964092 -0.573802 0)
(0.135408 -0.586546 0)
(0.174932 -0.601795 0)
(0.214897 -0.625419 0)
(0.255694 -0.648772 0)
(0.297101 -0.682515 0)
(0.339237 -0.718135 0)
(0.381707 -0.76216 0)
(0.424586 -0.811384 0)
(0.465449 -0.870743 0)
(0.512639 -0.924701 0)
(0.559315 -0.984669 0)
(0.58802 -1.00021 0)
(0.470882 -0.691998 0)
(0.185525 0.330094 0)
(0.00989143 0.94381 0)
(0.0141618 0.96981 0)
(0.070411 0.980215 0)
(0.150449 0.998225 0)
(0.236111 0.915029 0)
(0.326095 0.900048 0)
(0.0171221 -0.598309 0)
(0.0514482 -0.602298 0)
(0.0858617 -0.610584 0)
(0.120472 -0.623757 0)
(0.155427 -0.639452 0)
(0.190603 -0.663295 0)
(0.226278 -0.687767 0)
(0.262213 -0.721266 0)
(0.298449 -0.758165 0)
(0.334612 -0.801175 0)
(0.371034 -0.852084 0)
(0.406335 -0.906604 0)
(0.442137 -0.959786 0)
(0.473927 -1.01394 0)
(0.492484 -1.01474 0)
(0.342478 -0.407223 0)
(0.0587977 0.61737 0)
(-0.0458135 0.938248 0)
(-0.00657833 0.931646 0)
(0.0437991 0.911202 0)
(0.113357 0.916868 0)
(0.180265 0.843024 0)
(0.246289 0.815233 0)
(0.014971 -0.630569 0)
(0.0449953 -0.634724 0)
(0.075021 -0.642934 0)
(0.105152 -0.656487 0)
(0.135447 -0.672313 0)
(0.165802 -0.696308 0)
(0.19632 -0.721293 0)
(0.22686 -0.754563 0)
(0.257338 -0.791931 0)
(0.287564 -0.834145 0)
(0.317755 -0.886075 0)
(0.346697 -0.937191 0)
(0.374745 -0.993408 0)
(0.398209 -1.03331 0)
(0.398121 -1.01034 0)
(0.224256 -0.0850275 0)
(-0.0298229 0.835759 0)
(-0.0779463 0.873398 0)
(-0.0248052 0.903644 0)
(0.0197064 0.843826 0)
(0.0798398 0.853882 0)
(0.133961 0.784355 0)
(0.186379 0.754845 0)
(0.0127954 -0.658481 0)
(0.0384833 -0.662816 0)
(0.0641218 -0.670797 0)
(0.0898215 -0.684746 0)
(0.115539 -0.700358 0)
(0.141184 -0.724555 0)
(0.16666 -0.749332 0)
(0.191983 -0.782677 0)
(0.216843 -0.819444 0)
(0.241258 -0.861559 0)
(0.264957 -0.912834 0)
(0.287323 -0.962008 0)
(0.309618 -1.01928 0)
(0.329713 -1.04873 0)
(0.265482 -0.927151 0)
(0.0456528 0.228075 0)
(-0.12239 0.946989 0)
(-0.107245 0.795325 0)
(-0.0538184 0.8746 0)
(-0.010508 0.784596 0)
(0.0395805 0.80232 0)
(0.0864064 0.734447 0)
(0.13064 0.707598 0)
(0.0106201 -0.682018 0)
(0.0319552 -0.686547 0)
(0.0531846 -0.694179 0)
(0.0743997 -0.708524 0)
(0.0954654 -0.723607 0)
(0.116301 -0.748029 0)
(0.136696 -0.771969 0)
(0.156816 -0.805721 0)
(0.176071 -0.840746 0)
(0.194782 -0.883607 0)
(0.212027 -0.931944 0)
(0.228199 -0.981637 0)
(0.245248 -1.03935 0)
(0.256826 -1.05851 0)
(0.121474 -0.714403 0)
(-0.119052 0.478291 0)
(-0.183217 0.9302 0)
(-0.126978 0.740365 0)
(-0.0803538 0.828992 0)
(-0.0338284 0.739904 0)
(0.00727338 0.75535 0)
(0.0486549 0.692754 0)
(0.0853524 0.667941 0)
(0.00844937 -0.701188 0)
(0.02543 -0.705894 0)
(0.0423153 -0.713146 0)
(0.0591141 -0.72777 0)
(0.075623 -0.742132 0)
(0.0917732 -0.766683 0)
(0.107272 -0.789396 0)
(0.122301 -0.823626 0)
(0.136105 -0.856074 0)
(0.149179 -0.90023 0)
(0.159833 -0.943366 0)
(0.170606 -0.9973 0)
(0.181626 -1.05197 0)
(0.180886 -1.05529 0)
(0.0271835 -0.425443 0)
(-0.179554 0.638983 0)
(-0.181876 0.836346 0)
(-0.126018 0.721542 0)
(-0.0968526 0.771634 0)
(-0.0570319 0.71047 0)
(-0.0246551 0.710926 0)
(0.0109791 0.659764 0)
(0.041927 0.632936 0)
(0.00642262 -0.716137 0)
(0.0192629 -0.720921 0)
(0.0318607 -0.727756 0)
(0.0441345 -0.742384 0)
(0.055949 -0.75599 0)
(0.0673022 -0.780473 0)
(0.0779366 -0.801876 0)
(0.0881207 -0.836491 0)
(0.0972585 -0.866271 0)
(0.106 -0.911962 0)
(0.111814 -0.94819 0)
(0.124736 -1.0047 0)
(0.134808 -1.05396 0)
(0.119495 -1.03581 0)
(-0.0166279 -0.152436 0)
(-0.175205 0.733212 0)
(-0.165734 0.734934 0)
(-0.127156 0.728029 0)
(-0.10964 0.718226 0)
(-0.0781644 0.692214 0)
(-0.0519528 0.670292 0)
(-0.0213276 0.633796 0)
(0.00516798 0.601164 0)
(0.00453102 -0.727148 0)
(0.0135515 -0.731885 0)
(0.0223379 -0.738289 0)
(0.030796 -0.752693 0)
(0.0388469 -0.765651 0)
(0.0464653 -0.789883 0)
(0.0534769 -0.810205 0)
(0.0601768 -0.845136 0)
(0.0663922 -0.873064 0)
(0.0730974 -0.92071 0)
(0.0797557 -0.952015 0)
(0.0898799 -1.01265 0)
(0.0893197 -1.04382 0)
(0.0493987 -0.989233 0)
(-0.0718105 0.0605232 0)
(-0.179853 0.788268 0)
(-0.16951 0.659963 0)
(-0.144224 0.738806 0)
(-0.130746 0.676297 0)
(-0.106231 0.677864 0)
(-0.0827958 0.63474 0)
(-0.0557058 0.611336 0)
(-0.0308551 0.572014 0)
(0.00326583 -0.735095 0)
(0.00964363 -0.739653 0)
(0.0156294 -0.74565 0)
(0.0211721 -0.759785 0)
(0.0263694 -0.772411 0)
(0.0312828 -0.796543 0)
(0.0358502 -0.816416 0)
(0.0404361 -0.85219 0)
(0.0452918 -0.879966 0)
(0.0521861 -0.931703 0)
(0.0642639 -0.965921 0)
(0.0968357 -1.04938 0)
(0.118317 -1.03339 0)
(0.0713099 -0.912562 0)
(-0.024546 0.202786 0)
(-0.111296 0.841816 0)
(-0.151122 0.636054 0)
(-0.159293 0.745514 0)
(-0.152705 0.649423 0)
(-0.135029 0.662331 0)
(-0.113116 0.604691 0)
(-0.0881867 0.589097 0)
(-0.0639247 0.544887 0)
(0.00219933 -0.743779 0)
(0.00685657 -0.748425 0)
(0.0119779 -0.754396 0)
(0.0171705 -0.768124 0)
(0.0221075 -0.780499 0)
(0.0269163 -0.804346 0)
(0.0319009 -0.824247 0)
(0.0376405 -0.860685 0)
(0.0466645 -0.891427 0)
(0.0623947 -0.949271 0)
(0.0956582 -1.00077 0)
(0.14013 -1.09973 0)
(0.168362 -1.03875 0)
(0.118589 -0.811156 0)
(0.0152448 0.302045 0)
(-0.0734503 0.918953 0)
(-0.150206 0.676115 0)
(-0.184494 0.748138 0)
(-0.182068 0.637742 0)
(-0.168541 0.642651 0)
(-0.145662 0.579348 0)
(-0.12113 0.564725 0)
(-0.0957047 0.519315 0)
(0.0031385 -0.752249 0)
(0.00933719 -0.757041 0)
(0.015915 -0.763658 0)
(0.0223485 -0.776506 0)
(0.0295344 -0.790047 0)
(0.0374225 -0.812891 0)
(0.0487211 -0.836904 0)
(0.0654678 -0.874687 0)
(0.0969121 -0.921307 0)
(0.149732 -0.990384 0)
(0.212698 -1.0572 0)
(0.235336 -1.11101 0)
(0.184602 -1.00535 0)
(0.0628136 -0.672583 0)
(-0.0740087 0.404913 0)
(-0.155808 0.987517 0)
(-0.213734 0.742947 0)
(-0.239028 0.741207 0)
(-0.228862 0.63202 0)
(-0.210598 0.616421 0)
(-0.183249 0.555092 0)
(-0.15549 0.536422 0)
(-0.127391 0.493816 0)
(-0.0057927 -0.749605 0)
(-0.0181036 -0.753589 0)
(-0.0309277 -0.760879 0)
(-0.0446063 -0.772048 0)
(-0.0581696 -0.788138 0)
(-0.071528 -0.809341 0)
(-0.0812133 -0.842112 0)
(-0.0852036 -0.882333 0)
(-0.0704454 -0.96013 0)
(-0.0301564 -1.04517 0)
(0.0440306 -1.14029 0)
(0.117302 -1.12434 0)
(0.120247 -0.943988 0)
(-0.0173036 -0.473408 0)
(-0.222874 0.549773 0)
(-0.313294 1.01579 0)
(-0.325533 0.785215 0)
(-0.315932 0.714721 0)
(-0.286331 0.618537 0)
(-0.256492 0.581554 0)
(-0.221432 0.527228 0)
(-0.188793 0.503576 0)
(-0.157307 0.466768 0)
(-0.0137379 -0.729978 0)
(-0.0407018 -0.733748 0)
(-0.0669923 -0.741413 0)
(-0.093618 -0.75101 0)
(-0.121064 -0.767963 0)
(-0.149746 -0.787267 0)
(-0.179814 -0.824237 0)
(-0.21125 -0.864608 0)
(-0.243871 -0.95991 0)
(-0.275255 -1.05435 0)
(-0.292977 -1.18788 0)
(-0.303677 -1.13966 0)
(-0.351991 -0.883072 0)
(-0.527114 -0.220131 0)
(-0.686838 0.663596 0)
(-0.638102 0.94388 0)
(-0.520971 0.751699 0)
(-0.431991 0.649149 0)
(-0.362313 0.584318 0)
(-0.308899 0.532089 0)
(-0.26031 0.492611 0)
(-0.219892 0.464757 0)
(-0.183402 0.437259 0)
(-0.0150937 -0.701 0)
(-0.0454915 -0.705072 0)
(-0.0766149 -0.712382 0)
(-0.109177 -0.720552 0)
(-0.143606 -0.736232 0)
(-0.181719 -0.751861 0)
(-0.225992 -0.784918 0)
(-0.281409 -0.816625 0)
(-0.360219 -0.895885 0)
(-0.476993 -0.969448 0)
(-0.650774 -1.08028 0)
(-0.870183 -1.01595 0)
(-1.09288 -0.734361 0)
(-1.22962 -0.0553653 0)
(-1.14853 0.577877 0)
(-0.901656 0.732455 0)
(-0.677447 0.620011 0)
(-0.530137 0.543318 0)
(-0.429703 0.519154 0)
(-0.355969 0.469444 0)
(-0.297774 0.447918 0)
(-0.250301 0.421103 0)
(-0.210161 0.403885 0)
(-0.014631 -0.671122 0)
(-0.0451679 -0.673702 0)
(-0.0778263 -0.679642 0)
(-0.112969 -0.685237 0)
(-0.151495 -0.698215 0)
(-0.195028 -0.707809 0)
(-0.246625 -0.732603 0)
(-0.312024 -0.747496 0)
(-0.404617 -0.79272 0)
(-0.54312 -0.816005 0)
(-0.740061 -0.861067 0)
(-0.977807 -0.775618 0)
(-1.18103 -0.546543 0)
(-1.22893 -0.0575848 0)
(-1.08536 0.354274 0)
(-0.858885 0.480236 0)
(-0.666226 0.453188 0)
(-0.534005 0.429153 0)
(-0.438308 0.436169 0)
(-0.364707 0.404326 0)
(-0.306802 0.396332 0)
(-0.259416 0.377339 0)
(-0.21983 0.36751 0)
(-0.0174354 -0.63889 0)
(-0.0527759 -0.639716 0)
(-0.0895115 -0.643875 0)
(-0.128531 -0.646459 0)
(-0.17121 -0.655368 0)
(-0.218802 -0.659057 0)
(-0.273777 -0.674231 0)
(-0.338335 -0.675235 0)
(-0.417431 -0.6924 0)
(-0.517226 -0.676785 0)
(-0.646148 -0.672726 0)
(-0.798632 -0.571693 0)
(-0.934368 -0.409737 0)
(-0.983046 -0.0973147 0)
(-0.906805 0.173053 0)
(-0.763907 0.290156 0)
(-0.632475 0.317486 0)
(-0.530658 0.329598 0)
(-0.44731 0.355747 0)
(-0.378507 0.341604 0)
(-0.322507 0.344557 0)
(-0.27569 0.334421 0)
(-0.235717 0.330455 0)
(-0.0172507 -0.604024 0)
(-0.0521134 -0.604015 0)
(-0.0882523 -0.606324 0)
(-0.12686 -0.60598 0)
(-0.169233 -0.610354 0)
(-0.217089 -0.608127 0)
(-0.27262 -0.614081 0)
(-0.337612 -0.605161 0)
(-0.413736 -0.606446 0)
(-0.501731 -0.573971 0)
(-0.601068 -0.546092 0)
(-0.701717 -0.443874 0)
(-0.782049 -0.320361 0)
(-0.804718 -0.114972 0)
(-0.75427 0.0633594 0)
(-0.6659 0.167375 0)
(-0.576264 0.218046 0)
(-0.498162 0.248182 0)
(-0.429513 0.284374 0)
(-0.369088 0.283076 0)
(-0.318002 0.295441 0)
(-0.274215 0.292461 0)
(-0.236127 0.293948 0)
(-0.0172623 -0.569333 0)
(-0.0521223 -0.568623 0)
(-0.0880896 -0.569236 0)
(-0.125733 -0.566422 0)
(-0.165963 -0.566881 0)
(-0.209599 -0.559633 0)
(-0.258002 -0.558102 0)
(-0.312415 -0.541114 0)
(-0.374463 -0.531602 0)
(-0.443888 -0.490576 0)
(-0.51806 -0.455075 0)
(-0.58707 -0.364348 0)
(-0.637906 -0.268036 0)
(-0.655906 -0.126417 0)
(-0.632073 0.000133652 0)
(-0.580765 0.0901946 0)
(-0.520914 0.144961 0)
(-0.462991 0.184532 0)
(-0.408426 0.224168 0)
(-0.35735 0.2312 0)
(-0.312489 0.250872 0)
(-0.272909 0.253229 0)
(-0.237809 0.259611 0)
(-0.0173503 -0.534541 0)
(-0.0523466 -0.533197 0)
(-0.0883058 -0.532364 0)
(-0.125845 -0.527722 0)
(-0.165595 -0.525186 0)
(-0.208058 -0.514782 0)
(-0.253842 -0.508277 0)
(-0.30318 -0.486649 0)
(-0.356289 -0.470312 0)
(-0.411288 -0.426795 0)
(-0.466216 -0.389084 0)
(-0.514961 -0.311971 0)
(-0.549466 -0.234626 0)
(-0.560542 -0.1306 0)
(-0.544054 -0.0362153 0)
(-0.508998 0.0397285 0)
(-0.465773 0.0918136 0)
(-0.422206 0.135659 0)
(-0.378641 0.174399 0)
(-0.336416 0.187182 0)
(-0.298309 0.211491 0)
(-0.263183 0.217514 0)
(-0.231411 0.228108 0)
(-0.0161876 -0.500829 0)
(-0.0487679 -0.498982 0)
(-0.0820741 -0.496955 0)
(-0.116511 -0.490782 0)
(-0.15259 -0.485904 0)
(-0.190616 -0.473159 0)
(-0.230959 -0.463326 0)
(-0.27339 -0.439354 0)
(-0.317588 -0.419794 0)
(-0.361727 -0.37766 0)
(-0.403723 -0.340791 0)
(-0.439152 -0.275653 0)
(-0.463429 -0.211856 0)
(-0.473295 -0.13232 0)
(-0.465884 -0.0585188 0)
(-0.444753 0.00555154 0)
(-0.416065 0.0537021 0)
(-0.384055 0.0977993 0)
(-0.349298 0.133529 0)
(-0.314922 0.151052 0)
(-0.282938 0.177166 0)
(-0.252316 0.185747 0)
(-0.224183 0.199658 0)
(-0.0157826 -0.468693 0)
(-0.0474792 -0.466508 0)
(-0.0796428 -0.46362 0)
(-0.112515 -0.456459 0)
(-0.14638 -0.449921 0)
(-0.181295 -0.435823 0)
(-0.217397 -0.423819 0)
(-0.254231 -0.399185 0)
(-0.291414 -0.378159 0)
(-0.327182 -0.338973 0)
(-0.360333 -0.303941 0)
(-0.388208 -0.248869 0)
(-0.407128 -0.195218 0)
(-0.414457 -0.131675 0)
(-0.40905 -0.0720506 0)
(-0.39376 -0.0175279 0)
(-0.372217 0.0262875 0)
(-0.347034 0.0677233 0)
(-0.318896 0.100382 0)
(-0.290933 0.121534 0)
(-0.264026 0.147488 0)
(-0.237697 0.158179 0)
(-0.213191 0.174314 0)
(-0.0144578 -0.438296 0)
(-0.0434588 -0.435893 0)
(-0.0728012 -0.43241 0)
(-0.102604 -0.424669 0)
(-0.133045 -0.417073 0)
(-0.164042 -0.402416 0)
(-0.195583 -0.389233 0)
(-0.227126 -0.365041 0)
(-0.258144 -0.343748 0)
(-0.287424 -0.307998 0)
(-0.313628 -0.275253 0)
(-0.334813 -0.228241 0)
(-0.349102 -0.182464 0)
(-0.355854 -0.130275 0)
(-0.354099 -0.0806503 0)
(-0.344746 -0.0336994 0)
(-0.330115 0.00609522 0)
(-0.311568 0.0439579 0)
(-0.289909 0.074092 0)
(-0.26758 0.0972699 0)
(-0.24502 0.122027 0)
(-0.222636 0.134673 0)
(-0.201472 0.151911 0)
(-0.0135157 -0.410178 0)
(-0.0405837 -0.407651 0)
(-0.0678322 -0.403767 0)
(-0.0952868 -0.395757 0)
(-0.12303 -0.387499 0)
(-0.150899 -0.372818 0)
(-0.178824 -0.359057 0)
(-0.20621 -0.335983 0)
(-0.232697 -0.315003 0)
(-0.257248 -0.282632 0)
(-0.279014 -0.252401 0)
(-0.296858 -0.211861 0)
(-0.309056 -0.172221 0)
(-0.314714 -0.128045 0)
(-0.313531 -0.0858345 0)
(-0.306575 -0.0449093 0)
(-0.295108 -0.00892982 0)
(-0.28013 0.0252831 0)
(-0.26263 0.0534038 0)
(-0.244304 0.0770911 0)
(-0.225274 0.100399 0)
(-0.206282 0.114709 0)
(-0.188022 0.132246 0)
(-0.0122648 -0.384264 0)
(-0.0367917 -0.381703 0)
(-0.0613886 -0.377601 0)
(-0.0860073 -0.36958 0)
(-0.110665 -0.361004 0)
(-0.135164 -0.346673 0)
(-0.159359 -0.332812 0)
(-0.182807 -0.31113 0)
(-0.205076 -0.290848 0)
(-0.225407 -0.261672 0)
(-0.242977 -0.23382 0)
(-0.257001 -0.198409 0)
(-0.266704 -0.16366 0)
(-0.271937 -0.125658 0)
(-0.272357 -0.0889882 0)
(-0.268174 -0.0529535 0)
(-0.260214 -0.020414 0)
(-0.24916 0.0105998 0)
(-0.235778 0.0370436 0)
(-0.221202 0.0603775 0)
(-0.205618 0.0823186 0)
(-0.189787 0.0977846 0)
(-0.174171 0.115118 0)
(-0.0111102 -0.360768 0)
(-0.0333117 -0.358228 0)
(-0.0555239 -0.354024 0)
(-0.0776642 -0.346156 0)
(-0.0997142 -0.337479 0)
(-0.121444 -0.323728 0)
(-0.142731 -0.31004 0)
(-0.16312 -0.289837 0)
(-0.182305 -0.270471 0)
(-0.19976 -0.244068 0)
(-0.214952 -0.218492 0)
(-0.227309 -0.18722 0)
(-0.235982 -0.156378 0)
(-0.240625 -0.123013 0)
(-0.241148 -0.0906851 0)
(-0.238003 -0.0586236 0)
(-0.231729 -0.0290516 0)
(-0.222832 -0.000817411 0)
(-0.211921 0.0240406 0)
(-0.199785 0.0465293 0)
(-0.186672 0.0673208 0)
(-0.173276 0.0834023 0)
(-0.159851 0.100309 0)
(-0.00993325 -0.339616 0)
(-0.0297582 -0.337137 0)
(-0.0495231 -0.332921 0)
(-0.0691154 -0.32531 0)
(-0.0884781 -0.316698 0)
(-0.107415 -0.303632 0)
(-0.125759 -0.290299 0)
(-0.143191 -0.271561 0)
(-0.159404 -0.253164 0)
(-0.173951 -0.229206 0)
(-0.186331 -0.205639 0)
(-0.196217 -0.177716 0)
(-0.203289 -0.150056 0)
(-0.207502 -0.120434 0)
(-0.208719 -0.0915158 0)
(-0.206998 -0.0626849 0)
(-0.202653 -0.0356641 0)
(-0.196056 -0.00977995 0)
(-0.187696 0.0136316 0)
(-0.178105 0.0350982 0)
(-0.167515 0.054925 0)
(-0.156476 0.0712355 0)
(-0.145189 0.0876353 0)
(-0.00876535 -0.32082 0)
(-0.0262532 -0.318426 0)
(-0.0436713 -0.314256 0)
(-0.0609031 -0.30696 0)
(-0.0778907 -0.298509 0)
(-0.0944288 -0.286162 0)
(-0.110391 -0.273284 0)
(-0.125486 -0.255881 0)
(-0.139482 -0.238479 0)
(-0.152094 -0.216592 0)
(-0.163011 -0.194837 0)
(-0.171917 -0.169628 0)
(-0.178374 -0.144543 0)
(-0.182221 -0.117845 0)
(-0.18342 -0.0916761 0)
(-0.182182 -0.0654993 0)
(-0.17877 -0.040647 0)
(-0.17349 -0.0167364 0)
(-0.166675 0.00533409 0)
(-0.158715 0.0257531 0)
(-0.149859 0.0447216 0)
(-0.140538 0.0609729 0)
(-0.130909 0.0768736 0)
(-0.007668 -0.304302 0)
(-0.0229537 -0.302001 0)
(-0.0381375 -0.297911 0)
(-0.0531018 -0.290943 0)
(-0.0677682 -0.282708 0)
(-0.081978 -0.271056 0)
(-0.0955959 -0.258658 0)
(-0.108396 -0.242467 0)
(-0.120165 -0.225994 0)
(-0.130645 -0.205867 0)
(-0.139538 -0.18565 0)
(-0.146696 -0.162668 0)
(-0.151976 -0.139706 0)
(-0.15536 -0.115414 0)
(-0.156796 -0.0914589 0)
(-0.156307 -0.0674523 0)
(-0.15403 -0.0444124 0)
(-0.150164 -0.0221647 0)
(-0.14497 -0.00130999 0)
(-0.138741 0.0181349 0)
(-0.131682 0.0363408 0)
(-0.124109 0.052372 0)
(-0.116167 0.0678119 0)
(-0.00655424 -0.290006 0)
(-0.01962 -0.287799 0)
(-0.0326015 -0.283802 0)
(-0.0453929 -0.277152 0)
(-0.0579302 -0.269154 0)
(-0.0700634 -0.258131 0)
(-0.0816828 -0.246215 0)
(-0.0926015 -0.231068 0)
(-0.102666 -0.215446 0)
(-0.111712 -0.196789 0)
(-0.119553 -0.177907 0)
(-0.12601 -0.156724 0)
(-0.130846 -0.135482 0)
(-0.133973 -0.113093 0)
(-0.135363 -0.0909396 0)
(-0.135121 -0.0687071 0)
(-0.133383 -0.0471935 0)
(-0.130328 -0.0263402 0)
(-0.126147 -0.00655975 0)
(-0.121059 0.0120092 0)
(-0.115238 0.0295198 0)
(-0.108937 0.045247 0)
(-0.102283 0.0602644 0)
(-0.00554226 -0.277847 0)
(-0.0165857 -0.275724 0)
(-0.027537 -0.27182 0)
(-0.0383033 -0.265454 0)
(-0.0488147 -0.257684 0)
(-0.058954 -0.247214 0)
(-0.0686194 -0.235738 0)
(-0.0776628 -0.22148 0)
(-0.0859427 -0.206594 0)
(-0.0933059 -0.189146 0)
(-0.0995882 -0.171353 0)
(-0.104714 -0.151636 0)
(-0.108603 -0.131801 0)
(-0.111253 -0.110968 0)
(-0.112643 -0.0902705 0)
(-0.112785 -0.0694774 0)
(-0.11174 -0.0492214 0)
(-0.10961 -0.0295232 0)
(-0.10653 -0.010676 0)
(-0.102665 0.0071251 0)
(-0.0981509 0.024016 0)
(-0.0931723 0.0394125 0)
(-0.0878434 0.0540535 0)
(-0.00448353 -0.26777 0)
(-0.0134265 -0.265712 0)
(-0.0223203 -0.261885 0)
(-0.0310912 -0.255752 0)
(-0.039684 -0.248184 0)
(-0.0479951 -0.238168 0)
(-0.0559433 -0.227078 0)
(-0.0634119 -0.213542 0)
(-0.0703049 -0.199282 0)
(-0.0765156 -0.182815 0)
(-0.0819326 -0.165925 0)
(-0.0864603 -0.147361 0)
(-0.0899734 -0.128636 0)
(-0.0924159 -0.109015 0)
(-0.0937519 -0.0894829 0)
(-0.0940307 -0.0698425 0)
(-0.0933197 -0.050622 0)
(-0.0917173 -0.0318739 0)
(-0.0893294 -0.0138216 0)
(-0.0862843 0.0033241 0)
(-0.0826919 0.0196685 0)
(-0.078698 0.0347407 0)
(-0.0743975 0.0490458 0)
(-0.00352365 -0.259721 0)
(-0.0105562 -0.257703 0)
(-0.0175528 -0.253922 0)
(-0.0244542 -0.247962 0)
(-0.0312077 -0.240549 0)
(-0.0377374 -0.230886 0)
(-0.0439754 -0.220101 0)
(-0.049832 -0.207125 0)
(-0.0552176 -0.193356 0)
(-0.0600372 -0.177653 0)
(-0.0641938 -0.161464 0)
(-0.0676447 -0.143802 0)
(-0.0703609 -0.125933 0)
(-0.072346 -0.107267 0)
(-0.073577 -0.0886508 0)
(-0.0740532 -0.0699159 0)
(-0.0737971 -0.0515209 0)
(-0.0728549 -0.033533 0)
(-0.071288 -0.0161381 0)
(-0.0691774 0.000457931 0)
(-0.0665997 0.0163327 0)
(-0.0636553 0.0311021 0)
(-0.0604243 0.0451138 0)
(-0.00249912 -0.253667 0)
(-0.00749665 -0.251665 0)
(-0.0124939 -0.247905 0)
(-0.0174491 -0.242061 0)
(-0.0223313 -0.234754 0)
(-0.0270948 -0.22533 0)
(-0.0317103 -0.214748 0)
(-0.0361297 -0.202149 0)
(-0.0403081 -0.188719 0)
(-0.044188 -0.173546 0)
(-0.0476996 -0.157863 0)
(-0.0507531 -0.140865 0)
(-0.0532396 -0.123641 0)
(-0.0551069 -0.105687 0)
(-0.0563226 -0.0877714 0)
(-0.0569036 -0.0697328 0)
(-0.0568759 -0.0519896 0)
(-0.0562896 -0.0346008 0)
(-0.0552025 -0.0177383 0)
(-0.0536945 -0.00157934 0)
(-0.0518385 0.0139133 0)
(-0.0497036 0.0284158 0)
(-0.0473384 0.0421748 0)
(-0.00161392 -0.249533 0)
(-0.00480998 -0.247563 0)
(-0.00794563 -0.243831 0)
(-0.0110216 -0.238062 0)
(-0.0140524 -0.230799 0)
(-0.0170343 -0.221499 0)