/*--------------------------------*- C++ -*----------------------------------*\
| =========                 |                                                 |
| \\      /  F ield         | OpenFOAM: The Open Source CFD Toolbox           |
|  \\    /   O peration     | Version:  2012                                  |
|   \\  /    A nd           | Website:  www.openfoam.com                      |
|    \\/     M anipulation  |                                                 |
\*---------------------------------------------------------------------------*/
FoamFile
{
    version     2.0;
    format      ascii;
    class       volScalarField;
    location    "0.55";
    object      minKappa;
}
// * * * * * * * * * * * * * * * * * * * * * * * * * * * * * * * * * * * * * //

dimensions      [0 0 0 0 0 0 0];


internalField   nonuniform List<scalar> 
2268
(
4.86048e-07
1.20902e-06
1.90965e-06
2.5686e-06
3.14311e-06
3.74677e-06
4.43819e-06
4.81636e-06
5.24983e-06
5.58634e-06
5.74749e-06
5.8703e-06
5.89095e-06
5.88108e-06
5.77264e-06
5.54625e-06
5.27178e-06
4.8833e-06
4.45116e-06
3.86724e-06
3.06405e-06
2.21276e-06
1.14416e-06
4.86048e-07
1.20902e-06
1.90965e-06
2.5686e-06
3.14311e-06
3.74677e-06
4.43819e-06
4.81636e-06
5.24983e-06
5.58634e-06
5.74749e-06
5.8703e-06
5.89095e-06
5.88108e-06
5.77264e-06
5.54625e-06
5.27178e-06
4.8833e-06
4.45116e-06
3.86724e-06
3.06405e-06
2.21276e-06
1.14416e-06
7.61161e-07
1.36351e-06
1.99723e-06
2.6408e-06
3.20902e-06
3.81853e-06
4.46735e-06
4.838e-06
5.2854e-06
5.61676e-06
5.76262e-06
5.91562e-06
5.95187e-06
5.90977e-06
5.79846e-06
5.5758e-06
5.33067e-06
4.96912e-06
4.56831e-06
3.99774e-06
3.21249e-06
2.36617e-06
1.38448e-06
1.07511e-06
1.59633e-06
2.1397e-06
2.75318e-06
3.31189e-06
3.93119e-06
4.51939e-06
4.88525e-06
5.3597e-06
5.65181e-06
5.82927e-06
5.9759e-06
6.01323e-06
5.93829e-06
5.81726e-06
5.60622e-06
5.3893e-06
5.05746e-06
4.68338e-06
4.19533e-06
3.50447e-06
2.93431e-06
2.07722e-06
1.40604e-06
1.88409e-06
2.33088e-06
2.90213e-06
3.44864e-06
4.07778e-06
4.5927e-06
4.96025e-06
5.45811e-06
5.7053e-06
5.91539e-06
6.05448e-06
6.08835e-06
6.00131e-06
5.88813e-06
5.66836e-06
5.47827e-06
5.17732e-06
4.84576e-06
4.42722e-06
3.83989e-06
3.5168e-06
2.72208e-06
1.75256e-06
2.19485e-06
2.55669e-06
3.08009e-06
3.61521e-06
4.25049e-06
4.69304e-06
5.08027e-06
5.59229e-06
5.79058e-06
6.01823e-06
6.15822e-06
6.17077e-06
6.06878e-06
5.95517e-06
5.72474e-06
5.55824e-06
5.30263e-06
5.02764e-06
4.71489e-06
4.22486e-06
4.22839e-06
3.62576e-06
2.11874e-06
2.51768e-06
2.81686e-06
3.29135e-06
3.81774e-06
4.44596e-06
4.82308e-06
5.24101e-06
5.73903e-06
5.88758e-06
6.14691e-06
6.27764e-06
6.29175e-06
6.17768e-06
6.07169e-06
5.80524e-06
5.65296e-06
5.438e-06
5.24181e-06
5.04771e-06
4.69508e-06
5.02298e-06
4.53943e-06
2.51319e-06
2.85863e-06
3.11597e-06
3.54436e-06
4.06445e-06
4.66311e-06
4.99396e-06
5.45069e-06
5.89635e-06
6.01801e-06
6.33319e-06
6.40703e-06
6.44354e-06
6.29559e-06
6.19352e-06
5.88521e-06
5.74636e-06
5.58051e-06
5.47105e-06
5.3998e-06
5.16959e-06
5.91294e-06
5.85127e-06
0.00155919
0.00136375
0.00105227
0.00091452
0.000995315
0.000678727
0.000656832
0.00080754
0.000851233
0.000769195
0.000617182
0.000589392
0.000566819
0.000542531
0.000505501
0.000473053
0.000452428
0.000347077
0.000212061
0.00155919
0.00103335
0.00060383
0.000479374
0.000706515
0.000678727
0.000656832
0.00080754
0.000851233
0.000769195
0.000617182
0.000589392
0.000566819
0.000542531
0.000505501
0.000473053
0.000452428
0.000330917
0.000212061
0.00198102
0.000644088
0.000295342
0.000479374
0.000706515
0.000867483
0.0013946
0.000886329
0.000859787
0.00123592
0.000988008
0.00101253
0.00116855
0.00129061
0.00111384
0.000801615
0.000597345
0.000330917
0.000237945
0.00165778
0.000644088
0.000234021
0.000524585
0.000627753
0.000598818
0.00176305
0.00145621
0.000859787
0.00102122
0.00102525
0.00147095
0.00160191
0.00151807
0.0013937
0.00137892
0.00119882
0.000617811
0.000263557
0.00158689
0.000773991
0.000234021
0.000582288
0.000258548
0.000254744
0.000503135
0.00244505
0.00200219
0.00102122
0.000730448
0.000842028
0.000859528
0.000764422
0.000728955
0.000826789
0.00105072
0.00091834
0.000304527
0.00158689
0.000862206
0.000548131
0.000530958
7.71606e-05
6.4957e-05
0.000391839
0.00101834
0.00282175
0.00173475
0.000730448
0.00052691
0.000415742
0.000414441
0.000312322
0.000331915
0.000739894
0.00114674
0.000373342
0.00160112
0.000706816
0.000516929
0.000246479
3.92528e-05
5.26097e-05
0.000221665
0.000671142
0.0019477
0.00239775
0.00096647
0.00052691
0.000234971
0.000310819
0.0002313
0.000227613
0.000582811
0.00129496
0.000682506
0.00141956
0.000706816
0.000516929
0.000152757
3.92528e-05
5.26097e-05
0.000307325
0.000671142
0.0019477
0.00247312
0.00144172
0.000586472
0.000209309
0.000310819
0.0002313
0.000227613
0.000582811
0.00132971
0.000785623
6.83097e-06
7.41408e-06
7.81631e-06
8.5218e-06
9.38029e-06
1.02203e-05
1.03509e-05
1.08247e-05
1.08171e-05
1.0417e-05
1.06385e-05
1.04422e-05
1.04228e-05
1.00855e-05
9.93933e-06
9.37161e-06
9.17563e-06
8.94884e-06
9.06758e-06
9.16631e-06
9.62471e-06
1.14533e-05
1.38806e-05
8.96185e-05
9.07313e-05
9.31151e-05
9.72568e-05
0.00010047
0.000101027
9.58045e-05
9.32208e-05
7.76689e-05
5.41108e-05
4.27853e-05
3.34328e-05
2.72316e-05
2.02006e-05
1.40032e-05
1.27445e-05
1.24837e-05
1.24837e-05
1.25708e-05
1.27471e-05
1.39919e-05
1.58663e-05
1.84946e-05
0.000197909
0.000189125
0.000190076
0.000183178
0.000163157
0.000138995
0.000111565
7.34064e-05
9.82048e-05
0.000120732
0.000146605
9.88209e-05
0.000114754
9.59891e-05
3.69495e-05
2.86471e-05
2.17585e-05
1.38849e-05
1.36735e-05
1.37093e-05
1.52328e-05
1.67296e-05
1.78659e-05
0.000188487
0.000180464
0.000173293
0.000154671
0.000125978
9.03163e-05
3.99345e-05
2.93999e-05
2.93999e-05
6.3369e-05
0.000146573
0.000242724
0.000183988
0.000194089
3.67289e-05
3.12401e-05
5.59889e-05
2.38527e-05
2.46536e-05
2.12024e-05
1.82019e-05
1.82899e-05
1.70809e-05
0.000196977
0.00019237
0.000185789
0.000180743
0.000163615
0.000143003
0.000111715
7.56632e-05
8.52413e-05
0.000119374
0.000140042
0.000127229
0.000165967
0.000159551
0.000121757
3.12401e-05
0.000115391
0.000177066
9.29879e-05
8.02502e-05
3.99415e-05
3.37908e-05
3.84863e-05
0.000181876
0.000175423
0.00016713
0.000154213
0.000136707
0.000116571
9.6178e-05
8.29363e-05
7.94879e-05
7.94879e-05
0.000108857
0.000127229
8.61411e-05
0.000197752
0.000187829
0.00015272
0.00026222
0.000228434
0.000168788
0.00013773
0.000168963
0.00022082
0.000229915
0.000193722
0.000190488
0.00018254
0.000176928
0.000161245
0.000149115
0.000126947
0.000116561
0.000102284
0.000106011
0.000107084
7.53499e-05
7.53499e-05
7.965e-05
0.000124997
0.000135403
0.000226631
0.000298598
0.000285345
0.000273639
0.000272305
0.000308781
0.000253639
0.000183667
0.000179159
0.000173594
0.000165441
0.000155332
0.000144531
0.000134097
0.000128234
0.000126447
0.00012698
0.00012952
0.000126989
9.83904e-05
0.000142705
0.00013906
0.000135403
0.000139929
0.000170095
0.000192188
0.000217527
0.000257403
0.000337539
0.000237438
0.000195876
0.00019351
0.000188013
0.000184225
0.000172974
0.000167033
0.000153049
0.000148558
0.00013937
0.000140322
0.000137887
0.000128946
0.000126487
0.000126487
0.000138169
0.000136923
0.000160533
0.000168578
0.000146832
0.000139192
0.000139192
0.0001719
0.000184323
0.000197241
0.000194472
0.000190936
0.000185716
0.000179958
0.000174257
0.000168727
0.000165017
0.000157696
0.000159177
0.000150703
0.000157045
0.000143149
0.000158694
0.000157228
0.00015629
0.000167793
0.000172205
0.000167341
0.000162966
0.000143788
0.000131657
8.41412e-05
0.000208645
0.000207763
0.000203352
0.000201493
0.000193204
0.000190877
0.000181937
0.00018002
0.000173146
0.000174841
0.000168385
0.00017527
0.000169066
0.000175768
0.000175596
0.000175923
0.000176545
0.000165798
0.000145073
0.000120837
0.000103127
9.8027e-05
6.56582e-05
0.000218654
0.000216858
0.000214865
0.000211792
0.000206944
0.000205456
0.000198371
0.000197241
0.00019067
0.000192523
0.000185521
0.000192611
0.000185589
0.00019555
0.000191037
0.000193939
0.000190509
0.000185107
0.000167322
0.000152442
0.000119665
6.8483e-05
2.81241e-05
0.000229676
0.000229324
0.000226137
0.000225715
0.000220103
0.000219336
0.000213899
0.000212616
0.000207925
0.000209599
0.000203992
0.000209717
0.000202864
0.000206578
0.000202687
0.000198969
0.000190535
0.000177404
0.000158842
0.000133751
0.000103086
7.17117e-05
4.4892e-05
0.000243793
0.00024376
0.000241029
0.00024112
0.000236346
0.000235937
0.000231488
0.000230462
0.000226249
0.000227665
0.000221981
0.000226323
0.000219183
0.000224601
0.00021619
0.000218327
0.000207002
0.000201974
0.000183477
0.000168801
0.00014001
0.000116756
9.35813e-05
0.000257889
0.000258096
0.000255785
0.000256141
0.000252385
0.000251936
0.000248905
0.000247725
0.000244888
0.000245979
0.000241399
0.000245528
0.000238776
0.000244215
0.000234851
0.000237329
0.000225701
0.00022293
0.000207277
0.000199094
0.000178213
0.000170298
0.000159525
0.000274952
0.000275371
0.000273167
0.000273768
0.000270672
0.000270369
0.000268186
0.000267143
0.000265091
0.000265903
0.000262163
0.000265579
0.000259742
0.00026474
0.00025609
0.000260773
0.00024902
0.000251005
0.000236799
0.000235355
0.000222687
0.00022724
0.00021138
0.000292738
0.000293293
0.000291356
0.000292021
0.000289806
0.000289491
0.000288506
0.00028742
0.000286672
0.000287321
0.00028494
0.000288425
0.000283874
0.000289495
0.000281933
0.000288979
0.000278239
0.000285579
0.000273909
0.000281888
0.000275526
0.000292413
0.000271942
0.000312619
0.000313319
0.000311526
0.000312238
0.000310618
0.000310438
0.000310243
0.000309312
0.000309625
0.000310263
0.00030938
0.000312788
0.000310085
0.000315926
0.000310646
0.000319467
0.000311294
0.000323228
0.000314869
0.000331317
0.000330279
0.000358844
0.000323534
0.000333883
0.000334677
0.000332988
0.000333601
0.000332622
0.000332547
0.000333305
0.00033257
0.000334318
0.000335218
0.000336221
0.000340087
0.000339561
0.000346137
0.000343674
0.000354285
0.000349256
0.000365369
0.000360423
0.000384003
0.000386906
0.00042389
0.000375321
0.000356217
0.000357055
0.000355504
0.000356043
0.000355553
0.000355698
0.000357087
0.000356756
0.000359751
0.000360959
0.000363954
0.000368283
0.000370424
0.000377806
0.000379153
0.000391147
0.000390763
0.000409875
0.000409859
0.000438881
0.00044649
0.000489965
0.000428591
0.000379539
0.000380212
0.000379008
0.000379366
0.00037935
0.000379605
0.000381568
0.000381657
0.000385862
0.000387535
0.000392698
0.000397888
0.000402954
0.00041174
0.000417181
0.000430855
0.00043558
0.000457153
0.000462458
0.000495134
0.000507175
0.000553901
0.000473568
0.000402794
0.00040303
0.000402314
0.000402438
0.000402637
0.000403021
0.000405321
0.00040591
0.000410992
0.000413203
0.000420404
0.000426336
0.000434478
0.000444622
0.000454557
0.000469938
0.00048084
0.000504702
0.000517081
0.000553348
0.000571216
0.000621131
0.00053196
0.000425617
0.000425287
0.00042534
0.000425184
0.000425751
0.000426288
0.000428908
0.000429934
0.000435515
0.00043805
0.000446522
0.000452907
0.000463519
0.000475055
0.000489206
0.00050676
0.000524104
0.000551032
0.000571365
0.000611337
0.000635719
0.000688039
0.000578657
0.000446945
0.000446124
0.000446766
0.000446255
0.000447039
0.000447598
0.000450211
0.000451454
0.000457009
0.000459613
0.000468793
0.000475474
0.000488304
0.000501267
0.000519531
0.000539398
0.000563412
0.000593391
0.000622227
0.000665762
0.000698095
0.000757831
0.000640872
0.000466459
0.000465487
0.000466543
0.000465965
0.000467218
0.000467997
0.00047091
0.000472611
0.000478399
0.000481528
0.000491256
0.000498264
0.000512394
0.000526073
0.000545824
0.000566255
0.00059115
0.000621551
0.000656844
0.000699896
0.000746021
0.000802847
0.000681437
0.000483897
0.000482981
0.000484099
0.000483567
0.000485111
0.000486011
0.0004891
0.000491146
0.000497102
0.00050075
0.000509966
0.000517869
0.000529891
0.000544372
0.000562364
0.000584706
0.000612766
0.00064708
0.000688183
0.000737193
0.000792017
0.000858923
0.000737527
0.000499032
0.000498265
0.000499419
0.000499223
0.000501252
0.000502653
0.000506457
0.000509434
0.000516278
0.00052122
0.00053211
0.000540469
0.000556194
0.000570407
0.000592506
0.00061459
0.000642718
0.000674431
0.000713075
0.000759491
0.000814714
0.000883046
0.000762473
0.000512217
0.000511596
0.00051274
0.000512868
0.0005153
0.000517208
0.00052156
0.000525622
0.000531443
0.000538477
0.000547562
0.000558367
0.000571518
0.000587211
0.00060601
0.000628745
0.00065668
0.000690079
0.000731393
0.000780894
0.000841678
0.000914394
0.00080044
0.000523228
0.000522716
0.000523943
0.000524465
0.000527444
0.000530031
0.00053558
0.000540694
0.000549883
0.000557998
0.000571615
0.000583567
0.000602116
0.000619057
0.000643486
0.000667322
0.000700737
0.000734284
0.000777049
0.000822315
0.000877918
0.000942417
0.000819743
0.000532589
0.000532154
0.000533426
0.000534288
0.00053667
0.000539983
0.000544885
0.000551371
0.00055986
0.000570172
0.000582761
0.000597434
0.000614524
0.000633934
0.000656276
0.000681869
0.000711628
0.000746413
0.00078855
0.000838154
0.000899211
0.000968712
0.000856033
0.000540151
0.000539802
0.00054123
0.000542406
0.000546603
0.000550562
0.000558317
0.000565881
0.000578077
0.000589868
0.000607132
0.000623783
0.000646492
0.000668482
0.000697556
0.000726447
0.000764008
0.000802287
0.000851984
0.000902108
0.000964444
0.00102634
0.000886565
0.000545718
0.000545718
0.00054618
0.000547453
0.000550404
0.000554906
0.000561458
0.000570039
0.000581037
0.000594428
0.000610461
0.000629162
0.000650586
0.000674769
0.000701981
0.000732439
0.00076677
0.000805475
0.000849946
0.000901253
0.000963001
0.00103526
0.00091784
0.000550979
0.000550732
0.000552481
0.000554101
0.00055857
0.000564269
0.000572285
0.000582604
0.00059569
0.000611552
0.000630546
0.000652761
0.000678327
0.000707287
0.000740584
0.000775717
0.000818645
0.000863825
0.000919198
0.000978614
0.00105071
0.00112655
0.000980873
0.000552158
0.000552158
0.000552782
0.000554369
0.000557855
0.000562987
0.000570427
0.000580011
0.00059231
0.000607167
0.000625065
0.000645841
0.000669768
0.000696848
0.000727568
0.000762492
0.000802379
0.000847763
0.000899094
0.000957108
0.00102206
0.001102
0.00100757
0.000555647
0.000555647
0.000556765
0.00055895
0.000563119
0.00056904
0.000577417
0.000588104
0.000601695
0.000618043
0.000637677
0.000660444
0.000686729
0.000716596
0.000750857
0.000790324
0.000836604
0.000890923
0.000955206
0.00103195
0.00111913
0.00123021
0.00114959
0.000553021
0.000553021
0.000553656
0.000555202
0.000558576
0.000563468
0.000570644
0.000579853
0.000591754
0.000606032
0.000623196
0.00064284
0.000665399
0.000690635
0.000719878
0.000753597
0.000794326
0.000842692
0.000902823
0.000976548
0.00107327
0.0012078
0.00112104
0.000554829
0.000554473
0.000556005
0.000557319
0.000561756
0.000566629
0.000574899
0.000583996
0.000597254
0.000610271
0.000629414
0.000645167
0.000668449
0.000687416
0.000716459
0.000741684
0.000783944
0.000827605
0.000908029
0.0010125
0.00115767
0.00137157
0.00139831
0.000549654
0.000549654
0.000549918
0.00055086
0.000553457
0.000557337
0.000563219
0.000570701
0.000580299
0.000591531
0.000604683
0.000619165
0.000635104
0.000651889
0.000670707
0.000691491
0.000718043
0.000753427
0.000810025
0.000913204
0.00111049
0.00139234
0.00150544
0.000550176
0.00054946
0.000550357
0.000550781
0.000554693
0.000557369
0.000564834
0.000570155
0.000581014
0.00058859
0.000601674
0.000609684
0.000622291
0.000627241
0.000637418
0.000637788
0.00064961
0.000668908
0.000742997
0.000880726
0.0011137
0.0015285
0.00175069
0.000543729
0.000543538
0.000543538
0.00054369
0.000545125
0.000547466
0.000551324
0.0005562
0.000562392
0.000569246
0.00057661
0.000583477
0.000589106
0.000591203
0.000589126
0.000572347
0.000562206
0.000564575
0.00063617
0.000767989
0.00103724
0.00144106
0.00170456
0.000543735
0.000542712
0.00054294
0.000542381
0.000544826
0.000545687
0.000550671
0.000553066
0.000559973
0.000562833
0.00056958
0.000569676
0.00057168
0.000562296
0.000553035
0.000526132
0.000505322
0.000526668
0.000593903
0.000904112
0.00147463
0.00197566
0.00188099
0.000536452
0.00053573
0.000535043
0.000535043
0.000535256
0.000535959
0.000537676
0.000539894
0.000542778
0.000545583
0.000547995
0.000546806
0.000540076
0.000527497
0.000506989
0.000482037
0.000482037
0.00049725
0.000714816
0.00127973
0.00190725
0.00224553
0.0018095
1.06809e-05
9.16772e-06
7.71588e-06
7.71588e-06
1.25354e-05
1.25354e-05
1.34307e-05
1.42746e-05
1.22538e-05
1.22538e-05
1.3017e-05
1.38068e-05
1.18474e-05
1.18474e-05
1.27902e-05
1.36988e-05
4.00119e-05
4.16084e-05
4.41329e-05
4.57251e-05
0.000211714
0.000211714
0.000217948
0.000217948
0.000115673
0.000104166
0.000104166
0.000134996
0.000142308
0.000136127
0.000122414
0.000122414
0.000121203
0.000121203
0.000133988
0.000150318
5.57704e-05
5.57704e-05
5.53592e-05
5.53592e-05
4.36405e-05
4.36405e-05
4.6501e-05
4.94474e-05
2.80906e-05
2.80906e-05
4.82094e-05
7.15788e-05
4.37736e-05
4.37736e-05
6.09444e-05
8.45534e-05
7.31977e-05
7.31977e-05
8.39287e-05
0.000100037
0.000112175
0.000112175
0.000125407
0.000142978
0.000144805
0.000144805
0.000156965
0.000171598
0.000185971
0.000185971
0.000200556
0.000217083
0.000219189
0.000219189
0.000233333
0.00024883
0.000253399
0.000253399
0.000268244
0.000284124
0.000287838
0.000287838
0.00030265
0.00031839
0.000316487
0.000316487
0.000330825
0.000345945
0.000354136
0.000354136
0.000368369
0.000383343
0.000383963
0.000383963
0.000397641
0.000411765
0.000425205
0.000425205
0.000439911
0.000454843
0.000452396
0.000452396
0.00046813
0.000483949
0.0004909
0.0004909
0.00050915
0.000527237
0.000509091
0.000509091
0.000529726
0.000550006
0.000536949
0.000536949
0.000560701
0.000584269
0.000549651
0.000549651
0.000573305
0.000598293
0.000573952
0.000573952
0.000599815
0.000628345
0.000591209
0.000591209
0.000617611
0.000646175
0.000617619
0.000617619
0.000651586
0.000686589
0.00065923
0.00065923
0.000695661
0.000736556
0.000692555
0.000692555
0.000744125
0.000795284
0.000772861
0.000772861
0.000798671
0.000810341
0.000748857
0.000748857
0.00078017
0.00081359
0.000965648
0.000965648
0.00102496
0.00106179
0.00104329
0.00104329
0.00111946
0.00118397
0.00119493
0.00119493
0.0012613
0.00131532
0.00117594
0.00117594
0.00125253
0.00131417
0.00125696
0.00125696
0.00131264
0.00135764
0.00123063
0.00123063
0.00129665
0.0013502
2.3068e-05
0.00010758
0.000115156
7.91495e-05
4.71603e-05
8.92795e-05
0.000478829
0.000953111
0.00160971
0.00378175
0.00274876
0.00114784
0.000209309
0.000399835
0.000390264
0.00045642
0.000880125
0.00102516
0.000715744
2.72589e-05
3.84204e-05
3.97835e-05
4.46187e-05
4.88163e-05
8.8467e-05
0.000541438
0.00140075
0.0010637
0.00324898
0.00402391
0.00190911
0.000458013
0.000562988
0.000747875
0.000879356
0.00102317
0.000969366
0.000659464
2.40597e-05
3.43683e-05
3.76231e-05
3.90342e-05
3.92003e-05
8.12961e-05
0.000579631
0.00125947
0.000874486
0.0028574
0.00396151
0.00232994
0.00109649
0.000769093
0.000963937
0.000805531
0.000892452
0.000888934
0.000542806
2.42364e-05
3.43683e-05
3.76231e-05
3.44276e-05
3.01559e-05
5.75397e-05
0.000468505
0.00141979
0.000874486
0.00266117
0.00343887
0.00240993
0.00153149
0.00109241
0.000917384
0.000620012
0.000786299
0.000760628
0.000370643
4.67717e-05
4.68233e-05
4.11303e-05
3.316e-05
2.69346e-05
2.61733e-05
0.000180313
0.00107319
0.00103195
0.00237066
0.00264722
0.00224174
0.00165705
0.00118176
0.000873954
0.000443744
0.000725338
0.000533567
0.000235096
0.000217113
0.000226473
0.000143963
6.23449e-05
2.6181e-05
1.2464e-05
3.42885e-05
0.0006095
0.00127023
0.00177612
0.00223476
0.00182574
0.00145256
0.00104773
0.000618701
0.000285538
0.000571576
0.000361868
0.000149375
0.000303237
0.000491019
0.000380671
0.0001885
3.49077e-05
1.2464e-05
1.26447e-05
0.000152342
0.00104233
0.00142649
0.00169258
0.00150661
0.00134266
0.00106447
0.000640584
0.000285538
0.000598052
0.000255031
9.96359e-05
0.000163428
0.000245769
0.000534459
0.000562932
0.000285876
1.61051e-05
2.07493e-05
7.05839e-05
0.000441751
0.00112242
0.00116956
0.00109644
0.000889906
0.00106084
0.000898324
0.000479972
0.00094175
0.000183155
6.60074e-05
0.000273436
0.000337583
0.000236138
0.000346763
0.000509335
0.000228199
4.35522e-05
0.000120933
0.000209758
0.00054002
0.000946345
0.000755105
0.000716681
0.000943489
0.000898324
0.00104115
0.000464059
9.69538e-05
3.76982e-05
8.13267e-05
0.000110885
0.000175595
0.000212409
0.000212409
0.000358482
0.000111639
0.000141041
0.000212766
0.000282875
0.000285469
0.000306413
0.000368935
0.000496027
0.000575269
0.000360727
9.19003e-05
3.87531e-05
1.95547e-05
6.76124e-05
6.76124e-05
7.32632e-05
0.000240889
0.000223064
0.000484237
0.000516154
0.000332704
0.00024866
0.000232362
0.000156538
0.000183494
0.000255099
0.000330953
0.000276471
0.000204636
0.000125151
3.84996e-05
1.95547e-05
0.000161111
0.000199397
0.00029794
0.000658115
0.00111866
0.00143017
0.00162446
0.0012221
0.00070863
0.000325132
0.000156538
0.000183494
0.00029794
0.000432032
0.000438233
0.00029716
0.000221741
6.94243e-05
2.23195e-05
0.000191012
0.000469098
0.000690388
0.00129288
0.00169655
0.00215538
0.00186282
0.00106819
0.000772028
0.000522757
0.00035931
0.00028397
0.000249254
0.000365921
0.000319398
0.000281928
0.000125112
5.14153e-05
3.22967e-05
0.000201201
0.000459258
0.000740341
0.00118525
0.00138405
0.00123566
0.00143973
0.00133171
0.000906744
0.000560277
0.000294219
0.00024199
0.00024199
0.000185021
9.32876e-05
5.59161e-05
1.40896e-05
2.04086e-05
3.28389e-05
0.000276579
0.000575644
0.000856197
0.00124245
0.00122154
0.000896093
0.00104685
0.001406
0.0015236
0.000945429
0.00058663
0.000353959
0.000249331
7.2431e-05
4.24364e-05
2.23313e-05
1.40896e-05
1.45337e-05
3.31627e-05
0.000318266
0.000598455
0.000824011
0.00114885
0.00126885
0.000896093
0.00109159
0.00150066
0.00182433
0.00188979
0.00180954
0.00138702
0.000766899
0.000263619
0.000102104
5.5423e-05
1.73264e-05
1.4002e-05
3.11874e-05
0.000397298
0.000666893
0.000905042
0.00119654
0.00144378
0.00115949
0.00109159
0.00115951
0.00112089
0.00117967
0.00157925
0.00181576
0.00151307
0.00120928
0.000669152
0.000327748
5.39149e-05
1.4002e-05
3.52533e-05
0.00044783
0.000726766
0.00093597
0.0011618
0.00144538
0.00153546
0.00129288
0.000956797
0.000489826
0.000489826
0.000670983
0.00103997
0.00123342
0.00138889
0.00120279
0.000765434
0.000150639
2.52203e-05
2.5781e-05
0.000506883
0.000772688
0.000968946
0.0011618
0.00139224
0.00155924
0.00162188
0.00129287
0.000961156
0.000663383
0.000883217
0.000598085
0.000666268
0.000974643
0.00151614
0.00124181
0.000417965
4.31737e-05
2.5781e-05
0.000563279
0.000834843
0.0010093
0.00116924
0.00135471
0.00148293
0.00163627
0.00156101
0.00143184
0.00116009
0.000852157
0.000547748
0.000529072
0.000478827
0.00107374
0.00130886
0.00104839
0.00029435
3.35871e-05
0.000607788
0.000886291
0.00103767
0.00117429
0.00133573
0.0014111
0.00153368
0.00149576
0.00146764
0.00127504
0.00105382
0.000671261
0.000521044
0.00029748
0.000570805
0.00103245
0.00138941
0.000834662
0.000311142
0.000670045
0.00094481
0.00107801
0.00118877
0.00133573
0.0013926
0.00148067
0.00142507
0.00139917
0.00123516
0.00105057
0.000794738
0.00052217
0.00029748
0.000352312
0.000584925
0.0011263
0.00117611
0.000733388
0.000715579
0.00100465
0.00112505
0.00121746
0.00134885
0.0013926
0.00146587
0.00139516
0.00135917
0.00120629
0.00109103
0.000836709
0.000679438
0.000370927
0.000364646
0.000226446
0.000727705
0.0011757
0.000897468
0.000788453
0.00107216
0.00117966
0.00125446
0.00136824
0.00139661
0.00146587
0.00139516
0.00135917
0.00120629
0.00108848
0.000874111
0.000718992
0.000495105
0.000341902
0.000106422
0.000605505
0.00112144
0.000927657
0.00083819
0.0011494
0.0012497
0.00131364
0.00141416
0.00143443
0.0014921
0.00141772
0.00137603
0.0012179
0.00111559
0.000893657
0.000733976
0.000486309
0.000214613
0.000106422
0.000492409
0.001015
0.000907658
0.000914103
0.00123481
0.0013319
0.00138892
0.00147744
0.00149388
0.00153946
0.00146468
0.00142125
0.00125991
0.00116652
0.000945701
0.000835117
0.00057616
0.000355014
0.000201265
0.000690238
0.000952442
0.000907658
0.000956334
0.0013245
0.00142802
0.00148759
0.00157188
0.00158802
0.0016245
0.0015464
0.00150379
0.00133172
0.00125482
0.00103809
0.000964534
0.000825205
0.000556796
0.000547165
0.000991987
0.000952442
0.00085517
0.00102017
0.00141467
0.00153444
0.00160466
0.00169222
0.00170886
0.00174568
0.00166465
0.00163043
0.00145275
0.00140537
0.0012156
0.00122435
0.00131149
0.00102844
0.000854744
0.0013094
0.00107915
0.00070482
0.00104689
0.00150084
0.00164571
0.00173772
0.00184264
0.00186639
0.00190953
0.00182899
0.0018099
0.00163285
0.00164743
0.00150312
0.00169263
0.00162524
0.000612626
0.00115721
0.00144179
0.0011129
0.00070482
0.00110236
0.0015911
0.00176526
0.00189419
0.00202442
0.00206515
0.00211668
0.00204155
0.00203989
0.00186642
0.00195646
0.00184483
0.00227445
0.0014908
0.000531695
0.00108793
0.00144179
0.00118079
0.000706501
0.00113318
0.0016934
0.00191178
0.00209218
0.00225336
0.00231972
0.00237661
0.00230386
0.00231421
0.00215121
0.00229224
0.00222365
0.00280856
0.00159112
0.00048855
0.0012346
0.0015054
0.00130145
0.000865391
0.00122037
0.00185115
0.00211949
0.0023394
0.0025249
0.00261508
0.00268742
0.00261938
0.00263494
0.00247971
0.00264759
0.00261754
0.00324139
0.00158146
0.000346713
0.00104953
0.00167262
0.00134944
0.000958141
0.00131923
0.00202048
0.00221643
0.00246291
0.00267858
0.00282886
0.00294196
0.00292817
0.00298281
0.00284439
0.00301937
0.00300716
0.00356151
0.00163353
0.000346713
0.00101229
0.00195973
0.001193
0.000693552
0.00141162
0.00180398
0.00190076
0.00206541
0.00237816
0.00269346
0.00298641
0.00309117
0.00324614
0.0031663
0.00334625
0.00336055
0.00384356
0.00185602
0.000387369
0.00122855
0.00213204
0.00100461
0.000582424
0.00135058
0.00174311
0.00168189
0.00146105
0.00167706
0.00227843
0.00280464
0.00308364
0.00340091
0.0034229
0.00362257
0.00367307
0.00415484
0.00213892
0.00056418
0.00143726
0.00220094
0.000912151
0.000511524
0.00141023
0.00174311
0.00162611
0.0013134
0.000767363
0.00174762
0.0025218
0.00294172
0.0034019
0.00356874
0.0038062
0.00392996
0.00434681
0.00232915
0.00068117
0.00134531
0.00239978
0.00105815
0.000471791
0.00181409
0.00210285
0.00201617
0.00094863
0.000767363
0.00102985
0.00218937
0.00276289
0.0032831
0.00357823
0.00385483
0.00406939
0.00434131
0.00260242
0.000866793
0.00141134
0.00227781
0.00113207
0.000401506
0.00206074
0.00257872
0.00251785
0.00188123
0.000804105
0.00146094
0.00193356
0.00269818
0.00313707
0.00347317
0.00376004
0.00397221
0.00418316
0.00260942
0.00107367
0.00144855
0.00207292
0.00111125
0.000337849
0.00227222
0.00293269
0.00291162
0.00247785
0.00177058
0.00160904
0.00217735
0.00252167
0.0029536
0.00328304
0.00356579
0.00375204
0.00391661
0.00258659
0.00115532
0.00127885
0.0017551
0.00109689
0.000217513
0.00228087
0.00308186
0.00305616
0.00279519
0.00233106
0.00196996
0.00216756
0.0023955
0.00278744
0.00309758
0.00335988
0.00352326
0.00367848
0.00229744
0.00107998
0.00123673
0.00152739
0.000947382
0.000182603
0.00232964
0.00308187
0.00298821
0.0026311
0.00241752
0.00217616
0.00210782
0.0022876
0.00257493
0.0028653
0.00308219
0.00326415
0.00336564
0.00215025
0.00065455
0.00131375
0.00158861
0.00177153
0.000182603
0.00232502
0.00308187
0.00298821
0.0026311
0.00236908
0.00217616
0.00210782
0.00227292
0.00249644
0.00278937
0.00305965
0.00326415
0.00303752
0.00142697
0.00065455
0.000979693
0.00210604
0.0030222
0.00159815
)
;

boundaryField
{
    leftWall
    {
        type            calculated;
        value           uniform 0;
    }
    rightWall
    {
        type            calculated;
        value           uniform 0;
    }
    lowerWall
    {
        type            calculated;
        value           uniform 0;
    }
    atmosphere
    {
        type            calculated;
        value           uniform 0;
    }
    defaultFaces
    {
        type            empty;
    }
}


// ************************************************************************* //
