/*--------------------------------*- C++ -*----------------------------------*\
| =========                 |                                                 |
| \\      /  F ield         | OpenFOAM: The Open Source CFD Toolbox           |
|  \\    /   O peration     | Version:  2012                                  |
|   \\  /    A nd           | Website:  www.openfoam.com                      |
|    \\/     M anipulation  |                                                 |
\*---------------------------------------------------------------------------*/
FoamFile
{
    version     2.0;
    format      ascii;
    class       volScalarField;
    location    "0.55";
    object      p_rgh;
}
// * * * * * * * * * * * * * * * * * * * * * * * * * * * * * * * * * * * * * //

dimensions      [1 -1 -2 0 0 0 0];


internalField   nonuniform List<scalar> 
2268
(
101933
101934
101936
101940
101945
101952
101960
101969
101981
101995
102010
102027
102045
102064
102083
102102
102120
102136
102152
102162
102173
102178
102182
101932
101933
101936
101939
101944
101951
101959
101969
101981
101994
102009
102026
102044
102063
102083
102102
102120
102136
102152
102163
102174
102179
102184
101931
101932
101935
101938
101943
101950
101958
101968
101980
101993
102009
102026
102044
102064
102083
102102
102121
102137
102153
102163
102174
102178
102181
101930
101931
101934
101937
101942
101949
101957
101967
101979
101992
102007
102025
102043
102063
102083
102103
102122
102138
102155
102166
102177
102182
102186
101928
101929
101931
101935
101940
101946
101955
101965
101976
101990
102006
102024
102043
102063
102083
102103
102124
102140
102156
102165
102176
102177
102179
101926
101927
101930
101933
101938
101945
101953
101963
101974
101988
102004
102022
102041
102062
102083
102104
102125
102142
102160
102171
102183
102186
102190
101922
101924
101926
101930
101934
101941
101949
101959
101971
101986
102002
102021
102040
102062
102084
102105
102127
102144
102161
102169
102179
102172
102172
101920
101921
101923
101927
101932
101938
101947
101956
101968
101982
101998
102018
102038
102061
102084
102107
102130
102148
102168
102178
102191
102190
102194
101814
101317
101311
101293
101309
101294
101321
101272
101142
101131
101133
101121
101122
101133
101145
101198
101302
101723
102398
101349
101274
101289
101274
101293
101270
101290
101232
101112
101113
101114
101104
101099
101101
101123
101167
101239
101595
102200
101290
101276
101292
101278
101293
101270
101289
101236
101087
101068
101064
101061
101061
101060
101068
101083
101126
101403
102030
101286
101274
101289
101275
101293
101269
101287
101207
101072
101066
101064
101061
101060
101059
101060
101060
101069
101213
101828
101288
101275
101291
101277
101389
101327
101287
101172
101069
101066
101065
101060
101060
101059
101060
101060
101064
101112
101640
101287
101276
101289
101282
101557
101509
101275
101146
101062
101063
101064
101060
101060
101059
101060
101059
101061
101078
101486
101289
101280
101291
101380
101626
101565
101279
101091
101058
101060
101062
101059
101060
101059
101060
101059
101060
101068
101263
101287
101282
101289
101509
101675
101589
101244
101073
101053
101057
101062
101059
101059
101059
101059
101059
101059
101061
101293
101825
101827
101834
101844
101857
101871
101893
101914
101940
101966
101989
102013
102036
102061
102084
102108
102134
102152
102171
102174
102183
102147
102127
101407
101410
101415
101423
101436
101452
101477
101506
101551
101612
101699
101799
101903
102005
102084
102114
102143
102168
102192
102208
102222
102207
102209
101324
101324
101324
101324
101324
101324
101324
101324
101324
101324
101324
101343
101385
101463
101592
101788
102046
102187
102209
102224
102236
102231
102238
101324
101324
101324
101324
101324
101324
101324
101324
101324
101323
101323
101323
101323
101324
101331
101358
101428
101591
101849
102136
102278
102292
102295
101324
101324
101324
101324
101324
101324
101324
101324
101324
101324
101323
101323
101323
101323
101323
101323
101323
101333
101371
101423
101538
101687
101919
101324
101324
101324
101324
101324
101324
101324
101324
101324
101323
101323
101323
101323
101323
101323
101323
101323
101323
101323
101323
101323
101322
101335
101324
101324
101324
101324
101324
101324
101324
101324
101324
101323
101323
101323
101323
101323
101323
101323
101323
101323
101323
101322
101322
101322
101322
101324
101324
101324
101324
101324
101324
101324
101324
101324
101323
101323
101323
101323
101323
101323
101323
101323
101323
101323
101323
101323
101322
101322
101324
101324
101324
101324
101324
101324
101324
101324
101324
101323
101323
101323
101323
101323
101323
101323
101323
101323
101323
101323
101322
101322
101322
101324
101324
101324
101324
101324
101324
101324
101324
101324
101323
101323
101323
101323
101323
101323
101323
101323
101323
101323
101323
101323
101323
101322
101324
101324
101324
101324
101324
101324
101324
101324
101324
101323
101323
101323
101323
101323
101323
101323
101323
101323
101323
101323
101323
101322
101322
101324
101324
101324
101324
101324
101324
101324
101324
101324
101324
101323
101323
101323
101323
101323
101323
101323
101323
101323
101323
101323
101323
101323
101324
101324
101324
101324
101324
101324
101324
101324
101324
101324
101323
101323
101323
101323
101323
101323
101323
101323
101323
101323
101323
101323
101323
101324
101324
101324
101324
101324
101324
101324
101324
101324
101324
101324
101324
101323
101323
101323
101323
101323
101323
101323
101323
101323
101323
101323
101324
101324
101324
101324
101324
101324
101324
101324
101324
101324
101324
101324
101323
101323
101323
101323
101323
101323
101323
101323
101323
101323
101323
101324
101324
101324
101324
101324
101324
101324
101324
101324
101324
101324
101324
101324
101324
101323
101323
101323
101323
101323
101323
101323
101323
101323
101324
101324
101324
101324
101324
101324
101324
101324
101324
101324
101324
101324
101324
101324
101323
101323
101323
101323
101323
101323
101323
101323
101323
101324
101324
101324
101324
101324
101324
101324
101324
101324
101324
101324
101324
101324
101324
101324
101324
101323
101323
101323
101323
101323
101323
101323
101324
101324
101324
101324
101324
101324
101324
101324
101324
101324
101324
101324
101324
101324
101324
101324
101324
101323
101323
101323
101323
101323
101323
101324
101324
101324
101324
101324
101324
101324
101324
101324
101324
101324
101324
101324
101324
101324
101324
101324
101324
101324
101323
101323
101323
101323
101324
101324
101324
101324
101324
101324
101324
101324
101324
101324
101324
101324
101324
101324
101324
101324
101324
101324
101324
101324
101323
101323
101323
101324
101324
101324
101324
101324
101324
101324
101324
101324
101324
101324
101324
101324
101324
101324
101324
101324
101324
101324
101324
101324
101324
101323
101324
101324
101324
101324
101324
101324
101324
101324
101324
101324
101324
101324
101324
101324
101324
101324
101324
101324
101324
101324
101324
101324
101323
101324
101324
101324
101324
101324
101324
101324
101324
101324
101324
101324
101324
101324
101324
101324
101324
101324
101324
101324
101324
101324
101324
101324
101324
101324
101324
101324
101324
101324
101324
101324
101324
101324
101324
101324
101324
101324
101324
101324
101324
101324
101324
101324
101324
101324
101324
101324
101324
101324
101324
101324
101324
101324
101324
101324
101324
101324
101324
101324
101324
101324
101324
101324
101324
101324
101324
101324
101324
101324
101324
101324
101324
101324
101324
101324
101324
101324
101324
101324
101324
101324
101324
101324
101324
101324
101324
101324
101324
101324
101324
101324
101324
101324
101324
101324
101324
101324
101324
101324
101324
101324
101324
101324
101324
101324
101324
101324
101324
101324
101324
101324
101324
101324
101324
101324
101324
101324
101324
101324
101324
101324
101324
101324
101324
101324
101324
101324
101324
101324
101324
101324
101324
101324
101324
101324
101324
101324
101324
101324
101324
101324
101324
101324
101324
101324
101324
101324
101324
101324
101324
101324
101324
101324
101324
101324
101324
101324
101324
101324
101324
101324
101324
101324
101324
101324
101324
101324
101324
101324
101324
101324
101324
101324
101324
101324
101324
101324
101324
101324
101324
101324
101324
101324
101324
101325
101325
101325
101325
101325
101325
101325
101325
101325
101325
101325
101325
101325
101325
101325
101325
101325
101325
101325
101325
101324
101324
101324
101325
101325
101325
101325
101325
101325
101325
101325
101325
101325
101325
101325
101325
101325
101325
101325
101325
101325
101325
101325
101324
101324
101324
101325
101325
101325
101325
101325
101325
101325
101325
101325
101325
101325
101325
101325
101325
101325
101325
101325
101325
101325
101325
101325
101325
101324
101325
101325
101325
101325
101325
101325
101325
101325
101325
101325
101325
101325
101325
101325
101325
101325
101325
101325
101325
101325
101325
101325
101324
101325
101325
101325
101325
101325
101325
101325
101325
101325
101325
101325
101325
101325
101325
101325
101325
101325
101325
101325
101325
101325
101325
101325
101325
101325
101325
101325
101325
101325
101325
101325
101325
101325
101325
101325
101325
101325
101325
101325
101325
101325
101325
101325
101325
101325
101325
101325
101325
101325
101325
101325
101325
101325
101325
101325
101325
101325
101325
101325
101325
101325
101325
101325
101325
101325
101325
101326
101325
101325
101325
101325
101325
101325
101325
101325
101325
101325
101325
101325
101325
101325
101325
101325
101325
101325
101325
101325
101325
101325
101325
101325
101325
101325
101325
101325
101325
101325
101325
101325
101325
101325
101325
101325
101325
101325
101325
101325
101325
101325
101325
101326
101326
101326
101326
101326
101325
101325
101325
101325
101325
101325
101325
101325
101325
101325
101325
101325
101325
101325
101325
101325
101325
101325
101325
101325
101325
101325
101325
101325
101325
101325
101325
101325
101325
101325
101325
101325
101325
101325
101325
101325
101325
101325
101325
101325
101325
101325
101326
101326
101325
101325
101996
102031
101961
101935
102137
102121
102077
102054
102200
102200
102175
102169
102273
102263
102252
102239
102106
102191
102217
102245
101336
101343
101361
101392
101322
101322
101322
101322
101322
101322
101322
101322
101322
101322
101322
101322
101322
101322
101322
101322
101322
101322
101322
101322
101323
101322
101322
101322
101322
101322
101322
101322
101323
101323
101323
101323
101323
101323
101323
101323
101323
101323
101323
101323
101323
101323
101323
101323
101323
101323
101323
101323
101323
101323
101323
101323
101323
101323
101323
101323
101323
101323
101323
101323
101323
101323
101323
101323
101323
101323
101323
101323
101324
101324
101324
101323
101324
101324
101324
101324
101324
101324
101324
101324
101324
101324
101324
101324
101324
101324
101324
101324
101324
101324
101324
101324
101324
101324
101324
101324
101324
101324
101324
101324
101324
101324
101324
101324
101324
101324
101324
101324
101324
101324
101324
101324
101324
101324
101324
101324
101325
101324
101324
101324
101325
101324
101324
101324
101325
101325
101324
101324
101325
101325
101324
101324
101325
101325
101325
101325
101325
101325
101325
101325
101325
101325
101325
101325
101506
101345
101426
101686
101761
101613
101206
101057
101051
101056
101059
101058
101059
101058
101060
101059
101060
101058
101472
101956
101904
101930
101900
101880
101679
101167
101057
101053
101056
101058
101057
101058
101058
101059
101059
101059
101059
101580
102130
102118
102098
102054
102020
101727
101119
101058
101053
101056
101057
101058
101058
101059
101060
101059
101060
101059
101680
102222
102193
102202
102163
102152
101857
101110
101058
101055
101058
101059
101059
101059
101059
101060
101060
101060
101068
101834
102266
102286
102315
102303
102290
102106
101223
101059
101058
101060
101060
101060
101060
101060
101061
101060
101061
101180
102012
101449
101545
101768
102174
102395
102335
101593
101060
101060
101060
101061
101061
101061
101061
101061
101061
101061
101370
102201
101321
101322
101321
101391
101982
102512
102195
101096
101061
101063
101062
101062
101062
101061
101062
101061
101061
101548
102389
101322
101321
101321
101321
101360
102059
102556
101954
101061
101061
101061
101063
101062
101062
101061
101062
101061
101749
102601
101322
101322
101321
101321
101321
101367
102283
102463
101946
101134
101064
101062
101063
101062
101063
101062
101173
102212
102809
101322
101322
101322
101322
101321
101320
101382
102315
102446
102062
101429
101395
101249
101141
101168
101511
102512
102910
103071
101322
101322
101322
101322
101321
101322
101326
101505
102286
102506
102535
102507
102436
102334
102386
102682
102807
102970
103172
101322
101322
101322
101322
101321
101322
101361
101431
101490
102033
102208
102098
101936
101939
101917
101792
101785
102438
103257
101322
101322
101322
101322
101321
101321
101537
102458
102713
102732
102686
102118
101743
101378
101342
101363
101715
102731
103289
101323
101322
101322
101322
101321
101321
101326
101348
101776
102682
103091
103217
103145
102622
102286
102319
102994
103355
103451
101322
101322
101322
101322
101321
101320
101320
101320
101320
101320
101355
102109
102983
103433
103528
103532
103538
103522
103485
101323
101322
101322
101322
101322
101321
101321
101320
101321
101320
101321
101321
101321
101875
102879
103466
103703
103685
103623
101323
101322
101322
101322
101322
101321
101321
101320
101320
101320
101321
101321
101322
101321
101322
102299
103435
103608
103752
101323
101323
101323
101322
101322
101321
101321
101320
101320
101320
101321
101321
101322
101322
101335
101592
103041
103795
103929
101323
101323
101323
101322
101322
101322
101322
101321
101321
101321
101321
101322
101322
101322
101325
101373
102006
103596
104066
101323
101323
101323
101322
101322
101322
101322
101321
101322
101321
101322
101322
101323
101322
101323
101324
101323
102120
102995
101323
101323
101323
101323
101323
101322
101322
101322
101322
101322
101323
101322
101323
101323
101324
101323
101330
101520
102049
101323
101323
101323
101323
101323
101322
101322
101322
101322
101322
101323
101323
101323
101323
101324
101324
101326
101360
101807
101323
101323
101323
101323
101323
101323
101323
101323
101323
101323
101323
101323
101324
101323
101324
101324
101325
101337
101988
101323
101323
101323
101323
101323
101323
101323
101323
101323
101323
101323
101323
101324
101324
101325
101324
101325
101326
102012
101323
101323
101323
101323
101323
101323
101323
101323
101323
101323
101324
101324
101324
101324
101325
101325
101325
101325
102037
101324
101323
101323
101323
101323
101323
101323
101323
101323
101323
101324
101324
101325
101324
101325
101325
101326
101325
101682
101324
101323
101323
101323
101323
101323
101323
101323
101324
101324
101324
101324
101325
101324
101325
101326
101326
101325
101496
101324
101323
101323
101323
101323
101323
101323
101323
101323
101324
101324
101324
101325
101324
101326
101330
101335
101360
101938
101324
101324
101323
101323
101323
101323
101323
101323
101323
101324
101324
101324
101324
101323
101326
101397
101706
101935
102234
101324
101323
101323
101323
101323
101323
101323
101323
101323
101323
101323
101324
101323
101323
101324
101440
102047
102300
102270
101324
101323
101323
101323
101323
101323
101323
101323
101323
101323
101323
101323
101323
101323
101323
101372
101540
102325
102045
101324
101323
101323
101322
101322
101322
101322
101322
101323
101323
101323
101323
101322
101322
101323
101322
101321
102211
102070
101323
101323
101322
101322
101322
101322
101322
101322
101322
101323
101323
101323
101322
101322
101321
101322
101321
101536
102967
101323
101322
101322
101321
101320
101321
101321
101321
101322
101322
101322
101322
101321
101322
101320
101322
101321
101428
103469
101323
101322
101321
101320
101319
101320
101320
101321
101321
101322
101322
101322
101321
101322
101320
101322
101321
101373
103525
101323
101322
101321
101320
101319
101319
101319
101320
101321
101322
101321
101322
101321
101322
101320
101322
101321
101323
103300
101323
101322
101322
101320
101319
101319
101320
101320
101321
101322
101322
101323
101322
101322
101321
101322
101322
101323
103040
101324
101322
101321
101321
101320
101320
101320
101321
101321
101322
101322
101323
101322
101323
101322
101323
101323
101324
102891
101324
101323
101322
101321
101321
101321
101322
101322
101322
101323
101323
101323
101323
101324
101323
101324
101323
101324
102571
101324
101324
101323
101322
101322
101322
101322
101322
101322
101323
101323
101323
101323
101324
101324
101324
101324
101324
102652
101324
101324
101324
101324
101324
101323
101323
101324
101324
101324
101324
101325
101325
101325
101325
101325
101324
101325
102314
101325
101325
101325
101324
101324
101324
101324
101324
101324
101324
101324
101324
101324
101325
101324
101325
101323
101326
101551
)
;

boundaryField
{
    leftWall
    {
        type            zeroGradient;
    }
    rightWall
    {
        type            zeroGradient;
    }
    lowerWall
    {
        type            zeroGradient;
    }
    atmosphere
    {
        type            fixedValue;
        value           uniform 101325;
    }
    defaultFaces
    {
        type            empty;
    }
}


// ************************************************************************* //
