/*--------------------------------*- C++ -*----------------------------------*\
| =========                 |                                                 |
| \\      /  F ield         | OpenFOAM: The Open Source CFD Toolbox           |
|  \\    /   O peration     | Version:  2012                                  |
|   \\  /    A nd           | Website:  www.openfoam.com                      |
|    \\/     M anipulation  |                                                 |
\*---------------------------------------------------------------------------*/
FoamFile
{
    version     2.0;
    format      ascii;
    class       volScalarField;
    location    "0.55";
    object      pcorr;
}
// * * * * * * * * * * * * * * * * * * * * * * * * * * * * * * * * * * * * * //

dimensions      [1 -1 -2 0 0 0 0];


internalField   nonuniform List<scalar> 
2268
(
101292
101292
101291
101290
101289
101286
101283
101279
101273
101265
101254
101239
101220
101196
101165
101128
101082
101029
100969
100905
100843
100790
100759
101292
101292
101291
101290
101289
101287
101283
101279
101273
101265
101254
101240
101221
101197
101167
101129
101084
101031
100970
100905
100840
100786
100753
101292
101292
101291
101290
101289
101287
101284
101280
101274
101266
101256
101242
101224
101200
101170
101133
101088
101034
100972
100904
100836
100776
100738
101292
101292
101292
101291
101289
101288
101285
101281
101276
101268
101258
101245
101227
101204
101175
101138
101093
101039
100975
100904
100830
100761
100716
101293
101292
101292
101291
101290
101288
101286
101282
101278
101271
101261
101249
101232
101210
101181
101145
101100
101046
100980
100905
100822
100741
100683
101293
101293
101292
101292
101291
101289
101287
101284
101280
101274
101265
101254
101238
101217
101190
101155
101110
101055
100988
100907
100814
100716
100638
101293
101293
101293
101292
101292
101290
101289
101286
101283
101277
101270
101259
101245
101225
101200
101166
101122
101067
100998
100912
100807
100686
100574
101294
101294
101293
101293
101292
101292
101290
101288
101286
101281
101275
101266
101253
101235
101211
101179
101137
101082
101012
100921
100804
100655
100486
97581.1
97666.4
97671.6
97671
97670.3
97671
97670.5
97640.7
97636.8
97653.8
97668.5
97674.7
97676.6
97673.5
97660
97653
97663.1
97652.1
97486.1
97668.5
97671.6
97672.2
97671.6
97670.9
97671.5
97672.6
97663.7
97672.5
97694.1
97702.4
97703.2
97703.4
97701.5
97690.6
97680.2
97677.1
97646.9
97492.7
97672.4
97672.8
97672.7
97671.9
97671
97671.8
97674
97678.4
97689.9
97700.6
97702.9
97703.6
97703.9
97703.4
97702.6
97701.9
97697
97655.7
97515.4
97673.7
97673.5
97673.3
97672.2
97670.7
97671.7
97674.9
97683.1
97695.9
97701.3
97703.2
97704
97704.2
97704
97703.4
97702.5
97700
97683.6
97559.1
97674.5
97674.3
97674
97672.6
97671.1
97670.9
97675.1
97686.9
97698.2
97702
97703.7
97704.5
97704.6
97704.4
97703.8
97703
97701.3
97693.4
97610.2
97675.4
97675.1
97675
97672.9
97717.7
97707.1
97676.6
97691.3
97700.1
97702.9
97704.4
97705
97705.1
97704.9
97704.3
97703.5
97702.2
97698
97639.8
97676.3
97675.9
97676.2
97674.8
98025.4
97824.4
97685.3
97697.2
97702
97704
97705.2
97705.7
97705.7
97705.4
97704.9
97704.1
97703.1
97700.7
97676.6
97677.3
97676.5
97677.6
97685.7
98554.5
97964.4
97698.3
97701.8
97704
97705.3
97706
97706.4
97706.3
97706
97705.5
97704.8
97704
97703.1
97697.1
101294
101294
101294
101294
101294
101294
101293
101292
101291
101288
101284
101278
101267
101253
101232
101204
101164
101111
101041
100944
100810
100612
100290
101297
101297
101297
101296
101296
101296
101296
101296
101295
101295
101295
101293
101289
101282
101269
101247
101215
101170
101106
101014
100881
100681
100369
101297
101297
101297
101297
101296
101296
101296
101296
101295
101295
101295
101295
101294
101293
101292
101286
101274
101246
101199
101125
101020
100863
100627
101297
101297
101297
101297
101296
101296
101296
101296
101295
101295
101295
101294
101294
101293
101293
101292
101291
101288
101276
101256
101209
101124
100984
101297
101297
101297
101297
101297
101296
101296
101296
101296
101295
101295
101294
101294
101293
101292
101292
101291
101290
101288
101286
101284
101283
101271
101297
101297
101297
101297
101297
101297
101296
101296
101296
101295
101295
101294
101294
101293
101292
101292
101291
101290
101288
101287
101285
101284
101282
101297
101297
101297
101297
101297
101297
101297
101296
101296
101295
101295
101295
101294
101293
101293
101292
101291
101290
101288
101287
101285
101284
101282
101298
101298
101298
101297
101297
101297
101297
101296
101296
101296
101295
101295
101294
101293
101293
101292
101291
101290
101289
101287
101286
101284
101282
101298
101298
101298
101298
101298
101297
101297
101297
101296
101296
101296
101295
101294
101294
101293
101292
101291
101290
101289
101288
101286
101285
101283
101298
101298
101298
101298
101298
101298
101297
101297
101297
101296
101296
101295
101295
101294
101293
101293
101292
101291
101290
101288
101287
101286
101284
101299
101299
101299
101298
101298
101298
101298
101297
101297
101297
101296
101296
101295
101295
101294
101293
101292
101291
101290
101289
101288
101286
101285
101299
101299
101299
101299
101299
101298
101298
101298
101298
101297
101297
101296
101296
101295
101294
101294
101293
101292
101291
101290
101289
101287
101286
101300
101299
101299
101299
101299
101299
101299
101298
101298
101298
101297
101297
101296
101296
101295
101294
101293
101293
101292
101291
101290
101289
101287
101300
101300
101300
101300
101300
101299
101299
101299
101299
101298
101298
101297
101297
101296
101296
101295
101294
101293
101293
101292
101291
101290
101289
101301
101301
101300
101300
101300
101300
101300
101299
101299
101299
101298
101298
101297
101297
101296
101296
101295
101294
101293
101293
101292
101291
101290
101301
101301
101301
101301
101301
101301
101300
101300
101300
101299
101299
101299
101298
101298
101297
101297
101296
101295
101294
101294
101293
101292
101291
101302
101302
101302
101302
101301
101301
101301
101301
101300
101300
101300
101299
101299
101298
101298
101297
101297
101296
101295
101295
101294
101293
101293
101302
101302
101302
101302
101302
101302
101302
101301
101301
101301
101301
101300
101300
101299
101299
101298
101298
101297
101297
101296
101295
101295
101294
101303
101303
101303
101303
101303
101303
101302
101302
101302
101302
101301
101301
101301
101300
101300
101299
101299
101298
101298
101297
101296
101296
101295
101304
101304
101304
101304
101303
101303
101303
101303
101303
101302
101302
101302
101301
101301
101301
101300
101300
101299
101299
101298
101298
101297
101297
101305
101305
101304
101304
101304
101304
101304
101304
101304
101303
101303
101303
101302
101302
101302
101301
101301
101300
101300
101299
101299
101298
101298
101305
101305
101305
101305
101305
101305
101305
101305
101304
101304
101304
101304
101303
101303
101303
101302
101302
101301
101301
101300
101300
101300
101299
101306
101306
101306
101306
101306
101306
101306
101305
101305
101305
101305
101304
101304
101304
101304
101303
101303
101302
101302
101302
101301
101301
101300
101307
101307
101307
101307
101307
101307
101306
101306
101306
101306
101306
101305
101305
101305
101305
101304
101304
101304
101303
101303
101302
101302
101302
101308
101308
101308
101308
101308
101307
101307
101307
101307
101307
101307
101306
101306
101306
101306
101305
101305
101305
101304
101304
101304
101303
101303
101309
101309
101309
101309
101308
101308
101308
101308
101308
101308
101308
101307
101307
101307
101307
101306
101306
101306
101305
101305
101305
101305
101304
101310
101310
101310
101309
101309
101309
101309
101309
101309
101309
101309
101308
101308
101308
101308
101307
101307
101307
101307
101306
101306
101306
101306
101310
101310
101310
101310
101310
101310
101310
101310
101310
101310
101310
101309
101309
101309
101309
101309
101308
101308
101308
101308
101307
101307
101307
101311
101311
101311
101311
101311
101311
101311
101311
101311
101311
101311
101310
101310
101310
101310
101310
101309
101309
101309
101309
101309
101308
101308
101312
101312
101312
101312
101312
101312
101312
101312
101312
101312
101312
101311
101311
101311
101311
101311
101311
101310
101310
101310
101310
101310
101309
101313
101313
101313
101313
101313
101313
101313
101313
101313
101313
101313
101312
101312
101312
101312
101312
101312
101312
101311
101311
101311
101311
101311
101314
101314
101314
101314
101314
101314
101314
101314
101314
101314
101314
101314
101313
101313
101313
101313
101313
101313
101312
101312
101312
101312
101312
101315
101315
101315
101315
101315
101315
101315
101315
101315
101315
101315
101315
101314
101314
101314
101314
101314
101314
101314
101314
101313
101313
101313
101316
101316
101316
101316
101316
101316
101316
101316
101316
101316
101316
101316
101316
101315
101315
101315
101315
101315
101315
101315
101315
101314
101314
101317
101317
101317
101317
101317
101317
101317
101317
101317
101317
101317
101317
101317
101317
101316
101316
101316
101316
101316
101316
101316
101316
101316
101318
101318
101318
101318
101318
101318
101318
101318
101318
101318
101318
101318
101318
101318
101318
101318
101317
101317
101317
101317
101317
101317
101317
101319
101319
101319
101319
101319
101319
101319
101319
101319
101319
101319
101319
101319
101319
101319
101319
101319
101319
101318
101318
101318
101318
101318
101320
101320
101320
101320
101320
101320
101320
101320
101320
101320
101320
101320
101320
101320
101320
101320
101320
101320
101320
101320
101319
101319
101319
101321
101321
101321
101321
101321
101321
101321
101321
101321
101321
101321
101321
101321
101321
101321
101321
101321
101321
101321
101321
101321
101321
101321
101322
101322
101322
101322
101322
101322
101322
101322
101322
101322
101322
101322
101322
101322
101322
101322
101322
101322
101322
101322
101322
101322
101322
101323
101323
101323
101323
101323
101323
101323
101323
101323
101323
101323
101323
101323
101323
101323
101323
101323
101323
101323
101323
101323
101323
101323
101324
101324
101324
101324
101324
101324
101324
101324
101324
101324
101324
101324
101324
101324
101324
101324
101324
101324
101324
101324
101324
101324
101324
99798.5
99437.1
99009
98487
100008
99739.6
99435.2
99096.6
100383
100207
100015
99813.1
100844
100745
100638
100525
101263
101252
101226
101186
101279
101278
101276
101275
101280
101279
101278
101277
101281
101280
101279
101278
101282
101281
101280
101279
101283
101282
101281
101280
101284
101283
101282
101282
101285
101284
101284
101283
101286
101286
101285
101285
101288
101287
101287
101286
101289
101289
101288
101288
101291
101290
101290
101289
101292
101292
101291
101291
101293
101293
101293
101292
101295
101294
101294
101294
101296
101296
101296
101295
101297
101297
101297
101297
101299
101299
101298
101298
101300
101300
101300
101300
101301
101301
101301
101301
101303
101303
101302
101302
101304
101304
101304
101304
101305
101305
101305
101305
101307
101306
101306
101306
101308
101308
101308
101308
101309
101309
101309
101309
101310
101310
101310
101310
101312
101312
101312
101311
101313
101313
101313
101313
101314
101314
101314
101314
101315
101315
101315
101315
101317
101317
101317
101317
101318
101318
101318
101318
101319
101319
101319
101319
101321
101321
101321
101321
101322
101322
101322
101322
101323
101323
101323
101323
101324
101324
101324
101324
97679.8
97677.3
97679.7
98129.6
99921.4
98171.1
97711.1
97707
97706.9
97707.3
97707.6
97707.6
97707.4
97707
97706.4
97705.8
97705.2
97705
97704.4
98494.6
98082.7
98375.1
98558.5
98812.9
97968.7
97712.1
97711.3
97710.4
97710.1
97709.9
97709.5
97709
97708.5
97707.8
97707.1
97706.6
97706.2
97705.6
99476.9
99176.9
99102.5
98971.7
98650.6
97855.9
97715
97714.6
97713.6
97712.9
97712.2
97711.5
97710.8
97710
97709.2
97708.4
97707.8
97707.3
97706.8
100332
100096
99875.5
99540.7
98947
97884.6
97719.3
97717.8
97716.7
97715.7
97714.6
97713.5
97712.5
97711.5
97710.5
97709.6
97708.7
97707.2
97703.7
101104
100959
100724
100319
99702.6
98238.1
97723.6
97721
97719.8
97718.4
97717
97715.5
97714.2
97713
97711.8
97710.8
97709.8
97707.8
97692.8
101272
101269
101265
101109
100377
98943.4
97728.6
97724.2
97723
97721.2
97719.3
97717.5
97715.9
97714.4
97713.1
97711.8
97710.8
97708.9
97694.6
101275
101272
101269
101265
101162
100043
97939
97728.9
97726.7
97724
97721.5
97719.3
97717.4
97715.7
97714.2
97712.8
97711.6
97709.7
97706.7
101276
101273
101270
101267
101261
101151
99609
97742.5
97731.6
97726.6
97723.5
97720.9
97718.8
97716.9
97715.2
97713.7
97712.3
97710.4
97734.2
101277
101275
101272
101269
101265
101258
101112
99374.2
97740.5
97728.8
97725.1
97722.2
97719.9
97717.9
97716.1
97714.4
97712.8
97707.6
97802.5
101279
101276
101274
101271
101267
101262
101250
100986
99327.4
97974.3
97730.1
97723.6
97721.5
97719.8
97717.7
97714.2
97748.4
97892.8
97968.3
101280
101278
101276
101273
101270
101266
101257
101215
100690
99482.4
98532.1
98207.5
98003.4
97860.1
97885.4
98084.8
98189.7
98178.1
98199.3
101282
101280
101278
101276
101274
101271
101265
101212
100941
100351
99543.8
99033.1
98751
98637.7
98581.3
98546.7
98463.5
98393
98451.6
101284
101282
101281
101279
101278
101278
101283
101269
101043
100649
100118
99567
99166.5
98950.4
98829.9
98751.3
98693.4
98686.8
98776.5
101285
101284
101283
101282
101282
101282
101284
101285
101285
101282
101210
100505
99879.2
99324.5
99081.6
98958.3
98986.8
99109.7
99190.4
101287
101286
101285
101285
101284
101285
101285
101286
101285
101284
101282
101280
101274
100676
100144
99794.7
99694.1
99672.1
99669.6
101289
101288
101287
101287
101286
101286
101287
101287
101286
101286
101285
101283
101282
101281
101273
100791
100423
100231
100145
101290
101290
101289
101289
101288
101288
101288
101288
101288
101287
101286
101285
101284
101283
101280
101275
100949
100687
100566
101292
101291
101291
101290
101290
101290
101290
101289
101289
101289
101288
101287
101287
101286
101285
101285
101199
101005
100893
101294
101293
101292
101292
101292
101291
101291
101291
101291
101290
101290
101289
101289
101289
101289
101291
101291
101211
101131
101295
101294
101294
101294
101293
101293
101293
101292
101292
101292
101292
101291
101291
101291
101292
101293
101293
101292
101252
101296
101296
101296
101295
101295
101295
101294
101294
101294
101293
101293
101293
101293
101293
101293
101294
101294
101295
101278
101298
101297
101297
101297
101296
101296
101296
101296
101295
101295
101295
101295
101295
101295
101295
101295
101296
101297
101297
101299
101299
101299
101298
101298
101298
101297
101297
101297
101297
101297
101296
101296
101296
101297
101297
101297
101298
101297
101301
101300
101300
101300
101299
101299
101299
101299
101298
101298
101298
101298
101298
101298
101298
101298
101298
101299
101298
101302
101302
101301
101301
101301
101301
101300
101300
101300
101300
101300
101300
101299
101299
101299
101299
101299
101299
101298
101303
101303
101303
101303
101302
101302
101302
101302
101301
101301
101301
101301
101301
101301
101301
101301
101301
101301
101300
101305
101304
101304
101304
101304
101304
101303
101303
101303
101303
101303
101303
101302
101302
101302
101302
101302
101302
101303
101306
101306
101306
101305
101305
101305
101305
101305
101304
101304
101304
101304
101304
101304
101304
101303
101303
101305
101306
101307
101307
101307
101307
101307
101306
101306
101306
101306
101306
101306
101306
101306
101305
101305
101305
101308
101316
101309
101309
101309
101308
101308
101308
101308
101308
101307
101307
101307
101307
101307
101307
101307
101307
101307
101297
101306
101306
101310
101310
101310
101309
101309
101309
101309
101309
101309
101309
101309
101309
101309
101309
101309
101310
101310
101300
101332
101311
101311
101311
101311
101311
101311
101310
101310
101310
101310
101310
101310
101310
101310
101311
101311
101311
101308
101370
101313
101312
101312
101312
101312
101312
101312
101312
101312
101312
101312
101312
101312
101312
101312
101312
101312
101313
101337
101314
101314
101314
101313
101313
101313
101313
101313
101313
101313
101313
101313
101313
101313
101313
101313
101313
101313
101299
101315
101315
101315
101315
101315
101315
101315
101315
101314
101314
101314
101314
101314
101314
101314
101314
101314
101314
101302
101317
101316
101316
101316
101316
101316
101316
101316
101316
101316
101316
101316
101316
101316
101316
101315
101315
101315
101313
101318
101318
101318
101318
101317
101317
101317
101317
101317
101317
101317
101317
101317
101317
101317
101317
101316
101316
101314
101319
101319
101319
101319
101319
101319
101319
101319
101319
101319
101319
101319
101318
101318
101318
101318
101318
101317
101315
101320
101320
101320
101320
101320
101320
101320
101320
101320
101320
101320
101320
101320
101320
101320
101319
101319
101318
101317
101322
101322
101322
101322
101322
101322
101322
101322
101322
101321
101321
101321
101321
101321
101321
101321
101320
101320
101318
101323
101323
101323
101323
101323
101323
101323
101323
101323
101323
101323
101323
101323
101323
101323
101322
101322
101322
101318
101324
101324
101324
101324
101324
101324
101324
101324
101324
101324
101324
101324
101324
101324
101324
101324
101324
101324
101327
)
;

boundaryField
{
    leftWall
    {
        type            zeroGradient;
    }
    rightWall
    {
        type            zeroGradient;
    }
    lowerWall
    {
        type            zeroGradient;
    }
    atmosphere
    {
        type            fixedValue;
        value           uniform 101325;
    }
    defaultFaces
    {
        type            empty;
    }
}


// ************************************************************************* //
