/*--------------------------------*- C++ -*----------------------------------*\
| =========                 |                                                 |
| \\      /  F ield         | OpenFOAM: The Open Source CFD Toolbox           |
|  \\    /   O peration     | Version:  2012                                  |
|   \\  /    A nd           | Website:  www.openfoam.com                      |
|    \\/     M anipulation  |                                                 |
\*---------------------------------------------------------------------------*/
FoamFile
{
    version     2.0;
    format      ascii;
    class       volScalarField;
    location    "0.55";
    object      rho;
}
// * * * * * * * * * * * * * * * * * * * * * * * * * * * * * * * * * * * * * //

dimensions      [1 -3 0 0 0 0 0];


internalField   nonuniform List<scalar> 
2268
(
1000.05
1000.05
1000.05
1000.05
1000.05
1000.05
1000.05
1000.05
1000.05
1000.05
1000.05
1000.05
1000.05
1000.05
1000.05
1000.05
1000.05
1000.05
1000.05
1000.05
1000.05
1000.05
999.794
1000.05
1000.05
1000.05
1000.05
1000.05
1000.05
1000.05
1000.05
1000.05
1000.05
1000.05
1000.05
1000.05
1000.05
1000.05
1000.05
1000.05
1000.05
1000.05
1000.05
1000.05
1000.05
999.746
1000.05
1000.05
1000.05
1000.05
1000.05
1000.05
1000.05
1000.05
1000.05
1000.05
1000.05
1000.05
1000.05
1000.05
1000.05
1000.05
1000.05
1000.05
1000.05
1000.05
1000.05
1000.05
999.746
1000.05
1000.05
1000.05
1000.05
1000.05
1000.05
1000.05
1000.05
1000.05
1000.05
1000.05
1000.05
1000.05
1000.05
1000.05
1000.05
1000.05
1000.05
1000.05
1000.05
1000.05
1000.05
999.773
1000.05
1000.05
1000.05
1000.05
1000.05
1000.05
1000.05
1000.05
1000.05
1000.05
1000.05
1000.05
1000.05
1000.05
1000.05
1000.05
1000.05
1000.05
1000.05
1000.05
1000.05
1000.05
1000.01
1000.05
1000.05
1000.05
1000.05
1000.05
1000.05
1000.05
1000.05
1000.05
1000.05
1000.05
1000.05
1000.05
1000.05
1000.05
1000.05
1000.05
1000.05
1000.05
1000.05
1000.05
1000.05
1000.05
1000.05
1000.05
1000.05
1000.05
1000.05
1000.05
1000.05
1000.05
1000.05
1000.05
1000.05
1000.05
1000.05
1000.05
1000.05
1000.05
1000.05
1000.05
1000.05
1000.05
1000.05
1000.05
1000.05
999.279
999.268
999.389
999.527
999.66
999.764
999.9
999.974
1000.02
1000.05
1000.05
1000.05
1000.05
1000.05
1000.05
1000.05
1000.05
1000.05
1000.05
1000.05
1000.05
1000.05
1000.05
292.545
310.849
302.445
252.949
254.066
407.061
546.187
562.968
562.968
610.817
710.943
720.119
720.12
720.12
720.12
720.12
720.121
720.074
717.434
113.576
9.37466
1.2933
1.29308
1.29313
1.29226
6.30033
80.1474
271.296
400.19
421.493
369.204
334.027
356.037
496.906
626.157
686.058
720.073
717.435
3.60195
1.29283
1.293
1.32744
1.29923
1.29339
1.29294
29.9113
41.1491
15.5943
1.29107
1.29219
1.29206
5.12572
44.5325
124.507
207.435
488.587
735.375
1.29232
1.29273
1.29293
1.55967
12.9552
5.81162
1.29372
2.70456
8.74096
1.38466
1.29578
1.38405
1.39213
1.32685
1.29102
1.29027
7.34292
223.446
744.055
1.2923
1.29271
1.29302
1.29272
379.435
295.031
30.2807
3.22282
2.08897
1.68597
1.29196
1.29934
1.29936
1.29077
1.29088
1.31068
2.71377
86.1589
744.055
1.29274
1.29274
1.29308
19.9894
855.908
868.206
237.64
9.96976
1.34916
1.43719
1.30849
1.29078
1.29088
1.2909
1.2909
1.2912
1.41618
39.1538
617.038
1.2929
1.29281
1.29334
260.763
968.289
970.869
363.269
14.4312
1.3177
1.29048
1.29584
1.29092
1.291
1.29096
1.29092
1.29086
1.3089
14.3941
269.971
1.29287
1.29283
1.29359
527.678
993.188
956.564
348.791
10.2118
1.30447
1.29052
1.29082
1.29099
1.2911
1.291
1.29093
1.29086
1.29079
5.76968
422.253
814.16
815.864
826.377
839.912
857.257
875.891
903.398
926.885
954.586
977.572
989.225
995.303
998.745
1000.05
1000.05
1000.05
1000.05
1000.05
1000.05
1000.05
1000.05
1000.05
1000.05
116.341
120.649
128.414
139.17
156.792
179.273
214.135
253.878
316.229
401.575
521.751
655.682
790.535
913.523
995.574
1000.05
1000.05
1000.05
1000.05
1000.05
1000.05
1000.05
1000.05
1.29327
1.29327
1.29327
1.29327
1.29327
1.29328
1.29328
1.2933
1.29332
1.29331
1.29332
24.4724
74.87
166.868
317.868
546.906
846.967
999.442
1000.05
1000.05
1000.05
1000.05
1000.05
1.29321
1.29321
1.29321
1.29321
1.29321
1.29322
1.29322
1.29323
1.29324
1.29324
1.29324
1.29325
1.29329
2.2986
9.14586
37.2349
109.017
277.057
541.563
835.931
980.993
997.92
999.835
1.29319
1.29319
1.29319
1.29319
1.29319
1.29319
1.29319
1.2932
1.2932
1.2932
1.29322
1.2933
1.29323
1.29341
1.2932
1.29321
1.29326
10.3812
45.8698
93.4496
197.875
334.328
545.543
1.29319
1.29319
1.29319
1.29319
1.29319
1.29319
1.29319
1.29319
1.29319
1.29319
1.2932
1.29434
1.29505
1.29534
1.29525
1.29354
1.29321
1.2932
1.29321
1.29323
1.29327
1.29325
11.4912
1.29318
1.29318
1.29318
1.29318
1.29318
1.29318
1.29318
1.29318
1.29318
1.29318
1.29318
1.2945
1.29533
1.29533
1.29424
1.29329
1.29319
1.29319
1.29319
1.29321
1.29608
1.2932
1.29319
1.29318
1.29318
1.29318
1.29318
1.29318
1.29318
1.29318
1.29318
1.29318
1.29318
1.29324
1.29318
1.29337
1.29318
1.29318
1.29319
1.29321
1.29321
1.29319
1.29319
1.29325
1.29322
1.2934
1.29318
1.29318
1.29318
1.29318
1.29318
1.29318
1.29318
1.29318
1.29318
1.29318
1.29318
1.29318
1.29318
1.29318
1.29318
1.29318
1.2932
1.29321
1.2932
1.29319
1.29318
1.29317
1.29317
1.29318
1.29318
1.29318
1.29318
1.29318
1.29318
1.29318
1.29318
1.29318
1.29318
1.29318
1.29318
1.29318
1.29318
1.29318
1.29318
1.29318
1.29319
1.29319
1.29318
1.29317
1.29317
1.2932
1.29318
1.29318
1.29318
1.29318
1.29318
1.29318
1.29318
1.29318
1.29318
1.29318
1.29318
1.29318
1.29318
1.29318
1.29318
1.29318
1.29317
1.29317
1.29317
1.29317
1.29317
1.29317
1.29317
1.29318
1.29318
1.29318
1.29318
1.29318
1.29318
1.29318
1.29318
1.29318
1.29318
1.29318
1.29318
1.29318
1.29318
1.29317
1.29317
1.29317
1.29317
1.29317
1.29317
1.29317
1.29317
1.29317
1.29318
1.29318
1.29318
1.29318
1.29318
1.29318
1.29318
1.29318
1.29318
1.29317
1.29317
1.29317
1.29317
1.29317
1.29317
1.29317
1.29317
1.29317
1.29317
1.29317
1.29317
1.29317
1.29317
1.29317
1.29317
1.29317
1.29317
1.29317
1.29317
1.29317
1.29317
1.29317
1.29317
1.29317
1.29317
1.29317
1.29317
1.29317
1.29317
1.29317
1.29317
1.29317
1.29317
1.29317
1.29317
1.29317
1.29317
1.29317
1.29317
1.29317
1.29317
1.29317
1.29317
1.29317
1.29317
1.29317
1.29317
1.29317
1.29317
1.29317
1.29317
1.29317
1.29317
1.29317
1.29317
1.29317
1.29317
1.29317
1.29316
1.29317
1.29317
1.29317
1.29317
1.29317
1.29317
1.29317
1.29317
1.29317
1.29317
1.29317
1.29317
1.29317
1.29317
1.29317
1.29317
1.29317
1.29317
1.29317
1.29317
1.29317
1.29317
1.29316
1.29317
1.29317
1.29317
1.29317
1.29317
1.29317
1.29317
1.29317
1.29317
1.29317
1.29317
1.29317
1.29317
1.29317
1.29317
1.29317
1.29317
1.29317
1.29317
1.29316
1.29316
1.29316
1.29316
1.29316
1.29316
1.29316
1.29316
1.29316
1.29316
1.29316
1.29316
1.29316
1.29316
1.29316
1.29317
1.29317
1.29317
1.29317
1.29317
1.29316
1.29316
1.29316
1.29316
1.29316
1.29316
1.29316
1.29316
1.29316
1.29316
1.29316
1.29316
1.29316
1.29316
1.29316
1.29316
1.29316
1.29316
1.29316
1.29316
1.29316
1.29316
1.29316
1.29316
1.29316
1.29316
1.29316
1.29316
1.29316
1.29316
1.29315
1.29315
1.29315
1.29315
1.29315
1.29315
1.29315
1.29315
1.29315
1.29316
1.29316
1.29316
1.29316
1.29316
1.29316
1.29316
1.29316
1.29316
1.29316
1.29316
1.29316
1.29316
1.29316
1.29314
1.29314
1.29314
1.29314
1.29314
1.29314
1.29314
1.29314
1.29315
1.29315
1.29315
1.29315
1.29315
1.29315
1.29315
1.29315
1.29316
1.29316
1.29316
1.29316
1.29316
1.29316
1.29316
1.29312
1.29312
1.29312
1.29312
1.29313
1.29313
1.29313
1.29313
1.29313
1.29313
1.29314
1.29314
1.29314
1.29314
1.29314
1.29315
1.29315
1.29315
1.29315
1.29315
1.29315
1.29316
1.29316
1.29311
1.29311
1.29311
1.29311
1.29311
1.29311
1.29311
1.29311
1.29311
1.29312
1.29312
1.29312
1.29312
1.29313
1.29313
1.29313
1.29314
1.29314
1.29314
1.29315
1.29315
1.29315
1.29315
1.29309
1.29309
1.29309
1.29309
1.29309
1.29309
1.2931
1.2931
1.2931
1.2931
1.2931
1.2931
1.2931
1.29311
1.29311
1.29311
1.29312
1.29312
1.29313
1.29313
1.29314
1.29314
1.29314
1.29308
1.29308
1.29308
1.29308
1.29308
1.29308
1.29308
1.29308
1.29308
1.29309
1.29309
1.29309
1.29309
1.29309
1.29309
1.2931
1.2931
1.2931
1.29311
1.29311
1.29312
1.29312
1.29313
1.29307
1.29307
1.29307
1.29307
1.29308
1.29308
1.29308
1.29308
1.29308
1.29308
1.29308
1.29308
1.29308
1.29308
1.29308
1.29308
1.29309
1.29309
1.29309
1.2931
1.2931
1.29311
1.29311
1.29307
1.29307
1.29307
1.29307
1.29307
1.29307
1.29307
1.29307
1.29307
1.29307
1.29307
1.29307
1.29307
1.29307
1.29307
1.29308
1.29308
1.29308
1.29308
1.29308
1.29309
1.29309
1.2931
1.29307
1.29307
1.29307
1.29307
1.29307
1.29307
1.29307
1.29307
1.29307
1.29307
1.29307
1.29307
1.29307
1.29307
1.29307
1.29307
1.29307
1.29308
1.29308
1.29308
1.29308
1.29308
1.29309
1.29306
1.29306
1.29306
1.29306
1.29306
1.29306
1.29306
1.29306
1.29306
1.29306
1.29307
1.29307
1.29307
1.29307
1.29307
1.29307
1.29307
1.29307
1.29307
1.29308
1.29308
1.29308
1.29309
1.29306
1.29306
1.29306
1.29306
1.29306
1.29306
1.29306
1.29306
1.29306
1.29306
1.29306
1.29307
1.29307
1.29307
1.29307
1.29307
1.29307
1.29307
1.29307
1.29308
1.29308
1.29308
1.29308
1.29306
1.29306
1.29306
1.29306
1.29306
1.29306
1.29306
1.29306
1.29306
1.29307
1.29307
1.29307
1.29307
1.29307
1.29307
1.29307
1.29307
1.29308
1.29308
1.29308
1.29308
1.29309
1.29309
1.29307
1.29307
1.29307
1.29307
1.29307
1.29307
1.29307
1.29307
1.29307
1.29307
1.29307
1.29307
1.29307
1.29308
1.29308
1.29308
1.29308
1.29308
1.29309
1.29309
1.29309
1.29309
1.2931
1.29307
1.29307
1.29307
1.29307
1.29307
1.29307
1.29307
1.29307
1.29307
1.29308
1.29308
1.29308
1.29308
1.29308
1.29308
1.29308
1.29308
1.29309
1.29309
1.29309
1.2931
1.29311
1.29312
1.29308
1.29308
1.29308
1.29308
1.29308
1.29308
1.29308
1.29308
1.29308
1.29308
1.29308
1.29308
1.29308
1.29308
1.29308
1.29309
1.29309
1.29309
1.2931
1.29311
1.29311
1.29312
1.29313
1.29308
1.29308
1.29308
1.29308
1.29308
1.29308
1.29308
1.29308
1.29308
1.29308
1.29308
1.29308
1.29308
1.29308
1.29309
1.29309
1.29309
1.2931
1.2931
1.29311
1.29313
1.29314
1.29314
1.29308
1.29308
1.29308
1.29308
1.29308
1.29308
1.29308
1.29308
1.29308
1.29308
1.29308
1.29309
1.29309
1.29309
1.29309
1.29309
1.2931
1.2931
1.29311
1.29313
1.29314
1.29315
1.29318
1.29309
1.29309
1.29309
1.29309
1.29309
1.29309
1.29309
1.29309
1.29309
1.29309
1.29309
1.29309
1.29309
1.29309
1.29309
1.29309
1.2931
1.2931
1.29312
1.29314
1.29314
1.2932
1.29339
1.29309
1.29309
1.29309
1.29309
1.29309
1.29309
1.29309
1.29309
1.29309
1.29309
1.29309
1.29309
1.29309
1.29309
1.29309
1.2931
1.2931
1.29311
1.29313
1.29315
1.29315
1.29322
1.29339
1.29309
1.29309
1.29309
1.29309
1.29309
1.29309
1.29309
1.29309
1.29309
1.29309
1.29309
1.29309
1.29309
1.29309
1.29309
1.2931
1.2931
1.29312
1.29314
1.29315
1.29314
1.29312
1.29319
1.29309
1.29309
1.29309
1.29309
1.29309
1.29309
1.29309
1.29309
1.29309
1.29309
1.29309
1.29309
1.2931
1.2931
1.2931
1.29311
1.29312
1.29313
1.29315
1.29316
1.29315
1.2931
1.29305
1.2931
1.2931
1.2931
1.2931
1.2931
1.29309
1.29309
1.29309
1.29309
1.29309
1.29309
1.2931
1.2931
1.2931
1.2931
1.29311
1.29312
1.29314
1.29316
1.29317
1.29312
1.29303
1.29298
1.2931
1.2931
1.2931
1.2931
1.2931
1.2931
1.2931
1.2931
1.2931
1.2931
1.2931
1.2931
1.2931
1.29311
1.29311
1.29312
1.29314
1.29317
1.2932
1.29319
1.2933
1.2935
1.29317
1000.05
999.772
999.907
999.914
1000.05
999.787
999.903
999.913
1000.05
1000.05
999.926
999.867
999.701
999.666
999.681
999.756
717.176
795.668
821.437
849.592
12.8223
18.7568
32.8993
58.7629
1.2932
1.29322
1.29324
1.29326
1.29345
1.29345
1.2933
1.2932
1.29317
1.29463
1.30018
1.30018
1.2932
1.29328
1.29345
1.29357
1.29317
1.29316
1.29316
1.29316
1.29317
1.29317
1.29317
1.29318
1.29317
1.29316
1.29316
1.29317
1.29317
1.29317
1.29316
1.29316
1.29316
1.29316
1.29316
1.29316
1.29316
1.29316
1.29316
1.29316
1.29316
1.29316
1.29316
1.29316
1.29316
1.29316
1.29316
1.29316
1.29316
1.29316
1.29316
1.29316
1.29316
1.29316
1.29316
1.29316
1.29316
1.29316
1.29316
1.29316
1.29316
1.29316
1.29316
1.29316
1.29315
1.29315
1.29315
1.29315
1.29315
1.29315
1.29315
1.29315
1.29314
1.29314
1.29314
1.29314
1.29312
1.29312
1.29313
1.29313
1.2931
1.2931
1.29311
1.29311
1.29309
1.29309
1.2931
1.2931
1.29309
1.29309
1.29309
1.29309
1.29309
1.29309
1.29309
1.29309
1.29309
1.29309
1.2931
1.2931
1.29311
1.29311
1.29312
1.29312
1.29312
1.29313
1.29313
1.29313
1.29314
1.29313
1.29313
1.29313
1.29313
1.29313
1.29312
1.29312
1.29316
1.29312
1.2931
1.2931
1.29317
1.29312
1.29312
1.2931
1.29363
1.29527
1.29707
1.29691
1.29606
1.3013
1.3013
1.30129
1.2968
1.30123
1.30123
1.30123
1.29303
1.29383
1.2955
1.29552
1.29288
1.29289
1.29291
1.29293
451.899
138.416
295.672
834.331
1000.05
920.1
271.345
5.29233
1.29526
1.29089
1.29096
1.29104
1.29113
1.29102
1.29093
1.29084
1.2908
1.29095
772.934
973.938
982.684
1000.05
1000.05
1000.05
880.005
171.474
2.40413
1.29196
1.29111
1.29103
1.29103
1.29106
1.29102
1.29091
1.29081
1.2908
1.29087
792.409
1000.05
1000.05
1000.05
1000.05
1000.05
821.699
83.9766
1.37323
1.2911
1.29111
1.29101
1.29101
1.29102
1.29099
1.2909
1.2908
1.29081
1.29042
792.485
999.822
999.878
999.977
1000.04
1000.05
851.707
60.3681
1.29128
1.29086
1.29104
1.29096
1.29097
1.29098
1.29095
1.29085
1.29079
1.29081
10.6955
849.424
876.16
907.794
959.86
991.6
1000.05
950.619
160.617
1.29168
1.29083
1.29091
1.29091
1.29096
1.29096
1.2909
1.29083
1.29079
1.29078
116.87
906.531
106.031
184.374
367.766
714.905
962.953
986.159
460.672
1.29173
1.2909
1.29088
1.29091
1.29094
1.29091
1.29084
1.2908
1.29088
1.29039
267.913
948.364
1.29327
1.29328
1.29329
53.9355
509.483
985.323
869.677
27.264
1.29075
1.29091
1.29092
1.2909
1.29085
1.29078
1.29076
1.29079
1.28959
380.295
972.365
1.2932
1.29323
1.29323
1.29322
28.4006
522.558
953.106
634.397
1.28848
1.29056
1.29074
1.29073
1.29067
1.29062
1.29057
1.29733
1.28894
485.293
985.261
1.29962
1.2938
1.29506
1.30055
1.29617
29.9169
624.641
827.398
601.266
47.9506
1.29078
1.2897
1.28967
1.2898
1.28964
1.28913
74.1995
724.761
991.518
1.29378
1.29619
1.3269
1.3269
1.29614
1.29614
38.2851
612.725
764.247
602.451
230.813
208.297
117.95
50.5902
67.1878
280.492
835.758
994.93
994.931
1.29857
1.32775
1.32775
1.31023
1.29343
1.31387
5.30339
100.31
544.721
694.946
770.301
770.324
759.815
722.311
744.895
866.403
892.362
951.71
991.118
1.29484
1.30146
1.29894
1.29316
1.29317
1.98557
20.6108
74.028
127.269
325.009
437.56
381.622
333.734
348.765
341.072
270.981
259.317
591.331
987.931
1.29317
1.29317
1.29315
1.29311
1.29305
1.74101
105.508
560.396
686.465
686.469
685.226
424.58
280.411
118.269
91.5857
91.5866
257.844
747.98
991.679
1.29316
1.29316
1.29315
1.29311
1.2931
1.58294
3.81394
14.057
206.024
614.08
798.425
878.38
878.377
645.349
484.518
494.521
795.385
958.289
991.955
1.29316
1.29316
1.29315
1.29311
1.29515
1.32939
1.2931
1.29315
1.29317
1.29315
16.1699
336.643
709.84
927.638
989.447
989.448
989.447
990.03
965.712
1.29316
1.29316
1.29316
1.29314
1.2933
1.30627
1.34196
1.32754
1.29315
1.29352
1.29312
1.29309
1.29303
224.938
629.487
885.679
984.134
990.03
957.219
1.29316
1.29316
1.29316
1.29315
1.29312
1.29443
1.32831
1.34734
1.33207
1.30113
1.31299
1.29992
1.29304
1.29286
1.29261
381.885
844.834
918.614
967.7
1.29316
1.29316
1.29316
1.29315
1.29314
1.29313
1.29536
1.31988
1.31472
1.30515
1.33465
1.32832
1.29311
1.29578
6.09668
101.856
651.304
936.921
978.309
1.29316
1.29316
1.29316
1.29315
1.29315
1.29314
1.29317
1.2932
1.29321
1.2933
1.29707
1.29996
1.29586
1.29591
1.88428
19.1134
246.315
818.285
978.319
1.29316
1.29316
1.29316
1.29315
1.29315
1.29314
1.29314
1.29313
1.29312
1.29312
1.29313
1.29314
1.29315
1.29512
1.46798
1.53437
1.53404
272.985
557.886
1.29316
1.29315
1.29315
1.29315
1.29315
1.29315
1.29315
1.29314
1.29314
1.29314
1.29315
1.29315
1.29315
1.29315
1.29316
1.29313
3.105
64.5378
233.342
1.29316
1.29315
1.29315
1.29315
1.29315
1.29315
1.29315
1.29314
1.29315
1.29314
1.29315
1.29315
1.29316
1.29315
1.2932
1.34869
1.77146
12.5589
148.3
1.29315
1.29315
1.29315
1.29315
1.29315
1.29315
1.29315
1.29315
1.29315
1.29315
1.29315
1.29315
1.29316
1.29315
1.29316
1.41707
1.30132
5.11996
202.508
1.29315
1.29315
1.29315
1.29315
1.29315
1.29315
1.29315
1.29315
1.29315
1.29315
1.29315
1.29315
1.29317
1.29316
1.29317
1.34998
1.30132
1.66192
202.508
1.29315
1.29315
1.29315
1.29315
1.29315
1.29315
1.29315
1.29315
1.29315
1.29315
1.29315
1.29315
1.29326
1.29325
1.29318
1.29316
1.29317
1.29316
202.451
1.29313
1.29314
1.29314
1.29315
1.29315
1.29315
1.29315
1.29315
1.29315
1.29315
1.29315
1.2932
1.29329
1.29324
1.29317
1.29316
1.29317
1.29315
98.4673
1.29312
1.29313
1.29314
1.29314
1.29314
1.29315
1.29315
1.29315
1.29315
1.29315
1.29315
1.29327
1.29329
1.29319
1.29317
1.29328
1.29345
1.29769
46.2683
1.2931
1.29311
1.29312
1.29313
1.29314
1.29314
1.29314
1.29314
1.29315
1.29315
1.29315
1.29323
1.29323
1.29351
1.37289
2.68239
3.56486
10.5641
160.553
1.2931
1.29311
1.29312
1.29313
1.29314
1.29314
1.29314
1.29314
1.29314
1.29314
1.29316
1.29316
1.29316
1.29333
1.59341
19.6398
96.0862
158.762
226.829
1.2931
1.29311
1.29312
1.29312
1.29313
1.29313
1.29314
1.29314
1.29314
1.29314
1.29315
1.29314
1.29314
1.29332
1.68604
29.318
175.294
235.938
226.829
1.29311
1.29312
1.29313
1.29313
1.29313
1.29313
1.29313
1.29313
1.29314
1.29314
1.29314
1.29314
1.29313
1.2932
1.84015
12.9785
51.6749
235.934
168.096
1.29313
1.29313
1.29313
1.29313
1.29312
1.29312
1.29312
1.29312
1.29314
1.29313
1.29313
1.29313
1.29312
1.33119
1.92021
1.29325
1.29322
202.674
168.096
1.29313
1.29313
1.29313
1.29313
1.29313
1.29312
1.29311
1.29313
1.29318
1.29318
1.29313
1.29313
1.29312
1.31567
1.42934
1.29312
1.29304
48.336
363.414
1.29313
1.29313
1.29311
1.2931
1.2931
1.2931
1.29309
1.29312
1.29316
1.29316
1.29312
1.29312
1.29321
1.29824
1.3015
1.2933
1.29295
24.3217
461.237
1.2931
1.29316
1.29768
1.30391
1.29305
1.29306
1.29307
1.29309
1.29312
1.29311
1.29311
1.29312
1.29355
1.30737
1.29375
1.29342
1.29367
11.8898
461.237
1.29309
1.2946
1.3662
1.44852
1.38282
1.29303
1.29305
1.29307
1.29309
1.29314
1.2931
1.29311
1.29511
1.30989
1.29647
1.29356
1.29816
1.29321
403.891
1.2931
1.29855
1.4116
1.47621
1.47619
1.40468
1.30943
1.29306
1.29581
1.29364
1.2931
1.29515
1.29786
1.3099
1.30239
1.29382
1.29807
1.29291
342.322
1.29514
1.29502
1.30926
1.43119
1.4762
1.4762
1.46645
1.38933
1.29575
1.29353
1.2931
1.29744
1.29753
1.3099
1.30258
1.29374
1.29364
1.29271
304.927
1.3013
1.2947
1.29354
1.29641
1.43087
1.47622
1.47623
1.39801
1.29308
1.29329
1.29313
1.29478
1.29508
1.30991
1.29823
1.29334
1.29257
1.2926
237.011
1.30124
1.29805
1.29355
1.2938
1.29552
1.33411
1.35205
1.31089
1.29308
1.2931
1.29312
1.29312
1.29348
1.29708
1.29389
1.2928
1.29253
1.29253
245.619
1.29381
1.29354
1.29509
1.29511
1.29418
1.29421
1.29468
1.29309
1.2931
1.29311
1.29311
1.29312
1.29312
1.29312
1.29338
1.29274
1.29251
1.29252
180.501
1.29297
1.29303
1.29309
1.29316
1.29663
1.29995
1.30528
1.30558
1.29954
1.29617
1.2954
1.29474
1.29432
1.29513
1.29287
1.29255
1.29249
1.2925
42.146
)
;

boundaryField
{
    leftWall
    {
        type            calculated;
        value           nonuniform List<scalar> 
50
(
1000.05
1000.05
1000.05
1000.05
1000.05
1000.05
1000.05
999.279
814.16
116.341
1.29327
1.29321
1.29319
1.29319
1.29318
1.29318
1.29318
1.29318
1.29318
1.29318
1.29318
1.29317
1.29317
1.29317
1.29317
1.29316
1.29316
1.29315
1.29314
1.29312
1.29311
1.29309
1.29308
1.29307
1.29307
1.29307
1.29306
1.29306
1.29306
1.29307
1.29307
1.29308
1.29308
1.29308
1.29309
1.29309
1.29309
1.29309
1.2931
1.2931
)
;
    }
    rightWall
    {
        type            calculated;
        value           nonuniform List<scalar> 
50
(
717.434
717.435
735.375
744.055
744.055
617.038
269.971
422.253
772.934
792.409
792.485
849.424
906.531
948.364
972.365
985.261
991.518
994.931
991.118
987.931
991.679
991.955
965.712
957.219
967.7
978.309
978.319
557.886
233.342
148.3
202.508
202.508
202.451
98.4673
46.2683
160.553
226.829
226.829
168.096
168.096
363.414
461.237
461.237
403.891
342.322
304.927
237.011
245.619
180.501
42.146
)
;
    }
    lowerWall
    {
        type            calculated;
        value           nonuniform List<scalar> 
62
(
1000.05
1000.05
1000.05
1000.05
1000.05
1000.05
1000.05
1000.05
1000.05
1000.05
1000.05
1000.05
1000.05
1000.05
1000.05
1000.05
1000.05
1000.05
1000.05
1000.05
1000.05
1000.05
999.794
999.794
999.746
999.746
999.773
1000.01
1000.05
1000.05
1000.05
1000.05
999.772
999.907
999.914
292.545
113.576
3.60195
1.29232
1.2923
1.29274
1.2929
1.29287
292.545
310.849
302.445
252.949
254.066
407.061
546.187
562.969
562.968
610.817
710.943
720.119
720.12
720.12
720.12
720.12
720.121
720.074
717.435
)
;
    }
    atmosphere
    {
        type            calculated;
        value           nonuniform List<scalar> 
46
(
1.29319
1.29319
1.29319
1.29319
1.29319
1.29319
1.29319
1.29319
1.29319
1.29319
1.29319
1.29319
1.29319
1.2932
1.2932
1.29321
1.29323
1.29326
1.29329
1.29328
1.29338
1.29358
1.29298
1.29298
1.29299
1.293
1.29303
1.29307
1.29313
1.29317
1.2932
1.29321
1.29321
1.30538
1.30569
1.29965
1.29628
1.29551
1.29485
1.29443
1.29523
1.29279
1.29265
1.2926
1.29259
42.1461
)
;
    }
    defaultFaces
    {
        type            empty;
    }
}


// ************************************************************************* //
