/*--------------------------------*- C++ -*----------------------------------*\
| =========                 |                                                 |
| \\      /  F ield         | OpenFOAM: The Open Source CFD Toolbox           |
|  \\    /   O peration     | Version:  2012                                  |
|   \\  /    A nd           | Website:  www.openfoam.com                      |
|    \\/     M anipulation  |                                                 |
\*---------------------------------------------------------------------------*/
FoamFile
{
    version     2.0;
    format      ascii;
    class       volScalarField;
    location    "0.55";
    object      rho2;
}
// * * * * * * * * * * * * * * * * * * * * * * * * * * * * * * * * * * * * * //

dimensions      [1 -3 0 0 0 0 0];


internalField   nonuniform List<scalar> 
2268
(
1.3006
1.30061
1.30064
1.30069
1.30075
1.30084
1.30094
1.30107
1.30122
1.30139
1.30158
1.3018
1.30203
1.30227
1.30251
1.30276
1.30299
1.30319
1.3034
1.30353
1.30367
1.30373
1.30378
1.29984
1.29986
1.29989
1.29993
1.3
1.30008
1.30019
1.30031
1.30046
1.30063
1.30082
1.30104
1.30127
1.30152
1.30176
1.30201
1.30224
1.30245
1.30265
1.30278
1.30293
1.30299
1.30305
1.29907
1.29909
1.29912
1.29917
1.29923
1.29932
1.29942
1.29955
1.2997
1.29987
1.30006
1.30029
1.30052
1.30077
1.30101
1.30126
1.3015
1.3017
1.30191
1.30204
1.30218
1.30223
1.30227
1.29831
1.29833
1.29836
1.2984
1.29847
1.29855
1.29865
1.29878
1.29893
1.2991
1.2993
1.29952
1.29976
1.30001
1.30026
1.30051
1.30076
1.30097
1.30118
1.30132
1.30147
1.30152
1.30158
1.29753
1.29755
1.29758
1.29762
1.29769
1.29777
1.29787
1.298
1.29815
1.29833
1.29853
1.29876
1.299
1.29926
1.29952
1.29977
1.30003
1.30023
1.30044
1.30056
1.3007
1.30071
1.30074
1.29676
1.29678
1.29681
1.29685
1.29692
1.297
1.2971
1.29723
1.29738
1.29755
1.29775
1.29798
1.29823
1.2985
1.29877
1.29903
1.2993
1.29952
1.29974
1.29988
1.30003
1.30008
1.30013
1.29598
1.29599
1.29602
1.29607
1.29613
1.29621
1.29631
1.29644
1.29659
1.29677
1.29698
1.29722
1.29747
1.29775
1.29802
1.29829
1.29857
1.29879
1.29901
1.29911
1.29923
1.29915
1.29914
1.29522
1.29524
1.29527
1.29531
1.29537
1.29545
1.29555
1.29567
1.29582
1.29599
1.2962
1.29644
1.29669
1.29698
1.29728
1.29756
1.29786
1.29809
1.29834
1.29847
1.29864
1.29863
1.29867
1.29821
1.29199
1.29182
1.29156
1.29173
1.29154
1.29206
1.29174
1.29028
1.29019
1.29019
1.28997
1.28991
1.29003
1.29018
1.29086
1.29216
1.29752
1.30612
1.29248
1.29281
1.2933
1.29308
1.29313
1.29226
1.292
1.2903
1.28902
1.28905
1.28917
1.28922
1.28921
1.28913
1.28933
1.28982
1.29071
1.29525
1.30298
1.29181
1.29283
1.29297
1.29336
1.29393
1.29339
1.29294
1.29074
1.28892
1.28908
1.29025
1.29137
1.29125
1.28985
1.28919
1.2892
1.28964
1.29263
1.30024
1.29183
1.29273
1.29293
1.29342
1.29383
1.29361
1.29372
1.29127
1.28922
1.29077
1.29093
1.29081
1.29084
1.291
1.29102
1.29027
1.28931
1.29016
1.29711
1.2923
1.29271
1.29302
1.29272
1.29325
1.29254
1.29324
1.29149
1.28964
1.29028
1.29078
1.29063
1.29062
1.29077
1.29088
1.29065
1.28957
1.28886
1.29415
1.29274
1.29274
1.29308
1.29262
1.29313
1.29226
1.29126
1.29098
1.28989
1.29027
1.29076
1.29077
1.29088
1.2909
1.29089
1.29083
1.29031
1.28879
1.29212
1.2929
1.29281
1.29334
1.29301
1.29286
1.29178
1.29052
1.28988
1.28984
1.29035
1.29077
1.29089
1.291
1.29096
1.29092
1.29086
1.29067
1.2899
1.29047
1.29287
1.29283
1.29359
1.29317
1.29258
1.2914
1.28984
1.28965
1.28993
1.29051
1.29082
1.29098
1.2911
1.291
1.29093
1.29086
1.29079
1.29066
1.28977
1.29414
1.29415
1.29417
1.2942
1.29424
1.2943
1.29439
1.29449
1.29463
1.2948
1.29501
1.29526
1.29552
1.29582
1.29611
1.29641
1.29674
1.29697
1.29721
1.29724
1.29736
1.2969
1.29664
1.29338
1.29339
1.29339
1.2934
1.29341
1.29343
1.29346
1.29349
1.29355
1.29362
1.29371
1.29385
1.29404
1.29429
1.29459
1.29493
1.29528
1.29559
1.29589
1.29609
1.29626
1.29607
1.29609
1.29327
1.29327
1.29327
1.29327
1.29327
1.29328
1.29328
1.2933
1.29332
1.29331
1.29332
1.29331
1.29336
1.29343
1.29355
1.29375
1.29404
1.29429
1.29455
1.29472
1.29486
1.29479
1.29487
1.29321
1.29321
1.29321
1.29321
1.29321
1.29322
1.29322
1.29323
1.29324
1.29324
1.29324
1.29325
1.29329
1.29329
1.29326
1.2933
1.29337
1.2935
1.29372
1.29395
1.29407
1.29404
1.29404
1.29319
1.29319
1.29319
1.29319
1.29319
1.29319
1.29319
1.2932
1.2932
1.2932
1.2932
1.2932
1.29323
1.29322
1.2932
1.29321
1.29326
1.29327
1.2933
1.29334
1.29342
1.29353
1.29369
1.29319
1.29319
1.29319
1.29319
1.29319
1.29319
1.29319
1.29319
1.29319
1.29319
1.29319
1.29319
1.29319
1.29319
1.29318
1.29318
1.29319
1.2932
1.29321
1.29323
1.29327
1.29325
1.29324
1.29318
1.29318
1.29318
1.29318
1.29318
1.29318
1.29318
1.29318
1.29318
1.29318
1.29318
1.29318
1.29318
1.29318
1.29318
1.29318
1.29318
1.29318
1.29318
1.29318
1.29318
1.29318
1.29319
1.29318
1.29318
1.29318
1.29318
1.29318
1.29318
1.29318
1.29318
1.29318
1.29318
1.29318
1.29318
1.29318
1.29318
1.29318
1.29318
1.29318
1.29318
1.29318
1.29317
1.29317
1.29317
1.29317
1.29318
1.29318
1.29318
1.29318
1.29318
1.29318
1.29318
1.29318
1.29318
1.29318
1.29318
1.29318
1.29318
1.29318
1.29318
1.29318
1.29318
1.29317
1.29317
1.29317
1.29317
1.29317
1.29317
1.29318
1.29318
1.29318
1.29318
1.29318
1.29318
1.29318
1.29318
1.29318
1.29318
1.29318
1.29318
1.29318
1.29318
1.29318
1.29318
1.29318
1.29317
1.29317
1.29317
1.29317
1.29317
1.29317
1.29318
1.29318
1.29318
1.29318
1.29318
1.29318
1.29318
1.29318
1.29318
1.29318
1.29318
1.29318
1.29318
1.29318
1.29318
1.29317
1.29317
1.29317
1.29317
1.29317
1.29317
1.29317
1.29317
1.29318
1.29318
1.29318
1.29318
1.29318
1.29318
1.29318
1.29318
1.29318
1.29318
1.29318
1.29318
1.29318
1.29318
1.29317
1.29317
1.29317
1.29317
1.29317
1.29317
1.29317
1.29317
1.29317
1.29318
1.29318
1.29318
1.29318
1.29318
1.29318
1.29318
1.29318
1.29318
1.29317
1.29317
1.29317
1.29317
1.29317
1.29317
1.29317
1.29317
1.29317
1.29317
1.29317
1.29317
1.29317
1.29317
1.29317
1.29317
1.29317
1.29317
1.29317
1.29317
1.29317
1.29317
1.29317
1.29317
1.29317
1.29317
1.29317
1.29317
1.29317
1.29317
1.29317
1.29317
1.29317
1.29317
1.29317
1.29317
1.29317
1.29317
1.29317
1.29317
1.29317
1.29317
1.29317
1.29317
1.29317
1.29317
1.29317
1.29317
1.29317
1.29317
1.29317
1.29317
1.29317
1.29317
1.29317
1.29317
1.29317
1.29317
1.29317
1.29316
1.29317
1.29317
1.29317
1.29317
1.29317
1.29317
1.29317
1.29317
1.29317
1.29317
1.29317
1.29317
1.29317
1.29317
1.29317
1.29317
1.29317
1.29317
1.29317
1.29317
1.29317
1.29317
1.29316
1.29317
1.29317
1.29317
1.29317
1.29317
1.29317
1.29317
1.29317
1.29317
1.29317
1.29317
1.29317
1.29317
1.29317
1.29317
1.29317
1.29317
1.29317
1.29317
1.29316
1.29316
1.29316
1.29316
1.29316
1.29316
1.29316
1.29316
1.29316
1.29316
1.29316
1.29316
1.29316
1.29316
1.29316
1.29317
1.29317
1.29317
1.29317
1.29317
1.29316
1.29316
1.29316
1.29316
1.29316
1.29316
1.29316
1.29316
1.29316
1.29316
1.29316
1.29316
1.29316
1.29316
1.29316
1.29316
1.29316
1.29316
1.29316
1.29316
1.29316
1.29316
1.29316
1.29316
1.29316
1.29316
1.29316
1.29316
1.29316
1.29316
1.29315
1.29315
1.29315
1.29315
1.29315
1.29315
1.29315
1.29315
1.29315
1.29316
1.29316
1.29316
1.29316
1.29316
1.29316
1.29316
1.29316
1.29316
1.29316
1.29316
1.29316
1.29316
1.29316
1.29314
1.29314
1.29314
1.29314
1.29314
1.29314
1.29314
1.29314
1.29315
1.29315
1.29315
1.29315
1.29315
1.29315
1.29315
1.29315
1.29316
1.29316
1.29316
1.29316
1.29316
1.29316
1.29316
1.29312
1.29312
1.29312
1.29312
1.29313
1.29313
1.29313
1.29313
1.29313
1.29313
1.29314
1.29314
1.29314
1.29314
1.29314
1.29315
1.29315
1.29315
1.29315
1.29315
1.29315
1.29316
1.29316
1.29311
1.29311
1.29311
1.29311
1.29311
1.29311
1.29311
1.29311
1.29311
1.29312
1.29312
1.29312
1.29312
1.29313
1.29313
1.29313
1.29314
1.29314
1.29314
1.29315
1.29315
1.29315
1.29315
1.29309
1.29309
1.29309
1.29309
1.29309
1.29309
1.2931
1.2931
1.2931
1.2931
1.2931
1.2931
1.2931
1.29311
1.29311
1.29311
1.29312
1.29312
1.29313
1.29313
1.29314
1.29314
1.29314
1.29308
1.29308
1.29308
1.29308
1.29308
1.29308
1.29308
1.29308
1.29308
1.29309
1.29309
1.29309
1.29309
1.29309
1.29309
1.2931
1.2931
1.2931
1.29311
1.29311
1.29312
1.29312
1.29313
1.29307
1.29307
1.29307
1.29307
1.29308
1.29308
1.29308
1.29308
1.29308
1.29308
1.29308
1.29308
1.29308
1.29308
1.29308
1.29308
1.29309
1.29309
1.29309
1.2931
1.2931
1.29311
1.29311
1.29307
1.29307
1.29307
1.29307
1.29307
1.29307
1.29307
1.29307
1.29307
1.29307
1.29307
1.29307
1.29307
1.29307
1.29307
1.29308
1.29308
1.29308
1.29308
1.29308
1.29309
1.29309
1.2931
1.29307
1.29307
1.29307
1.29307
1.29307
1.29307
1.29307
1.29307
1.29307
1.29307
1.29307
1.29307
1.29307
1.29307
1.29307
1.29307
1.29307
1.29308
1.29308
1.29308
1.29308
1.29308
1.29309
1.29306
1.29306
1.29306
1.29306
1.29306
1.29306
1.29306
1.29306
1.29306
1.29306
1.29307
1.29307
1.29307
1.29307
1.29307
1.29307
1.29307
1.29307
1.29307
1.29308
1.29308
1.29308
1.29309
1.29306
1.29306
1.29306
1.29306
1.29306
1.29306
1.29306
1.29306
1.29306
1.29306
1.29306
1.29307
1.29307
1.29307
1.29307
1.29307
1.29307
1.29307
1.29307
1.29308
1.29308
1.29308
1.29308
1.29306
1.29306
1.29306
1.29306
1.29306
1.29306
1.29306
1.29306
1.29306
1.29307
1.29307
1.29307
1.29307
1.29307
1.29307
1.29307
1.29307
1.29308
1.29308
1.29308
1.29308
1.29309
1.29309
1.29307
1.29307
1.29307
1.29307
1.29307
1.29307
1.29307
1.29307
1.29307
1.29307
1.29307
1.29307
1.29307
1.29308
1.29308
1.29308
1.29308
1.29308
1.29309
1.29309
1.29309
1.29309
1.2931
1.29307
1.29307
1.29307
1.29307
1.29307
1.29307
1.29307
1.29307
1.29307
1.29308
1.29308
1.29308
1.29308
1.29308
1.29308
1.29308
1.29308
1.29309
1.29309
1.29309
1.2931
1.29311
1.29312
1.29308
1.29308
1.29308
1.29308
1.29308
1.29308
1.29308
1.29308
1.29308
1.29308
1.29308
1.29308
1.29308
1.29308
1.29308
1.29309
1.29309
1.29309
1.2931
1.29311
1.29311
1.29312
1.29313
1.29308
1.29308
1.29308
1.29308
1.29308
1.29308
1.29308
1.29308
1.29308
1.29308
1.29308
1.29308
1.29308
1.29308
1.29309
1.29309
1.29309
1.2931
1.2931
1.29311
1.29313
1.29314
1.29314
1.29308
1.29308
1.29308
1.29308
1.29308
1.29308
1.29308
1.29308
1.29308
1.29308
1.29308
1.29309
1.29309
1.29309
1.29309
1.29309
1.2931
1.2931
1.29311
1.29313
1.29314
1.29314
1.29313
1.29309
1.29309
1.29309
1.29309
1.29309
1.29309
1.29309
1.29309
1.29309
1.29309
1.29309
1.29309
1.29309
1.29309
1.29309
1.29309
1.2931
1.2931
1.29312
1.29314
1.29314
1.29313
1.29311
1.29309
1.29309
1.29309
1.29309
1.29309
1.29309
1.29309
1.29309
1.29309
1.29309
1.29309
1.29309
1.29309
1.29309
1.29309
1.2931
1.2931
1.29311
1.29313
1.29315
1.29315
1.29312
1.29311
1.29309
1.29309
1.29309
1.29309
1.29309
1.29309
1.29309
1.29309
1.29309
1.29309
1.29309
1.29309
1.29309
1.29309
1.29309
1.2931
1.2931
1.29312
1.29314
1.29315
1.29314
1.29311
1.29309
1.29309
1.29309
1.29309
1.29309
1.29309
1.29309
1.29309
1.29309
1.29309
1.29309
1.29309
1.29309
1.2931
1.2931
1.2931
1.29311
1.29312
1.29313
1.29315
1.29316
1.29315
1.2931
1.29305
1.2931
1.2931
1.2931
1.2931
1.2931
1.29309
1.29309
1.29309
1.29309
1.29309
1.29309
1.2931
1.2931
1.2931
1.2931
1.29311
1.29312
1.29314
1.29316
1.29316
1.29312
1.29303
1.29295
1.2931
1.2931
1.2931
1.2931
1.2931
1.2931
1.2931
1.2931
1.2931
1.2931
1.2931
1.2931
1.2931
1.29311
1.29311
1.29312
1.29314
1.29317
1.2932
1.29319
1.29308
1.29295
1.29289
1.29497
1.29542
1.29453
1.29428
1.29518
1.29497
1.2944
1.29412
1.29438
1.29439
1.29407
1.29399
1.29375
1.29362
1.29347
1.29331
1.2938
1.29385
1.29384
1.29382
1.29325
1.29326
1.29327
1.2933
1.2932
1.29322
1.29324
1.29326
1.29317
1.29317
1.29318
1.29318
1.29317
1.29317
1.29317
1.29317
1.29317
1.29317
1.29317
1.29317
1.29317
1.29316
1.29316
1.29316
1.29317
1.29317
1.29317
1.29317
1.29317
1.29316
1.29316
1.29316
1.29317
1.29317
1.29316
1.29316
1.29316
1.29316
1.29316
1.29316
1.29316
1.29316
1.29316
1.29316
1.29316
1.29316
1.29316
1.29316
1.29316
1.29316
1.29316
1.29316
1.29316
1.29316
1.29316
1.29316
1.29316
1.29316
1.29316
1.29316
1.29316
1.29316
1.29316
1.29316
1.29316
1.29316
1.29316
1.29316
1.29315
1.29315
1.29315
1.29315
1.29315
1.29315
1.29315
1.29315
1.29314
1.29314
1.29314
1.29314
1.29312
1.29312
1.29313
1.29313
1.2931
1.2931
1.29311
1.29311
1.29309
1.29309
1.2931
1.2931
1.29309
1.29309
1.29309
1.29309
1.29309
1.29309
1.29309
1.29309
1.29309
1.29309
1.2931
1.2931
1.29311
1.29311
1.29312
1.29312
1.29312
1.29313
1.29313
1.29313
1.29314
1.29313
1.29313
1.29312
1.29313
1.29312
1.29311
1.2931
1.29311
1.2931
1.2931
1.29309
1.2931
1.2931
1.2931
1.29309
1.2931
1.29309
1.29309
1.29309
1.29307
1.29306
1.29306
1.29305
1.29301
1.29299
1.29299
1.29299
1.29292
1.29292
1.29293
1.29295
1.29288
1.29289
1.29291
1.29293
1.2921
1.29233
1.29285
1.29265
1.29227
1.29079
1.2897
1.28964
1.29045
1.29089
1.29096
1.29104
1.29113
1.29102
1.29093
1.29083
1.29079
1.29095
1.28918
1.29311
1.29247
1.29271
1.29227
1.29192
1.29056
1.29004
1.29049
1.29089
1.29111
1.29103
1.29102
1.29106
1.29102
1.29091
1.29081
1.29079
1.29087
1.2892
1.29349
1.29336
1.29311
1.29251
1.29206
1.29039
1.29017
1.29108
1.2909
1.29111
1.291
1.291
1.29102
1.29099
1.2909
1.29079
1.29081
1.29042
1.28924
1.29308
1.29271
1.29283
1.29231
1.29213
1.29032
1.29021
1.29128
1.29081
1.29103
1.29096
1.29097
1.29098
1.29095
1.29085
1.29079
1.29081
1.28915
1.2893
1.29373
1.29356
1.29325
1.29266
1.29229
1.29066
1.29033
1.29168
1.29083
1.29091
1.29091
1.29096
1.29096
1.2909
1.29083
1.29079
1.29078
1.28854
1.28945
1.29333
1.2934
1.29353
1.29355
1.29265
1.2915
1.29048
1.29173
1.2909
1.29088
1.29091
1.29094
1.29091
1.29084
1.2908
1.29088
1.29039
1.28814
1.28976
1.29327
1.29328
1.29329
1.29326
1.29332
1.29221
1.29005
1.28924
1.29075
1.29091
1.29092
1.2909
1.29085
1.29078
1.29076
1.29079
1.28959
1.28783
1.29021
1.2932
1.29323
1.29322
1.29322
1.29321
1.29322
1.29181
1.28924
1.28848
1.29056
1.29074
1.29073
1.29067
1.29062
1.29057
1.29024
1.28894
1.28791
1.29114
1.29317
1.29318
1.29319
1.29319
1.2932
1.29321
1.29324
1.29139
1.28812
1.28842
1.29078
1.2897
1.28967
1.2898
1.28964
1.28913
1.28734
1.28885
1.29235
1.29317
1.29317
1.29317
1.29317
1.29318
1.29318
1.29313
1.29286
1.29084
1.28851
1.28874
1.28696
1.28667
1.28693
1.28695
1.28697
1.28883
1.29167
1.29414
1.29316
1.29316
1.29316
1.29317
1.29317
1.29317
1.29312
1.29322
1.29293
1.29195
1.29012
1.2887
1.28797
1.28761
1.28802
1.28954
1.29119
1.29225
1.294
1.29316
1.29316
1.29316
1.29316
1.29315
1.29308
1.29303
1.29259
1.29201
1.29395
1.29325
1.29309
1.29224
1.2919
1.29183
1.29205
1.2924
1.29279
1.2936
1.29316
1.29316
1.29315
1.29311
1.29305
1.29297
1.29301
1.29302
1.29301
1.29327
1.29272
1.29224
1.29115
1.29061
1.29079
1.29107
1.2913
1.29155
1.29235
1.29316
1.29316
1.29315
1.29311
1.29304
1.29301
1.29304
1.29311
1.29329
1.29362
1.29375
1.29313
1.29218
1.29189
1.29202
1.29214
1.29246
1.29256
1.29283
1.29316
1.29316
1.29315
1.29311
1.29305
1.29303
1.2931
1.29315
1.29317
1.29315
1.29313
1.29338
1.29361
1.29296
1.29235
1.2924
1.2925
1.29228
1.29243
1.29316
1.29316
1.29316
1.29314
1.29308
1.29305
1.29311
1.29314
1.29315
1.29312
1.29312
1.29308
1.29303
1.29306
1.29329
1.29282
1.29293
1.29276
1.29289
1.29316
1.29316
1.29316
1.29315
1.29312
1.29307
1.29309
1.29312
1.29313
1.29311
1.29311
1.2931
1.29304
1.29286
1.29261
1.29258
1.29207
1.29236
1.29264
1.29316
1.29316
1.29316
1.29315
1.29314
1.2931
1.29309
1.29309
1.2931
1.2931
1.29312
1.29312
1.29311
1.293
1.29271
1.29242
1.2921
1.29224
1.29292
1.29316
1.29316
1.29316
1.29315
1.29315
1.29313
1.29312
1.2931
1.29311
1.29311
1.29312
1.29313
1.29314
1.2931
1.293
1.29274
1.29229
1.29209
1.29294
1.29316
1.29316
1.29316
1.29315
1.29315
1.29314
1.29314
1.29313
1.29312
1.29312
1.29313
1.29314
1.29315
1.29314
1.29312
1.29304
1.29267
1.2922
1.29285
1.29316
1.29315
1.29315
1.29315
1.29315
1.29315
1.29315
1.29314
1.29314
1.29314
1.29315
1.29314
1.29315
1.29315
1.29316
1.29313
1.29299
1.29255
1.29239
1.29316
1.29315
1.29315
1.29315
1.29315
1.29315
1.29315
1.29314
1.29315
1.29314
1.29315
1.29315
1.29316
1.29315
1.29316
1.29316
1.29317
1.29306
1.29303
1.29315
1.29315
1.29315
1.29315
1.29315
1.29315
1.29315
1.29315
1.29315
1.29315
1.29315
1.29315
1.29316
1.29315
1.29316
1.29316
1.29317
1.29315
1.29296
1.29315
1.29315
1.29315
1.29315
1.29315
1.29315
1.29315
1.29315
1.29315
1.29315
1.29315
1.29315
1.29316
1.29315
1.29317
1.29315
1.29317
1.29316
1.29298
1.29315
1.29315
1.29315
1.29315
1.29315
1.29315
1.29315
1.29315
1.29315
1.29315
1.29315
1.29315
1.29316
1.29315
1.29317
1.29316
1.29317
1.29316
1.29302
1.29313
1.29314
1.29314
1.29315
1.29315
1.29315
1.29315
1.29315
1.29315
1.29315
1.29315
1.29315
1.29316
1.29315
1.29317
1.29316
1.29317
1.29315
1.29306
1.29312
1.29313
1.29314
1.29314
1.29314
1.29315
1.29315
1.29315
1.29315
1.29315
1.29315
1.29315
1.29316
1.29315
1.29317
1.29316
1.29311
1.29308
1.29306
1.2931
1.29311
1.29312
1.29313
1.29314
1.29314
1.29314
1.29314
1.29315
1.29315
1.29315
1.29315
1.29315
1.29315
1.29315
1.29308
1.29303
1.29294
1.29289
1.2931
1.29311
1.29312
1.29313
1.29314
1.29314
1.29314
1.29314
1.29314
1.29314
1.29315
1.29314
1.29315
1.29313
1.29312
1.29304
1.29303
1.29261
1.29294
1.2931
1.29311
1.29312
1.29312
1.29313
1.29313
1.29314
1.29314
1.29314
1.29314
1.29314
1.29314
1.29313
1.29312
1.29309
1.29321
1.29324
1.29305
1.29301
1.29311
1.29312
1.29312
1.29313
1.29313
1.29313
1.29313
1.29313
1.29314
1.29314
1.29314
1.29313
1.29313
1.29311
1.29312
1.29329
1.29335
1.29317
1.293
1.29313
1.29313
1.29312
1.29312
1.29312
1.29312
1.29312
1.29312
1.29313
1.29313
1.29313
1.29313
1.29312
1.2931
1.29315
1.29325
1.29322
1.29332
1.29316
1.29313
1.29312
1.29311
1.2931
1.2931
1.2931
1.29311
1.29311
1.29312
1.29312
1.29312
1.29312
1.29311
1.2931
1.29313
1.29312
1.29304
1.29334
1.29309
1.29311
1.29309
1.29308
1.29307
1.29307
1.29308
1.29309
1.2931
1.29311
1.29311
1.29311
1.29312
1.2931
1.2931
1.2931
1.29308
1.29295
1.29324
1.29311
1.29309
1.29308
1.29306
1.29305
1.29304
1.29305
1.29307
1.29308
1.2931
1.29311
1.29311
1.29311
1.2931
1.2931
1.29308
1.29306
1.29288
1.29325
1.29305
1.29309
1.29307
1.29305
1.29303
1.29302
1.29303
1.29305
1.29307
1.29308
1.2931
1.2931
1.29311
1.2931
1.29309
1.29307
1.29304
1.29282
1.29321
1.29301
1.29309
1.29308
1.29306
1.29303
1.29302
1.29303
1.29304
1.29306
1.29308
1.29309
1.2931
1.29311
1.2931
1.2931
1.29307
1.29303
1.29272
1.29291
1.29298
1.29309
1.29308
1.29307
1.29304
1.29302
1.29303
1.29304
1.29306
1.29307
1.29309
1.29309
1.2931
1.2931
1.2931
1.29308
1.29298
1.29265
1.29271
1.29294
1.29306
1.29308
1.29308
1.29307
1.29305
1.29304
1.29305
1.29307
1.29308
1.2931
1.2931
1.29311
1.29311
1.2931
1.29309
1.29288
1.29257
1.2926
1.29287
1.29302
1.29306
1.29308
1.29308
1.29308
1.29306
1.29306
1.29307
1.29308
1.29309
1.2931
1.2931
1.2931
1.29311
1.29306
1.29274
1.29253
1.29253
1.29288
1.29298
1.29304
1.29308
1.2931
1.2931
1.2931
1.29309
1.29309
1.2931
1.29311
1.29311
1.29312
1.29312
1.29312
1.29298
1.29265
1.29251
1.29252
1.29258
1.29297
1.29303
1.29307
1.2931
1.29311
1.29311
1.29311
1.29311
1.29311
1.29311
1.29311
1.29312
1.29311
1.29309
1.29269
1.29255
1.29249
1.2925
1.29251
)
;

boundaryField
{
    leftWall
    {
        type            calculated;
        value           nonuniform List<scalar> 
50
(
1.3006
1.29984
1.29907
1.29831
1.29753
1.29676
1.29598
1.29522
1.29414
1.29338
1.29327
1.29321
1.29319
1.29319
1.29318
1.29318
1.29318
1.29318
1.29318
1.29318
1.29318
1.29317
1.29317
1.29317
1.29317
1.29316
1.29316
1.29315
1.29314
1.29312
1.29311
1.29309
1.29308
1.29307
1.29307
1.29307
1.29306
1.29306
1.29306
1.29307
1.29307
1.29308
1.29308
1.29308
1.29309
1.29309
1.29309
1.29309
1.2931
1.2931
)
;
    }
    rightWall
    {
        type            calculated;
        value           nonuniform List<scalar> 
50
(
1.30612
1.30298
1.30024
1.29711
1.29415
1.29212
1.29047
1.28977
1.28918
1.2892
1.28924
1.2893
1.28945
1.28976
1.29021
1.29114
1.29235
1.29414
1.294
1.2936
1.29235
1.29283
1.29243
1.29289
1.29264
1.29292
1.29294
1.29285
1.29239
1.29303
1.29296
1.29298
1.29302
1.29306
1.29306
1.29289
1.29294
1.29301
1.293
1.29316
1.29309
1.29311
1.29305
1.29301
1.29298
1.29294
1.29287
1.29288
1.29258
1.29251
)
;
    }
    lowerWall
    {
        type            calculated;
        value           nonuniform List<scalar> 
62
(
1.30097
1.30099
1.30102
1.30107
1.30113
1.30122
1.30132
1.30144
1.30159
1.30176
1.30196
1.30217
1.3024
1.30264
1.30289
1.30313
1.30337
1.30357
1.30377
1.3039
1.30405
1.30411
1.30416
1.30378
1.30305
1.30227
1.30158
1.30074
1.30013
1.29914
1.29867
1.29577
1.29622
1.29533
1.29508
1.29821
1.29248
1.29181
1.29183
1.2923
1.29274
1.2929
1.29287
1.29832
1.29211
1.29193
1.29166
1.29182
1.29169
1.29227
1.29195
1.29049
1.29042
1.29046
1.29024
1.29018
1.2903
1.29046
1.29113
1.29243
1.29779
1.30639
)
;
    }
    atmosphere
    {
        type            calculated;
        value           nonuniform List<scalar> 
46
(
1.29319
1.29319
1.29319
1.29319
1.29319
1.29319
1.29319
1.29319
1.29319
1.29319
1.29319
1.29319
1.29319
1.2932
1.2932
1.29321
1.29323
1.29326
1.29329
1.29328
1.29317
1.29304
1.29298
1.29298
1.29299
1.293
1.29303
1.29307
1.29313
1.29317
1.2932
1.29321
1.29321
1.29322
1.29321
1.29321
1.29322
1.29322
1.29322
1.29322
1.29319
1.29279
1.29265
1.2926
1.29259
1.29267
)
;
    }
    defaultFaces
    {
        type            empty;
    }
}


// ************************************************************************* //
