/*--------------------------------*- C++ -*----------------------------------*\
| =========                 |                                                 |
| \\      /  F ield         | OpenFOAM: The Open Source CFD Toolbox           |
|  \\    /   O peration     | Version:  2012                                  |
|   \\  /    A nd           | Website:  www.openfoam.com                      |
|    \\/     M anipulation  |                                                 |
\*---------------------------------------------------------------------------*/
FoamFile
{
    version     2.0;
    format      ascii;
    class       volVectorField;
    location    "0.55";
    object      U;
}
// * * * * * * * * * * * * * * * * * * * * * * * * * * * * * * * * * * * * * //

dimensions      [0 1 -1 0 0 0 0];


internalField   nonuniform List<vector> 
2268
(
(0.00905221 -0.00502532 0)
(0.0320601 -0.00530676 0)
(0.0526178 -0.00476565 0)
(0.0712945 -0.00424202 0)
(0.0874914 -0.00403879 0)
(0.10436 -0.00446459 0)
(0.124187 -0.00365709 0)
(0.134879 -0.00268678 0)
(0.146998 -0.0021179 0)
(0.156055 -0.00152837 0)
(0.161521 -0.0003244 0)
(0.164164 0.000355537 0)
(0.164837 0.000362797 0)
(0.164958 0.000304054 0)
(0.162089 0.00070637 0)
(0.155699 7.86899e-05 0)
(0.147779 0.000427405 0)
(0.136563 -0.000855613 0)
(0.12478 -0.0003259 0)
(0.108608 -0.00150503 0)
(0.0870311 -0.00119235 0)
(0.0631128 -0.00342109 0)
(0.028749 0.0121084 0)
(0.00890436 -0.0144002 0)
(0.0319019 -0.0152801 0)
(0.052592 -0.0137719 0)
(0.071732 -0.012237 0)
(0.0880963 -0.0115826 0)
(0.105084 -0.0128767 0)
(0.124433 -0.010762 0)
(0.135219 -0.00809092 0)
(0.147475 -0.00788847 0)
(0.157436 -0.00533495 0)
(0.161076 -0.00350679 0)
(0.165353 -0.00192635 0)
(0.165848 -0.000737933 0)
(0.165173 0.000991061 0)
(0.161915 0.00366798 0)
(0.155497 0.00668707 0)
(0.147903 0.00860592 0)
(0.137059 0.0117364 0)
(0.124354 0.0135213 0)
(0.106728 0.0193724 0)
(0.0818787 0.0226859 0)
(0.0525494 0.0309967 0)
(0.00910756 0.0313339 0)
(0.00860484 -0.02432 0)
(0.03195 -0.0259635 0)
(0.0527092 -0.0235981 0)
(0.0724845 -0.021032 0)
(0.0891103 -0.0198083 0)
(0.106304 -0.0216477 0)
(0.124599 -0.0179072 0)
(0.135442 -0.0135827 0)
(0.148476 -0.0126228 0)
(0.15757 -0.00795688 0)
(0.16232 -0.00406138 0)
(0.166698 -0.0018978 0)
(0.168257 0.000457905 0)
(0.166555 0.00216769 0)
(0.163455 0.00528472 0)
(0.157215 0.0067035 0)
(0.150809 0.00913987 0)
(0.141008 0.0102871 0)
(0.130611 0.0139817 0)
(0.114448 0.0185662 0)
(0.0922121 0.0243471 0)
(0.0648171 0.030927 0)
(0.0170818 0.041132 0)
(0.00828008 -0.033548 0)
(0.0322927 -0.0361086 0)
(0.0529727 -0.0329106 0)
(0.0734 -0.0294244 0)
(0.0905315 -0.0275471 0)
(0.108211 -0.0296354 0)
(0.125447 -0.0245163 0)
(0.136751 -0.0193628 0)
(0.150746 -0.0183373 0)
(0.159052 -0.011877 0)
(0.16467 -0.00782286 0)
(0.168681 -0.00474265 0)
(0.169293 -0.000677985 0)
(0.166745 0.00324622 0)
(0.162812 0.00807509 0)
(0.156839 0.0126687 0)
(0.150571 0.0162464 0)
(0.140921 0.0212983 0)
(0.128939 0.0260725 0)
(0.113503 0.037593 0)
(0.0902147 0.0462009 0)
(0.0647238 0.0666522 0)
(0.0122128 0.0702314 0)
(0.00867294 -0.0435194 0)
(0.0326617 -0.0471085 0)
(0.0532611 -0.043049 0)
(0.074314 -0.0388063 0)
(0.0920725 -0.0362817 0)
(0.110297 -0.0381706 0)
(0.126142 -0.0314162 0)
(0.137986 -0.0255564 0)
(0.15279 -0.0231749 0)
(0.160116 -0.0145396 0)
(0.166984 -0.00860285 0)
(0.171072 -0.00407273 0)
(0.172469 0.00139019 0)
(0.170026 0.00524601 0)
(0.167222 0.0099738 0)
(0.16036 0.012489 0)
(0.155188 0.0166637 0)
(0.146684 0.0205133 0)
(0.137876 0.0268845 0)
(0.1236 0.036798 0)
(0.103975 0.0472365 0)
(0.0797499 0.067556 0)
(0.0250361 0.0771686 0)
(0.0101282 -0.0530492 0)
(0.0327884 -0.0571501 0)
(0.0535558 -0.0525632 0)
(0.0751969 -0.0477355 0)
(0.093968 -0.044521 0)
(0.112997 -0.0457094 0)
(0.128055 -0.0375717 0)
(0.14129 -0.0319328 0)
(0.156771 -0.0287784 0)
(0.163228 -0.0185848 0)
(0.170133 -0.0130069 0)
(0.174417 -0.00735561 0)
(0.173921 -0.000198697 0)
(0.170469 0.00570172 0)
(0.166296 0.0126368 0)
(0.159461 0.0183692 0)
(0.154277 0.0226883 0)
(0.146615 0.0295205 0)
(0.136843 0.0370133 0)
(0.124604 0.05379 0)
(0.103048 0.0671034 0)
(0.0821837 0.104391 0)
(0.0227337 0.120246 0)
(0.0118405 -0.063843 0)
(0.0333599 -0.067671 0)
(0.0540193 -0.0631315 0)
(0.0761595 -0.0579442 0)
(0.0961119 -0.0541835 0)
(0.115561 -0.0543156 0)
(0.129772 -0.0448255 0)
(0.144132 -0.0391571 0)
(0.159277 -0.033562 0)
(0.164906 -0.0208589 0)
(0.173877 -0.0138737 0)
(0.177728 -0.0058416 0)
(0.179235 0.00328059 0)
(0.175997 0.00887501 0)
(0.173398 0.0151758 0)
(0.164364 0.0181641 0)
(0.159788 0.0227293 0)
(0.153037 0.0287321 0)
(0.147893 0.0371823 0)
(0.137963 0.0525864 0)
(0.123635 0.0669515 0)
(0.105972 0.104919 0)
(0.0409247 0.125985 0)
(0.0129141 -0.0743613 0)
(0.0341436 -0.0770344 0)
(0.0548963 -0.0727412 0)
(0.077259 -0.0675798 0)
(0.09888 -0.0630952 0)
(0.118603 -0.0615701 0)
(0.133361 -0.0510273 0)
(0.149613 -0.0458367 0)
(0.163682 -0.0385678 0)
(0.169686 -0.0254867 0)
(0.180074 -0.0190792 0)
(0.181562 -0.00992719 0)
(0.18244 0.000600631 0)
(0.176983 0.00842409 0)
(0.172665 0.0181399 0)
(0.163128 0.0248292 0)
(0.158726 0.0280215 0)
(0.153572 0.0352164 0)
(0.148175 0.0442116 0)
(0.140979 0.065579 0)
(0.12477 0.0825601 0)
(0.11215 0.144392 0)
(0.0449922 0.190803 0)
(-2.10586 0.302616 0)
(-2.27312 -0.143491 0)
(-2.40892 -0.150699 0)
(-2.22767 -0.145969 0)
(-2.09626 -0.126725 0)
(-2.01668 -0.108299 0)
(-1.96572 -0.0916098 0)
(-1.93482 -0.0674182 0)
(-1.96519 -0.0302405 0)
(-2.00363 -0.0226065 0)
(-2.00097 -0.0183041 0)
(-1.96417 -0.0169421 0)
(-1.87746 -0.0159492 0)
(-1.79607 -0.00731708 0)
(-1.75833 0.000997728 0)
(-1.75147 -0.000357207 0)
(-1.74704 -0.0511809 0)
(-1.47381 -0.136937 0)
(-0.66795 -0.246173 0)
(-2.14261 1.52201 0)
(-1.87017 0.258637 0)
(-0.964196 0.0931253 0)
(-0.556275 -0.0235126 0)
(0.929199 0.0269316 0)
(0.490457 0.0581078 0)
(-0.857479 0.0595771 0)
(-1.50913 0.0648768 0)
(-1.8355 0.0596868 0)
(-1.88983 0.0374934 0)
(-1.82605 0.00139196 0)
(-1.69887 -0.0354793 0)
(-1.60017 -0.0555743 0)
(-1.55695 -0.0437539 0)
(-1.56205 -0.0201058 0)
(-1.57971 -0.00509031 0)
(-1.56244 -0.0669238 0)
(-1.07569 -0.321452 0)
(-0.550841 -0.668572 0)
(-2.08277 1.99136 0)
(0.731729 -0.529542 0)
(-0.333801 -0.707217 0)
(0.360738 -0.730534 0)
(0.873587 -0.690115 0)
(1.8691 0.769797 0)
(3.01498 0.68206 0)
(-0.567026 0.373302 0)
(-1.44317 0.136315 0)
(-1.81017 -0.0266439 0)
(-1.51107 -0.100764 0)
(-1.56756 -0.108252 0)
(-2.05032 -0.0720307 0)
(-2.1154 -0.0224556 0)
(-2.02415 0.0108277 0)
(-1.85959 -0.00169872 0)
(-1.53625 -0.265522 0)
(-0.870295 -0.565831 0)
(-0.253666 -0.936777 0)
(-1.46557 2.14294 0)
(0.817898 -0.508935 0)
(0.0732863 0.0125516 0)
(0.322651 -0.545575 0)
(0.503005 -0.795106 0)
(0.449378 -0.67295 0)
(4.25181 0.949998 0)
(2.00758 2.02418 0)
(0.17243 0.588914 0)
(-1.43749 0.0632759 0)
(-1.83303 -0.111465 0)
(-2.54652 0.185803 0)
(-2.79766 0.158234 0)
(-2.79776 -0.0534968 0)
(-2.46574 -0.129081 0)
(-2.24243 -0.213762 0)
(-1.49904 -0.498094 0)
(-0.790147 -0.86693 0)
(-0.0984664 -1.14934 0)
(-0.109542 2.23183 0)
(0.774568 -1.02304 0)
(0.339711 -0.499164 0)
(0.683864 -0.756568 0)
(0.484559 -0.758851 0)
(0.440322 -0.730704 0)
(0.657163 -0.201052 0)
(3.78641 2.08529 0)
(3.92723 1.69072 0)
(1.01825 0.826056 0)
(-1.06271 0.366617 0)
(-1.63323 0.320436 0)
(-1.72019 0.0280016 0)
(-1.54908 -0.162603 0)
(-1.54356 -0.245466 0)
(-1.67852 -0.406801 0)
(-1.25011 -0.844742 0)
(-0.657585 -1.16995 0)
(-0.00174208 -1.3177 0)
(1.64465 1.73058 0)
(1.09829 -0.656469 0)
(0.972448 -0.153424 0)
(0.619609 -0.594621 0)
(0.483662 -0.718753 0)
(0.439284 -0.731812 0)
(0.474262 -0.483953 0)
(1.3986 0.653716 0)
(4.43072 1.80314 0)
(2.50281 2.11086 0)
(0.00320923 0.98499 0)
(-0.613289 0.462863 0)
(-0.751646 0.11275 0)
(-0.642512 -0.121155 0)
(-0.538311 -0.0910974 0)
(-0.553625 -0.346576 0)
(-0.763958 -0.938547 0)
(-0.566732 -1.3955 0)
(0.0584279 -1.43373 0)
(2.44793 1.11776 0)
(1.04933 -0.622782 0)
(0.802444 -0.280611 0)
(0.594065 -0.501992 0)
(0.497681 -0.683678 0)
(0.436441 -0.726952 0)
(0.467955 -0.590357 0)
(0.826227 0.257999 0)
(2.86563 1.4263 0)
(2.4124 2.65307 0)
(0.660788 1.67856 0)
(-0.373728 0.659324 0)
(-0.441451 0.0274037 0)
(-0.482361 -0.254202 0)
(-0.214658 -0.28622 0)
(-0.0148882 -0.307086 0)
(-0.218947 -0.837753 0)
(-0.547766 -1.50707 0)
(0.0915094 -1.54248 0)
(1.95394 0.0946546 0)
(0.825329 0.0741643 0)
(0.638838 -0.0978261 0)
(0.569223 -0.448528 0)
(0.496605 -0.651751 0)
(0.425241 -0.718946 0)
(0.448155 -0.652997 0)
(0.638476 -0.336627 0)
(2.09625 1.11483 0)
(2.00571 3.02494 0)
(1.00782 2.16414 0)
(-0.144635 0.930918 0)
(-0.184463 0.149333 0)
(-0.282741 -0.213123 0)
(-0.0487641 -0.307786 0)
(0.000862466 -0.351361 0)
(0.384031 -0.721775 0)
(-0.316906 -1.5215 0)
(0.109396 -1.63347 0)
(0.0143403 -0.0927969 0)
(0.0355721 -0.0935241 0)
(0.0571359 -0.0896864 0)
(0.0805101 -0.0851203 0)
(0.10409 -0.0798186 0)
(0.123642 -0.0758075 0)
(0.138671 -0.0643552 0)
(0.156269 -0.0578787 0)
(0.167698 -0.0456303 0)
(0.175495 -0.0303674 0)
(0.188504 -0.0196672 0)
(0.189172 -0.00523182 0)
(0.193921 0.008235 0)
(0.188564 0.0164037 0)
(0.187167 0.0237137 0)
(0.173358 0.0246801 0)
(0.170151 0.0267826 0)
(0.163972 0.0328109 0)
(0.175088 0.0422742 0)
(0.173051 0.0620808 0)
(0.207701 0.0786219 0)
(0.212145 0.139873 0)
(0.300088 0.203035 0)
(0.0169977 -0.117885 0)
(0.0341712 -0.114101 0)
(0.0563479 -0.111804 0)
(0.0801061 -0.108456 0)
(0.105027 -0.10043 0)
(0.124088 -0.0912046 0)
(0.142757 -0.0790361 0)
(0.163754 -0.0707044 0)
(0.176622 -0.0554035 0)
(0.190391 -0.0447337 0)
(0.203327 -0.0327046 0)
(0.201911 -0.0171775 0)
(0.208102 -0.00157917 0)
(0.197911 0.0122824 0)
(0.187644 0.0314485 0)
(0.166383 0.0420763 0)
(0.162151 0.0378344 0)
(0.16171 0.031253 0)
(0.164984 0.0357891 0)
(0.165798 0.0346635 0)
(0.196812 0.0448318 0)
(0.212105 0.0550051 0)
(0.303028 0.0924628 0)
(0.00687228 -0.143852 0)
(0.00746349 -0.132663 0)
(0.0158355 -0.135497 0)
(0.0170444 -0.133498 0)
(0.0199039 -0.123648 0)
(0.0127359 -0.112967 0)
(0.000938145 -0.103781 0)
(-0.0215092 -0.0908046 0)
(-0.0695741 -0.0718228 0)
(-0.0963926 -0.0555266 0)
(-0.176129 -0.0304606 0)
(0.0170505 -0.0101022 0)
(0.113099 0.0122608 0)
(0.143453 0.0369424 0)
(0.162691 0.0553207 0)
(0.164774 0.050267 0)
(0.188528 0.0315092 0)
(0.198057 0.0299972 0)
(0.188238 0.0380331 0)
(0.1901 0.0298316 0)
(0.20939 0.0313921 0)
(0.229807 0.0328954 0)
(0.287655 0.061439 0)
(0.000933814 -0.133244 0)
(-0.0013286 -0.124521 0)
(0.00834805 -0.121995 0)
(7.71009e-05 -0.114721 0)
(0.010485 -0.0962422 0)
(0.00296172 -0.075421 0)
(0.0186588 -0.0442697 0)
(0.00438328 -0.00490099 0)
(0.0260773 0.0212424 0)
(0.00201646 0.052995 0)
(0.0355455 -0.14308 0)
(-0.0190334 -0.308091 0)
(0.0109425 -0.127574 0)
(-0.193243 -0.0368996 0)
(-0.022567 0.0103391 0)
(0.00263706 0.0163061 0)
(0.0500515 0.004401 0)
(0.0947509 0.0317114 0)
(0.127071 0.0439627 0)
(0.166888 0.0138771 0)
(0.223644 0.00526597 0)
(0.243486 -0.0229382 0)
(0.28322 -0.0255099 0)
(-0.00206935 -0.142262 0)
(-0.00647457 -0.138769 0)
(-0.00533597 -0.135765 0)
(-0.0122766 -0.13387 0)
(-0.0109139 -0.125398 0)
(-0.00979967 -0.118744 0)
(-0.00251435 -0.103966 0)
(0.0170424 -0.0948763 0)
(0.0462615 -0.0681403 0)
(0.0910375 -0.0606763 0)
(0.149404 -0.00780015 0)
(0.040549 0.0109286 0)
(-0.0230997 0.183548 0)
(-0.0308425 0.0695676 0)
(-0.0104641 -0.141729 0)
(0.00714602 -0.0233357 0)
(-0.119032 -0.0603331 0)
(-0.155372 -0.0476671 0)
(-0.0131557 -0.0345879 0)
(0.0275746 -0.0674102 0)
(0.108448 -0.0457117 0)
(0.147894 -0.0267342 0)
(0.213354 -0.0158258 0)
(0.00149327 -0.12582 0)
(-0.00486766 -0.122816 0)
(0.000237142 -0.117003 0)
(-0.00821818 -0.111269 0)
(-0.00300341 -0.099292 0)
(-0.0127062 -0.0867059 0)
(-0.00520148 -0.0716092 0)
(-0.0168304 -0.0573242 0)
(-0.00428811 -0.0535157 0)
(-0.0133983 -0.0533704 0)
(0.00363967 -0.0937831 0)
(0.0166041 -0.130043 0)
(0.0551498 -0.0545601 0)
(0.193775 -0.046686 0)
(0.151199 -0.0282466 0)
(0.133673 0.125601 0)
(0.157112 0.165146 0)
(0.108637 -0.072918 0)
(0.128029 -0.139505 0)
(0.022187 -0.107591 0)
(-0.0399028 -0.114461 0)
(-0.12818 -0.127622 0)
(0.0238394 -0.160013 0)
(0.00123939 -0.137838 0)
(-0.0014081 -0.13635 0)
(0.00168759 -0.131434 0)
(0.00116553 -0.129231 0)
(0.00568785 -0.119984 0)
(0.0100838 -0.114871 0)
(0.0198354 -0.0990007 0)
(0.0308049 -0.0939643 0)
(0.0476863 -0.0709686 0)
(0.0585086 -0.0673735 0)
(0.0738144 -0.037903 0)
(0.0471271 -0.0425189 0)
(0.0392821 0.0036919 0)
(0.0631227 -0.0286217 0)
(0.0611674 -0.0809591 0)
(0.0897082 -0.030776 0)
(0.21272 -0.0330258 0)
(0.274926 -0.0205243 0)
(0.227722 0.047798 0)
(0.242929 0.0995744 0)
(0.228998 0.0979957 0)
(0.221016 -0.0919215 0)
(0.15622 -0.270196 0)
(0.00284221 -0.126638 0)
(3.29896e-05 -0.124519 0)
(0.0061124 -0.120351 0)
(0.00425881 -0.116831 0)
(0.0107748 -0.108826 0)
(0.00906062 -0.102684 0)
(0.0179049 -0.0928802 0)
(0.0180653 -0.0869568 0)
(0.0283514 -0.081801 0)
(0.0338587 -0.0802515 0)
(0.0427303 -0.0829166 0)
(0.056802 -0.0933963 0)
(0.0624438 -0.0707696 0)
(0.105644 -0.0664876 0)
(0.084269 -0.055384 0)
(0.0859244 -0.0246479 0)
(0.0995837 -0.0222274 0)
(0.0999785 -0.0841122 0)
(0.11664 -0.103062 0)
(0.17138 -0.105172 0)
(0.240032 -0.0855789 0)
(0.315842 -0.0493656 0)
(0.25552 -0.00998724 0)
(0.00223297 -0.139918 0)
(0.00557192 -0.138753 0)
(0.0110769 -0.134938 0)
(0.0153945 -0.132945 0)
(0.0218453 -0.124157 0)
(0.0281725 -0.121016 0)
(0.0369164 -0.107543 0)
(0.0460896 -0.103573 0)
(0.0559377 -0.086593 0)
(0.0643504 -0.0815157 0)
(0.0722002 -0.0611491 0)
(0.0695973 -0.0631866 0)
(0.068241 -0.0461541 0)
(0.0742697 -0.0519566 0)
(0.0766743 -0.0616198 0)
(0.084089 -0.0481925 0)
(0.112903 -0.0480409 0)
(0.117889 -0.040717 0)
(0.102291 -0.0274252 0)
(0.0905179 -0.0287075 0)
(0.0799976 -0.0520698 0)
(0.0820422 -0.113073 0)
(0.107005 -0.14114 0)
(0.00337548 -0.135257 0)
(0.0058801 -0.134326 0)
(0.0131989 -0.130854 0)
(0.0155714 -0.128682 0)
(0.0233821 -0.122168 0)
(0.0263813 -0.118854 0)
(0.0347867 -0.111283 0)
(0.0403253 -0.106829 0)
(0.0484048 -0.100471 0)
(0.058146 -0.0966242 0)
(0.0662326 -0.0884173 0)
(0.080805 -0.088334 0)
(0.0833406 -0.0754444 0)
(0.101619 -0.07333 0)
(0.0955908 -0.0649807 0)
(0.0995665 -0.0590322 0)
(0.0994646 -0.055281 0)
(0.099162 -0.0707017 0)
(0.0978441 -0.0725589 0)
(0.102512 -0.0796285 0)
(0.0984885 -0.0725688 0)
(0.0841947 -0.0729928 0)
(0.0342528 -0.0660294 0)
(0.00398603 -0.14864 0)
(0.0097843 -0.148013 0)
(0.0179347 -0.144154 0)
(0.0244147 -0.142555 0)
(0.0330116 -0.134589 0)
(0.0407378 -0.131899 0)
(0.0496024 -0.121272 0)
(0.0587914 -0.116863 0)
(0.0670547 -0.104446 0)
(0.0759887 -0.0994701 0)
(0.0836619 -0.0841732 0)
(0.0913331 -0.0810622 0)
(0.0962506 -0.0676615 0)
(0.103867 -0.0655181 0)
(0.107602 -0.0603278 0)
(0.111233 -0.0539731 0)
(0.116589 -0.0489242 0)
(0.112862 -0.0417239 0)
(0.101207 -0.0331427 0)
(0.0859238 -0.0327838 0)
(0.0634414 -0.0367809 0)
(0.0428511 -0.0524504 0)
(0.0163679 -0.0642961 0)
(0.00455548 -0.149662 0)
(0.00992527 -0.148979 0)
(0.0191295 -0.146036 0)
(0.0247369 -0.144486 0)
(0.0341317 -0.138959 0)
(0.0407036 -0.136103 0)
(0.0498507 -0.129716 0)
(0.0582266 -0.124705 0)
(0.0664856 -0.117931 0)
(0.0769105 -0.113185 0)
(0.0843542 -0.103866 0)
(0.0977331 -0.100255 0)
(0.102412 -0.0878188 0)
(0.116447 -0.0835372 0)
(0.116222 -0.0717874 0)
(0.12352 -0.0664773 0)
(0.120571 -0.0556512 0)
(0.120851 -0.0532649 0)
(0.113248 -0.0431191 0)
(0.108593 -0.0394263 0)
(0.0893132 -0.0259962 0)
(0.0667635 -0.0231849 0)
(0.0183204 -0.0139045 0)
(0.00517627 -0.162815 0)
(0.0135397 -0.162275 0)
(0.0240932 -0.158704 0)
(0.0327557 -0.157269 0)
(0.0433214 -0.150382 0)
(0.0525099 -0.147409 0)
(0.0624605 -0.138758 0)
(0.0722184 -0.133467 0)
(0.0811948 -0.12327 0)
(0.0905117 -0.117626 0)
(0.0978879 -0.105364 0)
(0.10618 -0.0998367 0)
(0.111181 -0.0869812 0)
(0.118696 -0.0804829 0)
(0.121355 -0.0682143 0)
(0.12531 -0.0599494 0)
(0.124583 -0.0474256 0)
(0.122016 -0.036544 0)
(0.113111 -0.0225501 0)
(0.101318 -0.0115044 0)
(0.0809441 0.0030809 0)
(0.0579329 0.0156457 0)
(0.0193986 0.0327674 0)
(0.00559311 -0.16886 0)
(0.0137052 -0.16841 0)
(0.02503 -0.165681 0)
(0.0333556 -0.164209 0)
(0.0446019 -0.159071 0)
(0.0537359 -0.155646 0)
(0.0642923 -0.149689 0)
(0.0747196 -0.143656 0)
(0.0843161 -0.136368 0)
(0.0960035 -0.129792 0)
(0.103808 -0.119505 0)
(0.116379 -0.113085 0)
(0.121155 -0.10005 0)
(0.133015 -0.0929034 0)
(0.134088 -0.0777179 0)
(0.142554 -0.068565 0)
(0.139296 -0.0510809 0)
(0.141831 -0.0403128 0)
(0.132755 -0.0203308 0)
(0.127577 -0.00547557 0)
(0.107593 0.020295 0)
(0.0901775 0.0404972 0)
(0.052434 0.0722363 0)
(0.00614955 -0.181993 0)
(0.0167024 -0.181598 0)
(0.0290611 -0.178267 0)
(0.0394136 -0.176762 0)
(0.0514792 -0.170748 0)
(0.0621135 -0.167099 0)
(0.0734084 -0.159835 0)
(0.0843218 -0.153641 0)
(0.0946845 -0.144772 0)
(0.105572 -0.137499 0)
(0.114383 -0.126105 0)
(0.125112 -0.117867 0)
(0.13161 -0.104148 0)
(0.14148 -0.0944403 0)
(0.144702 -0.0784714 0)
(0.152045 -0.0665577 0)
(0.151425 -0.0476584 0)
(0.154058 -0.0318162 0)
(0.147406 -0.00951061 0)
(0.142721 0.0114225 0)
(0.127109 0.0391161 0)
(0.114051 0.0681809 0)
(0.0846555 0.105218 0)
(0.00671879 -0.192073 0)
(0.0174634 -0.191699 0)
(0.0309363 -0.188714 0)
(0.0417115 -0.186972 0)
(0.0548219 -0.182033 0)
(0.0662066 -0.177838 0)
(0.0785773 -0.172075 0)
(0.0907656 -0.165058 0)
(0.102079 -0.157681 0)
(0.115026 -0.149423 0)
(0.12451 -0.138941 0)
(0.137965 -0.130013 0)
(0.144915 -0.11607 0)
(0.158274 -0.105456 0)
(0.161695 -0.087586 0)
(0.173571 -0.0745077 0)
(0.172451 -0.0519224 0)
(0.180812 -0.035275 0)
(0.174314 -0.00720271 0)
(0.17631 0.0160474 0)
(0.162047 0.051449 0)
(0.154888 0.0843303 0)
(0.129454 0.128625 0)
(0.00724078 -0.206197 0)
(0.019543 -0.205853 0)
(0.0340164 -0.202561 0)
(0.0461999 -0.200716 0)
(0.0601613 -0.195347 0)
(0.072572 -0.190992 0)
(0.0858415 -0.184576 0)
(0.0984259 -0.177399 0)
(0.110872 -0.169303 0)
(0.123675 -0.160369 0)
(0.134849 -0.149411 0)
(0.147983 -0.138951 0)
(0.157061 -0.12493 0)
(0.170146 -0.112185 0)
(0.176096 -0.094365 0)
(0.188647 -0.0785941 0)
(0.190554 -0.0556425 0)
(0.201283 -0.0352987 0)
(0.198114 -0.0058972 0)
(0.20535 0.021708 0)
(0.196035 0.0596165 0)
(0.198536 0.0984029 0)
(0.180926 0.148304 0)
(0.00779988 -0.219134 0)
(0.0210225 -0.218763 0)
(0.0366344 -0.215618 0)
(0.0497965 -0.213373 0)
(0.0648795 -0.208602 0)
(0.0784503 -0.20371 0)
(0.092936 -0.198053 0)
(0.106934 -0.190181 0)
(0.120553 -0.18295 0)
(0.135137 -0.173367 0)
(0.147398 -0.163119 0)
(0.162782 -0.152047 0)
(0.173164 -0.137885 0)
(0.189042 -0.124169 0)
(0.196477 -0.105437 0)
(0.212709 -0.0885031 0)
(0.215934 -0.0635216 0)
(0.231633 -0.0422377 0)
(0.229986 -0.00975877 0)
(0.243568 0.0188212 0)
(0.236976 0.0603109 0)
(0.247276 0.100113 0)
(0.235469 0.151954 0)
(0.00810417 -0.235155 0)
(0.0221083 -0.234839 0)
(0.0383285 -0.231485 0)
(0.0524667 -0.229139 0)
(0.0683314 -0.224194 0)
(0.0829137 -0.219281 0)
(0.0985441 -0.213314 0)
(0.113359 -0.205344 0)
(0.128708 -0.197825 0)
(0.143903 -0.187688 0)
(0.158345 -0.177441 0)
(0.174147 -0.165391 0)
(0.187092 -0.151635 0)
(0.20343 -0.136416 0)
(0.214133 -0.118536 0)
(0.231369 -0.0992548 0)
(0.238636 -0.0751291 0)
(0.256718 -0.0508576 0)
(0.259534 -0.0184479 0)
(0.277872 0.0128948 0)
(0.276474 0.0553067 0)
(0.294293 0.097758 0)
(0.289349 0.151365 0)
(0.00859719 -0.249555 0)
(0.0229556 -0.249206 0)
(0.039964 -0.246162 0)
(0.0549072 -0.24357 0)
(0.0716588 -0.239198 0)
(0.0873382 -0.234071 0)
(0.104092 -0.228589 0)
(0.120333 -0.220424 0)
(0.137124 -0.213503 0)
(0.154125 -0.202997 0)
(0.170368 -0.193247 0)
(0.18854 -0.180698 0)
(0.203774 -0.166879 0)
(0.222961 -0.151034 0)
(0.236542 -0.132837 0)
(0.256907 -0.112783 0)
(0.267481 -0.0880075 0)
(0.289274 -0.0628876 0)
(0.295987 -0.0296717 0)
(0.31894 0.00211915 0)
(0.322398 0.0455244 0)
(0.345817 0.0873809 0)
(0.348423 0.140952 0)
(0.0086747 -0.266938 0)
(0.022911 -0.266452 0)
(0.0398167 -0.263678 0)
(0.0550858 -0.261106 0)
(0.0720211 -0.256901 0)
(0.0881732 -0.252033 0)
(0.105716 -0.246633 0)
(0.122774 -0.238771 0)
(0.141196 -0.231996 0)
(0.159172 -0.221443 0)
(0.177911 -0.212286 0)
(0.197214 -0.199463 0)
(0.215663 -0.186524 0)
(0.236332 -0.170048 0)
(0.254035 -0.152976 0)
(0.276209 -0.1313 0)
(0.291865 -0.107986 0)
(0.315912 -0.0807443 0)
(0.328209 -0.0485825 0)
(0.354378 -0.0151666 0)
(0.363422 0.0279963 0)
(0.39089 0.0698533 0)
(0.399486 0.123724 0)
(0.00863633 -0.281263 0)
(0.0221936 -0.280482 0)
(0.0388878 -0.278445 0)
(0.0539705 -0.275897 0)
(0.0708636 -0.272371 0)
(0.0873593 -0.267862 0)
(0.105365 -0.263241 0)
(0.12347 -0.25596 0)
(0.143141 -0.2499 0)
(0.162951 -0.239716 0)
(0.183822 -0.23121 0)
(0.205541 -0.218404 0)
(0.226909 -0.205801 0)
(0.25063 -0.18932 0)
(0.272233 -0.172346 0)
(0.297943 -0.150524 0)
(0.318826 -0.1271 0)
(0.346874 -0.0991933 0)
(0.36571 -0.0672258 0)
(0.396813 -0.0331424 0)
(0.412571 0.0101982 0)
(0.445203 0.0511634 0)
(0.460575 0.105268 0)
(0.00810695 -0.298085 0)
(0.0210145 -0.297039 0)
(0.03678 -0.295783 0)
(0.0511314 -0.293443 0)
(0.0672085 -0.290649 0)
(0.0831024 -0.286942 0)
(0.100611 -0.28315 0)
(0.118337 -0.277024 0)
(0.138155 -0.271939 0)
(0.158083 -0.262692 0)
(0.180244 -0.255388 0)
(0.202851 -0.243236 0)
(0.227034 -0.232163 0)
(0.252781 -0.216207 0)
(0.278976 -0.200855 0)
(0.307782 -0.178906 0)
(0.334979 -0.157461 0)
(0.367223 -0.128858 0)
(0.393452 -0.0989972 0)
(0.428991 -0.0634927 0)
(0.451748 -0.0207646 0)
(0.489674 0.020238 0)
(0.510557 0.0753844 0)
(0.0071295 -0.310387 0)
(0.0191275 -0.30917 0)
(0.0333753 -0.308554 0)
(0.0465286 -0.306337 0)
(0.0614267 -0.304321 0)
(0.0763938 -0.301264 0)
(0.0929858 -0.298439 0)
(0.110285 -0.293487 0)
(0.129684 -0.289589 0)
(0.150114 -0.281768 0)
(0.173193 -0.275894 0)
(0.197624 -0.265142 0)
(0.224409 -0.255603 0)
(0.25339 -0.241214 0)
(0.283855 -0.227144 0)
(0.316962 -0.206518 0)
(0.350396 -0.186215 0)
(0.38764 -0.157747 0)
(0.42202 -0.128472 0)
(0.463361 -0.0916768 0)
(0.495167 -0.0497482 0)
(0.540918 -0.00804835 0)
(0.569833 0.0491177 0)
(0.00627594 -0.324744 0)
(0.0176781 -0.323704 0)
(0.0304991 -0.323596 0)
(0.0425728 -0.321941 0)
(0.0561789 -0.320958 0)
(0.0698423 -0.318998 0)
(0.0850409 -0.317535 0)
(0.100925 -0.314292 0)
(0.118919 -0.312326 0)
(0.138054 -0.306864 0)
(0.160258 -0.303527 0)
(0.183916 -0.295217 0)
(0.211128 -0.288619 0)
(0.240508 -0.276529 0)
(0.273048 -0.265154 0)
(0.308087 -0.246447 0)
(0.345923 -0.228851 0)
(0.386855 -0.201634 0)
(0.428734 -0.175341 0)
(0.475732 -0.137953 0)
(0.517156 -0.098757 0)
(0.57059 -0.0558816 0)
(0.607673 0.0030825 0)
(0.00513889 -0.3342 0)
(0.0150524 -0.333268 0)
(0.0256952 -0.333297 0)
(0.0361132 -0.331887 0)
(0.04778 -0.331427 0)
(0.0598066 -0.329983 0)
(0.073268 -0.32934 0)
(0.0878655 -0.327208 0)
(0.104411 -0.32652 0)
(0.12273 -0.322942 0)
(0.143895 -0.321557 0)
(0.167323 -0.315856 0)
(0.194526 -0.312016 0)
(0.224833 -0.303019 0)
(0.259221 -0.294567 0)
(0.297343 -0.279357 0)
(0.339891 -0.264847 0)
(0.386235 -0.240664 0)
(0.436236 -0.217178 0)
(0.490191 -0.180447 0)
(0.543735 -0.14433 0)
(0.606135 -0.0992073 0)
(0.654936 -0.038698 0)
(0.00457416 -0.345416 0)
(0.0137034 -0.344759 0)
(0.0231865 -0.345147 0)
(0.0326682 -0.344551 0)
(0.0430622 -0.345177 0)
(0.0538927 -0.345071 0)
(0.0659281 -0.346181 0)
(0.0791634 -0.34611 0)
(0.0940912 -0.347863 0)
(0.110906 -0.347134 0)
(0.130343 -0.348893 0)
(0.152148 -0.346757 0)
(0.177662 -0.346997 0)
(0.20616 -0.342247 0)
(0.239178 -0.338609 0)
(0.276233 -0.328239 0)
(0.318851 -0.318718 0)
(0.365768 -0.299181 0)
(0.418781 -0.280212 0)
(0.476135 -0.246741 0)
(0.53821 -0.215391 0)
(0.607166 -0.168471 0)
(0.667662 -0.108232 0)
(0.00358919 -0.352196 0)
(0.0108917 -0.351612 0)
(0.0183237 -0.35197 0)
(0.0260099 -0.351487 0)
(0.034324 -0.352339 0)
(0.0433399 -0.352551 0)
(0.0532361 -0.354264 0)
(0.0646391 -0.355039 0)
(0.0773599 -0.357874 0)
(0.0923826 -0.358827 0)
(0.109647 -0.36238 0)
(0.129926 -0.362791 0)
(0.153796 -0.365619 0)
(0.181464 -0.364184 0)
(0.213906 -0.364289 0)
(0.251392 -0.358785 0)
(0.294789 -0.354158 0)
(0.343834 -0.340553 0)
(0.400699 -0.3275 0)
(0.463147 -0.300163 0)
(0.53413 -0.275471 0)
(0.610085 -0.22939 0)
(0.68542 -0.173201 0)
(0.0032196 -0.36045 0)
(0.00996193 -0.360061 0)
(0.0165791 -0.360825 0)
(0.0235828 -0.361146 0)
(0.0309167 -0.363104 0)
(0.0391847 -0.364646 0)
(0.0480119 -0.368156 0)
(0.0586021 -0.371011 0)
(0.0700947 -0.376401 0)
(0.0841194 -0.380353 0)
(0.099781 -0.387385 0)
(0.118603 -0.39202 0)
(0.140297 -0.399646 0)
(0.165883 -0.40364 0)
(0.195694 -0.409798 0)
(0.230751 -0.410543 0)
(0.271393 -0.41249 0)
(0.318189 -0.406579 0)
(0.373079 -0.400838 0)
(0.434695 -0.381643 0)
(0.507193 -0.363455 0)
(0.58469 -0.321155 0)
(0.669745 -0.27314 0)
(0.00232414 -0.364966 0)
(0.00737642 -0.364571 0)
(0.012197 -0.36517 0)
(0.01761 -0.365416 0)
(0.0230291 -0.367493 0)
(0.0295959 -0.3692 0)
(0.0362444 -0.373177 0)
(0.0448675 -0.376611 0)
(0.05378 -0.382806 0)
(0.0654889 -0.387916 0)
(0.0781439 -0.396182 0)
(0.0943121 -0.402614 0)
(0.112586 -0.412137 0)
(0.135242 -0.418828 0)
(0.161702 -0.428369 0)
(0.194136 -0.43376 0)
(0.232996 -0.440925 0)
(0.279956 -0.441716 0)
(0.33607 -0.443615 0)
(0.401054 -0.434195 0)
(0.47856 -0.425554 0)
(0.563339 -0.392477 0)
(0.663068 -0.360377 0)
(0.00210814 -0.370774 0)
(0.00679922 -0.370568 0)
(0.0110849 -0.371685 0)
(0.0160811 -0.372642 0)
(0.0208595 -0.375759 0)
(0.0269478 -0.378607 0)
(0.0328031 -0.384193 0)
(0.040827 -0.38943 0)
(0.0486552 -0.397942 0)
(0.0595587 -0.405798 0)
(0.0706568 -0.417339 0)
(0.0856594 -0.427796 0)
(0.101767 -0.441969 0)
(0.122636 -0.45438 0)
(0.146098 -0.470371 0)
(0.175433 -0.483755 0)
(0.209537 -0.500211 0)
(0.251542 -0.511772 0)
(0.301379 -0.523913 0)
(0.361065 -0.526202 0)
(0.433001 -0.527523 0)
(0.515362 -0.507434 0)
(0.61959 -0.488604 0)
(0.00127988 -0.373338 0)
(0.00441461 -0.373021 0)
(0.00710747 -0.373909 0)
(0.0105565 -0.374647 0)
(0.0135757 -0.377776 0)
(0.0178529 -0.380542 0)
(0.0215833 -0.386389 0)
(0.0273106 -0.391758 0)
(0.0323515 -0.400743 0)
(0.0402699 -0.409063 0)
(0.0475436 -0.421323 0)
(0.0587065 -0.43268 0)
(0.069592 -0.447958 0)
(0.08558 -0.461901 0)
(0.102324 -0.479816 0)
(0.125895 -0.495756 0)
(0.152453 -0.515588 0)
(0.188649 -0.5321 0)
(0.232045 -0.551844 0)
(0.290088 -0.564815 0)
(0.362744 -0.579206 0)
(0.451514 -0.578984 0)
(0.567613 -0.582967 0)
(0.00115266 -0.377171 0)
(0.00391329 -0.377109 0)
(0.00623837 -0.378533 0)
(0.0092698 -0.379862 0)
(0.0118913 -0.383818 0)
(0.0155722 -0.387465 0)
(0.0187268 -0.394529 0)
(0.0235172 -0.401212 0)
(0.0275488 -0.411963 0)
(0.0340413 -0.422239 0)
(0.0395034 -0.437098 0)
(0.0485903 -0.451407 0)
(0.0563705 -0.470509 0)
(0.0693345 -0.489072 0)
(0.0811069 -0.512781 0)
(0.100224 -0.536323 0)
(0.119552 -0.56553 0)
(0.149402 -0.594301 0)
(0.182512 -0.628301 0)
(0.230138 -0.660086 0)
(0.286902 -0.691827 0)
(0.362073 -0.715165 0)
(0.46472 -0.739811 0)
(0.000359167 -0.377736 0)
(0.0016403 -0.377444 0)
(0.0024247 -0.378583 0)
(0.00378528 -0.379602 0)
(0.00465942 -0.383332 0)
(0.00626437 -0.386592 0)
(0.00726118 -0.393472 0)
(0.00934043 -0.399646 0)
(0.0105342 -0.410229 0)
(0.0133492 -0.419868 0)
(0.0148691 -0.434596 0)
(0.0187806 -0.448109 0)
(0.0208245 -0.46712 0)
(0.0263649 -0.484836 0)
(0.0295245 -0.508758 0)
(0.0380542 -0.53198 0)
(0.044389 -0.562446 0)
(0.0596674 -0.592457 0)
(0.0748499 -0.630031 0)
(0.10572 -0.666568 0)
(0.143743 -0.709032 0)
(0.212565 -0.755151 0)
(0.31715 -0.818142 0)
(0.000237419 -0.379969 0)
(0.00115032 -0.379981 0)
(0.00166807 -0.381495 0)
(0.00259454 -0.382964 0)
(0.00311503 -0.38719 0)
(0.0039927 -0.391053 0)
(0.00437733 -0.398636 0)
(0.00519933 -0.405659 0)
(0.00534042 -0.417215 0)
(0.00608479 -0.42801 0)
(0.00578052 -0.444065 0)
(0.00619787 -0.45915 0)
(0.00494616 -0.480026 0)
(0.00456746 -0.500016 0)
(0.00161754 -0.526904 0)
(0.000419665 -0.554006 0)
(-0.00435455 -0.590188 0)
(-0.00498049 -0.628284 0)
(-0.0100215 -0.678055 0)
(-0.00533633 -0.733236 0)
(-0.003654 -0.802647 0)
(0.0247366 -0.89309 0)
(0.0743189 -1.00606 0)
(-0.000406268 -0.378306 0)
(-0.000813342 -0.37805 0)
(-0.00173648 -0.379173 0)
(-0.00236427 -0.380159 0)
(-0.00355525 -0.383777 0)
(-0.00452076 -0.386833 0)
(-0.00626114 -0.393562 0)
(-0.00775976 -0.399383 0)
(-0.0104377 -0.409761 0)
(-0.0128456 -0.418797 0)
(-0.017045 -0.433042 0)
(-0.0211154 -0.445373 0)
(-0.0281191 -0.463396 0)
(-0.0356294 -0.479087 0)
(-0.0480586 -0.50198 0)
(-0.0616177 -0.522953 0)
(-0.0834799 -0.553789 0)
(-0.107327 -0.583013 0)
(-0.145186 -0.625795 0)
(-0.185661 -0.668523 0)
(-0.245491 -0.735055 0)
(-0.28964 -0.829047 0)
(-0.339357 -0.933756 0)
(-0.000397102 -0.379671 0)
(-0.000835318 -0.379591 0)
(-0.00176867 -0.380907 0)
(-0.00253632 -0.382172 0)
(-0.00390512 -0.386107 0)
(-0.00523123 -0.389531 0)
(-0.00735281 -0.396656 0)
(-0.00964479 -0.402898 0)
(-0.0131535 -0.413655 0)
(-0.0172975 -0.423126 0)
(-0.0233776 -0.437664 0)
(-0.0310143 -0.450188 0)
(-0.0417595 -0.46785 0)
(-0.0557409 -0.482686 0)
(-0.0751889 -0.503832 0)
(-0.100898 -0.521749 0)
(-0.13757 -0.548022 0)
(-0.186425 -0.570315 0)
(-0.257756 -0.603786 0)
(-0.355151 -0.637223 0)
(-0.488316 -0.702763 0)
(-0.631948 -0.80469 0)
(-0.8124 -0.885898 0)
(-0.000940587 -0.376076 0)
(-0.00253606 -0.375663 0)
(-0.00474379 -0.376412 0)
(-0.00682294 -0.376904 0)
(-0.00968823 -0.379876 0)
(-0.0125797 -0.382072 0)
(-0.0165258 -0.387702 0)
(-0.0207625 -0.391971 0)
(-0.0265531 -0.400316 0)
(-0.0331577 -0.406548 0)
(-0.0421718 -0.417079 0)
(-0.053095 -0.424424 0)
(-0.0678977 -0.435784 0)
(-0.0866385 -0.442332 0)
(-0.112514 -0.453085 0)
(-0.146547 -0.4563 0)
(-0.196172 -0.463491 0)
(-0.263507 -0.457374 0)
(-0.366199 -0.451102 0)
(-0.512389 -0.430988 0)
(-0.722563 -0.451473 0)
(-0.93328 -0.496024 0)
(-1.12676 -0.62117 0)
(-0.00077873 -0.377278 0)
(-0.00198897 -0.376895 0)
(-0.00371988 -0.377764 0)
(-0.00532435 -0.378451 0)
(-0.00765264 -0.381651 0)
(-0.0101315 -0.384133 0)
(-0.0135554 -0.390036 0)
(-0.0175789 -0.394634 0)
(-0.0229269 -0.403207 0)
(-0.0296702 -0.409709 0)
(-0.0384482 -0.420189 0)
(-0.0501118 -0.427208 0)
(-0.0653981 -0.437476 0)
(-0.0865265 -0.441495 0)
(-0.115003 -0.447997 0)
(-0.155338 -0.442155 0)
(-0.212329 -0.43605 0)
(-0.295789 -0.404628 0)