/*--------------------------------*- C++ -*----------------------------------*\
| =========                 |                                                 |
| \\      /  F ield         | OpenFOAM: The Open Source CFD Toolbox           |
|  \\    /   O peration     | Version:  2012                                  |
|   \\  /    A nd           | Website:  www.openfoam.com                      |
|    \\/     M anipulation  |                                                 |
\*---------------------------------------------------------------------------*/
FoamFile
{
    version     2.0;
    format      ascii;
    class       volScalarField;
    location    "1";
    object      maxKappa;
}
// * * * * * * * * * * * * * * * * * * * * * * * * * * * * * * * * * * * * * //

dimensions      [0 0 0 0 0 0 0];


internalField   nonuniform List<scalar> 
2268
(
3.08251e-07
5.12123e-07
5.66353e-07
5.66353e-07
4.60271e-07
2.42076e-07
2.97763e-07
4.0191e-07
4.0191e-07
3.17941e-07
4.70726e-07
9.10644e-07
1.36665e-06
1.71198e-06
2.0218e-06
2.33682e-06
2.67822e-06
3.05878e-06
3.17121e-06
3.17121e-06
2.97474e-06
2.13106e-06
1.25963e-06
3.74161e-07
5.37835e-07
5.96171e-07
5.96171e-07
5.24592e-07
3.83901e-07
3.75796e-07
4.53515e-07
4.53515e-07
3.79416e-07
5.22196e-07
9.35642e-07
1.39248e-06
1.73768e-06
2.066e-06
2.40522e-06
2.77907e-06
3.16842e-06
3.26881e-06
3.26881e-06
3.07495e-06
2.34257e-06
1.49058e-06
4.84715e-07
6.28159e-07
6.70476e-07
6.70476e-07
5.5803e-07
4.0055e-07
4.75863e-07
5.59252e-07
5.59252e-07
5.52923e-07
7.49732e-07
1.09382e-06
1.52603e-06
1.83579e-06
2.14931e-06
2.40704e-06
2.74693e-06
3.25348e-06
3.45677e-06
3.45677e-06
3.3266e-06
2.6099e-06
1.85021e-06
6.38925e-07
7.6765e-07
8.31831e-07
8.31831e-07
7.77308e-07
6.83847e-07
6.57203e-07
7.13793e-07
7.13793e-07
6.99942e-07
8.41281e-07
1.17369e-06
1.59361e-06
1.86115e-06
2.17932e-06
2.53238e-06
3.00431e-06
3.49516e-06
3.72327e-06
3.72327e-06
3.71947e-06
3.17476e-06
2.47132e-06
8.29651e-07
9.27184e-07
9.48986e-07
9.48986e-07
8.44058e-07
7.82146e-07
8.62279e-07
9.20855e-07
9.20855e-07
1.01996e-06
1.18233e-06
1.46471e-06
1.83489e-06
2.06932e-06
2.36764e-06
2.51257e-06
2.87294e-06
3.5869e-06
4.13845e-06
4.39155e-06
4.39155e-06
3.87386e-06
3.10147e-06
1.06901e-06
1.16828e-06
1.21697e-06
1.21697e-06
1.172e-06
1.14012e-06
1.16102e-06
1.22161e-06
1.22712e-06
1.27523e-06
1.34609e-06
1.62822e-06
1.95786e-06
2.09281e-06
2.32851e-06
2.62679e-06
3.19219e-06
3.77098e-06
4.2373e-06
4.59245e-06
4.59245e-06
4.3655e-06
4.01211e-06
1.4103e-06
1.51755e-06
1.53841e-06
1.53841e-06
1.43315e-06
1.44336e-06
1.52207e-06
1.55622e-06
1.55901e-06
1.70259e-06
1.81189e-06
2.02908e-06
2.29695e-06
2.4269e-06
2.53988e-06
2.53988e-06
2.45215e-06
3.35995e-06
3.95111e-06
4.47138e-06
4.59691e-06
4.59691e-06
4.30733e-06
1.73104e-06
1.78901e-06
1.86839e-06
1.87033e-06
1.92421e-06
1.98157e-06
2.01741e-06
2.09069e-06
2.09069e-06
2.09858e-06
2.09858e-06
2.31957e-06
2.43192e-06
2.43192e-06
2.07195e-06
2.44369e-06
1.40439e-05
2.12192e-05
1.67052e-05
2.88746e-05
6.40491e-06
5.14502e-06
5.14502e-06
0.000276553
0.000333083
0.000333083
0.000278156
0.000118077
4.99313e-05
2.68537e-05
1.04746e-05
1.19316e-05
1.88345e-05
3.54936e-05
3.88339e-05
3.88339e-05
4.09577e-05
4.90649e-05
5.9292e-05
5.9292e-05
3.4636e-05
1.51652e-05
0.00037435
0.000743261
0.000743261
0.000543696
0.000133048
4.18153e-05
2.54285e-05
1.34383e-05
9.73722e-06
1.07639e-05
1.72748e-05
3.56958e-05
5.58767e-05
0.000173529
0.00029221
0.00029828
0.00029828
0.000139804
1.95671e-05
0.000296145
0.000432722
0.000432722
0.000402281
0.000109857
3.92781e-05
2.71082e-05
1.75693e-05
1.00753e-05
8.85427e-06
1.56049e-05
2.99085e-05
5.38355e-05
0.000207999
0.000242377
0.000242377
0.000215682
0.000153018
2.39183e-05
0.000421017
0.000725617
0.000725617
0.000574559
0.000327836
0.000163599
4.08088e-05
2.15474e-05
2.40072e-05
2.89343e-05
3.96211e-05
2.36147e-05
3.06261e-05
5.29628e-05
5.78929e-05
9.94519e-05
9.94519e-05
8.92194e-05
1.93754e-05
0.000461398
0.000913454
0.000913454
0.000732706
0.000519908
0.000447094
6.37285e-05
0.000113605
0.000129473
0.000156479
0.000156479
0.000133327
3.40006e-05
2.62194e-05
3.02596e-05
7.12309e-05
7.12309e-05
4.54998e-05
1.28205e-05
0.000863299
0.000863299
0.000583042
0.000629407
0.000629407
0.000490715
0.000240041
0.000394809
0.000438508
0.000438508
0.000324181
0.000318599
0.000211661
5.42861e-05
3.04633e-05
5.38638e-05
5.38638e-05
2.0431e-05
7.82493e-06
0.000445409
0.000445409
0.000431074
0.000431074
0.000392084
0.000371487
0.000347495
0.000433808
0.000433808
0.000317864
0.000248017
0.000317806
0.000343613
0.000343613
0.000181368
8.94195e-05
2.37646e-05
1.04403e-05
4.90215e-06
0.000221795
0.000232476
0.000545262
0.000677923
0.000677923
0.000473746
0.000318618
0.000343734
0.000343734
0.000219237
0.000210148
0.000215224
0.000215224
0.000230628
0.000230628
7.16158e-05
1.74521e-05
1.04033e-05
5.40177e-06
3.31543e-06
3.42822e-06
3.7462e-06
3.66165e-06
3.60575e-06
3.93728e-06
3.90634e-06
3.9522e-06
3.96401e-06
4.93925e-06
5.9721e-06
6.37582e-06
1.03184e-05
4.00648e-06
0.000126955
0.000282877
0.000277881
0.000204005
0.000133899
0.000135852
0.000156258
4.55553e-05
6.43724e-06
5.26081e-06
5.42514e-06
5.42677e-06
5.44155e-06
5.72159e-06
6.62426e-06
7.04009e-06
6.73379e-06
9.18607e-06
2.46419e-05
5.55427e-05
8.14663e-05
8.35222e-05
0.000309
0.000921087
0.000747631
0.000628317
0.000389171
0.00023259
0.000191497
0.000201079
0.000201079
4.19318e-05
7.96211e-06
7.80657e-06
6.75398e-06
9.24122e-06
1.49047e-05
2.09254e-05
2.84434e-05
2.12381e-05
4.69653e-05
0.00017821
0.00025012
0.00031164
0.000426964
0.00125724
0.00117672
0.00109365
0.000487351
0.000131127
5.88608e-05
3.22546e-05
0.000155054
0.000216109
8.60285e-05
1.09869e-05
1.46763e-05
1.8483e-05
4.27095e-05
0.000106687
0.000193274
0.000214616
0.000167619
0.000235017
0.000392519
0.000409126
0.000444274
0.0011224
0.00184186
0.00131825
0.000608025
0.000121565
6.39464e-05
5.56174e-05
4.12716e-05
9.80252e-05
0.000216109
0.000140658
1.60787e-05
7.82066e-05
0.000154914
0.000204785
0.00028574
0.000521222
0.000634457
0.000582749
0.000553747
0.000513746
0.000501358
0.000491819
0.00119333
0.00189342
0.00126429
0.000458906
0.000108249
7.13636e-05
6.52938e-05
8.00203e-05
0.000199466
0.000214367
0.000109457
3.89524e-05
0.000208176
0.000310478
0.000410005
0.000557619
0.00086778
0.0010817
0.00091805
0.000732935
0.000674838
0.000578979
0.000820441
0.00147584
0.00189342
0.00133098
0.000694304
0.000489537
0.000120112
7.06181e-05
9.85548e-05
0.00015268
0.000126265
8.61829e-05
3.97541e-05
0.000222277
0.000372208
0.000543933
0.000682117
0.00110776
0.00115042
0.00109677
0.000901425
0.000823759
0.00064333
0.000803768
0.00150266
0.0018621
0.00129579
0.000779208
0.000775554
0.000570345
0.000116821
6.93421e-05
7.75983e-05
9.43565e-05
0.000324253
4.89254e-05
0.000243407
0.000447703
0.000729724
0.00101505
0.00117208
0.00115042
0.000989866
0.000709937
0.000717861
0.000725725
0.000862383
0.00125451
0.00160497
0.000940955
0.000779208
0.000726858
0.000716661
0.000424819
9.1255e-05
9.92277e-05
0.000389867
0.000513546
8.24629e-05
0.00040789
0.000706707
0.000972597
0.00112659
0.00121766
0.00109816
0.000753786
0.000570154
0.000668971
0.00072781
0.000805825
0.00105742
0.00116348
0.000589162
0.000730003
0.000700404
0.000716661
0.000611504
0.000270608
0.000178672
0.000466313
0.000513546
0.000100311
0.000586618
0.00093499
0.001054
0.00115262
0.00121766
0.00102939
0.000817449
0.000639705
0.000665423
0.00072781
0.000661661
0.000844603
0.000833095
0.000468553
0.000536604
0.000674927
0.000590556
0.00058364
0.000515781
0.000278289
0.000306202
0.000382633
0.000100762
0.00067554
0.00112193
0.00114515
0.0010466
0.00105202
0.000811786
0.000669932
0.00049445
0.000531757
0.000602587
0.000558853
0.000582789
0.000594764
0.000315744
0.000383934
0.000533478
0.000463424
0.000484417
0.000434042
0.000450743
0.000273649
0.000175009
0.000102533
0.000769846
0.00118879
0.00118879
0.000960786
0.000799916
0.000529253
0.000416657
0.000303226
0.000317463
0.000439523
0.000401057
0.000396738
0.000322547
0.000210273
0.000316166
0.00042007
0.000399013
0.000413997
0.000497888
0.000497888
0.000466513
0.000281491
0.000194213
0.000683169
0.00116612
0.00125404
0.00103502
0.000701225
0.000391262
0.000196295
0.000185695
0.000170014
0.000312386
0.000262506
0.000308653
0.000227802
0.000221851
0.000293788
0.000365226
0.000382499
0.000407436
0.000395891
0.00043067
0.000415285
0.000387123
0.000357616
0.000803699
0.00133175
0.00127908
0.00103893
0.000670719
0.000373857
0.000195754
0.000160107
0.000152967
0.000243307
0.000218311
0.000268374
0.000227539
0.000266352
0.000316186
0.000379589
0.000417607
0.000467323
0.000493166
0.000517436
0.000540152
0.000540842
0.000365458
0.000872664
0.00147786
0.00131983
0.000994327
0.000627513
0.000368055
0.000199321
0.000172351
0.00015691
0.00022033
0.000215203
0.000264002
0.000253293
0.000294449
0.000342235
0.000405804
0.000465168
0.000521705
0.000582371
0.000673835
0.000730473
0.000731644
0.000522144
0.00111507
0.00159666
0.00137443
0.000899692
0.000553428
0.000341573
0.000197341
0.000199586
0.000188518
0.000241588
0.000231901
0.000279527
0.000274765
0.000319325
0.000347953
0.000402361
0.000465348
0.000544704
0.000639831
0.00074298
0.000782782
0.000854653
0.000567792
0.00134766
0.00159666
0.00135881
0.000824127
0.000484459
0.00031917
0.000207717
0.000239871
0.000214611
0.000269893
0.00025274
0.00030328
0.000302212
0.000344227
0.000372034
0.000418647
0.000473787
0.000547388
0.000640057
0.000744365
0.000842498
0.000854653
0.000912015
0.00131863
0.00155565
0.00127154
0.000746446
0.000394671
0.000291099
0.000232985
0.000279939
0.000248481
0.00030361
0.000282939
0.000333541
0.000326598
0.000372957
0.000381904
0.000426886
0.000452797
0.000498383
0.000555216
0.000648337
0.000743842
0.000849236
0.000918925
0.00127308
0.00148063
0.00125786
0.000745229
0.000346089
0.000295197
0.000262265
0.00031889
0.000280502
0.00033551
0.000315821
0.000360017
0.000361986
0.000395335
0.000417949
0.000452201
0.000486284
0.000526815
0.000568876
0.000622007
0.000686731
0.00076094
0.000926758
0.00129898
0.00148063
0.00128179
0.00075764
0.000350665
0.000346402
0.00029599
0.000360143
0.000312051
0.000368957
0.000338791
0.000386608
0.000374062
0.000415737
0.000421659
0.00046557
0.000494016
0.00054686
0.000590637
0.000656905
0.00071836
0.000795649
0.000978172
0.00131022
0.00145176
0.0012211
0.000757618
0.000389746
0.000411065
0.000336682
0.000405004
0.000348871
0.00040443
0.000373146
0.000417764
0.000406667
0.000447161
0.000455477
0.000504844
0.000535606
0.000597418
0.000649571
0.000723023
0.00078366
0.000841067
0.00101915
0.00140416
0.00135525
0.00117259
0.000773313
0.000463626
0.000482679
0.000395076
0.000451012
0.000390009
0.000439659
0.000404227
0.000448518
0.000436909
0.000482522
0.000497023
0.000557533
0.000597134
0.000662905
0.000718159
0.000780704
0.000828505
0.000848972
0.00113818
0.00144775
0.00135387
0.00113148
0.000773856
0.000539319
0.000547322
0.000454394
0.000494971
0.000433846
0.000474695
0.000438713
0.000481401
0.000475005
0.000524462
0.000552385
0.000613536
0.000662094
0.000721982
0.000773707
0.000811614
0.000829473
0.000848972
0.00107406
0.00144775
0.00135387
0.00109706
0.000777395
0.00061746
0.00060087
0.000512837
0.000534733
0.000476745
0.000508242
0.000473171
0.00051682
0.00051586
0.000573493
0.000604829
0.0006608
0.000703977
0.00074908
0.000780928
0.000802721
0.00081862
0.000818419
0.00113112
0.001421
0.00135469
0.001081
0.000791987
0.000669899
0.000641129
0.000561086
0.000568206
0.000516238
0.000539007
0.000511356
0.000554659
0.000567125
0.000622543
0.000653966
0.00069324
0.000725629
0.000750936
0.000767371
0.000789056
0.000783654
0.000760206
0.00127842
0.00150026
0.00136332
0.00107177
0.000826226
0.000714364
0.000669886
0.000601287
0.000594796
0.000549536
0.000567567
0.000549311
0.000595264
0.000613732
0.000659847
0.000678278
0.00070101
0.00071635
0.000739557
0.000746477
0.00075176
0.000722275
0.000675794
0.0015227
0.00161738
0.0014104
0.00109554
0.000874792
0.000755949
0.000686147
0.000631871
0.000613465
0.000578338
0.000593255
0.000589907
0.000634361
0.000651855
0.000681521
0.000687093
0.000700022
0.000704073
0.000717943
0.000707683
0.00069317
0.000637075
0.0005707
0.00179764
0.00175975
0.00149475
0.00115932
0.000933381
0.000793479
0.000708108
0.000651969
0.000622801
0.00059844
0.000614258
0.000625289
0.0006629
0.000671742
0.000689751
0.000682184
0.000694098
0.000685377
0.000685788
0.000656228
0.000619271
0.000538213
0.000461109
0.00207747
0.0019437
0.0016234
0.00125365
0.000993064
0.000818273
0.000718347
0.000657049
0.000625546
0.000609792
0.000630138
0.000652229
0.000679376
0.000682385
0.000690551
0.000681503
0.000680112
0.000660557
0.000645813
0.000596914
0.000538766
0.000447055
0.000369565
0.00236426
0.00216484
0.00179637
0.00135895
0.00103596
0.000823263
0.000707588
0.000643617
0.000622345
0.000618674
0.000642735
0.000666803
0.000687656
0.000688137
0.000690551
0.000673611
0.000660228
0.000631591
0.000600426
0.000536335
0.00046287
0.000380986
0.000310077
0.00266088
0.00240376
0.00198229
0.00145129
0.00104952
0.000791001
0.000664082
0.000612555
0.000610259
0.000621106
0.000651422
0.000675347
0.000690802
0.00068832
0.000684993
0.000661189
0.000635844
0.000599055
0.000550161
0.000482075
0.00040587
0.00033179
0.000271603
0.00291538
0.00265089
0.00212508
0.00149967
0.00103233
0.00072058
0.000586889
0.00057748
0.000585304
0.000616977
0.000653546
0.000678193
0.00069107
0.00068832
0.000671223
0.000638512
0.000606559
0.000558465
0.000497284
0.000427119
0.000358279
0.000296558
0.000250319
0.00302537
0.00283985
0.00224669
0.00150682
0.000923655
0.000586401
0.00049764
0.000525487
0.000558512
0.000610384
0.000653799
0.000679817
0.00069107
0.000683072
0.000656145
0.000615544
0.00057355
0.000517763
0.000450092
0.000381554
0.000316996
0.000262687
0.000227854
0.00302537
0.00290096
0.00235304
0.00154334
0.000838865
0.000452175
0.00039523
0.000471436
0.000541975
0.000606567
0.000655399
0.000683761
0.000690748
0.000672242
0.000631442
0.000583546
0.000532373
0.000467293
0.000400603
0.00033831
0.000284039
0.000244359
0.00022575
0.00298944
0.00282716
0.00234647
0.00162026
0.000927093
0.000471873
0.000362248
0.000462978
0.000547405
0.000618109
0.000668299
0.000697361
0.000690748
0.000664945
0.000611981
0.00055871
0.000497805
0.0004276
0.000360531
0.000298691
0.000248936
0.000222031
0.000231602
0.00286973
0.00267859
0.00227105
0.00167282
0.00107856
0.000636713
0.000456808
0.000511921
0.000581405
0.000645338
0.00069704
0.000719697
0.000692511
0.000648462
0.00058415
0.000521487
0.00045022
0.000378977
0.000316521
0.000265857
0.000232931
0.000229697
0.000243572
0.00268926
0.00249113
0.00216381
0.00170048
0.00122342
0.00077756
0.000596523
0.000617299
0.000657318
0.00070675
0.00074152
0.000743537
0.000707989
0.000643462
0.000569841
0.000497669
0.000419933
0.000346962
0.000282754
0.000233422
0.000213713
0.000230827
0.000258105
0.00247658
0.00229317
0.00206046
0.00173333
0.00130774
0.000908965
0.000730726
0.000729733
0.000744627
0.000777402
0.000793103
0.000767087
0.00070979
0.000624838
0.000541209
0.000456946
0.00037343
0.000302239
0.000248753
0.000218929
0.000224398
0.000251796
0.000273305
0.00228802
0.00217284
0.00199435
0.00171908
0.00131305
0.000982969
0.000864211
0.000848783
0.000841981
0.000855972
0.000846118
0.000798345
0.000725732
0.00062599
0.000531977
0.000438656
0.000352351
0.000279423
0.000224078
0.000200953
0.000221517
0.000255966
0.00028922
0.0021313
0.00202535
0.00186195
0.00163632
0.00132558
0.00109288
0.000978845
0.000953325
0.000931151
0.000931855
0.000896036
0.000826464
0.000720927
0.000607243
0.00050141
0.000399364
0.000310959
0.000243709
0.000207171
0.000212908
0.000242543
0.000279926
0.000304193
0.00194697
0.00187192
0.00172702
0.00153542
0.00131503
0.00116699
0.0010904
0.00106354
0.00102883
0.00100967
0.000939732
0.000857868
0.000733036
0.000610771
0.000495211
0.000388012
0.000298476
0.000230048
0.000190759
0.000208007
0.000242956
0.000283664
0.000320271
0.00179383
0.00175498
0.00163698
0.00150896
0.00137385
0.0012726
0.00120509
0.00115322
0.001115
0.00107289
0.000997367
0.000865336
0.000719994
0.000585919
0.000462142
0.000354817
0.000270541
0.000213795
0.000197758
0.000228057
0.000267592
0.000309894
0.000320271
4.48093e-06
6.1261e-06
1.70946e-05
3.88079e-05
8.77834e-06
4.55346e-05
4.2316e-05
8.73014e-05
3.3522e-05
4.99848e-05
7.19208e-05
0.000142011
5.16693e-05
5.37272e-05
0.000103222
0.000250259
5.92453e-05
9.5611e-05
0.000305042
0.000397291
0.00011906
0.000413835
0.000534598
0.000527933
0.000522259
0.000530758
0.000534598
0.000527933
0.000522259
0.000530758
0.000510109
0.000434473
0.000459959
0.000427123
0.000378416
0.000246762
0.000357313
0.000287574
0.000268088
0.000269731
0.000180258
0.000193848
0.000206142
0.000254691
0.000225344
0.000227198
0.000231739
0.000303992
0.000367908
0.000325109
0.000231739
0.000303992
0.000524253
0.000510648
0.000452729
0.000438086
0.000756903
0.000777007
0.000782827
0.000804127
0.000905628
0.000937381
0.000965325
0.00100017
0.000907545
0.000937381
0.000965325
0.00100017
0.000907545
0.000935834
0.000964306
0.000986957
0.000815252
0.000845153
0.000873366
0.000896738
0.000840197
0.000865559
0.000884143
0.000899667
0.000862441
0.000873608
0.000884143
0.000899667
0.000862441
0.000873608
0.000880277
0.000883836
0.000846335
0.000846668
0.000842575
0.000836993
0.000798988
0.000791206
0.000777666
0.000765807
0.000727253
0.000711531
0.000691279
0.00067481
0.000632151
0.000611045
0.000588322
0.000571535
0.000521893
0.000500274
0.000479447
0.000466877
0.000413973
0.000395152
0.000378411
0.000371534
0.000327881
0.000313265
0.000301376
0.000300151
0.000272468
0.000263131
0.000256508
0.000260754
0.000241126
0.000237623
0.000237152
0.000247426
0.000227762
0.000230743
0.000241564
0.000256581
0.000228663
0.000239411
0.000253689
0.000270667
0.000238596
0.000252609
0.000268827
0.000287157
0.000252242
0.000268566
0.000285753
0.000304824
0.000267752
0.000285528
0.000303267
0.000322671
0.000284468
0.000303187
0.000321244
0.000340825
0.000300894
0.000320134
0.000338381
0.000357966
0.000317967
0.000337522
0.000356026
0.000375593
0.000333535
0.000353233
0.0003718
0.000391338
0.000350318
0.000370309
0.000389073
0.000408695
0.000350318
0.000370309
0.000389073
0.000408695
0.000121235
0.000203069
0.000298957
0.000445792
0.000445792
0.00037756
0.000178836
0.000228018
0.000228018
0.000200822
0.00020747
0.000275927
0.000287934
0.000287934
9.71058e-05
2.92499e-05
5.50316e-05
7.72553e-05
3.34379e-05
0.000209088
0.000155246
0.000144794
0.000211737
0.000359678
0.000275954
0.00013465
0.000286144
0.000399284
0.000216991
0.000270824
0.000344187
0.000347023
0.000415119
0.00049183
0.000552968
0.000491472
0.000339654
0.000144543
0.000232969
0.000228546
0.000109159
0.000105034
0.000160221
7.85899e-05
0.000184511
0.000492984
0.000492984
0.000446431
0.00044089
0.000559079
0.000759463
0.00092383
0.00109188
0.00109188
0.00103535
0.000749166
0.000417944
0.000252635
0.000154193
0.000178214
0.00017925
9.82396e-05
0.000118359
0.000170315
0.00028447
0.000488108
0.000536848
0.000575219
0.00065394
0.000809407
0.000923388
0.000982825
0.000989601
0.000967345
0.000900036
0.000764507
0.000399613
0.00047762
0.000518497
0.000518497
0.000326898
0.000450146
0.000441463
0.000193091
0.000189593
0.000266366
0.000443935
0.000539654
0.000557053
0.000672064
0.000719719
0.000733598
0.000748462
0.000879418
0.000894676
0.000470205
0.000470205
0.000476759
0.000573003
0.000648875
0.000724861
0.000724861
0.000500739
0.000309977
0.000484152
0.000488073
0.000488073
0.000462347
0.000575464
0.000575464
0.000544814
0.000775954
0.00110586
0.00110586
0.000451711
0.000366593
0.000561865
0.000697206
0.000739321
0.000739321
0.000656891
0.000501548
0.000325432
0.000263788
0.000274301
0.000333066
0.000465006
0.000604391
0.000604391
0.000541515
0.000687067
0.00109616
0.00109616
0.000342294
0.00047357
0.000568369
0.000651399
0.000651399
0.000630761
0.000338716
0.000334906
0.000224213
0.000363059
0.000403563
0.000465003
0.000567288
0.000624848
0.000607017
0.000501569
0.000983937
0.00109065
0.00109065
0.000339332
0.000488664
0.000614947
0.000708025
0.000708025
0.000582304
0.000694088
0.000551958
0.000401734
0.000339326
0.000453251
0.000569184
0.000691049
0.000691049
0.000679613
0.000816328
0.000991868
0.00103205
0.000849269
0.000549714
0.000677976
0.000677976
0.000652982
0.00069494
0.000922911
0.000831246
0.000702136
0.000466749
0.000401722
0.000422104
0.000497348
0.000614801
0.000736291
0.000736291
0.000761603
0.000811525
0.000833266
0.000591212
0.000554404
0.000657595
0.000700711
0.000889204
0.00114978
0.00114978
0.00101784
0.000669383
0.000438403
0.000369612
0.000336819
0.000365208
0.000398438
0.000503556
0.00058501
0.000571555
0.000649098
0.000574732
0.000357182
0.000437749
0.000440354
0.000668026
0.00101335
0.00101911
0.00101911
0.000786522
0.000593636
0.000489207
0.000447211
0.000421255
0.00037107
0.000315277
0.000294104
0.000353555
0.000372044
0.000422489
0.000344305
0.000229555
0.000396421
0.00043036
0.000570388
0.000823472
0.00091919
0.000853814
0.000674746
0.000575414
0.000561091
0.000519096
0.000455932
0.000376485
0.000288534
0.00019043
0.000156752
0.000191743
0.000235213
0.000227516
0.000188903
0.000441074
0.00059699
0.000830718
0.0009455
0.000902176
0.000760549
0.000694866
0.000694866
0.000665786
0.000633938
0.000560054
0.000452779
0.000333193
0.000205558
9.22136e-05
0.000110446
0.000166531
0.000185707
0.000175237
0.000814376
0.000989248
0.0011033
0.0011033
0.000898517
0.000702785
0.000749897
0.000756845
0.000756845
0.000727809
0.000653414
0.000522722
0.000360133
0.000214775
0.000128973
0.000154299
0.000192779
0.000204316
0.000202611
0.0012416
0.00127851
0.00127851
0.00112708
0.000811438
0.0007678
0.000835554
0.00085752
0.00085752
0.000852953
0.000798275
0.000658772
0.000450498
0.000254813
0.000143507
0.000174489
0.000214491
0.000229522
0.000224046
0.00116591
0.00116591
0.00114273
0.000953654
0.000741246
0.000835369
0.000902863
0.000949187
0.000960073
0.000960073
0.000922608
0.000790676
0.000554874
0.000302735
0.000148619
0.000200012
0.000249021
0.000258372
0.000258372
0.00105516
0.00105516
0.00100116
0.000877754
0.000863371
0.000934146
0.000998517
0.00104515
0.00106804
0.00106804
0.00104665
0.000936757
0.000697669
0.000396263
0.000159952
0.000199156
0.000265734
0.000278602
0.000278602
0.000980624
0.000980624
0.000971316
0.000916661
0.000935722
0.000994864
0.00106399
0.00112378
0.00115839
0.00115839
0.0011545
0.00107189
0.000842233
0.000503012
0.000200481
0.000201468
0.000282538
0.000299199
0.000299199
0.00102007
0.00102007
0.00100483
0.000962936
0.000972786
0.00104244
0.00111948
0.00119018
0.0012367
0.00124808
0.00124808
0.00119129
0.00100214
0.000656037
0.00028246
0.000194423
0.000289389
0.000307219
0.000307219
0.000987799
0.000987799
0.000960924
0.000936902
0.000981694
0.00106009
0.00114862
0.00123233
0.00129242
0.00131935
0.00131935
0.0012879
0.00114575
0.000813242
0.000382122
0.000183825
0.000298247
0.00031945
0.00031945
0.000936745
0.000936745
0.00091079
0.000900882
0.000958216
0.00105244
0.00115954
0.00125997
0.00133445
0.00137554
0.00137554
0.00136564
0.00126199
0.000972584
0.000518844
0.00016784
0.000294188
0.000325
0.000325
0.000848214
0.000848214
0.000813567
0.00082159
0.000889913
0.000995324
0.00112474
0.00125286
0.0013519
0.00140983
0.00141877
0.00141877
0.00134564
0.00111231
0.000670871
0.000217196
0.000289314
0.000332287
0.000332287
0.00074945
0.00074945
0.000723727
0.000763837
0.000836939
0.000940219
0.00106958
0.00121275
0.00133972
0.0014235
0.00145373
0.00145373
0.00140908
0.00122894
0.000825276
0.000292938
0.000280103
0.000333394
0.000333394
0.000646102
0.000644953
0.000660838
0.00071638
0.000798284
0.000902361
0.00102564
0.00116624
0.00130627
0.00141424
0.00146798
0.00146798
0.00145039
0.00131357
0.000964057
0.000413971
0.000275183
0.000335067
0.000335067
0.000550698
0.000563472
0.000607388
0.000678295
0.000767859
0.000872903
0.000991484
0.00112629
0.00126928
0.00139371
0.00146773
0.00147491
0.00147491
0.00137396
0.00109003
0.000555509
0.00027542
0.000339211
0.000339211
0.000457915
0.000491114
0.000551873
0.000637391
0.000737842
0.00084667
0.000962641
0.00109009
0.00122934
0.00136519
0.00145952
0.00148782
0.00148782
0.00141546
0.00119591
0.000696983
0.000277741
0.000346571
0.000346571
0.000384823
0.00043627
0.000509335
0.000603103
0.000711801
0.000825229
0.000940162
0.00106175
0.00119336
0.00133092
0.00144228
0.00149204
0.00149204
0.00144242
0.00127066
0.000831745
0.000333093
0.000355692
0.000355692
0.000336806
0.000398242
0.000476034
0.000570863
0.0006844
0.000802942
0.000919117
0.00103777
0.00116241
0.00129687
0.00141791
0.00148344
0.00148344
0.00145239
0.00130861
0.000930188
0.000380101
0.00036964
0.00036964
0.000323039
0.000386838
0.000462932
0.00055279
0.000665069
0.000786402
0.000903474
0.0010196
0.00113832
0.00126613
0.0013927
0.00147322
0.00147322
0.00145521
0.00133173
0.00101469
0.000428114
0.000392948
0.000392948
0.000322503
0.000384983
0.000456586
0.000539065
0.000646933
0.000769085
0.000888064
0.00100385
0.0011185
0.00123971
0.00136663
0.00145847
0.00145847
0.00145574
0.00134697
0.00108074
0.000498135
0.000417371
0.000417371
0.000338787
0.000398857
0.000465001
0.000539826
0.000640485
0.000760127
0.000879237
0.000994044
0.00110547
0.00121956
0.00134395
0.0014443
0.00145272
0.00145272
0.0013555
0.00113028
0.000579215
0.000446685
0.000454087
0.000351369
0.000410035
0.000472235
0.000540515
0.000634044
0.00075036
0.000869803
0.000984898
0.00109429
0.00120354
0.00132424
0.0014301
0.00144824
0.00144824
0.00135802
0.00116068
0.000655477
0.000468745
0.00049877
0.000373697
0.000429983
0.000488643
0.000552557
0.000639741
0.000751194
0.000868815
0.000982836
0.00109014
0.00119443
0.00130979
0.00141852
0.00144345
0.00144345
0.00135943
0.00117827
0.000714163
0.000501079
0.000549668
0.00038862
0.000444208
0.000500794
0.000560844
0.000642245
0.000749311
0.000865528
0.000979337
0.00108548
0.00118714
0.00129864
0.00140858
0.00143788
0.00143788
0.00135802
0.0011865
0.000761359
0.000522072
0.000607058
0.000411659
0.000465135
0.000519989
0.000578074
0.000655682
0.000758791
0.000872198
0.000984223
0.00108844
0.0011868
0.00129342
0.00140285
0.00143503
0.00143503
0.00135828
0.00118964
0.000792582
0.000558583
0.000670416
0.000426325
0.000479195
0.000533159
0.000589638
0.000663543
0.000762792
0.000873935
0.000985191
0.0010884
0.00118515
0.00128934
0.00139839
0.00143197
0.00143197
0.00135845
0.00119396
0.00081964
0.000585259
0.00074
0.000450259
0.000501442
0.000554198
0.000609156
0.000680635
0.000777627
0.000886404
0.00099569
0.00109695
0.00119112
0.00129183
0.00139923
0.00143337
0.00143337
0.00136089
0.00119791
0.000832612
0.000637471
0.000814305
0.000463184
0.000514193
0.000566783
0.000621064
0.000690217
0.000784638
0.000891355
0.000999533
0.00109989
0.00119289
0.00129237
0.00139941
0.00143434
0.00143434
0.00136419
0.00120616
0.000852408
0.000676158
0.000900198
0.000488849
0.000538559
0.00058978
0.000642755
0.000709982
0.000802383
0.000907031
0.00101337
0.00111186
0.0012028
0.00130005
0.00140537
0.00143983
0.00143983
0.0013697
0.00121318
0.000859587
0.000751498
0.000983827
0.00049739
0.000547342
0.000598612
0.000651569
0.000717837
0.000808732
0.000911951
0.0010174
0.00111519
0.00120535
0.00130202
0.00140711
0.00144215
0.00144215
0.00137358
0.00122053
0.000875647
0.000793598
0.00108901
0.000527379
0.000576523
0.000626419
0.000677799
0.000741869
0.000830133
0.000930998
0.00103432
0.00112986
0.00121788
0.00131254
0.00141577
0.00144984
0.00144984
0.00138128
0.00123021
0.000885955
0.000890199
0.00108901
)
;

boundaryField
{
    leftWall
    {
        type            calculated;
        value           uniform 0;
    }
    rightWall
    {
        type            calculated;
        value           uniform 0;
    }
    lowerWall
    {
        type            calculated;
        value           uniform 0;
    }
    atmosphere
    {
        type            calculated;
        value           uniform 0;
    }
    defaultFaces
    {
        type            empty;
    }
}


// ************************************************************************* //
