/*--------------------------------*- C++ -*----------------------------------*\
| =========                 |                                                 |
| \\      /  F ield         | OpenFOAM: The Open Source CFD Toolbox           |
|  \\    /   O peration     | Version:  2012                                  |
|   \\  /    A nd           | Website:  www.openfoam.com                      |
|    \\/     M anipulation  |                                                 |
\*---------------------------------------------------------------------------*/
FoamFile
{
    version     2.0;
    format      ascii;
    class       volScalarField;
    location    "1";
    object      minKappa;
}
// * * * * * * * * * * * * * * * * * * * * * * * * * * * * * * * * * * * * * //

dimensions      [0 0 0 0 0 0 0];


internalField   nonuniform List<scalar> 
2268
(
1.07579e-07
2.14925e-07
2.81282e-07
2.68123e-07
1.97318e-07
9.85141e-08
1.21596e-07
1.96724e-07
2.07546e-07
1.22021e-07
1.37731e-07
3.31519e-07
5.41033e-07
7.62941e-07
8.67386e-07
1.06455e-06
1.1766e-06
1.4026e-06
1.54049e-06
1.50318e-06
1.35599e-06
7.58282e-07
5.41799e-07
1.07579e-07
2.14925e-07
2.81282e-07
2.68123e-07
1.97318e-07
9.85141e-08
1.21596e-07
1.96724e-07
2.07546e-07
1.22021e-07
1.37731e-07
3.31519e-07
5.41033e-07
7.62941e-07
8.67386e-07
1.06455e-06
1.17568e-06
1.4026e-06
1.54049e-06
1.50318e-06
1.35599e-06
7.58282e-07
5.41799e-07
1.62545e-07
2.43355e-07
3.0769e-07
2.90924e-07
2.20719e-07
1.50008e-07
1.67629e-07
2.3486e-07
2.43769e-07
1.84039e-07
2.26005e-07
3.75098e-07
5.84017e-07
7.95277e-07
8.93555e-07
1.09863e-06
1.17568e-06
1.43598e-06
1.59913e-06
1.5795e-06
1.44597e-06
8.94614e-07
6.8563e-07
2.32782e-07
2.98243e-07
3.61412e-07
3.48574e-07
2.825e-07
2.29977e-07
2.38675e-07
2.96805e-07
3.04831e-07
2.67371e-07
3.2472e-07
4.27178e-07
6.44435e-07
8.29913e-07
9.1727e-07
1.12847e-06
1.20594e-06
1.51217e-06
1.67736e-06
1.71608e-06
1.614e-06
1.11985e-06
9.24626e-07
3.22645e-07
3.71392e-07
4.29582e-07
4.12029e-07
3.54222e-07
3.315e-07
3.34086e-07
3.84012e-07
3.88518e-07
3.68173e-07
4.44631e-07
5.117e-07
7.35184e-07
8.85124e-07
9.7242e-07
1.1765e-06
1.20778e-06
1.56988e-06
1.77722e-06
1.9384e-06
1.89501e-06
1.43621e-06
1.20024e-06
4.27336e-07
4.69956e-07
5.20355e-07
5.03274e-07
4.49506e-07
4.51842e-07
4.53661e-07
5.02537e-07
5.09987e-07
5.02931e-07
5.81749e-07
6.13144e-07
8.48543e-07
9.43906e-07
1.02312e-06
1.19306e-06
1.11102e-06
1.55576e-06
1.79176e-06
2.04149e-06
2.13098e-06
1.76293e-06
1.60255e-06
5.65242e-07
6.06456e-07
6.62861e-07
6.39332e-07
5.91852e-07
6.06767e-07
6.11212e-07
6.56802e-07
6.55998e-07
6.60717e-07
7.4656e-07
7.45837e-07
9.82553e-07
1.02826e-06
1.04432e-06
1.03501e-06
1.01872e-06
1.55576e-06
1.79176e-06
2.04149e-06
2.05727e-06
1.99995e-06
1.93466e-06
7.31618e-07
7.52942e-07
8.09734e-07
8.00328e-07
7.60883e-07
8.08281e-07
8.10278e-07
8.62466e-07
8.61069e-07
8.62467e-07
9.33908e-07
9.01295e-07
1.15381e-06
1.08099e-06
1.04432e-06
1.03501e-06
1.01872e-06
2.04138e-06
2.36319e-06
2.32572e-06
2.05727e-06
2.17238e-06
2.29442e-06
0.000110311
0.000142995
0.000183324
9.04399e-05
2.9185e-05
1.45103e-05
7.73416e-06
2.43763e-06
3.71805e-06
5.50039e-06
7.0919e-06
1.7285e-05
1.60232e-05
1.96368e-05
3.05366e-05
3.97707e-05
3.4636e-05
1.12383e-05
3.68028e-06
0.000110311
0.000142995
0.000183324
9.04399e-05
2.70472e-05
1.35456e-05
7.73416e-06
2.43763e-06
3.34911e-06
4.30172e-06
4.04401e-06
1.24399e-05
1.47588e-05
1.96368e-05
3.05366e-05
3.97707e-05
3.57414e-05
1.12383e-05
3.68028e-06
0.000162692
0.000189411
0.000290179
0.000109857
2.70472e-05
1.35456e-05
8.80501e-06
4.38348e-06
3.34911e-06
4.30172e-06
4.04401e-06
8.83993e-06
1.19615e-05
3.93629e-05
5.42754e-05
4.88076e-05
7.79713e-05
2.39183e-05
4.26314e-06
0.000175555
0.000201957
0.000290179
0.000118129
3.9354e-05
1.90304e-05
1.05498e-05
6.087e-06
4.39802e-06
4.96874e-06
5.58571e-06
8.83993e-06
1.19615e-05
1.18463e-05
1.09456e-05
2.60056e-05
4.28775e-05
1.501e-05
3.65314e-06
0.000175555
0.000314652
0.000285451
0.000174996
0.000177808
6.37285e-05
1.22991e-05
1.34964e-05
2.25347e-05
1.9871e-05
3.96211e-05
1.21742e-05
1.23326e-05
1.13168e-05
1.02913e-05
2.60056e-05
2.60518e-05
6.58878e-06
2.55516e-06
0.000223619
0.000245271
0.000127908
0.000246662
0.00015907
0.000161558
2.35427e-05
7.69752e-05
0.000129473
9.57671e-05
0.000103884
7.60916e-05
1.9921e-05
1.13168e-05
1.02913e-05
2.54895e-05
9.46468e-06
3.99758e-06
1.52113e-06
0.000173988
9.56509e-05
0.000127908
0.0002684
0.00015907
0.00017231
0.000101573
0.000135755
0.000165372
8.44968e-05
8.48187e-05
0.00010701
0.000102969
2.76402e-05
1.66617e-05
1.85032e-05
5.12452e-06
2.77715e-06
9.78083e-07
0.000121235
9.56509e-05
0.000156079
0.0002684
0.000187204
0.00017231
0.000132445
0.000145621
0.000165372
8.44968e-05
8.48187e-05
0.00010701
0.000115049
0.00011791
5.91303e-05
1.46729e-05
5.12452e-06
2.77715e-06
9.78083e-07
1.44244e-06
1.48554e-06
1.59551e-06
1.56657e-06
1.52214e-06
1.64584e-06
1.69277e-06
1.75793e-06
1.6974e-06
1.68724e-06
1.8259e-06
1.74098e-06
2.10703e-06
1.701e-06
1.77419e-06
2.44369e-06
1.40439e-05
2.12192e-05
1.67052e-05
2.88746e-05
6.40491e-06
4.07449e-06
4.00925e-06
3.31543e-06
3.42822e-06
3.7462e-06
3.66165e-06
3.60575e-06
3.93728e-06
3.90634e-06
3.9522e-06
3.96401e-06
4.93925e-06
5.9721e-06
6.37582e-06
1.03184e-05
4.00648e-06
0.000126955
0.000282877
0.000277881
0.000112412
5.88608e-05
3.22546e-05
0.000155054
4.19318e-05
2.82524e-06
5.26081e-06
5.42514e-06
5.42677e-06
5.44155e-06
5.72159e-06
6.62426e-06
7.04009e-06
6.73379e-06
9.18607e-06
2.46419e-05
5.55427e-05
8.14663e-05
8.35222e-05
0.000309
0.000921087
0.000487351
0.000107496
4.65864e-05
2.80106e-05
2.35848e-05
2.54644e-05
8.60285e-05
1.62302e-05
7.96211e-06
7.80657e-06
6.75398e-06
9.24122e-06
1.49047e-05
2.09254e-05
2.84434e-05
2.12381e-05
4.69653e-05
0.00017821
0.00025012
0.00031164
0.000294603
0.0011224
0.000608025
0.000121565
6.10788e-05
5.36688e-05
3.80925e-05
2.35848e-05
2.9293e-05
9.80252e-05
3.67816e-05
1.09869e-05
1.46763e-05
1.8483e-05
4.07552e-05
0.000106687
0.000193274
0.000214616
0.000167619
0.000235017
0.000392519
0.000388658
0.000438199
0.000474569
0.00119333
0.000458906
0.000108249
6.70733e-05
6.39464e-05
5.56174e-05
4.12716e-05
8.00203e-05
0.000109457
4.34221e-05
1.43441e-05
3.89524e-05
0.000154914
0.000204785
0.00028574
0.000521222
0.000634457
0.000582749
0.000553747
0.000513746
0.000501358
0.000491819
0.000793373
0.00133098
0.000692002
0.000398081
0.000107489
7.06181e-05
6.52595e-05
6.93421e-05
7.75983e-05
6.74417e-05
4.45314e-05
2.08775e-05
3.97541e-05
0.000222277
0.000372208
0.000387911
0.000682117
0.0010817
0.000901425
0.000703197
0.00064333
0.00052396
0.000519014
0.000803768
0.00129579
0.000618507
0.000694304
0.000489537
0.000116821
6.67825e-05
6.33367e-05
6.19251e-05
6.19251e-05
8.41055e-05
2.103e-05
4.89254e-05
0.000243407
0.000447703
0.000635608
0.00101505
0.000989866
0.000709937
0.000535124
0.000605437
0.00061194
0.000554003
0.000862383
0.000940955
0.00035812
0.000618497
0.000670408
0.000424819
9.1255e-05
6.12312e-05
6.12312e-05
9.43565e-05
0.000324253
2.69706e-05
8.24629e-05
0.00040789
0.000706707
0.000956573
0.00109816
0.000753786
0.00053223
0.00053223
0.000552788
0.000668971
0.000641596
0.000805825
0.000589162
0.000228724
0.000454395
0.000674927
0.000590556
0.000270608
7.68045e-05
7.31332e-05
0.000178672
0.000320432
3.9773e-05
0.000100311
0.000586618
0.00090602
0.00101016
0.00102939
0.000800264
0.000639705
0.00049445
0.000531757
0.000602587
0.000558853
0.000582789
0.000468553
0.000193518
0.000303579
0.000508714
0.000463424
0.000484417
0.000266163
0.000160849
0.000188232
0.000175009
4.89909e-05
0.000100762
0.00067554
0.0010124
0.000853194
0.000799916
0.000529253
0.000416657
0.000303226
0.000317463
0.000439523
0.000401057
0.000396738
0.000315744
0.00016588
0.00023692
0.000383934
0.00039889
0.00039889
0.0003735
0.000243292
0.000137033
6.27307e-05
6.15325e-05
0.000102533
0.000769846
0.000960786
0.000727569
0.000521459
0.000288155
0.000196295
0.000185695
0.000151188
0.000290782
0.000262506
0.000271887
0.000190517
0.00016588
0.000210273
0.000316166
0.000382193
0.000388856
0.000395891
0.00043067
0.000273649
0.000101394
8.14085e-05
0.000147827
0.000683169
0.00103502
0.000701225
0.000391262
0.000187184
0.000147093
0.000113498
8.16123e-05
0.000170014
0.000194049
0.000227802
0.000187265
0.000185661
0.000221178
0.000293788
0.000350664
0.000364933
0.000349702
0.000349702
0.00038642
0.000255199
0.000194213
0.000323871
0.000803699
0.00103893
0.000670719
0.000373857
0.000195129
0.000160107
0.000106626
8.16123e-05
0.000152967
0.00017683
0.000218311
0.000189772
0.000221851
0.000259395
0.000316186
0.000379589
0.000407436
0.000394155
0.000380826
0.000408769
0.000292889
0.000357616
0.00035761
0.000872664
0.000994327
0.000627513
0.000368055
0.000199321
0.000172351
0.000124301
9.37689e-05
0.00015691
0.00017683
0.000215203
0.000211811
0.000253293
0.000289852
0.000342235
0.000405804
0.000465168
0.000493166
0.000517436
0.000540152
0.000480576
0.000224518
0.000507237
0.00111507
0.000899692
0.000553428
0.000341573
0.000196752
0.000185561
0.00016248
0.000127114
0.000188518
0.00018584
0.000231901
0.000236921
0.000274765
0.000309158
0.000347953
0.000402361
0.000465348
0.000544704
0.000639831
0.000730473
0.000614559
0.000224518
0.000567792
0.00134766
0.000824127
0.000484459
0.00031917
0.00020628
0.0001958
0.000197758
0.000163848
0.000214611
0.000208034
0.00025274
0.000261294
0.000302212
0.000331198
0.000372034
0.000418647
0.000473787
0.000547388
0.000640057
0.000743842
0.000686454
0.000369182
0.000912015
0.00127154
0.000746446
0.000394671
0.000291099
0.000221688
0.000203196
0.000232985
0.000195825
0.000248481
0.000235608
0.000282939
0.000288541
0.000326598
0.00035268
0.000381904
0.000416665
0.000452797
0.000497639
0.000555216
0.000637481
0.00061446
0.000713541
0.000918925
0.00125786
0.000745229
0.000346089
0.000291614
0.000248288
0.000217947
0.000262265
0.000228343
0.000280502
0.000268769
0.000315821
0.000319917
0.000361986
0.000378226
0.000417949
0.000447824
0.000486284
0.000526815
0.000568876
0.000622007
0.000556274
0.000714558
0.000926758
0.00128179
0.00075764
0.000350665
0.000309977
0.000286479
0.000242287
0.00029599
0.000260326
0.000312051
0.000298437
0.000338791
0.00034526
0.000374062
0.000397598
0.000421659
0.000456073
0.000494016
0.000541
0.00059052
0.000648451
0.000586273
0.000724629
0.000978172
0.0012211
0.000757618
0.000389746
0.000322809
0.000332685
0.000275777
0.000336682
0.000295583
0.000348871
0.000329465
0.000373146
0.000369764
0.000406667
0.000417191
0.000455477
0.000489713
0.000535606
0.000588661
0.000648131
0.000716338
0.000620195
0.000735676
0.00101915
0.00117259
0.000773313
0.000463626
0.000368207
0.000395076
0.000320081
0.000384786
0.000334907
0.000386488
0.000364093
0.000404227
0.000401544
0.000436909
0.000452222
0.000495528
0.000535369
0.000589654
0.000649571
0.000714803
0.000779118
0.000629815
0.000766206
0.00113818
0.00113148
0.000773856
0.000539319
0.00042322
0.000454394
0.000370629
0.000432822
0.000376981
0.000425803
0.000399242
0.000438713
0.000434892
0.000475005
0.000497023
0.000552385
0.000597134
0.000662094
0.000718159
0.000773707
0.000811614
0.000608042
0.000784181
0.00107406
0.00109706
0.000777395
0.00061746
0.000484235
0.000512837
0.000424212
0.000476745
0.00042016
0.000464318
0.000435567
0.000473078
0.000472281
0.000515821
0.000550006
0.000603903
0.000655465
0.000703977
0.00074908
0.000780928
0.000783654
0.00056874
0.000816026
0.00113112
0.001081
0.000791987
0.000669899
0.000549665
0.000561086
0.000477867
0.000516238
0.000463206
0.000502008
0.000473171
0.000511356
0.00051586
0.000567125
0.000604829
0.000653966
0.00069324
0.000725629
0.000746477
0.00075176
0.000722275
0.000509807
0.00100255
0.00127842
0.00107177
0.000826226
0.000714364
0.000610547
0.000601287
0.000526583
0.000549536
0.000502934
0.000534431
0.000510974
0.00054834
0.000565228
0.000613732
0.000649006
0.000678278
0.00070101
0.00071635
0.000707683
0.00069317
0.000637075
0.000434976
0.00125119
0.0014104
0.00109554
0.000874792
0.000755949
0.000664755
0.000631871
0.000569125
0.000578338
0.000538831
0.000566112
0.000549311
0.000589907
0.000613067
0.000651855
0.000673525
0.000687093
0.000685377
0.000685788
0.000656228
0.000619271
0.000538213
0.000351232
0.0015227
0.00149475
0.00115932
0.000933381
0.000793479
0.000708108
0.000651969
0.000604032
0.00059844
0.000569415
0.000590382
0.000587545
0.000625289
0.000649669
0.000671742
0.000680599
0.000676679
0.000660557
0.000642823
0.000596914
0.000529243
0.000443441
0.000276515
0.00179764
0.0016234
0.00125365
0.000993064
0.000818273
0.000718347
0.000657049
0.000625546
0.000609792
0.000591796
0.000609265
0.000621617
0.000652229
0.000671165
0.000681503
0.000671744
0.000656176
0.000631591
0.000592571
0.000529862
0.000447055
0.00036364
0.00022282
0.00207747
0.00179637
0.00135895
0.00103596
0.000823263
0.000707588
0.000643617
0.000612555
0.000610259
0.000604349
0.000618674
0.000642735
0.000666803
0.000681617
0.000673611
0.000653103
0.000628185
0.000592156
0.000536335
0.000462277
0.000380986
0.000310077
0.000192468
0.00236426
0.00198229
0.00145129
0.00104952
0.000791001
0.000664082
0.000586102
0.00057748
0.000585304
0.000600385
0.000621106
0.000651422
0.000675347
0.000681838
0.000661189
0.00063269
0.000599055
0.000549836
0.000482075
0.00040587
0.00033179
0.000271603
0.000172727
0.00265089
0.00212508
0.00149967
0.00103233
0.00072058
0.000564963
0.00049764
0.000525487
0.000552181
0.000581241
0.000616977
0.000653546
0.000678193
0.000670411
0.000638512
0.000602561
0.000558465
0.000497284
0.000427119
0.000358279
0.000296558
0.000250319
0.00016774
0.00283985
0.00224669
0.00150682
0.000923655
0.000586401
0.000425714
0.00039523
0.000466801
0.000512401
0.000558512
0.000610384
0.000653799
0.000679817
0.000656145
0.000615544
0.00057355
0.000517763
0.000450092
0.000381554
0.000316996
0.000262687
0.000227854
0.000161727
0.00290096
0.00235304
0.00154334
0.000838865
0.000452175
0.000331179
0.000326515
0.000389292
0.000471436
0.000541975
0.000606567
0.000655399
0.000672242
0.000631442
0.000583546
0.000532373
0.000467293
0.000400603
0.00033831
0.000284039
0.000244359
0.000222031
0.000169796
0.00282716
0.00234647
0.00162026
0.000927093
0.000471873
0.000307453
0.000307453
0.000362248
0.000462978
0.000547405
0.000618109
0.000668299
0.000664945
0.000611981
0.00055871
0.000497805
0.0004276
0.000360531
0.000298691
0.000248936
0.000220283
0.000217026
0.000172516
0.00267859
0.00227105
0.00167282
0.00107856
0.000636713
0.000385095
0.000351951
0.000430512
0.000506466
0.000581405
0.000645338
0.000687899
0.000648462
0.00058415
0.000521487
0.00045022
0.000378977
0.000316521
0.000265857
0.000230529
0.000213713
0.000217499
0.000187392
0.00247658
0.00216381
0.00170048
0.00122342
0.00077756
0.000531164
0.000456808
0.000511921
0.000579626
0.000638959
0.000691828
0.000707989
0.000643462
0.000569841
0.000497669
0.000419933
0.000346962
0.000282754
0.000233422
0.000208694
0.000208694
0.000210139
0.000193634
0.00228802
0.00206046
0.00173333
0.00130774
0.000908965
0.000682782
0.000596523
0.000617299
0.000657318
0.00070675
0.00074152
0.00070979
0.000624838
0.000541209
0.000456946
0.00037343
0.000302239
0.000248753
0.000216224
0.000200953
0.000209927
0.000224398
0.000210931
0.0021313
0.00199435
0.00171908
0.00131305
0.000982969
0.000817368
0.000730726
0.000729733
0.000744627
0.000777402
0.000793103
0.000725732
0.00062599
0.000531977
0.000438656
0.000352351
0.000279423
0.000224078
0.000195801
0.000195801
0.00019842
0.000221517
0.000217179
0.00194697
0.00186195
0.00163632
0.00132558
0.00109288
0.000945617
0.000864211
0.000848783
0.000841981
0.000855972
0.000826464
0.000720927
0.000607243
0.00050141
0.000399364
0.000310959
0.000243709
0.000207171
0.000189001
0.000196315
0.000212908
0.000242543
0.000235487
0.00179383
0.00172702
0.00153542
0.00131503
0.00114467
0.00105114
0.000977036
0.000953325
0.000931151
0.000931855
0.000857868
0.000733036
0.000610771
0.000495211
0.000388012
0.000298476
0.000230048
0.000190759
0.000184267
0.000185664
0.000208007
0.000242956
0.000239756
0.00170684
0.00163698
0.00150896
0.00137385
0.00125173
0.00116699
0.0010904
0.00106354
0.00102883
0.000997367
0.000865336
0.000719994
0.000585919
0.000462142
0.000354817
0.000270541
0.000213795
0.000190066
0.000184267
0.000197758
0.000228057
0.000267592
0.000259848
1.76151e-06
1.76151e-06
2.97694e-06
7.4515e-06
2.82524e-06
3.22536e-06
1.00223e-05
2.05149e-05
8.77834e-06
2.66567e-05
2.93839e-05
3.59427e-05
2.25604e-05
2.25604e-05
2.70606e-05
5.54928e-05
2.69868e-05
2.69868e-05
3.71996e-05
0.000112084
4.45314e-05
4.58384e-05
0.000188787
0.000240404
0.00011906
0.000258376
0.000259099
0.000259099
0.000235529
0.000228182
0.000184942
0.000184942
0.000180959
0.000150071
0.000109433
0.000109433
0.000122012
0.000111147
0.000111147
0.000130828
5.77972e-05
5.77972e-05
7.10008e-05
7.8994e-05
5.64762e-05
5.64762e-05
9.69636e-05
0.000129979
0.000151542
0.000119461
0.000119461
0.000127812
0.000174339
0.000142966
0.000114637
0.000114637
0.000311873
0.000309587
0.000303795
0.000303795
0.000408009
0.000408009
0.00042236
0.000440718
0.000456121
0.000456121
0.000469353
0.000480049
0.000406972
0.000406972
0.00042109
0.000434104
0.000371131
0.000371131
0.000384133
0.000395165
0.000392092
0.000392092
0.000405674
0.000416626
0.000407453
0.000407453
0.000414351
0.000419262
0.000406388
0.000406388
0.000407486
0.000407486
0.000387379
0.000384191
0.000379793
0.000379793
0.000358342
0.000351441
0.000343847
0.000343847
0.000316543
0.000306488
0.000296787
0.000296787
0.000266746
0.000256166
0.000247272
0.000247272
0.00021297
0.000203574
0.000196813
0.000196813
0.000166863
0.000159566
0.000155302
0.000155302
0.000134199
0.000129089
0.000127256
0.000127256
0.000117373
0.000115039
0.000115039
0.000115806
0.000107558
0.000107558
0.000108071
0.000111309
0.000107354
0.000107354
0.000110359
0.000115569
0.000106403
0.000106403
0.000111692
0.000118672
0.000113665
0.000113665
0.000120183
0.000127941
0.00011732
0.00011732
0.000125059
0.000133589
0.000127631
0.000127631
0.000135693
0.000144259
0.000132629
0.000132629
0.000141313
0.000150262
0.000143845
0.000143845
0.000152502
0.000161304
0.00014836
0.00014836
0.000157381
0.000166424
0.000160107
0.000160107
0.000169037
0.000177953
0.0001631
0.0001631
0.000172219
0.00018128
0.000176098
0.000176098
0.000185262
0.000194314
3.26218e-05
0.00011491
0.000144794
0.000211737
0.000359678
0.000178836
9.01322e-05
0.000144677
0.000200822
0.000124443
0.000126801
0.000166793
0.000134802
9.71058e-05
2.92499e-05
9.01393e-06
7.15077e-06
7.86192e-06
3.3988e-06
6.56115e-05
0.000113373
7.22825e-05
6.98195e-05
0.000160221
7.85899e-05
7.50919e-05
0.00013465
0.000216991
0.000154606
0.000163973
0.000199565
0.000235308
0.000170712
6.33823e-05
2.64318e-05
5.50316e-05
7.72553e-05
3.34379e-05
0.000113094
0.000109159
7.22825e-05
6.98195e-05
5.58207e-05
5.02215e-05
5.90711e-05
0.000184511
0.000399284
0.000216554
0.000270824
0.000344187
0.000347023
0.000415119
0.00049183
0.000552968
0.000491472
0.000339654
0.000144543
0.000154193
0.000101667
8.47944e-05
9.82396e-05
7.62793e-05
5.02215e-05
0.000107026
0.000111621
0.000189593
0.000266366
0.00039317
0.000491659
0.000557053
0.000672064
0.000719719
0.000733598
0.000732721
0.000653501
0.000417944
0.000252635
0.000150694
0.000178214
0.00017925
7.81077e-05
0.000118359
0.000170315
9.36042e-05
9.36042e-05
0.000119086
0.000231746
0.000425146
0.000410538
0.000504061
0.000570357
0.000481397
0.000511963
0.000748462
0.000709522
0.000386144
0.00030597
0.000394014
0.000473699
0.000326898
0.000450146
0.000441463
0.000181371
0.000113348
0.000231265
0.000274301
0.000311924
0.000337896
0.000462347
0.000544814
0.00042522
0.000317678
0.000775954
0.000894676
0.00033426
0.000302368
0.000365125
0.000544448
0.000598991
0.000603618
0.000333235
0.000291133
0.000179256
0.000110732
0.000110732
0.00016075
0.000333066
0.000465006
0.000518641
0.000323638
0.000317678
0.000687067
0.000897047
0.000227197
0.000302368
0.000454852
0.000568369
0.000630761
0.000318183
0.00018773
0.00018773
0.000179256
0.000224213
0.000195751
0.0003142
0.000406697
0.00052587
0.000407339
0.000323638
0.000449144
0.000983937
0.00070974
0.000153175
0.000339332
0.000480601
0.000588645
0.000519503
0.000457587
0.000338716
0.000334906
0.000209449
0.000282966
0.000339326
0.000422373
0.00051223
0.000624848
0.000538036
0.000412512
0.0007792
0.000833266
0.000468464
0.000269731
0.000477146
0.000556859
0.000565045
0.000519503
0.000554145
0.000694088
0.000442161
0.000344096
0.000308975
0.000316707
0.000365208
0.000398438
0.000503556
0.00058501
0.000551694
0.000649098
0.000574732
0.000283208
0.000221408
0.000440354
0.000500531
0.000621785
0.00069494
0.000922911
0.000665157
0.000438403
0.000346138
0.000336819
0.000315516
0.000319967
0.000278933
0.000294104
0.000353555
0.000372044
0.000422489
0.000344305
0.000186203
0.000245764
0.000357461
0.00038795
0.000668026
0.00091919
0.000780652
0.000544709
0.000479048
0.000360141
0.000369612
0.000315516
0.000315277
0.000226227
0.000172946
0.000156752
0.000191743
0.000235213
0.000227516
0.00015085
0.000284709
0.000357461
0.00038795
0.000570388
0.000800754
0.000661665
0.000544709
0.00051311
0.000436605
0.00043671
0.000355945
0.000288534
0.00019043
0.000115772
5.25048e-05
9.80768e-05
0.000151887
0.000185707
0.000143569
0.000203077
0.000404659
0.000513046
0.000763201
0.00068685
0.000610954
0.00057313
0.000575414
0.000533546
0.000508211
0.000409655
0.000333193
0.000205558
9.22136e-05
5.25048e-05
5.70835e-05
0.000110446
0.000166531
0.000143569
0.000441074
0.00059699
0.000830718
0.000898517
0.000581167
0.000610954
0.000649085
0.000657132
0.00062866
0.000601571
0.00049463
0.000360133
0.000214775
0.000128973
6.00884e-05
9.85964e-05
0.000140855
0.000184065
0.000157614
0.000782604
0.000978348
0.00107519
0.000811438
0.000581167
0.000631829
0.000698329
0.000735158
0.000724035
0.000704097
0.00060725
0.000450498
0.000254813
0.000143507
9.44508e-05
0.000133423
0.000163983
0.000204316
0.000181477
0.000819413
0.00100069
0.00094114
0.000717023
0.000585327
0.000690439
0.00076001
0.000812128
0.000821056
0.000816997
0.000737413
0.000554874
0.000302735
0.000148619
7.70109e-05
0.000138322
0.000189595
0.000229522
0.000206629
0.000742596
0.000925951
0.000865243
0.000717023
0.000680602
0.000772633
0.000828907
0.00089087
0.000911911
0.000920424
0.000858123
0.000697669
0.000396263
0.000159952
6.2959e-05
0.000112909
0.000199156
0.000254673
0.000230745
0.000677167
0.00091413
0.000865243
0.00076343
0.000784712
0.000845041
0.000901078
0.000964496
0.000996058
0.00101537
0.000972516
0.000841191
0.000503012
0.000200481
6.2959e-05
0.000110683
0.000201468
0.000272653
0.000249611
0.000711815
0.00090911
0.000875521
0.000825505
0.000835441
0.000893429
0.00095062
0.00102425
0.00106728
0.00109634
0.00107321
0.000970118
0.000656037
0.00028246
8.49252e-05
0.000104029
0.000194423
0.000284778
0.000263322
0.000707433
0.000862847
0.000835881
0.000823527
0.000842056
0.000914646
0.000985172
0.00106609
0.00112336
0.00116112
0.00115695
0.00108161
0.000813242
0.000382122
0.000130866
7.41056e-05
0.000183825
0.000293173
0.000273195
0.000680627
0.000794711
0.00076962
0.000763708
0.000796629
0.000876334
0.000976067
0.00108892
0.00116198
0.00121042
0.00122231
0.00117305
0.000972584
0.000518844
0.00016784
4.42326e-05
0.000159132
0.000294188
0.000282927
0.000628415
0.000706714
0.000683687
0.000695392
0.000740071
0.000822427
0.000927802
0.00105524
0.00117173
0.00124438
0.00126964
0.00124284
0.00111087
0.000670871
0.000217196
3.08799e-05
0.000138133
0.000289314
0.000291143
0.000563762
0.000618238
0.000610879
0.00064295
0.000696673
0.000782345
0.000883259
0.00100967
0.0011385
0.00124965
0.0012986
0.00129277
0.00119242
0.000825276
0.000292938
3.08799e-05
0.0001287
0.000280103
0.000297289
0.000483168
0.000537375
0.000549396
0.000598565
0.000663143
0.000752903
0.000851368
0.000970528
0.00109909
0.00122497
0.00130777
0.00132467
0.00125437
0.000964057
0.000413971
6.3587e-05
0.000160997
0.000275183
0.000300546
0.000403346
0.000462391
0.000492283
0.000556601
0.000633213
0.000727752
0.000825765
0.000938808
0.00106165
0.00119255
0.00129547
0.00133946
0.00129824
0.00109003
0.000555509
0.000147675
0.000189985
0.00027542
0.000305571
0.000323597
0.000396306
0.000442845
0.000516951
0.000604496
0.000705427
0.00080464
0.000913213
0.00102862
0.0011567
0.00127429
0.0013413
0.00132718
0.00118823
0.000696983
0.000257033
0.000169816
0.000272662
0.000314323
0.000258771
0.000348039
0.000406799
0.000484121
0.000576891
0.000684435
0.000785815
0.000892416
0.00100187
0.00112273
0.00124629
0.00133139
0.00134426
0.00123259
0.000831745
0.000333093
0.000127717
0.000256381
0.000326231
0.000216049
0.000323027
0.00038689
0.000461858
0.000553456
0.000665408
0.000769512
0.000875317
0.000980652
0.00109402
0.00121626
0.00131638
0.00134719
0.001259
0.000930188
0.000380101
8.43171e-05
0.000232934
0.000340853
0.000200791
0.000317186
0.000380593
0.000450418
0.000535998
0.000648838
0.000755299
0.000861266
0.000963836
0.00107097
0.00118749
0.00129861
0.00134203
0.00127239
0.00101469
0.000428114
8.0135e-05
0.000223628
0.0003607
0.0001965
0.000317186
0.000380593
0.000448463
0.000526106
0.000636378
0.000743863
0.000850623
0.000951188
0.00105375
0.00116248
0.00127938
0.00133483
0.00128003
0.00108074
0.000498135
8.0135e-05
0.000247837
0.000386139
0.000205731
0.000324234
0.000384286
0.000448463
0.000522665
0.000628058
0.000735137
0.000842697
0.000941819
0.00104107
0.00114234
0.00126104
0.00132727
0.00128449
0.00113028
0.000579215
0.000128965
0.000297057
0.000416994
0.000212743
0.000337381
0.000393677
0.000453104
0.000522665
0.000624844
0.00073016
0.000838111
0.000936107
0.00103276
0.00112778
0.00124456
0.00132022
0.00128316
0.00115934
0.000655477
0.000209081
0.000345707
0.000454087
0.000228782
0.000353113
0.000405974
0.000462065
0.000525098
0.000624844
0.000728387
0.000835884
0.000933148
0.00102757
0.00111797
0.00123107
0.00131405
0.00127965
0.00116416
0.000714163
0.000294459
0.000375087
0.00049877
0.000238965
0.000369866
0.00042001
0.000473735
0.000531693
0.000625558
0.000728387
0.000835884
0.000933148
0.00102569
0.00111296
0.00122127
0.00130954
0.00127632
0.0011673
0.000761359
0.000371229
0.00036997
0.000522072
0.000256602
0.000386644
0.000434899
0.000487063
0.000541308
0.000630234
0.000730496
0.000836774
0.000933464
0.00102569
0.00111106
0.00121498
0.00130676
0.00127386
0.00116929
0.000792582
0.000434736
0.000363994
0.000558583
0.000266994
0.000403159
0.000449909
0.000501197
0.00055308
0.000637644
0.000735261
0.000839651
0.00093596
0.00102596
0.00111106
0.00121246
0.00130629
0.00127312
0.00117216
0.00081964
0.000476543
0.000363994
0.000585259
0.000285179
0.000420052
0.000465715
0.000516183
0.000566056
0.000647162
0.00074274
0.000845018
0.000940996
0.00102869
0.00111236
0.00121237
0.00130629
0.00127312
0.00117552
0.000832612
0.000494646
0.000365287
0.000637471
0.000294044
0.00043622
0.000481087
0.000531096
0.00057948
0.000657802
0.000751816
0.000851681
0.000947314
0.0010328
0.00111533
0.00121237
0.0013075
0.00127427
0.00117974
0.000852408
0.000506652
0.000372737
0.000676158
0.000313084
0.000453309
0.00049741
0.000546787
0.000594047
0.000669657
0.000762244
0.000859819
0.000955094
0.00103847
0.00112023
0.00121494
0.00131057
0.00127715
0.00118491
0.000859587
0.000530238
0.000390122
0.000751498
0.000318861
0.000468532
0.000512074
0.000560818
0.000607533
0.000681084
0.000772549
0.000868091
0.000962938
0.00104443
0.00112552
0.00121838
0.00131413
0.0012807
0.00118989
0.000875647
0.000545388
0.000412235
0.000793598
0.000340628
0.000485717
0.000529031
0.000576797
0.000623066
0.000694207
0.000784343
0.0008778
0.000972016
0.00105148
0.00113199
0.00122312
0.00131872
0.00128509
0.00119591
0.000885955
0.000567212
0.000429166
0.000890199
)
;

boundaryField
{
    leftWall
    {
        type            calculated;
        value           uniform 0;
    }
    rightWall
    {
        type            calculated;
        value           uniform 0;
    }
    lowerWall
    {
        type            calculated;
        value           uniform 0;
    }
    atmosphere
    {
        type            calculated;
        value           uniform 0;
    }
    defaultFaces
    {
        type            empty;
    }
}


// ************************************************************************* //
