/*--------------------------------*- C++ -*----------------------------------*\
| =========                 |                                                 |
| \\      /  F ield         | OpenFOAM: The Open Source CFD Toolbox           |
|  \\    /   O peration     | Version:  2012                                  |
|   \\  /    A nd           | Website:  www.openfoam.com                      |
|    \\/     M anipulation  |                                                 |
\*---------------------------------------------------------------------------*/
FoamFile
{
    version     2.0;
    format      ascii;
    class       volScalarField;
    location    "1";
    object      p;
}
// * * * * * * * * * * * * * * * * * * * * * * * * * * * * * * * * * * * * * //

dimensions      [1 -1 -2 0 0 0 0];


internalField   nonuniform List<scalar> 
2268
(
102328
102325
102322
102314
102311
102296
102295
102270
102273
102238
102248
102211
102232
102200
102232
102203
102239
102207
102228
102200
102213
102202
102208
102269
102266
102264
102255
102253
102237
102237
102212
102214
102179
102189
102151
102173
102140
102173
102144
102181
102146
102172
102138
102155
102142
102149
102211
102208
102206
102197
102195
102179
102179
102153
102156
102120
102129
102090
102112
102080
102113
102085
102125
102091
102110
102082
102093
102084
102089
102154
102150
102148
102139
102137
102121
102121
102095
102097
102059
102068
102027
102050
102018
102054
102027
102069
102029
102058
102014
102035
102021
102030
102097
102093
102091
102081
102080
102064
102064
102038
102039
102000
102008
101965
101988
101955
101992
101965
102018
101978
101992
101960
101970
101963
101969
102040
102036
102033
102023
102021
102006
102007
101980
101981
101939
101945
101899
101923
101892
101931
101911
101962
101916
101947
101885
101910
101897
101909
101984
101980
101976
101967
101965
101951
101952
101925
101925
101878
101883
101833
101857
101823
101867
101842
101926
101866
101876
101831
101839
101837
101845
101928
101924
101918
101908
101907
101893
101896
101868
101867
101817
101819
101763
101787
101763
101802
101800
101862
101818
101847
101752
101778
101770
101790
102122
101624
101695
101691
101846
101903
102026
101941
101887
101858
101831
101871
101857
101708
101662
101665
101714
101821
101891
101946
101533
101667
101637
101763
101819
101946
101868
101818
101792
101762
101799
101796
101633
101605
101621
101655
101756
101817
101712
101533
101631
101587
101693
101734
101861
101785
101748
101730
101709
101743
101688
101582
101575
101592
101638
101700
101756
101711
101519
101623
101562
101626
101660
101776
101708
101673
101664
101615
101633
101617
101526
101545
101571
101612
101664
101696
101710
101549
101612
101558
101606
101599
101698
101622
101628
101628
101608
101582
101553
101520
101535
101556
101600
101613
101639
101706
101527
101619
101558
101597
101572
101647
101605
101623
101621
101565
101500
101482
101486
101503
101529
101552
101560
101576
101712
101538
101611
101562
101593
101563
101612
101583
101610
101598
101546
101533
101450
101485
101491
101507
101519
101511
101516
101707
101568
101617
101567
101595
101566
101602
101584
101574
101547
101513
101450
101435
101466
101463
101476
101463
101456
101457
101843
101838
101831
101820
101819
101806
101811
101785
101782
101720
101716
101650
101677
101639
101701
101683
101895
101776
101778
101720
101694
101678
101679
101725
101716
101704
101690
101690
101682
101696
101671
101665
101593
101581
101501
101537
101566
101611
101718
101736
101762
101727
101636
101609
101586
101598
101617
101599
101576
101558
101557
101555
101582
101570
101569
101475
101476
101424
101470
101446
101571
101543
101734
101559
101574
101446
101491
101499
101498
101497
101464
101432
101405
101412
101426
101476
101480
101482
101428
101464
101403
101471
101420
101495
101515
101552
101478
101369
101246
101292
101421
101411
101412
101380
101347
101337
101344
101358
101400
101445
101460
101410
101420
101364
101380
101376
101393
101420
101412
101353
101268
101214
101218
101345
101320
101370
101338
101331
101330
101328
101332
101349
101375
101370
101351
101336
101325
101321
101334
101325
101347
101351
101328
101291
101254
101275
101320
101343
101347
101328
101327
101327
101326
101328
101328
101329
101330
101326
101325
101324
101325
101325
101323
101325
101327
101298
101294
101298
101310
101350
101335
101336
101328
101328
101327
101327
101327
101327
101326
101325
101325
101325
101324
101324
101325
101323
101326
101323
101323
101298
101334
101363
101362
101337
101333
101328
101327
101327
101326
101327
101326
101325
101325
101325
101325
101325
101325
101326
101324
101325
101324
101325
101325
101331
101352
101336
101333
101333
101328
101327
101327
101326
101326
101325
101325
101325
101325
101325
101325
101325
101325
101324
101325
101324
101325
101324
101330
101344
101331
101328
101330
101326
101326
101326
101325
101324
101324
101324
101324
101324
101324
101325
101325
101325
101324
101325
101324
101325
101324
101324
101327
101334
101323
101326
101325
101327
101325
101325
101324
101324
101324
101324
101324
101324
101324
101324
101325
101324
101325
101324
101324
101324
101324
101324
101327
101332
101331
101325
101325
101324
101324
101324
101324
101324
101324
101324
101324
101324
101324
101324
101324
101324
101324
101324
101324
101324
101323
101324
101323
101330
101324
101323
101324
101324
101324
101324
101324
101324
101324
101324
101324
101324
101324
101324
101324
101324
101324
101323
101324
101323
101323
101323
101323
101322
101324
101324
101324
101324
101324
101324
101324
101324
101324
101324
101324
101324
101324
101324
101323
101324
101323
101323
101323
101323
101323
101323
101323
101323
101323
101324
101323
101324
101323
101324
101323
101324
101323
101323
101323
101323
101323
101323
101323
101323
101323
101323
101323
101323
101323
101322
101323
101323
101323
101323
101323
101323
101323
101323
101323
101323
101323
101323
101323
101323
101323
101323
101323
101323
101323
101323
101323
101323
101323
101323
101322
101323
101323
101323
101323
101323
101323
101323
101323
101323
101323
101323
101323
101323
101323
101323
101323
101323
101323
101323
101326
101323
101324
101322
101323
101323
101323
101323
101323
101323
101323
101323
101323
101323
101323
101323
101323
101323
101323
101323
101323
101323
101322
101323
101322
101323
101322
101323
101322
101323
101322
101323
101322
101323
101322
101323
101322
101323
101322
101322
101322
101322
101322
101322
101322
101322
101323
101322
101323
101322
101323
101322
101323
101322
101323
101322
101323
101322
101322
101322
101322
101322
101322
101322
101322
101322
101322
101322
101322
101324
101322
101323
101322
101323
101322
101323
101322
101323
101322
101322
101322
101322
101322
101322
101322
101322
101322
101322
101322
101322
101322
101322
101324
101322
101323
101322
101323
101322
101323
101322
101322
101322
101322
101322
101322
101322
101322
101322
101322
101322
101322
101322
101322
101321
101321
101322
101322
101323
101322
101323
101322
101322
101322
101322
101322
101322
101322
101322
101322
101322
101321
101322
101321
101321
101321
101321
101321
101321
101322
101322
101322
101322
101322
101321
101322
101321
101322
101321
101322
101321
101321
101321
101321
101321
101321
101321
101321
101321
101321
101321
101321
101322
101322
101322
101321
101322
101321
101322
101321
101321
101321
101321
101321
101321
101321
101321
101321
101321
101321
101321
101321
101321
101321
101321
101322
101321
101322
101321
101322
101321
101321
101321
101321
101321
101321
101321
101321
101321
101321
101321
101321
101321
101321
101321
101321
101320
101320
101322
101321
101321
101321
101321
101321
101321
101321
101321
101321
101321
101321
101321
101321
101321
101320
101321
101320
101320
101320
101320
101320
101320
101321
101321
101321
101321
101321
101320
101320
101320
101320
101320
101320
101320
101320
101320
101320
101320
101320
101320
101320
101320
101320
101320
101320
101320
101320
101320
101320
101320
101320
101320
101320
101320
101320
101320
101320
101320
101320
101320
101320
101320
101320
101320
101320
101320
101320
101320
101320
101319
101319
101319
101319
101319
101319
101319
101320
101320
101320
101320
101320
101320
101320
101320
101320
101320
101320
101320
101320
101320
101320
101319
101318
101318
101318
101318
101319
101319
101319
101319
101319
101319
101320
101320
101320
101320
101320
101320
101320
101320
101319
101319
101319
101319
101318
101317
101317
101317
101317
101318
101319
101319
101319
101319
101319
101319
101319
101319
101319
101319
101319
101319
101319
101319
101319
101319
101319
101317
101317
101316
101316
101317
101318
101318
101319
101319
101319
101319
101319
101319
101319
101319
101319
101319
101319
101319
101319
101319
101319
101319
101317
101317
101316
101316
101317
101318
101318
101318
101319
101319
101319
101319
101319
101319
101319
101319
101319
101319
101319
101319
101319
101319
101319
101317
101317
101317
101317
101317
101318
101318
101318
101318
101319
101319
101319
101319
101319
101319
101319
101319
101319
101319
101319
101319
101319
101319
101318
101318
101317
101317
101317
101318
101318
101318
101318
101318
101318
101318
101318
101318
101319
101319
101319
101319
101319
101319
101319
101319
101319
101318
101318
101318
101318
101318
101318
101318
101318
101318
101318
101318
101318
101318
101318
101318
101318
101318
101318
101318
101318
101318
101318
101318
101318
101318
101318
101318
101318
101318
101318
101318
101318
101318
101318
101318
101318
101318
101318
101318
101318
101318
101318
101318
101318
101318
101318
101318
101318
101318
101318
101318
101318
101318
101318
101318
101318
101318
101318
101318
101318
101318
101318
101318
101318
101318
101318
101318
101318
101318
101318
101318
101318
101318
101318
101318
101318
101318
101318
101318
101318
101318
101318
101318
101318
101318
101318
101318
101318
101318
101318
101318
101318
101318
101318
101318
101318
101318
101318
101318
101318
101318
101318
101318
101318
101318
101318
101318
101318
101318
101318
101318
101318
101318
101318
101318
101672
101652
101652
101597
101588
101567
101579
101548
101523
101493
101508
101492
101434
101419
101432
101414
101369
101364
101360
101357
101340
101339
101339
101337
101340
101337
101337
101337
101334
101334
101334
101334
101335
101334
101335
101335
101332
101332
101331
101330
101327
101326
101326
101324
101332
101328
101326
101326
101323
101323
101323
101323
101323
101323
101323
101323
101323
101323
101323
101323
101323
101323
101323
101323
101323
101323
101323
101323
101323
101323
101323
101323
101322
101322
101322
101322
101322
101322
101322
101322
101322
101322
101322
101322
101322
101322
101322
101322
101321
101321
101321
101321
101321
101321
101321
101321
101321
101321
101321
101321
101321
101321
101321
101321
101320
101320
101320
101320
101320
101320
101320
101320
101320
101320
101320
101320
101320
101320
101320
101320
101320
101320
101320
101320
101319
101319
101319
101319
101319
101319
101319
101319
101319
101319
101319
101319
101319
101319
101319
101319
101319
101319
101319
101319
101319
101319
101319
101319
101318
101318
101318
101318
101318
101318
101318
101318
101318
101318
101318
101318
101318
101318
101318
101318
101318
101318
101318
101318
101672
101582
101618
101554
101589
101563
101592
101555
101516
101468
101458
101429
101431
101440
101428
101415
101402
101387
101389
101603
101579
101581
101551
101582
101554
101523
101491
101419
101382
101391
101403
101378
101365
101358
101346
101338
101335
101338
101574
101511
101538
101479
101550
101484
101401
101401
101374
101354
101354
101341
101334
101333
101332
101331
101331
101331
101331
101430
101414
101394
101389
101395
101377
101373
101393
101385
101367
101331
101344
101340
101337
101331
101328
101329
101328
101329
101360
101350
101346
101359
101356
101334
101333
101351
101353
101349
101343
101331
101332
101333
101330
101329
101329
101329
101329
101335
101337
101335
101338
101334
101329
101330
101329
101330
101327
101327
101327
101327
101328
101327
101326
101326
101326
101327
101338
101337
101340
101340
101332
101328
101326
101326
101327
101326
101326
101326
101326
101326
101326
101325
101325
101327
101327
101333
101334
101330
101329
101326
101327
101327
101327
101327
101327
101327
101326
101326
101325
101325
101324
101324
101325
101326
101333
101332
101331
101329
101325
101325
101326
101326
101326
101326
101326
101326
101326
101325
101325
101324
101325
101325
101326
101327
101325
101326
101325
101325
101325
101326
101326
101326
101326
101326
101326
101326
101325
101325
101325
101325
101325
101326
101325
101325
101325
101325
101324
101325
101325
101325
101325
101325
101325
101325
101325
101325
101325
101325
101325
101325
101325
101324
101326
101326
101325
101325
101325
101325
101325
101325
101325
101325
101325
101325
101325
101325
101325
101325
101325
101325
101323
101324
101325
101325
101324
101325
101325
101325
101325
101325
101325
101325
101325
101325
101325
101325
101325
101325
101325
101323
101323
101324
101324
101324
101324
101325
101325
101325
101325
101325
101325
101325
101325
101325
101325
101325
101325
101325
101323
101322
101323
101324
101324
101324
101324
101324
101324
101324
101324
101324
101324
101324
101324
101324
101324
101324
101324
101323
101323
101323
101324
101324
101324
101324
101324
101324
101324
101324
101324
101324
101324
101324
101324
101324
101324
101324
101323
101323
101323
101323
101323
101324
101324
101324
101324
101324
101324
101324
101324
101324
101324
101324
101324
101324
101324
101323
101323
101323
101323
101323
101323
101323
101323
101324
101324
101324
101324
101324
101324
101324
101324
101324
101324
101324
101322
101322
101323
101323
101323
101323
101323
101323
101323
101323
101323
101323
101323
101323
101323
101323
101323
101323
101323
101322
101322
101322
101322
101322
101323
101323
101323
101323
101323
101323
101323
101323
101323
101323
101323
101323
101323
101323
101322
101322
101322
101322
101322
101322
101322
101322
101322
101323
101323
101323
101323
101323
101323
101323
101323
101323
101323
101322
101322
101322
101322
101322
101322
101322
101322
101322
101322
101322
101322
101322
101323
101323
101323
101323
101323
101323
101321
101321
101321
101321
101321
101321
101322
101322
101322
101322
101322
101322
101322
101322
101322
101322
101322
101322
101322
101321
101321
101321
101321
101321
101321
101321
101321
101322
101322
101322
101322
101322
101322
101322
101322
101322
101322
101322
101321
101321
101321
101321
101321
101321
101321
101321
101321
101321
101322
101322
101322
101322
101322
101322
101322
101322
101322
101320
101321
101321
101321
101321
101321
101321
101321
101321
101321
101321
101321
101322
101322
101322
101322
101322
101322
101322
101320
101320
101320
101320
101320
101320
101321
101321
101321
101321
101321
101321
101321
101321
101321
101322
101322
101322
101322
101320
101320
101320
101320
101320
101320
101320
101320
101320
101321
101321
101321
101321
101321
101321
101321
101321
101321
101321
101320
101320
101320
101320
101320
101320
101320
101320
101320
101320
101320
101321
101321
101321
101321
101321
101321
101321
101321
101320
101320
101320
101320
101320
101320
101320
101320
101320
101320
101320
101320
101321
101321
101321
101321
101321
101321
101321
101320
101320
101320
101320
101320
101320
101320
101320
101320
101320
101320
101320
101320
101320
101321
101321
101321
101321
101321
101319
101319
101319
101319
101319
101319
101320
101320
101320
101320
101320
101320
101320
101320
101320
101320
101321
101320
101321
101319
101319
101319
101319
101319
101319
101319
101319
101319
101320
101320
101320
101320
101320
101320
101320
101320
101320
101320
101319
101319
101319
101319
101319
101319
101319
101319
101319
101319
101319
101320
101320
101320
101320
101320
101320
101320
101320
101319
101319
101319
101319
101319
101319
101319
101319
101319
101319
101319
101319
101319
101320
101320
101320
101320
101320
101320
101319
101319
101319
101319
101319
101319
101319
101319
101319
101319
101319
101319
101319
101319
101319
101320
101320
101320
101320
101319
101319
101319
101319
101319
101319
101319
101319
101319
101319
101319
101319
101319
101319
101319
101319
101319
101319
101319
101318
101318
101318
101318
101318
101318
101318
101318
101318
101319
101319
101319
101319
101319
101319
101319
101319
101319
101319
101318
101318
101318
101318
101318
101318
101318
101318
101318
101318
101318
101318
101318
101319
101319
101319
101319
101319
101319
101318
101318
101318
101318
101318
101318
101318
101318
101318
101318
101318
101318
101318
101318
101318
101318
101318
101319
101319
101318
101318
101318
101318
101318
101318
101318
101318
101318
101318
101318
101318
101318
101318
101318
101318
101318
101318
101318
101318
101318
101318
101318
101318
101318
101318
101318
101318
101318
101318
101318
101318
101318
101318
101318
101318
101318
101318
)
;

boundaryField
{
    leftWall
    {
        type            zeroGradient;
    }
    rightWall
    {
        type            zeroGradient;
    }
    lowerWall
    {
        type            zeroGradient;
    }
    atmosphere
    {
        type            fixedValue;
        value           uniform 101325;
    }
    defaultFaces
    {
        type            empty;
    }
}


// ************************************************************************* //
