/*--------------------------------*- C++ -*----------------------------------*\
| =========                 |                                                 |
| \\      /  F ield         | OpenFOAM: The Open Source CFD Toolbox           |
|  \\    /   O peration     | Version:  2012                                  |
|   \\  /    A nd           | Website:  www.openfoam.com                      |
|    \\/     M anipulation  |                                                 |
\*---------------------------------------------------------------------------*/
FoamFile
{
    version     2.0;
    format      ascii;
    class       volScalarField;
    location    "1";
    object      p_rgh;
}
// * * * * * * * * * * * * * * * * * * * * * * * * * * * * * * * * * * * * * //

dimensions      [1 -1 -2 0 0 0 0];


internalField   nonuniform List<scalar> 
2268
(
102357
102354
102352
102343
102341
102325
102325
102300
102302
102268
102278
102240
102262
102229
102262
102233
102269
102236
102258
102230
102243
102232
102238
102357
102354
102352
102343
102341
102326
102325
102300
102302
102267
102277
102239
102261
102228
102261
102233
102270
102235
102260
102227
102243
102230
102237
102358
102355
102353
102344
102342
102327
102326
102301
102303
102267
102276
102237
102259
102227
102260
102232
102272
102239
102257
102229
102240
102231
102237
102360
102356
102354
102345
102343
102327
102327
102301
102303
102266
102274
102233
102256
102224
102260
102233
102275
102235
102264
102220
102241
102227
102236
102362
102358
102355
102346
102344
102329
102329
102303
102304
102264
102273
102230
102253
102219
102257
102230
102283
102242
102257
102225
102234
102228
102234
102363
102360
102356
102347
102345
102330
102331
102304
102305
102262
102269
102222
102246
102216
102255
102235
102285
102239
102271
102209
102234
102220
102233
102367
102363
102359
102349
102348
102333
102334
102307
102308
102261
102266
102215
102240
102206
102250
102224
102309
102249
102257
102213
102222
102219
102227
102369
102365
102360
102350
102348
102334
102337
102310
102309
102258
102260
102204
102229
102204
102244
102240
102292
102203
102179
102121
102219
102212
102231
102144
101647
101717
101716
101874
101932
102054
101970
101916
101887
101858
101897
101883
101736
101691
101693
101742
101850
101920
102006
101553
101684
101692
101846
101905
102033
101955
101905
101879
101849
101874
101877
101702
101654
101660
101696
101829
101904
101807
101537
101644
101673
101830
101878
102006
101929
101893
101874
101853
101884
101826
101662
101610
101623
101669
101792
101901
101848
101524
101629
101589
101735
101833
101979
101911
101855
101834
101792
101835
101818
101701
101716
101724
101704
101834
101899
101878
101551
101613
101559
101610
101713
101958
101813
101696
101678
101661
101785
101812
101779
101794
101783
101811
101863
101901
101749
101539
101630
101562
101600
101619
101873
101689
101646
101646
101607
101552
101733
101799
101820
101801
101839
101879
101896
101763
101690
101719
101568
101595
101580
101785
101649
101673
101821
101774
101610
101536
101635
101751
101813
101892
101887
101891
101963
101836
101715
101570
101598
101574
101743
101676
101774
101865
101831
101662
101503
101534
101581
101839
101868
101864
101858
102377
102371
102365
102353
102352
102340
102344
102318
102316
102254
102249
102182
102206
102161
102167
102085
102174
101946
101931
101873
101989
102179
102211
102384
102375
102362
102349
102349
102340
102354
102330
102322
102232
102163
101972
101936
101906
101732
101751
101768
101930
102041
101892
101764
101818
102219
102400
102383
102360
102342
102341
102339
102355
102342
102303
102016
101697
101514
101520
101471
101587
101588
102128
102272
102325
102197
101983
101775
102115
102405
102368
102295
102164
102070
102017
102102
102217
102098
101592
101529
101467
101509
101422
101514
101895
102410
102348
102239
102116
102079
101821
102092
102440
102241
101681
101447
101475
101512
101715
101839
101665
101597
101629
101558
101440
101378
101442
102074
102402
102343
102258
102192
101960
102008
102273
102458
101715
101379
101368
101348
101353
101395
101516
101622
101602
101546
101367
101332
101336
101354
101719
102186
102438
102401
102337
102272
102375
102447
102455
101543
101329
101334
101328
101330
101336
101386
101414
101360
101326
101326
101327
101328
101328
101327
101434
102054
102524
102527
102540
102579
102299
102494
101447
101330
101331
101329
101329
101329
101330
101327
101327
101326
101326
101326
101328
101326
101327
101325
101407
102299
102684
102704
102221
101504
102608
101458
101329
101329
101328
101330
101331
101328
101327
101327
101327
101327
101327
101330
101328
101328
101326
101332
101573
102462
102610
101625
101340
102749
101514
101329
101329
101330
101332
101332
101329
101327
101327
101327
101327
101328
101331
101329
101327
101326
101327
101331
101570
102107
102014
101383
102906
101662
101328
101328
101328
101330
101331
101329
101327
101327
101327
101327
101327
101329
101327
101327
101326
101327
101326
101327
101465
101791
101780
103013
101723
101329
101327
101328
101327
101327
101327
101327
101327
101327
101327
101327
101327
101326
101327
101326
101327
101326
101327
101331
101438
101626
102895
101570
101328
101327
101327
101326
101327
101326
101327
101327
101327
101327
101327
101327
101326
101327
101326
101327
101326
101326
101326
101326
101326
101692
101369
101326
101327
101327
101327
101327
101327
101327
101327
101327
101327
101327
101327
101327
101327
101326
101327
101326
101326
101326
101326
101326
101328
101327
101327
101326
101327
101327
101327
101326
101327
101327
101327
101327
101327
101327
101327
101327
101326
101327
101326
101326
101326
101326
101326
101326
101326
101326
101326
101327
101326
101327
101326
101327
101326
101327
101327
101327
101327
101326
101327
101326
101326
101326
101326
101326
101326
101326
101326
101326
101326
101326
101327
101326
101327
101326
101327
101326
101327
101326
101327
101327
101326
101326
101326
101326
101326
101326
101326
101326
101326
101378
101326
101326
101326
101326
101326
101327
101326
101327
101326
101327
101326
101327
101326
101326
101326
101326
101326
101326
101326
101326
101326
101326
101764
101326
101328
101326
101327
101326
101327
101326
101327
101326
101327
101326
101326
101326
101326
101326
101326
101326
101326
101326
101326
101326
101326
101827
101326
101327
101326
101327
101326
101327
101326
101327
101326
101327
101326
101326
101326
101326
101326
101326
101326
101326
101326
101326
101326
101326
101848
101327
101327
101326
101327
101326
101327
101326
101327
101326
101327
101326
101326
101326
101326
101326
101326
101326
101326
101326
101326
101326
101326
101823
101329
101327
101326
101327
101326
101327
101326
101327
101326
101326
101326
101326
101326
101326
101326
101326
101326
101326
101326
101326
101326
101326
101415
101328
101327
101326
101327
101326
101327
101326
101327
101326
101326
101326
101326
101326
101326
101326
101326
101326
101326
101326
101326
101326
101326
101327
101329
101327
101326
101327
101326
101327
101326
101326
101326
101326
101326
101326
101326
101326
101326
101326
101326
101326
101326
101326
101326
101326
101326
101327
101327
101326
101327
101326
101327
101326
101326
101326
101326
101326
101326
101326
101326
101326
101326
101326
101326
101326
101326
101326
101325
101327
101326
101327
101326
101327
101326
101326
101326
101326
101326
101326
101326
101326
101326
101326
101326
101326
101326
101326
101326
101325
101325
101325
101327
101326
101327
101326
101326
101326
101326
101326
101326
101326
101326
101326
101326
101326
101326
101326
101326
101326
101326
101325
101325
101325
101325
101327
101326
101326
101326
101326
101326
101326
101326
101326
101326
101326
101326
101326
101326
101326
101326
101326
101325
101325
101325
101325
101325
101325
101326
101326
101326
101326
101326
101326
101326
101325
101326
101325
101326
101325
101326
101325
101326
101325
101325
101325
101325
101325
101325
101325
101325
101326
101326
101325
101325
101325
101325
101325
101325
101325
101325
101325
101325
101325
101325
101325
101325
101325
101325
101325
101325
101325
101325
101325
101325
101325
101325
101325
101325
101325
101325
101325
101325
101325
101325
101325
101325
101325
101325
101325
101325
101325
101325
101325
101325
101325
101325
101324
101324
101324
101324
101324
101324
101325
101325
101325
101325
101325
101325
101325
101325
101325
101325
101325
101325
101325
101325
101325
101325
101325
101324
101323
101323
101323
101324
101324
101324
101325
101325
101325
101325
101325
101325
101325
101325
101325
101325
101325
101325
101325
101325
101325
101325
101323
101323
101322
101322
101323
101324
101324
101325
101325
101325
101325
101325
101325
101325
101325
101325
101325
101325
101325
101325
101325
101325
101325
101323
101323
101322
101323
101323
101324
101324
101325
101325
101325
101325
101325
101325
101325
101325
101325
101325
101325
101325
101325
101325
101325
101325
101324
101323
101323
101323
101324
101324
101324
101325
101325
101325
101325
101325
101325
101325
101325
101325
101325
101325
101325
101325
101325
101325
101325
101324
101324
101324
101324
101324
101324
101325
101325
101325
101325
101325
101325
101325
101325
101325
101325
101325
101325
101325
101325
101325
101325
101325
101325
101325
101324
101325
101325
101325
101325
101325
101325
101325
101325
101325
101325
101325
101325
101325
101325
101325
101325
101325
101325
101325
101325
101325
101325
101325
101325
101325
101325
101325
101325
101325
101325
101325
101325
101325
101325
101325
101325
101325
101325
101325
101325
101325
101325
101325
101325
101325
101325
101325
101325
101325
101325
101325
101325
101325
101325
101325
101325
101325
101325
101325
101325
101325
101325
101325
101325
101325
101325
101325
101325
101325
101325
101325
101325
101325
101325
101325
101325
101325
101325
101325
101325
101325
101325
101325
101325
101325
101325
101325
101325
101325
101325
101325
101325
101325
101325
101325
101325
101325
101325
101325
101325
101325
101325
101325
101325
101325
101325
101325
101325
101325
101325
101325
101325
102203
102183
102154
101999
102244
102156
102142
102093
102141
102127
102215
102126
102296
102284
102252
102048
102353
102348
102137
101846
102443
101976
101511
101401
101581
101392
101340
101341
101340
101340
101337
101337
101341
101341
101348
101385
101343
101348
101386
101428
101612
101413
101411
101431
101609
101493
101398
101420
101326
101333
101326
101326
101326
101326
101326
101326
101326
101326
101326
101326
101326
101326
101326
101326
101326
101326
101326
101326
101326
101326
101326
101326
101326
101326
101326
101326
101326
101326
101326
101326
101326
101326
101326
101326
101326
101326
101326
101326
101326
101326
101326
101326
101325
101325
101325
101325
101325
101325
101325
101325
101325
101325
101325
101325
101325
101325
101325
101325
101325
101325
101325
101325
101325
101325
101325
101325
101325
101325
101325
101325
101325
101325
101325
101325
101325
101325
101325
101325
101325
101325
101325
101325
101325
101325
101325
101325
101325
101325
101325
101325
101325
101325
101325
101325
101325
101325
101325
101325
101325
101325
101325
101325
101325
101325
101325
101325
101325
101325
101325
101325
101325
101325
101325
101325
101325
101325
101325
101325
102074
101723
101711
101607
101597
101570
101847
101669
101770
101853
101843
101778
101551
101634
101832
101875
101836
101728
101725
101974
101706
101714
101663
101592
101703
101957
101645
101520
101693
101737
101583
101634
101651
101634
101535
101424
101390
101412
101994
101902
102162
102055
101987
102100
101926
101478
101429
101456
101489
101394
101337
101335
101333
101332
101332
101332
101332
101938
102106
102105
102033
102039
101990
101925
101606
101449
101448
101487
101451
101361
101341
101334
101330
101330
101330
101330
101674
101511
101403
101386
101425
101356
101428
101754
101815
101810
101622
101412
101362
101358
101356
101337
101330
101330
101330
101363
101339
101338
101347
101337
101331
101331
101330
101373
101329
101329
101329
101340
101365
101363
101348
101328
101328
101329
101341
101340
101353
101451
101414
101336
101328
101328
101328
101328
101328
101328
101328
101330
101352
101351
101328
101328
101328
101343
101361
101420
101460
101455
101334
101328
101329
101329
101329
101328
101328
101328
101327
101326
101331
101327
101327
101327
101420
101462
101461
101459
101360
101328
101328
101328
101328
101328
101328
101328
101328
101327
101327
101327
101327
101327
101328
101425
101340
101360
101327
101327
101327
101328
101328
101328
101328
101328
101328
101328
101328
101327
101327
101327
101328
101328
101373
101328
101328
101327
101326
101327
101327
101328
101328
101328
101328
101328
101328
101328
101328
101328
101328
101328
101328
101379
101343
101328
101328
101327
101327
101328
101328
101328
101328
101328
101328
101328
101328
101328
101328
101328
101328
101328
101326
101345
101338
101327
101327
101327
101327
101327
101328
101328
101328
101328
101328
101328
101328
101328
101328
101328
101327
101330
101341
101333
101327
101327
101327
101327
101327
101328
101328
101328
101328
101327
101328
101327
101328
101327
101327
101327
101326
101325
101327
101327
101327
101327
101327
101327
101327
101327
101327
101327
101327
101327
101327
101327
101327
101327
101327
101326
101326
101326
101327
101327
101327
101327
101327
101327
101327
101327
101327
101327
101327
101327
101327
101327
101327
101327
101326
101326
101326
101327
101327
101327
101327
101327
101327
101327
101327
101327
101327
101327
101327
101327
101327
101327
101327
101326
101326
101326
101326
101327
101327
101327
101327
101327
101327
101327
101327
101327
101327
101327
101327
101327
101327
101327
101326
101326
101326
101326
101326
101327
101327
101327
101327
101327
101327
101327
101327
101327
101327
101327
101327
101327
101327
101326
101326
101326
101326
101326
101326
101326
101327
101327
101327
101327
101327
101327
101327
101327
101327
101327
101327
101327
101326
101326
101326
101326
101326
101326
101326
101326
101326
101327
101327
101327
101327
101327
101327
101327
101327
101327
101327
101326
101326
101326
101326
101326
101326
101326
101326
101326
101326
101326
101327
101327
101327
101327
101327
101327
101327
101327
101326
101326
101326
101326
101326
101326
101326
101326
101326
101326
101326
101326
101326
101327
101327
101327
101327
101327
101327
101325
101325
101325
101325
101326
101326
101326
101326
101326
101326
101326
101326
101326
101326
101327
101327
101327
101327
101327
101325
101325
101325
101325
101325
101325
101326
101326
101326
101326
101326
101326
101326
101326
101327
101327
101327
101327
101327
101325
101325
101325
101325
101325
101325
101325
101326
101326
101326
101326
101326
101326
101326
101326
101326
101326
101327
101327
101325
101325
101325
101325
101325
101325
101325
101326
101326
101326
101326
101326
101326
101326
101326
101326
101326
101326
101326
101325
101325
101325
101325
101325
101325
101325
101325
101326
101326
101326
101326
101326
101326
101326
101327
101326
101326
101326
101325
101325
101325
101325
101325
101325
101325
101325
101325
101326
101326
101326
101326
101326
101326
101326
101326
101326
101326
101325
101325
101325
101325
101325
101325
101325
101325
101325
101326
101326
101326
101326
101326
101326
101326
101326
101326
101326
101325
101325
101325
101325
101325
101325
101325
101325
101325
101325
101326
101326
101326
101326
101326
101326
101326
101326
101326
101325
101325
101325
101325
101325
101325
101325
101325
101325
101325
101326
101326
101326
101326
101326
101326
101326
101326
101326
101325
101325
101325
101325
101325
101325
101325
101325
101325
101325
101326
101326
101326
101326
101326
101326
101326
101326
101326
101325
101325
101325
101325
101325
101325
101325
101325
101325
101325
101325
101326
101326
101326
101326
101326
101326
101326
101326
101325
101325
101325
101325
101325
101325
101325
101325
101325
101325
101325
101326
101326
101326
101326
101326
101326
101326
101326
101325
101325
101325
101325
101325
101325
101325
101325
101325
101325
101325
101325
101326
101326
101326
101326
101326
101326
101326
101325
101325
101325
101325
101325
101325
101325
101325
101325
101325
101325
101325
101325
101326
101326
101326
101326
101326
101326
101325
101325
101325
101325
101325
101325
101325
101325
101325
101325
101325
101325
101325
101326
101326
101326
101326
101326
101326
101325
101325
101325
101325
101325
101325
101325
101325
101325
101325
101325
101325
101325
101325
101325
101326
101326
101326
101326
101325
101325
101325
101325
101325
101325
101325
101325
101325
101325
101325
101325
101325
101325
101325
101325
101325
101326
101326
101325
101325
101325
101325
101325
101325
101325
101325
101325
101325
101325
101325
101325
101325
101325
101325
101325
101325
101325
101325
101325
101325
101325
101325
101325
101325
101325
101325
101325
101325
101325
101325
101325
101325
101325
101325
101325
101325
)
;

boundaryField
{
    leftWall
    {
        type            zeroGradient;
    }
    rightWall
    {
        type            zeroGradient;
    }
    lowerWall
    {
        type            zeroGradient;
    }
    atmosphere
    {
        type            fixedValue;
        value           uniform 101325;
    }
    defaultFaces
    {
        type            empty;
    }
}


// ************************************************************************* //
