/*--------------------------------*- C++ -*----------------------------------*\
| =========                 |                                                 |
| \\      /  F ield         | OpenFOAM: The Open Source CFD Toolbox           |
|  \\    /   O peration     | Version:  2012                                  |
|   \\  /    A nd           | Website:  www.openfoam.com                      |
|    \\/     M anipulation  |                                                 |
\*---------------------------------------------------------------------------*/
FoamFile
{
    version     2.0;
    format      ascii;
    class       surfaceScalarField;
    location    "1";
    object      phi;
}
// * * * * * * * * * * * * * * * * * * * * * * * * * * * * * * * * * * * * * //

dimensions      [0 3 -1 0 0 0 0];
oriented        oriented;


internalField   nonuniform List<scalar> 
4432
(
6.84087e-07
-6.84088e-07
1.16492e-06
-4.80836e-07
1.29996e-06
-1.3504e-07
1.0493e-06
2.5066e-07
5.62968e-07
4.86331e-07
-1.20955e-07
6.83922e-07
-6.64782e-07
5.43825e-07
-9.309e-07
2.66117e-07
-6.72087e-07
-2.58815e-07
-2.08252e-08
-6.51264e-07
1.02672e-06
-1.04755e-06
2.02158e-06
-9.94862e-07
3.14581e-06
-1.12424e-06
3.88051e-06
-7.34702e-07
4.66176e-06
-7.81257e-07
5.31614e-06
-6.54389e-07
6.16906e-06
-8.52925e-07
6.9853e-06
-8.16248e-07
7.29127e-06
-3.0598e-07
6.79771e-06
4.93562e-07
4.89367e-06
1.90403e-06
2.83044e-06
2.06322e-06
2.83043e-06
7.24928e-07
-1.40902e-06
1.20765e-06
-9.63556e-07
1.35409e-06
-2.81481e-07
1.12644e-06
4.78302e-07
6.33017e-07
9.79756e-07
-1.11468e-07
1.4284e-06
-7.26247e-07
1.1586e-06
-1.02733e-06
5.67201e-07
-7.79795e-07
-5.06355e-07
-8.82587e-08
-1.3428e-06
1.00895e-06
-2.14476e-06
2.02613e-06
-2.01205e-06
3.17767e-06
-2.27578e-06
3.93476e-06
-1.49179e-06
4.76153e-06
-1.60804e-06
5.46789e-06
-1.36075e-06
6.37824e-06
-1.76328e-06
7.20718e-06
-1.64519e-06
7.51942e-06
-6.18229e-07
6.90343e-06
1.10955e-06
5.00339e-06
3.80406e-06
2.72625e-06
4.34036e-06
5.55666e-06
7.68035e-07
-2.17705e-06
1.35448e-06
-1.55e-06
1.52797e-06
-4.54969e-07
1.21821e-06
7.8806e-07
6.08653e-07
1.58931e-06
-2.45377e-07
2.28243e-06
-9.45056e-07
1.85828e-06
-1.26051e-06
8.82657e-07
-9.3545e-07
-8.31422e-07
-1.96001e-07
-2.08225e-06
9.45557e-07
-3.28632e-06
2.02668e-06
-3.09318e-06
3.26787e-06
-3.51697e-06
4.03593e-06
-2.25985e-06
4.84997e-06
-2.42209e-06
5.37491e-06
-1.8857e-06
6.24518e-06
-2.63356e-06
7.40965e-06
-2.80967e-06
7.91721e-06
-1.12579e-06
7.47181e-06
1.55494e-06
5.61278e-06
5.66308e-06
3.06255e-06
6.89058e-06
8.61919e-06
9.40075e-07
-3.11713e-06
1.62556e-06
-2.23549e-06
1.85848e-06
-6.87889e-07
1.54561e-06
1.10094e-06
8.22711e-07
2.3122e-06
-2.32595e-07
3.33774e-06
-1.13308e-06
2.75876e-06
-1.56449e-06
1.31407e-06
-1.27753e-06
-1.11838e-06
-4.5593e-07
-2.90385e-06
8.14923e-07
-4.55718e-06
2.02271e-06
-4.30097e-06
3.33099e-06
-4.82526e-06
4.08407e-06
-3.01294e-06
4.93242e-06
-3.27044e-06
5.67353e-06
-2.62681e-06
6.74112e-06
-3.70116e-06
7.8368e-06
-3.90536e-06
8.55081e-06
-1.83981e-06
8.08714e-06
2.01861e-06
6.00069e-06
7.74952e-06
2.90759e-06
9.98367e-06
1.15268e-05
1.03616e-06
-4.15329e-06
1.88069e-06
-3.08002e-06
2.1307e-06
-9.37895e-07
1.69302e-06
1.53861e-06
7.9231e-07
3.21291e-06
-4.68423e-07
4.59847e-06
-1.54368e-06
3.83402e-06
-2.02723e-06
1.79761e-06
-1.61547e-06
-1.53015e-06
-6.71632e-07
-3.84768e-06
7.16236e-07
-5.94505e-06
2.04526e-06
-5.63e-06
3.50906e-06
-6.28907e-06
4.33737e-06
-3.84126e-06
5.15214e-06
-4.08522e-06
5.36917e-06
-2.84384e-06
6.29909e-06
-4.6311e-06
8.06015e-06
-5.66643e-06
9.42188e-06
-3.20154e-06
9.6382e-06
1.80228e-06
7.55425e-06
9.83347e-06
4.12071e-06
1.34172e-05
1.56474e-05
1.37303e-06
-5.52632e-06
2.34984e-06
-4.05684e-06
2.68191e-06
-1.26997e-06
2.17705e-06
2.04348e-06
1.05859e-06
4.33136e-06
-5.16147e-07
6.17321e-06
-1.94417e-06
5.26204e-06
-2.64955e-06
2.50299e-06
-2.30861e-06
-1.87109e-06
-1.18338e-06
-4.97292e-06
4.77401e-07
-7.60583e-06
2.05255e-06
-7.20515e-06
3.61388e-06
-7.8504e-06
4.37805e-06
-4.60543e-06
5.14827e-06
-4.85545e-06
5.75082e-06
-3.44641e-06
6.75016e-06
-5.63045e-06
8.08093e-06
-6.99721e-06
9.67131e-06
-4.79193e-06
9.69956e-06
1.77402e-06
7.31511e-06
1.22179e-05
3.6408e-06
1.70915e-05
1.92882e-05
1.68434e-06
-7.21066e-06
3.03198e-06
-5.40447e-06
3.42242e-06
-1.66041e-06
2.75823e-06
2.70767e-06
1.29423e-06
5.79537e-06
-7.79184e-07
8.24662e-06
-2.58058e-06
7.06344e-06
-3.39237e-06
3.31478e-06
-2.86226e-06
-2.40121e-06
-1.48136e-06
-6.35382e-06
3.67715e-07
-9.45491e-06
2.07484e-06
-8.91228e-06
3.9252e-06
-9.70076e-06
4.89021e-06
-5.57045e-06
5.3111e-06
-5.27635e-06
4.2296e-06
-2.36491e-06
4.68331e-06
-6.08418e-06
6.81479e-06
-9.12879e-06
8.39729e-06
-6.3749e-06
9.19067e-06
9.80527e-07
7.19932e-06
1.42092e-05
3.74522e-06
2.05456e-05
2.30334e-05
1.88789e-06
-9.09855e-06
3.4068e-06
-6.92338e-06
4.08645e-06
-2.34007e-06
3.35038e-06
3.44373e-06
1.59136e-06
7.55439e-06
-9.01595e-07
1.07396e-05
-3.32465e-06
9.48649e-06
-4.53345e-06
4.52358e-06
-3.99568e-06
-2.93898e-06
-2.18972e-06
-8.15978e-06
1.55436e-07
-1.18001e-05
2.22496e-06
-1.09818e-05
3.88994e-06
-1.13658e-05
3.97583e-06
-5.65635e-06
3.87437e-06
-5.17499e-06
3.63962e-06
-2.13083e-06
3.14908e-06
-5.59846e-06
3.44406e-06
-9.44937e-06
5.05059e-06
-8.01871e-06
5.22512e-06
7.88904e-07
3.59538e-06
1.5839e-05
2.04674e-06
2.20942e-05
2.50802e-05
-8.86719e-05
8.85774e-05
-0.00010856
1.98953e-05
-0.000104973
-3.59837e-06
-8.75421e-05
-1.74235e-05
-6.59686e-05
-2.15732e-05
-3.91376e-05
-2.68299e-05
-1.17581e-05
-2.73796e-05
7.61787e-06
-1.93755e-05
1.74763e-05
-9.85808e-06
2.23733e-05
-4.89679e-06
1.97007e-05
2.67307e-06
-4.16171e-06
2.38613e-05
-3.56726e-05
3.15067e-05
-5.26689e-05
1.69953e-05
-5.8976e-05
6.3071e-06
-5.70169e-05
-1.95867e-06
-4.35729e-05
-1.34426e-05
-2.16646e-05
-2.1908e-05
-2.16647e-05
-6.22966e-05
0.000150861
-7.8977e-05
3.66539e-05
-7.79025e-05
-4.69552e-06
-6.1943e-05
-3.33726e-05
-5.09541e-05
-3.25622e-05
-3.35417e-05
-4.42415e-05
-9.88305e-06
-5.10385e-05
6.25131e-06
-3.55094e-05
1.35092e-05
-1.71158e-05
1.58837e-05
-7.27106e-06
1.48137e-05
3.7432e-06
-9.03672e-07
3.95779e-05
-2.58324e-05
5.64325e-05
-4.14562e-05
3.26153e-05
-4.78801e-05
1.27337e-05
-4.48604e-05
-4.97859e-06
-3.04377e-05
-2.78567e-05
-1.28024e-05
-3.95438e-05
-3.44672e-05
-3.17532e-05
0.000182639
-3.6063e-05
4.09618e-05
-5.18544e-05
1.10899e-05
-4.64648e-05
-3.87541e-05
-4.27748e-05
-3.62535e-05
-3.01823e-05
-5.68335e-05
-9.43825e-06
-7.17829e-05
4.42675e-06
-4.9374e-05
9.90466e-06
-2.25935e-05
1.25454e-05
-9.91171e-06
1.63003e-05
-1.15603e-08
9.60563e-06
4.62722e-05
-9.95463e-06
7.59936e-05
-2.48106e-05
4.74636e-05
-2.57323e-05
1.36609e-05
-1.9067e-05
-1.16373e-05
-9.98646e-06
-3.69384e-05
-1.08569e-06
-4.84415e-05
-3.5553e-05
3.49578e-06
0.000179102
-6.06861e-06
5.05438e-05
-4.91789e-05
5.41587e-05
-3.99917e-05
-4.79309e-05
-3.88511e-05
-3.74151e-05
-2.76232e-05
-6.80597e-05
-1.09601e-05
-8.84464e-05
1.47807e-06
-6.18124e-05
7.7467e-06
-2.88664e-05
1.24869e-05
-1.46544e-05
1.51492e-05
-2.67429e-06
1.75669e-05
4.38549e-05
1.67602e-05
7.68004e-05
1.7327e-05
4.68939e-05
2.13036e-05
9.67949e-06
1.94704e-05
-9.80477e-06
1.33227e-05
-3.07749e-05
8.09143e-06
-4.32122e-05
-2.74617e-05
4.96456e-06
0.000174098
-3.14738e-05
8.69721e-05
-1.57466e-05
3.8415e-05
-2.15902e-05
-4.20905e-05
-4.06489e-05
-1.83626e-05
-2.44741e-05
-8.42429e-05
-1.24402e-05
-0.000100481
-4.15053e-06
-7.01306e-05
-2.52547e-06
-3.05079e-05
1.04455e-05
-2.76384e-05
2.12182e-05
-1.3441e-05
2.18944e-05
4.3173e-05
2.56315e-05
7.30631e-05
2.904e-05
4.34846e-05
3.08448e-05
7.87456e-06
2.80576e-05
-7.01672e-06
2.09347e-05
-2.36534e-05
1.16457e-05
-3.39235e-05
-1.5816e-05
1.5322e-05
0.00015895
4.5223e-05
5.7109e-05
4.66918e-05
3.6872e-05
6.04338e-06
-1.40988e-06
-3.27469e-05
2.04013e-05
-2.06416e-05
-9.63472e-05
-1.51546e-05
-0.000106012
-2.99107e-05
-5.54124e-05
-3.80115e-05
-2.24154e-05
-2.73028e-05
-3.82964e-05
3.74486e-06
-4.44477e-05
3.0506e-05
1.65093e-05
3.12082e-05
7.23613e-05
3.31094e-05
4.15825e-05
3.08685e-05
1.01153e-05
2.61899e-05
-2.33783e-06
1.82663e-05
-1.57295e-05
9.27844e-06
-2.49357e-05
-6.53762e-06
3.08249e-05
0.000127888
3.77423e-05
5.01198e-05
4.24233e-05
3.21469e-05
2.47848e-05
1.62962e-05
1.58668e-06
4.35655e-05
-1.30833e-05
-8.16616e-05
-2.06085e-05
-9.85428e-05
-4.19675e-05
-3.40606e-05
-4.90693e-05
-1.52286e-05
-4.42358e-05
-4.31211e-05
-3.21863e-05
-5.64898e-05
7.91711e-06
-2.36057e-05
3.3861e-05
4.65088e-05
3.11534e-05
4.43068e-05
2.61629e-05
1.50994e-05
2.00055e-05
3.81756e-06
1.20052e-05
-7.72942e-06
4.65219e-06
-1.75826e-05
-1.88546e-06
2.67949e-05
0.000100894
3.59251e-05
4.10165e-05
5.48819e-05
1.31871e-05
5.12212e-05
2.00042e-05
3.08398e-05
6.39074e-05
-1.45502e-06
-4.936e-05
-2.00901e-05
-7.99084e-05
-4.32048e-05
-1.09402e-05
-4.95061e-05
-8.88296e-06
-4.70151e-05
-4.5612e-05
-4.55038e-05
-5.80106e-05
-2.05114e-05
-4.86059e-05
1.24722e-05
1.35388e-05
1.96516e-05
3.71236e-05
1.43798e-05
2.03886e-05
9.95518e-06
8.23493e-06
5.33179e-06
-3.10546e-06
-2.56322e-08
-1.22255e-05
-1.91114e-06
6.32935e-06
-1.54279e-05
1.13677e-05
-1.19617e-05
1.27562e-05
-3.72864e-06
1.02253e-05
5.9747e-06
4.50895e-06
1.32707e-05
-3.61667e-06
1.88652e-05
-1.05437e-05
1.64136e-05
-1.31472e-05
7.127e-06
-1.02211e-05
-5.8651e-06
-4.61309e-06
-1.37678e-05
6.64252e-07
-1.70774e-05
4.48139e-06
-1.47993e-05
7.39858e-06
-1.42837e-05
6.69768e-06
-4.9604e-06
-8.36974e-07
2.32465e-06
-2.9691e-05
2.66412e-05
-3.98906e-05
4.23888e-06
-1.23066e-05
-3.71591e-05
2.37528e-05
-4.43538e-05
3.14317e-05
-6.9761e-06
1.48148e-05
3.2335e-05
8.96442e-06
2.79359e-05
1.78758e-05
1.61682e-05
9.25888e-06
-2.46868e-05
1.77968e-05
-2.04996e-05
2.16898e-05
-7.62167e-06
1.76962e-05
9.96827e-06
8.72908e-06
2.22379e-05
-3.74483e-06
3.13391e-05
-1.63735e-05
2.90422e-05
-2.26908e-05
1.34443e-05
-2.16697e-05
-6.88626e-06
-1.54722e-05
-1.99672e-05
-5.12241e-06
-2.74432e-05
7.39983e-06
-2.73941e-05
7.41275e-06
-1.43479e-05
-4.78809e-05
5.00614e-05
-0.000123545
7.77689e-05
-0.000124213
2.70162e-05
-7.16861e-05
-4.84311e-05
-2.15587e-05
-8.73684e-05
1.63716e-05
-8.22246e-05
4.27531e-05
-3.33908e-05
3.56186e-05
3.9452e-05
1.23008e-05
5.12113e-05
1.88381e-05
1.13289e-05
1.29428e-05
-3.76296e-05
2.34884e-05
-3.10452e-05
2.76742e-05
-1.18075e-05
2.30056e-05
1.46369e-05
1.35665e-05
3.1677e-05
-9.04046e-07
4.58096e-05
-2.03823e-05
4.85196e-05
-3.45923e-05
2.76542e-05
-3.67723e-05
-4.70746e-06
-2.43923e-05
-3.24131e-05
-8.6852e-06
-4.31849e-05
9.48059e-06
-4.56581e-05
-3.76109e-05
3.28215e-05
-0.000194921
0.000207583
-0.000203101
8.58753e-05
-0.000113047
-6.26288e-05
-5.06318e-05
-0.000110759
-2.17957e-05
-0.000116208
-6.93725e-06
-9.70949e-05
7.30804e-06
-4.7639e-05
1.95779e-05
2.70884e-05
6.81334e-06
6.39438e-05
3.98262e-05
-1.42049e-05
1.26745e-05
-5.03041e-05
1.9312e-05
-3.76829e-05
2.04538e-05
-1.2952e-05
1.96407e-05
1.54543e-05
1.25456e-05
3.87923e-05
-4.80204e-06
6.32086e-05
-2.6486e-05
7.02498e-05
-4.61302e-05
4.72978e-05
-6.34745e-05
1.25345e-05
-6.91251e-05
-2.68199e-05
-7.08902e-05
-4.14587e-05
-6.60531e-05
-5.05411e-05
-9.72686e-05
6.39326e-05
-0.000235033
0.000345349
-0.000134183
-1.47294e-05
-8.79909e-05
-0.000108326
-7.34216e-05
-0.000125335
-6.02744e-05
-0.000129361
-5.00812e-05
-0.000107294
-4.70011e-05
-5.07232e-05
-4.02895e-05
2.0336e-05
-3.84249e-05
6.20032e-05
6.44283e-05
-6.30091e-05
-2.42573e-06
-4.78782e-05
-4.74522e-06
-3.53957e-05
2.06593e-06
-1.98215e-05
4.46186e-06
1.31523e-05
-1.22881e-05
5.57192e-05
-4.66417e-05
9.7834e-05
-8.10615e-05
0.000104946
-0.000100369
6.66926e-05
-0.00010553
1.77267e-05
-0.00010399
-2.82733e-05
-0.000100121
-4.53096e-05
-0.000102488
-4.82868e-05
-0.000147192
0.000108585
-0.000172711
0.00037102
-0.00012385
-6.31005e-05
-0.000112433
-0.000119635
-0.000106016
-0.000131761
-0.000103919
-0.00013146
-0.000109623
-0.000101593
-0.000113478
-4.68887e-05
-0.000106215
1.30348e-05
-9.92814e-05
5.50436e-05
6.84878e-05
-0.000103352
-2.01952e-05
-2.76885e-05
-4.09062e-05
-1.48207e-05
-6.14788e-05
7.43785e-07
-5.55649e-05
7.2299e-06
-6.27744e-05
6.29718e-05
-0.00011675
0.000151926
-0.000163882
0.000152381
-0.000173724
7.69027e-05
-0.000156309
3.15975e-07
-0.000136328
-4.83544e-05
-0.000118703
-6.32331e-05
-0.000124208
-4.285e-05
-0.000174573
0.000159023
-0.00016015
0.000356751
-0.000138477
-8.45656e-05
-0.000128629
-0.000129476
-0.000123341
-0.000137219
-0.000129838
-0.000124974
-0.000144023
-8.74065e-05
-0.000152019
-3.88983e-05
-0.000144672
5.67498e-06
-0.000129881
4.02419e-05
5.85436e-05
-0.000119944
-2.47814e-05
-2.93123e-06
-5.31156e-05
1.33951e-05
-8.71161e-05
3.47509e-05
-9.10035e-05
1.11145e-05
-0.000113343
8.53172e-05
-0.000157768
0.00019638
-0.00018626
0.000180997
-0.000185759
7.65427e-05
-0.000171869
-1.36134e-05
-0.000139714
-8.06069e-05
-0.000119495
-8.3453e-05
-0.00016242
7.90864e-08
-0.000176235
0.000172838
-0.000137906
0.000318436
-0.000131531
-9.09521e-05
-0.000126489
-0.000134454
-0.000123889
-0.000139511
-0.000137166
-0.000111702
-0.000150962
-7.36165e-05
-0.000155616
-3.42428e-05
-0.00014986
-8.21756e-08
-0.000138546
2.89156e-05
4.33476e-05
-0.000123585
-2.16274e-05
1.86602e-05
-4.82325e-05
3.99476e-05
-9.93886e-05
8.59089e-05
-0.000153248
6.49721e-05
-0.000194273
0.000126339
-0.000181321
0.000183428
-0.000158246
0.000157932
-0.000143601
6.19207e-05
-0.000129323
-2.789e-05
-0.00013506
-7.48687e-05
-0.000142155
-7.63568e-05
-0.000176973
3.48964e-05
-0.000160816
0.000156681
-7.69244e-05
0.000234545
-0.000104999
-6.28767e-05
-0.000116995
-0.000122452
-0.000107252
-0.00014921
-0.000128238
-8.99223e-05
-0.000140268
-6.15056e-05
-0.000145982
-2.85294e-05
-0.000141877
-4.20687e-06
-0.000127594
1.42388e-05
2.07129e-05
-0.000104901
-2.02161e-05
3.88342e-05
-4.39487e-05
6.36119e-05
-0.000123649
0.000165609
-0.000202298
0.00014362
-0.000218986
0.000143027
-0.000182502
0.000146945
-0.000133163
0.000108584
-0.000123014
5.1771e-05
-0.00013366
-1.72426e-05
-0.000160761
-4.77673e-05
-0.00017704
-6.00752e-05
-0.000170583
2.84382e-05
-0.000119483
0.00010558
-4.58132e-05
0.000160871
-7.57516e-05
-3.29437e-05
-9.86401e-05
-9.95606e-05
-0.000103387
-0.000144463
-0.000117723
-7.54476e-05
-0.000117044
-6.14604e-05
-0.000116383
-2.91966e-05
-0.000114212
-6.54977e-06
-0.00010521
4.97099e-06
4.18564e-06
-8.86668e-05
-2.06404e-05
5.94304e-05
-3.27414e-05
7.56007e-05
-9.96791e-05
0.000232546
-0.000176432
0.000220373
-0.000193876
0.000160475
-0.000178161
0.000131225
-0.000152102
8.25208e-05
-0.000148276
4.79399e-05
-0.000153413
-1.21057e-05
-0.000156276
-4.49048e-05
-0.000158292
-5.80579e-05
-0.000141064
1.1214e-05
-9.44502e-05
5.89688e-05
-4.69364e-05
0.000113358
-4.64335e-05
-3.34495e-05
-6.6006e-05
-7.9987e-05
-9.52638e-05
-0.000115205
-0.000105988
-6.47196e-05
-0.000101852
-6.54804e-05
-8.5711e-05
-4.49693e-05
-7.49242e-05
-1.74131e-05
-6.53734e-05
-4.8636e-06
-3.72493e-06
-5.75055e-05
-1.94492e-05
7.88441e-05
-2.22202e-05
7.81892e-05
-6.79284e-05
0.000278254
-0.00012059
0.000273036
-0.000136456
0.000176346
-0.000136535
0.000131308
-0.000121301
6.72838e-05
-0.000105352
3.19876e-05
-9.39508e-05
-2.35079e-05
-0.000106985
-3.18705e-05
-0.000120325
-4.47183e-05
-0.000110882
1.77226e-06
-7.20363e-05
2.01254e-05
-2.2896e-05
6.4222e-05
-1.80567e-05
-3.82895e-05
-3.82521e-05
-5.97914e-05
-6.83545e-05
-8.51035e-05
-7.76855e-05
-5.53879e-05
-8.28895e-05
-6.02765e-05
-8.096e-05
-4.68451e-05
-5.68171e-05
-4.1396e-05
-3.50029e-05
-2.67436e-05
-1.74763e-05
-2.12855e-05
-1.20425e-05
9.08664e-05
-7.96845e-06
7.40515e-05
-6.41557e-06
0.000276702
-2.96951e-05
0.000296316
-5.20775e-05
0.000198728
-6.00709e-05
0.000139305
-5.28105e-05
6.00277e-05
-5.08811e-05
3.00576e-05
-4.83786e-05
-2.60103e-05
-6.54254e-05
-1.48239e-05
-8.04499e-05
-2.96938e-05
-8.15345e-05
2.85677e-06
-6.15835e-05
1.74488e-07
-2.49111e-05
2.75507e-05
-3.012e-05
-3.30804e-05
-5.27184e-05
-3.71928e-05
-7.53838e-05
-6.24383e-05
-8.18928e-05
-4.88783e-05
-9.03241e-05
-5.18456e-05
-9.84104e-05
-3.87567e-05
-8.68772e-05
-5.28871e-05
-5.44483e-05
-5.91101e-05
-5.0406e-05
-2.16543e-05
8.04878e-07
9.00752e-05
7.77263e-06
6.72682e-05
6.49236e-06
0.000278019
-8.02291e-06
0.000310831
-1.32762e-05
0.000203982
-1.08019e-05
0.000136831
-2.05653e-06
5.12834e-05
-1.34648e-05
4.14659e-05
-2.39397e-05
-1.55353e-05
-4.09282e-05
2.16457e-06
-5.72045e-05
-1.34177e-05
-6.01184e-05
5.77071e-06
-5.58286e-05
-4.1153e-06
-4.06127e-05
1.23349e-05
-4.89306e-05
-2.47627e-05
-5.96236e-05
-2.64997e-05
-7.38426e-05
-4.82197e-05
-7.98306e-05
-4.28902e-05
-8.01414e-05
-5.1535e-05
-7.38254e-05
-4.50728e-05
-7.01117e-05
-5.65999e-05
-6.05625e-05
-6.86581e-05
-6.8311e-05
-4.26583e-05
1.08458e-05
8.0196e-05
5.35867e-06
7.292e-05
-3.31932e-05
0.000316577
-3.68538e-05
0.000314493
-1.70347e-05
0.000184163
-1.56572e-05
0.000135454
-4.66746e-06
4.02941e-05
-1.10998e-05
4.78983e-05
-2.4802e-05
-1.83321e-06
-3.70901e-05
1.44525e-05
-5.00521e-05
-4.55773e-07
-5.42755e-05
9.99398e-06
-5.71843e-05
-1.20649e-06
-5.25397e-05
7.69033e-06
-6.11357e-05
-1.61667e-05
-7.12402e-05
-1.63951e-05
-8.54062e-05
-3.40538e-05
-9.16256e-05
-3.66707e-05
-9.51046e-05
-4.80562e-05
-8.79648e-05
-5.2213e-05
-8.09237e-05
-6.36411e-05
-8.0253e-05
-6.93287e-05
-7.56771e-05
-7.28864e-05
6.76619e-06
7.35988e-05
-4.10251e-05
0.00012073
-7.70262e-05
0.00035258
-6.06815e-05
0.00029815
-3.13392e-05
0.000154822
-2.30428e-05
0.000127158
-1.30141e-05
3.02654e-05
-1.38274e-05
4.87115e-05
-2.64021e-05
1.07413e-05
-3.51012e-05
2.31516e-05
-4.65824e-05
1.10253e-05
-5.27535e-05
1.6165e-05
-6.01966e-05
6.23663e-06
-6.26631e-05
1.01568e-05
-7.35496e-05
-5.28025e-06
-8.36365e-05
-6.30825e-06
-9.84429e-05
-1.92476e-05
-0.000110496
-2.46178e-05
-0.0001221
-3.64518e-05
-0.000129021
-4.52928e-05
-0.00013428
-5.83817e-05
-0.000135491
-6.81176e-05
-7.13125e-05
-0.000139856
3.04046e-05
4.31969e-05
-6.13755e-05
0.000212509
-9.1654e-05
0.00038286
-7.15389e-05
0.000278036
-3.98863e-05
0.00012317
-2.58056e-05
0.000113078
-2.17495e-05
2.62092e-05
-2.17254e-05
4.86873e-05
-3.33702e-05
2.2386e-05
-4.08294e-05
3.06107e-05
-5.0376e-05
2.05719e-05
-5.63312e-05
2.21201e-05
-6.39278e-05
1.38333e-05
-6.84228e-05
1.46517e-05
-7.78057e-05
4.10267e-06
-8.6674e-05
2.55996e-06
-9.9973e-05
-5.94858e-06
-0.000114107
-1.04841e-05
-0.000132145
-1.84139e-05
-0.00014949
-2.7948e-05
-0.000168095
-3.97767e-05
-0.000185322
-5.08915e-05
-5.45089e-05
-0.000202126
-3.37432e-05
7.69407e-05
-8.89695e-05
0.000267733
-8.23365e-05
0.000376229
-7.03618e-05
0.000266062
-3.8662e-05
9.14708e-05
-2.14285e-05
9.58442e-05
-2.51765e-05
2.99573e-05
-2.62837e-05
4.97943e-05
-3.70408e-05
3.31431e-05
-4.33745e-05
3.69442e-05
-5.25072e-05
2.97045e-05
-5.89868e-05
2.85996e-05
-6.77243e-05
2.25707e-05
-7.42212e-05
2.11484e-05
-8.42744e-05
1.41559e-05
-9.31693e-05
1.14547e-05
-0.000105341
6.22338e-06
-0.000118848
3.02278e-06
-0.000136984
-2.77977e-07
-0.000158308
-6.62435e-06
-0.000182477
-1.56088e-05
-0.000205386
-2.79822e-05
-3.10855e-05
-0.00022881
-7.21199e-05
0.000149007
-8.34438e-05
0.000279054
-5.36927e-05
0.000346477
-5.54475e-05
0.000267818
-3.54349e-05
7.14585e-05
-2.01084e-05
8.05178e-05
-3.00108e-05
3.98596e-05
-3.30703e-05
5.28537e-05
-4.36363e-05
4.37093e-05
-4.98444e-05
4.31522e-05
-5.86631e-05
3.85234e-05
-6.50736e-05
3.50099e-05
-7.31574e-05
3.06546e-05
-7.94205e-05
2.74114e-05
-8.77619e-05
2.24974e-05
-9.50828e-05
1.87755e-05
-0.000104333
1.54735e-05
-0.00011354
1.22297e-05
-0.000125053
1.12351e-05
-0.000139564
7.88665e-06
-0.000159846
4.67255e-06
-0.000182865
-4.96295e-06
-8.0643e-06
-0.000205887
-9.99808e-06
0.000158445
-1.40991e-05
0.000283157
-6.15938e-06
0.000338537
-1.23149e-05
0.000273973
-2.0067e-05
7.92114e-05
-1.40949e-05
7.45458e-05
-2.96652e-05
5.543e-05
-3.50431e-05
5.82315e-05
-4.65059e-05
5.51722e-05
-5.34608e-05
5.01069e-05
-6.28576e-05
4.79202e-05
-7.00272e-05
4.21794e-05
-7.87649e-05
3.93924e-05
-8.60633e-05
3.47096e-05
-9.49067e-05
3.13409e-05
-0.000102813
2.66816e-05
-0.000112136
2.47969e-05
-0.000121154
2.12471e-05
-0.000131685
2.17657e-05
-0.000142571
1.87728e-05
-0.000156272
1.83739e-05
-0.000172824
1.15886e-05
9.2515e-06
-0.000190139
-3.11021e-06
0.000161506
-5.83246e-06
0.000285879
-1.6517e-06
0.000334357
5.56534e-06
0.000266756
-1.25413e-05
9.73181e-05
-1.62221e-05
7.82267e-05
-3.24154e-05
7.16234e-05
-3.96703e-05
6.54863e-05
-5.06276e-05
6.61296e-05
-5.75879e-05
5.70671e-05
-6.62113e-05
5.65438e-05
-7.27567e-05
4.87247e-05
-8.03288e-05
4.69647e-05
-8.66802e-05
4.1061e-05
-9.41664e-05
3.88273e-05
-0.00010176
3.42753e-05
-0.000111169
3.42055e-05
-0.000121373
3.14515e-05
-0.000133462
3.38543e-05
-0.000146419
3.17293e-05
-0.000161375
3.33309e-05
-0.000179603
2.98165e-05
2.92799e-05
-0.00019963
-2.26209e-06
0.000163759
-3.27496e-06
0.000286899
4.3712e-06
0.000326712
1.77638e-05
0.000253364
-3.39089e-06
0.000118473
-1.56873e-05
9.05233e-05
-3.3879e-05
8.98153e-05
-4.34371e-05
7.50444e-05
-5.51492e-05
7.78418e-05
-6.28826e-05
6.48005e-05
-7.16396e-05
6.53008e-05
-7.85001e-05
5.55851e-05
-8.60495e-05
5.45141e-05
-9.26565e-05
4.76678e-05
-0.000100092
4.62626e-05
-0.000107862
4.2045e-05
-0.000117788
4.41316e-05
-0.000129046
4.27091e-05
-0.000142568
4.73764e-05
-0.000158135
4.72968e-05
-0.000175797
5.09933e-05
-0.000193627
4.76472e-05
4.51232e-05
-0.000209471
1.49971e-06
0.000162127
-3.98734e-06
0.00029253
-2.54621e-06
0.000325272
1.4726e-05
0.000236092
-8.32331e-06
0.000141523
-2.28447e-05
0.000105045
-4.0087e-05
0.000107058
-4.96911e-05
8.46485e-05
-6.03479e-05
8.84987e-05
-6.79857e-05
7.24382e-05
-7.61504e-05
7.34657e-05
-8.30259e-05
6.24605e-05
-9.04088e-05
6.18972e-05
-9.75847e-05
5.48436e-05
-0.000105926
5.46044e-05
-0.000115288
5.14067e-05
-0.000126712
5.55555e-05
-0.000139227
5.52241e-05
-0.000153818
6.19674e-05
-0.000170228
6.37071e-05
-0.00018697
6.77359e-05
-0.000201342
6.20184e-05
5.44287e-05
-0.000210648
-2.01436e-06
0.000164889
-1.58094e-05
0.000306335
-1.90241e-05
0.000328487
-2.96953e-07
0.000217366
-2.16358e-05
0.000162862
-3.50648e-05
0.000118474
-4.92066e-05
0.0001212
-5.82991e-05
9.3741e-05
-6.74378e-05
9.76375e-05
-7.46064e-05
7.96068e-05
-8.19522e-05
8.08116e-05
-8.86323e-05
6.91404e-05
-9.59565e-05
6.92217e-05
-0.000103966
6.2853e-05
-0.000113974
6.46118e-05
-0.000125597
6.30297e-05
-0.000139143
6.91017e-05
-0.000152992
6.90732e-05
-0.000167188
7.61637e-05
-0.000180438
7.6957e-05
-0.000191472
7.87694e-05
-0.000199401
6.99472e-05
5.74537e-05
-0.000202426
-2.77708e-05
0.000192745
-4.07501e-05
0.000319314
-3.98327e-05
0.000327571
-2.74674e-05
0.000205002
-3.96019e-05
0.000174997
-5.05735e-05
0.000129446
-6.01798e-05
0.000130806
-6.78055e-05
0.000101367
-7.48704e-05
0.000104702
-8.13053e-05
8.60416e-05
-8.76289e-05
8.71354e-05
-9.41999e-05
7.57113e-05
-0.000101448
7.64698e-05
-0.000110151
7.15559e-05
-0.000121507
7.59683e-05
-0.000133473
7.4995e-05
-0.000146067
8.1696e-05
-0.000158433
8.1439e-05
-0.000169411
8.71423e-05
-0.000178399
8.59445e-05
-0.000185153
8.55243e-05
-0.000189177
7.39703e-05
5.67511e-05
-0.000188474
-5.3226e-05
0.00024597
-7.22498e-05
0.000338347
-6.21664e-05
0.000317489
-5.87364e-05
0.000201572
-6.13793e-05
0.00017764
-6.8489e-05
0.000136556
-7.34007e-05
0.000135718
-7.88588e-05
0.000106825
-8.36169e-05
0.000109461
-8.90033e-05
9.14279e-05
-9.43502e-05
9.24825e-05
-0.000101007
8.23675e-05
-0.000109008
8.44708e-05
-0.000118769
8.13173e-05
-0.000130574
8.77727e-05
-0.000141348
8.57698e-05
-0.000150754
9.11018e-05
-0.000159133
8.98183e-05
-0.000165499
9.35083e-05
-0.000170624
9.1069e-05
-0.000173656
8.85567e-05
-0.00017344
7.37538e-05
5.19641e-05
-0.000168653
-6.44298e-05
0.000310398
-8.91539e-05
0.000363075
-7.78087e-05
0.000306145
-8.17554e-05
0.000205519
-8.15546e-05
0.000177439
-8.47692e-05
0.00013977
-8.58378e-05
0.000136786
-8.8886e-05
0.000109873
-9.13439e-05
0.000111918
-9.55341e-05
9.56181e-05
-0.000100009
9.69575e-05
-0.000106704
8.9062e-05
-0.000115552
9.33194e-05
-0.000125311
9.10758e-05
-0.000134904
9.73662e-05
-0.000143186
9.40522e-05
-0.000149106
9.70218e-05
-0.000153754
9.44659e-05
-0.000156498
9.6252e-05
-0.000157838
9.24093e-05
-0.000156625
8.73439e-05
-0.000152026
6.91543e-05
4.41251e-05
-0.000144187
-6.83818e-05
0.000378777
-9.76147e-05
0.000392311
-9.73329e-05
0.000305864
-0.000104749
0.000212935
-0.000102808
0.000175498
-0.000101532
0.000138495
-9.8623e-05
0.000133877
-9.95065e-05
0.000110756
-9.97583e-05
0.00011217
-0.00010303
9.88899e-05
-0.000106936
0.000100864
-0.000113765
9.58899e-05
-0.000122715
0.000102269
-0.00013106
9.94216e-05
-0.00013721
0.000103516
-0.000141987
9.88293e-05
-0.000144515
9.95489e-05
-0.000146008
9.59597e-05
-0.000145398
9.56416e-05
-0.000142379
8.93906e-05
-0.000136089
8.10538e-05
-0.000126902
5.99673e-05
3.39326e-05
-0.00011671
-6.98039e-05
0.00044858
-0.000105584
0.000428094
-0.000118757
0.000319037
-0.000128334
0.000222511
-0.000123337
0.000170501
-0.000116934
0.000132092
-0.000109302
0.000126245
-0.000107742
0.000109196
-0.000105843
0.000110271
-0.000108089
0.000101136
-0.000112018
0.000104792
-0.000118637
0.000102509
-0.00012606
0.000109693
-0.000132547
0.000105909
-0.000136485
0.000107454
-0.000138948
0.000101292
-0.000139102
9.97033e-05
-0.000137991
9.48485e-05
-0.000134072
9.17228e-05
-0.000126854
8.21723e-05
-0.00011593
7.01297e-05
-0.000103527
4.75649e-05
2.31754e-05
-9.27701e-05
-7.11677e-05
0.000519746
-0.000117404
0.000474333
-0.000141579
0.000343213
-0.000151892
0.000232823
-0.000142711
0.000161319
-0.000130982
0.000120362
-0.000118692
0.000113955
-0.000114147
0.000104652
-0.000110887
0.000107011
-0.000112019
0.000102268
-0.00011607
0.000108844
-0.000122192
0.00010863
-0.000127515
0.000115016
-0.000132204
0.000110598
-0.000134519
0.000109769
-0.00013523
0.000102003
-0.000133339
9.78129e-05
-0.000129752
9.12608e-05
-0.000122905
8.48762e-05
-0.000112378
7.16451e-05
-9.87618e-05
5.65137e-05
-8.57917e-05
3.45946e-05
1.27227e-05
-7.5339e-05
-7.24022e-05
0.000592147
-0.000129215
0.000531149
-0.000160252
0.00037425
-0.000168511
0.000241081
-0.000156347
0.000149155
-0.000139629
0.000103644
-0.000123203
9.75283e-05
-0.000116021
9.74704e-05
-0.000112298
0.000103287
-0.000112862
0.000102832
-0.000116701
0.000112683
-0.000122223
0.000114151
-0.000126607
0.0001194
-0.000130585
0.000114576
-0.000131745
0.000110929
-0.000130992
0.000101249
-0.000128027
9.48485e-05
-0.000122619
8.58521e-05
-0.000113447
7.57047e-05
-0.000101242
5.94403e-05
-8.7543e-05
4.28144e-05
-7.54781e-05
2.25297e-05
2.46396e-06
-6.52194e-05
-7.57729e-05
0.00066792
-0.000131545
0.000586925
-0.000163948
0.000406653
-0.000170641
0.000247772
-0.000158276
0.000136788
-0.000139959
8.53259e-05
-0.000122662
8.02311e-05
-0.000114179
8.89878e-05
-0.000110754
9.98619e-05
-0.000111761
0.000103839
-0.00011551
0.000116433
-0.000120706
0.000119347
-0.000124708
0.000123402
-0.000127805
0.000117673
-0.000127613
0.000110737
-0.000125652
9.92884e-05
-0.00012162
9.08165e-05
-0.000114423
7.86543e-05
-0.000103517
6.47988e-05
-9.11097e-05
4.70332e-05
-7.83917e-05
3.00964e-05
-6.71758e-05
1.13139e-05
-7.35507e-06
-5.73569e-05
-6.51124e-05
0.000733034
-0.00011316
0.000634976
-0.000146386
0.00043988
-0.000154966
0.000256352
-0.000144024
0.000125843
-0.000127222
6.85244e-05
-0.000113023
6.60314e-05
-0.000106118
8.20831e-05
-0.000104511
9.82553e-05
-0.000107284
0.000106612
-0.000111505
0.000120653
-0.000116935
0.000124778
-0.000120958
0.000127425
-0.000123332
0.000120047
-0.000122024
0.000109429
-0.000119498
9.67627e-05
-0.000114491
8.58097e-05
-0.000105957
7.01205e-05
-9.52174e-05
5.40588e-05
-8.41187e-05
3.59345e-05
-7.27757e-05
1.87534e-05
-6.20889e-05
6.26953e-07
-1.70075e-05
-5.24366e-05
-2.84114e-05
0.000761449
-6.60217e-05
0.00067259
-9.81462e-05
0.000472004
-0.00011212
0.000270325
-0.000109316
0.000123038
-0.000100951
6.01584e-05
-9.45962e-05
5.96771e-05
-9.2865e-05
8.03521e-05
-9.47811e-05
0.000100172
-0.000100211
0.000112042
-0.000105877
0.000126319
-0.000112145
0.000131046
-0.000116455
0.000131735
-0.000117868
0.000121461
-0.000115763
0.000107325
-0.000112565
9.35642e-05
-0.000106082
7.93269e-05
-9.68381e-05
6.08765e-05
-8.64585e-05
4.36793e-05
-7.58887e-05
2.53647e-05
-6.52041e-05
8.06883e-06
-5.50933e-05
-9.48399e-06
-2.60158e-05
-4.60851e-05
9.20419e-06
0.000752246
3.24203e-06
0.000678554
-1.75419e-05
0.00049279
-3.90831e-05
0.000291868
-5.38309e-05
0.000137785
-6.13416e-05
6.76685e-05
-6.72817e-05
6.5618e-05
-7.38168e-05
8.68875e-05
-8.10031e-05
0.000107358
-8.97179e-05
0.000120757
-9.75774e-05
0.000134179
-0.000105068
0.000138537
-0.00010975
0.000136417
-0.000110116
0.000121827
-0.000108157
0.000105366
-0.000104592
8.99998e-05
-9.74178e-05
7.21526e-05
-8.91396e-05
5.25985e-05
-7.99125e-05
3.44522e-05
-7.02301e-05
1.56822e-05
-6.03274e-05
-1.83399e-06
-5.08761e-05
-1.89354e-05
-3.45749e-05
-4.23171e-05
3.09418e-05
0.000721305
5.73265e-05
0.000652171
5.7815e-05
0.000492303
3.41979e-05
0.000315486
4.49701e-06
0.000167486
-1.94653e-05
9.16309e-05
-3.87737e-05
8.49269e-05
-5.47082e-05
0.000102822
-6.80608e-05
0.000120712
-8.06697e-05
0.000133366
-9.11343e-05
0.000144644
-9.98883e-05
0.000147291
-0.00010391
0.000140439
-0.0001035
0.000121417
-0.000101348
0.000103214
-9.66464e-05
8.52983e-05
-8.90512e-05
6.45576e-05
-8.06313e-05
4.41786e-05
-7.12824e-05
2.51033e-05
-6.18467e-05
6.24652e-06
-5.27661e-05
-1.09147e-05
-4.44941e-05
-2.72074e-05
-4.22511e-05
-3.6818e-05
4.60465e-05
0.000675256
8.56569e-05
0.000612561
9.76295e-05
0.000480331
7.85568e-05
0.00033456
4.76904e-05
0.000198352
1.54808e-05
0.000123841
-1.26186e-05
0.000113027
-3.54092e-05
0.000125614
-5.34524e-05
0.000138755
-6.91778e-05
0.000149092
-8.17594e-05
0.000157226
-9.1589e-05
0.000157121
-9.51413e-05
0.000143992
-9.49762e-05
0.000121252
-9.30227e-05
0.00010126
-8.78345e-05
8.01103e-05
-8.12056e-05
5.79289e-05
-7.38447e-05
3.68178e-05
-6.56036e-05
1.68622e-05
-5.72212e-05
-2.13596e-06
-4.88805e-05
-1.92555e-05
-4.12799e-05
-3.48081e-05
-4.92566e-05
-3.42745e-05
5.41155e-05
0.000621141
9.68136e-05
0.000569865
0.000110706
0.00046644
9.81582e-05
0.000347107
7.13177e-05
0.000225193
3.58783e-05
0.000159282
2.55151e-06
0.000146355
-2.51741e-05
0.00015334
-4.70336e-05
0.000160616
-6.55273e-05
0.000167586
-7.95758e-05
0.000171275
-8.84156e-05
0.000165961
-9.03049e-05