/*--------------------------------*- C++ -*----------------------------------*\
| =========                 |                                                 |
| \\      /  F ield         | OpenFOAM: The Open Source CFD Toolbox           |
|  \\    /   O peration     | Version:  2012                                  |
|   \\  /    A nd           | Website:  www.openfoam.com                      |
|    \\/     M anipulation  |                                                 |
\*---------------------------------------------------------------------------*/
FoamFile
{
    version     2.0;
    format      ascii;
    class       volScalarField;
    location    "0.3";
    object      maxKappa;
}
// * * * * * * * * * * * * * * * * * * * * * * * * * * * * * * * * * * * * * //

dimensions      [0 0 0 0 0 0 0];


internalField   nonuniform List<scalar> 
160
(
1.392007689e-06
2.136127149e-06
3.362189953e-06
4.371471199e-06
5.603004971e-06
6.596529684e-06
7.76523107e-06
8.824094096e-06
9.912638904e-06
1.105596501e-05
1.208356511e-05
1.323010021e-05
1.431117016e-05
1.536766181e-05
1.648796867e-05
1.755339665e-05
1.866055201e-05
1.972776536e-05
2.081642596e-05
2.189531482e-05
2.296880657e-05
2.405642903e-05
2.510833384e-05
2.620767295e-05
2.722369997e-05
2.835669688e-05
2.934007237e-05
3.049264646e-05
3.148478108e-05
3.259200046e-05
3.364506983e-05
3.470753924e-05
3.578351353e-05
3.685571268e-05
3.794517759e-05
3.902024148e-05
4.011814543e-05
4.118903898e-05
4.243838013e-05
4.331501486e-05
4.456813734e-05
4.605068e-05
4.675139552e-05
4.767113376e-05
4.909724488e-05
4.996741666e-05
5.161277556e-05
5.287067625e-05
5.330594392e-05
5.517984113e-05
5.63157729e-05
5.642044743e-05
5.890914231e-05
6.00197665e-05
6.051797562e-05
6.289579536e-05
6.449935084e-05
6.595553398e-05
6.741509074e-05
6.83997581e-05
7.164518354e-05
7.376595592e-05
7.847831919e-05
7.869606177e-05
8.844789263e-05
8.844789263e-05
8.897161654e-05
0.0001064571446
0.0001338843116
0.0001774503947
0.0001802817312
0.0001863628089
0.0001863628089
0.0001804400095
0.0001734657115
0.0001578484551
0.0001320349549
9.56155709e-05
6.11682774e-05
3.672031558e-05
2.170149885e-05
1.335545211e-05
9.699684888e-06
8.1371208e-06
7.602877324e-06
7.4036743e-06
7.685585242e-06
8.640636478e-06
1.134749296e-05
1.739682002e-05
2.974223791e-05
5.12833508e-05
8.291731734e-05
0.0001148127273
0.0001370325617
0.0001508255129
0.0001567223285
0.0001609884635
0.0001609884635
0.0001534293188
0.0001521241453
0.000123875535
0.0001195042967
0.0001014861049
0.0001014861049
8.206195731e-05
0.0001036782004
0.0001036782004
9.867426033e-05
9.867426033e-05
9.36528893e-05
9.36528893e-05
8.885271308e-05
8.885271308e-05
6.104693371e-05
7.115367289e-05
7.115367289e-05
7.257051637e-05
7.257051637e-05
6.389705088e-05
6.389705088e-05
5.653063863e-05
5.521474228e-05
5.020301242e-05
4.904930586e-05
4.505624661e-05
4.33101963e-05
3.940445707e-05
3.680254227e-05
3.398845462e-05
3.283504928e-05
3.283504928e-05
2.989848145e-05
2.923718686e-05
2.711299118e-05
2.596441059e-05
2.447529198e-05
2.330269394e-05
2.230274118e-05
2.132227486e-05
2.026303253e-05
1.91713993e-05
1.802440035e-05
1.703840835e-05
1.599887107e-05
1.498591552e-05
1.397825687e-05
1.297817928e-05
1.194654846e-05
1.092211076e-05
9.953411577e-06
8.901578468e-06
7.999921021e-06
6.91005291e-06
5.971919261e-06
4.974970116e-06
3.987441544e-06
2.968664107e-06
1.969041732e-06
1.291795626e-06
)
;

boundaryField
{
    sides
    {
        type            calculated;
        value           uniform 0;
    }
    empty1
    {
        type            empty;
    }
    empty2
    {
        type            empty;
    }
}


// ************************************************************************* //
