/*--------------------------------*- C++ -*----------------------------------*\
| =========                 |                                                 |
| \\      /  F ield         | OpenFOAM: The Open Source CFD Toolbox           |
|  \\    /   O peration     | Version:  2012                                  |
|   \\  /    A nd           | Website:  www.openfoam.com                      |
|    \\/     M anipulation  |                                                 |
\*---------------------------------------------------------------------------*/
FoamFile
{
    version     2.0;
    format      ascii;
    class       volScalarField;
    location    "0.3";
    object      p;
}
// * * * * * * * * * * * * * * * * * * * * * * * * * * * * * * * * * * * * * //

dimensions      [1 -1 -2 0 0 0 0];


internalField   nonuniform List<scalar> 
160
(
73871.81849
73871.30894
73870.93403
73871.01343
73870.95406
73870.97914
73870.92321
73870.88527
73870.86311
73870.83664
73870.80108
73870.72123
73870.70833
73870.60855
73870.58016
73870.48725
73870.45712
73870.3485
73870.32851
73870.20307
73870.1914
73870.07049
73870.06922
73869.94808
73869.97511
73869.89941
73869.96638
73869.8859
73869.98788
73869.93998
73870.06302
73870.10775
73870.38508
73870.48671
73870.87694
73871.03732
73871.5687
73871.80755
73872.40085
73873.0859
73873.51405
73874.16396
73875.32278
73875.52886
73877.0689
73877.47626
73879.13511
73880.50872
73881.29398
73882.96557
73884.3354
73884.40288
73886.0392
73886.61909
73889.38371
73891.18717
73891.95864
73894.35472
73896.31534
73898.81618
73899.07397
73898.85746
73902.25817
73898.58164
73906.31207
73901.7315
73917.93507
73899.56396
73858.1965
73901.07036
73753.30246
74027.42658
73843.55635
74245.76929
74108.17192
75422.93736
75824.83595
79587.38179
81494.90842
86980.61303
90070.65178
96220.43664
99699.82715
106022.9392
109469.53
113540.6881
115714.6562
121491.246
124964.2113
131367.6937
134473.5113
140284.8998
142194.2473
146438.1334
146686.4521
147449.8243
147306.686
147987.0839
147708.6332
148131.4862
147892.5323
148030.8628
147912.3594
148026.7239
147961.7917
147887.5991
147997.9153
147928.7607
148015.7227
147929.7598
147990.0346
147921.3613
148006.5162
147946.448
148033.4406
147975.1285
147936.2869
148010.6322
147963.4561
148017.4552
147972.1775
147980.4898
147975.0729
148010.0787
147983.8767
148011.1355
147993.2485
148015.2776
148006.4322
148002.1575
148012.8764
148011.3787
148017.7149
148016.1208
148020.2171
148020.2264
148021.5971
148023.3886
148024.7684
148026.2537
148027.6936
148028.2645
148029.9509
148030.2972
148032.0327
148032.1438
148033.6935
148033.7839
148035.1831
148035.1741
148035.9458
148035.9338
148036.5439
148036.53
148037.0214
148037.0213
148037.4717
148037.496
148037.1701
148036.024
)
;

boundaryField
{
    sides
    {
        type            zeroGradient;
    }
    empty1
    {
        type            empty;
    }
    empty2
    {
        type            empty;
    }
}


// ************************************************************************* //
