/*--------------------------------*- C++ -*----------------------------------*\
| =========                 |                                                 |
| \\      /  F ield         | OpenFOAM: The Open Source CFD Toolbox           |
|  \\    /   O peration     | Version:  2012                                  |
|   \\  /    A nd           | Website:  www.openfoam.com                      |
|    \\/     M anipulation  |                                                 |
\*---------------------------------------------------------------------------*/
FoamFile
{
    version     2.0;
    format      ascii;
    class       volScalarField;
    location    "0.3";
    object      rho2;
}
// * * * * * * * * * * * * * * * * * * * * * * * * * * * * * * * * * * * * * //

dimensions      [1 -3 0 0 0 0 0];


internalField   nonuniform List<scalar> 
160
(
1.032035142
1.032028012
1.032022771
1.032023917
1.032023129
1.032024117
1.032023369
1.032024384
1.032024207
1.032024035
1.032024806
1.032023751
1.03202364
1.032023605
1.032023298
1.032023952
1.0320236
1.032024146
1.032023959
1.032024385
1.032024306
1.032024462
1.032024508
1.032024576
1.032025038
1.032026085
1.032027122
1.032028948
1.03203054
1.032033449
1.032035329
1.032038843
1.032042862
1.032047905
1.03205358
1.032060204
1.032067927
1.032076927
1.03208559
1.032098428
1.032109367
1.032119302
1.032137105
1.032157681
1.032180693
1.032216656
1.032241612
1.032272003
1.032317401
1.032343896
1.032368763
1.032424397
1.032451668
1.032525904
1.032570327
1.032600351
1.032659613
1.032694093
1.03272198
1.032750883
1.032749563
1.032742017
1.032562262
1.032492053
1.031982585
1.031876183
1.031168169
1.030806651
1.030136853
1.027368592
1.025196328
1.020095676
1.017426592
1.011390505
1.00937477
1.014966661
1.02023138
1.057992828
1.083201224
1.142519248
1.1829505
1.249303407
1.294313194
1.361170807
1.405245751
1.441769057
1.469197405
1.526143679
1.569583924
1.63260836
1.671010334
1.724910871
1.748184036
1.781594489
1.784410818
1.775434967
1.773514146
1.764752042
1.761245273
1.753019265
1.750012632
1.744133223
1.742543511
1.738039604
1.737059967
1.735683954
1.732334231
1.731269418
1.726533114
1.725266661
1.720297551
1.719242287
1.714844559
1.71391344
1.711087619
1.710147856
1.709491143
1.706353565
1.705638291
1.702946895
1.702290627
1.699719528
1.699549131
1.697989924
1.697612173
1.696477097
1.696216662
1.695452873
1.695313882
1.695208494
1.694923738
1.694887315
1.694641325
1.694612769
1.694493905
1.694489195
1.694486055
1.694492607
1.694508596
1.694526052
1.694543106
1.69456434
1.694584634
1.694610189
1.694631269
1.694656644
1.694675568
1.69469806
1.694715051
1.694735625
1.694745302
1.694760488
1.694767994
1.694779445
1.694785663
1.6947946
1.694800051
1.694805422
1.69480188
1.694788842
)
;

boundaryField
{
    sides
    {
        type            calculated;
        value           nonuniform List<scalar> 2(1.694788842 1.032035142);
    }
    empty1
    {
        type            empty;
    }
    empty2
    {
        type            empty;
    }
}


// ************************************************************************* //
