/*--------------------------------*- C++ -*----------------------------------*\
| =========                 |                                                 |
| \\      /  F ield         | OpenFOAM: The Open Source CFD Toolbox           |
|  \\    /   O peration     | Version:  2012                                  |
|   \\  /    A nd           | Website:  www.openfoam.com                      |
|    \\/     M anipulation  |                                                 |
\*---------------------------------------------------------------------------*/
FoamFile
{
    version     2.0;
    format      ascii;
    class       volScalarField;
    location    "0.3";
    object      T;
}
// * * * * * * * * * * * * * * * * * * * * * * * * * * * * * * * * * * * * * //

dimensions      [0 0 0 1 0 0 0];


internalField   nonuniform List<scalar> 
160
(
249.4034217
249.4034246
249.4034251
249.4034165
249.4034065
249.4032524
249.4032443
249.4028709
249.4028387
249.4027909
249.4024845
249.40247
249.4024532
249.4021249
249.4021032
249.4016313
249.4016148
249.4011161
249.4010937
249.4005673
249.4005471
249.400101
249.4000857
249.3996602
249.3996399
249.3991312
249.3991068
249.3983939
249.3983535
249.3974886
249.3974498
249.3967517
249.3967166
249.3958411
249.3957873
249.3947282
249.3946558
249.3932873
249.3931969
249.3924077
249.3912097
249.3910033
249.3906136
249.3863375
249.3859764
249.3786627
249.3782329
249.3755275
249.3672113
249.3664531
249.3650698
249.3518601
249.3507961
249.3348253
249.3334273
249.3322632
249.3205576
249.3203176
249.3202001
249.3216599
249.3228483
249.3239396
249.378819
249.3833696
249.5325853
249.5428489
249.7689402
249.7944397
249.8169361
250.6354785
250.6643274
252.8540118
252.8876514
255.7825677
255.8183884
258.922486
258.958938
262.10759
262.1437075
265.263223
265.2985257
268.3598263
268.3942024
271.3971714
271.4307683
274.3935666
274.4266727
277.3752249
277.4081487
280.3655591
280.3985172
283.3755462
283.4085709
286.3936781
286.4265422
289.3727247
289.4049171
292.1852059
292.2161014
294.4277869
294.457869
295.7268238
295.759659
296.7553535
296.7924669
296.8788186
297.6747614
297.7186662
298.7108796
298.7565429
299.7415881
299.7863907
300.7282173
300.7694778
301.4433361
301.4901783
301.5268302
302.233077
302.2634486
302.8516411
302.8757203
303.3509083
303.370217
303.7206244
303.7344287
303.9936364
304.0035683
304.1857919
304.1925509
304.2026759
304.2758187
304.2792785
304.336475
304.3383256
304.3680971
304.3689621
304.3723447
304.3748516
304.3748169
304.3747356
304.3746331
304.3719927
304.3718154
304.3679372
304.3677195
304.3633905
304.3631779
304.3593244
304.3591496
304.3554362
304.3552849
304.352533
304.3524395
304.3503545
304.350248
304.348643
304.34859
304.3476756
304.3476415
304.3476266
)
;

boundaryField
{
    sides
    {
        type            zeroGradient;
    }
    empty1
    {
        type            empty;
    }
    empty2
    {
        type            empty;
    }
}


// ************************************************************************* //
