/*--------------------------------*- C++ -*----------------------------------*\
| =========                 |                                                 |
| \\      /  F ield         | OpenFOAM: The Open Source CFD Toolbox           |
|  \\    /   O peration     | Version:  2012                                  |
|   \\  /    A nd           | Website:  www.openfoam.com                      |
|    \\/     M anipulation  |                                                 |
\*---------------------------------------------------------------------------*/
FoamFile
{
    version     2.0;
    format      ascii;
    class       surfaceScalarField;
    location    "0.85";
    object      alphaPhi0.water;
}
// * * * * * * * * * * * * * * * * * * * * * * * * * * * * * * * * * * * * * //

dimensions      [0 3 -1 0 0 0 0];
oriented        oriented;


internalField   nonuniform List<scalar> 
4432
(
-3.94561e-06
3.94561e-06
-8.98508e-06
5.03947e-06
-1.46917e-05
5.70666e-06
-2.0405e-05
5.71329e-06
-2.36876e-05
3.28258e-06
-2.30553e-05
-6.32338e-07
-2.04034e-05
-2.65183e-06
-1.79851e-05
-2.41827e-06
-1.63265e-05
-1.6587e-06
-1.5219e-05
-1.10746e-06
-1.46368e-05
-5.82199e-07
-1.4636e-05
-8.27079e-10
-1.50319e-05
3.95971e-07
-1.52278e-05
1.95821e-07
-1.45899e-05
-6.35783e-07
-1.41679e-05
3.01123e-09
-1.76743e-05
3.43334e-06
-2.35772e-05
5.38822e-06
-2.54672e-05
1.93552e-06
-2.1252e-05
-4.1046e-06
-1.41982e-05
-6.81191e-06
-6.40428e-06
-7.80506e-06
-6.4267e-06
-8.14807e-06
1.20937e-05
-1.57865e-05
1.26779e-05
-2.21243e-05
1.20444e-05
-2.60412e-05
9.63022e-06
-2.64795e-05
3.72085e-06
-2.42912e-05
-2.82059e-06
-2.11198e-05
-5.82319e-06
-1.8376e-05
-5.16207e-06
-1.64844e-05
-3.55034e-06
-1.51223e-05
-2.46955e-06
-1.41027e-05
-1.6018e-06
-1.35122e-05
-5.91382e-07
-1.35766e-05
4.60385e-07
-1.46652e-05
1.28443e-06
-1.70194e-05
1.78992e-06
-1.94855e-05
3.29524e-06
-2.20149e-05
5.88891e-06
-2.16809e-05
4.97483e-06
-1.74132e-05
-2.5e-06
-1.18781e-05
-9.65774e-06
-7.72571e-06
-1.13063e-05
-3.36714e-06
-1.22438e-05
-9.79417e-06
-8.62654e-06
2.07202e-05
-1.59754e-05
2.00267e-05
-2.18565e-05
1.79256e-05
-2.58353e-05
1.3609e-05
-2.70232e-05
4.90871e-06
-2.526e-05
-4.58374e-06
-2.21332e-05
-8.94996e-06
-1.93093e-05
-7.98607e-06
-1.71994e-05
-5.66018e-06
-1.55443e-05
-4.12465e-06
-1.41013e-05
-3.04477e-06
-1.2791e-05
-1.90171e-06
-1.17349e-05
-5.9574e-07
-1.13365e-05
8.86014e-07
-1.21811e-05
2.63461e-06
-1.34896e-05
4.88191e-06
-1.28886e-05
5.98524e-06
-9.90709e-06
1.92419e-06
-5.43932e-06
-7.04715e-06
-1.90745e-06
-1.35163e-05
-4.17575e-07
-1.34047e-05
3.21843e-07
-1.31384e-05
-9.47269e-06
-7.71507e-06
2.84353e-05
-1.43872e-05
2.66989e-05
-2.01e-05
2.36383e-05
-2.43395e-05
1.78485e-05
-2.58839e-05
6.45304e-06
-2.46826e-05
-5.78504e-06
-2.23992e-05
-1.12334e-05
-2.02517e-05
-1.01335e-05
-1.8294e-05
-7.6179e-06
-1.65281e-05
-5.89059e-06
-1.49866e-05
-4.58628e-06
-1.35922e-05
-3.29613e-06
-1.22697e-05
-1.91821e-06
-1.09504e-05
-4.33242e-07
-9.6175e-06
1.30166e-06
-7.83536e-06
3.09978e-06
-4.71538e-06
2.94052e-06
-1.03336e-06
-1.69291e-06
1.84503e-06
-1.01416e-05
3.30723e-06
-1.49785e-05
3.11468e-06
-1.32122e-05
2.00854e-06
-1.20323e-05
-7.46439e-06
-6.37943e-06
3.48147e-05
-1.22209e-05
3.25403e-05
-1.72853e-05
2.87028e-05
-2.09183e-05
2.14815e-05
-2.2296e-05
7.8308e-06
-2.19781e-05
-6.10301e-06
-2.14304e-05
-1.1781e-05
-2.07802e-05
-1.07837e-05
-1.94464e-05
-8.95176e-06
-1.76356e-05
-7.70137e-06
-1.58658e-05
-6.35609e-06
-1.43235e-05
-4.83837e-06
-1.29726e-05
-3.26919e-06
-1.16663e-05
-1.73945e-06
-1.00535e-05
-3.11131e-07
-7.4429e-06
4.89142e-07
-3.62419e-06
-8.78181e-07
2.3814e-07
-5.55523e-06
2.50115e-06
-1.24046e-05
3.34029e-06
-1.58176e-05
3.1168e-06
-1.29887e-05
2.15298e-06
-1.10685e-05
-5.31141e-06
-4.7062e-06
3.95209e-05
-9.38386e-06
3.7218e-05
-1.32933e-05
3.26123e-05
-1.58889e-05
2.40771e-05
-1.70681e-05
9.01001e-06
-1.79282e-05
-5.24288e-06
-1.97051e-05
-1.00041e-05
-2.09777e-05
-9.51114e-06
-2.04733e-05
-9.45608e-06
-1.86402e-05
-9.53456e-06
-1.64973e-05
-8.49891e-06
-1.46205e-05
-6.71522e-06
-1.31089e-05
-4.78072e-06
-1.18733e-05
-2.9751e-06
-1.0641e-05
-1.54347e-06
-8.76549e-06
-1.38633e-06
-5.65386e-06
-3.98981e-06
-1.84978e-06
-9.3593e-06
1.1164e-06
-1.53708e-05
2.84418e-06
-1.75454e-05
3.24659e-06
-1.33911e-05
2.4608e-06
-1.02827e-05
-2.85062e-06
-2.79749e-06
4.23184e-05
-6.37662e-06
4.07971e-05
-9.12555e-06
3.53612e-05
-1.04007e-05
2.53522e-05
-1.11133e-05
9.72257e-06
-1.36639e-05
-2.68489e-06
-1.82251e-05
-5.42339e-06
-2.09807e-05
-6.75554e-06
-2.06634e-05
-9.77345e-06
-1.82994e-05
-1.18986e-05
-1.54993e-05
-1.1299e-05
-1.31756e-05
-9.03892e-06
-1.1554e-05
-6.40233e-06
-1.05978e-05
-3.93125e-06
-1.00047e-05
-2.13664e-06
-8.9551e-06
-2.4359e-06
-6.32775e-06
-6.61715e-06
-2.02449e-06
-1.36625e-05
2.44617e-06
-1.98413e-05
4.86311e-06
-1.99622e-05
5.16267e-06
-1.36906e-05
3.52811e-06
-8.64812e-06
6.7745e-07
-5.69275e-07
4.28877e-05
-2.23869e-06
4.24665e-05
-2.80563e-06
3.59281e-05
-1.9967e-06
2.45433e-05
-3.55357e-06
1.12794e-05
-1.03737e-05
4.16825e-06
-1.77947e-05
1.91186e-06
-2.05637e-05
-3.98575e-06
-1.92742e-05
-1.1063e-05
-1.61148e-05
-1.5058e-05
-1.29849e-05
-1.44292e-05
-1.05047e-05
-1.15194e-05
-8.75363e-06
-8.15366e-06
-7.90713e-06
-4.77782e-06
-7.95385e-06
-2.08992e-06
-7.73318e-06
-2.65658e-06
-4.99711e-06
-9.35316e-06
4.16697e-07
-1.90753e-05
6.05991e-06
-2.54787e-05
8.70313e-06
-2.26018e-05
8.12994e-06
-1.31172e-05
4.73918e-06
-5.25741e-06
5.41659e-06
-1.41608e-05
1.41734e-05
-3.68366e-05
2.34337e-05
-4.31578e-05
5.97874e-06
-2.89567e-05
-1.45661e-05
-5.05366e-06
-2.41918e-05
9.78152e-06
-1.56189e-05
1.98933e-06
7.43206e-06
-1.96974e-05
2.13342e-05
-2.21232e-05
1.39435e-06
-2.04954e-06
-2.15509e-05
7.86859e-06
-9.52311e-06
1.19367e-05
-3.64182e-06
8.98335e-06
2.70154e-06
3.00597e-06
7.05496e-06
-1.39768e-05
1.46369e-05
-2.82618e-05
1.42861e-05
-3.1587e-05
3.32595e-06
-1.73845e-05
-1.41946e-05
-1.96588e-05
-2.51219e-05
3.91657e-05
-4.06861e-05
3.92175e-05
-3.61028e-05
1.76374e-06
-2.21191e-05
-2.78588e-05
-7.64872e-06
-3.80588e-05
-1.31556e-05
-9.59568e-06
-3.16874e-05
2.62319e-05
-2.44363e-05
1.22066e-05
-9.26359e-06
-1.51638e-05
-9.70604e-08
-2.93749e-05
5.80746e-06
-1.86613e-05
1.01753e-05
-1.1073e-05
1.22653e-05
3.64632e-07
1.12084e-05
9.6879e-06
1.38879e-06
2.13724e-05
-1.25981e-05
2.52322e-05
-2.87972e-05
1.21461e-05
-1.86769e-05
-2.43249e-05
-3.44895e-05
-2.16608e-05
6.10121e-05
-2.77324e-05
4.55848e-05
-2.12241e-05
-2.07808e-06
-1.65161e-05
-3.05788e-05
-1.74785e-05
-3.7339e-05
-3.42499e-05
7.66021e-06
-3.25443e-05
2.81714e-05
-1.72102e-05
2.28493e-06
-1.08992e-05
-1.22404e-05
-1.52838e-05
-1.05674e-05
-1.31481e-05
-1.2099e-05
-5.61763e-06
-1.83559e-05
1.09016e-06
-6.21356e-06
3.35411e-06
7.51174e-06
4.08041e-06
2.47068e-05
-6.63036e-07
2.90986e-05
-7.97962e-06
1.85857e-05
-2.60263e-06
-2.82705e-05
-1.37069e-05
-1.49378e-05
7.61309e-05
-1.53197e-05
4.34172e-05
-1.20008e-05
-5.45517e-06
-1.05567e-05
-3.20811e-05
-2.20909e-05
-2.81001e-05
-3.835e-05
2.47543e-05
-2.65095e-05
2.25639e-05
-1.45509e-05
1.00551e-06
-6.64863e-06
-4.13072e-07
-5.4793e-06
-1.62765e-06
-1.0289e-05
-3.70993e-06
-2.22821e-05
-9.91246e-06
-1.63708e-05
-1.69734e-05
-8.62087e-06
-1.69101e-07
-4.93452e-06
2.11411e-05
-1.56624e-06
2.94629e-05
2.79021e-07
1.68607e-05
-1.33729e-06
-2.32648e-05
-1.67502e-05
-8.04147e-06
8.43194e-05
-7.37635e-06
4.74511e-05
-3.1495e-06
-9.73849e-06
-5.07674e-06
-3.0251e-05
-2.19532e-05
-1.17982e-05
-3.67047e-05
4.07971e-05
-1.7422e-05
1.96007e-05
-3.23106e-06
3.52829e-06
-4.39273e-06
6.29886e-07
-4.8154e-06
-1.02605e-06
-5.47271e-06
-2.99053e-06
-1.127e-05
-6.375e-06
-4.08651e-05
-2.78912e-05
-2.69544e-05
-1.77556e-05
-2.03425e-05
1.46425e-05
-1.49006e-05
2.41839e-05
-6.21204e-06
8.95647e-06
-5.6462e-06
-1.09087e-05
-2.41025e-05
-2.39772e-06
8.58295e-05
1.52029e-06
4.76564e-05
5.15655e-06
-1.42263e-05
4.46687e-07
-2.41176e-05
-2.10809e-05
9.20528e-06
-3.28786e-05
5.56491e-05
-4.18874e-06
1.44958e-05
-4.04166e-06
3.26249e-06
-5.09375e-06
1.5803e-06
-5.49287e-06
-7.45649e-07
-6.74137e-06
-1.98108e-06
-1.28625e-05
-4.38701e-06
-7.18159e-05
-3.82385e-05
-5.19163e-05
-3.74777e-05
-3.917e-05
2.05721e-06
-3.37835e-05
1.89953e-05
-2.07082e-05
6.75216e-06
-1.36473e-05
-2.95756e-05
-7.01046e-05
4.51551e-06
8.2429e-05
1.17243e-05
4.12825e-05
1.48591e-05
-2.0339e-05
1.70339e-06
-1.32285e-05
-2.20721e-05
3.12283e-05
-2.66824e-05
6.62347e-05
-3.42117e-06
1.12907e-05
-5.34357e-06
5.00883e-06
-6.00325e-06
2.12126e-06
-5.66031e-06
-1.26465e-06
-5.60641e-06
-2.40622e-06
-1.76481e-05
-3.86461e-06
-8.49612e-05
-3.11517e-05
-7.60377e-05
-4.64422e-05
-6.48656e-05
-8.91703e-06
-3.90888e-05
8.87142e-06
-2.62315e-05
-1.4036e-05
-4.34502e-06
-6.77149e-05
-7.43977e-05
9.52742e-06
7.30561e-05
1.85719e-05
2.98211e-05
1.96349e-05
-2.30319e-05
1.74194e-06
1.29638e-06
-2.35032e-05
5.43516e-05
-2.14267e-05
7.36389e-05
-5.51491e-06
1.29792e-05
-7.72996e-06
7.06596e-06
-9.63722e-06
3.85246e-06
-1.00145e-05
-6.8165e-06
-6.94549e-06
-6.68766e-06
-1.36011e-05
-3.57836e-06
-6.23217e-05
-2.71506e-05
-8.2178e-05
-5.02878e-05
-6.69862e-05
-2.05677e-05
-4.18413e-05
-8.8011e-06
-2.5999e-05
-4.03904e-05
-4.83426e-07
-9.31719e-05
-7.48343e-05
9.08744e-06
3.38002e-05
7.67535e-06
4.38786e-05
2.84874e-06
4.07547e-05
-8.25876e-06
3.56508e-05
-2.57053e-05
2.83859e-05
-4.28196e-05
2.12804e-05
-5.03636e-05
9.45546e-06
-5.13741e-05
-2.97371e-06
-4.89697e-05
-1.34681e-05
-4.39921e-05
-1.86944e-05
-3.85939e-05
-1.64176e-05
-3.34478e-05
-1.34767e-05
-2.76306e-05
-1.18564e-05
-2.23979e-05
-9.56369e-06
-2.04669e-05
-4.02274e-06
-2.11965e-05
-1.92721e-06
-1.89508e-05
-1.15932e-05
-1.07721e-05
-2.32365e-05
4.16109e-06
-2.82078e-05
1.87944e-05
-2.56108e-05
2.47368e-05
-1.31505e-05
1.56749e-05
3.4699e-06
1.15651e-05
9.52623e-06
-7.43821e-06
1.79705e-05
-1.97621e-05
2.61234e-05
-3.55987e-05
2.86606e-05
-4.47085e-05
3.07707e-05
-5.64859e-05
2.53939e-05
-7.19819e-05
2.20233e-05
-8.49887e-05
1.50788e-05
-8.88965e-05
4.04015e-06
-7.43652e-05
-7.06332e-07
-4.90319e-05
-5.88643e-06
-3.43148e-05
-5.2075e-06
-2.8585e-05
-5.96022e-07
-2.78756e-05
-1.59318e-06
-3.50722e-05
-3.75141e-06
-5.1883e-05
2.64976e-07
-7.15778e-05
6.43496e-06
-7.69451e-05
1.01931e-06
-4.84785e-05
-2.25628e-05
-1.75241e-05
-3.31565e-05
-1.13432e-06
-1.9161e-05
1.43211e-05
-1.22281e-05
2.19046e-05
1.14735e-06
5.17492e-06
2.00705e-05
-1.5475e-05
2.11458e-05
-1.7539e-05
1.52282e-05
-5.2185e-05
2.80001e-05
-0.000164717
4.37461e-05
-0.000181233
5.19851e-05
-0.000182747
3.38431e-05
-7.70056e-05
1.44391e-05
-9.04884e-06
-9.46266e-07
-6.80984e-06
-4.96436e-06
-3.69092e-06
-1.13696e-05
-2.27506e-06
-4.27276e-06
-2.74825e-06
-1.66694e-07
-5.1944e-06
6.48816e-07
-1.01308e-05
9.45484e-07
-3.14643e-05
7.02467e-07
-5.01491e-05
-9.26347e-09
-6.87102e-05
-8.77434e-06
-6.97901e-05
-4.46145e-05
-3.07839e-05
-5.29229e-05
-9.74434e-06
-4.27588e-05
9.15967e-07
-2.61948e-05
1.49929e-06
-1.24274e-06
1.69235e-06
-5.0324e-09
-6.49514e-05
4.47055e-05
-0.000176302
6.15444e-05
-0.000210975
7.87477e-05
-0.000217654
6.46784e-05
-0.000137767
2.40763e-05
-4.37403e-05
-2.07591e-06
-4.22682e-05
1.67666e-07
-3.68705e-05
-8.48687e-06
-4.4712e-05
-1.14097e-05
-4.33138e-05
-1.58463e-05
-1.32367e-05
-1.39316e-05
-3.30281e-06
-4.55791e-06
-3.17594e-06
3.26641e-07
-3.46476e-06
1.0305e-06
-3.6551e-06
6.53284e-07
-3.48731e-06
-4.32623e-07
-1.26139e-05
-2.59403e-06
-3.19182e-05
-1.66956e-05
-3.97071e-05
-4.20867e-05
-3.43065e-05
-4.49339e-05
-1.61365e-05
-4.06325e-05
-1.74846e-06
-5.71685e-06
1.83521e-06
-2.68067e-06
-6.19748e-05
6.05578e-05
-0.000117089
6.21619e-05
-0.00010324
1.76947e-05
-3.90096e-05
2.37193e-06
-1.20189e-05
8.00673e-07
-1.77257e-05
9.55212e-08
-5.6303e-05
3.46033e-07
-5.9753e-05
-1.86083e-06
-6.02857e-05
-7.1608e-06
-5.61359e-05
-1.6069e-05
-4.86248e-05
-1.75302e-05
-3.71465e-05
-1.24625e-05
-6.78552e-06
-9.05533e-06
-2.51452e-06
-3.76331e-06
-1.12089e-06
-1.63242e-06
-6.76675e-07
-1.72053e-06
-1.55751e-06
-3.10054e-06
-1.09454e-05
-6.44316e-06
-3.26409e-05
-2.32079e-05
-3.76815e-05
-3.66678e-05
-3.51462e-05
-3.99422e-05
-3.42625e-06
-1.32628e-05
1.86236e-06
-3.99297e-06
-3.85242e-05
5.40018e-05
-1.48515e-05
1.07023e-05
-3.33144e-06
1.90036e-06
-1.49815e-06
3.89549e-07
-8.30909e-07
8.44139e-08
-7.85605e-07
2.87698e-08
-6.88014e-07
-4.40325e-09
-3.68264e-06
-9.65661e-08
-2.63975e-05
-6.53898e-07
-4.51089e-05
-2.84657e-06
-5.15854e-05
-7.34706e-06
-4.93975e-05
-1.18005e-05
-4.02535e-05
-1.53494e-05
-2.65306e-05
-1.46363e-05
-1.47885e-05
-1.29729e-05
-8.81114e-06
-1.29395e-05
-5.84797e-06
-9.21186e-06
-4.72431e-06
-6.85304e-06
-2.98223e-05
-1.77913e-06
-4.121e-05
-2.20546e-05
-4.61394e-05
-3.088e-05
-2.77391e-05
-2.05736e-05
4.80453e-06
-2.29436e-06
-8.63816e-06
2.96637e-05
-1.59397e-06
2.90859e-06
-3.96272e-07
5.46743e-07
-1.04069e-07
6.98899e-08
-3.59221e-08
1.0167e-08
-1.02026e-08
1.94233e-09
-1.48376e-08
6.51809e-11
-1.10817e-07
-6.78805e-10
-7.58366e-07
-6.66646e-09
-3.56835e-06
-3.75333e-08
-1.11072e-05
-1.80888e-07
-2.76745e-05
-9.06692e-07
-3.6769e-05
-3.57688e-06
-3.89165e-05
-9.69224e-06
-3.22384e-05
-1.42334e-05
-2.47039e-05
-1.39679e-05
-2.18944e-05
-5.51527e-06
-8.01596e-06
-1.50382e-08
-9.88016e-06
5.88355e-10
-3.38881e-05
-3.94483e-06
-4.89538e-05
-2.01444e-05
-4.48504e-05
-1.89354e-05
5.34027e-06
-1.70431e-06
-2.48702e-06
3.27207e-06
-4.29956e-07
6.80204e-07
-6.17899e-08
1.53881e-07
-1.02012e-08
1.37249e-08
-1.93256e-09
1.13296e-09
-2.14761e-10
1.16495e-10
-1.59177e-10
7.1991e-12
-8.38648e-10
-6.89477e-14
-7.50447e-09
-8.62538e-13
-4.50319e-08
-5.78078e-12
-2.26008e-07
-3.13876e-11
-1.13244e-06
-1.58686e-10
-4.70863e-06
-6.56872e-10
-1.45235e-05
-2.65061e-09
-3.05645e-05
-8.98301e-09
-2.83465e-05
-2.72944e-08
-3.34856e-06
-6.62009e-08
-3.89666e-07
1.36526e-08
-4.1114e-07
-1.11973e-08
-4.11897e-06
-3.14937e-07
-2.9499e-05
-1.30555e-06
-3.98392e-05
-3.78763e-06
3.08898e-06
-2.22395e-06
-4.43882e-07
9.03645e-07
-1.21769e-07
3.15062e-07
-1.21326e-08
3.98452e-08
-1.12686e-09
2.11917e-09
-1.13621e-10
9.55411e-11
-7.06154e-12
4.27358e-12
-8.1261e-14
1.36264e-13
-1.65456e-13
3.14308e-15
-1.04209e-12
-6.89924e-15
-6.77748e-12
-1.51844e-13
-3.63492e-11
-2.12236e-12
-1.72025e-10
-2.38428e-11
-7.10267e-10
-1.1975e-10
-2.96951e-09
-3.7697e-10
-1.06814e-08
-1.11083e-09
-3.43177e-08
-2.66647e-09
-9.3842e-08
-1.72768e-09
-6.65393e-08
2.7665e-10
-7.60697e-08
-1.39976e-08
-3.41539e-07
-8.27278e-08
-1.43162e-06
-2.87325e-07
-4.67211e-06
-6.86609e-07
1.87596e-08
-1.98833e-06
-6.50137e-08
1.14355e-06
-3.42126e-08
3.27296e-07
-1.99792e-09
6.92046e-09
-9.60903e-11
1.6813e-10
-4.90682e-12
2.94818e-12
-1.78084e-13
-1.39037e-15
-4.67296e-14
-7.53002e-15
-4.92004e-14
-4.34289e-15
-6.85306e-14
2.29997e-16
-2.74433e-13
3.74552e-15
-2.58681e-12
-2.40789e-13
-2.32864e-11
-8.0884e-12
-8.43505e-11
-1.41943e-10
-4.72463e-10
-1.21161e-10
-1.65704e-09
-2.68208e-10
-4.41646e-09
-1.02184e-09
-2.28486e-08
-1.05573e-09
-4.43457e-08
-9.82177e-09
-5.4513e-08
-6.09558e-08
-1.33649e-07
-4.4576e-08
-3.41587e-07
-5.98849e-08
-8.92932e-07
-1.22144e-07
-4.28893e-08
-7.40658e-06
3.27449e-07
1.0947e-06
-1.17014e-08
8.04924e-07
-1.48303e-10
1.21816e-08
-3.09353e-12
2.06808e-11
-1.04114e-13
3.3685e-14
-5.40418e-14
-6.28973e-14
-3.83717e-14
-3.3336e-14
-3.43681e-14
-1.83319e-14
-2.88475e-14
-1.52765e-14
1.04401e-13
3.72156e-14
7.34009e-12
1.19938e-12
2.054e-12
1.81261e-12
-5.42821e-10
-8.71456e-12
-3.43345e-10
-1.66946e-10
-1.22883e-09
-1.74748e-12
-6.78408e-09
9.96104e-10
-2.10877e-07
8.49406e-09
-3.05102e-07
-7.22322e-09
-2.88785e-07
-6.08086e-08
-1.96315e-07
-1.02808e-07
-9.21608e-08
-1.41361e-07
-3.68381e-08
-1.73187e-07
-5.74383e-08
-2.10411e-08
3.13782e-07
7.61444e-07
1.05271e-07
1.63147e-06
5.97764e-10
1.96817e-07
-1.13659e-13
6.18247e-10
-2.08399e-13
4.34936e-14
-8.58019e-14
-1.25699e-13
-3.06277e-14
-9.99439e-14
-2.02589e-14
-3.87963e-14
-3.94692e-14
-1.7983e-14
-1.03226e-12
-3.59172e-13
-6.23015e-13
5.12138e-12
-1.40066e-11
5.23907e-12
-6.42782e-11
1.80035e-11
-1.42306e-09
5.78151e-10
-4.08209e-12
2.88979e-09
-1.30364e-08
7.64877e-09
-2.00205e-07
1.76684e-08
-2.02508e-07
1.01345e-08
-2.30777e-07
-1.81117e-08
-2.39236e-07
-7.7885e-08
-2.7057e-07
-9.19819e-08
-2.46509e-07
-1.43611e-07
-1.78777e-07
-1.04264e-07
2.86562e-07
2.16392e-07
4.93273e-07
1.54425e-06
2.25488e-08
7.2215e-07
8.86037e-10
2.66548e-08
-1.2882e-11
8.98955e-10
-6.63623e-13
-7.53333e-12
-4.91886e-14
-6.31028e-13
-1.1219e-16
-1.09801e-13
9.09014e-15
-6.86023e-14
3.08148e-12
-2.79938e-13
4.79739e-12
1.81103e-12
3.35545e-12
3.3451e-12
1.30942e-11
7.74979e-13
3.33988e-10
1.71863e-10
-5.80629e-09
4.90574e-09
-1.27174e-08
1.19934e-08
-1.49372e-08
1.05315e-08
-1.46718e-08
3.05171e-09
-2.8144e-08
-1.12807e-09
-2.82758e-08
-8.14266e-09
-4.8583e-08
-8.90972e-09
-1.92846e-07
-3.24645e-08
-1.08319e-07
-2.75886e-07
1.50163e-07
3.03081e-08
3.21211e-07
3.59487e-07
4.85439e-08
3.70728e-07
5.57122e-09
9.54019e-08
1.20473e-10
5.92022e-09
-1.46745e-11
2.13418e-10
-1.54814e-12
-1.54431e-11
-6.60383e-16
-1.94638e-12
9.32034e-14
-2.08897e-13
2.67629e-12
-4.75738e-14
8.76189e-12
1.15767e-12
6.01262e-12
2.69783e-12
8.11662e-12
3.18829e-13
1.69482e-10
1.02839e-11
9.06484e-10
6.40944e-10
-1.46513e-09
1.08482e-08
3.90342e-09
1.48603e-08
6.45267e-09
1.285e-08
3.24613e-10
-3.2504e-09
-1.49345e-09
-1.45763e-08
-5.17827e-09
-1.32334e-08
-2.92115e-08
-1.61935e-08
-3.33759e-08
-1.17381e-07
2.07282e-08
4.0459e-09
1.31614e-07
3.9428e-08
1.14008e-07
4.68134e-08
4.85108e-09
9.81309e-08
1.00756e-09
9.77933e-09
4.78087e-11
9.17558e-10
-1.33588e-12
7.90055e-12
2.73662e-13
-5.59647e-12
5.98233e-13
-6.46222e-13
3.65445e-13
-3.40386e-14
4.36966e-12
9.6452e-14
4.83092e-12
3.50369e-13
2.23507e-12
5.36342e-13
1.19114e-11
6.30702e-13
6.14759e-10
3.78851e-11
1.09648e-08
4.8373e-10
3.42664e-08
1.23336e-08
3.0252e-08
6.24513e-09
2.93309e-08
-1.30989e-08
6.5944e-09
-6.69043e-08
2.02375e-09
-2.98674e-08
-8.71031e-10
-2.10326e-08
-3.92634e-08
-6.78579e-09
3.32244e-09
3.04905e-10
3.03761e-08
7.15661e-09
4.35373e-08
1.29987e-08
2.56611e-08
1.0431e-08
7.67053e-10
1.14838e-08
1.53808e-10
9.77076e-10
1.50744e-11
7.00192e-11
1.39328e-12
-7.01437e-13
2.0287e-13
-2.3603e-13
1.43332e-13
1.23922e-14
7.49202e-14
8.53035e-15
2.22585e-13
7.6542e-15
4.80916e-13
1.1387e-15
1.06861e-12
5.52653e-14
3.69637e-11
2.64737e-12
4.85127e-10
3.26499e-11
1.17571e-08
2.12853e-10
6.30181e-08
1.66265e-09
5.46763e-08
-1.17732e-09
7.7076e-08
-6.08998e-08
3.22946e-08
-9.19919e-08
1.849e-08
-1.28086e-07
-1.7323e-07
1.25631e-08
2.61556e-10
1.06336e-11
6.12971e-09
8.72882e-10
1.00937e-08
3.67663e-09
5.93896e-09
1.00971e-09
2.49362e-09
1.22719e-09
7.38071e-11
6.37205e-10
1.77812e-11
4.90237e-11
2.08931e-12
4.45489e-12
2.8171e-13
3.54257e-13
9.77065e-14
5.7012e-14
3.39923e-14
1.30853e-14
2.65721e-14
8.35446e-15
4.80908e-14
1.15846e-14
1.0481e-13
1.65119e-14
2.6352e-12
1.20167e-13
3.39623e-11
1.65005e-12
2.40386e-10
1.23322e-11
2.27453e-09
3.88638e-11
2.13118e-08
2.55932e-11
9.47745e-08
-1.67241e-10
8.43375e-08
-5.6242e-08
7.12633e-08
-9.3443e-08
-1.46927e-07
6.50415e-08
-7.24624e-12
1.60529e-12
7.62616e-10
7.05637e-11
2.31558e-09
7.51381e-10
1.4217e-09
4.10307e-10
4.66286e-10
-1.16356e-10
2.53979e-11
1.67756e-11
2.74465e-12
1.08886e-11
5.38105e-13
1.53097e-12
8.46966e-14
2.14753e-13
3.93654e-14
3.62563e-14
2.2083e-14
1.09471e-14
2.06591e-14
8.44542e-15
2.77977e-14
1.00541e-14
3.7631e-14
1.455e-14
1.43812e-13
1.21283e-14
1.7604e-12
7.00635e-14
1.39529e-11
5.57088e-13
5.35958e-11
2.64637e-12
7.79174e-11
1.10647e-11
4.78161e-10
-3.34799e-11
1.36297e-07
-2.05789e-09
1.29536e-07
-2.50335e-10
-1.50516e-08
1.16919e-07
-2.44229e-12
1.03226e-12
5.01167e-11
4.7302e-12
3.54196e-10
1.25618e-10
3.35945e-10
8.72603e-11
6.87398e-11
-8.46871e-12
8.02967e-12
-3.85255e-12
2.81161e-13
5.94423e-13
5.11136e-14
2.69919e-13
3.66292e-14
6.15155e-14
2.58765e-14
1.78604e-14
1.77373e-14
7.43954e-15
1.69403e-14
6.96285e-15
2.1989e-14
7.92555e-15
3.00618e-14
1.26929e-14
3.11376e-14
1.09476e-14
9.02261e-14
7.56284e-15
6.49167e-13
1.32267e-14
3.38006e-12
5.09059e-14
1.88592e-12
9.4405e-14
2.31898e-09
1.2021e-10
2.77274e-10
-1.81298e-11
2.97998e-11
-2.86424e-12
-9.30988e-13
8.67623e-10
1.1753e-13
2.0713e-13
-9.73944e-13
4.54351e-13
4.41079e-11
1.83017e-11
5.20906e-11
1.41509e-11
1.46715e-11
-4.18005e-13
2.21376e-12
-2.81232e-13
2.86752e-13
5.71575e-14
6.51872e-14
5.6293e-14
3.05344e-14
2.11453e-14
1.2498e-14
6.31763e-15
1.00391e-14
3.27157e-15
1.12963e-14
3.99399e-15
1.65572e-14
5.43411e-15
2.45703e-14
7.86875e-15
2.62162e-14
9.39473e-15
2.14265e-14
6.66352e-15
2.92172e-14
4.15201e-15
1.01534e-13
9.61312e-16
2.09829e-13
2.59131e-15
3.00628e-11
6.0898e-14
2.8285e-12
-4.45201e-13
6.39003e-13
-6.92325e-13
-4.33282e-13
1.3245e-13
2.16239e-14
3.21964e-14
-5.31485e-13
1.49725e-13
5.27188e-12
2.39777e-12
7.20169e-12
1.84879e-12
2.16547e-12
5.21285e-14
4.36728e-13
1.86302e-14
8.66648e-14
3.51972e-14
2.80523e-14
1.9755e-14
7.98809e-15
4.81428e-15
3.75728e-15
1.21659e-15
3.51154e-15
1.06985e-15
6.3802e-15
1.82235e-15
1.08461e-14
3.25658e-15
1.57233e-14
4.23072e-15
1.92312e-14
5.79118e-15
1.85747e-14
5.30028e-15
1.30929e-14
3.31918e-15
8.23326e-15
1.40653e-15
5.11327e-15
3.4706e-16
6.55248e-14
-4.18168e-16
1.28314e-12
-6.06985e-16
1.41557e-12
-3.76945e-15
-4.62373e-14
1.58725e-13
-3.03113e-16
5.33086e-15
2.58078e-14
2.32515e-14
6.86475e-13
3.13349e-13
8.93893e-13
2.22324e-13
2.98128e-13
3.92378e-14
7.44794e-14
2.30479e-14
2.26572e-14
1.60767e-14
5.7645e-15
4.29309e-15
1.32872e-15
7.30906e-16
9.48295e-16
2.4882e-16
1.21396e-15
3.56343e-16
3.08698e-15
8.10236e-16
6.02505e-15
1.67734e-15
8.64394e-15
2.26845e-15
1.16722e-14
2.7606e-15
1.24303e-14
2.83365e-15
1.05785e-14
2.16187e-15
6.51251e-15
1.15453e-15
2.53491e-15
2.48585e-16
1.3645e-15
-4.9718e-17
9.22446e-16
-1.54833e-16
1.96275e-14
-8.71265e-16
-2.5598e-15
4.98317e-14
2.12707e-16
7.43326e-16
1.15812e-14
1.5165e-14
8.75174e-14
4.44204e-14
1.05044e-13
2.69757e-14
3.7156e-14
1.60943e-14
1.30195e-14
9.24552e-15
3.86672e-15
2.94746e-15
7.43343e-16
5.49932e-16
2.25771e-16
1.0049e-16
1.9628e-16
5.49454e-17
4.77194e-16
1.23689e-16
1.33378e-15
3.27939e-16
2.85284e-15
7.05713e-16
4.31514e-15
1.09551e-15
5.41315e-15
1.16499e-15
5.82882e-15
1.07698e-15
5.73588e-15
8.38757e-16
4.37865e-15
5.13173e-16
2.22489e-15
1.54173e-16
8.08254e-16
-3.61768e-17
7.6012e-16
-5.19821e-17
1.26671e-15
-8.35115e-17
-1.69991e-16
2.6637e-15
2.66444e-17
9.02603e-17
2.58178e-15
5.46377e-15
1.09967e-14
8.08034e-15
1.15058e-14
6.39815e-15
5.31344e-15
3.75008e-15
1.76885e-15
1.37969e-15
4.16377e-16
3.1425e-16
8.76136e-17
6.14289e-17
3.9711e-17
1.24964e-17
3.87974e-17
1.099e-17
1.57225e-16
3.46339e-17
4.58693e-16
9.63669e-17
1.05453e-15
2.13162e-16
1.72247e-15
3.87126e-16
1.88473e-15
3.71734e-16
1.91743e-15
2.78881e-16
1.84281e-15
1.95654e-16
1.59493e-15
1.17908e-16
1.04138e-15
4.15124e-17
3.6697e-16
-8.59527e-18
1.79452e-16
-1.31394e-17
1.68401e-16
-1.34521e-17
-2.00081e-17
2.49199e-16
2.9762e-18
9.89228e-18
4.36224e-16
5.28479e-16
1.37127e-15
1.21982e-15
1.31908e-15
9.18853e-16
5.73973e-16
4.15867e-16
1.72476e-16
1.26577e-16
4.22525e-17
3.07331e-17
9.44184e-18
6.19214e-18
5.43857e-18
1.40555e-18
7.36738e-18
1.63785e-18
3.45378e-17
5.62189e-18
1.05847e-16
1.62893e-17
2.60007e-16
3.79299e-17
4.39397e-16
7.49115e-17
4.5406e-16
6.57018e-17
3.9731e-16
4.4892e-17
3.29888e-16
2.50769e-17
2.75247e-16
1.26662e-17
2.0225e-16
4.60253e-18
9.73054e-17
-5.60899e-19
3.61832e-17
-1.64168e-18
2.96016e-17
-2.02472e-18
-2.96677e-18
2.97769e-17
3.16666e-19
1.01257e-18
5.23398e-17
5.04159e-17
1.47822e-16
1.16792e-16
1.22537e-16
7.83211e-17
5.10164e-17
3.44684e-17
1.58229e-17
1.11181e-17
3.93515e-18
2.76234e-18
9.28766e-19
5.67676e-19
6.43741e-19
1.43577e-19
9.36172e-19
1.70299e-19
4.46923e-18
5.13768e-19
1.43094e-17
1.48276e-18
3.6898e-17
3.53816e-18
6.20791e-17
6.93275e-18
6.33405e-17
5.9974e-18
4.92375e-17
3.98494e-18
3.21959e-17
1.84013e-18
2.30536e-17
7.09825e-19
1.70353e-17
2.3915e-19
1.03398e-17
-6.05997e-21
5.57051e-18
-1.32031e-19
4.83569e-18
-2.85465e-19
-5.47528e-19
4.98083e-18
3.17783e-20
9.75937e-20
5.42855e-18
5.03906e-18
1.33928e-17
9.55834e-18
1.00344e-17
6.18926e-18
4.23512e-18
2.7719e-18
1.33706e-18
9.09342e-19
3.35799e-19
2.28235e-19
8.41731e-20
4.77398e-20
6.25548e-20
1.36288e-20
9.17328e-20
1.52923e-20
3.84082e-19
3.7731e-20
1.19541e-18
9.62358e-20
3.06517e-18
2.13486e-19
5.13368e-18
4.00925e-19
5.23547e-18
3.55562e-19
3.8911e-18
2.39728e-19
2.07448e-18
1.07118e-19
1.10783e-18
3.18318e-20
7.54183e-19
8.29807e-21
6.70758e-19
9.7442e-22
6.51047e-19
-6.95601e-21
8.05213e-19
-2.37471e-20
-3.6075e-20
9.40458e-19
2.98235e-21
8.85989e-21
5.09003e-19
4.67659e-19
1.10196e-18
7.47073e-19
7.58464e-19
4.65591e-19
3.25611e-19
2.08679e-19
1.04236e-19
6.90907e-20
2.63711e-20
1.74276e-20
7.10835e-21
3.70863e-21
5.61848e-21
1.22265e-21
8.51773e-21
1.44635e-21
2.94457e-20
3.08854e-21
8.11243e-20
6.57283e-21
1.93514e-19
1.27507e-20
3.1859e-19
2.24012e-20
3.25464e-19
1.9788e-20
2.40905e-19
1.3464e-20
1.18796e-19
6.25456e-21
4.55444e-20
1.69676e-21
3.01937e-20
3.28712e-22
2.93992e-20
8.19275e-23
4.99838e-20
-1.35718e-22
6.44782e-20
-4.61326e-22
-1.04045e-21
6.12877e-20
2.61716e-22
7.58725e-22
4.32359e-20
4.00568e-20
8.34355e-20
5.44646e-20
5.32813e-20
3.27703e-20
2.32701e-20
1.46956e-20
7.52707e-21
4.89449e-21
1.91383e-21
1.23602e-21
5.64601e-22
2.6761e-22
4.76859e-22
1.03735e-22
8.16735e-22
1.39183e-22
2.35896e-21
2.78693e-22
5.58578e-21
5.12525e-22
1.20018e-20
8.79635e-22
1.84768e-20
1.38175e-21
1.8835e-20
1.17581e-21
1.35814e-20
7.79053e-22
6.55358e-21
3.59935e-22
2.08621e-21
1.01147e-22
9.37367e-22
1.62377e-23
8.74104e-22
2.79599e-24
1.21109e-21
-1.30529e-24
1.62411e-21
-1.04214e-23
-1.50127e-22
2.60901e-21
2.15736e-23
6.1428e-23
3.33908e-21
3.19103e-21
5.84599e-21
3.71084e-21
3.49264e-21
2.16263e-21
1.55172e-21
9.71256e-22
5.05274e-22
3.2454e-22
1.28863e-22
8.1797e-23
4.21558e-23
1.80337e-23
3.79001e-23
8.1855e-24
7.56597e-23
1.24356e-23
1.92389e-22
2.43612e-23
3.99745e-22
4.07894e-23
7.71558e-22
6.39495e-23
1.08186e-21
8.69735e-23
1.05229e-21
7.05931e-23
7.2123e-22
4.42249e-23
3.35389e-22
1.93692e-23
1.00815e-22
5.50279e-24
2.54174e-23
8.6381e-25
1.68351e-23
8.824e-26
1.77804e-23
-2.45402e-26
6.64929e-23
-2.15676e-24
-6.2937e-23
6.8274e-22
1.67932e-24
4.71067e-24
2.35034e-22
2.37589e-22
3.81049e-22
2.37332e-22
2.14396e-22
1.34303e-22
9.68789e-23
6.0454e-23
3.16389e-23
2.02181e-23
8.082e-24
5.07334e-24
2.95062e-24
1.14103e-24
2.79615e-24
5.98925e-25
6.36677e-24
9.97009e-25
1.49464e-23
1.9311e-24
2.8147e-23
3.03844e-24
4.92185e-23
4.47161e-24
6.20235e-23
5.22947e-24
5.65921e-23
4.05704e-24
3.59389e-23
2.37463e-24
1.56095e-23
9.64155e-25
4.45647e-24
2.59461e-25
9.41749e-25
4.0244e-26
6.06464e-25
6.05781e-27
1.42435e-24
3.06622e-27
2.2163e-23
-6.15878e-25
-2.14579e-23
3.31851e-22
1.23985e-25
3.41817e-25
1.5232e-23
1.66072e-23
2.30223e-23
1.43115e-23
1.23679e-23
7.87744e-24
5.68115e-24
3.5562e-24
1.85429e-24
1.18783e-24
4.74178e-25
2.96162e-25
1.9414e-25
6.82147e-26
1.91877e-25
4.1113e-26
4.82e-25
7.29585e-26
1.07017e-24
1.39113e-25
1.87205e-24
2.08386e-25
2.98575e-24
2.92668e-25
3.42069e-24
2.95536e-25
2.86803e-24
2.19613e-25
1.67579e-24
1.19851e-25
6.6387e-25
4.47367e-26
1.73636e-25
1.09963e-26
4.03462e-26
1.61199e-27
3.10252e-26
4.88313e-28
3.34942e-25
2.38811e-27
7.84888e-24
-1.09282e-25
-4.54257e-24
1.11579e-22
8.68037e-27
2.30188e-26
9.1538e-25
1.09449e-24
1.29876e-24
8.18186e-25
6.72174e-25
4.37708e-25
3.13898e-25
1.98404e-25
1.0205e-25
6.60574e-26
2.6136e-26
1.63395e-26
1.21131e-26
3.87473e-27
1.23718e-26
2.68624e-27
3.33476e-26
4.99545e-27
7.057e-26
9.30717e-27
1.1634e-25
1.33416e-26
1.67889e-25
1.79e-26
1.77897e-25
1.58089e-26
1.37479e-25
1.12303e-26
7.31395e-26
5.69039e-27
2.60154e-26
1.94182e-27
6.0792e-27
4.30933e-28
1.8957e-27
5.99312e-29
1.74872e-27
3.4463e-29
6.67361e-26
6.26695e-28
1.66938e-24
-9.97763e-27
-6.57984e-25
2.39168e-23
5.57975e-28
1.39451e-27
5.70709e-26
6.83077e-26
6.27357e-26
4.45538e-26
3.44535e-26
2.3139e-26
1.63948e-26
1.05361e-26
5.28955e-27
3.49012e-27
1.35876e-27
8.55468e-28
6.94671e-28
2.10347e-28
7.82861e-28
1.68185e-28
2.14307e-27
3.24481e-28
4.32912e-27
5.87427e-28
6.76715e-27
8.09093e-28
8.64287e-27
1.01312e-27
8.73407e-27
8.19598e-28
6.19299e-27
5.44403e-28
2.9709e-27
2.53554e-28
9.43749e-28
7.89107e-29
1.98076e-28
1.57031e-29
9.00631e-29
2.34513e-30
9.98569e-29
2.20937e-30
6.88815e-27
5.55989e-29
2.14592e-25
-5.98316e-28
-8.91668e-26
3.71092e-24
2.84136e-29
1.06059e-27
3.38474e-27
4.02973e-27
2.92992e-27
2.31176e-27
1.67757e-27
1.17177e-27
8.10288e-28
5.3447e-28
2.5888e-28
1.75842e-28
6.69068e-29
4.26794e-29
3.81806e-29
1.09918e-29
4.65937e-29
1.01154e-29
1.29314e-28
2.01329e-29
2.49202e-28
3.52765e-29
3.68818e-28
4.68867e-29
4.42873e-28
5.31306e-29
3.97365e-28
4.15662e-29
2.57654e-28
2.50661e-29
1.12166e-28
1.06552e-29
3.17348e-29
3.01287e-30
6.21884e-30
5.30794e-31
3.54641e-30
1.06315e-31
6.83989e-30
1.8296e-31
4.46544e-28
5.36132e-30
2.56556e-26
7.33033e-30
-1.4283e-26
5.61028e-25
-3.22451e-30
-6.6756e-29
1.87988e-28
2.14837e-28
1.32401e-28
1.1338e-28
7.7777e-29
5.67803e-29
3.79696e-29
2.59743e-29
1.19856e-29
8.47981e-30
3.13082e-30
2.03796e-30
2.02535e-30
5.5626e-31
2.63008e-30
5.89724e-31
7.36195e-30
1.1999e-30
1.35338e-29
2.02973e-30
1.88938e-29
2.61398e-30
2.13166e-29
2.66518e-30
1.74115e-29
2.00108e-30
1.01087e-29
1.10778e-30
3.93961e-30
4.26452e-31
9.81662e-31
1.08287e-31
2.01134e-31
1.67017e-32
1.44444e-31
6.38194e-33
7.01027e-31
3.1588e-32
5.22595e-29
1.53849e-30
4.50357e-27
3.13975e-29
-2.35228e-27
1.01103e-25
-9.25636e-30
-1.94375e-28
9.08275e-30
7.96679e-29
5.81508e-30
6.44958e-30
3.44036e-30
2.57355e-30
1.69093e-30
1.20315e-30
5.25708e-31
3.92071e-31
1.39645e-31
9.33978e-32
1.04218e-31
2.74875e-32
1.41656e-31
3.35655e-32
3.9683e-31
6.92845e-32
6.95931e-31
1.12832e-31
9.06452e-31
1.41268e-31
9.65123e-31
1.28968e-31
7.19063e-31
9.21554e-32
3.72349e-31
4.68879e-32
1.28126e-31
1.62656e-32
2.77189e-32
3.65968e-33
8.47407e-33
5.29514e-34
7.87008e-33
5.97077e-34
1.27551e-31
9.46512e-33
1.19655e-29
6.24425e-31
1.01051e-27
1.77937e-29
-2.70802e-28
1.87787e-26
-6.00806e-30
-1.2895e-28
3.28838e-31