/*--------------------------------*- C++ -*----------------------------------*\
| =========                 |                                                 |
| \\      /  F ield         | OpenFOAM: The Open Source CFD Toolbox           |
|  \\    /   O peration     | Version:  2012                                  |
|   \\  /    A nd           | Website:  www.openfoam.com                      |
|    \\/     M anipulation  |                                                 |
\*---------------------------------------------------------------------------*/
FoamFile
{
    version     2.0;
    format      ascii;
    class       volScalarField;
    location    "0.85";
    object      alpha.water;
}
// * * * * * * * * * * * * * * * * * * * * * * * * * * * * * * * * * * * * * //

dimensions      [0 0 0 0 0 0 0];


internalField   nonuniform List<scalar> 
2268
(
1
1
1
1
1
1
1
1
1
1
1
1
1
1
0.999988
0.97403
0.946603
0.991105
0.995835
0.994292
0.989462
0.993673
0.998845
1
1
1
1
1
1
1
1
1
1
1
1
1
1
0.999637
0.969245
0.9467
0.946376
0.960867
0.958162
0.954716
0.983828
0.999974
1
1
1
1
1
1
1
1
1
1
1
1
1
1
0.999999
0.996171
0.96411
0.946479
0.946376
0.947783
0.958609
0.995582
0.999975
1
1
1
1
1
1
1
1
1
1
1
1
1
1
1
1
0.999167
0.99214
0.994467
1
1
1
0.999975
1
1
1
1
1
1
1
1
1
1
1
1
1
1
1
1
1
1
1
1
1
1
1
1
1
1
1
1
1
1
1
1
1
1
1
1
1
1
1
1
1
1
1
1
1
0.999992
1
1
1
1
1
0.999934
0.999619
1
1
1
1
1
1
1
1
1
1
1
0.999999
0.999998
1
1
0.999978
1
1
1
1
1
0.998853
0.995498
0.999975
0.999999
0.999998
0.999995
0.999996
0.999998
1
1
1
1
0.999994
0.999955
0.999949
0.999987
0.999999
0.999978
0.99158
0.988873
0.97323
0.973535
0.973509
0.964807
0.875313
0.876195
0.847964
0.807196
0.667655
0.653485
0.65383
0.798475
0.870444
0.879144
0.879145
0.879134
0.871136
0.993818
0.995978
0.993998
0.989096
0.988753
0.988175
0.946718
0.769231
0.653412
0.668246
0.725752
0.727962
0.653825
0.743713
0.669631
0.668077
0.763757
0.878913
0.866202
0.996023
0.995842
0.884893
0.839244
0.965043
0.987989
0.867054
0.515825
0.436295
0.403948
0.643771
0.756642
0.779469
0.779735
0.752432
0.661376
0.661376
0.811789
0.465537
0.996023
0.939133
0.755016
0.755016
0.931857
0.9832
0.71559
0.327078
0.179051
0.0786019
0.0843494
0.375762
0.715352
0.779695
0.779752
0.71377
0.663035
0.689377
0.292143
0.995496
0.822382
0.755007
0.755483
0.963851
0.968947
0.581593
0.114912
0.045483
0.0454603
0.0460126
0.0518385
0.437882
0.779749
0.779732
0.779701
0.777157
0.657016
0.292143
0.972529
0.92851
0.760377
0.76808
0.962475
0.952124
0.421273
0.045483
0.045457
0.045483
0.046134
0.0556832
0.490851
0.779414
0.779701
0.779382
0.587654
0.446575
0.729367
0.976013
0.977192
0.942562
0.70881
0.940654
0.914922
0.272562
0.0457273
0.045483
0.0457273
0.0477319
0.0765182
0.535762
0.779158
0.779382
0.530525
0.493032
0.561457
0.855839
0.996459
0.970795
0.96003
0.706889
0.935697
0.847758
0.133471
0.0458083
0.0457273
0.0933139
0.101225
0.0940749
0.328747
0.767424
0.773629
0.559422
0.615393
0.855801
0.855894
1
1
1
1
0.990654
0.999935
0.999952
0.999974
0.999972
0.997706
0.985612
0.979585
0.982806
0.994877
0.999998
0.999999
0.999979
0.990863
0.945982
0.930568
0.957689
0.995096
0.999978
0.814196
0.79449
0.836134
0.829203
0.787944
0.837068
0.956798
0.935562
0.772895
0.532616
0.394044
0.35521
0.374519
0.498603
0.664864
0.773372
0.769754
0.535668
0.354192
0.277862
0.30907
0.447345
0.679035
0.242717
0.247458
0.277497
0.698419
0.836329
0.838206
0.658758
0.0900398
0.0294715
0.0287255
0.0166815
0.0153344
0.0151562
0.0154006
0.0650573
0.158195
0.237862
0.304159
0.229034
0.0774623
0.0524558
0.0271904
0.0311318
0.179345
0.375935
0.66294
0.679924
0.655497
0.167045
0.103603
0.0988773
0.128878
0.141759
0.0722039
0.0195077
0.0151616
0.0151382
0.0154006
0.0165822
0.0645449
0.204088
0.275716
0.275985
0.261333
0.0185337
0.0125459
0.182979
0.383882
0.391505
0.114583
0.0391658
0.0160825
0.114989
0.166702
0.168764
0.168764
0.168764
0.169656
0.0765309
0.0161022
0.0178811
0.0186656
0.0199502
0.0646916
0.264137
0.275985
0.275985
0.186746
0.0117898
0.18001
0.142146
0.00727201
0.000630551
0.000162206
6.38482e-05
0.000621785
0.00228566
0.0535641
0.148319
0.169464
0.170844
0.170844
0.170844
0.152677
0.0825052
0.098419
0.0706398
0.0639823
0.275985
0.27211
0.262042
0.0172085
0.132959
0.003737
0.000618551
8.10284e-05
1.37938e-05
2.41362e-06
2.34748e-07
2.5726e-07
2.47533e-06
1.56497e-05
0.000751662
0.0589332
0.158167
0.170144
0.168574
0.167704
0.167704
0.108805
0.000814234
0.0655773
0.238588
0.253554
0.0811631
0.0613262
0.000666465
7.80032e-05
9.3459e-06
1.11618e-06
1.52342e-07
2.57388e-09
-6.95735e-09
-1.05183e-08
-1.18273e-08
-4.32936e-08
-2.54799e-07
-1.07464e-06
0.00247275
0.0996782
0.135049
0.036754
0.000282599
0.000202433
0.000358793
0.018927
0.135889
0.0988731
0.0033691
0.000129277
1.00252e-05
9.86743e-07
1.31462e-08
4.77242e-09
3.09e-10
3.42339e-10
3.84907e-10
7.50887e-10
3.11256e-09
1.52768e-08
7.40048e-08
3.32703e-07
1.27662e-06
4.54646e-06
1.49922e-05
4.51394e-05
0.000138981
0.000202433
0.000353873
0.000837812
0.00370246
0.00020766
2.39969e-05
1.22082e-06
6.33221e-08
1.81035e-09
-5.74173e-11
3.43608e-10
3.40448e-10
3.43451e-10
4.23668e-10
1.35889e-09
1.90914e-08
3.29432e-07
4.90173e-07
1.16363e-06
3.26215e-06
2.66569e-05
8.55279e-05
0.000178564
0.000189492
0.000176924
0.000111259
0.0133207
0.000357328
2.81046e-05
5.59617e-06
2.57213e-09
3.85689e-10
3.50152e-10
3.40452e-10
3.4052e-10
3.4052e-10
5.30641e-10
5.26384e-09
1.95205e-08
2.54405e-06
6.34633e-06
3.26222e-06
9.72816e-06
0.000287303
0.000812619
0.000803687
0.000706094
0.000133095
6.76325e-05
5.05879e-05
0.00149808
0.00142206
0.000105569
8.66435e-10
7.94419e-10
3.98491e-10
3.50086e-10
3.40512e-10
3.69803e-10
1.90485e-08
1.34509e-07
1.2346e-07
1.46902e-07
1.78114e-05
3.81776e-05
3.29022e-05
0.00040951
0.000807856
0.000814905
0.000803687
0.00081635
0.000842635
0.000286859
0.000689952
0.00182001
0.000456211
4.66342e-07
7.63583e-10
1.76157e-09
1.27227e-09
3.69801e-10
4.09867e-10
7.15164e-08
1.46799e-07
1.49634e-07
1.08636e-07
2.12986e-07
9.07779e-05
0.000219396
0.000181576
0.000149098
0.000130386
0.000316045
0.000430825
0.00095192
0.00134326
8.19102e-05
0.00139531
0.00117233
8.15244e-05
1.80626e-06
4.6954e-08
7.64008e-09
1.02984e-09
4.18568e-10
2.63378e-09
1.36108e-07
1.48873e-07
3.32782e-08
8.66915e-09
2.38533e-05
0.000226062
0.000345478
0.000240283
4.70647e-05
4.7054e-05
4.86042e-05
5.01483e-05
0.000419832
1.1531e-05
0.000217362
0.000590082
0.000259574
4.85525e-06
5.98203e-07
6.12993e-08
5.58125e-09
8.45435e-10
1.34366e-09
2.7656e-08
7.81539e-08
2.23779e-08
8.76345e-10
8.66601e-09
1.61632e-05
0.000337664
0.000609316
0.000611589
0.000303899
6.64162e-05
6.27648e-05
8.76025e-05
9.39023e-07
1.12729e-05
3.98635e-05
0.000173332
4.13133e-05
9.52502e-07
1.3158e-07
1.56113e-08
2.15134e-09
8.50549e-10
4.1035e-10
7.86683e-10
2.99296e-09
2.86688e-10
3.8978e-10
4.95574e-08
9.02487e-06
0.000221076
0.000990486
0.00134812
0.00120175
0.000577328
0.000705021
9.42476e-08
9.36034e-07
1.01465e-05
1.69527e-05
2.19101e-05
4.44187e-06
1.20267e-07
1.63483e-08
2.03286e-09
4.1035e-10
2.47256e-10
1.63911e-10
2.78505e-10
2.31867e-10
2.62809e-10
2.17404e-09
3.12226e-08
1.58926e-07
1.6174e-07
0.00124665
0.0014611
0.00147175
0.00147605
3.49945e-08
9.4027e-08
2.49609e-06
2.40865e-06
2.72747e-06
1.5414e-06
1.30705e-07
7.86793e-09
1.11528e-09
2.89365e-10
1.63892e-10
1.53167e-10
1.93713e-10
2.37952e-10
1.7642e-10
2.85666e-10
1.4991e-09
6.37581e-09
1.03996e-08
1.61741e-07
0.00075917
0.000972889
0.0012379
8.34601e-09
3.0022e-08
5.60962e-07
5.3068e-07
2.34932e-07
1.02971e-07
2.89148e-08
3.00384e-09
5.63038e-10
2.21603e-10
1.22668e-10
1.24651e-10
1.48231e-10
2.23426e-10
1.96613e-10
1.5526e-10
1.55616e-10
2.58083e-10
1.09919e-08
1.25757e-05
1.67228e-08
2.48777e-09
5.51828e-10
2.14823e-09
1.01335e-08
1.04883e-07
9.79641e-08
4.22289e-08
1.25387e-08
3.51465e-09
8.0147e-10
2.60152e-10
1.08356e-10
6.61583e-11
7.88739e-11
1.05634e-10
1.65901e-10
1.88382e-10
1.51836e-10
1.05173e-10
5.12737e-11
3.1339e-11
1.61106e-07
1.46969e-08
5.75197e-10
1.90443e-10
4.0035e-10
1.57116e-09
1.65576e-08
1.52339e-08
6.51148e-09
2.15867e-09
6.05547e-10
2.06541e-10
7.47551e-11
2.76209e-11
2.49521e-11
3.92755e-11
6.76467e-11
1.00402e-10
1.43542e-10
1.37638e-10
1.0708e-10
6.04961e-11
2.75912e-11
8.69393e-12
7.47064e-09
8.59034e-09
3.85106e-09
6.30533e-11
1.98384e-10
2.28879e-09
2.05612e-09
9.55347e-10
3.63929e-10
1.52917e-10
5.65229e-11
1.40029e-11
5.73797e-12
8.29493e-12
1.8101e-11
3.84046e-11
5.75296e-11
8.31288e-11
9.52527e-11
8.58595e-11
6.09539e-11
3.06437e-11
7.81118e-12
6.12968e-12
8.19591e-11
2.87442e-10
9.71918e-12
3.71151e-11
3.41732e-10
2.88369e-10
1.52732e-10
8.25669e-11
3.80636e-11
9.99721e-12
2.0278e-12
1.3648e-12
2.94239e-12
7.9683e-12
1.86396e-11
3.09569e-11
4.11096e-11
4.78857e-11
4.69918e-11
3.98292e-11
2.5422e-11
8.04219e-12
6.01573e-12
8.42501e-12
1.79258e-11
1.37356e-12
2.84177e-11
5.1063e-11
4.31988e-11
3.54304e-11
1.83862e-11
5.64228e-12
1.20163e-12
2.76781e-13
3.21617e-13
9.66849e-13
2.89515e-12
7.0935e-12
1.36613e-11
1.66552e-11
1.69122e-11
1.64539e-11
1.49596e-11
1.13505e-11
5.4333e-12
1.80622e-12
1.57042e-12
2.13298e-12
1.70277e-13
8.41994e-12
1.1081e-11
9.65394e-12
6.21335e-12
2.28845e-12
5.89021e-13
1.30684e-13
3.5675e-14
5.94632e-14
2.1992e-13
7.00913e-13
1.80985e-12
3.93064e-12
4.36878e-12
3.99201e-12
3.37792e-12
2.86789e-12
2.29372e-12
1.38628e-12
5.35527e-13
3.01259e-13
3.19294e-13
1.91161e-14
7.63806e-13
1.61504e-12
1.26965e-12
6.26352e-13
2.11112e-13
5.68876e-14
1.29669e-14
4.15746e-15
7.74951e-15
2.86753e-14
9.56751e-14
2.61248e-13
5.99556e-13
6.35808e-13
5.496e-13
3.8623e-13
2.71954e-13
2.09654e-13
1.44807e-13
7.77677e-14
5.50511e-14
5.83751e-14
2.00341e-15
7.58232e-14
1.49449e-13
1.08807e-13
5.25504e-14
1.84181e-14
5.05193e-15
1.18142e-15
4.4783e-16
7.67574e-16
2.40276e-15
7.68301e-15
2.10248e-14
4.88374e-14
5.26256e-14
4.54182e-14
2.88205e-14
1.55202e-14
9.91456e-15
7.92107e-15
7.92359e-15
9.23382e-15
1.23834e-14
1.97189e-16
7.63574e-15
1.24552e-14
8.78166e-15
4.20531e-15
1.49344e-15
4.13283e-16
9.95709e-17
4.58509e-17
7.49916e-17
1.93705e-16
5.21516e-16
1.29082e-15
2.93983e-15
3.25975e-15
2.88381e-15
1.83754e-15
8.09274e-16
3.70994e-16
3.77003e-16
5.52148e-16
8.95775e-16
8.95081e-16
1.82453e-17
7.11902e-16
9.85471e-16
6.67841e-16
3.14524e-16
1.1261e-16
3.12984e-17
7.79796e-18
4.47902e-18
7.77342e-18
1.81438e-17
4.08302e-17
8.77995e-17
1.82458e-16
1.98509e-16
1.74655e-16
1.11429e-16
4.65352e-17
1.521e-17
1.20123e-17
1.57725e-17
2.10964e-17
3.32369e-17
1.59015e-18
6.13216e-17
7.27342e-17
4.73534e-17
2.20098e-17
7.92583e-18
2.20434e-18
5.70335e-19
4.05604e-19
7.75281e-19
1.74576e-18
3.4873e-18
6.69637e-18
1.20006e-17
1.23944e-17
1.04046e-17
6.34281e-18
2.61599e-18
7.23864e-19
2.50695e-19
2.75719e-19
7.03827e-19
7.10174e-18
1.30848e-19
4.91327e-18
5.02129e-18
3.13888e-18
1.44612e-18
5.22626e-19
1.45038e-19
3.91379e-20
3.35155e-20
6.94695e-20
1.54511e-19
2.8614e-19
5.07627e-19
7.71914e-19
7.55795e-19
5.90894e-19
3.33781e-19
1.31271e-19
3.3304e-20
9.35246e-21
1.80006e-20
2.16293e-19
3.72694e-18
1.01711e-20
3.67757e-19
3.25783e-19
1.95216e-19
8.95317e-20
3.24027e-20
8.9532e-21
2.54015e-21
2.5517e-21
5.58576e-21
1.2283e-20
2.15274e-20
3.61453e-20
4.67445e-20
4.36325e-20
3.15391e-20
1.62875e-20
5.86548e-21
1.36332e-21
5.5021e-22
3.61429e-21
8.29266e-20
1.38388e-18
7.38197e-22
2.58054e-20
1.99855e-20
1.14251e-20
5.24114e-21
1.89577e-21
5.20656e-22
1.56989e-22
1.82892e-22
4.13991e-22
8.92702e-22
1.49268e-21
2.40009e-21
2.65237e-21
2.36987e-21
1.58193e-21
7.40581e-22
2.39006e-22
4.99439e-23
3.52522e-23
7.49783e-22
1.94297e-20
3.27034e-19
4.48336e-23
1.7024e-21
1.16947e-21
6.29426e-22
2.91119e-22
1.05038e-22
2.86417e-23
9.30581e-24
1.24675e-23
2.89077e-23
6.05646e-23
9.7033e-23
1.47402e-22
1.43716e-22
1.21606e-22
7.42785e-23
3.14011e-23
8.99675e-24
1.81996e-24
2.11864e-24
8.43656e-23
2.74941e-21
5.58926e-20
6.60595e-25
1.05847e-22
6.48561e-23
3.31171e-23
1.54029e-23
5.52977e-24
1.49655e-24
5.33114e-25
8.11901e-25
1.91963e-24
3.88388e-24
5.98807e-24
8.24349e-24
7.68129e-24
5.88491e-24
3.26212e-24
1.24489e-24
3.13076e-25
7.36757e-26
1.30231e-25
6.03354e-24
3.65429e-22
9.45395e-21
-9.19633e-25
5.82966e-24
3.36058e-24
1.66629e-24
7.78404e-25
2.77504e-25
7.46039e-26
2.96465e-26
5.09355e-26
1.21845e-25
2.37213e-25
3.5335e-25
4.34356e-25
3.9072e-25
2.71624e-25
1.3548e-25
4.61958e-26
1.00021e-26
3.59798e-27
1.23427e-26
8.09637e-25
7.36863e-23
1.97354e-21
-2.80523e-24
1.36708e-25
1.40382e-25
7.69815e-26
3.73286e-26
1.33063e-26
3.56736e-27
1.61214e-27
3.10274e-27
7.44337e-27
1.39023e-26
2.00985e-26
2.19011e-26
1.88423e-26
1.19428e-26
5.32431e-27
1.59877e-27
2.9669e-28
2.45939e-28
2.36522e-27
2.19744e-25
1.97469e-23
4.4442e-22
-1.94772e-24
-5.56283e-42
2.16283e-27
1.93416e-27
1.52754e-27
5.95986e-28
1.60733e-28
8.64836e-29
1.84506e-28
4.42058e-28
7.88909e-28
1.10683e-27
1.06566e-27
8.6677e-28
4.98995e-28
1.97522e-28
5.12451e-29
1.00847e-29
2.48694e-29
6.35268e-28
6.59326e-26
4.77756e-24
7.97008e-23
-9.98106e-25
-1.17497e-25
-1.04798e-26
0
2.21504e-29
1.97964e-29
6.5072e-30
4.7166e-30
1.08864e-29
2.5716e-29
4.37891e-29
5.78976e-29
5.19212e-29
3.8036e-29
1.97431e-29
6.92354e-30
1.51877e-30
4.72306e-31
3.77867e-30
1.52235e-28
1.44577e-26
7.42227e-25
8.64355e-24
-4.33173e-25
-6.88874e-26
-8.738e-27
-9.26283e-28
-4.24173e-29
6.43256e-32
1.15583e-31
2.30637e-31
6.40168e-31
1.48064e-30
2.40062e-30
2.92848e-30
2.48891e-30
1.62163e-30
7.47456e-31
2.30466e-31
4.2575e-32
2.92463e-32
5.4056e-31
2.39962e-29
1.74165e-27
5.92304e-26
4.9546e-25
-1.67195e-25
-2.86706e-26
-3.6289e-27
-4.39455e-28
-4.57391e-29
-3.09714e-30
0
1.81423e-33
3.88755e-32
8.32031e-32
1.21194e-31
1.31469e-31
1.10801e-31
6.6613e-32
2.71512e-32
6.83362e-33
6.03265e-34
1.47797e-33
5.32367e-32
2.09905e-30
1.03338e-28
2.49725e-27
1.68645e-26
-5.87894e-26
-1.02572e-26
-1.22586e-27
-1.45246e-28
-1.61922e-29
-1.43982e-30
-7.16235e-32
8.21107e-50
1.17821e-33
4.03573e-33
9.27516e-33
1.15537e-32
5.72451e-33
2.17771e-33
7.84497e-34
4.6949e-34
4.61113e-34
4.61113e-34
2.2046e-33
6.90141e-32
2.34798e-30
4.67364e-29
2.53832e-28
0.999976
0.999975
0.999975
0.999974
0.764619
0.802101
0.852047
0.894176
0.0491352
0.0773287
0.209415
0.485277
0.012685
0.0217038
0.391546
0.831213
0.00959629
0.0106056
0.102819
0.272179
0.00860392
0.00869861
0.00892835
0.00999687
0.00845424
0.00846552
0.00855832
0.00892835
0.00846552
0.00845238
0.00846552
0.00855832
0.0663702
0.195188
0.260705
0.273612
0.0335452
0.0194915
0.0151548
0.0274247
4.13423e-05
3.65299e-05
3.26763e-05
1.86198e-05
0.000153265
7.23632e-05
1.86198e-05
5.64769e-06
0.00141689
0.00111318
0.000280421
0.000120131
0.00145784
0.00145704
0.00145864
0.0012485
0.000586201
0.00145725
0.00145864
0.00145841
0.00132281
0.00123212
0.00146092
0.00127491
0.00147605
0.00147518
0.00146645
0.000270115
0.00147605
0.00129393
0.000347093
1.84211e-07
4.325e-05
-2.44121e-09
-9.6028e-09
2.9114e-11
8.06002e-11
4.54734e-11
2.91434e-11
2.06984e-11
3.54547e-10
2.25215e-10
2.06327e-10
1.39806e-10
4.41606e-10
4.46372e-10
3.94864e-10
2.31199e-10
2.8579e-11
3.04813e-11
2.67258e-11
2.21223e-11
2.90106e-12
3.18106e-12
3.1465e-12
3.02833e-12
3.61008e-13
4.08873e-13
4.33803e-13
4.29115e-13
6.54346e-14
7.25503e-14
7.9063e-14
7.82821e-14
1.24992e-14
1.2109e-14
1.1221e-14
9.42287e-15
8.49835e-16
7.91941e-16
7.94119e-16
8.49839e-16
5.32939e-17
8.26608e-17
1.52625e-16
2.65619e-16
2.09087e-17
4.23213e-17
9.25411e-17
1.67082e-16
1.11692e-17
2.22186e-17
4.68264e-17
7.89467e-17
4.01572e-18
7.73356e-18
1.56433e-17
2.5113e-17
9.36204e-19
1.77998e-18
3.54057e-18
5.57192e-18
1.62698e-19
3.13202e-19
6.26731e-19
9.84591e-19
2.817e-20
5.5168e-20
1.09751e-19
1.72052e-19
5.87423e-21
1.13015e-20
2.134e-20
3.3771e-20
1.26584e-21
2.22813e-21
4.02314e-21
7.25701e-21
2.02399e-22
3.17068e-22
6.45898e-22
1.55292e-21
1.84859e-23
2.82213e-23
7.46181e-23
2.97355e-22
9.14e-25
1.58514e-24
6.81717e-24
9.44806e-23
2.84901e-26
6.48604e-26
5.37877e-25
2.38367e-23
4.93374e-28
1.54202e-27
1.71407e-26
9.53889e-25
0.999972
0.97564
0.903194
0.706079
0.930096
0.666136
0.0330551
0.0443656
0.14143
0.338262
0.297144
0.162814
0.384577
0.770265
0.769127
0.778936
0.798031
0.854749
0.855801
0.979963
0.918426
0.664124
0.707371
0.905815
0.399024
0.0158391
0.190047
0.34185
0.34373
0.339671
0.389349
0.388583
0.38204
0.423459
0.267251
0.140909
0.364997
0.854749
0.766868
0.883075
0.878517
0.881012
0.841248
0.219689
0.00886364
0.117527
0.0916438
0.000870155
0.000866686
0.000869155
0.000873027
0.000889246
0.000923264
0.00101844
0.00137636
0.0249681
0.487712
0.888096
0.887995
0.888363
0.887727
0.70043
0.0364863
0.00166254
0.00707064
0.000894539
0.000866959
0.000867185
0.000866928
0.000867921
0.000873027
0.000889234
0.000824146
0.00101133
0.00137876
0.00260241
0.543267
0.836847
0.887727
0.886422
0.450775
0.00166302
0.00115649
0.000965091
0.000873766
0.000870928
0.000866766
0.000867921
0.000873027
0.000889232
0.000907041
0.00100605
0.00124653
0.0037587
0.0320409
0.0143361
0.322156
0.854445
0.870558
0.546654
0.00115697
0.00098464
0.000911471
0.000892418
0.000874242
0.00176034
0.00295149
0.00206001
0.000919905
0.000967661
0.00120658
0.00164233
0.00453656
0.0624377
0.00999854
0.0235951
0.46877
0.854848
0.831218
0.236472
0.00108434
0.000912784
0.000911471
0.000965193
0.00395903
0.00395354
0.00381037
0.00102236
0.00758615
0.00859548
0.00828986
0.00202007
0.0625605
0.00967169
0.017882
0.0482961
0.475594
0.791264
0.747823
0.0729985
0.00108516
0.000912182
0.000959167
0.00108566
0.00110267
0.00111738
0.0011794
0.110608
0.115537
0.0164102
0.00122796
0.0623655
0.276985
0.277374
0.260666
0.200635
0.222002
0.476914
0.582112
0.0811014
0.00133268
0.00101457
0.0010628
0.00111738
0.00116869
0.0672739
0.153156
0.150771
0.0229095
0.000471269
0.0610934
0.126431
0.279162
0.463867
0.571478
0.574348
0.491936
0.716821
0.296053
0.00268759
0.00125096
0.00114946
0.00116869
0.00141002
0.151997
0.153156
0.12061
0.00665658
3.81253e-05
0.0451573
5.64769e-06
2.12444e-05
0.000277427
0.113626
0.626804
0.716821
0.717594
0.716821
0.0959613
0.00191019
0.0013383
0.00140955
0.113213
0.149846
0.13743
0.00845693
1.25832e-05
6.51899e-07
0.0451075
3.43395e-06
1.55019e-06
2.12441e-05
0.000277421
0.122656
0.717594
0.717594
0.717594
0.360837
0.00722345
0.00191186
0.0935734
0.128255
0.111352
0.000209081
1.25614e-05
6.49531e-07
7.4209e-08
0.0297104
1.55019e-06
1.34533e-07
1.44964e-06
2.20804e-05
0.000876422
0.349039
0.717594
0.717171
0.487118
0.02812
0.0798891
0.159085
0.104541
0.000158391
1.14123e-05
7.65914e-07
7.19363e-08
3.59818e-08
0.00484218
1.34545e-07
9.87673e-09
2.62629e-08
7.63336e-07
3.65777e-05
0.0313821
0.554903
0.716747
0.709405
0.454027
0.333084
0.0404819
0.000144829
1.08957e-05
7.02468e-07
6.87825e-08
3.58809e-08
3.53378e-08
3.59818e-08
0.000117737
6.31233e-09
4.93957e-10
-3.62297e-08
-5.90711e-09
-2.20607e-07
0.028804
0.380702
0.46913
0.335866
0.0627803
4.22245e-06
-2.77695e-07
-2.17151e-07
6.25054e-08
4.18647e-08
3.53127e-08
3.53378e-08
3.53378e-08
7.5779e-09
2.57597e-09
2.37541e-09
2.64896e-09
2.92188e-09
1.44777e-09
1.03702e-09
9.6012e-10
0.0294136
0.00595337
3.24288e-07
-1.17476e-08
4.1157e-09
6.54955e-08
8.4521e-08
1.52859e-07
4.01282e-08
3.53378e-08
4.43841e-08
3.85439e-08
1.72584e-09
2.10072e-09
7.08371e-09
1.09014e-08
1.23296e-09
1.0284e-09
1.03029e-09
-3.21518e-09
8.36372e-10
-2.92021e-10
9.57316e-10
2.84149e-09
7.67444e-08
1.49756e-07
1.50161e-07
6.24156e-08
4.43841e-08
1.53264e-07
1.16792e-08
5.29636e-10
3.36962e-11
4.32581e-11
8.48576e-11
1.2909e-08
3.22175e-09
1.57305e-09
9.59157e-10
9.59048e-10
9.59157e-10
9.59063e-10
8.43411e-09
8.32153e-08
3.39477e-08
9.11439e-09
4.42982e-06
2.47807e-06
1.04162e-06
-1.88529e-10
1.97758e-11
1.95259e-11
4.25366e-11
1.32544e-10
4.1585e-09
4.21324e-09
2.89645e-09
1.01703e-09
9.59157e-10
9.59157e-10
9.62837e-10
1.04661e-09
1.36067e-08
8.37441e-09
8.35156e-09
1.91304e-05
8.42492e-06
2.28966e-05
1.97758e-11
1.9484e-11
1.95214e-11
4.2528e-11
2.379e-10
2.35983e-10
5.73281e-10
9.81265e-10
1.15417e-09
1.05516e-09
9.62122e-10
1.04661e-09
2.07058e-09
6.08752e-09
8.34109e-09
8.75072e-09
2.09384e-05
8.10534e-06
0.000242854
4.60727e-11
2.13559e-11
1.93794e-11
3.17429e-11
1.62349e-10
4.40639e-10
4.93408e-10
5.14448e-10
6.59644e-10
6.37317e-10
8.08683e-10
8.84835e-09
6.44671e-07
2.35684e-07
8.75072e-09
1.46705e-08
2.1117e-05
9.17871e-06
0.000293483
6.28462e-11
2.32386e-11
1.35793e-11
1.71859e-11
1.02837e-10
4.30115e-10
4.94644e-10
4.20415e-10
4.0457e-10
4.77229e-10
1.82001e-08
1.00596e-06
1.82751e-06
1.22743e-06
1.46705e-08
1.47893e-05
2.15929e-05
3.92539e-05
0.000293665
1.41646e-11
9.00154e-12
5.63512e-12
1.26329e-11
9.94069e-11
3.89344e-10
3.4974e-10
1.40215e-10
1.45095e-10
4.97435e-08
1.26155e-06
1.82751e-06
1.82751e-06
1.6932e-06
3.95203e-08
3.18724e-05
2.29354e-05
0.000265274
0.000292865
2.5999e-12
1.57e-12
2.04792e-12
1.16876e-11
1.04395e-10
3.47755e-10
1.25143e-10
1.19461e-10
1.33027e-10
1.31587e-06
1.79369e-06
1.81501e-06
1.82751e-06
1.31777e-06
7.42843e-08
3.3433e-05
2.60172e-05
0.000296724
0.000181539
3.67995e-13
3.82045e-13
1.35872e-12
1.20541e-11
9.97409e-11
2.13382e-10
3.24454e-11
3.49547e-11
7.5945e-07
1.71887e-06
1.7618e-06
1.28394e-06
1.19784e-06
4.60817e-07
1.03349e-07
3.43679e-05
1.55974e-05
0.000296734
1.95447e-06
6.92621e-14
1.30642e-13
1.26607e-12
1.20847e-11
9.60649e-11
1.10582e-10
3.02379e-11
4.08837e-09
1.48546e-06
1.46454e-06
1.7293e-07
3.9209e-08
3.91316e-08
3.91316e-08
2.27585e-06
3.43254e-05
9.32038e-07
7.53661e-05
1.51501e-06
9.30352e-15
8.84484e-14
1.22756e-12
1.06452e-11
6.76409e-11
6.79685e-11
2.96739e-11
6.78613e-08
1.25895e-06
1.08124e-07
3.96782e-08
3.93869e-08
3.9209e-08
3.91316e-08
7.61201e-06
1.53262e-05
5.02771e-07
1.01245e-08
1.00879e-08
2.16198e-15
8.3024e-14
1.012e-12
9.71141e-12
5.18995e-11
5.69391e-11
2.94014e-11
1.6249e-08
1.86978e-08
4.3977e-07
4.58237e-08
3.96782e-08
3.93869e-08
1.01148e-06
4.52811e-06
2.85363e-08
2.46988e-08
1.07097e-08
1.00879e-08
1.55615e-15
6.47532e-14
9.4449e-13
9.04152e-12
3.67785e-11
4.5945e-11
2.95381e-11
1.24123e-11
1.25974e-11
1.85259e-06
3.38675e-06
4.13737e-08
5.24135e-08
2.29216e-07
2.18646e-07
1.02656e-07
3.52123e-07
3.29029e-08
1.00879e-08
1.18405e-15
5.93634e-14
9.09982e-13
7.09076e-12
2.1467e-11
2.44919e-11
1.90572e-11
1.23285e-11
1.24123e-11
1.59172e-06
6.26321e-06
1.79603e-06
5.39247e-08
1.50007e-07
1.20511e-06
3.41874e-06
4.82188e-07
1.02465e-08
1.01674e-08
8.39155e-16
4.82106e-14
6.35184e-13
3.24319e-12
8.35595e-12
1.02931e-11
1.31684e-11
1.22681e-11
1.23286e-11
2.47812e-07
5.34733e-06
9.43618e-06
3.0508e-06
4.55143e-06
1.01504e-05
5.17652e-06
1.33816e-08
1.02817e-08
1.02465e-08
4.71076e-16
2.35048e-14
2.14693e-13
8.48464e-13
2.38849e-12
4.17984e-12
1.18692e-11
1.22116e-11
4.72796e-10
3.45513e-10
3.44417e-10
8.85259e-06
1.03695e-05
1.03702e-05
1.0153e-05
1.41736e-06
1.82547e-08
1.09696e-08
1.02817e-08
1.53362e-16
5.77316e-15
3.86965e-14
1.54784e-13
7.79487e-13
2.0251e-12
1.16847e-11
1.55751e-11
1.7563e-09
4.12037e-10
4.65344e-10
3.96806e-10
4.41378e-06
4.7751e-06
6.77978e-10
3.16555e-08
4.7109e-07
2.14059e-07
2.92799e-08
2.63984e-17
6.895e-16
4.27342e-15
4.43055e-14
3.65515e-13
9.48061e-13
9.04256e-12
2.34779e-11
1.51672e-09
3.92259e-10
9.43915e-10
3.94153e-10
2.10798e-10
2.18483e-10
2.25366e-10
3.85263e-07
9.13311e-07
9.0015e-07
6.10989e-08
4.83543e-18
9.70354e-17
1.11605e-15
2.29282e-14
1.37747e-13
4.02855e-13
4.53691e-12
1.63023e-11
7.22826e-13
7.02147e-13
7.92125e-10
7.66813e-10
2.07237e-10
1.65168e-10
5.43136e-09
9.13311e-07
9.13311e-07
9.03013e-07
6.24155e-08
2.26163e-18
3.57716e-17
4.86443e-16
7.78002e-15
2.55692e-14
1.92231e-13
6.80496e-13
3.53611e-12
2.43072e-12
6.9845e-13
7.63365e-31
7.65339e-11
7.58353e-11
8.23435e-11
4.74134e-07
9.08653e-07
8.88109e-07
1.55032e-07
5.75839e-09
1.25236e-18
1.29201e-17
1.34354e-16
8.87542e-16
2.69759e-15
1.19368e-13
1.2251e-13
1.45018e-13
1.04389e-13
2.07054e-14
-3.83992e-15
-1.86701e-14
0
6.15256e-08
9.92438e-07
3.99343e-07
7.45693e-08
4.81634e-14
7.76934e-14
5.13302e-19
3.11582e-18
1.96778e-17
3.80357e-17
2.24201e-16
3.03754e-14
2.6959e-14
7.36776e-15
-5.81008e-16
-1.10043e-14
-1.44514e-14
-1.36673e-14
2.00534e-25
2.42138e-06
1.21901e-06
1.12506e-11
4.81634e-14
1.22297e-14
7.77751e-14
1.17261e-19
4.31364e-19
1.37577e-18
8.2064e-19
1.38617e-17
9.82942e-16
9.3125e-16
3.0405e-16
-2.86954e-15
-6.14422e-15
-6.13302e-15
-4.9395e-15
7.77577e-08
3.31852e-06
6.90455e-07
5.74804e-12
1.22297e-14
1.21292e-15
1.58454e-13
1.16116e-20
2.91364e-20
4.09173e-20
-1.92881e-19
8.02505e-20
4.37396e-18
3.28047e-18
5.85845e-19
-1.00939e-15
-1.66041e-15
-1.35661e-15
-9.2994e-16
1.3322e-07
3.29545e-06
1.57495e-07
7.78262e-13
1.12101e-15
5.31943e-17
1.28561e-13
4.39576e-22
7.2064e-22
8.05821e-22
-1.92219e-19
-7.55593e-20
-1.14285e-20
-7.62099e-22
-2.85109e-20
-1.22381e-16
-1.4002e-16
-7.90331e-17
-3.63226e-17
4.79002e-08
3.75308e-07
1.58817e-08
-5.70865e-31
-5.50684e-19
1.26877e-18
1.74713e-14
2.77625e-24
2.11234e-24
1.23896e-24
-6.18874e-20
-1.11463e-20
-9.82564e-22
-1.37806e-22
-4.72519e-23
-1.34067e-23
-2.77095e-24
-4.40595e-25
-6.57234e-26
-3.23434e-22
-1.30633e-18
-2.75439e-18
-7.39654e-20
-3.17053e-21
-3.72088e-23
-5.56119e-26
)
;

boundaryField
{
    leftWall
    {
        type            zeroGradient;
    }
    rightWall
    {
        type            zeroGradient;
    }
    lowerWall
    {
        type            zeroGradient;
    }
    atmosphere
    {
        type            inletOutlet;
        inletValue      uniform 0;
        value           nonuniform List<scalar> 
46
(
-5.87894e-26
-1.02572e-26
-1.22586e-27
-1.45246e-28
-1.61922e-29
-1.43982e-30
-7.16235e-32
8.21107e-50
1.17821e-33
4.03573e-33
9.27516e-33
1.15537e-32
5.72451e-33
2.17771e-33
7.84497e-34
4.6949e-34
4.61113e-34
4.61113e-34
2.2046e-33
6.90141e-32
2.34798e-30
4.67364e-29
2.53832e-28
0
0
0
0
0
0
0
0
0
0
0
0
0
0
0
0
0
0
0
0
0
0
0
)
;
    }
    defaultFaces
    {
        type            empty;
    }
}


// ************************************************************************* //
