/*--------------------------------*- C++ -*----------------------------------*\
| =========                 |                                                 |
| \\      /  F ield         | OpenFOAM: The Open Source CFD Toolbox           |
|  \\    /   O peration     | Version:  2012                                  |
|   \\  /    A nd           | Website:  www.openfoam.com                      |
|    \\/     M anipulation  |                                                 |
\*---------------------------------------------------------------------------*/
FoamFile
{
    version     2.0;
    format      ascii;
    class       volScalarField;
    location    "0.00012";
    object      pcorr;
}
// * * * * * * * * * * * * * * * * * * * * * * * * * * * * * * * * * * * * * //

dimensions      [1 -1 -2 0 0 0 0];


internalField   nonuniform List<scalar> 
5000
(
0.002262436648
0.002262394505
0.002262515939
0.002262567176
0.002262716478
0.002262849869
0.002262974342
0.002263172104
0.002263292396
0.002263534177
0.002263767861
0.002263931034
0.002264144571
0.002264166503
0.002264119955
0.002263994196
0.002263870361
0.002263683687
0.002263372727
0.002263200105
0.002262911739
0.002261946917
0.002260954472
0.002260306266
0.00225865615
0.002258028486
0.002256729491
0.002254671463
0.002253187076
0.002250832735
0.002247818336
0.002245267848
0.002243139588
0.002239252977
0.002236298016
0.002233824983
0.002230495846
0.002227436725
0.00222516534
0.002222685743
0.002220995764
0.002218240797
0.002216095329
0.002214459236
0.002212642198
0.002210754403
0.002208959705
0.002206915865
0.002205294874
0.002203395281
0.002201501994
0.002199226138
0.002196956155
0.002194526008
0.002192297762
0.002190481577
0.002188328126
0.002186479041
0.00218473855
0.00218289042
0.002181119994
0.002179160094
0.002177193574
0.002175168777
0.002173015459
0.002171012793
0.002168922712
0.00216678953
0.002164361981
0.002161773781
0.002159116724
0.002156378779
0.002153790144
0.002151390991
0.002149290579
0.002147186438
0.002145100367
0.00214299229
0.002140820063
0.002138693389
0.002136673832
0.002134755665
0.002132755764
0.002130341894
0.002127637742
0.002125072436
0.002122555891
0.002120005375
0.002117438824
0.002115322306
0.002113286605
0.002111257869
0.002109360112
0.002107345986
0.002105319412
0.002103182078
0.002100983689
0.002098817075
0.002096732393
0.002094665878
0.002092592623
0.002090476254
0.002088395197
0.002086378805
0.002084265196
0.00208223749
0.002080362319
0.002078201826
0.002075834459
0.002073482987
0.00207118345
0.002068666199
0.002066053889
0.002063478729
0.002060947434
0.002058631278
0.00205633675
0.00205432049
0.002052376864
0.002050368854
0.002048310579
0.002046185344
0.002044109974
0.002041885033
0.002039294541
0.002036462644
0.002033539467
0.002030812725
0.002028453082
0.002026109687
0.002023683831
0.00202132269
0.002018992028
0.002016515989
0.002013783868
0.002010821337
0.00200807576
0.002005895291
0.002003963845
0.002001777544
0.001999661082
0.001997310374
0.001994722274
0.001991983357
0.001989725999
0.001987760175
0.001985601985
0.001983362561
0.001981242342
0.001979212706
0.001977155692
0.00197482561
0.001972653061
0.001970592953
0.001968275969
0.001966038541
0.001963858882
0.001961493511
0.001959224908
0.001957025425
0.001954679038
0.001952270409
0.001950046829
0.001947718688
0.001945010821
0.001942173756
0.001939621594
0.001937253543
0.001934866068
0.001932649045
0.001930631574
0.001928515616
0.001926375727
0.001924148975
0.001921737184
0.001919186172
0.00191669204
0.001914342355
0.001912148984
0.00190993213
0.001907541182
0.001905004809
0.001902469629
0.001900095994
0.001897864754
0.001895741369
0.001893605604
0.001891517857
0.001889531529
0.001887516101
0.001885419165
0.001883290448
0.001881048546
0.001878933891
0.001876902446
0.001874741571
0.001872578318
0.001870382079
0.001868060634
0.001865762474
0.001863420492
0.001860796007
0.0018581378
0.001855754319
0.001853288811
0.00185077564
0.001848065849
0.001845203371
0.001842432503
0.00183956728
0.001836654754
0.001833645555
0.001830963667
0.001828718483
0.001826587861
0.001824503734
0.00182233985
0.001820077671
0.001817964137
0.001816019929
0.001813902977
0.001811592331
0.001809053488
0.00180642678
0.001803848619
0.001801475241
0.00179923223
0.001796483265
0.0017933985
0.001790628828
0.001788211886
0.001786095775
0.00178407664
0.001782020052
0.001779800386
0.001777383832
0.001775051166
0.001772833511
0.001770830762
0.00176876403
0.001766758242
0.001764619675
0.001762238944
0.001759871203
0.001757657133
0.001755530942
0.00175346067
0.001751491598
0.001749459499
0.001747401595
0.001745008234
0.001742671142
0.001740549204
0.001738422265
0.0017361077
0.001733882588
0.001731781871
0.001729601613
0.00172750241
0.001725346873
0.001723131802
0.001721016554
0.001718973266
0.001717055666
0.00171507507
0.001713071785
0.001711071057
0.001708906144
0.001706596601
0.001704159983
0.001701747394
0.001699423801
0.00169741492
0.001695357487
0.001693218655
0.001691178305
0.00168889452
0.00168661046
0.001684455216
0.001682464185
0.001680609017
0.001678641237
0.001676458828
0.001674097075
0.001671775589
0.001669489773
0.001667204278
0.001664773746
0.001661946868
0.001659360309
0.0016572355
0.001654972214
0.00165228461
0.001649468687
0.001646931642
0.001644739519
0.001642449424
0.001640209136
0.001638041073
0.001635677858
0.001633085033
0.001630746885
0.001628724258
0.00162665879
0.00162474771
0.001622742167
0.001620445602
0.001618109374
0.001615773143
0.001613540893
0.001611522882
0.001609468974
0.001607357272
0.00160531086
0.001603295979
0.001601141653
0.001598606471
0.001595625262
0.001592634492
0.0015901488
0.001588019917
0.001585837269
0.001583530408
0.001581243369
0.001578868728
0.001576493505
0.001574130789
0.001571795429
0.00156953949
0.001567268153
0.001565053977
0.001562911735
0.001560770653
0.001558652243
0.00155643926
0.001554255793
0.001552062233
0.001549913996
0.00154777851
0.001545523352
0.001543086819
0.001540667884
0.001538283331
0.00153599786
0.00153389717
0.001531924918
0.001529981306
0.001527854347
0.001525766175
0.001523513678
0.00152118859
0.001519082546
0.001517045761
0.001514882475
0.001512704605
0.001510746942
0.001508840327
0.001506693483
0.001504282443
0.001501895769
0.001499619719
0.001497486376
0.00149518443
0.001492677042
0.001490099019
0.001487556837
0.00148514067
0.001483024073
0.001480954775
0.001478743963
0.0014763835
0.001473866664
0.00147132586
0.001468890518
0.001466702378
0.001464392555
0.001462024659
0.001459490614
0.001456988823
0.001454334899
0.001451405665
0.001448300289
0.001445178446
0.001442101969
0.001439181092
0.00143647927
0.001433938538
0.001431431685
0.001429048652
0.001426865921
0.001424424256
0.001421866898
0.001419534715
0.001416975137
0.00141405374
0.001411111517
0.001408553043
0.001406236317
0.001403764596
0.00140120741
0.001398594233
0.001396132295
0.001393596549
0.00139113094
0.001388829106
0.001386487607
0.001384129003
0.001381618567
0.001379066406
0.00137655741
0.001374180228
0.0013720848
0.001369924848
0.001367689969
0.001365616668
0.001363530809
0.001361529164
0.001359467802
0.001357333634
0.001355222298
0.001352921947
0.001350422007
0.001348045339
0.001345735197
0.001343260965
0.001340662877
0.00133795055
0.001335540781
0.001333256699
0.001331024554
0.001328803897
0.001326617303
0.001324408943
0.001322235808
0.001319880508
0.001317477223
0.001315255142
0.001313142454
0.001310940987
0.001308460226
0.001305964571
0.001303537001
0.001301094361
0.001298492509
0.00129590922
0.001293479665
0.001291381124
0.001289394769
0.001287276455
0.001285111383
0.001283054297
0.001280792703
0.001278340905
0.001275568401
0.001272657224
0.001269585826
0.001266749409
0.001264319894
0.001262083186
0.00125995146
0.001257689134
0.001255308
0.001252741237
0.0012498312
0.001246817612
0.001244075566
0.001241489967
0.001239049465
0.001236330759
0.001233659881
0.001231339911
0.001229177175
0.001227089962
0.001225059988
0.001222913848
0.00122046275
0.001217959027
0.001215636913
0.001213439423
0.001211259053
0.001209145073
0.0012066549
0.001204301801
0.0012023354
0.001200327708
0.001198148326
0.001196079926
0.001194145008
0.001192238287
0.001190355878
0.001188303002
0.001186116527
0.001183790568
0.001181542023
0.001179546264
0.001177608099
0.001175668431
0.001173810549
0.001171748785
0.001169229545
0.001166304026
0.001163517166
0.001161158026
0.00115918743
0.001157132784
0.001154798345
0.00115254953
0.001150428538
0.001148360257
0.001146266905
0.001143786722
0.001140999477
0.001138527149
0.001136225053
0.00113387397
0.001131527224
0.001128951493
0.001126407917
0.001124117698
0.001121816147
0.001119576781
0.001117332996
0.001115001025
0.001112857085
0.00111055766
0.001107926116
0.001105303942
0.001102717634
0.00110030561
0.00109785774
0.001095460634
0.001093107908
0.001090852619
0.001088642057
0.001086555147
0.001084434938
0.001082082309
0.001079568433
0.001077161425
0.001074908208
0.001072605198
0.001069990859
0.001067026701
0.001064083441
0.001061465389
0.001059093573
0.001056942671
0.001055013437
0.001053008499
0.001050829416
0.001048620874
0.001046368479
0.001043806952
0.001041155826
0.001038642507
0.001036337845
0.001034024799
0.001031701509
0.001029511554
0.001027457817
0.001025249404
0.001022771683
0.001020209715
0.001017731026
0.001015221989
0.001012645589
0.001010369404
0.001008242265
0.001006009644
0.001003552126
0.001001112144
0.0009989804871
0.0009969458529
0.0009947267955
0.0009923860619
0.0009901705048
0.0009881555165
0.0009859198412
0.0009836008433
0.0009813133877
0.0009789715509
0.000976852514
0.0009748979214
0.0009731584563
0.0009714814714
0.0009695486336
0.0009673532615
0.0009651183842
0.000962856001
0.0009606845416
0.000958625713
0.000956383572
0.000953939535
0.0009514228851
0.0009486292846
0.0009460952423
0.0009438677794
0.0009416335449
0.0009395774684
0.0009375844053
0.0009354387946
0.0009330767143
0.000930709484
0.0009283697764
0.0009262104506
0.0009240935411
0.0009218430893
0.000919481529
0.0009167636962
0.0009137736859
0.0009109280434
0.0009081261928
0.000905580914
0.0009032221936
0.000900794151
0.0008984370449
0.0008958393476
0.0008931932736
0.0008909660673
0.0008887535429
0.0008866269014
0.0008843658852
0.0008820319229
0.000879944354
0.000877746273
0.0008753466361
0.0008728860051
0.0008705822911
0.0008683445331
0.0008660380278
0.0008638340851
0.0008618803123
0.0008599379143
0.0008577334624
0.0008550375001
0.0008519800348
0.0008490628508
0.0008466008136
0.0008443890718
0.0008423184488
0.0008402076729
0.0008380932754
0.0008361660972
0.0008342013715
0.0008320660218
0.0008298735479
0.0008273406318
0.000824337302
0.0008214444094
0.0008190574041
0.0008169555817
0.0008150047706
0.0008130619606
0.0008110893559
0.000808965652
0.0008065750971
0.0008041663192
0.0008019185784
0.0007996105502
0.0007971196103
0.000794692561
0.0007921241268
0.0007895193521
0.0007871155842
0.0007844189454
0.0007815423539
0.0007791343759
0.0007765630935
0.0007738981714
0.0007715925432
0.0007692914801
0.0007668653517
0.0007644169187
0.0007621126541
0.0007599029377
0.0007576308583
0.0007554754116
0.0007532738715
0.0007509771397
0.0007487052617
0.0007466013865
0.000744201316
0.0007412017985
0.0007381265032
0.0007354526111
0.0007330418956
0.0007306002553
0.0007280394255
0.000725644061
0.0007234757307
0.0007213113792
0.0007190473144
0.0007168804672
0.000714851059
0.0007128511699
0.0007106680655
0.000708227772
0.0007058095629
0.0007033636566
0.0007006756093
0.0006975903186
0.0006945147919
0.0006915130326
0.0006885850544
0.0006858669706
0.000683447176
0.0006810565382
0.0006787645718
0.0006761570356
0.0006734325302
0.0006708893593
0.0006683669484
0.0006660264092
0.0006637254268
0.0006614453495
0.0006591217177
0.0006566982422
0.0006543449738
0.0006518441218
0.0006493314362
0.0006470775917
0.0006449066642
0.0006428081996
0.0006408026735
0.000638787139
0.0006365361127
0.000634105159
0.0006317107266
0.0006294927117
0.0006273696515
0.0006253242417
0.0006233142229
0.000621313747
0.0006192714282
0.0006171056813
0.000614815636
0.0006124921687
0.0006101857456
0.000607972794
0.0006058452956
0.0006037839645
0.0006017188875
0.0005997578531
0.0005979157526
0.0005959631174
0.0005937410102
0.0005913728555
0.0005890936976
0.0005869542145
0.000584839732
0.0005824771333
0.0005797833782
0.000576703811
0.0005735106141
0.0005707689692
0.0005685063711
0.0005662462881
0.0005637682812
0.0005613577083
0.000559052942
0.0005567115955
0.0005542477448
0.00055179032
0.0005495752827
0.0005472861476
0.000544956548
0.0005427743698
0.000540610787
0.0005385523685
0.0005366100972
0.000534543563
0.0005321985804
0.0005297324211
0.0005272663468
0.0005247884204
0.0005224348901
0.0005201599721
0.00051772034
0.0005149839093
0.0005124358779
0.000510411275
0.0005083399061
0.0005063391852
0.0005043457628
0.0005022426359
0.0005002265032
0.0004984753799
0.0004967002345
0.0004947983028
0.0004929082449
0.000490708284
0.0004883631252
0.0004857705162
0.0004830736549
0.0004807373942
0.0004786074408
0.0004761919887
0.0004737312223
0.0004712434797
0.0004687500294
0.0004663971962
0.0004638129625
0.0004608044
0.000458142899
0.0004557148743
0.0004530969669
0.0004502165747
0.0004474363503
0.0004449119073
0.0004424381895
0.0004399740322
0.0004375817027
0.0004354534929
0.0004333558463
0.0004313175673
0.000429324502
0.0004273975866
0.0004255090373
0.0004236481541
0.0004215382824
0.0004193175804
0.0004170961947
0.0004148785196
0.0004127797339
0.000410667747
0.0004084562552
0.0004061948879
0.0004040070615
0.0004018746598
0.0003997961343
0.0003978025099
0.0003959523389
0.0003938726525
0.0003915332248
0.0003890727285
0.0003866948995
0.000384430068
0.0003823791465
0.0003803876387
0.0003783157993
0.0003760665486
0.0003738101566
0.0003717261443
0.000369531569
0.0003671287181
0.000364677027
0.0003623622083
0.0003601276047
0.0003579423468
0.0003557488532
0.0003536197914
0.0003515480961
0.0003495497273
0.0003475111971
0.0003454326924
0.0003431358675
0.0003408223002
0.0003386492281
0.0003364979392
0.0003342960206
0.0003322339297
0.0003302740008
0.0003282318197
0.0003261142793
0.0003240586676
0.0003220298352
0.0003200252854
0.0003178969003
0.000315497929
0.0003131042792
0.0003108747055
0.000308839872
0.0003066621209
0.0003044271028
0.0003021828575
0.0002995826418
0.0002964395854
0.0002934070152
0.0002906649696
0.0002881216571
0.000285722245
0.0002830294835
0.0002797892255
0.0002765555029
0.0002736238669
0.0002707441761
0.0002679161478
0.0002651064258
0.0002626129146
0.0002603035043
0.0002582966096
0.0002561878265
0.0002537653557
0.0002513123658
0.0002491515773
0.000247286582
0.0002453352062
0.0002433766968
0.000241233922
0.0002389108693
0.0002365399501
0.0002340276299
0.0002314694619
0.0002288518057
0.000225907473
0.000222717882
0.0002196363679
0.0002170289806
0.0002148233359
0.0002128201743
0.0002107381639
0.0002084881767
0.0002061257649
0.0002035408342
0.0002007598151
0.0001982123411
0.0001958013082
0.0001933689187
0.0001905219906
0.0001874088698
0.0001845815808
0.0001818732147
0.00017924602
0.000176533926
0.0001738234847
0.0001710693331
0.0001684199528
0.000165974695
0.0001635516143
0.000161070513
0.000158525651
0.0001559738637
0.0001531359471
0.0001503989124
0.0001480967241
0.0001454924183
0.0001426002558
0.0001400147433
0.0001377519113
0.0001354973678
0.0001330668437
0.0001308027332
0.0001286019818
0.0001263938805
0.0001239723488
0.0001215794784
0.000119357771
0.0001172406057
0.0001151029107
0.0001128347283
0.0001105209244
0.0001084980857
0.0001064285927
0.0001041768194
0.0001014353446
9.880070973e-05
9.605528726e-05
9.345713499e-05
9.064539884e-05
8.756564117e-05
8.469432837e-05
8.228320534e-05
7.973834816e-05
7.737989028e-05
7.47065085e-05
7.231972956e-05
7.027926037e-05
6.814758318e-05
6.591424969e-05
6.397173032e-05
6.218862051e-05
6.048556626e-05
5.896512944e-05
5.743406856e-05
5.58953343e-05
5.445032617e-05
5.305342595e-05
5.153171981e-05
5.038965859e-05
4.924769427e-05
4.817350027e-05
4.705970675e-05
4.578333752e-05
4.449055003e-05
4.315159123e-05
4.227770788e-05
4.100874161e-05
3.976221401e-05
3.864886151e-05
3.761525848e-05
3.658648088e-05
3.551239118e-05
3.44122792e-05
3.334771358e-05
3.232818762e-05
3.12790038e-05
3.011698634e-05
2.895488044e-05
2.770554162e-05
2.637109255e-05
2.511443925e-05
2.39536616e-05
2.281311821e-05
2.153932211e-05
2.033560567e-05
1.915556135e-05
1.81586583e-05
1.714305831e-05
1.604334859e-05
1.502896125e-05
1.40348335e-05
1.303896907e-05
1.200225124e-05
1.097508995e-05
9.931652018e-06
8.954521395e-06
8.073372042e-06
7.306365287e-06
6.639651075e-06
5.951659485e-06
5.387020024e-06
4.938203157e-06
4.48108688e-06
4.073827688e-06
3.820451275e-06
3.463506503e-06
3.262571772e-06
3.235862617e-06
2.987907456e-06
3.089193426e-06
3.159851136e-06
3.030014222e-06
2.859324756e-06
3.043630754e-06
2.903192184e-06
2.71990077e-06
2.668303539e-06
2.663239919e-06
2.503900947e-06
2.278812277e-06
1.890136539e-06
1.779530302e-06
1.560621515e-06
1.320874328e-06
1.009123928e-06
7.608221614e-07
5.655939599e-07
3.873046098e-07
6.582147528e-08
-1.804248294e-07
-2.81095058e-07
-2.979935902e-07
-3.653323729e-07
-4.092226546e-07
-4.832282197e-07
-5.408095322e-07
-5.389112502e-07
-5.416928974e-07
-5.399810141e-07
-5.566029576e-07
-5.556861574e-07
-5.771791299e-07
-5.783605939e-07
-5.945320909e-07
-5.931458871e-07
-5.993552908e-07
-5.940729255e-07
-5.888141712e-07
-5.765667525e-07
-5.623348949e-07
-5.521526203e-07
-5.443244749e-07
-5.478609635e-07
-5.526953424e-07
-5.64432209e-07
-5.728110783e-07
-5.782637075e-07
-5.714409439e-07
-5.764994303e-07
-5.620819973e-07
-5.757171993e-07
-5.728259334e-07
-5.811465449e-07
-5.841184957e-07
-5.862260748e-07
-5.942608213e-07
-5.993597309e-07
-6.158146716e-07
-6.267216773e-07
-6.482573343e-07
-6.512663736e-07
-6.602098223e-07
-6.467316964e-07
-6.29848865e-07
-6.111286227e-07
-5.889979494e-07
-5.795420577e-07
-5.687812273e-07
-5.723068212e-07
-5.705955822e-07
-5.641516974e-07
-5.759868979e-07
-5.574751777e-07
-5.673618954e-07
-5.559999161e-07
-5.560876443e-07
-5.621009974e-07
-5.503804821e-07
-5.696605275e-07
-5.515749105e-07
-5.771488106e-07
-5.739300354e-07
-6.01448358e-07
-6.108111359e-07
-6.098188677e-07
-6.242404151e-07
-5.935567791e-07
-5.897897736e-07
-5.667634069e-07
-5.531103782e-07
-5.50809951e-07
-5.600184954e-07
-5.811018648e-07
-5.977408057e-07
-6.230054866e-07
-6.332876983e-07
-6.460282457e-07
-6.519138558e-07
-6.516103502e-07
-6.515834374e-07
-6.309712174e-07
-6.281236202e-07
-6.005976893e-07
-5.919430435e-07
-5.733801931e-07
-2.226502065e-07
1.60994306e-07
5.865507637e-07
5.774994117e-07
1.017151138e-06
1.010844873e-06
1.020290164e-06
1.020357349e-06
1.02728661e-06
1.02704515e-06
1.023916759e-06
1.010483293e-06
1.005429112e-06
9.8531493e-07
9.673520236e-07
9.495416038e-07
9.184046336e-07
9.079904674e-07
8.964229477e-07
9.067777451e-07
9.110818652e-07
9.346224861e-07
9.444540641e-07
9.639124689e-07
9.754593311e-07
9.925461883e-07
9.979012586e-07
1.010209998e-06
1.016784617e-06
1.022923272e-06
1.034494883e-06
1.025979689e-06
1.032602239e-06
1.001521655e-06
9.985502831e-07
9.724668892e-07
9.600191746e-07
9.515310782e-07
9.346186072e-07
9.349340958e-07
9.202624436e-07
9.168065235e-07
9.164434548e-07
9.11658451e-07
9.170506637e-07
9.188200644e-07
9.219120169e-07
9.256682741e-07
9.318906115e-07
9.322282496e-07
9.37136209e-07
9.394854104e-07
9.414423344e-07
9.488765458e-07
9.472055789e-07
9.439545018e-07
9.300057958e-07
9.194250601e-07
9.074769586e-07
9.035828295e-07
9.110583306e-07
9.17286163e-07
9.302406956e-07
9.566781365e-07
9.714278089e-07
1.013602487e-06
1.034646938e-06
1.057683857e-06
1.0520337e-06
1.050870902e-06
1.038135002e-06
1.029263602e-06
1.037626154e-06
1.028226176e-06
1.043504499e-06
1.029186934e-06
1.02714424e-06
1.010481932e-06
9.905512562e-07
9.789364978e-07
9.531497431e-07
9.505176283e-07
9.213481377e-07
9.259529302e-07
9.11292289e-07
9.290511216e-07
9.353049924e-07
9.550364423e-07
9.824523881e-07
9.90584824e-07
1.014821544e-06
9.993455512e-07
1.007399544e-06
9.846502357e-07
9.836457233e-07
9.681777936e-07
9.651467122e-07
9.550814426e-07
9.526686171e-07
9.579471028e-07
9.513359214e-07
9.60468539e-07
9.523642902e-07
9.529447646e-07
9.478564065e-07
9.39315737e-07
9.331286961e-07
9.252743377e-07
9.250137408e-07
9.349873378e-07
9.451043809e-07
9.638009003e-07
9.745566768e-07
9.850445446e-07
9.900150716e-07
9.86441408e-07
9.771031309e-07
9.560619809e-07
9.425897142e-07
9.361629788e-07
9.383493942e-07
9.430327883e-07
9.537823473e-07
9.546118865e-07
9.565812429e-07
9.520746155e-07
9.417301494e-07
9.339512242e-07
9.305334009e-07
9.260441084e-07
9.406778506e-07
9.287322441e-07
9.360716683e-07
9.430251219e-07
9.261796568e-07
9.534128772e-07
9.405762039e-07
9.566478428e-07
9.535943055e-07
9.560452697e-07
9.542834073e-07
9.396363119e-07
9.411292253e-07
9.317050845e-07
9.35752329e-07
9.517568986e-07
9.673666236e-07
9.89361172e-07
1.002795016e-06
1.022125584e-06
1.022442339e-06
1.021906128e-06
1.018434328e-06
1.011704702e-06
1.005946014e-06
1.002847473e-06
1.006655756e-06
1.013570123e-06
1.0177729e-06
1.030863804e-06
1.033197969e-06
1.034003637e-06
1.035492075e-06
1.041927117e-06
1.040029194e-06
1.050959913e-06
1.063930513e-06
1.07480102e-06
1.090138284e-06
1.104004425e-06
1.10831984e-06
1.110708209e-06
1.120224693e-06
1.112674176e-06
1.122922447e-06
1.106184878e-06
1.106191055e-06
1.076151966e-06
1.054642072e-06
1.031905995e-06
9.978895511e-07
9.956161676e-07
9.781108221e-07
9.9269519e-07
9.995437589e-07
1.015264155e-06
1.031668739e-06
1.022830474e-06
1.031874851e-06
9.960893972e-07
9.000812761e-07
8.705380283e-07
5.995218979e-07
4.109326371e-07
1.310647721e-07
-1.240099421e-07
-4.530511151e-07
-6.423586661e-07
-8.129546104e-07
-1.167435101e-06
-1.764645613e-06
-2.420404152e-06
-2.989591502e-06
-3.476557718e-06
-4.023013997e-06
-4.529520584e-06
-5.067068946e-06
-5.678354628e-06
-6.24771602e-06
-6.916654184e-06
-7.626261529e-06
-8.505177992e-06
-9.143481076e-06
-9.758735338e-06
-1.038136887e-05
-1.122439811e-05
-1.200992215e-05
-1.270925232e-05
-1.332965249e-05
-1.413518142e-05
-1.51135515e-05
-1.626150178e-05
-1.730111179e-05
-1.827605962e-05
-1.943955971e-05
-2.077443297e-05
-2.19385172e-05
-2.302445952e-05
-2.400109361e-05
-2.514628207e-05
-2.634604169e-05
-2.757455653e-05
-2.892595913e-05
-3.052525799e-05
-3.241700607e-05
-3.443601199e-05
-3.657851828e-05
-3.851019196e-05
-4.01287774e-05
-4.180899888e-05
-4.357130212e-05
-4.513610635e-05
-4.684955004e-05
-4.874128468e-05
-5.079620827e-05
-5.262214551e-05
-5.431373009e-05
-5.58793427e-05
-5.753356788e-05
-5.917265201e-05
-6.103291326e-05
-6.29954213e-05
-6.479472438e-05
-6.640861827e-05
-6.79037366e-05
-6.909546277e-05
-7.015316531e-05
-7.136792623e-05
-7.250785809e-05
-7.34314867e-05
-7.429030122e-05
-7.514913798e-05
-7.612756717e-05
-7.702535215e-05
-7.77173935e-05
-7.832241779e-05
-7.889705277e-05
-7.935549123e-05
-7.982305048e-05
-8.011824951e-05
-8.059284489e-05
-8.093015036e-05
-8.119811126e-05
-8.138163375e-05
-8.163070043e-05
-8.193157659e-05
-8.233459886e-05
-8.277691653e-05
-8.328870787e-05
-8.370160783e-05
-8.386239154e-05
-8.397070902e-05
-8.410949238e-05
-8.4369657e-05
-8.45995271e-05
-8.499716318e-05
-8.531116803e-05
-8.571924066e-05
-8.598675311e-05
-8.628662195e-05
-8.651834102e-05
-8.686703642e-05
-8.751607275e-05
-8.834173715e-05
-8.929128506e-05
-9.026930961e-05
-9.113637109e-05
-9.203986358e-05
-9.315958472e-05
-9.434288445e-05
-9.57046349e-05
-9.709767228e-05
-9.885940833e-05
-0.0001006137822
-0.0001022009029
-0.0001039424487
-0.0001057816491
-0.0001073388925
-0.0001089610228
-0.0001105380119
-0.000112013315
-0.0001134261472
-0.0001150440749
-0.000116874067
-0.0001190226614
-0.0001211320293
-0.0001232147817
-0.0001253935297
-0.0001278273839
-0.0001300855484
-0.0001321225447
-0.000134346056
-0.0001368315631
-0.0001392179659
-0.0001415334631
-0.0001437156963
-0.0001458717491
-0.0001481326924
-0.0001502169701
-0.0001523310744
-0.000154342955
-0.0001562494469
-0.0001585178127
-0.0001606540138
-0.0001625447809
-0.0001641642173
-0.0001657372392
-0.0001670668013
-0.0001682255861
-0.0001694999164
-0.0001710442047
-0.0001728206282
-0.0001747000597
-0.000176341629
-0.0001776226466
-0.00017875361
-0.0001799079438
-0.0001813096489
-0.0001828079
-0.0001845324313
-0.0001861366186
-0.0001879804291
-0.000189921986
-0.0001918840477
-0.0001938391157
-0.0001963158756
-0.0001989817105
-0.0002013155978
-0.0002032698852
-0.000205295429
-0.0002073620266
-0.0002094902412
-0.0002116724815
-0.0002139269538
-0.0002163877904
-0.0002191243635
121.2752702
236.1698432
242.2602161
248.2318746
314.0953218
385.5071827
453.4125938
517.6649658
609.0911125
700.9137675
787.8925511
872.5050755
952.6717361
1038.562973
1137.013425
1231.808757
1323.405015
1412.875462
1500.359295
1589.627131
1676.291219
1758.584374
1837.022281
1921.141842
2019.209711
2118.501518
2212.064155
2299.999276
2388.179819
2475.581872
2564.50694
2663.186646
2781.231897
2909.182599
3022.686606
3124.220827
3233.414441
3343.382341
3446.85114
3544.672854
3640.68544
3742.475724
3852.317615
3967.132866
4080.211616
4184.81934
4281.30202
4373.073339
4462.50091
4555.953383
4651.806683
4745.567229
4838.688051
4940.632195
5050.016416
5158.961669
5261.692583
5360.652401
5460.378172
5572.661755
5692.058158
5801.638732
5898.101968
5991.270951
6089.370602
6188.122595
6280.104153
6373.31449
6459.515837
6539.26364
6633.542597
6745.868428
6878.517309
7008.717756
7123.792406
7230.485777
7329.384273
7417.589198
7506.991411
7605.317666
7705.670303
7798.189517
7886.152685
7972.934415
8057.271433
8144.804961
8237.763929
8335.341338
8440.673652
8552.349203
8660.983325
8762.910607
8856.741593
8946.758811
9039.922577
9139.225462
9243.732984
9351.586341
9461.651057
9577.236885
9694.220068
9814.406943
9943.465
10072.51128
10184.63017
10280.94334
10372.58862
10466.29827
10563.04897
10666.50398
10767.6906
10861.01331
10947.71187
11035.67896
11124.71594
11217.38455
11328.02912
11447.20136
11559.4452
11662.45875
11754.09484
11841.96389
11926.13044
12013.12408
12111.38311
12199.42369
12293.8282
12411.05543
12531.75637
12645.59265
12752.15963
12850.1312
12945.28552
13043.57683
13137.35079
13235.98736
13336.65698
13432.20625
13524.31228
13614.26529
13712.78452
13819.21121
13926.03694
14025.54166
14109.89248
14193.7438
14279.03741
14370.67104
14470.04917
14563.82096
14655.94363
14743.91967
14830.04928
14914.57379
15007.18394
15104.40738
15214.88352
15320.57647
15415.74145
15522.54412
15629.77399
15727.89444
15820.59807
15913.54341
16009.38206
16109.51202
16221.61375
16342.54093
16468.37348
16593.59747
16722.44495
16855.96287
16973.27299
17071.97791
17172.64755
17281.44923
17393.65907
17505.44954
17605.6305
17700.56959
17794.14439
17894.01692
18007.3634
18123.83421
18237.68495
18336.17603
18426.28594
18520.16213
18613.57498
18711.47305
18813.38911
18910.84515
19012.35292
19122.22455
19236.89189
19351.64365
19453.25859
19546.27372
19629.38654
19718.46556
19821.59525
19928.80012
20039.19845
20145.94717
20243.09456
20335.25037
20426.83112
20526.03711
20657.95143
20800.25759
20924.95414
21033.39967
21134.6076
21239.2579
21361.30862
21506.2196
21661.75881
21817.27341
21969.57263
22114.12204
22238.10825
22353.71518
22463.66937
22565.1426
22663.97501
22761.67436
22857.15475
22953.25601
23049.52611
23150.86669
23258.89628
23364.09109
23461.04218
23556.02997
23648.05937
23739.00787
23829.68974
23925.7414
24032.54175
24142.93708
24254.81129
24360.3188
24460.38153
24558.2682
24666.10069
24782.96525
24913.28706
25051.11949
25166.57307
25276.29407
25381.94617
25474.92686
25574.596
25678.67247
25775.43588
25880.64621
25990.8864
26107.70392
26236.11875
26354.5587
26462.06396
26570.91612
26690.23782
26821.11001
26958.05593
27086.05092
27196.04433
27290.52049
27376.20107
27466.78502
27564.60503
27663.05846
27760.94469
27854.12907
27939.89544
28024.18527
28113.19285
28207.44925
28309.38224
28411.35253
28521.28145
28639.09563
28754.4528
28863.43816
28963.76747
29057.70877
29147.76415
29238.50239
29326.46058
29415.17318
29505.69861
29599.97414
29707.45491
29822.18455
29936.24196
30043.79449
30136.8994
30227.85524
30322.97914
30411.12565
30504.71565
30608.23795
30716.7925
30838.6072
30974.51648
31102.10989
31215.7431
31325.60971
31430.70988
31531.21827
31638.4523
31761.94235
31883.09666
31989.31004
32081.89963
32175.89737
32286.34368
32402.76229
32514.61797
32620.27998
32718.24056
32813.95132
32908.85285
33008.93802
33117.3978
33228.11072
33337.6641
33442.13758
33541.68111
33653.65307
33771.27791
33869.83436
33964.60545
34064.91106
34157.70349
34244.49431
34329.90978
34424.5498
34525.60496
34628.46053
34732.86805
34830.37612
34915.397
35000.88975
35083.75996
35166.63324
35256.30786
35342.01228
35437.53072
35539.93525
35635.04359
35723.04224
35813.73592
35909.83728
35998.64399
36088.53935
36183.95312
36272.47711
36354.93188
36442.07
36545.1101
36655.63728
36765.0214
36875.67583
36981.52952
37085.2466
37189.96454
37286.6818
37381.41986
37483.47012
37598.6256
37714.58239
37826.80426
37932.43301
38036.70885
38135.13694
38227.48105
38316.28411
38403.20513
38498.33541
38584.9844
38673.93859
38777.10334
38885.45779
39001.3557
39118.88195
39239.22938
39355.35734
39461.93539
39565.10413
39665.70075
39776.47333
39893.85144
39997.77891
40097.53361
40194.22776
40282.15738
40367.65571
40452.78515
40542.87165
40638.60691
40734.63621
40828.12133
40924.62332
41021.18273
41122.05316
41230.36143
41329.47268
41411.54663
41495.75823
41590.99304
41689.03194
41801.71595
41915.04146
42019.7595
42119.18587
42208.54718
42294.48904
42371.23154
42450.7378
42533.29644
42616.87461
42714.293
42814.88566
42912.19251
43005.57285
43095.95574
43188.6779
43278.36082
43372.38276
43464.51746
43550.80894
43635.99289
43726.525
43826.02681
43940.35688
44061.8632
44170.07296
44279.5625
44395.70358
44507.88975
44615.99843
44720.2139
44816.19321
44914.31716
45009.01983
45101.75776
45194.01041
45292.86433
45398.6017
45512.34083
45624.82467
45719.88318
45810.19278
45904.87025
46008.84114
46125.66711
46238.27259
46335.88997
46438.72561
46537.99261
46625.45405
46713.71745
46800.56833
46885.87703
46972.14751
47057.53724
47139.20905
47217.70455
47305.89655
47398.50443
47494.9113
47598.20632
47698.18112