/*--------------------------------*- C++ -*----------------------------------*\
| =========                 |                                                 |
| \\      /  F ield         | OpenFOAM: The Open Source CFD Toolbox           |
|  \\    /   O peration     | Version:  2012                                  |
|   \\  /    A nd           | Website:  www.openfoam.com                      |
|    \\/     M anipulation  |                                                 |
\*---------------------------------------------------------------------------*/
FoamFile
{
    version     2.0;
    format      ascii;
    class       volVectorField;
    location    "0.00012";
    object      U;
}
// * * * * * * * * * * * * * * * * * * * * * * * * * * * * * * * * * * * * * //

dimensions      [0 1 -1 0 0 0 0];


internalField   nonuniform List<vector> 
5000
(
(-1.997641271e-15 0 0)
(7.279043057e-15 0 0)
(1.724448519e-14 0 0)
(1.712959847e-14 0 0)
(6.560496127e-15 0 0)
(-3.413641479e-15 0 0)
(-1.109810989e-14 0 0)
(-1.311317888e-14 0 0)
(-1.772994502e-14 0 0)
(-2.671977845e-14 0 0)
(-3.54211234e-14 0 0)
(-4.67703831e-14 0 0)
(-4.690193627e-14 0 0)
(-4.288061046e-14 0 0)
(-3.047323339e-14 0 0)
(-3.887618145e-15 0 0)
(1.942664217e-14 0 0)
(2.221932983e-14 0 0)
(1.410075699e-14 0 0)
(-5.974514158e-15 0 0)
(-1.015239618e-13 0 0)
(-1.869522386e-13 0 0)
(-1.090309518e-13 0 0)
(-1.066319507e-13 0 0)
(7.12024504e-14 0 0)
(2.457375175e-13 0 0)
(1.745278799e-13 0 0)
(1.677132038e-13 0 0)
(1.462029385e-13 0 0)
(2.39887921e-14 0 0)
(2.603744896e-14 0 0)
(1.049032056e-13 0 0)
(1.267160998e-13 0 0)
(1.274557767e-13 0 0)
(1.909021566e-13 0 0)
(1.517453244e-13 0 0)
(1.375843998e-13 0 0)
(1.540930481e-13 0 0)
(1.157041023e-13 0 0)
(2.100759519e-13 0 0)
(1.705036047e-13 0 0)
(7.37127325e-14 0 0)
(1.799827984e-13 0 0)
(2.279795948e-13 0 0)
(2.057890133e-13 0 0)
(1.955863605e-13 0 0)
(1.637257233e-13 0 0)
(1.709838777e-13 0 0)
(1.624924995e-13 0 0)
(1.694383601e-13 0 0)
(2.066740544e-13 0 0)
(1.222563058e-13 0 0)
(1.275628206e-13 0 0)
(1.410337716e-13 0 0)
(1.392638375e-13 0 0)
(1.36222827e-13 0 0)
(1.516241983e-13 0 0)
(1.285235552e-13 0 0)
(1.142764244e-13 0 0)
(1.033052758e-13 0 0)
(9.262231467e-14 0 0)
(7.890178847e-14 0 0)
(6.225149851e-14 0 0)
(4.215295402e-14 0 0)
(1.716978483e-14 0 0)
(-5.277551425e-15 0 0)
(-2.159683331e-14 0 0)
(-3.576677591e-14 0 0)
(-4.118663178e-14 0 0)
(-4.567679773e-14 0 0)
(-4.350449939e-14 0 0)
(-4.183675862e-14 0 0)
(-4.22122259e-14 0 0)
(-4.602273259e-14 0 0)
(-6.09737157e-14 0 0)
(-6.881504121e-14 0 0)
(-7.426376682e-14 0 0)
(-7.721288716e-14 0 0)
(-8.056917229e-14 0 0)
(-8.165889648e-14 0 0)
(-8.576613902e-14 0 0)
(-8.72093943e-14 0 0)
(-9.251557447e-14 0 0)
(-9.474383197e-14 0 0)
(-9.43431159e-14 0 0)
(-9.311102313e-14 0 0)
(-9.649819375e-14 0 0)
(-9.787159611e-14 0 0)
(-9.819352381e-14 0 0)
(-9.267382861e-14 0 0)
(-8.509224889e-14 0 0)
(-8.406576504e-14 0 0)
(-7.900181777e-14 0 0)
(-7.499125189e-14 0 0)
(-7.335738206e-14 0 0)
(-6.835996257e-14 0 0)
(-5.908754133e-14 0 0)
(-4.328086638e-14 0 0)
(-1.907832413e-14 0 0)
(6.092420404e-16 0 0)
(2.743524925e-14 0 0)
(5.212841977e-14 0 0)
(7.597426421e-14 0 0)
(8.869906505e-14 0 0)
(1.036637966e-13 0 0)
(1.173222929e-13 0 0)
(1.255159129e-13 0 0)
(1.323982671e-13 0 0)
(1.343290431e-13 0 0)
(1.33354863e-13 0 0)
(1.26604833e-13 0 0)
(1.230952618e-13 0 0)
(1.234429337e-13 0 0)
(1.23289101e-13 0 0)
(1.2148802e-13 0 0)
(1.128028395e-13 0 0)
(1.042052495e-13 0 0)
(9.133485467e-14 0 0)
(8.33992794e-14 0 0)
(6.917177756e-14 0 0)
(5.966605132e-14 0 0)
(4.737317844e-14 0 0)
(3.584482632e-14 0 0)
(2.667722573e-14 0 0)
(1.508526581e-14 0 0)
(1.269199823e-14 0 0)
(1.283749177e-14 0 0)
(1.442304674e-14 0 0)
(9.529817507e-15 0 0)
(2.389609592e-15 0 0)
(3.168731333e-15 0 0)
(-6.877608327e-18 0 0)
(2.416264054e-15 0 0)
(4.378533394e-15 0 0)
(3.726609681e-15 0 0)
(5.926843084e-15 0 0)
(8.683074211e-15 0 0)
(1.345092287e-14 0 0)
(1.453001721e-14 0 0)
(1.480238274e-14 0 0)
(1.840171791e-14 0 0)
(2.11737714e-14 0 0)
(1.941028438e-14 0 0)
(1.657625757e-14 0 0)
(1.436192471e-14 0 0)
(1.059040466e-14 0 0)
(1.175680173e-14 0 0)
(5.499574575e-15 0 0)
(-5.550213138e-15 0 0)
(-1.348930854e-14 0 0)
(-2.166393547e-14 0 0)
(-2.777050856e-14 0 0)
(-2.742771782e-14 0 0)
(-3.030015904e-14 0 0)
(-3.479026815e-14 0 0)
(-4.563263628e-14 0 0)
(-7.084333503e-14 0 0)
(-8.907001908e-14 0 0)
(-1.055173263e-13 0 0)
(-1.097455991e-13 0 0)
(-1.151349316e-13 0 0)
(-1.162784926e-13 0 0)
(-1.19446926e-13 0 0)
(-1.208751871e-13 0 0)
(-1.178762287e-13 0 0)
(-1.176394841e-13 0 0)
(-1.150424422e-13 0 0)
(-1.068198453e-13 0 0)
(-1.006339137e-13 0 0)
(-8.868698685e-14 0 0)
(-8.575165841e-14 0 0)
(-6.797754926e-14 0 0)
(-4.692417624e-14 0 0)
(-3.106059664e-14 0 0)
(-2.013808583e-14 0 0)
(-1.874389994e-14 0 0)
(-2.182914524e-14 0 0)
(-3.042582748e-14 0 0)
(-4.69334601e-14 0 0)
(-6.705964173e-14 0 0)
(-7.62426258e-14 0 0)
(-7.963863762e-14 0 0)
(-7.784849058e-14 0 0)
(-7.166961578e-14 0 0)
(-5.850472862e-14 0 0)
(-4.444339374e-14 0 0)
(-3.245619339e-14 0 0)
(-1.614434497e-14 0 0)
(-1.022824976e-14 0 0)
(-3.803705396e-16 0 0)
(8.072014466e-15 0 0)
(1.730258355e-14 0 0)
(2.200753321e-14 0 0)
(2.471100428e-14 0 0)
(2.769417015e-14 0 0)
(3.300334681e-14 0 0)
(4.144485994e-14 0 0)
(5.274491929e-14 0 0)
(6.396389475e-14 0 0)
(7.174073877e-14 0 0)
(7.495368982e-14 0 0)
(7.672292748e-14 0 0)
(7.074147298e-14 0 0)
(5.644802118e-14 0 0)
(3.60345888e-14 0 0)
(3.243297389e-14 0 0)
(3.293804754e-14 0 0)
(3.559731808e-14 0 0)
(3.748889908e-14 0 0)
(3.616981985e-14 0 0)
(3.426577536e-14 0 0)
(3.485341007e-14 0 0)
(2.967138058e-14 0 0)
(1.218220793e-14 0 0)
(-1.402598355e-15 0 0)
(-7.751611838e-15 0 0)
(-1.300127815e-14 0 0)
(-1.935839608e-14 0 0)
(-2.252657132e-14 0 0)
(-2.724854375e-14 0 0)
(-3.563798239e-14 0 0)
(-4.394446771e-14 0 0)
(-5.105299099e-14 0 0)
(-4.621588319e-14 0 0)
(-3.793310408e-14 0 0)
(-3.019354145e-14 0 0)
(-2.68600378e-14 0 0)
(-2.333008115e-14 0 0)
(-2.325066861e-14 0 0)
(-2.041114149e-14 0 0)
(-1.199002448e-14 0 0)
(2.43100521e-15 0 0)
(1.396193733e-14 0 0)
(2.603693856e-14 0 0)
(3.859583439e-14 0 0)
(4.162471568e-14 0 0)
(4.096516039e-14 0 0)
(3.859830743e-14 0 0)
(3.213301449e-14 0 0)
(2.841156556e-14 0 0)
(1.917109603e-14 0 0)
(1.762285087e-14 0 0)
(1.508116878e-14 0 0)
(1.596019858e-14 0 0)
(2.348596493e-14 0 0)
(3.976907916e-14 0 0)
(6.177034045e-14 0 0)
(8.751970791e-14 0 0)
(1.103397396e-13 0 0)
(1.264668624e-13 0 0)
(1.322300482e-13 0 0)
(1.34213149e-13 0 0)
(1.306546529e-13 0 0)
(1.297521095e-13 0 0)
(1.242597055e-13 0 0)
(1.122370881e-13 0 0)
(9.38834738e-14 0 0)
(8.152598055e-14 0 0)
(6.138673979e-14 0 0)
(4.323441391e-14 0 0)
(3.051597731e-14 0 0)
(2.029083703e-14 0 0)
(1.072351461e-14 0 0)
(6.151630347e-15 0 0)
(-1.584088169e-17 0 0)
(-3.508478888e-15 0 0)
(-1.12137113e-14 0 0)
(-1.322367238e-14 0 0)
(-1.858821373e-14 0 0)
(-2.162649172e-14 0 0)
(-2.191292992e-14 0 0)
(-1.67754072e-14 0 0)
(-1.139849481e-14 0 0)
(-5.469663228e-15 0 0)
(5.620804545e-15 0 0)
(1.390375136e-14 0 0)
(2.026253247e-14 0 0)
(2.013528608e-14 0 0)
(1.309527708e-14 0 0)
(3.563439967e-15 0 0)
(-9.623682675e-15 0 0)
(-2.682600538e-14 0 0)
(-3.526830979e-14 0 0)
(-3.599831069e-14 0 0)
(-2.991676353e-14 0 0)
(-1.89165874e-14 0 0)
(-1.139748829e-14 0 0)
(-9.363858428e-15 0 0)
(-1.026999675e-14 0 0)
(-9.783947259e-15 0 0)
(-8.992421335e-15 0 0)
(-6.507697378e-15 0 0)
(-4.947426311e-15 0 0)
(-4.117161024e-15 0 0)
(-4.628697405e-16 0 0)
(5.225862911e-15 0 0)
(1.283284973e-14 0 0)
(1.678069687e-14 0 0)
(1.91522458e-14 0 0)
(1.964403438e-14 0 0)
(1.847886533e-14 0 0)
(1.238500379e-14 0 0)
(1.621578009e-15 0 0)
(-5.266329208e-15 0 0)
(-1.255317927e-14 0 0)
(-1.724649084e-14 0 0)
(-2.170001446e-14 0 0)
(-2.241082027e-14 0 0)
(-2.160626884e-14 0 0)
(-1.924368479e-14 0 0)
(-1.413472445e-14 0 0)
(-3.911100883e-15 0 0)
(7.345910476e-15 0 0)
(1.740486473e-14 0 0)
(2.549411067e-14 0 0)
(2.947720824e-14 0 0)
(2.928040486e-14 0 0)
(3.082027872e-14 0 0)
(3.127831633e-14 0 0)
(3.125536218e-14 0 0)
(3.012220807e-14 0 0)
(2.243545114e-14 0 0)
(1.163391336e-14 0 0)
(4.027239533e-15 0 0)
(8.693314743e-15 0 0)
(1.024776448e-14 0 0)
(1.252224561e-14 0 0)
(1.157168894e-14 0 0)
(8.522056584e-15 0 0)
(6.549328652e-15 0 0)
(2.115811851e-15 0 0)
(-3.058608639e-15 0 0)
(-1.13169721e-14 0 0)
(-1.712678651e-14 0 0)
(-2.331218056e-14 0 0)
(-2.953464529e-14 0 0)
(-4.297253139e-14 0 0)
(-4.743089559e-14 0 0)
(-5.592781316e-14 0 0)
(-5.982028175e-14 0 0)
(-6.183414344e-14 0 0)
(-6.011474003e-14 0 0)
(-3.833565243e-14 0 0)
(-2.41516898e-14 0 0)
(-9.251065005e-15 0 0)
(-1.265274302e-15 0 0)
(6.20669944e-15 0 0)
(1.438790443e-14 0 0)
(2.373597644e-14 0 0)
(2.722367487e-14 0 0)
(2.601097274e-14 0 0)
(1.960872132e-14 0 0)
(1.368676011e-14 0 0)
(6.845921426e-15 0 0)
(-9.404431588e-16 0 0)
(-2.514619497e-15 0 0)
(-4.259128368e-15 0 0)
(-5.942256915e-15 0 0)
(-6.743098764e-15 0 0)
(-1.217554174e-15 0 0)
(1.2336191e-14 0 0)
(2.925124298e-14 0 0)
(4.08328222e-14 0 0)
(4.650174847e-14 0 0)
(4.827953658e-14 0 0)
(4.713347843e-14 0 0)
(3.821340319e-14 0 0)
(2.717438105e-14 0 0)
(1.2040018e-14 0 0)
(-3.394243764e-15 0 0)
(-1.408849167e-14 0 0)
(-1.8420472e-14 0 0)
(-1.709105034e-14 0 0)
(-1.330556481e-14 0 0)
(-5.620293751e-15 0 0)
(1.012164885e-15 0 0)
(5.119982677e-15 0 0)
(2.648109001e-15 0 0)
(-1.625871359e-15 0 0)
(-3.898727046e-15 0 0)
(-3.757070907e-15 0 0)
(-3.859489737e-15 0 0)
(-2.885551787e-15 0 0)
(-2.79479583e-15 0 0)
(-1.214166157e-15 0 0)
(-4.642183507e-15 0 0)
(-8.358155285e-15 0 0)
(-6.346312977e-15 0 0)
(1.875708519e-15 0 0)
(8.556841697e-15 0 0)
(1.381850029e-14 0 0)
(1.336772986e-14 0 0)
(9.29272104e-15 0 0)
(5.471236237e-15 0 0)
(2.389344068e-15 0 0)
(5.419419474e-16 0 0)
(-5.274077831e-16 0 0)
(-7.801134483e-15 0 0)
(-1.064378232e-14 0 0)
(-8.871446154e-15 0 0)
(-9.79572257e-16 0 0)
(5.541172338e-15 0 0)
(5.33172359e-15 0 0)
(4.019880565e-15 0 0)
(4.052975077e-16 0 0)
(-1.568199977e-14 0 0)
(-3.116514984e-14 0 0)
(-3.856450494e-14 0 0)
(-3.753519865e-14 0 0)
(-3.114676064e-14 0 0)
(-2.511371555e-14 0 0)
(-2.106214126e-14 0 0)
(-1.661461895e-14 0 0)
(-9.838514251e-15 0 0)
(-3.129238278e-15 0 0)
(-1.411139023e-15 0 0)
(5.98111846e-17 0 0)
(3.534047177e-15 0 0)
(9.832831241e-15 0 0)
(2.09292771e-14 0 0)
(2.887098313e-14 0 0)
(3.231730373e-14 0 0)
(3.044443973e-14 0 0)
(1.930652501e-14 0 0)
(1.390444141e-14 0 0)
(1.219738693e-14 0 0)
(1.323953623e-14 0 0)
(1.219946672e-14 0 0)
(8.643511654e-15 0 0)
(4.065688915e-15 0 0)
(-4.002093708e-16 0 0)
(-7.342574949e-15 0 0)
(-1.032887695e-14 0 0)
(-1.192746435e-14 0 0)
(-1.136151685e-14 0 0)
(-1.257141443e-14 0 0)
(-1.016959541e-14 0 0)
(-9.465329653e-15 0 0)
(-4.053244687e-15 0 0)
(-3.28413375e-15 0 0)
(-8.992548604e-15 0 0)
(-1.753171366e-14 0 0)
(-2.253516194e-14 0 0)
(-2.551262814e-14 0 0)
(-2.388298367e-14 0 0)
(-2.127461298e-14 0 0)
(-1.579010082e-14 0 0)
(-1.34050362e-14 0 0)
(-8.286905819e-15 0 0)
(2.506674534e-15 0 0)
(1.869013523e-14 0 0)
(2.631658139e-14 0 0)
(2.522299192e-14 0 0)
(2.334230872e-14 0 0)
(2.30745009e-14 0 0)
(2.206821197e-14 0 0)
(2.100037236e-14 0 0)
(2.032822397e-14 0 0)
(1.823932259e-14 0 0)
(1.479120972e-14 0 0)
(1.090284352e-14 0 0)
(9.612790636e-15 0 0)
(1.105350797e-14 0 0)
(1.235105186e-14 0 0)
(1.381061763e-14 0 0)
(1.211523499e-14 0 0)
(1.357776282e-14 0 0)
(1.478039798e-14 0 0)
(1.590546736e-14 0 0)
(1.293932601e-14 0 0)
(5.265978837e-15 0 0)
(-6.956084785e-15 0 0)
(-2.455880857e-14 0 0)
(-3.39715631e-14 0 0)
(-4.86162596e-14 0 0)
(-5.574923514e-14 0 0)
(-5.264943435e-14 0 0)
(-3.762631965e-14 0 0)
(-1.932096824e-14 0 0)
(5.077271833e-15 0 0)
(2.728441969e-14 0 0)
(3.485711207e-14 0 0)
(3.614927974e-14 0 0)
(3.442875223e-14 0 0)
(2.835409152e-14 0 0)
(2.16892007e-14 0 0)
(1.415090029e-14 0 0)
(7.451404276e-15 0 0)
(-1.183276876e-15 0 0)
(-1.124191354e-14 0 0)
(-1.923819202e-14 0 0)
(-2.647253905e-14 0 0)
(-2.504423749e-14 0 0)
(-2.093437066e-14 0 0)
(-1.400979323e-14 0 0)
(-8.058334365e-15 0 0)
(-4.939362637e-15 0 0)
(-4.312528008e-16 0 0)
(3.341152644e-15 0 0)
(6.590281025e-15 0 0)
(8.026608931e-15 0 0)
(9.747922002e-15 0 0)
(1.213536987e-14 0 0)
(1.35325389e-14 0 0)
(1.43076709e-14 0 0)
(1.323832214e-14 0 0)
(1.197667008e-14 0 0)
(6.655521341e-15 0 0)
(2.878508447e-15 0 0)
(-9.84340407e-16 0 0)
(-3.493009934e-15 0 0)
(-6.130508734e-15 0 0)
(-7.50313197e-15 0 0)
(-9.269089596e-15 0 0)
(-1.440579386e-14 0 0)
(-1.84500926e-14 0 0)
(-1.879055476e-14 0 0)
(-1.735237044e-14 0 0)
(-1.328684547e-14 0 0)
(-3.502267313e-15 0 0)
(1.223555362e-14 0 0)
(2.343756288e-14 0 0)
(2.764892958e-14 0 0)
(2.98318597e-14 0 0)
(2.967492213e-14 0 0)
(2.934730781e-14 0 0)
(2.802501729e-14 0 0)
(2.677261934e-14 0 0)
(3.068647777e-14 0 0)
(3.792692589e-14 0 0)
(4.108674442e-14 0 0)
(3.728190523e-14 0 0)
(2.483901993e-14 0 0)
(1.046904597e-14 0 0)
(-6.379628276e-15 0 0)
(-1.52831235e-14 0 0)
(-1.976090518e-14 0 0)
(-1.561528532e-14 0 0)
(-1.027992459e-14 0 0)
(-5.589648297e-15 0 0)
(3.624842097e-15 0 0)
(9.892739158e-15 0 0)
(1.435603754e-14 0 0)
(1.482944332e-14 0 0)
(1.581906592e-14 0 0)
(1.256646738e-14 0 0)
(7.663955386e-16 0 0)
(-1.132960636e-14 0 0)
(-2.089091884e-14 0 0)
(-2.954422706e-14 0 0)
(-3.336274326e-14 0 0)
(-3.599500052e-14 0 0)
(-4.046034153e-14 0 0)
(-4.004132368e-14 0 0)
(-4.023339912e-14 0 0)
(-4.004627939e-14 0 0)
(-3.07503328e-14 0 0)
(-2.05085768e-14 0 0)
(-9.297808202e-15 0 0)
(2.824495013e-16 0 0)
(5.710388282e-15 0 0)
(8.721348948e-15 0 0)
(4.653817902e-15 0 0)
(-2.137240819e-15 0 0)
(-3.907055827e-15 0 0)
(-3.499569225e-15 0 0)
(1.389513187e-15 0 0)
(7.08710763e-15 0 0)
(1.227466608e-14 0 0)
(1.591000573e-14 0 0)
(1.441848283e-14 0 0)
(1.268312548e-14 0 0)
(1.332360474e-14 0 0)
(8.759409959e-15 0 0)
(5.576760716e-15 0 0)
(5.104675425e-15 0 0)
(5.882181273e-15 0 0)
(7.529488247e-16 0 0)
(-6.743720807e-15 0 0)
(-1.31716571e-14 0 0)
(-1.310112714e-14 0 0)
(-7.003784869e-15 0 0)
(-2.20847113e-16 0 0)
(6.223222005e-15 0 0)
(1.059977125e-14 0 0)
(1.629097159e-14 0 0)
(2.042741584e-14 0 0)
(1.908533528e-14 0 0)
(1.711312772e-14 0 0)
(1.573231457e-14 0 0)
(1.261592003e-14 0 0)
(5.67468716e-15 0 0)
(-1.179929881e-15 0 0)
(-1.57233896e-15 0 0)
(-7.963060286e-16 0 0)
(-1.616041399e-15 0 0)
(-4.603600235e-15 0 0)
(-8.742736433e-15 0 0)
(-1.263488349e-14 0 0)
(-1.746369118e-14 0 0)
(-1.914619847e-14 0 0)
(-2.101478559e-14 0 0)
(-2.027697733e-14 0 0)
(-1.540987187e-14 0 0)
(-8.643482931e-15 0 0)
(-5.388100459e-16 0 0)
(7.611821267e-15 0 0)
(1.224539287e-14 0 0)
(1.425945402e-14 0 0)
(1.305115673e-14 0 0)
(1.497830986e-14 0 0)
(1.895601154e-14 0 0)
(1.946713567e-14 0 0)
(1.509724143e-14 0 0)
(1.024488386e-14 0 0)
(1.499200358e-15 0 0)
(-2.392046833e-17 0 0)
(-3.286174807e-15 0 0)
(1.611734948e-15 0 0)
(1.17973805e-15 0 0)
(3.778989096e-15 0 0)
(3.672845526e-15 0 0)
(-1.514761976e-16 0 0)
(-6.561691616e-15 0 0)
(-1.027214105e-14 0 0)
(-1.084459043e-14 0 0)
(-6.752077753e-15 0 0)
(-2.529379689e-15 0 0)
(-2.412532483e-15 0 0)
(4.368993646e-15 0 0)
(1.170800851e-14 0 0)
(1.159670491e-14 0 0)
(1.295727997e-14 0 0)
(1.780922039e-14 0 0)
(2.132778346e-14 0 0)
(2.11215732e-14 0 0)
(2.181478245e-14 0 0)
(1.966231396e-14 0 0)
(1.563924434e-14 0 0)
(1.10861409e-14 0 0)
(4.856620515e-15 0 0)
(1.757562404e-15 0 0)
(-4.767448224e-15 0 0)
(-1.334247655e-14 0 0)
(-1.583937554e-14 0 0)
(-2.15534819e-14 0 0)
(-2.218002659e-14 0 0)
(-2.455095611e-14 0 0)
(-2.445523431e-14 0 0)
(-2.123490698e-14 0 0)
(-1.08256191e-14 0 0)
(-1.937635474e-15 0 0)
(6.534986439e-15 0 0)
(1.726045211e-14 0 0)
(2.136782376e-14 0 0)
(2.344122957e-14 0 0)
(2.120631948e-14 0 0)
(1.624260375e-14 0 0)
(4.186991339e-15 0 0)
(-4.067830887e-15 0 0)
(-1.007537493e-14 0 0)
(-1.11480485e-14 0 0)
(-1.015126942e-14 0 0)
(-4.06917135e-15 0 0)
(-4.057904442e-15 0 0)
(-6.110067829e-15 0 0)
(-9.61367452e-15 0 0)
(-8.118718283e-15 0 0)
(-7.771828138e-15 0 0)
(-6.485562427e-15 0 0)
(1.076014678e-15 0 0)
(9.939852942e-15 0 0)
(1.114616561e-14 0 0)
(8.323043649e-15 0 0)
(3.015165016e-15 0 0)
(4.839607419e-16 0 0)
(-3.348865601e-15 0 0)
(-3.044481028e-15 0 0)
(-6.939034568e-15 0 0)
(-7.68536913e-15 0 0)
(-8.164341558e-15 0 0)
(-8.214892096e-15 0 0)
(-8.470496267e-15 0 0)
(-8.13339779e-15 0 0)
(-9.855496298e-15 0 0)
(-1.382854424e-14 0 0)
(-1.879033093e-14 0 0)
(-2.441325848e-14 0 0)
(-2.260557133e-14 0 0)
(-2.219673945e-14 0 0)
(-1.755790578e-14 0 0)
(-5.173074705e-15 0 0)
(7.641961036e-15 0 0)
(1.649284219e-14 0 0)
(2.352963792e-14 0 0)
(2.641168657e-14 0 0)
(2.76424189e-14 0 0)
(2.635749033e-14 0 0)
(1.961928083e-14 0 0)
(1.514074877e-14 0 0)
(1.394078096e-14 0 0)
(1.202780638e-14 0 0)
(1.180019039e-14 0 0)
(1.149652591e-14 0 0)
(8.126829687e-15 0 0)
(3.123314585e-15 0 0)
(-6.448807997e-16 0 0)
(-6.408455205e-15 0 0)
(-6.777272007e-15 0 0)
(-5.269609244e-15 0 0)
(-1.939217395e-15 0 0)
(-1.972023924e-15 0 0)
(2.828478625e-15 0 0)
(8.957931075e-15 0 0)
(1.942698297e-14 0 0)
(3.184223455e-14 0 0)
(3.6917202e-14 0 0)
(3.994439471e-14 0 0)
(4.075704192e-14 0 0)
(3.301477154e-14 0 0)
(2.114450249e-14 0 0)
(8.658572039e-15 0 0)
(-1.133904907e-14 0 0)
(-2.010961791e-14 0 0)
(-3.173727245e-14 0 0)
(-4.256834509e-14 0 0)
(-4.749532731e-14 0 0)
(-4.810512543e-14 0 0)
(-4.214061702e-14 0 0)
(-2.966702618e-14 0 0)
(-1.592454235e-14 0 0)
(2.786986077e-15 0 0)
(1.421070081e-14 0 0)
(2.728586907e-14 0 0)
(3.18008972e-14 0 0)
(3.576672621e-14 0 0)
(3.56676395e-14 0 0)
(3.482601084e-14 0 0)
(2.765656456e-14 0 0)
(1.976750574e-14 0 0)
(6.481368494e-15 0 0)
(-3.500755355e-15 0 0)
(-1.028221581e-14 0 0)
(-1.721838911e-14 0 0)
(-2.140986448e-14 0 0)
(-2.652706885e-14 0 0)
(-2.791513957e-14 0 0)
(-2.39191969e-14 0 0)
(-1.794341715e-14 0 0)
(-9.601653932e-15 0 0)
(-2.559218848e-16 0 0)
(3.91718065e-15 0 0)
(2.911165321e-15 0 0)
(3.631798912e-15 0 0)
(3.247248293e-15 0 0)
(2.806469618e-15 0 0)
(2.437274266e-15 0 0)
(-3.682458643e-15 0 0)
(-1.676953241e-14 0 0)
(-2.816834201e-14 0 0)
(-3.590640872e-14 0 0)
(-3.914837859e-14 0 0)
(-3.749456992e-14 0 0)
(-3.125932965e-14 0 0)
(-1.853628598e-14 0 0)
(-6.51944001e-15 0 0)
(1.091130132e-15 0 0)
(3.076771953e-15 0 0)
(4.768806477e-15 0 0)
(5.251269701e-15 0 0)
(6.449315695e-15 0 0)
(1.073958041e-14 0 0)
(1.365870046e-14 0 0)
(1.365182942e-14 0 0)
(1.119912746e-14 0 0)
(6.806694361e-15 0 0)
(5.617509861e-15 0 0)
(5.654837306e-15 0 0)
(6.411514888e-15 0 0)
(7.22491504e-15 0 0)
(5.679233019e-15 0 0)
(1.845467135e-15 0 0)
(-2.486211032e-15 0 0)
(-6.992229409e-15 0 0)
(-8.074673065e-15 0 0)
(-5.263552325e-15 0 0)
(-3.202726407e-15 0 0)
(3.486849924e-15 0 0)
(8.037860095e-15 0 0)
(8.70634915e-15 0 0)
(8.572100919e-15 0 0)
(8.675600199e-15 0 0)
(7.894617926e-15 0 0)
(7.073786554e-15 0 0)
(4.989663708e-15 0 0)
(-6.271090159e-16 0 0)
(-6.186515366e-15 0 0)
(-7.573838625e-15 0 0)
(-5.365292726e-15 0 0)
(-7.906155648e-16 0 0)
(5.509344024e-15 0 0)
(3.816036479e-15 0 0)
(6.317634931e-15 0 0)
(6.688096739e-15 0 0)
(7.684513936e-15 0 0)
(8.445869242e-15 0 0)
(7.335114057e-15 0 0)
(8.481986383e-15 0 0)
(1.31795805e-14 0 0)
(1.951506471e-14 0 0)
(1.95456181e-14 0 0)
(1.388468006e-14 0 0)
(5.774809929e-15 0 0)
(1.505526778e-16 0 0)
(-2.954191661e-15 0 0)
(-6.164068746e-15 0 0)
(-7.180192212e-15 0 0)
(-1.38242268e-14 0 0)
(-1.725508202e-14 0 0)
(-2.428891615e-14 0 0)
(-2.562388209e-14 0 0)
(-2.561222391e-14 0 0)
(-1.841980162e-14 0 0)
(-5.837730369e-15 0 0)
(5.766694614e-15 0 0)
(8.499196386e-15 0 0)
(9.399781611e-15 0 0)
(3.930220885e-15 0 0)
(-3.467424695e-15 0 0)
(-1.429947882e-14 0 0)
(-2.549676944e-14 0 0)
(-2.78485226e-14 0 0)
(-3.294733005e-14 0 0)
(-3.588145783e-14 0 0)
(-3.164594152e-14 0 0)
(-2.28018011e-14 0 0)
(-1.680015626e-14 0 0)
(-1.417579776e-14 0 0)
(-1.39584937e-14 0 0)
(-1.33137742e-14 0 0)
(-1.014728646e-14 0 0)
(2.800822606e-15 0 0)
(2.252647662e-14 0 0)
(3.847935365e-14 0 0)
(4.687160629e-14 0 0)
(4.779332182e-14 0 0)
(4.347689976e-14 0 0)
(3.560516738e-14 0 0)
(2.635644814e-14 0 0)
(1.288514934e-14 0 0)
(4.129178285e-15 0 0)
(-8.769965666e-15 0 0)
(-1.694121777e-14 0 0)
(-2.648299674e-14 0 0)
(-3.264312877e-14 0 0)
(-3.34568221e-14 0 0)
(-3.233370771e-14 0 0)
(-2.108595324e-14 0 0)
(-1.093383925e-14 0 0)
(-3.271164621e-15 0 0)
(-2.25692921e-15 0 0)
(-1.836801628e-15 0 0)
(-4.305810887e-16 0 0)
(1.905012682e-15 0 0)
(7.793661575e-15 0 0)
(1.08911997e-14 0 0)
(1.596309821e-14 0 0)
(1.855395322e-14 0 0)
(1.863198133e-14 0 0)
(1.546199238e-14 0 0)
(6.31918453e-15 0 0)
(-4.088926346e-15 0 0)
(-1.283011028e-14 0 0)
(-1.743094896e-14 0 0)
(-1.94736926e-14 0 0)
(-2.051459345e-14 0 0)
(-2.111415737e-14 0 0)
(-2.51000027e-14 0 0)
(-2.966225978e-14 0 0)
(-2.967873538e-14 0 0)
(-2.531244475e-14 0 0)
(-2.337901538e-14 0 0)
(-2.281568003e-14 0 0)
(-2.385973899e-14 0 0)
(-2.337668595e-14 0 0)
(-2.215093995e-14 0 0)
(-2.047894332e-14 0 0)
(-1.912930042e-14 0 0)
(-2.280475805e-14 0 0)
(-2.674576969e-14 0 0)
(-2.641612758e-14 0 0)
(-2.706249603e-14 0 0)
(-2.7302599e-14 0 0)
(-2.617387732e-14 0 0)
(-2.147275491e-14 0 0)
(-1.539044358e-14 0 0)
(-1.001183951e-14 0 0)
(5.167291625e-15 0 0)
(2.141116817e-14 0 0)
(3.101035154e-14 0 0)
(3.468491149e-14 0 0)
(3.42316479e-14 0 0)
(3.313290579e-14 0 0)
(3.353488318e-14 0 0)
(3.437315942e-14 0 0)
(3.505196622e-14 0 0)
(3.524719543e-14 0 0)
(3.104658802e-14 0 0)
(2.137859909e-14 0 0)
(1.546854382e-14 0 0)
(4.984296122e-15 0 0)
(-9.292773742e-16 0 0)
(-5.667199265e-15 0 0)
(-6.773240429e-15 0 0)
(-6.452814505e-15 0 0)
(-6.124444196e-16 0 0)
(9.806947251e-15 0 0)
(1.910593145e-14 0 0)
(2.175589853e-14 0 0)
(2.215990048e-14 0 0)
(2.165670504e-14 0 0)
(2.209745681e-14 0 0)
(2.2699591e-14 0 0)
(2.372413884e-14 0 0)
(2.416797701e-14 0 0)
(2.076068384e-14 0 0)
(1.689065776e-14 0 0)
(1.09473367e-14 0 0)
(8.14870321e-15 0 0)
(1.390818694e-15 0 0)
(-7.388915249e-16 0 0)
(-3.849455394e-15 0 0)
(-4.834050787e-15 0 0)
(-5.329940599e-15 0 0)
(-5.073587806e-15 0 0)
(-3.306032072e-15 0 0)
(-3.655276536e-15 0 0)
(-1.807551431e-15 0 0)
(8.268385763e-16 0 0)
(6.850117223e-15 0 0)
(1.22819892e-14 0 0)
(1.084383832e-14 0 0)
(1.97345802e-15 0 0)
(-4.296270124e-15 0 0)
(-5.161238555e-15 0 0)
(-1.881568175e-15 0 0)
(6.387408673e-15 0 0)
(1.495853946e-14 0 0)
(1.624778341e-14 0 0)
(1.434476114e-14 0 0)
(8.502097182e-15 0 0)
(3.053366614e-15 0 0)
(3.806666319e-15 0 0)
(3.002936485e-15 0 0)
(3.938025856e-15 0 0)
(2.395784802e-15 0 0)
(1.62950458e-15 0 0)
(2.104373553e-15 0 0)
(3.191470354e-15 0 0)
(2.750322948e-15 0 0)
(4.975892289e-15 0 0)
(7.736383408e-15 0 0)
(8.141107374e-15 0 0)
(8.779175252e-15 0 0)
(6.11442487e-15 0 0)
(1.533684333e-15 0 0)
(-3.781033457e-15 0 0)
(-6.612910246e-15 0 0)
(-1.010157083e-14 0 0)
(-1.500473458e-14 0 0)
(-1.915830726e-14 0 0)
(-2.313546261e-14 0 0)
(-2.47062461e-14 0 0)
(-2.56476365e-14 0 0)
(-2.880536422e-14 0 0)
(-3.286395445e-14 0 0)
(-4.667758294e-14 0 0)
(-6.636500627e-14 0 0)
(-8.623182953e-14 0 0)
(-9.336284105e-14 0 0)
(-1.028497931e-13 0 0)
(-1.228367542e-13 0 0)
(-1.384323957e-13 0 0)
(-1.216925712e-13 0 0)
(-9.596772637e-14 0 0)
(-1.239698207e-13 0 0)
(-1.448452872e-13 0 0)
(-1.395431646e-13 0 0)
(-1.239008743e-13 0 0)
(-1.073067343e-13 0 0)
(-9.601807647e-14 0 0)
(-7.8166463e-14 0 0)
(-6.283203182e-14 0 0)
(-4.874746803e-14 0 0)
(-3.708363449e-14 0 0)
(-2.234461855e-14 0 0)
(-1.127318652e-14 0 0)
(1.414818534e-15 0 0)
(5.04984779e-15 0 0)
(1.871768453e-15 0 0)
(-5.360868903e-15 0 0)
(-8.143523161e-15 0 0)
(-1.145703846e-14 0 0)
(-1.294926386e-14 0 0)
(-1.024338361e-14 0 0)
(-4.778853012e-15 0 0)
(1.82017561e-15 0 0)
(1.534511569e-14 0 0)
(2.664966405e-14 0 0)
(4.270735119e-14 0 0)
(4.933453906e-14 0 0)
(6.508718231e-14 0 0)
(7.85300951e-14 0 0)
(9.246708524e-14 0 0)
(9.419027104e-14 0 0)
(9.134224549e-14 0 0)
(7.902712962e-14 0 0)
(5.66803275e-14 0 0)
(3.093359821e-14 0 0)
(5.537973444e-15 0 0)
(-8.622642452e-15 0 0)
(-1.868842778e-14 0 0)
(-2.37325796e-14 0 0)
(-2.264369075e-14 0 0)
(-1.585265574e-14 0 0)
(-9.043116327e-17 0 0)
(1.935882665e-14 0 0)
(3.163984329e-14 0 0)
(3.530649532e-14 0 0)
(3.307735794e-14 0 0)
(2.976993005e-14 0 0)
(3.000120419e-14 0 0)
(3.50790835e-14 0 0)
(4.567000419e-14 0 0)
(5.234981609e-14 0 0)
(5.488873586e-14 0 0)
(5.21160013e-14 0 0)
(4.82697138e-14 0 0)
(3.99800768e-14 0 0)
(3.253867508e-14 0 0)
(2.150686806e-14 0 0)
(5.012616588e-15 0 0)
(-9.729265499e-15 0 0)
(-2.234438152e-14 0 0)
(-3.021153088e-14 0 0)
(-3.013314438e-14 0 0)
(-2.540242688e-14 0 0)
(-2.159474725e-14 0 0)
(-1.999702083e-14 0 0)
(-2.167591196e-14 0 0)
(-2.317776025e-14 0 0)
(-2.744230092e-14 0 0)
(-2.441430188e-14 0 0)
(-1.35559001e-14 0 0)
(2.33113366e-15 0 0)
(2.445082693e-14 0 0)
(4.528427608e-14 0 0)
(5.323060224e-14 0 0)
(6.065058336e-14 0 0)
(6.011506893e-14 0 0)
(5.763849178e-14 0 0)
(4.920584788e-14 0 0)
(4.288458439e-14 0 0)
(3.160740751e-14 0 0)
(1.398649663e-14 0 0)
(-4.288115832e-15 0 0)
(-2.356360209e-14 0 0)
(-4.084875759e-14 0 0)
(-4.946468265e-14 0 0)
(-5.157360921e-14 0 0)
(-4.939946986e-14 0 0)
(-4.194038199e-14 0 0)
(-2.978171249e-14 0 0)
(-7.17224027e-15 0 0)
(8.358831329e-15 0 0)
(1.729827227e-14 0 0)
(2.265049766e-14 0 0)
(1.933018271e-14 0 0)
(1.557444683e-14 0 0)
(9.929490016e-15 0 0)
(4.969784844e-15 0 0)
(-7.190908466e-15 0 0)
(-1.739673584e-14 0 0)
(-3.830889559e-14 0 0)
(-5.374709061e-14 0 0)
(-7.440724364e-14 0 0)
(-8.777130947e-14 0 0)
(-9.610478468e-14 0 0)
(-9.644171224e-14 0 0)
(-9.231730006e-14 0 0)
(-7.990922876e-14 0 0)
(-5.049863447e-14 0 0)
(-2.276144416e-14 0 0)
(7.783042403e-15 0 0)
(3.026781249e-14 0 0)
(4.592664583e-14 0 0)
(5.281622691e-14 0 0)
(5.217224295e-14 0 0)
(4.235051344e-14 0 0)
(2.387767745e-14 0 0)
(1.014673185e-14 0 0)
(-9.949433032e-15 0 0)
(-2.824599363e-14 0 0)
(-5.201157458e-14 0 0)
(-7.257239581e-14 0 0)
(-8.402571801e-14 0 0)
(-8.682248132e-14 0 0)
(-8.597554801e-14 0 0)
(-8.45889624e-14 0 0)
(-8.033265391e-14 0 0)
(-7.081350224e-14 0 0)
(-5.169123124e-14 0 0)
(-3.512104672e-14 0 0)
(-2.078987705e-14 0 0)
(-1.71012213e-14 0 0)
(-1.810826587e-14 0 0)
(-1.785523129e-14 0 0)
(-2.383010545e-14 0 0)
(-2.96960502e-14 0 0)
(-4.09464695e-14 0 0)
(-5.915982369e-14 0 0)
(-7.94875343e-14 0 0)
(-8.955578624e-14 0 0)
(-9.451039504e-14 0 0)
(-8.916854912e-14 0 0)
(-7.080298197e-14 0 0)
(-5.176176265e-14 0 0)
(-2.220540299e-14 0 0)
(-2.582969324e-15 0 0)
(1.810785213e-14 0 0)
(3.271291121e-14 0 0)
(5.441706832e-14 0 0)
(7.630260644e-14 0 0)
(1.182743782e-13 0 0)
(1.216729093e-13 0 0)
(1.135871368e-13 0 0)
(1.531302405e-13 0 0)
(1.450004221e-13 0 0)
(9.296063064e-14 0 0)
(1.30808293e-13 0 0)
(1.589871576e-13 0 0)
(1.396421004e-13 0 0)
(1.174376838e-13 0 0)
(9.550143541e-14 0 0)
(6.694120112e-14 0 0)
(4.251252291e-14 0 0)
(2.359411543e-14 0 0)
(1.202494103e-14 0 0)
(4.067424006e-15 0 0)
(-1.32957605e-15 0 0)
(-1.076897374e-14 0 0)
(-1.364545876e-14 0 0)
(-2.181457536e-14 0 0)
(-2.330256651e-14 0 0)
(-2.511208514e-14 0 0)
(-2.145927286e-14 0 0)
(-1.896570052e-14 0 0)
(-2.177559407e-14 0 0)
(-3.145865558e-14 0 0)
(-4.467040168e-14 0 0)
(-5.259679508e-14 0 0)
(-5.595212802e-14 0 0)
(-5.477885291e-14 0 0)
(-5.246551686e-14 0 0)
(-4.928793282e-14 0 0)
(-4.541060326e-14 0 0)
(-4.091857718e-14 0 0)
(-3.406012798e-14 0 0)
(-2.149991641e-14 0 0)
(-1.166495029e-14 0 0)
(-1.437562726e-15 0 0)
(6.870312509e-15 0 0)
(1.446256867e-14 0 0)
(2.198624646e-14 0 0)
(2.138296976e-14 0 0)
(1.59286485e-14 0 0)
(5.20664824e-15 0 0)
(-7.56158623e-15 0 0)
(-1.990433638e-14 0 0)
(-3.394882053e-14 0 0)
(-3.899849756e-14 0 0)
(-4.624232744e-14 0 0)
(-5.29744446e-14 0 0)
(-6.128892431e-14 0 0)
(-6.885325667e-14 0 0)
(-7.658340578e-14 0 0)
(-7.916409864e-14 0 0)
(-8.116916266e-14 0 0)
(-7.783553512e-14 0 0)
(-6.889916955e-14 0 0)
(-5.5645088e-14 0 0)
(-3.851979574e-14 0 0)
(-2.426330252e-14 0 0)
(-8.314632258e-15 0 0)
(5.601071186e-15 0 0)
(1.829738195e-14 0 0)
(3.729992062e-14 0 0)
(4.790689571e-14 0 0)
(5.708297229e-14 0 0)
(6.748241493e-14 0 0)
(6.899450226e-14 0 0)
(6.941128659e-14 0 0)
(7.616992693e-14 0 0)
(8.291265412e-14 0 0)
(8.725151836e-14 0 0)
(8.688078165e-14 0 0)
(8.336682078e-14 0 0)
(7.477976067e-14 0 0)
(5.922572769e-14 0 0)
(3.932401433e-14 0 0)
(2.871827836e-14 0 0)
(1.790574952e-14 0 0)
(8.450392627e-15 0 0)
(5.792178256e-15 0 0)
(-4.248752835e-15 0 0)
(-1.729948201e-14 0 0)
(-2.676953552e-14 0 0)
(-2.925249068e-14 0 0)
(-2.845420344e-14 0 0)
(-3.185721475e-14 0 0)
(-4.243637956e-14 0 0)
(-6.541709838e-14 0 0)
(-8.944989385e-14 0 0)
(-9.837869037e-14 0 0)
(-9.473936601e-14 0 0)
(-8.203904859e-14 0 0)
(-5.455744296e-14 0 0)
(-2.319195119e-14 0 0)
(-1.725009775e-15 0 0)
(1.558378354e-14 0 0)
(2.847439327e-14 0 0)
(4.122255802e-14 0 0)
(4.826848702e-14 0 0)
(5.892000881e-14 0 0)
(6.626060976e-14 0 0)
(7.50634845e-14 0 0)
(7.972240811e-14 0 0)
(8.086414737e-14 0 0)
(7.580873292e-14 0 0)
(5.505315594e-14 0 0)
(2.931269748e-14 0 0)
(-1.204284648e-15 0 0)
(-2.133108089e-14 0 0)
(-3.620613712e-14 0 0)
(-4.16903415e-14 0 0)
(-4.562496984e-14 0 0)
(-4.776947025e-14 0 0)
(-4.535636934e-14 0 0)
(-4.53624458e-14 0 0)
(-4.476377285e-14 0 0)
(-4.342467772e-14 0 0)
(-4.022032772e-14 0 0)
(-3.206445156e-14 0 0)
(-1.755596557e-14 0 0)
(4.679243383e-15 0 0)
(2.968689585e-14 0 0)
(5.021231189e-14 0 0)
(6.439696187e-14 0 0)
(6.900457834e-14 0 0)
(6.770262041e-14 0 0)
(6.068560106e-14 0 0)
(4.677094955e-14 0 0)
(3.142588553e-14 0 0)
(1.195855068e-14 0 0)
(2.244560848e-16 0 0)
(-6.899375535e-15 0 0)
(-7.090091042e-15 0 0)
(-5.830157578e-15 0 0)
(-4.983668968e-15 0 0)
(1.896138271e-15 0 0)
(1.108712591e-14 0 0)
(2.377778621e-14 0 0)
(4.161053808e-14 0 0)
(5.472888825e-14 0 0)
(6.032538652e-14 0 0)
(6.725406558e-14 0 0)
(7.526253161e-14 0 0)
(8.46570507e-14 0 0)
(8.227628725e-14 0 0)
(8.263644779e-14 0 0)
(8.258575868e-14 0 0)
(7.712584891e-14 0 0)
(6.696961851e-14 0 0)
(5.691976363e-14 0 0)
(3.942975799e-14 0 0)
(2.09259693e-14 0 0)
(4.894502695e-15 0 0)
(-9.020715249e-15 0 0)
(-1.414428436e-14 0 0)
(-1.404560862e-14 0 0)
(-1.540031101e-14 0 0)
(-1.419427731e-14 0 0)
(-1.170444515e-14 0 0)
(-8.075640605e-15 0 0)
(-5.195435014e-15 0 0)
(-5.565028797e-15 0 0)
(-7.344812765e-15 0 0)
(-6.537809793e-15 0 0)
(-6.883814779e-15 0 0)
(-1.053859928e-14 0 0)
(-1.557331229e-14 0 0)