/*--------------------------------*- C++ -*----------------------------------*\
| =========                 |                                                 |
| \\      /  F ield         | OpenFOAM: The Open Source CFD Toolbox           |
|  \\    /   O peration     | Version:  2012                                  |
|   \\  /    A nd           | Website:  www.openfoam.com                      |
|    \\/     M anipulation  |                                                 |
\*---------------------------------------------------------------------------*/
FoamFile
{
    version     2.0;
    format      ascii;
    class       volScalarField;
    location    "0.9";
    object      alpha.water;
}
// * * * * * * * * * * * * * * * * * * * * * * * * * * * * * * * * * * * * * //

dimensions      [0 0 0 0 0 0 0];


internalField   nonuniform List<scalar> 
2268
(
1
1
1
1
1
1
1
1
1
1
1
1
1
0.999998
0.99331
0.960506
0.967255
0.994444
0.992687
0.984556
0.984799
0.995285
0.999624
1
1
1
1
1
1
1
1
1
1
1
1
1
0.999993
0.977888
0.95018
0.949998
0.959354
0.962756
0.958183
0.958183
0.990158
0.999982
1
1
1
1
1
1
1
1
1
1
1
1
1
1
0.997961
0.971071
0.950048
0.949998
0.957742
0.970758
0.977855
0.998496
0.999982
1
1
1
1
1
1
1
1
1
1
1
1
1
1
1
0.999736
0.995975
0.995416
1
1
1
1
0.999982
1
1
1
1
1
1
1
1
1
1
1
1
1
1
1
1
1
1
1
1
1
1
1
1
1
1
1
1
1
1
1
1
1
1
1
1
1
1
1
1
0.999999
1
1
1
1
0.999993
1
1
1
1
0.999998
0.999603
0.999198
1
1
1
1
1
1
1
1
0.999999
0.999992
0.999978
0.999989
0.999999
1
1
0.999982
1
1
1
1
1
0.998754
0.997263
0.999979
1
1
1
1
1
1
0.999999
0.999965
0.999701
0.978764
0.974807
0.996283
0.999999
1
0.999984
0.992284
0.984077
0.970475
0.97956
0.97956
0.97956
0.944843
0.924461
0.855112
0.851653
0.764992
0.670156
0.67
0.87909
0.87909
0.87909
0.87907
0.878716
0.870447
0.992549
0.989402
0.953599
0.931591
0.97956
0.97956
0.975678
0.881935
0.606716
0.514673
0.746285
0.760417
0.670314
0.720145
0.878715
0.852917
0.872639
0.691518
0.477138
0.992549
0.954282
0.757935
0.762351
0.979557
0.979546
0.889971
0.508093
0.218513
0.251368
0.744044
0.778578
0.748973
0.720962
0.681643
0.671579
0.547324
0.4007
0.400488
0.99212
0.949312
0.757935
0.757935
0.97923
0.905318
0.486254
0.115037
0.127811
0.495389
0.778578
0.778601
0.778578
0.7783
0.712215
0.611006
0.445811
0.439175
0.595381
0.98781
0.814554
0.757935
0.759184
0.976923
0.711636
0.115141
0.0890848
0.388322
0.778563
0.778601
0.778597
0.778592
0.778567
0.778294
0.744887
0.679096
0.814728
0.853007
0.986877
0.806035
0.881104
0.760534
0.956458
0.547887
0.058605
0.0684864
0.48764
0.778047
0.778563
0.778592
0.778567
0.778283
0.777971
0.69902
0.84504
0.852962
0.853055
0.965371
0.841156
0.988944
0.810869
0.937553
0.4149
0.0573266
0.0579168
0.117981
0.438868
0.778048
0.778369
0.737857
0.597692
0.597178
0.686453
0.667806
0.792473
0.852962
0.966939
0.990112
0.989622
0.881022
0.91511
0.295221
0.0573933
0.0573933
0.0579168
0.129665
0.697184
0.775657
0.770943
0.622753
0.368504
0.271041
0.0779365
0.250658
0.805693
0.999996
1
1
1
1
1
1
0.999999
1
1
0.995535
0.990797
0.994888
0.999999
0.999958
0.95185
0.697652
0.500108
0.47584
0.587216
0.898606
0.999999
0.999997
0.708475
0.934304
0.986045
0.944783
0.966362
1
0.999996
0.759049
0.444557
0.362688
0.348803
0.533235
0.867262
0.950303
0.751003
0.295608
0.14271
0.107939
0.0827021
0.0755844
0.191001
0.647798
0.902074
0.32565
0.378031
0.864379
0.944456
0.827205
0.505345
0.263473
0.0755561
0.0233002
0.0239176
0.143652
0.36109
0.373288
0.232757
0.135614
0.113628
0.157098
0.133915
0.0734545
0.0630386
0.0630386
0.0935535
0.290356
0.324121
0.652069
0.860709
0.45762
0.0782765
0.0348541
0.0240765
0.0233002
0.0233002
0.0233002
0.0239176
0.0283574
0.0282668
0.0239795
0.0239786
0.024372
0.169803
0.222059
0.222155
0.063573
0.0827283
0.610013
0.904606
0.431552
0.655443
0.459298
0.0728879
0.0814817
0.127182
0.127715
0.126578
0.0928958
0.0296808
0.0269574
0.0423808
0.0662493
0.0590051
0.024372
0.0249345
0.155612
0.222186
0.208496
0.0325175
0.0192695
0.109433
0.24454
0.509837
0.509771
0.00529423
0.0018014
0.0646787
0.126927
0.127066
0.121193
0.114944
0.129391
0.130554
0.130955
0.130955
0.130955
0.128394
0.0338381
0.0715447
0.187786
0.0705896
0.0192695
0.0192695
0.0192695
0.0198884
0.50435
0.334898
0.00123033
0.000274843
0.000351364
7.61173e-06
1.347e-06
1.62737e-06
2.71642e-06
0.0102156
0.0600438
0.0967315
0.103637
0.0590839
0.0239736
0.00659341
0.00310523
0.0142276
0.0375802
0.0240649
0.0192695
0.0328572
0.0444299
0.491666
0.074523
0.000298198
4.55239e-05
-3.18038e-07
2.90016e-07
7.42184e-07
1.35434e-06
1.62762e-06
2.71149e-06
7.21042e-06
1.95821e-05
4.98175e-05
0.00020956
0.00034021
0.000713313
0.00130153
0.00165238
0.00768962
0.0476444
0.0945525
0.114483
0.114483
0.479603
0.000303119
5.14311e-05
3.87673e-06
5.77026e-08
1.5941e-07
2.99934e-07
7.41609e-07
3.97996e-06
7.16602e-05
0.000126915
0.000150165
0.000118004
0.000160967
0.000198342
0.000319926
0.000713199
0.00602575
0.071425
0.0898708
0.0913906
0.0939411
0.055012
0.474486
0.000227227
1.01634e-05
5.61723e-07
9.25867e-08
5.24653e-08
1.64432e-07
8.32317e-07
4.71354e-06
0.000155875
0.000625604
0.00065202
0.00044107
0.000192882
0.000203326
0.000208481
0.00162101
0.00207878
0.000171271
0.000143453
9.26486e-05
7.46653e-05
5.41132e-05
0.428735
2.22128e-05
2.08672e-06
8.98932e-08
1.74302e-08
1.38912e-08
5.55807e-08
3.30942e-07
2.19314e-06
0.00010678
0.000636837
0.000651019
0.000651925
0.000643067
0.000398798
0.000172166
0.000165575
0.000172166
0.000171972
0.000220173
0.000535849
0.000476276
5.4671e-05
0.205132
6.30163e-06
4.90733e-07
9.1366e-09
4.37542e-09
4.9476e-09
1.56061e-08
7.5182e-08
1.80933e-06
2.13985e-05
5.1001e-05
5.31847e-05
0.000271734
0.000605262
0.000586211
0.000305568
0.000152863
0.000165575
0.000176863
0.000428994
0.00125283
0.00127634
0.00109376
0.106911
1.78352e-06
1.09678e-07
5.57047e-09
1.49373e-09
2.61639e-09
5.44556e-09
2.56749e-08
1.84632e-07
8.04478e-08
7.10091e-08
4.52193e-08
9.4294e-09
1.68933e-06
0.000110623
0.000125157
0.000145646
0.000250125
0.000230175
0.000362104
0.000983434
0.00129441
0.00129617
0.224658
4.89076e-07
2.51524e-08
1.97529e-09
1.23048e-09
1.81387e-09
2.80623e-09
6.13737e-09
1.43851e-08
4.44625e-08
5.33477e-08
7.85474e-08
6.75005e-09
9.18079e-10
2.90827e-10
2.08096e-05
4.32808e-05
0.000258918
0.000768751
0.000903949
0.000903949
0.000989036
0.00129617
0.247178
7.14433e-05
6.22232e-09
6.83665e-10
1.09369e-09
1.22567e-09
1.56505e-09
4.04362e-09
1.76795e-08
2.39046e-08
3.10934e-08
2.94485e-08
2.77834e-08
3.83879e-09
2.67746e-10
2.67927e-10
2.67745e-10
8.09028e-06
0.000292649
0.000843048
0.000915895
0.0010732
0.00129617
0.246729
0.00141041
1.29774e-09
-2.74149e-18
9.41812e-10
1.03288e-09
1.64149e-09
1.1016e-08
1.22564e-07
3.9116e-08
2.10664e-08
2.20096e-09
1.1187e-09
1.02878e-09
3.11514e-10
3.16926e-10
1.97168e-07
9.30841e-11
8.92054e-11
2.81024e-10
0.000327855
0.000461649
0.000678419
0.213418
0.00461065
-1.53386e-20
-1.62986e-09
-9.43229e-11
1.3434e-10
3.79311e-09
2.78097e-08
3.73764e-06
6.38365e-07
2.08963e-07
1.327e-08
1.25681e-09
3.85872e-10
2.51012e-10
2.14653e-10
2.12271e-10
8.92061e-11
8.92061e-11
8.92061e-11
4.57986e-09
8.63625e-10
2.03195e-10
0.0365405
0.0145529
0.000813811
-1.98015e-07
-1.78318e-08
2.31387e-08
1.20512e-05
0.000214629
0.00043426
0.000162253
7.03118e-06
1.135e-06
4.59065e-08
1.67751e-09
3.69359e-10
2.78851e-10
1.296e-10
8.9241e-11
8.92061e-11
1.25052e-07
2.58463e-07
6.86996e-08
2.31603e-09
0.00177503
0.0128535
0.00319418
3.25628e-05
6.85409e-07
9.1739e-07
4.3134e-06
0.000480542
0.000585546
0.000584432
0.00018903
4.31941e-06
1.55039e-07
6.14316e-09
8.61011e-10
2.7546e-10
2.20579e-10
9.58654e-11
8.9241e-11
2.99131e-07
4.34237e-07
3.74839e-07
1.62158e-08
0.000239705
0.00148822
0.00349766
0.00130552
3.05632e-05
4.31338e-06
9.40862e-06
0.000245239
0.0005836
0.000585585
0.000367902
7.22877e-06
2.55667e-07
2.6568e-08
2.90321e-09
4.47338e-10
1.77103e-10
1.47061e-10
9.77644e-11
4.00916e-11
6.4629e-10
1.36032e-11
3.37545e-10
1.80786e-05
5.33551e-05
0.000502166
0.00140507
0.000860212
3.32994e-05
1.6212e-05
0.000186993
0.000583264
0.000582362
0.000335764
7.7927e-06
4.90767e-07
5.19293e-08
5.07517e-09
5.99512e-10
1.73985e-10
1.27458e-10
1.07391e-10
3.82324e-11
1.36032e-11
1.19105e-11
4.00506e-10
4.88111e-07
3.01373e-06
1.36904e-05
0.000754702
0.000824531
0.000680641
0.000299807
0.000529757
0.000592343
0.000583372
0.000203282
3.81635e-06
5.08708e-07
5.7906e-08
5.86029e-09
5.94242e-10
1.28293e-10
7.18364e-11
6.60614e-11
5.64871e-11
3.24132e-11
9.80711e-12
2.47035e-12
3.60594e-09
5.29653e-08
9.95926e-07
1.51665e-05
0.00074353
0.000704437
0.000643434
0.000621054
0.000592958
0.000509093
6.34555e-05
2.31753e-06
3.1593e-07
3.67794e-08
3.77334e-09
3.7455e-10
6.99338e-11
3.60521e-11
3.18047e-11
2.52338e-11
1.62076e-11
7.83859e-12
3.80588e-12
6.74199e-10
3.90919e-09
5.29657e-08
9.95926e-07
0.000499177
0.000643434
0.000626007
0.000605936
0.000577163
0.000150059
4.10346e-06
6.44227e-07
8.60696e-08
9.96756e-09
1.02662e-09
1.11008e-10
2.21338e-11
1.39082e-11
1.10703e-11
8.19943e-12
4.99392e-12
2.04851e-12
6.80977e-13
2.22504e-10
3.91241e-10
8.63439e-09
2.64074e-06
0.000122864
0.000541337
0.000605936
0.000501475
0.000150756
4.36362e-06
7.84677e-07
1.13293e-07
1.43235e-08
1.6025e-09
1.63531e-10
2.29651e-11
6.25169e-12
3.66109e-12
2.45821e-12
1.56256e-12
8.77727e-13
3.81499e-13
1.46781e-13
3.18216e-11
1.16657e-10
5.1517e-09
1.27124e-06
2.17754e-06
7.60125e-05
0.000143372
5.61068e-05
2.94458e-06
7.68146e-07
1.32059e-07
1.71971e-08
1.89418e-09
2.08103e-10
2.623e-11
4.39598e-12
1.1835e-12
5.84809e-13
3.18377e-13
1.621e-13
8.13342e-14
3.86572e-14
2.17996e-14
5.60931e-12
1.8471e-11
2.06328e-09
9.93412e-08
2.93516e-07
1.6688e-06
2.02006e-06
1.10561e-06
3.47525e-07
8.8167e-08
1.52027e-08
2.15153e-09
2.72049e-10
3.20564e-11
5.38029e-12
6.79603e-13
1.27573e-13
5.61211e-14
2.54301e-14
9.76841e-15
4.25732e-15
3.09148e-15
3.13189e-15
1.34184e-12
4.447e-11
1.58165e-10
1.98582e-09
3.39423e-08
1.81753e-07
2.24857e-07
1.21047e-07
3.72e-08
8.57581e-09
1.5394e-09
2.49139e-10
3.75852e-11
7.75734e-12
8.21157e-13
6.07143e-14
9.64494e-15
3.90649e-15
1.58285e-15
4.70114e-16
2.21701e-16
2.30943e-16
2.64617e-16
2.87738e-13
2.72423e-11
3.70848e-11
2.37914e-10
2.69822e-09
1.69636e-08
2.13019e-08
1.13527e-08
3.44612e-09
8.08754e-10
1.64499e-10
3.63921e-11
8.56094e-12
9.80814e-13
6.84321e-14
4.801e-15
6.50272e-16
2.44473e-16
9.43474e-17
2.44569e-17
8.56055e-18
7.40631e-18
8.53779e-18
2.83989e-14
5.7503e-12
1.35495e-11
3.4937e-11
2.67081e-10
1.4063e-09
1.77456e-09
9.40372e-10
3.14358e-10
8.30658e-11
2.60722e-11
6.96446e-12
8.99047e-13
7.13788e-14
5.08446e-15
3.42394e-16
4.19946e-17
1.46685e-17
5.31345e-18
1.22813e-18
2.3242e-19
2.12732e-19
9.96138e-19
2.3254e-15
5.6689e-13
2.51273e-12
7.58074e-12
2.89746e-11
1.2563e-10
1.46536e-10
8.9906e-11
3.1713e-11
1.44383e-11
4.23863e-12
6.14329e-13
5.79064e-14
4.75329e-15
3.32201e-16
2.17506e-17
2.55733e-18
8.19066e-19
2.66237e-19
5.03774e-20
1.22559e-20
3.03375e-20
5.31562e-19
2.02532e-16
4.96014e-14
2.24385e-13
1.10658e-12
4.18783e-12
1.13655e-11
1.34232e-11
9.03822e-12
6.31001e-12
1.96421e-12
3.15298e-13
3.62874e-14
3.51865e-15
2.82714e-16
1.91581e-17
1.22861e-18
1.42468e-19
4.14772e-20
1.16691e-20
1.70364e-21
1.22469e-21
1.05903e-20
2.12931e-19
1.69289e-17
4.48968e-15
1.63866e-14
8.47626e-14
5.30175e-13
1.71351e-12
2.01974e-12
1.62964e-12
6.35248e-13
1.22533e-13
1.75152e-14
2.04748e-15
1.937e-16
1.50672e-17
9.87934e-19
6.21971e-20
7.2125e-21
1.90747e-21
4.49755e-22
6.51243e-23
1.4028e-22
2.78394e-21
5.61364e-20
1.32959e-18
3.88081e-16
1.18249e-15
5.25921e-15
3.73356e-14
1.54121e-13
1.78576e-13
1.22107e-13
3.46253e-14
6.47875e-15
9.31464e-16
1.05871e-16
9.68837e-18
7.27595e-19
4.60602e-20
2.85289e-21
3.32755e-22
8.00116e-23
1.54208e-23
2.8491e-24
1.57764e-23
4.63584e-22
1.1078e-20
9.83179e-20
3.10307e-17
8.14881e-17
3.24556e-16
2.12605e-15
8.73701e-15
9.80092e-15
6.04718e-15
1.77243e-15
3.28331e-16
4.5839e-17
5.03557e-18
4.44553e-19
3.21418e-20
1.96009e-21
1.19611e-22
1.40076e-23
3.03979e-24
4.75761e-25
1.43254e-25
1.3385e-24
7.4817e-23
2.25112e-21
6.85195e-21
2.31252e-18
5.26205e-18
1.9304e-17
1.20663e-16
4.67221e-16
5.04991e-16
3.05101e-16
8.65852e-17
1.55441e-17
2.09791e-18
2.2217e-19
1.88638e-20
1.30874e-21
7.67093e-23
4.62519e-24
5.41572e-25
1.04038e-25
1.34755e-26
9.63306e-27
2.13952e-25
1.88967e-23
5.76287e-22
4.48342e-22
1.62101e-19
3.20145e-19
1.0923e-18
6.61494e-18
2.44095e-17
2.53493e-17
1.46345e-17
3.98207e-18
6.91186e-19
8.99488e-20
9.1542e-21
7.44817e-22
4.93859e-23
2.77473e-24
1.66049e-25
1.934e-26
3.15376e-27
4.92834e-28
1.07937e-27
7.10572e-26
6.34615e-24
1.58738e-22
2.63832e-23
1.07581e-20
1.85052e-20
5.91002e-20
3.47836e-19
1.22225e-18
1.21561e-18
6.67025e-19
1.73536e-19
2.90531e-20
3.63422e-21
3.54118e-22
2.7489e-23
1.73341e-24
9.30558e-26
5.55387e-27
6.36992e-28
8.1788e-29
3.25534e-29
2.79065e-28
2.68153e-26
1.92836e-24
3.49137e-23
8.21423e-25
6.79644e-22
1.02375e-21
3.07912e-21
1.76314e-20
5.88681e-20
5.59576e-20
2.90588e-20
7.21261e-21
1.16132e-21
1.39126e-22
1.2924e-23
9.52327e-25
5.67909e-26
2.90379e-27
1.7364e-28
1.92107e-29
2.07278e-30
3.18352e-30
8.36713e-29
7.62318e-27
3.8029e-25
4.66736e-24
8.39948e-27
4.10251e-23
5.46737e-23
1.55757e-22
8.67543e-22
2.74231e-21
2.49637e-21
1.21271e-21
2.87248e-22
4.43377e-23
5.06476e-24
4.46249e-25
3.10273e-26
1.73875e-27
8.44897e-29
5.09038e-30
5.27823e-31
7.61216e-32
4.30764e-31
1.79184e-29
1.22551e-27
3.86767e-26
3.24646e-25
-3.83291e-25
2.35368e-24
2.24252e-24
6.77708e-24
3.99492e-23
1.12755e-22
9.52096e-23
4.67389e-23
1.08734e-23
1.62233e-24
1.77327e-25
1.48241e-26
9.68388e-28
5.07845e-29
2.35178e-30
1.42881e-31
1.14571e-32
2.25481e-33
5.52239e-32
2.13581e-30
9.51939e-29
2.01029e-27
1.29523e-26
-3.06089e-25
6.07695e-26
5.29101e-25
8.97742e-25
2.25222e-24
1.20518e-23
1.38853e-23
3.16313e-24
4.64682e-25
5.07131e-26
4.2364e-27
2.77967e-28
1.68673e-29
8.31019e-31
3.66362e-32
2.52608e-33
1.22334e-33
1.22334e-33
3.33012e-33
9.33964e-32
2.71376e-30
4.55705e-29
2.19964e-28
0.999995
0.999749
0.997198
0.997012
0.905062
0.885021
0.886175
0.916714
0.551658
0.83399
0.919932
0.926379
0.920216
0.935468
0.942246
0.945767
0.380979
0.722709
0.933319
0.944493
0.0236153
0.125358
0.740681
0.942306
0.0386377
0.0482254
0.475221
0.850513
0.0725861
0.00487144
0.0847074
0.457458
0.00435878
0.000266488
0.0176457
0.0547898
2.04395e-05
1.19627e-05
8.62815e-06
3.80168e-05
1.19627e-05
6.61473e-06
6.60968e-07
-6.90917e-07
8.26629e-05
6.60968e-07
2.37961e-08
3.29183e-11
0.00129441
0.000321058
-5.58212e-09
3.36401e-10
0.00129617
0.00128631
6.56173e-05
7.91537e-11
0.00129083
0.00125876
0.000294207
3.11877e-11
0.000886546
0.000469599
4.50655e-05
2.53948e-07
7.25262e-11
3.36095e-11
1.80842e-11
1.19641e-11
1.69812e-10
1.09425e-10
1.1173e-10
9.71931e-11
5.00995e-10
4.25292e-10
7.57386e-10
6.67774e-10
1.13607e-09
1.334e-09
1.334e-09
1.01137e-09
8.64123e-10
1.05835e-09
9.67533e-10
5.40912e-10
2.32322e-12
2.26792e-12
2.29939e-12
1.70974e-11
2.47397e-12
2.25898e-12
2.32995e-12
2.34787e-12
3.90292e-13
4.06794e-13
4.22816e-13
4.4992e-13
7.98664e-14
8.05244e-14
8.14722e-14
8.44689e-14
1.77993e-14
1.78257e-14
1.78451e-14
1.77901e-14
3.26167e-15
3.28974e-15
3.21514e-15
2.96059e-15
2.65079e-16
2.58713e-16
2.40682e-16
2.42287e-16
1.13836e-17
1.6008e-17
2.70934e-17
4.65397e-17
2.93044e-18
6.22252e-18
1.4473e-17
2.83487e-17
1.6951e-18
3.56678e-18
7.97128e-18
1.4324e-17
6.54312e-19
1.32595e-18
2.83823e-18
4.8313e-18
1.69309e-19
3.37004e-19
7.06335e-19
1.17216e-18
3.37393e-20
6.75778e-20
1.42361e-19
2.35785e-19
6.97607e-21
1.41749e-20
2.99172e-20
4.90799e-20
1.77626e-21
3.57174e-21
7.16835e-21
1.14359e-20
4.69497e-22
8.80988e-22
1.59447e-21
2.61214e-21
9.34245e-23
1.53296e-22
2.67398e-22
5.35907e-22
1.05283e-23
1.55342e-23
3.06462e-23
1.05828e-22
6.1009e-25
9.16001e-25
2.7813e-24
3.4896e-23
2.13232e-26
3.86738e-26
2.44727e-25
1.01728e-23
3.69659e-28
9.39731e-28
8.79061e-27
4.51971e-25
0.997978
0.997964
0.949555
0.839862
0.781469
0.077543
0.0572833
0.157901
0.194872
0.206921
0.550608
0.697413
0.733234
0.422997
0.0367115
0.00421361
0.00504291
0.0187889
0.213793
0.997782
0.951884
0.820556
0.838539
0.60303
0.0876049
0.13158
0.255616
0.255755
0.158885
0.00112849
0.00111893
0.0129433
0.0251279
0.00247139
0.00323343
0.00421361
0.00646187
0.00935403
0.94954
0.930784
0.846653
0.728462
0.222353
0.0871136
0.204298
0.211845
0.0428696
0.0079466
0.0010692
0.00105937
0.00124584
0.00105209
0.00125133
0.00200407
0.0311215
0.0212991
0.012371
0.948311
0.945673
0.833699
0.302525
0.00385674
0.023427
0.0621836
0.0124647
0.0013002
0.00106867
0.00105937
0.00104703
0.00104696
0.00104681
0.00105428
0.0219973
0.102797
0.100223
0.0301238
0.946116
0.935864
0.518128
0.00385681
0.00136922
0.00128354
0.0014217
0.00115531
0.00104683
0.00137583
0.00176444
0.00160238
0.00103544
0.00104826
0.00107233
0.0933494
0.102797
0.102797
0.00314235
0.942398
0.78903
0.131708
0.00136923
0.00102485
0.00101016
0.0010298
0.000993335
0.000975005
0.00251448
0.00324367
0.00311037
0.00102893
0.00105819
0.0184481
0.102631
0.102797
0.0258271
7.45428e-05
0.931081
0.767488
0.161576
0.00102485
0.000983805
0.000981148
0.000977316
0.00096753
0.000965006
0.0010432
0.00281469
0.000957125
0.000979206
0.00101155
0.0902885
0.102191
0.102631
0.00763473
2.50191e-07
0.745984
0.791711
0.609959
0.0770303
0.000981291
0.000977475
0.000969342
0.000965349
0.000961515
0.00095737
0.000957078
0.000957125
0.000957125
0.0142733
0.100173
0.101916
0.0315478
2.08547e-07
2.50191e-07
0.230772
0.598253
0.670131
0.631683
0.439209
0.282373
0.00406513
0.000965837
0.000962808
0.00095898
0.00095737
0.000957096
0.000959089
0.0841386
0.0978355
0.068977
1.99601e-06
1.43336e-07
2.50191e-07
0.0071608
0.376535
0.673247
0.692954
0.696123
0.696878
0.656434
0.132113
0.00102138
0.000969198
0.00095898
0.000959108
0.0157953
0.0908406
0.0920815
2.69361e-05
1.43336e-07
1.33402e-07
2.30573e-07
-2.91857e-07
2.53338e-06
0.0315518
0.329906
0.561219
0.709803
0.710465
0.684608
0.160782
0.00142487
0.00104627
0.000989954
0.0546299
0.0887609
0.00709125
3.90925e-06
9.24539e-08
6.5252e-08
1.15336e-07
3.05456e-10
-1.36306e-10
1.27245e-07
7.94715e-06
0.0101257
0.451003
0.71176
0.712394
0.403049
0.00628415
0.00150194
0.0234698
0.069941
0.0380159
0.000323756
6.50904e-07
5.34979e-08
5.54753e-08
6.0331e-08
7.53044e-11
1.02917e-10
1.44411e-10
-6.73959e-12
7.94152e-06
0.00936699
0.656291
0.712394
0.712394
0.0737418
0.00217702
0.133757
0.0701428
7.59882e-05
1.84897e-06
5.35854e-08
3.88255e-08
5.39567e-08
5.54711e-08
5.27544e-11
1.13138e-10
1.44666e-10
1.47363e-10
1.44873e-10
2.13544e-05
0.139777
0.712394
0.711154
0.40255
0.418991
0.24701
0.00140963
9.52241e-06
1.84897e-07
2.50023e-08
3.55705e-08
8.98791e-08
3.01595e-05
1.3308e-11
1.71578e-10
1.8457e-10
2.59613e-10
2.31146e-10
-3.70295e-09
4.97356e-05
0.337403
0.709914
0.709897
0.550196
0.0557044
3.71186e-05
7.50912e-07
1.5247e-08
5.32479e-09
3.27643e-08
2.85371e-07
0.000242076
1.10139e-11
1.2607e-10
2.63011e-10
7.36088e-10
2.66899e-10
2.81395e-10
-2.83569e-09
6.22487e-10
0.22104
0.258087
0.0444712
-2.11666e-07
-6.69224e-11
9.57159e-10
5.44359e-09
7.14782e-09
7.51087e-09
3.87602e-07
0.000261447
9.98573e-12
9.43381e-12
8.7869e-11
7.40508e-10
9.20241e-10
1.01094e-09
8.75713e-10
8.61848e-10
8.61725e-10
8.61725e-10
8.61725e-10
8.61725e-10
8.62051e-10
8.75396e-10
5.76537e-09
6.49511e-09
7.39593e-08
3.64794e-06
0.00026159
5.04388e-11
1.03983e-11
1.02128e-11
1.02128e-11
1.08802e-10
2.02074e-09
1.84108e-09
1.36245e-09
8.61854e-10
8.61725e-10
8.61725e-10
8.62167e-10
8.75509e-10
4.30157e-09
5.53198e-09
5.79429e-09
1.19192e-05
6.79931e-06
0.000261384
2.27213e-10
2.9376e-11
1.49961e-11
2.54002e-11
1.08847e-10
9.92615e-10
1.22444e-09
1.53118e-09
1.05558e-09
8.89825e-10
8.51209e-10
8.79042e-10
1.28948e-09
3.52829e-09
8.48632e-09
6.18748e-09
2.18332e-05
7.1868e-06
0.000260399
3.1362e-10
5.6126e-11
1.83651e-11
1.84057e-11
8.29765e-11
1.99161e-10
3.61437e-10
5.03744e-10
5.74909e-10
5.79531e-10
6.21789e-10
1.25947e-09
5.7775e-07
4.88943e-07
1.03813e-07
6.47491e-09
2.13922e-05
7.76787e-05
0.00018668
1.86114e-10
5.0302e-11
1.15571e-11
1.10637e-11
4.4121e-11
2.82104e-10
3.89093e-10
2.84487e-10
2.85827e-10
3.04722e-10
1.44895e-09
5.61511e-07
1.75812e-06
1.75529e-06
2.72481e-07
5.4169e-08
2.96101e-05
0.000248489
1.03726e-05
3.16873e-11
1.92842e-11
5.24709e-12
6.27384e-12
3.91892e-11
2.3999e-10
3.33191e-10
1.2052e-10
9.70697e-11
6.73904e-10
7.90142e-07
1.75812e-06
1.75812e-06
1.75812e-06
2.43149e-07
1.3914e-05
3.8329e-05
0.00024927
1.00312e-05
2.30642e-12
1.7693e-12
1.45932e-12
4.1483e-12
3.86534e-11
2.12115e-10
1.40778e-10
3.47334e-11
3.5124e-11
6.75095e-07
1.72228e-06
1.74823e-06
1.75812e-06
1.44815e-06
2.34448e-07
2.45387e-05
2.95213e-05
0.000196789
8.42217e-06
4.44337e-13
3.6886e-13
5.62964e-13
3.67981e-12
4.05385e-11
1.43308e-10
6.25999e-11
3.47223e-11
2.83941e-07
1.45193e-06
1.43674e-06
9.53395e-07
1.23042e-06
6.21848e-07
2.35643e-07
2.90534e-05
1.59624e-05
3.34659e-08
1.52923e-06
8.03784e-14
8.78421e-14
3.51525e-13
3.58506e-12
4.15968e-11
8.92398e-11
3.67055e-11
3.39643e-11
8.32121e-07
8.72389e-07
4.19505e-08
4.18844e-08
4.19125e-08
1.41668e-07
1.05254e-06
3.31389e-05
3.09217e-06
1.50601e-08
1.4945e-08
1.61802e-14
2.93378e-14
3.06149e-13
3.47112e-12
3.80088e-11
6.24092e-11
3.29982e-11
3.30877e-11
4.06898e-07
9.97167e-08
4.24507e-08
4.19505e-08
4.17573e-08
4.20503e-08
5.76346e-06
3.31312e-05
7.56688e-07
1.4945e-08
1.4945e-08
2.47379e-15
1.77039e-14
2.86412e-13
3.30746e-12
2.69699e-11
4.91759e-11
3.30249e-11
3.98071e-10
1.78137e-11
1.0806e-06
1.51143e-06
4.24507e-08
4.20503e-08
1.29123e-06
1.09464e-05
1.09804e-05
5.47055e-07
2.21862e-08
1.4945e-08
4.36221e-16
1.5486e-14
2.72302e-13
3.20551e-12
2.03499e-11
3.8434e-11
3.19355e-11
1.93977e-09
1.26833e-11
2.14439e-06
4.79497e-06
5.77274e-08
5.98451e-08
2.90572e-06
5.39911e-06
5.42818e-07
5.17662e-07
1.02021e-07
1.49999e-08
2.54471e-16
1.41722e-14
2.68548e-13
2.82956e-12
1.31583e-11
2.3417e-11
2.19645e-11
1.34206e-11
1.21435e-11
1.3828e-06
4.80286e-06
8.97647e-07
1.2632e-07
5.43702e-07
5.69579e-07
3.64406e-06
2.14447e-06
5.85418e-08
1.53779e-08
1.97081e-16
1.31678e-14
2.33211e-13
1.72033e-12
6.45909e-12
1.0017e-11
1.26873e-11
1.14925e-11
1.15257e-11
8.02921e-08
4.80468e-06
6.54713e-06
1.31854e-07
6.86013e-07
5.4455e-06
6.52473e-06
2.19315e-06
1.62244e-08
1.58167e-08
1.2713e-16
8.8646e-15
1.19017e-13
6.40763e-13
2.12211e-12
3.71709e-12
9.13752e-12
1.1481e-11
3.01967e-10
2.39158e-10
7.86707e-07
6.63145e-06
5.65663e-06
6.64812e-06
7.71261e-06
6.30572e-06
5.2293e-07
2.65046e-08
2.22655e-08
6.10634e-17
3.5348e-15
3.44763e-14
1.56926e-13
6.11933e-13
1.485e-12
7.33336e-12
1.15186e-11
8.78369e-10
4.47925e-10
4.49633e-10
2.95138e-06
6.50529e-06
6.64563e-06
5.79122e-06
8.06651e-08
3.19806e-07
6.16903e-07
1.05814e-07
1.84699e-17
8.13823e-16
6.20396e-15
3.41949e-14
2.28746e-13
7.05227e-13
5.54768e-12
1.5462e-11
8.96079e-10
4.80952e-10
4.66526e-10
2.85281e-10
5.40728e-07
1.62993e-06
9.36072e-10
7.05386e-08
8.29844e-07
8.29844e-07
1.50321e-07
3.78301e-18
1.15971e-16
9.26576e-16
1.27299e-14
1.05603e-13
3.40753e-13
3.09155e-12
1.09611e-11
4.45246e-10
1.56555e-10
5.1814e-10
2.8035e-10
8.10522e-11
8.21011e-11
1.20937e-10
7.10783e-07
8.28919e-07
8.2681e-07
9.06719e-08
1.10693e-18
2.54169e-17
3.2557e-16
6.5132e-15
3.49887e-14
1.61033e-13
1.03666e-12
5.3236e-12
3.9227e-13
3.86708e-13
2.24063e-10
2.95199e-10
7.80398e-11
8.10522e-11
3.02438e-08
8.09671e-07
8.17103e-07
1.75659e-07
8.03652e-09
6.79924e-19
1.16933e-17
1.47826e-16
1.93064e-15
6.25927e-15
8.82064e-14
1.83525e-13
6.71776e-13
9.98995e-13
3.86497e-13
0
2.00605e-11
1.01258e-11
1.72402e-08
8.16073e-07
5.34911e-07
1.11139e-07
2.06022e-14
3.21396e-14
4.35288e-19
4.64176e-18
4.09736e-17
2.18715e-16
6.64439e-16
4.43045e-14
4.29308e-14
3.20824e-14
3.01798e-14
-1.23026e-16
-6.59909e-15
-1.18476e-14
2.22339e-27
1.86948e-06
1.45832e-06
5.24673e-12
2.06022e-14
7.2011e-15
3.38525e-14
1.93318e-19
1.20103e-18
6.55021e-18
1.11945e-17
5.17285e-17
7.18408e-15
7.10122e-15
2.32513e-15
-7.74981e-16
-6.0221e-15
-7.67374e-15
-7.00517e-15
6.33351e-08
3.06524e-06
1.0736e-06
4.27649e-12
7.2011e-15
1.18473e-15
1.10938e-13
4.73246e-20
1.79171e-19
5.13259e-19
2.03678e-19
2.88168e-18
2.06251e-16
2.05306e-16
7.74217e-17
-1.36701e-15
-2.9006e-15
-2.84824e-15
-2.23106e-15
1.44472e-07
3.06524e-06
1.80101e-07
5.82259e-13
7.32174e-16
7.78524e-17
1.08286e-13
5.12558e-21
1.30848e-20
1.6294e-20
-1.51632e-19
-2.65875e-20
9.3992e-19
7.55948e-19
1.45063e-19
-4.27317e-16
-7.0136e-16
-5.63972e-16
-3.7718e-16
8.39212e-08
1.11303e-06
2.0706e-08
3.05212e-14
9.82453e-17
2.40325e-17
4.95687e-14
2.18481e-22
3.36813e-22
3.18906e-22
-1.19193e-19
-5.04722e-20
-9.16679e-21
-9.02533e-22
-1.19917e-20
-4.91698e-17
-5.68665e-17
-3.20294e-17
-1.453e-17
4.4044e-09
-1.69237e-20
-3.52921e-20
2.80288e-11
6.04953e-14
3.63325e-20
2.31929e-15
1.18399e-24
7.0639e-25
3.1247e-25
-3.47249e-20
-6.85629e-21
-6.51417e-22
-7.7315e-23
-2.22367e-23
-6.02209e-24
-1.21134e-24
-1.8738e-25
-2.69441e-26
-1.21181e-22
-5.05669e-19
-1.0366e-18
-3.832e-20
-1.40231e-21
-2.1257e-23
-4.19051e-26
)
;

boundaryField
{
    leftWall
    {
        type            zeroGradient;
    }
    rightWall
    {
        type            zeroGradient;
    }
    lowerWall
    {
        type            zeroGradient;
    }
    atmosphere
    {
        type            inletOutlet;
        inletValue      uniform 0;
        value           nonuniform List<scalar> 
46
(
-3.06089e-25
6.07695e-26
5.29101e-25
8.97742e-25
2.25222e-24
1.20518e-23
1.38853e-23
3.16313e-24
4.64682e-25
5.07131e-26
4.2364e-27
2.77967e-28
1.68673e-29
8.31019e-31
3.66362e-32
2.52608e-33
1.22334e-33
1.22334e-33
3.33012e-33
9.33964e-32
2.71376e-30
4.55705e-29
0
0
0
0
0
0
0
0
0
0
0
0
0
0
0
0
0
0
0
0
0
0
0
0
)
;
    }
    defaultFaces
    {
        type            empty;
    }
}


// ************************************************************************* //
