/*--------------------------------*- C++ -*----------------------------------*\
| =========                 |                                                 |
| \\      /  F ield         | OpenFOAM: The Open Source CFD Toolbox           |
|  \\    /   O peration     | Version:  2012                                  |
|   \\  /    A nd           | Website:  www.openfoam.com                      |
|    \\/     M anipulation  |                                                 |
\*---------------------------------------------------------------------------*/
FoamFile
{
    version     2.0;
    format      ascii;
    class       surfaceScalarField;
    location    "0.9";
    object      phi;
}
// * * * * * * * * * * * * * * * * * * * * * * * * * * * * * * * * * * * * * //

dimensions      [0 3 -1 0 0 0 0];
oriented        oriented;


internalField   nonuniform List<scalar> 
4432
(
6.61365e-07
-6.61365e-07
-7.60305e-07
1.42167e-06
-4.43363e-06
3.67333e-06
-8.80571e-06
4.37207e-06
-1.05074e-05
1.70166e-06
-8.98881e-06
-1.51855e-06
-6.98892e-06
-1.99989e-06
-6.41154e-06
-5.77381e-07
-7.07935e-06
6.67806e-07
-8.50749e-06
1.42814e-06
-1.04232e-05
1.91571e-06
-1.24369e-05
2.01372e-06
-1.37372e-05
1.30026e-06
-1.33983e-05
-3.38853e-07
-1.2127e-05
-1.27137e-06
-1.33182e-05
1.19125e-06
-1.79788e-05
4.66055e-06
-2.19994e-05
4.02061e-06
-2.0775e-05
-1.22437e-06
-1.59114e-05
-4.86362e-06
-1.06584e-05
-5.25294e-06
-4.91423e-06
-5.74421e-06
-4.91423e-06
-3.99948e-06
3.33811e-06
-8.37548e-06
5.79767e-06
-1.21574e-05
7.45524e-06
-1.38284e-05
6.04304e-06
-1.2641e-05
5.14269e-07
-9.8768e-06
-4.28272e-06
-7.50984e-06
-4.36684e-06
-6.66794e-06
-1.41928e-06
-7.25283e-06
1.2527e-06
-8.59707e-06
2.77238e-06
-1.02475e-05
3.56614e-06
-1.19615e-05
3.72774e-06
-1.37445e-05
3.08325e-06
-1.59021e-05
1.81873e-06
-1.83927e-05
1.21925e-06
-2.02292e-05
3.02777e-06
-1.97807e-05
4.21207e-06
-1.60103e-05
2.50149e-07
-1.09236e-05
-6.31103e-06
-7.09645e-06
-8.69077e-06
-4.73483e-06
-7.61456e-06
-2.16706e-06
-8.31198e-06
-7.08128e-06
-5.31302e-06
8.65113e-06
-9.88586e-06
1.03705e-05
-1.29327e-05
1.05021e-05
-1.4164e-05
7.27433e-06
-1.32441e-05
-4.05631e-07
-1.0677e-05
-6.84987e-06
-8.21964e-06
-6.82416e-06
-7.27842e-06
-2.36051e-06
-7.65384e-06
1.62812e-06
-8.65928e-06
3.77781e-06
-9.73629e-06
4.64314e-06
-1.06004e-05
4.59181e-06
-1.13521e-05
3.83498e-06
-1.23502e-05
2.8168e-06
-1.33798e-05
2.24892e-06
-1.2614e-05
2.26192e-06
-8.68358e-06
2.81676e-07
-3.62081e-06
-4.81261e-06
4.21773e-08
-9.97402e-06
1.43531e-06
-1.00839e-05
1.23759e-06
-7.41683e-06
6.75806e-07
-7.75019e-06
-6.40548e-06
-4.51117e-06
1.31623e-05
-8.32558e-06
1.41849e-05
-1.10734e-05
1.32499e-05
-1.26262e-05
8.82714e-06
-1.22155e-05
-8.16319e-07
-1.00673e-05
-8.99811e-06
-8.36101e-06
-8.53039e-06
-7.96717e-06
-2.75435e-06
-8.52185e-06
2.1828e-06
-9.60656e-06
4.86252e-06
-1.07564e-05
5.793e-06
-1.15194e-05
5.35474e-06
-1.16427e-05
3.9583e-06
-1.0968e-05
2.14212e-06
-9.05127e-06
3.32194e-07
-5.1889e-06
-1.60045e-06
-1.51805e-07
-4.75541e-06
3.6941e-06
-8.65852e-06
4.67326e-06
-1.09532e-05
4.32612e-06
-9.73677e-06
3.113e-06
-6.20371e-06
1.46727e-06
-6.10445e-06
-4.93821e-06
-2.88085e-06
1.60431e-05
-5.62818e-06
1.69322e-05
-7.76448e-06
1.53862e-05
-9.01483e-06
1.00775e-05
-8.84975e-06
-9.81396e-07
-7.68056e-06
-1.01673e-05
-7.51767e-06
-8.69328e-06
-8.34693e-06
-1.9251e-06
-9.44096e-06
3.27684e-06
-1.06994e-05
6.12099e-06
-1.1991e-05
7.08459e-06
-1.29338e-05
6.29756e-06
-1.31461e-05
4.17053e-06
-1.22289e-05
1.22494e-06
-9.5103e-06
-2.38638e-06
-4.64599e-06
-6.46476e-06
8.80562e-07
-1.0282e-05
4.60129e-06
-1.23793e-05
5.2135e-06
-1.15654e-05
4.11944e-06
-8.64271e-06
2.46186e-06
-4.54614e-06
1.05222e-06
-4.69479e-06
-3.886e-06
-8.82286e-07
1.69254e-05
-2.21822e-06
1.82682e-05
-3.27538e-06
1.64433e-05
-3.76152e-06
1.05636e-05
-3.62625e-06
-1.11666e-06
-3.93073e-06
-9.86283e-06
-5.89891e-06
-6.72511e-06
-8.2488e-06
4.24793e-07
-1.00831e-05
5.11109e-06
-1.15839e-05
7.62179e-06
-1.29584e-05
8.45911e-06
-1.40105e-05
7.34965e-06
-1.43852e-05
4.5453e-06
-1.37101e-05
5.49767e-07
-1.10787e-05
-5.01775e-06
-5.72531e-06
-1.18182e-05
7.45252e-07
-1.67525e-05
5.6046e-06
-1.72386e-05
6.84231e-06
-1.28031e-05
5.1347e-06
-6.93509e-06
2.62979e-06
-2.04123e-06
9.01634e-07
-2.96663e-06
-2.98436e-06
1.41303e-06
1.55124e-05
1.521e-06
1.81602e-05
1.41461e-06
1.65497e-05
1.96676e-06
1.00115e-05
2.94874e-06
-2.09864e-06
7.13307e-07
-7.6274e-06
-3.8548e-06
-2.157e-06
-7.05064e-06
3.62062e-06
-9.24264e-06
7.30309e-06
-1.08615e-05
9.24064e-06
-1.23579e-05
9.95548e-06
-1.36161e-05
8.60792e-06
-1.43077e-05
5.23686e-06
-1.39833e-05
2.25402e-07
-1.09555e-05
-8.04552e-06
-4.43399e-06
-1.83397e-05
3.05149e-06
-2.4238e-05
8.7438e-06
-2.29309e-05
1.06687e-05
-1.4728e-05
8.29781e-06
-4.56422e-06
4.16472e-06
2.09186e-06
1.18049e-06
1.75985e-08
-1.80387e-06
3.99873e-06
1.15137e-05
5.64616e-06
1.65128e-05
7.80217e-06
1.43937e-05
1.05052e-05
7.30839e-06
1.00691e-05
-1.66249e-06
4.44243e-06
-2.00074e-06
-1.71874e-06
4.00416e-06
-4.61758e-06
6.51946e-06
-6.84038e-06
9.52588e-06
-8.84095e-06
1.12412e-05
-1.06851e-05
1.17996e-05
-1.2125e-05
1.00478e-05
-1.30181e-05
6.12998e-06
-1.29966e-05
2.0384e-07
-1.05776e-05
-1.04645e-05
-5.64584e-06
-2.32714e-05
7.41883e-07
-3.06257e-05
8.27057e-06
-3.04596e-05
1.26042e-05
-1.90616e-05
1.10791e-05
-3.03917e-06
5.75593e-06
7.41504e-06
1.37548e-06
4.39804e-06
-4.28387e-07
-9.14168e-06
9.14168e-06
-2.78505e-05
1.87088e-05
-2.57386e-05
-2.11191e-06
-4.34576e-06
-2.13928e-05
1.73322e-05
-2.16779e-05
2.55425e-05
-8.21029e-06
1.32036e-05
1.23389e-05
-1.05815e-05
2.3785e-05
-1.21994e-05
1.61792e-06
4.22482e-06
-1.64242e-05
1.67295e-05
-1.25047e-05
8.92744e-06
7.80208e-06
-1.18715e-05
2.07989e-05
-3.04537e-05
1.85823e-05
-4.36454e-05
1.31917e-05
-4.40373e-05
3.91963e-07
-2.8507e-05
-1.55303e-05
-7.97159e-06
-2.05354e-05
-7.97159e-06
-1.81634e-05
2.73051e-05
-2.77876e-05
2.8333e-05
-2.01463e-05
-9.75321e-06
-5.53757e-06
-3.60016e-05
7.38551e-06
-3.4601e-05
6.87059e-06
-7.69536e-06
-6.2888e-06
2.54983e-05
-1.71189e-05
3.46151e-05
-2.22662e-05
6.76521e-06
-1.64678e-05
-2.22226e-05
2.54653e-07
-2.92272e-05
3.74501e-06
4.31172e-06
-1.21037e-05
3.66476e-05
-3.28628e-05
3.93414e-05
-4.47703e-05
2.50992e-05
-3.86665e-05
-5.71186e-06
-2.28546e-05
-3.13423e-05
-1.02555e-05
-3.31345e-05
-1.82271e-05
-1.69704e-05
4.42755e-05
-2.16112e-05
3.29738e-05
-1.50429e-05
-1.63215e-05
-8.94493e-06
-4.20996e-05
-9.06066e-06
-3.44853e-05
-1.5873e-05
-8.83024e-07
-2.54233e-05
3.50487e-05
-4.69774e-05
5.61692e-05
-5.95159e-05
1.93038e-05
-4.46587e-05
-3.70798e-05
-2.51607e-05
-4.87253e-05
-1.21986e-05
-8.65036e-06
-1.3237e-05
3.7686e-05
-2.43692e-05
5.04736e-05
-3.01778e-05
3.09078e-05
-2.71909e-05
-8.69875e-06
-2.13394e-05
-3.71938e-05
-1.34265e-05
-4.10474e-05
-3.16536e-05
-1.24146e-05
5.66901e-05
-1.62763e-05
3.68356e-05
-1.06533e-05
-2.19445e-05
-7.85597e-06
-4.48969e-05
-1.29759e-05
-2.93653e-05
-2.3559e-05
9.70003e-06
-5.19875e-05
6.34772e-05
-9.1248e-05
9.54297e-05
-8.90706e-05
1.71264e-05
-7.12893e-05
-5.48611e-05
-5.3103e-05
-6.69116e-05
-3.30737e-05
-2.86797e-05
-2.33812e-05
2.79935e-05
-2.36215e-05
5.07139e-05
-2.46513e-05
3.19376e-05
-2.65521e-05
-6.79799e-06
-2.11586e-05
-4.25873e-05
-5.27322e-06
-5.69327e-05
-3.69268e-05
-6.56176e-06
6.32518e-05
-7.97937e-06
3.82532e-05
-3.03367e-06
-2.68902e-05
-3.92711e-06
-4.40034e-05
-1.24536e-05
-2.08389e-05
-2.97292e-05
2.69757e-05
-7.83931e-05
0.000112141
-0.000104672
0.000121709
-9.82223e-05
1.06763e-05
-9.10428e-05
-6.20406e-05
-7.76971e-05
-8.02572e-05
-5.72945e-05
-4.90823e-05
-3.99301e-05
1.06291e-05
-3.29503e-05
4.37341e-05
-3.30758e-05
3.20632e-05
-3.23608e-05
-7.513e-06
-1.94241e-05
-5.5524e-05
1.16184e-06
-7.75186e-05
-3.5765e-05
-1.27854e-06
6.45304e-05
2.31212e-06
3.46625e-05
5.54866e-06
-3.01268e-05
1.99656e-07
-3.86544e-05
-1.21713e-05
-8.46792e-06
-3.48449e-05
4.96493e-05
-7.75024e-05
0.000154799
-8.67146e-05
0.000130921
-8.98366e-05
1.37983e-05
-9.0864e-05
-6.10132e-05
-8.97293e-05
-8.1392e-05
-7.86903e-05
-6.01213e-05
-6.18928e-05
-6.16843e-06
-5.32381e-05
3.50795e-05
-5.13748e-05
3.01998e-05
-4.20867e-05
-1.68011e-05
-2.47645e-05
-7.28462e-05
-9.85947e-07
-0.000101297
-3.67509e-05
4.44497e-06
6.00854e-05
1.03821e-05
2.87254e-05
1.26621e-05
-3.24069e-05
3.24522e-06
-2.92375e-05
-1.32493e-05
8.02655e-06
-3.88165e-05
7.52165e-05
-5.75607e-05
0.000173543
-5.24443e-05
0.000125805
-5.70272e-05
1.83812e-05
-6.8583e-05
-4.94575e-05
-8.34637e-05
-6.65112e-05
-8.91197e-05
-5.44653e-05
-8.20115e-05
-1.32766e-05
-6.78818e-05
2.09498e-05
-5.79944e-05
2.03124e-05
-5.58451e-05
-1.89505e-05
-4.57459e-05
-8.29454e-05
-1.05932e-05
-0.00013645
-4.73441e-05
9.74844e-06
5.03369e-05
1.72934e-05
2.11804e-05
1.69741e-05
-3.20875e-05
5.08584e-06
-1.73493e-05
-1.55109e-05
2.86233e-05
-4.58716e-05
0.000105577
-3.8862e-05
0.000166533
-8.26211e-06
9.52048e-05
-1.51241e-05
2.52432e-05
-4.77689e-05
-1.68127e-05
-6.83053e-05
-4.59749e-05
-7.69741e-05
-4.57965e-05
-7.4777e-05
-1.54737e-05
-6.30124e-05
9.18517e-06
-6.84369e-05
2.57369e-05
-9.54217e-05
8.03425e-06
-8.11092e-05
-9.72579e-05
-2.55821e-05
-0.000191977
-7.29262e-05
1.94822e-05
-7.96854e-06
2.79949e-05
8.00015e-06
3.46768e-05
7.71175e-06
3.41491e-05
7.83608e-06
1.81106e-05
1.4376e-05
2.10391e-07
1.58995e-05
-6.83964e-06
1.10542e-05
-1.28298e-05
1.25096e-05
-2.33067e-05
2.00028e-05
-3.22614e-05
2.01959e-05
-3.8288e-05
1.78262e-05
-4.03682e-05
1.2128e-05
-3.97145e-05
5.47632e-06
-4.30017e-05
3.491e-06
-4.9517e-05
-3.94916e-06
-4.85898e-05
-2.41987e-05
-2.84247e-05
-5.07909e-05
1.49062e-06
-6.03749e-05
2.39791e-05
-4.155e-05
2.66809e-05
-5.74094e-06
1.37782e-05
2.03177e-05
-6.6593e-07
1.88422e-05
4.66391e-06
-5.75823e-06
2.7261e-05
-3.52295e-05
3.76572e-05
-2.39607e-06
3.71269e-05
8.24209e-06
2.84717e-05
1.64913e-05
4.92271e-06
3.7925e-05
-2.4197e-05
4.50192e-05
-4.36734e-05
3.05306e-05
-5.33149e-05
2.21511e-05
-6.50948e-05
3.17826e-05
-7.91761e-05
3.42773e-05
-9.26688e-05
3.13189e-05
-0.000103496
2.29549e-05
-0.000115243
1.72239e-05
-0.000126798
1.50461e-05
-0.000127781
-2.96614e-06
-0.00011326
-3.87199e-05
-7.44607e-05
-8.95903e-05
-2.82608e-05
-0.000106575
3.91385e-06
-7.37246e-05
1.28644e-05
-1.46915e-05
7.54309e-06
2.5639e-05
1.77405e-06
2.46112e-05
8.80144e-06
-2.36348e-06
3.04952e-05
-6.57248e-05
2.03248e-05
7.77433e-06
-1.34891e-05
4.2056e-05
-3.94038e-05
4.2406e-05
-3.60355e-05
3.45567e-05
-2.64167e-05
3.54003e-05
-3.53469e-05
3.94608e-05
-7.15531e-05
5.83572e-05
-0.000130605
9.08342e-05
-0.00019194
9.56127e-05
-0.000223835
6.3214e-05
-0.00021761
1.67298e-05
-0.000195965
-4.42089e-06
-0.000174518
-6.40084e-06
-0.000158748
-1.87369e-05
-0.000140724
-5.67434e-05
-0.000115593
-0.000114721
-9.96058e-05
-0.000122562
-9.47555e-05
-7.85749e-05
-0.000110118
6.70503e-07
-0.00012757
4.30911e-05
-0.000109352
6.39362e-06
-2.42459e-05
-7.63047e-05
-4.11528e-05
-2.45719e-05
-9.33925e-05
6.0014e-05
-0.000127514
7.61772e-05
-0.000137807
5.26988e-05
-0.000136143
3.28931e-05
-0.000124881
2.41386e-05
-0.000121244
3.58241e-05
-0.000121487
5.85997e-05
-0.000116772
8.61199e-05
-0.000113426
9.22665e-05
-9.63122e-05
4.61002e-05
-7.09945e-05
-8.58789e-06
-5.03879e-05
-2.50274e-05
-5.96017e-05
2.81288e-06
-0.000103336
2.49977e-05
-0.000138148
-2.19318e-05
-0.000140147
-0.000112722
-0.0001516
-0.00011111
-0.000178091
-5.20836e-05
-0.000208568
3.11473e-05
-0.000210146
4.46696e-05
-0.000171758
-3.1995e-05
-6.48058e-05
-0.000131198
-9.96458e-05
7.50739e-05
-0.00019038
0.000150748
-0.000272513
0.00015831
-0.00034881
0.000128996
-0.000340571
2.4654e-05
-0.000307721
-8.71092e-06
-0.00026568
-6.21673e-06
-0.000215709
8.62813e-06
-0.000155213
2.56243e-05
-9.26894e-05
2.97428e-05
-5.02875e-05
3.69817e-06
-3.7514e-05
-2.13613e-05
-4.56503e-05
-1.68912e-05
-5.83893e-05
1.55519e-05
-9.58197e-05
6.24282e-05
-0.000148285
3.05333e-05
-0.000183848
-7.71585e-05
-0.000208243
-8.67148e-05
-0.000244869
-1.54576e-05
-0.000273379
5.96572e-05
-0.000248198
1.9488e-05
-0.00021821
-6.19827e-05
-0.00010648
-0.000176535
-9.36959e-05
0.00016877
-0.000169278
0.00022633
-0.000277247
0.000266279
-0.000361196
0.000212945
-0.000373217
3.66756e-05
-0.000351643
-3.02853e-05
-0.000329655
-2.82048e-05
-0.000302346
-1.86809e-05
-0.000273358
-3.36331e-06
-0.000228128
-1.54881e-05
-0.000172541
-5.18888e-05
-0.000132319
-6.15831e-05
-0.00010967
-3.95397e-05
-0.000109738
1.56193e-05
-0.000127699
8.03893e-05
-0.000191877
9.47113e-05
-0.000245392
-2.36433e-05
-0.000255775
-7.63318e-05
-0.000270714
-5.18994e-07
-0.000268197
5.71406e-05
-0.000241606
-7.10279e-06
-0.000210085
-9.35041e-05
-0.000122489
-0.000194076
-6.92515e-05
0.000238021
-0.000128064
0.000285143
-0.000224718
0.000362933
-0.000273967
0.000262194
-0.000313429
7.61376e-05
-0.000375979
3.22643e-05
-0.000410235
6.05188e-06
-0.000411087
-1.78293e-05
-0.000387937
-2.65136e-05
-0.000348121
-5.5304e-05
-0.000302981
-9.70282e-05
-0.000254449
-0.000110115
-0.000213392
-8.05967e-05
-0.000200459
2.68666e-06
-0.000235226
0.000115156
-0.000265145
0.000124631
-0.000281647
-7.14111e-06
-0.000287656
-7.03226e-05
-0.000263442
-2.47337e-05
-0.000219713
1.34118e-05
-0.000191582
-3.52335e-05
-0.000194149
-9.09373e-05
-0.000111883
-0.000204756
-4.50066e-05
0.000283028
-9.94439e-05
0.00033958
-0.00017626
0.00043975
-0.00022336
0.000309293
-0.000291856
0.000144634
-0.000352232
9.26401e-05
-0.000397814
5.16343e-05
-0.000431373
1.57292e-05
-0.000450256
-7.63069e-06
-0.000459911
-4.56492e-05
-0.000470654
-8.62848e-05
-0.000473371
-0.000107398
-0.000455891
-9.80771e-05
-0.000435589
-1.76149e-05
-0.000395067
7.46334e-05
-0.000327804
5.73682e-05
-0.000301339
-3.36062e-05
-0.000307243
-6.44189e-05
-0.000278046
-5.39312e-05
-0.000224102
-4.05318e-05
-0.000193127
-6.62082e-05
-0.000187211
-9.68535e-05
-0.000109399
-0.000189695
-3.737e-05
0.000320398
-8.91556e-05
0.000391365
-0.000139674
0.000490268
-0.000178108
0.000347727
-0.000243061
0.000209587
-0.000300258
0.000149837
-0.000347972
9.93479e-05
-0.000393541
6.12982e-05
-0.000433248
3.20763e-05
-0.000475009
-3.88835e-06
-0.000516983
-4.43102e-05
-0.000550065
-7.43164e-05
-0.000566808
-8.13336e-05
-0.000538168
-4.62557e-05
-0.000456422
-7.11258e-06
-0.000380847
-1.82067e-05
-0.000342198
-7.22553e-05
-0.000320315
-8.63016e-05
-0.000286434
-8.78124e-05
-0.00025001
-7.6955e-05
-0.000216628
-9.95909e-05
-0.000187785
-0.000125696
-0.000130468
-0.000166716
-3.64241e-05
0.000356822
-8.48431e-05
0.000439784
-0.00011285
0.000518275
-0.000136654
0.000371531
-0.000182134
0.000255066
-0.000227441
0.000195144
-0.000270576
0.000142483
-0.000313895
0.000104617
-0.000356907
7.50881e-05
-0.000400918
4.01229e-05
-0.00044187
-3.35801e-06
-0.000479461
-3.6726e-05
-0.000505131
-5.56632e-05
-0.000496922
-5.44648e-05
-0.000450173
-5.38613e-05
-0.00039702
-7.13607e-05
-0.000370275
-9.89994e-05
-0.00035074
-0.000105837
-0.000333997
-0.000104554
-0.000306275
-0.000104677
-0.000275411
-0.000130455
-0.000246894
-0.000154214
-0.000155374
-0.000221987
-3.23732e-05
0.000389195
-7.82379e-05
0.000485649
-9.11478e-05
0.000531185
-0.000100254
0.000380637
-0.000124917
0.000279729
-0.000153451
0.000223678
-0.000184293
0.000173325
-0.000216118
0.000136442
-0.000246675
0.000105645
-0.000277345
7.0792e-05
-0.000309892
2.9189e-05
-0.000336496
-1.01213e-05
-0.000354764
-3.73954e-05
-0.000357378
-5.1851e-05
-0.000345426
-6.58128e-05
-0.000329474
-8.73129e-05
-0.000319129
-0.000109344
-0.00030586
-0.000119107
-0.000289389
-0.000121025
-0.00026521
-0.000128856
-0.000244955
-0.00015071
-0.000229332
-0.000169837
-0.000178127
-0.000206579
-3.92823e-05
0.000428477
-7.11902e-05
0.000517557
-7.17931e-05
0.000531788
-7.42874e-05
0.000383132
-8.82439e-05
0.000293685
-0.000105589
0.000241023
-0.000122522
0.000190258
-0.000135886
0.000149806
-0.000143431
0.000113191
-0.000149016
7.63767e-05
-0.000157191
3.73641e-05
-0.000169807
2.49452e-06
-0.000179747
-2.74556e-05
-0.00018353
-4.80677e-05
-0.000183165
-6.61777e-05
-0.000184153
-8.63247e-05
-0.000188712
-0.000104785
-0.000192187
-0.000115632
-0.000190331
-0.000122881
-0.000185128
-0.000134059
-0.000182795
-0.000153043
-0.000180297
-0.000172335
-0.000187896
-0.000170528
-4.45751e-05
0.000473052
-7.62085e-05
0.00054919
-6.29777e-05
0.000518557
-6.98821e-05
0.000390036
-8.68624e-05
0.000310665
-0.000104662
0.000258823
-0.000116045
0.000201641
-0.000115316
0.000149077
-0.000102683
0.000100558
-8.56152e-05
5.93087e-05
-7.29301e-05
2.46791e-05
-6.82219e-05
-2.21352e-06
-6.81923e-05
-2.7485e-05
-6.86368e-05
-4.76232e-05
-6.89155e-05
-6.58988e-05
-7.34136e-05
-8.18265e-05
-8.19673e-05
-9.62316e-05
-9.10202e-05
-0.000106579
-9.61549e-05
-0.000117746
-9.94621e-05
-0.000130752
-0.000108149
-0.000144357
-0.000117782
-0.000162701
-0.000184575
-0.000121103
-3.87461e-05
0.000511799
-9.51409e-05
0.000605585
-7.57037e-05
0.000499119
-9.08118e-05
0.000405144
-0.000120209
0.000340062
-0.000147896
0.00028651
-0.000164398
0.000218143
-0.000160535
0.000145213
-0.000136798
7.68216e-05
-0.000102052
2.45622e-05
-6.67405e-05
-1.06322e-05
-3.72755e-05
-3.16786e-05
-1.96129e-05
-4.51478e-05
-1.22445e-05
-5.49917e-05
-1.25154e-05
-6.56278e-05
-1.61632e-05
-7.81786e-05
-2.08263e-05
-9.15685e-05
-2.55498e-05
-0.000101855
-3.00931e-05
-0.000113203
-3.48135e-05
-0.000126031
-4.21465e-05
-0.000137024
-5.52032e-05
-0.000149645
-0.000172381
-6.73974e-05
-1.95916e-05
0.00053139
-0.000109382
0.000695376
-0.000105815
0.000495552
-0.000123622
0.00042295
-0.000167081
0.000383522
-0.000208785
0.000328214
-0.000237457
0.000246815
-0.000238352
0.000146108
-0.00020848
4.69492e-05
-0.000159202
-2.47152e-05
-0.00010503
-6.48048e-05
-5.68671e-05
-7.9841e-05
-1.85635e-05
-8.34514e-05
9.02239e-06
-8.25777e-05
2.43804e-05
-8.09859e-05
2.74661e-05
-8.12643e-05
2.20328e-05
-8.61354e-05
1.58642e-05
-9.56868e-05
1.04848e-05
-0.000107824
4.96469e-06
-0.000120511
-1.00282e-06
-0.000131056
-9.25224e-06
-0.000141395
-0.000160376
-2.12572e-05
-4.49452e-07
0.00053184
-9.73297e-05
0.000792256
-0.000131761
0.000529983
-0.000143325
0.000434515
-0.000194664
0.000434861
-0.000251866
0.000385416
-0.000297922
0.00029287
-0.000309261
0.000157448
-0.000273145
1.08332e-05
-0.000209046
-8.88145e-05
-0.000135235
-0.000138615
-7.24773e-05
-0.000142599
-2.60133e-05
-0.000129915
8.39966e-06
-0.000116991
3.39756e-05
-0.000106562
5.1517e-05
-9.88057e-05
5.93361e-05
-9.39544e-05
5.70858e-05
-9.34364e-05
4.84463e-05
-9.91841e-05
3.88932e-05
-0.000110958
3.16631e-05
-0.000123826
2.45191e-05
-0.000134251
-0.000149198
1.33414e-05
1.23516e-05
0.000519488
2.25064e-06
0.000802357
-8.43547e-05
0.000616589
-0.000119866
0.000470026
-0.000168773
0.000483768
-0.000237192
0.000453835
-0.0002983
0.000353978
-0.000317838
0.000176986
-0.000290602
-1.6403e-05
-0.000223551
-0.000155865
-0.000139241
-0.000222925
-6.65283e-05
-0.000215312
-1.61973e-05
-0.000180246
1.74344e-05
-0.000150622
4.0509e-05
-0.000129636
5.79948e-05
-0.000116291
7.17611e-05
-0.000107721
8.07012e-05
-0.000102377
8.20708e-05
-0.000100554
7.5079e-05
-0.000103966
6.34876e-05
-0.000112235
5.19729e-05
-0.000122736
-0.000135186
3.79609e-05
4.87608e-05
0.000470727
0.000129286
0.000721831
6.47966e-05
0.000681078
-1.23994e-05
0.000547222
-6.33155e-05
0.000534684
-0.000117463
0.000507982
-0.00016323
0.000399746
-0.000178253
0.000192009
-0.000179851
-1.48051e-05
-0.000147602
-0.000188114
-9.01757e-05
-0.000280351
-3.02978e-05
-0.00027519
1.41178e-05
-0.000224662
4.06665e-05
-0.000177171
5.70629e-05
-0.000146033
6.82391e-05
-0.000127467
7.69133e-05
-0.000116395
8.42457e-05
-0.000109709
8.98399e-05
-0.000106148
9.13787e-05
-0.000105505
8.68771e-05
-0.000107733
7.73333e-05
-0.000113193
-0.000121141
6.32882e-05
0.000103944
0.000366783
0.000222897
0.000602879
0.0002579
0.000646076
0.000192435
0.000612686
0.000133908
0.000593211
8.77556e-05
0.000554135
5.91957e-05
0.000428305
4.43557e-05
0.000206849
3.23431e-05
-2.79255e-06
1.94155e-05
-0.000175187
2.20415e-05
-0.000282978
4.26342e-05
-0.000295782
6.17217e-05
-0.000243749
7.35856e-05
-0.000189035
8.01875e-05
-0.000152635
8.38441e-05
-0.000131124
8.59513e-05
-0.000118502
8.73667e-05
-0.000111124
8.83444e-05
-0.000107126
8.84316e-05
-0.000105592
8.67528e-05
-0.000106054
8.1947e-05
-0.000108387
-0.000112064
7.28694e-05
0.000111956
0.000254826
0.000273442
0.000441393
0.000393394
0.000526124
0.000409448
0.000596633
0.000373123
0.000629536
0.000332422
0.000594836
0.000301407
0.00045932
0.000264305
0.000243951
0.000227487
3.40256e-05
0.000191151
-0.00013885
0.000155059
-0.000246886
0.000130954
-0.000271677
0.000117803
-0.000230598
0.000110211
-0.000181443
0.000104929
-0.000147352
0.000100645
-0.000126841
9.67229e-05
-0.000114579
9.29055e-05
-0.000107307
8.90779e-05
-0.000103298
8.50378e-05
-0.000101552
8.04039e-05
-0.00010142
7.44688e-05
-0.000102452
-0.000104002
6.64072e-05
0.000101373
0.000153454
0.000281021
0.000261745
0.00043294
0.000374205
0.000525338
0.000504235
0.000548892
0.000605982
0.000536003
0.000607725
0.000505353
0.000489969
0.000455702
0.000293602
0.000396627
9.31004e-05
0.000329731
-7.19546e-05
0.000265211
-0.000182365
0.000208899
-0.000215366
0.000168734
-0.000190433
0.000143266
-0.000155975
0.000126866
-0.000130952
0.000115273
-0.000115248
0.000106186
-0.000105492
9.83985e-05
-9.95194e-05
9.12166e-05
-9.61162e-05
8.42541e-05
-9.45894e-05
7.71647e-05
-9.43306e-05
6.95442e-05
-9.4831e-05
-9.54283e-05
6.09704e-05
8.21082e-05
7.13456e-05
0.000224664
0.000119189
0.000373486
0.000225383
0.000498888
0.000378832
0.000575479
0.000529391
0.000605215
0.000577988
0.000595401
0.000499783
0.000551631
0.000337373
0.000485319
0.000159412
0.000407684
5.6812e-06
0.000329288
-0.000103969
0.000256333
-0.000142411
0.000202072
-0.000136172
0.000166212
-0.000120115
0.00014249
-0.00010723
0.000125681
-9.84388e-05
0.000112812
-9.26228e-05
0.00010226
-8.89675e-05
9.30342e-05
-8.68905e-05
8.44811e-05
-8.60363e-05
7.61891e-05
-8.60385e-05
6.7892e-05
-8.65339e-05
-8.69312e-05
5.93948e-05
4.45116e-05
2.68339e-05
0.000124633
3.90669e-05
0.000236748
0.000113269
0.000357038
0.000258542
0.00045968
0.000426749
0.000525562
0.000512106
0.000548109
0.000477236
0.000528266
0.000357217
0.000479669
0.000208008
0.000415661
6.96895e-05
0.000339671
-2.79795e-05
0.000268075
-7.08149e-05
0.000213862
-8.19592e-05
0.000176392
-8.26446e-05
0.000150236
-8.10744e-05
0.000131028
-7.92306e-05
0.000116147
-7.77416e-05
0.000104031
-7.68516e-05
9.3695e-05
-7.65545e-05
8.44326e-05
-7.67738e-05
7.57562e-05
-7.73622e-05
6.73618e-05
-7.81395e-05
-7.87274e-05
5.91579e-05
5.32294e-06
2.1511e-05
2.04075e-05
2.39821e-05
7.6843e-05
5.68336e-05
0.000166345
0.00016904
0.000268888
0.000324207
0.000356325
0.000424669
0.000409401
0.00042416
0.000424455
0.000342163
0.000408144
0.000224319
0.000366225
0.000111609
0.000307765
3.04813e-05
0.000252216
-1.52665e-05
0.000208173
-3.79159e-05
0.000175347
-4.98184e-05
0.000150655
-5.63828e-05
0.000131576
-6.01511e-05
0.00011635
-6.25158e-05
0.000103797
-6.4298e-05
9.30882e-05
-6.58461e-05
8.36045e-05
-6.72902e-05
7.49189e-05
-6.86765e-05
6.674e-05
-6.99607e-05
-7.09379e-05
5.89505e-05
-1.51127e-05
3.66238e-05
-3.56134e-05
4.44829e-05
-3.50459e-05
5.62661e-05
8.84447e-06
0.000125149
9.24643e-05
0.000240587
0.000184283
0.00033285
0.000258336
0.000350107
0.000302004
0.000298495
0.000312171
0.000214151
0.000294132
0.000129648
0.000260128
6.4486e-05
0.000223851
2.101e-05
0.000192628
-6.6922e-06
0.000166709
-2.38994e-05
0.00014556
-3.52347e-05
0.000128249
-4.28401e-05
0.000113908
-4.81743e-05
0.00010178
-5.21697e-05
9.12799e-05
-5.53461e-05
8.1955e-05
-5.79653e-05
7.34657e-05
-6.01872e-05
6.55803e-05
-6.20753e-05
-6.35482e-05
5.81907e-05
-1.98124e-05
5.64363e-05
-5.17768e-05
7.64475e-05
-7.51706e-05
7.96602e-05
-6.63601e-05
0.000116339
-1.18735e-05
0.0001861
6.75845e-05
0.000253392
0.000144901
0.00027279
0.000200312
0.000243084
0.000227045
0.000187419
0.000228241
0.000128451
0.000214049
7.86778e-05
0.000193881
4.11777e-05
0.000172898
1.42914e-05
0.000153852
-4.85329e-06
0.000136872
-1.82545e-05
0.000122146
-2.81142e-05
0.000109376
-3.5404e-05
9.82325e-05
-4.10262e-05
8.83677e-05
-4.54813e-05
7.95019e-05
-4.90995e-05
7.14032e-05
-5.20886e-05
6.3904e-05
-5.45762e-05
-5.65564e-05
5.69123e-05
-1.46868e-05
7.11232e-05
-3.88637e-05
0.000100624
-5.99365e-05
0.000100733
-6.23845e-05
0.000118787
-3.28564e-05
0.000156572
2.49901e-05
0.000195546
8.90587e-05
0.000208722
0.00013969
0.000192453
0.000168981
0.000158128
0.000178951
0.000118481
0.000175894
8.17352e-05
0.000165846
5.1226e-05
0.000152893
2.72443e-05
0.000139226
8.81381e-06
0.000126271
-5.2991e-06
0.00011424
-1.60837e-05
0.000103329
-2.44922e-05
9.34555e-05
-3.1153e-05
8.44968e-05
-3.65226e-05
7.63124e-05
-4.09152e-05
6.87703e-05
-4.45465e-05
6.17679e-05
-4.75738e-05
-5.0032e-05
5.52435e-05
-8.72279e-06
7.98461e-05
-2.10967e-05
0.000112998
-3.09767e-05
0.000110613
-3.0148e-05
0.000117958
-1.07862e-05
0.00013721
2.68384e-05
0.000157921
7.05852e-05
0.000164975
0.000107569
0.000155469
0.000131874
0.000133823
0.000143559
0.000106796
0.000145603
7.96916e-05
0.000141441
5.53877e-05
0.000133823
3.48627e-05
0.000124594
1.80428e-05
0.000114858
4.43673e-06
0.000105387
-6.61237e-06
9.63212e-05
-1.54267e-05
8.78187e-05
-2.26505e-05
7.98926e-05
-2.85966e-05
7.25168e-05
-3.35394e-05
6.56403e-05
-3.76701e-05
5.92104e-05
-4.11438e-05
-4.40162e-05
5.31946e-05
-4.85925e-06
8.47054e-05
-8.66429e-06
0.000116803
-9.94577e-06
0.000111894
-4.75905e-06
0.000112771
9.69282e-06
0.000122759
3.43263e-05
0.000133287
6.27068e-05
0.000136594
8.81832e-05
0.000129992
0.000106774
0.000115233
0.000117583
9.59866e-05
0.000121662
7.56125e-05
0.000120774
5.62754e-05
0.000116634
3.90036e-05
0.000110586
2.40903e-05
0.000103572
1.14512e-05
9.61417e-05
8.17681e-07
8.8798e-05
-8.08305e-06
8.1649e-05
-1.55015e-05
7.47883e-05
-2.17359e-05
6.82713e-05
-2.70224e-05
6.21092e-05
-3.15079e-05
5.62916e-05
-3.53262e-05
-3.85374e-05
5.08128e-05
-2.39885e-06
8.71042e-05
-1.48185e-06
0.000115886
1.56696e-06
0.000108846
8.26113e-06
0.000106077
2.02796e-05
0.00011074
3.724e-05
0.000116327
5.64504e-05
0.000117384
7.44485e-05
0.000111994
8.8642e-05
0.00010104
9.79688e-05
8.66598e-05
0.000102621
7.09603e-05
0.000103457
5.54388e-05
0.000101504
4.09567e-05
9.76786e-05
2.7916e-05
9.26947e-05
1.64351e-05
8.70462e-05
6.46604e-06
8.11848e-05
-2.22173e-06
7.52318e-05
-9.54861e-06
6.93957e-05
-1.58998e-05
6.37263e-05
-2.1353e-05
5.82839e-05
-2.60655e-05
5.30903e-05
-3.01325e-05
-3.36118e-05
4.81648e-05
-5.74682e-07
8.76789e-05
2.7715e-06
0.00011254
7.79802e-06
0.000103819
1.47578e-05
9.91173e-05
2.44589e-05
0.000101039
3.68689e-05
0.000103917
5.06847e-05
0.000103568
6.39425e-05
9.87367e-05
7.49345e-05
9.00475e-05
8.27565e-05
7.88378e-05
8.7301e-05
6.64157e-05
8.89643e-05
5.37756e-05
8.83415e-05
4.15795e-05
8.60342e-05
3.02233e-05
8.25648e-05
1.99045e-05
7.8352e-05
1.06787e-05
7.36307e-05
2.49946e-06
6.88109e-05
-4.72889e-06
6.38811e-05
-1.097e-05
5.90215e-05
-1.64934e-05
5.42752e-05
-2.13192e-05
4.97018e-05
-2.55591e-05
-2.92482e-05
4.53381e-05
7.37914e-07
8.6941e-05
5.32066e-06
0.000107958
1.1087e-05
9.80529e-05
1.76318e-05
9.25725e-05
2.55463e-05
9.31247e-05
3.50449e-05
9.44186e-05
4.54487e-05
9.31644e-05
5.55367e-05
8.86487e-05
6.41625e-05
8.14217e-05
7.06426e-05
7.23576e-05
7.47939e-05
6.22643e-05
7.67795e-05
5.179e-05
7.6933e-05
4.1426e-05
7.56378e-05
3.15185e-05
7.32602e-05
2.22821e-05
7.01161e-05
1.38227e-05
6.64475e-05
6.1679e-06
6.25023e-05
-7.83679e-07
5.84107e-05
-6.87851e-06
5.42718e-05
-1.23546e-05
5.0192e-05
-1.72395e-05
4.62182e-05
-2.15853e-05
-2.54377e-05
4.24077e-05
1.6595e-06
8.52815e-05
6.77269e-06
0.000102844
1.25917e-05
9.2234e-05
1.85009e-05
8.66633e-05
2.50534e-05
8.65723e-05
3.2576e-05
8.68961e-05
4.0678e-05
8.50623e-05
4.85466e-05
8.07801e-05
5.54019e-05
7.45664e-05
6.07526e-05
6.7007e-05
6.44205e-05
5.85964e-05
6.64545e-05
4.9756e-05
6.70343e-05
4.08462e-05
6.63991e-05
3.21537e-05
6.48017e-05
2.38794e-05
6.2481e-05
1.61434e-05
5.96485e-05
9.00037e-06
5.64148e-05
2.45001e-06
5.30584e-05
-3.52222e-06
4.95915e-05
-8.8877e-06
4.61073e-05
-1.37553e-05
4.2688e-05
-1.81661e-05
-2.21295e-05
3.93796e-05
2.25392e-06
8.30276e-05
7.4523e-06
9.76459e-05
1.29642e-05
8.67221e-05
1.81929e-05
8.14347e-05
2.36952e-05
8.107e-05
2.98153e-05
8.07761e-05
3.62923e-05
7.85853e-05
4.25559e-05
7.45166e-05
4.80713e-05
6.9051e-05
5.24952e-05
6.25832e-05
5.56793e-05
5.54123e-05
5.76202e-05
4.78151e-05
5.84089e-05
4.00574e-05
5.81928e-05
3.23698e-05
5.71443e-05
2.49278e-05
5.54388e-05
1.78488e-05
5.32384e-05
1.12008e-05
5.0674e-05
5.01431e-06
4.7885e-05
-7.33244e-07
4.49815e-05
-5.98429e-06
4.20202e-05
-1.07941e-05
3.90605e-05
-1.52065e-05
-1.92204e-05
3.61514e-05
2.62218e-06
8.04054e-05
7.61676e-06
9.26513e-05
1.26369e-05
8.1702e-05
1.72072e-05
7.68644e-05
2.18799e-05
7.63974e-05
2.69599e-05
7.56961e-05
3.22414e-05
7.33038e-05
3.73083e-05
6.94498e-05
4.17932e-05
6.45663e-05
4.54611e-05
5.89153e-05
4.8197e-05
5.26764e-05
4.99757e-05
4.60363e-05
5.08394e-05
3.91937e-05
5.08772e-05
3.23319e-05
5.02059e-05
2.5599e-05
4.89524e-05
1.91023e-05
4.72405e-05
1.29127e-05
4.51838e-05
7.07104e-06
4.28586e-05
1.5919e-06
4.03894e-05
-3.51514e-06
3.78268e-05
-8.23149e-06
3.52007e-05
-1.25805e-05
-1.6577e-05
3.25573e-05
2.83257e-06
7.75728e-05
7.46063e-06
8.80233e-05
1.19031e-05
7.72595e-05
1.5857e-05
7.29104e-05
1.98516e-05
7.24027e-05
2.41236e-05
7.14241e-05
2.84876e-05
6.89399e-05
3.26322e-05
6.53053e-05
3.63065e-05
6.0892e-05
3.93523e-05
5.58694e-05
4.16829e-05
5.03457e-05
4.32666e-05
4.44526e-05
4.41182e-05
3.8342e-05
4.42902e-05
3.21598e-05
4.38599e-05
2.60293e-05
4.29161e-05
2.00461e-05
4.1549e-05
1.42797e-05
3.98422e-05
8.77789e-06
3.7863e-05
3.57102e-06
3.57044e-05
-1.35658e-06
3.33897e-05
-5.91681e-06
3.09785e-05
-1.01693e-05
-1.41017e-05
2.85031e-05
2.92503e-06
7.46478e-05
7.1163e-06
8.3832e-05
1.09551e-05
7.34207e-05
1.43348e-05
6.95308e-05
1.77515e-05
6.8986e-05
2.13631e-05
6.78125e-05
2.49907e-05
6.53124e-05
2.83976e-05
6.18985e-05
3.14142e-05
5.78754e-05
3.39356e-05
5.3348e-05
3.58967e-05
4.83845e-05
3.72647e-05
4.30844e-05
3.80398e-05
3.75669e-05
3.82503e-05
3.19493e-05
3.7945e-05
2.63346e-05
3.71839e-05
2.08072e-05
3.60304e-05
1.54332e-05
3.45467e-05
1.02616e-05