/*--------------------------------*- C++ -*----------------------------------*\
| =========                 |                                                 |
| \\      /  F ield         | OpenFOAM: The Open Source CFD Toolbox           |
|  \\    /   O peration     | Version:  2012                                  |
|   \\  /    A nd           | Website:  www.openfoam.com                      |
|    \\/     M anipulation  |                                                 |
\*---------------------------------------------------------------------------*/
FoamFile
{
    version     2.0;
    format      ascii;
    class       volScalarField;
    location    "0.69";
    object      maxKappa;
}
// * * * * * * * * * * * * * * * * * * * * * * * * * * * * * * * * * * * * * //

dimensions      [0 0 0 0 0 0 0];


internalField   nonuniform List<scalar> 
2268
(
1.68102e-07
2.77169e-07
4.59461e-07
7.58581e-07
1.12294e-06
1.42994e-06
1.76436e-06
2.22887e-06
2.66949e-06
3.10273e-06
3.5253e-06
3.90465e-06
4.15095e-06
4.27402e-06
4.30345e-06
4.30345e-06
4.28259e-06
4.15967e-06
3.89315e-06
3.47663e-06
2.77651e-06
2.0142e-06
9.72655e-07
2.20949e-07
3.16998e-07
5.06827e-07
7.98384e-07
1.14131e-06
1.44137e-06
1.78791e-06
2.25186e-06
2.6707e-06
3.10582e-06
3.5415e-06
3.91004e-06
4.16124e-06
4.30034e-06
4.33684e-06
4.33684e-06
4.3112e-06
4.18213e-06
3.92983e-06
3.56267e-06
2.96407e-06
2.39666e-06
1.46121e-06
2.27653e-07
3.03635e-07
4.92075e-07
7.71938e-07
1.10014e-06
1.41993e-06
1.81873e-06
2.31156e-06
2.74912e-06
3.19531e-06
3.61524e-06
3.95806e-06
4.18897e-06
4.3308e-06
4.37382e-06
4.37382e-06
4.35251e-06
4.21249e-06
3.95524e-06
3.59573e-06
3.01734e-06
2.52679e-06
1.69771e-06
3.11301e-07
3.73638e-07
5.98818e-07
8.87842e-07
1.17826e-06
1.47897e-06
1.89331e-06
2.35559e-06
2.76341e-06
3.20888e-06
3.63581e-06
4.00643e-06
4.27829e-06
4.44268e-06
4.47615e-06
4.47615e-06
4.44024e-06
4.30821e-06
4.0886e-06
3.78874e-06
3.2793e-06
2.8928e-06
2.18884e-06
3.00733e-07
3.48753e-07
5.74261e-07
8.48291e-07
1.11401e-06
1.44629e-06
1.93912e-06
2.45012e-06
2.90755e-06
3.37973e-06
3.78493e-06
4.12356e-06
4.35324e-06
4.49482e-06
4.52704e-06
4.52704e-06
4.52043e-06
4.40436e-06
4.22316e-06
3.98317e-06
3.59063e-06
3.39313e-06
2.70324e-06
3.81869e-07
4.47446e-07
7.12573e-07
1.01268e-06
1.26767e-06
1.59674e-06
2.07833e-06
2.51307e-06
2.91479e-06
3.39333e-06
3.83211e-06
4.2317e-06
4.52659e-06
4.67729e-06
4.6792e-06
4.6792e-06
4.6585e-06
4.56127e-06
4.42004e-06
4.23536e-06
4.00976e-06
4.00976e-06
3.27111e-06
3.80948e-07
4.42263e-07
6.73949e-07
9.33085e-07
1.1663e-06
1.54389e-06
2.10255e-06
2.63032e-06
3.14519e-06
3.66248e-06
4.06522e-06
4.4102e-06
4.63642e-06
4.74427e-06
4.74427e-06
4.78284e-06
4.78284e-06
4.72307e-06
4.64654e-06
4.52785e-06
4.86255e-06
4.86255e-06
4.0126e-06
1.19139e-06
1.29204e-06
1.37404e-06
1.30431e-06
1.3821e-06
1.80222e-06
2.31939e-06
2.75947e-06
3.20377e-06
3.6749e-06
4.12218e-06
4.5903e-06
4.89868e-06
4.9773e-06
4.9773e-06
4.93424e-06
4.93424e-06
4.90572e-06
4.85559e-06
4.90182e-06
5.76634e-06
5.76634e-06
5.06079e-06
0.000294665
0.000552021
0.000628207
0.000641678
0.000641678
0.000452086
0.000230874
0.000195554
0.000295559
0.000353112
0.000355445
0.000360964
0.000360964
0.000358326
0.000353058
0.000351301
0.000347998
0.000309849
0.000219841
0.000218517
0.00025958
0.00030412
0.000412618
0.000412618
0.000229295
0.000152568
0.000183274
0.000240595
0.000389223
0.000505923
0.00057195
0.00057195
0.000561306
0.000459203
0.000372816
0.000337509
0.000263772
0.000210989
0.000235394
0.000286137
0.000361364
0.000361364
0.000320886
0.000225052
8.94531e-05
0.000244886
0.000491413
0.000639028
0.000890929
0.00126936
0.00141447
0.00141447
0.00136973
0.00122089
0.00110247
0.000748819
0.000493865
0.000285454
0.000693182
0.00101785
0.00106713
0.00106713
0.000649822
0.000127724
7.1837e-05
0.000412494
0.000540939
0.000540939
0.000489267
0.000381122
0.000827379
0.00131479
0.00161988
0.00161988
0.00138382
0.00109355
0.000468875
0.000745319
0.00101623
0.00101623
0.000857339
0.000511104
0.000177738
2.81181e-05
6.52655e-05
0.000242607
0.000530991
0.000922574
0.0011823
0.0011823
0.00099585
0.00079486
0.000794218
0.000884871
0.000884871
0.000608954
0.00100944
0.00100944
0.00061062
0.000308144
0.000308144
6.62404e-05
3.04155e-05
3.95047e-05
4.84377e-05
6.22808e-05
0.000123679
0.000366364
0.000753487
0.00117143
0.00131052
0.00131052
0.00106069
0.000466745
0.000494031
0.000836117
0.000836117
0.000608067
0.00059925
0.00032979
5.6626e-05
3.29605e-05
4.23505e-05
4.93548e-05
5.25308e-05
5.62282e-05
5.93811e-05
7.73083e-05
0.000223871
0.000464892
0.000590734
0.000590734
0.000406938
0.00051897
0.000961288
0.000961288
0.000737192
0.000483173
0.000136481
4.70313e-05
0.000114239
0.000238547
0.000338578
0.000338578
0.000319072
0.000244865
0.000169063
0.000120363
0.000111698
0.000132702
0.000302126
0.000302126
1.46913e-05
3.29331e-05
5.3887e-05
7.88592e-05
8.35622e-05
6.19527e-05
4.68201e-05
3.61368e-05
2.43063e-05
1.09687e-05
9.71989e-06
8.33293e-06
6.59888e-06
5.10159e-06
5.0461e-06
5.09337e-06
5.51508e-06
5.30169e-06
5.64913e-06
5.84751e-06
7.53162e-06
9.50545e-06
1.36241e-05
5.97169e-05
8.76523e-05
0.000142989
0.000185033
0.000185033
0.000170701
0.000133693
0.000133598
0.000128606
0.000125203
0.000104732
7.92682e-05
5.36809e-05
1.83858e-05
1.20694e-05
8.65419e-06
7.13103e-06
5.74253e-06
6.0596e-06
7.16462e-06
9.0922e-06
1.26426e-05
1.39128e-05
9.51574e-05
0.000110252
0.000126619
0.000144297
0.000140834
0.000136579
0.000160844
0.00018384
0.000214751
0.000261043
0.00028164
0.000277454
0.000268371
0.000225518
0.000160487
0.000114877
9.26136e-05
4.45361e-05
1.96522e-05
1.01158e-05
1.18995e-05
8.51902e-06
1.2844e-05
8.60762e-05
8.89503e-05
9.89988e-05
9.13326e-05
0.000101003
0.000150174
0.000190726
0.000230948
0.000279548
0.000335704
0.000371253
0.000394544
0.000441265
0.000473853
0.000490484
0.000468892
0.000501066
0.000520904
0.000565434
0.000450005
0.000308298
0.000103951
2.95432e-05
0.000111822
0.000116023
0.000120838
0.000129588
0.000153686
0.000177822
0.000210117
0.000252843
0.000291056
0.000334681
0.000399953
0.000473672
0.000550754
0.000661857
0.00082696
0.000947376
0.00118906
0.00143896
0.00161311
0.00162414
0.00130082
0.000877544
0.000574802
0.000126624
0.000128948
0.000137137
0.000142646
0.000166474
0.000200322
0.000232986
0.000269757
0.00031598
0.000374069
0.000446993
0.000536104
0.00065492
0.000844852
0.00108338
0.00140001
0.00178942
0.00204907
0.00207658
0.00216184
0.00203725
0.00160727
0.00139981
0.000148701
0.000151299
0.000159036
0.000167624
0.000188405
0.000211477
0.000237153
0.00026747
0.000304952
0.000350982
0.000402333
0.000465165
0.000559292
0.000720855
0.00100411
0.00133699
0.00157731
0.001843
0.00193067
0.00216184
0.00190644
0.00171666
0.00167631
0.000166013
0.00016867
0.000176231
0.000184357
0.000202395
0.000226434
0.000253509
0.00028503
0.000322696
0.00036686
0.000417949
0.000479026
0.000568156
0.000702402
0.000865832
0.00107325
0.00129328
0.00137621
0.00142993
0.00187773
0.00172086
0.00155676
0.00156041
0.00018472
0.000187024
0.000193547
0.000201443
0.00021753
0.000236336
0.000258676
0.000285481
0.000318519
0.000358538
0.000407046
0.000464963
0.000544537
0.000657282
0.000798249
0.000921075
0.00102677
0.00096277
0.000837039
0.00124697
0.00140648
0.00135989
0.00132572
0.000199781
0.000202042
0.000208292
0.000215861
0.000229369
0.000247454
0.000269211
0.00029474
0.000325301
0.000360194
0.000400736
0.000447276
0.00050538
0.000578735
0.000672493
0.000796423
0.00088113
0.000823674
0.000658827
0.000625375
0.00103618
0.00119479
0.00121347
0.000214232
0.000216323
0.000222033
0.000228817
0.000240965
0.000255766
0.000274036
0.000295616
0.000322051
0.000352988
0.00038901
0.000430656
0.000479949
0.000539126
0.000607985
0.000681224
0.00074633
0.000759573
0.000660467
0.00053592
0.00055416
0.000899867
0.00113367
0.000226377
0.000228324
0.00023322
0.000239112
0.00024928
0.000262736
0.000279451
0.000298827
0.000321783
0.000348003
0.000377362
0.000409521
0.000446019
0.000488773
0.000540618
0.000604367
0.000654224
0.000691578
0.000650904
0.00062769
0.000636667
0.000537156
0.000818798
0.000237126
0.000238753
0.000242941
0.000248097
0.000256719
0.000267664
0.000281351
0.000297224
0.000316003
0.000337865
0.000362806
0.000390919
0.000422456
0.000456461
0.000492726
0.00053786
0.000575624
0.000618476
0.000622798
0.000644941
0.000671823
0.00069443
0.000612609
0.000246092
0.00024735
0.0002507
0.000255049
0.000262393
0.000271787
0.000283532
0.000296965
0.000312369
0.000329803
0.000349368
0.000370869
0.000395108
0.000425855
0.000454784
0.000491082
0.000519625
0.000554677
0.000577389
0.000617331
0.000680021
0.000700918
0.000700918
0.000253694
0.00025471
0.000257474
0.000261146
0.000266063
0.000273234
0.000282195
0.000292504
0.000304283
0.00031789
0.000333355
0.000352752
0.000371301
0.00039638
0.000418203
0.00044761
0.000472116
0.000502703
0.000529013
0.000559549
0.000608995
0.000676591
0.000671235
0.000260122
0.000260818
0.000262895
0.000265753
0.000270195
0.000275786
0.000282859
0.000290783
0.000299703
0.000309753
0.000321042
0.000336484
0.000349766
0.000369706
0.00038629
0.000409896
0.000430482
0.000455952
0.000481848
0.000510463
0.00054545
0.000603596
0.000631689
0.000265657
0.000266079
0.00026763
0.000269824
0.000271567
0.000275956
0.000278812
0.000286192
0.000290847
0.000300929
0.000307541
0.000319693
0.00032809
0.000342977
0.000355039
0.000373522
0.000391337
0.000413906
0.000438006
0.00046656
0.000494714
0.000536539
0.000574568
0.000270688
0.000270794
0.000271799
0.000273168
0.000274425
0.000276592
0.000279657
0.000283629
0.000285457
0.00029238
0.000294799
0.000303021
0.000307275
0.000317431
0.000325779
0.000339343
0.000354055
0.000373472
0.000395641
0.000423542
0.000450683
0.0004843
0.000520129
0.000275471
0.000275287
0.00027581
0.000276449
0.000275899
0.000277322
0.000275897
0.000280211
0.00027864
0.000283235
0.000281831
0.000286258
0.000286473
0.000292153
0.000296759
0.000306319
0.000318335
0.000335859
0.000356725
0.000384752
0.000414193
0.000446366
0.000486535
0.000280753
0.000280362
0.000280343
0.00028019
0.000278557
0.000278295
0.000276419
0.000277076
0.000273612
0.000274558
0.000269574
0.000270094
0.000266211
0.000267437
0.000268006
0.000273596
0.000282633
0.000298321
0.000318514
0.000346626
0.000378755
0.000417428
0.000455406
0.000286589
0.000286131
0.000285419
0.000284525
0.000281951
0.000280187
0.00027479
0.000273906
0.000267176
0.000265484
0.000257092
0.000253753
0.000245626
0.000242643
0.000238712
0.000240685
0.000246856
0.00026137
0.000282
0.000311486
0.000349367
0.000393862
0.000431286
0.000294004
0.000293589
0.000292164
0.000290677
0.000287281
0.000284024
0.000278754
0.000274042
0.000267371
0.000259432
0.000249632
0.000239067
0.000226091
0.000218209
0.000208645
0.000206273
0.000209145
0.000222708
0.000244881
0.000281141
0.000325615
0.000375204
0.000412546
0.000303316
0.000302981
0.000300932
0.000298951
0.000294776
0.000290265
0.000282627
0.000275329
0.000263145
0.000252615
0.000238068
0.000225315
0.000206983
0.000193478
0.000176938
0.000168708
0.000166938
0.000179541
0.000204536
0.000245669
0.000298655
0.000357013
0.000397217
0.000315248
0.000314969
0.000312551
0.000310336
0.000305752
0.000300621
0.000292573
0.000283974
0.000272655
0.000260487
0.000244931
0.000226332
0.000204123
0.000178821
0.00015106
0.00012973
0.000119052
0.000129565
0.000160714
0.000214289
0.00027577
0.000342125
0.000384422
0.000330094
0.00032983
0.000327387
0.000325148
0.000320505
0.000315188
0.000307096
0.000297981
0.000284575
0.000270646
0.00025022
0.00022989
0.000201013
0.000172654
0.000139697
0.000102425
6.76448e-05
6.77518e-05
0.000111701
0.000175962
0.000245818
0.000319975
0.000369121
0.000348106
0.000347871
0.000345701
0.000343684
0.000339421
0.000334514
0.000327056
0.000318474
0.00030616
0.000292869
0.000273822
0.000254272
0.000227762
0.000201134
0.00016709
0.000135933
0.000100301
8.55736e-05
0.000109679
0.00017072
0.000241794
0.000319208
0.000366812
0.00036943
0.000369293
0.00036757
0.000365928
0.000362294
0.000358081
0.000351577
0.000343988
0.000333207
0.000321404
0.000305027
0.000288277
0.000266257
0.000244773
0.000218326
0.00019611
0.000174809
0.000169546
0.000181392
0.000216657
0.000264639
0.000336334
0.000396583
0.000393905
0.000393957
0.000392825
0.000391769
0.000389056
0.00038591
0.000380819
0.000374823
0.000366255
0.000356753
0.000343784
0.000330528
0.000313667
0.000297919
0.000280408
0.000267964
0.000258726
0.000263714
0.000279727
0.000310765
0.000347753
0.000403466
0.000456821
0.000421896
0.000422136
0.00042156
0.000421119
0.000419371
0.000417368
0.000413751
0.000409445
0.0004031
0.000396057
0.000386787
0.000377781
0.000367287
0.000358753
0.00035112
0.000349028
0.0003545
0.000374411
0.000400243
0.000428203
0.00046065
0.000506324
0.000552389
0.000452473
0.000453057
0.000453254
0.000453729
0.000453203
0.000452652
0.000450821
0.000448659
0.000445118
0.000441399
0.000436699
0.000432688
0.000428981
0.000428299
0.000433272
0.000448084
0.000473651
0.000503739
0.000523468
0.000547376
0.000579357
0.000622148
0.000667955
0.000486809
0.000487641
0.000488369
0.000489563
0.00049013
0.000491045
0.000491091
0.000491297
0.000490757
0.000490663
0.000490727
0.000492741
0.000497983
0.000509387
0.000531471
0.000566667
0.00060618
0.000621627
0.000626811
0.000650227
0.000686163
0.000732213
0.00078166
0.000522606
0.000523881
0.000525526
0.000528032
0.000530295
0.000533262
0.000535742
0.000538958
0.000542108
0.000546732
0.000553139
0.000563884
0.000581134
0.000609643
0.000651704
0.000694139
0.000707618
0.000693883
0.00070581
0.000735911
0.000780154
0.000831702
0.000889052
0.000562395
0.00056407
0.000566501
0.000570088
0.000573641
0.000578368
0.000583163
0.000589428
0.000596542
0.000606491
0.000619953
0.000640406
0.000671084
0.000716664
0.000768181
0.000788616
0.000758739
0.000747309
0.000771029
0.000808045
0.000859524
0.000918973
0.000986378
0.000602445
0.000604542
0.000607824
0.000612807
0.000618394
0.000625977
0.000634422
0.000645288
0.00065785
0.000674724
0.000697221
0.000729815
0.000774715
0.000828023
0.000858098
0.000825135
0.000786886
0.000794488
0.00081899
0.00086482
0.000923313
0.000993811
0.00107305
0.000645965
0.000648666
0.000653177
0.000660109
0.000668301
0.000678813
0.000690355
0.000704657
0.000721731
0.0007448
0.000775993
0.000819641
0.000873344
0.000919546
0.000905259
0.000859157
0.000810903
0.000823119
0.000858804
0.000915528
0.00098526
0.00106679
0.00114897
0.000689115
0.000692259
0.000697646
0.000705893
0.000715829
0.000728729
0.000743501
0.000762269
0.000785386
0.00081571
0.000855329
0.000906629
0.000959419
0.000979054
0.00092686
0.000867728
0.00082568
0.000842512
0.00088919
0.000955698
0.0010373
0.00113096
0.00121443
0.000733684
0.000737667
0.000744856
0.000755866
0.000769288
0.000786312
0.000805917
0.000830073
0.000858708
0.00089446
0.000941099
0.000995856
0.00103808
0.00100917
0.00095034
0.000867208
0.000828716
0.000857901
0.000914439
0.000990118
0.00108243
0.00118603
0.00126963
0.000777845
0.000782365
0.000790702
0.00080342
0.000818824
0.000838315
0.000861177
0.000889713
0.000924427
0.000968248
0.00102557
0.0010807
0.00110088
0.00103649
0.00094221
0.000847431
0.000821631
0.000859003
0.000927331
0.00101508
0.0011182
0.00123194
0.00131393
0.000819818
0.00082555
0.000836241
0.000852181
0.000871653
0.000896312
0.00092512
0.000960737
0.00100336
0.00105564
0.00111427
0.00115389
0.00113125
0.00106387
0.00093613
0.000841036
0.000815873
0.000864534
0.000939743
0.00103522
0.00114567
0.00126704
0.00135221
0.000859483
0.000865853
0.000877808
0.000895637
0.000921399
0.000952653
0.000988734
0.00103049
0.00107886
0.00113024
0.00118179
0.00120922
0.00115256
0.00104431
0.000890439
0.000799775
0.000796822
0.000862311
0.000951528
0.00105765
0.00117593
0.00130338
0.00138074
0.000895975
0.00090309
0.000916441
0.000936743
0.000963581
0.000998882
0.00104088
0.00109119
0.00114777
0.00121119
0.00126414
0.00127159
0.0011967
0.00106906
0.000899477
0.000794355
0.000791401
0.000860934
0.000954808
0.00106563
0.00118841
0.00132012
0.00141321
0.00092133
0.000933456
0.000953552
0.000981852
0.00101909
0.00106534
0.0011203
0.00118221
0.00124634
0.00130002
0.00131302
0.00131302
0.00122849
0.00102543
0.000823345
0.000742867
0.000782536
0.000871195
0.000979008
0.00109905
0.00122872
0.00136513
0.00141321
1.31048e-05
7.61403e-05
0.000279433
0.00049526
2.54309e-05
0.000170528
0.000386307
0.000631299
1.6475e-05
8.24437e-05
0.000386307
0.000601716
2.37856e-05
2.22273e-05
5.52607e-05
0.000172869
0.000347733
0.000255477
0.000177126
0.000110619
0.00116695
0.000982165
0.000719352
0.000523708
0.00153124
0.00147072
0.0011515
0.000804239
0.00153124
0.00147072
0.0011515
0.000848363
0.000740204
0.000727944
0.00068004
0.000636499
0.00119474
0.00104043
0.000659552
0.000592004
0.00119474
0.00112272
0.00111145
0.00109904
0.00103124
0.00112272
0.00111145
0.00109904
0.000681333
0.000749129
0.00089655
0.000975611
0.000671837
0.000618912
0.000577342
0.000590461
0.000671837
0.000618912
0.000578256
0.000558632
0.000627224
0.000610904
0.000578256
0.00056168
0.00058612
0.000589195
0.000576256
0.00056168
0.000533602
0.000546326
0.000549943
0.000555795
0.000504465
0.000519144
0.000531129
0.000542892
0.000481579
0.000498871
0.000517049
0.000534703
0.000464083
0.000485092
0.000506555
0.000528827
0.000451209
0.00047616
0.000501346
0.000527577
0.000441209
0.000469589
0.000499602
0.000532216
0.000434384
0.00046644
0.000499602
0.000533091
0.000424631
0.000460011
0.000497189
0.000535318
0.00042453
0.000462178
0.000502491
0.000541281
0.000446623
0.000480807
0.000518545
0.000554945
0.00049564
0.000524229
0.000557265
0.000587699
0.000584089
0.000606887
0.000634776
0.000657425
0.00069834
0.000718122
0.000742307
0.00076162
0.000814934
0.0008365
0.000860873
0.000883687
0.000928906
0.000955545
0.000983181
0.00101183
0.00103495
0.00106762
0.00110022
0.00113414
0.00113213
0.00117111
0.00120954
0.00124819
0.00121833
0.00126291
0.00130683
0.00134941
0.00129252
0.00134195
0.00139079
0.00143716
0.0013555
0.00140907
0.00146234
0.00151246
0.00140713
0.00146425
0.00152124
0.00157473
0.00145112
0.00151117
0.00157106
0.00162743
0.00148358
0.00154598
0.00160808
0.00166682
0.00151884
0.00158303
0.0016465
0.0017069
0.00151884
0.00158303
0.0016465
0.0017069
0.000780814
0.000666486
0.000638344
0.000434665
0.000178869
9.22618e-05
0.000321517
0.00055282
0.000728799
0.000879102
0.000991262
0.00105166
0.00106222
0.00106222
0.00104081
0.000923866
0.000505177
0.000367962
0.000254926
0.000780814
0.000747659
0.000376744
0.000170624
4.41224e-05
0.000278364
0.000679462
0.000679462
0.000587088
0.000593767
0.000752413
0.000915023
0.00105443
0.00112338
0.00112338
0.00100293
0.000987634
0.000728547
0.000344199
0.000722293
0.00030717
6.94367e-05
2.85576e-05
8.13661e-05
0.000620364
0.000628296
0.000776348
0.000921986
0.000982286
0.000920055
0.000884385
0.000915945
0.000901722
0.00109978
0.00138037
0.0013427
0.000983236
0.0003539
0.000158622
3.29832e-05
2.43029e-05
0.000123852
0.000474325
0.000699898
0.0010107
0.00131963
0.00150165
0.00159712
0.00168418
0.00173754
0.00175826
0.00183252
0.0019207
0.0019207
0.00173202
0.000968468
0.000378907
8.25421e-05
0.000113997
0.000160144
0.000458756
0.000741448
0.00117409
0.00160272
0.0016855
0.00169226
0.001709
0.00180585
0.00195703
0.00196608
0.00196608
0.0018721
0.00154439
0.00120145
0.000931671
0.000435513
0.000428401
0.000485431
0.000618454
0.000832515
0.00139009
0.0018367
0.00188563
0.00188563
0.00184335
0.00169212
0.00150706
0.00151307
0.00152749
0.00135828
0.00114602
0.000729497
0.000600667
0.000701046
0.000401167
0.000710071
0.00105674
0.00113981
0.0014674
0.00179481
0.00180973
0.00180973
0.00161342
0.00128315
0.00112209
0.00103111
0.00105427
0.00105976
0.000864998
0.000716048
0.000602165
0.000571286
0.000678473
0.000393655
0.00121623
0.00143549
0.00155181
0.00155181
0.00151655
0.00153006
0.00141023
0.000902733
0.000705992
0.000687101
0.000562739
0.000510974
0.000641262
0.000720328
0.000827209
0.000827209
0.000627706
0.000575022
0.000303636
0.00113649
0.00136077
0.00145236
0.00145236
0.00126179
0.00121048
0.00071203
0.000445226
0.000457057
0.000464402
0.000445581
0.000429154
0.000486509
0.000505618
0.000530226
0.000564828
0.000584158
0.000584158
0.000302985
0.000543538
0.000562161
0.000793187
0.00110891
0.000979247
0.000651148
0.000192034
0.00031137
0.000205529
0.000226798
0.000379102
0.000347149
0.000286442
0.00018048
8.49929e-05
9.15074e-05
0.000338307
0.000428723
0.000269877
0.00085476
0.000534172
0.000393577
0.000409261
0.000526523
0.000333709
0.00025559
0.00018937
0.000244211
0.000280851
0.000307759
0.000265203
0.000147812
0.000157557
9.52261e-05
5.23318e-05
6.16449e-05
0.000168072
0.000141257
0.00106544
0.00106544
0.000806166
0.000457776
0.000351139
0.000306498
0.000297548
0.00041604
0.000556205
0.000576747
0.000601554
0.000473962
0.000778756
0.000775575
0.000613011
0.000104706
5.37928e-05
4.34191e-05
3.76039e-05
0.00106815
0.00106815
0.000994844
0.000914802
0.000889944
0.000771628
0.00072081
0.000626224
0.000709355
0.000729624
0.000880313
0.000994659
0.00123795
0.0012092
0.00122304
0.000538102
9.46196e-05
4.97585e-05
3.89068e-05
0.000516352
0.000657573
0.000643706
0.0006376
0.000674714
0.000847952
0.000936183
0.000936183
0.000968354
0.00111275
0.00136253
0.00154096
0.00160028
0.00174912
0.00171498
0.00126058
0.000481411
0.000131478
7.61607e-05
0.000501153
0.000489798
0.000279758
0.000330697
0.000616107
0.000863665
0.00102043
0.0010483
0.0010483
0.00119635
0.00149696
0.00162703
0.001779
0.00203804
0.00203804
0.00176729
0.00135615
0.000857474
0.000526969
0.000513884
0.000444552
0.000310285
0.000330125
0.000494507
0.000627673
0.000750485
0.000827461
0.0008212
0.000818455
0.000993734
0.00115659
0.0016032
0.00202938
0.00202938
0.00192176
0.00175115
0.0015521
0.00119316
0.000579386
0.000579386
0.000524899
0.000549502
0.000614126
0.000578977
0.000464166
0.000558834
0.000576046
0.000538261
0.000553685
0.000583224
0.00139403
0.00199174
0.00199174
0.00193704
0.00175124
0.00160322
0.0015775
0.000606208
0.000618737
0.000668695
0.000764005
0.000810067
0.000839225
0.000762027
0.000608636
0.000520998
0.000383359
0.000384623
0.000544988
0.00103506
0.00148407
0.00165792
0.00168706
0.0016724
0.00152331
0.00137757
0.000642917
0.000689564
0.000765918
0.00089226
0.00102587
0.00106732
0.00106732
0.0010197
0.000913062
0.000779536
0.000734376
0.000787736
0.000885801
0.00114726
0.00148493
0.00159973
0.00167516
0.00167516
0.00126684
0.000644525
0.000705161
0.000785526
0.000898276
0.00104148
0.00114201
0.00116581
0.00116581
0.00113779
0.00108065
0.00101861
0.000983127
0.000959709
0.00090169
0.00115261
0.00150853
0.00170045
0.00182453
0.0014065
0.000662244
0.000734089
0.000818272
0.000919207
0.00104252
0.00115257
0.00120836
0.00120987
0.00120987
0.00117873
0.00113111
0.0010732
0.00101101
0.000911792
0.00093567
0.0012982
0.00171522
0.00187177
0.00145172
0.000666514
0.000743221
0.000825809
0.000914761
0.00101456
0.00111062
0.00117602
0.00119761
0.00119761
0.00118559
0.001149
0.00109843
0.00101806
0.000907408
0.000803143
0.00115243
0.00167157
0.00187177
0.00146364
0.000684671
0.000769548
0.000855459
0.000942483
0.00102924
0.00110858
0.00117199
0.0011983
0.0011983
0.00118878
0.00115785
0.00110514
0.00102286
0.000912457
0.000765644
0.00101177
0.00148441
0.00163364
0.00137005
0.000701198
0.000792938
0.000882898
0.000970793
0.00105091
0.0011167
0.00117057
0.00119497
0.00119497
0.00118534
0.00115446
0.00110448
0.00102678
0.000928549
0.000795677
0.000886988
0.00135471
0.00153897
0.00153897
0.000710942
0.000812736
0.000912026
0.00100579
0.00109088
0.0011556
0.00119968
0.00122101
0.00122101
0.00121141
0.00117419
0.00111649
0.00103498
0.000939875
0.000818799
0.000769013
0.00117005
0.00152437
0.00152437
0.000725909
0.000835657
0.000942577
0.00104261
0.00113356
0.00120429
0.00124622
0.00126199
0.00126199
0.00125147
0.00121083
0.00114946
0.00106649
0.000973183
0.000855078
0.000698965
0.00105602
0.00153472
0.00153472
0.000732012
0.000845454
0.000957336
0.00106415
0.00116262
0.00124467
0.00129844
0.00131884
0.00131884
0.00131031
0.00126837
0.00120323
0.00111769
0.00102954
0.000913364
0.000751563
0.000854803
0.00162571
0.00162571
0.0007523
0.000867125
0.000981331
0.0010953
0.00120245
0.00129382
0.00135933
0.00138754
0.00138754
0.00138328
0.00134427
0.00127934
0.00119752
0.00111488
0.0010236
0.000898429
0.000850594
0.00159238
0.00162466
0.000782234
0.000883835
0.000985572
0.00109354
0.00120078
0.00130247
0.00139377
0.00145052
0.00146195
0.00146195
0.00143058
0.00136523
0.00128596
0.00120331
0.00112359
0.00100736
0.000852106
0.00134067
0.00155928
0.00087724
0.000961467
0.00103497
0.00111564
0.00120245
0.00129706
0.00139747
0.00148709
0.00153486
0.00153486
0.0015231
0.0014629
0.0013853
0.00129752
0.00121044
0.00107442
0.000880765
0.000950329
0.00139464
0.00100008
0.0010699
0.00111641
0.0011614
0.00120197
0.00126037
0.00134875
0.00146597
0.00157392
0.00161247
0.00161247
0.00156992
0.00149595
0.00140322
0.00131132
0.00116638
0.000964597
0.000735053
0.00124765
0.00114969
0.00121686
0.00125533
0.00127403
0.00127403
0.00127158
0.00131929
0.00141706
0.00155231
0.00165514
0.00165677
0.00165677
0.00159812
0.00150759
0.00141291
0.00127002
0.00107599
0.000658904
0.00118833
0.00129331
0.00136659
0.00140582
0.00140582
0.00139795
0.00133311
0.00127499
0.00133529
0.001493
0.00167182
0.00174345
0.00174345
0.00171462
0.00163491
0.00154341
0.00140519
0.00121797
0.000762653
0.0011471
0.00144037
0.00152273
0.00156657
0.00156657
0.00153683
0.00143349
0.00133092
0.00128324
0.00141372
0.00163139
0.00178065
0.00180134
0.00180134
0.00173749
0.00165503
0.00153014
0.00139086
0.000986581
0.00112847
0.00156691
0.00165325
0.0016997
0.0016997
0.00165053
0.00152402
0.00140394
0.00127988
0.00132015
0.00156814
0.00181063
0.00189936
0.00189936
0.00186445
0.00179503
0.00168545
0.00158045
0.00122651
0.00101849
0.00168318
0.00177683
0.00183019
0.00183019
0.00178035
0.00166471
0.00155871
0.00140957
0.00126228
0.00147743
0.00176927
0.00193476
0.00193645
0.00193645
0.00188153
0.00179357
0.00169781
0.00138878
0.00093623
0.00178111
0.00187879
0.0019341
0.0019341
0.00188976
0.0017941
0.0017028
0.00153484
0.00126651
0.0014038
0.00173929
0.00197176
0.00201743
0.00201743
0.00196702
0.00187469
0.00175521
0.00144562
0.000828707
0.00186945
0.0019725
0.002033
0.002033
0.00200537
0.00193542
0.00186762
0.00170212
0.00135262
0.00119856
0.00162641
0.00192772
0.00202794
0.00202794
0.00201338
0.0019422
0.00181239
0.00152387
0.000773167
0.00193722
0.00204373
0.00210784
0.00210784
0.0020927
0.00204057
0.00199042
0.00181442
0.00137656
0.000948178
0.00154515
0.00189743
0.00203432
0.002044
0.002044
0.00199585
0.00187675
0.00160229
0.000880958
0.002003
0.00211467
0.00218376
0.00218376
0.00217839
0.00214179
0.00210095
0.00193025
0.00146413
0.000729623
0.00132916
0.00176805
0.00196446
0.00201811
0.00201811
0.00200884
0.0019286
0.00170483
0.00109992
0.00203892
0.00215408
0.00222636
0.00222641
0.00222641
0.00219905
0.00215755
0.00199623
0.00149806
0.000643794
0.00120612
0.00168804
0.00192919
0.00201301
0.00203206
0.00203206
0.00196958
0.00177653
0.00120038
0.00210299
0.00222161
0.0022986
0.00230456
0.00230456
0.00228447
0.00224423
0.0020892
0.00161908
0.000750869
0.00102138
0.00149711
0.00180019
0.00194622
0.00201571
0.00201571
0.002007
0.0018812
0.00151811
)
;

boundaryField
{
    leftWall
    {
        type            calculated;
        value           uniform 0;
    }
    rightWall
    {
        type            calculated;
        value           uniform 0;
    }
    lowerWall
    {
        type            calculated;
        value           uniform 0;
    }
    atmosphere
    {
        type            calculated;
        value           uniform 0;
    }
    defaultFaces
    {
        type            empty;
    }
}


// ************************************************************************* //
