/*--------------------------------*- C++ -*----------------------------------*\
| =========                 |                                                 |
| \\      /  F ield         | OpenFOAM: The Open Source CFD Toolbox           |
|  \\    /   O peration     | Version:  2012                                  |
|   \\  /    A nd           | Website:  www.openfoam.com                      |
|    \\/     M anipulation  |                                                 |
\*---------------------------------------------------------------------------*/
FoamFile
{
    version     2.0;
    format      ascii;
    class       volScalarField;
    location    "0.69";
    object      p;
}
// * * * * * * * * * * * * * * * * * * * * * * * * * * * * * * * * * * * * * //

dimensions      [1 -1 -2 0 0 0 0];


internalField   nonuniform List<scalar> 
2268
(
101847
101850
101856
101866
101878
101893
101911
101931
101952
101976
101998
102024
102044
102072
102089
102117
102130
102159
102166
102194
102193
102213
102207
101787
101790
101797
101806
101819
101834
101851
101872
101893
101917
101939
101965
101985
102013
102030
102058
102071
102100
102108
102136
102135
102156
102149
101727
101730
101736
101746
101758
101774
101791
101812
101833
101857
101880
101906
101927
101954
101971
102000
102013
102042
102049
102078
102077
102099
102090
101666
101669
101675
101685
101698
101713
101731
101752
101773
101798
101821
101847
101868
101896
101913
101942
101955
101984
101992
102022
102021
102045
102033
101604
101607
101614
101623
101636
101652
101670
101691
101713
101738
101761
101788
101809
101837
101855
101884
101896
101927
101934
101965
101963
101989
101972
101542
101545
101551
101561
101575
101590
101609
101630
101653
101678
101702
101729
101751
101779
101798
101826
101840
101870
101878
101911
101909
101940
101916
101478
101481
101488
101498
101511
101527
101546
101568
101592
101618
101643
101670
101693
101721
101740
101768
101781
101812
101819
101855
101851
101886
101849
101416
101419
101425
101435
101449
101465
101484
101506
101531
101557
101583
101611
101635
101663
101683
101710
101725
101756
101765
101803
101800
101840
101795
102825
102126
101958
101899
101908
102111
102457
102505
102269
102040
101886
101814
101798
101801
101811
101857
101919
102330
102785
102717
102007
101880
101830
101853
102062
102494
102452
102182
101973
101819
101764
101749
101751
101757
101790
101824
102175
102512
102262
101806
101790
101746
101805
101971
102365
102460
102233
101931
101784
101735
101722
101728
101725
101736
101739
101900
102368
102027
101733
101741
101714
101750
101941
102314
102352
102067
101905
101766
101734
101726
101728
101723
101721
101713
101801
102161
101850
101706
101734
101713
101736
101812
102181
102249
102092
101874
101747
101717
101716
101726
101721
101723
101713
101729
102017
101823
101711
101733
101712
101734
101766
102100
102078
101934
101789
101703
101685
101692
101707
101713
101719
101710
101724
102081
101795
101714
101733
101713
101732
101734
101935
101933
101843
101710
101648
101633
101637
101653
101671
101697
101702
101849
102141
101765
101711
101734
101711
101725
101715
101829
101766
101676
101602
101579
101576
101581
101594
101615
101662
101825
102089
102547
101354
101356
101358
101363
101370
101381
101395
101414
101437
101464
101491
101519
101544
101573
101593
101620
101633
101666
101673
101717
101706
101777
101662
101329
101329
101329
101329
101330
101332
101335
101341
101350
101364
101382
101404
101426
101452
101474
101498
101515
101543
101562
101603
101625
101690
101669
101329
101329
101329
101329
101329
101329
101329
101329
101329
101331
101335
101342
101352
101365
101378
101391
101399
101419
101435
101478
101489
101570
101553
101329
101329
101329
101329
101329
101329
101329
101329
101329
101329
101329
101330
101331
101332
101335
101337
101338
101342
101350
101368
101418
101472
101501
101328
101328
101328
101328
101328
101328
101329
101329
101329
101329
101329
101329
101329
101329
101329
101329
101329
101330
101330
101334
101346
101368
101349
101328
101328
101328
101328
101328
101328
101328
101328
101328
101329
101329
101329
101329
101329
101329
101330
101329
101329
101330
101332
101356
101369
101346
101328
101328
101328
101328
101328
101328
101328
101328
101328
101328
101328
101328
101328
101328
101329
101328
101328
101327
101326
101328
101325
101347
101365
101328
101328
101328
101328
101328
101328
101328
101328
101328
101328
101328
101328
101328
101328
101328
101328
101327
101325
101324
101325
101327
101330
101313
101328
101328
101328
101328
101328
101328
101328
101328
101328
101328
101328
101328
101328
101328
101327
101327
101326
101326
101325
101325
101325
101326
101336
101327
101327
101327
101327
101327
101327
101327
101327
101327
101327
101327
101327
101327
101327
101327
101327
101326
101326
101325
101325
101325
101326
101325
101327
101327
101327
101327
101327
101327
101327
101327
101327
101327
101327
101327
101327
101327
101327
101327
101326
101326
101325
101325
101325
101325
101325
101327
101327
101327
101327
101327
101327
101327
101327
101327
101327
101327
101327
101327
101327
101326
101326
101326
101326
101325
101325
101325
101325
101325
101327
101327
101327
101327
101327
101327
101327
101327
101327
101327
101327
101327
101326
101326
101326
101326
101326
101326
101325
101325
101325
101325
101325
101326
101326
101326
101326
101326
101326
101326
101326
101326
101326
101326
101326
101326
101326
101326
101326
101326
101326
101325
101325
101325
101325
101325
101326
101326
101326
101326
101326
101326
101326
101326
101326
101326
101326
101326
101326
101326
101326
101326
101326
101326
101325
101325
101325
101325
101325
101326
101326
101326
101326
101326
101326
101326
101326
101326
101326
101326
101326
101326
101326
101326
101326
101326
101325
101325
101325
101325
101325
101325
101326
101326
101326
101326
101326
101326
101326
101326
101326
101326
101326
101326
101326
101326
101326
101325
101325
101325
101325
101325
101325
101325
101325
101325
101325
101325
101325
101325
101325
101325
101325
101325
101325
101325
101325
101325
101325
101325
101325
101325
101325
101325
101325
101325
101325
101325
101325
101325
101325
101325
101325
101325
101325
101325
101325
101325
101325
101325
101325
101325
101325
101325
101325
101325
101325
101325
101325
101325
101325
101325
101325
101325
101325
101325
101325
101325
101325
101325
101325
101325
101325
101325
101325
101325
101325
101325
101325
101325
101325
101325
101325
101325
101325
101325
101325
101325
101325
101325
101325
101325
101325
101325
101325
101325
101325
101325
101325
101325
101325
101325
101325
101325
101325
101325
101325
101324
101324
101324
101324
101324
101325
101325
101325
101325
101325
101325
101325
101325
101325
101325
101325
101325
101325
101325
101325
101325
101325
101325
101324
101324
101324
101324
101324
101324
101324
101324
101324
101324
101324
101324
101324
101324
101324
101325
101325
101325
101325
101325
101325
101325
101325
101324
101324
101324
101324
101324
101324
101324
101324
101324
101324
101324
101324
101324
101324
101324
101324
101324
101324
101324
101325
101325
101325
101325
101324
101324
101324
101324
101324
101324
101324
101324
101324
101324
101324
101324
101324
101324
101324
101324
101324
101324
101324
101324
101324
101324
101324
101323
101323
101323
101323
101323
101324
101324
101324
101324
101324
101324
101324
101324
101324
101324
101324
101324
101324
101324
101324
101324
101324
101324
101323
101323
101323
101323
101323
101323
101323
101323
101323
101323
101323
101324
101324
101324
101324
101324
101324
101324
101324
101324
101324
101324
101324
101323
101323
101323
101323
101323
101323
101323
101323
101323
101323
101323
101323
101323
101323
101323
101324
101324
101324
101324
101324
101324
101324
101324
101323
101323
101323
101323
101323
101323
101323
101323
101323
101323
101323
101323
101323
101323
101323
101323
101323
101323
101324
101324
101324
101324
101324
101322
101322
101322
101322
101322
101322
101322
101323
101323
101323
101323
101323
101323
101323
101323
101323
101323
101323
101323
101323
101323
101323
101324
101322
101322
101322
101322
101322
101322
101322
101322
101322
101322
101322
101322
101323
101323
101323
101323
101323
101323
101323
101323
101323
101323
101323
101322
101322
101322
101322
101322
101322
101322
101322
101322
101322
101322
101322
101322
101322
101322
101322
101323
101323
101323
101323
101323
101323
101323
101321
101321
101321
101321
101321
101322
101322
101322
101322
101322
101322
101322
101322
101322
101322
101322
101322
101322
101322
101322
101322
101322
101322
101321
101321
101321
101321
101321
101321
101321
101321
101321
101321
101321
101321
101322
101322
101322
101322
101322
101322
101322
101322
101322
101322
101322
101321
101321
101321
101321
101321
101321
101321
101321
101321
101321
101321
101321
101321
101321
101321
101321
101321
101321
101321
101321
101321
101321
101321
101320
101320
101320
101320
101320
101320
101320
101321
101321
101321
101321
101321
101321
101321
101321
101321
101321
101321
101321
101321
101321
101321
101321
101320
101320
101320
101320
101320
101320
101320
101320
101320
101320
101320
101320
101320
101320
101320
101320
101320
101320
101320
101320
101320
101320
101320
101320
101320
101320
101320
101320
101320
101320
101320
101320
101320
101320
101320
101320
101320
101320
101320
101320
101320
101320
101320
101320
101320
101320
101319
101319
101319
101319
101319
101319
101319
101319
101319
101319
101319
101319
101319
101319
101319
101319
101319
101319
101319
101319
101319
101319
101319
101319
101319
101319
101319
101319
101319
101319
101319
101319
101319
101319
101319
101319
101319
101319
101319
101319
101319
101319
101319
101319
101319
101319
101318
101318
101318
101318
101318
101318
101318
101318
101318
101318
101318
101318
101318
101318
101318
101318
101318
101318
101318
101318
101318
101318
101318
101318
101318
101318
101318
101318
101318
101318
101318
101318
101318
101318
101318
101318
101318
101318
101318
101318
101318
101318
101318
101318
101318
101318
101793
101644
101742
101490
101752
101715
101772
101841
101669
101661
101745
101719
101582
101618
101656
101701
101415
101455
101525
101561
101378
101446
101505
101570
101380
101393
101428
101482
101391
101424
101454
101494
101350
101367
101396
101444
101326
101346
101360
101380
101326
101325
101326
101331
101325
101325
101325
101325
101325
101325
101325
101325
101325
101324
101325
101325
101325
101325
101325
101325
101325
101325
101325
101325
101325
101325
101325
101325
101325
101325
101325
101325
101325
101325
101325
101325
101325
101325
101325
101325
101325
101325
101325
101325
101325
101325
101325
101325
101325
101325
101325
101325
101325
101325
101325
101325
101324
101324
101324
101324
101324
101324
101324
101324
101324
101324
101324
101324
101324
101324
101324
101324
101324
101324
101324
101324
101324
101324
101324
101324
101323
101323
101323
101323
101323
101323
101323
101323
101322
101322
101322
101322
101322
101322
101322
101322
101321
101321
101321
101321
101321
101321
101321
101321
101320
101320
101320
101320
101320
101320
101320
101320
101319
101319
101319
101319
101319
101319
101319
101319
101318
101318
101318
101318
101318
101317
101317
101317
101661
101701
101732
101698
101674
101640
101646
101589
101563
101555
101553
101552
101554
101558
101567
101599
101814
102148
102548
101717
101708
101717
101679
101657
101574
101559
101548
101549
101549
101549
101548
101548
101548
101551
101555
101619
101921
102044
101787
101677
101722
101645
101596
101546
101548
101549
101549
101549
101548
101547
101547
101547
101549
101550
101557
101605
101695
101707
101692
101692
101605
101572
101547
101549
101548
101548
101548
101548
101548
101548
101548
101550
101551
101555
101580
101547
101660
101654
101592
101559
101546
101547
101547
101548
101548
101548
101549
101548
101549
101549
101550
101551
101551
101570
101555
101656
101613
101554
101545
101547
101545
101547
101546
101547
101548
101548
101548
101549
101550
101550
101551
101549
101551
101549
101538
101545
101545
101543
101545
101545
101545
101545
101545
101548
101549
101548
101549
101549
101552
101552
101550
101552
101551
101531
101545
101541
101546
101544
101544
101544
101544
101546
101548
101548
101547
101548
101549
101548
101549
101548
101541
101547
101475
101519
101543
101544
101545
101544
101544
101542
101536
101535
101544
101547
101542
101529
101521
101523
101539
101545
101529
101410
101477
101507
101541
101544
101542
101542
101534
101500
101495
101505
101527
101498
101499
101514
101496
101489
101511
101495
101347
101377
101424
101477
101508
101513
101501
101470
101432
101411
101417
101437
101441
101450
101481
101472
101463
101478
101470
101325
101333
101356
101370
101390
101396
101375
101356
101344
101340
101346
101356
101347
101363
101417
101416
101415
101452
101446
101325
101326
101326
101328
101334
101335
101327
101325
101325
101325
101325
101330
101330
101333
101361
101400
101381
101430
101441
101325
101326
101326
101326
101326
101326
101325
101325
101325
101325
101325
101325
101328
101328
101338
101365
101370
101389
101405
101325
101325
101326
101326
101325
101325
101324
101325
101325
101325
101324
101324
101326
101327
101338
101340
101349
101387
101444
101325
101325
101326
101326
101325
101325
101324
101324
101324
101324
101324
101322
101322
101324
101330
101343
101366
101366
101406
101325
101325
101325
101325
101325
101324
101324
101324
101324
101324
101323
101322
101320
101322
101323
101322
101340
101362
101410
101325
101325
101325
101325
101325
101324
101324
101323
101323
101324
101323
101322
101321
101323
101323
101323
101330
101317
101312
101325
101325
101325
101325
101324
101324
101324
101323
101323
101323
101323
101323
101322
101323
101323
101324
101325
101333
101346
101325
101325
101325
101325
101324
101324
101324
101324
101323
101323
101323
101323
101323
101323
101323
101324
101324
101325
101323
101325
101325
101325
101325
101324
101324
101324
101324
101323
101323
101323
101323
101323
101323
101323
101324
101323
101324
101324
101325
101325
101325
101324
101324
101324
101324
101324
101324
101323
101323
101323
101323
101324
101323
101324
101323
101324
101323
101325
101325
101324
101324
101324
101324
101324
101324
101324
101323
101323
101323
101323
101324
101324
101324
101324
101324
101324
101324
101324
101324
101324
101324
101324
101324
101324
101324
101323
101323
101323
101324
101324
101324
101324
101324
101324
101324
101324
101324
101324
101324
101324
101324
101324
101324
101323
101323
101323
101323
101324
101324
101324
101324
101324
101324
101324
101324
101324
101324
101324
101324
101324
101324
101323
101323
101323
101323
101323
101324
101324
101324
101324
101324
101325
101323
101324
101324
101324
101324
101324
101323
101323
101323
101323
101323
101323
101323
101323
101323
101324
101324
101324
101324
101325
101324
101324
101324
101324
101324
101323
101323
101323
101323
101323
101323
101323
101323
101323
101324
101323
101324
101322
101321
101324
101324
101324
101323
101323
101323
101323
101323
101323
101323
101323
101323
101323
101323
101323
101323
101324
101322
101324
101324
101323
101323
101323
101323
101323
101323
101322
101322
101322
101322
101322
101323
101322
101323
101322
101325
101322
101326
101323
101323
101323
101323
101323
101322
101322
101322
101322
101322
101322
101322
101322
101322
101323
101322
101324
101322
101325
101323
101323
101323
101322
101322
101322
101322
101321
101321
101321
101321
101322
101322
101322
101323
101322
101323
101322
101324
101322
101322
101322
101322
101322
101321
101321
101321
101321
101321
101321
101321
101321
101321
101322
101321
101323
101321
101323
101322
101322
101322
101321
101321
101321
101321
101320
101320
101320
101320
101320
101321
101321
101321
101321
101322
101321
101322
101321
101321
101321
101321
101321
101320
101320
101320
101319
101319
101319
101320
101320
101320
101321
101320
101321
101320
101320
101321
101321
101321
101320
101320
101320
101319
101319
101319
101318
101319
101319
101319
101320
101320
101320
101320
101320
101320
101320
101320
101320
101320
101320
101319
101319
101318
101318
101317
101318
101318
101319
101319
101320
101320
101320
101320
101320
101320
101320
101320
101319
101319
101319
101318
101318
101317
101317
101317
101318
101318
101319
101319
101319
101320
101320
101320
101319
101319
101319
101319
101319
101318
101318
101317
101317
101316
101316
101317
101318
101318
101319
101319
101319
101319
101320
101319
101319
101319
101318
101318
101318
101318
101317
101317
101316
101316
101317
101318
101318
101318
101319
101319
101319
101319
101318
101318
101318
101318
101318
101318
101318
101317
101317
101317
101317
101317
101317
101318
101318
101318
101318
101318
101318
101317
101317
101317
101317
101317
101317
101317
101317
101317
101317
101317
101317
101317
101318
101318
101318
101318
101318
101319
)
;

boundaryField
{
    leftWall
    {
        type            zeroGradient;
    }
    rightWall
    {
        type            zeroGradient;
    }
    lowerWall
    {
        type            zeroGradient;
    }
    atmosphere
    {
        type            fixedValue;
        value           uniform 101325;
    }
    defaultFaces
    {
        type            empty;
    }
}


// ************************************************************************* //
