/*--------------------------------*- C++ -*----------------------------------*\
| =========                 |                                                 |
| \\      /  F ield         | OpenFOAM: The Open Source CFD Toolbox           |
|  \\    /   O peration     | Version:  2012                                  |
|   \\  /    A nd           | Website:  www.openfoam.com                      |
|    \\/     M anipulation  |                                                 |
\*---------------------------------------------------------------------------*/
FoamFile
{
    version     2.0;
    format      ascii;
    class       volScalarField;
    location    "0.69";
    object      p_rgh;
}
// * * * * * * * * * * * * * * * * * * * * * * * * * * * * * * * * * * * * * //

dimensions      [1 -1 -2 0 0 0 0];


internalField   nonuniform List<scalar> 
2268
(
101876
101879
101886
101895
101907
101923
101940
101960
101981
102005
102027
102053
102073
102101
102118
102146
102159
102188
102195
102223
102223
102243
102237
101875
101879
101885
101894
101907
101922
101940
101960
101981
102005
102027
102053
102074
102101
102118
102147
102160
102189
102196
102224
102224
102244
102238
101874
101877
101883
101893
101905
101921
101939
101959
101980
102004
102027
102053
102074
102101
102119
102147
102160
102189
102196
102225
102224
102246
102237
101872
101875
101882
101891
101904
101919
101937
101958
101979
102004
102027
102053
102074
102102
102119
102148
102161
102190
102198
102228
102227
102251
102239
101869
101872
101878
101888
101901
101916
101935
101956
101978
102003
102026
102053
102074
102102
102120
102148
102161
102192
102199
102230
102228
102254
102236
101865
101869
101875
101885
101898
101914
101933
101954
101976
102002
102026
102053
102075
102103
102121
102150
102163
102193
102202
102235
102233
102263
102239
101861
101864
101871
101880
101893
101909
101928
101951
101975
102001
102025
102053
102075
102103
102122
102150
102164
102195
102202
102238
102234
102268
102232
101838
101842
101856
101873
101890
101906
101926
101948
101972
101999
102024
102052
102076
102105
102124
102152
102166
102197
102207
102244
102242
102281
102236
102849
102146
101978
101919
101928
102135
102483
102531
102294
102063
101911
101839
101822
101825
101835
101881
101944
102354
102810
102789
102079
101952
101894
101913
102141
102574
102527
102258
102044
101883
101823
101806
101810
101824
101860
101896
102248
102586
102382
101917
101886
101840
101914
102092
102500
102541
102269
101967
101827
101752
101730
101737
101746
101773
101787
101978
102457
102192
101780
101763
101728
101778
102035
102504
102552
102192
101980
101791
101735
101726
101729
101723
101723
101717
101829
102205
102020
101711
101734
101713
101736
101917
102417
102513
102354
102108
101933
101833
101756
101726
101721
101724
101714
101737
102138
102031
101720
101734
101712
101735
102013
102421
102401
102256
102112
102025
102001
101970
101904
101813
101738
101710
101763
102329
102081
101730
101734
101713
101766
102063
102316
102314
102224
102089
102029
102014
102018
102034
102031
101998
101931
102056
102434
102096
101730
101734
101712
101966
102137
102267
102181
102045
101906
101893
101918
101965
102010
102038
102085
102248
102426
102885
101569
101581
101604
101643
101697
101752
101816
101884
101948
101998
102024
102053
102078
102106
102126
102154
102166
102200
102206
102251
102239
102310
102195
101330
101330
101330
101333
101342
101365
101403
101465
101558
101692
101830
101940
102033
102108
102133
102157
102173
102201
102220
102262
102284
102349
102327
101330
101330
101330
101330
101330
101330
101330
101331
101336
101352
101401
101488
101594
101743
101891
101995
102057
102160
102204
102261
102271
102354
102337
101330
101330
101330
101330
101330
101330
101330
101330
101330
101330
101332
101338
101352
101374
101412
101449
101468
101531
101659
101848
102031
102319
102410
101330
101330
101330
101330
101330
101330
101330
101330
101330
101330
101330
101330
101330
101330
101330
101330
101330
101331
101332
101348
101424
101609
101769
101330
101330
101330
101330
101330
101330
101330
101330
101330
101330
101330
101330
101330
101331
101331
101331
101331
101330
101332
101336
101426
101531
101526
101330
101330
101330
101330
101330
101330
101330
101330
101330
101330
101330
101330
101330
101330
101330
101330
101330
101329
101328
101349
101508
101590
101493
101330
101330
101330
101330
101330
101330
101330
101330
101330
101330
101330
101330
101330
101330
101330
101330
101329
101327
101325
101328
101383
101598
101623
101330
101330
101330
101330
101330
101330
101330
101330
101330
101330
101330
101330
101330
101330
101329
101329
101328
101328
101327
101327
101327
101328
101680
101329
101329
101329
101330
101330
101330
101330
101330
101330
101330
101330
101330
101330
101329
101329
101329
101328
101328
101327
101327
101327
101328
101327
101329
101329
101329
101329
101329
101329
101329
101329
101329
101329
101329
101329
101329
101329
101329
101329
101328
101328
101328
101328
101328
101328
101328
101329
101329
101329
101329
101329
101329
101329
101329
101329
101329
101329
101329
101329
101329
101329
101329
101328
101328
101328
101328
101328
101328
101328
101329
101329
101329
101329
101329
101329
101329
101329
101329
101329
101329
101329
101329
101329
101329
101329
101329
101328
101328
101328
101328
101328
101327
101329
101329
101329
101329
101329
101329
101329
101329
101329
101329
101329
101329
101329
101329
101329
101329
101329
101328
101328
101328
101328
101328
101328
101329
101329
101329
101329
101329
101329
101329
101329
101329
101329
101329
101329
101329
101329
101329
101329
101329
101329
101328
101328
101328
101328
101328
101329
101329
101329
101329
101329
101329
101329
101329
101329
101329
101329
101329
101329
101329
101329
101329
101329
101329
101328
101328
101328
101328
101328
101329
101329
101329
101329
101329
101329
101329
101329
101329
101329
101329
101329
101329
101329
101329
101329
101329
101329
101329
101329
101328
101328
101328
101329
101329
101329
101329
101329
101329
101329
101329
101329
101329
101329
101329
101329
101329
101329
101329
101329
101329
101329
101329
101329
101329
101328
101329
101329
101329
101329
101329
101329
101329
101329
101329
101329
101329
101329
101329
101329
101329
101329
101329
101329
101329
101329
101329
101329
101329
101329
101329
101329
101329
101329
101329
101329
101329
101329
101329
101329
101329
101329
101329
101329
101329
101329
101329
101329
101329
101329
101329
101329
101329
101329
101329
101329
101329
101329
101329
101329
101329
101329
101329
101329
101329
101329
101329
101329
101329
101329
101329
101329
101329
101329
101329
101329
101329
101329
101329
101329
101329
101329
101329
101329
101329
101329
101329
101329
101329
101329
101329
101329
101329
101329
101329
101329
101329
101329
101328
101328
101328
101328
101329
101329
101329
101329
101329
101329
101329
101329
101329
101329
101329
101329
101329
101329
101329
101329
101329
101329
101329
101328
101328
101328
101328
101328
101328
101328
101328
101329
101329
101329
101329
101329
101329
101329
101329
101329
101329
101329
101329
101329
101329
101329
101328
101328
101328
101328
101328
101328
101328
101328
101328
101328
101329
101329
101329
101329
101329
101329
101329
101329
101329
101329
101329
101329
101329
101328
101328
101328
101328
101328
101328
101328
101328
101328
101328
101328
101329
101329
101329
101329
101329
101329
101329
101329
101329
101329
101329
101329
101328
101328
101328
101328
101328
101328
101328
101328
101328
101328
101328
101328
101328
101329
101329
101329
101329
101329
101329
101329
101329
101329
101329
101328
101328
101328
101328
101328
101328
101328
101328
101328
101328
101328
101328
101328
101328
101329
101329
101329
101329
101329
101329
101329
101329
101329
101328
101328
101328
101328
101328
101328
101328
101328
101328
101328
101328
101328
101328
101328
101328
101329
101329
101329
101329
101329
101329
101329
101329
101328
101328
101328
101328
101328
101328
101328
101328
101328
101328
101328
101328
101328
101328
101328
101328
101329
101329
101329
101329
101329
101329
101329
101328
101328
101328
101328
101328
101328
101328
101328
101328
101328
101328
101328
101328
101328
101328
101328
101328
101328
101329
101329
101329
101329
101329
101327
101327
101327
101327
101328
101328
101328
101328
101328
101328
101328
101328
101328
101328
101328
101328
101328
101328
101328
101328
101328
101328
101329
101327
101327
101327
101327
101327
101327
101327
101327
101328
101328
101328
101328
101328
101328
101328
101328
101328
101328
101328
101328
101328
101328
101328
101327
101327
101327
101327
101327
101327
101327
101327
101327
101327
101327
101328
101328
101328
101328
101328
101328
101328
101328
101328
101328
101328
101328
101327
101327
101327
101327
101327
101327
101327
101327
101327
101327
101327
101327
101327
101327
101327
101327
101327
101327
101327
101328
101328
101328
101328
101327
101327
101327
101327
101327
101327
101327
101327
101327
101327
101327
101327
101327
101327
101327
101327
101327
101327
101327
101327
101327
101327
101327
101326
101326
101326
101326
101327
101327
101327
101327
101327
101327
101327
101327
101327
101327
101327
101327
101327
101327
101327
101327
101327
101327
101327
101326
101326
101326
101326
101326
101326
101326
101326
101326
101326
101326
101327
101326
101326
101326
101326
101326
101326
101326
101326
101326
101327
101327
101326
101326
101326
101326
101326
101326
101326
101326
101326
101326
101326
101326
101326
101326
101326
101326
101326
101326
101326
101326
101326
101326
101326
101326
101326
101326
101326
101326
101326
101326
101326
101326
101326
101326
101326
101326
101326
101326
101326
101326
101326
101326
101326
101326
101326
101326
101325
101325
101325
101325
101325
101325
101325
101325
101325
101325
101325
101325
101325
101325
101325
101325
101325
101326
101326
101326
101326
101326
101326
101325
101325
101325
101325
101325
101325
101325
101325
101326
101326
101325
101325
101325
101325
101325
101325
101325
101325
101325
101325
101325
101325
101325
102326
102123
102052
101771
102400
102083
101882
101903
102452
102408
102147
101870
102491
102527
102546
102481
102159
102312
102458
102515
101596
101841
102007
102133
101446
101458
101806
102129
101662
101593
101716
101867
102391
102408
102437
102484
101349
101912
102425
102511
101328
101328
101328
101529
101327
101327
101327
101327
101328
101327
101328
101327
101327
101327
101328
101328
101328
101328
101328
101328
101328
101328
101328
101328
101328
101328
101328
101328
101328
101328
101328
101328
101329
101329
101329
101329
101329
101329
101329
101329
101329
101329
101329
101329
101329
101329
101329
101329
101329
101329
101329
101329
101329
101329
101329
101329
101329
101329
101329
101329
101329
101329
101329
101329
101329
101329
101329
101329
101329
101329
101329
101329
101329
101329
101329
101329
101329
101329
101329
101329
101329
101329
101329
101329
101329
101329
101329
101329
101328
101328
101328
101328
101328
101328
101328
101328
101328
101328
101328
101328
101327
101327
101327
101327
101327
101327
101327
101327
101327
101327
101327
101327
101326
101326
101326
101326
101326
101326
101326
101326
101326
101326
101326
101326
101325
101325
101325
101325
101980
101702
101733
101861
102156
102151
102084
101834
101680
101601
101584
101589
101613
101645
101688
101776
102166
102468
102955
101755
101709
101866
102280
102316
102170
101707
101549
101550
101549
101549
101549
101549
101549
101553
101560
101712
102118
102548
101881
102001
102478
102428
102380
101785
101550
101550
101550
101550
101550
101548
101548
101548
101550
101552
101564
101739
102296
102444
102590
102589
102436
102050
101562
101550
101549
101550
101549
101549
101549
101549
101549
101551
101552
101557
101608
102209
102613
102534
102375
101849
101547
101548
101548
101549
101549
101550
101550
101549
101550
101551
101552
101552
101553
101614
102298
102267
102225
101891
101547
101548
101547
101548
101548
101549
101549
101550
101550
101550
101552
101551
101552
101551
101570
102377
102215
101859
101547
101545
101547
101546
101547
101547
101547
101550
101551
101550
101551
101551
101554
101554
101552
101561
102442
101967
101574
101542
101548
101546
101546
101546
101547
101556
101564
101551
101549
101551
101558
101578
101575
101550
101552
102504
101996
101695
101602
101553
101547
101546
101546
101588
101939
102101
101633
101557
101676
101947
102317
102268
101650
101616
102525
102541
102608
102404
101729
101546
101545
101565
102068
102644
102638
102229
101909
102598
102953
103151
103134
102662
102107
102533
102093
102603
102684
102738
102556
102392
102523
102716
102678
102640
102547
102543
103078
103121
103242
103240
103231
103091
102954
101328
101546
102295
102640
102742
102748
102662
102283
101905
101724
101899
102246
101890
101861
102615
103308
103307
103344
103338
101328
101328
101329
101392
101595
101629
101424
101328
101328
101328
101354
101362
101333
101336
101644
103054
103397
103446
103457
101328
101328
101329
101329
101329
101328
101328
101328
101328
101328
101328
101328
101331
101333
101378
102149
103195
103499
103541
101328
101328
101329
101329
101328
101328
101327
101328
101327
101328
101327
101327
101329
101342
101463
101601
101806
102479
103001
101328
101329
101329
101329
101329
101328
101328
101327
101327
101327
101327
101325
101325
101351
101491
101503
101418
101419
101566
101328
101329
101329
101329
101328
101328
101327
101327
101327
101327
101326
101325
101324
101329
101364
101431
101419
101422
101471
101329
101329
101329
101328
101328
101328
101327
101327
101327
101327
101326
101326
101325
101326
101326
101360
101608
101656
102024
101329
101329
101328
101328
101328
101328
101327
101327
101327
101327
101327
101326
101326
101327
101327
101328
101397
101677
102465
101329
101329
101329
101328
101328
101328
101328
101327
101327
101327
101327
101327
101326
101327
101327
101328
101327
101383
102493
101329
101329
101329
101328
101328
101328
101328
101328
101327
101327
101327
101327
101327
101327
101328
101328
101327
101351
102544
101329
101329
101329
101329
101328
101328
101328
101328
101328
101328
101327
101327
101327
101328
101328
101328
101328
101332
102593
101329
101329
101329
101329
101328
101328
101328
101328
101328
101328
101328
101328
101328
101328
101328
101329
101328
101328
102643
101329
101329
101329
101329
101328
101328
101328
101328
101328
101328
101328
101328
101328
101328
101328
101330
101329
101328
102173
101329
101329
101329
101329
101329
101328
101328
101328
101328
101328
101328
101328
101328
101328
101328
101330
101329
101329
101895
101329
101329
101329
101329
101329
101328
101328
101328
101328
101328
101328
101328
101328
101328
101329
101330
101329
101335
101879
101329
101329
101329
101329
101329
101328
101328
101328
101328
101328
101328
101328
101328
101328
101329
101330
101329
101347
101484
101329
101329
101329
101329
101329
101328
101328
101328
101328
101328
101328
101328
101328
101328
101329
101329
101329
101345
101330
101329
101329
101329
101329
101328
101328
101328
101328
101328
101328
101328
101328
101328
101328
101329
101328
101329
101330
101333
101329
101329
101329
101329
101328
101328
101328
101328
101328
101328
101328
101328
101328
101328
101329
101328
101330
101328
101546
101329
101329
101329
101328
101328
101328
101328
101327
101327
101327
101328
101328
101328
101328
101329
101328
101330
101328
101791
101329
101328
101328
101328
101328
101328
101327
101327
101327
101327
101327
101327
101328
101327
101328
101328
101329
101328
101804
101328
101328
101328
101328
101328
101327
101327
101327
101327
101327
101327
101327
101327
101327
101328
101327
101329
101327
101817
101328
101328
101328
101327
101327
101327
101327
101326
101326
101326
101326
101326
101327
101327
101328
101327
101328
101327
101536
101328
101328
101327
101327
101327
101327
101326
101326
101326
101325
101326
101326
101326
101326
101327
101327
101327
101326
101326
101327
101327
101327
101327
101326
101326
101326
101325
101325
101325
101325
101325
101326
101326
101327
101326
101327
101326
101326
101327
101327
101327
101326
101326
101326
101325
101325
101324
101325
101325
101325
101325
101326
101326
101326
101327
101327
101327
101327
101326
101326
101326
101326
101325
101325
101324
101324
101324
101324
101324
101325
101325
101326
101326
101326
101327
101327
101326
101326
101326
101326
101326
101325
101325
101324
101324
101324
101324
101324
101325
101325
101325
101326
101326
101326
101327
101326
101326
101326
101325
101325
101325
101325
101324
101324
101324
101324
101324
101325
101325
101325
101326
101326
101326
101326
101326
101326
101326
101325
101325
101325
101325
101325
101324
101325
101325
101325
101325
101325
101325
101325
101325
101325
101326
101325
101325
101325
101325
101325
101325
101325
101324
101324
101325
101325
101325
101325
101325
101325
101325
101325
101326
101326
)
;

boundaryField
{
    leftWall
    {
        type            zeroGradient;
    }
    rightWall
    {
        type            zeroGradient;
    }
    lowerWall
    {
        type            zeroGradient;
    }
    atmosphere
    {
        type            fixedValue;
        value           uniform 101325;
    }
    defaultFaces
    {
        type            empty;
    }
}


// ************************************************************************* //
