/*--------------------------------*- C++ -*----------------------------------*\
| =========                 |                                                 |
| \\      /  F ield         | OpenFOAM: The Open Source CFD Toolbox           |
|  \\    /   O peration     | Version:  2012                                  |
|   \\  /    A nd           | Website:  www.openfoam.com                      |
|    \\/     M anipulation  |                                                 |
\*---------------------------------------------------------------------------*/
FoamFile
{
    version     2.0;
    format      ascii;
    class       volScalarField;
    location    "0.69";
    object      rho2;
}
// * * * * * * * * * * * * * * * * * * * * * * * * * * * * * * * * * * * * * //

dimensions      [1 -3 0 0 0 0 0];


internalField   nonuniform List<scalar> 
2268
(
1.29988
1.29992
1.3
1.30012
1.30028
1.30047
1.30069
1.30095
1.30122
1.30152
1.3018
1.30213
1.30239
1.30275
1.30296
1.30333
1.30349
1.30386
1.30395
1.3043
1.3043
1.30456
1.30448
1.29912
1.29916
1.29924
1.29936
1.29952
1.29971
1.29994
1.30019
1.30046
1.30077
1.30105
1.30138
1.30164
1.302
1.30222
1.30258
1.30274
1.30311
1.30321
1.30356
1.30356
1.30382
1.30374
1.29835
1.29839
1.29847
1.29859
1.29875
1.29894
1.29917
1.29943
1.29971
1.30001
1.3003
1.30063
1.3009
1.30125
1.30147
1.30183
1.30199
1.30237
1.30246
1.30283
1.30281
1.30309
1.30298
1.29757
1.29761
1.29769
1.29781
1.29798
1.29817
1.2984
1.29866
1.29894
1.29925
1.29954
1.29988
1.30015
1.3005
1.30073
1.30109
1.30126
1.30163
1.30173
1.30211
1.3021
1.3024
1.30225
1.29678
1.29682
1.2969
1.29703
1.29719
1.29739
1.29762
1.29789
1.29818
1.29849
1.29879
1.29913
1.2994
1.29976
1.29998
1.30035
1.30051
1.3009
1.30099
1.30139
1.30136
1.30169
1.30147
1.29599
1.29604
1.29612
1.29624
1.29641
1.29661
1.29685
1.29712
1.2974
1.29772
1.29803
1.29837
1.29866
1.29901
1.29925
1.29961
1.29979
1.30017
1.30028
1.3007
1.30068
1.30106
1.30076
1.29522
1.29526
1.29534
1.29546
1.29562
1.29582
1.29606
1.29633
1.29664
1.29697
1.29728
1.29762
1.29792
1.29827
1.29851
1.29887
1.29904
1.29944
1.29953
1.29999
1.29993
1.30037
1.29991
1.29445
1.29449
1.29457
1.29469
1.29486
1.29506
1.2953
1.29557
1.29587
1.2962
1.29652
1.29687
1.29718
1.29754
1.29779
1.29814
1.29832
1.29872
1.29884
1.29931
1.29928
1.29979
1.29921
1.31185
1.30291
1.30075
1.29997
1.30008
1.30265
1.30704
1.30762
1.30459
1.30164
1.29964
1.29866
1.29838
1.29835
1.29842
1.29896
1.29971
1.3049
1.31069
1.31048
1.30142
1.29985
1.29924
1.29956
1.3022
1.30757
1.30692
1.30345
1.3007
1.29862
1.29781
1.29753
1.29752
1.29758
1.29799
1.29841
1.30286
1.30713
1.30467
1.29887
1.29881
1.29833
1.29911
1.30124
1.3063
1.30712
1.30405
1.30007
1.29799
1.29723
1.297
1.29705
1.29707
1.29724
1.29729
1.29935
1.30527
1.30166
1.29787
1.298
1.29756
1.29797
1.30067
1.30564
1.30622
1.30221
1.29995
1.298
1.29768
1.29729
1.29703
1.29706
1.29703
1.29693
1.2981
1.30264
1.29939
1.29741
1.29789
1.29744
1.29784
1.29893
1.3039
1.30496
1.30289
1.29995
1.29815
1.29761
1.29741
1.29755
1.29722
1.29714
1.29706
1.29727
1.30083
1.29903
1.29739
1.29776
1.29703
1.29777
1.2984
1.30292
1.30273
1.30099
1.29914
1.29801
1.29768
1.29762
1.29758
1.29734
1.29717
1.29733
1.29733
1.30168
1.29865
1.29734
1.29761
1.29714
1.29749
1.29811
1.30086
1.30087
1.29978
1.29813
1.29739
1.29719
1.2972
1.2973
1.29736
1.29746
1.29728
1.29916
1.30246
1.29825
1.2972
1.29749
1.29735
1.29762
1.29798
1.29951
1.29867
1.29751
1.2966
1.29638
1.29643
1.29653
1.29668
1.2969
1.29742
1.29932
1.30245
1.30759
1.29368
1.2937
1.29373
1.29379
1.29388
1.29401
1.29419
1.29443
1.29472
1.29505
1.29538
1.29573
1.29604
1.2964
1.29665
1.297
1.29715
1.29757
1.29766
1.29823
1.29808
1.29899
1.29749
1.29336
1.29337
1.29336
1.29336
1.29337
1.2934
1.29345
1.29352
1.29363
1.29381
1.29405
1.29432
1.29459
1.29491
1.29517
1.29546
1.29567
1.29602
1.29625
1.29678
1.29705
1.29787
1.29753
1.29331
1.29332
1.29332
1.29331
1.2933
1.29332
1.29335
1.29337
1.29337
1.29338
1.29343
1.29354
1.29367
1.29384
1.29399
1.29415
1.29424
1.29449
1.29468
1.29521
1.29534
1.29635
1.29613
1.29327
1.29327
1.29327
1.29327
1.29326
1.29328
1.2933
1.29332
1.29333
1.29333
1.29334
1.29335
1.29336
1.29339
1.29343
1.29347
1.29348
1.29353
1.29364
1.29385
1.29449
1.29517
1.29551
1.29325
1.29325
1.29325
1.29325
1.29325
1.29325
1.29326
1.29327
1.29328
1.29329
1.2933
1.29331
1.29331
1.29333
1.29333
1.29334
1.29334
1.29335
1.29335
1.29337
1.29353
1.29382
1.2936
1.29324
1.29324
1.29324
1.29324
1.29324
1.29324
1.29325
1.29325
1.29325
1.29326
1.29327
1.29328
1.29328
1.29329
1.29331
1.29331
1.29329
1.29321
1.29318
1.29318
1.2935
1.2937
1.29346
1.29324
1.29324
1.29324
1.29324
1.29324
1.29324
1.29324
1.29324
1.29324
1.29325
1.29325
1.29325
1.29326
1.29326
1.29327
1.29326
1.2932
1.29312
1.29308
1.29309
1.29306
1.29336
1.29358
1.29324
1.29324
1.29324
1.29324
1.29324
1.29324
1.29324
1.29324
1.29324
1.29324
1.29324
1.29324
1.29325
1.29325
1.29325
1.29325
1.2932
1.29313
1.29309
1.2931
1.29311
1.29316
1.2929
1.29324
1.29324
1.29324
1.29324
1.29324
1.29324
1.29324
1.29324
1.29324
1.29324
1.29324
1.29324
1.29324
1.29324
1.29324
1.29324
1.29323
1.29319
1.29315
1.29315
1.29314
1.29314
1.29326
1.29323
1.29323
1.29323
1.29323
1.29323
1.29323
1.29323
1.29323
1.29323
1.29324
1.29324
1.29324
1.29324
1.29323
1.29323
1.29323
1.29323
1.29322
1.2932
1.29319
1.29316
1.29316
1.29314
1.29323
1.29323
1.29323
1.29323
1.29323
1.29323
1.29323
1.29323
1.29323
1.29323
1.29323
1.29323
1.29323
1.29323
1.29323
1.29323
1.29322
1.29322
1.29322
1.29322
1.29318
1.29316
1.29316
1.29323
1.29323
1.29323
1.29323
1.29323
1.29323
1.29323
1.29323
1.29323
1.29323
1.29323
1.29323
1.29323
1.29323
1.29323
1.29322
1.29322
1.29322
1.29322
1.29322
1.29321
1.29317
1.29316
1.29323
1.29323
1.29323
1.29323
1.29323
1.29323
1.29323
1.29323
1.29323
1.29323
1.29323
1.29323
1.29323
1.29322
1.29322
1.29322
1.29322
1.29322
1.29322
1.29322
1.29321
1.2932
1.29317
1.29322
1.29322
1.29322
1.29322
1.29322
1.29322
1.29322
1.29322
1.29322
1.29322
1.29322
1.29322
1.29322
1.29322
1.29322
1.29322
1.29322
1.29322
1.29322
1.29322
1.29321
1.29321
1.2932
1.29322
1.29322
1.29322
1.29322
1.29322
1.29322
1.29322
1.29322
1.29322
1.29322
1.29322
1.29322
1.29322
1.29322
1.29322
1.29322
1.29322
1.29322
1.29322
1.29321
1.29321
1.29321
1.29321
1.29322
1.29322
1.29322
1.29322
1.29322
1.29322
1.29322
1.29322
1.29322
1.29322
1.29322
1.29322
1.29322
1.29322
1.29322
1.29322
1.29322
1.29322
1.29321
1.29321
1.29321
1.29321
1.29321
1.29321
1.29321
1.29321
1.29321
1.29321
1.29321
1.29322
1.29322
1.29322
1.29322
1.29322
1.29322
1.29322
1.29322
1.29322
1.29322
1.29321
1.29321
1.29321
1.29321
1.29321
1.29321
1.29321
1.29321
1.29321
1.29321
1.29321
1.29321
1.29321
1.29321
1.29321
1.29321
1.29321
1.29321
1.29321
1.29321
1.29321
1.29321
1.29321
1.29321
1.29321
1.29321
1.29321
1.29321
1.29321
1.29321
1.2932
1.2932
1.2932
1.29321
1.29321
1.29321
1.29321
1.29321
1.29321
1.29321
1.29321
1.29321
1.29321
1.29321
1.29321
1.29321
1.29321
1.29321
1.29321
1.29321
1.29321
1.29321
1.29321
1.2932
1.2932
1.2932
1.2932
1.2932
1.2932
1.2932
1.2932
1.2932
1.2932
1.2932
1.2932
1.29321
1.29321
1.29321
1.29321
1.29321
1.29321
1.29321
1.29321
1.29321
1.29321
1.29321
1.29319
1.29319
1.29319
1.29319
1.29319
1.29319
1.29319
1.29319
1.29319
1.29319
1.2932
1.2932
1.2932
1.2932
1.2932
1.2932
1.2932
1.2932
1.29321
1.29321
1.29321
1.29321
1.29321
1.29317
1.29317
1.29317
1.29317
1.29317
1.29317
1.29318
1.29318
1.29318
1.29318
1.29318
1.29318
1.29319
1.29319
1.29319
1.29319
1.29319
1.2932
1.2932
1.2932
1.2932
1.2932
1.2932
1.29315
1.29315
1.29315
1.29315
1.29315
1.29315
1.29316
1.29316
1.29316
1.29316
1.29316
1.29317
1.29317
1.29317
1.29317
1.29318
1.29318
1.29318
1.29318
1.29319
1.29319
1.29319
1.29319
1.29313
1.29313
1.29313
1.29314
1.29314
1.29314
1.29314
1.29314
1.29314
1.29314
1.29314
1.29314
1.29315
1.29315
1.29315
1.29315
1.29315
1.29315
1.29315
1.29316
1.29316
1.29316
1.29316
1.29312
1.29312
1.29312
1.29312
1.29312
1.29312
1.29312
1.29312
1.29312
1.29313
1.29313
1.29313
1.29313
1.29313
1.29313
1.29313
1.29313
1.29313
1.29313
1.29313
1.29313
1.29313
1.29314
1.29311
1.29311
1.29311
1.29311
1.29311
1.29311
1.29311
1.29311
1.29311
1.29312
1.29312
1.29312
1.29312
1.29312
1.29312
1.29312
1.29312
1.29312
1.29312
1.29312
1.29313
1.29313
1.29313
1.29311
1.29311
1.29311
1.29311
1.29311
1.29311
1.29311
1.29311
1.29311
1.29311
1.29311
1.29311
1.29311
1.29311
1.29311
1.29311
1.29312
1.29312
1.29312
1.29313
1.29313
1.29314
1.29314
1.2931
1.2931
1.2931
1.2931
1.2931
1.2931
1.2931
1.2931
1.2931
1.2931
1.2931
1.29311
1.29311
1.29311
1.29311
1.29311
1.29312
1.29313
1.29314
1.29314
1.29314
1.29314
1.29314
1.2931
1.2931
1.2931
1.2931
1.2931
1.2931
1.2931
1.2931
1.2931
1.2931
1.2931
1.2931
1.29311
1.29311
1.29311
1.29312
1.29313
1.29314
1.29315
1.29314
1.29314
1.29314
1.29314
1.29309
1.29309
1.29309
1.29309
1.29309
1.29309
1.2931
1.2931
1.2931
1.2931
1.2931
1.2931
1.29311
1.29312
1.29312
1.29314
1.29314
1.29314
1.29313
1.29312
1.29312
1.29312
1.29313
1.29309
1.29309
1.29309
1.29309
1.29309
1.29309
1.29309
1.29309
1.2931
1.2931
1.2931
1.29311
1.29311
1.29312
1.29313
1.29314
1.29314
1.29312
1.29311
1.29311
1.29311
1.29312
1.29312
1.29309
1.29309
1.29309
1.29309
1.29309
1.29309
1.29309
1.2931
1.2931
1.2931
1.29311
1.29311
1.29312
1.29313
1.29314
1.29313
1.2931
1.29309
1.29309
1.29311
1.29311
1.29311
1.29311
1.29309
1.29309
1.29309
1.29309
1.29309
1.29309
1.2931
1.2931
1.2931
1.2931
1.29311
1.29312
1.29313
1.29313
1.29312
1.29309
1.29308
1.29308
1.29309
1.2931
1.2931
1.2931
1.2931
1.29309
1.29309
1.29309
1.29309
1.29309
1.2931
1.2931
1.2931
1.2931
1.29311
1.29311
1.29312
1.29312
1.29312
1.29309
1.29306
1.29306
1.29308
1.29309
1.2931
1.2931
1.29309
1.29309
1.29309
1.29309
1.29309
1.29309
1.2931
1.2931
1.2931
1.2931
1.2931
1.29311
1.29311
1.29312
1.29311
1.29309
1.29306
1.29305
1.29306
1.29308
1.29309
1.29309
1.29309
1.29309
1.29308
1.29309
1.29309
1.2931
1.2931
1.2931
1.2931
1.2931
1.2931
1.2931
1.29311
1.29311
1.29311
1.2931
1.29306
1.29304
1.29303
1.29306
1.29307
1.29308
1.29308
1.29308
1.29308
1.29307
1.2931
1.2931
1.2931
1.2931
1.2931
1.2931
1.2931
1.2931
1.2931
1.29311
1.29311
1.2931
1.29307
1.29303
1.29302
1.29302
1.29305
1.29306
1.29307
1.29307
1.29307
1.29307
1.29307
1.2931
1.2931
1.2931
1.2931
1.2931
1.2931
1.2931
1.2931
1.2931
1.2931
1.2931
1.29309
1.29304
1.29301
1.293
1.29301
1.29304
1.29305
1.29306
1.29307
1.29307
1.29307
1.29306
1.2931
1.2931
1.2931
1.2931
1.2931
1.2931
1.2931
1.2931
1.2931
1.2931
1.29309
1.29306
1.29301
1.29298
1.29297
1.29299
1.29303
1.29305
1.29306
1.29306
1.29306
1.29306
1.29306
1.2931
1.2931
1.2931
1.2931
1.2931
1.2931
1.2931
1.2931
1.2931
1.2931
1.29309
1.29304
1.29298
1.29295
1.29295
1.29297
1.29301
1.29304
1.29305
1.29305
1.29306
1.29306
1.29305
1.29311
1.29311
1.29311
1.29311
1.29311
1.29311
1.2931
1.2931
1.2931
1.2931
1.29308
1.29301
1.29295
1.29292
1.29292
1.29296
1.293
1.29303
1.29304
1.29305
1.29305
1.29305
1.29305
1.29314
1.29314
1.29314
1.29314
1.29313
1.29313
1.29313
1.29313
1.29312
1.29311
1.29307
1.29299
1.29291
1.29288
1.29287
1.29294
1.29299
1.29302
1.29304
1.29304
1.29304
1.29304
1.29304
1.299
1.2967
1.29769
1.29456
1.29823
1.2974
1.29805
1.29896
1.29755
1.29722
1.29791
1.29741
1.29651
1.29694
1.29727
1.29758
1.29444
1.29494
1.29581
1.29622
1.29394
1.29481
1.29556
1.29638
1.29374
1.29388
1.29428
1.29489
1.29383
1.29416
1.29446
1.29486
1.29342
1.29361
1.29396
1.29452
1.29312
1.29337
1.29355
1.29379
1.29316
1.29314
1.29313
1.29319
1.29316
1.29316
1.29316
1.29316
1.29316
1.29316
1.29317
1.29317
1.29319
1.29318
1.29318
1.29319
1.29321
1.29321
1.29321
1.2932
1.29321
1.29321
1.29321
1.29321
1.29321
1.29321
1.29321
1.29321
1.29321
1.29321
1.29321
1.29321
1.29321
1.29321
1.29321
1.29321
1.29321
1.29321
1.29321
1.29321
1.29321
1.29321
1.29321
1.29321
1.2932
1.2932
1.2932
1.2932
1.29319
1.29319
1.2932
1.2932
1.29316
1.29317
1.29317
1.29317
1.29314
1.29314
1.29314
1.29314
1.29313
1.29313
1.29313
1.29313
1.29314
1.29314
1.29314
1.29314
1.29315
1.29315
1.29315
1.29315
1.29314
1.29314
1.29314
1.29314
1.29313
1.29313
1.29313
1.29313
1.29312
1.29312
1.29312
1.29311
1.29311
1.2931
1.2931
1.2931
1.29309
1.29309
1.29309
1.29309
1.29308
1.29308
1.29308
1.29308
1.29308
1.29307
1.29307
1.29307
1.29307
1.29307
1.29306
1.29306
1.29306
1.29306
1.29306
1.29305
1.29306
1.29305
1.29305
1.29305
1.29305
1.29305
1.29305
1.29304
1.29305
1.29304
1.29304
1.29304
1.29304
1.29304
1.29304
1.29303
1.29303
1.29303
1.29303
1.29302
1.29679
1.29715
1.29738
1.29703
1.29733
1.29711
1.29706
1.29614
1.2958
1.29569
1.29571
1.2958
1.29597
1.2961
1.29624
1.29662
1.29926
1.30313
1.30754
1.2974
1.29689
1.29714
1.29742
1.29739
1.29627
1.2955
1.29546
1.29541
1.29538
1.29537
1.29539
1.29544
1.2955
1.29562
1.29583
1.29664
1.29994
1.30111
1.29822
1.29683
1.29802
1.29729
1.29662
1.29563
1.29533
1.2953
1.29529
1.29528
1.29526
1.29524
1.29527
1.29535
1.29555
1.29577
1.29561
1.29569
1.29677
1.29747
1.29777
1.29792
1.29675
1.29601
1.29527
1.2953
1.29528
1.29527
1.29519
1.29513
1.29511
1.29521
1.29532
1.29543
1.29549
1.2953
1.2952
1.29498
1.29742
1.29749
1.2966
1.29573
1.29563
1.29528
1.2953
1.29531
1.2953
1.29522
1.29508
1.29498
1.29496
1.29499
1.29503
1.29496
1.29475
1.29495
1.29516
1.29745
1.2967
1.29545
1.29541
1.29522
1.29528
1.29533
1.29533
1.29535
1.29534
1.29526
1.29515
1.29505
1.29499
1.29495
1.29492
1.29492
1.29484
1.29517
1.29543
1.29515
1.29512
1.29506
1.29526
1.29532
1.29535
1.29537
1.2954
1.29545
1.29537
1.29529
1.29524
1.29521
1.29526
1.29521
1.29509
1.29498
1.29527
1.29509
1.295
1.2951
1.29515
1.29526
1.29531
1.29533
1.29528
1.29528
1.29531
1.2953
1.29537
1.2952
1.29494
1.29501
1.29497
1.29521
1.29495
1.2953
1.29479
1.29507
1.29495
1.29478
1.29512
1.29528
1.29531
1.29519
1.2953
1.29527
1.29531
1.29536
1.29513
1.2949
1.29486
1.29496
1.29517
1.2952
1.29519
1.29414
1.29488
1.29505
1.29511
1.29497
1.295
1.29515
1.29522
1.29501
1.29494
1.29498
1.2952
1.29477
1.29477
1.29504
1.29487
1.29479
1.29509
1.29498
1.29339
1.29371
1.29421
1.29474
1.29501
1.29501
1.29497
1.29472
1.29428
1.29399
1.29401
1.29421
1.29425
1.29434
1.29474
1.29466
1.29467
1.29492
1.29482
1.29316
1.29323
1.29351
1.29367
1.2939
1.29397
1.2937
1.29347
1.29328
1.29318
1.29322
1.2933
1.29312
1.29328
1.29395
1.29396
1.29409
1.29465
1.29456
1.29318
1.29317
1.29317
1.29319
1.29327
1.29327
1.29316
1.29314
1.2931
1.29307
1.29301
1.29299
1.29294
1.29293
1.29326
1.29376
1.29363
1.29433
1.29451
1.29319
1.29319
1.29319
1.29316
1.29315
1.29314
1.29313
1.29313
1.29312
1.29309
1.29299
1.2929
1.29294
1.29298
1.29311
1.29343
1.29349
1.29377
1.294
1.2932
1.2932
1.2932
1.29316
1.29314
1.29315
1.29315
1.29316
1.29315
1.29309
1.29301
1.29299
1.29308
1.29315
1.29331
1.29332
1.29337
1.29379
1.29449
1.29321
1.29321
1.29321
1.29317
1.29316
1.29316
1.29317
1.29317
1.29316
1.29312
1.29305
1.29303
1.29309
1.29319
1.29333
1.2935
1.29373
1.29364
1.29404
1.29321
1.29321
1.29321
1.29319
1.29316
1.29316
1.29316
1.29316
1.29316
1.29315
1.29308
1.29305
1.29309
1.2932
1.29328
1.29327
1.29344
1.29364
1.2941
1.29321
1.29321
1.29321
1.2932
1.29318
1.29316
1.29316
1.29316
1.29316
1.29316
1.29315
1.2931
1.29311
1.29318
1.29327
1.29329
1.2933
1.29309
1.29286
1.29321
1.29321
1.29321
1.2932
1.29319
1.29318
1.29316
1.29316
1.29316
1.29316
1.29315
1.29316
1.29315
1.29317
1.29321
1.29321
1.29314
1.29327
1.29335
1.29321
1.29321
1.29321
1.29321
1.2932
1.29319
1.29318
1.29317
1.29317
1.29316
1.29316
1.29316
1.29316
1.29318
1.29319
1.29316
1.29299
1.29301
1.29308
1.29321
1.29321
1.29321
1.2932
1.2932
1.2932
1.29319
1.29319
1.29318
1.29317
1.29317
1.29317
1.29317
1.29318
1.29319
1.29317
1.29295
1.29288
1.29309
1.2932
1.2932
1.2932
1.2932
1.2932
1.2932
1.2932
1.29319
1.29319
1.29318
1.29318
1.29318
1.29317
1.29318
1.29319
1.29318
1.29297
1.29282
1.29306
1.2932
1.2932
1.2932
1.2932
1.2932
1.2932
1.2932
1.29319
1.29319
1.29319
1.29319
1.29318
1.29318
1.29319
1.29319
1.29319
1.29303
1.2928
1.29304
1.29317
1.29318
1.29319
1.29319
1.29319
1.2932
1.2932
1.29319
1.29319
1.29319
1.29319
1.29319
1.29319
1.29319
1.29319
1.29319
1.29309
1.29282
1.29305
1.29314
1.29315
1.29315
1.29316
1.29317
1.29318
1.29319
1.29319
1.29319
1.29319
1.29319
1.29319
1.29319
1.29319
1.2932
1.29319
1.29312
1.29286
1.29305
1.29314
1.29314
1.29314
1.29314
1.29314
1.29315
1.29316
1.29318
1.29318
1.29319
1.29319
1.29319
1.29319
1.29319
1.2932
1.29319
1.29314
1.29289
1.29307
1.29315
1.29315
1.29314
1.29314
1.29314
1.29314
1.29314
1.29315
1.29316
1.29318
1.29318
1.29319
1.29319
1.29319
1.2932
1.29319
1.29315
1.29295
1.29311
1.29315
1.29315
1.29315
1.29315
1.29315
1.29314
1.29314
1.29314
1.29314
1.29315
1.29317
1.29318
1.29319
1.29318
1.29319
1.29318
1.29315
1.29302
1.29299
1.29314
1.29314
1.29314
1.29314
1.29315
1.29315
1.29315
1.29314
1.29314
1.29314
1.29315
1.29317
1.29318
1.29318
1.29319
1.29318
1.29317
1.29308
1.29287
1.29313
1.29312
1.29312
1.29312
1.29313
1.29313
1.29314
1.29314
1.29314
1.29314
1.29314
1.29316
1.29318
1.29318
1.29319
1.29318
1.29318
1.29309
1.29285
1.29311
1.29311
1.2931
1.2931
1.2931
1.2931
1.29311
1.29313
1.29314
1.29314
1.29314
1.29314
1.29316
1.29317
1.29319
1.29317
1.29318
1.29309
1.29284
1.29309
1.29309
1.29308
1.29308
1.29308
1.29308
1.29309
1.2931
1.29312
1.29313
1.29313
1.29314
1.29315
1.29316
1.29318
1.29317
1.29318
1.29308
1.29289
1.29308
1.29307
1.29307
1.29306
1.29306
1.29306
1.29307
1.29308
1.2931
1.29311
1.29312
1.29313
1.29314
1.29315
1.29317
1.29316
1.29317
1.29308
1.29294
1.29307
1.29306
1.29305
1.29305
1.29304
1.29304
1.29304
1.29306
1.29307
1.29309
1.29311
1.29312
1.29313
1.29314
1.29316
1.29316
1.29317
1.29308
1.29303
1.29306
1.29305
1.29304
1.29303
1.29302
1.29302
1.29302
1.29304
1.29305
1.29308
1.2931
1.29311
1.29313
1.29314
1.29316
1.29315
1.29316
1.29308
1.29307
1.29305
1.29304
1.29303
1.29302
1.29301
1.293
1.293
1.29301
1.29304
1.29306
1.29309
1.2931
1.29312
1.29313
1.29315
1.29315
1.29315
1.29309
1.29302
1.29305
1.29304
1.29303
1.29301
1.293
1.29299
1.29298
1.29299
1.29302
1.29304
1.29307
1.29309
1.29311
1.29312
1.29314
1.29315
1.29315
1.2931
1.29302
1.29304
1.29303
1.29302
1.293
1.29299
1.29297
1.29296
1.29297
1.29301
1.29303
1.29306
1.29308
1.2931
1.29312
1.29314
1.29314
1.29314
1.2931
1.29302
1.29304
1.29303
1.29301
1.29299
1.29298
1.29296
1.29295
1.29295
1.293
1.29303
1.29305
1.29308
1.2931
1.29311
1.29313
1.29314
1.29314
1.2931
1.29304
1.29303
1.29302
1.29301
1.29299
1.29297
1.29295
1.29294
1.29294
1.29298
1.29303
1.29305
1.29307
1.29309
1.29311
1.29313
1.29314
1.29314
1.29311
1.29305
1.29303
1.29302
1.293
1.29299
1.29297
1.29295
1.29294
1.29293
1.29295
1.29303
1.29305
1.29307
1.29309
1.29311
1.29312
1.29313
1.29313
1.29311
1.29306
1.29302
1.29301
1.29299
1.29298
1.29296
1.29294
1.29293
1.29293
1.29294
1.29299
1.29304
1.29307
1.29309
1.29311
1.29312
1.29314
1.29314
1.29313
1.29311
)
;

boundaryField
{
    leftWall
    {
        type            calculated;
        value           nonuniform List<scalar> 
50
(
1.29988
1.29912
1.29835
1.29757
1.29678
1.29599
1.29522
1.29445
1.29368
1.29336
1.29331
1.29327
1.29325
1.29324
1.29324
1.29324
1.29324
1.29323
1.29323
1.29323
1.29323
1.29322
1.29322
1.29322
1.29321
1.29321
1.2932
1.2932
1.29319
1.29317
1.29315
1.29313
1.29312
1.29311
1.29311
1.2931
1.2931
1.29309
1.29309
1.29309
1.29309
1.29309
1.29309
1.29309
1.2931
1.2931
1.2931
1.2931
1.29311
1.29314
)
;
    }
    rightWall
    {
        type            calculated;
        value           nonuniform List<scalar> 
50
(
1.31069
1.30713
1.30527
1.30264
1.30083
1.30168
1.30246
1.30759
1.30754
1.30111
1.29677
1.29498
1.29516
1.29517
1.29527
1.2953
1.29519
1.29498
1.29482
1.29456
1.29451
1.294
1.29449
1.29404
1.2941
1.29286
1.29335
1.29308
1.29309
1.29306
1.29304
1.29305
1.29305
1.29307
1.29311
1.29299
1.29287
1.29285
1.29284
1.29289
1.29294
1.29303
1.29307
1.29302
1.29302
1.29302
1.29304
1.29305
1.29306
1.29311
)
;
    }
    lowerWall
    {
        type            calculated;
        value           nonuniform List<scalar> 
62
(
1.30025
1.30029
1.30037
1.30049
1.30065
1.30085
1.30107
1.30133
1.3016
1.3019
1.30218
1.30251
1.30277
1.30312
1.30334
1.3037
1.30386
1.30423
1.30432
1.30468
1.30468
1.30493
1.30486
1.30448
1.30374
1.30298
1.30225
1.30147
1.30076
1.29991
1.29921
1.2998
1.29741
1.29815
1.29498
1.31185
1.31048
1.30467
1.30166
1.29939
1.29903
1.29865
1.29825
1.31215
1.30316
1.301
1.30022
1.30033
1.30296
1.30737
1.30796
1.30491
1.30194
1.29995
1.29897
1.29869
1.29867
1.29874
1.29927
1.30002
1.30522
1.311
)
;
    }
    atmosphere
    {
        type            calculated;
        value           nonuniform List<scalar> 
46
(
1.29323
1.29323
1.29323
1.29322
1.29322
1.29322
1.29322
1.29321
1.29321
1.2932
1.29316
1.29307
1.293
1.29297
1.29297
1.29303
1.29308
1.29311
1.29313
1.29314
1.29314
1.29314
1.29313
1.29313
1.29313
1.29312
1.29312
1.29311
1.2931
1.29309
1.29307
1.29306
1.29304
1.29303
1.29303
1.29305
1.29309
1.29314
1.29316
1.29318
1.2932
1.29322
1.29323
1.29323
1.29322
1.29319
)
;
    }
    defaultFaces
    {
        type            empty;
    }
}


// ************************************************************************* //
