/*--------------------------------*- C++ -*----------------------------------*\
| =========                 |                                                 |
| \\      /  F ield         | OpenFOAM: The Open Source CFD Toolbox           |
|  \\    /   O peration     | Version:  2012                                  |
|   \\  /    A nd           | Website:  www.openfoam.com                      |
|    \\/     M anipulation  |                                                 |
\*---------------------------------------------------------------------------*/
FoamFile
{
    version     2.0;
    format      ascii;
    class       volVectorField;
    location    "0.69";
    object      Uc;
}
// * * * * * * * * * * * * * * * * * * * * * * * * * * * * * * * * * * * * * //

dimensions      [0 1 -1 0 0 0 0];


internalField   nonuniform List<vector> 
2268
(
(-0.00210679 0.000995655 0)
(-0.00558815 0.000649611 0)
(-0.00924867 0.00108032 0)
(-0.0152865 0.00177309 0)
(-0.0236164 0.00216355 0)
(-0.0320571 0.0018255 0)
(-0.0401266 0.00198807 0)
(-0.0501663 0.00275662 0)
(-0.0615559 0.00262601 0)
(-0.0725633 0.002576 0)
(-0.0833776 0.00253477 0)
(-0.0935295 0.00226297 0)
(-0.101535 0.00152033 0)
(-0.106333 0.000747437 0)
(-0.108464 0.000259417 0)
(-0.108781 -0.000109608 0)
(-0.107228 -0.000624184 0)
(-0.102541 -0.00159104 0)
(-0.0941222 -0.0023875 0)
(-0.0800577 -0.00425925 0)
(-0.061214 -0.00464608 0)
(-0.0342841 -0.00808077 0)
(-0.00859262 -0.00406071 0)
(-0.00220665 0.00303416 0)
(-0.00580401 0.00195646 0)
(-0.00938943 0.00319785 0)
(-0.0151497 0.00523125 0)
(-0.0231787 0.00643648 0)
(-0.0315576 0.00550142 0)
(-0.0397919 0.00601722 0)
(-0.0499724 0.00828336 0)
(-0.0612414 0.00780757 0)
(-0.0721939 0.00777254 0)
(-0.0833315 0.00771252 0)
(-0.0936363 0.00675295 0)
(-0.101661 0.0046062 0)
(-0.106769 0.00234321 0)
(-0.109203 0.000820971 0)
(-0.109555 -0.000355032 0)
(-0.107859 -0.00191397 0)
(-0.103249 -0.00469515 0)
(-0.0954684 -0.00693914 0)
(-0.0830367 -0.0122295 0)
(-0.0671342 -0.0130966 0)
(-0.0446104 -0.0230017 0)
(-0.0150684 -0.0152425 0)
(-0.00218478 0.00510951 0)
(-0.00559141 0.00319115 0)
(-0.00884577 0.0051956 0)
(-0.0141799 0.00847666 0)
(-0.0218482 0.0106095 0)
(-0.0304693 0.00936252 0)
(-0.039597 0.0103613 0)
(-0.0506157 0.0139579 0)
(-0.0623868 0.0130216 0)
(-0.0736611 0.0130628 0)
(-0.0847348 0.0129192 0)
(-0.0946528 0.0111034 0)
(-0.102318 0.00767073 0)
(-0.107382 0.00408577 0)
(-0.110013 0.00147239 0)
(-0.110502 -0.00060923 0)
(-0.108643 -0.00333966 0)
(-0.103627 -0.0078184 0)
(-0.0954338 -0.0113653 0)
(-0.082569 -0.0197582 0)
(-0.0657392 -0.0210368 0)
(-0.0412095 -0.0372985 0)
(-0.0127156 -0.0283727 0)
(-0.00214754 0.00715693 0)
(-0.00553027 0.00435233 0)
(-0.0088416 0.00713732 0)
(-0.0139452 0.0114677 0)
(-0.0209919 0.0145726 0)
(-0.029286 0.0133934 0)
(-0.0385914 0.0150417 0)
(-0.0495784 0.0196773 0)
(-0.0611826 0.0183492 0)
(-0.072717 0.0185143 0)
(-0.0843383 0.0181932 0)
(-0.0950863 0.015596 0)
(-0.103865 0.0109491 0)
(-0.109834 0.00602173 0)
(-0.112665 0.00211809 0)
(-0.11287 -0.000927146 0)
(-0.110901 -0.00483075 0)
(-0.106384 -0.0108326 0)
(-0.0990112 -0.0157075 0)
(-0.087104 -0.0271231 0)
(-0.070373 -0.0295324 0)
(-0.0442983 -0.0527181 0)
(-0.0137245 -0.0408678 0)
(-0.001636 0.008945 0)
(-0.00454181 0.00553618 0)
(-0.00775915 0.00903887 0)
(-0.0124203 0.0141809 0)
(-0.0188654 0.0182356 0)
(-0.027357 0.0176631 0)
(-0.0380619 0.0202287 0)
(-0.050471 0.0255471 0)
(-0.0631025 0.023933 0)
(-0.0753932 0.0241901 0)
(-0.0870108 0.0235001 0)
(-0.0973049 0.0202335 0)
(-0.105586 0.0143736 0)
(-0.111141 0.00804389 0)
(-0.113873 0.00272495 0)
(-0.114434 -0.0011717 0)
(-0.112902 -0.00624095 0)
(-0.108749 -0.01352 0)
(-0.10197 -0.0197076 0)
(-0.0910953 -0.0338896 0)
(-0.0749069 -0.0383232 0)
(-0.0444286 -0.0706537 0)
(-0.0116632 -0.0528656 0)
(-0.00104242 0.0102108 0)
(-0.00396735 0.00702594 0)
(-0.00796682 0.0109597 0)
(-0.012521 0.0166151 0)
(-0.0180643 0.021467 0)
(-0.025778 0.0220902 0)
(-0.0362835 0.0258255 0)
(-0.0481655 0.0314301 0)
(-0.0603418 0.029774 0)
(-0.0733205 0.0302913 0)
(-0.0864714 0.0291043 0)
(-0.0986677 0.0252581 0)
(-0.108904 0.0181002 0)
(-0.11552 0.0100694 0)
(-0.118015 0.00316952 0)
(-0.118051 -0.00133398 0)
(-0.116562 -0.00750632 0)
(-0.113108 -0.0158498 0)
(-0.10719 -0.0233778 0)
(-0.0979647 -0.0397188 0)
(-0.0823608 -0.0475188 0)
(-0.0477271 -0.0922295 0)
(-0.0115876 -0.0638537 0)
(-6.31484e-05 0.0107333 0)
(-0.0020077 0.00880474 0)
(-0.00592659 0.0129231 0)
(-0.00997841 0.0187189 0)
(-0.0146917 0.0242104 0)
(-0.022626 0.0267419 0)
(-0.0348839 0.0319317 0)
(-0.0489844 0.0376031 0)
(-0.0633008 0.0361213 0)
(-0.0775192 0.0367971 0)
(-0.0904118 0.0349064 0)
(-0.101772 0.0305889 0)
(-0.111234 0.0220786 0)
(-0.11723 0.0120514 0)
(-0.119528 0.00345227 0)
(-0.120292 -0.00123863 0)
(-0.119893 -0.00849344 0)
(-0.117387 -0.0176799 0)
(-0.112621 -0.0265966 0)
(-0.105804 -0.0440816 0)
(-0.0923266 -0.0568994 0)
(-0.052611 -0.117986 0)
(-0.0113314 -0.074685 0)
(0.000628675 0.0104667 0)
(-0.00047157 0.0105115 0)
(-0.00426831 0.0148635 0)
(-0.00814007 0.0205235 0)
(-0.0121731 0.0265394 0)
(-0.019507 0.0316285 0)
(-0.0312554 0.0383903 0)
(-0.0448145 0.0442162 0)
(-0.0595024 0.0432154 0)
(-0.0748652 0.0436829 0)
(-0.0896695 0.04111 0)
(-0.104224 0.0366325 0)
(-0.11669 0.0263981 0)
(-0.123408 0.0137404 0)
(-0.124462 0.00334739 0)
(-0.124244 -0.000875571 0)
(-0.124097 -0.00911417 0)
(-0.122379 -0.019056 0)
(-0.118448 -0.0293307 0)
(-0.114348 -0.0465064 0)
(-0.103046 -0.0661848 0)
(-0.0782954 -0.139167 0)
(-0.0317125 -0.0950271 0)
(-0.499565 0.212521 0)
(-1.21098 0.0903185 0)
(-1.52098 0.0421174 0)
(-1.63609 0.00767123 0)
(-1.61313 -0.0163937 0)
(-1.48002 -0.0392109 0)
(-1.30559 -0.0344047 0)
(-1.23239 0.00355473 0)
(-1.33174 0.0389333 0)
(-1.50577 0.0354131 0)
(-1.62964 0.0176987 0)
(-1.6828 0.00536713 0)
(-1.68532 -0.00379422 0)
(-1.66325 -0.00508098 0)
(-1.64633 -0.00158416 0)
(-1.6337 -0.00322527 0)
(-1.53622 -0.0375587 0)
(-1.22717 -0.0929188 0)
(-0.50366 -0.213934 0)
(-0.390148 0.591103 0)
(-0.925102 0.242413 0)
(-1.12529 0.108014 0)
(-1.18809 0.0188731 0)
(-1.17928 -0.0391493 0)
(-1.08634 -0.110798 0)
(-0.946768 -0.0954268 0)
(-0.936339 0.0295883 0)
(-1.09537 0.123343 0)
(-1.26974 0.0998781 0)
(-1.37539 0.0518969 0)
(-1.42398 0.0157892 0)
(-1.42353 -0.0117921 0)
(-1.39821 -0.015661 0)
(-1.37981 -0.00458965 0)
(-1.37359 -0.00693552 0)
(-1.27612 -0.115367 0)
(-1.01618 -0.255361 0)
(-0.425868 -0.608712 0)
(-0.332537 0.899032 0)
(-0.735158 0.334357 0)
(-0.842087 0.147914 0)
(-0.883613 0.0249155 0)
(-0.857886 -0.0580331 0)
(-0.684875 -0.203513 0)
(-0.364438 -0.197574 0)
(-0.214964 0.0647838 0)
(-0.396014 0.234717 0)
(-0.679583 0.185686 0)
(-0.948983 0.128322 0)
(-1.19004 0.065776 0)
(-1.34834 0.00920174 0)
(-1.41342 -0.0157155 0)
(-1.42451 -0.00385825 0)
(-1.42273 -0.00774933 0)
(-1.29634 -0.206694 0)
(-0.958498 -0.414934 0)
(-0.371747 -0.947701 0)
(-0.218834 1.13436 0)
(-0.55661 0.416302 0)
(-0.849495 0.239292 0)
(-1.06384 0.0459943 0)
(-0.940482 -0.138828 0)
(-0.531289 -0.367477 0)
(-0.109875 -0.34787 0)
(0.250571 -0.000914952 0)
(0.548977 0.25299 0)
(0.632497 0.256571 0)
(0.530257 0.220373 0)
(0.296382 0.180942 0)
(-0.113135 0.140911 0)
(-0.587509 0.0874688 0)
(-1.04665 0.0984155 0)
(-1.39912 0.044545 0)
(-1.41905 -0.298791 0)
(-1.02102 -0.630235 0)
(-0.361657 -1.25888 0)
(-0.0555553 1.25205 0)
(-0.308938 0.553658 0)
(-0.737785 0.413868 0)
(-0.951355 0.0581355 0)
(-0.625744 -0.337107 0)
(-0.0924943 -0.565849 0)
(0.187814 -0.445997 0)
(0.36361 -0.130615 0)
(0.624144 0.145852 0)
(0.872131 0.224971 0)
(1.04473 0.225522 0)
(1.155 0.232621 0)
(1.19929 0.249409 0)
(1.08008 0.23666 0)
(0.829337 0.256344 0)
(0.456077 0.200634 0)
(-0.129644 -0.191595 0)
(-0.424734 -0.775088 0)
(-0.187203 -1.49028 0)
(0.0314802 1.2634 0)
(-0.127231 0.721537 0)
(-0.292032 0.503398 0)
(-0.117403 -0.0107886 0)
(0.10625 -0.497707 0)
(0.246248 -0.688179 0)
(0.360935 -0.490236 0)
(0.515505 -0.226758 0)
(0.727226 0.0411473 0)
(0.915845 0.144211 0)
(1.0486 0.17712 0)
(1.13805 0.197487 0)
(1.20477 0.239818 0)
(1.25232 0.280204 0)
(1.29184 0.306902 0)
(1.31125 0.30577 0)
(1.12094 0.0388307 0)
(0.593997 -0.649588 0)
(0.128577 -1.51355 0)
(0.0204222 1.24208 0)
(-0.0522057 0.844811 0)
(-0.0316818 0.44631 0)
(0.281969 -0.157403 0)
(0.483392 -0.527313 0)
(0.452594 -0.701907 0)
(0.45748 -0.526861 0)
(0.574898 -0.305805 0)
(0.746307 -0.0427559 0)
(0.913302 0.0768833 0)
(1.03498 0.136256 0)
(1.11618 0.165818 0)
(1.1798 0.216282 0)
(1.23092 0.262524 0)
(1.2779 0.289526 0)
(1.31493 0.302145 0)
(1.26101 0.150147 0)
(0.858162 -0.360851 0)
(0.261139 -1.34652 0)
(0.011764 1.22897 0)
(-0.101519 0.940364 0)
(-0.124756 0.356712 0)
(0.238335 -0.351539 0)
(0.498905 -0.525341 0)
(0.48058 -0.680507 0)
(0.505185 -0.560555 0)
(0.622322 -0.371793 0)
(0.77132 -0.112742 0)
(0.900905 0.0214544 0)
(0.993659 0.101402 0)
(1.06332 0.137251 0)
(1.12428 0.192345 0)
(1.18313 0.239941 0)
(1.23583 0.269925 0)
(1.25565 0.297996 0)
(1.18307 0.209052 0)
(0.777218 -0.0740792 0)
(0.220681 -1.14037 0)
(0.00200507 0.00818393 0)
(0.00339976 0.0119719 0)
(0.00183205 0.0168332 0)
(-0.000701265 0.0229887 0)
(-0.00476198 0.0301115 0)
(-0.0116596 0.038493 0)
(-0.0215056 0.0470011 0)
(-0.0339507 0.0545369 0)
(-0.0501592 0.0561342 0)
(-0.0693511 0.0573175 0)
(-0.0891438 0.0543677 0)
(-0.107352 0.048556 0)
(-0.120292 0.0333738 0)
(-0.125609 0.0152842 0)
(-0.125614 0.00230717 0)
(-0.126516 0.000968411 0)
(-0.128644 -0.00888845 0)
(-0.128056 -0.020685 0)
(-0.124709 -0.0329239 0)
(-0.127739 -0.0418052 0)
(-0.134548 -0.0693819 0)
(-0.162606 -0.119462 0)
(-0.180115 -0.119147 0)
(-0.0263767 0.0327431 0)
(-0.0755302 0.0355492 0)
(-0.125547 0.0452556 0)
(-0.172969 0.0449566 0)
(-0.185103 0.0246365 0)
(-0.155282 0.0211811 0)
(-0.120617 0.0396524 0)
(-0.10293 0.0569295 0)
(-0.0988485 0.0662474 0)
(-0.102583 0.0705146 0)
(-0.108289 0.0669566 0)
(-0.112147 0.0582089 0)
(-0.113651 0.0382644 0)
(-0.11579 0.0178956 0)
(-0.120938 0.00487649 0)
(-0.129556 0.00796858 0)
(-0.13778 -0.00548173 0)
(-0.141514 -0.0209296 0)
(-0.14686 -0.0306697 0)
(-0.165436 -0.0223408 0)
(-0.204739 -0.0424927 0)
(-0.27448 -0.0480423 0)
(-0.376774 -0.0701384 0)
(-0.0208993 0.080322 0)
(-0.0610228 0.0778333 0)
(-0.0985401 0.0911001 0)
(-0.12614 0.0746936 0)
(-0.141249 0.0225007 0)
(-0.159641 0.0120996 0)
(-0.17922 0.0338943 0)
(-0.185134 0.0512491 0)
(-0.190059 0.073238 0)
(-0.204904 0.0827084 0)
(-0.215926 0.0721084 0)
(-0.218468 0.0599957 0)
(-0.214224 0.0341339 0)
(-0.194587 0.00470875 0)
(-0.159714 -0.0116902 0)
(-0.124468 -0.00218813 0)
(-0.100919 -0.0107008 0)
(-0.0966857 -0.0161935 0)
(-0.108293 -0.0183549 0)
(-0.130577 0.00642241 0)
(-0.159926 -0.0022445 0)
(-0.196585 0.0186651 0)
(-0.248671 0.0183415 0)
(-0.00479426 0.1062 0)
(-0.0163462 0.104001 0)
(-0.0240838 0.110525 0)
(-0.0273064 0.086355 0)
(-0.0572616 0.0562416 0)
(-0.126656 0.0667072 0)
(-0.202052 0.0748724 0)
(-0.261112 0.0757339 0)
(-0.30515 0.0981794 0)
(-0.341508 0.10955 0)
(-0.374492 0.0899793 0)
(-0.401994 0.0729259 0)
(-0.417814 0.0334331 0)
(-0.402556 -0.0291875 0)
(-0.357375 -0.0579591 0)
(-0.316221 -0.0325588 0)
(-0.278561 -0.0417434 0)
(-0.219306 -0.0488501 0)
(-0.155036 -0.0385495 0)
(-0.126359 0.0202372 0)
(-0.130831 0.0179094 0)
(-0.146459 0.0510597 0)
(-0.190017 0.0821259 0)
(-0.0166947 0.127852 0)
(-0.0493468 0.126886 0)
(-0.0804801 0.126815 0)
(-0.114959 0.108064 0)
(-0.154247 0.104239 0)
(-0.189394 0.1239 0)
(-0.225786 0.130155 0)
(-0.27699 0.131396 0)
(-0.333184 0.143382 0)
(-0.389834 0.157962 0)
(-0.466841 0.152289 0)
(-0.565573 0.137726 0)
(-0.670843 0.0906266 0)
(-0.777626 0.00590334 0)
(-0.862314 -0.0530933 0)
(-0.919476 -0.0211493 0)
(-1.00872 -0.00114157 0)
(-1.17085 0.0141362 0)
(-1.26616 -0.07013 0)
(-1.11727 -0.126219 0)
(-0.820389 -0.128659 0)
(-0.531174 -0.0760833 0)
(-0.330198 0.0528741 0)
(-0.0102145 0.154952 0)
(-0.0313799 0.153985 0)
(-0.0550488 0.154905 0)
(-0.0858712 0.145718 0)
(-0.126506 0.147027 0)
(-0.172218 0.162496 0)
(-0.21857 0.174839 0)
(-0.266819 0.186788 0)
(-0.321347 0.199396 0)
(-0.386733 0.224727 0)
(-0.472321 0.249079 0)
(-0.589238 0.25783 0)
(-0.746204 0.234251 0)
(-0.96874 0.193442 0)
(-1.26335 0.140777 0)
(-1.62812 0.209258 0)
(-2.07995 0.312504 0)
(-2.50686 0.292776 0)
(-2.6198 -0.139199 0)
(-2.3826 -0.444219 0)
(-2.02455 -0.466075 0)
(-1.64571 -0.406924 0)
(-1.24699 -0.216143 0)
(-0.0146836 0.18003 0)
(-0.0442405 0.179995 0)
(-0.0737625 0.182465 0)
(-0.104827 0.180469 0)
(-0.138579 0.187152 0)
(-0.172242 0.202263 0)
(-0.20573 0.215434 0)
(-0.242431 0.231692 0)
(-0.283165 0.250357 0)
(-0.327132 0.283797 0)
(-0.374789 0.32406 0)
(-0.43709 0.363115 0)
(-0.53475 0.385035 0)
(-0.69965 0.432233 0)
(-0.977828 0.477896 0)
(-1.35331 0.616399 0)
(-1.74009 0.748502 0)
(-2.02758 0.575061 0)
(-2.13005 -0.204671 0)
(-2.11036 -0.634974 0)
(-2.07234 -0.669314 0)
(-2.03096 -0.623373 0)
(-1.9351 -0.495861 0)
(-0.011393 0.206293 0)
(-0.034761 0.207033 0)
(-0.0596775 0.21025 0)
(-0.0877222 0.212204 0)
(-0.119047 0.220935 0)
(-0.15201 0.235556 0)
(-0.186431 0.250507 0)
(-0.223527 0.270905 0)
(-0.264392 0.293275 0)
(-0.308381 0.329401 0)
(-0.353453 0.371779 0)
(-0.403946 0.428891 0)
(-0.470065 0.484007 0)
(-0.563133 0.592693 0)
(-0.698622 0.73339 0)
(-0.863448 0.904176 0)
(-1.02156 1.00862 0)
(-1.20612 0.789587 0)
(-1.46581 -0.0549175 0)
(-1.66306 -0.604541 0)
(-1.707 -0.689785 0)
(-1.73918 -0.610172 0)
(-1.79395 -0.550256 0)
(-0.0124197 0.23028 0)
(-0.0372392 0.231585 0)
(-0.0618007 0.235534 0)
(-0.0867575 0.240298 0)
(-0.112569 0.250376 0)
(-0.138344 0.265263 0)
(-0.164024 0.281317 0)
(-0.190778 0.304383 0)
(-0.219304 0.329655 0)
(-0.250029 0.368231 0)
(-0.281761 0.410263 0)
(-0.313193 0.47287 0)
(-0.346028 0.539612 0)
(-0.373548 0.658424 0)
(-0.386641 0.81714 0)
(-0.394586 0.994236 0)
(-0.416196 1.09937 0)
(-0.49328 0.961981 0)
(-0.729123 0.270934 0)
(-1.10553 -0.353365 0)
(-1.4162 -0.582579 0)
(-1.5398 -0.558176 0)
(-1.52362 -0.557564 0)
(-0.010025 0.252891 0)
(-0.0303707 0.254474 0)
(-0.0515147 0.258689 0)
(-0.0737786 0.26471 0)
(-0.0968061 0.275158 0)
(-0.119978 0.289785 0)
(-0.143223 0.306076 0)
(-0.166745 0.330265 0)
(-0.190293 0.356222 0)
(-0.213423 0.395906 0)
(-0.235336 0.436622 0)
(-0.25334 0.496316 0)
(-0.26497 0.560977 0)
(-0.261082 0.660933 0)
(-0.222387 0.789016 0)
(-0.134179 0.941809 0)
(-0.00482943 1.04364 0)
(0.0924178 0.99759 0)
(-0.0132042 0.578709 0)
(-0.416004 0.12226 0)
(-0.932361 -0.226737 0)
(-1.27579 -0.443098 0)
(-1.40293 -0.55531 0)
(-0.00963634 0.272704 0)
(-0.0289201 0.274595 0)
(-0.0482377 0.279338 0)
(-0.0675633 0.285965 0)
(-0.0864782 0.296162 0)
(-0.104609 0.310399 0)
(-0.121799 0.32621 0)
(-0.138038 0.350202 0)
(-0.152931 0.375029 0)
(-0.165594 0.413183 0)
(-0.175614 0.451552 0)
(-0.18099 0.504997 0)
(-0.178614 0.56171 0)
(-0.162413 0.640121 0)
(-0.121489 0.729912 0)
(-0.0463363 0.836823 0)
(0.0612743 0.910557 0)
(0.170019 0.92374 0)
(0.191186 0.737588 0)
(0.0256993 0.534759 0)
(-0.359618 0.267268 0)
(-0.847477 -0.101352 0)
(-1.19394 -0.420756 0)
(-0.0081585 0.29064 0)
(-0.0245332 0.2926 0)
(-0.0408495 0.297249 0)
(-0.0569128 0.303724 0)
(-0.0724875 0.31317 0)
(-0.0873825 0.326687 0)
(-0.101237 0.341228 0)
(-0.113603 0.364038 0)
(-0.123846 0.386561 0)
(-0.130531 0.421204 0)
(-0.132608 0.455796 0)
(-0.128521 0.502158 0)
(-0.115806 0.549488 0)
(-0.0903938 0.610625 0)
(-0.0453531 0.673111 0)
(0.0261331 0.746339 0)
(0.122778 0.795842 0)
(0.227258 0.824242 0)
(0.286071 0.756814 0)
(0.262689 0.705509 0)
(0.10208 0.645412 0)
(-0.259478 0.374471 0)
(-0.768322 -0.0366936 0)
(-0.00722853 0.306154 0)
(-0.0215591 0.308046 0)
(-0.0355599 0.312374 0)
(-0.0491284 0.318482 0)
(-0.061856 0.326959 0)
(-0.0734 0.339572 0)
(-0.0832971 0.352316 0)
(-0.0909538 0.373175 0)
(-0.0957581 0.392649 0)
(-0.0964462 0.422629 0)
(-0.0918352 0.451926 0)
(-0.0808146 0.490947 0)
(-0.0620799 0.529191 0)
(-0.0336152 0.576874 0)
(0.00725038 0.620621 0)
(0.0634816 0.67056 0)
(0.135114 0.702582 0)
(0.217741 0.729537 0)
(0.292844 0.717022 0)
(0.346136 0.715353 0)
(0.381872 0.76121 0)
(0.330842 0.673536 0)
(0.0631583 0.444938 0)
(-0.00608356 0.319582 0)
(-0.0180858 0.321181 0)
(-0.0295989 0.324979 0)
(-0.0404556 0.330523 0)
(-0.0503142 0.337717 0)
(-0.0588892 0.349133 0)
(-0.0656966 0.359642 0)
(-0.0700446 0.378014 0)
(-0.0713252 0.394025 0)
(-0.0683918 0.419095 0)
(-0.0600865 0.442577 0)
(-0.0451815 0.474337 0)
(-0.0221426 0.503914 0)
(0.0104149 0.540917 0)
(0.0537742 0.572022 0)
(0.10906 0.60717 0)
(0.174306 0.628491 0)
(0.246772 0.647838 0)
(0.320641 0.649085 0)
(0.394489 0.655599 0)
(0.48678 0.692384 0)
(0.587388 0.692643 0)
(0.677085 0.604863 0)
(-0.00518984 0.33096 0)
(-0.0154497 0.332273 0)
(-0.0253381 0.335492 0)
(-0.0346289 0.340354 0)
(-0.0428222 0.346124 0)
(-0.0494919 0.356143 0)
(-0.0540792 0.36418 0)
(-0.0559538 0.379826 0)
(-0.0544806 0.392116 0)
(-0.0488492 0.412492 0)
(-0.0381783 0.430203 0)
(-0.0215529 0.455116 0)
(0.00208289 0.476318 0)
(0.033813 0.503992 0)
(0.0739443 0.525125 0)
(0.122921 0.549367 0)
(0.179719 0.563723 0)
(0.243463 0.575794 0)
(0.311349 0.578745 0)
(0.382996 0.579795 0)
(0.469076 0.588998 0)
(0.56745 0.59612 0)
(0.649759 0.528597 0)
(-0.00440718 0.340652 0)
(-0.0130422 0.341664 0)
(-0.0211625 0.344293 0)
(-0.0284909 0.348349 0)
(-0.0345532 0.352549 0)
(-0.0389658 0.360949 0)
(-0.0412207 0.366343 0)
(-0.0408147 0.37923 0)
(-0.0370844 0.387574 0)
(-0.029428 0.403771 0)
(-0.0170281 0.415828 0)
(0.00103532 0.434718 0)
(0.025464 0.448499 0)
(0.0573798 0.467933 0)
(0.0969056 0.481213 0)
(0.144223 0.496584 0)
(0.198413 0.505043 0)
(0.257949 0.510654 0)
(0.321942 0.511424 0)
(0.38914 0.507653 0)
(0.462344 0.501133 0)
(0.546642 0.500468 0)
(0.627191 0.460651 0)
(-0.00384292 0.348989 0)
(-0.0113637 0.349654 0)
(-0.0184356 0.351662 0)
(-0.0248187 0.354851 0)
(-0.0300534 0.357491 0)
(-0.0336977 0.364195 0)
(-0.0352285 0.366992 0)
(-0.0342178 0.377248 0)
(-0.0299168 0.381574 0)
(-0.021659 0.393865 0)
(-0.00866876 0.400305 0)
(0.00989681 0.413515 0)
(0.0342204 0.42079 0)
(0.0649297 0.432786 0)
(0.101968 0.439494 0)
(0.145529 0.44705 0)
(0.195284 0.450191 0)
(0.25026 0.450497 0)
(0.309786 0.44752 0)
(0.372362 0.441209 0)
(0.43719 0.428929 0)
(0.505845 0.419026 0)
(0.572479 0.394248 0)
(-0.00346268 0.356375 0)
(-0.0101903 0.356676 0)
(-0.016407 0.358083 0)
(-0.0217929 0.360345 0)
(-0.0259284 0.361501 0)
(-0.0283806 0.366399 0)
(-0.0287306 0.366765 0)
(-0.0265216 0.374325 0)
(-0.0210226 0.374733 0)
(-0.0118095 0.383233 0)
(0.00173118 0.384357 0)
(0.0203453 0.39218 0)
(0.0443577 0.39363 0)
(0.0742585 0.399114 0)
(0.110116 0.399985 0)
(0.15192 0.400843 0)
(0.199315 0.398837 0)
(0.251452 0.394276 0)
(0.307848 0.387313 0)
(0.367468 0.378682 0)
(0.427953 0.365589 0)
(0.489645 0.351442 0)
(0.547267 0.33703 0)
(-0.00333314 0.363247 0)
(-0.00980715 0.363156 0)
(-0.015777 0.363935 0)
(-0.0209478 0.365188 0)
(-0.024953 0.364926 0)
(-0.0272908 0.367873 0)
(-0.027573 0.36601 0)
(-0.0253334 0.370693 0)
(-0.0199619 0.367524 0)
(-0.0110421 0.372301 0)
(0.00203543 0.368619 0)
(0.0198441 0.371393 0)
(0.0428003 0.367291 0)
(0.0712271 0.36691 0)
(0.105287 0.361998 0)
(0.145022 0.356958 0)
(0.19023 0.349729 0)
(0.24038 0.340657 0)
(0.294798 0.329636 0)
(0.352771 0.31825 0)
(0.412397 0.30538 0)
(0.473572 0.288242 0)
(0.534007 0.281656 0)
(-0.00358138 0.370238 0)
(-0.0105949 0.369803 0)
(-0.0170965 0.369905 0)
(-0.0226983 0.370127 0)
(-0.0270571 0.368474 0)
(-0.0296067 0.369318 0)
(-0.0300073 0.365333 0)
(-0.0277475 0.366929 0)
(-0.0223034 0.360498 0)
(-0.0131574 0.36125 0)
(0.000208782 0.353172 0)
(0.0179814 0.351157 0)
(0.0406724 0.341727 0)
(0.0683812 0.336132 0)
(0.101447 0.325387 0)
(0.139928 0.315033 0)
(0.183593 0.302405 0)
(0.232197 0.288801 0)
(0.285038 0.273764 0)
(0.341712 0.258969 0)
(0.40059 0.245632 0)
(0.460744 0.226122 0)
(0.521148 0.222401 0)
(-0.00397447 0.377872 0)
(-0.0118469 0.37721 0)
(-0.0191393 0.376441 0)
(-0.0253708 0.375564 0)
(-0.0303307 0.372483 0)
(-0.033502 0.371138 0)
(-0.0345787 0.365077 0)
(-0.0329527 0.363358 0)
(-0.0282205 0.353919 0)
(-0.0200647 0.350517 0)
(-0.00805424 0.338477 0)
(0.00804282 0.331888 0)
(0.0289418 0.317261 0)
(0.0548839 0.30675 0)
(0.0864238 0.28991 0)
(0.123636 0.274508 0)
(0.166354 0.256183 0)
(0.214577 0.237778 0)
(0.26766 0.218397 0)
(0.325356 0.199457 0)
(0.386635 0.184449 0)
(0.45051 0.162718 0)
(0.51664 0.158702 0)
(-0.00490827 0.386838 0)
(-0.014696 0.386071 0)
(-0.0238956 0.384233 0)
(-0.0320122 0.382269 0)
(-0.0389042 0.377767 0)
(-0.0439689 0.374209 0)
(-0.0468777 0.366087 0)
(-0.0470296 0.360942 0)
(-0.0440274 0.348637 0)
(-0.0374208 0.341036 0)
(-0.0264636 0.324948 0)
(-0.0108372 0.313607 0)
(0.00989286 0.293776 0)
(0.0357261 0.27827 0)
(0.067149 0.255179 0)
(0.104172 0.234697 0)
(0.146846 0.210239 0)
(0.195403 0.186519 0)
(0.249262 0.162239 0)
(0.308339 0.138317 0)
(0.371926 0.120157 0)
(0.439029 0.0954356 0)
(0.509208 0.0890505 0)
(-0.00616489 0.398005 0)
(-0.0184594 0.397173 0)
(-0.0301439 0.394196 0)
(-0.0406857 0.391134 0)
(-0.0498239 0.385087 0)
(-0.0569462 0.379212 0)
(-0.0618488 0.36901 0)
(-0.0640354 0.360443 0)
(-0.0631742 0.345326 0)
(-0.0588496 0.333433 0)
(-0.0504248 0.313142 0)
(-0.0375734 0.296861 0)
(-0.0197373 0.271829 0)
(0.00343014 0.251037 0)
(0.0326595 0.22152 0)
(0.0680223 0.195669 0)
(0.109876 0.164377 0)
(0.158604 0.134667 0)
(0.213811 0.104537 0)
(0.27579 0.0744112 0)
(0.344133 0.0515249 0)
(0.417901 0.0225444 0)
(0.496437 0.0125332 0)
(-0.00775595 0.412032 0)
(-0.0231857 0.411083 0)
(-0.0380467 0.407038 0)
(-0.0519021 0.402885 0)
(-0.064477 0.395232 0)
(-0.0752835 0.387159 0)
(-0.0840778 0.374901 0)
(-0.0902568 0.363031 0)
(-0.0933167 0.345018 0)
(-0.0926337 0.328778 0)
(-0.0875678 0.304307 0)
(-0.0776051 0.282834 0)
(-0.0621048 0.252418 0)
(-0.0406308 0.225646 0)
(-0.0125589 0.189384 0)
(0.0222219 0.15737 0)
(0.0643756 0.118305 0)
(0.114059 0.0818899 0)
(0.171017 0.0446388 0)
(0.235886 0.00687571 0)
(0.308365 -0.0224196 0)
(0.38781 -0.057445 0)
(0.473776 -0.072759 0)
(-0.00967771 0.429589 0)
(-0.0288912 0.428415 0)
(-0.0476192 0.423536 0)
(-0.0654976 0.418352 0)
(-0.0821498 0.409209 0)
(-0.097093 0.399131 0)
(-0.109933 0.384742 0)
(-0.120076 0.369663 0)
(-0.127137 0.348626 0)
(-0.130634 0.328065 0)
(-0.130153 0.299512 0)
(-0.125258 0.272763 0)
(-0.1153 0.236965 0)
(-0.0995178 0.203717 0)
(-0.0771227 0.160652 0)
(-0.0474673 0.121398 0)
(-0.009292 0.073598 0)
(0.0378652 0.0293219 0)
(0.094796 -0.0172055 0)
(0.162098 -0.0640672 0)
(0.238835 -0.101399 0)
(0.3249 -0.144766 0)
(0.420283 -0.167659 0)
(-0.0116059 0.451015 0)
(-0.0346568 0.449537 0)
(-0.0573375 0.444101 0)
(-0.0793655 0.437964 0)
(-0.100377 0.427521 0)
(-0.120005 0.415633 0)
(-0.137861 0.399159 0)
(-0.153428 0.381154 0)
(-0.166284 0.35722 0)
(-0.175772 0.332588 0)
(-0.181155 0.29998 0)
(-0.181471 0.267757 0)
(-0.175823 0.226349 0)
(-0.163481 0.186128 0)
(-0.144014 0.136225 0)
(-0.116911 0.0888368 0)
(-0.0813477 0.0321029 0)
(-0.0366392 -0.021461 0)
(0.0189329 -0.0794448 0)
(0.085694 -0.136522 0)
(0.163484 -0.184208 0)
(0.253649 -0.239038 0)
(0.356214 -0.272298 0)
(-0.0138151 0.476599 0)
(-0.0413123 0.474824 0)
(-0.0685517 0.469054 0)
(-0.0952762 0.462078 0)
(-0.121123 0.45057 0)
(-0.145755 0.437135 0)
(-0.168751 0.418783 0)
(-0.189585 0.398181 0)
(-0.207752 0.371437 0)
(-0.222601 0.342896 0)
(-0.233634 0.306234 0)
(-0.240288 0.268571 0)
(-0.24201 0.221651 0)
(-0.237941 0.174392 0)
(-0.227033 0.11749 0)
(-0.207536 0.060792 0)
(-0.177914 -0.00531479 0)
(-0.137405 -0.0696417 0)
(-0.0847404 -0.140002 0)
(-0.0199327 -0.208157 0)
(0.0583323 -0.26938 0)
(0.151958 -0.338553 0)
(0.260167 -0.384592 0)
(-0.0157099 0.506306 0)
(-0.0470438 0.504311 0)
(-0.0782467 0.49837 0)
(-0.109126 0.490723 0)
(-0.139396 0.478391 0)
(-0.168798 0.463687 0)
(-0.196977 0.44373 0)
(-0.223497 0.420892 0)
(-0.247897 0.391572 0)
(-0.269542 0.359503 0)
(-0.287785 0.319113 0)
(-0.301755 0.27648 0)
(-0.310364 0.224184 0)
(-0.312172 0.169644 0)
(-0.306149 0.105278 0)
(-0.291603 0.038843 0)
(-0.267777 -0.0370339 0)
(-0.233272 -0.113268 0)
(-0.187999 -0.194765 0)
(-0.132284 -0.274486 0)
(-0.0619215 -0.352392 0)
(0.025791 -0.437764 0)
(0.130941 -0.499791 0)
(-0.0180868 0.540305 0)
(-0.0541926 0.538156 0)
(-0.0901989 0.532138 0)
(-0.125958 0.523994 0)
(-0.161241 0.511067 0)
(-0.195834 0.495394 0)
(-0.229387 0.474131 0)
(-0.261485 0.449468 0)
(-0.291621 0.41787 0)
(-0.319129 0.382667 0)
(-0.343445 0.338784 0)
(-0.363924 0.291492 0)
(-0.380108 0.23415 0)
(-0.391442 0.172944 0)
(-0.39705 0.101616 0)
(-0.395392 0.0262716 0)
(-0.386026 -0.0577724 0)
(-0.370276 -0.142991 0)
(-0.346988 -0.233904 0)
(-0.308582 -0.329901 0)
(-0.246566 -0.429986 0)
(-0.162296 -0.53299 0)
(-0.0582236 -0.614821 0)
(-0.0196022 0.578216 0)
(-0.0588411 0.576034 0)
(-0.0982318 0.570101 0)
(-0.137743 0.561745 0)
(-0.177211 0.548507 0)
(-0.21646 0.53223 0)
(-0.255188 0.510004 0)
(-0.293049 0.48397 0)
(-0.329673 0.450527 0)
(-0.364591 0.412813 0)
(-0.397396 0.366109 0)
(-0.427434 0.314998 0)
(-0.453807 0.253476 0)
(-0.47541 0.186779 0)
(-0.491442 0.109585 0)
(-0.50333 0.0286393 0)
(-0.515181 -0.0575901 0)
(-0.525937 -0.148138 0)
(-0.520207 -0.257871 0)
(-0.48197 -0.382923 0)
(-0.412931 -0.508651 0)
(-0.323637 -0.628744 0)
(-0.217647 -0.730174 0)
(-0.0221404 0.620199 0)
(-0.0664439 0.618075 0)
(-0.11083 0.61232 0)
(-0.155276 0.603968 0)
(-0.199732 0.590692 0)
(-0.24418 0.574225 0)
(-0.288475 0.551512 0)
(-0.332403 0.524725 0)
(-0.375659 0.490116 0)
(-0.417802 0.450734 0)
(-0.458327 0.401949 0)
(-0.496798 0.348072 0)
(-0.533389 0.283743 0)
(-0.569687 0.214762 0)
(-0.608916 0.137198 0)
(-0.652611 0.05695 0)
(-0.693899 -0.0324329 0)
(-0.709504 -0.146744 0)
(-0.681162 -0.293467 0)
(-0.619887 -0.447314 0)
(-0.542904 -0.590999 0)
(-0.455359 -0.724112 0)
(-0.355581 -0.841599 0)
(-0.0229856 0.665582 0)
(-0.0691128 0.663637 0)
(-0.115717 0.658265 0)
(-0.163041 0.650315 0)
(-0.211186 0.637473 0)
(-0.260169 0.621405 0)
(-0.309871 0.598862 0)
(-0.360129 0.572096 0)
(-0.410765 0.537171 0)
(-0.461603 0.49719 0)
(-0.512691 0.44763 0)
(-0.56437 0.393055 0)
(-0.617334 0.328826 0)
(-0.672931 0.2621 0)
(-0.733956 0.190683 0)
(-0.797935 0.111752 0)
(-0.838564 -0.00484078 0)
(-0.826753 -0.17048 0)
(-0.775747 -0.349455 0)
(-0.71386 -0.515089 0)
(-0.645663 -0.669118 0)
(-0.566309 -0.813718 0)
(-0.471876 -0.947174 0)
(-0.025557 0.714398 0)
(-0.076853 0.712793 0)
(-0.128684 0.708098 0)
(-0.181321 0.701003 0)
(-0.234868 0.689047 0)
(-0.289421 0.673948 0)
(-0.34515 0.652342 0)
(-0.402168 0.626493 0)
(-0.460558 0.592409 0)
(-0.520556 0.553407 0)
(-0.582858 0.505436 0)
(-0.64884 0.453565 0)
(-0.721537 0.394674 0)
(-0.804323 0.335401 0)
(-0.89005 0.264946 0)
(-0.947273 0.159372 0)
(-0.945204 -0.0136608 0)
(-0.902255 -0.21667 0)
(-0.854136 -0.40287 0)
(-0.80247 -0.575779 0)
(-0.738329 -0.741416 0)
(-0.659601 -0.900288 0)
(-0.564443 -1.05115 0)
(-0.0258697 0.766112 0)
(-0.0778426 0.764924 0)
(-0.130514 0.761052 0)
(-0.184367 0.755133 0)
(-0.239906 0.74461 0)
(-0.297598 0.731254 0)
(-0.357838 0.711647 0)
(-0.420968 0.688 0)
(-0.487255 0.656268 0)
(-0.556908 0.619914 0)
(-0.630704 0.575775 0)
(-0.710363 0.529665 0)
(-0.7985 0.480288 0)
(-0.894191 0.42924 0)
(-0.97821 0.341783 0)
(-1.01166 0.173722 0)
(-0.990754 -0.0510797 0)
(-0.95367 -0.259669 0)
(-0.912702 -0.449385 0)
(-0.858917 -0.635227 0)
(-0.791618 -0.814058 0)
(-0.711273 -0.987517 0)
(-0.616741 -1.15457 0)
(-0.0277221 0.82 0)
(-0.083539 0.819422 0)
(-0.14048 0.816773 0)
(-0.199358 0.812765 0)
(-0.261008 0.804811 0)
(-0.326007 0.794418 0)
(-0.394606 0.778028 0)
(-0.46692 0.757805 0)
(-0.54355 0.730162 0)
(-0.625682 0.69863 0)
(-0.71515 0.661209 0)
(-0.813769 0.623475 0)
(-0.919753 0.581652 0)
(-1.01713 0.521998 0)
(-1.06881 0.385462 0)
(-1.06072 0.155566 0)
(-1.02884 -0.0859647 0)
(-0.994306 -0.296739 0)
(-0.948205 -0.499802 0)
(-0.890742 -0.696608 0)
(-0.82401 -0.887379 0)
(-0.746835 -1.07251 0)
(-0.658047 -1.25383 0)
(-0.0282208 0.87625 0)
(-0.0850229 0.876409 0)
(-0.1429 0.875234 0)
(-0.20249 0.87342 0)
(-0.264367 0.868358 0)
(-0.329164 0.861375 0)
(-0.397684 0.848936 0)
(-0.470898 0.833217 0)
(-0.550093 0.81142 0)
(-0.636905 0.787229 0)
(-0.733558 0.759735 0)
(-0.841193 0.732315 0)
(-0.954728 0.693519 0)
(-1.04949 0.603311 0)
(-1.08789 0.39472 0)
(-1.0736 0.123833 0)
(-1.04274 -0.117271 0)
(-1.00404 -0.339016 0)
(-0.954124 -0.554012 0)
(-0.896383 -0.758177 0)
(-0.831034 -0.958555 0)
(-0.757586 -1.15272 0)
(-0.675734 -1.34513 0)
(-0.0279404 0.932717 0)
(-0.0844193 0.933839 0)
(-0.142772 0.934666 0)
(-0.204319 0.935783 0)
(-0.270184 0.93443 0)
(-0.341254 0.931905 0)
(-0.418443 0.924902 0)
(-0.50264 0.91551 0)
(-0.594302 0.900902 0)
(-0.693305 0.884561 0)
(-0.800679 0.867523 0)
(-0.915221 0.847898 0)
(-1.0252 0.80265 0)
(-1.09578 0.660414 0)
(-1.10396 0.384461 0)
(-1.07922 0.0948765 0)
(-1.04679 -0.151909 0)
(-1.0036 -0.386664 0)
(-0.9521 -0.608283 0)
(-0.895029 -0.819295 0)
(-0.832712 -1.02575 0)
(-0.765461 -1.22694 0)
(-0.692686 -1.42633 0)
(-0.0294686 0.990436 0)
(-0.0889384 0.992695 0)
(-0.150049 0.995918 0)
(-0.213859 1.00056 0)
(-0.281177 1.00355 0)
(-0.352647 1.00609 0)
(-0.429082 1.00517 0)
(-0.511681 1.00294 0)
(-0.602164 0.996594 0)
(-0.702409 0.989184 0)
(-0.813856 0.982892 0)
(-0.932391 0.966857 0)
(-1.03757 0.899995 0)
(-1.09065 0.687406 0)
(-1.08514 0.360162 0)
(-1.05629 0.0653239 0)
(-1.0195 -0.191918 0)
(-0.973715 -0.436066 0)
(-0.923198 -0.661412 0)
(-0.869429 -0.877567 0)
(-0.812737 -1.08709 0)
(-0.752757 -1.29348 0)
(-0.688699 -1.49732 0)
(-0.0256215 1.04582 0)
(-0.0778608 1.04962 0)
(-0.133033 1.0559 0)
(-0.192894 1.06491 0)
(-0.258992 1.07333 0)
(-0.332824 1.08239 0)
(-0.415584 1.08891 0)
(-0.508346 1.09548 0)
(-0.612635 1.09985 0)
(-0.730484 1.10518 0)
(-0.858423 1.10756 0)
(-0.982037 1.08564 0)
(-1.07222 0.977619 0)
(-1.10033 0.691421 0)
(-1.0821 0.332286 0)
(-1.04821 0.0301472 0)
(-1.00414 -0.237995 0)
(-0.954028 -0.486372 0)
(-0.902115 -0.714057 0)
(-0.84915 -0.932201 0)
(-0.795812 -1.14305 0)
(-0.74144 -1.35246 0)
(-0.68556 -1.5589 0)
(-0.0272849 1.09901 0)
(-0.0825036 1.10446 0)
(-0.139715 1.11404 0)
(-0.200324 1.12788 0)
(-0.266294 1.14313 0)
(-0.339984 1.16089 0)
(-0.423032 1.1771 0)
(-0.515485 1.1935 0)