/*--------------------------------*- C++ -*----------------------------------*\
| =========                 |                                                 |
| \\      /  F ield         | OpenFOAM: The Open Source CFD Toolbox           |
|  \\    /   O peration     | Version:  2012                                  |
|   \\  /    A nd           | Website:  www.openfoam.com                      |
|    \\/     M anipulation  |                                                 |
\*---------------------------------------------------------------------------*/
FoamFile
{
    version     2.0;
    format      ascii;
    class       volScalarField;
    location    "0.69";
    object      volumeFraction1;
}
// * * * * * * * * * * * * * * * * * * * * * * * * * * * * * * * * * * * * * //

dimensions      [0 0 0 0 0 0 0];


internalField   nonuniform List<scalar> 
2268
(
1
1
1
1
1
1
1
1
1
1
1
1
1
1
1
1
1
1
1
1
1
0.999995
0.999785
1
1
1
1
1
1
1
1
1
1
1
1
1
1
1
1
1
1
1
1
1
0.999971
0.999712
1
1
1
1
1
1
1
1
1
1
1
1
1
1
1
1
1
1
1
1
1
0.999977
0.999712
1
1
1
1
1
1
1
1
1
1
1
1
1
1
1
1
1
1
1
1
1
0.999984
0.999712
1
1
1
1
1
1
1
1
1
1
1
1
1
1
1
1
1
1
1
1
1
0.999996
0.999953
1
1
1
1
1
1
1
1
1
1
1
1
1
1
1
1
1
1
1
1
1
1
1
1
1
1
1
1
1
1
1
1
1
1
1
1
1
1
1
1
1
1
1
1
1
1
0.95547
0.959487
0.976207
0.993284
1
1
1
1
1
1
1
1
1
1
1
1
1
1
1
1
1
1
1
0.800868
0.664191
0.664191
0.664191
0.664191
0.82978
0.897557
0.897555
0.868436
0.795612
0.835533
0.835562
0.834432
0.83443
0.834243
0.834292
0.834293
0.83431
0.834294
0.811978
0.811694
0.811488
0.730693
0.681587
0.895935
0.897555
0.854141
0.865994
0.795573
0.720998
0.66495
0.64237
0.667394
0.752224
0.793884
0.812746
0.834293
0.83431
0.811978
0.756762
0.650995
0.637503
0.736628
0.82301
0.916367
0.554153
0.246559
0.246563
0.291635
0.112436
0.0523885
0.058704
0.141268
0.252048
0.322403
0.524533
0.605696
0.802218
0.22954
0.102421
0.0676372
0.134205
0.455284
0.918877
0.970445
0.605997
0.366388
0.124167
0.000587261
0.000587261
0.000587261
0.00134431
0.00811092
0.0181625
0.135038
0.214014
0.640574
0.0152568
7.3484e-20
4.69906e-05
6.9571e-19
0.392955
0.893066
0.997373
0.988429
0.883495
0.701837
0.435724
0.153098
0.000587261
0.000587261
0.000587261
0.000587261
0.0306217
0.455858
0.641371
0.0247916
-8.57206e-26
2.57785e-07
3.48626e-19
0.762634
0.992083
0.997372
0.997373
0.997372
0.994412
0.974628
0.858628
0.610468
0.309182
0.0577854
0.000587261
0.117887
0.765326
0.748074
0.0411351
-2.8537e-23
-1.77605e-20
0.088002
0.860869
0.995305
0.997373
0.995963
0.990042
0.9962
0.996224
0.9962
0.996138
0.939586
0.787253
0.599786
0.541571
0.765361
0.750608
0.0408187
-9.83195e-22
1.73699e-21
0.545247
0.956624
0.992211
0.938805
0.836584
0.687323
0.709681
0.773025
0.870495
0.941671
0.958666
0.959031
0.958655
0.763561
0.76328
0.402004
0.421453
0.460788
0.524094
0.612205
0.694829
0.788182
0.879554
0.956549
1
1
1
1
1
1
1
1
1
1
1
1
1
1
5.37814e-05
0.000251222
0.000773266
0.00364348
0.0161641
0.0489842
0.10145
0.187862
0.316024
0.497399
0.679498
0.812849
0.921495
0.995106
1
1
0.999971
0.999934
0.999995
1
1
1
0.999993
4.74227e-12
2.37457e-10
6.68436e-09
1.06958e-07
2.08142e-07
1.32263e-08
9.39331e-05
0.00122465
0.00677654
0.0256454
0.0831071
0.185242
0.308297
0.481622
0.654202
0.769018
0.838725
0.944681
0.980949
0.998758
0.998168
1
1
7.42531e-16
1.7545e-14
3.3156e-13
4.61271e-13
2.29792e-11
1.32255e-08
4.22453e-07
5.95861e-06
5.88301e-05
0.000437303
0.00231078
0.0083803
0.0217304
0.0449593
0.0842901
0.122069
0.141296
0.206422
0.33851
0.527679
0.673637
0.931331
1
3.29222e-16
1.35121e-14
2.50402e-13
3.07071e-12
5.46189e-11
1.20003e-09
3.86635e-09
4.99248e-09
5.1676e-08
4.41489e-07
2.51135e-06
5.94654e-06
6.53609e-06
-2.81597e-25
-1.13693e-24
-1.04915e-24
-1.09058e-32
-4.62452e-30
7.7252e-21
0.0125306
0.0736433
0.23182
0.405237
1.17888e-16
4.13421e-15
9.80467e-14
1.47763e-12
1.4142e-11
8.45982e-11
1.29663e-10
1.7005e-10
2.05331e-09
2.80757e-08
1.96998e-07
8.95558e-07
1.24815e-06
-5.76542e-27
-7.30415e-27
3.77342e-31
2.57555e-13
2.48679e-10
9.63485e-06
0.00220823
0.0590257
0.13825
0.154429
1.17886e-16
5.25173e-15
1.09189e-13
1.2975e-12
8.87356e-12
3.38127e-11
7.30574e-11
1.34198e-10
2.29797e-10
9.90525e-09
8.99749e-07
2.06695e-06
1.66442e-06
1.03483e-07
8.88857e-29
7.8205e-10
1.81898e-13
3.96722e-12
1.04057e-05
0.0147225
0.141445
0.188075
0.0978422
5.34743e-17
2.56329e-15
5.65764e-14
7.03513e-13
5.08889e-12
2.32217e-11
8.22187e-11
2.49644e-10
4.16916e-10
1.14873e-08
1.10057e-06
2.06669e-06
1.56499e-06
7.07573e-08
1.06922e-09
4.00602e-08
1.77314e-08
8.4366e-09
3.52696e-06
0.000832752
0.0384312
0.188609
0.218971
2.11794e-17
9.96228e-16
2.18613e-14
2.85396e-13
2.39618e-12
1.45883e-11
8.23519e-11
4.03647e-10
1.40767e-09
1.96402e-08
3.233e-07
7.03806e-07
3.79147e-07
3.216e-08
1.07003e-09
4.89407e-08
2.79934e-07
3.18219e-07
3.03843e-07
2.7339e-07
2.73266e-07
2.7339e-07
0.22268
5.8756e-18
2.82996e-16
6.57788e-15
9.50906e-14
9.74029e-13
8.28527e-12
6.7755e-11
4.59491e-10
2.72438e-09
8.57187e-09
4.29502e-09
1.87186e-09
3.60763e-09
4.66687e-09
3.13317e-09
2.57198e-08
2.37055e-07
3.65882e-07
3.65882e-07
3.07858e-07
1.66817e-06
3.6088e-06
3.60813e-06
1.77142e-18
8.39745e-17
1.96341e-15
2.99586e-14
3.59697e-13
4.00645e-12
4.31673e-11
3.72406e-10
1.50895e-09
1.76954e-09
3.40442e-10
1.36937e-10
1.55877e-10
7.23926e-10
3.57747e-09
1.75187e-08
6.58763e-08
2.66956e-07
3.1609e-07
2.67245e-07
2.36391e-06
7.74525e-06
5.07471e-06
4.47034e-19
2.09001e-17
4.88179e-16
7.57238e-15
9.75963e-14
1.2232e-12
1.47067e-11
1.41639e-10
4.20293e-10
4.91646e-10
2.33682e-10
1.36937e-10
1.47141e-10
4.19248e-10
2.16665e-09
1.04497e-08
1.03958e-08
2.65589e-08
7.9932e-08
5.71143e-08
3.04044e-07
7.05825e-06
8.98411e-06
1.05006e-19
4.79221e-18
1.1065e-16
1.69645e-15
2.20572e-14
2.85892e-13
3.4882e-12
3.20018e-11
1.02405e-10
1.35267e-10
1.06238e-10
1.05104e-10
1.24026e-10
2.7364e-10
7.33373e-10
2.47763e-09
2.20003e-09
1.69351e-09
2.32796e-09
1.53791e-09
1.31899e-10
7.18535e-07
6.81798e-06
2.16521e-20
9.65782e-19
2.21262e-17
3.32118e-16
4.20933e-15
5.42877e-14
6.71839e-13
6.20614e-12
2.1681e-11
3.26598e-11
3.39532e-11
4.33793e-11
6.59729e-11
1.28627e-10
2.67649e-10
5.81684e-10
7.76904e-10
8.82206e-10
6.25857e-10
3.65648e-10
1.31843e-10
2.90886e-08
4.97972e-07
4.03959e-21
1.76383e-19
4.03374e-18
5.95598e-17
7.30694e-16
9.20014e-15
1.1399e-13
1.06406e-12
3.96127e-12
6.86137e-12
8.72234e-12
1.15159e-11
1.87556e-11
3.93964e-11
8.55286e-11
1.68817e-10
2.68313e-10
3.98737e-10
4.22044e-10
3.37443e-10
1.31899e-10
2.87563e-09
7.9724e-09
6.72843e-22
2.87369e-20
6.58683e-19
9.62244e-18
1.14307e-16
1.39276e-15
1.72172e-14
1.62444e-13
6.27212e-13
1.2448e-12
1.83919e-12
2.57028e-12
4.24557e-12
9.12282e-12
2.15219e-11
4.4567e-11
7.88365e-11
1.3024e-10
1.82058e-10
2.34678e-10
1.51885e-10
6.63534e-10
6.30119e-10
1.00917e-22
4.22322e-21
9.7419e-20
1.42037e-18
1.65208e-17
1.95698e-16
2.41412e-15
2.2289e-14
8.74002e-14
1.9488e-13
3.21712e-13
4.77817e-13
7.9557e-13
1.70914e-12
4.29466e-12
9.67087e-12
1.89509e-11
3.4489e-11
5.49952e-11
8.81397e-11
1.01907e-10
2.23165e-10
2.26895e-10
1.35991e-23
5.58386e-22
1.29886e-20
1.89936e-19
2.17868e-18
2.51172e-17
3.11221e-16
2.74151e-15
1.07194e-14
2.62513e-14
4.68087e-14
7.35342e-14
1.23839e-13
2.64641e-13
6.89115e-13
1.68017e-12
3.62399e-12
7.23452e-12
1.29161e-11
2.1636e-11
3.29624e-11
6.01031e-11
7.00684e-11
1.65663e-24
6.69883e-23
1.57327e-21
2.31722e-20
2.64184e-19
2.97443e-18
3.70547e-17
3.04908e-16
1.16608e-15
3.05729e-15
5.7169e-15
9.42401e-15
1.60771e-14
3.43226e-14
9.06614e-14
2.34868e-13
5.49276e-13
1.18747e-12
2.33041e-12
4.16271e-12
6.76066e-12
1.16748e-11
1.59909e-11
1.83824e-25
7.36334e-24
1.74562e-22
2.59414e-21
2.95314e-20
3.25387e-19
4.03675e-18
3.07492e-17
1.13117e-16
3.09083e-16
5.90392e-16
1.01062e-15
1.73998e-15
3.72843e-15
9.82633e-15
2.63999e-14
6.54065e-14
1.49829e-13
3.15861e-13
5.9725e-13
1.0231e-12
1.70345e-12
2.54763e-12
1.86648e-26
7.45596e-25
1.78141e-23
2.67105e-22
3.04193e-21
3.28658e-20
3.9927e-19
2.81195e-18
9.82485e-18
2.72395e-17
5.1933e-17
9.12093e-17
1.57165e-16
3.38997e-16
8.7835e-16
2.38681e-15
6.07781e-15
1.4324e-14
3.14873e-14
6.15745e-14
1.09753e-13
1.79441e-13
2.81591e-13
1.75966e-27
7.06633e-26
1.69737e-24
2.56617e-23
2.92726e-22
3.11062e-21
3.60678e-20
2.34242e-19
7.69805e-19
2.11187e-18
3.93394e-18
6.98165e-18
1.18732e-17
2.56582e-17
6.4034e-17
1.70913e-16
4.29333e-16
9.98096e-16
2.19106e-15
4.24726e-15
7.65114e-15
1.21327e-14
1.97458e-14
1.55845e-28
6.33383e-27
1.52496e-25
2.31902e-24
2.643e-23
2.75453e-22
2.97913e-21
1.78078e-20
5.46434e-20
1.4494e-19
2.58142e-19
4.54516e-19
7.47494e-19
1.59851e-18
3.73205e-18
9.4394e-18
2.20577e-17
4.73983e-17
9.59163e-17
1.67523e-16
2.84941e-16
4.35042e-16
7.69423e-16
1.31427e-29
5.43246e-28
1.30734e-26
1.99349e-25
2.26202e-24
2.30022e-23
2.27553e-22
1.24567e-21
3.54621e-21
8.90357e-21
1.48624e-20
2.54155e-20
3.95387e-20
8.12673e-20
1.69042e-19
3.83097e-19
7.38535e-19
1.30436e-18
2.44342e-17
4.24046e-16
2.01883e-15
6.98088e-15
1.8063e-14
1.07116e-30
4.51521e-29
1.0833e-27
1.64917e-26
1.85264e-25
1.82015e-24
1.62481e-23
8.10163e-23
2.12759e-22
4.94932e-22
7.59555e-22
1.22768e-21
1.7243e-21
3.21271e-21
5.63354e-21
1.77691e-20
1.47324e-18
3.21743e-16
7.08132e-15
3.30832e-14
9.36756e-14
2.28469e-13
6.22911e-13
8.51993e-32
3.6629e-30
8.74164e-29
1.32199e-27
1.46012e-26
1.37095e-25
1.09681e-24
4.95614e-24
1.18769e-23
2.41569e-23
3.42837e-23
7.28456e-23
8.84466e-22
3.0193e-20
1.21333e-18
4.99131e-17
1.87671e-15
4.30324e-14
2.95844e-13
7.72226e-13
1.65323e-12
3.39367e-12
1.21195e-11
6.70744e-33
2.93691e-31
6.9496e-30
1.03537e-28
1.10162e-27
9.37796e-27
6.78263e-26
3.09009e-25
1.92724e-24
4.59696e-23
1.39476e-21
4.03218e-20
1.06469e-18
2.58544e-17
5.77944e-16
1.1503e-14
1.9469e-13
1.6464e-12
5.34437e-12
9.28261e-12
1.66208e-11
3.19762e-11
8.50051e-10
4.90138e-34
2.19e-32
5.32607e-31
9.80762e-30
2.48278e-28
1.01984e-26
4.33485e-25
1.72526e-23
5.89627e-22
1.72013e-20
4.33413e-19
9.52526e-18
1.8516e-16
3.19905e-15
4.89155e-14
6.35746e-13
6.73087e-12
3.36663e-11
9.39328e-11
7.6423e-10
3.0224e-09
4.81924e-09
1.47546e-07
4.14253e-34
5.13856e-32
7.00475e-30
6.49644e-28
4.3966e-26
2.29062e-24
9.54144e-23
3.25805e-21
9.29083e-20
2.24094e-18
4.62712e-17
8.24361e-16
1.28031e-14
1.73688e-13
2.05389e-12
2.09731e-11
2.02436e-10
2.19578e-09
2.67253e-08
2.69471e-07
9.03774e-07
1.04098e-06
9.16892e-07
3.30709e-32
9.0244e-30
1.18475e-27
9.92726e-26
5.96516e-24
2.73502e-22
9.95021e-21
2.94701e-19
7.24037e-18
1.49449e-16
2.62111e-15
3.93283e-14
5.08805e-13
5.68389e-12
5.53477e-11
5.84098e-10
9.55325e-09
1.53106e-07
1.38617e-06
2.56819e-06
2.56815e-06
1.94677e-06
4.35421e-07
4.2016e-30
1.01043e-27
1.16564e-25
8.57472e-24
4.51739e-22
1.81217e-20
5.74806e-19
1.4766e-17
3.12259e-16
5.48671e-15
8.0531e-14
9.85011e-13
9.9622e-12
8.23111e-11
7.26586e-10
1.23123e-08
2.98845e-07
2.3893e-06
3.18958e-06
3.17161e-06
1.08109e-06
1.32231e-11
1.32235e-11
2.1606e-28
4.82999e-26
5.1571e-24
3.48591e-22
1.66927e-20
6.00459e-19
1.68046e-17
3.73628e-16
6.68235e-15
9.65057e-14
1.12371e-12
1.04482e-11
7.69205e-11
5.25722e-10
9.34904e-09
4.53357e-07
2.72322e-06
2.90344e-06
2.08135e-06
2.35945e-11
2.35944e-11
1.16364e-10
3.87218e-10
7.10494e-27
1.37822e-24
1.2657e-22
7.2888e-21
2.94241e-19
8.82247e-18
2.03191e-16
3.65905e-15
5.19279e-14
5.77975e-13
4.9495e-12
3.12135e-11
1.72229e-10
8.51257e-09
5.18403e-07
2.79278e-06
2.78823e-06
1.59244e-06
2.4197e-11
2.57684e-11
1.63716e-10
3.43721e-10
4.6473e-10
5.00263e-26
8.99313e-24
7.6509e-22
4.07801e-20
1.52048e-18
4.19203e-17
8.82283e-16
1.44355e-14
1.85671e-13
1.88031e-12
1.41931e-11
7.80306e-11
2.27949e-09
2.09808e-07
2.28123e-06
2.78823e-06
1.64361e-06
2.68752e-11
3.70841e-11
1.2926e-10
1.89692e-10
1.65238e-10
1.11493e-10
2.32261e-25
3.83071e-23
2.97532e-21
1.43898e-19
4.83219e-18
1.19012e-16
2.22123e-15
3.13361e-14
3.34318e-13
2.70131e-12
1.69511e-11
1.26184e-10
2.13183e-08
1.37133e-06
3.05188e-06
2.20022e-06
5.51169e-12
2.68742e-11
6.25864e-11
7.44426e-11
4.95282e-11
2.79615e-11
2.18753e-11
6.42599e-25
9.72496e-23
6.88519e-21
3.01031e-19
9.04639e-18
1.96615e-16
3.16037e-15
3.82256e-14
3.50805e-13
2.4651e-12
1.38307e-11
3.54538e-10
1.45421e-07
2.23691e-06
3.05794e-06
5.10373e-07
5.51167e-12
2.12802e-11
2.62839e-11
1.57921e-11
8.02425e-12
5.57866e-12
5.63608e-12
1.44353e-24
2.17139e-22
1.52706e-20
6.6111e-19
1.95615e-17
4.15949e-16
6.51788e-15
7.60465e-14
6.63032e-13
4.36757e-12
2.34003e-11
1.42263e-09
4.37685e-07
2.23762e-06
9.10758e-07
3.41002e-12
5.59778e-12
8.52095e-12
5.22359e-12
2.4199e-12
1.37318e-12
1.099e-12
1.526e-12
5.63273e-24
8.29427e-22
5.68809e-20
2.39534e-18
6.90378e-17
1.4399e-15
2.24333e-14
2.64366e-13
2.33685e-12
1.5023e-11
1.27308e-10
2.33933e-08
5.26669e-07
6.82951e-07
4.73777e-09
3.40998e-12
3.6247e-12
3.01336e-12
7.89474e-13
3.33603e-13
1.99252e-13
1.82875e-13
3.59066e-13
1.17216e-23
1.88405e-21
1.41043e-19
6.45181e-18
2.00061e-16
4.4312e-15
7.24698e-14
9.00146e-13
8.72807e-12
6.82261e-11
1.29867e-09
8.20011e-08
3.69606e-07
5.93951e-08
3.40998e-12
3.41002e-12
4.96516e-12
1.05189e-12
1.12935e-13
3.49892e-14
2.27126e-14
2.4975e-14
6.10426e-14
3.96728e-23
6.21433e-21
4.41018e-19
1.90241e-17
5.65454e-16
1.2257e-14
1.97611e-13
2.34869e-12
2.08198e-11
1.72036e-10
6.87672e-09
1.18157e-07
1.48146e-07
3.24621e-12
3.699e-12
8.97036e-12
7.40666e-12
4.41969e-13
1.4349e-14
2.60523e-15
1.78252e-15
2.355e-15
5.64027e-15
3.65267e-23
6.38154e-21
5.28595e-19
2.64882e-17
8.84505e-16
2.13712e-14
3.79048e-13
5.01557e-12
5.09466e-11
5.92745e-10
1.73143e-08
8.18403e-08
3.19433e-08
3.24622e-12
9.37982e-12
2.21429e-11
6.40436e-12
1.09096e-13
9.0689e-16
1.03281e-16
7.80802e-17
1.18688e-16
1.50188e-16
2.30692e-23
4.91052e-21
4.90731e-19
3.03443e-17
1.26233e-15
3.60808e-14
7.32495e-13
1.07411e-11
1.19069e-10
1.39137e-09
1.19546e-08
1.70432e-08
2.93795e-09
3.95442e-10
1.78587e-10
5.15895e-11
1.1497e-12
-8.90066e-39
9.62482e-20
1.93326e-20
8.10957e-22
2.47188e-23
-2.13684e-32
0.999179
0.897522
0.581233
0.525874
0.983924
0.558166
0.166767
0.0923726
0.999438
0.953647
0.511449
0.191601
1
1
0.978796
0.858134
0.718282
0.827869
0.902255
0.921737
0.186639
0.339764
0.432207
0.485168
0.0496109
0.049555
0.293282
0.503116
0.191353
0.118885
0.184493
0.26329
0.677664
0.67766
0.677664
0.677041
0.0127825
0.340091
0.641189
0.680701
1.49594e-06
1.49593e-06
3.33684e-05
0.109791
4.21934e-06
1.86665e-06
1.70263e-06
7.31796e-07
1.45033e-05
1.71505e-05
1.09209e-05
7.31982e-07
2.25623e-06
4.66065e-06
1.63814e-06
8.40741e-06
3.83505e-08
2.88139e-08
5.68311e-10
8.56133e-07
5.3106e-10
3.62361e-10
5.6829e-10
2.1368e-09
1.77747e-10
1.66028e-10
3.34953e-10
2.60111e-10
6.57067e-11
6.80544e-11
9.34322e-11
8.78621e-11
1.67375e-11
1.8091e-11
2.09697e-11
2.21239e-11
2.97535e-12
3.37232e-12
3.73808e-12
4.29408e-12
3.58446e-13
4.19404e-13
4.76809e-13
5.84165e-13
2.63041e-14
3.1677e-14
3.77383e-14
4.88012e-14
1.11393e-15
1.45765e-15
2.00821e-15
3.04978e-15
3.16122e-14
4.84963e-14
8.45768e-14
1.82768e-13
1.10017e-12
1.62981e-12
2.94598e-12
7.3145e-12
2.09613e-11
2.66872e-11
8.47334e-11
2.94526e-10
1.9827e-09
2.08211e-09
1.82449e-08
4.10733e-08
2.74655e-07
3.31401e-07
3.71282e-07
3.1522e-07
9.16873e-07
7.85979e-07
3.81286e-07
1.025e-07
1.83011e-07
1.87192e-08
4.17602e-11
3.98686e-11
1.32231e-11
1.32235e-11
4.12302e-10
8.07506e-10
5.44767e-10
7.20064e-10
1.06296e-09
1.27243e-09
5.04691e-10
5.17163e-10
5.31356e-10
6.96419e-10
9.82601e-11
1.11476e-10
1.47804e-10
2.20856e-10
2.72409e-11
4.07948e-11
5.82884e-11
8.56247e-11
1.00811e-11
1.637e-11
2.37463e-11
3.34203e-11
3.33666e-12
5.53981e-12
7.85683e-12
1.02418e-11
8.43273e-13
1.37012e-12
1.77488e-12
2.02586e-12
1.425e-13
2.0526e-13
2.31114e-13
2.30538e-13
1.07971e-14
1.25629e-14
1.25567e-14
1.11543e-14
1.1785e-16
6.29179e-17
4.16135e-17
4.25731e-17
1.23024e-44
8.76763e-26
3.98213e-23
4.70513e-22
0.597897
-1.1026e-20
-1.74313e-20
0.304178
0.903193
0.956635
0.820719
0.457371
0.217124
0.0862182
0.0580846
0.0684678
0.108887
0.162109
0.225445
0.330354
0.660612
0.599007
0.763653
0.0567639
1.00176e-23
0.225964
0.911692
1
0.904494
0.222722
7.0965e-09
7.0965e-09
7.0965e-09
7.0965e-09
2.87195e-05
0.000186067
0.000571829
0.00154913
0.00608264
0.140776
0.298949
0.765984
0.118155
0.413358
0.96509
1
1
0.303549
2.41371e-06
0.000143473
2.62939e-06
1.61538e-07
1.48128e-05
2.49724e-05
9.61081e-06
1.8729e-06
5.44393e-06
0.000257694
0.008614
0.16994
0.765984
0.810414
0.987015
0.987019
0.914534
0.525589
0.0152721
2.41409e-06
2.41456e-06
3.0619e-07
3.0313e-11
3.0313e-11
3.0313e-11
3.0313e-11
1.75991e-07
5.50609e-07
1.96457e-05
0.000888321
0.0297129
0.727825
0.921868
0.850517
0.756932
0.27905
5.91919e-07
5.93344e-07
2.43058e-06
7.79001e-09
8.53948e-11
3.10426e-11
6.36762e-11
4.60893e-10
2.24382e-09
3.21304e-09
4.45457e-08
2.16241e-06
0.000737224
0.0410168
0.718317
0.526582
0.527012
0.290032
1.21314e-06
1.21318e-06
5.93517e-07
1.17864e-07
3.0313e-11
6.49614e-11
1.0285e-10
1.07114e-10
1.59943e-10
5.99581e-10
3.33473e-09
1.94311e-08
1.16555e-07
2.48694e-16
0.0154414
0.713219
0.526646
0.243373
1.22985e-06
1.21454e-06
1.70775e-06
1.40945e-06
3.0313e-11
3.0313e-11
1.18265e-06
3.05777e-06
2.47419e-07
1.33347e-08
1.09573e-07
1.46526e-06
1.08199e-05
6.72637e-06
2.48198e-16
0.00585159
0.69271
0.308043
0.0191968
1.22988e-06
1.22985e-06
2.57958e-06
4.01784e-06
6.57824e-05
0.000701223
0.0059328
0.0105304
0.000879598
1.27026e-05
0.000520875
0.00493453
0.0197111
0.0169992
0.000246287
0.00680348
0.678406
0.338629
0.113641
0.0372341
0.00468534
2.57959e-06
3.98795e-06
0.000145546
0.0287483
0.261998
0.367551
0.056677
0.00527968
0.0864714
0.271347
0.518169
0.484325
0.0710962
0.0444118
0.648629
0.680578
0.680609
0.539609
0.11211
2.5787e-06
2.61235e-06
0.0124639
0.321066
0.688153
0.688151
0.435431
0.228688
0.66246
0.875989
0.986129
0.986259
0.705688
0.358216
0.625174
0.41737
0.686487
0.705421
0.70539
0.586116
0.491914
0.57198
0.697316
0.697329
0.687637
0.632055
0.6188
0.916381
0.935845
0.986032
0.990179
0.990179
0.903349
0.831153
7.31982e-07
0.110586
0.490821
0.664153
0.707127
0.70714
0.673195
0.484726
0.292674
0.200276
0.288703
0.465045
0.283762
0.25957
0.626177
0.990139
0.990179
0.990179
0.990179
1.7646e-06
5.09698e-07
5.09781e-07
0.0303527
0.127164
0.143386
0.0465337
3.84079e-10
3.84079e-10
3.84079e-10
0.0132234
0.0146163
3.84079e-10
3.84079e-10
0.137826
0.812327
0.990179
0.990179
0.990179
1.14222e-05
6.51912e-06
5.09896e-07
3.84079e-10
3.84079e-10
3.84079e-10
3.84079e-10
3.84079e-10
3.86533e-10
3.84079e-10
3.84079e-10
3.84079e-10
6.086e-06
0.000914308
0.017562
0.3624
0.84431
0.976348
0.988391
1.20375e-06
2.49931e-06
4.48967e-06
1.6284e-06
3.84079e-10
3.84079e-10
3.84079e-10
2.58004e-08
9.23568e-09
3.84079e-10
8.28725e-10
2.47824e-08
1.33447e-05
0.005316
0.0534725
0.113069
0.198746
0.476678
0.680275
2.9912e-08
1.14119e-07
1.54439e-07
2.42345e-06
3.84079e-10
4.69404e-06
1.04044e-05
1.03904e-05
1.12373e-07
3.84079e-10
1.45755e-09
5.26605e-08
9.17393e-06
0.0100472
0.0653935
0.0652755
0.0204223
0.0204185
0.0651556
1.28188e-09
2.97399e-09
6.95032e-10
6.62539e-07
6.14819e-06
7.93941e-06
3.86072e-05
4.21206e-05
1.8747e-05
3.84079e-10
2.66208e-09
4.14082e-08
1.11232e-05
0.00132484
0.0147056
0.0417898
0.0298645
0.0225554
0.0225545
3.30043e-10
8.91897e-10
6.95031e-10
3.6935e-11
3.77984e-06
2.82398e-07
2.90654e-05
4.21201e-05
4.21206e-05
1.25209e-05
6.77925e-08
5.01258e-09
4.22064e-06
1.44171e-11
1.44173e-11
0.012341
0.103528
0.126439
0.266685
1.33448e-10
4.48087e-10
4.35622e-10
3.69352e-11
2.06167e-07
3.87573e-09
3.40535e-06
4.56009e-06
3.16415e-05
3.39036e-05
8.33121e-06
1.28861e-07
1.84239e-06
2.48755e-07
2.05036e-05
4.98868e-06
0.0248094
0.122365
0.400776
3.35505e-11
1.20535e-10
1.5215e-10
8.32008e-11
2.448e-10
3.875e-09
1.659e-09
1.39296e-07
1.98019e-06
2.926e-06
2.06719e-06
3.11871e-07
7.81662e-07
1.23885e-11
9.67978e-05
4.99367e-06
4.98868e-06
0.0186348
0.400776
4.77642e-12
1.84969e-11
2.82385e-11
3.1852e-11
2.57772e-12
1.89697e-09
1.65903e-09
3.32971e-09
4.10916e-09
4.32852e-09
1.04699e-08
1.85745e-09
6.65024e-08
1.25031e-11
9.67644e-05
2.19294e-05
2.40861e-05
0.00741882
0.400776
3.78645e-13
1.55616e-12
2.8956e-12
4.45162e-12
2.57774e-12
1.70477e-10
5.01389e-10
3.86527e-10
1.94297e-10
9.46213e-11
7.92118e-11
3.3869e-10
1.25031e-11
1.23885e-11
5.1855e-05
0.000125035
5.11067e-05
0.00115111
0.400776
1.73776e-14
6.54526e-14
1.55943e-13
3.33547e-13
6.96732e-13
1.07398e-11
4.28693e-11
4.88917e-11
4.36752e-11
4.37246e-11
4.51601e-11
1.50003e-10
1.46643e-10
1.2391e-11
2.35044e-05
0.000344681
0.000101669
-7.38811e-24
0.40065
8.07396e-13
1.05361e-12
6.86441e-13
1.87115e-13
1.38212e-13
5.83938e-13
2.50796e-12
5.32105e-12
9.26498e-12
1.58916e-11
2.53302e-11
5.5359e-11
5.20178e-11
1.23885e-11
4.29196e-05
0.000359613
0.000163722
-4.82786e-23
0.247852
2.69609e-11
4.58105e-11
3.44572e-11
1.36635e-11
2.97106e-12
6.00965e-13
4.49367e-13
7.75995e-13
2.185e-12
5.72779e-12
1.25139e-11
3.1392e-11
2.77242e-11
1.23902e-11
3.34963e-05
0.000359784
0.000172788
-4.32594e-22
0.160179
9.0425e-10
1.5087e-09
6.8002e-10
2.25665e-10
7.49758e-11
1.89425e-11
3.81318e-12
1.09741e-12
9.76922e-13
1.97021e-12
5.7999e-12
2.18234e-11
2.05362e-11
1.23885e-11
1.7559e-05
0.000321787
0.000122025
0.00150001
0.150602
5.11177e-08
2.50732e-08
4.22791e-09
1.21936e-09
5.67349e-10
2.23204e-10
6.54596e-11
1.63107e-11
3.65082e-12
2.02719e-12
2.9713e-12
1.56916e-11
1.58626e-11
1.23902e-11
1.10509e-06
0.000284542
5.37989e-05
0.00484155
0.0407203
1.39694e-07
3.53057e-08
1.26506e-08
4.54281e-09
2.79922e-09
1.36538e-09
5.14229e-10
1.59619e-10
4.34523e-11
1.03053e-11
4.29117e-12
1.15275e-11
1.25356e-11
1.23885e-11
1.23902e-11
0.000158201
3.99557e-05
0.00457819
0.00097964
2.18367e-08
2.7583e-08
3.55729e-08
2.56309e-08
1.39644e-08
5.7049e-09
2.34481e-09
8.36669e-10
2.57179e-10
7.23185e-11
1.73346e-11
1.26205e-11
1.6038e-11
1.30976e-11
1.23885e-11
4.23669e-05
3.99567e-05
0.000587175
0.0010043
4.17602e-11
1.69032e-10
3.15673e-08
4.21348e-08
2.44975e-08
1.08764e-08
7.18414e-09
3.36977e-09
9.13405e-10
3.48911e-10
1.09627e-10
3.63508e-11
2.6395e-11
1.50699e-11
1.23902e-11
1.65337e-05
3.99557e-05
3.45213e-23
0.0514682
8.74397e-10
7.86408e-10
5.09533e-09
1.44284e-07
7.17685e-08
3.27177e-08
3.06136e-08
2.78568e-08
1.53591e-08
2.30539e-09
3.83226e-10
8.00852e-11
2.98819e-11
1.45055e-11
1.23885e-11
1.57808e-05
3.99567e-05
-2.0371e-23
0.107604
1.31484e-09
1.23871e-09
1.06685e-09
2.1065e-07
1.10379e-06
3.16607e-07
3.5884e-07
2.80859e-07
3.41512e-08
2.89055e-10
2.90136e-10
3.75746e-10
3.15492e-10
9.97499e-11
1.2391e-11
1.36418e-05
1.94876e-05
2.35913e-23
0.107606
1.06829e-09
1.2991e-09
1.06674e-09
8.71895e-08
1.5585e-06
8.35122e-07
6.95671e-07
2.72357e-06
2.2048e-06
6.10354e-07
2.05578e-08
6.05942e-10
3.56456e-10
1.25315e-10
1.23885e-11
1.47162e-06
1.06964e-05
7.59763e-24
0.107584
4.20073e-10
1.03201e-09
1.06676e-09
3.25621e-10
1.32025e-06
1.35472e-06
2.53096e-07
4.00064e-06
6.71202e-06
1.87113e-06
1.75824e-07
7.11283e-10
1.30411e-10
7.51123e-11
1.26669e-11
1.26652e-11
3.58963e-05
2.67932e-23
0.0447257
1.52434e-10
3.82874e-10
8.93296e-10
3.25622e-10
2.24435e-11
5.7687e-07
2.06564e-07
1.09253e-08
2.57661e-05
1.50584e-05
1.17507e-08
3.69587e-10
1.43373e-09
9.46523e-10
1.23885e-11
1.06499e-05
4.26289e-05
4.68955e-06
2.90909e-07
5.30614e-11
1.26412e-10
3.32206e-10
3.08094e-10
2.24435e-11
2.24435e-11
4.51304e-08
2.24435e-11
2.37604e-05
4.88937e-05
1.57715e-05
1.15392e-06
4.43753e-09
5.94258e-10
1.25031e-11
1.36605e-05
4.26226e-05
9.10981e-06
2.90789e-07
1.42826e-11
2.71545e-11
5.8726e-11
7.91724e-11
3.13302e-11
1.30882e-10
2.24435e-11
2.24435e-11
1.02558e-05
0.000180163
7.42492e-05
2.39803e-06
1.00774e-08
1.73114e-10
1.23885e-11
6.14941e-06
2.5459e-05
5.37503e-06
3.75358e-07
2.22168e-12
2.3786e-12
3.45071e-12
1.01539e-11
5.05249e-11
6.93009e-10
7.40216e-09
2.24435e-11
8.52013e-05
0.000190408
0.000167041
1.84615e-05
5.40659e-08
5.51077e-11
1.25031e-11
3.41363e-07
3.6126e-07
3.55556e-07
8.17146e-06
1.95442e-13
1.38205e-13
2.86584e-13
2.76511e-12
3.94782e-11
6.86164e-10
7.40644e-09
2.24435e-11
9.66593e-05
0.000190407
0.000190408
5.00108e-05
3.5303e-08
3.38613e-11
1.25117e-11
2.72935e-09
3.28947e-10
1.14938e-06
1.24451e-05
9.98079e-15
1.49438e-14
9.41866e-14
7.16582e-13
7.93715e-12
1.46348e-10
2.77228e-09
2.25349e-11
6.17767e-06
0.000186762
0.000190407
4.95175e-05
1.73634e-08
4.05071e-11
6.40746e-09
3.5762e-09
3.28947e-10
9.8322e-06
1.08246e-05
1.24684e-16
7.19373e-16
3.78566e-15
1.42013e-14
3.09874e-14
1.19732e-12
2.9021e-10
2.14425e-08
-1.43495e-27
0.00018033
0.000190408
2.78571e-05
1.64026e-08
3.47525e-11
1.15613e-08
1.15414e-08
2.45749e-09
1.11614e-05
5.40888e-06
6.08741e-21
1.04644e-19
1.85506e-18
3.31248e-17
5.71194e-16
3.38545e-15
-3.05745e-73
1.15586e-54
-1.99501e-57
6.24954e-05
6.69456e-05
1.03412e-05
9.34726e-09
3.11384e-11
1.15583e-08
1.09603e-08
3.28947e-10
7.19836e-06
4.88898e-06
)
;

boundaryField
{
    leftWall
    {
        type            zeroGradient;
    }
    rightWall
    {
        type            zeroGradient;
    }
    lowerWall
    {
        type            zeroGradient;
    }
    atmosphere
    {
        type            inletOutlet;
        inletValue      uniform 0;
        value           nonuniform List<scalar> 
46
(
2.30692e-23
4.91052e-21
4.90731e-19
3.03443e-17
1.26233e-15
3.60808e-14
7.32495e-13
1.07411e-11
1.19069e-10
1.39137e-09
1.19546e-08
1.70432e-08
2.93795e-09
3.95442e-10
1.78587e-10
0
0
0
0
0
0
0
0
0
0
0
0
0
0
0
0
0
0
0
0
0
0
6.69456e-05
1.03412e-05
9.34726e-09
3.11384e-11
1.15583e-08
1.09603e-08
3.28947e-10
7.19836e-06
4.88898e-06
)
;
    }
    defaultFaces
    {
        type            empty;
    }
}


// ************************************************************************* //
