/*--------------------------------*- C++ -*----------------------------------*\
| =========                 |                                                 |
| \\      /  F ield         | OpenFOAM: The Open Source CFD Toolbox           |
|  \\    /   O peration     | Version:  2012                                  |
|   \\  /    A nd           | Website:  www.openfoam.com                      |
|    \\/     M anipulation  |                                                 |
\*---------------------------------------------------------------------------*/
FoamFile
{
    version     2.0;
    format      ascii;
    class       volScalarField;
    location    "0.2";
    object      maxKappa;
}
// * * * * * * * * * * * * * * * * * * * * * * * * * * * * * * * * * * * * * //

dimensions      [0 0 0 0 0 0 0];


internalField   nonuniform List<scalar> 
2268
(
3.15354e-06
6.13359e-06
9.20294e-06
1.23231e-05
1.54555e-05
1.86827e-05
2.19559e-05
2.52583e-05
2.85947e-05
3.1956e-05
3.52803e-05
3.85219e-05
4.13718e-05
4.39062e-05
4.61872e-05
4.74435e-05
4.74435e-05
4.7207e-05
4.53686e-05
4.15076e-05
3.51662e-05
2.60407e-05
1.51952e-05
3.84695e-06
6.4806e-06
9.43315e-06
1.24927e-05
1.55915e-05
1.87973e-05
2.20553e-05
2.53499e-05
2.86798e-05
3.2037e-05
3.53843e-05
3.86133e-05
4.14736e-05
4.40914e-05
4.6302e-05
4.76129e-05
4.76129e-05
4.76025e-05
4.5857e-05
4.21671e-05
3.6221e-05
2.79511e-05
1.90746e-05
4.85701e-06
7.11455e-06
9.87504e-06
1.28258e-05
1.58627e-05
1.90288e-05
2.22594e-05
2.55412e-05
2.88641e-05
3.22264e-05
3.56003e-05
3.88279e-05
4.1794e-05
4.45638e-05
4.67309e-05
4.82026e-05
4.86069e-05
4.86069e-05
4.72807e-05
4.4102e-05
3.88572e-05
3.12832e-05
2.44426e-05
6.02111e-06
7.95661e-06
1.04946e-05
1.33039e-05
1.62545e-05
1.93623e-05
2.25502e-05
2.58076e-05
2.91191e-05
3.24842e-05
3.58563e-05
3.90933e-05
4.21697e-05
4.5049e-05
4.72656e-05
4.87505e-05
4.93352e-05
4.93352e-05
4.83387e-05
4.55951e-05
4.11609e-05
3.54825e-05
3.02386e-05
7.26665e-06
8.94179e-06
1.12611e-05
1.39152e-05
1.67654e-05
1.98049e-05
2.29432e-05
2.61743e-05
2.94788e-05
3.28608e-05
3.62407e-05
3.95393e-05
4.27673e-05
4.58016e-05
4.82245e-05
5.00356e-05
5.10506e-05
5.10506e-05
5.08229e-05
4.90921e-05
4.57632e-05
4.08764e-05
3.66764e-05
8.55965e-06
1.0024e-05
1.21399e-05
1.46332e-05
1.73707e-05
2.03291e-05
2.34051e-05
2.65976e-05
2.98873e-05
3.3272e-05
3.66643e-05
4.00144e-05
4.33393e-05
4.6469e-05
4.90886e-05
5.1179e-05
5.24388e-05
5.26437e-05
5.26437e-05
5.18112e-05
4.97395e-05
4.75759e-05
4.72674e-05
9.87608e-06
1.11722e-05
1.31101e-05
1.54511e-05
1.80744e-05
2.095e-05
2.3964e-05
2.71216e-05
3.0405e-05
3.38101e-05
3.72523e-05
4.07099e-05
4.41718e-05
4.75129e-05
5.04662e-05
5.30348e-05
5.48421e-05
5.60154e-05
5.65597e-05
5.65597e-05
5.59242e-05
5.85619e-05
5.85619e-05
1.1207e-05
1.23647e-05
1.4146e-05
1.63406e-05
1.88447e-05
2.16293e-05
2.45725e-05
2.76846e-05
3.09523e-05
3.43648e-05
3.78429e-05
4.13745e-05
4.49595e-05
4.84687e-05
5.1663e-05
5.45118e-05
5.67496e-05
5.86211e-05
6.04908e-05
6.14754e-05
6.39358e-05
7.7978e-05
8.80131e-05
0.000213889
0.000362476
0.000424499
0.000424499
0.000416919
0.000371501
0.000307792
0.000239998
0.000178861
0.000125921
8.26345e-05
5.04549e-05
2.6382e-05
1.14784e-05
9.58782e-06
9.55274e-06
9.55274e-06
8.12499e-06
5.06314e-06
0.000319349
0.00040926
0.000429565
0.000429565
0.000405507
0.000360903
0.000300977
0.000235356
0.000175681
0.000123403
8.03071e-05
4.82581e-05
2.36557e-05
7.87761e-06
8.3182e-06
1.00024e-05
1.00024e-05
9.83175e-06
7.27832e-06
0.000264338
0.00041345
0.000481526
0.000481526
0.000461818
0.00039925
0.000327741
0.00025408
0.000189403
0.000135102
9.05582e-05
5.79447e-05
3.4451e-05
1.97046e-05
1.50653e-05
1.1518e-05
1.08088e-05
7.96284e-06
4.3886e-06
0.000486998
0.000512032
0.000512032
0.000475864
0.000426636
0.000373046
0.000312311
0.000243016
0.0001811
0.0001283
8.4494e-05
5.26816e-05
2.9377e-05
1.48736e-05
1.24937e-05
1.26918e-05
1.27769e-05
1.27769e-05
1.04701e-05
0.000458093
0.000572975
0.000602388
0.000602388
0.000535007
0.000441266
0.000357133
0.000276261
0.000205755
0.00014925
0.000102389
6.90078e-05
4.48323e-05
2.91759e-05
2.18795e-05
1.62285e-05
1.361e-05
1.05942e-05
6.80103e-06
0.00075552
0.00075552
0.000680711
0.000570125
0.000496428
0.000415265
0.000343194
0.000265273
0.000196732
0.000141824
9.61279e-05
6.39298e-05
4.07596e-05
2.6459e-05
2.13409e-05
1.87142e-05
1.76924e-05
1.72777e-05
1.49309e-05
0.000764751
0.000839219
0.000839219
0.000796697
0.000651617
0.000512745
0.000403336
0.000310348
0.000229121
0.000168408
0.000117933
8.30414e-05
5.72368e-05
3.99557e-05
3.01129e-05
2.26254e-05
1.82813e-05
1.5221e-05
1.14381e-05
0.00117909
0.00117909
0.000922305
0.000729595
0.000652845
0.000510682
0.000401292
0.000306261
0.000225302
0.00016481
0.000115064
8.07894e-05
5.62325e-05
4.05981e-05
3.27035e-05
2.79445e-05
2.4997e-05
2.36382e-05
2.10596e-05
1.44568e-05
1.51151e-05
1.62896e-05
1.80891e-05
2.01992e-05
2.28515e-05
2.56945e-05
2.8747e-05
3.20026e-05
3.5454e-05
3.90311e-05
4.27551e-05
4.66238e-05
5.0581e-05
5.45216e-05
5.85147e-05
6.30468e-05
6.71463e-05
7.2392e-05
7.58591e-05
8.43151e-05
0.00011141
0.000130771
1.7316e-05
1.78717e-05
1.88716e-05
2.04817e-05
2.22462e-05
2.46868e-05
2.73959e-05
3.0358e-05
3.35869e-05
3.7078e-05
4.07949e-05
4.47484e-05
4.90188e-05
5.35425e-05
5.81934e-05
6.33303e-05
6.91762e-05
7.46055e-05
8.16886e-05
8.5817e-05
9.4845e-05
0.000104034
0.000130771
2.00892e-05
2.05728e-05
2.14462e-05
2.29092e-05
2.45023e-05
2.66881e-05
2.92844e-05
3.21808e-05
3.54013e-05
3.8971e-05
4.28753e-05
4.71712e-05
5.20155e-05
5.72468e-05
6.28191e-05
6.89481e-05
7.71651e-05
9.49651e-05
0.00013243
0.00015266
0.000188553
0.00019986
0.000188224
2.27505e-05
2.31795e-05
2.39619e-05
2.53083e-05
2.67694e-05
2.87921e-05
3.12345e-05
3.4062e-05
3.72602e-05
4.08688e-05
4.49442e-05
4.96123e-05
5.50482e-05
6.10557e-05
6.91438e-05
9.41789e-05
0.000155896
0.000317674
0.000730341
0.00095627
0.00131481
0.00137574
0.0011105
2.52809e-05
2.56678e-05
2.63869e-05
2.76338e-05
2.89905e-05
3.08903e-05
3.32072e-05
3.5952e-05
3.91031e-05
4.27551e-05
4.70195e-05
5.20945e-05
5.81576e-05
6.97291e-05
0.000147603
0.000429683
0.000894194
0.0014088
0.00191697
0.00220701
0.0024211
0.00246476
0.00266486
2.76581e-05
2.80111e-05
2.86857e-05
2.98427e-05
3.11299e-05
3.29227e-05
3.51066e-05
3.77968e-05
4.09167e-05
4.45661e-05
4.89865e-05
5.64044e-05
9.36543e-05
0.000213714
0.000900504
0.00134817
0.00156961
0.00168931
0.00175969
0.00192738
0.00216787
0.00254592
0.00266486
2.98778e-05
3.02063e-05
3.08528e-05
3.19281e-05
3.31722e-05
3.48471e-05
3.6979e-05
3.95543e-05
4.2884e-05
4.9984e-05
7.57177e-05
0.000144432
0.000553097
0.00120387
0.00157664
0.00173837
0.00181429
0.00181304
0.0018339
0.00183716
0.00205721
0.00242894
0.00263405
3.19725e-05
3.22904e-05
3.29454e-05
3.40727e-05
3.56372e-05
3.82806e-05
4.29667e-05
5.66227e-05
8.32413e-05
0.000147734
0.000441747
0.000883127
0.00128884
0.00165116
0.00180071
0.00200585
0.00200038
0.0017727
0.00159167
0.00153929
0.00169431
0.00215902
0.00256807
4.59273e-05
4.79232e-05
5.18092e-05
5.92649e-05
7.04029e-05
9.12472e-05
0.000135059
0.00031417
0.000536887
0.000779551
0.00116706
0.00130562
0.00158056
0.00202503
0.0020599
0.0020599
0.00172098
0.00125633
0.00113425
0.00129338
0.00155821
0.00187837
0.00228507
0.000258178
0.00027707
0.000313345
0.000379729
0.0004687
0.000598039
0.000700066
0.000886823
0.00109818
0.00123383
0.00140587
0.00144063
0.00162691
0.00194136
0.00203648
0.00185323
0.0012471
0.000957527
0.00115111
0.00135123
0.00150681
0.00163351
0.00186924
0.000700823
0.000714884
0.000750107
0.00082447
0.00091064
0.00094396
0.00102141
0.00115759
0.00135414
0.00150872
0.00159176
0.00153697
0.00145142
0.00182184
0.00191464
0.00150877
0.000978862
0.000976981
0.00116592
0.00132159
0.00144035
0.00134251
0.00140834
0.000778098
0.000786442
0.000820545
0.000857958
0.000934756
0.00108105
0.00123599
0.00138867
0.00151581
0.00160027
0.00161125
0.0015167
0.00132364
0.00160139
0.00175102
0.00120129
0.000839621
0.00100996
0.00118409
0.00131158
0.00138408
0.00125758
0.000939199
0.000835785
0.000847008
0.000888824
0.000951652
0.00103584
0.00113443
0.00125112
0.00139996
0.00155161
0.00165046
0.00162262
0.00152568
0.00124885
0.00132293
0.00144281
0.000924872
0.000778524
0.000966904
0.00117143
0.00132582
0.00143558
0.00148804
0.00121168
0.000874875
0.00088814
0.000924312
0.000978952
0.00106124
0.00117079
0.00131517
0.00148969
0.00162825
0.0016702
0.00164267
0.00147231
0.00105595
0.00102505
0.000905554
0.000550983
0.000740849
0.00092418
0.00114607
0.00136404
0.0015328
0.00171579
0.00177901
0.000896392
0.000918623
0.000956942
0.00100929
0.00108718
0.00118931
0.00133757
0.00152043
0.00163401
0.0016702
0.00158419
0.0012414
0.000682447
0.000665422
0.00047065
0.000519958
0.000724635
0.000904653
0.00111503
0.00135737
0.00166035
0.0019295
0.00209911
0.000908029
0.00092918
0.000965628
0.00101478
0.00109208
0.00119529
0.00134869
0.00151203
0.00160491
0.00165508
0.00147659
0.00115925
0.000786535
0.000699458
0.000675417
0.000650478
0.000765678
0.000905741
0.00107542
0.00127735
0.00155889
0.0019366
0.00209911
0.000911305
0.000928528
0.000961357
0.00100442
0.00107224
0.00116209
0.00128718
0.00142239
0.00152613
0.00158185
0.00142026
0.00123834
0.00106276
0.000924061
0.000824879
0.00076714
0.000828979
0.000924627
0.00104772
0.0011919
0.00137913
0.00161862
0.00195847
0.000899421
0.000915049
0.00093889
0.00097483
0.00103099
0.00110332
0.00120565
0.00132705
0.00142032
0.00148147
0.00135975
0.00124581
0.00114062
0.00100132
0.000889857
0.000828908
0.000854598
0.000921782
0.0010132
0.00112676
0.00127284
0.00144564
0.00165597
0.000885258
0.000896177
0.000907481
0.00094482
0.000977341
0.00104306
0.00109363
0.0012127
0.00128321
0.00136399
0.00126688
0.00118686
0.0010922
0.000993214
0.00090772
0.000854227
0.000859777
0.000904027
0.000964068
0.00103811
0.00114623
0.00127933
0.00143367
0.000860422
0.000868978
0.000876402
0.000907531
0.000924943
0.00097948
0.00100815
0.00108768
0.00112568
0.00119921
0.00115992
0.00109408
0.00100855
0.000926165
0.000870107
0.000835724
0.000843239
0.000869604
0.000918832
0.00097126
0.00104793
0.00113845
0.00123729
0.000827336
0.000836274
0.000841289
0.000865399
0.000875373
0.000915363
0.000928746
0.000980616
0.000989883
0.00103445
0.00100896
0.000975848
0.000920424
0.000865011
0.000830754
0.000809825
0.000820234
0.000831697
0.000870993
0.000906439
0.000959105
0.00101996
0.00108437
0.000794631
0.000800766
0.000803185
0.000821555
0.00082629
0.000855262
0.000858914
0.000893437
0.000888259
0.000911592
0.0008905
0.000869155
0.000839831
0.00080457
0.000785274
0.00076952
0.000782711
0.000783693
0.000816716
0.000835452
0.000873506
0.000910856
0.000953039
0.000759361
0.000763687
0.000764347
0.000778167
0.000779132
0.000800389
0.000798125
0.000821555
0.00081058
0.000822035
0.000804806
0.00078984
0.000773221
0.000750144
0.000738611
0.000724771
0.00073424
0.000732659
0.000759302
0.000767066
0.000795834
0.000816648
0.000845534
0.000721807
0.000725385
0.000725059
0.000735298
0.000733423
0.000748472
0.000742421
0.000757811
0.000746294
0.000751828
0.000736888
0.000723864
0.000714384
0.000699433
0.000691301
0.000678423
0.000683256
0.000681732
0.000701082
0.000702244
0.000723929
0.000732418
0.000753227
0.000685235
0.000687826
0.00068644
0.000693669
0.000689929
0.000700221
0.000692235
0.000701885
0.000690421
0.000691637
0.000679204
0.000668895
0.000661479
0.000650353
0.000643389
0.000631656
0.000632506
0.000630726
0.000642544
0.000641898
0.000657548
0.000659306
0.00067451
0.000650475
0.000652143
0.000649922
0.000654607
0.00064954
0.000656053
0.000647176
0.000652494
0.000641126
0.000640092
0.000629329
0.000620046
0.000612231
0.000602825
0.00059599
0.000585935
0.000583707
0.000580666
0.000586519
0.000585645
0.000595505
0.00059436
0.000604807
0.000617185
0.000618206
0.000615502
0.000618288
0.00061242
0.000615913
0.000606556
0.000608533
0.000597494
0.000594606
0.000583795
0.000575288
0.000566845
0.000557923
0.000550448
0.000541129
0.000536753
0.000532137
0.000534194
0.000533093
0.000537855
0.000536457
0.000543128
0.000585553
0.000586063
0.000583072
0.000584346
0.000578013
0.000579136
0.000569556
0.000569038
0.000557872
0.000553372
0.000542495
0.000534115
0.000524574
0.00051551
0.000507261
0.000498318
0.000492424
0.000486727
0.00048601
0.000483995
0.000484735
0.000483662
0.000487709
0.000556438
0.00055649
0.000553222
0.000553166
0.000546447
0.00054564
0.000535837
0.000533289
0.000521804
0.000516136
0.000504551
0.000495908
0.000485465
0.000476064
0.000466782
0.000457702
0.000450632
0.00044407
0.000441064
0.000438031
0.000436255
0.000435524
0.000437757
0.000529505
0.000529183
0.000525713
0.000524557
0.00051755
0.000515169
0.000505106
0.000500905
0.000489074
0.000482264
0.000470034
0.000460774
0.000449213
0.000439156
0.000428855
0.000419361
0.000411232
0.000404001
0.000399107
0.00039523
0.000392101
0.000391482
0.00039202
0.000504894
0.000504279
0.000500674
0.000498649
0.000491399
0.000487719
0.000477323
0.000471713
0.00045932
0.000451349
0.000438264
0.000428193
0.000415713
0.000404998
0.000393651
0.000383526
0.000374314
0.000366403
0.000360004
0.000355383
0.000351539
0.000350912
0.000350167
0.000482742
0.000481851
0.000478072
0.000475253
0.000467702
0.000462861
0.000452077
0.000445177
0.000432255
0.000423241
0.000409471
0.000398526
0.000384934
0.000373283
0.000360829
0.000349928
0.000339599
0.000331016
0.000323425
0.000318187
0.000313748
0.000313055
0.000311594
0.000462923
0.000461805
0.000457869
0.000454403
0.000446581
0.000440778
0.000429604
0.00042157
0.000408037
0.000397857
0.000383178
0.000371168
0.000356577
0.000344042
0.000330496
0.000318724
0.000307231
0.000297863
0.00028927
0.000283482
0.000278522
0.000277681
0.000276052
0.000445502
0.00044417
0.000440048
0.000435971
0.000427817
0.000421091
0.000409473
0.00040034
0.000386176
0.000374897
0.000359464
0.000346491
0.000330814
0.000317196
0.000302403
0.000289629
0.000276943
0.000266699
0.000257126
0.000250813
0.000245363
0.000244381
0.000242939
0.00043049
0.000428942
0.0004246
0.000419949
0.000411457
0.000403932
0.000391904
0.000381804
0.000367046
0.000354678
0.000338315
0.000324166
0.000307351
0.000292646
0.00027666
0.000262808
0.000248844
0.000237579
0.000227
0.000220058
0.00021415
0.000213039
0.00021201
0.000417867
0.000416084
0.00041147
0.000406226
0.000397337
0.000388996
0.000376464
0.000365409
0.000350033
0.000336622
0.000319451
0.000304292
0.000286399
0.000270514
0.000253158
0.000238073
0.00022273
0.000210308
0.000198611
0.000190902
0.000184508
0.000183276
0.000182822
0.000407757
0.000405736
0.00040083
0.000395011
0.000385684
0.000376532
0.000363439
0.000351435
0.000335804
0.000321051
0.000303039
0.000286808
0.000267789
0.000250706
0.000232026
0.000215652
0.000198811
0.000185046
0.000172
0.000163302
0.000156316
0.000154934
0.000155207
0.000400032
0.00039779
0.000392617
0.000386277
0.000376495
0.000366518
0.000353036
0.000339675
0.000323733
0.000307328
0.000290021
0.000271865
0.000252919
0.000233328
0.00021368
0.00019548
0.000177018
0.000161725
0.000147079
0.000137116
0.00012934
0.000127762
0.000128933
0.000394726
0.000392384
0.000387079
0.000380367
0.000371821
0.000361237
0.000348446
0.000333872
0.000317485
0.00029962
0.000280497
0.000260541
0.000240193
0.000219634
0.000199022
0.000178453
0.000158314
0.000140731
0.000124115
0.000112419
0.000103461
0.000101563
0.000103897
0.000391251
0.000388852
0.000383471
0.000376496
0.000367638
0.00035666
0.000343411
0.000328318
0.000311418
0.000293133
0.000273592
0.000253031
0.000231605
0.000209575
0.000187356
0.000165248
0.000143587
0.000122696
0.000103379
8.94917e-05
7.86747e-05
7.62483e-05
8.02275e-05
0.000389471
0.000387052
0.000382713
0.000376457
0.000367641
0.000356664
0.0003434
0.000328216
0.000311063
0.000292271
0.000271957
0.00025048
0.000228095
0.000205068
0.00018158
0.000157848
0.000134142
0.000110815
8.83708e-05
6.87476e-05
5.49343e-05
5.15327e-05
5.82067e-05
0.000388083
0.000385555
0.000380032
0.000373218
0.000364255
0.000353192
0.000339917
0.000324813
0.000307855
0.000289373
0.000269405
0.000248205
0.000225908
0.000202774
0.00017903
0.000154901
0.000130545
0.00010616
8.18704e-05
5.80296e-05
3.53519e-05
2.67835e-05
3.93289e-05
0.000110302
0.000357309
0.000948452
0.00149812
0.000126748
0.000129152
0.000948452
0.00149812
0.000138114
0.000135514
0.000217095
0.000257252
0.000369197
0.00030178
0.000245722
0.000138832
0.00254789
0.00224209
0.0016453
0.000382257
0.00271798
0.00292599
0.00305673
0.00271255
0.00273369
0.00292599
0.00305673
0.00274164
0.00273369
0.00285339
0.00292259
0.00289218
0.00265468
0.00285339
0.00292259
0.00302795
0.00231683
0.00262241
0.00288693
0.00303576
0.00188503
0.00229147
0.0026597
0.00303576
0.00143081
0.00195284
0.00240878
0.00296069
0.000922839
0.00158177
0.00222936
0.00295242
0.0014864
0.000900856
0.00192677
0.0029451
0.00224994
0.00202297
0.00188198
0.00242385
0.00227014
0.00240449
0.00243984
0.00237294
0.00227014
0.00240449
0.00243984
0.00237294
0.00186783
0.001995
0.00209905
0.00216745
0.00155621
0.00162779
0.00168716
0.00173421
0.00131014
0.00134987
0.00138803
0.00141687
0.00112798
0.00115044
0.00117247
0.0011859
0.000979397
0.00099387
0.00100806
0.00101713
0.000860487
0.000869666
0.00087761
0.00088332
0.000760375
0.000767024
0.000770829
0.000775485
0.000676742
0.00068181
0.000682745
0.000686701
0.000604438
0.000608431
0.000607751
0.000611369
0.000541684
0.000544779
0.000543411
0.000546632
0.00048585
0.000488334
0.000486827
0.000489748
0.000436033
0.000438126
0.0004368
0.000439495
0.000390919
0.000392685
0.000391792
0.000394316
0.000349954
0.000351429
0.000351155
0.000353485
0.000312296
0.000313479
0.000313995
0.000316066
0.000277504
0.000278553
0.00027985
0.000281797
0.000244989
0.000246146
0.000248129
0.000250208
0.000214584
0.000216055
0.000218647
0.000221084
0.00018593
0.000187878
0.00019106
0.000194041
0.000158913
0.000161496
0.000165289
0.000168995
0.000133387
0.000136788
0.000141275
0.000145909
0.000109351
0.00011381
0.000119127
0.000124912
8.71323e-05
9.30029e-05
9.93468e-05
0.000106539
6.73078e-05
7.50166e-05
8.25787e-05
9.13576e-05
5.16638e-05
6.15162e-05
7.02806e-05
8.05718e-05
0.00185696
0.00160086
0.00149039
0.00114219
0.000876213
0.000677664
0.000507776
0.000389288
0.000284652
0.000212541
0.000152381
0.000111555
8.03702e-05
5.85239e-05
4.57736e-05
3.35291e-05
3.32375e-05
2.55661e-05
2.60508e-05
0.00224356
0.00224356
0.001241
0.000892554
0.000886512
0.000677181
0.000526573
0.000399614
0.000303928
0.000228211
0.000170624
0.000128042
9.87394e-05
7.73325e-05
6.43305e-05
5.47352e-05
4.81963e-05
4.39227e-05
4.04335e-05
0.00232452
0.00266192
0.00266192
0.00144506
0.000950602
0.000950602
0.000662752
0.000498633
0.000356513
0.00027017
0.000201842
0.000153553
0.000117959
9.07729e-05
7.57633e-05
6.21762e-05
5.75095e-05
5.07072e-05
4.95871e-05
0.00039445
0.00286371
0.00301431
0.00286886
0.00157336
0.000926098
0.000862836
0.000615729
0.000458506
0.000335326
0.00025902
0.00019868
0.000160624
0.000129829
0.000109709
9.34175e-05
8.19097e-05
7.40912e-05
6.90722e-05
0.000266418
0.00169983
0.00327284
0.00327284
0.00213188
0.00110168
0.000882013
0.000663236
0.000490953
0.000366964
0.000282815
0.000218843
0.00017477
0.000140333
0.000118588
0.000102588
9.45565e-05
8.71619e-05
8.4874e-05
0.00110012
0.000987758
0.00302247
0.00322289
0.00254085
0.00144226
0.000963489
0.000792804
0.000582606
0.000447589
0.000352262
0.000281814
0.000232571
0.00019343
0.000164812
0.000142828
0.000126895
0.00011639
0.00011
0.00216486
0.00095602
0.0028633
0.0032548
0.00268137
0.00159977
0.000981033
0.000765949
0.000580251
0.000455594
0.000361114
0.000292059
0.000242138
0.000204976
0.000178558
0.000159064
0.000145352
0.000136515
0.000130964
0.0029067
0.00109065
0.00297171
0.00328073
0.00270934
0.00170771
0.00110313
0.000847239
0.000676022
0.000540765
0.000442477
0.000364541
0.00030605
0.0002605
0.000226087
0.000200689
0.000181852
0.000169552
0.000161996
0.0030075
0.00167063
0.00320473
0.00328073
0.00271137
0.00168991
0.00107235
0.000807272
0.000656003
0.000532197
0.000443308
0.000373556
0.000320469
0.000279764
0.000248577
0.000225606
0.000208698
0.000197779
0.00019101
0.0030075
0.00235493
0.00344926
0.00344926
0.00264881
0.00159598
0.0010193
0.000821822
0.000706431
0.00059328
0.000504885
0.000431001
0.000372135
0.000326536
0.000290165
0.00026337
0.000242945
0.000229565
0.000221265
0.0027135
0.0024076
0.00354693
0.00354693
0.00265628
0.00152322
0.000985587
0.000827527
0.00071651
0.000612948
0.000526771
0.000456737
0.000399462
0.000355609
0.000320557
0.000294888
0.000275472
0.000262938
0.000255142
0.00231723
0.00248218
0.0036755
0.0036755
0.00277498
0.00157913
0.00102175
0.00086564
0.000749522
0.000650536
0.000563614
0.000494314
0.000435503
0.000390436
0.000353445
0.000326132
0.000305142
0.000291293
0.000282769
0.0030231
0.00282708
0.00381127
0.00381127
0.00291213
0.00176075
0.00116741
0.000961483
0.000809936
0.00069914
0.000603827
0.00053124
0.000470545
0.000424498
0.000387287
0.000359869
0.000339035
0.000325412
0.000316927
0.00397066
0.00398461
0.00398517
0.00398517
0.00293838
0.0018629
0.00126692
0.00101923
0.000847536
0.000727436
0.000629158
0.000555887
0.000495318
0.000449373
0.000412194
0.000384535
0.00036351
0.000349501
0.000340936
0.00337701
0.00358927
0.00363082
0.00363082
0.00292744
0.00189658
0.00135342
0.00108232
0.000893168
0.000762408
0.000660836
0.000585164
0.000524611
0.000478254
0.000441476
0.000413944
0.000393176
0.000379399
0.000370853
0.00275438
0.00318415
0.00318415
0.00304895
0.00235704
0.00167105
0.00130336
0.00105603
0.000889502
0.000764012
0.000670082
0.000596881
0.000539469
0.000494428
0.00045904
0.000432081
0.000411956
0.000398325
0.000390079
0.00274043
0.00274043
0.002608
0.00234156
0.00188635
0.00147358
0.00122161
0.00102152
0.000879281
0.000765291
0.000679326
0.000610062
0.000556163
0.000513
0.000479356
0.000453445
0.000434094
0.000421019
0.000412959
0.00225405
0.00221611
0.00211761
0.00191535
0.00159864
0.0013202
0.00112701
0.000963139
0.000845294
0.000745776
0.000670818
0.000608122
0.000559473
0.000519526
0.000488483
0.000464137
0.000446134
0.000433711
0.000426287
0.00179891
0.00178646
0.00168931
0.001547
0.00134942
0.00117362
0.00103559
0.000910941
0.00081498
0.000730511
0.000664951
0.000608805
0.000564771
0.000528094
0.000499476
0.00047683
0.000459967
0.000448323
0.000441193
0.00146171
0.00144325
0.00139748
0.00130643
0.00117383
0.00105076
0.000944266
0.000845919
0.00076856
0.000699057
0.000644112
0.00059609
0.000557993
0.000525655
0.000500333
0.000480007
0.00046497
0.00045444
0.000448242
0.00121698
0.00121698
0.0011818
0.00111829
0.00103088
0.00094752
0.000869252
0.000795607
0.000733749
0.000676573
0.000630102
0.000588374
0.000554868
0.000526084
0.000503337
0.000484936
0.000471178
0.000461449
0.000455573
0.00104414
0.00104414
0.00101809
0.000973661
0.000913173
0.000852785
0.000792607
0.000735871
0.00068634
0.000640482
0.000602767
0.000568635
0.000540878
0.00051666
0.000497446
0.000481656
0.000469959
0.000461647
0.00045683
0.000908177
0.000908177
0.000890099
0.00085916
0.000818681
0.000776101
0.000732217
0.000690204
0.000651656
0.0006156
0.000584475
0.000555911
0.000532202
0.00051122
0.000494442
0.000480468
0.000470027
0.000462373
0.0004578
0.000799727
0.000799727
0.000786027
0.00076356
0.00073524
0.000703842
0.000671124
0.000639243
0.00060909
0.000580871
0.000555886
0.000533113
0.000514082
0.000497151
0.000483638
0.000472245
0.000463888
0.000457699
0.000454208
0.000709523
0.000709523
0.000700572
0.000685362
0.000666731
0.000644625
0.000621647
0.000598451
0.000575977
0.00055475
0.000535395
0.000517488
0.000501964
0.000487976
0.000476558
0.000466778
0.000459496
0.000453993
0.000450921
0.000633717
0.000633717
0.00062738
0.000616836
0.000604354
0.000588655
0.000572666
0.000555784
0.00053929
0.000523348
0.000508472
0.000494693
0.000482654
0.000471829
0.00046305
0.00045549
0.00045001
0.000445754
0.000443579
0.000568362
0.000568362
0.000565061
0.000559019
0.000551793
0.000541732
0.00053168
0.000520249
0.000509046
0.000497868
0.000487333
0.000477367
0.000468474
0.000460262
0.000453439
0.000447389
0.000442962
0.000439423
0.000437629
0.000510987
0.000510987
0.000509575
0.000506635
0.000502996
0.000497156
0.000491524
0.000484342
0.000477434
0.00047004
0.000462957
0.000455996
0.000449735
0.000443854
0.000439051
0.000434706
0.000431682
0.000429104
0.000427979
0.00046054
0.00046132
0.000461477
0.000461477
0.000461151
0.000459149
0.000457319
0.000453897
0.000450676
0.000446628
0.00044278
0.000438662
0.00043495
0.000431211
0.000428168
0.000425206
0.000423197
0.000421327
0.000420584
0.000414761
0.000417124
0.000419584
0.00042173
0.000422746
0.000423892
0.000423892
0.000423565
0.000423404
0.000422169
0.000420991
0.000419182
0.000417569
0.000415605
0.000414112
0.0004124
0.000411417
0.000410256
0.000409982
0.000374119
0.00037832
0.000383161
0.000387725
0.00039155
0.000395365
0.000397822
0.000400295
0.000401547
0.000402766
0.00040309
0.000403459
0.000403459
0.000403181
0.000403145
0.0004026
0.000402515
0.000402073
0.000402073
0.000336326
0.000341868
0.00034869
0.000355194
0.00036136
0.000367391
0.000372226
0.000376952
0.000380374
0.000383627
0.000385756
0.000387784
0.000388895
0.000390081
0.000390498
0.0003912
0.000391203
0.000391628
0.000391628
0.00030267
0.000309852
0.000318805
0.000327301
0.000335718
0.000343818
0.000350811
0.000357525
0.000362871
0.000367918
0.000371684
0.000375221
0.000377641
0.000379974
0.000381325
0.000382759
0.000383291
0.000384021
0.000384021
0.000270542
0.000279249
0.000290063
0.000300277
0.000310667
0.000320559
0.000329456
0.000337908
0.000344954
0.000351557
0.000356742
0.000361559
0.000365072
0.000368363
0.00037047
0.000372515
0.000373463
0.000374456
0.000374456
0.000242137
0.00025278
0.000265563
0.000277597
0.000289919
0.000301519
0.000312166
0.000322174
0.000330731
0.000338702
0.000345156
0.000351109
0.000355628
0.000359782
0.00036261
0.000365215
0.000366575
0.000367807
0.000367807
0.000214785
0.000227273
0.000241807
0.000255528
0.000269571
0.000282681
0.000294869
0.000306233
0.000316112
0.000325258
0.000332799
0.000339716
0.000345075
0.000349954
0.000353368
0.000356442
0.00035813
0.000359566
0.000359566
0.000191146
0.000205816
0.000222238
0.000237781
0.000253492
0.000268063
0.000281666
0.00029425
0.000305313
0.00031549
0.000323993
0.000331748
0.000337859
0.000343363
0.000347308
0.000350781
0.000352768
0.000354375
0.000354375
0.000168673
0.00018544
0.000203592
0.000220775
0.000237882
0.000253692
0.000268464
0.000282047
0.000294072
0.000305081
0.000314365
0.000322796
0.000329509
0.000335529
0.0003399
0.000343715
0.00034595
0.000347706
0.000347706
0.000150228
0.000169353
0.000189334
0.000208187
0.000226628
0.000243636
0.000259475
0.000273974
0.000286861
0.000298602
0.000308576
0.000317588
0.000324828
0.000331272
0.000336007
0.00034008
0.000342514
0.000344379
0.000344379
0.000134013
0.000155203
0.000176638
0.000196746
0.000216119
0.00023396
0.000250495
0.0002656
0.000279056
0.000291284
0.00030172
0.000311126
0.000318733
0.000325487
0.000330486
0.000334774
0.000337364
0.000339324
0.000339324
0.000122601
0.000145783
0.000168591
0.00018988
0.000210142
0.000228785
0.000245986
0.000261679
0.000275672
0.000288356
0.000299217
0.000308978
0.000316907
0.000323916
0.000329141
0.000333583
0.000336299
0.000338324
0.000338324
0.000114952
0.000139144
0.000162501
0.000184217
0.000204728
0.000223598
0.000240961
0.000256809
0.00027094
0.000283749
0.000294738
0.000304608
0.000312648
0.000319749
0.00032506
0.000329578
0.000332354
0.000334422
0.000334422
)
;

boundaryField
{
    leftWall
    {
        type            calculated;
        value           uniform 0;
    }
    rightWall
    {
        type            calculated;
        value           uniform 0;
    }
    lowerWall
    {
        type            calculated;
        value           uniform 0;
    }
    atmosphere
    {
        type            calculated;
        value           uniform 0;
    }
    defaultFaces
    {
        type            empty;
    }
}


// ************************************************************************* //
