/*--------------------------------*- C++ -*----------------------------------*\
| =========                 |                                                 |
| \\      /  F ield         | OpenFOAM: The Open Source CFD Toolbox           |
|  \\    /   O peration     | Version:  2012                                  |
|   \\  /    A nd           | Website:  www.openfoam.com                      |
|    \\/     M anipulation  |                                                 |
\*---------------------------------------------------------------------------*/
FoamFile
{
    version     2.0;
    format      ascii;
    class       volScalarField;
    location    "0.2";
    object      rhogh;
}
// * * * * * * * * * * * * * * * * * * * * * * * * * * * * * * * * * * * * * //

dimensions      [1 -1 -2 0 0 0 0];


internalField   nonuniform List<scalar> 
2268
(
-29.4294
-29.4294
-29.4294
-29.4294
-29.4294
-29.4294
-29.4294
-29.4294
-29.4294
-29.4294
-29.4294
-29.4294
-29.4294
-29.4294
-29.4294
-29.4294
-29.4294
-29.4294
-29.4294
-29.4294
-29.4294
-29.4294
-29.0367
-88.2881
-88.2881
-88.2881
-88.2881
-88.2881
-88.2881
-88.2881
-88.2881
-88.2881
-88.2881
-88.2881
-88.2881
-88.2881
-88.2881
-88.2881
-88.2881
-88.2881
-88.2881
-88.2881
-88.2881
-88.2881
-88.2881
-87.1097
-147.147
-147.147
-147.147
-147.147
-147.147
-147.147
-147.147
-147.147
-147.147
-147.147
-147.147
-147.147
-147.147
-147.147
-147.147
-147.147
-147.147
-147.147
-147.147
-147.147
-147.147
-147.147
-145.597
-206.006
-206.006
-206.006
-206.006
-206.006
-206.006
-206.006
-206.006
-206.006
-206.006
-206.006
-206.006
-206.006
-206.006
-206.006
-206.006
-206.006
-206.006
-206.006
-206.006
-206.006
-206.006
-205.81
-264.864
-264.864
-264.864
-264.864
-264.864
-264.864
-264.864
-264.864
-264.864
-264.864
-264.864
-264.864
-264.864
-264.864
-264.864
-264.864
-264.864
-264.864
-264.864
-264.864
-264.864
-264.864
-264.864
-323.723
-323.723
-323.723
-323.723
-323.723
-323.723
-323.723
-323.723
-323.723
-323.723
-323.723
-323.723
-323.723
-323.723
-323.723
-323.723
-323.723
-323.723
-323.723
-323.723
-323.723
-323.723
-323.723
-382.582
-382.582
-382.582
-382.582
-382.582
-382.582
-382.582
-382.582
-382.582
-382.582
-382.582
-382.582
-382.582
-382.582
-382.582
-382.582
-382.582
-382.582
-382.582
-382.582
-382.582
-382.582
-379.232
-441.44
-441.44
-441.44
-441.44
-441.44
-441.44
-441.44
-441.44
-441.44
-441.44
-441.44
-441.44
-441.44
-441.44
-441.44
-441.44
-441.44
-441.44
-441.44
-441.44
-441.44
-441.44
-435.345
-1.13239e-23
-1.82466e-23
-2.38429e-23
-7.44004e-23
-1.48377e-23
-1.6908e-24
-3.78499e-26
-2.67826e-28
-1.87057e-30
-4.23221e-33
-1.14993e-35
-1.22518e-38
-1.75967e-41
-1.41628e-44
-2.51723e-47
-5.90864e-50
-1.4021e-52
-2.77465e-55
-6.06711e-58
-2.74951e-21
-5.9378e-21
-1.03484e-20
-3.80879e-20
-6.5004e-21
-5.39901e-22
-1.29735e-23
-1.02182e-25
-8.09989e-28
-2.27438e-30
-7.45678e-33
-1.00339e-35
-1.68666e-38
-1.52459e-41
-3.14939e-44
-7.29884e-47
-1.67825e-49
-3.23164e-52
-3.46241e-55
-2.21289e-19
-5.70749e-19
-1.46402e-18
-5.16469e-18
-7.5641e-19
-4.59401e-20
-1.159e-21
-1.01774e-23
-9.05544e-26
-3.16429e-28
-1.25501e-30
-2.17039e-33
-4.35078e-36
-4.63673e-39
-1.13807e-41
-2.61184e-44
-5.79124e-47
-1.06489e-49
-1.08844e-52
-8.12813e-18
-2.6049e-17
-7.87841e-17
-3.1826e-16
-3.98966e-17
-1.96461e-18
-5.21283e-20
-5.17224e-22
-5.17511e-24
-2.25332e-26
-1.08766e-28
-2.45979e-31
-6.0389e-34
-8.60196e-37
-2.66433e-39
-6.64731e-42
-1.53107e-44
-2.87214e-47
-2.98718e-50
-1.9038e-16
-8.31619e-16
-3.71908e-15
-1.2355e-14
-1.30937e-15
-5.40513e-17
-1.47961e-18
-1.67379e-20
-1.8689e-22
-1.01724e-24
-5.99437e-27
-1.80435e-29
-5.61904e-32
-1.31783e-34
-4.23166e-37
-1.03634e-39
-2.32134e-42
-4.14035e-45
-4.05292e-48
-2.70544e-15
-1.68744e-14
-8.16545e-14
-3.04822e-13
-2.74271e-14
-1.02354e-15
-2.90859e-17
-3.77932e-19
-4.7124e-21
-3.212e-23
-2.31593e-25
-9.4255e-28
-3.95568e-30
-1.7047e-32
-6.33221e-35
-1.78813e-37
-4.41325e-40
-8.39579e-43
-8.83354e-46
-1.03216e-13
-7.70321e-13
-2.7764e-12
-9.33596e-12
-4.37953e-13
-1.45453e-14
-4.29273e-16
-6.45197e-18
-9.05189e-20
-7.81895e-22
-6.90603e-24
-3.85833e-26
-2.43229e-28
-1.36129e-30
-5.95847e-33
-1.79855e-35
-4.55983e-38
-8.39726e-41
-8.10146e-44
-9.09967e-13
-1.70958e-11
-8.98095e-11
-3.40151e-10
-5.74176e-12
-1.62498e-13
-5.16758e-15
-9.01395e-17
-1.46807e-18
-1.65042e-20
-1.8029e-22
-1.4106e-24
-1.35667e-26
-9.80981e-29
-5.48298e-31
-2.26282e-33
-7.38524e-36
-1.66835e-38
-1.90375e-41
-533.467
-533.467
-533.467
-533.467
-533.467
-533.467
-533.467
-533.467
-533.467
-533.467
-533.467
-533.467
-533.467
-533.467
-533.467
-533.467
-533.467
-533.467
-533.467
-533.467
-533.467
-533.467
-526.109
-658.662
-658.662
-658.662
-658.662
-658.662
-658.662
-658.662
-658.662
-658.662
-658.662
-658.662
-658.662
-658.662
-658.662
-658.662
-658.662
-658.662
-658.662
-658.621
-658.629
-658.66
-658.662
-657.088
-783.856
-783.856
-783.856
-783.856
-783.856
-783.856
-783.856
-783.856
-783.856
-783.856
-783.856
-783.856
-783.856
-783.856
-783.856
-783.856
-783.856
-783.758
-782.538
-783.856
-783.856
-783.856
-783.856
-909.051
-909.051
-909.051
-909.051
-909.051
-909.051
-909.051
-909.051
-909.051
-909.051
-909.051
-909.051
-909.051
-909.051
-909.04
-908.784
-905.963
-882.709
-817.923
-768.583
-671.376
-681.26
-788.776
-1034.25
-1034.25
-1034.25
-1034.25
-1034.25
-1034.25
-1034.25
-1034.25
-1034.25
-1034.25
-1034.25
-1034.25
-1034.24
-1034.24
-1027.25
-975.351
-781.128
-486.093
-124.291
-43.8408
-52.6227
-75.4826
-187.697
-1159.44
-1159.44
-1159.44
-1159.44
-1159.44
-1159.44
-1159.44
-1159.44
-1159.44
-1159.44
-1159.44
-1159.4
-1157.4
-1138.2
-853.92
-405.826
-1.41052e-06
-1.41053e-06
-1.41052e-06
-1.41053e-06
-0.0251794
-0.140574
-3.37367
-1284.63
-1284.63
-1284.63
-1284.63
-1284.63
-1284.63
-1284.63
-1284.63
-1284.63
-1284.58
-1283.14
-1268.87
-1111.19
-588.444
-62.6189
-0.0169841
-0.0169941
-0.00941103
-0.00535909
-0.000612123
-6.87968e-05
-1.58323e-05
-0.00219753
-1409.83
-1409.83
-1409.83
-1409.83
-1409.83
-1409.83
-1409.8
-1409.33
-1405.01
-1383.59
-1235.7
-853.125
-267.627
-0.0311613
-0.0187947
-0.36101
-0.221408
-0.0190989
-2.24836e-08
-2.24845e-08
-1.1575e-05
-1.01553e-05
-6.86438e-06
-1534.8
-1534.69
-1534.41
-1533.46
-1530.94
-1523.41
-1503.59
-1404.87
-1184.89
-796.044
-329.629
-11.1905
-1.14183e-17
-0.989989
-2.97927
-1.90118
-0.109271
-2.64113e-08
-2.64119e-08
-2.44802e-08
-2.00386e-05
-4.10324e-05
-1.90657e-05
-1528.44
-1506.73
-1465.34
-1380.42
-1258.49
-1063.64
-779.406
-443.487
-172.22
-1.70485e-16
4.68928e-27
3.40865e-27
-3.79386e-27
-9.00162
-9.00151
-1.77899
-0.000208709
-3.79418e-08
-9.90863e-08
-1.28826e-07
-1.28824e-07
-0.000244319
-8.14589e-05
-471.974
-433.328
-370.369
-271.149
-168.366
-59.2545
-2.02993e-18
-1.37797e-26
7.80739e-26
-1.16629e-09
-2.55021e-08
-5.4422e-09
-9.231e-10
-10.4623
-8.25811
-0.248068
-7.11806e-05
-2.40896e-08
-6.75738e-08
-2.09233e-07
-1.38549e-07
-0.000367283
-0.000582725
-1.94984e-34
-1.93902e-34
-2.89867e-33
9.8161e-32
5.72435e-30
-1.23873e-27
-8.08656e-10
-3.89682e-08
-5.83277e-08
-1.5251e-08
-3.39394e-05
-8.07335e-06
-9.87507e-10
-10.7524
-2.36739
-0.0138336
-1.92835e-07
-9.78109e-09
-5.29592e-08
-2.21074e-07
-1.70703e-06
-9.93574e-05
-0.0111274
-9.37046e-18
-6.7007e-16
-4.48176e-14
-2.05557e-12
-6.43906e-11
-1.31417e-09
-1.71022e-08
-3.38216e-07
-2.23611e-07
-1.55269e-08
-0.00782549
-0.0313183
-0.00211486
-0.376919
-0.481238
-0.0102765
-7.3149e-10
-8.69918e-09
-6.44687e-08
-3.17865e-07
-2.29632e-06
-0.000133862
-0.00543694
-6.77799e-17
-5.58798e-15
-3.54257e-13
-1.49406e-11
-4.255e-10
-7.68624e-09
-8.75606e-08
-2.0819e-06
-1.98569e-06
-1.64829e-08
-0.0841002
-0.125504
-0.0462766
-6.6412e-12
-6.6412e-12
-6.6412e-12
-7.76475e-10
-6.81874e-09
-5.97985e-08
-3.74504e-07
-2.36833e-06
-3.40824e-05
-0.000583141
-2.49121e-16
-2.60558e-14
-1.71557e-12
-7.14117e-11
-1.89387e-09
-2.99901e-08
-3.17822e-07
-1.81769e-05
-5.09788e-05
-0.0137861
-0.131453
-0.1327
-0.0689468
-0.000124359
-7.02595e-12
-5.91012e-11
-1.40481e-10
-3.66312e-10
-1.47702e-09
-2.8792e-09
-5.2232e-08
-3.25103e-05
-0.0006326
-8.06275e-16
-1.06091e-13
-7.22826e-12
-2.9392e-10
-7.24426e-09
-1.0426e-07
-1.45015e-06
-8.59501e-05
-0.00177076
-0.023974
-0.0245912
-0.0394861
-0.00513174
-3.24908e-12
-1.40445e-11
-2.92983e-11
-3.45807e-11
-7.01431e-11
-3.03997e-10
-1.51448e-09
-3.03893e-09
-1.72725e-09
-2.26251e-06
-2.79376e-15
-4.08796e-13
-2.7926e-11
-1.07484e-09
-2.4307e-08
-3.23857e-07
-5.60057e-06
-0.000202239
-0.00173316
-8.05679e-13
-8.05734e-13
-8.05679e-13
-8.05734e-13
-3.41792e-12
-7.30832e-12
-7.06472e-12
-7.13263e-12
-1.23663e-11
-4.79879e-11
-2.38817e-10
-1.00165e-09
-1.81705e-09
-2.491e-10
-5.84675e-15
-8.34971e-13
-5.25295e-11
-1.89197e-09
-4.1533e-08
-5.98977e-07
-1.23203e-05
-8.18715e-05
-8.18739e-05
-0.00106523
-0.00210242
-6.71628e-05
-8.45443e-13
-3.78477e-11
-7.16222e-11
-1.18777e-12
-1.15516e-12
-1.69975e-12
-5.87928e-12
-2.81731e-11
-1.17593e-10
-3.66355e-10
-5.42959e-10
-7.59349e-15
-1.01433e-12
-6.02786e-11
-2.08133e-09
-4.47167e-08
-5.49585e-07
-1.27191e-06
-9.09018e-07
-0.000285075
-0.0079477
-0.0106663
-0.00294462
-8.85269e-13
-1.99607e-09
-3.00494e-09
-1.34976e-13
-1.41277e-13
-1.86243e-13
-5.76009e-13
-2.75128e-12
-1.15839e-11
-3.93716e-11
-7.55608e-11
-2.58522e-15
-3.10758e-13
-1.67899e-11
-4.97329e-10
-8.12415e-09
-6.33366e-08
-1.63665e-07
-9.49791e-07
-0.000233872
-0.00630602
-0.0111296
-0.0071296
-3.12072e-09
-9.73248e-08
-7.25084e-08
-4.15609e-21
-1.33374e-14
-1.58891e-14
-4.50402e-14
-2.15198e-13
-9.38354e-13
-3.38205e-12
-7.70011e-12
-1.11035e-17
-6.34778e-16
-2.41164e-14
-1.55554e-12
-1.05296e-10
-4.77939e-09
-1.36795e-07
-2.06834e-06
-4.2023e-06
-5.95363e-13
-5.98752e-13
-0.000142571
-0.000422789
-4.56369e-06
-9.0719e-07
-4.89998e-21
-1.16467e-15
-1.05489e-15
-2.7738e-15
-1.32748e-14
-6.02597e-14
-2.29642e-13
-6.0492e-13
-9.8359e-20
-7.53121e-18
-2.67525e-16
-5.90426e-15
-8.22664e-14
-1.80219e-13
-1.80244e-13
-1.80285e-13
-1.88213e-13
-3.1514e-10
-3.57122e-10
-3.56882e-10
-6.61673e-06
-5.09719e-05
-4.26116e-06
-4.51343e-21
-1.67283e-16
-5.50661e-17
-1.36379e-16
-6.55735e-16
-3.12787e-15
-1.2622e-14
-3.73656e-14
-2.21756e-20
-1.72158e-18
-6.32838e-17
-1.50759e-15
-2.73562e-14
-4.21345e-13
-4.7993e-12
-3.98488e-11
-2.75654e-10
-1.80618e-09
-1.21151e-08
-8.44234e-08
-3.90942e-07
-1.26905e-06
-1.02557e-06
-5.30391e-21
-4.12486e-17
-2.22172e-18
-5.37326e-18
-2.60205e-17
-1.32043e-16
-5.73379e-16
-1.8224e-15
-4.87737e-22
-6.23218e-20
-3.79532e-18
-1.44916e-16
-3.84913e-15
-7.48413e-14
-1.10203e-12
-1.23677e-11
-1.06428e-10
-6.74756e-10
-2.66884e-09
-4.16671e-09
-2.42569e-09
-6.18771e-20
-6.18794e-20
-9.56033e-18
-6.16191e-18
-6.94423e-20
-1.69581e-19
-8.32721e-19
-4.53485e-18
-2.1336e-17
-7.15513e-17
-1.19679e-26
-1.02126e-24
-4.06171e-23
-9.93282e-22
-1.65238e-20
-1.91258e-19
-1.35946e-18
-2.23147e-18
-1.68125e-20
-1.6812e-20
-1.68125e-20
-1.6812e-20
-1.68125e-20
-4.57997e-18
-1.07345e-17
-9.87678e-18
-4.96562e-19
-1.66536e-21
-4.23716e-21
-2.14471e-20
-1.26171e-19
-6.49762e-19
-2.30466e-18
-3.8258e-31
-3.97214e-29
-1.94799e-27
-5.99673e-26
-1.30015e-24
-2.11468e-23
-2.72005e-22
-2.88042e-21
-2.63847e-20
-1.612e-19
-7.03124e-19
-1.84718e-18
-2.57782e-18
-2.63292e-18
-1.84729e-18
-5.20194e-19
-1.19319e-20
-3.05526e-23
-8.40937e-23
-4.49331e-22
-2.85737e-21
-1.62215e-20
-6.15326e-20
-2.4835e-34
-2.60595e-32
-1.28766e-30
-3.97584e-29
-8.56905e-28
-1.36203e-26
-1.65508e-25
-1.5562e-24
-1.15041e-23
-6.58032e-23
-2.87686e-22
-8.95551e-22
-1.4954e-21
-1.76014e-21
-1.2122e-21
-7.59305e-22
-3.44013e-22
-4.28639e-25
-1.31499e-24
-7.6352e-24
-5.27489e-23
-3.34512e-22
-1.37589e-21
-3.12483e-40
-3.94988e-38
-2.39381e-36
-9.24622e-35
-2.54472e-33
-5.29497e-32
-8.65214e-31
-1.134e-29
-1.21829e-28
-1.07952e-27
-8.03451e-27
-5.04201e-26
-2.71802e-25
-1.26381e-24
-4.55485e-24
-7.17917e-24
-5.58371e-24
-4.72928e-27
-1.62543e-26
-1.05536e-25
-8.01801e-25
-5.77236e-24
-2.59577e-23
-8.66003e-44
-1.20579e-41
-7.97361e-40
-3.33124e-38
-9.83568e-37
-2.18025e-35
-3.77161e-34
-5.21387e-33
-5.9142e-32
-5.61858e-31
-4.66434e-30
-3.52122e-29
-2.51315e-28
-1.64449e-27
-8.81376e-27
-1.86803e-26
-1.72641e-26
-4.14496e-29
-1.5617e-28
-1.17184e-27
-1.00679e-26
-8.42629e-26
-4.16918e-25
-4.33295e-50
-5.91346e-48
-3.83193e-46
-1.5718e-44
-4.59007e-43
-1.02611e-41
-1.87896e-40
-3.05871e-39
-4.89651e-38
-8.04832e-37
-1.29635e-35
-1.86541e-34
-2.24224e-33
-2.13444e-32
-1.51991e-31
-4.70995e-31
-5.63672e-31
-2.82186e-31
-1.19676e-30
-1.06051e-29
-1.05872e-28
-1.04649e-27
-5.75387e-27
-1.41953e-56
-3.08867e-54
-3.26773e-52
-2.24874e-50
-1.13302e-48
-4.48017e-47
-1.45537e-45
-4.01861e-44
-9.68434e-43
-2.06769e-41
-3.94336e-40
-6.6639e-39
-9.82332e-38
-1.22136e-36
-1.22432e-35
-9.19851e-35
-4.66557e-34
-1.51468e-33
-7.32801e-33
-7.85551e-32
-9.3421e-31
-1.09924e-29
-6.85113e-29
-2.85237e-62
-7.84514e-60
-1.20988e-57
-1.38022e-55
-1.24992e-53
-9.15726e-52
-5.46194e-50
-2.67488e-48
-1.08289e-46
-3.64093e-45
-1.01856e-43
-2.35939e-42
-4.49192e-41
-6.91462e-40
-8.44614e-39
-7.99219e-38
-5.90998e-37
-4.00924e-36
-3.70975e-35
-4.84865e-34
-6.98268e-33
-9.79182e-32
-7.07341e-31
-3.22128e-67
-1.168e-64
-2.1501e-62
-2.70235e-60
-2.61205e-58
-2.06823e-56
-1.38432e-54
-7.96825e-53
-3.97114e-51
-1.71752e-49
-6.44656e-48
-2.09411e-46
-5.87009e-45
-1.40893e-43
-2.87814e-42
-4.98317e-41
-7.45624e-40
-1.03276e-38
-1.50879e-37
-2.4998e-36
-4.42134e-35
-7.4123e-34
-6.37451e-33
-1.7615e-71
-8.36405e-69
-2.0479e-66
-3.43728e-64
-4.40056e-62
-4.53644e-60
-3.87156e-58
-2.78552e-56
-1.70649e-54
-8.9637e-53
-4.05163e-51
-1.57574e-49
-5.2674e-48
-1.50707e-46
-3.69157e-45
-7.79144e-44
-1.46631e-42
-2.65792e-41
-5.14801e-40
-1.09342e-38
-2.39542e-37
-4.82146e-36
-5.06027e-35
-1.91219e-76
-1.52878e-73
-5.97086e-71
-1.51396e-68
-2.78804e-66
-3.97261e-64
-4.54398e-62
-4.28422e-60
-3.38568e-58
-2.27065e-56
-1.30213e-54
-6.41357e-53
-2.72336e-51
-9.98299e-50
-3.17925e-48
-8.91994e-47
-2.29448e-45
-5.7677e-44
-1.50691e-42
-4.10455e-41
-1.11831e-39
-2.72248e-38
-3.57045e-37
-4.13466e-81
-4.18331e-78
-2.07438e-75
-6.68403e-73
-1.5631e-70
-2.82385e-68
-4.08611e-66
-4.86436e-64
-4.84761e-62
-4.10265e-60
-2.98002e-58
-1.8725e-56
-1.02587e-54
-4.93738e-53
-2.11823e-51
-8.27165e-50
-3.03814e-48
-1.08213e-46
-3.81853e-45
-1.33632e-43
-4.55969e-42
-1.3564e-40
-2.26636e-39
-3.0031e-86
-4.00881e-83
-2.64858e-80
-1.1452e-77
-3.6116e-75
-8.83337e-73
-1.7356e-70
-2.81387e-68
-3.83153e-66
-4.45092e-64
-4.4628e-62
-3.90399e-60
-3.01188e-58
-2.06877e-56
-1.2799e-54
-7.20364e-53
-3.74369e-51
-1.82075e-49
-8.44779e-48
-3.7964e-46
-1.63995e-44
-6.05468e-43
-1.31033e-41
-8.87116e-92
-1.70134e-88
-1.62766e-85
-1.03161e-82
-4.82539e-80
-1.76733e-77
-5.22651e-75
-1.27676e-72
-2.60924e-70
-4.51331e-68
-6.66524e-66
-8.4766e-64
-9.35878e-62
-9.03512e-60
-7.71578e-58
-5.89722e-56
-4.1023e-54
-2.6379e-52
-1.60448e-50
-9.39596e-49
-5.23928e-47
-2.464e-45
-7.01031e-44
-5.9613e-98
-1.94075e-94
-3.14344e-91
-3.36375e-88
-2.64009e-85
-1.61108e-82
-7.86483e-80
-3.14117e-77
-1.03674e-74
-2.85349e-72
-6.56905e-70
-1.27018e-67
-2.07741e-65
-2.90291e-63
-3.5176e-61
-3.74934e-59
-3.58469e-57
-3.12951e-55
-2.56134e-53
-2.00551e-51
-1.48568e-49
-9.24257e-48
-3.52191e-46
-4.28648e-105
-2.56944e-101
-7.66273e-98
-1.50213e-94
-2.13715e-91
-2.34319e-88
-2.03928e-85
-1.44345e-82
-8.3943e-80
-4.05479e-77
-1.63499e-74
-5.53114e-72
-1.57428e-69
-3.77512e-67
-7.67253e-65
-1.33138e-62
-2.00174e-60
-2.64747e-58
-3.16864e-56
-3.52858e-54
-3.67437e-52
-3.22638e-50
-1.6931e-48
-6.22983e-113
-7.60156e-109
-4.3479e-105
-1.55945e-101
-3.94334e-98
-7.56644e-95
-1.1485e-91
-1.42898e-88
-1.48544e-85
-1.31007e-82
-9.82658e-80
-6.26515e-77
-3.38308e-74
-1.54398e-71
-5.95807e-69
-1.93958e-66
-5.34088e-64
-1.24618e-61
-2.50687e-59
-4.47827e-57
-7.34568e-55
-1.03182e-52
-7.89522e-51
-1.71735e-120
-3.78414e-116
-3.60645e-112
-2.03029e-108
-7.75481e-105
-2.18291e-101
-4.76423e-98
-8.39389e-95
-1.23085e-91
-1.54613e-88
-1.70522e-85
-1.68217e-82
-1.49931e-79
-1.20557e-76
-8.70833e-74
-5.61314e-71
-3.21672e-68
-1.62065e-65
-7.09622e-63
-2.66389e-60
-8.8994e-58
-2.78631e-55
-3.62952e-53
-533.222
-461.096
-1.14131
-2.00128e-13
-658.358
-658.642
-550.735
-350.486
-783.856
-783.832
-778.984
-783.824
-903.674
-909.023
-909.023
-909.013
-339.539
-538.354
-783.165
-1033.99
-12.5753
-30.1474
-95.9516
-217.133
-0.0172306
-0.138104
-1.31501
-1.2871e-07
-4.72417e-06
-4.1629e-05
-9.5218e-05
-1.41253e-07
-3.51276e-06
-1.12409e-06
-4.7693e-07
-1.53797e-07
-6.96934e-06
-7.67485e-07
-1.67521e-07
-1.6634e-07
-1.83858e-07
-1.83903e-07
-1.78883e-07
-1.78883e-07
-0.0090636
-1.91427e-07
-1.91427e-07
-1.91427e-07
-0.0615047
-0.045699
-0.00554965
-2.0397e-07
-0.0816045
-0.16961
-0.00646384
-0.0001183
-7.61296e-05
-0.0217574
-0.590362
-1.39528
-7.25129e-05
-0.010281
-0.0455268
-0.109371
-2.49019e-10
-2.48811e-10
-2.4888e-10
-1.05576e-07
-4.93737e-10
-3.22032e-10
-2.61166e-10
-2.6757e-10
-8.73916e-11
-7.22796e-11
-5.47916e-11
-4.8156e-11
-9.89921e-12
-8.8491e-12
-6.96177e-12
-5.93777e-12
-8.48141e-13
-8.09698e-13
-6.33089e-13
-5.38374e-13
-5.53102e-14
-5.56353e-14
-4.31535e-14
-3.68117e-14
-2.85803e-15
-2.9574e-15
-2.28643e-15
-1.9492e-15
-1.17871e-16
-1.2512e-16
-9.65654e-17
-8.20017e-17
-3.94585e-18
-4.30407e-18
-3.3191e-18
-2.80228e-18
-1.08537e-19
-1.21965e-19
-9.42276e-20
-7.91254e-20
-2.48335e-21
-2.88375e-21
-2.24021e-21
-1.8735e-21
-4.76895e-23
-5.74516e-23
-4.50869e-23
-3.76456e-23
-7.75129e-25
-9.7427e-25
-7.76261e-25
-6.4913e-25
-1.07363e-26
-1.41886e-26
-1.15421e-26
-9.70488e-27
-1.28131e-28
-1.79015e-28
-1.49532e-28
-1.26994e-28
-1.33464e-30
-1.97502e-30
-1.70245e-30
-1.46776e-30
-1.22371e-32
-1.92266e-32
-1.71757e-32
-1.51275e-32
-9.96789e-35
-1.66809e-34
-1.55013e-34
-1.40507e-34
-7.27953e-37
-1.30321e-36
-1.263e-36
-1.18784e-36
-4.81917e-39
-9.27794e-39
-9.38628e-39
-9.23783e-39
-2.92226e-41
-6.08846e-41
-6.42739e-41
-6.6785e-41
-1.64465e-43
-3.73153e-43
-4.1037e-43
-4.53797e-43
-8.69478e-46
-2.16151e-45
-2.46751e-45
-2.92663e-45
-4.38234e-48
-1.20056e-47
-1.41512e-47
-1.81273e-47
-2.12822e-50
-6.46323e-50
-7.81733e-50
-1.0882e-49
-1.00443e-52
-3.40754e-52
-4.19351e-52
-6.37649e-52
-2.00054e-13
-4.63315e-08
-6.61566e-09
-2.18962e-08
-2.63026e-11
-2.35374e-12
-8.64939e-14
-1.82125e-15
-3.64259e-17
-5.6347e-19
-7.87923e-21
-8.75052e-23
-9.53913e-25
-7.96826e-27
-5.12614e-29
-2.43193e-31
-9.19802e-34
-2.33705e-36
-2.80544e-39
-11.9488
-1.30497e-10
-1.30385e-10
-1.25402e-05
-2.07543e-11
-3.24892e-11
-1.61074e-12
-4.37887e-14
-1.14182e-15
-2.53807e-17
-4.81255e-19
-7.21682e-21
-9.19052e-23
-9.71062e-25
-8.8321e-27
-6.89376e-29
-4.15788e-31
-1.66352e-33
-3.22925e-36
-418.739
-14.2617
-0.00422432
-0.000759155
-2.47032e-11
-2.82383e-10
-2.24398e-11
-8.96114e-13
-3.17396e-14
-8.38068e-16
-1.76779e-17
-2.86665e-19
-3.69076e-21
-3.5674e-23
-2.74975e-25
-1.70282e-27
-7.76196e-30
-2.25118e-32
-3.09245e-35
-907.057
-333.092
-14.033
-0.0765028
-4.2925e-06
-1.41422e-09
-2.19718e-10
-1.4927e-11
-7.08618e-13
-2.35786e-14
-6.09809e-16
-1.22808e-17
-2.01598e-19
-2.70793e-21
-2.97935e-23
-2.53937e-25
-1.56671e-27
-6.16375e-30
-1.16003e-32
-1033.99
-815.878
-131.736
-1.2108
-5.58316e-05
-4.4578e-09
-1.08587e-09
-1.14713e-10
-6.78116e-12
-2.70486e-13
-7.67158e-15
-1.59501e-16
-2.43989e-18
-2.88466e-20
-2.62395e-22
-1.76299e-24
-8.32541e-27
-2.45656e-29
-3.46527e-32
-958.424
-995.17
-365.484
-5.5248
-0.000580741
-9.11541e-09
-3.28445e-09
-5.63721e-10
-4.71257e-11
-2.55929e-12
-9.82962e-14
-2.80576e-15
-6.08489e-17
-9.98397e-19
-1.22527e-20
-1.09264e-22
-6.73779e-25
-2.57611e-27
-4.6267e-30
-690.571
-1103.08
-517.245
-10.0632
-0.00161955
-1.64849e-08
-6.647e-09
-1.41358e-09
-1.37285e-10
-8.22673e-12
-3.27758e-13
-9.3354e-15
-1.94288e-16
-2.97458e-18
-3.33771e-20
-2.67146e-22
-1.458e-24
-4.85965e-27
-7.60084e-30
-323.052
-1204.55
-515.774
-9.59169
-0.00131519
-2.56889e-08
-1.19461e-08
-3.09162e-09
-3.94598e-10
-3.21088e-11
-1.78782e-12
-7.034e-14
-1.98373e-15
-4.03942e-17
-5.90514e-19
-6.06815e-21
-4.18453e-23
-1.74668e-25
-3.36485e-28
-260.441
-1090.09
-407.73
-6.30448
-0.000503681
-2.84907e-08
-1.30433e-08
-2.9829e-09
-3.55125e-10
-2.70501e-11
-1.41011e-12
-5.19122e-14
-1.37205e-15
-2.6155e-17
-3.57845e-19
-3.43286e-21
-2.20969e-23
-8.57546e-26
-3.00065e-28
-366.339
-838.337
-199.891
-1.61407
-5.32141e-05
-3.12632e-08
-1.85169e-08
-4.61599e-09
-6.40036e-10
-5.75556e-11
-3.4887e-12
-1.46707e-13
-4.33264e-15
-9.0937e-17
-1.35097e-18
-1.39548e-20
-9.58279e-23
-3.95512e-25
-7.52383e-28
-635.732
-893.864
-202.204
-0.674287
-4.38035e-06
-5.98997e-08
-3.59586e-08
-8.26249e-09
-1.04485e-09
-8.33416e-11
-4.42023e-12
-1.62545e-13
-4.23916e-15
-7.90264e-17
-1.04565e-18
-9.64149e-21
-5.93216e-23
-2.20249e-25
-3.77205e-28
-851.052
-956.556
-244.558
-0.746159
-3.64645e-06
-8.0722e-08
-3.4738e-08
-6.94183e-09
-8.42574e-10
-6.65332e-11
-3.54415e-12
-1.30555e-13
-3.35459e-15
-6.09408e-17
-7.83668e-19
-7.01176e-21
-4.17242e-23
-1.49265e-25
-2.45091e-28
-649.583
-840.007
-195.884
-0.776187
-2.27087e-05
-1.11755e-07
-4.82414e-08
-1.03722e-08
-1.14891e-09
-7.74082e-11
-3.40916e-12
-1.03418e-13
-2.20296e-15
-3.33812e-17
-3.59415e-19
-2.70673e-21
-1.36466e-23
-4.16579e-26
-5.88188e-29
-100.654
-120.505
-66.0667
-4.77589
-0.00397029
-7.64455e-07
-2.48824e-08
-6.71696e-09
-7.55613e-10
-4.8453e-11
-1.91929e-12
-5.03208e-14
-9.12579e-16
-1.18623e-17
-1.10302e-19
-7.22134e-22
-3.18392e-24
-8.55592e-27
-1.06992e-29
-0.2626
-0.225552
-0.429171
-2.38989
-0.193989
-4.52755e-05
-1.35735e-07
-1.2879e-08
-8.61642e-10
-3.5037e-11
-9.38361e-13
-1.77698e-14
-2.4441e-16
-2.49137e-18
-1.8739e-20
-1.02089e-22
-3.83922e-25
-8.98493e-28
-9.95859e-31
-1.25395e-09
-7.15762e-07
-1.85936e-05
-0.000169434
-0.0375398
-0.00130314
-4.72094e-07
-1.48952e-08
-7.62045e-10
-2.05638e-11
-3.59651e-13
-4.55505e-15
-4.38757e-17
-3.30822e-19
-1.9468e-21
-8.72389e-24
-2.80976e-26
-5.80536e-29
-5.80429e-32
-1.31883e-09
-4.67142e-10
-1.77302e-09
-1.54789e-08
-3.02465e-06
-0.000148713
-2.1655e-06
-1.46986e-08
-2.6472e-10
-3.81314e-12
-4.49731e-14
-4.32915e-16
-3.38366e-18
-2.15564e-20
-1.10345e-22
-4.39951e-25
-1.28448e-27
-2.44154e-30
-2.2713e-33
-3.85302e-10
-1.7306e-10
-4.59814e-10
-2.30763e-09
-2.00142e-08
-1.05367e-06
-1.7179e-07
-1.62347e-09
-1.95875e-11
-2.41562e-13
-2.48468e-15
-2.11459e-17
-1.48384e-19
-8.60875e-22
-4.06093e-24
-1.50558e-26
-4.11735e-29
-7.37602e-32
-6.50076e-35
-4.49806e-11
-3.27206e-11
-9.65361e-11
-5.8447e-10
-4.53553e-09
-4.76592e-08
-6.18548e-09
-6.20667e-11
-7.83108e-13
-8.99296e-15
-8.46752e-17
-6.67236e-19
-4.38504e-21
-2.40668e-23
-1.08138e-25
-3.83036e-28
-1.00321e-30
-1.72424e-33
-1.46032e-36
-4.87446e-12
-4.04373e-12
-1.36594e-11
-8.78795e-11
-5.45341e-10
-2.96599e-09
-2.07436e-10
-2.20431e-12
-2.45469e-14
-2.41431e-16
-2.11872e-18
-1.58424e-20
-9.96502e-23
-5.27236e-25
-2.289e-27
-7.83506e-30
-1.98122e-32
-3.28906e-35
-2.69321e-38
-4.27397e-13
-3.5296e-13
-1.30795e-12
-8.61399e-12
-4.23502e-11
-1.30051e-10
-6.38175e-12
-6.82606e-14
-6.64131e-16
-5.74246e-18
-4.4731e-20
-3.04498e-22
-1.83092e-24
-9.45248e-27
-4.00313e-29
-1.33415e-31
-3.27936e-34
-5.29038e-37
-4.20764e-40
-2.8812e-14
-2.28191e-14
-8.81993e-14
-5.95338e-13
-2.36164e-12
-4.40084e-12
-1.76054e-13
-1.80189e-15
-1.55881e-17
-1.21684e-19
-8.65105e-22
-5.47417e-24
-3.102e-26
-1.51419e-28
-6.09296e-31
-1.97644e-33
-4.72517e-36
-7.42881e-39
-5.74313e-42
-1.50793e-15
-1.13143e-15
-4.35738e-15
-3.01231e-14
-1.00007e-13
-1.20275e-13
-4.23429e-15
-4.04538e-17
-3.19903e-19
-2.31424e-21
-1.5397e-23
-9.22786e-26
-4.98121e-28
-2.31778e-30
-8.91092e-33
-2.76965e-35
-6.34929e-38
-9.62629e-41
-7.2206e-44
-6.26821e-17
-4.45632e-17
-1.64794e-16
-1.13095e-15
-3.36362e-15
-2.72227e-15
-8.76619e-17
-7.80254e-19
-5.8049e-21
-3.98554e-23
-2.53244e-25
-1.45953e-27
-7.56374e-30
-3.37744e-32
-1.24611e-34
-3.72162e-37
-8.20256e-40
-1.20288e-42
-8.7708e-46
-2.1139e-18
-1.43138e-18
-4.95114e-18
-3.31839e-17
-9.12674e-17
-5.20807e-17
-1.55835e-18
-1.30778e-20
-9.3961e-23
-6.25739e-25
-3.85997e-27
-2.16578e-29
-1.08354e-31
-4.67215e-34
-1.65993e-36
-4.7836e-39
-1.01633e-41
-1.44693e-44
-1.02769e-47
-5.88676e-20
-3.83716e-20
-1.21995e-19
-7.91911e-19
-2.02755e-18
-8.59549e-19
-2.39447e-20
-1.93194e-22
-1.37096e-24
-9.02545e-27
-5.469e-29
-3.01569e-31
-1.46184e-33
-6.12145e-36
-2.09997e-38
-5.86608e-41
-1.20448e-43
-1.67051e-46
-1.15794e-49
-1.37462e-21
-8.73426e-22
-2.52296e-21
-1.57752e-20
-3.7532e-20
-1.23791e-20
-3.20949e-22
-2.54794e-24
-1.81726e-26
-1.20192e-28
-7.20665e-31
-3.93629e-33
-1.85405e-35
-7.58416e-38
-2.51903e-40
-6.8544e-43
-1.36413e-45
-1.84954e-48
-1.25366e-51
-2.72676e-23
-1.71374e-23
-4.46662e-23
-2.67746e-22
-5.88175e-22
-1.57079e-22
-3.79534e-24
-3.0383e-26
-2.20552e-28
-1.48523e-30
-8.84725e-33
-4.81805e-35
-2.21004e-37
-8.88129e-40
-2.86311e-42
-7.624e-45
-1.47465e-47
-1.96066e-50
-1.30182e-53
-4.64724e-25
-2.93391e-25
-6.87045e-25
-3.93421e-24
-7.91029e-24
-1.77287e-24
-4.00513e-26
-3.31196e-28
-2.46511e-30
-1.70816e-32
-1.0123e-34
-5.52898e-37
-2.4747e-39
-9.82765e-42
-3.08292e-44
-8.07215e-47
-1.52174e-49
-1.99023e-52
-1.29671e-55
-6.87641e-27
-4.43158e-27
-9.29538e-27
-5.07471e-26
-9.24492e-26
-1.7968e-26
-3.81565e-28
-3.33198e-30
-2.55032e-32
-1.83348e-34
-1.08106e-36
-5.95492e-39
-2.60591e-41
-1.0285e-43
-3.14731e-46
-8.13813e-49
-1.49914e-51
-1.93393e-54
-1.23832e-57
-8.92256e-29
-5.96616e-29
-1.11219e-28
-5.81954e-28
-9.49682e-28
-1.65048e-28
-3.31773e-30
-3.1177e-32
-2.45225e-34
-1.8406e-36
-1.07898e-38
-6.02631e-41
-2.58331e-43
-1.019e-45
-3.04917e-48
-7.81928e-51
-1.411e-53
-1.80013e-56
-1.13438e-59
-1.02565e-30
-7.23139e-31
-1.17861e-30
-6.00641e-30
-8.66772e-30
-1.38637e-30
-2.65963e-32
-2.7296e-34
-2.19957e-36
-1.73194e-38
-1.00866e-40
-5.7413e-43
-2.41578e-45
-9.57388e-48
-2.80797e-50
-7.16899e-53
-1.27012e-55
-1.60624e-58
-9.97437e-62
-1.05506e-32
-7.96199e-33
-1.11435e-32
-5.63368e-32
-7.10052e-32
-1.07398e-32
-1.98329e-34
-2.24668e-36
-1.84688e-38
-1.53139e-40
-8.85506e-43
-5.16163e-45
-2.13608e-47
-8.54681e-50
-2.46241e-52
-6.28178e-55
-1.09493e-57
-1.37556e-60
-8.42692e-64
-9.81237e-35
-8.03272e-35
-9.49594e-35
-4.84025e-34
-5.27318e-34
-7.73382e-35
-1.38648e-36
-1.74494e-38
-1.45679e-40
-1.2759e-42
-7.32418e-45
-4.39147e-47
-1.79109e-49
-7.26702e-52
-2.06102e-54
-5.2708e-57
-9.05543e-60
-1.13232e-62
-6.85044e-66
-8.31991e-37
-7.49495e-37
-7.3759e-37
-3.83384e-36
-3.58569e-36
-5.21497e-37
-9.1477e-39
-1.28323e-40
-1.08365e-42
-1.00509e-44
-5.7292e-47
-3.54772e-49
-1.42887e-51
-5.90132e-54
-1.65071e-56
-4.24431e-59
-7.19904e-62
-8.97552e-65
-5.36734e-68
-6.47891e-39
-6.54147e-39
-5.29179e-39
-2.8139e-38
-2.25626e-38
-3.31509e-39
-5.72913e-41
-8.9646e-43
-7.63275e-45
-7.5134e-47
-4.25559e-49
-2.73123e-51
-1.08841e-53
-4.59071e-56
-1.26874e-58
-3.28823e-61
-5.51455e-64
-6.86578e-67
-4.06173e-70
-4.67601e-41
-5.37932e-41
-3.54712e-41
-1.92492e-40
-1.32747e-40
-1.99927e-41
-3.42408e-43
-5.9708e-45
-5.11405e-47
-5.35293e-49
-3.0154e-51
-2.01197e-53
-7.94783e-56
-3.43267e-58
-9.388e-61
-2.45795e-63
-4.08088e-66
-5.0807e-69
-2.97586e-72
-3.16116e-43
-4.19703e-43
-2.24401e-43
-1.23605e-42
-7.37479e-43
-1.15066e-43
-1.96254e-45
-3.80616e-47
-3.27496e-49
-3.65083e-51
-2.0477e-53
-1.42408e-55
-5.58598e-58
-2.47583e-60
-6.71018e-63
-1.77812e-65
-2.92608e-68
-3.6474e-71
-2.11693e-74
-2.02078e-45
-3.12785e-45
-1.35312e-45
-7.50797e-45
-3.90356e-45
-6.35701e-46
-1.08408e-47
-2.33272e-49
-2.01511e-51
-2.39556e-53
-1.33945e-55
-9.72972e-58
-3.79536e-60
-1.72918e-62
-4.65016e-65
-1.24912e-67
-2.03952e-70
-2.5483e-73
-1.46689e-76
-1.23479e-47
-2.24448e-47
-7.85346e-48
-4.34993e-47
-1.98446e-47
-3.39084e-48
-5.79975e-50
-1.38108e-51
-1.1977e-53
-1.51985e-55
-8.48186e-58
-6.44568e-60
-2.5037e-62
-1.17404e-64
-3.13627e-67
-8.55154e-70
-1.38676e-72
-1.73877e-75
-9.93762e-79
-7.27728e-50
-1.56201e-49
-4.43118e-50
-2.42372e-49
-9.76147e-50
-1.75665e-50
-3.02091e-52
-7.94118e-54
-6.91554e-56
-9.37421e-58
-5.22726e-60
-4.16069e-62
-1.61102e-64
-7.78239e-67
-2.06718e-69
-5.72815e-72
-9.2351e-75
-1.1634e-77
-6.61039e-81
-4.16009e-52
-1.05688e-51
-2.44012e-52
-1.30326e-51
-4.66047e-52
-8.85045e-53
-1.53287e-54
-4.43591e-56
-3.88046e-58
-5.61904e-60
-3.13361e-62
-2.61371e-64
-1.00967e-66
-5.02677e-69
-1.3289e-71
-3.74589e-74
-6.01068e-77
-7.61814e-80
-4.31041e-83
)
;

boundaryField
{
    leftWall
    {
        type            calculated;
        value           nonuniform List<scalar> 
50
(
-29.4294
-88.2881
-147.147
-206.006
-264.864
-323.723
-382.582
-441.44
-533.467
-658.662
-783.856
-909.051
-1034.25
-1159.44
-1284.63
-1409.83
-1534.8
-1528.44
-471.974
-1.94984e-34
-9.37046e-18
-6.77799e-17
-2.49121e-16
-8.06275e-16
-2.79376e-15
-5.84675e-15
-7.59349e-15
-2.58522e-15
-1.11035e-17
-9.8359e-20
-2.21756e-20
-4.87737e-22
-1.19679e-26
-3.8258e-31
-2.4835e-34
-3.12483e-40
-8.66003e-44
-4.33295e-50
-1.41953e-56
-2.85237e-62
-3.22128e-67
-1.7615e-71
-1.91219e-76
-4.13466e-81
-3.0031e-86
-8.87116e-92
-5.9613e-98
-4.28648e-105
-6.22983e-113
-1.71735e-120
)
;
    }
    rightWall
    {
        type            calculated;
        value           nonuniform List<scalar> 
50
(
-6.06711e-58
-3.46241e-55
-1.08844e-52
-2.98718e-50
-4.05292e-48
-8.83354e-46
-8.10146e-44
-1.90375e-41
-2.80544e-39
-3.22925e-36
-3.09245e-35
-1.16003e-32
-3.46527e-32
-4.6267e-30
-7.60084e-30
-3.36485e-28
-3.00065e-28
-7.52383e-28
-3.77205e-28
-2.45091e-28
-5.88188e-29
-1.06992e-29
-9.95859e-31
-5.80429e-32
-2.2713e-33
-6.50076e-35
-1.46032e-36
-2.69321e-38
-4.20764e-40
-5.74313e-42
-7.2206e-44
-8.7708e-46
-1.02769e-47
-1.15794e-49
-1.25366e-51
-1.30182e-53
-1.29671e-55
-1.23832e-57
-1.13438e-59
-9.97437e-62
-8.42692e-64
-6.85044e-66
-5.36734e-68
-4.06173e-70
-2.97586e-72
-2.11693e-74
-1.46689e-76
-9.93762e-79
-6.61039e-81
-4.31041e-83
)
;
    }
    lowerWall
    {
        type            calculated;
        value           nonuniform List<scalar> 
62
(
0
0
0
0
0
0
0
0
0
0
0
0
0
0
0
0
0
0
0
0
0
0
0
-29.0367
-87.1097
-145.597
-205.81
-264.864
-323.723
-379.232
-435.345
-470.653
-406.991
-1.00739
-1.76645e-13
-1.13239e-23
-2.74951e-21
-2.21289e-19
-8.12813e-18
-1.9038e-16
-2.70544e-15
-1.03216e-13
-9.09967e-13
0
0
0
0
0