/*--------------------------------*- C++ -*----------------------------------*\
| =========                 |                                                 |
| \\      /  F ield         | OpenFOAM: The Open Source CFD Toolbox           |
|  \\    /   O peration     | Version:  2012                                  |
|   \\  /    A nd           | Website:  www.openfoam.com                      |
|    \\/     M anipulation  |                                                 |
\*---------------------------------------------------------------------------*/
FoamFile
{
    version     2.0;
    format      ascii;
    class       volScalarField;
    location    "0.4";
    object      alpha.water;
}
// * * * * * * * * * * * * * * * * * * * * * * * * * * * * * * * * * * * * * //

dimensions      [0 0 0 0 0 0 0];


internalField   nonuniform List<scalar> 
2268
(
1
1
1
1
1
1
1
1
1
1
1
1
1
1
1
1
1
1
1
0.949221
0.833709
0.848047
0.977396
1
1
1
1
1
1
1
1
1
1
1
1
1
1
1
1
1
1
1
0.997282
0.85385
0.917119
0.998066
1
1
1
1
1
1
1
1
1
1
1
1
1
1
1
1
1
1
1
1
0.98351
0.990916
0.998095
1
1
1
1
1
1
1
1
1
1
1
1
1
1
1
1
1
1
1
1
0.999997
0.999993
0.998332
1
1
1
1
1
1
1
1
1
1
1
1
1
1
1
1
1
1
1
1
1
0.999999
0.998342
1
1
1
1
1
1
1
1
1
1
1
1
1
1
1
1
1
1
1
1
1
1
0.998594
1
1
1
1
1
1
1
1
1
1
1
1
1
1
1
1
1
1
1
1
1
1
0.998696
1
1
1
0.999998
0.999999
0.999999
1
1
1
1
1
1
1
1
1
1
1
1
1
1
1
1
0.998702
1.92875e-08
5.19154e-09
3.16999e-09
2.85372e-10
9.36593e-13
3.19246e-14
2.71704e-16
3.58766e-18
1.52209e-19
9.38751e-21
3.51561e-21
3.9982e-21
5.71837e-21
6.66713e-21
8.5312e-21
1.09693e-20
1.50345e-20
1.79436e-20
2.03842e-20
2.31655e-08
3.24475e-08
1.20527e-07
9.06487e-09
3.81058e-13
2.23981e-14
8.45304e-16
1.10914e-16
5.84176e-18
4.06348e-19
1.39946e-19
2.40334e-19
3.07875e-19
1.59942e-19
9.1273e-20
9.01479e-20
2.22301e-19
2.70188e-19
2.85606e-20
1.22347e-07
1.23208e-05
1.84892e-06
4.63827e-08
9.69355e-11
4.24195e-13
1.52675e-15
2.53727e-15
1.54039e-16
1.41171e-17
8.9818e-18
2.57841e-17
3.54162e-17
2.80025e-17
1.3126e-17
1.03377e-17
1.71489e-17
2.37327e-17
4.23446e-18
1.1415e-05
0.000470455
8.94774e-05
1.02022e-07
2.15183e-09
-3.2752e-11
-4.8011e-14
1.6267e-14
3.35379e-15
8.80776e-16
6.51949e-16
1.67816e-15
2.32463e-15
2.34669e-15
1.24013e-15
7.34467e-16
8.05711e-16
1.15683e-15
2.60827e-16
0.000134343
0.000624231
0.000255203
8.52568e-07
4.80982e-09
2.28667e-11
-4.91529e-13
9.95967e-14
3.05366e-14
2.06538e-14
2.46661e-14
6.0564e-14
9.45529e-14
6.79448e-14
4.58167e-14
2.87396e-14
2.91618e-14
4.24218e-14
1.22294e-14
0.000189773
0.000619309
0.000491634
1.23816e-05
7.69214e-09
2.87597e-11
1.26029e-13
1.41523e-13
1.69341e-13
5.02367e-13
7.30863e-13
8.28145e-13
1.91381e-12
1.23592e-12
5.92924e-13
3.76871e-13
6.86683e-13
8.12803e-13
2.845e-13
0.000360055
0.000336889
0.000315584
2.8139e-05
6.67502e-09
5.75039e-12
3.68425e-13
4.67847e-13
5.1403e-12
1.35495e-11
1.32311e-11
3.35288e-12
1.09517e-11
9.70252e-12
4.53046e-12
2.39535e-12
6.25515e-12
5.57749e-12
2.18312e-12
0.000618047
0.000219672
8.81196e-05
1.02131e-05
2.52408e-09
-5.21151e-12
2.68607e-13
2.70398e-13
2.78128e-13
3.95146e-13
2.87794e-12
2.75298e-12
1.03624e-11
9.68261e-12
6.96692e-12
2.96092e-11
2.06822e-11
3.76252e-11
2.60779e-11
1
1
0.999985
0.999971
0.999976
0.999984
0.999991
0.999995
0.999997
0.999999
0.999999
1
1
1
1
1
1
1
1
1
1
1
0.998889
1
0.999991
0.99981
0.999712
0.999758
0.999818
0.999869
0.999907
0.999933
0.999952
0.999966
0.999979
0.999989
0.999997
1
1
1
1
1
1
1
1
0.999962
0.999991
0.964904
0.8013
0.755656
0.779975
0.784104
0.781488
0.787706
0.799295
0.812081
0.825764
0.843084
0.86715
0.899392
0.937252
0.982822
0.999999
1
1
1
1
1
1
0.753881
0.345011
0.0814882
0.0729739
0.0909853
0.0822926
0.071533
0.0725519
0.0782936
0.0857706
0.0945916
0.10718
0.127444
0.160063
0.207329
0.272751
0.40391
0.631984
0.917817
1
1
1
0.999998
0.0121881
1.30924e-18
2.8611e-17
5.82416e-16
8.91773e-15
2.76865e-14
3.86475e-14
7.90211e-14
2.68818e-13
3.78372e-12
7.5254e-11
3.83594e-10
6.46869e-10
7.09215e-10
3.84062e-09
7.56823e-08
0.00105672
0.0214401
0.0996505
0.263327
0.55618
0.924632
0.999994
1.65371e-19
2.06591e-19
1.26282e-18
2.86119e-17
5.82417e-16
1.63892e-13
1.7751e-12
4.88862e-12
8.01637e-11
3.26834e-09
1.02191e-08
4.89049e-09
7.09215e-10
3.04151e-08
6.92275e-06
3.47938e-05
5.07156e-05
5.39583e-05
6.35718e-05
0.000314171
0.0127663
0.12421
0.368546
7.81227e-20
2.36371e-19
2.88014e-16
2.00462e-14
4.18674e-13
3.58903e-12
1.30637e-11
1.90648e-11
2.17e-11
2.4029e-08
2.14501e-07
1.69595e-07
2.66989e-09
9.35071e-09
7.22902e-05
0.00044216
0.000419445
0.000412493
0.000398421
0.000417089
0.000486418
0.000337829
0.000460076
3.31564e-20
7.27575e-20
3.61745e-16
4.17748e-14
1.14278e-12
7.92475e-12
2.1692e-11
2.81972e-11
2.86845e-11
3.63083e-08
2.63079e-07
2.62858e-07
1.1901e-08
1.46963e-08
9.50462e-05
0.000446213
0.000521303
0.00052039
0.000516101
0.000580639
0.000548492
0.000216207
0.000104892
1.42545e-20
2.4771e-20
2.05396e-16
4.23343e-14
1.28685e-12
8.78893e-12
2.32013e-11
3.27666e-11
3.05589e-11
1.53781e-08
2.63079e-07
2.49215e-07
4.15804e-08
5.99421e-07
2.87725e-05
1.03895e-09
0.000174547
0.000338257
9.60573e-05
0.000171815
0.000535293
0.000240965
7.87039e-05
1.07048e-20
-2.3897e-20
7.06833e-17
2.88637e-14
1.0902e-12
7.42071e-12
1.85004e-11
2.72714e-11
2.72931e-11
2.56991e-09
7.32341e-08
5.36422e-08
1.33211e-07
1.9022e-06
1.03347e-09
9.21711e-10
1.03895e-09
2.94173e-08
8.955e-05
8.44459e-05
8.37505e-05
8.0656e-05
7.76788e-05
1.01022e-20
1.47935e-20
2.0104e-17
1.4286e-14
5.96272e-13
3.77723e-12
8.76204e-12
1.56501e-11
4.59163e-11
2.15223e-11
2.16172e-11
2.16172e-11
4.31329e-08
3.74498e-08
1.80689e-09
2.75582e-10
6.49056e-10
2.90834e-05
0.000220483
0.000225203
0.000118674
8.47526e-05
7.7756e-05
4.80864e-21
1.27256e-20
5.19755e-18
4.81739e-15
2.09844e-13
1.25013e-12
2.94804e-12
6.23277e-12
3.40003e-11
7.81545e-11
6.11637e-11
2.31468e-11
6.56711e-09
3.00412e-09
4.6668e-09
7.6596e-11
3.01202e-12
5.33212e-11
0.000128705
0.0003939
0.000424607
0.000425016
0.000397932
-8.47713e-23
2.39952e-21
1.39288e-18
1.19979e-15
5.262e-14
3.05842e-13
8.05653e-13
2.15796e-12
1.17704e-11
7.33008e-11
9.83913e-11
7.8254e-11
2.54989e-11
1.56029e-09
1.81029e-09
6.80342e-11
1.52665e-12
1.44368e-13
1.19756e-13
9.6503e-13
2.0888e-11
4.25924e-05
0.000163739
-9.92708e-22
-9.4339e-38
4.19948e-19
2.38122e-16
1.01377e-14
5.93492e-14
1.83871e-13
7.40639e-13
2.90532e-12
2.21002e-11
7.97183e-11
1.06955e-10
3.31081e-11
1.13327e-11
1.11724e-11
3.67289e-11
2.44179e-12
1.42644e-13
1.44586e-13
1.72157e-13
2.15674e-13
4.56079e-13
6.30297e-12
-1.3819e-21
-3.33341e-23
1.49955e-19
3.87331e-17
1.51975e-15
9.10989e-15
3.70632e-14
2.32646e-13
8.59967e-13
3.30832e-12
1.66697e-11
7.01528e-11
5.5588e-11
3.11785e-11
1.11642e-11
3.46748e-12
3.20225e-13
1.42556e-13
2.09874e-13
1.99343e-13
2.00036e-13
2.16921e-13
4.55238e-13
-1.32436e-21
-8.21392e-22
5.19701e-20
5.2767e-18
1.75805e-16
1.09506e-15
7.09949e-15
6.3285e-14
2.70878e-13
6.33419e-13
1.96348e-12
9.83127e-12
1.57978e-11
1.76583e-11
1.03064e-11
2.00366e-12
7.25916e-14
1.23605e-14
3.71503e-14
2.00925e-13
9.66477e-13
2.65983e-12
3.92919e-12
-1.00246e-21
-7.6212e-22
1.31144e-20
6.21339e-19
1.53671e-17
1.06879e-16
1.37251e-15
1.46776e-14
7.02992e-14
1.57895e-13
3.83849e-13
7.54296e-13
1.11085e-12
9.03767e-13
4.66064e-13
9.80286e-14
4.99897e-15
1.00939e-15
3.2415e-15
2.21475e-14
1.30977e-13
5.28838e-13
2.08122e-12
-6.16808e-22
-4.98159e-22
2.05415e-21
6.41386e-20
9.86371e-19
9.3975e-18
2.60797e-16
2.93655e-15
1.48735e-14
3.7345e-14
9.12324e-14
1.29628e-13
1.21818e-13
8.94729e-14
3.71783e-14
6.17952e-15
2.94294e-16
1.89947e-16
9.2809e-16
8.22092e-15
5.58366e-14
2.45559e-13
1.13902e-12
-3.06321e-22
-2.56364e-22
1.71613e-22
5.41938e-21
4.51303e-20
9.0398e-19
4.31618e-17
5.05193e-16
2.71009e-15
7.34276e-15
1.90246e-14
2.68861e-14
2.57506e-14
1.77834e-14
6.38823e-15
8.0502e-16
3.49083e-17
4.65491e-17
2.98052e-16
2.86274e-15
2.11038e-14
1.02134e-13
5.80557e-13
-1.19291e-22
-1.03496e-22
-4.43835e-25
3.08509e-22
1.41524e-21
9.71663e-20
5.50474e-18
7.22508e-17
4.21131e-16
1.18517e-15
3.22536e-15
4.65341e-15
4.45217e-15
3.06729e-15
1.08399e-15
1.27303e-16
6.36453e-18
1.04507e-17
8.37977e-17
8.94492e-16
7.32695e-15
3.97793e-14
2.91062e-13
-3.46957e-23
-3.12449e-23
-5.71158e-24
7.30117e-24
2.46146e-23
8.31598e-21
5.01189e-19
8.06313e-18
5.21044e-17
1.59961e-16
3.89312e-16
5.12003e-16
4.83085e-16
3.30456e-16
1.18982e-16
1.43854e-17
1.04493e-18
2.20687e-18
2.17818e-17
2.57804e-16
2.3556e-15
1.52568e-14
1.62216e-13
-6.9993e-24
-6.52006e-24
-2.05813e-24
-4.24989e-25
8.77113e-27
3.88895e-22
3.0304e-20
6.48111e-19
4.69723e-18
1.6983e-17
3.55545e-17
3.86748e-17
3.48082e-17
2.23565e-17
7.79564e-18
9.35211e-19
1.49688e-19
4.40239e-19
5.26341e-18
6.97353e-17
7.18171e-16
6.4393e-15
1.08077e-13
-8.7648e-25
-8.44367e-25
-2.62243e-25
-5.3488e-26
3.25131e-30
6.80241e-24
1.05175e-21
3.40706e-20
2.83506e-19
1.24068e-18
2.30689e-18
2.35553e-18
2.01719e-18
1.23903e-18
4.41615e-19
5.6232e-20
2.01061e-20
8.69465e-20
1.23255e-18
1.85556e-17
2.2144e-16
3.31205e-15
8.22802e-14
-5.59152e-26
-5.94002e-26
-1.82176e-26
-3.70658e-27
-4.02181e-28
4.20129e-27
1.43586e-23
1.00356e-21
1.01113e-20
4.88177e-20
9.88063e-20
1.02765e-19
8.995e-20
5.76138e-20
2.14649e-20
2.76391e-21
2.26259e-21
1.73584e-20
2.95282e-19
5.11696e-18
7.34844e-17
2.00395e-15
6.40886e-14
-3.46185e-42
-7.7039e-40
6.01644e-36
5.60234e-31
1.45393e-30
6.85032e-30
1.97896e-26
1.26841e-23
1.63539e-22
7.22721e-22
1.813e-21
1.93434e-21
1.6109e-21
9.07001e-22
2.61602e-22
6.16566e-23
2.07705e-22
3.71642e-21
7.64418e-20
1.51621e-18
2.6027e-17
1.22391e-15
4.50678e-14
-2.14372e-42
-3.39695e-40
-2.49952e-38
4.84317e-36
3.15697e-34
1.70327e-32
4.62987e-29
3.62405e-26
4.91567e-25
2.13465e-24
5.18515e-24
6.47759e-24
6.16866e-24
4.485e-24
2.08542e-24
2.85124e-24
3.48128e-23
8.57389e-22
2.13506e-20
4.719e-19
9.18244e-18
6.6298e-16
2.63965e-14
-1.14196e-42
-1.4146e-40
-1.36408e-38
-6.74617e-37
-2.33522e-35
-5.46527e-34
4.1695e-32
9.88355e-29
2.1427e-27
1.28763e-26
3.96306e-26
8.50514e-26
9.95823e-26
8.91439e-26
8.19432e-26
2.7217e-25
6.75348e-24
2.07371e-22
6.05358e-21
1.4471e-19
3.02249e-18
3.03034e-16
1.32465e-14
-4.97432e-43
-5.45357e-41
-5.92241e-39
-3.43485e-37
-1.29424e-35
-3.3152e-34
-5.54434e-33
-3.76177e-32
1.73779e-30
4.56459e-29
2.75483e-28
8.95723e-28
1.34399e-27
1.26933e-27
1.94331e-27
3.52045e-26
1.3571e-24
4.94749e-23
1.6191e-21
4.13908e-20
9.00251e-19
1.18521e-16
5.78528e-15
-1.63391e-43
-1.70566e-41
-1.92389e-39
-1.15622e-37
-4.47522e-36
-1.19097e-34
-2.13556e-33
-2.25255e-32
-5.60359e-32
3.32914e-32
9.95423e-31
3.75895e-30
4.31032e-30
6.59059e-30
1.27467e-28
5.91627e-27
2.681e-25
1.09354e-23
3.90319e-22
1.07404e-20
2.42033e-19
4.0165e-17
2.18132e-15
-3.54673e-44
-3.55603e-42
-4.16159e-40
-2.55614e-38
-1.01228e-36
-2.77871e-35
-5.23154e-34
-6.21648e-33
-3.31784e-32
-8.22457e-32
-6.49241e-32
-2.8177e-32
-9.84826e-34
3.16048e-31
1.83474e-29
9.31132e-28
4.84188e-26
2.15473e-24
8.32147e-23
2.4953e-21
5.90102e-20
1.1777e-17
7.06549e-16
-3.81957e-45
-3.71348e-43
-4.50395e-41
-2.82426e-39
-1.14465e-37
-3.24542e-36
-6.40959e-35
-8.37746e-34
-6.27946e-33
-1.73166e-32
-1.35571e-32
-5.86141e-33
-4.54479e-34
3.69065e-32
2.18589e-30
1.34658e-28
7.78277e-27
3.73415e-25
1.55806e-23
5.13151e-22
1.30197e-20
2.969e-18
1.94649e-16
-3.33448e-57
-7.98953e-55
-8.18808e-53
-8.77145e-52
-2.11382e-54
1.90944e-50
1.08655e-47
3.43703e-45
3.24432e-43
2.36471e-41
1.09563e-36
2.9769e-35
1.23578e-34
3.29178e-33
2.46123e-31
1.74668e-29
1.09739e-27
5.65657e-26
2.54748e-24
9.23256e-23
2.5672e-21
6.38686e-19
4.51555e-17
-1.59341e-57
-3.61685e-55
-3.8642e-53
-4.26802e-52
-1.75023e-52
-2.16162e-50
-1.12088e-50
1.47068e-48
5.82853e-46
2.73295e-44
2.51642e-40
3.29793e-38
3.39914e-36
2.87678e-34
2.50073e-32
1.97685e-30
1.33714e-28
7.39201e-27
3.59912e-25
1.4384e-23
4.44432e-22
1.16159e-19
8.77021e-18
-5.58101e-58
-1.24248e-55
-1.38001e-53
-1.5679e-52
-6.44808e-53
-9.73648e-51
-8.16807e-51
1.32029e-49
4.40706e-47
3.73599e-45
1.27832e-41
1.92104e-39
2.16865e-37
2.21399e-35
2.21486e-33
1.87978e-31
1.37955e-29
8.12406e-28
4.30913e-26
1.91781e-24
6.63844e-23
1.75573e-20
1.40854e-18
-1.28585e-58
-2.88679e-56
-3.31937e-54
-3.87679e-53
-1.56142e-53
-2.71279e-51
-2.87829e-51
2.81233e-51
8.44491e-49
2.82859e-46
4.1888e-43
8.73388e-41
1.12944e-38
1.41762e-36
1.55257e-34
1.44348e-32
1.15967e-30
7.19759e-29
4.23199e-27
2.13859e-25
8.37449e-24
2.1282e-21
1.81657e-19
-1.4791e-59
-3.41076e-57
-4.03732e-55
-4.8452e-54
-1.87487e-54
-3.58463e-52
-4.08956e-52
-8.49308e-54
1.46895e-50
9.2499e-48
1.12901e-44
3.02365e-42
4.42813e-40
6.94165e-38
7.95543e-36
8.50144e-34
7.2908e-32
4.87066e-30
3.25877e-28
1.90441e-26
8.56819e-25
1.93891e-22
1.78787e-20
-1.41467e-81
-3.50712e-78
-7.56683e-75
8.46963e-67
2.55407e-62
9.88271e-63
6.33277e-57
7.37302e-54
7.43119e-52
3.04335e-49
2.69031e-46
6.27456e-44
1.25831e-41
2.21958e-39
2.84619e-37
3.35747e-35
3.01709e-33
2.39761e-31
1.8647e-29
1.2538e-27
6.57496e-26
1.19448e-23
1.24243e-21
-6.43519e-82
-1.31018e-78
-2.88426e-75
4.52141e-70
3.3372e-63
8.7245e-65
4.76591e-60
3.86107e-57
6.13115e-54
1.54825e-52
2.01435e-48
8.57182e-46
1.88533e-43
3.66623e-41
5.96272e-39
6.96751e-37
7.3593e-35
7.28184e-33
6.97801e-31
5.32169e-29
3.28026e-27
4.19748e-25
5.39562e-23
-2.22205e-82
-3.33335e-79
-7.44387e-76
6.50333e-75
1.50873e-70
-2.50569e-68
-4.56105e-65
-1.44954e-59
4.50175e-57
7.30504e-55
2.50775e-51
1.34968e-48
4.13377e-46
9.90557e-44
2.66926e-41
4.83401e-39
7.41296e-37
9.8942e-35
1.0936e-32
1.03435e-30
7.79199e-29
6.64149e-27
1.15895e-24
-5.17946e-83
-4.33159e-80
-9.79537e-77
-5.58469e-75
-1.51988e-70
-9.09121e-69
-5.46935e-64
-9.54513e-60
-1.56402e-60
8.87591e-61
6.65323e-57
2.09116e-53
1.16859e-50
5.20605e-48
2.53069e-45
8.02019e-43
2.2926e-40
5.56372e-38
1.13785e-35
1.93478e-33
2.58574e-31
6.78996e-29
8.43513e-27
-6.13707e-84
-3.55373e-83
-1.82983e-79
-3.16283e-76
-6.85062e-73
-1.21436e-69
-1.43196e-67
-9.15305e-64
-8.91582e-65
-4.96822e-66
1.85976e-67
3.57757e-64
2.42495e-60
5.91276e-57
5.85466e-54
5.79903e-51
4.7097e-48
3.21704e-45
1.83868e-42
8.72018e-40
3.22743e-37
1.45424e-31
9.12985e-30
-7.76321e-103
-1.23559e-104
-5.82616e-107
-2.61139e-109
-1.15308e-111
-5.22646e-114
-6.86265e-94
-1.94853e-95
-3.22514e-97
-3.40609e-77
-1.36326e-78
-3.10043e-80
-5.32023e-82
-7.72158e-84
5.25904e-68
3.84342e-65
4.32302e-62
2.76078e-59
1.09158e-78
6.86875e-54
1.4705e-51
0
-4.43406e-48
0.999522
0.999982
0.769225
0.242141
0.999874
0.999994
0.999982
0.922014
0.999998
0.999995
0.999994
0.999945
0.999995
0.999995
0.999995
0.999992
0.999995
0.999995
0.999992
0.999972
0.603835
0.764743
0.937412
0.999956
0.0173272
0.0529503
0.123188
0.231173
0.000125315
0.000165653
0.000242703
0.000366472
7.90177e-05
8.24902e-05
8.77925e-05
0.000107088
7.7756e-05
7.80458e-05
7.86784e-05
8.81271e-05
7.76969e-05
7.7756e-05
7.80458e-05
0.000117205
0.000419354
0.000453973
0.000461036
0.00053931
0.000231836
0.000255723
0.00024942
0.000216879
2.42684e-07
6.3468e-07
4.23885e-07
1.95365e-08
2.40768e-12
5.44396e-12
2.88834e-11
1.04628e-10
3.95039e-12
4.06668e-12
5.42146e-12
1.17311e-11
4.31306e-12
6.7256e-12
1.04068e-11
1.56589e-11
2.54491e-12
4.30773e-12
7.26206e-12
1.21362e-11
1.38662e-12
2.38491e-12
4.32113e-12
7.31057e-12
7.45784e-13
1.30302e-12
2.59664e-12
4.20753e-12
4.5024e-13
8.0491e-13
1.79461e-12
3.02302e-12
3.18934e-13
5.78826e-13
1.48243e-12
2.60067e-12
2.48055e-13
4.53674e-13
1.40015e-12
2.59927e-12
1.9247e-13
3.54679e-13
1.15637e-12
2.27671e-12
1.3711e-13
2.51683e-13
8.05044e-13
1.5933e-12
8.39692e-14
1.51551e-13
4.47174e-13
8.48376e-13
4.23741e-14
7.72573e-14
2.27454e-13
4.10728e-13
1.81945e-14
3.37323e-14
8.88109e-14
1.72531e-13
6.75885e-15
1.27805e-14
3.18312e-14
7.47905e-14
2.15683e-15
4.12931e-15
1.16069e-14
3.47389e-14
5.83962e-16
1.14333e-15
3.97084e-15
1.58642e-14
1.32847e-16
2.72972e-16
1.24369e-15
6.18002e-15
2.53248e-17
5.66738e-17
3.56591e-16
1.94547e-15
4.02144e-18
1.03224e-17
9.14131e-17
5.42451e-16
5.21355e-19
1.6597e-18
1.97185e-17
1.25138e-16
5.3409e-20
2.30562e-19
3.51703e-18
2.34086e-17
4.12353e-21
2.60603e-20
4.83691e-19
3.38898e-18
2.23751e-22
2.14572e-21
4.63282e-20
3.50526e-19
7.2952e-24
1.05372e-22
2.68696e-21
2.26393e-20
7.94989e-26
1.70796e-24
6.51256e-23
6.49421e-22
7.47433e-30
1.48929e-28
1.23147e-26
1.23021e-25
-8.32417e-49
-8.86469e-50
-5.28183e-43
-1.15941e-43
0.0019651
3.53512e-05
8.91309e-06
9.88728e-09
3.57978e-09
1.11572e-12
8.17661e-13
4.36037e-11
3.95125e-13
8.08907e-09
2.97949e-08
4.32289e-11
1.06049e-11
1.54186e-11
8.00462e-11
7.25473e-10
3.11778e-10
5.35583e-10
5.26401e-10
0.205365
1.76158e-06
4.96252e-08
1.62477e-09
1.35774e-09
2.67832e-10
1.8504e-06
4.8175e-06
1.11603e-08
6.82956e-09
6.48208e-09
5.53162e-09
2.06004e-11
2.20372e-10
1.77948e-09
1.25513e-08
3.33829e-09
6.29369e-09
8.64585e-09
0.814868
0.268355
1.76158e-06
4.96252e-08
1.62477e-09
4.30946e-09
4.51156e-07
6.56642e-07
1.23925e-08
1.78361e-05
5.79521e-05
8.3313e-07
1.0449e-06
3.2983e-08
4.6579e-07
4.213e-07
7.24693e-08
1.159e-07
2.1895e-07
0.999912
0.974658
0.215701
0.0373949
0.176054
1.36627e-08
3.27425e-08
1.51613e-07
7.16466e-07
8.69793e-06
1.17194e-06
8.45645e-07
1.16973e-06
9.15475e-07
1.35678e-05
1.09034e-05
1.28078e-06
1.72374e-06
4.32544e-06
0.999956
0.999677
0.913053
0.716276
0.854714
0.71165
0.266223
0.267136
0.430091
0.308385
0.0798194
1.16973e-06
5.79574e-06
0.00630015
0.000221297
0.000179008
1.81642e-05
1.97133e-05
6.20574e-05
0.999677
0.999094
0.998794
0.994992
0.984503
0.977854
0.947409
0.93799
0.964001
0.949844
0.87392
0.758278
0.668711
0.538536
0.159432
0.044136
0.000200296
0.00016881
0.000572392
0.484255
0.774582
0.923395
0.984503
0.977854
0.977854
0.977854
0.976636
0.974737
0.974089
0.973408
0.970412
0.964129
0.956429
0.952953
0.685553
0.0620048
0.00109183
0.00352877
0.00452252
0.0656167
0.176165
0.313411
0.457956
0.56303
0.630268
0.670176
0.705993
0.756541
0.8382
0.964129
0.956541
0.953768
0.953386
0.952953
0.633011
0.0773465
0.057562
0.000144701
0.000232322
0.000451849
0.000875265
0.00238828
0.0102752
0.0219516
0.0339548
0.0471681
0.0700017
0.116736
0.216221
0.396319
0.819858
0.952953
0.950471
0.944517
0.582171
0.406494
0.000107096
0.000144702
0.000274361
0.000593275
0.000220889
2.14218e-05
2.18298e-05
3.09089e-05
3.76366e-05
5.02369e-05
9.7797e-05
0.000231817
0.000686249
0.0603194
0.488339
0.944302
0.938923
0.898311
0.598926
0.000381921
0.000589384
0.000667431
0.000662642
0.00026318
8.02751e-07
5.91225e-07
5.78645e-07
9.68891e-08
7.18864e-07
1.41478e-06
5.79838e-06
2.87529e-05
0.000228372
0.00473205
0.625234
0.93106
0.92285
0.583031
0.00053931
0.00051682
0.000401856
0.000121384
1.25204e-05
2.93071e-08
1.69697e-08
1.2585e-08
9.03194e-09
5.6817e-10
3.02758e-08
1.04023e-07
9.64048e-07
1.43691e-05
0.000217882
0.270935
0.879973
0.914809
0.550624
0.000113732
3.24756e-05
5.0311e-06
4.934e-08
1.18626e-08
2.23099e-09
1.46039e-09
4.12305e-09
7.00427e-09
1.0881e-08
1.19366e-08
1.46035e-08
1.22762e-07
9.64112e-07
1.43703e-05
0.0969511
0.767124
0.910849
0.504944
1.63399e-08
6.8495e-09
3.06991e-09
1.64064e-09
1.29174e-09
1.14376e-09
1.12169e-09
3.96616e-09
7.03259e-09
1.18176e-08
1.18111e-08
1.19366e-08
1.46035e-08
2.52451e-07
1.21923e-05
0.0363124
0.66276
0.903782
0.427304
1.76783e-10
1.71397e-10
2.83593e-10
4.82627e-10
1.01917e-09
1.12434e-09
1.11542e-09
1.10423e-09
2.63751e-09
7.78978e-07
1.19396e-08
1.2605e-08
1.30658e-08
3.23814e-07
7.68126e-05
0.00261124
0.64525
0.784491
0.298704
3.87536e-11
9.97666e-11
2.42261e-10
4.47567e-10
1.009e-09
1.16296e-09
1.11522e-09
1.09575e-09
1.09575e-09
1.10676e-09
9.13423e-06
1.50259e-05
5.04998e-08
1.52077e-07
5.02917e-06
1.02831e-05
0.64766
0.57049
0.134117
3.74569e-11
9.76456e-11
2.41472e-10
6.00311e-10
1.27615e-09
1.76452e-09
1.62287e-09
1.19566e-09
1.09684e-09
1.09793e-09
1.3224e-05
3.4769e-05
2.54503e-05
1.7014e-06
1.31945e-06
0.00925645
0.635594
0.453519
0.067708
4.10679e-11
8.44887e-11
2.0435e-10
8.41726e-10
2.09281e-09
2.29752e-09
2.27424e-09
1.50471e-09
1.09793e-09
1.10657e-09
1.11112e-09
3.51106e-05
3.65046e-05
4.74612e-06
3.70775e-06
0.0443216
0.635308
0.332447
0.0663846
4.39846e-11
1.04429e-10
2.73338e-10
9.17779e-10
1.94849e-09
2.18799e-09
2.18567e-09
1.32308e-09
1.1077e-09
1.10757e-09
1.13626e-09
1.57312e-05
3.64487e-05
5.12674e-06
5.89714e-06
0.0720593
0.632718
0.162277
0.066179
3.20427e-11
1.78808e-10
4.29584e-10
8.13976e-10
7.3761e-10
7.18872e-10
2.60681e-08
2.21679e-07
2.55364e-07
6.85565e-08
3.78198e-09
5.28527e-09
3.62469e-05
2.20127e-05
1.64495e-05
0.0553438
0.625442
0.178055
0.0661522
1.95671e-11
2.80626e-10
6.80396e-10
7.23408e-10
7.18872e-10
7.18902e-10
8.57121e-08
8.52514e-07
8.52453e-07
4.29936e-07
5.32293e-09
1.08117e-08
2.64276e-05
3.96423e-05
2.74384e-05
0.0152112
0.469866
0.311128
0.0661498
6.90921e-12
4.95818e-10
1.48198e-09
1.31215e-09
7.19332e-10
7.18872e-10
5.1107e-08
7.39191e-07
8.53059e-07
8.52573e-07
3.35428e-07
2.39355e-08
9.43933e-06
3.78138e-05
8.73959e-06
0.00261461
0.158797
0.33248
0.0661503
1.71303e-12
9.41995e-10
2.19929e-09
2.22318e-09
1.25342e-09
7.20491e-10
8.87937e-10
5.34957e-08
7.45622e-07
8.53048e-07
6.60984e-07
3.21239e-08
3.68089e-08
2.94157e-05
5.90325e-06
0.00126126
0.00855239
0.331892
0.0814412
1.64336e-12
9.86641e-10
2.15807e-09
1.62306e-09
4.99299e-10
2.68564e-08
1.03362e-07
1.01503e-07
1.0121e-07
3.34283e-07
4.77522e-07
7.61114e-08
1.1267e-07
2.7642e-06
4.61933e-06
8.65927e-05
0.0126482
0.303021
0.257635
1.59007e-12
6.91034e-10
1.30866e-09
6.25169e-10
4.94671e-10
1.20324e-07
2.27537e-07
2.27537e-07
1.59339e-07
8.95486e-08
2.03745e-07
1.93136e-07
1.14913e-07
1.44622e-07
1.30258e-06
8.19412e-06
0.000445546
0.0899144
0.257801
8.09873e-12
4.43462e-10
5.77204e-10
4.86992e-10
4.88199e-10
1.33004e-08
1.29402e-07
2.20704e-07
2.24091e-07
8.65808e-08
7.59751e-08
1.28708e-07
6.64943e-08
9.85927e-08
3.78582e-06
1.30765e-05
5.74756e-06
0.0371873
0.251366
1.18319e-11
2.85505e-10
3.36654e-10
4.78496e-10
1.37762e-09
1.37508e-09
1.37855e-09
1.38177e-09
4.56782e-08
4.66102e-08
4.80265e-08
5.08736e-08
5.33595e-08
1.55081e-07
1.61328e-06
1.46645e-06
3.43107e-06
0.0665755
0.257562
8.04665e-12
2.19177e-10
2.54461e-10
7.14849e-10
2.43802e-09
1.8799e-09
1.38152e-09
1.16097e-06
4.66102e-08
4.80265e-08
4.91526e-08
4.99851e-08
5.13643e-08
5.54678e-08
6.44755e-08
1.08977e-07
6.17107e-07
0.145136
0.260354
3.11452e-12
1.60718e-10
2.59037e-10
7.34926e-10
7.40462e-11
4.29162e-08
1.43605e-09
4.37094e-06
6.36789e-06
9.08467e-07
4.99851e-08
5.13645e-08
5.32514e-08
5.49587e-08
5.73576e-08
6.64032e-08
0.0147302
0.238701
0.261059
1.91626e-12
9.6997e-11
1.82281e-10
1.16773e-10
7.50019e-11
6.78963e-08
3.98923e-08
5.29862e-08
2.19539e-05
8.60213e-06
6.52505e-08
5.32514e-08
0.0113619
0.0545344
0.108213
0.196805
0.254831
0.261059
0.261163
1.22144e-12
3.13154e-11
4.96918e-11
3.79188e-11
3.83171e-11
5.15922e-08
4.84908e-08
1.14699e-10
4.06144e-06
1.99718e-06
2.90187e-07
0.00696554
0.169251
0.186261
0.184875
0.158896
0.259856
0.261163
0.261163
6.93876e-13
6.43678e-12
1.3693e-11
3.63615e-11
3.96003e-11
2.50204e-11
2.63143e-11
7.09397e-11
4.92427e-07
5.68494e-07
5.12674e-07
0.0177816
0.071154
0.127267
0.121727
0.0169766
0.0541053
0.258455
0.261163
2.99201e-13
1.45055e-12
9.61013e-12
4.72072e-11
4.79691e-11
2.39352e-11
2.50204e-11
7.04464e-11
5.84573e-10
0.00294922
0.00759546
0.00708972
0.0022753
0.00193923
0.00151544
0.000112439
0.00131961
0.242161
0.26056
6.29102e-14
3.87378e-13
8.64743e-12
4.49685e-11
2.37992e-11
1.4625e-11
2.24007e-08
2.94937e-09
1.13717e-09
0.0136623
0.0218328
0.0113954
0.000545816
0.000194065
6.93597e-05
5.51527e-05
0.00260856
0.231489
0.260215
1.1331e-14
9.13157e-14
3.87418e-12
2.19676e-11
1.1162e-12
1.75656e-12
8.45048e-07
3.35092e-07
3.63527e-09
0.0121806
0.0226267
0.0170453
0.000864823
6.93518e-05
5.11617e-05
5.51522e-05
0.025021
0.154909
0.259976
2.10974e-15
1.72409e-14
6.61008e-13
5.64653e-13
5.79957e-13
9.99942e-10
9.92895e-07
6.71502e-07
1.721e-12
0.00326152
0.0243434
0.011725
0.000152278
5.36827e-05
4.91824e-05
0.00026858
0.0335174
0.0639401
0.259993
3.40903e-16
2.05599e-15
1.87663e-14
1.04182e-16
7.60741e-12
4.51301e-10
5.07667e-10
4.8101e-14
0
0.0013788
0.0253027
0.00917998
9.4926e-05
5.1444e-05
4.73057e-05
0.00143119
0.0137789
0.0278536
0.105236
3.81247e-17
1.95742e-16
1.0648e-15
8.26891e-17
3.89952e-12
2.05479e-11
-1.04789e-25
-2.17567e-24
-1.89553e-12
4.97271e-21
0.0405342
0.0142712
0.000108983
6.86664e-05
4.13032e-05
0.00120249
0.00224935
0.00580434
0.00431782
2.46588e-18
1.39612e-17
1.01601e-16
8.17969e-17
1.94744e-34
-6.03676e-18
-4.0096e-18
-4.05021e-16
-9.46673e-12
0.00828323
0.0446551
0.0256945
7.26268e-05
4.1302e-05
4.13032e-05
0.00022041
0.000562457
0.00172422
0.000819448
7.9414e-20
5.46011e-19
2.88452e-18
-1.11242e-17
-6.42751e-18
-5.82338e-18
-2.5928e-18
-9.73606e-16
-2.85634e-11
0.0121686
0.0458828
0.046542
0.0143424
6.14852e-05
4.13026e-05
6.1482e-05
0.000119067
0.0005946
0.000205166
5.76758e-23
3.28262e-21
6.32173e-20
-7.57351e-18
-2.47515e-18
-2.03688e-18
-6.92204e-19
-1.45391e-15
-4.71046e-11
-4.98232e-12
0.0365405
0.046542
0.0278017
0.000363622
6.14858e-05
7.11866e-05
8.81418e-05
0.000188857
0.000137714
-5.96864e-45
-2.28325e-46
-7.5555e-48
-1.52021e-18
-2.04679e-19
-3.23274e-19
-7.18895e-20
-4.18361e-19
-1.93805e-19
-7.97849e-20
0.00390552
0.0247773
5.36882e-20
9.61789e-05
8.30742e-05
7.11866e-05
7.11866e-05
0.00010445
0.000137714
)
;

boundaryField
{
    leftWall
    {
        type            zeroGradient;
    }
    rightWall
    {
        type            zeroGradient;
    }
    lowerWall
    {
        type            zeroGradient;
    }
    atmosphere
    {
        type            inletOutlet;
        inletValue      uniform 0;
        value           nonuniform List<scalar> 
46
(
0
0
0
0
0
0
0
0
0
0
0
0
0
0
0
0
0
0
0
0
0
0
0
0
0
0
0
0
0
0
0
0
0
0
0
0
0
0.00390552
0.0247773
0
0
8.30742e-05
7.11866e-05
7.11866e-05
0.00010445
0.000137714
)
;
    }
    defaultFaces
    {
        type            empty;
    }
}


// ************************************************************************* //
