/*--------------------------------*- C++ -*----------------------------------*\
| =========                 |                                                 |
| \\      /  F ield         | OpenFOAM: The Open Source CFD Toolbox           |
|  \\    /   O peration     | Version:  2012                                  |
|   \\  /    A nd           | Website:  www.openfoam.com                      |
|    \\/     M anipulation  |                                                 |
\*---------------------------------------------------------------------------*/
FoamFile
{
    version     2.0;
    format      ascii;
    class       volScalarField;
    location    "0.4";
    object      p;
}
// * * * * * * * * * * * * * * * * * * * * * * * * * * * * * * * * * * * * * //

dimensions      [1 -1 -2 0 0 0 0];


internalField   nonuniform List<scalar> 
2268
(
880.802
882.845
891.029
899.468
903.176
901.557
897.183
893.154
891.259
892.164
896.103
903.265
913.95
928.519
947.125
969.963
996.508
1024.27
1046.78
1058.37
1040.64
1027.19
1069.35
820.91
822.607
830.868
839.217
842.92
841.324
837.053
833.171
831.415
832.42
836.412
843.565
854.056
868.064
885.837
907.67
933.361
961.432
986.437
1000.79
988.071
957.061
1002.9
759.907
761.246
769.417
777.61
781.29
779.746
775.682
772.091
770.604
771.803
775.895
783.054
793.477
807.439
824.894
845.931
869.854
895.185
918.745
934.072
927.993
900.453
945.222
698.047
698.831
706.773
714.73
718.364
716.909
713.151
709.981
708.881
710.352
714.581
721.755
732.088
745.732
762.962
783.374
806.189
829.557
850.731
865.532
867.229
859.689
900.28
635.649
635.551
643.115
650.755
654.308
652.964
649.583
646.929
646.3
648.093
652.48
659.667
669.899
683.38
700.247
720.132
742.194
764.627
784.795
799.952
809.277
817.171
860.831
573.08
571.559
578.652
585.841
589.271
588.053
585.096
583.021
582.911
585.05
589.595
596.783
606.899
620.183
636.735
656.219
677.769
699.747
719.869
735.866
749.363
764.653
806.829
510.833
507.249
513.115
519.757
523.125
522.146
519.702
518.27
518.71
521.195
525.884
533.055
543.047
556.14
572.414
591.58
612.822
634.638
655.037
671.642
685.829
700.72
731.804
449.416
443.042
446.429
452.373
455.953
455.463
453.658
452.89
453.838
456.596
461.34
468.403
478.196
491.096
507.226
526.218
547.298
569.103
589.82
606.771
619.429
629.233
632.693
297.105
297.09
297.001
296.954
296.939
296.899
296.838
296.762
296.677
296.588
296.499
296.415
296.343
296.289
296.252
296.232
296.224
296.22
296.214
297.033
297.021
296.928
296.889
296.882
296.842
296.78
296.703
296.618
296.528
296.438
296.354
296.281
296.227
296.19
296.17
296.163
296.159
296.153
296.944
296.933
296.842
296.818
296.821
296.782
296.72
296.643
296.557
296.468
296.377
296.29
296.217
296.161
296.125
296.106
296.099
296.097
296.091
296.837
296.814
296.726
296.738
296.758
296.721
296.66
296.583
296.497
296.407
296.314
296.224
296.149
296.092
296.056
296.039
296.034
296.033
296.028
296.709
296.674
296.581
296.657
296.695
296.66
296.6
296.523
296.436
296.346
296.251
296.156
296.077
296.019
295.984
295.969
295.967
295.968
295.963
296.563
296.534
296.435
296.582
296.633
296.597
296.54
296.462
296.374
296.285
296.186
296.084
296.001
295.941
295.907
295.895
295.897
295.901
295.897
296.39
296.33
296.28
296.523
296.575
296.535
296.479
296.399
296.312
296.224
296.12
296.009
295.92
295.859
295.826
295.818
295.825
295.832
295.83
296.119
295.905
296.12
296.483
296.524
296.474
296.418
296.335
296.247
296.163
296.055
295.93
295.835
295.77
295.739
295.738
295.749
295.762
295.762
355.09
344.042
341.776
346.65
350.892
351.032
349.981
350.088
351.684
354.729
359.428
366.173
375.442
387.738
403.423
422.395
443.837
466.423
488.16
505.596
513.743
505.122
428.27
235.269
218.763
203.022
201.027
204.526
204.174
203.138
204.253
206.912
210.619
215.631
222.529
231.86
243.962
258.977
277.092
298.098
322.081
346.713
366.802
376.406
371.632
347.945
130.786
105.241
72.6855
63.0366
65.6239
65.141
63.6906
64.4294
66.3199
68.6317
71.4404
75.4688
81.8314
92.0472
106.874
125.313
149.193
180.121
213.459
239.324
256.633
268.26
277.439
54.0026
22.8203
6.01308
5.4701
6.5422
6.03953
5.37374
5.41458
5.75809
6.21592
6.76501
7.55367
8.82964
10.8901
13.8776
18.0982
26.6617
46.5492
80.1594
113.182
143.221
168.756
186.777
1.7539
0.614613
0.618954
0.732028
0.703508
0.721204
0.727572
0.725463
0.723738
0.725736
0.73419
0.750976
0.779239
0.823018
0.908632
1.03475
1.11442
2.08376
7.17775
17.5446
36.6683
64.803
91.5159
0.559979
0.480483
0.51505
0.557615
0.563214
0.570632
0.576767
0.579525
0.582367
0.588027
0.599
0.616832
0.643566
0.680901
0.741449
0.83451
0.894184
0.884228
0.907016
0.9673
1.39708
7.26277
22.9487
0.407126
0.399957
0.398025
0.407171
0.412984
0.418221
0.423747
0.428309
0.433274
0.440514
0.451744
0.467829
0.48948
0.515275
0.551513
0.604898
0.632605
0.611836
0.601859
0.549019
0.37426
0.173635
0.350674
0.246393
0.241476
0.246702
0.254458
0.260413
0.265758
0.271214
0.276634
0.28262
0.290319
0.300754
0.314199
0.329788
0.344025
0.35588
0.362067
0.365186
0.328037
0.259424
0.164136
0.0465987
-0.0328568
0.00153892
0.0923753
0.0941463
0.0990344
0.103153
0.108086
0.113254
0.118794
0.124648
0.131054
0.138593
0.147804
0.15866
0.169597
0.177271
0.175536
0.162374
0.142974
0.0952283
0.0197386
-0.129764
-0.282812
-0.317561
-0.221945
-0.0602673
-0.0573494
-0.0532439
-0.0494
-0.0449305
-0.0398616
-0.0342241
-0.0281004
-0.0214726
-0.0141447
-0.00591658
0.00303042
0.0112927
0.0163532
0.0134792
0.00455718
-0.0189663
-0.058297
-0.120797
-0.25
-0.402425
-0.445152
-0.327114
-0.213311
-0.210603
-0.206878
-0.203183
-0.198809
-0.1937
-0.187901
-0.181497
-0.174551
-0.167082
-0.159126
-0.151026
-0.143756
-0.139034
-0.139323
-0.144592
-0.159995
-0.187438
-0.232129
-0.302071
-0.371515
-0.372109
-0.311159
-0.367133
-0.364831
-0.361585
-0.357971
-0.353568
-0.348335
-0.34231
-0.335566
-0.328191
-0.320288
-0.311997
-0.303688
-0.295973
-0.289943
-0.286924
-0.287832
-0.294851
-0.311913
-0.345985
-0.384667
-0.403745
-0.372697
-0.293822
-0.522212
-0.520307
-0.517374
-0.513767
-0.50926
-0.503825
-0.497503
-0.49035
-0.482454
-0.473923
-0.464918
-0.455727
-0.446734
-0.438666
-0.432214
-0.428014
-0.426718
-0.430547
-0.443844
-0.461197
-0.46421
-0.440364
-0.389345
-0.67866
-0.677016
-0.674254
-0.670602
-0.665935
-0.660236
-0.653548
-0.645915
-0.637406
-0.62811
-0.618154
-0.607727
-0.597102
-0.586663
-0.576807
-0.567893
-0.560268
-0.554593
-0.550285
-0.542715
-0.525409
-0.494005
-0.446532
-0.836512
-0.835009
-0.832303
-0.828547
-0.823672
-0.817661
-0.810551
-0.802374
-0.793174
-0.78301
-0.771958
-0.760129
-0.74767
-0.734751
-0.721519
-0.70808
-0.694429
-0.68049
-0.665233
-0.645966
-0.618816
-0.580151
-0.528174
-0.995777
-0.994323
-0.991592
-0.987688
-0.982567
-0.976211
-0.968641
-0.959875
-0.949934
-0.93884
-0.926619
-0.913315
-0.898971
-0.883616
-0.867238
-0.849749
-0.830918
-0.810254
-0.786604
-0.758197
-0.723012
-0.67925
-0.626031
-1.15647
-1.15499
-1.15219
-1.14811
-1.14272
-1.136
-1.12795
-1.11858
-1.10788
-1.09584
-1.08244
-1.06767
-1.0515
-1.03386
-1.01465
-0.99363
-0.970491
-0.944681
-0.915304
-0.881198
-0.841066
-0.793685
-0.738409
-1.31862
-1.31705
-1.31415
-1.30989
-1.30422
-1.29714
-1.28862
-1.27866
-1.26721
-1.25424
-1.23972
-1.22356
-1.20569
-1.18599
-1.16427
-1.14026
-1.1136
-1.08378
-1.05008
-1.01168
-0.967733
-0.917454
-0.860409
-1.48226
-1.48052
-1.47754
-1.47309
-1.46717
-1.45974
-1.45077
-1.44024
-1.42809
-1.41427
-1.3987
-1.38128
-1.36189
-1.34037
-1.31651
-1.29001
-1.26052
-1.22757
-1.19062
-1.14904
-1.10224
-1.04965
-0.990959
-1.64727
-1.64558
-1.64244
-1.63782
-1.63164
-1.62389
-1.61452
-1.60348
-1.5907
-1.57611
-1.55961
-1.54108
-1.52037
-1.49731
-1.47167
-1.44314
-1.4114
-1.37603
-1.3366
-1.2926
-1.24357
-1.1891
-1.12889
-1.81384
-1.81216
-1.80889
-1.80411
-1.79772
-1.78969
-1.77996
-1.76848
-1.75516
-1.73991
-1.72262
-1.70316
-1.68137
-1.65705
-1.62996
-1.59982
-1.56632
-1.5291
-1.48778
-1.44193
-1.39117
-1.33516
-1.27361
-1.982
-1.98031
-1.97693
-1.97203
-1.96547
-1.95721
-1.94719
-1.93534
-1.92158
-1.90581
-1.88789
-1.86769
-1.84504
-1.81973
-1.79152
-1.76014
-1.72531
-1.68672
-1.64402
-1.59679
-1.5447
-1.48745
-1.42474
-2.1518
-2.1501
-2.1466
-2.14164
-2.13494
-2.12652
-2.11628
-2.10416
-2.09006
-2.07389
-2.05552
-2.0348
-2.01151
-1.98547
-1.95645
-1.92418
-1.8884
-1.84882
-1.80526
-1.75703
-1.70396
-1.6458
-1.58212
-2.32324
-2.32153
-2.31796
-2.31298
-2.30621
-2.29766
-2.28728
-2.27497
-2.26066
-2.24423
-2.22557
-2.20455
-2.18085
-2.15434
-2.1248
-2.09198
-2.05558
-2.01524
-1.97157
-1.92259
-1.86887
-1.81007
-1.74576
-2.49636
-2.49462
-2.49103
-2.48613
-2.47928
-2.47069
-2.46024
-2.44785
-2.43343
-2.41685
-2.39805
-2.37707
-2.35314
-2.3264
-2.29664
-2.26359
-2.227
-2.1866
-2.14223
-2.09321
-2.03935
-1.98035
-1.91576
-2.67117
-2.66945
-2.66591
-2.66096
-2.65416
-2.6456
-2.63518
-2.62284
-2.60846
-2.59195
-2.5732
-2.55206
-2.52823
-2.50158
-2.47189
-2.43894
-2.40247
-2.36221
-2.31789
-2.26908
-2.21545
-2.15665
-2.09223
-2.84767
-2.84597
-2.84249
-2.83757
-2.83086
-2.8224
-2.8121
-2.7999
-2.78569
-2.76936
-2.7508
-2.72983
-2.70626
-2.67991
-2.65056
-2.61799
-2.58195
-2.54218
-2.49835
-2.45013
-2.39714
-2.339
-2.27523
-3.02583
-3.02417
-3.02077
-3.01593
-3.00936
-3.00107
-2.99098
-2.97901
-2.96508
-2.94908
-2.93087
-2.91029
-2.88719
-2.86136
-2.8326
-2.8007
-2.76541
-2.72646
-2.68353
-2.6363
-2.58439
-2.52739
-2.46482
-3.2056
-3.20399
-3.2007
-3.19599
-3.18961
-3.18156
-3.17176
-3.16014
-3.14661
-3.13106
-3.11337
-3.09338
-3.07094
-3.04586
-3.01795
-2.987
-2.95276
-2.91497
-2.87333
-2.8275
-2.77712
-2.72178
-2.66099
-3.38693
-3.3854
-3.38223
-3.37771
-3.37157
-3.36383
-3.3544
-3.34322
-3.33021
-3.31525
-3.29823
-3.279
-3.25742
-3.23332
-3.2065
-3.17676
-3.14388
-3.10759
-3.0676
-3.02359
-2.9752
-2.92205
-2.86366
-3.56975
-3.56831
-3.56529
-3.56101
-3.55515
-3.54779
-3.53881
-3.52818
-3.51579
-3.50156
-3.48536
-3.46707
-3.44654
-3.42361
-3.39811
-3.36985
-3.33861
-3.30414
-3.26616
-3.22437
-3.17843
-3.128
-3.07261
-3.75399
-3.75267
-3.74982
-3.74581
-3.74029
-3.73337
-3.72493
-3.71493
-3.70329
-3.6899
-3.67466
-3.65745
-3.63815
-3.61661
-3.59266
-3.56612
-3.53679
-3.50444
-3.46882
-3.42963
-3.38658
-3.33935
-3.28755
-3.93958
-3.93841
-3.93574
-3.93207
-3.92693
-3.92051
-3.91269
-3.9034
-3.89259
-3.88016
-3.86602
-3.85005
-3.83215
-3.81217
-3.78997
-3.76538
-3.73823
-3.70829
-3.67533
-3.63911
-3.59935
-3.5558
-3.50811
-4.12639
-4.1254
-4.12292
-4.11964
-4.11492
-4.10907
-4.10192
-4.09344
-4.08355
-4.07219
-4.05926
-4.04467
-4.02831
-4.01007
-3.98981
-3.96739
-3.94264
-3.91537
-3.88538
-3.85245
-3.81636
-3.7769
-3.73381
-4.31427
-4.31346
-4.31116
-4.30835
-4.30407
-4.29883
-4.29242
-4.2848
-4.27593
-4.26572
-4.25411
-4.24102
-4.22635
-4.20999
-4.19185
-4.17178
-4.14964
-4.12527
-4.09851
-4.06917
-4.03707
-4.00208
-3.96403
-4.50315
-4.50256
-4.50043
-4.49813
-4.49432
-4.48974
-4.48411
-4.47743
-4.46963
-4.46067
-4.45048
-4.43899
-4.42613
-4.4118
-4.39591
-4.37836
-4.35903
-4.33777
-4.31447
-4.28897
-4.26116
-4.23096
-4.1983
-4.69321
-4.69291
-4.69094
-4.68919
-4.68585
-4.68197
-4.67718
-4.67148
-4.66484
-4.6572
-4.64852
-4.63874
-4.62779
-4.61562
-4.60213
-4.58725
-4.57089
-4.55293
-4.5333
-4.51189
-4.48863
-4.46351
-4.43653
-4.88433
-4.88436
-4.88255
-4.88134
-4.87851
-4.87536
-4.87144
-4.86678
-4.86134
-4.85509
-4.84799
-4.84
-4.83107
-4.82114
-4.81017
-4.79809
-4.78483
-4.77034
-4.75455
-4.73741
-4.71891
-4.69911
-4.67808
-5.0756
-5.07591
-5.07431
-5.07356
-5.0713
-5.06888
-5.06585
-5.06225
-5.05804
-5.05322
-5.04774
-5.04157
-5.03469
-5.02707
-5.01866
-5.00944
-4.99935
-4.98838
-4.9765
-4.96371
-4.95004
-4.93561
-4.92061
-5.26627
-5.26672
-5.26545
-5.26505
-5.26343
-5.26173
-5.2596
-5.25705
-5.25409
-5.25068
-5.24682
-5.24248
-5.23766
-5.23233
-5.22648
-5.2201
-5.21316
-5.20568
-5.19766
-5.18914
-5.1802
-5.171
-5.16179
-5.45718
-5.45774
-5.45692
-5.45678
-5.45587
-5.45489
-5.45366
-5.45219
-5.45048
-5.44851
-5.44629
-5.4438
-5.44106
-5.43805
-5.43479
-5.43128
-5.42753
-5.42358
-5.41945
-5.41524
-5.41106
-5.40708
-5.40359
-5.65149
-5.65245
-5.65211
-5.65224
-5.65207
-5.65187
-5.65161
-5.65129
-5.65092
-5.65051
-5.65005
-5.64957
-5.64908
-5.64861
-5.64816
-5.64779
-5.64753
-5.64746
-5.64765
-5.64822
-5.64933
-5.65121
-5.65416
282.048
295.915
301.595
296.853
316.113
307.446
300.497
300.293
277.483
276.461
281.899
296.763
195.448
202.532
214.259
233.31
110.424
123.304
137.002
152.171
36.5167
45.9772
57.2756
69.588
1.06185
3.02315
7.47717
14.4612
0.0446039
0.083764
0.156652
0.272455
-0.107149
-0.0329471
0.0330158
0.0948292
-0.203919
-0.120547
-0.0429687
0.0266952
-0.218552
-0.152201
-0.0882197
-0.0312622
-0.230677
-0.18793
-0.144238
-0.0996411
-0.330823
-0.288925
-0.246166
-0.201712
-0.400578
-0.369957
-0.335428
-0.296416
-0.481758
-0.450136
-0.416579
-0.38151
-0.58069
-0.549865
-0.51723
-0.482886
-0.692585
-0.661706
-0.629297
-0.595439
-0.813886
-0.782684
-0.750073
-0.716106
-0.94355
-0.911847
-0.878801
-0.844441
-1.08052
-1.04823
-1.01463
-0.979738
-1.22428
-1.19137
-1.15717
-1.12166
-1.37452
-1.34102
-1.30621
-1.27008
-1.53113
-1.49714
-1.46182
-1.42514
-1.69424
-1.65989
-1.62416
-1.58702
-1.86398
-1.82942
-1.79345
-1.75598
-2.04051
-2.00596
-1.96994
-1.93236
-2.22397
-2.18969
-2.15391
-2.11652
-2.41447
-2.38077
-2.34556
-2.30872
-2.61204
-2.57927
-2.54502
-2.50916
-2.81665
-2.78518
-2.75229
-2.71788
-3.02807
-2.9983
-2.96721
-2.93471
-3.24599
-3.21826
-3.18935
-3.15921
-3.46998
-3.4446
-3.41821
-3.39078
-3.69952
-3.67675
-3.65315
-3.62873
-3.93392
-3.91401
-3.89346
-3.87228
-4.17265
-4.1558
-4.13849
-4.12077
-4.41556
-4.4019
-4.388
-4.37392
-4.662
-4.65164
-4.64125
-4.63091
-4.90952
-4.90249
-4.8956
-4.88893
-5.15539
-5.15151
-5.1479
-5.14466
-5.4017
-5.40083
-5.40038
-5.40043
-5.65743
-5.66001
-5.66313
-5.6669
295.98
295.155
295.932
296.459
296.46
296.37
296.32
296.233
296.148
296.077
295.956
295.798
295.691
295.622
295.594
295.604
295.626
295.649
295.655
285.019
295.855
296.779
296.723
296.481
296.186
296.157
296.063
295.99
295.957
295.821
295.59
295.464
295.388
295.36
295.411
295.447
295.49
295.511
297.371
298.992
297.627
295.904
296.369
296.002
296.001
295.883
295.846
295.927
295.748
295.295
295.139
295.071
295.055
295.195
295.227
295.3
295.367
255.72
285.265
285.332
285.701
292.691
295.568
295.844
295.605
295.427
295.548
295.553
294.961
294.692
294.654
294.583
294.843
294.905
295.048
295.279
177.852
209.084
223.871
208.038
188.924
252.138
279.593
278.023
268.144
276.901
292.538
293.918
293.444
293.637
293.858
294.378
294.463
294.746
295.274
93.0745
120.343
139.719
149.408
141.283
190.013
226.704
195.815
174.151
197.553
212.474
245.274
252.072
259.285
280.575
292.109
293.693
293.575
294.836
29.6423
47.0478
63.4202
80.0876
89.4994
104.833
120.507
116.526
112.403
124.555
135.525
162.885
185.11
171.711
199.182
257.244
289.656
286.385
293.89
0.55866
3.90042
11.4641
20.2979
28.9038
35.306
40.4747
44.021
45.996
49.8962
59.2388
77.5939
98.9199
122.941
172.52
231.983
258.099
265.244
300.879
0.183165
0.242128
0.45854
0.600663
0.726752
1.46131
2.50181
3.42347
4.28278
5.70538
8.72892
15.2005
28.0145
61.0549
115.573
195.869
273.787
308.034
378.885
0.132829
0.246846
0.358148
0.498576
0.664288
0.817768
0.980884
1.13225
1.2139
1.23268
1.24994
1.29926
1.6572
5.81741
40.5754
141.75
336.37
546.557
708.25
0.0551579
0.150715
0.256744
0.396697
0.554718
0.697285
0.837787
0.967261
1.05526
1.09453
1.11259
1.14227
1.23434
1.68057
5.43542
48.1717
308.14
623.723
874.458
-0.0254057
0.0743992
0.179776
0.288114
0.417906
0.562225
0.702198
0.823606
0.913341
0.970057
1.01491
1.07275
1.16828
1.33428
2.25918
11.2451
196.394
522.539
744.463
-0.125023
-0.0274964
0.0692758
0.179568
0.306987
0.442304
0.568847
0.682809
0.77865
0.854992
0.924917
1.00638
1.11528
1.26072
1.47567
3.34768
76.5725
353.128
512.192
-0.2269
-0.128598
-0.0271335
0.0832917
0.202761
0.324652
0.439908
0.551026
0.653168
0.745922
0.835739
0.934488
1.04569
1.17058
1.28642
1.47242
20.5844
201.446
281.49
-0.319954
-0.226132
-0.125857
-0.0191315
0.0926521
0.20663
0.318806
0.428791
0.535151
0.638951
0.743748
0.856705
0.972792
1.06631
1.23743
0.893579
1.03797
93.7549
117.89
-0.422995
-0.331511
-0.233699
-0.130355
-0.0225635
0.0880045
0.199024
0.309558
0.419345
0.529315
0.641564
0.758309
0.893873
0.905755
1.13559
1.17263
2.40412
35.9044
46.0439
-0.536098
-0.445483
-0.348898
-0.247141
-0.141106
-0.0320028
0.0789744
0.190782
0.30291
0.415226
0.528049
0.642269
0.757659
0.807812
0.93948
0.946764
3.57908
16.2291
28.7907
-0.656767
-0.566276
-0.469918
-0.36855
-0.262976
-0.153881
-0.0421475
0.0710141
0.184327
0.297119
0.407739
0.516365
0.618112
0.686326
0.768417
0.493578
13.9502
16.6767
26.8458
-0.784558
-0.69351
-0.596576
-0.494624
-0.388349
-0.278185
-0.165001
-0.0504322
0.0635159
0.176173
0.285281
0.391012
0.486145
0.564907
0.616363
0.490567
22.8539
23.511
26.6549
-0.919031
-0.826913
-0.728787
-0.625386
-0.517395
-0.405104
-0.289658
-0.173204
-0.0584594
0.0532416
0.162929
0.269002
0.366825
0.459557
0.49273
0.522394
29.4038
29.2077
25.9258
-1.05995
-0.966389
-0.866582
-0.760918
-0.650342
-0.534646
-0.415716
-0.296057
-0.178894
-0.0658018
0.0438419
0.149122
0.254849
0.359312
0.44064
0.375454
18.8712
24.139
24.1762
-1.20731
-1.11198
-1.00974
-0.901254
-0.786408
-0.666556
-0.542473
-0.417465
-0.295398
-0.17881
-0.0683914
0.032437
0.1451
0.238031
0.393326
0.491334
4.41117
12.7469
18.0359
-1.36135
-1.2641
-1.15926
-1.04701
-0.92754
-0.801323
-0.669636
-0.535886
-0.404908
-0.281149
-0.167036
-0.0738181
0.0430328
0.131953
0.347551
0.486619
-0.801256
7.27735
11.6987
-1.5223
-1.42312
-1.3155
-1.19927
-1.07412
-0.939904
-0.797663
-0.650224
-0.50387
-0.366203
-0.241793
-0.151079
-0.0318844
0.097322
0.419333
0.802613
1.12705
6.94991
16.122
-1.69054
-1.58964
-1.47931
-1.35895
-1.22757
-1.08392
-0.928003
-0.761303
-0.591349
-0.422856
-0.283306
-0.17574
-0.0380435
0.168893
0.561889
0.958756
1.38127
2.39704
26.779
-1.86659
-1.76454
-1.65198
-1.52782
-1.39006
-1.236
-1.06427
-0.873758
-0.666699
-0.467117
-0.29676
-0.150427
0.0373614
0.307619
0.62974
0.811053
1.2335
1.84134
32.4014
-2.05096
-1.9487
-1.83505
-1.70845
-1.56553
-1.40196
-1.21563
-1.00352
-0.76862
-0.536032
-0.346852
-0.162897
0.100335
0.431482
0.726275
0.820903
0.933442
1.38618
76.6264
-2.24407
-2.14279
-2.02961
-1.9026
-1.75744
-1.58859
-1.39439
-1.17127
-0.921347
-0.671062
-0.491338
-0.287586
0.0791736
0.515693
0.848483
1.06331
1.10823
2.2745
141.847
-2.44618
-2.34728
-2.23639
-2.11141
-1.96743
-1.7982
-1.60222
-1.38033
-1.12549
-0.872119
-0.701075
-0.472172
0.0200811
0.517467
0.922027
1.36757
2.04237
73.9724
217.899
-2.65744
-2.56247
-2.45585
-2.33581
-2.19631
-2.02886
-1.82756
-1.59539
-1.33026
-1.07527
-0.927764
-0.825589
-0.920845
-2.90569
-5.80214
-9.73488
27.6598
168.426
293.425
-2.87768
-2.78831
-2.68823
-2.57653
-2.446
-2.28482
-2.08104
-1.8303
-1.54394
-1.3141
-1.23376
-1.27021
-5.30998
-9.21413
-6.49497
8.9623
69.5915
179.463
308.587
-3.10639
-3.02417
-2.93298
-2.83309
-2.71777
-2.57571
-2.39423
-2.15079
-1.83646
-1.50994
-1.4722
-1.52411
-0.65143
2.11264
1.71949
-1.82229
22.0933
74.2541
235.029
-3.34284
-3.26893
-3.18819
-3.10219
-3.00717
-2.89801
-2.77102
-2.59059
-2.35286
-2.09322
-2.56864
-4.54578
-5.21063
-5.28543
-5.17943
-4.87874
-2.02516
3.68381
126.336
-3.58618
-3.52132
-3.45175
-3.37972
-3.30524
-3.22947
-3.15581
-3.07285
-3.02543
-3.37065
-5.81425
-6.11143
-5.95323
-6.12238
-6.70477
-7.1762
-7.47414
20.945
81.361
-3.83553
-3.78018
-3.72204
-3.66317
-3.60735
-3.55701
-3.52047
-3.48778
-3.51277
-3.38669
-5.56832
-6.37826
-6.27636
-6.64741
-7.70551
-9.26768
-13.6523
-36.7589
83.2909
-4.09021
-4.0449
-3.99857
-3.953
-3.91457
-3.88071
-3.86943
-3.85311
-3.94201
-3.85972
-5.26471
-6.20713
-6.33023
-6.85291
-8.35481
-11.0003
-11.5725
-20.5181
34.8698
-4.34989
-4.31515
-4.28114
-4.25025
-4.23113
-4.21809
-4.23668
-4.26781
-4.3752
-4.54949
-6.09336
-6.27887
-6.27705
-6.68138
-8.02114
-10.6506
-10.6764
-0.202885
17.8994
-4.61356
-4.58968
-4.56825
-4.55239
-4.55166
-4.55775
-4.61777
-4.75591
-4.89674
-5.4077
-6.63051
-6.38963
-6.00986
-6.03677
-6.70276
-6.95691
-7.21534
-2.77429
4.17063
-4.8781
-4.86491
-4.85605
-4.855
-4.86975
-4.88388
-4.9666
-5.06706
-5.33609
-6.5943
-8.75388
-6.95138
-5.75585
-5.5262
-5.47192
-4.57786
-4.80188
-4.56856
-2.09594
-5.13991
-5.13665
-5.13969
-5.15329
-5.18467
-5.21816
-5.3304
-5.28657
-5.48581
-4.57801
-7.73407
-8.38813
-5.8052
-5.42177
-4.92056
-3.57481
-4.0797
-6.03484
-5.14114
-5.40157
-5.40757
-5.42132
-5.44798
-5.49627
-5.56767
-5.74735
-5.85507
-6.27861
-5.80797
-4.68856
-18.3448
-1.348
-4.92028
-5.00599
-3.85241
-4.37773
-6.72779
-6.24219
-5.67452
-5.69052
-5.71505
-5.75324
-5.81383
-5.91013
-6.11
-6.32545
-7.21328
-9.31481
-17.0845
-24.9626
-5.5861
-6.05912
-5.78852
-5.39776
-5.45272
-6.12776
-6.40688
)
;

boundaryField
{
    leftWall
    {
        type            calculated;
        value           nonuniform List<scalar> 
50
(
880.802
820.91
759.907
698.047
635.649
573.08
510.833
449.416
355.09
235.269
130.786
54.0026
1.7539
0.559979
0.407126
0.246393
0.0923753
-0.0602673
-0.213311
-0.367133
-0.522212
-0.67866
-0.836512
-0.995777
-1.15647
-1.31862
-1.48226
-1.64727
-1.81384
-1.982
-2.1518
-2.32324
-2.49636
-2.67117
-2.84767
-3.02583
-3.2056
-3.38693
-3.56975
-3.75399
-3.93958
-4.12639
-4.31427
-4.50315
-4.69321
-4.88433
-5.0756
-5.26627
-5.45718
-5.65149
)
;
    }
    rightWall
    {
        type            calculated;
        value           nonuniform List<scalar> 
50
(
296.214
296.153
296.091
296.028
295.963
295.897
295.83
295.762
295.655
295.511
295.367
295.279
295.274
294.836
293.89
300.879
378.885
708.25
874.458
744.463
512.192
281.49
117.89
46.0439
28.7907
26.8458
26.6549
25.9258
24.1762
18.0359
11.6987
16.122
26.779
32.4014
76.6264
141.847
217.899
293.425
308.587
235.029
126.336
81.361
83.2909
34.8698
17.8994
4.17063
-2.09594
-5.14114
-6.24219
-6.40688
)
;
    }
    lowerWall
    {
        type            calculated;
        value           nonuniform List<scalar> 
62
(
910.231
912.274
920.458
928.897
932.605
930.986
926.613
922.583
920.689
921.594
925.532
932.695
943.379
957.948
976.554
999.393
1025.94
1053.7
1076.21
1086.3
1065.18
1052.15
1098.11
1069.35
1002.9
945.222
900.28
860.831
806.829
731.804
632.693
344.615
358.511
349.761
312.058
297.105
297.033
296.944
296.837
296.709
296.563
296.39
296.119
297.134
297.12
297.03
296.983
296.968
296.928
296.867
296.791
296.706
296.618
296.528
296.444
296.373
296.318
296.281
296.261
296.253
296.25
296.243
)
;
    }
    atmosphere
    {
        type            calculated;
        value           nonuniform List<scalar> 
46
(
-5.75187
-5.7536
-5.75336
-5.75368
-5.75389
-5.75414
-5.75443
-5.75476
-5.75516
-5.75563
-5.75619
-5.75686
-5.75767
-5.75865
-5.75985
-5.76131
-5.76311
-5.76533
-5.76809
-5.77154
-5.77586
-5.78132
-5.78824
-5.79472
-5.79947
-5.80484
-5.81096
-5.82269
-5.84484
-5.87568
-5.91955
-5.98302
-6.07787
-6.25179
-6.33179
-7.02477
-9.38605
-28.0816
-147.537
-5.78789
-5.74036
-6.2045
-6.13646
-6.13646
-6.32684
-6.51722
)
;
    }
    defaultFaces
    {
        type            empty;
    }
}


// ************************************************************************* //
