/*--------------------------------*- C++ -*----------------------------------*\
| =========                 |                                                 |
| \\      /  F ield         | OpenFOAM: The Open Source CFD Toolbox           |
|  \\    /   O peration     | Version:  2012                                  |
|   \\  /    A nd           | Website:  www.openfoam.com                      |
|    \\/     M anipulation  |                                                 |
\*---------------------------------------------------------------------------*/
FoamFile
{
    version     2.0;
    format      ascii;
    class       volVectorField;
    location    "0.4";
    object      U;
}
// * * * * * * * * * * * * * * * * * * * * * * * * * * * * * * * * * * * * * //

dimensions      [0 1 -1 0 0 0 0];


internalField   nonuniform List<vector> 
2268
(
(-0.0337394 0.00890777 0)
(-0.0446626 -0.00207208 0)
(-0.00611974 -0.012391 0)
(0.0604234 -0.0172066 0)
(0.134895 -0.0176159 0)
(0.205921 -0.0153683 0)
(0.265632 -0.0122059 0)
(0.311492 -0.00917304 0)
(0.345056 -0.00668138 0)
(0.369262 -0.00477534 0)
(0.386601 -0.0033158 0)
(0.398518 -0.00207084 0)
(0.40528 -0.0007523 0)
(0.406127 0.00165561 0)
(0.39598 0.00571239 0)
(0.369712 0.0122629 0)
(0.319272 0.0221018 0)
(0.234041 0.0335735 0)
(0.106285 0.0377625 0)
(-0.0242302 0.021918 0)
(-0.15827 0.0181516 0)
(-0.238983 0.00984571 0)
(-0.0856423 -0.0610495 0)
(-0.0379943 0.0266193 0)
(-0.0423043 -0.00775846 0)
(-0.00310131 -0.0377216 0)
(0.0642842 -0.0519185 0)
(0.138663 -0.0530045 0)
(0.208898 -0.046254 0)
(0.267624 -0.0368391 0)
(0.312787 -0.0278521 0)
(0.346161 -0.0204989 0)
(0.37067 -0.0148821 0)
(0.388698 -0.0105694 0)
(0.401601 -0.00689673 0)
(0.409923 -0.00309757 0)
(0.413437 0.0019489 0)
(0.414504 0.0095483 0)
(0.413007 0.0212162 0)
(0.406423 0.039404 0)
(0.384249 0.0656005 0)
(0.31602 0.0921488 0)
(0.177979 0.0989959 0)
(-0.0335981 0.0756115 0)
(-0.166203 -0.00928189 0)
(0.00464403 -0.137007 0)
(-0.0350457 0.0438219 0)
(-0.0381859 -0.0144158 0)
(0.00250122 -0.0633033 0)
(0.0702191 -0.0863538 0)
(0.14344 -0.0876632 0)
(0.211472 -0.0762131 0)
(0.267769 -0.0605867 0)
(0.311056 -0.0458619 0)
(0.343466 -0.0339534 0)
(0.36791 -0.0249266 0)
(0.386581 -0.0179939 0)
(0.400612 -0.0120724 0)
(0.410206 -0.00604814 0)
(0.414951 0.000831441 0)
(0.414004 0.0097996 0)
(0.406944 0.0226418 0)
(0.395821 0.0425922 0)
(0.386523 0.075123 0)
(0.378953 0.120589 0)
(0.331329 0.160301 0)
(0.203261 0.155312 0)
(0.0405887 0.037357 0)
(0.0724425 -0.142601 0)
(-0.0322726 0.0590993 0)
(-0.0316774 -0.0220193 0)
(0.0105617 -0.0892546 0)
(0.0781129 -0.120413 0)
(0.14934 -0.121305 0)
(0.214201 -0.104917 0)
(0.267237 -0.0832422 0)
(0.308175 -0.0631957 0)
(0.33957 -0.047227 0)
(0.364241 -0.0352308 0)
(0.384054 -0.0260017 0)
(0.399787 -0.0180298 0)
(0.411391 -0.00988561 0)
(0.418275 -0.000265661 0)
(0.419585 0.0118648 0)
(0.414359 0.0279329 0)
(0.402497 0.0496315 0)
(0.38628 0.0802252 0)
(0.380636 0.125919 0)
(0.3852 0.182375 0)
(0.352437 0.205027 0)
(0.229159 0.0988714 0)
(0.146295 -0.0780095 0)
(-0.029161 0.071806 0)
(-0.0226785 -0.0314038 0)
(0.0206542 -0.115086 0)
(0.0872119 -0.15346 0)
(0.155744 -0.153241 0)
(0.216774 -0.131747 0)
(0.266026 -0.104388 0)
(0.304385 -0.079689 0)
(0.334867 -0.0603624 0)
(0.360108 -0.0459597 0)
(0.381519 -0.0348042 0)
(0.399414 -0.0249786 0)
(0.413406 -0.0147564 0)
(0.422752 -0.00272123 0)
(0.426648 0.012338 0)
(0.424405 0.0315468 0)
(0.415953 0.0561497 0)
(0.401308 0.0869746 0)
(0.386049 0.126255 0)
(0.387605 0.178843 0)
(0.400427 0.22042 0)
(0.322553 0.161304 0)
(0.191716 0.0169266 0)
(-0.0250851 0.0813105 0)
(-0.0111046 -0.0425816 0)
(0.0321256 -0.140469 0)
(0.096255 -0.185024 0)
(0.161602 -0.183192 0)
(0.218681 -0.156502 0)
(0.264234 -0.123889 0)
(0.300295 -0.0953189 0)
(0.330302 -0.0734493 0)
(0.356612 -0.0572696 0)
(0.380079 -0.0445684 0)
(0.400495 -0.0330638 0)
(0.417107 -0.0208355 0)
(0.428991 -0.00641758 0)
(0.435343 0.0114023 0)
(0.435677 0.0335624 0)
(0.430128 0.0608901 0)
(0.419183 0.0937509 0)
(0.403649 0.13091 0)
(0.388442 0.174485 0)
(0.398928 0.223311 0)
(0.351263 0.216395 0)
(0.215262 0.140009 0)
(-0.0195154 0.0868464 0)
(0.00266649 -0.0551458 0)
(0.0445895 -0.165667 0)
(0.104707 -0.215779 0)
(0.165938 -0.212111 0)
(0.219005 -0.180091 0)
(0.261331 -0.142523 0)
(0.295821 -0.110729 0)
(0.326137 -0.0869928 0)
(0.354214 -0.0695264 0)
(0.380277 -0.0555172 0)
(0.403603 -0.0423384 0)
(0.423113 -0.0279467 0)
(0.437735 -0.0109511 0)
(0.446567 0.00943507 0)
(0.449144 0.0342053 0)
(0.445707 0.0641168 0)
(0.436796 0.0993464 0)
(0.424468 0.138588 0)
(0.402997 0.179314 0)
(0.394777 0.230233 0)
(0.358146 0.264662 0)
(0.239945 0.264139 0)
(-0.0122157 0.0885108 0)
(0.0185588 -0.0692254 0)
(0.0610496 -0.191175 0)
(0.115943 -0.245435 0)
(0.170779 -0.239528 0)
(0.218708 -0.202188 0)
(0.257805 -0.160156 0)
(0.291198 -0.126 0)
(0.322313 -0.101241 0)
(0.352461 -0.0831119 0)
(0.381222 -0.0682068 0)
(0.407455 -0.0536158 0)
(0.429903 -0.0371458 0)
(0.447438 -0.0172756 0)
(0.459291 0.00675775 0)
(0.464784 0.0346627 0)
(0.463832 0.0666971 0)
(0.456465 0.103073 0)
(0.445681 0.144048 0)
(0.426617 0.18661 0)
(0.405492 0.240299 0)
(0.371529 0.308613 0)
(0.236248 0.414326 0)
(0.120277 -0.0476666 0)
(0.377675 -0.0336216 0)
(0.452001 0.0127919 0)
(0.344965 0.0209282 0)
(0.245181 0.0179004 0)
(0.145591 0.0185209 0)
(0.0585785 0.0193945 0)
(-0.0288634 0.0175638 0)
(-0.101936 0.0154008 0)
(-0.162306 0.0125015 0)
(-0.207546 0.00913192 0)
(-0.237349 0.00593965 0)
(-0.25214 0.00233145 0)
(-0.250365 -0.00163126 0)
(-0.232956 -0.00551529 0)
(-0.199976 -0.00946774 0)
(-0.150065 -0.0136445 0)
(-0.0858084 -0.0169788 0)
(-0.0249255 -0.0126843 0)
(0.0996766 -0.16048 0)
(0.407458 -0.126766 0)
(0.531417 0.0304115 0)
(0.400586 0.0756197 0)
(0.243889 0.0683459 0)
(0.10526 0.0625856 0)
(0.0061462 0.0581276 0)
(-0.076905 0.0486027 0)
(-0.135192 0.0404417 0)
(-0.17997 0.0313877 0)
(-0.209588 0.0213589 0)
(-0.226641 0.0128135 0)
(-0.233153 0.00397248 0)
(-0.228611 -0.0056972 0)
(-0.211315 -0.0153701 0)
(-0.180875 -0.0252084 0)
(-0.135312 -0.0355315 0)
(-0.0760812 -0.0437281 0)
(-0.0211225 -0.0325384 0)
(0.0641928 -0.269788 0)
(0.398874 -0.245651 0)
(0.55543 0.0516293 0)
(0.405932 0.142613 0)
(0.236303 0.129142 0)
(0.101364 0.111212 0)
(0.00865204 0.0964406 0)
(-0.0697263 0.0768905 0)
(-0.127816 0.0624536 0)
(-0.17684 0.0479994 0)
(-0.211665 0.0315782 0)
(-0.23317 0.0183464 0)
(-0.243195 0.0049001 0)
(-0.239712 -0.0103022 0)
(-0.222169 -0.025436 0)
(-0.190522 -0.0410664 0)
(-0.142711 -0.057739 0)
(-0.080321 -0.0704993 0)
(-0.0221711 -0.0512045 0)
(0.0286985 -0.360774 0)
(0.341316 -0.381047 0)
(0.549513 0.0512326 0)
(0.397211 0.208158 0)
(0.234576 0.189054 0)
(0.105873 0.159363 0)
(0.0118852 0.134442 0)
(-0.0706974 0.105715 0)
(-0.131514 0.0862291 0)
(-0.183798 0.0672685 0)
(-0.219993 0.0438691 0)
(-0.241558 0.025998 0)
(-0.252906 0.00752059 0)
(-0.250613 -0.014368 0)
(-0.233293 -0.0358026 0)
(-0.20102 -0.0581082 0)
(-0.151085 -0.0820414 0)
(-0.0850603 -0.100076 0)
(-0.023349 -0.0724595 0)
(-0.0296298 -0.428387 0)
(0.284862 -0.481211 0)
(0.505066 0.048763 0)
(0.352152 0.270149 0)
(0.223182 0.245617 0)
(0.10046 0.207047 0)
(0.00240902 0.173454 0)
(-0.0820936 0.135536 0)
(-0.14127 0.11068 0)
(-0.194685 0.0874033 0)
(-0.230728 0.0553396 0)
(-0.250874 0.0333622 0)
(-0.26337 0.0106504 0)
(-0.262172 -0.0182112 0)
(-0.244758 -0.046131 0)
(-0.211739 -0.0755616 0)
(-0.159554 -0.107318 0)
(-0.0896747 -0.130847 0)
(-0.0243746 -0.0947476 0)
(-0.012337 -0.476297 0)
(0.299067 -0.583166 0)
(0.467715 0.0836838 0)
(0.268719 0.29967 0)
(0.197235 0.285737 0)
(0.0869702 0.255026 0)
(-0.0150816 0.214484 0)
(-0.098592 0.164429 0)
(-0.153645 0.133442 0)
(-0.208551 0.107404 0)
(-0.244509 0.0654692 0)
(-0.261959 0.0407796 0)
(-0.276214 0.0146042 0)
(-0.276616 -0.0221996 0)
(-0.258905 -0.0566496 0)
(-0.224832 -0.0936329 0)
(-0.169653 -0.133921 0)
(-0.0951363 -0.163281 0)
(-0.0255973 -0.118242 0)
(0.224161 -0.553549 0)
(0.351866 -0.699346 0)
(0.462922 0.15097 0)
(0.161245 0.372159 0)
(0.175159 0.326939 0)
(0.0728368 0.298932 0)
(-0.0386272 0.250717 0)
(-0.119361 0.194042 0)
(-0.167171 0.16095 0)
(-0.224137 0.133129 0)
(-0.259706 0.0759128 0)
(-0.272667 0.0467842 0)
(-0.290009 0.0197653 0)
(-0.292702 -0.0260233 0)
(-0.275083 -0.0669543 0)
(-0.240983 -0.112421 0)
(-0.182002 -0.162116 0)
(-0.101857 -0.197515 0)
(-0.0272095 -0.143191 0)
(0.509384 -0.805337 0)
(0.340403 -0.809193 0)
(0.38047 0.215284 0)
(0.00678802 0.345663 0)
(0.17538 0.313668 0)
(0.0694916 0.35931 0)
(-0.0571631 0.305579 0)
(-0.13339 0.219998 0)
(-0.175494 0.164884 0)
(-0.238429 0.141332 0)
(-0.275415 0.0723099 0)
(-0.280189 0.0527056 0)
(-0.301214 0.0291243 0)
(-0.307791 -0.029004 0)
(-0.289887 -0.0768817 0)
(-0.259317 -0.133007 0)
(-0.197184 -0.193555 0)
(-0.110128 -0.235108 0)
(-0.0293894 -0.170611 0)
(0.00115369 0.0747745 0)
(0.0521694 -0.0977229 0)
(0.10874 -0.228054 0)
(0.153546 -0.281308 0)
(0.189512 -0.271347 0)
(0.224267 -0.22871 0)
(0.257673 -0.182918 0)
(0.290206 -0.147476 0)
(0.323209 -0.122633 0)
(0.356411 -0.104238 0)
(0.388356 -0.0882623 0)
(0.417402 -0.0718316 0)
(0.442264 -0.0530757 0)
(0.462225 -0.0307211 0)
(0.476934 -0.00319693 0)
(0.486149 0.0313459 0)
(0.489692 0.0719393 0)
(0.487316 0.115469 0)
(0.479959 0.161019 0)
(0.469669 0.207752 0)
(0.455003 0.263529 0)
(0.464366 0.333324 0)
(0.463507 0.506064 0)
(0.0202003 0.0287181 0)
(0.121594 -0.154718 0)
(0.21221 -0.272883 0)
(0.237787 -0.313102 0)
(0.232466 -0.298604 0)
(0.241325 -0.257681 0)
(0.267459 -0.215012 0)
(0.301817 -0.18183 0)
(0.340202 -0.157632 0)
(0.37934 -0.137799 0)
(0.416237 -0.11809 0)
(0.448494 -0.0959033 0)
(0.474594 -0.0702521 0)
(0.4943 -0.0415222 0)
(0.508325 -0.0107279 0)
(0.518425 0.0213201 0)
(0.523604 0.0586235 0)
(0.523911 0.100964 0)
(0.521519 0.146722 0)
(0.52151 0.196615 0)
(0.520878 0.254273 0)
(0.535471 0.309776 0)
(0.560862 0.403245 0)
(0.0437051 -0.0747754 0)
(0.217858 -0.271015 0)
(0.336216 -0.335452 0)
(0.322068 -0.32159 0)
(0.258499 -0.299432 0)
(0.238762 -0.281193 0)
(0.259191 -0.260971 0)
(0.296305 -0.239938 0)
(0.340451 -0.220059 0)
(0.386979 -0.200139 0)
(0.432806 -0.177634 0)
(0.475648 -0.150516 0)
(0.513213 -0.117789 0)
(0.54336 -0.0788999 0)
(0.562501 -0.0333326 0)
(0.567713 0.0196763 0)
(0.562754 0.0786704 0)
(0.55119 0.135899 0)
(0.542894 0.181787 0)
(0.545274 0.222896 0)
(0.553401 0.264241 0)
(0.56538 0.29965 0)
(0.580732 0.33529 0)
(0.0844069 -0.22018 0)
(0.269551 -0.457148 0)
(0.372053 -0.394434 0)
(0.263165 -0.244547 0)
(0.16191 -0.224683 0)
(0.134777 -0.258544 0)
(0.132831 -0.271906 0)
(0.145817 -0.26644 0)
(0.169905 -0.252873 0)
(0.2046 -0.235363 0)
(0.249014 -0.212784 0)
(0.304511 -0.18383 0)
(0.370466 -0.147231 0)
(0.442062 -0.10296 0)
(0.521183 -0.0515509 0)
(0.593591 0.00153983 0)
(0.631719 0.0491425 0)
(0.641708 0.0901109 0)
(0.639287 0.130211 0)
(0.627486 0.182763 0)
(0.61293 0.238784 0)
(0.604839 0.282752 0)
(0.607972 0.316397 0)
(0.0407642 -0.493487 0)
(0.11707 -0.620938 0)
(0.0899501 -0.279988 0)
(-0.00611935 -0.101395 0)
(-0.00913151 -0.150763 0)
(-0.016761 -0.218892 0)
(-0.046395 -0.233249 0)
(-0.0699315 -0.237236 0)
(-0.0950729 -0.235723 0)
(-0.109368 -0.232798 0)
(-0.109862 -0.226685 0)
(-0.0949632 -0.214854 0)
(-0.0743707 -0.190402 0)
(-0.0915398 -0.159697 0)
(-0.0538798 -0.11692 0)
(-0.107508 -0.0477686 0)
(0.109355 0.048326 0)
(0.454138 0.124542 0)
(0.590629 0.165443 0)
(0.633014 0.210755 0)
(0.646583 0.253692 0)
(0.657917 0.290951 0)
(0.663609 0.323166 0)
(-0.0715911 -0.465582 0)
(-0.176969 -0.265985 0)
(-0.182602 -0.167518 0)
(-0.122597 -0.188256 0)
(-0.061898 -0.203954 0)
(-0.0525075 -0.221583 0)
(-0.0666382 -0.220323 0)
(-0.0828372 -0.21899 0)
(-0.101442 -0.220501 0)
(-0.114857 -0.229872 0)
(-0.115142 -0.241188 0)
(-0.108193 -0.236831 0)
(-0.104035 -0.194931 0)
(-0.137809 -0.139426 0)
(-0.151907 -0.128289 0)
(-0.0401422 -0.235907 0)
(0.117172 -0.315749 0)
(0.27491 -0.310142 0)
(0.459615 -0.000882207 0)
(0.547821 0.180652 0)
(0.557249 0.243905 0)
(0.612162 0.275875 0)
(0.65066 0.313411 0)
(-0.109394 -0.267681 0)
(-0.142958 -0.416818 0)
(-0.128301 -0.352501 0)
(-0.0865691 -0.255173 0)
(-0.0772237 -0.224029 0)
(-0.0690039 -0.223212 0)
(-0.0746946 -0.220173 0)
(-0.0824445 -0.216913 0)
(-0.0910235 -0.220814 0)
(-0.0967381 -0.236776 0)
(-0.0980974 -0.25534 0)
(-0.0996104 -0.25006 0)
(-0.091555 -0.192018 0)
(-0.10222 -0.125444 0)
(-0.0691708 -0.18742 0)
(0.0444594 -0.367119 0)
(0.142873 -0.41805 0)
(0.264888 -0.368591 0)
(0.427849 -0.208638 0)
(0.654265 0.0823717 0)
(0.766421 0.272803 0)
(0.767921 0.229341 0)
(0.666252 0.252257 0)
(-0.0577526 -0.205339 0)
(-0.0530219 -0.385202 0)
(-0.0760209 -0.305204 0)
(-0.0727971 -0.258682 0)
(-0.068783 -0.232444 0)
(-0.0628221 -0.224409 0)
(-0.0626348 -0.215963 0)
(-0.065191 -0.209116 0)
(-0.0703117 -0.211017 0)
(-0.0781624 -0.224585 0)
(-0.0870232 -0.242644 0)
(-0.0978811 -0.243103 0)
(-0.0880635 -0.196614 0)
(-0.0599919 -0.15673 0)
(0.01443 -0.264624 0)
(0.0521826 -0.438556 0)
(0.0632463 -0.514042 0)
(0.13428 -0.506458 0)
(0.255044 -0.401404 0)
(0.465983 -0.191569 0)
(0.716824 0.0798329 0)
(0.862486 0.264657 0)
(0.839677 0.371251 0)
(-0.0230484 -0.158643 0)
(-0.0370493 -0.354174 0)
(-0.0571267 -0.298033 0)
(-0.0575453 -0.256175 0)
(-0.0562606 -0.236556 0)
(-0.0532057 -0.227152 0)
(-0.0515993 -0.216855 0)
(-0.0508124 -0.206972 0)
(-0.0521099 -0.204799 0)
(-0.0578171 -0.214517 0)
(-0.0664208 -0.231715 0)
(-0.0777479 -0.243068 0)
(-0.0694803 -0.226871 0)
(-0.0225203 -0.218578 0)
(0.0313327 -0.2917 0)
(0.020385 -0.403798 0)
(-0.0145846 -0.503756 0)
(-0.0172515 -0.544205 0)
(0.0252106 -0.522217 0)
(0.142064 -0.409568 0)
(0.370955 -0.137874 0)
(0.573134 0.172638 0)
(0.659698 0.375826 0)
(-0.00782914 -0.136838 0)
(-0.0251224 -0.341462 0)
(-0.0402253 -0.293935 0)
(-0.0436433 -0.253962 0)
(-0.0446487 -0.237717 0)
(-0.0434986 -0.228817 0)
(-0.0415122 -0.219002 0)
(-0.0380911 -0.208792 0)
(-0.034528 -0.20384 0)
(-0.0340464 -0.208958 0)
(-0.0369063 -0.222476 0)
(-0.043233 -0.239283 0)
(-0.0404204 -0.246435 0)
(-0.0115706 -0.255862 0)
(0.0123483 -0.297591 0)
(0.010897 -0.377431 0)
(-0.0319516 -0.457984 0)
(-0.0826599 -0.52004 0)
(-0.115578 -0.543474 0)
(-0.151518 -0.483379 0)
(-0.108219 -0.302603 0)
(0.0824015 0.0219505 0)
(0.2045 0.270136 0)
(-0.0015949 -0.124956 0)
(-0.0144674 -0.325638 0)
(-0.0282293 -0.284217 0)
(-0.0332431 -0.25037 0)
(-0.034958 -0.237426 0)
(-0.0347894 -0.23009 0)
(-0.0328719 -0.222207 0)
(-0.0284231 -0.213791 0)
(-0.0219848 -0.208366 0)
(-0.0163031 -0.210326 0)
(-0.013319 -0.22021 0)
(-0.0136973 -0.236524 0)
(-0.0133332 -0.253476 0)
(-0.00501125 -0.272783 0)
(0.00683981 -0.309825 0)
(-0.000503151 -0.357564 0)
(-0.0393704 -0.412678 0)
(-0.0935604 -0.468338 0)
(-0.161067 -0.491148 0)
(-0.254704 -0.417734 0)
(-0.339481 -0.270232 0)
(-0.33011 -0.0467636 0)
(-0.212829 0.181958 0)
(0.00095582 -0.11968 0)
(-0.00878733 -0.313744 0)
(-0.0201728 -0.276347 0)
(-0.0250765 -0.246259 0)
(-0.0274217 -0.236148 0)
(-0.027949 -0.230741 0)
(-0.0267204 -0.225195 0)
(-0.0230286 -0.219451 0)
(-0.0168001 -0.21556 0)
(-0.00977332 -0.216522 0)
(-0.0043142 -0.223861 0)
(-0.00194031 -0.237258 0)
(-0.00266947 -0.254304 0)
(-0.00385841 -0.275937 0)
(-0.00968162 -0.302973 0)
(-0.0265183 -0.334277 0)
(-0.0592252 -0.368938 0)
(-0.111184 -0.409383 0)
(-0.177577 -0.437708 0)
(-0.220317 -0.384141 0)
(-0.239873 -0.274747 0)
(-0.237815 -0.12947 0)
(-0.192494 0.0301415 0)
(0.00186279 -0.117029 0)
(-0.00554404 -0.304469 0)
(-0.014722 -0.269218 0)
(-0.0193161 -0.242391 0)
(-0.0218017 -0.234477 0)
(-0.0228671 -0.230673 0)
(-0.0225371 -0.226998 0)
(-0.0204834 -0.223575 0)
(-0.0164941 -0.221595 0)
(-0.0114441 -0.222671 0)
(-0.00723033 -0.228156 0)
(-0.00577701 -0.238154 0)
(-0.00804843 -0.25149 0)
(-0.0151211 -0.267593 0)
(-0.0285201 -0.286737 0)
(-0.0513971 -0.306769 0)
(-0.0842392 -0.325296 0)
(-0.138168 -0.343876 0)
(-0.227157 -0.355031 0)
(-0.315766 -0.316517 0)
(-0.36 -0.217797 0)
(-0.3415 -0.105933 0)
(-0.268608 -0.0184269 0)
(0.00183808 -0.115786 0)
(-0.00371912 -0.297088 0)
(-0.0110767 -0.263187 0)
(-0.0152213 -0.238753 0)
(-0.017703 -0.232536 0)
(-0.0191461 -0.229949 0)
(-0.0196145 -0.227474 0)
(-0.0190994 -0.225451 0)
(-0.0175924 -0.224653 0)
(-0.0155642 -0.225883 0)
(-0.0142066 -0.229855 0)
(-0.0150985 -0.236715 0)
(-0.0195245 -0.245831 0)
(-0.0283953 -0.256624 0)
(-0.042813 -0.268393 0)
(-0.064117 -0.279821 0)
(-0.0927271 -0.287557 0)
(-0.12989 -0.290519 0)
(-0.179442 -0.287614 0)
(-0.239158 -0.270192 0)
(-0.288679 -0.233037 0)
(-0.31198 -0.176108 0)
(-0.309916 -0.100446 0)
(0.0014656 -0.115006 0)
(-0.00271264 -0.291368 0)
(-0.00861184 -0.258122 0)
(-0.0123284 -0.235439 0)
(-0.0147425 -0.230453 0)
(-0.0164381 -0.22874 0)
(-0.0174877 -0.226975 0)
(-0.0180279 -0.225575 0)
(-0.0182548 -0.225154 0)
(-0.0185458 -0.226128 0)
(-0.0196274 -0.228736 0)
(-0.0225199 -0.233031 0)
(-0.0282348 -0.238683 0)
(-0.0374733 -0.245112 0)
(-0.0510248 -0.251474 0)
(-0.0697565 -0.256634 0)
(-0.0939724 -0.258693 0)
(-0.123977 -0.255548 0)
(-0.158504 -0.242107 0)
(-0.193493 -0.212989 0)
(-0.22403 -0.168856 0)
(-0.245297 -0.116892 0)
(-0.25397 -0.0658919 0)
(0.00108358 -0.114376 0)
(-0.00213202 -0.286839 0)
(-0.00694097 -0.25384 0)
(-0.0102684 -0.232439 0)
(-0.0125741 -0.228331 0)
(-0.0144099 -0.227204 0)
(-0.0158569 -0.225857 0)
(-0.0170464 -0.224676 0)
(-0.0182436 -0.224165 0)
(-0.0198033 -0.224574 0)
(-0.0222352 -0.225948 0)
(-0.0261559 -0.228241 0)
(-0.0322512 -0.231164 0)
(-0.0410543 -0.234194 0)
(-0.0531803 -0.236607 0)
(-0.0690427 -0.237216 0)
(-0.0887193 -0.234549 0)
(-0.112121 -0.227187 0)
(-0.137919 -0.213065 0)
(-0.163088 -0.190543 0)
(-0.183658 -0.159621 0)
(-0.196245 -0.121737 0)
(-0.198795 -0.0784858 0)
(0.000818213 -0.113819 0)
(-0.00174145 -0.283175 0)
(-0.00579183 -0.250155 0)
(-0.00874698 -0.229733 0)
(-0.0109218 -0.226235 0)
(-0.0128076 -0.225471 0)
(-0.014499 -0.224349 0)
(-0.0160902 -0.223206 0)
(-0.0178102 -0.222445 0)
(-0.0199528 -0.222207 0)
(-0.0229206 -0.222507 0)
(-0.0271475 -0.223191 0)
(-0.0330443 -0.224003 0)
(-0.0410432 -0.224434 0)
(-0.051496 -0.223956 0)
(-0.0645148 -0.22151 0)
(-0.0800251 -0.216083 0)
(-0.0975122 -0.206523 0)
(-0.115777 -0.191365 0)
(-0.132976 -0.169986 0)
(-0.14669 -0.142772 0)
(-0.154774 -0.111134 0)
(-0.155429 -0.0766225 0)
(0.000703558 -0.113337 0)
(-0.00139987 -0.280128 0)
(-0.00495907 -0.246917 0)
(-0.00756654 -0.227293 0)
(-0.00958512 -0.224227 0)
(-0.0114402 -0.223647 0)
(-0.0132344 -0.222609 0)
(-0.0150414 -0.221408 0)
(-0.0170241 -0.220363 0)
(-0.019422 -0.219534 0)
(-0.022515 -0.218914 0)
(-0.0266218 -0.218315 0)
(-0.0320184 -0.217486 0)
(-0.0390059 -0.216 0)
(-0.047732 -0.213418 0)
(-0.0581558 -0.208907 0)
(-0.0701996 -0.201771 0)
(-0.0831844 -0.191141 0)
(-0.0961534 -0.176301 0)
(-0.10789 -0.157067 0)
(-0.116737 -0.133897 0)
(-0.12139 -0.107769 0)
(-0.120498 -0.0793817 0)
(0.000724328 -0.113015 0)
(-0.00104351 -0.27749 0)
(-0.00429998 -0.244024 0)
(-0.00658467 -0.225103 0)
(-0.00842166 -0.222351 0)
(-0.0101759 -0.221835 0)
(-0.0119502 -0.220777 0)
(-0.0137994 -0.219464 0)
(-0.0158448 -0.218142 0)
(-0.0182657 -0.216828 0)
(-0.0212526 -0.215447 0)
(-0.0250003 -0.213853 0)
(-0.0296816 -0.211774 0)
(-0.0355443 -0.208959 0)
(-0.0425641 -0.204921 0)
(-0.0506545 -0.199162 0)
(-0.0596874 -0.191083 0)
(-0.0690034 -0.180155 0)
(-0.0779009 -0.166059 0)
(-0.0855744 -0.148653 0)
(-0.0908775 -0.12847 0)
(-0.0929849 -0.10625 0)
(-0.0908604 -0.0822302 0)
(0.000878388 -0.11293 0)
(-0.000636283 -0.275123 0)
(-0.0037364 -0.24141 0)
(-0.00570795 -0.223161 0)
(-0.00733562 -0.22065 0)
(-0.00892653 -0.220129 0)
(-0.0105878 -0.219003 0)
(-0.0123479 -0.217554 0)
(-0.0142898 -0.215981 0)
(-0.016535 -0.21427 0)
(-0.0192108 -0.212314 0)
(-0.0224176 -0.20997 0)
(-0.0263215 -0.207042 0)
(-0.031018 -0.203319 0)
(-0.0364366 -0.198358 0)
(-0.0424247 -0.191888 0)
(-0.0488643 -0.183423 0)
(-0.0553095 -0.172618 0)
(-0.0610823 -0.159343 0)
(-0.0656732 -0.14357 0)
(-0.0683265 -0.12577 0)
(-0.068544 -0.106544 0)
(-0.0654158 -0.0857892 0)
(0.00111965 -0.113152 0)
(-0.000194821 -0.272931 0)
(-0.00320907 -0.239033 0)
(-0.00487529 -0.221471 0)
(-0.00627465 -0.21916 0)
(-0.00765966 -0.218602 0)
(-0.00913228 -0.217397 0)
(-0.0106971 -0.21582 0)
(-0.0124057 -0.214037 0)
(-0.0143346 -0.212015 0)
(-0.016557 -0.209642 0)
(-0.0191572 -0.206794 0)
(-0.0222265 -0.203341 0)
(-0.0257652 -0.199012 0)
(-0.0297001 -0.193554 0)
(-0.0339155 -0.186706 0)
(-0.0382165 -0.178237 0)
(-0.0422683 -0.167815 0)
(-0.0456043 -0.155391 0)
(-0.0478402 -0.141045 0)
(-0.0484308 -0.125198 0)
(-0.0471327 -0.108293 0)
(-0.0431011 -0.0900124 0)
(0.00141846 -0.113758 0)
(0.000266859 -0.270833 0)
(-0.00268556 -0.236867 0)
(-0.0040454 -0.220038 0)
(-0.00520367 -0.217908 0)
(-0.00635157 -0.217298 0)
(-0.00758188 -0.216018 0)
(-0.00888077 -0.214341 0)
(-0.010273 -0.212407 0)
(-0.0117914 -0.210172 0)
(-0.0134939 -0.207541 0)
(-0.0154499 -0.204403 0)
(-0.0176648 -0.200606 0)
(-0.0201051 -0.195962 0)
(-0.022706 -0.190291 0)
(-0.0253509 -0.183378 0)
(-0.0278671 -0.175055 0)
(-0.0299743 -0.165169 0)
(-0.0313323 -0.153624 0)
(-0.0316969 -0.140544 0)
(-0.0306251 -0.12629 0)
(-0.028075 -0.111232 0)
(-0.0232187 -0.0948867 0)
(0.00173702 -0.114786 0)
(0.00073875 -0.268802 0)
(-0.00213149 -0.234905 0)
(-0.00318454 -0.218872 0)
(-0.00409805 -0.216914 0)
(-0.00498629 -0.216251 0)
(-0.0059374 -0.214917 0)
(-0.0069237 -0.213182 0)
(-0.00794998 -0.211163 0)
(-0.00903332 -0.208813 0)
(-0.0101969 -0.206056 0)
(-0.0114631 -0.202769 0)
(-0.0128355 -0.1988 0)
(-0.014273 -0.194049 0)
(-0.0156681 -0.188364 0)
(-0.016924 -0.181601 0)
(-0.0179346 -0.173629 0)
(-0.0184344 -0.164334 0)
(-0.0181638 -0.153615 0)
(-0.0169787 -0.141675 0)
(-0.0145372 -0.128774 0)
(-0.0109167 -0.115211 0)
(-0.00526292 -0.100415 0)
(0.00204013 -0.116251 0)
(0.00123025 -0.266854 0)
(-0.00151536 -0.233175 0)
(-0.00226732 -0.217976 0)
(-0.00292687 -0.216188 0)
(-0.0035475 -0.215485 0)
(-0.00420261 -0.214127 0)
(-0.00485575 -0.212381 0)
(-0.00549763 -0.210344 0)
(-0.00612698 -0.207968 0)
(-0.00674041 -0.205171 0)
(-0.0073291 -0.201837 0)
(-0.00790942 -0.197893 0)
(-0.00843009 -0.193202 0)
(-0.00876901 -0.187655 0)
(-0.00883824 -0.181174 0)
(-0.00853005 -0.173648 0)
(-0.00760421 -0.164964 0)
(-0.00597436 -0.155121 0)
(-0.00352674 -0.144187 0)
(0.00010715 -0.132454 0)
(0.0047039 -0.120119 0)
(0.0111401 -0.106622 0)
(0.00231015 -0.118143 0)
(0.00175599 -0.265046 0)
(-0.000801598 -0.231704 0)
(-0.00126354 -0.217346 0)
(-0.00167571 -0.215729 0)
(-0.00202215 -0.215007 0)
(-0.00237604 -0.213658 0)
(-0.00269066 -0.211944 0)
(-0.00294681 -0.209945 0)
(-0.00312443 -0.207611 0)
(-0.00319214 -0.204867 0)
(-0.00318021 -0.20163 0)
(-0.00305485 -0.197822 0)
(-0.00271585 -0.193316 0)
(-0.00210137 -0.188037 0)
(-0.00111793 -0.18192 0)
(0.00033998 -0.174888 0)
(0.00240869 -0.166865 0)
(0.00521812 -0.157889 0)
(0.00884958 -0.147893 0)
(0.0135269 -0.137187 0)
(0.0190261 -0.125927 0)
(0.026244 -0.113569 0)
(0.00255972 -0.120455 0)
(0.00234566 -0.26346 0)
(7.98757e-06 -0.230511 0)
(-0.000174133 -0.21697 0)
(-0.000336889 -0.215529 0)
(-0.000410519 -0.214815 0)
(-0.000464273 -0.213509 0)
(-0.000442375 -0.211869 0)
(-0.00031803 -0.209959 0)
(-6.45114e-05 -0.207733 0)
(0.000344204 -0.205127 0)
(0.000925178 -0.202081 0)
(0.00172166 -0.198477 0)
(0.00280864 -0.194255 0)
(0.00426187 -0.189345 0)
(0.00616726 -0.183688 0)
(0.00861442 -0.177227 0)
(0.0117032 -0.169912 0)
(0.0155508 -0.161714 0)
(0.0202155 -0.152635 0)
(0.0258567 -0.142879 0)
(0.0322207 -0.132601 0)
(0.0402223 -0.121282 0)
(0.00282757 -0.123212 0)
(0.00301315 -0.262164 0)
(0.000893262 -0.229597 0)
(0.000979815 -0.216834 0)
(0.00105336 -0.215584 0)
(0.00125585 -0.214906 0)
(0.00149928 -0.213675 0)
(0.00185248 -0.212145 0)
(0.00234592 -0.210371 0)
(0.00301113 -0.208311 0)
(0.0038794 -0.205906 0)
(0.00498517 -0.203091 0)
(0.00638053 -0.199788 0)
(0.00813828 -0.195935 0)
(0.0103356 -0.191474 0)
(0.0130536 -0.186349 0)
(0.0163717 -0.180513 0)
(0.0203743 -0.173921 0)
(0.0251596 -0.166529 0)
(0.0307719 -0.158332 0)
(0.0373302 -0.149471 0)
(0.0445585 -0.140108 0)
(0.0533605 -0.12976 0)
(0.00316816 -0.126484 0)
(0.00375645 -0.261168 0)
(0.00178804 -0.228933 0)
(0.0021401 -0.216941 0)
(0.00243617 -0.2159 0)
(0.00291584 -0.215286 0)
(0.00345315 -0.214158 0)
(0.00413453 -0.212771 0)
(0.00499218 -0.21117 0)
(0.00606032 -0.209319 0)
(0.00737534 -0.207163 0)
(0.00898019 -0.204646 0)
(0.0109341 -0.201706 0)
(0.013312 -0.198289 0)
(0.0161915 -0.194342 0)
(0.0196518 -0.189812 0)
(0.0237699 -0.184654 0)
(0.0286268 -0.178822 0)
(0.0343071 -0.172266 0)
(0.0408512 -0.164953 0)
(0.0483531 -0.156968 0)
(0.0565306 -0.148484 0)
(0.0662389 -0.139061 0)
(0.00362261 -0.130353 0)
(0.00454555 -0.260408 0)
(0.00260537 -0.228465 0)
(0.00323257 -0.217284 0)
(0.00373101 -0.216473 0)
(0.00448152 -0.21595 0)
(0.00530389 -0.214958 0)
(0.00630693 -0.213746 0)
(0.00752429 -0.212355 0)
(0.00899132 -0.210751 0)
(0.0107481 -0.208891 0)
(0.0128428 -0.206724 0)
(0.0153401 -0.204202 0)
(0.0183173 -0.201277 0)
(0.0218542 -0.197903 0)
(0.0260319 -0.194031 0)
(0.0309323 -0.189612 0)
(0.036643 -0.184597 0)
(0.0432458 -0.178929 0)
(0.0507903 -0.172547 0)
(0.0593662 -0.165479 0)
(0.0687107 -0.157894 0)
(0.0796091 -0.149408 0)
(0.00420416 -0.134882 0)
(0.00533448 -0.259737 0)
(0.0032559 -0.228114 0)
(0.00417698 -0.217836 0)
(0.00484106 -0.217277 0)
(0.00583918 -0.216871 0)
(0.00692051 -0.216046 0)
(0.00822116 -0.215046 0)
(0.00977669 -0.213903 0)
(0.0116227 -0.21259 0)
(0.0138025 -0.21107 0)
(0.0163685 -0.209303 0)
(0.0193903 -0.207251 0)
(0.0229487 -0.204875 0)
(0.0271275 -0.202137 0)
(0.0320146 -0.198988 0)
(0.0377036 -0.195383 0)
(0.0442979 -0.191267 0)
(0.05189 -0.186577 0)
(0.0605559 -0.181234 0)
(0.0704096 -0.17521 0)
(0.0812415 -0.168642 0)
(0.0937832 -0.161212 0)
(0.00491084 -0.14012 0)
(0.00607829 -0.258963 0)
(0.00365733 -0.227804 0)
(0.00489131 -0.218563 0)
(0.00565376 -0.218269 0)
(0.0068488 -0.217997 0)
(0.00813105 -0.217372 0)
(0.00966915 -0.21662 0)
(0.0115005 -0.215767 0)
(0.0136607 -0.214788 0)
(0.0161963 -0.213655 0)
(0.0191649 -0.212338 0)
(0.0226413 -0.21081 0)
(0.0267118 -0.209044 0)
(0.0314671 -0.207008 0)
(0.0370062 -0.204662 0)
(0.0434412 -0.201962 0)
(0.0508984 -0.198857 0)
(0.0594949 -0.195283 0)
(0.0693519 -0.191154 0)
(0.0806367 -0.186401 0)
(0.0932245 -0.181097 0)
(0.107852 -0.174991 0)
(0.00574007 -0.146155 0)
(0.00673755 -0.257889 0)
(0.0037423 -0.227495 0)
(0.00530059 -0.219452 0)
(0.0060526 -0.219415 0)
(0.00735966 -0.219291 0)
(0.008744 -0.218893 0)
(0.0104119 -0.218421 0)
(0.0124015 -0.217892 0)
(0.0147477 -0.217286 0)
(0.0175001 -0.216582 0)
(0.020722 -0.215762 0)
(0.0244946 -0.214812 0)
(0.0289112 -0.213715 0)
(0.0340713 -0.212452 0)
(0.0400887 -0.210995 0)
(0.0470978 -0.20931 0)
(0.0552526 -0.207354 0)
(0.0647048 -0.205076 0)
(0.0756342 -0.202399 0)
(0.0882791 -0.199232 0)
(0.102618 -0.195575 0)
(0.119477 -0.191232 0)
(0.00666738 -0.153077 0)
(0.00726411 -0.256305 0)
(0.00347804 -0.227156 0)
(0.00535845 -0.220481 0)
(0.00595371 -0.22067 0)
(0.00725857 -0.220701 0)
(0.00861416 -0.220549 0)
(0.0102669 -0.220378 0)
(0.0122533 -0.220196 0)
(0.0146052 -0.219986 0)
(0.0173741 -0.219739 0)
(0.0206293 -0.219449 0)
(0.0244589 -0.219116 0)
(0.028962 -0.218738 0)
(0.0342461 -0.21831 0)
(0.0404408 -0.217822 0)
(0.0477034 -0.217258 0)
(0.0562132 -0.216593 0)
(0.0661594 -0.215802 0)
(0.0777825 -0.214834 0)
(0.0913876 -0.213603 0)
(0.107063 -0.212062 0)
(0.125789 -0.210058 0)
(0.00759845 -0.160766 0)
(0.00758788 -0.25387 0)
(0.00289469 -0.226621 0)
(0.00507485 -0.221447 0)
(0.00535882 -0.221811 0)
(0.00654252 -0.222001 0)
(0.00773764 -0.2221 0)
(0.00922744 -0.222231 0)
(0.0110432 -0.222394 0)
(0.013211 -0.222581 0)
(0.0157845 -0.222792 0)
(0.0188391 -0.223038 0)
(0.0224667 -0.223333 0)
(0.0267681 -0.223692 0)
(0.0318562 -0.22413 0)
(0.0378741 -0.224659 0)
(0.0449956 -0.225284 0)
(0.0534164 -0.22601 0)
(0.0633571 -0.226848 0)
(0.0751051 -0.22779 0)
(0.0890104 -0.228792 0)
(0.105269 -0.229802 0)
(0.125006 -0.230737 0)
(0.00836884 -0.168787 0)
(0.00764326 -0.250202 0)
(0.0021007 -0.225596 0)
(0.00453052 -0.221962 0)
(0.00439203 -0.222445 0)
(0.00536786 -0.222788 0)
(0.00630896 -0.223126 0)
(0.0075265 -0.223539 0)
(0.00904491 -0.224024 0)
(0.0108862 -0.224581 0)
(0.013107 -0.225223 0)
(0.0157859 -0.225981 0)
(0.0190132 -0.226883 0)
(0.0228859 -0.227962 0)
(0.02752 -0.229256 0)
(0.0330667 -0.230799 0)
(0.0397038 -0.232625 0)
(0.0476306 -0.23477 0)
(0.0570867 -0.237293 0)
(0.0683812 -0.240239 0)
(0.081881 -0.243629 0)
(0.097866 -0.247464 0)
(0.117518 -0.25178 0)
(0.008812 -0.177052 0)
(0.00741215 -0.245567 0)
(0.00126013 -0.22433 0)
(0.00385161 -0.222155 0)
(0.00327159 -0.222707 0)
(0.00400677 -0.223202 0)
(0.00466018 -0.223762 0)
(0.00556088 -0.224431 0)
(0.00672833 -0.225208 0)
(0.00818493 -0.2261 0)
(0.00998843 -0.227143 0)
(0.012215 -0.228383 0)
(0.0149472 -0.229862 0)
(0.0182768 -0.231629 0)
(0.0223207 -0.233745 0)
(0.0272277 -0.236272 0)
(0.0331664 -0.239268 0)
(0.04033 -0.24281 0)
(0.0489645 -0.247002 0)
(0.0593742 -0.251945 0)
(0.071917 -0.257734 0)
(0.0869098 -0.264458 0)
(0.105472 -0.272289 0)
(0.00877832 -0.186272 0)
(0.00689116 -0.241136 0)
(0.000532113 -0.223903 0)
(0.00314114 -0.223013 0)
(0.00220656 -0.223606 0)
(0.00271106 -0.22426 0)
(0.00309759 -0.22503 0)
(0.00369917 -0.225932 0)
(0.0045318 -0.226972 0)
(0.00561965 -0.228179 0)
(0.00701771 -0.229603 0)
(0.008795 -0.231302 0)
(0.0110246 -0.233325 0)
(0.0137925 -0.235741 0)
(0.0172104 -0.238634 0)
(0.0214138 -0.242089 0)
(0.0265533 -0.246191 0)
(0.0328119 -0.251056 0)
(0.0404297 -0.256832 0)
(0.0496885 -0.263677 0)
(0.0609177 -0.27175 0)
(0.0744326 -0.281241 0)
(0.0912266 -0.292402 0)
(0.00809549 -0.19582 0)
(0.00603536 -0.237044 0)
(3.06929e-05 -0.224176 0)
(0.00244268 -0.224317 0)
(0.00132534 -0.224939 0)
(0.0016298 -0.225743 0)
(0.00180605 -0.226689 0)
(0.00216372 -0.227787 0)
(0.00271524 -0.229057 0)
(0.00348697 -0.230545 0)
(0.00452893 -0.232309 0)
(0.00589945 -0.234409 0)
(0.00766002 -0.236909 0)
(0.00988817 -0.239896 0)
(0.0126846 -0.243474 0)
(0.0161648 -0.247745 0)
(0.0204562 -0.252823 0)
(0.0257257 -0.258864 0)
(0.0321928 -0.266057 0)