/*--------------------------------*- C++ -*----------------------------------*\
| =========                 |                                                 |
| \\      /  F ield         | OpenFOAM: The Open Source CFD Toolbox           |
|  \\    /   O peration     | Version:  3.0.1                                 |
|   \\  /    A nd           | Web:      www.OpenFOAM.org                      |
|    \\/     M anipulation  |                                                 |
\*---------------------------------------------------------------------------*/
FoamFile
{
    version     2.0;
    format      ascii;
    class       surfaceScalarField;
    location    "5e-05";
    object      phi;
}
// * * * * * * * * * * * * * * * * * * * * * * * * * * * * * * * * * * * * * //

dimensions      [1 0 -1 0 0 0 0];

internalField   nonuniform List<scalar> 
1890
(
3.07873e-11
-9.31512e-14
6.60927e-11
-9.55416e-14
1.12101e-10
-1.02571e-13
1.76255e-10
-1.14964e-13
2.68881e-10
-1.31884e-13
4.04835e-10
-1.52541e-13
6.05845e-10
-1.76036e-13
9.03931e-10
-2.01381e-13
1.34641e-09
-2.27249e-13
2.0033e-09
-2.52007e-13
2.97817e-09
-2.73625e-13
4.42416e-09
-2.89928e-13
6.56757e-09
-2.98615e-13
9.74251e-09
-2.97679e-13
1.44418e-08
-2.85903e-13
2.13916e-08
-2.63425e-13
3.16609e-08
-2.32699e-13
4.68209e-08
-1.99594e-13
6.91792e-08
-1.74812e-13
1.02119e-07
-1.75714e-13
1.50593e-07
-2.25868e-13
2.21844e-07
-3.86895e-13
3.26436e-07
-6.98455e-13
4.79761e-07
-1.27686e-12
7.04187e-07
-2.28864e-12
1.03216e-06
-4.00771e-12
1.5106e-06
-6.89829e-12
2.20721e-06
-1.1741e-11
3.21936e-06
-1.98299e-11
4.68661e-06
-3.32973e-11
6.80817e-06
-5.61267e-11
9.86725e-06
-9.49286e-11
1.42643e-05
-1.59872e-10
2.05624e-05
-2.69767e-10
2.95478e-05
-4.56782e-10
4.23094e-05
-7.84181e-10
6.03405e-05
-1.35698e-09
8.56649e-05
-2.33886e-09
0.000120983
-4.17816e-09
0.00016983
-7.00558e-09
0.00023672
-1.1863e-08
0.000327172
-2.21587e-08
0.000447617
-3.91516e-08
0.000604729
-7.0508e-08
0.000804462
-1.16571e-07
0.00104807
-2.49871e-07
0.00132744
-4.36695e-07
0.00161528
-9.55658e-07
0.00186471
-2.40806e-06
0.00179582
-7.12991e-06
0.00182447
4.63712e-06
0.00162458
1.19365e-06
0.00134876
4.88411e-07
0.00107052
4.26867e-07
0.000823129
1.81553e-07
0.000619136
8.09068e-08
0.000458037
3.7428e-08
0.000334498
1.94886e-08
0.000241761
7.37416e-09
0.000173253
2.75214e-09
0.000123286
1.83614e-09
8.72015e-05
9.08601e-10
6.13616e-05
6.21605e-10
4.29854e-05
3.5512e-10
2.99944e-05
2.29786e-10
2.0857e-05
1.55808e-10
1.44583e-05
9.66436e-11
9.99492e-06
6.18896e-11
6.89215e-06
3.85701e-11
4.74183e-06
2.42364e-11
3.25566e-06
1.5146e-11
2.23106e-06
9.48441e-12
1.52627e-06
5.90152e-12
1.04245e-06
3.62685e-12
7.10948e-07
2.17813e-12
4.84201e-07
1.23433e-12
3.29352e-07
6.69558e-13
2.23759e-07
3.62226e-13
1.51851e-07
2.26449e-13
1.02946e-07
1.70934e-13
6.97228e-08
1.93474e-13
4.71787e-08
2.37027e-13
3.18965e-08
2.83114e-13
2.15469e-08
3.1986e-13
1.45442e-08
3.41621e-13
9.81009e-09
3.47227e-13
6.61215e-09
3.38311e-13
4.45353e-09
3.17994e-13
2.99748e-09
2.89876e-13
2.01594e-09
2.57414e-13
1.35463e-09
2.2354e-13
9.0923e-10
1.90509e-13
6.09218e-10
1.59936e-13
4.06943e-10
1.32743e-13
2.70166e-10
1.09383e-13
1.77012e-10
8.97806e-14
1.12527e-10
7.33667e-14
6.63255e-11
5.89459e-14
3.09374e-11
4.40932e-14
2.37154e-14
3.07781e-11
-8.00887e-14
6.60646e-11
-8.50778e-14
1.12052e-10
-9.29326e-14
1.76186e-10
-1.04458e-13
2.68797e-10
-1.1946e-13
4.04739e-10
-1.37397e-13
6.05742e-10
-1.57513e-13
9.03825e-10
-1.78763e-13
1.34631e-09
-1.9983e-13
2.00321e-09
-2.19023e-13
2.9781e-09
-2.3441e-13
4.42412e-09
-2.43972e-13
6.56757e-09
-2.45848e-13
9.74256e-09
-2.38747e-13
1.44419e-08
-2.22568e-13
2.13918e-08
-1.99351e-13
3.1661e-08
-1.74371e-13
4.6821e-08
-1.57752e-13
6.91792e-08
-1.66901e-13
1.02119e-07
-2.32429e-13
1.50593e-07
-3.87409e-13
2.21842e-07
-7.10945e-13
3.26434e-07
-1.30262e-12
4.79757e-07
-2.3319e-12
7.04181e-07
-4.07172e-12
1.03215e-06
-6.97442e-12
1.51058e-06
-1.17828e-11
2.20718e-06
-1.97736e-11
3.21931e-06
-3.30755e-11
4.68652e-06
-5.5312e-11
6.80802e-06
-9.24034e-11
9.867e-06
-1.5437e-10
1.42639e-05
-2.59071e-10
2.05617e-05
-4.31193e-10
2.95466e-05
-7.19133e-10
4.23072e-05
-1.20383e-09
6.03367e-05
-2.01047e-09
8.56578e-05
-3.34832e-09
0.000120972
-5.38009e-09
0.000169811
-8.85733e-09
0.00023668
-1.47806e-08
0.000327106
-2.34149e-08
0.000447494
-3.55058e-08
0.000604553
-4.93579e-08
0.000803941
-8.69056e-08
0.00104735
-1.56806e-07
0.00132547
-2.23549e-07
0.00161047
2.38016e-07
0.00184114
1.46369e-06
0.00183926
5.91485e-06
0.00181641
-4.58584e-06
0.00162137
-1.17243e-06
0.00134851
8.10555e-08
0.00106965
5.43043e-08
0.000822738
8.50815e-09
0.000618968
-4.61144e-09
0.000457968
1.33083e-09
0.000334451
5.47603e-09
0.000241743
5.02677e-09
0.000173249
3.51492e-09
0.000123282
2.9734e-09
8.72004e-05
1.95228e-09
6.13606e-05
1.22478e-09
4.29849e-05
7.80141e-10
2.99941e-05
4.90562e-10
2.08567e-05
2.96445e-10
1.44582e-05
1.79878e-10
9.99483e-06
1.09439e-10
6.8921e-06
6.74798e-11
4.74179e-06
4.14611e-11
3.25564e-06
2.52853e-11
2.23105e-06
1.52428e-11
1.52626e-06
9.06448e-12
1.04244e-06
5.29879e-12
7.10945e-07
3.03334e-12
4.84199e-07
1.72289e-12
3.29351e-07
1.00507e-12
2.23758e-07
6.43433e-13
1.51851e-07
4.71933e-13
1.02946e-07
4.09454e-13
6.9723e-08
3.93864e-13
4.71789e-08
3.90868e-13
3.18966e-08
3.83782e-13
2.1547e-08
3.66518e-13
1.45443e-08
3.38748e-13
9.81006e-09
3.02995e-13
6.61207e-09
2.62826e-13
4.45342e-09
2.21627e-13
2.99734e-09
1.82146e-13
2.0158e-09
1.46246e-13
1.3545e-09
1.1486e-13
9.09102e-10
8.8516e-14
6.09105e-10
6.70471e-14
4.06846e-10
5.0026e-14
2.70085e-10
3.67536e-14
1.76944e-10
2.65222e-14
1.12468e-10
1.85286e-14
6.62645e-11
1.21049e-14
3.08538e-11
6.81573e-15
3.48853e-15
3.07588e-11
-7.05547e-14
6.60341e-11
-7.52211e-14
1.12007e-10
-8.20906e-14
1.76128e-10
-9.1805e-14
2.68728e-10
-1.0416e-13
4.04662e-10
-1.1862e-13
6.0566e-10
-1.34358e-13
9.03743e-10
-1.50286e-13
1.34624e-09
-1.64979e-13
2.00315e-09
-1.76706e-13
2.97806e-09
-1.83586e-13
4.42411e-09
-1.83697e-13
6.5676e-09
-1.75356e-13
9.74262e-09
-1.57641e-13
1.4442e-08
-1.31079e-13
2.13919e-08
-9.84594e-14
3.16611e-08
-6.59958e-14
4.6821e-08
-4.50126e-14
6.91789e-08
-5.39048e-14
1.02118e-07
-1.21299e-13
1.50591e-07
-2.90344e-13
2.2184e-07
-6.28789e-13
3.2643e-07
-1.24056e-12
4.7975e-07
-2.29181e-12
7.04169e-07
-4.05452e-12
1.03213e-06
-6.98276e-12
1.51055e-06
-1.18491e-11
2.20713e-06
-1.99153e-11
3.21923e-06
-3.3329e-11
4.68638e-06
-5.5762e-11
6.80778e-06
-9.34173e-11
9.86659e-06
-1.55907e-10
1.42632e-05
-2.60766e-10
2.05606e-05
-4.38401e-10
2.95447e-05
-7.28823e-10
4.23041e-05
-1.21064e-09
6.03315e-05
-2.00113e-09
8.56499e-05
-3.27647e-09
0.000120959
-5.46123e-09
0.000169788
-9.30317e-09
0.000236647
-1.55752e-08
0.000327059
-2.76297e-08
0.000447442
-5.09131e-08
0.000604414
-8.61802e-08
0.00080368
-1.38112e-07
0.00104702
-1.92331e-07
0.00132718
-4.52088e-07
0.00161454
-1.18623e-06
0.00186405
-2.7264e-06
0.00180056
-7.31355e-06
0.00182408
4.69899e-06
0.0016265
1.56506e-06
0.00134866
4.26904e-07
0.00106945
1.55085e-07
0.000822663
9.80441e-08
0.000618982
6.54193e-08
0.000457983
3.28335e-08
0.00033445
1.15823e-08
0.000241737
1.03152e-08
0.000173247
7.50068e-09
0.000123278
4.40488e-09
8.71976e-05
2.64206e-09
6.13589e-05
1.53055e-09
4.29838e-05
9.37069e-10
2.99934e-05
5.64208e-10
2.08563e-05
3.41987e-10
1.44579e-05
2.08787e-10
9.99467e-06
1.27385e-10
6.892e-06
7.8056e-11
4.74173e-06
4.82103e-11
3.2556e-06
2.9584e-11
2.23102e-06
1.80975e-11
1.52624e-06
1.10384e-11
1.04244e-06
6.68584e-12
7.10939e-07
4.05832e-12
4.84196e-07
2.5103e-12
3.29349e-07
1.641e-12
2.23757e-07
1.14527e-12
1.51851e-07
8.67218e-13
1.02946e-07
7.06055e-13
6.9723e-08
6.01188e-13
4.71788e-08
5.19494e-13
3.18965e-08
4.45397e-13
2.15469e-08
3.73512e-13
1.45441e-08
3.03679e-13
9.8099e-09
2.37902e-13
6.61191e-09
1.78352e-13
4.45326e-09
1.26911e-13
2.9972e-09
8.44741e-14
2.01568e-09
5.13808e-14
1.35439e-09
2.54657e-14
9.0902e-10
7.25114e-15
6.0904e-10
-5.02202e-15
4.06796e-10
-1.27381e-14
2.70046e-10
-1.71235e-14
1.76913e-10
-1.93127e-14
1.12443e-10
-2.01662e-14
6.62451e-11
-2.03761e-14
3.08446e-11
-2.03049e-14
-2.01384e-14
3.07408e-11
-5.41928e-14
6.60075e-11
-5.735e-14
1.11969e-10
-6.20892e-14
1.76081e-10
-6.87089e-14
2.68672e-10
-7.69107e-14
4.04601e-10
-8.61117e-14
6.05598e-10
-9.54965e-14
9.03687e-10
-1.03959e-13
1.34619e-09
-1.10117e-13
2.00313e-09
-1.12431e-13
2.97806e-09
-1.09232e-13
4.42415e-09
-9.88792e-14
6.56767e-09
-8.01963e-14
9.74272e-09
-5.28605e-14
1.44421e-08
-1.80377e-14
2.1392e-08
2.1004e-14
3.16611e-08
5.77698e-14
4.6821e-08
8.1473e-14
6.91787e-08
7.58595e-14
1.02117e-07
1.70176e-14
1.5059e-07
-1.29192e-13
2.21838e-07
-4.12347e-13
3.26426e-07
-9.06591e-13
4.79743e-07
-1.72513e-12
7.04158e-07
-3.04561e-12
1.03211e-06
-5.14992e-12
1.51052e-06
-8.58073e-12
2.20708e-06
-1.41558e-11
3.21914e-06
-2.32931e-11
4.68623e-06
-3.84017e-11
6.80754e-06
-6.3525e-11
9.86619e-06
-1.05425e-10
1.42625e-05
-1.75746e-10
2.05595e-05
-2.93339e-10
2.95428e-05
-4.90437e-10
4.2301e-05
-8.27682e-10
6.03266e-05
-1.41964e-09
8.56415e-05
-2.47444e-09
0.000120944
-4.24811e-09
0.000169764
-7.15076e-09
0.0002366
-1.19697e-08
0.000326969
-1.91292e-08
0.000447305
-3.40428e-08
0.000604207
-5.81426e-08
0.000803483
-8.46618e-08
0.0010461
-1.78585e-07
0.0013244
-3.04752e-07
0.00160929
-5.19479e-07
0.00184101
-7.90737e-07
0.00184489
-9.75292e-07
0.00181746
1.41936e-07
0.00162177
1.35161e-07
0.00134739
2.01671e-07
0.00106918
2.51373e-07
0.000822537
1.54713e-07
0.000618857
1.12496e-07
0.000457898
5.60492e-08
0.000334444
2.99565e-08
0.000241726
1.36028e-08
0.000173235
7.29521e-09
0.000123272
3.81788e-09
8.71933e-05
2.23146e-09
6.13566e-05
1.31719e-09
4.29823e-05
8.15696e-10
2.99925e-05
4.93361e-10
2.08558e-05
3.00725e-10
1.44576e-05
1.83946e-10
9.99448e-06
1.15708e-10
6.89188e-06
7.14735e-11
4.74166e-06
4.39329e-11
3.25555e-06
2.70224e-11
2.231e-06
1.65929e-11
1.52623e-06
1.00851e-11
1.04243e-06
6.15767e-12
7.10933e-07
3.8137e-12
4.84192e-07
2.43031e-12
3.29347e-07
1.63071e-12
2.23756e-07
1.17503e-12
1.5185e-07
9.03307e-13
1.02945e-07
7.26462e-13
6.97227e-08
5.94488e-13
4.71785e-08
4.82411e-13
3.18963e-08
3.79972e-13
2.15466e-08
2.84944e-13
1.45439e-08
1.98619e-13
9.80967e-09
1.2387e-13
6.61171e-09
6.04777e-14
4.4531e-09
1.09669e-14
2.99707e-09
-2.56635e-14
2.01558e-09
-5.06505e-14
1.35432e-09
-6.58744e-14
9.08972e-10
-7.32591e-14
6.0901e-10
-7.48238e-14
4.06779e-10
-7.24351e-14
2.70038e-10
-6.76872e-14
1.7691e-10
-6.18568e-14
1.12443e-10
-5.59518e-14
6.62454e-11
-5.06505e-14
3.08452e-11
-4.64542e-14
-4.36109e-14
3.07286e-11
-3.20716e-14
6.59892e-11
-3.31853e-14
1.11944e-10
-3.5031e-14
1.76049e-10
-3.75741e-14
2.68636e-10
-4.04121e-14
4.04564e-10
-4.29552e-14
6.05566e-10
-4.43742e-14
9.03663e-10
-4.36179e-14
1.34618e-09
-3.95101e-14
2.00314e-09
-3.0722e-14
2.9781e-09
-1.58484e-14
4.42422e-09
6.3248e-15
6.56777e-09
3.65541e-14
9.74286e-09
7.51343e-14
1.44423e-08
1.20095e-13
2.13921e-08
1.69632e-13
3.16612e-08
2.18724e-13
4.6821e-08
2.60625e-13
6.91785e-08
2.865e-13
1.02117e-07
2.85834e-13
1.50589e-07
2.47177e-13
2.21836e-07
1.59043e-13
3.26423e-07
1.05471e-14
4.79738e-07
-2.09791e-13
7.0415e-07
-5.27241e-13
1.03209e-06
-9.75588e-13
1.5105e-06
-1.58166e-12
2.20704e-06
-2.46857e-12
3.21908e-06
-3.83141e-12
4.68613e-06
-6.01473e-12
6.80738e-06
-9.61123e-12
9.86592e-06
-1.56569e-11
1.42621e-05
-2.62969e-11
2.05587e-05
-4.24229e-11
2.95415e-05
-7.78432e-11
4.22987e-05
-1.40484e-10
6.03225e-05
-2.11201e-10
8.56346e-05
-2.95974e-10
0.000120932
-4.96671e-10
0.000169745
-1.04982e-09
0.000236573
-1.25146e-09
0.000326912
-3.05016e-09
0.000447211
-4.79897e-09
0.000604109
-9.03386e-09
0.000803123
-1.7556e-08
0.00104561
-3.0985e-08
0.00132358
-3.60704e-08
0.00160827
-1.21734e-08
0.00184054
3.09396e-08
0.00184909
3.66646e-08
0.00181728
5.85827e-08
0.00162185
1.38117e-07
0.00134764
2.01492e-08
0.00106887
-1.04293e-07
0.000822392
-6.8231e-08
0.000618647
-1.14862e-08
0.000457798
3.92744e-09
0.00033438
6.87359e-09
0.000241702
5.66911e-09
0.000173221
3.28852e-09
0.000123265
2.10305e-09
8.71897e-05
1.31811e-09
6.13547e-05
8.46515e-10
4.29811e-05
4.81251e-10
2.99918e-05
3.04575e-10
2.08553e-05
1.90917e-10
1.44573e-05
1.24383e-10
9.99431e-06
7.75485e-11
6.89178e-06
4.90035e-11
4.74159e-06
3.11579e-11
3.25551e-06
1.95723e-11
2.23097e-06
1.23121e-11
1.52621e-06
7.75019e-12
1.04242e-06
4.92993e-12
7.10928e-07
3.21921e-12
4.84189e-07
2.17497e-12
3.29346e-07
1.54228e-12
2.23755e-07
1.14929e-12
1.5185e-07
8.89665e-13
1.02945e-07
6.99177e-13
6.97222e-08
5.43812e-13
4.71782e-08
4.07454e-13
3.18959e-08
2.8468e-13
2.15463e-08
1.75377e-13
1.45436e-08
8.10966e-14
9.80943e-09
3.62384e-15
6.61152e-09
-5.65433e-14
4.45296e-09
-9.97882e-14
2.99697e-09
-1.27686e-13
2.01552e-09
-1.42534e-13
1.3543e-09
-1.46969e-13
9.08966e-10
-1.43668e-13
6.09019e-10
-1.3513e-13
4.06797e-10
-1.23526e-13
2.7006e-10
-1.10644e-13
1.76933e-10
-9.78783e-14
1.12463e-10
-8.62314e-14
6.62616e-11
-7.6418e-14
3.08562e-11
-6.88616e-14
-6.38326e-14
3.07243e-11
-6.04378e-15
6.5982e-11
-4.74273e-15
1.11934e-10
-3.19536e-15
1.76038e-10
-1.02696e-15
2.68627e-10
2.16493e-15
4.04559e-10
6.99441e-15
6.05569e-10
1.4197e-14
9.03679e-10
2.46678e-14
1.34622e-09
3.89203e-14
2.0032e-09
5.80369e-14
2.97819e-09
8.27567e-14
4.42434e-09
1.13378e-13
6.56792e-09
1.49825e-13
9.74303e-09
1.91139e-13
1.44425e-08
2.35426e-13
2.13923e-08
2.79835e-13
3.16614e-08
3.20671e-13
4.68211e-08
3.54071e-13
6.91785e-08
3.77334e-13
1.02117e-07
3.91503e-13
1.50589e-07
4.05214e-13
2.21835e-07
4.40981e-13
3.26422e-07
5.46417e-13
4.79737e-07
8.26495e-13
7.04148e-07
1.38953e-12
1.03209e-06
2.5057e-12
1.51049e-06
4.59292e-12
2.20704e-06
8.31954e-12
3.21907e-06
1.47854e-11
4.68612e-06
2.58823e-11
6.80736e-06
4.49018e-11
9.86588e-06
7.69343e-11
1.4262e-05
1.31037e-10
2.05586e-05
2.21027e-10
2.95413e-05
3.80773e-10
4.22985e-05
6.45602e-10
6.03222e-05
1.08395e-09
8.56338e-05
1.81184e-09
0.00012093
3.17052e-09
0.000169745
5.35459e-09
0.000236566
9.02472e-09
0.000326905
1.52044e-08
0.000447194
3.06746e-08
0.000604076
5.0318e-08
0.000803072
5.61396e-08
0.00104559
6.23865e-08
0.00132367
9.50682e-08
0.00160843
4.13094e-07
0.00184055
1.02837e-06
0.00184919
9.83233e-07
0.00181771
-3.03563e-07
0.00162148
-5.43195e-07
0.00134709
-5.06861e-08
0.00106893
5.08904e-08
0.000822592
5.9241e-08
0.000618706
-3.64064e-09
0.000457809
2.82532e-09
0.000334376
4.54676e-09
0.000241693
2.47015e-09
0.000173217
7.41252e-10
0.000123262
2.75475e-10
8.71879e-05
1.0633e-10
6.13532e-05
1.88938e-10
4.29804e-05
1.21309e-10
2.99913e-05
8.5344e-11
2.08551e-05
6.24408e-11
1.44571e-05
4.03653e-11
9.9942e-06
2.93323e-11
6.89171e-06
2.10237e-11
4.74155e-06
1.42207e-11
3.25549e-06
9.53461e-12
2.23095e-06
6.27507e-12
1.5262e-06
4.1984e-12
1.04241e-06
2.85725e-12
7.10924e-07
1.98151e-12
4.84187e-07
1.43976e-12
3.29344e-07
1.09256e-12
2.23754e-07
8.55375e-13
1.51849e-07
6.75793e-13
1.02944e-07
5.24358e-13
6.97217e-08
3.86607e-13
4.71777e-08
2.58503e-13
3.18955e-08
1.41111e-13
2.15459e-08
3.73798e-14
1.45433e-08
-4.96998e-14
9.8092e-09
-1.18273e-13
6.61135e-09
-1.68037e-13
4.45285e-09
-2.00036e-13
2.99692e-09
-2.16395e-13
2.0155e-09
-2.19883e-13
1.35431e-09
-2.13525e-13
9.08999e-10
-2.00277e-13
6.09064e-10
-1.82823e-13
4.06847e-10
-1.63409e-13
2.7011e-10
-1.43852e-13
1.76978e-10
-1.25502e-13
1.12501e-10
-1.09326e-13
6.62908e-11
-9.59788e-14
3.08756e-11
-8.58445e-14
-7.91242e-14
3.07293e-11
2.15696e-14
6.5988e-11
2.56947e-14
1.11942e-10
3.11556e-14
1.7605e-10
3.84345e-14
2.68645e-10
4.80345e-14
4.04587e-10
6.05349e-14
6.05608e-10
7.64735e-14
9.03734e-10
9.64055e-14
1.34629e-09
1.20723e-13
2.00329e-09
1.49662e-13
2.97831e-09
1.83163e-13
4.42448e-09
2.20695e-13
6.56808e-09
2.61208e-13
9.7432e-09
3.0315e-13
1.44426e-08
3.44391e-13
2.13925e-08
3.82833e-13
3.16615e-08
4.16996e-13
4.68211e-08
4.47642e-13
6.91785e-08
4.80366e-13
1.02117e-07
5.29608e-13
1.50589e-07
6.2508e-13
2.21836e-07
8.21142e-13
3.26423e-07
1.20474e-12
4.79739e-07
1.93054e-12
7.04153e-07
3.27718e-12
1.0321e-06
5.65539e-12
1.51051e-06
9.76261e-12
2.20706e-06
1.67782e-11
3.21912e-06
2.86256e-11
4.68619e-06
4.86804e-11
6.80748e-06
8.24852e-11
9.86608e-06
1.3921e-10
1.42624e-05
2.35918e-10
2.05592e-05
3.98657e-10
2.95423e-05
6.70952e-10
4.23002e-05
1.14071e-09
6.0325e-05
1.92281e-09
8.56391e-05
3.24487e-09
0.000120939
5.48771e-09
0.000169759
9.73268e-09
0.00023659
1.60358e-08
0.000326965
2.86607e-08
0.000447273
4.92966e-08
0.000604101
8.51069e-08
0.000803091
1.52116e-07
0.00104565
2.89862e-07
0.00132473
6.40861e-07
0.00161089
1.27176e-06
0.00184033
2.46525e-06
0.00184431
7.25994e-06
0.00181656
-4.62399e-06
0.00162339
-1.32407e-06
0.00134766
-5.66415e-07
0.00106905
-2.91017e-07
0.000822371
-1.7953e-07
0.00061873
-1.08633e-07
0.000457818
-5.4402e-08
0.000334369
-2.34464e-08
0.000241686
-1.23142e-08
0.000173215
-6.09182e-09
0.000123262
-2.5052e-09
8.71882e-05
-1.16141e-09
6.1353e-05
-6.12325e-10
4.29802e-05
-2.78077e-10
2.99912e-05
-1.27597e-10
2.0855e-05
-5.68024e-11
1.44571e-05
-2.34847e-11
9.99417e-06
-9.88306e-12
6.89168e-06
-3.17278e-12
4.74153e-06
-2.70388e-13
3.25547e-06
1.00461e-12
2.23095e-06
1.32391e-12
1.5262e-06
1.27776e-12
1.04241e-06
1.12454e-12
7.10922e-07
9.63682e-13
4.84186e-07
8.22878e-13
3.29343e-07
6.9751e-13
2.23754e-07
5.81386e-13
1.51848e-07
4.65274e-13
1.02944e-07
3.46678e-13
6.97212e-08
2.27414e-13
4.71772e-08
1.11881e-13
3.18951e-08
5.40193e-15
2.15456e-08
-8.71872e-14
1.4543e-08
-1.62467e-13
9.809e-09
-2.18785e-13
6.61122e-09
-2.56226e-13
4.45278e-09
-2.76286e-13
2.9969e-09
-2.81462e-13
2.01553e-09
-2.74765e-13
1.35436e-09
-2.59357e-13
9.09067e-10
-2.38237e-13
6.09139e-10
-2.14048e-13
4.06922e-10
-1.88981e-13
2.7018e-10
-1.64743e-13
1.7704e-10
-1.42587e-13
1.12553e-10
-1.23386e-13
6.633e-11
-1.077e-13
3.09015e-11
-9.58573e-14
-8.79574e-14
3.07452e-11
4.58938e-14
6.60091e-11
5.39152e-14
1.11971e-10
6.3647e-14
1.76087e-10
7.55576e-14
2.68693e-10
9.05144e-14
4.04648e-10
1.09128e-13
6.05686e-10
1.3178e-13
9.03828e-10
1.58547e-13
1.3464e-09
1.8912e-13
2.00342e-09
2.22756e-13
2.97845e-09
2.58245e-13
4.42463e-09
2.93689e-13
6.56824e-09
3.26614e-13
9.74336e-09
3.53904e-13
1.44428e-08
3.72376e-13
2.13926e-08
3.79093e-13
3.16617e-08
3.72768e-13
4.68213e-08
3.55327e-13
6.91787e-08
3.34663e-13
1.02117e-07
3.28702e-13
1.5059e-07
3.7248e-13
2.21837e-07
5.3783e-13
3.26426e-07
8.91436e-13
4.79744e-07
1.62502e-12
7.04162e-07
2.99691e-12
1.03212e-06
5.43766e-12
1.51053e-06
9.67187e-12
2.20711e-06
1.68887e-11
3.21919e-06
2.91527e-11
4.68632e-06
4.98255e-11
6.8077e-06
8.46126e-11
9.86646e-06
1.43573e-10
1.4263e-05
2.44017e-10
2.05602e-05
4.15053e-10
2.95441e-05
7.04582e-10
4.23032e-05
1.19116e-09
6.03301e-05
2.01044e-09
8.56478e-05
3.37641e-09
0.000120955
5.53711e-09
0.000169783
9.35074e-09
0.000236638
1.60793e-08
0.000327044
2.66153e-08
0.000447411
4.37217e-08
0.00060436
5.8897e-08
0.000803612
9.15461e-08
0.001047
1.79413e-07
0.00132727
2.51008e-07
0.00161469
-2.35902e-07
0.00186399
-1.50474e-06
0.00180048
-5.95419e-06
0.00182407
4.56124e-06
0.00162674
1.15486e-06
0.00134878
-7.96574e-08
0.00106946
-3.87993e-08
0.000822624
1.30848e-09
0.000618931
9.44982e-09
0.000457937
7.9338e-10
0.000334412
-4.54559e-09
0.00024171
-4.06891e-09
0.000173229
-2.47109e-09
0.000123267
-1.95782e-09
8.71904e-05
-1.13991e-09
6.13543e-05
-6.34541e-10
4.29808e-05
-3.65949e-10
2.99915e-05
-2.08575e-10
2.08551e-05
-1.08129e-10
1.44572e-05
-5.62312e-11
9.99419e-06
-2.91309e-11
6.89169e-06
-1.48276e-11
4.74153e-06
-7.66306e-12
3.25547e-06
-3.74822e-12
2.23095e-06
-1.67397e-12
1.5262e-06
-6.08834e-13
1.04241e-06
-6.84262e-14
7.10921e-07
2.04977e-13
4.84185e-07
3.18624e-13
3.29343e-07
3.42455e-13
2.23753e-07
3.12961e-13
1.51848e-07
2.50704e-13
1.02943e-07
1.66818e-13
6.97208e-08
7.25722e-14
4.71768e-08
-2.20865e-14
3.18947e-08
-1.09723e-13
2.15453e-08
-1.84738e-13
1.45428e-08
-2.43626e-13
9.80886e-09
-2.85006e-13
6.61115e-09
-3.09161e-13
4.45276e-09
-3.17784e-13
2.99693e-09
-3.13374e-13
2.01559e-09
-2.98882e-13
1.35444e-09
-2.77296e-13
9.0916e-10
-2.51394e-13
6.09236e-10
-2.23569e-13
4.07016e-10
-1.95797e-13
2.70266e-10
-1.69555e-13
1.77115e-10
-1.45951e-13
1.12613e-10
-1.25681e-13
6.63758e-11
-1.0919e-13
3.0932e-11
-9.66883e-14
-8.82679e-14
3.0776e-11
5.56777e-14
6.60468e-11
7.65464e-14
1.12017e-10
8.8856e-14
1.76145e-10
1.02234e-13
2.68766e-10
1.1913e-13
4.04736e-10
1.40121e-13
6.05789e-10
1.65135e-13
9.03947e-10
1.93619e-13
1.34653e-09
2.24595e-13
2.00356e-09
2.56559e-13
2.97859e-09
2.87347e-13
4.42476e-09
3.1437e-13
6.56835e-09
3.3451e-13
9.74343e-09
3.44641e-13
1.44428e-08
3.41976e-13
2.13926e-08
3.25115e-13
3.16616e-08
2.95063e-13
4.68212e-08
2.56878e-13
6.91787e-08
2.21531e-13
1.02117e-07
2.07952e-13
1.5059e-07
2.56368e-13
2.21839e-07
3.98421e-13
3.26428e-07
7.12819e-13
4.7975e-07
1.30718e-12
7.04171e-07
2.34915e-12
1.03213e-06
4.0523e-12
1.51056e-06
6.87508e-12
2.20715e-06
1.15359e-11
3.21927e-06
1.93143e-11
4.68646e-06
3.2171e-11
6.80793e-06
5.39288e-11
9.86685e-06
9.08026e-11
1.42637e-05
1.52996e-10
2.05614e-05
2.5691e-10
2.9546e-05
4.37013e-10
4.23064e-05
7.43788e-10
6.03354e-05
1.28786e-09
8.56561e-05
2.21515e-09
0.00012097
3.7696e-09
0.000169809
6.08717e-09
0.000236679
1.0659e-08
0.000327111
1.73428e-08
0.000447469
2.78661e-08
0.000604478
6.19641e-08
0.000803939
1.39459e-07
0.00104734
2.60653e-07
0.00132546
4.38948e-07
0.00161046
9.43802e-07
0.0018411
2.37283e-06
0.00183923
7.05229e-06
0.00181644
-4.76481e-06
0.00162168
-1.52948e-06
0.00134868
-3.22907e-07
0.00106964
-1.72757e-07
0.000822679
-7.65625e-08
0.000618907
-3.34949e-08
0.000457918
-1.60423e-08
0.000334414
-9.84965e-09
0.000241716
-3.02833e-09
0.000173231
-9.16552e-10
0.00012327
-3.31688e-10
8.71923e-05
-1.33969e-10
6.13553e-05
-1.32275e-10
4.29814e-05
-7.03363e-11
2.99919e-05
-5.71481e-11
2.08553e-05
-4.72012e-11
1.44573e-05
-3.21193e-11
9.99425e-06
-1.89273e-11
6.89172e-06
-1.12277e-11
4.74155e-06
-6.14341e-12
3.25548e-06
-3.12479e-12
2.23095e-06
-1.55145e-12
1.5262e-06
-6.7979e-13
1.04241e-06
-2.19814e-13
7.10922e-07
1.6943e-14
4.84185e-07
1.29011e-13
3.29343e-07
1.67158e-13
2.23753e-07
1.53174e-13
1.51848e-07
1.17828e-13
1.02943e-07
4.9483e-14
6.97204e-08
-2.31204e-14
4.71765e-08
-9.55069e-14
3.18944e-08
-1.61496e-13
2.15451e-08
-2.16577e-13
1.45426e-08
-2.58136e-13
9.80876e-09
-2.85263e-13
6.61111e-09
-2.98487e-13
4.45278e-09
-2.99373e-13
2.99698e-09
-2.90117e-13
2.01567e-09
-2.73177e-13
1.35454e-09
-2.51028e-13
9.09268e-10
-2.25929e-13
6.09343e-10
-1.99826e-13
4.07118e-10
-1.74255e-13
2.70357e-10
-1.50404e-13
1.77193e-10
-1.29074e-13
1.12677e-10
-1.10799e-13
6.64242e-11
-9.58556e-14
3.09644e-11
-8.43874e-14
-7.63885e-14
3.08602e-11
6.60964e-11
1.1207e-10
1.76213e-10
2.6885e-10
4.04837e-10
6.05905e-10
9.04073e-10
1.34666e-09
2.00369e-09
2.9787e-09
4.42484e-09
6.56839e-09
9.74342e-09
1.44427e-08
2.13924e-08
3.16614e-08
4.6821e-08
6.91786e-08
1.02117e-07
1.50591e-07
2.2184e-07
3.26431e-07
4.79754e-07
7.04178e-07
1.03214e-06
1.51058e-06
2.20718e-06
3.21932e-06
4.68654e-06
6.80807e-06
9.86709e-06
1.42641e-05
2.05621e-05
2.95472e-05
4.23085e-05
6.0339e-05
8.56621e-05
0.000120979
0.000169827
0.000236705
0.000327151
0.000447599
0.000604778
0.000804421
0.00104803
0.00132738
0.00161518
0.00186451
0.00179558
0.00182346
0.00162672
0.00134948
0.00107001
0.000822847
0.000618974
0.000457941
0.00033444
0.000241725
0.000173233
0.000123271
8.71923e-05
6.13556e-05
4.29815e-05
2.99919e-05
2.08554e-05
1.44573e-05
9.99428e-06
6.89174e-06
4.74156e-06
3.25549e-06
2.23095e-06
1.5262e-06
1.04241e-06
7.10922e-07
4.84185e-07
3.29343e-07
2.23753e-07
1.51847e-07
1.02942e-07
6.97201e-08
4.71762e-08
3.18942e-08
2.15449e-08
1.45425e-08
9.80872e-09
6.61111e-09
4.45282e-09
2.99705e-09
2.01576e-09
1.35464e-09
9.09372e-10
6.09445e-10
4.07212e-10
2.70442e-10
1.77266e-10
1.12736e-10
6.64696e-11
3.09959e-11
)
;

boundaryField
{
    sides1
    {
        type            calculated;
        value           nonuniform List<scalar> 
20
(
6.27389e-13
6.15326e-13
6.14612e-13
6.15238e-13
6.17015e-13
6.19752e-13
6.23239e-13
6.27294e-13
6.31742e-13
6.36525e-13
-6.29777e-13
-6.27957e-13
-6.25117e-13
-6.2254e-13
-6.20647e-13
-6.19672e-13
-6.19803e-13
-6.21317e-13
-6.25074e-13
-6.37814e-13
)
;
    }
    sides2
    {
        type            calculated;
        value           uniform 0;
    }
    empty
    {
        type            empty;
        value           nonuniform 0();
    }
}


// ************************************************************************* //
