/*--------------------------------*- C++ -*----------------------------------*\
| =========                 |                                                 |
| \\      /  F ield         | OpenFOAM: The Open Source CFD Toolbox           |
|  \\    /   O peration     | Version:  3.0.1                                 |
|   \\  /    A nd           | Web:      www.OpenFOAM.org                      |
|    \\/     M anipulation  |                                                 |
\*---------------------------------------------------------------------------*/
FoamFile
{
    version     2.0;
    format      ascii;
    class       volVectorField;
    location    "5e-05";
    object      U;
}
// * * * * * * * * * * * * * * * * * * * * * * * * * * * * * * * * * * * * * //

dimensions      [0 1 -1 0 0 0 0];

internalField   nonuniform List<vector> 
1000
(
(1.54306e-07 -9.43037e-10 0)
(4.85573e-07 -9.66393e-10 0)
(8.93136e-07 -1.03814e-09 0)
(1.44528e-06 -1.16528e-09 0)
(2.23108e-06 -1.3392e-09 0)
(3.37674e-06 -1.5521e-09 0)
(5.06564e-06 -1.79506e-09 0)
(7.56716e-06 -2.0581e-09 0)
(1.12789e-05 -2.32829e-09 0)
(1.67891e-05 -2.58906e-09 0)
(2.49675e-05 -2.82006e-09 0)
(3.71009e-05 -2.99909e-09 0)
(5.50911e-05 -3.10259e-09 0)
(8.17467e-05 -3.10974e-09 0)
(0.000121212 -3.00654e-09 0)
(0.000179597 -2.79364e-09 0)
(0.000265899 -2.49294e-09 0)
(0.000393349 -2.16181e-09 0)
(0.000581387 -1.90549e-09 0)
(0.000858534 -1.8987e-09 0)
(0.00126657 -2.40565e-09 0)
(0.00186661 -3.83375e-09 0)
(0.00274791 -6.87671e-09 0)
(0.00404053 -1.25404e-08 0)
(0.00593374 -2.24681e-08 0)
(0.00870221 -3.93628e-08 0)
(0.0127437 -6.77909e-08 0)
(0.0186328 -1.15418e-07 0)
(0.0271966 -1.94942e-07 0)
(0.0396226 -3.27457e-07 0)
(0.0576089 -5.52261e-07 0)
(0.0835735 -9.34404e-07 0)
(0.120944 -1.57433e-06 0)
(0.17455 -2.65759e-06 0)
(0.251161 -4.50144e-06 0)
(0.360185 -7.73009e-06 0)
(0.514588 -1.33799e-05 0)
(0.732053 -2.30665e-05 0)
(1.03637 -4.12154e-05 0)
(1.45904 -6.91232e-05 0)
(2.04091 -0.000117091 0)
(2.83324 -0.000218817 0)
(3.89788 -0.000386907 0)
(5.30412 -0.000697568 0)
(7.12147 -0.0011553 0)
(9.39533 -0.00248298 0)
(12.1016 -0.0043568 0)
(15.0665 -0.00959404 0)
(17.6854 -0.0244375 0)
(18.4947 -0.0729978 0)
(21.2141 0.0508946 0)
(20.0416 0.0133447 0)
(16.994 0.00552038 0)
(13.895 0.00485758 0)
(10.9349 0.00207536 0)
(8.3645 0.000927664 0)
(6.26737 0.000429999 0)
(4.62188 0.000224189 0)
(3.36601 8.4898e-05 0)
(2.42683 3.16997e-05 0)
(1.73535 2.11572e-05 0)
(1.23241 1.04719e-05 0)
(0.870145 7.16536e-06 0)
(0.611313 4.09342e-06 0)
(0.427619 2.6485e-06 0)
(0.297993 1.79588e-06 0)
(0.206966 1.11453e-06 0)
(0.143317 7.14415e-07 0)
(0.0989764 4.46172e-07 0)
(0.0681896 2.81313e-07 0)
(0.0468762 1.76642e-07 0)
(0.0321602 1.11322e-07 0)
(0.0220237 6.96252e-08 0)
(0.0150568 4.25475e-08 0)
(0.0102778 2.51222e-08 0)
(0.0070056 1.41559e-08 0)
(0.00476883 7.53511e-09 0)
(0.0032422 3.93e-09 0)
(0.00220175 2.30655e-09 0)
(0.00149357 1.96703e-09 0)
(0.00101216 2.26865e-09 0)
(0.000685261 2.84809e-09 0)
(0.00046353 3.4524e-09 0)
(0.00031328 3.93183e-09 0)
(0.000211564 4.21694e-09 0)
(0.000142764 4.29505e-09 0)
(9.62667e-05 4.1883e-09 0)
(6.48669e-05 3.93696e-09 0)
(4.36778e-05 3.5871e-09 0)
(2.93887e-05 3.18253e-09 0)
(1.97584e-05 2.76059e-09 0)
(1.32709e-05 2.34928e-09 0)
(8.90122e-06 1.96908e-09 0)
(5.9568e-06 1.63121e-09 0)
(3.96926e-06 1.34167e-09 0)
(2.62139e-06 1.09937e-09 0)
(1.6973e-06 8.97405e-10 0)
(1.04845e-06 7.20792e-10 0)
(5.70163e-07 5.39356e-10 0)
(1.81357e-07 2.87625e-10 0)
(1.54259e-07 -1.7323e-09 0)
(4.85387e-07 -1.80484e-09 0)
(8.92745e-07 -1.95402e-09 0)
(1.44469e-06 -2.19473e-09 0)
(2.23032e-06 -2.51652e-09 0)
(3.37585e-06 -2.90618e-09 0)
(5.06465e-06 -3.3473e-09 0)
(7.56611e-06 -3.81966e-09 0)
(1.12779e-05 -4.2972e-09 0)
(1.67881e-05 -4.74694e-09 0)
(2.49667e-05 -5.12938e-09 0)
(3.71004e-05 -5.40219e-09 0)
(5.50909e-05 -5.52371e-09 0)
(8.17469e-05 -5.46007e-09 0)
(0.000121213 -5.19696e-09 0)
(0.000179598 -4.75401e-09 0)
(0.0002659 -4.20641e-09 0)
(0.00039335 -3.70989e-09 0)
(0.000581388 -3.53984e-09 0)
(0.000858533 -4.14255e-09 0)
(0.00126657 -6.22327e-09 0)
(0.0018666 -1.08441e-08 0)
(0.00274789 -1.97221e-08 0)
(0.0040405 -3.55386e-08 0)
(0.00593368 -6.26347e-08 0)
(0.00870212 -1.08204e-07 0)
(0.0127436 -1.84332e-07 0)
(0.0186325 -3.10968e-07 0)
(0.0271962 -5.21747e-07 0)
(0.0396219 -8.73791e-07 0)
(0.0576077 -1.46485e-06 0)
(0.0835714 -2.45884e-06 0)
(0.12094 -4.13233e-06 0)
(0.174544 -6.91415e-06 0)
(0.251151 -1.15986e-05 0)
(0.360167 -1.96079e-05 0)
(0.514558 -3.32135e-05 0)
(0.731999 -5.60961e-05 0)
(1.03628 -9.42902e-05 0)
(1.45889 -0.000156516 0)
(2.04061 -0.000262973 0)
(2.83271 -0.000450033 0)
(3.89694 -0.000737782 0)
(5.30262 -0.00118589 0)
(7.11797 -0.0020166 0)
(9.38906 -0.00404118 0)
(12.0878 -0.00658723 0)
(15.0274 -0.00720459 0)
(17.5699 -0.00958432 0)
(18.6528 -0.0124398 0)
(21.3744 0.000564063 0)
(19.9487 0.000234991 0)
(16.9747 0.00643642 0)
(13.8882 0.0054755 0)
(10.9271 0.00217262 0)
(8.36125 0.000874791 0)
(6.26599 0.000445294 0)
(4.6212 0.000287193 0)
(3.36563 0.000142784 0)
(2.42671 7.22003e-05 0)
(1.73531 5.54307e-05 0)
(1.23238 3.29813e-05 0)
(0.870132 2.12892e-05 0)
(0.611304 1.30909e-05 0)
(0.427614 8.30667e-06 0)
(0.29799 5.21485e-06 0)
(0.206964 3.18889e-06 0)
(0.143315 1.97546e-06 0)
(0.0989756 1.22257e-06 0)
(0.068189 7.57226e-07 0)
(0.0468759 4.6623e-07 0)
(0.03216 2.85802e-07 0)
(0.0220236 1.73311e-07 0)
(0.0150567 1.03126e-07 0)
(0.0102777 5.97945e-08 0)
(0.00700556 3.38564e-08 0)
(0.00476881 1.90361e-08 0)
(0.00324219 1.12533e-08 0)
(0.00220174 7.74932e-09 0)
(0.00149357 6.6905e-09 0)
(0.00101216 6.81193e-09 0)
(0.000685264 7.35594e-09 0)
(0.000463532 7.87792e-09 0)
(0.000313282 8.15578e-09 0)
(0.000211565 8.11681e-09 0)
(0.000142764 7.77826e-09 0)
(9.6266e-05 7.20382e-09 0)
(6.48657e-05 6.47351e-09 0)
(4.36763e-05 5.6657e-09 0)
(2.93871e-05 4.84559e-09 0)
(1.97568e-05 4.0612e-09 0)
(1.32693e-05 3.34668e-09 0)
(8.8998e-06 2.72021e-09 0)
(5.95556e-06 2.18811e-09 0)
(3.96822e-06 1.74756e-09 0)
(2.62052e-06 1.389e-09 0)
(1.69656e-06 1.09617e-09 0)
(1.04775e-06 8.46316e-10 0)
(5.6931e-07 6.06877e-10 0)
(1.80862e-07 3.27788e-10 0)
(1.54162e-07 -1.4848e-09 0)
(4.85137e-07 -1.58034e-09 0)
(8.9237e-07 -1.72558e-09 0)
(1.44417e-06 -1.9349e-09 0)
(2.22968e-06 -2.20451e-09 0)
(3.37511e-06 -2.52374e-09 0)
(5.06385e-06 -2.87706e-09 0)
(7.56529e-06 -3.24337e-09 0)
(1.12771e-05 -3.59582e-09 0)
(1.67874e-05 -3.90024e-09 0)
(2.49662e-05 -4.11956e-09 0)
(3.71002e-05 -4.21466e-09 0)
(5.5091e-05 -4.15043e-09 0)
(8.17474e-05 -3.90513e-09 0)
(0.000121214 -3.48306e-09 0)
(0.000179599 -2.93173e-09 0)
(0.000265901 -2.36434e-09 0)
(0.00039335 -1.99198e-09 0)
(0.000581386 -2.16546e-09 0)
(0.000858529 -3.43905e-09 0)
(0.00126656 -6.67863e-09 0)
(0.00186659 -1.32071e-08 0)
(0.00274786 -2.50702e-08 0)
(0.00404045 -4.55785e-08 0)
(0.00593359 -8.00992e-08 0)
(0.00870197 -1.37556e-07 0)
(0.0127433 -2.3291e-07 0)
(0.0186321 -3.91071e-07 0)
(0.0271955 -6.54182e-07 0)
(0.0396208 -1.09435e-06 0)
(0.0576058 -1.8312e-06 0)
(0.0835682 -3.05841e-06 0)
(0.120935 -5.12512e-06 0)
(0.174536 -8.57473e-06 0)
(0.251136 -1.42795e-05 0)
(0.360142 -2.38127e-05 0)
(0.514517 -3.95668e-05 0)
(0.731933 -6.53461e-05 0)
(1.03618 -0.000106951 0)
(1.45871 -0.000179191 0)
(2.04033 -0.000299615 0)
(2.83231 -0.000504059 0)
(3.89643 -0.00085401 0)
(5.30161 -0.00134094 0)
(7.11587 -0.00223007 0)
(9.38639 -0.00346936 0)
(12.0955 -0.00674119 0)
(15.0608 -0.0095191 0)
(17.6767 -0.0128137 0)
(18.516 -0.0143203 0)
(21.2375 0.00124186 0)
(20.052 0.00439026 0)
(17.0042 0.00574029 0)
(13.8866 0.00238267 0)
(10.9258 0.00121805 0)
(8.36109 0.000697225 0)
(6.26622 0.000392512 0)
(4.62129 0.000196242 0)
(3.36559 0.000176651 0)
(2.42666 0.000126907 0)
(1.73527 8.50336e-05 0)
(1.23234 5.2962e-05 0)
(0.870106 3.17672e-05 0)
(0.611288 1.98003e-05 0)
(0.427603 1.21632e-05 0)
(0.297983 7.36278e-06 0)
(0.20696 4.48252e-06 0)
(0.143313 2.73088e-06 0)
(0.098974 1.67799e-06 0)
(0.0681881 1.03346e-06 0)
(0.0468753 6.32116e-07 0)
(0.0321596 3.83977e-07 0)
(0.0220234 2.31449e-07 0)
(0.0150566 1.38053e-07 0)
(0.0102777 8.19479e-08 0)
(0.00700552 4.91057e-08 0)
(0.00476878 3.05781e-08 0)
(0.00324218 2.05905e-08 0)
(0.00220174 1.54736e-08 0)
(0.00149357 1.28822e-08 0)
(0.00101216 1.14851e-08 0)
(0.000685263 1.05036e-08 0)
(0.000463531 9.56433e-09 0)
(0.000313281 8.53235e-09 0)
(0.000211563 7.40238e-09 0)
(0.000142762 6.22678e-09 0)
(9.62641e-05 5.07205e-09 0)
(6.48638e-05 3.99923e-09 0)
(4.36746e-05 3.04958e-09 0)
(2.93856e-05 2.24513e-09 0)
(1.97555e-05 1.59135e-09 0)
(1.32682e-05 1.07935e-09 0)
(8.89894e-06 6.92153e-10 0)
(5.95488e-06 4.09095e-10 0)
(3.96769e-06 2.07855e-10 0)
(2.62011e-06 6.65819e-11 0)
(1.69623e-06 -3.40165e-11 0)
(1.04749e-06 -1.09689e-10 0)
(5.69142e-07 -1.66626e-10 0)
(1.80808e-07 -1.92191e-10 0)
(1.54072e-07 -1.23016e-09 0)
(4.84913e-07 -1.3073e-09 0)
(8.92047e-07 -1.42189e-09 0)
(1.44375e-06 -1.5829e-09 0)
(2.22916e-06 -1.78565e-09 0)
(3.37452e-06 -2.01898e-09 0)
(5.06323e-06 -2.26691e-09 0)
(7.56469e-06 -2.50732e-09 0)
(1.12766e-05 -2.71299e-09 0)
(1.67871e-05 -2.85159e-09 0)
(2.49661e-05 -2.88786e-09 0)
(3.71003e-05 -2.78693e-09 0)
(5.50915e-05 -2.52046e-09 0)
(8.17482e-05 -2.07642e-09 0)
(0.000121215 -1.47116e-09 0)
(0.000179601 -7.64516e-10 0)
(0.000265902 -8.18891e-11 0)
(0.00039335 3.5945e-10 0)
(0.000581385 2.16911e-10 0)
(0.000858524 -1.02748e-09 0)
(0.00126655 -4.13525e-09 0)
(0.00186657 -1.02631e-08 0)
(0.00274782 -2.11671e-08 0)
(0.00404039 -3.96069e-08 0)
(0.0059335 -7.00741e-08 0)
(0.00870182 -1.19929e-07 0)
(0.0127431 -2.01437e-07 0)
(0.0186317 -3.35692e-07 0)
(0.0271948 -5.57943e-07 0)
(0.0396196 -9.28061e-07 0)
(0.0576038 -1.54713e-06 0)
(0.083565 -2.57665e-06 0)
(0.120929 -4.30437e-06 0)
(0.174526 -7.21589e-06 0)
(0.251121 -1.20234e-05 0)
(0.360118 -2.01007e-05 0)
(0.514476 -3.37355e-05 0)
(0.731866 -5.67217e-05 0)
(1.03606 -9.57791e-05 0)
(1.45851 -0.000162349 0)
(2.03997 -0.000271871 0)
(2.83162 -0.000461741 0)
(3.8953 -0.000839557 0)
(5.29992 -0.00142785 0)
(7.1138 -0.00220784 0)
(9.38024 -0.0036857 0)
(12.076 -0.00755131 0)
(15.0157 -0.0171237 0)
(17.5623 -0.0356877 0)
(18.6823 -0.0849038 0)
(21.4092 0.0531254 0)
(19.9565 0.0190112 0)
(16.9699 0.00710352 0)
(13.8792 0.00462515 0)
(10.9238 0.00288938 0)
(8.35962 0.00203997 0)
(6.265 0.00102116 0)
(4.62078 0.000477857 0)
(3.36549 0.000275386 0)
(2.42653 0.000170452 0)
(1.73516 9.47639e-05 0)
(1.23228 5.61811e-05 0)
(0.870067 3.28351e-05 0)
(0.611266 2.02118e-05 0)
(0.42759 1.21958e-05 0)
(0.297975 7.41206e-06 0)
(0.206955 4.52917e-06 0)
(0.14331 2.80285e-06 0)
(0.0989723 1.72472e-06 0)
(0.068187 1.06337e-06 0)
(0.0468746 6.5356e-07 0)
(0.0321592 4.00436e-07 0)
(0.0220231 2.43779e-07 0)
(0.0150564 1.48276e-07 0)
(0.0102776 9.10377e-08 0)
(0.00700546 5.73285e-08 0)
(0.00476875 3.78777e-08 0)
(0.00324216 2.68188e-08 0)
(0.00220173 2.04488e-08 0)
(0.00149357 1.65374e-08 0)
(0.00101215 1.37987e-08 0)
(0.00068526 1.15597e-08 0)
(0.000463528 9.52118e-09 0)
(0.000313278 7.59469e-09 0)
(0.00021156 5.79289e-09 0)
(0.000142759 4.16308e-09 0)
(9.62616e-05 2.75274e-09 0)
(6.48617e-05 1.58806e-09 0)
(4.36729e-05 6.74185e-10 0)
(2.93842e-05 -2.85961e-12 0)
(1.97545e-05 -4.69445e-10 0)
(1.32675e-05 -7.63217e-10 0)
(8.89848e-06 -9.22203e-10 0)
(5.95461e-06 -9.83279e-10 0)
(3.96754e-06 -9.78883e-10 0)
(2.62004e-06 -9.36629e-10 0)
(1.69621e-06 -8.78284e-10 0)
(1.04748e-06 -8.19385e-10 0)
(5.69148e-07 -7.70131e-10 0)
(1.80812e-07 -7.35304e-10 0)
(1.54011e-07 -8.50785e-10 0)
(4.8476e-07 -8.92897e-10 0)
(8.91827e-07 -9.57926e-10 0)
(1.44346e-06 -1.04821e-09 0)
(2.22882e-06 -1.15717e-09 0)
(3.37416e-06 -1.273e-09 0)
(5.06289e-06 -1.37956e-09 0)
(7.56441e-06 -1.45576e-09 0)
(1.12764e-05 -1.47612e-09 0)
(1.67871e-05 -1.4124e-09 0)
(2.49664e-05 -1.23425e-09 0)
(3.71009e-05 -9.1377e-10 0)
(5.50924e-05 -4.31778e-10 0)
(8.17494e-05 2.15305e-10 5.32971e-31)
(0.000121216 1.00566e-09 0)
(0.000179602 1.87914e-09 0)
(0.000265903 2.72613e-09 0)
(0.00039335 3.37409e-09 0)
(0.000581384 3.57502e-09 0)
(0.00085852 2.99041e-09 0)
(0.00126654 1.17133e-09 0)
(0.00186655 -2.48171e-09 0)
(0.0027478 -8.80212e-09 0)
(0.00404035 -1.90048e-08 0)
(0.00593344 -3.50636e-08 0)
(0.00870171 -6.01476e-08 0)
(0.0127429 -9.96793e-08 0)
(0.0186314 -1.63121e-07 0)
(0.0271943 -2.66423e-07 0)
(0.0396188 -4.36784e-07 0)
(0.0576025 -7.20027e-07 0)
(0.0835628 -1.19317e-06 5.32825e-31)
(0.120926 -1.99241e-06 0)
(0.17452 -3.31258e-06 0)
(0.251111 -5.60624e-06 0)
(0.3601 -9.55021e-06 0)
(0.514445 -1.60859e-05 -5.32085e-31)
(0.731811 -2.73275e-05 0)
(1.03597 -4.6807e-05 0)
(1.45836 -8.09137e-05 5.30492e-31)
(2.03974 -0.000130493 0)
(2.83119 -0.000219017 0)
(3.89454 -0.000383844 0)
(5.29893 -0.000664611 -5.24259e-31)
(7.11145 -0.00101305 0)
(9.37593 -0.00208243 0)
(12.0693 -0.00340043 0)
(15.0061 -0.00533737 0)
(17.5542 -0.00770699 0)
(18.7024 -0.0096485 0)
(21.4306 0.00219399 0)
(19.9574 0.00305544 0)
(16.9722 0.00250699 0)
(13.8782 0.00167364 0)
(10.9207 0.000988599 0)
(8.3574 0.00115817 -2.73319e-31)
(6.26314 0.000689066 2.71671e-31)
(4.61982 0.000423694 0)
(3.36498 0.000221896 0)
(2.42631 0.000121929 -2.68542e-31)
(1.73505 6.82367e-05 0)
(1.23222 4.09176e-05 0)
(0.870035 2.49464e-05 0)
(0.611247 1.49542e-05 0)
(0.427578 9.20064e-06 0)
(0.297968 5.66909e-06 0)
(0.206951 3.55564e-06 0)
(0.143307 2.22824e-06 0)
(0.0989706 1.38942e-06 0)
(0.068186 8.66302e-07 0)
(0.046874 5.37662e-07 0)
(0.0321588 3.33647e-07 2.66514e-31)
(0.0220229 2.06068e-07 0)
(0.0150563 1.28173e-07 0)
(0.0102775 8.10561e-08 0)
(0.00700541 5.30637e-08 0)
(0.00476872 3.66123e-08 0)
(0.00324215 2.68182e-08 0)
(0.00220172 2.06847e-08 0)
(0.00149356 1.64456e-08 0)
(0.00101215 1.31302e-08 0)
(0.000685255 1.02637e-08 0)
(0.000463524 7.66563e-09 0)
(0.000313274 5.30803e-09 0)
(0.000211556 3.22517e-09 0)
(0.000142756 1.46058e-09 0)
(9.62591e-05 4.3449e-11 0)
(6.48597e-05 -1.02587e-09 0)
(4.36715e-05 -1.76988e-09 0)
(2.93833e-05 -2.22904e-09 0)
(1.9754e-05 -2.45559e-09 0)
(1.32673e-05 -2.5025e-09 -2.66485e-31)
(8.8985e-06 -2.42196e-09 0)
(5.95477e-06 -2.26041e-09 -2.66485e-31)
(3.96778e-06 -2.05696e-09 0)
(2.62031e-06 -1.84244e-09 0)
(1.69646e-06 -1.63996e-09 0)
(1.0477e-06 -1.46561e-09 0)
(5.69308e-07 -1.33002e-09 0)
(1.80876e-07 -1.23932e-09 0)
(1.53989e-07 -3.76018e-10 0)
(4.84702e-07 -3.7412e-10 0)
(8.91742e-07 -3.77186e-10 0)
(1.44335e-06 -3.81054e-10 0)
(2.22871e-06 -3.77697e-10 0)
(3.37409e-06 -3.55582e-10 0)
(5.06287e-06 -2.99165e-10 0)
(7.5645e-06 -1.90417e-10 0)
(1.12767e-05 -8.53923e-12 0)
(1.67876e-05 2.67562e-10 0)
(2.49671e-05 6.5825e-10 0)
(3.71019e-05 1.17929e-09 0)
(5.50937e-05 1.83666e-09 0)
(8.17511e-05 2.62169e-09 -5.32971e-31)
(0.000121218 3.50546e-09 0)
(0.000179604 4.43208e-09 0)
(0.000265905 5.31914e-09 0)
(0.000393352 6.06249e-09 0)
(0.000581384 6.54813e-09 0)
(0.000858519 6.683e-09 0)
(0.00126654 6.44091e-09 0)
(0.00186655 5.92973e-09 0)
(0.00274779 5.49759e-09 0)
(0.00404034 5.87762e-09 0)
(0.00593342 8.46034e-09 0)
(0.00870169 1.54049e-08 0)
(0.0127429 3.01432e-08 0)
(0.0186313 5.82714e-08 0)
(0.0271943 1.08683e-07 0)
(0.0396187 1.96572e-07 0)
(0.0576024 3.48457e-07 0)
(0.0835625 6.04217e-07 -5.32825e-31)
(0.120925 1.03304e-06 0)
(0.174519 1.76138e-06 0)
(0.251109 2.98777e-06 0)
(0.360097 4.98246e-06 0)
(0.514442 8.60842e-06 5.32085e-31)
(0.731806 1.49521e-05 0)
(1.03595 2.63767e-05 0)
(1.45835 4.24734e-05 -5.30492e-31)
(2.0397 7.67209e-05 0)
(2.83113 0.000120021 0)
(3.89442 0.000255711 0)
(5.29868 0.000408444 5.24259e-31)
(7.11102 0.000382387 0)
(9.37556 0.000312031 0)
(12.0696 0.000588684 0)
(15.0074 0.00402521 0)
(17.5551 0.0107437 0)
(18.703 0.0104839 0)
(21.4329 -0.00268047 0)
(19.9565 -0.00452954 0)
(16.9666 -0.000345078 0)
(13.8762 -0.00060767 0)
(10.9228 -0.000102778 0)
(8.35903 -0.000173442 2.73319e-31)
(6.26355 7.75797e-05 -2.71671e-31)
(4.61986 0.000131379 0)
(3.3649 9.37151e-05 0)
(2.42622 4.64256e-05 2.68542e-31)
(1.735 2.74123e-05 0)
(1.23219 1.64201e-05 0)
(0.870016 1.19374e-05 0)
(0.611235 6.94678e-06 0)
(0.427572 4.4952e-06 0)
(0.297964 2.92094e-06 0)
(0.206948 1.89961e-06 0)
(0.143306 1.23287e-06 0)
(0.0989696 8.08205e-07 0)
(0.0681853 5.24097e-07 0)
(0.0468735 3.36321e-07 0)
(0.0321586 2.14889e-07 -2.66514e-31)
(0.0220227 1.38302e-07 0)
(0.0150562 9.0123e-08 0)
(0.0102774 6.01356e-08 0)
(0.00700537 4.17439e-08 0)
(0.0047687 3.04121e-08 0)
(0.00324213 2.31317e-08 0)
(0.00220171 1.80606e-08 0)
(0.00149355 1.41143e-08 0)
(0.00101214 1.0732e-08 0)
(0.000685249 7.68078e-09 0)
(0.000463518 4.91016e-09 0)
(0.000313269 2.45231e-09 0)
(0.000211552 3.61164e-10 0)
(0.000142753 -1.32315e-09 0)
(9.62567e-05 -2.59098e-09 0)
(6.48581e-05 -3.45872e-09 0)
(4.36705e-05 -3.96905e-09 0)
(2.93829e-05 -4.18032e-09 0)
(1.97539e-05 -4.15804e-09 0)
(1.32676e-05 -3.96709e-09 2.66485e-31)
(8.89896e-06 -3.66721e-09 0)
(5.95533e-06 -3.30951e-09 2.66485e-31)
(3.96836e-06 -2.93528e-09 0)
(2.62086e-06 -2.57638e-09 0)
(1.69695e-06 -2.25546e-09 0)
(1.04809e-06 -1.98832e-09 0)
(5.69593e-07 -1.78431e-09 0)
(1.8099e-07 -1.64876e-09 0)
(1.54014e-07 1.52976e-10 0)
(4.84757e-07 2.06328e-10 0)
(8.91814e-07 2.75372e-10 0)
(1.44346e-06 3.68501e-10 0)
(2.22887e-06 4.94326e-10 0)
(3.37432e-06 6.65038e-10 0)
(5.06321e-06 8.92605e-10 0)
(7.56498e-06 1.19046e-09 0)
(1.12773e-05 1.57151e-09 0)
(1.67884e-05 2.04657e-09 0)
(2.49682e-05 2.62118e-09 0)
(3.71032e-05 3.29373e-09 0)
(5.50952e-05 4.05278e-09 0)
(8.17527e-05 4.874e-09 0)
(0.00012122 5.71771e-09 0)
(0.000179606 6.53521e-09 0)
(0.000265906 7.27564e-09 0)
(0.000393353 7.90893e-09 0)
(0.000581385 8.46405e-09 0)
(0.00085852 9.09559e-09 0)
(0.00126654 1.01853e-08 0)
(0.00186655 1.25014e-08 0)
(0.0027478 1.74161e-08 0)
(0.00404036 2.73335e-08 0)
(0.00593345 4.6298e-08 0)
(0.00870175 8.093e-08 0)
(0.012743 1.42159e-07 0)
(0.0186315 2.48219e-07 0)
(0.0271946 4.28877e-07 0)
(0.0396193 7.35992e-07 0)
(0.0576033 1.25637e-06 0)
(0.0835641 2.13019e-06 0)
(0.120928 3.61711e-06 0)
(0.174524 6.10965e-06 0)
(0.251117 1.03711e-05 0)
(0.360111 1.76171e-05 0)
(0.514464 2.96553e-05 0)
(0.731846 4.98783e-05 0)
(1.03602 8.54132e-05 0)
(1.45846 0.000148864 0)
(2.03989 0.000247348 0)
(2.83155 0.000433163 0)
(3.8951 0.000790295 0)
(5.29918 0.00133982 0)
(7.11125 0.00206393 0)
(9.37633 0.00350027 0)
(12.0765 0.00734319 0)
(15.0259 0.0169155 0)
(17.5655 0.0354435 0)
(18.6742 0.0844366 0)
(21.4026 -0.0540707 0)
(19.9622 -0.0208814 0)
(16.9808 -0.00697309 0)
(13.8787 -0.00273232 0)
(10.9215 -0.00137505 0)
(8.35776 -0.00128733 0)
(6.26374 -0.000592554 0)
(4.61985 -0.00021742 0)
(3.36481 -0.000113345 0)
(2.42617 -6.16423e-05 0)
(1.73499 -2.56977e-05 0)
(1.23219 -1.21623e-05 0)
(0.870016 -4.88065e-06 0)
(0.611232 -1.80688e-06 0)
(0.42757 -4.86754e-07 0)
(0.297962 6.52984e-08 0)
(0.206947 1.94888e-07 0)
(0.143305 2.2456e-07 0)
(0.0989692 2.06185e-07 0)
(0.0681851 1.61215e-07 0)
(0.0468734 1.21844e-07 0)
(0.0321584 8.78719e-08 0)
(0.0220226 6.31729e-08 0)
(0.0150561 4.5771e-08 0)
(0.0102774 3.39727e-08 0)
(0.00700535 2.61006e-08 0)
(0.00476869 2.06476e-08 0)
(0.00324212 1.65713e-08 0)
(0.0022017 1.31605e-08 0)
(0.00149354 1.00458e-08 0)
(0.00101213 7.08125e-09 0)
(0.000685244 4.2711e-09 0)
(0.000463513 1.68879e-09 0)
(0.000313265 -5.75208e-10 0)
(0.000211549 -2.44774e-09 0)
(0.00014275 -3.88804e-09 0)
(9.62549e-05 -4.89369e-09 0)
(6.4857e-05 -5.49403e-09 0)
(4.36701e-05 -5.74231e-09 0)
(2.93829e-05 -5.70526e-09 0)
(1.97544e-05 -5.45417e-09 0)
(1.32683e-05 -5.05771e-09 0)
(8.8998e-06 -4.5773e-09 0)
(5.95621e-06 -4.06432e-09 0)
(3.96922e-06 -3.55923e-09 0)
(2.62164e-06 -3.09192e-09 0)
(1.69762e-06 -2.68398e-09 0)
(1.04863e-06 -2.3491e-09 0)
(5.69976e-07 -2.09571e-09 0)
(1.81143e-07 -1.92699e-09 0)
(1.54095e-07 6.65257e-10 0)
(4.84943e-07 7.84806e-10 0)
(8.92061e-07 9.34571e-10 0)
(1.44378e-06 1.12375e-09 0)
(2.2293e-06 1.36598e-09 0)
(3.37487e-06 1.67281e-09 0)
(5.06391e-06 2.05321e-09 0)
(7.56584e-06 2.51382e-09 0)
(1.12784e-05 3.05507e-09 0)
(1.67896e-05 3.67216e-09 0)
(2.49695e-05 4.35253e-09 0)
(3.71047e-05 5.0723e-09 0)
(5.50968e-05 5.79646e-09 0)
(8.17543e-05 6.47923e-09 0)
(0.000121221 7.06822e-09 0)
(0.000179607 7.51401e-09 0)
(0.000265907 7.78953e-09 0)
(0.000393354 7.92141e-09 0)
(0.000581386 8.0433e-09 0)
(0.000858523 8.47573e-09 0)
(0.00126654 9.85121e-09 0)
(0.00186656 1.3282e-08 0)
(0.00274782 2.07206e-08 0)
(0.0040404 3.53181e-08 0)
(0.00593353 6.21739e-08 0)
(0.00870188 1.09733e-07 0)
(0.0127432 1.91999e-07 0)
(0.0186319 3.32273e-07 0)
(0.0271952 5.69742e-07 0)
(0.0396204 9.71359e-07 0)
(0.0576051 1.64799e-06 0)
(0.0835671 2.78853e-06 0)
(0.120933 4.73271e-06 0)
(0.174533 8.0243e-06 0)
(0.251131 1.35654e-05 0)
(0.360135 2.29971e-05 0)
(0.514505 3.87912e-05 0)
(0.731915 6.53075e-05 0)
(1.03615 0.000108757 0)
(1.45867 0.000188293 0)
(2.04026 0.000316978 0)
(2.83219 0.000545847 0)
(3.8962 0.000919232 0)
(5.30118 0.00142469 0)
(7.11525 0.00241484 0)
(9.3859 0.00466319 0)
(12.0958 0.00889903 0)
(15.0621 0.0103999 0)
(17.6772 0.00974377 0)
(18.5152 0.0133687 0)
(21.2371 -0.000688607 0)
(20.0533 -0.00189438 0)
(17.0063 -0.00730053 0)
(13.8873 -0.0037529 0)
(10.9256 -0.00203731 0)
(8.36057 -0.00113723 0)
(6.26566 -0.000615898 0)
(4.6208 -0.000322015 0)
(3.36521 -0.000188632 0)
(2.4264 -9.86489e-05 0)
(1.7351 -5.14366e-05 0)
(1.23223 -2.65303e-05 0)
(0.870036 -1.43774e-05 0)
(0.611243 -7.4274e-06 0)
(0.427575 -3.87728e-06 0)
(0.297965 -1.90221e-06 0)
(0.206949 -9.19139e-07 0)
(0.143306 -4.49484e-07 0)
(0.0989695 -2.07032e-07 0)
(0.0681851 -9.09559e-08 0)
(0.0468734 -3.12116e-08 0)
(0.0321584 -3.75454e-09 0)
(0.0220226 7.88869e-09 0)
(0.0150561 1.2228e-08 0)
(0.0102774 1.34949e-08 0)
(0.00700535 1.31716e-08 0)
(0.00476868 1.19967e-08 0)
(0.00324212 1.03157e-08 0)
(0.0022017 8.25761e-09 0)
(0.00149354 5.91948e-09 0)
(0.00101213 3.45897e-09 0)
(0.000685238 1.03479e-09 0)
(0.000463509 -1.20381e-09 0)
(0.000313261 -3.13674e-09 0)
(0.000211546 -4.68408e-09 0)
(0.000142748 -5.81081e-09 0)
(9.62535e-05 -6.52106e-09 0)
(6.48565e-05 -6.85184e-09 0)
(4.36701e-05 -6.86067e-09 0)
(2.93834e-05 -6.6162e-09 0)
(1.97552e-05 -6.18943e-09 0)
(1.32693e-05 -5.64713e-09 0)
(8.90091e-06 -5.04725e-09 0)
(5.95733e-06 -4.43781e-09 0)
(3.97028e-06 -3.85561e-09 0)
(2.62258e-06 -3.32777e-09 0)
(1.69841e-06 -2.87258e-09 0)
(1.04925e-06 -2.50148e-09 0)
(5.70424e-07 -2.22064e-09 0)
(1.81322e-07 -2.0325e-09 0)
(1.54249e-07 1.01558e-09 0)
(4.85287e-07 1.31139e-09 0)
(8.92481e-07 1.53312e-09 0)
(1.44431e-06 1.78747e-09 0)
(2.22995e-06 2.10882e-09 0)
(3.37567e-06 2.50885e-09 0)
(5.06487e-06 2.99099e-09 0)
(7.56695e-06 3.55006e-09 0)
(1.12796e-05 4.17306e-09 0)
(1.6791e-05 4.83707e-09 0)
(2.49709e-05 5.50788e-09 0)
(3.7106e-05 6.13941e-09 0)
(5.5098e-05 6.67461e-09 0)
(8.17552e-05 7.04917e-09 0)
(0.000121222 7.20229e-09 0)
(0.000179607 7.08895e-09 0)
(0.000265907 6.70483e-09 0)
(0.000393353 6.12022e-09 0)
(0.000581386 5.5251e-09 0)
(0.000858524 5.29556e-09 0)
(0.00126655 6.07949e-09 0)
(0.00186657 8.95225e-09 0)
(0.00274784 1.56166e-08 0)
(0.00404044 2.87047e-08 0)
(0.0059336 5.24316e-08 0)
(0.00870201 9.36469e-08 0)
(0.0127434 1.63545e-07 0)
(0.0186323 2.80615e-07 0)
(0.0271959 4.7755e-07 0)
(0.0396214 8.07654e-07 0)
(0.0576069 1.365e-06 0)
(0.0835702 2.30979e-06 0)
(0.120938 3.91346e-06 0)
(0.174542 6.62502e-06 0)
(0.251147 1.12568e-05 0)
(0.36016 1.9082e-05 0)
(0.514547 3.25296e-05 0)
(0.731984 5.51527e-05 0)
(1.03626 9.18107e-05 0)
(1.45887 0.000152325 0)
(2.0406 0.000263908 0)
(2.83273 0.000434081 0)
(3.89683 0.000707447 0)
(5.30211 0.00119573 0)
(7.1176 0.00228943 0)
(9.38902 0.00437296 0)
(12.0877 0.00688367 0)
(15.0273 0.00710679 0)
(17.5696 0.00881026 0)
(18.6523 0.0112427 0)
(21.3743 -0.00223417 0)
(19.9505 -0.00418882 0)
(16.9775 -0.00454969 0)
(13.8891 -0.00240724 0)
(10.9267 -0.000860236 0)
(8.36056 -0.000275695 0)
(6.26534 -0.000175192 0)
(4.62069 -0.000165602 0)
(3.36525 -8.17169e-05 0)
(2.42644 -3.90264e-05 0)
(1.73513 -2.63846e-05 0)
(1.23226 -1.46831e-05 0)
(0.870054 -8.83982e-06 0)
(0.611253 -5.03008e-06 0)
(0.427581 -3.06401e-06 0)
(0.297968 -1.79135e-06 0)
(0.20695 -1.01902e-06 0)
(0.143307 -5.54235e-07 0)
(0.0989699 -3.00422e-07 0)
(0.0681854 -1.59119e-07 0)
(0.0468735 -7.92e-08 0)
(0.0321585 -3.72187e-08 0)
(0.0220227 -1.47904e-08 0)
(0.0150561 -3.2649e-09 0)
(0.0102774 2.60041e-09 0)
(0.00700535 5.18383e-09 0)
(0.00476868 5.88106e-09 0)
(0.00324211 5.36539e-09 0)
(0.00220169 4.08689e-09 0)
(0.00149353 2.36648e-09 0)
(0.00101212 4.37392e-10 0)
(0.000685234 -1.49762e-09 0)
(0.000463505 -3.27459e-09 0)
(0.000313258 -4.7755e-09 0)
(0.000211544 -5.9301e-09 0)
(0.000142747 -6.71261e-09 0)
(9.62528e-05 -7.13353e-09 0)
(6.48564e-05 -7.23118e-09 0)
(4.36705e-05 -7.06063e-09 0)
(2.93843e-05 -6.685e-09 0)
(1.97563e-05 -6.16796e-09 0)
(1.32705e-05 -5.56796e-09 0)
(8.90218e-06 -4.9353e-09 0)
(5.95856e-06 -4.31075e-09 0)
(3.97141e-06 -3.72496e-09 0)
(2.62358e-06 -3.20016e-09 0)
(1.69925e-06 -2.75026e-09 0)
(1.04991e-06 -2.38342e-09 0)
(5.70898e-07 -2.10395e-09 0)
(1.81513e-07 -1.91257e-09 0)
(1.54676e-07 5.62932e-10 0)
(4.85961e-07 7.7977e-10 0)
(8.92998e-07 9.05523e-10 0)
(1.44492e-06 1.04244e-09 0)
(2.23072e-06 1.21622e-09 0)
(3.37661e-06 1.43284e-09 0)
(5.06595e-06 1.6915e-09 0)
(7.56817e-06 1.98665e-09 0)
(1.12809e-05 2.30807e-09 0)
(1.67922e-05 2.64052e-09 0)
(2.49721e-05 2.96129e-09 0)
(3.7107e-05 3.2433e-09 0)
(5.50986e-05 3.45386e-09 0)
(8.17554e-05 3.55954e-09 0)
(0.000121221 3.53028e-09 0)
(0.000179606 3.35037e-09 0)
(0.000265905 3.02858e-09 0)
(0.000393352 2.61578e-09 0)
(0.000581385 2.22494e-09 0)
(0.000858524 2.05467e-09 0)
(0.00126655 2.4177e-09 0)
(0.00186658 3.82696e-09 0)
(0.00274786 6.95458e-09 0)
(0.00404047 1.28642e-08 0)
(0.00593366 2.31734e-08 0)
(0.0087021 4.05057e-08 0)
(0.0127436 6.89503e-08 0)
(0.0186325 1.15341e-07 0)
(0.0271963 1.92146e-07 0)
(0.0396221 3.18971e-07 0)
(0.057608 5.33418e-07 0)
(0.0835721 8.96755e-07 0)
(0.120941 1.50967e-06 0)
(0.174547 2.53413e-06 0)
(0.251156 4.30963e-06 0)
(0.360177 7.33513e-06 0)
(0.514576 1.27016e-05 0)
(0.732032 2.18491e-05 0)
(1.03634 3.71864e-05 0)
(1.45901 6.00604e-05 0)
(2.04081 0.000105203 0)
(2.83306 0.000171255 0)
(3.8977 0.000275377 0)
(5.30429 0.000613039 0)
(7.12148 0.00138215 0)
(9.39489 0.00259011 0)
(12.1011 0.00437927 0)
(15.0657 0.00947501 0)
(17.6839 0.0240801 0)
(18.492 0.0722036 0)
(21.2083 -0.0522948 0)
(20.0497 -0.017102 0)
(17.0106 -0.00364945 0)
(13.8946 -0.00196575 0)
(10.9298 -0.000875193 0)
(8.36193 -0.000384044 0)
(6.26588 -0.000184305 0)
(4.62099 -0.00011331 0)
(3.36546 -3.48697e-05 0)
(2.42651 -1.05618e-05 0)
(1.73515 -3.8251e-06 0)
(1.23227 -1.54598e-06 0)
(0.870055 -1.52583e-06 0)
(0.611255 -8.11122e-07 0)
(0.427582 -6.58773e-07 0)
(0.297969 -5.43939e-07 0)
(0.206951 -3.69976e-07 0)
(0.143307 -2.17833e-07 0)
(0.0989702 -1.29126e-07 0)
(0.0681856 -7.05581e-08 0)
(0.0468736 -3.58351e-08 0)
(0.0321586 -1.77725e-08 0)
(0.0220227 -7.75673e-09 0)
(0.0150561 -2.47424e-09 0)
(0.0102774 2.36623e-10 0)
(0.00700535 1.50906e-09 0)
(0.00476868 1.93156e-09 0)
(0.00324211 1.7561e-09 0)
(0.00220169 1.19566e-09 0)
(0.00149353 4.45288e-10 0)
(0.00101212 -3.98979e-10 0)
(0.000685231 -1.24248e-09 0)
(0.000463502 -2.00864e-09 0)
(0.000313256 -2.64454e-09 0)
(0.000211542 -3.12e-09 0)
(0.000142746 -3.42538e-09 0)
(9.62525e-05 -3.56768e-09 0)
(6.48566e-05 -3.56593e-09 0)
(4.36712e-05 -3.44626e-09 0)
(2.93852e-05 -3.23785e-09 0)
(1.97574e-05 -2.96973e-09 0)
(1.32717e-05 -2.66844e-09 0)
(8.90339e-06 -2.35679e-09 0)
(5.95971e-06 -2.05247e-09 0)
(3.97246e-06 -1.7695e-09 0)
(2.6245e-06 -1.51687e-09 0)
(1.70002e-06 -1.30065e-09 0)
(1.05052e-06 -1.12417e-09 0)
(5.7135e-07 -9.88785e-10 0)
(1.81698e-07 -8.94503e-10 0)
)
;

boundaryField
{
    sides1
    {
        type            zeroGradient;
    }
    sides2
    {
        type            slip;
    }
    empty
    {
        type            empty;
    }
}


// ************************************************************************* //
