/*--------------------------------*- C++ -*----------------------------------*\
| =========                 |                                                 |
| \\      /  F ield         | OpenFOAM: The Open Source CFD Toolbox           |
|  \\    /   O peration     | Version:  2012                                  |
|   \\  /    A nd           | Website:  www.openfoam.com                      |
|    \\/     M anipulation  |                                                 |
\*---------------------------------------------------------------------------*/
FoamFile
{
    version     2.0;
    format      ascii;
    class       volScalarField;
    location    "0.14";
    object      minKappa;
}
// * * * * * * * * * * * * * * * * * * * * * * * * * * * * * * * * * * * * * //

dimensions      [0 0 0 0 0 0 0];


internalField   nonuniform List<scalar> 
2268
(
1.6817e-06
3.80759e-06
6.11213e-06
8.57736e-06
1.10429e-05
1.36732e-05
1.63487e-05
1.91624e-05
2.21261e-05
2.52014e-05
2.84315e-05
3.18332e-05
3.54517e-05
3.90053e-05
4.26351e-05
4.59718e-05
4.97804e-05
5.22055e-05
5.50749e-05
5.34341e-05
4.87393e-05
3.57682e-05
6.30561e-05
1.6817e-06
3.80759e-06
6.11213e-06
8.57736e-06
1.10429e-05
1.36732e-05
1.63487e-05
1.91624e-05
2.21261e-05
2.52014e-05
2.84315e-05
3.18332e-05
3.54517e-05
3.90053e-05
4.26351e-05
4.59718e-05
4.97804e-05
5.22055e-05
5.50749e-05
5.34341e-05
4.87393e-05
3.57682e-05
6.30561e-05
2.55322e-06
4.27106e-06
6.41389e-06
8.79544e-06
1.12133e-05
1.38127e-05
1.64659e-05
1.92647e-05
2.22162e-05
2.52872e-05
2.85162e-05
3.19172e-05
3.55296e-05
3.91173e-05
4.27905e-05
4.62749e-05
5.03044e-05
5.30699e-05
5.59392e-05
5.42336e-05
5.05216e-05
3.93056e-05
8.20737e-05
3.57532e-06
4.94909e-06
6.88591e-06
9.14622e-06
1.14908e-05
1.40413e-05
1.66588e-05
1.94338e-05
2.2365e-05
2.5428e-05
2.86558e-05
3.20558e-05
3.56661e-05
3.92913e-05
4.30419e-05
4.67553e-05
5.10121e-05
5.42965e-05
5.71619e-05
5.54532e-05
5.37642e-05
4.53349e-05
6.28229e-05
4.64045e-06
5.76312e-06
7.49357e-06
9.61272e-06
1.18658e-05
1.43528e-05
1.69226e-05
1.96658e-05
2.25689e-05
2.5619e-05
2.88445e-05
3.22447e-05
3.58563e-05
3.95218e-05
4.33847e-05
4.73795e-05
5.18367e-05
5.55931e-05
5.82089e-05
5.73816e-05
5.86071e-05
5.36006e-05
6.28229e-05
5.71814e-06
6.65871e-06
8.20356e-06
1.0176e-05
1.23267e-05
1.47398e-05
1.72516e-05
1.99564e-05
2.28251e-05
2.58565e-05
2.9078e-05
3.24801e-05
3.60965e-05
3.9813e-05
4.38127e-05
4.81304e-05
5.2771e-05
5.67017e-05
5.91338e-05
6.41065e-05
7.78475e-05
8.52853e-05
8.02503e-05
6.79634e-06
7.6021e-06
8.98732e-06
1.08169e-05
1.28608e-05
1.51934e-05
1.76391e-05
2.03e-05
2.31299e-05
2.61381e-05
2.93529e-05
3.27599e-05
3.63876e-05
4.01706e-05
4.43243e-05
4.89685e-05
5.37054e-05
5.74815e-05
6.00873e-05
0.000112517
0.000263572
0.000442742
0.000147099
7.86851e-06
8.57162e-06
9.82229e-06
1.1519e-05
1.34563e-05
1.57057e-05
1.808e-05
2.06935e-05
2.34826e-05
2.64642e-05
2.967e-05
3.3084e-05
3.67285e-05
4.05906e-05
4.49083e-05
4.98212e-05
5.4437e-05
5.7902e-05
7.77972e-05
0.000392354
0.000958586
0.00132182
0.000369694
0.00012808
4.28944e-05
0.000110627
6.60381e-05
4.03061e-05
3.09517e-05
1.1763e-05
6.08882e-06
3.52858e-05
1.89788e-05
4.32029e-05
2.3282e-05
4.08776e-05
1.99117e-05
3.29884e-05
1.20891e-05
2.23797e-05
2.9173e-06
1.08653e-05
0.00012808
4.28944e-05
0.000110627
6.60381e-05
4.03061e-05
3.09517e-05
1.1763e-05
6.08882e-06
3.52858e-05
1.89788e-05
4.32029e-05
2.3282e-05
4.08776e-05
1.99117e-05
3.29884e-05
1.20891e-05
2.23797e-05
2.9173e-06
1.08653e-05
0.00014322
5.74367e-05
0.000116125
7.72557e-05
4.3845e-05
3.71873e-05
1.77619e-05
1.17744e-05
3.69646e-05
2.00018e-05
4.37985e-05
2.36208e-05
4.11741e-05
2.02291e-05
3.32389e-05
1.2668e-05
2.2728e-05
5.11795e-06
1.15857e-05
0.000182968
7.73946e-05
0.000123057
8.90635e-05
4.44457e-05
4.29959e-05
2.41596e-05
1.76937e-05
3.94607e-05
2.19267e-05
4.50733e-05
2.473e-05
4.19717e-05
2.1201e-05
3.39072e-05
1.39645e-05
2.3524e-05
7.59547e-06
1.29595e-05
0.000227898
0.000115702
0.000136201
0.000109164
5.06583e-05
5.18387e-05
3.18599e-05
2.34735e-05
4.2841e-05
2.41232e-05
4.65457e-05
2.57913e-05
4.28047e-05
2.21641e-05
3.46145e-05
1.53752e-05
2.44261e-05
1.01092e-05
1.45321e-05
0.000305948
0.000152788
0.000144711
0.000130728
5.74085e-05
6.06275e-05
4.09454e-05
2.98306e-05
4.7109e-05
2.72202e-05
4.87062e-05
2.7616e-05
4.41379e-05
2.37276e-05
3.573e-05
1.72756e-05
2.57269e-05
1.26997e-05
1.64908e-05
0.000387914
0.000218904
0.000150609
0.000156159
6.95964e-05
7.0328e-05
5.03123e-05
3.57594e-05
5.17575e-05
3.02862e-05
5.09557e-05
2.93891e-05
4.54877e-05
2.53015e-05
3.68842e-05
1.92618e-05
2.71247e-05
1.53249e-05
1.85702e-05
0.000525538
0.000294805
0.000150609
0.000180018
8.54696e-05
8.06671e-05
6.14534e-05
4.27485e-05
5.74114e-05
3.43348e-05
5.39061e-05
3.19148e-05
4.73412e-05
2.74194e-05
3.8437e-05
2.15968e-05
2.88677e-05
1.80444e-05
2.08934e-05
1.39642e-05
1.49419e-05
1.67259e-05
1.91949e-05
2.20646e-05
2.54541e-05
2.90511e-05
3.30589e-05
3.73541e-05
4.19702e-05
4.69604e-05
5.23078e-05
5.80361e-05
6.42093e-05
7.12097e-05
7.9099e-05
8.57616e-05
0.000102646
0.000368568
0.00137359
0.00251301
0.00295242
0.00158191
2.37126e-05
2.47885e-05
2.68348e-05
2.97501e-05
3.3079e-05
3.67495e-05
4.09752e-05
4.56902e-05
5.09791e-05
5.67595e-05
6.30834e-05
7.00112e-05
7.76087e-05
8.60318e-05
9.55553e-05
0.000105305
0.00013437
0.000498052
0.00198001
0.00257608
0.00259605
0.0039344
0.00464236
2.82557e-05
2.91549e-05
3.09212e-05
3.34865e-05
3.65998e-05
4.00074e-05
4.39378e-05
4.83819e-05
5.34473e-05
5.90607e-05
6.52511e-05
7.21147e-05
7.97619e-05
8.83704e-05
9.76552e-05
0.000105791
0.000248363
0.00193231
0.00232918
0.0019411
0.00218855
0.00346911
0.00480988
3.25821e-05
3.33571e-05
3.49168e-05
3.72157e-05
4.00239e-05
4.32962e-05
4.69769e-05
5.11843e-05
5.6044e-05
6.14924e-05
6.75483e-05
7.43347e-05
8.19995e-05
9.05867e-05
9.87951e-05
0.000200978
0.00144647
0.00231184
0.00168898
0.00128249
0.00172052
0.00268568
0.00483805
3.66574e-05
3.73411e-05
3.87424e-05
4.08349e-05
4.33918e-05
4.64778e-05
4.99351e-05
5.39218e-05
5.85841e-05
6.38496e-05
6.97836e-05
7.64632e-05
8.41521e-05
9.22129e-05
0.000128228
0.000677409
0.00229255
0.0017048
0.00102679
0.000993418
0.00122391
0.00192817
0.00409077
4.04403e-05
4.10554e-05
4.23297e-05
4.42593e-05
4.66088e-05
4.95014e-05
5.27704e-05
5.65815e-05
6.10661e-05
6.61797e-05
7.19922e-05
7.86076e-05
8.61983e-05
9.33561e-05
0.000214368
0.00165328
0.00175408
0.000760649
0.000883009
0.000883009
0.00111757
0.00135583
0.00312513
4.39042e-05
4.44667e-05
4.56374e-05
4.74334e-05
4.96146e-05
5.22857e-05
5.53745e-05
5.90153e-05
6.33031e-05
6.82683e-05
7.3918e-05
8.05173e-05
8.77347e-05
0.000120144
0.000629605
0.00200315
0.000958295
0.000612064
0.000730114
0.00109379
0.00133813
0.00149323
0.00259262
4.70158e-05
4.75365e-05
4.86207e-05
5.02984e-05
5.23491e-05
5.47689e-05
5.77105e-05
6.12005e-05
6.53278e-05
7.01616e-05
7.56569e-05
8.22477e-05
8.89869e-05
0.000201791
0.00154819
0.00140601
0.000599732
0.000612064
0.00121513
0.0012397
0.00147429
0.00146346
0.00223915
4.97548e-05
5.02461e-05
5.1254e-05
5.2832e-05
5.47023e-05
5.69366e-05
5.97266e-05
6.30214e-05
6.69726e-05
7.15755e-05
7.69403e-05
8.32987e-05
8.98332e-05
0.000255404
0.00187251
0.00100502
0.000599732
0.000914382
0.0014037
0.00132404
0.00152592
0.0013871
0.00175718
5.21007e-05
5.25741e-05
5.35016e-05
5.49907e-05
5.6595e-05
5.86877e-05
6.13206e-05
6.44364e-05
6.82274e-05
7.2611e-05
7.78678e-05
8.39054e-05
0.000155721
0.00109575
0.00140854
0.000565798
0.000893656
0.00125102
0.00138496
0.00128497
0.00148128
0.0012869
0.00136753
5.40516e-05
5.45142e-05
5.53598e-05
5.66441e-05
5.81494e-05
6.01021e-05
6.25505e-05
6.54785e-05
6.90452e-05
7.32485e-05
7.8542e-05
8.46193e-05
0.000217259
0.00172854
0.00106169
0.000565798
0.000958495
0.00120347
0.00134978
0.00122565
0.00140215
0.00120161
0.00114836
5.56274e-05
5.60738e-05
5.68347e-05
5.78696e-05
5.92742e-05
6.11858e-05
6.38613e-05
6.80814e-05
7.4424e-05
8.6093e-05
0.00011212
0.000153214
0.00100254
0.00159887
0.000816141
0.000684021
0.00114746
0.00117617
0.00129122
0.00116849
0.00129537
0.00112442
0.000972702
6.05584e-05
6.14544e-05
6.28862e-05
6.68327e-05
7.25058e-05
8.49662e-05
9.92607e-05
0.000127408
0.000164637
0.000275944
0.000600887
0.0010277
0.00207043
0.00127111
0.000364467
0.000844849
0.00120184
0.00117617
0.0012297
0.00113154
0.00121273
0.00106349
0.000876304
0.00015754
0.000165095
0.000177606
0.000216926
0.000281846
0.00045474
0.000582954
0.000815469
0.00104399
0.00129206
0.00157735
0.00182426
0.00177202
0.00100163
0.000293596
0.00071153
0.00120614
0.00117829
0.00118203
0.00110923
0.00113393
0.00101311
0.000785984
0.000964079
0.000894353
0.000934566
0.00101456
0.00108861
0.00120571
0.0012939
0.00136732
0.00152552
0.00167562
0.00181219
0.00172337
0.00140476
0.00100622
0.000293596
0.000877172
0.00121982
0.00120361
0.00115162
0.00108577
0.00107513
0.000967719
0.000733851
0.00117165
0.00116555
0.00118753
0.00121154
0.00125186
0.0012999
0.00137684
0.00147409
0.00162811
0.00178266
0.00178676
0.00143327
0.00115162
0.000976941
0.00057218
0.0011158
0.00124549
0.00120635
0.00112118
0.00105639
0.00101556
0.000922393
0.000676289
0.00116483
0.00117109
0.00119161
0.00121453
0.00125075
0.00130101
0.00137881
0.00148358
0.00165952
0.00185449
0.00179093
0.00127663
0.000908457
0.000908457
0.00106043
0.00145001
0.00127982
0.0011912
0.00109287
0.00101614
0.000967072
0.00087678
0.000638143
0.00113489
0.00114415
0.0011698
0.00119496
0.00123679
0.00129255
0.00137835
0.00149576
0.00167444
0.00189967
0.00203706
0.00147116
0.00102708
0.000942069
0.00149396
0.00150451
0.00130232
0.00116414
0.00106187
0.000963167
0.000914509
0.000827374
0.000593418
0.00109782
0.00110762
0.00113323
0.00115532
0.00120367
0.00125472
0.00133362
0.00144479
0.00161504
0.00184552
0.00203744
0.00191702
0.00137685
0.00149768
0.00170007
0.00144051
0.00123227
0.00110232
0.00100443
0.000908153
0.000861119
0.000778671
0.000558144
0.00105858
0.0010636
0.00108462
0.00110315
0.00114867
0.00118791
0.00126523
0.00134475
0.00147524
0.00165367
0.0018156
0.00194022
0.00188157
0.00175768
0.00156242
0.00131156
0.00114115
0.00102411
0.000938669
0.00084746
0.000802343
0.000728696
0.000517897
0.00100823
0.00101237
0.00102989
0.00104511
0.00108148
0.00111302
0.00117118
0.00122847
0.00130835
0.00141298
0.00151418
0.0016156
0.00158892
0.00149901
0.00134899
0.00114762
0.00102822
0.000929107
0.000860913
0.000777966
0.00074194
0.000676766
0.000481819
0.000953209
0.00095683
0.000970574
0.000981661
0.00100932
0.00103196
0.00107441
0.0011139
0.0011643
0.00122181
0.00126697
0.0013147
0.001294
0.00122981
0.00111812
0.000994905
0.000919405
0.000839652
0.000784981
0.0007127
0.000684697
0.000626509
0.000446529
0.000899214
0.000901532
0.000911435
0.000918391
0.000937906
0.000951761
0.000980327
0.00100423
0.00103562
0.00106718
0.00108623
0.00110217
0.00107453
0.00103187
0.000949725
0.000879793
0.000818472
0.000758873
0.000717976
0.000650207
0.000632482
0.000576409
0.000415015
0.000843597
0.000845024
0.000852514
0.000856767
0.000870998
0.000878336
0.000896804
0.000907887
0.000925054
0.000938829
0.00094391
0.000945149
0.000914635
0.000881236
0.000821585
0.000776971
0.000725317
0.000684296
0.000647044
0.000591846
0.000577046
0.00052899
0.000381979
0.000788845
0.000789402
0.000794391
0.000795834
0.000805351
0.000807599
0.000818811
0.000821625
0.00082914
0.000831665
0.000826891
0.000821085
0.000790942
0.000766876
0.000719735
0.000689849
0.000645659
0.000617168
0.000582037
0.000538911
0.000530426
0.000484244
0.000354348
0.00073749
0.000737203
0.000740127
0.000738903
0.000744322
0.000742175
0.000747649
0.000744576
0.000745663
0.000741631
0.000731351
0.000722627
0.00069433
0.000673814
0.000635899
0.000612487
0.000575868
0.000553367
0.000519916
0.000490369
0.000480475
0.000442271
0.00032414
0.000688356
0.000687565
0.000689023
0.000686105
0.000688489
0.000683289
0.000684292
0.00067722
0.000673318
0.000665472
0.000651429
0.000640401
0.000613818
0.000596248
0.00056426
0.000545136
0.000514246
0.000495433
0.000466005
0.000446039
0.00043477
0.000403762
0.000299242
0.000642944
0.000641611
0.000641762
0.000637417
0.000637354
0.000629858
0.000627552
0.000617842
0.00061039
0.000599878
0.000583854
0.000571537
0.000546861
0.000530413
0.000502733
0.000485626
0.000459193
0.000442667
0.000417905
0.000403423
0.00039062
0.000367832
0.000272335
0.000601428
0.000599687
0.00059873
0.000593268
0.000591098
0.000581992
0.000576984
0.000565568
0.000555457
0.000543226
0.000525856
0.000512389
0.000489107
0.000473318
0.000448568
0.000432932
0.000409694
0.000395225
0.000374597
0.000363231
0.000350564
0.000334664
0.000249852
0.000563394
0.000561423
0.000559685
0.000553487
0.000549693
0.000539497
0.000532388
0.000519663
0.000507591
0.000493937
0.000475995
0.000461399
0.000439206
0.000423531
0.000400928
0.000385943
0.000365277
0.000352245
0.000334839
0.000325226
0.000313738
0.000302879
0.000226132
0.000529526
0.000527298
0.00052479
0.000517951
0.000512714
0.000501689
0.000492845
0.000479179
0.000465634
0.000450799
0.0004323
0.000416854
0.000395459
0.000379587
0.000358331
0.000343775
0.000325002
0.000312999
0.000298085
0.000289737
0.000279966
0.000272601
0.000205891
0.000499196
0.000496816
0.000493734
0.000486482
0.000480117
0.00046852
0.000458307
0.000443807
0.000429125
0.000413266
0.000394492
0.000377954
0.000356895
0.000340622
0.000320317
0.000305826
0.000288318
0.00027697
0.000263861
0.000256509
0.000248468
0.000243563
0.000184914
0.000472708
0.000470183
0.000466557
0.000458926
0.000451543
0.000439431
0.000428018
0.000412796
0.000397165
0.00038027
0.000361046
0.00034367
0.000322863
0.000305979
0.000286063
0.000271362
0.000254689
0.000243709
0.000231881
0.000225358
0.000218974
0.00021593
0.000166712
0.000449658
0.000447024
0.000442952
0.000435048
0.000426845
0.000414313
0.000401943
0.000386053
0.000369617
0.00035184
0.000332244
0.000313763
0.000292723
0.000275028
0.000255211
0.000240064
0.000223749
0.000212794
0.000201815
0.00019599
0.000191034
0.000189575
0.00014802
0.000430125
0.000427379
0.000422889
0.000414702
0.000405753
0.000392802
0.000379566
0.000363029
0.000345418
0.000325874
0.000306367
0.000286762
0.000266207
0.000247567
0.000227461
0.000211523
0.000195171
0.000183942
0.000173513
0.000168191
0.000164564
0.000164537
0.000131736
0.000413863
0.000411002
0.000406133
0.000397688
0.000387284
0.000373967
0.00035894
0.00034209
0.000324237
0.000304988
0.000285036
0.000264097
0.000243098
0.000223267
0.000202547
0.000185585
0.000168764
0.000156932
0.000146634
0.000141674
0.000139227
0.000140658
0.000115179
0.00040093
0.00039792
0.000392671
0.00038377
0.000372113
0.00035821
0.000342256
0.000324265
0.000304862
0.00028401
0.000262833
0.000241445
0.00022058
0.000200224
0.00018059
0.000162261
0.000144535
0.000131656
0.00012111
0.000116304
0.000115051
0.000118065
0.000100798
0.000391173
0.000387416
0.000380196
0.000370463
0.000358231
0.000343787
0.000327437
0.000309299
0.000289917
0.000269184
0.0002476
0.000225045
0.00020256
0.000180538
0.000159915
0.000141235
0.000122474
0.000108062
9.66738e-05
9.17622e-05
9.17689e-05
9.66842e-05
8.65949e-05
0.000384057
0.000379664
0.000372327
0.000362381
0.00034976
0.000334723
0.000317445
0.000298119
0.000277247
0.000255031
0.000232266
0.000209064
0.000186039
0.000163271
0.000141558
0.00012143
0.000103039
8.64995e-05
7.35059e-05
6.80731e-05
6.96048e-05
7.70265e-05
7.46094e-05
0.000378419
0.000373836
0.00036621
0.000355857
0.000342785
0.000327287
0.000309604
0.000289971
0.000268797
0.000246182
0.000222659
0.000198335
0.000173946
0.00014968
0.000126311
0.000104259
8.45879e-05
6.71362e-05
5.12151e-05
4.46235e-05
4.86578e-05
5.97266e-05
6.38605e-05
0.0003763
0.000371928
0.000364439
0.000354109
0.000340932
0.000325192
0.000307063
0.000286784
0.000264754
0.000241196
0.000216682
0.000191377
0.000165861
0.000140241
0.000115153
9.08679e-05
6.83236e-05
4.89824e-05
3.37957e-05
2.24031e-05
3.10503e-05
4.51437e-05
5.60757e-05
0.000374473
0.000369806
0.000362075
0.000351622
0.00033844
0.00032281
0.000304891
0.000284905
0.000263185
0.000239882
0.00021548
0.0001901
0.000164318
0.000138229
0.000112383
8.68639e-05
6.2171e-05
3.86775e-05
1.94096e-05
1.74873e-05
1.74873e-05
3.24447e-05
5.1415e-05
0.00212376
0.000936087
0.00070941
0.000780949
0.00220064
0.000873507
0.00040146
0.00040146
0.00288933
0.00218008
0.00113806
0.000804767
0.00306196
0.00274558
0.00206536
0.00206536
0.00295156
0.00271581
0.00223732
0.00223732
0.00259552
0.00243223
0.00207837
0.00207837
0.00206279
0.00194972
0.00173861
0.00173861
0.00145303
0.00136983
0.00127301
0.00127301
0.00108124
0.00102563
0.000968973
0.000968973
0.000832889
0.000803268
0.000763665
0.000763665
0.000703373
0.000686204
0.00065573
0.00065573
0.000598633
0.000585449
0.000559171
0.000559171
0.000543222
0.000530924
0.000509829
0.000509829
0.000487897
0.00047467
0.000457483
0.000457483
0.000455757
0.000443467
0.000428615
0.000428615
0.000419085
0.00040661
0.000392351
0.000392351
0.000395584
0.000383927
0.0003706
0.0003706
0.000367249
0.000355762
0.000342567
0.000342567
0.000345712
0.000335484
0.000323543
0.000323543
0.000320752
0.000311149
0.000300197
0.000300197
0.000299311
0.000291171
0.000282087
0.000282087
0.00027793
0.000270734
0.000262901
0.000262901
0.000258915
0.000252828
0.000246252
0.000246252
0.000238924
0.000233867
0.000228398
0.000228398
0.000222206
0.000218034
0.000213434
0.000213434
0.000203767
0.000200403
0.000196672
0.000196672
0.000188612
0.000185938
0.000182927
0.000182927
0.000172094
0.000170016
0.000167714
0.000167714
0.000158346
0.000156802
0.000155121
0.000155121
0.000143703
0.000142594
0.000141482
0.000141482
0.000131228
0.000130574
0.000129949
0.000129949
0.000118202
0.000117942
0.00011775
0.00011775
0.000106934
0.000106934
0.000107092
0.000107306
9.5336e-05
9.5336e-05
9.58804e-05
9.65009e-05
8.52814e-05
8.52814e-05
8.62296e-05
8.72505e-05
7.50698e-05
7.50698e-05
7.64216e-05
7.78623e-05
6.62714e-05
6.62714e-05
6.8047e-05
6.99079e-05
5.7637e-05
5.7637e-05
5.98652e-05
6.21761e-05
5.04542e-05
5.04542e-05
5.31489e-05
5.58999e-05
4.41106e-05
4.41106e-05
4.7284e-05
5.0469e-05
3.96084e-05
3.96084e-05
4.31812e-05
4.67074e-05
3.69451e-05
3.69451e-05
4.07658e-05
4.44883e-05
0.00101074
0.00061974
0.000264177
0.000315019
0.000162355
0.00014089
0.000112813
7.63501e-05
9.84389e-05
5.95726e-05
8.88097e-05
5.36739e-05
7.68474e-05
4.61698e-05
6.25502e-05
3.75152e-05
4.7989e-05
3.25218e-05
3.64304e-05
0.000359997
0.000759392
0.000616334
0.000532742
0.000349167
0.000254694
0.000219637
0.000148003
0.000168811
0.000107228
0.000139662
8.94025e-05
0.00011638
7.55703e-05
9.46472e-05
6.34273e-05
7.52153e-05
5.71131e-05
6.12851e-05
0.000359997
0.000613709
0.000743316
0.000606736
0.000435614
0.000293724
0.000257435
0.000176846
0.000180142
0.000128959
0.000144257
0.000105874
0.000121475
8.97639e-05
0.000104053
7.75178e-05
8.68145e-05
7.14668e-05
7.46157e-05
0.000802274
0.00117251
0.00102422
0.000762808
0.000570679
0.000378763
0.000338124
0.000225301
0.000232801
0.0001583
0.000177794
0.000125789
0.000143141
0.000105652
0.000117855
9.21904e-05
9.93224e-05
8.58403e-05
8.82031e-05
0.00191374
0.00148502
0.00113465
0.000797385
0.000579108
0.00043013
0.000350957
0.000263909
0.000246898
0.000188007
0.000192511
0.000148115
0.000159495
0.000124013
0.000132341
0.000108948
0.000113796
0.000101879
0.000103477
0.00243475
0.00167878
0.00129529
0.000880136
0.00069692
0.000477179
0.000423389
0.000300337
0.000290793
0.000214899
0.000218992
0.000168824
0.000175326
0.000141639
0.000146653
0.000125267
0.000128133
0.000117536
0.000118497
0.00228378
0.00156821
0.00120966
0.000873169
0.000688152
0.000526687
0.000441871
0.000341031
0.000315209
0.00024579
0.000242204
0.000193056
0.00019395
0.000161865
0.000163224
0.000143386
0.000144244
0.000134602
0.000134902
0.00185927
0.00138681
0.00113453
0.000849543
0.000719588
0.000536772
0.000479672
0.000362735
0.000339864
0.000267639
0.000259147
0.00021293
0.000209611
0.000179967
0.000178337
0.000160404
0.000159521
0.00015095
0.000150664
0.00149656
0.0012354
0.00103087
0.000813947
0.000705244
0.000556573
0.000493432
0.000390188
0.000361749
0.000293247
0.000279019
0.000235193
0.000227377
0.000199614
0.000194939
0.000178366
0.000175779
0.000167937
0.000167132
0.00119431
0.0011156
0.000939599
0.000784914
0.000678524
0.000558357
0.000500289
0.000404619
0.00037268
0.000311108
0.000292681
0.000253199
0.000241747
0.000216891
0.000209677
0.000194955
0.000190913
0.000183988
0.000182714
0.00104282
0.00102263
0.000861956
0.000753229
0.000647589
0.000559816
0.000494336
0.000420658
0.000383392
0.000329857
0.000306573
0.000271572
0.000256509
0.000234232
0.000224638
0.000211404
0.000206036
0.00019981
0.000198117
0.000896903
0.000944742
0.000795591
0.000723249
0.000619734
0.00055544
0.000487316
0.00042964
0.000388298
0.000343343
0.000316513
0.00028644
0.000268652
0.000249327
0.000237875
0.000226358
0.000219926
0.000214501
0.000212463
0.000826196
0.000882996
0.000739763
0.000694093
0.000592645
0.000546999
0.000477941
0.000436887
0.000392009
0.000355386
0.000325352
0.000300128
0.000279911
0.000263382
0.000250298
0.000240332
0.00023298
0.000228252
0.000225919
0.000742753
0.000828112
0.000689081
0.000665994
0.000567616
0.000537179
0.000468245
0.000439614
0.000392294
0.000363652
0.000331674
0.000310954
0.000289181
0.000275335
0.000261164
0.000252722
0.000244737
0.000240707
0.000238165
0.000695324
0.000781455
0.000647005
0.000639245
0.00054393
0.000525282
0.000457482
0.000437963
0.000390041
0.000369904
0.000336483
0.000319995
0.000297011
0.000285706
0.000270674
0.00026366
0.000255171
0.000251784
0.000249074
0.00063449
0.000734394
0.000609276
0.000612465
0.000520959
0.000512286
0.000446358
0.000433928
0.000386598
0.000373279
0.000339507
0.000326611
0.000303206
0.000294107
0.000278731
0.000272985
0.000264276
0.000261477
0.000258688
0.000600046
0.000691678
0.000578691
0.000586702
0.000499916
0.000498001
0.000434695
0.00042779
0.000381962
0.00037408
0.000341041
0.000331428
0.000307853
0.000300818
0.000285257
0.000280704
0.000271864
0.000269609
0.000266769
0.000553962
0.000649617
0.00054938
0.000558999
0.000479688
0.000482361
0.000422579
0.000420297
0.000376292
0.000371833
0.00033998
0.000334195
0.000311086
0.000305736
0.000290431
0.000286873
0.000278154
0.000276374
0.000273569
0.000524957
0.000610883
0.000524281
0.000532891
0.000461828
0.000466024
0.000410804
0.000411168
0.000369813
0.000367867
0.000337655
0.000334909
0.000312885
0.0003091
0.000294128
0.000291503
0.000282943
0.00028159
0.00027882
0.000487742
0.000572062
0.000498616
0.00050546
0.000443286
0.000448125
0.000398524
0.000400653
0.000362594
0.0003626
0.000334252
0.000333128
0.000312818
0.000310909
0.000296605
0.000294725
0.000286534
0.000285552
0.000282926
0.000460354
0.000536926
0.000475468
0.000480096
0.000426551
0.000430868
0.000386933
0.000389575
0.000355105
0.000356116
0.000330095
0.000330009
0.000311198
0.000310615
0.000297787
0.000296612
0.000288782
0.000288109
0.000285573
0.000429737
0.000502733
0.000451041
0.000454215
0.000408432
0.000412443
0.000374134
0.000377274
0.000346655
0.000348525
0.000325034
0.000325815
0.000308602
0.000308731
0.000297018
0.000296884
0.000290009
0.000289611
0.000287149
0.000403637
0.000471055
0.000427887
0.000430263
0.000391504
0.000395051
0.000362049
0.000365185
0.000338324
0.000340506
0.000319586
0.000320841
0.00030535
0.000305938
0.00029532
0.000295528
0.000289318
0.000289358
0.00028731
0.000375117
0.000440806
0.000404435
0.000406551
0.000373639
0.000377132
0.000348858
0.00035223
0.000328947
0.000331569
0.000313208
0.000314965
0.000301224
0.00030226
0.000292761
0.000293295
0.000287716
0.000287952
0.00028613
0.000351314
0.000411893
0.000381613
0.000383963
0.000356426
0.000360056
0.000336185
0.000339693
0.000319803
0.000322636
0.00030676
0.000308785
0.000296774
0.000298077
0.000289707
0.00029045
0.000285517
0.000285858
0.00028425
0.000324409
0.000384262
0.000359158
0.000362012
0.000338998
0.000342988
0.00032291
0.000326768
0.000309928
0.000313131
0.000299577
0.000301967
0.000291624
0.000293247
0.00028599
0.000286974
0.00028268
0.000283155
0.000281747
0.000302456
0.000358014
0.000337485
0.000341006
0.000322128
0.000326595
0.000310047
0.000314282
0.00030031
0.000303811
0.00029246
0.000295108
0.000286368
0.000288206
0.000282028
0.000283166
0.000279497
0.000280045
0.000278837
0.000277899
0.000332865
0.000316311
0.000320693
0.000305438
0.000310531
0.000297074
0.000301805
0.000290366
0.000294282
0.000284927
0.000287923
0.000280665
0.000282781
0.000277619
0.000278954
0.000275875
0.000276523
0.000275502
0.000257621
0.000309117
0.000296114
0.000301399
0.000289447
0.000295191
0.000284593
0.000289828
0.000280751
0.000285062
0.000277579
0.000280875
0.000275017
0.000277355
0.000273157
0.000274638
0.000272122
0.000272835
0.000271999
0.000235433
0.000286324
0.00027657
0.000282833
0.000273853
0.000280337
0.0002723
0.000278115
0.000271152
0.000275922
0.000270117
0.000273772
0.000269185
0.00027179
0.000268476
0.000270134
0.000268139
0.000268934
0.000268271
0.000216769
0.000264801
0.000258165
0.000265335
0.000259116
0.000266313
0.000260646
0.000267019
0.000262016
0.000267221
0.000262975
0.000266958
0.000263552
0.000266392
0.000263899
0.000265708
0.000264197
0.000265064
0.00026456
0.000196959
0.000244241
0.000240599
0.000248643
0.000244987
0.000252922
0.000249414
0.000256376
0.000253142
0.000258812
0.000255966
0.000260307
0.000257961
0.000261063
0.000259311
0.000261291
0.000260213
0.000261168
0.000260805
0.000180157
0.000225027
0.000224245
0.000233097
0.000231862
0.000240478
0.000238975
0.000246482
0.000244879
0.000250975
0.000249416
0.000254082
0.000252705
0.00025604
0.000254965
0.000257096
0.000256416
0.000257449
0.000257215
0.00016274
0.000207015
0.000208867
0.00021855
0.000219549
0.000228838
0.000229166
0.000237216
0.000237081
0.000243605
0.000243196
0.000248191
0.000247676
0.000251252
0.000250777
0.000253066
0.000252737
0.00025385
0.000253731
0.000147942
0.000190535
0.000194791
0.000205328
0.000208377
0.000218294
0.000220297
0.000228831
0.000230029
0.00023693
0.000237557
0.00024284
0.0002431
0.000246886
0.000246948
0.000249376
0.000249363
0.000250549
0.000250533
0.000132912
0.000175483
0.000181882
0.000193335
0.000198204
0.000208753
0.000212237
0.000221237
0.000223608
0.000230868
0.000232401
0.000237959
0.000238893
0.000242881
0.000243407
0.000245968
0.000246226
0.000247478
0.00024755
0.000120284
0.000162232
0.000170535
0.000182897
0.000189355
0.000200484
0.000205256
0.000214657
0.000218048
0.000225608
0.000227927
0.000233715
0.000235232
0.000239389
0.000240319
0.000242994
0.000243489
0.0002448
0.000244951
0.000108046
0.000150727
0.000160669
0.000173928
0.000181716
0.000193398
0.000199238
0.000209011
0.000213247
0.000221077
0.000224049
0.000230041
0.000232041
0.000236349
0.00023761
0.000240385
0.000241071
0.000242432
0.000242646
9.82153e-05
0.000141429
0.000152725
0.000166757
0.000175608
0.000187739
0.000194426
0.000204491
0.000209398
0.000217437
0.000220929
0.000227078
0.000229466
0.000233891
0.00023542
0.000238273
0.000239116
0.000240517
0.000240786
8.97645e-05
0.000134315
0.000146619
0.000161286
0.000170903
0.0001834
0.000190695
0.000200996
0.000206386
0.000214593
0.000218463
0.00022474
0.000227413
0.000231936
0.000233665
0.000236589
0.000237556
0.000238997
0.000239308
8.39587e-05
0.000129732
0.000142663
0.000157725
0.000167817
0.000180538
0.000188218
0.000198666
0.000204368
0.000212684
0.000216802
0.000223163
0.000226025
0.000230611
0.000232473
0.00023544
0.000236484
0.000237943
0.000238276
8.05244e-05
0.000129732
0.000142663
0.000157725
0.000167817
0.000180538
0.000188218
0.000198666
0.000204368
0.000212684
0.000216802
0.000223163
0.000226025
0.000230611
0.000232473
0.00023544
0.000236484
0.000237943
0.000238276
)
;

boundaryField
{
    leftWall
    {
        type            calculated;
        value           uniform 0;
    }
    rightWall
    {
        type            calculated;
        value           uniform 0;
    }
    lowerWall
    {
        type            calculated;
        value           uniform 0;
    }
    atmosphere
    {
        type            calculated;
        value           uniform 0;
    }
    defaultFaces
    {
        type            empty;
    }
}


// ************************************************************************* //
