/*--------------------------------*- C++ -*----------------------------------*\
| =========                 |                                                 |
| \\      /  F ield         | OpenFOAM: The Open Source CFD Toolbox           |
|  \\    /   O peration     | Version:  2012                                  |
|   \\  /    A nd           | Website:  www.openfoam.com                      |
|    \\/     M anipulation  |                                                 |
\*---------------------------------------------------------------------------*/
FoamFile
{
    version     2.0;
    format      ascii;
    class       volScalarField;
    location    "0.14";
    object      volumeFraction1;
}
// * * * * * * * * * * * * * * * * * * * * * * * * * * * * * * * * * * * * * //

dimensions      [0 0 0 0 0 0 0];


internalField   nonuniform List<scalar> 
2268
(
1
1
1
1
1
1
1
1
1
1
1
1
1
1
1
1
1
1
1
1
1
1
0.905539
1
1
1
1
1
1
1
1
1
1
1
1
1
1
1
1
1
1
1
1
1
1
0.905538
1
1
1
1
1
1
1
1
1
1
1
1
1
1
1
1
1
1
1
1
1
1
0.909492
1
1
1
1
1
1
1
1
1
1
1
1
1
1
1
1
1
1
1
1
1
1
0.977521
1
1
1
1
1
1
1
1
1
1
1
1
1
1
1
1
1
1
1
0.999978
1
1
0.998176
1
1
1
1
1
1
1
1
1
1
1
1
1
1
1
1
1
1
1
0.988772
0.959282
0.927457
0.986982
1
1
1
1
1
1
1
1
1
1
1
1
1
1
1
1
1
1
1
0.898961
0.68281
0.436735
0.946902
1
1
1
1
1
1
1
1
1
1
1
1
1
1
1
1
1
1
0.939311
0.584077
0.180114
0.0277384
0.822172
4.92034e-26
1.10795e-24
1.02534e-28
4.53838e-27
3.39887e-30
1.3666e-31
8.33619e-34
9.8334e-36
8.77286e-38
7.04279e-40
5.17205e-42
3.73747e-44
2.60159e-46
1.6364e-48
8.68166e-51
3.71051e-53
1.17103e-55
2.43421e-58
4.92179e-61
9.638e-24
2.16364e-22
2.15916e-26
8.35538e-25
8.8954e-28
3.5396e-29
2.44535e-31
3.01508e-33
2.78535e-35
2.28962e-37
1.71437e-39
1.25967e-41
8.83266e-44
5.5567e-46
2.93926e-48
1.24921e-50
3.91854e-53
8.09936e-56
8.14669e-59
1.09918e-21
1.94846e-20
3.06446e-24
7.14622e-23
1.17302e-25
4.34968e-27
3.49409e-29
4.5141e-31
4.35212e-33
3.6594e-35
2.75279e-37
2.01797e-39
1.40884e-41
8.81211e-44
4.6245e-46
1.9493e-48
6.06229e-51
1.24341e-53
1.24168e-56
6.04727e-20
9.98551e-19
3.98274e-22
3.60196e-21
9.58956e-24
3.2905e-25
3.25902e-27
4.47861e-29
4.66028e-31
4.1912e-33
3.38878e-35
2.64525e-37
1.92038e-39
1.22764e-41
6.52291e-44
2.75956e-46
8.57486e-49
1.74889e-51
1.73385e-54
2.77044e-18
3.3324e-17
5.69607e-20
1.20217e-19
5.37565e-22
1.70806e-23
2.01547e-25
2.98374e-27
3.31398e-29
3.09705e-31
2.53669e-33
1.99642e-35
1.4545e-37
9.30953e-40
4.93364e-42
2.07961e-44
6.42579e-47
1.30327e-49
1.28361e-52
6.31853e-17
7.49609e-16
4.68169e-18
2.72401e-18
2.06165e-20
6.34546e-22
9.69531e-24
1.55985e-25
1.9435e-27
2.03621e-29
1.89152e-31
1.64921e-33
1.28662e-35
8.61142e-38
4.7111e-40
2.02433e-42
6.3318e-45
1.2896e-47
1.27064e-50
1.27929e-15
1.17333e-14
2.185e-16
4.45217e-17
5.58945e-19
1.73285e-20
3.11488e-22
5.51354e-24
7.45794e-26
8.2197e-28
7.82052e-30
6.97415e-32
5.51596e-34
3.72783e-36
2.04847e-38
8.82781e-41
2.76154e-43
5.62407e-46
5.53168e-49
1.40188e-14
1.32571e-13
5.33819e-15
5.29893e-16
1.06778e-17
3.57645e-19
8.14527e-21
1.63239e-22
2.57306e-24
3.34491e-26
3.7879e-28
3.83699e-30
3.32039e-32
2.3899e-34
1.37776e-36
6.1381e-39
1.96933e-41
4.07645e-44
4.05924e-47
1
1
1
1
1
1
1
1
1
1
1
1
1
1
1
1
1
0.958084
0.607067
0.113084
0.0115785
0.00187482
0.167336
1
1
1
1
1
1
1
1
1
1
1
1
1
1
1
1
0.96226
0.496176
0.0406893
0.00199136
0.000284756
0.000177552
0.00106947
1
1
1
1
1
1
1
1
1
1
1
1
1
1
1
1
0.550528
0.0357716
0.000209273
6.25405e-06
6.74211e-07
4.38278e-07
8.30533e-08
1
1
1
1
1
1
1
1
1
1
1
1
1
1
1
0.714665
0.102434
0.00123427
8.08916e-07
5.73081e-09
2.25349e-09
1.35529e-09
6.664e-10
1
1
1
1
1
1
1
1
1
1
1
1
1
1
0.937108
0.273414
0.00688704
2.19504e-05
1.51765e-08
8.18815e-10
3.88107e-10
2.57456e-10
3.1972e-10
1
1
1
1
1
1
1
1
1
1
1
1
1
1
0.593731
0.0375188
0.000167983
2.11968e-07
6.97005e-10
2.60322e-10
2.43246e-10
1.32794e-10
2.95356e-10
1
1
1
1
1
1
1
1
1
1
1
1
1
0.941206
0.231778
0.00509032
3.70026e-06
1.26081e-10
1.52022e-10
8.77886e-11
1.01055e-10
6.31213e-11
2.19219e-10
1
1
1
1
1
1
1
1
1
1
1
1
1
0.611527
0.044887
0.000253173
1.10419e-07
4.87126e-11
4.46321e-11
2.62567e-11
3.34682e-11
2.38256e-11
1.10317e-10
1
1
1
1
1
1
1
1
1
1
1
1
1
0.290149
0.00638851
6.25356e-06
1.53287e-09
1.09177e-12
1.33412e-11
6.55132e-12
8.91211e-12
5.73098e-12
3.1769e-11
1
1
1
1
1
1
1
1
1
1
1
1
0.800532
0.100017
0.000846701
2.02219e-07
6.62367e-15
1.09189e-12
3.29298e-12
1.34401e-12
1.91489e-12
9.55798e-13
6.13675e-12
1
1
1
1
1
1
1
1
0.999998
0.999973
0.99968
0.999936
0.486394
0.0229507
4.95091e-05
8.32342e-11
6.55226e-15
6.28308e-13
6.77122e-13
2.26211e-13
3.35588e-13
1.26035e-13
8.51867e-13
0.999996
0.999995
0.999993
0.999985
0.99996
0.999819
0.999383
0.997468
0.992927
0.975164
0.915264
0.786017
0.190576
0.0110911
6.77287e-06
1.30214e-24
2.27718e-14
1.50373e-13
1.16011e-13
3.18589e-14
4.83333e-14
1.42367e-14
9.04001e-14
0.9882
0.986701
0.984317
0.975528
0.960495
0.920348
0.871001
0.767791
0.659923
0.445391
0.266251
0.119997
0.0219336
0.0100916
1.1952e-05
1.50751e-24
9.15975e-15
2.59703e-14
1.69952e-14
3.86743e-15
5.81834e-15
1.40156e-15
7.71814e-15
0.552643
0.532466
0.498576
0.427306
0.365409
0.269764
0.198401
0.105106
0.046516
2.34211e-23
2.6685e-27
5.14525e-29
5.43081e-29
0.012887
0.000155155
1.30212e-24
1.60777e-15
3.75495e-15
2.14467e-15
4.18064e-16
5.94748e-16
1.22988e-16
5.51369e-16
0.00487833
0
2.40531e-38
5.03511e-36
3.64296e-35
-2.01272e-34
-1.78399e-33
-2.81255e-31
-1.32449e-29
-8.51305e-32
2.43577e-09
1.9722e-10
5.45932e-12
0.0131611
0.000178026
1.50751e-24
2.52458e-16
4.85064e-16
2.35727e-16
4.08801e-17
5.22331e-17
9.63058e-18
3.38818e-17
5.76957e-23
3.70163e-22
1.51816e-19
1.41833e-17
4.84364e-16
1.1214e-14
1.50267e-13
1.33917e-12
1.18634e-11
-2.01347e-30
8.42188e-07
2.4832e-06
5.4558e-12
0.0130924
2.08788e-22
2.94512e-18
4.28363e-17
5.7119e-17
2.26682e-17
3.61599e-18
3.9709e-18
6.73133e-19
1.82648e-18
1.1494e-20
1.49132e-19
7.76801e-18
2.67034e-16
6.03795e-15
9.2393e-14
9.28255e-13
7.07261e-12
8.80323e-11
6.19348e-27
6.43629e-06
5.19496e-05
2.01998e-07
0.00314563
-9.39034e-37
1.53954e-18
7.653e-18
6.00218e-18
1.90823e-18
2.86575e-19
2.61174e-19
4.17729e-20
8.70654e-20
2.28104e-20
5.1169e-19
2.4893e-17
7.50519e-16
1.48387e-14
2.00504e-13
2.02902e-12
2.15358e-11
6.39974e-10
4.80271e-08
1.57137e-05
6.85442e-05
6.5391e-05
2.10403e-20
2.10438e-20
1.45522e-18
3.33138e-18
5.72106e-19
1.4112e-19
1.99729e-20
1.48619e-20
2.28401e-21
3.68373e-21
2.29951e-20
6.40227e-19
3.10764e-17
9.22027e-16
1.79256e-14
2.53385e-13
3.86365e-12
9.13818e-11
4.9735e-09
1.09789e-07
7.68771e-06
5.33221e-05
6.53941e-05
1.18459e-05
6.28462e-21
1.22502e-19
2.88618e-18
5.13481e-20
9.14991e-21
1.19491e-21
7.31939e-22
1.08662e-22
1.37739e-22
9.17847e-21
3.54755e-19
1.86223e-17
5.65557e-16
1.1418e-14
2.11397e-13
5.51477e-12
2.11129e-10
1.53641e-08
1.03638e-07
1.51569e-07
2.47936e-06
2.61227e-05
2.66988e-05
1.3063e-05
1.42715e-24
2.88279e-18
4.88101e-21
5.17398e-22
6.05474e-23
3.1279e-23
4.45141e-24
4.51795e-24
1.56758e-21
7.20264e-20
3.58266e-18
1.03913e-16
1.87921e-15
2.17663e-14
1.54973e-13
2.81886e-13
1.93842e-16
1.89788e-16
1.25254e-06
3.89022e-06
3.89165e-06
4.81159e-06
2.61078e-06
1.61324e-24
1.95492e-18
3.78094e-22
2.56457e-23
2.60867e-24
1.15197e-24
1.56357e-25
1.28654e-25
7.77848e-26
9.34791e-24
5.20742e-22
1.76629e-20
4.03929e-19
6.2962e-18
6.1137e-17
2.91233e-16
2.4517e-15
5.65224e-15
9.389e-16
9.39225e-16
9.389e-16
3.08091e-07
8.53827e-08
1.42715e-24
4.56103e-19
2.47837e-23
1.13142e-24
9.63681e-26
3.62406e-26
4.68784e-27
3.17598e-27
3.5573e-26
5.33852e-24
3.64887e-22
1.46459e-20
3.88356e-19
7.18175e-18
9.48439e-17
8.83755e-16
5.42986e-15
1.2422e-14
1.45121e-14
2.46995e-14
5.20065e-14
5.19921e-14
4.45773e-09
1.61324e-24
5.80984e-20
1.33303e-24
4.51616e-26
3.108e-27
9.7243e-28
1.19528e-28
6.8082e-29
3.22048e-29
5.20976e-27
3.94067e-25
1.83567e-23
5.87859e-22
1.37301e-20
2.43777e-19
3.47817e-18
4.31313e-17
5.14719e-16
6.03963e-15
6.50176e-14
5.46358e-13
3.38992e-12
8.67416e-12
1.42715e-24
4.38574e-21
6.04337e-26
1.60864e-27
8.89681e-29
2.22553e-29
2.58185e-30
1.26951e-30
1.00855e-32
1.53385e-30
1.08623e-28
4.71811e-27
1.39968e-25
2.99296e-24
4.73391e-23
5.63594e-22
5.0459e-21
3.39271e-20
1.62552e-19
2.9807e-19
1.123e-19
1.24819e-21
1.24819e-21
3.13832e-20
2.10742e-22
2.44767e-27
4.91341e-29
2.27134e-30
4.37911e-31
4.73657e-32
2.06436e-32
6.35882e-38
1.16123e-35
9.99465e-34
5.35253e-32
1.98754e-30
5.41423e-29
1.11546e-27
1.7775e-26
2.21095e-25
2.17284e-24
1.68601e-23
1.03627e-22
5.03364e-22
1.42543e-21
1.89959e-21
1.63248e-21
6.05548e-24
8.90195e-29
1.22614e-30
5.10872e-32
7.5074e-33
7.42775e-34
2.92152e-34
4.92564e-41
9.03152e-39
7.82544e-37
4.23711e-35
1.60075e-33
4.46714e-32
9.49723e-31
1.57117e-29
2.03989e-28
2.09597e-27
1.69645e-26
1.06915e-25
5.01881e-25
1.14192e-24
1.4051e-24
7.55221e-25
1.22919e-25
2.57105e-30
2.40169e-32
9.85774e-34
1.13913e-34
1.00796e-35
3.59629e-36
4.61302e-47
8.37985e-45
7.28083e-43
4.02725e-41
1.59524e-39
4.83034e-38
1.16269e-36
2.28914e-35
3.74469e-34
5.15105e-33
5.97136e-32
5.83148e-31
4.76431e-30
3.20332e-29
1.72967e-28
7.08345e-28
1.38932e-27
5.11191e-32
3.616e-34
1.58811e-35
1.54536e-36
1.20609e-37
3.85972e-38
3.38497e-51
8.2031e-49
9.47911e-47
6.92236e-45
3.57742e-43
1.38765e-41
4.18486e-40
1.00458e-38
1.94762e-37
3.08144e-36
3.99502e-35
4.24367e-34
3.66537e-33
2.50533e-32
1.25085e-31
2.57229e-31
4.32229e-31
6.06196e-34
4.12084e-36
2.07398e-37
1.86905e-38
1.29861e-39
3.63106e-40
5.84611e-57
1.36179e-54
1.50235e-52
1.04105e-50
5.07632e-49
1.84777e-47
5.20203e-46
1.15919e-44
2.07145e-43
2.99373e-42
3.4979e-41
3.28222e-40
2.42132e-39
1.34447e-38
5.29588e-38
1.56301e-37
7.69537e-37
3.86456e-36
3.48914e-38
2.15162e-39
1.98872e-40
1.27978e-41
3.02173e-42
3.28e-65
1.14742e-62
1.9382e-60
2.10134e-58
1.64433e-56
9.88146e-55
4.75261e-53
1.8804e-51
6.25662e-50
1.78041e-48
4.39553e-47
9.53544e-46
1.83908e-44
3.18695e-43
4.99798e-42
7.12005e-41
9.31139e-40
6.55396e-39
2.12057e-40
1.73868e-41
1.82374e-42
1.15876e-43
2.25587e-44
2.66581e-70
9.20118e-68
1.52465e-65
1.61299e-63
1.22546e-61
7.11115e-60
3.28061e-58
1.2338e-56
3.84943e-55
1.00771e-53
2.2289e-52
4.18878e-51
6.73193e-50
9.47972e-49
1.27708e-47
1.9954e-46
4.21941e-45
1.43894e-43
8.91896e-43
1.07922e-43
1.41343e-44
9.56467e-46
1.54159e-46
4.83e-77
2.46937e-74
6.15064e-72
9.93201e-70
1.17175e-67
1.07577e-65
8.02746e-64
5.00808e-62
2.67475e-60
1.24545e-58
5.1359e-57
1.90383e-55
6.4355e-54
2.01672e-52
5.95576e-51
1.69225e-49
4.75203e-48
1.36455e-46
2.20875e-45
5.0691e-46
9.12969e-47
7.08218e-48
9.85039e-49
1.85855e-81
1.08315e-78
3.07563e-76
5.66424e-74
7.62776e-72
8.00337e-70
6.83441e-68
4.88903e-66
3.00109e-64
1.61146e-62
7.70696e-61
3.34467e-59
1.34044e-57
5.06293e-56
1.8456e-54
6.70906e-53
2.52505e-51
1.01233e-49
2.3928e-48
1.78958e-48
4.87444e-49
4.63707e-50
5.97635e-51
1.18295e-87
7.71198e-85
2.46124e-82
5.10528e-80
7.74431e-78
9.13823e-76
8.76375e-74
7.04698e-72
4.89826e-70
3.03593e-68
1.73733e-66
9.54646e-65
5.23369e-63
2.96398e-61
1.76961e-59
1.11187e-57
7.20114e-56
5.21213e-54
5.99533e-52
4.64366e-51
2.14875e-51
2.66051e-52
3.4582e-53
2.5573e-93
2.47114e-90
1.17173e-87
3.63226e-85
8.31233e-83
1.49859e-80
2.22706e-78
2.81258e-76
3.09745e-74
3.03673e-72
2.70101e-70
2.21926e-68
1.71001e-66
1.25489e-64
8.8922e-63
6.18684e-61
4.29971e-59
3.04115e-57
2.26423e-55
8.5945e-54
7.89808e-54
1.33544e-54
1.89823e-55
3.60076e-98
4.39467e-95
2.63074e-92
1.02869e-89
2.9676e-87
6.73898e-85
1.26065e-82
2.00215e-80
2.76811e-78
3.39751e-76
3.76293e-74
3.81605e-72
3.58408e-70
3.15463e-68
2.62911e-66
2.11081e-64
1.67327e-62
1.35309e-60
1.15367e-58
1.12975e-56
2.42447e-56
5.89388e-57
9.80708e-58
5.89559e-104
9.0521e-101
6.83604e-98
3.38793e-95
1.24698e-92
3.64612e-90
8.87647e-88
1.85751e-85
3.43206e-83
5.71959e-81
8.76099e-79
1.25454e-76
1.70057e-74
2.20871e-72
2.78277e-70
3.46653e-68
4.34649e-66
5.529e-64
7.1846e-62
1.04136e-59
6.29499e-59
2.31165e-59
4.74643e-60
6.64824e-111
1.60132e-107
1.92202e-104
1.53526e-101
9.23674e-99
4.46546e-96
1.81233e-93
6.3469e-91
1.96012e-88
5.42281e-86
1.36022e-83
3.1255e-81
6.6467e-79
1.32981e-76
2.55472e-74
4.84248e-72
9.20319e-70
1.75259e-67
3.37239e-65
7.34522e-63
1.41707e-61
8.18702e-62
2.15616e-62
3.27032e-118
1.34962e-114
2.80008e-111
3.88419e-108
4.04507e-105
3.35684e-102
2.31146e-99
1.35622e-96
6.93752e-94
3.14988e-91
1.28997e-88
4.83476e-86
1.67934e-83
5.494e-81
1.72505e-78
5.30901e-76
1.61479e-73
4.83548e-71
1.44984e-68
4.89913e-66
2.83451e-64
2.67409e-64
9.26327e-65
9.35516e-127
8.03173e-123
3.41536e-119
9.53871e-116
1.97497e-112
3.23682e-109
4.39344e-106
5.09084e-103
5.14928e-100
4.62081e-97
3.72042e-94
2.71796e-91
1.81818e-88
1.12917e-85
6.59713e-83
3.69265e-80
1.99854e-77
1.05065e-74
5.49496e-72
3.2317e-69
5.25081e-67
8.2152e-67
3.80988e-67
4.76244e-137
1.05478e-132
1.0714e-128
6.67693e-125
2.91708e-121
9.69961e-118
2.59769e-114
5.85705e-111
1.15224e-107
2.04173e-104
3.34489e-101
5.18618e-98
7.75914e-95
1.14411e-91
1.70014e-88
2.58737e-85
4.01733e-82
6.2521e-79
9.93298e-76
1.8231e-72
9.33969e-70
2.42813e-69
1.51893e-69
0.0162485
3.63579e-13
3.63579e-13
3.63579e-13
0.00294662
0.000199384
3.63579e-13
1.91474e-11
2.45955e-06
2.41975e-05
1.82636e-06
4.29493e-10
3.32368e-10
1.91463e-09
1.86807e-07
2.27333e-08
2.88056e-10
2.88059e-10
1.4161e-09
3.38437e-09
2.88201e-10
3.40084e-10
5.28885e-10
7.00963e-10
2.47866e-10
2.91369e-10
3.04337e-10
2.61847e-10
1.32851e-10
1.23962e-10
9.52585e-11
6.39387e-11
3.10259e-11
2.50309e-11
1.76681e-11
9.89379e-12
4.77257e-12
3.55581e-12
2.24156e-12
1.09637e-12
5.30286e-13
3.81287e-13
2.1284e-13
9.43265e-14
4.59088e-14
3.27498e-14
1.60022e-14
6.60261e-15
3.27988e-15
2.34403e-15
9.89752e-16
3.88432e-16
2.01697e-16
1.42855e-16
5.23355e-17
1.9755e-17
1.0912e-17
7.50384e-18
2.41369e-18
8.7435e-19
5.25752e-19
3.43386e-19
9.85952e-20
3.39203e-20
2.25827e-20
1.37667e-20
3.57798e-21
1.15949e-21
8.6324e-22
4.86954e-22
1.15798e-22
3.5163e-23
2.91715e-23
1.52176e-23
3.33631e-24
9.47733e-25
8.68042e-25
4.19836e-25
8.55115e-26
2.27746e-26
2.26808e-26
1.02038e-26
1.94705e-27
4.88111e-28
5.19883e-28
2.18467e-28
3.94112e-29
9.35261e-30
1.04401e-29
4.11908e-30
7.08796e-31
1.60135e-31
1.83209e-31
6.83022e-32
1.13081e-32
2.44746e-33
2.80998e-33
9.9699e-34
1.60093e-34
3.33992e-35
3.76541e-35
1.28153e-35
2.01078e-36
4.06998e-37
4.41196e-37
1.45181e-37
2.24175e-38
4.43276e-39
4.52906e-39
1.45196e-39
2.22103e-40
4.32117e-41
4.08695e-41
1.28444e-41
1.95952e-42
3.77704e-43
3.26058e-43
1.00827e-43
1.54468e-44
2.96781e-45
2.31559e-45
7.04977e-46
1.09212e-46
2.10173e-47
1.47814e-47
4.41653e-48
6.96051e-49
1.34651e-49
8.59052e-50
2.49824e-50
4.02201e-51
7.84204e-52
4.62501e-52
1.29005e-52
2.12348e-53
4.18024e-54
2.35447e-54
6.16982e-55
1.03453e-55
2.05701e-56
1.15691e-56
2.78373e-57
4.71105e-58
9.44312e-59
5.57235e-59
1.21053e-59
2.0375e-60
4.09649e-61
2.65005e-61
5.18433e-62
8.52884e-63
1.70528e-63
1.2447e-63
2.22561e-64
3.5255e-65
6.9333e-66
5.76408e-66
9.68078e-67
1.46665e-67
2.80649e-68
2.63124e-68
4.28188e-69
6.22768e-70
1.15171e-70
1.18498e-70
1.92014e-71
2.71311e-72
4.84749e-73
3.95791e-13
1.56457e-12
1.06168e-13
6.95703e-15
2.23219e-16
7.80478e-18
2.08969e-19
4.68675e-21
8.17083e-23
1.11228e-24
1.31328e-26
1.39858e-28
1.25337e-30
9.27601e-33
5.43679e-35
2.45456e-37
7.93568e-40
1.65583e-42
1.65859e-45
2.24158e-11
1.09841e-11
1.02238e-12
7.67386e-14
3.9511e-15
1.69628e-16
5.78765e-18
1.64499e-19
3.821e-21
7.314e-23
1.14292e-24
1.45569e-26
1.49653e-28
1.2281e-30
7.84838e-33
3.78644e-35
1.29657e-37
2.82609e-40
2.94467e-43
1.59702e-10
4.72183e-11
5.68462e-12
4.67453e-13
2.42903e-14
9.38542e-16
2.71926e-17
6.26564e-19
1.15569e-20
1.76537e-22
2.21295e-24
2.28553e-26
1.90959e-28
1.28924e-30
6.8311e-33
2.77547e-35
8.09128e-38
1.52568e-40
2.27417e-43
6.63038e-10
1.17088e-10
1.65396e-11
1.57739e-12
1.00397e-13
4.47598e-15
1.44239e-16
3.48921e-18
6.43119e-20
9.26573e-22
1.05701e-23
9.6801e-26
7.11736e-28
4.18602e-30
1.93487e-32
6.83134e-35
1.73771e-37
2.8589e-40
2.29665e-43
7.8682e-10
1.19705e-10
1.40663e-11
1.09761e-12
5.62197e-14
2.00194e-15
5.15659e-17
1.01672e-18
1.57929e-20
2.01146e-22
2.08199e-24
1.77858e-26
1.2315e-28
6.91883e-31
3.0572e-33
1.0384e-35
2.53395e-38
4.00838e-41
3.07696e-44
3.13175e-10
4.99016e-11
5.41207e-12
3.94861e-13
1.9466e-14
6.84428e-16
1.76994e-17
3.50339e-19
5.40081e-21
6.63199e-23
6.53606e-25
5.22271e-27
3.3717e-29
1.7538e-31
7.1998e-34
2.27003e-36
5.18068e-39
7.68263e-42
5.57459e-45
8.43598e-11
1.13817e-11
9.96043e-13
6.01186e-14
2.52156e-15
7.84519e-17
1.8271e-18
3.3388e-20
4.78349e-22
5.55563e-24
5.18737e-26
3.97244e-28
2.45464e-30
1.23019e-32
4.85524e-35
1.47864e-37
3.25391e-40
4.67133e-43
3.28154e-46
1.47891e-11
1.68975e-12
1.2683e-13
6.94064e-15
2.72424e-16
8.18657e-18
1.86373e-19
3.35893e-21
4.75805e-23
5.4531e-25
5.0184e-27
3.77067e-29
2.28391e-31
1.11716e-33
4.30366e-36
1.27517e-38
2.73412e-41
3.81925e-44
2.6191e-47
1.84259e-12
1.81715e-13
1.17512e-14
5.75507e-16
2.02982e-17
5.62099e-19
1.1826e-20
2.00604e-22
2.67705e-24
2.9318e-26
2.57637e-28
1.86778e-30
1.08934e-32
5.17138e-35
1.92938e-37
5.56788e-40
1.16095e-42
1.58337e-45
1.05949e-48
1.71995e-13
1.52149e-14
8.68323e-16
3.89938e-17
1.26379e-18
3.29902e-20
6.57673e-22
1.07343e-23
1.38301e-25
1.47418e-27
1.26292e-29
8.9569e-32
5.11587e-34
2.37936e-36
8.70591e-39
2.46249e-41
5.03876e-44
6.73848e-47
4.42778e-50
1.26119e-14
1.02246e-15
5.13975e-17
2.11736e-18
6.22353e-20
1.5153e-21
2.80599e-23
4.33782e-25
5.28312e-27
5.39809e-29
4.4265e-31
3.03579e-33
1.67413e-35
7.57643e-38
2.69365e-40
7.44547e-43
1.48752e-45
1.95019e-48
1.25634e-51
7.52442e-16
5.73153e-17
2.55397e-18
9.79241e-20
2.63473e-21
6.04218e-23
1.04863e-24
1.54762e-26
1.79763e-28
1.77259e-30
1.40297e-32
9.35563e-35
5.01924e-37
2.21914e-39
7.71413e-42
2.08942e-44
4.09527e-47
5.27193e-50
3.33985e-53
3.7238e-17
2.71641e-18
1.06004e-19
3.80515e-21
9.28262e-23
2.00501e-24
3.22991e-26
4.53519e-28
4.97511e-30
4.71251e-32
3.56829e-34
2.30411e-36
1.19407e-38
5.14379e-41
1.73979e-43
4.61266e-46
8.84609e-49
1.11862e-51
6.96605e-55
1.55884e-18
1.11672e-19
3.78613e-21
1.29181e-22
2.86546e-24
5.87529e-26
8.82137e-28
1.18414e-29
1.23161e-31
1.12449e-33
8.17522e-36
5.12417e-38
2.57338e-40
1.08191e-42
3.57008e-45
9.27463e-48
1.74398e-50
2.16738e-53
1.32862e-56
5.76912e-20
4.0095e-21
1.14842e-22
3.79004e-24
7.54245e-26
1.47926e-27
2.05287e-29
2.64338e-31
2.59131e-33
2.28326e-35
1.58676e-37
9.65843e-40
4.68584e-42
1.92357e-44
6.18155e-47
1.57485e-49
2.90211e-52
3.54918e-55
2.14326e-58
1.92634e-21
1.30563e-22
3.01924e-24
9.894e-26
1.75552e-27
3.33483e-29
4.28008e-31
5.31906e-33
4.924e-35
4.20222e-37
2.79702e-39
1.65699e-41
7.77868e-44
3.12197e-46
9.78245e-49
2.4458e-51
4.42097e-54
5.32228e-57
3.16861e-60
5.82607e-23
3.85297e-24
7.27702e-26
2.31854e-27
3.51649e-29
6.61137e-31
7.74191e-33
9.38995e-35
8.15362e-37
6.78112e-39
4.30784e-41
2.49345e-43
1.13082e-45
4.44959e-48
1.35912e-50
3.34225e-53
5.93069e-56
7.04278e-59
4.14049e-62
1.60418e-24
1.03158e-25
1.63439e-27
5.08532e-29
6.44138e-31
1.1918e-32
1.26178e-34
1.51288e-36
1.23038e-38
1.0036e-40
6.08797e-43
3.4548e-45
1.5148e-47
5.85494e-50
1.7442e-52
4.22306e-55
7.35796e-58
8.62204e-61
5.00655e-64
4.01561e-26
2.5014e-27
3.40635e-29
1.03634e-30
1.1215e-32
2.02494e-34
1.85116e-36
2.19094e-38
1.64263e-40
1.3326e-42
7.67018e-45
4.30211e-47
1.8192e-49
6.94248e-52
2.0167e-54
4.82498e-57
8.26633e-60
9.58743e-63
5.51489e-66
9.14855e-28
5.49794e-29
6.59261e-31
1.96019e-32
1.85259e-34
3.27496e-36
2.62867e-38
3.04278e-40
2.02758e-42
1.64532e-44
8.94596e-47
4.99498e-49
2.03472e-51
7.69531e-54
2.17884e-56
5.16043e-59
8.6885e-62
9.97535e-65
5.67932e-68
1.89304e-29
1.09273e-30
1.18127e-32
3.42746e-34
2.89057e-36
5.0125e-38
3.59443e-40
4.08613e-42
2.45287e-44
1.94771e-46
9.68966e-49
5.34766e-51
2.07332e-53
7.83943e-56
2.15826e-58
5.08756e-61
8.4198e-64
9.59752e-67
5.40696e-70
3.55738e-31
1.9664e-32
1.96078e-34
5.54185e-36
4.25831e-38
7.24336e-40
4.71984e-42
5.27796e-44
2.89374e-46
2.25499e-48
1.03702e-50
5.64766e-53
2.04274e-55
7.63965e-58
2.02508e-60
4.76447e-63
7.74806e-66
8.79778e-69
4.9212e-72
6.05428e-33
3.20161e-34
3.00667e-36
8.2695e-38
5.9027e-40
9.84752e-42
5.92764e-44
6.52751e-46
3.31449e-48
2.54159e-50
1.09157e-52
5.87455e-55
2.00184e-57
7.40294e-60
1.87273e-62
4.35984e-65
6.89144e-68
7.77471e-71
4.29663e-74
9.31091e-35
4.72055e-36
4.25783e-38
1.1399e-39
7.69787e-42
1.25916e-43
7.11295e-46
7.71428e-48
3.67648e-50
2.77776e-52
1.12528e-54
5.98703e-57
1.94136e-59
7.09572e-62
1.72676e-64
3.97895e-67
6.12962e-70
6.8722e-73
3.75777e-76
1.29247e-36
6.30545e-38
5.55944e-40
1.45084e-41
9.42369e-44
1.51202e-45
8.13334e-48
8.69186e-50
3.93742e-52
2.93453e-54
1.13238e-56
5.95874e-59
1.85557e-61
6.70439e-64
1.5801e-66
3.60803e-69
5.43486e-72
6.05822e-75
3.28286e-78
1.61744e-38
7.63534e-40
6.68823e-42
1.70607e-43
1.08245e-45
1.70557e-47
8.85765e-50
9.3323e-52
4.06698e-54
2.9915e-56
1.11023e-58
5.77857e-61
1.74241e-63
6.22623e-66
1.42912e-68
3.23766e-71
4.78662e-74
5.30763e-77
2.8547e-80
1.82507e-40
8.39558e-42
7.41549e-44
1.85534e-45
1.16586e-47
1.80721e-49
9.17553e-52
9.54083e-54
4.04474e-56
2.9385e-58
1.05862e-60
5.45216e-63
1.60384e-65
5.67411e-68
1.27494e-70
2.86927e-73
4.1805e-76
4.61563e-79
2.46831e-82
1.85715e-42
8.39584e-44
7.57991e-46
1.86823e-47
1.17755e-49
1.80011e-51
9.03994e-54
9.28991e-56
3.87159e-58
2.78021e-60
9.80967e-63
5.00134e-65
1.44528e-67
5.06864e-70
1.12044e-72
2.50754e-75
3.61553e-78
3.97938e-81
2.12002e-84
1.70597e-44
7.65431e-46
7.15065e-48
1.74507e-49
1.11602e-51
1.68756e-53
8.47163e-56
8.61958e-58
3.56515e-60
2.53363e-62
8.82904e-65
4.45987e-67
1.27429e-69
4.43724e-72
9.69836e-75
2.16108e-77
3.0963e-80
3.40253e-83
1.80981e-86
1.41735e-46
6.37928e-48
6.23508e-50
1.51527e-51
9.93563e-54
1.49128e-55
7.55713e-58
7.62905e-60
3.15946e-62
2.2254e-64
7.71986e-67
3.86804e-69
1.09947e-71
3.80791e-74
8.2717e-77
1.8376e-79
2.62662e-82
2.88671e-85
1.53655e-88
1.06829e-48
4.87611e-50
5.03652e-52
1.22646e-53
8.32355e-56
1.24495e-57
6.42547e-60
6.45203e-62
2.69702e-64
1.88644e-66
6.56225e-69
3.2668e-71
9.29144e-74
3.2072e-76
6.96023e-79
1.54407e-81
2.21024e-84
2.4337e-87
1.29933e-90
7.33783e-51
3.43072e-52
3.78056e-54
9.28281e-56
6.57737e-58
9.84399e-60
5.21729e-62
5.22514e-64
2.22113e-66
1.5462e-68
5.43108e-71
2.69165e-73
7.7033e-76
2.65581e-78
5.78835e-81
1.28459e-83
1.84801e-86
2.0421e-89
1.09576e-92
4.61789e-53
2.23135e-54
2.64749e-56
6.59517e-58
4.91815e-60
7.39719e-62
4.05646e-64
4.06406e-66
1.76897e-68
1.22875e-70
4.38633e-73
2.16952e-75
6.28107e-78
2.16803e-80
4.76948e-83
1.06095e-85
1.53878e-88
1.70887e-91
9.22949e-95
2.67998e-55
1.34858e-56
1.73826e-58
4.41804e-60
3.49374e-62
5.30326e-64
3.03043e-66
3.04669e-68
1.36678e-70
9.49991e-73
3.46768e-75
1.71641e-77
5.05255e-80
1.75026e-82
3.90466e-85
8.72272e-88
1.27879e-90
1.42853e-93
7.77178e-97
1.44503e-57
7.62273e-59
1.07632e-60
2.80575e-62
2.36947e-64
3.64494e-66
2.18479e-68
2.21136e-70
1.02873e-72
7.17659e-75
2.69416e-77
1.33849e-79
4.02497e-82
1.40264e-84
3.18588e-87
7.15916e-90
1.06282e-92
1.19462e-95
6.54635e-99
7.30462e-60
4.06095e-61
6.32894e-63
1.69998e-64
1.5432e-66
2.41516e-68
1.528e-70
1.56213e-72
7.57969e-75
5.32383e-77
2.06649e-79
1.03355e-81
3.1881e-84
1.11998e-86
2.59782e-89
5.87908e-92
8.84593e-95
1.00003e-97
5.51499e-101
3.49906e-62
2.05835e-63
3.5632e-65
9.90241e-67
9.71896e-69
1.55328e-70
1.04316e-72
1.08074e-74
5.49845e-77
3.90072e-79
1.5728e-81
7.94145e-84
2.52098e-86
8.94211e-89
2.12192e-91
4.83857e-94
7.37793e-97
8.38001e-100
4.64383e-103
1.60875e-64
1.00363e-65
1.93916e-67
5.59437e-69
5.9661e-71
9.7705e-73
7.00013e-75
7.3729e-77
3.95114e-79
2.83962e-81
1.1937e-83
6.09941e-86
1.99683e-88
7.15834e-91
1.73855e-93
3.99368e-96
6.16515e-99
7.02482e-102
3.90409e-105
7.20315e-67
4.76813e-68
1.03125e-69
3.09659e-71
3.60187e-73
6.06341e-75
4.65265e-77
4.99719e-79
2.8304e-81
2.06625e-83
9.07617e-86
4.70138e-88
1.58844e-90
5.75618e-93
1.42961e-95
3.30554e-98
5.15733e-101
5.88468e-104
3.2729e-107
3.19143e-69
2.23893e-70
5.42353e-72
1.69805e-73
2.15915e-75
3.74629e-77
3.08649e-79
3.38973e-81
2.03291e-83
1.51072e-85
6.93809e-88
3.64686e-90
1.27073e-92
4.65275e-95
1.17945e-97
2.74149e-100
4.31383e-103
4.92009e-106
2.73273e-109
1.42101e-71
1.05464e-72
2.85547e-74
9.3324e-76
1.29757e-77
2.32574e-79
2.05852e-81
2.31692e-83
1.47112e-85
1.11449e-87
5.34499e-90
2.85153e-92
1.0227e-94
3.77991e-97
9.75453e-100
2.27596e-102
3.6038e-105
4.1016e-108
2.27069e-111
6.42124e-74
5.03262e-75
1.51498e-76
5.17023e-78
7.84081e-80
1.45388e-81
1.37965e-83
1.59367e-85
1.06865e-87
8.25797e-90
4.12317e-92
2.23134e-94
8.21179e-97
3.05962e-99
8.01347e-102
1.87395e-104
2.97911e-107
3.37841e-110
1.86228e-113
)
;

boundaryField
{
    leftWall
    {
        type            zeroGradient;
    }
    rightWall
    {
        type            zeroGradient;
    }
    lowerWall
    {
        type            zeroGradient;
    }
    atmosphere
    {
        type            inletOutlet;
        inletValue      uniform 0;
        value           nonuniform List<scalar> 
46
(
0
0
0
0
0
0
0
0
0
0
0
0
0
0
0
0
0
0
0
1.8231e-72
9.33969e-70
2.42813e-69
1.51893e-69
1.18498e-70
1.92014e-71
2.71311e-72
4.84749e-73
6.42124e-74
5.03262e-75
1.51498e-76
5.17023e-78
7.84081e-80
1.45388e-81
1.37965e-83
1.59367e-85
1.06865e-87
8.25797e-90
4.12317e-92
2.23134e-94
8.21179e-97
3.05962e-99
8.01347e-102
1.87395e-104
2.97911e-107
3.37841e-110
1.86228e-113
)
;
    }
    defaultFaces
    {
        type            empty;
    }
}


// ************************************************************************* //
