/*--------------------------------*- C++ -*----------------------------------*\
| =========                 |                                                 |
| \\      /  F ield         | OpenFOAM: The Open Source CFD Toolbox           |
|  \\    /   O peration     | Version:  2012                                  |
|   \\  /    A nd           | Website:  www.openfoam.com                      |
|    \\/     M anipulation  |                                                 |
\*---------------------------------------------------------------------------*/
FoamFile
{
    version     2.0;
    format      ascii;
    class       volScalarField;
    location    "0.55";
    object      p;
}
// * * * * * * * * * * * * * * * * * * * * * * * * * * * * * * * * * * * * * //

dimensions      [1 -1 -2 0 0 0 0];


internalField   nonuniform List<scalar> 
2268
(
574.656
571.245
571.905
576.697
586.676
599.221
611.312
621.91
632.586
645.187
660.499
678.389
698.403
720.154
743.231
767.033
790.474
811.429
827.562
838.135
829.587
832.602
870.992
515.717
511.539
511.803
516.365
526.26
539.085
551.448
562.197
572.956
585.643
600.963
618.774
638.742
660.466
683.479
707.239
730.91
752.788
770.151
784.771
772.593
762.578
806.85
456.275
451.341
450.9
454.662
464.392
477.704
490.619
501.673
512.592
525.454
540.975
558.98
579.065
600.829
623.744
647.187
670.272
692.114
710.365
725.332
717.06
699.708
745.823
397.037
391.017
389.217
391.664
401.128
415.074
428.897
440.448
451.606
464.711
480.489
498.713
518.961
540.867
563.883
587.309
610.246
631.88
650.208
664.575
663.04
650.98
694.856
338.706
330.953
327.074
327.766
336.524
351.401
366.458
378.639
390.087
403.5
419.589
438.066
458.529
480.681
503.953
527.585
550.741
572.542
591.283
606.262
612.709
613.882
650.728
281.621
272.269
265.094
263.814
272.075
287.814
303.799
316.409
328.089
341.826
358.314
377.058
397.746
420.256
443.947
467.96
491.548
513.856
533.45
549.748
561.729
570.894
605.652
226.106
215.231
203.741
200.609
209.176
225.306
241.136
253.661
265.58
279.664
296.574
315.79
336.811
359.766
383.973
408.46
432.605
455.602
476.15
493.722
508.504
521.59
548.798
171.944
160.503
141.26
134.481
144.534
161.754
177.195
189.376
201.98
216.909
234.257
253.863
275.035
298.652
323.781
349.009
374.021
397.945
419.404
438.009
453.758
469.104
485.112
906.562
926.987
863.752
664.638
626.128
619.619
554.083
343.98
241.177
228.05
230.267
234.4
246.555
267.113
282.111
347.143
680.441
1192.77
1157.38
862.835
914.963
814.716
632.089
621.425
595.272
369.302
233.922
216.584
212.246
209.844
209.927
213.652
220.157
228.947
260.381
509.873
1046.52
1095.13
772.638
845.616
725.471
593.641
623.121
525.184
245.611
220.646
215.397
212.4
209.971
208.677
209.422
212.115
215.136
225.097
307.109
743.072
1011.88
640.181
661.538
618.152
560.563
625.364
371.15
229.09
218.801
215.116
212.116
209.561
208.393
209.218
211.732
214.55
220.053
255.481
443.718
913.201
483.044
503.242
551.365
531.406
632.64
269.529
220.774
218.57
214.935
211.755
209.037
207.825
208.698
211.279
214.303
218.603
234.465
296.196
805.459
371.896
395.047
484.799
455.23
626.268
215.389
216.937
218.098
214.468
211.105
208.238
206.999
207.831
210.614
214.071
217.912
224.966
244.335
684.248
253.516
321.533
423.87
365.966
510.335
208.687
216.394
217.191
213.646
210.054
206.989
205.584
206.393
209.513
213.598
217.385
221.207
228.393
540.629
121.307
278.971
378.634
289.75
352.37
210.994
216.345
215.944
212.485
208.607
205.302
203.623
204.27
207.669
212.428
216.646
220.33
221.499
397.775
90.7154
79.9
53.9445
44.2015
55.3485
71.7635
82.9416
91.0417
102.185
117.902
136.771
157.403
178.978
203.977
230.273
256.281
282.446
307.966
330.948
351.13
365.615
370.389
337.34
18.5332
9.27082
2.27816
1.59056
5.1161
10.0371
12.5872
14.3545
17.6671
23.2209
30.9822
41.3791
55.5421
75.3917
101.501
129.773
159.732
188.321
213.053
236.751
259.488
278.103
297.134
-0.0371685
-0.0840587
-0.062734
-0.0648806
-0.0419669
-0.0451845
-0.0477786
-0.0498784
-0.045847
-0.0233063
0.0470099
0.350528
3.06332
8.70032
18.3975
33.3145
52.6739
74.2128
97.0604
123.028
145.675
160.226
170.452
-0.157278
-0.178251
-0.173929
-0.219568
-0.253113
-0.235736
-0.24417
-0.251241
-0.245167
-0.226015
-0.228691
-0.254041
-0.318105
-0.34737
-0.176392
0.70536
3.02122
9.76734
21.7126
38.503
56.5204
67.4395
77.5733
-0.300274
-0.308907
-0.318386
-0.342868
-0.345268
-0.355243
-0.368613
-0.379562
-0.390008
-0.402011
-0.423812
-0.455438
-0.489772
-0.476467
-0.397472
-0.322204
-0.276553
-0.256711
-0.145055
0.0844284
2.1123
6.86466
11.7662
-0.474776
-0.477367
-0.484855
-0.4937
-0.502019
-0.505966
-0.511248
-0.517918
-0.522474
-0.524932
-0.530594
-0.547299
-0.565764
-0.56877
-0.548381
-0.505519
-0.475281
-0.445637
-0.381549
-0.339678
-0.39083
-0.34247
-0.293644
-0.613644
-0.620091
-0.623174
-0.63594
-0.6434
-0.649914
-0.656907
-0.665063
-0.674166
-0.685765
-0.692974
-0.699053
-0.700444
-0.687901
-0.673592
-0.636111
-0.609722
-0.584218
-0.544835
-0.532759
-0.584776
-0.579312
-0.567237
-0.770885
-0.774093
-0.778555
-0.784157
-0.78937
-0.794399
-0.799435
-0.804137
-0.807375
-0.807457
-0.81261
-0.819084
-0.821895
-0.817144
-0.806086
-0.786726
-0.765017
-0.7478
-0.733383
-0.721846
-0.729864
-0.741812
-0.76897
-0.923072
-0.924513
-0.926831
-0.931241
-0.935373
-0.939479
-0.943606
-0.947847
-0.952075
-0.958105
-0.958456
-0.957774
-0.955012
-0.948056
-0.939016
-0.926085
-0.913651
-0.901101
-0.901572
-0.905434
-0.920901
-0.962732
-1.01311
-1.07327
-1.07391
-1.0754
-1.0784
-1.08146
-1.08461
-1.08771
-1.09063
-1.09308
-1.09466
-1.09602
-1.09538
-1.09243
-1.08682
-1.07899
-1.06892
-1.05966
-1.05107
-1.0515
-1.06301
-1.0875
-1.13742
-1.18503
-1.22199
-1.22224
-1.2232
-1.22527
-1.22751
-1.22984
-1.2321
-1.23412
-1.23583
-1.23712
-1.23657
-1.23491
-1.23163
-1.22648
-1.21998
-1.21248
-1.20518
-1.19888
-1.19825
-1.20654
-1.23179
-1.26803
-1.29639
-1.36963
-1.36972
-1.3704
-1.37184
-1.37347
-1.37517
-1.37678
-1.37814
-1.37907
-1.37936
-1.37855
-1.37663
-1.37346
-1.36899
-1.36352
-1.35739
-1.35117
-1.34573
-1.34383
-1.34894
-1.36709
-1.395
-1.40585
-1.51656
-1.51661
-1.51713
-1.51816
-1.51935
-1.5206
-1.52175
-1.52265
-1.52314
-1.52301
-1.52206
-1.5202
-1.51735
-1.51354
-1.50893
-1.50376
-1.4983
-1.49321
-1.49007
-1.49205
-1.50408
-1.52586
-1.53902
-1.66301
-1.66308
-1.66351
-1.66428
-1.66519
-1.66614
-1.667
-1.66763
-1.66791
-1.66768
-1.66681
-1.66522
-1.66286
-1.65976
-1.656
-1.65173
-1.64712
-1.64253
-1.63872
-1.6377
-1.6422
-1.65097
-1.65768
-1.80916
-1.80926
-1.80965
-1.81026
-1.811
-1.81177
-1.81248
-1.81301
-1.81327
-1.81313
-1.81251
-1.81135
-1.80962
-1.80732
-1.80453
-1.80133
-1.79789
-1.79444
-1.79136
-1.78957
-1.7899
-1.79128
-1.79012
-1.95509
-1.95523
-1.95559
-1.95613
-1.95679
-1.95749
-1.95816
-1.95872
-1.95908
-1.95918
-1.95894
-1.95833
-1.95732
-1.95595
-1.95427
-1.95235
-1.95034
-1.94843
-1.94696
-1.94657
-1.94762
-1.94979
-1.95303
-2.10088
-2.10103
-2.10139
-2.10191
-2.10255
-2.10326
-2.10399
-2.10467
-2.10525
-2.10567
-2.10591
-2.10593
-2.10574
-2.10537
-2.10489
-2.10438
-2.10397
-2.10386
-2.1043
-2.10591
-2.10887
-2.11321
-2.11895
-2.24652
-2.24669
-2.24707
-2.2476
-2.24828
-2.24906
-2.2499
-2.25078
-2.25164
-2.25246
-2.25323
-2.25394
-2.25462
-2.25531
-2.25608
-2.25705
-2.25837
-2.26026
-2.26304
-2.26694
-2.27256
-2.28018
-2.29031
-2.39201
-2.39221
-2.3926
-2.39318
-2.39393
-2.39482
-2.39584
-2.39695
-2.39814
-2.39941
-2.40074
-2.40217
-2.40373
-2.40549
-2.40753
-2.40999
-2.41304
-2.41689
-2.42186
-2.4283
-2.43673
-2.44764
-2.46175
-2.53735
-2.53755
-2.53798
-2.53863
-2.53947
-2.54051
-2.54172
-2.5431
-2.54465
-2.54637
-2.54829
-2.55043
-2.55286
-2.55565
-2.55892
-2.56281
-2.56751
-2.57324
-2.58033
-2.58917
-2.60027
-2.61416
-2.63156
-2.6825
-2.68272
-2.68318
-2.68391
-2.68487
-2.68606
-2.68748
-2.68914
-2.69105
-2.69323
-2.69571
-2.69854
-2.70179
-2.70557
-2.70999
-2.71521
-2.72143
-2.7289
-2.73793
-2.74892
-2.76235
-2.77875
-2.79881
-2.82744
-2.82767
-2.82818
-2.82899
-2.83006
-2.83142
-2.83305
-2.83499
-2.83725
-2.83986
-2.84287
-2.84634
-2.85036
-2.85504
-2.8605
-2.86692
-2.8745
-2.88349
-2.89422
-2.90704
-2.92243
-2.94087
-2.96298
-2.97214
-2.97238
-2.97293
-2.97382
-2.97502
-2.97653
-2.97837
-2.98056
-2.98315
-2.98616
-2.98965
-2.9937
-2.9984
-3.00387
-3.01025
-3.0177
-3.02645
-3.03674
-3.04887
-3.06321
-3.08016
-3.1002
-3.12386
-3.11658
-3.11683
-3.11742
-3.11839
-3.11969
-3.12134
-3.12337
-3.1258
-3.12867
-3.13203
-3.13595
-3.1405
-3.14578
-3.15192
-3.15907
-3.16739
-3.17709
-3.18842
-3.20168
-3.21719
-3.23535
-3.25657
-3.28133
-3.26073
-3.26098
-3.2616
-3.26264
-3.26403
-3.26581
-3.268
-3.27063
-3.27375
-3.27741
-3.28168
-3.28664
-3.2924
-3.29908
-3.30684
-3.31584
-3.32628
-3.33841
-3.35249
-3.36886
-3.38785
-3.40986
-3.43532
-3.40457
-3.40482
-3.40546
-3.40655
-3.40801
-3.4099
-3.41222
-3.41501
-3.41833
-3.42222
-3.42676
-3.43205
-3.43817
-3.44526
-3.45347
-3.46296
-3.47392
-3.48659
-3.50123
-3.51812
-3.53761
-3.56004
-3.58581
-3.54806
-3.54832
-3.54895
-3.55009
-3.55161
-3.55357
-3.55598
-3.5589
-3.56236
-3.56642
-3.57116
-3.57667
-3.58304
-3.59041
-3.5989
-3.60869
-3.61997
-3.63294
-3.64784
-3.66497
-3.68461
-3.70709
-3.73279
-3.69116
-3.69148
-3.69207
-3.69325
-3.69479
-3.6968
-3.69927
-3.70226
-3.70581
-3.70998
-3.71483
-3.72047
-3.72698
-3.73448
-3.74312
-3.75303
-3.76441
-3.77744
-3.79236
-3.80941
-3.82889
-3.85108
-3.87633
-3.83385
-3.83426
-3.83478
-3.83599
-3.83754
-3.83957
-3.84207
-3.84509
-3.84867
-3.85287
-3.85777
-3.86343
-3.86997
-3.87749
-3.88611
-3.89598
-3.90727
-3.92015
-3.93483
-3.95154
-3.97054
-3.9921
-4.01652
-3.97614
-3.97663
-3.97708
-3.97832
-3.97985
-3.98186
-3.98435
-3.98736
-3.99092
-3.9951
-3.99995
-4.00557
-4.01203
-4.01944
-4.02792
-4.03759
-4.04861
-4.06113
-4.07535
-4.09147
-4.10972
-4.13033
-4.15358
-4.11804
-4.11856
-4.11897
-4.12022
-4.1217
-4.12369
-4.12613
-4.12908
-4.13257
-4.13666
-4.1414
-4.14688
-4.15317
-4.16037
-4.16857
-4.17791
-4.1885
-4.2005
-4.21406
-4.22937
-4.24661
-4.266
-4.28775
-4.25955
-4.26008
-4.26044
-4.2617
-4.26312
-4.26505
-4.26742
-4.27026
-4.27363
-4.27757
-4.28214
-4.2874
-4.29343
-4.30031
-4.30813
-4.317
-4.32704
-4.33835
-4.35109
-4.3654
-4.38144
-4.39938
-4.41937
-4.40068
-4.40121
-4.40153
-4.40277
-4.40411
-4.40597
-4.40822
-4.41093
-4.41413
-4.41786
-4.42219
-4.42716
-4.43285
-4.43932
-4.44666
-4.45496
-4.46432
-4.47482
-4.4866
-4.49976
-4.51444
-4.53075
-4.5488
-4.54145
-4.54196
-4.54225
-4.54347
-4.54471
-4.54647
-4.54857
-4.5511
-4.55409
-4.55757
-4.56159
-4.56621
-4.57148
-4.57747
-4.58424
-4.59188
-4.60045
-4.61004
-4.62074
-4.63264
-4.64583
-4.6604
-4.6764
-4.68189
-4.68228
-4.68272
-4.68382
-4.68495
-4.68658
-4.6885
-4.69082
-4.69355
-4.69673
-4.7004
-4.70461
-4.7094
-4.71483
-4.72096
-4.72784
-4.73555
-4.74414
-4.75369
-4.76425
-4.77588
-4.78864
-4.80252
-4.82206
-4.82237
-4.82284
-4.82384
-4.82485
-4.82633
-4.82804
-4.83012
-4.83256
-4.83539
-4.83866
-4.84241
-4.84666
-4.85147
-4.85689
-4.86296
-4.86974
-4.87727
-4.8856
-4.89476
-4.9048
-4.91573
-4.92751
-4.96198
-4.96222
-4.96268
-4.96357
-4.96444
-4.96574
-4.96723
-4.96904
-4.97115
-4.97361
-4.97644
-4.97967
-4.98334
-4.98749
-4.99215
-4.99736
-5.00315
-5.00957
-5.01664
-5.02439
-5.03283
-5.04196
-5.05172
-5.10171
-5.10189
-5.10232
-5.10308
-5.10379
-5.10491
-5.10614
-5.10765
-5.10942
-5.11147
-5.11383
-5.11651
-5.11956
-5.123
-5.12686
-5.13116
-5.13595
-5.14122
-5.14702
-5.15335
-5.16019
-5.16756
-5.17537
-5.24133
-5.24144
-5.2418
-5.24241
-5.24297
-5.24387
-5.24484
-5.24603
-5.24743
-5.24904
-5.2509
-5.25302
-5.25542
-5.25813
-5.26115
-5.26453
-5.26827
-5.27239
-5.2769
-5.28181
-5.2871
-5.29275
-5.2987
-5.38081
-5.38087
-5.38114
-5.38159
-5.38199
-5.38264
-5.38334
-5.3842
-5.38521
-5.38638
-5.38772
-5.38925
-5.39098
-5.39293
-5.39511
-5.39754
-5.40022
-5.40317
-5.4064
-5.4099
-5.41366
-5.41766
-5.42184
-5.52017
-5.52019
-5.52035
-5.52063
-5.52087
-5.52127
-5.52169
-5.52221
-5.52282
-5.52352
-5.52433
-5.52526
-5.5263
-5.52748
-5.52879
-5.53026
-5.53188
-5.53365
-5.53559
-5.53769
-5.53994
-5.54233
-5.54481
-5.65944
-5.65943
-5.65949
-5.65959
-5.65966
-5.6598
-5.65994
-5.66012
-5.66032
-5.66056
-5.66083
-5.66114
-5.66149
-5.66188
-5.66232
-5.66281
-5.66335
-5.66395
-5.66459
-5.66529
-5.66604
-5.66683
-5.66765
238.335
248.769
276.962
270.539
298.309
295.805
291.779
289.317
173.981
177.207
183.417
192.096
87.313
96.3338
107.837
119.451
15.7324
20.0259
27.7153
38.5421
-0.383958
-0.48417
-0.47484
0.101332
-0.636592
-0.73075
-0.783527
-0.800263
-0.809802
-0.846665
-0.86854
-0.814278
-1.03232
-1.02498
-0.980716
-0.877378
-1.22139
-1.21194
-1.15749
-1.02933
-1.30142
-1.29107
-1.24532
-1.14549
-1.38735
-1.36523
-1.32956
-1.27225
-1.52986
-1.51552
-1.48897
-1.45015
-1.65827
-1.6539
-1.64243
-1.62659
-1.78838
-1.78518
-1.78067
-1.77715
-1.95279
-1.95357
-1.95529
-1.95839
-2.12457
-2.12941
-2.13597
-2.14475
-2.30067
-2.30868
-2.31835
-2.33009
-2.47555
-2.48585
-2.49779
-2.51157
-2.64786
-2.65969
-2.67307
-2.68813
-2.81698
-2.82993
-2.84427
-2.86014
-2.98255
-2.99629
-3.01134
-3.02776
-3.14444
-3.15876
-3.17429
-3.1911
-3.30261
-3.31731
-3.33315
-3.35019
-3.45701
-3.47192
-3.4879
-3.50502
-3.60761
-3.62256
-3.63852
-3.65557
-3.75443
-3.76923
-3.78499
-3.80179
-3.8975
-3.91196
-3.92733
-3.94368
-4.03694
-4.05085
-4.06561
-4.08128
-4.17293
-4.18609
-4.20003
-4.21479
-4.30576
-4.31798
-4.33089
-4.34452
-4.43581
-4.44693
-4.45861
-4.4709
-4.56351
-4.57341
-4.58377
-4.5946
-4.6893
-4.69794
-4.70692
-4.71626
-4.81361
-4.82101
-4.82863
-4.8365
-4.93677
-4.94311
-4.94939
-4.95584
-5.05935
-5.06438
-5.06948
-5.07468
-5.1814
-5.18534
-5.18931
-5.19331
-5.30326
-5.30622
-5.30919
-5.31216
-5.42502
-5.42707
-5.42912
-5.43117
-5.54668
-5.54789
-5.54909
-5.55028
-5.66827
-5.66866
-5.66905
-5.66944
217.773
274.063
327.2
217.922
219.847
210.858
215.117
213.643
210.175
205.942
202.381
200.15
200.158
203.722
209.438
214.87
219.431
216.498
256.314
272.393
269.401
284.889
199.756
224.938
210.955
212.221
210.58
207.023
202.532
198.382
194.993
193.871
197.532
204.92
211.756
217.167
213.477
218.875
205.853
222.35
244.473
207.055
225.382
214.705
210.047
209.351
205.65
201.18
196.96
192.891
189.757
192.255
202.271
210.402
215.223
209.975
218.315
137.002
165.244
207.855
225.023
222.938
223.967
215.349
210.663
206.465
202.234
198.549
195.393
192.926
194.703
203.483
212.718
217.33
221.962
250.443
58.2955
85.6459
141.386
234.433
228.317
237.339
232.563
217.507
209.548
205.844
203.081
201.724
201.425
203.557
210.074
218.674
226.423
251.869
297.625
4.80519
20.2288
58.5677
237.137
236.518
249.526
243.441
226.998
216.21
212.069
211.335
212.428
214.188
216.216
219.767
226.384
239.513
285.038
347.842
-0.934253
-0.325666
9.65897
76.2754
180.864
246.091
245.922
228.916
218.96
216.901
217.954
220.469
223.47
224.856
227.191
234.561
251.881
303.68
416.508
-0.691126
-0.406366
-0.523717
12.1741
69.9573
160.635
221.623
215.651
214.742
217.02
220.394
224.97
227.872
228.835
229.849
230.044
276.737
377.942
534.133
-0.71665
-0.521076
-0.400527
-0.384272
6.86528
42.7178
117.837
150.279
177.943
200.123
220.042
229.949
230.814
236.485
285.903
294.355
341.977
465.598
653.852
-0.797687
-0.629266
-0.549658
-0.455417
-0.435093
0.992834
15.7149
39.8694
87.7018
127.605
192.451
221.881
201.462
203.413
270.172
285.592
325.596
451.433
645.75
-0.950176
-0.806836
-0.729357
-0.707111
-0.666755
-1.3182
-3.04252
-4.77888
7.16822
41.5348
183.183
365.676
408.23
338.378
271.884
254.68
281.78
358.098
474.97
-1.15908
-1.00873
-0.806122
-0.601544
-0.804649
-1.57998
-2.66415
-4.61573
-5.29582
3.27653
120.109
350.697
364.493
296.548
235.859
200.587
216.721
270.1
347.525
-1.38377
-1.30483
-1.21217
-1.15951
-1.49891
-2.45621
-3.29869
-3.88912
-3.99598
-0.825689
12.3374
34.1875
65.8807
143.938
185.62
200.148
213.216
231.167
276.305
-1.59571
-1.55994
-1.55203
-1.6516
-2.10723
-2.96831
-3.70241
-3.7517
-3.17081
-2.07163
-1.03894
-0.275173
2.43769
20.7728
98.9058
195.218
228.752
228.68
236.359
-1.77476
-1.78304
-1.82147
-1.9509
-2.28624
-2.79065
-3.20503
-3.18737
-2.899
-2.33516
-1.49333
-0.927848
-0.499156
0.718892
13.7717
116.675
187.787
185.851
189.15
-1.96652
-1.99716
-2.05865
-2.17365
-2.38067
-2.65705
-2.90238
-2.93405
-2.75116
-2.38944
-1.84761
-1.28448
-1.00444
-0.617089
1.95789
19.1201
87.937
111.143
136.331
-2.16289
-2.20505
-2.27309
-2.37429
-2.51495
-2.67766
-2.80865
-2.84447
-2.69534
-2.43347
-2.07267
-1.66645
-1.2665
-0.898029
-0.337788
5.49861
12.0816
35.8741
93.0362
-2.3535
-2.40145
-2.46867
-2.55679
-2.66274
-2.77088
-2.85039
-2.85986
-2.75651
-2.55695
-2.27633
-1.93528
-1.58435
-1.11342
-0.320503
0.827102
-2.12452
13.2318
77.1522
-2.5379
-2.58766
-2.65183
-2.72871
-2.81289
-2.89203
-2.94702
-2.95562
-2.89735
-2.76726
-2.58636
-2.41905
-2.36262
-3.01176
-2.40101
1.51016
12.5229
42.99
77.3113
-2.71623
-2.76631
-2.82745
-2.89681
-2.96871
-3.03439
-3.08269
-3.10302
-3.08832
-3.0339
-2.95154
-2.87283
-2.85338
-2.84893
1.24992
1.46023
27.6571
63.462
105.026
-2.88925
-2.93918
-2.99817
-3.06343
-3.13003
-3.19208
-3.24444
-3.28395
-3.31143
-3.32911
-3.35381
-3.44564
-3.42395
-2.02404
6.27884
6.65804
30.3192
59.6345
82.3223
-3.05754
-3.10731
-3.16507
-3.22865
-3.29427
-3.35819
-3.41993
-3.48231
-3.55345
-3.64369
-3.81245
-4.20757
-4.81802
-5.3998
-3.53201
5.3386
24.8661
46.9943
64.2675
-3.22133
-3.27103
-3.32824
-3.39161
-3.45864
-3.52656
-3.5991
-3.6832
-3.79567
-3.93355
-4.19146
-4.70561
-5.43156
-5.9696
-5.90004
-4.92243
5.70554
34.6245
42.6309
-3.38069
-3.4303
-3.48726
-3.55108
-3.6211
-3.69105
-3.7746
-3.87342
-4.0032
-4.18587
-4.47465
-4.96902
-5.71129
-6.01158
-5.95153
-5.67132
-4.21986
6.22851
22.5414
-3.53556
-3.58491
-3.64147
-3.70522
-3.77561
-3.85308
-3.94301
-4.05137
-4.19226
-4.39076
-4.68369
-5.14335
-5.75542
-6.093
-6.05487
-5.84305
-5.34047
-3.29631
12.0569
-3.68589
-3.73468
-3.7905
-3.85353
-3.92511
-4.00682
-4.10225
-4.21661
-4.36123
-4.55535
-4.82011
-5.1962
-5.68281
-6.06454
-6.10672
-5.90939
-5.47978
-3.8655
7.44128
-3.83163
-3.8795
-3.93428
-3.99545
-4.06755
-4.15248
-4.2533
-4.37255
-4.51673
-4.69506
-4.91266
-5.18556
-5.52878
-5.8383
-5.9526
-5.85623
-5.47491
-4.75834
-3.24458
-3.97271
-4.01924
-4.0729
-4.1302
-4.20232
-4.2899
-4.39602
-4.5199
-4.66245
-4.82042
-4.98297
-5.14944
-5.34726
-5.54959
-5.67049
-5.68701
-5.40569
-4.97909
-3.57729
-4.10908
-4.15344
-4.20444
-4.25928
-4.32931
-4.41876
-4.52721
-4.65082
-4.78929
-4.9254
-5.03379
-5.10917
-5.18748
-5.29308
-5.40105
-5.4063
-5.28188
-4.49684
-1.16873
-4.24092
-4.28233
-4.32903
-4.38189
-4.4463
-4.53267
-4.63997
-4.75172
-4.87976
-4.99258
-5.05806
-5.07605
-5.09322
-5.15975
-5.27634
-5.2021
-4.36175
-3.35651
-0.396081
-4.36863
-4.40675
-4.44864
-4.49653
-4.55235
-4.62687
-4.7129
-4.81099
-4.91898
-5.00917
-5.0529
-5.05177
-5.06549
-5.14585
-5.24549
-5.18675
-3.71374
-2.58304
-0.0456724
-4.49249
-4.52622
-4.56339
-4.60487
-4.65172
-4.70816
-4.77064
-4.84005
-4.91501
-4.98051
-5.02203
-5.05155
-5.09001
-5.18729
-5.21789
-5.15547
-3.64638
-2.59557
-0.4077
-4.61352
-4.64273
-4.67451
-4.70905
-4.74598
-4.78507
-4.82398
-4.86326
-4.90585
-4.94918
-4.99848
-5.06975
-5.13684
-5.18244
-5.14414
-4.96221
-3.73275
-2.95197
-1.25151
-4.73247
-4.75709
-4.7833
-4.81081
-4.83865
-4.86465
-4.88582
-4.90131
-4.92089
-4.94934
-5.0013
-5.08169
-5.13989
-5.12794
-5.04719
-4.87762
-3.99576
-3.41646
-1.72859
-4.85005
-4.87023
-4.89111
-4.91213
-4.93218
-4.9493
-4.95993
-4.96103
-4.9647
-4.98145
-5.01922
-5.07217
-5.09793
-5.06318
-4.95896
-4.88595
-4.45911
-4.02635
-2.31951
-4.96689
-4.98298
-4.9991
-5.01452
-5.02817
-5.03841
-5.04282
-5.03909
-5.03175
-5.03309
-5.04607
-5.06575
-5.06963
-5.03401
-4.94786
-4.85653
-4.62294
-4.51391
-3.65327
-5.0835
-5.09594
-5.10799
-5.11879
-5.12746
-5.13252
-5.13245
-5.12598
-5.1153
-5.10618
-5.10124
-5.09998
-5.09121
-5.05953
-4.98486
-4.9116
-4.67357
-4.72831
-4.17021
-5.20025
-5.2095
-5.21817
-5.22536
-5.23035
-5.23212
-5.22865
-5.22052
-5.20985
-5.19811
-5.18613
-5.175
-5.15358
-5.12989
-5.07764
-5.02036
-4.79394
-4.82558
-3.02341
-5.31722
-5.32383
-5.3298
-5.33426
-5.33676
-5.33683
-5.33177
-5.32408
-5.31428
-5.30068
-5.28409
-5.26543
-5.23613
-5.22243
-5.19923
-5.20354
-5.16601
-5.09581
-4.0034
-5.4346
-5.43896
-5.44278
-5.44533
-5.44634
-5.44561
-5.44103
-5.4353
-5.4283
-5.41616
-5.40225
-5.38682
-5.36789
-5.36225
-5.33097
-5.40483
-5.3366
-5.48571
-3.36321
-5.55225
-5.55472
-5.55679
-5.55803
-5.55834
-5.55747
-5.55475
-5.55223
-5.54985
-5.54435
-5.5423
-5.54251
-5.56882
-5.65657
-5.52353
-5.54112
-5.59055
-4.61128
-5.66196
-5.67008
-5.67085
-5.67149
-5.67181
-5.67186
-5.67153
-5.67088
-5.67184
-5.67421
-5.67763
-5.68951
-5.71083
-5.80219
-6.01394
-5.76
-5.87504
-6.37301
-6.32878
-16.0049
)
;

boundaryField
{
    leftWall
    {
        type            calculated;
        value           nonuniform List<scalar> 
50
(
574.656
515.717
456.275
397.037
338.706
281.621
226.106
171.944
90.7154
18.5332
-0.0371685
-0.157278
-0.300274
-0.474776
-0.613644
-0.770885
-0.923072
-1.07327
-1.22199
-1.36963
-1.51656
-1.66301
-1.80916
-1.95509
-2.10088
-2.24652
-2.39201
-2.53735
-2.6825
-2.82744
-2.97214
-3.11658
-3.26073
-3.40457
-3.54806
-3.69116
-3.83385
-3.97614
-4.11804
-4.25955
-4.40068
-4.54145
-4.68189
-4.82206
-4.96198
-5.10171
-5.24133
-5.38081
-5.52017
-5.65944
)
;
    }
    rightWall
    {
        type            calculated;
        value           nonuniform List<scalar> 
50
(
1157.38
1095.13
1011.88
913.201
805.459
684.248
540.629
397.775
256.314
218.875
218.315
250.443
297.625
347.842
416.508
534.133
653.852
645.75
474.97
347.525
276.305
236.359
189.15
136.331
93.0362
77.1522
77.3113
105.026
82.3223
64.2675
42.6309
22.5414
12.0569
7.44128
-3.24458
-3.57729
-1.16873
-0.396081
-0.0456724
-0.4077
-1.25151
-1.72859
-2.31951
-3.65327
-4.17021
-3.02341
-4.0034
-3.36321
-5.66196
-16.0049
)
;
    }
    lowerWall
    {
        type            calculated;
        value           nonuniform List<scalar> 
62
(
604.086
600.674
601.334
606.127
616.106
628.65
640.742
651.34
662.015
674.617
689.929
707.819
727.832
749.583
772.661
796.462
819.903
840.859
856.381
864.572
856.81
861.993
900.383
870.992
806.85
745.823
694.856
650.728
605.652
548.798
485.112
300.931
311.366
339.558
333.116
906.562
862.835
772.638
640.181
483.044
371.896
253.516
121.307
913.862
933.031
868.966
669.829
627.373
620.558
562.291
353.074
249.863
240.251
246.248
251.603
264.62
286.476
302.878
368.883
702.424
1214.95
1176.99
)
;
    }
    atmosphere
    {
        type            calculated;
        value           nonuniform List<scalar> 
46
(
-5.72904
-5.72904
-5.72904
-5.72904
-5.72904
-5.72904
-5.72904
-5.72904
-5.72904
-5.72904
-5.72904
-5.72904
-5.72904
-5.72904
-5.72904
-5.72904
-5.72904
-5.72904
-5.72904
-5.72904
-5.72904
-5.72904
-5.72904
-5.72904
-5.72904
-5.72904
-5.72904
-5.72904
-5.72904
-5.72904
-5.72904
-5.72904
-5.72904
-5.72977
-5.7328
-5.73728
-5.74488
-5.76239
-5.79272
-5.91949
-6.10284
-5.83201
-6.00174
-6.15028
-6.75894
-45.4709
)
;
    }
    defaultFaces
    {
        type            empty;
    }
}


// ************************************************************************* //
