/*--------------------------------*- C++ -*----------------------------------*\
| =========                 |                                                 |
| \\      /  F ield         | OpenFOAM: The Open Source CFD Toolbox           |
|  \\    /   O peration     | Version:  2012                                  |
|   \\  /    A nd           | Website:  www.openfoam.com                      |
|    \\/     M anipulation  |                                                 |
\*---------------------------------------------------------------------------*/
FoamFile
{
    version     2.0;
    format      ascii;
    class       surfaceScalarField;
    location    "0.55";
    object      phi;
}
// * * * * * * * * * * * * * * * * * * * * * * * * * * * * * * * * * * * * * //

dimensions      [0 3 -1 0 0 0 0];
oriented        oriented;


internalField   nonuniform List<scalar> 
4432
(
-3.45034e-06
3.45034e-06
-5.52534e-06
2.075e-06
-4.78999e-06
-7.35342e-07
-2.17042e-06
-2.61957e-06
1.90148e-06
-4.07189e-06
6.75598e-06
-4.85451e-06
1.14097e-05
-4.65374e-06
1.50764e-05
-3.66666e-06
1.74853e-05
-2.40895e-06
1.87534e-05
-1.2681e-06
1.90996e-05
-3.4613e-07
1.86773e-05
4.22289e-07
1.75672e-05
1.11009e-06
1.58099e-05
1.75731e-06
1.3267e-05
2.54288e-06
9.60168e-06
3.66533e-06
4.52129e-06
5.08039e-06
-1.52926e-06
6.05054e-06
-6.11728e-06
4.58802e-06
-1.08337e-05
4.71638e-06
-1.77778e-05
6.94413e-06
-1.56577e-05
-2.12012e-06
-1.56577e-05
-3.84861e-06
7.29895e-06
-5.199e-06
3.42539e-06
-4.18021e-06
-1.75413e-06
-1.64546e-06
-5.15432e-06
2.24038e-06
-7.95774e-06
7.01561e-06
-9.62973e-06
1.16402e-05
-9.27835e-06
1.5262e-05
-7.28839e-06
1.76122e-05
-4.75919e-06
1.88539e-05
-2.50981e-06
1.93004e-05
-7.92592e-07
1.9247e-05
4.75715e-07
1.89126e-05
1.44441e-06
1.83775e-05
2.29244e-06
1.76563e-05
3.26411e-06
1.65334e-05
4.78823e-06
1.4341e-05
7.27281e-06
9.87176e-06
1.05197e-05
2.57231e-06
1.18875e-05
-6.46611e-06
1.37548e-05
-1.23976e-05
1.28756e-05
-9.80487e-06
-4.71285e-06
-2.54625e-05
-3.03885e-06
1.03378e-05
-3.94539e-06
4.33193e-06
-3.06785e-06
-2.63166e-06
-9.76676e-07
-7.24549e-06
2.43546e-06
-1.13699e-05
7.00577e-06
-1.42e-05
1.15746e-05
-1.38472e-05
1.51183e-05
-1.0832e-05
1.73371e-05
-6.97803e-06
1.84533e-05
-3.62598e-06
1.87971e-05
-1.13647e-06
1.86273e-05
6.45558e-07
1.81132e-05
1.95848e-06
1.74107e-05
2.995e-06
1.66865e-05
3.98828e-06
1.61801e-05
5.29465e-06
1.60519e-05
7.401e-06
1.54092e-05
1.11624e-05
1.20288e-05
1.52678e-05
5.86038e-06
1.99233e-05
-1.70452e-06
2.04405e-05
-2.20983e-06
-4.20753e-06
-2.76724e-05
-1.85359e-06
1.21914e-05
-2.13889e-06
4.61724e-06
-1.39859e-06
-3.37196e-06
1.79058e-07
-8.82314e-06
3.04866e-06
-1.42395e-05
7.20975e-06
-1.83611e-05
1.14926e-05
-1.81301e-05
1.48003e-05
-1.41396e-05
1.6828e-05
-9.00575e-06
1.78203e-05
-4.61829e-06
1.81246e-05
-1.44074e-06
1.79858e-05
7.84299e-07
1.75587e-05
2.38561e-06
1.69473e-05
3.60644e-06
1.62529e-05
4.68271e-06
1.56389e-05
5.90863e-06
1.54942e-05
7.54571e-06
1.62308e-05
1.04258e-05
1.68363e-05
1.46623e-05
1.60073e-05
2.07522e-05
1.33701e-05
2.30777e-05
7.48073e-06
1.68188e-06
-2.01916e-05
-2.9003e-07
1.24814e-05
5.39646e-07
3.78757e-06
1.55831e-06
-4.39062e-06
3.10898e-06
-1.03738e-05
5.69044e-06
-1.68209e-05
9.01119e-06
-2.16819e-05
1.22708e-05
-2.13897e-05
1.47213e-05
-1.65902e-05
1.62161e-05
-1.05005e-05
1.69896e-05
-5.39183e-06
1.72864e-05
-1.73754e-06
1.72442e-05
8.26464e-07
1.69759e-05
2.65392e-06
1.65684e-05
4.01402e-06
1.61063e-05
5.14474e-06
1.56782e-05
6.33678e-06
1.54676e-05
7.75633e-06
1.60398e-05
9.85364e-06
1.78066e-05
1.28955e-05
2.03806e-05
1.81781e-05
2.09706e-05
2.24878e-05
1.39196e-05
8.73287e-06
-6.27205e-06
1.94291e-06
1.05385e-05
4.49761e-06
1.23288e-06
6.79611e-06
-6.68913e-06
9.24538e-06
-1.28231e-05
1.16601e-05
-1.92356e-05
1.34644e-05
-2.34862e-05
1.47188e-05
-2.26442e-05
1.55125e-05
-1.73839e-05
1.59419e-05
-1.09298e-05
1.61982e-05
-5.64816e-06
1.63896e-05
-1.92892e-06
1.64648e-05
7.51259e-07
1.63954e-05
2.72333e-06
1.62141e-05
4.19533e-06
1.5994e-05
5.36479e-06
1.58103e-05
6.52052e-06
1.5821e-05
7.74563e-06
1.62885e-05
9.38614e-06
1.76544e-05
1.15296e-05
2.07137e-05
1.51189e-05
2.29365e-05
2.02649e-05
1.66519e-05
1.50175e-05
1.03798e-05
4.43003e-06
6.10848e-06
9.63833e-06
-3.97541e-06
1.45386e-05
-1.15893e-05
1.84192e-05
-1.67037e-05
2.01605e-05
-2.09769e-05
1.96321e-05
-2.29579e-05
1.83263e-05
-2.13383e-05
1.72368e-05
-1.62943e-05
1.64743e-05
-1.01674e-05
1.60247e-05
-5.19849e-06
1.58041e-05
-1.70839e-06
1.58489e-05
7.0645e-07
1.58836e-05
2.6887e-06
1.59057e-05
4.17317e-06
1.59286e-05
5.34195e-06
1.59614e-05
6.48767e-06
1.62005e-05
7.50656e-06
1.68329e-05
8.7537e-06
1.7844e-05
1.05185e-05
2.00932e-05
1.28696e-05
2.25357e-05
1.78225e-05
1.87879e-05
1.87653e-05
2.91677e-05
6.81564e-06
-7.0715e-07
1.56687e-05
-1.28285e-05
2.36387e-05
-1.95593e-05
2.77719e-05
-2.0837e-05
2.73282e-05
-2.05332e-05
2.40774e-05
-1.97071e-05
2.08427e-05
-1.81035e-05
1.87339e-05
-1.41856e-05
1.75008e-05
-8.93427e-06
1.68091e-05
-4.50685e-06
1.64434e-05
-1.34263e-06
1.60597e-05
1.09017e-06
1.58209e-05
2.9275e-06
1.57241e-05
4.26996e-06
1.57949e-05
5.27108e-06
1.59584e-05
6.32416e-06
1.64425e-05
7.02251e-06
1.73718e-05
7.82442e-06
1.85205e-05
9.3698e-06
2.01884e-05
1.12017e-05
2.21209e-05
1.589e-05
1.93478e-05
2.15384e-05
4.85155e-05
3.13565e-05
-3.13565e-05
7.76546e-05
-4.62981e-05
0.000137696
-6.00416e-05
0.000158794
-2.10974e-05
0.000153655
5.13816e-06
4.7795e-05
0.000105861
-0.000135805
0.0001836
-0.000212401
7.65964e-05
-0.000229664
1.72623e-05
-0.000215135
-1.45289e-05
-0.000200202
-1.49326e-05
-0.000187695
-1.25068e-05
-0.00017782
-9.87546e-06
-0.000168309
-9.51067e-06
-0.000154645
-1.36648e-05
-0.000135466
-1.91787e-05
-9.98283e-05
-3.56375e-05
-2.84011e-05
-7.14272e-05
-2.84011e-05
3.67612e-06
-3.50327e-05
3.38175e-05
-7.64395e-05
0.00011427
-0.000140494
0.000134063
-4.08902e-05
6.47224e-05
7.44788e-05
-0.000138844
0.000309427
-0.000287324
0.00033208
-0.000341571
0.000130844
-0.000339234
1.49247e-05
-0.000313625
-4.01379e-05
-0.000292552
-3.60053e-05
-0.000266899
-3.81592e-05
-0.00024429
-3.24844e-05
-0.000221015
-3.27862e-05
-0.000191779
-4.29007e-05
-0.000157588
-5.337e-05
-0.00011188
-8.13457e-05
-3.76342e-05
-0.000145673
-6.60352e-05
-1.6602e-05
-1.84306e-05
-2.69645e-06
-9.03451e-05
2.73907e-05
-0.000170581
4.92544e-05
-6.27539e-05
-1.3043e-05
0.000136776
-0.000216369
0.000512753
-0.000290558
0.000406268
-0.000263762
0.000104048
-0.00028033
3.14929e-05
-0.000338133
1.76654e-05
-0.000378028
3.88916e-06
-0.000393524
-2.26632e-05
-0.000376053
-4.99559e-05
-0.000334829
-7.40102e-05
-0.00028106
-9.66696e-05
-0.000222221
-0.000112209
-0.000140917
-0.00016265
-4.8233e-05
-0.000238357
-0.000114268
-1.17931e-05
-6.63757e-06
1.29893e-06
-0.000103437
7.22585e-06
-0.000176508
3.96316e-05
-9.51596e-05
1.42906e-05
0.000162117
-9.00104e-05
0.000617054
-0.000192271
0.000508528
-0.000177684
8.9461e-05
-0.000224556
7.83651e-05
-0.000287939
8.10487e-05
-0.000330418
4.63679e-05
-0.000353593
5.11227e-07
-0.000351328
-5.22212e-05
-0.000323575
-0.000101763
-0.000282165
-0.00013808
-0.000230383
-0.00016399
-0.000154741
-0.000238292
-5.12248e-05
-0.000341873
-0.000165493
-1.78867e-07
-6.4587e-06
1.18834e-05
-0.000115499
2.2247e-06
-0.00016685
5.34876e-05
-0.000146423
7.89818e-05
0.000136623
-9.80202e-06
0.000705838
-8.41637e-05
0.00058289
-0.000146173
0.00015147
-0.000219361
0.000151553
-0.000276605
0.000138293
-0.000311226
8.0989e-05
-0.000322559
1.18453e-05
-0.000306277
-6.85036e-05
-0.000265732
-0.000142309
-0.000217006
-0.000186806
-0.000177702
-0.000203294
-0.000118916
-0.000297077
-4.70568e-05
-0.000413733
-0.00021255
1.1887e-05
-1.83457e-05
2.33194e-05
-0.000126932
1.83783e-05
-0.000161909
4.16664e-05
-0.000169711
4.46287e-05
0.000133661
-9.90415e-06
0.000760371
-2.86535e-05
0.00060164
-0.000146947
0.000269764
-0.000237483
0.000242089
-0.000301885
0.000202695
-0.000341373
0.000120476
-0.000349144
1.96171e-05
-0.000321587
-9.60606e-05
-0.000259609
-0.000204287
-0.00018441
-0.000262005
-0.000125446
-0.000262258
-7.92261e-05
-0.000343297
-4.03727e-05
-0.000452586
-0.000252923
2.60734e-05
-4.44191e-05
3.46285e-05
-0.000135487
3.0636e-05
-0.000157916
3.90336e-05
-0.000178108
4.1498e-05
0.000131196
1.36447e-06
0.000800504
-2.05963e-05
0.0006236
-0.00015101
0.000400178
-0.000251304
0.000342383
-0.000322545
0.000273936
-0.000366718
0.00016465
-0.000378812
3.17105e-05
-0.000354426
-0.000120446
-0.000287033
-0.00027168
-0.000188754
-0.000360284
-8.93604e-05
-0.000361652
-4.38807e-05
-0.000388777
-3.25731e-05
-0.000463893
-0.000285496
4.10175e-05
-8.54366e-05
4.34642e-05
-0.000137934
3.71762e-05
-0.000151628
3.92836e-05
-0.000180216
5.35601e-05
0.00011692
1.74964e-05
0.000836568
-1.60685e-05
0.000657166
-0.00014964
0.000533749
-0.00025053
0.000443273
-0.000321004
0.000344411
-0.000365057
0.000208703
-0.000381386
4.80397e-05
-0.000366779
-0.000135053
-0.000308884
-0.000329575
-0.000206917
-0.00046225
-7.63763e-05
-0.000492193
-6.22468e-06
-0.000458928
-2.21399e-05
-0.000447978
-0.000307636
2.17913e-05
-2.24985e-05
4.9273e-05
-4.03102e-05
6.42084e-05
-3.44946e-05
6.16627e-05
-1.82912e-05
5.21162e-05
-1.09867e-05
4.26586e-05
-1.02496e-05
3.60188e-05
-1.14636e-05
3.30548e-05
-1.12217e-05
3.31368e-05
-9.01626e-06
3.45297e-05
-5.89969e-06
3.59907e-05
-2.80361e-06
3.71885e-05
-1.07714e-07
3.736e-05
2.75606e-06
3.68954e-05
4.73451e-06
3.62161e-05
5.95045e-06
3.53569e-05
7.18334e-06
3.57144e-05
6.66496e-06
3.77281e-05
5.81081e-06
4.09085e-05
6.18934e-06
4.57413e-05
6.36897e-06
5.48662e-05
6.76509e-06
7.00548e-05
6.34977e-06
1.47214e-05
0.000103849
3.02258e-05
-5.27243e-05
4.94805e-05
-5.95649e-05
2.67812e-05
-1.17954e-05
-4.29288e-07
8.91927e-06
-4.5734e-06
-6.84258e-06
-4.97678e-06
-9.84624e-06
-7.40558e-06
-9.03484e-06
-7.10212e-06
-1.15251e-05
-1.25773e-06
-1.48606e-05
6.95274e-06
-1.41102e-05
1.69544e-05
-1.28053e-05
2.87785e-05
-1.19318e-05
3.68603e-05
-5.3257e-06
3.99937e-05
1.60106e-06
3.98737e-05
6.07047e-06
3.75889e-05
9.46812e-06
3.75173e-05
6.73656e-06
3.95306e-05
3.79749e-06
4.21743e-05
3.54571e-06
4.64314e-05
2.11185e-06
5.39487e-05
-7.52207e-07
6.32724e-05
-2.97397e-06
-4.76783e-06
8.27617e-05
1.87327e-06
-5.45975e-05
-2.25981e-05
-3.50936e-05
-5.02996e-05
1.59061e-05
-6.18835e-05
2.05033e-05
-6.68274e-05
-1.89863e-06
-8.34191e-05
6.74553e-06
-0.000105878
1.3424e-05
-0.000123898
6.49472e-06
-0.000135851
-2.90763e-06
-0.000135861
-1.40993e-05
-0.000115035
-3.36318e-05
-7.04973e-05
-5.64694e-05
-2.21814e-05
-5.36416e-05
1.73104e-06
-2.23114e-05
1.4288e-05
-6.48654e-06
2.58261e-05
-2.06993e-06
3.81169e-05
-5.55419e-06
4.45161e-05
-2.60174e-06
4.59986e-05
2.06318e-06
4.81641e-05
-5.36852e-08
5.31711e-05
-5.75912e-06
5.98906e-05
-9.69356e-06
-1.46071e-05
6.97299e-05
-2.61614e-05
-2.84363e-05
-4.35878e-05
-1.76673e-05
-3.93218e-05
1.164e-05
-2.53917e-05
6.57334e-06
-2.52334e-05
-2.05675e-06
-2.91472e-05
1.06595e-05
-3.24495e-05
1.67264e-05
-3.75158e-05
1.1561e-05
-4.75367e-05
7.11332e-06
-6.41262e-05
2.49012e-06
-9.17243e-05
-6.03377e-06
-0.00012538
-2.28133e-05
-0.00014625
-3.27716e-05
-0.000140566
-2.79956e-05
-0.000118399
-2.86538e-05
-7.33511e-05
-4.71177e-05
-3.71153e-05
-4.179e-05
-2.88797e-06
-3.6829e-05
1.58936e-05
-1.67184e-05
3.35313e-05
-1.76913e-05
4.90625e-05
-2.12903e-05
5.82251e-05
-1.88562e-05
-2.09753e-05
6.45933e-05
-2.09272e-05
-7.50912e-06
-2.06641e-05
-1.79304e-05
-8.98796e-06
-3.61064e-08
-5.23059e-06
2.81609e-06
-8.9822e-06
1.69501e-06
-7.3132e-06
8.99063e-06
-1.87105e-06
1.12843e-05
2.20363e-06
7.48631e-06
5.46575e-06
3.85116e-06
6.33742e-06
1.61842e-06
-2.56184e-06
2.8655e-06
-2.89439e-05
3.56875e-06
-5.63479e-05
-5.36756e-06
-7.03173e-05
-1.40261e-05
-6.67459e-05
-3.22253e-05
-6.9087e-05
-4.47766e-05
-7.4032e-05
-3.68449e-05
-7.8136e-05
-3.27249e-05
-6.23735e-05
-3.24809e-05
-4.55941e-05
-3.44708e-05
-1.47258e-05
-5.21586e-05
6.28548e-06
-3.98675e-05
-3.33863e-05
1.86965e-05
-7.99792e-06
4.88757e-07
-1.06252e-05
-1.53031e-05
-1.03036e-05
-3.57641e-07
-9.79605e-06
2.30865e-06
-1.14052e-05
3.3043e-06
-9.63158e-06
7.21706e-06
-7.91285e-06
9.56564e-06
-8.54296e-06
8.1164e-06
-8.2126e-06
3.52077e-06
-4.2295e-06
-2.36467e-06
4.0658e-06
-5.42977e-06
1.17594e-05
-4.12477e-06
5.92115e-06
4.70691e-07
-4.27779e-06
-3.82714e-06
-6.70443e-06
-2.97986e-05
-9.30454e-06
-4.21764e-05
-1.06858e-05
-3.54636e-05
-1.15881e-05
-3.18226e-05
3.20013e-06
-4.72691e-05
2.78324e-06
-3.40539e-05
-2.30632e-05
-2.63122e-05
-4.98913e-05
-1.30395e-05
8.19836e-06
-9.14761e-05
-6.58408e-06
7.07282e-06
-9.08331e-06
-1.28039e-05
-7.55698e-06
-1.8839e-06
-7.00694e-06
1.7587e-06
-7.4209e-06
3.71834e-06
-6.07302e-06
5.86922e-06
-3.86497e-06
7.35758e-06
-2.57174e-06
6.82315e-06
-3.22061e-06
4.16964e-06
-6.01382e-06
4.28559e-07
-7.64011e-06
-3.80343e-06
-6.40673e-06
-5.35811e-06
-1.66606e-06
-4.26995e-06
3.97811e-06
-9.47129e-06
6.73551e-07
-2.6494e-05
-5.87962e-06
-3.56232e-05
-8.09521e-06
-3.32479e-05
-4.7829e-06
-3.51349e-05
5.65461e-06
-5.77067e-05
2.92965e-05
-5.76958e-05
4.53135e-05
-4.23292e-05
5.48418e-05
-2.25676e-05
1.27941e-05
5.02471e-05
-5.03676e-06
1.21096e-05
-6.43097e-06
-1.14096e-05
-6.13279e-06
-2.18202e-06
-6.08639e-06
1.71236e-06
-5.5772e-06
3.20919e-06
-4.34743e-06
4.63944e-06
-2.93758e-06
5.9477e-06
-2.22149e-06
6.10702e-06
-2.35211e-06
4.30026e-06
-2.23126e-06
3.07726e-07
-2.51073e-06
-3.52393e-06
-1.00441e-06
-6.86441e-06
3.53604e-06
-8.8104e-06
7.25764e-06
-1.31929e-05
4.71222e-06
-2.39486e-05
-1.65993e-07
-3.07449e-05
-1.18251e-06
-3.22313e-05
1.00312e-06
-3.73205e-05
1.99407e-06
-5.86976e-05
1.30634e-05
-6.87653e-05
3.54179e-05
-6.46839e-05
6.21068e-05
-4.92567e-05
-1.83997e-05
9.33002e-05
-3.87603e-06
1.59856e-05
-4.91342e-06
-1.03722e-05
-4.68969e-06
-2.40571e-06
-4.54857e-06
1.57126e-06
-4.12646e-06
2.78708e-06
-3.08229e-06
3.59524e-06
-1.53452e-06
4.39988e-06
-3.81829e-08
4.61065e-06
7.41089e-07
3.52098e-06
1.32147e-07
9.16662e-07
-3.34575e-07
-3.05722e-06
-7.90848e-08
-7.11991e-06
2.21432e-06
-1.11038e-05
5.16873e-06
-1.61473e-05
4.22018e-06
-2.29999e-05
1.81294e-06
-2.83376e-05
1.71924e-06
-3.21375e-05
3.31051e-06
-3.89118e-05
3.11072e-07
-5.56981e-05
2.06122e-06
-7.05153e-05
1.42506e-05
-7.68731e-05
3.37719e-05
-6.87777e-05
-4.17023e-05
5.7075e-05
-2.69649e-06
1.86821e-05
-3.60539e-06
-9.4633e-06
-3.66096e-06
-2.35012e-06
-3.61754e-06
1.52784e-06
-3.28244e-06
2.45195e-06
-2.5085e-06
2.82124e-06
-1.24473e-06
3.13606e-06
2.57982e-07
3.10791e-06
1.58677e-06
2.19216e-06
2.43551e-06
6.78802e-08
2.53071e-06
-3.15246e-06
2.46201e-06
-7.05124e-06
2.60461e-06
-1.12464e-05
2.3726e-06
-1.59153e-05
5.61158e-07
-2.11885e-05
-2.05104e-06
-2.57253e-05
-3.5849e-06
-3.06037e-05
-4.45798e-06
-3.80387e-05
-8.818e-06
-5.1338e-05
-1.38731e-05
-6.54602e-05
-1.4438e-05
-7.63082e-05
-9.7876e-06
-7.34281e-05
-5.14366e-05
-5.35547e-08
-1.79048e-06
2.04726e-05
-2.65175e-06
-8.60202e-06
-2.88852e-06
-2.11336e-06
-2.96888e-06
1.60817e-06
-2.79688e-06
2.2799e-06
-2.32056e-06
2.34487e-06
-1.47233e-06
2.28778e-06
-3.22242e-07
1.95779e-06
8.31482e-07
1.03838e-06
1.63969e-06
-7.40392e-07
1.85168e-06
-3.3645e-06
1.4579e-06
-6.6575e-06
5.46634e-07
-1.03352e-05
-1.01353e-06
-1.43551e-05
-3.6088e-06
-1.85932e-05
-6.60836e-06
-2.27258e-05
-9.5889e-06
-2.76231e-05
-1.27271e-05
-3.49004e-05
-1.81949e-05
-4.58702e-05
-2.6542e-05
-5.71131e-05
-3.73959e-05
-6.54542e-05
-4.72049e-05
-6.36189e-05
-4.44814e-05
-5.416e-05
-1.15289e-06
2.16255e-05
-1.98354e-06
-7.77137e-06
-2.37305e-06
-1.72387e-06
-2.58807e-06
1.82315e-06
-2.60777e-06
2.29955e-06
-2.43702e-06
2.17409e-06
-2.04372e-06
1.89446e-06
-1.46269e-06
1.37674e-06
-8.45224e-07
4.20865e-07
-4.85409e-07
-1.10026e-06
-6.16949e-07
-3.233e-06
-1.39764e-06
-5.87686e-06
-2.85508e-06
-8.87783e-06
-5.05647e-06
-1.21538e-05
-7.94645e-06
-1.57033e-05
-1.12104e-05
-1.94619e-05
-1.50249e-05
-2.38088e-05
-1.99481e-05
-2.99772e-05
-2.72717e-05
-3.85466e-05
-3.70647e-05
-4.732e-05
-4.97558e-05
-5.27629e-05
-6.29129e-05
-5.04618e-05
-3.55367e-05
-7.18576e-05
-7.45201e-07
2.23707e-05
-1.5443e-06
-6.97229e-06
-2.06533e-06
-1.20287e-06
-2.41241e-06
2.17019e-06
-2.61381e-06
2.50091e-06
-2.69817e-06
2.25844e-06
-2.69562e-06
1.89193e-06
-2.62573e-06
1.30685e-06
-2.59663e-06
3.91727e-07
-2.78182e-06
-9.15096e-07
-3.37894e-06
-2.63592e-06
-4.52417e-06
-4.73167e-06
-6.271e-06
-7.13102e-06
-8.62222e-06
-9.80258e-06
-1.15759e-05
-1.27497e-05
-1.51081e-05
-1.59298e-05
-1.94635e-05
-1.94535e-05
-2.55826e-05
-2.3858e-05
-3.46336e-05
-2.94956e-05
-4.63703e-05
-3.55833e-05
-5.94136e-05
-3.97195e-05
-7.20488e-05
-3.78265e-05
-2.80794e-05
-7.95061e-05
-5.16165e-07
2.28869e-05
-1.28822e-06
-6.20027e-06
-1.90877e-06
-5.82363e-07
-2.37371e-06
2.63508e-06
-2.73195e-06
2.85915e-06
-3.03275e-06
2.55927e-06
-3.31473e-06
2.17395e-06
-3.62034e-06
1.61248e-06
-4.03086e-06
8.02243e-07
-4.6531e-06
-2.92855e-07
-5.61518e-06
-1.67386e-06
-7.02202e-06
-3.32486e-06
-8.93767e-06
-5.2154e-06
-1.14227e-05
-7.3177e-06
-1.45611e-05
-9.6114e-06
-1.84323e-05
-1.20588e-05
-2.32544e-05
-1.46316e-05
-2.97702e-05
-1.73423e-05
-3.90663e-05
-2.01996e-05
-5.15922e-05
-2.30574e-05
-6.66941e-05
-2.46176e-05
-8.24026e-05
-2.21181e-05
-1.40051e-05
-9.6477e-05
-4.11716e-07
2.32986e-05
-1.17101e-06
-5.44102e-06
-1.86698e-06
1.13558e-07
-2.42994e-06
3.19801e-06
-2.91777e-06
3.347e-06
-3.38444e-06
3.026e-06
-3.87161e-06
2.66118e-06
-4.43151e-06
2.17241e-06
-5.12395e-06
1.4947e-06
-6.02712e-06
6.10336e-07
-7.22714e-06
-4.7384e-07
-8.80754e-06
-1.74448e-06
-1.08472e-05
-3.17577e-06
-1.34347e-05
-4.73037e-06
-1.66908e-05
-6.35545e-06
-2.07605e-05
-7.98918e-06
-2.57836e-05
-9.60852e-06
-3.19879e-05
-1.1138e-05
-3.98544e-05
-1.23331e-05
-5.01257e-05
-1.2786e-05
-6.31155e-05
-1.16278e-05
-7.77225e-05
-7.51118e-06
5.56001e-08
-9.17832e-05
-3.83088e-07
2.36816e-05
-1.14442e-06
-4.67975e-06
-1.89546e-06
8.64554e-07
-2.53095e-06
3.83348e-06
-3.12294e-06
3.93902e-06
-3.72397e-06
3.62708e-06
-4.36759e-06
3.30485e-06
-5.10093e-06
2.90579e-06
-5.9696e-06
2.3634e-06
-7.04372e-06
1.68448e-06
-8.38837e-06
8.70828e-07
-1.00733e-05
-5.95414e-08
-1.21718e-05
-1.07734e-06
-1.47616e-05
-2.14074e-06
-1.79293e-05
-3.1879e-06
-2.17825e-05
-4.13602e-06
-2.64657e-05
-4.92523e-06
-3.21399e-05
-5.46379e-06
-3.89315e-05
-5.54168e-06
-4.69777e-05
-4.73976e-06
-5.62497e-05
-2.35591e-06
-6.60981e-05
2.33714e-06
9.93065e-06
-7.59732e-05
-3.91859e-07
2.40735e-05
-1.16783e-06
-3.90385e-06
-1.96156e-06
1.65823e-06
-2.64899e-06
4.52088e-06
-3.3209e-06
4.61096e-06
-4.02315e-06
4.32936e-06
-4.78501e-06
4.06672e-06
-5.63469e-06
3.75548e-06
-6.62568e-06
3.35442e-06
-7.80563e-06
2.86443e-06
-9.22994e-06
2.29511e-06
-1.0959e-05
1.66946e-06
-1.30544e-05
1.01796e-06
-1.55787e-05
3.83545e-07
-1.8597e-05
-1.69716e-07
-2.21716e-05
-5.61526e-07
-2.64e-05
-6.96945e-07
-3.14082e-05
-4.55628e-07
-3.72816e-05
3.31611e-07
-4.39505e-05
1.92908e-06
-5.11419e-05
4.8354e-06
-5.82909e-05
9.48611e-06
1.63221e-05
-6.46824e-05
-4.13375e-07
2.44868e-05
-1.21147e-06
-3.10584e-06
-2.03516e-06
2.48186e-06
-2.76548e-06
5.25117e-06
-3.49171e-06
5.33719e-06
-4.2635e-06
5.10115e-06
-5.10249e-06
4.90569e-06
-6.03542e-06
4.68841e-06
-7.09958e-06
4.41859e-06
-8.3362e-06
4.10104e-06
-9.79064e-06
3.74956e-06
-1.15088e-05
3.38766e-06
-1.35399e-05
3.04893e-06
-1.59343e-05
2.77778e-06
-1.87399e-05
2.63575e-06
-2.2003e-05
2.70151e-06
-2.57635e-05
3.06356e-06
-3.00445e-05
3.82525e-06
-3.48396e-05
5.12665e-06
-4.01003e-05
7.18977e-06
-4.56018e-05
1.03368e-05
-5.09175e-05
1.48018e-05
2.08167e-05
-5.54121e-05
-4.33649e-07
2.49204e-05
-1.25888e-06
-2.28068e-06
-2.10297e-06
3.3259e-06
-2.86195e-06
6.01012e-06
-3.62196e-06
6.09717e-06
-4.43445e-06
5.9136e-06
-5.32236e-06
5.79356e-06
-6.29926e-06
5.66529e-06
-7.39679e-06
5.51611e-06
-8.64884e-06
5.35304e-06
-1.00866e-05
5.18722e-06
-1.17493e-05
5.05035e-06
-1.36725e-05
4.97217e-06
-1.58881e-05
4.99341e-06
-1.84251e-05
5.17272e-06
-2.1304e-05
5.58048e-06
-2.45434e-05
6.3029e-06
-2.81444e-05
7.42617e-06
-3.20707e-05
9.0529e-06
-3.62423e-05
1.13613e-05
-4.04274e-05
1.45218e-05
-4.43188e-05
1.86931e-05
2.39753e-05
-4.74774e-05
-4.4529e-07
2.53656e-05
-1.2989e-06
-1.42713e-06
-2.15662e-06
4.18359e-06
-2.92296e-06
6.77644e-06
-3.70279e-06
6.87696e-06
-4.53843e-06
6.74914e-06
-5.44005e-06
6.69511e-06
-6.43075e-06
6.65594e-06
-7.52979e-06
6.61511e-06
-8.75915e-06
6.58239e-06
-1.01496e-05
6.57769e-06
-1.17248e-05
6.62549e-06
-1.3508e-05
6.75542e-06
-1.55233e-05
7.00881e-06
-1.7785e-05
7.43442e-06
-2.02993e-05
8.09467e-06
-2.30588e-05
9.0624e-06
-2.60386e-05
1.04059e-05
-2.91938e-05
1.22079e-05
-3.24272e-05
1.45947e-05
-3.55683e-05
1.76628e-05
-3.83858e-05
2.15106e-05
2.6146e-05
-4.05565e-05
-4.44224e-07
2.58098e-05
-1.32179e-06
-5.49557e-07
-2.18164e-06
5.04345e-06
-2.94997e-06
7.54476e-06
-3.73278e-06
7.65975e-06
-4.56911e-06
7.5854e-06
-5.47027e-06
7.59622e-06
-6.4485e-06
7.63415e-06
-7.52019e-06
7.68675e-06
-8.70448e-06
7.76661e-06
-1.00203e-05
7.89347e-06
-1.14846e-05
8.08972e-06
-1.31134e-05
8.38421e-06
-1.49182e-05
8.81361e-06
-1.69026e-05
9.41886e-06
-1.90601e-05
1.0252e-05
-2.13726e-05
1.13748e-05
-2.38097e-05
1.28429e-05
-2.63149e-05
1.4713e-05
-2.87802e-05
1.70599e-05
-3.1084e-05
1.99666e-05
-3.30497e-05
2.34764e-05
2.7562e-05
-3.44656e-05
-4.29814e-07
2.62396e-05
-1.32282e-06
3.43489e-07
-2.17526e-06
5.89594e-06
-2.93501e-06
8.30452e-06
-3.70893e-06
8.43363e-06
-4.53339e-06
8.4098e-06
-5.41462e-06
8.47741e-06
-6.36287e-06
8.58238e-06
-7.39066e-06
8.71449e-06
-8.51111e-06
8.88698e-06
-9.7353e-06
9.11756e-06
-1.10754e-05
9.42977e-06
-1.25414e-05
9.85021e-06
-1.41359e-05
1.04081e-05
-1.58549e-05
1.11379e-05
-1.76851e-05
1.20822e-05
-1.96004e-05
1.329e-05
-2.15632e-05
1.48055e-05
-2.35137e-05
1.66635e-05
-2.53589e-05
1.89051e-05
-2.70009e-05
2.16086e-05
-2.82958e-05
2.47713e-05
2.83737e-05
-2.91075e-05
-4.03839e-07
2.66435e-05
-1.2981e-06
1.23781e-06
-2.13233e-06
6.73022e-06
-2.87429e-06
9.04651e-06
-3.62933e-06
9.18861e-06
-4.42967e-06
9.21012e-06
-5.27894e-06
9.32667e-06
-6.184e-06
9.48747e-06
-7.15384e-06
9.68433e-06
-8.19699e-06
9.93015e-06
-9.32186e-06
1.02424e-05
-1.05348e-05
1.06427e-05
-1.18389e-05
1.11543e-05
-1.32315e-05
1.18007e-05
-1.47046e-05
1.26111e-05
-1.62376e-05
1.36151e-05
-1.78014e-05
1.48538e-05
-1.93573e-05
1.63613e-05
-2.08502e-05
1.81565e-05
-2.22049e-05
2.02597e-05
-2.33127e-05
2.27164e-05
-2.409e-05
2.55486e-05
2.87049e-05
-2.44212e-05
-3.67202e-07
2.70108e-05
-1.24551e-06
2.1162e-06
-2.04985e-06
7.53461e-06
-2.76684e-06
9.76354e-06
-3.4944e-06
9.91614e-06
-4.2611e-06
9.97685e-06
-5.06864e-06
1.01343e-05
-5.92163e-06
1.03405e-05
-6.82604e-06
1.05888e-05
-7.78736e-06
1.08915e-05
-8.81034e-06
1.12654e-05
-9.89729e-06
1.17297e-05
-1.10442e-05
1.23013e-05
-1.22469e-05
1.30034e-05
-1.34933e-05
1.38574e-05
-1.47633e-05
1.4885e-05
-1.60284e-05
1.61189e-05
-1.72485e-05
1.75813e-05
-1.83674e-05
1.92753e-05
-1.93239e-05
2.12162e-05
-2.00282e-05
2.34206e-05
-2.04013e-05
2.59217e-05
2.86718e-05
-2.03684e-05
-3.20279e-07
2.73311e-05
-1.16582e-06
2.96181e-06
-1.92957e-06
8.29838e-06
-2.61384e-06
1.04478e-05
-3.30586e-06
1.06082e-05
-4.03066e-06
1.07017e-05
-4.78875e-06
1.08924e-05
-5.58322e-06
1.11349e-05
-6.41757e-06
1.14231e-05
-7.29587e-06
1.17698e-05
-8.21786e-06
1.21873e-05
-9.1801e-06
1.26919e-05
-1.0182e-05
1.33033e-05
-1.12139e-05
1.40353e-05
-1.22624e-05
1.4906e-05
-1.33064e-05
1.5929e-05
-1.43152e-05
1.71277e-05
-1.52543e-05
1.85203e-05
-1.60828e-05
2.01037e-05
-1.67308e-05
2.18642e-05
-1.71318e-05
2.38214e-05
-1.72084e-05
2.59982e-05
2.83787e-05
-1.69154e-05
-2.60055e-07
2.75911e-05
-1.06254e-06
3.76429e-06
-1.77711e-06
9.01299e-06
-2.42101e-06
1.10917e-05
-3.06892e-06
1.12561e-05
-3.744e-06
1.13768e-05
-4.44622e-06
1.15946e-05
-5.17644e-06
1.18651e-05
-5.9388e-06
1.21854e-05
-6.73059e-06
1.25615e-05
-7.55112e-06
1.30078e-05
-8.39972e-06
1.35405e-05
-9.26872e-06
1.41723e-05
-1.0147e-05
1.49136e-05
-1.10218e-05
1.57808e-05
-1.18731e-05
1.67803e-05
-1.26753e-05
1.79298e-05
-1.33934e-05
1.92383e-05
-1.39868e-05
2.0697e-05
-1.44102e-05
2.22875e-05
-1.45957e-05
2.40068e-05
-1.44791e-05
2.58815e-05
2.79211e-05
-1.40217e-05
-1.77457e-07
2.77686e-05
-9.39472e-07
4.5263e-06
-1.60109e-06
9.67466e-06
-2.19778e-06
1.16884e-05
-2.79431e-06
1.18527e-05
-3.41258e-06
1.19951e-05
-4.05282e-06
1.22348e-05
-4.71228e-06
1.25245e-05
-5.39443e-06
1.28675e-05
-6.09858e-06
1.32656e-05
-6.82349e-06
1.37327e-05
-7.55972e-06
1.42768e-05
-8.30561e-06
1.49183e-05
-9.0471e-06
1.56551e-05
-9.76995e-06
1.65037e-05
-1.04585e-05
1.74689e-05
-1.10887e-05
1.856e-05
-1.16267e-05
1.97763e-05
-1.20472e-05
2.11174e-05
-1.23129e-05
2.25531e-05
-1.23611e-05
2.4055e-05
-1.21338e-05
2.56541e-05
2.73913e-05
-1.16041e-05
-6.01757e-08
2.78288e-05
-8.03074e-07
5.26925e-06
-1.41409e-06
1.02857e-05
-1.95653e-06
1.22309e-05
-2.49388e-06
1.23902e-05
-3.04929e-06
1.25506e-05
-3.61906e-06
1.28045e-05
-4.2056e-06
1.31109e-05
-4.80374e-06
1.34656e-05
-5.41594e-06
1.38778e-05
-6.03873e-06
1.43555e-05
-6.66934e-06
1.49075e-05
-7.29182e-06
1.55408e-05
-7.90395e-06
1.62673e-05
-8.48928e-06
1.7089e-05
-9.033e-06
1.80125e-05
-9.514e-06
1.9041e-05
-9.90979e-06
2.01721e-05
-1.0197e-05
2.14046e-05
-1.0343e-05
2.2699e-05
-1.03119e-05
2.40239e-05
-1.00461e-05
2.53882e-05
2.686e-05
-9.51479e-06
9.03904e-08
2.77384e-05
-6.59384e-07
6.01915e-06
-1.22681e-06
1.08531e-05
-1.71416e-06
1.27183e-05
-2.18866e-06
1.28647e-05
-2.67808e-06
1.304e-05
-3.1765e-06
1.33029e-05
-3.68366e-06
1.3618e-05
-4.19347e-06
1.39754e-05
-4.70777e-06
1.43922e-05
-5.22645e-06
1.48743e-05
-5.7413e-06
1.54225e-05
-6.24368e-06
1.60433e-05
-6.72554e-06
1.67492e-05
-7.1765e-06
1.754e-05
-7.57903e-06
1.84151e-05
-7.92301e-06
1.93849e-05
-8.18794e-06
2.0437e-05
-8.34868e-06
2.15654e-05
-8.39497e-06
2.27453e-05
-8.30201e-06
2.39309e-05
-8.02227e-06
2.51084e-05
2.63662e-05
-7.52847e-06
2.66674e-07
2.74717e-05
-5.09429e-07
6.79537e-06
-1.0498e-06
1.13934e-05
-1.48158e-06
1.31501e-05
-1.89631e-06
1.32794e-05
-2.32281e-06
1.34665e-05
-2.74997e-06
1.373e-05
-3.17705e-06
1.40451e-05
-3.60486e-06
1.44032e-05
-4.028e-06
1.48153e-05
-4.43623e-06
1.52826e-05
-4.83686e-06
1.58232e-05
-5.21489e-06
1.64214e-05
-5.56835e-06
1.71027e-05
-5.88178e-06
1.78534e-05
-6.14301e-06
1.86763e-05
-6.34429e-06
1.95863e-05
-6.46223e-06
2.0555e-05
-6.49234e-06
2.15955e-05
-6.41955e-06
2.26725e-05
-6.2366e-06
2.37479e-05
-5.92281e-06
2.47946e-05
2.58798e-05
-5.43654e-06
4.45011e-07
2.70268e-05
-3.64526e-07
7.60496e-06
-8.94183e-07
1.19231e-05
-1.27827e-06
1.35342e-05
-1.64323e-06
1.36444e-05
-2.01657e-06
1.38398e-05
-2.38623e-06
1.40997e-05
-2.74614e-06
1.4405e-05
-3.09583e-06
1.47529e-05
-3.43149e-06
1.51511e-05
-3.75122e-06
1.56024e-05
-4.04351e-06
1.61156e-05
-4.3129e-06
1.66908e-05
-4.53971e-06
1.73295e-05
-4.71965e-06
1.80334e-05
-4.84646e-06
1.88032e-05
-4.89521e-06
1.96351e-05
-4.86974e-06
2.05296e-05
-4.7486e-06
2.14744e-05
-4.5191e-06
2.24431e-05
-4.19509e-06
2.34239e-05
-3.76555e-06
2.4365e-05
2.53173e-05
-3.20296e-06
6.27412e-07
2.63995e-05
-2.31996e-07
8.46438e-06
-7.69616e-07
1.24608e-05
-1.12029e-06
1.38848e-05
-1.45368e-06
1.39777e-05
-1.78965e-06
1.41758e-05
-2.11813e-06
1.44282e-05
-2.4309e-06
1.47178e-05
-2.72571e-06
1.50478e-05
-2.99929e-06
1.54247e-05
-3.2477e-06
1.58509e-05
-3.46466e-06
1.63326e-05
-3.64369e-06
1.68698e-05
-3.77562e-06
1.74615e-05
-3.84917e-06
1.8107e-05
-3.8549e-06
1.8809e-05
-3.78028e-06
1.95605e-05
-3.61217e-06
2.03615e-05
-3.33869e-06
2.1201e-05
-2.95106e-06
2.20555e-05
-2.44906e-06
2.29219e-05
-1.83328e-06
2.37492e-05
2.45788e-05
-1.09478e-06
8.12306e-07
2.55873e-05
-1.13705e-07
9.3904e-06
-6.76218e-07
1.30233e-05
-1.01164e-06
1.42202e-05
-1.33398e-06
1.43e-05
-1.66102e-06
1.45028e-05
-1.96538e-06
1.47326e-05
-2.2547e-06
1.50071e-05
-2.52257e-06
1.53156e-05
-2.76567e-06
1.56679e-05
-2.97342e-06
1.60588e-05
-3.15154e-06
1.65108e-05
-3.28211e-06
1.70005e-05
-3.35992e-06
1.75394e-05
-3.37103e-06
1.81182e-05
-3.3067e-06
1.87447e-05
-3.14441e-06
1.93982e-05
-2.88476e-06
2.01019e-05
-2.50262e-06
2.08189e-05
-1.98509e-06
2.1538e-05
-1.32903e-06
2.22659e-05
-5.34393e-07
2.29547e-05
2.36285e-05
4.15965e-07
9.8181e-07
2.46055e-05
-1.40713e-08
1.03863e-05
-6.08936e-07
1.36183e-05
-9.4544e-07
1.45567e-05
-1.27708e-06
1.46317e-05
-1.60397e-06
1.48297e-05
-1.91255e-06
1.50412e-05
-2.19767e-06
1.52923e-05
-2.46184e-06
1.55798e-05
-2.6996e-06
1.59057e-05
-2.90824e-06
1.62676e-05
-3.07772e-06
1.66805e-05
-3.20196e-06
1.71249e-05
-3.26933e-06
1.76068e-05
-3.26806e-06
1.8117e-05
-3.18298e-06
1.86596e-05
-3.01032e-06
1.92256e-05
-2.71943e-06
1.98111e-05
-2.30057e-06
2.04e-05
-1.74323e-06
2.09807e-05
-1.01925e-06
2.1542e-05
-1.21079e-07
2.20565e-05
2.2558e-05
9.49463e-07
1.10157e-06
2.35039e-05
5.29924e-08
1.1435e-05
-5.56716e-07
1.4228e-05
-9.02753e-07
1.49027e-05
-1.25396e-06
1.49828e-05
-1.58731e-06
1.51631e-05
-1.9025e-06
1.53564e-05
-2.2016e-06
1.55914e-05
-2.47483e-06
1.58531e-05
-2.72628e-06
1.61573e-05
-2.95367e-06
1.64951e-05
-3.1364e-06
1.68633e-05
-3.27785e-06
1.72664e-05
-3.36614e-06
1.76951e-05
-3.39125e-06
1.81421e-05
-3.33674e-06
1.86051e-05
-3.1902e-06
1.90791e-05
-2.93599e-06
1.95569e-05
-2.55713e-06
2.00212e-05
-2.03392e-06
2.04575e-05
-1.34869e-06
2.08568e-05
-4.81861e-07
2.11898e-05
2.15008e-05
5.75417e-07
1.16109e-06
2.23428e-05
9.17784e-08
1.25044e-05
-5.06324e-07
1.4826e-05
-8.59379e-07
1.52557e-05
-1.22154e-06
1.5345e-05
-1.56242e-06
1.55039e-05
-1.88668e-06
1.56806e-05
-2.1887e-06
1.58934e-05
-2.47768e-06
1.61422e-05
-2.74023e-06
1.642e-05
-2.97738e-06
1.67323e-05
-3.18344e-06
1.70694e-05
-3.34978e-06
1.74327e-05
-3.46874e-06
1.78141e-05
-3.53093e-06
1.82043e-05
-3.52185e-06
1.85961e-05
-3.42922e-06
1.89865e-05
-3.23966e-06
1.93673e-05
-2.9404e-06
1.9722e-05
-2.50811e-06
2.00252e-05
-1.93074e-06
2.02794e-05
-1.18545e-06
2.04446e-05
2.05647e-05
-2.49198e-07
1.16913e-06
2.11737e-05
1.17138e-07
1.35564e-05
-4.51313e-07
1.53945e-05
-7.95089e-07
1.55994e-05
-1.15679e-06
1.57066e-05
-1.48854e-06
1.58356e-05
-1.81097e-06
1.60029e-05
-2.11004e-06
1.61924e-05
-2.39121e-06
1.64234e-05
-2.65617e-06
1.6685e-05
-2.89606e-06
1.69723e-05
-3.11047e-06
1.72839e-05
-3.29317e-06
1.76155e-05
-3.43571e-06
1.79567e-05
-3.52772e-06
1.82963e-05