/*--------------------------------*- C++ -*----------------------------------*\
| =========                 |                                                 |
| \\      /  F ield         | OpenFOAM: The Open Source CFD Toolbox           |
|  \\    /   O peration     | Version:  2012                                  |
|   \\  /    A nd           | Website:  www.openfoam.com                      |
|    \\/     M anipulation  |                                                 |
\*---------------------------------------------------------------------------*/
FoamFile
{
    version     2.0;
    format      ascii;
    class       volVectorField;
    location    "4e-05";
    object      U;
}
// * * * * * * * * * * * * * * * * * * * * * * * * * * * * * * * * * * * * * //

dimensions      [0 1 -1 0 0 0 0];


internalField   nonuniform List<vector> 
5000
(
(-1.137754767e-13 0 0)
(-1.191128916e-13 0 0)
(-1.258881229e-13 0 0)
(-1.258693979e-13 0 0)
(-1.285353285e-13 0 0)
(-1.298306477e-13 0 0)
(-1.20990883e-13 0 0)
(-1.039072301e-13 0 0)
(-7.853239862e-14 0 0)
(-6.03561741e-14 0 0)
(-4.639903322e-14 0 0)
(-3.550283593e-14 0 0)
(-2.816238556e-14 0 0)
(-2.411242592e-14 0 0)
(-1.79477838e-14 0 0)
(-1.207553207e-14 0 0)
(-9.212744268e-15 0 0)
(-9.311936736e-15 0 0)
(-7.509133867e-15 0 0)
(-4.143715714e-15 0 0)
(2.864696327e-16 0 0)
(2.247731113e-15 0 0)
(5.563547584e-15 0 0)
(6.987866082e-15 0 0)
(6.749896493e-15 0 0)
(6.829956942e-15 0 0)
(6.582169284e-15 0 0)
(3.963350894e-15 0 0)
(5.050331382e-16 0 0)
(-1.715249645e-15 0 0)
(-3.044755215e-15 0 0)
(-4.754578331e-15 0 0)
(-8.690133936e-15 0 0)
(-1.205752753e-14 0 0)
(-1.463993137e-14 0 0)
(-1.818396205e-14 0 0)
(-2.635284937e-14 0 0)
(-3.464976231e-14 0 0)
(-3.775420445e-14 0 0)
(-3.692382131e-14 0 0)
(-3.858059351e-14 0 0)
(-3.197985679e-14 0 0)
(-2.830179841e-14 0 0)
(-2.499839566e-14 0 0)
(-2.141494605e-14 0 0)
(-2.32919227e-14 0 0)
(-2.755476146e-14 0 0)
(-2.225121977e-14 0 0)
(-1.909278233e-14 0 0)
(-5.726091414e-15 0 0)
(1.254827076e-14 0 0)
(3.70982941e-14 0 0)
(4.890586157e-14 0 0)
(5.281834034e-14 0 0)
(5.52731602e-14 0 0)
(5.94476925e-14 0 0)
(5.420421561e-14 0 0)
(4.878355176e-14 0 0)
(4.521296759e-14 0 0)
(3.491006818e-14 0 0)
(3.029210903e-14 0 0)
(1.887020615e-14 0 0)
(1.233768719e-14 0 0)
(4.354949694e-15 0 0)
(-3.081306855e-15 0 0)
(-1.543580935e-14 0 0)
(-2.2342546e-14 0 0)
(-2.697641478e-14 0 0)
(-2.903663584e-14 0 0)
(-2.729407198e-14 0 0)
(-2.25237061e-14 0 0)
(-1.464543594e-14 0 0)
(-1.145591261e-14 0 0)
(-1.086829624e-14 0 0)
(-1.107313107e-14 0 0)
(-1.121130646e-14 0 0)
(-9.444825779e-15 0 0)
(-6.787143433e-15 0 0)
(-4.184911216e-15 0 0)
(-4.650293696e-15 0 0)
(-4.932171347e-15 0 0)
(-6.476474035e-15 0 0)
(-1.19249316e-14 0 0)
(-1.199443735e-14 0 0)
(-1.214524304e-14 0 0)
(-1.036861986e-14 0 0)
(-1.353660488e-14 0 0)
(-1.968857159e-14 0 0)
(-2.246667749e-14 0 0)
(-2.466238453e-14 0 0)
(-2.781068944e-14 0 0)
(-2.170764623e-14 0 0)
(-1.403725557e-14 0 0)
(-1.252176992e-14 0 0)
(-1.449718617e-14 0 0)
(-1.363101583e-14 0 0)
(-1.382962685e-14 0 0)
(-1.472763561e-14 0 0)
(-1.411540985e-14 0 0)
(-7.950262543e-15 0 0)
(3.429896015e-15 0 0)
(1.145880219e-14 0 0)
(1.451950589e-14 0 0)
(1.643879958e-14 0 0)
(1.805750139e-14 0 0)
(2.119747402e-14 0 0)
(2.893454463e-14 0 0)
(3.892343164e-14 0 0)
(4.445832271e-14 0 0)
(5.602114825e-14 0 0)
(5.939124836e-14 0 0)
(5.315594895e-14 0 0)
(5.073700971e-14 0 0)
(4.130376271e-14 0 0)
(2.942991228e-14 0 0)
(1.616258336e-14 0 0)
(4.842634533e-15 0 0)
(2.17883294e-16 0 0)
(1.986515518e-15 0 0)
(2.405457703e-15 0 0)
(2.688056052e-15 0 0)
(5.914755939e-16 0 0)
(-5.614055057e-15 0 0)
(-1.286930746e-14 0 0)
(-2.055103007e-14 0 0)
(-2.092285294e-14 0 0)
(-2.076890743e-14 0 0)
(-2.014108458e-14 0 0)
(-2.42316227e-14 0 0)
(-3.189972677e-14 0 0)
(-2.978738942e-14 0 0)
(-2.6072624e-14 0 0)
(-1.953959033e-14 0 0)
(-1.442578606e-14 0 0)
(-4.920705625e-15 0 0)
(-1.416017449e-15 0 0)
(2.65651281e-15 0 0)
(1.356619867e-14 0 0)
(2.290983679e-14 0 0)
(3.129725633e-14 0 0)
(3.660620772e-14 0 0)
(3.807793338e-14 0 0)
(3.46240313e-14 0 0)
(2.665875732e-14 0 0)
(1.78360725e-14 0 0)
(1.200751027e-14 0 0)
(7.874702939e-15 0 0)
(2.263474607e-15 0 0)
(-7.644633818e-15 0 0)
(-1.514937484e-14 0 0)
(-1.875152542e-14 0 0)
(-1.719309326e-14 0 0)
(-2.205579802e-14 0 0)
(-2.532000945e-14 0 0)
(-2.99212014e-14 0 0)
(-2.89594328e-14 0 0)
(-2.759166383e-14 0 0)
(-3.021240452e-14 0 0)
(-3.378572922e-14 0 0)
(-2.694937269e-14 0 0)
(-2.227651097e-14 0 0)
(-1.834060472e-14 0 0)
(-1.033024647e-14 0 0)
(-5.39721206e-15 0 0)
(-4.994789662e-15 0 0)
(-4.927335489e-15 0 0)
(-6.612375851e-15 0 0)
(-9.573910344e-15 0 0)
(-1.332460236e-14 0 0)
(-1.25394479e-14 0 0)
(-1.193215245e-14 0 0)
(-5.401649644e-15 0 0)
(-1.252652747e-15 0 0)
(2.680414973e-15 0 0)
(5.033996438e-15 0 0)
(-1.924880008e-15 0 0)
(-1.236737412e-14 0 0)
(-1.611030601e-14 0 0)
(-1.497408677e-14 0 0)
(-1.221438893e-14 0 0)
(-1.098315477e-14 0 0)
(-1.082764809e-14 0 0)
(-7.812950891e-15 0 0)
(-3.684449546e-15 0 0)
(2.344771357e-15 0 0)
(9.52516329e-15 0 0)
(1.004194935e-14 0 0)
(8.043864423e-15 0 0)
(6.15064749e-15 0 0)
(3.42101618e-15 0 0)
(4.374932659e-15 0 0)
(5.57440074e-15 0 0)
(5.674262013e-15 0 0)
(2.254816289e-15 0 0)
(4.005400346e-16 0 0)
(-1.221636606e-15 0 0)
(-1.518631993e-15 0 0)
(-7.638609341e-16 0 0)
(1.563755929e-15 0 0)
(4.26249561e-15 0 0)
(4.304876499e-15 0 0)
(5.612286482e-15 0 0)
(-1.20967334e-15 0 0)
(-8.844619915e-15 0 0)
(-1.758837151e-14 0 0)
(-2.133266133e-14 0 0)
(-2.013665644e-14 0 0)
(-9.605773874e-15 0 0)
(-7.107576162e-16 0 0)
(5.15901076e-15 0 0)
(8.373262304e-15 0 0)
(9.001452024e-15 0 0)
(1.108000904e-14 0 0)
(6.31358638e-15 0 0)
(2.238340203e-15 0 0)
(-1.937282039e-16 0 0)
(3.874168701e-15 0 0)
(9.730103738e-15 0 0)
(1.334150461e-14 0 0)
(1.346648726e-14 0 0)
(9.470819713e-15 0 0)
(1.684132726e-15 0 0)
(-1.159413215e-14 0 0)
(-1.451370321e-14 0 0)
(-1.185721923e-14 0 0)
(-7.43262203e-15 0 0)
(-4.048654135e-15 0 0)
(-6.871162616e-15 0 0)
(-1.234937764e-14 0 0)
(-1.60743086e-14 0 0)
(-1.758289654e-14 0 0)
(-1.891291779e-14 0 0)
(-1.730637681e-14 0 0)
(-1.268214585e-14 0 0)
(-6.764453705e-15 0 0)
(4.256598435e-15 0 0)
(1.137273891e-14 0 0)
(1.316090572e-14 0 0)
(1.30952623e-14 0 0)
(1.261404099e-14 0 0)
(8.696325932e-15 0 0)
(4.677608293e-15 0 0)
(2.331559921e-15 0 0)
(5.136166221e-16 0 0)
(2.465568094e-15 0 0)
(7.980179178e-15 0 0)
(1.739262397e-14 0 0)
(2.334851914e-14 0 0)
(2.866886635e-14 0 0)
(2.875340168e-14 0 0)
(2.560760054e-14 0 0)
(2.295011111e-14 0 0)
(2.306619557e-14 0 0)
(2.515707493e-14 0 0)
(2.823915621e-14 0 0)
(2.651539163e-14 0 0)
(2.564171058e-14 0 0)
(2.307007042e-14 0 0)
(1.925218038e-14 0 0)
(1.755873781e-14 0 0)
(1.626365555e-14 0 0)
(1.464425967e-14 0 0)
(1.134255276e-14 0 0)
(9.286341374e-15 0 0)
(8.538627719e-15 0 0)
(9.518804852e-15 0 0)
(9.166307087e-15 0 0)
(5.213404588e-15 0 0)
(-1.746673839e-15 0 0)
(-5.901932934e-15 0 0)
(-5.313172407e-15 0 0)
(-3.938424234e-15 0 0)
(-2.799972217e-15 0 0)
(4.413070297e-15 0 0)
(1.019160057e-14 0 0)
(1.150206076e-14 0 0)
(1.260659735e-14 0 0)
(9.551416139e-15 0 0)
(2.734642539e-15 0 0)
(-1.017579205e-15 0 0)
(-8.724331079e-15 0 0)
(-1.410411124e-14 0 0)
(-1.942930659e-14 0 0)
(-1.979228337e-14 0 0)
(-1.438658214e-14 0 0)
(-7.709354049e-15 0 0)
(-1.095285217e-15 0 0)
(3.109206282e-16 0 0)
(-3.546896172e-15 0 0)
(-7.126152702e-15 0 0)
(-7.478993985e-15 0 0)
(-7.72185768e-15 0 0)
(-7.286828457e-15 0 0)
(-1.042508373e-14 0 0)
(-1.130227086e-14 0 0)
(-1.16136215e-14 0 0)
(-7.452625013e-15 0 0)
(-2.089560254e-15 0 0)
(-8.499128739e-16 0 0)
(6.244363472e-16 0 0)
(5.203593017e-15 0 0)
(5.689237532e-15 0 0)
(4.250880238e-15 0 0)
(5.316003563e-15 0 0)
(8.1939327e-15 0 0)
(3.844313805e-15 0 0)
(6.010337734e-17 0 0)
(-2.677722266e-15 0 0)
(-3.317089854e-15 0 0)
(-2.645991474e-15 0 0)
(-1.821304734e-15 0 0)
(1.112014916e-15 0 0)
(2.675404979e-15 0 0)
(5.515096248e-15 0 0)
(7.696242496e-15 0 0)
(1.043402837e-14 0 0)
(1.211434972e-14 0 0)
(1.550996532e-14 0 0)
(1.450355931e-14 0 0)
(1.275116857e-14 0 0)
(1.421692925e-14 0 0)
(8.247422356e-15 0 0)
(6.699141258e-16 0 0)
(-2.07624698e-15 0 0)
(2.730343242e-15 0 0)
(9.27079703e-15 0 0)
(1.3394341e-14 0 0)
(1.26095263e-14 0 0)
(9.350404844e-15 0 0)
(6.341885222e-15 0 0)
(-1.420331348e-15 0 0)
(-6.554458804e-15 0 0)
(-1.751362898e-14 0 0)
(-2.067950297e-14 0 0)
(-1.975172756e-14 0 0)
(-2.046139377e-14 0 0)
(-2.18081528e-14 0 0)
(-2.935115686e-14 0 0)
(-3.647546297e-14 0 0)
(-4.063383934e-14 0 0)
(-4.196457209e-14 0 0)
(-3.5194001e-14 0 0)
(-2.196868472e-14 0 0)
(-1.045583058e-14 0 0)
(-4.931007356e-15 0 0)
(1.482139404e-15 0 0)
(4.816919867e-15 0 0)
(6.565976306e-15 0 0)
(8.344586253e-15 0 0)
(7.901549275e-15 0 0)
(6.329977688e-15 0 0)
(9.297032768e-16 0 0)
(-7.775538109e-16 0 0)
(-3.437471326e-15 0 0)
(-2.948125025e-15 0 0)
(1.522060826e-15 0 0)
(3.700970224e-15 0 0)
(8.542199203e-15 0 0)
(1.253351354e-14 0 0)
(1.929604385e-14 0 0)
(2.26703265e-14 0 0)
(2.283758064e-14 0 0)
(2.446973202e-14 0 0)
(2.068062191e-14 0 0)
(2.018642902e-14 0 0)
(2.047586465e-14 0 0)
(2.052627787e-14 0 0)
(2.079360908e-14 0 0)
(1.846473973e-14 0 0)
(1.259443038e-14 0 0)
(5.567568014e-15 0 0)
(-7.199215229e-15 0 0)
(-1.495305537e-14 0 0)
(-1.892653841e-14 0 0)
(-2.144350696e-14 0 0)
(-1.503059987e-14 0 0)
(-9.678268983e-15 0 0)
(-8.621202496e-15 0 0)
(-8.793182014e-15 0 0)
(-6.47374166e-15 0 0)
(1.517445549e-15 0 0)
(8.07437288e-15 0 0)
(1.335701245e-14 0 0)
(1.381305566e-14 0 0)
(1.443133001e-14 0 0)
(1.262195057e-14 0 0)
(1.073211399e-14 0 0)
(1.094559004e-14 0 0)
(1.300609436e-14 0 0)
(1.454427367e-14 0 0)
(1.192561139e-14 0 0)
(4.324118132e-15 0 0)
(-6.782565655e-15 0 0)
(-1.529375221e-14 0 0)
(-1.728215081e-14 0 0)
(-1.620641872e-14 0 0)
(-1.395695592e-14 0 0)
(-1.202765788e-14 0 0)
(-1.320409615e-14 0 0)
(-1.112967322e-14 0 0)
(-7.333986892e-15 0 0)
(-5.99712284e-15 0 0)
(-7.330589606e-15 0 0)
(-8.569583938e-15 0 0)
(-8.622948132e-15 0 0)
(-1.356257138e-14 0 0)
(-2.241307364e-14 0 0)
(-2.577718656e-14 0 0)
(-2.250198896e-14 0 0)
(-1.829785268e-14 0 0)
(-1.295414471e-14 0 0)
(-9.348474187e-15 0 0)
(-3.237784728e-15 0 0)
(1.755106711e-15 0 0)
(8.8355936e-15 0 0)
(1.157338481e-14 0 0)
(1.562962944e-14 0 0)
(1.649112109e-14 0 0)
(1.715630418e-14 0 0)
(2.438134741e-14 0 0)
(2.758211439e-14 0 0)
(2.808671119e-14 0 0)
(2.719186505e-14 0 0)
(2.108431273e-14 0 0)
(1.752229996e-14 0 0)
(1.581343837e-14 0 0)
(1.43644026e-14 0 0)
(1.220727325e-14 0 0)
(9.828324204e-15 0 0)
(9.617173065e-15 0 0)
(8.014619185e-15 0 0)
(4.299010873e-15 0 0)
(8.820920566e-16 0 0)
(-1.683355197e-15 0 0)
(-1.338968963e-15 0 0)
(-1.629360768e-15 0 0)
(-1.992972996e-15 0 0)
(-1.611413384e-15 0 0)
(9.337959818e-16 0 0)
(2.324588975e-15 0 0)
(-6.837650451e-16 0 0)
(-6.449998623e-15 0 0)
(-1.332838076e-14 0 0)
(-2.099737511e-14 0 0)
(-1.899724161e-14 0 0)
(-1.870962169e-14 0 0)
(-1.927064474e-14 0 0)
(-2.036452375e-14 0 0)
(-2.567443079e-14 0 0)
(-2.870839503e-14 0 0)
(-2.169416876e-14 0 0)
(-1.34574186e-14 0 0)
(-1.302078369e-14 0 0)
(-1.045156714e-14 0 0)
(-7.444351269e-15 0 0)
(-5.648764159e-15 0 0)
(-3.154386204e-15 0 0)
(-1.982526563e-16 0 0)
(5.765552163e-15 0 0)
(6.581871646e-15 0 0)
(9.959310641e-15 0 0)
(1.523599486e-14 0 0)
(2.153621279e-14 0 0)
(2.622678106e-14 0 0)
(2.374336339e-14 0 0)
(2.118805006e-14 0 0)
(1.742792419e-14 0 0)
(1.734521532e-14 0 0)
(1.805338837e-14 0 0)
(1.510553554e-14 0 0)
(9.413509277e-15 0 0)
(4.284791267e-15 0 0)
(-8.009837195e-16 0 0)
(-2.467298004e-15 0 0)
(-7.86474845e-15 0 0)
(-1.383478248e-14 0 0)
(-9.990239713e-15 0 0)
(-4.744656132e-15 0 0)
(-2.606883206e-15 0 0)
(-1.659628512e-15 0 0)
(-1.249677498e-16 0 0)
(1.259225342e-16 0 0)
(-2.593568789e-16 0 0)
(-1.217558253e-15 0 0)
(-6.254953529e-15 0 0)
(-8.279470365e-15 0 0)
(-7.922637295e-15 0 0)
(-9.849261052e-15 0 0)
(-1.225767872e-14 0 0)
(-1.492760004e-14 0 0)
(-1.820159778e-14 0 0)
(-2.217187238e-14 0 0)
(-2.548255333e-14 0 0)
(-1.558987085e-14 0 0)
(-8.656354877e-15 0 0)
(-3.290113782e-15 0 0)
(-2.267452575e-15 0 0)
(6.771209251e-15 0 0)
(1.301509561e-14 0 0)
(1.825620271e-14 0 0)
(2.363822655e-14 0 0)
(2.410567275e-14 0 0)
(2.335810094e-14 0 0)
(1.550902902e-14 0 0)
(1.180301129e-14 0 0)
(6.329329606e-15 0 0)
(4.220894945e-15 0 0)
(4.436332211e-15 0 0)
(5.516013333e-15 0 0)
(6.39422774e-15 0 0)
(6.708477332e-15 0 0)
(2.981370283e-15 0 0)
(-3.628834428e-15 0 0)
(-6.556355452e-15 0 0)
(-9.154160495e-15 0 0)
(-8.282069633e-15 0 0)
(-4.088431944e-15 0 0)
(2.842867917e-15 0 0)
(7.811892865e-15 0 0)
(1.344890958e-14 0 0)
(1.549806649e-14 0 0)
(1.513585091e-14 0 0)
(1.444658394e-14 0 0)
(1.444123275e-14 0 0)
(1.427837547e-14 0 0)
(1.011184051e-14 0 0)
(9.535736149e-15 0 0)
(9.788386916e-15 0 0)
(1.275341575e-14 0 0)
(1.469575705e-14 0 0)
(1.586227626e-14 0 0)
(1.345953159e-14 0 0)
(8.361228152e-15 0 0)
(8.418853801e-16 0 0)
(-8.541492236e-15 0 0)
(-1.407626039e-14 0 0)
(-1.705510419e-14 0 0)
(-1.498248086e-14 0 0)
(-1.284075979e-14 0 0)
(-1.152757607e-14 0 0)
(-2.958987289e-15 0 0)
(4.136533088e-15 0 0)
(1.079016635e-14 0 0)
(1.591924596e-14 0 0)
(1.732012181e-14 0 0)
(1.683314575e-14 0 0)
(1.2640724e-14 0 0)
(4.67945799e-15 0 0)
(6.599905186e-16 0 0)
(-4.153828377e-15 0 0)
(-5.00683353e-15 0 0)
(-7.333890437e-15 0 0)
(-1.249508887e-14 0 0)
(-1.139995164e-14 0 0)
(-1.175412501e-14 0 0)
(-1.052474378e-14 0 0)
(-9.22039665e-15 0 0)
(-6.706773092e-15 0 0)
(-3.527499528e-15 0 0)
(-5.60063291e-15 0 0)
(1.097740539e-15 0 0)
(5.15930279e-15 0 0)
(5.560658022e-15 0 0)
(2.790360683e-15 0 0)
(1.293295425e-15 0 0)
(7.234212979e-16 0 0)
(-1.257616044e-15 0 0)
(-8.291201531e-16 0 0)
(7.583712728e-16 0 0)
(1.234768628e-15 0 0)
(-2.859993415e-15 0 0)
(-3.107605032e-15 0 0)
(-4.377198827e-15 0 0)
(-1.82117328e-15 0 0)
(2.795074859e-16 0 0)
(2.767353699e-16 0 0)
(1.346875514e-15 0 0)
(2.770232836e-16 0 0)
(-3.291835598e-15 0 0)
(-4.03059061e-15 0 0)
(-5.011941209e-15 0 0)
(-6.01882766e-16 0 0)
(1.292585472e-15 0 0)
(4.590171764e-17 0 0)
(-2.157706072e-15 0 0)
(-3.347484336e-15 0 0)
(-4.420079588e-15 0 0)
(-5.616837743e-15 0 0)
(-6.439335838e-15 0 0)
(-4.601392134e-15 0 0)
(-4.355681426e-15 0 0)
(-4.70395384e-15 0 0)
(-4.604710441e-15 0 0)
(-2.977525858e-15 0 0)
(6.311613537e-15 0 0)
(1.176049574e-14 0 0)
(1.125001504e-14 0 0)
(8.577271768e-15 0 0)
(1.688783257e-15 0 0)
(5.0014234e-18 0 0)
(-4.118486782e-15 0 0)
(-7.794855399e-15 0 0)
(-8.650257138e-15 0 0)
(-8.687557535e-15 0 0)
(-7.481633822e-15 0 0)
(-3.605733657e-15 0 0)
(1.008768632e-15 0 0)
(6.352737483e-15 0 0)
(9.851710155e-15 0 0)
(1.019138164e-14 0 0)
(1.11447039e-14 0 0)
(9.993605546e-15 0 0)
(9.422423455e-15 0 0)
(-1.670047932e-15 0 0)
(-1.33067537e-14 0 0)
(-2.231837818e-14 0 0)
(-2.440372458e-14 0 0)
(-2.502351916e-14 0 0)
(-1.915371587e-14 0 0)
(-1.016679888e-14 0 0)
(7.010824537e-16 0 0)
(3.810451918e-15 0 0)
(4.567016386e-15 0 0)
(2.504824174e-16 0 0)
(-3.317880441e-15 0 0)
(-5.494504433e-15 0 0)
(-4.019848806e-15 0 0)
(-3.294699586e-15 0 0)
(-2.429666651e-15 0 0)
(1.122495884e-16 0 0)
(5.326412651e-15 0 0)
(7.361351536e-15 0 0)
(1.402782997e-14 0 0)
(1.721875651e-14 0 0)
(1.657851924e-14 0 0)
(1.689299237e-14 0 0)
(1.665585369e-14 0 0)
(1.726614944e-14 0 0)
(1.903672913e-14 0 0)
(1.81760374e-14 0 0)
(1.800552855e-14 0 0)
(1.504514705e-14 0 0)
(9.59966315e-15 0 0)
(2.256384079e-15 0 0)
(4.789242403e-15 0 0)
(1.859925072e-16 0 0)
(-2.242510658e-15 0 0)
(-7.745753226e-15 0 0)
(-9.162134868e-15 0 0)
(-9.239484777e-15 0 0)
(-8.120968086e-15 0 0)
(-4.945220534e-15 0 0)
(-1.614549791e-15 0 0)
(6.19944604e-15 0 0)
(1.012977264e-14 0 0)
(1.101295789e-14 0 0)
(1.064924978e-14 0 0)
(1.039638967e-14 0 0)
(5.70994921e-15 0 0)
(-4.929702869e-15 0 0)
(-6.869593966e-15 0 0)
(-8.874382013e-15 0 0)
(-7.547334029e-15 0 0)
(-3.839251859e-15 0 0)
(-2.064212343e-15 0 0)
(-1.58540307e-15 0 0)
(-1.318228359e-15 0 0)
(-1.085988865e-15 0 0)
(-3.1496967e-15 0 0)
(-2.713740994e-15 0 0)
(-6.025153442e-16 0 0)
(3.913680385e-15 0 0)
(1.702527926e-15 0 0)
(-1.910134607e-15 0 0)
(-8.093086591e-15 0 0)
(-1.11455629e-14 0 0)
(-1.308367189e-14 0 0)
(-1.272732732e-14 0 0)
(-1.298154707e-14 0 0)
(-1.244281787e-14 0 0)
(-1.074482726e-14 0 0)
(-1.02076752e-14 0 0)
(-9.781078207e-15 0 0)
(-1.413068365e-14 0 0)
(-1.964827327e-14 0 0)
(-2.096230386e-14 0 0)
(-2.146357446e-14 0 0)
(-2.390460669e-14 0 0)
(-2.206036977e-14 0 0)
(-2.232357439e-14 0 0)
(-2.344392129e-14 0 0)
(-1.071628338e-14 0 0)
(4.985209797e-15 0 0)
(1.928063482e-14 0 0)
(2.375882682e-14 0 0)
(2.477140404e-14 0 0)
(2.3580713e-14 0 0)
(1.916785646e-14 0 0)
(1.104054186e-14 0 0)
(4.057127629e-15 0 0)
(-1.047970411e-15 0 0)
(-3.782335398e-15 0 0)
(-4.707696399e-15 0 0)
(-2.534993332e-15 0 0)
(1.387610991e-15 0 0)
(5.89803731e-15 0 0)
(6.079876586e-15 0 0)
(6.499687589e-15 0 0)
(7.020754984e-15 0 0)
(7.331068509e-15 0 0)
(7.292646007e-15 0 0)
(7.407454032e-15 0 0)
(6.88274787e-15 0 0)
(5.984874542e-15 0 0)
(9.699239034e-15 0 0)
(1.430917155e-14 0 0)
(2.364546281e-14 0 0)
(2.791551996e-14 0 0)
(3.189660012e-14 0 0)
(2.741723108e-14 0 0)
(2.225037161e-14 0 0)
(1.554815227e-14 0 0)
(7.006964904e-15 0 0)
(2.134616293e-15 0 0)
(-4.022095644e-15 0 0)
(-7.297352698e-15 0 0)
(-1.169544335e-14 0 0)
(-1.282571704e-14 0 0)
(-9.656862187e-15 0 0)
(-8.343195558e-15 0 0)
(-6.555543124e-15 0 0)
(-4.431306949e-15 0 0)
(-1.987622352e-15 0 0)
(1.407778835e-15 0 0)
(2.604087683e-15 0 0)
(6.569570636e-15 0 0)
(4.482694498e-15 0 0)
(2.307995675e-15 0 0)
(1.919021534e-15 0 0)
(1.314710283e-15 0 0)
(-1.267089382e-17 0 0)
(-1.960117387e-15 0 0)
(-3.686943426e-15 0 0)
(-4.320631012e-15 0 0)
(-9.977506237e-15 0 0)
(-1.695335825e-14 0 0)
(-2.371904121e-14 0 0)
(-1.938397076e-14 0 0)
(-1.821154505e-14 0 0)
(-1.370723475e-14 0 0)
(-7.074132661e-15 0 0)
(-3.669772493e-15 0 0)
(9.514289661e-16 0 0)
(4.18582186e-15 0 0)
(8.264324696e-15 0 0)
(9.162957187e-15 0 0)
(7.852499865e-15 0 0)
(4.772408256e-15 0 0)
(-3.29091089e-15 0 0)
(-1.242875916e-14 0 0)
(-1.725610565e-14 0 0)
(-1.775343925e-14 0 0)
(-1.331763199e-14 0 0)
(-6.260618839e-15 0 0)
(-2.450869313e-15 0 0)
(-1.069731975e-15 0 0)
(-3.674074917e-16 0 0)
(-6.603300739e-17 0 0)
(-2.652673763e-15 0 0)
(-1.932047973e-15 0 0)
(3.941216028e-15 0 0)
(4.947759347e-15 0 0)
(5.55872169e-15 0 0)
(5.464904737e-15 0 0)
(4.692146347e-15 0 0)
(6.946958501e-15 0 0)
(7.347970799e-15 0 0)
(9.797498725e-15 0 0)
(1.380353692e-14 0 0)
(1.890752015e-14 0 0)
(1.960454539e-14 0 0)
(1.666398867e-14 0 0)
(8.452039153e-15 0 0)
(4.791382689e-15 0 0)
(3.090007124e-15 0 0)
(4.410837556e-15 0 0)
(4.516201959e-15 0 0)
(1.988298756e-15 0 0)
(1.518026841e-16 0 0)
(4.090385903e-16 0 0)
(7.28531328e-16 0 0)
(4.332456684e-15 0 0)
(3.03129873e-15 0 0)
(3.759516162e-15 0 0)
(4.774950793e-15 0 0)
(2.643780136e-15 0 0)
(-3.445823157e-15 0 0)
(-7.335513266e-15 0 0)
(-8.297751125e-15 0 0)
(-5.996227635e-15 0 0)
(-5.292632542e-15 0 0)
(-4.267199022e-15 0 0)
(-6.284418027e-15 0 0)
(-6.855680925e-15 0 0)
(-7.913852161e-15 0 0)
(-1.309323557e-14 0 0)
(-1.771367684e-14 0 0)
(-1.852380205e-14 0 0)
(-1.425863202e-14 0 0)
(-1.155239084e-14 0 0)
(-9.555372924e-15 0 0)
(-1.010056535e-14 0 0)
(-7.072325932e-15 0 0)
(-4.5137221e-15 0 0)
(-4.896679359e-16 0 0)
(2.246909341e-15 0 0)
(2.15872128e-15 0 0)
(-3.337321733e-17 0 0)
(-3.025677509e-15 0 0)
(-1.911722641e-15 0 0)
(-1.459982883e-15 0 0)
(1.737252835e-15 0 0)
(1.521069018e-14 0 0)
(2.470956614e-14 0 0)
(2.745295504e-14 0 0)
(2.551204976e-14 0 0)
(2.100619153e-14 0 0)
(1.353784769e-14 0 0)
(4.734456666e-15 0 0)
(4.613920936e-16 0 0)
(-8.443519961e-16 0 0)
(-1.325124807e-15 0 0)
(-5.093316415e-15 0 0)
(-6.107319873e-15 0 0)
(-4.330489594e-15 0 0)
(5.411336296e-16 0 0)
(8.505091519e-16 0 0)
(8.134695036e-16 0 0)
(-2.373643533e-15 0 0)
(-7.215939242e-15 0 0)
(-8.798895469e-15 0 0)
(-5.697003658e-15 0 0)
(4.304271805e-15 0 0)
(1.247006713e-14 0 0)
(1.764949799e-14 0 0)
(1.493903096e-14 0 0)
(9.273054264e-15 0 0)
(4.300798868e-15 0 0)
(-1.456186063e-15 0 0)
(-5.560428761e-15 0 0)
(-8.452124341e-15 0 0)
(-7.997622937e-15 0 0)
(-8.209510309e-15 0 0)
(-1.091417961e-14 0 0)
(-1.421858899e-14 0 0)
(-1.781380878e-14 0 0)
(-1.623653911e-14 0 0)
(-1.199115186e-14 0 0)
(-4.603881403e-15 0 0)
(-1.359529556e-15 0 0)
(-2.266414384e-15 0 0)
(-4.308914863e-15 0 0)
(-4.637886944e-15 0 0)
(-2.928397479e-15 0 0)
(-3.494459972e-15 0 0)
(-2.6300634e-15 0 0)
(-2.100207889e-16 0 0)
(2.036637624e-15 0 0)
(1.494822143e-15 0 0)
(-7.007645653e-16 0 0)
(-1.130498688e-14 0 0)
(-2.352518849e-14 0 0)
(-2.562270537e-14 0 0)
(-2.703174754e-14 0 0)
(-2.090428533e-14 0 0)
(-9.878942268e-15 0 0)
(7.138259799e-16 0 0)
(5.882079086e-15 0 0)
(8.928558587e-15 0 0)
(1.240534786e-14 0 0)
(1.305072218e-14 0 0)
(1.180357735e-14 0 0)
(6.053891277e-15 0 0)
(-3.216530744e-15 0 0)
(-9.670138507e-15 0 0)
(-1.652258046e-14 0 0)
(-1.995996692e-14 0 0)
(-1.830524937e-14 0 0)
(-1.865156894e-14 0 0)
(-2.06519362e-14 0 0)
(-1.962546955e-14 0 0)
(-1.903266073e-14 0 0)
(-1.837063472e-14 0 0)
(-1.777612422e-14 0 0)
(-1.556560141e-14 0 0)
(-9.906049378e-15 0 0)
(-8.641215599e-15 0 0)
(-8.096632443e-15 0 0)
(-8.218637294e-15 0 0)
(-5.516368459e-15 0 0)
(1.790680074e-16 0 0)
(3.009723704e-15 0 0)
(1.06540263e-14 0 0)
(1.826245649e-14 0 0)
(2.412282512e-14 0 0)
(2.979493121e-14 0 0)
(3.190429591e-14 0 0)
(3.151975564e-14 0 0)
(2.479543137e-14 0 0)
(1.807757726e-14 0 0)
(4.308500122e-15 0 0)
(-3.498479127e-15 0 0)
(-1.042857149e-14 0 0)
(-1.313397712e-14 0 0)
(-1.317511266e-14 0 0)
(-1.347582372e-14 0 0)
(-1.210675545e-14 0 0)
(-7.072062442e-15 0 0)
(-1.524487477e-15 0 0)
(1.547036507e-15 0 0)
(2.272015793e-15 0 0)
(5.840412805e-15 0 0)
(9.819811905e-15 0 0)
(1.464130055e-14 0 0)
(1.532581692e-14 0 0)
(1.429774271e-14 0 0)
(1.432327605e-14 0 0)
(1.494078779e-14 0 0)
(1.721039392e-14 0 0)
(1.111940272e-14 0 0)
(9.223367233e-15 0 0)
(-1.769253121e-15 0 0)
(-9.707722308e-15 0 0)
(-1.156513801e-14 0 0)
(-1.133337428e-14 0 0)
(-1.048842047e-14 0 0)
(-8.397887986e-15 0 0)
(-1.461216894e-15 0 0)
(5.475904769e-15 0 0)
(2.280019283e-14 0 0)
(3.064298701e-14 0 0)
(3.016089768e-14 0 0)
(2.575718688e-14 0 0)
(1.364488738e-14 0 0)
(8.097666728e-15 0 0)
(8.114707424e-15 0 0)
(8.8793489e-15 0 0)
(8.58450553e-15 0 0)
(1.06805343e-14 0 0)
(1.16573937e-14 0 0)
(9.164366301e-15 0 0)
(5.657267928e-15 0 0)
(3.7693505e-15 0 0)
(1.300105792e-15 0 0)
(2.151515048e-15 0 0)
(1.725922909e-16 0 0)
(-1.226416982e-15 0 0)
(-2.86674438e-15 0 0)
(-4.687330388e-15 0 0)
(-7.32263653e-15 0 0)
(-7.237813015e-15 0 0)
(-6.481427542e-15 0 0)
(-7.049400033e-15 0 0)
(-4.093440593e-15 0 0)
(-6.021232526e-15 0 0)
(-7.62868405e-15 0 0)
(-9.247360311e-15 0 0)
(-9.892963666e-15 0 0)
(-1.04472605e-14 0 0)
(-1.025887674e-14 0 0)
(-9.267612438e-15 0 0)
(-5.029839611e-15 0 0)
(3.034650129e-16 0 0)
(3.319162872e-15 0 0)
(2.883103255e-15 0 0)
(3.176023514e-15 0 0)
(-1.174792556e-15 0 0)
(-4.218102187e-15 0 0)
(-7.373555791e-15 0 0)
(-4.442425973e-15 0 0)
(-3.201484282e-15 0 0)
(-2.620932696e-15 0 0)
(-6.469959014e-15 0 0)
(-1.238850607e-14 0 0)
(-1.560952443e-14 0 0)
(-1.59102635e-14 0 0)
(-1.260903258e-14 0 0)
(-8.715446625e-15 0 0)
(-8.739488391e-15 0 0)
(-1.362711376e-14 0 0)
(-2.138518666e-14 0 0)
(-2.45608531e-14 0 0)
(-2.780049735e-14 0 0)
(-3.011824861e-14 0 0)
(-2.495660757e-14 0 0)
(-2.096781444e-14 0 0)
(-1.839146249e-14 0 0)
(-1.50213071e-14 0 0)
(-1.756348482e-14 0 0)
(-1.878087785e-14 0 0)
(-1.955589141e-14 0 0)
(-2.094712995e-14 0 0)
(-1.894353845e-14 0 0)
(-1.39532499e-14 0 0)
(-1.185095459e-14 0 0)
(-8.505476677e-15 0 0)
(-9.282767772e-15 0 0)
(-7.096186215e-15 0 0)
(-6.727344934e-16 0 0)
(1.563570708e-15 0 0)
(2.642498973e-15 0 0)
(1.546265268e-15 0 0)
(7.46463199e-15 0 0)
(2.14552876e-14 0 0)
(3.463675195e-14 0 0)
(4.238087903e-14 0 0)
(4.079640668e-14 0 0)
(3.113482551e-14 0 0)
(1.848858148e-14 0 0)
(7.614221683e-15 0 0)
(-4.102154486e-15 0 0)
(-1.368761206e-14 0 0)
(-1.738983591e-14 0 0)
(-2.036687242e-14 0 0)
(-1.669687649e-14 0 0)
(-9.957132342e-15 0 0)
(1.022628495e-15 0 0)
(7.055407716e-15 0 0)
(7.544953891e-15 0 0)
(3.557640319e-15 0 0)
(-3.669217206e-15 0 0)
(-2.999078869e-15 0 0)
(1.843077273e-15 0 0)
(1.548061127e-15 0 0)
(3.594979318e-15 0 0)
(8.201758109e-15 0 0)
(5.810496101e-15 0 0)
(7.57600355e-15 0 0)
(8.159833232e-15 0 0)
(9.437310156e-15 0 0)
(9.005202703e-15 0 0)
(6.638218322e-15 0 0)
(3.75889647e-15 0 0)
(2.113804744e-15 0 0)
(2.110015444e-15 0 0)
(6.370594251e-15 0 0)
(1.138491464e-14 0 0)
(1.65832098e-14 0 0)
(1.328701891e-14 0 0)
(9.304245956e-15 0 0)
(-4.555471728e-16 0 0)
(-7.806407739e-15 0 0)
(-1.048390667e-14 0 0)
(-1.028955346e-14 0 0)
(-5.660874639e-15 0 0)
(4.959812317e-15 0 0)
(1.018078205e-14 0 0)
(1.736698791e-14 0 0)
(2.192025638e-14 0 0)
(2.623010518e-14 0 0)
(2.516540242e-14 0 0)
(2.33683242e-14 0 0)
(2.170418455e-14 0 0)
(1.520604404e-14 0 0)
(1.081054979e-14 0 0)
(1.855926262e-15 0 0)
(-1.07235373e-14 0 0)
(-2.243736157e-14 0 0)
(-2.765339269e-14 0 0)
(-3.069765495e-14 0 0)
(-3.084704335e-14 0 0)
(-2.752910699e-14 0 0)
(-1.248177112e-14 0 0)
(-1.670563235e-15 0 0)
(5.869432683e-15 0 0)
(8.596519329e-15 0 0)
(7.562554607e-15 0 0)
(5.836931794e-15 0 0)
(4.42495352e-15 0 0)
(-2.309807628e-15 0 0)
(-2.90701084e-15 0 0)
(-6.864480003e-15 0 0)
(-1.282164897e-14 0 0)
(-1.635126434e-14 0 0)
(-1.988349356e-14 0 0)
(-2.33126599e-14 0 0)
(-2.622265078e-14 0 0)
(-2.856292034e-14 0 0)
(-3.151785311e-14 0 0)
(-2.769651832e-14 0 0)
(-2.100248128e-14 0 0)
(-1.151231885e-14 0 0)
(3.55420002e-16 0 0)
(9.123038102e-15 0 0)
(2.019179478e-14 0 0)
(2.836973718e-14 0 0)
(3.394908781e-14 0 0)
(3.023509101e-14 0 0)
(1.889137807e-14 0 0)
(1.360641894e-14 0 0)
(1.271054665e-14 0 0)
(1.216877195e-14 0 0)
(9.620236871e-15 0 0)
(4.849783119e-15 0 0)
(-3.444543272e-15 0 0)
(-1.037423576e-14 0 0)
(-1.261884345e-14 0 0)
(-1.731876642e-14 0 0)
(-2.139949017e-14 0 0)
(-2.360104745e-14 0 0)
(-2.126186621e-14 0 0)
(-2.003120501e-14 0 0)
(-1.684758534e-14 0 0)
(-1.239594059e-14 0 0)
(-8.75736523e-15 0 0)
(-4.181616954e-15 0 0)
(-1.052692616e-15 0 0)
(-2.218244514e-15 0 0)
(-8.017374033e-16 0 0)
(-2.587033859e-15 0 0)
(-1.159577218e-14 0 0)
(-2.979224584e-14 0 0)
(-3.478682342e-14 0 0)
(-3.681880404e-14 0 0)
(-3.011799557e-14 0 0)
(-1.588717937e-14 0 0)
(-5.885423621e-15 0 0)
(-1.987380162e-15 0 0)
(-5.50572394e-16 0 0)
(-1.48218932e-15 0 0)
(-3.218230084e-15 0 0)
(-3.236554536e-15 0 0)
(-2.724477564e-15 0 0)
(4.297195154e-16 0 0)
(1.086948537e-14 0 0)
(2.67754107e-14 0 0)
(4.474748003e-14 0 0)
(5.920292182e-14 0 0)
(6.507834739e-14 0 0)
(6.510460494e-14 0 0)
(5.628890243e-14 0 0)
(3.852347094e-14 0 0)
(2.107553151e-14 0 0)
(5.891579182e-15 0 0)
(-3.383939129e-15 0 0)
(-6.44724033e-15 0 0)
(-7.064927748e-15 0 0)
(-6.364310442e-15 0 0)
(-6.417263689e-15 0 0)
(-5.52451097e-15 0 0)
(-5.900612833e-15 0 0)
(-8.617819711e-15 0 0)
(-6.199154209e-15 0 0)
(-5.631009415e-15 0 0)
(-4.972048575e-15 0 0)
(-8.792404147e-16 0 0)
(4.54034573e-15 0 0)
(4.607092261e-15 0 0)
(-2.04084107e-15 0 0)
(-9.692966173e-15 0 0)
(-1.648268397e-14 0 0)
(-1.676559649e-14 0 0)
(-1.636082697e-14 0 0)
(-1.225930343e-14 0 0)
(-1.147297901e-14 0 0)
(-1.126970664e-14 0 0)
(-1.150243021e-14 0 0)
(-6.81969106e-15 0 0)
(-4.83562322e-15 0 0)
(-1.367519464e-15 0 0)
(1.222639863e-15 0 0)
(2.88183512e-15 0 0)
(4.779685636e-15 0 0)
(6.848976999e-15 0 0)
(9.99464151e-15 0 0)
(1.091362974e-15 0 0)
(-8.418078622e-16 0 0)
(-2.245517511e-16 0 0)
(-1.297151232e-15 0 0)
(-4.810779285e-15 0 0)
(-5.264889853e-15 0 0)
(-4.903190713e-15 0 0)
(-7.381083844e-15 0 0)
(-1.385072965e-14 0 0)
(-2.484407391e-14 0 0)
(-2.902194179e-14 0 0)
(-3.184622371e-14 0 0)
(-3.040784558e-14 0 0)
(-2.882959737e-14 0 0)
(-2.216417374e-14 0 0)
(-1.620888406e-14 0 0)
(-1.117740853e-14 0 0)
(-8.43657543e-15 0 0)
(-4.12152156e-15 0 0)
(-1.695897925e-15 0 0)
(3.417676391e-15 0 0)
(9.6329674e-15 0 0)
(7.895989534e-15 0 0)
(1.10652555e-14 0 0)
(1.455203167e-14 0 0)
(1.289007898e-14 0 0)
(1.064289384e-14 0 0)
(9.507572518e-15 0 0)
(1.764178522e-14 0 0)
(2.634437071e-14 0 0)
(3.136509221e-14 0 0)
(2.867131283e-14 0 0)
(2.165698822e-14 0 0)
(1.220483632e-14 0 0)
(6.144863952e-15 0 0)
(4.673841699e-15 0 0)
(6.804424576e-15 0 0)
(1.315163712e-14 0 0)
(2.02656628e-14 0 0)
(2.125305768e-14 0 0)
(1.5210245e-14 0 0)
(1.062007998e-14 0 0)
(9.855733843e-15 0 0)
(1.0394746e-14 0 0)
(8.820962035e-15 0 0)
(2.813532184e-15 0 0)
(-8.60682648e-15 0 0)
(-2.183324953e-14 0 0)
(-1.966750203e-14 0 0)
(-1.869080927e-14 0 0)
(-1.574599308e-14 0 0)
(-9.929866494e-15 0 0)
(-3.732831586e-15 0 0)
(-2.462839831e-15 0 0)
(-1.023567846e-15 0 0)
(2.441965302e-15 0 0)
(6.497655361e-15 0 0)
(1.393612375e-14 0 0)
(2.005094396e-14 0 0)
(2.331329761e-14 0 0)
(2.226258615e-14 0 0)
(1.972285471e-14 0 0)
(1.769309954e-14 0 0)
(1.089306639e-14 0 0)
(5.30709902e-15 0 0)
(-3.669284053e-17 0 0)
(-1.696928236e-15 0 0)
(-6.915222181e-15 0 0)
(-9.68091432e-15 0 0)
(-1.160099412e-14 0 0)
(-1.298474673e-14 0 0)
(-1.388483664e-14 0 0)
(-1.40011121e-14 0 0)
(-1.506089207e-14 0 0)
(-2.322461186e-14 0 0)
(-2.454680444e-14 0 0)
(-2.797225216e-14 0 0)
(-2.388416215e-14 0 0)
(-2.015910426e-14 0 0)
(-8.578878699e-15 0 0)
(-1.733668041e-15 0 0)
(8.168024515e-15 0 0)
(1.298355882e-14 0 0)
(1.32351289e-14 0 0)
(1.305882924e-14 0 0)
(9.932672686e-15 0 0)
(4.673319036e-15 0 0)
(-3.286334196e-15 0 0)
(-1.036637708e-14 0 0)
(-1.343799137e-14 0 0)
(-1.322501714e-14 0 0)
(-1.180035059e-14 0 0)
(-6.897653181e-15 0 0)
(-2.549437102e-15 0 0)
(-1.27463521e-15 0 0)
(5.505546588e-15 0 0)
(1.260190914e-14 0 0)
(2.289792267e-14 0 0)
(2.434476942e-14 0 0)
(2.388778783e-14 0 0)
(2.500041136e-14 0 0)
(2.60662553e-14 0 0)
(2.582533568e-14 0 0)
(2.680013241e-14 0 0)
(1.984680458e-14 0 0)
(1.868443113e-14 0 0)
(1.323551025e-14 0 0)
(7.087231487e-15 0 0)
(-1.301386121e-17 0 0)
(-2.87796525e-15 0 0)
(-1.806851437e-15 0 0)
(-3.288917412e-15 0 0)
(-4.84972431e-15 0 0)
(-5.3067865e-15 0 0)
(-5.271834872e-15 0 0)
(-4.950431566e-15 0 0)
(-5.143380538e-15 0 0)
(-5.860258699e-15 0 0)
(-4.703468934e-15 0 0)
(3.468614206e-16 0 0)
(6.35915474e-15 0 0)
(8.304606478e-15 0 0)
(1.250421497e-14 0 0)
(1.063014533e-14 0 0)