/*--------------------------------*- C++ -*----------------------------------*\
| =========                 |                                                 |
| \\      /  F ield         | OpenFOAM: The Open Source CFD Toolbox           |
|  \\    /   O peration     | Version:  3.0.1                                 |
|   \\  /    A nd           | Web:      www.OpenFOAM.org                      |
|    \\/     M anipulation  |                                                 |
\*---------------------------------------------------------------------------*/
FoamFile
{
    version     2.0;
    format      ascii;
    class       volScalarField;
    location    "0.00025";
    object      minKappa;
}
// * * * * * * * * * * * * * * * * * * * * * * * * * * * * * * * * * * * * * //

dimensions      [0 0 0 0 0 0 0];

internalField   nonuniform List<scalar> 
1000
(
8.48092e-15
3.39237e-15
6.61512e-14
2.54428e-14
4.03692e-13
9.37142e-13
3.61542e-12
1.19123e-11
4.00011e-11
1.28395e-10
4.06335e-10
1.24695e-09
3.71438e-09
1.07025e-08
2.96744e-08
7.87264e-08
1.98045e-07
4.66377e-07
1.00896e-06
1.95886e-06
3.33889e-06
4.94305e-06
6.38298e-06
7.34235e-06
7.64492e-06
3.13621e-06
2.58291e-06
2.24865e-06
3.01524e-07
4.56255e-06
9.86861e-06
1.56843e-05
2.13367e-05
2.67759e-05
2.9792e-05
3.26782e-05
2.61606e-05
7.1571e-05
6.32238e-05
0.000148615
0.000138134
0.000580637
0.000354989
0.00308008
0.00287693
0.0120236
0.0476784
0.0354123
0.0458698
0.090522
0.0233731
0.0454558
0.0434312
0.0222907
0.0114601
0.00367302
0.00211045
0.00338468
0.00129134
0.000567671
8.79249e-05
0.000973144
0.000375303
0.000922119
0.000969807
0.00178147
0.00149622
0.000543437
0.00220737
0.00259118
0.0019636
0.00101146
0.000264633
0.000374782
0.000412664
0.00032641
0.000296921
0.000296056
0.000219203
0.000167205
0.000121518
0.000121787
0.000122778
0.000138732
0.000149298
0.000147538
0.000182364
7.39844e-05
0.000124404
4.24479e-05
7.67879e-06
1.2621e-06
2.04523e-07
3.30871e-08
5.3569e-09
8.68584e-10
1.40888e-10
2.29234e-11
3.72577e-12
7.3413e-13
7.63283e-15
8.48092e-16
2.45947e-14
2.54428e-14
3.67224e-13
9.37142e-13
3.61542e-12
1.19123e-11
4.00011e-11
1.28395e-10
4.06335e-10
1.24695e-09
3.71438e-09
1.07025e-08
2.96744e-08
7.87264e-08
1.98045e-07
4.66377e-07
1.00896e-06
1.95886e-06
3.33889e-06
4.94305e-06
6.38298e-06
7.34235e-06
7.64492e-06
3.13621e-06
2.58291e-06
2.24865e-06
3.01524e-07
4.56255e-06
9.86861e-06
1.56843e-05
2.13367e-05
2.67759e-05
2.9792e-05
3.26782e-05
2.61606e-05
7.1571e-05
6.32238e-05
0.000148615
0.000138134
0.000580637
0.000354989
0.00192193
0.00287693
0.0120236
0.0409089
0.00127007
0.0458698
0.0516765
0.0233731
0.0066552
0.0378146
0.00910841
0.00807625
0.00367302
0.00211045
0.00108419
0.00117689
0.000567671
8.79249e-05
0.000201848
0.000375303
0.000922119
0.000969807
0.00178147
0.00149622
0.000543437
0.00220737
0.000209913
0.0019636
0.00101146
0.000264633
0.000374782
0.000412664
0.00032641
0.000296921
0.000296056
0.000219203
0.000167205
0.000121518
0.000121787
0.000122778
0.000138732
0.000149298
0.000147538
0.000182364
7.39844e-05
0.000124404
4.24479e-05
7.67879e-06
1.2621e-06
2.04523e-07
3.30871e-08
5.3569e-09
8.68584e-10
1.40888e-10
2.29234e-11
3.72577e-12
7.3413e-13
7.63283e-15
8.48092e-16
2.45947e-14
1.17885e-13
3.67224e-13
1.94213e-12
6.29454e-12
2.13422e-11
7.063e-11
2.28328e-10
7.18056e-10
2.20217e-09
6.54381e-09
1.8813e-08
5.20372e-08
1.37694e-07
3.4544e-07
8.11221e-07
1.75102e-06
3.39697e-06
5.80225e-06
8.64798e-06
1.13812e-05
1.38764e-05
1.24322e-05
1.21672e-05
9.60132e-06
5.23184e-06
4.91808e-07
4.15363e-06
1.35296e-05
2.4141e-05
3.32628e-05
4.23801e-05
4.67491e-05
5.29733e-05
4.45931e-05
0.00011381
6.25587e-05
0.000406108
0.000658705
0.000600562
0.000333639
0.0011392
0.00549355
0.0231046
0.0279904
0.00126324
0.0470511
0.0460009
0.0207012
0.0066552
0.0176043
0.00168128
0.00285146
0.00180233
0.00155864
0.000101901
6.14372e-05
0.000140085
0.000648917
0.000201848
0.00230773
0.0028972
0.00264303
0.00184034
0.00276114
0.00178279
0.00049546
0.000209913
0.000473721
0.000673624
0.00077629
0.000744397
0.000759464
0.000828979
0.000634699
0.000556279
0.000491475
0.000461619
0.000450028
0.000441031
0.000449335
0.000445449
0.00046516
0.000432471
0.000473242
0.000465052
0.000322797
8.26222e-05
1.41263e-05
2.27688e-06
3.65926e-07
5.89847e-08
9.53354e-09
1.54357e-09
2.50354e-10
4.05277e-11
6.57642e-12
1.29334e-12
2.20504e-14
1.35695e-14
3.05313e-14
1.17885e-13
4.7578e-13
2.14143e-12
7.76343e-12
2.60118e-11
8.63502e-11
2.78302e-10
8.75678e-10
2.68152e-09
7.96077e-09
2.28235e-08
6.29915e-08
1.66376e-07
4.17048e-07
9.80608e-07
2.12895e-06
4.15918e-06
7.19749e-06
1.09695e-05
1.47956e-05
1.76636e-05
1.74638e-05
2.19885e-05
1.51629e-05
1.01062e-05
3.76421e-06
4.15363e-06
5.46065e-06
1.74311e-05
3.12328e-05
4.66727e-05
5.90587e-05
7.06513e-05
6.7467e-05
0.000142201
1.72046e-05
0.000452345
0.000398405
0.000756578
0.000195334
0.0011392
0.00549355
0.0155606
0.015895
0.00126324
0.0381933
0.0322589
0.00871848
0.00546842
0.0105698
0.00168128
0.00285146
0.00180233
0.000887518
0.000101901
6.14372e-05
0.000140085
0.000556781
0.000190342
0.00151613
0.00193594
0.00185758
0.00184329
0.00171348
0.00110358
0.000494302
8.72801e-05
0.00025903
0.000511207
0.000584689
0.000574059
0.000591273
0.000594392
0.000582609
0.000595755
0.000598285
0.000584995
0.000592089
0.000592592
0.000586594
0.000610781
0.000602229
0.000571428
0.000618912
0.000558102
0.000342764
8.60146e-05
1.54263e-05
2.58143e-06
4.25602e-07
6.98087e-08
1.14189e-08
1.86467e-09
3.03966e-10
4.9554e-11
8.05687e-12
1.57904e-12
2.71389e-14
1.10252e-14
2.28985e-14
6.69993e-14
4.7578e-13
1.83612e-12
6.78898e-12
2.26958e-11
7.46118e-11
2.40187e-10
7.53237e-10
2.29879e-09
6.80936e-09
1.95062e-08
5.3803e-08
1.42073e-07
3.56271e-07
8.3916e-07
1.82953e-06
3.63057e-06
6.46511e-06
1.0277e-05
1.4676e-05
1.90817e-05
2.22863e-05
2.2374e-05
2.11185e-05
1.85364e-05
1.28892e-05
4.66204e-06
5.46065e-06
3.52712e-06
1.71657e-05
3.34016e-05
5.19654e-05
7.31029e-05
9.01373e-05
0.000137067
1.72046e-05
0.000407575
0.000290391
0.000756578
0.00011482
0.0011568
0.00673441
0.0122396
0.0100889
0.00614405
0.029733
0.0180229
0.00871848
0.00546842
0.00668096
0.00146899
0.0015646
0.00129478
0.000826285
0.000216756
0.000223346
0.000226703
0.000484917
1.63467e-05
0.000624426
0.000275316
0.000849735
0.00153326
0.00168398
0.000659693
0.000494302
8.72801e-05
0.00025903
0.000294688
0.000316011
0.000304686
0.000324508
0.000378064
0.000425232
0.000465085
0.000482118
0.00047065
0.000509447
0.000542211
0.000549875
0.000562233
0.000582911
0.000595584
0.000592468
0.000542353
0.000334295
8.18032e-05
1.43777e-05
2.37918e-06
3.89655e-07
6.36379e-08
1.03774e-08
1.69033e-09
2.75006e-10
4.46589e-11
7.2109e-12
1.38875e-12
3.6468e-14
1.10252e-14
8.48092e-16
6.69993e-14
3.77401e-13
1.48077e-12
5.07668e-12
1.73036e-11
5.62565e-11
1.82028e-10
5.67352e-10
1.73229e-09
5.11869e-09
1.46466e-08
4.03536e-08
1.06489e-07
2.6707e-07
6.29958e-07
1.37884e-06
2.75939e-06
4.99199e-06
8.14342e-06
1.20639e-05
1.64095e-05
2.06907e-05
2.43246e-05
2.50725e-05
2.67637e-05
2.24798e-05
1.60207e-05
7.60394e-06
3.52712e-06
3.77104e-06
1.00677e-05
2.75165e-05
4.87844e-05
7.18935e-05
0.000106348
5.03576e-05
0.000245654
1.26628e-05
0.000550307
3.76761e-05
0.0006018
0.00459587
0.00858992
0.00739072
0.0105765
0.0233182
0.0151147
0.0112971
0.00588981
0.0063676
0.0001564
0.00148134
0.00113763
0.000668443
0.000356412
0.000174543
0.00013633
0.000310021
4.73512e-06
0.000239776
7.24211e-05
0.000500652
0.00105167
0.00134219
0.000221414
0.00057465
0.000623842
0.00036605
0.000241965
0.000198626
0.000226437
0.000209262
0.000293897
0.000316312
0.000343987
0.00035918
0.000385723
0.00044055
0.000467854
0.000485407
0.000518559
0.000536579
0.000555157
0.000535908
0.000486481
0.000297181
7.20573e-05
1.25414e-05
2.05924e-06
3.3528e-07
5.4508e-08
8.85474e-09
1.4371e-09
2.33004e-10
3.7721e-11
6.09566e-12
1.2027e-12
2.45947e-14
5.08855e-15
8.48092e-16
5.17336e-14
2.5358e-13
1.02704e-12
3.36184e-12
1.16672e-11
3.78309e-11
1.21545e-10
3.79551e-10
1.15276e-09
3.40397e-09
9.71369e-09
2.67252e-08
7.04269e-08
1.76542e-07
4.16694e-07
9.14783e-07
1.84377e-06
3.38195e-06
5.64472e-06
8.64495e-06
1.22877e-05
1.636e-05
2.05203e-05
2.42768e-05
2.68308e-05
2.67324e-05
2.59967e-05
2.16217e-05
1.43209e-05
3.77104e-06
1.00677e-05
6.44496e-07
1.7208e-05
3.7404e-05
6.51376e-05
7.69215e-05
0.000178034
9.1961e-06
0.000454951
3.76761e-05
0.00058253
0.00370916
0.00617672
0.00685009
0.00782255
0.0170121
0.0116083
0.00964375
0.00242059
0.00456168
0.0001564
0.00129703
0.00110032
0.000668443
0.000356412
0.000174543
0.00013633
6.07394e-05
4.73512e-06
9.02758e-05
1.10293e-05
7.62856e-05
0.000343293
0.000280696
0.000221414
0.000421816
0.000340483
0.000241987
0.000241965
0.000198626
0.000209875
0.000165432
0.000232655
0.00027094
0.000299005
0.000328852
0.000367814
0.000376962
0.000386702
0.000475772
0.000477838
0.000447581
0.000451587
0.000441774
0.00040229
0.000247368
5.98187e-05
1.02544e-05
1.65658e-06
2.65268e-07
4.24084e-08
6.77692e-09
1.08282e-09
1.72993e-10
2.75476e-11
4.44347e-12
8.52332e-13
2.45947e-14
5.08855e-15
8.48092e-15
5.17336e-14
7.63283e-14
6.74233e-13
1.90142e-12
6.9111e-12
2.21564e-11
7.09964e-11
2.20991e-10
6.69144e-10
1.96962e-09
5.60426e-09
1.53779e-08
4.04313e-08
1.01175e-07
2.38645e-07
5.24598e-07
1.0627e-06
1.97115e-06
3.35461e-06
5.28761e-06
7.80722e-06
1.08923e-05
1.44285e-05
1.81641e-05
2.16923e-05
2.444e-05
2.55861e-05
2.46415e-05
2.4486e-05
1.96699e-05
1.14885e-05
6.44496e-07
5.57512e-06
4.81769e-06
2.02644e-05
3.67433e-05
7.55427e-05
9.1961e-06
0.000201962
7.39272e-05
0.000116736
0.00196722
0.0035293
0.00513114
0.000675761
0.00876299
0.0103421
0.00373444
0.00242059
0.00180503
0.000394112
0.000897817
0.000690861
0.000513985
0.000386098
0.000184572
0.000143281
6.07394e-05
0.000175016
9.02758e-05
1.10293e-05
7.62856e-05
0.000189309
0.000280696
0.000263049
0.000144271
0.000216499
0.000241987
0.000319137
0.000260337
0.000209875
0.000165432
0.000168687
0.000178188
0.000189704
0.000222635
0.000244516
0.000266925
0.000265456
0.000285894
0.000320569
0.000325157
0.0003536
0.000331979
0.000286899
0.000172512
4.27213e-05
7.52195e-06
1.22543e-06
1.95726e-07
3.10178e-08
4.89651e-09
7.71347e-10
1.21447e-10
1.90794e-11
2.98157e-12
5.59741e-13
8.48092e-15
1.69618e-15
1.35695e-14
8.48092e-16
7.63283e-14
2.54428e-13
8.94737e-13
3.09978e-12
1.00864e-11
3.16135e-11
9.93084e-11
2.9727e-10
8.73553e-10
2.47272e-09
6.75506e-09
1.76754e-08
4.40017e-08
1.03194e-07
2.2542e-07
4.53998e-07
8.39717e-07
1.43458e-06
2.29096e-06
3.46035e-06
4.98454e-06
6.88079e-06
9.12533e-06
1.16307e-05
1.41942e-05
1.63257e-05
1.69947e-05
1.70664e-05
7.44281e-06
7.40916e-06
7.08858e-06
5.57512e-06
4.81769e-06
3.18446e-06
1.06215e-06
1.08662e-05
1.58972e-05
5.13124e-05
5.50288e-05
1.58568e-05
0.000669261
0.00137934
0.00239192
8.31389e-05
0.00376225
0.00455309
0.00183318
0.00118308
0.000141371
0.000965434
0.000204264
0.000451453
0.000430864
0.000390396
0.000205148
0.000165589
4.00756e-05
3.96367e-06
6.32676e-05
0.000114219
0.000120949
0.000189309
0.000201656
0.000110785
9.92398e-05
0.000164583
0.000226112
0.000168821
0.000135143
0.000123969
0.000113421
0.00011965
0.000117512
0.000115331
0.000196594
0.000161593
0.000160379
0.000142987
0.000167946
0.000195766
0.000198939
0.0001793
0.000165744
0.000157247
0.000122614
3.27715e-05
5.22564e-06
7.79322e-07
1.16686e-07
1.76433e-08
2.68964e-09
4.12614e-10
6.35889e-11
9.81772e-12
1.51066e-12
2.70329e-13
8.48092e-15
1.69618e-15
1.78099e-14
8.48092e-16
1.06012e-13
2.54428e-13
8.94737e-13
3.09978e-12
1.00864e-11
3.16135e-11
9.93084e-11
2.9727e-10
8.73553e-10
2.47272e-09
6.75506e-09
1.76754e-08
4.40017e-08
1.03194e-07
2.2542e-07
4.53998e-07
8.39717e-07
1.43458e-06
2.29096e-06
3.46035e-06
4.98454e-06
6.88079e-06
9.12533e-06
1.16307e-05
1.41942e-05
1.63257e-05
1.69947e-05
1.70664e-05
7.44281e-06
7.40916e-06
7.08858e-06
6.41227e-06
5.58727e-06
3.18446e-06
1.06215e-06
1.08662e-05
1.58972e-05
5.13124e-05
5.50288e-05
1.58568e-05
0.000669261
0.00137934
0.00239192
8.31389e-05
0.00376225
0.00455309
0.00183318
0.00118308
0.000141371
0.000965434
0.000204264
0.000451453
0.000430864
0.000428318
0.00020807
0.000165589
4.00756e-05
3.96367e-06
6.32676e-05
0.000114219
0.000187818
0.000256507
0.000201656
0.000110785
9.92398e-05
0.000164583
0.000226112
0.000168821
0.000135143
0.000123969
0.000113421
0.00011965
0.000117512
0.000115331
0.000196594
0.000161593
0.000160379
0.000142987
0.000167946
0.000195766
0.000198939
0.0001793
0.000165744
0.000157247
0.000122614
3.27715e-05
5.22564e-06
7.79322e-07
1.16686e-07
1.76433e-08
2.68964e-09
4.12614e-10
6.35889e-11
9.81772e-12
1.51066e-12
2.70329e-13
)
;

boundaryField
{
    sides1
    {
        type            calculated;
        value           uniform 0;
    }
    sides2
    {
        type            calculated;
        value           uniform 0;
    }
    empty
    {
        type            empty;
    }
}


// ************************************************************************* //
