/*--------------------------------*- C++ -*----------------------------------*\
| =========                 |                                                 |
| \\      /  F ield         | OpenFOAM: The Open Source CFD Toolbox           |
|  \\    /   O peration     | Version:  3.0.1                                 |
|   \\  /    A nd           | Web:      www.OpenFOAM.org                      |
|    \\/     M anipulation  |                                                 |
\*---------------------------------------------------------------------------*/
FoamFile
{
    version     2.0;
    format      ascii;
    class       volScalarField;
    location    "0.00025";
    object      p;
}
// * * * * * * * * * * * * * * * * * * * * * * * * * * * * * * * * * * * * * //

dimensions      [1 -1 -2 0 0 0 0];

internalField   nonuniform List<scalar> 
1000
(
68970
68970
68970
68970
68970
68970
68970
68970
68970
68969.9
68969.8
68969.5
68968.4
68965.4
68957.3
68936
68883.6
68762.6
68507.1
68023.1
67218.3
66052.5
64560.8
62823.5
60922.1
58921.7
56870.3
54802.9
52744.4
50712.5
48719.3
46773
44878.9
43040.4
41260
39538.9
37877.8
36276.4
34734.3
33249.9
31822.1
30449.3
29129.2
27864.4
26664.1
25535.2
24492.4
23695
23034.5
22625.1
22501.4
22372.8
22202.1
22106.7
22077.8
22071.3
22060.6
22019.6
21959
21965.3
21973.3
21949.5
21930.1
21941.5
21934.4
21920.4
21913
21908.2
21902.5
21897.7
21895.6
21894.4
21893.2
21890.7
21888.1
21886.2
21882
21878.6
21872.5
21866.5
21857.8
21844
21815
21740.5
21540
20972.4
19359.1
15584.8
10230.6
7525.85
7000.27
6913.63
6899.68
6897.43
6897.07
6897.01
6897
6897
6897
6897
68970
68970
68970
68970
68970
68970
68970
68970
68970
68969.9
68969.8
68969.5
68968.4
68965.4
68957.3
68936
68883.6
68762.7
68507.1
68023.1
67218.4
66052.6
64560.9
62823.5
60922.1
58921.6
56870.3
54802.8
52744.3
50712.4
48719.2
46772.9
44878.8
43040.3
41260
39538.9
37877.8
36276.5
34734.4
33250
31822.8
30448.4
29129.7
27866
26651.9
25545
24514.4
23646.4
23075.2
22650.8
22450.6
22340.1
22229.4
22112.9
22070.3
22068
22059.4
22020.2
21958.1
21965.4
21973.9
21953.2
21931
21940.1
21932.1
21920.7
21914.6
21910.4
21905.3
21900.7
21898.2
21897.1
21895.8
21893.6
21890
21887.7
21883
21879.2
21872.9
21866.8
21857.8
21844
21814.8
21740.4
21539.8
20972.2
19359
15585
10231
7525.95
7000.29
6913.64
6899.68
6897.43
6897.07
6897.01
6897
6897
6897
6897
68970
68970
68970
68970
68970
68970
68970
68970
68970
68969.9
68969.8
68969.5
68968.4
68965.4
68957.3
68936
68883.6
68762.7
68507.2
68023.2
67218.4
66052.6
64560.9
62823.5
60922
58921.6
56870.2
54802.7
52744.2
50712.3
48719.1
46772.8
44878.7
43040.3
41260
39539
37877.9
36276.6
34734.3
33249.9
31822.2
30448.9
29129.9
27864.7
26662.9
25533.6
24529.9
23668.2
23033.9
22694.7
22475.8
22333.6
22219.5
22119.4
22068.1
22065.9
22057.8
22017.8
21957.7
21963.7
21972.7
21949.3
21928.9
21940.6
21935
21922.4
21915.3
21909.8
21904
21898.8
21896.2
21894.9
21893.2
21890
21887.8
21885.9
21881.7
21878.1
21872.3
21866.1
21857.4
21843.5
21814.5
21739.9
21539.4
20972
19359.3
15585.9
10231.9
7526.17
7000.32
6913.64
6899.68
6897.43
6897.07
6897.01
6897
6897
6897
6897
68970
68970
68970
68970
68970
68970
68970
68970
68970
68969.9
68969.8
68969.5
68968.4
68965.4
68957.3
68936
68883.6
68762.7
68507.2
68023.2
67218.5
66052.7
64561
62823.5
60922
58921.5
56870.1
54802.6
52744.1
50712.1
48718.9
46772.7
44878.6
43040.2
41259.9
39538.9
37877.8
36276.5
34734.2
33250
31822
30449.5
29130.2
27866.7
26663.6
25530.8
24524.1
23660.7
23044
22689.7
22468.7
22337.9
22225.5
22116.7
22071
22069.1
22058
22016.1
21956.6
21963.4
21973.8
21948
21928.9
21944.4
21938.1
21923.2
21916.2
21910.4
21904.2
21899.1
21896.5
21895
21893.7
21890.6
21888.1
21886.1
21881.7
21878.1
21872.1
21865.9
21857
21843.2
21814
21739.5
21539
20971.6
19359.4
15586.7
10232.9
7526.44
7000.37
6913.65
6899.68
6897.43
6897.07
6897.01
6897
6897
6897
6897
68970
68970
68970
68970
68970
68970
68970
68970
68970
68969.9
68969.8
68969.5
68968.4
68965.4
68957.3
68936
68883.6
68762.7
68507.2
68023.3
67218.6
66052.8
64561
62823.6
60922
58921.5
56870
54802.5
52743.9
50711.9
48718.7
46772.5
44878.4
43040
41259.7
39538.7
37877.7
36276.4
34734.2
33250
31822
30449.1
29130
27865.4
26661.2
25532.3
24513.6
23649.4
23041
22680.4
22471.3
22348.1
22229.6
22115.8
22074.4
22070.3
22058.2
22015
21956
21963.4
21974
21947.2
21926.7
21942.9
21937.5
21922.8
21915.5
21910.7
21904.6
21899.2
21896.5
21895
21893.6
21890.4
21887.9
21885.9
21881.5
21877.9
21871.9
21865.7
21856.8
21843
21813.7
21739.1
21538.6
20971.4
19359.6
15587.7
10234
7526.72
7000.42
6913.66
6899.68
6897.43
6897.07
6897.01
6897
6897
6897
6897
68970
68970
68970
68970
68970
68970
68970
68970
68970
68969.9
68969.8
68969.5
68968.4
68965.4
68957.3
68936
68883.6
68762.7
68507.2
68023.3
67218.6
66052.9
64561.1
62823.6
60922.1
58921.5
56870
54802.4
52743.8
50711.8
48718.5
46772.2
44878.1
43039.8
41259.4
39538.5
37877.5
36276.2
34734.1
33250
31821.8
30449.1
29129.5
27864.6
26662.5
25531
24515.8
23661.2
23043.5
22680.1
22477.4
22344.5
22224.8
22116
22074.4
22070.3
22058.7
22016.5
21956.9
21964
21974.3
21947.6
21927
21941.1
21936.1
21922
21915.1
21910.1
21904
21898.9
21896.2
21894.7
21893.4
21890.4
21887.8
21885.8
21881.4
21877.7
21871.6
21865.4
21856.4
21842.5
21813.3
21738.7
21538.3
20971.2
19359.8
15588.6
10235.1
7526.99
7000.46
6913.67
6899.68
6897.43
6897.07
6897.01
6897
6897
6897
6897
68970
68970
68970
68970
68970
68970
68970
68970
68970
68969.9
68969.8
68969.5
68968.4
68965.4
68957.3
68936
68883.6
68762.7
68507.3
68023.4
67218.7
66052.9
64561.2
62823.7
60922.1
58921.5
56870
54802.4
52743.7
50711.7
48718.4
46772
44877.9
43039.5
41259.1
39538.1
37877.1
36275.9
34733.8
33249.6
31821.7
30448.8
29129.4
27864.9
26661.1
25531.5
24517.9
23667.1
23043.6
22678.3
22474.2
22343.3
22226.4
22116.5
22074.4
22071.1
22059.9
22018.1
21958
21964.4
21973.8
21948.5
21927.5
21941.6
21936.1
21922.6
21915.3
21909.7
21904
21898.7
21896.1
21894.6
21893.4
21890.4
21887.7
21885.6
21881.1
21877.3
21871.3
21865
21856.1
21842.2
21812.9
21738.5
21538.1
20971.1
19360.1
15589.5
10236
7527.22
7000.5
6913.67
6899.68
6897.43
6897.07
6897.01
6897
6897
6897
6897
68970
68970
68970
68970
68970
68970
68970
68970
68970
68969.9
68969.8
68969.5
68968.4
68965.4
68957.3
68936
68883.6
68762.7
68507.3
68023.4
67218.7
66053
64561.3
62823.8
60922.2
58921.6
56870.1
54802.4
52743.7
50711.7
48718.3
46771.9
44877.8
43039.3
41258.9
39537.8
37876.8
36275.5
34733.4
33249.2
31821.3
30448.5
29128.9
27864.3
26661.5
25531.2
24516.2
23666.1
23039.3
22678.1
22477.3
22343.5
22225.8
22119.2
22075.8
22072.6
22061.5
22019.7
21959.4
21966
21975.7
21949.4
21927.9
21942.2
21936.7
21922.6
21915.1
21909.8
21903.9
21898.8
21896.2
21894.6
21893.3
21890.2
21887.5
21885.3
21880.8
21877.1
21871.1
21864.7
21855.8
21841.9
21812.6
21738.2
21537.9
20971.1
19360.4
15590.3
10236.8
7527.42
7000.54
6913.68
6899.68
6897.43
6897.07
6897.01
6897
6897
6897
6897
68970
68970
68970
68970
68970
68970
68970
68970
68970
68969.9
68969.8
68969.5
68968.4
68965.4
68957.3
68936
68883.6
68762.7
68507.3
68023.4
67218.8
66053
64561.3
62823.8
60922.3
58921.7
56870.1
54802.4
52743.7
50711.6
48718.3
46771.9
44877.6
43039.1
41258.7
39537.6
37876.5
36275.1
34733
33248.7
31820.9
30447.9
29128.5
27864
26660.7
25531.5
24516.5
23662.6
23042.1
22679
22474.1
22344.1
22227.8
22118.8
22076.9
22073.7
22063
22021.7
21961.3
21968.1
21977.9
21950.2
21928.4
21943.2
21937.5
21922.5
21914.9
21909.6
21903.6
21898.4
21895.9
21894.4
21893
21889.9
21887.1
21885
21880.5
21876.7
21870.7
21864.4
21855.5
21841.6
21812.4
21738
21537.7
20971.1
19360.6
15590.8
10237.4
7527.55
7000.56
6913.68
6899.68
6897.43
6897.07
6897.01
6897
6897
6897
6897
68970
68970
68970
68970
68970
68970
68970
68970
68970
68969.9
68969.8
68969.5
68968.4
68965.4
68957.3
68936
68883.6
68762.7
68507.3
68023.4
67218.8
66053.1
64561.4
62823.9
60922.3
58921.7
56870.2
54802.5
52743.8
50711.7
48718.3
46771.8
44877.6
43039.1
41258.6
39537.5
37876.4
36275
34732.8
33248.5
31820.6
30447.5
29128.1
27863.5
26659.6
25530.6
24514.8
23661.3
23040.7
22675.4
22474.1
22345.3
22226.9
22118.3
22077.4
22074.3
22063.1
22022.1
21962
21968.8
21979.1
21951.4
21929.4
21944.3
21938.7
21923.5
21915.6
21910
21903.7
21898.5
21895.9
21894.4
21892.9
21889.8
21887
21884.9
21880.4
21876.6
21870.5
21864.2
21855.3
21841.5
21812.3
21737.8
21537.7
20971.2
19360.9
15591.3
10237.7
7527.62
7000.57
6913.68
6899.68
6897.43
6897.07
6897.01
6897
6897
6897
6897
)
;

boundaryField
{
    sides1
    {
        type            zeroGradient;
    }
    sides2
    {
        type            slip;
    }
    empty
    {
        type            empty;
    }
}


// ************************************************************************* //
