/*--------------------------------*- C++ -*----------------------------------*\
| =========                 |                                                 |
| \\      /  F ield         | OpenFOAM: The Open Source CFD Toolbox           |
|  \\    /   O peration     | Version:  3.0.1                                 |
|   \\  /    A nd           | Web:      www.OpenFOAM.org                      |
|    \\/     M anipulation  |                                                 |
\*---------------------------------------------------------------------------*/
FoamFile
{
    version     2.0;
    format      ascii;
    class       surfaceScalarField;
    location    "0.00025";
    object      phi;
}
// * * * * * * * * * * * * * * * * * * * * * * * * * * * * * * * * * * * * * //

dimensions      [1 0 -1 0 0 0 0];

internalField   nonuniform List<scalar> 
1890
(
4.43715e-13
1.73472e-17
1.75485e-12
-6.93889e-18
6.36901e-12
-1.35308e-16
2.28457e-11
-5.20417e-17
8.05895e-11
-8.25728e-16
2.79294e-10
-1.91687e-15
9.49805e-10
-7.39513e-15
3.16566e-09
-2.43659e-14
1.03264e-08
-8.182e-14
3.29143e-08
-2.62625e-13
1.02318e-07
-8.31134e-13
3.09512e-07
-2.55055e-12
9.08576e-07
-7.59738e-12
2.57939e-06
-2.189e-11
7.05062e-06
-6.06861e-11
1.84476e-05
-1.60951e-10
4.5829e-05
-4.04582e-10
0.000106889
-9.51079e-10
0.000230594
-2.04993e-09
0.000452581
-3.95172e-09
0.000798302
-6.65607e-09
0.00126489
-9.68305e-09
0.0018235
-1.22214e-08
0.00243874
-1.36799e-08
0.00308174
-1.38126e-08
0.0037317
-5.48035e-09
0.00437414
-4.35634e-09
0.00499901
-3.65471e-09
0.0055996
4.71656e-10
0.00617156
6.86198e-09
0.00671223
1.42588e-08
0.00722017
2.17564e-08
0.00769478
2.83987e-08
0.00813593
3.41781e-08
0.00854389
3.64549e-08
0.00891921
3.83188e-08
0.00926271
2.93873e-08
0.0095753
7.70003e-08
0.00985828
-6.51282e-08
0.0101125
1.46551e-07
0.0103395
1.30371e-07
0.0105409
-5.24367e-07
0.0107164
3.06683e-07
0.0108658
2.54842e-06
0.0109972
-2.27554e-06
0.0111063
-9.16276e-06
0.0111554
3.48166e-05
0.0112404
-2.49661e-05
0.0112901
-3.19989e-05
0.0112569
6.13083e-05
0.0112562
1.56084e-05
0.011283
-3.03027e-05
0.0113249
-2.88487e-05
0.0113173
1.46627e-05
0.0113081
7.51112e-06
0.0113082
2.40523e-06
0.0113157
-1.38096e-06
0.011326
-2.21109e-06
0.0113381
-8.41133e-07
0.0113601
-3.69864e-07
0.0113861
5.72988e-08
0.0113961
6.33722e-07
0.0113866
-2.44106e-07
0.0113444
-6.00119e-07
0.01123
-6.30977e-07
0.0110077
-1.15853e-06
0.0106531
-9.72826e-07
0.0101724
3.53238e-07
0.00960744
1.43434e-06
0.00902367
1.6833e-06
0.00848685
1.27545e-06
0.00804432
6.56937e-07
0.00771832
1.71863e-07
0.00750606
-2.4337e-07
0.00738692
-2.67919e-07
0.00733146
-2.11893e-07
0.00731
-1.92708e-07
0.00730372
-1.92115e-07
0.0072995
-1.42204e-07
0.00729586
-1.08441e-07
0.00729072
-7.87779e-08
0.00728159
-7.89028e-08
0.00726049
-7.94383e-08
0.00720623
-8.94548e-08
0.00706074
-9.53796e-08
0.00666912
-9.17707e-08
0.00553406
-1.04709e-07
0.00283104
-3.41959e-08
0.000606882
-3.77459e-08
0.000100994
-9.47416e-09
1.62926e-05
-1.59417e-09
2.62168e-06
-2.58777e-10
4.21665e-07
-4.18502e-11
6.78114e-08
-6.7682e-12
1.09047e-08
-1.09573e-12
1.75351e-09
-1.77664e-13
2.82056e-10
-2.88179e-14
4.56429e-11
-4.68885e-15
7.60531e-12
-7.62086e-16
-1.50162e-16
4.43721e-13
1.56125e-17
1.75476e-12
1.73472e-18
6.36857e-12
-5.0307e-17
2.28449e-11
-5.72459e-16
8.05851e-11
-7.51135e-16
2.79281e-10
-3.97252e-15
9.49759e-10
-1.28751e-14
3.16551e-09
-4.36543e-14
1.03259e-08
-1.4447e-13
3.29127e-08
-4.67031e-13
1.02314e-07
-1.46874e-12
3.09497e-07
-4.50438e-12
9.08534e-07
-1.33847e-11
2.57927e-06
-3.84783e-11
7.05031e-06
-1.06419e-10
1.84468e-05
-2.81507e-10
4.58271e-05
-7.05692e-10
0.000106885
-1.65432e-09
0.000230586
-3.55757e-09
0.000452568
-6.85292e-09
0.000798283
-1.15668e-08
0.00126487
-1.69407e-08
0.00182348
-2.17913e-08
0.00243873
-2.58539e-08
0.00308174
-2.24621e-08
0.0037317
-2.12614e-08
0.00437414
-1.61936e-08
0.00499903
-8.50324e-09
0.00559963
7.69304e-10
0.00617159
1.12918e-08
0.00671226
2.24837e-08
0.00722021
3.3731e-08
0.00769481
4.42719e-08
0.00813596
5.40963e-08
0.00854392
5.72047e-08
0.00891924
6.21173e-08
0.00926273
5.00936e-08
0.00957535
1.22445e-07
0.00985827
-7.26477e-08
0.0101124
4.00478e-07
0.0103401
-6.21711e-07
0.0105399
5.4235e-07
0.0107162
5.4785e-07
0.0108713
-1.58921e-06
0.0109884
6.29606e-06
0.0111037
-2.13195e-05
0.0111817
3.00026e-05
0.0112109
-8.92626e-07
0.0112658
-5.33744e-05
0.0112853
3.51944e-05
0.0112891
2.73885e-05
0.0112791
-4.41131e-06
0.0112836
-2.50185e-05
0.0113068
-5.98122e-06
0.0113145
5.2946e-06
0.0113164
3.72322e-06
0.0113191
1.39172e-06
0.0113245
-7.08081e-07
0.0113356
-7.66469e-07
0.0113579
-4.54215e-07
0.0113835
7.63756e-07
0.0113945
1.31438e-07
0.0113831
1.5346e-06
0.0113369
1.88586e-06
0.0112184
1.71993e-06
0.0109907
1.19694e-06
0.0106297
2.33158e-06
0.0101455
2.61076e-06
0.00958201
1.74565e-06
0.00900347
1.36439e-07
0.00847349
-1.46938e-06
0.0080368
-1.92465e-06
0.00771436
-1.39458e-06
0.00750342
-7.33299e-07
0.00738498
-6.36318e-07
0.00733002
-5.3815e-07
0.00730886
-4.1194e-07
0.00730259
-3.60982e-07
0.00729841
-3.18839e-07
0.00729482
-2.99386e-07
0.0072898
-2.91748e-07
0.00728079
-2.85736e-07
0.00725982
-2.90725e-07
0.00720568
-2.87227e-07
0.00706032
-2.9717e-07
0.00666881
-2.69005e-07
0.00553393
-2.71724e-07
0.00283126
-2.14966e-07
0.000606978
-9.79493e-08
0.000101011
-1.84414e-08
1.62954e-05
-2.93273e-09
2.62213e-06
-4.66846e-10
4.21738e-07
-7.48772e-11
6.78231e-08
-1.20657e-11
1.09066e-08
-1.95005e-12
1.75382e-09
-3.1573e-13
2.82107e-10
-5.12085e-14
4.56511e-11
-8.2897e-15
7.60665e-12
-1.34517e-15
-2.64545e-16
4.43635e-13
4.51028e-17
1.75461e-12
-2.77556e-17
6.36818e-12
-1.37043e-16
2.28423e-11
-2.41127e-16
8.05786e-11
-1.47451e-15
2.79256e-10
-4.38018e-15
9.49677e-10
-1.59942e-14
3.16524e-09
-5.32057e-14
1.0325e-08
-1.76624e-13
3.291e-08
-5.6925e-13
1.02305e-07
-1.79115e-12
3.09473e-07
-5.48486e-12
9.08464e-07
-1.62881e-11
2.57908e-06
-4.67842e-11
7.0498e-06
-1.29297e-10
1.84456e-05
-3.41815e-10
4.58242e-05
-8.56589e-10
0.000106878
-2.00885e-09
0.000230575
-4.32943e-09
0.00045255
-8.39058e-09
0.000798263
-1.43482e-08
0.00126485
-2.14884e-08
0.00182348
-2.83289e-08
0.00243873
-3.291e-08
0.00308174
-3.1553e-08
0.00373172
-3.84235e-08
0.00437417
-2.55738e-08
0.00499906
-1.64255e-08
0.00559966
-5.8881e-09
0.00617162
6.24694e-09
0.00671229
1.95484e-08
0.00722024
3.3487e-08
0.00769484
4.7717e-08
0.00813598
6.14744e-08
0.00854394
7.22674e-08
0.00891925
8.28468e-08
0.00926274
7.57892e-08
0.00957538
1.57714e-07
0.00985831
-6.44431e-08
0.0101126
5.27686e-07
0.0103398
-7.38465e-07
0.0105404
8.48822e-07
0.0107167
2.88258e-07
0.0108679
-9.41533e-07
0.0109974
4.35046e-06
0.0110962
-1.75371e-05
0.0111806
2.04194e-05
0.0112357
8.86764e-07
0.0112463
-3.2297e-05
0.0112723
3.11044e-05
0.0112941
1.38655e-05
0.0113057
-8.1225e-06
0.0113005
-1.16224e-05
0.0112991
1.10306e-06
0.0113066
1.86691e-06
0.0113146
1.17978e-06
0.0113213
1.01984e-06
0.0113282
-6.65417e-08
0.0113378
-4.00073e-08
0.011359
9.12486e-08
0.011386
4.22929e-07
0.011398
-7.57028e-07
0.0113883
1.50117e-06
0.0113457
2.39452e-06
0.0112306
2.38211e-06
0.0110071
1.85462e-06
0.0106526
1.79558e-06
0.0101745
1.1589e-06
0.00961333
3.21906e-07
0.00903169
-1.37139e-07
0.00849437
-3.07651e-07
0.00805002
-4.37458e-07
0.00772191
-5.04101e-07
0.00750817
-4.8332e-07
0.00738788
-4.93041e-07
0.00733173
-5.40277e-07
0.00730995
-5.072e-07
0.00730327
-4.98468e-07
0.0072991
-4.97687e-07
0.00729544
-4.66445e-07
0.00729032
-4.55096e-07
0.0072812
-4.36444e-07
0.00726014
-4.21319e-07
0.00720591
-4.10335e-07
0.00706045
-4.0003e-07
0.00666897
-3.55431e-07
0.00553433
-3.59638e-07
0.00283193
-2.57996e-07
0.000607195
-1.0402e-07
0.000101048
-1.91993e-08
1.63014e-05
-3.20265e-09
2.62309e-06
-5.29292e-10
4.21892e-07
-8.70882e-11
6.78481e-08
-1.42799e-11
1.09106e-08
-2.33569e-12
1.75448e-09
-3.81409e-13
2.82213e-10
-6.21744e-14
4.56685e-11
-1.0136e-14
7.60961e-12
-1.64799e-15
-3.24285e-16
4.43659e-13
5.55112e-17
1.75444e-12
6.41848e-17
6.36727e-12
6.245e-17
2.28402e-11
-4.7011e-16
8.05689e-11
-9.7318e-16
2.79225e-10
-4.91447e-15
9.49572e-10
-1.58797e-14
3.1649e-09
-5.38718e-14
1.03239e-08
-1.78184e-13
3.29065e-08
-5.72001e-13
1.02295e-07
-1.79838e-12
3.09442e-07
-5.49205e-12
9.08376e-07
-1.62829e-11
2.57884e-06
-4.66811e-11
7.04917e-06
-1.28822e-10
1.8444e-05
-3.40146e-10
4.58206e-05
-8.51979e-10
0.000106871
-1.99975e-09
0.00023056
-4.32542e-09
0.000452528
-8.45152e-09
0.000798234
-1.4653e-08
0.00126482
-2.23435e-08
0.00182345
-3.00654e-08
0.00243871
-3.62668e-08
0.00308174
-4.02662e-08
0.00373173
-3.90972e-08
0.00437419
-3.56184e-08
0.00499909
-3.01269e-08
0.00559969
-2.01617e-08
0.00617166
-7.01155e-09
0.00671233
7.88985e-09
0.00722028
2.41793e-08
0.00769488
4.15698e-08
0.00813602
5.95753e-08
0.00854398
7.72628e-08
0.0089193
9.45995e-08
0.00926278
1.01256e-07
0.00957545
1.52989e-07
0.0098583
1.77227e-08
0.0101128
4.46078e-07
0.0103395
-3.76021e-07
0.0105407
6.83266e-07
0.0107165
1.68756e-07
0.0108677
-9.56509e-07
0.0109963
5.32863e-06
0.0110962
-1.18039e-05
0.0111823
1.15896e-05
0.0112296
4.31203e-06
0.0112529
-2.62222e-05
0.0112809
2.1775e-05
0.0112887
5.81483e-06
0.0112936
-3.62528e-06
0.0112986
-6.97544e-06
0.011306
2.33029e-06
0.01131
2.58897e-06
0.0113139
1.18098e-06
0.0113193
5.80641e-07
0.011327
1.41537e-07
0.0113374
1.45435e-07
0.0113591
2.52656e-07
0.0113854
3.62863e-07
0.0113971
-1.23895e-07
0.0113877
9.86101e-07
0.011347
1.26023e-06
0.0112332
1.20882e-06
0.0110112
1.19879e-06
0.0106569
1.11395e-06
0.0101775
7.17187e-07
0.00961465
3.21116e-07
0.00903258
5.66863e-08
0.0084965
-1.68219e-07
0.00805346
-3.31972e-07
0.00772589
-3.79669e-07
0.00751164
-3.72713e-07
0.0073909
-3.83844e-07
0.00733423
-3.85833e-07
0.00731207
-3.78109e-07
0.00730501
-3.86577e-07
0.0073005
-3.88112e-07
0.00729652
-3.79382e-07
0.0072911
-3.83827e-07
0.00728172
-3.8391e-07
0.00726042
-3.79515e-07
0.00720602
-3.93814e-07
0.00706044
-3.84718e-07
0.00666894
-3.70453e-07
0.00553452
-3.55371e-07
0.00283258
-2.6698e-07
0.00060744
-1.11006e-07
0.000101092
-2.01425e-08
1.63087e-05
-3.28069e-09
2.6243e-06
-5.35953e-10
4.2209e-07
-8.77746e-11
6.78804e-08
-1.43744e-11
1.09159e-08
-2.35186e-12
1.75534e-09
-3.84357e-13
2.82354e-10
-6.2726e-14
4.56915e-11
-1.02062e-14
7.61344e-12
-1.66805e-15
-3.22984e-16
4.43437e-13
7.45931e-17
1.75411e-12
2.25514e-17
6.3666e-12
-4.68375e-17
2.2837e-11
-1.37043e-16
8.05601e-11
-1.2941e-15
2.79193e-10
-3.75568e-15
9.49466e-10
-1.38865e-14
3.16455e-09
-4.64229e-14
1.03228e-08
-1.52614e-13
3.2903e-08
-4.91288e-13
1.02284e-07
-1.5407e-12
3.09411e-07
-4.70201e-12
9.08288e-07
-1.39278e-11
2.5786e-06
-3.98961e-11
7.04854e-06
-1.10031e-10
1.84425e-05
-2.90459e-10
4.5817e-05
-7.27818e-10
0.000106863
-1.71129e-09
0.000230546
-3.71709e-09
0.000452505
-7.3242e-09
0.000798203
-1.28882e-08
0.00126479
-2.01319e-08
0.00182342
-2.81e-08
0.0024387
-3.55523e-08
0.00308174
-4.1253e-08
0.00373174
-4.29501e-08
0.00437421
-4.22872e-08
0.00499911
-4.34985e-08
0.00559973
-3.51636e-08
0.0061717
-2.40945e-08
0.00671238
-1.09865e-08
0.00722032
4.89256e-09
0.00769493
2.28468e-08
0.00813607
4.26351e-08
0.00854403
6.3587e-08
0.00891935
8.57209e-08
0.00926283
1.01428e-07
0.00957548
1.47465e-07
0.00985837
5.18742e-08
0.0101128
4.01925e-07
0.0103398
-2.74072e-07
0.0105406
7.8766e-07
0.0107167
9.91942e-08
0.0108684
-1.09421e-06
0.0109954
5.70899e-06
0.011097
-9.27953e-06
0.0111805
7.34243e-06
0.011227
7.4517e-06
0.0112554
-2.03786e-05
0.0112768
1.21481e-05
0.0112885
8.30107e-06
0.0112961
-3.90612e-06
0.0112998
-4.40723e-06
0.0113062
-9.63627e-07
0.0113098
1.02444e-06
0.0113132
8.47601e-07
0.0113184
5.40591e-07
0.0113263
3.16061e-07
0.0113371
2.00023e-07
0.0113591
1.47675e-07
0.0113855
3.16034e-07
0.0113977
1.06399e-08
0.011388
4.06096e-07
0.0113472
1.7916e-07
0.0112331
5.52872e-07
0.0110101
9.97022e-07
0.010655
1.09471e-06
0.0101753
4.28693e-07
0.00961309
-3.73335e-07
0.00903177
-4.05195e-07
0.00849601
-2.37718e-07
0.00805307
-1.91359e-07
0.0077256
-2.05193e-07
0.00751139
-1.97813e-07
0.00739069
-2.10658e-07
0.00733408
-2.45403e-07
0.00731195
-2.75965e-07
0.00730491
-3.01779e-07
0.00730041
-3.12746e-07
0.00729643
-3.05219e-07
0.00729101
-3.30247e-07
0.00728163
-3.51263e-07
0.00726033
-3.55752e-07
0.0072059
-3.62503e-07
0.00706031
-3.7237e-07
0.00666889
-3.71183e-07
0.00553477
-3.40191e-07
0.00283332
-2.50745e-07
0.000607705
-1.01471e-07
0.000101139
-1.82606e-08
1.63164e-05
-2.98499e-09
2.62556e-06
-4.87823e-10
4.22297e-07
-7.97327e-11
6.79144e-08
-1.30176e-11
1.09214e-08
-2.12267e-12
1.75624e-09
-3.45747e-13
2.82501e-10
-5.6251e-14
4.57157e-11
-9.13473e-15
7.61751e-12
-1.47495e-15
-2.84061e-16
4.43492e-13
7.45931e-17
1.754e-12
4.85723e-17
6.36583e-12
1.73472e-18
2.28351e-11
-2.60209e-16
8.05515e-11
-7.71952e-16
2.79165e-10
-3.02883e-15
9.49372e-10
-1.03841e-14
3.16424e-09
-3.53936e-14
1.03218e-08
-1.15069e-13
3.29e-08
-3.72327e-13
1.02275e-07
-1.16048e-12
3.09384e-07
-3.54326e-12
9.08211e-07
-1.04698e-11
2.57839e-06
-2.99568e-11
7.04799e-06
-8.25258e-11
1.84411e-05
-2.17709e-10
4.58139e-05
-5.45592e-10
0.000106857
-1.28467e-09
0.000230534
-2.80142e-09
0.000452485
-5.5667e-09
0.000798175
-9.95155e-09
0.00126476
-1.59524e-08
0.00182339
-2.30987e-08
0.00243867
-3.05737e-08
0.00308172
-3.73833e-08
0.00373173
-4.25058e-08
0.00437421
-4.50159e-08
0.00499913
-4.55825e-08
0.00559975
-4.18155e-08
0.00617173
-3.90981e-08
0.00671241
-3.12401e-08
0.00722036
-1.98648e-08
0.00769497
-5.01906e-09
0.00813612
1.28507e-08
0.00854408
3.367e-08
0.0089194
5.72043e-08
0.00926289
8.07606e-08
0.00957554
1.14415e-07
0.00985839
1.03866e-07
0.0101129
2.42243e-07
0.0103397
-1.19504e-08
0.0105409
4.96969e-07
0.0107168
3.25482e-08
0.0108678
-4.97348e-07
0.010997
3.63565e-06
0.0110976
-6.50978e-06
0.0111778
5.37947e-06
0.0112292
7.94724e-06
0.0112586
-1.59733e-05
0.0112751
1.01865e-05
0.0112864
7.53859e-06
0.0112961
-4.54626e-06
0.0113035
-4.2007e-06
0.0113073
1.02602e-07
0.0113093
9.69918e-07
0.0113127
7.44719e-07
0.0113183
4.37345e-07
0.0113265
2.32734e-07
0.0113374
1.13662e-07
0.0113594
8.88049e-08
0.0113859
2.02041e-07
0.0113978
3.08215e-09
0.0113883
-1.55929e-07
0.0113469
4.71252e-08
0.0112326
3.2572e-07
0.0110096
6.83875e-07
0.0106547
8.72463e-07
0.0101748
1.43881e-07
0.00961204
-5.29936e-07
0.00903045
-5.97729e-07
0.00849477
-3.24678e-07
0.00805204
-1.57121e-07
0.00772483
-1.2897e-07
0.00751087
-1.47008e-07
0.00739038
-1.35841e-07
0.00733391
-1.90765e-07
0.00731183
-2.05273e-07
0.00730479
-2.23196e-07
0.00730027
-2.32989e-07
0.0072963
-2.50136e-07
0.00729086
-2.85576e-07
0.00728146
-3.03083e-07
0.00726014
-3.14034e-07
0.00720572
-3.34338e-07
0.00706015
-3.42766e-07
0.00666882
-3.453e-07
0.00553501
-3.07715e-07
0.00283401
-2.24925e-07
0.000607952
-9.02142e-08
0.000101182
-1.60856e-08
1.63236e-05
-2.60377e-09
2.62674e-06
-4.22223e-10
4.2249e-07
-6.86062e-11
6.79458e-08
-1.115e-11
1.09266e-08
-1.8112e-12
1.75707e-09
-2.93951e-13
2.82637e-10
-4.76596e-14
4.57379e-11
-7.71562e-15
7.62127e-12
-1.24683e-15
-2.46005e-16
4.43232e-13
5.0307e-17
1.75372e-12
1.04083e-17
6.36536e-12
-1.73472e-17
2.2833e-11
-1.05818e-16
8.05452e-11
-5.18682e-16
2.79144e-10
-2.10075e-15
9.49301e-10
-6.87644e-15
3.16401e-09
-2.38646e-14
1.03211e-08
-7.73808e-14
3.28977e-08
-2.48614e-13
1.02268e-07
-7.76348e-13
3.09363e-07
-2.35788e-12
9.08153e-07
-6.96246e-12
2.57823e-06
-1.98675e-11
7.04757e-06
-5.46548e-11
1.84401e-05
-1.43983e-10
4.58115e-05
-3.60655e-10
0.000106851
-8.49763e-10
0.000230524
-1.85858e-09
0.000452468
-3.71957e-09
0.000798152
-6.74194e-09
0.00126473
-1.10576e-08
0.00182336
-1.65524e-08
0.00243864
-2.2894e-08
0.0030817
-2.95589e-08
0.00373171
-3.58581e-08
0.0043742
-4.09451e-08
0.00499912
-4.36074e-08
0.00559976
-4.366e-08
0.00617174
-4.32588e-08
0.00671243
-3.93267e-08
0.00722039
-3.41752e-08
0.00769501
-2.61796e-08
0.00813616
-1.46642e-08
0.00854412
7.88616e-10
0.00891944
2.01777e-08
0.00926293
4.20167e-08
0.00957558
7.00773e-08
0.00985847
7.92369e-08
0.0101129
1.75559e-07
0.0103399
8.67867e-09
0.0105409
4.10848e-07
0.0107167
6.3865e-08
0.0108683
-4.81426e-07
0.0109966
2.93495e-06
0.0110979
-4.6799e-06
0.011178
4.9841e-06
0.0112319
5.50111e-06
0.0112588
-1.16457e-05
0.0112768
7.81733e-06
0.0112869
6.44455e-06
0.0112943
-1.60467e-06
0.0113012
-3.00824e-06
0.0113069
2.58544e-07
0.0113098
8.49295e-07
0.0113132
7.20378e-07
0.0113187
4.55126e-07
0.0113268
2.52137e-07
0.0113377
1.202e-07
0.0113595
9.33375e-08
0.0113865
-3.95845e-08
0.0113983
-1.13932e-07
0.0113882
-5.87099e-08
0.0113462
7.17723e-09
0.0112317
4.96315e-08
0.0110092
2.23216e-07
0.0106548
-1.82461e-07
0.0101751
-1.70941e-07
0.00961173
-2.74032e-07
0.0090294
-2.21138e-07
0.00849347
-1.57145e-07
0.00805095
-2.14546e-07
0.00772412
-1.73516e-07
0.00751043
-1.36255e-07
0.00739012
-1.07388e-07
0.00733373
-1.5101e-07
0.00731164
-1.75824e-07
0.00730462
-1.94004e-07
0.00730013
-2.13312e-07
0.00729616
-2.38517e-07
0.00729073
-2.44351e-07
0.00728132
-2.50506e-07
0.00726003
-3.07796e-07
0.00720562
-3.08077e-07
0.00706008
-2.85909e-07
0.00666881
-2.80876e-07
0.00553527
-2.53666e-07
0.00283463
-1.86008e-07
0.000608172
-7.50988e-08
0.000101221
-1.33539e-08
1.63299e-05
-2.12896e-09
2.62777e-06
-3.39664e-10
4.22656e-07
-5.42801e-11
6.79727e-08
-8.67494e-12
1.09309e-08
-1.38619e-12
1.75778e-09
-2.21485e-13
2.82751e-10
-3.53847e-14
4.57564e-11
-5.63471e-15
7.62434e-12
-9.08887e-16
-1.7434e-16
4.43371e-13
5.20417e-17
1.75372e-12
5.0307e-17
6.36498e-12
2.77556e-17
2.2832e-11
-1.85615e-16
8.05409e-11
-1.56125e-16
2.79129e-10
-1.37911e-15
9.49252e-10
-3.88925e-15
3.16385e-09
-1.41363e-14
1.03206e-08
-4.53197e-14
3.28961e-08
-1.45219e-13
1.02263e-07
-4.52024e-13
3.09349e-07
-1.36868e-12
9.08113e-07
-4.02866e-12
2.57812e-06
-1.14624e-11
7.0473e-06
-3.14487e-11
1.84394e-05
-8.26592e-11
4.58099e-05
-2.06689e-10
0.000106848
-4.86669e-10
0.000230517
-1.06584e-09
0.000452457
-2.14386e-09
0.000798136
-3.92949e-09
0.00126471
-6.57145e-09
0.00182334
-1.01242e-08
0.00243862
-1.45462e-08
0.00308167
-1.968e-08
0.00373169
-2.5213e-08
0.00437419
-3.06355e-08
0.00499911
-3.52561e-08
0.00559975
-3.82297e-08
0.00617174
-3.84805e-08
0.00671244
-3.56031e-08
0.00722041
-3.39649e-08
0.00769503
-3.04503e-08
0.00813618
-2.30247e-08
0.00854415
-1.51784e-08
0.00891947
-6.53722e-09
0.00926296
5.41174e-09
0.0095756
2.18009e-08
0.00985849
3.78487e-08
0.0101129
7.44905e-08
0.0103399
5.59536e-08
0.010541
1.82376e-07
0.0107168
9.57882e-08
0.0108682
-9.64677e-08
0.0109968
1.55581e-06
0.0110984
-2.67328e-06
0.0111781
3.73273e-06
0.0112333
4.7428e-07
0.0112575
-5.993e-06
0.0112742
6.96395e-06
0.0112869
2.49009e-06
0.0112964
-2.13657e-06
0.0113029
-1.19003e-06
0.0113071
9.71826e-07
0.0113098
5.87877e-07
0.0113136
4.52289e-07
0.0113192
3.36326e-07
0.0113274
2.5497e-07
0.0113383
1.33613e-07
0.01136
1.88186e-07
0.0113867
-9.62727e-08
0.0113986
-2.72055e-07
0.0113885
-2.03568e-07
0.0113467
-7.69531e-08
0.0112321
-7.86888e-08
0.0110092
-1.23083e-07
0.0106541
-3.02517e-07
0.010174
-1.90744e-07
0.00961086
-9.37214e-08
0.00902897
-1.4061e-07
0.00849329
-1.71792e-07
0.00805075
-2.07232e-07
0.00772388
-1.69039e-07
0.00751031
-1.39145e-07
0.00739017
-1.10165e-07
0.00733388
-1.0949e-07
0.00731178
-1.15633e-07
0.0073047
-1.23085e-07
0.00730016
-1.44412e-07
0.00729613
-1.58559e-07
0.00729066
-1.7302e-07
0.00728124
-1.71957e-07
0.00725991
-1.8495e-07
0.0072055
-2.06674e-07
0.00706002
-2.07701e-07
0.00666888
-2.19929e-07
0.00553557
-1.90622e-07
0.00283519
-1.32658e-07
0.000608354
-5.23763e-08
0.000101252
-9.53727e-09
1.6335e-05
-1.56167e-09
2.62858e-06
-2.51261e-10
4.22786e-07
-4.00502e-11
6.79935e-08
-6.34491e-12
1.09342e-08
-1.00156e-12
1.75831e-09
-1.57775e-13
2.82836e-10
-2.48413e-14
4.57701e-11
-3.90259e-15
7.62663e-12
-6.09864e-16
-1.14492e-16
4.43128e-13
1.73472e-17
1.75351e-12
-3.46945e-18
6.36475e-12
-3.64292e-17
2.28309e-11
-1.73472e-18
8.05386e-11
-2.1684e-16
2.79121e-10
-5.20417e-16
9.49224e-10
-1.83013e-15
3.16376e-09
-6.34041e-15
1.03203e-08
-2.06311e-14
3.28952e-08
-6.46636e-14
1.02261e-07
-2.03129e-13
3.09341e-07
-6.08043e-13
9.08091e-07
-1.78676e-12
2.57806e-06
-5.05746e-12
7.04714e-06
-1.38145e-11
1.8439e-05
-3.61362e-11
4.5809e-05
-8.98903e-11
0.000106846
-2.10443e-10
0.000230513
-4.5799e-10
0.000452451
-9.15882e-10
0.000798126
-1.67398e-09
0.00126469
-2.81025e-09
0.00182332
-4.3865e-09
0.0024386
-6.44721e-09
0.00308166
-9.00593e-09
0.00373168
-1.20238e-08
0.00437417
-1.53908e-08
0.00499911
-1.89032e-08
0.00559975
-2.22029e-08
0.00617174
-2.45532e-08
0.00671244
-2.45546e-08
0.00722041
-2.36731e-08
0.00769503
-9.9059e-09
0.00813619
-9.45714e-09
0.00854415
-8.67365e-09
0.00891948
-7.5188e-09
0.00926297
-6.27618e-09
0.00957561
-3.42588e-09
0.00985851
1.0941e-09
0.0101129
1.07147e-08
0.0103399
1.50022e-08
0.0105409
4.63345e-08
0.0107168
4.75373e-08
0.0108683
-1.31034e-08
0.0109965
5.29225e-07
0.0110984
-1.04456e-06
0.0111786
1.73985e-06
0.0112311
-5.8345e-08
0.0112583
-2.57193e-06
0.0112769
3.06449e-06
0.0112872
1.22255e-06
0.0112949
-7.84095e-07
0.0113018
-9.31939e-08
0.0113075
6.33399e-07
0.0113104
1.33746e-07
0.011314
2.95577e-07
0.0113196
2.81954e-07
0.0113279
2.79764e-07
0.0113388
1.35526e-07
0.0113607
1.07888e-07
0.0113871
2.61229e-08
0.0113987
2.58039e-09
0.0113886
-4.11465e-08
0.011347
-7.4333e-08
0.0112325
-1.222e-07
0.0110093
-1.66776e-07
0.0106539
-1.31066e-07
0.0101736
-7.19861e-08
0.00961062
-6.44664e-08
0.00902883
-1.06889e-07
0.00849314
-1.46834e-07
0.00805053
-1.09622e-07
0.00772356
-8.77469e-08
0.00750994
-8.04804e-08
0.00738979
-7.36228e-08
0.00733356
-7.76588e-08
0.00731152
-7.62555e-08
0.00730449
-7.4827e-08
0.00729998
-1.27517e-07
0.00729599
-1.04784e-07
0.00729053
-1.03954e-07
0.00728112
-9.26219e-08
0.0072598
-1.08644e-07
0.00720542
-1.26209e-07
0.00705996
-1.27074e-07
0.00666887
-1.11516e-07
0.00553572
-9.5169e-08
0.00283554
-7.27102e-08
0.000608477
-3.7228e-08
0.000101274
-7.31613e-09
1.63385e-05
-1.08492e-09
2.62914e-06
-1.59791e-10
4.22874e-07
-2.38768e-11
6.80075e-08
-3.60906e-12
1.09365e-08
-5.50155e-13
1.75866e-09
-8.4398e-14
2.82891e-10
-1.30067e-14
4.57788e-11
-2.00816e-15
7.62804e-12
-3.08998e-16
-5.52943e-17
4.43281e-13
1.75354e-12
6.36465e-12
2.28308e-11
8.05374e-11
2.79117e-10
9.49212e-10
3.16372e-09
1.03201e-08
3.28948e-08
1.02259e-07
3.09338e-07
9.08081e-07
2.57803e-06
7.04706e-06
1.84388e-05
4.58085e-05
0.000106845
0.000230512
0.000452447
0.00079812
0.00126469
0.00182331
0.00243859
0.00308164
0.00373166
0.00437416
0.00499909
0.00559974
0.00617173
0.00671244
0.00722041
0.00769503
0.00813619
0.00854415
0.00891947
0.00926297
0.00957561
0.0098585
0.0101129
0.0103399
0.0105409
0.0107168
0.0108683
0.0109963
0.0110987
0.0111784
0.0112307
0.011259
0.0112764
0.0112862
0.0112941
0.0113019
0.011308
0.0113107
0.0113143
0.0113198
0.0113282
0.011339
0.0113609
0.0113871
0.011399
0.0113888
0.0113472
0.0112324
0.0110091
0.0106538
0.0101737
0.00961066
0.00902877
0.00849299
0.00805039
0.00772347
0.00750988
0.00738973
0.0073335
0.00731146
0.00730446
0.00729995
0.00729594
0.00729047
0.00728107
0.00725978
0.00720543
0.00705999
0.00666898
0.00553596
0.00283583
0.000608557
0.000101286
1.63403e-05
2.62941e-06
4.22916e-07
6.80138e-08
1.09374e-08
1.75881e-09
2.82914e-10
4.57825e-11
7.62865e-12
)
;

boundaryField
{
    sides1
    {
        type            calculated;
        value           nonuniform List<scalar> 
20
(
1.89211e-13
1.89216e-13
1.8934e-13
1.89402e-13
1.89513e-13
1.89644e-13
1.89692e-13
1.89764e-13
1.89792e-13
1.8982e-13
-2.9577e-14
-2.95805e-14
-2.95285e-14
-2.95944e-14
-2.94313e-14
-2.94972e-14
-2.92544e-14
-2.94209e-14
-2.91711e-14
-2.93515e-14
)
;
    }
    sides2
    {
        type            calculated;
        value           uniform 0;
    }
    empty
    {
        type            empty;
        value           nonuniform 0();
    }
}


// ************************************************************************* //
