/*--------------------------------*- C++ -*----------------------------------*\
| =========                 |                                                 |
| \\      /  F ield         | OpenFOAM: The Open Source CFD Toolbox           |
|  \\    /   O peration     | Version:  3.0.1                                 |
|   \\  /    A nd           | Web:      www.OpenFOAM.org                      |
|    \\/     M anipulation  |                                                 |
\*---------------------------------------------------------------------------*/
FoamFile
{
    version     2.0;
    format      ascii;
    class       volScalarField;
    location    "0.00025";
    object      rho;
}
// * * * * * * * * * * * * * * * * * * * * * * * * * * * * * * * * * * * * * //

dimensions      [1 -3 0 0 0 0 0];

internalField   nonuniform List<scalar> 
1000
(
0.831556
0.831556
0.831556
0.831556
0.831556
0.831556
0.831556
0.831556
0.831556
0.831556
0.831555
0.831551
0.83154
0.83151
0.831429
0.831218
0.830702
0.829524
0.827061
0.822466
0.81496
0.804281
0.790814
0.775254
0.758254
0.740318
0.721819
0.703032
0.684157
0.665339
0.646683
0.628261
0.610124
0.592311
0.574849
0.557761
0.54106
0.524755
0.508851
0.493342
0.478229
0.463508
0.449163
0.435232
0.421845
0.409142
0.397148
0.387945
0.38042
0.375626
0.37397
0.372542
0.370817
0.369901
0.369486
0.369474
0.369491
0.36924
0.368742
0.369426
0.37032
0.37088
0.370552
0.369932
0.367284
0.361571
0.351946
0.338064
0.32069
0.301656
0.283184
0.267136
0.254622
0.245913
0.240589
0.237813
0.236624
0.236224
0.236118
0.236056
0.235997
0.23591
0.235732
0.235281
0.234091
0.230864
0.221949
0.196613
0.145517
0.112484
0.105363
0.104178
0.103987
0.103956
0.103951
0.10395
0.10395
0.10395
0.10395
0.10395
0.831556
0.831556
0.831556
0.831556
0.831556
0.831556
0.831556
0.831556
0.831556
0.831556
0.831555
0.831551
0.83154
0.83151
0.831429
0.831218
0.830702
0.829524
0.827062
0.822467
0.81496
0.804281
0.790814
0.775254
0.758254
0.740318
0.721819
0.703031
0.684156
0.665338
0.646682
0.62826
0.610123
0.59231
0.574849
0.557761
0.541061
0.524756
0.508852
0.493343
0.478239
0.463496
0.449164
0.435265
0.421706
0.409225
0.397477
0.387413
0.380727
0.375904
0.373594
0.372259
0.370955
0.369771
0.369409
0.369516
0.369523
0.369243
0.368717
0.369407
0.370319
0.370913
0.370546
0.369879
0.367188
0.36145
0.351744
0.337771
0.32035
0.301332
0.282925
0.266962
0.254516
0.245856
0.240555
0.237796
0.236616
0.236223
0.236116
0.236054
0.235994
0.235908
0.235729
0.235279
0.234089
0.230862
0.221948
0.196615
0.145521
0.112485
0.105364
0.104178
0.103987
0.103956
0.103951
0.10395
0.10395
0.10395
0.10395
0.10395
0.831556
0.831556
0.831556
0.831556
0.831556
0.831556
0.831556
0.831556
0.831556
0.831556
0.831555
0.831551
0.83154
0.83151
0.831429
0.831219
0.830703
0.829524
0.827062
0.822467
0.814961
0.804282
0.790814
0.775254
0.758254
0.740317
0.721818
0.70303
0.684155
0.665337
0.646681
0.628259
0.610123
0.59231
0.574849
0.557762
0.541061
0.524757
0.508852
0.493343
0.478231
0.463501
0.44917
0.43524
0.421847
0.409087
0.39764
0.387686
0.3803
0.376257
0.373808
0.372277
0.370973
0.369833
0.369292
0.369444
0.36951
0.36924
0.368724
0.369385
0.370295
0.37088
0.370548
0.369952
0.367331
0.361641
0.352024
0.338159
0.320822
0.301815
0.283343
0.267272
0.254724
0.245975
0.240625
0.237831
0.236629
0.236228
0.236115
0.236052
0.235992
0.235905
0.235726
0.235276
0.234086
0.23086
0.221948
0.196621
0.145531
0.112488
0.105364
0.104178
0.103987
0.103956
0.103951
0.10395
0.10395
0.10395
0.10395
0.10395
0.831556
0.831556
0.831556
0.831556
0.831556
0.831556
0.831556
0.831556
0.831556
0.831556
0.831555
0.831551
0.83154
0.83151
0.831429
0.831219
0.830703
0.829524
0.827062
0.822467
0.814961
0.804282
0.790815
0.775254
0.758253
0.740316
0.721817
0.703029
0.684154
0.665336
0.646679
0.628257
0.610121
0.592309
0.574848
0.557761
0.54106
0.524756
0.50885
0.493344
0.478228
0.463509
0.449175
0.435262
0.421844
0.409045
0.397572
0.38761
0.380414
0.376244
0.373769
0.372267
0.371011
0.369817
0.369354
0.369485
0.369513
0.369216
0.368705
0.369381
0.370302
0.370862
0.370548
0.370004
0.367378
0.361671
0.352069
0.338206
0.320862
0.301856
0.28339
0.267327
0.254777
0.246019
0.240652
0.237846
0.236637
0.236233
0.236118
0.236054
0.235993
0.235905
0.235725
0.235274
0.234084
0.230857
0.221948
0.196627
0.145543
0.112492
0.105365
0.104178
0.103987
0.103956
0.103951
0.10395
0.10395
0.10395
0.10395
0.10395
0.831556
0.831556
0.831556
0.831556
0.831556
0.831556
0.831556
0.831556
0.831556
0.831556
0.831555
0.831551
0.83154
0.83151
0.831429
0.831219
0.830703
0.829524
0.827062
0.822468
0.814962
0.804283
0.790816
0.775255
0.758253
0.740316
0.721816
0.703028
0.684152
0.665334
0.646677
0.628256
0.610119
0.592307
0.574846
0.557759
0.541059
0.524755
0.50885
0.493343
0.478228
0.463504
0.449171
0.435249
0.42182
0.409065
0.397438
0.38748
0.380355
0.376163
0.373762
0.3724
0.371056
0.36982
0.369415
0.369504
0.369507
0.369199
0.368696
0.36938
0.370302
0.370858
0.370519
0.369991
0.367372
0.361665
0.352048
0.338185
0.320839
0.301831
0.28337
0.267311
0.254766
0.246012
0.240648
0.237845
0.236636
0.236233
0.236117
0.236052
0.235992
0.235903
0.235723
0.235271
0.234081
0.230855
0.221948
0.196634
0.145555
0.112496
0.105365
0.104178
0.103987
0.103956
0.103951
0.10395
0.10395
0.10395
0.10395
0.10395
0.831556
0.831556
0.831556
0.831556
0.831556
0.831556
0.831556
0.831556
0.831556
0.831556
0.831555
0.831551
0.83154
0.83151
0.831429
0.831219
0.830703
0.829524
0.827063
0.822468
0.814962
0.804284
0.790816
0.775255
0.758254
0.740316
0.721816
0.703027
0.684151
0.665332
0.646676
0.628253
0.610117
0.592304
0.574844
0.557757
0.541057
0.524754
0.508848
0.493344
0.478226
0.463506
0.449166
0.435239
0.421839
0.409056
0.397466
0.387604
0.3804
0.376166
0.373812
0.372334
0.371016
0.369841
0.369408
0.369496
0.369507
0.369215
0.368708
0.369388
0.370308
0.370864
0.37052
0.369966
0.367352
0.361651
0.352037
0.338171
0.32082
0.301813
0.283351
0.267294
0.254753
0.246003
0.240643
0.237841
0.236634
0.23623
0.236114
0.23605
0.235988
0.2359
0.23572
0.235268
0.234078
0.230853
0.221948
0.196641
0.145566
0.112499
0.105366
0.104178
0.103987
0.103956
0.103951
0.10395
0.10395
0.10395
0.10395
0.10395
0.831556
0.831556
0.831556
0.831556
0.831556
0.831556
0.831556
0.831556
0.831556
0.831556
0.831555
0.831551
0.83154
0.83151
0.831429
0.831219
0.830703
0.829524
0.827063
0.822469
0.814963
0.804284
0.790817
0.775256
0.758254
0.740317
0.721816
0.703027
0.68415
0.665332
0.646674
0.628251
0.610115
0.592301
0.574841
0.557753
0.541054
0.52475
0.508846
0.49334
0.478226
0.463501
0.449164
0.435242
0.421821
0.409065
0.397485
0.387679
0.380413
0.376135
0.373791
0.372318
0.371023
0.369836
0.369409
0.36951
0.369525
0.369234
0.368719
0.369392
0.370305
0.370871
0.370529
0.369967
0.367346
0.361651
0.352038
0.338167
0.320816
0.301799
0.283331
0.267274
0.254737
0.245995
0.24064
0.237842
0.236634
0.23623
0.236113
0.236048
0.235986
0.235897
0.235717
0.235265
0.234077
0.230852
0.221948
0.196647
0.145577
0.112502
0.105367
0.104178
0.103987
0.103956
0.103951
0.10395
0.10395
0.10395
0.10395
0.10395
0.831556
0.831556
0.831556
0.831556
0.831556
0.831556
0.831556
0.831556
0.831556
0.831556
0.831555
0.831551
0.83154
0.83151
0.831429
0.831219
0.830703
0.829525
0.827063
0.822469
0.814963
0.804285
0.790818
0.775257
0.758255
0.740317
0.721817
0.703027
0.68415
0.665331
0.646673
0.62825
0.610113
0.592299
0.574838
0.55775
0.54105
0.524746
0.508841
0.493336
0.478221
0.463498
0.449159
0.435235
0.421826
0.40906
0.39747
0.387672
0.380366
0.376129
0.373818
0.372329
0.371026
0.369872
0.369421
0.369524
0.369545
0.369254
0.368739
0.369413
0.370326
0.370885
0.370533
0.369976
0.367355
0.361652
0.352029
0.338155
0.320799
0.301785
0.283319
0.267263
0.254727
0.245987
0.240637
0.237842
0.236637
0.236232
0.236115
0.236048
0.235986
0.235895
0.235714
0.235263
0.234075
0.230851
0.22195
0.196654
0.145585
0.112505
0.105367
0.104178
0.103987
0.103956
0.103951
0.10395
0.10395
0.10395
0.10395
0.10395
0.831556
0.831556
0.831556
0.831556
0.831556
0.831556
0.831556
0.831556
0.831556
0.831556
0.831555
0.831551
0.83154
0.83151
0.831429
0.831219
0.830703
0.829525
0.827063
0.822469
0.814964
0.804285
0.790818
0.775257
0.758256
0.740318
0.721817
0.703027
0.68415
0.665331
0.646673
0.62825
0.610112
0.592298
0.574836
0.557748
0.541047
0.524742
0.508837
0.493331
0.478217
0.463492
0.449155
0.435233
0.421818
0.409063
0.397475
0.387625
0.380395
0.376148
0.37379
0.372332
0.37104
0.369866
0.369439
0.369541
0.369562
0.369276
0.36876
0.369441
0.370351
0.370897
0.370535
0.369988
0.367365
0.361652
0.352024
0.338148
0.320791
0.301777
0.283313
0.267257
0.25472
0.24598
0.240631
0.237838
0.236634
0.236229
0.236113
0.236046
0.235983
0.235893
0.235712
0.235261
0.234073
0.23085
0.22195
0.196658
0.145591
0.112507
0.105367
0.104179
0.103987
0.103956
0.103951
0.10395
0.10395
0.10395
0.10395
0.10395
0.831556
0.831556
0.831556
0.831556
0.831556
0.831556
0.831556
0.831556
0.831556
0.831556
0.831555
0.831551
0.83154
0.83151
0.831429
0.831219
0.830703
0.829525
0.827063
0.822469
0.814964
0.804285
0.790818
0.775258
0.758256
0.740318
0.721818
0.703028
0.684151
0.665331
0.646673
0.628249
0.610112
0.592298
0.574836
0.557747
0.541046
0.524741
0.508836
0.493328
0.478214
0.463488
0.449151
0.435228
0.421804
0.409055
0.397456
0.387608
0.380377
0.376109
0.373791
0.37234
0.371029
0.369865
0.369448
0.369548
0.369568
0.369282
0.36877
0.36945
0.370367
0.370912
0.370547
0.370003
0.367379
0.361661
0.352029
0.33815
0.320791
0.301776
0.283311
0.267255
0.254718
0.245979
0.24063
0.237837
0.236633
0.236229
0.236111
0.236044
0.235982
0.235892
0.235712
0.23526
0.234073
0.230851
0.221952
0.196662
0.145596
0.112508
0.105368
0.104179
0.103987
0.103956
0.103951
0.10395
0.10395
0.10395
0.10395
0.10395
)
;

boundaryField
{
    sides1
    {
        type            calculated;
        value           nonuniform List<scalar> 
20
(
0.10395
0.10395
0.10395
0.10395
0.10395
0.10395
0.10395
0.10395
0.10395
0.10395
0.831556
0.831556
0.831556
0.831556
0.831556
0.831556
0.831556
0.831556
0.831556
0.831556
)
;
    }
    sides2
    {
        type            calculated;
        value           nonuniform List<scalar> 
200
(
0.831556
0.831556
0.831556
0.831556
0.831556
0.831556
0.831556
0.831556
0.831556
0.831556
0.831555
0.831551
0.83154
0.83151
0.831429
0.831218
0.830702
0.829524
0.827061
0.822466
0.81496
0.804281
0.790814
0.775254
0.758254
0.740318
0.721819
0.703032
0.684157
0.665339
0.646683
0.628261
0.610124
0.592311
0.574849
0.557761
0.54106
0.524755
0.508851
0.493342
0.478229
0.463508
0.449163
0.435232
0.421845
0.409142
0.397148
0.387945
0.38042
0.375626
0.37397
0.372542
0.370817
0.369901
0.369486
0.369474
0.369491
0.36924
0.368742
0.369426
0.37032
0.37088
0.370552
0.369932
0.367284
0.361571
0.351946
0.338064
0.32069
0.301656
0.283184
0.267136
0.254622
0.245913
0.240589
0.237813
0.236624
0.236224
0.236118
0.236056
0.235997
0.23591
0.235732
0.235281
0.234091
0.230864
0.221949
0.196613
0.145517
0.112484
0.105363
0.104178
0.103987
0.103956
0.103951
0.10395
0.10395
0.10395
0.10395
0.10395
0.831556
0.831556
0.831556
0.831556
0.831556
0.831556
0.831556
0.831556
0.831556
0.831556
0.831555
0.831551
0.83154
0.83151
0.831429
0.831219
0.830703
0.829525
0.827063
0.822469
0.814964
0.804285
0.790818
0.775258
0.758256
0.740318
0.721818
0.703028
0.684151
0.665331
0.646673
0.628249
0.610112
0.592298
0.574836
0.557747
0.541046
0.524741
0.508836
0.493328
0.478214
0.463488
0.449151
0.435228
0.421804
0.409055
0.397456
0.387608
0.380377
0.376109
0.373791
0.37234
0.371029
0.369865
0.369448
0.369548
0.369568
0.369282
0.36877
0.36945
0.370367
0.370912
0.370547
0.370003
0.367379
0.361661
0.352029
0.33815
0.320791
0.301776
0.283311
0.267255
0.254718
0.245979
0.24063
0.237837
0.236633
0.236229
0.236111
0.236044
0.235982
0.235892
0.235712
0.23526
0.234073
0.230851
0.221952
0.196662
0.145596
0.112508
0.105368
0.104179
0.103987
0.103956
0.103951
0.10395
0.10395
0.10395
0.10395
0.10395
)
;
    }
    empty
    {
        type            empty;
    }
}


// ************************************************************************* //
