# vtk DataFile Version 2.0
gauge_2
ASCII
DATASET POLYDATA
POINTS 43 double
0.2 0.0359992 0.005
0.2 0.0419991 0.005
0.2 0.047999 0.005
0.2 0.0607609 0.005
0.2 0.0735228 0.005
0.2 0.0862847 0.005
0.2 0.0990467 0.005
0.2 0.111809 0.005
0.2 0.124571 0.005
0.2 0.137332 0.005
0.2 0.150094 0.005
0.2 0.162856 0.005
0.2 0.175618 0.005
0.2 0.18838 0.005
0.2 0.201142 0.005
0.2 0.213904 0.005
0.2 0.226666 0.005
0.2 0.239428 0.005
0.2 0.25219 0.005
0.2 0.264952 0.005
0.2 0.277714 0.005
0.2 0.290476 0.005
0.2 0.303238 0.005
0.2 0.315999 0.005
0.2 0.328761 0.005
0.2 0.341523 0.005
0.2 0.354285 0.005
0.2 0.367047 0.005
0.2 0.379809 0.005
0.2 0.392571 0.005
0.2 0.405333 0.005
0.2 0.418095 0.005
0.2 0.430857 0.005
0.2 0.443619 0.005
0.2 0.456381 0.005
0.2 0.469143 0.005
0.2 0.481905 0.005
0.2 0.494666 0.005
0.2 0.507428 0.005
0.2 0.52019 0.005
0.2 0.532952 0.005
0.2 0.545714 0.005
0.2 0.558476 0.005
POINT_DATA 43
 FIELD attributes 1
alpha.water 1 43 float
1 1 1 1 0.775906 0.287281 0.0113758 1.40437e-05 1.80874e-05 4.29256e-06 1.6999e-08 6.18434e-08 6.30355e-08 1.74923e-08 2.19198e-12 6.15744e-13 1.48667e-13 3.89187e-14 9.20278e-15 8.87133e-16 1.0012e-16 2.2312e-17 5.2829e-18 1.04073e-18 1.63668e-19 2.25274e-20 2.99632e-21 4.21565e-22 7.27433e-23 1.34851e-23 2.35407e-24 3.66012e-25 4.92661e-26 5.80989e-27 6.30455e-28 6.56759e-29 6.5278e-30 5.85483e-31 4.32874e-32 2.37162e-33 8.76789e-35 2.0861e-36 3.39493e-38
