/*--------------------------------*- C++ -*----------------------------------*\
| =========                 |                                                 |
| \\      /  F ield         | OpenFOAM: The Open Source CFD Toolbox           |
|  \\    /   O peration     | Version:  2012                                  |
|   \\  /    A nd           | Website:  www.openfoam.com                      |
|    \\/     M anipulation  |                                                 |
\*---------------------------------------------------------------------------*/
FoamFile
{
    version     2.0;
    format      ascii;
    class       volVectorField;
    location    "1920";
    object      U;
}
// * * * * * * * * * * * * * * * * * * * * * * * * * * * * * * * * * * * * * //

dimensions      [0 1 -1 0 0 0 0];


internalField   nonuniform List<vector> 
20400
(
(3.52863e-06 -3.45298e-06 0)
(5.17812e-06 -1.16977e-06 0)
(-4.6736e-06 3.70713e-06 0)
(-2.50044e-05 6.36416e-06 0)
(-5.82709e-05 7.81239e-06 0)
(-9.85099e-05 7.15776e-06 0)
(-0.000144676 6.3972e-06 0)
(-0.00019353 5.47949e-06 0)
(-0.000243172 4.71036e-06 0)
(-0.000293944 4.21494e-06 0)
(-0.000343461 4.26812e-06 0)
(-0.000393372 4.1951e-06 0)
(-0.00044251 4.01936e-06 0)
(-0.000491455 3.62748e-06 0)
(-0.000540095 3.06315e-06 0)
(-0.000588547 2.27895e-06 0)
(-0.000636849 1.24971e-06 0)
(-0.000685035 3.46862e-08 0)
(-0.000733123 -1.32864e-06 0)
(-0.000781021 -2.51449e-06 0)
(-0.000828632 -3.74112e-06 0)
(-0.000875957 -4.96433e-06 0)
(-0.000923026 -6.10165e-06 0)
(-0.000969825 -7.08088e-06 0)
(-0.00101634 -7.82822e-06 0)
(-0.00106255 -8.27731e-06 0)
(-0.00110845 -8.36825e-06 0)
(-0.00115404 -8.04961e-06 0)
(-0.00119933 -7.28447e-06 0)
(-0.00124435 -6.03732e-06 0)
(-0.00128913 -4.2975e-06 0)
(-0.00133363 -2.03382e-06 0)
(-0.00137775 8.61839e-07 0)
(-0.00142113 5.49724e-06 0)
(-0.00146363 8.99665e-06 0)
(-0.00150595 1.1433e-05 0)
(-0.00154922 1.51767e-05 0)
(-0.00159128 1.88772e-05 0)
(-0.00163321 2.23583e-05 0)
(-0.00167459 2.5493e-05 0)
(-0.00171558 2.81633e-05 0)
(-0.00175622 3.02929e-05 0)
(-0.00179653 3.18684e-05 0)
(-0.00183659 3.2894e-05 0)
(-0.00187642 3.34218e-05 0)
(-0.00191605 3.35157e-05 0)
(-0.00195547 3.32436e-05 0)
(-0.0019947 3.26597e-05 0)
(-0.00203372 3.17986e-05 0)
(-0.00207253 3.06699e-05 0)
(-0.00211113 2.9259e-05 0)
(-0.00214951 2.75253e-05 0)
(-0.00218769 2.54046e-05 0)
(-0.00222568 2.28206e-05 0)
(-0.00226354 1.96668e-05 0)
(-0.00230122 1.59156e-05 0)
(-0.00233882 1.15096e-05 0)
(-0.0023761 7.16265e-06 0)
(-0.00241293 8.81057e-07 0)
(-0.00245099 -5.6312e-06 0)
(-0.00248817 -1.12809e-05 0)
(-0.00252635 -1.61147e-05 0)
(-0.00256354 -1.9811e-05 0)
(-0.00260128 -2.24004e-05 0)
(-0.00263847 -2.40153e-05 0)
(-0.00267568 -2.48463e-05 0)
(-0.00271265 -2.50358e-05 0)
(-0.00274949 -2.47554e-05 0)
(-0.00278618 -2.41161e-05 0)
(-0.00282278 -2.32184e-05 0)
(-0.00285927 -2.21144e-05 0)
(-0.0028957 -2.08606e-05 0)
(-0.00293205 -1.94707e-05 0)
(-0.00296835 -1.79783e-05 0)
(-0.00300459 -1.63777e-05 0)
(-0.0030408 -1.46929e-05 0)
(-0.00307694 -1.29094e-05 0)
(-0.00311306 -1.10531e-05 0)
(-0.0031491 -9.10112e-06 0)
(-0.00318513 -7.09052e-06 0)
(-0.00322109 -4.98903e-06 0)
(-0.00325706 -2.83789e-06 0)
(-0.00329293 -5.97341e-07 0)
(-0.00332873 1.70382e-06 0)
(-0.00336409 4.49852e-06 0)
(-0.00339893 6.90587e-06 0)
(-0.00343378 8.04431e-06 0)
(-0.00346926 8.99395e-06 0)
(-0.00350387 9.55526e-06 0)
(-0.00353866 9.3994e-06 0)
(-0.00357306 8.59177e-06 0)
(-0.00360728 7.36731e-06 0)
(-0.00364081 5.81967e-06 0)
(-0.00367395 2.14525e-06 0)
(-0.00370737 -9.54906e-07 0)
(-0.00374038 -4.63641e-06 0)
(-0.00377305 -8.45388e-06 0)
(-0.00380542 -1.27459e-05 0)
(-0.00383689 -1.69287e-05 0)
(-0.00386812 -2.17252e-05 0)
(-0.00389819 -2.61348e-05 0)
(-0.00392801 -3.14128e-05 0)
(-0.00395639 -3.55981e-05 0)
(-0.00398458 -4.06264e-05 0)
(-0.00401089 -4.40196e-05 0)
(-0.00403748 -4.77529e-05 0)
(-0.00406153 -4.87439e-05 0)
(-0.00408697 -4.96549e-05 0)
(-0.00410779 -4.54881e-05 0)
(-0.00413193 -4.02723e-05 0)
(-0.0041484 -2.82353e-05 0)
(-0.00416921 -1.14668e-05 0)
(-0.00417839 9.82836e-06 0)
(-0.00419493 3.68582e-05 0)
(-0.00419767 5.89688e-05 0)
(-0.00420602 7.81663e-05 0)
(-0.00420458 9.68835e-05 0)
(-0.00420637 0.000110476 0)
(-0.00419971 0.000126813 0)
(-0.00419477 0.000137235 0)
(-0.00418209 0.000152108 0)
(-0.00417004 0.000161188 0)
(-0.00415001 0.000174859 0)
(-0.0041302 0.000182743 0)
(-0.00410168 0.000194206 0)
(-0.00407297 0.000199682 0)
(-0.00403419 0.000205752 0)
(-0.00399485 0.000205573 0)
(-0.00394345 0.000200296 0)
(-0.00389001 0.000185145 0)
(-0.00382603 0.000159076 0)
(-0.00375447 0.000115657 0)
(-0.00367892 5.82435e-05 0)
(-0.00360286 -1.90531e-05 0)
(-0.00352854 -9.45886e-05 0)
(-0.0034597 -0.000162931 0)
(-0.00338689 -0.000220992 0)
(-0.00330667 -0.0002564 0)
(-0.00321836 -0.000294534 0)
(-0.00312699 -0.00031164 0)
(-0.00302579 -0.000335599 0)
(-0.00292613 -0.00034218 0)
(-0.00281669 -0.000351879 0)
(-0.00271154 -0.000344794 0)
(-0.00259829 -0.000331492 0)
(-0.00249081 -0.000293718 0)
(-0.00237416 -0.000240199 0)
(-0.00225336 -0.000145497 0)
(-0.00213446 -4.96247e-05 0)
(-0.00198348 8.42675e-05 0)
(-0.0018394 0.000162366 0)
(-0.00167254 0.000230517 0)
(-0.0015174 0.000253444 0)
(-0.00135695 0.000269132 0)
(-0.00119263 0.000264225 0)
(-0.0010231 0.000224331 0)
(-0.00081529 0.000161578 0)
(-0.000677894 1.18139e-05 0)
(-0.000595161 -2.19183e-05 0)
(-0.000439394 -6.23592e-05 0)
(-0.000316546 -6.47076e-05 0)
(-0.000150547 -7.34657e-05 0)
(-2.34928e-05 -6.8697e-05 0)
(0.000136481 -6.37703e-05 0)
(0.00026589 -5.46097e-05 0)
(0.000423708 -4.94982e-05 0)
(0.000549919 -4.10764e-05 0)
(0.000701586 -3.78496e-05 0)
(0.000824119 -3.15596e-05 0)
(0.000968687 -3.01479e-05 0)
(0.00108671 -2.51199e-05 0)
(0.00122304 -2.48939e-05 0)
(0.00133599 -2.06602e-05 0)
(0.00146336 -2.11435e-05 0)
(0.0015708 -1.75194e-05 0)
(0.00168881 -1.8339e-05 0)
(0.0017903 -1.51299e-05 0)
(0.00189894 -1.60362e-05 0)
(0.00199392 -1.34554e-05 0)
(0.00209331 -1.39627e-05 0)
(0.00218132 -1.22395e-05 0)
(0.00227156 -1.21672e-05 0)
(0.00235248 -1.10864e-05 0)
(0.0024335 -1.07165e-05 0)
(0.00250728 -9.77837e-06 0)
(0.00257978 -9.44747e-06 0)
(0.00264612 -8.59361e-06 0)
(0.00271049 -8.29515e-06 0)
(0.00276961 -7.4857e-06 0)
(0.00282616 -7.24835e-06 0)
(0.00287837 -6.43677e-06 0)
(0.00292745 -6.37013e-06 0)
(0.00297321 -5.56773e-06 0)
(0.00301531 -5.35405e-06 0)
(0.00305474 -4.77792e-06 0)
(0.00309053 -4.5168e-06 0)
(0.00312371 -4.12791e-06 0)
(0.00315393 -3.75425e-06 0)
(0.00318136 -3.43269e-06 0)
(0.00320621 -3.09924e-06 0)
(0.00322838 -2.79098e-06 0)
(0.00324837 -2.48595e-06 0)
(0.00326576 -2.20259e-06 0)
(0.0032813 -1.9158e-06 0)
(0.00329438 -1.66832e-06 0)
(0.00330588 -1.39627e-06 0)
(0.00331508 -1.17993e-06 0)
(0.00332294 -8.57058e-07 0)
(0.00332872 -6.29987e-07 0)
(0.00333337 -2.96846e-07 0)
(0.00333618 -1.29316e-07 0)
(0.00333806 1.90503e-07 0)
(0.00333843 3.07461e-07 0)
(0.00333768 4.66821e-07 0)
(0.00333566 7.93005e-07 0)
(0.0033326 7.46685e-07 0)
(0.00332872 8.40027e-07 0)
(0.00332366 7.84985e-07 0)
(0.00331816 7.73773e-07 0)
(0.00331143 7.24351e-07 0)
(0.00330475 6.78349e-07 0)
(0.00329657 5.7782e-07 0)
(0.00328897 6.26887e-07 0)
(0.00327973 4.61729e-07 0)
(0.00327136 6.0564e-07 0)
(0.0032613 3.65047e-07 0)
(0.00325234 5.88961e-07 0)
(0.00324167 3.43696e-07 0)
(0.00323229 5.53575e-07 0)
(0.00322122 3.6584e-07 0)
(0.00321158 5.09168e-07 0)
(0.00320029 3.68697e-07 0)
(0.00319051 4.65003e-07 0)
(0.00317914 3.54631e-07 0)
(0.00316932 4.2267e-07 0)
(0.00315805 3.41994e-07 0)
(0.00314826 3.80447e-07 0)
(0.00313722 3.35973e-07 0)
(0.00312753 3.39922e-07 0)
(0.00311686 3.5034e-07 0)
(0.00310732 3.0984e-07 0)
(0.00309711 3.74739e-07 0)
(0.00308783 3.15272e-07 0)
(0.00307807 4.40098e-07 0)
(0.00306914 3.73773e-07 0)
(0.00305986 5.47294e-07 0)
(0.00305136 4.92094e-07 0)
(0.00304262 6.98051e-07 0)
(0.0030346 6.15561e-07 0)
(0.00302639 8.2654e-07 0)
(0.00301891 6.82522e-07 0)
(0.00301123 8.82211e-07 0)
(0.00300433 6.88065e-07 0)
(0.00299724 8.71556e-07 0)
(0.00299096 6.48707e-07 0)
(0.00298446 8.34659e-07 0)
(0.00297881 5.95861e-07 0)
(0.0029729 7.85561e-07 0)
(0.00296788 5.37779e-07 0)
(0.00296255 7.28318e-07 0)
(0.00295816 4.7303e-07 0)
(0.00295342 6.5232e-07 0)
(0.00294965 4.00053e-07 0)
(0.00294549 5.53385e-07 0)
(0.00294232 3.22883e-07 0)
(0.00293876 4.51946e-07 0)
(0.00293617 2.41756e-07 0)
(0.0029332 3.48024e-07 0)
(0.00293118 1.40586e-07 0)
(0.00292879 2.43239e-07 0)
(0.00292731 4.58125e-08 0)
(0.00292549 1.44223e-07 0)
(0.00292453 -4.38549e-08 0)
(0.00292329 5.03251e-08 0)
(0.0029228 -1.28771e-07 0)
(0.00292216 -3.10463e-08 0)
(0.00292207 -2.35191e-07 0)
(0.00292194 -8.82864e-08 0)
(0.00292239 -2.94599e-07 0)
(0.00292273 -1.36175e-07 0)
(0.0029236 -3.62467e-07 0)
(0.0029244 -1.8462e-07 0)
(0.00292574 -4.36436e-07 0)
(0.00292697 -2.85307e-07 0)
(0.00292867 -4.66911e-07 0)
(0.00293037 -3.52933e-07 0)
(0.00293241 -3.94169e-07 0)
(0.0029346 -3.58419e-07 0)
(0.00293699 -3.80981e-07 0)
(0.00293953 -3.65493e-07 0)
(0.00294226 -3.86723e-07 0)
(0.00294515 -3.94029e-07 0)
(0.0029482 -4.13117e-07 0)
(0.0029514 -4.23948e-07 0)
(0.00295477 -4.38751e-07 0)
(0.00295826 -4.49845e-07 0)
(0.00296193 -4.4652e-07 0)
(0.00296559 -5.1073e-07 0)
(0.00296971 -4.30475e-07 0)
(0.00297344 -5.36882e-07 0)
(0.00297792 -4.65544e-07 0)
(0.00298177 -5.7465e-07 0)
(0.00298655 -4.94695e-07 0)
(0.00299054 -6.00754e-07 0)
(0.00299555 -5.40144e-07 0)
(0.00299967 -6.26458e-07 0)
(0.00300488 -5.82025e-07 0)
(0.00300913 -6.60239e-07 0)
(0.00301452 -6.21779e-07 0)
(0.00301889 -6.95889e-07 0)
(0.00302442 -6.59821e-07 0)
(0.00302892 -7.3092e-07 0)
(0.00303459 -6.96303e-07 0)
(0.00303919 -7.6365e-07 0)
(0.00304498 -7.27311e-07 0)
(0.00304968 -7.8921e-07 0)
(0.00305557 -7.44812e-07 0)
(0.00306035 -8.04902e-07 0)
(0.00306632 -7.52629e-07 0)
(0.00307118 -8.12233e-07 0)
(0.0030772 -7.56373e-07 0)
(0.00308213 -8.11561e-07 0)
(0.00308818 -7.65394e-07 0)
(0.00309316 -8.11157e-07 0)
(0.00309925 -7.78093e-07 0)
(0.00310425 -8.17702e-07 0)
(0.00311035 -7.89704e-07 0)
(0.00311538 -8.21957e-07 0)
(0.00312147 -7.94654e-07 0)
(0.00312652 -8.20015e-07 0)
(0.00313259 -7.94013e-07 0)
(0.00313765 -8.13266e-07 0)
(0.0031437 -7.90345e-07 0)
(0.00314875 -8.04024e-07 0)
(0.00315476 -7.85325e-07 0)
(0.00315981 -7.92582e-07 0)
(0.00316576 -7.79033e-07 0)
(0.00317081 -7.83591e-07 0)
(0.00317669 -7.69944e-07 0)
(0.00318174 -7.73394e-07 0)
(0.00318753 -7.60126e-07 0)
(0.00319259 -7.60799e-07 0)
(0.00319828 -7.50978e-07 0)
(0.00320333 -7.49023e-07 0)
(0.00320891 -7.41569e-07 0)
(0.00321396 -7.37114e-07 0)
(0.00321943 -7.31544e-07 0)
(0.00322447 -7.24648e-07 0)
(0.00322983 -7.2125e-07 0)
(0.00323484 -7.1194e-07 0)
(0.00324008 -7.10573e-07 0)
(0.00324508 -6.98612e-07 0)
(0.0032502 -6.98018e-07 0)
(0.00325517 -6.90705e-07 0)
(0.00326017 -6.84893e-07 0)
(0.0032651 -6.79385e-07 0)
(0.00327 -6.72735e-07 0)
(0.00327486 -6.66889e-07 0)
(0.00327968 -6.60539e-07 0)
(0.00328446 -6.54472e-07 0)
(0.0032892 -6.48219e-07 0)
(0.0032939 -6.42123e-07 0)
(0.00329856 -6.3604e-07 0)
(0.00330318 -6.30072e-07 0)
(0.00330775 -6.24102e-07 0)
(0.00331229 -6.18186e-07 0)
(0.00331678 -6.12244e-07 0)
(0.00332123 -6.06331e-07 0)
(0.00332564 -6.00392e-07 0)
(0.00333 -5.94479e-07 0)
(0.00333433 -5.88559e-07 0)
(0.00333861 -5.82675e-07 0)
(0.00334286 -5.76812e-07 0)
(0.00334706 -5.70994e-07 0)
(0.00335121 -5.65216e-07 0)
(0.00335533 -5.59487e-07 0)
(0.00335941 -5.53803e-07 0)
(0.00336344 -5.48168e-07 0)
(0.00336743 -5.42576e-07 0)
(0.00337139 -5.3703e-07 0)
(0.0033753 -5.31523e-07 0)
(0.00337917 -5.26058e-07 0)
(0.003383 -5.20632e-07 0)
(0.00338679 -5.15245e-07 0)
(0.00339054 -5.09896e-07 0)
(0.00339425 -5.04586e-07 0)
(0.00339792 -4.99314e-07 0)
(0.00340155 -4.94083e-07 0)
(0.00340514 -4.88892e-07 0)
(0.00340869 -4.83742e-07 0)
(0.00341221 -4.78634e-07 0)
(0.00341568 -4.73569e-07 0)
(0.00341912 -4.68545e-07 0)
(0.00342252 -4.63564e-07 0)
(0.00342588 -4.58626e-07 0)
(0.0034292 -4.53731e-07 0)
(0.00343249 -4.48879e-07 0)
(0.00343574 -4.44071e-07 0)
(0.00343895 -4.39306e-07 0)
(0.00344213 -4.34587e-07 0)
(0.00344527 -4.29912e-07 0)
(0.00344838 -4.25283e-07 0)
(0.00345145 -4.20701e-07 0)
(0.00345449 -4.16165e-07 0)
(0.00345749 -4.11678e-07 0)
(0.00346046 -4.07238e-07 0)
(0.00346339 -4.02848e-07 0)
(0.00346629 -3.98509e-07 0)
(0.00346916 -3.94225e-07 0)
(0.003472 -3.90001e-07 0)
(0.0034748 -3.85863e-07 0)
(0.00347757 -3.81763e-07 0)
(0.00348031 -3.77693e-07 0)
(0.00348302 -3.7366e-07 0)
(0.0034857 -3.69669e-07 0)
(0.00348835 -3.65724e-07 0)
(0.00349096 -3.61828e-07 0)
(0.00349355 -3.5798e-07 0)
(0.00349611 -3.54182e-07 0)
(0.00349864 -3.50433e-07 0)
(0.00350114 -3.46732e-07 0)
(0.00350362 -3.43079e-07 0)
(0.00350607 -3.39473e-07 0)
(0.00350848 -3.35914e-07 0)
(0.00351088 -3.324e-07 0)
(0.00351324 -3.28932e-07 0)
(0.00351558 -3.25507e-07 0)
(0.0035179 -3.22124e-07 0)
(0.00352018 -3.18784e-07 0)
(0.00352245 -3.15484e-07 0)
(0.00352468 -3.12223e-07 0)
(0.0035269 -3.09001e-07 0)
(0.00352908 -3.05816e-07 0)
(0.00353125 -3.02667e-07 0)
(0.00353339 -2.99554e-07 0)
(0.00353551 -2.96475e-07 0)
(0.0035376 -2.93429e-07 0)
(0.00353967 -2.90415e-07 0)
(0.00354172 -2.87432e-07 0)
(0.00354374 -2.84479e-07 0)
(0.00354575 -2.81556e-07 0)
(0.00354773 -2.78662e-07 0)
(0.00354969 -2.75795e-07 0)
(0.00355163 -2.72956e-07 0)
(0.00355354 -2.70144e-07 0)
(0.00355544 -2.67357e-07 0)
(0.00355731 -2.64597e-07 0)
(0.00355916 -2.61861e-07 0)
(0.003561 -2.59151e-07 0)
(0.00356281 -2.56464e-07 0)
(0.0035646 -2.53803e-07 0)
(0.00356637 -2.51166e-07 0)
(0.00356813 -2.48552e-07 0)
(0.00356986 -2.45963e-07 0)
(0.00357158 -2.43397e-07 0)
(0.00357327 -2.40856e-07 0)
(0.00357495 -2.38337e-07 0)
(0.0035766 -2.35842e-07 0)
(0.00357824 -2.33369e-07 0)
(0.00357986 -2.30917e-07 0)
(0.00358146 -2.2848e-07 0)
(0.00358305 -2.26053e-07 0)
(0.00358462 -2.23624e-07 0)
(0.00358616 -2.21176e-07 0)
(0.0035877 -2.18772e-07 0)
(0.00358921 -2.1642e-07 0)
(0.00359071 -2.14111e-07 0)
(0.00359219 -2.11837e-07 0)
(0.00359365 -2.09591e-07 0)
(0.0035951 -2.0737e-07 0)
(0.00359653 -2.05173e-07 0)
(0.00359795 -2.02997e-07 0)
(0.00359934 -2.00841e-07 0)
(0.00360073 -1.98696e-07 0)
(0.00360209 -1.96568e-07 0)
(0.00360344 -1.94353e-07 0)
(0.00360478 -1.92305e-07 0)
(0.0036061 -1.8916e-07 0)
(0.0036074 -1.91443e-07 0)
(0.0036087 -1.82952e-07 0)
(0.00360997 -1.88371e-07 0)
(0.00361123 -1.77543e-07 0)
(0.00361248 -1.85673e-07 0)
(0.0036137 -1.72141e-07 0)
(0.00361492 -1.82717e-07 0)
(0.0036161 -1.6686e-07 0)
(0.00361731 -1.79429e-07 0)
(0.00361843 -1.60997e-07 0)
(0.00361965 -1.76242e-07 0)
(0.00362067 -1.53839e-07 0)
(0.00362194 -1.7358e-07 0)
(0.00362283 -1.43926e-07 0)
(0.00362419 -1.72646e-07 0)
(0.00362488 -1.28821e-07 0)
(0.00362642 -1.78528e-07 0)
(0.00362681 -1.07568e-07 0)
(0.00362869 -2.08485e-07 0)
(0.00362864 -8.51096e-08 0)
(0.00363152 -4.33809e-07 0)
(0.00363039 -9.46861e-07 0)
(1.08624e-06 -5.26611e-06 0)
(-1.30991e-05 1.24129e-05 0)
(-5.73181e-05 4.04869e-05 0)
(-0.000130439 6.40956e-05 0)
(-0.000228683 8.2617e-05 0)
(-0.000344073 9.24926e-05 0)
(-0.00047205 9.83357e-05 0)
(-0.000606813 9.999e-05 0)
(-0.000745366 9.9872e-05 0)
(-0.000885877 9.84161e-05 0)
(-0.0010258 9.67218e-05 0)
(-0.00116638 9.51655e-05 0)
(-0.0013057 9.39935e-05 0)
(-0.00144413 9.33358e-05 0)
(-0.00158139 9.30921e-05 0)
(-0.00171766 9.32334e-05 0)
(-0.00185296 9.37343e-05 0)
(-0.00198728 9.45345e-05 0)
(-0.00212074 9.53674e-05 0)
(-0.00225302 9.58733e-05 0)
(-0.00238385 9.64205e-05 0)
(-0.00251332 9.70599e-05 0)
(-0.00264146 9.76252e-05 0)
(-0.00276826 9.80078e-05 0)
(-0.00289371 9.8119e-05 0)
(-0.00301781 9.78955e-05 0)
(-0.00314058 9.72895e-05 0)
(-0.00326205 9.62692e-05 0)
(-0.0033823 9.48112e-05 0)
(-0.00350137 9.2917e-05 0)
(-0.00361936 9.05186e-05 0)
(-0.00373624 8.75222e-05 0)
(-0.00385199 8.33384e-05 0)
(-0.00396625 7.65823e-05 0)
(-0.004079 7.1841e-05 0)
(-0.00419279 7.00087e-05 0)
(-0.00430502 6.54815e-05 0)
(-0.00441685 6.04297e-05 0)
(-0.00452779 5.57362e-05 0)
(-0.00463785 5.15405e-05 0)
(-0.00474697 4.79828e-05 0)
(-0.00485514 4.50476e-05 0)
(-0.00496228 4.28581e-05 0)
(-0.00506844 4.13196e-05 0)
(-0.00517359 4.03721e-05 0)
(-0.00527775 3.98952e-05 0)
(-0.00538098 3.97963e-05 0)
(-0.00548332 4.0005e-05 0)
(-0.00558483 4.04823e-05 0)
(-0.00568559 4.12162e-05 0)
(-0.00578568 4.22277e-05 0)
(-0.00588516 4.35693e-05 0)
(-0.00598413 4.53095e-05 0)
(-0.00608264 4.76039e-05 0)
(-0.00618074 5.03847e-05 0)
(-0.00627835 5.40602e-05 0)
(-0.0063755 5.78902e-05 0)
(-0.00647192 6.14423e-05 0)
(-0.0065674 6.8444e-05 0)
(-0.00666135 7.52684e-05 0)
(-0.00675277 8.10915e-05 0)
(-0.00684398 8.56022e-05 0)
(-0.00693346 8.91228e-05 0)
(-0.00702318 9.14829e-05 0)
(-0.00711243 9.27275e-05 0)
(-0.00720168 9.31293e-05 0)
(-0.00729072 9.29333e-05 0)
(-0.00737955 9.22819e-05 0)
(-0.00746807 9.13451e-05 0)
(-0.00755627 9.01579e-05 0)
(-0.00764407 8.88376e-05 0)
(-0.00773148 8.73533e-05 0)
(-0.00781844 8.58042e-05 0)
(-0.00790496 8.41214e-05 0)
(-0.00799098 8.24003e-05 0)
(-0.00807655 8.05446e-05 0)
(-0.00816158 7.86735e-05 0)
(-0.00824611 7.66397e-05 0)
(-0.00833008 7.46461e-05 0)
(-0.00841354 7.24722e-05 0)
(-0.00849639 7.04048e-05 0)
(-0.00857871 6.81303e-05 0)
(-0.00866032 6.59143e-05 0)
(-0.00874131 6.31196e-05 0)
(-0.00882147 5.93222e-05 0)
(-0.00890108 5.66905e-05 0)
(-0.00898038 5.62502e-05 0)
(-0.00905915 5.46369e-05 0)
(-0.0091371 5.36538e-05 0)
(-0.00921416 5.33931e-05 0)
(-0.00928983 5.38307e-05 0)
(-0.00936415 5.37641e-05 0)
(-0.00943676 5.42202e-05 0)
(-0.00950784 5.75492e-05 0)
(-0.00957664 6.0126e-05 0)
(-0.00964435 6.26111e-05 0)
(-0.00970955 6.57285e-05 0)
(-0.0097731 6.78025e-05 0)
(-0.00983362 7.11913e-05 0)
(-0.00989246 7.31755e-05 0)
(-0.00994737 7.68082e-05 0)
(-0.0100004 7.85196e-05 0)
(-0.0100479 8.21935e-05 0)
(-0.0100941 8.27444e-05 0)
(-0.0101331 8.63399e-05 0)
(-0.0101706 8.49836e-05 0)
(-0.0101994 8.77715e-05 0)
(-0.0102248 8.19668e-05 0)
(-0.0102417 8.127e-05 0)
(-0.0102529 6.86017e-05 0)
(-0.0102544 5.98978e-05 0)
(-0.0102504 3.48651e-05 0)
(-0.0102373 1.81978e-05 0)
(-0.0102402 -1.74217e-05 0)
(-0.0102286 -3.63323e-05 0)
(-0.010218 -6.27065e-05 0)
(-0.0101906 -7.6399e-05 0)
(-0.0101616 -9.76587e-05 0)
(-0.0101155 -0.000109207 0)
(-0.0100673 -0.000127855 0)
(-0.010002 -0.000139164 0)
(-0.00993476 -0.000156481 0)
(-0.00984984 -0.000167748 0)
(-0.00976434 -0.000183747 0)
(-0.00965927 -0.000194418 0)
(-0.00955727 -0.000208138 0)
(-0.00943116 -0.000216833 0)
(-0.00931445 -0.000225912 0)
(-0.00916886 -0.000229068 0)
(-0.00903828 -0.000227102 0)
(-0.00887466 -0.000215077 0)
(-0.00872714 -0.000199587 0)
(-0.00854017 -0.000153664 0)
(-0.00836206 -0.000112231 0)
(-0.00813443 -4.31091e-05 0)
(-0.0078884 -7.56181e-06 0)
(-0.00762838 3.10141e-05 0)
(-0.00735943 3.03432e-05 0)
(-0.00708562 4.93096e-05 0)
(-0.00680195 4.25142e-05 0)
(-0.00651135 4.99664e-05 0)
(-0.0062088 4.17333e-05 0)
(-0.00589598 4.07721e-05 0)
(-0.00556838 3.05653e-05 0)
(-0.00522113 1.86968e-05 0)
(-0.00486713 -2.41849e-06 0)
(-0.00445564 -3.51263e-05 0)
(-0.00410441 -9.97412e-05 0)
(-0.00369203 -0.00015091 0)
(-0.00335624 -0.000241013 0)
(-0.00308999 -0.000277518 0)
(-0.00275078 -0.000313616 0)
(-0.00244006 -0.000318238 0)
(-0.00207345 -0.000334144 0)
(-0.00174939 -0.000335696 0)
(-0.00139357 -0.000353519 0)
(-0.00109122 -0.000368539 0)
(-0.000674174 -0.000411854 0)
(-0.000266132 -0.000399395 0)
(0.000159028 -0.000401481 0)
(0.000530487 -0.00037833 0)
(0.000932279 -0.000376207 0)
(0.00129133 -0.000356112 0)
(0.00168434 -0.000343885 0)
(0.00202827 -0.000321411 0)
(0.00240118 -0.000313611 0)
(0.00273467 -0.000297555 0)
(0.00309603 -0.000294207 0)
(0.00341897 -0.00027837 0)
(0.00376573 -0.000275142 0)
(0.00407654 -0.000259436 0)
(0.00440623 -0.000256116 0)
(0.00470355 -0.000240981 0)
(0.00501439 -0.000237267 0)
(0.00529706 -0.000223068 0)
(0.00558794 -0.000218504 0)
(0.00585499 -0.000206033 0)
(0.00612501 -0.000199977 0)
(0.00637546 -0.000189139 0)
(0.00662462 -0.000181999 0)
(0.00685722 -0.000172261 0)
(0.00708603 -0.000164665 0)
(0.00729993 -0.000155754 0)
(0.00750859 -0.00014811 0)
(0.00770368 -0.000139611 0)
(0.00789255 -0.000132341 0)
(0.00806896 -0.000124207 0)
(0.0082385 -0.000117342 0)
(0.00839669 -0.000109512 0)
(0.00854755 -0.000103132 0)
(0.00868809 -9.55382e-05 0)
(0.00882104 -8.98586e-05 0)
(0.00894465 -8.25118e-05 0)
(0.00906056 -7.73001e-05 0)
(0.00916824 -7.05421e-05 0)
(0.00926807 -6.5104e-05 0)
(0.00936027 -5.96029e-05 0)
(0.00944523 -5.42322e-05 0)
(0.00952309 -4.91739e-05 0)
(0.00959413 -4.41816e-05 0)
(0.00965846 -3.96293e-05 0)
(0.00971668 -3.50587e-05 0)
(0.00976855 -3.09472e-05 0)
(0.00981495 -2.67691e-05 0)
(0.00985543 -2.30976e-05 0)
(0.009891 -1.92762e-05 0)
(0.00992115 -1.60314e-05 0)
(0.00994691 -1.26933e-05 0)
(0.00996777 -9.96882e-06 0)
(0.00998466 -6.96468e-06 0)
(0.00999723 -4.72447e-06 0)
(0.0100063 -2.02232e-06 0)
(0.0100116 -4.33639e-08 0)
(0.0100138 2.0423e-06 0)
(0.0100125 4.39804e-06 0)
(0.0100078 6.28912e-06 0)
(0.0100008 8.13305e-06 0)
(0.00999082 1.00106e-05 0)
(0.00997893 1.14971e-05 0)
(0.00996442 1.31012e-05 0)
(0.00994856 1.42938e-05 0)
(0.00993027 1.54687e-05 0)
(0.00991109 1.64708e-05 0)
(0.00988962 1.73535e-05 0)
(0.0098677 1.82331e-05 0)
(0.00984361 1.88122e-05 0)
(0.00981964 1.95545e-05 0)
(0.00979336 1.98426e-05 0)
(0.0097678 2.04844e-05 0)
(0.00974003 2.04551e-05 0)
(0.0097133 2.10434e-05 0)
(0.0096845 2.0831e-05 0)
(0.00965699 2.12988e-05 0)
(0.00962757 2.09978e-05 0)
(0.00959962 2.12755e-05 0)
(0.00956996 2.09311e-05 0)
(0.00954187 2.10186e-05 0)
(0.00951232 2.06579e-05 0)
(0.00948432 2.05435e-05 0)
(0.00945525 2.01593e-05 0)
(0.00942762 1.98987e-05 0)
(0.00939923 1.95126e-05 0)
(0.0093722 1.90772e-05 0)
(0.00934462 1.87133e-05 0)
(0.0093184 1.80761e-05 0)
(0.00929183 1.77206e-05 0)
(0.00926658 1.69076e-05 0)
(0.00924114 1.65637e-05 0)
(0.009217 1.57011e-05 0)
(0.00919275 1.5363e-05 0)
(0.00916987 1.45015e-05 0)
(0.00914694 1.41737e-05 0)
(0.00912546 1.32867e-05 0)
(0.00910397 1.29746e-05 0)
(0.00908401 1.20655e-05 0)
(0.00906401 1.17855e-05 0)
(0.00904558 1.08577e-05 0)
(0.0090271 1.06102e-05 0)
(0.00901024 9.66482e-06 0)
(0.00899329 9.43961e-06 0)
(0.008978 8.48391e-06 0)
(0.00896261 8.29664e-06 0)
(0.0089489 7.3213e-06 0)
(0.00893506 7.19993e-06 0)
(0.00892293 6.18203e-06 0)
(0.00891066 6.11009e-06 0)
(0.00890008 5.06208e-06 0)
(0.00888937 5.03955e-06 0)
(0.00888032 4.01514e-06 0)
(0.00887116 3.98628e-06 0)
(0.00886359 2.98497e-06 0)
(0.00885595 2.95824e-06 0)
(0.00884983 1.98364e-06 0)
(0.00884367 1.96714e-06 0)
(0.00883894 1.01026e-06 0)
(0.00883424 1.04285e-06 0)
(0.00883088 9.57192e-09 0)
(0.00882757 1.93605e-07 0)
(0.00882554 -8.75883e-07 0)
(0.00882356 -6.76218e-07 0)
(0.00882276 -1.73117e-06 0)
(0.00882207 -1.63642e-06 0)
(0.00882241 -2.49725e-06 0)
(0.00882317 -2.399e-06 0)
(0.00882456 -3.22108e-06 0)
(0.00882643 -3.25983e-06 0)
(0.00882901 -3.98282e-06 0)
(0.00883199 -4.27438e-06 0)
(0.00883563 -4.63211e-06 0)
(0.00883966 -4.96887e-06 0)
(0.00884423 -5.31047e-06 0)
(0.00884927 -5.61115e-06 0)
(0.00885481 -5.92135e-06 0)
(0.0088608 -6.20477e-06 0)
(0.00886725 -6.50095e-06 0)
(0.00887407 -6.77853e-06 0)
(0.00888138 -6.99746e-06 0)
(0.0088889 -7.33706e-06 0)
(0.00889709 -7.45523e-06 0)
(0.00890519 -7.79471e-06 0)
(0.00891427 -7.82938e-06 0)
(0.00892295 -8.19571e-06 0)
(0.00893277 -8.21705e-06 0)
(0.00894197 -8.5688e-06 0)
(0.00895244 -8.50388e-06 0)
(0.00896215 -8.8876e-06 0)
(0.00897317 -8.7728e-06 0)
(0.00898336 -9.15347e-06 0)
(0.00899488 -9.02272e-06 0)
(0.00900551 -9.38932e-06 0)
(0.00901749 -9.24641e-06 0)
(0.00902853 -9.60332e-06 0)
(0.00904093 -9.44748e-06 0)
(0.00905235 -9.78756e-06 0)
(0.00906513 -9.63122e-06 0)
(0.00907689 -9.94499e-06 0)
(0.00909 -9.80597e-06 0)
(0.00910206 -1.0077e-05 0)
(0.00911544 -9.95633e-06 0)
(0.00912776 -1.01834e-05 0)
(0.00914137 -1.00772e-05 0)
(0.0091539 -1.0278e-05 0)
(0.00916771 -1.0156e-05 0)
(0.00918041 -1.03454e-05 0)
(0.00919436 -1.02024e-05 0)
(0.00920722 -1.03688e-05 0)
(0.00922128 -1.02256e-05 0)
(0.00923425 -1.03691e-05 0)
(0.00924839 -1.02354e-05 0)
(0.00926143 -1.03557e-05 0)
(0.00927561 -1.02323e-05 0)
(0.00928871 -1.03289e-05 0)
(0.0093029 -1.02143e-05 0)
(0.00931603 -1.0286e-05 0)
(0.00933021 -1.0181e-05 0)
(0.00934334 -1.02253e-05 0)
(0.00935748 -1.01335e-05 0)
(0.00937061 -1.0151e-05 0)
(0.00938466 -1.00716e-05 0)
(0.00939778 -1.00707e-05 0)
(0.00941172 -9.99354e-06 0)
(0.00942482 -9.9838e-06 0)
(0.00943861 -9.90104e-06 0)
(0.00945168 -9.87909e-06 0)
(0.00946532 -9.80001e-06 0)
(0.00947834 -9.76459e-06 0)
(0.00949181 -9.69005e-06 0)
(0.00950477 -9.64311e-06 0)
(0.00951804 -9.5717e-06 0)
(0.00953093 -9.51359e-06 0)
(0.009544 -9.44533e-06 0)
(0.0095568 -9.37634e-06 0)
(0.00956965 -9.31079e-06 0)
(0.00958236 -9.24294e-06 0)
(0.00959501 -9.1694e-06 0)
(0.00960757 -9.09953e-06 0)
(0.00962005 -9.02442e-06 0)
(0.00963244 -8.95087e-06 0)
(0.00964474 -8.87554e-06 0)
(0.00965695 -8.80091e-06 0)
(0.00966907 -8.72466e-06 0)
(0.00968109 -8.6488e-06 0)
(0.00969302 -8.57138e-06 0)
(0.00970486 -8.49448e-06 0)
(0.0097166 -8.41664e-06 0)
(0.00972824 -8.33921e-06 0)
(0.00973978 -8.26124e-06 0)
(0.00975123 -8.18347e-06 0)
(0.00976258 -8.10545e-06 0)
(0.00977383 -8.02754e-06 0)
(0.00978498 -7.94957e-06 0)
(0.00979603 -7.87173e-06 0)
(0.00980697 -7.79393e-06 0)
(0.00981782 -7.7163e-06 0)
(0.00982857 -7.63878e-06 0)
(0.00983922 -7.56148e-06 0)
(0.00984976 -7.48434e-06 0)
(0.00986021 -7.40747e-06 0)
(0.00987055 -7.33085e-06 0)
(0.0098808 -7.25453e-06 0)
(0.00989094 -7.17851e-06 0)
(0.00990098 -7.10283e-06 0)
(0.00991093 -7.0275e-06 0)
(0.00992077 -6.95254e-06 0)
(0.00993051 -6.87797e-06 0)
(0.00994016 -6.80381e-06 0)
(0.0099497 -6.73007e-06 0)
(0.00995915 -6.65676e-06 0)
(0.0099685 -6.58391e-06 0)
(0.00997774 -6.51152e-06 0)
(0.0099869 -6.43961e-06 0)
(0.00999595 -6.3682e-06 0)
(0.0100049 -6.2973e-06 0)
(0.0100138 -6.22693e-06 0)
(0.0100225 -6.15709e-06 0)
(0.0100312 -6.08781e-06 0)
(0.0100398 -6.0191e-06 0)
(0.0100483 -5.95097e-06 0)
(0.0100567 -5.88343e-06 0)
(0.010065 -5.81651e-06 0)
(0.0100732 -5.75021e-06 0)
(0.0100813 -5.68455e-06 0)
(0.0100893 -5.61954e-06 0)
(0.0100973 -5.55519e-06 0)
(0.0101051 -5.49151e-06 0)
(0.0101129 -5.42852e-06 0)
(0.0101206 -5.36621e-06 0)
(0.0101282 -5.30462e-06 0)
(0.0101357 -5.24373e-06 0)
(0.0101431 -5.18356e-06 0)
(0.0101505 -5.12411e-06 0)
(0.0101577 -5.06538e-06 0)
(0.0101649 -5.00737e-06 0)
(0.010172 -4.95008e-06 0)
(0.0101791 -4.89351e-06 0)
(0.010186 -4.83767e-06 0)
(0.0101929 -4.78254e-06 0)
(0.0101997 -4.72814e-06 0)
(0.0102064 -4.67444e-06 0)
(0.010213 -4.62145e-06 0)
(0.0102196 -4.56915e-06 0)
(0.0102261 -4.51753e-06 0)
(0.0102325 -4.46659e-06 0)
(0.0102389 -4.41632e-06 0)
(0.0102452 -4.3667e-06 0)
(0.0102514 -4.31771e-06 0)
(0.0102575 -4.26936e-06 0)
(0.0102636 -4.22161e-06 0)
(0.0102696 -4.17447e-06 0)
(0.0102756 -4.12791e-06 0)
(0.0102815 -4.08192e-06 0)
(0.0102873 -4.03648e-06 0)
(0.010293 -3.99159e-06 0)
(0.0102987 -3.94723e-06 0)
(0.0103044 -3.90338e-06 0)
(0.0103099 -3.86003e-06 0)
(0.0103154 -3.81717e-06 0)
(0.0103209 -3.77479e-06 0)
(0.0103263 -3.73288e-06 0)
(0.0103316 -3.69141e-06 0)
(0.0103369 -3.6504e-06 0)
(0.0103421 -3.60982e-06 0)
(0.0103472 -3.56966e-06 0)
(0.0103523 -3.52993e-06 0)
(0.0103574 -3.4906e-06 0)
(0.0103624 -3.45169e-06 0)
(0.0103673 -3.41317e-06 0)
(0.0103722 -3.37505e-06 0)
(0.010377 -3.33732e-06 0)
(0.0103818 -3.29997e-06 0)
(0.0103865 -3.26301e-06 0)
(0.0103911 -3.22643e-06 0)
(0.0103957 -3.19023e-06 0)
(0.0104003 -3.15441e-06 0)
(0.0104048 -3.11895e-06 0)
(0.0104093 -3.08387e-06 0)
(0.0104137 -3.04915e-06 0)
(0.0104181 -3.0148e-06 0)
(0.0104224 -2.98081e-06 0)
(0.0104266 -2.94718e-06 0)
(0.0104309 -2.91391e-06 0)
(0.010435 -2.88101e-06 0)
(0.0104392 -2.84851e-06 0)
(0.0104432 -2.81647e-06 0)
(0.0104473 -2.78474e-06 0)
(0.0104513 -2.75327e-06 0)
(0.0104552 -2.72207e-06 0)
(0.0104591 -2.69115e-06 0)
(0.010463 -2.66052e-06 0)
(0.0104668 -2.63018e-06 0)
(0.0104706 -2.60013e-06 0)
(0.0104743 -2.57034e-06 0)
(0.010478 -2.54081e-06 0)
(0.0104816 -2.5115e-06 0)
(0.0104852 -2.48241e-06 0)
(0.0104888 -2.45323e-06 0)
(0.0104923 -2.42464e-06 0)
(0.0104958 -2.39303e-06 0)
(0.0104992 -2.37778e-06 0)
(0.0105026 -2.33288e-06 0)
(0.010506 -2.32228e-06 0)
(0.0105093 -2.27411e-06 0)
(0.0105126 -2.26929e-06 0)
(0.0105158 -2.21593e-06 0)
(0.0105191 -2.21615e-06 0)
(0.0105222 -2.15688e-06 0)
(0.0105254 -2.15875e-06 0)
(0.0105284 -2.09898e-06 0)
(0.0105315 -2.09955e-06 0)
(0.0105344 -2.04087e-06 0)
(0.0105375 -2.03885e-06 0)
(0.0105402 -1.98223e-06 0)
(0.0105434 -1.97791e-06 0)
(0.0105458 -1.92812e-06 0)
(0.0105491 -1.92634e-06 0)
(0.0105511 -1.90217e-06 0)
(0.0105548 -1.92477e-06 0)
(0.0105561 -2.00691e-06 0)
(0.0105605 -2.22172e-06 0)
(0.0105606 -3.05461e-06 0)
(-4.42734e-06 5.87132e-06 0)
(-4.63225e-05 5.8946e-05 0)
(-0.000133609 0.000123838 0)
(-0.000262732 0.000181799 0)
(-0.000426128 0.000227261 0)
(-0.000613941 0.000256526 0)
(-0.000818812 0.000274889 0)
(-0.00103366 0.000283368 0)
(-0.00125393 0.000286727 0)
(-0.00147655 0.00028648 0)
(-0.00169889 0.000284853 0)
(-0.00192047 0.000281975 0)
(-0.00213985 0.000278722 0)
(-0.00235717 0.000275614 0)
(-0.00257221 0.000272593 0)
(-0.00278492 0.000269499 0)
(-0.00299531 0.000266152 0)
(-0.00320323 0.000263042 0)
(-0.00340825 0.000259343 0)
(-0.00361081 0.000254913 0)
(-0.00381163 0.000250322 0)
(-0.00401038 0.000245758 0)
(-0.00420718 0.000241329 0)
(-0.00440186 0.000237065 0)
(-0.00459439 0.000233091 0)
(-0.00478474 0.000229526 0)
(-0.0049729 0.000226494 0)
(-0.00515888 0.000224115 0)
(-0.00534269 0.000222424 0)
(-0.00552436 0.000221536 0)
(-0.00570391 0.000221291 0)
(-0.0058813 0.00022175 0)
(-0.0060567 0.000222364 0)
(-0.00623052 0.000222872 0)
(-0.00640331 0.000227707 0)
(-0.00657238 0.000230382 0)
(-0.00673814 0.000233553 0)
(-0.00690194 0.000236496 0)
(-0.00706362 0.000239025 0)
(-0.0072232 0.000241007 0)
(-0.0073807 0.000242416 0)
(-0.0075363 0.000243009 0)
(-0.00769004 0.000242972 0)
(-0.00784229 0.0002422 0)
(-0.00799309 0.000240834 0)
(-0.00814258 0.000238979 0)
(-0.00829073 0.000236764 0)
(-0.00843751 0.000234287 0)
(-0.00858287 0.00023162 0)
(-0.00872679 0.000228794 0)
(-0.00886923 0.000225822 0)
(-0.00901015 0.000222668 0)