# vtk DataFile Version 2.0
gauge_2
ASCII
DATASET POLYDATA
POINTS 43 double
0.2 0.0359992 0.005
0.2 0.0419991 0.005
0.2 0.047999 0.005
0.2 0.0607609 0.005
0.2 0.0735228 0.005
0.2 0.0862847 0.005
0.2 0.0990467 0.005
0.2 0.111809 0.005
0.2 0.124571 0.005
0.2 0.137332 0.005
0.2 0.150094 0.005
0.2 0.162856 0.005
0.2 0.175618 0.005
0.2 0.18838 0.005
0.2 0.201142 0.005
0.2 0.213904 0.005
0.2 0.226666 0.005
0.2 0.239428 0.005
0.2 0.25219 0.005
0.2 0.264952 0.005
0.2 0.277714 0.005
0.2 0.290476 0.005
0.2 0.303238 0.005
0.2 0.315999 0.005
0.2 0.328761 0.005
0.2 0.341523 0.005
0.2 0.354285 0.005
0.2 0.367047 0.005
0.2 0.379809 0.005
0.2 0.392571 0.005
0.2 0.405333 0.005
0.2 0.418095 0.005
0.2 0.430857 0.005
0.2 0.443619 0.005
0.2 0.456381 0.005
0.2 0.469143 0.005
0.2 0.481905 0.005
0.2 0.494666 0.005
0.2 0.507428 0.005
0.2 0.52019 0.005
0.2 0.532952 0.005
0.2 0.545714 0.005
0.2 0.558476 0.005
POINT_DATA 43
 FIELD attributes 1
alpha.water 1 43 float
1 1 1 1 0.999955 0.800023 0.300248 0.000180231 4.62019e-05 0.000346556 0.000621434 0.000463717 0.000142895 3.43827e-12 2.28499e-12 5.87216e-11 5.91196e-11 4.15075e-12 2.33032e-12 2.06265e-13 1.01319e-14 9.58026e-16 1.33068e-16 1.57785e-17 1.13312e-18 8.59454e-20 6.60818e-21 5.17411e-22 7.52137e-23 1.48768e-23 3.17826e-24 6.97733e-25 1.43775e-25 2.66068e-26 4.31076e-27 5.96688e-28 6.86908e-29 6.36303e-30 4.37723e-31 1.93769e-32 4.92693e-34 5.01161e-36 1.48291e-39
