/*--------------------------------*- C++ -*----------------------------------*\
| =========                 |                                                 |
| \\      /  F ield         | OpenFOAM: The Open Source CFD Toolbox           |
|  \\    /   O peration     | Version:  3.0.1                                 |
|   \\  /    A nd           | Web:      www.OpenFOAM.org                      |
|    \\/     M anipulation  |                                                 |
\*---------------------------------------------------------------------------*/
FoamFile
{
    version     2.0;
    format      ascii;
    class       volVectorField;
    location    "5e-05";
    object      U;
}
// * * * * * * * * * * * * * * * * * * * * * * * * * * * * * * * * * * * * * //

dimensions      [0 1 -1 0 0 0 0];

internalField   nonuniform List<vector> 
1000
(
(6.25334e-13 -7.91156e-13 0)
(4.64768e-13 -1.03171e-12 0)
(-2.91939e-14 -9.82376e-13 0)
(5.94973e-13 -1.01215e-12 0)
(7.53204e-14 -1.25008e-12 0)
(-9.47052e-13 -1.25038e-12 0)
(-4.91042e-13 -3.27556e-13 0)
(-1.06534e-28 -5.48554e-13 0)
(3.57886e-29 -6.02563e-13 0)
(8.79905e-13 -5.18776e-13 0)
(2.89604e-13 -9.40629e-13 0)
(2.77926e-13 -6.3672e-13 0)
(5.96724e-13 -1.15141e-12 0)
(2.69752e-13 -1.33387e-12 0)
(-1.13856e-12 -1.11842e-12 0)
(2.91939e-15 -6.54236e-13 0)
(8.68812e-13 -9.21361e-13 0)
(1.00018e-12 -9.30703e-13 0)
(1.97351e-13 -1.53706e-12 0)
(-2.07043e-12 -1.15345e-12 0)
(-1.7458e-13 -9.60481e-14 0)
(-3.8536e-14 -6.78467e-13 0)
(2.18955e-13 -3.62005e-14 0)
(-2.37055e-13 -7.37147e-13 0)
(-6.51609e-13 -8.78738e-14 0)
(-3.62005e-14 -3.79521e-15 0)
(-1.22031e-13 -8.75818e-16 0)
(2.92757e-12 8.46624e-15 0)
(2.49106e-11 -4.3207e-13 0)
(2.89798e-10 -4.2448e-13 0)
(1.84365e-09 -5.77748e-13 0)
(1.86566e-08 -1.30059e-12 0)
(1.0684e-07 -1.04689e-12 0)
(9.55081e-07 -1.05127e-12 0)
(4.91564e-06 -2.55476e-12 0)
(3.81318e-05 -1.32365e-12 0)
(0.000174698 -4.28304e-12 0)
(0.00114648 -9.45388e-12 0)
(0.00462106 -2.99642e-11 0)
(0.0247679 -1.39264e-10 0)
(0.0864714 -3.91751e-10 0)
(0.358994 -1.42618e-09 0)
(1.03355 -2.83317e-09 0)
(3.04172 -6.58223e-09 0)
(6.01685 -4.79812e-09 0)
(12.0591 -6.46709e-09 0)
(16.6017 7.7637e-09 0)
(21.6057 -9.16345e-11 0)
(22.6177 -3.71575e-09 0)
(20.6747 -4.82156e-09 0)
(17.6036 -1.75946e-10 0)
(17.0889 5.30954e-09 0)
(22.3584 -5.16324e-09 0)
(20.9419 -4.32113e-09 0)
(16.9217 -4.46645e-09 0)
(8.67314 -2.8022e-10 0)
(3.68665 3.91767e-10 0)
(1.13337 2.17552e-10 0)
(0.404603 9.02379e-11 0)
(0.0938817 2.33293e-11 0)
(0.0279751 4.35909e-12 0)
(0.0051464 1.90186e-13 0)
(0.00130573 -1.19574e-12 0)
(0.000198132 -2.9197e-12 0)
(4.37425e-05 -5.9275e-13 0)
(5.64493e-06 -3.17015e-12 0)
(1.10191e-06 -7.94203e-13 0)
(1.23766e-07 -6.37138e-13 0)
(2.16217e-08 -1.5599e-12 0)
(2.1519e-09 -1.22238e-13 0)
(3.37923e-10 3.86346e-13 0)
(3.03617e-11 2.39354e-13 0)
(7.534e-12 -1.08238e-12 0)
(1.48119e-12 1.52456e-13 0)
(1.27359e-13 -4.05467e-13 0)
(1.67991e-13 -9.4461e-13 0)
(1.35725e-12 -2.55658e-12 0)
(1.04182e-26 -1.31696e-12 0)
(4.41738e-29 -6.71112e-13 0)
(1.26209e-27 -5.09437e-13 0)
(4.44464e-31 -2.32078e-28 0)
(-1.31818e-28 -1.70381e-13 0)
(3.4008e-13 -6.75209e-13 0)
(-3.4008e-13 -6.75551e-13 0)
(2.55195e-27 -1.09877e-12 0)
(1.69699e-13 1.19506e-14 0)
(1.70381e-13 -1.84517e-12 0)
(-3.4008e-13 -6.75551e-13 0)
(-6.35182e-27 -1.50048e-12 0)
(-1.3552e-12 -1.18465e-12 0)
(-1.52695e-12 1.16774e-13 0)
(-3.39608e-27 -8.23055e-13 0)
(-4.93389e-13 -8.23055e-13 0)
(1.52695e-12 -1.21128e-12 0)
(2.01829e-12 -1.5855e-12 0)
(8.36324e-27 -1.5855e-12 0)
(1.11614e-26 -1.5855e-12 0)
(-1.69699e-13 -4.29729e-28 0)
(-1.28735e-29 -1.57304e-12 0)
(1.69699e-13 4.75122e-13 0)
(6.59783e-14 -6.71461e-15 0)
(-5.25491e-14 -2.93107e-13 0)
(1.34876e-13 -3.26096e-13 0)
(6.42267e-14 -2.68e-13 0)
(-3.24637e-13 -6.08986e-13 0)
(8.2794e-13 -3.76018e-13 0)
(9.44132e-13 -7.03574e-14 0)
(-5.33665e-13 -2.41142e-13 0)
(1.07434e-13 -2.54863e-13 0)
(3.1004e-13 -2.46397e-13 0)
(9.92594e-14 -7.6021e-13 0)
(-5.4943e-13 -4.03168e-13 0)
(-1.91512e-13 -7.73348e-13 0)
(2.43477e-13 -6.71169e-13 0)
(1.95599e-13 -6.34968e-13 0)
(3.74266e-13 -3.87404e-13 0)
(1.89761e-13 -6.34968e-13 0)
(-1.97351e-13 -5.64611e-13 0)
(-4.01125e-13 -1.14061e-12 0)
(8.43121e-13 -5.89426e-13 0)
(8.24437e-13 1.48889e-14 0)
(1.00427e-13 -4.70606e-13 0)
(4.64768e-13 -5.51766e-14 0)
(-4.05212e-13 -4.49295e-13 0)
(2.10196e-13 -1.2349e-13 0)
(5.45927e-13 -1.88593e-13 0)
(-2.76175e-13 -2.33552e-14 0)
(2.09963e-12 -1.64654e-13 0)
(2.40062e-11 -1.99103e-13 0)
(2.89509e-10 -2.70628e-13 0)
(1.84186e-09 -4.6506e-13 0)
(1.86555e-08 -6.82262e-13 0)
(1.06841e-07 -2.11072e-13 0)
(9.55077e-07 -4.63892e-13 0)
(4.91564e-06 -9.11143e-13 0)
(3.81318e-05 -6.97735e-14 0)
(0.000174698 -1.49882e-12 0)
(0.00114648 -9.31229e-12 0)
(0.00462106 -2.99864e-11 0)
(0.0247679 -1.41705e-10 0)
(0.0864714 -4.03364e-10 0)
(0.358994 -1.46709e-09 0)
(1.03355 -2.92233e-09 0)
(3.04172 -6.82474e-09 0)
(6.01685 -5.07726e-09 0)
(12.0591 -6.90743e-09 0)
(16.6017 7.66212e-09 0)
(21.6057 -2.35581e-10 0)
(22.6177 -3.93929e-09 0)
(20.6747 -4.96009e-09 0)
(17.6036 -2.72891e-10 0)
(17.0889 5.11887e-09 0)
(22.3584 -5.45415e-09 0)
(20.9419 -4.60217e-09 0)
(16.9217 -4.52887e-09 0)
(8.67314 -2.88879e-10 0)
(3.68665 4.18651e-10 0)
(1.13337 2.21467e-10 0)
(0.404603 9.6629e-11 0)
(0.0938817 2.27601e-11 0)
(0.0279751 6.9824e-12 0)
(0.0051464 1.24184e-12 0)
(0.00130573 8.34323e-13 0)
(0.000198132 -3.55616e-13 0)
(4.37425e-05 8.00349e-13 0)
(5.64493e-06 -8.49347e-13 0)
(1.10191e-06 2.24159e-13 0)
(1.23764e-07 2.96034e-13 0)
(2.16227e-08 -7.80716e-13 0)
(2.15593e-09 1.04482e-12 0)
(3.38723e-10 -3.283e-13 0)
(2.73198e-11 2.5296e-12 0)
(7.41586e-12 1.58431e-13 0)
(2.90263e-12 2.84424e-13 0)
(-2.13779e-12 -6.82892e-16 0)
(-3.98058e-12 1.76528e-13 0)
(4.7222e-13 -4.18271e-14 0)
(3.85834e-12 5.12169e-15 0)
(1.51602e-12 -1.70552e-13 0)
(1.34154e-12 -1.04844e-27 0)
(8.49176e-13 -1.70211e-13 0)
(-1.26574e-12 -6.45361e-27 0)
(-1.01034e-12 -1.70211e-13 0)
(-1.10321e-12 -1.69869e-13 0)
(1.54197e-12 -8.53615e-16 0)
(-1.48802e-12 -1.69699e-13 0)
(-1.44227e-12 -8.51907e-14 0)
(5.84897e-13 -1.69869e-13 0)
(-1.01956e-12 -1.17628e-13 0)
(1.97868e-12 -2.54377e-13 0)
(-9.01759e-13 2.15623e-13 0)
(-1.88e-12 1.79942e-13 0)
(-1.43305e-12 1.79942e-13 0)
(1.34871e-13 -3.7559e-15 0)
(1.29818e-12 -5.12169e-16 0)
(3.19014e-27 -2.52499e-13 0)
(3.17408e-12 -5.12169e-16 0)
(-1.0619e-13 -1.67138e-13 0)
(9.22245e-13 3.48075e-28 0)
(4.21583e-12 1.70723e-13 0)
(1.4597e-13 7.9787e-13 0)
(-2.49764e-28 9.07348e-13 0)
(-1.4597e-13 8.13051e-13 0)
(2.30017e-28 8.64725e-13 0)
(-1.16776e-14 6.89269e-13 0)
(-1.15024e-13 9.83544e-13 0)
(-2.02022e-13 1.86257e-13 0)
(-1.89177e-13 5.31038e-13 0)
(-1.05098e-13 5.60816e-13 0)
(-8.58302e-14 4.4258e-13 0)
(3.50327e-15 3.75142e-13 0)
(1.10353e-13 1.50641e-13 0)
(4.7119e-13 2.67417e-13 0)
(3.44489e-14 2.93107e-13 0)
(-4.93378e-13 4.57177e-13 0)
(3.50327e-15 3.5675e-13 0)
(4.93378e-13 3.43029e-13 0)
(8.58302e-14 3.57334e-13 0)
(-3.72689e-29 4.31486e-13 0)
(6.08986e-13 5.74829e-13 0)
(-1.75164e-15 -1.18527e-13 0)
(-2.27713e-14 1.99979e-13 0)
(-1.16776e-15 -1.58523e-13 0)
(-5.83295e-13 5.32335e-29 0)
(-1.15608e-13 2.21874e-14 0)
(-1.16776e-15 -2.74715e-13 0)
(2.05525e-13 -5.75121e-13 0)
(2.75065e-12 -3.89447e-13 0)
(2.43314e-11 -3.07412e-13 0)
(2.89439e-10 -4.31195e-13 0)
(1.84285e-09 -9.63984e-13 0)
(1.86571e-08 2.94859e-13 0)
(1.06841e-07 -1.68332e-12 0)
(9.55079e-07 -1.35985e-12 0)
(4.91564e-06 -1.22439e-12 0)
(3.81318e-05 -1.58611e-12 0)
(0.000174698 -8.39618e-13 0)
(0.00114648 -2.988e-12 0)
(0.00462106 -3.18741e-12 0)
(0.0247679 -1.27054e-11 0)
(0.0864714 -2.76208e-11 0)
(0.358994 -1.37521e-10 0)
(1.03355 -2.6886e-10 0)
(3.04172 -9.54786e-10 0)
(6.01685 -9.9606e-10 0)
(12.0591 -2.45542e-09 0)
(16.6017 1.49846e-10 0)
(21.6057 -2.20846e-09 0)
(22.6177 9.89941e-10 0)
(20.6747 -2.2385e-09 0)
(17.6036 -9.05396e-10 0)
(17.0889 -2.8385e-09 0)
(22.3584 -1.16665e-09 0)
(20.9419 -1.75627e-09 0)
(16.9217 5.62336e-10 0)
(8.67314 -5.0127e-11 0)
(3.68665 3.12907e-10 0)
(1.13337 2.42623e-11 0)
(0.404603 4.10465e-11 0)
(0.0938817 2.89662e-12 0)
(0.0279751 1.83265e-12 0)
(0.0051464 -1.02622e-12 0)
(0.00130573 -1.79857e-12 0)
(0.000198132 -1.3692e-13 0)
(4.37425e-05 -1.97253e-12 0)
(5.64493e-06 5.94799e-13 0)
(1.10191e-06 -1.57321e-12 0)
(1.23764e-07 -7.67058e-13 0)
(2.16231e-08 -3.92663e-15 0)
(2.15275e-09 -7.7696e-13 0)
(3.40733e-10 -1.8252e-12 0)
(3.12959e-11 2.73669e-13 0)
(3.18569e-12 -2.09682e-12 0)
(1.17218e-12 -1.85542e-12 0)
(2.04868e-15 -2.36776e-12 0)
(-2.04868e-15 1.34325e-12 0)
(9.96339e-13 -6.6599e-13 0)
(-3.94165e-26 -1.64253e-12 0)
(4.74036e-27 -4.49155e-12 0)
(1.87613e-27 -1.64423e-12 0)
(-1.7004e-13 -4.41865e-12 0)
(1.69699e-13 -2.7372e-12 0)
(-1.69699e-13 -2.53899e-12 0)
(1.7004e-13 -4.12586e-12 0)
(2.25892e-26 -2.28137e-12 0)
(-3.41446e-16 -2.82683e-12 0)
(-1.69699e-13 -2.77203e-12 0)
(-6.41918e-14 -4.5764e-12 0)
(-1.57065e-13 -4.7939e-12 0)
(-7.70985e-13 -2.80669e-12 0)
(-8.28689e-13 -3.53379e-12 0)
(1.4253e-26 -8.85711e-13 0)
(-8.60102e-13 7.49644e-13 0)
(1.16604e-12 6.15968e-13 0)
(1.68845e-12 1.57065e-12 0)
(-1.66626e-13 1.41461e-12 0)
(1.66626e-13 6.5404e-13 0)
(8.08245e-29 -2.56255e-13 0)
(6.78111e-13 1.57304e-12 0)
(3.41446e-13 -3.8976e-13 0)
(2.26545e-13 1.14469e-28 0)
(1.41883e-13 1.27578e-13 0)
(3.21133e-14 1.88736e-28 0)
(-9.88313e-28 2.02606e-13 0)
(-4.00541e-13 1.0792e-28 0)
(3.72795e-30 5.69282e-14 0)
(-4.01462e-31 6.56864e-14 0)
(-3.30704e-29 1.12105e-13 0)
(-4.30355e-29 1.50057e-13 0)
(1.12689e-13 1.76623e-13 0)
(-6.32925e-13 2.79094e-13 0)
(-8.10424e-13 1.12397e-13 0)
(2.19538e-13 2.80262e-14 0)
(4.21561e-13 -2.34719e-13 0)
(5.12062e-13 -1.36044e-13 0)
(1.76331e-13 2.47857e-13 0)
(8.75818e-14 4.37909e-14 0)
(-2.53987e-13 -1.81002e-14 0)
(1.67573e-13 -1.4597e-13 0)
(9.92594e-14 -1.55766e-29 0)
(-2.28297e-13 -3.00698e-13 0)
(1.29037e-13 -6.20687e-31 0)
(-2.01112e-30 -1.86549e-13 0)
(-2.56516e-32 -3.21133e-15 0)
(7.35687e-14 -7.50284e-14 0)
(-9.10851e-13 -1.21155e-13 0)
(-5.55853e-13 -3.42737e-13 0)
(2.46397e-12 -5.59064e-13 0)
(2.40038e-11 -9.87047e-13 0)
(2.88176e-10 -1.20396e-12 0)
(1.84323e-09 -1.59428e-12 0)
(1.86543e-08 -7.02114e-13 0)
(1.06838e-07 -2.51944e-12 0)
(9.55078e-07 -2.68905e-12 0)
(4.91564e-06 -2.988e-12 0)
(3.81318e-05 -4.16422e-12 0)
(0.000174698 -3.27352e-12 0)
(0.00114648 -3.12083e-12 0)
(0.00462106 -3.18799e-12 0)
(0.0247679 -9.50604e-12 0)
(0.0864714 -1.63261e-11 0)
(0.358994 -1.00466e-10 0)
(1.03355 -1.88995e-10 0)
(3.04172 -7.453e-10 0)
(6.01685 -7.63257e-10 0)
(12.0591 -2.11935e-09 0)
(16.6017 2.24531e-10 0)
(21.6057 -2.11312e-09 0)
(22.6177 1.22774e-09 0)
(20.6747 -2.06644e-09 0)
(17.6036 -8.12625e-10 0)
(17.0889 -2.75379e-09 0)
(22.3584 -9.23333e-10 0)
(20.9419 -1.53555e-09 0)
(16.9217 6.70031e-10 0)
(8.67314 -4.0781e-11 0)
(3.68665 3.034e-10 0)
(1.13337 1.95865e-11 0)
(0.404603 3.76033e-11 0)
(0.0938817 1.22319e-12 0)
(0.0279751 -3.32913e-13 0)
(0.0051464 -3.94813e-12 0)
(0.00130573 -4.63718e-12 0)
(0.000198132 -4.3898e-12 0)
(4.37425e-05 -4.42633e-12 0)
(5.64493e-06 -2.38619e-12 0)
(1.10191e-06 -3.14642e-12 0)
(1.23767e-07 -2.27557e-12 0)
(2.16227e-08 -1.44312e-12 0)
(2.15227e-09 -1.66421e-12 0)
(3.40918e-10 -8.19129e-13 0)
(2.70176e-11 -8.72736e-13 0)
(3.1174e-12 -1.67479e-13 0)
(2.18389e-12 -2.35922e-12 0)
(4.25715e-12 -1.70023e-12 0)
(-6.40552e-13 -3.53635e-12 0)
(-5.24427e-12 -2.72866e-12 0)
(-3.90546e-12 -4.67849e-12 0)
(1.64133e-12 -2.83178e-12 0)
(1.43954e-12 -2.81625e-12 0)
(-1.19506e-12 -1.5686e-12 0)
(2.43553e-12 -2.49938e-13 0)
(-3.78937e-12 -1.31457e-13 0)
(-5.77385e-13 -2.287e-12 0)
(3.8638e-12 -6.98257e-14 0)
(-2.30988e-12 -5.6919e-13 0)
(-4.70342e-12 -2.15077e-12 0)
(-3.40183e-12 -1.77893e-12 0)
(2.30817e-12 -3.52936e-12 0)
(4.363e-12 -4.08489e-12 0)
(3.01531e-12 -3.75044e-12 0)
(6.43079e-12 -1.82861e-12 0)
(1.66045e-12 -3.41514e-12 0)
(1.64235e-12 -8.43371e-13 0)
(2.53455e-12 -2.14155e-12 0)
(-1.66933e-12 -7.14134e-13 0)
(1.68674e-13 -2.80156e-13 0)
(1.52456e-12 -7.32401e-14 0)
(6.81526e-13 -2.75547e-12 0)
(3.40422e-13 6.68722e-13 0)
(4.97465e-13 -1.24773e-42 0)
(-2.38223e-13 6.39347e-14 0)
(5.66363e-14 -6.87489e-32 0)
(-1.10937e-13 -4.26232e-14 0)
(-1.86841e-14 7.73981e-30 0)
(-8.40786e-14 3.09456e-14 0)
(-1.02179e-13 -7.18221e-29 0)
(-1.08852e-50 3.73632e-35 0)
(1.16776e-15 1.48574e-32 0)
(2.90772e-13 8.75818e-16 0)
(-3.50911e-13 2.68584e-14 0)
(-2.64497e-13 3.09456e-13 0)
(-4.01709e-13 3.31643e-13 0)
(-2.07209e-14 2.60118e-13 2.13188e-33)
(4.23597e-13 7.06493e-14 0)
(3.25221e-13 1.21739e-13 0)
(2.15451e-13 8.75818e-16 0)
(-2.18371e-13 8.40786e-14 0)
(0 0 0)
(2.18955e-13 1.09477e-13 0)
(-2.17787e-13 6.53944e-14 0)
(1.2992e-13 1.69331e-49 0)
(-1.3751e-13 -5.89718e-14 0)
(-1.6407e-13 -8.6998e-14 0)
(-4.1689e-13 -2.20998e-13 0)
(-5.32498e-13 -4.00541e-13 0)
(-6.36428e-13 -3.45072e-13 0)
(1.64537e-12 -5.2228e-13 0)
(2.30848e-11 -5.28994e-13 0)
(2.88172e-10 -9.04428e-13 0)
(1.84391e-09 -3.69011e-13 0)
(1.86553e-08 -4.31195e-13 2.13188e-33)
(1.06837e-07 5.55561e-13 0)
(9.55078e-07 -8.39034e-13 0)
(4.91564e-06 -6.39347e-14 0)
(3.81318e-05 -1.1625e-12 0)
(0.000174698 -2.30924e-13 -2.13188e-33)
(0.00114648 -3.91192e-14 0)
(0.00462106 -4.40829e-13 0)
(0.0247679 1.00538e-12 2.13183e-33)
(0.0864714 -1.84977e-12 0)
(0.358994 -5.13302e-12 0)
(1.03355 -1.42974e-11 0)
(3.04172 -4.37322e-11 -2.12458e-33)
(6.01685 -5.70924e-11 0)
(12.0591 -1.18058e-10 0)
(16.6017 4.12243e-11 0)
(21.6057 8.33662e-11 0)
(22.6177 5.09695e-10 0)
(20.6747 5.55421e-10 0)
(17.6036 8.3267e-10 0)
(17.0889 3.22145e-10 0)
(22.3584 9.81268e-11 0)
(20.9419 -1.16131e-10 0)
(16.9217 -7.17802e-11 0)
(8.67314 -4.58214e-11 -1.07709e-33)
(3.68665 -3.09977e-12 1.07014e-33)
(1.13337 -5.61464e-12 0)
(0.404603 -1.91388e-13 0)
(0.0938817 -2.13096e-12 -1.06608e-33)
(0.0279751 -1.12455e-13 0)
(0.0051464 -2.09715e-12 0)
(0.00130573 -1.39925e-12 0)
(0.000198132 -1.817e-12 0)
(4.37425e-05 -1.57014e-12 0)
(5.64493e-06 -3.90273e-13 0)
(1.10191e-06 -1.4298e-12 0)
(1.23767e-07 -3.76615e-13 0)
(2.16244e-08 -8.67273e-13 0)
(2.15403e-09 3.76786e-13 0)
(3.42314e-10 -5.42899e-14 0)
(3.22646e-11 9.5878e-13 1.06594e-33)
(4.85877e-13 3.43614e-12 0)
(-1.73965e-12 1.19506e-15 0)
(-2.36179e-12 2.83742e-12 0)
(-1.93533e-12 -2.09016e-12 0)
(-1.49859e-12 1.45234e-12 0)
(-1.13715e-13 -1.36152e-12 0)
(3.64222e-12 1.26557e-12 0)
(2.28221e-12 -2.43297e-12 0)
(5.03904e-12 2.04116e-12 0)
(2.43453e-12 -2.59499e-14 0)
(-3.55754e-12 2.09784e-12 0)
(2.8786e-13 3.55923e-12 0)
(3.19694e-12 3.29342e-12 0)
(-3.78801e-12 2.75069e-12 0)
(-2.5738e-12 2.91219e-12 0)
(-2.88523e-12 5.191e-12 0)
(-4.59926e-12 6.2809e-12 0)
(-1.25585e-12 3.99936e-12 0)
(3.65653e-12 2.07667e-12 0)
(5.26865e-13 2.44817e-12 -1.06594e-33)
(1.12881e-12 -2.31159e-12 0)
(3.79553e-12 1.14589e-12 -1.06594e-33)
(1.82126e-12 -4.5566e-13 0)
(3.72175e-12 -1.24361e-27 0)
(1.20054e-12 9.26172e-13 0)
(-4.90556e-12 -3.36987e-28 0)
(2.20303e-12 -2.3389e-14 0)
(6.9392e-12 -9.09953e-14 0)
(4.97465e-13 4.01895e-42 0)
(-2.38223e-13 -1.29621e-13 0)
(5.66363e-14 -1.61853e-31 0)
(-1.10937e-13 -9.80917e-14 0)
(-1.86841e-14 -8.91875e-30 0)
(-8.40786e-14 -5.10894e-14 0)
(-1.02179e-13 1.75999e-29 0)
(0 0 0)
(1.16776e-15 -3.12109e-139 0)
(2.90772e-13 1.61845e-120 0)
(-2.8902e-13 1.15982e-30 0)
(-1.75164e-15 3.24053e-14 0)
(-1.16776e-15 1.28745e-13 0)
(2.91939e-13 2.37055e-13 -2.13188e-33)
(1.25945e-28 1.92972e-13 0)
(-2.8902e-13 2.48149e-14 0)
(2.15451e-13 1.09529e-46 0)
(-2.18371e-13 1.96769e-64 0)
(0 0 0)
(2.18955e-13 -8.11362e-33 0)
(-2.17787e-13 3.4432e-33 0)
(1.7458e-13 5.83879e-16 0)
(-4.67103e-13 -6.90246e-30 0)
(-3.53247e-13 -1.78083e-14 0)
(-6.73212e-13 8.26189e-14 0)
(-9.59313e-13 1.55312e-13 0)
(-7.07661e-13 3.73099e-13 0)
(2.16619e-12 5.73369e-13 0)
(2.30188e-11 7.65465e-13 0)
(2.88441e-10 6.83722e-13 0)
(1.84424e-09 4.95421e-13 0)
(1.86561e-08 -5.75413e-13 -2.13188e-33)
(1.06837e-07 6.31173e-13 0)
(9.55077e-07 -1.81294e-13 0)
(4.91564e-06 1.10266e-12 0)
(3.81318e-05 8.63557e-13 0)
(0.000174698 -1.19403e-13 2.13188e-33)
(0.00114648 9.60481e-13 0)
(0.00462106 1.16797e-14 0)
(0.0247679 1.5969e-12 -2.13183e-33)
(0.0864714 -1.32379e-13 0)
(0.358994 1.65656e-12 0)
(1.03355 2.25135e-12 0)
(3.04172 1.3166e-11 2.12458e-33)
(6.01685 2.85617e-11 0)
(12.0591 9.85403e-11 0)
(16.6017 2.10279e-10 0)
(21.6057 4.2346e-10 0)
(22.6177 9.57575e-10 0)
(20.6747 1.06254e-09 0)
(17.6036 1.46589e-09 0)
(17.0889 8.8638e-10 0)
(22.3584 3.40169e-10 0)
(20.9419 -4.26291e-11 0)
(16.9217 -2.97224e-10 0)
(8.67314 -1.11036e-10 1.07709e-33)
(3.68665 -6.42615e-11 -1.07014e-33)
(1.13337 -1.39971e-11 0)
(0.404603 -6.18287e-12 0)
(0.0938817 1.32068e-12 1.06608e-33)
(0.0279751 1.45013e-12 0)
(0.0051464 1.29988e-12 0)
(0.00130573 9.2583e-13 0)
(0.000198132 1.41e-12 0)
(4.37425e-05 1.45797e-13 0)
(5.64493e-06 5.81994e-13 0)
(1.10191e-06 -2.45158e-13 0)
(1.23768e-07 8.77174e-13 0)
(2.16239e-08 -5.18998e-14 0)
(2.15419e-09 -4.51221e-13 0)
(3.41938e-10 -1.65601e-14 0)
(3.37728e-11 -1.30125e-12 -1.06594e-33)
(1.45866e-12 4.68976e-13 0)
(6.8494e-13 6.38333e-13 0)
(2.17501e-13 1.57594e-12 0)
(-3.22735e-12 4.03913e-12 0)
(-3.67908e-12 1.07726e-12 0)
(-4.25339e-12 4.47431e-12 0)
(-4.83146e-13 6.60868e-13 0)
(3.22905e-12 2.69111e-12 0)
(3.59201e-12 -7.83789e-13 0)
(2.73976e-12 -2.55197e-12 0)
(3.11501e-12 -5.9736e-13 0)
(1.64679e-12 3.67737e-13 0)
(2.5786e-12 -3.48172e-12 0)
(-2.92892e-12 -1.32327e-12 0)
(8.63858e-14 -8.60444e-13 0)
(3.09726e-12 1.06668e-12 0)
(-1.48188e-13 1.50834e-12 0)
(-3.57835e-12 4.1612e-12 0)
(-1.30774e-13 2.0666e-12 0)
(-2.15316e-12 1.45507e-12 1.06594e-33)
(-9.12002e-13 5.0312e-13 0)
(5.24222e-12 5.12852e-13 1.06594e-33)
(5.78751e-13 6.4943e-13 0)
(9.02441e-13 3.61591e-13 0)
(3.20927e-28 1.16092e-13 0)
(-6.42943e-30 1.56382e-13 0)
(1.7004e-13 2.69418e-12 0)
(3.40763e-13 -8.33469e-13 0)
(5.80695e-29 -3.6524e-28 0)
(2.58983e-30 -1.75748e-13 0)
(3.3865e-14 -3.85323e-28 0)
(-8.05753e-14 -1.85673e-13 0)
(4.67103e-14 -1.31573e-28 0)
(1.10719e-29 -3.09456e-14 0)
(1.1616e-44 -1.56227e-28 0)
(4.4217e-44 -1.70022e-28 0)
(1.16776e-15 -1.25123e-28 0)
(2.65665e-13 -5.83879e-16 0)
(-2.63913e-13 -1.25534e-14 0)
(-1.75164e-15 -5.95556e-14 0)
(-1.16776e-15 -4.43965e-29 0)
(-9.56698e-30 -1.08194e-28 0)
(-3.42039e-29 -4.43748e-14 0)
(2.91939e-13 -3.24637e-13 0)
(-7.2401e-14 -4.37909e-14 0)
(-2.19538e-13 5.83879e-16 0)
(1.16776e-15 -6.21267e-32 0)
(2.77926e-13 -1.08601e-13 0)
(-2.76175e-13 2.9661e-13 0)
(-1.75164e-15 2.91939e-16 0)
(-1.16776e-15 2.45521e-13 0)
(-4.22347e-29 1.08018e-13 0)
(-2.76294e-28 2.13408e-13 0)
(1.75164e-15 3.92367e-13 0)
(3.35146e-13 7.68385e-13 0)
(2.06868e-12 9.67779e-13 0)
(2.35519e-11 1.22235e-12 0)
(2.87585e-10 1.40686e-12 0)
(1.8416e-09 1.3654e-12 0)
(1.86552e-08 1.0466e-12 0)
(1.06838e-07 1.45824e-12 0)
(9.55079e-07 3.10215e-12 0)
(4.91564e-06 2.42543e-12 0)
(3.81318e-05 4.27779e-12 0)
(0.000174698 3.53918e-12 0)
(0.00114648 3.90206e-12 0)
(0.00462106 2.5933e-12 0)
(0.0247679 5.19956e-12 0)
(0.0864714 4.64136e-12 0)
(0.358994 4.78952e-11 0)
(1.03355 8.54722e-11 0)
(3.04172 4.61576e-10 0)
(6.01685 6.95275e-10 0)
(12.0591 2.3767e-09 0)
(16.6017 2.94832e-09 0)
(21.6057 6.98452e-09 0)
(22.6177 9.82527e-09 0)
(20.6747 1.11066e-08 0)
(17.6036 1.25675e-08 0)
(17.0889 7.59833e-09 0)
(22.3584 2.92982e-09 0)
(20.9419 -5.50894e-10 0)
(16.9217 -4.34055e-09 0)
(8.67314 -1.65365e-09 0)
(3.68665 -1.09458e-09 0)
(1.13337 -2.58708e-10 0)
(0.404603 -1.22479e-10 0)
(0.0938817 -2.18852e-11 0)
(0.0279751 -4.91652e-12 0)
(0.0051464 3.01069e-12 0)
(0.00130573 4.57179e-12 0)
(0.000198132 5.07064e-12 0)
(4.37425e-05 4.92689e-12 0)
(5.64493e-06 3.01445e-12 0)
(1.10191e-06 4.06662e-12 0)
(1.23768e-07 2.61957e-12 0)
(2.16217e-08 1.89759e-12 0)
(2.15407e-09 1.25874e-12 0)
(3.40767e-10 1.17389e-12 0)
(3.34368e-11 1.00095e-12 0)
(4.10281e-12 -1.19165e-13 0)
(2.80669e-13 1.92985e-12 0)
(4.37973e-12 7.85325e-15 0)
(-2.89136e-12 1.95444e-12 0)
(-5.04998e-13 1.63587e-12 0)
(-1.00897e-12 4.34985e-12 0)
(2.01453e-13 3.73473e-12 0)
(-4.59586e-13 4.64588e-12 0)
(-5.55532e-12 2.16169e-12 0)
(3.12799e-12 2.7524e-12 0)
(1.85473e-12 8.71199e-13 0)
(-5.35933e-12 1.09553e-12 0)
(3.55104e-14 8.04105e-14 0)
(1.05848e-12 -9.1166e-14 0)
(2.2911e-12 1.63689e-12 0)
(1.76015e-12 -9.40683e-14 0)
(1.3849e-12 -1.38286e-14 0)
(1.6526e-13 -8.502e-14 0)
(-1.91312e-12 1.501e-12 0)
(-2.35632e-12 -5.23437e-13 0)
(-8.85028e-13 2.57587e-12 0)
(4.16564e-12 -4.85536e-13 0)
(1.6246e-12 5.34363e-13 0)
(2.49119e-12 3.58518e-15 0)
(1.03526e-12 8.502e-14 0)
(1.36578e-15 8.79223e-14 0)
(3.4008e-13 1.69869e-13 0)
(1.7004e-13 2.55743e-13 0)
(1.4597e-13 -1.08456e-12 0)
(1.02655e-28 -1.04135e-12 0)
(-1.4597e-13 -1.05069e-12 0)
(2.84752e-28 -7.67217e-13 0)
(-1.1682e-28 -5.59648e-13 0)
(-3.24903e-28 -1.12981e-12 0)
(-2.61339e-30 -1.01099e-12 0)
(3.99237e-28 -1.10003e-12 0)
(5.30581e-28 -8.87496e-13 0)
(2.38789e-28 -6.95984e-13 0)
(-1.15608e-13 -8.03709e-13 0)
(-1.16776e-15 -7.91156e-13 0)
(1.16776e-13 -8.50128e-13 0)
(-8.93335e-14 -1.01858e-12 0)
(-4.93378e-13 -8.08088e-13 0)
(3.50327e-15 -4.40537e-13 0)
(4.93378e-13 -2.9048e-13 0)
(8.58302e-14 -4.23896e-13 0)
(1.21999e-30 -2.85517e-13 0)
(6.08986e-13 -5.74537e-13 0)
(-1.75164e-15 9.42964e-14 0)
(-2.27713e-14 -2.11072e-13 0)
(-1.16776e-15 1.87717e-13 0)
(-5.83295e-13 5.7841e-29 0)
(-1.15608e-13 4.817e-14 0)
(-1.16776e-15 1.29329e-13 0)
(1.80419e-13 1.21447e-13 0)
(3.05894e-12 -8.49544e-14 0)
(2.4134e-11 -1.75164e-14 0)
(2.88764e-10 2.37931e-13 0)
(1.8434e-09 6.72628e-13 0)
(1.86566e-08 3.67552e-13 0)
(1.06841e-07 5.05639e-13 0)
(9.55079e-07 2.28443e-12 0)
(4.91564e-06 -7.92324e-13 0)
(3.81318e-05 2.57753e-12 0)
(0.000174698 5.80376e-13 0)
(0.00114648 1.57676e-12 0)
(0.00462106 1.76069e-12 0)
(0.0247679 2.3765e-12 0)
(0.0864714 6.72053e-12 0)
(0.358994 5.38965e-11 0)
(1.03355 1.15466e-10 0)
(3.04172 5.70325e-10 0)
(6.01685 1.02504e-09 0)
(12.0591 3.14385e-09 0)
(16.6017 4.58066e-09 0)
(21.6057 9.35148e-09 0)
(22.6177 1.30079e-08 0)
(20.6747 1.32389e-08 0)
(17.6036 1.33883e-08 0)
(17.0889 7.79233e-09 0)
(22.3584 3.76105e-09 0)
(20.9419 -4.77528e-10 0)
(16.9217 -5.47825e-09 0)
(8.67314 -2.39002e-09 0)
(3.68665 -1.49549e-09 0)
(1.13337 -3.95076e-10 0)
(0.404603 -1.80803e-10 0)
(0.0938817 -3.69801e-11 0)
(0.0279751 -1.48719e-11 0)
(0.0051464 -5.05844e-13 0)
(0.00130573 6.90405e-13 0)
(0.000198132 9.17294e-13 0)
(4.37425e-05 2.53336e-12 0)
(5.64493e-06 3.26422e-13 0)
(1.10191e-06 2.30032e-12 0)
(1.23764e-07 6.95525e-13 0)
(2.16215e-08 2.25013e-13 0)
(2.15241e-09 6.98086e-13 0)
(3.41376e-10 9.46147e-13 0)
(3.13505e-11 -3.86858e-13 0)
(3.18808e-12 -1.98909e-12 0)
(1.21964e-12 1.64287e-12 0)
(2.04868e-15 -4.29027e-13 0)
(-2.04868e-15 -1.67735e-12 0)
(9.96339e-13 -6.81355e-13 0)
(4.02342e-27 -1.12284e-12 0)
(1.66136e-27 1.6584e-12 0)
(1.52882e-27 -4.43538e-13 0)
(-1.7004e-13 2.56819e-12 0)
(1.69699e-13 2.81266e-12 0)
(-1.69699e-13 2.98765e-13 0)
(1.7004e-13 1.39037e-12 0)
(8.79737e-27 2.45995e-12 0)
(-1.7004e-13 2.04782e-12 0)
(1.69699e-13 1.23416e-12 0)
(3.41446e-16 1.91722e-13 0)
(-1.69699e-13 6.65478e-13 0)
(-9.92583e-13 -1.09963e-12 0)
(-8.28689e-13 1.62153e-12 0)
(-6.83024e-27 -6.64966e-13 0)
(-8.60102e-13 1.89861e-12 0)
(1.16604e-12 -1.11585e-12 0)
(1.68845e-12 -1.56553e-13 0)
(-1.66626e-13 -9.8234e-13 0)
(1.66626e-13 -1.50048e-12 0)
(1.36561e-35 8.43371e-14 0)
(6.78111e-13 -1.63945e-12 0)
(3.41446e-13 4.47977e-13 0)
(1.11521e-13 6.42267e-15 0)
(-4.14554e-14 2.65081e-13 0)
(5.76288e-13 5.4184e-13 0)
(1.02704e-12 3.54706e-13 0)
(-7.07077e-13 -2.97778e-14 0)
(-9.23112e-13 1.19403e-13 0)
(-1.09769e-13 1.4597e-13 0)
(3.76018e-13 4.37909e-14 0)
(7.59626e-13 7.99914e-14 0)
(4.54258e-13 3.3573e-14 0)
(-1.13856e-13 5.56437e-13 0)
(-2.93107e-13 2.43186e-13 0)
(-3.90031e-13 7.7977e-13 0)
(1.0393e-13 6.33509e-13 0)
(1.09244e-12 6.21247e-13 0)
(1.02996e-12 3.87988e-13 0)
(2.21874e-13 6.28254e-13 0)
(-3.19382e-13 5.72201e-13 0)
(-4.01125e-13 1.12835e-12 0)
(8.43121e-13 5.79208e-13 0)
(7.64881e-13 -5.19652e-14 0)
(-4.67103e-15 4.43164e-13 0)
(3.81857e-13 -1.28453e-13 0)
(7.88236e-14 8.02833e-14 0)
(2.57491e-13 4.90458e-14 0)
(2.49316e-13 3.18506e-13 0)
(-2.62162e-13 9.86755e-14 0)
(2.0827e-12 2.51068e-13 0)
(2.38894e-11 4.70022e-14 0)
(2.89146e-10 2.53695e-13 0)
(1.84164e-09 7.13208e-13 0)
(1.86549e-08 5.71325e-13 0)
(1.06841e-07 2.33552e-15 0)
(9.55077e-07 1.72536e-13 0)
(4.91564e-06 -7.12332e-13 0)
(3.81318e-05 -1.06178e-12 0)
(0.000174698 2.20998e-13 0)
(0.00114648 -1.83484e-12 0)
(0.00462106 2.93196e-12 0)
(0.0247679 1.0684e-11 0)
(0.0864714 5.93485e-11 0)
(0.358994 2.63064e-10 0)
(1.03355 1.0312e-09 0)
(3.04172 3.64647e-09 0)
(6.01685 1.08229e-08 0)
(12.0591 2.4222e-08 0)
(16.6017 4.9821e-08 0)
(21.6057 6.36179e-08 0)
(22.6177 8.23154e-08 0)
(20.6747 4.09291e-08 0)
(17.6036 2.86149e-08 0)
(17.0889 -2.05626e-09 0)
(22.3584 2.17079e-08 0)
(20.9419 -1.10063e-08 0)
(16.9217 -5.1729e-08 0)
(8.67314 -3.29187e-08 0)
(3.68665 -1.60201e-08 0)
(1.13337 -5.53725e-09 0)
(0.404603 -2.14218e-09 0)
(0.0938817 -5.6315e-10 0)
(0.0279751 -1.82564e-10 0)
(0.0051464 -3.69322e-11 0)
(0.00130573 -1.12756e-11 0)
(0.000198132 -1.60958e-12 0)
(4.37425e-05 -2.15777e-12 0)
(5.64493e-06 -2.02563e-12 0)
(1.10191e-06 -2.96887e-13 0)
(1.23764e-07 -7.58351e-13 0)
(2.16217e-08 -5.08584e-13 0)
(2.15552e-09 -5.81312e-13 0)
(3.38543e-10 1.417e-13 0)
(2.75079e-11 -1.40283e-12 0)
(8.05403e-12 5.1012e-13 0)
(3.6043e-12 -2.14599e-13 0)
(-2.06745e-12 6.82892e-16 0)
(-3.65723e-12 -1.82674e-13 0)
(4.41148e-13 8.51907e-14 0)
(3.68386e-12 -1.07555e-14 0)
(1.48324e-12 1.70211e-13 0)
(1.34974e-12 -1.70723e-16 0)
(8.49176e-13 1.70211e-13 0)
(-1.26574e-12 8.502e-14 0)
(-1.01034e-12 1.70211e-13 0)
(-1.10321e-12 1.70211e-13 0)
(1.52012e-12 3.25648e-27 0)
(-1.49007e-12 1.70211e-13 0)
(-1.41837e-12 1.03458e-13 0)
(6.68892e-13 1.27701e-13 0)
(-1.10253e-12 -8.53615e-16 0)
(1.91619e-12 1.7004e-13 0)
(-8.89466e-13 -2.21769e-13 0)
(-1.83083e-12 -1.80796e-13 0)
(-1.73318e-12 -1.80796e-13 0)
(1.17799e-13 9.15075e-13 0)
(1.61538e-12 -7.63985e-13 0)
(3.41165e-27 1.68674e-13 0)
(3.17408e-12 -6.82892e-16 0)
(-1.06531e-13 2.53182e-13 0)
(1.00761e-12 -1.98039e-14 0)
(4.36265e-12 -1.75332e-13 0)
(6.25334e-13 1.07813e-12 0)
(9.7391e-13 1.3076e-12 0)
(7.94075e-14 1.59253e-12 0)
(-1.0358e-12 1.08018e-12 0)
(-4.57761e-13 5.06807e-13 0)
(1.08601e-13 1.15696e-12 0)
(2.90188e-13 1.15666e-12 0)
(-2.90772e-13 1.20279e-12 0)
(6.41938e-28 9.54058e-13 0)
(8.79905e-13 8.08088e-13 0)
(2.89604e-13 1.27957e-12 0)
(4.04044e-13 1.04252e-12 0)
(7.23426e-13 1.50582e-12 0)
(-1.31957e-13 1.61413e-12 0)
(-9.89675e-13 1.39985e-12 0)
(5.25491e-15 6.67665e-13 0)
(8.68812e-13 8.75818e-13 0)
(1.17126e-12 9.21069e-13 0)
(-5.83879e-16 1.5248e-12 0)
(-2.04591e-12 1.1625e-12 0)
(-9.34206e-14 9.60481e-14 0)
(-3.99957e-13 5.90593e-13 0)
(-6.65622e-13 2.16035e-14 0)
(-1.22031e-13 8.93335e-14 0)
(3.97038e-13 4.93378e-14 0)
(3.88814e-28 4.72942e-14 0)
(-3.73682e-14 -7.44446e-14 0)
(3.11733e-12 1.59983e-13 0)
(2.4217e-11 4.30027e-13 0)
(2.89875e-10 2.26253e-13 0)
(1.8442e-09 8.36406e-13 0)
(1.86551e-08 1.54991e-12 0)
(1.0684e-07 9.39169e-13 0)
(9.55078e-07 8.68228e-13 0)
(4.91564e-06 1.33796e-12 0)
(3.81318e-05 -7.44446e-14 0)
(0.000174698 2.75883e-12 0)
(0.00114648 -4.59803e-13 0)
(0.00462106 3.24258e-12 0)
(0.0247679 1.1989e-11 0)
(0.0864714 5.56075e-11 0)
(0.358994 2.5399e-10 0)
(1.03355 9.93701e-10 0)
(3.04172 3.51346e-09 0)
(6.01685 1.04536e-08 0)
(12.0591 2.33425e-08 0)
(16.6017 4.80463e-08 0)
(21.6057 6.09592e-08 0)
(22.6177 7.86706e-08 0)
(20.6747 3.82561e-08 0)
(17.6036 2.7165e-08 0)
(17.0889 -2.70847e-09 0)
(22.3584 2.06823e-08 0)
(20.9419 -1.10929e-08 0)
(16.9217 -5.04111e-08 0)
(8.67314 -3.21176e-08 0)
(3.68665 -1.55752e-08 0)
(1.13337 -5.39161e-09 0)
(0.404603 -2.08077e-09 0)
(0.0938817 -5.49289e-10 0)
(0.0279751 -1.74647e-10 0)
(0.0051464 -3.48794e-11 0)
(0.00130573 -8.86512e-12 0)
(0.000198132 8.94589e-13 0)
(4.37425e-05 -4.65732e-13 0)
(5.64493e-06 2.35598e-13 0)
(1.10191e-06 8.61468e-13 0)
(1.23764e-07 4.36539e-13 0)
(2.16219e-08 8.14178e-13 0)
(2.15368e-09 4.96633e-13 0)
(3.39862e-10 -1.06873e-13 0)
(3.2126e-11 1.0887e-12 0)
(5.46313e-12 2.22947e-12 0)
(1.93258e-13 -8.502e-14 0)
(-2.93731e-27 4.81268e-13 0)
(1.69016e-13 9.17806e-13 0)
(1.35588e-12 2.42375e-12 0)
(3.41446e-16 1.30381e-12 0)
(2.61239e-28 6.75209e-13 0)
(1.59638e-27 5.09608e-13 0)
(3.4008e-13 3.62262e-28 0)
(-1.70381e-13 1.69869e-13 0)
(1.70381e-13 6.75209e-13 0)
(-3.4008e-13 6.75209e-13 0)
(7.1252e-28 1.09877e-12 0)
(3.4008e-13 -5.12169e-16 0)
(-3.1299e-27 1.9121e-12 0)
(-3.40422e-13 6.32528e-13 0)
(3.41446e-16 1.50134e-12 0)
(-1.3552e-12 1.18465e-12 0)
(-1.52695e-12 -9.21904e-14 0)
(-3.38128e-27 8.23397e-13 0)
(1.18516e-12 8.23397e-13 0)
(1.36578e-15 2.23306e-12 0)
(3.38373e-13 8.23397e-13 0)
(1.52695e-12 1.58602e-12 0)
(1.57213e-26 1.58602e-12 0)
(-1.69699e-13 -8.51907e-14 0)
(4.47778e-30 1.57407e-12 0)
(1.69699e-13 -5.28729e-13 0)
)
;

boundaryField
{
    sides1
    {
        type            zeroGradient;
    }
    sides2
    {
        type            slip;
    }
    empty
    {
        type            empty;
    }
}


// ************************************************************************* //
