/*--------------------------------*- C++ -*----------------------------------*\
| =========                 |                                                 |
| \\      /  F ield         | OpenFOAM: The Open Source CFD Toolbox           |
|  \\    /   O peration     | Version:  3.0.1                                 |
|   \\  /    A nd           | Web:      www.OpenFOAM.org                      |
|    \\/     M anipulation  |                                                 |
\*---------------------------------------------------------------------------*/
FoamFile
{
    version     2.0;
    format      ascii;
    class       volScalarField;
    location    "0.0002";
    object      p;
}
// * * * * * * * * * * * * * * * * * * * * * * * * * * * * * * * * * * * * * //

dimensions      [1 -1 -2 0 0 0 0];

internalField   nonuniform List<scalar> 
1000
(
68970
68970
68970
68970
68970
68970
68970
68970
68970
68970
68970
68970
68969.9
68969.8
68969.5
68969.1
68968.2
68966.5
68963.4
68957.5
68947.8
68929.9
68901.9
68854.9
68783.1
68673.2
68511.2
68286.5
67973.3
67582
67086.9
66539.5
65941.3
65381.7
64870.9
64483.4
64225.5
64074.2
63970
63905.2
63864
63828.4
63797.3
63771.8
63751.5
63740
63738.2
63736.5
63742.1
63740.9
63734.7
63729
63725.7
63721.4
63723.7
63729.3
63735.2
63744.3
63751
63761.2
63762
63754
63727.6
63662.2
63530
63306.6
62963.4
62496.5
61936.2
61325.9
60749.4
60241.7
59845.3
59542.8
59332.6
59191.3
59100.2
59045.7
59012.5
58993.6
58982.9
58976.9
58973.6
58971.9
58971
58970.5
58970.2
58970.1
58970.1
58970
58970
58970
58970
58970
58970
58970
58970
58970
58970
58970
68970
68970
68970
68970
68970
68970
68970
68970
68970
68970
68970
68970
68969.9
68969.8
68969.5
68969.1
68968.2
68966.5
68963.5
68957.7
68948.1
68930.2
68903.1
68855.3
68785
68673
68513.2
68289
67975.2
67586.3
67085.4
66535
65926.7
65360.7
64865.7
64470
64220.4
64062.2
63964.7
63906.8
63865.4
63831.8
63801.1
63774.5
63752.4
63742.3
63744.3
63746
63750.8
63753.2
63750.4
63746.5
63737.1
63732.2
63727.6
63726.2
63730.5
63737.5
63743.8
63750.4
63750.2
63736.5
63705.9
63635
63508.9
63292
62961
62502.3
61940.4
61323
60745.8
60241
59847.1
59542.6
59331.5
59188.7
59098.4
59044.4
59011.8
58993.5
58982.8
58976.9
58973.6
58971.9
58970.9
58970.5
58970.2
58970.1
58970.1
58970
58970
58970
58970
58970
58970
58970
58970
58970
58970
58970
68970
68970
68970
68970
68970
68970
68970
68970
68970
68970
68970
68970
68969.9
68969.7
68969.5
68969
68968.1
68966.2
68963
68956.8
68946.6
68928
68899.8
68847.6
68774.3
68656.9
68488.7
68260.3
67936.7
67550.7
67033.8
66505
65901.2
65341.2
64874.8
64487.3
64246.3
64064.2
63974.4
63915.2
63874.8
63846.3
63821
63796.2
63769.7
63752.5
63754.3
63756.8
63758.4
63753
63750.7
63745.9
63745.4
63734.1
63733.2
63736.4
63740.8
63749.3
63761.4
63763.9
63757.8
63722.3
63678
63605.6
63470.7
63256.5
62941.1
62508.9
61934.7
61331.6
60745.7
60291.2
59885.1
59577.9
59348.5
59198.4
59104.5
59049.5
59014.4
58995.2
58983.8
58977.6
58973.9
58972.1
58971
58970.5
58970.3
58970.1
58970.1
58970
58970
58970
58970
58970
58970
58970
58970
58970
58970
58970
68970
68970
68970
68970
68970
68970
68970
68970
68970
68970
68970
68970
68969.9
68969.7
68969.4
68968.9
68967.9
68966.1
68962.4
68956.4
68945.7
68926.4
68895.6
68839.1
68762.9
68642.4
68449.2
68213.1
67892.6
67488.2
67023.8
66475.3
65915.1
65328.2
64859
64491.7
64241.8
64068.4
63975.1
63929.7
63903.6
63877.8
63847.1
63824.2
63795.6
63780.7
63766.1
63763.1
63759.3
63761.2
63757.1
63757.4
63754.2
63750.5
63748.6
63746.7
63748.8
63754.6
63755.9
63754.1
63739.7
63709.5
63662.2
63597.3
63450
63233.9
62928.8
62530.1
61909.7
61331.1
60775.5
60330.3
59932.6
59600.3
59360.7
59200.8
59107.1
59053.5
59015.5
58997
58985
58978.2
58974.2
58972.3
58971.1
58970.6
58970.3
58970.2
58970.1
58970
58970
58970
58970
58970
58970
58970
58970
58970
58970
58970
68970
68970
68970
68970
68970
68970
68970
68970
68970
68970
68970
68969.9
68969.9
68969.7
68969.4
68969
68968
68966.3
68962.3
68956.8
68945.6
68926.8
68893.7
68835.5
68758
68647.1
68461.6
68218.5
67891.6
67466.5
66991.4
66414.2
65843.9
65264.8
64847.5
64438.2
64215.1
64064.2
63977.5
63937.7
63918.3
63904.1
63880.8
63850.4
63828.5
63802
63785.9
63776.1
63770.3
63765.2
63759.6
63757.6
63759.7
63757.5
63748.9
63742.6
63739.5
63741.8
63745.1
63741.6
63727
63704.6
63664.3
63590.2
63455.2
63249.5
62936.8
62514.9
61959.4
61345.1
60793.5
60320.5
59929
59597.7
59359.3
59198.7
59107.1
59051.2
59016.1
58997
58985
58978.3
58974.2
58972.3
58971.1
58970.6
58970.3
58970.2
58970.1
58970
58970
58970
58970
58970
58970
58970
58970
58970
58970
58970
68970
68970
68970
68970
68970
68970
68970
68970
68970
68970
68970
68969.9
68969.9
68969.7
68969.4
68968.9
68968
68966.1
68962.3
68956.3
68946
68927.3
68895.2
68842.2
68760.1
68646.3
68475.3
68219.7
67881.1
67449.3
66928.2
66356.2
65770.9
65273.6
64800
64454.7
64199.7
64058.8
63978.5
63943.2
63922.3
63904.6
63888.1
63869.7
63850.7
63828.8
63808.6
63798.8
63786.3
63779.8
63766.3
63765.8
63761.7
63765.9
63764
63757.1
63750.2
63747.6
63747.2
63745.2
63735.2
63707.7
63664.3
63581.8
63451.1
63248.3
62925.2
62495.6
61962.2
61380.4
60784.6
60292.1
59915.3
59596.4
59368
59203.9
59111.6
59053.9
59018.5
58996.4
58984.5
58978.1
58974.3
58972.4
58971.1
58970.6
58970.3
58970.1
58970.1
58970
58970
58970
58970
58970
58970
58970
58970
58970
58970
58970
68970.1
68970.1
68970
68970
68970
68970
68970
68970
68970
68970
68969.9
68969.9
68969.8
68969.7
68969.4
68968.9
68968
68966.2
68962.3
68956.6
68945.9
68927.3
68893.8
68843.4
68765.5
68642.5
68473
68217.9
67876.3
67438.2
66914.6
66350.1
65776
65261.2
64792.9
64437.4
64181.1
64036.8
63968.8
63931.4
63905.2
63890.6
63876
63865.5
63850.6
63834.9
63824.8
63818.5
63810.3
63793.8
63787.4
63779.7
63780.8
63777.4
63774
63764.4
63758.2
63756.4
63758.7
63763.8
63753.3
63729.4
63690.4
63624.5
63491.4
63287.6
62949.3
62478.6
61879.2
61357.8
60762.1
60270.5
59907.7
59580.3
59370.1
59204.5
59112.9
59055.3
59018.8
58996
58984.8
58978.1
58974.4
58972.4
58971.2
58970.6
58970.3
58970.1
58970.1
58970
58970
58970
58970
58970
58970
58970
58970
58970
58970
58970
68970.1
68970.1
68970.1
68970
68970
68970
68970
68970
68970
68969.9
68969.9
68969.9
68969.8
68969.7
68969.4
68968.9
68968
68966.4
68962.9
68957.3
68946.9
68928.4
68897.1
68846.4
68771.2
68644.9
68470.7
68212.8
67869.5
67432.2
66915.4
66365.8
65792.7
65250.7
64789
64423.2
64171.6
64020.1
63945.7
63909.1
63890.1
63877.5
63864
63852.7
63841.8
63835.1
63827.2
63823
63818.1
63813.9
63803.9
63798.3
63789.1
63783.5
63775.9
63768
63762.6
63759.5
63762.8
63768.3
63765.5
63742.8
63711.6
63648.7
63533.8
63317.6
62974.9
62510.9
61897.1
61315.5
60748.4
60249.2
59862.1
59552.3
59341
59192.3
59105.3
59047.2
59015.8
58994.1
58983.8
58977.3
58974
58972.1
58971.1
58970.5
58970.3
58970.1
58970.1
58970
58970
58970
58970
58970
58970
58970
58970
58970
58970
58970
68970.1
68970.1
68970.1
68970
68970
68970
68970
68970
68970
68969.9
68969.9
68969.9
68969.8
68969.7
68969.4
68969
68968.1
68966.6
68963.2
68958
68947.8
68930.9
68901.4
68851.9
68775.7
68650.2
68471.4
68211
67862.7
67427.1
66911.7
66361.2
65794.1
65251.3
64779.6
64416.6
64172.3
64019.8
63935.6
63896.7
63876.1
63862.3
63848.5
63838
63832.6
63830.7
63830.8
63831.5
63831.2
63828.6
63822.5
63810.1
63798.6
63788.6
63778.7
63768.6
63761.1
63757.9
63761.4
63767.6
63771.2
63764.3
63736.1
63681.7
63561.8
63343
62993.8
62515.2
61918.5
61304.8
60720.3
60211.7
59817
59515.9
59318.6
59176.5
59096.9
59042
59011.9
58992.8
58982.4
58976.7
58973.5
58971.9
58970.9
58970.5
58970.2
58970.1
58970.1
58970
58970
58970
58970
58970
58970
58970
58970
58970
58970
58970
68970.1
68970.1
68970.1
68970
68970
68970
68970
68970
68969.9
68969.9
68969.9
68969.9
68969.8
68969.7
68969.4
68969
68968
68966.4
68963.2
68957.9
68947.4
68930.4
68900.4
68850.4
68772.3
68646
68465
68203.2
67852.8
67419.2
66905.5
66361.3
65794.2
65257.3
64779.4
64427.5
64184.9
64028.2
63944.4
63900.3
63877.4
63860.3
63847
63835.3
63829
63828.4
63827.8
63829.5
63829.3
63826.4
63821.2
63814.2
63805.7
63797
63786.5
63775.9
63768.7
63768.4
63770.2
63775.3
63778.3
63775.8
63753.7
63696.6
63568.5
63344.3
62992.2
62510.7
61927.5
61309.3
60721.6
60212.4
59820.2
59514.6
59318.5
59179.9
59095.9
59043.1
59011.8
58992.9
58982.3
58976.8
58973.5
58971.9
58970.9
58970.5
58970.2
58970.1
58970.1
58970
58970
58970
58970
58970
58970
58970
58970
58970
58970
58970
)
;

boundaryField
{
    sides1
    {
        type            zeroGradient;
    }
    sides2
    {
        type            slip;
    }
    empty
    {
        type            empty;
    }
}


// ************************************************************************* //
