/*--------------------------------*- C++ -*----------------------------------*\
| =========                 |                                                 |
| \\      /  F ield         | OpenFOAM: The Open Source CFD Toolbox           |
|  \\    /   O peration     | Version:  3.0.1                                 |
|   \\  /    A nd           | Web:      www.OpenFOAM.org                      |
|    \\/     M anipulation  |                                                 |
\*---------------------------------------------------------------------------*/
FoamFile
{
    version     2.0;
    format      ascii;
    class       surfaceScalarField;
    location    "0.0002";
    object      phi;
}
// * * * * * * * * * * * * * * * * * * * * * * * * * * * * * * * * * * * * * //

dimensions      [1 0 -1 0 0 0 0];

internalField   nonuniform List<scalar> 
1890
(
1.00487e-08
-4.73497e-10
1.05716e-08
-4.69375e-10
1.02731e-08
-5.23432e-10
9.01868e-09
-2.40211e-10
7.18988e-09
2.59441e-10
5.1117e-09
9.14342e-10
3.40725e-09
1.62146e-09
1.19236e-09
1.73732e-09
4.50314e-11
1.10156e-09
1.94834e-09
6.86699e-10
7.60104e-09
8.70917e-10
2.20809e-08
1.33088e-09
5.50386e-08
1.29902e-09
1.08263e-07
1.00237e-09
2.23462e-07
-2.76621e-09
4.47299e-07
-4.73343e-09
8.4932e-07
-6.18562e-09
1.6004e-06
-3.37795e-09
2.96481e-06
-7.54192e-09
5.47828e-06
-1.92903e-08
9.71617e-06
-4.95958e-08
1.70755e-05
-5.59969e-08
2.87824e-05
-2.12977e-07
4.76443e-05
-1.60435e-07
7.62858e-05
-3.08999e-07
0.000118826
7.20237e-08
0.00018012
-2.13587e-07
0.000263889
-2.51992e-08
0.000374948
-1.48945e-07
0.000512349
-2.67462e-07
0.000674549
6.65763e-07
0.000847862
2.60482e-06
0.00102331
3.2439e-06
0.0011796
2.57568e-06
0.00131226
-4.60428e-07
0.00139932
7.80466e-08
0.00145791
-5.15214e-07
0.00149116
-9.83684e-08
0.00150899
-4.10408e-07
0.00152067
-2.27257e-07
0.00153221
-2.69517e-06
0.00154066
-1.32771e-06
0.00154837
-1.1102e-06
0.00155498
-8.10448e-07
0.00156213
-1.84691e-06
0.0015681
-1.23587e-06
0.00157181
-9.15868e-07
0.00157009
2.32514e-06
0.00156108
5.06384e-06
0.00154414
8.55991e-06
0.00151864
1.27585e-05
0.00149014
1.22484e-05
0.00146568
8.60102e-06
0.00144847
6.8709e-06
0.00144024
4.68139e-06
0.0014369
2.04869e-06
0.00143468
2.04064e-06
0.00143508
1.35266e-06
0.00143652
-6.20018e-08
0.00143638
3.28455e-07
0.00143484
8.07992e-07
0.00143177
-9.96624e-07
0.00142395
-4.50952e-06
0.00140436
-6.51827e-06
0.00136345
-8.05944e-06
0.00128998
-9.48007e-06
0.00117499
-8.8639e-06
0.0010221
-9.03831e-06
0.000842281
-7.69315e-06
0.000653969
-3.05655e-06
0.000481485
-2.3455e-06
0.000338048
-2.52684e-06
0.000227775
-1.87007e-06
0.000146971
-8.04532e-07
9.20508e-05
-1.07616e-07
5.5261e-05
3.2045e-07
3.24686e-05
3.37813e-07
1.85186e-05
2.39756e-07
1.03173e-05
1.22281e-07
5.70043e-06
7.55712e-09
3.08649e-06
3.15653e-09
1.63879e-06
-7.96073e-09
8.62168e-07
7.139e-10
4.4383e-07
-2.83309e-10
2.27549e-07
1.6662e-09
1.12576e-07
1.01587e-10
5.72172e-08
-3.17836e-11
2.8072e-08
-4.0578e-10
1.36747e-08
1.18413e-10
6.58391e-09
-2.68496e-12
3.15807e-09
2.09564e-12
1.54004e-09
-1.50149e-11
7.44275e-10
-3.11264e-12
3.80564e-10
-8.04106e-12
1.79782e-10
3.60452e-12
8.3848e-11
-2.10624e-13
2.72416e-11
7.18185e-13
9.00071e-12
-2.44904e-12
3.17465e-13
-2.93491e-12
-2.40047e-12
8.90641e-09
-1.0484e-09
9.99013e-09
-1.25461e-09
1.04292e-08
-1.4065e-09
1.00701e-08
-9.57225e-10
8.56802e-09
-9.77448e-11
6.88509e-09
1.05073e-09
5.50533e-09
2.25101e-09
3.79758e-09
2.75082e-09
2.88073e-09
2.341e-09
4.54695e-09
1.61803e-09
1.06593e-08
8.20662e-10
2.80267e-08
1.62588e-09
5.95678e-08
3.08146e-09
1.11756e-07
4.09976e-09
2.13963e-07
7.22018e-09
4.0777e-07
1.24044e-08
7.75029e-07
2.14263e-08
1.46188e-06
4.50446e-08
2.70618e-06
9.07042e-08
5.01249e-06
1.3791e-07
8.82424e-06
2.60075e-07
1.57305e-05
3.76176e-07
2.62992e-05
5.0157e-07
4.45649e-05
5.92856e-07
7.08535e-05
1.69791e-06
0.000111168
2.58024e-06
0.000168797
3.82558e-06
0.000248351
4.92696e-06
0.000353319
6.46281e-06
0.000487331
5.75423e-06
0.000642377
8.92844e-06
0.000817086
7.68947e-06
0.000991468
7.23336e-06
0.00115533
3.99722e-06
0.00128537
-1.27377e-06
0.00138205
-7.01442e-06
0.00144407
-6.80437e-06
0.00147885
-2.96881e-06
0.00149933
-4.67081e-06
0.00151204
-4.91195e-06
0.00152168
-6.00869e-06
0.00153011
-5.18404e-06
0.00153828
-4.10314e-06
0.00154524
-4.2593e-06
0.00155056
-3.5126e-06
0.00155607
-2.74469e-06
0.00155763
4.5481e-07
0.00155613
3.9496e-06
0.00154921
7.91366e-06
0.00153588
1.29521e-05
0.0015188
1.70407e-05
0.00149838
1.66064e-05
0.00147908
1.27542e-05
0.00146416
1.11388e-05
0.00145776
6.17352e-06
0.00145188
5.16013e-06
0.00144798
3.14558e-06
0.00144626
1.77029e-06
0.00144467
-7.4799e-07
0.00144504
-3.52768e-07
0.00144338
1.45404e-06
0.00143865
2.41784e-07
0.00142284
-2.34618e-06
0.00139798
-5.36747e-06
0.00134448
-5.24189e-06
0.00126374
-9.54055e-06
0.00114221
-9.90698e-06
0.000988513
-1.36179e-05
0.000809742
-1.26012e-05
0.000624058
-6.55284e-06
0.00045503
-6.93345e-06
0.000316936
-1.06807e-05
0.000212376
-9.22596e-06
0.000135521
-5.65631e-06
8.4327e-05
-3.5789e-06
5.00854e-05
-1.86039e-06
2.92412e-05
-1.0861e-06
1.70055e-05
-9.89973e-07
9.62684e-06
-4.34231e-07
5.25646e-06
-2.47042e-07
2.8464e-06
-1.70308e-07
1.48894e-06
-1.10794e-07
7.81076e-07
-5.85801e-08
4.0035e-07
-3.63792e-08
2.07296e-07
-1.48308e-08
1.03761e-07
-9.28417e-09
5.33133e-08
-3.52045e-09
2.51825e-08
-2.05088e-09
1.2243e-08
-1.41544e-09
5.81943e-09
-7.51034e-10
2.90932e-09
-3.94041e-10
1.41596e-09
-1.67443e-10
7.04479e-10
-6.45292e-11
3.57048e-10
-4.2842e-11
1.6836e-10
-8.56216e-12
7.90717e-11
-3.03233e-12
3.35378e-11
-2.7669e-12
1.3163e-11
-5.194e-12
1.62457e-12
-3.88376e-12
-3.81099e-12
6.97972e-09
-2.14877e-09
8.79248e-09
-2.60014e-09
9.32318e-09
-3.06552e-09
1.02626e-08
-3.31531e-09
9.67431e-09
-1.83495e-09
8.88778e-09
-1.45365e-09
8.37586e-09
3.14955e-11
8.43103e-09
3.66025e-10
9.06334e-09
2.45789e-10
1.17357e-08
-9.23206e-11
1.92161e-08
-4.20327e-10
3.83623e-08
4.96347e-10
7.49663e-08
1.91235e-09
1.38624e-07
5.74026e-09
2.61852e-07
5.78042e-09
4.83629e-07
1.32124e-08
9.12065e-07
1.68145e-08
1.72304e-06
3.05315e-08
3.16368e-06
8.04507e-08
5.80483e-06
9.07244e-08
1.03329e-05
1.33987e-07
1.80473e-05
2.68814e-07
3.02313e-05
6.46289e-07
5.14439e-05
1.52219e-06
8.17707e-05
1.87643e-06
0.000126663
2.46082e-06
0.000189246
6.75893e-06
0.000275514
8.48421e-06
0.000391562
8.45366e-06
0.000534788
1.11776e-05
0.000704907
8.44024e-06
0.000880541
1.22243e-05
0.00105007
1.2333e-05
0.00121001
1.25084e-05
0.00132541
9.48612e-06
0.00140914
3.6763e-06
0.00144851
6.99621e-07
0.00147768
-2.3777e-06
0.00149246
-5.39872e-06
0.00150199
-6.36362e-06
0.00151043
-7.92223e-06
0.00151752
-7.44529e-06
0.00152484
-9.01825e-06
0.00152962
-7.19153e-06
0.00153333
-6.75702e-06
0.00153737
-2.79294e-06
0.00154041
3.23505e-07
0.00153979
3.72892e-06
0.00153707
6.42684e-06
0.0015302
1.12986e-05
0.00152048
1.3148e-05
0.0015085
1.25038e-05
0.00149435
1.13486e-05
0.00148905
7.88187e-06
0.00148674
4.89918e-06
0.00148415
4.34635e-06
0.00148171
3.3113e-06
0.00147888
1.87458e-06
0.00147506
-3.32889e-08
0.00147241
1.75644e-07
0.00147021
-1.50236e-06
0.00146957
-3.65428e-06
0.00146141
-6.31903e-06
0.00143258
-7.67606e-06
0.0013834
-8.51045e-06
0.00129659
-9.0138e-06
0.0011823
-1.23078e-05
0.00103099
-1.08857e-05
0.000864771
-6.5873e-06
0.000666558
-5.36606e-06
0.00050446
-3.88325e-06
0.0003553
-8.22412e-06
0.000242034
-9.30508e-06
0.000155689
-4.27205e-06
9.77131e-05
-2.12234e-06
5.88164e-05
-4.66779e-07
3.44474e-05
-4.86206e-07
1.96738e-05
-9.9668e-07
1.10135e-05
-3.03255e-07
6.10831e-06
-3.27207e-07
3.39989e-06
-2.13917e-07
1.81772e-06
-1.02518e-07
9.66536e-07
-4.8726e-08
4.89659e-07
-2.04447e-08
2.52672e-07
-1.08856e-08
1.24633e-07
-1.92007e-09
6.41639e-08
-3.25059e-09
3.17751e-08
-2.31648e-09
1.56822e-08
-1.53919e-09
7.64531e-09
-7.40067e-10
3.69792e-09
-3.80745e-10
1.78863e-09
-1.55948e-10
8.92426e-10
-8.35108e-11
4.14341e-10
-4.0275e-11
1.94159e-10
-7.3158e-12
9.60847e-11
-1.70985e-12
4.5845e-11
-2.61343e-13
1.68472e-11
-2.29084e-12
5.58638e-12
-4.78571e-12
-4.61602e-12
4.66587e-09
-3.31194e-09
6.68524e-09
-4.44491e-09
8.74437e-09
-5.91139e-09
8.29756e-09
-4.86961e-09
9.11102e-09
-6.01233e-09
1.03799e-08
-5.95255e-09
1.20007e-08
-5.82045e-09
1.38244e-08
-5.66583e-09
1.71491e-08
-5.43927e-09
2.18752e-08
-3.99786e-09
3.02718e-08
-3.55822e-09
4.90711e-08
-1.59481e-09
8.61025e-08
5.81583e-10
1.59949e-07
3.28557e-09
2.8995e-07
3.53276e-09
5.4318e-07
4.56256e-09
9.95635e-07
-1.31689e-09
1.8535e-06
4.87926e-09
3.44347e-06
4.22912e-08
6.15923e-06
3.36756e-08
1.07584e-05
2.01575e-08
1.88496e-05
1.72011e-08
3.27372e-05
2.38594e-07
5.79385e-05
8.86037e-07
9.29504e-05
5.10943e-07
0.000139275
-5.13261e-07
0.000224702
-1.73933e-06
0.000331096
1.68753e-06
0.000460598
2.98756e-06
0.000615634
7.49752e-06
0.000771864
1.07108e-05
0.000952774
1.99041e-05
0.00108292
2.45103e-05
0.0012352
1.62326e-05
0.00136295
1.57466e-05
0.00143887
1.8969e-05
0.0014726
1.3214e-05
0.00148879
2.93785e-06
0.00150126
-2.9804e-06
0.00150505
-5.49428e-06
0.0015099
-9.71426e-06
0.00151564
-1.04041e-05
0.00152047
-1.07705e-05
0.00152432
-1.25169e-05
0.00152723
-7.06067e-06
0.00152907
-4.83264e-06
0.00153354
-1.47299e-06
0.00153701
3.32714e-08
0.00153449
4.25935e-06
0.00153004
4.78207e-06
0.00152763
3.16724e-06
0.00152293
2.75526e-06
0.0015178
2.94359e-06
0.00151491
1.86187e-06
0.00151406
1.96949e-07
0.00151525
-7.2051e-07
0.00151327
-7.38653e-07
0.00150914
-1.36544e-06
0.00150565
-2.1096e-06
0.00150463
-2.41217e-06
0.00150112
-1.59473e-06
0.00149547
-8.07863e-06
0.00148167
-8.13899e-06
0.00145583
-8.56821e-06
0.00139401
-9.40186e-06
0.00130872
-9.54189e-06
0.0011852
-6.82583e-06
0.0010414
-4.61418e-06
0.000901435
-3.87419e-06
0.000698011
-2.65154e-06
0.000533931
-4.21979e-07
0.000383807
3.03367e-06
0.000250002
1.43179e-06
0.00016126
-5.90779e-07
0.000100593
1.08243e-07
6.30101e-05
2.60954e-07
3.8692e-05
-2.67589e-08
2.02836e-05
7.47716e-08
1.1796e-05
-1.36523e-07
7.03362e-06
-1.46e-07
3.75096e-06
2.03601e-08
1.9948e-06
-1.14307e-08
1.06248e-06
-7.85365e-09
5.44073e-07
-1.89574e-09
2.79236e-07
-1.0758e-09
1.34324e-07
8.88935e-10
7.06313e-08
-1.40749e-09
3.47081e-08
-4.90208e-10
1.72374e-08
-3.78826e-10
8.92616e-09
-1.82126e-10
4.31442e-09
-8.42754e-11
2.19121e-09
-4.05124e-11
1.0708e-09
2.29726e-12
4.88755e-10
4.23634e-12
2.20719e-10
-5.03767e-12
1.10405e-10
-2.16363e-12
5.97415e-11
1.46969e-12
3.10057e-11
-5.36325e-13
1.65216e-11
-3.96822e-12
-4.44762e-12
-1.79834e-11
-5.07072e-09
3.05809e-09
-5.59122e-09
4.53029e-09
-7.584e-09
6.94825e-09
-9.93601e-09
7.5559e-09
-9.89863e-09
1.02428e-08
-1.16651e-08
1.31837e-08
-1.16234e-08
1.64835e-08
-1.17117e-08
2.08474e-08
-1.12137e-08
2.61417e-08
-8.76831e-09
3.50547e-08
-6.53675e-09
5.54463e-08
-4.17587e-09
9.45915e-08
-1.25541e-09
1.59987e-07
3.17778e-09
2.74163e-07
4.34127e-09
4.97374e-07
4.86749e-09
9.42648e-07
1.41487e-09
1.77932e-06
1.02475e-08
3.40802e-06
1.48054e-08
5.93487e-06
6.08236e-08
1.07022e-05
-5.98439e-08
1.87255e-05
-9.07966e-08
3.30143e-05
-2.95895e-07
5.84307e-05
1.57005e-07
9.41836e-05
-2.01752e-07
0.000136262
4.8292e-07
0.000209567
-1.43522e-06
0.000305723
7.11937e-07
0.000426865
4.06556e-06
0.000575854
6.74361e-06
0.000729792
1.25152e-05
0.000911504
1.78158e-05
0.00105943
1.78776e-05
0.00122794
1.17066e-05
0.00135398
1.65885e-05
0.00145438
1.50647e-05
0.00149946
1.59751e-05
0.00151016
1.35639e-05
0.00151148
1.14207e-05
0.00151738
-3.50291e-06
0.00152028
-8.42528e-06
0.00152148
-9.04384e-06
0.00152527
-1.0824e-05
0.00152756
-1.20428e-05
0.00153043
-1.07736e-05
0.00153316
-5.80383e-06
0.00153621
-5.1043e-06
0.0015369
-2.89351e-06
0.0015377
-2.81316e-06
0.00154079
-4.27501e-06
0.00153813
-7.04383e-06
0.00153355
-7.0914e-06
0.00152931
-4.80737e-06
0.00152763
-9.17027e-06
0.00152818
-6.54193e-06
0.00152703
-5.16319e-06
0.00152458
-5.20466e-06
0.0015195
-4.57005e-06
0.00151527
-4.23956e-06
0.00151324
-4.0116e-06
0.00150884
-3.1544e-06
0.00149992
-6.49433e-06
0.00148635
-7.45501e-06
0.00145308
-3.24842e-06
0.00139619
-5.14155e-06
0.00130836
2.51298e-06
0.00119592
-1.05157e-06
0.00104566
4.19102e-06
0.000880612
4.3293e-06
0.000696127
2.94201e-06
0.000519142
5.90787e-06
0.000361366
7.85084e-06
0.000236273
3.51019e-06
0.000150136
8.05103e-07
9.33397e-05
-3.78778e-07
5.774e-05
-1.15399e-06
3.49336e-05
-1.0604e-06
1.98215e-05
-5.82677e-07
1.17001e-05
-3.42256e-07
6.60656e-06
9.8483e-08
3.65639e-06
8.17242e-08
1.91781e-06
3.08219e-08
1.00697e-06
-2.16009e-09
5.12571e-07
-5.39994e-09
2.69566e-07
-7.27464e-09
1.36063e-07
2.4307e-10
7.07038e-08
1.41732e-10
3.55442e-08
1.23284e-09
1.79824e-08
1.36558e-10
8.84217e-09
1.15802e-10
4.29264e-09
5.40397e-11
2.0809e-09
7.7781e-11
1.04441e-09
3.80377e-11
5.0771e-10
2.83393e-11
2.34031e-10
2.18431e-12
1.12504e-10
-2.67829e-12
6.44317e-11
2.65839e-13
3.88595e-11
4.02047e-13
2.25668e-11
-2.07661e-12
-2.61101e-12
-4.45708e-09
-6.37334e-09
-2.00397e-09
-6.97567e-09
2.09033e-09
-9.68379e-09
5.04411e-09
-1.08315e-08
6.88509e-09
-1.1973e-08
9.36402e-09
-1.40842e-08
1.2902e-08
-1.57468e-08
1.611e-08
-1.59928e-08
2.2486e-08
-1.65377e-08
2.80965e-08
-1.05211e-08
3.56973e-08
-8.24157e-09
4.94359e-08
-4.84054e-09
8.64412e-08
-2.46192e-09
1.45703e-07
1.74346e-09
2.62192e-07
2.76201e-09
4.81493e-07
8.45713e-09
9.05454e-07
7.07257e-09
1.76478e-06
-1.25708e-08
3.41403e-06
-1.31845e-08
6.16376e-06
-5.36273e-08
1.06288e-05
-3.6101e-08
1.85296e-05
-1.89311e-08
3.11972e-05
2.1057e-07
5.32359e-05
-3.064e-07
8.62996e-05
-4.63909e-07
0.000130525
8.56949e-07
0.000191222
8.91735e-07
0.000281461
6.48479e-07
0.000401105
2.54591e-06
0.000545807
4.85042e-06
0.000723846
4.69336e-06
0.000900925
4.97319e-06
0.00108618
5.6321e-06
0.00123965
1.09154e-05
0.00136954
1.63387e-05
0.00145894
1.58205e-05
0.00151278
1.49726e-05
0.00153277
1.56765e-05
0.00154168
1.67097e-05
0.00153764
7.82508e-06
0.00153392
1.51925e-06
0.00153352
-3.55946e-06
0.00153366
-6.82359e-06
0.00153421
-8.95355e-06
0.00153367
-9.67563e-06
0.00153516
-6.64173e-06
0.00153838
-7.99454e-06
0.00154091
-8.5184e-06
0.00154621
-9.28123e-06
0.00154833
-1.41031e-05
0.00154258
-1.13123e-05
0.00153388
-1.25393e-05
0.00152818
-1.33184e-05
0.00152343
-1.25128e-05
0.00152192
-1.21776e-05
0.00152195
-1.24556e-05
0.00152004
-1.11295e-05
0.00151612
-9.74294e-06
0.00150914
-6.37724e-06
0.0015046
-5.55646e-06
0.00150323
-6.67766e-06
0.00149881
-6.15801e-06
0.00148793
-5.32466e-06
0.00145608
-5.20162e-07
0.00140218
3.59744e-06
0.0013218
8.30334e-06
0.00120452
9.05241e-06
0.00106332
5.64901e-06
0.000881781
6.824e-06
0.000689431
1.03536e-05
0.000523887
9.56153e-06
0.000371405
8.2483e-06
0.000250538
4.28865e-06
0.000164791
4.29092e-06
0.000102025
1.01578e-06
6.28072e-05
3.66405e-07
3.6542e-05
-5.58404e-09
2.03282e-05
1.20626e-08
1.12779e-05
8.47853e-08
6.39989e-06
1.48616e-07
3.66938e-06
1.39843e-08
1.99744e-06
1.31748e-08
1.07099e-06
1.08717e-09
5.15827e-07
2.76198e-10
2.56928e-07
-1.74344e-09
1.28677e-07
-4.69698e-10
6.49921e-08
-9.30152e-11
3.32458e-08
4.99907e-10
1.6685e-08
9.04968e-11
8.05892e-09
3.07448e-10
3.7895e-09
3.76167e-11
1.7983e-09
5.92331e-11
8.88107e-10
7.27994e-14
4.87205e-10
-4.09087e-12
2.44325e-10
-4.19543e-12
1.20607e-10
-2.12505e-12
6.69679e-11
1.02816e-12
3.94697e-11
2.34586e-12
2.14213e-11
7.14148e-13
-6.04222e-13
-6.76454e-09
-5.81023e-09
-4.4376e-09
-6.29358e-09
-1.68125e-09
-8.73001e-09
3.8057e-10
-1.033e-08
3.27181e-09
-1.22908e-08
5.68567e-09
-1.45957e-08
7.79851e-09
-1.64523e-08
9.5648e-09
-1.55441e-08
1.31182e-08
-1.46873e-08
2.03793e-08
-1.29065e-08
3.03836e-08
-1.02944e-08
4.74891e-08
-6.80034e-09
8.07164e-08
-1.8399e-09
1.43327e-07
9.46635e-11
2.79455e-07
-3.02332e-09
5.20689e-07
-1.92766e-09
9.34639e-07
-7.83706e-10
1.74259e-06
-1.99228e-08
3.37955e-06
-5.19687e-08
5.99041e-06
-1.47826e-07
1.0493e-05
-1.02793e-07
1.84274e-05
-1.95181e-07
3.22851e-05
-3.89828e-07
5.24635e-05
-5.1473e-07
8.32882e-05
-9.27619e-07
0.000129601
-5.34026e-07
0.000192109
-5.51485e-07
0.000286277
1.64201e-07
0.000398387
7.36318e-07
0.000542498
1.54042e-06
0.0007119
9.18629e-07
0.000893439
-7.51536e-07
0.0010709
5.45894e-06
0.00122318
1.28884e-05
0.00135061
1.64779e-05
0.00144439
1.32493e-05
0.00150235
1.23893e-05
0.00153634
1.23452e-05
0.00154747
1.65518e-05
0.00154956
1.48953e-05
0.00154677
1.03828e-05
0.00154474
1.40016e-06
0.00154473
-2.84125e-06
0.0015434
-5.312e-06
0.00154192
-6.34194e-06
0.00154707
-7.96897e-06
0.00155041
-1.11926e-05
0.00155254
-1.1713e-05
0.0015562
-1.37695e-05
0.00155273
-1.40473e-05
0.0015471
-1.46401e-05
0.00153345
-1.36122e-05
0.00152035
-1.47463e-05
0.00151082
-1.44688e-05
0.00150502
-1.55619e-05
0.00150051
-1.55639e-05
0.00149715
-1.50924e-05
0.00149196
-1.18894e-05
0.00148915
-9.85977e-06
0.00148603
-7.61255e-06
0.00148521
-6.25032e-06
0.00148271
-3.57989e-06
0.00146461
2.57834e-06
0.00143947
3.40177e-06
0.00138456
5.26092e-06
0.00130686
7.6053e-06
0.00118996
1.13683e-05
0.00105131
1.17264e-05
0.000894611
1.0859e-05
0.000701997
1.10087e-05
0.000538612
9.37685e-06
0.00039031
9.57648e-06
0.000259936
8.1969e-06
0.000174241
7.21429e-06
0.000104994
4.11744e-06
6.5184e-05
2.37992e-06
3.77756e-05
1.47706e-06
2.06962e-05
1.22949e-06
1.17464e-05
6.57116e-07
7.19332e-06
2.09318e-07
3.9973e-06
2.0083e-07
2.19432e-06
1.14018e-07
1.15924e-06
7.4508e-08
5.61151e-07
4.11372e-08
2.71167e-07
1.75246e-08
1.32905e-07
5.89567e-09
6.59974e-08
3.16231e-09
3.25879e-08
1.63844e-09
1.61067e-08
7.37609e-10
8.13334e-09
4.34726e-10
3.83544e-09
1.75843e-10
1.90825e-09
6.45835e-11
9.39384e-10
1.70783e-11
4.85454e-10
-1.29009e-12
2.42088e-10
2.26805e-12
1.10135e-10
6.30806e-12
5.61491e-11
2.42524e-12
2.95288e-11
3.01714e-12
1.45298e-11
1.64686e-12
7.62663e-13
-5.14105e-09
-4.04703e-09
-2.7532e-09
-3.88019e-09
4.41144e-10
-6.93324e-09
2.0522e-09
-8.86919e-09
4.22187e-09
-1.12741e-08
4.7208e-09
-1.32942e-08
4.25161e-09
-1.31115e-08
5.22951e-09
-1.23376e-08
6.26028e-09
-1.08138e-08
1.18648e-08
-1.14433e-08
1.99533e-08
-8.70952e-09
3.54317e-08
-6.88245e-09
7.11741e-08
-2.44673e-09
1.34353e-07
-2.12061e-09
2.58751e-07
-6.97694e-09
4.90631e-07
-1.30237e-08
9.12832e-07
-1.49208e-08
1.684e-06
-2.34573e-08
3.15482e-06
-3.70226e-08
5.64246e-06
-7.09189e-08
1.02395e-05
-1.34327e-07
1.81155e-05
-3.33176e-07
3.11097e-05
-7.52099e-07
5.17856e-05
-1.01335e-06
8.08668e-05
-1.12258e-06
0.000128586
-1.3063e-06
0.000192942
-1.16256e-06
0.000289819
6.2166e-09
0.00040566
2.52354e-07
0.000550695
1.10861e-06
0.000715122
2.14493e-06
0.000888487
1.83828e-06
0.00105814
6.66634e-06
0.00121234
1.10658e-05
0.00134059
1.1281e-05
0.0014324
6.79915e-06
0.00149428
6.92937e-06
0.00152867
1.0429e-05
0.00155143
1.10699e-05
0.00155856
1.22024e-05
0.00156477
8.63363e-06
0.00156447
3.83775e-06
0.00156402
3.01748e-07
0.00156187
-1.5286e-06
0.00156149
-3.27504e-06
0.0015614
-5.89224e-06
0.0015634
-8.98745e-06
0.00156579
-1.17389e-05
0.00156404
-1.24808e-05
0.00156133
-1.35314e-05
0.00154852
-1.26794e-05
0.00153147
-1.32129e-05
0.00151426
-1.25258e-05
0.00149904
-1.16081e-05
0.00148717
-1.30748e-05
0.00147808
-1.40961e-05
0.00147014
-1.44742e-05
0.00146336
-1.13574e-05
0.00145635
-9.28128e-06
0.0014536
-7.06456e-06
0.00145123
-3.52508e-06
0.00145023
-9.99477e-08
0.00144142
1.3508e-06
0.00141942
5.63984e-06
0.00137339
3.86487e-06
0.00129169
9.0283e-06
0.00117878
1.11826e-05
0.00102297
1.07217e-05
0.000872873
6.30922e-06
0.00067017
5.02771e-06
0.000500471
6.20212e-06
0.000355607
7.38543e-06
0.00023565
9.02139e-06
0.000153387
5.59375e-06
9.41502e-05
4.19624e-06
5.75879e-05
2.87356e-06
3.33929e-05
1.72292e-06
1.95954e-05
1.00629e-06
1.09476e-05
5.75285e-07
6.101e-06
2.96461e-07
3.3242e-06
2.09389e-07
1.80101e-06
1.12671e-07
9.49503e-07
7.09403e-08
4.9413e-07
3.69321e-08
2.50694e-07
1.94911e-08
1.26601e-07
9.72031e-09
6.37836e-08
5.10887e-09
3.17421e-08
2.63242e-09
1.56457e-08
1.25424e-09
7.68023e-09
6.49305e-10
3.70976e-09
2.89698e-10
1.77209e-09
1.39709e-10
8.60545e-10
2.89359e-11
3.89204e-10
2.95752e-11
1.76581e-10
1.42836e-11
7.94911e-11
2.99078e-12
2.77262e-11
1.38205e-12
1.13963e-11
-6.80084e-13
1.04692e-12
-3.3772e-13
-1.04739e-12
-4.14846e-09
-1.54984e-09
7.47418e-11
-1.80703e-09
2.83998e-09
-3.95886e-09
2.57532e-09
-4.60383e-09
7.29465e-10
-6.90845e-09
-9.51445e-10
-7.33835e-09
-2.62693e-09
-6.82e-09
-3.82691e-09
-6.01366e-09
-1.19677e-09
-5.35411e-09
1.908e-09
-6.3032e-09
8.72999e-09
-5.20094e-09
2.33993e-08
-3.90679e-09
5.64251e-08
-1.05318e-10
1.06941e-07
3.07498e-09
2.10697e-07
3.94702e-09
3.95505e-07
5.69549e-09
7.85213e-07
5.32941e-09
1.42836e-06
2.1426e-08
2.794e-06
1.81473e-08
5.04166e-06
3.05783e-08
9.11073e-06
7.82701e-08
1.58967e-05
1.15428e-07
2.70645e-05
1.93026e-07
4.57334e-05
2.28729e-07
7.39381e-05
5.39483e-07
0.000120078
5.64055e-07
0.000184005
1.13411e-06
0.000278976
1.60055e-06
0.000396828
2.17046e-06
0.000543279
2.3175e-06
0.000706304
2.98135e-06
0.000875681
3.19199e-06
0.00104733
3.70394e-06
0.00120164
5.10382e-06
0.00133576
4.22122e-06
0.00142632
2.79961e-06
0.0014894
-2.35715e-07
0.00152799
2.8421e-06
0.00155233
4.70735e-06
0.00156763
4.87308e-06
0.00157683
3.14064e-06
0.00157917
2.37687e-06
0.00157889
1.05218e-06
0.00157868
-3.81597e-07
0.00158001
-2.33326e-06
0.00158056
-2.94246e-06
0.00157936
-5.03125e-06
0.00157674
-6.4865e-06
0.00157406
-8.54647e-06
0.00156493
-8.09799e-06
0.00155146
-7.83319e-06
0.00153101
-6.72047e-06
0.00151052
-6.72296e-06
0.00149456
-5.96367e-06
0.00148123
-7.2656e-06
0.00146943
-8.11164e-06
0.00145854
-8.35755e-06
0.00144855
-4.92817e-06
0.00144339
-5.31277e-06
0.001439
-2.91392e-06
0.00143776
-2.07247e-06
0.00143559
1.7121e-06
0.00142531
5.30139e-06
0.00140483
7.28176e-06
0.00135642
7.20322e-06
0.00127782
7.4859e-06
0.00115799
8.3811e-06
0.000996799
7.78637e-06
0.000814204
4.2012e-06
0.000620637
8.83992e-07
0.000447618
1.34974e-07
0.000311357
5.09595e-07
0.000206649
3.93278e-07
0.000134541
7.88818e-07
8.22904e-05
4.18086e-07
5.01947e-05
5.21461e-07
2.89569e-05
3.43252e-07
1.69239e-05
3.35409e-08
9.36997e-06
8.56785e-08
5.03284e-06
3.68103e-08
2.73665e-06
2.35797e-08
1.44027e-06
8.05295e-09
7.659e-07
9.32044e-09
3.91343e-07
3.05438e-09
2.0258e-07
1.81601e-09
1.00976e-07
1.29769e-09
5.10618e-08
3.99673e-10
2.5518e-08
3.45008e-10
1.25843e-08
1.14183e-10
6.03963e-09
1.38289e-10
2.99897e-09
8.55526e-12
1.34763e-09
4.46874e-11
6.41191e-10
-1.42197e-11
2.99659e-10
-6.99541e-12
1.48608e-10
-8.79325e-12
5.75311e-11
-2.95869e-12
2.13378e-11
-1.71185e-12
3.12651e-12
-1.75032e-13
-5.21383e-12
2.39058e-13
-2.64335e-13
-4.99637e-09
-7.8002e-10
1.1721e-09
1.79223e-09
-5.52887e-10
-5.03591e-09
-7.41971e-09
-6.83759e-09
-2.58553e-09
-1.36595e-10
4.43877e-09
1.64848e-08
5.41703e-08
1.16123e-07
2.39388e-07
4.53741e-07
8.76522e-07
1.5923e-06
3.02965e-06
5.39787e-06
9.76979e-06
1.71351e-05
2.97109e-05
4.99975e-05
8.17976e-05
0.000130918
0.0001998
0.000297993
0.000420359
0.000568921
0.000732925
0.00090308
0.0010726
0.00122563
0.00135617
0.00144631
0.00149888
0.00153513
0.00155788
0.00157404
0.00158154
0.00158633
0.00158849
0.00158955
0.00159035
0.00159062
0.00158847
0.00158465
0.00157658
0.00156498
0.00154762
0.00152795
0.00150885
0.00149394
0.00148054
0.00146742
0.0014553
0.00144779
0.00144122
0.00143844
0.00143647
0.00143474
0.00143079
0.00141556
0.00137659
0.00130314
0.00118793
0.001031
0.00084458
0.000652299
0.000472872
0.000331733
0.000218718
0.000144368
8.71707e-05
5.38473e-05
3.09805e-05
1.79358e-05
1.00443e-05
5.45967e-06
2.99111e-06
1.57028e-06
8.34465e-07
4.26697e-07
2.17815e-07
1.10471e-07
5.51673e-08
2.78631e-08
1.3559e-08
6.73073e-09
3.22716e-09
1.55429e-09
7.24237e-10
3.51732e-10
1.60384e-10
5.7286e-11
1.84077e-11
1.07169e-12
-6.58584e-12
)
;

boundaryField
{
    sides1
    {
        type            calculated;
        value           nonuniform List<scalar> 
20
(
-4.46105e-12
-4.15641e-12
-1.10152e-12
7.13308e-12
1.09984e-11
9.30605e-12
3.80933e-12
-5.10346e-12
-8.72989e-12
-1.0488e-11
-7.66186e-09
-6.24786e-09
-3.8123e-09
-1.86615e-09
2.39356e-09
5.70372e-09
7.88955e-09
6.69649e-09
6.08807e-09
7.53923e-09
)
;
    }
    sides2
    {
        type            calculated;
        value           uniform 0;
    }
    empty
    {
        type            empty;
        value           nonuniform 0();
    }
}


// ************************************************************************* //
