/*--------------------------------*- C++ -*----------------------------------*\
| =========                 |                                                 |
| \\      /  F ield         | OpenFOAM: The Open Source CFD Toolbox           |
|  \\    /   O peration     | Version:  3.0.1                                 |
|   \\  /    A nd           | Web:      www.OpenFOAM.org                      |
|    \\/     M anipulation  |                                                 |
\*---------------------------------------------------------------------------*/
FoamFile
{
    version     2.0;
    format      ascii;
    class       volVectorField;
    location    "0.0002";
    object      U;
}
// * * * * * * * * * * * * * * * * * * * * * * * * * * * * * * * * * * * * * //

dimensions      [0 1 -1 0 0 0 0];

internalField   nonuniform List<vector> 
1000
(
(8.06157e-05 -1.42009e-05 0)
(0.000117322 -1.52993e-05 0)
(0.000110244 -1.73459e-05 0)
(0.000100191 -1.47588e-05 0)
(8.0037e-05 -8.52046e-06 0)
(6.11979e-05 1.0259e-06 0)
(3.59649e-05 1.28486e-05 0)
(2.87669e-05 1.33651e-05 0)
(1.14907e-06 5.38629e-06 0)
(-6.83714e-06 -1.75482e-06 0)
(3.29058e-05 2.11969e-06 0)
(0.000132492 1.03842e-05 0)
(0.000389667 1.90711e-05 0)
(0.000829951 -3.49989e-06 0)
(0.00162946 -7.89199e-05 0)
(0.00332146 -0.000136686 0)
(0.00631087 -0.000127144 0)
(0.0120952 -5.78379e-05 0)
(0.0229895 -4.43661e-05 0)
(0.0419806 -8.42492e-05 0)
(0.0767346 -0.000317942 0)
(0.136007 -0.000604159 0)
(0.231445 -0.00164476 0)
(0.391412 -0.00238429 0)
(0.629439 -0.00326908 0)
(1.00394 -0.00314379 0)
(1.53274 -0.0037921 0)
(2.29129 -0.00295293 0)
(3.3127 -0.00674983 0)
(4.60789 -0.0116256 0)
(6.20534 -0.00552672 0)
(7.98148 0.00728941 0)
(9.81454 0.0204372 0)
(11.6487 0.00546424 0)
(13.0732 -0.0247306 0)
(14.358 -0.0299022 0)
(15.0119 -0.0278127 0)
(15.6348 -0.0356082 0)
(15.8305 -0.0244394 0)
(16.0541 -0.00168179 0)
(16.1498 -0.0555315 0)
(16.3006 -0.0148893 0)
(16.367 -0.0131636 0)
(16.4683 -0.00968373 0)
(16.5098 -0.0367075 0)
(16.5834 -0.0249478 0)
(16.6319 -0.0120561 0)
(16.6535 0.0690473 0)
(16.6199 0.112828 0)
(16.5281 0.20937 0)
(16.4226 0.303983 0)
(16.2435 0.31746 0)
(16.1468 0.243094 0)
(16.0404 0.177025 0)
(16.0014 0.129922 0)
(15.9707 0.0221641 0)
(15.9646 0.0213669 0)
(15.9533 -0.00941461 0)
(15.9431 -0.029603 0)
(15.9198 -0.0448919 0)
(15.8933 -0.0168839 0)
(15.8904 -0.0789124 0)
(15.8154 -0.134003 0)
(15.6808 -0.189608 0)
(15.3431 -0.20627 0)
(14.7897 -0.199494 0)
(13.7651 -0.169973 0)
(12.4524 -0.136333 0)
(10.6263 -0.114161 0)
(8.69326 -0.0582449 0)
(6.62179 -0.0394271 0)
(4.84529 -0.0308374 0)
(3.34751 -0.0155818 0)
(2.23164 -0.00543585 0)
(1.41868 -0.000621264 0)
(0.874293 0.00250375 0)
(0.519033 0.00267567 0)
(0.300018 0.00180099 0)
(0.16979 0.000840257 0)
(0.0933372 0.000165699 0)
(0.051328 1.24716e-05 0)
(0.0274647 -2.90502e-05 0)
(0.0143966 -2.33941e-07 0)
(0.00756142 -6.73937e-06 0)
(0.00383138 4.05531e-06 0)
(0.00193605 -4.50664e-06 0)
(0.000971601 5.68343e-07 0)
(0.000485489 -7.21224e-07 0)
(0.000233931 2.25185e-06 0)
(0.000114477 1.09151e-07 0)
(5.5711e-05 -2.3751e-08 0)
(2.5825e-05 -2.74436e-08 0)
(1.3302e-05 -9.34888e-09 0)
(5.85737e-06 1.07043e-08 0)
(3.75725e-06 8.75003e-08 0)
(1.41313e-06 6.7653e-09 0)
(6.58702e-07 -2.01009e-10 0)
(1.79716e-07 -3.2425e-08 0)
(2.56358e-08 -4.43236e-08 0)
(-4.51235e-08 -5.16439e-08 0)
(6.73572e-05 -1.49003e-05 0)
(0.000106657 -1.8071e-05 0)
(0.000107906 -1.90091e-05 0)
(0.000105982 -9.79326e-06 0)
(9.35136e-05 5.91048e-06 0)
(7.21914e-05 2.4899e-05 0)
(5.45907e-05 4.31242e-05 0)
(4.45048e-05 5.69164e-05 0)
(1.78332e-05 5.00106e-05 0)
(3.13562e-05 3.46624e-05 0)
(5.75863e-05 1.90035e-05 0)
(0.000217252 4.02277e-05 0)
(0.000412937 3.48834e-05 0)
(0.000871329 2.67798e-05 0)
(0.00160102 -4.21935e-05 0)
(0.00305982 -3.61583e-05 0)
(0.00579167 -2.44653e-05 0)
(0.0111549 0.000180693 0)
(0.0209596 0.000292784 0)
(0.0387832 0.000617243 0)
(0.0700186 0.000877316 0)
(0.125157 0.00116669 0)
(0.213343 0.000567964 0)
(0.362502 0.0011073 0)
(0.590733 0.00357959 0)
(0.930374 0.0115361 0)
(1.4487 0.0117691 0)
(2.13921 0.0237855 0)
(3.14262 0.026122 0)
(4.33635 0.0274186 0)
(5.96599 0.0560159 0)
(7.59083 0.0730219 0)
(9.57065 0.100506 0)
(11.248 0.0703749 0)
(12.9529 -0.0255039 0)
(13.9631 -0.051249 0)
(15.0021 -0.0628697 0)
(15.3977 -0.052391 0)
(15.7716 -0.0427901 0)
(15.9252 -0.00325853 0)
(16.0736 -0.060177 0)
(16.1716 -0.0288802 0)
(16.2662 -0.00879615 0)
(16.3599 0.00232594 0)
(16.3973 -0.0342203 0)
(16.4442 -0.0194762 0)
(16.495 -0.00843977 0)
(16.5136 0.0426108 0)
(16.473 0.114153 0)
(16.4519 0.180205 0)
(16.3385 0.333672 0)
(16.3425 0.330425 0)
(16.2236 0.206082 0)
(16.2268 0.226276 0)
(16.1638 0.145455 0)
(16.1639 0.144355 0)
(16.1054 0.120952 0)
(16.1096 0.0981472 0)
(16.0282 0.037714 0)
(16.0496 0.0326114 0)
(15.9594 0.0296144 0)
(16.0051 0.0211552 0)
(15.8378 -0.0758541 0)
(15.6601 -0.120677 0)
(15.2252 -0.157242 0)
(14.4872 -0.223271 0)
(13.5256 -0.234609 0)
(11.9559 -0.274584 0)
(10.3912 -0.233301 0)
(8.18372 -0.122807 0)
(6.4034 -0.0986195 0)
(4.51178 -0.110623 0)
(3.16509 -0.072352 0)
(2.06808 -0.04571 0)
(1.3067 -0.0216687 0)
(0.801815 -0.0108878 0)
(0.468825 -0.0041918 0)
(0.272182 -0.00207654 0)
(0.159283 -0.00168043 0)
(0.0866153 -0.00128495 0)
(0.0476923 -0.000859369 0)
(0.0251875 -0.000666316 0)
(0.0131789 -0.000309132 0)
(0.0068777 -0.000181339 0)
(0.00345828 -7.12172e-05 0)
(0.00182918 -3.8884e-05 0)
(0.000888947 -1.92826e-05 0)
(0.000458688 -1.62709e-05 0)
(0.000224441 -5.77935e-06 0)
(0.000102612 -4.10023e-06 0)
(5.15049e-05 -1.75751e-06 0)
(2.44433e-05 -1.14855e-06 0)
(1.20022e-05 -5.05367e-07 0)
(5.85734e-06 -2.85921e-07 0)
(3.10387e-06 -4.38821e-08 0)
(1.33899e-06 -4.78331e-08 0)
(6.76082e-07 -4.19706e-08 0)
(2.42816e-07 -7.80878e-08 0)
(5.4429e-08 -6.18214e-08 0)
(-4.12035e-08 -5.18048e-08 0)
(4.45138e-05 -2.47054e-05 0)
(8.95113e-05 -3.08306e-05 0)
(9.88604e-05 -3.80206e-05 0)
(0.000102597 -4.14382e-05 0)
(9.78657e-05 -2.09841e-05 0)
(8.91273e-05 3.36896e-06 0)
(7.43235e-05 3.51035e-05 0)
(7.28252e-05 4.63684e-05 0)
(7.90713e-05 3.89285e-05 0)
(9.43324e-05 2.1602e-05 0)
(0.00014643 8.92052e-06 0)
(0.000277154 1.9662e-05 0)
(0.000557546 5.5245e-05 0)
(0.00106512 6.55947e-05 0)
(0.00193487 0.000163265 0)
(0.00375692 0.000244816 0)
(0.00681419 0.000425999 0)
(0.0131749 0.000802344 0)
(0.0243047 0.00176117 0)
(0.0451455 0.00258945 0)
(0.0812625 0.00452416 0)
(0.143505 0.00744862 0)
(0.245619 0.0112069 0)
(0.417724 0.0207036 0)
(0.669115 0.0350851 0)
(1.08531 0.0699949 0)
(1.62066 0.115478 0)
(2.39515 0.150111 0)
(3.46037 0.184922 0)
(4.82552 0.19605 0)
(6.43835 0.195455 0)
(8.39696 0.194598 0)
(10.0827 0.206873 0)
(11.9147 0.164684 0)
(13.3359 0.0147788 0)
(14.3715 -0.102759 0)
(15.1944 -0.0453316 0)
(15.3516 -0.056047 0)
(15.7702 -0.113615 0)
(15.798 -0.128319 0)
(15.997 -0.147293 0)
(16.0178 -0.13381 0)
(16.1629 -0.116114 0)
(16.1688 -0.103733 0)
(16.2462 -0.0806186 0)
(16.2311 -0.0784094 0)
(16.3196 0.0250356 0)
(16.3244 0.0961107 0)
(16.3435 0.171449 0)
(16.3449 0.279009 0)
(16.3585 0.339825 0)
(16.357 0.377748 0)
(16.4164 0.3375 0)
(16.4092 0.296215 0)
(16.4902 0.158424 0)
(16.4725 0.145519 0)
(16.4875 0.106109 0)
(16.4282 0.0689896 0)
(16.4095 0.0235607 0)
(16.3225 0.0128606 0)
(16.3212 0.026378 0)
(16.2883 0.0294966 0)
(16.339 -0.0580706 0)
(15.9094 -0.165793 0)
(15.8272 -0.147372 0)
(14.6857 -0.27363 0)
(14.1358 -0.309239 0)
(12.2103 -0.401142 0)
(11.0708 -0.341522 0)
(8.62952 -0.165474 0)
(6.96716 -0.248821 0)
(5.0552 -0.353581 0)
(3.54354 -0.260935 0)
(2.36632 -0.155502 0)
(1.51723 -0.0798973 0)
(0.91054 -0.0326734 0)
(0.565771 -0.0222614 0)
(0.31168 -0.0150204 0)
(0.182083 -0.00917154 0)
(0.0997064 -0.00870957 0)
(0.0558376 -0.00537598 0)
(0.0301287 -0.00287114 0)
(0.0163938 -0.00146671 0)
(0.00834995 -0.000779263 0)
(0.00426331 -0.000294593 0)
(0.00216205 -0.000172963 0)
(0.00108104 -0.000103582 0)
(0.000553809 -6.52752e-05 0)
(0.000278034 -4.07872e-05 0)
(0.000134754 -2.09449e-05 0)
(6.62402e-05 -9.8506e-06 0)
(3.07609e-05 -4.04157e-06 0)
(1.52461e-05 -2.07221e-06 0)
(7.57241e-06 -9.56135e-07 0)
(3.18567e-06 -2.89687e-07 0)
(1.70228e-06 -6.95994e-08 0)
(8.02131e-07 -1.94544e-08 0)
(4.19558e-07 -3.44094e-08 0)
(1.02183e-07 -6.15442e-08 0)
(-5.9267e-09 -5.79801e-08 0)
(2.75815e-05 -4.92589e-05 0)
(5.614e-05 -6.05421e-05 0)
(9.29555e-05 -7.34851e-05 0)
(9.60707e-05 -7.76201e-05 0)
(8.39725e-05 -7.59151e-05 0)
(9.15602e-05 -8.82529e-05 0)
(0.000105007 -6.85217e-05 0)
(0.000122759 -6.76064e-05 0)
(0.000137068 -6.69271e-05 0)
(0.000189584 -4.46737e-05 0)
(0.000237964 -3.85732e-05 0)
(0.000416789 -3.25496e-06 0)
(0.000658811 3.95777e-05 0)
(0.00128874 6.15552e-05 0)
(0.00222229 0.000110522 0)
(0.00419511 6.50137e-05 0)
(0.00755575 0.00011181 0)
(0.0142524 3.65661e-05 0)
(0.0262551 0.000830243 0)
(0.0493368 0.000527638 0)
(0.0842028 0.000783225 0)
(0.148832 0.00160743 0)
(0.259495 0.0078687 0)
(0.468837 0.0226073 0)
(0.748458 0.0238802 0)
(1.23576 0.00628067 0)
(1.70609 0.0293716 0)
(3.19967 0.0667 0)
(3.53158 0.0773081 0)
(6.25333 0.209588 0)
(6.41447 0.17783 0)
(9.94646 0.370532 0)
(9.98057 0.369945 0)
(12.6394 0.347591 0)
(13.354 0.272804 0)
(14.9719 0.303861 0)
(15.2882 0.0916583 0)
(15.6423 -0.000511871 0)
(15.79 -0.107272 0)
(15.9215 -0.160373 0)
(15.9518 -0.18695 0)
(16.0329 -0.200584 0)
(16.0832 -0.222275 0)
(16.1573 -0.175982 0)
(16.1611 -0.147125 0)
(16.1889 -0.0534623 0)
(16.2057 -0.00551196 0)
(16.3031 0.049853 0)
(16.3133 0.112167 0)
(16.348 0.145344 0)
(16.3725 0.203052 0)
(16.5296 0.200905 0)
(16.5369 0.242883 0)
(16.7209 0.171427 0)
(16.7245 0.163577 0)
(16.8203 0.121894 0)
(16.8085 0.0820061 0)
(16.8042 0.0510485 0)
(16.6979 -0.00944162 0)
(16.7173 -0.00674095 0)
(16.6099 -0.0705525 0)
(16.6476 -0.145925 0)
(16.4819 -0.183077 0)
(16.3622 -0.185942 0)
(15.7429 -0.236883 0)
(15.2242 -0.214361 0)
(13.7474 -0.231489 0)
(12.8031 -0.190188 0)
(10.7983 -0.0772935 0)
(9.4849 -0.109271 0)
(6.90305 -0.0211742 0)
(5.69501 -0.00157365 0)
(3.59632 -0.0466854 0)
(2.48792 -0.0275101 0)
(1.56431 -0.0118053 0)
(0.922804 -0.000967529 0)
(0.640843 -0.000809933 0)
(0.330656 -0.00265334 0)
(0.190911 -0.00513815 0)
(0.112667 -0.00394764 0)
(0.0646635 -0.00195699 0)
(0.0319313 -0.000853818 0)
(0.0188559 -0.000350967 0)
(0.00871686 -0.000132554 0)
(0.00504526 -7.47373e-05 0)
(0.00225105 -4.91769e-05 0)
(0.00120371 -3.56303e-05 0)
(0.00062199 -2.27195e-05 0)
(0.00031107 -1.1233e-05 0)
(0.000152349 -5.45858e-06 0)
(7.66691e-05 -3.21304e-06 0)
(3.65259e-05 -1.44986e-06 0)
(1.86508e-05 -4.47742e-07 0)
(8.77991e-06 -2.57664e-07 0)
(3.72486e-06 -1.60805e-07 0)
(1.87425e-06 1.12774e-08 0)
(9.99955e-07 7.2156e-08 0)
(5.56109e-07 3.28384e-08 0)
(2.83907e-07 -4.14205e-08 0)
(9.61269e-08 -4.88749e-08 0)
(-1.85296e-05 -8.76544e-05 0)
(3.05847e-05 -9.40892e-05 0)
(3.65529e-05 -0.000132026 0)
(6.34208e-05 -0.000159324 0)
(7.81386e-05 -0.000179419 0)
(7.75802e-05 -0.000175501 0)
(0.000116481 -0.000194741 0)
(0.000137389 -0.000176291 0)
(0.000183693 -0.000163988 0)
(0.000230539 -0.000124258 0)
(0.000284935 -0.000101407 0)
(0.000443501 -5.44458e-05 0)
(0.000726597 -2.5081e-06 0)
(0.00128624 0.000100581 1.98852e-31)
(0.00209635 6.95149e-05 0)
(0.00400288 0.00011794 0)
(0.0071021 -1.04711e-05 0)
(0.0140151 0.000119565 0)
(0.0262905 0.000275625 0)
(0.0482495 0.000588288 0)
(0.0815921 -9.24491e-05 0)
(0.147644 -0.000916975 0)
(0.265007 0.000564403 0)
(0.436024 0.000684198 0)
(0.836762 0.00737602 0)
(1.14516 -0.0037307 0)
(1.74911 -0.0204578 0)
(2.7618 0.0227075 0)
(3.64333 0.0648692 0)
(5.41198 0.148433 0)
(6.64779 0.265523 0)
(8.76381 0.38376 1.80603e-31)
(10.2082 0.387377 0)
(12.0789 0.335353 0)
(13.7115 0.357322 0)
(14.6034 0.354949 0)
(15.8252 0.292146 -1.78482e-31)
(15.7798 0.133167 0)
(16.0106 0.0274363 0)
(15.9759 -0.0440512 1.77746e-31)
(16.1448 -0.225912 0)
(16.0753 -0.201227 0)
(16.1421 -0.231263 0)
(16.1728 -0.262845 -1.80658e-31)
(16.2162 -0.203903 0)
(16.2119 -0.120736 0)
(16.2742 -0.0786604 0)
(16.2809 -0.0240281 0)
(16.3296 0.00181222 0)
(16.3676 0.0439811 0)
(16.5438 -0.0707831 0)
(16.5634 -0.0551178 0)
(16.7471 -0.0246792 0)
(16.7831 -0.0299196 0)
(16.9343 -0.0446517 0)
(16.9335 -0.0502504 -7.11983e-32)
(16.9357 -0.0643828 8.71533e-32)
(16.8917 -0.0695179 0)
(16.8453 -0.0837664 0)
(16.7606 -0.0780354 -8.31264e-32)
(16.7762 -0.0554516 0)
(16.6695 -0.208199 0)
(16.6041 -0.174214 0)
(16.2432 -0.170661 0)
(15.9214 -0.141998 0)
(14.9633 -0.0975156 0)
(14.0478 -0.0715482 0)
(12.6878 0.00138435 0)
(10.8741 0.0746194 0)
(9.13564 0.0394269 0)
(7.10212 0.0727729 0)
(5.28592 0.132482 9.16359e-32)
(3.48325 0.0543988 0)
(2.31517 0.00606965 0)
(1.44736 -0.00450251 0)
(0.891989 -0.00604045 0)
(0.558252 -0.00603793 0)
(0.313893 -0.00508024 0)
(0.18885 -0.00499226 0)
(0.10805 0.000332005 0)
(0.0609559 0.000604218 0)
(0.0320247 9.03484e-05 0)
(0.0175276 -4.20139e-05 0)
(0.00855594 -0.000118355 0)
(0.00453421 -3.64906e-05 0)
(0.00234647 -1.03757e-05 0)
(0.00119754 -1.99633e-06 0)
(0.00060941 9.85475e-06 0)
(0.000314059 -6.95766e-07 0)
(0.000152155 7.55928e-07 0)
(7.58283e-05 1.78855e-07 0)
(3.59341e-05 3.24827e-07 -8.28721e-32)
(1.68528e-05 5.13335e-07 0)
(9.17266e-06 3.5628e-07 -1.02959e-31)
(3.8776e-06 -6.4302e-08 0)
(1.90038e-06 1.20279e-08 0)
(1.0926e-06 8.49895e-08 0)
(6.26674e-07 5.6973e-08 0)
(3.69308e-07 -2.26195e-08 0)
(1.45201e-07 -3.75989e-08 0)
(-5.6327e-05 -0.000115704 0)
(-4.90394e-05 -0.000140273 0)
(-7.62992e-06 -0.000172945 0)
(5.55823e-05 -0.000228162 0)
(4.45943e-05 -0.000220705 0)
(8.98827e-05 -0.000277183 0)
(9.56575e-05 -0.00027736 0)
(0.000149501 -0.000285911 0)
(0.000190301 -0.000254955 0)
(0.00027349 -0.000194638 0)
(0.00030433 -0.000146176 0)
(0.000412947 -8.85964e-05 0)
(0.000673635 -2.28641e-05 0)
(0.00121187 2.83299e-05 -1.83162e-31)
(0.00190545 6.91386e-05 0)
(0.00381775 0.000105558 0)
(0.0067627 0.000140549 0)
(0.0132134 0.000271171 0)
(0.0247611 0.000132794 0)
(0.0502089 0.000865492 0)
(0.08377 0.000111025 0)
(0.145966 -0.000283237 0)
(0.260446 -0.000576639 0)
(0.403539 -0.00443721 0)
(0.750385 -0.00291239 0)
(1.08186 0.0136442 0)
(1.69871 0.0177601 0)
(2.37594 0.0201713 0)
(3.65196 0.0865044 0)
(4.80107 0.125088 0)
(6.77837 0.164056 0)
(8.39415 0.166065 -1.35597e-31)
(10.4949 0.172675 0)
(12.3344 0.216376 0)
(13.6383 0.346061 0)
(15.0327 0.319533 0)
(15.5851 0.332685 1.61445e-31)
(16.1422 0.328346 0)
(16.2121 0.365894 0)
(16.3257 -0.09054 -1.89156e-31)
(16.233 -0.114577 0)
(16.2534 -0.174782 0)
(16.2294 -0.215243 0)
(16.2579 -0.22262 1.44149e-31)
(16.2446 -0.220161 0)
(16.2509 -0.12462 0)
(16.253 -0.127325 0)
(16.3506 -0.12718 0)
(16.3627 -0.13205 0)
(16.5274 -0.244992 0)
(16.5411 -0.195785 0)
(16.6564 -0.226894 0)
(16.6879 -0.22257 0)
(16.803 -0.248193 0)
(16.8207 -0.279466 0)
(16.8883 -0.274717 8.93067e-32)
(16.8719 -0.225082 -6.68553e-32)
(16.8518 -0.198056 0)
(16.7838 -0.0880113 0)
(16.7129 -0.0628375 7.41897e-32)
(16.6666 -0.102048 0)
(16.6451 -0.090713 0)
(16.5793 -0.105414 0)
(16.3139 0.022861 0)
(15.898 0.0736228 0)
(15.1408 0.200772 0)
(14.192 0.0979112 0)
(12.7557 0.140633 0)
(11.1296 0.180362 0)
(9.0438 0.109657 0)
(7.06231 0.168798 0)
(5.33054 0.181134 -9.51192e-32)
(3.6587 0.0917656 0)
(2.48418 0.0336916 0)
(1.59863 -0.00671416 0)
(0.965138 -0.0135492 0)
(0.590983 -0.0134469 0)
(0.336536 -0.00969415 0)
(0.18785 -0.00292465 0)
(0.0997304 0.00147764 0)
(0.0619868 0.000769312 0)
(0.0319932 0.000287111 0)
(0.0182471 -0.000167493 0)
(0.00921759 -0.000124972 0)
(0.00435119 -0.000106309 0)
(0.002248 -3.7576e-06 0)
(0.00109508 -7.80731e-07 0)
(0.00056564 6.27306e-06 0)
(0.00028998 1.52766e-06 0)
(0.000139822 2.87697e-06 0)
(6.73989e-05 1.01189e-06 0)
(3.14261e-05 7.80167e-07 7.08486e-32)
(1.47006e-05 1.39719e-07 0)
(7.86114e-06 9.47627e-08 9.2502e-32)
(4.22902e-06 -9.34878e-09 0)
(1.92452e-06 -1.29831e-08 0)
(1.16857e-06 2.44859e-08 0)
(6.48278e-07 2.63966e-08 0)
(3.62713e-07 -1.89691e-08 0)
(1.2517e-07 -4.11591e-08 0)
(-7.82129e-05 -0.000121823 0)
(-8.17963e-05 -0.000127985 0)
(-3.19206e-05 -0.00018533 0)
(-8.5638e-06 -0.000201813 0)
(2.64412e-05 -0.00024729 0)
(4.32242e-05 -0.00029316 0)
(6.38954e-05 -0.000338976 0)
(9.21304e-05 -0.000334364 0)
(0.000126945 -0.000314627 0)
(0.000179607 -0.000261742 0)
(0.000238097 -0.000213821 0)
(0.000366541 -0.000136846 0)
(0.000642612 -3.88969e-05 0)
(0.00112735 2.15196e-06 0)
(0.00195739 3.06805e-05 0)
(0.00440286 3.94197e-05 0)
(0.00677297 8.51648e-05 0)
(0.0137693 -0.000159063 0)
(0.0245761 -0.000516336 0)
(0.0490403 -0.00128887 0)
(0.0830738 -0.000870433 0)
(0.144373 -0.000688699 0)
(0.263988 -0.000798432 0)
(0.430213 -0.00426628 0)
(0.70194 -0.00924725 0)
(1.08731 -0.00145365 0)
(1.65435 0.0094595 0)
(2.49767 -0.00137296 0)
(3.49561 0.0261475 0)
(4.9772 0.0444172 0)
(6.48082 0.0365395 0)
(8.43503 0.0340593 0)
(10.3153 0.105446 0)
(12.1498 0.312181 0)
(13.4898 0.346086 0)
(14.8381 0.301528 0)
(15.4991 0.279982 0)
(16.066 0.336241 0)
(16.292 0.336534 0)
(16.3929 0.24966 0)
(16.3916 0.163066 0)
(16.3583 0.00746591 0)
(16.3717 -0.0746767 0)
(16.3458 -0.153207 0)
(16.3478 -0.178583 0)
(16.3355 -0.174482 0)
(16.4325 -0.244366 0)
(16.4167 -0.225207 0)
(16.5126 -0.273951 0)
(16.5283 -0.289924 0)
(16.6131 -0.308429 0)
(16.6229 -0.313807 0)
(16.6902 -0.355056 0)
(16.6731 -0.336226 0)
(16.6955 -0.308673 0)
(16.6504 -0.292099 0)
(16.6277 -0.281482 0)
(16.5803 -0.204448 0)
(16.539 -0.170666 0)
(16.5012 -0.146795 0)
(16.4182 -0.160901 0)
(16.5027 -0.139892 0)
(16.2857 -0.00154659 0)
(16.1544 0.0306503 0)
(15.6269 0.108826 0)
(15.0282 0.178148 0)
(13.9689 0.274438 0)
(12.6489 0.266005 0)
(11.0501 0.251584 0)
(9.4431 0.275834 0)
(6.84481 0.230013 0)
(5.77627 0.228902 0)
(3.72677 0.159272 0)
(2.61539 0.121984 0)
(1.69137 0.050478 0)
(0.974525 0.0164462 0)
(0.615293 0.00903763 0)
(0.345708 0.00916202 0)
(0.194809 0.00464978 0)
(0.103785 0.00331875 0)
(0.0729807 0.001229 0)
(0.0313609 0.000864716 0)
(0.0214556 0.000349616 0)
(0.0091671 0.00026591 0)
(0.00486564 3.96077e-05 0)
(0.00224699 2.92882e-05 0)
(0.00115037 1.61431e-05 0)
(0.000562011 1.28327e-05 0)
(0.000280247 8.01828e-06 0)
(0.000140936 4.123e-06 0)
(6.75848e-05 1.6012e-06 0)
(3.29197e-05 7.20636e-07 0)
(1.57506e-05 -1.03414e-08 0)
(8.083e-06 1.97535e-08 0)
(4.07526e-06 2.42713e-08 0)
(1.98697e-06 -8.0767e-09 0)
(9.7071e-07 9.00803e-09 0)
(5.18656e-07 3.98576e-08 0)
(2.64021e-07 -1.71893e-08 0)
(5.83991e-08 -5.16072e-08 0)
(-6.49102e-05 -9.04366e-05 0)
(-6.90035e-05 -9.68764e-05 0)
(-7.95459e-06 -0.000141567 0)
(6.32861e-06 -0.000190251 0)
(2.13606e-05 -0.000222306 0)
(5.62832e-05 -0.000286161 0)
(4.78569e-05 -0.00029084 0)
(5.6831e-05 -0.000297127 0)
(5.9705e-05 -0.000286428 0)
(9.32807e-05 -0.000262294 0)
(0.000158741 -0.000198353 0)
(0.000250076 -0.000145995 0)
(0.000544918 -7.0378e-05 0)
(0.00103513 -2.92771e-05 0)
(0.00186374 -8.98242e-05 0)
(0.00393525 -0.000176814 0)
(0.0067213 -0.000246516 0)
(0.0130254 -0.000440386 0)
(0.0238108 -0.00116444 0)
(0.0442686 -0.00227229 0)
(0.0792533 -0.00348406 0)
(0.144185 -0.00609038 0)
(0.248712 -0.0128457 0)
(0.424248 -0.0194207 0)
(0.691146 -0.0275181 0)
(1.04368 -0.030013 0)
(1.71139 -0.0379862 0)
(2.41547 -0.0128575 0)
(3.71992 -0.0169946 0)
(4.81088 -0.0018329 0)
(6.86491 0.0106856 0)
(8.08216 0.0257568 0)
(10.5772 0.14774 0)
(11.5817 0.240458 0)
(13.8035 0.292975 0)
(14.3673 0.239554 0)
(15.6611 0.200796 0)
(15.8533 0.220434 0)
(16.3408 0.302528 0)
(16.4416 0.33714 0)
(16.5268 0.263836 0)
(16.5779 0.0695748 0)
(16.5621 -0.0382259 0)
(16.566 -0.07024 0)
(16.5349 -0.0909414 0)
(16.5452 -0.146985 0)
(16.5415 -0.227593 0)
(16.5885 -0.282311 0)
(16.5876 -0.316856 0)
(16.6295 -0.328282 0)
(16.6304 -0.327577 0)
(16.6504 -0.309005 0)
(16.6241 -0.324137 0)
(16.603 -0.329388 0)
(16.5087 -0.366128 0)
(16.4414 -0.380352 0)
(16.3489 -0.363416 0)
(16.2775 -0.308432 0)
(16.2046 -0.264852 0)
(16.1259 -0.198163 0)
(16.1002 -0.129569 0)
(16.0608 -0.0416179 0)
(16.0998 0.0122117 0)
(15.7438 0.110489 0)
(15.6799 0.0861016 0)
(14.5642 0.201126 0)
(14.1319 0.291569 0)
(12.1471 0.348226 0)
(11.0031 0.278477 0)
(8.88456 0.210825 0)
(6.79515 0.193693 0)
(5.12147 0.203543 0)
(3.47831 0.240693 0)
(2.30474 0.167175 0)
(1.47702 0.125095 0)
(0.897634 0.0759188 0)
(0.537832 0.0410473 0)
(0.314133 0.0289383 0)
(0.182125 0.0178031 0)
(0.100268 0.00855266 0)
(0.0561709 0.00577473 0)
(0.0295019 0.00313862 0)
(0.0161967 0.0019028 0)
(0.00828819 0.000985161 0)
(0.00424299 0.00048173 0)
(0.00218027 0.000207142 0)
(0.00106871 0.000113492 0)
(0.000549009 5.43346e-05 0)
(0.000271201 3.08642e-05 0)
(0.000130008 1.2944e-05 0)
(6.60567e-05 7.08542e-06 0)
(3.02555e-05 2.32334e-06 0)
(1.54974e-05 1.30017e-06 0)
(7.49201e-06 5.90388e-07 0)
(3.19215e-06 2.09904e-07 0)
(1.5803e-06 2.32125e-08 0)
(6.0505e-07 -2.07554e-08 0)
(2.13125e-07 -3.67683e-08 0)
(3.47391e-08 -4.3966e-08 0)
(-5.21048e-08 -6.78184e-08 0)
(-5.65753e-05 -6.58314e-05 0)
(-4.80429e-05 -4.5493e-05 0)
(2.72738e-05 -0.000125951 0)
(1.56077e-05 -0.00012549 0)
(2.19638e-05 -0.000194175 0)
(-4.29747e-06 -0.000193845 0)
(1.8471e-06 -0.000209136 0)
(-3.17497e-05 -0.000177419 0)
(-2.41922e-05 -0.000173443 0)
(2.38926e-05 -0.000177357 0)
(2.63273e-05 -0.000144812 0)
(0.000162893 -0.000111712 0)
(0.000404544 -2.47141e-05 0)
(0.00083595 7.14687e-06 0)
(0.00160841 -1.49741e-06 0)
(0.00301639 -3.91552e-05 0)
(0.00584127 -7.09202e-05 0)
(0.0111034 -5.03709e-05 0)
(0.0210898 -1.19362e-05 0)
(0.0391847 -8.11068e-05 0)
(0.0714884 4.4198e-06 0)
(0.126685 -0.000675477 0)
(0.218293 -0.00186375 0)
(0.367877 -0.0037992 0)
(0.620523 -0.00501909 0)
(0.984666 -0.00902315 0)
(1.59252 -0.00448167 0)
(2.35526 0.00719606 0)
(3.59116 0.0139944 0)
(4.78698 0.0224438 0)
(6.70203 0.0646667 0)
(8.09058 0.0756488 0)
(10.3292 0.111751 0)
(11.6312 0.13708 0)
(13.5366 0.126542 0)
(14.4992 0.122943 0)
(15.471 0.0625716 0)
(15.8926 0.110193 0)
(16.3109 0.146658 0)
(16.4952 0.127409 0)
(16.6522 0.0823173 0)
(16.715 0.0427784 0)
(16.724 -0.00153217 0)
(16.7209 -0.0324353 0)
(16.7248 -0.0655142 0)
(16.7352 -0.104176 0)
(16.7476 -0.144369 0)
(16.7099 -0.20154 0)
(16.7248 -0.208835 0)
(16.6757 -0.217665 0)
(16.6865 -0.196496 0)
(16.6452 -0.203527 0)
(16.6148 -0.227685 0)
(16.5333 -0.219662 0)
(16.4685 -0.260763 0)
(16.3463 -0.29263 0)
(16.2459 -0.307626 0)
(16.1272 -0.239216 0)
(16.0443 -0.194431 0)
(15.9803 -0.143653 0)
(15.9348 -0.0690157 0)
(15.9238 0.00461953 0)
(15.8611 0.0961672 0)
(15.6667 0.144788 0)
(15.3446 0.149767 0)
(14.5828 0.180082 0)
(13.7524 0.213354 0)
(12.0496 0.235657 0)
(10.4632 0.131919 0)
(8.2502 0.0563417 0)
(6.31407 0.0408802 0)
(4.42238 0.0523921 0)
(3.12002 0.0465349 0)
(2.01756 0.0422883 0)
(1.28822 0.031687 0)
(0.791867 0.0253277 0)
(0.468633 0.0154196 0)
(0.275616 0.00511254 0)
(0.153484 0.00435668 0)
(0.0854469 0.0018978 0)
(0.0447533 0.00145364 0)
(0.0247614 0.00056612 0)
(0.0126204 0.000495658 0)
(0.0068239 0.000186718 0)
(0.00337995 0.000140376 0)
(0.00176387 5.69758e-05 0)
(0.00087229 3.16164e-05 0)
(0.000435594 1.79433e-05 0)
(0.000218432 6.90225e-06 0)
(0.000106261 5.78332e-06 0)
(4.99275e-05 2.15206e-06 0)
(2.6011e-05 1.54612e-06 0)
(1.17171e-05 6.39966e-07 0)
(5.12515e-06 2.84044e-08 0)
(2.73359e-06 -3.62063e-08 0)
(1.30878e-06 -9.00313e-08 0)
(3.70488e-07 -9.49151e-08 0)
(9.36768e-08 -1.2924e-07 0)
(-4.12141e-08 -1.24705e-07 0)
(-9.7548e-08 -1.26462e-07 0)
(-7.00887e-05 -1.72811e-05 0)
(-3.14653e-05 -2.96241e-05 0)
(5.45683e-07 -4.11666e-05 0)
(1.32121e-05 -7.70974e-05 0)
(1.05015e-05 -8.3262e-05 0)
(-1.89571e-05 -9.39781e-05 0)
(-5.80069e-05 -6.90849e-05 0)
(-6.06158e-05 -6.94716e-05 0)
(-4.22113e-05 -7.46182e-05 0)
(-1.12419e-05 -9.38513e-05 0)
(6.28857e-06 -8.50019e-05 0)
(0.000106575 -5.4502e-05 0)
(0.000356533 2.10561e-06 0)
(0.000872 5.94748e-05 0)
(0.00180311 4.46227e-05 0)
(0.00338148 2.79803e-05 0)
(0.00656154 2.57434e-06 0)
(0.0124994 6.33717e-05 0)
(0.0228753 0.000106511 0)
(0.0419239 0.000315018 0)
(0.077445 0.000615745 0)
(0.133302 0.00108434 0)
(0.239518 0.00158949 0)
(0.402169 0.00204078 0)
(0.675218 0.00293103 0)
(1.09271 0.00423406 0)
(1.6968 0.00801033 0)
(2.59508 0.0140151 0)
(3.7089 0.0154354 0)
(5.19567 0.0286636 0)
(6.75961 0.0412664 0)
(8.62568 0.0585648 0)
(10.3142 0.0796335 0)
(12.1879 0.0797858 0)
(13.4723 0.0891511 0)
(14.96 0.0621986 0)
(15.4593 0.0384325 0)
(16.0593 0.0693318 0)
(16.3358 0.111648 0)
(16.5735 0.109212 0)
(16.7099 0.06951 0)
(16.7702 0.0437726 0)
(16.8203 0.0243421 0)
(16.8268 -0.0022369 0)
(16.8369 -0.047344 0)
(16.8456 -0.0541161 0)
(16.8419 -0.112303 0)
(16.8215 -0.135276 0)
(16.7637 -0.194025 0)
(16.7196 -0.182429 0)
(16.6557 -0.150888 0)
(16.6201 -0.114755 0)
(16.576 -0.0631172 0)
(16.5234 -0.0998761 0)
(16.4543 -0.118094 0)
(16.3378 -0.148987 0)
(16.2017 -0.143005 0)
(16.1075 -0.0702768 0)
(16.0283 -0.0929601 0)
(15.9587 -0.0395786 0)
(15.9349 -0.00405618 0)
(15.8994 0.0629825 0)
(15.8783 0.144977 0)
(15.77 0.182461 0)
(15.4675 0.163799 0)
(14.93 0.159318 0)
(13.9081 0.151286 0)
(12.5735 0.115833 0)
(10.7145 0.0670005 0)
(8.66613 0.013934 0)
(6.62305 -0.00660594 0)
(4.71296 -0.00602956 0)
(3.28884 0.00098224 0)
(2.17026 0.00147281 0)
(1.34631 0.0072741 0)
(0.852887 0.00668385 0)
(0.498972 0.00286593 0)
(0.290195 0.000555603 0)
(0.163569 0.000683914 0)
(0.0918899 0.000262838 0)
(0.0485967 0.000156017 0)
(0.0267057 2.41281e-05 0)
(0.0139965 5.80337e-05 0)
(0.00726773 3.06988e-05 0)
(0.00377985 1.99264e-05 0)
(0.00185107 7.76982e-06 0)
(0.000962116 1.58109e-06 0)
(0.000464225 1.73523e-06 0)
(0.000237956 1.46706e-07 0)
(0.000115887 5.94222e-07 0)
(5.54398e-05 1.02623e-08 0)
(2.74228e-05 2.30096e-07 0)
(1.28909e-05 -3.11288e-07 0)
(5.92801e-06 -1.16121e-07 0)
(2.90493e-06 -6.93962e-08 0)
(1.34113e-06 -1.49489e-08 0)
(3.49586e-07 -8.29336e-09 0)
(5.83363e-08 2.54786e-08 0)
(-8.72e-08 5.06675e-08 0)
(-1.20394e-07 3.90203e-08 0)
)
;

boundaryField
{
    sides1
    {
        type            zeroGradient;
    }
    sides2
    {
        type            slip;
    }
    empty
    {
        type            empty;
    }
}


// ************************************************************************* //
