/*--------------------------------*- C++ -*----------------------------------*\
| =========                 |                                                 |
| \\      /  F ield         | OpenFOAM: The Open Source CFD Toolbox           |
|  \\    /   O peration     | Version:  3.0.1                                 |
|   \\  /    A nd           | Web:      www.OpenFOAM.org                      |
|    \\/     M anipulation  |                                                 |
\*---------------------------------------------------------------------------*/
FoamFile
{
    version     2.0;
    format      ascii;
    class       volVectorField;
    location    "0.04";
    object      U;
}
// * * * * * * * * * * * * * * * * * * * * * * * * * * * * * * * * * * * * * //

dimensions      [0 1 -1 0 0 0 0];

internalField   nonuniform List<vector> 
50
(
(89.7279 -0.00157647 0)
(93.3186 -0.00156957 0)
(96.2113 -0.00161125 0)
(99.0198 -0.00158107 -9.9207e-15)
(102.228 -0.00155068 -1.01751e-14)
(105.617 -0.00146898 -1.05118e-14)
(109.225 -0.00143276 0)
(113.111 -0.00141881 0)
(117.293 -0.0013476 -1.15612e-14)
(121.81 -0.0014803 -1.19598e-14)
(126.708 -0.00160039 0)
(132.039 -0.00149121 -1.28426e-14)
(137.867 -0.00188191 0)
(144.271 -0.00214163 0)
(151.347 -0.00190739 -1.44285e-14)
(159.218 -0.00270027 0)
(168.041 -0.0023509 -1.57063e-14)
(178.025 -0.00193892 0)
(189.45 -0.00296798 0)
(202.72 -5.58159e-06 0)
(218.438 0.00404217 0)
(237.597 -0.0264652 0)
(262.037 -0.0668952 0)
(295.823 0.465734 0)
(350.46 0.0518005 0)
(451.35 -5.61969 0)
(522.803 5.64652 0)
(562.221 6.05521 0)
(588.536 -1.04397 0)
(609.287 -1.79674 0)
(626.838 -4.61337 0)
(641.455 -3.90147 0)
(654.203 0.17753 0)
(665.712 0.8258 9.3083e-15)
(676.469 3.6704 0)
(684.64 3.2007 7.92531e-15)
(697.327 0.799208 0)
(696.597 -0.46686 0)
(433.807 3.19761 9.9229e-15)
(242.736 7.22425 0)
(215.299 -13.2942 1.20298e-14)
(205.3 -7.65649 1.12244e-14)
(195.773 1.19285 0)
(187.309 7.31302 0)
(179.642 5.96496 1.01436e-14)
(173.447 0.594788 0)
(167.253 -3.42061 9.64041e-15)
(162.203 -2.90849 0)
(159.491 0.1344 0)
(153.916 0.755257 0)
)
;

boundaryField
{
    inlet
    {
        type            zeroGradient;
    }
    outlet
    {
        type            zeroGradient;
    }
    upperWall
    {
        type            slip;
    }
    lowerWall
    {
        type            slip;
    }
    frontAndBack
    {
        type            empty;
    }
}


// ************************************************************************* //
