/*--------------------------------*- C++ -*----------------------------------*\
| =========                 |                                                 |
| \\      /  F ield         | OpenFOAM: The Open Source CFD Toolbox           |
|  \\    /   O peration     | Version:  2012                                  |
|   \\  /    A nd           | Website:  www.openfoam.com                      |
|    \\/     M anipulation  |                                                 |
\*---------------------------------------------------------------------------*/
FoamFile
{
    version     2.0;
    format      ascii;
    class       volScalarField;
    location    "0.006";
    object      volumeFraction1;
}
// * * * * * * * * * * * * * * * * * * * * * * * * * * * * * * * * * * * * * //

dimensions      [0 0 0 0 0 0 0];


internalField   nonuniform List<scalar> 
200
(
5.58146924e-115
5.580280587e-115
5.580478696e-115
5.518866859e-115
5.937129567e-115
1.181251743e-115
4.808385099e-114
-4.276081379e-113
4.373258214e-112
-4.411516198e-111
4.455648631e-110
-4.499729524e-109
4.544288839e-108
-4.58928591e-107
4.634728815e-106
-4.680621673e-105
4.726968961e-104
-4.773775178e-103
4.821044868e-102
-4.868782619e-101
4.916993068e-100
-4.965680894e-99
5.014850825e-98
-5.064507634e-97
5.114656142e-96
-5.165301219e-95
5.21644778e-94
-5.268100792e-93
5.32026527e-92
-5.372946278e-91
5.426148931e-90
-5.479878393e-89
5.534139883e-88
-5.588938667e-87
5.644280065e-86
-5.700169452e-85
5.756612253e-84
-5.813613947e-83
5.87118007e-82
-5.929316209e-81
5.98802801e-80
-6.047321172e-79
6.107201452e-78
-6.167674664e-77
6.228746678e-76
-6.290423425e-75
6.352710892e-74
-6.415615126e-73
6.479142235e-72
-6.543298386e-71
6.608089809e-70
-6.673522792e-69
6.739603691e-68
-6.806338918e-67
6.873734955e-66
-6.941798345e-65
7.010535694e-64
-7.079953678e-63
7.150059035e-62
-7.220858571e-61
7.292359162e-60
-7.364567747e-59
7.437491339e-58
-7.511137016e-57
7.58551193e-56
-7.6606233e-55
7.736478419e-54
-7.813084652e-53
7.890449436e-52
-7.968580283e-51
8.047484777e-50
-8.12717058e-49
8.207645428e-48
-8.288917134e-47
8.370993588e-46
-8.453882759e-45
8.537592695e-44
-8.622131523e-43
8.70750745e-42
-8.793728765e-41
8.88080384e-40
-8.968741127e-39
9.057549166e-38
-9.147236577e-37
9.237812069e-36
-9.329284434e-35
9.421662555e-34
-9.514955399e-33
9.609172025e-32
-9.704321579e-31
9.800413299e-30
-9.897456515e-29
9.995460648e-28
-1.009443521e-26
1.019438982e-25
-1.029533417e-24
1.039727807e-23
-1.050023141e-22
1.060420419e-21
-1.114990652e-19
1.650704328e-07
3.224693782e-06
3.128308619e-05
0.0002008266696
0.0009591998403
0.003633447535
0.01136279452
0.03015436169
0.06927873295
0.1398955723
0.251349057
0.4053552014
0.5923951672
0.7581098803
0.8666206552
0.9311109983
0.9664675645
0.9845374197
0.9932153264
0.9971563639
0.998857723
0.9995589384
0.9998358698
0.9999410007
0.9999794706
0.9999930722
0.9999977289
0.9999992756
0.9999997749
0.9999999318
0.9999999798
0.9999999941
0.9999999983
0.9999999995
0.9999999999
1
1
1
1
1
1
1
1
1
1
1
1
1
1
1
1
1
1
1
1
1
1
1
1
1
1
1
1
1
1
1
1
1
1
1
1
1
1
1
1
1
1
1
1
1
1
1
1
1
1
1
1
1
1
1
1
1
1
1
1
1
1
1
1
1
)
;

boundaryField
{
    sides
    {
        type            zeroGradient;
    }
    empty1
    {
        type            empty;
    }
    empty2
    {
        type            empty;
    }
}


// ************************************************************************* //
