/*--------------------------------*- C++ -*----------------------------------*\
| =========                 |                                                 |
| \\      /  F ield         | OpenFOAM: The Open Source CFD Toolbox           |
|  \\    /   O peration     | Version:  2012                                  |
|   \\  /    A nd           | Website:  www.openfoam.com                      |
|    \\/     M anipulation  |                                                 |
\*---------------------------------------------------------------------------*/
FoamFile
{
    version     2.0;
    format      ascii;
    class       volVectorField;
    location    "0.09";
    object      U;
}
// * * * * * * * * * * * * * * * * * * * * * * * * * * * * * * * * * * * * * //

dimensions      [0 1 -1 0 0 0 0];


internalField   nonuniform List<vector> 
2268
(
(0.0285944 -0.0134353 0)
(0.0851442 -0.0135515 0)
(0.143218 -0.0138547 0)
(0.202519 -0.0142352 0)
(0.263557 -0.0148345 0)
(0.328261 -0.0155782 0)
(0.395189 -0.0164947 0)
(0.468187 -0.0177669 0)
(0.545264 -0.0191024 0)
(0.630283 -0.0211348 0)
(0.723886 -0.0227036 0)
(0.823616 -0.025283 0)
(0.938749 -0.0303557 0)
(1.07992 -0.0383682 0)
(1.25289 -0.0405965 0)
(1.40983 -0.0264728 0)
(1.48018 -0.0106856 0)
(1.51728 -0.00788358 0)
(1.55816 -0.0130788 0)
(1.6108 -0.0106154 0)
(1.61136 0.0520592 0)
(1.05786 0.174165 0)
(0.309431 0.1564 0)
(0.0285399 -0.0403048 0)
(0.084949 -0.0406522 0)
(0.142901 -0.0415643 0)
(0.202055 -0.0427028 0)
(0.262936 -0.0445061 0)
(0.32747 -0.046737 0)
(0.394195 -0.0494954 0)
(0.466951 -0.0533319 0)
(0.543819 -0.0572937 0)
(0.62829 -0.0635065 0)
(0.721899 -0.0684796 0)
(0.822014 -0.0763859 0)
(0.937125 -0.090595 0)
(1.07607 -0.110439 0)
(1.23649 -0.115418 0)
(1.37487 -0.0808685 0)
(1.46639 -0.0402605 0)
(1.53555 -0.0291188 0)
(1.59979 -0.0345049 0)
(1.6392 -0.0071114 0)
(1.55038 0.191911 0)
(0.939923 0.446814 0)
(0.300836 0.487886 0)
(0.0284318 -0.0670566 0)
(0.0845563 -0.0676311 0)
(0.142266 -0.0691453 0)
(0.201121 -0.0710291 0)
(0.261687 -0.0740189 0)
(0.325871 -0.0777168 0)
(0.392197 -0.0822722 0)
(0.464404 -0.08865 0)
(0.540897 -0.0951371 0)
(0.624315 -0.105511 0)
(0.717551 -0.114068 0)
(0.817728 -0.127101 0)
(0.931927 -0.150245 0)
(1.06904 -0.180057 0)
(1.22026 -0.181635 0)
(1.34122 -0.134922 0)
(1.44937 -0.0867532 0)
(1.55104 -0.0716506 0)
(1.63609 -0.0627414 0)
(1.64576 0.0108233 0)
(1.32429 0.397966 0)
(0.722477 0.746174 0)
(0.236259 0.740416 0)
(0.028272 -0.0936904 0)
(0.0839743 -0.0944849 0)
(0.141329 -0.0965995 0)
(0.199739 -0.0992095 0)
(0.259851 -0.103377 0)
(0.323506 -0.108525 0)
(0.389281 -0.114828 0)
(0.460632 -0.123783 0)
(0.53662 -0.132667 0)
(0.618596 -0.14721 0)
(0.710876 -0.15973 0)
(0.810804 -0.177802 0)
(0.923289 -0.209296 0)
(1.05797 -0.246996 0)
(1.19941 -0.244182 0)
(1.31553 -0.189659 0)
(1.43553 -0.140353 0)
(1.56279 -0.118051 0)
(1.65638 -0.0774113 0)
(1.54821 0.143536 0)
(0.988635 0.640474 0)
(0.531265 0.971672 0)
(0.184286 0.946367 0)
(0.0280617 -0.120089 0)
(0.0831931 -0.121095 0)
(0.140081 -0.123798 0)
(0.19788 -0.12711 0)
(0.2574 -0.13242 0)
(0.320305 -0.138992 0)
(0.385371 -0.146932 0)
(0.455485 -0.158447 0)
(0.530761 -0.169582 0)
(0.610904 -0.188049 0)
(0.701442 -0.204723 0)
(0.800378 -0.227539 0)
(0.910329 -0.266918 0)
(1.04112 -0.310739 0)
(1.17243 -0.30324 0)
(1.29055 -0.246498 0)
(1.42424 -0.205447 0)
(1.56791 -0.175523 0)
(1.63118 -0.0567369 0)
(1.31652 0.328796 0)
(0.750089 0.865044 0)
(0.450241 1.11305 0)
(0.169923 1.07731 0)
(0.0278036 -0.146257 0)
(0.0822317 -0.147464 0)
(0.138555 -0.150745 0)
(0.195591 -0.154729 0)
(0.254419 -0.161146 0)
(0.316363 -0.169118 0)
(0.380635 -0.178578 0)
(0.449217 -0.192667 0)
(0.523575 -0.205939 0)
(0.601692 -0.228072 0)
(0.68989 -0.24915 0)
(0.786911 -0.27663 0)
(0.894253 -0.323081 0)
(1.01889 -0.371152 0)
(1.13956 -0.362356 0)
(1.26334 -0.310302 0)
(1.419 -0.274701 0)
(1.58113 -0.20914 0)
(1.51116 0.0465905 0)
(1.03511 0.564434 0)
(0.550153 1.05906 0)
(0.371959 1.25184 0)
(0.137858 1.24446 0)
(0.0274974 -0.172072 0)
(0.0810584 -0.173471 0)
(0.136717 -0.177306 0)
(0.192792 -0.18194 0)
(0.250811 -0.189397 0)
(0.311523 -0.19875 0)
(0.374831 -0.209572 0)
(0.441533 -0.226153 0)
(0.51455 -0.241452 0)
(0.590247 -0.266802 0)
(0.675689 -0.292064 0)
(0.769072 -0.324167 0)
(0.874322 -0.3764 0)
(0.989771 -0.426906 0)
(1.10065 -0.419198 0)
(1.22906 -0.382007 0)
(1.39598 -0.355451 0)
(1.55284 -0.209983 0)
(1.30745 0.197698 0)
(0.808405 0.771157 0)
(0.47807 1.16872 0)
(0.373504 1.29999 0)
(0.15205 1.30985 0)
(0.0271401 -0.197544 0)
(0.0797042 -0.199121 0)
(0.134602 -0.203484 0)
(0.189557 -0.208727 0)
(0.2467 -0.217159 0)
(0.305966 -0.22784 0)
(0.368264 -0.239881 0)
(0.432928 -0.258845 0)
(0.504434 -0.276055 0)
(0.57769 -0.304384 0)
(0.660655 -0.333513 0)
(0.749634 -0.370622 0)
(0.852916 -0.427354 0)
(0.956146 -0.478643 0)
(1.05959 -0.476336 0)
(1.18962 -0.455321 0)
(1.34174 -0.422859 0)
(1.44459 -0.154227 0)
(1.026 0.38557 0)
(0.558145 0.971701 0)
(0.408684 1.26752 0)
(0.372552 1.41898 0)
(0.155751 1.51267 0)
(-0.0124359 0.00161557 0)
(0.0523124 -0.00997938 0)
(0.0903131 -0.00459363 0)
(0.115837 -0.00515087 0)
(0.137951 -0.00154517 0)
(0.137623 -0.000461532 0)
(0.142954 0.000959555 0)
(0.132159 0.00153715 0)
(0.128361 0.00210534 0)
(0.114235 0.00239048 0)
(0.105784 0.00254511 0)
(0.0913239 0.00263809 0)
(0.0808934 0.00265758 0)
(0.0669168 0.00267011 0)
(0.0557344 0.00265115 0)
(0.0423329 0.00263744 0)
(0.030907 0.00261609 0)
(0.0179113 0.00260417 0)
(0.00642664 0.0025958 0)
(-0.0170093 -0.0179956 0)
(0.0496586 -0.0341314 0)
(0.0919635 -0.021603 0)
(0.116981 -0.0156415 0)
(0.139745 -0.00698571 0)
(0.138686 -0.00218432 0)
(0.143951 0.00191686 0)
(0.132645 0.00427114 0)
(0.128704 0.00588267 0)
(0.11442 0.00694724 0)
(0.105886 0.00742563 0)
(0.091369 0.00778146 0)
(0.0809047 0.00786241 0)
(0.0669116 0.00792823 0)
(0.055721 0.00788781 0)
(0.042319 0.00786538 0)
(0.0308942 0.00781336 0)
(0.0179036 0.00778643 0)
(0.0064234 0.00776526 0)
(-0.0195667 -0.0129374 0)
(0.0510844 -0.0574326 0)
(0.0975338 -0.033196 0)
(0.122288 -0.026517 0)
(0.143571 -0.0104368 0)
(0.141484 -0.00302496 0)
(0.145834 0.00392648 0)
(0.133909 0.00751635 0)
(0.12943 0.0101623 0)
(0.114875 0.0117932 0)
(0.106128 0.0125554 0)
(0.0915044 0.0130844 0)
(0.0809588 0.0131936 0)
(0.0669271 0.0132761 0)
(0.0557084 0.0131928 0)
(0.0422993 0.0131399 0)
(0.0308725 0.0130433 0)
(0.0178898 0.0129914 0)
(0.00641736 0.012953 0)
(-0.0342481 -0.029339 0)
(0.0426282 -0.0837092 0)
(0.102105 -0.0501733 0)
(0.126775 -0.0352356 0)
(0.149581 -0.0139987 0)
(0.144657 -0.00340567 0)
(0.148594 0.00586273 0)
(0.135417 0.0109575 0)
(0.130424 0.014402 0)
(0.115411 0.0166357 0)
(0.106415 0.0176102 0)
(0.0916269 0.0183336 0)
(0.080985 0.0184598 0)
(0.066906 0.0185693 0)
(0.0556635 0.0184461 0)
(0.0422535 0.0183724 0)
(0.0308312 0.0182371 0)
(0.0178647 0.0181658 0)
(0.00640702 0.0181125 0)
(-0.0404923 -0.0188635 0)
(0.0481689 -0.117499 0)
(0.112783 -0.0698564 0)
(0.137131 -0.0483628 0)
(0.157207 -0.0181112 0)
(0.149757 -0.00366759 0)
(0.152084 0.00808005 0)
(0.137595 0.0146273 0)
(0.131717 0.018905 0)
(0.116216 0.0216641 0)
(0.106834 0.0228517 0)
(0.091853 0.0237089 0)
(0.0810619 0.0238332 0)
(0.0669164 0.0239374 0)
(0.0556271 0.0237577 0)
(0.0422089 0.0236443 0)
(0.0307855 0.0234591 0)
(0.0178364 0.0233593 0)
(0.00639473 0.0232872 0)
(-0.0646614 -0.0279473 0)
(0.0382696 -0.147858 0)
(0.125909 -0.0851178 0)
(0.147277 -0.0535429 0)
(0.168438 -0.0177195 0)
(0.155814 -0.00120676 0)
(0.156621 0.0119578 0)
(0.140125 0.0194573 0)
(0.133289 0.0239867 0)
(0.117051 0.0270502 0)
(0.107257 0.0282404 0)
(0.0920204 0.0291624 0)
(0.0810805 0.0292174 0)
(0.0668641 0.0292958 0)
(0.0555395 0.0290401 0)
(0.042123 0.0288838 0)
(0.0307102 0.0286451 0)
(0.0177907 0.0285179 0)
(0.00637627 0.0284269 0)
(-0.0130558 -0.0133483 0)
(0.0703134 -0.202375 0)
(0.150662 -0.118197 0)
(0.163081 -0.0688589 0)
(0.179506 -0.0222669 0)
(0.162558 -1.90642e-05 0)
(0.160908 0.0147552 0)
(0.142815 0.0238117 0)
(0.134838 0.0288573 0)
(0.118 0.0323469 0)
(0.10772 0.0336392 0)
(0.092251 0.0346324 0)
(0.0811245 0.034643 0)
(0.0668339 0.0346856 0)
(0.0554559 0.034355 0)
(0.0420388 0.0341458 0)
(0.0306313 0.0338493 0)
(0.0177431 0.0336887 0)
(0.00635612 0.0335766 0)
(0.175595 -0.0420033 0)
(0.137423 -0.215545 0)
(0.212737 -0.120131 0)
(0.186365 -0.064554 0)
(0.196706 -0.0152417 0)
(0.17204 0.00703068 0)
(0.166913 0.0215092 0)
(0.146218 0.0305371 0)
(0.136799 0.0351233 0)
(0.11903 0.0384879 0)
(0.108205 0.0394967 0)
(0.0924156 0.0403733 0)
(0.0811031 0.0401937 0)
(0.0667281 0.0401347 0)
(0.0553109 0.0396762 0)
(0.041903 0.0393927 0)
(0.030516 0.0390218 0)
(0.0176734 0.0388224 0)
(0.00632853 0.0386859 0)
(0.026553 -0.236663 0)
(0.0774166 -0.238514 0)
(0.131092 -0.243641 0)
(0.1841 -0.249832 0)
(0.239887 -0.259639 0)
(0.296672 -0.272393 0)
(0.357281 -0.286135 0)
(0.418743 -0.308607 0)
(0.487426 -0.328737 0)
(0.556691 -0.361332 0)
(0.635258 -0.395585 0)
(0.716497 -0.440258 0)
(0.813441 -0.500329 0)
(0.898004 -0.551103 0)
(0.994593 -0.56381 0)
(1.11517 -0.556203 0)
(1.24518 -0.480527 0)
(1.10046 0.00762177 0)
(0.646068 0.727272 0)
(0.427853 1.10703 0)
(0.503232 1.23462 0)
(0.574247 1.38609 0)
(0.846852 1.52698 0)
(0.025568 -0.2879 0)
(0.0734818 -0.290091 0)
(0.125105 -0.296074 0)
(0.174767 -0.303447 0)
(0.228217 -0.314764 0)
(0.280915 -0.330002 0)
(0.338265 -0.345639 0)
(0.39492 -0.371947 0)
(0.458107 -0.395467 0)
(0.521302 -0.432613 0)
(0.591531 -0.4716 0)
(0.662167 -0.524493 0)
(0.745858 -0.58386 0)
(0.810545 -0.636692 0)
(0.901437 -0.669708 0)
(0.989265 -0.667349 0)
(1.08544 -0.37802 0)
(0.60746 0.383426 0)
(0.375497 0.93255 0)
(0.361831 1.08027 0)
(0.469898 1.13102 0)
(0.562079 1.13492 0)
(0.879802 1.16496 0)
(0.0244389 -0.336204 0)
(0.0690111 -0.338699 0)
(0.118293 -0.345299 0)
(0.164199 -0.353707 0)
(0.214967 -0.366136 0)
(0.263228 -0.383247 0)
(0.316669 -0.40056 0)
(0.368559 -0.429244 0)
(0.42506 -0.455716 0)
(0.482753 -0.495414 0)
(0.542273 -0.537458 0)
(0.605211 -0.594724 0)
(0.670088 -0.651059 0)
(0.725062 -0.710643 0)
(0.800871 -0.745401 0)
(0.854602 -0.726731 0)
(0.791043 -0.0939315 0)
(0.298059 0.72596 0)
(0.291843 0.961009 0)
(0.323826 1.01459 0)
(0.445945 1.02071 0)
(0.544694 0.963141 0)
(0.781851 0.979375 0)
(0.0231794 -0.38179 0)
(0.0641112 -0.384551 0)
(0.110787 -0.391571 0)
(0.152671 -0.400838 0)
(0.200444 -0.414068 0)
(0.244099 -0.432453 0)
(0.293365 -0.451298 0)
(0.340302 -0.481063 0)
(0.390153 -0.510132 0)
(0.442183 -0.550377 0)
(0.491007 -0.594996 0)
(0.547839 -0.652128 0)
(0.592616 -0.707218 0)
(0.645245 -0.770437 0)
(0.69086 -0.792056 0)
(0.724247 -0.672044 0)
(0.404291 0.20382 0)
(0.186678 0.872431 0)
(0.238931 0.909258 0)
(0.28238 0.931406 0)
(0.393145 0.907624 0)
(0.463628 0.810684 0)
(0.609821 0.785698 0)
(0.0217886 -0.423894 0)
(0.0588496 -0.426877 0)
(0.102674 -0.434122 0)
(0.14032 -0.444051 0)
(0.184914 -0.457773 0)
(0.223734 -0.476912 0)
(0.268936 -0.496964 0)
(0.310364 -0.526847 0)
(0.354458 -0.557762 0)
(0.399673 -0.597139 0)
(0.440097 -0.643373 0)
(0.488922 -0.696786 0)
(0.51922 -0.752192 0)
(0.566893 -0.809518 0)
(0.5833 -0.814679 0)
(0.610376 -0.460716 0)
(0.156357 0.458585 0)
(0.169866 0.881419 0)
(0.195784 0.863347 0)
(0.254888 0.85885 0)
(0.344755 0.832401 0)
(0.395684 0.745954 0)
(0.479954 0.70654 0)
(0.0203151 -0.462829 0)
(0.0534751 -0.466005 0)
(0.0942955 -0.473306 0)
(0.127677 -0.483764 0)
(0.169018 -0.497664 0)
(0.202909 -0.517252 0)
(0.244356 -0.538012 0)
(0.279814 -0.567529 0)
(0.319378 -0.599291 0)
(0.356861 -0.637239 0)
(0.391737 -0.683784 0)
(0.430956 -0.732779 0)
(0.453904 -0.787971 0)
(0.492003 -0.832634 0)
(0.495131 -0.834595 0)
(0.512889 -0.231082 0)
(0.038675 0.646872 0)
(0.163711 0.834787 0)
(0.153909 0.82249 0)
(0.221514 0.787242 0)
(0.281258 0.763524 0)
(0.325657 0.681485 0)
(0.376631 0.630884 0)
(0.018718 -0.49798 0)
(0.0479097 -0.501306 0)
(0.0855119 -0.508491 0)
(0.114611 -0.519335 0)
(0.152618 -0.533082 0)
(0.181606 -0.552926 0)
(0.219559 -0.573802 0)
(0.248949 -0.602793 0)
(0.284977 -0.634402 0)
(0.314458 -0.67089 0)
(0.346029 -0.716483 0)
(0.374774 -0.761294 0)
(0.395075 -0.814808 0)
(0.421153 -0.845976 0)
(0.425967 -0.843221 0)
(0.389212 0.00925935 0)
(-0.00750512 0.796836 0)
(0.145893 0.770771 0)
(0.123847 0.799142 0)
(0.190336 0.733876 0)
(0.233472 0.722827 0)
(0.271927 0.650996 0)
(0.308718 0.607527 0)
(0.0170857 -0.529843 0)
(0.042502 -0.533313 0)
(0.0768133 -0.540285 0)
(0.101824 -0.551473 0)
(0.136453 -0.564853 0)
(0.160744 -0.584894 0)
(0.195272 -0.60539 0)
(0.218837 -0.633865 0)
(0.2517 -0.664452 0)
(0.273627 -0.699648 0)
(0.302946 -0.74304 0)
(0.321734 -0.784513 0)
(0.34205 -0.834862 0)
(0.356221 -0.855033 0)
(0.36773 -0.820129 0)
(0.188343 0.232378 0)
(-0.00791906 0.8718 0)
(0.09456 0.714235 0)
(0.100624 0.771401 0)
(0.146299 0.68312 0)
(0.186563 0.678774 0)
(0.214023 0.610025 0)
(0.248932 0.567861 0)
(0.0153102 -0.557744 0)
(0.0369592 -0.561306 0)
(0.0677317 -0.56791 0)
(0.0887652 -0.579306 0)
(0.119877 -0.592042 0)
(0.139787 -0.612157 0)
(0.170888 -0.631816 0)
(0.189173 -0.659845 0)
(0.219122 -0.688817 0)
(0.23444 -0.72321 0)
(0.262092 -0.763599 0)
(0.272275 -0.803087 0)
(0.29368 -0.848971 0)
(0.29726 -0.861129 0)
(0.310349 -0.706482 0)
(-0.0410591 0.422608 0)
(0.0167339 0.864289 0)
(0.0288992 0.674822 0)
(0.086776 0.7384 0)
(0.104457 0.651734 0)
(0.150489 0.651034 0)
(0.167518 0.588846 0)
(0.201153 0.554446 0)
(0.0135745 -0.582521 0)
(0.0318532 -0.5862 0)
(0.0591349 -0.592457 0)
(0.0765688 -0.604102 0)
(0.104144 -0.616212 0)
(0.120062 -0.636405 0)
(0.147564 -0.655017 0)
(0.161085 -0.682684 0)
(0.188 -0.709686 0)
(0.197457 -0.743454 0)
(0.223532 -0.780264 0)
(0.226335 -0.818521 0)
(0.249251 -0.858829 0)
(0.244493 -0.864963 0)
(0.251386 -0.497781 0)
(-0.182821 0.548731 0)
(0.0459285 0.78651 0)
(-0.0259969 0.651736 0)
(0.0754508 0.691033 0)
(0.0592568 0.622109 0)
(0.117531 0.614309 0)
(0.120044 0.560759 0)
(0.156963 0.52716 0)
(0.0116447 -0.60319 0)
(0.0265246 -0.60691 0)
(0.0499901 -0.612637 0)
(0.0640124 -0.624355 0)
(0.0878463 -0.635571 0)
(0.100234 -0.655618 0)
(0.124096 -0.672885 0)
(0.133808 -0.700405 0)
(0.157698 -0.725155 0)
(0.162581 -0.759088 0)
(0.186987 -0.792201 0)
(0.183654 -0.83073 0)
(0.207482 -0.865447 0)
(0.198224 -0.864655 0)
(0.199044 -0.269665 0)
(-0.224824 0.629974 0)
(0.0602092 0.705103 0)
(-0.062042 0.648133 0)
(0.0611752 0.651932 0)
(0.0256289 0.609788 0)
(0.0880083 0.589856 0)
(0.0832699 0.548206 0)
(0.118384 0.514797 0)
(0.00985755 -0.621169 0)
(0.0219516 -0.625005 0)
(0.0418024 -0.63044 0)
(0.0529817 -0.642346 0)
(0.07303 -0.652948 0)
(0.0824238 -0.672941 0)
(0.102416 -0.689072 0)
(0.108919 -0.716473 0)
(0.129126 -0.738829 0)
(0.130234 -0.772833 0)
(0.151749 -0.801529 0)
(0.14303 -0.8404 0)
(0.166136 -0.870674 0)
(0.157665 -0.863618 0)
(0.146621 -0.0621345 0)
(-0.22722 0.67631 0)
(0.0473734 0.62429 0)
(-0.0885999 0.64797 0)
(0.0389803 0.603206 0)
(-0.00880641 0.593814 0)
(0.0573389 0.557236 0)
(0.0456399 0.529748 0)
(0.0823126 0.492714 0)
(0.00780445 -0.634814 0)
(0.0169062 -0.638654 0)
(0.032681 -0.643546 0)
(0.0411212 -0.655367 0)
(0.0570711 -0.665006 0)
(0.0640208 -0.68479 0)
(0.0799711 -0.699504 0)
(0.0842607 -0.726946 0)
(0.100503 -0.746761 0)
(0.0995621 -0.781559 0)
(0.117056 -0.805541 0)
(0.105099 -0.846058 0)
(0.124338 -0.87659 0)
(0.117534 -0.85599 0)
(0.0862559 0.142248 0)
(-0.192422 0.713231 0)
(0.0165853 0.578861 0)
(-0.0904783 0.651619 0)
(0.00937787 0.577505 0)
(-0.0284044 0.588461 0)
(0.0255054 0.537953 0)
(0.01762 0.520981 0)
(0.0480608 0.480619 0)
(0.00605812 -0.646453 0)
(0.0129932 -0.650372 0)
(0.0250139 -0.655237 0)
(0.0310974 -0.667072 0)
(0.0428588 -0.676386 0)
(0.0475979 -0.695985 0)
(0.0590293 -0.709751 0)
(0.0614748 -0.736899 0)
(0.0730524 -0.754435 0)
(0.0713 -0.788919 0)
(0.08415 -0.807362 0)
(0.0728524 -0.848026 0)
(0.0867614 -0.879598 0)
(0.0705604 -0.836766 0)
(-0.0187432 0.259033 0)
(-0.151006 0.730889 0)
(-0.0321146 0.526143 0)
(-0.0923493 0.648958 0)
(-0.0283265 0.542335 0)
(-0.0508105 0.574737 0)
(-0.00943448 0.512271 0)
(-0.0120227 0.505783 0)
(0.0147962 0.461872 0)
(0.00392474 -0.65349 0)
(0.00833734 -0.657243 0)
(0.0162528 -0.661407 0)
(0.020207 -0.672923 0)
(0.0279815 -0.681474 0)
(0.0310906 -0.700813 0)
(0.038636 -0.713609 0)
(0.0402652 -0.741019 0)
(0.0482414 -0.757198 0)
(0.0476429 -0.792805 0)
(0.0576879 -0.808401 0)
(0.0519424 -0.849031 0)
(0.0644357 -0.870626 0)
(0.00894974 -0.757931 0)
(-0.0931998 0.387096 0)
(-0.0598714 0.716927 0)
(-0.0762539 0.532772 0)
(-0.0730089 0.64291 0)
(-0.0660399 0.542649 0)
(-0.0614369 0.566291 0)
(-0.0443462 0.502411 0)
(-0.0348049 0.494614 0)
(-0.0177885 0.450649 0)
(0.00270314 -0.659261 0)
(0.00567264 -0.663135 0)
(0.0107439 -0.667568 0)
(0.0132997 -0.678984 0)
(0.017811 -0.687509 0)
(0.019717 -0.706457 0)
(0.0237608 -0.71882 0)
(0.0248015 -0.74579 0)
(0.0295558 -0.761216 0)
(0.0302831 -0.796983 0)
(0.0424433 -0.810375 0)
(0.048059 -0.853032 0)
(0.105976 -0.836382 0)
(0.0046672 -0.677219 0)
(-0.00893501 0.31609 0)
(0.000154248 0.718709 0)
(-0.0984309 0.531763 0)
(-0.0868924 0.638348 0)
(-0.108186 0.528703 0)
(-0.0882285 0.55158 0)
(-0.0821367 0.485667 0)
(-0.0622775 0.478211 0)
(-0.0500457 0.434347 0)
(0.0016025 -0.660443 0)
(0.00375671 -0.663897 0)
(0.00729532 -0.667719 0)
(0.00927876 -0.678718 0)
(0.012335 -0.686741 0)
(0.0137142 -0.705683 0)
(0.0165792 -0.717785 0)
(0.0174227 -0.74604 0)
(0.0222074 -0.762197 0)
(0.0264134 -0.805245 0)
(0.0439255 -0.826417 0)
(0.0929113 -0.912781 0)
(0.195466 -0.816616 0)
(0.169432 -0.656571 0)
(0.0706536 0.414227 0)
(0.156972 0.80705 0)
(-0.129166 0.62794 0)
(-0.0725955 0.651267 0)
(-0.147915 0.548571 0)
(-0.107281 0.538632 0)
(-0.119415 0.478628 0)
(-0.0871517 0.461297 0)
(-0.0812004 0.421804 0)
(0.00215209 -0.668879 0)
(0.0039091 -0.673101 0)
(0.00713466 -0.677483 0)
(0.00796193 -0.688477 0)
(0.00989924 -0.696497 0)
(0.00849889 -0.715351 0)
(0.00978052 -0.726848 0)
(0.00496767 -0.756283 0)
(0.0154995 -0.772772 0)
(0.0125076 -0.823854 0)
(0.0749029 -0.873496 0)
(0.054931 -1.00701 0)
(0.199732 -0.90079 0)
(0.222912 -0.530225 0)
(-0.0511277 0.252416 0)
(-0.0474247 0.958288 0)
(-0.235216 0.732159 0)
(-0.162513 0.666129 0)
(-0.209641 0.556285 0)
(-0.156401 0.524213 0)
(-0.159589 0.464006 0)
(-0.11982 0.439909 0)
(-0.111094 0.403567 0)
(-0.00823976 -0.664253 0)
(-0.0313789 -0.666426 0)
(-0.0478753 -0.66963 0)
(-0.0723059 -0.678162 0)
(-0.0909526 -0.685364 0)
(-0.116789 -0.701256 0)
(-0.138008 -0.713888 0)
(-0.155576 -0.745812 0)
(-0.178426 -0.776035 0)
(-0.137931 -0.857506 0)
(-0.159148 -0.895053 0)
(0.0490928 -1.04778 0)
(-0.137636 -1.04104 0)
(0.140653 -0.404651 0)
(-0.616889 0.714541 0)
(-0.326227 0.985293 0)
(-0.428808 0.755606 0)
(-0.256714 0.625132 0)
(-0.291146 0.545481 0)
(-0.201101 0.488352 0)
(-0.201296 0.442838 0)
(-0.148411 0.412571 0)
(-0.137888 0.383975 0)
(-0.0151295 -0.628384 0)
(-0.0466924 -0.632306 0)
(-0.0759848 -0.6356 0)
(-0.109207 -0.644445 0)
(-0.141747 -0.650427 0)
(-0.179175 -0.668342 0)
(-0.217909 -0.682872 0)
(-0.262904 -0.720586 0)
(-0.314007 -0.770938 0)
(-0.381742 -0.860035 0)
(-0.474114 -1.00563 0)
(-0.581759 -1.04482 0)
(-0.839473 -0.896399 0)
(-1.08942 -0.0424026 0)
(-1.06051 0.68003 0)
(-0.697306 0.790954 0)
(-0.558984 0.645667 0)
(-0.397543 0.535003 0)
(-0.34768 0.495164 0)
(-0.264378 0.435603 0)
(-0.235802 0.409533 0)
(-0.184054 0.3766 0)
(-0.162979 0.358433 0)
(-0.0132898 -0.601767 0)
(-0.0448426 -0.605075 0)
(-0.0739038 -0.606947 0)
(-0.107594 -0.612382 0)
(-0.140299 -0.616149 0)
(-0.17732 -0.625438 0)
(-0.219854 -0.632791 0)
(-0.264509 -0.649734 0)
(-0.337725 -0.665137 0)
(-0.418509 -0.696686 0)
(-0.592361 -0.713859 0)
(-0.803583 -0.695683 0)
(-1.10102 -0.575884 0)
(-1.25285 -0.163058 0)
(-1.03972 0.333186 0)
(-0.752327 0.478319 0)
(-0.558913 0.461754 0)
(-0.443213 0.412325 0)
(-0.354485 0.413892 0)
(-0.290291 0.37595 0)
(-0.244538 0.362701 0)
(-0.2015 0.33969 0)
(-0.173806 0.327691 0)
(-0.0147748 -0.570984 0)
(-0.0473219 -0.572116 0)
(-0.0796303 -0.57296 0)
(-0.115036 -0.577583 0)
(-0.15214 -0.579379 0)
(-0.193635 -0.587872 0)
(-0.239619 -0.591509 0)
(-0.293492 -0.602758 0)
(-0.357826 -0.606933 0)
(-0.439007 -0.607675 0)
(-0.55034 -0.600922 0)
(-0.685074 -0.537693 0)
(-0.851924 -0.424899 0)
(-0.965912 -0.110454 0)
(-0.877631 0.166164 0)
(-0.689493 0.300376 0)
(-0.557196 0.333956 0)
(-0.454556 0.327809 0)
(-0.379728 0.341291 0)
(-0.311861 0.324459 0)
(-0.267143 0.320152 0)
(-0.222019 0.305259 0)
(-0.192007 0.298163 0)
(-0.0158002 -0.538111 0)
(-0.048592 -0.53882 0)
(-0.0812992 -0.538186 0)
(-0.116428 -0.539265 0)
(-0.153916 -0.53752 0)
(-0.194465 -0.538212 0)
(-0.242706 -0.534234 0)
(-0.293241 -0.532301 0)
(-0.362274 -0.522364 0)
(-0.429162 -0.505236 0)
(-0.529107 -0.470884 0)
(-0.615647 -0.397045 0)
(-0.726485 -0.300839 0)
(-0.777114 -0.132554 0)
(-0.719393 0.0528288 0)
(-0.614538 0.158692 0)
(-0.518792 0.224483 0)
(-0.435467 0.235565 0)
(-0.372646 0.269453 0)
(-0.311018 0.263794 0)
(-0.267662 0.271986 0)
(-0.225173 0.264774 0)
(-0.194878 0.264014 0)
(-0.0152651 -0.507479 0)
(-0.0467899 -0.507329 0)
(-0.0786962 -0.505682 0)
(-0.112299 -0.505077 0)
(-0.14796 -0.501006 0)
(-0.186085 -0.498567 0)
(-0.228888 -0.490874 0)
(-0.274818 -0.482564 0)
(-0.329991 -0.466986 0)
(-0.387707 -0.440658 0)
(-0.457221 -0.40864 0)
(-0.521913 -0.339276 0)
(-0.579629 -0.256621 0)
(-0.616129 -0.117278 0)
(-0.58694 0.00533921 0)
(-0.533724 0.0979841 0)
(-0.467298 0.154564 0)
(-0.405631 0.180856 0)
(-0.358098 0.216006 0)
(-0.303474 0.219135 0)
(-0.267793 0.233524 0)
(-0.22724 0.232248 0)
(-0.200167 0.235696 0)
(-0.0157759 -0.474679 0)
(-0.0471086 -0.474016 0)
(-0.0796788 -0.471537 0)
(-0.112629 -0.468915 0)
(-0.148469 -0.463064 0)
(-0.184363 -0.456695 0)
(-0.226048 -0.445437 0)
(-0.266255 -0.431102 0)
(-0.316431 -0.409964 0)
(-0.36062 -0.378342 0)
(-0.417545 -0.33736 0)
(-0.461467 -0.275834 0)
(-0.503398 -0.208415 0)
(-0.522096 -0.125115 0)
(-0.502597 -0.0318969 0)
(-0.468766 0.038973 0)
(-0.418692 0.0943776 0)
(-0.375292 0.126851 0)
(-0.334073 0.165504 0)
(-0.289743 0.173958 0)
(-0.258062 0.194637 0)
(-0.221817 0.197434 0)
(-0.196497 0.205636 0)
(-0.014532 -0.445222 0)
(-0.0433499 -0.443948 0)
(-0.0732644 -0.440678 0)
(-0.103499 -0.436537 0)
(-0.135917 -0.429399 0)
(-0.168818 -0.420869 0)
(-0.205202 -0.408378 0)
(-0.241495 -0.391786 0)
(-0.282034 -0.371033 0)
(-0.32096 -0.338947 0)
(-0.360646 -0.305518 0)
(-0.395014 -0.252207 0)
(-0.418327 -0.193714 0)
(-0.43439 -0.117603 0)
(-0.424592 -0.0472008 0)
(-0.405384 0.0137934 0)
(-0.372301 0.0608092 0)
(-0.341762 0.0962755 0)
(-0.308141 0.129536 0)
(-0.272776 0.143336 0)
(-0.246198 0.164687 0)
(-0.214246 0.170771 0)
(-0.19224 0.181396 0)
(-0.0144884 -0.415709 0)
(-0.0424441 -0.414147 0)
(-0.0719216 -0.410464 0)
(-0.100536 -0.405235 0)
(-0.131595 -0.397098 0)
(-0.161314 -0.386636 0)
(-0.194827 -0.372473 0)
(-0.225512 -0.353833 0)
(-0.261225 -0.330591 0)
(-0.291289 -0.299696 0)
(-0.323886 -0.263735 0)
(-0.349808 -0.218676 0)
(-0.36928 -0.169893 0)
(-0.379414 -0.118997 0)
(-0.372081 -0.061873 0)
(-0.358558 -0.0134013 0)
(-0.333335 0.029668 0)
(-0.310617 0.0629977 0)
(-0.281747 0.0952617 0)
(-0.254565 0.112525 0)
(-0.230494 0.135076 0)
(-0.203776 0.143849 0)
(-0.183717 0.156908 0)
(-0.0130704 -0.388692 0)
(-0.0383683 -0.386835 0)
(-0.0649267 -0.38291 0)
(-0.0908974 -0.376999 0)
(-0.118536 -0.368714 0)
(-0.145496 -0.357537 0)
(-0.174255 -0.343892 0)
(-0.2019 -0.32507 0)
(-0.230367 -0.304535 0)
(-0.256746 -0.275763 0)
(-0.280848 -0.246001 0)
(-0.30161 -0.206004 0)
(-0.314113 -0.163268 0)
(-0.322731 -0.114484 0)
(-0.319886 -0.0678527 0)
(-0.311319 -0.0249921 0)
(-0.29492 0.0126365 0)
(-0.278045 0.0446892 0)
(-0.25609 0.0728209 0)
(-0.23471 0.0922725 0)
(-0.214256 0.113108 0)
(-0.191899 0.12414 0)
(-0.174364 0.137615 0)
(-0.0124989 -0.363471 0)
(-0.0362167 -0.361446 0)
(-0.0613849 -0.357278 0)
(-0.085223 -0.35085 0)
(-0.110865 -0.342057 0)
(-0.134754 -0.33028 0)
(-0.160752 -0.315871 0)
(-0.184121 -0.297282 0)
(-0.20904 -0.275803 0)
(-0.230509 -0.249022 0)
(-0.250911 -0.219201 0)
(-0.267642 -0.185519 0)
(-0.278884 -0.149256 0)
(-0.285309 -0.113156 0)
(-0.282847 -0.0737642 0)
(-0.276836 -0.0382677 0)
(-0.26391 -0.00419522 0)
(-0.250457 0.0243908 0)
(-0.232246 0.0512151 0)
(-0.215334 0.071041 0)
(-0.197217 0.0915585 0)
(-0.178974 0.104275 0)
(-0.163035 0.118509 0)
(-0.0111659 -0.340163 0)
(-0.0324849 -0.338083 0)
(-0.0549016 -0.334033 0)
(-0.0763443 -0.327534 0)
(-0.0988539 -0.319169 0)
(-0.120302 -0.307525 0)
(-0.142386 -0.294321 0)
(-0.163182 -0.276519 0)
(-0.183454 -0.257756 0)
(-0.201978 -0.233498 0)
(-0.217774 -0.208364 0)
(-0.231306 -0.177529 0)
(-0.239562 -0.145255 0)
(-0.245189 -0.110347 0)
(-0.244792 -0.0763163 0)
(-0.240958 -0.0439572 0)
(-0.232276 -0.013952 0)
(-0.222143 0.0129804 0)
(-0.208553 0.0372666 0)
(-0.195011 0.0572814 0)
(-0.18023 0.0762057 0)
(-0.165128 0.0900057 0)
(-0.151348 0.103827 0)
(-0.0102981 -0.319286 0)
(-0.0297116 -0.317143 0)
(-0.0502837 -0.312983 0)
(-0.0695504 -0.30637 0)
(-0.0899609 -0.297813 0)
(-0.108788 -0.286298 0)
(-0.128491 -0.272873 0)
(-0.146253 -0.255879 0)
(-0.163947 -0.23707 0)
(-0.179485 -0.214516 0)
(-0.193292 -0.190127 0)
(-0.204755 -0.163699 0)
(-0.21232 -0.135677 0)
(-0.216988 -0.107791 0)
(-0.216618 -0.0782642 0)
(-0.21387 -0.0506323 0)
(-0.206923 -0.0233286 0)
(-0.198832 0.000830547 0)
(-0.1876 0.0237 0)
(-0.17651 0.0429207 0)
(-0.163784 0.0612753 0)
(-0.151311 0.075581 0)
(-0.139038 0.0895065 0)
(-0.00909973 -0.300179 0)
(-0.0263704 -0.298096 0)
(-0.0444778 -0.294183 0)
(-0.0615891 -0.287795 0)
(-0.0793177 -0.279841 0)
(-0.0959635 -0.268854 0)
(-0.112704 -0.256671 0)
(-0.128233 -0.240839 0)
(-0.142886 -0.22425 0)
(-0.15617 -0.20385 0)
(-0.167151 -0.182775 0)
(-0.176506 -0.158172 0)
(-0.182492 -0.132836 0)
(-0.186608 -0.105932 0)
(-0.187162 -0.0794574 0)
(-0.185516 -0.0536732 0)
(-0.180815 -0.029154 0)
(-0.174616 -0.00639978 0)
(-0.166235 0.0146729 0)
(-0.157308 0.03342 0)
(-0.147141 0.0506675 0)
(-0.136819 0.0652171 0)
(-0.126481 0.0786821 0)
(-0.00812845 -0.283491 0)
(-0.0234556 -0.281421 0)
(-0.039596 -0.277497 0)
(-0.0546766 -0.271208 0)
(-0.0703844 -0.263262 0)
(-0.0848615 -0.252636 0)
(-0.099554 -0.24054 0)
(-0.112865 -0.225496 0)
(-0.125618 -0.209198 0)
(-0.136908 -0.190144 0)
(-0.146653 -0.169988 0)
(-0.154796 -0.148327 0)
(-0.160288 -0.12578 0)
(-0.163907 -0.103023 0)
(-0.164434 -0.0795221 0)
(-0.163303 -0.0568652 0)
(-0.159497 -0.034405 0)
(-0.154596 -0.0136453 0)
(-0.147672 0.00618887 0)
(-0.140329 0.0239293 0)
(-0.131722 0.0405791 0)
(-0.123122 0.0550044 0)
(-0.114126 0.0683628 0)
(-0.00706523 -0.268514 0)
(-0.0204624 -0.26654 0)
(-0.0344393 -0.262859 0)
(-0.0475813 -0.256894 0)
(-0.061043 -0.249513 0)
(-0.0735908 -0.239532 0)
(-0.0860101 -0.228476 0)
(-0.0974434 -0.214572 0)
(-0.108034 -0.199971 0)
(-0.117574 -0.182568 0)
(-0.125411 -0.164635 0)
(-0.132068 -0.144295 0)
(-0.136528 -0.123578 0)
(-0.139671 -0.101686 0)
(-0.140558 -0.0800604 0)
(-0.140002 -0.0586125 0)
(-0.137446 -0.0379631 0)
(-0.133734 -0.0182722 0)
(-0.128522 0.000238426 0)
(-0.122668 0.0174064 0)
(-0.115862 0.0332563 0)
(-0.108802 0.0475448 0)
(-0.101391 0.0605394 0)
(-0.0060883 -0.255801 0)
(-0.0176089 -0.253876 0)
(-0.0296557 -0.250241 0)
(-0.0409359 -0.244446 0)
(-0.0525327 -0.237165 0)
(-0.0632483 -0.227541 0)
(-0.0739235 -0.216672 0)
(-0.0836209 -0.203394 0)
(-0.0927429 -0.189142 0)
(-0.100851 -0.172751 0)
(-0.107778 -0.15565 0)
(-0.113604 -0.137224 0)
(-0.117664 -0.118331 0)
(-0.120487 -0.0989595 0)
(-0.121343 -0.0793066 0)
(-0.121048 -0.0599229 0)
(-0.119016 -0.0407775 0)
(-0.116107 -0.0225147 0)
(-0.111857 -0.00498835 0)
(-0.107097 0.0113117 0)
(-0.101431 0.0266044 0)
(-0.0956014 0.0405592 0)
(-0.0893125 0.0533758 0)
(-0.00514945 -0.244669 0)
(-0.0149318 -0.242827 0)
(-0.0250856 -0.239373 0)
(-0.034623 -0.233868 0)
(-0.0443168 -0.227024 0)
(-0.0533219 -0.217976 0)
(-0.0621547 -0.207901 0)
(-0.0702446 -0.195562 0)
(-0.0776936 -0.182516 0)
(-0.0843633 -0.167318 0)
(-0.089888 -0.151659 0)
(-0.0945833 -0.134216 0)
(-0.0978584 -0.116554 0)
(-0.100239 -0.0979095 0)
(-0.101172 -0.0794652 0)
(-0.101164 -0.0609215 0)
(-0.0998472 -0.0429498 0)
(-0.0977188 -0.0254617 0)
(-0.0945621 -0.00886431 0)
(-0.0908623 0.00692656 0)
(-0.086462 0.0216429 0)
(-0.0817894 0.0353538 0)
(-0.0767438 0.0478917 0)
(-0.00420479 -0.235685 0)
(-0.0121986 -0.233902 0)
(-0.0205161 -0.230521 0)
(-0.0283412 -0.225183 0)
(-0.036327 -0.218459 0)
(-0.0437341 -0.209689 0)
(-0.0510499 -0.199783 0)
(-0.0577157 -0.187874 0)
(-0.0639579 -0.175113 0)
(-0.0695159 -0.160609 0)
(-0.0742779 -0.145564 0)
(-0.0783152 -0.129312 0)
(-0.0812327 -0.112798 0)
(-0.0833648 -0.0956651 0)
(-0.0842575 -0.0784713 0)
(-0.084393 -0.0612394 0)
(-0.0834131 -0.044292 0)
(-0.0818073 -0.0277832 0)
(-0.0793162 -0.0119088 0)
(-0.076406 0.00322207 0)
(-0.0728632 0.0174719 0)
(-0.0691266 0.0308396 0)
(-0.0650067 0.0431854 0)
(-0.00334723 -0.228074 0)
(-0.0097282 -0.226331 0)
(-0.01634 -0.223037 0)
(-0.0225702 -0.217881 0)
(-0.0288814 -0.211432 0)
(-0.0347511 -0.203077 0)
(-0.0404911 -0.19371 0)
(-0.0457442 -0.182468 0)
(-0.0505946 -0.170499 0)
(-0.0549258 -0.156808 0)
(-0.0585675 -0.142658 0)
(-0.0616709 -0.127098 0)
(-0.0639288 -0.111367 0)
(-0.0656452 -0.0947907 0)
(-0.0664823 -0.0783798 0)
(-0.0667493 -0.0617355 0)
(-0.0662061 -0.0455418 0)
(-0.065143 -0.0295714 0)
(-0.0634185 -0.0143108 0)
(-0.0613023 0.000436486 0)
(-0.0587033 0.014301 0)
(-0.0558761 0.0274439 0)
(-0.0527471 0.0395839 0)
(-0.00242629 -0.222682 0)
(-0.0070685 -0.22098 0)
(-0.0119211 -0.217746 0)
(-0.0165247 -0.21271 0)
(-0.0212269 -0.206346 0)
(-0.0256237 -0.198152 0)
(-0.0299802 -0.188875 0)
(-0.0339957 -0.177857 0)
(-0.0377949 -0.166042 0)
(-0.0412223 -0.152735 0)
(-0.0442321 -0.138942 0)
(-0.0468276 -0.124037 0)
(-0.0487927 -0.108928 0)
(-0.0502972 -0.0931608 0)
(-0.0510884 -0.0774395 0)
(-0.0514315 -0.0615336 0)
(-0.0511139 -0.045946 0)
(-0.0504063 -0.0305731 0)
(-0.0491598 -0.0157855 0)
(-0.0476316 -0.00149529 0)
(-0.0457199 0.0120125 0)
(-0.0436539 0.0248732 0)
(-0.0413146 0.0368417 0)
(-0.00164619 -0.218353 0)
(-0.00475862 -0.216619 0)
(-0.00795066 -0.213361 0)
(-0.0109406 -0.208376 0)
(-0.013979 -0.202122 0)