/*--------------------------------*- C++ -*----------------------------------*\
| =========                 |                                                 |
| \\      /  F ield         | OpenFOAM: The Open Source CFD Toolbox           |
|  \\    /   O peration     | Version:  2012                                  |
|   \\  /    A nd           | Website:  www.openfoam.com                      |
|    \\/     M anipulation  |                                                 |
\*---------------------------------------------------------------------------*/
FoamFile
{
    version     2.0;
    format      ascii;
    class       volScalarField;
    location    "0.09";
    object      volumeFraction1;
}
// * * * * * * * * * * * * * * * * * * * * * * * * * * * * * * * * * * * * * //

dimensions      [0 0 0 0 0 0 0];


internalField   nonuniform List<scalar> 
2268
(
1
1
1
1
1
1
1
1
1
1
1
1
1
1
1
1
1
0.97016
0.492413
0.0230011
1.86306e-05
7.19445e-12
2.97895e-15
1
1
1
1
1
1
1
1
1
1
1
1
1
1
1
1
0.984667
0.715943
0.190581
0.0113587
2.16926e-05
1.12175e-11
2.98346e-15
1
1
1
1
1
1
1
1
1
1
1
1
1
1
1
1
0.868677
0.356942
0.0409661
0.00209742
1.9224e-05
7.25689e-11
8.5495e-15
1
1
1
1
1
1
1
1
1
1
1
1
1
1
1
0.980009
0.605676
0.0968267
0.0055175
0.000226159
5.69324e-06
1.50453e-09
1.75619e-13
1
1
1
1
1
1
1
1
1
1
1
1
1
1
1
0.861473
0.286116
0.0204651
0.000480312
1.25588e-05
8.5338e-07
4.97711e-09
3.71883e-12
1
1
1
1
1
1
1
1
1
1
1
1
1
1
1
0.633181
0.0817791
0.00247506
3.15013e-05
5.62321e-07
7.18403e-08
2.43326e-09
1.59299e-11
1
1
1
1
1
1
1
1
1
1
1
1
1
1
0.946366
0.371648
0.021186
0.000180127
8.77419e-07
2.0981e-08
2.29411e-09
6.15216e-10
1.53707e-11
1
1
1
1
1
1
1
1
1
1
1
1
1
1
0.842531
0.190435
0.00458307
9.44478e-06
3.7007e-08
6.25499e-10
2.47565e-10
1.42608e-10
7.95523e-12
3.75928e-36
4.38641e-35
9.8737e-37
1.20495e-38
1.21209e-40
1.13113e-42
1.01138e-44
8.7059e-47
6.98215e-49
5.07653e-51
3.27328e-53
1.83829e-55
8.81375e-58
3.53139e-60
1.14841e-62
2.91248e-65
5.40133e-68
6.516e-71
7.67969e-74
6.88858e-34
1.35791e-32
2.99553e-34
3.56458e-36
3.54556e-38
3.28587e-40
2.94021e-42
2.54582e-44
2.06356e-46
1.52449e-48
1.00337e-50
5.7738e-53
2.84447e-55
1.17316e-57
3.93058e-60
1.02703e-62
1.96121e-65
2.43506e-68
1.47492e-71
1.4202e-31
2.06723e-30
4.52106e-32
5.27757e-34
5.21642e-36
4.81488e-38
4.33001e-40
3.78161e-42
3.10886e-44
2.34326e-46
1.58214e-48
9.37793e-51
4.77141e-53
2.03468e-55
7.04807e-58
1.90227e-60
3.74686e-63
4.79033e-66
2.98242e-69
2.1116e-29
2.03704e-28
4.36626e-30
5.06326e-32
5.00633e-34
4.59594e-36
4.12576e-38
3.60868e-40
2.98769e-42
2.28651e-44
1.57851e-46
9.61525e-49
5.04108e-51
2.21691e-53
7.91561e-56
2.19942e-58
4.45288e-61
5.84203e-64
3.72667e-67
2.98224e-27
1.41268e-26
3.0397e-28
3.57491e-30
3.60618e-32
3.34415e-34
3.04625e-36
2.70156e-38
2.27703e-40
1.78499e-42
1.26858e-44
7.9759e-47
4.31879e-49
1.96e-51
7.21157e-54
2.0614e-56
4.28646e-59
5.76748e-62
3.76834e-65
4.06261e-25
7.2815e-25
1.49087e-26
1.86568e-28
1.9713e-30
1.87487e-32
1.74486e-34
1.56842e-36
1.33223e-38
1.0506e-40
7.51106e-43
4.75886e-45
2.60313e-47
1.19653e-49
4.4689e-52
1.29889e-54
2.74944e-57
3.76847e-60
2.50899e-63
7.43186e-23
2.81803e-23
5.20106e-25
7.78497e-27
9.03356e-29
9.27241e-31
9.02153e-33
8.2659e-35
7.04084e-37
5.53055e-39
3.94186e-41
2.50229e-43
1.38017e-45
6.43341e-48
2.4474e-50
7.26647e-53
1.5739e-55
2.20911e-58
1.50639e-61
1.0465e-20
8.73316e-22
1.82034e-23
2.90674e-25
3.57379e-27
3.89311e-29
3.86149e-31
3.5083e-33
2.90241e-35
2.18853e-37
1.49278e-39
9.11109e-42
4.87797e-44
2.23239e-46
8.42834e-49
2.50587e-51
5.47186e-54
7.77954e-57
5.39019e-60
1
1
1
1
1
1
1
1
1
1
1
1
1
1
0.63238
0.0562719
0.000359387
1.39662e-07
2.18012e-09
1.47754e-10
7.23782e-11
2.64243e-11
2.72623e-12
1
1
1
1
1
1
1
1
1
1
1
1
1
0.942107
0.307373
0.00834128
1.04563e-05
2.55343e-09
1.40816e-10
3.3371e-11
1.2519e-11
3.35807e-12
4.65326e-13
1
1
1
1
1
1
1
1
1
1
1
1
1
0.784337
0.120077
0.000964114
1.51042e-07
1.37888e-10
1.7212e-11
5.27605e-12
1.62112e-12
3.49732e-13
5.38014e-14
1
1
1
1
1
1
1
1
1
1
1
1
1
0.589907
0.0323364
5.91185e-05
2.33615e-09
1.24423e-11
2.31069e-12
6.52697e-13
1.65836e-13
2.94441e-14
4.45979e-15
1
1
1
1
1
1
1
1
1
1
1
1
0.987367
0.391082
0.0101835
4.75472e-06
9.05855e-11
1.28782e-12
2.64655e-13
6.5879e-14
1.41061e-14
2.10152e-15
2.90334e-16
1
1
1
1
1
1
1
1
1
1
1
1
0.922009
0.258199
0.00356004
4.7247e-07
6.0351e-12
1.38378e-13
2.67906e-14
5.58899e-15
1.02756e-15
1.31053e-16
1.59794e-17
1
1
1
1
1
1
1
1
1
1
1
1
0.847957
0.161912
0.00110658
3.70098e-08
5.32843e-13
1.66174e-14
2.54546e-15
4.20121e-16
6.70259e-17
7.42879e-18
7.93343e-19
1
1
1
1
1
1
1
1
1
1
1
1
0.764042
0.0936217
0.000294962
2.4132e-09
4.97311e-14
1.96829e-15
2.48847e-16
3.14955e-17
4.26631e-18
4.12078e-19
3.84805e-20
1
1
1
1
1
1
1
1
1
1
1
1
0.672245
0.0481463
6.4543e-05
1.34778e-10
2.29317e-17
2.8402e-16
3.75577e-17
3.41296e-18
3.49066e-19
2.85415e-20
2.25435e-21
1
1
1
1
1
1
1
1
1
1
1
1
0.573515
0.0215589
1.20124e-05
7.63323e-12
2.2932e-17
9.05038e-17
9.29508e-18
6.47712e-19
4.68337e-20
3.09912e-21
1.96783e-22
1
1
1
1
1
1
1
1
1
1
1
1
0.466515
0.00991713
2.7587e-06
8.22341e-20
2.29319e-17
3.57849e-17
2.34307e-18
1.38372e-19
7.65587e-21
4.17193e-22
2.14649e-23
1
1
1
1
1
1
1
1
1
1
1
1
0.361268
0.00487369
6.23145e-07
8.22341e-20
9.58543e-17
1.17262e-17
4.73122e-19
2.42259e-20
1.07783e-21
5.03185e-23
2.16582e-24
1
1
1
1
1
1
1
1
1
1
1
1
0.267448
0.00211069
1.14871e-07
8.22341e-20
6.19918e-17
2.7589e-18
7.70715e-20
3.32573e-21
1.18699e-22
4.92515e-24
1.80874e-25
1
1
1
1
1
1
1
1
1
1
1
1
0.197104
0.000899014
1.34244e-08
8.22341e-20
1.32215e-17
4.96249e-19
1.01738e-20
3.86663e-22
1.10045e-23
3.89576e-25
1.20739e-26
0.999991
0.99999
0.999988
0.999984
0.999978
0.99996
0.999938
0.99986
0.999769
0.99937
0.998638
0.985866
0.160457
0.000642765
1.06612e-19
8.00636e-19
1.96103e-18
7.26708e-20
1.1335e-21
3.85445e-23
8.80723e-25
2.73359e-26
7.09576e-28
0.981785
0.980714
0.979115
0.974746
0.970205
0.959187
0.949726
0.92662
0.910204
0.863557
0.819623
0.693001
0.148325
0.0023598
1.06617e-19
1.06612e-19
2.6696e-19
8.88785e-21
1.11279e-22
3.33978e-24
6.24065e-26
1.71155e-27
3.74252e-29
0.474192
0.464891
0.452793
0.42616
0.40432
0.363069
0.335653
0.283278
0.254407
0.19072
0.145936
0.0752344
0.0934696
0.0128229
2.99273e-06
8.97421e-11
6.34656e-16
1.02308e-23
1.02317e-23
2.56452e-25
3.98439e-27
9.59276e-29
1.78425e-30
2.09415e-39
1.04708e-39
-1.29859e-39
-8.98735e-38
-5.66718e-36
2.61587e-35
-2.76357e-33
-2.13466e-31
-2.01335e-31
-3.70712e-29
-8.08572e-27
-4.65961e-26
5.73165e-10
0.0169899
0.000865347
4.23017e-20
4.91855e-17
1.3191e-22
9.13655e-25
1.7721e-26
2.32221e-28
4.82135e-30
7.72624e-32
1.61919e-21
1.92732e-21
6.58007e-21
3.04096e-19
1.43279e-17
5.04751e-16
1.18915e-14
2.042e-13
2.12642e-12
1.93667e-11
4.65703e-09
4.21525e-07
2.86212e-06
0.0108575
4.16095e-20
4.25744e-20
1.61345e-18
5.74081e-23
8.27658e-26
1.10395e-27
1.2318e-29
2.16713e-31
3.0355e-33
3.30171e-20
3.26984e-20
8.16652e-20
2.96765e-18
1.1427e-16
3.16127e-15
6.31529e-14
9.11993e-13
8.91129e-12
4.75195e-11
1.55268e-09
9.2267e-07
2.61679e-06
2.6201e-06
9.45077e-05
4.46401e-21
3.97566e-20
1.49851e-23
7.54412e-27
6.11622e-29
5.90004e-31
8.61747e-33
1.07734e-34
3.69856e-20
3.63001e-20
8.61113e-20
3.00161e-18
1.13135e-16
3.07509e-15
6.17177e-14
9.36929e-13
1.08086e-11
6.49459e-11
8.71901e-11
5.91539e-16
5.15621e-16
1.42283e-05
3.38075e-05
1.67986e-24
1.77089e-20
2.73445e-24
6.53313e-28
3.02954e-30
2.51493e-32
3.02013e-34
3.42531e-36
5.83679e-29
8.9823e-27
6.88624e-25
3.16733e-23
9.52286e-22
1.82084e-20
1.00442e-19
8.63483e-20
8.63457e-20
8.63483e-20
8.63457e-20
8.41078e-15
2.24823e-14
2.24634e-14
3.40255e-09
1.6759e-24
3.05901e-20
3.7073e-25
4.87831e-29
1.3438e-31
9.42218e-34
9.33008e-36
9.68122e-38
7.25557e-30
1.55357e-27
1.5543e-25
9.6269e-24
4.11735e-22
1.29578e-20
2.92675e-19
4.60591e-18
5.71211e-17
6.00718e-16
5.44923e-15
4.06104e-14
2.21143e-13
4.69195e-13
4.78312e-13
2.25087e-18
1.11147e-20
2.83828e-26
2.9597e-30
5.2579e-33
3.0909e-35
2.52594e-37
2.418e-39
1.93702e-35
8.41643e-33
1.7137e-30
2.16462e-28
1.88393e-26
1.19213e-24
5.62685e-23
2.00837e-21
5.42421e-20
1.10422e-18
1.67295e-17
1.85794e-16
1.46343e-15
7.6228e-15
1.37557e-14
2.08641e-18
1.07111e-21
1.46397e-27
1.39216e-31
1.75539e-34
8.77936e-37
5.95633e-39
5.30327e-41
7.73964e-39
3.31791e-36
6.65778e-34
8.27626e-32
7.07468e-30
4.39841e-28
2.03885e-26
7.15969e-25
1.90483e-23
3.83595e-22
5.76512e-21
6.36973e-20
5.01118e-19
1.71158e-18
2.08126e-18
1.34274e-19
5.44094e-23
5.16765e-29
4.95568e-33
4.85919e-36
2.1426e-38
1.2202e-40
1.01945e-42
3.65725e-44
1.44261e-41
2.71916e-39
3.24849e-37
2.73971e-35
1.72918e-33
8.41951e-32
3.22985e-30
9.86001e-29
2.41257e-27
4.74373e-26
7.50451e-25
9.51323e-24
9.49884e-23
7.14011e-22
2.13304e-21
1.4962e-24
1.23873e-30
1.30343e-34
1.08358e-37
4.41864e-40
2.15734e-42
1.70828e-44
2.85802e-47
1.15401e-44
2.22497e-42
2.72324e-40
2.36091e-38
1.54074e-36
7.81161e-35
3.14968e-33
1.02045e-31
2.68143e-30
5.73436e-29
9.95751e-28
1.39354e-26
1.53624e-25
1.25769e-24
3.64956e-24
2.17076e-26
1.99698e-32
2.49373e-36
1.91353e-39
7.58416e-42
3.27862e-44
2.48821e-46
2.1029e-52
8.30394e-50
1.54608e-47
1.79972e-45
1.45989e-43
8.74571e-42
3.99084e-40
1.41542e-38
3.94167e-37
8.67927e-36
1.51541e-34
2.1114e-33
2.39574e-32
2.36553e-31
2.3323e-30
2.54891e-29
1.50885e-28
2.07197e-34
3.40789e-38
2.6316e-41
1.06479e-43
4.25592e-46
3.13487e-48
2.27365e-58
1.16676e-55
2.88073e-53
4.55662e-51
5.16851e-49
4.47674e-47
3.06939e-45
1.71032e-43
7.88094e-42
3.04427e-40
9.97238e-39
2.79198e-37
6.73361e-36
1.40522e-34
2.53935e-33
3.91548e-32
2.64038e-31
1.32506e-36
3.29159e-40
2.79045e-43
1.20855e-45
4.69545e-48
3.40577e-50
2.14804e-63
1.14444e-60
2.91391e-58
4.71519e-56
5.4304e-54
4.73357e-52
3.23842e-50
1.78167e-48
8.0035e-47
2.96471e-45
9.09153e-44
2.30302e-42
4.76264e-41
7.82986e-40
9.65138e-39
7.81728e-38
1.70562e-37
4.53468e-39
2.18128e-42
2.24571e-45
1.09679e-47
4.37311e-50
3.17928e-52
6.98792e-74
5.02129e-71
1.75124e-68
3.95032e-66
6.46955e-64
8.20106e-62
8.37202e-60
7.07819e-58
5.063e-56
3.11482e-54
1.6729e-52
7.94023e-51
3.3731e-49
1.29742e-47
4.56673e-46
1.48258e-44
4.45893e-43
6.39368e-42
9.62592e-45
1.36051e-47
7.92585e-50
3.42497e-52
2.54774e-54
2.06567e-78
1.66654e-75
6.50441e-73
1.63497e-70
2.97117e-68
4.15592e-66
4.65122e-64
4.27523e-62
3.28804e-60
2.14411e-58
1.19706e-56
5.75756e-55
2.3899e-53
8.5496e-52
2.61992e-50
6.8418e-49
1.49797e-47
1.27146e-46
2.6154e-47
6.07445e-50
4.52775e-52
2.24329e-54
1.75104e-56
6.1743e-87
6.06306e-84
2.91564e-81
9.13881e-79
2.09908e-76
3.76877e-74
5.51587e-72
6.77565e-70
7.15079e-68
6.60188e-66
5.42048e-64
4.01388e-62
2.71847e-60
1.70622e-58
1.00456e-56
5.60971e-55
2.99931e-53
1.5489e-51
3.93885e-50
1.97137e-52
2.04379e-54
1.22848e-56
1.03482e-58
2.01191e-91
2.30562e-88
1.28977e-85
4.69604e-83
1.25296e-80
2.61423e-78
4.45005e-76
6.36553e-74
7.83436e-72
8.45279e-70
8.13082e-68
7.07742e-66
5.6463e-64
4.17836e-62
2.89489e-60
1.89628e-58
1.18499e-56
7.13709e-55
2.08294e-53
4.49326e-55
7.24782e-57
5.6128e-59
5.26921e-61
1.05886e-96
1.37148e-93
8.62242e-91
3.50351e-88
1.03443e-85
2.36301e-83
4.34677e-81
6.6079e-79
8.46489e-77
9.25684e-75
8.73215e-73
7.15982e-71
5.14934e-69
3.30511e-67
1.97411e-65
1.18672e-63
7.5653e-62
4.65214e-60
2.07664e-58
7.03479e-58
2.02248e-59
2.14876e-61
2.32599e-63
3.83927e-105
7.11692e-102
6.43933e-99
3.78726e-96
1.63115e-93
5.4943e-91
1.51314e-88
3.51727e-86
7.08861e-84
1.26625e-81
2.04607e-79
3.0436e-77
4.22972e-75
5.55962e-73
6.97332e-71
8.41399e-69
9.83037e-67
1.12092e-64
1.25553e-62
6.94057e-61
4.42636e-62
6.91358e-64
8.95296e-66
2.84847e-110
6.49897e-107
7.2768e-104
5.33378e-101
2.88595e-98
1.23106e-95
4.32659e-93
1.29137e-90
3.35522e-88
7.73121e-86
1.60689e-83
3.05401e-81
5.3763e-79
8.86511e-77
1.38336e-74
2.06308e-72
2.96884e-70
4.1671e-68
5.75327e-66
3.88976e-64
7.64478e-65
1.88859e-66
3.03554e-68
7.30403e-116
2.09258e-112
2.94148e-109
2.70712e-106
1.8403e-103
9.87347e-101
4.371e-98
1.64668e-95
5.41349e-93
1.58328e-90
4.19071e-88
1.01776e-85
2.29465e-83
4.85047e-81
9.6944e-79
1.84913e-76
3.40049e-74
6.10538e-72
1.07216e-69
9.26971e-68
1.05131e-67
4.42535e-69
9.16113e-71
1.21419e-122
4.561e-119
8.34009e-116
9.89615e-113
8.59762e-110
5.84567e-107
3.25593e-104
1.5347e-101
6.2959e-99
2.29971e-96
7.64164e-94
2.35074e-91
6.8002e-89
1.87241e-86
4.95718e-84
1.2726e-81
3.19243e-79
7.8965e-77
1.90551e-74
3.7942e-72
1.16678e-70
9.05709e-72
2.4978e-73
1.29598e-130
7.51035e-127
2.12999e-123
3.94478e-120
5.38036e-117
5.77268e-114
5.10025e-111
3.83706e-108
2.53242e-105
1.50367e-102
8.22441e-100
4.22361e-97
2.06751e-94
9.74203e-92
4.44105e-89
1.96241e-86
8.40362e-84
3.49465e-81
1.41792e-78
5.60342e-76
1.07101e-73
1.65115e-74
6.24945e-76
1.03423e-139
1.25647e-135
7.5686e-132
3.01499e-128
8.94732e-125
2.10779e-121
4.11292e-118
6.83596e-115
9.90195e-112
1.27055e-108
1.46627e-105
1.53954e-102
1.48762e-99
1.33528e-96
1.12393e-93
8.94996e-91
6.80326e-88
4.98427e-85
3.55498e-82
2.48741e-79
8.50847e-77
2.75348e-77
1.4625e-78
1.1871e-151
2.05124e-147
3.56898e-143
4.00047e-139
3.23827e-135
2.03705e-131
1.04864e-127
4.58428e-124
1.75351e-120
6.00574e-117
1.8775e-113
5.43929e-110
1.47834e-106
3.80897e-103
9.38111e-100
2.22772e-96
5.13746e-93
1.16064e-89
2.58722e-86
5.71801e-83
6.19037e-80
4.31919e-80
3.25931e-81
2.50608e-13
1.93668e-14
7.91929e-16
2.70265e-17
7.23004e-14
1.13795e-14
1.54779e-15
1.82909e-16
8.44741e-15
1.49644e-15
2.29446e-16
2.68769e-17
6.92585e-16
1.2041e-16
1.68348e-17
1.87595e-18
4.26781e-17
7.14984e-18
9.4897e-19
1.00918e-19
2.16874e-18
3.46765e-19
4.4318e-20
4.5635e-21
9.79447e-20
1.47924e-20
1.81594e-21
1.81974e-22
4.28797e-21
6.08697e-22
7.20714e-23
7.09648e-24
2.19771e-22
2.84702e-23
3.19362e-24
3.05715e-25
1.59878e-23
1.78761e-24
1.80695e-25
1.60928e-26
1.44725e-24
1.36745e-25
1.20166e-26
9.54994e-28
1.25104e-25
1.01904e-26
7.83572e-28
5.52922e-29
9.19304e-27
6.58706e-28
4.50578e-29
2.84828e-30
5.55035e-28
3.55511e-29
2.20042e-30
1.26104e-31
2.84551e-29
1.61507e-30
9.05682e-32
4.7495e-33
1.31392e-30
6.68067e-32
3.41729e-33
1.62651e-34
5.48463e-32
2.5223e-33
1.18024e-34
5.1386e-36
2.07321e-33
8.6925e-35
3.72744e-36
1.49533e-37
7.08778e-35
2.72771e-36
1.07373e-37
3.99557e-39
2.17811e-36
7.7514e-38
2.80609e-39
9.75477e-41
5.99841e-38
1.98555e-39
6.62843e-41
2.16542e-42
1.47359e-39
4.55736e-41
1.40923e-42
4.3506e-44
3.21679e-41
9.33164e-43
2.68458e-44
7.86972e-46
6.20635e-43
1.69584e-44
4.56291e-46
1.27659e-47
1.05744e-44
2.73283e-46
6.91021e-48
1.85364e-49
1.58481e-46
3.89116e-48
9.2951e-50
2.4023e-51
2.08858e-48
4.89382e-50
1.11037e-51
2.77771e-53
2.415e-50
5.42577e-52
1.17645e-53
2.8621e-55
2.4498e-52
5.3022e-54
1.10625e-55
2.62934e-57
2.17791e-54
4.56429e-56
9.23388e-58
2.15433e-59
1.6976e-56
3.46471e-58
6.8524e-60
1.57691e-61
1.16019e-58
2.32163e-60
4.52753e-62
1.03309e-63
6.96837e-61
1.37754e-62
2.6716e-64
6.0784e-66
3.68648e-63
7.26039e-65
1.41239e-66
3.22348e-68
1.72695e-65
3.41846e-67
6.72566e-69
1.54927e-70
7.20358e-68
1.44635e-69
2.90115e-71
6.78717e-73
2.69932e-70
5.54657e-72
1.14273e-73
2.7313e-75
9.17265e-73
1.9455e-74
4.14524e-76
1.01787e-77
2.86241e-75
6.31501e-77
1.39983e-78
3.54838e-80
8.31302e-78
1.9204e-79
4.45068e-81
1.16925e-82
2.28241e-80
5.54976e-82
1.34974e-83
3.68571e-85
6.008e-83
1.54284e-84
3.94627e-86
1.1218e-87
9.25577e-19
3.00431e-20
6.77387e-22
1.13945e-23
1.51922e-25
1.79912e-27
1.87872e-29
1.75188e-31
1.45426e-33
1.07696e-35
7.08026e-38
4.10606e-40
2.07165e-42
8.9154e-45
3.17442e-47
8.95596e-50
1.87031e-52
2.56421e-55
1.72721e-58
1.14907e-17
3.97664e-19
1.0069e-20
1.8601e-22
2.66628e-24
3.10865e-26
3.04104e-28
2.55174e-30
1.85533e-32
1.18005e-34
6.57796e-37
3.21315e-39
1.36435e-41
4.96442e-44
1.50737e-46
3.66644e-49
6.67759e-52
8.07218e-55
4.84041e-58
1.50605e-18
4.362e-20
9.07558e-22
1.53608e-23
2.1462e-25
2.57067e-27
2.63638e-29
2.35893e-31
1.84463e-33
1.27252e-35
7.73167e-38
4.12815e-40
1.9123e-42
7.54382e-45
2.45787e-47
6.33611e-50
1.20745e-52
1.5094e-55
9.26749e-59
9.92947e-20
2.91233e-21
6.49065e-23
1.16348e-24
1.69394e-26
2.06896e-28
2.15214e-30
1.95031e-32
1.55518e-34
1.10159e-36
6.90839e-39
3.8071e-41
1.81078e-43
7.26948e-46
2.38532e-48
6.13205e-51
1.15567e-53
1.41991e-56
8.53191e-60
5.02114e-21
1.41323e-22
3.06645e-24
5.45157e-26
7.98514e-28
1.00411e-29
1.09272e-31
1.05331e-33
9.00119e-36
6.83956e-38
4.56656e-40
2.64641e-42
1.30437e-44
5.35037e-47
1.77195e-49
4.55243e-52
8.50968e-55
1.03116e-57
6.08648e-61
2.19894e-22
6.13024e-24
1.34292e-25
2.46556e-27
3.79827e-29
5.10094e-31
5.98392e-33
6.21459e-35
5.66944e-37
4.52502e-39
3.11528e-41
1.8293e-43
9.0039e-46
3.64802e-48
1.18402e-50
2.96576e-53
5.38717e-56
6.33197e-59
3.62235e-62
8.60459e-24
2.39251e-25
5.33346e-27
1.01854e-28
1.65919e-30
2.37769e-32
2.97021e-34
3.25283e-36
3.08114e-38
2.51448e-40
1.74518e-42
1.0219e-44
4.97343e-47
1.98045e-49
6.28966e-52
1.53678e-54
2.71717e-57
3.10415e-60
1.72461e-63
3.37253e-25
9.59626e-27
2.2397e-28
4.52972e-30
7.83687e-32
1.18128e-33
1.52892e-35
1.70439e-37
1.61808e-39
1.30681e-41
8.89405e-44
5.07436e-46
2.39601e-48
9.23224e-51
2.83274e-53
6.68244e-56
1.14061e-58
1.25838e-61
6.75642e-65
1.46095e-26
4.23232e-28
1.01872e-29
2.11462e-31
3.72264e-33
5.63108e-35
7.22534e-37
7.90814e-39
7.32047e-41
5.73976e-43
3.78171e-45
2.08547e-47
9.50921e-50
3.53707e-52
1.04759e-54
2.38584e-57
3.93299e-60
4.19267e-63
2.17672e-66
7.43619e-28
2.10799e-29
5.00849e-31
1.01868e-32
1.74745e-34
2.55701e-36
3.15966e-38
3.31992e-40
2.94563e-42
2.21243e-44
1.39634e-46
7.37953e-49
3.22675e-51
1.15197e-53
3.27785e-56
7.17998e-59
1.13979e-61
1.1716e-64
5.87361e-68
4.05682e-29
1.07017e-30
2.39357e-32
4.58776e-34
7.43274e-36
1.02818e-37
1.20299e-39
1.1992e-41
1.01132e-43
7.23607e-46
4.35851e-48
2.20275e-50
9.22591e-53
3.16026e-55
8.64084e-58
1.8214e-60
2.78641e-63
2.76397e-66
1.33919e-69
2.11909e-30
5.09579e-32
1.052e-33
1.86969e-35
2.82459e-37
3.65777e-39
4.02179e-41
3.78137e-43
3.017e-45
2.04871e-47
1.17409e-49
5.66028e-52
2.26628e-54
7.43694e-57
1.95173e-59
3.95624e-62
5.83072e-65
5.58188e-68
2.6149e-71
9.83962e-32
2.14414e-33
4.05524e-35
6.64306e-37
9.31004e-39
1.12476e-40
1.15907e-42
1.02629e-44
7.7387e-47
4.98557e-49
2.71839e-51
1.25064e-53
4.78983e-56
1.50716e-58
3.80039e-61
7.4168e-64
1.05438e-66
9.75407e-70
4.42386e-73
3.94843e-33
7.82233e-35
1.35759e-36
2.05167e-38
2.66817e-40
3.0078e-42
2.9049e-44
2.42225e-46
1.72613e-48
1.05509e-50
5.47416e-53
2.40408e-55
8.81072e-58
2.65982e-60
6.44865e-63
1.21272e-65
1.66466e-68
1.48989e-71
6.55055e-75
1.35362e-34
2.44888e-36
3.9124e-38
5.47117e-40
6.6149e-42
6.97367e-44
6.32195e-46
4.97374e-48
3.35471e-50
1.94891e-52
9.63675e-55
4.04668e-57
1.42148e-59
4.12392e-62
9.62911e-65
1.74785e-67
2.32039e-70
2.01253e-73
8.59166e-77
4.17695e-36
6.6392e-38
9.71758e-40
1.26324e-41
1.42397e-43
1.40863e-45
1.20142e-47
8.94026e-50
5.71866e-52
3.16396e-54
1.49366e-56
6.00823e-59
2.0263e-61
5.65918e-64
1.27473e-66
2.23719e-69
2.87733e-72
2.42251e-75
1.00589e-78
1.19932e-37
1.69139e-39
2.21375e-41
2.58164e-43
2.67193e-45
2.49124e-47
2.00507e-49
1.41635e-51
8.61479e-54
4.55221e-56
2.05665e-58
7.94384e-61
2.57778e-63
6.94555e-66
1.51226e-68
2.57112e-71
3.20948e-74
2.62771e-77
1.06308e-80
3.19292e-39
4.03529e-41
4.73984e-43
4.99583e-45
4.69363e-47
3.99549e-49
2.94906e-51
1.98548e-53
1.1515e-55
5.83032e-58
2.52737e-60
9.39923e-63
2.94166e-65
7.66453e-68
1.61659e-70
2.66819e-73
3.23906e-76
2.5838e-79
1.02032e-82
7.85074e-41
8.98071e-43
9.50461e-45
9.12205e-47
7.82125e-49
6.11566e-51
4.15846e-53
2.59477e-55
1.39648e-57
6.71742e-60
2.80093e-62
1.00583e-64
3.04329e-67
7.68607e-70
1.57373e-72
2.52667e-75
2.98841e-78
2.32662e-81
8.98285e-85
1.77491e-42
1.85593e-44
1.77846e-46
1.56603e-48
1.23234e-50
8.90499e-53
5.60824e-55
3.25973e-57
1.63628e-59
7.40769e-62
2.90741e-64
9.89041e-67
2.86546e-69
7.03313e-72
1.4011e-74
2.1931e-77
2.53234e-80
1.92797e-83
7.29055e-87
3.67265e-44
3.54241e-46
3.09334e-48
2.51814e-50
1.8299e-52
1.22942e-54
7.21303e-57
3.92538e-59
1.84717e-61
7.90077e-64
2.93113e-66
9.47793e-69
2.6214e-71
6.16435e-74
1.1803e-76
1.78419e-79
1.99683e-82
1.48314e-85
5.49643e-89
6.93739e-46
6.22193e-48
4.98874e-50
3.78215e-52
2.55445e-54
1.60522e-56
8.82641e-59
4.52028e-61
2.0044e-63
8.13309e-66
2.86404e-68
8.83309e-71
2.33914e-73
5.28388e-76
9.74748e-79
1.42564e-81
1.54902e-84
1.1225e-87
4.06784e-91
1.1895e-47
1.00028e-49
7.43002e-52
5.28632e-54
3.34162e-56
1.97622e-58
1.02479e-60
4.96475e-63
2.08557e-65
8.06196e-68
2.70619e-70
7.98836e-73
2.03195e-75
4.4208e-78
7.87632e-81
1.11665e-83
1.17983e-86
8.34693e-90
2.96008e-93
1.84681e-49
1.46849e-51
1.02033e-53
6.86488e-56
4.09073e-58
2.2907e-60
1.12727e-62
5.19294e-65
2.07758e-67
7.68284e-70
2.46856e-72
6.99869e-75
1.71553e-77
3.60427e-80
6.21654e-83
8.55868e-86
8.80766e-89
6.08837e-92
2.11457e-95
2.58731e-51
1.96224e-53
1.28778e-55
8.2587e-58
4.67426e-60
2.49432e-62
1.17231e-64
5.16253e-67
1.97781e-69
7.02617e-72
2.17004e-74
5.92994e-77
1.40527e-79
2.85861e-82
4.78429e-85
6.40814e-88
6.4335e-91
4.34939e-94
1.48049e-97
3.26397e-53
2.38296e-55
1.49243e-57
9.19628e-60
4.98206e-62
2.54984e-64
1.15182e-66
4.87447e-69
1.79782e-71
6.16078e-74
1.83651e-76
4.85403e-79
1.11557e-81
2.20284e-84
3.58565e-87
4.68079e-90
4.59176e-93
3.03887e-96
1.01445e-99
3.70343e-55
2.62754e-57
1.5864e-59
9.4681e-62
4.94763e-64
2.44447e-66
1.06799e-68
4.36664e-71
1.55873e-73
5.17388e-76
1.49469e-78
3.83457e-81
8.57268e-84
1.64745e-86
2.61393e-89
3.33162e-92
3.19829e-95
2.07398e-98
6.79412e-102
3.77591e-57
2.62922e-59
1.54629e-61
9.01154e-64
4.57822e-66
2.19792e-68
9.34549e-71
3.71117e-73
1.2888e-75
4.16056e-78
1.16944e-80
2.92211e-83
6.37334e-86
1.19496e-88
1.85215e-91
2.30886e-94
2.17212e-97
1.38137e-100
4.44322e-104
3.46059e-59
2.38867e-61
1.38256e-63
7.93126e-66
3.94802e-68
1.85374e-70
7.71756e-73
2.99211e-75
1.01599e-77
3.20279e-80
8.7928e-83
2.14717e-85
4.58178e-88
8.40179e-91
1.27482e-93
1.55694e-96
1.43737e-99
8.97236e-103
2.83529e-106
2.85277e-61
1.97192e-63
1.13498e-65
6.46055e-68
3.17563e-70
1.46779e-72
6.01891e-75
2.28995e-77
7.63975e-80
2.36106e-82
6.35472e-85
1.52153e-87
3.18501e-90
5.72558e-93
8.52162e-96
1.0213e-98
9.26428e-102
5.68091e-105
1.76456e-108
2.11902e-63
1.48173e-65
8.56851e-68
4.87771e-70
2.38564e-72
1.09233e-74
4.43739e-77
1.66496e-79
5.48304e-82
1.66767e-84
4.4161e-87
1.04002e-89
2.14118e-92
3.78196e-95
5.53197e-98
6.51639e-101
5.81478e-104
3.50553e-107
1.07083e-110
1.42122e-65
1.01565e-67
5.96161e-70
3.42015e-72
1.67688e-74
7.65345e-77
3.09711e-79
1.15157e-81
3.76009e-84
1.1297e-86
2.95336e-89
6.86177e-92
1.3928e-94
2.42237e-97
3.4886e-100
4.04507e-103
3.55454e-106
2.1084e-109
6.33671e-113
8.63477e-68
6.37061e-70
3.83358e-72
2.23306e-74
1.10544e-76
5.05932e-79
2.05024e-81
7.58907e-84
2.4672e-86
7.34834e-89
1.90271e-91
4.3736e-94
8.7728e-97
1.50543e-99
2.13825e-102
2.44401e-105
2.11697e-108
1.23638e-111
3.65758e-115
4.76896e-70
3.6699e-72
2.286e-74
1.36189e-76
6.85365e-79
3.1635e-81
1.2902e-83
4.77511e-86
1.55172e-88
4.59709e-91
1.18251e-93
2.69626e-96
5.35612e-99
9.08593e-102
1.27481e-104
1.43826e-107
1.22911e-110
7.07289e-114
2.06035e-117
2.40638e-72
1.95095e-74
1.26941e-76
7.78817e-79
4.00988e-81
1.87676e-83
7.73889e-86
2.87556e-88
9.37428e-91
2.77115e-93
7.10114e-96
1.61003e-98
3.17384e-101
5.33169e-104
7.40034e-107
8.25147e-110
6.96265e-113
3.95027e-116
1.13353e-119
1.11525e-74
9.62022e-77
6.59408e-79
4.19385e-81
2.22219e-83
1.05994e-85
4.43791e-88
1.6618e-90
5.45271e-93
1.61304e-95
4.12822e-98
9.32772e-101
1.82808e-103
3.04602e-106
4.18808e-109
4.62032e-112
3.85241e-115
2.15619e-118
6.09686e-122
4.78092e-77
4.42864e-79
3.22231e-81
2.13733e-83
1.17167e-85
5.72163e-88
2.44166e-90
9.24525e-93
3.0623e-95
9.08905e-98
2.32848e-100
5.25352e-103
1.02531e-105
1.69698e-108
2.31405e-111
2.52838e-114
2.08451e-117
1.15156e-120
3.20961e-124
1.90972e-79
1.91601e-81
1.48993e-83
1.0363e-85
5.90472e-88
2.9642e-90
1.29355e-92
4.96781e-95
1.66534e-97
4.97065e-100
1.27722e-102
2.88245e-105
5.61033e-108
9.23531e-111
1.25033e-113
1.35424e-116
1.10466e-119
6.02632e-123
1.65611e-126
7.17303e-82
7.8528e-84
6.56357e-86
4.8096e-88
2.85952e-90
1.48085e-92
6.62691e-95
2.58797e-97
8.79912e-100
2.64632e-102
6.83158e-105
1.54444e-107
3.00162e-110
4.91957e-113
6.61856e-116
7.11154e-119
5.74222e-122
3.09474e-125
8.38771e-129
2.55697e-84
3.07353e-86
2.77394e-88
2.14978e-90
1.33787e-92
7.16783e-95
3.29679e-97
1.31198e-99
4.53214e-102
1.37562e-104
3.57273e-107
8.10079e-110
1.57369e-112
2.57036e-115
3.43898e-118
3.66807e-121
2.9332e-124
1.56232e-127
4.17712e-131
8.74326e-87
1.15932e-88
1.13358e-90
9.31817e-93
6.08387e-95
3.37948e-97
1.60019e-99
6.49965e-102
2.2841e-104
7.00536e-107
1.83232e-109
4.17062e-112
8.10471e-115
1.32015e-117
1.7576e-120
1.86192e-123
1.4751e-126
7.76741e-130
2.04911e-133
2.88918e-89
4.23726e-91
4.49655e-93
3.927e-95
2.69329e-97
1.55314e-99
7.57806e-102
3.14483e-104
1.12512e-106
3.48964e-109
9.19833e-112
2.10303e-114
4.09038e-117
6.64782e-120
8.81117e-123
9.27403e-126
7.28147e-129
3.7916e-132
9.87174e-136
)
;

boundaryField
{
    leftWall
    {
        type            zeroGradient;
    }
    rightWall
    {
        type            zeroGradient;
    }
    lowerWall
    {
        type            zeroGradient;
    }
    atmosphere
    {
        type            inletOutlet;
        inletValue      uniform 0;
        value           nonuniform List<scalar> 
46
(
0
0
0
0
0
0
0
0
0
0
0
0
0
0
0
0
0
0
0
0
6.19037e-80
4.31919e-80
3.25931e-81
6.008e-83
1.54284e-84
3.94627e-86
1.1218e-87
2.88918e-89
4.23726e-91
4.49655e-93
3.927e-95
2.69329e-97
1.55314e-99
7.57806e-102
3.14483e-104
1.12512e-106
3.48964e-109
9.19833e-112
2.10303e-114
4.09038e-117
6.64782e-120
8.81117e-123
9.27403e-126
7.28147e-129
3.7916e-132
9.87174e-136
)
;
    }
    defaultFaces
    {
        type            empty;
    }
}


// ************************************************************************* //
