/*--------------------------------*- C++ -*----------------------------------*\
| =========                 |                                                 |
| \\      /  F ield         | OpenFOAM: The Open Source CFD Toolbox           |
|  \\    /   O peration     | Version:  2012                                  |
|   \\  /    A nd           | Website:  www.openfoam.com                      |
|    \\/     M anipulation  |                                                 |
\*---------------------------------------------------------------------------*/
FoamFile
{
    version     2.0;
    format      ascii;
    class       volScalarField;
    location    "0.28";
    object      minKappa;
}
// * * * * * * * * * * * * * * * * * * * * * * * * * * * * * * * * * * * * * //

dimensions      [0 0 0 0 0 0 0];


internalField   nonuniform List<scalar> 
2268
(
1.01446e-06
2.31659e-06
3.66438e-06
5.11202e-06
6.54085e-06
7.92861e-06
9.3268e-06
1.06882e-05
1.208e-05
1.32824e-05
1.46367e-05
1.55149e-05
1.6635e-05
1.74568e-05
1.79795e-05
1.8276e-05
1.81231e-05
1.75134e-05
1.63449e-05
1.44264e-05
1.15018e-05
8.01321e-06
3.73038e-06
1.01446e-06
2.31659e-06
3.66438e-06
5.11202e-06
6.54085e-06
7.92861e-06
9.3268e-06
1.06882e-05
1.208e-05
1.32824e-05
1.46367e-05
1.55149e-05
1.6635e-05
1.74568e-05
1.79795e-05
1.8276e-05
1.81231e-05
1.75134e-05
1.63449e-05
1.44264e-05
1.15018e-05
8.01321e-06
3.73038e-06
1.54636e-06
2.59667e-06
3.85012e-06
5.25022e-06
6.64718e-06
8.01947e-06
9.40581e-06
1.07633e-05
1.21418e-05
1.33572e-05
1.46963e-05
1.55854e-05
1.67747e-05
1.74768e-05
1.80982e-05
1.84267e-05
1.83584e-05
1.77933e-05
1.67209e-05
1.49544e-05
1.22449e-05
9.05542e-06
5.59243e-06
2.17053e-06
3.00974e-06
4.13953e-06
5.47075e-06
6.81869e-06
8.16608e-06
9.53401e-06
1.08845e-05
1.22415e-05
1.34728e-05
1.47895e-05
1.57035e-05
1.69382e-05
1.7577e-05
1.82712e-05
1.86153e-05
1.86492e-05
1.81712e-05
1.71879e-05
1.56668e-05
1.33315e-05
1.0988e-05
8.67167e-06
2.82388e-06
3.51141e-06
4.5131e-06
5.7665e-06
7.05267e-06
8.36795e-06
9.71285e-06
1.10539e-05
1.23831e-05
1.36351e-05
1.49222e-05
1.58783e-05
1.71482e-05
1.77598e-05
1.85326e-05
1.88885e-05
1.90627e-05
1.8726e-05
1.79172e-05
1.66492e-05
1.46687e-05
1.30244e-05
1.16268e-05
3.48974e-06
4.06891e-06
4.95087e-06
6.12665e-06
7.34273e-06
8.61947e-06
9.93645e-06
1.12639e-05
1.25614e-05
1.38354e-05
1.50843e-05
1.60978e-05
1.73936e-05
1.79933e-05
1.89011e-05
1.9255e-05
1.95215e-05
1.93573e-05
1.87654e-05
1.78518e-05
1.62628e-05
1.55502e-05
1.54284e-05
4.16159e-06
4.66238e-06
5.43865e-06
6.54125e-06
7.68609e-06
8.92006e-06
1.02055e-05
1.15158e-05
1.27831e-05
1.40787e-05
1.52841e-05
1.63731e-05
1.76779e-05
1.82779e-05
1.9357e-05
1.96716e-05
2.01047e-05
2.00672e-05
1.9805e-05
1.92799e-05
1.81579e-05
1.84372e-05
1.94529e-05
4.83786e-06
5.28011e-06
5.96464e-06
7.0004e-06
8.07583e-06
9.26364e-06
1.05137e-05
1.18033e-05
1.30442e-05
1.43538e-05
1.55188e-05
1.66994e-05
1.79765e-05
1.86149e-05
1.98697e-05
2.01441e-05
2.08189e-05
2.09002e-05
2.09788e-05
2.09754e-05
2.02675e-05
2.17723e-05
2.50284e-05
2.36264e-05
6.91839e-05
0.000100624
0.000111759
0.000113941
9.87923e-05
9.03629e-05
7.20657e-05
5.49152e-05
3.67188e-05
1.77901e-05
6.97485e-06
1.4036e-05
1.97135e-05
2.67178e-05
2.44643e-05
2.25286e-05
1.43924e-05
7.64736e-06
2.36264e-05
6.91839e-05
0.000100624
0.000111759
0.000113941
9.87923e-05
9.03629e-05
7.20657e-05
5.49152e-05
3.67188e-05
1.77901e-05
6.97485e-06
1.4036e-05
1.97135e-05
2.67178e-05
2.44643e-05
2.25286e-05
1.43924e-05
7.64736e-06
4.15391e-05
7.62533e-05
0.000100677
0.000115619
0.000119318
0.000102133
9.27362e-05
7.49627e-05
5.74064e-05
4.02125e-05
2.15796e-05
1.32207e-05
1.72453e-05
2.16924e-05
2.79718e-05
2.53797e-05
2.33454e-05
1.55388e-05
9.88407e-06
5.79174e-05
8.88454e-05
0.000110889
0.000122981
0.000121352
0.000103698
9.46716e-05
7.7507e-05
5.93498e-05
4.39221e-05
2.55541e-05
1.99249e-05
2.13024e-05
2.4377e-05
3.00912e-05
2.73878e-05
2.56436e-05
1.84832e-05
1.38071e-05
8.03854e-05
0.000105121
0.000120668
0.000133751
0.000132136
0.00010939
9.83157e-05
8.24867e-05
6.38288e-05
4.98225e-05
3.14575e-05
2.66819e-05
2.65167e-05
2.80674e-05
3.29535e-05
2.97701e-05
2.81364e-05
2.17351e-05
1.81625e-05
0.00010233
0.000126626
0.000138755
0.000144726
0.000139556
0.000114699
0.000103104
8.84912e-05
6.8091e-05
5.669e-05
3.77704e-05
3.44193e-05
3.26961e-05
3.27957e-05
3.69231e-05
3.34196e-05
3.1949e-05
2.60411e-05
2.301e-05
0.000133098
0.000152534
0.000160916
0.000165853
0.000160188
0.000125677
0.000107912
9.66141e-05
7.59617e-05
6.47417e-05
4.5425e-05
4.19694e-05
3.96147e-05
3.80762e-05
4.16228e-05
3.75098e-05
3.62348e-05
3.10285e-05
2.85884e-05
0.000161043
0.000188594
0.000191617
0.000184801
0.000180745
0.000137749
0.0001165
0.000107493
8.3673e-05
7.51688e-05
5.38454e-05
5.10882e-05
4.74409e-05
4.46952e-05
4.76567e-05
4.31227e-05
4.16728e-05
3.68123e-05
3.4685e-05
8.62527e-06
9.24722e-06
1.01993e-05
1.17256e-05
1.33064e-05
1.50904e-05
1.69895e-05
1.89706e-05
2.08836e-05
2.29381e-05
2.47273e-05
2.6709e-05
2.8604e-05
2.97631e-05
3.19332e-05
3.23427e-05
3.38857e-05
3.40999e-05
3.51085e-05
3.56843e-05
3.68655e-05
4.12956e-05
5.36617e-05
1.48188e-05
1.55222e-05
1.6559e-05
1.84031e-05
2.03043e-05
2.24043e-05
2.46301e-05
2.70523e-05
2.95519e-05
3.21611e-05
3.47441e-05
3.74629e-05
4.0067e-05
4.26203e-05
4.53095e-05
4.69953e-05
5.00475e-05
5.0721e-05
5.40262e-05
5.47112e-05
5.84974e-05
6.27431e-05
6.03048e-05
1.7909e-05
1.85138e-05
1.93708e-05
2.1023e-05
2.27226e-05
2.47782e-05
2.69482e-05
2.92791e-05
3.17415e-05
3.43758e-05
3.70731e-05
3.98994e-05
4.27239e-05
4.56387e-05
4.83436e-05
5.09227e-05
5.41922e-05
5.56629e-05
5.93975e-05
6.06928e-05
6.68389e-05
7.02912e-05
6.75199e-05
2.10008e-05
2.15353e-05
2.22826e-05
2.37832e-05
2.53359e-05
2.72644e-05
2.9446e-05
3.17039e-05
3.40963e-05
3.66922e-05
3.93908e-05
4.23849e-05
4.60743e-05
5.05691e-05
5.5853e-05
6.74067e-05
7.83633e-05
9.16595e-05
9.16557e-05
8.59738e-05
7.2078e-05
7.34381e-05
6.36123e-05
2.40869e-05
2.45673e-05
2.52612e-05
2.66367e-05
2.80889e-05
2.99382e-05
3.20891e-05
3.46373e-05
3.76932e-05
4.20688e-05
4.93042e-05
6.43166e-05
8.41919e-05
0.000114119
0.000161765
0.000279706
0.00043829
0.000557347
0.000538116
0.000443089
0.000190912
0.000186647
0.000171996
2.84054e-05
2.89811e-05
3.00541e-05
3.21084e-05
3.54858e-05
4.15548e-05
5.05803e-05
6.33539e-05
8.13848e-05
0.000112245
0.000182985
0.000370589
0.00054958
0.000784056
0.000907479
0.000982682
0.000802507
0.000802507
0.000824552
0.0011593
0.00149479
0.00143423
0.00122271
7.50992e-05
7.80079e-05
8.53834e-05
0.000100293
0.000131669
0.000206406
0.00030791
0.000421099
0.000560972
0.000677425
0.000868824
0.00106914
0.00123523
0.0013624
0.00131935
0.00112151
0.000932244
0.000909349
0.00116242
0.00159453
0.00182115
0.00198262
0.0015344
0.000520823
0.000535161
0.000513917
0.000569899
0.000636133
0.000717903
0.000809454
0.000899006
0.00101962
0.00110853
0.00126359
0.00143647
0.00158425
0.00163644
0.00157922
0.00145483
0.00135933
0.0014815
0.0017145
0.00172293
0.00170285
0.00178207
0.00159382
0.000744638
0.000748378
0.000746699
0.000777674
0.000815081
0.00087166
0.000942962
0.00104285
0.00118242
0.00132838
0.00149671
0.0016527
0.00171338
0.0017305
0.00171828
0.00179813
0.00187545
0.00189623
0.00182692
0.00172293
0.00170285
0.00171593
0.0015148
0.000777934
0.000792096
0.000820413
0.0008555
0.000894867
0.000952277
0.00102162
0.00111
0.00122847
0.0013801
0.00153352
0.00154699
0.00152
0.00146504
0.00138172
0.00138485
0.00153194
0.00163426
0.00171417
0.00173816
0.00179306
0.0018033
0.00147015
0.000849648
0.000861304
0.000883752
0.000918502
0.000954213
0.00100617
0.00106933
0.00115166
0.00126264
0.00138933
0.00143311
0.00139483
0.00133929
0.00122608
0.0010702
0.000959688
0.00104336
0.00118583
0.00135052
0.00149707
0.00164061
0.00177271
0.00155526
0.000911218
0.000920704
0.00093942
0.000969493
0.00100025
0.00104075
0.0011005
0.00117865
0.00127722
0.00135896
0.00135115
0.00130989
0.00120956
0.00105668
0.000894194
0.000830817
0.000830817
0.000921555
0.00109791
0.00129735
0.00150191
0.00171544
0.00159342
0.000962163
0.000970695
0.000985546
0.0010129
0.00104133
0.00108352
0.00113465
0.0011981
0.00126396
0.00131214
0.00129476
0.00124356
0.0011488
0.00101565
0.000893862
0.000831313
0.000850744
0.000922078
0.00108781
0.00130809
0.0015488
0.00178504
0.00167387
0.00100955
0.00101742
0.00102953
0.00105429
0.00107938
0.0011091
0.00114878
0.00119519
0.00124405
0.0012835
0.00127113
0.00122832
0.00115545
0.00108832
0.00100974
0.000942142
0.000975883
0.00109874
0.00129187
0.0014824
0.00169246
0.00191053
0.00176894
0.00105129
0.00105754
0.00106777
0.001089
0.00111048
0.00113799
0.00116849
0.00120295
0.00123677
0.00126455
0.00126122
0.0012366
0.0012092
0.00115613
0.00113208
0.00111888
0.00117287
0.00128551
0.00143312
0.0015989
0.00179303
0.00201306
0.0018745
0.00108826
0.00109372
0.00110296
0.0011211
0.00113999
0.00116161
0.00118402
0.00120829
0.00123556
0.00126337
0.00128028
0.00127325
0.0012638
0.00124407
0.00125041
0.00126416
0.00132712
0.00142904
0.00156048
0.00171782
0.00190716
0.00213488
0.00199347
0.0011203
0.00112562
0.00113426
0.00114983
0.00116621
0.0011861
0.00120605
0.00122718
0.00124818
0.00127121
0.00129419
0.00130666
0.00131957
0.00132005
0.00134485
0.00137503
0.00144771
0.0015446
0.00166767
0.00182497
0.00201558
0.00224912
0.00210539
0.00114964
0.00115448
0.00116216
0.00117534
0.00118974
0.00120679
0.00122471
0.00124414
0.00126452
0.00128896
0.00131687
0.00133931
0.00136554
0.00138032
0.00141882
0.00145982
0.00154031
0.00163534
0.00175972
0.00191455
0.00210626
0.00234287
0.00220078
0.00117529
0.00117923
0.00118586
0.00119754
0.00121067
0.00122652
0.00124348
0.00126337
0.00128458
0.00130702
0.00133402
0.00136267
0.0013956
0.00142757
0.00146633
0.00151918
0.00159532
0.00169612
0.00182293
0.00197962
0.00217559
0.00241528
0.00226742
0.00119744
0.00120071
0.00120691
0.00121781
0.00122992
0.00124443
0.00126039
0.00127934
0.00130109
0.00132599
0.0013561
0.0013865
0.00142097
0.00145736
0.00150373
0.001567
0.00164934
0.00175398
0.00188014
0.00203796
0.00222965
0.00246868
0.00229437
0.0012164
0.00121957
0.00122564
0.00123576
0.00124668
0.00125979
0.00127487
0.0012935
0.00131507
0.00133924
0.0013675
0.00139724
0.00143331
0.00147635
0.00153001
0.00159635
0.00167719
0.00178039
0.00190372
0.00205988
0.00224598
0.00248252
0.00230099
0.00123323
0.00123636
0.00124191
0.00125089
0.00126023
0.00127272
0.00128739
0.0013052
0.00132612
0.00134978
0.0013783
0.0014106
0.00144979
0.00149491
0.0015474
0.0016135
0.00169555
0.00179931
0.00192117
0.00207446
0.00225486
0.00248258
0.00229049
0.00124758
0.00125041
0.00125536
0.00126275
0.00127137
0.00128292
0.00129654
0.00131351
0.00133369
0.00135674
0.0013845
0.00141607
0.00145334
0.00149721
0.00155075
0.00161783
0.00169665
0.00179454
0.00191047
0.00205636
0.00222813
0.00244445
0.00222772
0.00125916
0.00126173
0.00126613
0.00127216
0.00128018
0.00129099
0.0013039
0.00131972
0.00133877
0.00136083
0.00138736
0.00141811
0.00145499
0.00149917
0.00155035
0.0016125
0.00168717
0.00178055
0.00189066
0.00202668
0.00218816
0.00238712
0.00215171
0.00126833
0.00127077
0.00127409
0.00127953
0.00128666
0.00129624
0.00130778
0.0013223
0.00133991
0.00136033
0.00138463
0.00141334
0.0014475
0.0014878
0.00153619
0.00159579
0.00166448
0.00174831
0.0018477
0.00196974
0.0021162
0.00229544
0.00205329
0.00127563
0.00127713
0.00127982
0.00128455
0.00129088
0.00129947
0.00130987
0.00132268
0.00133826
0.00135688
0.00137922
0.00140524
0.00143642
0.00147416
0.00151788
0.0015709
0.00163417
0.00171103
0.00180158
0.00191027
0.00203941
0.00219371
0.00191739
0.00128103
0.00128145
0.00128374
0.00128777
0.00129308
0.00130029
0.0013092
0.0013204
0.00133388
0.00134975
0.00136878
0.00139143
0.00141811
0.00145005
0.00148831
0.00153469
0.00158895
0.00165515
0.00173453
0.00183061
0.00194631
0.00208485
0.00180257
0.00128416
0.00128416
0.00128602
0.00128933
0.00129367
0.00129952
0.0013067
0.00131576
0.00132692
0.00134037
0.00135644
0.00137556
0.0013985
0.00142587
0.00145674
0.00149639
0.00154035
0.00159701
0.00166074
0.00174049
0.00183471
0.00194819
0.00165986
0.0012859
0.0012859
0.00128722
0.00128959
0.00129265
0.00129689
0.00130219
0.0013089
0.00131711
0.00132713
0.00133856
0.00135305
0.00136875
0.00139012
0.00141344
0.0014445
0.00147865
0.00152366
0.00157459
0.00163913
0.00171534
0.00180718
0.00152149
0.00128684
0.00128684
0.00128756
0.00128894
0.00129073
0.00129332
0.00129666
0.00130107
0.00130499
0.00131157
0.00131792
0.00132747
0.00133762
0.00135209
0.0013679
0.00138972
0.00141401
0.00144644
0.00148412
0.00153189
0.00159034
0.00166032
0.00138919
0.00128731
0.0012873
0.0012873
0.00128752
0.00128783
0.00128859
0.00128853
0.00128986
0.00129039
0.00129309
0.00129526
0.00129974
0.00130421
0.00131184
0.00132025
0.00133296
0.00134761
0.00136811
0.00139314
0.00142553
0.00146719
0.00151725
0.00124891
0.00128773
0.00128697
0.00128602
0.00128479
0.00128357
0.00128233
0.00128005
0.00127821
0.00127539
0.00127411
0.00127199
0.00127132
0.00127004
0.00127066
0.00127152
0.00127514
0.00128
0.00128872
0.00130115
0.00131887
0.00134477
0.00137726
0.00112571
0.00128909
0.0012876
0.00128542
0.00128252
0.0012792
0.0012754
0.00127144
0.00126676
0.00126026
0.00125464
0.00124796
0.0012422
0.00123546
0.00122955
0.00122315
0.00121809
0.00121349
0.00121103
0.00121131
0.00121508
0.00122575
0.00124164
0.00100001
0.0012902
0.0012881
0.00128484
0.0012804
0.00127507
0.00126881
0.00126179
0.00125405
0.00124577
0.00123629
0.00122471
0.00121349
0.0012011
0.00118879
0.00117542
0.00116211
0.00114843
0.00113532
0.00112397
0.00111458
0.00111106
0.0011119
0.000886058
0.00129269
0.00129017
0.00128616
0.00128053
0.00127348
0.00126494
0.00125505
0.00124379
0.00123141
0.00121812
0.001204
0.00118707
0.00116846
0.0011494
0.00112901
0.00110792
0.00108585
0.00106297
0.00104065
0.00101885
0.00100165
0.00098798
0.000775082
0.00129456
0.00129158
0.00128676
0.00128002
0.00127142
0.0012609
0.00124861
0.00123445
0.00121845
0.00120073
0.0011813
0.00116037
0.00113806
0.00111456
0.00108658
0.00105719
0.0010265
0.000994303
0.000961801
0.000928487
0.000898492
0.000871103
0.000671359
0.00129737
0.00129405
0.0012887
0.00128123
0.00127169
0.00125992
0.00124591
0.00122952
0.00121067
0.00118938
0.00116566
0.0011396
0.0011111
0.00108033
0.00104736
0.00101271
0.000972906
0.00093074
0.000887945
0.000843629
0.000801607
0.000761089
0.000573023
0.0012987
0.001295
0.00128909
0.00128091
0.00127048
0.00125765
0.00124237
0.00122441
0.00120357
0.0011797
0.0011526
0.00112221
0.00108832
0.00105107
0.00101045
0.000966897
0.000920713
0.000872864
0.000823331
0.000766697
0.000711908
0.000658317
0.000479428
0.00130072
0.00129687
0.00129077
0.00128232
0.00127145
0.00125795
0.00124184
0.00122299
0.00120111
0.00117591
0.00114691
0.00111395
0.00107668
0.00103498
0.000988484
0.000937329
0.000881596
0.00082217
0.00076004
0.000697365
0.000634179
0.000564813
0.000392112
0.00130063
0.00129647
0.00128994
0.00128101
0.00126971
0.00125584
0.00123926
0.00121977
0.0011971
0.00117093
0.00114077
0.00110627
0.00106684
0.00102227
0.000972059
0.000916012
0.000853771
0.000785689
0.000712282
0.000635361
0.000557479
0.00048354
0.000308211
0.00130174
0.00129749
0.00129088
0.00128185
0.00127039
0.0012563
0.0012395
0.00121978
0.00119687
0.00117046
0.00114
0.00110508
0.00106508
0.00101965
0.000968127
0.000910104
0.000844859
0.000772152
0.000691636
0.000603951
0.000510156
0.000413957
0.000236782
0.00130005
0.00129562
0.00128873
0.00127939
0.00126761
0.0012532
0.00123611
0.00121612
0.00119294
0.00116628
0.0011355
0.00110014
0.00105954
0.00101344
0.000961192
0.000902384
0.000836269
0.000762466
0.000680327
0.000589896
0.000491125
0.000385059
0.000201202
3.15672e-05
2.32583e-05
2.32583e-05
4.54037e-05
3.8797e-05
3.8797e-05
3.88148e-05
4.72556e-05
4.41457e-05
4.41457e-05
4.45696e-05
4.47106e-05
4.2197e-05
4.2197e-05
4.35125e-05
4.47023e-05
0.00015179
0.000112758
5.10953e-05
5.10953e-05
0.000866318
0.000802088
0.000408858
0.000239227
0.000984381
0.000984381
0.000995946
0.00100947
0.00105606
0.00105606
0.00106894
0.00107262
0.00104048
0.00104048
0.00110213
0.00115676
0.000975955
0.000975955
0.00101616
0.00106342
0.00104208
0.00104208
0.00108405
0.00112739
0.00107394
0.00107394
0.00112667
0.00118165
0.00113047
0.00113047
0.00119109
0.00125228
0.00119601
0.00119601
0.00126505
0.00133203
0.00127449
0.00127449
0.00135227
0.001427
0.00135829
0.00135829
0.0014421
0.00153616
0.00143809
0.00143809
0.00153625
0.00165757
0.00150598
0.00150598
0.00161637
0.00174841
0.0015526
0.0015526
0.00167259
0.0017866
0.00157566
0.00157566
0.00169549
0.00177558
0.00158271
0.00158271
0.00168801
0.00173783
0.00156594
0.00156594
0.00165663
0.00169777
0.00151982
0.00151982
0.00160367
0.00163865
0.00146386
0.00146386
0.00154735
0.00160071
0.00139483
0.00139483
0.00148482
0.00156569
0.00129003
0.00129003
0.00135991
0.00144243
0.00120621
0.00120621
0.00125922
0.00132145
0.00110842
0.00110842
0.00115461
0.0012059
0.00100957
0.00100957
0.00104446
0.00108334
0.000919593
0.000919593
0.000949478
0.000982612
0.000821598
0.000821598
0.000843059
0.000867082
0.000738084
0.000738084
0.00075508
0.000774068
0.000652308
0.000652308
0.000664216
0.000678023
0.000575565
0.000575565
0.000583837
0.000593828
0.000500922
0.000500922
0.000505926
0.000512723
0.000431333
0.000431333
0.000433431
0.000437349
0.000365462
0.000365119
0.000365119
0.000366777
0.000302386
0.000299375
0.000298729
0.000298729
0.000243419
0.000237744
0.00023479
0.00023479
0.000186135
0.000177574
0.000172509
0.000172509
0.000133866
0.000119495
0.00011005
0.00011005
0.000103902
7.97091e-05
5.89912e-05
5.89912e-05
0.000327944
0.000355568
0.000348175
0.000327862
0.000315402
0.000232543
0.000181388
0.000182276
0.000149749
0.000134017
9.98767e-05
9.41648e-05
8.72485e-05
8.05463e-05
8.45519e-05
7.69161e-05
7.50582e-05
6.81387e-05
6.5306e-05
0.000163962
0.0005805
0.000920934
0.00068245
0.000486326
0.000393719
0.000294516
0.000261236
0.000220953
0.000248061
0.000188236
0.000183583
0.000168935
0.000155999
0.000156092
0.000143985
0.0001392
0.000130047
0.000126175
7.55061e-05
0.000129147
0.000186556
0.000660695
0.00106518
0.000716626
0.000455697
0.000343109
0.000327807
0.000287777
0.000250467
0.000243713
0.000229801
0.00021317
0.00021114
0.000195876
0.000191411
0.000182267
0.000178611
7.63972e-05
0.000101405
0.00010467
0.000143451
0.000203011
0.000667366
0.00140674
0.000988109
0.000713472
0.000463039
0.000333406
0.000321184
0.000314845
0.000291575
0.000287592
0.000266386
0.000258928
0.000248875
0.000245082
7.52272e-05
0.000101405
0.00010467
0.000108803
0.000111947
0.000146937
0.000226529
0.00104562
0.00163523
0.00108511
0.00060109
0.000458972
0.000416936
0.000397545
0.000390437
0.00036463
0.000353744
0.000339892
0.000334394
0.000225587
0.000194956
0.000126361
0.000108803
0.000111947
0.000126563
0.000121259
0.000183171
0.00068668
0.00203182
0.00154647
0.000899735
0.000641817
0.000550413
0.000531575
0.000491736
0.000475801
0.0004575
0.000450018
0.00170817
0.00136055
0.000548937
0.000275354
0.000227758
0.000131308
0.000121259
0.000136789
0.000184472
0.000884222
0.00253547
0.00184295
0.00117463
0.00082119
0.000732233
0.00066897
0.000637617
0.000610759
0.000598649
0.00179206
0.00227162
0.00227549
0.00212952
0.00162916
0.000471532
0.000273331
0.000144369
0.000220632
0.000280854
0.00115676
0.00276052
0.00193819
0.001336
0.00104515
0.000908802
0.000850618
0.000806411
0.000786961
0.0020115
0.00248679
0.00248766
0.00249602
0.00267203
0.00234624
0.00204935
0.00051765
0.000241341
0.000254875
0.000423958
0.00189666
0.00256669
0.0019727
0.00149213
0.00121399
0.00111515
0.00104882
0.00102012
0.00186946
0.00279335
0.00291395
0.00294307
0.00284556
0.00262648
0.00267886
0.00241618
0.000528795
0.000254875
0.000312596
0.000769445
0.00270267
0.00238898
0.00203016
0.00158603
0.00142919
0.00133115
0.0012899
0.00195817
0.0028292
0.00306127
0.00319712
0.00324713
0.00313351
0.00282819
0.0025985
0.00175644
0.000361027
0.000377965
0.000573197
0.00202661
0.00257797
0.00250664
0.00202836
0.00179007
0.00165906
0.00159841
0.00206727
0.00294583
0.00316711
0.00327766
0.00340194
0.00336262
0.00317649
0.00269234
0.00237818
0.000672155
0.000380157
0.00057994
0.00202154
0.00264357
0.00276577
0.00245395
0.00215466
0.00200711
0.0019291
0.00219721
0.00318695
0.0034303
0.00352214
0.00351348
0.00346486
0.00335214
0.0029096
0.00268789
0.000858216
0.000406136
0.000693631
0.00221942
0.00259598
0.00289107
0.00280036
0.00249016
0.00234007
0.00225418
0.00234924
0.00348023
0.00371655
0.00383825
0.00372974
0.00360935
0.0034302
0.00302803
0.0026628
0.00106192
0.000533264
0.000965406
0.00257705
0.00259598
0.00303628
0.00307905
0.00278728
0.00264209
0.00255532
0.00254499
0.00380644
0.00399932
0.00411509
0.00395078
0.00374291
0.00345709
0.00304737
0.00224263
0.000917931
0.0006465
0.000977207
0.00266224
0.00266784
0.00325701
0.00330776
0.00305273
0.00290913
0.00282657
0.0027694
0.00403962
0.00406676
0.004074
0.00388333
0.00372864
0.00335
0.00290976
0.00170222
0.000832632
0.0006465
0.00102414
0.00273255
0.00286899
0.00354228
0.00350819
0.00327831
0.0031263
0.0030553
0.00298188
0.00392552
0.00359514
0.00363209
0.00371246
0.00366721
0.00322497
0.00272624
0.00178524
0.00109021
0.000837803
0.00187175
0.00291801
0.00311784
0.00390761
0.00370121
0.00347879
0.00330105
0.00324036
0.00307621
0.00359138
0.00281356
0.00258394
0.00356924
0.00366721
0.00294672
0.00263639
0.00262354
0.00175671
0.00200245
0.00260214
0.00294092
0.00340934
0.0042006
0.00381629
0.00362161
0.00342989
0.00337493
0.0030608
0.00311029
0.00156782
0.0020199
0.00306212
0.00357735
0.00248525
0.00171185
0.00179339
0.00177486
0.00203843
0.00244693
0.00306643
0.00390275
0.00403974
0.00379312
0.00362591
0.00349836
0.0034469
0.00298826
0.00202931
0.00107253
0.00163612
0.00320632
0.00301804
0.00181412
0.00134662
0.00133915
0.00133915
0.0015659
0.00240201
0.00333835
0.00395192
0.00377941
0.00366112
0.00354255
0.00347554
0.00343662
0.00291961
0.0018798
0.00107253
0.0024067
0.00367954
0.00292475
0.00216943
0.00154376
0.00158797
0.00147396
0.00179075
0.00266129
0.00335942
0.00363035
0.00352933
0.00351729
0.00344536
0.00341385
0.00338636
0.00286099
0.00178209
0.00167823
0.00294248
0.00304818
0.00256199
0.00210919
0.00227855
0.00170854
0.00147396
0.00147621
0.00246509
0.00312888
0.00336433
0.00335298
0.00339222
0.00334825
0.00333894
0.00332001
0.00273309
0.00178209
0.00167349
0.00287336
0.00268893
0.00212109
0.00172263
0.00178431
0.00255282
0.0015988
0.0017185
0.00242968
0.0030474
0.00322064
0.0032423
0.00328875
0.00325971
0.00326027
0.00324688
0.00268611
0.0021708
0.00106356
0.00234942
0.00241768
0.00194242
0.00170382
0.00177306
0.00211434
0.00250658
0.00219677
0.00271629
0.0030474
0.00319788
0.00318457
0.00321156
0.00318301
0.00318233
0.00317039
0.00268122
0.00233749
0.00106356
0.00182618
0.00260814
0.0020295
0.00170382
0.00177306
0.00262705
0.0028563
0.0028695
0.00308792
0.003117
0.00319036
0.00314299
0.00313821
0.00310834
0.00310191
0.00309062
0.00253627
0.00322336
0.00167651
0.00154454
0.00212847
0.00254978
0.0019926
0.00239581
0.00299727
0.00313471
0.00346521
0.00336472
0.00321677
0.00316136
0.00310041
0.00306297
0.00303216
0.00301822
0.00300722
0.00233557
0.0034025
0.0028264
0.00154454
0.00198876
0.00215452
0.00256724
0.00272783
0.00300423
0.00367128
0.00384879
0.0034125
0.00324135
0.00310485
0.00303265
0.0029802
0.00294721
0.0029295
0.00291864
0.00211529
0.00306392
0.00334064
0.00284323
0.00222522
0.00225287
0.00256724
0.00293638
0.0035447
0.00405701
0.00358791
0.00329007
0.00312992
0.00301109
0.00293928
0.00288698
0.00285451
0.00283594
0.00282604
0.001882
0.0026615
0.00292126
0.00325333
0.00329009
0.00293481
0.00313703
0.00362913
0.00378872
0.0036012
0.00327694
0.00310212
0.00298091
0.00288856
0.00282754
0.00278188
0.00275418
0.00273672
0.00272889
0.00170426
0.00232702
0.00253413
0.00279279
0.00303523
0.00318404
0.00332163
0.00337769
0.00332901
0.00318074
0.0030093
0.00290136
0.00281555
0.00274932
0.00270469
0.00266935
0.00264931
0.00263458
0.00262948
0.00149502
0.00201825
0.0021758
0.00237086
0.00257543
0.00273565
0.00285788
0.00289792
0.00287883
0.00282335
0.00274397
0.00269036
0.00264107
0.0026021
0.0025754
0.00255256
0.00254126
0.00253009
0.00252806
0.00133081
0.00175713
0.00188422
0.00203551
0.00218553
0.00231992
0.00243821
0.00250491
0.00253297
0.00253465
0.00251354
0.00249483
0.00247622
0.00245898
0.00244827
0.00243716
0.00243392
0.00242717
0.00242774
0.00116151
0.00151832
0.00162351
0.00175067
0.00188359
0.00200439
0.00211515
0.00219468
0.00224933
0.00228676
0.00230158
0.00231183
0.00231883
0.00232032
0.00232442
0.00232418
0.00232813
0.00232651
0.00232892
0.00101435
0.00130824
0.00139856
0.00150885
0.00162601
0.00174212
0.00185309
0.00194522
0.00201859
0.00207994
0.00211822
0.0021508
0.00217645
0.00219286
0.00220914
0.00221816
0.00222821
0.00223156
0.00223527
0.000873605
0.00111619
0.00119737
0.00129956
0.00141195
0.00152611
0.00163767
0.00173771
0.00182419
0.00190094
0.00195614
0.00200668
0.00204603
0.0020753
0.00210163
0.00211863
0.00213382
0.00214186
0.00214648
0.000743046
0.000941721
0.00101834
0.0011169
0.00122752
0.00134333
0.00145846
0.00156632
0.00166306
0.0017507
0.00181861
0.00188248
0.00193146
0.00197149
0.00200534
0.00202905
0.00204843
0.00206044
0.0020659
0.000621567
0.000781683
0.00085834
0.000958279
0.00107164
0.00119074
0.0013099
0.0014236
0.0015279
0.00162295
0.00170071
0.00177404
0.0018302
0.00187911
0.00191841
0.00194787
0.00197055
0.00198585
0.00199209
0.000504697
0.000632834
0.000714388
0.00081964
0.000938762
0.00106321
0.00118764
0.00130684
0.0014173
0.00151797
0.00160342
0.00168322
0.00174497
0.00180083
0.00184398
0.00187827
0.00190336
0.00192121
0.00192816
0.000394741
0.000498036
0.000589918
0.000704497
0.000831494
0.000961591
0.00109069
0.00121356
0.00132812
0.00143224
0.0015231
0.00160668
0.00167269
0.00173332
0.00177906
0.00181721
0.0018439
0.00186372
0.00187131
0.000288909
0.00037442
0.00048314
0.000610009
0.000745977
0.000881856
0.00101541
0.00114142
0.00125931
0.00136604
0.00146082
0.00154675
0.00161619
0.00168
0.00172762
0.00176873
0.00179648
0.00181778
0.00182589
0.000173848
0.000269552
0.000400233
0.000539424
0.000683024
0.000822846
0.000959207
0.00108664
0.00120627
0.00131407
0.00141112
0.00149785
0.00156967
0.00163491
0.00168373
0.00172671
0.00175491
0.00177723
0.00178569
8.47845e-05
0.000185474
0.00032809
0.000487378
0.00064863
0.000807433
0.000959207
0.00108664
0.00120627
0.00131407
0.00141112
0.00149785
0.00156967
0.00163491
0.00168373
0.00172671
0.00175491
0.00177723
0.00178569
)
;

boundaryField
{
    leftWall
    {
        type            calculated;
        value           uniform 0;
    }
    rightWall
    {
        type            calculated;
        value           uniform 0;
    }
    lowerWall
    {
        type            calculated;
        value           uniform 0;
    }
    atmosphere
    {
        type            calculated;
        value           uniform 0;
    }
    defaultFaces
    {
        type            empty;
    }
}


// ************************************************************************* //
