/*--------------------------------*- C++ -*----------------------------------*\
| =========                 |                                                 |
| \\      /  F ield         | OpenFOAM: The Open Source CFD Toolbox           |
|  \\    /   O peration     | Version:  2012                                  |
|   \\  /    A nd           | Website:  www.openfoam.com                      |
|    \\/     M anipulation  |                                                 |
\*---------------------------------------------------------------------------*/
FoamFile
{
    version     2.0;
    format      ascii;
    class       volVectorField;
    location    "0.28";
    object      U;
}
// * * * * * * * * * * * * * * * * * * * * * * * * * * * * * * * * * * * * * //

dimensions      [0 1 -1 0 0 0 0];


internalField   nonuniform List<vector> 
2268
(
(0.0233774 -0.0113876 0)
(0.072513 -0.0113143 0)
(0.118656 -0.0112567 0)
(0.167274 -0.0114598 0)
(0.215045 -0.0111866 0)
(0.261216 -0.0110603 0)
(0.307672 -0.010951 0)
(0.352814 -0.0109818 0)
(0.399077 -0.0103661 0)
(0.438742 -0.0103011 0)
(0.483768 -0.00914095 0)
(0.512879 -0.00817338 0)
(0.548604 -0.00828709 0)
(0.578328 -0.00686938 0)
(0.594381 -0.00395558 0)
(0.603323 -0.00257252 0)
(0.597692 -0.000189478 0)
(0.577347 0.000404093 0)
(0.538924 0.00253612 0)
(0.474816 0.00283138 0)
(0.378081 0.00642149 0)
(0.25794 0.0116756 0)
(0.0862461 0.0425801 0)
(0.0232912 -0.0339288 0)
(0.0725116 -0.0337183 0)
(0.118753 -0.0335189 0)
(0.167308 -0.0341059 0)
(0.215122 -0.0331949 0)
(0.261382 -0.0327303 0)
(0.307874 -0.0323204 0)
(0.353102 -0.0322325 0)
(0.399336 -0.0302293 0)
(0.439423 -0.0297195 0)
(0.484395 -0.0259269 0)
(0.51365 -0.022385 0)
(0.552091 -0.0227722 0)
(0.577078 -0.0145883 0)
(0.595777 -0.00803927 0)
(0.606523 0.00122368 0)
(0.601919 0.0122733 0)
(0.581383 0.0276376 0)
(0.541185 0.0457267 0)
(0.474568 0.0735393 0)
(0.371112 0.095963 0)
(0.241128 0.126517 0)
(0.0638394 0.119986 0)
(0.0231735 -0.0566606 0)
(0.072576 -0.056432 0)
(0.118944 -0.0560478 0)
(0.167376 -0.0570143 0)
(0.215311 -0.0556304 0)
(0.261775 -0.0549108 0)
(0.308365 -0.0542821 0)
(0.353839 -0.0542259 0)
(0.400063 -0.0511523 0)
(0.440947 -0.0505027 0)
(0.485805 -0.0442586 0)
(0.516064 -0.0400957 0)
(0.556609 -0.0384117 0)
(0.579052 -0.0273552 0)
(0.601987 -0.0180805 0)
(0.613283 -0.00532916 0)
(0.613163 0.011453 0)
(0.595162 0.0291826 0)
(0.561363 0.0526704 0)
(0.502967 0.0831222 0)
(0.411233 0.116222 0)
(0.287292 0.156627 0)
(0.0939979 0.186656 0)
(0.0230867 -0.07918 0)
(0.0726516 -0.0789851 0)
(0.119119 -0.0783138 0)
(0.167364 -0.0796608 0)
(0.215412 -0.0777936 0)
(0.262141 -0.0767205 0)
(0.308896 -0.0758096 0)
(0.354642 -0.0755798 0)
(0.400781 -0.0713754 0)
(0.442555 -0.0702303 0)
(0.487408 -0.0614392 0)
(0.518981 -0.0557581 0)
(0.560925 -0.0526459 0)
(0.582803 -0.0358433 0)
(0.606806 -0.0243566 0)
(0.618996 -0.00381263 0)
(0.620953 0.0207237 0)
(0.604796 0.0525822 0)
(0.567071 0.0892889 0)
(0.506999 0.145383 0)
(0.409856 0.198296 0)
(0.288426 0.2776 0)
(0.0934647 0.300166 0)
(0.0230308 -0.101902 0)
(0.0727683 -0.101818 0)
(0.119355 -0.100799 0)
(0.167517 -0.102532 0)
(0.215648 -0.100409 0)
(0.262777 -0.0991077 0)
(0.30983 -0.0979875 0)
(0.35604 -0.0976748 0)
(0.402162 -0.0927001 0)
(0.445288 -0.0914593 0)
(0.490062 -0.080426 0)
(0.523896 -0.0747907 0)
(0.567702 -0.0687335 0)
(0.589783 -0.0489075 0)
(0.618557 -0.0354104 0)
(0.631286 -0.0119202 0)
(0.640399 0.0178476 0)
(0.630251 0.0545474 0)
(0.604175 0.0982863 0)
(0.553076 0.156693 0)
(0.467453 0.218239 0)
(0.347618 0.304401 0)
(0.135929 0.366576 0)
(0.0229979 -0.124455 0)
(0.0727901 -0.124514 0)
(0.119487 -0.123085 0)
(0.16762 -0.125179 0)
(0.215739 -0.122799 0)
(0.263218 -0.121239 0)
(0.310545 -0.119864 0)
(0.357145 -0.119216 0)
(0.403225 -0.113523 0)
(0.447631 -0.11175 0)
(0.492233 -0.0985778 0)
(0.528503 -0.0923559 0)
(0.573553 -0.08386 0)
(0.596397 -0.0596583 0)
(0.630155 -0.0441286 0)
(0.643123 -0.0137819 0)
(0.651329 0.0210902 0)
(0.645056 0.0703605 0)
(0.617507 0.125966 0)
(0.568981 0.21169 0)
(0.476008 0.296688 0)
(0.361295 0.437816 0)
(0.123782 0.530129 0)
(0.0230195 -0.147167 0)
(0.072865 -0.147419 0)
(0.119747 -0.145606 0)
(0.16793 -0.14803 0)
(0.216168 -0.145579 0)
(0.264077 -0.143931 0)
(0.311813 -0.142374 0)
(0.359006 -0.141506 0)
(0.405357 -0.135476 0)
(0.451358 -0.13356 0)
(0.49585 -0.118705 0)
(0.53561 -0.113209 0)
(0.581985 -0.100978 0)
(0.605966 -0.0755737 0)
(0.64719 -0.0576956 0)
(0.658618 -0.0219042 0)
(0.679056 0.0166213 0)
(0.67596 0.0703158 0)
(0.667763 0.133432 0)
(0.631498 0.222101 0)
(0.559271 0.313995 0)
(0.457817 0.465997 0)
(0.201925 0.592143 0)
(0.0231276 -0.169772 0)
(0.0727615 -0.170234 0)
(0.119847 -0.168007 0)
(0.168093 -0.170755 0)
(0.216342 -0.168226 0)
(0.26455 -0.166443 0)
(0.312546 -0.164703 0)
(0.360231 -0.163412 0)
(0.406918 -0.15713 0)
(0.454039 -0.154475 0)
(0.49872 -0.138359 0)
(0.542066 -0.132961 0)
(0.587879 -0.117139 0)
(0.615109 -0.0902363 0)
(0.662048 -0.0692005 0)
(0.673959 -0.0283961 0)
(0.698826 0.0126869 0)
(0.699865 0.0765135 0)
(0.69247 0.147189 0)
(0.668596 0.265463 0)
(0.58803 0.380905 0)
(0.494553 0.614273 0)
(0.217684 0.848984 0)
(-0.0217994 0.0139478 0)
(-0.102295 -0.00687174 0)
(-0.150158 -0.0407019 0)
(-0.178714 -0.0473483 0)
(-0.193598 -0.0295163 0)
(-0.168783 -0.0251332 0)
(-0.1543 -0.0131615 0)
(-0.122473 -0.016253 0)
(-0.0933262 -0.0101798 0)
(-0.0611368 -0.0127096 0)
(-0.0285311 -0.00930091 0)
(-0.00459079 -0.0101355 0)
(0.0220004 -0.00769475 0)
(0.0325452 -0.00704988 0)
(0.0447542 -0.00506025 0)
(0.040694 -0.00423174 0)
(0.0370355 -0.00239951 0)
(0.0224727 -0.00110663 0)
(0.00924386 -0.000302513 0)
(-0.0384911 0.0389556 0)
(-0.119071 0.0606868 0)
(-0.172772 0.073951 0)
(-0.185669 0.0647334 0)
(-0.191237 0.0266302 0)
(-0.166408 0.00717702 0)
(-0.153473 -0.00524627 0)
(-0.121944 -0.0108603 0)
(-0.0923827 -0.0147592 0)
(-0.0608604 -0.0158233 0)
(-0.0274107 -0.0138509 0)
(-0.00374841 -0.0121129 0)
(0.0234569 -0.00740945 0)
(0.0338341 -0.00318579 0)
(0.0461024 0.0020938 0)
(0.0419794 0.0071607 0)
(0.0383854 0.0104411 0)
(0.0233541 0.0127829 0)
(0.00958107 0.0138644 0)
(-0.0303966 0.0815608 0)
(-0.116204 0.0503869 0)
(-0.155374 -0.0109071 0)
(-0.193848 -0.0406113 0)
(-0.211074 -0.0364555 0)
(-0.176978 -0.0427438 0)
(-0.160079 -0.030597 0)
(-0.126215 -0.0433635 0)
(-0.0961291 -0.0352696 0)
(-0.0620137 -0.041067 0)
(-0.0276013 -0.0329036 0)
(-0.00275776 -0.03233 0)
(0.025301 -0.0231052 0)
(0.0362022 -0.0171447 0)
(0.0486546 -0.00807964 0)
(0.0440192 -0.00127864 0)
(0.0394772 0.00579884 0)
(0.0240045 0.0110187 0)
(0.00974279 0.0137882 0)
(-0.0454751 0.100913 0)
(-0.136447 0.112232 0)
(-0.19533 0.10724 0)
(-0.203853 0.0873824 0)
(-0.198912 0.0210753 0)
(-0.171205 -0.0154646 0)
(-0.158097 -0.0256787 0)
(-0.125083 -0.0393013 0)
(-0.0915964 -0.040599 0)
(-0.0597926 -0.0461784 0)
(-0.0228421 -0.0379328 0)
(0.00115722 -0.0355457 0)
(0.0306852 -0.0231651 0)
(0.0408923 -0.0137654 0)
(0.0533795 -0.000670584 0)
(0.0482724 0.0106831 0)
(0.0435544 0.0192684 0)
(0.0265814 0.0252693 0)
(0.0107113 0.0282845 0)
(-0.0340957 0.160211 0)
(-0.141546 0.114771 0)
(-0.188119 0.019649 0)
(-0.231292 -0.0405665 0)
(-0.246113 -0.0494197 0)
(-0.191686 -0.0621803 0)
(-0.168603 -0.0484756 0)
(-0.131728 -0.0727441 0)
(-0.0996736 -0.0625963 0)
(-0.0626959 -0.0707492 0)
(-0.0238147 -0.0584387 0)
(0.00231133 -0.0554688 0)
(0.0338233 -0.0395831 0)
(0.0450982 -0.0271808 0)
(0.0580893 -0.0108354 0)
(0.0521046 0.00258747 0)
(0.0459354 0.0152784 0)
(0.0280862 0.0248661 0)
(0.0111356 0.0297324 0)
(-0.0634872 0.174439 0)
(-0.178132 0.175645 0)
(-0.244539 0.145669 0)
(-0.234201 0.111288 0)
(-0.225253 0.00676937 0)
(-0.183584 -0.0490611 0)
(-0.16923 -0.0501958 0)
(-0.134477 -0.070012 0)
(-0.0925099 -0.0678841 0)
(-0.0583944 -0.0799417 0)
(-0.0147738 -0.0641523 0)
(0.0101323 -0.061145 0)
(0.0437448 -0.0403925 0)
(0.0538457 -0.0248095 0)
(0.0668646 -0.003012 0)
(0.0599404 0.0154448 0)
(0.0527922 0.0298414 0)
(0.0323601 0.0399049 0)
(0.0126815 0.0450429 0)
(-0.0435076 0.265454 0)
(-0.190306 0.192551 0)
(-0.260862 0.0455716 0)
(-0.302684 -0.0510135 0)
(-0.31355 -0.0709931 0)
(-0.221925 -0.0887841 0)
(-0.179777 -0.0669961 0)
(-0.143091 -0.10628 0)
(-0.108642 -0.0954115 0)
(-0.0641635 -0.103803 0)
(-0.0168756 -0.0876364 0)
(0.011056 -0.0805426 0)
(0.048704 -0.0579367 0)
(0.0600141 -0.0373415 0)
(0.0739808 -0.0131067 0)
(0.0656122 0.00825407 0)
(0.0568521 0.0272336 0)
(0.0350416 0.0417894 0)
(0.0135176 0.0489603 0)
(-0.0743848 0.27107 0)
(-0.262406 0.265717 0)
(-0.337824 0.193998 0)
(-0.295307 0.13338 0)
(-0.294641 -0.0229166 0)
(-0.205326 -0.106424 0)
(-0.188201 -0.0834314 0)
(-0.158749 -0.102109 0)
(-0.101351 -0.0981312 0)
(-0.0591243 -0.120929 0)
(-0.00735588 -0.094295 0)
(0.0229637 -0.0902383 0)
(0.0619045 -0.0600699 0)
(0.0733732 -0.0363432 0)
(0.0874032 -0.00465892 0)
(0.0779296 0.0223065 0)
(0.0663505 0.0432635 0)
(0.0409169 0.0581768 0)
(0.0155508 0.0657975 0)
(0.0234531 -0.205273 0)
(0.0726126 -0.206029 0)
(0.120263 -0.203413 0)
(0.168671 -0.206537 0)
(0.217235 -0.204079 0)
(0.266064 -0.202361 0)
(0.314966 -0.200499 0)
(0.363757 -0.198953 0)
(0.412003 -0.192629 0)
(0.461025 -0.189695 0)
(0.507627 -0.172784 0)
(0.556291 -0.168021 0)
(0.601202 -0.146075 0)
(0.636457 -0.122061 0)
(0.691689 -0.095029 0)
(0.704833 -0.0453562 0)
(0.756542 -0.000806027 0)
(0.756646 0.0711653 0)
(0.805201 0.147305 0)
(0.786953 0.27182 0)
(0.862839 0.399606 0)
(0.840822 0.64136 0)
(1.03024 0.954354 0)
(0.0238131 -0.253549 0)
(0.072276 -0.254659 0)
(0.120465 -0.251802 0)
(0.168948 -0.25535 0)
(0.217775 -0.25319 0)
(0.267149 -0.251744 0)
(0.316913 -0.249975 0)
(0.366867 -0.248127 0)
(0.416674 -0.242065 0)
(0.467572 -0.237831 0)
(0.517253 -0.221684 0)
(0.570847 -0.214208 0)
(0.616455 -0.187348 0)
(0.668557 -0.169339 0)
(0.716991 -0.129079 0)
(0.751421 -0.0865577 0)
(0.809417 -0.0355092 0)
(0.818039 0.0313513 0)
(0.864866 0.115558 0)
(0.844765 0.209944 0)
(0.90589 0.319966 0)
(0.895364 0.452917 0)
(1.08713 0.678028 0)
(0.0241171 -0.301853 0)
(0.0719032 -0.303182 0)
(0.120553 -0.300574 0)
(0.169207 -0.30436 0)
(0.218449 -0.302781 0)
(0.268664 -0.302035 0)
(0.319819 -0.300743 0)
(0.371695 -0.299279 0)
(0.424238 -0.293905 0)
(0.478158 -0.290875 0)
(0.533008 -0.276706 0)
(0.590242 -0.267859 0)
(0.644188 -0.244422 0)
(0.704976 -0.223151 0)
(0.755341 -0.178551 0)
(0.816614 -0.137922 0)
(0.872635 -0.0682552 0)
(0.911617 0.0161483 0)
(0.968903 0.119077 0)
(0.99232 0.230519 0)
(1.06576 0.344145 0)
(1.09401 0.455174 0)
(1.24006 0.641902 0)
(0.0243766 -0.350082 0)
(0.0714202 -0.351614 0)
(0.120464 -0.349625 0)
(0.169148 -0.353771 0)
(0.218578 -0.353169 0)
(0.269277 -0.353645 0)
(0.321166 -0.353528 0)
(0.374191 -0.353056 0)
(0.428322 -0.349036 0)
(0.484175 -0.347042 0)
(0.541908 -0.334302 0)
(0.604225 -0.32567 0)
(0.667443 -0.302689 0)
(0.736498 -0.280792 0)
(0.804363 -0.241479 0)
(0.88606 -0.204363 0)
(0.938687 -0.131993 0)
(1.01216 -0.0652152 0)
(1.03816 0.0331676 0)
(1.07328 0.114218 0)
(1.10238 0.218288 0)
(1.14061 0.284029 0)
(1.23218 0.430685 0)
(0.0247652 -0.39813 0)
(0.0708744 -0.399755 0)
(0.120437 -0.398792 0)
(0.169213 -0.40297 0)
(0.218928 -0.403418 0)
(0.270361 -0.405156 0)
(0.323566 -0.406212 0)
(0.378432 -0.407026 0)
(0.435854 -0.404535 0)
(0.4952 -0.405156 0)
(0.557891 -0.397635 0)
(0.623328 -0.3944 0)
(0.69048 -0.377848 0)
(0.762628 -0.36128 0)
(0.833899 -0.329614 0)
(0.895466 -0.273407 0)
(0.958131 -0.195309 0)
(1.00926 -0.0844237 0)
(1.02763 0.0572353 0)
(1.10518 0.164614 0)
(1.12647 0.274539 0)
(1.19568 0.32221 0)
(1.2654 0.439826 0)
(0.0250784 -0.446259 0)
(0.0703931 -0.447828 0)
(0.120202 -0.448523 0)
(0.169264 -0.45282 0)
(0.219443 -0.454906 0)
(0.271373 -0.458902 0)
(0.325031 -0.462252 0)
(0.379792 -0.466029 0)
(0.436949 -0.466527 0)
(0.494644 -0.469818 0)
(0.550835 -0.463221 0)
(0.61114 -0.45861 0)
(0.681878 -0.442813 0)
(0.781083 -0.424644 0)
(0.867981 -0.375664 0)
(0.84179 -0.326671 0)
(0.640487 -0.244894 0)
(0.59708 -0.129188 0)
(0.699821 -0.0626936 0)
(0.996941 0.0201577 0)
(1.13647 0.138745 0)
(1.20233 0.153189 0)
(1.26101 0.304065 0)
(0.0250819 -0.494152 0)
(0.0695545 -0.495432 0)
(0.118964 -0.498235 0)
(0.167828 -0.502793 0)
(0.217241 -0.506113 0)
(0.268136 -0.511321 0)
(0.321122 -0.515202 0)
(0.377598 -0.519477 0)
(0.444244 -0.520101 0)
(0.562436 -0.521002 0)
(0.689104 -0.516694 0)
(0.831705 -0.527618 0)
(0.986167 -0.550293 0)
(1.0751 -0.542545 0)
(1.10732 -0.387933 0)
(1.00125 -0.0522383 0)
(0.809407 0.0509467 0)
(0.781118 -0.154621 0)
(0.927622 -0.34454 0)
(1.11407 -0.2731 0)
(1.28411 0.0380976 0)
(1.47993 0.190723 0)
(1.4415 0.319551 0)
(0.0267135 -0.541373 0)
(0.0764995 -0.542257 0)
(0.135751 -0.547343 0)
(0.200563 -0.552238 0)
(0.263018 -0.556195 0)
(0.33483 -0.563724 0)
(0.412323 -0.572113 0)
(0.503688 -0.589362 0)
(0.612026 -0.6563 0)
(0.739388 -0.695791 0)
(0.908435 -0.737673 0)
(1.08965 -0.753436 0)
(1.23948 -0.68817 0)
(1.31635 -0.547306 0)
(1.32838 -0.305404 0)
(1.33166 -0.0178389 0)
(1.36984 -0.028968 0)
(1.35391 -0.233192 0)
(1.22468 -0.401788 0)
(1.17702 -0.339603 0)
(1.23687 -0.215581 0)
(1.45155 -5.31975e-05 0)
(1.61201 0.364045 0)
(0.0247735 -0.596748 0)
(0.0831736 -0.604159 0)
(0.136813 -0.621284 0)
(0.201493 -0.630987 0)
(0.269575 -0.640401 0)
(0.34325 -0.661706 0)
(0.433496 -0.684964 0)
(0.538539 -0.722756 0)
(0.65859 -0.76456 0)
(0.785983 -0.822936 0)
(0.940121 -0.872032 0)
(1.09021 -0.864713 0)
(1.20491 -0.776035 0)
(1.33395 -0.632663 0)
(1.43098 -0.401441 0)
(1.55376 -0.0994186 0)
(1.63573 0.030448 0)
(1.6239 -0.0149291 0)
(1.52696 -0.164715 0)
(1.39581 -0.279928 0)
(1.37165 -0.244322 0)
(1.37445 -0.175914 0)
(1.53076 -0.0224169 0)
(0.0285123 -0.652581 0)
(0.0892775 -0.657364 0)
(0.145053 -0.667076 0)
(0.19628 -0.685368 0)
(0.259549 -0.697053 0)
(0.313796 -0.728666 0)
(0.386332 -0.763923 0)
(0.457942 -0.816835 0)
(0.549872 -0.891994 0)
(0.661367 -0.979753 0)
(0.777348 -1.038 0)
(0.851739 -1.01766 0)
(0.939018 -0.93186 0)
(1.04802 -0.774902 0)
(1.15248 -0.525901 0)
(1.2835 -0.221935 0)
(1.42113 -0.0971183 0)
(1.50691 -0.121746 0)
(1.54459 -0.169031 0)
(1.50238 -0.187099 0)
(1.48657 -0.189766 0)
(1.50054 -0.160018 0)
(1.56038 -0.0711724 0)
(0.029139 -0.712261 0)
(0.0680291 -0.718216 0)
(0.126877 -0.72731 0)
(0.163997 -0.746184 0)
(0.224089 -0.758148 0)
(0.264184 -0.79041 0)
(0.32767 -0.830489 0)
(0.377541 -0.889815 0)
(0.451763 -0.972577 0)
(0.508717 -1.0549 0)
(0.53708 -1.06491 0)
(0.537281 -1.03105 0)
(0.559417 -0.97362 0)
(0.594244 -0.848429 0)
(0.653369 -0.63731 0)
(0.778551 -0.370996 0)
(0.956966 -0.195564 0)
(1.08674 -0.14192 0)
(1.18649 -0.163782 0)
(1.25737 -0.219983 0)
(1.35732 -0.248559 0)
(1.47029 -0.248268 0)
(1.61279 -0.200104 0)
(0.0265718 -0.751909 0)
(0.0569091 -0.756946 0)
(0.109401 -0.764565 0)
(0.137202 -0.783183 0)
(0.187496 -0.797178 0)
(0.218286 -0.832493 0)
(0.26702 -0.875776 0)
(0.297306 -0.941139 0)
(0.340258 -1.01935 0)
(0.33609 -1.06498 0)
(0.328246 -1.06273 0)
(0.307505 -1.03761 0)
(0.30427 -0.98583 0)
(0.292648 -0.867717 0)
(0.312542 -0.709158 0)
(0.390935 -0.524573 0)
(0.552957 -0.404139 0)
(0.72429 -0.349622 0)
(0.910937 -0.335967 0)
(1.0697 -0.357051 0)
(1.23998 -0.400448 0)
(1.41558 -0.413451 0)
(1.60447 -0.39073 0)
(0.0229447 -0.794657 0)
(0.0526262 -0.800305 0)
(0.0981772 -0.806726 0)
(0.126065 -0.824426 0)
(0.169093 -0.839117 0)
(0.196649 -0.870574 0)
(0.229861 -0.91007 0)
(0.245786 -0.964226 0)
(0.252937 -1.01293 0)
(0.231543 -1.04426 0)
(0.218565 -1.03768 0)
(0.194799 -1.00969 0)
(0.184959 -0.960751 0)
(0.168284 -0.859086 0)
(0.200895 -0.736644 0)
(0.289961 -0.614141 0)
(0.444856 -0.533297 0)
(0.614711 -0.504195 0)
(0.813987 -0.514926 0)
(1.01164 -0.551786 0)
(1.21342 -0.600857 0)
(1.40792 -0.614763 0)
(1.62616 -0.608581 0)
(0.0208249 -0.828493 0)
(0.0470897 -0.833057 0)
(0.0865565 -0.838794 0)
(0.111799 -0.854553 0)
(0.146536 -0.868 0)
(0.169518 -0.893409 0)
(0.193248 -0.924468 0)
(0.199032 -0.963975 0)
(0.197907 -1.00321 0)
(0.179225 -1.02953 0)
(0.168622 -1.02363 0)
(0.153518 -1.0018 0)
(0.151343 -0.956569 0)
(0.159091 -0.881693 0)
(0.225188 -0.83035 0)
(0.328683 -0.768341 0)
(0.483432 -0.728584 0)
(0.653884 -0.718176 0)
(0.843022 -0.732778 0)
(1.03401 -0.755543 0)
(1.22115 -0.797092 0)
(1.4124 -0.824197 0)
(1.63543 -0.843577 0)
(0.0171756 -0.86213 0)
(0.0421399 -0.865716 0)
(0.0756652 -0.87109 0)
(0.100502 -0.884301 0)
(0.13012 -0.896785 0)
(0.153037 -0.917303 0)
(0.173251 -0.939676 0)
(0.180318 -0.969022 0)
(0.181073 -0.9937 0)
(0.171277 -1.0156 0)
(0.16843 -1.01295 0)
(0.168899 -0.993908 0)
(0.191225 -0.968633 0)
(0.236776 -0.934613 0)
(0.312253 -0.90869 0)
(0.404316 -0.875111 0)
(0.529771 -0.862228 0)
(0.670724 -0.867072 0)
(0.824648 -0.899556 0)
(0.997059 -0.932927 0)
(1.17898 -0.984279 0)
(1.38033 -1.03185 0)
(1.61733 -1.08135 0)
(0.0143759 -0.888253 0)
(0.0375332 -0.891944 0)
(0.0663697 -0.897541 0)
(0.0894763 -0.909222 0)
(0.115101 -0.920721 0)
(0.135586 -0.936526 0)
(0.155309 -0.951562 0)
(0.166285 -0.971405 0)
(0.17318 -0.993217 0)
(0.172064 -1.01597 0)
(0.178154 -1.02004 0)
(0.191939 -1.02306 0)
(0.222863 -1.02252 0)
(0.27008 -1.00204 0)
(0.334599 -0.996531 0)
(0.41757 -0.985212 0)
(0.522075 -0.994676 0)
(0.649841 -1.01258 0)
(0.78574 -1.05947 0)
(0.947054 -1.10949 0)
(1.11894 -1.18079 0)
(1.32427 -1.26171 0)
(1.55921 -1.34807 0)
(0.0126353 -0.913892 0)
(0.0345697 -0.917551 0)
(0.0593426 -0.922966 0)
(0.0804366 -0.932896 0)
(0.102321 -0.942961 0)
(0.121347 -0.957443 0)
(0.141246 -0.970585 0)
(0.156984 -0.986883 0)
(0.173131 -0.999924 0)
(0.179782 -1.02081 0)
(0.195548 -1.0336 0)
(0.2164 -1.03979 0)
(0.246498 -1.04869 0)
(0.289012 -1.04757 0)
(0.344753 -1.05848 0)
(0.416437 -1.06435 0)
(0.502475 -1.09715 0)
(0.614247 -1.13278 0)
(0.7337 -1.19996 0)
(0.880215 -1.26853 0)
(1.0392 -1.36574 0)
(1.23458 -1.47525 0)
(1.45869 -1.60926 0)
(0.0110235 -0.935643 0)
(0.0304622 -0.938787 0)
(0.0513705 -0.943601 0)
(0.0696069 -0.952231 0)
(0.0888955 -0.961768 0)
(0.105728 -0.975323 0)
(0.123561 -0.987168 0)
(0.138614 -1.00295 0)
(0.15768 -1.01568 0)
(0.172488 -1.0378 0)
(0.18951 -1.05611 0)
(0.211262 -1.07304 0)
(0.242325 -1.09429 0)
(0.28064 -1.09991 0)
(0.329691 -1.12336 0)
(0.388538 -1.14287 0)
(0.466303 -1.19239 0)
(0.552276 -1.24415 0)
(0.6632 -1.32541 0)
(0.771615 -1.41579 0)
(0.927606 -1.53473 0)
(1.07456 -1.68291 0)
(1.302 -1.85684 0)
(0.00943965 -0.95532 0)
(0.026269 -0.957789 0)
(0.0443204 -0.962106 0)
(0.0607644 -0.970281 0)
(0.0782081 -0.979154 0)
(0.0934554 -0.991995 0)
(0.110271 -1.00369 0)
(0.12443 -1.02101 0)
(0.143107 -1.0342 0)
(0.159411 -1.05287 0)
(0.17837 -1.07302 0)
(0.198995 -1.09327 0)
(0.223351 -1.11896 0)
(0.250893 -1.13564 0)
(0.293794 -1.16742 0)
(0.338289 -1.20196 0)
(0.41039 -1.26216 0)
(0.470598 -1.33121 0)
(0.575165 -1.42075 0)
(0.646229 -1.53542 0)
(0.797066 -1.67017 0)
(0.885665 -1.85394 0)
(1.10529 -2.06276 0)
(0.00807168 -0.971406 0)
(0.0225897 -0.973671 0)
(0.038763 -0.978195 0)
(0.0532382 -0.98605 0)
(0.0687062 -0.994569 0)
(0.0820551 -1.00722 0)
(0.0967947 -1.01818 0)
(0.109001 -1.03549 0)
(0.124146 -1.05064 0)
(0.138224 -1.0726 0)
(0.156445 -1.09552 0)
(0.171849 -1.11749 0)
(0.193913 -1.14611 0)
(0.21445 -1.17001 0)
(0.254593 -1.21097 0)
(0.288777 -1.2592 0)
(0.34939 -1.32546 0)
(0.389352 -1.40842 0)
(0.472486 -1.50244 0)
(0.51795 -1.63675 0)
(0.632437 -1.77623 0)
(0.68291 -1.98999 0)
(0.844878 -2.2079 0)
(0.00707017 -0.985936 0)
(0.0201152 -0.988386 0)
(0.0343476 -0.992753 0)
(0.0466859 -1.00008 0)
(0.0600826 -1.00803 0)
(0.071149 -1.01991 0)
(0.0839747 -1.0308 0)
(0.0946531 -1.04825 0)
(0.107332 -1.06369 0)
(0.118252 -1.08517 0)
(0.130598 -1.10708 0)
(0.141703 -1.1308 0)
(0.159786 -1.16213 0)
(0.17582 -1.19637 0)
(0.207416 -1.24263 0)
(0.226945 -1.29676 0)
(0.270219 -1.36403 0)
(0.292313 -1.45423 0)
(0.348828 -1.55124 0)
(0.374155 -1.69502 0)
(0.444605 -1.83795 0)
(0.471741 -2.06517 0)
(0.55474 -2.27763 0)
(0.00613164 -0.998585 0)
(0.0171178 -1.00089 0)
(0.0290279 -1.00481 0)
(0.0391705 -1.01167 0)
(0.0503114 -1.01911 0)
(0.0593315 -1.03093 0)
(0.0698933 -1.04174 0)
(0.07796 -1.05857 0)
(0.0878812 -1.0743 0)
(0.0955249 -1.09549 0)
(0.105514 -1.119 0)
(0.113712 -1.14618 0)
(0.127887 -1.18037 0)
(0.136187 -1.21709 0)
(0.155181 -1.26256 0)
(0.163818 -1.32133 0)
(0.190127 -1.39167 0)
(0.196894 -1.48604 0)
(0.225881 -1.5854 0)
(0.230569 -1.73129 0)
(0.257208 -1.87517 0)
(0.256784 -2.09862 0)
(0.268324 -2.3121 0)
(0.00500918 -1.00912 0)
(0.0137348 -1.01117 0)
(0.0234586 -1.01479 0)
(0.0315892 -1.02119 0)
(0.0406947 -1.02821 0)
(0.0477604 -1.03928 0)
(0.0558368 -1.04954 0)
(0.0617883 -1.06602 0)
(0.0686502 -1.08142 0)
(0.0737036 -1.10257 0)
(0.080002 -1.12558 0)
(0.0835582 -1.15296 0)
(0.0904476 -1.18513 0)
(0.0915938 -1.22337 0)
(0.101601 -1.27093 0)
(0.10012 -1.3313 0)
(0.109247 -1.3979 0)
(0.100407 -1.48962 0)
(0.103408 -1.58579 0)
(0.0849172 -1.72623 0)
(0.0714806 -1.86468 0)
(0.0385249 -2.0767 0)
(-0.0115649 -2.27623 0)
(0.00395604 -1.01728 0)
(0.0109427 -1.01924 0)
(0.0187361 -1.02265 0)
(0.02516 -1.02876 0)
(0.0322077 -1.0353 0)
(0.037276 -1.04588 0)
(0.0429337 -1.05578 0)
(0.0464669 -1.07108 0)
(0.0502762 -1.08624 0)
(0.0520749 -1.10646 0)
(0.0540944 -1.12892 0)
(0.0527583 -1.15608 0)
(0.0540306 -1.18848 0)
(0.0490517 -1.22756 0)
(0.0487852 -1.27131 0)
(0.0376221 -1.32822 0)
(0.0318018 -1.39225 0)
(0.00963013 -1.47924 0)
(-0.00983719 -1.56995 0)
(-0.0489176 -1.69824 0)
(-0.0974792 -1.8283 0)
(-0.161138 -2.01411 0)
(-0.266311 -2.20959 0)
(0.00321871 -1.02395 0)
(0.00864792 -1.02583 0)
(0.0148126 -1.02897 0)
(0.0194219 -1.03449 0)
(0.0245032 -1.04032 0)
(0.0276745 -1.04977 0)
(0.0309536 -1.05879 0)
(0.032199 -1.0731 0)
(0.032938 -1.08715 0)
(0.031422 -1.10607 0)
(0.0297472 -1.12644 0)
(0.0240619 -1.15255 0)
(0.019078 -1.18174 0)
(0.00742707 -1.21772 0)
(-0.00227575 -1.25985 0)
(-0.0222356 -1.31375 0)
(-0.0403645 -1.37019 0)
(-0.0737199 -1.44749 0)
(-0.110681 -1.52743 0)
(-0.16558 -1.63833 0)
(-0.239012 -1.75217 0)
(-0.330503 -1.90844 0)
(-0.470447 -2.07747 0)
(0.00245936 -1.02906 0)
(0.00635861 -1.03071 0)
(0.0108262 -1.03338 0)
(0.0138133 -1.03829 0)
(0.0170859 -1.04352 0)
(0.0184331 -1.05209 0)
(0.0197303 -1.06026 0)
(0.0188995 -1.07274 0)
(0.0171917 -1.08543 0)
(0.0127371 -1.10286 0)
(0.00734852 -1.12154 0)
(-0.00208213 -1.14485 0)
(-0.0125859 -1.1718 0)
(-0.0297191 -1.20546 0)
(-0.047282 -1.2416 0)
(-0.0758538 -1.28929 0)
(-0.106894 -1.34055 0)
(-0.151162 -1.40773 0)
(-0.204001 -1.4773 0)
(-0.272203 -1.56834 0)
(-0.362673 -1.66139 0)
(-0.470235 -1.7809 0)
(-0.625671 -1.90559 0)
(0.00173804 -1.03267 0)
(0.00428943 -1.03407 0)
(0.00731566 -1.03636 0)
(0.00897299 -1.04057 0)
(0.0106991 -1.0449 0)
(0.010492 -1.05219 0)
(0.00977982 -1.05927 0)
(0.00687701 -1.07028 0)
(0.00289157 -1.08102 0)
(-0.00391358 -1.09587 0)
(-0.0124178 -1.11169 0)
(-0.02517 -1.13219 0)
(-0.0394503 -1.15421 0)
(-0.0609364 -1.18255 0)
(-0.0850968 -1.21378 0)
(-0.118871 -1.25353 0)
(-0.158343 -1.29493 0)
(-0.211381 -1.3499 0)
(-0.276231 -1.40629 0)
(-0.35755 -1.47947 0)
(-0.46196 -1.55359 0)
(-0.585298 -1.64596 0)
(-0.75024 -1.73945 0)
(0.00117119 -1.03497 0)
(0.00276166 -1.03615 0)
(0.00464325 -1.03798 0)
(0.00512072 -1.04148 0)
(0.0054763 -1.04497 0)
(0.00386074 -1.05092 0)
(0.00156394 -1.05655 0)
(-0.00324899 -1.06552 0)
(-0.00957394 -1.07454 0)
(-0.0189808 -1.0871 0)
(-0.030352 -1.10014 0)
(-0.046347 -1.11724 0)
(-0.0648859 -1.13583 0)
(-0.0896971 -1.15904 0)
(-0.118216 -1.18339 0)
(-0.15614 -1.21511 0)
(-0.200604 -1.24745 0)
(-0.256811 -1.28862 0)
(-0.326538 -1.32993 0)
(-0.410902 -1.38093 0)
(-0.520379 -1.43118 0)
(-0.64831 -1.48978 0)
(-0.819801 -1.54643 0)
(0.000867376 -1.03651 0)
(0.0017414 -1.03741 0)
(0.00285297 -1.03864 0)
(0.0024861 -1.04123 0)
(0.00179023 -1.04358 0)
(-0.000882646 -1.04806 0)
(-0.00445102 -1.05212 0)
(-0.0104508 -1.05887 0)
(-0.0181769 -1.06526 0)
(-0.0292468 -1.07475 0)
(-0.0427939 -1.0843 0)
(-0.0610244 -1.09722 0)
(-0.0827674 -1.11081 0)
(-0.111263 -1.12867 0)
(-0.144431 -1.14713 0)
(-0.186322 -1.17045 0)
(-0.236274 -1.19385 0)
(-0.297242 -1.2232 0)
(-0.371398 -1.25155 0)
(-0.459085 -1.28513 0)
(-0.568151 -1.31557 0)
(-0.693513 -1.34739 0)
(-0.852445 -1.37247 0)
(0.000567909 -1.03746 0)
(0.00103264 -1.03798 0)
(0.00142753 -1.03861 0)
(0.000468195 -1.04022 0)
(-0.00112735 -1.04149 0)
(-0.00455309 -1.0444 0)
(-0.00923587 -1.04686 0)
(-0.0162624 -1.05144 0)
(-0.0252693 -1.05559 0)
(-0.0373395 -1.06204 0)
(-0.0522073 -1.06818 0)
(-0.0713257 -1.07674 0)
(-0.0943448 -1.08536 0)
(-0.123368 -1.09678 0)
(-0.15812 -1.10807 0)
(-0.200907 -1.1226 0)
(-0.252169 -1.13608 0)
(-0.313724 -1.15265 0)
(-0.388653 -1.16703 0)
(-0.476322 -1.18269 0)
(-0.584668 -1.19411 0)
(-0.708163 -1.20218 0)
(-0.862236 -1.20216 0)
(0.000485632 -1.03804 0)
(0.000782744 -1.03816 0)
(0.000941462 -1.03801 0)
(-0.000322641 -1.03853 0)
(-0.0023417 -1.0385 0)
(-0.00630447 -1.03976 0)
(-0.0117187 -1.04035 0)
(-0.0196574 -1.04257 0)
(-0.029785 -1.04409 0)
(-0.0431812 -1.04744 0)
(-0.0594756 -1.05015 0)
(-0.0800335 -1.05456 0)
(-0.104569 -1.05846 0)
(-0.134995 -1.06418 0)
(-0.170961 -1.06904 0)
(-0.214536 -1.07549 0)
(-0.266165 -1.08024 0)
(-0.327134 -1.08576 0)
(-0.399876 -1.08807 0)
(-0.483698 -1.08861 0)
(-0.584203 -1.08331 0)
(-0.697243 -1.07075 0)
(-0.833164 -1.04803 0)
(0.000610034 -1.0386 0)
(0.00129981 -1.03828 0)
(0.0016783 -1.03738 0)
(0.000824326 -1.03674 0)
(-0.00108321 -1.03538 0)
(-0.00479621 -1.03478 0)
(-0.0103827 -1.03336 0)
(-0.018353 -1.03307 0)
(-0.0288619 -1.03192 0)
(-0.0423092 -1.032 0)
(-0.0590119 -1.03118 0)
(-0.0795188 -1.03126 0)
(-0.104316 -1.03025 0)
(-0.134364 -1.02998 0)
(-0.170328 -1.02833 0)
(-0.212914 -1.02691 0)
(-0.263579 -1.02306 0)
(-0.322434 -1.01821 0)
(-0.392508 -1.00942 0)
(-0.47219 -0.996962 0)
(-0.566834 -0.978163 0)
(-0.671884 -0.9505 0)
(-0.79567 -0.912723 0)
(0.000722945 -1.0399 0)
(0.00178301 -1.03917 0)
(0.00249721 -1.0375 0)
(0.00210639 -1.03566 0)
(0.000584681 -1.03283 0)
(-0.00270812 -1.03029 0)
(-0.00791938 -1.0267 0)
(-0.0155955 -1.02383 0)
(-0.0260109 -1.01997 0)
(-0.0396246 -1.01691 0)
(-0.0567325 -1.01267 0)
(-0.0776714 -1.00873 0)
(-0.102638 -1.0032 0)
(-0.132349 -0.997476 0)
(-0.167367 -0.989891 0)
(-0.208543 -0.981406 0)
(-0.256814 -0.969953 0)
(-0.312502 -0.956008 0)
(-0.377534 -0.937537 0)
(-0.450933 -0.913797 0)
(-0.536102 -0.883128 0)
(-0.629864 -0.842221 0)
(-0.737281 -0.791086 0)
(0.000840937 -1.04097 0)
(0.00235266 -1.0399 0)
(0.00348038 -1.03758 0)
(0.00388332 -1.03464 0)
(0.00316702 -1.03043 0)
(0.00101407 -1.02604 0)
(-0.00311249 -1.02032 0)
(-0.00945426 -1.0147 0)
(-0.0188219 -1.00772 0)
(-0.0313029 -1.00096 0)
(-0.0476546 -0.992946 0)
(-0.0677273 -0.984998 0)
(-0.0921496 -0.975358 0)
(-0.12073 -0.964839 0)
(-0.154453 -0.951836 0)
(-0.193332 -0.936956 0)
(-0.238855 -0.918594 0)
(-0.290572 -0.896768 0)
(-0.350716 -0.870037 0)
(-0.417701 -0.837249 0)
(-0.494803 -0.797475 0)
(-0.578504 -0.747491 0)
(-0.672922 -0.687888 0)
(0.000994313 -1.0431 0)
(0.00291656 -1.0418 0)
(0.00443023 -1.03904 0)
(0.00541211 -1.03532 0)
(0.00539042 -1.02997 0)
(0.00419692 -1.02394 0)
(0.00112941 -1.0162 0)
(-0.00383994 -1.00796 0)
(-0.0115799 -0.998026 0)
(-0.0220951 -0.987809 0)
(-0.0363568 -0.976045 0)
(-0.0543916 -0.963838 0)
(-0.0771273 -0.949856 0)
(-0.104299 -0.934644 0)
(-0.136482 -0.916816 0)
(-0.173338 -0.896392 0)
(-0.215752 -0.872128 0)
(-0.263302 -0.843518 0)
(-0.317649 -0.809763 0)
(-0.377715 -0.769211 0)
(-0.445541 -0.721755 0)
(-0.518733 -0.663947 0)
(-0.599709 -0.597338 0)
(0.000977981 -1.04474 0)
(0.00296105 -1.04319 0)
(0.00447292 -1.03993 0)
(0.00560608 -1.03541 0)
(0.00583072 -1.02905 0)
(0.00526784 -1.02154 0)
(0.00319339 -1.0121 0)
(-0.000281938 -1.00171 0)
(-0.00602749 -0.989245 0)
(-0.0140403 -0.975851 0)
(-0.0254399 -0.960392 0)
(-0.0401607 -0.943837 0)
(-0.0593398 -0.925153 0)
(-0.0827426 -0.905045 0)
(-0.111429 -0.88242 0)
(-0.144782 -0.857154 0)
(-0.183731 -0.828101 0)
(-0.227062 -0.7942 0)
(-0.276141 -0.754831 0)
(-0.32959 -0.708465 0)
(-0.389396 -0.655252 0)
(-0.453117 -0.592104 0)
(-0.52281 -0.520732 0)
(0.000936057 -1.04711 0)
(0.00282327 -1.04536 0)
(0.00424866 -1.04176 0)
(0.00542234 -1.03672 0)
(0.00582422 -1.02971 0)
(0.00570212 -1.02134 0)
(0.00449307 -1.01073 0)
(0.00228502 -0.998733 0)
(-0.0016132 -0.984294 0)
(-0.00721942 -0.968311 0)
(-0.0154396 -0.949874 0)
(-0.0263722 -0.929755 0)
(-0.041026 -0.907106 0)
(-0.0595768 -0.882244 0)
(-0.0831517 -0.854465 0)
(-0.111566 -0.823674 0)
(-0.145677 -0.789415 0)
(-0.184576 -0.750632 0)
(-0.228648 -0.706726 0)
(-0.276344 -0.655516 0)
(-0.328592 -0.597704 0)
(-0.383555 -0.530217 0)
(-0.442653 -0.455442 0)
(0.000682377 -1.04832 0)
(0.00208247 -1.04631 0)
(0.00310244 -1.04236 0)
(0.00399476 -1.03679 0)
(0.00434429 -1.02915 0)
(0.00434488 -1.01997 0)
(0.00344571 -1.00846 0)
(0.00186886 -0.995314 0)
(-0.000858518 -0.979491 0)
(-0.00459124 -0.9617 0)
(-0.00998117 -0.940958 0)
(-0.0172536 -0.917874 0)
(-0.0273047 -0.89162 0)
(-0.0403589 -0.862487 0)
(-0.0574108 -0.830035 0)
(-0.0785692 -0.794123 0)
(-0.105015 -0.754591 0)
(-0.136399 -0.710647 0)
(-0.173636 -0.662427 0)
(-0.215055 -0.607824 0)
(-0.261025 -0.547208 0)
(-0.309074 -0.477224 0)
(-0.359849 -0.399851 0)
(0.000474392 -1.05001 0)
(0.00142951 -1.0479 0)
(0.00207941 -1.0438 0)
(0.00258271 -1.03807 0)
(0.00268371 -1.03017 0)
(0.00252174 -1.02053 0)
(0.00189745 -1.00839 0)
(0.00083807 -0.994536 0)
(-0.000899739 -0.977978 0)
(-0.00327367 -0.959264 0)
(-0.00661399 -0.93731 0)
(-0.0110559 -0.912453 0)
(-0.0171477 -0.884028 0)
(-0.0252047 -0.852072 0)
(-0.0360045 -0.816175 0)
(-0.0498643 -0.775902 0)
(-0.0678876 -0.731376 0)
(-0.0902572 -0.681729 0)
(-0.118186 -0.627719 0)
(-0.151141 -0.567778 0)
(-0.18948 -0.503254 0)
(-0.231148 -0.431038 0)
(-0.275235 -0.352843 0)
(0.000205912 -1.05003 0)
(0.000594832 -1.04773 0)
(0.000750088 -1.04333 0)
(0.000763503 -1.0372 0)
(0.000476215 -1.02892 0)
(1.32493e-05 -1.01897 0)
(-0.00075505 -1.00654 0)
(-0.00173542 -0.992237 0)
(-0.00313354 -0.975104 0)
(-0.00491562 -0.955665 0)
(-0.00723418 -0.932884 0)
(-0.0100667 -0.906991 0)
(-0.0136915 -0.877162 0)
(-0.0182712 -0.843267 0)
(-0.0243038 -0.805039 0)
(-0.0319423 -0.761838 0)
(-0.0419669 -0.713803 0)
(-0.0546147 -0.659897 0)