/*--------------------------------*- C++ -*----------------------------------*\
| =========                 |                                                 |
| \\      /  F ield         | OpenFOAM: The Open Source CFD Toolbox           |
|  \\    /   O peration     | Version:  2012                                  |
|   \\  /    A nd           | Website:  www.openfoam.com                      |
|    \\/     M anipulation  |                                                 |
\*---------------------------------------------------------------------------*/
FoamFile
{
    version     2.0;
    format      ascii;
    class       volScalarField;
    location    "8e-05";
    object      pcorr;
}
// * * * * * * * * * * * * * * * * * * * * * * * * * * * * * * * * * * * * * //

dimensions      [1 -1 -2 0 0 0 0];


internalField   nonuniform List<scalar> 
5000
(
-0.002322862973
-0.002322823907
-0.002322785118
-0.002322761784
-0.002322806656
-0.002323316972
-0.002323023162
-0.002322261238
-0.002321439525
-0.002320603726
-0.002319753183
-0.002318927903
-0.002317088092
-0.002313566916
-0.002310891101
-0.002308760662
-0.002306715481
-0.002304671877
-0.002302690135
-0.002300672334
-0.002298603289
-0.002296476807
-0.00229435844
-0.002292103683
-0.002289646655
-0.002287183143
-0.00228474725
-0.002282357404
-0.002279781115
-0.002277278318
-0.002275001462
-0.002272786413
-0.002270838221
-0.002269027081
-0.002267183275
-0.002265296167
-0.002263323306
-0.002261360818
-0.002259445205
-0.002257328926
-0.002254934178
-0.00225232952
-0.00224934843
-0.002246148839
-0.002243330133
-0.002241010801
-0.00223881294
-0.002236739359
-0.002234789008
-0.00223279236
-0.002230820527
-0.002228731046
-0.002226663712
-0.002224719422
-0.002222749616
-0.002220503596
-0.002218042993
-0.002215635397
-0.002213343659
-0.002211150503
-0.002209002664
-0.002206851291
-0.002204745477
-0.002202704796
-0.002200586418
-0.002198540552
-0.002196529021
-0.002194321343
-0.002191896526
-0.002189450182
-0.002186978585
-0.002184503836
-0.002182013421
-0.002179421194
-0.002176852059
-0.00217452062
-0.002172092688
-0.002169232803
-0.002166032243
-0.002163018543
-0.00216042695
-0.002157656517
-0.002154400835
-0.002151046127
-0.00214796283
-0.002145180514
-0.002142697303
-0.002140384228
-0.002137802297
-0.002135313914
-0.002133233215
-0.002131099799
-0.00212874997
-0.002126132302
-0.002123341575
-0.00212060897
-0.00211811425
-0.002115850822
-0.002113651289
-0.002111439608
-0.002109263765
-0.002107111038
-0.002104960143
-0.002102827401
-0.002100651308
-0.002098482946
-0.002096380113
-0.002094234615
-0.002092075652
-0.002089746962
-0.002087192762
-0.002084749471
-0.002082391193
-0.002080213093
-0.002078137985
-0.002076012397
-0.002073832842
-0.002071652871
-0.00206950189
-0.002067397791
-0.002065323252
-0.002063089041
-0.002060804697
-0.002058628346
-0.002056107352
-0.002053061975
-0.002049820678
-0.00204661791
-0.002043656357
-0.002040861083
-0.00203826957
-0.002036087591
-0.002033961692
-0.002031621076
-0.00202944026
-0.002027144619
-0.00202473444
-0.002022387528
-0.002020034948
-0.002017643852
-0.002015025894
-0.002012344693
-0.002009837197
-0.002007531719
-0.002005386793
-0.00200321691
-0.0020010345
-0.001998845993
-0.001996624743
-0.001994551238
-0.001992572754
-0.001990496845
-0.001988282776
-0.001986164974
-0.001984090524
-0.001982045858
-0.001979924339
-0.001977746944
-0.001975452528
-0.001972994575
-0.001970607731
-0.001968472712
-0.001966560496
-0.001964583196
-0.001962609136
-0.001960531617
-0.001957933018
-0.001954959016
-0.001952231478
-0.001950012981
-0.00194797354
-0.001945731007
-0.001943520619
-0.001941342935
-0.001938980855
-0.001936584056
-0.001934391174
-0.001932194995
-0.00193003727
-0.001927996503
-0.001925786188
-0.001923364995
-0.001921020293
-0.001918851812
-0.001916715336
-0.001914607145
-0.00191252881
-0.00191049201
-0.001908482076
-0.001906515823
-0.001904469822
-0.001902284122
-0.001899987367
-0.001897577651
-0.001895062679
-0.001892437561
-0.00188970535
-0.001887079246
-0.001884619036
-0.001882182146
-0.001879652329
-0.001877134866
-0.001874855483
-0.001872761028
-0.001870537099
-0.001868028818
-0.001865462396
-0.001862920247
-0.001860413919
-0.001857793251
-0.001855195856
-0.001852941203
-0.001850810442
-0.001848449686
-0.00184591276
-0.001843357656
-0.001840607904
-0.001837718168
-0.001835203128
-0.001833032957
-0.001830946166
-0.001828874231
-0.001826671334
-0.00182426229
-0.001821796051
-0.001819442245
-0.001817249252
-0.001815159349
-0.001813074626
-0.001810929519
-0.001808816243
-0.001806652968
-0.001804485504
-0.001802320535
-0.00180000788
-0.001797666956
-0.001795257026
-0.001792835166
-0.00179063867
-0.001788590311
-0.001786537774
-0.001784454486
-0.00178224181
-0.001779853275
-0.001777444205
-0.001775146487
-0.001772957539
-0.001770805962
-0.001768592391
-0.001766374364
-0.00176409891
-0.00176134749
-0.001758565785
-0.00175631258
-0.001754232256
-0.001752079403
-0.001749934031
-0.001747918047
-0.001745968532
-0.001743918145
-0.001741862281
-0.001739842064
-0.001737768755
-0.001735630102
-0.001733076777
-0.001730184628
-0.001727364202
-0.00172482994
-0.001722518945
-0.001720028269
-0.001717411536
-0.001715157034
-0.001713119142
-0.001711048921
-0.001708946362
-0.001706806471
-0.00170464259
-0.00170224998
-0.001699774714
-0.0016974947
-0.001695244536
-0.001692871585
-0.001690332076
-0.001687729439
-0.001685285856
-0.001682903136
-0.001680345217
-0.001677832151
-0.001675543797
-0.001673176845
-0.001670707119
-0.00166828411
-0.001665591473
-0.00166283716
-0.001660467696
-0.001658360437
-0.001656238125
-0.001653948863
-0.001651377219
-0.001648325383
-0.001645249596
-0.001642599317
-0.001640398129
-0.001638407702
-0.001636334152
-0.001634191357
-0.001632036159
-0.001629686759
-0.001627354703
-0.001625193734
-0.001623075336
-0.001621013091
-0.001618983902
-0.001616943237
-0.001614712694
-0.001612204117
-0.001609677988
-0.001607408582
-0.001605159294
-0.001602617755
-0.001599896703
-0.001597388447
-0.001595046301
-0.001592622071
-0.001590171951
-0.001587839008
-0.00158563213
-0.001583346041
-0.001581060881
-0.001579007528
-0.001576895863
-0.00157456101
-0.001572272687
-0.001569993126
-0.00156775844
-0.001565546053
-0.001563448383
-0.001561451607
-0.001559288168
-0.001556967309
-0.001554568741
-0.00155221317
-0.001549988551
-0.001547865547
-0.001545811136
-0.001543831988
-0.001541975155
-0.001540128661
-0.001538032504
-0.00153564941
-0.001533204688
-0.001530850569
-0.001528556711
-0.001526238699
-0.001523825824
-0.001521179707
-0.00151853216
-0.001516200547
-0.001513936225
-0.001511621306
-0.00150937815
-0.001507202623
-0.001504982737
-0.001502628635
-0.001500159624
-0.001497706427
-0.001495364836
-0.001493223464
-0.001491229118
-0.00148923186
-0.001487144443
-0.00148466832
-0.001481657162
-0.001478623799
-0.001476038002
-0.001473699919
-0.001471214519
-0.001468602912
-0.001466078488
-0.001463603499
-0.001461302415
-0.00145927411
-0.001457250453
-0.001454996142
-0.001452589163
-0.001450117606
-0.001447660016
-0.001445281909
-0.001442965361
-0.00144058455
-0.001438045269
-0.001435613571
-0.001433434741
-0.001431330815
-0.00142920566
-0.001427101068
-0.001424888806
-0.00142231408
-0.001419695454
-0.001417216336
-0.001414744224
-0.001412347203
-0.001409959395
-0.001407675204
-0.001405506934
-0.001403337924
-0.001401062361
-0.00139873211
-0.001396509695
-0.001394341227
-0.001392227636
-0.001390160165
-0.001388024771
-0.001385910145
-0.001383783609
-0.001381306809
-0.00137844157
-0.00137587158
-0.001373619199
-0.001371298478
-0.001368956903
-0.001366541209
-0.001364076777
-0.001361639374
-0.001359191046
-0.001356612975
-0.001353876792
-0.001351436332
-0.001349339667
-0.001347377166
-0.001345421439
-0.001343451085
-0.001341316287
-0.001338763356
-0.001335771808
-0.001332541063
-0.001329461303
-0.001326719608
-0.001323924935
-0.001320944445
-0.001318347552
-0.001316164699
-0.001313907677
-0.001311396087
-0.00130880488
-0.001306236537
-0.001303833241
-0.001301799908
-0.001299857541
-0.001297775272
-0.001295627039
-0.001293134148
-0.001290038477
-0.001286951695
-0.001284262931
-0.001281663827
-0.001278923616
-0.001276091814
-0.001273294248
-0.001270575586
-0.00126773177
-0.001264509938
-0.001261608085
-0.001259386182
-0.001257382037
-0.001255299819
-0.001253161632
-0.001250835048
-0.001248273231
-0.001245885672
-0.001243779147
-0.001241787776
-0.001239818652
-0.001237855439
-0.001235766747
-0.001233384902
-0.001230896929
-0.00122854839
-0.001226283827
-0.00122401083
-0.001221788243
-0.001219536824
-0.001217096397
-0.001214666239
-0.001212311036
-0.001210063132
-0.001208099207
-0.00120617401
-0.00120403083
-0.00120194629
-0.00119992631
-0.001197609817
-0.001195130275
-0.001192646474
-0.001190272057
-0.001188005604
-0.001185710516
-0.001183426165
-0.001181038642
-0.001178662405
-0.001176282285
-0.001173674778
-0.001171054662
-0.001168789796
-0.001166727974
-0.001164411132
-0.001161537291
-0.001158417657
-0.001155208112
-0.001152080171
-0.001149355624
-0.001147220637
-0.001145184464
-0.001142888531
-0.001140530504
-0.001138014921
-0.001135460728
-0.001133148923
-0.00113099447
-0.001128828812
-0.0011266888
-0.001124460879
-0.00112198385
-0.0011194598
-0.00111695311
-0.00111445995
-0.001112004227
-0.001109540928
-0.001107078398
-0.00110472316
-0.001102432954
-0.001100209926
-0.001098170168
-0.001096219053
-0.001094272364
-0.001092220805
-0.001089995119
-0.001087640746
-0.001085462823
-0.001083474418
-0.001081498936
-0.001079469184
-0.001077490107
-0.001075438412
-0.001073097549
-0.001070873116
-0.001068923885
-0.001067034104
-0.001065060098
-0.00106300461
-0.001061064998
-0.001059126168
-0.001056999745
-0.00105486326
-0.001052762739
-0.001050751149
-0.001048700731
-0.001046681202
-0.001044881207
-0.001043080199
-0.001041081841
-0.001038895821
-0.001036628072
-0.001034358616
-0.001032026587
-0.001029794717
-0.001027800842
-0.001025852728
-0.001023750508
-0.001021211348
-0.001018438074
-0.001015915065
-0.001013512128
-0.001011274147
-0.00100923792
-0.001007093429
-0.001004609305
-0.001002164618
-0.0009998838175
-0.0009974497047
-0.0009949811547
-0.0009926166488
-0.0009903028735
-0.0009881325386
-0.0009858408342
-0.0009834002446
-0.0009807642972
-0.0009778830886
-0.0009751912519
-0.0009726948808
-0.0009701794837
-0.0009676311435
-0.000965071462
-0.0009626849474
-0.0009604807452
-0.0009581534953
-0.0009556286364
-0.0009532396
-0.0009510922435
-0.0009488921225
-0.0009467136568
-0.000944552527
-0.0009420969346
-0.0009395873341
-0.000937275785
-0.00093512332
-0.0009331316764
-0.0009310016736
-0.0009284649392
-0.00092560048
-0.0009230786031
-0.0009208128015
-0.0009183545379
-0.0009159734444
-0.0009139005754
-0.0009118833522
-0.0009097307213
-0.0009074121045
-0.0009050364658
-0.0009028639271
-0.0009007249654
-0.0008983231128
-0.0008958112929
-0.0008934353548
-0.0008910791234
-0.0008888326038
-0.0008866783854
-0.0008842237708
-0.0008814209893
-0.0008789488291
-0.0008768747082
-0.0008749982424
-0.0008730902301
-0.0008710297131
-0.0008690253069
-0.0008670034262
-0.0008647303257
-0.0008622142103
-0.0008595924422
-0.0008568737212
-0.0008541183264
-0.0008515696775
-0.0008492130668
-0.0008470214912
-0.0008450230466
-0.0008429145013
-0.0008407245499
-0.0008384538034
-0.0008358462759
-0.0008331938503
-0.0008308101598
-0.0008286337297
-0.0008264778748
-0.000824285206
-0.0008219485284
-0.0008195646036
-0.000817287283
-0.0008151691705
-0.0008131418073
-0.0008110408695
-0.0008087586416
-0.0008064386421
-0.000804113565
-0.0008017156713
-0.0007991897273
-0.0007967315826
-0.000794569403
-0.0007921484948
-0.0007891924161
-0.0007860691535
-0.0007833037164
-0.0007809420744
-0.0007785908548
-0.0007760868899
-0.0007737461793
-0.0007717578348
-0.0007697932075
-0.0007675473459
-0.0007653090982
-0.0007631627343
-0.0007608117214
-0.0007582925062
-0.0007557765113
-0.0007533662275
-0.0007511672086
-0.0007491462673
-0.0007470095476
-0.0007446742084
-0.0007424046344
-0.0007403004264
-0.0007382515314
-0.000736147696
-0.0007339800762
-0.0007316778422
-0.0007291620581
-0.0007265224768
-0.0007237980508
-0.0007209052103
-0.0007181302764
-0.0007154185113
-0.0007124589627
-0.0007096430415
-0.0007073506942
-0.0007051610136
-0.0007025082478
-0.0006996195108
-0.0006968443239
-0.0006939104957
-0.0006907687913
-0.0006875780739
-0.00068438763
-0.0006813608678
-0.0006786266796
-0.0006761588773
-0.000673828435
-0.0006714630976
-0.0006691603369
-0.00066673506
-0.0006641491117
-0.0006617535205
-0.0006595404532
-0.0006574643346
-0.0006555376037
-0.000653690001
-0.0006517578078
-0.0006496786446
-0.0006474566046
-0.0006449914462
-0.0006425306798
-0.0006402276705
-0.0006379023422
-0.000635732311
-0.0006336022562
-0.0006314188971
-0.0006291995924
-0.0006267220916
-0.0006242420113
-0.0006221009197
-0.0006200280656
-0.000617893308
-0.0006156865158
-0.0006134133413
-0.0006112361789
-0.0006091057579
-0.0006070835428
-0.0006050868427
-0.0006027473422
-0.0006004261008
-0.0005983153786
-0.0005961794888
-0.0005939857514
-0.0005916783693
-0.0005894813198
-0.0005873640681
-0.0005851645896
-0.0005827146
-0.00058025588
-0.0005780304254
-0.0005758611624
-0.000573721961
-0.0005715265781
-0.0005691846708
-0.0005668409397
-0.0005647139278
-0.0005627753864
-0.0005607801176
-0.0005586099892
-0.0005562236097
-0.0005534796002
-0.0005507321795
-0.0005481142234
-0.000545467388
-0.0005428388465
-0.0005402011983
-0.0005376271207
-0.0005352412528
-0.0005329306403
-0.0005302507316
-0.0005273972748
-0.000524844871
-0.0005224657814
-0.0005201946911
-0.0005179943763
-0.0005158124489
-0.0005133600072
-0.0005105234795
-0.0005076925052
-0.000505351271
-0.00050325968
-0.0005010529967
-0.0004988836134
-0.0004968562334
-0.0004946338853
-0.0004921929058
-0.0004898286367
-0.0004875457888
-0.0004852254971
-0.000482801089
-0.0004802142306
-0.0004774491661
-0.0004746162464
-0.0004715224391
-0.0004682441292
-0.0004649723993
-0.0004618651272
-0.0004589431057
-0.0004560389971
-0.0004533800786
-0.0004508856013
-0.0004483133773
-0.0004457327033
-0.0004432114425
-0.0004408802867
-0.0004385830515
-0.0004361183652
-0.0004336551464
-0.0004311902515
-0.0004288646652
-0.0004264893724
-0.0004238552145
-0.0004213509613
-0.0004190680377
-0.0004166949978
-0.0004141261874
-0.0004115869576
-0.0004089543005
-0.0004062203993
-0.0004037027826
-0.0004014272859
-0.0003991360121
-0.0003968525762
-0.0003945376207
-0.0003919069185
-0.0003891480232
-0.00038639943
-0.000383652588
-0.0003810037176
-0.0003783906324
-0.0003755878562
-0.0003726399953
-0.0003700641299
-0.0003677975839
-0.0003655894388
-0.0003633104283
-0.0003608002412
-0.0003580982633
-0.0003555383838
-0.0003531792015
-0.0003509754595
-0.000348876732
-0.0003466801097
-0.0003443199735
-0.000342119532
-0.0003399199917
-0.0003374603548
-0.0003348518221
-0.0003322410438
-0.0003297530339
-0.0003273425763
-0.0003250218755
-0.000322891861
-0.0003209000242
-0.0003188436573
-0.0003166573608
-0.0003143880302
-0.0003121266905
-0.0003095450527
-0.0003065115798
-0.0003036145094
-0.0003012343011
-0.0002992472751
-0.0002972245601
-0.0002950264785
-0.000292639523
-0.00029024467
-0.0002879766525
-0.0002856270693
-0.0002827900056
-0.0002797397496
-0.0002769560997
-0.0002744142456
-0.0002720306698
-0.0002697577456
-0.000267601493
-0.0002654480853
-0.0002630420295
-0.0002603390228
-0.0002578497059
-0.0002556976096
-0.000253592988
-0.0002512064355
-0.0002487561702
-0.0002464593471
-0.0002442532873
-0.0002421287053
-0.0002401221269
-0.0002380863177
-0.0002360857816
-0.0002341008016
-0.0002320016908
-0.0002299353576
-0.0002279485477
-0.0002258921718
-0.0002235804987
-0.0002211175231
-0.0002187514909
-0.0002166550284
-0.0002146568701
-0.000212586811
-0.000210531884
-0.0002085130787
-0.0002065584427
-0.0002045217775
-0.0002022011676
-0.0001998277543
-0.0001975529052
-0.0001952346637
-0.0001926567663
-0.0001899861722
-0.0001874093656
-0.000185078538
-0.0001829463059
-0.0001807398978
-0.0001784272575
-0.0001760525494
-0.0001736351609
-0.0001712254183
-0.0001689565713
-0.0001668391879
-0.0001646642671
-0.0001623572143
-0.0001599138345
-0.000157510246
-0.0001553243837
-0.0001530471275
-0.0001508131868
-0.0001485830478
-0.0001458603074
-0.0001428106943
-0.0001400037043
-0.0001374517658
-0.0001350815404
-0.0001327614615
-0.0001303360859
-0.0001278397544
-0.0001253894619
-0.0001231277974
-0.0001209552041
-0.0001186590668
-0.0001162247252
-0.0001137465529
-0.0001113846326
-0.0001090742538
-0.0001066271476
-0.0001043296646
-0.0001019121346
-9.900215288e-05
-9.576372988e-05
-9.261511277e-05
-8.977025358e-05
-8.718136878e-05
-8.481516883e-05
-8.233100939e-05
-7.984470386e-05
-7.761328563e-05
-7.527682273e-05
-7.276258485e-05
-7.032042484e-05
-6.747382138e-05
-6.437587532e-05
-6.158827664e-05
-5.888670742e-05
-5.627405641e-05
-5.386365287e-05
-5.132480297e-05
-4.873551639e-05
-4.637880622e-05
-4.414941831e-05
-4.201689725e-05
-4.014718209e-05
-3.831696117e-05
-3.643446283e-05
-3.446720857e-05
-3.220854518e-05
-2.993362993e-05
-2.795952084e-05
-2.6185462e-05
-2.428910634e-05
-2.229199069e-05
-2.057008154e-05
-1.906176074e-05
-1.758664358e-05
-1.632577234e-05
-1.511057868e-05
-1.38104584e-05
-1.242493005e-05
-1.110224384e-05
-9.666972253e-06
-8.538252321e-06
-7.590707981e-06
-6.637308346e-06
-5.586293723e-06
-4.669360987e-06
-3.956770167e-06
-3.251875037e-06
-2.478178578e-06
-1.885407541e-06
-1.403913202e-06
-9.97753541e-07
-7.751857612e-07
-4.756731643e-07
-9.803740667e-08
8.942725291e-08
0
0
0
0
0
0
0
0
0
0
0
0
0
0
0
0
0
0
0
0
0
0
0
0
0
0
0
0
0
0
0
0
0
0
0
0
0
0
0
0
0
0
0
0
0
0
0
0
0
0
0
0
0
0
0
0
0
0
0
0
0
0
0
0
0
0
0
0
0
0
0
0
0
0
0
0
0
0
0
0
0
0
0
0
0
0
0
0
0
0
0
0
0
0
0
0
0
0
0
0
0
0
0
0
0
0
0
0
0
0
0
0
0
0
0
0
0
0
0
0
0
0
0
0
0
0
0
0
0
0
0
0
0
0
0
0
0
0
0
0
0
0
0
0
0
0
0
0
0
0
0
0
0
0
0
0
0
0
0
0
0
0
0
0
0
0
0
0
0
0
0
0
0
0
0
0
0
0
0
0
0
0
0
0
0
0
0
0
0
0
0
0
0
0
0
0
0
0
0
0
0
0
0
0
0
0
0
0
0
0
0
0
0
0
0
0
0
0
0
0
0
0
0
0
0
0
0
0
0
0
0
0
0
0
0
0
0
0
0
0
0
0
0
0
0
0
0
0
0
0
0
0
0
0
0
0
0
0
0
0
0
0
0
0
0
0
0
0
0
0
0
0
0
0
0
0
0
0
0
0
0
0
0
0
0
0
0
0
0
0
0
0
0
0
0
0
0
0
0
0
0
0
0
0
0
0
0
0
0
0
0
0
0
0
0
0
0
0
0
0
0
0
0
0
0
0
0
0
0
0
0
0
0
0
0
0
0
0
0
0
0
0
0
0
0
0
0
0
0
0
0
0
0
0
0
0
0
-8.013702424e-08
-1.491192674e-07
-9.996475883e-08
2.045564064e-07
3.38381818e-07
3.538803525e-07
3.96527894e-07
3.809822902e-07
5.220108656e-07
8.926156369e-07
1.044592569e-06
9.766632589e-07
1.018701395e-06
1.257764041e-06
1.614549294e-06
1.969835677e-06
2.430840946e-06
2.863891875e-06
3.420649577e-06
3.942503174e-06
4.414635227e-06
5.088605767e-06
5.868923307e-06
6.768075205e-06
7.571148291e-06
8.336514624e-06
9.134199132e-06
1.013236826e-05
1.101024755e-05
1.18631621e-05
1.289770816e-05
1.393223245e-05
1.507734133e-05
1.638654838e-05
1.779780918e-05
1.904775472e-05
2.026336942e-05
2.146566577e-05
2.27716248e-05
2.408386631e-05
2.557119471e-05
2.731139101e-05
2.890344775e-05
3.040721224e-05
3.224593986e-05
3.438536498e-05
3.627888693e-05
3.816254987e-05
4.043602087e-05
4.313788327e-05
4.562954015e-05
4.791839192e-05
5.000614241e-05
5.182713555e-05
5.349302826e-05
5.511967254e-05
5.694631928e-05
5.905643264e-05
6.127646405e-05
6.337636543e-05
6.54285666e-05
6.746402318e-05
6.948901245e-05
7.134555065e-05
7.335313526e-05
7.571621482e-05
7.864826984e-05
8.16409165e-05
8.455286426e-05
8.693290485e-05
8.93336501e-05
9.201148281e-05
9.51844346e-05
9.779904628e-05
0.0001002062676
0.0001023963066
0.000104718356
0.0001071669549
0.0001098806629
0.0001125698052
0.0001152329522
0.0001176873859
0.0001201486503
0.0001229220875
0.0001257299603
0.000128561683
0.000131428981
0.0001341507104
0.0001370229296
0.000140058387
0.0001431081329
0.0001464238063
0.0001501577871
0.0001537177255
0.0001573046821
0.0001612966949
0.0001656384999
0.0001699710985
0.0001744028324
0.0001787725831
0.0001829181677
0.0001869210028
0.0001911228347
0.0001960479052
0.0002014258603
0.0002064757555
0.0002121425879
0.0002184652003
0.0002238729701
0.0002284028669
0.0002325980095
0.0002367979559
0.0002413368088
0.00024600823
0.0002505233397
0.0002552857254
0.000260330964
0.0002656252641
0.0002706838742
0.000275468487
0.0002801740683
0.0002850186358
0.000290100212
0.0002949039243
0.0002994655936
0.0003039029243
0.0003081309653
0.000312545115
0.0003168567396
0.0003210511485
0.0003258505664
150.582036
294.3108058
297.3421034
300.3756627
419.7465825
538.7255768
643.0073674
760.8430013
905.0179897
1037.577479
1168.300689
1290.042105
1396.549231
1512.107035
1637.575973
1758.997846
1859.542731
1952.0385
2048.432509
2150.868496
2264.941132
2375.468228
2481.240572
2591.106488
2723.072232
2854.967846
2976.374635
3091.026911
3206.322551
3325.770393
3455.086989
3595.573799
3752.275579
3909.067893
4076.691956
4256.809059
4415.256935
4547.209426
4675.062817
4803.722326
4921.751165
5044.891438
5180.586124
5326.639207
5475.074384
5610.767887
5741.081071
5872.866808
5995.335829
6111.591332
6225.305924
6348.448187
6501.790435
6658.45855
6812.522307
6958.948134
7103.133614
7247.851929
7389.724364
7536.823189
7674.897947
7796.702302
7919.424519
8056.358879
8196.750488
8344.584693
8487.488031
8620.46226
8746.624999
8884.946797
9032.677335
9184.070332
9354.350213
9518.905417
9671.207315
9806.313998
9940.75703
10089.89833
10244.579
10391.05438
10527.0252
10655.9937
10774.93122
10892.72118
11013.27279
11136.43758
11250.5228
11367.59193
11494.41002
11630.8464
11771.65597
11900.57954
12026.48955
12154.18933
12284.18583
12419.25751
12565.91103
12714.82387
12847.80786
12963.27244
13080.29707
13216.91106
13365.10483
13513.29028
13648.9716
13772.0401
13888.04873
14012.15426
14154.25321
14300.57065
14445.91473
14582.00452
14716.10748
14854.68215
14988.74565
15115.53381
15252.59685
15412.74291
15601.43724
15776.56642
15927.65559
16087.63653
16254.05807
16411.64948
16573.01898
16726.69999
16869.77923
17025.70752
17189.27955
17346.43125
17500.83254
17644.02006
17774.02555
17903.15191
18034.77596
18178.07232
18330.37314
18471.27945
18596.15154
18726.41951
18862.53115
19002.94307
19155.55825
19310.12701
19464.0947
19612.55193
19769.57621
19930.71822
20080.84438
20218.0444
20344.75467
20470.14001
20603.32582
20739.86286
20877.47549
21017.31462
21147.53368
21279.18028
21410.95757
21553.03426
21714.35877
21873.10554
22047.70935
22231.71189
22400.46092
22561.05763
22730.27648
22888.08651
23045.83372
23207.90741
23360.63935
23517.13936
23677.66734
23828.95458
23969.51926
24101.77053
24230.94206
24365.58952
24487.07582
24607.97971
24738.46565
24872.6234
25017.15413
25166.55511
25306.00673
25430.35286
25546.21977
25666.27857
25783.82289
25902.00887
26026.65473
26153.10218
26291.38848
26446.89615
26612.83403
26754.99471
26886.58242
27030.69742
27172.36383
27321.43128
27477.42386
27615.35661
27754.06457
27906.96121
28051.82428
28195.12262
28346.81032
28507.611
28658.27756
28799.44001
28929.7202
29048.69224
29162.68195
29285.15366
29428.60851
29576.71958
29712.58574
29843.80799
29990.36503
30134.98595
30268.88408
30415.77081
30559.47792
30687.87647
30823.14883
30951.75036
31070.46066
31198.2947
31320.47451
31441.23751
31577.05096
31713.16151
31840.4517
31964.95158
32092.10165
32221.20646
32335.6572
32454.17831
32577.05418
32704.01443
32842.9157
32979.90219
33118.53013
33248.29533
33369.38932
33491.44527
33632.18604
33783.91571
33929.16374
34065.40211
34188.99749
34308.86659
34441.41817
34581.43594
34729.31842
34883.31171
35042.42142
35210.70072
35366.77115
35512.734
35654.07783
35794.80336
35946.94242
36112.97778
36271.86116
36433.78213
36619.34425
36806.37621
36959.05111
37085.6145
37200.20018
37316.83719
37419.64093
37524.33415
37636.88383
37764.45419
37921.26509
38062.00855
38193.01567
38323.50814
38446.48449
38577.56946
38717.06083
38842.83203
38958.4627
39073.95785
39187.47545
39305.17729
39412.62786
39514.71219
39629.50929
39752.87044
39879.27462
40009.54508
40125.7116
40234.60671
40359.64587
40501.93336
40643.97304
40766.44267
40884.09445
41007.91723
41128.66697
41243.81478
41360.85769
41482.89656
41626.99775
41774.05786
41915.03668
42055.76904
42181.19859
42304.11124
42423.03459
42536.53503
42653.02924
42773.82972
42915.65205
43085.19103
43256.46191
43402.18247
43519.71445
43630.14547
43737.63069
43852.44177
43981.85069
44115.24912
44245.79723
44371.38847
44487.60456
44608.38282
44741.6264
44887.10433
45044.9495
45180.36849
45293.41423
45406.33853
45529.79681
45661.65222
45807.64223
45941.27616
46062.68657
46186.29843
46314.3615
46433.75939
46556.79816
46691.22359
46821.1411
46944.10128
47083.9343
47244.08736
47414.24482
47581.51056
47754.64886
47920.65038
48055.1466
48191.04084
48333.51141
48464.87007
48582.02194
48695.83801
48820.19762
48949.62393
49061.21822
49166.66139
49280.43543
49402.61478
49534.96464
49668.16521
49803.13578
49942.14673
50099.81392
50259.94711
50413.67633
50564.89724
50724.89206
50878.05066
51014.33594
51149.48649
51292.1621
51435.91486
51568.53351
51703.89671
51843.23643
51991.51059
52139.57667
52290.49979
52441.13896
52589.01005
52723.22209
52847.93249
52961.71646
53092.43724
53268.33331
53452.65578
53626.95265
53782.14868
53928.48585
54071.23646
54212.3257
54364.99794
54529.67009
54672.75913
54800.48604
54933.25119
55068.9997
55208.24328
55336.71686
55457.99572
55561.53144
55662.65195
55766.30714
55875.75562
56000.82676
56124.22801
56230.34229
56329.13876
56431.4736
56530.65479
56632.0455
56731.30433
56842.87485
56966.4699
57105.1579
57258.3626
57423.4497
57581.90602
57732.63689
57885.44995
58034.1582
58173.87388
58297.59179
58419.01776
58523.48222
58632.16426
58775.66113
58912.7761
59036.31096
59178.00274
59335.25178
59479.57967
59631.84929
59784.7836
59932.1967
60070.68463
60194.38001
60311.18879
60426.88504
60545.4114
60673.57683
60808.26115
60948.44803
61086.30154
61213.26249
61344.31773
61481.21636
61621.93065
61755.9641
61883.66162
62009.41209
62140.53497
62284.00951
62421.92815
62550.4818
62672.60896
62792.19885
62914.80207
63029.73065
63137.59211
63248.32234
63363.51594
63492.29167
63634.12789
63777.13317
63908.89725
64028.1555
64145.75504
64257.52925
64366.5878
64486.02629
64620.05742
64773.31292
64919.53048
65058.03535
65196.68664
65324.8359
65452.90136
65575.92789
65696.44535
65822.87673
65951.78466
66073.45652
66190.21782
66313.54545
66449.55629
66585.91741
66712.49055
66826.61237
66943.51862
67070.75976
67212.8022
67378.57942
67527.02284
67658.79543
67786.83506
67916.80887
68054.41402
68195.07007
68328.46283
68439.07901
68545.98751
68659.23539
68783.00351
68919.72842
69055.64244
69187.73315
69311.32533
69433.70777
69562.145
69704.71082
69852.64873
69995.37339
70129.80491
70261.4384
70385.38635
70506.48604
70629.18174
70748.54562
70876.98444
71016.72629
71159.74552
71290.218
71408.17274
71521.53166
71644.13753
71761.45141
71880.19692
72010.05812
72137.40255
72272.40225
72413.99265
72566.50462
72721.68278
72865.47145
73003.96779
73135.84162
73265.61562
73401.086
73533.99833
73666.34514
73798.89612
73938.17401
74084.771
74215.10081
74334.91858
74430.16159
74524.31263
74630.30733
74734.62163
74854.38273
74988.3989
75131.77484
75274.96732
75415.26461
75564.80336
75722.74195
75874.21507
76021.60177
76159.84088
76300.63719
76455.89961
76639.03101
76799.82248
76948.97589
77107.19841
77266.39921
77416.17829
77548.25247
77676.56279
77792.50414
77904.07265
78024.59868
78151.83614
78280.85035
78413.42396
78543.15418
78678.30623
78810.47594
78939.27644
79046.72469
79147.63156
79264.23639
79381.96122
79494.42474
79622.31762
79748.43195
79864.30898
79992.53214
80119.85419
80264.53941
80419.25193
80584.38462
80751.69922
80915.05315
81074.00067
81214.32812
81343.07298
81460.66946
81575.59857
81696.84737
81825.50815
81966.64001
82118.04201
82268.09947
82410.07169
82543.44101
82676.68749
82814.57199
82953.55435
83089.62602
83236.34602
83394.07865
83543.92296
83690.62502
83830.66953
83959.37496
84089.87654
84225.90707
84361.05185
84480.73309
84598.9573
84715.29339
84828.83515
84952.90481
85071.81904
85184.80382
85304.06243
85419.43914
85543.40207
85680.07854
85817.09057
85961.01242
86116.72959
86283.67552
86447.56624
86589.64174
86706.65629
86821.88882
86944.58325
87062.25608
87191.67604
87320.35033
87434.09959
87542.8262
87648.00599
87753.868
87859.84812
87971.84646
88098.83495
88232.81284
88366.2725
88514.01225
88657.63107
88769.97906
88877.68572
88985.94189
89094.60153
89213.85904
89348.11424
89490.88801
89616.47101
89743.07334
89866.64498
89992.74412
90136.61866
90294.79797
90454.50225
90608.44028
90767.02052
90903.79665
91022.66608
91141.36492
91259.83
91384.65044
91520.60824
91665.69891
91799.40723
91928.17534
92065.40839
92235.2925
92419.44249
92587.43721
92729.71458
92859.6469
92989.36867
93107.64264
93230.93324
93357.1869
93480.173
93602.09378
93734.20935
93873.50683
94015.01189
94157.33821
94297.07066
94439.29368
94581.94063
94706.08632
94831.7339
94956.87289
95072.11872
95199.25085
95320.76186
95432.12575
95547.55451
95659.05924
95768.26585
95894.09338
96044.11519
96207.44999
96360.78091
96527.25385
96706.31747
96855.56443
96990.08189
97123.44675
97262.18102
97402.37119
97528.97084
97652.00103
97779.68457
97931.78669
98091.51037
98244.11082
98381.54747
98519.31096
98659.82686
98788.64118
98916.38672
99030.82627
99140.74515
99253.45957
99378.49324
99509.38307
99640.99572
99759.79045
99873.23299
99984.23794
100095.2015
100216.4607
100345.9025
100483.9663
100631.5319
100783.7188
100915.5384
101036.61
101169.5117
101311.3387
101436.2049
101555.5023
101689.8098
101831.9763
101958.8902
102084.6855
102232.0986
102369.1013
102498.7312
102619.6893
102734.4486
102857.6669
102989.3391
103116.5946
103239.5162
103366.1123
103495.8043
103641.546
103784.381
103905.6595
104020.6828
104130.4409
104238.5717
104349.8814
104466.5773
104596.101
104724.9927
104840.3672
104951.8447
105063.074
105181.1805
105309.7088
105436.3386
105556.0106
105676.5146
105803.1239
105942.8307
106098.9393
106264.6101
106421.2761
106555.3907
106681.2922
106799.5933
106922.2398
107051.5353
107190.5236
107338.938
107479.2589
107598.3483
107702.1515
107810.1693
107918.2681
108022.871
108130.5065
108239.8927
108363.4374
108488.4754
108604.7139
108727.0253
108869.6389
109015.7645
109157.867
109296.8976
109427.0049
109553.8634
109679.5615
109804.0937
109931.2843
110057.1633