/*--------------------------------*- C++ -*----------------------------------*\
| =========                 |                                                 |
| \\      /  F ield         | OpenFOAM: The Open Source CFD Toolbox           |
|  \\    /   O peration     | Version:  v2012                                 |
|   \\  /    A nd           | Website:  www.openfoam.com                      |
|    \\/     M anipulation  |                                                 |
\*---------------------------------------------------------------------------*/
FoamFile
{
    version     2.0;
    format      ascii;
    class       volScalarField;
    location    "0.0001";
    object      p;
}
// * * * * * * * * * * * * * * * * * * * * * * * * * * * * * * * * * * * * * //

dimensions      [1 -1 -2 0 0 0 0];


internalField   nonuniform List<scalar> 
5000
(
10000000
10000000
10000000
10000000
10000000
10000000
10000000
10000000
10000000
10000000
10000000
10000000
10000000
10000000
10000000
10000000
10000000
10000000
10000000
10000000
10000000
10000000
10000000
10000000
10000000
10000000
10000000
10000000
10000000
10000000
10000000
10000000
10000000
10000000
10000000
10000000
10000000
10000000
10000000
10000000
10000000
10000000
10000000
10000000
10000000
10000000
10000000
10000000
10000000
10000000
10000000
10000000
10000000
10000000
10000000
10000000
10000000
10000000
10000000
10000000
10000000
10000000
10000000
10000000
10000000
10000000
10000000
10000000
10000000
10000000
10000000
10000000
10000000
10000000
10000000
10000000
10000000
10000000
10000000
10000000
10000000
10000000
10000000
10000000
10000000
10000000
10000000
10000000
10000000
10000000
10000000
10000000
10000000
10000000
10000000
10000000
10000000
10000000
10000000
10000000
10000000
10000000
10000000
10000000
10000000
10000000
10000000
10000000
10000000
10000000
10000000
10000000
10000000
10000000
10000000
10000000
10000000
10000000
10000000
10000000
10000000
10000000
10000000
10000000
10000000
10000000
10000000
10000000
10000000
10000000
10000000
10000000
10000000
10000000
10000000
10000000
10000000
10000000
10000000
10000000
10000000
10000000
10000000
10000000
10000000
10000000
10000000
10000000
10000000
10000000
10000000
10000000
10000000
10000000
10000000
10000000
10000000
10000000
10000000
10000000
10000000
10000000
10000000
10000000
10000000
10000000
10000000
10000000
10000000
10000000
10000000
10000000
10000000
10000000
10000000
10000000
10000000
10000000
10000000
10000000
10000000
10000000
10000000
10000000
10000000
10000000
10000000
10000000
10000000
10000000
10000000
10000000
10000000
10000000
10000000
10000000
10000000
10000000
10000000
10000000
10000000
10000000
10000000
10000000
10000000
10000000
10000000
10000000
10000000
10000000
10000000
10000000
10000000
10000000
10000000
10000000
10000000
10000000
10000000
10000000
10000000
10000000
10000000
10000000
10000000
10000000
10000000
10000000
10000000
10000000
10000000
10000000
10000000
10000000
10000000
10000000
10000000
10000000
10000000
10000000
10000000
10000000
10000000
10000000
10000000
10000000
10000000
10000000
10000000
10000000
10000000
10000000
10000000
10000000
10000000
10000000
10000000
10000000
10000000
10000000
10000000
10000000
10000000
10000000
10000000
10000000
10000000
10000000
10000000
10000000
10000000
10000000
10000000
10000000
10000000
10000000
10000000
10000000
10000000
10000000
10000000
10000000
10000000
10000000
10000000
10000000
10000000
10000000
10000000
10000000
10000000
10000000
10000000
10000000
10000000
10000000
10000000
10000000
10000000
10000000
10000000
10000000
10000000
10000000
10000000
10000000
10000000
10000000
10000000
10000000
10000000
10000000
10000000
10000000
10000000
10000000
10000000
10000000
10000000
10000000
10000000
10000000
10000000
10000000
10000000
10000000
10000000
10000000
10000000
10000000
10000000
10000000
10000000
10000000
10000000
10000000
10000000
10000000
10000000
10000000
10000000
10000000
10000000
10000000
10000000
10000000
10000000
10000000
10000000
10000000
10000000
10000000
10000000
10000000
10000000
10000000
10000000
10000000
10000000
10000000
10000000
10000000
10000000
10000000
10000000
10000000
10000000
10000000
10000000
10000000
10000000
10000000
10000000
10000000
10000000
10000000
10000000
10000000
10000000
10000000
10000000
10000000
10000000
10000000
10000000
10000000
10000000
10000000
10000000
10000000
10000000
10000000
10000000
10000000
10000000
10000000
10000000
10000000
10000000
10000000
10000000
10000000
10000000
10000000
10000000
10000000
10000000
10000000
10000000
10000000
10000000
10000000
10000000
10000000
10000000
10000000
10000000
10000000
10000000
10000000
10000000
10000000
10000000
10000000
10000000
10000000
10000000
10000000
10000000
10000000
10000000
10000000
10000000
10000000
10000000
10000000
10000000
10000000
10000000
10000000
10000000
10000000
10000000
10000000
10000000
10000000
10000000
10000000
10000000
10000000
10000000
10000000
10000000
10000000
10000000
10000000
10000000
10000000
10000000
10000000
10000000
10000000
10000000
10000000
10000000
10000000
10000000
10000000
10000000
10000000
10000000
10000000
10000000
10000000
10000000
10000000
10000000
10000000
10000000
10000000
10000000
10000000
10000000
10000000
10000000
10000000
10000000
10000000
10000000
10000000
10000000
10000000
10000000
10000000
10000000
10000000
10000000
10000000
10000000
10000000
10000000
10000000
10000000
10000000
10000000
10000000
10000000
10000000
10000000
10000000
10000000
10000000
10000000
10000000
10000000
10000000
10000000
10000000
10000000
10000000
10000000
10000000
10000000
10000000
10000000
10000000
10000000
10000000
10000000
10000000
10000000
10000000
10000000
10000000
10000000
10000000
10000000
10000000
10000000
10000000
10000000
10000000
10000000
10000000
10000000
10000000
10000000
10000000
10000000
10000000
10000000
10000000
10000000
10000000
10000000
10000000
10000000
10000000
10000000
10000000
10000000
10000000
10000000
10000000
10000000
10000000
10000000
10000000
10000000
10000000
10000000
10000000
10000000
10000000
10000000
10000000
10000000
10000000
10000000
10000000
10000000
10000000
10000000
10000000
10000000
10000000
10000000
10000000
10000000
10000000
10000000
10000000
10000000
10000000
10000000
10000000
10000000
10000000
10000000
10000000
10000000
10000000
10000000
10000000
10000000
10000000
10000000
10000000
10000000
10000000
10000000
10000000
10000000
10000000
10000000
10000000
10000000
10000000
10000000
10000000
10000000
10000000
10000000
10000000
10000000
10000000
10000000
10000000
10000000
10000000
10000000
10000000
10000000
10000000
10000000
10000000
10000000
10000000
10000000
10000000
10000000
10000000
10000000
10000000
10000000
10000000
10000000
10000000
10000000
10000000
10000000
10000000
10000000
10000000
10000000
10000000
10000000
10000000
10000000
10000000
10000000
10000000
10000000
10000000
10000000
10000000
10000000
10000000
10000000
10000000
10000000
10000000
10000000
10000000
10000000
10000000
10000000
10000000
10000000
10000000
10000000
10000000
10000000
10000000
10000000
10000000
10000000
10000000
10000000
10000000
10000000
10000000
10000000
10000000
10000000
10000000
10000000
10000000
10000000
10000000
10000000
10000000
10000000
10000000
10000000
10000000
10000000
10000000
10000000
10000000
10000000
10000000
10000000
10000000
10000000
10000000
10000000
10000000
10000000
10000000
10000000
10000000
10000000
10000000
10000000
10000000
10000000
10000000
10000000
10000000
10000000
10000000
10000000
10000000
10000000
10000000
10000000
10000000
10000000
10000000
10000000
10000000
10000000
10000000
10000000
10000000
10000000
10000000
10000000
10000000
10000000
10000000
10000000
10000000
10000000
10000000
10000000
10000000
10000000
10000000
10000000
10000000
10000000
10000000
10000000
10000000
10000000
10000000
10000000
10000000
10000000
10000000
10000000
10000000
10000000
10000000
10000000
10000000
10000000
10000000
10000000
10000000
10000000
10000000
10000000
10000000
10000000
10000000
10000000
10000000
10000000
10000000
10000000
10000000
10000000
10000000
10000000
10000000
10000000
10000000
10000000
10000000
10000000
10000000
10000000
10000000
10000000
10000000
10000000
10000000
10000000
10000000
10000000
10000000
10000000
10000000
10000000
10000000
10000000
10000000
10000000
10000000
10000000
10000000
10000000
10000000
10000000
10000000
10000000
10000000
10000000
10000000
10000000
10000000
10000000
10000000
10000000
10000000
10000000
10000000
10000000
10000000
10000000
10000000
10000000
10000000
10000000
10000000
10000000
10000000
10000000
10000000
10000000
10000000
10000000
10000000
10000000
10000000
10000000
10000000
10000000
10000000
10000000
10000000
10000000
10000000
10000000
10000000
10000000
10000000
10000000
10000000
10000000
10000000
10000000
10000000
10000000
10000000
10000000
10000000
10000000
10000000
10000000
10000000
10000000
10000000
10000000
10000000
10000000
10000000
10000000
10000000
10000000
10000000
10000000
10000000
10000000
10000000
10000000
10000000
10000000
10000000
10000000
10000000
10000000
10000000
10000000
10000000
10000000
10000000
10000000
10000000
10000000
10000000
10000000
10000000
10000000
10000000
10000000
10000000
10000000
10000000
10000000
10000000
10000000
10000000
10000000
10000000
10000000
10000000
10000000
10000000
10000000
10000000
10000000
10000000
10000000
10000000
10000000
10000000
10000000
10000000
10000000
10000000
10000000
10000000
10000000
10000000
10000000
10000000
10000000
10000000
10000000
10000000
10000000
10000000
10000000
10000000
10000000
10000000
10000000
10000000
10000000
10000000
10000000
10000000
10000000
10000000
10000000
10000000
10000000
10000000
10000000
10000000
10000000
10000000
10000000
10000000
10000000
10000000
10000000
10000000
10000000
10000000
10000000
10000000
10000000
10000000
10000000
10000000
10000000
10000000
10000000
10000000
10000000
10000000
10000000
10000000
10000000
10000000
10000000
10000000
10000000
10000000
10000000
10000000
10000000
10000000
10000000
10000000
10000000
10000000
10000000
10000000
10000000
10000000
10000000
10000000
10000000
10000000
10000000
10000000
10000000
10000000
10000000
10000000
10000000
10000000
10000000
10000000
10000000
10000000
10000000
10000000
10000000
10000000
10000000
10000000
10000000
10000000
10000000
10000000
10000000
10000000
10000000
10000000
10000000
10000000
10000000
10000000
10000000
10000000
10000000
10000000
10000000
10000000
10000000
10000000
10000000
10000000
10000000
10000000
10000000
10000000
10000000
10000000
10000000
10000000
10000000
10000000
10000000
10000000
10000000
10000000
10000000
10000000
10000000
10000000
10000000
10000000
10000000
10000000
10000000
10000000
10000000
10000000
10000000
10000000
10000000
10000000
10000000
10000000
10000000
10000000
10000000
10000000
10000000
10000000
10000000
10000000
10000000
10000000
10000000
10000000
10000000
10000000
10000000
10000000
10000000
10000000
10000000
10000000
10000000
10000000
10000000
10000000
10000000
10000000
10000000
10000000
10000000
10000000
10000000
10000000
10000000
10000000
10000000
10000000
10000000
10000000
10000000
10000000
10000000
10000000
10000000
10000000
10000000
10000000
10000000
10000000
10000000
10000000
10000000
10000000
10000000
10000000
10000000
10000000
10000000
10000000
10000000
10000000
10000000
10000000
10000000
10000000
10000000
10000000
10000000
10000000
10000000
10000000
10000000
10000000
10000000
10000000
10000000
10000000
10000000
10000000
10000000
10000000
10000000
10000000
10000000
10000000
10000000
10000000
10000000
10000000
10000000
10000000
10000000
10000000
10000000
10000000
10000000
10000000
10000000
10000000
10000000
10000000
10000000
10000000
10000000
10000000
10000000
10000000
10000000
10000000
10000000
10000000
10000000
10000000
10000000
10000000
10000000
10000000
10000000
10000000
10000000
10000000
10000000
10000000
10000000
10000000
10000000
10000000
10000000
10000000
10000000
10000000
10000000
10000000
10000000
10000000
10000000
10000000
10000000
10000000
10000000
10000000
10000000
10000000
10000000
10000000
10000000
10000000
10000000
10000000
10000000
10000000
10000000
10000000
10000000
10000000
10000000
10000000
10000000
10000000
10000000
10000000
10000000
10000000
10000000
10000000
10000000
10000000
10000000
10000000
10000000
10000000
10000000
10000000
10000000
10000000
10000000
10000000
10000000
10000000
10000000
10000000
10000000
10000000
10000000
10000000
10000000
10000000
10000000
10000000
10000000
10000000
10000000
10000000
10000000
10000000
10000000
10000000
10000000
10000000
10000000
10000000
10000000
10000000
10000000
10000000
10000000
10000000
10000000
10000000
10000000
10000000
10000000
10000000
10000000
10000000
10000000
10000000
10000000
10000000
10000000
10000000
10000000
10000000
10000000
10000000
10000000
10000000
10000000
10000000
10000000
10000000
10000000
10000000
10000000
10000000
10000000
10000000
10000000
10000000
10000000
10000000
10000000
10000000
10000000
10000000
10000000
10000000
10000000
10000000
10000000
10000000
10000000
10000000
10000000
10000000
10000000
10000000
10000000
10000000
10000000
10000000
10000000
10000000
10000000
10000000
10000000
10000000
10000000
10000000
10000000
10000000
10000000
10000000
10000000
10000000
10000000
10000000
10000000
10000000
10000000
10000000
10000000
10000000
10000000
10000000
10000000
10000000
10000000
10000000
10000000
10000000
10000000
10000000
10000000
10000000
10000000
10000000
10000000
10000000
10000000
10000000
10000000
10000000
10000000
10000000
10000000
10000000
10000000
10000000
10000000
10000000
10000000
10000000
10000000
10000000
10000000
10000000
10000000
10000000
10000000
10000000
10000000
10000000
10000000
10000000
10000000
10000000
10000000
10000000
10000000
10000000
10000000
10000000
10000000
10000000
10000000
10000000
10000000
10000000
10000000
10000000
10000000
10000000
10000000
10000000
10000000
10000000
10000000
10000000
10000000
10000000
10000000
10000000
10000000
10000000
10000000
10000000
10000000
10000000
10000000
10000000
10000000
10000000
10000000
10000000
10000000
10000000
10000000
10000000
10000000
10000000
10000000
10000000
10000000
10000000
10000000
10000000
10000000
10000000
10000000
10000000
10000000
10000000
10000000
10000000
10000000
10000000
10000000
10000000
10000000
10000000
10000000
10000000
10000000
10000000
10000000
10000000
10000000
10000000
10000000
10000000
10000000
10000000
10000000
10000000
10000000
10000000
10000000
10000000
10000000
10000000
10000000
10000000
10000000
10000000
10000000
10000000
10000000
10000000
10000000
10000000
10000000
10000000
10000000
10000000
10000000
10000000
10000000
10000000
10000000
10000000
10000000
10000000
10000000
10000000
10000000
10000000
10000000
10000000
10000000
10000000
10000000
10000000
10000000
10000000
10000000
10000000
10000000
10000000
10000000
10000000
10000000
10000000
10000000
10000000
10000000
10000000
10000000
10000000
10000000
10000000
10000000
10000000
10000000
10000000
10000000
10000000
10000000
10000000
10000000
10000000
10000000
10000000
10000000
10000000
10000000
10000000
10000000
10000000
10000000
10000000
10000000
10000000
10000000
10000000
10000000
10000000
10000000
10000000
10000000
10000000
10000000
10000000
10000000
10000000
10000000
10000000
10000000
10000000
10000000
10000000
10000000
10000000
10000000
10000000
10000000
10000000
10000000
10000000
10000000
10000000
10000000
10000000
10000000
10000000
10000000
10000000
10000000
10000000
10000000
10000000
10000000
10000000
10000000
10000000
10000000
10000000
10000000
10000000
10000000
10000000
10000000
10000000
10000000
9999999.999
9999999.999
9999999.999
9999999.999
9999999.999
9999999.998
9999999.998
9999999.997
9999999.997
9999999.996
9999999.995
9999999.994
9999999.992
9999999.991
9999999.989
9999999.986
9999999.983
9999999.979
9999999.974
9999999.968
9999999.961
9999999.953
9999999.942
9999999.929
9999999.914
9999999.895
9999999.872
9999999.845
9999999.811
9999999.771
9999999.722
9999999.664
9999999.593
9999999.51
9999999.408
9999999.288
9999999.141
9999998.969
9999998.759
9999998.517
9999998.219
9999997.874
9999997.449
9999996.961
9999996.371
9999995.685
9999994.859
9999993.899
9999992.724
9999991.408
9999989.78
9999987.968
9999985.752
9999983.13
9999980.122
9999976.56
9999972.47
9999967.934
9999961.682
9999955.812
9999947.24
9999939.152
9999928.632
9999916.85
9999903.015
9999886.782
9999868.404
9999847.037
9999822.69
9999794.185
9999761.847
9999723.511
9999681.695
9999631.652
9999576.787
9999511.549
9999437.048
9999353.65
9999258.465
9999149.76
9999034.171
9998878.416
9998737.684
9998534.459
9998351.153
9998116.081
9997857.877
9997583.108
9997215.35
9996883.903
9996436.646
9996003.895
9995470.282
9994895.479
9994242.986
9993514.352
9992713.512
9991808.06
9990818.168
9989692.607
9988473.371
9987098.336
9985610.207
9983930.672
9982100.861
9980046.599
9977836.326
9975370.406
9972722.262
9969721.525
9966500.674
9962913.491
9959081.728
9954894.794
9950345.45
9945259.115
9939843.491
9933841.91
9927635.754
9920722.916
9913232.228
9905015.651
9896312.684
9887003.076
9877429.99
9865786.398
9855081.141
9841462.932
9829251.86
9814467.826
9799876.435
9783343.275
9766136.1
9747844.088
9728255.766
9708082.108
9686009.962
9662883.41
9638339.464
9612554.11
9585719.936
9558605.498
9526524.011
9497631.184
9461471.858
9429239.937
9393868.826
9354238.36
9317602.392
9275439.866
9234537.118
9189548.541
9145268.993
9097400.205
9049123.282
8999071.095
8947147.115
8894527.44
8838652.854
8783641.339
8725432.987
8669183.679
8604198.026
8546809.757
8481780.679
8420047
8353280.064
8287840.042
8219889.403
8151469.55
8083468.908
8011740.671
7943796.908
7869460.048
7804150.895
7731905.618
7665005.093
7592585.181
7524858.675
7454175.358
7386996.887
7318964.394
7253333.457
7188087.966
7124287.629
7060922.75
6998675.997
6936930.299
6876427.858
6816603.82
6758271.312
6700871.006
6645315.495
6590953.887
6538722.756
6487741.558
6438918.009
6391180.243
6345434.608
6300586.809
6257565.757
6215377.626
6174956.411
6135440.329
6097740.734
6061093.809
6026369.512
5992836.27
5961317.392
5931053.784
5902824.684
5875809.706
5850747.446
5826757.877
5804543.782
5783206.866
5763419.741
5744331.763
5726584.666
5709431.795
5693472.494
5678083.117
5663803.717
5650115.422
5637486.95
5625470.847
5614463.724
5604062.976
5594602.739
5585712.991
5577679.558
5570162.092
5563410.551
5557112.772
5551490.552
5546256.509
5541607.985
5537279.243
5533445.204
5529862.652
5526685.779
5523699.963
5521039.614
5518527.135
5516276.816
5514153.37
5512250.159
5510471.509
5508890.09
5507438.684
5506170.985
5505033.631
5504063.671
5503210.899
5502498.102
5501875.887
5501356.525
5500893.045
5500494.158
5500116.113
5499774.296
5499428.272
5499099.985
5498772.808
5498446.468
5498134.542
5497814.212
5497512.666
5497228.707
5496977.994
5496752.505
5496560.513
5496404.316
5496287.115
5496207.973
5496165.968
5496156.56
5496174.205
5496217.282
5496279.833
5496357.6
5496444.874
5496537.193
5496632.895
5496731.068
5496818.665
5496889.595
5496940.573
5496975.556
5496990.724
5496985.261
5496959.251
5496908.792
5496838.226
5496749.22
5496644.68
5496526.958
5496400.976
5496268.297
5496139.089
5496010.958
5495890.935
5495798.412
5495741.95
5495714.546
5495706.983
5495722.329
5495766.439
5495840.902
5495939.977
5496061.402
5496199.852
5496347.27
5496502.615
5496649.223
5496793.719
5496912.847
5497005.558
5497069.471
5497097.974
5497102.161
5497084.591
5497042.046
5496972.623
5496884.696
5496783.765
5496673.035
5496550.501
5496424.374
5496293.745
5496174.829
5496066.143
5495971.744
5495891.857
5495825.397
5495771.591
5495730.717
5495701.765
5495682.879
5495671.577
5495664.972
5495661.686
5495659.351
5495656.8
5495652.921
5495642.804
5495624.32
5495600.207
5495570.168
5495533.822
5495489.418
5495441.288
5495390.066
5495348.856
5495321.039
5495306.772
5495302.516
5495308.802
5495328.138
5495362.523
5495412.657
5495471.761
5495540.217
5495612.836
5495689.709
5495767.68
5495847.165
5495917.823
5495975.734
5496010.601
5496023.717
5496020.705
5495997.815
5495954.188
5495894.043
5495817.549
5495724.809
5495613.131
5495496.718
5495372.199
5495251.883
5495134.121
5495026.488
5494927.943
5494847.773
5494784.322
5494736.681
5494700.751
5494677.307
5494666.159
5494663.839
5494666.331
5494672.499
5494681.109
5494689.493
5494695.879
5494699.274
5494700.011
5494697.094
5494687.758
5494671.091
5494650.64
5494628.101
5494603.202
5494577.775
5494557.158
5494542.68
5494533.309
5494529.941
5494532.847
5494542.699
5494560.208
5494584.439
5494615.017
5494650.354
5494690.286
5494732.367
5494778.362
5494822.762
5494868.888
5494910.023
5494950.098
5494985.012
5495017.277
5495042.044
5495060.614
5495071.942
5495077.228
5495077.764
5495075.832
5495070.843
5495062.676
5495050.602
5495036.475
5495020.764
5495005.376
5494989.613
5494974.29
5494959.117
5494944.218
5494929.707
5494915.332
5494901.064
5494886.59
5494871.75
5494856.751
5494841.615
5494826.252
5494810.786
5494795.329
5494779.843
5494763.929
5494748.037
5494732.092
5494716.307
5494700.727
5494685.625
5494670.766
5494655.966
5494641.483
5494626.733
5494612.647
5494597.728
5494584.013
5494569.81
5494556.921
5494543.829
5494531.478
5494519.516
5494508.481
5494498.544
5494490.122
5494483.335
5494478.482
5494476.413
5494476.881
5494479.99
5494485.866
5494494.811
5494506.643
5494521.742
5494539.644
5494560.623
5494583.958
5494609.785
5494637.284
5494666.544
5494696.438
5494727.191
5494758.014
5494788.839
5494818.215
5494842.037
5494861.085
5494876.308
5494886.905
5494891.547
5494890.696
5494884.504
5494873.013
5494855.268
5494832.996
5494804.713
5494775.086
5494739.707
5494707.022
5494668.524
5494633.508
5494588.282
5494550.432
5494510.559
5494476.408
5494446.814
5494420.155
5494399.502
5494382.794
5494373.757
5494370.316
5494371.227
5494377.402
5494389.772
5494406.186
5494426.534
5494451.982
5494481.397
5494516.269
5494553.344
5494593.748
5494635.75
5494679.66
5494725.666
5494772.2
5494821.78
5494870.165
5494923.096
5494972.946
5495030.712
5495084.597
5495144.541
5495196.998
5495251.236
5495301.956
5495351.896
5495399.934
5495446.02
5495490.308
5495531.694
5495570.612
5495605.483
5495637.281
5495664.811
5495686.393
5495700.114
5495705.814
5495705.752
5495701.399
5495691.323
5495674.732
5495651.973
5495621.724
5495586.173
5495544.736
5495497.967
5495446.495
5495389.521
5495328.931
5495263.188
5495194.916
5495122.36
5495048.573
5494971.815
5494895.351
5494817.668
5494741.552
5494667.107
5494595.593
5494527.06
5494462.741
5494401.728
5494345.113
5494292.738
5494246.502
5494208.564
5494178.603
5494156.373
5494140.31
5494129.258
5494123.675
5494123.243
5494126.675
5494134.299
5494145.721
5494160.048
5494177.151
5494196.274
5494216.943
5494238.531
5494260.849
5494282.275
5494303.894
5494323.809
5494343.13
5494360.717
5494377.294
5494392.314
5494406.222
5494418.899
5494430.614
5494441.613
5494452.024
5494462.268
5494472.584
5494482.796
5494493.028
5494503.414
5494513.914
5494524.576
5494535.466
5494547.057
5494558.761
5494570.744
5494582.517
5494594.338
5494605.765
5494616.739
5494626.739
5494635.507
5494643.183
5494649.665
5494654.905
5494658.919
5494661.564
5494662.831
5494662.926
5494662.072
5494660.237
5494657.529
5494654.314
5494650.654
5494646.995
5494643.454
5494640.231
5494637.084
5494634.077
5494631.928
5494631.054
5494631.915
5494633.832
5494636.815
5494640.996
5494647.12
5494654.843
5494663.843
5494674.223
5494685.401
5494697.788
5494710.493
5494724.356
5494738.039
5494752.798
5494767.233
5494782.462
5494797.337
5494812.543
5494827.409
5494841.884
5494856.02
5494869.4
5494882.397
5494894.435
5494905.992
5494916.457
5494926.322
5494935.01
5494942.949
5494949.669
5494955.435
5494960.023
5494963.48
5494965.784
5494966.9
5494967.116
5494966.675
5494965.215
5494962.296
5494957.977
5494951.986
5494944.773
5494936.856
5494928.329
5494918.628
5494908.169
5494897.08
5494885.683
5494874.177
5494862.641
5494851.305
5494840.242
5494829.676
5494819.885
5494810.903
5494803.314
5494796.998
5494793.427
5494792.235
5494792.897
5494795.616
5494800.701
5494808.129
5494817.993
5494830.521
5494845.432
5494863.78
5494883.623
5494906.852
5494931.983
5494959.668
5494989.531
5495021.443
5495055.384
5495090.873
5495127.962
5495166.022
5495205.001
5495244.14
5495284.062
5495325.397
5495364.078
5495400.567
5495434.525
5495466.448
5495495.64
5495521.156
5495542.514
5495558.737
5495570.698
5495578.605
5495582.015
5495581.649
5495577.969
5495569.707
5495557.238
5495540.032
5495518.473
5495492.179
5495461.757
5495426.808
5495388.179
5495345.615
5495300.122
5495251.908
5495202.467
5495151.874
5495100.918
5495049.29
5494998.897
5494948.179
5494898.588
5494851.905
5494808.409
5494766.282
5494726.486
5494689.452
5494656.548
5494628.366
5494605.01
5494585.813
5494570.331
5494558.631
5494550.806
5494547.205
5494547.163
5494550.144
5494556.71
5494566.421
5494579.046
5494594.277
5494611.48
5494630.447
5494650.554
5494672.037
5494693.507
5494715.713
5494737.2
5494758.091
5494778.421
5494798.272
5494816.287
5494831.081
5494841.814
5494849.983
5494855.581
5494857.95
5494856.863
5494852.604
5494844.843
5494833.958
5494820.317
5494804.269
5494785.932
5494765.96
5494744.321
5494721.81
5494698.391
5494674.853
5494651.307
5494628.4
5494606.385
5494585.865
5494566.699
5494548.133
5494532
5494519.233
5494510.125
5494503.266
5494498.313
5494495.875
5494495.921
5494498.003
5494502.353
5494508.452
5494515.912
5494523.985
5494533.778
5494542.509
5494554.435
5494564.834
5494578.245
5494588.033
5494598.434
5494606.677
5494613.839
5494619.374
5494623.727
5494626.362
5494627.351
5494626.358
5494623.364
5494619.237
5494614.061
5494607.724
5494599.704
5494591.043
5494580.777
5494570.693
5494560.37
5494550.238
5494540.669
5494531.614
5494523.332
5494515.97
5494509.649
5494504.503
5494500.459
5494497.928
5494496.963
5494497.382
5494498.938
5494502.007
5494505.969
5494511.671
5494516.749
5494524.909
5494530.595
5494547.243
5494540.76
5494611.158
5494543.047
5494638.065
5494557.482
5494668.222
5494574.204
5494697.89
5494594.747
5494714.259
5494615.779
5494733.169
5494635.03
5494756.857
5494654.423
5494779.291
5494675.53
5494791.454
5494700.165
5494800.987
5494727.117
5494810.692
5494759.661
5494802.548
5494812.302
5494831.016
5494844.042
5494860.368
5494878.011
5494896.436
5494915.612
5494935.81
5494956.854
5494978.053
5494999.708
5495020.797
5495041.827
5495062.166
5495081.302
5495098.94
5495114.753
5495128.21
5495139.3
5495147.739
5495153.344
5495155.72
5495154.791
5495150.484
5495142.647
5495131.341
5495116.546
5495098.319
5495076.708
5495052.069
5495024.299
5494993.795
5494960.733
5494925.43
5494888.202
5494850.138
5494810.492
5494770.582
5494730.616
5494691.151
5494651.979
5494614.905
5494578.968
5494545.043
5494513.867
5494484.34
5494458.106
5494434.145
5494413.616
5494396.424
5494382.171
5494371.377
5494363.632
5494358.847
5494357.601
5494359.387
5494364.114
5494371.415
5494381.101
5494393.553
5494408.074
5494424.832
5494443.357
5494463.672
5494485.555
5494508.758
5494533.333
5494558.764
5494585.38
5494612.569
5494640.991
5494669.9
5494699.334
5494729.531
5494759.215
5494789.844
5494819.897
5494849.638
5494879.591
5494908.693
5494937.061
5494964.919
5494991.568
5495017.665
5495041.776
5495065.329
5495086.572
5495106.746
5495124.822
5495140.953
5495155.022
5495167.035
5495176.755
5495184.212
5495189.343
5495192.065
5495192.327
5495190.163
5495185.568
5495178.724
5495169.643
5495158.398
5495145.167
5495130.034
5495113.178
5495094.695
5495074.757
5495053.47
5495031.123
5495007.775
5494983.838
5494959.025
5494934.102
5494907.883
5494881.591
5494854.663
5494827.623
5494800.791
5494773.692
5494747.201
5494720.464
5494694.256
5494667.003
5494641.274
5494615.958
5494591.373
5494566.775
5494542.936
5494519.617
5494496.795
5494475.124
5494454.427
5494434.376
5494415.51
5494397.473
5494380.734
5494365.168
5494351.05
5494338.253
5494327.026
5494317.177
5494308.96
5494302.194
5494297.083
5494293.446
5494291.396
5494290.613
5494291.048
5494292.984
5494296.657
5494301.546
5494307.498
5494314.214
5494322.039
5494330.218
5494339.255
5494347.986
5494357.001
5494365.69
5494374.376
5494382.692
5494390.801
5494398.519
5494405.962
5494413.019
5494419.804
5494426.298
5494432.606
5494438.803
5494444.949
5494451.217
5494457.591
5494464.265
5494471.34
5494478.877
5494487.256
5494496.242
5494506.416
5494517.287
5494529.612
5494542.649
5494557.291
5494572.556
5494589.453
5494606.773
5494625.695
5494644.635
5494664.93
5494684.861
5494705.653
5494725.759
5494745.857
5494764.986
5494783.314
5494800.255
5494816.021
5494829.651
5494841.363
5494850.077
5494854.855
5494856.001
5494853.917
5494848.723
5494840.765
5494829.303
5494812.293
5494790.223
5494764.218
5494736.686
5494706.927
5494674.677
5494640.209
5494604.185
5494566.482
5494529.116
5494491.61
5494455.435
5494421.264
5494389.124
5494360.3
5494334.568
5494313.086
5494295.768
5494283.398
5494275.56
5494272.721
5494273.565
5494278.769
5494289.224
5494305.552
5494326.532
5494351.839
5494380.078
5494410.502
5494442.07
5494474.776
5494507.499
5494539.023
5494569.002
5494596.173
5494620.897
5494642.206
5494659.435
5494672.466
5494680.863
5494684.573
5494684.653
5494681.227
5494672.939
5494659.675
5494643.858
5494625.444
5494605.556
5494584.304
5494562.551
5494540.325
5494518.608
5494498.182
5494479.318
5494463.571
5494451.684
5494443.854
5494439.702
5494438.446
5494439.893
5494446.276
5494458.172
5494473.929
5494491.787
5494512.162
5494535.736
5494561.011
5494590.462
5494618.575
5494654.447
5494684.905
5494720.617
5494746.418
5494774.479
5494797.071
5494820.049
5494838.775
5494856.136
5494870.368
5494882.291
5494890.884
5494896.412
5494898.171
5494897.155
5494892.644
5494884.063
5494870.776
5494853.581
5494833.002
5494810.174
5494785.548
5494757.479
5494727.053
5494696.375
5494666.989
5494638.146
5494609.804
5494583.138
5494558.561
5494536.779
5494518.399
5494503.911
5494493.751
5494488.301
5494487.161
5494491.317
5494502.505
5494520.139
5494543.744
5494572.795
5494608.394
5494649.559
5494696.867
5494747.248
5494800.534
5494855.271
5494910.329
5494966.13
5495020.231
5495073.305
5495122.933
5495169.658
5495211.543
5495248.693
5495280.092