/*--------------------------------*- C++ -*----------------------------------*\
| =========                 |                                                 |
| \\      /  F ield         | OpenFOAM: The Open Source CFD Toolbox           |
|  \\    /   O peration     | Version:  v2012                                 |
|   \\  /    A nd           | Website:  www.openfoam.com                      |
|    \\/     M anipulation  |                                                 |
\*---------------------------------------------------------------------------*/
FoamFile
{
    version     2.0;
    format      ascii;
    class       volScalarField;
    location    "0.0001";
    object      rho1;
}
// * * * * * * * * * * * * * * * * * * * * * * * * * * * * * * * * * * * * * //

dimensions      [1 -3 0 0 0 0 0];


internalField   nonuniform List<scalar> 
5000
(
1005.11843
1005.11843
1005.11843
1005.11843
1005.11843
1005.11843
1005.11843
1005.11843
1005.11843
1005.11843
1005.11843
1005.11843
1005.11843
1005.11843
1005.11843
1005.11843
1005.11843
1005.11843
1005.11843
1005.11843
1005.11843
1005.11843
1005.11843
1005.11843
1005.11843
1005.11843
1005.11843
1005.11843
1005.11843
1005.11843
1005.11843
1005.11843
1005.11843
1005.11843
1005.11843
1005.11843
1005.11843
1005.11843
1005.11843
1005.11843
1005.11843
1005.11843
1005.11843
1005.11843
1005.11843
1005.11843
1005.11843
1005.11843
1005.11843
1005.11843
1005.11843
1005.11843
1005.11843
1005.11843
1005.11843
1005.11843
1005.11843
1005.11843
1005.11843
1005.11843
1005.11843
1005.11843
1005.11843
1005.11843
1005.11843
1005.11843
1005.11843
1005.11843
1005.11843
1005.11843
1005.11843
1005.11843
1005.11843
1005.11843
1005.11843
1005.11843
1005.11843
1005.11843
1005.11843
1005.11843
1005.11843
1005.11843
1005.11843
1005.11843
1005.11843
1005.11843
1005.11843
1005.11843
1005.11843
1005.11843
1005.11843
1005.11843
1005.11843
1005.11843
1005.11843
1005.11843
1005.11843
1005.11843
1005.11843
1005.11843
1005.11843
1005.11843
1005.11843
1005.11843
1005.11843
1005.11843
1005.11843
1005.11843
1005.11843
1005.11843
1005.11843
1005.11843
1005.11843
1005.11843
1005.11843
1005.11843
1005.11843
1005.11843
1005.11843
1005.11843
1005.11843
1005.11843
1005.11843
1005.11843
1005.11843
1005.11843
1005.11843
1005.11843
1005.11843
1005.11843
1005.11843
1005.11843
1005.11843
1005.11843
1005.11843
1005.11843
1005.11843
1005.11843
1005.11843
1005.11843
1005.11843
1005.11843
1005.11843
1005.11843
1005.11843
1005.11843
1005.11843
1005.11843
1005.11843
1005.11843
1005.11843
1005.11843
1005.11843
1005.11843
1005.11843
1005.11843
1005.11843
1005.11843
1005.11843
1005.11843
1005.11843
1005.11843
1005.11843
1005.11843
1005.11843
1005.11843
1005.11843
1005.11843
1005.11843
1005.11843
1005.11843
1005.11843
1005.11843
1005.11843
1005.11843
1005.11843
1005.11843
1005.11843
1005.11843
1005.11843
1005.11843
1005.11843
1005.11843
1005.11843
1005.11843
1005.11843
1005.11843
1005.11843
1005.11843
1005.11843
1005.11843
1005.11843
1005.11843
1005.11843
1005.11843
1005.11843
1005.11843
1005.11843
1005.11843
1005.11843
1005.11843
1005.11843
1005.11843
1005.11843
1005.11843
1005.11843
1005.11843
1005.11843
1005.11843
1005.11843
1005.11843
1005.11843
1005.11843
1005.11843
1005.11843
1005.11843
1005.11843
1005.11843
1005.11843
1005.11843
1005.11843
1005.11843
1005.11843
1005.11843
1005.11843
1005.11843
1005.11843
1005.11843
1005.11843
1005.11843
1005.11843
1005.11843
1005.11843
1005.11843
1005.11843
1005.11843
1005.11843
1005.11843
1005.11843
1005.11843
1005.11843
1005.11843
1005.11843
1005.11843
1005.11843
1005.11843
1005.11843
1005.11843
1005.11843
1005.11843
1005.11843
1005.11843
1005.11843
1005.11843
1005.11843
1005.11843
1005.11843
1005.11843
1005.11843
1005.11843
1005.11843
1005.11843
1005.11843
1005.11843
1005.11843
1005.11843
1005.11843
1005.11843
1005.11843
1005.11843
1005.11843
1005.11843
1005.11843
1005.11843
1005.11843
1005.11843
1005.11843
1005.11843
1005.11843
1005.11843
1005.11843
1005.11843
1005.11843
1005.11843
1005.11843
1005.11843
1005.11843
1005.11843
1005.11843
1005.11843
1005.11843
1005.11843
1005.11843
1005.11843
1005.11843
1005.11843
1005.11843
1005.11843
1005.11843
1005.11843
1005.11843
1005.11843
1005.11843
1005.11843
1005.11843
1005.11843
1005.11843
1005.11843
1005.11843
1005.11843
1005.11843
1005.11843
1005.11843
1005.11843
1005.11843
1005.11843
1005.11843
1005.11843
1005.11843
1005.11843
1005.11843
1005.11843
1005.11843
1005.11843
1005.11843
1005.11843
1005.11843
1005.11843
1005.11843
1005.11843
1005.11843
1005.11843
1005.11843
1005.11843
1005.11843
1005.11843
1005.11843
1005.11843
1005.11843
1005.11843
1005.11843
1005.11843
1005.11843
1005.11843
1005.11843
1005.11843
1005.11843
1005.11843
1005.11843
1005.11843
1005.11843
1005.11843
1005.11843
1005.11843
1005.11843
1005.11843
1005.11843
1005.11843
1005.11843
1005.11843
1005.11843
1005.11843
1005.11843
1005.11843
1005.11843
1005.11843
1005.11843
1005.11843
1005.11843
1005.11843
1005.11843
1005.11843
1005.11843
1005.11843
1005.11843
1005.11843
1005.11843
1005.11843
1005.11843
1005.11843
1005.11843
1005.11843
1005.11843
1005.11843
1005.11843
1005.11843
1005.11843
1005.11843
1005.11843
1005.11843
1005.11843
1005.11843
1005.11843
1005.11843
1005.11843
1005.11843
1005.11843
1005.11843
1005.11843
1005.11843
1005.11843
1005.11843
1005.11843
1005.11843
1005.11843
1005.11843
1005.11843
1005.11843
1005.11843
1005.11843
1005.11843
1005.11843
1005.11843
1005.11843
1005.11843
1005.11843
1005.11843
1005.11843
1005.11843
1005.11843
1005.11843
1005.11843
1005.11843
1005.11843
1005.11843
1005.11843
1005.11843
1005.11843
1005.11843
1005.11843
1005.11843
1005.11843
1005.11843
1005.11843
1005.11843
1005.11843
1005.11843
1005.11843
1005.11843
1005.11843
1005.11843
1005.11843
1005.11843
1005.11843
1005.11843
1005.11843
1005.11843
1005.11843
1005.11843
1005.11843
1005.11843
1005.11843
1005.11843
1005.11843
1005.11843
1005.11843
1005.11843
1005.11843
1005.11843
1005.11843
1005.11843
1005.11843
1005.11843
1005.11843
1005.11843
1005.11843
1005.11843
1005.11843
1005.11843
1005.11843
1005.11843
1005.11843
1005.11843
1005.11843
1005.11843
1005.11843
1005.11843
1005.11843
1005.11843
1005.11843
1005.11843
1005.11843
1005.11843
1005.11843
1005.11843
1005.11843
1005.11843
1005.11843
1005.11843
1005.11843
1005.11843
1005.11843
1005.11843
1005.11843
1005.11843
1005.11843
1005.11843
1005.11843
1005.11843
1005.11843
1005.11843
1005.11843
1005.11843
1005.11843
1005.11843
1005.11843
1005.11843
1005.11843
1005.11843
1005.11843
1005.11843
1005.11843
1005.11843
1005.11843
1005.11843
1005.11843
1005.11843
1005.11843
1005.11843
1005.11843
1005.11843
1005.11843
1005.11843
1005.11843
1005.11843
1005.11843
1005.11843
1005.11843
1005.11843
1005.11843
1005.11843
1005.11843
1005.11843
1005.11843
1005.11843
1005.11843
1005.11843
1005.11843
1005.11843
1005.11843
1005.11843
1005.11843
1005.11843
1005.11843
1005.11843
1005.11843
1005.11843
1005.11843
1005.11843
1005.11843
1005.11843
1005.11843
1005.11843
1005.11843
1005.11843
1005.11843
1005.11843
1005.11843
1005.11843
1005.11843
1005.11843
1005.11843
1005.11843
1005.11843
1005.11843
1005.11843
1005.11843
1005.11843
1005.11843
1005.11843
1005.11843
1005.11843
1005.11843
1005.11843
1005.11843
1005.11843
1005.11843
1005.11843
1005.11843
1005.11843
1005.11843
1005.11843
1005.11843
1005.11843
1005.11843
1005.11843
1005.11843
1005.11843
1005.11843
1005.11843
1005.11843
1005.11843
1005.11843
1005.11843
1005.11843
1005.11843
1005.11843
1005.11843
1005.11843
1005.11843
1005.11843
1005.11843
1005.11843
1005.11843
1005.11843
1005.11843
1005.11843
1005.11843
1005.11843
1005.11843
1005.11843
1005.11843
1005.11843
1005.11843
1005.11843
1005.11843
1005.11843
1005.11843
1005.11843
1005.11843
1005.11843
1005.11843
1005.11843
1005.11843
1005.11843
1005.11843
1005.11843
1005.11843
1005.11843
1005.11843
1005.11843
1005.11843
1005.11843
1005.11843
1005.11843
1005.11843
1005.11843
1005.11843
1005.11843
1005.11843
1005.11843
1005.11843
1005.11843
1005.11843
1005.11843
1005.11843
1005.11843
1005.11843
1005.11843
1005.11843
1005.11843
1005.11843
1005.11843
1005.11843
1005.11843
1005.11843
1005.11843
1005.11843
1005.11843
1005.11843
1005.11843
1005.11843
1005.11843
1005.11843
1005.11843
1005.11843
1005.11843
1005.11843
1005.11843
1005.11843
1005.11843
1005.11843
1005.11843
1005.11843
1005.11843
1005.11843
1005.11843
1005.11843
1005.11843
1005.11843
1005.11843
1005.11843
1005.11843
1005.11843
1005.11843
1005.11843
1005.11843
1005.11843
1005.11843
1005.11843
1005.11843
1005.11843
1005.11843
1005.11843
1005.11843
1005.11843
1005.11843
1005.11843
1005.11843
1005.11843
1005.11843
1005.11843
1005.11843
1005.11843
1005.11843
1005.11843
1005.11843
1005.11843
1005.11843
1005.11843
1005.11843
1005.11843
1005.11843
1005.11843
1005.11843
1005.11843
1005.11843
1005.11843
1005.11843
1005.11843
1005.11843
1005.11843
1005.11843
1005.11843
1005.11843
1005.11843
1005.11843
1005.11843
1005.11843
1005.11843
1005.11843
1005.11843
1005.11843
1005.11843
1005.11843
1005.11843
1005.11843
1005.11843
1005.11843
1005.11843
1005.11843
1005.11843
1005.11843
1005.11843
1005.11843
1005.11843
1005.11843
1005.11843
1005.11843
1005.11843
1005.11843
1005.11843
1005.11843
1005.11843
1005.11843
1005.11843
1005.11843
1005.11843
1005.11843
1005.11843
1005.11843
1005.11843
1005.11843
1005.11843
1005.11843
1005.11843
1005.11843
1005.11843
1005.11843
1005.11843
1005.11843
1005.11843
1005.11843
1005.11843
1005.11843
1005.11843
1005.11843
1005.11843
1005.11843
1005.11843
1005.11843
1005.11843
1005.11843
1005.11843
1005.11843
1005.11843
1005.11843
1005.11843
1005.11843
1005.11843
1005.11843
1005.11843
1005.11843
1005.11843
1005.11843
1005.11843
1005.11843
1005.11843
1005.11843
1005.11843
1005.11843
1005.11843
1005.11843
1005.11843
1005.11843
1005.11843
1005.11843
1005.11843
1005.11843
1005.11843
1005.11843
1005.11843
1005.11843
1005.11843
1005.11843
1005.11843
1005.11843
1005.11843
1005.11843
1005.11843
1005.11843
1005.11843
1005.11843
1005.11843
1005.11843
1005.11843
1005.11843
1005.11843
1005.11843
1005.11843
1005.11843
1005.11843
1005.11843
1005.11843
1005.11843
1005.11843
1005.11843
1005.11843
1005.11843
1005.11843
1005.11843
1005.11843
1005.11843
1005.11843
1005.11843
1005.11843
1005.11843
1005.11843
1005.11843
1005.11843
1005.11843
1005.11843
1005.11843
1005.11843
1005.11843
1005.11843
1005.11843
1005.11843
1005.11843
1005.11843
1005.11843
1005.11843
1005.11843
1005.11843
1005.11843
1005.11843
1005.11843
1005.11843
1005.11843
1005.11843
1005.11843
1005.11843
1005.11843
1005.11843
1005.11843
1005.11843
1005.11843
1005.11843
1005.11843
1005.11843
1005.11843
1005.11843
1005.11843
1005.11843
1005.11843
1005.11843
1005.11843
1005.11843
1005.11843
1005.11843
1005.11843
1005.11843
1005.11843
1005.11843
1005.11843
1005.11843
1005.11843
1005.11843
1005.11843
1005.11843
1005.11843
1005.11843
1005.11843
1005.11843
1005.11843
1005.11843
1005.11843
1005.11843
1005.11843
1005.11843
1005.11843
1005.11843
1005.11843
1005.11843
1005.11843
1005.11843
1005.11843
1005.11843
1005.11843
1005.11843
1005.11843
1005.11843
1005.11843
1005.11843
1005.11843
1005.11843
1005.11843
1005.11843
1005.11843
1005.11843
1005.11843
1005.11843
1005.11843
1005.11843
1005.11843
1005.11843
1005.11843
1005.11843
1005.11843
1005.11843
1005.11843
1005.11843
1005.11843
1005.11843
1005.11843
1005.11843
1005.11843
1005.11843
1005.11843
1005.11843
1005.11843
1005.11843
1005.11843
1005.11843
1005.11843
1005.11843
1005.11843
1005.11843
1005.11843
1005.11843
1005.11843
1005.11843
1005.11843
1005.11843
1005.11843
1005.11843
1005.11843
1005.11843
1005.11843
1005.11843
1005.11843
1005.11843
1005.11843
1005.11843
1005.11843
1005.11843
1005.11843
1005.11843
1005.11843
1005.11843
1005.11843
1005.11843
1005.11843
1005.11843
1005.11843
1005.11843
1005.11843
1005.11843
1005.11843
1005.11843
1005.11843
1005.11843
1005.11843
1005.11843
1005.11843
1005.11843
1005.11843
1005.11843
1005.11843
1005.11843
1005.11843
1005.11843
1005.11843
1005.11843
1005.11843
1005.11843
1005.11843
1005.11843
1005.11843
1005.11843
1005.11843
1005.11843
1005.11843
1005.11843
1005.11843
1005.11843
1005.11843
1005.11843
1005.11843
1005.11843
1005.11843
1005.11843
1005.11843
1005.11843
1005.11843
1005.11843
1005.11843
1005.11843
1005.11843
1005.11843
1005.11843
1005.11843
1005.11843
1005.11843
1005.11843
1005.11843
1005.11843
1005.11843
1005.11843
1005.11843
1005.11843
1005.11843
1005.11843
1005.11843
1005.11843
1005.11843
1005.11843
1005.11843
1005.11843
1005.11843
1005.11843
1005.11843
1005.11843
1005.11843
1005.11843
1005.11843
1005.11843
1005.11843
1005.11843
1005.11843
1005.11843
1005.11843
1005.11843
1005.11843
1005.11843
1005.11843
1005.11843
1005.11843
1005.11843
1005.11843
1005.11843
1005.11843
1005.11843
1005.11843
1005.11843
1005.11843
1005.11843
1005.11843
1005.11843
1005.11843
1005.11843
1005.11843
1005.11843
1005.11843
1005.11843
1005.11843
1005.11843
1005.11843
1005.11843
1005.11843
1005.11843
1005.11843
1005.11843
1005.11843
1005.11843
1005.11843
1005.11843
1005.11843
1005.11843
1005.11843
1005.11843
1005.11843
1005.11843
1005.11843
1005.11843
1005.11843
1005.11843
1005.11843
1005.11843
1005.11843
1005.11843
1005.11843
1005.11843
1005.11843
1005.11843
1005.11843
1005.11843
1005.11843
1005.11843
1005.11843
1005.11843
1005.11843
1005.11843
1005.11843
1005.11843
1005.11843
1005.11843
1005.11843
1005.11843
1005.11843
1005.11843
1005.11843
1005.11843
1005.11843
1005.11843
1005.11843
1005.11843
1005.11843
1005.11843
1005.11843
1005.11843
1005.11843
1005.11843
1005.11843
1005.11843
1005.11843
1005.11843
1005.11843
1005.11843
1005.11843
1005.11843
1005.11843
1005.11843
1005.11843
1005.11843
1005.11843
1005.11843
1005.11843
1005.11843
1005.11843
1005.11843
1005.11843
1005.11843
1005.11843
1005.11843
1005.11843
1005.11843
1005.11843
1005.11843
1005.11843
1005.11843
1005.11843
1005.11843
1005.11843
1005.11843
1005.11843
1005.11843
1005.11843
1005.11843
1005.11843
1005.11843
1005.11843
1005.11843
1005.11843
1005.11843
1005.11843
1005.11843
1005.11843
1005.11843
1005.11843
1005.11843
1005.11843
1005.11843
1005.11843
1005.11843
1005.11843
1005.11843
1005.11843
1005.11843
1005.11843
1005.11843
1005.11843
1005.11843
1005.11843
1005.11843
1005.11843
1005.11843
1005.11843
1005.11843
1005.11843
1005.11843
1005.11843
1005.11843
1005.11843
1005.11843
1005.11843
1005.11843
1005.11843
1005.11843
1005.11843
1005.11843
1005.11843
1005.11843
1005.11843
1005.11843
1005.11843
1005.11843
1005.11843
1005.11843
1005.11843
1005.11843
1005.11843
1005.11843
1005.11843
1005.11843
1005.11843
1005.11843
1005.11843
1005.11843
1005.11843
1005.11843
1005.11843
1005.11843
1005.11843
1005.11843
1005.11843
1005.11843
1005.11843
1005.11843
1005.11843
1005.11843
1005.11843
1005.11843
1005.11843
1005.11843
1005.11843
1005.11843
1005.11843
1005.11843
1005.11843
1005.11843
1005.11843
1005.11843
1005.11843
1005.11843
1005.11843
1005.11843
1005.11843
1005.11843
1005.11843
1005.11843
1005.11843
1005.11843
1005.11843
1005.11843
1005.11843
1005.11843
1005.11843
1005.11843
1005.11843
1005.11843
1005.11843
1005.11843
1005.11843
1005.11843
1005.11843
1005.11843
1005.11843
1005.11843
1005.11843
1005.11843
1005.11843
1005.11843
1005.11843
1005.11843
1005.11843
1005.11843
1005.11843
1005.11843
1005.11843
1005.11843
1005.11843
1005.11843
1005.11843
1005.11843
1005.11843
1005.11843
1005.11843
1005.11843
1005.11843
1005.11843
1005.11843
1005.11843
1005.11843
1005.11843
1005.11843
1005.11843
1005.11843
1005.11843
1005.11843
1005.11843
1005.11843
1005.11843
1005.11843
1005.11843
1005.11843
1005.11843
1005.11843
1005.11843
1005.11843
1005.11843
1005.11843
1005.11843
1005.11843
1005.11843
1005.11843
1005.11843
1005.11843
1005.11843
1005.11843
1005.11843
1005.11843
1005.11843
1005.11843
1005.11843
1005.11843
1005.11843
1005.11843
1005.11843
1005.11843
1005.11843
1005.11843
1005.11843
1005.11843
1005.11843
1005.11843
1005.11843
1005.11843
1005.11843
1005.11843
1005.11843
1005.11843
1005.11843
1005.11843
1005.11843
1005.11843
1005.11843
1005.11843
1005.11843
1005.11843
1005.11843
1005.11843
1005.11843
1005.11843
1005.11843
1005.11843
1005.11843
1005.11843
1005.11843
1005.11843
1005.11843
1005.11843
1005.11843
1005.11843
1005.11843
1005.11843
1005.11843
1005.11843
1005.11843
1005.11843
1005.11843
1005.11843
1005.11843
1005.11843
1005.11843
1005.11843
1005.11843
1005.11843
1005.11843
1005.11843
1005.11843
1005.11843
1005.11843
1005.11843
1005.11843
1005.11843
1005.11843
1005.11843
1005.11843
1005.11843
1005.11843
1005.11843
1005.11843
1005.11843
1005.11843
1005.11843
1005.11843
1005.11843
1005.11843
1005.11843
1005.11843
1005.11843
1005.11843
1005.11843
1005.11843
1005.11843
1005.11843
1005.11843
1005.11843
1005.11843
1005.11843
1005.11843
1005.11843
1005.11843
1005.11843
1005.11843
1005.11843
1005.11843
1005.11843
1005.11843
1005.11843
1005.11843
1005.11843
1005.11843
1005.11843
1005.11843
1005.11843
1005.11843
1005.11843
1005.11843
1005.11843
1005.11843
1005.11843
1005.11843
1005.11843
1005.11843
1005.11843
1005.11843
1005.11843
1005.11843
1005.11843
1005.11843
1005.11843
1005.11843
1005.11843
1005.11843
1005.11843
1005.11843
1005.11843
1005.11843
1005.11843
1005.11843
1005.11843
1005.11843
1005.11843
1005.11843
1005.11843
1005.11843
1005.11843
1005.11843
1005.11843
1005.11843
1005.11843
1005.11843
1005.11843
1005.11843
1005.11843
1005.11843
1005.11843
1005.11843
1005.11843
1005.11843
1005.11843
1005.11843
1005.11843
1005.11843
1005.11843
1005.11843
1005.11843
1005.11843
1005.11843
1005.11843
1005.11843
1005.11843
1005.11843
1005.11843
1005.11843
1005.11843
1005.11843
1005.11843
1005.11843
1005.11843
1005.11843
1005.11843
1005.11843
1005.11843
1005.11843
1005.11843
1005.11843
1005.11843
1005.11843
1005.11843
1005.11843
1005.11843
1005.11843
1005.11843
1005.11843
1005.11843
1005.11843
1005.11843
1005.11843
1005.11843
1005.11843
1005.11843
1005.11843
1005.11843
1005.11843
1005.11843
1005.11843
1005.11843
1005.11843
1005.11843
1005.11843
1005.11843
1005.11843
1005.11843
1005.11843
1005.11843
1005.11843
1005.11843
1005.11843
1005.11843
1005.11843
1005.11843
1005.11843
1005.11843
1005.11843
1005.11843
1005.11843
1005.11843
1005.11843
1005.11843
1005.11843
1005.11843
1005.11843
1005.11843
1005.11843
1005.11843
1005.11843
1005.11843
1005.11843
1005.11843
1005.11843
1005.11843
1005.11843
1005.11843
1005.11843
1005.11843
1005.11843
1005.11843
1005.11843
1005.11843
1005.11843
1005.11843
1005.11843
1005.11843
1005.11843
1005.11843
1005.11843
1005.11843
1005.11843
1005.11843
1005.11843
1005.11843
1005.11843
1005.11843
1005.11843
1005.11843
1005.11843
1005.11843
1005.11843
1005.11843
1005.11843
1005.11843
1005.11843
1005.11843
1005.11843
1005.11843
1005.11843
1005.11843
1005.11843
1005.11843
1005.11843
1005.11843
1005.11843
1005.11843
1005.11843
1005.11843
1005.11843
1005.11843
1005.11843
1005.11843
1005.11843
1005.11843
1005.11843
1005.11843
1005.11843
1005.11843
1005.11843
1005.11843
1005.11843
1005.11843
1005.11843
1005.11843
1005.11843
1005.11843
1005.11843
1005.11843
1005.11843
1005.11843
1005.11843
1005.11843
1005.11843
1005.11843
1005.11843
1005.11843
1005.11843
1005.11843
1005.11843
1005.11843
1005.11843
1005.11843
1005.11843
1005.11843
1005.11843
1005.11843
1005.11843
1005.11843
1005.11843
1005.11843
1005.11843
1005.11843
1005.11843
1005.11843
1005.118429
1005.118429
1005.118429
1005.118429
1005.118429
1005.118428
1005.118428
1005.118428
1005.118427
1005.118427
1005.118426
1005.118425
1005.118424
1005.118423
1005.118422
1005.11842
1005.118418
1005.118416
1005.118414
1005.118411
1005.118408
1005.118403
1005.118399
1005.118394
1005.118388
1005.118381
1005.118373
1005.118363
1005.118353
1005.11834
1005.118326
1005.118309
1005.11829
1005.118269
1005.118243
1005.118215
1005.118182
1005.118145
1005.118102
1005.118054
1005.117999
1005.11794
1005.117861
1005.11779
1005.117686
1005.117593
1005.117474
1005.117343
1005.117204
1005.117017
1005.116849
1005.116622
1005.116402
1005.116131
1005.115839
1005.115508
1005.115138
1005.114732
1005.114272
1005.11377
1005.113198
1005.11258
1005.111881
1005.111127
1005.110273
1005.109346
1005.108302
1005.107181
1005.105928
1005.104586
1005.103061
1005.101427
1005.099605
1005.097662
1005.095534
1005.093228
1005.090642
1005.087897
1005.084846
1005.0817
1005.078187
1005.074387
1005.070212
1005.065801
1005.061065
1005.056217
1005.05029
1005.044872
1005.037948
1005.031751
1005.024244
1005.016831
1005.008447
1004.999699
1004.990418
1004.980459
1004.970228
1004.95901
1004.947276
1004.934791
1004.921714
1004.908067
1004.89432
1004.877999
1004.863333
1004.844963
1004.828571
1004.810628
1004.790455
1004.771874
1004.750433
1004.729645
1004.706783
1004.684266
1004.659952
1004.635381
1004.609964
1004.583534
1004.556803
1004.528357
1004.50041
1004.470763
1004.44221
1004.409077
1004.379938
1004.34682
1004.315408
1004.281435
1004.248107
1004.213537
1004.178672
1004.144088
1004.107513
1004.072961
1004.035037
1004.001823
1003.964964
1003.930924
1003.893977
1003.859503
1003.823436
1003.789219
1003.754503
1003.721065
1003.687771
1003.655258
1003.622918
1003.591187
1003.559666
1003.528818
1003.498273
1003.468525
1003.43921
1003.41087
1003.3831
1003.35645
1003.330402
1003.305487
1003.281093
1003.257745
1003.234826
1003.212866
1003.191303
1003.17067
1003.150471
1003.131226
1003.112493
1003.094764
1003.07762
1003.061525
1003.04605
1003.031631
1003.017815
1003.005013
1002.992743
1002.981395
1002.970481
1002.960372
1002.950607
1002.94154
1002.932764
1002.924609
1002.916735
1002.909438
1002.902435
1002.895982
1002.889835
1002.884212
1002.878892
1002.874059
1002.869512
1002.865408
1002.861563
1002.858113
1002.854891
1002.852018
1002.84934
1002.846965
1002.844749
1002.84279
1002.840956
1002.839332
1002.837803
1002.836442
1002.835155
1002.834003
1002.832915
1002.831941
1002.83103
1002.830222
1002.829479
1002.828832
1002.828251
1002.827757
1002.827321
1002.826958
1002.826641
1002.826376
1002.82614
1002.825936
1002.825742
1002.825567
1002.82539
1002.825222
1002.825054
1002.824887
1002.824727
1002.824563
1002.824409
1002.824263
1002.824135
1002.824019
1002.823921
1002.823841
1002.823781
1002.823741
1002.823719
1002.823714
1002.823723
1002.823745
1002.823776
1002.823815
1002.823859
1002.823906
1002.823954
1002.824004
1002.824049
1002.824085
1002.824111
1002.824129
1002.824138
1002.824136
1002.824123
1002.824098
1002.824062
1002.824017
1002.823963
1002.823903
1002.823839
1002.82377
1002.823704
1002.823638
1002.823577
1002.82353
1002.823501
1002.823487
1002.823484
1002.823492
1002.823515
1002.823553
1002.823604
1002.823666
1002.823737
1002.823812
1002.823892
1002.823966
1002.82404
1002.824101
1002.824148
1002.82418
1002.824195
1002.824197
1002.824188
1002.824166
1002.824131
1002.824086
1002.824035
1002.823978
1002.823916
1002.823852
1002.823785
1002.823725
1002.823669
1002.823621
1002.82358
1002.823545
1002.823518
1002.823496
1002.823481
1002.823471
1002.823465
1002.823462
1002.82346
1002.823459
1002.823458
1002.823456
1002.82345
1002.823441
1002.823429
1002.823414
1002.823395
1002.823373
1002.823348
1002.823322
1002.823302
1002.823288
1002.823281
1002.823279
1002.823282
1002.823292
1002.82331
1002.823335
1002.823365
1002.8234
1002.823436
1002.823475
1002.823515
1002.823555
1002.823591
1002.82362
1002.823638
1002.823645
1002.823643
1002.823632
1002.82361
1002.82358
1002.823541
1002.823495
1002.823439
1002.82338
1002.823316
1002.823255
1002.823195
1002.82314
1002.823089
1002.823048
1002.823015
1002.822991
1002.822972
1002.822959
1002.822952
1002.82295
1002.822951
1002.822954
1002.822957
1002.822961
1002.822964
1002.822966
1002.822966
1002.822964
1002.822959
1002.822951
1002.82294
1002.822929
1002.822916
1002.822904
1002.822893
1002.822886
1002.822882
1002.82288
1002.822882
1002.822887
1002.822896
1002.822908
1002.822924
1002.822942
1002.822962
1002.822984
1002.823007
1002.82303
1002.823054
1002.823075
1002.823096
1002.823114
1002.823131
1002.823144
1002.823154
1002.823161
1002.823164
1002.823165
1002.823164
1002.823162
1002.823158
1002.823152
1002.823145
1002.823137
1002.823129
1002.823121
1002.823113
1002.823105
1002.823097
1002.823089
1002.823081
1002.823073
1002.823065
1002.823057
1002.823048
1002.82304
1002.823032
1002.823024
1002.823016
1002.823008
1002.823
1002.822992
1002.822983
1002.822975
1002.822967
1002.82296
1002.822952
1002.822945
1002.822938
1002.82293
1002.822923
1002.822916
1002.822909
1002.822902
1002.822896
1002.822889
1002.822883
1002.822877
1002.822872
1002.822867
1002.822863
1002.822859
1002.822857
1002.822856
1002.822856
1002.822857
1002.82286
1002.822865
1002.822871
1002.822878
1002.822887
1002.822898
1002.82291
1002.822923
1002.822937
1002.822952
1002.822968
1002.822984
1002.823
1002.823015
1002.82303
1002.823043
1002.823052
1002.82306
1002.823065
1002.823068
1002.823067
1002.823063
1002.823057
1002.823048
1002.823036
1002.823021
1002.823006
1002.822988
1002.822971
1002.822951
1002.822933
1002.82291
1002.822891
1002.822871
1002.822854
1002.822839
1002.822826
1002.822815
1002.822807
1002.822803
1002.822801
1002.822802
1002.822805
1002.822811
1002.822819
1002.82283
1002.822843
1002.822857
1002.822875
1002.822894
1002.822914
1002.822935
1002.822958
1002.822981
1002.823005
1002.82303
1002.823055
1002.823082
1002.823108
1002.823138
1002.823165
1002.823196
1002.823223
1002.823251
1002.823277
1002.823303
1002.823328
1002.823352
1002.823374
1002.823396
1002.823415
1002.823433
1002.82345
1002.823464
1002.823475
1002.823482
1002.823485
1002.823484
1002.823482
1002.823477
1002.823468
1002.823457
1002.823441
1002.823423
1002.823402
1002.823378
1002.823351
1002.823322
1002.823291
1002.823257
1002.823222
1002.823185
1002.823147
1002.823108
1002.823069
1002.823029
1002.82299
1002.822951
1002.822914
1002.822879
1002.822846
1002.822815
1002.822785
1002.822759
1002.822735
1002.822715
1002.8227
1002.822689
1002.822681
1002.822675
1002.822673
1002.822673
1002.822675
1002.822679
1002.822685
1002.822693
1002.822702
1002.822712
1002.822723
1002.822734
1002.822745
1002.822756
1002.822768
1002.822778
1002.822788
1002.822797
1002.822805
1002.822813
1002.82282
1002.822826
1002.822832
1002.822837
1002.822843
1002.822848
1002.822853
1002.822858
1002.822863
1002.822868
1002.822874
1002.822879
1002.822885
1002.82289
1002.822896
1002.822902
1002.822908
1002.822914
1002.82292
1002.822926
1002.822931
1002.822935
1002.822939
1002.822943
1002.822945
1002.822948
1002.822949
1002.82295
1002.82295
1002.82295
1002.822949
1002.822948
1002.822946
1002.822945
1002.822943
1002.822941
1002.82294
1002.822938
1002.822937
1002.822936
1002.822935
1002.822936
1002.822937
1002.822938
1002.82294
1002.822944
1002.822947
1002.822952
1002.822957
1002.822962
1002.822969
1002.822975
1002.822982
1002.822988
1002.822996
1002.823003
1002.823011
1002.823018
1002.823026
1002.823033
1002.82304
1002.823047
1002.823054
1002.823061
1002.823067
1002.823073
1002.823078
1002.823083
1002.823087
1002.823091
1002.823095
1002.823098
1002.8231
1002.823102
1002.823103
1002.823104
1002.823104
1002.823104
1002.823103
1002.823102
1002.8231
1002.823097
1002.823093
1002.823089
1002.823085
1002.82308
1002.823075
1002.823069
1002.823063
1002.823057
1002.823052
1002.823046
1002.82304
1002.823035
1002.82303
1002.823025
1002.823021
1002.823018
1002.823017
1002.823016
1002.823016
1002.823018
1002.823021
1002.823025
1002.82303
1002.823036
1002.823044
1002.823054
1002.823064
1002.823076
1002.823089
1002.823103
1002.823118
1002.823135
1002.823152
1002.82317
1002.823189
1002.823209
1002.823228
1002.823248
1002.823269
1002.82329
1002.82331
1002.823329
1002.823346
1002.823363
1002.823378
1002.823391
1002.823402
1002.82341
1002.823416
1002.823421
1002.823422
1002.823422
1002.82342
1002.823416
1002.82341
1002.823401
1002.82339
1002.823376
1002.82336
1002.823342
1002.823322
1002.8233
1002.823276
1002.823251
1002.823226
1002.823199
1002.823173
1002.823146
1002.82312
1002.823093
1002.823068
1002.823044
1002.823021
1002.823
1002.822979
1002.82296
1002.822944
1002.822929
1002.822918
1002.822908
1002.8229
1002.822895
1002.822891
1002.82289
1002.82289
1002.822892
1002.822895
1002.8229
1002.822907
1002.822915
1002.822923
1002.822933
1002.822943
1002.822954
1002.822965
1002.822976
1002.822986
1002.822997
1002.823007
1002.823017
1002.823026
1002.823033
1002.823039
1002.823043
1002.823046
1002.823047
1002.823046
1002.823044
1002.823041
1002.823035
1002.823029
1002.82302
1002.823011
1002.823001
1002.82299
1002.822979
1002.822967
1002.822955
1002.822943
1002.822931
1002.82292
1002.822909
1002.8229
1002.82289
1002.822882
1002.822875
1002.822871
1002.822867
1002.822865
1002.822863
1002.822864
1002.822865
1002.822867
1002.82287
1002.822874
1002.822878
1002.822884
1002.822888
1002.822894
1002.822899
1002.822906
1002.822911
1002.822917
1002.822921
1002.822924
1002.822927
1002.822929
1002.82293
1002.82293
1002.822929
1002.822927
1002.822925
1002.822921
1002.822917
1002.822911
1002.822905
1002.822897
1002.822888
1002.822879
1002.822868
1002.822855
1002.822841
1002.822823
1002.822803
1002.822778
1002.822747
1002.822709
1002.822662
1002.822603
1002.822529
1002.822437
1002.822321
1002.822176
1002.821995
1002.82177
1002.821491
1002.821144
1002.82072
1002.820201
1002.819601
1002.819
1002.818351
1002.817708
1002.817008
1002.816316
1002.815566
1002.814834
1002.81404
1002.813287
1002.812473
1002.811715
1002.81091
1002.810165
1002.809392
1002.808678
1002.807951
1002.807284
1002.806611
1002.805992
1002.805368
1002.804787
1002.804249
1002.803812
1002.803459
1002.803173
1002.802946
1002.802765
1002.802622
1002.80251
1002.802424
1002.802358
1002.802308
1002.802271
1002.802245
1002.802226
1002.802214
1002.802206
1002.802201
1002.802199
1002.802198
1002.802198
1002.802198
1002.802197
1002.802196
1002.802194
1002.80219
1002.802185
1002.802179
1002.802171
1002.802162
1002.80215
1002.802138
1002.802124
1002.802108
1002.802091
1002.802073
1002.802054
1002.802035
1002.802015
1002.801995
1002.801974
1002.801954
1002.801934
1002.801915
1002.801896
1002.801879
1002.801863
1002.801847
1002.801834
1002.801821
1002.801811
1002.801802
1002.801795
1002.801789
1002.801785
1002.801783
1002.801783
1002.801784
1002.801786
1002.80179
1002.801796
1002.801803
1002.80181
1002.801819
1002.801829