/*--------------------------------*- C++ -*----------------------------------*\
| =========                 |                                                 |
| \\      /  F ield         | OpenFOAM: The Open Source CFD Toolbox           |
|  \\    /   O peration     | Version:  2012                                  |
|   \\  /    A nd           | Website:  www.openfoam.com                      |
|    \\/     M anipulation  |                                                 |
\*---------------------------------------------------------------------------*/
FoamFile
{
    version     2.0;
    format      ascii;
    class       volScalarField;
    location    "0.0001";
    object      rho2;
}
// * * * * * * * * * * * * * * * * * * * * * * * * * * * * * * * * * * * * * //

dimensions      [1 -3 0 0 0 0 0];


internalField   nonuniform List<scalar> 
5000
(
118.9187904
118.9187904
118.9187904
118.9187904
118.9187904
118.9187904
118.9187904
118.9187904
118.9187904
118.9187904
118.9187904
118.9187904
118.9187904
118.9187904
118.9187904
118.9187904
118.9187904
118.9187904
118.9187904
118.9187904
118.9187904
118.9187904
118.9187904
118.9187904
118.9187904
118.9187904
118.9187904
118.9187904
118.9187904
118.9187904
118.9187904
118.9187904
118.9187904
118.9187904
118.9187904
118.9187904
118.9187904
118.9187904
118.9187904
118.9187904
118.9187904
118.9187904
118.9187904
118.9187904
118.9187904
118.9187904
118.9187904
118.9187904
118.9187904
118.9187904
118.9187904
118.9187904
118.9187904
118.9187904
118.9187904
118.9187904
118.9187904
118.9187904
118.9187904
118.9187904
118.9187904
118.9187904
118.9187904
118.9187904
118.9187904
118.9187904
118.9187904
118.9187904
118.9187904
118.9187904
118.9187904
118.9187904
118.9187904
118.9187904
118.9187904
118.9187904
118.9187904
118.9187904
118.9187904
118.9187904
118.9187904
118.9187904
118.9187904
118.9187904
118.9187904
118.9187904
118.9187904
118.9187904
118.9187904
118.9187904
118.9187904
118.9187904
118.9187904
118.9187904
118.9187904
118.9187904
118.9187904
118.9187904
118.9187904
118.9187904
118.9187904
118.9187904
118.9187904
118.9187904
118.9187904
118.9187904
118.9187904
118.9187904
118.9187904
118.9187904
118.9187904
118.9187904
118.9187904
118.9187904
118.9187904
118.9187904
118.9187904
118.9187904
118.9187904
118.9187904
118.9187904
118.9187904
118.9187904
118.9187904
118.9187904
118.9187904
118.9187904
118.9187904
118.9187904
118.9187904
118.9187904
118.9187904
118.9187904
118.9187904
118.9187904
118.9187904
118.9187904
118.9187904
118.9187904
118.9187904
118.9187904
118.9187904
118.9187904
118.9187904
118.9187904
118.9187904
118.9187904
118.9187904
118.9187904
118.9187904
118.9187904
118.9187904
118.9187904
118.9187904
118.9187904
118.9187904
118.9187904
118.9187904
118.9187904
118.9187904
118.9187904
118.9187904
118.9187904
118.9187904
118.9187904
118.9187904
118.9187904
118.9187904
118.9187904
118.9187904
118.9187904
118.9187904
118.9187904
118.9187904
118.9187904
118.9187904
118.9187904
118.9187904
118.9187904
118.9187904
118.9187904
118.9187904
118.9187904
118.9187904
118.9187904
118.9187904
118.9187904
118.9187904
118.9187904
118.9187904
118.9187904
118.9187904
118.9187904
118.9187904
118.9187904
118.9187904
118.9187904
118.9187904
118.9187904
118.9187904
118.9187904
118.9187904
118.9187904
118.9187904
118.9187904
118.9187904
118.9187904
118.9187904
118.9187904
118.9187904
118.9187904
118.9187904
118.9187904
118.9187904
118.9187904
118.9187904
118.9187904
118.9187904
118.9187904
118.9187904
118.9187904
118.9187904
118.9187904
118.9187904
118.9187904
118.9187904
118.9187904
118.9187904
118.9187904
118.9187904
118.9187904
118.9187904
118.9187904
118.9187904
118.9187904
118.9187904
118.9187904
118.9187904
118.9187904
118.9187904
118.9187904
118.9187904
118.9187904
118.9187904
118.9187904
118.9187904
118.9187904
118.9187904
118.9187904
118.9187904
118.9187904
118.9187904
118.9187904
118.9187904
118.9187904
118.9187904
118.9187904
118.9187904
118.9187904
118.9187904
118.9187904
118.9187904
118.9187904
118.9187904
118.9187904
118.9187904
118.9187904
118.9187904
118.9187904
118.9187904
118.9187904
118.9187904
118.9187904
118.9187904
118.9187904
118.9187904
118.9187904
118.9187904
118.9187904
118.9187904
118.9187904
118.9187904
118.9187904
118.9187904
118.9187904
118.9187904
118.9187904
118.9187904
118.9187904
118.9187904
118.9187904
118.9187904
118.9187904
118.9187904
118.9187904
118.9187904
118.9187904
118.9187904
118.9187904
118.9187904
118.9187904
118.9187904
118.9187904
118.9187904
118.9187904
118.9187904
118.9187904
118.9187904
118.9187904
118.9187904
118.9187904
118.9187904
118.9187904
118.9187904
118.9187904
118.9187904
118.9187904
118.9187904
118.9187904
118.9187904
118.9187904
118.9187904
118.9187904
118.9187904
118.9187904
118.9187904
118.9187904
118.9187904
118.9187904
118.9187904
118.9187904
118.9187904
118.9187904
118.9187904
118.9187904
118.9187904
118.9187904
118.9187904
118.9187904
118.9187904
118.9187904
118.9187904
118.9187904
118.9187904
118.9187904
118.9187904
118.9187904
118.9187904
118.9187904
118.9187904
118.9187904
118.9187904
118.9187904
118.9187904
118.9187904
118.9187904
118.9187904
118.9187904
118.9187904
118.9187904
118.9187904
118.9187904
118.9187904
118.9187904
118.9187904
118.9187904
118.9187904
118.9187904
118.9187904
118.9187904
118.9187904
118.9187904
118.9187904
118.9187904
118.9187904
118.9187904
118.9187904
118.9187904
118.9187904
118.9187904
118.9187904
118.9187904
118.9187904
118.9187904
118.9187904
118.9187904
118.9187904
118.9187904
118.9187904
118.9187904
118.9187904
118.9187904
118.9187904
118.9187904
118.9187904
118.9187904
118.9187904
118.9187904
118.9187904
118.9187904
118.9187904
118.9187904
118.9187904
118.9187904
118.9187904
118.9187904
118.9187904
118.9187904
118.9187904
118.9187904
118.9187904
118.9187904
118.9187904
118.9187904
118.9187904
118.9187904
118.9187904
118.9187904
118.9187904
118.9187904
118.9187904
118.9187904
118.9187904
118.9187904
118.9187904
118.9187904
118.9187904
118.9187904
118.9187904
118.9187904
118.9187904
118.9187904
118.9187904
118.9187904
118.9187904
118.9187904
118.9187904
118.9187904
118.9187904
118.9187904
118.9187904
118.9187904
118.9187904
118.9187904
118.9187904
118.9187904
118.9187904
118.9187904
118.9187904
118.9187904
118.9187904
118.9187904
118.9187904
118.9187904
118.9187904
118.9187904
118.9187904
118.9187904
118.9187904
118.9187904
118.9187904
118.9187904
118.9187904
118.9187904
118.9187904
118.9187904
118.9187904
118.9187904
118.9187904
118.9187904
118.9187904
118.9187904
118.9187904
118.9187904
118.9187904
118.9187904
118.9187904
118.9187904
118.9187904
118.9187904
118.9187904
118.9187904
118.9187904
118.9187904
118.9187904
118.9187904
118.9187904
118.9187904
118.9187904
118.9187904
118.9187904
118.9187904
118.9187904
118.9187904
118.9187904
118.9187904
118.9187904
118.9187904
118.9187904
118.9187904
118.9187904
118.9187904
118.9187904
118.9187904
118.9187904
118.9187904
118.9187904
118.9187904
118.9187904
118.9187904
118.9187904
118.9187904
118.9187904
118.9187904
118.9187904
118.9187904
118.9187904
118.9187904
118.9187904
118.9187904
118.9187904
118.9187904
118.9187904
118.9187904
118.9187904
118.9187904
118.9187904
118.9187904
118.9187904
118.9187904
118.9187904
118.9187904
118.9187904
118.9187904
118.9187904
118.9187904
118.9187904
118.9187904
118.9187904
118.9187904
118.9187904
118.9187904
118.9187904
118.9187904
118.9187904
118.9187904
118.9187904
118.9187904
118.9187904
118.9187904
118.9187904
118.9187904
118.9187904
118.9187904
118.9187904
118.9187904
118.9187904
118.9187904
118.9187904
118.9187904
118.9187904
118.9187904
118.9187904
118.9187904
118.9187904
118.9187904
118.9187904
118.9187904
118.9187904
118.9187904
118.9187904
118.9187904
118.9187904
118.9187904
118.9187904
118.9187904
118.9187904
118.9187904
118.9187904
118.9187904
118.9187904
118.9187904
118.9187904
118.9187904
118.9187904
118.9187904
118.9187904
118.9187904
118.9187904
118.9187904
118.9187904
118.9187904
118.9187904
118.9187904
118.9187904
118.9187904
118.9187904
118.9187904
118.9187904
118.9187904
118.9187904
118.9187904
118.9187904
118.9187904
118.9187904
118.9187904
118.9187904
118.9187904
118.9187904
118.9187904
118.9187904
118.9187904
118.9187904
118.9187904
118.9187904
118.9187904
118.9187904
118.9187904
118.9187904
118.9187904
118.9187904
118.9187904
118.9187904
118.9187904
118.9187904
118.9187904
118.9187904
118.9187904
118.9187904
118.9187904
118.9187904
118.9187904
118.9187904
118.9187904
118.9187904
118.9187904
118.9187904
118.9187904
118.9187904
118.9187904
118.9187904
118.9187904
118.9187904
118.9187904
118.9187904
118.9187904
118.9187904
118.9187904
118.9187904
118.9187904
118.9187904
118.9187904
118.9187904
118.9187904
118.9187904
118.9187904
118.9187904
118.9187904
118.9187904
118.9187904
118.9187904
118.9187904
118.9187904
118.9187904
118.9187904
118.9187904
118.9187904
118.9187904
118.9187904
118.9187904
118.9187904
118.9187904
118.9187904
118.9187904
118.9187904
118.9187904
118.9187904
118.9187904
118.9187904
118.9187904
118.9187904
118.9187904
118.9187904
118.9187904
118.9187904
118.9187904
118.9187904
118.9187904
118.9187904
118.9187904
118.9187904
118.9187904
118.9187904
118.9187904
118.9187904
118.9187904
118.9187904
118.9187904
118.9187904
118.9187904
118.9187904
118.9187904
118.9187904
118.9187904
118.9187904
118.9187904
118.9187904
118.9187904
118.9187904
118.9187904
118.9187904
118.9187904
118.9187904
118.9187904
118.9187904
118.9187904
118.9187904
118.9187904
118.9187904
118.9187904
118.9187904
118.9187904
118.9187904
118.9187904
118.9187904
118.9187904
118.9187904
118.9187904
118.9187904
118.9187904
118.9187904
118.9187904
118.9187904
118.9187904
118.9187904
118.9187904
118.9187904
118.9187904
118.9187904
118.9187904
118.9187904
118.9187904
118.9187904
118.9187904
118.9187904
118.9187904
118.9187904
118.9187904
118.9187904
118.9187904
118.9187904
118.9187904
118.9187904
118.9187904
118.9187904
118.9187904
118.9187904
118.9187904
118.9187904
118.9187904
118.9187904
118.9187904
118.9187904
118.9187904
118.9187904
118.9187904
118.9187904
118.9187904
118.9187904
118.9187904
118.9187904
118.9187904
118.9187904
118.9187904
118.9187904
118.9187904
118.9187904
118.9187904
118.9187904
118.9187904
118.9187904
118.9187904
118.9187904
118.9187904
118.9187904
118.9187904
118.9187904
118.9187904
118.9187904
118.9187904
118.9187904
118.9187904
118.9187904
118.9187904
118.9187904
118.9187904
118.9187904
118.9187904
118.9187904
118.9187904
118.9187904
118.9187904
118.9187904
118.9187904
118.9187904
118.9187904
118.9187904
118.9187904
118.9187904
118.9187904
118.9187904
118.9187904
118.9187904
118.9187904
118.9187904
118.9187904
118.9187904
118.9187904
118.9187904
118.9187904
118.9187904
118.9187904
118.9187904
118.9187904
118.9187904
118.9187904
118.9187904
118.9187904
118.9187904
118.9187904
118.9187904
118.9187904
118.9187904
118.9187904
118.9187904
118.9187904
118.9187904
118.9187904
118.9187904
118.9187904
118.9187904
118.9187904
118.9187904
118.9187904
118.9187904
118.9187904
118.9187904
118.9187904
118.9187904
118.9187904
118.9187904
118.9187904
118.9187904
118.9187904
118.9187904
118.9187904
118.9187904
118.9187904
118.9187904
118.9187904
118.9187904
118.9187904
118.9187904
118.9187904
118.9187904
118.9187904
118.9187904
118.9187904
118.9187904
118.9187904
118.9187904
118.9187904
118.9187904
118.9187904
118.9187904
118.9187904
118.9187904
118.9187904
118.9187904
118.9187904
118.9187904
118.9187904
118.9187904
118.9187904
118.9187904
118.9187904
118.9187904
118.9187904
118.9187904
118.9187904
118.9187904
118.9187904
118.9187904
118.9187904
118.9187904
118.9187904
118.9187904
118.9187904
118.9187904
118.9187904
118.9187904
118.9187904
118.9187904
118.9187904
118.9187904
118.9187904
118.9187904
118.9187904
118.9187904
118.9187904
118.9187904
118.9187904
118.9187904
118.9187904
118.9187904
118.9187904
118.9187904
118.9187904
118.9187904
118.9187904
118.9187904
118.9187904
118.9187904
118.9187904
118.9187904
118.9187904
118.9187904
118.9187904
118.9187904
118.9187904
118.9187904
118.9187904
118.9187904
118.9187904
118.9187904
118.9187904
118.9187904
118.9187904
118.9187904
118.9187904
118.9187904
118.9187904
118.9187904
118.9187904
118.9187904
118.9187904
118.9187904
118.9187904
118.9187904
118.9187904
118.9187904
118.9187904
118.9187904
118.9187904
118.9187904
118.9187904
118.9187904
118.9187904
118.9187904
118.9187904
118.9187904
118.9187904
118.9187904
118.9187904
118.9187904
118.9187904
118.9187904
118.9187904
118.9187904
118.9187904
118.9187904
118.9187904
118.9187904
118.9187904
118.9187904
118.9187904
118.9187904
118.9187904
118.9187904
118.9187904
118.9187904
118.9187904
118.9187904
118.9187904
118.9187904
118.9187904
118.9187904
118.9187904
118.9187904
118.9187904
118.9187904
118.9187904
118.9187904
118.9187904
118.9187904
118.9187904
118.9187904
118.9187904
118.9187904
118.9187904
118.9187904
118.9187904
118.9187904
118.9187904
118.9187904
118.9187904
118.9187904
118.9187904
118.9187904
118.9187904
118.9187904
118.9187904
118.9187904
118.9187904
118.9187904
118.9187904
118.9187904
118.9187904
118.9187904
118.9187904
118.9187904
118.9187904
118.9187904
118.9187904
118.9187904
118.9187904
118.9187904
118.9187904
118.9187904
118.9187904
118.9187904
118.9187904
118.9187904
118.9187904
118.9187904
118.9187904
118.9187904
118.9187904
118.9187904
118.9187904
118.9187904
118.9187904
118.9187904
118.9187904
118.9187904
118.9187904
118.9187904
118.9187904
118.9187904
118.9187904
118.9187904
118.9187904
118.9187904
118.9187904
118.9187904
118.9187904
118.9187904
118.9187904
118.9187904
118.9187904
118.9187904
118.9187904
118.9187904
118.9187904
118.9187904
118.9187904
118.9187904
118.9187904
118.9187904
118.9187904
118.9187904
118.9187904
118.9187904
118.9187904
118.9187904
118.9187904
118.9187904
118.9187904
118.9187904
118.9187904
118.9187904
118.9187904
118.9187904
118.9187904
118.9187904
118.9187904
118.9187904
118.9187904
118.9187904
118.9187904
118.9187904
118.9187904
118.9187904
118.9187904
118.9187904
118.9187904
118.9187904
118.9187904
118.9187904
118.9187904
118.9187904
118.9187904
118.9187904
118.9187904
118.9187904
118.9187904
118.9187904
118.9187904
118.9187904
118.9187904
118.9187904
118.9187904
118.9187904
118.9187904
118.9187904
118.9187904
118.9187904
118.9187904
118.9187904
118.9187904
118.9187904
118.9187904
118.9187904
118.9187904
118.9187904
118.9187904
118.9187904
118.9187904
118.9187904
118.9187904
118.9187904
118.9187904
118.9187904
118.9187904
118.9187904
118.9187904
118.9187904
118.9187904
118.9187904
118.9187904
118.9187904
118.9187904
118.9187904
118.9187904
118.9187904
118.9187904
118.9187904
118.9187904
118.9187904
118.9187904
118.9187904
118.9187904
118.9187904
118.9187904
118.9187904
118.9187904
118.9187904
118.9187904
118.9187904
118.9187904
118.9187904
118.9187904
118.9187904
118.9187904
118.9187904
118.9187904
118.9187904
118.9187904
118.9187904
118.9187904
118.9187904
118.9187904
118.9187904
118.9187904
118.9187904
118.9187904
118.9187904
118.9187904
118.9187904
118.9187904
118.9187904
118.9187904
118.9187904
118.9187904
118.9187904
118.9187904
118.9187904
118.9187904
118.9187904
118.9187904
118.9187904
118.9187904
118.9187904
118.9187904
118.9187904
118.9187904
118.9187904
118.9187904
118.9187904
118.9187904
118.9187904
118.9187904
118.9187904
118.9187904
118.9187904
118.9187904
118.9187904
118.9187904
118.9187904
118.9187904
118.9187904
118.9187904
118.9187904
118.9187904
118.9187904
118.9187904
118.9187904
118.9187904
118.9187904
118.9187904
118.9187904
118.9187904
118.9187904
118.9187904
118.9187904
118.9187904
118.9187904
118.9187904
118.9187904
118.9187904
118.9187904
118.9187904
118.9187904
118.9187904
118.9187904
118.9187904
118.9187904
118.9187904
118.9187904
118.9187904
118.9187904
118.9187904
118.9187904
118.9187904
118.9187904
118.9187904
118.9187904
118.9187904
118.9187904
118.9187904
118.9187904
118.9187904
118.9187904
118.9187904
118.9187904
118.9187904
118.9187904
118.9187904
118.9187904
118.9187904
118.9187904
118.9187904
118.9187904
118.9187904
118.9187904
118.9187904
118.9187904
118.9187904
118.9187904
118.9187904
118.9187904
118.9187904
118.9187904
118.9187904
118.9187904
118.9187904
118.9187904
118.9187904
118.9187904
118.9187904
118.9187904
118.9187904
118.9187904
118.9187904
118.9187904
118.9187904
118.9187904
118.9187904
118.9187904
118.9187904
118.9187904
118.9187904
118.9187904
118.9187904
118.9187904
118.9187904
118.9187904
118.9187904
118.9187904
118.9187904
118.9187904
118.9187904
118.9187904
118.9187904
118.9187904
118.9187904
118.9187904
118.9187904
118.9187904
118.9187904
118.9187904
118.9187904
118.9187904
118.9187904
118.9187904
118.9187904
118.9187904
118.9187904
118.9187904
118.9187904
118.9187904
118.9187904
118.9187904
118.9187904
118.9187904
118.9187904
118.9187904
118.9187904
118.9187904
118.9187904
118.9187904
118.9187904
118.9187904
118.9187904
118.9187904
118.9187904
118.9187904
118.9187904
118.9187904
118.9187904
118.9187904
118.9187904
118.9187904
118.9187904
118.9187904
118.9187904
118.9187904
118.9187904
118.9187904
118.9187904
118.9187904
118.9187904
118.9187904
118.9187904
118.9187904
118.9187904
118.9187904
118.9187904
118.9187904
118.9187904
118.9187904
118.9187904
118.9187904
118.9187904
118.9187904
118.9187904
118.9187904
118.9187904
118.9187904
118.9187904
118.9187904
118.9187904
118.9187904
118.9187904
118.9187904
118.9187904
118.9187904
118.9187904
118.9187904
118.9187904
118.9187904
118.9187904
118.9187904
118.9187904
118.9187904
118.9187904
118.9187904
118.9187904
118.9187904
118.9187904
118.9187904
118.9187904
118.9187904
118.9187904
118.9187904
118.9187904
118.9187904
118.9187904
118.9187904
118.9187904
118.9187904
118.9187904
118.9187904
118.9187904
118.9187904
118.9187904
118.9187904
118.9187904
118.9187904
118.9187904
118.9187904
118.9187904
118.9187904
118.9187904
118.9187904
118.9187904
118.9187904
118.9187904
118.9187904
118.9187904
118.9187904
118.9187904
118.9187904
118.9187904
118.9187904
118.9187904
118.9187904
118.9187904
118.9187904
118.9187904
118.9187904
118.9187904
118.9187904
118.9187904
118.9187904
118.9187904
118.9187904
118.9187904
118.9187904
118.9187904
118.9187904
118.9187904
118.9187904
118.9187904
118.9187904
118.9187904
118.9187904
118.9187904
118.9187904
118.9187904
118.9187904
118.9187904
118.9187904
118.9187904
118.9187904
118.9187904
118.9187904
118.9187904
118.9187904
118.9187904
118.9187904
118.9187904
118.9187904
118.9187904
118.9187904
118.9187904
118.9187904
118.9187904
118.9187904
118.9187904
118.9187904
118.9187904
118.9187904
118.9187904
118.9187904
118.9187904
118.9187904
118.9187904
118.9187904
118.9187904
118.9187904
118.9187904
118.9187904
118.9187904
118.9187904
118.9187904
118.9187904
118.9187904
118.9187904
118.9187904
118.9187904
118.9187904
118.9187904
118.9187904
118.9187904
118.9187904
118.9187904
118.9187904
118.9187904
118.9187904
118.9187904
118.9187904
118.9187904
118.9187904
118.9187904
118.9187904
118.9187904
118.9187904
118.9187904
118.9187904
118.9187904
118.9187904
118.9187904
118.9187904
118.9187904
118.9187904
118.9187904
118.9187904
118.9187904
118.9187904
118.9187904
118.9187904
118.9187904
118.9187904
118.9187904
118.9187904
118.9187904
118.9187904
118.9187904
118.9187904
118.9187904
118.9187904
118.9187904
118.9187904
118.9187904
118.9187904
118.9187904
118.9187904
118.9187904
118.9187904
118.9187904
118.9187904
118.9187904
118.9187904
118.9187904
118.9187904
118.9187904
118.9187904
118.9187904
118.9187904
118.9187904
118.9187904
118.9187904
118.9187904
118.9187904
118.9187904
118.9187904
118.9187904
118.9187904
118.9187904
118.9187904
118.9187904
118.9187904
118.9187904
118.9187904
118.9187904
118.9187904
118.9187904
118.9187904
118.9187904
118.9187904
118.9187904
118.9187904
118.9187904
118.9187904
118.9187904
118.9187904
118.9187904
118.9187904
118.9187904
118.9187904
118.9187904
118.9187904
118.9187904
118.9187904
118.9187904
118.9187904
118.9187904
118.9187904
118.9187904
118.9187904
118.9187904
118.9187904
118.9187904
118.9187904
118.9187904
118.9187904
118.9187904
118.9187904
118.9187904
118.9187904
118.9187904
118.9187904
118.9187904
118.9187904
118.9187904
118.9187904
118.9187904
118.9187904
118.9187904
118.9187904
118.9187904
118.9187904
118.9187904
118.9187904
118.9187904
118.9187904
118.9187904
118.9187904
118.9187903
118.9187903
118.9187903
118.9187903
118.9187903
118.9187903
118.9187903
118.9187903
118.9187903
118.9187903
118.9187903
118.9187902
118.9187902
118.9187902
118.9187901
118.9187901
118.91879
118.9187899
118.9187898
118.9187897
118.9187896
118.9187894
118.9187892
118.9187889
118.9187885
118.9187881
118.9187876
118.918787
118.9187863
118.9187854
118.9187843
118.918783
118.9187814
118.9187796
118.9187772
118.9187745
118.9187711
118.9187674
118.9187621
118.9187569
118.9187497
118.9187418
118.9187322
118.9187205
118.9187071
118.9186904
118.9186717
118.9186484
118.9186221
118.9185893
118.9185529
118.9185073
118.9184569
118.9183937
118.9183226
118.9182387
118.918146
118.9180188
118.9178961
118.9177336
118.9175572
118.9173472
118.9170995
118.9168213
118.9164865
118.916116
118.9156681
118.9151751
118.9145819
118.9139311
118.9131438
118.9122849
118.9112603
118.9101306
118.9087811
118.9073186
118.9055588
118.9036782
118.9013979
118.8988996
118.8960405
118.8929933
118.8889959
118.8852035
118.8803284
118.8752497
118.8694434
118.8627452
118.8553414
118.8469838
118.8380364
118.8271687
118.8163034
118.8022046
118.7890148
118.7727969
118.7550653
118.7358316
118.7138081
118.6900887
118.6630319
118.6346075
118.6017718
118.5684192
118.5256481
118.4866532
118.4391087
118.3888951
118.3332796
118.2721217
118.2072215
118.1341673
118.0573998
117.9719632
117.8818399
117.7809683
117.6754726
117.558263
117.4371268
117.2997448
117.1578931
117.0026678
116.8458856
116.6570111
116.4789959
116.2691385
116.0634861
115.8323706
115.5906006
115.3344345
115.0596052
114.7744018
114.4665489
114.1492074
113.807167
113.4554583
113.0774646
112.6898486
112.2747055
111.8494421
111.3961119
110.932864
110.4401418
109.9374653
109.4054809
108.8640639
108.2925086
107.7109023
107.1009819
106.4823323
105.8319602
105.1752833
104.4899337
103.7980928
103.0735652
102.3554
101.5942893
100.8436266
100.0558835
99.29233922
98.45210827
97.67193983
96.83258194
96.01319028
95.15927261
94.31624879
93.45660882
92.59699177
91.73740911
90.85830283
90.00146757
89.0872715
88.24076053
87.3701684
86.57980014
85.76399311
84.99659043
84.21250444
83.46574604
82.71089898
81.98726745
81.26261187
80.56557623
79.87267246
79.20661534
78.54770693
77.91642318
77.29399389
76.70059372
76.11717718
75.56393126
75.02092669
74.50821123
74.00491546
73.53084927
73.06495172
72.62673458
72.1959861
71.79171513
71.39516693
71.02443684
70.66216688
70.32514498
69.99712798
69.69346973
69.39896649
69.12765735
68.86543012
68.62516969
68.39375663
68.18300861
67.98053622
67.79714711
67.62100675
67.46199664
67.3089434
67.17087886
67.03762296
66.91735917
66.80123222
66.69650452
66.59576672
66.50528764
66.4189466
66.34202221
66.26933046
66.20526621
66.14520766
66.09284579
66.04387355
66.00147711
65.96161396
65.92712164
65.89432133
65.86576951
65.83830672
65.81418754
65.79088574
65.77029031
65.75052202
65.73305672
65.71657247
65.70213774
65.68883949
65.67740166
65.66715407
65.65856334
65.65108009
65.64500013
65.63983083
65.63578079
65.63238023
65.62980545
65.62764482
65.62599993
65.62464457
65.62352248
65.62252692
65.62170742
65.62088698
65.61998237
65.61891375
65.61765847
65.61613395
65.61424899
65.6122542
65.61014073
65.60784931
65.60548365
65.60288802
65.60031387
65.59777698
65.59532267
65.59297921
65.59080973
65.58882307
65.58710194
65.58568769
65.58463486
65.58395854
65.58359164
65.58348888
65.58363189
65.58404099
65.584709
65.58559314
65.58659953
65.58779564
65.58898324
65.59031722
65.59159899
65.59291495
65.5940139
65.59482025
65.59527968
65.59543982
65.59536756
65.5951217
65.59468199
65.59403665
65.5931628
65.59208558
65.59089687
65.58961742
65.5883627
65.58724215
65.58632596
65.5856626
65.58527198
65.58510598
65.58509499
65.5852361
65.58558153
65.58615619
65.58690757
65.58782325
65.58884218
65.58995316
65.59110409
65.59231362
65.59349941
65.59464818
65.59569644
65.5965253
65.5971078
65.59741401
65.59749761
65.59745801
65.59728343
65.59692832
65.59637984
65.59563638
65.59471125
65.59370894
65.59262816
65.59157262
65.5905474
65.58962707
65.58890415
65.58841316
65.58815799
65.58809158
65.5881628
65.58835988
65.58870601
65.58920061
65.58986628
65.590627
65.59142536
65.59227305
65.59308125
65.59383118
65.59443634
65.59487804
65.59513521
65.59522838
65.59522714
65.5951353
65.59491735
65.59454888
65.59405785
65.593487
65.59282484
65.5921503
65.59140913
65.5906868
65.58991148
65.58915708
65.5884231
65.58770772
65.58704445
65.58640138
65.58582039
65.58529245
65.58483726
65.58446169
65.58417213
65.58398179
65.58389457
65.58387774
65.58392235
65.58404638
65.58426501
65.58457717
65.58495936
65.58543012
65.58595235
65.58654793
65.58717074
65.5878475
65.58853086
65.58924888
65.58995808
65.59066015
65.59133575
65.59194538
65.59248037
65.5929303
65.59330362
65.59362719
65.59391963
65.59417877
65.59440735
65.59460807
65.59480028
65.59498651
65.59517862
65.59538102
65.59560719
65.59586511
65.59616649
65.59650605
65.59686939
65.59725407
65.5976666
65.59810562
65.59857291
65.59904369
65.59953758
65.60003285
65.60052564
65.60102201
65.60150963
65.60198871
65.60244349
65.60287678
65.60326813
65.60361715
65.6039108
65.60416529
65.60431152
65.60436759
65.60435749
65.60427956
65.60411818
65.60388163
65.60357033
65.60316369
65.60267159
65.60210884
65.60145306
65.60073523
65.59992317
65.59906026
65.5981036
65.59710968
65.59603133
65.59494637
65.59378958
65.59265412
65.59145941
65.59029952
65.58909119
65.58791205
65.58674781
65.58562998
65.58456376
65.583555
65.58261622
65.58175258
65.58098616
65.58031905
65.57975059
65.57926261
65.57885364
65.57853507
65.57831401
65.5782023
65.57818663
65.57823349
65.57833696
65.57850993
65.5787257
65.57900608
65.57929698
65.57967211
65.58004235
65.58054479
65.58098077
65.58147115
65.5818638
65.58226356
65.58259002
65.58289102
65.58312961
65.58333389
65.58348541
65.58361228
65.58369832
65.58377059
65.58382777
65.58388729
65.58395232
65.58403062
65.58412651
65.58424427
65.58439393
65.58457055
65.58479569
65.5850516
65.58536596
65.58569998
65.58608704
65.58646274
65.58689399
65.58728344
65.58772807
65.58811921
65.58856105
65.58892746
65.58926736
65.58952224
65.58969739
65.58977846
65.5897961
65.58975428
65.58963785
65.58946965
65.58924334
65.58895989
65.5886014
65.58819673
65.58776584
65.58729371
65.58683882
65.58634096
65.58587695
65.58540044
65.58492675
65.58450366
65.5840859
65.58372984
65.58341695
65.58315681
65.58294023
65.58276186
65.58265585
65.58261024
65.58260636
65.5826381
65.58271273
65.58282855
65.58297944
65.58317345
65.5833858
65.58364056
65.58391635
65.58421519
65.58454205
65.58488495
65.58524314
65.58560921
65.58596892
65.58631794
65.58664963
65.58695775
65.58723782
65.58747816
65.58768084
65.5878365
65.58793432
65.58797161
65.58796612
65.58792409
65.58783248
65.58769613
65.58751054
65.58728583
65.5870151
65.58671732
65.58638357
65.586034
65.58566245
65.58528948
65.58489993
65.58451574
65.5841498
65.58379865
65.58347854
65.58320874
65.58299149
65.5827988
65.58263306
65.58250157
65.58240922
65.58235897
65.58234684
65.58235948
65.58240515
65.58247896
65.58258362
65.5827085
65.58286525
65.58303703
65.58323844
65.58345113
65.58368937
65.5839363
65.58420505
65.5844833
65.58478309
65.58509505
65.58542831
65.5857739
65.58613582
65.58650595
65.58688553
65.58727033
65.58766489
65.58806692
65.58848455
65.58889408
65.58931904
65.58969459
65.59010602
65.59045803
65.59082168
65.59113711
65.5914271
65.59168642
65.59190858
65.59209687
65.59220869
65.59225704
65.59225903
65.59221423
65.59210998
65.59194474
65.59171366
65.5914211
65.59107621
65.59067583
65.59021321
65.58970016
65.58911448
65.58849686
65.58783469
65.58713154
65.58640928
65.58563671
65.5848679
65.58404479
65.58323787
65.582384
65.58154915
65.58067538
65.57979538
65.57893649
65.57808663
65.57727986
65.57652069
65.57579804
65.57516304
65.57456626
65.57409095
65.57367495
65.57335591
65.57310933
65.57298647
65.57295121
65.57298038
65.57307665
65.57325058
65.57348675
65.57378661
65.57414198
65.57456465
65.57503347
65.57554299
65.57609681
65.57666801
65.57728121
65.57788693
65.57853421
65.57917097
65.57984851
65.58050089
65.58114425
65.5817572
65.58234748
65.58290537
65.58342206
65.58389398
65.58431518
65.58468893
65.58501211
65.58528857
65.58551578
65.58570207
65.58584445
65.58594381
65.58599889
65.58600821
65.58598849
65.58593958
65.58586297
65.58575692
65.58562819
65.5854707
65.58529659
65.5850965
65.58488366
65.58464823
65.58440371
65.58414217
65.58387753
65.58359816
65.58331684
65.58302168
65.58272441
65.5824256
65.58213264
65.58185244
65.58158262
65.58133162
65.58110902
65.58092387
65.58077524
65.58064647
65.58053746
65.58045508
65.58040233
65.58038118
65.58038005
65.58040408
65.58044886
65.58052258
65.5806112
65.58072982
65.58085863
65.58101506
65.58117916
65.58136653
65.5815596
65.5817698
65.58198088
65.58220168
65.58241876
65.58264024
65.58285772
65.58308227
65.58330911
65.58353865
65.58376689
65.58399501
65.58422618
65.58445377
65.58468442
65.58491481
65.58514546
65.58537491
65.58559502
65.5858162
65.5860308
65.58623626
65.58643267
65.58661535
65.58678654
65.58693893
65.58706978
65.58717546
65.58725454
65.58730147
65.5873146
65.5872936
65.58723653
65.58714133
65.58700741
65.58683342
65.58661904
65.58636412
65.58607055
65.58573695
65.58536927
65.58496441
65.58453112
65.58406514
65.58357601
65.58306268
65.58253896
65.58200753
65.58146912
65.58092906
65.58040165
65.57990168
65.57943681
65.57900132
65.57860711
65.57824969
65.57793483
65.57766178
65.57743383
65.57725344
65.57712359
65.57703791
65.576998
65.57699849
65.57703548
65.5771094
65.57721797
65.57735511
65.57752038
65.57770578
65.57791253
65.57813529
65.57836529
65.57859899
65.578834
65.57905868
65.57925662
65.57942188
65.57956146
65.57967682
65.57976196
65.57981207
65.57981987