/*--------------------------------*- C++ -*----------------------------------*\
| =========                 |                                                 |
| \\      /  F ield         | OpenFOAM: The Open Source CFD Toolbox           |
|  \\    /   O peration     | Version:  2012                                  |
|   \\  /    A nd           | Website:  www.openfoam.com                      |
|    \\/     M anipulation  |                                                 |
\*---------------------------------------------------------------------------*/
FoamFile
{
    version     2.0;
    format      ascii;
    class       volScalarField;
    location    "0.0001";
    object      T;
}
// * * * * * * * * * * * * * * * * * * * * * * * * * * * * * * * * * * * * * //

dimensions      [0 0 0 1 0 0 0];


internalField   nonuniform List<scalar> 
5000
(
293
293
293
293
293
293
293
293
293
293
293
293
293
293
293
293
293
293
293
293
293
293
293
293
293
293
293
293
293
293
293
293
293
293
293
293
293
293
293
293
293
293
293
293
293
293
293
293
293
293
293
293
293
293
293
293
293
293
293
293
293
293
293
293
293
293
293
293
293
293
293
293
293
293
293
293
293
293
293
293
293
293
293
293
293
293
293
293
293
293
293
293
293
293
293
293
293
293
293
293
293
293
293
293
293
293
293
293
293
293
293
293
293
293
293
293
293
293
293
293
293
293
293
293
293
293
293
293
293
293
293
293
293
293
293
293
293
293
293
293
293
293
293
293
293
293
293
293
293
293
293
293
293
293
293
293
293
293
293
293
293
293
293
293
293
293
293
293
293
293
293
293
293
293
293
293
293
293
293
293
293
293
293
293
293
293
293
293
293
293
293
293
293
293
293
293
293
293
293
293
293
293
293
293
293
293
293
293
293
293
293
293
293
293
293
293
293
293
293
293
293
293
293
293
293
293
293
293
293
293
293
293
293
293
293
293
293
293
293
293
293
293
293
293
293
293
293
293
293
293
293
293
293
293
293
293
293
293
293
293
293
293
293
293
293
293
293
293
293
293
293
293
293
293
293
293
293
293
293
293
293
293
293
293
293
293
293
293
293
293
293
293
293
293
293
293
293
293
293
293
293
293
293
293
293
293
293
293
293
293
293
293
293
293
293
293
293
293
293
293
293
293
293
293
293
293
293
293
293
293
293
293
293
293
293
293
293
293
293
293
293
293
293
293
293
293
293
293
293
293
293
293
293
293
293
293
293
293
293
293
293
293
293
293
293
293
293
293
293
293
293
293
293
293
293
293
293
293
293
293
293
293
293
293
293
293
293
293
293
293
293
293
293
293
293
293
293
293
293
293
293
293
293
293
293
293
293
293
293
293
293
293
293
293
293
293
293
293
293
293
293
293
293
293
293
293
293
293
293
293
293
293
293
293
293
293
293
293
293
293
293
293
293
293
293
293
293
293
293
293
293
293
293
293
293
293
293
293
293
293
293
293
293
293
293
293
293
293
293
293
293
293
293
293
293
293
293
293
293
293
293
293
293
293
293
293
293
293
293
293
293
293
293
293
293
293
293
293
293
293
293
293
293
293
293
293
293
293
293
293
293
293
293
293
293
293
293
293
293
293
293
293
293
293
293
293
293
293
293
293
293
293
293
293
293
293
293
293
293
293
293
293
293
293
293
293
293
293
293
293
293
293
293
293
293
293
293
293
293
293
293
293
293
293
293
293
293
293
293
293
293
293
293
293
293
293
293
293
293
293
293
293
293
293
293
293
293
293
293
293
293
293
293
293
293
293
293
293
293
293
293
293
293
293
293
293
293
293
293
293
293
293
293
293
293
293
293
293
293
293
293
293
293
293
293
293
293
293
293
293
293
293
293
293
293
293
293
293
293
293
293
293
293
293
293
293
293
293
293
293
293
293
293
293
293
293
293
293
293
293
293
293
293
293
293
293
293
293
293
293
293
293
293
293
293
293
293
293
293
293
293
293
293
293
293
293
293
293
293
293
293
293
293
293
293
293
293
293
293
293
293
293
293
293
293
293
293
293
293
293
293
293
293
293
293
293
293
293
293
293
293
293
293
293
293
293
293
293
293
293
293
293
293
293
293
293
293
293
293
293
293
293
293
293
293
293
293
293
293
293
293
293
293
293
293
293
293
293
293
293
293
293
293
293
293
293
293
293
293
293
293
293
293
293
293
293
293
293
293
293
293
293
293
293
293
293
293
293
293
293
293
293
293
293
293
293
293
293
293
293
293
293
293
293
293
293
293
293
293
293
293
293
293
293
293
293
293
293
293
293
293
293
293
293
293
293
293
293
293
293
293
293
293
293
293
293
293
293
293
293
293
293
293
293
293
293
293
293
293
293
293
293
293
293
293
293
293
293
293
293
293
293
293
293
293
293
293
293
293
293
293
293
293
293
293
293
293
293
293
293
293
293
293
293
293
293
293
293
293
293
293
293
293
293
293
293
293
293
293
293
293
293
293
293
293
293
293
293
293
293
293
293
293
293
293
293
293
293
293
293
293
293
293
293
293
293
293
293
293
293
293
293
293
293
293
293
293
293
293
293
293
293
293
293
293
293
293
293
293
293
293
293
293
293
293
293
293
293
293
293
293
293
293
293
293
293
293
293
293
293
293
293
293
293
293
293
293
293
293
293
293
293
293
293
293
293
293
293
293
293
293
293
293
293
293
293
293
293
293
293
293
293
293
293
293
293
293
293
293
293
293
293
293
293
293
293
293
293
293
293
293
293
293
293
293
293
293
293
293
293
293
293
293
293
293
293
293
293
293
293
293
293
293
293
293
293
293
293
293
293
293
293
293
293
293
293
293
293
293
293
293
293
293
293
293
293
293
293
293
293
293
293
293
293
293
293
293
293
293
293
293
293
293
293
293
293
293
293
293
293
293
293
293
293
293
293
293
293
293
293
293
293
293
293
293
293
293
293
293
293
293
293
293
293
293
293
293
293
293
293
293
293
293
293
293
293
293
293
293
293
293
293
293
293
293
293
293
293
293
293
293
293
293
293
293
293
293
293
293
293
293
293
293
293
293
293
293
293
293
293
293
293
293
293
293
293
293
293
293
293
293
293
293
293
293
293
293
293
293
293
293
293
293
293
293
293
293
293
293
293
293
293
293
293
293
293
293
293
293
293
293
293
293
293
293
293
293
293
293
293
293
293
293
293
293
293
293
293
293
293
293
293
293
293
293
293
293
293
293
293
293
293
293
293
293
293
293
293
293
293
293
293
293
293
293
293
293
293
293
293
293
293
293
293
293
293
293
293
293
293
293
293
293
293
293
293
293
293
293
293
293
293
293
293
293
293
293
293
293
293
293
293
293
293
293
293
293
293
293
293
293
293
293
293
293
293
293
293
293
293
293
293
293
293
293
293
293
293
293
293
293
293
293
293
293
293
293
293
293
293
293
293
293
293
293
293
293
293
293
293
293
293
293
293
293
293
293
293
293
293
293
293
293
293
293
293
293
293
293
293
293
293
293
293
293
293
293
293
293
293
293
293
293
293
293
293
293
293
293
293
293
293
293
293
293
293
293
293
293
293
293
293
293
293
293
293
293
293
293
293
293
293
293
293
293
293
293
293
293
293
293
293
293
293
293
293
293
293
293
293
293
293
293
293
293
293
293
293
293
293
293
293
293
293
293
293
293
293
293
293
293
293
293
293
293
293
293
293
293
293
293
293
293
293
293
293
293
293
293
293
293
293
293
293
293
293
293
293
293
293
293
293
293
293
293
293
293
293
293
293
293
293
293
293
293
293
293
293
293
293
293
293
293
293
293
293
293
293
293
293
293
293
293
293
293
293
293
293
293
293
293
293
293
293
293
293
293
293
293
293
293
293
293
293
293
293
293
293
293
293
293
293
293
293
293
293
293
293
293
293
293
293
293
293
293
293
293
293
293
293
293
293
293
293
293
293
293
293
293
293
293
293
293
293
293
293
293
293
293
293
293
293
293
293
293
293
293
293
293
293
293
293
293
293
293
293
293
293
293
293
293
293
293
293
293
293
293
293
293
293
293
293
293
293
293
293
293
293
293
293
293
293
293
293
293
293
293
293
293
293
293
293
293
293
293
293
293
293
293
293
293
293
293
293
293
293
293
293
293
293
293
293
293
293
293
293
293
293
293
293
293
293
293
293
293
292.9999999
292.9999999
292.9999999
292.9999999
292.9999999
292.9999999
292.9999998
292.9999998
292.9999997
292.9999997
292.9999996
292.9999995
292.9999994
292.9999993
292.9999992
292.9999991
292.9999988
292.9999986
292.9999983
292.9999981
292.9999976
292.9999972
292.9999966
292.9999961
292.9999952
292.9999945
292.9999933
292.9999923
292.9999907
292.9999893
292.999987
292.9999849
292.9999824
292.9999791
292.9999759
292.9999712
292.999967
292.9999607
292.9999551
292.9999466
292.9999392
292.9999278
292.9999182
292.9999031
292.9998899
292.9998705
292.9998536
292.999827
292.9998053
292.9997716
292.9997423
292.999699
292.9996617
292.9996043
292.999559
292.9994846
292.9994154
292.9993401
292.9992386
292.9991501
292.9990224
292.9989056
292.9987373
292.9986068
292.9983939
292.9982067
292.9979717
292.9977134
292.9974635
292.9971018
292.9968033
292.9963763
292.9960015
292.9954567
292.9950306
292.9943621
292.993827
292.9930522
292.9922971
292.9915228
292.990536
292.9896508
292.9884115
292.9873796
292.9859294
292.9846846
292.982971
292.9815449
292.9794994
292.9778281
292.9754409
292.9735054
292.9707522
292.9684538
292.9652095
292.9627918
292.9589615
292.955697
292.9521057
292.9479958
292.9441702
292.9392594
292.9350363
292.9294294
292.9247044
292.9184175
292.9131446
292.9061429
292.9002842
292.8925386
292.8860573
292.8775438
292.8704132
292.8611065
292.8533076
292.8431527
292.834672
292.8236842
292.8144685
292.802671
292.792791
292.7800251
292.769507
292.75602
292.7447793
292.7304085
292.7188322
292.7034614
292.691307
292.6753972
292.6626617
292.6457612
292.6328769
292.6153973
292.6011537
292.5844348
292.5685133
292.5528154
292.5356032
292.5200967
292.5022072
292.4868429
292.4682863
292.4531267
292.4337773
292.4190552
292.3995169
292.3855878
292.3675812
292.3543317
292.3373318
292.3244534
292.308211
292.2955448
292.279862
292.2673498
292.2521278
292.2399492
292.2254568
292.213877
292.2002617
292.1893933
292.1766514
292.1665378
292.1546896
292.1453381
292.134338
292.1256772
292.1154196
292.1073853
292.0978572
292.0904506
292.0816904
292.0749007
292.0668607
292.0606254
292.0532144
292.0474996
292.0407325
292.0355963
292.0295967
292.0251225
292.0199651
292.0161513
292.0117577
292.0084982
292.0046892
292.001838
291.9984397
291.9958797
291.9927878
291.9904641
291.9876621
291.9855869
291.9831313
291.9813564
291.9793214
291.9778856
291.9762919
291.9751915
291.9739858
291.9731528
291.9722088
291.9715347
291.970726
291.9701213
291.9693533
291.9687624
291.9679994
291.9674175
291.9666885
291.9661522
291.9655221
291.9650771
291.9646004
291.9642805
291.9639844
291.9637981
291.963633
291.9635231
291.9634048
291.9633132
291.9631999
291.9631121
291.9630041
291.9629321
291.9628957
291.9628931
291.9629144
291.9629679
291.9630568
291.9631825
291.9633155
291.9634276
291.9635038
291.963545
291.963559
291.9635452
291.9634839
291.9633665
291.9632007
291.9630242
291.9628316
291.9626593
291.9624871
291.962333
291.962187
291.9620553
291.9619374
291.9618396
291.9617613
291.9617036
291.9616658
291.961646
291.9616397
291.9616469
291.9616752
291.9617311
291.9618125
291.9619105
291.9620341
291.9621512
291.9622977
291.9624165
291.9625247
291.9626026
291.9626573
291.9626896
291.9627028
291.962702
291.9626828
291.9626361
291.9625665
291.962497
291.9624432
291.9624017
291.9623709
291.9623494
291.9623372
291.9623327
291.962336
291.9623416
291.9623422
291.9623365
291.9623222
291.9622973
291.9622614
291.96221
291.9621436
291.9620842
291.9620504
291.962038
291.962038
291.9620486
291.9620762
291.9621204
291.9621756
291.9622287
291.9622687
291.9622957
291.9623105
291.9623163
291.9623136
291.9622967
291.9622618
291.9622197
291.9621843
291.9621591
291.9621439
291.9621373
291.9621383
291.9621516
291.9621887
291.9622548
291.9623289
291.9623869
291.9624258
291.9624485
291.9624578
291.9624588
291.9624545
291.9624416
291.9624131
291.9623599
291.9622787
291.9621887
291.9621168
291.9620673
291.9620358
291.9620188
291.9620133
291.9620141
291.9620182
291.962026
291.962038
291.9620527
291.9620736
291.9620867
291.9620943
291.9620962
291.9620958
291.9620934
291.962091
291.9620896
291.9620903
291.9620954
291.9621082
291.9621319
291.9621681
291.9622177
291.962269
291.962309
291.9623364
291.9623519
291.9623577
291.9623582
291.9623552
291.9623482
291.9623361
291.9623156
291.9622868
291.9622564
291.9622383
291.9622309
291.9622299
291.9622334
291.9622438
291.9622619
291.9622881
291.962323
291.9623679
291.9624248
291.9624953
291.9625666
291.9626239
291.9626656
291.9626924
291.9627064
291.962711
291.9627109
291.9627064
291.9626943
291.9626722
291.9626375
291.9625883
291.9625222
291.9624413
291.9623643
291.9623055
291.9622641
291.9622382
291.9622242
291.9622185
291.9622174
291.9622199
291.9622281
291.9622438
291.9622666
291.9622951
291.9623271
291.9623607
291.9623934
291.9624235
291.9624493
291.96247
291.962485
291.9624953
291.9625011
291.962503
291.9625016
291.9624943
291.9624779
291.9624553
291.9624273
291.9624045
291.9623775
291.9623561
291.9623329
291.9623175
291.962307
291.9623023
291.962301
291.9623023
291.962307
291.9623193
291.9623318
291.9623394
291.9623407
291.9623379
291.96233
291.9623165
291.9622979
291.9622756
291.9622504
291.9622238
291.9621954
291.9621656
291.9621321
291.9620968
291.9620556
291.962018
291.9619744
291.9619363
291.9618924
291.9618545
291.9618169
291.9617915
291.9617757
291.9617692
291.9617674
291.9617697
291.9617774
291.9617945
291.9618162
291.9618503
291.9618913
291.9619498
291.9620212
291.9621165
291.9622183
291.9623207
291.9624014
291.9624645
291.9625103
291.9625403
291.9625566
291.9625627
291.9625633
291.9625595
291.9625486
291.9625274
291.9624933
291.9624422
291.9623741
291.9622867
291.9622092
291.9621475
291.9621069
291.9620824
291.9620718
291.9620687
291.9620711
291.9620781
291.9620921
291.962111
291.9621364
291.9621656
291.9622023
291.9622403
291.9622726
291.9622957
291.9623106
291.9623193
291.9623231
291.9623236
291.9623203
291.9623108
291.9622948
291.9622707
291.9622468
291.9622193
291.9621999
291.9621834
291.9621715
291.9621639
291.9621593
291.9621577
291.9621585
291.9621631
291.9621737
291.9621916
291.9622147
291.9622363
291.9622525
291.9622639
291.9622708
291.9622737
291.9622741
291.9622729
291.9622688
291.9622596
291.962244
291.962219
291.9621834
291.9621374
291.9620808
291.9620241
291.9619767
291.9619394
291.9619116
291.9618923
291.9618808
291.9618758
291.9618748
291.9618759
291.961879
291.9618849
291.9618946
291.9619093
291.9619301
291.9619594
291.9619932
291.9620287
291.9620559
291.9620763
291.9620901
291.9620986
291.9621025
291.9621033
291.9621023
291.9620999
291.962096
291.9620916
291.9620881
291.9620859
291.9620849
291.9620849
291.9620867
291.962091
291.9620983
291.9621058
291.9621106
291.9621126
291.9621127
291.9621119
291.9621101
291.9621067
291.9621023
291.9620952
291.9620875
291.9620785
291.9620725
291.9620693
291.9620684
291.9620689
291.9620717
291.9620781
291.9620898
291.9621072
291.9621315
291.9621616
291.9622008
291.9622403
291.9622857
291.9623264
291.9623632
291.9623939
291.9624187
291.9624369
291.9624508
291.9624586
291.9624621
291.9624625
291.9624595
291.96245
291.9624315
291.9624026
291.9623697
291.9623336
291.9623028
291.962271
291.9622421
291.9622144
291.9621898
291.9621688
291.96215
291.9621342
291.9621191
291.9621057
291.9620947
291.9620871
291.9620837
291.962083
291.9620842
291.9620871
291.962094
291.962104
291.9621222
291.9621436
291.9621749
291.9622012
291.9622278
291.9622474
291.9622596
291.9622663
291.9622683
291.9622671
291.962264
291.9622581
291.9622503
291.9622405
291.9622294
291.9622168
291.9622031
291.9621864
291.9621656
291.9621398
291.9621077
291.9620762
291.9620408
291.9620111
291.9619786
291.9619528
291.961929
291.9619121
291.9618992
291.9618924
291.9618893
291.9618891
291.9618905
291.9618946
291.9619013
291.961911
291.9619224
291.9619362
291.9619503
291.9619668
291.9619834
291.9620031
291.9620236
291.9620482
291.9620753
291.9621076
291.9621384
291.9621641
291.9621833
291.9621962
291.9622041
291.962208
291.9622093
291.9622089
291.9622059
291.9621989
291.9621864
291.9621682
291.9621436
291.9621131
291.9620746
291.96203
291.961976
291.9619276
291.9618793
291.9618412
291.9618098
291.9617842
291.9617638
291.9617475
291.961735
291.9617258
291.96172
291.9617173
291.961717
291.9617195
291.9617275
291.9617424
291.9617648
291.9617941
291.9618305
291.9618725
291.9619223
291.961968
291.9620224
291.9620703
291.9621262
291.962175
291.9622301
291.9622788
291.9623289
291.9623751
291.9624203
291.9624651
291.9625091
291.9625542
291.9625977
291.9626391
291.9626771
291.9627112
291.9627411
291.9627667
291.9627885
291.9628066
291.9628217
291.962834
291.9628434
291.9628501
291.9628539
291.9628553
291.9628547
291.9628508
291.9628413
291.962825
291.9628015
291.9627712
291.9627335
291.9626939
291.9626506
291.9626118
291.9625756
291.9625464
291.962522
291.9625026
291.9624862
291.962473
291.9624613
291.9624514
291.9624419
291.9624331
291.9624241
291.9624152
291.9624052
291.9623949
291.9623828
291.96237
291.9623544
291.9623369
291.9623163
291.9622931
291.9622654
291.9622348
291.9621993
291.9621596
291.962113
291.9620662
291.9620221
291.9619849
291.9619536
291.9619279
291.9619078
291.9618932
291.961884
291.9618792
291.9618776
291.9618778
291.9618797
291.9618843
291.9618919
291.9619026
291.9619156
291.9619309
291.9619477
291.9619646
291.9619805
291.9619947
291.9620072
291.9620177
291.9620263
291.962033
291.9620382
291.9620417
291.9620437
291.9620446
291.9620446
291.9620436
291.9620413
291.9620376
291.9620336
291.9620284
291.9620238
291.9620177
291.9620127
291.9620068
291.9620023
291.9619985
291.9619959
291.9619946
291.9619942
291.9619954
291.9619994
291.9620064
291.9620166
291.96203
291.9620475
291.9620701
291.9620991
291.9621356
291.9621818
291.9622393
291.9623112
291.9624007
291.9625132
291.9626535
291.9628305
291.9630523
291.963333
291.9636863
291.9641338
291.9646988
291.9654145
291.9663185
291.9674616
291.9689027
291.9707175
291.9729964
291.9758509
291.9794141
291.9838465
291.9893387
291.9961167
292.004445
292.0146319
292.0270323
292.0420525
292.0601521
292.0818467
292.1077078
292.1383617
292.1744851
292.2168003
292.2660629
292.323053
292.3885511
292.4633261
292.5480972
292.6435262
292.7501336
292.8685648
292.9979283
293.1281726
293.2466321
293.3536058
293.4493063
293.5343384
293.6093564
293.6750804
293.7322844
293.7817461
293.8242503
293.8605491
293.8913687
293.9173826
293.9392198
293.9574498
293.9725894
293.9850977
293.9953814
294.0037956
294.0106488
294.0162059
294.0206934
294.0243027
294.0271948
294.0295043
294.0313425
294.0328015
294.0339563
294.0348683
294.035587
294.0361518
294.0365946
294.036941
294.0372109
294.0374206
294.0375828
294.0377073
294.0378022
294.0378736
294.0379268
294.037965
294.0379908
294.0380059
294.0380128
294.0380145
294.0380137
294.0380106
294.0380048
294.0379961
294.0379855
294.0379734
294.0379588
294.037946
294.0379307
294.0379186
294.0379041
294.0378926
294.0378795
294.037869
294.0378577
294.0378486
294.037839
294.0378313
294.0378236
294.0378172
294.0378112
294.0378061
294.0378019
294.037798
294.0377947
294.037792
294.0377897
294.0377883
294.0377875
294.0377875
294.0377879
294.037789
294.0377908
294.0377936
294.0377975
294.0378026
294.0378087
294.0378161
294.0378245
294.0378341
294.0378443
294.0378549
294.0378655
294.0378774
294.037888
294.0378972
294.037904
294.0379091
294.037912
294.0379132
294.0379135
294.0379123
294.0379093
294.0379028
294.037892
294.0378775
294.0378596
294.0378394
294.037818
294.0377969
294.0377771
294.0377601
294.0377462
294.0377352
294.0377274
294.0377223
294.0377191
294.0377172
294.0377164
294.0377159
294.0377162
294.0377176
294.0377206
294.0377255
294.0377326
294.0377419
294.0377541
294.0377695
294.0377889
294.0378125
294.0378408
294.037874
294.0379132
294.0379521
294.0379877
294.0380147
294.0380351
294.0380487
294.0380571
294.0380623
294.0380648
294.0380654
294.0380642
294.0380602
294.0380529
294.0380421
294.0380285
294.0380124
294.0379937
294.0379733
294.0379535
294.0379382
294.0379291
294.0379257
294.0379258
294.0379277
294.0379322
294.037939
294.0379485
294.037961
294.0379753
294.0379923
294.0380098
294.0380254
294.0380407
294.03805
294.0380543
294.0380548
294.038053
294.0380474
294.0380373
294.0380194
294.0379935
294.0379561
294.0379104
294.0378584
294.0378148
294.0377793
294.0377505
294.0377271
294.0377075
294.0376915
294.0376791
294.037671
294.0376671
294.037667
294.0376722
294.037688
294.0377162
294.0377582
294.0378159
294.0378829
294.0379689
294.0380396
294.0381063
294.038152
294.038186
294.0382076
294.038222
294.0382303
294.0382349
294.0382368
294.0382362
294.0382317
294.0382211
294.0382041
294.038181
294.0381528
294.0381209
294.0380862
294.0380515
294.0380146
294.0379832
294.0379598
294.0379459
294.0379391
294.0379371
294.0379375
294.0379407
294.0379472
294.0379585
294.0379722
294.03799
294.0380063
294.0380261
294.0380445
294.0380607
294.0380701
294.0380733
294.038073
294.0380701
294.038063
294.0380515
294.0380352
294.0380143
294.037988
294.0379564
294.0379197
294.037876
294.0378384
294.0377965
294.0377638
294.0377308
294.0377052
294.0376835
294.0376684
294.0376587
294.0376544
294.0376534
294.0376545
294.0376581
294.0376659
294.0376786
294.0376979
294.0377205
294.0377477
294.0377709
294.0377971
294.03782
294.0378424
294.0378604
294.0378751
294.037887
294.0378966
294.0379043
294.0379104
294.0379151
294.0379188
294.0379216
294.0379236
294.0379251
294.0379261
294.0379267
294.0379269
294.0379267
294.0379256
294.0379233
294.0379193
294.037913
294.037904
294.0378908
294.0378733
294.0378493
294.0378192
294.03778
294.0377463
294.0377222
294.0377094
294.0377037
294.0377028
294.0377042
294.0377095
294.0377198
294.0377367
294.0377604
294.0377927
294.0378336
294.037886
294.0379485
294.0380226
294.0380929
294.0381576
294.0382072
294.038243
294.0382653
294.0382761
294.038279
294.0382775
294.0382723
294.0382624
294.0382473
294.0382275
294.0382027
294.0381759
294.0381514
294.0381328
294.0381195
294.0381123
294.0381097
294.0381104
294.0381151
294.0381282
294.0381512
294.038183
294.0382083
294.0382256
294.0382357
294.0382408
294.0382427
294.0382423
294.0382383
294.0382276
294.0382086
294.0381801
294.0381421
294.0380941
294.0380374
294.0379806
294.0379335
294.0378973
294.0378729
294.0378599
294.0378557
294.0378561
294.0378596
294.0378672
294.0378781
294.0378938
294.0379099
294.0379289
294.0379464
294.0379623
294.0379757
294.0379848
294.0379925
294.0379971
294.038001
294.0380037
294.0380071
294.0380109
294.0380169
294.0380247
294.0380356
294.0380487
294.0380651
294.0380837
294.0381059
294.0381238
294.0381339
294.0381366
294.0381348
294.0381291
294.0381187
294.0381034
294.0380831
294.0380567
294.0380249
294.0379846
294.0379371
294.0378781
294.0378119
294.0377366
294.0376668
294.0376002
294.0375438
294.0374968
294.0374597
294.0374338
294.037419
294.0374135
294.0374136
294.0374177
294.0374274
294.0374428
294.0374655
294.0374939
294.0375325
294.0375778
294.0376349
294.0376903
294.0377456
294.0377896
294.0378275
294.0378564
294.0378793
294.0378945
294.0379038
294.0379073
294.0379076
294.0379058
294.037902
294.0378961
294.0378908
294.0378871
294.0378856
294.0378869
294.037893
294.0379055
294.0379248
294.0379512
294.037984
294.0380246
294.0380634
294.0381078
294.0381424
294.0381768
294.0382006
294.0382207
294.0382319
294.0382387
294.0382403
294.0382405
294.0382386
294.0382355
294.0382287
294.0382205
294.0382091
294.0381958
294.0381798
294.0381608
294.0381395
294.0381121
294.038082
294.0380427
294.0379982
294.0379416
294.037877
294.0378019
294.0377204
294.0376425
294.0375544
294.0374752
294.0374053
294.0373563
294.0373276
294.0373161
294.0373147
294.0373192
294.0373306
294.0373493
294.0373766
294.0374107
294.037456
294.0375079
294.0375782
294.0376536
294.0377486
294.0378308
294.0379183
294.0379866
294.0380406
294.0380788
294.0381025
294.0381135
294.038116
294.0381138
294.0381072
294.0380959
294.0380804
294.0380608
294.0380404
294.0380211
294.0380055
294.0379923
294.0379812
294.0379711
294.0379614
294.0379514
294.0379398
294.037926
294.0379089
294.0378873
294.0378624
294.0378297
294.0377976
294.0377591
294.0377258
294.0376956
294.037675
294.0376624
294.0376565
294.0376553
294.0376581
294.0376679
294.0376888
294.0377248
294.0377723
294.0378178
294.0378512
294.0378739
294.0378892
294.0378977
294.0379005
294.0378975
294.0378837
294.037853
294.0378005
294.0377228
294.0376347
294.0375661
294.0375261
294.0375073
294.037502
294.0375031
294.0375108
294.0375271
294.0375531
294.0375873
294.0376313
294.0376854
294.0377535
294.0378288
294.037897
294.0379415
294.037962
294.0379661
294.0379622
294.0379502
294.0379288
294.0378953
294.0378518
294.0377926
294.0377212
294.0376295
294.0375376
294.0374491
294.0373821
294.0373344
294.0373052
294.0372914
294.0372877
294.0372893
294.037295
294.0373066
294.0373247
294.0373497
294.0373817
294.0374215
294.0374708
294.0375319
294.0376087
294.037703
294.037823
294.0379451
294.0380676
294.0381594
294.0382355
294.0382861
294.038319
294.0383328
294.0383347
294.0383274
294.0383061
294.0382645
294.0381981
294.0381063
294.0380014
294.0379049
294.0378254
294.0377608
294.0377118
294.0376782
294.0376602
294.0376543
294.0376556
294.0376652
294.0376905
294.0377378
294.0378072
294.0378746
294.0379142
294.0379319
294.0379359
294.0379326
294.0379211
294.0378984
294.0378605
294.0378051
294.0377423
294.0376956
294.037671
294.0376647
294.037669
294.037681
294.0376958
294.0377054
294.0377054
294.0376954
294.0376673
294.0376141
294.0375319
294.0374392
294.0373611
294.0373053
294.0372716
294.0372594
294.0372654
294.0372954
294.0373557
294.037434
294.0375078
294.0375673
294.0376065
294.0376232
294.0376192
294.0375826
294.037498
294.0373714
294.0372487
294.037154
294.0370809
294.0370209
294.0369684
294.0369182
294.036862
294.0368007
294.0367057
294.0366257
294.0365181
294.0364486
294.0363728
294.0363353
294.0363079
294.0362981
294.0362902
294.0362606
294.0361675
294.0360228
294.0357451
294.0354026
294.0348659
294.0343333
294.0335607
294.0328733
294.0319223
294.0311321
294.0300856
294.029249
294.0281625
294.0272988
294.0261564
294.0252241
294.0239322
294.0228431
294.0212762
294.0199436
294.0180183
294.0164008
294.0141017
294.0121884
294.0095043
294.0072535
294.0040992
294.0014164
293.9976583
293.9944567
293.9900251
293.9862985
293.9812465
293.9770605
293.9714843
293.9668811
293.9607735
293.9556831
293.9488678
293.943118
293.9353493
293.9287839
293.9199419
293.9125432
293.9027346
293.8946233
293.8840732
293.8753714
293.86418
293.8548482
293.8428139
293.8326385
293.8194261
293.808276
293.7939118
293.7819856
293.7668372
293.7543441
293.7383831
293.725243
293.7083455
293.6946562
293.6770123
293.6630071
293.644594
293.6301091
293.6110469
293.5962892
293.576535
293.5606557
293.5409834
293.5234259
293.5055313
293.4854957
293.4696366
293.449881
293.4345262
293.4151149
293.4003095
293.3815541
293.3669895
293.3490872
293.3350185
293.3179005
293.3043204
293.288265
293.2750787
293.2603692
293.2474489
293.2347525
293.2206056
293.2100748
293.1965356
293.1869709
293.1744276
293.1653683
293.1541798
293.1458304
293.135375
293.1278762
293.1185757
293.1115412
293.1031965
293.0969826
293.0893991
293.083795
293.0770855
293.0720981
293.0661348
293.061718
293.0564699
293.0525477
293.0480572
293.0445006
293.0409288
293.0372784
293.0345453
293.0311854
293.0289708
293.0261134
293.0240388
293.0218295
293.0199972
293.0181604
293.0162714
293.0150385
293.0133902
293.0122852
293.0109455
293.0100234
293.00892
293.0081454
293.0072109
293.0065724
293.0058414
293.0052682
293.0047295
293.0041624
293.003784
293.0033086
293.0030076
293.0026266
293.00237
293.0020738
293.0018722
293.0016218
293.0014614
293.001271
293.0011382
293.0009849
293.0008823
293.0007633
293.0006794
293.0005911
293.0005196
293.0004592
293.0003896
293.0003497
293.0002987
293.0002641
293.0002252
293.0002001
293.0001697
293.0001502
293.000127
293.0001121
293.0000949
293.0000834
293.0000703
293.0000619
293.0000518
293.0000454
293.0000381
293.0000333
293.0000278
293.0000243
293.0000202
293.0000176
293.0000146
293.0000127
293.0000105
293.0000091
293.0000075
293.0000065
293.0000053
293.0000046
293.0000038
293.0000033
293.0000027
293.0000023
293.0000019
293.0000016
293.0000013
293.0000011
293.0000009
293.0000008
293.0000006
293.0000005
293.0000004
293.0000004
293.0000003
293.0000002
293.0000002
293.0000002
293.0000001
293.0000001
293.0000001
293.0000001
293.0000001
293.0000001
293
293
293
293
293
293
293
293
293
293
293
293
293
293
293
293
293
293
293
293
293
293
293
293
293
293
293
293
293
293
293
293
293
293
293
293
293
293
293
293
293
293
293
293
293
293
293
293
293
293
293
293
293
293
293
293
293
293
293
293
293
293
293
293
293
293
293
293
293
293
293
293
293
293
293
293
293
293
293
293
293
293
293
293
293
293
293
293
293
293
293
293
293
293
293
293
293
293
293
293
293
293
293
293
293
293
293
293
293
293
293
293
293
293
293
293
293
293
293
293
293
293
293
293
293
293
293
293
293
293
293
293
293
293
293
293
293
293
293
293
293
293
293
293
293
293
293
293
293
293
293
293
293
293
293
293
293
293
293
293
293
293
293
293
293
293
293
293
293
293
293
293
293
293
293
293
293
293
293
293
293
293
293
293
293
293
293
293
293
293
293
293
293
293
293
293
293
293
293
293
293
293
293
293
293
293
293
293
293
293
293
293
293
293
293
293
293
293
293
293
293
293
293
293
293
293
293
293
293
293
293
293
293
293
293
293
293
293
293
293
293
293
293
293
293
293
293
293
293
293
293
293
293
293
293
293
293
293
293
293
293
293
293
293
293
293
293
293
293
293
293
293
293
293
293
293
293
293
293
293
293
293
293
293
293
293
293
293
293
293
293
293
293
293
293
293
293
293
293
293
293
293
293
293
293
293
293
293
293
293
293
293
293
293
293
293
293
293
293
293
293
293
293
293
293
293
293
293
293
293
293
293
293
293
293
293
293
293
293
293
293
293
293
293
293
293
293
293
293
293
293
293
293
293
293
293
293
293
293
293
293
293
293
293
293
293
293
293
293
293
293
293
293
293
293
293
293
293
293
293
293
293
293
293
293
293
293
293
293
293
293
293
293
293
293
293
293
293
293
293
293
293
293
293
293
293
293
293
293
293
293
293
293
293
293
293
293
293
293
293
293
293
293
293
293
293
293
293
293
293
293
293
293
293
293
293
293
293
293
293
293
293
293
293
293
293
293
293
293
293
293
293
293
293
293
293
293
293
293
293
293
293
293
293
293
293
293
293
293
293
293
293
293
293
293
293
293
293
293
293
293
293
293
293
293
293
293
293
293
293
293
293
293
293
293
293
293
293
293
293
293
293
293
293
293
293
293
293
293
293
293
293
293
293
293
293
293
293
293
293
293
293
293
293
293
293
293
293
293
293
293
293
293
293
293
293
293
293
293
293
293
293
293
293
293
293
293
293
293
293
293
293
293
293
293
293
293
293
293
293
293
293