/*--------------------------------*- C++ -*----------------------------------*\
| =========                 |                                                 |
| \\      /  F ield         | OpenFOAM: The Open Source CFD Toolbox           |
|  \\    /   O peration     | Version:  v2012                                 |
|   \\  /    A nd           | Website:  www.openfoam.com                      |
|    \\/     M anipulation  |                                                 |
\*---------------------------------------------------------------------------*/
FoamFile
{
    version     2.0;
    format      ascii;
    class       volScalarField;
    location    "0.0001";
    object      T;
}
// * * * * * * * * * * * * * * * * * * * * * * * * * * * * * * * * * * * * * //

dimensions      [0 0 0 1 0 0 0];


internalField   nonuniform List<scalar> 
5000
(
293
293
293
293
293
293
293
293
293
293
293
293
293
293
293
293
293
293
293
293
293
293
293
293
293
293
293
293
293
293
293
293
293
293
293
293
293
293
293
293
293
293
293
293
293
293
293
293
293
293
293
293
293
293
293
293
293
293
293
293
293
293
293
293
293
293
293
293
293
293
293
293
293
293
293
293
293
293
293
293
293
293
293
293
293
293
293
293
293
293
293
293
293
293
293
293
293
293
293
293
293
293
293
293
293
293
293
293
293
293
293
293
293
293
293
293
293
293
293
293
293
293
293
293
293
293
293
293
293
293
293
293
293
293
293
293
293
293
293
293
293
293
293
293
293
293
293
293
293
293
293
293
293
293
293
293
293
293
293
293
293
293
293
293
293
293
293
293
293
293
293
293
293
293
293
293
293
293
293
293
293
293
293
293
293
293
293
293
293
293
293
293
293
293
293
293
293
293
293
293
293
293
293
293
293
293
293
293
293
293
293
293
293
293
293
293
293
293
293
293
293
293
293
293
293
293
293
293
293
293
293
293
293
293
293
293
293
293
293
293
293
293
293
293
293
293
293
293
293
293
293
293
293
293
293
293
293
293
293
293
293
293
293
293
293
293
293
293
293
293
293
293
293
293
293
293
293
293
293
293
293
293
293
293
293
293
293
293
293
293
293
293
293
293
293
293
293
293
293
293
293
293
293
293
293
293
293
293
293
293
293
293
293
293
293
293
293
293
293
293
293
293
293
293
293
293
293
293
293
293
293
293
293
293
293
293
293
293
293
293
293
293
293
293
293
293
293
293
293
293
293
293
293
293
293
293
293
293
293
293
293
293
293
293
293
293
293
293
293
293
293
293
293
293
293
293
293
293
293
293
293
293
293
293
293
293
293
293
293
293
293
293
293
293
293
293
293
293
293
293
293
293
293
293
293
293
293
293
293
293
293
293
293
293
293
293
293
293
293
293
293
293
293
293
293
293
293
293
293
293
293
293
293
293
293
293
293
293
293
293
293
293
293
293
293
293
293
293
293
293
293
293
293
293
293
293
293
293
293
293
293
293
293
293
293
293
293
293
293
293
293
293
293
293
293
293
293
293
293
293
293
293
293
293
293
293
293
293
293
293
293
293
293
293
293
293
293
293
293
293
293
293
293
293
293
293
293
293
293
293
293
293
293
293
293
293
293
293
293
293
293
293
293
293
293
293
293
293
293
293
293
293
293
293
293
293
293
293
293
293
293
293
293
293
293
293
293
293
293
293
293
293
293
293
293
293
293
293
293
293
293
293
293
293
293
293
293
293
293
293
293
293
293
293
293
293
293
293
293
293
293
293
293
293
293
293
293
293
293
293
293
293
293
293
293
293
293
293
293
293
293
293
293
293
293
293
293
293
293
293
293
293
293
293
293
293
293
293
293
293
293
293
293
293
293
293
293
293
293
293
293
293
293
293
293
293
293
293
293
293
293
293
293
293
293
293
293
293
293
293
293
293
293
293
293
293
293
293
293
293
293
293
293
293
293
293
293
293
293
293
293
293
293
293
293
293
293
293
293
293
293
293
293
293
293
293
293
293
293
293
293
293
293
293
293
293
293
293
293
293
293
293
293
293
293
293
293
293
293
293
293
293
293
293
293
293
293
293
293
293
293
293
293
293
293
293
293
293
293
293
293
293
293
293
293
293
293
293
293
293
293
293
293
293
293
293
293
293
293
293
293
293
293
293
293
293
293
293
293
293
293
293
293
293
293
293
293
293
293
293
293
293
293
293
293
293
293
293
293
293
293
293
293
293
293
293
293
293
293
293
293
293
293
293
293
293
293
293
293
293
293
293
293
293
293
293
293
293
293
293
293
293
293
293
293
293
293
293
293
293
293
293
293
293
293
293
293
293
293
293
293
293
293
293
293
293
293
293
293
293
293
293
293
293
293
293
293
293
293
293
293
293
293
293
293
293
293
293
293
293
293
293
293
293
293
293
293
293
293
293
293
293
293
293
293
293
293
293
293
293
293
293
293
293
293
293
293
293
293
293
293
293
293
293
293
293
293
293
293
293
293
293
293
293
293
293
293
293
293
293
293
293
293
293
293
293
293
293
293
293
293
293
293
293
293
293
293
293
293
293
293
293
293
293
293
293
293
293
293
293
293
293
293
293
293
293
293
293
293
293
293
293
293
293
293
293
293
293
293
293
293
293
293
293
293
293
293
293
293
293
293
293
293
293
293
293
293
293
293
293
293
293
293
293
293
293
293
293
293
293
293
293
293
293
293
293
293
293
293
293
293
293
293
293
293
293
293
293
293
293
293
293
293
293
293
293
293
293
293
293
293
293
293
293
293
293
293
293
293
293
293
293
293
293
293
293
293
293
293
293
293
293
293
293
293
293
293
293
293
293
293
293
293
293
293
293
293
293
293
293
293
293
293
293
293
293
293
293
293
293
293
293
293
293
293
293
293
293
293
293
293
293
293
293
293
293
293
293
293
293
293
293
293
293
293
293
293
293
293
293
293
293
293
293
293
293
293
293
293
293
293
293
293
293
293
293
293
293
293
293
293
293
293
293
293
293
293
293
293
293
293
293
293
293
293
293
293
293
293
293
293
293
293
293
293
293
293
293
293
293
293
293
293
293
293
293
293
293
293
293
293
293
293
293
293
293
293
293
293
293
293
293
293
293
293
293
293
293
293
293
293
293
293
293
293
293
293
293
293
293
293
293
293
293
293
293
293
293
293
293
293
293
293
293
293
293
293
293
293
293
293
293
293
293
293
293
293
293
293
293
293
293
293
293
293
293
293
293
293
293
293
293
293
293
293
293
293
293
293
293
293
293
293
293
293
293
293
293
293
293
293
293
293
293
293
293
293
293
293
293
293
293
293
293
293
293
293
293
293
293
293
293
293
293
293
293
293
293
293
293
293
293
293
293
293
293
293
293
293
293
293
293
293
293
293
293
293
293
293
293
293
293
293
293
293
293
293
293
293
293
293
293
293
293
293
293
293
293
293
293
293
293
293
293
293
293
293
293
293
293
293
293
293
293
293
293
293
293
293
293
293
293
293
293
293
293
293
293
293
293
293
293
293
293
293
293
293
293
293
293
293
293
293
293
293
293
293
293
293
293
293
293
293
293
293
293
293
293
293
293
293
293
293
293
293
293
293
293
293
293
293
293
293
293
293
293
293
293
293
293
293
293
293
293
293
293
293
293
293
293
293
293
293
293
293
293
293
293
293
293
293
293
293
293
293
293
293
293
293
293
293
293
293
293
293
293
293
293
293
293
293
293
293
293
293
293
293
293
293
293
293
293
293
293
293
293
293
293
293
293
293
293
293
293
293
293
293
293
293
293
293
293
293
293
293
293
293
293
293
293
293
293
293
293
293
293
293
293
293
293
293
293
293
293
293
293
293
293
293
293
293
293
293
293
293
293
293
293
293
293
293
293
293
293
293
293
293
293
293
293
293
293
293
293
293
293
293
293
293
293
293
293
293
293
293
293
293
293
293
293
293
293
293
293
293
293
293
293
293
293
293
293
293
293
293
293
293
293
293
293
293
293
293
293
293
293
293
293
293
293
293
293
293
293
293
293
293
293
293
293
293
293
293
293
293
293
293
293
293
293
293
293
293
293
293
293
293
293
293
293
293
293
293
293
293
293
293
293
293
293
293
293
293
293
293
293
293
293
293
293
293
293
293
293
293
293
293
293
293
293
293
293
293
293
293
293
293
293
293
293
293
293
293
293
293
293
293
293
293
293
293
293
293
293
292.9999999
292.9999999
292.9999999
292.9999999
292.9999999
292.9999999
292.9999998
292.9999998
292.9999997
292.9999997
292.9999996
292.9999996
292.9999995
292.9999994
292.9999992
292.9999991
292.9999989
292.9999988
292.9999985
292.9999982
292.9999979
292.9999975
292.999997
292.9999965
292.9999958
292.9999952
292.9999941
292.9999934
292.9999919
292.9999909
292.9999889
292.9999871
292.9999851
292.9999823
292.9999798
292.9999759
292.9999724
292.9999673
292.9999628
292.9999561
292.9999502
292.9999405
292.9999328
292.999921
292.9999108
292.9998955
292.9998807
292.9998601
292.9998435
292.9998162
292.9997963
292.9997571
292.999728
292.9996866
292.9996421
292.9995987
292.9995319
292.9994864
292.9993925
292.9993292
292.9992273
292.9991276
292.9990233
292.9988827
292.9987575
292.9985772
292.9984241
292.9981992
292.9980105
292.9977303
292.9974964
292.997154
292.9968656
292.9964495
292.9960956
292.9955819
292.995157
292.9945309
292.9940224
292.9932708
292.9926421
292.9917524
292.9909869
292.9899302
292.9890494
292.9877565
292.9867458
292.9851642
292.9839376
292.9822052
292.9807247
292.9787336
292.976948
292.9744319
292.9727164
292.9696912
292.9677313
292.9641565
292.9613951
292.9582718
292.9546955
292.951375
292.9467239
292.9431122
292.9382159
292.934149
292.9284503
292.9236047
292.9172708
292.9124993
292.9050484
292.8995373
292.891369
292.8850046
292.8773013
292.868489
292.8616461
292.8512533
292.8438253
292.8327473
292.8233423
292.8134553
292.8022331
292.7920993
292.7792115
292.7692305
292.7551699
292.744341
292.7298386
292.7182384
292.702826
292.6912255
292.6735774
292.6625275
292.6445686
292.6306373
292.6153356
292.5984933
292.5838062
292.5657903
292.5512765
292.53188
292.5178496
292.4975662
292.4837724
292.4638688
292.4500568
292.4301815
292.4157212
292.3959724
292.3817195
292.3631209
292.3490131
292.330983
292.3168774
292.2993368
292.2855517
292.2686676
292.255328
292.2389086
292.2259728
292.2101092
292.1978172
292.1829224
292.1714762
292.1576019
292.1469181
292.1338633
292.1238156
292.1114852
292.1020077
292.090336
292.0813486
292.0702329
292.0616955
292.0511655
292.0431791
292.0334539
292.0261981
292.0174895
292.0110601
292.0033844
291.9977295
291.990941
291.9859407
291.9798931
291.9754557
291.9700763
291.9661449
291.9613763
291.9578841
291.9536312
291.9504948
291.9466526
291.9438052
291.9403095
291.9377255
291.9345702
291.9322628
291.9294825
291.9274819
291.9251155
291.9234402
291.9214911
291.9201263
291.9185477
291.9174471
291.9161683
291.9152824
291.9142534
291.9135547
291.9127575
291.9122312
291.9116437
291.9112561
291.9108141
291.9105013
291.9101115
291.9098077
291.909401
291.9090761
291.9086435
291.9083131
291.9078987
291.9076035
291.9072662
291.9070404
291.9068129
291.9066641
291.9065398
291.9064513
291.9063895
291.9063338
291.9062877
291.9062448
291.9061991
291.9061494
291.9061026
291.9060523
291.9060196
291.9059782
291.9059476
291.9059096
291.9058767
291.9058488
291.905832
291.905825
291.9058267
291.9058431
291.9058835
291.9059514
291.9060456
291.9061558
291.9062518
291.9063274
291.9063813
291.9064144
291.9064276
291.9064254
291.9064023
291.9063449
291.9062659
291.9061743
291.9061067
291.9060518
291.9060146
291.9059854
291.9059685
291.9059554
291.9059481
291.9059382
291.9059259
291.9059021
291.9058688
291.9058316
291.9057897
291.905755
291.9057271
291.9057102
291.9057037
291.9057105
291.9057351
291.905773
291.9058272
291.9058768
291.9059431
291.9059967
291.9060581
291.9061016
291.906136
291.9061568
291.9061667
291.9061677
291.9061559
291.9061246
291.9060751
291.9060088
291.9059447
291.9058699
291.9058101
291.9057616
291.9057273
291.905705
291.9056926
291.905688
291.9056896
291.9056997
291.9057204
291.9057452
291.9057671
291.9057844
291.9057982
291.9058082
291.9058145
291.9058173
291.9058172
291.9058126
291.9058007
291.9057825
291.9057596
291.9057312
291.9056986
291.9056564
291.9056155
291.9055661
291.905527
291.9054964
291.9054758
291.9054644
291.905461
291.9054673
291.9054904
291.9055353
291.9056003
291.9056632
291.9057437
291.9058066
291.905873
291.9059205
291.9059527
291.9059704
291.9059757
291.9059693
291.9059416
291.9058838
291.9057912
291.9056844
291.9055561
291.9054555
291.9053648
291.9053002
291.9052505
291.9052159
291.9051938
291.9051835
291.9051822
291.9051935
291.9052261
291.9052813
291.9053547
291.9054213
291.9054989
291.9055641
291.9056399
291.9057015
291.9057535
291.9057916
291.9058178
291.9058347
291.9058439
291.9058474
291.9058462
291.9058386
291.9058226
291.9057979
291.9057657
291.9057312
291.9057028
291.9056813
291.9056667
291.9056578
291.905654
291.9056539
291.905658
291.9056674
291.9056809
291.9056917
291.9057023
291.9057081
291.9057109
291.9057107
291.9057063
291.9056926
291.9056671
291.9056281
291.9055762
291.9055229
291.9054622
291.9054086
291.9053454
291.9052944
291.9052542
291.905226
291.9052081
291.9051983
291.9051945
291.905194
291.9051966
291.9052052
291.9052231
291.905253
291.9052966
291.9053571
291.9054221
291.9054954
291.9055579
291.9056128
291.9056542
291.9056842
291.9057039
291.905715
291.9057199
291.905721
291.9057203
291.9057176
291.9057123
291.9057039
291.905692
291.9056762
291.9056571
291.9056333
291.9056124
291.9055862
291.9055643
291.9055358
291.9055124
291.9054824
291.9054578
291.9054274
291.9054022
291.9053787
291.9053626
291.9053519
291.9053459
291.9053434
291.9053431
291.9053449
291.9053508
291.9053624
291.9053777
291.9053963
291.9054115
291.9054249
291.9054341
291.9054402
291.9054433
291.9054443
291.9054438
291.9054412
291.9054357
291.9054315
291.9054309
291.9054331
291.9054383
291.9054465
291.905458
291.9054731
291.9054914
291.9055135
291.9055427
291.9055729
291.9056115
291.9056397
291.9056601
291.9056696
291.9056732
291.9056724
291.9056676
291.9056535
291.9056347
291.9056036
291.9055746
291.9055311
291.9054941
291.9054484
291.9054138
291.9053858
291.9053662
291.9053536
291.9053467
291.9053443
291.9053462
291.9053553
291.9053747
291.9054053
291.9054374
291.9054734
291.9055024
291.9055353
291.9055603
291.9055866
291.9056058
291.9056211
291.9056298
291.9056345
291.9056358
291.9056354
291.905632
291.9056286
291.9056182
291.9056086
291.9055957
291.9055881
291.9055835
291.9055818
291.9055818
291.9055829
291.9055858
291.9055904
291.9055962
291.9056033
291.9056096
291.9056174
291.9056232
291.9056295
291.9056343
291.9056395
291.9056435
291.9056466
291.9056482
291.9056488
291.9056478
291.9056452
291.9056409
291.905634
291.9056275
291.9056175
291.9056095
291.9055987
291.9055912
291.9055839
291.9055803
291.9055786
291.9055786
291.9055807
291.9055875
291.9056004
291.9056159
291.9056266
291.9056308
291.9056307
291.9056276
291.9056211
291.9056119
291.9056012
291.9055889
291.9055747
291.9055575
291.9055359
291.9055086
291.9054743
291.9054319
291.9053919
291.905356
291.9053295
291.9053108
291.9052994
291.905294
291.9052925
291.905293
291.905295
291.9052993
291.9053052
291.9053138
291.9053233
291.9053367
291.9053486
291.9053645
291.9053771
291.9053927
291.9054047
291.9054191
291.9054303
291.9054433
291.9054534
291.9054651
291.9054745
291.9054854
291.9054943
291.9055047
291.9055135
291.9055226
291.9055302
291.9055364
291.9055415
291.9055452
291.9055475
291.9055485
291.9055484
291.905547
291.9055431
291.9055362
291.9055263
291.905513
291.9054977
291.9054789
291.9054621
291.9054411
291.9054232
291.905401
291.9053829
291.9053638
291.9053493
291.9053375
291.9053282
291.9053212
291.9053166
291.9053141
291.9053134
291.9053145
291.9053191
291.9053286
291.9053436
291.9053636
291.9053885
291.9054109
291.9054376
291.9054607
291.9054885
291.9055119
291.9055398
291.9055625
291.9055894
291.9056109
291.905636
291.9056558
291.905678
291.9056951
291.9057122
291.9057249
291.9057363
291.9057451
291.9057528
291.9057587
291.9057632
291.9057663
291.9057681
291.9057688
291.9057685
291.9057665
291.9057617
291.905754
291.9057435
291.9057339
291.9057228
291.9057131
291.9057015
291.9056911
291.9056794
291.9056683
291.9056577
291.9056476
291.9056395
291.9056316
291.9056255
291.9056193
291.905614
291.9056082
291.9056029
291.9055966
291.9055904
291.9055827
291.9055746
291.9055647
291.9055538
291.9055423
291.9055288
291.9055166
291.9055017
291.905489
291.9054744
291.905462
291.9054524
291.9054459
291.9054424
291.905441
291.9054409
291.9054422
291.9054461
291.905453
291.905463
291.9054737
291.9054853
291.9054952
291.9055059
291.9055147
291.9055223
291.905528
291.9055319
291.9055336
291.9055337
291.905532
291.9055275
291.9055211
291.9055134
291.9055068
291.9054991
291.9054926
291.9054867
291.9054832
291.9054819
291.9054819
291.9054828
291.9054851
291.9054893
291.9054969
291.9055089
291.9055278
291.9055522
291.9055844
291.905612
291.9056464
291.9056742
291.9057082
291.9057369
291.9057715
291.9058011
291.9058263
291.9058405
291.9058461
291.9058465
291.9058437
291.9058368
291.9058258
291.9058111
291.905793
291.9057713
291.9057457
291.9057132
291.9056771
291.9056334
291.9055949
291.9055595
291.9055363
291.9055227
291.905517
291.9055158
291.9055177
291.9055238
291.9055354
291.9055532
291.9055773
291.9056087
291.9056465
291.9056879
291.905726
291.9057572
291.9057821
291.9058016
291.9058158
291.9058251
291.9058301
291.905832
291.905831
291.9058252
291.9058124
291.9057921
291.9057688
291.9057431
291.9057199
291.9056963
291.9056767
291.9056605
291.9056474
291.9056363
291.9056274
291.90562
291.9056144
291.9056103
291.9056073
291.9056049
291.9056024
291.9055991
291.9055953
291.9055907
291.9055855
291.9055788
291.905572
291.9055632
291.9055551
291.905544
291.905535
291.9055244
291.905518
291.9055139
291.9055126
291.9055124
291.905514
291.9055168
291.9055225
291.9055288
291.9055385
291.9055491
291.905564
291.9055821
291.9056068
291.9056382
291.9056801
291.9057338
291.9058038
291.9058942
291.9060117
291.9061649
291.9063654
291.906629
291.906976
291.9074323
291.9080326
291.9088187
291.9098471
291.9111861
291.9129243
291.9151714
291.9180649
291.9217759
291.9265163
291.9325481
291.9401935
291.9498468
291.96199
291.9772081
291.9962089
292.0198448
292.0491486
292.0852926
292.1301455
292.1835053
292.2494164
292.308147
292.380562
292.4429767
292.5214968
292.5883316
292.672862
292.7435552
292.8324889
292.905649
292.9966439
293.0703749
293.1607989
293.2330973
293.3204003
293.3895104
293.471654
293.5365006
293.6122825
293.6731092
293.7428109
293.8010099
293.8596709
293.9059675
293.9439376
293.9746063
293.9993673
294.019283
294.0352481
294.0480013
294.0581526
294.0662033
294.0725649
294.0775723
294.0814984
294.0845639
294.0869471
294.0887909
294.0902106
294.0912974
294.0921244
294.0927495
294.0932181
294.0935664
294.0938223
294.0940079
294.0941403
294.0942327
294.0942952
294.0943354
294.0943593
294.0943717
294.0943767
294.0943778
294.0943768
294.0943736
294.0943672
294.0943596
294.094353
294.0943494
294.0943481
294.0943484
294.0943512
294.094359
294.0943736
294.0943971
294.0944289
294.094463
294.0944908
294.0945096
294.0945215
294.0945275
294.0945298
294.09453
294.0945288
294.094525
294.0945175
294.0945053
294.0944872
294.0944618
294.0944278
294.0943834
294.0943314
294.0942836
294.0942488
294.094226
294.0942133
294.0942078
294.0942065
294.0942079
294.0942132
294.0942241
294.0942422
294.0942682
294.0943036
294.0943487
294.0944063
294.0944718
294.0945454
294.0946063
294.0946573
294.0946979
294.0947298
294.0947537
294.0947711
294.0947826
294.0947888
294.0947915
294.0947918
294.0947901
294.0947841
294.0947721
294.0947528
294.0947296
294.0947091
294.0946942
294.0946838
294.0946769
294.0946725
294.09467
294.0946689
294.0946686
294.0946687
294.0946695
294.0946715
294.0946752
294.0946811
294.0946878
294.0946958
294.0947019
294.094709
294.0947145
294.0947211
294.0947264
294.0947333
294.0947387
294.0947433
294.0947452
294.0947457
294.0947453
294.0947438
294.0947407
294.0947352
294.0947277
294.0947176
294.0947048
294.0946891
294.0946698
294.0946462
294.094616
294.0945875
294.0945519
294.0945221
294.0944855
294.0944561
294.094421
294.0943927
294.0943601
294.0943327
294.0943073
294.0942883
294.0942744
294.094265
294.0942597
294.0942575
294.0942571
294.0942579
294.0942603
294.0942652
294.0942732
294.0942854
294.0943026
294.0943261
294.0943543
294.0943894
294.0944196
294.0944558
294.0944862
294.094521
294.0945493
294.0945719
294.0945892
294.0946014
294.0946092
294.0946133
294.0946147
294.0946145
294.0946125
294.0946068
294.0945958
294.0945781
294.0945542
294.0945231
294.0944969
294.0944663
294.0944407
294.0944153
294.0943969
294.0943839
294.094376
294.0943723
294.0943714
294.0943719
294.0943737
294.0943771
294.0943826
294.0943899
294.0944012
294.0944137
294.0944315
294.0944463
294.0944656
294.0944801
294.0944972
294.0945098
294.0945196
294.0945255
294.0945283
294.094529
294.0945283
294.0945263
294.0945226
294.0945166
294.0945095
294.0945004
294.0944927
294.0944834
294.0944756
294.0944673
294.094461
294.094457
294.0944555
294.0944559
294.0944592
294.0944662
294.0944747
294.0944858
294.0944948
294.0945031
294.0945079
294.0945102
294.094511
294.0945111
294.0945102
294.094508
294.0945043
294.0944991
294.0944947
294.0944892
294.0944845
294.0944798
294.0944768
294.0944759
294.0944765
294.0944783
294.0944815
294.094486
294.0944921
294.0944983
294.0945061
294.0945127
294.0945198
294.0945247
294.0945274
294.0945281
294.0945274
294.0945253
294.0945216
294.0945161
294.0945089
294.0945002
294.0944879
294.0944769
294.0944637
294.0944531
294.0944413
294.0944313
294.0944228
294.0944177
294.0944157
294.0944158
294.0944178
294.0944222
294.0944303
294.0944421
294.094459
294.0944763
294.0944964
294.0945134
294.0945325
294.0945487
294.0945627
294.0945743
294.0945825
294.0945876
294.0945894
294.0945886
294.0945827
294.0945714
294.0945469
294.094526
294.0944969
294.0944774
294.0944599
294.0944505
294.0944448
294.0944421
294.0944413
294.0944425
294.0944475
294.0944581
294.0944748
294.0944971
294.0945197
294.094545
294.0945649
294.0945771
294.0945817
294.0945818
294.0945785
294.0945709
294.0945591
294.0945429
294.0945222
294.0944954
294.0944695
294.0944382
294.0944123
294.0943825
294.0943579
294.0943344
294.0943165
294.0943026
294.0942933
294.0942888
294.0942879
294.0942892
294.0942928
294.0942993
294.0943092
294.0943218
294.0943381
294.0943562
294.0943781
294.0944016
294.0944301
294.0944603
294.0944982
294.0945335
294.0945786
294.0946174
294.094665
294.0947049
294.0947521
294.0947919
294.0948268
294.094849
294.0948601
294.094863
294.0948612
294.0948551
294.0948432
294.0948246
294.0947985
294.0947615
294.0947201
294.0946658
294.0946221
294.0945686
294.0945307
294.094486
294.0944571
294.0944256
294.0944066
294.0943869
294.0943747
294.0943644
294.0943569
294.094352
294.0943472
294.0943439
294.0943402
294.0943369
294.0943321
294.0943274
294.0943208
294.0943152
294.0943112
294.0943098
294.0943108
294.0943137
294.094319
294.0943273
294.0943359
294.0943502
294.0943615
294.0943789
294.0943918
294.0944095
294.0944222
294.0944382
294.0944495
294.0944624
294.0944718
294.0944816
294.0944898
294.094497
294.0945032
294.094508
294.0945116
294.0945137
294.0945149
294.0945153
294.0945154
294.0945148
294.0945133
294.0945106
294.0945071
294.0945024
294.0944982
294.0944931
294.0944881
294.0944829
294.0944774
294.0944721
294.0944655
294.0944592
294.0944508
294.0944425
294.0944308
294.0944195
294.0944037
294.0943895
294.094371
294.0943556
294.0943412
294.0943319
294.0943262
294.0943233
294.0943224
294.0943228
294.0943258
294.0943329
294.0943453
294.0943633
294.0943818
294.0944017
294.0944191
294.0944357
294.0944483
294.0944573
294.0944625
294.0944653
294.0944662
294.0944663
294.0944662
294.0944665
294.0944666
294.0944659
294.0944649
294.0944622
294.0944587
294.0944523
294.0944448
294.0944325
294.0944209
294.0944023
294.0943809
294.0943484
294.094307
294.0942482
294.0941849
294.0941221
294.0940824
294.094067
294.0940662
294.0940738
294.0940924
294.0941226
294.0941648
294.0942187
294.0942902
294.0943629
294.0944542
294.0945279
294.0946136
294.0946805
294.0947455
294.0947905
294.09482
294.0948337
294.0948369
294.0948341
294.0948254
294.094809
294.0947881
294.0947622
294.09474
294.0947156
294.0946946
294.0946786
294.0946637
294.0946522
294.0946393
294.0946295
294.0946195
294.0946103
294.0946
294.0945896
294.094577
294.0945651
294.0945501
294.0945375
294.0945222
294.0945103
294.0944971
294.0944859
294.0944765
294.0944713
294.09447
294.0944714
294.0944749
294.0944809
294.0944891
294.0944991
294.0945111
294.0945213
294.0945286
294.0945319
294.0945319
294.0945296
294.0945246
294.0945175
294.094508
294.0944995
294.0944887
294.0944788
294.0944653
294.0944515
294.0944318
294.094411
294.0943805
294.0943481
294.0942992
294.0942507
294.0941804
294.0941189
294.0940394
294.093977
294.0939059
294.0938481
294.0938027
294.0937779
294.0937712
294.0937736
294.0937831
294.0938013
294.0938288
294.0938578
294.0938955
294.0939268
294.0939636
294.0939944
294.0940205
294.0940333
294.0940345
294.0940281
294.0940129
294.0939884
294.0939537
294.0939191
294.0938827
294.093856
294.0938407
294.0938356
294.093836
294.0938417
294.0938519
294.0938678
294.0938794
294.0938869
294.0938898
294.0938866
294.0938721
294.0938441
294.0938081
294.0937844
294.0937771
294.0937802
294.0937873
294.0938125
294.0938376
294.0938788
294.0939227
294.0939738
294.0940396
294.0941053
294.0941799
294.0942286
294.0942459
294.0942424
294.0942249
294.0941904
294.0941401
294.0940731
294.0939844
294.0938864
294.0937968
294.0937434
294.0937235
294.0937236
294.0937386
294.0937732
294.0938286
294.093896
294.0939469
294.0939772
294.0939887
294.0939812
294.0939408
294.0938551
294.0937237
294.0936236
294.0935109
294.0934365
294.0933618
294.0933189
294.0932838
294.093265
294.0932397
294.0932054
294.0931384
294.0930403
294.092878
294.0926696
294.0923644
294.0920809
294.0916728
294.0913305
294.0908573
294.0904869
294.0899865
294.0896034
294.0890758
294.0886629
294.0880682
294.0875861
294.0868687
294.0862732
294.0853793
294.0846251
294.0834957
294.0825313
294.0810983
294.0798775
294.0780911
294.0765986
294.0744599
294.0727184
294.0702694
294.0683111
294.0655776
294.0633949
294.0603261
294.0578386
294.0542881
294.0513532
294.0471225
294.0435931
294.0385262
294.0343253
294.0283919
294.0235475
294.0168403
294.0114495
294.0041042
293.9982622
293.9903664
293.9840973
293.9756045
293.9688036
293.9594873
293.9519435
293.9415286
293.9330905
293.921526
293.9122518
293.8997631
293.8898133
293.876558
293.8659266
293.8517187
293.8402275
293.8248447
293.812475
293.7961242
293.7831367
293.7662324
293.7528246
293.7354581
293.721569
293.7035578
293.689118
293.6705028
293.6556136
293.6366224
293.6210191
293.6007112
293.5831788
293.5624266
293.5432258
293.5252708
293.5059554
293.4894363
293.4699877
293.4538542
293.4348408
293.4189789
293.4003996
293.3839953
293.3673239
293.349292
293.3362432
293.3172931
293.3057631
293.287447
293.275932
293.2603635
293.2482416
293.2335766
293.2227805
293.2086865
293.198715
293.1855097
293.176269
293.1647085
293.1558747
293.1450006
293.1370136
293.1272903
293.1202151
293.1112465
293.1047495
293.0967057
293.0909033
293.0838023
293.0785995
293.0721914
293.0675962
293.0619289
293.0578893
293.0529005
293.0493488
293.0449932
293.041883
293.0380721
293.0353748
293.0320822
293.029762
293.0269121
293.0249083
293.0224641
293.0207566
293.0186776
293.0172217
293.0154492
293.0142167
293.0127246
293.0116862
293.0104345
293.0095538
293.0085222
293.0077667
293.0069712
293.006263
293.005703
293.0049675
293.0045946
293.0040126
293.0036669
293.003249
293.002899
293.0026082
293.0022739
293.0020758
293.0017978
293.0016378
293.0014221
293.0012779
293.0011132
293.0010006
293.0008699
293.0007827
293.0006725
293.0006036
293.0005208
293.0004665
293.0004022
293.0003578
293.0003068
293.0002735
293.0002345
293.0002089
293.0001778
293.0001576
293.0001344
293.0001191
293.0001013
293.0000895
293.0000757
293.0000668
293.0000565
293.0000498
293.0000419
293.0000368
293.000031
293.0000272
293.0000228
293.00002
293.0000167
293.0000146
293.0000122
293.0000106
293.0000089
293.0000077
293.0000065
293.0000054
293.0000048
293.0000038
293.0000034
293.0000028
293.0000024
293.000002
293.0000017
293.0000014
293.0000012
293.000001
293.0000008
293.0000007
293.0000006
293.0000005
293.0000004
293.0000003
293.0000003
293.0000002
293.0000002
293.0000002
293.0000001
293.0000001
293.0000001
293.0000001
293.0000001
293.0000001
293
293
293
293
293
293
293
293
293
293
293
293
293
293
293
293
293
293
293
293
293
293
293
293
293
293
293
293
293
293
293
293
293
293
293
293
293
293
293
293
293
293
293
293
293
293
293
293
293
293
293
293
293
293
293
293
293
293
293
293
293
293
293
293
293
293
293
293
293
293
293
293
293
293
293
293
293
293
293
293
293
293
293
293
293
293
293
293
293
293
293
293
293
293
293
293
293
293
293
293
293
293
293
293
293
293
293
293
293
293
293
293
293
293
293
293
293
293
293
293
293
293
293
293
293
293
293
293
293
293
293
293
293
293
293
293
293
293
293
293
293
293
293
293
293
293
293
293
293
293
293
293
293
293
293
293
293
293
293
293
293
293
293
293
293
293
293
293
293
293
293
293
293
293
293
293
293
293
293
293
293
293
293
293
293
293
293
293
293
293
293
293
293
293
293
293
293
293
293
293
293
293
293
293
293
293
293
293
293
293
293
293
293
293
293
293
293
293
293
293
293
293
293
293
293
293
293
293
293
293
293
293
293
293
293
293
293
293
293
293
293
293
293
293
293
293
293
293
293
293
293
293
293
293
293
293
293
293
293
293
293
293
293
293
293
293
293
293
293
293
293
293
293
293
293
293
293
293
293
293
293
293
293
293
293
293
293
293
293
293
293
293
293
293
293
293
293
293
293
293
293
293
293
293
293
293
293
293
293
293
293
293
293
293
293
293
293
293
293
293
293
293
293
293
293
293
293
293
293
293
293
293
293
293
293
293
293
293
293
293
293
293
293
293
293
293
293
293
293
293
293
293
293
293
293
293
293
293
293
293
293
293
293
293
293
293
293
293
293
293
293
293
293
293
293
293
293
293
293
293
293
293
293
293
293
293
293
293
293
293
293
293
293
293
293
293
293
293
293
293
293
293
293
293
293
293
293
293
293
293
293
293
293
293
293
293
293
293
293
293
293
293
293
293
293
293
293
293
293
293
293
293
293
293
293
293
293
293
293
293
293
293
293
293
293
293
293
293
293
293
293
293
293
293
293
293
293
293
293
293
293
293
293
293
293
293
293
293
293
293
293
293
293
293
293
293
293
293
293
293
293
293
293
293
293
293
293
293
293
293
293
293
293
293
293
293
293
293
293
293
293
293
293
293
293
293
293
293
293
293
293
293
293
293
293
293
293
293
293
293
293
293
293
293
293
293
293
293
293
293
293
293
293
293
293
293
293
293
293
293
293
293
293
293
293
293
293
293
293
293
293
293
293
293
293
293
293
293
293
293
293
293
293
293
293
293
293
293
293
293
293
293
293
293
293
293
293
293
293
293
293
293
293
293
293
293
293
293
293
293
293
293
293
293
293
293
293
293
293
293