# vtk DataFile Version 2.0
gauge_2
ASCII
DATASET POLYDATA
POINTS 43 double
0.2 0.0359992 0.005
0.2 0.0419991 0.005
0.2 0.047999 0.005
0.2 0.0607609 0.005
0.2 0.0735228 0.005
0.2 0.0862847 0.005
0.2 0.0990467 0.005
0.2 0.111809 0.005
0.2 0.124571 0.005
0.2 0.137332 0.005
0.2 0.150094 0.005
0.2 0.162856 0.005
0.2 0.175618 0.005
0.2 0.18838 0.005
0.2 0.201142 0.005
0.2 0.213904 0.005
0.2 0.226666 0.005
0.2 0.239428 0.005
0.2 0.25219 0.005
0.2 0.264952 0.005
0.2 0.277714 0.005
0.2 0.290476 0.005
0.2 0.303238 0.005
0.2 0.315999 0.005
0.2 0.328761 0.005
0.2 0.341523 0.005
0.2 0.354285 0.005
0.2 0.367047 0.005
0.2 0.379809 0.005
0.2 0.392571 0.005
0.2 0.405333 0.005
0.2 0.418095 0.005
0.2 0.430857 0.005
0.2 0.443619 0.005
0.2 0.456381 0.005
0.2 0.469143 0.005
0.2 0.481905 0.005
0.2 0.494666 0.005
0.2 0.507428 0.005
0.2 0.52019 0.005
0.2 0.532952 0.005
0.2 0.545714 0.005
0.2 0.558476 0.005
POINT_DATA 43
 FIELD attributes 1
alpha.water 1 43 float
1 1 1 1 0.770847 0.283442 0.0125962 2.45616e-05 3.76308e-05 1.3538e-05 1.87678e-09 1.48334e-08 2.56793e-08 1.25129e-08 3.51202e-12 1.15171e-12 2.40493e-13 4.30787e-14 8.19061e-15 4.73608e-16 6.66352e-17 1.36472e-17 2.75115e-18 4.5204e-19 6.20143e-20 8.16914e-21 1.0107e-21 1.37266e-22 2.60693e-23 5.11315e-24 9.26983e-25 1.48426e-25 2.06685e-26 2.56325e-27 2.94628e-28 3.17722e-29 3.13296e-30 2.66552e-31 1.7895e-32 8.53461e-34 2.62621e-35 4.81408e-37 5.44986e-39
