/*--------------------------------*- C++ -*----------------------------------*\
| =========                 |                                                 |
| \\      /  F ield         | OpenFOAM: The Open Source CFD Toolbox           |
|  \\    /   O peration     | Version:  3.0.1                                 |
|   \\  /    A nd           | Web:      www.OpenFOAM.org                      |
|    \\/     M anipulation  |                                                 |
\*---------------------------------------------------------------------------*/
FoamFile
{
    version     2.0;
    format      ascii;
    class       volScalarField;
    location    "0.0001";
    object      maxKappa;
}
// * * * * * * * * * * * * * * * * * * * * * * * * * * * * * * * * * * * * * //

dimensions      [0 0 0 0 0 0 0];

internalField   nonuniform List<scalar> 
1000
(
9.71772e-12
5.19456e-12
7.52682e-12
3.00366e-12
3.78108e-12
1.33316e-12
2.43826e-12
1.55231e-12
6.67872e-12
6.00732e-12
1.62536e-12
9.13122e-13
2.72096e-12
2.82697e-12
1.94354e-12
4.01774e-13
2.65029e-12
2.22624e-12
2.01422e-12
1.27214e-12
4.2758e-12
1.1688e-12
3.46304e-12
5.65395e-12
2.15557e-12
2.08489e-12
2.54428e-12
2.68562e-12
9.54104e-13
1.16613e-12
1.59017e-12
1.27214e-12
1.41349e-12
1.18492e-09
6.19019e-07
0.000286199
0.0569287
1
1
1
1
1
1
1
1
1
1
1
1
1
1
1
1
1
1
1
1
1
1
1
1
1
1
0.514131
0.00687877
1.78605e-05
3.27002e-08
5.59935e-11
3.59567e-12
1.61263e-12
4.91822e-12
1.69451e-12
3.36836e-12
3.05839e-12
4.89755e-12
1.97574e-12
1.09523e-12
2.74842e-12
3.47168e-12
1.92182e-12
3.32703e-12
2.41778e-12
3.71966e-12
1.28122e-12
8.33015e-13
3.43886e-12
3.43886e-12
1.83917e-12
3.59567e-12
1.44176e-12
1.74079e-12
1.81554e-12
1.81554e-12
2.96895e-12
4.11229e-12
4.25695e-12
9.59035e-12
1.13311e-11
1.37234e-11
1.37234e-11
9.71772e-12
5.19456e-12
7.52682e-12
3.00366e-12
4.01774e-12
4.01774e-12
2.43826e-12
8.72828e-12
6.67872e-12
6.00732e-12
1.16613e-12
1.66085e-12
2.72096e-12
2.82697e-12
4.40125e-12
4.40125e-12
2.65029e-12
4.06377e-12
2.01422e-12
3.06809e-12
4.2758e-12
6.77537e-12
6.77537e-12
5.65395e-12
2.15557e-12
2.54428e-12
2.54428e-12
2.68562e-12
1.00443e-12
6.59274e-12
6.59274e-12
1.48416e-12
9.533e-12
1.17879e-09
6.18725e-07
0.000286123
0.0569243
1
1
1
1
1
1
1
1
1
1
1
1
1
1
1
1
1
1
1
1
1
1
1
1
1
1
0.514131
0.00687873
1.78611e-05
3.27182e-08
5.11877e-11
3.699e-12
4.91265e-12
4.91822e-12
3.82298e-12
4.28255e-12
4.28255e-12
4.89755e-12
4.29827e-12
2.20001e-12
3.92631e-12
3.47168e-12
1.92182e-12
3.32703e-12
2.41778e-12
3.71966e-12
3.74033e-12
8.97093e-13
3.01706e-12
2.10781e-12
3.55434e-12
3.59567e-12
4.12235e-12
4.12235e-12
1.4672e-12
1.17789e-12
2.74842e-12
4.11229e-12
7.49713e-12
7.49713e-12
1.01671e-11
5.35218e-12
1.25435e-11
8.9403e-12
1.06718e-11
6.71406e-12
7.52682e-12
3.9931e-12
7.80951e-12
5.77093e-12
8.72828e-12
3.7104e-12
1.44273e-12
4.78476e-12
4.78476e-12
1.94354e-12
6.82007e-12
1.73152e-12
7.9862e-12
4.58387e-12
6.60805e-12
2.22624e-12
7.45614e-12
1.62536e-12
3.60439e-12
2.15557e-12
2.01422e-12
1.13079e-12
2.54428e-12
1.40621e-12
3.10967e-12
9.18766e-12
3.49838e-12
3.9931e-12
6.4667e-12
5.16827e-12
1.18138e-09
6.18823e-07
0.000286134
0.0569242
1
1
1
1
1
1
1
1
1
1
1
1
1
1
1
1
1
1
1
1
1
1
1
1
1
1
0.514133
0.00687902
1.78638e-05
3.27296e-08
5.05149e-11
3.699e-12
8.57588e-12
4.91822e-12
4.27761e-12
3.9883e-12
6.90204e-12
3.74033e-12
4.29827e-12
1.08283e-11
1.16549e-11
3.82298e-12
2.35579e-12
4.83556e-12
6.69539e-12
5.14553e-12
3.74033e-12
2.66576e-12
4.54625e-12
2.10781e-12
7.00536e-12
3.9883e-12
5.08354e-12
6.42675e-12
5.72414e-12
7.10869e-12
3.79128e-12
3.34274e-12
6.10877e-12
7.70005e-12
9.05636e-12
1.00816e-11
1.71311e-11
8.9403e-12
1.06718e-11
6.71406e-12
7.52682e-12
3.9931e-12
7.80951e-12
4.24046e-12
4.06377e-12
5.37125e-12
2.15557e-12
6.11333e-12
3.81641e-12
3.25102e-12
7.77418e-12
2.72096e-12
7.9862e-12
5.30058e-12
7.73884e-12
3.039e-12
7.45614e-12
2.68562e-12
5.7953e-12
1.90821e-12
2.33225e-12
1.27214e-12
3.95776e-12
3.9931e-12
3.46304e-12
9.18766e-12
3.49838e-12
3.9931e-12
6.4667e-12
3.85175e-12
1.18448e-09
6.1887e-07
0.000286145
0.0569214
1
1
1
1
1
1
1
1
1
1
1
1
1
1
1
1
1
1
1
1
1
1
1
1
1
1
0.51413
0.00687912
1.78619e-05
3.26986e-08
6.35441e-11
2.31446e-12
8.57588e-12
4.7529e-12
4.27761e-12
2.04581e-12
6.90204e-12
4.93888e-12
7.31533e-12
1.08283e-11
1.16549e-11
4.4016e-12
2.35579e-12
8.7412e-12
6.69539e-12
5.14553e-12
3.65767e-12
2.66576e-12
4.79423e-12
5.76547e-12
7.00536e-12
8.59655e-12
5.08354e-12
8.32791e-12
5.72414e-12
7.60464e-12
3.88498e-12
4.21847e-12
5.74566e-12
7.52917e-12
9.10976e-12
1.41292e-11
1.71311e-11
8.90497e-12
8.01721e-12
5.6431e-12
2.79415e-12
1.53405e-12
2.65029e-12
4.54735e-12
4.54735e-12
5.37125e-12
3.00366e-12
6.11333e-12
2.79164e-12
5.54794e-12
7.77418e-12
2.72096e-12
4.73518e-12
5.30058e-12
7.73884e-12
3.039e-12
7.06743e-12
2.68562e-12
5.7953e-12
1.62536e-12
2.86231e-12
1.27214e-12
3.95776e-12
3.9931e-12
4.80585e-12
1.73152e-12
1.94354e-12
3.74574e-12
2.89765e-12
1.90821e-12
1.18689e-09
6.18896e-07
0.00028615
0.0569228
1
1
1
1
1
1
1
1
1
1
1
1
1
1
1
1
1
1
1
1
1
1
1
1
1
1
0.514128
0.00687874
1.78606e-05
3.26905e-08
5.56518e-11
1.9437e-12
5.53816e-12
6.07545e-12
1.77283e-12
5.57949e-12
2.81041e-12
4.93888e-12
7.31533e-12
2.50044e-12
5.8688e-12
4.4016e-12
2.734e-12
8.7412e-12
5.88946e-12
5.93079e-12
5.57949e-12
6.34409e-12
6.96403e-12
8.01794e-12
7.17068e-12
8.59655e-12
4.62891e-12
8.32791e-12
3.24437e-12
7.60464e-12
4.19495e-12
3.51301e-12
4.21562e-12
4.30391e-12
5.06217e-12
7.06736e-12
1.56226e-11
5.5126e-12
6.14867e-12
3.00366e-12
2.4736e-12
4.77052e-12
1.00443e-12
3.7104e-12
4.45248e-12
3.56905e-12
3.00366e-12
2.65029e-12
2.79164e-12
5.54794e-12
6.00732e-12
1.66085e-12
3.10967e-12
1.37815e-12
3.32169e-12
1.90821e-12
3.39237e-12
3.92243e-12
4.24046e-12
3.78108e-12
2.86231e-12
2.04956e-12
4.20512e-12
8.62227e-12
4.80585e-12
1.73152e-12
2.1909e-12
1.90821e-12
2.89765e-12
6.48317e-12
1.17619e-09
6.18908e-07
0.000286153
0.0569239
1
1
1
1
1
1
1
1
1
1
1
1
1
1
1
1
1
1
1
1
1
1
1
1
1
1
0.514134
0.00687948
1.7865e-05
3.27046e-08
6.43664e-11
2.75536e-12
4.36027e-12
6.07545e-12
4.02963e-12
5.57949e-12
3.14105e-12
1.11069e-12
4.91822e-12
2.50044e-12
3.2857e-12
4.79423e-12
1.50853e-12
1.14483e-11
5.88946e-12
7.95594e-12
1.16549e-11
6.34409e-12
6.96403e-12
8.01794e-12
7.17068e-12
4.58758e-12
4.62891e-12
3.51301e-12
5.20753e-12
7.23267e-12
4.85622e-12
3.51301e-12
9.27849e-12
5.76547e-12
4.60825e-12
6.03402e-12
6.48874e-12
4.24046e-12
3.06809e-12
3.49838e-12
2.4736e-12
8.69294e-12
5.44192e-12
3.42771e-12
4.45248e-12
1.41349e-12
1.59017e-12
8.58693e-12
2.44717e-12
4.41715e-12
6.00732e-12
1.88103e-12
4.2758e-12
2.86231e-12
4.80585e-12
1.27214e-12
4.09911e-12
3.92243e-12
4.24046e-12
9.89441e-12
3.67507e-12
3.42771e-12
4.20512e-12
8.62227e-12
3.10967e-12
3.88709e-12
6.14867e-12
2.42891e-12
2.82697e-12
1.94354e-12
1.18889e-09
6.18901e-07
0.000286154
0.0569241
1
1
1
1
1
1
1
1
1
1
1
1
1
1
1
1
1
1
1
1
1
1
1
1
1
1
0.514136
0.00687924
1.78654e-05
3.27094e-08
5.31955e-11
5.95146e-12
6.88137e-12
7.54265e-12
4.02963e-12
5.91013e-12
3.55434e-12
4.07096e-12
5.24885e-12
1.93302e-12
6.90204e-12
4.79423e-12
2.02515e-12
1.14483e-11
6.44741e-12
7.95594e-12
1.16549e-11
4.81489e-12
5.37284e-12
2.66576e-12
7.64597e-12
6.17877e-12
9.27849e-12
3.51301e-12
5.72414e-12
7.23267e-12
4.85622e-12
6.9227e-12
9.27849e-12
9.25782e-12
1.00431e-11
1.35768e-11
1.0601e-11
4.98254e-12
3.25102e-12
3.49838e-12
2.4736e-12
8.69294e-12
6.9032e-12
6.9032e-12
4.93086e-12
3.48813e-12
3.49838e-12
8.58693e-12
2.65029e-12
3.74574e-12
5.37125e-12
1.5195e-12
4.91187e-12
2.93298e-12
4.80585e-12
2.06366e-12
4.09911e-12
2.13671e-12
4.34647e-12
9.89441e-12
3.67507e-12
3.42771e-12
2.55674e-12
4.59383e-12
3.10967e-12
3.88709e-12
6.14867e-12
1.09545e-12
5.58327e-12
6.42838e-12
1.18258e-09
6.18673e-07
0.000286098
0.0569212
1
1
1
1
1
1
1
1
1
1
1
1
1
1
1
1
1
1
1
1
1
1
1
1
1
1
0.514127
0.00687901
1.78627e-05
3.2728e-08
5.3879e-11
5.95146e-12
6.88137e-12
7.54265e-12
3.18238e-12
6.52528e-12
6.52528e-12
4.54625e-12
5.24885e-12
4.52818e-12
6.90204e-12
4.54625e-12
7.93528e-12
8.98918e-12
6.44741e-12
3.07575e-12
4.15362e-12
2.27313e-12
5.37284e-12
2.66576e-12
7.64597e-12
6.17877e-12
9.27849e-12
9.03051e-12
5.72414e-12
7.00536e-12
1.71943e-12
8.69987e-12
9.1545e-12
9.25782e-12
1.00431e-11
1.35768e-11
1.20894e-11
4.98254e-12
3.25102e-12
3.18035e-12
3.10462e-12
3.00366e-12
2.26158e-12
2.29692e-12
1.66085e-12
3.46304e-12
4.2758e-12
3.21568e-12
2.65029e-12
2.7563e-12
1.87287e-12
1.5195e-12
4.91187e-12
2.93298e-12
2.41064e-12
2.79415e-12
6.22749e-12
6.22749e-12
4.91187e-12
7.31479e-12
3.63973e-12
3.85175e-12
2.50894e-12
1.01539e-11
1.01539e-11
3.35703e-12
9.20427e-12
9.20427e-12
5.58327e-12
1.26376e-11
1.17448e-09
6.18704e-07
0.000286099
0.0569212
1
1
1
1
1
1
1
1
1
1
1
1
1
1
1
1
1
1
1
1
1
1
1
1
1
1
0.514122
0.00687855
1.78602e-05
3.26957e-08
5.96353e-11
2.50044e-12
1.55923e-12
3.71966e-12
9.07184e-12
4.60825e-12
1.28156e-12
4.54625e-12
5.04221e-12
1.59119e-12
1.32255e-12
5.76547e-12
7.93528e-12
7.12935e-12
3.03772e-12
2.12847e-12
2.9344e-12
8.67921e-13
5.62082e-12
2.29379e-12
3.36836e-12
1.98382e-12
5.39351e-12
9.03051e-12
2.1698e-12
7.00536e-12
9.54713e-12
8.69987e-12
6.32342e-12
3.45102e-12
6.15811e-12
8.26591e-12
7.52198e-12
1.20532e-12
1.3149e-12
1.3149e-12
1.44882e-12
2.33225e-12
6.71406e-13
2.29692e-12
8.83429e-13
3.46304e-12
4.2758e-12
1.00443e-12
1.66085e-12
2.7563e-12
1.87287e-12
2.92199e-13
2.43826e-12
1.93582e-12
2.22624e-12
2.57961e-12
4.31113e-12
4.09911e-12
4.91187e-12
1.461e-12
3.63973e-12
3.85175e-12
2.50894e-12
1.27837e-12
1.24185e-12
2.29692e-12
4.59383e-13
2.57961e-12
1.34281e-12
3.76206e-12
1.17539e-09
6.1872e-07
0.000286091
0.0569212
1
1
1
1
1
1
1
1
1
1
1
1
1
1
1
1
1
1
1
1
1
1
1
1
1
1
0.514136
0.00687959
1.78666e-05
3.27207e-08
5.29071e-11
5.57479e-12
1.62331e-12
3.71966e-12
9.07184e-12
1.98382e-12
9.29132e-13
2.04581e-12
5.04221e-12
1.59119e-12
7.15538e-13
5.76547e-12
9.29132e-13
5.1662e-13
3.03772e-12
1.4672e-12
2.9344e-12
3.03303e-12
5.62082e-12
8.67921e-13
3.36836e-12
1.98382e-12
5.39351e-12
6.5146e-13
1.13656e-12
1.51651e-12
9.54713e-12
2.31749e-12
6.32342e-12
2.23205e-12
4.44293e-12
6.94179e-13
4.62891e-12
)
;

boundaryField
{
    sides1
    {
        type            calculated;
        value           uniform 0;
    }
    sides2
    {
        type            calculated;
        value           uniform 0;
    }
    empty
    {
        type            empty;
    }
}


// ************************************************************************* //
