/*--------------------------------*- C++ -*----------------------------------*\
| =========                 |                                                 |
| \\      /  F ield         | OpenFOAM: The Open Source CFD Toolbox           |
|  \\    /   O peration     | Version:  3.0.1                                 |
|   \\  /    A nd           | Web:      www.OpenFOAM.org                      |
|    \\/     M anipulation  |                                                 |
\*---------------------------------------------------------------------------*/
FoamFile
{
    version     2.0;
    format      ascii;
    class       volScalarField;
    location    "0.0001";
    object      minKappa;
}
// * * * * * * * * * * * * * * * * * * * * * * * * * * * * * * * * * * * * * //

dimensions      [0 0 0 0 0 0 0];

internalField   nonuniform List<scalar> 
1000
(
5.00391e-12
3.0133e-12
2.22802e-12
4.38299e-13
4.38299e-13
5.65395e-13
1.3149e-12
7.77418e-13
9.13122e-13
9.13122e-13
7.30498e-14
7.30498e-14
1.461e-13
1.461e-13
1.82624e-13
1.76686e-13
3.83511e-13
8.03548e-13
7.30498e-13
7.30498e-13
7.30498e-13
3.18035e-13
2.73937e-13
2.73937e-13
1.27837e-13
1.09575e-13
1.09575e-13
5.29611e-13
3.83511e-13
3.83511e-13
4.56561e-13
4.56561e-13
5.47873e-14
5.47873e-14
7.53035e-11
2.1425e-08
2.52541e-06
2.60357e-05
2.33556e-05
1.20653e-05
1.09651e-05
9.9943e-06
2.69331e-06
6.94085e-06
1.44125e-05
1.54623e-05
1.48235e-05
3.20904e-06
1.31754e-05
2.45108e-05
1.70841e-05
1.76749e-05
1.29088e-05
8.93082e-06
4.57431e-06
1.24564e-06
2.1061e-06
1.82125e-06
2.25537e-07
3.61984e-06
7.85536e-06
5.72389e-06
3.44099e-07
7.57312e-08
1.43935e-08
1.84475e-10
2.18427e-11
9.9321e-13
9.9321e-13
0
1.38836e-12
1.07865e-12
3.73789e-13
8.54374e-14
8.54374e-14
5.01945e-13
3.4175e-13
3.4175e-13
1.16408e-12
1.16408e-12
3.4175e-13
3.4175e-13
9.7185e-13
1.49515e-13
1.23989e-13
8.33015e-13
9.07772e-13
2.99031e-13
1.06797e-13
1.06797e-13
3.51301e-13
4.54625e-13
1.13205e-12
1.13205e-12
2.96895e-12
2.97963e-12
3.89808e-12
9.59035e-12
5.35218e-12
1.25435e-11
2.65029e-12
2.4736e-13
7.06743e-14
5.30058e-13
2.13671e-12
5.65395e-13
1.16613e-12
7.77418e-13
9.86172e-13
3.83511e-13
2.4736e-13
6.71406e-13
8.2181e-13
1.64362e-13
1.64362e-13
5.47873e-14
5.47873e-14
2.37412e-13
9.31385e-13
1.20146e-12
8.48092e-13
3.18035e-13
9.31385e-13
8.9486e-13
3.53372e-14
9.13122e-14
9.13122e-14
5.84398e-13
2.82697e-13
7.4876e-13
7.4876e-13
2.55674e-13
2.55674e-13
2.15557e-12
2.57608e-11
1.53731e-09
1.16057e-07
4.1168e-06
1.42788e-05
1.20653e-05
4.2347e-06
5.67117e-06
1.05331e-06
1.35297e-06
1.5287e-06
7.89408e-06
1.06444e-05
3.20904e-06
1.31754e-05
1.95695e-05
1.46652e-05
1.06512e-05
9.78908e-06
8.93082e-06
4.57431e-06
1.24564e-06
2.1061e-06
8.01918e-08
2.25537e-07
3.35974e-06
2.4126e-06
4.56204e-06
3.44099e-07
7.57312e-08
1.43935e-08
1.84475e-10
1.36388e-12
2.5211e-12
1.4204e-12
0
9.7185e-13
9.7185e-13
1.53787e-12
2.31749e-12
2.31749e-12
1.70875e-13
1.70875e-13
2.20001e-12
2.68642e-13
1.4204e-12
1.03324e-13
3.73789e-13
3.30637e-13
8.97093e-13
1.23989e-13
4.37867e-13
7.68937e-13
4.80585e-13
4.80585e-13
1.26055e-12
1.44653e-13
1.81554e-13
3.2039e-13
3.2039e-13
7.15538e-13
2.12847e-12
1.28122e-12
2.47977e-13
2.17865e-12
6.81938e-13
2.65029e-12
2.4736e-13
7.06743e-14
5.29611e-13
5.29611e-13
8.83429e-13
3.88709e-13
7.30498e-14
7.30498e-14
1.27837e-13
1.27837e-13
3.65249e-13
3.65249e-13
1.82624e-14
1.82624e-14
1.06012e-13
1.06012e-12
1.15053e-12
2.55674e-13
2.55674e-13
6.20923e-13
5.29611e-13
4.01774e-13
4.01774e-13
3.53372e-14
5.30058e-13
0
1.34281e-12
2.82697e-13
1.461e-12
9.86172e-13
9.86172e-13
1.05922e-12
2.15557e-12
8.83429e-13
1.53731e-09
5.07966e-08
4.1168e-06
1.42788e-05
6.78702e-06
2.526e-06
5.67117e-06
1.05331e-06
1.35297e-06
1.5287e-06
7.89408e-06
3.28846e-06
2.3414e-07
1.40501e-05
8.20845e-06
1.0793e-05
8.39596e-06
6.46188e-06
5.37161e-06
2.85038e-06
3.07796e-06
2.71608e-06
8.01918e-08
1.74874e-06
3.35974e-06
4.48265e-07
4.56204e-06
1.40975e-06
6.52859e-07
4.63119e-08
4.85829e-11
1.36388e-12
2.5211e-12
2.31446e-12
5.1662e-13
1.57052e-12
1.33496e-12
5.12624e-13
5.12624e-13
2.47977e-13
6.4078e-14
6.4078e-14
1.13205e-12
2.68642e-13
1.44176e-12
1.03324e-13
4.80585e-13
3.30637e-13
5.1662e-13
5.33984e-14
5.33984e-14
3.30637e-13
7.58257e-13
7.02603e-13
1.05729e-12
1.44653e-13
1.4672e-12
4.7529e-13
1.0539e-12
1.44653e-12
2.12847e-12
1.26055e-12
2.47977e-13
9.29915e-13
6.81938e-13
7.56065e-12
2.68562e-12
2.59327e-12
1.30748e-12
8.12755e-13
1.27837e-13
1.27837e-13
7.30498e-14
3.65249e-14
3.65249e-14
5.66136e-13
4.01774e-13
1.82624e-13
1.82624e-13
9.6791e-13
1.64362e-13
7.30498e-14
7.30498e-14
4.74824e-13
3.65249e-13
2.92199e-13
2.92199e-13
3.53372e-13
2.37412e-13
2.37412e-13
5.30058e-13
0
2.10018e-12
9.13122e-14
7.30498e-14
7.30498e-14
1.09575e-13
1.82624e-13
1.82624e-13
8.83429e-13
4.63341e-10
5.07966e-08
3.12581e-06
1.21041e-06
5.64959e-06
1.19169e-06
1.44615e-06
9.59558e-06
8.79541e-06
1.16235e-05
8.80472e-06
3.28846e-06
2.3414e-07
1.54123e-05
8.20845e-06
1.0793e-05
7.75172e-06
5.08728e-06
3.4131e-06
1.24938e-06
1.2201e-06
5.79093e-07
5.58048e-07
5.60996e-07
1.96439e-07
4.48265e-07
6.87847e-06
2.25237e-07
6.52859e-07
3.59812e-08
4.85829e-11
2.27313e-13
1.45244e-12
1.65318e-13
1.30292e-12
5.01945e-13
3.30637e-13
5.76702e-13
5.87382e-13
2.47977e-13
6.08741e-13
6.61273e-13
7.04859e-13
7.04859e-13
2.47977e-13
3.2039e-14
3.2039e-14
2.77672e-13
2.77672e-13
4.16507e-13
4.16507e-13
3.30637e-13
3.63109e-13
3.63109e-13
9.07772e-13
5.12624e-13
2.56312e-13
2.56312e-13
8.75733e-13
2.25246e-12
4.21562e-12
9.9191e-13
1.96315e-12
9.29915e-13
1.41292e-11
5.5126e-12
2.68562e-12
2.79415e-12
5.11348e-13
2.12023e-13
3.53372e-13
6.20923e-13
6.57448e-13
2.37412e-13
2.37412e-13
6.36069e-13
8.12755e-13
2.42891e-12
8.03548e-13
8.03548e-13
8.03548e-13
8.03548e-13
2.55674e-13
2.55674e-13
4.74824e-13
7.4876e-13
4.01774e-13
3.53372e-13
7.30498e-14
7.30498e-14
8.58335e-13
3.65249e-14
3.65249e-14
5.47873e-14
7.67023e-13
7.85285e-13
7.85285e-13
3.53372e-13
5.30058e-13
3.25102e-12
1.19404e-10
5.92195e-08
3.12581e-06
1.21041e-06
4.33854e-06
1.19169e-06
1.44615e-06
2.07869e-06
4.86178e-06
1.09693e-05
8.17036e-06
8.0366e-06
9.80322e-06
9.8831e-06
7.30045e-06
6.66844e-06
6.07911e-06
5.08728e-06
3.4131e-06
1.24938e-06
1.2201e-06
5.79093e-07
1.30582e-06
5.60996e-07
1.96439e-07
1.72346e-06
5.96416e-07
2.25237e-07
4.01237e-06
3.59812e-08
2.33057e-10
2.27313e-13
1.9437e-12
1.23989e-13
5.66023e-13
1.05729e-12
3.30637e-13
3.84468e-13
6.30101e-13
4.13296e-13
5.98062e-13
2.34953e-13
8.54374e-14
8.54374e-14
2.47977e-13
3.30637e-13
1.01457e-12
2.28545e-12
2.28545e-12
1.4204e-12
1.4204e-12
1.60195e-13
1.60195e-13
5.12624e-13
5.12624e-13
5.87382e-13
5.87382e-13
2.13593e-12
1.59127e-12
1.59127e-12
2.06648e-14
9.9191e-13
1.19856e-12
2.97573e-12
5.11556e-12
8.58335e-13
2.55674e-13
2.55674e-13
4.74824e-13
2.12023e-13
2.55674e-13
4.38299e-13
4.20036e-13
1.76686e-13
4.93086e-13
4.93086e-13
2.12023e-13
3.10462e-13
3.10462e-13
6.7571e-13
1.461e-13
9.13122e-14
9.13122e-14
1.82624e-13
6.93973e-13
1.461e-13
1.461e-13
3.65249e-14
3.65249e-14
2.19149e-13
2.19149e-13
7.12235e-13
6.39186e-13
3.83511e-13
2.73937e-13
2.73937e-13
1.00443e-12
1.76686e-13
6.48317e-12
4.52316e-12
1.19404e-10
5.92195e-08
3.17654e-06
3.91467e-06
4.33854e-06
3.43454e-06
4.89453e-06
2.07869e-06
4.86178e-06
3.70587e-06
2.46571e-06
9.12972e-07
7.57934e-07
3.21384e-06
4.97648e-06
4.68793e-06
4.30792e-06
5.15402e-06
5.26107e-06
5.01493e-06
2.91727e-06
2.14954e-06
2.20801e-06
3.81087e-06
1.20309e-06
1.72346e-06
5.96416e-07
4.02847e-06
5.73884e-08
2.12008e-08
2.53144e-11
2.21113e-12
2.75536e-12
1.23989e-13
8.33015e-13
4.69906e-13
8.54374e-14
8.54374e-14
2.88351e-13
2.68642e-13
8.43694e-13
8.43694e-13
2.06648e-13
2.13593e-14
2.13593e-14
3.09711e-13
5.12624e-13
2.43497e-12
5.87382e-13
5.87382e-13
8.67921e-13
1.04661e-12
1.04661e-12
1.02525e-12
2.68642e-13
8.33015e-13
8.75733e-13
8.75733e-13
8.65054e-13
8.65054e-13
2.06648e-14
1.43108e-12
1.19856e-12
1.07457e-12
5.53816e-12
1.37815e-12
1.82624e-13
1.82624e-13
7.12235e-13
0
0
2.12023e-13
2.00887e-13
1.76686e-13
2.19149e-13
2.19149e-13
2.12023e-13
1.69841e-12
1.88103e-12
1.20532e-12
1.20532e-12
7.77418e-13
1.27837e-13
5.47873e-14
5.47873e-14
3.53372e-14
1.27837e-13
1.27837e-13
7.30498e-13
3.65249e-13
9.13122e-14
9.13122e-14
6.57448e-13
7.30498e-14
7.30498e-14
2.82697e-13
6.57448e-13
1.76686e-13
3.53372e-13
8.48092e-13
1.1274e-09
1.67215e-07
3.57571e-06
9.86855e-06
5.99252e-06
9.13146e-06
8.41643e-06
8.17827e-06
8.97089e-06
3.70587e-06
2.46571e-06
9.12972e-07
7.57934e-07
2.11648e-06
5.12156e-07
1.5155e-06
3.19668e-06
5.15402e-06
5.26107e-06
5.52499e-06
4.29874e-06
2.75743e-06
3.80754e-06
3.81087e-06
4.87289e-06
8.00817e-06
1.40411e-06
4.02847e-06
5.73884e-08
2.12008e-08
2.53144e-11
6.30276e-12
3.09711e-13
3.09711e-13
9.61171e-14
9.61171e-14
2.99031e-13
1.06797e-14
1.06797e-14
2.68642e-13
6.5146e-13
6.5146e-13
1.93302e-12
6.6214e-13
1.23989e-13
2.66992e-13
8.43694e-13
8.43694e-13
2.34953e-13
2.34953e-13
8.67921e-13
1.13205e-12
9.7185e-13
4.80585e-13
2.68642e-13
1.21748e-12
1.06797e-14
1.06797e-14
2.89307e-13
2.83108e-12
3.82332e-12
4.43206e-12
2.42429e-12
1.07457e-12
1.48447e-12
3.0133e-12
6.36069e-13
1.47926e-12
7.30498e-14
7.30498e-14
1.55231e-12
2.12023e-13
9.54104e-13
1.41349e-12
4.56561e-13
4.56561e-13
0
0
4.01774e-13
1.33316e-12
8.9486e-13
8.9486e-13
6.36069e-13
1.1688e-12
1.76686e-13
3.53372e-14
1.76686e-13
1.49752e-12
4.9472e-13
4.93086e-13
4.93086e-13
2.08489e-12
2.10018e-12
8.58335e-13
2.19149e-13
2.19149e-13
9.6791e-13
5.30058e-13
3.53372e-13
8.48092e-13
8.88129e-10
6.37629e-08
2.00513e-06
4.14989e-06
1.67817e-06
1.97573e-06
1.85016e-06
9.8873e-06
7.14228e-06
7.1962e-06
2.48664e-06
2.44242e-06
3.34298e-07
1.01525e-06
5.12156e-07
1.5155e-06
3.19668e-06
5.5492e-06
5.8634e-06
5.54572e-06
5.7612e-06
4.64868e-06
6.14929e-06
4.1899e-06
1.65503e-06
4.44671e-06
1.41512e-05
1.21776e-06
1.04935e-06
6.44161e-08
1.64202e-10
6.30276e-12
1.28156e-12
1.07457e-12
8.47256e-13
9.71245e-13
4.27187e-13
4.27187e-13
1.17789e-12
1.97574e-12
1.97574e-12
1.21922e-12
1.32255e-12
3.2039e-14
3.2039e-14
2.88351e-13
2.88351e-13
1.14273e-12
1.14273e-12
4.80585e-13
4.80585e-13
5.12624e-13
4.27187e-13
4.27187e-13
1.51651e-12
3.4175e-13
3.4175e-13
1.4738e-12
2.89307e-13
1.71943e-12
2.33885e-12
3.45102e-12
5.03013e-12
6.13013e-12
7.52198e-12
7.06743e-13
1.06012e-13
2.12023e-13
1.1688e-12
7.67023e-13
9.13122e-14
9.13122e-14
1.27837e-13
3.65249e-14
3.65249e-14
5.29611e-13
5.29611e-13
8.48092e-13
8.48092e-13
2.4736e-13
1.18706e-12
3.53372e-13
6.36069e-13
1.59017e-12
1.76686e-13
4.38299e-13
4.38299e-13
2.73937e-13
2.73937e-13
2.37412e-13
2.37412e-13
3.88709e-13
3.18035e-13
9.13122e-14
9.13122e-14
4.38299e-13
4.38299e-13
5.30058e-13
3.32169e-12
1.30748e-12
4.95816e-10
6.37629e-08
1.68247e-07
4.14989e-06
1.67817e-06
1.97573e-06
1.85016e-06
4.9617e-06
1.13409e-06
3.81667e-07
2.00882e-06
1.68563e-06
3.34298e-07
2.64834e-07
2.63218e-06
4.76988e-06
6.28324e-06
5.70452e-06
4.59535e-06
3.51349e-06
2.5799e-06
2.52474e-06
4.38323e-06
2.25476e-06
1.65503e-06
2.82338e-06
1.49912e-05
1.21776e-06
2.81702e-06
6.44161e-08
2.48349e-10
6.77805e-12
9.7185e-13
9.7185e-13
7.43932e-13
9.61171e-14
9.61171e-14
8.65054e-13
7.23267e-13
7.15538e-13
7.15538e-13
3.3107e-13
8.54374e-14
8.54374e-14
3.30637e-13
6.4078e-14
6.4078e-14
1.81554e-13
0
0
3.4175e-13
8.67921e-13
1.66603e-12
4.3396e-13
9.61171e-14
9.61171e-14
9.61171e-14
9.61171e-14
7.23267e-13
2.89307e-13
1.53787e-12
1.85983e-13
2.11458e-12
4.13296e-13
4.62891e-12
7.06743e-13
1.06012e-13
2.12023e-13
6.57448e-13
6.57448e-13
1.82624e-14
1.82624e-14
9.13122e-14
9.13122e-14
9.31385e-13
5.30058e-13
2.92199e-13
2.92199e-13
2.73937e-13
2.4736e-13
2.92199e-13
3.53372e-13
5.11348e-13
5.11348e-13
4.20036e-13
4.20036e-13
6.57448e-13
8.12755e-13
9.31385e-13
9.31385e-13
9.86172e-13
3.88709e-13
3.18035e-13
2.19149e-13
0
0
5.29611e-13
7.85285e-13
3.32169e-12
1.30748e-12
4.95816e-10
2.1713e-07
1.68247e-07
5.61905e-06
1.61576e-05
1.48418e-05
8.28341e-06
4.9617e-06
1.13409e-06
3.81667e-07
2.00882e-06
1.68563e-06
7.27515e-07
2.64834e-07
2.63218e-06
5.20771e-06
7.38915e-06
5.70452e-06
4.59535e-06
3.51349e-06
2.5799e-06
2.52474e-06
4.38323e-06
2.25476e-06
2.96555e-06
2.82338e-06
1.49912e-05
3.67254e-05
1.40372e-05
3.83618e-07
1.54122e-09
6.77805e-12
5.57479e-12
1.46312e-12
7.43932e-13
1.56991e-12
7.79616e-13
7.79616e-13
7.23267e-13
1.49515e-13
1.49515e-13
7.15538e-13
1.03324e-13
1.28156e-13
3.30637e-13
4.59226e-13
3.84468e-13
3.84468e-13
7.47577e-14
7.47577e-14
8.22335e-13
4.91265e-13
4.91265e-13
1.00389e-12
6.5146e-13
2.27313e-13
2.13593e-13
2.13593e-13
1.51651e-12
2.89307e-13
1.90098e-12
1.85983e-13
6.94179e-13
4.13296e-13
4.37867e-13
)
;

boundaryField
{
    sides1
    {
        type            calculated;
        value           uniform 0;
    }
    sides2
    {
        type            calculated;
        value           uniform 0;
    }
    empty
    {
        type            empty;
    }
}


// ************************************************************************* //
