/*--------------------------------*- C++ -*----------------------------------*\
| =========                 |                                                 |
| \\      /  F ield         | OpenFOAM: The Open Source CFD Toolbox           |
|  \\    /   O peration     | Version:  2012                                  |
|   \\  /    A nd           | Website:  www.openfoam.com                      |
|    \\/     M anipulation  |                                                 |
\*---------------------------------------------------------------------------*/
FoamFile
{
    version     2.0;
    format      ascii;
    class       volScalarField;
    location    "0.87";
    object      maxKappa;
}
// * * * * * * * * * * * * * * * * * * * * * * * * * * * * * * * * * * * * * //

dimensions      [0 0 0 0 0 0 0];


internalField   nonuniform List<scalar> 
2268
(
2.64289e-06
5.04854e-06
7.30837e-06
9.24579e-06
1.07797e-05
1.19236e-05
1.26475e-05
1.30191e-05
1.31225e-05
1.31225e-05
1.29816e-05
1.25719e-05
1.19824e-05
1.11592e-05
1.00288e-05
8.51639e-06
6.521e-06
4.10002e-06
1.78802e-06
3.5655e-06
3.64725e-06
3.64725e-06
2.82728e-06
3.28707e-06
5.40868e-06
7.56912e-06
9.43184e-06
1.0895e-05
1.19906e-05
1.27049e-05
1.30871e-05
1.31722e-05
1.31722e-05
1.30098e-05
1.26079e-05
1.20362e-05
1.1253e-05
1.01549e-05
8.66734e-06
6.73684e-06
4.46482e-06
2.48064e-06
3.75568e-06
3.93671e-06
3.93671e-06
3.39706e-06
4.09613e-06
5.8847e-06
7.87286e-06
9.68075e-06
1.11674e-05
1.22763e-05
1.29642e-05
1.3308e-05
1.33245e-05
1.33245e-05
1.31095e-05
1.27205e-05
1.22066e-05
1.14445e-05
1.03954e-05
8.99242e-06
7.23437e-06
5.30111e-06
3.92226e-06
5.10561e-06
5.10561e-06
4.9485e-06
3.9472e-06
5.21188e-06
6.73483e-06
8.54222e-06
1.01749e-05
1.14941e-05
1.25004e-05
1.31455e-05
1.34589e-05
1.34589e-05
1.34414e-05
1.32275e-05
1.28686e-05
1.23781e-05
1.17142e-05
1.07926e-05
9.52493e-06
7.96528e-06
6.29518e-06
5.02896e-06
6.05698e-06
6.37431e-06
6.37431e-06
6.19964e-06
6.29223e-06
7.57108e-06
9.17932e-06
1.07372e-05
1.20933e-05
1.30881e-05
1.36467e-05
1.38447e-05
1.38447e-05
1.37102e-05
1.34186e-05
1.30768e-05
1.27089e-05
1.21012e-05
1.1282e-05
1.01753e-05
8.88491e-06
7.63467e-06
7.31119e-06
8.49235e-06
8.49235e-06
8.33228e-06
7.7494e-06
7.60979e-06
8.72811e-06
1.01969e-05
1.15296e-05
1.26396e-05
1.34904e-05
1.39654e-05
1.40943e-05
1.40943e-05
1.39081e-05
1.36238e-05
1.33127e-05
1.29461e-05
1.25318e-05
1.19418e-05
1.10331e-05
1.00012e-05
9.06635e-06
9.20188e-06
9.94702e-06
1.01162e-05
1.10505e-05
1.10505e-05
8.88415e-06
9.8077e-06
1.10365e-05
1.23045e-05
1.34982e-05
1.43225e-05
1.46728e-05
1.46728e-05
1.46239e-05
1.4253e-05
1.3823e-05
1.35401e-05
1.34341e-05
1.3162e-05
1.27055e-05
1.19863e-05
1.12636e-05
1.08751e-05
1.20621e-05
1.22806e-05
1.22806e-05
1.33597e-05
1.33597e-05
1.04563e-05
1.13995e-05
1.26209e-05
1.36103e-05
1.44302e-05
1.50323e-05
1.52082e-05
1.52082e-05
1.50038e-05
1.45174e-05
1.40669e-05
1.38182e-05
1.37171e-05
1.37007e-05
1.34764e-05
1.30216e-05
1.27902e-05
1.32709e-05
1.41297e-05
1.41297e-05
1.36872e-05
1.70411e-05
1.70411e-05
0.000124881
0.000253657
0.00050555
0.000614454
0.000712962
0.00118038
0.00232217
0.00271714
0.00271714
0.00175937
0.000503613
0.000182083
9.77772e-05
0.00011873
0.00011873
0.000109849
8.14145e-05
6.41213e-05
3.96672e-05
0.000143609
0.000345798
0.000568242
0.00119479
0.00234828
0.0028939
0.0029836
0.0029836
0.00244684
0.00113195
0.000159137
0.000104142
0.000281949
0.000542651
0.000542651
0.000295347
0.00019008
0.000112114
3.54395e-05
0.000319821
0.000614076
0.000828305
0.00145302
0.00210837
0.00210837
0.00203848
0.00175602
0.00139223
0.000546182
0.000113455
7.91014e-05
0.000117555
0.000281759
0.000611111
0.000611111
0.00037513
0.000112051
3.49983e-05
0.000219454
0.000435736
0.000762032
0.00116464
0.00116464
0.000666385
0.000441398
0.000890308
0.000890308
0.000254137
0.000127164
0.000358896
0.000358896
0.000253457
0.000252648
0.000478242
0.000478242
0.000225096
3.76637e-05
0.000138079
0.00014559
0.000290109
0.000376287
0.000376287
0.000119158
0.000170831
0.000643614
0.000643614
0.000252339
0.00021538
0.000301874
0.000490833
0.000490833
0.000438996
0.000141449
8.96652e-05
3.84281e-05
1.85766e-05
0.000149941
0.000149941
0.000294998
0.000294998
0.000287402
9.62703e-05
0.000160371
0.000425615
0.000425615
0.000265882
9.21671e-05
8.327e-05
0.000302423
0.000445968
0.000445968
0.000271386
5.30444e-05
2.37903e-05
1.19401e-05
0.000167292
0.00023191
0.000542347
0.000542347
0.000360309
0.000196746
7.1414e-05
0.000122112
0.00013581
0.00013581
8.39398e-05
9.36678e-05
0.000262896
0.00030789
0.000337024
0.000337024
0.000160988
4.4304e-05
8.33224e-06
0.000198662
0.00040259
0.000467191
0.000462282
0.000428928
0.000428928
0.000102164
5.55057e-05
5.58468e-05
6.83502e-05
8.81178e-05
0.000269352
0.000705443
0.000779842
0.000779842
0.000554935
0.000257555
5.19242e-05
2.90973e-05
1.45632e-05
1.48546e-05
1.59731e-05
1.6725e-05
1.7287e-05
1.74215e-05
1.7383e-05
1.97664e-05
2.10883e-05
1.97424e-05
1.85411e-05
1.75502e-05
1.81645e-05
1.97978e-05
2.06872e-05
2.01837e-05
2.18022e-05
2.80068e-05
4.70226e-05
0.000127271
0.000151308
8.37907e-05
4.05626e-05
1.92908e-05
2.15419e-05
2.32634e-05
2.46651e-05
3.2183e-05
5.22318e-05
6.67489e-05
0.000123084
0.000158586
0.000107621
7.96191e-05
8.77998e-05
8.72182e-05
7.91928e-05
8.28301e-05
7.95135e-05
9.11048e-05
0.000183508
0.00033937
0.0004491
0.000364187
0.000165614
0.000128597
5.15133e-05
7.47744e-05
9.9443e-05
0.000106383
0.00022016
0.000480377
0.000772801
0.000899586
0.000785559
0.000573535
0.00026833
0.000292168
0.000269939
0.000311722
0.000363766
0.000442269
0.000443437
0.000587943
0.000649488
0.000618432
0.000512312
0.000236924
0.000117895
0.000435353
0.000447341
0.000429616
0.000662086
0.00111968
0.00137852
0.00135285
0.00128472
0.00128472
0.00107354
0.00090443
0.000397065
0.000390929
0.000573932
0.000674088
0.000674088
0.000577812
0.000683421
0.00067346
0.000629858
0.000574149
0.000336816
7.97988e-05
0.00108324
0.000839982
0.000779576
0.00148101
0.00231021
0.0022868
0.00186488
0.00129171
0.00117584
0.00127461
0.00156461
0.00109976
0.000848956
0.00053554
0.000477232
0.000555686
0.000617023
0.000796313
0.00100076
0.000698671
0.000588618
0.000178772
0.000100433
0.00179161
0.00122938
0.00152003
0.00226651
0.00270557
0.00241467
0.00191258
0.00140228
0.00141767
0.00141498
0.0018372
0.00184056
0.00156266
0.00134246
0.00117634
0.000808892
0.00097649
0.00109464
0.00137639
0.00122934
0.000822652
0.000422819
0.000121397
0.00264078
0.00190991
0.0017769
0.00236977
0.00280498
0.00248115
0.00207114
0.00176684
0.00198558
0.00198558
0.00204697
0.00191895
0.00192272
0.00195668
0.00196499
0.00158006
0.0013523
0.00139371
0.00147098
0.0015871
0.00134045
0.00109826
0.000398948
0.00354707
0.00243789
0.00206931
0.00259642
0.00280498
0.00233752
0.00169182
0.00175907
0.00184274
0.00184677
0.00204697
0.00195411
0.00176601
0.0017514
0.00196499
0.00164992
0.00142492
0.00137533
0.0015438
0.00169942
0.00169942
0.00159581
0.00113948
0.00419186
0.00280341
0.00253953
0.00254581
0.00264163
0.00217068
0.00178625
0.00174936
0.00182078
0.00178386
0.00194311
0.00186315
0.00184037
0.00163324
0.00168038
0.00159461
0.00154907
0.00128442
0.00130164
0.00143165
0.00153878
0.00140717
0.00106243
0.00429508
0.00322458
0.00296789
0.00266587
0.0024839
0.00190074
0.00148447
0.00139797
0.00151884
0.00150854
0.00156564
0.00160041
0.00155561
0.00161945
0.00161945
0.00159461
0.00132895
0.00110207
0.00106519
0.00106358
0.0011595
0.00110645
0.000760932
0.00473454
0.00381434
0.00318445
0.00277811
0.00218205
0.00136369
0.000973731
0.000950779
0.00104828
0.00101709
0.00109624
0.0011261
0.00120969
0.00132189
0.00129108
0.00126404
0.00127302
0.00127302
0.00110403
0.00107252
0.00107252
0.00105155
0.000987815
0.00525902
0.00433361
0.00339502
0.002711
0.00174301
0.000736455
0.000659603
0.000743774
0.000787436
0.000722775
0.000732061
0.000740071
0.000781837
0.000824987
0.000874775
0.000901952
0.0010116
0.00107894
0.00107497
0.00106875
0.000993177
0.00108251
0.00108251
0.00579186
0.00478326
0.00351356
0.00248272
0.00125019
0.000524085
0.000619339
0.000745528
0.000678858
0.000606019
0.000527123
0.000512244
0.000528298
0.000561421
0.000570769
0.000538298
0.000556868
0.000731737
0.000890642
0.0009381
0.000871425
0.000832132
0.00100219
0.00600138
0.00509479
0.00345428
0.00211562
0.000893391
0.00082581
0.000769804
0.000805425
0.000692688
0.000581043
0.000477615
0.000404804
0.000424948
0.000466026
0.00046331
0.000449313
0.000474098
0.000518326
0.000618939
0.000694943
0.000713606
0.000680983
0.000829576
0.00600138
0.00502389
0.003286
0.00183079
0.00104193
0.00107733
0.000914865
0.000847148
0.000740653
0.000584677
0.00044771
0.000361423
0.000337588
0.000350218
0.000360342
0.000385461
0.000383471
0.000437152
0.000518089
0.000576194
0.00061201
0.000679862
0.000734621
0.00578039
0.00475537
0.00313062
0.00192029
0.00138687
0.00121142
0.00106106
0.000880338
0.000691558
0.000514324
0.000387883
0.000303573
0.000265197
0.000282209
0.00028971
0.00032107
0.000360746
0.000403067
0.000457287
0.000511346
0.000564752
0.000615905
0.000699721
0.00529363
0.00423202
0.00301029
0.00214177
0.00160903
0.00134748
0.0010724
0.000839165
0.000635322
0.000472327
0.000347911
0.00025213
0.000198973
0.000198999
0.000213712
0.000261287
0.000306987
0.000372284
0.000438892
0.000493345
0.000537214
0.000581602
0.00063427
0.00442505
0.00346335
0.00275452
0.00212301
0.00162039
0.00129357
0.00099657
0.000770937
0.000575333
0.000422119
0.000296654
0.000196962
0.000117407
0.000117117
0.000169063
0.000234196
0.000290177
0.000344593
0.000400196
0.000455849
0.00050877
0.000553988
0.000595557
0.00332385
0.00280171
0.00235161
0.00189048
0.00149562
0.00119071
0.000937022
0.0007399
0.000565739
0.000423068
0.000298517
0.000191632
9.60767e-05
8.30629e-05
0.000156986
0.000228144
0.00029575
0.000359183
0.000416059
0.000465812
0.00050914
0.00054551
0.000572775
0.00243475
0.00232247
0.00195938
0.00161255
0.00133455
0.00108938
0.000884552
0.000710873
0.000555994
0.000425095
0.000311352
0.000217805
0.000159526
0.000151298
0.000187286
0.000241019
0.000299372
0.00035554
0.00040815
0.000455847
0.000498911
0.000534624
0.000561066
0.00192625
0.00191459
0.00164946
0.0014245
0.00122683
0.00103732
0.00087056
0.000719355
0.000583257
0.000464147
0.000361247
0.000282592
0.000243879
0.000233818
0.000254049
0.000290569
0.000340064
0.000390206
0.00043666
0.000478543
0.000520087
0.000559632
0.000596308
0.00163472
0.00164045
0.00144798
0.00129473
0.00114583
0.000994117
0.000854047
0.000724077
0.000607357
0.000505357
0.00041893
0.000361167
0.000328099
0.000316802
0.00032749
0.000353149
0.000389458
0.000430487
0.000475961
0.000522629
0.000571332
0.000620926
0.000668424
0.00145712
0.00145395
0.00132105
0.00121273
0.00110035
0.000980427
0.000864649
0.000753051
0.000650702
0.000559391
0.000489296
0.000442263
0.000412256
0.000399869
0.000405217
0.000423967
0.000454136
0.000492329
0.000539428
0.000593493
0.000653505
0.00071144
0.00075594
0.00134088
0.00133265
0.00123845
0.00115729
0.00106792
0.000970304
0.000873976
0.000781324
0.000696131
0.000620074
0.000563743
0.000523552
0.000496069
0.000483776
0.000486657
0.000503158
0.000532813
0.000575657
0.000631612
0.000696074
0.000758264
0.000801457
0.000821964
0.00126427
0.00125411
0.0011915
0.00113112
0.00106084
0.000981402
0.000900126
0.000819785
0.000745209
0.000687871
0.000639503
0.000604704
0.000580232
0.000569886
0.000574174
0.000593449
0.000629639
0.000682548
0.000747415
0.000807742
0.00084091
0.000851024
0.000855752
0.00121878
0.00120616
0.0011621
0.00111536
0.0010589
0.000994987
0.000928957
0.000863608
0.000803233
0.00075787
0.000715982
0.000686739
0.000666374
0.000660917
0.000670636
0.000698594
0.000745266
0.000805782
0.000860498
0.000880043
0.0008755
0.000869391
0.000872958
0.00119669
0.00118143
0.00115552
0.00111901
0.00107338
0.00102052
0.00096443
0.000914689
0.000866957
0.000828942
0.000793498
0.0007704
0.000755941
0.000758191
0.000777075
0.000817082
0.000871273
0.000919583
0.00092516
0.000903553
0.000886391
0.000879317
0.000882505
0.00119668
0.00118445
0.00116023
0.00113031
0.00109327
0.00105326
0.00100987
0.000971888
0.000932632
0.000901872
0.000873715
0.000858365
0.000852839
0.000866033
0.000897491
0.000945522
0.000986104
0.000980035
0.000945209
0.000914846
0.000891369
0.000882074
0.000882505
0.00121227
0.00120358
0.0011844
0.00116062
0.00112951
0.00109844
0.00106366
0.00103278
0.00100138
0.000977513
0.000957697
0.00095119
0.000956039
0.000981953
0.00102259
0.00105884
0.00104496
0.00101017
0.000962003
0.000921281
0.000894147
0.000882074
0.000877935
0.00123743
0.00123117
0.00121662
0.00119747
0.00117283
0.0011481
0.00112082
0.00109659
0.00107282
0.00105658
0.00104598
0.00104967
0.0010664
0.00110222
0.00113493
0.00112136
0.00107041
0.0010093
0.000952568
0.000911729
0.000884289
0.000867927
0.00085213
0.00127145
0.00126712
0.00125647
0.00124178
0.00122297
0.00120396
0.00118328
0.0011651
0.00114894
0.00114005
0.0011396
0.00115288
0.00118046
0.0012152
0.00120604
0.0011575
0.00108861
0.00101185
0.000949638
0.000897636
0.000859168
0.000829562
0.000801794
0.00131283
0.00130976
0.00130204
0.00129119
0.00127759
0.00126406
0.00124981
0.00123811
0.00122973
0.00122891
0.00123814
0.00126158
0.0012938
0.00129661
0.00123857
0.0011656
0.0010705
0.000988729
0.000917377
0.000858301
0.000814152
0.000777948
0.000745789
0.00136237
0.00136045
0.00135523
0.00134795
0.00133893
0.00133044
0.00132192
0.00131648
0.00131523
0.00132195
0.00133998
0.00136867
0.00138194
0.00133249
0.00126703
0.00115967
0.0010575
0.000962789
0.000877077
0.0008058
0.000757864
0.000719586
0.000691698
0.00141698
0.00141619
0.00141326
0.00140923
0.00140447
0.00140097
0.00139836
0.00139947
0.0014056
0.00141903
0.0014427
0.00146312
0.00142714
0.00136107
0.00125042
0.00112894
0.00101522
0.000909343
0.000819014
0.000748093
0.000700164
0.000665343
0.000643398
0.00148198
0.00148154
0.00147967
0.00147826
0.00147721
0.00147783
0.0014799
0.00148663
0.00149811
0.00151472
0.00153598
0.00152482
0.00146636
0.00136692
0.0012327
0.00110138
0.000973868
0.0008568
0.00075729
0.000684694
0.000638661
0.000611624
0.000600071
0.00154869
0.00154903
0.00154912
0.00155076
0.00155318
0.00155818
0.00156499
0.0015771
0.00159263
0.00160948
0.00161536
0.00155682
0.00147593
0.00133743
0.00118892
0.00104417
0.000907284
0.000788844
0.000693833
0.000623919
0.000585802
0.000567503
0.000570071
0.00162866
0.00162947
0.00163044
0.00163309
0.00163796
0.00164562
0.00165502
0.00166944
0.001683
0.00169111
0.00166063
0.00159619
0.00146973
0.00131093
0.00115197
0.000996455
0.000853167
0.000728632
0.00062736
0.000562453
0.000537109
0.000531439
0.000549299
0.001706
0.00170758
0.00171011
0.00171525
0.00172323
0.00173386
0.00174631
0.00176146
0.00177071
0.00176168
0.00169348
0.00159109
0.00142975
0.00125496
0.00108387
0.000922137
0.000778847
0.000659815
0.000570605
0.000515099
0.000500987
0.000531124
0.000546806
0.00180231
0.00180408
0.00180711
0.00181247
0.00182071
0.00183126
0.00184237
0.00185089
0.00184687
0.00180047
0.00173272
0.00158435
0.00140089
0.00121695
0.00103907
0.000873381
0.000725768
0.000600226
0.000505055
0.000468399
0.000471602
0.000510319
0.000560572
0.00188893
0.00189111
0.00189493
0.00190214
0.00191274
0.00192417
0.001934
0.00193716
0.00191511
0.00183797
0.00171559
0.00153237
0.00133413
0.00114224
0.000960712
0.000794839
0.000651699
0.000539394
0.000466856
0.000449593
0.000490267
0.000546444
0.000578638
0.00200391
0.00200637
0.00201088
0.00201874
0.00202741
0.00203451
0.00203569
0.00202026
0.00195769
0.00188181
0.00172067
0.00151665
0.00130982
0.00111
0.000921815
0.000750817
0.000602546
0.000484639
0.000418801
0.000420105
0.000472783
0.000537893
0.000602792
0.00210519
0.00210658
0.00210926
0.00211198
0.00211218
0.00211218
0.00210542
0.0020807
0.00200912
0.001863
0.0016583
0.00143595
0.00122176
0.00102093
0.000836853
0.000674064
0.00053987
0.000444133
0.000406027
0.000450806
0.000515742
0.000588165
0.000602792
9.86337e-05
6.1304e-05
7.56601e-05
7.44213e-05
0.000162064
9.50913e-05
7.56601e-05
0.000122165
0.000162064
9.50913e-05
0.000123145
0.000158116
0.000106038
0.000130566
0.000164989
0.00027221
0.000124801
0.000140028
0.000249793
0.000930929
0.000124801
0.000140028
0.000345351
0.000958222
0.000156677
0.000161194
0.000447482
0.000958222
0.000507349
0.000472281
0.000801757
0.000938878
0.000602776
0.000665239
0.000801757
0.000938878
0.00070316
0.000682013
0.00071585
0.00056409
0.000785735
0.000713519
0.000779515
0.000732838
0.00108289
0.0010105
0.000807099
0.000732838
0.00108289
0.00108757
0.000959158
0.000863609
0.00103032
0.00108757
0.0010099
0.00102625
0.000846564
0.000948635
0.0010099
0.00102625
0.000783605
0.000837115
0.00088921
0.000938419
0.000693083
0.000729011
0.000767287
0.000797492
0.000627967
0.000645254
0.000660279
0.000674213
0.000597008
0.000607619
0.000614968
0.000621936
0.000578577
0.000587321
0.000590195
0.000594553
0.000618459
0.000628994
0.000636004
0.00064211
0.000694982
0.000708194
0.00071774
0.000726049
0.000773943
0.000785223
0.000792205
0.000801864
0.000830792
0.000838719
0.000844559
0.000854352
0.000863043
0.000870764
0.000877171
0.000886857
0.000881258
0.000888106
0.000893429
0.000900158
0.000887289
0.000890022
0.000893429
0.000900158
0.000887289
0.000890022
0.000890628
0.000891235
0.000873502
0.000868991
0.000862635
0.000855513
0.000835713
0.000825657
0.000813327
0.000802181
0.000779919
0.000767265
0.000754117
0.000742336
0.000724925
0.00071294
0.000701716
0.000692268
0.000673621
0.00066529
0.000657211
0.000652457
0.000632193
0.000628244
0.000625707
0.000626002
0.000598219
0.00060061
0.000604419
0.000611228
0.000577976
0.000587253
0.000599703
0.000618784
0.000571158
0.000592381
0.000613024
0.000636739
0.000582357
0.000608153
0.000632209
0.000659353
0.000602148
0.000631263
0.000658081
0.000687525
0.000624663
0.000655886
0.000684676
0.000715534
0.000652731
0.000685634
0.000716264
0.000748286
0.000652731
0.000685634
0.000716264
0.000748286
0.000207665
0.000396782
0.000593964
0.000641017
0.000641017
0.000479481
0.000167765
3.75806e-05
5.79595e-05
7.35394e-05
0.000148859
0.000662229
0.000952628
0.000952628
0.000786758
0.000616121
0.000543864
0.000279923
0.000146026
0.000215306
0.000622951
0.000417777
0.000549044
0.000434059
0.000267382
0.000200385
0.000106239
7.68288e-05
0.000140934
0.000475261
0.00102655
0.00107601
0.0010538
0.000660861
0.000555001
0.000370519
0.000184587
0.00017973
0.00042199
0.00112943
0.000890912
0.00084812
0.000675276
0.00025496
0.000118518
9.53114e-05
0.000236243
0.000687721
0.00102156
0.00112088
0.00112088
0.00108622
0.000850483
0.000630758
0.000309272
0.000410852
0.000586684
0.00110864
0.0014135
0.00132922
0.000732151
0.000432694
0.000245937
8.75098e-05
0.00010171
0.000554097
0.00114987
0.0013227
0.0013227
0.000955023
0.000741885
0.000594677
0.000424908
0.000807773
0.00100121
0.00127351
0.00166153
0.00166153
0.00109557
0.000438963
0.000380184
0.000324318
0.000163047
0.000191026
0.000335816
0.000600767
0.00080884
0.000904112
0.000946848
0.000946848
0.000796909
0.00105921
0.00146756
0.00153079
0.00190097
0.00156657
0.00154666
0.0010514
0.000869888
0.000869888
0.000701679
0.000455622
0.000171767
0.000441726
0.000830033
0.00095574
0.00095574
0.00065476
0.000910328
0.00167383
0.00189078
0.00189078
0.00221477
0.00221477
0.00124887
0.0011306
0.00102507
0.000772797
0.000867838
0.000871214
0.00076329
0.00042046
0.00037101
0.000480835
0.000456511
0.000557955
0.000786679
0.000786679
0.00102368
0.00139442
0.00134077
0.00197048
0.00215636
0.000952698
0.00116116
0.00130125
0.000970485
0.00114209
0.00110935
0.000864771
0.000538463
0.000455974
0.000594301
0.000544181
0.000533811
0.000629111
0.000758477
0.0010515
0.000842672
0.00127416
0.00211855
0.00222142
0.00121675
0.00137423
0.00135968
0.00121097
0.00114209
0.00113804
0.000943239
0.000702513
0.000632165
0.000651433
0.000651433
0.000496863
0.000610667
0.00110673
0.00110673
0.000686853
0.00127445
0.00197976
0.00222142
0.00137776
0.00156261
0.00156261
0.00127353
0.000949879
0.000852234
0.000852234
0.000846731
0.000964803
0.000926669
0.00119147
0.00111676
0.00118904
0.00117865
0.00115557
0.000724802
0.00118689
0.00192888
0.00215333
0.000871891
0.00136471
0.00136471
0.00114328
0.000515777
0.000779091
0.00106452
0.00152974
0.00176374
0.0018454
0.0018454
0.00175643
0.00165582
0.0014211
0.000729347
0.000844265
0.00116638
0.00178462
0.00202287
0.000530179
0.000733729
0.00110218
0.000845454
0.000533392
0.000829015
0.00152989
0.00171787
0.00178261
0.0018262
0.0018262
0.0016868
0.00137233
0.000981115
0.000604794
0.000928656
0.0011568
0.00154652
0.00171904
0.000732372
0.000709575
0.000837772
0.000598803
0.000691106
0.00146761
0.00157791
0.00157791
0.00147653
0.00141337
0.00138947
0.00113433
0.000912081
0.000765049
0.000845274
0.00101607
0.00113668
0.00141949
0.00152163
0.00104352
0.000965857
0.000898021
0.000931167
0.0012561
0.00145087
0.00145087
0.00135437
0.00112789
0.000949269
0.000889898
0.000821797
0.000820221
0.00089103
0.000989835
0.0010823
0.0011215
0.00131157
0.00137917
0.00126259
0.00127988
0.00132824
0.00132824
0.0012816
0.00125775
0.00125775
0.00103239
0.000659691
0.000662458
0.000758325
0.000849229
0.000912201
0.000979073
0.00104401
0.00107613
0.00107613
0.00119776
0.00124282
0.0011488
0.00123108
0.00129071
0.00129071
0.00124107
0.00105207
0.00095931
0.000637118
0.000613631
0.000912219
0.00100289
0.00104585
0.00107223
0.00107667
0.00107667
0.00107399
0.0010495
0.00106581
0.00110707
0.000849666
0.000939406
0.000955379
0.000974321
0.000863814
0.00070367
0.000588789
0.000639044
0.000966942
0.00109147
0.00112773
0.00112961
0.00112961
0.00111342
0.00108064
0.00103879
0.000962539
0.000926069
0.000972849
0.000700393
0.000701349
0.000662824
0.0006061
0.000442509
0.000311497
0.000537258
0.000837831
0.0010681
0.00116282
0.00118794
0.00118794
0.0011762
0.00114209
0.00106994
0.000971144
0.000853044
0.000793553
0.000842786
0.000630567
0.000630567
0.000555036
0.000420203
0.000239334
0.000242552
0.000532304
0.000819529
0.00102261
0.00111857
0.00115689
0.00115689
0.00114721
0.00108842
0.000983355
0.000861052
0.000734744
0.000659941
0.000714767
0.000621957
0.000621957
0.000556305
0.000453468
0.000336236
0.000363482
0.000540088
0.000782388
0.000965073
0.00107127
0.00111068
0.00111068
0.00108724
0.00101719
0.000903557
0.000771394
0.000636818
0.00053325
0.000588056
0.000647221
0.000647221
0.00060645
0.000557164
0.000520001
0.000549188
0.000625467
0.000794829
0.000929678
0.00101706
0.00105018
0.00105018
0.00102234
0.000950353
0.000837364
0.000698625
0.000555833
0.000429487
0.000464589
0.000758302
0.000758302
0.000742086
0.000726721
0.000715391
0.000755175
0.000807244
0.000918277
0.00101068
0.00107222
0.00107538
0.00107538
0.00101668
0.000913478
0.000777621
0.00063029
0.0004866
0.000347584
0.000341206
0.000860666
0.000868648
0.000878238
0.000889287
0.000911981
0.000948177
0.00100747
0.0010863
0.00114784
0.00118111
0.00118111
0.00114879
0.00105081
0.00090933
0.000733524
0.000562862
0.000417193
0.00028047
0.000221509
0.000945002
0.000966469
0.000994496
0.00101968
0.00105842
0.00111545
0.00118509
0.00125895
0.00132083
0.00135237
0.00135237
0.00129595
0.00115715
0.000964955
0.000733088
0.000522168
0.000375489
0.000260975
0.00014531
0.000992446
0.00101551
0.00104128
0.00107576
0.00113605
0.00122081
0.00131153
0.0013971
0.00147382
0.00151559
0.00151559
0.00145242
0.00128376
0.00104558
0.000762451
0.00050622
0.000363141
0.00029575
0.0001852
0.00101365
0.00102709
0.00104881
0.00109256
0.00117924
0.00129049
0.00140474
0.00151263
0.00161139
0.0016758
0.0016758
0.00162954
0.00145142
0.00116772
0.000828116
0.000515631
0.000370639
0.000358568
0.000283632
0.000996606
0.000996606
0.00100323
0.00106424
0.00118122
0.0013187
0.00145912
0.00159131
0.00171448
0.00180881
0.00180881
0.00179367
0.00161989
0.00130223
0.000908638
0.000538039
0.000420735
0.000447139
0.000388717
0.000950959
0.000950959
0.000939582
0.00101491
0.00115196
0.00131476
0.00148656
0.00164922
0.00179906
0.00192731
0.00194765
0.00194765
0.00179107
0.00145933
0.00101792
0.000584484
0.000505085
0.000548332
0.000504801
0.000876776
0.000876776
0.00086834
0.000954279
0.00110258
0.00127747
0.00147212
0.00166903
0.00185224
0.00201715
0.00207867
0.00207867
0.00195051
0.00161651
0.00113613
0.000645522
0.000600268
0.000661411
0.000633972
0.000819315
0.000819315
0.000831907
0.000929261
0.00108991
0.00127171
0.00147102
0.00168569
0.0018938
0.00209316
0.00219711
0.00219711
0.00210289
0.00177738
0.00126542
0.000714047
0.000708079
0.000787856
0.000775798
0.000757913
0.000757913
0.000785827
0.00089006
0.0010663
0.00126391
0.00146871
0.00169291
0.00192
0.00215166
0.00229908
0.00229908
0.00224276
0.00193442
0.00140257
0.000802035
0.000826491
0.000935176
0.000935176
0.000733164
0.000739724
0.000782823
0.000885608
0.00106703
0.00127901
0.00148899
0.00171616
0.00195225
0.00220852
0.00239412
0.00239412
0.00237356
0.00208956
0.00154242
0.000882608
0.000960351
0.00111113
0.00111113
0.000702663
0.000724646
0.000777413
0.000874703
0.00105424
0.00128052
0.0015018
0.00173358
0.00197484
0.0022503
0.00247289
0.002489
0.002489
0.00223636
0.00169019
0.000991405
0.00110262
0.00130534
0.00130534
0.000713831
0.000749706
0.000811517
0.000906567
0.00107746
0.00130504
0.00153352
0.00177172
0.00201702
0.00230358
0.00255153
0.00259943
0.00259943
0.0023788
0.00183742
0.00108717
0.00126399
0.0015205
0.0015205
0.000708184
0.000757592
0.000828457
0.000923619
0.00108772
0.00131495
0.00155035
0.0017966
0.0020475
0.00234353
0.00261648
0.00269706
0.00269706
0.00251355
0.00198645
0.00120263
0.0014235
0.00174654
0.00174654
0.000745508
0.000802495
0.000876878
0.000972809
0.00113222
0.00135441
0.0015901
0.00184183
0.00209745
0.00239872
0.00268887
0.00279486
0.00279486
0.00264327
0.00212117
0.00127064
0.00160592
0.00199572
0.00199572
0.000755796
0.000822502
0.00090112
0.000998268
0.00115527
0.00137472
0.00161101
0.00186812
0.00213089
0.0024383
0.00274833
0.00288243
0.00288243
0.00276413
0.00225851
0.00136171
0.00176839
0.00223236
0.00223236
0.000806703
0.000877576
0.000957508
0.00105346
0.00120761
0.00142473
0.00165971
0.00191769
0.00218346
0.00249099
0.00281182
0.00296548
0.00296548
0.00287273
0.00237857
0.00140865
0.00196109
0.00249732
0.00249732
0.000821319
0.000898096
0.000981618
0.0010788
0.00123116
0.00144747
0.00168315
0.00194365
0.00221565
0.0025251
0.00285885
0.00303311
0.00303311
0.00296969
0.00249965
0.00147595
0.00210302
0.00271962
0.00271962
0.000880872
0.000959173
0.0010432
0.00114001
0.0012897
0.00150332
0.00173784
0.00199626
0.00226807
0.00257503
0.00291183
0.00309309
0.00309309
0.00304454
0.00258104
0.00146215
0.00229256
0.00296315
0.00296315
0.000890874
0.000972249
0.00105869
0.00115723
0.00130624
0.00152015
0.00175577
0.00201451
0.00228922
0.00259572
0.00293871
0.00313089
0.00313089
0.00310067
0.00266856
0.00152046
0.00239049
0.00310685
0.00310685
0.000960781
0.00104346
0.00113033
0.00122906
0.0013769
0.00158781
0.00182193
0.00207705
0.00234983
0.00265192
0.00299323
0.00318221
0.00318221
0.00315391
0.00272287
0.00142914
0.00255521
0.00330435
0.00330435
)
;

boundaryField
{
    leftWall
    {
        type            calculated;
        value           uniform 0;
    }
    rightWall
    {
        type            calculated;
        value           uniform 0;
    }
    lowerWall
    {
        type            calculated;
        value           uniform 0;
    }
    atmosphere
    {
        type            calculated;
        value           uniform 0;
    }
    defaultFaces
    {
        type            empty;
    }
}


// ************************************************************************* //
