/*--------------------------------*- C++ -*----------------------------------*\
| =========                 |                                                 |
| \\      /  F ield         | OpenFOAM: The Open Source CFD Toolbox           |
|  \\    /   O peration     | Version:  2012                                  |
|   \\  /    A nd           | Website:  www.openfoam.com                      |
|    \\/     M anipulation  |                                                 |
\*---------------------------------------------------------------------------*/
FoamFile
{
    version     2.0;
    format      ascii;
    class       volScalarField;
    location    "0.87";
    object      p;
}
// * * * * * * * * * * * * * * * * * * * * * * * * * * * * * * * * * * * * * //

dimensions      [1 -1 -2 0 0 0 0];


internalField   nonuniform List<scalar> 
2268
(
102576
102571
102554
102539
102509
102487
102449
102424
102385
102359
102324
102303
102276
102261
102237
102227
102204
102194
102168
102157
102134
102132
102130
102518
102512
102494
102480
102450
102428
102390
102364
102325
102299
102265
102244
102216
102202
102178
102168
102145
102135
102109
102097
102076
102073
102071
102461
102455
102438
102424
102392
102372
102332
102307
102267
102240
102205
102184
102156
102141
102118
102107
102084
102073
102046
102033
102009
102007
102007
102403
102397
102378
102364
102334
102313
102274
102246
102206
102178
102143
102122
102095
102081
102057
102047
102024
102013
101986
101973
101953
101949
101948
102347
102341
102323
102310
102277
102259
102215
102191
102147
102120
102081
102061
102033
102018
101995
101984
101961
101949
101919
101901
101873
101872
101873
102291
102284
102264
102252
102219
102200
102158
102128
102086
102054
102018
101997
101971
101957
101933
101924
101899
101887
101856
101836
101815
101814
101817
102233
102228
102209
102198
102162
102148
102098
102076
102025
101998
101953
101935
101907
101892
101869
101857
101834
101820
101781
101751
101709
101720
101715
102182
102173
102150
102142
102107
102091
102044
102010
101965
101925
101889
101867
101845
101831
101807
101796
101770
101754
101716
101684
101646
101661
101667
103174
102794
102364
102033
101874
101828
101802
101804
101875
102385
102648
102355
102170
101912
101829
101858
101871
102001
102138
103095
102686
102252
101948
101800
101788
101788
101792
101829
102291
102505
102252
102066
101819
101823
101822
101799
101932
102058
102809
102501
102124
101849
101800
101790
101783
101787
101808
102132
102319
102131
101921
101769
101765
101771
101772
101860
101989
102702
102403
102007
101813
101780
101784
101786
101784
101790
101991
102137
101957
101781
101615
101706
101761
101760
101866
101962
102479
102226
101940
101796
101784
101772
101783
101780
101785
101910
102028
101876
101706
101542
101613
101698
101761
101849
101924
102307
102093
101812
101705
101744
101740
101775
101781
101790
101862
101913
101762
101589
101495
101552
101640
101761
101874
101907
102108
101889
101752
101701
101728
101712
101765
101773
101797
101819
101821
101674
101494
101474
101529
101604
101729
101825
101848
101982
101838
101729
101696
101725
101698
101748
101807
101830
101800
101736
101599
101443
101464
101518
101574
101687
101848
101834
102085
102081
102062
102054
102014
102013
101943
101937
101864
101845
101778
101771
101739
101727
101702
101689
101666
101648
101585
101530
101460
101494
101408
101993
101973
101939
101944
101905
101903
101852
101777
101751
101652
101649
101601
101617
101595
101572
101552
101516
101482
101436
101413
101409
101424
101422
101841
101829
101803
101796
101771
101821
101713
101760
101646
101631
101492
101520
101479
101463
101426
101411
101401
101389
101378
101371
101353
101350
101267
101785
101721
101672
101691
101678
101791
101715
101653
101632
101492
101485
101410
101432
101386
101373
101371
101370
101371
101370
101370
101367
101313
101195
101672
101635
101498
101437
101384
101616
101574
101616
101533
101491
101382
101387
101381
101371
101371
101370
101371
101371
101370
101369
101354
101320
101246
101697
101488
101329
101331
101337
101336
101343
101361
101375
101371
101401
101395
101381
101372
101370
101370
101370
101371
101370
101373
101376
101349
101364
101482
101354
101331
101328
101330
101325
101325
101325
101328
101330
101327
101376
101371
101369
101370
101369
101370
101371
101370
101372
101372
101372
101419
101392
101327
101327
101326
101327
101325
101325
101324
101325
101324
101325
101332
101348
101353
101367
101370
101369
101370
101371
101377
101387
101382
101430
101335
101324
101327
101324
101325
101323
101324
101323
101324
101324
101324
101324
101332
101335
101351
101363
101369
101366
101366
101374
101380
101393
101469
101326
101323
101324
101323
101323
101322
101323
101322
101323
101323
101324
101324
101324
101325
101329
101332
101340
101337
101349
101343
101359
101350
101367
101322
101322
101322
101321
101321
101320
101322
101322
101323
101323
101324
101324
101324
101324
101325
101325
101325
101332
101337
101333
101329
101329
101344
101321
101320
101320
101319
101320
101320
101321
101321
101323
101323
101324
101323
101324
101324
101324
101324
101324
101324
101325
101324
101325
101324
101325
101320
101319
101319
101318
101319
101319
101321
101321
101322
101322
101323
101323
101324
101324
101324
101324
101324
101324
101324
101324
101325
101325
101325
101318
101317
101318
101317
101319
101319
101321
101321
101322
101322
101323
101323
101324
101324
101324
101324
101324
101324
101324
101324
101324
101324
101324
101318
101317
101317
101317
101319
101319
101321
101321
101322
101322
101323
101323
101323
101323
101324
101324
101324
101324
101324
101324
101324
101324
101324
101319
101317
101317
101317
101320
101320
101321
101322
101322
101323
101323
101323
101323
101323
101324
101324
101324
101324
101324
101324
101324
101324
101324
101321
101320
101320
101320
101321
101321
101322
101322
101323
101323
101323
101323
101323
101323
101323
101324
101324
101324
101324
101324
101324
101324
101324
101324
101324
101322
101322
101322
101322
101322
101322
101323
101323
101323
101323
101323
101323
101323
101323
101324
101324
101324
101324
101324
101324
101324
101325
101324
101323
101323
101323
101323
101323
101323
101323
101323
101323
101323
101323
101323
101323
101323
101323
101323
101324
101324
101324
101324
101324
101325
101325
101324
101323
101323
101323
101323
101323
101323
101323
101323
101323
101323
101323
101323
101323
101323
101323
101323
101323
101324
101324
101324
101324
101324
101324
101324
101323
101323
101323
101323
101323
101323
101323
101323
101323
101323
101323
101323
101323
101323
101323
101323
101323
101323
101323
101324
101324
101324
101323
101323
101323
101323
101323
101323
101323
101323
101323
101323
101323
101323
101323
101323
101323
101323
101323
101323
101323
101323
101324
101324
101323
101323
101323
101323
101323
101323
101323
101323
101323
101323
101323
101323
101323
101323
101323
101323
101323
101323
101323
101323
101323
101323
101323
101323
101323
101323
101323
101323
101323
101323
101323
101323
101323
101323
101323
101323
101323
101323
101323
101323
101323
101323
101323
101323
101323
101323
101323
101323
101323
101323
101323
101323
101323
101323
101323
101322
101322
101322
101322
101322
101322
101323
101323
101323
101323
101323
101323
101323
101323
101323
101323
101323
101322
101322
101322
101322
101322
101322
101322
101322
101322
101322
101322
101322
101322
101322
101322
101322
101322
101322
101322
101322
101322
101322
101322
101322
101322
101322
101322
101322
101322
101322
101322
101322
101322
101322
101322
101322
101322
101322
101322
101322
101322
101322
101322
101322
101322
101322
101322
101322
101322
101322
101322
101322
101322
101322
101322
101322
101322
101322
101322
101322
101322
101322
101322
101322
101322
101322
101322
101322
101322
101322
101322
101322
101322
101322
101322
101322
101322
101322
101322
101322
101322
101322
101321
101321
101321
101321
101321
101322
101322
101322
101322
101321
101321
101321
101321
101321
101321
101321
101321
101321
101321
101321
101321
101321
101321
101321
101321
101321
101321
101321
101321
101321
101321
101321
101321
101321
101321
101321
101321
101321
101321
101321
101321
101321
101321
101321
101321
101321
101321
101321
101321
101321
101321
101321
101321
101321
101321
101321
101321
101321
101321
101321
101321
101321
101321
101321
101321
101321
101321
101321
101321
101321
101321
101321
101321
101321
101321
101321
101321
101321
101321
101321
101321
101321
101321
101321
101321
101321
101320
101320
101320
101320
101320
101320
101320
101320
101320
101320
101320
101320
101320
101320
101320
101320
101320
101320
101320
101320
101320
101320
101320
101320
101320
101320
101320
101320
101320
101320
101320
101320
101320
101320
101320
101320
101320
101320
101320
101320
101320
101320
101320
101320
101320
101320
101320
101320
101320
101320
101320
101320
101320
101320
101320
101320
101320
101320
101320
101320
101320
101320
101320
101320
101320
101320
101320
101320
101320
101320
101320
101319
101319
101319
101319
101319
101319
101319
101319
101319
101320
101320
101320
101320
101320
101319
101319
101319
101319
101319
101319
101319
101319
101319
101319
101319
101319
101319
101319
101319
101319
101319
101319
101319
101319
101319
101319
101319
101319
101319
101319
101319
101319
101319
101319
101319
101319
101319
101319
101319
101319
101319
101319
101319
101319
101319
101319
101319
101319
101319
101319
101319
101319
101319
101319
101319
101319
101319
101319
101319
101319
101319
101319
101319
101319
101319
101319
101319
101319
101319
101319
101319
101319
101319
101319
101319
101319
101319
101318
101318
101318
101318
101318
101318
101318
101318
101318
101318
101318
101318
101318
101318
101318
101318
101318
101318
101318
101318
101318
101318
101318
101318
101318
101318
101318
101318
101318
101318
101318
101318
101318
101318
101318
101318
101318
101318
101318
101318
101318
101318
101318
101318
101318
101318
101318
101318
101318
101318
101318
101318
101318
101318
101318
101318
101318
101318
101318
101318
101462
101381
101560
101334
101511
101481
101532
101520
101294
101283
101306
101350
101282
101268
101327
101331
101294
101304
101344
101372
101407
101419
101420
101413
101425
101427
101406
101385
101537
101428
101402
101368
101444
101436
101424
101401
101381
101381
101355
101348
101345
101349
101338
101336
101330
101329
101327
101329
101325
101324
101324
101324
101324
101324
101324
101325
101324
101324
101324
101324
101324
101324
101324
101324
101324
101324
101324
101324
101324
101324
101324
101324
101324
101324
101324
101324
101324
101324
101324
101324
101324
101324
101324
101324
101323
101323
101323
101323
101323
101323
101323
101323
101323
101323
101323
101323
101323
101323
101323
101323
101322
101322
101322
101322
101322
101322
101322
101322
101322
101322
101322
101322
101321
101321
101321
101322
101321
101321
101321
101321
101321
101321
101321
101321
101321
101321
101321
101321
101320
101320
101320
101320
101320
101320
101320
101320
101320
101320
101320
101320
101319
101319
101319
101319
101319
101319
101319
101319
101319
101319
101319
101319
101319
101319
101319
101319
101318
101318
101318
101318
101318
101318
101318
101318
101318
101318
101318
101318
101779
101698
101747
101695
101726
101696
101736
101783
101814
101700
101629
101518
101447
101458
101510
101570
101649
101739
101755
101667
101695
101722
101690
101717
101673
101698
101718
101743
101625
101514
101457
101433
101450
101451
101479
101524
101611
101588
101571
101634
101748
101637
101689
101642
101603
101588
101514
101411
101424
101387
101441
101424
101425
101429
101427
101425
101422
101611
101610
101670
101614
101596
101613
101618
101481
101370
101370
101333
101348
101375
101388
101386
101388
101358
101384
101370
101407
101459
101419
101432
101436
101481
101471
101415
101363
101335
101347
101335
101333
101346
101346
101353
101349
101350
101355
101410
101354
101328
101317
101322
101360
101361
101366
101355
101348
101333
101331
101332
101332
101330
101328
101330
101331
101331
101351
101350
101308
101314
101308
101323
101336
101328
101327
101329
101324
101332
101326
101332
101328
101328
101328
101329
101329
101347
101325
101304
101304
101305
101315
101328
101327
101328
101326
101329
101328
101329
101328
101328
101328
101328
101328
101328
101358
101346
101314
101312
101307
101316
101327
101326
101326
101326
101326
101326
101325
101326
101327
101328
101327
101328
101328
101338
101336
101327
101329
101317
101320
101327
101325
101327
101325
101326
101325
101326
101326
101327
101327
101328
101328
101328
101332
101334
101331
101328
101331
101326
101327
101326
101326
101326
101326
101326
101326
101326
101327
101327
101327
101327
101327
101329
101332
101326
101330
101327
101326
101327
101325
101326
101325
101326
101326
101326
101327
101327
101327
101327
101327
101327
101324
101323
101326
101326
101326
101325
101326
101325
101325
101325
101325
101325
101326
101326
101327
101326
101327
101327
101327
101324
101324
101324
101326
101325
101325
101325
101325
101325
101325
101325
101325
101326
101326
101326
101326
101327
101327
101327
101324
101324
101325
101325
101325
101325
101325
101324
101324
101324
101325
101325
101326
101326
101326
101326
101326
101326
101326
101324
101325
101325
101325
101325
101325
101325
101324
101324
101324
101325
101325
101326
101326
101326
101326
101326
101326
101326
101324
101324
101325
101325
101325
101325
101325
101324
101325
101325
101325
101325
101325
101325
101326
101326
101326
101326
101326
101324
101324
101325
101325
101325
101325
101325
101325
101325
101325
101325
101325
101325
101325
101326
101326
101326
101326
101326
101324
101324
101324
101325
101325
101325
101325
101325
101325
101325
101325
101325
101325
101325
101325
101325
101326
101326
101326
101324
101324
101324
101324
101325
101325
101325
101325
101325
101325
101325
101325
101325
101325
101325
101325
101325
101325
101325
101324
101324
101324
101324
101324
101324
101325
101325
101325
101325
101325
101325
101325
101325
101325
101325
101325
101325
101325
101324
101324
101324
101324
101324
101324
101324
101324
101325
101324
101324
101324
101325
101325
101325
101325
101325
101325
101325
101323
101323
101324
101324
101324
101324
101324
101324
101324
101324
101324
101324
101324
101324
101324
101325
101325
101325
101325
101323
101323
101323
101323
101324
101324
101324
101324
101324
101324
101324
101324
101324
101324
101324
101324
101324
101325
101325
101323
101323
101323
101323
101323
101323
101323
101324
101324
101324
101324
101324
101324
101324
101324
101324
101324
101324
101324
101322
101323
101323
101323
101323
101323
101323
101323
101323
101323
101324
101324
101324
101324
101324
101324
101324
101324
101324
101322
101322
101322
101322
101322
101323
101323
101323
101323
101323
101323
101323
101324
101324
101324
101324
101324
101324
101324
101322
101322
101322
101322
101322
101322
101322
101322
101323
101323
101323
101323
101323
101323
101324
101324
101324
101324
101324
101322
101322
101322
101322
101322
101322
101322
101322
101322
101322
101323
101323
101323
101323
101323
101323
101324
101324
101324
101321
101321
101321
101321
101321
101321
101322
101322
101322
101322
101322
101323
101323
101323
101323
101323
101323
101323
101323
101321
101321
101321
101321
101321
101321
101321
101321
101322
101322
101322
101322
101322
101323
101323
101323
101323
101323
101323
101321
101321
101321
101321
101321
101321
101321
101321
101321
101321
101322
101322
101322
101322
101323
101323
101323
101323
101323
101320
101320
101320
101320
101320
101321
101321
101321
101321
101321
101321
101322
101322
101322
101322
101322
101322
101323
101323
101320
101320
101320
101320
101320
101320
101320
101320
101320
101321
101321
101321
101321
101322
101322
101322
101322
101322
101322
101320
101320
101320
101320
101320
101320
101320
101320
101320
101320
101320
101321
101321
101321
101321
101322
101322
101322
101322
101319
101319
101319
101319
101320
101320
101320
101320
101320
101320
101320
101320
101321
101321
101321
101321
101321
101321
101321
101319
101319
101319
101319
101319
101319
101319
101319
101319
101320
101320
101320
101320
101320
101320
101320
101321
101321
101321
101319
101319
101319
101319
101319
101319
101319
101319
101319
101319
101319
101319
101320
101320
101320
101320
101320
101320
101320
101319
101319
101319
101319
101319
101319
101319
101319
101319
101319
101319
101319
101319
101319
101319
101319
101319
101319
101319
101318
101318
101318
101318
101318
101318
101318
101318
101318
101318
101318
101319
101319
101319
101319
101318
101319
101319
101319
101318
101318
101318
101318
101318
101318
101318
101318
101318
101318
101318
101318
101318
101318
101318
101318
101318
101318
101318
101318
101318
101318
101318
101318
101318
101318
101318
101318
101318
101318
101318
101318
101318
101318
101318
101318
101318
101318
)
;

boundaryField
{
    leftWall
    {
        type            zeroGradient;
    }
    rightWall
    {
        type            zeroGradient;
    }
    lowerWall
    {
        type            zeroGradient;
    }
    atmosphere
    {
        type            fixedValue;
        value           uniform 101325;
    }
    defaultFaces
    {
        type            empty;
    }
}


// ************************************************************************* //
