/*--------------------------------*- C++ -*----------------------------------*\
| =========                 |                                                 |
| \\      /  F ield         | OpenFOAM: The Open Source CFD Toolbox           |
|  \\    /   O peration     | Version:  2012                                  |
|   \\  /    A nd           | Website:  www.openfoam.com                      |
|    \\/     M anipulation  |                                                 |
\*---------------------------------------------------------------------------*/
FoamFile
{
    version     2.0;
    format      ascii;
    class       volScalarField;
    location    "0.87";
    object      p_rgh;
}
// * * * * * * * * * * * * * * * * * * * * * * * * * * * * * * * * * * * * * //

dimensions      [1 -1 -2 0 0 0 0];


internalField   nonuniform List<scalar> 
2268
(
102606
102600
102583
102568
102538
102517
102479
102453
102414
102388
102354
102333
102305
102290
102267
102256
102234
102224
102198
102186
102164
102161
102160
102606
102600
102583
102568
102538
102516
102479
102452
102414
102387
102353
102332
102304
102290
102266
102256
102233
102223
102197
102186
102165
102161
102159
102608
102603
102585
102571
102539
102519
102479
102454
102414
102387
102352
102331
102303
102288
102265
102254
102231
102221
102193
102180
102157
102154
102154
102609
102603
102584
102570
102540
102519
102480
102452
102412
102384
102349
102328
102301
102287
102263
102253
102230
102219
102192
102179
102159
102155
102154
102612
102606
102588
102575
102542
102524
102480
102456
102412
102385
102346
102326
102298
102283
102260
102248
102225
102214
102183
102166
102137
102137
102138
102615
102608
102588
102575
102543
102524
102482
102452
102409
102377
102342
102320
102295
102281
102257
102247
102223
102211
102180
102160
102139
102138
102141
102616
102611
102592
102581
102545
102531
102480
102459
102408
102380
102336
102318
102290
102275
102252
102240
102216
102202
102164
102133
102092
102103
102097
102623
102614
102592
102583
102548
102532
102485
102451
102406
102366
102331
102308
102286
102272
102248
102237
102211
102196
102157
102125
102084
102102
102108
103201
102821
102389
102057
101898
101850
101814
101810
101880
102400
102670
102377
102196
101939
101856
101885
101900
102030
102166
103177
102760
102323
102009
101827
101797
101793
101795
101835
102342
102588
102332
102141
101847
101843
101866
101866
102012
102144
102928
102591
102212
101916
101809
101790
101784
101787
101823
102253
102458
102266
102055
101895
101830
101800
101801
101957
102133
102884
102558
102134
101830
101782
101787
101787
101784
101812
102181
102326
102091
101885
101782
101873
101844
101841
102032
102163
102728
102475
102171
101920
101906
101938
101788
101781
101810
102152
102254
102069
101802
101639
101790
101941
102007
102112
102187
102612
102397
102086
101829
101917
101956
101901
101796
101929
102153
102227
102078
101808
101565
101656
101909
102082
102195
102228
102468
102241
101923
101711
101739
101882
102080
101930
102132
102168
102195
102048
101788
101557
101612
101751
102060
102185
102227
102397
102209
101741
101703
101732
101746
102102
102146
102257
102231
102167
101999
101620
101560
101613
101669
101935
102264
102226
102619
102615
102595
102587
102547
102547
102477
102471
102398
102378
102312
102305
102273
102261
102235
102222
102199
102181
102116
102032
101867
101930
101941
102652
102632
102598
102602
102564
102562
102511
102412
102357
102250
102262
102230
102248
102226
102206
102194
102159
102097
101945
101687
101587
101694
101863
102625
102599
102564
102560
102504
102386
102091
102065
101928
101905
101818
101939
101980
102041
101986
101896
101769
101609
101476
101424
101442
101753
101836
102411
102249
102216
102236
102203
102297
102035
101766
101731
101590
101583
101590
101795
101627
101419
101376
101372
101372
101372
101371
101488
101909
102046
101819
102039
102072
101683
101458
101707
101892
102059
101976
101836
101435
101398
101403
101380
101372
101372
101372
101372
101371
101373
101641
102255
102220
101862
101940
101645
101351
101340
101359
101632
101834
101871
101862
101598
101397
101383
101373
101371
101372
101372
101373
101372
101376
101533
102230
102456
101721
101592
101351
101330
101333
101333
101328
101326
101394
101433
101466
101544
101487
101400
101373
101371
101372
101372
101372
101373
101380
101607
102493
101580
101331
101329
101328
101329
101328
101327
101326
101327
101326
101334
101527
101619
101624
101421
101371
101371
101372
101375
101381
101391
101415
101763
101377
101326
101329
101326
101327
101325
101326
101325
101326
101326
101326
101334
101515
101634
101650
101443
101376
101459
101569
101566
101430
101471
101785
101330
101326
101326
101325
101325
101324
101325
101325
101326
101326
101326
101326
101327
101347
101458
101534
101613
101749
101761
101755
101545
101543
101983
101325
101324
101324
101323
101324
101323
101324
101324
101325
101325
101326
101326
101326
101327
101327
101327
101355
101568
101710
101598
101425
101401
101787
101324
101324
101323
101322
101322
101322
101324
101324
101325
101325
101326
101326
101326
101326
101327
101327
101327
101327
101327
101327
101327
101327
101344
101323
101322
101322
101321
101322
101322
101324
101324
101325
101325
101326
101326
101326
101326
101327
101327
101327
101327
101327
101327
101327
101327
101327
101321
101321
101320
101320
101322
101322
101324
101324
101325
101325
101326
101326
101326
101326
101327
101327
101327
101327
101327
101327
101327
101327
101327
101321
101320
101320
101320
101322
101322
101324
101324
101325
101325
101326
101326
101326
101326
101327
101327
101327
101327
101327
101327
101327
101327
101327
101322
101320
101321
101320
101323
101323
101324
101325
101326
101326
101326
101326
101326
101327
101327
101327
101327
101327
101327
101327
101327
101327
101327
101325
101323
101323
101323
101324
101324
101325
101325
101326
101326
101326
101326
101327
101327
101327
101327
101327
101327
101327
101327
101327
101327
101327
101327
101327
101325
101325
101325
101325
101326
101326
101326
101326
101326
101327
101327
101327
101327
101327
101327
101327
101327
101327
101327
101327
101327
101329
101328
101327
101327
101326
101326
101326
101326
101326
101326
101327
101327
101327
101327
101327
101327
101327
101327
101327
101327
101327
101327
101327
101328
101328
101328
101327
101327
101327
101327
101327
101327
101327
101327
101327
101327
101327
101327
101327
101327
101327
101327
101327
101327
101327
101327
101328
101328
101328
101327
101327
101327
101327
101327
101327
101327
101327
101327
101327
101327
101327
101327
101327
101327
101327
101327
101327
101327
101327
101328
101328
101328
101328
101327
101327
101327
101327
101327
101327
101327
101327
101327
101327
101327
101327
101327
101327
101327
101327
101327
101327
101327
101328
101328
101328
101328
101327
101327
101327
101327
101327
101327
101327
101327
101327
101327
101327
101327
101327
101327
101327
101327
101327
101327
101327
101328
101328
101328
101327
101327
101327
101327
101327
101327
101327
101327
101327
101327
101327
101327
101327
101327
101327
101327
101327
101327
101327
101327
101327
101327
101327
101327
101327
101327
101327
101327
101327
101327
101327
101327
101327
101327
101327
101327
101327
101327
101327
101327
101327
101327
101327
101327
101327
101327
101327
101327
101327
101327
101327
101327
101327
101327
101327
101327
101327
101327
101327
101327
101327
101327
101327
101327
101327
101327
101327
101327
101327
101327
101327
101327
101327
101327
101327
101327
101327
101327
101327
101327
101327
101327
101327
101327
101327
101327
101327
101327
101327
101327
101327
101327
101327
101327
101327
101327
101327
101327
101327
101327
101327
101327
101327
101327
101327
101327
101327
101327
101327
101327
101327
101327
101327
101327
101327
101327
101327
101327
101327
101327
101327
101327
101327
101327
101327
101327
101327
101327
101327
101327
101327
101327
101327
101327
101327
101327
101327
101327
101327
101327
101327
101327
101327
101327
101327
101327
101327
101327
101327
101327
101327
101327
101327
101327
101327
101327
101327
101327
101327
101327
101327
101327
101327
101327
101327
101327
101327
101327
101327
101327
101327
101327
101327
101327
101326
101326
101326
101326
101326
101326
101326
101327
101327
101327
101327
101327
101327
101327
101327
101327
101327
101327
101327
101327
101326
101326
101326
101326
101326
101326
101326
101326
101326
101326
101327
101327
101327
101327
101327
101327
101327
101327
101327
101326
101326
101326
101326
101326
101326
101326
101326
101326
101326
101326
101326
101326
101326
101326
101326
101326
101326
101326
101326
101326
101326
101326
101326
101326
101326
101326
101326
101326
101326
101326
101326
101326
101326
101326
101326
101326
101326
101326
101326
101326
101326
101326
101326
101326
101326
101326
101326
101326
101326
101326
101326
101326
101326
101326
101326
101326
101326
101326
101326
101326
101326
101326
101326
101326
101326
101326
101326
101326
101326
101326
101326
101326
101326
101326
101326
101326
101326
101326
101326
101326
101326
101326
101326
101326
101326
101326
101326
101326
101326
101326
101326
101326
101326
101326
101326
101326
101326
101326
101326
101326
101326
101326
101326
101326
101326
101326
101326
101326
101326
101326
101326
101326
101326
101326
101326
101326
101326
101326
101326
101326
101325
101325
101325
101325
101325
101325
101325
101325
101326
101326
101326
101326
101326
101326
101326
101326
101326
101326
101326
101326
101325
101325
101325
101325
101325
101325
101325
101325
101325
101325
101325
101326
101326
101326
101326
101326
101326
101326
101326
101326
101325
101325
101325
101325
101325
101325
101325
101325
101325
101325
101325
101325
101325
101325
101325
101325
101325
101325
101325
101325
101325
101325
101325
101325
101325
101325
101325
101325
101325
101325
101325
101325
101325
101325
101325
101325
101325
101326
101326
101326
101326
101326
101325
101325
101325
101325
101325
101325
101325
101325
101325
101325
101325
101325
101325
101325
101325
101325
101325
101325
101938
101701
101945
101827
101907
101877
102084
102137
101843
101931
102044
102088
102137
102123
102182
102187
102267
102278
102283
101955
102498
102510
102384
101850
102634
102637
102367
101902
102290
102209
101965
101718
101641
101496
101456
101427
101998
101672
101439
101417
102008
102012
101692
101375
101510
101481
101383
101420
101327
101327
101327
101327
101327
101327
101327
101327
101327
101327
101327
101327
101327
101327
101328
101328
101327
101327
101328
101328
101328
101328
101328
101328
101327
101327
101328
101328
101328
101328
101328
101328
101327
101327
101328
101328
101327
101327
101328
101328
101327
101327
101327
101327
101327
101327
101327
101327
101327
101327
101327
101327
101327
101327
101327
101327
101327
101327
101327
101327
101327
101327
101327
101327
101327
101327
101327
101327
101327
101327
101327
101327
101326
101326
101326
101326
101326
101326
101326
101326
101326
101326
101326
101326
101326
101326
101326
101326
101326
101326
101326
101326
101326
101326
101326
101326
101326
101326
101326
101326
101325
101325
101325
101325
101325
101325
101325
101325
101325
101325
101325
101325
101325
101325
101325
101325
101325
101325
101325
101325
102281
102116
101760
101730
101741
101732
102017
102257
102327
102220
102146
101854
101573
101574
101758
101853
101935
102139
102134
102287
102073
101775
101786
101741
101722
102077
102307
102371
102261
102080
101690
101549
101631
101841
101872
102025
102156
102133
102266
101749
101811
101733
102110
102321
102323
102323
102216
101875
101764
101660
101579
101563
101564
101639
101935
101971
101864
102175
101711
101843
102150
102237
102363
102465
102334
101821
101413
101374
101594
101767
101780
101611
101712
101625
101469
101416
101638
101573
101895
102181
102185
102242
102235
102047
101837
101502
101349
101336
101428
101579
101689
101685
101365
101370
101379
101579
101481
101586
101538
101570
101810
101908
101979
101862
101605
101340
101332
101334
101333
101332
101333
101348
101350
101349
101716
101674
101345
101316
101310
101386
101352
101367
101329
101371
101336
101344
101342
101338
101330
101330
101329
101330
101331
101579
101624
101379
101306
101310
101396
101334
101329
101330
101346
101403
101414
101408
101339
101330
101329
101330
101330
101330
101384
101389
101396
101328
101313
101429
101376
101328
101328
101328
101328
101355
101346
101330
101329
101330
101329
101330
101330
101369
101339
101347
101332
101395
101442
101358
101327
101329
101328
101328
101328
101328
101329
101330
101330
101330
101330
101330
101346
101337
101333
101330
101523
101358
101329
101328
101328
101328
101328
101328
101328
101329
101330
101329
101330
101330
101330
101466
101446
101335
101370
101386
101332
101329
101328
101328
101328
101328
101328
101329
101329
101330
101329
101330
101330
101330
101329
101348
101361
101361
101328
101328
101329
101328
101328
101328
101328
101328
101329
101329
101329
101329
101329
101329
101330
101327
101332
101340
101331
101328
101328
101328
101327
101328
101328
101328
101328
101329
101329
101329
101329
101329
101329
101330
101327
101327
101329
101329
101328
101328
101328
101327
101327
101327
101328
101328
101329
101329
101329
101329
101329
101329
101329
101328
101328
101328
101329
101329
101328
101328
101327
101328
101328
101328
101328
101329
101329
101329
101329
101329
101329
101329
101328
101328
101328
101328
101329
101328
101328
101328
101328
101328
101328
101328
101329
101329
101329
101329
101329
101329
101329
101328
101328
101328
101328
101328
101328
101328
101328
101328
101328
101328
101328
101329
101329
101329
101329
101329
101329
101329
101328
101328
101328
101328
101328
101328
101329
101328
101328
101328
101328
101328
101329
101329
101329
101329
101329
101329
101329
101328
101328
101328
101328
101328
101328
101329
101329
101329
101328
101329
101329
101329
101329
101329
101329
101329
101329
101329
101328
101328
101328
101328
101328
101328
101329
101329
101329
101328
101329
101328
101329
101329
101329
101329
101329
101329
101329
101328
101328
101328
101328
101328
101328
101329
101329
101329
101329
101329
101329
101329
101329
101329
101329
101329
101329
101329
101328
101328
101328
101328
101328
101328
101328
101328
101329
101328
101329
101328
101329
101329
101329
101329
101329
101329
101329
101327
101328
101328
101328
101328
101328
101328
101328
101328
101328
101329
101329
101329
101329
101329
101329
101329
101329
101329
101327
101327
101328
101328
101328
101328
101328
101328
101328
101328
101328
101328
101329
101329
101329
101329
101329
101329
101329
101327
101327
101327
101327
101328
101328
101328
101328
101328
101328
101328
101328
101329
101329
101329
101329
101329
101329
101329
101327
101327
101327
101327
101327
101327
101328
101328
101328
101328
101328
101328
101328
101329
101329
101329
101329
101329
101329
101327
101327
101327
101327
101327
101327
101327
101328
101328
101328
101328
101328
101328
101329
101329
101329
101329
101329
101329
101327
101327
101327
101327
101327
101327
101327
101327
101327
101328
101328
101328
101328
101328
101329
101329
101329
101329
101329
101327
101327
101327
101327
101327
101327
101327
101327
101327
101328
101328
101328
101328
101328
101329
101329
101329
101329
101329
101326
101326
101327
101327
101327
101327
101327
101327
101327
101327
101328
101328
101328
101328
101328
101329
101329
101329
101329
101326
101326
101326
101326
101326
101327
101327
101327
101327
101327
101327
101328
101328
101328
101328
101328
101329
101329
101329
101326
101326
101326
101326
101326
101326
101326
101327
101327
101327
101327
101327
101328
101328
101328
101328
101328
101328
101328
101326
101326
101326
101326
101326
101326
101326
101326
101327
101327
101327
101327
101327
101328
101328
101328
101328
101328
101328
101326
101326
101326
101326
101326
101326
101326
101326
101326
101327
101327
101327
101327
101327
101328
101328
101328
101328
101328
101326
101326
101326
101326
101326
101326
101326
101326
101326
101326
101326
101327
101327
101327
101327
101328
101328
101328
101328
101326
101326
101326
101326
101326
101326
101326
101326
101326
101326
101326
101326
101327
101327
101327
101327
101327
101327
101327
101326
101326
101326
101326
101326
101326
101326
101326
101326
101326
101326
101326
101326
101326
101326
101327
101327
101327
101327
101325
101325
101325
101326
101326
101326
101326
101326
101326
101326
101326
101326
101326
101326
101326
101326
101326
101326
101326
101325
101325
101325
101325
101325
101325
101325
101325
101325
101325
101325
101326
101326
101326
101326
101326
101326
101326
101326
101325
101325
101325
101325
101325
101325
101325
101325
101325
101325
101325
101325
101325
101325
101325
101325
101325
101325
101325
101325
101325
101325
101325
101325
101325
101325
101325
101325
101325
101325
101325
101325
101325
101325
101325
101325
101325
101325
)
;

boundaryField
{
    leftWall
    {
        type            zeroGradient;
    }
    rightWall
    {
        type            zeroGradient;
    }
    lowerWall
    {
        type            zeroGradient;
    }
    atmosphere
    {
        type            fixedValue;
        value           uniform 101325;
    }
    defaultFaces
    {
        type            empty;
    }
}


// ************************************************************************* //
