/*--------------------------------*- C++ -*----------------------------------*\
| =========                 |                                                 |
| \\      /  F ield         | OpenFOAM: The Open Source CFD Toolbox           |
|  \\    /   O peration     | Version:  2012                                  |
|   \\  /    A nd           | Website:  www.openfoam.com                      |
|    \\/     M anipulation  |                                                 |
\*---------------------------------------------------------------------------*/
FoamFile
{
    version     2.0;
    format      ascii;
    class       surfaceScalarField;
    location    "0.87";
    object      phi;
}
// * * * * * * * * * * * * * * * * * * * * * * * * * * * * * * * * * * * * * //

dimensions      [0 3 -1 0 0 0 0];
oriented        oriented;


internalField   nonuniform List<scalar> 
4432
(
-4.1269e-06
4.1269e-06
-8.06262e-06
3.93573e-06
-1.17199e-05
3.65723e-06
-1.48345e-05
3.11466e-06
-1.73141e-05
2.47961e-06
-1.91439e-05
1.82975e-06
-2.03189e-05
1.17504e-06
-2.09073e-05
5.88395e-07
-2.10831e-05
1.7579e-07
-2.08488e-05
-2.34258e-07
-2.01976e-05
-6.51213e-07
-1.9242e-05
-9.55592e-07
-1.79247e-05
-1.31736e-06
-1.60951e-05
-1.82962e-06
-1.3662e-05
-2.43301e-06
-1.04201e-05
-3.24189e-06
-6.47353e-06
-3.94662e-06
-2.06965e-06
-4.40387e-06
2.20287e-06
-4.27252e-06
5.62722e-06
-3.42435e-06
5.80537e-06
-1.78146e-07
4.49693e-06
1.30844e-06
4.49694e-06
-4.17646e-06
8.30336e-06
-8.1786e-06
7.93786e-06
-1.18692e-05
7.34778e-06
-1.49756e-05
6.22106e-06
-1.74063e-05
4.9104e-06
-1.92071e-05
3.6305e-06
-2.03942e-05
2.36212e-06
-2.10127e-05
1.2069e-06
-2.11627e-05
3.25823e-07
-2.08916e-05
-5.05396e-07
-2.025e-05
-1.2928e-06
-1.93156e-05
-1.88995e-06
-1.80486e-05
-2.5844e-06
-1.62427e-05
-3.63552e-06
-1.37887e-05
-4.88703e-06
-1.05269e-05
-6.50366e-06
-6.52546e-06
-7.94805e-06
-2.03379e-06
-8.89554e-06
2.33131e-06
-8.63762e-06
5.81642e-06
-6.90947e-06
6.11423e-06
-4.75953e-07
4.39853e-06
3.02414e-06
8.89548e-06
-4.27158e-06
1.25749e-05
-8.27884e-06
1.19451e-05
-1.20123e-05
1.10813e-05
-1.52173e-05
9.42606e-06
-1.77903e-05
7.48341e-06
-1.96446e-05
5.48479e-06
-2.08066e-05
3.52406e-06
-2.13668e-05
1.76714e-06
-2.14062e-05
3.65232e-07
-2.10466e-05
-8.65038e-07
-2.04134e-05
-1.92594e-06
-1.95569e-05
-2.74652e-06
-1.82868e-05
-3.85448e-06
-1.64833e-05
-5.43899e-06
-1.39984e-05
-7.37194e-06
-1.06853e-05
-9.81672e-06
-6.53956e-06
-1.20938e-05
-1.73816e-06
-1.36969e-05
3.07257e-06
-1.34484e-05
7.36301e-06
-1.11999e-05
7.89311e-06
-1.00605e-06
5.30909e-06
5.60816e-06
1.42046e-05
-4.39127e-06
1.69662e-05
-8.5477e-06
1.61015e-05
-1.23612e-05
1.48948e-05
-1.555e-05
1.26148e-05
-1.80363e-05
9.96979e-06
-1.98767e-05
7.32511e-06
-2.10514e-05
4.69881e-06
-2.16007e-05
2.31639e-06
-2.15929e-05
3.57505e-07
-2.12282e-05
-1.22977e-06
-2.06382e-05
-2.51592e-06
-1.97985e-05
-3.5862e-06
-1.86467e-05
-5.00627e-06
-1.69704e-05
-7.11533e-06
-1.4543e-05
-9.7993e-06
-1.12501e-05
-1.31097e-05
-6.95978e-06
-1.63841e-05
-1.84377e-06
-1.88129e-05
3.57323e-06
-1.88654e-05
8.54234e-06
-1.6169e-05
9.68655e-06
-2.15026e-06
6.6142e-06
8.68052e-06
2.08188e-05
-4.58388e-06
2.15501e-05
-8.82224e-06
2.03399e-05
-1.2794e-05
1.88666e-05
-1.61965e-05
1.60173e-05
-1.89226e-05
1.26959e-05
-2.07853e-05
9.18783e-06
-2.18506e-05
5.76409e-06
-2.22179e-05
2.68369e-06
-2.20233e-05
1.6284e-07
-2.15257e-05
-1.72733e-06
-2.09437e-05
-3.09797e-06
-2.02792e-05
-4.25065e-06
-1.9161e-05
-6.12445e-06
-1.75164e-05
-8.75996e-06
-1.50613e-05
-1.22544e-05
-1.16736e-05
-1.64974e-05
-7.11204e-06
-2.09456e-05
-1.4277e-06
-2.44973e-05
5.13872e-06
-2.54318e-05
1.15902e-05
-2.26205e-05
1.30204e-05
-3.58037e-06
9.17362e-06
1.25273e-05
2.99924e-05
-4.74064e-06
2.62907e-05
-9.26682e-06
2.48661e-05
-1.3372e-05
2.29718e-05
-1.67271e-05
1.93723e-05
-1.93466e-05
1.53155e-05
-2.12455e-05
1.10867e-05
-2.23047e-05
6.82335e-06
-2.26147e-05
2.9936e-06
-2.23355e-05
-1.16335e-07
-2.18415e-05
-2.22131e-06
-2.13098e-05
-3.62967e-06
-2.06209e-05
-4.93955e-06
-1.97571e-05
-6.9883e-06
-1.83743e-05
-1.01427e-05
-1.60275e-05
-1.46013e-05
-1.26581e-05
-1.98668e-05
-7.91989e-06
-2.56838e-05
-1.81537e-06
-3.06018e-05
5.91478e-06
-3.31619e-05
1.32008e-05
-2.99066e-05
1.51257e-05
-5.5052e-06
1.0506e-05
1.7147e-05
4.04984e-05
-5.02693e-06
3.13177e-05
-9.62517e-06
2.94643e-05
-1.39718e-05
2.73184e-05
-1.76977e-05
2.30983e-05
-2.06625e-05
1.82803e-05
-2.25387e-05
1.29628e-05
-2.34403e-05
7.72502e-06
-2.346e-05
3.01323e-06
-2.28903e-05
-6.86017e-07
-2.21477e-05
-2.96386e-06
-2.16408e-05
-4.13662e-06
-2.13587e-05
-5.2216e-06
-2.06863e-05
-7.66068e-06
-1.93563e-05
-1.14727e-05
-1.69574e-05
-1.70002e-05
-1.34502e-05
-2.3374e-05
-8.45078e-06
-3.06832e-05
-1.63219e-06
-3.74204e-05
7.40246e-06
-4.21966e-05
1.55371e-05
-3.80413e-05
1.80821e-05
-8.05014e-06
1.45031e-05
2.07259e-05
5.50015e-05
-5.5481e-06
3.68658e-05
-1.08423e-05
3.47585e-05
-1.5322e-05
3.17981e-05
-1.88127e-05
2.65891e-05
-2.15633e-05
2.10308e-05
-2.34773e-05
1.48768e-05
-2.42506e-05
8.49834e-06
-2.40778e-05
2.84046e-06
-2.32886e-05
-1.47525e-06
-2.25158e-05
-3.7367e-06
-2.209e-05
-4.56235e-06
-2.18077e-05
-5.50391e-06
-2.14703e-05
-7.99812e-06
-2.03716e-05
-1.25714e-05
-1.81601e-05
-1.92117e-05
-1.4989e-05
-2.65451e-05
-1.03068e-05
-3.53654e-05
-3.53779e-06
-4.41894e-05
5.7267e-06
-5.14611e-05
1.40858e-05
-4.64003e-05
1.73744e-05
-1.13386e-05
1.41792e-05
2.39212e-05
6.91806e-05
-6.02854e-05
6.02822e-05
-0.000105378
4.50641e-05
-0.000141414
3.59697e-05
-0.000166914
2.54722e-05
-0.00018315
1.62377e-05
-0.000192994
9.83171e-06
-0.000198952
5.97221e-06
-0.000196902
-1.97857e-06
-0.000155537
-4.08851e-05
-8.40559e-05
-7.17733e-05
-3.71048e-05
-4.68727e-05
-3.00341e-05
-7.09303e-06
-4.3715e-05
1.36866e-05
-5.72026e-05
1.34831e-05
-6.2322e-05
5.12477e-06
-5.73235e-05
-4.99737e-06
-4.94367e-05
-7.88314e-06
-3.09613e-05
-1.84713e-05
-3.09595e-05
-4.97526e-05
0.000110035
-9.30564e-05
8.83278e-05
-0.00012671
6.9581e-05
-0.000152688
5.14015e-05
-0.000175235
3.88058e-05
-0.000188524
2.31557e-05
-0.000188012
5.50201e-06
-0.000151957
-3.79859e-05
-9.13609e-05
-0.000101117
-3.99166e-05
-0.000123513
2.01353e-07
-8.69782e-05
3.63753e-05
-4.32698e-05
5.48294e-05
-4.72884e-06
4.1254e-05
2.71615e-05
8.80898e-07
4.55571e-05
-3.0754e-05
2.66511e-05
-3.33572e-05
-5.26011e-06
-2.06524e-05
-3.11685e-05
-5.16106e-05
-4.2287e-05
0.000152391
-7.60986e-05
0.000122135
-0.000101928
9.53718e-05
-0.000121443
7.09208e-05
-0.000133106
5.04819e-05
-0.000128527
1.8594e-05
-0.000108796
-1.42094e-05
-7.86507e-05
-6.80983e-05
-4.40315e-05
-0.000135609
-2.2174e-05
-0.000145452
3.70113e-07
-0.000109517
3.20639e-05
-7.49745e-05
5.09652e-05
-2.36161e-05
5.62217e-05
2.19147e-05
4.76427e-05
5.41846e-05
1.47923e-05
5.95334e-05
-4.05762e-06
1.36331e-05
-5.71086e-07
-3.46329e-05
-5.21799e-05
-3.28583e-05
0.000185264
-5.65842e-05
0.000145839
-6.94694e-05
0.000108217
-6.82619e-05
6.97723e-05
-3.99184e-05
2.21863e-05
-1.14519e-05
-9.82948e-06
-2.06774e-05
-4.96106e-06
-3.4852e-05
-5.38971e-05
-2.55773e-05
-0.000144795
-1.72018e-05
-0.000153855
-3.28118e-06
-0.000123434
3.21846e-05
-0.00011046
5.23364e-05
-4.36955e-05
4.77368e-05
2.65281e-05
4.52488e-05
5.66711e-05
4.31541e-05
6.16262e-05
3.1883e-05
2.49408e-05
1.59116e-05
-1.86613e-05
-3.62664e-05
-3.24661e-05
0.000217752
-5.1635e-05
0.000165007
-5.49305e-05
0.000111485
-3.78342e-05
5.26627e-05
-1.43664e-05
-1.27922e-06
-2.12161e-06
-2.20612e-05
1.47394e-07
-7.1995e-06
-9.46793e-06
-4.42488e-05
-1.74851e-05
-0.000136639
-1.90112e-05
-0.000152345
-1.35645e-05
-0.000128866
6.74943e-06
-0.000130776
3.8508e-05
-7.53581e-05
4.98123e-05
1.52715e-05
4.32021e-05
6.32881e-05
4.1963e-05
6.28573e-05
3.41882e-05
3.27146e-05
1.96309e-05
-4.10361e-06
-1.66347e-05
-2.74175e-05
0.000245186
-4.34105e-05
0.000180997
-4.47423e-05
0.000112812
-2.74797e-05
3.54627e-05
-6.88841e-06
-2.18732e-05
2.87877e-06
-3.18215e-05
4.21701e-06
-8.50832e-06
-1.11115e-06
-3.88509e-05
-1.50073e-05
-0.00012259
-2.37152e-05
-0.000143649
-2.05917e-05
-0.000131988
-1.48027e-05
-0.000136566
9.25471e-06
-9.93829e-05
3.0719e-05
-6.18234e-06
3.43593e-05
5.97022e-05
3.50864e-05
6.21157e-05
2.70183e-05
4.07824e-05
1.40797e-05
8.83545e-06
-2.55418e-06
-2.30972e-05
0.000268299
-3.54865e-05
0.000193389
-3.34042e-05
0.000110786
-1.19932e-05
1.41009e-05
7.08433e-06
-4.09374e-05
8.96487e-06
-3.37291e-05
8.82614e-06
-8.36739e-06
3.1784e-06
-3.31228e-05
-1.52875e-05
-0.000104101
-2.79588e-05
-0.000130976
-2.73938e-05
-0.000132551
-2.70681e-05
-0.000136893
-2.44034e-05
-0.000102084
-1.25522e-05
-1.80294e-05
8.80193e-06
3.84028e-05
1.97443e-05
5.12272e-05
1.338e-05
4.71438e-05
6.39945e-06
1.58191e-05
3.84609e-06
-1.61112e-05
0.00028442
-1.75671e-05
0.000194816
-3.17151e-06
9.65145e-05
1.6823e-05
-5.8716e-06
2.08878e-05
-4.49874e-05
1.25897e-05
-2.54192e-05
1.02285e-05
-6.0115e-06
-6.34637e-07
-2.22495e-05
-1.93009e-05
-8.54309e-05
-3.23162e-05
-0.000117962
-3.56633e-05
-0.000129203
-3.97078e-05
-0.000132869
-5.23069e-05
-8.9511e-05
-5.84604e-05
-1.18713e-05
-3.90118e-05
1.90178e-05
-1.7029e-05
2.92972e-05
-1.21732e-05
4.23386e-05
-9.64433e-06
1.32928e-05
-5.78547e-06
-1.18019e-05
4.86677e-05
-2.27712e-05
4.57278e-05
-3.40766e-05
4.31034e-05
-4.4256e-05
3.67685e-05
-5.22475e-05
2.90223e-05
-5.60211e-05
1.86504e-05
-5.64129e-05
8.89016e-06
-5.40833e-05
5.10869e-07
-5.02234e-05
-5.33514e-06
-4.68153e-05
-7.14484e-06
-4.64289e-05
-4.94874e-06
-4.83928e-05
-3.54e-06
-4.89221e-05
-7.46876e-06
-4.76121e-05
-1.38814e-05
-4.4171e-05
-2.26527e-05
-3.8884e-05
-3.18321e-05
-2.9995e-05
-4.42544e-05
-1.61849e-05
-5.79995e-05
2.16568e-06
-6.98115e-05
2.08346e-05
-6.50716e-05
4.47475e-05
-3.52641e-05
5.26818e-05
1.59948e-05
6.7294e-05
5.45684e-05
-1.59122e-05
6.45799e-05
-3.05322e-05
6.03478e-05
-4.15557e-05
5.4127e-05
-4.92687e-05
4.44814e-05
-5.45744e-05
3.4328e-05
-5.84092e-05
2.24852e-05
-5.88938e-05
9.37477e-06
-5.53292e-05
-3.0553e-06
-4.9846e-05
-1.08226e-05
-4.81769e-05
-8.80471e-06
-4.95062e-05
-3.61591e-06
-5.08832e-05
-2.15974e-06
-5.5071e-05
-3.28008e-06
-5.90702e-05
-9.88004e-06
-5.92112e-05
-2.25109e-05
-5.79844e-05
-3.3058e-05
-5.4541e-05
-4.7698e-05
-4.80422e-05
-6.45112e-05
-3.81271e-05
-7.98238e-05
-2.74909e-05
-7.58647e-05
-8.48404e-06
-5.43493e-05
1.17182e-05
-4.17713e-06
4.8304e-05
3.07074e-05
-1.94995e-05
8.40795e-05
-3.67286e-05
7.75793e-05
-5.716e-05
7.45562e-05
-8.05065e-05
6.78262e-05
-9.86237e-05
5.24237e-05
-0.000106487
3.02602e-05
-0.000109844
1.27011e-05
-0.000100055
-1.29449e-05
-7.17174e-05
-3.91619e-05
-4.69403e-05
-3.35498e-05
-5.8448e-05
8.00335e-06
-8.10016e-05
2.04055e-05
-8.5853e-05
1.62619e-06
-8.58072e-05
-9.93421e-06
-8.7033e-05
-2.13295e-05
-8.51773e-05
-3.50239e-05
-8.07746e-05
-5.23096e-05
-7.22662e-05
-7.32649e-05
-5.25898e-05
-9.96496e-05
-3.76231e-05
-9.08854e-05
-2.51803e-05
-6.67637e-05
-6.19425e-06
-2.31532e-05
3.67884e-05
5.30969e-06
-2.28207e-05
0.000107052
-4.52693e-05
0.000100247
-7.10678e-05
0.000100422
-0.000115754
0.000112648
-0.000190339
0.000126865
-0.00023915
7.86517e-05
-0.000233473
6.41961e-06
-0.000199575
-4.68045e-05
-0.000156084
-8.26447e-05
-9.63936e-05
-9.29353e-05
-4.61247e-05
-4.21397e-05
-5.37381e-05
2.81749e-05
-8.39813e-05
3.1851e-05
-9.56476e-05
1.55395e-06
-9.39621e-05
-2.30773e-05
-8.28171e-05
-4.61889e-05
-6.63289e-05
-6.88067e-05
-3.11587e-05
-0.000108446
-1.48868e-05
-0.000115929
-4.12877e-05
-6.44665e-05
-5.96422e-05
-4.81352e-05
-6.97154e-05
-1.29954e-05
4.79174e-05
-8.08409e-05
-5.73807e-05
0.000165469
-9.96133e-05
0.000142865
-0.000126711
0.000127372
-0.000186691
0.000172757
-0.000291146
0.000232362
-0.000320999
0.000109217
-0.000292033
-2.21492e-05
-0.000261033
-7.78838e-05
-0.000236613
-0.000107249
-0.000205638
-0.000124248
-0.000127195
-0.000120425
-4.95407e-05
-4.94442e-05
-2.42708e-06
-1.51116e-05
4.22787e-05
-4.31443e-05
5.99681e-05
-4.0772e-05
3.28729e-05
-1.91002e-05
-1.11964e-05
-2.47461e-05
-2.75292e-05
-9.2118e-05
-4.66465e-05
-9.68169e-05
-7.89393e-05
-3.20706e-05
-0.000104504
-2.20403e-05
-0.000119751
2.25278e-06
6.05457e-05
-0.00013238
-0.000122018
0.000287778
-0.000173923
0.000194796
-0.000185302
0.000138677
-0.000232898
0.000220669
-0.000294635
0.000294263
-0.000307082
0.000122562
-0.000295764
-3.2946e-05
-0.000280353
-9.34937e-05
-0.000269241
-0.00011866
-0.000267031
-0.000126943
-0.000267248
-0.000120941
-0.000219087
-9.74824e-05
-0.000141785
-9.23842e-05
-8.4556e-05
-0.000100365
-4.99082e-05
-7.54224e-05
-7.03972e-05
1.38309e-06
-0.000119861
2.47169e-05
-0.00017526
-3.67257e-05
-0.000176632
-9.5448e-05
-0.000122897
-8.5713e-05
-0.000117353
-2.69606e-05
-0.000127758
1.27402e-05
6.63017e-05
-0.000133511
-0.000141636
0.000430152
-0.000175346
0.000228866
-0.000194708
0.00015826
-0.000234472
0.000260455
-0.00026074
0.000320551
-0.000278793
0.000140617
-0.000280921
-3.08076e-05
-0.000276888
-9.73986e-05
-0.000273299
-0.000122248
-0.0002804
-0.000119919
-0.000290911
-0.000110368
-0.00028495
-0.000103453
-0.000273126
-0.000104272
-0.000271866
-0.00010151
-0.000258643
-8.86427e-05
-0.000239499
-1.77669e-05
-0.000238044
2.32559e-05
-0.000231962
-4.28156e-05
-0.000220026
-0.000107388
-0.000172161
-0.000133578
-0.00012893
-7.0048e-05
-0.000122686
7.49417e-06
5.92069e-05
-0.000115574
-0.000107659
0.000538068
-0.000164921
0.000286478
-0.00023821
0.000231574
-0.000285007
0.000307255
-0.000277098
0.000312641
-0.00026967
0.000133196
-0.000281821
-1.86575e-05
-0.000293533
-8.569e-05
-0.000292858
-0.000122926
-0.000289995
-0.000122778
-0.00028557
-0.000114383
-0.000279278
-0.000109643
-0.000273816
-0.000109766
-0.000272705
-0.000103019
-0.000271779
-8.95608e-05
-0.000248299
-4.12324e-05
-0.000213451
-1.15934e-05
-0.000188731
-6.75029e-05
-0.000199246
-9.67759e-05
-0.000227479
-0.000105239
-0.00022202
-7.54656e-05
-0.000181543
-3.26194e-05
-1.75545e-05
-0.000103864
-6.97261e-05
0.000608642
-0.000162307
0.000379064
-0.000281623
0.000350888
-0.000311197
0.000336828
-0.00029995
0.000301395
-0.000298432
0.000131682
-0.000299111
-1.79818e-05
-0.000289785
-9.50171e-05
-0.000285946
-0.000126767
-0.000277126
-0.000131599
-0.000266791
-0.000124707
-0.000257627
-0.000118502
-0.000253825
-0.000113438
-0.000253823
-0.000103209
-0.000252346
-9.15045e-05
-0.000222517
-7.12545e-05
-0.000179333
-5.45612e-05
-0.00016616
-8.0185e-05
-0.000166871
-9.58502e-05
-0.000176498
-9.56071e-05
-0.000187209
-6.46469e-05
-0.000162774
-5.65234e-05
-8.36355e-05
-9.67444e-05
-8.48023e-05
0.000693617
-0.000172253
0.000466521
-0.000275803
0.000454441
-0.000291717
0.000352744
-0.000259581
0.000269261
-0.000213384
8.5482e-05
-0.000180408
-5.09597e-05
-0.000167155
-0.00010827
-0.000172598
-0.000121325
-0.00018934
-0.000114859
-0.000207165
-0.000106883
-0.000219693
-0.000105973
-0.000225396
-0.000107715
-0.000220262
-0.000108199
-0.000216152
-9.56215e-05
-0.000205317
-8.21143e-05
-0.00018197
-7.77824e-05
-0.000166501
-9.57394e-05
-0.000159579
-0.000102787
-0.000152304
-0.000103207
-0.000139882
-7.71027e-05
-0.00013185
-6.41664e-05
-8.95447e-05
-0.000125968
-9.53657e-05
0.000788998
-0.000172476
0.000543635
-0.000235293
0.000517261
-0.000238269
0.000355719
-0.000182511
0.000213503
-0.000124097
2.70647e-05
-9.87645e-05
-7.62936e-05
-9.10556e-05
-0.000115981
-9.57953e-05
-0.000116586
-0.000104688
-0.000105967
-0.000116198
-9.53759e-05
-0.000127315
-9.48563e-05
-0.000143791
-9.12396e-05
-0.000163659
-8.83317e-05
-0.000178122
-8.11632e-05
-0.000179636
-8.05794e-05
-0.000171679
-8.55096e-05
-0.000159942
-0.000107472
-0.000149254
-0.000113888
-0.000140552
-0.000112468
-0.000135422
-8.23844e-05
-0.000128769
-7.06034e-05
-0.00010034
-0.000118034
-8.95314e-05
0.000878534
-0.000152002
0.000606105
-0.000170421
0.000535681
-0.000145581
0.000330877
-8.31044e-05
0.000151026
-3.63075e-05
-1.97337e-05
-2.78007e-05
-8.4802e-05
-2.66066e-05
-0.000117176
-3.1048e-05
-0.000112146
-3.43443e-05
-0.000102672
-4.22837e-05
-8.74368e-05
-5.40498e-05
-8.30915e-05
-6.85853e-05
-7.67053e-05
-7.89169e-05
-7.8001e-05
-8.42003e-05
-7.58802e-05
-9.57216e-05
-6.90586e-05
-0.000118875
-6.23555e-05
-0.000139907
-8.64432e-05
-0.000145137
-0.000108664
-0.000143899
-0.000113709
-0.000140471
-8.58137e-05
-0.000136823
-7.42432e-05
-0.000117131
-0.000119857
-9.09149e-05
0.000969456
-0.000130923
0.000646116
-0.000111991
0.00051675
-4.8887e-05
0.000267771
1.18815e-05
9.02566e-05
3.85701e-05
-4.64248e-05
3.73988e-05
-8.36322e-05
3.16762e-05
-0.000111455
2.06664e-05
-0.000101137
7.33128e-06
-8.9337e-05
-1.03765e-05
-6.97295e-05
-2.72873e-05
-6.61811e-05
-3.46968e-05
-6.92967e-05
-3.51517e-05
-7.75471e-05
-3.70871e-05
-7.3946e-05
-4.04062e-05
-6.57405e-05
-4.81547e-05
-5.46076e-05
-6.3559e-05
-7.10395e-05
-8.10431e-05
-9.11811e-05
-0.000100089
-9.46644e-05
-0.000104216
-8.16888e-05
-9.9257e-05
-7.9204e-05
-0.000114252
-0.000102138
-5.98579e-05
0.00102932
-8.84852e-05
0.000674745
-4.69044e-05
0.000475168
3.6043e-05
0.000184823
8.24644e-05
4.38343e-05
9.39653e-05
-5.7927e-05
8.56611e-05
-7.53289e-05
7.00036e-05
-9.57975e-05
5.1529e-05
-8.26633e-05
3.49478e-05
-7.27558e-05
2.22068e-05
-5.69891e-05
1.21777e-05
-5.61523e-05
-4.33281e-08
-5.70763e-05
-1.70836e-05
-6.05073e-05
-3.15539e-05
-5.94763e-05
-3.62299e-05
-6.10653e-05
-3.26065e-05
-5.82314e-05
-3.60712e-05
-6.75753e-05
-5.19522e-05
-7.5301e-05
-7.08582e-05
-7.57589e-05
-7.75809e-05
-7.49671e-05
-7.81835e-05
-7.86021e-05
-9.38308e-05
-9.86066e-05
1.04973e-05
0.00101882
7.2909e-06
0.000677955
6.55004e-05
0.000416961
0.00013215
0.00011817
0.000151616
2.43699e-05
0.000146394
-5.27055e-05
0.000127195
-5.61311e-05
0.000102173
-7.07758e-05
7.75981e-05
-5.80885e-05
5.63159e-05
-5.14736e-05
3.95002e-05
-4.01738e-05
2.43944e-05
-4.10467e-05
9.89174e-06
-4.25741e-05
-1.99236e-06
-4.86237e-05
-1.20944e-05
-4.9375e-05
-2.28316e-05
-5.03288e-05
-3.27068e-05
-4.8357e-05
-4.52931e-05
-5.49899e-05
-5.83504e-05
-6.22447e-05
-6.84962e-05
-6.56139e-05
-7.59647e-05
-6.75e-05
-8.67102e-05
-6.78575e-05
-7.73847e-05
-0.000103157
8.73761e-05
0.000931435
0.000144594
0.000620736
0.000209562
0.000351993
0.000224711
0.000103025
0.000212118
3.69646e-05
0.000181568
-2.21533e-05
0.000147698
-2.22606e-05
0.000111418
-3.44945e-05
8.05331e-05
-2.72036e-05
5.69675e-05
-2.79076e-05
3.99695e-05
-2.31759e-05
2.57913e-05
-2.68684e-05
1.2357e-05
-2.91402e-05
-2.19653e-06
-3.40704e-05
-1.62245e-05
-3.53475e-05
-2.71238e-05
-3.94299e-05
-3.35824e-05
-4.1899e-05
-4.13252e-05
-4.72476e-05
-5.17585e-05
-5.18122e-05
-6.39213e-05
-5.34517e-05
-7.60563e-05
-5.53659e-05
-8.80209e-05
-5.58937e-05
-5.9059e-05
-0.000106348
0.000164979
0.000766436
0.000257578
0.000528131
0.000301693
0.000307883
0.000270723
0.000134
0.000236343
7.13479e-05
0.000189107
2.50846e-05
0.000148202
1.86457e-05
0.000111116
2.59281e-06
8.24067e-05
1.50608e-06
5.95321e-05
-5.03236e-06
4.15901e-05
-5.23385e-06
2.54553e-05
-1.07335e-05
1.0306e-05
-1.39911e-05
-3.80748e-06
-1.99571e-05
-1.58523e-05
-2.33032e-05
-2.73027e-05
-2.79799e-05
-3.8329e-05
-3.08734e-05
-4.97429e-05
-3.58343e-05
-6.07028e-05
-4.08533e-05
-7.0367e-05
-4.37881e-05
-7.90002e-05
-4.67337e-05
-8.78992e-05
-4.69954e-05
-4.85112e-05
-9.84478e-05
0.000197584
0.000568858
0.000278399
0.000447328
0.000296412
0.000289877
0.000257642
0.000172776
0.000217305
0.000111688
0.000170189
7.22032e-05
0.000133131
5.57047e-05
9.99888e-05
3.57369e-05
7.40459e-05
2.74497e-05
5.21715e-05
1.68428e-05
3.4793e-05
1.21449e-05
1.92828e-05
4.77703e-06
5.31292e-06
-2.13915e-08
-8.21617e-06
-6.42806e-06
-2.03427e-05
-1.1177e-05
-3.12362e-05
-1.70867e-05
-4.04057e-05
-2.17044e-05
-4.95951e-05
-2.66453e-05
-5.94334e-05
-3.10156e-05
-6.93976e-05
-3.38244e-05
-7.89044e-05
-3.72276e-05
-8.72925e-05
-3.8608e-05
-3.99564e-05
-9.58478e-05
0.000148976
0.000419889
0.000218132
0.000378178
0.000233622
0.000274392
0.00020862
0.00019778
0.000177377
0.000142933
0.000142948
0.000106634
0.00011525
8.3404e-05
8.88139e-05
6.21744e-05
6.66839e-05
4.95801e-05
4.65184e-05
3.70089e-05
2.92665e-05
2.93969e-05
1.33427e-05
2.07011e-05
-9.55216e-07
1.42765e-05
-1.42555e-05
6.87215e-06
-2.63611e-05
9.28285e-07
-3.79587e-05
-5.4895e-06
-4.86735e-05
-1.09901e-05
-5.85758e-05
-1.67434e-05
-6.76258e-05
-2.19662e-05
-7.56547e-05
-2.57961e-05
-8.28554e-05
-3.00276e-05
-8.91401e-05
-3.23238e-05
-3.4254e-05
-9.48432e-05
8.40326e-05
0.000335858
0.000140422
0.00032179
0.000158944
0.000255871
0.000151967
0.000204757
0.000135137
0.000159765
0.000113724
0.000128048
9.34312e-05
0.000103698
7.24602e-05
8.31463e-05
5.37132e-05
6.83278e-05
3.58948e-05
5.48279e-05
2.02312e-05
4.50609e-05
5.56528e-06
3.53672e-05
-7.65285e-06
2.74946e-05
-2.02162e-05
1.94355e-05
-3.15763e-05
1.22882e-05
-4.20817e-05
5.01564e-06
-5.15992e-05
-1.47301e-06
-6.05743e-05
-7.76867e-06
-6.89087e-05
-1.36324e-05
-7.63394e-05
-1.83658e-05
-8.30947e-05
-2.32728e-05
-8.8803e-05
-2.6616e-05
-2.92983e-05
-9.37592e-05
4.97803e-05
0.000286078
9.07316e-05
0.00028084
0.000108971
0.000237633
0.000110945
0.000202784
0.000102647
0.000168064
8.90924e-05
0.000141604
7.40637e-05
0.000118727
5.74841e-05
9.97267e-05
4.15133e-05
8.42991e-05
2.56166e-05
7.0725e-05
1.09557e-05
5.9722e-05
-3.09229e-06
4.94154e-05
-1.60296e-05
4.04318e-05
-2.81866e-05
3.15925e-05
-3.94643e-05
2.35656e-05
-5.0083e-05
1.56341e-05
-5.97303e-05
8.17391e-06
-6.83238e-05
8.24544e-07
-7.58541e-05
-6.10255e-06
-8.2401e-05
-1.18193e-05
-8.8151e-05
-1.75233e-05
-9.32523e-05
-2.15152e-05
-2.50193e-05
-9.75318e-05
3.081e-05
0.000255269
5.99888e-05
0.000251662
7.46253e-05
0.000222998
7.8433e-05
0.000198977
7.41509e-05
0.000172347
6.52139e-05
0.000150542
5.38962e-05
0.000130046
4.0788e-05
0.000112835
2.74921e-05
9.75955e-05
1.3846e-05
8.43714e-05
8.03907e-07
7.27643e-05
-1.20135e-05
6.22329e-05
-2.41248e-05
5.25431e-05
-3.56997e-05
4.31673e-05
-4.64619e-05
3.43277e-05
-5.65202e-05
2.56922e-05
-6.57398e-05
1.73932e-05
-7.42747e-05
9.35915e-06
-8.22341e-05
1.85657e-06
-8.9484e-05
-4.56986e-06
-9.66151e-05
-1.03928e-05
-0.000103481
-1.46495e-05
-1.85783e-05
-0.000109923
2.03394e-05
0.00023493
4.00273e-05
0.000231974
5.07311e-05
0.000212295
5.44817e-05
0.000195227
5.21728e-05
0.000174657
4.58072e-05
0.000156908
3.67497e-05
0.000139104
2.57276e-05
0.000123858
1.39415e-05
0.000109382
1.52603e-06
9.67872e-05
-1.07606e-05
8.50511e-05
-2.28702e-05
7.43426e-05
-3.44143e-05
6.40872e-05
-4.54376e-05
5.41906e-05
-5.58374e-05
4.47274e-05
-6.56283e-05
3.54831e-05
-7.48169e-05
2.65816e-05
-8.35843e-05
1.81265e-05
-9.22025e-05
1.04743e-05
-0.000101072
4.29931e-06
-0.000110282
-1.18333e-06
-0.000119401
-5.53078e-06
-1.14033e-05
-0.000126577
1.33668e-05
0.000221564
2.62323e-05
0.000219109
3.31053e-05
0.000205422
3.54647e-05
0.000192868
3.34778e-05
0.000176644
2.83342e-05
0.000162052
2.08821e-05
0.000146556
1.16501e-05
0.00013309
1.41998e-06
0.000119612
-9.64042e-06
0.000107848
-2.09304e-05
9.63413e-05
-3.22982e-05
8.57105e-05
-4.34003e-05
7.51894e-05
-5.41946e-05
6.4985e-05
-6.45611e-05
5.50938e-05
-7.45782e-05
4.55002e-05
-8.44041e-05
3.64075e-05
-9.44942e-05
2.82162e-05
-0.000105378
2.13581e-05
-0.000116976
1.58964e-05
-0.000128431
1.02721e-05
-0.000136782
2.8195e-06
-7.52463e-06
-0.000140661
7.99279e-06
0.000213572
1.59979e-05
0.000211105
2.00352e-05
0.000201385
2.10087e-05
0.000191895
1.86352e-05
0.000179018
1.36661e-05
0.000167022
6.56721e-06
0.000153656
-2.09996e-06
0.000141758
-1.18693e-05
0.000129382
-2.23709e-05
0.00011835
-3.31356e-05
0.000107106
-4.40176e-05
9.65926e-05
-5.47962e-05
8.59681e-05
-6.55172e-05
7.5706e-05
-7.61891e-05
6.57658e-05
-8.69743e-05
5.62853e-05
-9.83822e-05
4.78151e-05
-0.000110785
4.06187e-05
-0.00012391
3.44827e-05
-0.00013609
2.80762e-05
-0.000144185
1.83669e-05
-0.000147247
5.88095e-06
-6.62561e-06
-0.000148146
3.852e-06
0.00020972
7.97766e-06
0.000206979
9.56192e-06
0.000199801
9.13594e-06
0.000192321
6.24325e-06
0.000181911
1.3755e-06
0.00017189
-5.30001e-06
0.000160331
-1.33901e-05
0.000149848
-2.26047e-05
0.000138597
-3.2625e-05
0.00012837
-4.30462e-05
0.000117528
-5.37419e-05
0.000107289
-6.46164e-05
9.68428e-05
-7.57954e-05
8.68852e-05
-8.74538e-05
7.74243e-05
-9.99361e-05
6.87673e-05
-0.000113547
6.14255e-05
-0.000127993
5.50648e-05
-0.000141114
4.76042e-05
-0.00014879
3.57514e-05
-0.000150999
2.05754e-05
-0.000151443
6.32496e-06
-5.65459e-06
-0.000152415
1.02376e-06
0.000208697
1.96258e-06
0.000206041
1.26413e-06
0.0002005
-7.78437e-07
0.000194364
-4.75021e-06
0.000185883
-1.02674e-05
0.000177408
-1.73657e-05
0.00016743
-2.56098e-05
0.000158093
-3.48562e-05
0.000147843
-4.47418e-05
0.000138256
-5.51299e-05
0.000127916
-6.59748e-05
0.000118134
-7.73068e-05
0.000108175
-8.93466e-05
9.8925e-05
-0.000102413
9.04902e-05
-0.000116719
8.30736e-05
-0.000131813
7.65194e-05
-0.000145141
6.83933e-05
-0.000152064
5.45265e-05
-0.000153301
3.69885e-05
-0.000153243
2.05173e-05
-0.000153525
6.60666e-06
-4.51814e-06
-0.000154662
-9.94555e-07
0.000209692
-2.47899e-06
0.000207526
-5.02732e-06
0.000203049
-8.45367e-06
0.000197791
-1.3227e-05
0.000190657
-1.91895e-05
0.000183371
-2.64862e-05
0.000174727
-3.48231e-05
0.00016643
-4.40745e-05
0.000157095
-5.3989e-05
0.000148171
-6.45582e-05
0.000138485
-7.57672e-05
0.000129343
-8.78754e-05
0.000120283
-0.000101178
0.000112227
-0.00011608
0.000105392
-0.000132135
9.91282e-05
-0.000146384
9.07695e-05
-0.000153621
7.563e-05
-0.000154727
5.56316e-05
-0.000154684
3.69458e-05
-0.000154669
2.05012e-05
-0.000154906
6.84376e-06
-4.29667e-06
-0.000155128
-2.73452e-06
0.000212427
-6.05536e-06
0.000210847
-1.03081e-05
0.000207302
-1.53385e-05
0.000202822
-2.14601e-05
0.000196779
-2.8515e-05
0.000190426
-3.66726e-05
0.000182885
-4.56216e-05
0.000175379
-5.54586e-05
0.000166933
-6.59811e-05
0.000158694
-7.74021e-05
0.000149907
-8.97301e-05
0.000141671
-0.000103122
0.000133675
-0.000117912
0.000127017
-0.000133645
0.000121126
-0.000147887
0.00011337
-0.000155131
9.80127e-05
-0.000155821
7.63202e-05
-0.000155443
5.52535e-05
-0.000154857
3.63591e-05
-0.000154258
1.99025e-05
-0.000153216
5.80176e-06
-6.69136e-06
-0.000150822
-4.37585e-06
0.000216803
-9.1109e-06
0.000215583
-1.45255e-05
0.000212718
-2.05525e-05
0.000208849
-2.74332e-05
0.00020366
-3.50771e-05
0.00019807
-4.3613e-05
0.000191421
-5.28642e-05
0.000184631
-6.29457e-05
0.000177014
-7.38628e-05
0.000169612
-8.58744e-05
0.000161919
-9.91424e-05
0.000154939
-0.000114107
0.00014864
-0.000130422
0.000143333
-0.000145545
0.00013625
-0.000153965
0.00012179
-0.000155115
9.91623e-05
-0.000154891
7.60966e-05
-0.000154442
5.48038e-05
-0.000153408
3.53255e-05
-0.000151402
1.78956e-05
-0.000147816
2.21624e-06
-1.19149e-05
-0.000142593
-6.00653e-06
0.00022281
-1.22833e-05
0.00022186
-1.91128e-05
0.000219547
-2.65257e-05
0.000216263
-3.46966e-05
0.000211832
-4.35415e-05
0.000206916
-5.3151e-05
0.000201031
-6.33758e-05
0.000194856
-7.44331e-05
0.000188072
-8.62392e-05
0.000181418
-9.92627e-05
0.000174942
-0.000113465
0.000169142
-0.000128927
0.000164102
-0.000144289
0.000158695
-0.000153973
0.000145935
-0.00015569
0.000123506
-0.000154932
9.84046e-05
-0.000153722
7.48866e-05
-0.000151496
5.25771e-05
-0.000148175
3.20049e-05
-0.000143431
1.31506e-05
-0.000137413
-3.80095e-06
-1.88941e-05
-0.000130435
-7.19224e-06
0.000230003
-1.45245e-05
0.000229193
-2.22181e-05
0.000227242
-3.0364e-05
0.000224409
-3.91384e-05
0.000220607
-4.85334e-05
0.000216311
-5.86612e-05
0.00021116
-6.94986e-05
0.000205694
-8.11919e-05
0.000199766
-9.38648e-05
0.000194091
-0.000107715
0.000188792
-0.000123132
0.00018456
-0.000139224
0.000180194
-0.000150898
0.000170369
-0.000154071
0.000149107
-0.000153272
0.000122707
-0.000152062
9.71944e-05
-0.000149588
7.24126e-05
-0.00014586
4.88495e-05
-0.00014085
2.6995e-05
-0.000134742
7.04257e-06
-0.000127856
-1.06873e-05
-2.66049e-05
-0.000120146
-8.75939e-06
0.000238763
-1.76433e-05
0.000238077
-2.6821e-05
0.00023642
-3.64075e-05
0.000233996
-4.65224e-05
0.000230722
-5.71882e-05
0.000226977
-6.84755e-05
0.000222448
-8.04296e-05
0.000217649
-9.31465e-05
0.000212483
-0.000106675
0.00020762
-0.000121354
0.000203472
-0.000136555
0.000199762
-0.000149056
0.000192696
-0.000153534
0.000174848
-0.000152368
0.000147941
-0.000150327
0.000120666
-0.000146983
9.3851e-05
-0.000142313
6.77423e-05
-0.000136731
4.32672e-05
-0.000130394
2.06582e-05
-0.000123435
8.35367e-08
-0.000115817
-1.8306e-05
-3.48716e-05
-0.00010755
-9.51767e-06
0.000248281
-1.91444e-05
0.000247705
-2.90116e-05
0.000246288
-3.92194e-05
0.000244205
-4.98917e-05
0.000241395
-6.11045e-05
0.000238191
-7.29975e-05
0.000234341
-8.5661e-05
0.000230313
-9.92316e-05
0.000226054
-0.00011367
0.000222059
-0.000128979
0.00021878
-0.000143256
0.00021404
-0.000150584
0.000200024
-0.000150391
0.000174654
-0.000148254
0.000145805
-0.000145143
0.000117555
-0.000140485
8.91933e-05
-0.000134923
6.21804e-05
-0.000128592
3.69357e-05
-0.000121563
1.36296e-05
-0.000114009
-7.47109e-06
-0.000105933
-2.63819e-05
-4.34328e-05
-9.73724e-05
-1.14594e-05
0.000259741
-2.28989e-05
0.000259145
-3.43712e-05
0.00025776
-4.60755e-05
0.000255909
-5.81486e-05
0.000253469
-7.0618e-05
0.000250661
-8.35513e-05
0.000247275
-9.71305e-05
0.000243892
-0.000111301
0.000240225
-0.000125748
0.000236506
-0.00013959
0.000232623
-0.000148734
0.000223185
-0.000150151
0.000201441
-0.000147207
0.00017171
-0.000143194
0.000141792
-0.000137594
0.000111955
-0.000131096
8.26954e-05
-0.00012413
5.52137e-05
-0.000116816
2.96225e-05
-0.000109251
6.06431e-06
-0.000101317
-1.54055e-05
-9.32283e-05
-3.44709e-05
-5.19197e-05
-8.47416e-05
-1.17276e-05
0.00027147
-2.3509e-05
0.000270927
-3.54679e-05
0.00026972
-4.77167e-05
0.000268159
-6.02977e-05
0.000266051
-7.33031e-05
0.000263667
-8.68141e-05
0.000260787
-0.000100943
0.000258022
-0.000115649
0.000254932
-0.000130436
0.000251294
-0.000142961
0.000245149
-0.000147696
0.00022792
-0.000145632
0.000199377
-0.000141904
0.000167982
-0.000136828
0.000136717
-0.000130441
0.000105568
-0.000123574
7.58282e-05
-0.000116417
4.80568e-05
-0.000108784
2.19894e-05
-0.000100952
-1.76801e-06
-9.27244e-05
-2.36331e-05
-8.43236e-05
-4.28719e-05
-6.03379e-05
-7.59056e-05
-1.39618e-05
0.000285432
-2.79334e-05
0.000284899
-4.19024e-05
0.00028369
-5.58393e-05
0.000282097
-6.99281e-05
0.00028014
-8.41924e-05
0.000277932
-9.86225e-05
0.000275217
-0.00011319
0.00027259