/*--------------------------------*- C++ -*----------------------------------*\
| =========                 |                                                 |
| \\      /  F ield         | OpenFOAM: The Open Source CFD Toolbox           |
|  \\    /   O peration     | Version:  2012                                  |
|   \\  /    A nd           | Website:  www.openfoam.com                      |
|    \\/     M anipulation  |                                                 |
\*---------------------------------------------------------------------------*/
FoamFile
{
    version     2.0;
    format      ascii;
    class       volScalarField;
    location    "0.87";
    object      rho2;
}
// * * * * * * * * * * * * * * * * * * * * * * * * * * * * * * * * * * * * * //

dimensions      [1 -3 0 0 0 0 0];


internalField   nonuniform List<scalar> 
2268
(
1.30919
1.30912
1.3089
1.30871
1.30832
1.30805
1.30757
1.30724
1.30674
1.30641
1.30597
1.3057
1.30535
1.30516
1.30486
1.30473
1.30444
1.30431
1.30398
1.30383
1.30355
1.30351
1.30349
1.30844
1.30837
1.30814
1.30795
1.30757
1.3073
1.30682
1.30648
1.30598
1.30565
1.30521
1.30494
1.30459
1.30441
1.3041
1.30398
1.30368
1.30355
1.30322
1.30308
1.30281
1.30277
1.30274
1.30771
1.30764
1.30742
1.30724
1.30684
1.30658
1.30607
1.30575
1.30524
1.3049
1.30445
1.30418
1.30382
1.30363
1.30333
1.30319
1.30291
1.30277
1.30242
1.30226
1.30195
1.30192
1.30193
1.30697
1.3069
1.30666
1.30648
1.30609
1.30582
1.30533
1.30497
1.30446
1.3041
1.30366
1.30339
1.30304
1.30287
1.30256
1.30244
1.30213
1.302
1.30166
1.30148
1.30123
1.30119
1.30117
1.30626
1.30619
1.30596
1.3058
1.30537
1.30514
1.30457
1.30427
1.30371
1.30336
1.30287
1.30261
1.30226
1.30206
1.30177
1.30162
1.30133
1.30118
1.30079
1.30056
1.3002
1.30019
1.30022
1.30554
1.30546
1.3052
1.30505
1.30463
1.30439
1.30385
1.30347
1.30293
1.30252
1.30207
1.30179
1.30146
1.30129
1.30098
1.30086
1.30055
1.30039
1.29999
1.29972
1.29944
1.29944
1.29949
1.30482
1.30474
1.3045
1.30436
1.3039
1.30373
1.30308
1.30281
1.30216
1.30181
1.30124
1.30101
1.30065
1.30046
1.30017
1.30002
1.29972
1.29953
1.29902
1.29857
1.29802
1.29819
1.29817
1.30416
1.30404
1.30376
1.30364
1.3032
1.303
1.3024
1.30196
1.30139
1.30088
1.30043
1.30014
1.29986
1.29969
1.29939
1.29925
1.29891
1.29869
1.29814
1.29762
1.29707
1.29733
1.29754
1.31573
1.31091
1.30554
1.30137
1.29936
1.29877
1.29842
1.29845
1.29936
1.30589
1.30928
1.30557
1.30324
1.29999
1.29894
1.29931
1.29948
1.3011
1.30282
1.31473
1.30952
1.30409
1.30023
1.29834
1.29817
1.29818
1.2983
1.29884
1.30476
1.3076
1.30436
1.30193
1.29868
1.2987
1.29889
1.29869
1.30043
1.302
1.31109
1.30715
1.3024
1.29893
1.29834
1.2983
1.29829
1.29838
1.29865
1.30281
1.30532
1.30289
1.30018
1.29818
1.29802
1.29808
1.29805
1.2995
1.30121
1.30973
1.3059
1.30091
1.29848
1.2981
1.29819
1.2983
1.29836
1.29839
1.30109
1.30301
1.30066
1.2984
1.29629
1.29737
1.29797
1.29795
1.29948
1.30091
1.30691
1.30369
1.30017
1.29844
1.29838
1.29825
1.29815
1.29823
1.29826
1.30013
1.30162
1.29961
1.2974
1.29535
1.29626
1.29727
1.29811
1.29945
1.30048
1.30475
1.3021
1.29876
1.29752
1.29802
1.29808
1.2981
1.29814
1.29832
1.29956
1.30015
1.29813
1.29589
1.29473
1.29548
1.29661
1.29822
1.29984
1.30028
1.30225
1.29964
1.29808
1.29739
1.29767
1.29759
1.29822
1.29814
1.29856
1.29902
1.29898
1.297
1.29468
1.29449
1.29521
1.29621
1.29789
1.2993
1.29952
1.30069
1.2991
1.29781
1.29727
1.29759
1.29733
1.29813
1.29875
1.29912
1.29879
1.29789
1.29601
1.29405
1.29448
1.29519
1.29596
1.2975
1.29966
1.29925
1.30295
1.3029
1.30264
1.30254
1.30203
1.30202
1.30113
1.30106
1.30013
1.29989
1.29904
1.29894
1.29853
1.29838
1.29805
1.29788
1.29757
1.29727
1.29635
1.2955
1.29455
1.295
1.29411
1.3018
1.30155
1.30111
1.30117
1.30068
1.30066
1.30002
1.29905
1.29871
1.29743
1.2974
1.29678
1.29698
1.29669
1.29637
1.2961
1.29557
1.29501
1.29429
1.2939
1.29379
1.29395
1.2941
1.29986
1.29971
1.29938
1.2993
1.29898
1.29962
1.29819
1.29872
1.29721
1.29701
1.29528
1.29566
1.29515
1.29491
1.2944
1.29416
1.29399
1.29376
1.29353
1.29338
1.2931
1.29303
1.292
1.29914
1.29833
1.29769
1.29789
1.29767
1.29902
1.29794
1.29713
1.29686
1.29508
1.29501
1.29409
1.2944
1.2938
1.2936
1.29357
1.29357
1.29353
1.29348
1.29342
1.2933
1.29258
1.29107
1.29765
1.29716
1.29532
1.29445
1.29365
1.29655
1.29608
1.29667
1.29564
1.29511
1.29372
1.29376
1.29367
1.29353
1.29351
1.2935
1.29351
1.29348
1.29343
1.29339
1.29313
1.29268
1.29172
1.29786
1.29514
1.29302
1.29298
1.29301
1.29302
1.29325
1.29353
1.29372
1.29366
1.29402
1.29393
1.29371
1.29356
1.29349
1.29348
1.29348
1.2934
1.29333
1.29335
1.29342
1.29308
1.29324
1.29504
1.29338
1.29302
1.29293
1.29295
1.29298
1.29312
1.29313
1.29317
1.29318
1.2931
1.29366
1.29355
1.29348
1.29345
1.2934
1.29334
1.29328
1.29324
1.29324
1.29325
1.29334
1.29397
1.29386
1.29304
1.29299
1.29295
1.29298
1.29309
1.29314
1.29314
1.29315
1.29313
1.29311
1.29316
1.29332
1.29333
1.29344
1.29336
1.29327
1.29326
1.29325
1.29329
1.29339
1.29333
1.29401
1.29311
1.29301
1.29305
1.29302
1.29308
1.29311
1.29314
1.29314
1.29315
1.29314
1.29314
1.29313
1.29319
1.2932
1.29336
1.29346
1.29349
1.29343
1.29343
1.29353
1.29349
1.29359
1.29459
1.29301
1.29303
1.29307
1.29307
1.2931
1.29311
1.29315
1.29316
1.29317
1.29315
1.29316
1.29316
1.29317
1.29315
1.29319
1.29319
1.29327
1.29323
1.2934
1.29333
1.2935
1.29335
1.29357
1.29297
1.29303
1.29306
1.29307
1.2931
1.29312
1.29318
1.29319
1.2932
1.29317
1.29316
1.29317
1.29318
1.29319
1.29319
1.29318
1.29317
1.29326
1.29334
1.2933
1.29324
1.2932
1.2934
1.29296
1.29303
1.29306
1.29307
1.2931
1.29315
1.29318
1.29319
1.2932
1.2932
1.29319
1.29317
1.29318
1.29319
1.2932
1.2932
1.2932
1.2932
1.29321
1.29322
1.29322
1.29321
1.2932
1.29295
1.29303
1.29306
1.29308
1.29313
1.29316
1.29319
1.29319
1.2932
1.2932
1.2932
1.29318
1.29319
1.29319
1.2932
1.2932
1.2932
1.2932
1.2932
1.2932
1.29321
1.2932
1.2932
1.29294
1.29302
1.29306
1.29311
1.29316
1.29317
1.29319
1.29319
1.2932
1.2932
1.2932
1.29319
1.29319
1.2932
1.2932
1.2932
1.2932
1.2932
1.29321
1.29321
1.29321
1.29321
1.29321
1.29294
1.29302
1.29308
1.29314
1.29318
1.29318
1.29319
1.29319
1.2932
1.2932
1.2932
1.29319
1.29319
1.2932
1.2932
1.2932
1.2932
1.2932
1.2932
1.2932
1.29321
1.29321
1.2932
1.29297
1.29303
1.29312
1.29316
1.29319
1.29318
1.29319
1.29319
1.29319
1.29319
1.2932
1.29319
1.2932
1.2932
1.2932
1.2932
1.2932
1.2932
1.2932
1.2932
1.2932
1.2932
1.29321
1.29304
1.2931
1.29317
1.29319
1.29319
1.29318
1.29318
1.29318
1.29319
1.29319
1.29319
1.29319
1.29319
1.29319
1.2932
1.2932
1.2932
1.2932
1.2932
1.2932
1.2932
1.2932
1.2932
1.29316
1.2932
1.2932
1.2932
1.29319
1.29318
1.29319
1.29319
1.29319
1.29319
1.29319
1.29319
1.29319
1.29319
1.2932
1.2932
1.2932
1.2932
1.2932
1.2932
1.2932
1.2932
1.2932
1.29322
1.29322
1.29321
1.2932
1.29319
1.29319
1.29319
1.29319
1.29319
1.29319
1.29319
1.29319
1.29319
1.29319
1.29319
1.29319
1.2932
1.2932
1.2932
1.2932
1.2932
1.2932
1.2932
1.29321
1.29322
1.2932
1.2932
1.29319
1.29319
1.29319
1.29319
1.29319
1.29319
1.29319
1.29319
1.29319
1.29319
1.29319
1.29319
1.29319
1.29319
1.29319
1.29319
1.29319
1.29319
1.29319
1.2932
1.2932
1.2932
1.29319
1.29319
1.29319
1.29319
1.29319
1.29319
1.29319
1.29319
1.29319
1.29319
1.29319
1.29319
1.29319
1.29319
1.29319
1.29319
1.29319
1.29318
1.29317
1.29316
1.2932
1.2932
1.29319
1.29319
1.29319
1.29319
1.29319
1.29319
1.29319
1.29319
1.29319
1.29319
1.29319
1.29319
1.29319
1.29319
1.29319
1.29319
1.29318
1.29317
1.29315
1.29315
1.29314
1.29319
1.29319
1.29319
1.29319
1.29319
1.29319
1.29319
1.29319
1.29319
1.29319
1.29319
1.29319
1.29319
1.29319
1.29319
1.29318
1.29318
1.29317
1.29316
1.29314
1.29313
1.29313
1.29312
1.29319
1.29319
1.29319
1.29319
1.29319
1.29319
1.29319
1.29319
1.29318
1.29318
1.29318
1.29318
1.29318
1.29318
1.29318
1.29317
1.29316
1.29314
1.29313
1.29312
1.29312
1.29311
1.29309
1.29319
1.29319
1.29319
1.29318
1.29318
1.29318
1.29318
1.29318
1.29318
1.29318
1.29318
1.29318
1.29318
1.29318
1.29317
1.29315
1.29313
1.29312
1.29312
1.29311
1.2931
1.29308
1.29306
1.29318
1.29318
1.29318
1.29318
1.29318
1.29318
1.29318
1.29318
1.29318
1.29318
1.29318
1.29318
1.29317
1.29316
1.29315
1.29313
1.29312
1.29311
1.29311
1.29309
1.29307
1.29305
1.29304
1.29318
1.29318
1.29318
1.29318
1.29318
1.29318
1.29318
1.29318
1.29318
1.29317
1.29317
1.29317
1.29316
1.29314
1.29312
1.29312
1.29311
1.2931
1.29308
1.29307
1.29305
1.29304
1.29303
1.29317
1.29317
1.29317
1.29317
1.29317
1.29317
1.29317
1.29317
1.29317
1.29317
1.29316
1.29315
1.29314
1.29312
1.29311
1.29311
1.2931
1.29308
1.29306
1.29305
1.29304
1.29304
1.29303
1.29317
1.29317
1.29317
1.29317
1.29317
1.29317
1.29317
1.29316
1.29316
1.29316
1.29315
1.29313
1.29312
1.29311
1.29311
1.2931
1.29308
1.29306
1.29305
1.29305
1.29304
1.29303
1.29302
1.29316
1.29316
1.29316
1.29316
1.29316
1.29316
1.29316
1.29316
1.29315
1.29314
1.29313
1.29312
1.29311
1.2931
1.2931
1.29308
1.29307
1.29306
1.29305
1.29304
1.29304
1.29303
1.29303
1.29316
1.29316
1.29316
1.29316
1.29315
1.29315
1.29315
1.29315
1.29314
1.29312
1.29311
1.29311
1.2931
1.2931
1.29308
1.29307
1.29306
1.29305
1.29305
1.29304
1.29304
1.29304
1.29304
1.29315
1.29315
1.29315
1.29315
1.29314
1.29314
1.29314
1.29313
1.29312
1.29311
1.2931
1.2931
1.29309
1.29308
1.29307
1.29306
1.29305
1.29305
1.29305
1.29305
1.29305
1.29305
1.29304
1.29314
1.29314
1.29314
1.29314
1.29313
1.29313
1.29312
1.29311
1.2931
1.2931
1.2931
1.29309
1.29309
1.29307
1.29306
1.29305
1.29305
1.29305
1.29305
1.29306
1.29306
1.29305
1.29305
1.29313
1.29313
1.29313
1.29312
1.29312
1.29312
1.29311
1.2931
1.29309
1.29309
1.29309
1.29309
1.29307
1.29306
1.29306
1.29305
1.29305
1.29306
1.29306
1.29306
1.29306
1.29306
1.29306
1.29312
1.29311
1.29311
1.29311
1.29311
1.2931
1.29309
1.29309
1.29309
1.29309
1.29308
1.29308
1.29307
1.29306
1.29305
1.29305
1.29306
1.29306
1.29306
1.29307
1.29307
1.29307
1.29307
1.2931
1.2931
1.2931
1.2931
1.29309
1.29309
1.29308
1.29308
1.29308
1.29308
1.29308
1.29307
1.29306
1.29306
1.29305
1.29306
1.29306
1.29306
1.29307
1.29307
1.29307
1.29307
1.29308
1.29309
1.29309
1.29309
1.29308
1.29308
1.29308
1.29308
1.29308
1.29308
1.29308
1.29307
1.29306
1.29306
1.29305
1.29306
1.29306
1.29307
1.29307
1.29307
1.29308
1.29308
1.29308
1.29308
1.29308
1.29308
1.29308
1.29308
1.29307
1.29307
1.29307
1.29308
1.29308
1.29307
1.29306
1.29306
1.29305
1.29305
1.29306
1.29306
1.29307
1.29307
1.29308
1.29308
1.29309
1.29309
1.29309
1.29307
1.29307
1.29307
1.29307
1.29306
1.29307
1.29307
1.29307
1.29307
1.29306
1.29306
1.29305
1.29305
1.29306
1.29306
1.29307
1.29308
1.29308
1.29309
1.29309
1.29309
1.29309
1.29309
1.29307
1.29307
1.29306
1.29306
1.29306
1.29307
1.29307
1.29307
1.29307
1.29306
1.29305
1.29305
1.29305
1.29306
1.29307
1.29308
1.29308
1.29309
1.29309
1.29309
1.2931
1.2931
1.2931
1.29305
1.29305
1.29305
1.29305
1.29305
1.29306
1.29306
1.29306
1.29306
1.29305
1.29305
1.29305
1.29306
1.29307
1.29308
1.29308
1.29309
1.29309
1.2931
1.2931
1.2931
1.2931
1.2931
1.29306
1.29305
1.29305
1.29306
1.29306
1.29306
1.29306
1.29306
1.29305
1.29305
1.29305
1.29306
1.29307
1.29308
1.29308
1.29309
1.29309
1.2931
1.2931
1.2931
1.2931
1.2931
1.2931
1.29477
1.2937
1.29593
1.29278
1.29526
1.29482
1.29543
1.29512
1.29235
1.29219
1.29245
1.29294
1.29216
1.29196
1.29268
1.2927
1.29231
1.29242
1.2929
1.29322
1.29377
1.2939
1.29389
1.29376
1.29403
1.29405
1.29376
1.29347
1.2954
1.29403
1.2937
1.29327
1.29428
1.29413
1.2939
1.29359
1.29376
1.29371
1.2933
1.29313
1.29342
1.29346
1.29331
1.29324
1.29326
1.29325
1.29322
1.29322
1.2932
1.29319
1.29317
1.29316
1.2932
1.29319
1.29317
1.29316
1.2932
1.2932
1.29319
1.29317
1.29321
1.2932
1.2932
1.29319
1.2932
1.2932
1.2932
1.2932
1.2932
1.2932
1.2932
1.2932
1.2932
1.2932
1.2932
1.2932
1.29318
1.29318
1.29318
1.29318
1.29316
1.29316
1.29315
1.29315
1.29313
1.29313
1.29313
1.29312
1.29311
1.2931
1.29309
1.29309
1.29308
1.29307
1.29306
1.29305
1.29305
1.29304
1.29304
1.29303
1.29303
1.29303
1.29302
1.29302
1.29302
1.29302
1.29301
1.29301
1.29302
1.29301
1.29301
1.293
1.29302
1.29301
1.29301
1.293
1.29302
1.29302
1.29301
1.29301
1.29303
1.29303
1.29303
1.29302
1.29304
1.29304
1.29304
1.29303
1.29305
1.29305
1.29305
1.29304
1.29306
1.29306
1.29305
1.29305
1.29307
1.29307
1.29306
1.29306
1.29307
1.29307
1.29307
1.29307
1.29308
1.29308
1.29308
1.29308
1.29309
1.29309
1.29309
1.29308
1.29309
1.29309
1.29309
1.29309
1.2931
1.29309
1.29309
1.29309
1.2931
1.2931
1.2931
1.29309
1.29309
1.29309
1.29309
1.29309
1.2982
1.29739
1.298
1.29721
1.29759
1.29727
1.29797
1.29858
1.29897
1.29754
1.29654
1.29495
1.29409
1.2945
1.29521
1.29597
1.29687
1.2979
1.29809
1.29686
1.29738
1.29753
1.29718
1.29755
1.29711
1.29752
1.29773
1.2981
1.29667
1.29511
1.29412
1.29372
1.29406
1.29414
1.29446
1.295
1.29631
1.29633
1.29573
1.29655
1.29788
1.29658
1.29732
1.29676
1.29629
1.29612
1.2953
1.29403
1.29411
1.29337
1.29375
1.29338
1.29336
1.29343
1.29361
1.29406
1.29428
1.29623
1.29615
1.29687
1.29627
1.29609
1.29631
1.29635
1.29476
1.2935
1.29355
1.29308
1.2933
1.29351
1.29353
1.29343
1.29344
1.29323
1.29376
1.29366
1.2936
1.29419
1.29375
1.29418
1.29431
1.29488
1.29466
1.29375
1.29318
1.29275
1.29306
1.2932
1.29318
1.29339
1.29334
1.2934
1.29337
1.29348
1.29362
1.29365
1.29285
1.29263
1.29279
1.29292
1.29342
1.2935
1.2934
1.29327
1.29307
1.29279
1.29283
1.29306
1.2932
1.2931
1.29306
1.29318
1.29332
1.2934
1.29299
1.29285
1.29235
1.29278
1.29272
1.29293
1.29325
1.29317
1.29313
1.29294
1.29268
1.29283
1.29281
1.29309
1.2931
1.29309
1.29318
1.29326
1.29336
1.29298
1.29261
1.29223
1.29246
1.29243
1.29279
1.29312
1.29319
1.29318
1.29313
1.29299
1.29292
1.29297
1.29306
1.29313
1.29309
1.29319
1.29323
1.29329
1.293
1.29284
1.29227
1.29223
1.29231
1.29279
1.2931
1.29316
1.29317
1.29315
1.29316
1.29313
1.29308
1.2931
1.29314
1.29317
1.29321
1.29322
1.29326
1.29288
1.29273
1.2924
1.29243
1.29241
1.29298
1.29317
1.29315
1.29315
1.29313
1.29313
1.29313
1.29314
1.29316
1.29318
1.29321
1.29322
1.29322
1.29325
1.29305
1.29272
1.29248
1.29249
1.29285
1.29315
1.29317
1.29315
1.29317
1.29317
1.29317
1.29317
1.29318
1.29319
1.29321
1.29322
1.29322
1.29322
1.29324
1.29318
1.29297
1.29256
1.29274
1.29304
1.29315
1.29317
1.29316
1.29318
1.29317
1.29318
1.29318
1.2932
1.2932
1.29321
1.29322
1.29322
1.29322
1.29324
1.29313
1.29304
1.29293
1.29303
1.29318
1.29315
1.29316
1.29316
1.29316
1.29314
1.29314
1.29314
1.29317
1.29318
1.2932
1.29321
1.29322
1.29322
1.29323
1.29313
1.29311
1.29309
1.29316
1.29318
1.29316
1.29316
1.29314
1.29312
1.29309
1.29309
1.29311
1.29314
1.29317
1.2932
1.29321
1.29322
1.29322
1.29323
1.29315
1.29313
1.29314
1.29317
1.29318
1.29316
1.29315
1.29312
1.29308
1.29306
1.29308
1.2931
1.29313
1.29317
1.2932
1.29321
1.29322
1.29322
1.29322
1.29316
1.29313
1.29313
1.29315
1.29316
1.29316
1.29315
1.29312
1.29307
1.29308
1.2931
1.29313
1.29316
1.29319
1.2932
1.29321
1.29322
1.29322
1.29322
1.2932
1.29318
1.29314
1.29313
1.29313
1.29313
1.29313
1.2931
1.29311
1.29313
1.29316
1.29317
1.29319
1.29319
1.2932
1.29321
1.29321
1.29321
1.29322
1.2932
1.2932
1.29319
1.29317
1.29316
1.29314
1.29313
1.29314
1.29316
1.29318
1.29318
1.29319
1.29319
1.29319
1.2932
1.2932
1.29321
1.29321
1.29321
1.2932
1.2932
1.2932
1.2932
1.2932
1.2932
1.2932
1.29319
1.29319
1.29318
1.29318
1.29318
1.29318
1.29318
1.29319
1.29319
1.2932
1.29321
1.29321
1.29318
1.29318
1.29319
1.29319
1.29318
1.29318
1.29318
1.29316
1.29314
1.29313
1.29312
1.29312
1.29313
1.29315
1.29316
1.29318
1.2932
1.2932
1.29321
1.29315
1.29315
1.29314
1.29314
1.29313
1.29311
1.2931
1.29308
1.29306
1.29305
1.29305
1.29306
1.29308
1.29311
1.29314
1.29316
1.29319
1.2932
1.2932
1.29312
1.2931
1.29309
1.29308
1.29307
1.29304
1.29303
1.29301
1.293
1.293
1.293
1.29302
1.29304
1.29307
1.29311
1.29315
1.29318
1.29319
1.2932
1.29308
1.29306
1.29305
1.29303
1.29301
1.29299
1.29298
1.29297
1.29296
1.29295
1.29296
1.29297
1.293
1.29304
1.29309
1.29313
1.29317
1.29319
1.2932
1.29304
1.29303
1.29302
1.293
1.29298
1.29297
1.29296
1.29294
1.29293
1.29293
1.29292
1.29294
1.29296
1.29301
1.29307
1.29312
1.29316
1.29318
1.29319
1.29302
1.29301
1.29299
1.29298
1.29297
1.29296
1.29294
1.29293
1.29292
1.29291
1.2929
1.29291
1.29293
1.29297
1.29303
1.2931
1.29315
1.29318
1.29319
1.29301
1.293
1.29298
1.29297
1.29296
1.29295
1.29294
1.29292
1.29291
1.2929
1.29288
1.29288
1.2929
1.29294
1.293
1.29308
1.29314
1.29317
1.29319
1.293
1.29299
1.29298
1.29297
1.29296
1.29295
1.29294
1.29292
1.29291
1.29289
1.29287
1.29286
1.29288
1.29291
1.29296
1.29305
1.29313
1.29317
1.29318
1.293
1.29299
1.29298
1.29297
1.29296
1.29295
1.29294
1.29293
1.29291
1.29289
1.29287
1.29285
1.29285
1.29288
1.29293
1.29301
1.29311
1.29316
1.29318
1.293
1.29299
1.29298
1.29297
1.29297
1.29296
1.29295
1.29294
1.29292
1.29289
1.29286
1.29284
1.29283
1.29285
1.2929
1.29298
1.29309
1.29315
1.29318
1.293
1.293
1.29299
1.29298
1.29298
1.29297
1.29296
1.29294
1.29292
1.2929
1.29287
1.29283
1.29282
1.29283
1.29287
1.29294
1.29306
1.29315
1.29317
1.29302
1.29301
1.293
1.29299
1.29298
1.29298
1.29297
1.29295
1.29293
1.2929
1.29287
1.29283
1.2928
1.29281
1.29284
1.29291
1.29303
1.29313
1.29317
1.29303
1.29302
1.29301
1.293
1.29299
1.29299
1.29297
1.29296
1.29294
1.29291
1.29287
1.29283
1.29279
1.2928
1.29282
1.29288
1.29299
1.29312
1.29316
1.29304
1.29303
1.29302
1.29301
1.293
1.29299
1.29298
1.29297
1.29294
1.29291
1.29288
1.29283
1.29278
1.29278
1.2928
1.29285
1.29295
1.2931
1.29316
1.29305
1.29304
1.29303
1.29302
1.29301
1.293
1.29299
1.29297
1.29295
1.29292
1.29288
1.29283
1.29278
1.29277
1.29278
1.29283
1.29292
1.29308
1.29315
1.29306
1.29305
1.29304
1.29303
1.29302
1.29301
1.29299
1.29298
1.29295
1.29292
1.29288
1.29283
1.29277
1.29275
1.29277
1.29281
1.29289
1.29305
1.29314
1.29307
1.29306
1.29305
1.29304
1.29302
1.29301
1.293
1.29298
1.29295
1.29292
1.29288
1.29283
1.29277
1.29274
1.29275
1.29279
1.29287
1.29303
1.29313
1.29308
1.29307
1.29306
1.29304
1.29303
1.29302
1.293
1.29298
1.29296
1.29292
1.29288
1.29283
1.29276
1.29273
1.29274
1.29277
1.29285
1.293
1.29312
1.29308
1.29307
1.29306
1.29305
1.29304
1.29302
1.29301
1.29299
1.29296
1.29293
1.29288
1.29283
1.29276
1.29272
1.29272
1.29276
1.29283
1.29298
1.29311
1.29309
1.29308
1.29307
1.29305
1.29304
1.29303
1.29301
1.29299
1.29296
1.29293
1.29288
1.29282
1.29275
1.29271
1.29271
1.29275
1.29282
1.29296
1.2931
1.29309
1.29308
1.29307
1.29305
1.29304
1.29303
1.29301
1.29299
1.29296
1.29293
1.29288
1.29282
1.29275
1.2927
1.29269
1.29273
1.29281
1.29295
1.29309
1.29309
1.29308
1.29307
1.29306
1.29304
1.29303
1.29301
1.29299
1.29296
1.29293
1.29288
1.29282
1.29274
1.29269
1.29268
1.29271
1.2928
1.29294
1.29308
1.29309
1.29308
1.29307
1.29305
1.29304
1.29302
1.293
1.29298
1.29296
1.29292
1.29287
1.29281
1.29274
1.29268
1.29267
1.2927
1.29279
1.29294
1.29308
)
;

boundaryField
{
    leftWall
    {
        type            calculated;
        value           nonuniform List<scalar> 
50
(
1.30919
1.30844
1.30771
1.30697
1.30626
1.30554
1.30482
1.30416
1.30295
1.3018
1.29986
1.29914
1.29765
1.29786
1.29504
1.29386
1.29311
1.29301
1.29297
1.29296
1.29295
1.29294
1.29294
1.29297
1.29304
1.29316
1.29322
1.29321
1.2932
1.2932
1.29319
1.29319
1.29319
1.29318
1.29318
1.29317
1.29317
1.29316
1.29316
1.29315
1.29314
1.29313
1.29312
1.2931
1.29309
1.29308
1.29307
1.29307
1.29305
1.29306
)
;
    }
    rightWall
    {
        type            calculated;
        value           nonuniform List<scalar> 
50
(
1.30282
1.302
1.30121
1.30091
1.30048
1.30028
1.29952
1.29925
1.29809
1.29633
1.29428
1.29366
1.29362
1.2934
1.29336
1.29329
1.29326
1.29325
1.29324
1.29324
1.29323
1.29323
1.29322
1.29322
1.29322
1.29321
1.29321
1.29321
1.2932
1.2932
1.2932
1.29319
1.29319
1.29319
1.29318
1.29318
1.29318
1.29317
1.29317
1.29316
1.29316
1.29315
1.29314
1.29313
1.29312
1.29311
1.2931
1.29309
1.29308
1.29308
)
;
    }
    lowerWall
    {
        type            calculated;
        value           nonuniform List<scalar> 
62
(
1.30956
1.30949
1.30927
1.30909
1.3087
1.30843
1.30794
1.30761
1.30712
1.30679
1.30635
1.30608
1.30573
1.30554
1.30524
1.30511
1.30482
1.30469
1.30436
1.30421
1.30392
1.30389
1.30387
1.30349
1.30274
1.30193
1.30117
1.30022
1.29949
1.29817
1.29754
1.29549
1.29418
1.29651
1.29352
1.31573
1.31473
1.31109
1.30973
1.30691
1.30475
1.30225
1.30069
1.31607
1.31125
1.30585
1.30167
1.29966
1.29905
1.29858
1.29852
1.29942
1.30608
1.30956
1.30585
1.30358
1.30033
1.29929
1.29966
1.29984
1.30147
1.30319
)
;
    }
    atmosphere
    {
        type            calculated;
        value           nonuniform List<scalar> 
46
(
1.29314
1.29314
1.29314
1.29314
1.29314
1.29315
1.29315
1.29315
1.29315
1.29314
1.29314
1.29315
1.29316
1.29317
1.29318
1.29318
1.29319
1.29319
1.29319
1.29319
1.29319
1.29319
1.29319
1.29319
1.29319
1.29319
1.29318
1.29318
1.29317
1.29316
1.29315
1.29313
1.29312
1.2931
1.29308
1.29305
1.29302
1.29297
1.29291
1.29283
1.29278
1.29276
1.29279
1.29289
1.29303
1.29317
)
;
    }
    defaultFaces
    {
        type            empty;
    }
}


// ************************************************************************* //
