/*--------------------------------*- C++ -*----------------------------------*\
| =========                 |                                                 |
| \\      /  F ield         | OpenFOAM: The Open Source CFD Toolbox           |
|  \\    /   O peration     | Version:  2012                                  |
|   \\  /    A nd           | Website:  www.openfoam.com                      |
|    \\/     M anipulation  |                                                 |
\*---------------------------------------------------------------------------*/
FoamFile
{
    version     2.0;
    format      ascii;
    class       volScalarField;
    location    "0.87";
    object      rhogh;
}
// * * * * * * * * * * * * * * * * * * * * * * * * * * * * * * * * * * * * * //

dimensions      [1 -1 -2 0 0 0 0];


internalField   nonuniform List<scalar> 
2268
(
-29.4294
-29.4294
-29.4294
-29.4294
-29.4294
-29.4294
-29.4294
-29.4294
-29.4294
-29.4294
-29.4294
-29.4294
-29.4294
-29.4294
-29.4294
-29.4294
-29.4294
-29.4294
-29.4294
-29.4294
-29.4294
-29.4292
-29.4246
-88.2881
-88.2881
-88.2881
-88.2881
-88.2881
-88.2881
-88.2881
-88.2881
-88.2881
-88.2881
-88.2881
-88.2881
-88.2881
-88.2881
-88.2881
-88.2881
-88.2881
-88.2881
-88.2881
-88.2881
-88.2881
-88.2856
-88.2635
-147.147
-147.147
-147.147
-147.147
-147.147
-147.147
-147.147
-147.147
-147.147
-147.147
-147.147
-147.147
-147.147
-147.147
-147.147
-147.147
-147.147
-147.147
-147.147
-147.147
-147.147
-147.146
-147.106
-206.006
-206.006
-206.006
-206.006
-206.006
-206.006
-206.006
-206.006
-206.006
-206.006
-206.006
-206.006
-206.006
-206.006
-206.006
-206.006
-206.006
-206.006
-206.006
-206.006
-206.006
-206.006
-205.948
-264.864
-264.864
-264.864
-264.864
-264.864
-264.864
-264.864
-264.864
-264.864
-264.864
-264.864
-264.864
-264.864
-264.864
-264.864
-264.864
-264.864
-264.864
-264.864
-264.864
-264.864
-264.864
-264.82
-323.723
-323.723
-323.723
-323.723
-323.723
-323.723
-323.723
-323.723
-323.723
-323.723
-323.723
-323.723
-323.723
-323.723
-323.723
-323.723
-323.723
-323.723
-323.721
-323.723
-323.723
-323.723
-323.722
-382.582
-382.582
-382.582
-382.582
-382.582
-382.582
-382.582
-382.582
-382.582
-382.582
-382.582
-382.582
-382.582
-382.582
-382.582
-382.582
-382.582
-382.582
-382.567
-382.53
-382.542
-382.575
-382.581
-441.44
-441.44
-441.44
-441.44
-441.44
-441.44
-441.44
-441.44
-441.44
-441.44
-441.44
-441.44
-441.44
-441.44
-441.44
-441.44
-441.44
-441.439
-441.392
-440.368
-437.917
-441.433
-441.43
-27.0525
-26.9663
-24.4552
-23.7949
-23.9475
-22.19
-12.033
-5.76214
-4.60818
-14.9274
-21.866
-21.9704
-26.6354
-26.6424
-27.158
-27.7745
-28.246
-28.3754
-28.4399
-81.1588
-73.901
-71.0394
-61.2083
-26.2472
-8.85881
-4.79722
-3.01635
-5.8165
-50.7751
-83.4072
-79.6766
-75.1404
-28.4221
-20.094
-44.7091
-67.0397
-79.7507
-86.353
-118.072
-89.9736
-87.816
-66.6796
-8.79744
-0.135582
-0.135582
-0.135582
-14.8316
-120.848
-139.021
-134.655
-134.688
-125.706
-64.7045
-29.1042
-29.1131
-97.4104
-143.673
-182.451
-154.864
-127.777
-16.4065
-2.41086
-2.47121
-0.189815
-0.193848
-21.84
-189.996
-189.318
-133.915
-103.865
-166.974
-166.974
-82.956
-81.4084
-165.423
-201.346
-249.223
-249.188
-230.451
-123.986
-121.296
-165.582
-4.9395
-0.387198
-24.6421
-241.532
-226.221
-193.098
-96.189
-96.183
-176.987
-243.438
-246.401
-262.316
-262.479
-304.605
-304.606
-273.978
-122.947
-173.355
-216.486
-125.512
-14.2712
-139.582
-290.567
-314.206
-315.779
-218.51
-69.7901
-103.619
-268.479
-320.808
-320.808
-320.808
-359.989
-351.953
-170.493
-9.96933
-11.0631
-169.841
-315.207
-156.108
-335.129
-348.539
-373.194
-373.194
-294.364
-82.4562
-82.4792
-146.587
-330.631
-360.147
-379.137
-415.371
-370.13
-11.1411
-6.5042
-6.50422
-47.8161
-353.737
-339.103
-426.362
-430.607
-430.608
-400.753
-176.575
-95.1667
-95.1418
-95.1684
-247.548
-415.367
-391.772
-533.467
-533.467
-533.467
-533.467
-533.467
-533.467
-533.467
-533.467
-533.402
-533.348
-533.366
-533.418
-533.424
-533.392
-533.333
-533.31
-533.319
-533.25
-530.746
-502.558
-406.519
-436.482
-533.454
-658.662
-658.662
-658.662
-658.662
-658.662
-658.662
-658.662
-634.956
-605.274
-598.276
-613.311
-629.067
-631.565
-631.578
-633.842
-642.179
-643.686
-615.4
-509.502
-273.581
-177.024
-269.361
-439.875
-783.856
-770.125
-761.132
-764.184
-732.827
-563.839
-377.872
-304.655
-281.332
-273.453
-325.11
-418.343
-500.737
-577.649
-559.187
-484.925
-367.964
-218.971
-97.7031
-52.3986
-87.263
-402.567
-568.799
-625.626
-526.715
-543.256
-544.746
-524.923
-504.715
-319.485
-111.534
-97.9684
-97.5561
-97.5563
-179.06
-362.017
-240.251
-45.308
-4.63175
-3.05791e-05
-3.05791e-05
-3.05791e-05
-3.05791e-05
-119.667
-594.805
-850.979
-145.729
-403.174
-573.45
-244.643
-72.4146
-89.8006
-317.251
-441.919
-442.037
-344.184
-52.142
-9.77653
-20.0285
-7.79321
-3.47905e-05
-3.47905e-05
-3.47905e-05
-3.47905e-05
-6.58729e-05
-2.22172
-286.171
-934.413
-973.349
-163.043
-451.057
-314.954
-18.3661
-1.15091
-21.6808
-287.877
-472.389
-495.403
-489.852
-195.747
-0.228289
-0.228357
-0.0512832
-0.0512832
-0.00720357
-3.90018e-05
-0.000138309
-0.000176194
-1.37753
-155.26
-881.177
-1091.17
-236.918
-237.168
-18.1179
-0.567622
-1.27547
-6.03408
-1.46254
-8.21366e-07
-64.7325
-101.253
-137.345
-166.064
-114.565
-29.2288
-1.64504
-0.00064613
-0.000646365
-0.000634402
-0.00292494
-0.204502
-6.84548
-233.394
-1073.92
-186.115
-2.36362
-0.545574
-0.236978
-0.776305
-0.509864
-4.70962e-07
-9.01352e-07
-1.93589e-07
-1.9359e-07
-7.05946
-193.09
-269.502
-269.501
-52.3432
-0.000709826
-0.0655043
-0.699098
-2.04682
-2.31991
-2.31954
-31.3123
-332.174
-40.7155
-0.000140207
-0.00608798
-0.0215645
-0.0386932
-0.000733049
-2.6957e-05
-5.68869e-05
-0.000177117
-0.00287819
-0.172565
-7.25019
-182.057
-297.816
-297.795
-78.2485
-4.87383
-90.6827
-201.934
-190.744
-48.3669
-76.4574
-314.198
-1.48955
-0.000153397
-0.00034755
-0.00395953
-0.00404191
-0.00010872
-2.5681e-07
-0.000103652
-0.00031115
-0.000301017
-4.52586e-05
-4.52388e-05
-4.52586e-05
-20.4372
-126.652
-199.639
-270.953
-410.201
-410.297
-410.201
-183.221
-190.743
-615.164
-0.157973
-0.168476
-8.95064e-06
-6.90195e-05
-0.000150871
-0.000206676
-2.76193e-07
-2.76176e-07
-7.82264e-06
-0.000118352
-0.000196645
-0.000828573
-0.000908601
-2.38112e-07
-2.38112e-07
-2.38112e-07
-27.6946
-233.993
-370.643
-262.713
-93.9845
-69.7977
-441.543
-0.170803
-0.575605
-9.57898e-06
-9.57827e-06
-9.57898e-06
-1.19971e-05
-1.01533e-06
-4.41489e-07
-4.33036e-07
-4.34061e-07
-4.33036e-07
-0.000464084
-0.00223962
-0.00163045
-6.68307e-06
-2.54809e-07
-2.54809e-07
-2.54809e-07
-2.54809e-07
-2.54809e-07
-2.54809e-07
-0.478324
-16.6691
-0.203198
-0.615811
-0.000868662
-0.0173596
-0.00300973
-7.34031e-05
-3.18294e-06
-9.07445e-07
-9.59939e-07
-1.49067e-06
-1.17971e-06
-5.58612e-05
-0.00238626
-0.00264501
-0.00086382
-2.71506e-07
-1.61316e-05
-2.09682e-05
-7.63073e-06
-9.21445e-06
-2.4485e-05
-2.71507e-07
-2.71618e-07
-0.193061
-0.529534
-0.0143567
-0.030962
-0.00602026
-8.06241e-05
-4.06901e-06
-1.11299e-06
-1.22286e-06
-2.17623e-06
-1.66179e-06
-7.9144e-07
-0.00087305
-0.00280711
-0.000753384
-2.88202e-07
-3.31949e-06
-4.1024e-06
-2.48566e-06
-2.41695e-05
-0.000155025
-0.000195054
-0.000165561
-0.0635284
-0.0420507
-0.0282013
-0.01657
-0.00119946
-2.82491e-05
-2.1167e-06
-9.05215e-07
-1.21049e-06
-2.23532e-06
-1.70493e-06
-8.37254e-07
-0.000539819
-0.00045944
-7.82353e-05
-6.79526e-06
-3.43629e-06
-3.30259e-06
-1.70914e-06
-1.85057e-07
-1.84846e-07
-4.9079e-07
-9.88461e-06
-0.000104661
-1.60206e-08
-0.00795051
-0.00106603
-5.53964e-05
-2.44593e-06
-4.46493e-07
-5.25704e-07
-1.31864e-06
-1.65313e-06
-1.65312e-06
-3.54108e-05
-4.5065e-05
-3.32216e-07
-3.32025e-07
-3.43683e-06
-3.62446e-06
-3.42922e-06
-2.09434e-06
-8.01211e-07
-3.16233e-07
-1.98199e-07
-1.65019e-07
-4.45253e-08
-1.68528e-08
-2.01272e-06
-1.78744e-06
-2.96644e-07
-1.64792e-07
-2.69918e-07
-5.2514e-07
-1.26459e-06
-1.40663e-06
-2.21196e-06
-1.7723e-05
-5.80952e-06
-6.71351e-07
-3.61954e-07
-1.30561e-06
-1.76061e-06
-1.21846e-06
-7.7542e-07
-5.9003e-07
-4.93033e-07
-3.59498e-07
-2.52449e-07
-1.64036e-08
-1.76842e-08
-1.60882e-08
-3.122e-08
-7.84444e-08
-1.51932e-07
-2.46181e-07
-5.20767e-07
-9.36598e-07
-1.35034e-06
-3.83095e-06
-4.7346e-06
-1.55415e-06
-3.28531e-07
-4.33701e-07
-6.34934e-07
-7.12431e-07
-4.97344e-07
-3.27751e-07
-2.28802e-07
-1.63144e-07
-1.33597e-07
-1.31717e-07
-1.27736e-08
-1.39695e-08
-1.68232e-08
-3.69239e-08
-8.53903e-08
-1.24411e-07
-1.8324e-07
-4.15316e-07
-6.89468e-07
-1.26291e-06
-3.2727e-06
-2.1092e-06
-4.36838e-07
-2.09895e-07
-2.5576e-07
-3.06485e-07
-2.78994e-07
-1.69423e-07
-1.06049e-07
-6.8999e-08
-4.97403e-08
-4.67189e-08
-5.81831e-08
-4.99207e-09
-6.59415e-09
-1.4729e-08
-3.5873e-08
-6.50297e-08
-6.92423e-08
-1.10624e-07
-2.71152e-07
-5.51935e-07
-1.26027e-06
-1.78677e-06
-7.78913e-07
-1.91071e-07
-1.26653e-07
-1.30531e-07
-1.33864e-07
-9.61865e-08
-5.17151e-08
-2.83555e-08
-2.03786e-08
-2.39158e-08
-4.94873e-08
-1.38553e-07
-1.07573e-09
-2.33453e-09
-8.83458e-09
-2.14967e-08
-2.6784e-08
-3.13395e-08
-6.80902e-08
-1.95826e-07
-4.84376e-07
-1.02915e-06
-7.79178e-07
-2.64728e-07
-9.19799e-08
-6.64053e-08
-6.00659e-08
-5.09445e-08
-2.57207e-08
-1.17225e-08
-9.17995e-09
-1.79916e-08
-8.68355e-08
-3.70338e-07
-1.30533e-06
-1.99664e-10
-7.021e-10
-3.05195e-09
-6.99369e-09
-9.37887e-09
-1.482e-08
-4.32828e-08
-1.4742e-07
-4.07873e-07
-5.5499e-07
-3.01249e-07
-9.90501e-08
-4.38983e-08
-3.09276e-08
-2.47564e-08
-1.5627e-08
-6.87412e-09
-6.41978e-09
-2.01125e-08
-1.43606e-07
-7.61941e-07
-4.06856e-06
-3.07119e-05
-3.45277e-11
-1.76626e-10
-8.83114e-10
-2.06028e-09
-3.34525e-09
-7.49629e-09
-2.69708e-08
-1.03606e-07
-2.70018e-07
-2.34392e-07
-1.06196e-07
-3.94786e-08
-1.91828e-08
-1.23402e-08
-7.51479e-09
-5.663e-09
-6.56994e-09
-3.24227e-08
-2.2528e-07
-1.30039e-06
-7.29134e-06
-5.7233e-05
-0.000310638
-5.74343e-12
-3.87714e-11
-2.30182e-10
-5.92131e-10
-1.248e-09
-3.87265e-09
-1.59153e-08
-6.60114e-08
-1.31047e-07
-9.05495e-08
-3.80242e-08
-1.54544e-08
-7.41841e-09
-4.56995e-09
-4.43728e-09
-9.17467e-09
-6.06388e-08
-2.92215e-07
-5.67067e-07
-8.45084e-06
-0.000173412
-0.000366568
-0.000349533
-9.36021e-13
-7.88381e-12
-5.6623e-11
-1.7198e-10
-4.90274e-10
-1.98955e-09
-9.37687e-09
-3.74439e-08
-5.59061e-08
-3.26737e-08
-1.33884e-08
-5.63856e-09
-3.0928e-09
-3.4393e-09
-1.24147e-08
-2.67956e-08
-2.6796e-08
-2.67951e-08
-6.54401e-05
-0.000288382
-0.000333435
-0.000242402
-4.79812e-08
-1.52873e-13
-1.57791e-12
-1.3706e-11
-5.23584e-11
-2.0568e-10
-1.05905e-09
-5.64313e-09
-1.81956e-08
-2.19305e-08
-1.14682e-08
-4.61136e-09
-2.01655e-09
-1.46405e-09
-3.07369e-09
-1.51548e-08
-2.51069e-07
-1.48823e-05
-0.00034335
-0.000475181
-0.000438947
-6.79194e-08
-3.85478e-07
-5.53744e-08
-2.59275e-14
-3.33409e-13
-3.47279e-12
-1.79477e-11
-9.88056e-11
-6.04434e-10
-3.20985e-09
-7.81733e-09
-8.04736e-09
-3.61429e-09
-1.27578e-09
-6.46856e-10
-4.34778e-10
-3.6919e-10
-3.6852e-10
-3.6919e-10
-0.000253032
-0.000492023
-0.000453172
-1.70066e-05
-4.50215e-08
-9.37833e-08
-1.17284e-07
-4.91648e-15
-8.28618e-14
-1.0224e-12
-7.38875e-12
-5.22851e-11
-3.36445e-10
-1.62856e-09
-3.09955e-09
-2.6937e-09
-1.40185e-09
-2.99576e-09
-2.83006e-08
-2.6859e-07
-4.81046e-06
-0.000158354
-0.000762363
-0.000762229
-0.000128618
-2.3901e-05
-4.04269e-06
-4.6511e-08
-9.92723e-08
-6.46313e-08
-1.15396e-15
-2.6154e-14
-3.79387e-13
-3.5631e-12
-2.80423e-11
-1.75852e-10
-6.90331e-10
-1.05312e-09
-9.1026e-10
-8.93279e-10
-4.19882e-09
-3.69209e-08
-3.58714e-07
-2.26462e-05
-0.000627281
-0.00093868
-0.00067876
-3.50214e-08
-6.00585e-07
-5.07537e-07
-4.79984e-08
-2.02153e-08
-6.32754e-09
-3.31647e-16
-9.73602e-15
-1.53732e-13
-1.5898e-12
-1.25054e-11
-7.302e-11
-2.79649e-10
-5.345e-10
-6.70901e-10
-6.90082e-10
-5.85858e-10
-5.85995e-10
-5.85858e-10
-5.85995e-10
-0.000477939
-0.000921785
-9.32643e-05
-3.60286e-08
-7.0614e-08
-6.43114e-08
-1.00224e-08
-2.04607e-09
-6.61974e-10
-1.29758e-16
-4.32108e-15
-8.22003e-14
-1.04618e-12
-9.75428e-12
-6.62594e-11
-3.18595e-10
-1.26891e-09
-8.12064e-09
-8.78321e-08
-1.11147e-06
-2.5248e-05
-0.000442807
-0.00150028
-0.000385887
-3.03853e-05
-6.43932e-06
-1.64692e-07
-1.88283e-08
-7.01326e-09
-1.00186e-09
-2.13713e-10
-7.87549e-11
-1.31645e-16
-4.40377e-15
-1.06629e-13
-1.88295e-12
-2.67933e-11
-3.00884e-10
-2.44494e-09
-1.24152e-08
-3.55206e-08
-1.49783e-07
-3.48796e-06
-0.000487412
-0.00247549
-0.00247337
-0.000484426
-5.6216e-09
-5.5605e-07
-1.38373e-07
-7.55195e-09
-8.34435e-10
-1.02235e-10
-2.50921e-11
-9.17544e-12
-2.48905e-16
-1.30364e-14
-4.02923e-13
-9.01762e-12
-1.56439e-10
-2.07413e-09
-2.00995e-08
-9.23206e-08
-1.29464e-07
-8.39857e-08
-8.40394e-08
-0.000311788
-0.00254351
-0.00196517
-1.83871e-05
-5.74512e-09
-9.08651e-08
-2.94961e-08
-1.68623e-09
-9.5212e-11
-1.10505e-11
-2.78012e-12
-9.45062e-13
-1.1935e-15
-6.17045e-14
-1.68258e-12
-3.26847e-11
-4.95825e-10
-5.85288e-09
-5.23267e-08
-2.49291e-07
-3.34514e-07
-8.6357e-08
-0.00022241
-0.00260929
-0.000764985
-0.000221953
-3.96518e-06
-5.90413e-09
-2.29726e-08
-4.2527e-09
-2.47842e-10
-9.79165e-12
-1.1458e-12
-2.67332e-13
-8.31525e-14
-7.68371e-15
-3.39778e-13
-7.42244e-12
-1.09466e-10
-1.24171e-09
-1.12465e-08
-8.01921e-08
-5.0677e-07
-1.02023e-05
-0.000326658
-0.00237955
-0.00278278
-0.00048142
-6.7701e-08
-1.37969e-06
-6.06229e-09
-5.49281e-09
-6.18165e-10
-2.78142e-11
-9.51663e-13
-1.2001e-13
-2.36835e-14
-6.54577e-15
-3.60835e-14
-1.46377e-12
-2.81518e-11
-3.42414e-10
-2.98805e-09
-2.005e-08
-1.05395e-07
-4.74096e-07
-2.4368e-05
-0.00251906
-0.0059334
-0.00276346
-6.59383e-09
-6.94778e-08
-2.6982e-07
-4.19062e-09
-1.09774e-09
-8.40958e-11
-2.41176e-12
-7.65046e-14
-1.00887e-14
-1.7161e-15
-4.29388e-16
-1.63278e-13
-6.03531e-12
-1.04044e-10
-1.09811e-09
-7.87798e-09
-4.04056e-08
-1.51759e-07
-2.82816e-07
-2.82813e-07
-0.00262568
-0.00608451
-0.00115768
-6.76233e-09
-2.9719e-08
-4.67691e-08
-1.48706e-09
-2.15243e-10
-1.0329e-11
-1.69217e-13
-6.36515e-15
-7.87499e-16
-1.13693e-16
-2.51024e-17
-5.46487e-13
-1.88471e-11
-3.03225e-10
-2.98095e-09
-1.982e-08
-9.5123e-08
-3.81717e-07
-6.62018e-06
-0.000963564
-0.00528309
-0.00283381
-1.38743e-09
-2.54507e-08
-3.09674e-08
-7.37608e-09
-4.36653e-10
-3.83232e-11
-1.02283e-12
-7.97924e-15
-3.72509e-16
-4.11694e-17
-5.32613e-18
-1.11557e-18
-1.78198e-12
-5.58055e-11
-8.14904e-10
-7.27784e-09
-4.37796e-08
-1.83937e-07
-3.56668e-07
-3.56669e-07
-0.000712058
-0.00541108
-9.62255e-05
-1.42086e-09
-4.31904e-08
-3.80123e-08
-1.44954e-09
-1.20293e-10
-6.17555e-12
-7.80275e-14
-2.50548e-16
-1.79873e-17
-1.74275e-18
-2.00351e-19
-3.84461e-20
-4.71803e-12
-1.35668e-10
-1.80419e-09
-1.46562e-08
-8.09597e-08
-3.29604e-07
-5.23937e-06
-0.00099535
-0.005988
-0.00270967
-7.5387e-10
-1.56818e-08
-4.46782e-08
-3.03457e-08
-3.44856e-10
-2.8604e-11
-8.28018e-13
-3.87108e-15
-5.07016e-18
-3.89072e-19
-3.30235e-20
-3.65903e-21
-7.81853e-22
-1.25212e-11
-3.28977e-10
-3.92306e-09
-2.78062e-08
-1.2792e-07
-2.44854e-07
-2.44855e-07
-0.000863721
-0.00613348
-0.00103435
-7.71296e-10
-1.49885e-08
-2.83725e-08
-1.13615e-08
-9.33237e-11
-6.1012e-12
-1.00089e-13
-1.11039e-16
-6.8856e-20
-3.55738e-21
-2.21233e-22
-2.43432e-23
-7.20463e-24
-5.10108e-11
-1.17335e-09
-1.20638e-08
-7.23932e-08
-3.09678e-07
-1.20258e-05
-0.00169644
-0.00701136
-0.00303413
-7.88722e-10
-1.64944e-09
-6.89424e-09
-7.14014e-09
-2.10809e-09
-2.1888e-11
-1.11752e-12
-9.5998e-15
-8.58479e-19
-1.3412e-24
-1.62054e-28
-2.31511e-30
-6.03588e-31
-1.69229e-31
-475.886
-320.278
-384.275
-492.623
-395.442
-395.457
-551.738
-617.07
-548.76
-647.834
-737.635
-737.635
-855.344
-855.211
-855.448
-855.448
-973.342
-973.342
-938.425
-581.754
-1091.17
-1091.16
-963.342
-436.469
-1208.99
-1208.99
-960.941
-516.272
-752.227
-780.06
-562.102
-348.165
-195.301
-57.8758
-29.6314
-24.2331
-615.154
-289.411
-81.9635
-66.9725
-661.562
-661.55
-351.728
-37.2879
-177.825
-150.026
-53.9238
-89.1752
-2.71507e-07
-2.71618e-07
-2.71507e-07
-2.71618e-07
-4.61149e-05
-5.91187e-05
-0.000116983
-0.00180546
-0.000138331
-0.000138095
-0.000117919
-0.000400016
-1.65929e-07
-1.64086e-07
-1.64086e-07
-1.78525e-07
-1.72797e-07
-1.72605e-07
-1.83485e-07
-6.19398e-07
-1.59313e-07
-1.8198e-07
-1.97581e-07
-2.10794e-07
-8.26058e-08
-1.07409e-07
-1.34811e-07
-1.7318e-07
-2.76025e-07
-4.31957e-07
-7.26912e-07
-1.31604e-06
-3.59758e-06
-6.07621e-06
-1.49252e-05
-2.5234e-05
-0.000126775
-0.000172252
-0.000171773
-0.000125215
-0.000385376
-0.000385338
-0.0001228
-4.40806e-08
-5.17305e-05
-4.57643e-08
-4.57426e-08
-4.57643e-08
-4.79921e-08
-5.07988e-08
-6.17109e-08
-7.58227e-08
-9.21141e-08
-1.01353e-07
-1.0787e-07
-1.15952e-07
-1.00912e-07
-7.84431e-08
-6.71778e-08
-6.13607e-08
-2.29875e-08
-1.72487e-08
-1.43635e-08
-1.29906e-08
-3.04353e-09
-2.37307e-09
-2.01131e-09
-1.82068e-09
-3.5327e-10
-2.78197e-10
-2.3179e-10
-2.03141e-10
-4.41331e-11
-3.45178e-11
-2.81245e-11
-2.38818e-11
-5.16078e-12
-4.05634e-12
-3.32132e-12
-2.82886e-12
-5.21756e-13
-4.09363e-13
-3.3509e-13
-2.85457e-13
-4.50473e-14
-3.52976e-14
-2.8892e-14
-2.46459e-14
-3.45788e-15
-2.70647e-15
-2.2147e-15
-1.88736e-15
-2.23446e-16
-1.75591e-16
-1.44703e-16
-1.24116e-16
-1.25834e-17
-9.75326e-18
-7.96608e-18
-6.81599e-18
-5.67834e-19
-4.42102e-19
-3.60145e-19
-3.05666e-19
-1.93011e-20
-1.50791e-20
-1.22936e-20
-1.03418e-20
-4.23955e-22
-3.35807e-22
-2.744e-22
-2.3061e-22
-4.34037e-24
-3.48074e-24
-2.89844e-24
-2.48692e-24
-6.1383e-32
-3.46141e-32
-1.97428e-32
-1.1587e-32
-501.964
-418.358
-12.3191
-34.5251
-14.0739
-35.5458
-280.094
-473.574
-513.263
-520.375
-517.235
-336.042
-125.154
-114.974
-247.708
-282.556
-286.285
-399.253
-379.251
-619.764
-377.042
-52.0738
-94.7117
-23.5721
-48.3154
-377.989
-588.996
-627.888
-635.87
-565.311
-232.945
-115.524
-179.819
-389.249
-392.291
-501.022
-544.033
-544.033
-694.115
-113.614
-61.9716
-95.5935
-420.046
-678.642
-719.921
-735.329
-701.687
-462.753
-339.728
-272.121
-137.532
-137.482
-137.487
-209.1
-508.248
-546.14
-442.287
-563.456
-98.9533
-172.193
-535.322
-641.025
-748.988
-846.112
-852.738
-449.848
-42.2464
-40.3611
-244.463
-391.265
-391.216
-223.727
-323.812
-266.689
-84.3315
-44.9593
-229.286
-112.577
-475.426
-748.923
-748.923
-760.534
-763.753
-631.539
-473.342
-166.108
-0.0100306
-0.0100306
-94.3547
-231.225
-341.585
-331.399
-14.5558
-18.8505
-22.9405
-167.076
-126.209
-257.547
-219.567
-246.552
-449.605
-546.32
-612.705
-506.487
-255.898
-5.962
-0.0112448
-0.0112448
-0.0112448
-0.494235
-3.21907
-16.3179
-16.8375
-16.1039
-362.929
-322.862
-36.0494
-0.00935038
-0.00935038
-61.543
-14.7568
-36.9533
-0.137555
-40.8638
-11.0307
-9.84885
-14.4481
-4.60338
-0.0182813
-0.0353503
-0.0344755
-0.034479
-0.0344755
-229.774
-297.227
-72.8875
-0.0102616
-2.54131
-79.7361
-3.80041
-0.0745096
-0.150961
-17.4664
-72.9009
-84.0531
-77.1297
-8.59092
-0.020063
-0.130662
-0.344588
-0.0378393
-0.0378392
-24.234
-40.411
-80.1831
-13.8043
-4.02476
-111.09
-47.3333
-0.226435
-0.0797726
-0.00314873
-0.0031487
-26.9786
-18.6133
-1.75249
-0.0397956
-0.343856
-0.132451
-0.0681357
-0.0548077
-28.5704
-0.450923
-18.4473
-0.000727342
-76.0701
-120.102
-28.051
-0.0439099
-0.00146784
-0.00456515
-0.263761
-0.520305
-0.453336
-0.189435
-0.039378
-0.00413757
-1.30179e-08
-0.275068
-0.280415
-11.5656
-3.87095e-08
-3.87036e-08
-0.000782185
-189.597
-29.2027
-0.00127665
-0.00127657
-0.00957794
-0.0455083
-0.0538587
-0.0477431
-0.0436635
-0.0297217
-0.00138601
-1.39996e-08
-1.39996e-08
-0.316725
-0.289333
-134.925
-111.901
-7.38496
-37.7102
-56.6168
-3.38751
-0.06385
-0.00136617
-0.0016114
-0.0360659
-0.0605288
-0.0427044
-0.0109683
-0.0109685
-8.88241e-08
-7.01206e-06
-1.49812e-08
-0.220533
-2.57823e-07
-2.08485
-22.0245
-32.2357
-32.2357
-4.61572e-05
-0.134308
-0.111092
-0.00541826
-0.058242
-0.0644951
-0.0644951
-0.0644951
-0.064491
-0.0236417
-3.589e-07
-8.00256e-05
-3.09146e-06
-2.74717e-07
-2.74674e-07
-0.137132
-4.87412
-12.8998
-2.91094
-4.89935e-05
-0.000530184
-0.00855177
-0.00508258
-0.0201855
-0.0277752
-0.0329049
-0.0343296
-0.0257198
-0.000742029
-0.00196054
-0.000184584
-1.03816e-05
-3.74862e-07
-3.42749e-07
-0.0358632
-0.376412
-1.29112
-1.46607
-5.18342e-05
-5.18319e-05
-0.000114208
-0.000702347
-0.000225838
-1.19789e-06
-1.2059e-06
-1.19789e-06
-1.2059e-06
-1.19789e-06
-2.1084e-06
-1.88033e-05
-1.56309e-05
-3.09013e-06
-2.95897e-06
-2.58886e-05
-0.0331584
-0.591018
-1.24632
-0.849269
-0.0659219
-5.41518e-05
-5.41517e-05
-0.0024206
-0.00208798
-0.00132015
-0.000847139
-0.000399665
-0.000101387
-5.29747e-06
-7.49551e-07
-1.11664e-06
-9.00662e-05
-0.000137849
-8.5413e-05
-0.00367353
-0.0374879
-0.244631
-0.498346
-0.179081
-0.0173656
-0.0124498
-0.00776523
-0.00238473
-0.00169084
-0.00169021
-0.00138236
-0.000338521
-1.60237e-05
-7.88424e-07
-5.06935e-07
-0.000599845
-0.000750039
-2.84318e-07
-2.96521e-06
-0.000141903
-0.000548745
-0.000680705
-0.0127739
-0.00959105
-0.00524965
-0.000747079
-7.92923e-08
-7.93215e-08
-7.92923e-08
-0.000143328
-0.000305338
-5.8092e-05
-2.25731e-06
-5.3229e-07
-0.00082395
-0.000824154
-2.3057e-07
-3.01643e-07
-4.14095e-07
-4.68452e-07
-7.21846e-07
-1.5366e-06
-2.20019e-06
-8.30523e-08
-8.30218e-08
-6.66135e-07
-2.35827e-06
-9.8644e-07
-1.18696e-07
-1.1853e-07
-1.18696e-07
-2.60165e-06
-5.56975e-07
-0.000738474
-0.000276046
-2.28314e-06
-3.92335e-06
-6.48305e-06
-7.90446e-06
-9.19377e-06
-9.0066e-06
-3.59727e-06
-3.59451e-06
-3.18399e-06
-3.37411e-06
-6.56045e-06
-6.80141e-06
-2.19981e-06
-9.67232e-07
-6.09427e-07
-3.0428e-06
-7.06464e-07
-0.000141365
-1.91214e-05
-3.42684e-05
-4.1611e-05
-3.82401e-05
-2.69588e-05
-1.9413e-05
-1.33365e-05
-8.0144e-06
-6.18896e-06
-4.19121e-06
-2.71015e-06
-4.63415e-06
-7.19043e-05
-4.09987e-05
-1.53571e-05
-4.6046e-06
-2.99477e-06
-3.47755e-05
-1.99434e-05
-1.99432e-05
-8.84983e-05
-6.6626e-05
-3.29596e-05
-1.44105e-05
-7.03789e-06
-3.87113e-06
-2.74494e-06
-1.44498e-06
-7.08484e-07
-1.87887e-07
-9.16751e-10
-0.000267144
-0.00110431
-0.000910014
-0.00012262
-5.48498e-06
-0.000102958
-6.56688e-05
-2.29519e-05
-1.24951e-05
-4.6014e-06
-9.96784e-07
-4.38493e-07
-3.14858e-07
-3.09475e-07
-1.79664e-07
-7.78896e-08
-2.63493e-08
-6.17537e-09
-9.52974e-10
-0.000299801
-0.00190284
-0.00190322
-0.000804624
-2.15223e-05
-9.2003e-05
-0.000339907
-0.000135311
-4.57426e-08
-4.57643e-08
-6.02266e-08
-1.63105e-07
-2.25064e-07
-1.74989e-07
-7.7168e-08
-3.7128e-08
-2.14316e-08
-6.32071e-08
-5.05953e-07
-5.89107e-05
-0.000779895
-0.0019753
-0.0018144
-0.000191969
-1.85144e-05
-0.000653595
-0.000478881
-1.0582e-07
-1.90946e-07
-2.62623e-07
-2.65544e-07
-2.09016e-07
-8.16293e-08
-3.53473e-08
-2.05367e-08
-2.5921e-08
-1.84411e-07
-2.78368e-06
-3.28039e-05
-3.28038e-05
-0.00151954
-0.00204196
-0.000687635
-1.91563e-05
-0.000795293
-0.000745208
-1.37211e-07
-1.72126e-07
-1.8392e-07
-1.55503e-07
-6.43693e-08
-2.35217e-08
-1.07008e-08
-6.96646e-09
-1.81007e-08
-1.85163e-07
-2.72712e-06
-8.80965e-05
-0.000690463
-0.000454389
-0.00211387
-0.00116883
-1.98958e-05
-0.000823292
-0.000771578
-5.77718e-08
-5.55067e-08
-5.37125e-08
-3.43638e-08
-1.37381e-08
-5.28425e-09
-2.45738e-09
-1.7263e-09
-5.42982e-09
-4.54619e-08
-5.96694e-07
-9.16775e-05
-0.00172558
-0.000469675
-0.00168604
-0.00135927
-5.01252e-05
-0.000351593
-0.0019863
-1.20506e-08
-1.12838e-08
-1.05687e-08
-6.25656e-09
-2.54943e-09
-1.02924e-09
-4.58073e-10
-2.60358e-10
-6.08982e-10
-6.4102e-09
-1.26753e-07
-3.79712e-05
-0.00174589
-0.000485446
-0.000485196
-0.00125122
-0.000153706
-4.89703e-05
-0.00455772
-1.66357e-09
-1.51531e-09
-1.38549e-09
-8.50061e-10
-3.87362e-10
-1.72044e-10
-7.53301e-11
-3.13535e-11
-4.96263e-11
-1.12029e-09
-5.01499e-08
-7.62275e-06
-0.000237425
-0.000638247
-0.000500975
-0.000967121
-0.000267207
-5.05907e-05
-0.00474125
-1.75316e-10
-1.47885e-10
-1.28169e-10
-8.92454e-11
-4.72895e-11
-2.35085e-11
-1.10072e-11
-3.46265e-12
-8.20558e-13
-1.67834e-13
-4.06048e-20
-4.06066e-20
-4.06048e-20
-0.00679796
-0.00119497
-0.000465175
-0.000266429
-5.16516e-05
-0.00488872
-1.9516e-11
-1.52158e-11
-1.2426e-11
-9.04505e-12
-5.06089e-12
-2.55645e-12
-1.28703e-12
-4.26536e-13
-1.0092e-13
-2.28044e-14
-5.93433e-15
-6.62055e-16
-1.06735e-18
-0.00938468
-0.00462483
-0.000418319
-0.00015
-5.31997e-05
-0.00212205
-2.31053e-12
-1.78704e-12
-1.4306e-12
-9.88488e-13
-4.99503e-13
-2.26033e-13
-1.19052e-13
-4.58968e-14
-1.06959e-14
-2.62413e-15
-4.06912e-16
-7.89749e-17
-4.30464e-20
-0.00784685
-0.00834325
-0.00279244
-0.000184822
-4.96694e-05
-3.58458e-05
-2.33058e-13
-1.79917e-13
-1.42823e-13
-9.38966e-14
-4.45967e-14
-1.6952e-14
-9.12722e-15
-4.43507e-15
-9.59472e-16
-2.34565e-16
-3.92135e-17
-8.66468e-18
-4.42691e-20
-0.000318231
-0.0429902
-0.0129526
-0.00060607
-2.70726e-05
-2.22887e-06
-2.02378e-14
-1.58365e-14
-1.27755e-14
-8.00352e-15
-3.77269e-15
-1.14591e-15
-5.81822e-16
-3.67105e-16
-7.28294e-17
-1.59202e-17
-2.6797e-18
-6.63434e-19
-4.70531e-20
-5.38979e-22
-0.1101
-0.0515564
-0.00138637
-1.13966e-05
-1.4488e-06
-1.54815e-15
-1.21322e-15
-9.87728e-16
-6.2183e-16
-3.04634e-16
-7.37825e-17
-3.13464e-17
-2.48415e-17
-4.85678e-18
-9.11054e-19
-1.46843e-19
-3.56611e-20
-6.73032e-21
3.20361e-21
-0.106335
-0.124566
-0.0133204
-3.00663e-05
-1.43685e-06
-1.02318e-16
-8.02947e-17
-6.52209e-17
-4.19815e-17
-2.1912e-17
-4.59964e-18
-1.5563e-18
-1.31288e-18
-2.81845e-19
-4.63796e-20
-6.36879e-21
-1.30668e-21
-2.92341e-22
5.80409e-21
-0.0194359
-0.237149
-0.0416586
-8.93567e-05
-1.47112e-06
-5.63371e-18
-4.43763e-18
-3.61427e-18
-2.42914e-18
-1.39263e-18
-2.68806e-19
-7.33397e-20
-5.56391e-20
-1.44769e-20
-2.09622e-21
-2.45484e-22
-3.80297e-23
-7.15591e-24
3.65463e-21
1.33467e-21
-0.330238
-0.0822482
-0.000177474
-1.51196e-06
-2.49995e-19
-1.95691e-19
-1.62222e-19
-1.13163e-19
-6.94842e-20
-1.30347e-20
-3.16622e-21
-1.99852e-21
-5.25632e-22
-7.18012e-23
-7.41239e-24
-8.71712e-25
-1.31866e-25
1.75189e-21
2.45168e-21
-0.404887
-0.120928
-0.000181866
-0.0279321
-8.28569e-21
-6.37138e-21
-5.48263e-21
-4.03452e-21
-2.72014e-21
-5.22764e-22
-1.16747e-22
-5.71578e-23
-1.44633e-23
-2.0261e-24
-1.998e-25
-1.96293e-26
-2.50887e-27
6.48214e-22
5.77896e-21
-0.414762
-0.177726
-0.0127589
-0.086794
-1.86224e-22
-1.46699e-22
-1.29833e-22
-9.87562e-23
-6.76988e-23
-1.39432e-23
-2.82634e-24
-1.14965e-24
-2.53905e-25
-3.33204e-26
-3.02506e-27
-2.50491e-28
-3.44204e-29
1.33766e-22
1.02695e-20
-0.42467
-0.250169
-0.0351803
-0.0891982
-2.05307e-24
-1.65578e-24
-1.51348e-24
-1.20114e-24
-8.61418e-25
-2.14964e-25
-3.85936e-26
-1.2179e-26
-2.45069e-27
-3.2227e-28
-2.93782e-29
-2.2342e-30
-4.73949e-31
1.05564e-23
8.85525e-21
-0.434241
-0.290085
-0.0316187
-0.0912602
-5.48814e-33
-1.51422e-33
-3.82151e-34
-5.67082e-35
-3.59787e-36
-1.44577e-37
-5.61581e-39
-8.82513e-41
-5.57329e-60
3.82766e-42
1.76706e-42
9.65897e-43
6.70294e-43
9.79408e-43
1.60948e-42
-0.195358
-0.266709
-0.0223259
-0.0755591
)
;

boundaryField
{
    leftWall
    {
        type            calculated;
        value           nonuniform List<scalar> 
50
(
-29.4294
-88.2881
-147.147
-206.006
-264.864
-323.723
-382.582
-441.44
-533.467
-658.662
-783.856
-625.626
-145.729
-163.043
-236.918
-186.115
-40.7155
-1.48955
-0.157973
-0.170803
-0.203198
-0.193061
-0.0635284
-0.000104661
-4.45253e-08
-1.64036e-08
-1.27736e-08
-4.99207e-09
-1.07573e-09
-1.99664e-10
-3.45277e-11
-5.74343e-12
-9.36021e-13
-1.52873e-13
-2.59275e-14
-4.91648e-15
-1.15396e-15
-3.31647e-16
-1.29758e-16
-1.31645e-16
-2.48905e-16
-1.1935e-15
-7.68371e-15
-3.60835e-14
-1.63278e-13
-5.46487e-13
-1.78198e-12
-4.71803e-12
-1.25212e-11
-5.10108e-11
)
;
    }
    rightWall
    {
        type            calculated;
        value           nonuniform List<scalar> 
50
(
-28.4399
-86.353
-143.673
-201.346
-262.479
-320.808
-379.137
-391.772
-379.251
-544.033
-442.287
-44.9593
-22.9405
-16.1039
-0.0344755
-0.0378392
-0.0548077
-0.280415
-0.289333
-2.57823e-07
-2.74674e-07
-3.42749e-07
-2.95897e-06
-0.000137849
-0.000750039
-0.000824154
-0.000276046
-1.91214e-05
-1.99432e-05
-2.29519e-05
-0.000135311
-0.000478881
-0.000745208
-0.000771578
-0.0019863
-0.00455772
-0.00474125
-0.00488872
-0.00212205
-3.58458e-05
-2.22887e-06
-1.4488e-06
-1.43685e-06
-1.47112e-06
-1.51196e-06
-0.0279321
-0.086794
-0.0891982
-0.0912602
-0.0755591
)
;
    }
    lowerWall
    {
        type            calculated;
        value           nonuniform List<scalar> 
62
(
0
0
0
0
0
0
0
0
0
0
0
0
0
0
0
0
0
0
0
0
0
0
0
-29.4246
-88.2635
-147.106
-205.948
-264.82
-323.722
-382.581
-441.43
-420.045
-282.697
-339.184
-434.818
-27.0525
-81.1588
-118.072
-182.451
-249.223
-304.605
-359.989
-415.371
0
0
0
0
0
0
0
0
0
0
0
0
0
0
0
0
0
0
0
)
;
    }
    atmosphere
    {
        type            calculated;
        value           nonuniform List<scalar> 
46
(
-5.15743e-11
-1.18631e-09
-1.2197e-08
-7.31929e-08
-3.13099e-07
-1.21586e-05
-0.00171519
-0.00708881
-0.00306765
-7.97435e-10
-1.66766e-09
-6.9704e-09
-7.21902e-09
-2.13137e-09
-2.21298e-11
-1.12987e-12
-9.70584e-15
-0
-0
-0
-0
-0
-0
-0
-0
-0
-0
-0
-0
-0
-0
-0
-0
-0
-0
-0
-0
-0
-0
-0
-0
-0
-0
-0.269656
-0.0225725
-0.0763938
)
;
    }
    defaultFaces
    {
        type            empty;
    }
}


// ************************************************************************* //
