/*--------------------------------*- C++ -*----------------------------------*\
| =========                 |                                                 |
| \\      /  F ield         | OpenFOAM: The Open Source CFD Toolbox           |
|  \\    /   O peration     | Version:  2012                                  |
|   \\  /    A nd           | Website:  www.openfoam.com                      |
|    \\/     M anipulation  |                                                 |
\*---------------------------------------------------------------------------*/
FoamFile
{
    version     2.0;
    format      ascii;
    class       volVectorField;
    location    "0.87";
    object      U;
}
// * * * * * * * * * * * * * * * * * * * * * * * * * * * * * * * * * * * * * //

dimensions      [0 1 -1 0 0 0 0];


internalField   nonuniform List<vector> 
2268
(
(-0.0240643 0.0101103 0)
(-0.070179 0.00948324 0)
(-0.114048 0.00797061 0)
(-0.153565 0.00641673 0)
(-0.185351 0.00366867 0)
(-0.209953 0.0020176 0)
(-0.227343 0.00111408 0)
(-0.236518 -0.00011726 0)
(-0.240976 0.000182069 0)
(-0.240305 -0.0015773 0)
(-0.235803 -0.00130862 0)
(-0.225251 -0.00385636 0)
(-0.21415 -0.00356362 0)
(-0.194999 -0.00601904 0)
(-0.172557 -0.00737973 0)
(-0.139244 -0.0102143 0)
(-0.0987534 -0.012401 0)
(-0.0488953 -0.0138837 0)
(0.00154799 -0.0145533 0)
(0.0489053 -0.0142293 0)
(0.0794949 -0.00721564 0)
(0.0531835 -0.00893132 0)
(0.0495187 0.00359786 0)
(-0.0241604 0.0344277 0)
(-0.0712173 0.0329793 0)
(-0.115662 0.031475 0)
(-0.155365 0.027158 0)
(-0.186771 0.023067 0)
(-0.210647 0.0176832 0)
(-0.228085 0.0115523 0)
(-0.237503 0.00642748 0)
(-0.242391 0.00169201 0)
(-0.24071 -0.000975838 0)
(-0.236371 -0.00572918 0)
(-0.225876 -0.00645898 0)
(-0.215208 -0.0106561 0)
(-0.196763 -0.0137078 0)
(-0.174171 -0.0188719 0)
(-0.140515 -0.0247517 0)
(-0.0999257 -0.0301817 0)
(-0.0489068 -0.0336251 0)
(0.00237782 -0.0315269 0)
(0.051003 -0.0226826 0)
(0.081733 0.00538407 0)
(0.0579931 0.0231356 0)
(0.0424623 0.0449788 0)
(-0.0252884 0.0552329 0)
(-0.0722609 0.0527473 0)
(-0.116919 0.0478822 0)
(-0.157371 0.0400405 0)
(-0.190315 0.0299332 0)
(-0.215845 0.0215306 0)
(-0.232914 0.0139068 0)
(-0.242059 0.00662515 0)
(-0.245935 0.00183037 0)
(-0.242712 -0.00444659 0)
(-0.237913 -0.00821087 0)
(-0.228061 -0.0139282 0)
(-0.218523 -0.017223 0)
(-0.198899 -0.0255529 0)
(-0.177515 -0.0338685 0)
(-0.141973 -0.0454636 0)
(-0.102074 -0.0555987 0)
(-0.0470845 -0.0623984 0)
(0.00730427 -0.0617379 0)
(0.0630057 -0.0519577 0)
(0.105029 -0.0106931 0)
(0.0753206 0.00935433 0)
(0.0459539 0.0509499 0)
(-0.0256194 0.0804977 0)
(-0.0746708 0.0761503 0)
(-0.120662 0.0716529 0)
(-0.161605 0.0615907 0)
(-0.193675 0.0507715 0)
(-0.218126 0.0375349 0)
(-0.235908 0.0240898 0)
(-0.244684 0.0123185 0)
(-0.248624 0.00204971 0)
(-0.2443 -0.00497543 0)
(-0.240455 -0.0125952 0)
(-0.230651 -0.0157245 0)
(-0.221457 -0.0243762 0)
(-0.204167 -0.0330892 0)
(-0.183391 -0.0456664 0)
(-0.148516 -0.0604102 0)
(-0.108442 -0.0748798 0)
(-0.0503061 -0.0853555 0)
(0.0081149 -0.0832946 0)
(0.0736081 -0.0687632 0)
(0.121399 0.000155648 0)
(0.0998935 0.051456 0)
(0.0511784 0.102559 0)
(-0.0276949 0.102675 0)
(-0.0769958 0.0977106 0)
(-0.124626 0.0891887 0)
(-0.167518 0.0746313 0)
(-0.202585 0.056802 0)
(-0.229401 0.041557 0)
(-0.245461 0.0265266 0)
(-0.253303 0.0127463 0)
(-0.254146 0.0018038 0)
(-0.248556 -0.00820626 0)
(-0.243021 -0.0145457 0)
(-0.235035 -0.0229442 0)
(-0.228044 -0.029639 0)
(-0.209339 -0.0437472 0)
(-0.190662 -0.0600953 0)
(-0.1531 -0.0811285 0)
(-0.113509 -0.101954 0)
(-0.0487224 -0.117723 0)
(0.0160265 -0.120406 0)
(0.101457 -0.105889 0)
(0.163077 -0.0237868 0)
(0.134403 0.0418856 0)
(0.0751303 0.12184 0)
(-0.0274672 0.129994 0)
(-0.0808182 0.121831 0)
(-0.130987 0.114363 0)
(-0.174367 0.0981192 0)
(-0.207855 0.0801506 0)
(-0.233854 0.0574032 0)
(-0.251468 0.0356466 0)
(-0.257729 0.0159712 0)
(-0.25871 -0.000125265 0)
(-0.25117 -0.0106232 0)
(-0.247561 -0.0188927 0)
(-0.238879 -0.0229724 0)
(-0.231989 -0.0364354 0)
(-0.218991 -0.0507071 0)
(-0.200624 -0.0721024 0)
(-0.165176 -0.0967987 0)
(-0.123937 -0.124024 0)
(-0.0567335 -0.146553 0)
(0.0151884 -0.153872 0)
(0.119966 -0.13796 0)
(0.181428 -0.0141986 0)
(0.164102 0.0938337 0)
(0.0758944 0.202467 0)
(-0.0308911 0.153784 0)
(-0.0839399 0.146612 0)
(-0.136072 0.133661 0)
(-0.182985 0.110998 0)
(-0.221489 0.0850433 0)
(-0.25018 0.062259 0)
(-0.264812 0.0377818 0)
(-0.270159 0.016473 0)
(-0.265698 -0.0011865 0)
(-0.256718 -0.0131269 0)
(-0.249102 -0.0202999 0)
(-0.244813 -0.0302373 0)
(-0.242929 -0.0389962 0)
(-0.229271 -0.0588069 0)
(-0.21275 -0.0855043 0)
(-0.174305 -0.117679 0)
(-0.132871 -0.153168 0)
(-0.0599151 -0.183744 0)
(0.0225344 -0.204199 0)
(0.146612 -0.185154 0)
(0.20796 -0.0460446 0)
(0.205333 0.0906082 0)
(0.125842 0.23376 0)
(-0.0311595 0.184479 0)
(-0.095602 0.171514 0)
(-0.152258 0.161144 0)
(-0.197634 0.138217 0)
(-0.232321 0.1122 0)
(-0.259982 0.0773723 0)
(-0.276349 0.0456025 0)
(-0.277269 0.0156111 0)
(-0.272514 -0.00625389 0)
(-0.259151 -0.0192448 0)
(-0.254907 -0.0242707 0)
(-0.249365 -0.0262319 0)
(-0.248558 -0.0435942 0)
(-0.241566 -0.0649136 0)
(-0.223647 -0.0978621 0)
(-0.190854 -0.134434 0)
(-0.15148 -0.177895 0)
(-0.0836896 -0.220019 0)
(0.00279927 -0.250912 0)
(0.128068 -0.224882 0)
(0.193386 -0.0398889 0)
(0.203781 0.133896 0)
(0.120154 0.36149 0)
(-0.411391 0.188755 0)
(-0.966758 0.12023 0)
(-1.43991 0.0751799 0)
(-1.78852 0.0377304 0)
(-2.02158 0.021294 0)
(-2.1595 -0.00880123 0)
(-2.24693 -0.00584188 0)
(-2.29633 0.0210354 0)
(-2.20755 -0.0347375 0)
(-1.33486 -0.174095 0)
(-0.582714 -0.0972374 0)
(-0.268309 0.0769166 0)
(-0.416269 0.0746093 0)
(-0.582734 -0.0797466 0)
(-0.723019 -0.114672 0)
(-0.699458 -0.000235585 0)
(-0.609876 0.0195993 0)
(-0.51848 -0.0681977 0)
(-0.187949 -0.085451 0)
(-0.301486 0.398724 0)
(-0.83645 0.317945 0)
(-1.28887 0.274087 0)
(-1.60374 0.209843 0)
(-1.8824 0.134625 0)
(-2.11673 0.102602 0)
(-2.18708 0.0642776 0)
(-2.10831 -0.0417385 0)
(-1.37924 -0.370217 0)
(-0.687509 -0.522514 0)
(-0.223431 -0.359071 0)
(0.225605 -0.146407 0)
(0.60576 0.0582505 0)
(0.643067 0.20901 0)
(0.301699 0.167307 0)
(-0.281809 -0.0476232 0)
(-0.421308 -0.0966344 0)
(-0.339566 -0.111219 0)
(-0.13163 -0.215605 0)
(-0.272608 0.666161 0)
(-0.694488 0.538059 0)
(-1.04395 0.401821 0)
(-1.28353 0.28886 0)
(-1.48811 0.24793 0)
(-1.54597 0.163873 0)
(-1.39476 -0.0371405 0)
(-1.09422 -0.333346 0)
(-0.680794 -0.611115 0)
(-0.315445 -0.677494 0)
(-0.19013 -0.486281 0)
(0.196922 -0.27362 0)
(0.535066 -0.104923 0)
(0.628262 0.0562276 0)
(0.656018 0.271686 0)
(0.431592 0.303761 0)
(-0.095607 0.0454176 0)
(0.00411445 -0.192746 0)
(-0.0165907 -0.286032 0)
(-0.220202 0.816872 0)
(-0.531191 0.650318 0)
(-0.76226 0.524126 0)
(-0.827471 0.399114 0)
(-0.729388 0.210488 0)
(-0.165917 -0.0317631 0)
(-0.0839826 -0.0526062 0)
(-0.405763 -0.324163 0)
(-0.382524 -0.707067 0)
(-0.196296 -0.7351 0)
(-0.195752 -0.578288 0)
(0.119178 -0.456741 0)
(0.616029 -0.125759 0)
(0.577655 0.15408 0)
(0.513806 0.254323 0)
(0.519747 0.276127 0)
(0.46402 0.0859898 0)
(0.264732 -0.142746 0)
(0.0987212 -0.220489 0)
(-0.234024 0.980631 0)
(-0.508375 0.764853 0)
(-0.671233 0.528206 0)
(-0.582874 0.28034 0)
(-0.279419 0.0290919 0)
(-0.0486207 -0.056058 0)
(0.00363481 -0.021548 0)
(-0.0112086 -0.218996 0)
(-0.199479 -0.699902 0)
(-0.197333 -0.758888 0)
(-0.236141 -0.620153 0)
(-0.0749127 -0.614973 0)
(0.229379 -0.297725 0)
(0.647031 0.103095 0)
(0.492883 0.294746 0)
(0.493801 0.32073 0)
(0.464154 0.156223 0)
(0.316407 -0.0394837 0)
(0.131913 -0.132321 0)
(-0.203086 1.13468 0)
(-0.423651 0.83883 0)
(-0.568508 0.553302 0)
(-0.453548 0.226798 0)
(-0.172033 -0.0442363 0)
(0.014593 -0.159101 0)
(0.052195 -0.0465458 0)
(0.0437857 -0.194504 0)
(-0.0695943 -0.625973 0)
(-0.27356 -0.7211 0)
(-0.267749 -0.632346 0)
(-0.203328 -0.656505 0)
(-0.134883 -0.436974 0)
(0.343923 0.0427778 0)
(0.360301 0.318562 0)
(0.424485 0.289223 0)
(0.376864 0.161448 0)
(0.240157 0.000328277 0)
(0.0810131 -0.0290437 0)
(-0.182935 1.24523 0)
(-0.34568 0.916779 0)
(-0.464866 0.542636 0)
(-0.30729 0.121044 0)
(0.0502544 -0.169488 0)
(0.106138 -0.150941 0)
(0.0999007 -0.0364642 0)
(0.101583 -0.184267 0)
(-0.0293466 -0.565642 0)
(-0.320455 -0.6751 0)
(-0.317957 -0.650165 0)
(-0.308227 -0.670578 0)
(-0.310545 -0.529837 0)
(-0.246225 -0.104426 0)
(-0.0384403 0.260492 0)
(0.239425 0.313925 0)
(0.212037 0.234127 0)
(0.0934564 0.0836586 0)
(0.0523321 0.00303088 0)
(-0.127676 1.36069 0)
(-0.240759 0.96324 0)
(-0.169906 0.525371 0)
(0.0949683 0.00668297 0)
(0.318337 -0.23279 0)
(0.14247 -0.177486 0)
(0.148237 -0.0454457 0)
(0.0856894 -0.136913 0)
(-0.100663 -0.445732 0)
(-0.340818 -0.597271 0)
(-0.397416 -0.638241 0)
(-0.417398 -0.6601 0)
(-0.490501 -0.463583 0)
(-0.700872 -0.0725167 0)
(-0.632088 0.110736 0)
(-0.259211 0.180832 0)
(-0.12879 0.223027 0)
(-0.148432 0.0711569 0)
(-0.0726736 0.0346943 0)
(-0.0350644 0.229594 0)
(-0.091714 0.221762 0)
(-0.153097 0.193914 0)
(-0.212804 0.154568 0)
(-0.262854 0.115865 0)
(-0.297744 0.0863485 0)
(-0.304291 0.0457091 0)
(-0.300706 0.0151533 0)
(-0.280283 -0.0118809 0)
(-0.258285 -0.0213297 0)
(-0.24462 -0.0255398 0)
(-0.253349 -0.0366983 0)
(-0.266282 -0.0423648 0)
(-0.258711 -0.0741222 0)
(-0.25248 -0.116123 0)
(-0.221551 -0.16207 0)
(-0.195901 -0.218276 0)
(-0.125868 -0.277524 0)
(-0.0480886 -0.335003 0)
(0.0714681 -0.305564 0)
(0.151683 -0.108736 0)
(0.330238 0.117151 0)
(0.234393 0.39496 0)
(-0.0402671 0.296364 0)
(-0.130788 0.272198 0)
(-0.197599 0.271399 0)
(-0.248577 0.24238 0)
(-0.281072 0.197347 0)
(-0.304721 0.114564 0)
(-0.322498 0.0504812 0)
(-0.309966 -0.0106078 0)
(-0.283196 -0.0455807 0)
(-0.252429 -0.0567812 0)
(-0.263902 -0.0274455 0)
(-0.267972 -0.00192354 0)
(-0.27774 -0.0379477 0)
(-0.313598 -0.0755657 0)
(-0.320503 -0.128116 0)
(-0.314979 -0.181256 0)
(-0.307521 -0.259301 0)
(-0.277897 -0.348575 0)
(-0.238075 -0.418552 0)
(-0.171154 -0.396698 0)
(-0.12351 -0.270332 0)
(0.0339636 0.0562388 0)
(0.091699 0.333778 0)
(-0.0586526 0.400504 0)
(-0.151002 0.379267 0)
(-0.244145 0.312859 0)
(-0.369947 0.237325 0)
(-0.495346 0.172625 0)
(-0.562615 0.127497 0)
(-0.58287 0.0489675 0)
(-0.592696 -0.0206762 0)
(-0.483457 -0.0719576 0)
(-0.28288 -0.0355358 0)
(-0.223744 -0.0127658 0)
(-0.401431 -0.0204836 0)
(-0.468661 0.00208127 0)
(-0.452765 -0.0312111 0)
(-0.46858 -0.115185 0)
(-0.465492 -0.175861 0)
(-0.448714 -0.255543 0)
(-0.41831 -0.347464 0)
(-0.35748 -0.441868 0)
(-0.206069 -0.421539 0)
(-0.198174 -0.31897 0)
(-0.0697717 -0.102229 0)
(0.00263631 0.185491 0)
(-0.0761998 0.50874 0)
(-0.170116 0.458864 0)
(-0.318292 0.492219 0)
(-0.445203 0.49601 0)
(-0.799785 0.394907 0)
(-1.24166 0.200543 0)
(-1.32765 0.0902391 0)
(-1.17714 -0.122725 0)
(-0.957371 -0.347174 0)
(-0.725281 -0.334076 0)
(-0.30053 0.104251 0)
(-0.19945 0.238632 0)
(-0.374605 0.0160175 0)
(-0.528106 -0.0762368 0)
(-0.49861 -0.114993 0)
(-0.509301 -0.20116 0)
(-0.376972 -0.309772 0)
(-0.326179 -0.443472 0)
(-0.00454906 -0.628941 0)
(-0.139629 -0.5447 0)
(-0.30552 -0.399003 0)
(-0.334641 -0.147571 0)
(-0.414722 0.211343 0)
(-0.169484 0.642787 0)
(-0.44966 0.623301 0)
(-0.625319 0.589698 0)
(-0.736201 0.714572 0)
(-1.28533 0.960817 0)
(-1.80899 0.657409 0)
(-1.65104 -0.0185734 0)
(-1.48231 -0.377214 0)
(-1.3215 -0.548326 0)
(-1.21645 -0.663513 0)
(-0.997516 -0.574739 0)
(-0.353592 0.0572745 0)
(-0.179899 0.32194 0)
(0.148727 0.0947452 0)
(0.317901 -0.12354 0)
(0.325368 -0.296178 0)
(0.0378389 -0.427724 0)
(-0.148969 -0.722637 0)
(-0.142988 -0.624091 0)
(-0.334739 -0.16603 0)
(-0.523063 -0.121243 0)
(-0.598352 0.00757861 0)
(-0.687547 0.305875 0)
(-0.453771 1.14541 0)
(-0.86753 0.913867 0)
(-1.00491 0.780451 0)
(-0.984397 1.12643 0)
(-1.50177 1.48663 0)
(-1.67143 0.458559 0)
(-1.62479 -0.225468 0)
(-1.5499 -0.466621 0)
(-1.4599 -0.610022 0)
(-1.43078 -0.679653 0)
(-1.4322 -0.712663 0)
(-1.40953 -0.544343 0)
(-0.962272 -0.469275 0)
(-0.557582 -0.554071 0)
(-0.327284 -0.33312 0)
(-0.193366 0.0892704 0)
(-0.557305 0.157807 0)
(-0.714845 -0.267737 0)
(-1.17451 -0.415128 0)
(-0.70213 -0.164667 0)
(-0.607905 -0.114613 0)
(-0.652186 0.01716 0)
(-0.718939 0.347881 0)
(-0.620708 1.94375 0)
(-0.911431 1.18125 0)
(-0.976373 0.721235 0)
(-1.12392 1.26491 0)
(-1.36687 1.72725 0)
(-1.45471 0.902754 0)
(-1.53833 -0.136911 0)
(-1.49476 -0.563398 0)
(-1.47094 -0.667987 0)
(-1.46256 -0.687541 0)
(-1.54902 -0.597978 0)
(-1.56831 -0.551102 0)
(-1.49193 -0.541035 0)
(-1.4396 -0.536596 0)
(-1.47307 -0.473411 0)
(-1.30556 -0.0786973 0)
(-1.25308 0.11362 0)
(-1.29047 -0.128215 0)
(-1.19861 -0.614884 0)
(-1.14091 -0.782976 0)
(-0.696794 -0.18466 0)
(-0.678687 0.121209 0)
(-0.636457 0.367563 0)
(-0.607727 2.69154 0)
(-0.6291 1.2654 0)
(-1.07687 0.965906 0)
(-1.48849 1.53664 0)
(-1.56834 1.72163 0)
(-1.41924 0.622122 0)
(-1.47759 -0.19274 0)
(-1.56064 -0.458956 0)
(-1.58866 -0.645575 0)
(-1.56445 -0.603861 0)
(-1.54536 -0.58949 0)
(-1.51552 -0.568004 0)
(-1.48125 -0.585544 0)
(-1.4581 -0.562232 0)
(-1.46533 -0.485561 0)
(-1.43874 -0.102206 0)
(-1.23656 0.122943 0)
(-1.03833 -0.338224 0)
(-0.987935 -0.544461 0)
(-1.14264 -0.637677 0)
(-1.26151 -0.534579 0)
(-1.13967 -0.0416606 0)
(-0.793796 0.271357 0)
(-0.60544 3.10678 0)
(-0.194595 1.81598 0)
(-1.48574 1.54272 0)
(-1.57654 1.76492 0)
(-1.7453 1.65043 0)
(-1.50019 0.799261 0)
(-1.69347 -0.0183938 0)
(-1.53428 -0.475708 0)
(-1.57171 -0.689671 0)
(-1.50499 -0.724382 0)
(-1.46907 -0.655097 0)
(-1.40011 -0.615273 0)
(-1.36136 -0.59925 0)
(-1.36375 -0.549917 0)
(-1.35996 -0.484431 0)
(-1.34559 -0.359277 0)
(-1.03313 -0.229102 0)
(-0.897273 -0.387007 0)
(-0.88613 -0.495472 0)
(-0.904602 -0.498583 0)
(-0.990159 -0.308019 0)
(-1.02166 -0.307509 0)
(-0.718307 -0.459735 0)
(-0.560225 3.45435 0)
(-0.366078 2.27378 0)
(-1.46556 2.21893 0)
(-1.51323 1.86375 0)
(-1.60927 1.58975 0)
(-1.19705 0.615565 0)
(-1.08404 -0.182114 0)
(-0.866493 -0.551079 0)
(-0.92278 -0.679059 0)
(-0.940112 -0.698949 0)
(-1.08915 -0.69187 0)
(-1.14228 -0.667675 0)
(-1.2172 -0.62566 0)
(-1.20575 -0.562256 0)
(-1.15736 -0.503823 0)
(-1.16291 -0.415351 0)
(-1.03881 -0.385562 0)
(-0.915323 -0.481143 0)
(-0.871445 -0.54007 0)
(-0.842619 -0.535924 0)
(-0.789605 -0.39387 0)
(-0.712908 -0.309588 0)
(-0.702071 -0.447341 0)
(-0.466526 4.02054 0)
(-0.563748 2.74311 0)
(-1.27792 2.67584 0)
(-1.26359 1.9304 0)
(-1.28537 1.30795 0)
(-0.690877 0.299602 0)
(-0.631456 -0.373496 0)
(-0.441718 -0.623785 0)
(-0.531209 -0.637145 0)
(-0.506019 -0.546439 0)
(-0.616631 -0.469736 0)
(-0.636789 -0.481897 0)
(-0.730707 -0.543118 0)
(-0.818212 -0.60564 0)
(-0.938633 -0.526356 0)
(-0.975861 -0.473083 0)
(-0.949928 -0.461476 0)
(-0.891999 -0.551832 0)
(-0.824808 -0.569262 0)
(-0.777467 -0.577163 0)
(-0.73126 -0.442934 0)
(-0.723278 -0.3882 0)
(-0.657368 -0.51832 0)
(-0.371335 4.49383 0)
(-0.594782 3.11856 0)
(-1.03139 2.89748 0)
(-0.809565 1.90027 0)
(-0.747172 0.9864 0)
(-0.156531 -0.0132588 0)
(-0.225645 -0.455551 0)
(-0.0840208 -0.631482 0)
(-0.197245 -0.623684 0)
(-0.144794 -0.59965 0)
(-0.222267 -0.561408 0)
(-0.238426 -0.545257 0)
(-0.341389 -0.445456 0)
(-0.400973 -0.355402 0)
(-0.445922 -0.357366 0)
(-0.461016 -0.405748 0)
(-0.569999 -0.468026 0)
(-0.713941 -0.608826 0)
(-0.790556 -0.653921 0)
(-0.774965 -0.630824 0)
(-0.760889 -0.447373 0)
(-0.753109 -0.383936 0)
(-0.714936 -0.565366 0)
(-0.427437 4.97541 0)
(-0.554727 3.41161 0)
(-0.84527 2.87395 0)
(-0.36755 1.66198 0)
(-0.149271 0.637959 0)
(0.264591 -0.206796 0)
(0.158261 -0.465078 0)
(0.231425 -0.639775 0)
(0.113323 -0.593136 0)
(0.099999 -0.515095 0)
(-0.0197146 -0.388463 0)
(-0.0978829 -0.356332 0)
(-0.195002 -0.3862 0)
(-0.182044 -0.487768 0)
(-0.196289 -0.463511 0)
(-0.205587 -0.342353 0)
(-0.230483 -0.208694 0)
(-0.29281 -0.32874 0)
(-0.390941 -0.522173 0)
(-0.483722 -0.596923 0)
(-0.587597 -0.479571 0)
(-0.5342 -0.415056 0)
(-0.532452 -0.699606 0)
(-0.294708 5.47467 0)
(-0.354798 3.5525 0)
(-0.590227 2.6939 0)
(0.0780142 1.22084 0)
(0.317078 0.328955 0)
(0.557362 -0.299118 0)
(0.45862 -0.442862 0)
(0.45075 -0.56687 0)
(0.304539 -0.501828 0)
(0.241267 -0.451941 0)
(0.135012 -0.367115 0)
(0.0977341 -0.361386 0)
(0.0329237 -0.365553 0)
(-0.0380664 -0.354079 0)
(-0.145949 -0.338803 0)
(-0.196806 -0.371211 0)
(-0.193747 -0.383591 0)
(-0.161003 -0.438394 0)
(-0.226952 -0.460529 0)
(-0.334907 -0.42442 0)
(-0.424578 -0.402972 0)
(-0.411412 -0.44315 0)
(-0.427632 -0.534131 0)
(0.0419658 5.62296 0)
(0.0614072 3.7198 0)
(0.0209334 2.42118 0)
(0.674266 0.763469 0)
(0.755656 0.136782 0)
(0.859452 -0.333586 0)
(0.71964 -0.375947 0)
(0.636142 -0.473154 0)
(0.463715 -0.396232 0)
(0.363045 -0.339008 0)
(0.242043 -0.253436 0)
(0.177254 -0.249408 0)
(0.084192 -0.254727 0)
(0.0181559 -0.302332 0)
(-0.0406197 -0.306685 0)
(-0.0926998 -0.291163 0)
(-0.153939 -0.248427 0)
(-0.200695 -0.294257 0)
(-0.286712 -0.355696 0)
(-0.342511 -0.395914 0)
(-0.393073 -0.408634 0)
(-0.423995 -0.406718 0)
(-0.507855 -0.481056 0)
(0.358181 5.3633 0)
(0.564737 3.58399 0)
(0.998004 2.07363 0)
(1.23961 0.503543 0)
(1.1859 0.120881 0)
(1.07947 -0.239961 0)
(0.875337 -0.234706 0)
(0.702694 -0.294498 0)
(0.495162 -0.234575 0)
(0.364237 -0.220224 0)
(0.247561 -0.183751 0)
(0.177324 -0.197344 0)
(0.0991238 -0.208398 0)
(0.0299377 -0.226293 0)
(-0.0544035 -0.229605 0)
(-0.123023 -0.255287 0)
(-0.169338 -0.276065 0)
(-0.194214 -0.301311 0)
(-0.250311 -0.317128 0)
(-0.307844 -0.313339 0)
(-0.378868 -0.320734 0)
(-0.439284 -0.327279 0)
(-0.506233 -0.354823 0)
(0.713609 4.68321 0)
(1.04935 3.11327 0)
(1.71669 1.72205 0)
(1.51952 0.608982 0)
(1.39134 0.273871 0)
(1.13906 -0.00323691 0)
(0.894378 -0.0103367 0)
(0.69075 -0.0831541 0)
(0.503384 -0.0641754 0)
(0.376918 -0.0861087 0)
(0.26219 -0.0712838 0)
(0.180792 -0.0971602 0)
(0.091811 -0.110453 0)
(0.0158756 -0.145327 0)
(-0.0578521 -0.155789 0)
(-0.114945 -0.173778 0)
(-0.179443 -0.179689 0)
(-0.234354 -0.211928 0)
(-0.300861 -0.245636 0)
(-0.352547 -0.266802 0)
(-0.403909 -0.28023 0)
(-0.445107 -0.278912 0)
(-0.499683 -0.286076 0)
(0.885016 3.58634 0)
(1.24087 2.59289 0)
(1.73465 1.59726 0)
(1.45276 0.83321 0)
(1.31224 0.491434 0)
(1.01782 0.269548 0)
(0.810224 0.206962 0)
(0.61509 0.10692 0)
(0.458786 0.0762492 0)
(0.332701 0.0278365 0)
(0.227152 0.0109541 0)
(0.143383 -0.0224922 0)
(0.062945 -0.0441486 0)
(-0.00853778 -0.0736413 0)
(-0.0806327 -0.0989524 0)
(-0.140119 -0.131364 0)
(-0.196307 -0.156251 0)
(-0.239523 -0.177334 0)
(-0.293912 -0.197202 0)
(-0.345755 -0.207691 0)
(-0.400151 -0.225675 0)
(-0.447978 -0.230147 0)
(-0.489962 -0.238957 0)
(0.601451 2.54545 0)
(0.998018 2.21939 0)
(1.33772 1.52544 0)
(1.17324 1.02577 0)
(1.06399 0.708838 0)
(0.839099 0.504265 0)
(0.695229 0.388717 0)
(0.539522 0.273393 0)
(0.413793 0.214741 0)
(0.299472 0.148908 0)
(0.199406 0.115226 0)
(0.112408 0.0694552 0)
(0.0299726 0.0394331 0)
(-0.0423394 9.66162e-05 0)
(-0.111787 -0.0257901 0)
(-0.173081 -0.0568439 0)
(-0.235596 -0.0817777 0)
(-0.288524 -0.113802 0)
(-0.341468 -0.141209 0)
(-0.385708 -0.16081 0)
(-0.427582 -0.179666 0)
(-0.462582 -0.189791 0)
(-0.495486 -0.195763 0)
(0.270478 1.97612 0)
(0.633798 1.85621 0)
(0.869133 1.42885 0)
(0.838083 1.1012 0)
(0.791706 0.827524 0)
(0.658224 0.640841 0)
(0.562067 0.506501 0)
(0.439105 0.393 0)
(0.338361 0.316063 0)
(0.236182 0.246376 0)
(0.148553 0.198131 0)
(0.0666202 0.150127 0)
(-0.00768932 0.111053 0)
(-0.0763338 0.0705378 0)
(-0.141652 0.0325536 0)
(-0.19902 -0.00559769 0)
(-0.253758 -0.0397261 0)
(-0.301624 -0.0696974 0)
(-0.349661 -0.0983321 0)
(-0.391222 -0.120041 0)
(-0.42926 -0.146615 0)
(-0.463545 -0.161394 0)
(-0.490688 -0.176047 0)
(0.132664 1.64245 0)
(0.402382 1.60846 0)
(0.569511 1.32531 0)
(0.60042 1.10229 0)
(0.589369 0.890916 0)
(0.511826 0.735465 0)
(0.443855 0.607143 0)
(0.349885 0.499005 0)
(0.266578 0.416129 0)
(0.177486 0.340339 0)
(0.0967608 0.283291 0)
(0.0192662 0.226922 0)
(-0.0533714 0.181122 0)
(-0.120193 0.134914 0)
(-0.183415 0.0958281 0)
(-0.241581 0.0557435 0)
(-0.297124 0.0198901 0)
(-0.345247 -0.0178813 0)
(-0.389253 -0.05251 0)
(-0.425957 -0.0817159 0)
(-0.459621 -0.108081 0)
(-0.487295 -0.129216 0)
(-0.514759 -0.143567 0)
(0.070089 1.43911 0)
(0.261313 1.41725 0)
(0.381129 1.23361 0)
(0.419968 1.0807 0)
(0.42097 0.917472 0)
(0.374449 0.787663 0)
(0.324891 0.669419 0)
(0.252598 0.572692 0)
(0.184604 0.489342 0)
(0.109204 0.418761 0)
(0.0387032 0.357283 0)
(-0.0314354 0.302512 0)
(-0.0983607 0.25158 0)
(-0.161933 0.202472 0)
(-0.222204 0.155154 0)
(-0.277781 0.109701 0)
(-0.329889 0.0652539 0)
(-0.376887 0.0237771 0)
(-0.421372 -0.0161757 0)
(-0.462244 -0.048602 0)
(-0.499268 -0.0836937 0)
(-0.538484 -0.105605 0)
(-0.573215 -0.128936 0)
(0.0443747 1.31012 0)
(0.174166 1.2927 0)
(0.254715 1.16722 0)
(0.289672 1.06097 0)
(0.294421 0.937017 0)
(0.265095 0.831594 0)
(0.225932 0.728738 0)
(0.167719 0.639874 0)
(0.107757 0.558843 0)
(0.0408722 0.486884 0)
(-0.0252599 0.42319 0)
(-0.0913375 0.364493 0)
(-0.155022 0.310929 0)
(-0.215469 0.259038 0)
(-0.273203 0.211032 0)
(-0.327187 0.16349 0)
(-0.378236 0.118459 0)
(-0.425793 0.0734009 0)
(-0.472342 0.0324897 0)
(-0.518187 -0.00434889 0)
(-0.567598 -0.0319363 0)
(-0.616819 -0.055919 0)
(-0.665763 -0.0750178 0)
(0.0283761 1.22013 0)
(0.115256 1.20579 0)
(0.16574 1.11876 0)
(0.189444 1.0409 0)
(0.190646 0.94292 0)
(0.168239 0.856942 0)
(0.135306 0.767835 0)
(0.0881238 0.692296 0)
(0.0362961 0.617298 0)
(-0.0219431 0.553442 0)
(-0.082243 0.490668 0)
(-0.14339 0.433899 0)
(-0.204081 0.37698 0)
(-0.262752 0.322163 0)
(-0.319813 0.268216 0)
(-0.374119 0.216056 0)
(-0.427275 0.165153 0)
(-0.479551 0.11904 0)
(-0.535643 0.0774332 0)
(-0.596144 0.0477929 0)
(-0.660394 0.016131 0)
(-0.718742 -0.00671491 0)
(-0.750198 -0.0508016 0)
(0.0146625 1.16565 0)
(0.0711533 1.15344 0)
(0.10021 1.09285 0)
(0.114634 1.03526 0)
(0.110405 0.958227 0)
(0.0892033 0.886805 0)
(0.0569389 0.808743 0)
(0.0129567 0.739064 0)
(-0.036118 0.668676 0)
(-0.0920137 0.605693 0)
(-0.148808 0.544364 0)
(-0.207662 0.486534 0)
(-0.265588 0.429969 0)
(-0.323402 0.374797 0)
(-0.380667 0.322087 0)
(-0.437932 0.270881 0)
(-0.496452 0.223788 0)
(-0.560327 0.181628 0)
(-0.629582 0.149422 0)
(-0.701194 0.120042 0)
(-0.760299 0.0912301 0)
(-0.787882 0.0337325 0)
(-0.793469 -0.0339021 0)
(0.00457174 1.13429 0)
(0.0367629 1.11989 0)
(0.0485941 1.07557 0)
(0.0538409 1.03079 0)
(0.0438335 0.968918 0)
(0.0228019 0.910965 0)
(-0.00851671 0.844901 0)
(-0.0489025 0.786283 0)
(-0.095382 0.723255 0)
(-0.147895 0.667286 0)
(-0.202929 0.607427 0)
(-0.259827 0.551914 0)
(-0.317717 0.493993 0)
(-0.376593 0.438518 0)
(-0.437713 0.384082 0)
(-0.50171 0.333017 0)
(-0.571738 0.288764 0)
(-0.647679 0.253348 0)
(-0.727016 0.219226 0)
(-0.788178 0.179712 0)
(-0.809646 0.103731 0)
(-0.811692 0.0264837 0)
(-0.8145 -0.0406353 0)
(-0.000913786 1.1239 0)
(0.0118686 1.10875 0)
(0.00898701 1.07566 0)
(0.00439478 1.03976 0)
(-0.0130905 0.989331 0)
(-0.0382233 0.939194 0)
(-0.0724264 0.880564 0)
(-0.114422 0.826121 0)
(-0.160989 0.767778 0)
(-0.213695 0.713456 0)
(-0.267141 0.656361 0)
(-0.325214 0.601444 0)
(-0.383601 0.546679 0)
(-0.446804 0.494809 0)
(-0.51292 0.447226 0)
(-0.586942 0.405058 0)
(-0.666574 0.370231 0)
(-0.748931 0.337007 0)
(-0.809594 0.290872 0)
(-0.823193 0.202455 0)
(-0.822982 0.114757 0)
(-0.822334 0.0384068 0)
(-0.826221 -0.0237524 0)
(-0.00414773 1.12352 0)
(-0.00659532 1.10997 0)
(-0.0201892 1.08326 0)
(-0.0339358 1.05297 0)
(-0.0571007 1.01192 0)
(-0.085158 0.970662 0)
(-0.121211 0.921704 0)
(-0.163475 0.875473 0)
(-0.21078 0.823319 0)
(-0.262776 0.774298 0)
(-0.317265 0.719936 0)
(-0.376211 0.669422 0)
(-0.437628 0.616867 0)
(-0.506165 0.56897 0)
(-0.580441 0.525631 0)
(-0.666092 0.487727 0)
(-0.752896 0.451785 0)
(-0.818805 0.397488 0)
(-0.83078 0.293952 0)
(-0.830528 0.193199 0)
(-0.830368 0.103278 0)
(-0.830278 0.0294935 0)
(-0.832947 -0.0282708 0)
(-0.00821864 1.13463 0)
(-0.0211839 1.12484 0)
(-0.0439591 1.10328 0)
(-0.066834 1.07686 0)
(-0.0980635 1.04094 0)
(-0.13253 1.00361 0)
(-0.173892 0.959323 0)
(-0.220079 0.916048 0)
(-0.270033 0.867499 0)
(-0.325659 0.820232 0)
(-0.383044 0.770111 0)
(-0.448229 0.721983 0)
(-0.515447 0.676802 0)
(-0.591876 0.637902 0)
(-0.674327 0.607559 0)
(-0.760658 0.578006 0)
(-0.827297 0.523871 0)
(-0.838292 0.414869 0)
(-0.834843 0.302707 0)
(-0.834033 0.202017 0)
(-0.828718 0.114521 0)
(-0.827411 0.0410834 0)
(-0.817688 -0.0213555 0)
(-0.0125204 1.15298 0)
(-0.0344969 1.1457 0)
(-0.0634228 1.12901 0)
(-0.0926187 1.1071 0)
(-0.128213 1.07784 0)
(-0.166462 1.04668 0)
(-0.210357 1.00967 0)
(-0.258059 0.972045 0)
(-0.309756 0.929546 0)
(-0.366224 0.888047 0)
(-0.42705 0.843446 0)
(-0.495073 0.802849 0)
(-0.569559 0.761836 0)
(-0.655654 0.728895 0)
(-0.744771 0.6957 0)
(-0.817911 0.641509 0)
(-0.835134 0.530064 0)
(-0.830359 0.404916 0)
(-0.832602 0.28991 0)
(-0.825578 0.186651 0)
(-0.821495 0.0966705 0)
(-0.803988 0.0179328 0)
(-0.783048 -0.0543409 0)
(-0.0168051 1.18219 0)
(-0.0477155 1.17631 0)
(-0.0842337 1.1621 0)
(-0.121026 1.14229 0)
(-0.16389 1.11556 0)
(-0.208715 1.08642 0)
(-0.25892 1.05167 0)
(-0.311839 1.016 0)
(-0.368749 0.976307 0)
(-0.430509 0.937888 0)
(-0.495516 0.899508 0)
(-0.570309 0.864733 0)
(-0.647979 0.837864 0)
(-0.736239 0.813652 0)
(-0.81305 0.770386 0)
(-0.839886 0.668873 0)
(-0.831856 0.536087 0)
(-0.831366 0.412739 0)
(-0.819178 0.297962 0)
(-0.807217 0.191257 0)
(-0.783717 0.0931661 0)
(-0.756121 0.00282044 0)
(-0.719251 -0.0773694 0)
(-0.0198003 1.21734 0)
(-0.0574526 1.21297 0)
(-0.0985368 1.20223 0)
(-0.140043 1.18663 0)
(-0.186039 1.16561 0)
(-0.234223 1.14179 0)
(-0.286951 1.11315 0)
(-0.342918 1.0823 0)
(-0.403356 1.04891 0)
(-0.468375 1.01567 0)
(-0.539513 0.98424 0)
(-0.616862 0.956643 0)
(-0.705238 0.929067 0)
(-0.789542 0.894818 0)
(-0.830342 0.800702 0)
(-0.823967 0.659855 0)
(-0.82145 0.522017 0)
(-0.811147 0.391339 0)
(-0.794809 0.26551 0)
(-0.771152 0.150159 0)
(-0.741038 0.044927 0)
(-0.705546 -0.0475958 0)
(-0.667153 -0.13015 0)
(-0.0239283 1.26048 0)
(-0.0701467 1.2561 0)
(-0.119305 1.24576 0)
(-0.168662 1.23078 0)
(-0.22227 1.21073 0)
(-0.277219 1.18815 0)
(-0.336829 1.16114 0)
(-0.398342 1.13298 0)
(-0.465219 1.10234 0)
(-0.534807 1.07431 0)
(-0.610472 1.04856 0)
(-0.692389 1.03038 0)
(-0.773708 1.01094 0)
(-0.826359 0.939494 0)
(-0.82213 0.804061 0)
(-0.813498 0.66056 0)
(-0.800468 0.52315 0)
(-0.777438 0.386736 0)
(-0.750472 0.25837 0)
(-0.717394 0.138068 0)
(-0.682561 0.0280153 0)
(-0.642595 -0.0707171 0)
(-0.600858 -0.159916 0)
(-0.0257695 1.31114 0)
(-0.0764455 1.30815 0)
(-0.129101 1.30067 0)
(-0.182371 1.28959 0)
(-0.238709 1.27443 0)
(-0.296935 1.25672 0)
(-0.359098 1.235 0)
(-0.424607 1.21148 0)
(-0.495038 1.18653 0)
(-0.57029 1.16219 0)
(-0.650006 1.14331 0)
(-0.734668 1.12154 0)
(-0.803249 1.06471 0)
(-0.813306 0.943394 0)
(-0.801285 0.788519 0)
(-0.790231 0.637459 0)
(-0.768016 0.485474 0)
(-0.740127 0.34007 0)
(-0.708389 0.204376 0)
(-0.672112 0.0807254 0)
(-0.632976 -0.0311111 0)
(-0.590991 -0.130742 0)
(-0.546316 -0.220185 0)
(-0.0310588 1.3639 0)
(-0.0920053 1.36063 0)
(-0.153832 1.35275 0)
(-0.215154 1.34126 0)
(-0.279505 1.326 0)
(-0.344735 1.30906 0)
(-0.413399 1.28914 0)
(-0.483525 1.26915 0)
(-0.559235 1.24805 0)
(-0.635539 1.22928 0)
(-0.714466 1.21265 0)
(-0.784019 1.18331 0)
(-0.812639 1.08915 0)
(-0.799269 0.93703 0)
(-0.781025 0.780932 0)
(-0.756171 0.627483 0)
(-0.720981 0.473691 0)
(-0.686352 0.32781 0)
(-0.646278 0.191214 0)
(-0.607775 0.0634717 0)
(-0.565156 -0.0523792 0)
(-0.522526 -0.156755 0)
(-0.47839 -0.251289 0)
(-0.0315837 1.43439 0)
(-0.0943617 1.43127 0)
(-0.158012 1.42432 0)
(-0.222728 1.41597 0)
(-0.289513 1.40507 0)
(-0.357788 1.39184 0)
(-0.429116 1.37536 0)
(-0.502848 1.35892 0)
(-0.580735 1.34061 0)
(-0.660736 1.31926 0)
(-0.739529 1.2941 0)
(-0.795002 1.22164 0)
(-0.790616 1.08087 0)
(-0.772699 0.91199 0)
(-0.750628 0.745018 0)
(-0.71823 0.57632 0)
(-0.682074 0.414294 0)
(-0.644484 0.263596 0)
(-0.605312 0.124077 0)
(-0.562492 -0.00231612 0)
(-0.521285 -0.118017 0)
(-0.474162 -0.219297 0)
(-0.431109 -0.312934 0)
(-0.0376936 1.49028 0)
(-0.112232 1.4875 0)
(-0.187636 1.48132 0)
(-0.262152 1.47271 0)
(-0.33728 1.4607 0)
(-0.413352 1.44816 0)
(-0.490418 1.43351 0)
(-0.568224 1.42015 0)
(-0.646844 1.40503 0)
(-0.719479 1.38726 0)
(-0.782395 1.34609 0)
(-0.794445 1.23282 0)
(-0.7756 1.06622 0)
(-0.744731 0.896692 0)
(-0.711557 0.726686 0)
(-0.667105 0.559597 0)
(-0.628349 0.400961 0)
(-0.582414 0.252143 0)
(-0.542273 0.110483 0)
(-0.494981 -0.0194509 0)
(-0.455128 -0.139659 0)
(-0.409612 -0.245945 0)
(-0.3678 -0.34076 0)
(-0.0374759 1.58627 0)
(-0.111252 1.58335 0)
(-0.186599 1.57658 0)
(-0.261642 1.56815 0)
(-0.339003 1.55922 0)
(-0.417007 1.54797 0)
(-0.496331 1.53335 0)
(-0.577053 1.51827 0)
(-0.655245 1.49504 0)
(-0.729946 1.45725 0)
(-0.778453 1.37153 0)
(-0.766524 1.21631 0)
(-0.743971 1.03114 0)
(-0.711126 0.847448 0)
(-0.673313 0.666092 0)
(-0.630916 0.491328 0)
(-0.590792 0.327505 0)
(-0.546652 0.175226 0)
(-0.505243 0.0343394 0)
(-0.45976 -0.0917056 0)
(-0.416121 -0.205534 0)
(-0.372921 -0.308744 0)
(-0.332004 -0.401552 0)
(-0.0444119 1.63681 0)
(-0.132604 1.63447 0)
(-0.220849 1.62933 0)
(-0.308599 1.62254 0)
(-0.395172 1.6131 0)
(-0.480722 1.60276 0)
(-0.565008 1.59085 0)
(-0.646096 1.57693 0)
(-0.71733 1.55554 0)
(-0.773227 1.50924 0)
(-0.782717 1.38052 0)
(-0.754706 1.19729 0)
(-0.716669 1.01075 0)
(-0.674374 0.826224 0)
(-0.62762 0.647522 0)
(-0.58084 0.478257 0)
(-0.534324 0.318395 0)
(-0.486234 0.168161 0)
(-0.44093 0.0253437 0)
(-0.398221 -0.1071 0)
(-0.358723 -0.224936 0)
(-0.317555 -0.328647 0)
(-0.281619 -0.423563 0)
(-0.0435405 1.76965 0)
(-0.129093 1.76637 0)
(-0.215863 1.75913 0)
(-0.301095 1.74924 0)
(-0.388752 1.7383 0)
(-0.475103 1.72427 0)
(-0.560355 1.70465 0)
(-0.640774 1.67575 0)
(-0.714305 1.6263 0)
(-0.759543 1.52548 0)
(-0.745456 1.35481 0)
(-0.720714 1.14991 0)
(-0.683881 0.94991 0)
(-0.643655 0.756535 0)
(-0.598033 0.570295 0)
(-0.551967 0.395272 0)
(-0.505207 0.230025 0)
(-0.459377 0.078898 0)
(-0.413815 -0.0564944 0)
(-0.369915 -0.176647 0)
(-0.333154 -0.28885 0)
(-0.293305 -0.38852 0)
(-0.260284 -0.481251 0)
(-0.0508912 1.80081 0)