/*--------------------------------*- C++ -*----------------------------------*\
| =========                 |                                                 |
| \\      /  F ield         | OpenFOAM: The Open Source CFD Toolbox           |
|  \\    /   O peration     | Version:  2012                                  |
|   \\  /    A nd           | Website:  www.openfoam.com                      |
|    \\/     M anipulation  |                                                 |
\*---------------------------------------------------------------------------*/
FoamFile
{
    version     2.0;
    format      ascii;
    class       volVectorField;
    location    "0.87";
    object      Uc;
}
// * * * * * * * * * * * * * * * * * * * * * * * * * * * * * * * * * * * * * //

dimensions      [0 1 -1 0 0 0 0];


internalField   nonuniform List<vector> 
2268
(
(-0.0235559 0.0111323 0)
(-0.0695764 0.0106166 0)
(-0.112916 0.00986539 0)
(-0.151569 0.00840181 0)
(-0.183501 0.00668876 0)
(-0.208098 0.00493576 0)
(-0.225249 0.00316968 0)
(-0.235315 0.0015872 0)
(-0.239676 0.000474194 0)
(-0.239343 -0.000631913 0)
(-0.234289 -0.00175665 0)
(-0.225117 -0.00257771 0)
(-0.212143 -0.00355359 0)
(-0.194181 -0.0049354 0)
(-0.16985 -0.00656307 0)
(-0.137458 -0.00874502 0)
(-0.0964271 -0.010646 0)
(-0.0487635 -0.0118795 0)
(0.000760385 -0.0115251 0)
(0.0446933 -0.0092372 0)
(0.065256 -0.000480549 0)
(0.0588044 0.00352953 0)
(0.025668 0.0121305 0)
(-0.0238388 0.0335307 0)
(-0.0705213 0.0320291 0)
(-0.11443 0.0296861 0)
(-0.153227 0.0251831 0)
(-0.184832 0.0199346 0)
(-0.208985 0.014729 0)
(-0.226039 0.0095415 0)
(-0.236346 0.00484283 0)
(-0.240732 0.0013531 0)
(-0.240041 -0.00199522 0)
(-0.234831 -0.00524399 0)
(-0.225836 -0.00767585 0)
(-0.213271 -0.010525 0)
(-0.195731 -0.0147422 0)
(-0.171415 -0.0197458 0)
(-0.13879 -0.0262887 0)
(-0.0973329 -0.0320859 0)
(-0.0488553 -0.0358752 0)
(0.00169817 -0.0348252 0)
(0.0465063 -0.0278755 0)
(0.0680988 -0.00176443 0)
(0.0600057 0.0116872 0)
(0.0251063 0.0361261 0)
(-0.0243817 0.0563193 0)
(-0.0716364 0.0536344 0)
(-0.11582 0.0497124 0)
(-0.155424 0.0422082 0)
(-0.188404 0.0334323 0)
(-0.213674 0.0245885 0)
(-0.230891 0.015878 0)
(-0.240721 0.00802249 0)
(-0.244143 0.00186412 0)
(-0.242316 -0.00369675 0)
(-0.236649 -0.00868256 0)
(-0.228146 -0.0125069 0)
(-0.216007 -0.0173689 0)
(-0.198464 -0.0244785 0)
(-0.173986 -0.0330686 0)
(-0.140892 -0.0440243 0)
(-0.0983176 -0.054063 0)
(-0.0472483 -0.0609433 0)
(0.00761666 -0.059577 0)
(0.0595651 -0.0488501 0)
(0.0870802 -0.00399771 0)
(0.0753566 0.0232857 0)
(0.0303037 0.0623125 0)
(-0.0250649 0.0796874 0)
(-0.0738541 0.075656 0)
(-0.119346 0.0700704 0)
(-0.159314 0.0594554 0)
(-0.191707 0.0470801 0)
(-0.216403 0.0345547 0)
(-0.233613 0.0221812 0)
(-0.243453 0.0110153 0)
(-0.246544 0.00194959 0)
(-0.244418 -0.00565076 0)
(-0.238969 -0.0119819 0)
(-0.230808 -0.0170825 0)
(-0.219441 -0.0239019 0)
(-0.203299 -0.0338653 0)
(-0.179875 -0.0463195 0)
(-0.147224 -0.0618442 0)
(-0.10394 -0.0768192 0)
(-0.0502497 -0.0876955 0)
(0.0098716 -0.0871664 0)
(0.0691543 -0.0738278 0)
(0.104048 -0.00851415 0)
(0.0930428 0.0385438 0)
(0.0377531 0.0944756 0)
(-0.0261643 0.103898 0)
(-0.0765206 0.098301 0)
(-0.123383 0.0910713 0)
(-0.165475 0.0772353 0)
(-0.200456 0.0611408 0)
(-0.226649 0.0445437 0)
(-0.243361 0.0282237 0)
(-0.251538 0.0134878 0)
(-0.252524 0.00140363 0)
(-0.248573 -0.00797678 0)
(-0.24241 -0.0151435 0)
(-0.235295 -0.0211399 0)
(-0.22512 -0.0300252 0)
(-0.20935 -0.0428237 0)
(-0.18595 -0.05949 0)
(-0.152599 -0.0798654 0)
(-0.107226 -0.100697 0)
(-0.0487439 -0.11683 0)
(0.021182 -0.119492 0)
(0.095487 -0.104635 0)
(0.140475 -0.0154584 0)
(0.126681 0.0572081 0)
(0.052362 0.137063 0)
(-0.0270591 0.129051 0)
(-0.079953 0.121943 0)
(-0.12922 0.112859 0)
(-0.171802 0.0954637 0)
(-0.205905 0.0755608 0)
(-0.231695 0.0546906 0)
(-0.24858 0.0339547 0)
(-0.256395 0.0153145 0)
(-0.25657 0.000125446 0)
(-0.252157 -0.0106515 0)
(-0.246303 -0.0181478 0)
(-0.239336 -0.0247906 0)
(-0.230473 -0.0353717 0)
(-0.21765 -0.05099 0)
(-0.196362 -0.0724434 0)
(-0.163734 -0.0980927 0)
(-0.117457 -0.125783 0)
(-0.0555678 -0.14863 0)
(0.023399 -0.158057 0)
(0.10911 -0.141692 0)
(0.161685 -0.0245084 0)
(0.146303 0.0800464 0)
(0.0599669 0.190149 0)
(-0.0286932 0.155399 0)
(-0.0836325 0.146557 0)
(-0.134689 0.135658 0)
(-0.180766 0.114565 0)
(-0.218956 0.0906247 0)
(-0.246587 0.0648736 0)
(-0.262443 0.0392443 0)
(-0.267702 0.0162035 0)
(-0.264562 -0.00216435 0)
(-0.257072 -0.013987 0)
(-0.24994 -0.0209496 0)
(-0.245436 -0.0274098 0)
(-0.239988 -0.0395157 0)
(-0.228559 -0.0583077 0)
(-0.207274 -0.085245 0)
(-0.173563 -0.116642 0)
(-0.125008 -0.15205 0)
(-0.0575525 -0.18349 0)
(0.032936 -0.20328 0)
(0.130937 -0.18329 0)
(0.191895 -0.0365656 0)
(0.185992 0.102162 0)
(0.082782 0.257611 0)
(-0.0316679 0.183925 0)
(-0.0935543 0.173241 0)
(-0.149342 0.159467 0)
(-0.194837 0.134032 0)
(-0.230462 0.106042 0)
(-0.257087 0.0750975 0)
(-0.272425 0.0437626 0)
(-0.275853 0.0157904 0)
(-0.270362 -0.00583003 0)
(-0.261446 -0.0180748 0)
(-0.254605 -0.0234655 0)
(-0.250563 -0.0289321 0)
(-0.247026 -0.0422397 0)
(-0.238829 -0.0648591 0)
(-0.219935 -0.0976816 0)
(-0.189212 -0.134657 0)
(-0.144386 -0.178166 0)
(-0.0790233 -0.220143 0)
(0.012494 -0.252642 0)
(0.113088 -0.227781 0)
(0.179571 -0.0523012 0)
(0.180104 0.120436 0)
(0.080933 0.334982 0)
(-0.344102 0.14636 0)
(-0.945589 0.109412 0)
(-1.40866 0.0873318 0)
(-1.7599 0.0618444 0)
(-1.99813 0.0394239 0)
(-2.14699 0.0238706 0)
(-2.23718 0.0145001 0)
(-2.25949 -0.00480383 0)
(-2.01168 -0.099266 0)
(-1.36757 -0.17426 0)
(-0.691572 -0.113803 0)
(-0.383222 -0.0172213 0)
(-0.420951 0.0332301 0)
(-0.576026 0.0327359 0)
(-0.682233 0.0124426 0)
(-0.682923 -0.0121332 0)
(-0.609375 -0.0191397 0)
(-0.458903 -0.0448469 0)
(-0.176724 -0.0751673 0)
(-0.283982 0.413517 0)
(-0.815138 0.323865 0)
(-1.2544 0.256269 0)
(-1.59477 0.186643 0)
(-1.87174 0.133641 0)
(-2.07629 0.0800909 0)
(-2.14922 0.0278585 0)
(-1.9405 -0.0970307 0)
(-1.38883 -0.344771 0)
(-0.749317 -0.474141 0)
(-0.22669 -0.32498 0)
(0.208775 -0.122277 0)
(0.520586 0.0217489 0)
(0.548433 0.0986819 0)
(0.240501 0.123052 0)
(-0.170512 0.0525736 0)
(-0.36594 -0.0319108 0)
(-0.308281 -0.120522 0)
(-0.117881 -0.200474 0)
(-0.241369 0.637149 0)
(-0.675731 0.510989 0)
(-1.01616 0.400493 0)
(-1.27498 0.296989 0)
(-1.45294 0.216784 0)
(-1.49337 0.101365 0)
(-1.35461 -0.0211408 0)
(-1.06993 -0.257564 0)
(-0.700256 -0.574752 0)
(-0.377893 -0.653027 0)
(-0.124454 -0.477075 0)
(0.18513 -0.287088 0)
(0.473921 -0.0688193 0)
(0.61181 0.119153 0)
(0.592846 0.242165 0)
(0.356372 0.209249 0)
(0.0612723 0.0203289 0)
(-0.0264201 -0.159761 0)
(-0.0032597 -0.251995 0)
(-0.187552 0.819799 0)
(-0.510528 0.650621 0)
(-0.719499 0.494299 0)
(-0.786154 0.341592 0)
(-0.617481 0.176433 0)
(-0.293216 0.0212796 0)
(-0.183391 -0.0465444 0)
(-0.316956 -0.296196 0)
(-0.344923 -0.680798 0)
(-0.244178 -0.726693 0)
(-0.116915 -0.565588 0)
(0.164977 -0.45022 0)
(0.482436 -0.163427 0)
(0.571206 0.117615 0)
(0.530751 0.269149 0)
(0.504593 0.294166 0)
(0.428303 0.0936544 0)
(0.272806 -0.129394 0)
(0.0908216 -0.214741 0)
(-0.185313 0.978492 0)
(-0.48004 0.75471 0)
(-0.608264 0.533422 0)
(-0.529491 0.297263 0)
(-0.297955 0.0507608 0)
(-0.0941116 -0.0774281 0)
(-0.0112686 -0.0295249 0)
(-0.0532006 -0.238291 0)
(-0.153845 -0.683301 0)
(-0.208317 -0.74343 0)
(-0.185938 -0.612565 0)
(-0.0388996 -0.585701 0)
(0.258324 -0.289053 0)
(0.504122 0.101486 0)
(0.530916 0.291252 0)
(0.486113 0.302236 0)
(0.434662 0.139983 0)
(0.307194 -0.0552714 0)
(0.112051 -0.12844 0)
(-0.156496 1.12398 0)
(-0.404278 0.840072 0)
(-0.503166 0.544577 0)
(-0.412235 0.213962 0)
(-0.196169 -0.0562123 0)
(-0.0228866 -0.130823 0)
(0.0405019 -0.0381374 0)
(0.0177279 -0.20176 0)
(-0.0920025 -0.629389 0)
(-0.221024 -0.718652 0)
(-0.252899 -0.633332 0)
(-0.202027 -0.649084 0)
(-0.0316673 -0.424258 0)
(0.228165 0.0220679 0)
(0.371459 0.298611 0)
(0.396388 0.303425 0)
(0.354487 0.178445 0)
(0.234583 0.0114885 0)
(0.0803652 -0.0465892 0)
(-0.131836 1.2467 0)
(-0.334389 0.908982 0)
(-0.393221 0.542878 0)
(-0.259124 0.120336 0)
(-0.0280195 -0.152499 0)
(0.091607 -0.159152 0)
(0.101549 -0.040973 0)
(0.0685205 -0.174747 0)
(-0.0691177 -0.550389 0)
(-0.246845 -0.666769 0)
(-0.315946 -0.64228 0)
(-0.310862 -0.663936 0)
(-0.293794 -0.489147 0)
(-0.210939 -0.0587842 0)
(-0.0214063 0.238192 0)
(0.162939 0.275188 0)
(0.189069 0.213478 0)
(0.112899 0.0598594 0)
(0.0365274 0.00313666 0)
(-0.0919611 1.34196 0)
(-0.192232 0.942533 0)
(-0.118374 0.503309 0)
(0.0779214 0.01998 0)
(0.215249 -0.208619 0)
(0.191086 -0.143607 0)
(0.130244 -0.0349109 0)
(0.0547608 -0.13444 0)
(-0.11379 -0.46017 0)
(-0.294625 -0.604403 0)
(-0.388019 -0.635518 0)
(-0.430209 -0.65496 0)
(-0.525209 -0.465179 0)
(-0.632247 -0.0725965 0)
(-0.556361 0.139413 0)
(-0.319874 0.195507 0)
(-0.166683 0.217256 0)
(-0.124532 0.0706814 0)
(-0.0550487 -0.00470866 0)
(-0.0316704 0.230727 0)
(-0.092777 0.217112 0)
(-0.152551 0.202047 0)
(-0.210205 0.170907 0)
(-0.258967 0.135019 0)
(-0.290538 0.0904398 0)
(-0.301716 0.0469055 0)
(-0.296516 0.00904023 0)
(-0.279907 -0.0183711 0)
(-0.260403 -0.029353 0)
(-0.25022 -0.0256562 0)
(-0.254453 -0.024396 0)
(-0.261144 -0.041722 0)
(-0.259049 -0.0713566 0)
(-0.2463 -0.112929 0)
(-0.222878 -0.157473 0)
(-0.184837 -0.214775 0)
(-0.123924 -0.275655 0)
(-0.0376205 -0.327133 0)
(0.061721 -0.300696 0)
(0.175989 -0.125711 0)
(0.261451 0.107673 0)
(0.287805 0.368141 0)
(-0.0427003 0.305486 0)
(-0.124633 0.286139 0)
(-0.193447 0.262279 0)
(-0.243727 0.219172 0)
(-0.278662 0.170888 0)
(-0.303191 0.110964 0)
(-0.314782 0.0492697 0)
(-0.306517 -0.0068636 0)
(-0.282237 -0.0435855 0)
(-0.263044 -0.043024 0)
(-0.262132 -0.0231032 0)
(-0.269395 -0.0153751 0)
(-0.284328 -0.0289951 0)
(-0.306297 -0.0640967 0)
(-0.317408 -0.121829 0)
(-0.314494 -0.175041 0)
(-0.301961 -0.248042 0)
(-0.275282 -0.330473 0)
(-0.231235 -0.403642 0)
(-0.176086 -0.380176 0)
(-0.0965386 -0.241733 0)
(0.0086788 0.0318781 0)
(0.113849 0.311826 0)
(-0.0523269 0.401009 0)
(-0.150888 0.372059 0)
(-0.251949 0.347123 0)
(-0.369427 0.30295 0)
(-0.480695 0.234013 0)
(-0.550415 0.142281 0)
(-0.580525 0.0595498 0)
(-0.563263 -0.0431607 0)
(-0.460949 -0.134833 0)
(-0.318418 -0.114252 0)
(-0.282809 0.0118351 0)
(-0.374212 0.049218 0)
(-0.447754 -0.00446137 0)
(-0.460649 -0.053449 0)
(-0.463816 -0.11826 0)
(-0.462125 -0.183651 0)
(-0.445331 -0.269771 0)
(-0.410684 -0.371652 0)
(-0.33505 -0.48413 0)
(-0.242086 -0.449809 0)
(-0.168533 -0.326703 0)
(-0.0841935 -0.0737237 0)
(-0.00237372 0.229537 0)
(-0.0612392 0.515579 0)
(-0.182719 0.479687 0)
(-0.31219 0.472004 0)
(-0.501336 0.48683 0)
(-0.821399 0.483631 0)
(-1.15253 0.29379 0)
(-1.26828 0.0515783 0)
(-1.16208 -0.161174 0)
(-0.95441 -0.328574 0)
(-0.677522 -0.341194 0)
(-0.382447 -0.0920831 0)
(-0.267981 0.131046 0)
(-0.369569 0.0903048 0)
(-0.482033 -0.0226058 0)
(-0.508817 -0.119787 0)
(-0.474386 -0.219072 0)
(-0.400232 -0.326712 0)
(-0.261608 -0.490165 0)
(-0.123563 -0.581525 0)
(-0.150744 -0.419063 0)
(-0.270845 -0.30994 0)
(-0.34713 -0.097511 0)
(-0.404017 0.228494 0)
(-0.153981 0.735127 0)
(-0.421293 0.655795 0)
(-0.60734 0.614475 0)
(-0.841013 0.769882 0)
(-1.28227 0.969014 0)
(-1.64269 0.506776 0)
(-1.64507 -0.0424306 0)
(-1.48415 -0.336347 0)
(-1.33543 -0.51224 0)
(-1.18678 -0.585852 0)
(-0.893154 -0.43852 0)
(-0.474269 -0.057374 0)
(-0.139455 0.0451544 0)
(0.106942 -0.11219 0)
(0.274379 -0.172234 0)
(0.249139 -0.176118 0)
(0.0581689 -0.252359 0)
(-0.10392 -0.541021 0)
(-0.19905 -0.573883 0)
(-0.337009 -0.260409 0)
(-0.492269 -0.189299 0)
(-0.601786 -0.0289783 0)
(-0.676592 0.29258 0)
(-0.327435 1.22264 0)
(-0.794155 0.910841 0)
(-0.963978 0.717669 0)
(-1.12224 1.06127 0)
(-1.41563 1.42057 0)
(-1.6147 0.625225 0)
(-1.61773 -0.14862 0)
(-1.54601 -0.462292 0)
(-1.47483 -0.60939 0)
(-1.43908 -0.677589 0)
(-1.43374 -0.651086 0)
(-1.30508 -0.396335 0)
(-0.968399 -0.28997 0)
(-0.607385 -0.387118 0)
(-0.360834 -0.313435 0)
(-0.322839 -0.047792 0)
(-0.510558 -7.86911e-05 0)
(-0.791957 -0.347556 0)
(-0.9443 -0.518635 0)
(-0.803782 -0.317722 0)
(-0.64471 -0.13218 0)
(-0.657755 0.0404436 0)
(-0.701114 0.342171 0)
(-0.380079 1.93662 0)
(-0.850619 1.14283 0)
(-0.993036 0.800988 0)
(-1.1517 1.29783 0)
(-1.3289 1.65847 0)
(-1.44783 0.709927 0)
(-1.50199 -0.171976 0)
(-1.49688 -0.514933 0)
(-1.47642 -0.649849 0)
(-1.48585 -0.665913 0)
(-1.53311 -0.623955 0)
(-1.54532 -0.542023 0)
(-1.49759 -0.530481 0)
(-1.46248 -0.54456 0)
(-1.42362 -0.442566 0)
(-1.33676 -0.0441954 0)
(-1.28148 0.129407 0)
(-1.26126 -0.214563 0)
(-1.21291 -0.547152 0)
(-1.05243 -0.591539 0)
(-0.807975 -0.261681 0)
(-0.67521 0.0545823 0)
(-0.639371 0.33856 0)
(-0.288903 2.61178 0)
(-0.731468 1.39014 0)
(-1.0818 1.05158 0)
(-1.40405 1.5314 0)
(-1.50841 1.70804 0)
(-1.46725 0.738611 0)
(-1.47993 -0.133432 0)
(-1.54396 -0.493882 0)
(-1.57358 -0.661359 0)
(-1.56408 -0.654677 0)
(-1.54453 -0.606265 0)
(-1.51577 -0.574826 0)
(-1.48423 -0.577369 0)
(-1.46659 -0.551718 0)
(-1.46112 -0.480705 0)
(-1.39563 -0.159151 0)
(-1.2391 0.0314596 0)
(-1.07925 -0.297585 0)
(-1.04113 -0.550734 0)
(-1.14511 -0.644211 0)
(-1.20623 -0.392524 0)
(-1.08296 -0.0677754 0)
(-0.765889 0.112358 0)
(-0.18711 3.09325 0)
(-0.62266 1.7953 0)
(-1.19128 1.57119 0)
(-1.59083 1.73742 0)
(-1.64001 1.65636 0)
(-1.60576 0.714509 0)
(-1.6035 -0.0988346 0)
(-1.5803 -0.487458 0)
(-1.54497 -0.673548 0)
(-1.511 -0.686182 0)
(-1.4596 -0.644947 0)
(-1.40727 -0.615422 0)
(-1.37248 -0.602096 0)
(-1.36227 -0.5563 0)
(-1.3583 -0.488425 0)
(-1.27429 -0.303434 0)
(-1.07836 -0.178452 0)
(-0.927128 -0.398389 0)
(-0.893685 -0.51961 0)
(-0.921429 -0.541784 0)
(-0.976006 -0.377954 0)
(-0.939177 -0.240463 0)
(-0.696416 -0.27296 0)
(-0.227567 3.51285 0)
(-0.689807 2.28097 0)
(-1.20236 2.17238 0)
(-1.52293 1.86012 0)
(-1.4794 1.53935 0)
(-1.2692 0.5858 0)
(-1.05674 -0.18597 0)
(-0.932684 -0.548369 0)
(-0.911726 -0.669229 0)
(-0.971258 -0.664821 0)
(-1.06402 -0.624717 0)
(-1.14547 -0.605521 0)
(-1.19439 -0.596563 0)
(-1.19592 -0.570274 0)
(-1.17111 -0.504773 0)
(-1.13101 -0.413713 0)
(-1.03928 -0.356997 0)
(-0.93512 -0.474557 0)
(-0.875035 -0.535825 0)
(-0.836936 -0.536301 0)
(-0.784079 -0.38237 0)
(-0.729192 -0.325561 0)
(-0.691855 -0.467154 0)
(-0.255914 3.99936 0)
(-0.718752 2.7249 0)
(-1.09425 2.62117 0)
(-1.2708 1.91108 0)
(-1.12916 1.30226 0)
(-0.822779 0.303595 0)
(-0.598047 -0.343266 0)
(-0.509381 -0.604918 0)
(-0.501414 -0.641768 0)
(-0.537996 -0.59568 0)
(-0.592746 -0.545595 0)
(-0.653465 -0.541737 0)
(-0.727512 -0.536681 0)
(-0.825041 -0.530143 0)
(-0.917167 -0.476877 0)
(-0.96004 -0.438867 0)
(-0.942752 -0.440481 0)
(-0.889902 -0.548163 0)
(-0.829726 -0.584482 0)
(-0.777695 -0.581785 0)
(-0.740577 -0.430217 0)
(-0.708958 -0.363542 0)
(-0.662296 -0.512215 0)
(-0.240257 4.49817 0)
(-0.648153 3.10143 0)
(-0.865219 2.84031 0)
(-0.847988 1.8521 0)
(-0.613675 0.983318 0)
(-0.320441 0.0197753 0)
(-0.172034 -0.434556 0)
(-0.146002 -0.628941 0)
(-0.154716 -0.617006 0)
(-0.17548 -0.562805 0)
(-0.205631 -0.493138 0)
(-0.258511 -0.480015 0)
(-0.329091 -0.453032 0)
(-0.395822 -0.448683 0)
(-0.437724 -0.423625 0)
(-0.48282 -0.403649 0)
(-0.575868 -0.398867 0)
(-0.69444 -0.523086 0)
(-0.764916 -0.600335 0)
(-0.775629 -0.610115 0)
(-0.763108 -0.453715 0)
(-0.744118 -0.390724 0)
(-0.6888 -0.58663 0)
(-0.24397 4.98496 0)
(-0.595302 3.37787 0)
(-0.651859 2.83894 0)
(-0.431715 1.61486 0)
(-0.099304 0.650861 0)
(0.135387 -0.178463 0)
(0.203862 -0.454352 0)
(0.185362 -0.616732 0)
(0.140461 -0.575332 0)
(0.0751317 -0.517944 0)
(-0.00817192 -0.423957 0)
(-0.101071 -0.402664 0)
(-0.166334 -0.393841 0)
(-0.187438 -0.419592 0)
(-0.193853 -0.404157 0)
(-0.207953 -0.363621 0)
(-0.237653 -0.315508 0)
(-0.299783 -0.42481 0)
(-0.388039 -0.539083 0)
(-0.486068 -0.562089 0)
(-0.548253 -0.451839 0)
(-0.54602 -0.413924 0)
(-0.540442 -0.624159 0)
(-0.160628 5.3917 0)
(-0.398078 3.56303 0)
(-0.363317 2.6757 0)
(-0.0291467 1.22087 0)
(0.318014 0.361711 0)
(0.473448 -0.281489 0)
(0.482027 -0.428798 0)
(0.417726 -0.559063 0)
(0.326132 -0.495803 0)
(0.23206 -0.437246 0)
(0.153374 -0.341824 0)
(0.0922706 -0.329995 0)
(0.0325624 -0.340892 0)
(-0.0459601 -0.372402 0)
(-0.130519 -0.359907 0)
(-0.181897 -0.342059 0)
(-0.184722 -0.304384 0)
(-0.184296 -0.373914 0)
(-0.23621 -0.449086 0)
(-0.329561 -0.459717 0)
(-0.398335 -0.42258 0)
(-0.417993 -0.425683 0)
(-0.474415 -0.561305 0)
(0.0281695 5.52486 0)
(0.0477345 3.64891 0)
(0.195335 2.40652 0)
(0.530394 0.817326 0)
(0.761484 0.183981 0)
(0.799706 -0.298432 0)
(0.734174 -0.354614 0)
(0.615509 -0.449332 0)
(0.482416 -0.379678 0)
(0.359357 -0.335109 0)
(0.257122 -0.262097 0)
(0.171461 -0.262195 0)
(0.0920068 -0.268807 0)
(0.021198 -0.294382 0)
(-0.0378018 -0.293627 0)
(-0.0937237 -0.300486 0)
(-0.149037 -0.287523 0)
(-0.209312 -0.33062 0)
(-0.278127 -0.37103 0)
(-0.340392 -0.381354 0)
(-0.38766 -0.384306 0)
(-0.436537 -0.395075 0)
(-0.509509 -0.461854 0)
(0.234473 5.26082 0)
(0.622492 3.50322 0)
(0.950376 2.07426 0)
(1.16537 0.596675 0)
(1.17223 0.16545 0)
(1.05646 -0.201932 0)
(0.883585 -0.211462 0)
(0.695336 -0.283967 0)
(0.515099 -0.230076 0)
(0.368982 -0.214131 0)
(0.26013 -0.170886 0)
(0.176469 -0.183201 0)
(0.102371 -0.19345 0)
(0.0272657 -0.223068 0)
(-0.0494326 -0.228539 0)
(-0.116325 -0.242124 0)
(-0.162905 -0.243466 0)
(-0.201014 -0.275786 0)
(-0.249789 -0.307669 0)
(-0.310426 -0.32118 0)
(-0.375629 -0.331431 0)
(-0.4403 -0.333819 0)
(-0.521587 -0.368057 0)
(0.442721 4.58001 0)
(1.13393 3.09907 0)
(1.5008 1.78002 0)
(1.53608 0.639375 0)
(1.36071 0.292174 0)
(1.1417 0.00790732 0)
(0.905168 -0.0097511 0)
(0.695879 -0.0860548 0)
(0.519317 -0.0693193 0)
(0.380892 -0.0888556 0)
(0.271361 -0.0766353 0)
(0.179916 -0.101431 0)
(0.0959653 -0.116347 0)
(0.0174387 -0.145739 0)
(-0.052757 -0.158211 0)
(-0.115806 -0.181838 0)
(-0.176122 -0.196304 0)
(-0.236341 -0.224114 0)
(-0.296381 -0.249966 0)
(-0.351725 -0.262305 0)
(-0.400826 -0.275414 0)
(-0.447873 -0.277544 0)
(-0.500061 -0.290171 0)
(0.530215 3.60196 0)
(1.2773 2.63131 0)
(1.5425 1.61246 0)
(1.4868 0.82753 0)
(1.27452 0.49374 0)
(1.03984 0.262434 0)
(0.813958 0.20056 0)
(0.625577 0.103395 0)
(0.467021 0.0781082 0)
(0.338704 0.0318587 0)
(0.233369 0.0186425 0)
(0.145112 -0.0160676 0)
(0.0660024 -0.0377988 0)
(-0.00779086 -0.0711741 0)
(-0.0766376 -0.0930105 0)
(-0.138412 -0.121568 0)
(-0.192251 -0.141829 0)
(-0.241517 -0.168539 0)
(-0.292578 -0.193867 0)
(-0.345717 -0.20936 0)
(-0.397968 -0.226486 0)
(-0.445989 -0.230916 0)
(-0.491456 -0.238642 0)
(0.399777 2.66715 0)
(0.985133 2.22681 0)
(1.21228 1.52212 0)
(1.18676 0.999576 0)
(1.03582 0.686842 0)
(0.859592 0.482413 0)
(0.692875 0.375246 0)
(0.547605 0.264116 0)
(0.417278 0.207788 0)
(0.303778 0.145265 0)
(0.203368 0.112059 0)
(0.114342 0.0687273 0)
(0.0332418 0.0384531 0)
(-0.0408179 0.00119793 0)
(-0.108995 -0.027646 0)
(-0.172602 -0.0608995 0)
(-0.232477 -0.0881934 0)
(-0.287803 -0.117041 0)
(-0.338661 -0.142919 0)
(-0.384493 -0.160827 0)
(-0.425361 -0.181421 0)
(-0.461549 -0.191339 0)
(-0.493718 -0.200183 0)
(0.225501 2.03863 0)
(0.602322 1.88817 0)
(0.803345 1.43039 0)
(0.834328 1.08585 0)
(0.770444 0.81653 0)
(0.667818 0.633056 0)
(0.5559 0.504708 0)
(0.445169 0.392003 0)
(0.338586 0.318057 0)
(0.240463 0.24773 0)
(0.150614 0.20085 0)
(0.0692246 0.151244 0)
(-0.00560199 0.112678 0)
(-0.0747864 0.0709649 0)
(-0.138985 0.0356515 0)
(-0.197661 -0.00127824 0)
(-0.251392 -0.0336193 0)
(-0.301017 -0.0661215 0)
(-0.347467 -0.0960274 0)
(-0.389772 -0.119127 0)
(-0.427841 -0.143778 0)
(-0.461287 -0.15899 0)
(-0.489905 -0.171432 0)
(0.133585 1.67768 0)
(0.377063 1.6256 0)
(0.5359 1.33123 0)
(0.590144 1.09934 0)
(0.573175 0.884321 0)
(0.514533 0.727389 0)
(0.437829 0.599993 0)
(0.353008 0.493301 0)
(0.265659 0.411712 0)
(0.180143 0.338679 0)
(0.0981416 0.282652 0)
(0.0211014 0.228701 0)
(-0.0513134 0.183232 0)
(-0.118654 0.137648 0)
(-0.181541 0.0967159 0)
(-0.2403 0.0557028 0)
(-0.294683 0.0180757 0)
(-0.343633 -0.0187318 0)
(-0.386901 -0.053235 0)
(-0.424677 -0.0814246 0)
(-0.457676 -0.110048 0)
(-0.486795 -0.129834 0)
(-0.511968 -0.146522 0)
(0.0826784 1.46029 0)
(0.243658 1.43642 0)
(0.361236 1.24255 0)
(0.410731 1.08375 0)
(0.409458 0.918261 0)
(0.373985 0.788066 0)
(0.319631 0.671066 0)
(0.254085 0.573387 0)
(0.183229 0.490661 0)
(0.110931 0.418373 0)
(0.0393129 0.357382 0)
(-0.0300809 0.301172 0)
(-0.096977 0.2508 0)
(-0.160539 0.201665 0)
(-0.22048 0.156168 0)
(-0.276352 0.111478 0)
(-0.328084 0.0689675 0)
(-0.375728 0.0274706 0)
(-0.419991 -0.0114535 0)
(-0.460805 -0.0442099 0)
(-0.499396 -0.0753039 0)
(-0.536958 -0.0975545 0)
(-0.572669 -0.117605 0)
(0.0545807 1.32232 0)
(0.161994 1.30461 0)
(0.24355 1.1742 0)
(0.282338 1.06337 0)
(0.286207 0.936044 0)
(0.262929 0.829349 0)
(0.221541 0.726032 0)
(0.167657 0.638482 0)
(0.106452 0.558322 0)
(0.0415071 0.488676 0)
(-0.024781 0.425708 0)
(-0.0902482 0.368413 0)
(-0.153723 0.314611 0)
(-0.214282 0.262624 0)
(-0.271771 0.213252 0)
(-0.325953 0.165021 0)
(-0.376884 0.118622 0)
(-0.425069 0.0741426 0)
(-0.471723 0.0332627 0)
(-0.518651 -0.000729791 0)
(-0.567168 -0.0312268 0)
(-0.616354 -0.0544364 0)
(-0.66008 -0.0808755 0)
(0.0358697 1.2314 0)
(0.106264 1.2168 0)
(0.159232 1.12679 0)
(0.184007 1.04689 0)
(0.185007 0.947635 0)
(0.165872 0.860398 0)
(0.132072 0.770569 0)
(0.0872998 0.69312 0)
(0.0350734 0.617713 0)
(-0.0220595 0.552004 0)
(-0.0820368 0.489307 0)
(-0.142839 0.431744 0)
(-0.203137 0.375699 0)
(-0.261896 0.321477 0)
(-0.31868 0.269268 0)
(-0.37338 0.218453 0)
(-0.426628 0.169914 0)
(-0.480073 0.12501 0)
(-0.536357 0.0858681 0)
(-0.596686 0.054478 0)
(-0.658549 0.0245171 0)
(-0.711699 -0.00731369 0)
(-0.744517 -0.0510581 0)
(0.0214486 1.17378 0)
(0.0643789 1.1605 0)
(0.0966946 1.09736 0)
(0.110141 1.0379 0)
(0.106384 0.9594 0)
(0.0866803 0.88768 0)
(0.054296 0.809822 0)
(0.0119878 0.741405 0)
(-0.0374864 0.671663 0)
(-0.0918833 0.610169 0)
(-0.148951 0.548801 0)
(-0.20704 0.491764 0)
(-0.265166 0.434723 0)
(-0.32286 0.379515 0)
(-0.380268 0.326019 0)
(-0.437848 0.274567 0)
(-0.497403 0.227191 0)
(-0.561299 0.185682 0)
(-0.629803 0.150631 0)
(-0.697708 0.118616 0)
(-0.752115 0.0772539 0)
(-0.782054 0.0234695 0)
(-0.792685 -0.0381703 0)
(0.0103368 1.14183 0)
(0.0317448 1.12778 0)
(0.0470674 1.0822 0)
(0.0501756 1.03642 0)
(0.04127 0.973608 0)
(0.0204449 0.914217 0)
(-0.0105314 0.846981 0)
(-0.0501547 0.78661 0)
(-0.0965919 0.722874 0)
(-0.148209 0.665529 0)
(-0.203063 0.605951 0)
(-0.25973 0.54997 0)
(-0.317614 0.493133 0)
(-0.376794 0.438591 0)
(-0.438078 0.386256 0)
(-0.50286 0.33733 0)
(-0.572881 0.294677 0)
(-0.648171 0.258107 0)
(-0.722149 0.22143 0)
(-0.777957 0.172175 0)
(-0.804482 0.105047 0)
(-0.811602 0.0329255 0)
(-0.815401 -0.0331259 0)
(0.00274725 1.12868 0)
(0.00801383 1.11412 0)
(0.00865886 1.07982 0)
(0.00130335 1.04309 0)
(-0.0148361 0.992127 0)
(-0.0402998 0.942233 0)
(-0.0741534 0.884138 0)
(-0.115325 0.830673 0)
(-0.16226 0.772674 0)
(-0.213601 0.719226 0)
(-0.268005 0.662085 0)
(-0.324984 0.608077 0)
(-0.384496 0.553036 0)
(-0.447213 0.501224 0)
(-0.514585 0.45295 0)
(-0.588039 0.409592 0)
(-0.666935 0.372107 0)
(-0.743205 0.333029 0)
(-0.797548 0.275498 0)
(-0.819446 0.196216 0)
(-0.822611 0.110848 0)
(-0.823213 0.0348831 0)
(-0.82702 -0.027441 0)
(-0.00266888 1.12861 0)
(-0.00932125 1.1156 0)
(-0.0201432 1.08858 0)
(-0.0361762 1.05784 0)
(-0.0581799 1.01572 0)
(-0.0869894 0.973202 0)
(-0.12257 0.922971 0)
(-0.164523 0.875402 0)
(-0.211721 0.822573 0)
(-0.263153 0.772639 0)
(-0.318121 0.718619 0)
(-0.376563 0.667569 0)
(-0.439134 0.616267 0)
(-0.507324 0.569585 0)
(-0.583011 0.528394 0)
(-0.666084 0.49149 0)
(-0.747405 0.451263 0)
(-0.805064 0.388503 0)
(-0.827451 0.297152 0)
(-0.830304 0.199438 0)
(-0.830147 0.110648 0)
(-0.830742 0.0362826 0)
(-0.831973 -0.023778 0)
(-0.00733806 1.13867 0)
(-0.0235876 1.12856 0)
(-0.0439113 1.10693 0)
(-0.0688224 1.08066 0)
(-0.0987487 1.04511 0)
(-0.134108 1.00832 0)
(-0.17493 0.964661 0)
(-0.220836 0.922033 0)
(-0.271248 0.874066 0)
(-0.325883 0.82777 0)
(-0.384768 0.777939 0)
(-0.448499 0.731062 0)
(-0.517517 0.685053 0)
(-0.593142 0.645364 0)
(-0.675052 0.611035 0)
(-0.755491 0.573216 0)
(-0.813147 0.509241 0)
(-0.834437 0.409886 0)
(-0.835276 0.299113 0)
(-0.832687 0.19774 0)
(-0.829507 0.108989 0)
(-0.825106 0.0341113 0)
(-0.815884 -0.0296403 0)
(-0.0117426 1.15785 0)
(-0.0361916 1.1503 0)
(-0.0634282 1.13301 0)
(-0.0941318 1.11048 0)
(-0.128769 1.08019 0)
(-0.167746 1.04797 0)
(-0.211165 1.00969 0)
(-0.258896 0.97113 0)
(-0.310775 0.927798 0)
(-0.367125 0.885606 0)
(-0.428654 0.84115 0)
(-0.496492 0.800108 0)
(-0.572254 0.761544 0)
(-0.656192 0.72927 0)
(-0.740556 0.694274 0)
(-0.803734 0.634346 0)
(-0.829413 0.531881 0)
(-0.831899 0.411145 0)
(-0.830093 0.29688 0)
(-0.826113 0.193369 0)
(-0.817956 0.101961 0)
(-0.80295 0.0216286 0)
(-0.779312 -0.0501904 0)
(-0.0161185 1.18586 0)
(-0.0490807 1.18 0)
(-0.0842513 1.16604 0)
(-0.122471 1.14674 0)
(-0.16429 1.12079 0)
(-0.209951 1.09245 0)
(-0.259474 1.05864 0)
(-0.312699 1.02367 0)
(-0.369809 0.984823 0)
(-0.431163 0.946904 0)
(-0.497793 0.908684 0)
(-0.570855 0.87421 0)
(-0.65046 0.843621 0)
(-0.733175 0.81472 0)
(-0.800386 0.761195 0)
(-0.83098 0.661688 0)
(-0.833553 0.532938 0)
(-0.828273 0.407278 0)
(-0.819052 0.28966 0)
(-0.804166 0.181624 0)
(-0.782523 0.0837472 0)
(-0.753644 -0.00427475 0)
(-0.718769 -0.0831073 0)
(-0.0193003 1.22147 0)
(-0.0582769 1.21672 0)
(-0.0985986 1.20522 0)
(-0.141104 1.18871 0)
(-0.186509 1.1665 0)
(-0.235267 1.14166 0)
(-0.287656 1.11189 0)
(-0.343916 1.08049 0)
(-0.404377 1.0462 0)
(-0.469764 1.01294 0)
(-0.540937 0.981176 0)
(-0.619477 0.954113 0)
(-0.704033 0.928739 0)
(-0.778543 0.887651 0)
(-0.818384 0.795877 0)
(-0.824752 0.664162 0)
(-0.81936 0.527629 0)
(-0.809474 0.39734 0)
(-0.792833 0.273599 0)
(-0.769386 0.159152 0)
(-0.739552 0.0544711 0)
(-0.704682 -0.0390822 0)
(-0.665512 -0.122734 0)
(-0.0235058 1.2645 0)
(-0.0708514 1.26046 0)
(-0.11932 1.25073 0)
(-0.169673 1.23655 0)
(-0.222542 1.21746 0)
(-0.278307 1.19577 0)
(-0.337218 1.16966 0)
(-0.399586 1.14197 0)
(-0.465791 1.11204 0)
(-0.536221 1.08362 0)
(-0.611916 1.05813 0)
(-0.692098 1.03671 0)
(-0.766436 1.00587 0)
(-0.812 0.931224 0)
(-0.820886 0.801288 0)
(-0.812279 0.656501 0)
(-0.79783 0.515346 0)
(-0.776325 0.378069 0)
(-0.748812 0.248485 0)
(-0.716827 0.128545 0)
(-0.681149 0.0192227 0)
(-0.64203 -0.0782098 0)
(-0.599403 -0.165833 0)
(-0.0255406 1.3138 0)
(-0.0769146 1.3104 0)
(-0.129227 1.30211 0)
(-0.183098 1.28995 0)
(-0.239129 1.27354 0)
(-0.297858 1.25479 0)
(-0.359862 1.23219 0)
(-0.425759 1.20838 0)
(-0.496158 1.18296 0)
(-0.571321 1.15906 0)
(-0.651147 1.13903 0)
(-0.73054 1.11623 0)
(-0.788518 1.05936 0)
(-0.807664 0.942783 0)
(-0.801413 0.792379 0)
(-0.787331 0.642602 0)
(-0.766482 0.493763 0)
(-0.739058 0.350467 0)
(-0.707142 0.216348 0)
(-0.671291 0.0924915 0)
(-0.632158 -0.019928 0)
(-0.590214 -0.120546 0)
(-0.54557 -0.211226 0)
(-0.0307512 1.37039 0)
(-0.0922003 1.36723 0)
(-0.153684 1.35967 0)
(-0.215878 1.34906 0)
(-0.279685 1.3349 0)
(-0.345544 1.31868 0)
(-0.413713 1.29916 0)
(-0.484859 1.27917 0)
(-0.559326 1.25779 0)
(-0.63612 1.23698 0)
(-0.712032 1.21766 0)
(-0.773717 1.17941 0)
(-0.802059 1.08295 0)
(-0.79796 0.93432 0)
(-0.779291 0.775793 0)
(-0.753495 0.619103 0)
(-0.72103 0.463671 0)
(-0.684898 0.316671 0)
(-0.646577 0.179541 0)
(-0.606652 0.0531244 0)
(-0.565059 -0.0617097 0)
(-0.522061 -0.164151 0)
(-0.477581 -0.257214 0)
(-0.0314709 1.43294 0)
(-0.094557 1.42987 0)
(-0.158264 1.42288 0)
(-0.223225 1.41368 0)
(-0.289856 1.40141 0)
(-0.358517 1.3874 0)
(-0.429674 1.3705 0)
(-0.503844 1.35392 0)
(-0.581222 1.33569 0)
(-0.660367 1.31584 0)
(-0.733659 1.28879 0)
(-0.779975 1.21686 0)
(-0.787142 1.08121 0)
(-0.7716 0.916322 0)
(-0.747976 0.751278 0)
(-0.717216 0.586768 0)
(-0.681647 0.427618 0)
(-0.644014 0.278573 0)
(-0.604325 0.139223 0)
(-0.562825 0.0115893 0)
(-0.519729 -0.105307 0)
(-0.475107 -0.208632 0)
(-0.429974 -0.302815 0)
(-0.0374663 1.50225 0)
(-0.112426 1.49934 0)
(-0.187404 1.49283 0)
(-0.262289 1.48432 0)
(-0.337496 1.47335 0)
(-0.413581 1.46097 0)
(-0.490583 1.44587 0)
(-0.568397 1.43133 0)
(-0.645324 1.41339 0)
(-0.717009 1.38976 0)
(-0.769621 1.34144 0)
(-0.786697 1.22794 0)
(-0.772555 1.06312 0)
(-0.7441 0.890186 0)
(-0.708692 0.718076 0)
(-0.668474 0.548624 0)
(-0.626499 0.387816 0)
(-0.583803 0.237626 0)
(-0.540422 0.096666 0)
(-0.49678 -0.0314424 0)
(-0.453651 -0.148951 0)
(-0.410476 -0.253245 0)
(-0.366995 -0.347282 0)
(-0.0371654 1.57727 0)
(-0.111625 1.57453 0)
(-0.186516 1.5683 0)
(-0.262224 1.56023 0)
(-0.339157 1.55038 0)
(-0.417325 1.539 0)
(-0.496661 1.525 0)
(-0.576419 1.5106 0)
(-0.65434 1.48979 0)
(-0.723382 1.45484 0)
(-0.76334 1.36942 0)
(-0.763803 1.21759 0)
(-0.741376 1.03671 0)
(-0.709856 0.856313 0)
(-0.672132 0.678437 0)
(-0.631449 0.506942 0)
(-0.589747 0.345386 0)
(-0.547295 0.194464 0)
(-0.504182 0.0528811 0)
(-0.460179 -0.0757614 0)
(-0.416184 -0.192213 0)
(-0.373447 -0.296346 0)
(-0.331347 -0.390212 0)
(-0.0442351 1.6591 0)
(-0.132601 1.65638 0)
(-0.220725 1.65033 0)
(-0.308299 1.64235 0)
(-0.394921 1.63268 0)
(-0.480417 1.62123 0)
(-0.564214 1.60677 0)
(-0.643639 1.58886 0)
(-0.713502 1.56009 0)
(-0.761604 1.5023 0)
(-0.773352 1.37395 0)
(-0.752203 1.19228 0)
(-0.715582 1.00267 0)
(-0.673248 0.816114 0)
(-0.627594 0.634826 0)
(-0.580888 0.46271 0)
(-0.533902 0.300468 0)
(-0.486901 0.149464 0)
(-0.441548 0.00895179 0)
(-0.398992 -0.118844 0)
(-0.358273 -0.23429 0)
(-0.318831 -0.336881 0)
(-0.280294 -0.430738 0)
(-0.0431407 1.74694 0)
(-0.129378 1.74407 0)
(-0.215485 1.73779 0)
(-0.301724 1.72961 0)
(-0.38844 1.71967 0)
(-0.47483 1.70703 0)
(-0.559168 1.68998 0)
(-0.639042 1.66578 0)
(-0.707258 1.62198 0)
(-0.74472 1.52643 0)
(-0.742769 1.35967 0)
(-0.717711 1.16011 0)
(-0.683044 0.963182 0)
(-0.642309 0.772105 0)
(-0.597917 0.588321 0)
(-0.551791 0.4159 0)
(-0.505432 0.253445 0)
(-0.459434 0.103002 0)
(-0.41422 -0.0356289 0)
(-0.371686 -0.1598 0)
(-0.332362 -0.273797 0)
(-0.294995 -0.374587 0)
(-0.258813 -0.468145 0)
(-0.0507933 1.84137 0)
(-0.152153 1.83823 0)