/*--------------------------------*- C++ -*----------------------------------*\
| =========                 |                                                 |
| \\      /  F ield         | OpenFOAM: The Open Source CFD Toolbox           |
|  \\    /   O peration     | Version:  3.0.1                                 |
|   \\  /    A nd           | Web:      www.OpenFOAM.org                      |
|    \\/     M anipulation  |                                                 |
\*---------------------------------------------------------------------------*/
FoamFile
{
    version     2.0;
    format      ascii;
    class       volScalarField;
    location    "0.00015";
    object      maxKappa;
}
// * * * * * * * * * * * * * * * * * * * * * * * * * * * * * * * * * * * * * //

dimensions      [0 0 0 0 0 0 0];

internalField   nonuniform List<scalar> 
1000
(
1.14015e-06
2.36697e-06
3.83745e-06
5.70311e-06
8.14897e-06
1.14137e-05
1.5809e-05
2.17458e-05
2.97668e-05
4.05882e-05
5.51527e-05
7.46969e-05
0.000100832
0.000135652
0.000181855
0.000242895
0.000323168
0.000428211
0.000564948
0.000741941
0.000969665
0.00126077
0.00163033
0.00209599
0.00267804
0.00339926
0.00428452
0.00536005
0.00665218
0.00818562
0.00998104
0.012052
0.0144011
0.0170159
0.0198643
0.02289
0.0260091
0.0291085
0.0320491
0.0346731
0.0368198
0.0383629
0.0391369
0.0393341
0.0393341
0.0391764
0.0390323
0.0389358
0.0389358
0.0388177
0.0388177
0.0376292
0.0371154
0.0371637
0.0372861
0.0375017
0.0376657
0.0376657
0.0375765
0.0370509
0.035986
0.0343626
0.0322276
0.0296778
0.0268437
0.0238634
0.0208668
0.0179653
0.0152448
0.0127638
0.0105551
0.00862992
0.00698296
0.00559665
0.00444669
0.00350496
0.00274251
0.00213152
0.0016464
0.00126442
0.000965907
0.000734218
0.000555539
0.000418521
0.000314019
0.000234711
0.000174797
0.00012973
9.59635e-05
7.07579e-05
5.20051e-05
3.80937e-05
2.77979e-05
2.0188e-05
1.45615e-05
1.03877e-05
7.26465e-06
4.88527e-06
3.01188e-06
1.45028e-06
1.14006e-06
2.36677e-06
3.83713e-06
5.70262e-06
8.14827e-06
1.14127e-05
1.58077e-05
2.1744e-05
2.97643e-05
4.05847e-05
5.51481e-05
7.46904e-05
0.000100823
0.00013564
0.000181838
0.000242873
0.000323136
0.000428168
0.000564888
0.000741858
0.000969551
0.00126062
0.00163013
0.00209572
0.00267768
0.00339878
0.00428389
0.00535923
0.00665115
0.00818437
0.00997955
0.0120503
0.0143993
0.0170141
0.0198625
0.0228885
0.026007
0.0291065
0.0320459
0.0346672
0.0368067
0.0383189
0.0390959
0.0392594
0.0392594
0.0390592
0.038818
0.0385512
0.0383336
0.0393014
0.0393014
0.0386533
0.0370986
0.0371187
0.0372289
0.0374571
0.0376416
0.0376416
0.0375662
0.0370466
0.0359855
0.0343643
0.0322302
0.0296772
0.0268419
0.0238607
0.0208639
0.0179624
0.0152422
0.0127615
0.0105533
0.00862856
0.00698192
0.00559597
0.00444623
0.00350463
0.00274228
0.00213136
0.00164628
0.00126433
0.000965838
0.000734167
0.000555498
0.000418491
0.000313997
0.000234694
0.000174784
0.00012972
9.5956e-05
7.07521e-05
5.20008e-05
3.80906e-05
2.77954e-05
2.01861e-05
1.45601e-05
1.03867e-05
7.26393e-06
4.88476e-06
3.01156e-06
1.45012e-06
1.13986e-06
2.36637e-06
3.83646e-06
5.70164e-06
8.14687e-06
1.14107e-05
1.58049e-05
2.17402e-05
2.9759e-05
4.05776e-05
5.51384e-05
7.46769e-05
0.000100805
0.000135616
0.000181805
0.000242827
0.000323074
0.000428084
0.000564774
0.000741706
0.000969348
0.00126035
0.00162977
0.00209527
0.0026771
0.00339806
0.00428301
0.0053582
0.00664998
0.00818311
0.00997829
0.0120491
0.0143983
0.0170136
0.0198626
0.0228888
0.0260089
0.0291089
0.0320493
0.0346725
0.036817
0.0383689
0.039162
0.0394017
0.0394017
0.0392797
0.0392178
0.0392744
0.0392744
0.0391551
0.038655
0.0375017
0.0374451
0.0372622
0.0372839
0.0375104
0.0377026
0.0377026
0.037629
0.0371016
0.0360286
0.0343926
0.0322442
0.0296902
0.0268492
0.0238637
0.0208636
0.0179606
0.0152398
0.0127589
0.0105509
0.00862656
0.00698024
0.00559457
0.0044451
0.00350374
0.00274159
0.00213083
0.00164589
0.00126404
0.00096562
0.000734012
0.000555379
0.000418403
0.000313932
0.000234644
0.000174748
0.000129692
9.59355e-05
7.0737e-05
5.19895e-05
3.80822e-05
2.77892e-05
2.01816e-05
1.45568e-05
1.03843e-05
7.26223e-06
4.88361e-06
3.01084e-06
1.44978e-06
1.13957e-06
2.36576e-06
3.83548e-06
5.70017e-06
8.14476e-06
1.14078e-05
1.58008e-05
2.17345e-05
2.97513e-05
4.0567e-05
5.51238e-05
7.46573e-05
0.000100779
0.000135579
0.000181756
0.000242762
0.000322988
0.000427968
0.000564621
0.000741505
0.000969083
0.00126
0.00162933
0.00209469
0.00267637
0.00339713
0.00428184
0.00535673
0.0066482
0.00818102
0.00997582
0.0120463
0.0143954
0.0170106
0.0198595
0.022886
0.0260056
0.0291051
0.0320438
0.0346636
0.0368045
0.038331
0.0391212
0.0393218
0.0393218
0.0391377
0.0389422
0.0387108
0.0385457
0.0390651
0.0390651
0.0382866
0.0370671
0.0371543
0.0372933
0.0375245
0.0377085
0.0377085
0.0376337
0.0371111
0.0360328
0.0344005
0.0322527
0.0296906
0.0268469
0.0238599
0.0208595
0.0179562
0.0152352
0.012755
0.0105475
0.00862365
0.00697784
0.00559266
0.00444359
0.00350255
0.00274066
0.00213012
0.00164535
0.00126363
0.000965307
0.00073377
0.000555195
0.000418263
0.000313826
0.000234565
0.000174687
0.000129647
9.59019e-05
7.07121e-05
5.1971e-05
3.80685e-05
2.77792e-05
2.01742e-05
1.45515e-05
1.03805e-05
7.25954e-06
4.8818e-06
3.00972e-06
1.44924e-06
1.1392e-06
2.36499e-06
3.83423e-06
5.69831e-06
8.14209e-06
1.1404e-05
1.57956e-05
2.17274e-05
2.97415e-05
4.05535e-05
5.51054e-05
7.46328e-05
0.000100745
0.000135535
0.000181697
0.000242683
0.000322883
0.00042783
0.00056444
0.000741275
0.000968786
0.00125962
0.00162885
0.0020941
0.00267563
0.00339626
0.00428085
0.0053556
0.00664689
0.00817968
0.00997464
0.0120451
0.0143942
0.0170097
0.0198591
0.0228849
0.026006
0.0291058
0.0320421
0.0346585
0.0367938
0.0383193
0.0391246
0.0393388
0.0393388
0.0391983
0.0389937
0.0387593
0.0387233
0.0386123
0.0385105
0.0379811
0.0371614
0.0372429
0.0373413
0.0375893
0.0377764
0.0377764
0.037695
0.0371574
0.0360792
0.0344286
0.0322647
0.0296974
0.0268514
0.023861
0.0208587
0.0179547
0.0152336
0.0127533
0.0105455
0.00862168
0.006976
0.00559095
0.00444216
0.00350136
0.00273968
0.00212931
0.00164468
0.00126309
0.000964881
0.000733438
0.000554939
0.000418068
0.000313679
0.000234453
0.000174603
0.000129584
9.58551e-05
7.06774e-05
5.19452e-05
3.80496e-05
2.77654e-05
2.01641e-05
1.45442e-05
1.03753e-05
7.25589e-06
4.87934e-06
3.00821e-06
1.44851e-06
1.13878e-06
2.36412e-06
3.83281e-06
5.6962e-06
8.13906e-06
1.13998e-05
1.57897e-05
2.17192e-05
2.97303e-05
4.05383e-05
5.50849e-05
7.46051e-05
0.000100708
0.000135485
0.000181631
0.000242597
0.00032277
0.000427684
0.000564251
0.000741033
0.000968478
0.00125924
0.00162837
0.00209351
0.00267492
0.0033954
0.00427982
0.0053544
0.00664552
0.00817808
0.00997287
0.0120432
0.0143924
0.0170084
0.0198577
0.0228848
0.0260055
0.029105
0.0320436
0.0346615
0.0368001
0.0383327
0.0391397
0.0393577
0.0393577
0.0392077
0.0390091
0.0387627
0.0386673
0.0385257
0.03846
0.0379811
0.0372043
0.0371987
0.0373535
0.0376018
0.0377906
0.0377906
0.0377171
0.0371795
0.0360809
0.0344303
0.0322709
0.0297035
0.0268534
0.0238618
0.020858
0.0179534
0.0152318
0.0127506
0.010543
0.00861925
0.00697367
0.00558896
0.00444038
0.00349986
0.00273841
0.00212828
0.00164387
0.00126244
0.000964378
0.000733045
0.000554634
0.000417836
0.000313498
0.000234317
0.000174501
0.000129508
9.57983e-05
7.06346e-05
5.19139e-05
3.80267e-05
2.77485e-05
2.01519e-05
1.45353e-05
1.0369e-05
7.25151e-06
4.87638e-06
3.00639e-06
1.44763e-06
1.13835e-06
2.36323e-06
3.83137e-06
5.69404e-06
8.13597e-06
1.13954e-05
1.57837e-05
2.17109e-05
2.9719e-05
4.0523e-05
5.50643e-05
7.45771e-05
0.000100671
0.000135437
0.000181567
0.000242513
0.000322662
0.000427546
0.000564079
0.000740815
0.000968212
0.00125892
0.00162799
0.00209306
0.00267441
0.00339482
0.00427919
0.00535375
0.00664491
0.00817748
0.00997224
0.0120428
0.0143925
0.0170083
0.0198582
0.022886
0.0260078
0.0291108
0.0320524
0.0346752
0.0368209
0.0383479
0.0391412
0.0393377
0.0393377
0.039169
0.0389616
0.038751
0.0386656
0.0390112
0.0390112
0.038246
0.0370758
0.0371147
0.0372265
0.0374727
0.0376855
0.0376855
0.0376372
0.0371312
0.0360729
0.0344313
0.0322763
0.0297089
0.0268605
0.0238697
0.0208647
0.0179567
0.0152335
0.0127515
0.0105429
0.00861866
0.00697279
0.00558789
0.00443926
0.00349878
0.00273745
0.00212743
0.00164314
0.00126184
0.000963884
0.000732652
0.000554324
0.000417593
0.000313312
0.000234175
0.000174393
0.000129426
9.57374e-05
7.05897e-05
5.18807e-05
3.80022e-05
2.77306e-05
2.0139e-05
1.4526e-05
1.03623e-05
7.24687e-06
4.87327e-06
3.00447e-06
1.4467e-06
1.13796e-06
2.36242e-06
3.83006e-06
5.69209e-06
8.13318e-06
1.13915e-05
1.57783e-05
2.17035e-05
2.97088e-05
4.05092e-05
5.50457e-05
7.45522e-05
0.000100638
0.000135393
0.00018151
0.000242439
0.000322568
0.000427427
0.00056393
0.00074063
0.00096799
0.00125865
0.00162768
0.00209271
0.00267402
0.00339442
0.00427878
0.0053534
0.00664473
0.00817747
0.00997258
0.0120439
0.0143939
0.0170104
0.0198616
0.0228909
0.0260146
0.0291188
0.0320637
0.0346926
0.0368438
0.0384019
0.0392042
0.039449
0.039449
0.0393292
0.0392479
0.0392466
0.0392466
0.0391243
0.0385797
0.0374448
0.0372955
0.0371884
0.0373031
0.0375321
0.037719
0.037719
0.0376534
0.0371406
0.0360735
0.0344399
0.0322864
0.0297193
0.0268701
0.0238767
0.0208701
0.0179613
0.0152361
0.0127527
0.0105435
0.00861865
0.00697216
0.00558698
0.00443829
0.00349781
0.00273655
0.00212665
0.00164247
0.00126128
0.000963429
0.000732286
0.000554035
0.000417366
0.000313138
0.000234041
0.000174292
0.00012935
9.56803e-05
7.05474e-05
5.18494e-05
3.79792e-05
2.77139e-05
2.01268e-05
1.45173e-05
1.03561e-05
7.24255e-06
4.87039e-06
3.00269e-06
1.44584e-06
1.13767e-06
2.36182e-06
3.82907e-06
5.69062e-06
8.13107e-06
1.13885e-05
1.57741e-05
2.16978e-05
2.97011e-05
4.04988e-05
5.50318e-05
7.45336e-05
0.000100614
0.000135361
0.000181468
0.000242386
0.000322501
0.000427344
0.000563828
0.000740508
0.000967847
0.00125849
0.0016275
0.00209253
0.00267385
0.00339428
0.00427871
0.00535342
0.0066448
0.00817779
0.00997311
0.0120446
0.014395
0.017012
0.0198635
0.0228934
0.0260178
0.0291234
0.0320701
0.0346982
0.0368456
0.0383723
0.0391608
0.0393309
0.0393309
0.0391208
0.0388595
0.0385727
0.0383329
0.0392202
0.0392202
0.0385211
0.0369729
0.037105
0.0372174
0.0374601
0.0376676
0.0376676
0.037615
0.0371116
0.0360553
0.0344307
0.0322857
0.0297241
0.0268763
0.0238832
0.0208758
0.017966
0.0152398
0.0127551
0.0105445
0.00861868
0.00697213
0.00558673
0.00443786
0.0034973
0.00273603
0.00212614
0.00164202
0.00126089
0.0009631
0.000732017
0.000553819
0.000417196
0.000313005
0.000233939
0.000174214
0.000129292
9.56363e-05
7.05148e-05
5.18253e-05
3.79615e-05
2.7701e-05
2.01174e-05
1.45106e-05
1.03513e-05
7.23922e-06
4.86816e-06
3.00132e-06
1.44517e-06
1.13749e-06
2.36145e-06
3.82848e-06
5.68972e-06
8.12977e-06
1.13867e-05
1.57716e-05
2.16943e-05
2.96962e-05
4.04921e-05
5.50226e-05
7.45212e-05
0.000100597
0.000135339
0.000181439
0.000242347
0.000322451
0.000427279
0.000563747
0.000740405
0.000967721
0.00125834
0.00162732
0.00209232
0.00267363
0.00339404
0.00427848
0.00535322
0.00664471
0.0081778
0.00997331
0.0120449
0.0143954
0.0170129
0.0198651
0.0228958
0.0260213
0.0291286
0.0320778
0.0347106
0.0368659
0.0384201
0.0392186
0.0394418
0.0394418
0.039292
0.0391595
0.0390258
0.0390258
0.039039
0.039039
0.0378485
0.0373251
0.0371979
0.0373064
0.0375221
0.0377026
0.0377026
0.0376341
0.0371237
0.0360642
0.0344371
0.0322912
0.0297284
0.0268796
0.0238851
0.0208772
0.0179672
0.0152401
0.0127548
0.0105439
0.00861794
0.00697115
0.00558575
0.00443696
0.0034965
0.00273535
0.00212558
0.00164156
0.00126052
0.000962811
0.000731791
0.000553646
0.000417064
0.000312905
0.000233864
0.000174158
0.00012925
9.56059e-05
7.04925e-05
5.18091e-05
3.79498e-05
2.76926e-05
2.01114e-05
1.45063e-05
1.03483e-05
7.23713e-06
4.86677e-06
3.00047e-06
1.44476e-06
)
;

boundaryField
{
    sides1
    {
        type            calculated;
        value           uniform 0;
    }
    sides2
    {
        type            calculated;
        value           uniform 0;
    }
    empty
    {
        type            empty;
    }
}


// ************************************************************************* //
