/*--------------------------------*- C++ -*----------------------------------*\
| =========                 |                                                 |
| \\      /  F ield         | OpenFOAM: The Open Source CFD Toolbox           |
|  \\    /   O peration     | Version:  3.0.1                                 |
|   \\  /    A nd           | Web:      www.OpenFOAM.org                      |
|    \\/     M anipulation  |                                                 |
\*---------------------------------------------------------------------------*/
FoamFile
{
    version     2.0;
    format      ascii;
    class       volScalarField;
    location    "0.00015";
    object      p;
}
// * * * * * * * * * * * * * * * * * * * * * * * * * * * * * * * * * * * * * //

dimensions      [1 -1 -2 0 0 0 0];

internalField   nonuniform List<scalar> 
1000
(
68969.6
68969.6
68969.5
68969.3
68969.1
68968.8
68968.4
68967.8
68967
68965.8
68964.4
68962.3
68959.6
68956
68951.2
68944.8
68936.4
68925.3
68910.8
68892
68867.6
68836.3
68796.3
68745.5
68681.7
68602
68503.3
68382.3
68235.5
68059.4
67850.8
67606.8
67325.8
67007.6
66654.1
66269.9
65863
65445.1
65032.1
64643.1
64300
64021.5
63841.9
63729.8
63706.4
63701.5
63714.4
63733.1
63757.2
63756
63721.1
63711.5
63719.6
63727.5
63747.2
63763.7
63757.5
63731.9
63652.5
63503.9
63283.7
62998.5
62661.8
62291.4
61906
61522.8
61155.9
60815.4
60508
60236.7
60002.1
59802.8
59635.9
59498.1
59385.7
59295
59222.4
59164.9
59119.6
59084.3
59056.9
59035.8
59019.5
59007.2
58997.8
58990.7
58985.4
58981.4
58978.4
58976.2
58974.5
58973.3
58972.4
58971.8
58971.3
58971
58970.7
58970.6
58970.5
58970.4
68969.6
68969.6
68969.5
68969.3
68969.1
68968.8
68968.4
68967.8
68967
68965.9
68964.4
68962.3
68959.6
68956
68951.2
68944.8
68936.4
68925.3
68910.8
68892
68867.6
68836.3
68796.3
68745.6
68681.7
68602
68503.3
68382.4
68235.6
68059.6
67850.9
67606.9
67325.9
67007.7
66654.2
66269.9
65862.9
65444.9
65031.8
64642.8
64299.8
64022.5
63841.3
63730.1
63707.2
63702.5
63714.2
63736.9
63746.3
63753.8
63708.1
63720
63723.7
63727.4
63749
63765.6
63758.1
63733.9
63654.7
63505.7
63285.2
62999.5
62662.2
62291.5
61905.9
61522.6
61155.6
60815.1
60507.7
60236.5
60001.9
59802.6
59635.8
59498
59385.6
59294.9
59222.4
59164.8
59119.6
59084.3
59056.9
59035.7
59019.5
59007.2
58997.8
58990.7
58985.4
58981.4
58978.4
58976.2
58974.5
58973.3
58972.4
58971.8
58971.3
58971
58970.7
58970.6
58970.5
58970.4
68969.6
68969.6
68969.5
68969.3
68969.1
68968.8
68968.4
68967.8
68967
68965.9
68964.4
68962.3
68959.6
68956
68951.2
68944.8
68936.4
68925.3
68910.8
68892
68867.6
68836.3
68796.3
68745.6
68681.8
68602.1
68503.4
68382.5
68235.7
68059.7
67851
67607
67326
67007.7
66654.1
66269.7
65862.6
65444.6
65031.3
64642.2
64299.2
64020.8
63839.5
63725.8
63701
63694.2
63706.5
63723.1
63750.4
63763.9
63724.9
63718.8
63720.5
63724.7
63743
63762.7
63757.4
63735.3
63657.5
63508.9
63288
63001.7
62664
62292.6
61906.4
61522.6
61155.4
60814.8
60507.3
60236.1
60001.6
59802.3
59635.6
59497.9
59385.5
59294.8
59222.3
59164.8
59119.6
59084.3
59056.9
59035.7
59019.5
59007.2
58997.8
58990.7
58985.4
58981.4
58978.4
58976.2
58974.5
58973.3
58972.4
58971.8
58971.3
58971
58970.7
58970.6
58970.5
58970.4
68969.6
68969.6
68969.5
68969.3
68969.1
68968.8
68968.4
68967.8
68967
68965.9
68964.4
68962.3
68959.6
68956
68951.2
68944.8
68936.4
68925.3
68910.9
68892
68867.7
68836.4
68796.4
68745.7
68681.9
68602.2
68503.5
68382.6
68235.9
68059.8
67851.2
67607.2
67326.1
67007.8
66654.1
66269.6
65862.4
65444.2
65031
64642.1
64299.2
64021.4
63838.5
63725.4
63700.6
63695
63705.9
63729.2
63742.9
63758.3
63713.3
63722.5
63720.7
63725.4
63748.3
63767.5
63762.1
63740.5
63662.4
63513.1
63291.2
63003.8
62665
62293
61906.4
61522.4
61155
60814.4
60506.9
60235.8
60001.3
59802.1
59635.4
59497.7
59385.4
59294.7
59222.2
59164.7
59119.5
59084.2
59056.8
59035.7
59019.5
59007.2
58997.8
58990.7
58985.4
58981.4
58978.4
58976.2
58974.5
58973.3
58972.4
58971.8
58971.3
58971
58970.7
58970.6
58970.5
58970.4
68969.6
68969.6
68969.5
68969.3
68969.1
68968.8
68968.4
68967.8
68967
68965.9
68964.4
68962.3
68959.6
68956
68951.2
68944.8
68936.4
68925.4
68910.9
68892.1
68867.7
68836.4
68796.4
68745.7
68681.9
68602.2
68503.6
68382.7
68236
68060
67851.3
67607.3
67326.2
67007.9
66654.1
66269.5
65862.2
65443.8
65030.3
64641.4
64298.6
64020.8
63836.7
63722.3
63696.2
63687.2
63695.4
63720.4
63736.5
63755.9
63719.5
63723.8
63722.2
63730.1
63753.3
63772.1
63766.9
63745.5
63667.1
63517.4
63294.2
63005.5
62665.9
62293.5
61906.6
61522.4
61154.9
60814.2
60506.7
60235.5
60001
59801.8
59635.1
59497.5
59385.2
59294.6
59222.1
59164.6
59119.5
59084.2
59056.8
59035.7
59019.5
59007.1
58997.8
58990.7
58985.4
58981.4
58978.4
58976.2
58974.5
58973.3
58972.4
58971.8
58971.3
58971
58970.7
58970.6
58970.5
58970.4
68969.6
68969.6
68969.5
68969.3
68969.1
68968.8
68968.4
68967.8
68967
68965.9
68964.4
68962.4
68959.7
68956
68951.2
68944.9
68936.4
68925.4
68910.9
68892.1
68867.7
68836.4
68796.5
68745.8
68682
68602.3
68503.7
68382.8
68236.1
68060.1
67851.4
67607.4
67326.3
67007.9
66654
66269.4
65861.9
65443.5
65030
64640.9
64297.8
64019.7
63834.9
63720
63693.8
63685.8
63694.7
63719.6
63736
63756.3
63721.4
63725.2
63723.8
63729.6
63754.1
63774
63768.7
63748.7
63669.9
63519.3
63295.7
63006.9
62667.3
62294.6
61907.3
61522.9
61155.2
60814.3
60506.7
60235.4
60000.9
59801.7
59635
59497.4
59385.1
59294.5
59222
59164.6
59119.4
59084.1
59056.7
59035.6
59019.5
59007.1
58997.8
58990.7
58985.4
58981.4
58978.4
58976.2
58974.5
58973.3
58972.4
58971.8
58971.3
58971
58970.7
58970.6
58970.5
58970.4
68969.6
68969.6
68969.5
68969.3
68969.1
68968.8
68968.4
68967.8
68967
68965.9
68964.4
68962.4
68959.7
68956
68951.2
68944.9
68936.4
68925.4
68910.9
68892.1
68867.8
68836.5
68796.5
68745.8
68682
68602.4
68503.8
68382.9
68236.2
68060.1
67851.5
67607.4
67326.3
67007.9
66654
66269.3
65861.7
65443.1
65029.3
64639.8
64296.2
64017.9
63833.7
63720.3
63694.8
63687.9
63697.3
63723.2
63733.2
63751.1
63710.2
63724.5
63721.6
63726.6
63749.4
63769.6
63764.6
63745.2
63667.8
63519.2
63296.8
63008.6
62668.8
62295.9
61908.5
61523.8
61155.8
60814.7
60507
60235.6
60001
59801.7
59635
59497.3
59385
59294.4
59221.9
59164.5
59119.3
59084.1
59056.7
59035.6
59019.4
59007.1
58997.7
58990.7
58985.3
58981.4
58978.4
58976.2
58974.5
58973.3
58972.4
58971.8
58971.3
58971
58970.7
58970.6
58970.5
58970.4
68969.6
68969.6
68969.5
68969.3
68969.1
68968.8
68968.4
68967.8
68967
68965.9
68964.4
68962.4
68959.7
68956
68951.2
68944.9
68936.4
68925.4
68910.9
68892.1
68867.8
68836.5
68796.5
68745.9
68682.1
68602.4
68503.8
68382.9
68236.2
68060.1
67851.4
67607.4
67326.2
67007.7
66653.8
66269
65861.4
65442.7
65028.8
64638.9
64295
64015.4
63832.5
63717.9
63692.6
63685
63698
63714.7
63744.1
63760.7
63723.3
63719.5
63721.8
63726.7
63746.5
63767.7
63763.4
63741.9
63665.1
63516.8
63295.7
63008.5
62669.4
62296.7
61909.3
61524.6
61156.5
60815.2
60507.3
60235.8
60001.1
59801.8
59635
59497.3
59385
59294.4
59221.9
59164.5
59119.3
59084
59056.7
59035.6
59019.4
59007.1
58997.7
58990.7
58985.3
58981.4
58978.4
58976.2
58974.5
58973.3
58972.4
58971.8
58971.3
58971
58970.7
58970.6
58970.5
58970.4
68969.6
68969.6
68969.5
68969.3
68969.1
68968.8
68968.4
68967.8
68967
68965.9
68964.4
68962.4
68959.7
68956.1
68951.2
68944.9
68936.5
68925.4
68910.9
68892.1
68867.8
68836.5
68796.5
68745.9
68682.1
68602.4
68503.8
68382.9
68236.2
68060.1
67851.4
67607.3
67326.1
67007.6
66653.6
66268.8
65861.1
65442.3
65028.3
64638.3
64294.4
64015.8
63833.1
63720.3
63697
63692.7
63705.8
63731.2
63742.5
63753.9
63709.1
63721.1
63724.1
63725.9
63747.6
63766.3
63761.2
63739.9
63663.2
63515.6
63295.3
63008.8
62670.2
62297.8
61910.4
61525.5
61157.2
60815.8
60507.7
60236.1
60001.3
59801.9
59635
59497.3
59385
59294.3
59221.9
59164.4
59119.3
59084
59056.7
59035.6
59019.4
59007.1
58997.7
58990.7
58985.3
58981.4
58978.4
58976.2
58974.5
58973.3
58972.4
58971.8
58971.3
58971
58970.7
58970.6
58970.5
58970.4
68969.6
68969.6
68969.5
68969.3
68969.1
68968.8
68968.4
68967.8
68967
68965.9
68964.4
68962.4
68959.7
68956.1
68951.2
68944.9
68936.5
68925.4
68910.9
68892.1
68867.8
68836.5
68796.6
68745.9
68682.1
68602.4
68503.8
68382.9
68236.2
68060.1
67851.3
67607.2
67326
67007.5
66653.5
66268.6
65860.9
65442
65027.8
64637.6
64293.4
64013.9
63832
63718.2
63694.5
63690
63704.7
63727.5
63754.2
63762.5
63719.5
63717.6
63721.3
63726.6
63745.3
63765.8
63761.8
63739.9
63663.5
63516.1
63296
63009.6
62671
62298.5
61911.1
61526.1
61157.7
60816.1
60507.9
60236.2
60001.3
59801.9
59635
59497.3
59385
59294.3
59221.8
59164.4
59119.2
59084
59056.6
59035.6
59019.4
59007.1
58997.7
58990.7
58985.3
58981.3
58978.4
58976.2
58974.5
58973.3
58972.4
58971.8
58971.3
58971
58970.7
58970.6
58970.5
58970.4
)
;

boundaryField
{
    sides1
    {
        type            zeroGradient;
    }
    sides2
    {
        type            slip;
    }
    empty
    {
        type            empty;
    }
}


// ************************************************************************* //
