/*--------------------------------*- C++ -*----------------------------------*\
| =========                 |                                                 |
| \\      /  F ield         | OpenFOAM: The Open Source CFD Toolbox           |
|  \\    /   O peration     | Version:  2012                                  |
|   \\  /    A nd           | Website:  www.openfoam.com                      |
|    \\/     M anipulation  |                                                 |
\*---------------------------------------------------------------------------*/
FoamFile
{
    version     2.0;
    format      ascii;
    class       volScalarField;
    location    "7e-05";
    object      pcorr;
}
// * * * * * * * * * * * * * * * * * * * * * * * * * * * * * * * * * * * * * //

dimensions      [1 -1 -2 0 0 0 0];


internalField   nonuniform List<scalar> 
5000
(
0
0
0
0
0
0
0
0
0
0
0
0
0
0
0
0
0
0
0
0
0
0
0
0
0
0
0
0
0
0
0
0
0
0
0
0
0
0
0
0
0
0
0
0
0
0
0
0
0
0
0
0
0
0
0
0
0
0
0
0
0
0
0
0
0
0
0
0
0
0
0
0
0
0
0
0
0
0
0
0
0
0
0
0
0
0
0
0
0
0
0
0
0
0
0
0
0
0
0
0
0
0
0
0
0
0
0
0
0
0
0
0
0
0
0
0
0
0
0
0
0
0
0
0
0
0
0
0
0
0
0
0
0
0
0
0
0
0
0
0
0
0
0
0
0
0
0
0
0
0
0
0
0
0
0
0
0
0
0
0
0
0
0
0
0
0
0
0
0
0
0
0
0
0
0
0
0
0
0
0
0
0
0
0
0
0
0
0
0
0
0
0
0
0
0
0
0
0
0
0
0
0
0
0
0
0
0
0
0
0
0
0
0
0
0
0
0
0
0
0
0
0
0
0
0
0
0
0
0
0
0
0
0
0
0
0
0
0
0
0
0
0
0
0
0
0
0
0
0
0
0
0
0
0
0
0
0
0
0
0
0
0
0
0
0
0
0
0
0
0
0
0
0
0
0
0
0
0
0
0
0
0
0
0
0
0
0
0
0
0
0
0
0
0
0
0
0
0
0
0
0
0
0
0
0
0
0
0
0
0
0
0
0
0
0
0
0
0
0
0
0
0
0
0
0
0
0
0
0
0
0
0
0
0
0
0
0
0
0
0
0
0
0
0
0
0
0
0
0
0
0
0
0
0
0
0
0
0
0
0
0
0
0
0
0
0
0
0
0
0
0
0
0
0
0
0
0
0
0
0
0
0
0
0
0
0
0
0
0
0
0
0
0
0
0
0
0
0
0
0
0
0
0
0
0
0
0
0
0
0
0
0
0
0
0
0
0
0
0
0
0
0
0
0
0
0
0
0
0
0
0
0
0
0
0
0
0
0
0
0
0
0
0
0
0
0
0
0
0
0
0
0
0
0
0
0
0
0
0
0
0
0
0
0
0
0
0
0
0
0
0
0
0
0
0
0
0
0
0
0
0
0
0
0
0
0
0
0
0
0
0
0
0
0
0
0
0
0
0
0
0
0
0
0
0
0
0
0
0
0
0
0
0
0
0
0
0
0
0
0
0
0
0
0
0
0
0
0
0
0
0
0
0
0
0
0
0
0
0
0
0
0
0
0
0
0
0
0
0
0
0
0
0
0
0
0
0
0
0
0
0
0
0
0
0
0
0
0
0
0
0
0
0
0
0
0
0
0
0
0
0
0
0
0
0
0
0
0
0
0
0
0
0
0
0
0
0
0
0
0
0
0
0
0
0
0
0
0
0
0
0
0
0
0
0
0
0
0
0
0
0
0
0
0
0
0
0
0
0
0
0
0
0
0
0
0
0
0
0
0
0
0
0
0
0
0
0
0
0
0
0
0
0
0
0
0
0
0
0
0
0
0
0
0
0
0
0
0
0
0
0
0
0
0
0
0
0
0
0
0
0
0
0
0
0
0
0
0
0
0
0
0
0
0
0
0
0
0
0
0
0
0
0
0
0
0
0
0
0
0
0
0
0
0
0
0
0
0
0
0
0
0
0
0
0
0
0
0
0
0
0
0
0
0
0
0
0
0
0
0
0
0
0
0
0
0
0
0
0
0
0
0
0
0
0
0
0
0
0
0
0
0
0
0
0
0
0
0
0
0
0
0
0
0
0
0
0
0
0
0
0
0
0
0
0
0
0
0
0
0
0
0
0
0
0
0
0
0
0
0
0
0
0
0
0
0
0
0
0
0
0
0
0
0
0
0
0
0
0
0
0
0
0
0
0
0
0
0
0
0
0
0
0
0
0
0
0
0
0
0
0
0
0
0
0
0
0
0
0
0
0
0
0
0
0
0
0
0
0
0
0
0
0
0
0
0
0
0
0
0
0
0
0
0
0
0
0
0
0
0
0
0
0
0
0
0
0
0
0
0
0
0
0
0
0
0
0
0
0
0
0
0
0
0
0
0
0
0
0
0
0
0
0
0
0
0
0
0
0
0
0
0
0
0
0
0
0
0
0
0
0
0
0
0
0
0
0
0
0
0
0
0
0
0
0
0
0
0
0
0
0
0
0
0
0
0
0
0
0
0
0
0
0
0
0
0
0
0
0
0
0
0
0
0
0
0
0
0
0
0
0
0
0
0
0
0
0
0
0
0
0
0
0
0
0
0
0
0
0
0
0
0
0
0
0
0
0
0
0
0
0
0
0
0
0
0
0
0
0
0
0
0
0
0
0
0
0
0
0
0
0
0
0
0
0
0
0
0
0
0
0
0
0
0
0
0
0
0
0
0
0
0
0
0
0
0
0
0
0
0
0
0
0
0
0
0
0
0
0
0
0
0
0
0
0
0
0
0
0
0
0
0
0
0
0
0
0
0
0
0
0
0
0
0
0
0
0
0
0
0
0
0
0
0
0
0
0
0
0
0
0
0
0
0
0
0
0
0
0
0
0
0
0
0
0
0
0
0
0
0
0
0
0
0
0
0
0
0
0
0
0
0
0
0
0
0
0
0
0
0
0
0
0
0
0
0
0
0
0
0
0
0
0
0
0
0
0
0
0
0
0
0
0
0
0
0
0
0
0
0
0
0
0
0
0
0
0
0
0
0
0
0
0
0
0
0
0
0
0
0
0
0
0
0
0
0
0
0
0
0
0
0
0
0
0
0
0
0
0
0
0
0
0
0
0
0
0
0
0
0
0
0
0
0
0
0
0
0
0
0
0
0
0
0
0
0
0
0
0
0
0
0
0
0
0
0
0
0
0
0
0
0
0
0
0
0
0
0
0
0
0
0
0
0
0
0
0
0
0
0
0
0
0
0
0
0
0
0
0
0
0
0
0
0
0
0
0
0
0
0
0
0
0
0
0
0
0
0
0
0
0
0
0
0
0
0
0
0
0
0
0
0
0
0
0
0
0
0
0
0
0
0
0
0
0
0
0
0
0
0
0
0
0
0
0
0
0
0
0
0
0
0
0
0
0
0
0
0
0
0
0
0
0
0
0
0
0
0
0
0
0
0
0
0
0
0
0
0
0
-6.973337919e-08
-6.777231006e-08
-1.059857034e-07
-2.354310119e-07
-2.118926629e-07
-9.487878062e-09
1.456952841e-07
1.348431305e-07
-2.36127653e-08
7.890310318e-08
4.016586889e-07
6.20714924e-07
7.532468741e-07
8.500239752e-07
1.10850568e-06
1.58539682e-06
2.040215885e-06
2.443003456e-06
2.923172822e-06
3.38042799e-06
3.954896025e-06
4.584661104e-06
4.990398336e-06
5.373455188e-06
5.854475304e-06
6.395775438e-06
6.755371399e-06
7.051816699e-06
7.416732119e-06
7.715192929e-06
7.800130555e-06
7.994708496e-06
8.30247951e-06
8.470373993e-06
8.430836453e-06
8.509278147e-06
8.750628826e-06
9.173793122e-06
9.553526003e-06
1.000960376e-05
1.050035541e-05
1.106087119e-05
1.154074593e-05
1.217529129e-05
1.281749462e-05
1.364238096e-05
1.453381695e-05
1.555313078e-05
1.654700291e-05
1.753018519e-05
1.861453878e-05
1.989830731e-05
2.098522572e-05
2.212752829e-05
2.327878708e-05
2.431774097e-05
2.530398145e-05
2.634234953e-05
2.755390937e-05
2.892831435e-05
3.036507675e-05
3.14398574e-05
3.257435018e-05
3.343621298e-05
3.453875465e-05
3.582907585e-05
3.714945773e-05
3.834091619e-05
3.935637415e-05
4.018786958e-05
4.131626952e-05
4.261969348e-05
4.397296965e-05
4.523274704e-05
4.651092935e-05
4.758395041e-05
4.87343694e-05
4.976957471e-05
5.069512394e-05
5.171859633e-05
5.278658444e-05
5.360098715e-05
5.439033523e-05
5.509054655e-05
5.573790583e-05
5.634374645e-05
5.690248003e-05
5.728288327e-05
5.7658798e-05
5.79076589e-05
5.810609389e-05
5.825336489e-05
5.854255814e-05
5.865620101e-05
5.868090673e-05
5.860142386e-05
5.843545792e-05
5.810212754e-05
5.795800546e-05
5.791277159e-05
5.777848945e-05
5.765836977e-05
5.74001659e-05
5.716719466e-05
5.707187529e-05
5.678599929e-05
5.632961299e-05
5.601812726e-05
5.583655004e-05
5.557175713e-05
5.527349269e-05
5.495633598e-05
5.466673183e-05
5.433377602e-05
5.411370259e-05
5.39395765e-05
5.351492991e-05
5.281561779e-05
5.211766828e-05
5.138886832e-05
5.058535765e-05
4.969306578e-05
233.0602923
456.9357128
447.885949
439.1446624
613.7886449
821.551047
1029.650657
1225.692878
1427.073301
1597.591007
1748.023998
1901.939739
2070.286586
2250.516019
2452.386243
2654.014115
2839.840477
3008.833806
3187.404006
3372.345159
3593.787203
3811.695914
4011.426106
4235.221653
4454.020261
4675.578016
4906.059144
5119.427149
5342.934562
5549.59873
5757.237107
5995.786965
6238.943205
6455.053908
6649.005215
6844.054738
7048.111245
7243.269044
7433.10485
7631.552938
7836.849889
8044.273393
8259.229039
8491.373884
8721.495566
8937.427776
9133.194345
9320.008243
9514.620068
9712.082934
9926.20274
10161.19331
10394.97756
10627.96112
10847.843
11060.02073
11261.32559
11454.60354
11659.55963
11897.35403
12190.88148
12463.61288
12690.76182
12909.91897
13141.39752
13382.16629
13628.48864
13865.76823
14094.59648
14324.89546
14571.90142
14835.11887
15105.12069
15355.49327
15578.3892
15793.8052
16003.13462
16215.80271
16441.87969
16670.1347
16872.89336
17063.60276
17248.73791
17436.62191
17624.55154
17803.62397
17972.88839
18155.95079
18363.39146
18584.8987
18800.31695
19002.18723
19192.78245
19379.68917
19564.45976
19754.0289
19967.95797
20188.69151
20396.09505
20598.80141
20798.36179
21005.26969
21232.85519
21461.78967
21670.73254
21870.1464
22086.7569
22296.80758
22521.29434
22766.53797
23014.6771
23255.09429
23471.95895
23681.09412
23904.64703
24141.72313
24401.39131
24675.68983
24937.68864
25190.79341
25447.77204
25699.38359
25926.56465
26180.61603
26443.11966
26663.95523
26882.64745
27120.26357
27355.39425
27588.7514
27824.92254
28045.17612
28249.46372
28450.8258
28650.41938
28867.30896
29092.04337
29295.00093
29489.61167
29695.723
29920.54455
30155.11005
30394.85466
30624.16322
30834.85157
31047.39518
31263.62462
31488.24124
31709.45612
31903.79578
32098.54705
32298.36311
32499.36642
32693.04048
32888.42574
33090.93443
33303.38964
33557.79273
33850.78943
34107.60806
34341.59998
34601.47777
34923.23507
35241.41884
35530.46577
35810.98353
36077.7364
36320.75329
36537.05893
36757.76533
37026.19944
37302.23827
37528.773
37746.65813
37957.37899
38155.82018
38340.7499
38525.6095
38716.37888
38907.75051
39110.88804
39332.18645
39588.38366
39885.2586
40173.57911
40411.24411
40608.37939
40801.04821
41008.68438
41216.15828
41428.20077
41639.30866
41852.02179
42085.21241
42326.55073
42555.07946
42765.63952
42961.79283
43146.76088
43352.86271
43581.67238
43803.97386
44027.88121
44261.30623
44503.71489
44755.0748
44992.29209
45220.82815
45424.17318
45611.44852
45805.87372
45986.82912
46176.41853
46406.63187
46639.76489
46841.00465
47052.11905
47278.56461
47496.38243
47735.73184
47979.47658
48197.81183
48413.44813
48628.7858
48825.22838
49014.39699
49194.57888
49376.57824
49568.49582
49773.25474
49989.3978
50201.91655
50389.11408
50570.77114
50749.07193
50917.08458
51087.29282
51263.82671
51463.42041
51680.10179
51915.02331
52140.16898
52328.45313
52507.17524
52706.30555
52914.27437
53116.8521
53318.22978
53534.27359
53768.70633
53994.24424
54199.56188
54394.09995
54593.80187
54807.15775
55033.73857
55273.72073
55523.84464
55754.76978
55954.69406
56153.58715
56391.13118
56686.93538
56977.55085
57233.35239
57475.85932
57728.80931
57984.14616
58232.20105
58470.35603
58680.44504
58882.31638
59074.0154
59270.7924
59482.18901
59693.19489
59914.30117
60159.23622
60404.08415
60632.65654
60838.44807
61042.82488
61248.70291
61453.97943
61631.01393
61791.97309
61949.69568
62100.2489
62251.0156
62405.24577
62569.00505
62756.10731
62976.58201
63191.76549
63399.30257
63627.23714
63840.33565
64039.88244
64263.74709
64478.68021
64692.60212
64939.0055
65236.1713
65498.80109
65705.06515
65910.06648
66108.91683
66292.64277
66498.03679
66723.35301
66942.17679
67137.42491
67315.15259
67502.29908
67706.75025
67912.65342
68130.17286
68390.54763
68633.37942
68846.50319
69055.90986
69251.27806
69445.78023
69649.47569
69854.03016
70065.88995
70266.54434
70452.92592
70643.11641
70854.52448
71070.67727
71262.96827
71459.2977
71649.15187
71823.13384
71995.15514
72169.18748
72359.63634
72572.20432
72784.27531
72979.23373
73164.54419
73338.37064
73514.8923
73709.14669
73909.7957
74120.64181
74327.31946
74533.69685
74750.4568
74987.71219
75241.49031
75510.3191
75764.40098
76004.73745
76225.88211
76418.82608
76617.472
76822.70229
77026.40332
77238.89839
77458.30051
77655.77361
77856.1818
78079.37142
78311.10477
78540.4423
78735.71509
78914.15591
79129.69066
79347.16938
79543.18579
79747.83544
79959.15096
80176.75568
80381.26609
80600.78272
80824.3596
81057.51358
81287.14564
81503.30495
81733.47466
81960.08914
82190.19924
82428.90553
82671.55109
82921.34407
83163.24057
83393.02109
83620.39233
83842.08227
84069.67236
84301.04986
84541.96142
84793.46727
85046.98122
85311.8986
85580.35162
85813.45406
86030.29881
86249.68085
86469.34966
86659.41791
86839.25412
87031.42735
87237.86752
87451.13149
87646.79717
87827.96857
88013.8436
88210.43079
88418.82129
88641.53524
88859.34027
89061.44526
89247.52876
89422.17793
89599.7177
89796.32867
89998.99423
90200.97325
90410.32058
90639.43962
90873.53495
91108.85612
91324.10631
91527.38103
91730.02004
91931.25072
92142.58002
92340.55121
92540.08988
92761.95052
92992.74429
93213.25055
93440.16889
93712.08898
93994.43017
94258.7911
94531.69017
94802.97787
95070.11872
95311.2223
95513.01128
95714.63551
95910.00424
96092.45665
96284.90269
96478.27233
96684.04272
96915.84621
97143.60443
97371.6753
97599.11068
97822.8292
98054.642
98283.3879
98503.66608
98728.95267
98957.55374
99184.24584
99409.68863
99598.54839
99779.18344
99961.50133
100137.9663
100318.1861
100489.2403
100659.7796
100847.2046
101048.5937
101260.5012
101477.8667
101688.5726
101868.9895
102044.897
102208.9941
102367.8338
102543.6015
102738.7018
102940.7662
103140.8068
103323.5482
103494.0038
103684.21
103861.4008
104049.3434
104261.8216
104487.9088
104704.851
104900.5489
105093.5619
105287.8271
105499.0574
105719.0998
105933.522
106143.9754
106344.7019
106541.0396
106762.8734
106991.4248
107203.2198
107399.1408
107585.537
107782.6355
107995.8698
108206.5869
108399.8663
108566.7326
108735.1448
108921.0159
109120.5306
109344.1568
109563.0162
109768.3138
109962.291
110150.0988
110339.9702
110546.987
110769.0518
110997.0826
111218.852
111439.0619
111642.7484
111818.9337
111989.9346
112148.7184
112323.6169
112520.6908
112725.5242
112948.6118
113152.803
113354.4399
113562.9301
113772.6035
113987.2144
114212.2346
114436.6296
114630.506
114824.714
115041.5387
115269.5216
115486.8048
115697.9403
115905.8515
116109.5041
116324.3019
116537.1581
116717.8024
116904.5196
117103.683
117304.0282
117504.8567
117690.6185
117855.3734
118016.0037
118201.9528
118395.6529
118595.8786
118816.083
119018.0517
119199.0736
119396.6276
119624.6631
119896.6357
120168.6242
120393.4177
120600.0809
120822.0102
121024.1114
121217.773
121420.821
121646.5171
121902.5918
122199.3955
122496.2266
122745.6711
122961.8028
123126.994
123284.7222
123455.9815
123635.0233
123813.9154
123989.0623
124161.0006
124352.1819
124530.9841
124694.4453
124843.4842
124997.4474
125168.9072
125362.3837
125589.0472
125815.7071
126035.7558
126236.794
126437.2759
126633.7962
126835.3147
127038.3367
127244.8008
127465.5771
127726.4557
127997.8875
128234.0879
128457.0711
128647.8909
128814.5602
128987.2021
129173.78
129424.0227
129707.2397
129936.0882
130133.021
130343.4591
130573.2525
130820.9622
131073.0619
131310.4921
131561.2198
131822.6986
132084.1747
132334.9388
132555.1057
132780.6884
133015.0795
133246.8389
133484.2333
133701.2327
133897.01
134061.6761
134223.5206
134386.164
134553.2841
134724.1206
134901.1658
135099.2811
135308.5757
135529.6125
135753.7803
135996.1196
136244.0442
136462.4638
136656.5663
136845.1211
137023.5987
137191.5772
137374.8948
137579.5242
137794.7329
137985.1391
138158.5374
138317.0919
138478.4126
138676.7697
138877.1773
139087.8408
139285.6592
139472.709
139674.8057
139891.8617
140114.5539
140319.8206
140510.1642
140707.5018
140907.8601
141118.6303
141347.9622
141572.9733
141781.9752
142000.9317
142206.84
142414.9228
142653.795
142900.9693
143169.8371
143441.1463
143681.8467
143879.7518
144066.1061
144256.1862
144446.1662
144648.9099
144881.4092
145114.8226
145329.4245
145555.0826
145779.7587
146025.0683
146295.5353
146544.4987
146782.8621
146996.7874
147182.8904
147350.9305
147526.1669
147700.5924
147880.8907
148076.2351
148279.001
148511.8213
148760.723
149006.7287
149250.2621
149486.8345
149704.7457
149938.8853
150185.4134
150433.8438
150670.9381
150876.4345
151073.9655
151268.6663
151460.1904
151641.2263
151825.7802
152023.2719
152252.6362
152525.5519
152774.623
152982.9212
153208.6134
153443.5802
153678.3863
153929.6952
154174.7828
154393.7621
154616.2175
154850.9558
155065.068
155304.5738
155553.144
155790.214
156014.5871
156242.7823
156454.3176
156656.6093
156859.689
157035.973
157208.9154
157362.4206
157528.0911
157728.5673
157943.2276
158173.8209
158385.6733
158591.4117
158794.9117
159010.2129
159239.5291
159484.747
159743.5506
159975.0918
160169.4841
160332.1675
160511.1715
160699.6537
160910.0181
161154.2439
161414.7391
161703.7788
161976.1534
162226.9216
162470.7158
162704.8272
162927.111
163131.237
163326.301
163509.2592
163704.0773
163895.2204
164079.5072
164239.5615
164403.0149
164576.0305
164745.3304
164934.4805
165108.819
165307.7123
165503.6837
165700.1042
165927.9172
166148.2058
166359.522
166548.5727
166724.0975
166891.3954
167071.8611
167274.1384
167490.1021
167693.3233
167873.7745
168067.7678
168273.1146
168474.6984
168680.131
168869.073
169048.2149
169237.1515
169417.5589
169602.4
169799.8318
170012.0075
170228.0016
170428.0589
170609.7298
170768.5653
170918.8639
171074.7986
171246.3577
171430.8084
171620.2489
171815.2889
172003.8335
172199.94
172397.0291
172611.9653
172828.7742
173025.0109
173224.7261
173449.2013
173697.3474
173960.8705
174187.7717
174381.902
174583.6557
174802.6994
175029.363
175252.0762
175463.36
175666.0282
175862.1833
176079.8271
176317.4631
176562.9255
176793.2717
177031.3112
177267.0903
177477.6863
177690.2088
177902.8535
178119.8803
178343.0463
178568.2819
178775.7569
178984.6905
179170.4509
179357.7425
179577.9983
179786.9913
179989.395
180196.6655
180384.9067
180591.6625
180824.9632
181059.2597
181305.3384
181521.5287
181698.1518
181881.0553
182117.2163
182374.7491
182628.3572
182848.4727
183031.8946
183208.7496
183373.7274
183550.6764
183721.1215
183900.0364
184103.3073
184300.2363
184493.9452
184678.4331
184838.3053
184997.3955
185159.7449
185315.0547
185484.7223
185661.0649
185856.5957
186052.3211
186227.2726
186401.1451
186565.8376
186733.1046
186923.8701
187113.9919
187313.7486
187512.932
187717.4485
187921.8333
188120.4338
188318.9251
188504.2891
188689.5119
188880.0271
189070.3988
189269.4593
189468.3482
189681.1464
189893.7013
190100.3869
190306.8163
190489.8848
190672.759
190846.5873
191020.236
191189.6838
191358.9112
191531.9266
191704.7105
191882.3503
192059.7466
192236.434
192412.8535
192592.5512
192771.9744
192955.4226
193138.567
193315.7361
193492.5601
193658.8899
193824.8734
194009.8876
194194.5209
194400.7991
194606.6262
194806.6117
195006.1048
195203.2323
195399.8284
195595.186
195789.9287
195978.8979
196167.2209
196357.3265
196546.7897
196735.8937
196924.2383
197104.6796
197284.2431
197460.0035
197634.5144
197816.5449
197999.3025
198195.8701
198398.9766
198616.9391
198840.5812
199069.7953
199302.9765
199517.7067
199734.3129
199938.9137
200144.4621
200352.2364
200560.5663
200767.8683
200975.2624
201191.1033
201406.4978
201605.8153
201803.8342
201983.8421
202160.9329
202355.6382
202547.9209
202762.4998
202974.8207
203186.3697
203393.2253
203581.8988
203769.8026
203939.8802
204109.1639
204280.8678
204451.7613
204638.7586
204825.5172
205010.708
205192.0744
205369.7922
205549.2884
205729.4693
205919.1162
206094.7107
206271.5701
206455.7107
206637.548
206826.6396
207015.157
207211.8712
207421.4995
207632.3009
207848.2214
208079.122
208312.8415
208519.7612
208606.7419
208198.9486
207980.4995
207782.595
207582.6421
207383.596
207185.0117
206982.522
206775.9874
206567.3353
206359.645
206154.2146
205952.4191
205752.7936
205554.257
205357.6367
205160.6645
204963.0222
204764.909
204566.2813
204367.2736
204167.8839
203968.198
203766.7945
203565.1414
203364.0311
203162.7102
202962.6962
202762.5147
202562.2936
202361.9318
202160.9998
201959.941
201756.978
201553.9002
201349.8687
201145.7379
200943.9501
200742.1254
200540.3271
200338.6223
200135.7668
199932.8747
199729.2283
199522.9659
199318.349
199120.6365
198926.2711
198731.0912
198536.4466
198337.6311
198138.2059
197940.0908
197735.0802
197522.9909
197303.7
197080.6777
196862.3831
196647.663
196431.0831
196216.9831
196004.9461
195789.0379
195578.1939
195379.8051
195184.6996
194987.469
194790.883
194590.0815
194383.5674
194180.2103
193980.5641
193776.3624
193565.3304
193351.1829
193137.3207
192926.174
192713.9458
192496.6735
192279.5389
192066.6825
191855.1856
191644.9405
191435.188
191226.4359
191018.4369
190810.1681
190601.7091
190392.8559
190180.3015
189964.5836
189748.4894
189531.9692
189320.6573
189114.0581
188907.7806
188700.8826
188495.9065
188291.9044
188088.3092
187885.094
187674.9253
187458.2997
187248.3335
187045.8513
186841.092
186634.2445
186429.3623
186223.6858
186016.1601
185807.9513
185595.8937
185379.4797
185166.1271
184953.6371
184734.2672
184521.8227
184323.2288
184125.9767
183926.8396
183726.0051
183516.5557
183301.6441
183085.0182
182863.3124
182638.1171
182417.2105
182205.9248
181999.5972
181795.9617
181594.275
181385.1177
181170.4543
180958.835
180748.5541
180541.1473
180335.3225
180134.1177
179935.2711
179725.4506
179513.2022
179310.8348
179109.1376
178908.0931
178713.993
178514.9837
178304.7828
178093.9966
177885.7516
177676.4794
177469.0677
177267.532
177067.1234
176868.8322
176671.8821
176469.3705
176261.7554
176053.6629
175846.536
175636.0779
175417.9891
175202.7224
174999.9054
174803.0518
174601.9296
174395.565
174188.5
173986.5576
173790.4684
173595.7384
173400.133
173198.3598
172989.2594
172777.5251
172568.1532
172357.5803
172143.5383
171932.8748
171724.5251
171515.7568
171305.2126
171092.6645
170878.7836
170663.5129
170448.3997
170228.8509
170013.2335
169811.7579
169612.1799
169403.3458
169190.4616
168981.4553
168781.6125
168585.0042
168381.8203
168170.7952
167955.3534
167744.4389
167541.7373
167341.785
167136.6753
166926.2056
166714.0374
166497.7773
166280.2431
166061.1196
165837.7395
165613.8529
165389.9698
165164.319
164938.6638
164718.5988
164503.5013
164284.0037
164063.6265
163848.8608
163634.6984
163422.5602
163213.9808
163007.3567
162804.0857
162605.481
162403.9859
162191.3278
161975.7943
161762.6008
161548.2392
161327.7594
161104.589
160887.9172
160677.4884
160470.5674
160269.1913
160070.5038
159869.55
159668.4907
159464.4677
159253.3943
159042.1894
158842.5037
158645.4067
158436.7732
158221.8205
158009.4745
157800.4431
157593.9622
157392.1767
157194.8299
156992.6354
156784.4398
156573.8742
156364.8059
156154.5053
155939.6436
155727.517
155512.6782
155294.8559
155078.9549
154860.206
154637.1596
154417.0823
154207.5831
154006.2007
153808.8141
153610.752
153413.9638
153216.2829
153012.121
152804.2681
152595.9505
152390.2625
152185.4177
151979.2686
151770.6905
151561.8213
151353.1453
151144.2621
150933.9169
150722.3121
150510.6449
150299.1387
150086.6567
149871.5354
149660.3632
149452.7634
149244.6821
149037.1382
148829.5391
148620.7153
148412.8814
148210.3407
148009.2914
147803.0652
147596.5813
147396.816
147198.7175
146994.1085
146782.9504
146564.5701
146342.836
146127.6755
145913.8086
145693.4579
145473.1556
145259.6022
145047.7273
144837.8473
144638.4598
144440.0337
144231.7516
144019.1298
143806.8974
143593.3843
143376.2146
143163.0228
142956.8063
142750.9167
142541.0675
142327.0605
142114.4153
141901.0642
141689.7308
141490.0461
141292.7015
141088.6398
140878.3781
140660.8328
140449.1241
140245.6923
140042.4195
139842.2716
139640.7414
139435.635
139225.4065
139009.8021
138797.8056
138588.3908
138379.9997
138173.8642
137969.928
137766.5203
137557.4254
137342.7809
137129.4072
136918.0552
136708.3499
136500.6703
136292.2729
136081.811
135874.5009
135671.4544
135465.2446
135253.0768
135033.611
134809.4177
134588.1094
134372.2862
134158.8879
133947.0844
133738.253
133528.121
133315.5244
133104.1261
132893.5551
132683.4897
132476.1192
132271.4606
132060.0271
131838.2062
131616.5371
131405.4566
131204.6848
131006.0499
130807.4151
130604.6678
130397.0415
130183.7307
129961.7517
129741.4288
129523.472
129301.5649
129081.8494
128866.9866
128654.0352
128446.0129
128244.3226
128041.1071
127837.3245
127638.8075
127439.2366
127231.6467
127020.426
126815.621
126612.5182
126401.7739
126187.4311
125975.0097
125764.4241
125554.8024
125344.0847
125134.1858
124926.367
124718.9427
124516.8347
124318.8367
124115.1046
123905.4835
123692.2911
123477.2569
123260.228
123042.5207
122825.0195
122609.7607
122393.3404
122174.6387
121962.2117
121749.0795
121534.3553
121324.5779
121115.6849
120909.2343
120705.0977
120494.5097
120274.5145
120053.1945
119839.4105
119627.2575
119417.993
119213.6758
119006.4488
118794.7793
118581.5582
118375.4854
118175.479
117971.7608
117765.8363
117560.8705
117353.0826
117142.0784
116931.2444
116718.4721
116500.8012
116284.4693
116072.7354
115862.8677
115648.4447
115430.7429
115216.5419
114999.8307
114779.2139
114562.5729
114343.8632
114123.719
113914.5944
113709.5761
113501.1983
113291.6321
113085.6514
112882.5896
112679.1275
112474.5338
112264.2333
112049.8676
111835.3854
111624.1908
111416.8181
111208.5365
110999.0337
110790.7012
110585.2743
110379.6098
110169.3634
109957.3823
109748.1714
109540.6555
109337.4235
109134.9784
108921.6681
108700.1768
108481.6176
108265.8901
108045.5555
107820.9377
107602.853
107389.7126
107174.2932
106963.1074
106765.6102
106569.3711
106357.0033
106138.0116
105925.839
105718.3264
105511.2716
105302.2017
105092.6198
104880.3582
104661.8206
104441.0687
104228.8161
104026.2207
103821.4115
103609.0464
103393.741
103180.9776
102969.3043
102757.7417
102548.5515
102343.6613
102138.1867
101927.0811
101719.1003
101513.8814
101308.3802
101098.603
100878.7632
100658.9259
100445.5307
100235.7196
100022.9682
99808.23522
99595.0768
99385.79548
99179.29476
98967.36483
98748.59336
98529.82742
98319.58416
98113.15527
97905.42034
97693.82967
97475.24439
97261.70338
97058.12582
96853.97011
96641.95888
96422.70364
96199.84528
95980.55989
95771.84527
95565.37034
95352.09896
95135.98435
94920.38759
94704.57075
94492.61627
94280.87163
94062.20375
93842.16536
93627.92631
93414.98417
93195.20365
92975.41822
92766.46899
92564.44867
92366.7789
92174.49153
91978.88411
91774.74034
91567.24255
91362.50423
91164.88967
90966.84111
90762.01467
90557.42099
90356.6779
90155.13504
89946.68687
89733.30692
89518.89123
89305.36023
89094.91211
88889.65927
88687.80181
88481.19967
88268.50318
88053.67637
87840.78921
87631.47633
87420.20017
87205.24997
86991.82253
86784.70229
86580.21727
86370.18067
86160.34928
85955.29716
85755.46119
85560.99684
85362.71126
85157.46157
84948.63603
84740.64988
84539.27449
84343.60646
84147.99387
83950.67896
83750.9796
83549.3033
83342.30915
83134.27034
82935.50723
82734.19742
82523.42544
82309.63476
82090.07005
81870.20641
81655.09714
81440.61961
81227.89421
81018.11242
80814.48366
80613.47169
80406.76109
80200.7256
80002.34438
79803.34465
79600.17139
79390.79004
79173.87818
78956.97533
78744.81904
78531.4787
78311.38334
78088.29502
77864.42245
77644.4126
77433.81831
77232.57738
77033.76584
76830.13647
76622.89657
76414.66846
76206.00013
75995.2427
75784.87803
75582.81529
75380.19251
75168.15543
74952.92119
74740.55319
74531.32496
74323.56105
74117.75315
73911.85526
73705.00396
73498.13984
73288.078
73073.83384
72855.12767
72636.4263
72427.15504
72224.78351
72024.08192
71816.66162
71599.50782
71382.93677
71168.17745
70954.01574
70742.08338
70530.54046
70318.18579
70107.56384
69899.81412
69692.96608
69486.50698
69283.17293
69081.6084
68875.64381
68665.25187
68456.65914
68249.79544
68038.44347
67823.83976
67612.3525
67402.87497
67195.10106
66987.55347
66777.53094
66566.58011
66355.82841
66146.7237
65942.66191
65746.45195
65550.24849
65345.14225
65133.76015
64913.86461
64688.30684
64467.91353
64253.71494
64041.96335
63832.86342
63627.2282
63423.84445
63222.44085
63018.33875
62809.22684
62593.86871
62379.93857
62172.4086
61960.9793
61749.23626
61543.69799
61343.38616
61149.55539
60956.19021
60758.91298
60559.9165
60355.07253
60145.76187
59935.33038
59725.34498
59516.21186
59304.97354
59088.01659
58868.89855
58657.23145
58449.45591
58244.49553
58040.94921
57836.14158
57627.87619
57413.44075
57201.60394
56992.49824
56783.13961
56574.58726
56364.85814
56156.42744
55951.70532
55754.74994
55556.28913
55350.96624
55146.28557
54943.56294
54742.20299
54539.27607
54333.93108
54125.69257
53918.30246
53714.09343
53510.33866
53304.73867
53101.03746
52901.73544
52700.04364
52494.24591
52288.3035
52086.64242
51888.74691
51691.93033
51489.51504
51282.74478
51076.48123
50867.87497
50655.54295
50438.68954
50225.57866
50022.66
49822.21657
49615.99711
49411.78325
49215.2016
49020.43077
48822.63814
48621.93199
48424.41689
48229.1371
48027.21485
47817.46066
47607.77193
47396.47474
47180.59438
46965.63755
46751.76959
46540.79397
46334.15914
46129.01404
45923.48197
45715.10934
45503.61527
45291.99236
45079.16807
44868.36113
44659.87749
44447.89525
44233.6538
44021.21794
43808.06584
43592.37169
43383.47323
43181.49063
42976.6889
42772.74891
42577.06711
42378.81528
42172.24655
41964.57851
41757.17547
41550.6922
41344.59923
41137.50607
40930.75633
40722.74591
40513.48126
40301.4104
40088.93782
39877.57105
39662.02181
39441.146
39217.13373
39001.97346
38794.78429
38583.48946
38370.77103
38160.31631
37951.62317
37746.60136
37546.24825
37347.28872
37144.25354
36936.71205
36727.51141
36519.45268
36312.70104
36106.55528
35900.0836
35691.76858
35487.4987
35292.63717
35099.14867
34897.38695
34688.32784
34476.54952
34262.33975
34042.68345
33821.82999
33607.85627
33399.55017
33191.37515
32981.53632
32768.90821
32561.22201
32358.24529
32150.46903
31943.71413
31747.40566
31551.70919
31345.14183
31136.08921
30928.39931
30720.77748
30516.3171
30314.88753
30115.03885
29913.1232
29704.24505
29493.89309
29288.75676
29084.11454
28882.62664
28682.39686
28478.13334
28276.23152
28072.28806
27864.60632
27658.28729
27453.0918
27249.76592
27044.55581
26836.8642
26629.96383
26423.00568
26213.84718
25997.45027
25774.82215
25555.49493
25346.97301
25146.63457
24944.63938
24735.35335
24526.74045
24326.66705
24126.23813
23921.51649
23715.89875
23508.08296
23294.72508
23081.66228
22874.12152
22667.58492
22459.25133
22250.9297
22045.06933
21834.56261
21621.24009
21409.3706
21199.84175
20998.72335
20798.30673
20584.88851
20364.65083
20149.7795
19937.16101
19728.06582
19527.24734
19324.94272
19111.55705
18894.41459
18685.94448
18486.70773
18285.61806
18075.78985
17865.3685
17661.26367
17459.00027
17253.19399
17042.09288
16830.22979
16621.21696
16414.13864
16205.70897
15992.38792
15779.69638
15570.68972
15364.324
15162.22476
14964.5397
14769.10208
14568.70582
14358.67158
14146.36845
13939.16655
13732.27327
13524.0163
13317.02024
13114.11234
12914.71599
12710.51816
12499.62647
12287.03537
12069.16043
11846.08263
11623.00369
11404.35892
11192.72954
10980.93215
10767.00344
10556.79852
10348.22255
10140.61268
9935.954617
9732.266902
9527.346392
9319.814068
9110.784857
8899.713639
8685.981345
8465.981354
8245.980631
8031.381289
7817.506516
7607.708787
7400.403499
7192.437547
6981.256985
6765.591724
6553.509768
6346.677913
6140.352683
5933.231135
5729.724142
5527.835412
5321.542364
5109.226059
4893.726531
4681.325388
4471.030802
4264.995712
4066.029237
3866.040969
3660.897718
3455.299736
3254.685908
3059.832334
2865.180547
2666.347794
2458.455285
2240.077611
2024.661341
1816.371457
1613.629608
1412.275328
1210.033926
1011.026195
806.8157476
593.2369689
381.0572365
191.2798321
0.4489227507
1.531153636e-05
1.45201498e-05
1.402372997e-05
1.354465285e-05
1.301587715e-05
1.251651867e-05
1.202980494e-05
1.159502366e-05
1.122345923e-05
1.085775789e-05
1.048733454e-05
1.011698798e-05
9.753039407e-06
9.406777446e-06
9.078860475e-06
8.703228435e-06
8.409186941e-06
8.163241979e-06
7.913368488e-06
7.595120232e-06
7.271184768e-06
6.909316318e-06
6.615254034e-06
6.371055067e-06
6.029518339e-06
5.613780671e-06
5.254873362e-06
4.876398232e-06
4.48439738e-06
4.016954138e-06
3.553361744e-06
3.048463652e-06
2.557280394e-06
2.136939798e-06
1.797638896e-06
1.588488047e-06
1.329050148e-06
9.830634037e-07
6.496651804e-07
3.114795601e-07
-5.156785787e-08