/*--------------------------------*- C++ -*----------------------------------*\
| =========                 |                                                 |
| \\      /  F ield         | OpenFOAM: The Open Source CFD Toolbox           |
|  \\    /   O peration     | Version:  2012                                  |
|   \\  /    A nd           | Website:  www.openfoam.com                      |
|    \\/     M anipulation  |                                                 |
\*---------------------------------------------------------------------------*/
FoamFile
{
    version     2.0;
    format      ascii;
    class       volVectorField;
    location    "7e-05";
    object      U;
}
// * * * * * * * * * * * * * * * * * * * * * * * * * * * * * * * * * * * * * //

dimensions      [0 1 -1 0 0 0 0];


internalField   nonuniform List<vector> 
5000
(
(1.329988485e-13 0 0)
(1.372334018e-13 0 0)
(1.316312723e-13 0 0)
(1.356006595e-13 0 0)
(1.380942026e-13 0 0)
(1.116266676e-13 0 0)
(6.111280082e-14 0 0)
(2.02639342e-14 0 0)
(3.545623116e-16 0 0)
(-1.71563228e-14 0 0)
(-3.07949233e-14 0 0)
(-3.406928831e-14 0 0)
(-3.191087016e-14 0 0)
(-2.910342041e-14 0 0)
(-1.960057752e-14 0 0)
(-1.511955385e-14 0 0)
(-1.033840608e-14 0 0)
(-6.949238135e-15 0 0)
(-4.215727456e-15 0 0)
(-5.517525442e-16 0 0)
(-9.776624843e-16 0 0)
(-4.641759778e-15 0 0)
(-1.157325162e-14 0 0)
(-1.745716986e-14 0 0)
(-2.122197682e-14 0 0)
(-1.743253058e-14 0 0)
(-1.396755129e-14 0 0)
(-8.61439397e-15 0 0)
(-7.845478687e-15 0 0)
(-1.029721869e-14 0 0)
(-1.047998097e-14 0 0)
(-1.521876788e-14 0 0)
(-1.977352127e-14 0 0)
(-2.305045441e-14 0 0)
(-2.903328527e-14 0 0)
(-3.585755892e-14 0 0)
(-4.660247838e-14 0 0)
(-6.025409613e-14 0 0)
(-6.977575224e-14 0 0)
(-7.200770157e-14 0 0)
(-7.382744357e-14 0 0)
(-7.058935525e-14 0 0)
(-6.52744087e-14 0 0)
(-6.187878662e-14 0 0)
(-6.117371843e-14 0 0)
(-6.063832642e-14 0 0)
(-5.684359829e-14 0 0)
(-4.566929403e-14 0 0)
(-2.946600087e-14 0 0)
(-9.29122075e-15 0 0)
(2.476314152e-14 0 0)
(5.478027094e-14 0 0)
(8.738563198e-14 0 0)
(1.036640169e-13 0 0)
(1.132336811e-13 0 0)
(1.171399916e-13 0 0)
(1.158663038e-13 0 0)
(1.096319527e-13 0 0)
(1.068132754e-13 0 0)
(8.971223156e-14 0 0)
(7.922164234e-14 0 0)
(5.755451489e-14 0 0)
(3.656106237e-14 0 0)
(1.523864389e-14 0 0)
(6.868241516e-16 0 0)
(-1.566376591e-14 0 0)
(-2.301169288e-14 0 0)
(-3.023207538e-14 0 0)
(-3.426512225e-14 0 0)
(-3.401656657e-14 0 0)
(-3.167799406e-14 0 0)
(-2.622372645e-14 0 0)
(-2.398923687e-14 0 0)
(-2.356979218e-14 0 0)
(-2.563578011e-14 0 0)
(-2.771556534e-14 0 0)
(-3.104745936e-14 0 0)
(-3.109101235e-14 0 0)
(-3.179298188e-14 0 0)
(-3.386679094e-14 0 0)
(-3.526313165e-14 0 0)
(-4.165006107e-14 0 0)
(-4.05130061e-14 0 0)
(-4.001022866e-14 0 0)
(-3.885381714e-14 0 0)
(-4.035823964e-14 0 0)
(-4.038979905e-14 0 0)
(-4.447828356e-14 0 0)
(-4.62164284e-14 0 0)
(-4.732034399e-14 0 0)
(-4.600687287e-14 0 0)
(-3.881532959e-14 0 0)
(-3.221152089e-14 0 0)
(-3.108793061e-14 0 0)
(-3.435905201e-14 0 0)
(-3.441810981e-14 0 0)
(-3.439274028e-14 0 0)
(-2.938718462e-14 0 0)
(-1.727298124e-14 0 0)
(-7.98289572e-15 0 0)
(7.639181791e-15 0 0)
(1.721601304e-14 0 0)
(2.716502776e-14 0 0)
(3.270523314e-14 0 0)
(4.401505946e-14 0 0)
(5.330584635e-14 0 0)
(6.830612752e-14 0 0)
(7.66347299e-14 0 0)
(9.473791116e-14 0 0)
(1.015291479e-13 0 0)
(1.080721149e-13 0 0)
(1.032704542e-13 0 0)
(9.627350919e-14 0 0)
(8.31161883e-14 0 0)
(6.296739658e-14 0 0)
(4.51819449e-14 0 0)
(2.845174971e-14 0 0)
(2.106526071e-14 0 0)
(1.49487377e-14 0 0)
(1.103187189e-14 0 0)
(1.048727883e-14 0 0)
(7.903919345e-15 0 0)
(4.04037115e-15 0 0)
(-7.923529096e-15 0 0)
(-1.577070638e-14 0 0)
(-1.695213935e-14 0 0)
(-1.509964265e-14 0 0)
(-1.549779443e-14 0 0)
(-1.964746154e-14 0 0)
(-2.342995499e-14 0 0)
(-2.557964035e-14 0 0)
(-2.738473646e-14 0 0)
(-2.688676857e-14 0 0)
(-1.930363005e-14 0 0)
(-1.212487572e-14 0 0)
(-1.249032348e-15 0 0)
(8.293503064e-15 0 0)
(1.980794715e-14 0 0)
(2.7594684e-14 0 0)
(3.691979398e-14 0 0)
(4.004404517e-14 0 0)
(4.181856481e-14 0 0)
(4.061000531e-14 0 0)
(3.469861119e-14 0 0)
(2.808155082e-14 0 0)
(1.927957788e-14 0 0)
(1.251847519e-14 0 0)
(-5.045910711e-16 0 0)
(-8.976019747e-15 0 0)
(-1.642585244e-14 0 0)
(-2.090410527e-14 0 0)
(-2.152606417e-14 0 0)
(-2.577837366e-14 0 0)
(-2.991723975e-14 0 0)
(-3.345268995e-14 0 0)
(-4.303635984e-14 0 0)
(-5.286345193e-14 0 0)
(-6.554566726e-14 0 0)
(-7.044330537e-14 0 0)
(-6.849211484e-14 0 0)
(-6.478378547e-14 0 0)
(-6.011471661e-14 0 0)
(-5.668777973e-14 0 0)
(-4.543710497e-14 0 0)
(-4.039658643e-14 0 0)
(-3.686972776e-14 0 0)
(-3.28984655e-14 0 0)
(-3.3284592e-14 0 0)
(-3.205977821e-14 0 0)
(-3.336693021e-14 0 0)
(-3.050886439e-14 0 0)
(-2.423628077e-14 0 0)
(-1.381812592e-14 0 0)
(-3.344900423e-15 0 0)
(1.178115876e-15 0 0)
(1.889531031e-16 0 0)
(-7.703902464e-15 0 0)
(-1.555668947e-14 0 0)
(-2.699113522e-14 0 0)
(-3.464714442e-14 0 0)
(-4.154422572e-14 0 0)
(-4.530089167e-14 0 0)
(-3.977799721e-14 0 0)
(-3.422718235e-14 0 0)
(-2.745131721e-14 0 0)
(-1.973367125e-14 0 0)
(-7.465623721e-15 0 0)
(6.123028069e-16 0 0)
(3.487117963e-15 0 0)
(6.048708135e-15 0 0)
(9.237006648e-15 0 0)
(1.656190571e-14 0 0)
(2.046842338e-14 0 0)
(2.642166165e-14 0 0)
(2.73395459e-14 0 0)
(2.776717848e-14 0 0)
(2.381516667e-14 0 0)
(2.276983576e-14 0 0)
(2.219101052e-14 0 0)
(2.297933719e-14 0 0)
(2.387700322e-14 0 0)
(2.46752741e-14 0 0)
(1.761690096e-14 0 0)
(8.870563282e-15 0 0)
(-3.073784511e-15 0 0)
(-4.413050635e-15 0 0)
(-1.292235979e-15 0 0)
(5.341964179e-15 0 0)
(9.311599533e-15 0 0)
(8.492790203e-15 0 0)
(7.893930674e-15 0 0)
(6.017150695e-15 0 0)
(8.009608617e-15 0 0)
(2.976508388e-15 0 0)
(7.382813223e-16 0 0)
(-1.047357639e-16 0 0)
(2.540020411e-15 0 0)
(2.505958528e-15 0 0)
(-7.781394591e-17 0 0)
(-3.278433969e-15 0 0)
(-8.625303696e-15 0 0)
(-2.280143077e-14 0 0)
(-3.012507848e-14 0 0)
(-3.408897448e-14 0 0)
(-3.108508248e-14 0 0)
(-2.472358371e-14 0 0)
(-2.060804777e-14 0 0)
(-2.108154883e-14 0 0)
(-2.11717855e-14 0 0)
(-1.875669333e-14 0 0)
(-1.446550136e-14 0 0)
(-1.140462917e-14 0 0)
(-5.646757953e-15 0 0)
(8.490209637e-15 0 0)
(1.855643066e-14 0 0)
(2.588757795e-14 0 0)
(2.88393559e-14 0 0)
(2.771479476e-14 0 0)
(2.445182988e-14 0 0)
(2.131581818e-14 0 0)
(1.033241868e-14 0 0)
(-6.140728559e-16 0 0)
(-6.454272498e-15 0 0)
(-6.063536562e-15 0 0)
(-7.8498336e-16 0 0)
(1.216371034e-14 0 0)
(3.356347732e-14 0 0)
(5.452788976e-14 0 0)
(6.459153059e-14 0 0)
(7.075038841e-14 0 0)
(7.24402926e-14 0 0)
(7.069657471e-14 0 0)
(7.066899464e-14 0 0)
(7.015115697e-14 0 0)
(7.110955479e-14 0 0)
(6.694291198e-14 0 0)
(6.254358509e-14 0 0)
(5.146030892e-14 0 0)
(4.361265795e-14 0 0)
(3.152079083e-14 0 0)
(2.735268707e-14 0 0)
(1.539465694e-14 0 0)
(9.227052031e-15 0 0)
(2.084557811e-15 0 0)
(4.371406766e-16 0 0)
(2.411048425e-15 0 0)
(2.476815574e-15 0 0)
(-8.159224e-16 0 0)
(-3.654874646e-15 0 0)
(-6.36652995e-15 0 0)
(-6.604046295e-15 0 0)
(-6.28019471e-15 0 0)
(-5.44347715e-15 0 0)
(-8.51992212e-16 0 0)
(8.536307233e-15 0 0)
(1.095904033e-14 0 0)
(1.606431318e-14 0 0)
(1.398030369e-14 0 0)
(9.002551466e-15 0 0)
(-8.033975345e-17 0 0)
(-1.343924861e-14 0 0)
(-2.018364831e-14 0 0)
(-2.541790789e-14 0 0)
(-2.379061962e-14 0 0)
(-1.671024305e-14 0 0)
(-1.157454525e-14 0 0)
(-8.821224672e-15 0 0)
(-1.026098537e-14 0 0)
(-1.168730624e-14 0 0)
(-1.171945141e-14 0 0)
(-1.181669808e-14 0 0)
(-1.161496956e-14 0 0)
(-1.161653325e-14 0 0)
(-1.091745619e-14 0 0)
(-9.523143224e-15 0 0)
(-3.624620413e-15 0 0)
(3.687656138e-15 0 0)
(8.292181072e-15 0 0)
(1.276104139e-14 0 0)
(1.23428164e-14 0 0)
(9.470388158e-15 0 0)
(7.64868566e-15 0 0)
(5.30984812e-15 0 0)
(4.868270341e-15 0 0)
(4.83198539e-15 0 0)
(-1.133095538e-15 0 0)
(-7.093078912e-15 0 0)
(-1.094221971e-14 0 0)
(-1.100880242e-14 0 0)
(-9.752375748e-15 0 0)
(-7.014322351e-15 0 0)
(-4.912291167e-16 0 0)
(4.970843821e-15 0 0)
(1.632806414e-14 0 0)
(2.228070293e-14 0 0)
(1.829843833e-14 0 0)
(1.585333746e-14 0 0)
(1.407573062e-14 0 0)
(1.543418204e-14 0 0)
(1.584258281e-14 0 0)
(1.501337462e-14 0 0)
(1.1982872e-14 0 0)
(4.353132668e-15 0 0)
(8.046292374e-16 0 0)
(5.442865495e-15 0 0)
(1.340240899e-14 0 0)
(1.875515403e-14 0 0)
(1.868059526e-14 0 0)
(1.53352532e-14 0 0)
(1.05139491e-14 0 0)
(2.52720593e-15 0 0)
(-7.289338468e-15 0 0)
(-2.141718421e-14 0 0)
(-2.559753595e-14 0 0)
(-3.050585887e-14 0 0)
(-3.358513599e-14 0 0)
(-4.137977217e-14 0 0)
(-4.399403814e-14 0 0)
(-5.111334006e-14 0 0)
(-6.222631486e-14 0 0)
(-6.333795927e-14 0 0)
(-5.648830736e-14 0 0)
(-3.813914251e-14 0 0)
(-2.104477114e-14 0 0)
(-5.507188799e-15 0 0)
(-5.393678882e-16 0 0)
(3.366664087e-15 0 0)
(8.152347826e-15 0 0)
(1.139686705e-14 0 0)
(1.320880426e-14 0 0)
(1.111965854e-14 0 0)
(4.266988831e-15 0 0)
(-7.545976713e-15 0 0)
(-1.405568465e-14 0 0)
(-1.531079668e-14 0 0)
(-1.261927754e-14 0 0)
(-6.033174939e-15 0 0)
(3.09106585e-16 0 0)
(9.10947733e-15 0 0)
(2.181020996e-14 0 0)
(3.143775235e-14 0 0)
(3.924417673e-14 0 0)
(4.371912825e-14 0 0)
(4.554784566e-14 0 0)
(4.566723703e-14 0 0)
(4.351568188e-14 0 0)
(3.85635453e-14 0 0)
(2.937183271e-14 0 0)
(2.189398121e-14 0 0)
(1.154495777e-14 0 0)
(-9.727085592e-16 0 0)
(-1.00208307e-14 0 0)
(-1.152282667e-14 0 0)
(-1.034193319e-14 0 0)
(-8.525596102e-15 0 0)
(-2.86496254e-15 0 0)
(7.602075502e-16 0 0)
(-1.610971317e-16 0 0)
(-2.352732255e-15 0 0)
(-1.25309199e-15 0 0)
(-1.412940231e-15 0 0)
(8.51179826e-16 0 0)
(4.076676168e-15 0 0)
(4.350370621e-15 0 0)
(7.736065384e-15 0 0)
(4.898454583e-15 0 0)
(7.231930689e-16 0 0)
(5.729358924e-15 0 0)
(1.239639288e-14 0 0)
(1.659196061e-14 0 0)
(1.88899159e-14 0 0)
(1.376071165e-14 0 0)
(5.922256236e-15 0 0)
(1.083161885e-16 0 0)
(-6.68086181e-15 0 0)
(-9.395759664e-15 0 0)
(-1.162902934e-14 0 0)
(-1.334529557e-14 0 0)
(-1.510905934e-14 0 0)
(-1.21731056e-14 0 0)
(-5.634934603e-15 0 0)
(-1.297260148e-15 0 0)
(1.170615314e-15 0 0)
(-2.221153554e-15 0 0)
(-7.95557201e-15 0 0)
(-2.094174415e-14 0 0)
(-3.634995013e-14 0 0)
(-4.136914879e-14 0 0)
(-3.810869419e-14 0 0)
(-3.079763907e-14 0 0)
(-2.365515632e-14 0 0)
(-1.719335329e-14 0 0)
(-7.959205586e-15 0 0)
(8.613566559e-16 0 0)
(8.043774252e-15 0 0)
(1.06850752e-14 0 0)
(1.151721081e-14 0 0)
(1.480203426e-14 0 0)
(2.175424489e-14 0 0)
(2.926001242e-14 0 0)
(3.565146199e-14 0 0)
(3.390454794e-14 0 0)
(3.045993607e-14 0 0)
(2.343794675e-14 0 0)
(1.686263906e-14 0 0)
(1.704527915e-14 0 0)
(1.668662554e-14 0 0)
(1.576965856e-14 0 0)
(1.313471767e-14 0 0)
(8.698068728e-15 0 0)
(6.5954323e-15 0 0)
(6.833121021e-16 0 0)
(-4.775861237e-15 0 0)
(-4.780018495e-15 0 0)
(-5.468745563e-15 0 0)
(-3.840956539e-15 0 0)
(-5.146055862e-15 0 0)
(-6.254191268e-15 0 0)
(-4.801785738e-15 0 0)
(-5.677179051e-15 0 0)
(-1.143722167e-14 0 0)
(-2.015687471e-14 0 0)
(-3.037215729e-14 0 0)
(-3.535217223e-14 0 0)
(-3.527345005e-14 0 0)
(-2.853580836e-14 0 0)
(-2.330191991e-14 0 0)
(-2.055430236e-14 0 0)
(-1.58039971e-14 0 0)
(-5.622466445e-15 0 0)
(8.196499311e-16 0 0)
(5.661498262e-15 0 0)
(4.950417634e-15 0 0)
(5.243808691e-15 0 0)
(4.435187294e-15 0 0)
(4.686752915e-15 0 0)
(5.188043344e-15 0 0)
(9.005508577e-15 0 0)
(1.081879519e-14 0 0)
(1.250515701e-14 0 0)
(1.255264797e-14 0 0)
(1.428661431e-14 0 0)
(1.688451098e-14 0 0)
(2.018825144e-14 0 0)
(2.389160027e-14 0 0)
(2.297142389e-14 0 0)
(2.296441862e-14 0 0)
(2.330838921e-14 0 0)
(2.385107153e-14 0 0)
(2.135572058e-14 0 0)
(1.406639441e-14 0 0)
(5.90010404e-16 0 0)
(-8.359040744e-15 0 0)
(-1.584740203e-14 0 0)
(-2.571523335e-14 0 0)
(-3.219732311e-14 0 0)
(-3.012072018e-14 0 0)
(-2.370681899e-14 0 0)
(-1.133210643e-14 0 0)
(1.198159283e-15 0 0)
(1.348704664e-14 0 0)
(1.525570698e-14 0 0)
(1.668035927e-14 0 0)
(1.260892593e-14 0 0)
(6.476292431e-15 0 0)
(6.349025663e-16 0 0)
(-1.146421154e-15 0 0)
(-3.571155271e-15 0 0)
(-8.452753272e-15 0 0)
(-1.536931611e-14 0 0)
(-2.325207478e-14 0 0)
(-3.034613313e-14 0 0)
(-2.867166162e-14 0 0)
(-2.526194771e-14 0 0)
(-1.660703594e-14 0 0)
(-1.285724895e-14 0 0)
(-5.917696213e-15 0 0)
(5.031348813e-15 0 0)
(1.351442721e-14 0 0)
(1.90322561e-14 0 0)
(2.040870212e-14 0 0)
(1.988478187e-14 0 0)
(2.003881225e-14 0 0)
(1.984738588e-14 0 0)
(1.706636098e-14 0 0)
(1.36762862e-14 0 0)
(8.997651567e-15 0 0)
(9.22081908e-15 0 0)
(7.87758496e-15 0 0)
(5.9888529e-15 0 0)
(2.564259496e-15 0 0)
(-1.046024718e-15 0 0)
(-5.77112273e-15 0 0)
(-8.2651749e-15 0 0)
(-1.061194885e-14 0 0)
(-1.021469379e-14 0 0)
(-1.016785076e-14 0 0)
(-4.968557417e-15 0 0)
(-7.339120691e-16 0 0)
(6.913691697e-15 0 0)
(1.523083537e-14 0 0)
(2.008277897e-14 0 0)
(2.288080843e-14 0 0)
(2.566287837e-14 0 0)
(2.527129818e-14 0 0)
(2.199552676e-14 0 0)
(2.040471203e-14 0 0)
(1.945943468e-14 0 0)
(1.928326821e-14 0 0)
(2.394629037e-14 0 0)
(2.544164863e-14 0 0)
(2.228185329e-14 0 0)
(1.617759744e-14 0 0)
(2.187396361e-15 0 0)
(-1.133116662e-14 0 0)
(-1.625013848e-14 0 0)
(-1.757431798e-14 0 0)
(-1.458585605e-14 0 0)
(-8.052398706e-15 0 0)
(-1.073204475e-15 0 0)
(4.439062727e-15 0 0)
(6.548473141e-15 0 0)
(1.091926552e-14 0 0)
(1.010402784e-14 0 0)
(9.717007527e-15 0 0)
(5.589350237e-15 0 0)
(-3.714858619e-15 0 0)
(-9.932890627e-15 0 0)
(-1.418770031e-14 0 0)
(-1.716885329e-14 0 0)
(-1.775557087e-14 0 0)
(-1.731867115e-14 0 0)
(-2.048080867e-14 0 0)
(-2.107169734e-14 0 0)
(-1.927643287e-14 0 0)
(-1.562810241e-14 0 0)
(-8.464747559e-15 0 0)
(-1.648628082e-15 0 0)
(6.71848987e-15 0 0)
(6.630001776e-15 0 0)
(9.627137263e-15 0 0)
(1.039136133e-14 0 0)
(5.046881806e-15 0 0)
(-3.727664218e-15 0 0)
(-6.52451064e-15 0 0)
(-6.502300239e-15 0 0)
(-6.551844757e-15 0 0)
(-5.326073831e-15 0 0)
(-3.481471058e-15 0 0)
(-5.495972446e-16 0 0)
(8.562923367e-19 0 0)
(8.1336746e-16 0 0)
(4.708292548e-15 0 0)
(4.201572945e-15 0 0)
(5.181827903e-15 0 0)
(5.535022585e-15 0 0)
(6.631819691e-15 0 0)
(1.623634533e-15 0 0)
(-7.619992447e-15 0 0)
(-1.448738003e-14 0 0)
(-1.306351035e-14 0 0)
(-7.082849505e-15 0 0)
(-1.247704436e-15 0 0)
(7.931628522e-16 0 0)
(4.219345013e-15 0 0)
(6.905873705e-15 0 0)
(6.584968398e-15 0 0)
(5.22235634e-15 0 0)
(3.065659717e-15 0 0)
(2.034014885e-15 0 0)
(1.387099173e-15 0 0)
(9.813963584e-16 0 0)
(-2.6119066e-16 0 0)
(5.73719523e-16 0 0)
(2.706268576e-15 0 0)
(5.219432788e-15 0 0)
(2.855637861e-15 0 0)
(2.052652311e-15 0 0)
(-1.26981434e-15 0 0)
(-4.88152887e-15 0 0)
(-9.418405206e-15 0 0)
(-1.484267869e-14 0 0)
(-1.670460783e-14 0 0)
(-1.447966071e-14 0 0)
(-8.650502915e-15 0 0)
(-2.515358115e-15 0 0)
(4.180594773e-15 0 0)
(8.258547831e-15 0 0)
(8.515559243e-15 0 0)
(1.041544163e-14 0 0)
(1.336897991e-14 0 0)
(1.576732304e-14 0 0)
(1.507366433e-14 0 0)
(9.467460464e-15 0 0)
(-1.311983756e-15 0 0)
(-9.297567143e-15 0 0)
(-1.117644382e-14 0 0)
(-1.330780958e-14 0 0)
(-1.202630685e-14 0 0)
(-6.894038991e-15 0 0)
(-3.836696618e-15 0 0)
(-3.138987273e-16 0 0)
(-2.298901921e-15 0 0)
(-3.517446351e-15 0 0)
(-4.539636658e-15 0 0)
(-5.821323194e-15 0 0)
(-5.148847268e-15 0 0)
(-4.751598547e-15 0 0)
(-5.843052972e-15 0 0)
(-1.210512847e-16 0 0)
(7.316157137e-15 0 0)
(1.061927967e-14 0 0)
(1.4855831e-14 0 0)
(1.638801647e-14 0 0)
(1.696500745e-14 0 0)
(1.811791552e-14 0 0)
(1.659711683e-14 0 0)
(1.718211108e-14 0 0)
(1.480371135e-14 0 0)
(1.358251408e-14 0 0)
(1.399481584e-14 0 0)
(1.292818153e-14 0 0)
(7.571728453e-15 0 0)
(1.19769152e-15 0 0)
(-7.022715542e-15 0 0)
(-1.229706449e-14 0 0)
(-1.47680079e-14 0 0)
(-1.40428036e-14 0 0)
(-1.339519036e-14 0 0)
(-8.642568225e-15 0 0)
(-3.981529232e-15 0 0)
(3.86000992e-15 0 0)
(1.030178796e-14 0 0)
(1.720832022e-14 0 0)
(2.274895847e-14 0 0)
(1.999454599e-14 0 0)
(1.539671122e-14 0 0)
(4.288299231e-15 0 0)
(-1.028076349e-15 0 0)
(-9.085286809e-15 0 0)
(-1.090176802e-14 0 0)
(-1.029641496e-14 0 0)
(-8.055409734e-15 0 0)
(-2.803791368e-15 0 0)
(-2.246797583e-15 0 0)
(-2.718029e-15 0 0)
(-3.025418689e-15 0 0)
(-3.820628114e-15 0 0)
(-5.038977954e-15 0 0)
(-5.622940411e-15 0 0)
(-5.08517646e-16 0 0)
(3.145904016e-15 0 0)
(4.532275645e-15 0 0)
(2.760735013e-15 0 0)
(-2.450295957e-17 0 0)
(-7.219519491e-16 0 0)
(-2.446716356e-15 0 0)
(-5.198364316e-15 0 0)
(-1.101546347e-14 0 0)
(-1.712954178e-14 0 0)
(-1.951331909e-14 0 0)
(-1.920468828e-14 0 0)
(-1.788068405e-14 0 0)
(-1.98662157e-14 0 0)
(-2.15700346e-14 0 0)
(-2.25796349e-14 0 0)
(-2.758389706e-14 0 0)
(-3.221204901e-14 0 0)
(-2.940591108e-14 0 0)
(-2.310400237e-14 0 0)
(-1.354610179e-14 0 0)
(-1.59332956e-15 0 0)
(1.416484839e-14 0 0)
(1.809830612e-14 0 0)
(1.961656736e-14 0 0)
(2.281762932e-14 0 0)
(2.146394238e-14 0 0)
(1.991563942e-14 0 0)
(1.541914287e-14 0 0)
(1.023871474e-14 0 0)
(7.611372476e-15 0 0)
(4.753052578e-15 0 0)
(5.60561853e-15 0 0)
(2.512480673e-15 0 0)
(3.890969616e-15 0 0)
(5.047218483e-15 0 0)
(3.612017464e-15 0 0)
(3.390145159e-15 0 0)
(2.876406052e-15 0 0)
(3.297865414e-15 0 0)
(4.399426533e-15 0 0)
(4.949942708e-15 0 0)
(6.36019723e-15 0 0)
(1.224728294e-14 0 0)
(1.832200146e-14 0 0)
(2.75857673e-14 0 0)
(3.370832263e-14 0 0)
(3.461204405e-14 0 0)
(3.588066642e-14 0 0)
(2.935310621e-14 0 0)
(2.073848599e-14 0 0)
(1.38334786e-14 0 0)
(2.715377588e-15 0 0)
(-4.728337335e-15 0 0)
(-1.227914723e-14 0 0)
(-2.097302313e-14 0 0)
(-2.662121245e-14 0 0)
(-2.776177618e-14 0 0)
(-2.258180744e-14 0 0)
(-1.900907856e-14 0 0)
(-7.592798796e-15 0 0)
(-2.851002167e-15 0 0)
(4.28588944e-15 0 0)
(1.084673319e-14 0 0)
(1.288465651e-14 0 0)
(1.532636706e-14 0 0)
(1.241172135e-14 0 0)
(1.095721417e-14 0 0)
(6.697226117e-15 0 0)
(3.246976518e-15 0 0)
(-1.404087001e-15 0 0)
(-5.311852667e-15 0 0)
(-7.774306951e-15 0 0)
(-9.61863131e-15 0 0)
(-1.699491629e-14 0 0)
(-2.843611643e-14 0 0)
(-3.064306602e-14 0 0)
(-2.976489147e-14 0 0)
(-2.532878429e-14 0 0)
(-1.679647104e-14 0 0)
(-7.934514676e-15 0 0)
(-9.63711555e-16 0 0)
(2.002343402e-15 0 0)
(6.214193812e-15 0 0)
(7.241691661e-15 0 0)
(8.854522325e-15 0 0)
(9.122082433e-15 0 0)
(8.334654858e-16 0 0)
(-1.145621404e-14 0 0)
(-2.737156879e-14 0 0)
(-3.288287055e-14 0 0)
(-3.394789596e-14 0 0)
(-3.112097908e-14 0 0)
(-2.068168251e-14 0 0)
(-2.394525867e-15 0 0)
(8.95940266e-15 0 0)
(1.725217586e-14 0 0)
(1.723730417e-14 0 0)
(1.493096184e-14 0 0)
(1.537145302e-14 0 0)
(1.37041806e-14 0 0)
(1.206791761e-14 0 0)
(1.075277654e-14 0 0)
(1.12899241e-14 0 0)
(1.034978756e-14 0 0)
(9.793165017e-15 0 0)
(9.312557024e-15 0 0)
(8.468611251e-15 0 0)
(1.252429859e-14 0 0)
(1.450584394e-14 0 0)
(1.360498918e-14 0 0)
(1.22778038e-14 0 0)
(3.12848992e-15 0 0)
(-1.194525221e-15 0 0)
(-4.389552373e-15 0 0)
(-4.492566704e-15 0 0)
(-6.003963856e-15 0 0)
(-1.941350464e-15 0 0)
(7.961527365e-16 0 0)
(2.03398282e-15 0 0)
(3.592248334e-15 0 0)
(4.262609023e-15 0 0)
(4.496400088e-15 0 0)
(5.583711226e-15 0 0)
(4.710945362e-15 0 0)
(1.411432938e-15 0 0)
(-3.212143345e-15 0 0)
(-4.62761226e-15 0 0)
(-4.632082335e-15 0 0)
(-2.692907382e-15 0 0)
(-4.074947396e-16 0 0)
(-9.178742423e-16 0 0)
(-1.23058324e-15 0 0)
(-2.023858725e-15 0 0)
(-4.643490182e-15 0 0)
(-8.003110779e-15 0 0)
(-1.053822817e-14 0 0)
(-8.474928664e-15 0 0)
(-2.23068282e-15 0 0)
(3.633256413e-15 0 0)
(4.545969231e-15 0 0)
(1.487457394e-15 0 0)
(-3.419360084e-15 0 0)
(-3.685310994e-15 0 0)
(-3.726850889e-15 0 0)
(-4.361646582e-15 0 0)
(-5.08030905e-15 0 0)
(-6.55363905e-15 0 0)
(-8.431710248e-15 0 0)
(-8.967306593e-15 0 0)
(-7.817136007e-15 0 0)
(-6.739284317e-15 0 0)
(1.050040272e-15 0 0)
(1.349910878e-14 0 0)
(2.254488868e-14 0 0)
(2.593794509e-14 0 0)
(2.464717454e-14 0 0)
(1.899825944e-14 0 0)
(6.312900338e-15 0 0)
(-8.552199921e-15 0 0)
(-1.797580267e-14 0 0)
(-1.620535214e-14 0 0)
(-2.085843716e-14 0 0)
(-2.395930503e-14 0 0)
(-1.859927849e-14 0 0)
(-1.229519005e-14 0 0)
(-4.487601188e-15 0 0)
(-2.783775092e-15 0 0)
(-5.204759169e-15 0 0)
(-4.701597589e-15 0 0)
(-6.173783829e-15 0 0)
(-4.537990957e-16 0 0)
(1.086096491e-14 0 0)
(2.185159829e-14 0 0)
(2.897521735e-14 0 0)
(2.639181434e-14 0 0)
(2.253987398e-14 0 0)
(1.892625679e-14 0 0)
(1.319202958e-14 0 0)
(7.619966241e-15 0 0)
(1.756654107e-16 0 0)
(-5.809749196e-15 0 0)
(-1.188461359e-14 0 0)
(-1.997968963e-14 0 0)
(-2.859799446e-14 0 0)
(-3.032617572e-14 0 0)
(-3.003472577e-14 0 0)
(-2.030769398e-14 0 0)
(-6.122608729e-15 0 0)
(7.075172174e-16 0 0)
(7.169570525e-16 0 0)
(-3.386226406e-16 0 0)
(-3.046242034e-16 0 0)
(2.399596005e-15 0 0)
(2.995424865e-15 0 0)
(5.531297859e-15 0 0)
(5.041146185e-15 0 0)
(6.332520125e-15 0 0)
(5.498877913e-15 0 0)
(2.590601515e-15 0 0)
(-3.287325138e-15 0 0)
(-1.223201464e-14 0 0)
(-2.007398112e-14 0 0)
(-2.570804068e-14 0 0)
(-2.520416722e-14 0 0)
(-2.185921027e-14 0 0)
(-1.61109951e-14 0 0)
(-1.369894368e-14 0 0)
(-1.353088595e-14 0 0)
(-7.170034106e-15 0 0)
(-5.653422658e-15 0 0)
(-7.044502558e-15 0 0)
(-1.311259109e-14 0 0)
(-2.005445622e-14 0 0)
(-2.52519246e-14 0 0)
(-3.000050289e-14 0 0)
(-3.032270785e-14 0 0)
(-2.799450103e-14 0 0)
(-3.143486191e-14 0 0)
(-3.460313847e-14 0 0)
(-3.872604728e-14 0 0)
(-3.897094096e-14 0 0)
(-3.40575152e-14 0 0)
(-3.18259406e-14 0 0)
(-2.668411738e-14 0 0)
(-1.712257624e-14 0 0)
(-9.06429242e-15 0 0)
(-1.597414724e-15 0 0)
(4.418738095e-15 0 0)
(1.125677863e-14 0 0)
(2.161518635e-14 0 0)
(2.698163367e-14 0 0)
(3.16549094e-14 0 0)
(3.33253882e-14 0 0)
(3.796219937e-14 0 0)
(3.957859124e-14 0 0)
(3.731272545e-14 0 0)
(3.253677995e-14 0 0)
(2.857588103e-14 0 0)
(2.189530781e-14 0 0)
(1.193144486e-14 0 0)
(3.703424208e-15 0 0)
(-1.240874005e-15 0 0)
(-5.590181126e-15 0 0)
(-5.649844847e-15 0 0)
(-3.313042217e-15 0 0)
(1.882209524e-15 0 0)
(8.330295495e-15 0 0)
(6.346227982e-15 0 0)
(8.345290707e-15 0 0)
(1.11656619e-14 0 0)
(1.640506042e-14 0 0)
(1.976371727e-14 0 0)
(2.278499402e-14 0 0)
(2.309385226e-14 0 0)
(2.064080445e-14 0 0)
(1.917962601e-14 0 0)
(1.805023763e-14 0 0)
(1.275729935e-14 0 0)
(7.243943606e-15 0 0)
(6.256622718e-15 0 0)
(2.724298818e-15 0 0)
(2.591795999e-15 0 0)
(2.448303948e-15 0 0)
(2.331209485e-15 0 0)
(1.176511467e-15 0 0)
(2.980549278e-15 0 0)
(5.557861732e-15 0 0)
(8.007414918e-15 0 0)
(1.310949732e-14 0 0)
(1.984847849e-14 0 0)
(1.365054589e-14 0 0)
(1.016966767e-14 0 0)
(1.409422317e-15 0 0)
(-1.130933723e-15 0 0)
(-2.856259178e-16 0 0)
(3.482389079e-15 0 0)
(7.531041634e-15 0 0)
(1.106261479e-14 0 0)
(1.073867926e-14 0 0)
(1.039766756e-14 0 0)
(8.734443315e-15 0 0)
(9.626320283e-15 0 0)
(8.885513589e-15 0 0)
(8.608343142e-15 0 0)
(6.311760999e-15 0 0)
(3.617161625e-15 0 0)
(1.700522568e-15 0 0)
(-4.4438252e-15 0 0)
(-6.972901397e-15 0 0)
(-4.38967054e-15 0 0)
(-1.866598807e-15 0 0)
(-1.535441811e-15 0 0)
(-5.530060952e-16 0 0)
(9.26592323e-18 0 0)
(-3.062189024e-15 0 0)
(-5.212416793e-15 0 0)
(-6.564911392e-15 0 0)
(-9.167008552e-15 0 0)
(-1.19777029e-14 0 0)
(-1.176007307e-14 0 0)
(-1.317354404e-14 0 0)
(-1.127951968e-14 0 0)
(-8.223548403e-15 0 0)
(-9.674054071e-15 0 0)
(-9.429230542e-15 0 0)
(-1.662375946e-14 0 0)
(-2.420058727e-14 0 0)
(-2.992957881e-14 0 0)
(-3.19526043e-14 0 0)
(-3.443382196e-14 0 0)
(-3.586372245e-14 0 0)
(-3.951362958e-14 0 0)
(-4.444961736e-14 0 0)
(-4.459703481e-14 0 0)
(-4.202227369e-14 0 0)
(-3.78519392e-14 0 0)
(-3.678363218e-14 0 0)
(-3.961009226e-14 0 0)
(-4.177001465e-14 0 0)
(-4.410991847e-14 0 0)
(-3.888116534e-14 0 0)
(-3.46517027e-14 0 0)
(-2.840196485e-14 0 0)
(-2.4362986e-14 0 0)
(-2.30236566e-14 0 0)
(-2.334925884e-14 0 0)
(-2.508876758e-14 0 0)
(-2.669085312e-14 0 0)
(-3.162533094e-14 0 0)
(-3.446101556e-14 0 0)
(-3.541903796e-14 0 0)
(-3.137450004e-14 0 0)
(-2.487068152e-14 0 0)
(-1.588045191e-14 0 0)
(-6.792404167e-15 0 0)
(1.225116899e-15 0 0)
(8.811456268e-15 0 0)
(1.892090477e-14 0 0)
(2.132940292e-14 0 0)
(1.96354786e-14 0 0)
(1.855714324e-14 0 0)
(2.955723907e-14 0 0)
(4.301872914e-14 0 0)
(4.894090582e-14 0 0)
(4.891013729e-14 0 0)
(4.744785441e-14 0 0)
(3.593498607e-14 0 0)
(2.20021533e-14 0 0)
(6.247324215e-15 0 0)
(-1.295273785e-14 0 0)
(-2.301779117e-14 0 0)
(-2.922617512e-14 0 0)
(-3.017562394e-14 0 0)
(-2.604337976e-14 0 0)
(-1.418099477e-14 0 0)
(7.130181058e-16 0 0)
(1.109237159e-14 0 0)
(1.499665067e-14 0 0)
(1.41346789e-14 0 0)
(1.210305306e-14 0 0)
(1.532273706e-14 0 0)
(1.934076499e-14 0 0)
(2.275731696e-14 0 0)
(2.539766351e-14 0 0)
(2.568167925e-14 0 0)
(2.430547299e-14 0 0)
(2.27553854e-14 0 0)
(2.398952739e-14 0 0)
(2.066552216e-14 0 0)
(1.666888435e-14 0 0)
(1.088810231e-14 0 0)
(4.653483077e-15 0 0)
(4.330242143e-16 0 0)
(-3.200652463e-15 0 0)
(-3.085114716e-15 0 0)
(-6.284333173e-16 0 0)
(9.015160009e-16 0 0)
(-2.554379623e-15 0 0)
(-2.266867354e-15 0 0)
(-9.144855563e-15 0 0)
(-1.682257549e-14 0 0)
(-1.625099845e-14 0 0)
(-1.322511016e-14 0 0)
(-3.991053144e-15 0 0)
(4.660455336e-15 0 0)
(2.053053642e-14 0 0)
(2.997045592e-14 0 0)
(4.004365439e-14 0 0)
(4.405863e-14 0 0)
(4.558009928e-14 0 0)
(4.013849314e-14 0 0)
(3.234763735e-14 0 0)
(2.365515038e-14 0 0)
(9.441342673e-15 0 0)
(-1.010760384e-14 0 0)
(-2.951533231e-14 0 0)
(-4.041536956e-14 0 0)
(-4.521706095e-14 0 0)
(-4.547256814e-14 0 0)
(-4.348304682e-14 0 0)
(-3.312428716e-14 0 0)
(-1.214705097e-14 0 0)
(-3.060835924e-15 0 0)
(5.369605234e-15 0 0)
(7.680674301e-15 0 0)
(8.769473495e-15 0 0)
(8.897177004e-15 0 0)
(8.13469635e-15 0 0)
(4.313144492e-15 0 0)
(-2.073950013e-15 0 0)
(-6.551082144e-15 0 0)
(-1.776865678e-14 0 0)
(-3.038738891e-14 0 0)
(-3.743115016e-14 0 0)
(-4.895239594e-14 0 0)
(-5.67238866e-14 0 0)
(-6.038687056e-14 0 0)
(-6.147442301e-14 0 0)
(-5.975416088e-14 0 0)
(-4.744216689e-14 0 0)
(-2.490364299e-14 0 0)
(-1.580215327e-15 0 0)
(2.023430484e-14 0 0)
(3.487648347e-14 0 0)
(5.321630726e-14 0 0)
(5.925324069e-14 0 0)
(5.522461125e-14 0 0)
(4.162173278e-14 0 0)
(2.883756691e-14 0 0)
(2.065649732e-14 0 0)
(1.294019483e-14 0 0)
(1.666239745e-15 0 0)
(-1.232879731e-14 0 0)
(-3.026043482e-14 0 0)
(-3.641344354e-14 0 0)
(-3.965009874e-14 0 0)
(-4.276993975e-14 0 0)
(-4.339717807e-14 0 0)
(-4.535099326e-14 0 0)
(-3.556544471e-14 0 0)
(-2.974959674e-14 0 0)
(-2.314385155e-14 0 0)
(-1.760247324e-14 0 0)
(-1.646501489e-14 0 0)
(-1.546550512e-14 0 0)
(-1.731949576e-14 0 0)
(-1.968572723e-14 0 0)
(-1.837788473e-14 0 0)
(-2.059135425e-14 0 0)
(-2.610036029e-14 0 0)
(-3.745998939e-14 0 0)
(-4.905874638e-14 0 0)
(-5.413592592e-14 0 0)
(-5.191303052e-14 0 0)
(-4.223648407e-14 0 0)
(-2.525402704e-14 0 0)
(-6.982435217e-15 0 0)
(4.040721737e-15 0 0)
(9.120411544e-15 0 0)
(1.054130603e-14 0 0)
(1.314263893e-14 0 0)
(1.429584764e-14 0 0)
(2.085096542e-14 0 0)
(3.597876191e-14 0 0)
(6.319603908e-14 0 0)
(8.517143752e-14 0 0)
(1.015585951e-13 0 0)
(1.100936363e-13 0 0)
(1.089932303e-13 0 0)
(9.860202797e-14 0 0)
(7.320274919e-14 0 0)
(4.399400455e-14 0 0)
(1.91383755e-14 0 0)
(4.54038054e-15 0 0)
(-6.912473285e-16 0 0)
(-1.828460212e-15 0 0)
(-9.819157507e-16 0 0)
(-5.599711001e-15 0 0)
(-7.385475812e-15 0 0)
(-7.695577875e-15 0 0)
(-9.895799148e-15 0 0)
(-8.871992426e-15 0 0)
(-1.309080732e-14 0 0)
(-1.278544791e-14 0 0)
(-1.052635128e-14 0 0)
(-4.104772662e-15 0 0)
(-1.628275092e-15 0 0)
(-6.354892697e-15 0 0)
(-1.710136249e-14 0 0)
(-2.708883768e-14 0 0)
(-3.222736108e-14 0 0)
(-3.390693686e-14 0 0)
(-3.242317384e-14 0 0)
(-3.117856474e-14 0 0)
(-2.808799318e-14 0 0)
(-2.639648073e-14 0 0)
(-1.972973476e-14 0 0)
(-9.661762343e-15 0 0)
(-5.573400955e-15 0 0)
(1.363763157e-15 0 0)
(4.350256392e-15 0 0)
(6.196467437e-15 0 0)
(9.909133487e-15 0 0)
(9.309238546e-15 0 0)
(6.314692814e-15 0 0)
(2.719431735e-15 0 0)
(2.116367186e-15 0 0)
(-9.711976667e-15 0 0)
(-1.762365954e-14 0 0)
(-2.507089381e-14 0 0)
(-2.467626616e-14 0 0)
(-2.794453118e-14 0 0)
(-3.188854526e-14 0 0)
(-4.102292431e-14 0 0)
(-4.548161827e-14 0 0)
(-5.280196448e-14 0 0)
(-5.399132918e-14 0 0)
(-5.086049586e-14 0 0)
(-4.201031485e-14 0 0)
(-3.032214798e-14 0 0)
(-1.453963725e-14 0 0)
(-2.477976673e-15 0 0)
(4.272630905e-15 0 0)
(9.944502372e-15 0 0)
(1.52801007e-14 0 0)
(1.863098832e-14 0 0)
(2.022634252e-14 0 0)
(2.218112746e-14 0 0)
(2.804141146e-14 0 0)
(2.948848568e-14 0 0)
(2.64767237e-14 0 0)
(3.101994333e-14 0 0)
(4.006953722e-14 0 0)
(5.107934141e-14 0 0)
(5.381665459e-14 0 0)
(5.623881399e-14 0 0)
(4.455960482e-14 0 0)
(2.804882418e-14 0 0)
(1.4856035e-14 0 0)
(8.373168555e-15 0 0)
(1.069010053e-14 0 0)
(1.428321247e-14 0 0)
(1.99881753e-14 0 0)
(1.745168652e-14 0 0)
(1.130859953e-14 0 0)
(8.035989168e-15 0 0)
(9.242757968e-15 0 0)
(1.287518022e-14 0 0)
(1.090515398e-14 0 0)
(1.620978463e-16 0 0)
(-2.306567145e-14 0 0)
(-4.23930622e-14 0 0)
(-5.118584908e-14 0 0)
(-4.837458047e-14 0 0)
(-4.531395653e-14 0 0)
(-3.465484967e-14 0 0)
(-1.769296821e-14 0 0)
(-7.565210272e-15 0 0)
(5.31434278e-15 0 0)
(1.496596018e-14 0 0)
(2.198677809e-14 0 0)
(2.963685881e-14 0 0)
(3.224264289e-14 0 0)
(3.614054311e-14 0 0)
(3.947614478e-14 0 0)
(4.666111337e-14 0 0)
(4.61860334e-14 0 0)
(4.473884023e-14 0 0)
(3.337538911e-14 0 0)
(1.498945826e-14 0 0)
(-7.977825059e-15 0 0)
(-2.351684914e-14 0 0)
(-2.965194208e-14 0 0)
(-3.3626e-14 0 0)
(-3.639126528e-14 0 0)
(-3.888629539e-14 0 0)
(-3.883569645e-14 0 0)
(-3.898573289e-14 0 0)
(-3.939902345e-14 0 0)
(-4.087981757e-14 0 0)
(-4.026969423e-14 0 0)
(-3.392169649e-14 0 0)
(-2.147252973e-14 0 0)
(-5.558732493e-15 0 0)
(1.507221452e-14 0 0)
(3.458179592e-14 0 0)
(4.507335426e-14 0 0)
(4.80452173e-14 0 0)
(4.580348737e-14 0 0)
(3.653000293e-14 0 0)
(2.440805046e-14 0 0)
(7.937536959e-15 0 0)
(-7.627082585e-15 0 0)
(-1.553903312e-14 0 0)
(-1.592182166e-14 0 0)
(-1.56009947e-14 0 0)
(-1.44659607e-14 0 0)
(-1.09407094e-14 0 0)
(-5.788147679e-15 0 0)
(7.523128396e-15 0 0)
(1.787536383e-14 0 0)
(2.773597149e-14 0 0)
(3.163976776e-14 0 0)
(3.259453405e-14 0 0)
(3.412113062e-14 0 0)
(3.483039997e-14 0 0)
(3.652918525e-14 0 0)
(3.901962618e-14 0 0)
(3.532405409e-14 0 0)
(3.236185052e-14 0 0)
(2.805301576e-14 0 0)
(1.764034522e-14 0 0)
(1.40312981e-14 0 0)
(1.191651258e-14 0 0)
(1.355061134e-14 0 0)
(1.174074529e-14 0 0)
(8.939172873e-15 0 0)
(5.688235902e-15 0 0)
(5.483758559e-15 0 0)
(4.597112512e-16 0 0)
(-4.362493016e-15 0 0)
(-8.637481661e-15 0 0)
(-7.177793637e-15 0 0)
(-1.993473772e-15 0 0)
(2.787403055e-15 0 0)
(9.832960574e-15 0 0)
(1.08681538e-14 0 0)
(1.374594086e-14 0 0)
(9.471999301e-15 0 0)
(6.090724184e-15 0 0)