/*--------------------------------*- C++ -*----------------------------------*\
| =========                 |                                                 |
| \\      /  F ield         | OpenFOAM: The Open Source CFD Toolbox           |
|  \\    /   O peration     | Version:  3.0.1                                 |
|   \\  /    A nd           | Web:      www.OpenFOAM.org                      |
|    \\/     M anipulation  |                                                 |
\*---------------------------------------------------------------------------*/
FoamFile
{
    version     2.0;
    format      ascii;
    class       volScalarField;
    location    "0.00015";
    object      p;
}
// * * * * * * * * * * * * * * * * * * * * * * * * * * * * * * * * * * * * * //

dimensions      [1 -1 -2 0 0 0 0];

internalField   nonuniform List<scalar> 
1000
(
68969.5
68969.4
68969.3
68969.1
68968.9
68968.5
68967.9
68967.2
68966.2
68964.9
68963.1
68960.7
68957.5
68953.3
68947.8
68940.5
68930.9
68918.4
68902.3
68881.5
68854.8
68820.7
68777.7
68723.6
68656.1
68572.7
68470.3
68346.1
68196.7
68019.2
67810.9
67569.8
67294.9
66986.7
66647.7
66282.8
65899.6
65509
65124.4
64761.6
64437.4
64167.8
63965
63834.4
63771.9
63758.7
63770.5
63784.2
63789.6
63787.3
63783.4
63770.8
63783.4
63809
63840.7
63867.3
63866.9
63817.6
63704.9
63522.2
63271.8
62964.1
62614.1
62239.1
61856.2
61480.3
61123.2
60793.3
60495.8
60233.1
60005.2
59810.6
59646.9
59510.8
59398.9
59307.9
59234.6
59175.9
59129.4
59092.8
59064.1
59041.8
59024.6
59011.3
59001.1
58993.4
58987.5
58983.1
58979.7
58977.2
58975.3
58973.9
58972.9
58972.1
58971.6
58971.2
58970.9
58970.7
58970.6
58970.5
68969.5
68969.4
68969.3
68969.1
68968.9
68968.5
68967.9
68967.2
68966.2
68964.9
68963.1
68960.7
68957.5
68953.3
68947.8
68940.5
68930.9
68918.4
68902.3
68881.5
68854.8
68820.7
68777.7
68723.6
68656.1
68572.7
68470.3
68346.1
68196.7
68019.2
67810.9
67569.8
67294.9
66986.7
66647.7
66282.7
65899.6
65509
65124.3
64761.5
64437.2
64167.6
63964.7
63834
63771.5
63758.3
63770.2
63784.3
63789.6
63788
63782.6
63770.1
63783.5
63809.1
63840.6
63867.3
63866.9
63817.7
63705
63522.2
63271.9
62964.1
62614.1
62239.1
61856.2
61480.3
61123.2
60793.3
60495.8
60233.1
60005.2
59810.6
59646.9
59510.8
59398.9
59307.9
59234.6
59175.9
59129.4
59092.8
59064.1
59041.8
59024.6
59011.3
59001.1
58993.4
58987.5
58983.1
58979.7
58977.2
58975.3
58973.9
58972.9
58972.1
58971.6
58971.2
58970.9
58970.7
58970.6
58970.5
68969.5
68969.4
68969.3
68969.1
68968.9
68968.5
68967.9
68967.2
68966.2
68964.9
68963.1
68960.7
68957.5
68953.3
68947.8
68940.5
68930.9
68918.4
68902.3
68881.5
68854.8
68820.7
68777.7
68723.6
68656.1
68572.7
68470.3
68346.1
68196.7
68019.2
67810.9
67569.8
67294.9
66986.7
66647.7
66282.7
65899.6
65508.9
65124.2
64761.3
64437
64167.2
63964.1
63833.3
63770.7
63757.6
63769.7
63784.1
63790.1
63787.8
63783.2
63770.1
63782.7
63808.4
63840.3
63867.2
63866.9
63817.8
63705.1
63522.4
63272
62964.2
62614.1
62239.1
61856.2
61480.3
61123.2
60793.3
60495.8
60233.1
60005.2
59810.6
59646.9
59510.8
59398.9
59307.9
59234.6
59175.9
59129.4
59092.8
59064.1
59041.8
59024.6
59011.3
59001.1
58993.4
58987.5
58983.1
58979.7
58977.2
58975.3
58973.9
58972.9
58972.1
58971.6
58971.2
58970.9
58970.7
58970.6
58970.5
68969.5
68969.4
68969.3
68969.1
68968.9
68968.5
68967.9
68967.2
68966.2
68964.9
68963.1
68960.7
68957.5
68953.3
68947.8
68940.5
68930.9
68918.4
68902.3
68881.5
68854.8
68820.7
68777.7
68723.6
68656.1
68572.7
68470.3
68346.1
68196.7
68019.2
67810.9
67569.8
67294.9
66986.7
66647.7
66282.7
65899.5
65508.8
65124.1
64761.1
64436.7
64166.7
63963.6
63832.7
63770
63756.9
63769.3
63784.3
63790.1
63788.5
63782.3
63769.2
63782.5
63808.4
63840.2
63867.1
63867
63817.9
63705.2
63522.5
63272.1
62964.3
62614.2
62239.2
61856.2
61480.3
61123.2
60793.3
60495.8
60233.1
60005.2
59810.6
59646.9
59510.8
59398.9
59307.9
59234.6
59175.9
59129.4
59092.8
59064.1
59041.8
59024.6
59011.3
59001.1
58993.4
58987.5
58983.1
58979.7
58977.2
58975.3
58973.9
58972.9
58972.1
58971.6
58971.2
58970.9
58970.7
58970.6
58970.5
68969.5
68969.4
68969.3
68969.1
68968.9
68968.5
68967.9
68967.2
68966.2
68964.9
68963.1
68960.7
68957.5
68953.3
68947.8
68940.5
68930.9
68918.4
68902.3
68881.5
68854.8
68820.7
68777.7
68723.6
68656.1
68572.7
68470.4
68346.1
68196.7
68019.2
67811
67569.8
67294.9
66986.7
66647.7
66282.7
65899.5
65508.8
65124
64760.9
64436.5
64166.5
63963.2
63832.2
63769.4
63756.4
63768.9
63784.2
63790.4
63788.8
63782.1
63768.7
63782.1
63808.1
63840
63867.1
63867
63818
63705.3
63522.6
63272.2
62964.3
62614.2
62239.2
61856.3
61480.3
61123.2
60793.3
60495.8
60233.1
60005.2
59810.6
59646.9
59510.8
59398.9
59307.9
59234.6
59175.9
59129.4
59092.8
59064.1
59041.8
59024.6
59011.3
59001.1
58993.4
58987.5
58983.1
58979.7
58977.2
58975.3
58973.9
58972.9
58972.1
58971.6
58971.2
58970.9
58970.7
58970.6
58970.5
68969.5
68969.4
68969.3
68969.1
68968.9
68968.5
68967.9
68967.2
68966.2
68964.9
68963.1
68960.7
68957.5
68953.3
68947.8
68940.5
68930.9
68918.4
68902.3
68881.5
68854.8
68820.7
68777.7
68723.6
68656.1
68572.7
68470.4
68346.1
68196.7
68019.2
67811
67569.8
67294.9
66986.7
66647.7
66282.7
65899.5
65508.8
65124
64760.9
64436.4
64166.5
63963.2
63832.2
63769.4
63756.3
63768.9
63784.1
63790.4
63788.8
63782.1
63768.8
63782.1
63808.1
63840
63867.1
63867
63818
63705.4
63522.6
63272.2
62964.4
62614.2
62239.2
61856.3
61480.3
61123.2
60793.3
60495.8
60233.1
60005.2
59810.6
59646.9
59510.8
59398.9
59307.9
59234.6
59175.9
59129.4
59092.8
59064.1
59041.8
59024.6
59011.3
59001.1
58993.4
58987.5
58983.1
58979.7
58977.2
58975.3
58973.9
58972.9
58972.1
58971.6
58971.2
58970.9
58970.7
58970.6
58970.5
68969.5
68969.4
68969.3
68969.1
68968.9
68968.5
68967.9
68967.2
68966.2
68964.9
68963.1
68960.7
68957.5
68953.3
68947.8
68940.5
68930.9
68918.4
68902.3
68881.5
68854.8
68820.7
68777.7
68723.6
68656.1
68572.7
68470.4
68346.1
68196.7
68019.2
67811
67569.8
67294.9
66986.7
66647.7
66282.7
65899.5
65508.8
65124
64761
64436.6
64166.7
63963.5
63832.6
63769.9
63756.9
63769.2
63784
63790.1
63788.5
63782.4
63769.2
63782.5
63808.4
63840.2
63867.1
63867
63818
63705.3
63522.5
63272.2
62964.3
62614.2
62239.2
61856.2
61480.3
61123.2
60793.3
60495.8
60233.1
60005.2
59810.6
59646.9
59510.8
59398.9
59307.9
59234.6
59175.9
59129.4
59092.8
59064.1
59041.8
59024.6
59011.3
59001.1
58993.4
58987.5
58983.1
58979.7
58977.2
58975.3
58973.9
58972.9
58972.1
58971.6
58971.2
58970.9
58970.7
58970.6
58970.5
68969.5
68969.4
68969.3
68969.1
68968.9
68968.5
68967.9
68967.2
68966.2
68964.9
68963.1
68960.7
68957.5
68953.3
68947.8
68940.5
68930.9
68918.4
68902.3
68881.5
68854.8
68820.7
68777.7
68723.6
68656.1
68572.7
68470.4
68346.1
68196.7
68019.2
67810.9
67569.8
67294.9
66986.7
66647.7
66282.7
65899.6
65508.9
65124.2
64761.2
64436.9
64167.1
63964.1
63833.2
63770.6
63757.5
63769.6
63783.9
63790
63787.7
63783.2
63770.1
63782.7
63808.4
63840.3
63867.2
63867
63817.9
63705.2
63522.5
63272.1
62964.3
62614.2
62239.2
61856.2
61480.3
61123.2
60793.3
60495.8
60233.1
60005.2
59810.6
59646.9
59510.8
59398.9
59307.9
59234.6
59175.9
59129.4
59092.8
59064.1
59041.8
59024.6
59011.3
59001.1
58993.4
58987.5
58983.1
58979.7
58977.2
58975.3
58973.9
58972.9
58972.1
58971.6
58971.2
58970.9
58970.7
58970.6
58970.5
68969.5
68969.4
68969.3
68969.1
68968.9
68968.5
68967.9
68967.2
68966.2
68964.9
68963.1
68960.7
68957.5
68953.3
68947.8
68940.5
68930.9
68918.4
68902.3
68881.5
68854.8
68820.7
68777.7
68723.6
68656.1
68572.7
68470.3
68346.1
68196.7
68019.2
67810.9
67569.8
67294.9
66986.7
66647.7
66282.8
65899.6
65509
65124.3
64761.4
64437.2
64167.5
63964.6
63833.9
63771.4
63758.2
63770.1
63784.2
63789.5
63788
63782.6
63770.1
63783.5
63809.1
63840.7
63867.4
63867
63817.8
63705.1
63522.4
63272
62964.2
62614.1
62239.1
61856.2
61480.3
61123.2
60793.3
60495.8
60233.1
60005.2
59810.6
59646.9
59510.8
59398.9
59307.9
59234.6
59175.9
59129.4
59092.8
59064.1
59041.8
59024.6
59011.3
59001.1
58993.4
58987.5
58983.1
58979.7
58977.2
58975.3
58973.9
58972.9
58972.1
58971.6
58971.2
58970.9
58970.7
58970.6
58970.5
68969.5
68969.4
68969.3
68969.1
68968.9
68968.5
68967.9
68967.2
68966.2
68964.9
68963.1
68960.7
68957.5
68953.3
68947.8
68940.5
68930.9
68918.4
68902.3
68881.5
68854.8
68820.7
68777.7
68723.6
68656.1
68572.7
68470.3
68346.1
68196.7
68019.2
67810.9
67569.8
67294.9
66986.7
66647.7
66282.8
65899.7
65509
65124.4
64761.6
64437.4
64167.8
63965
63834.3
63771.8
63758.6
63770.4
63784.1
63789.6
63787.4
63783.5
63770.9
63783.5
63808.9
63840.7
63867.4
63867
63817.8
63705.1
63522.3
63272
62964.2
62614.1
62239.1
61856.2
61480.3
61123.2
60793.3
60495.8
60233.1
60005.2
59810.6
59646.9
59510.8
59398.9
59307.9
59234.6
59175.9
59129.4
59092.8
59064.1
59041.8
59024.6
59011.3
59001.1
58993.4
58987.5
58983.1
58979.7
58977.2
58975.3
58973.9
58972.9
58972.1
58971.6
58971.2
58970.9
58970.7
58970.6
58970.5
)
;

boundaryField
{
    sides1
    {
        type            zeroGradient;
    }
    sides2
    {
        type            slip;
    }
    empty
    {
        type            empty;
    }
}


// ************************************************************************* //
