/*--------------------------------*- C++ -*----------------------------------*\
| =========                 |                                                 |
| \\      /  F ield         | OpenFOAM: The Open Source CFD Toolbox           |
|  \\    /   O peration     | Version:  3.0.1                                 |
|   \\  /    A nd           | Web:      www.OpenFOAM.org                      |
|    \\/     M anipulation  |                                                 |
\*---------------------------------------------------------------------------*/
FoamFile
{
    version     2.0;
    format      ascii;
    class       surfaceScalarField;
    location    "0.00015";
    object      phi;
}
// * * * * * * * * * * * * * * * * * * * * * * * * * * * * * * * * * * * * * //

dimensions      [1 0 -1 0 0 0 0];

internalField   nonuniform List<scalar> 
1890
(
7.47355e-08
-8.9272e-13
1.48804e-07
-8.60784e-13
2.37596e-07
-8.30388e-13
3.49652e-07
-8.18866e-13
4.95546e-07
-8.35224e-13
6.8876e-07
-8.97071e-13
9.46763e-07
-1.03353e-12
1.29236e-06
-1.28894e-12
1.7554e-06
-1.72868e-12
2.37488e-06
-2.44772e-12
3.20167e-06
-3.58344e-12
4.30178e-06
-5.33363e-12
5.76051e-06
-7.98108e-12
7.68739e-06
-1.19292e-11
1.02223e-05
-1.77532e-11
1.35423e-05
-2.62725e-11
1.78704e-05
-3.86511e-11
2.34844e-05
-5.65354e-11
3.07276e-05
-8.22407e-11
4.00195e-05
-1.19e-10
5.1867e-05
-1.71288e-10
6.68741e-05
-2.45251e-10
8.575e-05
-3.49184e-10
0.000109313
-4.94188e-10
0.000138485
-6.94827e-10
0.000174284
-9.69847e-10
0.000217794
-1.34279e-09
0.000270124
-1.84233e-09
0.000332345
-2.5019e-09
0.000405402
-3.35829e-09
0.000490005
-4.44815e-09
0.000586485
-5.80157e-09
0.000694642
-7.43127e-09
0.000813577
-9.31517e-09
0.000941531
-1.13715e-08
0.00107576
-1.34235e-08
0.00121249
-1.51575e-08
0.00134694
-1.60688e-08
0.00147358
-1.54136e-08
0.00158655
-1.23053e-08
0.00168031
-5.58694e-09
0.00175057
5.5791e-09
0.00179538
2.09828e-08
0.00181606
3.55828e-08
0.00181775
5.10578e-08
0.00180939
8.20971e-08
0.00180131
1.24973e-07
0.00179874
1.28435e-07
0.00179695
2.7357e-07
0.00180689
1.90051e-07
0.00174542
2.91838e-08
0.00172153
3.6325e-07
0.00172244
-4.58851e-08
0.0017315
-9.92533e-08
0.00174574
-2.33568e-08
0.00175905
-1.15358e-08
0.00176234
-2.0455e-08
0.00174711
-2.1413e-08
0.00170728
-1.54267e-08
0.00164047
-1.01478e-08
0.00154803
-6.63731e-09
0.00143426
-3.33589e-09
0.00130524
-8.90112e-10
0.00116767
7.46394e-10
0.00102795
1.70215e-09
0.000891543
2.14463e-09
0.000762657
2.23492e-09
0.000644193
2.10933e-09
0.000537842
1.8718e-09
0.000444286
1.59096e-09
0.000363427
1.30977e-09
0.000294617
1.05192e-09
0.00023686
8.28318e-10
0.000188969
6.41816e-10
0.000149693
4.90667e-10
0.000117799
3.70842e-10
9.21306e-05
2.7752e-10
7.16424e-05
2.05859e-10
5.54111e-05
1.5147e-10
4.26412e-05
1.10583e-10
3.26586e-05
8.01332e-11
2.49012e-05
5.76295e-11
1.89062e-05
4.11279e-11
1.42972e-05
2.91256e-11
1.07708e-05
2.04799e-11
8.0849e-06
1.43181e-11
6.04783e-06
9.97638e-12
4.50896e-06
6.95257e-12
3.35071e-06
4.87176e-12
2.48185e-06
3.45771e-12
1.83198e-06
2.51033e-12
1.34704e-06
1.88523e-12
9.85661e-07
1.47792e-12
7.16282e-07
1.20638e-12
5.14842e-07
1.01725e-12
3.6295e-07
8.76453e-13
2.46445e-07
7.60062e-13
1.54241e-07
6.51422e-13
7.74026e-08
5.38814e-13
4.12066e-13
7.47356e-08
-7.51368e-13
1.48804e-07
-7.43516e-13
2.37597e-07
-7.431e-13
3.49652e-07
-7.69201e-13
4.95546e-07
-8.42583e-13
6.88759e-07
-9.96644e-13
9.46762e-07
-1.28176e-12
1.29236e-06
-1.77203e-12
1.7554e-06
-2.57497e-12
2.37488e-06
-3.84641e-12
3.20167e-06
-5.8114e-12
4.30177e-06
-8.79371e-12
5.76049e-06
-1.32581e-11
7.68737e-06
-1.98703e-11
1.02222e-05
-2.95822e-11
1.35422e-05
-4.37513e-11
1.78703e-05
-6.43066e-11
2.34843e-05
-9.39759e-11
3.07274e-05
-1.36594e-10
4.00193e-05
-1.97512e-10
5.18667e-05
-2.84128e-10
6.68737e-05
-4.06577e-10
8.57495e-05
-5.78561e-10
0.000109312
-8.18357e-10
0.000138484
-1.14995e-09
0.000174283
-1.60418e-09
0.000217792
-2.21978e-09
0.000270121
-3.04393e-09
0.000332341
-4.13172e-09
0.000405398
-5.54379e-09
0.00049
-7.34087e-09
0.000586478
-9.5732e-09
0.000694635
-1.22628e-08
0.000813569
-1.5376e-08
0.000941523
-1.87803e-08
0.00107575
-2.21882e-08
0.00121248
-2.50802e-08
0.00134694
-2.66151e-08
0.00147359
-2.55295e-08
0.00158657
-1.99623e-08
0.00168035
-7.42819e-09
0.00175062
1.56915e-08
0.00179541
5.53798e-08
0.00181605
1.15924e-07
0.00181761
1.72396e-07
0.00180909
2.48354e-07
0.00180083
2.32837e-07
0.00179768
3.29884e-07
0.00179729
1.91574e-07
0.00179904
2.45775e-07
0.00174998
1.30653e-09
0.00172284
2.39084e-08
0.00172258
1.13016e-07
0.00173143
6.60781e-08
0.00174562
-7.77105e-09
0.00175893
-5.3915e-08
0.00176228
-6.59282e-08
0.00174709
-5.80262e-08
0.00170728
-4.19175e-08
0.00164047
-2.72973e-08
0.00154804
-1.79475e-08
0.00143427
-8.97982e-09
0.00130524
-2.91838e-09
0.00116767
7.69418e-10
0.00102795
2.80188e-09
0.000891543
3.72183e-09
0.000762656
3.93357e-09
0.000644192
3.73343e-09
0.000537841
3.32183e-09
0.000444285
2.82905e-09
0.000363426
2.3335e-09
0.000294616
1.87813e-09
0.000236859
1.48249e-09
0.000188969
1.15177e-09
0.000149692
8.83073e-10
0.000117798
6.69482e-10
9.21303e-05
5.02621e-10
7.16421e-05
3.74103e-10
5.5411e-05
2.76286e-10
4.2641e-05
2.02607e-10
3.26585e-05
1.47618e-10
2.49011e-05
1.06923e-10
1.89062e-05
7.70457e-11
1.42972e-05
5.52769e-11
1.07708e-05
3.95332e-11
8.08489e-06
2.82271e-11
6.04782e-06
2.01605e-11
4.50895e-06
1.4437e-11
3.3507e-06
1.0393e-11
2.48185e-06
7.54214e-12
1.83198e-06
5.53205e-12
1.34704e-06
4.11006e-12
9.8566e-07
3.09657e-12
7.16282e-07
2.36491e-12
5.14841e-07
1.82763e-12
3.6295e-07
1.42601e-12
2.46444e-07
1.12042e-12
1.5424e-07
8.86874e-13
7.7402e-08
7.12361e-13
5.94863e-13
7.47357e-08
-6.1481e-13
1.48804e-07
-6.22134e-13
2.37596e-07
-6.39308e-13
3.49652e-07
-6.88772e-13
4.95545e-07
-7.97841e-13
6.88758e-07
-1.00525e-12
9.4676e-07
-1.36832e-12
1.29236e-06
-1.97056e-12
1.75539e-06
-2.93236e-12
2.37487e-06
-4.42559e-12
3.20165e-06
-6.6949e-12
4.30176e-06
-1.00896e-11
5.76047e-06
-1.51081e-11
7.68733e-06
-2.24605e-11
1.02222e-05
-3.31589e-11
1.35422e-05
-4.8641e-11
1.78702e-05
-7.09435e-11
2.34841e-05
-1.02939e-10
3.07272e-05
-1.48654e-10
4.00189e-05
-2.13697e-10
5.18662e-05
-3.0581e-10
6.6873e-05
-4.35566e-10
8.57485e-05
-6.17236e-10
0.00010931
-8.69825e-10
0.000138482
-1.21823e-09
0.00017428
-1.69442e-09
0.000217789
-2.33851e-09
0.000270117
-3.19931e-09
0.000332336
-4.33383e-09
0.000405391
-5.80498e-09
0.000489991
-7.67604e-09
0.000586468
-1.00002e-08
0.000694622
-1.2803e-08
0.000813555
-1.60543e-08
0.000941509
-1.96288e-08
0.00107574
-2.32482e-08
0.00121247
-2.64142e-08
0.00134694
-2.83268e-08
0.00147361
-2.77988e-08
0.00158661
-2.32756e-08
0.00168042
-1.29534e-08
0.00175075
5.10648e-09
0.00179562
3.0665e-08
0.0018164
5.89826e-08
0.00181815
8.26868e-08
0.00180968
1.202e-07
0.00180141
1.67742e-07
0.00179876
1.63246e-07
0.00179704
3.79889e-07
0.00180703
3.46184e-07
0.00174517
2.30162e-07
0.00172101
4.66646e-07
0.00172233
7.52803e-09
0.00173161
-1.08464e-07
0.00174574
-3.07353e-08
0.00175905
-3.37081e-08
0.00176241
-3.4356e-08
0.00174721
-3.26483e-08
0.00170737
-2.74914e-08
0.00164053
-1.84803e-08
0.00154808
-1.10135e-08
0.00143429
-4.95921e-09
0.00130526
-3.86366e-10
0.00116768
2.65108e-09
0.00102796
4.34557e-09
0.000891545
5.04272e-09
0.000762656
5.07663e-09
0.00064419
4.71452e-09
0.000537839
4.15152e-09
0.000444283
3.51924e-09
0.000363424
2.89865e-09
0.000294615
2.33411e-09
0.000236858
1.84544e-09
0.000188968
1.43713e-09
0.000149692
1.1049e-09
0.000117798
8.40148e-10
9.21298e-05
6.32686e-10
7.16418e-05
4.72356e-10
5.54107e-05
3.49924e-10
4.26408e-05
2.57408e-10
3.26583e-05
1.88155e-10
2.4901e-05
1.36761e-10
1.89061e-05
9.89272e-11
1.42971e-05
7.12832e-11
1.07707e-05
5.12239e-11
8.08485e-06
3.67584e-11
6.0478e-06
2.63811e-11
4.50894e-06
1.89662e-11
3.35069e-06
1.36802e-11
2.48184e-06
9.91308e-12
1.83198e-06
7.22203e-12
1.34704e-06
5.29146e-12
9.85657e-07
3.89661e-12
7.1628e-07
2.87998e-12
5.1484e-07
2.13074e-12
3.62948e-07
1.58018e-12
2.46443e-07
1.17087e-12
1.5424e-07
8.78983e-13
7.74016e-08
6.82487e-13
5.6862e-13
7.47356e-08
-2.94483e-13
1.48804e-07
-2.79565e-13
2.37596e-07
-2.81122e-13
3.49652e-07
-3.11209e-13
4.95544e-07
-3.93064e-13
6.88757e-07
-5.59153e-13
9.46758e-07
-8.57141e-13
1.29235e-06
-1.35482e-12
1.75539e-06
-2.15091e-12
2.37486e-06
-3.38457e-12
3.20164e-06
-5.24335e-12
4.30174e-06
-7.99651e-12
5.76044e-06
-1.20226e-11
7.68729e-06
-1.78522e-11
1.02221e-05
-2.62387e-11
1.35421e-05
-3.82391e-11
1.78701e-05
-5.53375e-11
2.34839e-05
-7.96096e-11
3.07269e-05
-1.13941e-10
4.00186e-05
-1.62318e-10
5.18657e-05
-2.30248e-10
6.68723e-05
-3.25133e-10
8.57476e-05
-4.56927e-10
0.000109309
-6.38788e-10
0.00013848
-8.87838e-10
0.000174278
-1.22592e-09
0.000217785
-1.68028e-09
0.000270113
-2.28382e-09
0.00033233
-3.0748e-09
0.000405384
-4.09517e-09
0.000489982
-5.38693e-09
0.000586457
-6.98524e-09
0.000694609
-8.90696e-09
0.000813541
-1.11328e-08
0.000941494
-1.35812e-08
0.00107573
-1.60718e-08
0.00121246
-1.82788e-08
0.00134694
-1.96794e-08
0.00147362
-1.95243e-08
0.00158665
-1.67998e-08
0.00168048
-1.02749e-08
0.00175082
1.24047e-09
0.0017957
1.93921e-08
0.00181641
4.38984e-08
0.00181801
8.33213e-08
0.0018094
1.01777e-07
0.00180078
1.49703e-07
0.0017974
1.14022e-07
0.00179698
1.36081e-07
0.0017989
1.66815e-07
0.00174981
4.55861e-08
0.00172237
3.97083e-07
0.00172215
6.65101e-08
0.00173116
-5.02624e-08
0.00174546
-4.31794e-08
0.00175892
-3.96606e-08
0.00176235
-3.70626e-08
0.00174719
-2.96341e-08
0.00170738
-2.21054e-08
0.00164056
-1.38868e-08
0.0015481
-6.6294e-09
0.00143431
-1.36698e-09
0.00130527
2.1714e-09
0.00116769
4.2898e-09
0.00102796
5.33684e-09
0.000891545
5.60972e-09
0.000762654
5.38503e-09
0.000644188
4.87573e-09
0.000537837
4.23558e-09
0.000444281
3.56615e-09
0.000363422
2.92964e-09
0.000294613
2.35931e-09
0.000236857
1.86888e-09
0.000188966
1.45985e-09
0.000149691
1.12671e-09
0.000117797
8.6049e-10
9.21292e-05
6.51078e-10
7.16413e-05
4.88542e-10
5.54103e-05
3.63845e-10
4.26406e-05
2.6916e-10
3.26581e-05
1.97931e-10
2.49008e-05
1.44802e-10
1.8906e-05
1.05483e-10
1.4297e-05
7.65889e-11
1.07707e-05
5.54888e-11
8.08481e-06
4.01617e-11
6.04777e-06
2.90717e-11
4.50892e-06
2.10684e-11
3.35068e-06
1.52964e-11
2.48183e-06
1.11281e-11
1.83197e-06
8.1078e-12
1.34703e-06
5.90824e-12
9.85653e-07
4.29619e-12
7.16277e-07
3.10772e-12
5.14838e-07
2.22787e-12
3.62947e-07
1.57838e-12
2.46442e-07
1.10319e-12
1.54239e-07
7.64885e-13
7.74011e-08
5.44753e-13
4.2598e-13
7.47357e-08
5.68295e-15
1.48804e-07
2.209e-14
2.37596e-07
3.39694e-14
3.49651e-07
1.61086e-14
4.95544e-07
-4.32467e-14
6.88756e-07
-1.56979e-13
9.46756e-07
-3.58897e-13
1.29235e-06
-6.78502e-13
1.75538e-06
-1.18001e-12
2.37486e-06
-1.96651e-12
3.20163e-06
-3.07408e-12
4.30172e-06
-4.63867e-12
5.76042e-06
-6.82622e-12
7.68726e-06
-9.80818e-12
1.02221e-05
-1.38906e-11
1.3542e-05
-1.94258e-11
1.787e-05
-2.69025e-11
2.34838e-05
-3.69924e-11
3.07267e-05
-5.05016e-11
4.00183e-05
-6.86386e-11
5.18653e-05
-9.28909e-11
6.68718e-05
-1.25206e-10
8.57468e-05
-1.68085e-10
0.000109308
-2.24536e-10
0.000138479
-2.98434e-10
0.000174276
-3.94378e-10
0.000217783
-5.17698e-10
0.00027011
-6.74471e-10
0.000332326
-8.71286e-10
0.000405379
-1.11486e-09
0.000489975
-1.41139e-09
0.000586449
-1.76549e-09
0.000694601
-2.17868e-09
0.000813531
-2.64727e-09
0.000941484
-3.15815e-09
0.00107572
-3.68881e-09
0.00121246
-4.20515e-09
0.00134694
-4.64536e-09
0.00147363
-4.91241e-09
0.00158667
-4.93522e-09
0.00168052
-4.57844e-09
0.00175088
-3.52362e-09
0.00179578
-1.68916e-09
0.00181652
-3.24549e-10
0.00181817
1.02603e-09
0.00180953
1.54804e-09
0.00180087
-1.80909e-09
0.00179733
-1.17479e-08
0.00179671
-5.41693e-09
0.00179872
-7.95055e-10
0.00174938
-1.36507e-08
0.00172202
-1.47453e-08
0.00172214
5.65876e-09
0.00173129
2.46367e-09
0.00174558
1.00056e-08
0.00175901
3.29533e-09
0.00176241
1.6533e-09
0.00174723
8.33242e-10
0.00170742
1.06619e-09
0.00164059
1.77243e-09
0.00154812
3.40768e-09
0.00143433
4.9363e-09
0.00130528
5.8354e-09
0.00116769
6.13076e-09
0.00102796
5.98681e-09
0.000891544
5.57264e-09
0.000762652
4.99735e-09
0.000644186
4.35248e-09
0.000537834
3.70022e-09
0.000444278
3.08236e-09
0.00036342
2.5228e-09
0.000294611
2.03332e-09
0.000236855
1.61688e-09
0.000188965
1.27047e-09
0.00014969
9.87655e-10
0.000117796
7.60389e-10
9.21286e-05
5.80278e-10
7.16408e-05
4.39279e-10
5.54099e-05
3.30109e-10
4.26403e-05
2.46429e-10
3.26579e-05
1.82879e-10
2.49007e-05
1.35027e-10
1.89059e-05
9.92758e-11
1.4297e-05
7.27516e-11
1.07706e-05
5.31917e-11
8.08477e-06
3.8838e-11
6.04774e-06
2.83413e-11
4.50889e-06
2.06792e-11
3.35066e-06
1.5086e-11
2.48182e-06
1.09956e-11
1.83196e-06
7.99393e-12
1.34702e-06
5.78094e-12
9.85649e-07
4.14058e-12
7.16273e-07
2.9214e-12
5.14835e-07
2.01535e-12
3.62945e-07
1.34671e-12
2.46441e-07
8.62524e-13
1.54238e-07
5.25449e-13
7.74007e-08
3.09896e-13
1.99389e-13
7.47357e-08
3.95819e-13
1.48804e-07
4.43354e-13
2.37596e-07
4.79224e-13
3.49651e-07
5.0087e-13
4.95543e-07
5.052e-13
6.88755e-07
4.87856e-13
9.46755e-07
4.42771e-13
1.29235e-06
3.65249e-13
1.75538e-06
2.52066e-13
2.37485e-06
1.07751e-13
3.20162e-06
-4.26083e-14
4.30171e-06
-1.54703e-13
5.7604e-06
-1.44953e-13
7.68724e-06
1.33032e-13
1.0222e-05
9.12295e-13
1.3542e-05
2.55335e-12
1.78699e-05
5.6041e-12
2.34838e-05
1.08907e-11
3.07267e-05
1.96447e-11
4.00182e-05
3.36673e-11
5.18652e-05
5.55698e-11
6.68716e-05
8.90855e-11
8.57466e-05
1.39475e-10
0.000109308
2.14046e-10
0.000138479
3.22698e-10
0.000174276
4.78649e-10
0.000217783
6.99014e-10
0.000270109
1.00525e-09
0.000332325
1.42313e-09
0.000405378
1.98179e-09
0.000489974
2.71116e-09
0.000586448
3.63696e-09
0.000694599
4.77172e-09
0.000813529
6.1006e-09
0.000941482
7.55906e-09
0.00107572
9.00538e-09
0.00121245
1.01801e-08
0.00134693
1.06568e-08
0.00147363
9.79591e-09
0.00158667
6.74287e-09
0.00168052
4.12037e-10
0.00175089
-1.06502e-08
0.00179579
-2.83968e-08
0.00181653
-5.37662e-08
0.00181819
-9.37573e-08
0.00180956
-1.01581e-07
0.00180089
-1.38051e-07
0.00179733
-1.10985e-07
0.00179671
-1.53294e-07
0.00179872
-1.8524e-07
0.00174939
-6.2285e-08
0.00172214
-3.83403e-07
0.00172209
-7.92401e-08
0.00173119
4.41487e-08
0.00174549
3.97112e-08
0.00175902
3.95779e-08
0.00176244
3.78942e-08
0.00174726
3.46576e-08
0.00170744
3.06712e-08
0.0016406
2.43687e-08
0.00154813
1.84051e-08
0.00143433
1.38695e-08
0.00130528
1.04947e-08
0.00116769
8.09592e-09
0.00102796
6.36912e-09
0.000891542
5.11962e-09
0.00076265
4.17078e-09
0.000644183
3.41421e-09
0.000537832
2.80082e-09
0.000444276
2.2916e-09
0.000363418
1.86235e-09
0.00029461
1.50137e-09
0.000236854
1.2004e-09
0.000188964
9.51562e-10
0.000149689
7.47761e-10
0.000117795
5.82591e-10
9.2128e-05
4.50157e-10
7.16404e-05
3.45097e-10
5.54096e-05
2.62612e-10
4.264e-05
1.98495e-10
3.26577e-05
1.49124e-10
2.49005e-05
1.11444e-10
1.89058e-05
8.29181e-11
1.42969e-05
6.14779e-11
1.07706e-05
4.54611e-11
8.08473e-06
3.3552e-11
6.04771e-06
2.47248e-11
4.50887e-06
1.81919e-11
3.35065e-06
1.3352e-11
2.48181e-06
9.76086e-12
1.83195e-06
7.08678e-12
1.34702e-06
5.09197e-12
9.85644e-07
3.58611e-12
7.1627e-07
2.45992e-12
5.14833e-07
1.61689e-12
3.62943e-07
9.92709e-13
2.4644e-07
5.41319e-13
1.54237e-07
2.30687e-13
7.74002e-08
3.79644e-14
-5.51156e-14
7.47359e-08
5.98972e-13
1.48805e-07
6.38812e-13
2.37596e-07
6.70814e-13
3.49651e-07
6.95596e-13
4.95543e-07
7.10942e-13
6.88755e-07
7.20514e-13
9.46755e-07
7.35266e-13
1.29235e-06
7.76774e-13
1.75538e-06
8.83273e-13
2.37485e-06
1.11898e-12
3.20162e-06
1.58843e-12
4.30171e-06
2.45604e-12
5.76041e-06
3.97607e-12
7.68724e-06
6.53504e-12
1.0222e-05
1.07111e-11
1.3542e-05
1.73596e-11
1.787e-05
2.77353e-11
2.34838e-05
4.36635e-11
3.07267e-05
6.77787e-11
4.00183e-05
1.03846e-10
5.18653e-05
1.57198e-10
6.68718e-05
2.35304e-10
8.57469e-05
3.48491e-10
0.000109308
5.10837e-10
0.000138479
7.41201e-10
0.000174276
1.06431e-09
0.000217784
1.51178e-09
0.00027011
2.12278e-09
0.000332327
2.94378e-09
0.00040538
4.02664e-09
0.000489978
5.42397e-09
0.000586452
7.17985e-09
0.000694604
9.3138e-09
0.000813535
1.17957e-08
0.000941488
1.45076e-08
0.00107572
1.71902e-08
0.00121246
1.93789e-08
0.00134693
2.03244e-08
0.00147362
1.89072e-08
0.00158665
1.3666e-08
0.00168048
2.96036e-09
0.00175083
-1.48967e-08
0.00179571
-3.89958e-08
0.00181643
-6.49022e-08
0.00181802
-9.01391e-08
0.00180936
-1.36401e-07
0.0018006
-1.78264e-07
0.0017972
-1.71258e-07
0.00179724
-3.5481e-07
0.00179905
-3.32315e-07
0.00174974
-2.19386e-07
0.00172217
-4.64251e-07
0.00172222
-3.90178e-09
0.00173127
1.08266e-07
0.00174551
3.60675e-08
0.00175892
3.02972e-08
0.00176235
3.16766e-08
0.00174719
3.15651e-08
0.00170739
2.90251e-08
0.00164057
2.42739e-08
0.00154811
1.90995e-08
0.00143431
1.42371e-08
0.00130527
1.04391e-08
0.00116769
7.55551e-09
0.00102796
5.4865e-09
0.000891538
4.04041e-09
0.000762647
3.0439e-09
0.000644181
2.29154e-09
0.00053783
1.8031e-09
0.000444275
1.44881e-09
0.000363416
1.16399e-09
0.000294608
9.388e-10
0.000236853
7.58083e-10
0.000188963
6.10566e-10
0.000149688
4.88535e-10
0.000117795
3.87804e-10
9.21276e-05
3.05295e-10
7.16401e-05
2.38333e-10
5.54094e-05
1.84553e-10
4.26399e-05
1.41823e-10
3.26576e-05
1.08231e-10
2.49004e-05
8.2092e-11
1.89057e-05
6.19433e-11
1.42968e-05
4.65326e-11
1.07705e-05
3.48324e-11
8.0847e-06
2.59938e-11
6.04768e-06
1.9338e-11
4.50885e-06
1.43316e-11
3.35063e-06
1.05663e-11
2.48179e-06
7.72847e-12
1.83194e-06
5.59375e-12
1.34701e-06
3.95783e-12
9.8564e-07
2.72336e-12
7.16266e-07
1.7884e-12
5.1483e-07
1.08507e-12
3.62941e-07
5.62985e-13
2.46438e-07
1.88034e-13
1.54236e-07
-6.67886e-14
7.73999e-08
-2.20508e-13
-2.87083e-13
7.47361e-08
7.72025e-13
1.48805e-07
8.48932e-13
2.37596e-07
8.93383e-13
3.49651e-07
9.22557e-13
4.95543e-07
9.47253e-13
6.88755e-07
9.79775e-13
9.46755e-07
1.03979e-12
1.29235e-06
1.15989e-12
1.75538e-06
1.39336e-12
2.37485e-06
1.82304e-12
3.20163e-06
2.57542e-12
4.30172e-06
3.84345e-12
5.76042e-06
5.91936e-12
7.68726e-06
9.23699e-12
1.02221e-05
1.44334e-11
1.3542e-05
2.24384e-11
1.787e-05
3.46054e-11
2.34839e-05
5.28926e-11
3.07269e-05
8.0112e-11
4.00185e-05
1.20269e-10
5.18656e-05
1.79015e-10
6.68723e-05
2.64247e-10
8.57476e-05
3.86821e-10
0.000109309
5.61519e-10
0.000138481
8.08041e-10
0.000174278
1.15212e-09
0.000217786
1.62653e-09
0.000270114
2.27163e-09
0.000332332
3.13503e-09
0.000405386
4.26944e-09
0.000489985
5.72761e-09
0.000586461
7.55243e-09
0.000694614
9.76003e-09
0.000813546
1.23127e-08
0.000941499
1.50784e-08
0.00107573
1.77744e-08
0.00121246
1.98905e-08
0.00134693
2.06023e-08
0.0014736
1.86596e-08
0.00158661
1.22285e-08
0.00168043
-1.16813e-09
0.00175076
-2.52133e-08
0.00179564
-6.63273e-08
0.00181642
-1.204e-07
0.00181818
-1.80479e-07
0.0018097
-2.57483e-07
0.00180143
-2.32983e-07
0.00179876
-3.18005e-07
0.00179704
-1.84062e-07
0.00180702
-2.49643e-07
0.00174515
1.80587e-09
0.00172099
-1.62981e-08
0.00172231
-1.05928e-07
0.0017316
-5.91814e-08
0.00174574
1.46475e-08
0.00175906
5.78581e-08
0.00176244
6.6552e-08
0.00174724
5.83394e-08
0.0017074
4.69898e-08
0.00164056
3.45443e-08
0.0015481
2.40667e-08
0.0014343
1.59457e-08
0.00130526
1.08067e-08
0.00116768
6.96597e-09
0.00102795
4.5039e-09
0.000891535
2.9557e-09
0.000762645
1.99447e-09
0.000644179
1.3943e-09
0.000537829
1.02259e-09
0.000444274
7.92597e-10
0.000363416
6.32859e-10
0.000294608
5.06861e-10
0.000236852
4.03549e-10
0.000188963
3.30529e-10
0.000149688
2.68745e-10
0.000117794
2.17845e-10
9.21274e-05
1.7547e-10
7.16399e-05
1.401e-10
5.54092e-05
1.10802e-10
4.26397e-05
8.68247e-11
3.26575e-05
6.74605e-11
2.49004e-05
5.20227e-11
1.89056e-05
3.98523e-11
1.42968e-05
3.03607e-11
1.07705e-05
2.30221e-11
8.08467e-06
1.73708e-11
6.04766e-06
1.30399e-11
4.50884e-06
9.72716e-12
3.35062e-06
7.19118e-12
2.48179e-06
5.25288e-12
1.83194e-06
3.75431e-12
1.34701e-06
2.60433e-12
9.85636e-07
1.72008e-12
7.16264e-07
1.04055e-12
5.14828e-07
5.25729e-13
3.6294e-07
1.44952e-13
2.46437e-07
-1.25889e-13
1.54236e-07
-3.05403e-13
7.73996e-08
-4.08276e-13
-4.43989e-13
7.47364e-08
5.48898e-13
1.48805e-07
6.45348e-13
2.37596e-07
6.64999e-13
3.49651e-07
6.45779e-13
4.95543e-07
6.02362e-13
6.88755e-07
5.4725e-13
9.46755e-07
4.96006e-13
1.29235e-06
4.71911e-13
1.75538e-06
5.22322e-13
2.37486e-06
7.09412e-13
3.20163e-06
1.11055e-12
4.30173e-06
1.84195e-12
5.76043e-06
3.10296e-12
7.68728e-06
5.18731e-12
1.02221e-05
8.51073e-12
1.35421e-05
1.36581e-11
1.78701e-05
2.14802e-11
2.3484e-05
3.32184e-11
3.0727e-05
5.06516e-11
4.00187e-05
7.63117e-11
5.1866e-05
1.13774e-10
6.68728e-05
1.68015e-10
8.57482e-05
2.45904e-10
0.00010931
3.56747e-10
0.000138482
5.12941e-10
0.00017428
7.30621e-10
0.000217789
1.0303e-09
0.000270117
1.43715e-09
0.000332336
1.98075e-09
0.000405392
2.69367e-09
0.000489992
3.60826e-09
0.000586469
4.75046e-09
0.000694624
6.12925e-09
0.000813557
7.71987e-09
0.000941511
9.43877e-09
0.00107574
1.11094e-08
0.00121247
1.24175e-08
0.00134693
1.28654e-08
0.00147358
1.17404e-08
0.00158657
8.11663e-09
0.00168035
9.43113e-10
0.00175063
-1.00803e-08
0.00179543
-2.47756e-08
0.00181607
-3.97371e-08
0.00181763
-5.61378e-08
0.00180911
-8.86005e-08
0.00180084
-1.25275e-07
0.00179769
-1.23846e-07
0.00179728
-2.69048e-07
0.00179901
-1.95846e-07
0.00174996
-5.85178e-08
0.00172286
-3.79001e-07
0.0017226
4.0359e-08
0.00173143
1.3479e-07
0.00174562
4.69237e-08
0.00175894
2.63448e-08
0.0017623
2.40464e-08
0.00174712
2.13422e-08
0.00170731
1.70684e-08
0.0016405
1.33748e-08
0.00154806
1.01864e-08
0.00143428
6.9799e-09
0.00130525
4.85004e-09
0.00116767
3.25287e-09
0.00102794
2.13596e-09
0.000891531
1.38278e-09
0.000762642
8.99248e-10
0.000644178
6.01919e-10
0.000537828
4.23477e-10
0.000444273
3.16495e-10
0.000363415
2.49118e-10
0.000294607
2.03614e-10
0.000236852
1.70345e-10
0.000188963
1.40097e-10
0.000149687
1.13353e-10
0.000117794
9.40049e-11
9.21272e-05
7.70876e-11
7.16397e-05
6.26895e-11
5.54091e-05
5.05073e-11
4.26396e-05
4.02681e-11
3.26574e-05
3.17947e-11
2.49003e-05
2.48653e-11
1.89056e-05
1.92976e-11
1.42967e-05
1.48751e-11
1.07705e-05
1.13968e-11
8.08465e-06
8.6696e-12
6.04765e-06
6.54464e-12
4.50883e-06
4.88905e-12
3.35061e-06
3.59656e-12
2.48178e-06
2.5866e-12
1.83193e-06
1.79184e-12
1.347e-06
1.18526e-12
9.85633e-07
7.17038e-13
7.16262e-07
3.20717e-13
5.14827e-07
3.29754e-14
3.62939e-07
-1.77901e-13
2.46437e-07
-3.24837e-13
1.54236e-07
-4.1705e-13
7.73995e-08
-4.6238e-13
-4.67274e-13
7.47368e-08
1.48805e-07
2.37596e-07
3.49651e-07
4.95543e-07
6.88755e-07
9.46755e-07
1.29235e-06
1.75538e-06
2.37486e-06
3.20164e-06
4.30173e-06
5.76044e-06
7.68729e-06
1.02221e-05
1.35421e-05
1.78701e-05
2.34841e-05
3.07271e-05
4.00189e-05
5.18662e-05
6.68731e-05
8.57487e-05
0.000109311
0.000138483
0.000174281
0.00021779
0.000270119
0.000332339
0.000405395
0.000489996
0.000586475
0.000694631
0.000813564
0.000941518
0.00107575
0.00121247
0.00134692
0.00147357
0.00158655
0.00168031
0.00175058
0.00179539
0.00181609
0.00181779
0.00180943
0.00180134
0.00179874
0.00179693
0.00180681
0.00174529
0.00172126
0.00172248
0.00173165
0.00174577
0.00175904
0.00176236
0.00174715
0.00170732
0.0016405
0.00154805
0.00143427
0.00130524
0.00116766
0.00102794
0.000891529
0.000762641
0.000644177
0.000537828
0.000444273
0.000363415
0.000294607
0.000236852
0.000188963
0.000149687
0.000117794
9.21272e-05
7.16397e-05
5.54091e-05
4.26396e-05
3.26574e-05
2.49003e-05
1.89056e-05
1.42967e-05
1.07705e-05
8.08465e-06
6.04764e-06
4.50882e-06
3.35061e-06
2.48178e-06
1.83193e-06
1.347e-06
9.85632e-07
7.16261e-07
5.14826e-07
3.62938e-07
2.46436e-07
1.54235e-07
7.73995e-08
)
;

boundaryField
{
    sides1
    {
        type            calculated;
        value           nonuniform List<scalar> 
20
(
8.37385e-09
8.3736e-09
8.37351e-09
8.37343e-09
8.37336e-09
8.37331e-09
8.37328e-09
8.37327e-09
8.37329e-09
8.37332e-09
-8.15999e-09
-8.16004e-09
-8.16005e-09
-8.16006e-09
-8.16008e-09
-8.16012e-09
-8.16018e-09
-8.16025e-09
-8.16035e-09
-8.16056e-09
)
;
    }
    sides2
    {
        type            calculated;
        value           uniform 0;
    }
    empty
    {
        type            empty;
        value           nonuniform 0();
    }
}


// ************************************************************************* //
