/*--------------------------------*- C++ -*----------------------------------*\
| =========                 |                                                 |
| \\      /  F ield         | OpenFOAM: The Open Source CFD Toolbox           |
|  \\    /   O peration     | Version:  3.0.1                                 |
|   \\  /    A nd           | Web:      www.OpenFOAM.org                      |
|    \\/     M anipulation  |                                                 |
\*---------------------------------------------------------------------------*/
FoamFile
{
    version     2.0;
    format      ascii;
    class       volScalarField;
    location    "0.00015";
    object      rho;
}
// * * * * * * * * * * * * * * * * * * * * * * * * * * * * * * * * * * * * * //

dimensions      [1 -3 0 0 0 0 0];

internalField   nonuniform List<scalar> 
1000
(
0.831234
0.831233
0.831232
0.83123
0.831227
0.831223
0.831217
0.831209
0.831198
0.831183
0.831163
0.831137
0.831102
0.831055
0.830994
0.830914
0.83081
0.830674
0.830499
0.830275
0.829988
0.829624
0.829166
0.828594
0.827884
0.827011
0.825947
0.824666
0.823138
0.821338
0.819246
0.816851
0.814153
0.811169
0.807938
0.804524
0.801016
0.797534
0.794218
0.791224
0.788708
0.7868
0.785574
0.785023
0.785015
0.785317
0.785618
0.78594
0.784944
0.789355
0.772329
0.754955
0.751556
0.751303
0.751634
0.752127
0.75258
0.75278
0.75253
0.751678
0.750163
0.748015
0.745334
0.742266
0.738974
0.735615
0.732325
0.729208
0.726338
0.723758
0.721488
0.719524
0.717854
0.716452
0.715289
0.714337
0.713564
0.712942
0.712446
0.712054
0.711745
0.711504
0.711317
0.711173
0.711062
0.710977
0.710912
0.710863
0.710826
0.710798
0.710778
0.710762
0.710751
0.710742
0.710736
0.710731
0.710728
0.710726
0.710725
0.710724
0.831234
0.831233
0.831232
0.83123
0.831227
0.831223
0.831217
0.831209
0.831198
0.831183
0.831163
0.831137
0.831102
0.831055
0.830994
0.830914
0.83081
0.830674
0.830499
0.830275
0.829988
0.829624
0.829166
0.828594
0.827884
0.827011
0.825947
0.824666
0.823138
0.821338
0.819246
0.816851
0.814153
0.811169
0.807938
0.804524
0.801016
0.797533
0.794217
0.791223
0.788706
0.786797
0.78557
0.785015
0.785017
0.785301
0.785629
0.785954
0.785391
0.786087
0.772875
0.756369
0.751672
0.751351
0.751672
0.752133
0.752578
0.752781
0.75253
0.751678
0.750164
0.748015
0.745334
0.742266
0.738974
0.735616
0.732325
0.729208
0.726338
0.723758
0.721488
0.719524
0.717854
0.716452
0.715289
0.714337
0.713564
0.712942
0.712446
0.712054
0.711745
0.711504
0.711317
0.711173
0.711062
0.710977
0.710912
0.710863
0.710826
0.710798
0.710778
0.710762
0.710751
0.710742
0.710736
0.710731
0.710728
0.710726
0.710725
0.710724
0.831234
0.831233
0.831232
0.83123
0.831227
0.831223
0.831217
0.831209
0.831198
0.831183
0.831163
0.831137
0.831102
0.831055
0.830994
0.830914
0.83081
0.830674
0.830499
0.830275
0.829988
0.829624
0.829166
0.828594
0.827884
0.827011
0.825947
0.824666
0.823138
0.821338
0.819246
0.816851
0.814153
0.811169
0.807938
0.804523
0.801015
0.797532
0.794215
0.79122
0.788702
0.786792
0.785564
0.785012
0.785016
0.785319
0.785542
0.785926
0.784992
0.789381
0.772407
0.754727
0.751582
0.751421
0.75167
0.752108
0.752566
0.75278
0.752531
0.751679
0.750165
0.748016
0.745335
0.742267
0.738975
0.735616
0.732325
0.729208
0.726338
0.723758
0.721488
0.719524
0.717854
0.716451
0.715289
0.714337
0.713564
0.712942
0.712446
0.712054
0.711745
0.711504
0.711317
0.711173
0.711062
0.710977
0.710912
0.710863
0.710826
0.710798
0.710778
0.710762
0.710751
0.710742
0.710736
0.710731
0.710728
0.710726
0.710725
0.710724
0.831234
0.831233
0.831232
0.83123
0.831227
0.831223
0.831217
0.831209
0.831198
0.831183
0.831163
0.831137
0.831102
0.831055
0.830994
0.830914
0.83081
0.830674
0.830499
0.830275
0.829988
0.829624
0.829166
0.828594
0.827884
0.827011
0.825947
0.824666
0.823138
0.821338
0.819246
0.816851
0.814153
0.811169
0.807938
0.804523
0.801015
0.797531
0.794213
0.791218
0.788699
0.786788
0.785558
0.785004
0.784999
0.785322
0.785621
0.785946
0.785398
0.786093
0.772884
0.756349
0.751748
0.751343
0.75163
0.752106
0.752568
0.752776
0.752531
0.751681
0.750166
0.748017
0.745335
0.742267
0.738975
0.735616
0.732325
0.729208
0.726338
0.723758
0.721487
0.719524
0.717853
0.716451
0.715289
0.714337
0.713564
0.712942
0.712446
0.712054
0.711745
0.711504
0.711317
0.711173
0.711062
0.710977
0.710912
0.710863
0.710826
0.710798
0.710778
0.710762
0.710751
0.710742
0.710736
0.710731
0.710728
0.710726
0.710725
0.710724
0.831234
0.831233
0.831232
0.83123
0.831227
0.831223
0.831217
0.831209
0.831198
0.831183
0.831163
0.831137
0.831102
0.831055
0.830994
0.830914
0.83081
0.830674
0.830499
0.830275
0.829988
0.829624
0.829166
0.828594
0.827884
0.827011
0.825948
0.824666
0.823138
0.821338
0.819246
0.816851
0.814153
0.811169
0.807938
0.804523
0.801014
0.79753
0.794212
0.791216
0.788697
0.786785
0.785554
0.784997
0.785001
0.785317
0.785616
0.785949
0.785404
0.786095
0.772895
0.756283
0.75169
0.751381
0.751665
0.752129
0.752576
0.752778
0.752531
0.751681
0.750166
0.748018
0.745336
0.742268
0.738975
0.735616
0.732325
0.729208
0.726338
0.723758
0.721487
0.719524
0.717853
0.716451
0.715289
0.714337
0.713564
0.712942
0.712446
0.712054
0.711745
0.711504
0.711317
0.711173
0.711062
0.710977
0.710912
0.710863
0.710826
0.710798
0.710778
0.710762
0.710751
0.710742
0.710736
0.710731
0.710728
0.710726
0.710725
0.710724
0.831234
0.831233
0.831232
0.83123
0.831227
0.831223
0.831217
0.831209
0.831198
0.831183
0.831163
0.831137
0.831102
0.831055
0.830994
0.830914
0.83081
0.830674
0.830499
0.830275
0.829988
0.829624
0.829166
0.828594
0.827884
0.827011
0.825948
0.824666
0.823138
0.821338
0.819246
0.816851
0.814153
0.811169
0.807938
0.804523
0.801014
0.79753
0.794212
0.791216
0.788697
0.786785
0.785554
0.784996
0.785001
0.785317
0.785616
0.785949
0.785404
0.786095
0.772887
0.756349
0.751744
0.75134
0.751612
0.75211
0.752576
0.752779
0.752531
0.751681
0.750167
0.748018
0.745336
0.742268
0.738975
0.735616
0.732325
0.729208
0.726338
0.723758
0.721487
0.719524
0.717853
0.716451
0.715289
0.714337
0.713564
0.712942
0.712446
0.712054
0.711745
0.711504
0.711317
0.711173
0.711062
0.710977
0.710912
0.710863
0.710826
0.710798
0.710778
0.710762
0.710751
0.710742
0.710736
0.710731
0.710728
0.710726
0.710725
0.710724
0.831234
0.831233
0.831232
0.83123
0.831227
0.831223
0.831217
0.831209
0.831198
0.831183
0.831163
0.831137
0.831102
0.831055
0.830994
0.830914
0.83081
0.830674
0.830499
0.830275
0.829988
0.829624
0.829166
0.828594
0.827884
0.827011
0.825948
0.824666
0.823138
0.821338
0.819246
0.816851
0.814153
0.811169
0.807938
0.804523
0.801015
0.797531
0.794213
0.791217
0.788699
0.786787
0.785558
0.785006
0.785009
0.785323
0.785578
0.785785
0.785483
0.786165
0.772936
0.756189
0.751738
0.751412
0.751681
0.752128
0.752577
0.752782
0.752533
0.751681
0.750166
0.748017
0.745336
0.742267
0.738975
0.735616
0.732325
0.729208
0.726338
0.723758
0.721487
0.719524
0.717853
0.716451
0.715289
0.714337
0.713564
0.712942
0.712446
0.712054
0.711745
0.711504
0.711317
0.711173
0.711062
0.710977
0.710912
0.710863
0.710826
0.710798
0.710778
0.710762
0.710751
0.710742
0.710736
0.710731
0.710728
0.710726
0.710725
0.710724
0.831234
0.831233
0.831232
0.83123
0.831227
0.831223
0.831217
0.831209
0.831198
0.831183
0.831163
0.831137
0.831102
0.831055
0.830994
0.830914
0.83081
0.830674
0.830499
0.830275
0.829988
0.829624
0.829166
0.828594
0.827884
0.827011
0.825948
0.824666
0.823138
0.821338
0.819246
0.816851
0.814153
0.811169
0.807938
0.804523
0.801016
0.797532
0.794215
0.79122
0.788702
0.786791
0.785563
0.785011
0.785015
0.785318
0.785541
0.785925
0.784991
0.789381
0.772408
0.754727
0.751582
0.751421
0.75167
0.752108
0.752567
0.752781
0.752532
0.75168
0.750166
0.748017
0.745335
0.742267
0.738975
0.735616
0.732325
0.729208
0.726338
0.723758
0.721487
0.719524
0.717853
0.716451
0.715289
0.714337
0.713564
0.712942
0.712446
0.712054
0.711745
0.711504
0.711317
0.711173
0.711062
0.710977
0.710912
0.710863
0.710826
0.710798
0.710778
0.710762
0.710751
0.710742
0.710736
0.710731
0.710728
0.710726
0.710725
0.710724
0.831234
0.831233
0.831232
0.83123
0.831227
0.831223
0.831217
0.831209
0.831198
0.831183
0.831163
0.831137
0.831102
0.831055
0.830994
0.830914
0.83081
0.830674
0.830499
0.830275
0.829988
0.829624
0.829166
0.828594
0.827884
0.827011
0.825947
0.824666
0.823138
0.821338
0.819246
0.816851
0.814153
0.811169
0.807938
0.804524
0.801016
0.797533
0.794216
0.791222
0.788705
0.786796
0.785571
0.785018
0.785013
0.785296
0.785627
0.785953
0.78539
0.786087
0.772876
0.75637
0.751672
0.751351
0.751672
0.752134
0.752579
0.752782
0.752532
0.751679
0.750165
0.748016
0.745335
0.742267
0.738975
0.735616
0.732325
0.729208
0.726338
0.723758
0.721487
0.719524
0.717853
0.716451
0.715289
0.714337
0.713564
0.712942
0.712446
0.712054
0.711745
0.711504
0.711317
0.711173
0.711062
0.710977
0.710912
0.710863
0.710826
0.710798
0.710778
0.710762
0.710751
0.710742
0.710736
0.710731
0.710728
0.710726
0.710725
0.710724
0.831234
0.831233
0.831232
0.83123
0.831227
0.831223
0.831217
0.831209
0.831198
0.831183
0.831163
0.831137
0.831102
0.831055
0.830994
0.830914
0.83081
0.830674
0.830499
0.830275
0.829988
0.829624
0.829166
0.828594
0.827884
0.827011
0.825947
0.824666
0.823138
0.821338
0.819246
0.816851
0.814153
0.811169
0.807938
0.804524
0.801017
0.797534
0.794218
0.791224
0.788708
0.786799
0.785572
0.785017
0.785016
0.785319
0.785617
0.785939
0.784945
0.789351
0.772389
0.754746
0.751548
0.75141
0.751689
0.752133
0.752579
0.752781
0.752531
0.75168
0.750165
0.748016
0.745335
0.742267
0.738975
0.735615
0.732325
0.729208
0.726338
0.723758
0.721487
0.719524
0.717853
0.716451
0.715289
0.714337
0.713564
0.712942
0.712446
0.712054
0.711745
0.711504
0.711317
0.711173
0.711062
0.710977
0.710912
0.710863
0.710826
0.710798
0.710778
0.710762
0.710751
0.710742
0.710736
0.710731
0.710728
0.710726
0.710725
0.710724
)
;

boundaryField
{
    sides1
    {
        type            calculated;
        value           nonuniform List<scalar> 
20
(
0.710724
0.710724
0.710724
0.710724
0.710724
0.710724
0.710724
0.710724
0.710724
0.710724
0.831234
0.831234
0.831234
0.831234
0.831234
0.831234
0.831234
0.831234
0.831234
0.831234
)
;
    }
    sides2
    {
        type            calculated;
        value           nonuniform List<scalar> 
200
(
0.831234
0.831233
0.831232
0.83123
0.831227
0.831223
0.831217
0.831209
0.831198
0.831183
0.831163
0.831137
0.831102
0.831055
0.830994
0.830914
0.83081
0.830674
0.830499
0.830275
0.829988
0.829624
0.829166
0.828594
0.827884
0.827011
0.825947
0.824666
0.823138
0.821338
0.819246
0.816851
0.814153
0.811169
0.807938
0.804524
0.801016
0.797534
0.794218
0.791224
0.788708
0.7868
0.785574
0.785023
0.785015
0.785317
0.785618
0.78594
0.784944
0.789355
0.772329
0.754955
0.751556
0.751303
0.751634
0.752127
0.75258
0.75278
0.75253
0.751678
0.750163
0.748015
0.745334
0.742266
0.738974
0.735615
0.732325
0.729208
0.726338
0.723758
0.721488
0.719524
0.717854
0.716452
0.715289
0.714337
0.713564
0.712942
0.712446
0.712054
0.711745
0.711504
0.711317
0.711173
0.711062
0.710977
0.710912
0.710863
0.710826
0.710798
0.710778
0.710762
0.710751
0.710742
0.710736
0.710731
0.710728
0.710726
0.710725
0.710724
0.831234
0.831233
0.831232
0.83123
0.831227
0.831223
0.831217
0.831209
0.831198
0.831183
0.831163
0.831137
0.831102
0.831055
0.830994
0.830914
0.83081
0.830674
0.830499
0.830275
0.829988
0.829624
0.829166
0.828594
0.827884
0.827011
0.825947
0.824666
0.823138
0.821338
0.819246
0.816851
0.814153
0.811169
0.807938
0.804524
0.801017
0.797534
0.794218
0.791224
0.788708
0.786799
0.785572
0.785017
0.785016
0.785319
0.785617
0.785939
0.784945
0.789351
0.772389
0.754746
0.751548
0.75141
0.751689
0.752133
0.752579
0.752781
0.752531
0.75168
0.750165
0.748016
0.745335
0.742267
0.738975
0.735615
0.732325
0.729208
0.726338
0.723758
0.721487
0.719524
0.717853
0.716451
0.715289
0.714337
0.713564
0.712942
0.712446
0.712054
0.711745
0.711504
0.711317
0.711173
0.711062
0.710977
0.710912
0.710863
0.710826
0.710798
0.710778
0.710762
0.710751
0.710742
0.710736
0.710731
0.710728
0.710726
0.710725
0.710724
)
;
    }
    empty
    {
        type            empty;
    }
}


// ************************************************************************* //
