/*--------------------------------*- C++ -*----------------------------------*\
| =========                 |                                                 |
| \\      /  F ield         | OpenFOAM: The Open Source CFD Toolbox           |
|  \\    /   O peration     | Version:  3.0.1                                 |
|   \\  /    A nd           | Web:      www.OpenFOAM.org                      |
|    \\/     M anipulation  |                                                 |
\*---------------------------------------------------------------------------*/
FoamFile
{
    version     2.0;
    format      ascii;
    class       volVectorField;
    location    "0.00015";
    object      U;
}
// * * * * * * * * * * * * * * * * * * * * * * * * * * * * * * * * * * * * * //

dimensions      [0 1 -1 0 0 0 0];

internalField   nonuniform List<vector> 
1000
(
(0.00037461 -9.53387e-09 0)
(0.00112034 -9.1626e-09 0)
(0.00193644 -8.82001e-09 0)
(0.00294299 -8.68302e-09 0)
(0.0042357 -8.82592e-09 0)
(0.00593514 -9.41382e-09 0)
(0.00819642 -1.07295e-08 0)
(0.0112214 -1.3212e-08 0)
(0.015274 -1.75149e-08 0)
(0.0206992 -2.45863e-08 0)
(0.0279475 -3.57881e-08 0)
(0.0376048 -5.30709e-08 0)
(0.0504297 -7.92247e-08 0)
(0.0673991 -1.18242e-07 0)
(0.0897636 -1.75821e-07 0)
(0.119114 -2.60088e-07 0)
(0.157457 -3.82586e-07 0)
(0.207307 -5.59649e-07 0)
(0.271786 -8.14272e-07 0)
(0.35473 -1.1786e-06 0)
(0.460803 -1.69718e-06 0)
(0.59561 -2.43116e-06 0)
(0.765791 -3.46355e-06 0)
(0.979089 -4.9054e-06 0)
(1.24437 -6.90304e-06 0)
(1.57158 -9.64564e-06 0)
(1.97156 -1.33722e-05 0)
(2.45578 -1.83759e-05 0)
(3.03579 -2.50029e-05 0)
(3.72261 -3.36401e-05 0)
(4.52566 -4.4684e-05 0)
(5.4516 -5.84805e-05 0)
(6.50275 -7.52187e-05 0)
(7.67538 -9.47611e-05 0)
(8.95786 -0.000116388 0)
(10.3289 -0.000138439 0)
(11.7559 -0.000157871 0)
(13.1947 -0.00016968 0)
(14.5901 -0.000166598 0)
(15.8789 -0.000139505 0)
(16.9955 -7.70954e-05 0)
(17.8813 2.55032e-05 0)
(18.4959 0.000161695 0)
(18.829 0.000254932 0)
(18.9311 0.000252884 0)
(18.8698 -0.000318 0)
(18.7458 -0.000242961 0)
(18.6282 -0.00244848 0)
(18.5279 0.000124444 0)
(18.483 0.00461924 0)
(19.7885 -0.00608232 0)
(20.0177 0.00993936 0)
(19.5738 0.00158384 0)
(19.46 -0.000588779 0)
(19.597 0.000503342 0)
(19.7352 0.000504253 0)
(19.8154 0.000141655 0)
(19.7401 -3.46067e-05 0)
(19.4315 -7.33662e-05 0)
(18.8478 -7.63633e-05 0)
(17.9824 -6.00251e-05 0)
(16.8617 -3.17797e-05 0)
(15.5371 -7.83368e-06 0)
(14.0739 9.20757e-06 0)
(12.5411 1.94973e-05 0)
(11.0033 2.43778e-05 0)
(9.51472 2.54129e-05 0)
(8.11721 2.40356e-05 0)
(6.83901 2.13792e-05 0)
(5.69611 1.82116e-05 0)
(4.69418 1.50215e-05 0)
(3.83094 1.20834e-05 0)
(3.09851 9.52701e-06 0)
(2.48545 7.38912e-06 0)
(1.97852 5.65311e-06 0)
(1.56389 4.27506e-06 0)
(1.22807 3.20052e-06 0)
(0.958498 2.37468e-06 0)
(0.743858 1.74747e-06 0)
(0.574222 1.27595e-06 0)
(0.441069 9.24565e-07 0)
(0.337211 6.64887e-07 0)
(0.256675 4.7455e-07 0)
(0.194562 3.36213e-07 0)
(0.146901 2.3656e-07 0)
(0.110502 1.6547e-07 0)
(0.0828268 1.15319e-07 0)
(0.0618713 8.0391e-08 0)
(0.046065 5.6416e-08 0)
(0.0341848 4.02089e-08 0)
(0.0252838 2.94072e-08 0)
(0.0186327 2.22817e-08 0)
(0.0136724 1.75966e-08 0)
(0.00997546 1.44966e-08 0)
(0.00721592 1.23794e-08 0)
(0.00514497 1.08189e-08 0)
(0.00357183 9.51485e-09 0)
(0.00234853 8.24886e-09 0)
(0.00135782 6.84321e-09 0)
(0.000453769 5.07682e-09 0)
(0.000374611 -1.69369e-08 0)
(0.00112034 -1.64924e-08 0)
(0.00193644 -1.61484e-08 0)
(0.00294299 -1.62702e-08 0)
(0.0042357 -1.71383e-08 0)
(0.00593513 -1.92472e-08 0)
(0.00819642 -2.33775e-08 0)
(0.0112214 -3.06987e-08 0)
(0.0152739 -4.29289e-08 0)
(0.0206991 -6.25585e-08 0)
(0.0279475 -9.31744e-08 0)
(0.0376048 -1.39929e-07 0)
(0.0504296 -2.1021e-07 0)
(0.0673989 -3.14597e-07 0)
(0.0897633 -4.68217e-07 0)
(0.119113 -6.92642e-07 0)
(0.157456 -1.01854e-06 0)
(0.207306 -1.4893e-06 0)
(0.271785 -2.166e-06 0)
(0.354728 -3.13396e-06 0)
(0.460801 -4.51139e-06 0)
(0.595607 -6.46041e-06 0)
(0.765786 -9.20087e-06 0)
(0.979082 -1.30269e-05 0)
(1.24436 -1.83256e-05 0)
(1.57157 -2.55977e-05 0)
(1.97155 -3.54752e-05 0)
(2.45575 -4.87338e-05 0)
(3.03576 -6.62891e-05 0)
(3.72257 -8.91656e-05 0)
(4.52561 -0.000118415 0)
(5.45154 -0.000154956 0)
(6.50267 -0.000199295 0)
(7.6753 -0.000251074 0)
(8.95778 -0.000308381 0)
(10.3288 -0.000366779 0)
(11.7559 -0.000418021 0)
(13.1947 -0.000448458 0)
(14.5902 -0.000437425 0)
(15.8791 -0.000355966 0)
(16.9959 -0.000166137 0)
(17.8817 0.00017418 0)
(18.4963 0.000712232 0)
(18.8293 0.00149483 0)
(18.93 0.00260379 0)
(18.8691 0.00389383 0)
(18.7419 0.0049921 0)
(18.6312 0.00613148 0)
(18.5462 0.00560991 0)
(18.4816 0.00232661 0)
(19.7789 0.00330704 0)
(20.039 0.00158949 0)
(19.5681 -0.000217125 0)
(19.4544 -0.000556561 0)
(19.5967 -0.000620165 0)
(19.7344 -0.000999866 0)
(19.8144 -0.00112056 0)
(19.7396 -0.000908589 0)
(19.4314 -0.000650284 0)
(18.8478 -0.000440298 0)
(17.9825 -0.000269185 0)
(16.8618 -0.000134569 0)
(15.5372 -4.17039e-05 0)
(14.074 1.72646e-05 0)
(12.5412 5.07992e-05 0)
(11.0033 6.63337e-05 0)
(9.51472 6.99847e-05 0)
(8.1172 6.65008e-05 0)
(6.839 5.92792e-05 0)
(5.6961 5.057e-05 0)
(4.69417 4.17663e-05 0)
(3.83093 3.36447e-05 0)
(3.0985 2.65686e-05 0)
(2.48545 2.06427e-05 0)
(1.97852 1.58228e-05 0)
(1.56389 1.19896e-05 0)
(1.22807 8.99492e-06 0)
(0.958495 6.68888e-06 0)
(0.743856 4.93447e-06 0)
(0.574221 3.61348e-06 0)
(0.441068 2.62791e-06 0)
(0.33721 1.8988e-06 0)
(0.256674 1.36376e-06 0)
(0.194562 9.74253e-07 0)
(0.146901 6.92928e-07 0)
(0.110502 4.91363e-07 0)
(0.0828266 3.4811e-07 0)
(0.0618711 2.47115e-07 0)
(0.0460649 1.76449e-07 0)
(0.0341847 1.27318e-07 0)
(0.0252837 9.3294e-08 0)
(0.0186327 6.97345e-08 0)
(0.0136724 5.33327e-08 0)
(0.00997545 4.17734e-08 0)
(0.00721591 3.34449e-08 0)
(0.00514496 2.7243e-08 0)
(0.00357182 2.24084e-08 0)
(0.00234853 1.84469e-08 0)
(0.00135781 1.50355e-08 0)
(0.000453766 1.19798e-08 0)
(0.000374611 -1.34839e-08 0)
(0.00112034 -1.34888e-08 0)
(0.00193644 -1.36624e-08 0)
(0.00294299 -1.44161e-08 0)
(0.00423569 -1.62271e-08 0)
(0.00593513 -1.98087e-08 0)
(0.0081964 -2.62243e-08 0)
(0.0112214 -3.70294e-08 0)
(0.0152739 -5.44757e-08 0)
(0.0206991 -8.18032e-08 0)
(0.0279474 -1.23656e-07 0)
(0.0376046 -1.86693e-07 0)
(0.0504294 -2.8044e-07 0)
(0.0673986 -4.18515e-07 0)
(0.0897629 -6.20364e-07 0)
(0.119113 -9.13675e-07 0)
(0.157455 -1.33775e-06 0)
(0.207305 -1.94815e-06 0)
(0.271783 -2.8229e-06 0)
(0.354725 -4.0709e-06 0)
(0.460797 -5.84283e-06 0)
(0.595601 -8.34499e-06 0)
(0.765778 -1.18567e-05 0)
(0.979071 -1.67513e-05 0)
(1.24435 -2.35196e-05 0)
(1.57155 -3.27956e-05 0)
(1.97152 -4.53794e-05 0)
(2.45572 -6.22525e-05 0)
(3.03571 -8.45743e-05 0)
(3.72251 -0.000113644 0)
(4.52553 -0.000150798 0)
(5.45144 -0.000197217 0)
(6.50256 -0.000253577 0)
(7.67517 -0.00031949 0)
(8.95764 -0.000392661 0)
(10.3287 -0.00046767 0)
(11.7558 -0.0005344 0)
(13.1947 -0.000576116 0)
(14.5903 -0.000567251 0)
(15.8794 -0.000471817 0)
(16.9965 -0.000244132 0)
(17.8829 0.000172472 0)
(18.4983 0.000826697 0)
(18.8324 0.00178764 0)
(18.935 0.00304892 0)
(18.8745 0.00435909 0)
(18.7501 0.00537195 0)
(18.6302 0.00596915 0)
(18.5256 0.00592069 0)
(18.4792 0.00326057 0)
(19.7837 0.00469395 0)
(20.0151 0.00378872 0)
(19.5704 0.00152808 0)
(19.4583 -0.000116734 0)
(19.5976 -0.000796897 0)
(19.7358 -0.00122202 0)
(19.816 -0.00125089 0)
(19.7411 -0.00105557 0)
(19.4325 -0.000812871 0)
(18.8487 -0.000551783 0)
(17.983 -0.000324811 0)
(16.8622 -0.000155451 0)
(15.5375 -3.7285e-05 0)
(14.0741 3.80756e-05 0)
(12.5413 8.02901e-05 0)
(11.0033 9.89412e-05 0)
(9.51472 0.000102129 0)
(8.11719 9.60878e-05 0)
(6.83898 8.52541e-05 0)
(5.69607 7.25992e-05 0)
(4.69415 5.99572e-05 0)
(3.83091 4.83495e-05 0)
(3.09848 3.82496e-05 0)
(2.48543 2.97866e-05 0)
(1.97851 2.28912e-05 0)
(1.56388 1.73939e-05 0)
(1.22806 1.30868e-05 0)
(0.95849 9.76044e-06 0)
(0.743852 7.22256e-06 0)
(0.574218 5.30663e-06 0)
(0.441066 3.87388e-06 0)
(0.337209 2.81169e-06 0)
(0.256673 2.03056e-06 0)
(0.194561 1.46047e-06 0)
(0.1469 1.04738e-06 0)
(0.110501 7.50009e-07 0)
(0.0828263 5.37181e-07 0)
(0.0618709 3.85563e-07 0)
(0.0460647 2.77884e-07 0)
(0.0341846 2.01493e-07 0)
(0.0252837 1.47227e-07 0)
(0.0186326 1.0852e-07 0)
(0.0136723 8.07112e-08 0)
(0.00997542 6.05249e-08 0)
(0.00721589 4.56959e-08 0)
(0.00514494 3.4677e-08 0)
(0.00357181 2.64504e-08 0)
(0.00234852 2.03659e-08 0)
(0.00135781 1.60823e-08 0)
(0.000453763 1.34812e-08 0)
(0.000374611 -8.99123e-09 0)
(0.00112034 -8.92211e-09 0)
(0.00193644 -9.11333e-09 0)
(0.00294298 -9.90625e-09 0)
(0.00423569 -1.18007e-08 0)
(0.00593511 -1.55008e-08 0)
(0.00819638 -2.20443e-08 0)
(0.0112213 -3.29248e-08 0)
(0.0152739 -5.03048e-08 0)
(0.020699 -7.72519e-08 0)
(0.0279473 -1.18038e-07 0)
(0.0376044 -1.78781e-07 0)
(0.0504291 -2.68157e-07 0)
(0.0673983 -3.9844e-07 0)
(0.0897624 -5.871e-07 0)
(0.119112 -8.58834e-07 0)
(0.157454 -1.24853e-06 0)
(0.207303 -1.80525e-06 0)
(0.271781 -2.5976e-06 0)
(0.354722 -3.72101e-06 0)
(0.460792 -5.30686e-06 0)
(0.595595 -7.53447e-06 0)
(0.765769 -1.06457e-05 0)
(0.979059 -1.49622e-05 0)
(1.24433 -2.0906e-05 0)
(1.57153 -2.902e-05 0)
(1.97149 -3.99872e-05 0)
(2.45568 -5.46433e-05 0)
(3.03566 -7.39737e-05 0)
(3.72244 -9.90806e-05 0)
(4.52545 -0.000131101 0)
(5.45133 -0.000171043 0)
(6.50243 -0.000219504 0)
(7.67503 -0.00027622 0)
(8.95749 -0.000339377 0)
(10.3285 -0.000404648 0)
(11.7556 -0.000463971 0)
(13.1946 -0.000504077 0)
(14.5903 -0.000505106 0)
(15.8796 -0.000440155 0)
(16.997 -0.000277544 0)
(17.8837 1.60525e-05 0)
(18.4993 0.000453056 0)
(18.8331 0.000972137 0)
(18.9346 0.00150433 0)
(18.8732 0.00145247 0)
(18.7446 0.00197953 0)
(18.6326 0.000201755 0)
(18.5463 0.00286032 0)
(18.4805 0.0069977 0)
(19.7757 -0.000581888 0)
(20.0362 0.0128232 0)
(19.5622 0.00217984 0)
(19.4503 -0.00137787 0)
(19.5959 -0.000387414 0)
(19.7343 -0.000241357 0)
(19.8151 -0.000411903 0)
(19.7408 -0.000510306 0)
(19.4326 -0.000467917 0)
(18.8489 -0.00033157 0)
(17.9833 -0.000185183 0)
(16.8624 -6.62238e-05 0)
(15.5376 2.14494e-05 0)
(14.0742 7.82931e-05 0)
(12.5413 0.000109054 0)
(11.0033 0.000120303 0)
(9.51472 0.000118542 0)
(8.11717 0.000109019 0)
(6.83895 9.56171e-05 0)
(5.69605 8.09772e-05 0)
(4.69412 6.67482e-05 0)
(3.83089 5.38421e-05 0)
(3.09846 4.26681e-05 0)
(2.48542 3.33149e-05 0)
(1.97849 2.5685e-05 0)
(1.56387 1.95865e-05 0)
(1.22805 1.47925e-05 0)
(0.958484 1.10762e-05 0)
(0.743847 8.22979e-06 0)
(0.574214 6.07254e-06 0)
(0.441063 4.45307e-06 0)
(0.337206 3.24785e-06 0)
(0.256671 2.35805e-06 0)
(0.19456 1.70592e-06 0)
(0.146899 1.23113e-06 0)
(0.110501 8.87442e-07 0)
(0.0828259 6.39795e-07 0)
(0.0618706 4.61919e-07 0)
(0.0460645 3.34341e-07 0)
(0.0341845 2.42784e-07 0)
(0.0252836 1.76895e-07 0)
(0.0186326 1.29242e-07 0)
(0.0136723 9.45503e-08 0)
(0.00997538 6.9111e-08 0)
(0.00721586 5.03438e-08 0)
(0.00514492 3.64673e-08 0)
(0.0035718 2.62903e-08 0)
(0.00234851 1.90205e-08 0)
(0.0013578 1.41776e-08 0)
(0.00045376 1.14925e-08 0)
(0.000374611 -2.87239e-09 0)
(0.00112034 -2.58834e-09 0)
(0.00193644 -2.58571e-09 0)
(0.00294298 -3.05617e-09 0)
(0.00423568 -4.38458e-09 0)
(0.00593511 -7.1421e-09 0)
(0.00819637 -1.2106e-08 0)
(0.0112213 -2.03467e-08 0)
(0.0152738 -3.33094e-08 0)
(0.020699 -5.29857e-08 0)
(0.0279472 -8.22018e-08 0)
(0.0376043 -1.24778e-07 0)
(0.050429 -1.85979e-07 0)
(0.067398 -2.73117e-07 5.32864e-31)
(0.089762 -3.96261e-07 0)
(0.119111 -5.69456e-07 0)
(0.157453 -8.12214e-07 0)
(0.207302 -1.15157e-06 0)
(0.271779 -1.62483e-06 0)
(0.35472 -2.28295e-06 0)
(0.460789 -3.19519e-06 0)
(0.595591 -4.45475e-06 0)
(0.765763 -6.18554e-06 0)
(0.97905 -8.55016e-06 0)
(1.24432 -1.17585e-05 0)
(1.57151 -1.60766e-05 0)
(1.97147 -2.18346e-05 0)
(2.45565 -2.94308e-05 0)
(3.03563 -3.93284e-05 0)
(3.72239 -5.20388e-05 0)
(4.52539 -6.80825e-05 0)
(5.45126 -8.79152e-05 5.25891e-31)
(6.50235 -0.000111802 0)
(7.67493 -0.000139616 0)
(8.95738 -0.000170542 0)
(10.3284 -0.00020268 0)
(11.7556 -0.0002325 -5.20415e-31)
(13.1946 -0.000254231 0)
(14.5904 -0.000259213 0)
(15.8798 -0.000236015 5.20051e-31)
(16.9974 -0.000170543 0)
(17.8842 -4.65505e-05 0)
(18.5 0.000153659 0)
(18.8343 0.000432679 -5.3435e-31)
(18.936 0.000867487 0)
(18.8756 0.00143232 0)
(18.747 0.00209226 0)
(18.6357 0.00289371 0)
(18.5481 0.00327303 0)
(18.4804 0.00204325 0)
(19.7705 0.00357027 0)
(20.0329 0.000875758 0)
(19.5603 -0.000776897 0)
(19.4504 -0.00126529 0)
(19.5972 -0.00103485 0)
(19.7353 -0.00090746 -2.38656e-31)
(19.8157 -0.000666446 2.50531e-31)
(19.7413 -0.000452464 0)
(19.433 -0.000289264 0)
(18.8492 -0.000148743 -2.6941e-31)
(17.9836 -3.87632e-05 0)
(16.8626 3.92806e-05 0)
(15.5378 8.91857e-05 0)
(14.0743 0.000116514 0)
(12.5413 0.000127118 0)
(11.0033 0.000126038 0)
(9.5147 0.000117468 0)
(8.11714 0.000104769 0)
(6.83892 9.03682e-05 0)
(5.69602 7.59049e-05 0)
(4.69409 6.23848e-05 0)
(3.83086 5.03488e-05 2.69125e-31)
(3.09844 4.00122e-05 0)
(2.4854 3.13771e-05 0)
(1.97848 2.43205e-05 0)
(1.56386 1.86575e-05 0)
(1.22804 1.41817e-05 0)
(0.958477 1.06904e-05 0)
(0.743842 7.99831e-06 0)
(0.57421 5.94397e-06 0)
(0.441061 4.39098e-06 0)
(0.337204 3.22705e-06 0)
(0.25667 2.36156e-06 0)
(0.194559 1.72253e-06 0)
(0.146899 1.25362e-06 0)
(0.1105 9.11292e-07 0)
(0.0828254 6.62308e-07 0)
(0.0618703 4.81607e-07 0)
(0.0460643 3.50503e-07 0)
(0.0341843 2.55231e-07 0)
(0.0252834 1.85759e-07 0)
(0.0186325 1.34852e-07 -2.66501e-31)
(0.0136722 9.73303e-08 0)
(0.00997533 6.95542e-08 -2.66494e-31)
(0.00721582 4.89539e-08 0)
(0.0051449 3.37429e-08 0)
(0.00357178 2.26761e-08 0)
(0.00234849 1.49079e-08 0)
(0.00135779 9.85769e-09 0)
(0.000453758 7.20969e-09 0)
(0.000374612 3.9617e-09 0)
(0.00112034 4.56995e-09 0)
(0.00193644 4.94495e-09 0)
(0.00294298 4.98954e-09 0)
(0.00423568 4.52148e-09 0)
(0.0059351 3.24826e-09 0)
(0.00819636 8.0668e-10 0)
(0.0112213 -3.24422e-09 0)
(0.0152738 -9.39412e-09 0)
(0.0206989 -1.82044e-08 0)
(0.0279471 -3.03756e-08 0)
(0.0376042 -4.66e-08 0)
(0.0504289 -6.7565e-08 0)
(0.0673978 -9.39146e-08 -5.32864e-31)
(0.0897618 -1.2603e-07 0)
(0.119111 -1.63931e-07 0)
(0.157453 -2.06934e-07 0)
(0.207302 -2.53194e-07 0)
(0.271779 -2.99045e-07 0)
(0.354719 -3.3773e-07 0)
(0.460788 -3.57995e-07 0)
(0.595589 -3.41636e-07 0)
(0.765761 -2.60387e-07 0)
(0.979048 -7.17697e-08 0)
(1.24432 2.8653e-07 0)
(1.57151 9.0264e-07 0)
(1.97146 1.89715e-06 0)
(2.45564 3.42912e-06 0)
(3.03562 5.69891e-06 0)
(3.72238 8.94438e-06 0)
(4.52538 1.34247e-05 0)
(5.45125 1.93831e-05 -5.25891e-31)
(6.50233 2.69755e-05 0)
(7.67491 3.61511e-05 0)
(8.95736 4.64679e-05 0)
(10.3284 5.68053e-05 0)
(11.7555 6.49994e-05 5.20415e-31)
(13.1946 6.73561e-05 0)
(14.5904 5.83614e-05 0)
(15.8798 2.9638e-05 -5.20051e-31)
(16.9974 -2.87293e-05 0)
(17.8843 -0.000130016 0)
(18.5001 -0.000293556 0)
(18.8345 -0.000517602 5.34347e-31)
(18.9362 -0.000871199 0)
(18.8758 -0.00134855 0)
(18.7472 -0.0019855 0)
(18.6356 -0.00309416 0)
(18.548 -0.00362129 0)
(18.4804 -0.00213721 0)
(19.7704 -0.00393667 0)
(20.0329 -0.00116258 0)
(19.5599 0.000783934 0)
(19.45 0.00153755 0)
(19.597 0.00119027 0)
(19.7352 0.000858176 2.38623e-31)
(19.8161 0.000625609 -2.50479e-31)
(19.7417 0.000485221 0)
(19.4333 0.000392008 0)
(18.8494 0.000312583 2.69411e-31)
(17.9837 0.000251928 0)
(16.8627 0.000210815 0)
(15.5378 0.000181254 0)
(14.0743 0.0001582 0)
(12.5413 0.000138211 0)
(11.0033 0.000120221 0)
(9.51468 0.000103549 0)
(8.11712 8.80632e-05 0)
(6.83889 7.39585e-05 0)
(5.69599 6.13064e-05 0)
(4.69407 5.01396e-05 0)
(3.83084 4.04904e-05 -2.69125e-31)
(3.09842 3.2321e-05 0)
(2.48539 2.55229e-05 0)
(1.97847 1.99527e-05 0)
(1.56385 1.54524e-05 0)
(1.22804 1.18633e-05 0)
(0.958472 9.03456e-06 0)
(0.743838 6.82946e-06 0)
(0.574207 5.1279e-06 0)
(0.441058 3.82725e-06 0)
(0.337203 2.8417e-06 0)
(0.256668 2.10087e-06 0)
(0.194558 1.54793e-06 0)
(0.146898 1.13774e-06 0)
(0.1105 8.34899e-07 0)
(0.082825 6.12048e-07 0)
(0.06187 4.48318e-07 0)
(0.0460641 3.28e-07 0)
(0.0341841 2.39403e-07 0)
(0.0252833 1.73935e-07 0)
(0.0186324 1.25319e-07 2.66501e-31)
(0.0136722 8.91035e-08 0)
(0.00997529 6.20524e-08 2.66494e-31)
(0.00721579 4.18793e-08 0)
(0.00514487 2.69664e-08 0)
(0.00357176 1.6175e-08 0)
(0.00234848 8.70612e-09 0)
(0.00135778 3.99793e-09 0)
(0.000453755 1.65044e-09 0)
(0.000374613 9.84479e-09 0)
(0.00112034 1.07065e-08 0)
(0.00193644 1.13782e-08 0)
(0.00294298 1.18413e-08 0)
(0.00423568 1.20475e-08 0)
(0.0059351 1.19914e-08 0)
(0.00819635 1.17233e-08 0)
(0.0112213 1.14166e-08 0)
(0.0152738 1.14303e-08 0)
(0.0206989 1.24608e-08 0)
(0.0279471 1.58182e-08 0)
(0.0376042 2.36037e-08 0)
(0.0504289 3.9179e-08 0)
(0.0673979 6.7815e-08 0)
(0.0897618 1.17493e-07 0)
(0.119111 2.00295e-07 0)
(0.157453 3.342e-07 0)
(0.207302 5.45668e-07 0)
(0.271779 8.73305e-07 0)
(0.35472 1.37267e-06 0)
(0.460789 2.12316e-06 0)
(0.595591 3.23693e-06 0)
(0.765764 4.87031e-06 0)
(0.979052 7.23827e-06 0)
(1.24432 1.06311e-05 0)
(1.57151 1.5433e-05 0)
(1.97147 2.2141e-05 0)
(2.45566 3.13777e-05 0)
(3.03564 4.38937e-05 0)
(3.72241 6.05452e-05 0)
(4.52541 8.22296e-05 0)
(5.45129 0.000109752 0)
(6.50238 0.000143584 0)
(7.67497 0.000183472 0)
(8.95742 0.000227831 0)
(10.3284 0.000272885 0)
(11.7556 0.000311542 0)
(13.1946 0.000332014 0)
(14.5903 0.000316371 0)
(15.8796 0.000240696 0)
(16.9971 7.60159e-05 0)
(17.8837 -0.000209311 0)
(18.4993 -0.0006233 0)
(18.8332 -0.00111179 0)
(18.9345 -0.00162405 0)
(18.873 -0.00157545 0)
(18.7444 -0.00211181 0)
(18.6318 -0.000336801 0)
(18.5467 -0.00299878 0)
(18.4814 -0.00719678 0)
(19.7757 0.000339726 0)
(20.0357 -0.0128382 0)
(19.5623 -0.00245647 0)
(19.4507 0.00155443 0)
(19.5959 0.00074669 0)
(19.734 0.000611771 0)
(19.8147 0.000631447 0)
(19.7406 0.000652629 0)
(19.4326 0.000620698 0)
(18.8489 0.000508416 0)
(17.9834 0.000388613 0)
(16.8625 0.000293145 0)
(15.5377 0.0002201 0)
(14.0742 0.000166082 0)
(12.5413 0.000127043 0)
(11.0032 9.89501e-05 0)
(9.51464 7.85195e-05 0)
(8.11709 6.32795e-05 0)
(6.83887 5.14409e-05 0)
(5.69597 4.19769e-05 0)
(4.69405 3.42362e-05 0)
(3.83083 2.77907e-05 0)
(3.09841 2.23979e-05 0)
(2.48538 1.79109e-05 0)
(1.97846 1.41984e-05 0)
(1.56384 1.11572e-05 0)
(1.22803 8.69293e-06 0)
(0.958468 6.71751e-06 0)
(0.743834 5.15088e-06 0)
(0.574205 3.9214e-06 0)
(0.441056 2.96618e-06 0)
(0.337201 2.23102e-06 0)
(0.256667 1.6701e-06 0)
(0.194557 1.2454e-06 0)
(0.146897 9.25873e-07 0)
(0.110499 6.86645e-07 0)
(0.0828247 5.08108e-07 0)
(0.0618698 3.75047e-07 0)
(0.0460639 2.75826e-07 0)
(0.034184 2.0168e-07 0)
(0.0252832 1.4607e-07 0)
(0.0186323 1.04256e-07 0)
(0.0136721 7.27341e-08 0)
(0.00997524 4.89589e-08 0)
(0.00721575 3.11182e-08 0)
(0.00514485 1.79073e-08 0)
(0.00357174 8.38107e-09 0)
(0.00234847 1.8618e-09 0)
(0.00135778 -2.13226e-09 0)
(0.000453753 -3.97239e-09 0)
(0.000374613 1.35869e-08 0)
(0.00112034 1.47066e-08 0)
(0.00193644 1.54651e-08 0)
(0.00294298 1.6009e-08 0)
(0.00423568 1.6422e-08 0)
(0.0059351 1.68638e-08 0)
(0.00819635 1.76413e-08 0)
(0.0112213 1.92977e-08 0)
(0.0152738 2.27436e-08 0)
(0.0206989 2.94394e-08 0)
(0.0279471 4.16718e-08 0)
(0.0376043 6.29788e-08 0)
(0.0504289 9.87806e-08 0)
(0.067398 1.57224e-07 0)
(0.089762 2.50387e-07 0)
(0.119111 3.9602e-07 0)
(0.157454 6.20062e-07 0)
(0.207303 9.6017e-07 0)
(0.27178 1.47058e-06 0)
(0.354721 2.22878e-06 0)
(0.460792 3.3444e-06 0)
(0.595594 4.97098e-06 0)
(0.765769 7.32095e-06 0)
(0.979059 1.0684e-05 0)
(1.24433 1.54486e-05 0)
(1.57153 2.21255e-05 0)
(1.97149 3.13705e-05 0)
(2.45568 4.39999e-05 0)
(3.03568 6.09905e-05 0)
(3.72246 8.34471e-05 0)
(4.52547 0.000112514 0)
(5.45137 0.000149197 0)
(6.50248 0.000194041 0)
(7.67508 0.000246608 0)
(8.95754 0.000304671 0)
(10.3286 0.00036306 0)
(11.7557 0.000412124 0)
(13.1946 0.0004359 0)
(14.5902 0.000409775 0)
(15.8794 0.000299354 0)
(16.9966 6.07703e-05 0)
(17.883 -0.000360304 0)
(18.4985 -0.00100905 0)
(18.8327 -0.00193898 0)
(18.9352 -0.00315638 0)
(18.8747 -0.00445578 0)
(18.7503 -0.00537672 0)
(18.6302 -0.00558475 0)
(18.5255 -0.00538406 0)
(18.4791 -0.00298702 0)
(19.7836 -0.00440552 0)
(20.0149 -0.00342484 0)
(19.5703 -0.00120349 0)
(19.4582 -5.98792e-05 0)
(19.5976 0.000510145 0)
(19.7358 0.00102144 0)
(19.8162 0.00113236 0)
(19.7415 0.00100184 0)
(19.4329 0.000818883 0)
(18.849 0.000626059 0)
(17.9833 0.000458213 0)
(16.8624 0.000324754 0)
(15.5375 0.000224558 0)
(14.0741 0.000153791 0)
(12.5412 0.000105753 0)
(11.0032 7.39508e-05 0)
(9.51461 5.32252e-05 0)
(8.11706 3.96888e-05 0)
(6.83885 3.05598e-05 0)
(5.69596 2.416e-05 0)
(4.69404 1.9492e-05 0)
(3.83082 1.59171e-05 0)
(3.0984 1.30434e-05 0)
(2.48537 1.06449e-05 0)
(1.97845 8.62617e-06 0)
(1.56384 6.93171e-06 0)
(1.22803 5.51774e-06 0)
(0.958465 4.35053e-06 0)
(0.743832 3.39906e-06 0)
(0.574203 2.63319e-06 0)
(0.441055 2.02427e-06 0)
(0.3372 1.54566e-06 0)
(0.256667 1.17341e-06 0)
(0.194556 8.86494e-07 0)
(0.146897 6.66973e-07 0)
(0.110499 4.99943e-07 0)
(0.0828244 3.73297e-07 0)
(0.0618696 2.774e-07 0)
(0.0460637 2.04738e-07 0)
(0.0341839 1.49573e-07 0)
(0.0252831 1.07596e-07 0)
(0.0186323 7.56215e-08 0)
(0.0136721 5.1198e-08 0)
(0.0099752 3.2568e-08 0)
(0.00721573 1.85185e-08 0)
(0.00514483 8.11931e-09 0)
(0.00357173 6.76007e-10 0)
(0.00234846 -4.33005e-09 0)
(0.00135777 -7.2871e-09 0)
(0.000453752 -8.46556e-09 0)
(0.000374615 1.33823e-08 0)
(0.00112035 1.52474e-08 0)
(0.00193644 1.58973e-08 0)
(0.00294298 1.59739e-08 0)
(0.00423568 1.5756e-08 0)
(0.0059351 1.55032e-08 0)
(0.00819636 1.55862e-08 0)
(0.0112213 1.65772e-08 0)
(0.0152738 1.93702e-08 0)
(0.0206989 2.53684e-08 0)
(0.0279472 3.67327e-08 0)
(0.0376044 5.66996e-08 0)
(0.050429 9.00401e-08 0)
(0.0673982 1.43792e-07 0)
(0.0897623 2.28317e-07 0)
(0.119112 3.58783e-07 0)
(0.157454 5.5723e-07 0)
(0.207304 8.55481e-07 0)
(0.271781 1.29923e-06 0)
(0.354723 1.95358e-06 0)
(0.460795 2.91055e-06 0)
(0.595599 4.29875e-06 0)
(0.765775 6.29578e-06 0)
(0.979067 9.14327e-06 0)
(1.24434 1.31645e-05 0)
(1.57155 1.87834e-05 0)
(1.97152 2.65422e-05 0)
(2.45571 3.71133e-05 0)
(3.03572 5.1298e-05 0)
(3.72251 6.99974e-05 0)
(4.52554 9.4137e-05 0)
(5.45145 0.000124515 0)
(6.50257 0.000161535 0)
(7.67519 0.000204764 0)
(8.95765 0.000252269 0)
(10.3287 0.000299642 0)
(11.7557 0.000338718 0)
(13.1946 0.000356056 0)
(14.5901 0.00033132 0)
(15.879 0.000235352 0)
(16.9959 3.15482e-05 0)
(17.8818 -0.000319731 0)
(18.4964 -0.000866718 0)
(18.8294 -0.00166411 0)
(18.9303 -0.00275985 0)
(18.8693 -0.00401838 0)
(18.7422 -0.00508652 0)
(18.6315 -0.00616257 0)
(18.5464 -0.00563266 0)
(18.4815 -0.00243556 0)
(19.7787 -0.00358886 0)
(20.0389 -0.00169006 0)
(19.5684 0.000147443 0)
(19.4546 0.00109173 0)
(19.5967 0.00118588 0)
(19.7344 0.00127314 0)
(19.8145 0.00119113 0)
(19.7399 0.00096306 0)
(19.4317 0.000721421 0)
(18.8482 0.000528995 0)
(17.9827 0.000377734 0)
(16.862 0.000259253 0)
(15.5373 0.000172643 0)
(14.074 0.000112857 0)
(12.5411 7.31095e-05 0)
(11.0031 4.75411e-05 0)
(9.51457 3.15188e-05 0)
(8.11704 2.15872e-05 0)
(6.83884 1.55057e-05 0)
(5.69595 1.16902e-05 0)
(4.69404 9.18558e-06 0)
(3.83082 7.45336e-06 0)
(3.0984 6.16575e-06 0)
(2.48537 5.13391e-06 0)
(1.97845 4.27075e-06 0)
(1.56383 3.52432e-06 0)
(1.22803 2.87737e-06 0)
(0.958463 2.32191e-06 0)
(0.743831 1.85222e-06 0)
(0.574202 1.46175e-06 0)
(0.441054 1.14253e-06 0)
(0.337199 8.8556e-07 0)
(0.256666 6.81466e-07 0)
(0.194556 5.21166e-07 0)
(0.146896 3.96375e-07 0)
(0.110499 2.99859e-07 0)
(0.0828243 2.2547e-07 0)
(0.0618694 1.68195e-07 0)
(0.0460636 1.24055e-07 0)
(0.0341838 8.99588e-08 0)
(0.0252831 6.35739e-08 0)
(0.0186322 4.3076e-08 0)
(0.013672 2.72229e-08 0)
(0.00997518 1.50945e-08 0)
(0.00721571 5.91071e-09 0)
(0.00514481 -8.72273e-10 0)
(0.00357172 -5.65674e-09 0)
(0.00234845 -8.75749e-09 0)
(0.00135777 -1.04333e-08 0)
(0.000453751 -1.08672e-08 0)
(0.000374617 5.71618e-09 0)
(0.00112035 6.85255e-09 0)
(0.00193644 7.05888e-09 0)
(0.00294298 6.83759e-09 0)
(0.00423568 6.361e-09 0)
(0.0059351 5.76574e-09 0)
(0.00819636 5.22186e-09 0)
(0.0112213 4.97496e-09 0)
(0.0152738 5.38397e-09 0)
(0.020699 7.02826e-09 0)
(0.0279472 1.082e-08 0)
(0.0376044 1.80923e-08 0)
(0.0504291 3.07272e-08 0)
(0.0673983 5.14603e-08 0)
(0.0897625 8.4325e-08 0)
(0.119112 1.35247e-07 0)
(0.157455 2.12811e-07 0)
(0.207304 3.29362e-07 0)
(0.271782 5.02598e-07 0)
(0.354725 7.57731e-07 0)
(0.460796 1.13037e-06 0)
(0.595601 1.67031e-06 0)
(0.765779 2.44622e-06 0)
(0.979073 3.55153e-06 0)
(1.24435 5.11107e-06 0)
(1.57156 7.28827e-06 0)
(1.97153 1.02918e-05 0)
(2.45573 1.43799e-05 0)
(3.03574 1.98595e-05 0)
(3.72254 2.7075e-05 0)
(4.52558 3.63786e-05 0)
(5.4515 4.80721e-05 0)
(6.50263 6.23045e-05 0)
(7.67525 7.8904e-05 0)
(8.95772 9.71275e-05 0)
(10.3287 0.000115301 0)
(11.7558 0.000130358 0)
(13.1946 0.000137323 0)
(14.59 0.000129027 0)
(15.8788 9.58485e-05 0)
(16.9955 2.74534e-05 0)
(17.8813 -7.74696e-05 0)
(18.496 -0.000210441 0)
(18.8294 -0.000310126 0)
(18.9314 -0.000294025 0)
(18.8702 0.000345851 0)
(18.7462 0.000296556 0)
(18.6285 0.00252368 0)
(18.5281 -8.13642e-05 0)
(18.4822 -0.00470837 0)
(19.7887 0.00575896 0)
(20.0167 -0.0100136 0)
(19.5737 -0.00166429 0)
(19.4599 0.000962737 0)
(19.5971 -0.000110196 0)
(19.735 -0.000375389 0)
(19.8153 -0.000178282 0)
(19.7404 4.94657e-06 0)
(19.4319 7.39777e-05 0)
(18.8482 9.37664e-05 0)
(17.9827 8.69821e-05 0)
(16.8619 6.96729e-05 0)
(15.5372 5.12524e-05 0)
(14.0739 3.51879e-05 0)
(12.5411 2.32408e-05 0)
(11.0031 1.50399e-05 0)
(9.51455 9.74842e-06 0)
(8.11703 6.48727e-06 0)
(6.83883 4.53345e-06 0)
(5.69594 3.36927e-06 0)
(4.69403 2.63916e-06 0)
(3.83082 2.13151e-06 0)
(3.0984 1.75138e-06 0)
(2.48537 1.47221e-06 0)
(1.97845 1.24726e-06 0)
(1.56383 1.04765e-06 0)
(1.22802 8.70857e-07 0)
(0.958463 7.14697e-07 0)
(0.743831 5.78659e-07 0)
(0.574201 4.62594e-07 0)
(0.441054 3.65621e-07 0)
(0.337199 2.86194e-07 0)
(0.256666 2.22146e-07 0)
(0.194556 1.71183e-07 0)
(0.146896 1.31036e-07 0)
(0.110499 9.96283e-08 0)
(0.0828242 7.51361e-08 0)
(0.0618694 5.60505e-08 0)
(0.0460636 4.11548e-08 0)
(0.0341838 2.94926e-08 0)
(0.025283 2.03169e-08 0)
(0.0186322 1.30694e-08 0)
(0.013672 7.41081e-09 0)
(0.00997516 3.12474e-09 0)
(0.00721569 -1.283e-10 0)
(0.0051448 -2.52192e-09 0)
(0.00357171 -4.18412e-09 0)
(0.00234845 -5.21593e-09 0)
(0.00135777 -5.70607e-09 0)
(0.000453751 -5.72873e-09 0)
)
;

boundaryField
{
    sides1
    {
        type            zeroGradient;
    }
    sides2
    {
        type            slip;
    }
    empty
    {
        type            empty;
    }
}


// ************************************************************************* //
