/*--------------------------------*- C++ -*----------------------------------*\
| =========                 |                                                 |
| \\      /  F ield         | OpenFOAM: The Open Source CFD Toolbox           |
|  \\    /   O peration     | Version:  2012                                  |
|   \\  /    A nd           | Website:  www.openfoam.com                      |
|    \\/     M anipulation  |                                                 |
\*---------------------------------------------------------------------------*/
FoamFile
{
    version     2.0;
    format      ascii;
    class       volScalarField;
    location    "0.75";
    object      maxKappa;
}
// * * * * * * * * * * * * * * * * * * * * * * * * * * * * * * * * * * * * * //

dimensions      [0 0 0 0 0 0 0];


internalField   nonuniform List<scalar> 
2268
(
1.17892e-06
2.23292e-06
3.3556e-06
4.55526e-06
5.69855e-06
6.67959e-06
7.60455e-06
8.5142e-06
9.23484e-06
9.84655e-06
1.03085e-05
1.05805e-05
1.06317e-05
1.06317e-05
1.05213e-05
1.02318e-05
9.78897e-06
9.01642e-06
7.92159e-06
6.4479e-06
4.51782e-06
2.89909e-06
2.08884e-06
1.47747e-06
2.39976e-06
3.47986e-06
4.63738e-06
5.74532e-06
6.71845e-06
7.65084e-06
8.55302e-06
9.25889e-06
9.87247e-06
1.03376e-05
1.06142e-05
1.06829e-05
1.06829e-05
1.05882e-05
1.03055e-05
9.86321e-06
9.10938e-06
8.04502e-06
6.6569e-06
4.83542e-06
3.32611e-06
1.972e-06
1.78418e-06
2.57615e-06
3.60153e-06
4.72006e-06
5.81872e-06
6.82748e-06
7.79627e-06
8.69378e-06
9.39234e-06
9.99006e-06
1.04135e-05
1.06644e-05
1.07237e-05
1.07237e-05
1.06428e-05
1.03704e-05
9.94318e-06
9.20607e-06
8.16795e-06
6.86729e-06
5.11577e-06
3.96382e-06
3.03757e-06
2.29195e-06
2.9579e-06
3.93064e-06
4.97084e-06
5.98146e-06
6.95287e-06
7.90948e-06
8.78113e-06
9.47074e-06
1.0073e-05
1.05224e-05
1.08272e-05
1.09253e-05
1.09253e-05
1.08625e-05
1.06007e-05
1.02149e-05
9.56837e-06
8.61e-06
7.44016e-06
5.70915e-06
4.55014e-06
3.31233e-06
2.66808e-06
3.23238e-06
4.14807e-06
5.14152e-06
6.13777e-06
7.17019e-06
8.18957e-06
9.05482e-06
9.72761e-06
1.02923e-05
1.06678e-05
1.09279e-05
1.10018e-05
1.10018e-05
1.09515e-05
1.07169e-05
1.03907e-05
9.81764e-06
8.96269e-06
7.95566e-06
6.47691e-06
5.96265e-06
5.20543e-06
3.23642e-06
3.75926e-06
4.64174e-06
5.55624e-06
6.43772e-06
7.39244e-06
8.35519e-06
9.16968e-06
9.85008e-06
1.04526e-05
1.08916e-05
1.12236e-05
1.13288e-05
1.13288e-05
1.12907e-05
1.10841e-05
1.08508e-05
1.04191e-05
9.71489e-06
8.88772e-06
7.57103e-06
7.20815e-06
6.22949e-06
3.65338e-06
4.10748e-06
4.90671e-06
5.75531e-06
6.63722e-06
7.70322e-06
8.76524e-06
9.58001e-06
1.02193e-05
1.07483e-05
1.10834e-05
1.13463e-05
1.14182e-05
1.14182e-05
1.14084e-05
1.12637e-05
1.11438e-05
1.08206e-05
1.02862e-05
9.68536e-06
9.31141e-06
9.31141e-06
8.21142e-06
5.72492e-06
5.91553e-06
6.32563e-06
6.6941e-06
7.05616e-06
8.08613e-06
9.0891e-06
9.86072e-06
1.04941e-05
1.10193e-05
1.14307e-05
1.17765e-05
1.18348e-05
1.18348e-05
1.17977e-05
1.17282e-05
1.17282e-05
1.15626e-05
1.1282e-05
1.11129e-05
1.17489e-05
1.17489e-05
9.54074e-06
0.000159381
0.000216957
0.000249953
0.000254505
0.000254505
0.000230398
0.00020395
0.000338973
0.000533411
0.000533411
0.000461149
0.000455562
0.000472105
0.000492574
0.000515091
0.000542724
0.000542724
0.000469526
0.000287431
0.000158751
0.000186777
0.00021123
0.00021123
0.000210856
0.00018442
0.000233397
0.00032027
0.000434959
0.000434959
0.000424647
0.000491373
0.00072276
0.00102972
0.00124633
0.00132733
0.00132733
0.000847746
0.000308094
0.000213669
0.0002123
0.000402829
0.000571587
0.000571587
0.000217642
0.000256824
0.000603236
0.00083696
0.00110358
0.00134561
0.00152209
0.00169949
0.00194114
0.00206341
0.00206341
0.00190014
0.0010174
0.000608927
0.000287969
0.00032734
0.00115513
0.00115513
0.0010981
0.0003053
3.98122e-05
0.000318405
0.000530784
0.000530784
0.000589605
0.00112649
0.00148402
0.0016301
0.0016301
0.0013223
0.0010849
0.000519013
0.000360618
0.000481981
0.000481981
0.00100907
0.00100907
0.000856142
0.000287687
4.08936e-05
5.27216e-05
0.000250291
0.00061853
0.00107903
0.00127259
0.00133246
0.00133246
0.000909253
0.00108958
0.00108958
0.000583692
0.000172267
0.000434036
0.000492726
0.000492726
0.000476037
0.000414093
0.000170474
3.90065e-05
3.89144e-05
4.71927e-05
7.58132e-05
0.000217436
0.00044048
0.000718998
0.00101223
0.00129904
0.00129904
0.00116708
0.000544663
0.000109189
0.000390988
0.000495637
0.000519303
0.000519303
0.000514043
0.00012001
5.84886e-05
9.05786e-05
4.92934e-05
4.89542e-05
5.40549e-05
5.96202e-05
7.39486e-05
0.000125895
0.000325636
0.00046162
0.00046162
0.000161729
6.33439e-05
0.000458551
0.000841483
0.000881127
0.000881127
0.000625608
0.000154543
0.000385022
0.000441649
0.000441649
0.000275608
0.000145433
6.69406e-05
6.84194e-05
6.38824e-05
6.06269e-05
6.06335e-05
6.06335e-05
5.03863e-05
4.62306e-05
8.561e-05
9.13372e-05
9.59102e-05
9.70927e-05
9.00311e-05
7.59508e-05
4.53349e-05
2.49637e-05
2.16157e-05
1.83459e-05
1.59516e-05
1.37051e-05
1.23394e-05
1.18991e-05
1.23099e-05
1.25956e-05
1.36277e-05
1.31831e-05
1.41976e-05
1.46142e-05
1.84451e-05
7.87339e-05
0.000167039
0.000146373
0.000166362
0.000189524
0.000224972
0.000243312
0.000256319
0.000259944
0.000239171
0.000191296
0.000141753
0.000104248
6.03232e-05
3.75972e-05
2.63295e-05
2.27234e-05
1.93499e-05
1.90059e-05
1.71145e-05
1.76563e-05
1.85801e-05
4.23168e-05
0.000243518
0.00048978
0.000177545
0.000200177
0.000229824
0.000263634
0.000298637
0.000338115
0.000389479
0.000445773
0.000456827
0.000434587
0.000399127
0.000369776
0.000376862
0.000392818
0.000384299
0.000351234
0.000271301
0.000139244
7.70042e-05
3.30634e-05
4.6671e-05
0.000326862
0.00048978
0.000236581
0.000255322
0.000283523
0.000303452
0.000340529
0.000405396
0.000466709
0.000527077
0.000594838
0.000694236
0.000915869
0.00127468
0.00160783
0.00184862
0.00189254
0.00171565
0.00143843
0.000954794
0.000459445
0.000164087
6.55762e-05
0.000109482
0.000455497
0.000303793
0.000318091
0.000342196
0.000369874
0.000431242
0.00050728
0.000584458
0.000675459
0.000819312
0.00108468
0.00159915
0.00226584
0.00272186
0.00289761
0.00289761
0.00271482
0.00230986
0.00175355
0.000993878
0.000428328
0.000273355
0.000160396
0.000130851
0.000366514
0.000379239
0.000403966
0.000441221
0.000512942
0.000595908
0.000699105
0.000852971
0.00112943
0.00161387
0.00219007
0.00263183
0.00291111
0.00291111
0.00285847
0.00253946
0.00177181
0.00108232
0.00113977
0.00146672
0.00164318
0.00160051
0.00159716
0.000428994
0.000441539
0.000467649
0.000512459
0.000591019
0.000686553
0.000821496
0.00102695
0.00135819
0.00173597
0.00200152
0.0022968
0.00249696
0.00253197
0.00260173
0.00216547
0.00127076
0.00118609
0.00190141
0.00231639
0.00263594
0.00277216
0.00277216
0.000485345
0.000497999
0.000524161
0.00057069
0.000646571
0.000743895
0.000876562
0.00107021
0.00133707
0.00161682
0.00183625
0.00198015
0.00192484
0.00177461
0.00228359
0.00220176
0.00204455
0.00158722
0.00198437
0.00226183
0.00249275
0.0026889
0.00268922
0.000535441
0.000547286
0.000571384
0.000617941
0.000687929
0.00077761
0.000898443
0.00106551
0.00128117
0.00147024
0.00164936
0.0016902
0.00146045
0.00121358
0.00164967
0.00190081
0.00176932
0.00181025
0.00179589
0.00160372
0.00176328
0.00204361
0.00205918
0.00057703
0.000587338
0.000608088
0.000650552
0.000709824
0.000784965
0.000882647
0.00100866
0.00116561
0.00133022
0.00146129
0.00146989
0.00130433
0.000950404
0.000805812
0.00124167
0.00146681
0.00181025
0.001706
0.00150159
0.000852257
0.00081648
0.00106714
0.000609656
0.000618436
0.000636832
0.00067325
0.000722038
0.000781788
0.000856543
0.000946066
0.00105315
0.00118576
0.00128722
0.0013162
0.00118003
0.00101309
0.000730322
0.000507867
0.000699595
0.00111963
0.00138986
0.00147129
0.00147129
0.00139233
0.000773164
0.00063472
0.000641849
0.000658817
0.000687714
0.000726049
0.000772538
0.000828715
0.000893267
0.000965886
0.00106173
0.00113243
0.00116234
0.0011029
0.000986582
0.000814573
0.000602721
0.000417781
0.000459353
0.000719433
0.000971949
0.00127464
0.00132412
0.00132412
0.000652816
0.000658505
0.000671121
0.000693165
0.000721559
0.000754547
0.000793056
0.000839821
0.000892212
0.000955046
0.000998457
0.00102202
0.000996729
0.00089535
0.000805269
0.000683345
0.000562505
0.000491615
0.000488761
0.000526219
0.000703877
0.000894708
0.00106343
0.000665789
0.00066987
0.000680801
0.000696814
0.000717358
0.000740682
0.000767103
0.000800533
0.000831665
0.000868603
0.000887076
0.000894383
0.000875028
0.000821683
0.000741583
0.000670372
0.000601
0.000554589
0.000545281
0.000576039
0.000596615
0.000589104
0.000589534
0.000674454
0.000677098
0.000682638
0.000692977
0.00070598
0.000723492
0.000741359
0.000764454
0.000780792
0.000800211
0.000804373
0.000799894
0.000774543
0.000734561
0.000681598
0.000624413
0.000583089
0.000550137
0.000546412
0.000568577
0.000596615
0.000581249
0.000560405
0.000680465
0.000681879
0.000685926
0.000692318
0.000700064
0.000711218
0.000720119
0.000732463
0.000737104
0.000743367
0.00073669
0.000725602
0.000698886
0.000664426
0.000622708
0.000583112
0.000552004
0.000530172
0.000530208
0.000542872
0.000571318
0.000581249
0.000570867
0.000684619
0.000684932
0.000685991
0.00068923
0.000693201
0.000699256
0.00070118
0.000705338
0.000701542
0.000698363
0.000684079
0.000667399
0.000638397
0.000607173
0.000570215
0.000536142
0.000512858
0.000496661
0.000496702
0.000501349
0.000524784
0.000551178
0.000552368
0.000688397
0.000687864
0.000687447
0.000687212
0.000687004
0.000687994
0.000684109
0.000681971
0.000671667
0.00066163
0.000641391
0.000620379
0.000588722
0.000557897
0.000522437
0.000490831
0.000465776
0.000449326
0.000446423
0.000451539
0.00046365
0.000485788
0.000509757
0.000692228
0.000690999
0.000689342
0.000686382
0.00068309
0.000679867
0.000671022
0.000663708
0.000647596
0.000632023
0.000606876
0.000581653
0.000547325
0.000514487
0.000478394
0.000445694
0.000419174
0.000399442
0.000392442
0.000397395
0.00041076
0.000430364
0.000460394
0.000697426
0.000695564
0.000692869
0.00068792
0.000681083
0.000673566
0.00066242
0.000649397
0.000631682
0.000610501
0.000584805
0.000553922
0.000519005
0.000479857
0.00043958
0.000402006
0.000371029
0.000348282
0.000335792
0.000339597
0.000355893
0.00038041
0.000415807
0.000704366
0.000701966
0.000698428
0.000692038
0.000682502
0.000672893
0.000659341
0.00064264
0.000621016
0.000595138
0.000564434
0.000528636
0.00048987
0.000447598
0.000404096
0.000360766
0.000323365
0.000295453
0.000278011
0.000279953
0.000300403
0.000336465
0.00037698
0.000713876
0.000711127
0.000706896
0.000699509
0.000688733
0.000676418
0.000661346
0.000643094
0.000619905
0.000592678
0.000560748
0.000523667
0.000482288
0.000435738
0.000386026
0.000333778
0.000281967
0.000241529
0.000216854
0.000216806
0.000243147
0.000292942
0.000345467
0.000726489
0.000723587
0.000718692
0.000710621
0.00069904
0.000684896
0.000666983
0.000646547
0.000620704
0.000590232
0.000554562
0.000513671
0.000468322
0.000418716
0.000365893
0.000309222
0.000250065
0.000190971
0.00015098
0.000146783
0.000187389
0.00026235
0.000315324
0.000743049
0.000740221
0.000734774
0.000726378
0.000714362
0.000699417
0.000679268
0.000657525
0.000631707
0.000601577
0.000566409
0.000526305
0.000480803
0.000429605
0.000372523
0.000310024
0.00024389
0.000173323
0.00010067
6.85423e-05
0.000145896
0.000235068
0.000292697
0.000764134
0.000761519
0.000755691
0.000747328
0.000735334
0.000720302
0.000700686
0.00067832
0.000649373
0.000618699
0.000579653
0.000540194
0.000491944
0.000444329
0.000387678
0.000334353
0.000273805
0.000221473
0.000173762
0.000159273
0.000185238
0.000250382
0.000320757
0.000790612
0.000788306
0.000782423
0.000774453
0.000762899
0.000748448
0.000730096
0.000708862
0.000682312
0.000653792
0.000618585
0.000583065
0.00054039
0.000499179
0.000451458
0.00040862
0.000360767
0.000326449
0.000298211
0.00030058
0.000315649
0.000361013
0.0004103
0.000822703
0.000820748
0.00081524
0.000808115
0.000797635
0.000784639
0.000768369
0.000749353
0.000726219
0.00070113
0.000671048
0.000640772
0.000605337
0.000571687
0.00053394
0.000501865
0.000470063
0.000456289
0.000451381
0.000460737
0.000471773
0.000504018
0.000539902
0.000861165
0.000859556
0.000854733
0.00084867
0.000839626
0.000828615
0.000814954
0.000799049
0.000780161
0.000759614
0.000735675
0.000711702
0.000684837
0.000659557
0.000633121
0.000615069
0.000606365
0.000611536
0.000608006
0.000610695
0.000617093
0.000640818
0.000672372
0.000905594
0.000904449
0.000900729
0.000896121
0.000889034
0.000880478
0.000869752
0.000857256
0.000842637
0.000826722
0.000808751
0.00079097
0.000771927
0.000756417
0.000747076
0.000752681
0.000762351
0.000754223
0.000732891
0.000727934
0.000731773
0.000750995
0.000785367
0.000956565
0.000955823
0.000953203
0.000950044
0.000945006
0.000939046
0.000931435
0.000922655
0.000912428
0.00090156
0.000889977
0.000880081
0.000872379
0.000871665
0.00088259
0.000897983
0.00087918
0.000841855
0.00082058
0.000808588
0.000813914
0.000835539
0.000879739
0.00101374
0.00101351
0.00101213
0.00101054
0.00100758
0.00100406
0.000999296
0.000993872
0.00098776
0.0009819
0.000977306
0.0009766
0.000983155
0.00100124
0.00101986
0.000994631
0.000937027
0.00090074
0.000874485
0.000859508
0.000867764
0.00090136
0.000959239
0.0010762
0.00107665
0.00107659
0.00107661
0.00107582
0.00107483
0.00107307
0.0010712
0.00106948
0.00106943
0.00107325
0.00108505
0.00110669
0.00113111
0.00110832
0.00104381
0.00098057
0.000934553
0.000902755
0.0008864
0.000904833
0.000958549
0.00102755
0.00114635
0.00114695
0.00114777
0.00114908
0.00115002
0.00115122
0.00115218
0.00115379
0.00115669
0.00116356
0.00117765
0.0012013
0.00122932
0.00121615
0.00115724
0.00108236
0.00101256
0.00095931
0.000912419
0.000901663
0.00094422
0.00101379
0.00108674
0.00121904
0.00122024
0.00122242
0.00122564
0.00122856
0.00123197
0.00123579
0.00124133
0.00125023
0.00126616
0.00129174
0.00132233
0.00132581
0.001255
0.00117263
0.00107823
0.0010086
0.000945303
0.000902365
0.000920942
0.000979248
0.00106234
0.00113538
0.00130099
0.00130265
0.00130515
0.00130872
0.00131273
0.00131807
0.00132434
0.00133395
0.00134919
0.00137421
0.00140442
0.00142214
0.0013674
0.00129604
0.00117958
0.00108192
0.000994654
0.000921763
0.000889421
0.000928192
0.0010018
0.00109854
0.0011781
0.00138241
0.00138467
0.00138819
0.00139325
0.00139981
0.00140832
0.00141811
0.00143286
0.00145548
0.00148653
0.00151205
0.00148702
0.00140273
0.00127685
0.00114886
0.00104351
0.000949007
0.000886035
0.000882261
0.000940165
0.00102805
0.00113708
0.00121442
0.00147385
0.00147692
0.00148185
0.00148849
0.00149625
0.00150582
0.00151839
0.00153762
0.00156471
0.00159277
0.0015958
0.00153308
0.00142435
0.0012677
0.00113022
0.00100825
0.000907973
0.000852417
0.000866569
0.000939009
0.00104018
0.00116026
0.00125012
0.00156131
0.00156502
0.00157105
0.00157925
0.00158892
0.00160186
0.0016189
0.00164367
0.00167284
0.00169289
0.00165393
0.00155254
0.00138717
0.00121374
0.00106816
0.000943312
0.000857072
0.000821782
0.000871521
0.000958908
0.00107133
0.00119945
0.0012816
0.00166126
0.00166587
0.00167371
0.0016843
0.00169683
0.00171211
0.0017303
0.00175572
0.00177854
0.00177507
0.00170658
0.00157678
0.00137647
0.00119192
0.00103389
0.000902065
0.000812872
0.000794448
0.000857845
0.000957452
0.00108007
0.00121661
0.00131665
0.00175191
0.00175701
0.00176591
0.00177808
0.00179272
0.00181013
0.00183219
0.00186021
0.00187858
0.0018427
0.00172782
0.00153234
0.00130624
0.00111416
0.000954725
0.000839905
0.000774983
0.000799861
0.00087956
0.000990746
0.00112161
0.00126396
0.00134715
0.00186113
0.00186741
0.00187862
0.00189423
0.00191292
0.00193512
0.00196032
0.00198251
0.00197733
0.00189706
0.00177119
0.0015368
0.00129679
0.00109419
0.000925995
0.000805084
0.000743069
0.000780341
0.000868934
0.000987795
0.00112487
0.00127259
0.00138405
0.00195463
0.00196408
0.0019787
0.00199696
0.00201761
0.00203873
0.00205347
0.00205347
0.00204102
0.00195281
0.00174108
0.00146005
0.00120716
0.00100437
0.000850422
0.000751648
0.000731825
0.000800682
0.000905184
0.00103523
0.00118007
0.00133314
0.00138405
0.000108421
0.000161606
0.000202664
0.000338227
0.000303586
0.000216325
0.000301545
0.000528305
0.00060647
0.000334884
0.000472216
0.000784263
0.00060647
0.000498105
0.000472216
0.000784263
0.00037959
0.000498105
0.000470563
0.000249063
0.00133732
0.00112221
0.00113979
0.00107989
0.00257536
0.00225872
0.00213403
0.00207133
0.00257536
0.00225872
0.00224249
0.00226961
0.0021844
0.00215329
0.00224249
0.00226961
0.00158904
0.0017845
0.00193406
0.00202811
0.000728224
0.000772412
0.00077311
0.00101493
0.00114096
0.0011161
0.00102868
0.000811373
0.00114096
0.0011161
0.00102868
0.000811373
0.000594659
0.000577981
0.000550476
0.000586661
0.000538681
0.000543173
0.000529743
0.000522231
0.000538765
0.000543173
0.000529743
0.000522231
0.000538765
0.000539734
0.000532557
0.000541746
0.000518757
0.000530798
0.000532557
0.000541746
0.000480643
0.000495607
0.000508113
0.0005227
0.000447882
0.000469076
0.000490708
0.00051242
0.000415354
0.000441116
0.000468554
0.000496248
0.000392732
0.000424011
0.000457026
0.000490827
0.000370965
0.000407191
0.000444958
0.000483473
0.000355214
0.000395417
0.000437065
0.000479324
0.000372605
0.000409011
0.00044863
0.000488274
0.000448296
0.000478203
0.000511966
0.000544417
0.000569447
0.000594971
0.000622678
0.000650597
0.000699718
0.000724472
0.000750369
0.000780194
0.000816843
0.000844684
0.000874479
0.000908606
0.000921352
0.000954326
0.000990105
0.00102777
0.00101287
0.0010512
0.00109277
0.00113427
0.00109255
0.00113643
0.00118284
0.00122809
0.00116105
0.00121003
0.0012601
0.00130875
0.00121802
0.00127159
0.00132496
0.0013771
0.0012675
0.00132531
0.00138169
0.00143741
0.00130879
0.00137074
0.00142988
0.00148917
0.00134866
0.00141363
0.00147524
0.00153725
0.00138425
0.0014513
0.00151516
0.0015791
0.00142263
0.00149159
0.00155727
0.00162286
0.00145557
0.00152617
0.0015933
0.00166017
0.00149509
0.00156737
0.00163611
0.0017044
0.00149509
0.00156737
0.00163611
0.0017044
0.000603542
0.000690194
0.000690194
0.00051084
0.00040479
0.000663354
0.000779923
0.000802874
0.000802874
0.000794896
0.000798806
0.00128612
0.00153062
0.00125739
0.000647303
0.000507453
0.000305846
5.78012e-05
0.000254693
0.00104124
0.000882461
0.000478752
0.000348992
0.000510756
0.00113187
0.00171661
0.00201116
0.00230578
0.00233043
0.00281223
0.00359374
0.00336024
0.00250495
0.00157762
0.000613701
0.000153739
0.000229313
0.00082308
0.00104124
0.000666785
0.000261848
0.000447778
0.00121419
0.00285726
0.00381478
0.00424619
0.00470407
0.00525242
0.00554498
0.00554498
0.00523213
0.00392082
0.00278756
0.00137507
0.000329124
0.000831686
0.00129503
0.000585669
0.000199186
0.000338678
0.00124262
0.00328517
0.0050188
0.00519743
0.00519743
0.00491794
0.00457222
0.004274
0.00375557
0.00297526
0.00207126
0.00165827
0.00123511
0.000640035
0.00102553
0.00129503
0.000164334
0.000439874
0.00141193
0.00365719
0.00539502
0.00539502
0.00454874
0.00334946
0.00285254
0.00244662
0.0021756
0.00177478
0.00139838
0.000576301
0.000510391
0.00102874
0.000845897
0.000780224
0.00117236
0.000947935
0.00144484
0.00354347
0.00506819
0.00506819
0.00422523
0.0021795
0.00150308
0.00115808
0.000640266
0.000804713
0.00120926
0.000662541
0.000131775
0.000110277
0.000424299
0.00083524
0.00083524
0.000640795
0.00232377
0.00341021
0.00429599
0.00429599
0.00411055
0.00214798
0.00092155
0.000792161
0.000849812
0.000640605
0.000526227
0.000865846
0.000198921
0.000169024
0.000107125
0.000102057
0.000414146
0.000567316
0.000232066
0.0029233
0.0032175
0.00342505
0.0036215
0.00258528
0.00117751
0.000777129
0.000399162
0.000474376
0.00061472
0.00061472
0.000447618
0.000724308
0.00103383
0.000503432
0.000140778
8.87782e-05
0.000107137
7.21118e-05
0.00263781
0.00266719
0.00266517
0.00256177
0.00134342
0.00083169
0.000778149
0.000297136
0.000322985
0.000497557
0.000557927
0.000854489
0.00148039
0.00148039
0.00146403
0.000798739
0.000159159
0.000100172
9.94922e-05
0.00197085
0.00200954
0.0016047
0.0011743
0.000764308
0.000580179
0.000289564
0.000277445
0.000455388
0.000463126
0.000722346
0.00100129
0.00112218
0.00149707
0.00162904
0.00163411
0.00104171
0.000552698
0.000548024
0.00134332
0.00126155
0.00104233
0.000746261
0.000616517
0.000193836
0.000318707
0.000718668
0.000989689
0.00108737
0.00114568
0.00133509
0.00126564
0.00157052
0.00198816
0.00204561
0.00204426
0.00170094
0.00172959
0.000610775
0.000495007
0.000408235
0.000328959
0.000309257
0.000309257
0.000399373
0.000982201
0.00142586
0.00145091
0.00149697
0.00172405
0.00172405
0.00178264
0.00245369
0.00265155
0.00265155
0.0024856
0.00236114
0.00103416
0.00103416
0.00100577
0.000831072
0.000600812
0.000505395
0.000976499
0.00139381
0.0017462
0.00193077
0.00198174
0.00198174
0.00174501
0.00138786
0.0019542
0.0025646
0.00275576
0.00275576
0.00222823
0.000627207
0.000567978
0.000486621
0.000463473
0.000394429
0.000667751
0.00103297
0.00104009
0.00117216
0.00133821
0.00146198
0.00147245
0.00140623
0.00135215
0.00187623
0.00247923
0.00276731
0.00276731
0.00228106
0.000462701
0.000462701
0.000338333
0.000277921
0.000484354
0.000661148
0.000838233
0.000912237
0.000788089
0.000778632
0.00104778
0.00118483
0.00122305
0.00135316
0.00165174
0.00208906
0.00265591
0.00292094
0.00280895
0.000475474
0.000427604
0.000363706
0.000373048
0.000341284
0.000404905
0.000586572
0.000719081
0.000601476
0.000615987
0.000860891
0.00108507
0.0012427
0.0014218
0.00160292
0.00190663
0.00256785
0.00292094
0.00290494
0.000585132
0.000585132
0.000550112
0.000578661
0.000655264
0.000615468
0.000625869
0.000665783
0.00075811
0.000768157
0.00103288
0.00132013
0.00147351
0.00156907
0.0016522
0.00176725
0.00223081
0.00278679
0.00278679
0.000589985
0.000627088
0.000676572
0.000773209
0.00086703
0.000948656
0.00101987
0.00105694
0.00117976
0.00127023
0.00149558
0.00159149
0.00159613
0.0015965
0.00160301
0.00163212
0.00194387
0.00258226
0.00265916
0.000646395
0.000713293
0.000806074
0.00094449
0.00111855
0.0012874
0.00140443
0.00151174
0.00163742
0.0017338
0.00176175
0.00176175
0.00173719
0.00168091
0.00161736
0.00156422
0.0017995
0.00238866
0.00256828
0.000629237
0.00071454
0.000821127
0.000957339
0.00112757
0.00133725
0.00154346
0.00171215
0.00183294
0.0018895
0.0018895
0.00186232
0.00177397
0.00164695
0.00152243
0.00141457
0.00164906
0.00228999
0.00242773
0.000655957
0.000755021
0.000869645
0.00100508
0.00115911
0.0013289
0.00150782
0.00166494
0.00176703
0.00180219
0.00180219
0.00175365
0.0016548
0.001516
0.00137509
0.00124066
0.00141715
0.00211622
0.00231491
0.000653933
0.000764566
0.000887801
0.00102429
0.00117152
0.00132784
0.00147724
0.00160135
0.00168356
0.00170107
0.00170107
0.0016442
0.00154525
0.00139917
0.00124622
0.0010683
0.00116277
0.00205924
0.00228296
0.000670752
0.000792959
0.000924428
0.0010649
0.00120863
0.00135248
0.00148336
0.00158434
0.00163707
0.00163707
0.00162751
0.00156088
0.00146268
0.00131481
0.00115639
0.000944562
0.000932107
0.00178024
0.00222296
0.000670051
0.000802012
0.000941684
0.00108727
0.00123538
0.00137742
0.00150111
0.00159468
0.00163809
0.00163809
0.00162008
0.00154856
0.00143976
0.00127264
0.00110098
0.000865527
0.000723653
0.00159715
0.00214175
0.000670109
0.00080432
0.000944736
0.00109501
0.00124213
0.0013768
0.0015007
0.00159069
0.00164011
0.00164011
0.00163224
0.00155553
0.00144407
0.00127023
0.00110009
0.000860303
0.000663016
0.00134549
0.00211479
0.000692104
0.000820865
0.00095666
0.00109912
0.00123605
0.00136418
0.00148322
0.00157585
0.0016366
0.00165113
0.00165113
0.00159399
0.00148984
0.00131986
0.00115812
0.000933321
0.000750787
0.00117342
0.00212732
0.000772964
0.000894478
0.00101925
0.00114506
0.00124942
0.00134734
0.0014393
0.00152107
0.00158754
0.00162795
0.00162795
0.00161192
0.00153384
0.00138135
0.00123657
0.00104297
0.000939329
0.00124666
0.00212732
0.000914461
0.00103072
0.00115059
0.00125569
0.00131926
0.00137675
0.00142796
0.00148066
0.00153173
0.00158082
0.00161452
0.00161452
0.0015938
0.00148101
0.00136372
0.00121206
0.00111586
0.00127087
0.00184332
0.00106119
0.00117593
0.00129393
0.00137391
0.00139477
0.00141581
0.00143184
0.00144896
0.00147073
0.00150502
0.00156408
0.00161494
0.00161494
0.00156583
0.0014808
0.0013571
0.00125686
0.00114292
0.00144762
0.0012056
0.00132063
0.00143166
0.00147774
0.00147774
0.00149626
0.00150045
0.00150045
0.00149177
0.00147544
0.00151162
0.00160778
0.0016354
0.0016354
0.00159255
0.00148992
0.00137246
0.00120396
0.0009976
0.00133487
0.00144812
0.00154369
0.00156723
0.00157395
0.00161581
0.00162463
0.00162463
0.00160232
0.00154528
0.0014852
0.00157894
0.00168252
0.00169784
0.00169784
0.00162081
0.00149726
0.00131931
0.000807303
0.00145155
0.00155967
0.00164197
0.0016637
0.0016996
0.00177755
0.00180789
0.00180789
0.00178703
0.0016965
0.00157539
0.00155774
0.00171357
0.00180538
0.00180538
0.00176537
0.00164866
0.00147171
0.000868621
0.00154983
0.0016544
0.00173528
0.00177212
0.00184073
0.00195174
0.00200862
0.00200862
0.00199276
0.0018729
0.00169457
0.00155557
0.00173914
0.0019072
0.00191892
0.00191892
0.00182425
0.0016638
0.00111617
0.00163799
0.00174533
0.00183335
0.00188695
0.00198003
0.00212192
0.00221281
0.00221281
0.00221062
0.00207056
0.00183106
0.00160227
0.00176091
0.00200291
0.00206973
0.00206973
0.00200073
0.00186463
0.00138358
0.00171463
0.00182748
0.00192337
0.00199386
0.00210975
0.0022833
0.0024098
0.00242385
0.00242385
0.00227295
0.0019746
0.0016589
0.00178966
0.00211053
0.00224501
0.00224501
0.00220711
0.00208931
0.00163233
0.00178776
0.00190659
0.00201071
0.00209885
0.00223563
0.00243643
0.00259513
0.00262978
0.00262978
0.00248177
0.00213617
0.00171534
0.00178836
0.00219089
0.00239041
0.00239425
0.00239425
0.00230263
0.00189071
0.00184714
0.00197409
0.00208821
0.00219395
0.0023492
0.00257234
0.00276002
0.00282246
0.00282246
0.002692
0.00229715
0.00175002
0.00177238
0.00228904
0.00254947
0.00256851
0.00256851
0.00247858
0.00208666
0.00191219
0.0020451
0.00216645
0.00228522
0.00245505
0.00269434
0.00290701
0.00299961
0.00299961
0.00289278
0.00246066
0.00176953
0.00171714
0.00233006
0.00267466
0.00274093
0.00274093
0.00266999
0.00229839
0.00195641
0.00209649
0.00222543
0.00235613
0.00254118
0.00279402
0.00303124
0.00314964
0.00314964
0.003069
0.00262375
0.00177286
0.00165963
0.00239912
0.00278004
0.00286145
0.00286145
0.00280205
0.00243447
0.00202321
0.00216828
0.00230202
0.00243824
0.00263052
0.00288849
0.00314206
0.00327214
0.00327214
0.00321744
0.00276517
0.00172267
0.00156068
0.00238698
0.00284204
0.00297555
0.00297555
0.00295151
0.0026101
0.00204958
0.00219948
0.00233827
0.00247963
0.00267887
0.00294117
0.00320694
0.00334706
0.00334706
0.00332182
0.00287343
0.00169467
0.0014971
0.00241056
0.00288137
0.00302598
0.00302598
0.0030094
0.00266912
0.00213256
0.0022867
0.00243065
0.00257438
0.00277712
0.00303651
0.00330282
0.00344448
0.00344448
0.00342659
0.00296666
0.00158184
0.00146969
0.00227054
0.00282962
0.00307844
0.00313362
0.00313362
0.00284875
)
;

boundaryField
{
    leftWall
    {
        type            calculated;
        value           uniform 0;
    }
    rightWall
    {
        type            calculated;
        value           uniform 0;
    }
    lowerWall
    {
        type            calculated;
        value           uniform 0;
    }
    atmosphere
    {
        type            calculated;
        value           uniform 0;
    }
    defaultFaces
    {
        type            empty;
    }
}


// ************************************************************************* //
