/*--------------------------------*- C++ -*----------------------------------*\
| =========                 |                                                 |
| \\      /  F ield         | OpenFOAM: The Open Source CFD Toolbox           |
|  \\    /   O peration     | Version:  2012                                  |
|   \\  /    A nd           | Website:  www.openfoam.com                      |
|    \\/     M anipulation  |                                                 |
\*---------------------------------------------------------------------------*/
FoamFile
{
    version     2.0;
    format      ascii;
    class       volScalarField;
    location    "0.75";
    object      minKappa;
}
// * * * * * * * * * * * * * * * * * * * * * * * * * * * * * * * * * * * * * //

dimensions      [0 0 0 0 0 0 0];


internalField   nonuniform List<scalar> 
2268
(
4.12865e-07
8.42533e-07
1.34688e-06
1.88362e-06
2.46098e-06
2.94767e-06
3.38466e-06
3.8256e-06
4.24112e-06
4.49991e-06
4.82036e-06
4.93816e-06
5.07966e-06
4.99487e-06
4.98269e-06
4.72438e-06
4.56426e-06
4.00287e-06
3.54355e-06
2.65018e-06
1.77031e-06
1.17204e-06
7.47815e-07
4.12865e-07
8.42533e-07
1.34688e-06
1.88362e-06
2.46098e-06
2.94767e-06
3.38466e-06
3.8256e-06
4.24112e-06
4.49991e-06
4.82036e-06
4.93816e-06
5.07966e-06
4.99487e-06
4.98269e-06
4.72438e-06
4.56426e-06
4.00287e-06
3.54355e-06
2.65018e-06
1.77031e-06
1.17204e-06
7.47815e-07
6.05412e-07
9.36021e-07
1.41559e-06
1.93112e-06
2.49134e-06
2.97408e-06
3.42812e-06
3.87272e-06
4.27884e-06
4.53659e-06
4.85147e-06
4.95663e-06
5.10087e-06
5.01718e-06
5.01779e-06
4.75477e-06
4.60671e-06
4.04999e-06
3.61279e-06
2.77907e-06
1.92394e-06
1.52226e-06
8.46784e-07
8.4529e-07
1.08105e-06
1.53433e-06
2.02539e-06
2.55462e-06
3.02236e-06
3.49059e-06
3.93245e-06
4.32689e-06
4.58865e-06
4.89419e-06
5.00126e-06
5.15696e-06
5.07566e-06
5.08898e-06
4.82314e-06
4.7046e-06
4.16904e-06
3.76076e-06
3.00126e-06
2.11467e-06
1.90939e-06
1.09385e-06
1.09433e-06
1.24971e-06
1.67578e-06
2.14222e-06
2.63696e-06
3.09077e-06
3.58412e-06
4.02479e-06
4.40517e-06
4.6688e-06
4.95688e-06
5.05873e-06
5.22403e-06
5.14003e-06
5.17054e-06
4.90531e-06
4.83391e-06
4.32873e-06
3.97662e-06
3.2997e-06
2.45941e-06
2.50872e-06
1.51631e-06
1.34049e-06
1.44988e-06
1.8543e-06
2.29973e-06
2.75606e-06
3.18724e-06
3.69534e-06
4.12417e-06
4.4894e-06
4.76386e-06
5.04122e-06
5.1489e-06
5.3212e-06
5.2336e-06
5.27938e-06
5.02497e-06
5.01482e-06
4.54992e-06
4.27764e-06
3.68281e-06
2.95616e-06
3.26801e-06
2.13595e-06
1.58441e-06
1.67156e-06
2.04615e-06
2.46638e-06
2.87946e-06
3.29986e-06
3.83461e-06
4.25694e-06
4.60481e-06
4.88082e-06
5.13972e-06
5.24685e-06
5.42104e-06
5.33061e-06
5.39837e-06
5.16446e-06
5.23128e-06
4.80749e-06
4.64554e-06
4.13233e-06
3.59746e-06
4.20899e-06
2.6155e-06
1.81627e-06
1.90851e-06
2.25207e-06
2.64702e-06
3.02072e-06
3.45081e-06
4.01144e-06
4.42692e-06
4.76141e-06
5.02859e-06
5.25983e-06
5.38156e-06
5.54773e-06
5.44311e-06
5.52555e-06
5.33057e-06
5.4799e-06
5.09936e-06
5.09435e-06
4.73518e-06
4.55652e-06
5.38264e-06
3.00621e-06
6.64445e-05
7.64687e-05
9.55006e-05
0.000101017
9.68124e-05
7.95145e-05
7.53533e-05
0.000102518
0.00020268
0.000205284
0.000177164
0.000184306
0.0002034
0.000234823
0.000259001
0.000283307
0.000281453
0.000162054
8.97384e-05
6.64445e-05
6.64179e-05
8.97749e-05
0.000101017
9.68124e-05
5.98502e-05
6.82187e-05
0.000102518
0.000184417
0.000205284
0.000177164
0.000184306
0.0002034
0.000234823
0.000259001
0.000283307
0.000281453
0.000162054
8.97384e-05
0.000119108
6.23372e-05
8.97749e-05
0.000117224
0.000106803
4.33518e-05
9.97894e-06
0.000114043
0.000184417
0.000212501
0.000241477
0.000275413
0.000377652
0.000553011
0.00065796
0.000619954
0.000639141
0.000155743
0.000148004
0.000213669
6.23372e-05
0.000186732
0.000400954
0.000273316
3.1031e-05
5.38211e-06
2.07273e-05
0.000113505
0.000200023
0.000282354
0.000441811
0.000586684
0.000614304
0.000472844
0.000410254
0.000514622
0.000123043
0.00010894
0.000241211
0.00010745
0.000340215
0.000271836
0.00022942
3.44693e-05
5.38211e-06
1.3165e-05
2.58178e-05
4.6051e-05
0.00015066
0.000284737
0.000361007
0.000480343
0.000337479
0.000410254
0.000422118
0.000123043
3.49025e-05
0.000197943
0.000160327
0.000241766
0.00018136
0.000170474
2.49949e-05
9.66294e-06
1.3165e-05
1.76927e-05
2.09029e-05
2.92504e-05
4.19821e-05
5.6946e-05
9.37786e-05
0.000200107
0.00038617
0.000238583
6.67185e-05
2.63556e-05
0.000192083
0.000185832
0.000241766
0.00018136
0.00012001
2.49949e-05
1.45501e-05
1.98412e-05
1.76927e-05
2.09029e-05
2.611e-05
2.35438e-05
2.52216e-05
2.85894e-05
3.6274e-05
5.41025e-05
4.76483e-05
2.28324e-05
2.37731e-05
0.000192083
0.000297597
0.000275661
0.000320062
0.000154543
2.92416e-05
4.0215e-05
9.05786e-05
3.48371e-05
3.02846e-05
2.611e-05
2.35438e-05
2.52216e-05
2.85894e-05
3.6274e-05
5.41025e-05
4.6804e-05
1.99805e-05
2.37731e-05
5.72492e-06
5.91553e-06
6.32563e-06
6.6941e-06
6.85978e-06
7.00294e-06
6.98611e-06
7.00155e-06
7.54348e-06
7.9944e-06
8.38827e-06
8.65093e-06
8.85781e-06
8.66481e-06
8.81432e-06
8.59445e-06
8.9954e-06
8.4663e-06
8.79065e-06
8.52466e-06
9.09034e-06
1.1633e-05
6.45064e-06
8.561e-05
9.13372e-05
9.59102e-05
9.70927e-05
9.00311e-05
7.59508e-05
4.53349e-05
2.49637e-05
2.16157e-05
1.83459e-05
1.59516e-05
1.37051e-05
1.20442e-05
1.17323e-05
1.20279e-05
1.25956e-05
1.36277e-05
1.31831e-05
1.41976e-05
1.46142e-05
1.84451e-05
4.23168e-05
0.000144871
0.000140302
0.000160973
0.000189524
0.000224972
0.000243312
0.000256319
0.000259944
0.000239171
0.000191296
0.000141753
0.000104248
6.03232e-05
3.75972e-05
2.63295e-05
2.27234e-05
1.93499e-05
1.90059e-05
1.71145e-05
1.76563e-05
1.66266e-05
2.03396e-05
4.6671e-05
0.000326862
0.000177545
0.000200177
0.000229824
0.000253571
0.000275583
0.000319996
0.000381212
0.000445773
0.000456827
0.000434587
0.000399127
0.000369776
0.000376862
0.000392818
0.000384299
0.000351234
0.000271301
0.000139244
7.70042e-05
3.30634e-05
2.59521e-05
4.12439e-05
0.000109482
0.000236581
0.000255322
0.000283523
0.000303452
0.000340529
0.000405396
0.000466709
0.000527077
0.000594838
0.000694236
0.000915869
0.00127468
0.00160783
0.00184862
0.00189254
0.00171565
0.00143843
0.000954794
0.000405761
0.000147909
6.55762e-05
6.0287e-05
6.55383e-05
0.000303793
0.000318091
0.000342196
0.000369874
0.000431242
0.00050728
0.000584458
0.000675459
0.000819312
0.00108468
0.00157042
0.0021656
0.00249696
0.00253197
0.00253946
0.00177181
0.00108232
0.000944163
0.000784474
0.000428328
0.000273355
0.000160396
0.000130851
0.000366514
0.000379239
0.000403966
0.000441221
0.000512459
0.000591019
0.000686553
0.000821496
0.00102695
0.00135819
0.00173597
0.00198015
0.00192484
0.00177461
0.00209961
0.00127076
0.00103762
0.00100679
0.00113977
0.00146672
0.00164318
0.00160051
0.00159716
0.000428994
0.000441539
0.000467649
0.000508841
0.00057069
0.000646571
0.000743895
0.000876562
0.00107021
0.00133707
0.00161682
0.0016902
0.00146045
0.00121358
0.00164967
0.00190081
0.00122414
0.00109415
0.00144938
0.00160372
0.00176328
0.00204361
0.00189888
0.000485345
0.000497999
0.000524161
0.000564587
0.000617941
0.000687929
0.00077761
0.000898443
0.00106551
0.00128117
0.00146129
0.00139169
0.00108543
0.00081197
0.000805812
0.00124167
0.00146681
0.00158722
0.00139554
0.00125429
0.000805593
0.00081648
0.00106714
0.000535441
0.000547286
0.000571384
0.00060753
0.000650552
0.000709824
0.000784965
0.000882647
0.00100866
0.00116561
0.00128722
0.00130433
0.000950404
0.000509016
0.000447993
0.000507867
0.000699595
0.00111963
0.00138986
0.000768892
0.000630795
0.000630795
0.000664204
0.00057703
0.000587338
0.000608088
0.000636832
0.00067325
0.000722038
0.000781788
0.000856543
0.000946066
0.00105315
0.00113243
0.00116234
0.00101309
0.000730322
0.000411681
0.000203219
0.000203219
0.000401053
0.000719433
0.000971949
0.000852257
0.00072659
0.000396864
0.000609656
0.000618436
0.000636249
0.000658817
0.000687714
0.000726049
0.000772538
0.000828715
0.000892212
0.000955046
0.000998457
0.00102202
0.000986582
0.000814573
0.000602721
0.000372422
0.000242565
0.000296947
0.000308299
0.000441584
0.000703877
0.000894708
0.000773164
0.00063472
0.000641849
0.000655044
0.000671121
0.000693165
0.000721559
0.000754547
0.000793056
0.000831665
0.000868603
0.000887076
0.000894383
0.000875028
0.000805269
0.000683345
0.000558359
0.000417781
0.000356362
0.000390033
0.000459471
0.000443649
0.000443649
0.000589534
0.000652816
0.000658505
0.000668843
0.000680801
0.000696814
0.000717358
0.000740682
0.000764454
0.000780792
0.000800211
0.000804373
0.000799894
0.000774543
0.000734561
0.000670372
0.000601
0.000541573
0.000491615
0.000488761
0.000526219
0.000514569
0.000487327
0.000224515
0.000665789
0.0006697
0.000674596
0.000682638
0.000692977
0.00070598
0.000719676
0.000732463
0.000737104
0.000743367
0.00073669
0.000725602
0.000698886
0.000664426
0.000622708
0.000583089
0.000550137
0.000530172
0.000530208
0.000542872
0.000568577
0.000560405
0.000402064
0.000674454
0.000677098
0.000680638
0.000685926
0.000692318
0.000699256
0.00070118
0.000705338
0.000701542
0.000698363
0.000684079
0.000667399
0.000638397
0.000607173
0.000570215
0.000536142
0.000512858
0.000496661
0.000496702
0.000501349
0.000524784
0.000551178
0.00039486
0.000680465
0.000680479
0.000681781
0.000683835
0.000685729
0.000687994
0.000684109
0.000681971
0.000671667
0.00066163
0.000641391
0.000620379
0.000588722
0.000557897
0.000522437
0.000490831
0.000465776
0.000449326
0.000446423
0.000451539
0.00046365
0.000485788
0.000399908
0.000684619
0.000684727
0.000684772
0.00068412
0.000682624
0.000678929
0.000671022
0.000663708
0.000647596
0.000632023
0.000606876
0.000581653
0.000547325
0.000514487
0.000478394
0.000445694
0.000419174
0.000399442
0.000392442
0.000397395
0.00041076
0.000430364
0.000354905
0.000687178
0.000686161
0.000684461
0.00068099
0.00067598
0.000667639
0.000656894
0.00064222
0.000623408
0.000600408
0.000573027
0.000541649
0.000507022
0.000471766
0.000436848
0.000402006
0.000371029
0.000348282
0.000335792
0.000339597
0.000355893
0.00038041
0.000338913
0.000691682
0.000689791
0.000686627
0.000681083
0.000673543
0.00066242
0.00064902
0.000631682
0.000610501
0.000584805
0.000553922
0.000519005
0.000479857
0.00043958
0.000399415
0.000360766
0.000323365
0.000295453
0.000278011
0.000279953
0.000300403
0.000333334
0.000301369
0.000696924
0.000694234
0.000689751
0.000682478
0.000672893
0.000659341
0.00064264
0.000621016
0.000595138
0.000564434
0.000528636
0.00048987
0.000447598
0.000404096
0.000360044
0.00031784
0.000278143
0.000241529
0.000216854
0.000216806
0.000243147
0.000287765
0.000288384
0.000704366
0.000701722
0.000696263
0.000687605
0.000676418
0.000661346
0.000643094
0.000619905
0.000592678
0.000560748
0.000523667
0.000482288
0.000435738
0.000386026
0.000333778
0.000281967
0.000235159
0.000189176
0.00015098
0.000146783
0.000183136
0.000236473
0.000264232
0.000713876
0.000711127
0.000705634
0.000696111
0.000683649
0.000666983
0.000646547
0.000620704
0.000590232
0.000554562
0.000513671
0.000468322
0.000418716
0.000365893
0.000309222
0.000250065
0.000190971
0.000139062
9.01194e-05
6.85423e-05
0.000127688
0.000187389
0.000252756
0.000726489
0.000723587
0.000718692
0.000708934
0.000695654
0.000678364
0.000657525
0.000631707
0.000601577
0.000566409
0.000526305
0.000480803
0.000429605
0.000372523
0.000310024
0.00024389
0.000173323
0.00010067
4.55212e-05
4.55212e-05
6.44072e-05
0.000145896
0.000235068
0.000743049
0.000740221
0.000734774
0.000726378
0.000713353
0.000695528
0.000673801
0.000647091
0.000615973
0.00057948
0.000538025
0.000491632
0.000441459
0.000387678
0.000330563
0.00026963
0.000206469
0.000147724
9.19444e-05
6.22859e-05
0.000113228
0.000168409
0.000241761
0.000764134
0.000761519
0.000755691
0.000747328
0.000735334
0.000720302
0.000700172
0.000675571
0.000647104
0.000613961
0.000577043
0.000535919
0.00049048
0.000440169
0.000387527
0.000334353
0.000273805
0.000221473
0.000173762
0.000159273
0.000185238
0.000250382
0.000280136
0.000790612
0.000788306
0.000782423
0.000774453
0.000762899
0.000748448
0.000730096
0.000708862
0.000682312
0.000653025
0.000618585
0.00058232
0.00054039
0.000499179
0.000451458
0.00040862
0.000360767
0.000326449
0.000298211
0.00030058
0.000315649
0.000361013
0.000359265
0.000822703
0.000820748
0.00081524
0.000808115
0.000797635
0.000784639
0.000768369
0.000749353
0.000726219
0.00070113
0.000671048
0.000640772
0.000605337
0.000571687
0.00053394
0.000501865
0.000470063
0.000456289
0.000451381
0.000460737
0.000471773
0.000504018
0.000461505
0.000861165
0.000859556
0.000854733
0.00084867
0.000839626
0.000828615
0.000814954
0.000799049
0.000780161
0.000759614
0.000735675
0.000711702
0.000684837
0.000659557
0.000633121
0.000615069
0.000606365
0.000611536
0.000608006
0.000610695
0.000617093
0.000640818
0.000551077
0.000905594
0.000904449
0.000900729
0.000896121
0.000889034
0.000880478
0.000869752
0.000857256
0.000842637
0.000826722
0.000808751
0.00079097
0.000771927
0.000756417
0.000747076
0.000752681
0.000762351
0.000754223
0.000732891
0.000727934
0.000731773
0.000750995
0.000631219
0.000956565
0.000955823
0.000953203
0.000950044
0.000945006
0.000939046
0.000931435
0.000922655
0.000912428
0.00090156
0.000889977
0.000880081
0.000872379
0.000871665
0.00088259
0.000897983
0.00087918
0.000841855
0.00082058
0.000808588
0.000813914
0.000835539
0.000699651
0.00101374
0.00101351
0.00101213
0.00101054
0.00100758
0.00100406
0.000999296
0.000993872
0.00098776
0.0009819
0.000977306
0.0009766
0.000983155
0.00100124
0.00101986
0.00098057
0.000934553
0.00090074
0.000874485
0.000859508
0.000867764
0.00090136
0.000759986
0.0010762
0.00107665
0.00107659
0.00107661
0.00107582
0.00107483
0.00107307
0.0010712
0.00106948
0.00106943
0.00107325
0.00108505
0.00110669
0.00113111
0.00108236
0.00101256
0.00095931
0.000912419
0.000890846
0.0008864
0.000901663
0.00094422
0.000811405
0.00114635
0.00114695
0.00114777
0.00114908
0.00115002
0.00115122
0.00115218
0.00115379
0.00115669
0.00116356
0.00117765
0.0012013
0.00122932
0.00117263
0.00107823
0.0010086
0.000945303
0.000902365
0.000889421
0.000894258
0.000920942
0.000979248
0.000856411
0.00121904
0.00122024
0.00122242
0.00122564
0.00122856
0.00123197
0.00123579
0.00124133
0.00125023
0.00126616
0.00129174
0.00132233
0.00129604
0.00117958
0.00108192
0.000994654
0.000921763
0.000884847
0.000874751
0.000887253
0.000928192
0.0010018
0.000891418
0.00130099
0.00130265
0.00130515
0.00130872
0.00131273
0.00131807
0.00132434
0.00133395
0.00134919
0.00137421
0.00140442
0.00140273
0.00127685
0.00114886
0.00104351
0.000949007
0.000886035
0.000852417
0.00085604
0.000882261
0.000940165
0.00102805
0.000926265
0.00138241
0.00138467
0.00138819
0.00139325
0.00139981
0.00140832
0.00141811
0.00143286
0.00145548
0.00148653
0.00151205
0.00142435
0.0012677
0.00113022
0.00100825
0.000907973
0.00084699
0.000821782
0.000833446
0.000866569
0.000939009
0.00104018
0.000950099
0.00147385
0.00147692
0.00148185
0.00148849
0.00149625
0.00150582
0.00151839
0.00153762
0.00156471
0.00159277
0.00155254
0.00138717
0.00121374
0.00106816
0.000943312
0.000857072
0.00080874
0.000794411
0.000820409
0.000871521
0.000958908
0.00107133
0.000983327
0.00156131
0.00156502
0.00157105
0.00157925
0.00158892
0.00160186
0.0016189
0.00164367
0.00167284
0.00169289
0.00157678
0.00137647
0.00119192
0.00103389
0.000902065
0.000812872
0.000772612
0.00077622
0.000794448
0.000857845
0.000957452
0.00108007
0.00100081
0.00166126
0.00166587
0.00167371
0.0016843
0.00169683
0.00171211
0.0017303
0.00175572
0.00177854
0.00172782
0.00153234
0.00130624
0.00111416
0.000954725
0.000839905
0.000774983
0.000743069
0.000761529
0.000799861
0.00087956
0.000990746
0.00112161
0.00103866
0.00175191
0.00175701
0.00176591
0.00177808
0.00179272
0.00181013
0.00183219
0.00186021
0.00187858
0.00177119
0.0015368
0.00129679
0.00109419
0.000925995
0.000805084
0.000739735
0.000719762
0.000733383
0.000780341
0.000868934
0.000987795
0.00112487
0.00104834
0.00186113
0.00186741
0.00187862
0.00189423
0.00191292
0.00193512
0.00196032
0.00198251
0.00195281
0.00174108
0.00146005
0.00120716
0.00100437
0.000850422
0.000751648
0.000711906
0.000711906
0.000731825
0.000800682
0.000905184
0.00103523
0.00118007
0.00109615
6.14592e-05
6.14592e-05
6.58576e-05
9.85713e-05
6.50279e-05
6.50279e-05
0.000106049
0.000154712
0.00013861
0.000137389
0.000137389
0.000252907
0.00035022
0.000334884
0.000335486
0.000249063
7.64882e-05
0.000136524
6.32587e-05
5.57749e-05
0.000162878
0.00014992
0.000132348
0.000112359
0.00109963
0.000988613
0.000925234
0.000925234
0.0011475
0.00106626
0.00104255
0.00104255
0.000884414
0.000884414
0.000990895
0.00109891
0.000693229
0.000693229
0.000735627
0.000759584
0.000247652
0.000240715
0.000240715
0.000255291
0.00067105
0.000557988
0.000392248
0.000392248
0.000446689
0.000446689
0.000469343
0.000486814
0.000104082
6.02677e-05
4.65177e-05
4.65177e-05
0.000262899
0.000262899
0.000268173
0.000268292
0.000245173
0.000235762
0.000225784
0.000225784
0.000261259
0.000261259
0.000263987
0.000265469
0.000231546
0.000231546
0.000235275
0.00023891
0.000226881
0.000226881
0.000236015
0.000245067
0.000203672
0.000203672
0.000214611
0.000225877
0.000198509
0.000198509
0.00021253
0.000227128
0.000185116
0.000185116
0.000201272
0.000218029
0.000180501
0.000180501
0.00019909
0.000218147
0.000172323
0.000172323
0.000192189
0.000212545
0.000173492
0.000173492
0.000192778
0.000212808
0.00019431
0.00019431
0.000210806
0.000228064
0.000241724
0.000241724
0.00025526
0.000269226
0.000306153
0.000306153
0.000317818
0.000330181
0.000363851
0.000363851
0.000376217
0.000390286
0.000417851
0.000417851
0.000432864
0.00044915
0.000464738
0.000464738
0.000482383
0.000500982
0.000506686
0.000506686
0.000526983
0.000547838
0.000542544
0.000542544
0.000565112
0.000587783
0.000573814
0.000573814
0.000598256
0.000622458
0.000598598
0.000598598
0.000624904
0.000650796
0.000622714
0.000622714
0.000650592
0.000677917
0.000639728
0.000639728
0.000669302
0.000698199
0.000662049
0.000662049
0.000692538
0.000722326
0.000674517
0.000674517
0.000706149
0.00073704
0.000699498
0.000699498
0.000731772
0.000763223
0.000706551
0.000706551
0.000739655
0.000771849
0.000738015
0.000738015
0.000771877
0.000804789
0.000263364
0.000542215
0.000402639
0.000343066
0.000255054
0.000108912
0.000256114
0.000404656
0.000310583
0.000211675
0.000133506
6.69406e-05
6.84194e-05
6.38824e-05
6.06269e-05
5.82807e-05
4.6804e-05
1.99805e-05
4.09139e-05
0.000437166
0.000349973
0.000261848
0.000276837
0.000334176
0.000510756
0.000537758
0.000476664
0.000379765
0.000379765
0.000404688
0.00128612
0.00153062
0.00125739
0.000613701
0.000153739
0.000110965
4.72169e-05
0.000229313
0.000585669
0.000192147
0.000183987
0.000248087
0.000445339
0.00113187
0.00171661
0.00201116
0.00230578
0.00233043
0.00281223
0.00359374
0.00297526
0.00207126
0.00137507
0.000329124
0.000124275
0.00021643
0.00082308
0.000135277
0.000184536
0.000183987
0.000338678
0.00120667
0.00285726
0.00381478
0.00334946
0.00285254
0.00244662
0.0021756
0.00177478
0.00139838
0.000576301
0.000510391
0.000640035
0.000124275
0.000273598
0.00102553
5.57749e-05
0.000164334
0.000250177
0.00122604
0.00328517
0.00377215
0.00216862
0.00150308
0.00115808
0.000541386
0.000514843
0.00109286
0.000409276
0.000111654
0.00010553
0.000331186
0.000304726
0.000429204
0.000640795
7.21206e-05
0.000309086
0.00141193
0.00296452
0.00411055
0.0018059
0.00092155
0.000792161
0.000640266
0.000278139
0.000278139
0.000662541
0.000131775
8.21091e-05
8.1473e-05
9.4868e-05
0.000414146
0.000452465
0.000232066
0.000947935
0.001442
0.00295755
0.0036215
0.00214798
0.000677359
0.000714702
0.000362193
0.000468953
0.00033836
0.000285581
0.000198921
9.92301e-05
8.21091e-05
8.1473e-05
7.68035e-05
8.87782e-05
0.000107137
7.21118e-05
0.0017801
0.00264563
0.00266517
0.00256177
0.000992373
0.000677359
0.000399162
0.000263494
0.000293392
0.000474376
0.000342618
0.000357733
0.000158273
0.000169024
0.000107125
7.68035e-05
6.84415e-05
6.3154e-05
6.2727e-05
0.00188468
0.00200954
0.0016047
0.0011743
0.000731888
0.00054565
0.000289564
0.000228119
0.000274751
0.000322985
0.000418325
0.000408949
0.000724308
0.00103383
0.000503432
0.000140778
7.1876e-05
6.3154e-05
6.2727e-05
0.00129223
0.00126155
0.000722664
0.000457096
0.000580179
0.000103721
0.000180449
0.000207261
0.000274751
0.000341219
0.000386116
0.000720025
0.000861732
0.00112218
0.00131331
0.000798739
0.000159159
0.000100172
9.94922e-05
0.000610775
0.000495007
0.00040003
0.00028224
0.000193836
0.000103721
0.000143689
0.000272298
0.000455388
0.000463126
0.000619703
0.00100129
0.000861732
0.00110502
0.00157052
0.00163411
0.00104171
0.000552698
0.000548024
0.00042655
0.000356431
0.000300017
0.000264318
0.000242009
0.000191118
0.000143689
0.000377855
0.000982201
0.00108737
0.0010773
0.00133509
0.00126564
0.00120572
0.00170679
0.00204561
0.00204426
0.00170094
0.00172959
0.00057575
0.000472894
0.000408235
0.000328959
0.000281073
0.000282844
0.000399373
0.000827325
0.00117216
0.00133821
0.00146024
0.00147245
0.00126958
0.00105561
0.00138786
0.0019542
0.00239466
0.00222823
0.00192858
0.000137882
0.000223242
0.000215269
0.000236922
0.000370768
0.000282844
0.000667751
0.000912237
0.000717426
0.000778632
0.00104778
0.00117489
0.00116821
0.00105561
0.00135215
0.0017638
0.00215394
0.00228106
0.00192858
0.00038316
0.000292922
0.000215269
0.000204051
0.000238097
0.000395815
0.000568278
0.000719081
0.000535449
0.000444183
0.000680655
0.00096667
0.00107957
0.00106185
0.00135316
0.00157676
0.00202076
0.00265591
0.00207819
0.000357687
0.000323718
0.000248777
0.000204051
0.000210682
0.00021619
0.000404905
0.000554515
0.000534821
0.000444183
0.000615987
0.000860891
0.00107957
0.00114574
0.0013568
0.00151217
0.00179943
0.00256785
0.00248911
0.000441375
0.000427604
0.000363706
0.000373048
0.000341284
0.000339235
0.000466157
0.000542503
0.000557484
0.000498744
0.000713159
0.000987403
0.00118143
0.00127511
0.00142486
0.0014713
0.00159583
0.00216503
0.00261668
0.000406655
0.000531907
0.000534463
0.000568773
0.000655264
0.000615468
0.000625869
0.000665783
0.00075811
0.000768157
0.00103288
0.00124704
0.00138886
0.00139216
0.0014554
0.00140678
0.00146948
0.00190341
0.00256828
0.000425341
0.000576921
0.000637625
0.000705762
0.000850686
0.000948656
0.00101987
0.00105694
0.00117976
0.00127023
0.00144459
0.00149241
0.00151369
0.00144657
0.001394
0.00129925
0.00135041
0.00175975
0.00238866
0.000398153
0.000606458
0.000687614
0.000787365
0.000936864
0.0010999
0.00128129
0.00139475
0.00153064
0.00161469
0.00167243
0.00159712
0.00151188
0.00135419
0.00126923
0.00113302
0.00117492
0.00164906
0.00228999
0.000405738
0.000619017
0.000713034
0.000820109
0.000960034
0.00111496
0.0012851
0.00142562
0.00154115
0.00159286
0.00158812
0.00149587
0.00140675
0.00123594
0.00113848
0.000951556
0.000981034
0.00141715
0.00211622
0.000394618
0.000636319
0.000740724
0.00085242
0.000987998
0.00112657
0.0012851
0.00139945
0.00149339
0.00152189
0.00150016
0.001409
0.00131991
0.00114131
0.00103599
0.000787506
0.000787167
0.00116277
0.00205924
0.000398467
0.000648079
0.000762911
0.000879404
0.0010147
0.00114415
0.00128822
0.00139945
0.00148276
0.00149088
0.00145775
0.00136501
0.00126886
0.00107847
0.000944562
0.000673032
0.000647011
0.000905528
0.00178024
0.000391496
0.00065975
0.000784563
0.000905887
0.00104453
0.00117134
0.00130508
0.00140335
0.00148075
0.00149088
0.0014576
0.00136083
0.00125697
0.00105086
0.000865527
0.00061984
0.000593562
0.000571139
0.00159715
0.0003913
0.000661905
0.000791845
0.000916016
0.00106063
0.00117991
0.00130389
0.00140186
0.00147117
0.00149551
0.0014576
0.00136083
0.00125697
0.00105086
0.000860303
0.00061984
0.000559631
0.000286616
0.00134549
0.000412521
0.000671224
0.000798493
0.000921609
0.00106431
0.00117086
0.00128425
0.0013639
0.00144448
0.00148146
0.0014783
0.0013823
0.00128222
0.00106956
0.000933321
0.000647758
0.000451539
0.00019141
0.00117342
0.000476334
0.000715373
0.000834462
0.00095136
0.00107796
0.00117086
0.00127586
0.00131987
0.00139994
0.00142912
0.00148426
0.00141606
0.00133022
0.00112185
0.00104297
0.000742322
0.000586652
0.00019141
0.00124666
0.000577922
0.000814069
0.000923961
0.00103543
0.00113355
0.0011884
0.00127586
0.00129805
0.00135434
0.0013669
0.00143349
0.00144663
0.0013936
0.00120403
0.00115369
0.000890814
0.000916429
0.000426184
0.00127087
0.00068157
0.000942716
0.0010481
0.00115774
0.00121604
0.00123514
0.00128874
0.00129805
0.00134191
0.00132609
0.00137248
0.00142022
0.00145995
0.00130419
0.00127424
0.00105386
0.00110158
0.000733643
0.0009976
0.000782626
0.00107279
0.00117873
0.00127915
0.00129304
0.0012977
0.00133154
0.00131784
0.00134191
0.00132609
0.00134127
0.00137061
0.00150553
0.00139797
0.00138702
0.00119126
0.00119606
0.000895906
0.000584902
0.000872004
0.00119581
0.00130086
0.00138087
0.00136372
0.00138654
0.0014208
0.00140031
0.00139568
0.00133728
0.00134127
0.0013345
0.00151244
0.00148611
0.0014944
0.0013214
0.00127468
0.000807303
0.000379342
0.000952776
0.00130722
0.00140474
0.00146597
0.00144498
0.00150474
0.00155411
0.00154208
0.00151827
0.0014128
0.00135912
0.0013309
0.00149455
0.00156647
0.00160561
0.00145788
0.00138606
0.000868621
0.000379342
0.00102153
0.00140468
0.00149304
0.00155024
0.00154479
0.00164363
0.00171592
0.00172416
0.00168618
0.00153886
0.00142099
0.0013309
0.00147946
0.0016353
0.00172496
0.00160624
0.00153142
0.00111617
0.000492119
0.00108143
0.00148982
0.00157489
0.00164041
0.00165506
0.00178435
0.00188327
0.00191908
0.0018705
0.0016899
0.00149951
0.00135067
0.00146946
0.00169252
0.00184485
0.00175922
0.00169415
0.00138358
0.000765944
0.00113125
0.00156669
0.0016535
0.00173063
0.0017637
0.00191662
0.00204733
0.00211353
0.00206133
0.00185698
0.00158327
0.00136721
0.0014478
0.00174708
0.0019725
0.00192357
0.00187426
0.00163233
0.00103242
0.00117891
0.00163715
0.00172767
0.00181546
0.00186871
0.00204044
0.00220431
0.00229783
0.00225096
0.00203452
0.0016835
0.00135612
0.00139094
0.00178836
0.00209329
0.00208928
0.0020634
0.00189071
0.00128621
0.00121556
0.0016999
0.00179634
0.00189447
0.00196885
0.00215453
0.00234814
0.00246625
0.00243755
0.00222142
0.00175002
0.00134598
0.00132644
0.00177238
0.00221051
0.00224325
0.00222803
0.00207766
0.00150955
0.00125764
0.00175863
0.00186151
0.00196858
0.00206139
0.0022581
0.00247435
0.00261748
0.00261504
0.00240939
0.00176953
0.00126228
0.00121643
0.00171714
0.00231543
0.00239058
0.00238811
0.00224321
0.00170304
0.00128422
0.00181031
0.00191938
0.0020335
0.00214156
0.00234959
0.00258033
0.00275256
0.00277064
0.00258826
0.00177286
0.00110517
0.00107238
0.00165963
0.00239823
0.00251158
0.00252743
0.00239309
0.00186454
0.0013291
0.00186226
0.00197734
0.00209647
0.00221506
0.00243253
0.00266985
0.00287143
0.00289337
0.00275264
0.00172267
0.000940869
0.000937113
0.00156068
0.00238698
0.00260336
0.00264276
0.00252739
0.00200753
0.00134481
0.00190577
0.00202604
0.00214877
0.00227327
0.00249746
0.00273601
0.00296129
0.00297845
0.00287343
0.00169467
0.000730326
0.000918637
0.0014971
0.00241056
0.00266657
0.00272525
0.00262957
0.00211522
0.00140117
0.0019562
0.0020809
0.0022082
0.00233474
0.00256607
0.00279843
0.00304069
0.00305084
0.00296666
0.00158184
0.000730326
0.000861914
0.00146969
0.00227054
0.00269246
0.00278973
0.00272533
0.00222685
)
;

boundaryField
{
    leftWall
    {
        type            calculated;
        value           uniform 0;
    }
    rightWall
    {
        type            calculated;
        value           uniform 0;
    }
    lowerWall
    {
        type            calculated;
        value           uniform 0;
    }
    atmosphere
    {
        type            calculated;
        value           uniform 0;
    }
    defaultFaces
    {
        type            empty;
    }
}


// ************************************************************************* //
