/*--------------------------------*- C++ -*----------------------------------*\
| =========                 |                                                 |
| \\      /  F ield         | OpenFOAM: The Open Source CFD Toolbox           |
|  \\    /   O peration     | Version:  2012                                  |
|   \\  /    A nd           | Website:  www.openfoam.com                      |
|    \\/     M anipulation  |                                                 |
\*---------------------------------------------------------------------------*/
FoamFile
{
    version     2.0;
    format      ascii;
    class       volScalarField;
    location    "0.75";
    object      p;
}
// * * * * * * * * * * * * * * * * * * * * * * * * * * * * * * * * * * * * * //

dimensions      [1 -1 -2 0 0 0 0];


internalField   nonuniform List<scalar> 
2268
(
101898
101901
101909
101921
101935
101952
101970
101991
102010
102033
102050
102075
102090
102115
102128
102150
102159
102172
102172
102174
102165
102159
102145
101838
101842
101850
101861
101875
101892
101911
101931
101951
101974
101991
102017
102032
102057
102070
102092
102101
102114
102115
102117
102108
102101
102090
101776
101780
101789
101801
101815
101833
101851
101872
101891
101915
101932
101958
101973
101998
102012
102034
102043
102056
102056
102057
102045
102035
102015
101715
101719
101727
101739
101754
101772
101791
101812
101832
101856
101874
101899
101915
101941
101955
101978
101988
102001
102004
102002
101994
101981
101969
101651
101655
101664
101676
101692
101711
101731
101753
101773
101797
101815
101840
101856
101882
101897
101920
101930
101944
101943
101941
101926
101905
101874
101587
101592
101601
101613
101630
101648
101669
101692
101713
101737
101757
101782
101799
101825
101842
101866
101880
101892
101896
101890
101880
101853
101833
101520
101525
101535
101549
101566
101586
101608
101632
101654
101678
101698
101723
101740
101766
101783
101809
101821
101837
101834
101829
101808
101761
101707
101455
101460
101470
101484
101502
101523
101545
101570
101593
101619
101640
101664
101683
101709
101730
101757
101775
101788
101793
101781
101771
101708
101671
102858
102192
101889
101760
101905
102252
102347
102187
102020
101912
101863
101828
101803
101795
101773
101829
101904
102627
103002
102742
102063
101787
101684
101815
102247
102298
102145
101958
101871
101808
101777
101755
101747
101725
101750
101803
102488
102743
102351
101853
101646
101583
101729
102151
102277
102148
101912
101794
101763
101732
101717
101726
101711
101735
101733
102362
102596
102126
101714
101548
101552
101664
102080
102163
102038
101884
101820
101759
101731
101713
101720
101705
101722
101696
102275
102493
101898
101570
101526
101529
101608
101947
102058
101971
101822
101743
101737
101717
101709
101722
101709
101725
101714
102041
102393
101786
101530
101526
101528
101527
101852
101874
101792
101700
101688
101690
101696
101695
101708
101698
101722
101687
102152
102352
101645
101529
101526
101529
101532
101711
101729
101642
101595
101589
101605
101616
101639
101694
101733
101731
101778
102168
102336
101602
101513
101526
101513
101507
101588
101552
101486
101467
101487
101513
101544
101605
101691
101818
101818
101940
102263
102390
101370
101374
101382
101394
101409
101428
101451
101477
101501
101527
101548
101572
101589
101616
101637
101669
101681
101707
101694
101698
101649
101586
101439
101331
101331
101332
101335
101339
101346
101356
101371
101390
101410
101429
101448
101470
101496
101530
101567
101609
101613
101625
101597
101596
101484
101445
101329
101329
101329
101329
101329
101330
101330
101332
101337
101345
101354
101361
101369
101380
101414
101452
101480
101527
101508
101538
101485
101495
101415
101329
101329
101329
101329
101329
101329
101329
101329
101330
101330
101331
101331
101335
101345
101361
101444
101526
101503
101490
101467
101486
101485
101503
101329
101329
101329
101329
101329
101329
101329
101329
101329
101330
101330
101330
101330
101331
101361
101374
101400
101413
101389
101401
101399
101419
101405
101329
101329
101329
101329
101329
101329
101329
101329
101329
101329
101329
101328
101329
101327
101334
101387
101401
101390
101359
101396
101403
101407
101422
101328
101328
101328
101328
101328
101328
101329
101329
101329
101328
101328
101328
101326
101326
101326
101336
101359
101348
101393
101387
101391
101389
101391
101328
101328
101328
101328
101328
101328
101328
101328
101328
101328
101327
101326
101325
101324
101324
101325
101337
101275
101332
101364
101375
101379
101395
101328
101328
101328
101328
101328
101328
101328
101328
101328
101327
101327
101326
101324
101323
101323
101324
101325
101324
101286
101343
101355
101371
101396
101327
101327
101327
101327
101327
101327
101327
101327
101327
101327
101326
101325
101324
101323
101324
101324
101325
101325
101325
101346
101355
101339
101389
101327
101327
101327
101327
101327
101327
101327
101327
101327
101326
101326
101325
101325
101324
101324
101324
101325
101325
101325
101325
101325
101345
101362
101327
101327
101327
101327
101327
101327
101327
101326
101326
101326
101326
101325
101325
101325
101325
101325
101325
101325
101325
101325
101325
101325
101325
101327
101327
101326
101326
101326
101326
101326
101326
101326
101326
101326
101325
101325
101325
101325
101325
101325
101325
101325
101325
101324
101324
101324
101326
101326
101326
101326
101326
101326
101326
101326
101326
101326
101325
101325
101325
101325
101325
101325
101325
101325
101325
101325
101325
101324
101324
101326
101326
101326
101326
101326
101326
101326
101326
101326
101325
101325
101325
101325
101325
101325
101325
101325
101325
101325
101325
101325
101324
101325
101326
101326
101326
101326
101326
101326
101325
101325
101325
101325
101325
101325
101325
101325
101325
101325
101325
101325
101325
101325
101325
101325
101325
101325
101325
101325
101325
101325
101325
101325
101325
101325
101325
101325
101325
101325
101325
101325
101325
101325
101325
101325
101325
101325
101325
101325
101325
101325
101325
101325
101325
101325
101325
101325
101325
101325
101325
101325
101325
101325
101325
101325
101325
101325
101325
101325
101325
101325
101325
101325
101325
101325
101325
101325
101325
101325
101325
101325
101325
101325
101325
101325
101325
101325
101324
101325
101324
101324
101324
101325
101324
101325
101325
101325
101325
101325
101325
101325
101325
101325
101325
101325
101324
101324
101324
101324
101324
101324
101324
101324
101324
101324
101324
101324
101325
101324
101324
101324
101324
101324
101324
101324
101324
101324
101324
101324
101324
101324
101324
101324
101324
101324
101324
101324
101324
101324
101324
101324
101324
101324
101324
101324
101324
101324
101324
101324
101324
101324
101324
101324
101324
101324
101324
101324
101324
101324
101324
101324
101324
101324
101324
101324
101324
101324
101324
101324
101324
101324
101324
101324
101324
101324
101324
101324
101324
101324
101324
101324
101324
101324
101324
101324
101324
101324
101324
101324
101324
101324
101324
101324
101324
101324
101324
101324
101324
101324
101324
101324
101324
101324
101324
101324
101324
101324
101324
101324
101324
101323
101323
101323
101323
101323
101323
101323
101323
101324
101324
101324
101324
101324
101324
101324
101324
101324
101324
101324
101324
101324
101324
101324
101323
101323
101323
101323
101323
101323
101323
101323
101323
101323
101323
101323
101323
101323
101323
101324
101324
101324
101324
101324
101324
101324
101324
101323
101323
101323
101323
101323
101323
101323
101323
101323
101323
101323
101323
101323
101323
101323
101323
101323
101323
101324
101324
101324
101324
101324
101323
101323
101323
101323
101323
101323
101323
101323
101323
101323
101323
101323
101323
101323
101323
101323
101323
101323
101323
101323
101323
101323
101324
101322
101322
101322
101322
101322
101323
101323
101323
101323
101323
101323
101323
101323
101323
101323
101323
101323
101323
101323
101323
101323
101323
101323
101322
101322
101322
101322
101322
101322
101322
101322
101322
101322
101322
101322
101322
101322
101322
101323
101323
101323
101323
101323
101323
101323
101323
101322
101322
101322
101322
101322
101322
101322
101322
101322
101322
101322
101322
101322
101322
101322
101322
101322
101322
101322
101322
101322
101322
101323
101322
101322
101322
101322
101322
101322
101322
101322
101322
101322
101322
101322
101322
101322
101322
101322
101322
101322
101322
101322
101322
101322
101322
101321
101321
101321
101321
101321
101321
101321
101321
101321
101321
101321
101321
101321
101321
101321
101321
101321
101321
101322
101322
101322
101322
101322
101321
101321
101321
101321
101321
101321
101321
101321
101321
101321
101321
101321
101321
101321
101321
101321
101321
101321
101321
101321
101321
101321
101321
101321
101321
101321
101321
101321
101321
101321
101321
101321
101321
101321
101321
101321
101321
101321
101321
101321
101321
101321
101321
101321
101321
101321
101320
101320
101320
101320
101320
101320
101320
101320
101320
101320
101320
101320
101320
101320
101320
101320
101320
101320
101320
101320
101320
101320
101320
101320
101320
101320
101320
101320
101320
101320
101320
101320
101320
101320
101320
101320
101320
101320
101320
101320
101320
101320
101320
101320
101320
101320
101320
101320
101320
101320
101320
101320
101320
101320
101320
101320
101320
101320
101319
101319
101319
101319
101319
101319
101319
101319
101319
101319
101319
101319
101319
101319
101319
101319
101319
101319
101319
101319
101319
101319
101319
101319
101319
101319
101319
101319
101319
101319
101319
101319
101319
101319
101319
101319
101319
101319
101319
101319
101319
101319
101319
101319
101319
101319
101319
101319
101319
101318
101318
101318
101318
101319
101319
101319
101319
101318
101318
101318
101318
101318
101318
101318
101318
101318
101318
101318
101318
101318
101318
101318
101318
101318
101318
101318
101318
101318
101318
101318
101318
101318
101318
101318
101318
101318
101318
101318
101318
101318
101318
101318
101318
101318
101318
101318
101318
101318
101318
101318
101318
101318
101318
101385
101204
101361
101016
101375
101325
101223
101430
101436
101424
101468
101461
101527
101517
101524
101486
101434
101431
101443
101456
101427
101425
101419
101412
101392
101393
101394
101394
101398
101397
101397
101397
101396
101396
101396
101396
101398
101398
101398
101398
101360
101354
101354
101365
101326
101328
101340
101353
101324
101324
101324
101324
101325
101325
101325
101325
101324
101324
101324
101325
101325
101325
101325
101325
101325
101325
101325
101325
101325
101325
101325
101325
101325
101325
101325
101325
101325
101325
101325
101325
101324
101324
101324
101324
101324
101324
101324
101324
101324
101324
101324
101324
101324
101324
101324
101324
101324
101324
101324
101324
101324
101324
101324
101324
101324
101324
101324
101324
101324
101324
101324
101324
101323
101323
101323
101323
101323
101323
101323
101323
101323
101323
101323
101323
101322
101322
101322
101322
101322
101322
101322
101322
101321
101321
101321
101321
101321
101321
101321
101321
101320
101320
101320
101320
101320
101320
101320
101320
101319
101319
101320
101320
101319
101319
101319
101319
101319
101319
101319
101319
101318
101318
101318
101318
101318
101318
101318
101317
101504
101497
101525
101501
101478
101470
101439
101425
101428
101430
101441
101456
101490
101651
101989
101977
102051
102281
102311
101482
101500
101482
101465
101428
101417
101417
101418
101414
101418
101431
101460
101557
101677
101796
101755
101945
102109
102134
101452
101474
101465
101421
101422
101421
101418
101420
101422
101420
101427
101434
101450
101597
101960
102119
102079
102063
102049
101567
101403
101436
101416
101412
101413
101414
101417
101419
101420
101421
101441
101481
101632
102095
102173
102080
102035
102059
101451
101404
101391
101400
101408
101410
101410
101413
101426
101420
101418
101419
101419
101607
101861
102052
102053
102038
102052
101405
101391
101396
101392
101397
101399
101403
101414
101417
101420
101417
101419
101440
101591
101791
101945
102035
102031
102015
101395
101391
101393
101395
101395
101393
101396
101396
101407
101420
101407
101409
101420
101513
101619
101759
101897
101956
101919
101396
101396
101397
101392
101394
101390
101392
101400
101374
101416
101385
101388
101383
101383
101468
101593
101699
101825
101816
101397
101397
101398
101396
101394
101393
101394
101386
101340
101364
101302
101349
101333
101329
101347
101403
101526
101667
101687
101399
101398
101398
101396
101396
101394
101388
101374
101363
101366
101339
101327
101328
101328
101328
101334
101397
101522
101609
101385
101393
101397
101395
101382
101359
101356
101336
101328
101326
101328
101328
101328
101327
101328
101328
101340
101459
101547
101360
101367
101366
101361
101359
101337
101327
101326
101327
101326
101326
101326
101327
101326
101327
101328
101334
101352
101451
101325
101327
101330
101329
101326
101325
101325
101324
101325
101324
101325
101325
101325
101325
101325
101326
101325
101333
101349
101325
101325
101325
101325
101325
101325
101325
101324
101323
101323
101324
101324
101325
101325
101325
101325
101326
101326
101336
101325
101325
101325
101325
101325
101325
101324
101324
101323
101323
101323
101324
101324
101324
101324
101325
101325
101325
101338
101325
101325
101325
101325
101325
101325
101324
101324
101323
101323
101323
101323
101324
101324
101325
101324
101325
101325
101325
101325
101325
101325
101325
101324
101324
101324
101324
101323
101323
101323
101323
101324
101324
101325
101325
101325
101325
101325
101325
101325
101325
101325
101325
101324
101324
101324
101323
101323
101323
101323
101324
101324
101325
101325
101325
101325
101325
101325
101325
101325
101325
101325
101324
101324
101324
101324
101323
101324
101324
101324
101325
101325
101325
101325
101325
101325
101325
101325
101325
101325
101325
101325
101324
101324
101324
101324
101324
101324
101325
101325
101325
101325
101326
101325
101326
101325
101325
101325
101325
101325
101324
101324
101324
101324
101324
101324
101324
101325
101325
101325
101325
101326
101326
101326
101325
101325
101325
101325
101325
101324
101324
101324
101324
101324
101324
101324
101325
101325
101325
101325
101326
101326
101327
101324
101324
101324
101324
101324
101324
101324
101324
101324
101324
101324
101325
101325
101325
101326
101325
101326
101325
101326
101324
101324
101324
101324
101324
101324
101324
101324
101324
101324
101324
101325
101325
101325
101325
101325
101326
101325
101326
101324
101324
101324
101324
101324
101324
101324
101324
101324
101324
101324
101324
101325
101325
101325
101325
101326
101325
101326
101324
101324
101324
101324
101324
101324
101324
101324
101324
101324
101324
101324
101325
101325
101325
101325
101326
101325
101327
101324
101324
101324
101324
101324
101324
101324
101324
101324
101324
101324
101324
101324
101324
101325
101325
101325
101325
101324
101324
101324
101324
101324
101324
101324
101324
101324
101324
101324
101324
101324
101324
101324
101325
101324
101325
101324
101324
101323
101323
101324
101324
101324
101323
101323
101323
101323
101323
101324
101324
101324
101324
101324
101324
101324
101324
101325
101323
101323
101323
101323
101323
101323
101323
101323
101323
101323
101323
101323
101324
101324
101324
101324
101324
101324
101325
101323
101323
101323
101323
101323
101323
101323
101323
101323
101323
101323
101323
101323
101323
101324
101324
101324
101324
101325
101322
101322
101322
101322
101323
101323
101323
101323
101323
101323
101323
101322
101323
101323
101323
101323
101324
101324
101324
101322
101322
101322
101322
101322
101322
101322
101322
101322
101322
101322
101322
101322
101322
101323
101323
101323
101323
101324
101321
101322
101322
101322
101322
101322
101322
101322
101322
101322
101321
101321
101321
101322
101322
101322
101323
101323
101323
101321
101321
101321
101321
101321
101321
101321
101321
101321
101321
101321
101321
101321
101321
101321
101322
101322
101322
101323
101321
101321
101321
101321
101321
101321
101321
101321
101321
101320
101320
101320
101320
101320
101321
101321
101321
101322
101322
101320
101320
101320
101320
101320
101320
101320
101320
101320
101320
101319
101319
101319
101319
101320
101320
101321
101321
101321
101320
101320
101320
101320
101320
101320
101320
101320
101319
101319
101318
101318
101318
101318
101319
101320
101320
101320
101320
101319
101319
101319
101319
101319
101319
101319
101319
101319
101318
101318
101317
101317
101318
101318
101319
101319
101320
101320
101319
101319
101319
101319
101319
101319
101319
101318
101318
101318
101317
101317
101317
101317
101318
101318
101319
101319
101319
101318
101318
101318
101318
101318
101318
101318
101318
101318
101318
101317
101316
101317
101317
101317
101318
101318
101318
101318
101317
101317
101317
101317
101317
101317
101317
101317
101317
101317
101317
101317
101317
101317
101318
101318
101318
101318
101318
)
;

boundaryField
{
    leftWall
    {
        type            zeroGradient;
    }
    rightWall
    {
        type            zeroGradient;
    }
    lowerWall
    {
        type            zeroGradient;
    }
    atmosphere
    {
        type            fixedValue;
        value           uniform 101325;
    }
    defaultFaces
    {
        type            empty;
    }
}


// ************************************************************************* //
