/*--------------------------------*- C++ -*----------------------------------*\
| =========                 |                                                 |
| \\      /  F ield         | OpenFOAM: The Open Source CFD Toolbox           |
|  \\    /   O peration     | Version:  2012                                  |
|   \\  /    A nd           | Website:  www.openfoam.com                      |
|    \\/     M anipulation  |                                                 |
\*---------------------------------------------------------------------------*/
FoamFile
{
    version     2.0;
    format      ascii;
    class       volScalarField;
    location    "0.75";
    object      p_rgh;
}
// * * * * * * * * * * * * * * * * * * * * * * * * * * * * * * * * * * * * * //

dimensions      [1 -1 -2 0 0 0 0];


internalField   nonuniform List<scalar> 
2268
(
101927
101931
101939
101950
101964
101981
102000
102020
102039
102062
102080
102105
102120
102145
102158
102179
102188
102201
102202
102204
102195
102188
102174
101926
101930
101938
101949
101963
101981
101999
102020
102039
102062
102080
102105
102120
102145
102159
102180
102189
102203
102204
102205
102197
102189
102179
101924
101928
101936
101948
101962
101980
101998
102019
102039
102062
102080
102105
102120
102146
102159
102181
102190
102203
102203
102204
102193
102182
102162
101921
101925
101933
101945
101960
101978
101997
102018
102038
102062
102080
102105
102121
102147
102161
102184
102194
102207
102210
102208
102200
102187
102175
101915
101920
101929
101941
101957
101976
101995
102017
102038
102062
102080
102105
102121
102147
102161
102185
102195
102209
102208
102206
102191
102170
102139
101911
101915
101924
101937
101953
101972
101993
102016
102037
102061
102080
102105
102123
102149
102166
102190
102203
102216
102220
102214
102204
102177
102157
101902
101908
101917
101931
101949
101969
101991
102014
102036
102061
102080
102105
102122
102149
102165
102192
102203
102219
102217
102212
102190
102143
102090
101896
101901
101911
101926
101944
101964
101987
102012
102035
102060
102081
102105
102125
102151
102172
102199
102217
102230
102234
102223
102212
102149
102112
102885
102219
101917
101787
101932
102279
102374
102213
102043
101935
101887
101852
101828
101820
101798
101853
101928
102651
103027
102818
102144
101868
101765
101896
102327
102373
102220
102026
101941
101880
101848
101820
101800
101768
101787
101839
102546
102815
102454
101989
101770
101675
101820
102282
102379
102186
101951
101840
101806
101771
101750
101744
101722
101743
101744
102426
102674
102266
101889
101618
101574
101718
102264
102368
102191
101968
101844
101760
101732
101713
101720
101705
101722
101712
102427
102638
102077
101750
101526
101530
101674
102176
102322
102235
102059
101916
101819
101745
101710
101722
101709
101725
101723
102248
102641
102024
101727
101526
101529
101701
102163
102197
102115
102023
102009
101989
101949
101891
101839
101768
101739
101719
102397
102672
101947
101679
101526
101529
101769
102085
102103
102000
101976
101970
101987
101998
102019
102066
102079
101979
102064
102537
102715
101951
101546
101526
101559
101802
102003
101867
101688
101745
101853
101930
101984
102045
102131
102258
102258
102377
102701
102828
101683
101705
101746
101798
101854
101912
101969
102010
102035
102060
102081
102105
102123
102149
102170
102203
102215
102240
102227
102231
102182
102087
101859
101341
101346
101358
101386
101435
101507
101604
101742
101874
101971
102035
102084
102122
102155
102188
102225
102267
102271
102284
102256
102254
101990
101647
101330
101330
101330
101331
101331
101334
101342
101363
101421
101513
101608
101686
101758
101862
101982
102102
102182
102270
102267
102316
102266
102097
101655
101330
101330
101330
101330
101330
101330
101330
101331
101334
101343
101357
101364
101368
101390
101467
101601
101717
101810
102011
102224
102366
102349
102026
101330
101330
101330
101330
101330
101330
101330
101331
101331
101331
101332
101333
101338
101347
101379
101392
101445
101654
101986
102255
102354
102403
102386
101330
101330
101330
101330
101330
101330
101330
101330
101330
101330
101330
101329
101330
101329
101337
101487
101904
102085
102055
101979
101915
101927
101920
101330
101330
101330
101330
101330
101330
101330
101330
101330
101330
101330
101329
101327
101327
101331
101600
102107
102118
101774
101389
101393
101390
101393
101330
101330
101330
101330
101330
101330
101330
101330
101330
101330
101329
101328
101327
101325
101327
101350
101629
101901
101680
101366
101381
101383
101398
101330
101330
101330
101330
101330
101330
101330
101330
101330
101329
101329
101328
101326
101325
101325
101326
101327
101334
101672
101939
101944
101669
101542
101330
101330
101330
101330
101330
101329
101329
101329
101329
101329
101328
101327
101327
101326
101326
101326
101327
101327
101342
101913
102448
102434
102284
101329
101329
101329
101329
101329
101329
101329
101329
101329
101329
101328
101328
101327
101326
101326
101327
101327
101328
101327
101327
101358
101918
102499
101329
101329
101329
101329
101329
101329
101329
101329
101329
101329
101328
101328
101327
101327
101327
101327
101327
101327
101327
101328
101327
101327
101327
101329
101329
101329
101329
101329
101329
101329
101329
101329
101328
101328
101328
101328
101327
101327
101327
101327
101327
101327
101327
101327
101327
101327
101329
101329
101329
101329
101329
101329
101329
101329
101329
101328
101328
101328
101328
101328
101328
101328
101328
101328
101327
101328
101327
101327
101327
101329
101329
101329
101329
101329
101329
101329
101329
101329
101328
101328
101328
101328
101328
101328
101328
101328
101328
101328
101328
101328
101327
101327
101329
101329
101329
101329
101329
101329
101329
101329
101328
101328
101328
101328
101328
101328
101328
101328
101328
101328
101328
101328
101328
101328
101328
101329
101329
101329
101329
101329
101329
101329
101328
101328
101328
101328
101328
101328
101328
101328
101328
101328
101328
101328
101328
101328
101328
101328
101329
101329
101329
101329
101329
101328
101328
101328
101328
101328
101328
101328
101328
101328
101328
101328
101328
101328
101328
101328
101328
101328
101328
101328
101328
101328
101328
101328
101328
101328
101328
101328
101328
101328
101328
101328
101328
101328
101328
101328
101328
101328
101328
101328
101328
101328
101328
101328
101328
101328
101328
101328
101328
101328
101328
101328
101328
101328
101328
101328
101328
101328
101328
101328
101328
101328
101328
101328
101328
101328
101328
101328
101328
101328
101328
101328
101328
101328
101328
101328
101328
101328
101328
101328
101328
101328
101328
101328
101328
101328
101328
101328
101328
101328
101328
101328
101328
101328
101328
101328
101328
101328
101328
101328
101328
101328
101328
101328
101328
101328
101328
101328
101328
101328
101329
101328
101328
101328
101328
101328
101328
101328
101328
101328
101328
101328
101328
101328
101328
101328
101328
101328
101328
101328
101328
101328
101329
101329
101328
101328
101328
101328
101328
101328
101328
101328
101328
101328
101328
101328
101328
101328
101328
101328
101328
101328
101328
101328
101329
101329
101329
101328
101328
101328
101328
101328
101328
101328
101328
101328
101328
101328
101328
101328
101328
101328
101328
101328
101328
101328
101329
101329
101329
101329
101328
101328
101328
101328
101328
101328
101328
101328
101328
101328
101328
101328
101328
101328
101328
101328
101328
101328
101328
101329
101329
101329
101329
101328
101328
101328
101328
101328
101328
101328
101328
101328
101328
101328
101328
101328
101328
101328
101328
101328
101328
101328
101328
101329
101329
101329
101328
101328
101328
101328
101328
101328
101328
101328
101328
101328
101328
101328
101328
101328
101328
101328
101328
101328
101328
101328
101328
101329
101329
101328
101328
101328
101328
101328
101328
101328
101328
101328
101328
101328
101328
101328
101328
101328
101328
101328
101328
101328
101328
101328
101328
101328
101328
101328
101328
101328
101328
101328
101328
101328
101328
101328
101328
101328
101328
101328
101328
101328
101328
101328
101328
101328
101328
101328
101328
101327
101327
101327
101327
101327
101328
101328
101328
101328
101328
101328
101328
101328
101328
101328
101328
101328
101328
101328
101328
101328
101328
101328
101327
101327
101327
101327
101327
101327
101327
101327
101327
101327
101327
101327
101328
101328
101328
101328
101328
101328
101328
101328
101328
101328
101328
101327
101327
101327
101327
101327
101327
101327
101327
101327
101327
101327
101327
101327
101327
101327
101327
101327
101327
101327
101327
101327
101328
101328
101327
101327
101327
101327
101327
101327
101327
101327
101327
101327
101327
101327
101327
101327
101327
101327
101327
101327
101327
101327
101327
101327
101327
101327
101327
101327
101327
101327
101327
101327
101327
101327
101327
101327
101327
101327
101327
101327
101327
101327
101327
101327
101327
101327
101327
101327
101327
101327
101327
101327
101327
101327
101327
101327
101327
101327
101327
101327
101327
101327
101327
101327
101327
101327
101327
101327
101327
101327
101327
101326
101326
101326
101327
101327
101327
101327
101327
101326
101326
101326
101326
101326
101326
101326
101326
101326
101326
101326
101326
101326
101326
101327
101326
101326
101326
101326
101326
101326
101326
101326
101326
101326
101326
101326
101326
101326
101326
101326
101326
101326
101326
101326
101326
101326
101326
101326
101326
101326
101326
101326
101326
101326
101326
101326
101326
101326
101326
101326
101326
101326
101326
101326
101326
101326
101326
101326
101326
101326
101326
101326
101326
101326
101326
101326
101326
101326
101326
101326
101326
101326
101326
101326
101326
101325
101325
101326
101325
101326
101326
101326
101326
101325
101325
101325
101325
101325
101325
101325
101325
101325
101325
101325
101325
101325
101325
101325
101325
101325
101325
101325
101325
101325
101325
101326
101326
101326
101326
101326
101326
101326
101326
101326
101325
101325
101325
101325
101325
101325
101325
101325
101325
101325
101325
101325
101325
101325
101325
101814
101621
101773
101429
101769
101840
101738
101912
101790
102037
102019
101713
101698
101688
101737
101708
102095
101851
101882
102188
101952
101914
101777
101702
101394
101395
101395
101395
101400
101399
101399
101399
101398
101398
101399
101398
101400
101401
101400
101400
102579
102572
102572
102280
101344
101430
101808
102228
101327
101327
101327
101327
101328
101328
101328
101328
101327
101327
101327
101327
101328
101328
101328
101328
101328
101328
101328
101328
101328
101328
101328
101328
101328
101328
101328
101328
101328
101328
101328
101328
101328
101328
101328
101328
101329
101329
101329
101329
101329
101329
101329
101329
101329
101329
101329
101329
101329
101329
101329
101329
101329
101329
101329
101329
101329
101329
101329
101329
101329
101329
101329
101329
101328
101329
101329
101329
101328
101328
101328
101328
101328
101328
101328
101328
101328
101328
101328
101328
101328
101328
101328
101328
101327
101327
101327
101327
101327
101327
101327
101327
101327
101327
101327
101327
101327
101327
101327
101327
101326
101326
101326
101326
101326
101326
101326
101326
101326
101326
101326
101326
101326
101326
101326
101326
101325
101325
101325
101325
101916
101498
101526
101762
101848
101751
101573
101460
101478
101512
101563
101609
101664
101848
102220
102279
102465
102798
102793
101698
101501
101708
101908
101867
101481
101418
101418
101415
101419
101432
101463
101562
101686
101817
101891
102485
102676
102454
101690
101770
102013
101947
101508
101422
101419
101421
101423
101421
101428
101436
101452
101603
102000
102471
102657
102438
102132
101911
102038
102045
101524
101413
101414
101415
101418
101420
101421
101422
101446
101534
101917
102419
102314
102224
102077
102101
102183
101803
101393
101402
101409
101411
101411
101415
101427
101421
101419
101436
101751
102538
102809
102372
102054
102039
102268
101617
101392
101398
101393
101399
101402
101411
101437
101436
101422
101419
101536
102377
102739
102939
102993
102253
102041
102786
101396
101393
101395
101397
101396
101397
101497
101927
101820
101422
101413
101946
102661
102778
102891
103031
102991
102603
103105
101398
101398
101399
101394
101395
101393
101629
102383
102240
101485
101464
102311
102349
102175
102741
102986
103095
103221
103212
101399
101399
101400
101398
101396
101395
101845
102456
102410
102095
101771
101944
101447
101354
101820
102587
103039
103187
103207
101401
101400
101400
101398
101398
101408
102194
102520
102365
102368
101959
101351
101330
101330
101330
101601
102490
103011
103113
101746
101523
101497
101482
101748
102283
102257
101666
101404
101389
101364
101331
101331
101330
101331
101331
101476
101962
102202
102537
102676
102674
102651
102401
101714
101378
101329
101329
101328
101329
101331
101332
101329
101330
101333
101339
101407
101735
101327
101406
101505
101467
101356
101327
101328
101327
101328
101330
101332
101332
101328
101328
101328
101335
101351
101446
102061
101328
101328
101328
101328
101328
101327
101328
101327
101326
101326
101326
101326
101328
101327
101328
101329
101348
101440
102093
101328
101328
101328
101328
101328
101328
101327
101326
101326
101326
101326
101327
101327
101327
101327
101328
101328
101353
101823
101328
101328
101328
101328
101328
101328
101328
101327
101326
101326
101326
101326
101327
101327
101328
101328
101328
101336
101328
101328
101328
101328
101328
101328
101328
101327
101327
101327
101326
101327
101327
101327
101327
101328
101328
101328
101328
101328
101328
101328
101328
101328
101328
101328
101328
101327
101327
101327
101327
101327
101327
101328
101328
101328
101328
101328
101329
101328
101328
101328
101328
101328
101328
101328
101327
101327
101327
101327
101327
101328
101328
101329
101329
101329
101329
101329
101328
101328
101328
101328
101328
101328
101328
101328
101328
101328
101328
101328
101328
101328
101329
101329
101329
101330
101330
101328
101328
101328
101328
101328
101328
101328
101328
101328
101328
101328
101328
101329
101329
101329
101329
101330
101334
101331
101329
101329
101329
101329
101329
101329
101329
101328
101328
101328
101328
101329
101329
101329
101330
101329
101330
101334
101396
101329
101329
101329
101329
101329
101329
101329
101328
101329
101328
101329
101329
101329
101329
101330
101330
101330
101332
101664
101329
101329
101329
101329
101329
101329
101329
101329
101329
101329
101329
101329
101329
101329
101330
101330
101330
101330
101689
101329
101329
101329
101329
101329
101329
101329
101329
101329
101329
101329
101329
101329
101329
101330
101330
101330
101330
101702
101329
101329
101329
101329
101329
101329
101329
101329
101329
101329
101329
101329
101329
101329
101330
101330
101330
101330
101662
101329
101329
101329
101329
101329
101329
101329
101329
101329
101329
101329
101329
101329
101329
101330
101330
101330
101329
101345
101329
101329
101329
101329
101329
101329
101329
101329
101329
101329
101329
101329
101329
101329
101330
101329
101330
101329
101329
101329
101329
101329
101329
101329
101329
101329
101329
101329
101329
101329
101329
101329
101329
101329
101329
101330
101330
101330
101328
101329
101329
101329
101329
101329
101329
101329
101329
101329
101329
101329
101329
101329
101329
101329
101330
101330
101330
101328
101328
101328
101328
101328
101328
101328
101328
101328
101328
101328
101328
101329
101329
101329
101329
101330
101330
101330
101328
101328
101328
101328
101328
101328
101328
101328
101328
101328
101328
101328
101328
101329
101329
101329
101330
101330
101330
101328
101328
101328
101328
101328
101328
101328
101328
101328
101328
101328
101328
101328
101328
101329
101329
101329
101329
101330
101327
101328
101328
101328
101328
101328
101328
101328
101328
101328
101328
101327
101328
101328
101328
101328
101329
101329
101329
101327
101327
101327
101327
101327
101327
101327
101327
101327
101327
101327
101327
101327
101327
101328
101328
101328
101329
101329
101327
101327
101327
101327
101327
101327
101327
101327
101327
101327
101326
101326
101326
101326
101327
101327
101328
101328
101328
101327
101327
101327
101327
101327
101327
101327
101327
101326
101326
101326
101326
101326
101326
101326
101327
101327
101327
101328
101326
101326
101326
101326
101326
101326
101326
101326
101326
101326
101325
101326
101325
101325
101326
101326
101327
101327
101327
101326
101326
101326
101326
101326
101326
101326
101326
101326
101325
101325
101325
101325
101325
101325
101326
101326
101326
101327
101326
101326
101326
101326
101326
101326
101326
101325
101325
101325
101324
101325
101324
101324
101325
101325
101326
101326
101326
101326
101326
101326
101326
101326
101326
101326
101325
101325
101325
101324
101324
101324
101324
101325
101325
101325
101325
101325
101325
101325
101325
101325
101325
101325
101325
101324
101325
101324
101324
101325
101325
101325
101325
101325
101325
101325
101326
)
;

boundaryField
{
    leftWall
    {
        type            zeroGradient;
    }
    rightWall
    {
        type            zeroGradient;
    }
    lowerWall
    {
        type            zeroGradient;
    }
    atmosphere
    {
        type            fixedValue;
        value           uniform 101325;
    }
    defaultFaces
    {
        type            empty;
    }
}


// ************************************************************************* //
