/*--------------------------------*- C++ -*----------------------------------*\
| =========                 |                                                 |
| \\      /  F ield         | OpenFOAM: The Open Source CFD Toolbox           |
|  \\    /   O peration     | Version:  2012                                  |
|   \\  /    A nd           | Website:  www.openfoam.com                      |
|    \\/     M anipulation  |                                                 |
\*---------------------------------------------------------------------------*/
FoamFile
{
    version     2.0;
    format      ascii;
    class       surfaceScalarField;
    location    "0.75";
    object      phi;
}
// * * * * * * * * * * * * * * * * * * * * * * * * * * * * * * * * * * * * * //

dimensions      [0 3 -1 0 0 0 0];
oriented        oriented;


internalField   nonuniform List<scalar> 
4432
(
-1.94024e-06
1.94024e-06
-3.73995e-06
1.79971e-06
-5.63404e-06
1.89408e-06
-7.65532e-06
2.02128e-06
-9.58298e-06
1.92766e-06
-1.12352e-05
1.65217e-06
-1.27934e-05
1.55826e-06
-1.43233e-05
1.52989e-06
-1.55409e-05
1.21756e-06
-1.65672e-05
1.02634e-06
-1.73533e-05
7.86132e-07
-1.78054e-05
4.52091e-07
-1.79029e-05
9.75055e-08
-1.77104e-05
-1.92554e-07
-1.72328e-05
-4.77551e-07
-1.64792e-05
-7.53618e-07
-1.51818e-05
-1.29742e-06
-1.33211e-05
-1.8607e-06
-1.0818e-05
-2.50311e-06
-7.50919e-06
-3.30879e-06
-4.59522e-06
-2.91397e-06
-9.03927e-08
-4.50483e-06
-9.03904e-08
-1.96577e-06
3.90601e-06
-3.77532e-06
3.60926e-06
-5.65847e-06
3.77723e-06
-7.65191e-06
4.01472e-06
-9.56656e-06
3.84232e-06
-1.12364e-05
3.322e-06
-1.28216e-05
3.14342e-06
-1.4355e-05
3.06329e-06
-1.55625e-05
2.42515e-06
-1.66e-05
2.06383e-06
-1.73977e-05
1.58378e-06
-1.78615e-05
9.15858e-07
-1.7989e-05
2.25061e-07
-1.78228e-05
-3.5881e-07
-1.73558e-05
-9.4454e-07
-1.66e-05
-1.5094e-06
-1.53223e-05
-2.57516e-06
-1.34953e-05
-3.68762e-06
-1.10849e-05
-4.91351e-06
-7.97595e-06
-6.41778e-06
-5.17774e-06
-5.71218e-06
-1.03817e-06
-8.6444e-06
-1.12856e-06
-1.9782e-06
5.88421e-06
-3.77361e-06
5.40466e-06
-5.64194e-06
5.64556e-06
-7.62081e-06
5.99358e-06
-9.57548e-06
5.79699e-06
-1.13401e-05
5.08663e-06
-1.29989e-05
4.80217e-06
-1.45401e-05
4.60454e-06
-1.5752e-05
3.63705e-06
-1.67738e-05
3.08562e-06
-1.75125e-05
2.32244e-06
-1.79416e-05
1.34499e-06
-1.80566e-05
3.40087e-07
-1.79085e-05
-5.0696e-07
-1.74464e-05
-1.4066e-06
-1.66829e-05
-2.27291e-06
-1.53671e-05
-3.89102e-06
-1.3457e-05
-5.59765e-06
-1.09385e-05
-7.43206e-06
-7.58126e-06
-9.775e-06
-4.20126e-06
-9.09218e-06
4.67408e-07
-1.33131e-05
-6.61145e-07
-2.00753e-06
7.89174e-06
-3.82504e-06
7.22217e-06
-5.71313e-06
7.53365e-06
-7.64359e-06
7.92405e-06
-9.55436e-06
7.70776e-06
-1.13432e-05
6.87549e-06
-1.3036e-05
6.49498e-06
-1.45883e-05
6.1568e-06
-1.58296e-05
4.87838e-06
-1.68845e-05
4.14048e-06
-1.76848e-05
3.12278e-06
-1.82144e-05
1.87459e-06
-1.83953e-05
5.20924e-07
-1.82783e-05
-6.23885e-07
-1.78315e-05
-1.85347e-06
-1.71291e-05
-2.97528e-06
-1.59296e-05
-5.09055e-06
-1.41064e-05
-7.42079e-06
-1.16648e-05
-9.87375e-06
-8.28815e-06
-1.31516e-05
-4.65156e-06
-1.27288e-05
3.50334e-07
-1.8315e-05
-3.10807e-07
-1.95674e-06
9.84848e-06
-3.79818e-06
9.06361e-06
-5.70285e-06
9.43831e-06
-7.64025e-06
9.86144e-06
-9.60177e-06
9.66929e-06
-1.15471e-05
8.82078e-06
-1.33757e-05
8.32361e-06
-1.4949e-05
7.73014e-06
-1.61917e-05
6.12107e-06
-1.72037e-05
5.15246e-06
-1.79e-05
3.81904e-06
-1.83722e-05
2.34688e-06
-1.85218e-05
6.70434e-07
-1.84168e-05
-7.28846e-07
-1.79935e-05
-2.27675e-06
-1.73355e-05
-3.63335e-06
-1.61431e-05
-6.28295e-06
-1.42656e-05
-9.29822e-06
-1.16407e-05
-1.24987e-05
-7.90962e-06
-1.68826e-05
-3.08413e-06
-1.75543e-05
3.30076e-06
-2.46998e-05
2.98995e-06
-1.94023e-06
1.17887e-05
-3.92033e-06
1.10437e-05
-5.86656e-06
1.13845e-05
-7.74323e-06
1.17381e-05
-9.60376e-06
1.15298e-05
-1.15346e-05
1.07516e-05
-1.33851e-05
1.01741e-05
-1.49816e-05
9.32662e-06
-1.63139e-05
7.45339e-06
-1.74358e-05
6.27434e-06
-1.82663e-05
4.64955e-06
-1.88698e-05
2.95036e-06
-1.90714e-05
8.72053e-07
-1.89897e-05
-8.10567e-07
-1.86126e-05
-2.65382e-06
-1.8105e-05
-4.14095e-06
-1.70996e-05
-7.28838e-06
-1.54109e-05
-1.09869e-05
-1.2865e-05
-1.50447e-05
-9.07061e-06
-2.0677e-05
-3.80723e-06
-2.28176e-05
3.05209e-06
-3.15592e-05
6.04204e-06
-1.79188e-06
1.35806e-05
-3.8357e-06
1.30875e-05
-5.84092e-06
1.33898e-05
-7.73914e-06
1.36363e-05
-9.66535e-06
1.3456e-05
-1.18286e-05
1.29148e-05
-1.38893e-05
1.22349e-05
-1.55241e-05
1.09614e-05
-1.68196e-05
8.74884e-06
-1.78472e-05
7.30193e-06
-1.85346e-05
5.33695e-06
-1.90538e-05
3.46957e-06
-1.92183e-05
1.0366e-06
-1.91729e-05
-8.56022e-07
-1.88782e-05
-2.94852e-06
-1.84993e-05
-4.5198e-06
-1.7544e-05
-8.24375e-06
-1.58421e-05
-1.26888e-05
-1.30538e-05
-1.7833e-05
-8.73328e-06
-2.49975e-05
-2.32746e-06
-2.92235e-05
6.1351e-06
-4.00217e-05
1.21771e-05
-1.75425e-06
1.53348e-05
-3.86744e-06
1.52007e-05
-5.929e-06
1.54513e-05
-7.77828e-06
1.54856e-05
-9.63395e-06
1.53117e-05
-1.18614e-05
1.51422e-05
-1.40392e-05
1.44128e-05
-1.57931e-05
1.27152e-05
-1.71894e-05
1.01452e-05
-1.8274e-05
8.38646e-06
-1.9119e-05
6.18201e-06
-1.9782e-05
4.13251e-06
-1.99188e-05
1.17347e-06
-1.98355e-05
-9.39367e-07
-1.96341e-05
-3.14987e-06
-1.95038e-05
-4.65014e-06
-1.87567e-05
-8.99085e-06
-1.74103e-05
-1.40351e-05
-1.51054e-05
-2.01379e-05
-1.18594e-05
-2.82434e-05
-6.39135e-06
-3.46916e-05
-1.62827e-06
-4.47848e-05
1.05489e-05
-7.75055e-05
7.74553e-05
-0.000113851
3.63117e-05
-0.000131231
1.73604e-05
-0.000133544
2.32053e-06
-0.000120845
-1.26655e-05
-0.000104057
-1.67781e-05
-0.0001004
-3.66294e-06
-0.000113129
1.27045e-05
-0.000128799
1.5624e-05
-0.00013651
7.67985e-06
-0.000140806
4.27202e-06
-0.00014446
3.62806e-06
-0.000149716
5.23779e-06
-0.000156193
6.45156e-06
-0.00016122
5.013e-06
-0.000162341
1.11515e-06
-0.000139682
-2.25487e-05
-8.31806e-05
-5.6463e-05
-8.32131e-05
-6.4986e-05
0.000142396
-9.63734e-05
6.76767e-05
-0.000110323
3.12984e-05
-0.000109326
1.32935e-06
-9.3231e-05
-2.87276e-05
-7.5303e-05
-3.47075e-05
-7.87595e-05
-2.11431e-07
-9.62165e-05
3.0131e-05
-0.000109566
2.89377e-05
-0.000116125
1.42017e-05
-0.000120496
8.61667e-06
-0.000125603
8.70606e-06
-0.000131049
1.06481e-05
-0.000135606
1.09382e-05
-0.00013885
8.19991e-06
-0.000137067
-7.13574e-07
-0.000106126
-5.32387e-05
-6.36236e-05
-9.90047e-05
-0.000146899
-5.53084e-05
0.000197839
-7.75093e-05
8.98702e-05
-9.12442e-05
4.50231e-05
-8.85162e-05
-1.37851e-06
-6.15594e-05
-5.5605e-05
-2.99109e-05
-6.63538e-05
-2.59177e-05
-4.21549e-06
-4.56005e-05
4.97504e-05
-7.23382e-05
5.5612e-05
-9.76978e-05
3.9525e-05
-0.000115356
2.61903e-05
-0.000125183
1.84385e-05
-0.000130517
1.58918e-05
-0.000134762
1.50538e-05
-0.000138248
1.15968e-05
-0.000123249
-1.58361e-05
-7.29957e-05
-0.000103287
-3.72171e-05
-0.000134913
-0.000184285
-3.69808e-05
0.000234921
-6.33386e-05
0.000116212
-9.07675e-05
7.24792e-05
-7.9063e-05
-1.3034e-05
-3.68286e-05
-9.7734e-05
-6.57529e-06
-9.66196e-05
1.91133e-05
-2.9904e-05
3.92017e-05
2.96794e-05
3.48832e-05
5.99256e-05
1.04097e-05
6.39364e-05
-3.12509e-05
6.7787e-05
-7.21399e-05
5.92383e-05
-9.93916e-05
4.3051e-05
-0.000104199
1.975e-05
-9.39944e-05
1.29679e-06
-5.80783e-05
-5.18502e-05
-3.23657e-05
-0.00012893
-1.10639e-05
-0.000156353
-0.000195415
-2.28005e-05
0.000257806
-4.2052e-05
0.000135474
-6.72741e-05
9.77505e-05
-4.03454e-05
-3.99309e-05
-2.41617e-07
-0.000137812
1.23072e-05
-0.000109177
2.82983e-05
-4.58954e-05
4.82037e-05
9.77416e-06
6.24995e-05
4.56347e-05
7.04291e-05
5.59953e-05
8.0961e-05
5.71978e-05
8.59727e-05
5.4172e-05
8.42648e-05
4.46808e-05
6.58365e-05
3.80728e-05
4.39025e-05
2.31305e-05
1.57877e-05
-2.38375e-05
-1.14177e-05
-0.000101841
2.28006e-06
-0.000170098
-0.000193142
-1.13129e-05
0.000269152
-6.5567e-06
0.000130723
-9.37283e-06
0.000100573
3.03541e-06
-5.23289e-05
1.95858e-05
-0.000154315
2.65652e-05
-0.000116163
4.1357e-05
-6.06873e-05
5.4115e-05
-2.98369e-06
6.18253e-05
3.79245e-05
6.92645e-05
4.85553e-05
7.63431e-05
5.01063e-05
8.21807e-05
4.82883e-05
8.71166e-05
3.96798e-05
9.02995e-05
3.48042e-05
9.35037e-05
1.98636e-05
7.43457e-05
-4.76563e-06
4.4968e-05
-7.24298e-05
1.28765e-05
-0.000138124
-0.000180266
-5.29137e-06
0.000274469
-8.10084e-06
0.000133572
1.11413e-05
8.13466e-05
3.60244e-05
-7.34466e-05
3.0246e-05
-0.000148553
3.52962e-05
-0.000121216
4.69772e-05
-7.23704e-05
5.52538e-05
-1.12578e-05
5.99822e-05
3.31962e-05
6.71305e-05
4.1407e-05
7.4391e-05
4.28455e-05
8.00897e-05
4.25892e-05
8.42323e-05
3.55358e-05
8.81647e-05
3.08626e-05
9.10462e-05
1.69507e-05
8.64322e-05
-1.73052e-07
6.53519e-05
-5.13748e-05
1.76992e-05
-9.04859e-05
-0.000162566
6.16666e-07
0.000273846
-2.57943e-05
0.000160161
-3.42186e-07
5.59089e-05
4.10891e-05
-0.000114719
3.51405e-05
-0.000142619
3.99794e-05
-0.000126068
5.1323e-05
-8.37445e-05
5.76361e-05
-1.75497e-05
5.88629e-05
3.19825e-05
6.45431e-05
3.57184e-05
7.12243e-05
3.61597e-05
7.67876e-05
3.70255e-05
8.04603e-05
3.18622e-05
8.34064e-05
2.79151e-05
8.50717e-05
1.5284e-05
7.96938e-05
5.20405e-06
5.70172e-05
-2.87009e-05
1.27528e-05
-4.62234e-05
-0.000149814
-3.38644e-06
1.87357e-05
-7.67901e-06
1.95043e-05
-1.20493e-05
1.98276e-05
-1.60667e-05
1.95047e-05
-1.98315e-05
1.90758e-05
-2.40695e-05
1.93791e-05
-2.83368e-05
1.86794e-05
-3.24194e-05
1.67978e-05
-3.61223e-05
1.38481e-05
-3.91331e-05
1.13972e-05
-4.14456e-05
8.49453e-06
-4.27247e-05
5.41158e-06
-4.25819e-05
1.03065e-06
-4.24487e-05
-1.07249e-06
-4.24983e-05
-3.1003e-06
-4.31255e-05
-4.02293e-06
-4.20851e-05
-1.00313e-05
-4.0053e-05
-1.60672e-05
-3.72277e-05
-2.29631e-05
-3.45396e-05
-3.09316e-05
-2.39879e-05
-4.52433e-05
-1.17521e-05
-5.70176e-05
-4.19823e-05
4.07613e-05
-5.47654e-06
2.42492e-05
-1.20045e-05
2.60774e-05
-1.90857e-05
2.69669e-05
-2.53735e-05
2.58625e-05
-2.9782e-05
2.35604e-05
-3.34646e-05
2.31391e-05
-3.70245e-05
2.23079e-05
-3.98346e-05
1.96459e-05
-4.1251e-05
1.52735e-05
-4.15809e-05
1.17275e-05
-4.11066e-05
8.01957e-06
-4.06129e-05
4.9172e-06
-4.1097e-05
1.51438e-06
-4.29878e-05
8.1835e-07
-4.58506e-05
-2.37507e-07
-4.89349e-05
-9.3865e-07
-4.93807e-05
-9.5856e-06
-4.89691e-05
-1.64788e-05
-4.92379e-05
-2.26944e-05
-5.17415e-05
-2.84279e-05
-5.40155e-05
-4.29694e-05
-5.09503e-05
-6.01025e-05
-5.54133e-05
-3.72973e-05
-7.85853e-06
3.21064e-05
-1.57366e-05
3.3955e-05
-2.41556e-05
3.53876e-05
-3.18009e-05
3.3514e-05
-3.82533e-05
3.00257e-05
-4.50811e-05
2.99917e-05
-5.24327e-05
2.9701e-05
-5.76926e-05
2.49833e-05
-5.91271e-05
1.68056e-05
-5.84231e-05
1.11069e-05
-5.63241e-05
5.96671e-06
-5.36114e-05
2.22579e-06
-4.92825e-05
-2.80808e-06
-4.46194e-05
-3.85982e-06
-4.18013e-05
-3.07519e-06
-4.21874e-05
-5.68299e-07
-4.41951e-05
-7.59093e-06
-4.65224e-05
-1.41611e-05
-4.94271e-05
-1.97967e-05
-5.8762e-05
-1.90936e-05
-7.37953e-05
-2.79366e-05
-9.66241e-05
-3.73215e-05
-3.13614e-05
-0.000120597
-1.0757e-05
4.28602e-05
-2.03026e-05
4.34975e-05
-2.88264e-05
4.39083e-05
-3.70331e-05
4.17176e-05
-4.71196e-05
4.0109e-05
-5.79526e-05
4.08231e-05
-6.76168e-05
3.93652e-05
-7.6148e-05
3.35193e-05
-8.14134e-05
2.20852e-05
-8.30307e-05
1.27523e-05
-8.3695e-05
6.65355e-06
-9.04124e-05
8.95846e-06
-0.000109522
1.62995e-05
-0.000134652
2.12737e-05
-0.000157189
1.95899e-05
-0.000158669
5.72167e-07
-0.000128221
-3.80463e-05
-9.47067e-05
-4.76809e-05
-7.47333e-05
-3.96335e-05
-6.93604e-05
-2.44168e-05
-7.76812e-05
-1.96117e-05
-9.91843e-05
-1.58177e-05
-8.77545e-06
-0.000121927
-1.25014e-05
5.53585e-05
-2.45534e-05
5.55465e-05
-3.57237e-05
5.50755e-05
-4.76692e-05
5.36601e-05
-6.26693e-05
5.51059e-05
-7.84711e-05
5.66222e-05
-9.34906e-05
5.43817e-05
-0.00011167
5.16959e-05
-0.000137359
4.77716e-05
-0.000182577
5.79699e-05
-0.000258902
8.29846e-05
-0.000346309
9.63835e-05
-0.000410161
8.01908e-05
-0.000439528
5.07314e-05
-0.000412247
-7.69639e-06
-0.000352672
-5.88448e-05
-0.000290854
-9.92828e-05
-0.000235197
-0.000102437
-0.000185315
-8.9333e-05
-0.000146387
-6.33406e-05
-0.000122398
-4.3614e-05
-0.000108976
-2.92421e-05
-2.19018e-05
-9.58632e-05
-1.1486e-05
6.68416e-05
-2.32599e-05
6.73175e-05
-3.58929e-05
6.77057e-05
-5.07402e-05
6.85045e-05
-6.80807e-05
7.24436e-05
-8.81365e-05
7.66754e-05
-0.000111696
7.79381e-05
-0.000143
8.29981e-05
-0.000191336
9.61063e-05
-0.000270816
0.000137451
-0.000370402
0.000182567
-0.00046051
0.000186495
-0.000518604
0.000138286
-0.000485119
1.72667e-05
-0.000401196
-9.13078e-05
-0.00034569
-0.000113235
-0.000325239
-0.000118957
-0.000307864
-0.000119831
-0.000279494
-0.000117821
-0.00023136
-0.000111847
-0.000180561
-9.46262e-05
-0.000138232
-7.17468e-05
-5.74523e-05
-0.000102793
-1.16416e-05
7.84803e-05
-2.36612e-05
7.93343e-05
-3.68433e-05
8.0885e-05
-5.2038e-05
8.36965e-05
-6.92395e-05
8.96424e-05
-8.98844e-05
9.73176e-05
-0.000117059
0.00010511
-0.000152855
0.000118793
-0.000201677
0.000144926
-0.000256931
0.000192705
-0.000306926
0.000232559
-0.000351546
0.000231109
-0.000375321
0.000162064
-0.000362402
4.34948e-06
-0.000348024
-0.00010523
-0.000340847
-0.000118945
-0.000338828
-0.000121121
-0.000340531
-0.000118422
-0.000353753
-0.000105982
-0.000425051
-4.04818e-05
-0.000480501
-3.91057e-05
-0.000513952
-3.82319e-05
-9.18816e-05
-0.000479447
-1.03112e-05
8.87888e-05
-2.10715e-05
9.00919e-05
-3.28096e-05
9.26204e-05
-4.60063e-05
9.68906e-05
-6.05485e-05
0.000104182
-7.78389e-05
0.000114606
-0.000100016
0.000127285
-0.000128287
0.000147061
-0.00016093
0.000177568
-0.000189826
0.000221602
-0.000212835
0.000255565
-0.000238627
0.000256902
-0.000263056
0.000186491
-0.000300704
4.2e-05
-0.000323131
-8.27665e-05
-0.000320038
-0.000121609
-0.000319299
-0.000121276
-0.000331952
-0.000106166
-0.000363759
-7.51908e-05
-0.000365696
-3.80763e-05
-0.000381265
-2.32342e-05
-0.00039255
-2.67377e-05
-7.52607e-05
-0.000409018
-9.34571e-06
9.81319e-05
-1.88746e-05
9.96181e-05
-2.8817e-05
0.00010256
-3.94373e-05
0.000107508
-5.04529e-05
0.000115195
-6.22802e-05
0.000126431
-7.55765e-05
0.000140579
-9.05453e-05
0.000162028
-0.000104166
0.000191187
-0.000112677
0.000230113
-0.000113088
0.000255976
-0.000115209
0.00025902
-0.000138095
0.000209378
-0.000192083
9.59832e-05
-0.000259251
-1.55991e-05
-0.000290524
-9.03386e-05
-0.000294166
-0.000117623
-0.000302811
-9.68862e-05
-0.000310368
-6.67307e-05
-0.000299721
-4.86476e-05
-0.000279529
-4.36016e-05
-0.000265192
-4.10282e-05
-4.43205e-05
-0.000296302
-7.60275e-06
0.000105732
-1.52037e-05
0.000107217
-2.27791e-05
0.000110133
-3.04013e-05
0.000115128
-3.75823e-05
0.000122374
-4.39284e-05
0.000132775
-4.88845e-05
0.000145533
-5.08335e-05
0.000163975
-4.60786e-05
0.000186431
-3.14724e-05
0.000215506
-1.06987e-05
0.000235203
9.48173e-06
0.00023884
1.26832e-05
0.000206173
-2.21209e-05
0.000130786
-8.77366e-05
5.00137e-05
-0.000161559
-1.65155e-05
-0.000226399
-5.27832e-05
-0.000264428
-5.88324e-05
-0.000267502
-6.28709e-05
-0.000258296
-5.67599e-05
-0.000250827
-5.12556e-05
-0.000246423
-4.54824e-05
-3.75811e-05
-0.000254319
-6.10527e-06
0.000111835
-1.21115e-05
0.00011322
-1.79617e-05
0.000115981
-2.33893e-05
0.000120553
-2.78682e-05
0.00012685
-3.07951e-05
0.000135699
-3.13632e-05
0.000146099
-2.76543e-05
0.000160265
-1.70463e-05
0.000175821
3.86941e-06
0.000194589
3.31427e-05
0.000205929
6.63915e-05
0.000205591
9.00529e-05
0.000182513
8.8451e-05
0.000132386
6.03287e-05
7.81333e-05
5.12455e-06
3.86836e-05
-7.34946e-05
2.58332e-05
-0.000154914
2.2581e-05
-0.000220224
2.43262e-06
-0.000250736
-2.62236e-05
-0.000244898
-5.64321e-05
-0.000230857
-5.85764e-05
-4.25811e-05
-0.000225923
-4.56966e-06
0.000116402
-8.94653e-06
0.000117595
-1.29241e-05
0.000119956
-1.6165e-05
0.000123792
-1.81654e-05
0.000128848
-1.83066e-05
0.000135838
-1.58377e-05
0.000143628
-9.36795e-06
0.000153793
2.78508e-06
0.000163666
2.26863e-05
0.000174686
4.89302e-05
0.000179683
7.70852e-05
0.000177435
9.83873e-05
0.000161209
0.000101336
0.000129435
8.58547e-05
9.36125e-05
6.01611e-05
6.43752e-05
3.44151e-05
5.15767e-05
2.84962e-06
5.41451e-05
-5.85394e-05
6.38185e-05
-0.00013463
4.98634e-05
-0.000202442
1.13781e-05
-0.000237211
-2.38136e-05
-4.92e-05
-0.000230578
-3.40772e-06
0.000119807
-6.61357e-06
0.000120798
-9.39103e-06
0.000122731
-1.13478e-05
0.000125747
-1.20687e-05
0.000129567
-1.09732e-05
0.000134741
-7.47215e-06
0.000140124
-6.15898e-07
0.000146935
1.05142e-05
0.000152534
2.69392e-05
0.00015826
4.77713e-05
0.000158849
7.06008e-05
0.000154604
8.9671e-05
0.000142138
9.68461e-05
0.000122258
9.14315e-05
9.90248e-05
7.65914e-05
7.92123e-05
5.95583e-05
6.86068e-05
4.74718e-05
6.62275e-05
4.24279e-05
6.88593e-05
1.60961e-05
7.6192e-05
-4.59972e-05
7.34686e-05
-0.000107975
3.81621e-05
-6.96451e-06
-0.000150211
-2.35359e-06
0.000122159
-4.44347e-06
0.000122886
-6.02501e-06
0.00012431
-6.77208e-06
0.000126491
-6.33214e-06
0.000129125
-4.30779e-06
0.000132714
-2.35685e-07
0.00013605
6.43378e-06
0.000140263
1.6057e-05
0.000142909
2.89761e-05
0.000145339
4.41381e-05
0.000143685
6.00077e-05
0.000138733
7.41362e-05
0.000128007
8.27206e-05
0.000113672
8.38395e-05
9.79035e-05
7.96354e-05
8.34139e-05
7.43406e-05
7.3899e-05
7.17972e-05
6.87684e-05
7.21997e-05
6.84542e-05
8.11003e-05
6.72885e-05
8.91126e-05
6.5454e-05
7.76387e-05
4.96333e-05
2.75741e-05
4.30975e-05
-1.65424e-06
0.000123811
-3.06037e-06
0.00012429
-4.00825e-06
0.000125256
-4.2416e-06
0.000126723
-3.46246e-06
0.000128344
-1.33206e-06
0.000130582
2.48502e-06
0.000132231
8.37318e-06
0.000134373
1.64229e-05
0.000134857
2.6789e-05
0.000134971
3.85887e-05
0.000131884
5.05928e-05
0.000126727
6.09883e-05
0.00011761
6.82359e-05
0.000106422
7.21281e-05
9.40091e-05
7.26231e-05
8.29166e-05
7.21903e-05
7.43294e-05
7.31491e-05
6.78072e-05
7.76893e-05
6.39116e-05
8.44532e-05
6.05223e-05
9.30125e-05
5.68929e-05
9.85163e-05
4.41276e-05
2.56555e-05
0.000100434
-1.08092e-06
0.000124889
-1.94126e-06
0.000125148
-2.38214e-06
0.000125695
-2.15976e-06
0.000126498
-1.05517e-06
0.000127237
1.15497e-06
0.000128369
4.67255e-06
0.000128711
9.71832e-06
0.000129325
1.62795e-05
0.000128294
2.43653e-05
0.000126883
3.33407e-05
0.000122906
4.24389e-05
0.000117627
5.06537e-05
0.000109393
5.69841e-05
0.000100089
6.13737e-05
8.96172e-05
6.47019e-05
7.95861e-05
6.75153e-05
7.15136e-05
7.10696e-05
6.42503e-05
7.59217e-05
5.90572e-05
8.37506e-05
5.26909e-05
9.33411e-05
4.73001e-05
9.83323e-05
3.91341e-05
2.86569e-05
9.53287e-05
-8.08864e-07
0.000125696
-1.41808e-06
0.000125755
-1.66731e-06
0.000125942
-1.35021e-06
0.000126179
-2.63299e-07
0.000126148
1.76042e-06
0.000126344
4.84631e-06
0.000125623
9.05217e-06
0.000125117
1.43409e-05
0.000123003
2.06589e-05
0.000120563
2.75996e-05
0.000115963
3.46902e-05
0.000110534
4.13214e-05
0.000102759
4.69734e-05
9.44352e-05
5.15839e-05
8.50046e-05
5.53759e-05
7.57919e-05
5.94732e-05
6.74142e-05
6.41832e-05
5.95382e-05
7.0112e-05
5.31263e-05
7.6726e-05
4.60748e-05
8.49321e-05
3.90921e-05
9.31849e-05
3.08795e-05
2.29986e-05
9.88415e-05
-6.77399e-07
0.000126372
-1.19906e-06
0.000126275
-1.45199e-06
0.000126193
-1.28239e-06
0.000126007
-5.48749e-07
0.000125412
9.52474e-07
0.00012484
3.34796e-06
0.000123226
6.62945e-06
0.000121834
1.08729e-05
0.000118758
1.58951e-05
0.000115539
2.14598e-05
0.000110397
2.72441e-05
0.000104748
3.28187e-05
9.71827e-05
3.79893e-05
8.92626e-05
4.25898e-05
8.0402e-05
4.6912e-05
7.14676e-05
5.13165e-05
6.30075e-05
5.63062e-05
5.45463e-05
6.22661e-05
4.71643e-05
6.873e-05
3.96087e-05
7.53298e-05
3.24903e-05
8.20742e-05
2.41329e-05
1.76792e-05
8.73916e-05
-7.34037e-07
0.000127104
-1.33853e-06
0.000126877
-1.70999e-06
0.000126562
-1.684e-06
0.000125979
-1.18654e-06
0.000124913
-4.39833e-08
0.000123696
1.81012e-06
0.00012137
4.36687e-06
0.000119275
7.66728e-06
0.000115455
1.14637e-05
0.00011174
1.5746e-05
0.000106113
2.02611e-05
0.000100231
2.47881e-05
9.26537e-05
2.93308e-05
8.47178e-05
3.3771e-05
7.59598e-05
3.82402e-05
6.69965e-05
4.30716e-05
5.8174e-05
4.8276e-05
4.93399e-05
5.45525e-05
4.08858e-05
6.15209e-05
3.26383e-05
6.88115e-05
2.51979e-05
7.64991e-05
1.64434e-05
9.36378e-06
8.48127e-05
-9.43121e-07
0.000128045
-1.76652e-06
0.000127699
-2.39226e-06
0.000127186
-2.68958e-06
0.000126275
-2.59725e-06
0.000124818
-2.03821e-06
0.000123135
-9.85324e-07
0.000120315
6.37057e-07
0.000117651
2.87468e-06
0.000113216
5.5844e-06
0.000109029
8.89484e-06
0.0001028
1.25937e-05
9.65298e-05
1.65057e-05
8.87398e-05
2.06279e-05
8.05937e-05
2.48416e-05
7.17441e-05
2.92924e-05
6.25437e-05
3.42269e-05
5.32375e-05
3.95785e-05
4.39863e-05
4.57324e-05
3.473e-05
5.27051e-05
2.56636e-05
6.0115e-05
1.77859e-05
6.77315e-05
8.82498e-06
1.25688e-06
7.58365e-05
-1.29102e-06
0.000129334
-2.47502e-06
0.000128881
-3.48667e-06
0.000128196
-4.21198e-06
0.000126998
-4.59944e-06
0.000125204
-4.59858e-06
0.000123132
-4.20443e-06
0.000119919
-3.27142e-06
0.000116716
-1.79457e-06
0.000111737
1.94658e-07
0.000107038
2.66596e-06
0.000100327
5.48351e-06
9.37104e-05
8.6419e-06
8.55796e-05
1.20622e-05
7.71715e-05
1.58938e-05
6.79106e-05
2.01652e-05
5.82704e-05
2.51378e-05
4.82631e-05
3.075e-05
3.83722e-05
3.72436e-05
2.82345e-05
4.47438e-05
1.81615e-05
5.31291e-05
9.39884e-06
6.22373e-05
-2.85051e-07
-8.71142e-06
7.22038e-05
-1.73756e-06
0.00013107
-3.39692e-06
0.000130538
-4.90134e-06
0.000129698
-6.18344e-06
0.000128278
-7.18293e-06
0.000126202
-7.82443e-06
0.000123772
-8.12737e-06
0.00012022
-7.9557e-06
0.000116543
-7.3684e-06
0.000111148
-6.26261e-06
0.00010593
-4.73897e-06
9.88016e-05
-2.76114e-06
9.17308e-05
-2.34181e-07
8.30508e-05
2.66516e-06
7.42704e-05
6.19905e-06
6.43749e-05
1.02327e-05
5.4235e-05
1.5054e-05
4.34399e-05
2.06675e-05
3.27568e-05
2.7219e-05
2.16812e-05
3.48762e-05
1.05025e-05
4.35675e-05
7.05708e-07
5.33326e-05
-1.00519e-05
-1.9423e-05
6.40424e-05
-2.32171e-06
0.00013339
-4.59211e-06
0.000132807
-6.69451e-06
0.000131799
-8.60528e-06
0.000130187
-1.02757e-05
0.000127871
-1.16053e-05
0.0001251
-1.26323e-05
0.000121246
-1.32143e-05
0.000117123
-1.34598e-05
0.000111392
-1.31758e-05
0.000105644
-1.24973e-05
9.81213e-05
-1.13379e-05
9.05697e-05
-9.65129e-06
8.13625e-05
-7.50317e-06
7.21205e-05
-4.52592e-06
6.13959e-05
-9.38562e-07
5.06459e-05
3.62542e-06
3.88742e-05
9.18022e-06
2.72003e-05
1.57918e-05
1.50679e-05
2.36698e-05
2.62278e-06
3.29226e-05
-8.54875e-06
4.37298e-05
-2.08608e-05
-3.15789e-05
5.58841e-05
-3.03093e-06
0.000136419
-6.04046e-06
0.000135815
-8.87999e-06
0.000134637
-1.15571e-05
0.000132863
-1.40141e-05
0.000130326
-1.61516e-05
0.000127236
-1.80146e-05
0.000123107
-1.9455e-05
0.000118562
-2.06214e-05
0.000112557
-2.1306e-05
0.000106327
-2.15928e-05
9.84064e-05
-2.13345e-05
9.03098e-05
-2.04777e-05
8.05041e-05
-1.90045e-05
7.06457e-05
-1.67482e-05
5.9138e-05
-1.38624e-05
4.77585e-05
-9.83928e-06
3.48496e-05
-4.80238e-06
2.21618e-05
1.45515e-06
8.80873e-06
9.01768e-06
-4.94141e-06
1.80262e-05
-1.75589e-05
2.8878e-05
-3.17145e-05
-4.39574e-05
4.12547e-05
-3.86858e-06
0.000140286
-7.72744e-06
0.000139672
-1.14181e-05
0.000138326
-1.49663e-05
0.00013641
-1.83149e-05
0.000133673
-2.13914e-05
0.000130311
-2.42399e-05
0.000125954
-2.67117e-05
0.000121032
-2.89287e-05
0.000114772
-3.06868e-05
0.000108084
-3.20592e-05
9.97774e-05
-3.29428e-05
9.11919e-05
-3.3373e-05
8.09328e-05
-3.31918e-05
7.04631e-05
-3.22465e-05
5.81912e-05
-3.04679e-05
4.59783e-05
-2.76586e-05
3.20386e-05
-2.3702e-05
1.82036e-05
-1.81186e-05
3.22371e-06
-1.09931e-05
-1.20686e-05
-2.08751e-06
-2.64661e-05
8.87244e-06
-4.26761e-05
-5.64683e-05
2.13816e-05
-4.84693e-06
0.000145132
-9.68786e-06
0.000144512
-1.43899e-05
0.000143027
-1.89661e-05
0.000140985
-2.33494e-05
0.000138055
-2.74878e-05
0.000134448
-3.14074e-05
0.000129872
-3.49936e-05
0.000124617
-3.83357e-05
0.000118113
-4.1275e-05
0.000111022
-4.38976e-05
0.000102399
-4.6037e-05
9.33299e-05
-4.76498e-05
8.25441e-05
-4.85853e-05
7.13971e-05
-4.89114e-05
5.85158e-05
-4.83505e-05
4.54159e-05
-4.67323e-05
3.04188e-05
-4.37744e-05
1.52442e-05
-3.94626e-05
-1.08967e-06
-3.40532e-05
-1.74795e-05
-2.6746e-05
-3.37749e-05
-1.77465e-05
-5.16771e-05
-6.70962e-05
-7.12005e-06
-5.88282e-06
0.000151013
-1.17538e-05
0.000150382
-1.75347e-05
0.000148806
-2.32283e-05
0.000146677
-2.87826e-05
0.000143608
-3.4168e-05
0.000139832
-3.93776e-05
0.00013508
-4.43257e-05
0.000129564
-4.90564e-05
0.000122842
-5.34451e-05
0.000115409
-5.75471e-05
0.000106499
-6.12323e-05
9.70138e-05
-6.45315e-05
8.5842e-05
-6.71838e-05
7.40479e-05
-6.90874e-05
6.0418e-05
-6.98034e-05
4.61305e-05
-6.96855e-05
3.02993e-05
-6.85756e-05
1.41331e-05
-6.70078e-05
-2.65888e-06
-6.38269e-05
-2.06616e-05
-5.80946e-05
-3.95084e-05
-5.06251e-05
-5.9148e-05
-7.72373e-05
-4.04852e-05
-7.03906e-06
0.000158051
-1.40546e-05
0.000157396
-2.10133e-05
0.000155764
-2.78862e-05
0.000153549
-3.46313e-05
0.000150352
-4.12291e-05
0.000146429
-4.76551e-05
0.000141505
-5.38638e-05
0.000135771
-5.98775e-05
0.000128855
-6.55923e-05
0.000121123
-7.10339e-05
0.00011194
-7.60151e-05
0.000101994
-8.05745e-05
9.04001e-05
-8.45189e-05
7.79909e-05
-8.79275e-05
6.38252e-05
-9.07629e-05
4.89646e-05
-9.36031e-05
3.31384e-05
-9.65791e-05
1.7108e-05
-9.72832e-05
-1.95599e-06
-9.42417e-05
-2.37044e-05
-8.83669e-05
-4.53845e-05
-7.99e-05
-6.76162e-05
-8.90749e-05
-6.80639e-05
-8.15478e-06
0.000166205
-1.63025e-05
0.000165543
-2.44612e-05
0.000163922
-3.25976e-05
0.000161684
-4.0691e-05
0.000158444
-4.87147e-05
0.000154451
-5.66205e-05
0.00014941
-6.43578e-05
0.000143508
-7.19129e-05
0.000136409
-7.92179e-05
0.000128427
-8.6301e-05
0.000119022
-9.30806e-05
0.000108772
-9.94441e-05
9.67624e-05
-0.000105256
8.38014e-05
-0.000110992
6.95608e-05
-0.000117269
5.52402e-05
-0.000123513
3.93815e-05
-0.000125615
1.92092e-05
-0.000123295
-4.27775e-06
-0.000118369
-2.86314e-05
-0.00011063
-5.31249e-05
-0.000100204
-7.80434e-05
-0.000102867
-8.6413e-05
-9.32164e-06
0.000175526
-1.86175e-05
0.000174838
-2.79109e-05
0.000173214
-3.71604e-05
0.000170933
-4.63611e-05
0.000167644
-5.54957e-05
0.000163585
-6.45307e-05
0.000158444
-7.34402e-05
0.000152416
-8.21816e-05
0.000145149
-9.06905e-05
0.000136935
-9.89513e-05
0.000127281
-0.000106953
0.000116773
-0.000115122
0.00010493
-0.000123939
9.26181e-05
-0.000134035
7.96559e-05
-0.000143655
6.48602e-05
-0.000147545
4.327e-05
-0.000145462
1.7125e-05
-0.000141212
-8.52805e-06
-0.000134916
-3.49288e-05
-0.000125479
-6.25633e-05
-0.000113036
-9.04876e-05
-0.000118286
-9.76179e-05
-1.05235e-05
0.000186049
-2.10542e-05
0.000185368
-3.16324e-05
0.000183792
-4.22255e-05
0.000181525
-5.28253e-05
0.000178243
-6.33945e-05
0.000174154
-7.3896e-05
0.000168945
-8.43136e-05
0.000162833
-9.46665e-05
0.000155501
-0.000104987
0.000147254
-0.000115406
0.0001377
-0.000125928
0.000127295
-0.000136603
0.000115604
-0.000147849
0.000103864
-0.000158579
9.03847e-05
-0.000163057
6.93378e-05
-0.000161182
4.13935e-05
-0.000158236
1.41782e-05
-0.000153059
-1.37052e-05
-0.000144429
-4.35606e-05
-0.000133068
-7.39255e-05
-0.000119232
-0.000104324
-0.000133798
-0.000103722
-1.14101e-05
0.000197458
-2.28461e-05
0.000196803
-3.43311e-05
0.000195276
-4.58219e-05
0.000193016
-5.73233e-05
0.000189744
-6.88107e-05
0.00018564
-8.02499e-05
0.000180383
-9.16275e-05
0.00017421
-0.000102949
0.000166822
-0.000114373
0.000158678
-0.000126245
0.000149571
-0.000139306
0.000140356
-0.000153981
0.000130279
-0.000167795
0.000117678
-0.00017406
9.66489e-05
-0.000172539
6.7816e-05
-0.000170332
3.91855e-05
-0.00016619
1.00351e-05
-0.000158066
-2.18301e-05
-0.00014755
-5.40775e-05
-0.000135295
-8.6181e-05
-0.000121996
-0.000117625
-0.000148142
-0.000107654
-1.29396e-05
0.000210397
-2.58344e-05
0.000209698
-3.87453e-05
0.000208187
-5.16732e-05
0.000205943
-6.46055e-05
0.000202676
-7.7551e-05
0.000198585
-9.05148e-05
0.000193347
-0.000103518
0.000187213
-0.000116602
0.000179906
-0.00012991
0.000171986
-0.000143804
0.000163464
-0.000158395
0.000154946
-0.000173182
0.000145066
-0.000182164
0.00012666
-0.000181882
9.63661e-05
-0.000179206
6.51388e-05
-0.000175288
3.52673e-05
-0.000167533
2.27986e-06
-0.00015791
-3.14546e-05
-0.000147107
-6.48812e-05
-0.000135421
-9.7868e-05
-0.000122977
-0.00013007
-0.000161454
-0.000109666
-1.33087e-05
0.000223706
-2.66464e-05
0.000223035
-4.00769e-05
0.000221617
-5.36337e-05
0.0002195
-6.72772e-05
0.000216319
-8.09723e-05
0.00021228
-9.47752e-05
0.000207149
-0.000108816
0.000201253
-0.000123352
0.000194441
-0.000138747
0.000187381
-0.000155108
0.000179825
-0.000171769
0.000171607
-0.000183549
0.000156846
-0.00018503
0.00012814
-0.000182602
9.39377e-05
-0.000179839
6.23755e-05
-0.000173421
2.88489e-05
-0.000164673
-6.46898e-06
-0.000155112
-4.10159e-05
-0.000144636
-7.53589e-05
-0.000133454
-0.000109051
-0.000121579
-0.000141946
-0.000173798
-0.000109237
-1.50785e-05
0.000238784
-3.01901e-05
0.000238147
-4.52496e-05
0.000236676
-6.02134e-05
0.000234463
-7.51662e-05
0.000231272
-9.01838e-05
0.000227298
-0.000105285
0.00022225
-0.000120711
0.000216679
-0.000136844
0.000210575
-0.00015413
0.000204666
-0.000171835
0.000197531
-0.00018629
0.000186062
-0.000190786
0.000161342
-0.000187813
0.000125167
-0.000184069
9.01927e-05
-0.000177988
5.62942e-05
-0.000169345
2.02062e-05
-0.000160116
-1.56991e-05
-0.000150182
-5.09503e-05
-0.000139774
-8.57684e-05
-0.00012903
-0.000119795
-0.000117876
-0.000153101
-0.000185192
-0.000106483
-1.50383e-05
0.000253823
-3.01471e-05
0.000253256
-4.53536e-05
0.000251883
-6.06605e-05
0.00024977
-7.61708e-05
0.000246782
-9.19315e-05
0.000243059
-0.000107953
0.000238272
-0.000124396
0.000233122
-0.000141679
0.000227858
-0.000159704
0.000222691
-0.000177247
0.000215074
-0.000187954
0.000196769
-0.000187524
0.000160911
-0.000183999
0.000121641
-0.000179588
8.57822e-05
-0.000171645
4.83503e-05
-0.000162781
1.13423e-05
-0.000153437
-2.5044e-05
-0.000143732
-6.06558e-05
-0.000133843
-9.56579e-05
-0.000123754
-0.000129885
-0.000113528
-0.000163329
-0.000195727
-0.000102993
-1.66623e-05
0.000270485
-3.3454e-05
0.000270047
-5.04609e-05
0.00026889
-6.76811e-05
0.000266991
-8.49964e-05
0.000264098
-0.00010236
0.000260422
-0.000120006
0.000255918
-0.000138217
0.000251334
-0.000156839
0.00024648
-0.000174703
0.000240556
-0.000188051
0.000228422
-0.000191164
0.000199882
-0.000187374
0.000157121
-0.000181762
0.000116029
-0.000173975
7.79949e-05
-0.000164769
3.91437e-05