/*--------------------------------*- C++ -*----------------------------------*\
| =========                 |                                                 |
| \\      /  F ield         | OpenFOAM: The Open Source CFD Toolbox           |
|  \\    /   O peration     | Version:  2012                                  |
|   \\  /    A nd           | Website:  www.openfoam.com                      |
|    \\/     M anipulation  |                                                 |
\*---------------------------------------------------------------------------*/
FoamFile
{
    version     2.0;
    format      ascii;
    class       volScalarField;
    location    "0.75";
    object      rho2;
}
// * * * * * * * * * * * * * * * * * * * * * * * * * * * * * * * * * * * * * //

dimensions      [1 -3 0 0 0 0 0];


internalField   nonuniform List<scalar> 
2268
(
1.30053
1.30058
1.30068
1.30082
1.301
1.30122
1.30145
1.30171
1.30196
1.30225
1.30247
1.3028
1.30298
1.30331
1.30347
1.30375
1.30386
1.30403
1.30403
1.30406
1.30394
1.30386
1.30368
1.29976
1.29981
1.29991
1.30006
1.30024
1.30046
1.30069
1.30096
1.3012
1.3015
1.30172
1.30205
1.30224
1.30256
1.30273
1.30301
1.30312
1.30329
1.30331
1.30332
1.30322
1.30312
1.30299
1.29898
1.29903
1.29914
1.29929
1.29947
1.2997
1.29993
1.3002
1.30045
1.30075
1.30097
1.3013
1.30149
1.30181
1.30198
1.30226
1.30238
1.30255
1.30255
1.30256
1.30241
1.30228
1.30202
1.29819
1.29824
1.29835
1.2985
1.29869
1.29892
1.29916
1.29944
1.29969
1.29999
1.30022
1.30054
1.30075
1.30108
1.30126
1.30155
1.30169
1.30185
1.30188
1.30186
1.30176
1.30159
1.30144
1.29738
1.29743
1.29755
1.29771
1.29791
1.29814
1.29839
1.29868
1.29893
1.29924
1.29947
1.29979
1.3
1.30033
1.30051
1.30081
1.30094
1.30112
1.30111
1.30108
1.30089
1.30062
1.30022
1.29657
1.29663
1.29674
1.29691
1.29711
1.29735
1.29761
1.2979
1.29817
1.29848
1.29873
1.29905
1.29927
1.2996
1.29982
1.30012
1.3003
1.30046
1.3005
1.30043
1.30031
1.29996
1.2997
1.29573
1.2958
1.29592
1.29609
1.29631
1.29657
1.29684
1.29714
1.29742
1.29773
1.29798
1.2983
1.29851
1.29885
1.29906
1.2994
1.29954
1.29975
1.29972
1.29966
1.29938
1.29877
1.2981
1.29493
1.295
1.29512
1.2953
1.29552
1.29578
1.29606
1.29637
1.29666
1.29698
1.29724
1.29755
1.29779
1.29813
1.29839
1.29874
1.29897
1.29913
1.29919
1.29904
1.2989
1.29805
1.29761
1.31219
1.30366
1.29978
1.2981
1.29991
1.30426
1.30538
1.30325
1.30104
1.29961
1.29894
1.29846
1.29815
1.29804
1.29778
1.29854
1.29955
1.30881
1.31361
1.31073
1.30212
1.29863
1.29733
1.29894
1.30434
1.30472
1.30266
1.30019
1.29903
1.2982
1.29779
1.29751
1.29745
1.29726
1.29768
1.29844
1.3072
1.31037
1.30579
1.29955
1.29693
1.29608
1.29792
1.3034
1.30491
1.30272
1.29955
1.29798
1.29758
1.29723
1.29709
1.29729
1.29722
1.29763
1.29768
1.30579
1.30853
1.30293
1.29777
1.29553
1.2955
1.29697
1.30248
1.30364
1.30175
1.29946
1.29845
1.29758
1.29724
1.297
1.2972
1.29706
1.2973
1.29717
1.30481
1.30722
1.30004
1.29591
1.29536
1.29524
1.29626
1.30076
1.30227
1.30124
1.29918
1.29791
1.29758
1.29728
1.29714
1.29722
1.29704
1.29726
1.29733
1.30191
1.30595
1.29862
1.2954
1.29545
1.29544
1.2953
1.29956
1.2999
1.29891
1.29778
1.29759
1.29749
1.29746
1.29735
1.29739
1.29721
1.29747
1.29715
1.30338
1.30543
1.29682
1.29541
1.29561
1.29541
1.2954
1.29778
1.29801
1.29691
1.29638
1.29636
1.29661
1.29676
1.29704
1.2977
1.29812
1.29795
1.29863
1.30373
1.30518
1.29628
1.29522
1.29566
1.29505
1.29513
1.29621
1.29569
1.29482
1.29462
1.29497
1.29537
1.29583
1.29666
1.2978
1.29942
1.29939
1.30093
1.30502
1.30582
1.29388
1.29393
1.29403
1.29417
1.29437
1.29461
1.29489
1.29521
1.29551
1.29583
1.29609
1.29639
1.29661
1.29694
1.2972
1.29762
1.29777
1.29809
1.29793
1.29797
1.29731
1.29633
1.29429
1.29337
1.29338
1.29339
1.29342
1.29348
1.29357
1.2937
1.2939
1.29413
1.2944
1.29463
1.29487
1.29513
1.29546
1.29587
1.29633
1.29687
1.29691
1.29707
1.29668
1.29659
1.29486
1.29409
1.29334
1.29334
1.29334
1.29333
1.29333
1.29336
1.29337
1.2934
1.29346
1.29356
1.29368
1.29378
1.29388
1.29402
1.29444
1.29492
1.29528
1.29587
1.2956
1.29596
1.29523
1.29509
1.29373
1.29329
1.2933
1.2933
1.29329
1.2933
1.29333
1.29334
1.29335
1.29335
1.29335
1.29337
1.29337
1.29342
1.29356
1.29377
1.29481
1.29584
1.29554
1.29538
1.2951
1.29531
1.29514
1.29497
1.29326
1.29327
1.29327
1.29327
1.29328
1.2933
1.29332
1.29332
1.29333
1.29333
1.29333
1.29328
1.29324
1.29321
1.29357
1.2937
1.29401
1.29418
1.29393
1.29414
1.29414
1.29439
1.29403
1.29325
1.29325
1.29325
1.29325
1.29326
1.29327
1.29329
1.2933
1.2933
1.29329
1.29323
1.29315
1.29312
1.29306
1.29309
1.29373
1.29387
1.2937
1.2933
1.29379
1.29392
1.294
1.2942
1.29324
1.29324
1.29324
1.29325
1.29325
1.29325
1.29327
1.29328
1.29328
1.29325
1.29319
1.29313
1.29309
1.29307
1.29305
1.29311
1.29332
1.29311
1.29367
1.29368
1.29376
1.29374
1.29377
1.29324
1.29324
1.29324
1.29324
1.29324
1.29324
1.29325
1.29326
1.29326
1.29325
1.29318
1.29312
1.2931
1.29309
1.29311
1.29309
1.29321
1.29234
1.29298
1.29338
1.29346
1.29347
1.29366
1.29324
1.29324
1.29324
1.29324
1.29324
1.29324
1.29324
1.29325
1.29325
1.29324
1.29319
1.29314
1.29311
1.29311
1.29314
1.29314
1.29315
1.29308
1.29248
1.29306
1.29303
1.29314
1.29346
1.29323
1.29323
1.29323
1.29323
1.29323
1.29323
1.29323
1.29324
1.29324
1.29324
1.29322
1.29317
1.29314
1.29313
1.29314
1.29317
1.29318
1.29315
1.29309
1.29332
1.2934
1.2931
1.29364
1.29323
1.29323
1.29323
1.29323
1.29323
1.29323
1.29323
1.29323
1.29323
1.29323
1.29323
1.29321
1.29319
1.29317
1.29317
1.29318
1.2932
1.2932
1.29316
1.29312
1.29309
1.29333
1.29351
1.29323
1.29323
1.29323
1.29323
1.29323
1.29323
1.29323
1.29323
1.29322
1.29322
1.29322
1.29322
1.29321
1.2932
1.2932
1.2932
1.2932
1.29321
1.2932
1.29318
1.29316
1.29315
1.29313
1.29323
1.29323
1.29323
1.29322
1.29322
1.29322
1.29322
1.29322
1.29322
1.29322
1.29322
1.29322
1.29321
1.29321
1.29321
1.29321
1.29321
1.29321
1.29321
1.2932
1.29319
1.29317
1.29317
1.29322
1.29322
1.29322
1.29322
1.29322
1.29322
1.29322
1.29322
1.29322
1.29322
1.29322
1.29321
1.29321
1.29321
1.29321
1.29321
1.29321
1.29321
1.29321
1.29321
1.29321
1.2932
1.29319
1.29322
1.29322
1.29322
1.29322
1.29322
1.29322
1.29322
1.29322
1.29322
1.29321
1.29321
1.29321
1.29321
1.29321
1.29321
1.29321
1.29321
1.29321
1.29321
1.29321
1.29321
1.29321
1.2932
1.29322
1.29322
1.29322
1.29322
1.29322
1.29322
1.29321
1.29321
1.29321
1.29321
1.29321
1.29321
1.29321
1.29321
1.29321
1.29321
1.29321
1.29321
1.29321
1.29321
1.29321
1.29321
1.29321
1.29321
1.29321
1.29321
1.29321
1.29321
1.29321
1.29321
1.29321
1.29321
1.29321
1.29321
1.29321
1.29321
1.29321
1.29321
1.29321
1.29321
1.29321
1.29321
1.29321
1.29321
1.29321
1.29321
1.29321
1.29321
1.29321
1.29321
1.29321
1.29321
1.29321
1.29321
1.29321
1.29321
1.29321
1.29321
1.29321
1.29321
1.29321
1.29321
1.29321
1.29321
1.29321
1.29321
1.29321
1.29321
1.29321
1.29321
1.29321
1.29321
1.29321
1.29321
1.29321
1.29321
1.29321
1.29321
1.29321
1.29321
1.29321
1.29321
1.29321
1.29321
1.29321
1.29321
1.29321
1.29321
1.29321
1.29321
1.29321
1.29321
1.2932
1.2932
1.2932
1.2932
1.2932
1.2932
1.2932
1.2932
1.2932
1.2932
1.2932
1.2932
1.2932
1.2932
1.2932
1.2932
1.2932
1.2932
1.2932
1.2932
1.2932
1.2932
1.29321
1.2932
1.2932
1.2932
1.2932
1.2932
1.2932
1.2932
1.2932
1.2932
1.2932
1.2932
1.2932
1.2932
1.2932
1.2932
1.2932
1.2932
1.2932
1.2932
1.2932
1.2932
1.2932
1.2932
1.29319
1.29319
1.29319
1.29319
1.29319
1.29319
1.29319
1.29319
1.29319
1.29319
1.29319
1.29319
1.29319
1.2932
1.2932
1.2932
1.2932
1.2932
1.2932
1.2932
1.2932
1.2932
1.2932
1.29318
1.29318
1.29318
1.29318
1.29318
1.29318
1.29318
1.29318
1.29318
1.29319
1.29319
1.29319
1.29319
1.29319
1.29319
1.29319
1.29319
1.29319
1.29318
1.29318
1.29318
1.29318
1.29317
1.29317
1.29317
1.29317
1.29317
1.29317
1.29317
1.29317
1.29317
1.29317
1.29317
1.29317
1.29317
1.29317
1.29317
1.29317
1.29317
1.29317
1.29316
1.29316
1.29315
1.29314
1.29314
1.29314
1.29315
1.29315
1.29315
1.29315
1.29315
1.29315
1.29315
1.29316
1.29316
1.29316
1.29315
1.29315
1.29315
1.29315
1.29314
1.29314
1.29313
1.29313
1.29313
1.29313
1.29313
1.29313
1.29313
1.29314
1.29314
1.29314
1.29314
1.29314
1.29314
1.29314
1.29314
1.29314
1.29313
1.29313
1.29313
1.29313
1.29312
1.29312
1.29312
1.29312
1.29312
1.29312
1.29313
1.29313
1.29314
1.29314
1.29312
1.29312
1.29312
1.29312
1.29312
1.29312
1.29312
1.29312
1.29312
1.29312
1.29312
1.29311
1.29311
1.29311
1.29311
1.29311
1.29312
1.29312
1.29313
1.29313
1.29314
1.29314
1.29313
1.29311
1.29311
1.29311
1.29311
1.29311
1.29311
1.29311
1.29311
1.29311
1.29311
1.29311
1.29311
1.29311
1.29311
1.29311
1.29312
1.29313
1.29313
1.29313
1.29313
1.29313
1.29312
1.29312
1.2931
1.2931
1.2931
1.2931
1.2931
1.2931
1.2931
1.2931
1.2931
1.2931
1.2931
1.2931
1.2931
1.29311
1.29312
1.29313
1.29313
1.29312
1.29312
1.29312
1.29311
1.2931
1.2931
1.29309
1.29309
1.29309
1.29309
1.29309
1.2931
1.2931
1.2931
1.2931
1.2931
1.2931
1.2931
1.29311
1.29312
1.29313
1.29312
1.29312
1.29311
1.29311
1.2931
1.2931
1.29309
1.29308
1.29309
1.29309
1.29309
1.29309
1.29309
1.29309
1.29309
1.29309
1.29309
1.29309
1.2931
1.29311
1.29312
1.29312
1.29312
1.29311
1.2931
1.2931
1.2931
1.29309
1.29309
1.29308
1.29308
1.29309
1.29309
1.29309
1.29309
1.29309
1.29309
1.29309
1.29309
1.29309
1.2931
1.2931
1.29311
1.29312
1.29311
1.2931
1.2931
1.2931
1.2931
1.29309
1.29308
1.29308
1.29307
1.29307
1.29308
1.29308
1.29308
1.29308
1.29308
1.29308
1.29308
1.29309
1.29309
1.2931
1.29311
1.29311
1.29311
1.29309
1.29309
1.29309
1.29309
1.29309
1.29308
1.29308
1.29307
1.29307
1.29307
1.29308
1.29308
1.29308
1.29308
1.29308
1.29308
1.29308
1.29309
1.29309
1.2931
1.29311
1.2931
1.29309
1.29308
1.29308
1.29308
1.29308
1.29308
1.29308
1.29307
1.29307
1.29307
1.29306
1.29308
1.29308
1.29308
1.29308
1.29308
1.29308
1.29308
1.29309
1.2931
1.2931
1.2931
1.29309
1.29308
1.29307
1.29308
1.29308
1.29308
1.29308
1.29308
1.29307
1.29307
1.29307
1.29306
1.29307
1.29307
1.29307
1.29308
1.29308
1.29308
1.29308
1.29309
1.2931
1.2931
1.29309
1.29307
1.29307
1.29307
1.29307
1.29307
1.29307
1.29307
1.29307
1.29307
1.29307
1.29306
1.29306
1.29307
1.29307
1.29307
1.29307
1.29308
1.29308
1.29309
1.29309
1.29309
1.29309
1.29307
1.29306
1.29306
1.29306
1.29306
1.29307
1.29307
1.29307
1.29307
1.29307
1.29307
1.29306
1.29306
1.29307
1.29307
1.29307
1.29307
1.29308
1.29308
1.29309
1.29309
1.29309
1.29308
1.29306
1.29305
1.29305
1.29305
1.29306
1.29306
1.29307
1.29307
1.29307
1.29307
1.29307
1.29306
1.29306
1.29307
1.29307
1.29307
1.29307
1.29308
1.29308
1.29308
1.29309
1.29308
1.29306
1.29304
1.29303
1.29304
1.29305
1.29305
1.29306
1.29306
1.29307
1.29307
1.29307
1.29307
1.29306
1.29306
1.29308
1.29308
1.29308
1.29308
1.29308
1.29308
1.29309
1.29308
1.29307
1.29304
1.29303
1.29302
1.29302
1.29304
1.29305
1.29306
1.29306
1.29307
1.29307
1.29307
1.29307
1.29306
1.29306
1.29307
1.29307
1.29307
1.29307
1.29308
1.29308
1.29308
1.29307
1.29305
1.29302
1.29301
1.293
1.29301
1.29303
1.29304
1.29305
1.29306
1.29307
1.29307
1.29307
1.29307
1.29306
1.29306
1.29309
1.29309
1.29309
1.29309
1.29309
1.29309
1.29309
1.29307
1.29303
1.293
1.29298
1.29297
1.29299
1.29302
1.29304
1.29305
1.29306
1.29306
1.29306
1.29306
1.29306
1.29305
1.29305
1.29354
1.29112
1.29303
1.28878
1.29315
1.29262
1.29138
1.29408
1.29395
1.29388
1.29449
1.29445
1.2951
1.29498
1.2951
1.29462
1.29415
1.29406
1.29419
1.29441
1.29427
1.29424
1.29409
1.29394
1.2938
1.29381
1.2938
1.29377
1.29383
1.29385
1.29386
1.29384
1.2937
1.2938
1.29383
1.29384
1.29379
1.29385
1.29383
1.29385
1.29335
1.2932
1.29315
1.29324
1.29312
1.29315
1.29331
1.29347
1.29318
1.29317
1.29317
1.29316
1.29319
1.29319
1.29319
1.29319
1.2932
1.2932
1.2932
1.2932
1.29321
1.29321
1.29321
1.29321
1.29321
1.29321
1.29321
1.29321
1.29321
1.29321
1.29321
1.29321
1.29321
1.29321
1.29321
1.29321
1.29321
1.29321
1.29321
1.29321
1.2932
1.2932
1.2932
1.2932
1.2932
1.2932
1.2932
1.2932
1.29317
1.29317
1.29317
1.29317
1.29314
1.29314
1.29314
1.29314
1.29314
1.29314
1.29314
1.29314
1.29314
1.29314
1.29314
1.29314
1.29313
1.29313
1.29313
1.29313
1.29311
1.29311
1.2931
1.2931
1.29309
1.29309
1.29309
1.29308
1.29308
1.29308
1.29308
1.29307
1.29307
1.29307
1.29307
1.29307
1.29307
1.29306
1.29306
1.29306
1.29306
1.29306
1.29306
1.29305
1.29306
1.29306
1.29305
1.29305
1.29306
1.29306
1.29305
1.29305
1.29306
1.29305
1.29305
1.29305
1.29306
1.29305
1.29305
1.29305
1.29305
1.29305
1.29305
1.29305
1.29306
1.29305
1.29305
1.29305
1.29305
1.29305
1.29305
1.29304
1.29305
1.29305
1.29305
1.29304
1.29304
1.29304
1.29304
1.29303
1.29506
1.29523
1.29553
1.295
1.29481
1.2947
1.2942
1.294
1.29401
1.29404
1.29421
1.29445
1.29496
1.29709
1.30149
1.30139
1.30237
1.30525
1.30478
1.2948
1.29531
1.29466
1.29458
1.29419
1.294
1.29401
1.29412
1.29408
1.29409
1.29418
1.29446
1.29562
1.29713
1.29883
1.2985
1.30088
1.30253
1.30255
1.29436
1.29458
1.29462
1.29409
1.29404
1.29411
1.29412
1.2942
1.29422
1.29412
1.29406
1.29397
1.29397
1.29575
1.30057
1.30274
1.30226
1.3016
1.30144
1.29565
1.29392
1.29431
1.29394
1.29407
1.29409
1.29409
1.29407
1.29401
1.29395
1.29375
1.29382
1.29426
1.29617
1.30209
1.303
1.3017
1.30028
1.30151
1.29442
1.29384
1.29356
1.29383
1.29401
1.29401
1.29391
1.29388
1.29402
1.29395
1.2938
1.29363
1.29359
1.29606
1.29935
1.30149
1.30042
1.29935
1.30142
1.29377
1.29364
1.29374
1.29376
1.29385
1.29372
1.29363
1.29374
1.29379
1.29393
1.29383
1.29368
1.29397
1.29605
1.29867
1.30061
1.30142
1.30038
1.30142
1.29375
1.29369
1.29374
1.29378
1.29374
1.29357
1.29346
1.29349
1.29368
1.29395
1.29379
1.29362
1.29392
1.29524
1.29664
1.29841
1.30009
1.30068
1.30044
1.2938
1.29377
1.29378
1.29372
1.29373
1.29375
1.2934
1.29364
1.29334
1.29385
1.2935
1.29349
1.29367
1.29375
1.29485
1.29641
1.29772
1.29931
1.29922
1.29385
1.29382
1.29382
1.29378
1.29381
1.29388
1.2935
1.29361
1.29298
1.29319
1.2924
1.29325
1.2932
1.29321
1.29342
1.29405
1.29558
1.29736
1.29762
1.29388
1.29388
1.29389
1.29386
1.2939
1.29373
1.29354
1.29357
1.29339
1.29342
1.29314
1.29316
1.29323
1.29324
1.29321
1.29321
1.29396
1.29554
1.29664
1.29348
1.29357
1.29364
1.2936
1.29342
1.29325
1.29339
1.29316
1.29305
1.29309
1.29321
1.29326
1.29327
1.29323
1.29317
1.29313
1.29325
1.29476
1.29588
1.29352
1.29352
1.29345
1.29341
1.29346
1.29325
1.29313
1.29308
1.29312
1.29321
1.29326
1.29326
1.29327
1.2932
1.29314
1.29311
1.29316
1.29339
1.29469
1.29315
1.29315
1.2932
1.2932
1.29316
1.29311
1.29305
1.29305
1.29313
1.29318
1.29322
1.29323
1.29324
1.29319
1.29316
1.29312
1.29304
1.2931
1.29342
1.2932
1.29319
1.29317
1.29314
1.29313
1.29308
1.29304
1.29304
1.29308
1.29311
1.29314
1.29316
1.29319
1.29319
1.29318
1.29315
1.29308
1.29299
1.29333
1.2932
1.2932
1.2932
1.29315
1.29313
1.29308
1.29303
1.29301
1.29302
1.29303
1.29309
1.29313
1.29316
1.29317
1.29318
1.29317
1.29311
1.29299
1.29345
1.29321
1.29321
1.2932
1.29316
1.29315
1.29313
1.29307
1.29302
1.29301
1.29302
1.29307
1.29312
1.29315
1.29316
1.29318
1.29318
1.29314
1.29303
1.2933
1.29321
1.29321
1.2932
1.29318
1.29316
1.29315
1.29313
1.29309
1.29307
1.2931
1.29314
1.29315
1.29316
1.29317
1.29318
1.29318
1.29318
1.29309
1.29318
1.29321
1.29321
1.29321
1.2932
1.29318
1.29316
1.29316
1.29315
1.29314
1.29314
1.29316
1.29316
1.29317
1.29317
1.29318
1.29318
1.29318
1.29311
1.29308
1.29321
1.29321
1.29321
1.2932
1.2932
1.29319
1.29317
1.29316
1.29316
1.29316
1.29317
1.29317
1.29318
1.29319
1.29319
1.29319
1.29319
1.29312
1.29301
1.29321
1.29321
1.29321
1.29321
1.2932
1.2932
1.2932
1.29319
1.29318
1.29318
1.29319
1.29319
1.29319
1.29319
1.2932
1.2932
1.2932
1.29313
1.29294
1.2932
1.2932
1.2932
1.2932
1.2932
1.2932
1.2932
1.2932
1.2932
1.2932
1.2932
1.2932
1.2932
1.2932
1.2932
1.2932
1.29321
1.29314
1.29287
1.2932
1.2932
1.2932
1.2932
1.2932
1.2932
1.2932
1.2932
1.2932
1.2932
1.2932
1.2932
1.2932
1.2932
1.29321
1.2932
1.29321
1.29315
1.29283
1.29317
1.29317
1.29317
1.29317
1.29318
1.29318
1.29318
1.29319
1.29319
1.2932
1.2932
1.2932
1.29321
1.2932
1.29321
1.2932
1.29321
1.29318
1.29285
1.29314
1.29315
1.29315
1.29315
1.29315
1.29315
1.29316
1.29316
1.29317
1.29317
1.29319
1.2932
1.2932
1.2932
1.29321
1.2932
1.29321
1.29318
1.29294
1.29314
1.29314
1.29314
1.29314
1.29314
1.29314
1.29314
1.29314
1.29315
1.29315
1.29316
1.29318
1.29319
1.2932
1.29321
1.2932
1.29321
1.29318
1.29307
1.29314
1.29314
1.29314
1.29313
1.29313
1.29313
1.29314
1.29314
1.29314
1.29314
1.29315
1.29316
1.29317
1.29319
1.2932
1.2932
1.29321
1.29318
1.29322
1.29312
1.29311
1.29311
1.2931
1.2931
1.2931
1.29311
1.29312
1.29313
1.29314
1.29314
1.29315
1.29316
1.29317
1.29319
1.2932
1.2932
1.29318
1.29326
1.2931
1.29309
1.29308
1.29307
1.29307
1.29307
1.29307
1.29308
1.29309
1.29311
1.29314
1.29314
1.29315
1.29316
1.29318
1.29319
1.2932
1.29317
1.29324
1.29308
1.29307
1.29306
1.29306
1.29305
1.29305
1.29305
1.29305
1.29306
1.29308
1.29311
1.29313
1.29314
1.29315
1.29317
1.29318
1.2932
1.29318
1.29319
1.29307
1.29306
1.29305
1.29304
1.29303
1.29302
1.29302
1.29302
1.29303
1.29305
1.29307
1.2931
1.29313
1.29315
1.29316
1.29318
1.29319
1.29318
1.29318
1.29306
1.29305
1.29304
1.29303
1.29302
1.29301
1.293
1.293
1.293
1.29301
1.29304
1.29307
1.29311
1.29313
1.29315
1.29317
1.29319
1.29318
1.29317
1.29305
1.29304
1.29303
1.29302
1.29301
1.29299
1.29298
1.29298
1.29298
1.29299
1.29301
1.29304
1.29309
1.29312
1.29315
1.29316
1.29318
1.29318
1.29316
1.29305
1.29304
1.29303
1.29301
1.293
1.29298
1.29297
1.29296
1.29296
1.29297
1.29298
1.29301
1.29306
1.2931
1.29313
1.29315
1.29318
1.29317
1.29315
1.29305
1.29303
1.29302
1.29301
1.29299
1.29297
1.29296
1.29294
1.29294
1.29295
1.29296
1.29298
1.29303
1.29308
1.29312
1.29315
1.29317
1.29317
1.29314
1.29304
1.29303
1.29302
1.293
1.29298
1.29297
1.29295
1.29293
1.29293
1.29293
1.29294
1.29296
1.293
1.29306
1.29311
1.29314
1.29316
1.29316
1.29313
1.29304
1.29303
1.29302
1.293
1.29298
1.29296
1.29294
1.29292
1.29291
1.29291
1.29293
1.29295
1.29298
1.29304
1.29309
1.29313
1.29315
1.29315
1.29312
1.29304
1.29303
1.29301
1.29299
1.29297
1.29295
1.29293
1.29291
1.29289
1.29289
1.29291
1.29294
1.29298
1.29302
1.29308
1.29312
1.29315
1.29315
1.29311
1.29304
1.29303
1.29301
1.29299
1.29297
1.29295
1.29292
1.2929
1.29288
1.29288
1.2929
1.29294
1.29297
1.29302
1.29307
1.29311
1.29314
1.29314
1.2931
1.29304
1.29303
1.29301
1.29299
1.29297
1.29294
1.29292
1.29289
1.29287
1.29286
1.29288
1.29293
1.29297
1.29302
1.29306
1.2931
1.29313
1.29313
1.29309
1.29304
1.29302
1.29301
1.29298
1.29296
1.29294
1.29291
1.29288
1.29286
1.29285
1.29287
1.29293
1.29298
1.29302
1.29306
1.2931
1.29313
1.29313
1.29308
1.29304
1.29302
1.29301
1.29299
1.29296
1.29294
1.29291
1.29288
1.29286
1.29284
1.29285
1.29292
1.29299
1.29303
1.29306
1.29309
1.29312
1.29312
1.29307
1.29303
1.29301
1.293
1.29297
1.29295
1.29292
1.2929
1.29287
1.29285
1.29284
1.29285
1.29291
1.29299
1.29303
1.29306
1.2931
1.29312
1.29313
1.29308
)
;

boundaryField
{
    leftWall
    {
        type            calculated;
        value           nonuniform List<scalar> 
50
(
1.30053
1.29976
1.29898
1.29819
1.29738
1.29657
1.29573
1.29493
1.29388
1.29337
1.29334
1.29329
1.29326
1.29325
1.29324
1.29324
1.29324
1.29323
1.29323
1.29323
1.29323
1.29322
1.29322
1.29322
1.29321
1.29321
1.29321
1.2932
1.2932
1.29319
1.29318
1.29317
1.29315
1.29314
1.29312
1.29311
1.2931
1.29309
1.29309
1.29309
1.29308
1.29308
1.29308
1.29307
1.29307
1.29307
1.29307
1.29308
1.29307
1.29309
)
;
    }
    rightWall
    {
        type            calculated;
        value           nonuniform List<scalar> 
50
(
1.31361
1.31037
1.30853
1.30722
1.30595
1.30543
1.30518
1.30582
1.30478
1.30255
1.30144
1.30151
1.30142
1.30142
1.30044
1.29922
1.29762
1.29664
1.29588
1.29469
1.29342
1.29333
1.29345
1.2933
1.29318
1.29308
1.29301
1.29294
1.29287
1.29283
1.29285
1.29294
1.29307
1.29322
1.29326
1.29324
1.29319
1.29318
1.29317
1.29316
1.29315
1.29314
1.29313
1.29312
1.29311
1.2931
1.29309
1.29308
1.29307
1.29308
)
;
    }
    lowerWall
    {
        type            calculated;
        value           nonuniform List<scalar> 
62
(
1.3009
1.30095
1.30105
1.3012
1.30138
1.3016
1.30183
1.30209
1.30233
1.30263
1.30285
1.30317
1.30336
1.30368
1.30385
1.30412
1.30423
1.3044
1.30441
1.30443
1.30432
1.30424
1.30406
1.30368
1.30299
1.30202
1.30144
1.30022
1.2997
1.2981
1.29761
1.29419
1.29175
1.29364
1.28939
1.31219
1.31073
1.30579
1.30293
1.30004
1.29862
1.29682
1.29628
1.31253
1.304
1.30013
1.29844
1.30025
1.3046
1.30572
1.30358
1.30133
1.2999
1.29925
1.29878
1.29846
1.29835
1.29809
1.29885
1.29985
1.30912
1.31392
)
;
    }
    atmosphere
    {
        type            calculated;
        value           nonuniform List<scalar> 
46
(
1.29318
1.29318
1.29318
1.29318
1.29318
1.29318
1.29317
1.29316
1.29312
1.29309
1.29307
1.29307
1.29308
1.29311
1.29313
1.29314
1.29315
1.29316
1.29316
1.29316
1.29315
1.29315
1.29314
1.29314
1.29314
1.29313
1.29313
1.29312
1.29311
1.29309
1.29307
1.29305
1.29302
1.293
1.29297
1.29295
1.29294
1.29295
1.29301
1.29309
1.29313
1.29316
1.29319
1.29321
1.29321
1.29317
)
;
    }
    defaultFaces
    {
        type            empty;
    }
}


// ************************************************************************* //
