/*--------------------------------*- C++ -*----------------------------------*\
| =========                 |                                                 |
| \\      /  F ield         | OpenFOAM: The Open Source CFD Toolbox           |
|  \\    /   O peration     | Version:  2012                                  |
|   \\  /    A nd           | Website:  www.openfoam.com                      |
|    \\/     M anipulation  |                                                 |
\*---------------------------------------------------------------------------*/
FoamFile
{
    version     2.0;
    format      ascii;
    class       volScalarField;
    location    "0.75";
    object      rhogh;
}
// * * * * * * * * * * * * * * * * * * * * * * * * * * * * * * * * * * * * * //

dimensions      [1 -1 -2 0 0 0 0];


internalField   nonuniform List<scalar> 
2268
(
-29.4294
-29.4294
-29.4294
-29.4294
-29.4294
-29.4294
-29.4294
-29.4294
-29.4294
-29.4294
-29.4294
-29.4294
-29.4294
-29.4294
-29.4294
-29.4294
-29.4294
-29.4294
-29.4294
-29.4294
-29.4294
-29.4287
-29.4227
-88.2881
-88.2881
-88.2881
-88.2881
-88.2881
-88.2881
-88.2881
-88.2881
-88.2881
-88.2881
-88.2881
-88.2881
-88.2881
-88.2881
-88.2881
-88.2881
-88.2881
-88.2881
-88.2881
-88.2881
-88.2881
-88.2818
-88.2626
-147.147
-147.147
-147.147
-147.147
-147.147
-147.147
-147.147
-147.147
-147.147
-147.147
-147.147
-147.147
-147.147
-147.147
-147.147
-147.147
-147.147
-147.147
-147.147
-147.147
-147.147
-147.14
-147.104
-206.006
-206.006
-206.006
-206.006
-206.006
-206.006
-206.006
-206.006
-206.006
-206.006
-206.006
-206.006
-206.006
-206.006
-206.006
-206.006
-206.006
-206.006
-206.006
-206.006
-206.006
-206.003
-205.954
-264.864
-264.864
-264.864
-264.864
-264.864
-264.864
-264.864
-264.864
-264.864
-264.864
-264.864
-264.864
-264.864
-264.864
-264.864
-264.864
-264.864
-264.864
-264.864
-264.864
-264.864
-264.864
-264.864
-323.723
-323.723
-323.723
-323.723
-323.723
-323.723
-323.723
-323.723
-323.723
-323.723
-323.723
-323.723
-323.723
-323.723
-323.723
-323.723
-323.723
-323.723
-323.723
-323.723
-323.723
-323.723
-323.723
-382.582
-382.582
-382.582
-382.582
-382.582
-382.582
-382.582
-382.582
-382.582
-382.582
-382.582
-382.582
-382.582
-382.582
-382.582
-382.582
-382.582
-382.582
-382.582
-382.581
-382.578
-382.582
-382.582
-441.44
-441.44
-441.44
-441.44
-441.44
-441.44
-441.44
-441.44
-441.44
-441.44
-441.44
-441.44
-441.44
-441.44
-441.44
-441.44
-441.44
-441.44
-441.44
-441.44
-441.377
-440.752
-441.44
-26.0379
-27.0318
-27.0301
-27.0266
-27.0265
-27.0264
-27.0252
-26.0817
-22.7021
-22.7225
-24.6129
-24.6129
-24.6129
-24.6129
-24.6108
-24.2914
-24.2137
-24.2492
-24.2492
-75.2146
-81.0924
-81.0953
-80.9632
-80.9727
-79.8541
-75.3563
-74.7493
-68.1059
-70.148
-71.9046
-71.1041
-65.1459
-52.7212
-42.995
-36.9457
-35.305
-58.3383
-72.2241
-102.178
-135.163
-123.659
-92.8248
-90.7421
-130.67
-101.961
-38.5387
-38.5401
-45.2456
-42.5782
-38.5637
-32.7811
-18.277
-10.3302
-7.25296
-10.7454
-63.854
-77.3873
-139.504
-175.096
-69.7786
-21.0336
-53.6108
-183.369
-205.059
-153.569
-83.4724
-23.3552
-0.120979
-0.120979
-0.268313
-0.328948
-0.140034
-0.120977
-16.3974
-151.812
-145.425
-179.396
-179.597
-1.14662e-16
-0.677239
-65.9013
-228.601
-263.647
-264.159
-236.253
-172.998
-81.3959
-27.7147
-0.155542
-0.155542
-0.155542
-0.155542
-9.14231
-206.916
-247.879
-237.604
-196.301
3.98193e-18
1.60107e-19
-174.214
-310.665
-322.873
-322.873
-322.873
-320.892
-299.117
-252.014
-195.812
-130.525
-69.6168
-16.616
-30.8269
-244.899
-320.919
-302.397
-149.381
2.4594e-18
3.27469e-17
-236.748
-374.402
-374.401
-358.26
-381.577
-381.577
-381.577
-381.387
-379.711
-372.274
-346.128
-248.313
-285.925
-368.348
-379.267
-348.919
-32.1805
-2.41929e-20
-44.5874
-294.914
-415.642
-314.791
-201.591
-277.695
-365.619
-417.686
-440.146
-440.136
-440.146
-440.136
-439.541
-437.078
-437.616
-437.617
-313.201
-331.106
-364.242
-403.911
-444.401
-483.544
-518.381
-533.467
-533.467
-533.467
-533.467
-533.467
-533.467
-533.467
-533.467
-533.467
-533.467
-533.467
-533.467
-533.467
-533.116
-501.433
-419.813
-10.1141
-13.8995
-25.1783
-51.0619
-95.515
-160.679
-248.058
-370.156
-484.617
-560.696
-605.55
-635.833
-652.768
-658.662
-658.551
-658.648
-658.47
-658.594
-658.644
-658.66
-657.234
-506.275
-201.383
-0.00394239
-0.00912396
-0.0403466
-0.221901
-0.923764
-3.23196
-10.1925
-29.9226
-83.1735
-167.551
-253.147
-324.384
-387.717
-480.957
-568.426
-649.586
-701.886
-742.785
-758.62
-778.709
-781.361
-601.897
-239.482
-2.86269e-09
-1.27601e-07
-4.44492e-06
-0.000102232
-0.0016348
-0.0178692
-0.138186
-0.80291
-3.48505
-11.6247
-24.7938
-31.7402
-31.9856
-44.0086
-104.983
-155.761
-189.443
-306.567
-520.217
-756.528
-880.048
-864.448
-522.968
-3.58659e-11
-1.62906e-09
-4.34287e-08
-9.09346e-07
-1.38275e-05
-0.000147289
-0.00112988
-0.00611516
-0.0212253
-0.0519714
-0.217517
-1.24171
-6.34902
-14.7392
-16.4812
-16.4821
-44.4283
-240.357
-596.69
-853.464
-955.521
-983.5
-981.109
-2.02727e-11
-7.63616e-10
-1.23577e-08
-8.7811e-08
-3.85997e-07
-5.55656e-06
-0.000122413
-0.000743498
-0.00109537
-0.00100122
-0.00242623
-0.0133504
-0.0362345
-0.043016
-1.22904
-98.6452
-501.593
-694.061
-695.088
-582.034
-511.099
-518.642
-497.419
-1.11402e-11
-3.84989e-10
-5.64052e-09
-4.1448e-08
-1.79115e-07
-1.32118e-06
-1.71058e-05
-4.41649e-05
-3.43572e-05
-1.4318e-06
-1.0908e-05
-4.31948e-05
-6.39897e-05
-0.000428884
-3.69837
-262.719
-747.406
-770.142
-379.983
-4.32132e-05
-4.32132e-05
-4.32132e-05
-4.32132e-05
-6.41103e-12
-2.08772e-10
-2.90517e-09
-2.13914e-08
-9.17616e-08
-3.9023e-07
-4.76212e-06
-2.60749e-05
-8.64642e-07
-8.63758e-07
-8.64642e-07
-5.4561e-06
-0.000229389
-0.00163029
-0.826961
-23.2603
-290.556
-625.175
-346.049
-0.18401
-3.47154
-1.83727
-1.54917
-3.52955e-12
-1.14339e-10
-1.60572e-09
-1.24144e-08
-5.63832e-08
-1.63214e-07
-5.55983e-07
-2.2426e-05
-0.000595392
-0.000790968
-9.40461e-07
-9.41423e-07
-0.000535325
-0.0119816
-0.0188002
-1.71373e-05
-1.71373e-05
-7.44955
-384.524
-594.6
-588.004
-295.986
-144.518
-1.60197e-12
-5.46769e-11
-8.3062e-10
-7.28781e-09
-3.97931e-08
-1.3389e-07
-2.58365e-07
-4.81769e-06
-0.000830139
-0.00215045
-0.00159874
-7.34276e-06
-0.000432274
-0.00528664
-0.00656285
-1.8535e-05
-0.000521052
-0.183631
-15.1763
-566.078
-1092.51
-1094.57
-894.178
-6.20411e-13
-2.29923e-11
-3.94227e-10
-4.11963e-09
-2.86543e-08
-1.29913e-07
-3.46614e-07
-2.36709e-06
-0.00038172
-0.0023127
-0.00255484
-0.00255393
-0.000470843
-0.000371872
-0.000463275
-0.0001598
-6.83636e-05
-6.83649e-05
-6.83628e-05
-6.83686e-05
-29.9482
-571.791
-1135.93
-2.07694e-13
-8.34779e-12
-1.61043e-10
-1.99874e-09
-1.77874e-08
-1.14027e-07
-4.75469e-07
-2.15042e-06
-5.3105e-05
-0.000535375
-0.00219714
-0.00202957
-0.000511334
-2.25224e-05
-6.02793e-06
-1.87861e-05
-6.1726e-06
-0.000150872
-0.000937463
-0.00189677
-0.000537625
-0.000537672
-0.000537625
-6.20645e-14
-2.66766e-12
-5.66941e-11
-8.07027e-10
-8.73403e-09
-7.73777e-08
-4.51262e-07
-2.04125e-06
-6.27875e-06
-1.56696e-05
-0.000158994
-0.00011012
-0.000186972
-3.59034e-05
-3.05465e-06
-3.05458e-06
-6.269e-06
-2.67773e-05
-0.000139456
-0.000725277
-0.00396142
-0.00907015
-0.00440573
-1.6728e-14
-7.50467e-13
-1.69697e-11
-2.63302e-10
-3.18146e-09
-3.19018e-08
-2.76614e-07
-1.43894e-06
-2.01274e-06
-9.97059e-07
-5.57024e-07
-3.74768e-07
-4.27129e-06
-9.7741e-06
-3.37302e-06
-5.12946e-06
-9.07303e-06
-8.18748e-06
-5.70131e-06
-1.26157e-06
-0.000781925
-0.0027345
-0.0072464
-4.18871e-15
-1.92599e-13
-4.52307e-12
-7.41187e-11
-9.59648e-10
-1.02727e-08
-9.15324e-08
-5.35601e-07
-8.38459e-07
-5.99639e-07
-2.50134e-07
-1.96906e-07
-4.63632e-07
-1.34569e-06
-2.03764e-06
-4.8338e-06
-7.05748e-06
-4.54096e-06
-1.96241e-06
-1.33467e-06
-1.3067e-05
-4.44265e-05
-0.000597263
-9.84403e-16
-4.57116e-14
-1.09251e-12
-1.84128e-11
-2.48164e-10
-2.78074e-09
-2.5316e-08
-1.53859e-07
-2.88517e-07
-2.73508e-07
-2.03644e-07
-1.81778e-07
-2.29216e-07
-4.31452e-07
-8.44352e-07
-2.41941e-06
-2.46511e-06
-1.96525e-06
-1.48405e-06
-1.35827e-06
-9.24146e-07
-9.2903e-07
-2.07352e-06
-2.21881e-16
-1.02962e-14
-2.46917e-13
-4.20247e-12
-5.78495e-11
-6.6984e-10
-6.20172e-09
-3.94357e-08
-8.43482e-08
-9.54585e-08
-9.25585e-08
-1.02734e-07
-1.0259e-07
-1.64081e-07
-3.11072e-07
-6.73144e-07
-7.53987e-07
-7.6109e-07
-8.11024e-07
-8.60264e-07
-6.94901e-07
-6.31681e-07
-6.30801e-07
-4.81912e-17
-2.22102e-15
-5.30026e-14
-8.99998e-13
-1.25027e-11
-1.47521e-10
-1.37978e-09
-9.10476e-09
-2.15296e-08
-2.74541e-08
-2.69022e-08
-3.17319e-08
-3.54531e-08
-5.46788e-08
-9.81849e-08
-1.80287e-07
-2.24592e-07
-2.54723e-07
-2.9102e-07
-3.25592e-07
-3.38039e-07
-3.67099e-07
-4.34916e-07
-1.01776e-17
-4.64136e-16
-1.09632e-14
-1.83803e-13
-2.54424e-12
-3.02448e-11
-2.82872e-10
-1.91233e-09
-4.86966e-09
-6.75323e-09
-6.84164e-09
-8.2691e-09
-9.90898e-09
-1.51773e-08
-2.61674e-08
-4.41547e-08
-5.78473e-08
-6.92903e-08
-8.07771e-08
-9.25916e-08
-1.01117e-07
-1.14294e-07
-1.37981e-07
-2.10147e-18
-9.46502e-17
-2.20739e-15
-3.63441e-14
-4.97187e-13
-5.90698e-12
-5.49069e-11
-3.71237e-10
-9.93213e-10
-1.46204e-09
-1.53956e-09
-1.88068e-09
-2.31688e-09
-3.51989e-09
-5.85957e-09
-9.36289e-09
-1.23508e-08
-1.50034e-08
-1.72944e-08
-1.95685e-08
-2.13711e-08
-2.3159e-08
-2.5708e-08
-4.25918e-19
-1.89448e-17
-4.3598e-16
-7.03552e-15
-9.46501e-14
-1.1136e-12
-1.02315e-11
-6.76329e-11
-1.85259e-10
-2.83825e-10
-3.08573e-10
-3.76283e-10
-4.62098e-10
-6.89192e-10
-1.10357e-09
-1.67606e-09
-2.14804e-09
-2.55034e-09
-2.79673e-09
-2.97222e-09
-3.06572e-09
-2.93183e-09
-2.76321e-09
-8.50075e-20
-3.73951e-18
-8.49571e-17
-1.34527e-15
-1.77679e-14
-2.05211e-13
-1.84248e-12
-1.16674e-11
-3.20359e-11
-5.00954e-11
-5.5624e-11
-6.68887e-11
-7.99642e-11
-1.1567e-10
-1.75804e-10
-2.50463e-10
-3.00537e-10
-3.32912e-10
-3.27372e-10
-2.90483e-10
-2.51879e-10
-1.88439e-10
-2.11624e-10
-1.68191e-20
-7.3317e-19
-1.64511e-17
-2.56211e-16
-3.31924e-15
-3.72846e-14
-3.22454e-13
-1.92121e-12
-5.19398e-12
-8.14294e-12
-9.10479e-12
-1.06633e-11
-1.21897e-11
-1.68175e-11
-2.37517e-11
-3.0963e-11
-3.32859e-11
-3.18825e-11
-2.49103e-11
-2.41186e-11
-4.31557e-11
-5.67947e-10
-2.98924e-09
-3.32539e-21
-1.43948e-19
-3.19351e-18
-4.90794e-17
-6.22948e-16
-6.73571e-15
-5.52113e-14
-3.04673e-13
-7.98335e-13
-1.23194e-12
-1.36744e-12
-1.53739e-12
-1.65659e-12
-2.14737e-12
-2.73596e-12
-3.11894e-12
-2.68309e-12
-2.26673e-12
-2.17774e-12
-1.96114e-10
-2.37935e-09
-1.74687e-08
-6.36966e-08
-6.62723e-22
-2.85325e-20
-6.26687e-19
-9.52809e-18
-1.18104e-16
-1.21542e-15
-9.29427e-15
-4.69562e-14
-1.17624e-13
-1.75719e-13
-1.90586e-13
-2.01149e-13
-1.94502e-13
-2.21478e-13
-2.58894e-13
-4.33634e-13
-3.56487e-12
-5.66143e-11
-8.56809e-10
-1.23054e-08
-6.78729e-08
-5.97458e-07
-1.98647e-06
-1.34901e-22
-5.76705e-21
-1.25654e-19
-1.892e-18
-2.27751e-17
-2.20484e-16
-1.55108e-15
-7.14765e-15
-1.65196e-14
-2.23712e-14
-2.26463e-14
-2.63122e-14
-7.48637e-14
-6.6345e-13
-7.73222e-12
-8.41102e-11
-8.23369e-10
-7.23361e-09
-7.4912e-08
-9.30737e-07
-9.26305e-06
-0.000131666
-0.000204619
-2.5903e-23
-1.19684e-21
-2.57237e-20
-3.76751e-19
-4.24038e-18
-3.65417e-17
-2.27402e-16
-9.71314e-16
-2.60231e-15
-1.04666e-14
-8.96698e-14
-1.02399e-12
-1.02572e-11
-8.01999e-11
-4.34829e-10
-8.07496e-10
-3.60334e-10
-3.60336e-10
-2.78226e-05
-0.000346332
-0.00103437
-0.00116353
-0.00116296
-7.29499e-24
-2.24293e-22
-5.0809e-21
-8.56722e-20
-1.32316e-18
-2.04993e-17
-3.15393e-16
-5.01314e-15
-7.83872e-14
-1.06312e-12
-1.19471e-11
-1.10801e-10
-9.32992e-10
-8.99705e-09
-9.3794e-08
-3.04727e-07
-3.72244e-10
-0.000299705
-0.00269139
-0.00411563
-0.00288457
-0.000916678
-0.000391855
-7.52879e-24
-7.7744e-22
-5.33227e-20
-2.51874e-18
-8.80923e-17
-2.39651e-15
-5.25843e-14
-9.5541e-13
-1.46754e-11
-1.93277e-10
-2.20097e-09
-2.15962e-08
-1.80236e-07
-6.49665e-07
-6.71377e-07
-3.14462e-07
-0.00203739
-0.00724247
-0.00724217
-0.00365325
-5.34069e-08
-5.34087e-08
-5.34069e-08
-5.59481e-22
-7.38071e-20
-4.70473e-18
-1.92098e-16
-5.63089e-15
-1.25574e-13
-2.20223e-12
-3.08856e-11
-3.48145e-10
-3.12421e-09
-2.16879e-08
-1.07823e-07
-2.0331e-07
-2.03317e-07
-2.13641e-05
-0.00560705
-0.00904284
-0.00892074
-0.000846396
-1.35456e-07
-1.97389e-07
-3.87552e-07
-4.99736e-07
-2.71936e-20
-2.9688e-18
-1.55169e-16
-5.14728e-15
-1.21378e-13
-2.15556e-12
-2.98033e-11
-3.2638e-10
-2.84687e-09
-1.95521e-08
-1.01673e-07
-2.90194e-07
-3.73246e-06
-0.000373098
-0.00648902
-0.00826896
-0.00703129
-1.67475e-07
-1.66561e-07
-2.87681e-07
-4.59398e-07
-4.56172e-07
-4.27738e-07
-4.7125e-19
-4.47231e-17
-2.00724e-15
-5.63889e-14
-1.10821e-12
-1.60927e-11
-1.77499e-10
-1.49318e-09
-9.28001e-09
-3.74184e-08
-7.43234e-08
-3.57524e-07
-6.66679e-05
-0.00486713
-0.00831831
-0.00653802
-8.39971e-08
-2.01721e-07
-2.55231e-07
-2.87439e-07
-1.9593e-07
-1.08205e-07
-6.76496e-08
-5.55126e-18
-4.54372e-16
-1.76154e-14
-4.27777e-13
-7.27384e-12
-9.20803e-11
-9.10508e-10
-7.46118e-09
-5.57089e-08
-2.06282e-07
-7.17516e-08
-7.18526e-08
-0.00211317
-0.00897483
-0.00788712
-3.45542e-08
-8.63804e-08
-1.60906e-07
-1.66726e-07
-7.45712e-08
-2.98547e-08
-1.79884e-08
-1.36734e-08
-3.18436e-17
-2.42681e-15
-8.69306e-14
-1.93319e-12
-2.97253e-11
-3.34096e-10
-2.85869e-09
-1.96456e-08
-1.20728e-07
-9.26686e-07
-4.22509e-05
-0.00102362
-0.00668997
-0.00922164
-0.00127049
-3.55059e-08
-7.88662e-08
-8.99676e-08
-2.75506e-08
-9.64634e-09
-5.30485e-09
-3.80336e-09
-2.84665e-09
-1.83672e-16
-1.27359e-14
-4.12346e-13
-8.2576e-12
-1.14053e-10
-1.14054e-09
-8.39872e-09
-4.51574e-08
-1.69274e-07
-1.06646e-06
-0.000273938
-0.00588497
-0.00924373
-0.00352498
-6.2533e-09
-3.64582e-08
-4.59609e-08
-1.37662e-08
-3.69513e-09
-1.62067e-09
-1.01966e-09
-7.27911e-10
-5.00022e-10
-6.505e-16
-4.31959e-14
-1.33483e-12
-2.54243e-11
-3.33675e-10
-3.1902e-09
-2.2901e-08
-1.2448e-07
-5.00986e-07
-6.10286e-06
-0.000574054
-0.00873113
-0.00947226
-3.15081e-09
-6.41704e-09
-1.73655e-08
-1.04227e-08
-1.8244e-09
-5.50686e-10
-2.68118e-10
-1.69365e-10
-1.12982e-10
-6.80669e-11
-2.10432e-15
-1.35139e-13
-4.02361e-12
-7.31287e-11
-9.02008e-10
-7.99279e-09
-5.2881e-08
-2.64409e-07
-9.51913e-07
-1.42327e-05
-0.00383711
-0.00895204
-0.00293819
-3.23107e-09
-4.25564e-09
-6.11006e-09
-1.49526e-09
-2.41972e-10
-7.39103e-11
-3.66928e-11
-2.24006e-11
-1.36521e-11
-7.05223e-12
-4.7591e-15
-2.97702e-13
-8.67095e-12
-1.55101e-10
-1.89063e-09
-1.63947e-08
-1.01658e-07
-4.95239e-07
-2.50129e-05
-0.00212526
-0.0122159
-0.00812336
-3.31132e-09
-3.31132e-09
-3.35632e-09
-2.37538e-09
-2.93632e-10
-3.28301e-11
-7.90989e-12
-3.79273e-12
-2.19852e-12
-1.21119e-12
-5.29775e-13
-9.37445e-15
-5.6064e-13
-1.57115e-11
-2.75954e-10
-3.33806e-09
-2.88346e-08
-1.84307e-07
-2.1019e-06
-0.000230302
-0.00806825
-0.0124735
-0.00528934
-3.39157e-09
-3.39157e-09
-3.90411e-09
-1.36216e-09
-1.40699e-10
-5.28852e-12
-6.28133e-13
-2.73422e-13
-1.44395e-13
-7.05573e-14
-2.70483e-14
-1.5803e-14
-8.85806e-13
-2.29517e-11
-3.60059e-10
-3.80965e-09
-2.86001e-08
-1.78533e-07
-2.18873e-05
-0.00346815
-0.0116918
-0.0113122
-3.47183e-09
-3.47183e-09
-5.86767e-09
-5.90139e-09
-1.24338e-09
-8.80329e-11
-9.1941e-13
-3.29396e-14
-1.15898e-14
-5.15244e-15
-2.10965e-15
-7.26116e-16
-2.96158e-14
-1.5804e-12
-3.84693e-11
-5.5582e-10
-5.19091e-09
-3.17759e-08
-1.26213e-07
-1.60807e-05
-0.00622066
-0.0119757
-0.00417337
-3.55208e-09
-7.0843e-09
-1.34757e-08
-7.86851e-09
-1.07473e-09
-2.52236e-11
-9.24809e-14
-8.76992e-16
-2.03953e-16
-6.01878e-17
-1.51725e-17
-3.82028e-18
-1.36719e-13
-7.92714e-12
-2.15707e-10
-3.60883e-09
-4.05418e-08
-3.14941e-07
-3.75297e-06
-0.000267104
-0.0029968
-0.00400081
-0.0001025
-3.63233e-09
-3.77853e-08
-4.08725e-08
-9.82865e-09
-5.65407e-10
-1.1547e-12
-5.7791e-39
-3.16313e-20
-2.32921e-22
-2.48085e-24
-8.13316e-25
-2.53806e-24
-428.918
-417.276
-411.973
-412.12
-393.765
-515.31
-515.316
-481.549
-353.766
-613.264
-551.155
-251.141
-170.092
-170.419
-212.101
-220.787
-660.583
-418.909
-438.82
-731.434
-524.938
-488.101
-357.037
-288.667
-4.32132e-05
-4.32132e-05
-4.32132e-05
-4.32132e-05
-0.135127
-4.74245e-05
-0.014876
-0.0124323
-0.0195722
-0.0206935
-0.210838
-0.219428
-0.0837903
-5.58473e-05
-5.58473e-05
-5.58473e-05
-1217.57
-1217.54
-1217.48
-914.624
-15.4196
-99.2143
-465.65
-872.994
-0.000572853
-0.000572903
-0.000572853
-0.000572903
-0.0133164
-0.0133157
-0.0042172
-0.00946592
-0.0013612
-0.00378356
-0.00450201
-0.00450337
-8.78283e-06
-1.43688e-05
-0.000240289
-0.000173325
-6.6074e-07
-6.38492e-07
-7.61357e-07
-7.52551e-07
-4.47622e-07
-4.43601e-07
-4.19871e-07
-3.84934e-07
-1.50271e-07
-1.58531e-07
-1.56964e-07
-1.517e-07
-2.79023e-08
-2.98466e-08
-3.01865e-08
-3.0114e-08
-2.68409e-09
-2.74065e-09
-2.82667e-09
-2.91657e-09
-3.15729e-10
-5.50702e-10
-1.08463e-09
-1.89696e-09
-6.57334e-09
-1.35925e-08
-2.74657e-08
-4.56552e-08
-1.14596e-07
-2.30894e-07
-4.69942e-07
-1.06122e-06
-3.6886e-06
-8.04432e-06
-2.30124e-05
-9.11172e-05
-0.000305164
-0.000371171
-0.000557124
-0.000803202
-0.00116353
-0.00112949
-0.000981926
-0.000762181
-0.000152774
-5.57741e-08
-5.60697e-08
-5.57741e-08
-5.34087e-08
-1.07313e-07
-3.8838e-07
-8.23944e-07
-6.82783e-07
-8.63314e-07
-9.89118e-07
-1.06389e-06
-3.66489e-07
-2.98368e-07
-2.59348e-07
-2.39681e-07
-5.5187e-08
-5.06703e-08
-4.77794e-08
-4.6009e-08
-1.15681e-08
-1.04609e-08
-9.56229e-09
-8.87854e-09
-2.20525e-09
-1.88058e-09
-1.63746e-09
-1.4694e-09
-3.35088e-10
-2.69138e-10
-2.23005e-10
-1.93678e-10
-3.95056e-11
-2.97277e-11
-2.34814e-11
-1.98924e-11
-3.5458e-12
-2.52708e-12
-1.957e-12
-1.67962e-12
-2.37278e-13
-1.66492e-13
-1.3356e-13
-1.22512e-13
-1.16703e-14
-8.58618e-15
-7.38647e-15
-7.17656e-15
-3.4111e-16
-2.80375e-16
-2.64567e-16
-2.94074e-16
-2.5005e-18
-2.91131e-18
-4.18649e-18
-5.84347e-18
-6.08362e-24
-1.09029e-23
-1.72096e-23
-2.58199e-23
-412.14
3.4726e-18
-3.20386e-17
-261.249
-369.784
-280.133
-133.43
-34.2675
-49.1791
-81.8269
-121.263
-153.071
-173.168
-196.229
-230.606
-301.87
-414.6
-517.253
-482.057
-215.199
1.75422e-18
-225.115
-443.252
-438.539
-63.0226
-4.67419e-06
-4.67419e-06
-0.130111
-0.303005
-0.96674
-2.57507
-4.69854
-8.20635
-19.9705
-135.245
-539.457
-566.448
-318.872
-237.255
-295.277
-548.186
-525.505
-85.7965
-0.00025248
-0.000571501
-0.00163504
-0.00323765
-0.00694532
-0.0070444
-0.243333
-1.38234
-5.61203
-38.1226
-352.24
-576.904
-374.808
-82.041
-342.683
-634.228
-608.021
-106.723
-3.06049e-05
-0.000292796
-0.000510672
-0.000261126
-0.000260148
-0.000260148
-0.151903
-4.63611
-51.4237
-284.969
-323.653
-140.232
-143.038
-40.985
-40.9846
-731.493
-398.108
-0.81798
-0.444133
-3.48198e-05
-3.48198e-05
-3.48198e-05
-0.00790049
-0.00728998
-0.000295976
-0.172356
-15.1162
-330.452
-930.183
-948.057
-318.373
-0.000112891
-0.000112891
-215.214
-211.308
-0.00190885
-0.403968
-0.00196355
-0.0086147
-1.06453
-6.70576
-20.8032
-17.2636
-0.0085164
-0.497604
-116.22
-936.344
-1148.09
-1148.09
-1048.21
-216.592
-9.00046
-771.261
-4.32132e-05
-0.00211508
-0.00251019
-0.00217589
-0.0066389
-1.86417
-99.2022
-529.545
-410.953
-0.00944359
-4.94448
-535.746
-1240.17
-1265.63
-1272.06
-1272.06
-1093.28
-646.306
-1185.71
-9.01083e-05
-0.00017908
-5.31131e-05
-0.00279992
-0.00982271
-0.822004
-235.448
-982.429
-865.345
-67.1595
-77.8381
-922.798
-965.362
-791.608
-1273.12
-1392.1
-1396.03
-1396.03
-1396.03
-0.19726
-5.16359e-05
-5.16359e-05
-0.0021022
-0.00495274
-0.00806081
-449.607
-1069.67
-1069.67
-730.485
-467.536
-593.508
-111.836
-22.5762
-471.518
-1183.78
-1512.8
-1520
-1520
-5.58473e-05
-5.58473e-05
-5.58473e-05
-5.58473e-05
-5.58473e-05
-11.6791
-805.115
-1144.81
-1001.56
-1001.56
-617.94
-21.317
-0.0471335
-0.0471609
-0.0471335
-264.692
-1092.19
-1489.06
-1504.56
-359.215
-127.04
-97.7424
-84.903
-363.786
-922.698
-899.613
-328.213
-73.2987
-60.1274
-33.7162
-0.868977
-0.868988
-0.0507245
-0.106298
-0.106278
-133.957
-501.009
-654.195
-1176.22
-1307.46
-1307.59
-1288.86
-1041.43
-375.486
-48.6964
-7.33813e-07
-7.33813e-07
-7.33813e-07
-7.33813e-07
-3.20922
-2.8552
-0.000405554
-0.605573
-2.93015
-2.92982
-52.0552
-281.321
-0.000572853
-76.4459
-172.187
-135.42
-28.3558
-7.81897e-07
-0.0043067
-7.81897e-07
-0.405904
-4.35526
-4.91018
-4.89356
-0.510602
-0.000432172
-0.169005
-6.42121
-22.8399
-110.59
-710.347
-0.00924384
-8.29981e-07
-8.29981e-07
-8.29981e-07
-8.29981e-07
-8.29981e-07
-2.04402e-06
-0.0318768
-0.164731
-1.85964e-05
-1.97901e-05
-1.85964e-05
-1.86132e-05
-0.000591076
-0.0950507
-1.77737
-19.8745
-111.203
-754.936
-0.00062477
-0.00106126
-0.00433059
-0.00188559
-8.78065e-07
-8.78065e-07
-8.78065e-07
-0.00827501
-0.036033
-1.96915e-05
-1.97431e-05
-2.5617e-05
-5.04589e-05
-0.00241825
-0.0744356
-0.000681003
-0.000703918
-24.9981
-482.005
-2.73399e-05
-1.3105e-06
-0.00186594
-0.00238788
-0.000932934
-4.73579e-05
-0.00263469
-0.000331049
-0.000329392
-0.00138694
-0.00215823
-0.0250025
-0.0170528
-0.00168743
-0.000434233
-0.000719457
-0.0651525
-7.85298
-0.0288752
-7.20659e-07
-1.37852e-06
-7.51829e-07
-0.00114177
-3.18093e-07
-0.0197103
-0.0303115
-0.00267899
-0.000348236
-0.0140702
-0.0632106
-0.0804529
-0.0527862
-0.00252604
-0.000456754
-0.00107215
-0.00134743
-0.432467
-0.0305031
-3.9699e-07
-9.36848e-07
-7.8895e-07
-2.13088e-06
-3.34979e-07
-0.00381543
-0.0058888
-0.0596357
-0.112057
-0.112116
-0.112114
-0.083398
-0.0264264
-0.00397589
-0.000483176
-0.000120328
-0.0123154
-0.0112064
-0.0319821
-1.54683e-07
-3.48274e-07
-4.16096e-07
-3.96299e-07
-0.000154798
-7.72013e-05
-5.94121e-05
-0.0112277
-0.0388831
-0.0352157
-0.00758478
-1.5615e-07
-1.54944e-07
-0.00216722
-0.00126715
-0.000107699
-0.0526501
-0.0298693
-0.131365
-3.24212e-08
-6.96795e-08
-2.17606e-07
-6.70341e-08
-3.94503e-05
-1.56213e-05
-6.2081e-05
-0.000171443
-0.000110068
-2.57962e-08
-2.5587e-08
-2.65072e-07
-2.88036e-07
-2.16497e-08
-2.16497e-08
-2.16497e-08
-0.0420559
-1.2423
-0.421106
-3.50441e-09
-8.18119e-09
-2.65133e-08
-6.9916e-08
-3.03535e-07
-1.43527e-06
-4.15429e-06
-2.3221e-06
-1.30698e-07
-3.93185e-07
-9.57628e-07
-1.19929e-06
-1.09322e-06
-5.89468e-07
-1.18016e-07
-1.73808e-06
-6.52018e-07
-3.93668
-0.810321
-5.97842e-09
-1.54267e-08
-4.84288e-08
-6.80071e-08
-6.30637e-08
-5.60474e-08
-5.54919e-08
-6.39571e-08
-1.36085e-07
-2.78118e-07
-5.09665e-07
-6.78832e-07
-6.31743e-07
-4.48195e-07
-2.22103e-08
-0.00181391
-5.93127e-07
-3.99002
-64.8249
-1.33461e-07
-3.38381e-07
-1.19714e-06
-1.50252e-06
-1.11188e-06
-5.80747e-07
-2.71547e-07
-1.36003e-07
-8.87919e-08
-8.02872e-08
-8.54356e-08
-1.02852e-07
-1.10856e-07
-8.1214e-08
-2.30896e-08
-0.00769037
-6.16304e-07
-1.96871
-333.747
-4.31704e-06
-1.57072e-05
-3.33401e-05
-2.3967e-05
-1.11022e-05
-4.28308e-06
-2.03169e-06
-1.01831e-06
-4.71208e-07
-1.93403e-07
-7.17591e-08
-3.78135e-08
-3.41257e-08
-2.39688e-08
-2.39688e-08
-0.00798805
-6.40087e-07
-0.861496
-358.691
-0.000243382
-0.000280801
-0.000166737
-5.56251e-05
-2.91109e-05
-1.49355e-05
-6.38483e-06
-3.35689e-06
-1.92026e-06
-9.89059e-07
-3.97895e-07
-1.24811e-07
-4.1678e-08
-2.4848e-08
-2.48481e-08
-0.00612931
-6.6324e-07
-0.0331387
-371.857
-0.000803341
-0.00037724
-7.0702e-05
-3.11518e-05
-3.52426e-05
-4.20974e-05
-1.94437e-05
-6.39697e-06
-3.55445e-06
-2.43413e-06
-1.39108e-06
-5.52548e-07
-1.78091e-07
-3.8045e-08
-2.57273e-08
-0.0109786
-0.0162007
-1.2229e-19
-330.88
-0.000186207
-1.94052e-07
-1.9397e-07
-1.31358e-06
-7.08965e-06
-4.36823e-05
-0.000183012
-0.000177701
-0.000101084
-1.98742e-05
-5.76425e-06
-1.98909e-06
-6.68296e-07
-1.45206e-07
-2.66065e-08
-0.0110616
-0.0545361
-2.94796e-19
-16.611
-5.60697e-08
-5.29261e-07
-6.25852e-07
-1.5075e-07
-5.81195e-08
-5.81146e-08
-0.000751628
-0.00246588
-0.00237262
-0.000949896
-9.55712e-05
-8.59571e-06
-2.07037e-06
-5.04417e-07
-2.74857e-08
-0.0144734
-0.0992377
-0.0156925
-0.000388664
-1.26481e-06
-1.55974e-06
-1.40247e-06
-5.7495e-07
-8.85156e-08
-6.02151e-08
-0.000717134
-0.00326701
-0.00336354
-0.00336911
-0.000967346
-2.97892e-05
-2.75853e-06
-9.7373e-07
-2.8365e-08
-0.00424988
-0.102393
-0.0340147
-0.000400883
-1.08107e-06
-1.12058e-06
-7.06457e-07
-3.52041e-07
-9.04342e-08
-1.78796e-05
-3.66374e-07
-4.65174e-05
-0.00187512
-0.0034678
-0.00225149
-0.000187867
-3.13469e-06
-1.07707e-06
-1.87085e-07
-1.69984e-07
-0.0623219
-0.0348882
-0.000598316
-2.29903e-07
-2.61595e-07
-1.76397e-07
-1.28522e-07
-7.93279e-08
-7.82006e-08
-3.77328e-07
-2.75768e-09
-2.7575e-09
-0.000318803
-0.00195562
-0.000700852
-8.05961e-06
-9.34126e-07
-1.93008e-07
-1.74745e-07
-0.00257188
-0.0070898
-0.00142971
-4.44578e-08
-4.37884e-08
-4.13019e-08
-3.78837e-08
-4.06596e-08
-1.60169e-07
-1.2099e-06
-1.42016e-06
-3.89631e-07
-3.15605e-07
-0.00072538
-0.00294235
-0.00100622
-2.49817e-05
-5.74247e-07
-4.4168e-06
-3.86125e-06
-3.86148e-06
-0.00211879
-8.31896e-09
-8.19316e-09
-8.11869e-09
-8.40652e-09
-1.71668e-08
-1.16204e-07
-1.0442e-06
-1.72028e-06
-4.92242e-07
-5.56389e-06
-6.92858e-05
-0.004415
-0.00226672
-6.4734e-05
-3.44931e-06
-1.50804e-06
-1.22224e-06
-0.00672456
-0.0102859
-1.33652e-09
-1.26825e-09
-1.38144e-09
-1.98629e-09
-5.59924e-09
-3.29825e-08
-2.78513e-07
-1.09603e-06
-6.60959e-08
-9.93226e-05
-8.90336e-05
-0.00868589
-0.00679695
-0.00141847
-4.21307e-05
-4.44454e-08
-0.00666877
-0.04644
-0.0214743
-1.71435e-10
-1.6018e-10
-2.23394e-10
-4.6516e-10
-1.48868e-09
-7.42944e-09
-5.44755e-08
-3.37613e-07
-5.90906e-08
-2.55511e-14
-0.0247458
-0.0288506
-0.0239356
-0.00709094
-3.02269e-05
-4.56388e-08
-0.0334446
-0.0495219
-0.0211984
-1.7841e-11
-1.85502e-11
-3.71217e-11
-9.9068e-11
-3.25966e-10
-1.32523e-09
-8.84202e-09
-1.03689e-07
-7.32333e-08
8.72367e-28
-0.0897963
-0.106708
-0.0463381
-0.00768635
-1.34435e-05
-4.6831e-08
-0.0235562
-0.0508169
-0.0134958
-1.56351e-12
-2.24382e-12
-5.88305e-12
-1.7675e-11
-5.88844e-11
-2.02201e-10
-1.18474e-09
-2.48703e-08
-1.6887e-08
-4.63692e-27
-0.0218608
-0.499439
-0.229057
-0.0116453
-7.30201e-06
-4.80245e-08
-0.00332347
-0.0301365
-0.00308446
-1.26804e-13
-2.59674e-13
-7.715e-13
-2.49971e-12
-8.68237e-12
-2.75818e-11
-1.477e-10
-4.34241e-09
-2.58427e-09
-1.31267e-10
-8.67418e-29
-0.919763
-0.586671
-0.0220191
-1.52775e-05
-4.92166e-08
-0.000357839
-0.000336454
-0.000312212
-9.55003e-15
-2.33234e-14
-7.49099e-14
-2.67149e-13
-1.00951e-12
-3.3197e-12
-1.78629e-11
-5.26743e-10
-2.97615e-10
-5.97842e-12
-2.74174e-30
-0.943846
-0.76589
-0.050705
-7.43805e-05
-0.000270013
-0.000229086
-3.32361e-05
-0.000372231
-4.94525e-16
-1.33152e-15
-4.86433e-15
-2.00385e-14
-8.55307e-14
-3.10593e-13
-1.65001e-12
-3.83782e-11
-1.89038e-11
-1.25442e-12
2.91645e-31
-0.966347
-0.723453
-0.0475092
-0.000123533
-0.00054157
-0.000202599
-3.41096e-05
-0.000379893
-1.12997e-17
-3.83251e-17
-1.74605e-16
-8.51936e-16
-4.10007e-15
-1.64679e-14
-7.71783e-14
-1.25124e-12
-4.24652e-13
-2.97901e-14
5.64275e-35
-0.842822
-0.776966
-0.0507648
-0.000118319
-0.000553548
-5.1784e-05
-3.47256e-05
-3.49799e-05
-4.31803e-23
-9.13427e-23
-1.70184e-22
-1.82218e-22
-6.91124e-23
6.10915e-71
2.38595e-70
3.55669e-69
6.47198e-31
7.8295e-31
5.33602e-31
-0.415208
-0.692666
-0.0494758
-6.19322e-05
-0.000137912
-0.00201851
-0.0204731
-0.0294772
)
;

boundaryField
{
    leftWall
    {
        type            calculated;
        value           nonuniform List<scalar> 
50
(
-29.4294
-88.2881
-147.147
-206.006
-264.864
-323.723
-382.582
-441.44
-313.201
-10.1141
-0.00394239
-2.86269e-09
-3.58659e-11
-2.02727e-11
-1.11402e-11
-6.41103e-12
-3.52955e-12
-1.60197e-12
-6.20411e-13
-2.07694e-13
-6.20645e-14
-1.6728e-14
-4.18871e-15
-9.84403e-16
-2.21881e-16
-4.81912e-17
-1.01776e-17
-2.10147e-18
-4.25918e-19
-8.50075e-20
-1.68191e-20
-3.32539e-21
-6.62723e-22
-1.34901e-22
-2.5903e-23
-7.29499e-24
-7.52879e-24
-5.59481e-22
-2.71936e-20
-4.7125e-19
-5.55126e-18
-3.18436e-17
-1.83672e-16
-6.505e-16
-2.10432e-15
-4.7591e-15
-9.37445e-15
-1.5803e-14
-2.96158e-14
-1.36719e-13
)
;
    }
    rightWall
    {
        type            calculated;
        value           nonuniform List<scalar> 
50
(
-24.2492
-72.2241
-77.3873
-145.425
-247.879
-320.919
-379.267
-437.617
-482.057
-318.872
-82.041
-40.9846
-215.214
-771.261
-1185.71
-1396.03
-1520
-1504.56
-654.195
-281.321
-710.347
-754.936
-482.005
-0.0288752
-0.0305031
-0.0319821
-0.131365
-0.421106
-0.810321
-64.8249
-333.747
-358.691
-371.857
-330.88
-16.611
-0.000388664
-0.000400883
-0.000598316
-0.00142971
-0.00211879
-0.0102859
-0.0214743
-0.0211984
-0.0134958
-0.00308446
-0.000312212
-0.000372231
-0.000379893
-3.49799e-05
-0.0294772
)
;
    }
    lowerWall
    {
        type            calculated;
        value           nonuniform List<scalar> 
62
(
0
0
0
0
0
0
0
0
0
0
0
0
0
0
0
0
0
0
0
0
0
0
0
-29.4227
-88.2626
-147.104
-205.954
-264.864
-323.723
-382.582
-441.44
-378.589
-368.313
-363.632
-363.761
-26.0379
-75.2146
-102.178
-139.504
-179.396
-237.604
-302.397
-348.919
0
0
0
0
0
0
0
0
0
0
0
0
0
0
0
0
0
0
0
)
;
    }
    atmosphere
    {
        type            calculated;
        value           nonuniform List<scalar> 
46
(
-1.3823e-13
-8.01471e-12
-2.1809e-10
-3.6487e-09
-4.09897e-08
-3.18421e-07
-3.79443e-06
-0.000270054
-0.0030299
-0.00404501
-0.000103632
-3.67246e-09
-3.82027e-08
-4.1324e-08
-9.93723e-09
-0
-0
-0
-0
-0
-0
-0
-0
-0
-0
-0
-0
-0
-0
-0
-0
-0
-0
-0
-0
-0
-0
-0
-0
-0.700318
-0.0500224
-6.26163e-05
-0.000139435
-0.00204081
-0.0206992
-0.0298029
)
;
    }
    defaultFaces
    {
        type            empty;
    }
}


// ************************************************************************* //
