/*--------------------------------*- C++ -*----------------------------------*\
| =========                 |                                                 |
| \\      /  F ield         | OpenFOAM: The Open Source CFD Toolbox           |
|  \\    /   O peration     | Version:  2012                                  |
|   \\  /    A nd           | Website:  www.openfoam.com                      |
|    \\/     M anipulation  |                                                 |
\*---------------------------------------------------------------------------*/
FoamFile
{
    version     2.0;
    format      ascii;
    class       volVectorField;
    location    "0.75";
    object      U;
}
// * * * * * * * * * * * * * * * * * * * * * * * * * * * * * * * * * * * * * //

dimensions      [0 1 -1 0 0 0 0];


internalField   nonuniform List<vector> 
2268
(
(-0.0121088 0.00432606 0)
(-0.0321841 0.00389493 0)
(-0.0531909 0.00397305 0)
(-0.0754189 0.00425159 0)
(-0.0993379 0.00396462 0)
(-0.119406 0.00332338 0)
(-0.137062 0.00322014 0)
(-0.154943 0.00350098 0)
(-0.172016 0.00307587 0)
(-0.182642 0.00285939 0)
(-0.19553 0.00227369 0)
(-0.200402 0.00181366 0)
(-0.20599 0.000322153 0)
(-0.202375 -0.00102147 0)
(-0.201735 -0.00236489 0)
(-0.191222 -0.00370343 0)
(-0.184644 -0.00584503 0)
(-0.161395 -0.00778666 0)
(-0.142273 -0.010736 0)
(-0.104124 -0.0133491 0)
(-0.0668883 -0.0149599 0)
(-0.0375957 -0.0204373 0)
(0.0356579 -0.0109243 0)
(-0.0123401 0.0166111 0)
(-0.0325358 0.0155244 0)
(-0.053647 0.0164617 0)
(-0.075521 0.0175526 0)
(-0.0991579 0.0168266 0)
(-0.119213 0.0144922 0)
(-0.137285 0.0135795 0)
(-0.155363 0.0129923 0)
(-0.172318 0.0100478 0)
(-0.182836 0.00819993 0)
(-0.196085 0.00619342 0)
(-0.200865 0.00304359 0)
(-0.206806 0.000711509 0)
(-0.203526 -0.00107553 0)
(-0.203149 -0.00280343 0)
(-0.192617 -0.00444446 0)
(-0.186 -0.00815225 0)
(-0.16325 -0.0122885 0)
(-0.14438 -0.0162332 0)
(-0.108116 -0.0223016 0)
(-0.0735266 -0.016357 0)
(-0.0442659 -0.0279974 0)
(0.0207302 0.0102926 0)
(-0.0127024 0.0255194 0)
(-0.0324574 0.0234062 0)
(-0.0536865 0.0242843 0)
(-0.0751051 0.0257589 0)
(-0.0988642 0.0246265 0)
(-0.119711 0.0213489 0)
(-0.139155 0.0203334 0)
(-0.157543 0.0200494 0)
(-0.174369 0.0160993 0)
(-0.185115 0.0140397 0)
(-0.197775 0.0108547 0)
(-0.201798 0.00679599 0)
(-0.207706 0.00165455 0)
(-0.20417 -0.00286411 0)
(-0.204466 -0.00747262 0)
(-0.193362 -0.0119201 0)
(-0.187151 -0.0197351 0)
(-0.163102 -0.0275686 0)
(-0.143651 -0.0368742 0)
(-0.105466 -0.0469754 0)
(-0.0671504 -0.0453481 0)
(-0.028287 -0.0653072 0)
(0.039078 -0.0227391 0)
(-0.0131316 0.0379817 0)
(-0.0326982 0.0349158 0)
(-0.0546207 0.0366295 0)
(-0.0757979 0.0389003 0)
(-0.0986918 0.0379019 0)
(-0.119405 0.0335031 0)
(-0.139534 0.0314429 0)
(-0.158014 0.0295931 0)
(-0.174999 0.0231036 0)
(-0.186264 0.0192093 0)
(-0.199152 0.0141591 0)
(-0.204371 0.00765252 0)
(-0.211357 0.00196201 0)
(-0.208264 -0.00266743 0)
(-0.20881 -0.00774836 0)
(-0.19782 -0.0126553 0)
(-0.192857 -0.0222353 0)
(-0.170252 -0.0328202 0)
(-0.151274 -0.0431818 0)
(-0.114441 -0.0583337 0)
(-0.0742216 -0.0523465 0)
(-0.0315237 -0.0777722 0)
(0.0397681 0.0166933 0)
(-0.0124337 0.0471326 0)
(-0.0322363 0.0429778 0)
(-0.0544706 0.0446298 0)
(-0.0757146 0.0465781 0)
(-0.0987 0.0452481 0)
(-0.12048 0.0406741 0)
(-0.143115 0.0386256 0)
(-0.162193 0.0368153 0)
(-0.179061 0.029494 0)
(-0.190475 0.0254106 0)
(-0.202235 0.0194555 0)
(-0.206207 0.0124893 0)
(-0.213134 0.00353193 0)
(-0.20938 -0.00420342 0)
(-0.210865 -0.0124293 0)
(-0.199448 -0.0196102 0)
(-0.195954 -0.0329191 0)
(-0.171983 -0.0474024 0)
(-0.153185 -0.0635778 0)
(-0.111899 -0.0836561 0)
(-0.0680898 -0.0851785 0)
(-0.00174956 -0.119942 0)
(0.0772799 -0.0205693 0)
(-0.0110996 0.0591605 0)
(-0.0331942 0.0548395 0)
(-0.0563024 0.0572192 0)
(-0.0776233 0.0598197 0)
(-0.0991434 0.0590586 0)
(-0.120088 0.0544539 0)
(-0.143223 0.051126 0)
(-0.162302 0.0465277 0)
(-0.179697 0.0364844 0)
(-0.192639 0.0301085 0)
(-0.205369 0.0216743 0)
(-0.21146 0.0127285 0)
(-0.219233 0.00361343 0)
(-0.215853 -0.00376602 0)
(-0.217457 -0.0122079 0)
(-0.207014 -0.0196882 0)
(-0.20591 -0.0348407 0)
(-0.183899 -0.0529265 0)
(-0.167321 -0.071051 0)
(-0.12575 -0.0982615 0)
(-0.0805746 -0.103541 0)
(-0.00580975 -0.145527 0)
(0.0758926 0.0548064 0)
(-0.0090115 0.067973 0)
(-0.0318953 0.0642589 0)
(-0.0556704 0.0655632 0)
(-0.0776718 0.0667875 0)
(-0.0990049 0.0653093 0)
(-0.121635 0.0615326 0)
(-0.148391 0.0586322 0)
(-0.168652 0.0540772 0)
(-0.185741 0.0438842 0)
(-0.19815 0.0375136 0)
(-0.209259 0.0283796 0)
(-0.213704 0.0189775 0)
(-0.221206 0.00560024 0)
(-0.217243 -0.00519678 0)
(-0.220268 -0.0167168 0)
(-0.210235 -0.0252505 0)
(-0.211731 -0.0441905 0)
(-0.188137 -0.0658605 0)
(-0.172968 -0.0916688 0)
(-0.124266 -0.124986 0)
(-0.0742949 -0.14301 0)
(0.0218578 -0.195225 0)
(0.118556 0.00957875 0)
(-0.00812833 0.0786145 0)
(-0.0319195 0.0770034 0)
(-0.0563724 0.0789464 0)
(-0.0789844 0.0803597 0)
(-0.0985877 0.0798682 0)
(-0.121343 0.077768 0)
(-0.149434 0.0733041 0)
(-0.171038 0.0640979 0)
(-0.189498 0.0504154 0)
(-0.202851 0.0411663 0)
(-0.214304 0.0290944 0)
(-0.222035 0.0183122 0)
(-0.229493 0.00546314 0)
(-0.224989 -0.00418928 0)
(-0.227628 -0.0151956 0)
(-0.220179 -0.0236644 0)
(-0.224638 -0.0446982 0)
(-0.202988 -0.0711168 0)
(-0.193777 -0.100438 0)
(-0.150385 -0.144542 0)
(-0.119245 -0.171338 0)
(-0.0260731 -0.235367 0)
(-0.0102868 0.124957 0)
(-0.628158 0.247979 0)
(-1.14634 0.0941315 0)
(-1.45228 0.0386701 0)
(-1.54454 0.0041042 0)
(-1.50535 -0.0300862 0)
(-1.25519 -0.0296989 0)
(-1.12486 0.0322295 0)
(-1.17204 0.0832226 0)
(-1.41378 0.0547184 0)
(-1.52843 0.00952161 0)
(-1.58854 0.00898965 0)
(-1.6264 0.00590287 0)
(-1.67189 0.0182219 0)
(-1.74625 0.0303284 0)
(-1.82024 0.0191875 0)
(-1.86029 -0.000172681 0)
(-1.84895 -0.084556 0)
(-1.33605 -0.211474 0)
(-0.564004 -0.23043 0)
(-0.519414 0.50729 0)
(-0.969747 0.258835 0)
(-1.22969 0.130068 0)
(-1.28953 0.0189261 0)
(-1.20791 -0.0925873 0)
(-0.921347 -0.131552 0)
(-0.803361 -0.0682704 0)
(-0.999347 0.0397963 0)
(-1.20062 0.0968247 0)
(-1.30214 0.0655662 0)
(-1.34957 0.0326066 0)
(-1.40151 0.0296274 0)
(-1.46626 0.0328929 0)
(-1.52565 0.032375 0)
(-1.57086 0.029312 0)
(-1.59914 0.0095138 0)
(-1.53589 -0.135918 0)
(-0.879382 -0.338327 0)
(-0.575788 -0.581509 0)
(-0.496574 0.87154 0)
(-0.77126 0.397189 0)
(-0.99791 0.173538 0)
(-1.08599 -0.00636799 0)
(-0.936633 -0.185052 0)
(-0.470579 -0.206078 0)
(-0.218077 0.0670494 0)
(-0.381375 0.256915 0)
(-0.670728 0.183973 0)
(-0.98484 0.0688779 0)
(-1.24519 0.0506392 0)
(-1.38888 0.054523 0)
(-1.46951 0.0704431 0)
(-1.50932 0.0749289 0)
(-1.57051 0.0521057 0)
(-1.58164 -0.0131776 0)
(-1.26677 -0.386046 0)
(-0.36696 -0.624 0)
(-0.486399 -0.844634 0)
(-0.317149 1.05234 0)
(-0.53181 0.476527 0)
(-0.915259 0.262929 0)
(-1.15915 -0.00421628 0)
(-0.649694 -0.352674 0)
(-0.193612 -0.436309 0)
(0.0376221 -0.109078 0)
(0.394438 0.221348 0)
(0.495569 0.356064 0)
(0.29409 0.323399 0)
(-0.130284 0.28326 0)
(-0.558353 0.20826 0)
(-1.11997 0.105455 0)
(-1.08694 0.0600952 0)
(-1.39136 0.0207068 0)
(-0.607972 -0.20851 0)
(-0.830746 -0.622339 0)
(0.120652 -0.683397 0)
(-0.374931 -0.943736 0)
(-0.199023 1.22716 0)
(-0.326275 0.650439 0)
(-0.72238 0.391051 0)
(-0.797286 -0.165197 0)
(-0.0719692 -0.592447 0)
(0.0615017 -0.503423 0)
(0.213909 -0.180749 0)
(0.428688 0.0687799 0)
(0.669304 0.226964 0)
(0.755677 0.291559 0)
(0.852348 0.298349 0)
(0.9952 0.283005 0)
(0.926828 0.263441 0)
(1.07982 0.166021 0)
(0.301598 0.0739516 0)
(0.814839 -0.209381 0)
(-0.550389 -0.612623 0)
(0.323853 -0.840377 0)
(-0.270745 -0.953437 0)
(-0.100867 1.27794 0)
(-0.16131 0.666111 0)
(-0.0101606 0.606789 0)
(-0.164103 -0.177785 0)
(0.210258 -0.747475 0)
(0.233458 -0.55827 0)
(0.367495 -0.26747 0)
(0.573875 0.0245609 0)
(0.659854 0.216377 0)
(0.750896 0.255137 0)
(0.830015 0.259256 0)
(0.912747 0.246566 0)
(0.963206 0.202006 0)
(1.02606 0.184725 0)
(1.03474 0.107701 0)
(1.10505 -0.0468938 0)
(0.567176 -0.401199 0)
(0.480149 -0.806237 0)
(-0.186906 -0.920965 0)
(-0.093324 1.33382 0)
(-0.0298453 0.60466 0)
(-0.176632 0.367825 0)
(0.46231 -0.235003 0)
(0.335604 -0.749271 0)
(0.348553 -0.573698 0)
(0.45276 -0.323451 0)
(0.617267 -0.053861 0)
(0.643422 0.153112 0)
(0.725457 0.217774 0)
(0.80692 0.22915 0)
(0.89118 0.223903 0)
(0.937063 0.184915 0)
(0.986024 0.155443 0)
(1.02675 0.0887421 0)
(1.05129 0.00569235 0)
(0.920493 -0.28967 0)
(0.574329 -0.536516 0)
(-0.170467 -0.829279 0)
(-0.09899 1.33258 0)
(0.106425 0.692819 0)
(-0.619553 0.41975 0)
(0.539166 -0.560958 0)
(0.387211 -0.701075 0)
(0.408139 -0.608519 0)
(0.500148 -0.384131 0)
(0.669228 -0.0587671 0)
(0.646314 0.16849 0)
(0.697433 0.185436 0)
(0.775907 0.188563 0)
(0.849952 0.19198 0)
(0.903031 0.163237 0)
(0.933579 0.146886 0)
(0.970929 0.0780449 0)
(0.970055 -0.004688 0)
(0.848958 -0.206499 0)
(0.45451 -0.339826 0)
(-0.163583 -0.746958 0)
(-0.00672246 0.0911764 0)
(-0.0296262 0.0923621 0)
(-0.0527947 0.0925047 0)
(-0.076532 0.0901316 0)
(-0.0959189 0.0882829 0)
(-0.116927 0.0899476 0)
(-0.141405 0.0871802 0)
(-0.162697 0.0781322 0)
(-0.185256 0.0638223 0)
(-0.202388 0.0537669 0)
(-0.217615 0.0421818 0)
(-0.227104 0.0305017 0)
(-0.231419 0.00775243 0)
(-0.225378 -0.00742327 0)
(-0.23005 -0.0214748 0)
(-0.225588 -0.0287163 0)
(-0.236959 -0.0575671 0)
(-0.21391 -0.0859999 0)
(-0.21551 -0.127065 0)
(-0.182885 -0.169208 0)
(-0.186968 -0.221803 0)
(-0.0688706 -0.254673 0)
(-0.0564095 -0.0894495 0)
(-0.0127641 0.110585 0)
(-0.0460372 0.117619 0)
(-0.0827873 0.120987 0)
(-0.12198 0.119975 0)
(-0.150307 0.117273 0)
(-0.169315 0.118915 0)
(-0.189841 0.114172 0)
(-0.207495 0.102963 0)
(-0.220053 0.0854664 0)
(-0.222668 0.0690686 0)
(-0.223619 0.0493122 0)
(-0.217561 0.0276779 0)
(-0.218296 0.00319208 0)
(-0.222689 -0.00433782 0)
(-0.238486 -0.0121365 0)
(-0.253319 -0.0149091 0)
(-0.271224 -0.0505276 0)
(-0.258355 -0.0876527 0)
(-0.266223 -0.120446 0)
(-0.261639 -0.164865 0)
(-0.291892 -0.265633 0)
(-0.287105 -0.360651 0)
(-0.255497 -0.360735 0)
(-0.0216475 0.150695 0)
(-0.0623601 0.163474 0)
(-0.105882 0.169664 0)
(-0.152568 0.158597 0)
(-0.187831 0.136434 0)
(-0.222094 0.130056 0)
(-0.261268 0.125747 0)
(-0.301238 0.108524 0)
(-0.31761 0.0791871 0)
(-0.316802 0.0573789 0)
(-0.310205 0.037103 0)
(-0.294372 0.0251655 0)
(-0.281072 0.0127237 0)
(-0.247968 0.0125084 0)
(-0.230622 0.0089148 0)
(-0.217655 0.00381239 0)
(-0.234714 -0.054349 0)
(-0.238473 -0.0907018 0)
(-0.260518 -0.125412 0)
(-0.268478 -0.142039 0)
(-0.361794 -0.199317 0)
(-0.42788 -0.288038 0)
(-0.608623 -0.24252 0)
(-0.030991 0.194874 0)
(-0.0841039 0.201916 0)
(-0.133179 0.210924 0)
(-0.175135 0.201635 0)
(-0.220877 0.18588 0)
(-0.283194 0.191728 0)
(-0.336544 0.192502 0)
(-0.387384 0.158717 0)
(-0.428276 0.100101 0)
(-0.444597 0.0610782 0)
(-0.445986 0.0262787 0)
(-0.452601 -0.00211434 0)
(-0.517712 -0.0433972 0)
(-0.656623 -0.0529606 0)
(-0.789221 -0.0427386 0)
(-0.894381 -0.00738547 0)
(-0.803718 -0.0226907 0)
(-0.572369 -0.0610444 0)
(-0.441927 -0.0873682 0)
(-0.359676 -0.064687 0)
(-0.383714 -0.102202 0)
(-0.449127 -0.116021 0)
(-0.613803 -0.0959278 0)
(-0.0347618 0.266718 0)
(-0.0990767 0.266695 0)
(-0.163718 0.262502 0)
(-0.218668 0.248478 0)
(-0.291357 0.247434 0)
(-0.379631 0.249747 0)
(-0.459821 0.234064 0)
(-0.541461 0.20509 0)
(-0.652465 0.141226 0)
(-0.819182 0.0801455 0)
(-1.13285 0.0522682 0)
(-1.64254 0.105299 0)
(-2.07105 0.218133 0)
(-2.33628 0.278146 0)
(-2.36362 0.261682 0)
(-2.05576 -0.00802858 0)
(-1.70751 -0.406886 0)
(-1.40555 -0.456434 0)
(-1.11858 -0.342381 0)
(-0.870086 -0.200096 0)
(-0.701166 -0.111579 0)
(-0.611817 -0.0570416 0)
(-0.557511 -0.00377031 0)
(-0.0321192 0.328347 0)
(-0.0907972 0.330322 0)
(-0.158143 0.329206 0)
(-0.225982 0.327797 0)
(-0.317088 0.344061 0)
(-0.411753 0.357965 0)
(-0.531586 0.348899 0)
(-0.66449 0.348753 0)
(-0.865922 0.368609 0)
(-1.18353 0.538625 0)
(-1.71547 0.831059 0)
(-2.2605 0.920195 0)
(-2.65724 0.65335 0)
(-2.92864 0.263691 0)
(-2.29718 -0.389886 0)
(-1.91569 -0.609358 0)
(-1.79162 -0.648378 0)
(-1.69937 -0.648597 0)
(-1.60555 -0.622516 0)
(-1.39353 -0.483882 0)
(-1.09 -0.359585 0)
(-0.848168 -0.260065 0)
(-0.635326 -0.234627 0)
(-0.0325757 0.39141 0)
(-0.0920303 0.394608 0)
(-0.161174 0.40007 0)
(-0.233247 0.410186 0)
(-0.323618 0.436776 0)
(-0.417869 0.468608 0)
(-0.543968 0.491907 0)
(-0.710005 0.546702 0)
(-0.925474 0.6692 0)
(-1.23651 0.944445 0)
(-1.51299 1.14285 0)
(-1.77274 1.10048 0)
(-2.00161 0.818329 0)
(-2.01016 -0.0832505 0)
(-1.87651 -0.583141 0)
(-1.8388 -0.616279 0)
(-1.8194 -0.636927 0)
(-1.81802 -0.645363 0)
(-1.83347 -0.646561 0)
(-1.98236 -0.565196 0)
(-2.49799 -0.556603 0)
(-2.66368 -0.451623 0)
(-2.80394 -0.414428 0)
(-0.0285497 0.452378 0)
(-0.0817618 0.458363 0)
(-0.143716 0.469492 0)
(-0.207342 0.489646 0)
(-0.284968 0.526882 0)
(-0.363061 0.577785 0)
(-0.469858 0.637937 0)
(-0.600925 0.730597 0)
(-0.771692 0.889059 0)
(-0.951285 1.1298 0)
(-1.08027 1.35703 0)
(-1.20216 1.37794 0)
(-1.34835 0.931664 0)
(-1.47835 0.11086 0)
(-1.73653 -0.55882 0)
(-1.7339 -0.669997 0)
(-1.69669 -0.669699 0)
(-1.73351 -0.634026 0)
(-1.82414 -0.498925 0)
(-2.015 -0.0945458 0)
(-1.93387 0.00335963 0)
(-2.17075 -0.0481515 0)
(-1.98636 -0.558139 0)
(-0.0262606 0.503362 0)
(-0.0737182 0.511422 0)
(-0.128172 0.527618 0)
(-0.180138 0.553468 0)
(-0.241645 0.594994 0)
(-0.298253 0.656359 0)
(-0.367644 0.733172 0)
(-0.441192 0.853509 0)
(-0.526377 1.02433 0)
(-0.588456 1.25746 0)
(-0.615912 1.39806 0)
(-0.593546 1.39341 0)
(-0.640252 1.0689 0)
(-0.839572 0.336969 0)
(-1.21535 -0.347127 0)
(-1.56704 -0.651661 0)
(-1.53923 -0.646276 0)
(-1.59399 -0.466465 0)
(-1.6699 -0.317696 0)
(-1.65561 -0.265938 0)
(-1.56201 -0.238187 0)
(-1.43829 -0.220112 0)
(-1.4065 -0.248509 0)
(-0.0213904 0.551853 0)
(-0.059885 0.559803 0)
(-0.102682 0.575243 0)
(-0.140821 0.602718 0)
(-0.184186 0.64388 0)
(-0.217516 0.703669 0)
(-0.251862 0.779023 0)
(-0.270386 0.890029 0)
(-0.271981 1.03306 0)
(-0.219082 1.22023 0)
(-0.115083 1.35708 0)
(0.00285252 1.39286 0)
(0.103799 1.18539 0)
(0.031385 0.690398 0)
(-0.261295 0.174727 0)
(-0.678097 -0.327657 0)
(-1.04841 -0.633591 0)
(-1.38297 -0.633081 0)
(-1.45519 -0.387319 0)
(-1.4077 -0.261291 0)
(-1.36477 -0.23381 0)
(-1.32717 -0.224706 0)
(-1.31611 -0.229279 0)
(-0.0180424 0.585936 0)
(-0.0471924 0.593979 0)
(-0.082217 0.609997 0)
(-0.10969 0.636326 0)
(-0.140115 0.673329 0)
(-0.157565 0.725533 0)
(-0.170938 0.787846 0)
(-0.163732 0.875363 0)
(-0.130075 0.974682 0)
(-0.0504808 1.10038 0)
(0.0956694 1.17679 0)
(0.262308 1.18014 0)
(0.454197 1.03347 0)
(0.512558 0.714762 0)
(0.442515 0.356569 0)
(0.20549 0.137976 0)
(-0.144221 0.0565336 0)
(-0.640148 -0.00563172 0)
(-1.02399 -0.319601 0)
(-1.3376 -0.365379 0)
(-1.35533 -0.318018 0)
(-1.26839 -0.266476 0)
(-1.20952 -0.178114 0)
(-0.0136485 0.61662 0)
(-0.0351244 0.623495 0)
(-0.0603876 0.637171 0)
(-0.0775028 0.660095 0)
(-0.0949529 0.690828 0)
(-0.0986382 0.733995 0)
(-0.0962372 0.783508 0)
(-0.0718063 0.848769 0)
(-0.0265627 0.916652 0)
(0.0589175 0.993502 0)
(0.187089 1.03821 0)
(0.340422 1.03104 0)
(0.489629 0.928164 0)
(0.568224 0.70688 0)
(0.522274 0.47871 0)
(0.402401 0.273452 0)
(0.24535 0.210244 0)
(0.127041 0.232711 0)
(-0.0975693 0.331243 0)
(-0.524284 0.072652 0)
(-0.926786 -0.300493 0)
(-1.24121 -0.377757 0)
(-1.30492 -0.276583 0)
(-0.0108875 0.635651 0)
(-0.0254455 0.641621 0)
(-0.0450778 0.653381 0)
(-0.0549969 0.671763 0)
(-0.0658547 0.695518 0)
(-0.0625179 0.727575 0)
(-0.0537863 0.762031 0)
(-0.0248832 0.806061 0)
(0.0202975 0.844681 0)
(0.0942887 0.886025 0)
(0.197357 0.895274 0)
(0.316854 0.877029 0)
(0.443757 0.804499 0)
(0.519432 0.680945 0)
(0.523727 0.523349 0)
(0.457692 0.410103 0)
(0.368339 0.338907 0)
(0.271252 0.343137 0)
(0.2404 0.348787 0)
(0.214149 0.448442 0)
(-0.040807 0.410744 0)
(-0.452185 0.105335 0)
(-0.707063 -0.280523 0)
(-0.0078755 0.652515 0)
(-0.0171723 0.657204 0)
(-0.0301196 0.666226 0)
(-0.0339104 0.680287 0)
(-0.0379768 0.697598 0)
(-0.0289442 0.721227 0)
(-0.0161093 0.744585 0)
(0.014986 0.773902 0)
(0.0555746 0.795238 0)
(0.118445 0.81561 0)
(0.194234 0.811981 0)
(0.281208 0.784589 0)
(0.364631 0.721737 0)
(0.432476 0.631251 0)
(0.4571 0.536769 0)
(0.444546 0.437947 0)
(0.41084 0.391355 0)
(0.389039 0.362774 0)
(0.380691 0.383199 0)
(0.396354 0.367785 0)
(0.472309 0.372161 0)
(0.483142 0.295052 0)
(0.348323 0.193903 0)
(-0.00622207 0.661352 0)
(-0.0113475 0.664486 0)
(-0.0211555 0.670782 0)
(-0.0213199 0.680181 0)
(-0.023517 0.691193 0)
(-0.0127776 0.70614 0)
(-0.000492735 0.718648 0)
(0.0282755 0.734507 0)
(0.062937 0.741573 0)
(0.114539 0.746916 0)
(0.174588 0.732581 0)
(0.240627 0.705654 0)
(0.304189 0.652681 0)
(0.351017 0.587366 0)
(0.383313 0.511993 0)
(0.390964 0.45266 0)
(0.39037 0.398267 0)
(0.384025 0.369321 0)
(0.402027 0.34668 0)
(0.430681 0.345808 0)
(0.475454 0.32323 0)
(0.520992 0.229448 0)
(0.534324 0.0907004 0)
(-0.00451259 0.669689 0)
(-0.0069334 0.671694 0)
(-0.0136051 0.67577 0)
(-0.0115055 0.682104 0)
(-0.0110993 0.688465 0)
(0.000503195 0.69753 0)
(0.0127262 0.702627 0)
(0.0383681 0.709718 0)
(0.0669649 0.707575 0)
(0.108829 0.703324 0)
(0.1538 0.683908 0)
(0.205075 0.655184 0)
(0.251519 0.60918 0)
(0.292984 0.553937 0)
(0.319494 0.494537 0)
(0.339931 0.434803 0)
(0.354747 0.394913 0)
(0.370285 0.354455 0)
(0.391815 0.333468 0)
(0.42281 0.299259 0)
(0.474413 0.280962 0)
(0.525496 0.23674 0)
(0.527017 0.176169 0)
(-0.00385206 0.673247 0)
(-0.0046962 0.674012 0)
(-0.0102804 0.675782 0)
(-0.00722849 0.678056 0)
(-0.00679265 0.679564 0)
(0.00455881 0.682587 0)
(0.0150213 0.68103 0)
(0.0377327 0.680359 0)
(0.0602793 0.671203 0)
(0.094413 0.659918 0)
(0.12828 0.636257 0)
(0.168574 0.607532 0)
(0.204756 0.564568 0)
(0.239032 0.518754 0)
(0.266073 0.465247 0)
(0.287378 0.415778 0)
(0.307596 0.36908 0)
(0.32997 0.32999 0)
(0.358803 0.295402 0)
(0.392213 0.259516 0)
(0.43009 0.219966 0)
(0.478935 0.175309 0)
(0.518568 0.122488 0)
(-0.00326254 0.677914 0)
(-0.00390303 0.677761 0)
(-0.00875741 0.677977 0)
(-0.00652746 0.67818 0)
(-0.00684715 0.67626 0)
(0.00143029 0.675248 0)
(0.00933805 0.668907 0)
(0.0271797 0.663976 0)
(0.044622 0.650119 0)
(0.0726825 0.634909 0)
(0.0985877 0.608664 0)
(0.132247 0.57868 0)
(0.160752 0.537395 0)
(0.191769 0.493376 0)
(0.216309 0.444621 0)
(0.240765 0.394884 0)
(0.262598 0.350468 0)
(0.287652 0.304905 0)
(0.315844 0.269607 0)
(0.351178 0.22985 0)
(0.384752 0.193563 0)
(0.421372 0.149966 0)
(0.45658 0.117865 0)
(-0.00331777 0.680719 0)
(-0.00447609 0.679807 0)
(-0.00973185 0.678667 0)
(-0.0083761 0.676404 0)
(-0.00939613 0.671797 0)
(-0.00296554 0.666527 0)
(0.0029141 0.655312 0)
(0.0169526 0.645071 0)
(0.03041 0.625578 0)
(0.0522992 0.605858 0)
(0.0712437 0.57646 0)
(0.0980267 0.545228 0)
(0.119872 0.504744 0)
(0.146146 0.462941 0)
(0.168921 0.416038 0)
(0.193076 0.368883 0)
(0.217255 0.322092 0)
(0.244013 0.275803 0)
(0.273417 0.231531 0)
(0.310374 0.189207 0)
(0.348345 0.148714 0)
(0.387586 0.101705 0)
(0.430778 0.0641291 0)
(-0.00369514 0.68549 0)
(-0.00636415 0.683944 0)
(-0.0124742 0.681666 0)
(-0.0130155 0.67759 0)
(-0.0156134 0.670628 0)
(-0.0119868 0.662678 0)
(-0.00957247 0.648703 0)
(-0.000688787 0.636234 0)
(0.00787831 0.614386 0)
(0.0232481 0.593886 0)
(0.0370096 0.562394 0)
(0.0585897 0.530019 0)
(0.0767742 0.488535 0)
(0.100265 0.444618 0)
(0.121081 0.39676 0)
(0.145068 0.347202 0)
(0.168864 0.298495 0)
(0.197523 0.249558 0)
(0.22623 0.202363 0)
(0.262989 0.15589 0)
(0.300894 0.116016 0)
(0.341867 0.0688948 0)
(0.38237 0.030298 0)
(-0.0044655 0.690995 0)
(-0.00934525 0.688789 0)
(-0.0171304 0.6855 0)
(-0.020152 0.679694 0)
(-0.0248857 0.670868 0)
(-0.0242757 0.660575 0)
(-0.0248637 0.644017 0)
(-0.0200486 0.627625 0)
(-0.0148402 0.60148 0)
(-0.00427086 0.57666 0)
(0.00653535 0.540802 0)
(0.0220669 0.505359 0)
(0.0368407 0.462666 0)
(0.0556352 0.418502 0)
(0.0736556 0.370789 0)
(0.0962791 0.320859 0)
(0.119621 0.269109 0)
(0.149039 0.217989 0)
(0.179955 0.16529 0)
(0.218029 0.113715 0)
(0.260478 0.0685906 0)
(0.307308 0.0188701 0)
(0.358131 -0.0241644 0)
(-0.00542469 0.699208 0)
(-0.013194 0.696514 0)
(-0.0232018 0.692389 0)
(-0.0293092 0.685233 0)
(-0.0369416 0.674652 0)
(-0.0400224 0.66252 0)
(-0.0438166 0.644344 0)
(-0.0432947 0.626096 0)
(-0.0419712 0.598442 0)
(-0.0370697 0.572465 0)
(-0.0300958 0.535825 0)
(-0.0208806 0.499777 0)
(-0.00884777 0.454623 0)
(0.00597054 0.407964 0)
(0.0222991 0.355616 0)
(0.0435307 0.301468 0)
(0.0656068 0.245132 0)
(0.0948216 0.189547 0)
(0.125837 0.13282 0)
(0.164616 0.0758317 0)
(0.207937 0.0264795 0)
(0.257381 -0.0280378 0)
(0.312554 -0.0756913 0)
(-0.00675241 0.709793 0)
(-0.0181488 0.706743 0)
(-0.0310999 0.701778 0)
(-0.0406914 0.693579 0)
(-0.0516037 0.681704 0)
(-0.0586091 0.667561 0)
(-0.0658856 0.647335 0)
(-0.069647 0.625817 0)
(-0.0721552 0.595155 0)
(-0.0723445 0.564726 0)
(-0.0691318 0.524333 0)
(-0.0651958 0.483979 0)
(-0.0567059 0.435374 0)
(-0.0473165 0.387212 0)
(-0.0336534 0.332731 0)
(-0.0156858 0.277403 0)
(0.00484553 0.217214 0)
(0.0328884 0.15746 0)
(0.0644509 0.0946523 0)
(0.103373 0.0309679 0)
(0.148949 -0.0253782 0)
(0.202215 -0.0869468 0)
(0.264795 -0.140337 0)
(-0.00842773 0.724137 0)
(-0.0240975 0.72089 0)
(-0.0407163 0.71496 0)
(-0.0545639 0.705738 0)
(-0.0694535 0.692576 0)
(-0.0809353 0.676776 0)
(-0.0924117 0.655373 0)
(-0.100956 0.63236 0)
(-0.107896 0.601145 0)
(-0.113544 0.569508 0)
(-0.115271 0.528691 0)
(-0.116752 0.487507 0)
(-0.112523 0.436723 0)
(-0.107764 0.385084 0)
(-0.0967303 0.323776 0)
(-0.0838372 0.263037 0)
(-0.0657611 0.196193 0)
(-0.0410344 0.129979 0)
(-0.0117092 0.0619371 0)
(0.0257082 -0.00856599 0)
(0.0693942 -0.0726187 0)
(0.122019 -0.14369 0)
(0.1857 -0.205717 0)
(-0.0105409 0.742523 0)
(-0.0309853 0.739244 0)
(-0.0519529 0.732448 0)
(-0.0705929 0.722507 0)
(-0.0900506 0.708262 0)
(-0.106536 0.69068 0)
(-0.123102 0.667474 0)
(-0.137128 0.64138 0)
(-0.14968 0.607716 0)
(-0.16097 0.572066 0)
(-0.168611 0.527323 0)
(-0.175788 0.481076 0)
(-0.178171 0.425976 0)
(-0.180541 0.371228 0)
(-0.176303 0.308352 0)
(-0.170593 0.246347 0)
(-0.157304 0.173881 0)
(-0.140696 0.10324 0)
(-0.114924 0.0271845 0)
(-0.0810833 -0.0506402 0)
(-0.0385458 -0.122722 0)
(0.0142033 -0.204337 0)
(0.0789153 -0.274337 0)
(-0.0131444 0.765807 0)
(-0.038892 0.762455 0)
(-0.0651018 0.75471 0)
(-0.0893622 0.74395 0)
(-0.11424 0.72864 0)
(-0.136416 0.709917 0)
(-0.158694 0.686093 0)
(-0.178509 0.659064 0)
(-0.197232 0.625179 0)
(-0.214432 0.588646 0)
(-0.228837 0.543759 0)
(-0.242674 0.497344 0)
(-0.251852 0.441757 0)
(-0.260143 0.383471 0)
(-0.261938 0.313897 0)
(-0.263872 0.244031 0)
(-0.255927 0.166123 0)
(-0.246819 0.0874473 0)
(-0.224171 0.00199178 0)
(-0.200898 -0.0851205 0)
(-0.166126 -0.168175 0)
(-0.122783 -0.261276 0)
(-0.0696626 -0.339842 0)
(-0.0159869 0.794847 0)
(-0.0471756 0.791507 0)
(-0.0790037 0.78322 0)
(-0.109229 0.771933 0)
(-0.140142 0.755612 0)
(-0.168854 0.735384 0)
(-0.197988 0.709788 0)
(-0.224788 0.680062 0)
(-0.25116 0.643701 0)
(-0.275595 0.603668 0)
(-0.298348 0.555442 0)
(-0.319675 0.503973 0)
(-0.338012 0.443124 0)
(-0.355158 0.381173 0)
(-0.366599 0.311783 0)
(-0.37569 0.240431 0)
(-0.374446 0.156511 0)
(-0.374532 0.0715987 0)
(-0.362712 -0.0192245 0)
(-0.357841 -0.108826 0)
(-0.328743 -0.201613 0)
(-0.296479 -0.301611 0)
(-0.248763 -0.389378 0)
(-0.0191879 0.829222 0)
(-0.0563926 0.825739 0)
(-0.0944916 0.817018 0)
(-0.131091 0.805313 0)
(-0.168292 0.788509 0)
(-0.203498 0.767989 0)
(-0.239154 0.742319 0)
(-0.272489 0.712532 0)
(-0.305854 0.676387 0)
(-0.337072 0.63623 0)
(-0.367266 0.588334 0)
(-0.39554 0.537453 0)
(-0.420804 0.477784 0)
(-0.444588 0.412415 0)
(-0.463206 0.334714 0)
(-0.481344 0.251795 0)
(-0.493655 0.164984 0)
(-0.5121 0.0753755 0)
(-0.525547 -0.0147747 0)
(-0.519977 -0.119421 0)
(-0.492934 -0.229797 0)
(-0.457098 -0.341537 0)
(-0.402227 -0.448729 0)
(-0.0222368 0.870872 0)
(-0.0653244 0.867286 0)
(-0.109693 0.858391 0)
(-0.152905 0.846186 0)
(-0.197059 0.828476 0)
(-0.239784 0.806635 0)
(-0.28323 0.779138 0)
(-0.324656 0.747009 0)
(-0.366342 0.708472 0)
(-0.405773 0.665161 0)
(-0.444831 0.613933 0)
(-0.481837 0.557489 0)
(-0.51771 0.492051 0)
(-0.550169 0.423617 0)
(-0.58023 0.348539 0)
(-0.611773 0.271297 0)
(-0.647817 0.187304 0)
(-0.678752 0.104183 0)
(-0.670674 -0.0114864 0)
(-0.653829 -0.141347 0)
(-0.618019 -0.26488 0)
(-0.570833 -0.392938 0)
(-0.506268 -0.517157 0)
(-0.0254349 0.917071 0)
(-0.0746575 0.91351 0)
(-0.125211 0.904911 0)
(-0.17442 0.892976 0)
(-0.224524 0.875738 0)
(-0.273188 0.854515 0)
(-0.322614 0.827648 0)
(-0.370182 0.796124 0)
(-0.418305 0.7581 0)
(-0.464031 0.715315 0)
(-0.509716 0.66508 0)
(-0.552724 0.610954 0)
(-0.595702 0.546811 0)
(-0.640457 0.475331 0)
(-0.690426 0.396728 0)
(-0.748967 0.319332 0)
(-0.793629 0.232384 0)
(-0.791031 0.0976893 0)
(-0.771199 -0.0398346 0)
(-0.745611 -0.172694 0)
(-0.703716 -0.313261 0)
(-0.644378 -0.453877 0)
(-0.570331 -0.597345 0)
(-0.0286175 0.971693 0)
(-0.084379 0.967825 0)
(-0.141647 0.958888 0)
(-0.19793 0.946185 0)
(-0.255386 0.927901 0)
(-0.311711 0.905288 0)
(-0.368879 0.876637 0)
(-0.42444 0.84308 0)
(-0.480757 0.802653 0)
(-0.535585 0.756783 0)
(-0.591593 0.70286 0)
(-0.647461 0.6436 0)
(-0.704617 0.580015 0)
(-0.762055 0.518772 0)
(-0.825478 0.4576 0)
(-0.877212 0.375521 0)
(-0.873783 0.229409 0)
(-0.857011 0.0822424 0)
(-0.842344 -0.0570118 0)
(-0.801503 -0.208913 0)
(-0.749817 -0.366434 0)
(-0.679648 -0.527066 0)
(-0.601409 -0.683404 0)
(-0.0310023 1.03024 0)
(-0.0915149 1.02678 0)
(-0.153742 1.01874 0)
(-0.214804 1.00702 0)
(-0.277107 0.989944 0)
(-0.338271 0.968477 0)
(-0.400443 0.940986 0)
(-0.461077 0.908644 0)
(-0.522611 0.870006 0)
(-0.582617 0.826923 0)
(-0.645308 0.777769 0)
(-0.710041 0.724817 0)
(-0.785622 0.662217 0)
(-0.867572 0.596745 0)
(-0.933988 0.512439 0)
(-0.934923 0.367336 0)
(-0.917688 0.212073 0)
(-0.911287 0.065605 0)
(-0.873384 -0.0959406 0)
(-0.824072 -0.266048 0)
(-0.760676 -0.436055 0)
(-0.692558 -0.603236 0)
(-0.618047 -0.764755 0)
(-0.0351773 1.09534 0)
(-0.103762 1.09171 0)
(-0.173573 1.08322 0)
(-0.242347 1.0705 0)
(-0.312372 1.05221 0)
(-0.38116 1.02935 0)
(-0.451368 1.00006 0)
(-0.520316 0.965771 0)
(-0.590988 0.924654 0)
(-0.660773 0.879869 0)
(-0.733884 0.830763 0)
(-0.809963 0.78427 0)
(-0.890501 0.738292 0)
(-0.968787 0.667777 0)
(-0.986985 0.525377 0)
(-0.9658 0.359488 0)
(-0.958269 0.206006 0)
(-0.923896 0.0379817 0)
(-0.875045 -0.144118 0)
(-0.820698 -0.321889 0)
(-0.759164 -0.498134 0)
(-0.695316 -0.670135 0)
(-0.625703 -0.837782 0)
(-0.0360515 1.16926 0)
(-0.106857 1.16536 0)
(-0.179182 1.15761 0)
(-0.251032 1.1462 0)
(-0.324713 1.12932 0)
(-0.397502 1.10811 0)
(-0.471722 1.08096 0)
(-0.5457 1.04911 0)
(-0.622433 1.01145 0)
(-0.701782 0.970811 0)
(-0.787684 0.928038 0)
(-0.87741 0.882685 0)
(-0.966745 0.821826 0)
(-1.00354 0.693965 0)
(-0.98324 0.509156 0)
(-0.976933 0.338301 0)
(-0.954105 0.16925 0)
(-0.907786 -0.0184695 0)
(-0.860462 -0.200356 0)
(-0.805107 -0.38311 0)
(-0.748155 -0.562698 0)
(-0.685087 -0.73802 0)
(-0.620815 -0.908826 0)
(-0.0407257 1.23942 0)
(-0.121185 1.23606 0)
(-0.202891 1.22846 0)
(-0.282835 1.21698 0)
(-0.363539 1.19945 0)
(-0.443332 1.17704 0)
(-0.524764 1.14876 0)
(-0.605431 1.11698 0)
(-0.690374 1.0811 0)
(-0.778616 1.04559 0)
(-0.87595 1.00678 0)
(-0.968773 0.963445 0)
(-1.03092 0.865349 0)
(-1.01748 0.683377 0)
(-0.998542 0.499824 0)
(-0.97775 0.330022 0)
(-0.93306 0.137721 0)
(-0.885184 -0.0556622 0)
(-0.833991 -0.246345 0)
(-0.778604 -0.434073 0)
(-0.722367 -0.617866 0)
(-0.663269 -0.797354 0)
(-0.602804 -0.9701 0)
(-0.040666 1.3319 0)
(-0.120815 1.32839 0)
(-0.202799 1.32015 0)
(-0.284052 1.3078 0)
(-0.367087 1.29097 0)
(-0.450572 1.27057 0)
(-0.536242 1.24448 0)
(-0.62261 1.21617 0)
(-0.712687 1.18626 0)
(-0.808247 1.15801 0)
(-0.906018 1.11999 0)
(-0.996825 1.03945 0)
(-1.02071 0.870737 0)
(-0.992585 0.662211 0)
(-0.98256 0.468023 0)
(-0.945469 0.272072 0)
(-0.897308 0.0748606 0)
(-0.850266 -0.118974 0)
(-0.797224 -0.308629 0)
(-0.745976 -0.496441 0)
(-0.691305 -0.679729 0)
(-0.637538 -0.859488 0)
(-0.581792 -1.03288 0)
(-0.0449804 1.40094 0)
(-0.133933 1.39834 0)
(-0.225162 1.39179 0)
(-0.3165 1.38136 0)
(-0.409994 1.36593 0)
(-0.502367 1.34616 0)
(-0.596379 1.32057 0)
(-0.691787 1.29334 0)
(-0.791854 1.26645 0)
(-0.891682 1.239 0)
(-0.983777 1.19468 0)
(-1.03471 1.07806 0)
(-1.01757 0.860157 0)
(-0.993659 0.645571 0)
(-0.957656 0.453193 0)
(-0.909948 0.245542 0)
(-0.858982 0.0436372 0)
(-0.806378 -0.155119 0)
(-0.756065 -0.349527 0)
(-0.703765 -0.539293 0)
(-0.653896 -0.725119 0)
(-0.600596 -0.906079 0)
(-0.550949 -1.08208 0)
(-0.0444822 1.51372 0)
(-0.132241 1.51159 0)
(-0.222188 1.5056 0)
(-0.311853 1.49551 0)
(-0.404257 1.47968 0)
(-0.496534 1.45978 0)
(-0.593087 1.43679 0)
(-0.691382 1.41454 0)
(-0.795903 1.38902 0)
(-0.896988 1.35253 0)
(-0.985468 1.26583 0)
(-1.00976 1.07428 0)
(-0.973743 0.830254 0)
(-0.957577 0.601075 0)
(-0.913401 0.382738 0)
(-0.865675 0.171122 0)
(-0.818297 -0.0310232 0)
(-0.766394 -0.224176 0)
(-0.71909 -0.413572 0)
(-0.669389 -0.601122 0)
(-0.623344 -0.785342 0)
(-0.572774 -0.965254 0)
(-0.52656 -1.14079 0)
(-0.0480088 1.57453 0)
(-0.143374 1.57307 0)
(-0.241091 1.56852 0)
(-0.34015 1.56067 0)
(-0.442603 1.54805 0)
(-0.547621 1.5326 0)
(-0.65441 1.51305 0)
(-0.762392 1.49402 0)
(-0.870084 1.47018 0)
(-0.967217 1.42671 0)
(-1.02516 1.30616 0)
(-1.00984 1.06455 0)
(-0.973778 0.808602 0)
(-0.932592 0.585402 0)
(-0.87965 0.363049 0)
(-0.825208 0.151845 0)
(-0.772433 -0.0537547 0)
(-0.724526 -0.25284 0)
(-0.675868 -0.44452 0)
(-0.629513 -0.633267 0)
(-0.584202 -0.819357 0)
(-0.537286 -1.00075 0)
(-0.492622 -1.17792 0)
(-0.0477433 1.71293 0)
(-0.14208 1.7125 0)
(-0.238473 1.71 0)
(-0.334841 1.70451 0)
(-0.434183 1.69426 0)
(-0.534398 1.67865 0)
(-0.637347 1.65815 0)
(-0.743454 1.63678 0)
(-0.849296 1.59937 0)
(-0.944952 1.51256 0)
(-0.988575 1.31101 0)
(-0.954942 1.02343 0)
(-0.927709 0.751699 0)
(-0.884139 0.504803 0)
(-0.83382 0.27237 0)
(-0.78758 0.0606058 0)
(-0.735836 -0.134818 0)
(-0.690701 -0.324157 0)
(-0.645626 -0.511886 0)
(-0.602148 -0.696727 0)
(-0.559959 -0.881413 0)