/*--------------------------------*- C++ -*----------------------------------*\
| =========                 |                                                 |
| \\      /  F ield         | OpenFOAM: The Open Source CFD Toolbox           |
|  \\    /   O peration     | Version:  2012                                  |
|   \\  /    A nd           | Website:  www.openfoam.com                      |
|    \\/     M anipulation  |                                                 |
\*---------------------------------------------------------------------------*/
FoamFile
{
    version     2.0;
    format      ascii;
    class       volVectorField;
    location    "0.75";
    object      Uc;
}
// * * * * * * * * * * * * * * * * * * * * * * * * * * * * * * * * * * * * * //

dimensions      [0 1 -1 0 0 0 0];


internalField   nonuniform List<vector> 
2268
(
(-0.0110747 0.00523381 0)
(-0.0324219 0.00485473 0)
(-0.0535057 0.00510929 0)
(-0.0758541 0.00545241 0)
(-0.0983942 0.00519987 0)
(-0.118828 0.00445675 0)
(-0.137152 0.0042034 0)
(-0.154779 0.00412689 0)
(-0.170461 0.00328437 0)
(-0.183269 0.00276855 0)
(-0.193615 0.00212059 0)
(-0.200682 0.00121952 0)
(-0.203819 0.000263021 0)
(-0.203277 -0.000519416 0)
(-0.199452 -0.0012882 0)
(-0.192425 -0.00203289 0)
(-0.180717 -0.00349981 0)
(-0.162691 -0.00501925 0)
(-0.137783 -0.00675216 0)
(-0.104609 -0.00892547 0)
(-0.0690906 -0.00786045 0)
(-0.0267449 -0.0121518 0)
(-0.000515951 -0.000243829 0)
(-0.0112204 0.0157703 0)
(-0.0327695 0.0145907 0)
(-0.053847 0.0152984 0)
(-0.0759741 0.0162821 0)
(-0.0982811 0.0155645 0)
(-0.118741 0.0134179 0)
(-0.13732 0.0126828 0)
(-0.15512 0.0123901 0)
(-0.170766 0.00982624 0)
(-0.18358 0.00833574 0)
(-0.194055 0.00639285 0)
(-0.201255 0.00369005 0)
(-0.20463 0.000870125 0)
(-0.20441 -0.00148731 0)
(-0.200795 -0.0038361 0)
(-0.193816 -0.00610449 0)
(-0.182209 -0.0104463 0)
(-0.164488 -0.0149666 0)
(-0.140301 -0.0200064 0)
(-0.108797 -0.0262375 0)
(-0.0750798 -0.0232691 0)
(-0.0354797 -0.0354701 0)
(-0.00592575 -0.00328811 0)
(-0.0112914 0.0264092 0)
(-0.0328307 0.0243151 0)
(-0.0537429 0.025418 0)
(-0.0757022 0.0269974 0)
(-0.0981545 0.0260021 0)
(-0.119384 0.0226823 0)
(-0.138924 0.0214333 0)
(-0.157189 0.020684 0)
(-0.172904 0.0163528 0)
(-0.185654 0.0138907 0)
(-0.195702 0.010537 0)
(-0.202368 0.00609864 0)
(-0.205474 0.00152449 0)
(-0.205285 -0.00233542 0)
(-0.201802 -0.0063422 0)
(-0.194806 -0.0102028 0)
(-0.182938 -0.0174426 0)
(-0.164525 -0.0250471 0)
(-0.139247 -0.0333022 0)
(-0.105709 -0.0436801 0)
(-0.0672533 -0.0399348 0)
(-0.0213124 -0.0592303 0)
(0.00266791 -0.00482773 0)
(-0.0114587 0.0371607 0)
(-0.0332916 0.0340609 0)
(-0.0544428 0.035551 0)
(-0.0762386 0.0375429 0)
(-0.098164 0.0364291 0)
(-0.119281 0.0322679 0)
(-0.139154 0.0304741 0)
(-0.157677 0.0290288 0)
(-0.173622 0.0229704 0)
(-0.186728 0.0194924 0)
(-0.197318 0.0146885 0)
(-0.204909 0.00868484 0)
(-0.208964 0.00232258 0)
(-0.209329 -0.00305046 0)
(-0.206111 -0.00879403 0)
(-0.199551 -0.014157 0)
(-0.188695 -0.0242278 0)
(-0.171442 -0.0351173 0)
(-0.147099 -0.0466825 0)
(-0.113889 -0.0618446 0)
(-0.0738584 -0.0588621 0)
(-0.0245509 -0.0853167 0)
(0.00199967 -0.00262185 0)
(-0.0111689 0.0478543 0)
(-0.0328485 0.0439309 0)
(-0.0542308 0.0457819 0)
(-0.0761609 0.0479764 0)
(-0.0984155 0.0468747 0)
(-0.120715 0.0423408 0)
(-0.142256 0.0399732 0)
(-0.161674 0.0374601 0)
(-0.177748 0.0296711 0)
(-0.190617 0.0250677 0)
(-0.200368 0.0187256 0)
(-0.207038 0.0113874 0)
(-0.210587 0.00321369 0)
(-0.210841 -0.003649 0)
(-0.207826 -0.0111413 0)
(-0.201654 -0.0178268 0)
(-0.191092 -0.0306801 0)
(-0.173569 -0.0450996 0)
(-0.14787 -0.0603499 0)
(-0.111591 -0.0810175 0)
(-0.0627511 -0.0816886 0)
(0.00123647 -0.116033 0)
(0.0188403 0.007227 0)
(-0.0110746 0.0583664 0)
(-0.0334514 0.0542395 0)
(-0.0558624 0.0561697 0)
(-0.0776831 0.0582649 0)
(-0.0990147 0.0571847 0)
(-0.120655 0.0527966 0)
(-0.142239 0.0498977 0)
(-0.161914 0.0460107 0)
(-0.178631 0.0366172 0)
(-0.192639 0.0308238 0)
(-0.203783 0.0228441 0)
(-0.211968 0.0142893 0)
(-0.216564 0.00416087 0)
(-0.217248 -0.00415257 0)
(-0.214629 -0.0133002 0)
(-0.20958 -0.0209712 0)
(-0.200944 -0.0366087 0)
(-0.185566 -0.0547192 0)
(-0.161395 -0.0742984 0)
(-0.125206 -0.101317 0)
(-0.0735052 -0.108903 0)
(-0.00431024 -0.151759 0)
(0.017421 0.0243638 0)
(-0.0102279 0.0684338 0)
(-0.0321216 0.065094 0)
(-0.055233 0.0668288 0)
(-0.0775134 0.0684477 0)
(-0.0993429 0.0673994 0)
(-0.122685 0.0638402 0)
(-0.146795 0.0604484 0)
(-0.167889 0.054727 0)
(-0.184614 0.0437056 0)
(-0.197874 0.036622 0)
(-0.207663 0.0269386 0)
(-0.21455 0.0173178 0)
(-0.218453 0.00514859 0)
(-0.219133 -0.00449563 0)
(-0.217191 -0.0151123 0)
(-0.213346 -0.0233624 0)
(-0.205731 -0.041898 0)
(-0.190564 -0.0638653 0)
(-0.164934 -0.0886875 0)
(-0.124358 -0.123207 0)
(-0.0631334 -0.140381 0)
(0.0217336 -0.19309 0)
(0.0350185 0.0491463 0)
(-0.0100131 0.0779995 0)
(-0.032088 0.0763076 0)
(-0.055917 0.0777989 0)
(-0.0782396 0.0785566 0)
(-0.0993871 0.0776011 0)
(-0.122693 0.0756839 0)
(-0.147838 0.0718822 0)
(-0.170279 0.0638679 0)
(-0.18826 0.0509667 0)
(-0.202421 0.0423195 0)
(-0.213435 0.0310724 0)
(-0.222042 0.0205067 0)
(-0.226607 0.00596165 0)
(-0.226913 -0.00484307 0)
(-0.225288 -0.0164505 0)
(-0.223395 -0.0247359 0)
(-0.218386 -0.0464904 0)
(-0.206437 -0.072088 0)
(-0.185596 -0.102426 0)
(-0.153912 -0.143618 0)
(-0.104173 -0.172411 0)
(-0.0457751 -0.228766 0)
(-0.00929397 0.0613035 0)
(-0.442393 0.188056 0)
(-1.09224 0.088162 0)
(-1.3989 0.0421498 0)
(-1.51131 0.00563406 0)
(-1.45202 -0.0307509 0)
(-1.28371 -0.0407359 0)
(-1.16702 -0.00889333 0)
(-1.2188 0.0308455 0)
(-1.38089 0.0379339 0)
(-1.51435 0.0186461 0)
(-1.58289 0.0103721 0)
(-1.62827 0.00880866 0)
(-1.67912 0.012717 0)
(-1.74609 0.0156639 0)
(-1.81176 0.0121712 0)
(-1.84685 0.00270751 0)
(-1.72392 -0.0547466 0)
(-1.27208 -0.137088 0)
(-0.474785 -0.202035 0)
(-0.370932 0.533782 0)
(-0.921021 0.252476 0)
(-1.1798 0.11814 0)
(-1.25373 0.00886163 0)
(-1.15617 -0.100499 0)
(-0.961973 -0.125003 0)
(-0.879371 -0.00940667 0)
(-0.998743 0.104001 0)
(-1.17458 0.108192 0)
(-1.28822 0.0531268 0)
(-1.3506 0.0312928 0)
(-1.4047 0.0299463 0)
(-1.46494 0.0385698 0)
(-1.52204 0.0422211 0)
(-1.56657 0.0320799 0)
(-1.57491 0.000975003 0)
(-1.38812 -0.184006 0)
(-0.968911 -0.377464 0)
(-0.363156 -0.558696 0)
(-0.315694 0.826064 0)
(-0.758108 0.382512 0)
(-0.963226 0.185303 0)
(-1.02605 -0.000119355 0)
(-0.856614 -0.204753 0)
(-0.522102 -0.245369 0)
(-0.318663 -0.0107482 0)
(-0.408218 0.193946 0)
(-0.673181 0.20528 0)
(-0.970546 0.130444 0)
(-1.21609 0.0845086 0)
(-1.37297 0.065905 0)
(-1.45951 0.0644369 0)
(-1.51418 0.0631066 0)
(-1.55831 0.048065 0)
(-1.4926 -0.0401812 0)
(-1.12014 -0.380031 0)
(-0.629082 -0.567935 0)
(-0.212431 -0.804091 0)
(-0.211082 1.05071 0)
(-0.572611 0.500351 0)
(-0.87962 0.285287 0)
(-0.969373 -0.0349925 0)
(-0.661497 -0.372295 0)
(-0.247745 -0.395687 0)
(0.0715656 -0.0828396 0)
(0.332856 0.192849 0)
(0.422868 0.280516 0)
(0.258527 0.251196 0)
(-0.118959 0.22817 0)
(-0.590143 0.188593 0)
(-0.979083 0.143108 0)
(-1.16207 0.0845008 0)
(-1.13127 0.0313048 0)
(-0.868014 -0.164337 0)
(-0.516244 -0.563803 0)
(-0.247891 -0.707171 0)
(-0.0631516 -0.921882 0)
(-0.130143 1.1963 0)
(-0.37017 0.611073 0)
(-0.624021 0.413305 0)
(-0.61428 -0.128595 0)
(-0.231666 -0.571888 0)
(0.0688688 -0.499658 0)
(0.231772 -0.184035 0)
(0.436665 0.0957903 0)
(0.631881 0.256292 0)
(0.758741 0.291185 0)
(0.864118 0.303454 0)
(0.952839 0.275352 0)
(0.971697 0.213006 0)
(0.856761 0.140389 0)
(0.626378 0.0593076 0)
(0.340705 -0.183764 0)
(0.0249435 -0.560294 0)
(-0.0521563 -0.792597 0)
(0.0130143 -0.943386 0)
(-0.0645726 1.27941 0)
(-0.101997 0.646306 0)
(-0.0909239 0.481515 0)
(-0.0361733 -0.224 0)
(0.129119 -0.709262 0)
(0.263425 -0.547107 0)
(0.387692 -0.258775 0)
(0.544943 0.0164867 0)
(0.661774 0.202875 0)
(0.748245 0.253841 0)
(0.831111 0.260526 0)
(0.904836 0.248766 0)
(0.96633 0.204821 0)
(1.01267 0.17694 0)
(1.04913 0.104386 0)
(0.958065 -0.0694461 0)
(0.681029 -0.423116 0)
(0.33017 -0.748339 0)
(0.0734978 -0.906606 0)
(-0.0302025 1.31987 0)
(-0.0764412 0.641687 0)
(0.0173545 0.441687 0)
(0.269216 -0.305373 0)
(0.378264 -0.735341 0)
(0.374107 -0.576339 0)
(0.469607 -0.323054 0)
(0.583523 -0.0345772 0)
(0.657754 0.172676 0)
(0.725545 0.218422 0)
(0.807789 0.22568 0)
(0.881758 0.220644 0)
(0.937931 0.182618 0)
(0.984022 0.159434 0)
(1.02292 0.0893823 0)
(1.01303 -0.0119907 0)
(0.866367 -0.300588 0)
(0.474046 -0.555046 0)
(0.101025 -0.83237 0)
(0.00351986 1.33127 0)
(-0.143711 0.71316 0)
(-0.149184 0.333246 0)
(0.232579 -0.456852 0)
(0.43511 -0.706944 0)
(0.428776 -0.600389 0)
(0.521144 -0.379035 0)
(0.621926 -0.0699422 0)
(0.664963 0.158249 0)
(0.704387 0.187254 0)
(0.774945 0.191819 0)
(0.844835 0.193298 0)
(0.897553 0.163637 0)
(0.935332 0.142708 0)
(0.961654 0.0782635 0)
(0.940463 0.0122149 0)
(0.780331 -0.194418 0)
(0.398239 -0.33192 0)
(0.0727915 -0.758434 0)
(-0.0090875 0.0919053 0)
(-0.0296941 0.0936169 0)
(-0.0529409 0.0951651 0)
(-0.0754493 0.0943865 0)
(-0.0963328 0.0927603 0)
(-0.117808 0.0931213 0)
(-0.140632 0.0892662 0)
(-0.163039 0.0796115 0)
(-0.183931 0.064722 0)
(-0.201947 0.0533666 0)
(-0.216232 0.03959 0)
(-0.22587 0.0257452 0)
(-0.22892 0.00594561 0)
(-0.228179 -0.00542699 0)
(-0.227955 -0.0168599 0)
(-0.229771 -0.0233957 0)
(-0.228662 -0.0513124 0)
(-0.220417 -0.0812013 0)
(-0.207382 -0.116265 0)
(-0.192587 -0.159625 0)
(-0.157058 -0.215625 0)
(-0.0959079 -0.274612 0)
(0.0778463 -0.0847918 0)
(-0.0146963 0.115952 0)
(-0.0469102 0.122957 0)
(-0.0834303 0.126229 0)
(-0.119306 0.122378 0)
(-0.14801 0.115011 0)
(-0.169722 0.114693 0)
(-0.189157 0.110563 0)
(-0.206251 0.0983071 0)
(-0.217593 0.0785557 0)
(-0.222279 0.0623791 0)
(-0.221892 0.0445469 0)
(-0.219294 0.0278619 0)
(-0.219268 0.00686524 0)
(-0.225641 -0.000685547 0)
(-0.238398 -0.00900374 0)
(-0.254357 -0.0133839 0)
(-0.26383 -0.0529167 0)
(-0.263921 -0.0877932 0)
(-0.263538 -0.123161 0)
(-0.270978 -0.160123 0)
(-0.283799 -0.237954 0)
(-0.281675 -0.315932 0)
(-0.236812 -0.262725 0)
(-0.0210883 0.152019 0)
(-0.0633174 0.161938 0)
(-0.10705 0.168202 0)
(-0.150159 0.160168 0)
(-0.18799 0.144549 0)
(-0.223627 0.143321 0)
(-0.261678 0.140294 0)
(-0.295521 0.120388 0)
(-0.313485 0.0865335 0)
(-0.315445 0.0615959 0)
(-0.307923 0.037728 0)
(-0.295011 0.0192682 0)
(-0.276115 -0.00348976 0)
(-0.251985 -0.00820437 0)
(-0.23191 -0.00893602 0)
(-0.225383 -0.004065 0)
(-0.231807 -0.0463338 0)
(-0.24344 -0.0826512 0)
(-0.25748 -0.11462 0)
(-0.290325 -0.12819 0)
(-0.355717 -0.191269 0)
(-0.45732 -0.262802 0)
(-0.582911 -0.234075 0)
(-0.0288664 0.202223 0)
(-0.0833483 0.208928 0)
(-0.131837 0.213901 0)
(-0.176734 0.202937 0)
(-0.225823 0.189188 0)
(-0.281961 0.191023 0)
(-0.336965 0.186306 0)
(-0.385792 0.157811 0)
(-0.422815 0.104908 0)
(-0.441285 0.0643603 0)
(-0.447408 0.0340432 0)
(-0.467216 0.0301696 0)
(-0.536522 0.0363933 0)
(-0.65524 0.0469741 0)
(-0.783154 0.0445484 0)
(-0.847603 1.04331e-05 0)
(-0.769868 -0.123107 0)
(-0.598225 -0.166819 0)
(-0.454691 -0.160313 0)
(-0.386675 -0.117369 0)
(-0.394585 -0.128262 0)
(-0.474618 -0.143343 0)
(-0.59335 -0.108269 0)
(-0.0335474 0.264945 0)
(-0.0994365 0.267171 0)
(-0.161753 0.267009 0)
(-0.223784 0.257282 0)
(-0.296093 0.256842 0)
(-0.37875 0.262859 0)
(-0.461458 0.252883 0)
(-0.550547 0.229868 0)
(-0.668267 0.188439 0)
(-0.858544 0.190773 0)
(-1.18471 0.241799 0)
(-1.62408 0.28416 0)
(-2.02998 0.260283 0)
(-2.28014 0.194234 0)
(-2.28573 0.0320827 0)
(-2.05266 -0.157191 0)
(-1.7269 -0.370446 0)
(-1.41166 -0.404943 0)
(-1.12844 -0.347888 0)
(-0.890121 -0.236726 0)
(-0.721282 -0.170551 0)
(-0.62089 -0.121549 0)
(-0.549685 -0.0827519 0)
(-0.0308226 0.329635 0)
(-0.0932403 0.331426 0)
(-0.158736 0.331203 0)
(-0.232479 0.32954 0)
(-0.318855 0.344065 0)
(-0.419208 0.359571 0)
(-0.536248 0.356933 0)
(-0.683474 0.363338 0)
(-0.897189 0.388111 0)
(-1.24018 0.52715 0)
(-1.7207 0.716328 0)
(-2.22975 0.763067 0)
(-2.62745 0.589343 0)
(-2.69348 0.183425 0)
(-2.37842 -0.267064 0)
(-2.00426 -0.464186 0)
(-1.80043 -0.588702 0)
(-1.69893 -0.599569 0)
(-1.57617 -0.558799 0)
(-1.37087 -0.472569 0)
(-1.10539 -0.372903 0)
(-0.85548 -0.272418 0)
(-0.646789 -0.214058 0)
(-0.0312401 0.392007 0)
(-0.0947348 0.395594 0)
(-0.162363 0.400824 0)
(-0.238513 0.410563 0)
(-0.325448 0.437228 0)
(-0.427008 0.469347 0)
(-0.555331 0.493773 0)
(-0.724314 0.544331 0)
(-0.951385 0.650186 0)
(-1.23067 0.890599 0)
(-1.51311 1.11981 0)
(-1.76701 1.12649 0)
(-1.95055 0.810197 0)
(-1.97968 0.0583097 0)
(-1.90642 -0.530162 0)
(-1.84858 -0.626307 0)
(-1.8239 -0.64761 0)
(-1.82306 -0.64269 0)
(-1.86311 -0.60371 0)
(-2.08992 -0.410907 0)
(-2.43004 -0.360742 0)
(-2.66861 -0.296668 0)
(-2.66578 -0.402829 0)
(-0.0276701 0.451209 0)
(-0.0842154 0.457028 0)
(-0.14459 0.468032 0)
(-0.211502 0.487134 0)
(-0.285939 0.522842 0)
(-0.371362 0.571664 0)
(-0.477274 0.626886 0)
(-0.61265 0.717142 0)
(-0.776112 0.86993 0)
(-0.941251 1.1176 0)
(-1.08054 1.31672 0)
(-1.2115 1.31641 0)
(-1.34627 0.94023 0)
(-1.51285 0.125028 0)
(-1.67406 -0.507121 0)
(-1.72594 -0.648895 0)
(-1.71566 -0.653866 0)
(-1.74763 -0.605828 0)
(-1.86694 -0.488715 0)
(-1.95749 -0.211911 0)
(-2.00446 -0.168162 0)
(-2.07653 -0.175256 0)
(-2.151 -0.450867 0)
(-0.0250792 0.504219 0)
(-0.0757291 0.511744 0)
(-0.12798 0.5265 0)
(-0.18316 0.551367 0)
(-0.24122 0.591771 0)
(-0.302519 0.650196 0)
(-0.369938 0.722563 0)
(-0.445787 0.833771 0)
(-0.522506 0.994719 0)
(-0.581896 1.2185 0)
(-0.60584 1.37988 0)
(-0.612635 1.3917 0)
(-0.679741 1.06786 0)
(-0.886031 0.37221 0)
(-1.21115 -0.265342 0)
(-1.47532 -0.571728 0)
(-1.56901 -0.644431 0)
(-1.60198 -0.547735 0)
(-1.64546 -0.382834 0)
(-1.63717 -0.233938 0)
(-1.55442 -0.18029 0)
(-1.46176 -0.182799 0)
(-1.50677 -0.322571 0)
(-0.020402 0.549924 0)
(-0.061201 0.557937 0)
(-0.101927 0.573741 0)
(-0.142709 0.600563 0)
(-0.182434 0.640843 0)
(-0.218733 0.699207 0)
(-0.249063 0.771787 0)
(-0.267593 0.879396 0)
(-0.260063 1.01863 0)
(-0.208108 1.20206 0)
(-0.113166 1.32496 0)
(-0.00326567 1.34298 0)
(0.0594796 1.12095 0)
(-0.0253259 0.611711 0)
(-0.294802 0.0928336 0)
(-0.668983 -0.288239 0)
(-1.04108 -0.459671 0)
(-1.31713 -0.420052 0)
(-1.42743 -0.349601 0)
(-1.41098 -0.284337 0)
(-1.36623 -0.255878 0)
(-1.33437 -0.233363 0)
(-1.34374 -0.22093 0)
(-0.0163834 0.586888 0)
(-0.0488847 0.59463 0)
(-0.0807013 0.609943 0)
(-0.110965 0.635752 0)
(-0.137549 0.672282 0)
(-0.157423 0.724209 0)
(-0.166801 0.786676 0)
(-0.158373 0.874639 0)
(-0.119954 0.977175 0)
(-0.0353602 1.10623 0)
(0.0993219 1.18995 0)
(0.2671 1.19885 0)
(0.419818 1.04848 0)
(0.479014 0.709906 0)
(0.399249 0.345677 0)
(0.175643 0.0597986 0)
(-0.183471 -0.0726977 0)
(-0.612934 -0.0977883 0)
(-1.00668 -0.163032 0)
(-1.26382 -0.223848 0)
(-1.33003 -0.290488 0)
(-1.27668 -0.280699 0)
(-1.22577 -0.216238 0)
(-0.0122627 0.61567 0)
(-0.0362706 0.622625 0)
(-0.0586897 0.63644 0)
(-0.0780605 0.659123 0)
(-0.0921256 0.689748 0)
(-0.0978725 0.732474 0)
(-0.0916261 0.781537 0)
(-0.0676393 0.847171 0)
(-0.0176651 0.915767 0)
(0.0683523 0.996122 0)
(0.192183 1.04019 0)
(0.338162 1.03322 0)
(0.470879 0.927191 0)
(0.535957 0.706262 0)
(0.502326 0.463285 0)
(0.391833 0.278001 0)
(0.253795 0.208813 0)
(0.0999997 0.206969 0)
(-0.149443 0.178713 0)
(-0.51837 0.0637684 0)
(-0.904532 -0.121533 0)
(-1.17981 -0.222247 0)
(-1.25531 -0.24758 0)
(-0.0091446 0.637176 0)
(-0.0268921 0.643067 0)
(-0.0429483 0.654649 0)
(-0.0556525 0.673132 0)
(-0.062838 0.697076 0)
(-0.0618329 0.729888 0)
(-0.049498 0.765422 0)
(-0.0217042 0.811214 0)
(0.0265621 0.852951 0)
(0.100506 0.898123 0)
(0.200485 0.913193 0)
(0.317651 0.895678 0)
(0.430089 0.818279 0)
(0.500518 0.678943 0)
(0.505242 0.51964 0)
(0.450889 0.387328 0)
(0.365357 0.324195 0)
(0.287215 0.324706 0)
(0.241245 0.357899 0)
(0.157049 0.340035 0)
(-0.0802396 0.228874 0)
(-0.413184 0.0387053 0)
(-0.69284 -0.151504 0)
(-0.00631585 0.652705 0)
(-0.0182399 0.65734 0)
(-0.0280921 0.666395 0)
(-0.0343409 0.680413 0)
(-0.0351651 0.697822 0)
(-0.0285522 0.72146 0)
(-0.0121924 0.744982 0)
(0.0166325 0.774718 0)
(0.0603539 0.796958 0)
(0.120846 0.818958 0)
(0.196202 0.816088 0)
(0.279475 0.791278 0)
(0.359975 0.728716 0)
(0.420924 0.636421 0)
(0.446963 0.531215 0)
(0.438684 0.438685 0)
(0.413194 0.38441 0)
(0.39216 0.364152 0)
(0.386415 0.370404 0)
(0.41138 0.387039 0)
(0.456765 0.374744 0)
(0.447476 0.236829 0)
(0.323995 0.0555945 0)
(-0.00443914 0.663504 0)
(-0.0126516 0.666758 0)
(-0.0189686 0.673206 0)
(-0.0221384 0.683046 0)
(-0.0206738 0.694522 0)
(-0.0128661 0.710242 0)
(0.00309396 0.72369 0)
(0.0291379 0.740833 0)
(0.0665401 0.749274 0)
(0.115959 0.756136 0)
(0.175441 0.743348 0)
(0.239318 0.716078 0)
(0.299427 0.662552 0)
(0.346772 0.593703 0)
(0.376666 0.517685 0)
(0.388439 0.448677 0)
(0.388606 0.399847 0)
(0.390018 0.368413 0)
(0.404774 0.357057 0)
(0.435109 0.34477 0)
(0.476228 0.330031 0)
(0.513966 0.252921 0)
(0.533881 0.143587 0)
(-0.00290064 0.67087 0)
(-0.00811001 0.67286 0)
(-0.0116018 0.67694 0)
(-0.0121882 0.683064 0)
(-0.00862726 0.689429 0)
(0.000267816 0.698522 0)
(0.0156381 0.703893 0)
(0.0386178 0.711328 0)
(0.0697649 0.709851 0)
(0.10907 0.706351 0)
(0.154854 0.687297 0)
(0.203354 0.659144 0)
(0.249814 0.612339 0)
(0.288846 0.557064 0)
(0.317613 0.495333 0)
(0.338323 0.438352 0)
(0.354804 0.393412 0)
(0.371892 0.356226 0)
(0.394451 0.331709 0)
(0.42848 0.305393 0)
(0.475225 0.281061 0)
(0.514355 0.224599 0)
(0.519688 0.146508 0)
(-0.00217058 0.675956 0)
(-0.00597599 0.676812 0)
(-0.00827962 0.67879 0)
(-0.00809749 0.681597 0)
(-0.00432984 0.683506 0)
(0.00401751 0.687089 0)
(0.0177291 0.686069 0)
(0.0372965 0.68636 0)
(0.0627752 0.677875 0)
(0.0939218 0.667486 0)
(0.129501 0.644352 0)
(0.167154 0.615464 0)
(0.203977 0.572281 0)
(0.236939 0.524731 0)
(0.264478 0.471043 0)
(0.287026 0.419133 0)
(0.308197 0.374758 0)
(0.331831 0.33392 0)
(0.36038 0.302616 0)
(0.394039 0.266421 0)
(0.433809 0.233043 0)
(0.477976 0.188862 0)
(0.515302 0.139341 0)
(-0.0018178 0.679954 0)
(-0.00503547 0.679851 0)
(-0.00711408 0.680133 0)
(-0.00733769 0.680273 0)
(-0.00491385 0.678584 0)
(0.0010834 0.67757 0)
(0.0115402 0.671272 0)
(0.0267743 0.666153 0)
(0.0469674 0.652151 0)
(0.0718316 0.636885 0)
(0.100242 0.610608 0)
(0.130697 0.580723 0)
(0.161178 0.539344 0)
(0.190013 0.495526 0)
(0.216234 0.446185 0)
(0.240178 0.397233 0)
(0.263596 0.351813 0)
(0.288805 0.307743 0)
(0.318188 0.270534 0)
(0.351527 0.231132 0)
(0.386584 0.193094 0)
(0.422393 0.148396 0)
(0.454761 0.109728 0)
(-0.00196979 0.68375 0)
(-0.00556171 0.682878 0)
(-0.00818069 0.681806 0)
(-0.00910777 0.679734 0)
(-0.00770309 0.675252 0)
(-0.00330211 0.670428 0)
(0.00473942 0.659798 0)
(0.0165759 0.650393 0)
(0.0322936 0.631791 0)
(0.051338 0.613086 0)
(0.0730171 0.584035 0)
(0.0966248 0.55293 0)
(0.120889 0.512084 0)
(0.145228 0.469313 0)
(0.169334 0.421787 0)
(0.193242 0.373507 0)
(0.2182 0.326888 0)
(0.245131 0.280233 0)
(0.27594 0.237516 0)
(0.311483 0.194886 0)
(0.349746 0.155614 0)
(0.38994 0.109455 0)
(0.432879 0.0729484 0)
(-0.00253086 0.688264 0)
(-0.0072713 0.686719 0)
(-0.0111601 0.684486 0)
(-0.0136371 0.680455 0)
(-0.0141872 0.673651 0)
(-0.0124392 0.665827 0)
(-0.00811364 0.651946 0)
(-0.000934572 0.63911 0)
(0.00942374 0.616841 0)
(0.0226999 0.595525 0)
(0.038855 0.563543 0)
(0.0576645 0.530762 0)
(0.0780882 0.48931 0)
(0.0996478 0.445928 0)
(0.122017 0.398432 0)
(0.145268 0.349435 0)
(0.170454 0.300533 0)
(0.198056 0.251748 0)
(0.228931 0.203974 0)
(0.264156 0.15727 0)
(0.302752 0.115949 0)
(0.343076 0.0681616 0)
(0.385264 0.0286493 0)
(-0.00346445 0.69428 0)
(-0.0101062 0.692124 0)
(-0.0159982 0.688893 0)
(-0.0206593 0.683204 0)
(-0.0236454 0.674437 0)
(-0.0246828 0.664307 0)
(-0.0236228 0.648033 0)
(-0.0200614 0.632206 0)
(-0.0135945 0.606811 0)
(-0.00429334 0.58284 0)
(0.00767644 0.547936 0)
(0.0218691 0.513174 0)
(0.0379055 0.470227 0)
(0.0555593 0.425572 0)
(0.0750198 0.376719 0)
(0.0967643 0.325896 0)
(0.12157 0.273798 0)
(0.149975 0.222162 0)
(0.18246 0.169847 0)
(0.220013 0.118219 0)
(0.262641 0.073331 0)
(0.309585 0.0230365 0)
(0.360772 -0.0201087 0)
(-0.00466272 0.70244 0)
(-0.0137783 0.699784 0)
(-0.0222683 0.69567 0)
(-0.029746 0.688609 0)
(-0.0358686 0.678168 0)
(-0.0402722 0.666025 0)
(-0.0428066 0.647777 0)
(-0.0431589 0.629217 0)
(-0.0411222 0.601234 0)
(-0.0365787 0.574481 0)
(-0.0295227 0.53715 0)
(-0.0201265 0.500228 0)
(-0.00803793 0.454881 0)
(0.00652351 0.408515 0)
(0.023787 0.356841 0)
(0.0440944 0.303484 0)
(0.0678566 0.247369 0)
(0.0958586 0.191871 0)
(0.128503 0.134648 0)
(0.166632 0.0773214 0)
(0.210503 0.0272571 0)
(0.260031 -0.027884 0)
(0.314975 -0.0758927 0)
(-0.00623031 0.713381 0)
(-0.0185532 0.710376 0)
(-0.0302876 0.70539 0)
(-0.0410569 0.697213 0)
(-0.0506671 0.685361 0)
(-0.0587178 0.671333 0)
(-0.0650415 0.651355 0)
(-0.0693592 0.630315 0)
(-0.0715798 0.600302 0)
(-0.0714766 0.570723 0)
(-0.0688936 0.5312 0)
(-0.0639615 0.491756 0)
(-0.0563243 0.443506 0)
(-0.0460339 0.39489 0)
(-0.03228 0.339267 0)
(-0.0146639 0.282917 0)
(0.00721016 0.222043 0)
(0.0343639 0.161735 0)
(0.0670122 0.099131 0)
(0.105895 0.0354055 0)
(0.151865 -0.0211567 0)
(0.205696 -0.0833871 0)
(0.267314 -0.137578 0)
(-0.00813349 0.727811 0)
(-0.024343 0.724609 0)
(-0.040039 0.718712 0)
(-0.0548429 0.70958 0)
(-0.0686202 0.696486 0)
(-0.0809496 0.680677 0)
(-0.091685 0.659142 0)
(-0.100549 0.635761 0)
(-0.107545 0.604102 0)
(-0.112512 0.571795 0)
(-0.115119 0.530135 0)
(-0.115195 0.487923 0)
(-0.112203 0.436636 0)
(-0.10595 0.385113 0)
(-0.095942 0.325141 0)
(-0.0821432 0.265446 0)
(-0.0636032 0.19887 0)
(-0.0392908 0.133154 0)
(-0.00898229 0.0644074 0)
(0.0281038 -0.00625453 0)
(0.072572 -0.0704256 0)
(0.125867 -0.141822 0)
(0.188201 -0.20376 0)
(-0.0103813 0.746414 0)
(-0.0311179 0.743129 0)
(-0.0513769 0.736319 0)
(-0.0708023 0.726365 0)
(-0.0893099 0.712139 0)
(-0.106552 0.694733 0)
(-0.122451 0.671843 0)
(-0.136728 0.646306 0)
(-0.149311 0.613221 0)
(-0.159978 0.578376 0)
(-0.168379 0.534602 0)
(-0.174433 0.489601 0)
(-0.177958 0.435477 0)
(-0.178626 0.380642 0)
(-0.175603 0.316496 0)
(-0.168294 0.252855 0)
(-0.155982 0.180431 0)
(-0.137826 0.108886 0)
(-0.112226 0.0324576 0)
(-0.0781211 -0.0458846 0)
(-0.0351016 -0.118758 0)
(0.0182073 -0.200669 0)
(0.0811866 -0.270899 0)
(-0.0130067 0.769916 0)
(-0.0390041 0.766589 0)
(-0.0646124 0.758951 0)
(-0.0895106 0.748273 0)
(-0.113553 0.732988 0)
(-0.136421 0.714188 0)
(-0.158045 0.690092 0)
(-0.178187 0.66264 0)
(-0.196779 0.628209 0)
(-0.213635 0.59104 0)
(-0.22856 0.54537 0)
(-0.241339 0.497748 0)
(-0.251408 0.44098 0)
(-0.258246 0.382668 0)
(-0.261632 0.314817 0)
(-0.261002 0.246536 0)
(-0.255154 0.168479 0)
(-0.242874 0.0902256 0)
(-0.223366 0.0057566 0)
(-0.197279 -0.0797061 0)
(-0.163155 -0.1625 0)
(-0.119396 -0.254518 0)
(-0.0667293 -0.333316 0)
(-0.0157865 0.798853 0)
(-0.0473277 0.795477 0)
(-0.0785956 0.787221 0)
(-0.109387 0.775968 0)
(-0.139571 0.759787 0)
(-0.168927 0.739871 0)
(-0.197359 0.71471 0)
(-0.224617 0.685654 0)
(-0.25059 0.649978 0)
(-0.275062 0.6108 0)
(-0.297847 0.563503 0)
(-0.318744 0.513453 0)
(-0.337487 0.454222 0)
(-0.353457 0.392338 0)
(-0.365683 0.320824 0)
(-0.372713 0.246947 0)
(-0.374318 0.163787 0)
(-0.371023 0.0792453 0)
(-0.363837 -0.0101117 0)
(-0.351094 -0.102886 0)
(-0.327176 -0.197682 0)
(-0.291749 -0.298951 0)
(-0.244494 -0.38934 0)
(-0.0188893 0.833703 0)
(-0.0566048 0.830232 0)
(-0.0941046 0.82158 0)
(-0.131222 0.80986 0)
(-0.167766 0.792958 0)
(-0.203571 0.77219 0)
(-0.23852 0.746091 0)
(-0.272425 0.715743 0)
(-0.305224 0.678954 0)
(-0.336698 0.638047 0)
(-0.366636 0.58924 0)
(-0.394605 0.536824 0)
(-0.420207 0.475414 0)
(-0.443027 0.410125 0)
(-0.462759 0.335146 0)
(-0.479515 0.256519 0)
(-0.494745 0.171123 0)
(-0.510353 0.0842728 0)
(-0.520229 -0.0124486 0)
(-0.513956 -0.119678 0)
(-0.490029 -0.228999 0)
(-0.451543 -0.341947 0)
(-0.39706 -0.448628 0)
(-0.0218833 0.874683 0)
(-0.065631 0.871129 0)
(-0.109389 0.862353 0)
(-0.153117 0.850342 0)
(-0.19667 0.832979 0)
(-0.23992 0.811625 0)
(-0.282666 0.784745 0)
(-0.324645 0.753357 0)
(-0.365682 0.71555 0)
(-0.405559 0.673162 0)
(-0.444169 0.623019 0)
(-0.481369 0.568543 0)
(-0.516639 0.504871 0)
(-0.549311 0.436435 0)
(-0.580301 0.359809 0)
(-0.612538 0.281093 0)
(-0.646136 0.195623 0)
(-0.668534 0.0979658 0)
(-0.667948 -0.0168155 0)
(-0.648503 -0.141176 0)
(-0.614516 -0.26573 0)
(-0.565771 -0.392917 0)
(-0.500785 -0.517764 0)
(-0.0250146 0.921821 0)
(-0.0749745 0.918178 0)
(-0.124859 0.909425 0)
(-0.174619 0.897236 0)
(-0.22413 0.879625 0)
(-0.273332 0.857905 0)
(-0.32209 0.830438 0)
(-0.370244 0.798257 0)
(-0.41761 0.759505 0)
(-0.463901 0.715815 0)
(-0.508903 0.664403 0)
(-0.552544 0.60841 0)
(-0.595936 0.544065 0)
(-0.641518 0.475892 0)
(-0.692271 0.402513 0)
(-0.745179 0.323971 0)
(-0.781434 0.222953 0)
(-0.786282 0.0980117 0)
(-0.769289 -0.0345437 0)
(-0.740989 -0.171454 0)
(-0.698768 -0.312069 0)
(-0.640053 -0.454613 0)
(-0.565288 -0.596562 0)
(-0.0282396 0.975348 0)
(-0.0847384 0.971656 0)
(-0.141384 0.963025 0)
(-0.198197 0.950757 0)
(-0.255069 0.933032 0)
(-0.311875 0.911051 0)
(-0.368418 0.883133 0)
(-0.424555 0.850388 0)
(-0.480292 0.811007 0)
(-0.535768 0.766602 0)
(-0.591421 0.714787 0)
(-0.647618 0.658374 0)
(-0.7045 0.59489 0)
(-0.763326 0.530012 0)
(-0.822298 0.458685 0)
(-0.863109 0.362 0)
(-0.870094 0.22838 0)
(-0.857156 0.0844406 0)
(-0.835359 -0.0599744 0)
(-0.798308 -0.211726 0)
(-0.744661 -0.368179 0)
(-0.677046 -0.525506 0)
(-0.598296 -0.679999 0)
(-0.0306189 1.03451 0)
(-0.0919263 1.03091 0)
(-0.153435 1.02254 0)
(-0.21509 1.01033 0)
(-0.27679 0.992647 0)
(-0.33848 0.970546 0)
(-0.400003 0.942314 0)
(-0.461232 0.909177 0)
(-0.522144 0.869468 0)
(-0.583181 0.825254 0)
(-0.645696 0.774912 0)
(-0.712603 0.721988 0)
(-0.787034 0.663271 0)
(-0.863486 0.597611 0)
(-0.917368 0.504524 0)
(-0.930099 0.369973 0)
(-0.920095 0.217362 0)
(-0.903055 0.0653154 0)
(-0.870138 -0.0958568 0)
(-0.820118 -0.263379 0)
(-0.759014 -0.431888 0)
(-0.69044 -0.598709 0)
(-0.616264 -0.760535 0)
(-0.0347232 1.10019 0)
(-0.10405 1.09654 0)
(-0.173299 1.08834 0)
(-0.242638 1.07619 0)
(-0.312033 1.05855 0)
(-0.381476 1.03645 0)
(-0.451004 1.00814 0)
(-0.520685 0.97494 0)
(-0.590691 0.935299 0)
(-0.661515 0.891967 0)
(-0.734511 0.844413 0)
(-0.81095 0.796578 0)
(-0.889785 0.742745 0)
(-0.95357 0.659102 0)
(-0.976917 0.520659 0)
(-0.968978 0.358646 0)
(-0.951282 0.200837 0)
(-0.919959 0.0332196 0)
(-0.873325 -0.143736 0)
(-0.818511 -0.320892 0)
(-0.758163 -0.496473 0)
(-0.69341 -0.668158 0)
(-0.624297 -0.835137 0)
(-0.0357137 1.17099 0)
(-0.107219 1.1673 0)
(-0.179052 1.1594 0)
(-0.251472 1.14763 0)
(-0.324464 1.13024 0)
(-0.397827 1.10831 0)
(-0.471618 1.08034 0)
(-0.546336 1.04789 0)
(-0.62302 1.0098 0)
(-0.70334 0.969392 0)
(-0.788558 0.926025 0)
(-0.877172 0.88088 0)
(-0.953494 0.814409 0)
(-0.989079 0.687323 0)
(-0.986538 0.513345 0)
(-0.972609 0.343971 0)
(-0.947972 0.172954 0)
(-0.907274 -0.0113002 0)
(-0.858143 -0.19549 0)
(-0.804372 -0.378298 0)
(-0.746251 -0.558164 0)
(-0.684379 -0.733764 0)
(-0.619393 -0.904342 0)
(-0.0404631 1.24757 0)
(-0.121478 1.24404 0)
(-0.202442 1.23625 0)
(-0.28301 1.22457 0)
(-0.363291 1.20738 0)
(-0.443716 1.18576 0)
(-0.524539 1.15831 0)
(-0.606459 1.12737 0)
(-0.691149 1.09253 0)
(-0.780829 1.05755 0)
(-0.874725 1.01792 0)
(-0.961027 0.964815 0)
(-1.01188 0.858312 0)
(-1.01597 0.683296 0)
(-0.997943 0.496693 0)
(-0.971576 0.320112 0)
(-0.932066 0.132326 0)
(-0.884108 -0.0597984 0)
(-0.832684 -0.248079 0)
(-0.778095 -0.434642 0)
(-0.721334 -0.617311 0)
(-0.662571 -0.795891 0)
(-0.602065 -0.968375 0)
(-0.0403553 1.32881 0)
(-0.121255 1.32556 0)
(-0.202606 1.31789 0)
(-0.284488 1.30622 0)
(-0.367186 1.28955 0)
(-0.451102 1.26879 0)
(-0.53639 1.24226 0)
(-0.623509 1.21334 0)
(-0.714012 1.18267 0)
(-0.808759 1.1528 0)
(-0.904206 1.113 0)
(-0.980016 1.03269 0)
(-1.00759 0.869278 0)
(-0.99698 0.665764 0)
(-0.975684 0.474693 0)
(-0.942532 0.282279 0)
(-0.89743 0.0851023 0)
(-0.848569 -0.109905 0)
(-0.797451 -0.301058 0)
(-0.744871 -0.489398 0)
(-0.69126 -0.673512 0)
(-0.636743 -0.853571 0)
(-0.581031 -1.02753 0)
(-0.0447132 1.41432 0)
(-0.134487 1.41161 0)
(-0.225185 1.40479 0)
(-0.317033 1.39396 0)
(-0.409709 1.3781 0)
(-0.502769 1.35814 0)
(-0.596716 1.33308 0)
(-0.692938 1.30682 0)
(-0.79178 1.27953 0)
(-0.88969 1.24961 0)
(-0.973447 1.19633 0)
(-1.01762 1.06997 0)
(-1.0158 0.857894 0)
(-0.990575 0.641115 0)
(-0.954618 0.441789 0)
(-0.909016 0.236015 0)
(-0.858425 0.035169 0)
(-0.806788 -0.160999 0)
(-0.755391 -0.35302 0)
(-0.704166 -0.54179 0)
(-0.652819 -0.726636 0)
(-0.60126 -0.907087 0)
(-0.549176 -1.08239 0)
(-0.0441673 1.50367 0)
(-0.132774 1.50158 0)
(-0.222117 1.4958 0)
(-0.312536 1.48617 0)
(-0.40422 1.47122 0)
(-0.497609 1.45245 0)
(-0.593526 1.42964 0)
(-0.69293 1.40692 0)
(-0.795038 1.38144 0)
(-0.893802 1.34541 0)
(-0.969415 1.26074 0)
(-0.994595 1.07528 0)
(-0.978642 0.834722 0)
(-0.950536 0.610673 0)
(-0.912419 0.397771 0)
(-0.865688 0.187217 0)
(-0.817064 -0.0157708 0)
(-0.767422 -0.211871 0)
(-0.718351 -0.403146 0)
(-0.670142 -0.591624 0)
(-0.622038 -0.77678 0)
(-0.573668 -0.957404 0)
(-0.524813 -1.13355 0)
(-0.0478369 1.59615 0)
(-0.143957 1.59479 0)
(-0.241431 1.59039 0)
(-0.341009 1.58258 0)
(-0.443248 1.56975 0)
(-0.548078 1.55317 0)
(-0.654719 1.53253 0)
(-0.762336 1.51213 0)
(-0.867432 1.48452 0)
(-0.957411 1.43206 0)
(-1.00684 1.29979 0)
(-1.00464 1.05932 0)
(-0.972489 0.802328 0)
(-0.929614 0.571715 0)
(-0.879233 0.34777 0)
(-0.825554 0.136283 0)
(-0.773578 -0.0659653 0)
(-0.724248 -0.261169 0)
(-0.676348 -0.45133 0)
(-0.629659 -0.63884 0)
(-0.583674 -0.824153 0)
(-0.537706 -1.00487 0)
(-0.491462 -1.18169 0)
(-0.0474543 1.69195 0)
(-0.142596 1.69126 0)
(-0.238474 1.68828 0)
(-0.335598 1.68242 0)
(-0.434413 1.67202 0)
(-0.535102 1.6575 0)
(-0.638163 1.63901 0)
(-0.743428 1.61966 0)
(-0.846735 1.58649 0)
(-0.931983 1.50624 0)
(-0.969195 1.31271 0)
(-0.956516 1.03144 0)
(-0.923687 0.764899 0)
(-0.882411 0.524555 0)
(-0.834846 0.296476 0)
(-0.786171 0.0846875 0)
(-0.737466 -0.11558 0)
(-0.690662 -0.308196 0)
(-0.645965 -0.49739 0)