/*--------------------------------*- C++ -*----------------------------------*\
| =========                 |                                                 |
| \\      /  F ield         | OpenFOAM: The Open Source CFD Toolbox           |
|  \\    /   O peration     | Version:  2012                                  |
|   \\  /    A nd           | Website:  www.openfoam.com                      |
|    \\/     M anipulation  |                                                 |
\*---------------------------------------------------------------------------*/
FoamFile
{
    version     2.0;
    format      ascii;
    class       volScalarField;
    location    "0.75";
    object      volumeFraction1;
}
// * * * * * * * * * * * * * * * * * * * * * * * * * * * * * * * * * * * * * //

dimensions      [0 0 0 0 0 0 0];


internalField   nonuniform List<scalar> 
2268
(
1
1
1
1
1
1
1
1
1
1
1
1
1
1
1
1
1
1
1
1
1
0.999978
0.999774
1
1
1
1
1
1
1
1
1
1
1
1
1
1
1
1
1
1
1
1
1
0.999928
0.999711
1
1
1
1
1
1
1
1
1
1
1
1
1
1
1
1
1
1
1
1
1
0.999955
0.999711
1
1
1
1
1
1
1
1
1
1
1
1
1
1
1
1
1
1
1
1
1
0.999987
0.999751
1
1
1
1
1
1
1
1
1
1
1
1
1
1
1
1
1
1
1
1
1
1
1
1
1
1
1
1
1
1
1
1
1
1
1
1
1
1
1
1
1
1
1
1
1
1
1
1
1
1
1
1
1
1
1
1
1
1
1
1
1
1
1
1
1
0.999999
0.999991
1
1
1
1
1
1
1
1
1
1
1
1
1
1
1
1
1
1
1
1
1
1
0.999857
0.99844
1
0.884759
0.91853
0.918473
0.918355
0.918352
0.918349
0.918308
0.886248
0.771409
0.772104
0.836338
0.836338
0.836338
0.836338
0.836265
0.825414
0.822773
0.823981
0.82398
0.851922
0.918498
0.91853
0.917035
0.917141
0.904472
0.853527
0.846652
0.771405
0.794536
0.814431
0.805364
0.737879
0.59715
0.486985
0.418467
0.399884
0.660772
0.818051
0.694392
0.918562
0.840376
0.630831
0.616677
0.888027
0.69292
0.261906
0.261916
0.307486
0.289358
0.262076
0.222778
0.124209
0.0702034
0.0492906
0.0730248
0.433948
0.525919
0.677188
0.84996
0.338722
0.102102
0.26024
0.890117
0.995404
0.745461
0.405195
0.113372
0.000587261
0.000587261
0.00130246
0.00159679
0.000679759
0.000587251
0.0795967
0.736933
0.705928
0.677313
0.678071
4.32909e-19
0.00255693
0.248812
0.863087
0.995405
0.997338
0.891979
0.653156
0.307312
0.104637
0.000587251
0.00058725
0.000587251
0.00058725
0.034517
0.781216
0.935871
0.733975
0.606384
-1.23004e-20
-4.94579e-22
0.538158
0.959662
0.997373
0.997373
0.997373
0.991254
0.923991
0.778488
0.604876
0.403201
0.215051
0.0513279
0.0952262
0.756508
0.991339
0.790411
0.390454
-6.42844e-21
-8.55946e-20
0.618816
0.97862
0.978618
0.936428
0.997373
0.997373
0.997373
0.996876
0.992496
0.973057
0.904716
0.649047
0.747358
0.962796
0.991337
0.790411
0.0728988
5.48044e-23
0.101004
0.668072
0.941559
0.7131
0.456667
0.629065
0.828241
0.946189
0.997068
0.997045
0.997068
0.997045
0.995697
0.990119
0.991337
0.991339
0.587104
0.620667
0.682783
0.757144
0.833044
0.906418
0.97172
1
1
1
1
1
1
1
1
1
1
1
1
1
0.999342
0.939952
0.786951
0.0153556
0.0211026
0.0382265
0.0775237
0.145014
0.243948
0.376609
0.561983
0.73576
0.851266
0.919364
0.965342
0.991052
1
0.999832
0.999979
0.99971
0.999898
0.999973
0.999998
0.997833
0.768643
0.305747
5.02948e-06
1.16398e-05
5.14719e-05
0.000283089
0.00117849
0.00412315
0.013003
0.0381736
0.106108
0.213753
0.322951
0.413831
0.494628
0.613578
0.725166
0.828706
0.895427
0.947604
0.967805
0.993433
0.996817
0.767867
0.305518
3.1491e-12
1.40367e-10
4.88963e-09
1.1246e-07
1.79836e-06
1.9657e-05
0.000152011
0.00088324
0.00383372
0.0127877
0.0272744
0.0349157
0.0351857
0.0484116
0.115487
0.171344
0.208397
0.337239
0.572264
0.832218
0.968096
0.950935
0.57529
3.46783e-14
1.57512e-12
4.19907e-11
8.79236e-10
1.33696e-08
1.42413e-07
1.09247e-06
5.91268e-06
2.05225e-05
5.02505e-05
0.000210314
0.0012006
0.0061388
0.0142512
0.0159355
0.0159363
0.0429572
0.232398
0.576933
0.825205
0.923883
0.950935
0.948623
1.74849e-14
6.58608e-13
1.06583e-11
7.57358e-11
3.32917e-10
4.79245e-09
1.05579e-07
6.41256e-07
9.44742e-07
8.63542e-07
2.09258e-06
1.15145e-05
3.12518e-05
3.71007e-05
0.00106003
0.0850801
0.432616
0.598617
0.599503
0.501996
0.440815
0.447322
0.429017
8.67185e-15
2.99688e-13
4.39076e-12
3.22645e-11
1.39429e-10
1.02844e-09
1.33157e-08
3.43794e-08
2.67447e-08
1.11456e-09
8.49114e-09
3.36242e-08
4.98116e-08
3.33857e-07
0.00287893
0.204508
0.581804
0.599503
0.295791
3.36385e-08
3.36385e-08
3.36385e-08
3.36385e-08
4.54738e-15
1.48083e-13
2.06066e-12
1.51731e-11
6.50871e-11
2.76793e-10
3.3778e-09
1.84951e-08
6.13296e-10
6.12669e-10
6.13296e-10
3.87004e-09
1.62707e-07
1.15637e-06
0.000586568
0.0164987
0.206093
0.44344
0.245455
0.000130519
0.00246238
0.00130319
0.00109883
2.29935e-15
7.44867e-14
1.04605e-12
8.08743e-12
3.67311e-11
1.06327e-10
3.62198e-10
1.46095e-08
3.87872e-07
5.15281e-07
6.12669e-10
6.13296e-10
3.4874e-07
7.80548e-06
1.22475e-05
1.11642e-08
1.11642e-08
0.00485305
0.2505
0.387356
0.383059
0.192822
0.0941468
9.64919e-16
3.29336e-14
5.00308e-13
4.38967e-12
2.39686e-11
8.06458e-11
1.55621e-10
2.90184e-09
5.00018e-07
1.29528e-06
9.62968e-07
4.42277e-09
2.60372e-07
3.1843e-06
3.95301e-06
1.11642e-08
3.13845e-07
0.000110607
0.00914117
0.340966
0.658053
0.659294
0.538591
3.47489e-16
1.28779e-14
2.20804e-13
2.30738e-12
1.60491e-11
7.27638e-11
1.94136e-10
1.32579e-09
2.13799e-07
1.29533e-06
1.43095e-06
1.43044e-06
2.63717e-07
2.08284e-07
2.59478e-07
8.95034e-08
3.82901e-08
3.82908e-08
3.82896e-08
3.82929e-08
0.0167738
0.320257
0.63623
1.08706e-16
4.36918e-15
8.42892e-14
1.04613e-12
9.30982e-12
5.96809e-11
2.48858e-10
1.12551e-09
2.77948e-08
2.80212e-07
1.14997e-06
1.06227e-06
2.67629e-07
1.17881e-08
3.15498e-09
9.83252e-09
3.2307e-09
7.89653e-08
4.90662e-07
9.92756e-07
2.81389e-07
2.81414e-07
2.81389e-07
3.04865e-17
1.31037e-15
2.78485e-14
3.96417e-13
4.29022e-12
3.80085e-11
2.21663e-10
1.00268e-09
3.08417e-09
7.697e-09
7.8099e-08
5.4092e-08
9.18418e-08
1.7636e-08
1.50046e-09
1.50043e-09
3.07938e-09
1.31532e-08
6.85017e-08
3.56261e-07
1.94588e-06
4.45532e-06
2.16413e-06
7.74087e-18
3.47278e-16
7.85273e-15
1.21843e-13
1.47222e-12
1.47626e-11
1.28003e-10
6.65867e-10
9.31394e-10
4.61389e-10
2.57763e-10
1.73424e-10
1.97654e-09
4.52296e-09
1.56086e-09
2.37365e-09
4.19854e-09
3.78876e-09
2.63828e-09
5.83792e-10
3.61835e-07
1.26539e-06
3.35327e-06
1.83218e-18
8.42446e-17
1.97843e-15
3.24202e-14
4.19758e-13
4.49338e-12
4.00371e-11
2.34277e-10
3.66749e-10
2.62287e-10
1.09411e-10
8.61283e-11
2.02797e-10
5.88619e-10
8.91283e-10
2.11435e-09
3.087e-09
1.98626e-09
8.58375e-10
5.83797e-10
5.71563e-09
1.94326e-08
2.61248e-07
4.08231e-19
1.89566e-17
4.53065e-16
7.63577e-15
1.02913e-13
1.15317e-12
1.04985e-11
6.38052e-11
1.19648e-10
1.13424e-10
8.44512e-11
7.53831e-11
9.50556e-11
1.78923e-10
3.50152e-10
1.00333e-09
1.02228e-09
8.14987e-10
6.15433e-10
5.63274e-10
3.83243e-10
3.85268e-10
8.59886e-10
8.74725e-20
4.05908e-18
9.73427e-17
1.65675e-15
2.28061e-14
2.64072e-13
2.44491e-12
1.55468e-11
3.32527e-11
3.76328e-11
3.64895e-11
4.05012e-11
4.04442e-11
6.4686e-11
1.22634e-10
2.65375e-10
2.97246e-10
3.00046e-10
3.19731e-10
3.39143e-10
2.73952e-10
2.49029e-10
2.48682e-10
1.81049e-20
8.34412e-19
1.99125e-17
3.38119e-16
4.69714e-15
5.54222e-14
5.18369e-13
3.42056e-12
8.08843e-12
1.03142e-11
1.01069e-11
1.19214e-11
1.33194e-11
2.05422e-11
3.6887e-11
6.77317e-11
8.43767e-11
9.56966e-11
1.09333e-10
1.22321e-10
1.26998e-10
1.37915e-10
1.63393e-10
3.65186e-21
1.66538e-19
3.93373e-18
6.59507e-17
9.12906e-16
1.08522e-14
1.01498e-13
6.86167e-13
1.7473e-12
2.42315e-12
2.45487e-12
2.96706e-12
3.55547e-12
5.44583e-12
9.38919e-12
1.58433e-11
2.07563e-11
2.48622e-11
2.89839e-11
3.32231e-11
3.62821e-11
4.10103e-11
4.95095e-11
7.21619e-22
3.25017e-20
7.5799e-19
1.24801e-17
1.70728e-16
2.02838e-15
1.88543e-14
1.27478e-13
3.41057e-13
5.02044e-13
5.28666e-13
6.45802e-13
7.95587e-13
1.20869e-12
2.0121e-12
3.2151e-12
4.2411e-12
5.15198e-12
5.93866e-12
6.71958e-12
7.33858e-12
7.9525e-12
8.82779e-12
1.40226e-22
6.23727e-21
1.43539e-19
2.31633e-18
3.1162e-17
3.66633e-16
3.36855e-15
2.2267e-14
6.09936e-14
9.34447e-14
1.01593e-13
1.23885e-13
1.52138e-13
2.26905e-13
3.63331e-13
5.51814e-13
7.07206e-13
8.39658e-13
9.20778e-13
9.78556e-13
1.00934e-12
9.65256e-13
9.09741e-13
2.68794e-23
1.18243e-21
2.68635e-20
4.25374e-19
5.61822e-18
6.48878e-17
5.82592e-16
3.68924e-15
1.01298e-14
1.58402e-14
1.75883e-14
2.11502e-14
2.52847e-14
3.65748e-14
5.55892e-14
7.91966e-14
9.50298e-14
1.05267e-13
1.03515e-13
9.1851e-14
7.96443e-14
5.95846e-14
6.69157e-14
5.1157e-24
2.23001e-22
5.00378e-21
7.7929e-20
1.00958e-18
1.13405e-17
9.80776e-17
5.84356e-16
1.5798e-15
2.47675e-15
2.76931e-15
3.24333e-15
3.70763e-15
5.11519e-15
7.2243e-15
9.4177e-15
1.01242e-14
9.69736e-15
7.57671e-15
7.33591e-15
1.31262e-14
1.72747e-13
9.09205e-13
9.74349e-25
4.21772e-23
9.35705e-22
1.43804e-20
1.82525e-19
1.97358e-18
1.6177e-17
8.92698e-17
2.33914e-16
3.60963e-16
4.00662e-16
4.5046e-16
4.85385e-16
6.29184e-16
8.01642e-16
9.13856e-16
7.86151e-16
6.64157e-16
6.38082e-16
5.74618e-14
6.97154e-13
5.11836e-12
1.86633e-11
1.87309e-25
8.06428e-24
1.77123e-22
2.69297e-21
3.33804e-20
3.43519e-19
2.62688e-18
1.32715e-17
3.32447e-17
4.96644e-17
5.38661e-17
5.68517e-17
5.49731e-17
6.25973e-17
7.31725e-17
1.2256e-16
1.00756e-15
1.60012e-14
2.42164e-13
3.47793e-12
1.91832e-11
1.68862e-10
5.61445e-10
3.68248e-26
1.57427e-24
3.43005e-23
5.1647e-22
6.21704e-21
6.01867e-20
4.23406e-19
1.95113e-18
4.50945e-18
6.1068e-18
6.1819e-18
7.1826e-18
2.0436e-17
1.81106e-16
2.11071e-15
2.296e-14
2.2476e-13
1.9746e-12
2.04491e-11
2.54069e-10
2.52859e-09
3.59416e-08
5.58559e-08
6.83723e-27
3.15912e-25
6.78989e-24
9.94453e-23
1.11927e-21
9.64536e-21
6.00239e-20
2.56383e-19
6.86894e-19
2.76272e-18
2.36688e-17
2.70288e-16
2.70743e-15
2.11692e-14
1.14775e-13
2.13143e-13
9.5112e-14
9.51125e-14
7.34391e-09
9.1416e-08
2.73027e-07
3.0712e-07
3.06968e-07
1.86395e-27
5.73095e-26
1.29823e-24
2.18902e-23
3.38081e-22
5.23781e-21
8.05865e-20
1.28091e-18
2.00288e-17
2.7164e-16
3.05262e-15
2.83109e-14
2.3839e-13
2.29885e-12
2.39654e-11
7.78612e-11
9.51125e-14
7.65781e-08
6.87682e-07
1.05159e-06
7.3704e-07
2.34222e-07
1.00124e-07
1.86406e-27
1.92487e-25
1.32022e-23
6.23618e-22
2.18109e-20
5.93354e-19
1.30194e-17
2.36551e-16
3.6335e-15
4.78537e-14
5.44941e-13
5.34702e-12
4.46248e-11
1.60851e-10
1.66227e-10
7.78581e-11
5.04439e-07
1.79317e-06
1.7931e-06
9.04513e-07
1.32231e-11
1.32235e-11
1.32231e-11
1.34358e-25
1.77246e-23
1.12983e-21
4.61318e-20
1.35224e-18
3.01562e-17
5.28861e-16
7.4171e-15
8.36061e-14
7.50272e-13
5.20828e-12
2.58934e-11
4.88244e-11
4.88261e-11
5.13053e-09
1.34652e-06
2.17162e-06
2.14229e-06
2.0326e-07
3.25295e-11
4.74025e-11
9.30697e-11
1.2001e-10
6.33986e-24
6.9214e-22
3.61757e-20
1.20003e-18
2.82978e-17
5.02542e-16
6.94829e-15
7.60916e-14
6.63715e-13
4.55833e-12
2.37038e-11
6.76553e-11
8.70179e-10
8.69833e-08
1.51284e-06
1.92781e-06
1.63926e-06
3.90449e-11
3.88318e-11
6.70693e-11
1.07103e-10
1.06351e-10
9.9722e-11
1.06751e-22
1.0131e-20
4.54694e-19
1.27736e-17
2.51038e-16
3.64543e-15
4.02083e-14
3.38244e-13
2.10217e-12
8.47625e-12
1.68362e-11
8.09886e-11
1.5102e-08
1.10253e-06
1.88432e-06
1.48103e-06
1.90276e-11
4.56951e-11
5.78165e-11
6.51125e-11
4.43833e-11
2.45113e-11
1.53244e-11
1.22283e-21
1.00089e-19
3.8803e-18
9.42305e-17
1.60228e-15
2.02834e-14
2.00566e-13
1.64354e-12
1.22715e-11
4.54397e-11
1.58054e-11
1.58276e-11
4.65488e-07
1.97697e-06
1.73737e-06
7.61157e-12
1.90278e-11
3.54442e-11
3.67262e-11
1.64265e-11
6.57637e-12
3.96248e-12
3.01197e-12
6.82622e-21
5.20229e-19
1.86351e-17
4.14414e-16
6.37215e-15
7.16194e-14
6.1281e-13
4.21138e-12
2.58802e-11
1.98651e-10
9.05723e-09
2.1943e-07
1.43411e-06
1.97682e-06
2.72351e-07
7.6113e-12
1.69064e-11
1.92861e-11
5.90595e-12
2.06786e-12
1.13719e-12
8.15316e-13
6.10229e-13
3.83442e-20
2.65881e-18
8.60833e-17
1.7239e-15
2.38102e-14
2.38104e-13
1.75336e-12
9.42727e-12
3.53385e-11
2.22639e-10
5.71886e-08
1.22857e-06
1.92977e-06
7.35892e-07
1.30547e-12
7.61119e-12
9.59502e-12
2.8739e-12
7.71414e-13
3.3834e-13
2.12869e-13
1.51962e-13
1.04387e-13
1.32342e-19
8.7881e-18
2.71567e-16
5.1725e-15
6.78852e-14
6.49038e-13
4.65915e-12
2.53251e-11
1.01924e-10
1.24161e-09
1.1679e-07
1.77633e-06
1.92711e-06
6.41025e-13
1.30553e-12
3.53297e-12
2.12047e-12
3.71169e-13
1.12036e-13
5.45478e-14
3.44568e-14
2.29859e-14
1.3848e-14
4.17486e-19
2.68108e-17
7.98262e-16
1.45083e-14
1.78953e-13
1.58572e-12
1.04913e-11
5.24572e-11
1.88854e-10
2.82369e-09
7.6126e-07
1.77603e-06
5.82921e-07
6.41025e-13
8.44294e-13
1.2122e-12
2.9665e-13
4.80059e-14
1.46634e-14
7.27963e-15
4.44415e-15
2.7085e-15
1.39912e-15
9.21295e-19
5.76309e-17
1.67857e-15
3.00253e-14
3.66e-13
3.17378e-12
1.96795e-11
9.58713e-11
4.84214e-09
4.1142e-07
2.36483e-06
1.57257e-06
6.41025e-13
6.41025e-13
6.49736e-13
4.5984e-13
5.68431e-14
6.35544e-15
1.53124e-15
7.3422e-16
4.25603e-16
2.34469e-16
1.02557e-16
1.77182e-18
1.05964e-16
2.96955e-15
5.21568e-14
6.30912e-13
5.4499e-12
3.4835e-11
3.9727e-10
4.35283e-08
1.52494e-06
2.35756e-06
9.99714e-07
6.41025e-13
6.41025e-13
7.37897e-13
2.57456e-13
2.65928e-14
9.99558e-16
1.1872e-16
5.16782e-17
2.72914e-17
1.33357e-17
5.11226e-18
2.91781e-18
1.63552e-16
4.23772e-15
6.648e-14
7.034e-13
5.28062e-12
3.29636e-11
4.0412e-09
6.40346e-07
2.15874e-06
2.08865e-06
6.41025e-13
6.41025e-13
1.08339e-12
1.08961e-12
2.29574e-13
1.62541e-14
1.69756e-16
6.08185e-18
2.1399e-18
9.51328e-19
3.89518e-19
1.34067e-19
5.34462e-18
2.85207e-16
6.94235e-15
1.00306e-13
9.36777e-13
5.73443e-12
2.2777e-11
2.902e-09
1.12261e-06
2.1612e-06
7.53146e-07
6.41025e-13
1.27847e-12
2.43189e-12
1.41999e-12
1.9395e-13
4.55198e-15
1.66895e-17
1.58266e-19
3.68063e-20
1.08618e-20
2.7381e-21
6.89426e-22
2.41279e-17
1.39896e-15
3.80674e-14
6.36878e-13
7.15472e-12
5.55801e-11
6.62315e-10
4.71378e-08
5.28868e-07
7.06054e-07
1.80889e-08
6.41025e-13
6.66825e-12
7.21308e-12
1.73454e-12
9.97816e-14
2.03779e-16
1.01988e-42
5.58221e-24
4.11053e-26
4.37815e-28
1.43532e-28
4.47911e-28
0.804021
0.782197
0.772255
0.772531
0.597826
0.782359
0.782368
0.731103
0.451315
0.782368
0.703133
0.320392
0.18711
0.18747
0.233322
0.242876
0.63871
0.405039
0.42429
0.707215
0.452752
0.42098
0.30794
0.248971
3.36385e-08
3.36385e-08
3.36385e-08
3.36385e-08
9.58464e-05
3.36385e-08
1.05516e-05
8.81832e-06
1.27504e-05
1.34809e-05
0.000137352
0.000142948
5.04694e-05
3.36385e-08
3.36385e-08
3.36385e-08
0.681954
0.681939
0.681903
0.512276
0.0080705
0.0519282
0.243718
0.45692
2.81389e-07
2.81414e-07
2.81389e-07
2.81414e-07
6.16216e-06
6.16182e-06
1.95151e-06
4.38035e-06
5.95401e-07
1.65496e-06
1.96922e-06
1.96981e-06
3.64223e-09
5.95874e-09
9.96478e-08
7.18776e-08
2.60485e-10
2.51714e-10
3.00151e-10
2.96679e-10
1.68167e-10
1.66656e-10
1.57741e-10
1.44616e-10
5.39191e-11
5.68831e-11
5.63209e-11
5.44318e-11
9.58131e-12
1.0249e-11
1.03657e-11
1.03408e-11
8.83692e-13
9.02313e-13
9.30635e-13
9.60234e-13
9.98337e-14
1.74132e-13
3.42961e-13
5.99818e-13
1.99935e-12
4.13428e-12
8.35396e-12
1.38865e-11
3.35768e-11
6.76526e-11
1.37694e-10
3.10939e-10
1.04253e-09
2.2736e-09
6.5041e-09
2.57529e-08
8.33024e-08
1.01321e-07
1.52081e-07
2.19255e-07
3.0712e-07
2.98135e-07
2.59184e-07
2.01181e-07
3.90354e-08
1.42509e-11
1.43265e-11
1.42509e-11
1.32235e-11
2.65698e-11
9.61594e-11
2.04001e-10
1.63969e-10
2.07323e-10
2.37534e-10
2.5549e-10
8.54425e-11
6.9561e-11
6.04638e-11
5.58789e-11
1.25013e-11
1.14782e-11
1.08233e-11
1.04223e-11
2.5482e-12
2.30432e-12
2.10638e-12
1.95576e-12
4.72735e-13
4.03135e-13
3.51019e-13
3.14991e-13
6.99545e-14
5.61866e-14
4.65556e-14
4.04331e-14
8.03731e-15
6.04803e-15
4.77722e-15
4.04705e-15
7.03467e-16
5.01358e-16
3.88257e-16
3.33227e-16
4.59337e-17
3.22305e-17
2.58553e-17
2.37167e-17
2.20576e-18
1.62283e-18
1.39608e-18
1.35641e-18
6.29812e-20
5.17673e-20
4.88486e-20
5.42968e-20
4.51253e-22
5.25388e-22
7.55514e-22
1.05454e-21
1.07362e-27
1.92413e-27
3.03712e-27
4.55663e-27
0.772568
-6.50949e-21
6.00572e-20
0.489719
0.693171
0.525118
0.250118
0.0642355
0.0921877
0.153387
0.227311
0.286937
0.324609
0.367836
0.432279
0.565864
0.77718
0.969607
0.903629
0.326722
-2.66331e-21
0.341777
0.672959
0.665803
0.0956828
7.0965e-09
7.0965e-09
0.000197538
0.000460031
0.00146773
0.00390955
0.00713347
0.0124591
0.0303199
0.205332
0.81902
0.859999
0.48412
0.302677
0.376698
0.699346
0.67041
0.109454
3.221e-07
7.29089e-07
2.08589e-06
4.13041e-06
8.86046e-06
8.98685e-06
0.000310431
0.00176351
0.00715951
0.0486347
0.449369
0.735982
0.478159
0.104663
0.376968
0.697681
0.668853
0.1174
3.36669e-08
3.2209e-07
5.61765e-07
2.87251e-07
2.86176e-07
2.86176e-07
0.000167101
0.00509995
0.0565685
0.313479
0.356034
0.154262
0.157349
0.0450854
0.0450851
0.707272
0.384926
0.000790896
0.000429427
3.36669e-08
3.36669e-08
3.36669e-08
7.6389e-06
7.0486e-06
2.86176e-07
0.000166649
0.0146157
0.31951
0.899383
0.916665
0.307831
1.09153e-07
1.09153e-07
0.208088
0.18225
1.64635e-06
0.000348416
1.69353e-06
7.43006e-06
0.000918142
0.00578362
0.0179425
0.0148896
7.34528e-06
0.000429176
0.100238
0.807584
0.990214
0.990214
0.904069
0.186807
0.00776277
0.665202
3.36385e-08
1.64644e-06
1.95401e-06
1.69378e-06
5.16793e-06
0.00145113
0.0772222
0.412215
0.319899
7.35119e-06
0.00384894
0.417041
0.96539
0.985207
0.990214
0.990214
0.851044
0.503105
0.922991
6.39143e-08
1.27023e-07
3.76734e-08
1.986e-06
6.96731e-06
0.000583052
0.167005
0.696842
0.613795
0.0476366
0.055211
0.654546
0.684737
0.561493
0.90303
0.987427
0.990214
0.990214
0.990214
0.000128506
3.36385e-08
3.36385e-08
1.36949e-06
3.22649e-06
5.25127e-06
0.292899
0.696842
0.696842
0.475879
0.304579
0.386644
0.0728564
0.0147074
0.307173
0.771179
0.985526
0.990214
0.990214
3.36385e-08
3.36385e-08
3.36385e-08
3.36385e-08
3.36385e-08
0.00703469
0.484945
0.689556
0.603268
0.603272
0.372204
0.0128399
2.83899e-05
2.84064e-05
2.83899e-05
0.159432
0.657858
0.896905
0.90624
0.201194
0.0711545
0.054745
0.0475537
0.203755
0.516798
0.503868
0.183831
0.0410542
0.033677
0.0188843
0.000486709
0.000486716
2.84105e-05
5.95371e-05
5.95255e-05
0.0750288
0.280612
0.366411
0.615626
0.684316
0.684386
0.674581
0.545076
0.196527
0.0254874
3.84073e-10
3.84073e-10
3.84073e-10
3.84073e-10
0.00167969
0.0014944
2.12264e-07
0.000316953
0.00153362
0.00153345
0.0272454
0.147242
2.81389e-07
0.0375508
0.0845793
0.0665191
0.0139286
3.84073e-10
2.11548e-06
3.84073e-10
0.000199383
0.00213933
0.00241192
0.00240375
0.000250811
2.12286e-07
8.30166e-05
0.00315414
0.0112191
0.0543227
0.348928
4.27758e-06
3.84073e-10
3.84073e-10
3.84073e-10
3.84073e-10
3.84073e-10
9.45869e-10
1.4751e-05
7.62292e-05
8.60546e-09
9.15786e-09
8.60546e-09
8.61323e-09
2.7352e-07
4.39847e-05
0.000822475
0.0091969
0.0514592
0.349346
2.7328e-07
4.64205e-07
1.89424e-06
8.24773e-07
3.84073e-10
3.84073e-10
3.84073e-10
3.61956e-06
1.57612e-05
8.61323e-09
8.63581e-09
1.12051e-08
2.20712e-08
1.05776e-06
3.25588e-05
2.97877e-07
3.079e-07
0.0109344
0.210833
1.13379e-08
5.43462e-10
7.73804e-07
9.90254e-07
3.86887e-07
1.96393e-08
1.0926e-06
1.37286e-07
1.36599e-07
5.75162e-07
8.95016e-07
1.03685e-05
7.07179e-06
6.99778e-07
1.80076e-07
2.98358e-07
2.70187e-05
0.00325663
1.19745e-05
2.84107e-10
5.43456e-10
2.96395e-10
4.50122e-07
1.25402e-10
7.77042e-06
1.19498e-05
1.05614e-06
1.37286e-07
5.54693e-06
2.49196e-05
3.17171e-05
2.081e-05
9.95844e-07
1.80067e-07
4.22677e-07
5.31201e-07
0.000170492
1.20253e-05
1.49145e-10
3.51964e-10
2.964e-10
8.0055e-10
1.25848e-10
1.43341e-06
2.21236e-06
2.24045e-05
4.20986e-05
4.21206e-05
4.21201e-05
3.13317e-05
9.92813e-06
1.4937e-06
1.81524e-07
4.52061e-08
4.62678e-06
4.21013e-06
1.20153e-05
5.55023e-11
1.24965e-10
1.49301e-10
1.42197e-10
5.55434e-08
2.77008e-08
2.13178e-08
4.02864e-06
1.39518e-05
1.26359e-05
2.72152e-06
5.60287e-11
5.55961e-11
7.77627e-07
4.5467e-07
3.86438e-08
1.88915e-05
1.07175e-05
4.71353e-05
1.1133e-11
2.39271e-11
7.47232e-11
2.30187e-11
1.35467e-08
5.36415e-09
2.13178e-08
5.88714e-08
3.77961e-08
8.85809e-12
8.78626e-12
9.10222e-11
9.89081e-11
7.43423e-12
7.43423e-12
7.43423e-12
1.44415e-05
0.00042659
0.000144603
1.15377e-12
2.69352e-12
8.72906e-12
2.30187e-11
9.9934e-11
4.7254e-10
1.36773e-09
7.64515e-10
4.30301e-11
1.2945e-10
3.15283e-10
3.94846e-10
3.59925e-10
1.94073e-10
3.8855e-11
5.72234e-10
2.14666e-10
0.00129609
0.000266785
1.89038e-12
4.87794e-12
1.53132e-11
2.15039e-11
1.99408e-11
1.77222e-11
1.75466e-11
2.02233e-11
4.30302e-11
8.79409e-11
1.61156e-10
2.14647e-10
1.99757e-10
1.41719e-10
7.02292e-12
5.73558e-07
1.87547e-10
0.00126165
0.0204977
4.05934e-11
1.02922e-10
3.64122e-10
4.57006e-10
3.38189e-10
1.7664e-10
8.25936e-11
4.13667e-11
2.70069e-11
2.44201e-11
2.59861e-11
3.12833e-11
3.3718e-11
2.4702e-11
7.02293e-12
2.3391e-06
1.87455e-10
0.000598802
0.101513
1.2649e-09
4.60224e-09
9.76872e-09
7.0224e-09
3.25298e-09
1.25495e-09
5.9529e-10
2.98366e-10
1.38065e-10
5.66677e-11
2.10256e-11
1.10795e-11
9.99891e-12
7.02293e-12
7.02292e-12
2.34052e-06
1.87547e-10
0.00025242
0.105097
6.87882e-08
7.93641e-08
4.71258e-08
1.57216e-08
8.22776e-09
4.22128e-09
1.80457e-09
9.48775e-10
5.42732e-10
2.79542e-10
1.12459e-10
3.52759e-11
1.17796e-11
7.02292e-12
7.02293e-12
1.73235e-06
1.87455e-10
9.36614e-06
0.1051
2.19293e-07
1.02977e-07
1.92999e-08
8.50369e-09
9.62038e-09
1.14916e-08
5.30765e-09
1.74622e-09
9.70279e-10
6.64459e-10
3.79732e-10
1.50832e-10
4.86144e-11
1.03853e-11
7.02292e-12
2.9969e-06
4.42239e-06
3.33823e-23
0.0903222
4.91502e-08
5.12209e-11
5.11993e-11
3.46727e-10
1.87135e-09
1.15302e-08
4.83069e-08
4.6905e-08
2.66816e-08
5.2459e-09
1.5215e-09
5.25031e-10
1.764e-10
3.83277e-11
7.02293e-12
2.91977e-06
1.43951e-05
7.78129e-23
0.00438456
1.43265e-11
1.35232e-10
1.59912e-10
3.85185e-11
1.48502e-11
1.4849e-11
1.9205e-07
6.30062e-07
6.06232e-07
2.42709e-07
2.44195e-08
2.1963e-09
5.29002e-10
1.28884e-10
7.02292e-12
3.69812e-06
2.53564e-05
4.00962e-06
9.93081e-08
3.13156e-10
3.86179e-10
3.47239e-10
1.42353e-10
2.19157e-11
1.49087e-11
1.77556e-07
8.08885e-07
8.32783e-07
8.34163e-07
2.39507e-07
7.37554e-09
6.82989e-10
2.41087e-10
7.02293e-12
1.05223e-06
2.53517e-05
8.42174e-06
9.92551e-08
2.59616e-10
2.69105e-10
1.69654e-10
8.45418e-11
2.17175e-11
4.29373e-09
8.79838e-11
1.1171e-08
4.50304e-07
8.32783e-07
5.40689e-07
4.51159e-08
7.52788e-10
2.58656e-10
4.4928e-11
4.08212e-11
1.49664e-05
8.37831e-06
1.43684e-07
5.35991e-11
6.09877e-11
4.11249e-11
2.99634e-11
1.84944e-11
1.82315e-11
8.79696e-11
6.4292e-13
6.42878e-13
7.43251e-08
4.5593e-07
1.63395e-07
1.879e-09
2.1778e-10
4.49976e-11
4.07397e-11
5.99603e-07
1.6529e-06
3.33319e-07
1.00709e-11
9.91922e-12
9.35596e-12
8.58167e-12
9.21048e-12
3.62825e-11
2.74074e-10
3.21704e-10
8.82617e-11
7.14928e-11
1.64318e-07
6.66521e-07
2.27935e-07
5.65901e-09
1.30082e-10
1.00052e-09
8.74674e-10
8.74728e-10
4.79962e-07
1.83249e-12
1.80478e-12
1.78838e-12
1.85178e-12
3.78148e-12
2.55973e-11
2.30016e-10
3.78942e-10
1.08431e-10
1.22561e-09
1.52622e-08
9.72533e-07
4.99311e-07
1.42596e-08
7.59811e-10
3.3219e-10
2.69234e-10
1.48128e-06
2.26577e-06
2.86506e-13
2.71871e-13
2.96135e-13
4.25796e-13
1.20029e-12
7.07038e-12
5.97041e-11
2.34953e-10
1.41688e-11
2.12915e-08
1.90859e-08
1.86197e-06
1.45704e-06
3.04075e-07
9.03145e-09
9.52765e-12
1.42957e-06
9.95523e-06
4.60338e-06
3.57896e-14
3.34399e-14
4.66368e-14
9.7109e-14
3.10784e-13
1.55101e-12
1.13726e-11
7.04817e-11
1.2336e-11
5.33417e-18
5.16605e-06
6.02299e-06
4.99691e-06
1.48034e-06
6.31031e-09
9.52778e-12
6.98205e-06
1.03384e-05
4.42549e-06
3.62971e-15
3.77399e-15
7.55231e-15
2.01551e-14
6.63169e-14
2.69615e-13
1.79889e-12
2.10952e-11
1.48991e-11
-1.77481e-31
1.82688e-05
2.17095e-05
9.42736e-06
1.56377e-06
2.73504e-09
9.52765e-12
4.79245e-06
1.03386e-05
2.74569e-06
3.10191e-16
4.4516e-16
1.16716e-15
3.50661e-15
1.16823e-14
4.01154e-14
2.35046e-13
4.93413e-12
3.35028e-12
9.19938e-31
4.33706e-06
9.90857e-05
4.54435e-05
2.31036e-06
1.44868e-09
9.52778e-12
6.59357e-07
5.97891e-06
6.11938e-07
2.45474e-17
5.02693e-17
1.49352e-16
4.83909e-16
1.68078e-15
5.33944e-15
2.85927e-14
8.4063e-13
5.00278e-13
2.54115e-14
1.6792e-32
0.000178053
0.000113571
4.26259e-06
2.95751e-09
9.52765e-12
6.92726e-08
6.51328e-08
6.04398e-08
1.80501e-18
4.40825e-18
1.41584e-17
5.04925e-17
1.90803e-16
6.2744e-16
3.37618e-15
9.95572e-14
5.62509e-14
1.12995e-15
5.18203e-34
0.000178392
0.000144757
9.58351e-06
1.40583e-08
5.10339e-08
4.32984e-08
6.2818e-09
7.03536e-08
9.13073e-20
2.45846e-19
8.98133e-19
3.69983e-18
1.57921e-17
5.73467e-17
3.04651e-16
7.086e-15
3.49033e-15
2.31612e-16
-5.38483e-35
0.000178423
0.000133576
8.77193e-06
2.28087e-08
9.99935e-08
3.7407e-08
6.29786e-09
7.0142e-08
2.0392e-21
6.91634e-21
3.15101e-20
1.53745e-19
7.39919e-19
2.97187e-18
1.3928e-17
2.25805e-16
7.66347e-17
5.37606e-18
-1.01832e-38
0.0001521
0.000140215
9.16126e-06
2.13524e-08
9.98959e-08
9.34519e-09
6.26674e-09
6.31264e-09
7.62036e-27
1.61199e-26
3.00337e-26
3.21575e-26
1.21968e-26
-1.07813e-74
-4.21066e-74
-6.27675e-73
-1.14216e-34
-1.38173e-34
-9.41688e-35
7.32749e-05
0.00012224
8.73137e-06
1.09296e-08
2.43383e-08
3.56222e-07
3.61303e-06
5.20207e-06
)
;

boundaryField
{
    leftWall
    {
        type            zeroGradient;
    }
    rightWall
    {
        type            zeroGradient;
    }
    lowerWall
    {
        type            zeroGradient;
    }
    atmosphere
    {
        type            inletOutlet;
        inletValue      uniform 0;
        value           nonuniform List<scalar> 
46
(
2.41279e-17
1.39896e-15
3.80674e-14
6.36878e-13
7.15472e-12
5.55801e-11
6.62315e-10
4.71378e-08
5.28868e-07
7.06054e-07
1.80889e-08
6.41025e-13
6.66825e-12
7.21308e-12
1.73454e-12
0
0
0
0
0
0
0
0
0
0
0
0
0
0
0
0
0
0
0
0
0
0
0
0
0.00012224
8.73137e-06
1.09296e-08
2.43383e-08
3.56222e-07
3.61303e-06
5.20207e-06
)
;
    }
    defaultFaces
    {
        type            empty;
    }
}


// ************************************************************************* //
