/*--------------------------------*- C++ -*----------------------------------*\
| =========                 |                                                 |
| \\      /  F ield         | OpenFOAM: The Open Source CFD Toolbox           |
|  \\    /   O peration     | Version:  2012                                  |
|   \\  /    A nd           | Website:  www.openfoam.com                      |
|    \\/     M anipulation  |                                                 |
\*---------------------------------------------------------------------------*/
FoamFile
{
    version     2.0;
    format      ascii;
    class       volScalarField;
    location    "0.3";
    object      minKappa;
}
// * * * * * * * * * * * * * * * * * * * * * * * * * * * * * * * * * * * * * //

dimensions      [0 0 0 0 0 0 0];


internalField   nonuniform List<scalar> 
20400
(
1.33229e-08
1.22291e-08
9.68969e-09
3.057e-09
9.07858e-09
1.27767e-08
1.45362e-08
1.81508e-08
1.99831e-08
2.243e-08
2.43558e-08
2.645e-08
2.82827e-08
3.01115e-08
3.17532e-08
3.33361e-08
3.48029e-08
3.61715e-08
3.7444e-08
3.86258e-08
3.97219e-08
4.07376e-08
4.16782e-08
4.25485e-08
4.33532e-08
4.40967e-08
4.47835e-08
4.54176e-08
4.60031e-08
4.65434e-08
4.70425e-08
4.75034e-08
4.7929e-08
4.83219e-08
4.86845e-08
4.90192e-08
4.9328e-08
4.9613e-08
4.9876e-08
5.01186e-08
5.03424e-08
5.0549e-08
5.07396e-08
5.09155e-08
5.10778e-08
5.12275e-08
5.13658e-08
5.14934e-08
5.16112e-08
5.17199e-08
5.18203e-08
5.19129e-08
5.19984e-08
5.20773e-08
5.21502e-08
5.22175e-08
5.22796e-08
5.2337e-08
5.239e-08
5.24389e-08
5.2484e-08
5.25258e-08
5.25643e-08
5.25999e-08
5.26327e-08
5.2663e-08
5.2691e-08
5.27169e-08
5.27407e-08
5.27628e-08
5.27831e-08
5.28019e-08
5.28193e-08
5.28353e-08
5.28501e-08
5.28638e-08
5.28764e-08
5.2888e-08
5.28988e-08
5.29087e-08
5.29179e-08
5.29263e-08
5.29341e-08
5.29413e-08
5.2948e-08
5.29541e-08
5.29598e-08
5.2965e-08
5.29698e-08
5.29743e-08
5.29784e-08
5.29822e-08
5.29858e-08
5.29889e-08
5.2992e-08
5.29947e-08
5.29972e-08
5.29996e-08
5.30017e-08
5.30037e-08
5.30056e-08
5.30073e-08
5.30088e-08
5.30103e-08
5.30116e-08
5.30128e-08
5.3014e-08
5.3015e-08
5.30159e-08
5.30168e-08
5.30177e-08
5.30184e-08
5.30191e-08
5.30198e-08
5.30204e-08
5.30209e-08
5.30214e-08
5.30219e-08
5.30223e-08
5.30227e-08
5.3023e-08
5.30234e-08
5.30237e-08
5.3024e-08
5.30243e-08
5.30246e-08
5.30249e-08
5.30252e-08
5.30254e-08
5.30257e-08
5.30258e-08
5.30259e-08
5.30259e-08
5.3026e-08
5.30261e-08
5.3026e-08
5.3026e-08
5.30261e-08
5.30262e-08
5.30263e-08
5.30264e-08
5.30265e-08
5.30265e-08
5.30267e-08
5.30268e-08
5.30269e-08
5.3027e-08
5.3027e-08
5.3027e-08
5.3027e-08
5.3027e-08
5.30269e-08
5.30268e-08
5.30268e-08
5.30268e-08
5.30267e-08
5.30267e-08
5.30268e-08
5.30268e-08
5.30268e-08
5.30268e-08
5.30268e-08
5.30268e-08
5.30267e-08
5.30267e-08
5.30267e-08
5.30268e-08
5.30268e-08
5.30268e-08
5.30267e-08
5.30267e-08
5.30267e-08
5.30266e-08
5.30265e-08
5.30265e-08
5.30264e-08
5.30264e-08
5.30264e-08
5.30264e-08
5.30264e-08
5.30264e-08
5.30264e-08
5.30263e-08
5.30263e-08
5.30262e-08
5.30262e-08
5.30262e-08
5.30262e-08
5.30262e-08
5.30262e-08
5.30262e-08
5.30262e-08
5.30262e-08
5.30261e-08
5.30261e-08
5.30261e-08
5.3026e-08
5.3026e-08
5.3026e-08
5.3026e-08
5.3026e-08
5.30259e-08
5.30259e-08
5.30259e-08
5.30258e-08
5.30258e-08
5.30257e-08
5.30257e-08
5.30258e-08
5.30256e-08
5.30256e-08
5.30256e-08
5.30256e-08
5.30255e-08
5.30255e-08
5.30255e-08
5.30253e-08
5.30253e-08
5.30251e-08
5.30251e-08
5.30251e-08
5.30251e-08
5.30249e-08
5.30249e-08
5.3025e-08
5.30248e-08
5.30248e-08
5.30249e-08
5.30249e-08
5.30249e-08
5.30249e-08
5.30249e-08
5.30248e-08
5.30248e-08
5.30247e-08
5.30246e-08
5.30246e-08
5.30246e-08
5.30246e-08
5.30246e-08
5.30246e-08
5.30246e-08
5.30246e-08
5.30246e-08
5.30246e-08
5.30246e-08
5.30246e-08
5.30246e-08
5.30245e-08
5.30244e-08
5.30244e-08
5.30244e-08
5.30244e-08
5.30244e-08
5.30242e-08
5.30242e-08
5.30241e-08
5.3024e-08
5.3024e-08
5.3024e-08
5.3024e-08
5.3024e-08
5.30241e-08
5.30241e-08
5.3024e-08
5.3024e-08
5.3024e-08
5.30238e-08
5.30238e-08
5.30238e-08
5.30237e-08
5.30237e-08
5.30237e-08
5.30237e-08
5.30238e-08
5.30236e-08
5.30236e-08
5.30236e-08
5.30236e-08
5.30235e-08
5.30235e-08
5.30236e-08
5.30236e-08
5.30236e-08
5.30235e-08
5.30234e-08
5.30233e-08
5.30233e-08
5.30233e-08
5.30231e-08
5.30231e-08
5.30231e-08
5.30231e-08
5.3023e-08
5.3023e-08
5.3023e-08
5.30228e-08
5.30228e-08
5.30228e-08
5.30228e-08
5.30229e-08
5.3023e-08
5.3023e-08
5.30228e-08
5.30228e-08
5.30228e-08
5.30229e-08
5.30227e-08
5.30227e-08
5.30229e-08
5.30229e-08
5.30229e-08
5.30228e-08
5.30228e-08
5.30227e-08
5.30227e-08
5.30227e-08
5.30228e-08
5.30226e-08
5.30226e-08
5.30227e-08
5.30227e-08
5.30226e-08
5.30226e-08
5.30226e-08
5.30227e-08
5.30226e-08
5.30225e-08
5.30225e-08
5.30225e-08
5.30225e-08
5.30225e-08
5.30225e-08
5.30225e-08
5.30225e-08
5.30224e-08
5.30224e-08
5.30223e-08
5.30223e-08
5.30223e-08
5.30224e-08
5.30224e-08
5.30223e-08
5.30222e-08
5.30222e-08
5.30222e-08
5.30221e-08
5.30221e-08
5.30222e-08
5.30219e-08
5.30219e-08
5.30219e-08
5.30219e-08
5.30219e-08
5.3022e-08
5.30221e-08
5.30221e-08
5.30221e-08
5.3022e-08
5.3022e-08
5.30221e-08
5.30221e-08
5.30219e-08
5.30219e-08
5.30221e-08
5.3022e-08
5.3022e-08
5.3022e-08
5.3022e-08
5.30216e-08
5.30216e-08
5.30215e-08
5.30215e-08
5.30215e-08
5.30215e-08
5.30216e-08
5.30216e-08
5.30218e-08
5.30218e-08
5.30218e-08
5.30217e-08
5.30217e-08
5.30217e-08
5.30217e-08
5.30217e-08
5.30217e-08
5.30216e-08
5.30216e-08
5.30216e-08
5.30216e-08
5.30216e-08
5.30216e-08
5.30216e-08
5.30216e-08
5.30214e-08
5.30214e-08
5.30216e-08
5.30216e-08
5.30216e-08
5.30213e-08
5.30213e-08
5.30213e-08
5.30213e-08
5.30214e-08
5.30214e-08
5.30214e-08
5.30214e-08
5.30213e-08
5.3021e-08
5.3021e-08
5.30214e-08
5.30214e-08
5.30215e-08
5.30214e-08
5.30214e-08
5.30215e-08
5.30215e-08
5.30213e-08
5.30213e-08
5.30213e-08
5.30214e-08
5.30214e-08
5.30213e-08
5.30213e-08
5.30213e-08
5.30212e-08
5.30212e-08
5.30208e-08
5.30208e-08
5.30211e-08
5.30211e-08
5.30212e-08
5.30212e-08
5.30213e-08
5.30212e-08
5.30212e-08
5.30211e-08
5.30211e-08
5.30212e-08
5.30212e-08
5.30213e-08
5.30213e-08
5.30212e-08
5.30211e-08
5.3021e-08
5.3021e-08
5.3021e-08
5.3021e-08
5.30211e-08
5.30211e-08
5.30209e-08
5.30209e-08
5.30208e-08
5.30208e-08
5.30209e-08
5.30209e-08
5.30209e-08
5.3021e-08
5.3021e-08
5.3021e-08
5.3021e-08
5.3021e-08
5.30208e-08
5.30207e-08
5.30207e-08
5.3021e-08
5.3021e-08
5.3021e-08
5.30211e-08
5.3021e-08
5.3021e-08
5.3021e-08
5.30209e-08
5.30209e-08
5.30209e-08
5.30209e-08
5.30209e-08
5.30209e-08
5.30209e-08
5.30209e-08
5.30209e-08
5.30208e-08
5.30208e-08
5.30207e-08
5.30207e-08
5.30201e-08
5.30201e-08
5.30183e-08
5.30183e-08
5.30152e-08
5.30152e-08
5.30128e-08
5.30128e-08
5.30163e-08
5.30149e-08
5.30149e-08
5.29981e-08
5.29981e-08
5.29918e-08
5.29918e-08
1.74902e-08
1.22291e-08
1.31872e-08
3.057e-09
1.2797e-08
1.27767e-08
1.86494e-08
2.05791e-08
2.4468e-08
2.59461e-08
2.87344e-08
3.05668e-08
3.27892e-08
3.46076e-08
3.64337e-08
3.81141e-08
3.96885e-08
4.11535e-08
4.25162e-08
4.37817e-08
4.49557e-08
4.60434e-08
4.70502e-08
4.79818e-08
4.88433e-08
4.96398e-08
5.03758e-08
5.10558e-08
5.16837e-08
5.22635e-08
5.2799e-08
5.32935e-08
5.37499e-08
5.41712e-08
5.45601e-08
5.4919e-08
5.52502e-08
5.55559e-08
5.58379e-08
5.60983e-08
5.63385e-08
5.65602e-08
5.67648e-08
5.69536e-08
5.71279e-08
5.72887e-08
5.74372e-08
5.75742e-08
5.77006e-08
5.78173e-08
5.79251e-08
5.80245e-08
5.81163e-08
5.82011e-08
5.82793e-08
5.83515e-08
5.84182e-08
5.84798e-08
5.85366e-08
5.85891e-08
5.86375e-08
5.86822e-08
5.87235e-08
5.87617e-08
5.87969e-08
5.88294e-08
5.88594e-08
5.88871e-08
5.89127e-08
5.89363e-08
5.89582e-08
5.89783e-08
5.89969e-08
5.90141e-08
5.903e-08
5.90446e-08
5.90581e-08
5.90706e-08
5.90821e-08
5.90927e-08
5.91025e-08
5.91116e-08
5.912e-08
5.91277e-08
5.91348e-08
5.91414e-08
5.91474e-08
5.91532e-08
5.91581e-08
5.91632e-08
5.91672e-08
5.91717e-08
5.91751e-08
5.91787e-08
5.91819e-08
5.91847e-08
5.91876e-08
5.91899e-08
5.91924e-08
5.91943e-08
5.91965e-08
5.91981e-08
5.91999e-08
5.92013e-08
5.92028e-08
5.9204e-08
5.92054e-08
5.92063e-08
5.92075e-08
5.92083e-08
5.92093e-08
5.921e-08
5.92107e-08
5.92114e-08
5.92121e-08
5.92125e-08
5.92132e-08
5.92135e-08
5.92141e-08
5.92144e-08
5.92148e-08
5.92151e-08
5.92156e-08
5.92157e-08
5.92162e-08
5.92163e-08
5.92167e-08
5.92166e-08
5.92172e-08
5.9217e-08
5.92174e-08
5.92173e-08
5.92176e-08
5.92174e-08
5.92177e-08
5.92176e-08
5.92178e-08
5.92178e-08
5.92179e-08
5.9218e-08
5.9218e-08
5.92182e-08
5.92179e-08
5.92185e-08
5.92181e-08
5.92184e-08
5.92182e-08
5.92185e-08
5.92182e-08
5.92183e-08
5.92182e-08
5.92182e-08
5.92181e-08
5.92181e-08
5.92181e-08
5.92181e-08
5.92181e-08
5.9218e-08
5.92181e-08
5.9218e-08
5.9218e-08
5.9218e-08
5.9218e-08
5.9218e-08
5.92178e-08
5.92181e-08
5.92178e-08
5.92181e-08
5.92177e-08
5.92179e-08
5.92176e-08
5.92179e-08
5.92174e-08
5.92178e-08
5.92173e-08
5.92177e-08
5.92173e-08
5.92174e-08
5.92172e-08
5.92174e-08
5.92171e-08
5.92173e-08
5.9217e-08
5.92172e-08
5.9217e-08
5.92169e-08
5.9217e-08
5.9217e-08
5.9217e-08
5.92169e-08
5.92169e-08
5.92169e-08
5.92166e-08
5.92169e-08
5.92165e-08
5.92168e-08
5.92164e-08
5.92167e-08
5.92165e-08
5.92165e-08
5.92165e-08
5.92165e-08
5.92162e-08
5.92165e-08
5.92161e-08
5.92164e-08
5.92162e-08
5.92159e-08
5.92164e-08
5.92157e-08
5.92163e-08
5.92158e-08
5.92159e-08
5.9216e-08
5.92157e-08
5.92159e-08
5.92156e-08
5.92158e-08
5.92155e-08
5.92155e-08
5.92154e-08
5.92154e-08
5.92153e-08
5.92152e-08
5.92152e-08
5.92153e-08
5.9215e-08
5.92152e-08
5.92151e-08
5.92151e-08
5.92151e-08
5.92149e-08
5.9215e-08
5.92148e-08
5.92148e-08
5.92147e-08
5.92147e-08
5.92148e-08
5.92147e-08
5.92147e-08
5.92146e-08
5.92147e-08
5.92144e-08
5.92148e-08
5.92143e-08
5.92146e-08
5.92143e-08
5.92144e-08
5.92143e-08
5.92144e-08
5.92141e-08
5.92145e-08
5.9214e-08
5.92144e-08
5.9214e-08
5.9214e-08
5.9214e-08
5.92139e-08
5.9214e-08
5.92138e-08
5.92138e-08
5.92137e-08
5.92139e-08
5.92136e-08
5.92139e-08
5.92135e-08
5.92138e-08
5.92135e-08
5.92135e-08
5.92134e-08
5.92133e-08
5.92133e-08
5.92134e-08
5.92132e-08
5.92134e-08
5.92131e-08
5.92133e-08
5.92133e-08
5.9213e-08
5.92134e-08
5.92128e-08
5.92134e-08
5.92127e-08
5.92133e-08
5.92127e-08
5.92131e-08
5.92127e-08
5.92128e-08
5.92128e-08
5.92127e-08
5.92127e-08
5.92126e-08
5.92126e-08
5.92124e-08
5.92125e-08
5.92124e-08
5.92125e-08
5.92123e-08
5.92126e-08
5.92121e-08
5.92126e-08
5.92121e-08
5.92125e-08
5.92121e-08
5.92122e-08
5.92121e-08
5.92123e-08
5.92121e-08
5.92119e-08
5.92122e-08
5.92119e-08
5.92122e-08
5.92119e-08
5.9212e-08
5.9212e-08
5.92119e-08
5.9212e-08
5.92118e-08
5.9212e-08
5.92116e-08
5.92121e-08
5.92115e-08
5.9212e-08
5.92114e-08
5.9212e-08
5.92114e-08
5.92118e-08
5.92115e-08
5.92117e-08
5.92115e-08
5.92116e-08
5.92113e-08
5.92116e-08
5.92113e-08
5.92116e-08
5.92111e-08
5.92116e-08
5.92111e-08
5.92114e-08
5.92113e-08
5.92112e-08
5.92111e-08
5.92112e-08
5.92111e-08
5.9211e-08
5.92111e-08
5.92109e-08
5.92111e-08
5.9211e-08
5.92108e-08
5.9211e-08
5.92107e-08
5.92112e-08
5.92106e-08
5.92111e-08
5.92106e-08
5.92109e-08
5.92106e-08
5.92111e-08
5.92106e-08
5.9211e-08
5.92106e-08
5.92111e-08
5.92104e-08
5.92112e-08
5.921e-08
5.92114e-08
5.92098e-08
5.92114e-08
5.92099e-08
5.92108e-08
5.92104e-08
5.92101e-08
5.92109e-08
5.92097e-08
5.92113e-08
5.92094e-08
5.92115e-08
5.92093e-08
5.92114e-08
5.92094e-08
5.92112e-08
5.92096e-08
5.9211e-08
5.92097e-08
5.92104e-08
5.92101e-08
5.92104e-08
5.92104e-08
5.92099e-08
5.92106e-08
5.92096e-08
5.92106e-08
5.92095e-08
5.92107e-08
5.92094e-08
5.92107e-08
5.92094e-08
5.92105e-08
5.92097e-08
5.92102e-08
5.92098e-08
5.92099e-08
5.921e-08
5.92098e-08
5.921e-08
5.921e-08
5.92095e-08
5.92103e-08
5.92093e-08
5.92107e-08
5.9209e-08
5.92108e-08
5.92089e-08
5.92106e-08
5.92092e-08
5.92103e-08
5.92094e-08
5.92101e-08
5.92094e-08
5.92101e-08
5.92092e-08
5.92103e-08
5.92091e-08
5.92102e-08
5.92092e-08
5.92098e-08
5.92095e-08
5.92092e-08
5.92101e-08
5.92089e-08
5.92104e-08
5.92086e-08
5.92104e-08
5.92087e-08
5.92102e-08
5.9209e-08
5.92098e-08
5.92093e-08
5.92096e-08
5.92094e-08
5.92094e-08
5.92094e-08
5.92095e-08
5.92094e-08
5.92093e-08
5.92095e-08
5.92092e-08
5.92094e-08
5.92092e-08
5.92094e-08
5.9209e-08
5.92093e-08
5.92091e-08
5.92094e-08
5.92091e-08
5.92093e-08
5.92091e-08
5.92093e-08
5.92091e-08
5.92093e-08
5.92089e-08
5.92093e-08
5.9209e-08
5.92092e-08
5.92091e-08
5.92092e-08
5.92092e-08
5.92092e-08
5.92093e-08
5.92092e-08
5.92092e-08
5.92091e-08
5.92091e-08
5.92091e-08
5.92091e-08
5.92091e-08
5.92091e-08
5.9209e-08
5.92093e-08
5.9209e-08
5.92093e-08
5.92087e-08
5.92094e-08
5.92083e-08
5.921e-08
5.92063e-08
5.92136e-08
5.9199e-08
5.92246e-08
5.91813e-08
5.92459e-08
5.91549e-08
5.92687e-08
5.91383e-08
5.92705e-08
5.9153e-08
5.92197e-08
5.91959e-08
5.91985e-08
1.8604e-08
1.48983e-08
1.55553e-08
6.27271e-09
1.49712e-08
1.53432e-08
1.999e-08
2.35359e-08
2.61629e-08
2.90264e-08
3.13244e-08
3.3818e-08
3.60132e-08
3.8204e-08
4.01907e-08
4.21004e-08
4.38758e-08
4.55348e-08
4.70793e-08
4.85157e-08
4.98495e-08
5.10869e-08
5.22342e-08
5.32971e-08
5.4281e-08
5.51912e-08
5.60328e-08
5.67872e-08
5.74793e-08
5.81185e-08
5.87088e-08
5.92538e-08
5.97568e-08
6.02213e-08
6.065e-08
6.10458e-08
6.14111e-08
6.17483e-08
6.20596e-08
6.23469e-08
6.26122e-08
6.2857e-08
6.3083e-08
6.32917e-08
6.34843e-08
6.3662e-08
6.38261e-08
6.39776e-08
6.41175e-08
6.42466e-08
6.43657e-08
6.44758e-08
6.45774e-08
6.46711e-08
6.47577e-08
6.48377e-08
6.49115e-08
6.49796e-08
6.50425e-08
6.51006e-08
6.51542e-08
6.52037e-08
6.52494e-08
6.52916e-08
6.53306e-08
6.53666e-08
6.53998e-08
6.54305e-08
6.54588e-08
6.5485e-08
6.55092e-08
6.55315e-08
6.5552e-08
6.55711e-08
6.55887e-08
6.56049e-08
6.56199e-08
6.56336e-08
6.56464e-08
6.56582e-08
6.56691e-08
6.56791e-08
6.56884e-08
6.56969e-08
6.57048e-08
6.57121e-08
6.57188e-08
6.5725e-08
6.57306e-08
6.5736e-08
6.57408e-08
6.57454e-08
6.57494e-08
6.57533e-08
6.57568e-08
6.576e-08
6.57632e-08
6.57656e-08
6.57685e-08
6.57706e-08
6.5773e-08
6.57748e-08
6.57767e-08
6.57784e-08
6.578e-08
6.57813e-08
6.57828e-08
6.57837e-08
6.57851e-08
6.5786e-08
6.57869e-08
6.57879e-08
6.57886e-08
6.57893e-08
6.57901e-08
6.57906e-08
6.57913e-08
6.57916e-08
6.57922e-08
6.57926e-08
6.57931e-08
6.57933e-08
6.57937e-08
6.5794e-08
6.57943e-08
6.57944e-08
6.57948e-08
6.57947e-08
6.57952e-08
6.5795e-08
6.57954e-08
6.57953e-08
6.57957e-08
6.57956e-08
6.57959e-08
6.57959e-08
6.57961e-08
6.5796e-08
6.57961e-08
6.57961e-08
6.57961e-08
6.57964e-08
6.5796e-08
6.57965e-08
6.57961e-08
6.57962e-08
6.57961e-08
6.57963e-08
6.5796e-08
6.57962e-08
6.57961e-08
6.57961e-08
6.57961e-08
6.5796e-08
6.57961e-08
6.57959e-08
6.57962e-08
6.57956e-08
6.57962e-08
6.57956e-08
6.5796e-08
6.57956e-08
6.57957e-08
6.57957e-08
6.57955e-08
6.57959e-08
6.57951e-08
6.5796e-08
6.5795e-08
6.57956e-08
6.57951e-08
6.57955e-08
6.5795e-08
6.57955e-08
6.57948e-08
6.57953e-08
6.57949e-08
6.57951e-08
6.57948e-08
6.57949e-08
6.57946e-08
6.5795e-08
6.57942e-08
6.57949e-08
6.57942e-08
6.57946e-08
6.57943e-08
6.57943e-08
6.57944e-08
6.5794e-08
6.57943e-08
6.57941e-08
6.57939e-08
6.57942e-08
6.57938e-08
6.5794e-08
6.57938e-08
6.57938e-08
6.57938e-08
6.57933e-08
6.5794e-08
6.57933e-08
6.57936e-08
6.57934e-08
6.57932e-08
6.57934e-08
6.57933e-08
6.57929e-08
6.57936e-08
6.57926e-08
6.57936e-08
6.57925e-08
6.57933e-08
6.57926e-08
6.57929e-08
6.57927e-08
6.57927e-08
6.57926e-08
6.57926e-08
6.57924e-08
6.57925e-08
6.57923e-08
6.57925e-08
6.57922e-08
6.57922e-08
6.57923e-08
6.57921e-08
6.57921e-08
6.5792e-08
6.57919e-08
6.5792e-08
6.57916e-08
6.5792e-08
6.57916e-08
6.57917e-08
6.57917e-08
6.57916e-08
6.57915e-08
6.57916e-08
6.57913e-08
6.57915e-08
6.57912e-08
6.57913e-08
6.57913e-08
6.5791e-08
6.57912e-08
6.5791e-08
6.5791e-08
6.57909e-08
6.5791e-08
6.57908e-08
6.57909e-08
6.57906e-08
6.57908e-08
6.57906e-08
6.57906e-08
6.57907e-08
6.57904e-08
6.57908e-08
6.57903e-08
6.57905e-08
6.57903e-08
6.57904e-08
6.579e-08
6.57904e-08
6.57899e-08
6.57903e-08
6.579e-08
6.579e-08
6.579e-08
6.57898e-08
6.57899e-08
6.57898e-08
6.57896e-08
6.57899e-08
6.57895e-08
6.57898e-08
6.57896e-08
6.57894e-08
6.57898e-08
6.57892e-08
6.57898e-08
6.5789e-08
6.57896e-08
6.5789e-08
6.57894e-08
6.57891e-08
6.57891e-08
6.57891e-08
6.57889e-08
6.57891e-08
6.57888e-08
6.57891e-08
6.57888e-08
6.57889e-08
6.57887e-08
6.57888e-08
6.57888e-08
6.57887e-08
6.57885e-08
6.57888e-08
6.57883e-08
6.57886e-08
6.57885e-08
6.57884e-08
6.57884e-08
6.57882e-08
6.57885e-08
6.5788e-08
6.57885e-08
6.57879e-08
6.5788e-08
6.57881e-08
6.5788e-08
6.57881e-08
6.57879e-08
6.57881e-08
6.57878e-08
6.57879e-08
6.57877e-08
6.57879e-08
6.57876e-08
6.57879e-08
6.57874e-08
6.57881e-08
6.57873e-08
6.57877e-08
6.57875e-08
6.57874e-08
6.57875e-08
6.57874e-08
6.57874e-08
6.57874e-08
6.57871e-08
6.57874e-08
6.5787e-08
6.57875e-08
6.57869e-08
6.57873e-08
6.57868e-08
6.57871e-08
6.57869e-08
6.57869e-08
6.5787e-08
6.57868e-08
6.5787e-08
6.57866e-08
6.57869e-08
6.57866e-08
6.57868e-08
6.57868e-08
6.57864e-08
6.57866e-08
6.57868e-08
6.57864e-08
6.57866e-08
6.57864e-08
6.57865e-08
6.57864e-08
6.57865e-08
6.57864e-08
6.57863e-08
6.57865e-08
6.57861e-08
6.57867e-08
6.57856e-08
6.5787e-08
6.57854e-08
6.57868e-08
6.57858e-08
6.57865e-08
6.5786e-08
6.57857e-08
6.57869e-08
6.5785e-08
6.57872e-08
6.57847e-08
6.57873e-08
6.57846e-08
6.57871e-08
6.57848e-08
6.57867e-08
6.5785e-08
6.57865e-08
6.57852e-08
6.57861e-08
6.57856e-08
6.57858e-08
6.57857e-08
6.57855e-08
6.5786e-08
6.57853e-08
6.57861e-08
6.57849e-08
6.57863e-08
6.57848e-08
6.5786e-08
6.5785e-08
6.57858e-08
6.57853e-08
6.57856e-08
6.57855e-08
6.57853e-08
6.57857e-08
6.57852e-08
6.57853e-08
6.57855e-08
6.57849e-08
6.57862e-08
6.57845e-08
6.57864e-08
6.57841e-08
6.57864e-08
6.57842e-08
6.57861e-08
6.57844e-08
6.57857e-08
6.57847e-08
6.57856e-08
6.57846e-08
6.57856e-08
6.57843e-08
6.57857e-08
6.57842e-08
6.57856e-08
6.57844e-08
6.57852e-08
6.57848e-08
6.57848e-08
6.57854e-08
6.57842e-08
6.57857e-08
6.5784e-08
6.57856e-08
6.5784e-08
6.57854e-08
6.57843e-08
6.57851e-08
6.57845e-08
6.57848e-08
6.57846e-08
6.57847e-08
6.57846e-08
6.57847e-08
6.57846e-08
6.57848e-08
6.57846e-08
6.57847e-08
6.57846e-08
6.57845e-08
6.57846e-08
6.57844e-08
6.57847e-08
6.57845e-08
6.57847e-08
6.57844e-08
6.57848e-08
6.57841e-08
6.57848e-08
6.57839e-08
6.57849e-08
6.57841e-08
6.57847e-08
6.57843e-08
6.57845e-08
6.57842e-08
6.57844e-08
6.57843e-08
6.57843e-08
6.57844e-08
6.57843e-08
6.57843e-08
6.57843e-08
6.57843e-08
6.57844e-08
6.57842e-08
6.57843e-08
6.57843e-08
6.57842e-08
6.57844e-08
6.57841e-08
6.57844e-08
6.5784e-08
6.57844e-08
6.57834e-08
6.57851e-08
6.57814e-08
6.57887e-08
6.57739e-08
6.58004e-08
6.5755e-08
6.58235e-08
6.57267e-08
6.58504e-08
6.57049e-08
6.58597e-08
6.57136e-08
6.5816e-08
6.57655e-08
6.58132e-08
1.98735e-08
1.63392e-08
1.78761e-08
9.49826e-09
1.74301e-08
1.70275e-08
2.16286e-08
2.47543e-08
2.73894e-08
3.01201e-08
3.23107e-08
3.47098e-08
3.68193e-08
3.89346e-08
4.08583e-08
4.27086e-08
4.44308e-08
4.60416e-08
4.75427e-08
4.89398e-08
5.02384e-08
5.14442e-08
5.25631e-08
5.36002e-08
5.45604e-08
5.54488e-08
5.62707e-08
5.70308e-08
5.77336e-08
5.83833e-08
5.89836e-08
5.95379e-08
6.00499e-08
6.05226e-08
6.09593e-08
6.13625e-08
6.17348e-08
6.20785e-08
6.23959e-08
6.26889e-08
6.29595e-08
6.32093e-08
6.344e-08
6.3653e-08
6.38496e-08
6.40312e-08
6.41989e-08
6.43538e-08
6.44967e-08
6.46287e-08
6.47506e-08
6.48632e-08
6.49671e-08
6.50631e-08
6.51518e-08
6.52336e-08
6.53092e-08
6.5379e-08
6.54434e-08
6.55029e-08
6.55578e-08
6.56086e-08
6.56554e-08
6.56987e-08
6.57387e-08
6.57748e-08
6.58078e-08
6.58383e-08
6.58665e-08
6.58925e-08
6.59164e-08
6.59387e-08
6.59591e-08
6.59779e-08
6.59954e-08
6.60115e-08
6.60264e-08
6.60402e-08
6.60528e-08
6.60645e-08
6.60753e-08
6.60853e-08
6.60945e-08
6.6103e-08
6.61109e-08
6.61181e-08
6.61248e-08
6.6131e-08
6.61366e-08
6.61419e-08
6.61467e-08
6.61512e-08
6.61553e-08
6.61591e-08
6.61626e-08
6.61658e-08
6.61689e-08
6.61714e-08
6.61742e-08
6.61763e-08
6.61786e-08
6.61805e-08
6.61824e-08
6.61841e-08
6.61856e-08
6.6187e-08
6.61884e-08
6.61894e-08
6.61907e-08
6.61917e-08
6.61926e-08
6.61935e-08
6.61943e-08
6.61949e-08
6.61957e-08
6.61962e-08
6.61968e-08
6.61973e-08
6.61978e-08
6.61981e-08
6.61987e-08
6.61989e-08
6.61993e-08
6.61996e-08
6.61998e-08
6.62e-08
6.62004e-08
6.62002e-08
6.62008e-08
6.62006e-08
6.6201e-08
6.6201e-08
6.62012e-08
6.62012e-08
6.62015e-08
6.62014e-08
6.62015e-08
6.62016e-08
6.62016e-08
6.62018e-08
6.62016e-08
6.62019e-08
6.62016e-08
6.62018e-08
6.62015e-08
6.62018e-08
6.62015e-08
6.62018e-08
6.62015e-08
6.62019e-08
6.62014e-08
6.62019e-08
6.62014e-08
6.62018e-08
6.62015e-08
6.62016e-08
6.62016e-08
6.62013e-08
6.62017e-08
6.6201e-08
6.62017e-08
6.62011e-08
6.62012e-08
6.62014e-08
6.62007e-08
6.62017e-08
6.62003e-08
6.62016e-08
6.62004e-08
6.62012e-08
6.62006e-08
6.62009e-08
6.62006e-08
6.62008e-08
6.62006e-08
6.62006e-08
6.62006e-08
6.62004e-08
6.62006e-08
6.62003e-08
6.62003e-08
6.62005e-08
6.61999e-08
6.62005e-08
6.61997e-08
6.62005e-08
6.61997e-08
6.62001e-08
6.61998e-08
6.61998e-08
6.61998e-08
6.61997e-08
6.61996e-08
6.61997e-08
6.61994e-08
6.61995e-08
6.61994e-08
6.61992e-08
6.61995e-08
6.6199e-08
6.61996e-08
6.61988e-08
6.61993e-08
6.6199e-08
6.61989e-08
6.6199e-08
6.6199e-08
6.61986e-08
6.61991e-08
6.61983e-08
6.61991e-08
6.61982e-08
6.6199e-08
6.61982e-08
6.61987e-08
6.61982e-08
6.61985e-08
6.61981e-08
6.61985e-08
6.6198e-08
6.61984e-08
6.6198e-08
6.61982e-08
6.6198e-08
6.6198e-08
6.61979e-08
6.61979e-08
6.61977e-08
6.61978e-08
6.61975e-08
6.61978e-08
6.61973e-08
6.61978e-08
6.61974e-08
6.61975e-08
6.61975e-08
6.61973e-08
6.61973e-08
6.61973e-08
6.61971e-08
6.61972e-08
6.6197e-08
6.61969e-08
6.61971e-08
6.61967e-08
6.61971e-08
6.61967e-08
6.6197e-08
6.61967e-08
6.61967e-08
6.61966e-08
6.61965e-08
6.61966e-08
6.61965e-08
6.61965e-08
6.61963e-08
6.61965e-08
6.61961e-08
6.61965e-08
6.6196e-08
6.61964e-08
6.6196e-08
6.61963e-08
6.61958e-08
6.61962e-08
6.61958e-08
6.6196e-08
6.61958e-08
6.61958e-08
6.61959e-08
6.61957e-08
6.61958e-08
6.61957e-08
6.61955e-08
6.61957e-08
6.61954e-08
6.61956e-08
6.61954e-08
6.61953e-08
6.61954e-08
6.6195e-08
6.61954e-08
6.61949e-08
6.61954e-08
6.61948e-08
6.61952e-08
6.6195e-08
6.6195e-08
6.61951e-08
6.61947e-08
6.61951e-08
6.61947e-08
6.61948e-08
6.6195e-08
6.61944e-08
6.6195e-08
6.61943e-08
6.61949e-08
6.61943e-08
6.61946e-08
6.61945e-08
6.61942e-08
6.61944e-08
6.61942e-08
6.61943e-08
6.61942e-08
6.61939e-08
6.61944e-08
6.61939e-08
6.61944e-08
6.61937e-08
6.61942e-08
6.6194e-08
6.61939e-08
6.6194e-08
6.61937e-08
6.61942e-08
6.61936e-08
6.61939e-08
6.61936e-08
6.61937e-08
6.61935e-08
6.61937e-08
6.61935e-08
6.61935e-08
6.61935e-08
6.61934e-08
6.61935e-08
6.61932e-08
6.61935e-08
6.61932e-08
6.61934e-08
6.61932e-08
6.61933e-08
6.61932e-08
6.6193e-08
6.61932e-08
6.61928e-08
6.61933e-08
6.61925e-08
6.61933e-08
6.61927e-08
6.6193e-08
6.6193e-08
6.61928e-08
6.6193e-08
6.61926e-08
6.61928e-08
6.61925e-08
6.6193e-08
6.61925e-08
6.61927e-08
6.61921e-08
6.61929e-08
6.61921e-08
6.61927e-08
6.61923e-08
6.61926e-08
6.61921e-08
6.61926e-08
6.61922e-08
6.61924e-08
6.61924e-08
6.61918e-08
6.61928e-08
6.61915e-08
6.6193e-08
6.61914e-08
6.61927e-08
6.61917e-08
6.61923e-08
6.61921e-08
6.61918e-08
6.61928e-08
6.61909e-08
6.61934e-08
6.61905e-08
6.61933e-08
6.61904e-08
6.61933e-08
6.61906e-08
6.61929e-08
6.61908e-08
6.61924e-08
6.61913e-08
6.61923e-08
6.61914e-08
6.61918e-08
6.61915e-08
6.61916e-08
6.61918e-08
6.61914e-08
6.61919e-08
6.61911e-08
6.6192e-08
6.61909e-08
6.6192e-08
6.61909e-08
6.6192e-08
6.61909e-08
6.61918e-08
6.61911e-08
6.61914e-08
6.61914e-08
6.61913e-08
6.61912e-08
6.61913e-08
6.61913e-08
6.61916e-08
6.61906e-08
6.6192e-08
6.61903e-08
6.61921e-08
6.61902e-08
6.61921e-08
6.61903e-08
6.61919e-08
6.61905e-08
6.61916e-08
6.61905e-08
6.61918e-08
6.61902e-08
6.61918e-08
6.61901e-08
6.61916e-08
6.61906e-08
6.61911e-08
6.61911e-08
6.61907e-08
6.61914e-08
6.61902e-08
6.61917e-08
6.619e-08
6.61916e-08
6.61901e-08
6.61912e-08
6.61903e-08
6.6191e-08
6.61904e-08
6.61909e-08
6.61905e-08
6.6191e-08
6.61904e-08
6.6191e-08
6.61903e-08
6.61911e-08
6.61902e-08
6.61911e-08
6.61904e-08
6.61907e-08
6.61907e-08
6.61907e-08
6.61908e-08
6.61904e-08
6.61909e-08
6.61902e-08
6.61911e-08
6.619e-08
6.61911e-08
6.61898e-08
6.6191e-08
6.619e-08
6.61909e-08
6.61901e-08
6.61907e-08
6.61904e-08
6.61904e-08
6.61903e-08
6.61902e-08
6.61903e-08
6.61903e-08
6.61904e-08
6.61904e-08
6.61903e-08
6.61903e-08
6.61902e-08
6.61904e-08
6.61903e-08
6.61903e-08
6.61903e-08
6.61901e-08
6.61903e-08
6.619e-08
6.61904e-08
6.61895e-08
6.61913e-08
6.61873e-08
6.61951e-08
6.61799e-08
6.61989e-08
6.6161e-08
6.61961e-08
6.61319e-08
6.6198e-08
6.61079e-08
6.62066e-08
6.61138e-08
6.61921e-08
6.61687e-08
6.62045e-08
2.1738e-08
1.8424e-08
2.06328e-08
1.28542e-08
2.01063e-08
1.91431e-08
2.37023e-08
2.62479e-08
2.89688e-08
3.15333e-08
3.35941e-08
3.58746e-08
3.78777e-08
3.98969e-08
4.17381e-08
4.35097e-08
4.51607e-08
4.67074e-08
4.81504e-08
4.9495e-08
5.07458e-08
5.19076e-08
5.29857e-08
5.39852e-08
5.49116e-08
5.57696e-08
5.65638e-08
5.72988e-08
5.79786e-08
5.8607e-08
5.9188e-08
5.97249e-08
6.02211e-08
6.06795e-08
6.11031e-08
6.14943e-08
6.18558e-08
6.21896e-08
6.2498e-08
6.27828e-08
6.30458e-08
6.32887e-08
6.3513e-08
6.37202e-08
6.39116e-08
6.40883e-08
6.42516e-08
6.44023e-08
6.45415e-08
6.467e-08
6.47887e-08
6.48983e-08
6.49996e-08
6.50931e-08
6.51794e-08
6.52592e-08
6.53328e-08
6.54008e-08
6.54637e-08
6.55217e-08
6.55753e-08
6.56248e-08
6.56704e-08
6.57126e-08
6.57516e-08
6.57876e-08
6.58208e-08
6.58515e-08
6.58798e-08
6.5906e-08
6.59302e-08
6.59525e-08
6.59731e-08
6.59921e-08
6.60097e-08
6.60259e-08
6.60408e-08
6.60546e-08
6.60674e-08
6.60792e-08
6.60901e-08
6.61001e-08
6.61094e-08
6.6118e-08
6.61258e-08
6.61331e-08
6.61399e-08
6.61461e-08
6.61518e-08
6.61571e-08
6.6162e-08
6.61665e-08
6.61706e-08
6.61744e-08
6.6178e-08
6.61812e-08
6.61843e-08
6.6187e-08
6.61896e-08
6.61919e-08
6.61941e-08
6.61961e-08
6.61979e-08
6.61996e-08
6.62012e-08
6.62026e-08
6.6204e-08
6.62051e-08
6.62063e-08
6.62073e-08
6.62083e-08
6.62091e-08
6.62099e-08
6.62107e-08
6.62113e-08
6.6212e-08
6.62125e-08
6.6213e-08
6.62135e-08
6.62139e-08
6.62143e-08
6.62147e-08
6.62149e-08
6.62152e-08
6.62155e-08
6.62157e-08
6.6216e-08
6.62162e-08
6.62164e-08
6.62165e-08
6.62166e-08
6.62167e-08
6.62169e-08
6.6217e-08
6.62171e-08
6.62172e-08
6.62172e-08
6.62173e-08
6.62174e-08
6.62174e-08
6.62174e-08
6.62174e-08
6.62174e-08
6.62174e-08
6.62175e-08
6.62174e-08
6.62174e-08
6.62174e-08
6.62173e-08
6.62173e-08
6.62173e-08
6.62173e-08
6.62173e-08
6.62173e-08
6.62173e-08
6.62172e-08
6.62172e-08
6.62171e-08
6.62171e-08
6.6217e-08
6.6217e-08
6.62169e-08
6.62169e-08
6.62169e-08
6.62169e-08
6.62169e-08
6.62167e-08
6.62167e-08
6.62166e-08
6.62166e-08
6.62165e-08
6.62165e-08
6.62165e-08
6.62163e-08
6.62163e-08
6.62163e-08
6.62163e-08
6.62162e-08
6.62161e-08
6.6216e-08
6.6216e-08
6.6216e-08
6.6216e-08
6.62159e-08
6.62158e-08
6.62158e-08
6.62156e-08
6.62156e-08
6.62155e-08
6.62155e-08
6.62154e-08
6.62154e-08
6.62153e-08
6.62153e-08
6.62153e-08
6.62152e-08
6.62152e-08
6.62151e-08
6.6215e-08
6.62149e-08
6.62149e-08
6.62149e-08
6.62148e-08
6.62147e-08
6.62147e-08
6.62147e-08
6.62146e-08
6.62146e-08
6.62144e-08
6.62144e-08
6.62144e-08
6.62144e-08
6.62143e-08
6.62142e-08
6.62142e-08
6.62141e-08
6.6214e-08
6.6214e-08
6.6214e-08
6.62139e-08
6.62139e-08
6.62138e-08
6.62138e-08
6.62137e-08
6.62137e-08
6.62136e-08
6.62136e-08
6.62136e-08
6.62134e-08
6.62134e-08
6.62133e-08
6.62133e-08
6.62133e-08
6.62131e-08
6.62131e-08
6.62131e-08
6.6213e-08
6.6213e-08
6.6213e-08
6.62129e-08
6.62128e-08
6.62128e-08
6.62128e-08
6.62127e-08
6.62127e-08
6.62126e-08
6.62125e-08
6.62125e-08
6.62124e-08
6.62124e-08
6.62124e-08
6.62124e-08
6.62122e-08
6.62122e-08
6.62121e-08
6.62121e-08
6.62121e-08
6.6212e-08
6.6212e-08
6.62118e-08
6.62118e-08
6.62118e-08
6.62118e-08
6.62118e-08
6.62116e-08
6.62116e-08
6.62116e-08
6.62116e-08
6.62116e-08
6.62116e-08
6.62115e-08
6.62115e-08
6.62114e-08
6.62113e-08
6.62113e-08
6.62112e-08
6.62112e-08
6.62111e-08
6.62111e-08
6.62111e-08
6.6211e-08
6.6211e-08
6.62109e-08
6.62109e-08
6.62108e-08
6.62108e-08
6.62108e-08
6.62108e-08
6.62107e-08
6.62106e-08
6.62106e-08
6.62105e-08
6.62105e-08
6.62104e-08
6.62104e-08
6.62105e-08
6.62104e-08
6.62104e-08
6.62102e-08
6.62102e-08
6.62102e-08
6.62102e-08
6.621e-08
6.621e-08
6.62101e-08
6.62098e-08
6.62098e-08
6.62099e-08
6.62097e-08
6.62097e-08
6.62098e-08
6.62098e-08
6.62096e-08
6.62096e-08
6.62096e-08
6.62095e-08
6.62095e-08
6.62095e-08
6.62095e-08
6.62094e-08
6.62094e-08
6.62094e-08
6.62093e-08
6.62093e-08
6.62093e-08
6.62093e-08
6.62093e-08
6.62092e-08
6.6209e-08
6.6209e-08
6.6209e-08
6.62089e-08
6.62089e-08
6.6209e-08
6.62089e-08
6.62089e-08
6.62089e-08
6.62089e-08
6.62087e-08
6.62087e-08
6.62087e-08
6.62087e-08
6.62086e-08
6.62085e-08
6.62085e-08
6.62086e-08
6.62086e-08
6.62085e-08
6.62084e-08
6.62083e-08
6.62083e-08
6.62084e-08
6.62084e-08
6.62082e-08
6.62082e-08
6.62083e-08
6.62082e-08
6.62082e-08
6.62081e-08
6.62081e-08
6.6208e-08
6.6208e-08
6.6208e-08
6.6208e-08
6.62079e-08
6.62079e-08
6.62079e-08
6.62079e-08
6.62078e-08
6.62077e-08
6.62077e-08
6.62077e-08
6.62077e-08
6.62077e-08
6.62077e-08
6.62076e-08
6.62076e-08
6.62077e-08
6.62075e-08
6.62075e-08
6.62075e-08
6.62075e-08
6.62075e-08
6.62075e-08
6.62074e-08
6.62074e-08
6.62073e-08
6.62073e-08
6.62072e-08
6.62072e-08
6.62072e-08
6.62072e-08
6.62073e-08
6.62072e-08
6.62072e-08
6.62072e-08
6.62071e-08
6.6207e-08
6.6207e-08
6.62071e-08
6.62071e-08
6.62072e-08
6.62071e-08
6.6207e-08
6.6207e-08
6.62071e-08
6.62069e-08
6.62069e-08
6.6207e-08
6.6207e-08
6.62069e-08
6.62069e-08
6.62069e-08
6.62069e-08
6.62069e-08
6.62068e-08
6.62068e-08
6.62069e-08
6.62068e-08
6.62068e-08
6.62068e-08
6.62068e-08
6.62067e-08
6.62067e-08
6.62068e-08
6.62066e-08
6.62066e-08
6.62066e-08
6.62066e-08
6.62065e-08
6.62065e-08
6.62065e-08
6.62065e-08
6.62065e-08
6.62064e-08
6.62064e-08
6.62065e-08
6.62066e-08
6.62066e-08
6.62065e-08
6.62065e-08
6.62064e-08
6.62064e-08
6.62063e-08
6.62063e-08
6.62064e-08
6.62065e-08
6.62065e-08
6.62062e-08
6.62062e-08
6.62062e-08
6.62062e-08
6.62064e-08
6.62064e-08
6.62062e-08