/*--------------------------------*- C++ -*----------------------------------*\
| =========                 |                                                 |
| \\      /  F ield         | OpenFOAM: The Open Source CFD Toolbox           |
|  \\    /   O peration     | Version:  2012                                  |
|   \\  /    A nd           | Website:  www.openfoam.com                      |
|    \\/     M anipulation  |                                                 |
\*---------------------------------------------------------------------------*/
FoamFile
{
    version     2.0;
    format      ascii;
    class       volScalarField;
    location    "0.3";
    object      rho2;
}
// * * * * * * * * * * * * * * * * * * * * * * * * * * * * * * * * * * * * * //

dimensions      [1 -3 0 0 0 0 0];


internalField   nonuniform List<scalar> 
20400
(
0.0121275
0.0121453
0.0121134
0.0121507
0.012119
0.0121436
0.0121293
0.0121389
0.0121331
0.0121364
0.0121345
0.0121351
0.0121345
0.0121343
0.0121339
0.0121334
0.0121329
0.0121323
0.0121317
0.012131
0.0121303
0.0121296
0.0121288
0.0121281
0.0121273
0.0121264
0.0121256
0.0121248
0.0121239
0.012123
0.0121221
0.0121213
0.0121204
0.0121195
0.0121186
0.0121176
0.0121167
0.0121158
0.0121149
0.012114
0.0121131
0.0121122
0.0121113
0.0121104
0.0121095
0.0121086
0.0121078
0.0121069
0.012106
0.0121051
0.0121042
0.0121034
0.0121025
0.0121017
0.0121008
0.0120999
0.0120991
0.0120982
0.0120974
0.0120966
0.0120957
0.0120949
0.012094
0.0120932
0.0120924
0.0120916
0.0120908
0.0120899
0.0120891
0.0120883
0.0120875
0.0120867
0.0120859
0.0120851
0.0120843
0.0120835
0.0120827
0.0120819
0.0120811
0.0120804
0.0120796
0.0120788
0.012078
0.0120772
0.0120765
0.0120757
0.0120749
0.0120742
0.0120734
0.0120727
0.0120719
0.0120712
0.0120704
0.0120697
0.0120689
0.0120682
0.0120674
0.0120667
0.0120659
0.0120652
0.0120645
0.0120637
0.012063
0.0120623
0.0120616
0.0120608
0.0120601
0.0120594
0.0120587
0.012058
0.0120573
0.0120565
0.0120558
0.0120551
0.0120544
0.0120537
0.012053
0.0120523
0.0120516
0.0120509
0.0120502
0.0120496
0.0120489
0.0120482
0.0120475
0.0120468
0.0120461
0.0120455
0.0120448
0.0120441
0.0120434
0.0120428
0.0120421
0.0120414
0.0120408
0.0120401
0.0120394
0.0120388
0.0120381
0.0120375
0.0120368
0.0120362
0.0120355
0.0120349
0.0120342
0.0120336
0.0120329
0.0120323
0.0120317
0.012031
0.0120304
0.0120298
0.0120291
0.0120285
0.0120279
0.0120272
0.0120266
0.012026
0.0120254
0.0120248
0.0120241
0.0120235
0.0120229
0.0120223
0.0120217
0.0120211
0.0120205
0.0120199
0.0120193
0.0120187
0.0120181
0.0120175
0.0120169
0.0120163
0.0120157
0.0120151
0.0120145
0.012014
0.0120134
0.0120128
0.0120122
0.0120116
0.0120111
0.0120105
0.0120099
0.0120093
0.0120088
0.0120082
0.0120076
0.0120071
0.0120065
0.012006
0.0120054
0.0120048
0.0120043
0.0120037
0.0120032
0.0120026
0.0120021
0.0120015
0.012001
0.0120005
0.0119999
0.0119994
0.0119988
0.0119983
0.0119978
0.0119972
0.0119967
0.0119962
0.0119956
0.0119951
0.0119946
0.0119941
0.0119935
0.011993
0.0119925
0.011992
0.0119915
0.011991
0.0119905
0.0119899
0.0119894
0.0119889
0.0119884
0.0119879
0.0119874
0.0119869
0.0119864
0.0119859
0.0119854
0.0119849
0.0119844
0.0119839
0.0119835
0.011983
0.0119825
0.011982
0.0119815
0.011981
0.0119805
0.0119801
0.0119796
0.0119791
0.0119786
0.0119782
0.0119777
0.0119772
0.0119768
0.0119763
0.0119758
0.0119754
0.0119749
0.0119744
0.011974
0.0119735
0.0119731
0.0119726
0.0119722
0.0119717
0.0119713
0.0119708
0.0119704
0.0119699
0.0119695
0.011969
0.0119686
0.0119681
0.0119677
0.0119673
0.0119668
0.0119664
0.011966
0.0119655
0.0119651
0.0119647
0.0119642
0.0119638
0.0119634
0.011963
0.0119625
0.0119621
0.0119617
0.0119613
0.0119608
0.0119604
0.01196
0.0119596
0.0119592
0.0119588
0.0119584
0.011958
0.0119576
0.0119571
0.0119567
0.0119563
0.0119559
0.0119555
0.0119551
0.0119547
0.0119543
0.0119539
0.0119535
0.0119532
0.0119528
0.0119524
0.011952
0.0119516
0.0119512
0.0119508
0.0119504
0.01195
0.0119497
0.0119493
0.0119489
0.0119485
0.0119481
0.0119478
0.0119474
0.011947
0.0119466
0.0119463
0.0119459
0.0119455
0.0119451
0.0119448
0.0119444
0.011944
0.0119437
0.0119433
0.011943
0.0119426
0.0119422
0.0119419
0.0119415
0.0119411
0.0119408
0.0119404
0.0119401
0.0119397
0.0119394
0.011939
0.0119387
0.0119383
0.011938
0.0119376
0.0119373
0.0119369
0.0119366
0.0119362
0.0119359
0.0119356
0.0119352
0.0119349
0.0119345
0.0119342
0.0119339
0.0119335
0.0119332
0.0119328
0.0119325
0.0119322
0.0119319
0.0119315
0.0119312
0.0119309
0.0119305
0.0119302
0.0119299
0.0119295
0.0119292
0.0119289
0.0119286
0.0119283
0.0119279
0.0119276
0.0119273
0.011927
0.0119266
0.0119263
0.011926
0.0119257
0.0119254
0.0119251
0.0119247
0.0119244
0.0119241
0.0119238
0.0119235
0.0119232
0.0119229
0.0119226
0.0119223
0.0119219
0.0119216
0.0119213
0.011921
0.0119207
0.0119204
0.0119201
0.0119198
0.0119195
0.0119192
0.0119189
0.0119186
0.0119183
0.011918
0.0119177
0.0119174
0.0119171
0.0119168
0.0119165
0.0119162
0.0119159
0.0119156
0.0119153
0.011915
0.0119147
0.0119145
0.0119142
0.0119139
0.0119136
0.0119133
0.011913
0.0119127
0.0119124
0.0119121
0.0119118
0.0119115
0.0119113
0.011911
0.0119107
0.0119104
0.0119101
0.0119098
0.0119095
0.0119093
0.011909
0.0119087
0.0119084
0.0119081
0.0119078
0.0119076
0.0119073
0.011907
0.0119067
0.0119064
0.0119062
0.0119059
0.0119056
0.0119053
0.011905
0.0119048
0.0119045
0.0119042
0.0119039
0.0119037
0.0119034
0.0119031
0.0119028
0.0119025
0.0119023
0.011902
0.0119017
0.0119014
0.0119012
0.0119009
0.0119006
0.0119003
0.0119001
0.0118998
0.0118995
0.0118992
0.011899
0.0118987
0.0118984
0.0118982
0.0118979
0.0118976
0.0118973
0.0118971
0.0118968
0.0118965
0.0118962
0.011896
0.0118957
0.0118954
0.0118952
0.0118949
0.0118946
0.0118943
0.0118941
0.0118937
0.0118936
0.0118932
0.0118929
0.0118928
0.0118921
0.0118924
0.0118918
0.0121229
0.012143
0.0121104
0.0121502
0.0121161
0.0121423
0.0121269
0.0121371
0.0121311
0.0121346
0.0121328
0.0121336
0.0121331
0.012133
0.0121327
0.0121324
0.012132
0.0121315
0.012131
0.0121304
0.0121298
0.0121291
0.0121285
0.0121278
0.012127
0.0121262
0.0121255
0.0121246
0.0121238
0.012123
0.0121221
0.0121213
0.0121204
0.0121195
0.0121186
0.0121177
0.0121168
0.0121159
0.012115
0.0121141
0.0121132
0.0121123
0.0121114
0.0121105
0.0121096
0.0121087
0.0121078
0.0121069
0.012106
0.0121051
0.0121043
0.0121034
0.0121025
0.0121017
0.0121008
0.0120999
0.0120991
0.0120982
0.0120974
0.0120965
0.0120957
0.0120949
0.012094
0.0120932
0.0120924
0.0120916
0.0120907
0.0120899
0.0120891
0.0120883
0.0120875
0.0120867
0.0120859
0.0120851
0.0120843
0.0120835
0.0120827
0.0120819
0.0120811
0.0120804
0.0120796
0.0120788
0.012078
0.0120772
0.0120765
0.0120757
0.0120749
0.0120742
0.0120734
0.0120727
0.0120719
0.0120712
0.0120704
0.0120697
0.0120689
0.0120682
0.0120674
0.0120667
0.0120659
0.0120652
0.0120645
0.0120637
0.012063
0.0120623
0.0120616
0.0120608
0.0120601
0.0120594
0.0120587
0.012058
0.0120573
0.0120565
0.0120558
0.0120551
0.0120544
0.0120537
0.012053
0.0120523
0.0120516
0.0120509
0.0120502
0.0120495
0.0120489
0.0120482
0.0120475
0.0120468
0.0120461
0.0120455
0.0120448
0.0120441
0.0120434
0.0120428
0.0120421
0.0120414
0.0120408
0.0120401
0.0120394
0.0120388
0.0120381
0.0120375
0.0120368
0.0120362
0.0120355
0.0120349
0.0120342
0.0120336
0.0120329
0.0120323
0.0120317
0.012031
0.0120304
0.0120298
0.0120291
0.0120285
0.0120279
0.0120272
0.0120266
0.012026
0.0120254
0.0120248
0.0120241
0.0120235
0.0120229
0.0120223
0.0120217
0.0120211
0.0120205
0.0120199
0.0120193
0.0120187
0.0120181
0.0120175
0.0120169
0.0120163
0.0120157
0.0120151
0.0120145
0.012014
0.0120134
0.0120128
0.0120122
0.0120116
0.0120111
0.0120105
0.0120099
0.0120093
0.0120088
0.0120082
0.0120076
0.0120071
0.0120065
0.012006
0.0120054
0.0120048
0.0120043
0.0120037
0.0120032
0.0120026
0.0120021
0.0120015
0.012001
0.0120005
0.0119999
0.0119994
0.0119988
0.0119983
0.0119978
0.0119972
0.0119967
0.0119962
0.0119956
0.0119951
0.0119946
0.0119941
0.0119935
0.011993
0.0119925
0.011992
0.0119915
0.011991
0.0119905
0.0119899
0.0119894
0.0119889
0.0119884
0.0119879
0.0119874
0.0119869
0.0119864
0.0119859
0.0119854
0.0119849
0.0119844
0.0119839
0.0119835
0.011983
0.0119825
0.011982
0.0119815
0.011981
0.0119805
0.0119801
0.0119796
0.0119791
0.0119786
0.0119782
0.0119777
0.0119772
0.0119768
0.0119763
0.0119758
0.0119754
0.0119749
0.0119744
0.011974
0.0119735
0.0119731
0.0119726
0.0119722
0.0119717
0.0119713
0.0119708
0.0119704
0.0119699
0.0119695
0.011969
0.0119686
0.0119681
0.0119677
0.0119673
0.0119668
0.0119664
0.011966
0.0119655
0.0119651
0.0119647
0.0119642
0.0119638
0.0119634
0.011963
0.0119625
0.0119621
0.0119617
0.0119613
0.0119608
0.0119604
0.01196
0.0119596
0.0119592
0.0119588
0.0119584
0.011958
0.0119576
0.0119571
0.0119567
0.0119563
0.0119559
0.0119555
0.0119551
0.0119547
0.0119543
0.0119539
0.0119535
0.0119531
0.0119528
0.0119524
0.011952
0.0119516
0.0119512
0.0119508
0.0119504
0.01195
0.0119497
0.0119493
0.0119489
0.0119485
0.0119481
0.0119478
0.0119474
0.011947
0.0119466
0.0119463
0.0119459
0.0119455
0.0119451
0.0119448
0.0119444
0.011944
0.0119437
0.0119433
0.011943
0.0119426
0.0119422
0.0119419
0.0119415
0.0119411
0.0119408
0.0119404
0.0119401
0.0119397
0.0119394
0.011939
0.0119387
0.0119383
0.011938
0.0119376
0.0119373
0.0119369
0.0119366
0.0119362
0.0119359
0.0119356
0.0119352
0.0119349
0.0119345
0.0119342
0.0119339
0.0119335
0.0119332
0.0119328
0.0119325
0.0119322
0.0119319
0.0119315
0.0119312
0.0119309
0.0119305
0.0119302
0.0119299
0.0119295
0.0119292
0.0119289
0.0119286
0.0119283
0.0119279
0.0119276
0.0119273
0.011927
0.0119266
0.0119263
0.011926
0.0119257
0.0119254
0.0119251
0.0119247
0.0119244
0.0119241
0.0119238
0.0119235
0.0119232
0.0119229
0.0119226
0.0119223
0.0119219
0.0119216
0.0119213
0.011921
0.0119207
0.0119204
0.0119201
0.0119198
0.0119195
0.0119192
0.0119189
0.0119186
0.0119183
0.011918
0.0119177
0.0119174
0.0119171
0.0119168
0.0119165
0.0119162
0.0119159
0.0119156
0.0119153
0.011915
0.0119147
0.0119145
0.0119142
0.0119139
0.0119136
0.0119133
0.011913
0.0119127
0.0119124
0.0119121
0.0119118
0.0119115
0.0119113
0.011911
0.0119107
0.0119104
0.0119101
0.0119098
0.0119095
0.0119093
0.011909
0.0119087
0.0119084
0.0119081
0.0119078
0.0119076
0.0119073
0.011907
0.0119067
0.0119064
0.0119062
0.0119059
0.0119056
0.0119053
0.011905
0.0119048
0.0119045
0.0119042
0.0119039
0.0119037
0.0119034
0.0119031
0.0119028
0.0119025
0.0119023
0.011902
0.0119017
0.0119014
0.0119012
0.0119009
0.0119006
0.0119003
0.0119001
0.0118998
0.0118995
0.0118992
0.011899
0.0118987
0.0118984
0.0118982
0.0118979
0.0118976
0.0118973
0.0118971
0.0118968
0.0118965
0.0118962
0.011896
0.0118957
0.0118954
0.0118952
0.0118949
0.0118946
0.0118943
0.0118941
0.0118937
0.0118936
0.0118932
0.0118929
0.0118927
0.0118921
0.0118923
0.0118918
0.0121236
0.0121434
0.0121096
0.0121498
0.0121154
0.012142
0.0121264
0.0121368
0.0121308
0.0121344
0.0121326
0.0121333
0.0121329
0.0121327
0.0121325
0.0121321
0.0121317
0.0121312
0.0121307
0.0121301
0.0121295
0.0121288
0.0121281
0.0121274
0.0121266
0.0121258
0.012125
0.0121242
0.0121233
0.0121225
0.0121216
0.0121208
0.0121199
0.012119
0.0121182
0.0121173
0.0121164
0.0121155
0.0121147
0.0121138
0.0121129
0.012112
0.0121111
0.0121103
0.0121094
0.0121085
0.0121076
0.0121068
0.0121059
0.012105
0.0121042
0.0121033
0.0121024
0.0121016
0.0121007
0.0120999
0.012099
0.0120982
0.0120974
0.0120965
0.0120957
0.0120948
0.012094
0.0120932
0.0120924
0.0120916
0.0120907
0.0120899
0.0120891
0.0120883
0.0120875
0.0120867
0.0120859
0.0120851
0.0120843
0.0120835
0.0120827
0.0120819
0.0120811
0.0120804
0.0120796
0.0120788
0.012078
0.0120772
0.0120765
0.0120757
0.0120749
0.0120742
0.0120734
0.0120727
0.0120719
0.0120712
0.0120704
0.0120697
0.0120689
0.0120682
0.0120674
0.0120667
0.0120659
0.0120652
0.0120645
0.0120637
0.012063
0.0120623
0.0120616
0.0120608
0.0120601
0.0120594
0.0120587
0.012058
0.0120573
0.0120565
0.0120558
0.0120551
0.0120544
0.0120537
0.012053
0.0120523
0.0120516
0.0120509
0.0120502
0.0120496
0.0120489
0.0120482
0.0120475
0.0120468
0.0120461
0.0120455
0.0120448
0.0120441
0.0120434
0.0120428
0.0120421
0.0120414
0.0120408
0.0120401
0.0120394
0.0120388
0.0120381
0.0120375
0.0120368
0.0120362
0.0120355
0.0120349
0.0120342
0.0120336
0.0120329
0.0120323
0.0120317
0.012031
0.0120304
0.0120298
0.0120291
0.0120285
0.0120279
0.0120272
0.0120266
0.012026
0.0120254
0.0120248
0.0120241
0.0120235
0.0120229
0.0120223
0.0120217
0.0120211
0.0120205
0.0120199
0.0120193
0.0120187
0.0120181
0.0120175
0.0120169
0.0120163
0.0120157
0.0120151
0.0120145
0.012014
0.0120134
0.0120128
0.0120122
0.0120116
0.0120111
0.0120105
0.0120099
0.0120093
0.0120088
0.0120082
0.0120076
0.0120071
0.0120065
0.012006
0.0120054
0.0120048
0.0120043
0.0120037
0.0120032
0.0120026
0.0120021
0.0120015
0.012001
0.0120005
0.0119999
0.0119994
0.0119988
0.0119983
0.0119978
0.0119972
0.0119967
0.0119962
0.0119956
0.0119951
0.0119946
0.0119941
0.0119935
0.011993
0.0119925
0.011992
0.0119915
0.011991
0.0119904
0.0119899
0.0119894
0.0119889
0.0119884
0.0119879
0.0119874
0.0119869
0.0119864
0.0119859
0.0119854
0.0119849
0.0119844
0.0119839
0.0119835
0.011983
0.0119825
0.011982
0.0119815
0.011981
0.0119805
0.0119801
0.0119796
0.0119791
0.0119786
0.0119782
0.0119777
0.0119772
0.0119768
0.0119763
0.0119758
0.0119754
0.0119749
0.0119744
0.011974
0.0119735
0.0119731
0.0119726
0.0119722
0.0119717
0.0119713
0.0119708
0.0119704
0.0119699
0.0119695
0.011969
0.0119686
0.0119681
0.0119677
0.0119673
0.0119668
0.0119664
0.011966
0.0119655
0.0119651
0.0119647
0.0119642
0.0119638
0.0119634
0.011963
0.0119625
0.0119621
0.0119617
0.0119613
0.0119608
0.0119604
0.01196
0.0119596
0.0119592
0.0119588
0.0119584
0.011958
0.0119576
0.0119571
0.0119567
0.0119563
0.0119559
0.0119555
0.0119551
0.0119547
0.0119543
0.0119539
0.0119535
0.0119532
0.0119528
0.0119524
0.011952
0.0119516
0.0119512
0.0119508
0.0119504
0.01195
0.0119497
0.0119493
0.0119489
0.0119485
0.0119481
0.0119478
0.0119474
0.011947
0.0119466
0.0119463
0.0119459
0.0119455
0.0119451
0.0119448
0.0119444
0.011944
0.0119437
0.0119433
0.0119429
0.0119426
0.0119422
0.0119419
0.0119415
0.0119411
0.0119408
0.0119404
0.0119401
0.0119397
0.0119394
0.011939
0.0119387
0.0119383
0.011938
0.0119376
0.0119373
0.0119369
0.0119366
0.0119362
0.0119359
0.0119356
0.0119352
0.0119349
0.0119345
0.0119342
0.0119339
0.0119335
0.0119332
0.0119328
0.0119325
0.0119322
0.0119319
0.0119315
0.0119312
0.0119309
0.0119305
0.0119302
0.0119299
0.0119295
0.0119292
0.0119289
0.0119286
0.0119283
0.0119279
0.0119276
0.0119273
0.011927
0.0119266
0.0119263
0.011926
0.0119257
0.0119254
0.0119251
0.0119247
0.0119244
0.0119241
0.0119238
0.0119235
0.0119232
0.0119229
0.0119226
0.0119223
0.0119219
0.0119216
0.0119213
0.011921
0.0119207
0.0119204
0.0119201
0.0119198
0.0119195
0.0119192
0.0119189
0.0119186
0.0119183
0.011918
0.0119177
0.0119174
0.0119171
0.0119168
0.0119165
0.0119162
0.0119159
0.0119156
0.0119153
0.011915
0.0119147
0.0119145
0.0119142
0.0119139
0.0119136
0.0119133
0.011913
0.0119127
0.0119124
0.0119121
0.0119118
0.0119115
0.0119113
0.011911
0.0119107
0.0119104
0.0119101
0.0119098
0.0119095
0.0119093
0.011909
0.0119087
0.0119084
0.0119081
0.0119078
0.0119076
0.0119073
0.011907
0.0119067
0.0119064
0.0119062
0.0119059
0.0119056
0.0119053
0.011905
0.0119048
0.0119045
0.0119042
0.0119039
0.0119037
0.0119034
0.0119031
0.0119028
0.0119025
0.0119023
0.011902
0.0119017
0.0119014
0.0119012
0.0119009
0.0119006
0.0119003
0.0119001
0.0118998
0.0118995
0.0118992
0.011899
0.0118987
0.0118984
0.0118982
0.0118979
0.0118976
0.0118973
0.0118971
0.0118968
0.0118965
0.0118962
0.011896
0.0118957
0.0118954
0.0118952
0.0118949
0.0118946
0.0118943
0.0118941
0.0118937
0.0118936
0.0118932
0.011893
0.0118927
0.0118922
0.0118923
0.0118918
0.0121212
0.0121415
0.0121077
0.0121488
0.0121139
0.0121409
0.0121252
0.0121358
0.0121297
0.0121334
0.0121316
0.0121325
0.0121321
0.012132
0.0121318
0.0121315
0.0121311
0.0121307
0.0121302
0.0121297
0.0121291
0.0121285
0.0121278
0.0121271
0.0121264
0.0121256
0.0121249
0.0121241
0.0121233
0.0121224
0.0121216
0.0121207
0.0121199
0.012119
0.0121181
0.0121173
0.0121164
0.0121155
0.0121146
0.0121137
0.0121129
0.012112
0.0121111
0.0121102
0.0121094
0.0121085
0.0121076
0.0121067
0.0121059
0.012105
0.0121041
0.0121033
0.0121024
0.0121016
0.0121007
0.0120999
0.012099
0.0120982
0.0120973
0.0120965
0.0120957
0.0120948
0.012094
0.0120932
0.0120923
0.0120915
0.0120907
0.0120899
0.0120891
0.0120883
0.0120875
0.0120867
0.0120859
0.0120851
0.0120843
0.0120835
0.0120827
0.0120819
0.0120811
0.0120803
0.0120796
0.0120788
0.012078
0.0120772
0.0120765
0.0120757
0.0120749
0.0120742
0.0120734
0.0120727
0.0120719
0.0120711
0.0120704
0.0120696
0.0120689
0.0120682
0.0120674
0.0120667
0.0120659
0.0120652
0.0120645
0.0120637
0.012063
0.0120623
0.0120616
0.0120608
0.0120601
0.0120594
0.0120587
0.012058
0.0120573
0.0120565
0.0120558
0.0120551
0.0120544
0.0120537
0.012053
0.0120523
0.0120516
0.0120509
0.0120502
0.0120496
0.0120489
0.0120482
0.0120475
0.0120468
0.0120461
0.0120455
0.0120448
0.0120441
0.0120434
0.0120428
0.0120421
0.0120414
0.0120408
0.0120401
0.0120394
0.0120388
0.0120381
0.0120375
0.0120368
0.0120362
0.0120355
0.0120349
0.0120342
0.0120336
0.0120329
0.0120323
0.0120317
0.012031
0.0120304
0.0120298
0.0120291
0.0120285
0.0120279
0.0120272
0.0120266
0.012026
0.0120254
0.0120248
0.0120241
0.0120235
0.0120229
0.0120223
0.0120217
0.0120211
0.0120205
0.0120199
0.0120193
0.0120187
0.0120181
0.0120175
0.0120169
0.0120163
0.0120157
0.0120151
0.0120145
0.012014
0.0120134
0.0120128
0.0120122
0.0120116
0.0120111
0.0120105
0.0120099
0.0120093
0.0120088
0.0120082
0.0120076
0.0120071
0.0120065
0.012006
0.0120054
0.0120048
0.0120043
0.0120037
0.0120032
0.0120026
0.0120021
0.0120015
0.012001
0.0120005
0.0119999
0.0119994
0.0119988
0.0119983
0.0119978
0.0119972
0.0119967
0.0119962
0.0119956
0.0119951
0.0119946
0.0119941
0.0119935
0.011993
0.0119925
0.011992
0.0119915
0.011991
0.0119904
0.0119899
0.0119894
0.0119889
0.0119884
0.0119879
0.0119874
0.0119869
0.0119864
0.0119859
0.0119854
0.0119849
0.0119844
0.0119839
0.0119835
0.011983
0.0119825
0.011982
0.0119815
0.011981
0.0119805
0.0119801
0.0119796
0.0119791
0.0119786
0.0119782
0.0119777
0.0119772
0.0119768
0.0119763
0.0119758
0.0119754
0.0119749
0.0119744
0.011974
0.0119735
0.0119731
0.0119726
0.0119722
0.0119717
0.0119713
0.0119708
0.0119704
0.0119699
0.0119695
0.011969
0.0119686
0.0119681
0.0119677
0.0119673
0.0119668
0.0119664
0.011966
0.0119655
0.0119651
0.0119647
0.0119642
0.0119638
0.0119634
0.011963
0.0119625
0.0119621
0.0119617
0.0119613
0.0119608
0.0119604
0.01196
0.0119596
0.0119592
0.0119588
0.0119584
0.011958
0.0119576
0.0119571
0.0119567
0.0119563
0.0119559
0.0119555
0.0119551
0.0119547
0.0119543
0.0119539
0.0119535
0.0119531
0.0119528
0.0119524
0.011952
0.0119516
0.0119512
0.0119508
0.0119504
0.01195
0.0119497
0.0119493
0.0119489
0.0119485
0.0119481
0.0119478
0.0119474
0.011947
0.0119466
0.0119463
0.0119459
0.0119455
0.0119451
0.0119448
0.0119444
0.011944
0.0119437
0.0119433
0.011943
0.0119426
0.0119422
0.0119419
0.0119415
0.0119411
0.0119408
0.0119404
0.0119401
0.0119397
0.0119394
0.011939
0.0119387
0.0119383
0.011938
0.0119376
0.0119373
0.0119369
0.0119366
0.0119362
0.0119359
0.0119356
0.0119352
0.0119349
0.0119345
0.0119342
0.0119339
0.0119335
0.0119332
0.0119328
0.0119325
0.0119322
0.0119319
0.0119315
0.0119312
0.0119309
0.0119305
0.0119302
0.0119299
0.0119295
0.0119292
0.0119289
0.0119286
0.0119283
0.0119279
0.0119276
0.0119273
0.011927
0.0119266
0.0119263
0.011926
0.0119257
0.0119254
0.0119251
0.0119247
0.0119244
0.0119241
0.0119238
0.0119235
0.0119232
0.0119229
0.0119226
0.0119223
0.0119219
0.0119216
0.0119213
0.011921
0.0119207
0.0119204
0.0119201
0.0119198
0.0119195
0.0119192
0.0119189
0.0119186
0.0119183
0.011918
0.0119177
0.0119174
0.0119171
0.0119168
0.0119165
0.0119162
0.0119159
0.0119156
0.0119153
0.011915
0.0119147
0.0119145
0.0119142
0.0119139
0.0119136
0.0119133
0.011913
0.0119127
0.0119124
0.0119121
0.0119118
0.0119115
0.0119113
0.011911
0.0119107
0.0119104
0.0119101
0.0119098
0.0119095
0.0119093
0.011909
0.0119087
0.0119084
0.0119081
0.0119078
0.0119076
0.0119073
0.011907
0.0119067
0.0119064
0.0119062
0.0119059
0.0119056
0.0119053
0.011905
0.0119048
0.0119045
0.0119042
0.0119039
0.0119037
0.0119034
0.0119031
0.0119028
0.0119025
0.0119023
0.011902
0.0119017
0.0119014
0.0119012
0.0119009
0.0119006
0.0119003
0.0119001
0.0118998
0.0118995
0.0118992
0.011899
0.0118987
0.0118984
0.0118982
0.0118979
0.0118976
0.0118973
0.0118971
0.0118968
0.0118965
0.0118962
0.011896
0.0118957
0.0118954
0.0118952
0.0118949
0.0118946
0.0118943
0.0118941
0.0118937
0.0118936
0.0118932
0.011893
0.0118927
0.0118922
0.0118923
0.0118917
0.0121207
0.0121411
0.0121069
0.0121479
0.0121131
0.0121403
0.0121245
0.0121353
0.0121293
0.012133
0.0121312
0.0121321
0.0121317
0.0121317
0.0121315
0.0121312
0.0121309
0.0121305
0.01213
0.0121294
0.0121289
0.0121282
0.0121276
0.0121269
0.0121262
0.0121254
0.0121246
0.0121239
0.012123
0.0121222
0.0121214
0.0121206
0.0121197
0.0121189
0.012118
0.0121171
0.0121163
0.0121154
0.0121145
0.0121136
0.0121128
0.0121119
0.012111
0.0121102
0.0121093
0.0121084
0.0121075
0.0121067
0.0121058
0.0121049
0.0121041
0.0121032
0.0121024
0.0121015
0.0121007
0.0120998
0.012099
0.0120981
0.0120973
0.0120965
0.0120956
0.0120948
0.012094
0.0120932
0.0120923
0.0120915
0.0120907
0.0120899
0.0120891
0.0120883
0.0120875
0.0120867
0.0120859
0.0120851
0.0120843
0.0120835
0.0120827
0.0120819
0.0120811
0.0120803
0.0120796
0.0120788
0.012078
0.0120772
0.0120765
0.0120757
0.0120749
0.0120742
0.0120734
0.0120727
0.0120719
0.0120711
0.0120704
0.0120696
0.0120689
0.0120682
0.0120674
0.0120667
0.0120659
0.0120652
0.0120645
0.0120637
0.012063
0.0120623
0.0120616
0.0120608
0.0120601
0.0120594
0.0120587
0.012058
0.0120573
0.0120565
0.0120558
0.0120551
0.0120544
0.0120537
0.012053
0.0120523
0.0120516
0.0120509
0.0120502
0.0120495
0.0120489
0.0120482
0.0120475
0.0120468
0.0120461
0.0120455
0.0120448
0.0120441
0.0120434
0.0120428
0.0120421
0.0120414
0.0120408
0.0120401
0.0120394
0.0120388
0.0120381
0.0120375
0.0120368
0.0120362
0.0120355
0.0120349
0.0120342
0.0120336
0.0120329
0.0120323
0.0120317
0.012031
0.0120304
0.0120298
0.0120291
0.0120285
0.0120279
0.0120272
0.0120266
0.012026
0.0120254
0.0120248
0.0120241
0.0120235
0.0120229
0.0120223
0.0120217
0.0120211
0.0120205
0.0120199
0.0120193
0.0120187
0.0120181
0.0120175
0.0120169
0.0120163
0.0120157
0.0120151
0.0120145
0.012014
0.0120134
0.0120128
0.0120122
0.0120116
0.0120111
0.0120105
0.0120099
0.0120093
0.0120088
0.0120082
0.0120076
0.0120071
0.0120065
0.012006
0.0120054
0.0120048
0.0120043
0.0120037
0.0120032
0.0120026
0.0120021
0.0120015
0.012001
0.0120005
0.0119999
0.0119994
0.0119988
0.0119983
0.0119978
0.0119972
0.0119967
0.0119962
0.0119956
0.0119951
0.0119946
0.0119941
0.0119935
0.011993
0.0119925
0.011992
0.0119915
0.011991
0.0119904
0.0119899
0.0119894
0.0119889
0.0119884
0.0119879
0.0119874
0.0119869
0.0119864
0.0119859
0.0119854
0.0119849
0.0119844
0.0119839
0.0119835
0.011983
0.0119825
0.011982
0.0119815
0.011981
0.0119805
0.0119801
0.0119796
0.0119791
0.0119786
0.0119782
0.0119777
0.0119772
0.0119768
0.0119763
0.0119758
0.0119754
0.0119749
0.0119744
0.011974
0.0119735
0.0119731
0.0119726
0.0119722
0.0119717
0.0119713
0.0119708
0.0119704
0.0119699
0.0119695
0.011969
0.0119686
0.0119681
0.0119677
0.0119673
0.0119668
0.0119664
0.011966
0.0119655
0.0119651
0.0119647
0.0119642
0.0119638
0.0119634
0.011963
0.0119625
0.0119621
0.0119617
0.0119613
0.0119608
0.0119604
0.01196
0.0119596
0.0119592
0.0119588
0.0119584
0.011958
0.0119576
0.0119571
0.0119567
0.0119563
0.0119559
0.0119555
0.0119551
0.0119547
0.0119543
0.0119539
0.0119535
0.0119532
0.0119528
0.0119524
0.011952
0.0119516
0.0119512
0.0119508
0.0119504
0.01195
0.0119497
0.0119493
0.0119489
0.0119485
0.0119481
0.0119478
0.0119474
0.011947
0.0119466
0.0119463
0.0119459
0.0119455
0.0119451
0.0119448
0.0119444
0.011944
0.0119437
0.0119433
0.011943
0.0119426
0.0119422
0.0119419
0.0119415
0.0119411
0.0119408
0.0119404
0.0119401
0.0119397
0.0119394
0.011939
0.0119387
0.0119383
0.011938
0.0119376
0.0119373
0.0119369
0.0119366
0.0119362
0.0119359
0.0119356
0.0119352
0.0119349
0.0119345
0.0119342
0.0119339
0.0119335
0.0119332
0.0119328
0.0119325
0.0119322
0.0119318
0.0119315
0.0119312
0.0119309
0.0119305
0.0119302
0.0119299
0.0119295
0.0119292
0.0119289
0.0119286
0.0119283
0.0119279
0.0119276
0.0119273
0.011927
0.0119266
0.0119263
0.011926
0.0119257
0.0119254
0.0119251
0.0119247
0.0119244
0.0119241
0.0119238
0.0119235
0.0119232
0.0119229
0.0119226
0.0119223
0.0119219
0.0119216
0.0119213
0.011921
0.0119207
0.0119204
0.0119201
0.0119198
0.0119195
0.0119192
0.0119189
0.0119186
0.0119183
0.011918
0.0119177
0.0119174
0.0119171
0.0119168
0.0119165
0.0119162
0.0119159
0.0119156
0.0119153
0.011915
0.0119147
0.0119145
0.0119142
0.0119139
0.0119136
0.0119133
0.011913
0.0119127
0.0119124
0.0119121
0.0119118
0.0119115
0.0119113
0.011911
0.0119107
0.0119104
0.0119101
0.0119098
0.0119095
0.0119093
0.011909
0.0119087
0.0119084
0.0119081
0.0119078
0.0119076
0.0119073
0.011907
0.0119067
0.0119064
0.0119062
0.0119059
0.0119056
0.0119053
0.011905
0.0119048
0.0119045
0.0119042
0.0119039
0.0119037
0.0119034
0.0119031
0.0119028
0.0119025
0.0119023
0.011902
0.0119017
0.0119014
0.0119012
0.0119009
0.0119006
0.0119003
0.0119001
0.0118998
0.0118995
0.0118992
0.011899
0.0118987
0.0118984
0.0118982
0.0118979
0.0118976
0.0118973
0.0118971
0.0118968
0.0118965
0.0118962
0.011896
0.0118957
0.0118954
0.0118952
0.0118949
0.0118946
0.0118943
0.0118941
0.0118937
0.0118936
0.0118932
0.011893
0.0118927
0.0118922
0.0118924
0.0118917
0.0121186
0.0121392
0.0121051
0.0121467
0.0121117
0.0121391
0.0121233
0.0121341
0.0121282
0.012132
0.0121304
0.0121313
0.012131
0.0121311
0.0121309
0.0121307
0.0121304
0.01213
0.0121296
0.0121291
0.0121285
0.0121279
0.0121273
0.0121266
0.0121259
0.0121252
0.0121245
0.0121237
0.0121229
0.0121221
0.0121213
0.0121204
0.0121196
0.0121188
0.0121179
0.0121171
0.0121162
0.0121153
0.0121145
0.0121136
0.0121127
0.0121119
0.012111
0.0121101
0.0121092
0.0121084
0.0121075
0.0121066
0.0121058
0.0121049
0.0121041
0.0121032
0.0121023
0.0121015
0.0121006
0.0120998
0.012099
0.0120981
0.0120973
0.0120964
0.0120956
0.0120948
0.012094
0.0120931
0.0120923
0.0120915
0.0120907
0.0120899
0.0120891
0.0120883
0.0120874
0.0120866
0.0120858
0.0120851
0.0120843
0.0120835
0.0120827
0.0120819
0.0120811
0.0120803
0.0120795
0.0120788
0.012078
0.0120772
0.0120765
0.0120757
0.0120749
0.0120742
0.0120734
0.0120726
0.0120719
0.0120711
0.0120704
0.0120696
0.0120689
0.0120682
0.0120674
0.0120667
0.0120659
0.0120652
0.0120645
0.0120637
0.012063
0.0120623
0.0120616
0.0120608
0.0120601
0.0120594
0.0120587
0.012058
0.0120572
0.0120565
0.0120558
0.0120551
0.0120544
0.0120537
0.012053
0.0120523
0.0120516
0.0120509
0.0120502
0.0120495
0.0120489
0.0120482
0.0120475
0.0120468
0.0120461
0.0120455
0.0120448
0.0120441
0.0120434
0.0120428
0.0120421
0.0120414
0.0120408
0.0120401
0.0120394
0.0120388
0.0120381
0.0120375
0.0120368
0.0120362
0.0120355
0.0120349
0.0120342
0.0120336
0.0120329
0.0120323
0.0120317
0.012031
0.0120304
0.0120298
0.0120291
0.0120285
0.0120279
0.0120272
0.0120266
0.012026
0.0120254
0.0120248
0.0120241
0.0120235
0.0120229
0.0120223
0.0120217
0.0120211
0.0120205
0.0120199
0.0120193
0.0120187
0.0120181
0.0120175
0.0120169
0.0120163
0.0120157
0.0120151
0.0120145
0.012014
0.0120134
0.0120128
0.0120122
0.0120116
0.0120111
0.0120105
0.0120099
0.0120093
0.0120088
0.0120082
0.0120076
0.0120071
0.0120065
0.012006
0.0120054
0.0120048
0.0120043
0.0120037
0.0120032
0.0120026
0.0120021
0.0120015
0.012001
0.0120005
0.0119999
0.0119994
0.0119988
0.0119983
0.0119978
0.0119972
0.0119967
0.0119962
0.0119956
0.0119951
0.0119946
0.0119941
0.0119935
0.011993
0.0119925
0.011992
0.0119915
0.011991
0.0119904
0.0119899
0.0119894
0.0119889
0.0119884
0.0119879
0.0119874
0.0119869
0.0119864
0.0119859
0.0119854
0.0119849
0.0119844
0.0119839
0.0119835
0.011983
0.0119825
0.011982
0.0119815
0.011981
0.0119805
0.0119801
0.0119796
0.0119791
0.0119786
0.0119782
0.0119777
0.0119772
0.0119768
0.0119763
0.0119758
0.0119754
0.0119749
0.0119744
0.011974
0.0119735
0.0119731
0.0119726
0.0119722
0.0119717
0.0119713
0.0119708
0.0119704
0.0119699
0.0119695
0.011969
0.0119686
0.0119681
0.0119677
0.0119673
0.0119668
0.0119664
0.011966
0.0119655
0.0119651
0.0119647
0.0119642
0.0119638
0.0119634
0.011963
0.0119625
0.0119621
0.0119617
0.0119613
0.0119608
0.0119604
0.01196
0.0119596
0.0119592
0.0119588
0.0119584
0.011958
0.0119576
0.0119571
0.0119567
0.0119563
0.0119559
0.0119555
0.0119551
0.0119547
0.0119543
0.0119539
0.0119535
0.0119532
0.0119528
0.0119524
0.011952
0.0119516
0.0119512
0.0119508
0.0119504
0.01195
0.0119497
0.0119493
0.0119489
0.0119485
0.0119481
0.0119478
0.0119474
0.011947
0.0119466
0.0119463
0.0119459
0.0119455
0.0119451
0.0119448
0.0119444
0.011944
0.0119437
0.0119433
0.011943
0.0119426
0.0119422
0.0119419
0.0119415
0.0119411
0.0119408
0.0119404
0.0119401
0.0119397
0.0119394
0.011939
0.0119387
0.0119383
0.011938
0.0119376
0.0119373
0.0119369
0.0119366
0.0119362
0.0119359
0.0119356
0.0119352
0.0119349
0.0119345
0.0119342
0.0119339
0.0119335
0.0119332
0.0119329
0.0119325
0.0119322
0.0119318
0.0119315
0.0119312
0.0119309
0.0119305
0.0119302
0.0119299
0.0119295
0.0119292
0.0119289
0.0119286
0.0119283
0.0119279
0.0119276
0.0119273
0.011927
0.0119266
0.0119263
0.011926
0.0119257
0.0119254
0.0119251
0.0119247
0.0119244
0.0119241
0.0119238
0.0119235
0.0119232
0.0119229
0.0119226
0.0119223
0.0119219
0.0119216
0.0119213
0.011921
0.0119207
0.0119204
0.0119201
0.0119198
0.0119195
0.0119192
0.0119189
0.0119186
0.0119183
0.011918
0.0119177
0.0119174
0.0119171
0.0119168
0.0119165
0.0119162
0.0119159
0.0119156
0.0119153
0.011915
0.0119147
0.0119145
0.0119142
0.0119139
0.0119136
0.0119133
0.011913
0.0119127
0.0119124
0.0119121
0.0119118
0.0119115
0.0119113
0.011911
0.0119107
0.0119104
0.0119101
0.0119098
0.0119095
0.0119093
0.011909
0.0119087
0.0119084
0.0119081
0.0119078
0.0119076