/*--------------------------------*- C++ -*----------------------------------*\
| =========                 |                                                 |
| \\      /  F ield         | OpenFOAM: The Open Source CFD Toolbox           |
|  \\    /   O peration     | Version:  2012                                  |
|   \\  /    A nd           | Website:  www.openfoam.com                      |
|    \\/     M anipulation  |                                                 |
\*---------------------------------------------------------------------------*/
FoamFile
{
    version     2.0;
    format      ascii;
    class       volVectorField;
    location    "0.3";
    object      U;
}
// * * * * * * * * * * * * * * * * * * * * * * * * * * * * * * * * * * * * * //

dimensions      [0 1 -1 0 0 0 0];


internalField   nonuniform List<vector> 
20400
(
(0.0125661 -0.00121256 0)
(-0.00761751 -0.000765581 0)
(0.0136824 0.000237686 0)
(0.000398838 -0.000988022 0)
(0.0127537 -0.000107815 0)
(0.0083248 -0.000518573 0)
(0.0137849 -0.000206166 0)
(0.0138406 -0.000266615 0)
(0.0165748 -0.000163714 0)
(0.0175673 -0.000152001 0)
(0.019507 -0.000102463 0)
(0.0207557 -8.42058e-05 0)
(0.0222971 -5.82937e-05 0)
(0.0235397 -4.39965e-05 0)
(0.0247963 -3.09304e-05 0)
(0.0259495 -2.35374e-05 0)
(0.027029 -1.79391e-05 0)
(0.028033 -1.47004e-05 0)
(0.0289661 -1.32157e-05 0)
(0.029832 -1.3098e-05 0)
(0.0306347 -1.40556e-05 0)
(0.0313782 -1.56135e-05 0)
(0.0320665 -1.80229e-05 0)
(0.0327031 -2.03537e-05 0)
(0.0332914 -2.26534e-05 0)
(0.033835 -2.48567e-05 0)
(0.0343369 -2.65168e-05 0)
(0.0348004 -2.78839e-05 0)
(0.0352281 -2.8394e-05 0)
(0.035623 -2.78716e-05 0)
(0.0359878 -2.69687e-05 0)
(0.0363247 -2.58126e-05 0)
(0.0366357 -2.4827e-05 0)
(0.0369228 -2.38197e-05 0)
(0.0371877 -2.29462e-05 0)
(0.0374322 -2.2123e-05 0)
(0.0376578 -2.13355e-05 0)
(0.0378661 -2.06105e-05 0)
(0.0380582 -2.00854e-05 0)
(0.0382354 -1.94472e-05 0)
(0.038399 -1.88074e-05 0)
(0.0385499 -1.82416e-05 0)
(0.0386891 -1.76461e-05 0)
(0.0388176 -1.69017e-05 0)
(0.0389362 -1.61531e-05 0)
(0.0390456 -1.5373e-05 0)
(0.0391466 -1.45691e-05 0)
(0.0392399 -1.37603e-05 0)
(0.0393259 -1.29471e-05 0)
(0.0394054 -1.21929e-05 0)
(0.0394787 -1.14769e-05 0)
(0.0395464 -1.08084e-05 0)
(0.0396089 -1.01359e-05 0)
(0.0396665 -9.42644e-06 0)
(0.0397198 -8.83961e-06 0)
(0.039769 -8.26358e-06 0)
(0.0398144 -7.71167e-06 0)
(0.0398563 -7.16976e-06 0)
(0.039895 -6.70416e-06 0)
(0.0399308 -6.26759e-06 0)
(0.0399638 -5.80427e-06 0)
(0.0399943 -5.4068e-06 0)
(0.0400225 -5.03665e-06 0)
(0.0400485 -4.70545e-06 0)
(0.0400724 -4.36675e-06 0)
(0.0400946 -4.06319e-06 0)
(0.0401151 -3.76658e-06 0)
(0.040134 -3.49377e-06 0)
(0.0401514 -3.25196e-06 0)
(0.0401675 -2.98203e-06 0)
(0.0401824 -2.77835e-06 0)
(0.0401961 -2.48189e-06 0)
(0.0402089 -2.39491e-06 0)
(0.0402205 -2.21084e-06 0)
(0.0402313 -2.00834e-06 0)
(0.0402413 -1.8378e-06 0)
(0.0402505 -1.69564e-06 0)
(0.0402591 -1.56376e-06 0)
(0.0402669 -1.44352e-06 0)
(0.0402742 -1.35009e-06 0)
(0.0402808 -1.24141e-06 0)
(0.040287 -1.16145e-06 0)
(0.0402927 -1.08252e-06 0)
(0.040298 -9.95983e-07 0)
(0.0403028 -9.1901e-07 0)
(0.0403074 -8.36227e-07 0)
(0.0403114 -7.82713e-07 0)
(0.0403154 -6.97996e-07 0)
(0.0403187 -6.6535e-07 0)
(0.0403223 -5.63441e-07 0)
(0.0403249 -5.29229e-07 0)
(0.0403281 -4.82241e-07 0)
(0.0403303 -4.10729e-07 0)
(0.0403328 -4.30261e-07 0)
(0.040335 -3.81007e-07 0)
(0.040337 -3.49162e-07 0)
(0.0403389 -3.39218e-07 0)
(0.0403405 -2.74548e-07 0)
(0.0403422 -2.81798e-07 0)
(0.0403435 -2.54174e-07 0)
(0.040345 -2.18339e-07 0)
(0.0403461 -2.12674e-07 0)
(0.0403474 -1.89781e-07 0)
(0.0403483 -1.67594e-07 0)
(0.0403493 -1.68058e-07 0)
(0.0403502 -1.33395e-07 0)
(0.0403511 -1.49176e-07 0)
(0.0403518 -1.01519e-07 0)
(0.0403525 -1.1716e-07 0)
(0.0403532 -1.23788e-07 0)
(0.0403538 -8.28975e-08 0)
(0.0403542 -1.27973e-07 0)
(0.0403548 -4.7815e-08 0)
(0.0403552 -6.44979e-08 0)
(0.0403558 -6.24798e-08 0)
(0.040356 -4.63296e-08 0)
(0.0403565 -4.52629e-08 0)
(0.0403567 -3.04016e-08 0)
(0.0403571 1.38483e-08 0)
(0.0403573 -1.71861e-08 0)
(0.0403577 -9.50206e-10 0)
(0.0403578 3.71387e-08 0)
(0.0403581 -3.23639e-08 0)
(0.0403581 1.21334e-08 0)
(0.0403586 1.70686e-08 0)
(0.0403584 -1.04945e-08 0)
(0.040359 -4.86202e-08 0)
(0.0403587 3.99789e-08 0)
(0.0403591 -9.28556e-08 0)
(0.0403591 2.11705e-08 0)
(0.0403593 -2.45588e-08 0)
(0.0403593 -2.36083e-08 0)
(0.0403594 1.1086e-08 0)
(0.0403594 -3.55978e-08 0)
(0.0403596 2.14552e-08 0)
(0.0403595 9.86283e-10 0)
(0.0403597 -2.39976e-08 0)
(0.0403597 -2.20479e-09 0)
(0.0403597 -7.70094e-09 0)
(0.0403598 -7.65216e-08 0)
(0.0403597 6.51206e-09 0)
(0.04036 -7.52941e-08 0)
(0.0403597 -2.70812e-08 0)
(0.04036 -2.23478e-08 0)
(0.0403598 -5.85095e-08 0)
(0.0403601 -2.59635e-08 0)
(0.0403598 -3.08068e-08 0)
(0.04036 -5.74251e-08 0)
(0.0403599 1.43902e-08 0)
(0.04036 -2.90921e-08 0)
(0.0403599 -5.90675e-08 0)
(0.04036 -2.03637e-08 0)
(0.0403599 -9.86001e-09 0)
(0.0403599 -2.22764e-08 0)
(0.0403599 -3.83347e-08 0)
(0.04036 4.24349e-08 0)
(0.0403599 -6.29023e-08 0)
(0.04036 3.1132e-08 0)
(0.0403599 -2.24465e-07 0)
(0.0403599 -1.32371e-07 0)
(0.0403598 -1.03367e-07 0)
(0.04036 -1.42616e-07 0)
(0.0403598 -3.97939e-08 0)
(0.04036 -1.04493e-07 0)
(0.0403597 5.7055e-08 0)
(0.0403599 9.12764e-08 0)
(0.0403599 -5.00838e-08 0)
(0.0403597 1.30921e-07 0)
(0.04036 -1.49737e-07 0)
(0.0403596 1.09343e-07 0)
(0.0403598 -3.52084e-08 0)
(0.0403597 1.7833e-08 0)
(0.0403597 -5.97374e-08 0)
(0.0403597 2.72969e-09 0)
(0.0403595 8.07968e-09 0)
(0.0403597 3.42002e-08 0)
(0.0403596 6.98471e-08 0)
(0.0403595 5.61948e-08 0)
(0.0403596 -5.29328e-08 0)
(0.0403595 3.85597e-08 0)
(0.0403595 1.19278e-08 0)
(0.0403596 -1.35557e-08 0)
(0.0403595 -1.5592e-08 0)
(0.0403594 -9.41047e-08 0)
(0.0403594 -1.14376e-07 0)
(0.0403594 -3.3592e-08 0)
(0.0403593 7.47494e-09 0)
(0.0403595 -2.63447e-08 0)
(0.0403592 1.85696e-08 0)
(0.0403594 -6.66366e-08 0)
(0.0403592 3.21838e-08 0)
(0.0403594 -1.80256e-08 0)
(0.0403592 -2.87826e-08 0)
(0.0403593 9.8325e-09 0)
(0.0403591 -5.46029e-08 0)
(0.0403594 -4.82358e-08 0)
(0.040359 -2.26138e-08 0)
(0.0403593 -2.93231e-08 0)
(0.040359 -3.62746e-08 0)
(0.0403592 3.78729e-08 0)
(0.0403589 2.65633e-09 0)
(0.0403592 -9.31148e-08 0)
(0.0403589 9.72282e-08 0)
(0.0403592 -9.07563e-08 0)
(0.0403589 -1.34968e-07 0)
(0.040359 -5.50113e-08 0)
(0.040359 -8.6107e-08 0)
(0.0403588 6.93779e-08 0)
(0.0403591 -9.51473e-09 0)
(0.0403588 -2.27369e-08 0)
(0.0403589 3.08894e-08 0)
(0.040359 -1.30309e-07 0)
(0.0403586 2.92913e-10 0)
(0.040359 -1.09909e-07 0)
(0.0403585 1.47646e-08 0)
(0.040359 -6.05541e-08 0)
(0.0403585 2.79895e-08 0)
(0.0403588 6.45242e-10 0)
(0.0403586 6.07301e-08 0)
(0.0403586 5.94246e-08 0)
(0.0403586 1.57826e-08 0)
(0.0403585 3.84966e-08 0)
(0.0403585 6.29725e-08 0)
(0.0403585 1.31364e-08 0)
(0.0403585 1.09744e-08 0)
(0.0403584 1.83485e-08 0)
(0.0403585 -8.09955e-08 0)
(0.0403584 1.59396e-07 0)
(0.0403584 4.3369e-08 0)
(0.0403583 1.14064e-07 0)
(0.0403584 6.02531e-08 0)
(0.0403583 8.40384e-08 0)
(0.0403584 1.7114e-08 0)
(0.0403583 -3.2093e-08 0)
(0.0403583 1.3401e-08 0)
(0.0403582 1.75781e-08 0)
(0.0403582 -7.99311e-08 0)
(0.0403582 2.35011e-08 0)
(0.040358 1.99108e-08 0)
(0.0403583 6.43407e-09 0)
(0.040358 3.69404e-08 0)
(0.0403583 6.15302e-09 0)
(0.0403579 3.00672e-08 0)
(0.0403583 1.32528e-07 0)
(0.040358 2.41334e-08 0)
(0.0403582 5.31773e-08 0)
(0.0403579 -7.24533e-09 0)
(0.0403581 7.12104e-09 0)
(0.0403579 -6.8944e-09 0)
(0.0403581 -6.11497e-08 0)
(0.0403578 -4.79769e-08 0)
(0.0403581 5.98159e-09 0)
(0.0403577 -4.02693e-08 0)
(0.040358 1.36051e-09 0)
(0.0403577 -5.15519e-09 0)
(0.0403579 1.44153e-08 0)
(0.0403578 1.20793e-08 0)
(0.0403577 -4.25913e-08 0)
(0.0403577 3.69473e-08 0)
(0.0403577 4.2506e-08 0)
(0.0403578 1.31981e-07 0)
(0.0403576 9.82892e-08 0)
(0.0403578 7.99036e-08 0)
(0.0403575 5.63566e-08 0)
(0.0403578 -5.55285e-08 0)
(0.0403575 6.32101e-08 0)
(0.0403577 7.16024e-08 0)
(0.0403575 4.58016e-08 0)
(0.0403576 7.51094e-08 0)
(0.0403575 5.98076e-09 0)
(0.0403576 -2.42886e-08 0)
(0.0403575 -7.70128e-08 0)
(0.0403575 -4.09166e-08 0)
(0.0403574 -2.07057e-08 0)
(0.0403576 -1.22762e-07 0)
(0.0403574 -6.6258e-08 0)
(0.0403573 -5.46919e-08 0)
(0.0403574 8.92872e-08 0)
(0.0403574 -4.77858e-08 0)
(0.0403574 1.03502e-07 0)
(0.0403572 1.14487e-07 0)
(0.0403575 1.35654e-07 0)
(0.0403572 3.18473e-08 0)
(0.0403574 1.02574e-07 0)
(0.0403572 -3.75473e-08 0)
(0.0403573 4.94149e-08 0)
(0.0403572 3.20273e-08 0)
(0.0403572 -4.51467e-08 0)
(0.0403572 -4.46096e-08 0)
(0.0403572 -9.15061e-09 0)
(0.0403571 -3.22428e-08 0)
(0.0403572 1.01754e-07 0)
(0.0403571 -3.09915e-08 0)
(0.0403572 -3.32788e-08 0)
(0.040357 -8.43791e-08 0)
(0.040357 -2.16038e-08 0)
(0.0403571 3.57979e-08 0)
(0.0403569 4.1374e-08 0)
(0.0403572 -1.40108e-08 0)
(0.0403568 1.02489e-08 0)
(0.0403571 7.66629e-09 0)
(0.0403568 1.87572e-08 0)
(0.0403571 3.7127e-08 0)
(0.0403569 3.24297e-08 0)
(0.0403569 7.15372e-08 0)
(0.0403568 1.41106e-08 0)
(0.040357 1.27103e-07 0)
(0.0403568 5.27455e-08 0)
(0.0403567 2.5079e-08 0)
(0.040357 -1.45378e-08 0)
(0.0403566 -1.20213e-07 0)
(0.0403569 1.33318e-08 0)
(0.0403567 -1.97238e-07 0)
(0.0403567 -3.32591e-08 0)
(0.0403568 -5.76779e-08 0)
(0.0403567 3.36378e-08 0)
(0.0403568 9.11233e-08 0)
(0.0403568 -1.77015e-07 0)
(0.0403567 -6.84092e-08 0)
(0.0403565 -3.27725e-08 0)
(0.0403569 -1.37235e-07 0)
(0.0403565 -1.5763e-07 0)
(0.0403567 -1.64242e-07 0)
(0.0403564 -3.7592e-08 0)
(0.0403567 1.58494e-08 0)
(0.0403565 -2.76617e-08 0)
(0.0403566 -7.95058e-08 0)
(0.0403564 -3.53745e-08 0)
(0.0403566 5.46463e-08 0)
(0.0403564 -1.93296e-08 0)
(0.0403565 8.46257e-08 0)
(0.0403564 2.79729e-08 0)
(0.0403566 1.63279e-08 0)
(0.0403563 2.49808e-08 0)
(0.0403566 -3.67944e-08 0)
(0.0403563 4.97364e-09 0)
(0.0403566 -6.38857e-08 0)
(0.0403562 -1.86606e-07 0)
(0.0403564 7.43485e-08 0)
(0.0403562 2.14414e-07 0)
(0.0403565 -1.18981e-07 0)
(0.0403563 -9.4978e-08 0)
(0.0403564 -2.05674e-07 0)
(0.0403563 -2.16154e-07 0)
(0.0403562 -5.83697e-08 0)
(0.0403563 -2.35074e-07 0)
(0.0403562 -1.61864e-07 0)
(0.0403563 -1.2931e-08 0)
(0.0403563 -1.14549e-07 0)
(0.0403563 -3.02061e-07 0)
(0.040356 1.04505e-07 0)
(0.0403564 -3.85475e-07 0)
(0.0403562 3.38595e-08 0)
(0.0403559 -1.83424e-07 0)
(0.0403563 -2.57085e-08 0)
(0.0403561 4.45964e-08 0)
(0.0403563 1.74497e-08 0)
(0.0403561 -2.55498e-07 0)
(0.0403564 -2.18377e-07 0)
(0.0403559 -4.80808e-08 0)
(0.0403565 -2.90307e-07 0)
(0.0403558 -5.51949e-09 0)
(0.0403566 -1.93297e-07 0)
(0.0403555 2.65509e-07 0)
(0.0403569 -5.21197e-08 0)
(0.0403554 2.91726e-07 0)
(0.0403569 1.2301e-07 0)
(0.0403554 3.74015e-08 0)
(0.0403569 -5.09246e-08 0)
(0.0403555 2.2434e-08 0)
(0.0403562 -2.01353e-07 0)
(0.040356 -1.91183e-07 0)
(0.0403558 -1.2123e-07 0)
(0.0403564 -5.56421e-08 0)
(0.0403552 1.91102e-07 0)
(0.0403569 -1.86574e-07 0)
(0.0403548 4.15765e-07 0)
(0.0403571 1.23678e-07 0)
(0.040355 2.69517e-07 0)
(0.0403568 1.07713e-07 0)
(0.0403552 2.16947e-07 0)
(0.0403566 1.11467e-07 0)
(0.0403553 1.91762e-07 0)
(0.0403565 1.71078e-07 0)
(0.0403556 1.21374e-07 0)
(0.0403561 2.55651e-08 0)
(0.0403557 -3.03138e-08 0)
(0.0403559 1.53957e-07 0)
(0.040356 -3.75221e-08 0)
(0.0403555 1.23577e-07 0)
(0.0403561 8.24556e-08 0)
(0.0403555 1.4687e-07 0)
(0.0403561 1.13363e-07 0)
(0.0403557 -3.42755e-07 0)
(0.0403559 1.43017e-07 0)
(0.0403554 -3.96826e-08 0)
(0.0403563 1.70198e-07 0)
(0.0403553 1.5866e-08 0)
(0.0403563 2.23158e-09 0)
(0.0403554 -1.1646e-07 0)
(0.040356 7.18506e-08 0)
(0.0403556 -4.44198e-08 0)
(0.0403557 3.37476e-08 0)
(0.0403558 1.18504e-07 0)
(0.0403557 1.20842e-08 0)
(0.0403558 -9.1408e-08 0)
(0.0403556 4.59317e-08 0)
(0.0403558 -8.19958e-08 0)
(0.0403555 -4.2928e-08 0)
(0.0403555 -2.66159e-08 0)
(0.0403561 -2.83056e-08 0)
(0.0403552 9.99474e-08 0)
(0.0403563 9.84102e-08 0)
(0.0403551 1.36736e-08 0)
(0.0403562 1.59748e-07 0)
(0.0403553 5.19378e-08 0)
(0.0403561 -2.75426e-07 0)
(0.0403553 -4.50495e-08 0)
(0.0403558 -1.22512e-07 0)
(0.0403553 3.01805e-07 0)
(0.0403559 8.37734e-08 0)
(0.0403553 2.43106e-08 0)
(0.040356 3.11299e-08 0)
(0.0403551 1.02014e-07 0)
(0.040356 1.41265e-08 0)
(0.0403552 8.86847e-08 0)
(0.0403558 1.31184e-07 0)
(0.0403554 1.72797e-08 0)
(0.0403553 1.29806e-07 0)
(0.0403559 2.37452e-07 0)
(0.0403551 1.74857e-07 0)
(0.0403561 2.98122e-07 0)
(0.0403549 2.21824e-07 0)
(0.0403562 3.51348e-07 0)
(0.040355 1.06906e-07 0)
(0.0403559 3.41799e-07 0)
(0.0403552 1.97799e-07 0)
(0.0403556 3.75952e-07 0)
(0.0403554 2.91062e-07 0)
(0.0403557 2.36423e-07 0)
(0.0403555 1.5269e-07 0)
(0.0403557 5.50607e-08 0)
(0.0403554 -1.72815e-07 0)
(0.0403556 -1.96003e-07 0)
(0.0403552 1.48507e-08 0)
(0.0403555 -1.79911e-07 0)
(0.0403552 2.30357e-07 0)
(0.0403554 4.58654e-08 0)
(0.0403554 1.18379e-07 0)
(0.0403554 7.34034e-08 0)
(0.0403555 -5.96093e-09 0)
(0.0403553 -1.54044e-07 0)
(0.0403555 -4.37443e-07 0)
(0.040355 -2.98959e-08 0)
(0.0403556 -3.38729e-07 0)
(0.040355 1.55925e-08 0)
(0.0403555 9.04534e-08 0)
(0.0403552 1.98062e-07 0)
(0.0403555 8.06677e-08 0)
(0.0403554 3.40311e-08 0)
(0.0403554 7.35277e-08 0)
(0.0403553 1.67877e-09 0)
(0.0403554 -1.2817e-07 0)
(0.0403552 -3.53545e-08 0)
(0.0403554 -4.84535e-08 0)
(0.0403554 -2.56837e-07 0)
(0.0403553 -7.63647e-08 0)
(0.0403555 -1.90408e-07 0)
(0.0403553 3.78176e-08 0)
(0.0403555 -6.35662e-08 0)
(0.0403552 1.31131e-07 0)
(0.0403556 2.7031e-08 0)
(0.0403552 1.57372e-07 0)
(0.0403554 -1.08636e-07 0)
(0.0403552 1.81253e-08 0)
(0.0403553 3.49822e-09 0)
(0.0403553 -5.0659e-08 0)
(0.0403553 -5.17691e-08 0)
(0.0403553 -6.51647e-08 0)
(0.0403554 3.48949e-08 0)
(0.0403553 2.8414e-08 0)
(0.0403556 -6.98397e-09 0)
(0.0403551 -6.57299e-11 0)
(0.0403556 4.80795e-08 0)
(0.040355 1.64428e-08 0)
(0.0403563 -3.45095e-09 0)
(0.0403536 1.09754e-07 0)
(0.0403591 2.08256e-09 0)
(0.0403484 2.71649e-07 0)
(0.0403672 -3.98771e-07 0)
(0.040336 7.01764e-07 0)
(0.0403827 -1.16071e-06 0)
(0.0403177 1.66813e-06 0)
(0.0403981 -2.03747e-06 0)
(0.0403089 2.0925e-06 0)
(0.0403979 -2.83997e-06 0)
(0.0403266 2.6393e-06 0)
(0.0403544 -6.57958e-06 0)
(0.0403868 2.64935e-05 0)
(0.0402472 6.14513e-05 0)
(0.0155003 -0.00226512 0)
(-0.010416 -0.003409 0)
(0.0162641 -0.00269667 0)
(0.000877411 -0.00347898 0)
(0.0156359 -0.00284152 0)
(0.0106782 -0.0030594 0)
(0.0170613 -0.00274522 0)
(0.0172731 -0.00269803 0)
(0.0205166 -0.00251215 0)
(0.0217975 -0.00238472 0)
(0.0241291 -0.00223831 0)
(0.0256879 -0.0020964 0)
(0.0275452 -0.00196232 0)
(0.0290829 -0.00182998 0)
(0.0306163 -0.00170303 0)
(0.0320295 -0.00158082 0)
(0.0333532 -0.00146575 0)
(0.034585 -0.00135674 0)
(0.0357309 -0.00125408 0)
(0.0367951 -0.00115757 0)
(0.0377825 -0.00106722 0)
(0.0386973 -0.000982975 0)
(0.0395438 -0.00090357 0)
(0.0403271 -0.000830697 0)
(0.0410516 -0.000763454 0)
(0.0417217 -0.000701265 0)
(0.0423412 -0.000644242 0)
(0.0429135 -0.000591386 0)
(0.0434423 -0.000543196 0)
(0.0439306 -0.000499833 0)
(0.0443814 -0.000460089 0)
(0.0447975 -0.000423622 0)
(0.0451816 -0.00038971 0)
(0.0455362 -0.000358646 0)
(0.0458634 -0.000329932 0)
(0.0461654 -0.00030357 0)
(0.0464442 -0.000279475 0)
(0.0467013 -0.000257296 0)
(0.0469387 -0.000236703 0)
(0.0471579 -0.000218003 0)
(0.0473601 -0.000200831 0)
(0.0475467 -0.000184955 0)
(0.0477189 -0.000170359 0)
(0.047878 -0.000157123 0)
(0.0480247 -0.000144916 0)
(0.0481601 -0.000133716 0)
(0.0482851 -0.000123433 0)
(0.0484004 -0.000113979 0)
(0.0485068 -0.000105308 0)
(0.0486051 -9.72681e-05 0)
(0.0486957 -8.98514e-05 0)
(0.0487794 -8.29944e-05 0)
(0.0488567 -7.67012e-05 0)
(0.0489281 -7.10133e-05 0)
(0.0489939 -6.55896e-05 0)
(0.0490547 -6.06257e-05 0)
(0.0491108 -5.60713e-05 0)
(0.0491626 -5.18507e-05 0)
(0.0492104 -4.7967e-05 0)
(0.0492545 -4.42772e-05 0)
(0.0492953 -4.10344e-05 0)
(0.0493328 -3.7854e-05 0)
(0.0493675 -3.49999e-05 0)
(0.0493996 -3.23109e-05 0)
(0.0494292 -2.98594e-05 0)
(0.0494565 -2.75861e-05 0)
(0.0494817 -2.55056e-05 0)
(0.049505 -2.35922e-05 0)
(0.0495265 -2.18087e-05 0)
(0.0495464 -2.01845e-05 0)
(0.0495648 -1.86756e-05 0)
(0.0495817 -1.74154e-05 0)
(0.0495973 -1.58925e-05 0)
(0.0496118 -1.48048e-05 0)
(0.0496251 -1.37058e-05 0)
(0.0496374 -1.26859e-05 0)
(0.0496488 -1.17706e-05 0)
(0.0496592 -1.08561e-05 0)
(0.0496689 -1.00573e-05 0)
(0.0496778 -9.27904e-06 0)
(0.0496861 -8.60477e-06 0)
(0.0496937 -7.92709e-06 0)
(0.0497007 -7.3268e-06 0)
(0.0497072 -6.77793e-06 0)
(0.0497132 -6.27063e-06 0)
(0.0497187 -5.79065e-06 0)
(0.0497238 -5.36952e-06 0)
(0.0497286 -4.92983e-06 0)
(0.0497328 -4.6158e-06 0)
(0.0497369 -4.21268e-06 0)
(0.0497405 -3.92299e-06 0)
(0.0497441 -3.62994e-06 0)
(0.049747 -3.35143e-06 0)
(0.04975 -3.10953e-06 0)
(0.0497527 -2.84353e-06 0)
(0.0497551 -2.62838e-06 0)
(0.0497575 -2.45446e-06 0)
(0.0497593 -2.24055e-06 0)
(0.0497615 -2.08742e-06 0)
(0.0497631 -1.93234e-06 0)
(0.0497649 -1.76776e-06 0)
(0.0497663 -1.64865e-06 0)
(0.0497678 -1.51763e-06 0)
(0.049769 -1.40239e-06 0)
(0.0497703 -1.2771e-06 0)
(0.0497712 -1.22103e-06 0)
(0.0497724 -1.1065e-06 0)
(0.049773 -1.00869e-06 0)
(0.0497741 -9.54952e-07 0)
(0.0497747 -9.02162e-07 0)
(0.0497755 -7.6703e-07 0)
(0.0497762 -7.69792e-07 0)
(0.0497767 -7.04192e-07 0)
(0.0497773 -6.35119e-07 0)
(0.0497779 -6.52663e-07 0)
(0.0497782 -5.09243e-07 0)
(0.0497788 -5.23349e-07 0)
(0.049779 -5.13747e-07 0)
(0.0497795 -4.20785e-07 0)
(0.0497798 -4.38225e-07 0)
(0.0497801 -4.47097e-07 0)
(0.0497803 -3.3914e-07 0)
(0.0497806 -3.42722e-07 0)
(0.0497807 -3.73431e-07 0)
(0.049781 -2.573e-07 0)
(0.0497811 -2.41071e-07 0)
(0.0497813 -2.87707e-07 0)
(0.0497814 -1.85277e-07 0)
(0.0497817 -2.22366e-07 0)
(0.0497816 -2.21788e-07 0)
(0.0497819 -1.89901e-07 0)
(0.0497818 -1.90242e-07 0)
(0.0497822 -1.61554e-07 0)
(0.0497819 -1.81553e-07 0)
(0.0497822 -1.45605e-07 0)
(0.0497821 -1.45516e-07 0)
(0.0497823 -1.07144e-07 0)
(0.0497822 -1.45564e-07 0)
(0.0497824 -1.14756e-07 0)
(0.0497822 -8.23886e-08 0)
(0.0497824 -1.22429e-07 0)
(0.0497825 -9.02439e-08 0)
(0.0497822 -6.92976e-08 0)
(0.0497826 -7.23983e-08 0)
(0.0497823 -8.71569e-08 0)
(0.0497824 -8.80171e-08 0)
(0.0497824 -1.08769e-08 0)
(0.0497824 -8.8583e-08 0)
(0.0497823 -7.55248e-08 0)
(0.0497823 -3.37064e-08 0)
(0.0497824 -5.66363e-08 0)
(0.0497822 -4.27657e-08 0)
(0.0497823 -2.46428e-08 0)
(0.0497823 -6.18181e-08 0)
(0.0497822 -7.76632e-08 0)
(0.0497822 -8.59948e-08 0)
(0.0497821 -4.1522e-08 0)
(0.049782 -6.86144e-08 0)
(0.0497821 9.28136e-08 0)
(0.049782 2.18172e-08 0)
(0.0497821 4.50015e-08 0)
(0.049782 -1.09753e-07 0)
(0.049782 1.55016e-07 0)
(0.049782 -1.00555e-07 0)
(0.0497818 3.35592e-08 0)
(0.0497821 -1.57061e-07 0)
(0.0497815 -1.15108e-07 0)
(0.0497821 7.24343e-08 0)
(0.0497813 -1.11332e-07 0)
(0.0497821 1.68231e-07 0)
(0.0497814 -1.6165e-07 0)
(0.0497818 -2.58243e-08 0)
(0.0497812 9.78878e-10 0)
(0.0497818 4.46861e-08 0)
(0.0497812 -5.04229e-08 0)
(0.0497816 -5.78032e-08 0)
(0.0497812 -7.65022e-09 0)
(0.0497814 -9.68514e-08 0)
(0.0497812 -1.91352e-08 0)
(0.0497813 -1.55438e-09 0)
(0.049781 -9.26651e-08 0)
(0.0497812 -1.46867e-08 0)
(0.0497809 -5.21093e-09 0)
(0.0497811 3.16194e-08 0)
(0.0497809 1.41736e-09 0)
(0.049781 1.29233e-07 0)
(0.049781 -2.1351e-07 0)
(0.0497807 1.10397e-07 0)
(0.049781 -1.00958e-08 0)
(0.0497806 -1.02022e-07 0)
(0.0497808 1.72657e-08 0)
(0.0497807 -6.69222e-08 0)
(0.0497805 1.63599e-08 0)
(0.0497807 -3.01653e-08 0)
(0.0497804 -3.72506e-08 0)
(0.0497806 -1.92395e-08 0)
(0.0497803 3.39716e-08 0)
(0.0497804 -2.88361e-08 0)
(0.0497804 -5.1715e-08 0)
(0.0497801 -4.25489e-08 0)
(0.0497804 2.38877e-08 0)
(0.0497801 -1.25253e-07 0)
(0.0497801 3.68621e-08 0)
(0.0497802 -8.12156e-08 0)
(0.04978 1.0973e-07 0)
(0.0497802 2.91854e-08 0)
(0.04978 -7.23189e-08 0)
(0.0497798 -3.02035e-08 0)
(0.0497802 -6.62095e-08 0)
(0.0497795 -2.5968e-08 0)
(0.0497802 1.24942e-08 0)
(0.0497794 -6.70442e-08 0)
(0.04978 1.67877e-07 0)
(0.0497796 -1.47829e-07 0)
(0.0497797 1.26794e-07 0)
(0.0497796 -7.89573e-08 0)
(0.0497795 5.81794e-08 0)
(0.0497795 -5.1712e-08 0)
(0.0497794 -1.54212e-08 0)
(0.0497794 -6.65706e-08 0)
(0.0497793 9.82848e-09 0)
(0.0497792 -5.34535e-08 0)
(0.0497793 -5.44697e-08 0)
(0.0497792 -9.23766e-08 0)
(0.049779 1.94813e-08 0)
(0.0497793 -1.2993e-08 0)
(0.0497789 -1.53953e-08 0)
(0.0497792 -6.23511e-08 0)
(0.0497789 -5.25521e-08 0)
(0.049779 -9.96465e-08 0)
(0.0497789 -3.13507e-08 0)
(0.0497787 -9.85416e-08 0)
(0.0497789 4.77893e-08 0)
(0.0497787 -6.33012e-08 0)
(0.0497788 -2.99509e-10 0)
(0.0497787 2.22015e-08 0)
(0.0497786 -4.43825e-08 0)
(0.0497786 6.79108e-08 0)
(0.0497787 -7.93289e-08 0)
(0.0497784 -1.04834e-07 0)
(0.0497786 2.1269e-08 0)
(0.0497785 -9.69005e-08 0)
(0.0497783 5.48427e-08 0)
(0.0497786 -1.8984e-07 0)
(0.0497781 -3.47618e-08 0)
(0.0497783 -1.58359e-08 0)
(0.0497782 -2.28304e-09 0)
(0.0497781 -1.74292e-08 0)
(0.0497782 5.3871e-09 0)
(0.0497781 3.1651e-08 0)
(0.0497779 1.0302e-08 0)
(0.0497783 -4.89813e-08 0)
(0.0497778 7.45995e-09 0)
(0.0497781 -3.92096e-08 0)
(0.0497779 3.62513e-08 0)
(0.0497779 -7.81828e-08 0)
(0.0497779 -1.54481e-09 0)
(0.0497777 1.20611e-08 0)
(0.0497779 -8.82334e-10 0)
(0.0497777 -1.05796e-07 0)
(0.0497777 -5.33259e-08 0)
(0.0497776 -8.74922e-08 0)
(0.0497776 -1.19201e-07 0)
(0.0497774 -2.29529e-08 0)
(0.0497777 3.1872e-08 0)
(0.0497774 -1.12956e-07 0)
(0.0497776 -1.80252e-08 0)
(0.0497773 -1.00934e-07 0)
(0.0497774 -3.04459e-08 0)
(0.0497773 1.11909e-08 0)
(0.0497772 -5.11071e-08 0)
(0.0497773 5.44649e-08 0)
(0.0497773 -1.41131e-08 0)
(0.0497771 -4.8258e-10 0)
(0.0497773 9.09682e-09 0)
(0.049777 6.02708e-08 0)
(0.0497772 5.82425e-08 0)
(0.0497772 -1.97889e-07 0)
(0.0497768 9.0051e-08 0)
(0.0497774 -7.16031e-08 0)
(0.0497767 -1.15158e-07 0)
(0.0497773 -7.01627e-08 0)
(0.0497764 -5.67409e-08 0)
(0.0497771 -4.35687e-08 0)
(0.0497765 5.32051e-08 0)
(0.049777 1.1775e-08 0)
(0.0497766 -1.32501e-07 0)
(0.0497767 6.98161e-08 0)
(0.0497767 3.44049e-08 0)
(0.0497767 -8.89399e-09 0)
(0.0497767 -4.87627e-09 0)
(0.0497765 -1.87009e-07 0)
(0.0497766 4.2342e-09 0)
(0.0497761 -9.27987e-08 0)
(0.0497766 1.24659e-07 0)
(0.0497764 -7.85474e-08 0)
(0.0497765 -6.30816e-09 0)
(0.0497763 -5.63344e-08 0)
(0.0497765 -8.6992e-08 0)
(0.0497761 -2.24584e-08 0)
(0.0497765 -5.24044e-09 0)
(0.0497761 -3.59236e-08 0)
(0.0497764 -7.78885e-08 0)
(0.049776 -4.16827e-09 0)
(0.0497762 3.47187e-08 0)
(0.0497761 -2.30341e-07 0)
(0.049776 -7.22731e-08 0)
(0.0497761 1.22216e-07 0)
(0.0497758 -2.16435e-07 0)
(0.049776 6.90183e-08 0)
(0.0497758 4.98783e-08 0)
(0.049776 -2.36409e-09 0)
(0.0497757 1.13354e-07 0)
(0.0497759 -3.34385e-08 0)
(0.0497758 5.60653e-08 0)
(0.0497759 -7.38477e-08 0)
(0.0497758 -1.13651e-07 0)
(0.0497755 5.41038e-08 0)
(0.0497759 1.32651e-07 0)
(0.0497755 -6.76826e-08 0)
(0.0497758 -4.45331e-08 0)
(0.0497753 1.34128e-07 0)
(0.0497759 1.24138e-07 0)
(0.0497753 -5.30628e-08 0)
(0.0497759 -1.82796e-08 0)
(0.0497751 -6.5246e-08 0)
(0.0497756 2.01227e-07 0)
(0.0497754 -1.25291e-08 0)
(0.0497755 -6.2203e-08 0)
(0.0497753 3.28213e-08 0)
(0.0497755 -7.79835e-08 0)
(0.0497751 -2.63889e-08 0)
(0.0497754 -8.05293e-08 0)
(0.0497752 9.48158e-09 0)
(0.0497754 -2.88945e-08 0)
(0.0497749 -1.69901e-08 0)
(0.0497753 1.11431e-07 0)
(0.049775 6.20702e-08 0)
(0.0497752 1.87633e-08 0)
(0.0497752 -3.38536e-07 0)
(0.0497748 1.13301e-07 0)
(0.049775 1.4227e-09 0)
(0.0497749 1.40608e-07 0)
(0.049775 8.49555e-08 0)
(0.0497749 8.54853e-08 0)
(0.0497749 8.65689e-08 0)
(0.0497748 6.28769e-08 0)
(0.049775 -8.31735e-08 0)
(0.0497748 -9.35988e-08 0)
(0.0497745 3.83192e-07 0)
(0.0497752 -2.45575e-07 0)
(0.0497743 8.53452e-08 0)
(0.0497752 2.69775e-07 0)
(0.0497745 3.04132e-08 0)
(0.0497749 -2.52845e-07 0)
(0.0497744 1.2301e-07 0)
(0.0497748 -1.50555e-07 0)
(0.0497743 1.44321e-07 0)
(0.0497748 1.25623e-07 0)
(0.0497746 6.64762e-08 0)
(0.0497746 -1.22289e-08 0)
(0.0497746 8.48002e-08 0)
(0.0497746 5.21522e-08 0)
(0.0497747 -1.04558e-07 0)
(0.0497745 -1.82159e-07 0)
(0.0497742 1.37052e-07 0)
(0.0497749 -2.36638e-07 0)
(0.0497738 2.25076e-09 0)
(0.0497749 -6.88002e-08 0)
(0.0497739 2.75057e-07 0)
(0.0497747 -4.28724e-08 0)
(0.0497743 2.23537e-08 0)
(0.0497742 1.37916e-07 0)
(0.0497746 2.70306e-08 0)
(0.049774 -1.41063e-07 0)
(0.0497746 1.65362e-07 0)
(0.0497738 -2.69032e-07 0)
(0.0497748 -1.70436e-07 0)
(0.0497734 -5.77155e-08 0)
(0.0497749 1.72348e-09 0)
(0.0497735 -1.03371e-07 0)
(0.0497748 -3.98199e-08 0)
(0.0497736 -1.4584e-07 0)
(0.0497746 -1.30989e-07 0)
(0.0497735 -2.21316e-08 0)
(0.0497741 9.49691e-08 0)
(0.0497739 -6.72477e-08 0)
(0.0497742 -5.70757e-08 0)
(0.0497742 8.10888e-08 0)
(0.0497739 -3.40432e-08 0)
(0.0497743 -1.43295e-07 0)
(0.0497735 -4.86829e-08 0)
(0.0497744 -2.18371e-07 0)
(0.0497731 2.85924e-07 0)
(0.0497748 9.16292e-08 0)
(0.0497733 -2.4987e-07 0)
(0.0497743 -8.14079e-08 0)
(0.0497733 -4.59755e-08 0)
(0.0497741 -3.90762e-09 0)
(0.0497737 1.27658e-07 0)
(0.0497739 -1.36609e-07 0)
(0.0497738 9.88316e-08 0)
(0.0497739 -8.1146e-08 0)
(0.0497739 -1.33201e-07 0)
(0.0497736 -6.58927e-08 0)
(0.0497737 1.4315e-07 0)
(0.049774 -1.8599e-07 0)
(0.049773 2.46202e-07 0)
(0.0497746 1.02864e-07 0)
(0.0497731 -2.7877e-07 0)
(0.0497744 6.4099e-08 0)
(0.0497729 -1.07e-07 0)
(0.0497745 2.66161e-08 0)
(0.0497729 -1.3117e-08 0)
(0.0497743 -9.98881e-08 0)
(0.049773 -1.11178e-07 0)
(0.0497739 2.12327e-07 0)
(0.0497733 5.8026e-08 0)
(0.0497738 1.25006e-07 0)
(0.0497733 -2.53453e-07 0)
(0.0497737 -6.26746e-08 0)
(0.0497731 -3.22684e-08 0)
(0.049774 8.52101e-08 0)
(0.0497731 -1.09044e-07 0)
(0.0497738 1.78082e-08 0)
(0.0497731 -1.36648e-07 0)
(0.0497735 8.98134e-09 0)
(0.0497735 8.85554e-08 0)
(0.0497733 -5.36643e-08 0)
(0.0497739 -2.49862e-07 0)
(0.0497728 -3.99684e-08 0)
(0.0497741 -1.88215e-07 0)
(0.0497725 -8.04294e-08 0)
(0.049774 -2.4088e-07 0)
(0.0497726 7.37636e-08 0)
(0.049774 -1.78428e-07 0)
(0.0497728 -2.73723e-09 0)
(0.0497737 -2.27396e-07 0)
(0.0497731 -2.02355e-07 0)
(0.0497733 -2.30465e-07 0)
(0.0497731 2.16125e-08 0)
(0.0497729 -8.72173e-08 0)
(0.0497732 2.15046e-07 0)
(0.0497732 1.32968e-07 0)
(0.0497735 2.63593e-08 0)
(0.049773 7.69007e-08 0)
(0.0497736 -1.49974e-07 0)
(0.0497729 -7.17595e-08 0)
(0.0497733 -1.61679e-07 0)
(0.0497729 -5.45523e-08 0)
(0.0497731 -5.47206e-09 0)
(0.0497729 1.70944e-07 0)
(0.0497731 2.9484e-07 0)
(0.0497732 -1.39339e-08 0)
(0.049773 9.62189e-08 0)
(0.0497733 5.02583e-09 0)
(0.049773 -1.59423e-07 0)
(0.049773 -1.79366e-07 0)
(0.049773 -7.89486e-08 0)
(0.0497729 -5.70052e-08 0)
(0.0497732 6.52816e-08 0)
(0.0497727 -1.26667e-07 0)
(0.0497731 2.62441e-07 0)
(0.0497729 -1.18774e-07 0)
(0.049773 7.10153e-09 0)
(0.0497728 8.11226e-08 0)
(0.0497731 -4.26752e-09 0)
(0.0497728 -2.09159e-08 0)
(0.0497731 4.05119e-08 0)
(0.0497729 -6.85119e-10 0)
(0.0497731 -3.85648e-08 0)
(0.0497729 1.76454e-08 0)
(0.049773 -2.85762e-08 0)
(0.0497729 1.05062e-07 0)
(0.0497731 -4.55539e-09 0)
(0.049773 3.40252e-09 0)
(0.049773 -3.36021e-08 0)
(0.049773 -1.68362e-08 0)
(0.0497729 1.09685e-08 0)
(0.0497732 -8.04696e-08 0)
(0.0497729 -6.58614e-08 0)
(0.0497731 4.12988e-08 0)
(0.0497728 7.04024e-08 0)
(0.0497732 -8.62145e-08 0)
(0.0497725 -6.68762e-09 0)
(0.0497737 1.08824e-08 0)
(0.0497711 3.75519e-08 0)
(0.0497766 -6.49211e-08 0)
(0.0497654 2.31139e-07 0)
(0.0497855 -3.13134e-07 0)
(0.0497515 6.77811e-07 0)
(0.049803 -6.40225e-07 0)
(0.0497306 1.76908e-06 0)
(0.0498232 -2.00039e-06 0)
(0.0497155 2.85357e-06 0)
(0.0498296 -2.76117e-06 0)
(0.0497256 8.22116e-06 0)
(0.0497936 -7.71841e-06 0)
(0.049769 2.05198e-05 0)
(0.049754 1.18578e-05 0)
(0.0158388 -0.00497129 0)
(-0.00996885 -0.0061613 0)
(0.0167661 -0.00573101 0)
(0.00102948 -0.00587086 0)
(0.0158772 -0.00558011 0)
(0.0109174 -0.00555126 0)
(0.0173937 -0.00529497 0)
(0.0176167 -0.00511534 0)
(0.0209188 -0.00488668 0)
(0.0222224 -0.00464835 0)
(0.0245877 -0.00441045 0)
(0.0261712 -0.00415679 0)
(0.0280501 -0.00391527 0)
(0.0296076 -0.0036704 0)
(0.0311578 -0.00343296 0)
(0.0325842 -0.00320418 0)
(0.0339181 -0.00298427 0)
(0.0351576 -0.00277467 0)
(0.0363091 -0.00257574 0)
(0.0373773 -0.00238802 0)
(0.0383672 -0.00221107 0)
(0.0392841 -0.00204526 0)
(0.0401329 -0.00189142 0)
(0.040918 -0.00174747 0)
(0.041644 -0.00161316 0)
(0.0423149 -0.00148837 0)
(0.0429345 -0.00137233 0)
(0.0435068 -0.00126483 0)
(0.0440352 -0.00116507 0)
(0.044523 -0.00107224 0)
(0.0449733 -0.000986192 0)
(0.0453889 -0.000906743 0)
(0.0457723 -0.000833712 0)
(0.0461263 -0.000766248 0)
(0.0464529 -0.000704281 0)
(0.0467544 -0.000647351 0)
(0.0470326 -0.000594865 0)
(0.0472895 -0.00054671 0)
(0.0475266 -0.000502712 0)
(0.0477453 -0.000462212 0)
(0.0479473 -0.000425041 0)
(0.0481337 -0.000390978 0)
(0.0483058 -0.000359738 0)
(0.0484647 -0.00033098 0)
(0.0486113 -0.000304577 0)
(0.0487467 -0.000280311 0)
(0.0488717 -0.000257998 0)
(0.0489871 -0.000237493 0)
(0.0490936 -0.000218639 0)
(0.049192 -0.000201355 0)
(0.0492828 -0.000185429 0)
(0.0493667 -0.000170799 0)
(0.0494441 -0.000157387 0)
(0.0495156 -0.000144916 0)
(0.0495816 -0.000133509 0)
(0.0496425 -0.00012302 0)
(0.0496988 -0.000113397 0)
(0.0497507 -0.000104443 0)
(0.0497986 -9.61808e-05 0)
(0.049843 -8.86487e-05 0)
(0.0498839 -8.16402e-05 0)
(0.0499216 -7.52522e-05 0)
(0.0499566 -6.93773e-05 0)
(0.0499888 -6.39754e-05 0)
(0.0500185 -5.89943e-05 0)
(0.050046 -5.43853e-05 0)
(0.0500713 -5.014e-05 0)
(0.0500948 -4.62103e-05 0)
(0.0501164 -4.25963e-05 0)
(0.0501364 -3.93495e-05 0)
(0.0501548 -3.61587e-05 0)
(0.0501719 -3.34638e-05 0)
(0.0501875 -3.0889e-05 0)
(0.050202 -2.8383e-05 0)
(0.0502154 -2.61702e-05 0)
(0.0502278 -2.41316e-05 0)
(0.0502393 -2.22635e-05 0)
(0.0502498 -2.0584e-05 0)
(0.0502596 -1.89788e-05 0)
(0.0502685 -1.75224e-05 0)
(0.0502768 -1.61544e-05 0)
(0.0502845 -1.49281e-05 0)
(0.0502916 -1.37795e-05 0)
(0.0502981 -1.27309e-05 0)
(0.0503042 -1.17662e-05 0)
(0.0503097 -1.08827e-05 0)
(0.0503148 -1.00492e-05 0)
(0.0503196 -9.28856e-06 0)
(0.0503239 -8.57796e-06 0)
(0.050328 -7.91373e-06 0)
(0.0503316 -7.36425e-06 0)
(0.0503351 -6.70896e-06 0)
(0.0503383 -6.2614e-06 0)
(0.0503411 -5.78076e-06 0)
(0.0503439 -5.3506e-06 0)
(0.0503463 -4.96497e-06 0)
(0.0503487 -4.56191e-06 0)
(0.0503506 -4.23633e-06 0)
(0.0503528 -3.90008e-06 0)
(0.0503544 -3.61969e-06 0)
(0.0503562 -3.34481e-06 0)
(0.0503576 -3.08186e-06 0)