/*--------------------------------*- C++ -*----------------------------------*\
| =========                 |                                                 |
| \\      /  F ield         | OpenFOAM: The Open Source CFD Toolbox           |
|  \\    /   O peration     | Version:  2012                                  |
|   \\  /    A nd           | Website:  www.openfoam.com                      |
|    \\/     M anipulation  |                                                 |
\*---------------------------------------------------------------------------*/
FoamFile
{
    version     2.0;
    format      ascii;
    class       volScalarField;
    location    "0.26";
    object      minKappa;
}
// * * * * * * * * * * * * * * * * * * * * * * * * * * * * * * * * * * * * * //

dimensions      [0 0 0 0 0 0 0];


internalField   nonuniform List<scalar> 
2268
(
1.13521e-06
2.58102e-06
4.0967e-06
5.72051e-06
7.32011e-06
8.88439e-06
1.04896e-05
1.20461e-05
1.36428e-05
1.50595e-05
1.66036e-05
1.77097e-05
1.91333e-05
2.00817e-05
2.07404e-05
2.12363e-05
2.11663e-05
2.0548e-05
1.92429e-05
1.70257e-05
1.36022e-05
9.44475e-06
4.53462e-06
1.13521e-06
2.58102e-06
4.0967e-06
5.72051e-06
7.32011e-06
8.88439e-06
1.04896e-05
1.20461e-05
1.36428e-05
1.50595e-05
1.66036e-05
1.77097e-05
1.91333e-05
2.00817e-05
2.07404e-05
2.12363e-05
2.11663e-05
2.0548e-05
1.92429e-05
1.70257e-05
1.36022e-05
9.44475e-06
4.53462e-06
1.72765e-06
2.89457e-06
4.30457e-06
5.87406e-06
7.43832e-06
8.98628e-06
1.05769e-05
1.21279e-05
1.37143e-05
1.51403e-05
1.66676e-05
1.77971e-05
1.92666e-05
2.01008e-05
2.09347e-05
2.13919e-05
2.14341e-05
2.08709e-05
1.96835e-05
1.76586e-05
1.45135e-05
1.07217e-05
6.93632e-06
2.42309e-06
3.35566e-06
4.62782e-06
6.11876e-06
7.62889e-06
9.15073e-06
1.07187e-05
1.22601e-05
1.38276e-05
1.52649e-05
1.67739e-05
1.79413e-05
1.94231e-05
2.02132e-05
2.11466e-05
2.16338e-05
2.17766e-05
2.13096e-05
2.02311e-05
1.84968e-05
1.58122e-05
1.29882e-05
1.07026e-05
3.15137e-06
3.91499e-06
5.04504e-06
6.44688e-06
7.88909e-06
9.37712e-06
1.09167e-05
1.24453e-05
1.39872e-05
1.54401e-05
1.69296e-05
1.81496e-05
1.96345e-05
2.04151e-05
2.14542e-05
2.19714e-05
2.22606e-05
2.19527e-05
2.10834e-05
1.96516e-05
1.73982e-05
1.53824e-05
1.44616e-05
3.89291e-06
4.53513e-06
5.53306e-06
6.84588e-06
8.21057e-06
9.65814e-06
1.11642e-05
1.26758e-05
1.41869e-05
1.56571e-05
1.7119e-05
1.84041e-05
1.98891e-05
2.06823e-05
2.18939e-05
2.23696e-05
2.27886e-05
2.27021e-05
2.21099e-05
2.10831e-05
1.93074e-05
1.83703e-05
1.9151e-05
4.64087e-06
5.19466e-06
6.07633e-06
7.30573e-06
8.5905e-06
9.99267e-06
1.14615e-05
1.29526e-05
1.44332e-05
1.59209e-05
1.73518e-05
1.87148e-05
2.01909e-05
2.10212e-05
2.24212e-05
2.28421e-05
2.34819e-05
2.35606e-05
2.33774e-05
2.27964e-05
2.15727e-05
2.18087e-05
2.38955e-05
5.39232e-06
5.87946e-06
6.66081e-06
7.81463e-06
9.02061e-06
1.03733e-05
1.18012e-05
1.32692e-05
1.47208e-05
1.62216e-05
1.76243e-05
1.9073e-05
2.05116e-05
2.14231e-05
2.29903e-05
2.33923e-05
2.4342e-05
2.45593e-05
2.47829e-05
2.48175e-05
2.41071e-05
2.57814e-05
2.84706e-05
2.77552e-05
0.0001012
0.000131616
0.000158905
0.000146206
0.000144442
0.000123808
0.000108531
8.67262e-05
6.25553e-05
4.57779e-05
2.18173e-05
1.29499e-05
7.52209e-06
6.44268e-06
1.63658e-05
8.26325e-06
1.25313e-05
3.892e-06
2.77552e-05
0.0001012
0.000131616
0.000158905
0.000146206
0.000144442
0.000123808
0.000108531
8.67262e-05
6.25553e-05
4.57779e-05
2.18173e-05
1.29499e-05
7.52209e-06
6.44268e-06
1.63658e-05
8.26325e-06
1.25313e-05
3.892e-06
5.26557e-05
0.00011001
0.000133362
0.000164802
0.000151757
0.000147349
0.000127524
0.000111276
8.96683e-05
6.52403e-05
4.83344e-05
2.52757e-05
1.60516e-05
1.10126e-05
8.42359e-06
1.72608e-05
8.6848e-06
1.29548e-05
4.91811e-06
7.52253e-05
0.000128514
0.000148877
0.000173153
0.000154184
0.000149606
0.000129422
0.000113044
9.16707e-05
6.72649e-05
5.03869e-05
2.83511e-05
1.88858e-05
1.48413e-05
1.06808e-05
1.88991e-05
1.04143e-05
1.46972e-05
7.45009e-06
0.000105148
0.000151619
0.000163968
0.000188717
0.000165078
0.000154134
0.000135527
0.000117836
9.6601e-05
7.20653e-05
5.48888e-05
3.36823e-05
2.33507e-05
1.93435e-05
1.36213e-05
2.09581e-05
1.21192e-05
1.64087e-05
1.03027e-05
0.000134067
0.000182459
0.000192011
0.000201908
0.00017196
0.000160319
0.00014083
0.000122343
0.00010149
7.6727e-05
5.94828e-05
3.94545e-05
2.86599e-05
2.46747e-05
1.75311e-05
2.40161e-05
1.49611e-05
1.91752e-05
1.3444e-05
0.000172639
0.000221698
0.000224312
0.000233376
0.000192643
0.000168454
0.000150077
0.000130878
0.000109287
8.39932e-05
6.58338e-05
4.62758e-05
3.43385e-05
3.01915e-05
2.16072e-05
2.73755e-05
1.80752e-05
2.22497e-05
1.71527e-05
0.000208364
0.000271643
0.000272212
0.000254768
0.000209995
0.000181761
0.000161195
0.000140027
0.000119227
9.22587e-05
7.38152e-05
5.42801e-05
4.16463e-05
3.68807e-05
2.71433e-05
3.20691e-05
2.22155e-05
2.62101e-05
2.12738e-05
9.60922e-06
1.02917e-05
1.13843e-05
1.30834e-05
1.48534e-05
1.6889e-05
1.9057e-05
2.13131e-05
2.35477e-05
2.59038e-05
2.80781e-05
3.0464e-05
3.26285e-05
3.42856e-05
3.68931e-05
3.75772e-05
3.96703e-05
4.00898e-05
4.14293e-05
4.21861e-05
4.37456e-05
4.89407e-05
5.91856e-05
1.64863e-05
1.72524e-05
1.84529e-05
2.05066e-05
2.26278e-05
2.49793e-05
2.75304e-05
3.03039e-05
3.31978e-05
3.62322e-05
3.9298e-05
4.25262e-05
4.56508e-05
4.88435e-05
5.21519e-05
5.47561e-05
5.84833e-05
5.96966e-05
6.38624e-05
6.49747e-05
7.00345e-05
7.52149e-05
7.2271e-05
1.98905e-05
2.05462e-05
2.15445e-05
2.33893e-05
2.52803e-05
2.7637e-05
3.00571e-05
3.27092e-05
3.55384e-05
3.85845e-05
4.17587e-05
4.51386e-05
4.8576e-05
5.22085e-05
5.58412e-05
5.94508e-05
6.33969e-05
6.56413e-05
7.04533e-05
7.25825e-05
8.03389e-05
8.48832e-05
8.19581e-05
2.32772e-05
2.38532e-05
2.47176e-05
2.63962e-05
2.81156e-05
3.03202e-05
3.27427e-05
3.53023e-05
3.8087e-05
4.11288e-05
4.43219e-05
4.77665e-05
5.1441e-05
5.58573e-05
6.18449e-05
7.04494e-05
8.40437e-05
0.000101125
0.000106564
0.00010666
9.17923e-05
9.27228e-05
7.77265e-05
2.66266e-05
2.71445e-05
2.79339e-05
2.948e-05
3.10824e-05
3.31737e-05
3.55541e-05
3.81014e-05
4.08453e-05
4.40261e-05
4.82193e-05
5.43396e-05
6.59561e-05
9.37025e-05
0.000137689
0.000207423
0.000367298
0.000580403
0.000621234
0.000589048
0.000276492
0.000233854
0.00021731
2.99464e-05
3.04168e-05
3.11823e-05
3.26193e-05
3.41902e-05
3.63499e-05
3.91232e-05
4.30626e-05
4.94945e-05
6.56759e-05
9.05512e-05
0.000135348
0.00025688
0.000571422
0.000913563
0.00102356
0.00112899
0.00117398
0.00140158
0.001753
0.00189
0.00180316
0.00156298
3.68362e-05
3.78599e-05
4.03822e-05
4.52471e-05
5.25112e-05
6.35779e-05
7.99723e-05
0.000107166
0.000165367
0.000372263
0.000593416
0.000813732
0.00111166
0.00127018
0.00102341
0.00102341
0.0011425
0.00148561
0.00174767
0.00210427
0.00210912
0.00223553
0.00175433
0.00012385
0.000133008
0.000160656
0.000223434
0.000313052
0.000413502
0.000548159
0.000724061
0.000868698
0.00109479
0.00132754
0.00146608
0.00158684
0.00157517
0.00131695
0.00123568
0.0017135
0.00195916
0.00181015
0.00167747
0.0017274
0.00200121
0.00188064
0.000652828
0.000669205
0.000711926
0.000771921
0.000847486
0.000933713
0.00103497
0.00119068
0.00130384
0.00149986
0.0017519
0.00190844
0.00196711
0.00190264
0.00178113
0.00184832
0.00196028
0.00179527
0.00165817
0.00157328
0.00157328
0.00164892
0.00171661
0.000840886
0.000853812
0.000888927
0.000934362
0.000996807
0.00108707
0.00120954
0.00137409
0.00153187
0.00172574
0.00192824
0.00203788
0.00201825
0.00194016
0.00190845
0.00194694
0.00195159
0.00187587
0.00175729
0.0016574
0.0016646
0.00179696
0.00162908
0.000928147
0.000945511
0.000985311
0.00104006
0.0011036
0.00117928
0.00128063
0.00141533
0.00159519
0.00180425
0.00191362
0.00183336
0.00172769
0.00152903
0.00140409
0.00145557
0.00151281
0.00157738
0.00163468
0.00173308
0.00181281
0.00192518
0.00174489
0.00101399
0.00102842
0.00106161
0.00111092
0.00116598
0.00123486
0.00133073
0.00145528
0.00162188
0.00177526
0.00172902
0.0016096
0.00140144
0.0011551
0.00094424
0.000964225
0.00109426
0.00127291
0.00141828
0.00158387
0.00178395
0.00200162
0.00186148
0.00108033
0.00109391
0.00112186
0.00116417
0.00120856
0.00127238
0.00136224
0.00148037
0.00161583
0.00166931
0.00159113
0.00144057
0.00120998
0.000953289
0.000829495
0.000829495
0.00089273
0.00107768
0.00133293
0.00160518
0.00186198
0.00211545
0.00203082
0.00113415
0.0011479
0.00116979
0.00120975
0.00124915
0.00130381
0.00137941
0.00146968
0.00155689
0.00158173
0.0014996
0.00138367
0.00120675
0.00101946
0.000892132
0.000891271
0.00102531
0.00121111
0.00145865
0.00171285
0.00196719
0.0022376
0.00217482
0.0011809
0.00119268
0.00121009
0.00123926
0.00127176
0.00131576
0.00137366
0.00144045
0.00150602
0.00151778
0.00145616
0.00136656
0.00125478
0.00115108
0.00105344
0.00108097
0.00121397
0.00141666
0.00162062
0.00184601
0.00209984
0.00239338
0.0023702
0.0012182
0.0012272
0.00124102
0.00126575
0.00129269
0.00132699
0.00136867
0.00141449
0.00145582
0.00147648
0.00143936
0.00139489
0.00134489
0.00126705
0.00124895
0.00129383
0.00140302
0.00155638
0.00173355
0.0019474
0.00221016
0.00252977
0.00251504
0.00124742
0.00125475
0.00126655
0.00128517
0.00130661
0.0013319
0.00136142
0.00139405
0.00142443
0.00144785
0.00145202
0.0014371
0.00140807
0.00138079
0.00139476
0.00144598
0.00154511
0.00168231
0.00185587
0.00206945
0.00233823
0.00267585
0.00267626
0.00126949
0.00127646
0.00128719
0.00130235
0.00131989
0.0013411
0.00136328
0.00138639
0.00140957
0.00143492
0.00145619
0.00146247
0.00146425
0.00146475
0.00150003
0.00155773
0.00165798
0.00178304
0.00195008
0.00215533
0.00242099
0.00275332
0.00274668
0.00128739
0.00129368
0.00130153
0.00131242
0.00132702
0.00134468
0.00136391
0.00138445
0.00140478
0.0014293
0.00145453
0.00147712
0.001506
0.00152538
0.00157256
0.00163126
0.00172199
0.00184708
0.00200828
0.00220851
0.00246843
0.00279346
0.00276426
0.00130081
0.00130526
0.00131041
0.00132007
0.00133326
0.00134997
0.0013677
0.00138696
0.00140635
0.00142866
0.00145704
0.00148773
0.00152378
0.00155788
0.00160109
0.00166759
0.00176721
0.00189428
0.00205273
0.00225006
0.00249941
0.00281174
0.00273051
0.00130916
0.00131037
0.00131532
0.00132402
0.00133521
0.00134921
0.00136492
0.00138451
0.00140606
0.00143078
0.00146032
0.00149001
0.00152557
0.00156372
0.00161665
0.00169016
0.00178667
0.00190905
0.00206009
0.00224911
0.00248386
0.00277922
0.00266005
0.00131317
0.00131345
0.00131844
0.00132643
0.00133681
0.00135015
0.00136475
0.00138233
0.00140267
0.00142637
0.00145502
0.00148507
0.001523
0.00156787
0.0016232
0.00169257
0.00178589
0.00190469
0.00204841
0.00222977
0.00245132
0.00273325
0.00260737
0.00131479
0.00131479
0.00131841
0.00132492
0.00133363
0.0013453
0.00135895
0.00137609
0.00139583
0.00141791
0.00144492
0.00147565
0.00151442
0.0015573
0.00161145
0.00168104
0.00176755
0.00187497
0.00200349
0.00216575
0.00236455
0.00261758
0.00245967
0.00131242
0.00131333
0.00131652
0.00132233
0.00133008
0.00134044
0.00135227
0.001367
0.0013848
0.00140571
0.00143222
0.00146111
0.00149683
0.0015397
0.00159242
0.00165752
0.00173872
0.0018387
0.00195701
0.0021029
0.00227739
0.00249501
0.00228091
0.00130698
0.00130769
0.00131074
0.00131589
0.00132262
0.00133179
0.00134265
0.00135627
0.00137285
0.00139129
0.00141406
0.00144047
0.00147333
0.00151118
0.00155806
0.00161639
0.00168745
0.00177572
0.00188128
0.00201167
0.00216634
0.00235557
0.00211159
0.00130033
0.00130193
0.00130461
0.00130894
0.00131455
0.00132215
0.0013312
0.00134256
0.00135681
0.00137327
0.00139375
0.00141692
0.00144656
0.00148081
0.00152263
0.00157295
0.00163357
0.00170772
0.00179606
0.00190449
0.00203236
0.00218714
0.00190516
0.00129215
0.00129342
0.00129548
0.00129928
0.0013031
0.00130976
0.0013159
0.00132585
0.00133627
0.00134955
0.00136626
0.00138429
0.00140968
0.00143624
0.00147328
0.00151399
0.00156642
0.00162743
0.00170103
0.00179102
0.00189289
0.00202199
0.00175016
0.00128287
0.00128379
0.00128516
0.00128788
0.0012903
0.00129499
0.00129915
0.00130629
0.00131384
0.00132353
0.00133596
0.00134951
0.00136889
0.00138917
0.00141754
0.00144893
0.00148967
0.00153728
0.00159522
0.00166591
0.00174596
0.00184581
0.00155639
0.0012729
0.00127345
0.00127407
0.00127562
0.00127657
0.00127919
0.00128115
0.00128522
0.00128947
0.0012953
0.0013032
0.00131184
0.00132509
0.0013389
0.00135913
0.00138138
0.00141106
0.00144574
0.00148889
0.00154182
0.00160307
0.0016791
0.00140909
0.00126306
0.00126316
0.00126291
0.00126316
0.00126252
0.001263
0.00126264
0.0012637
0.00126465
0.00126655
0.00126975
0.00127313
0.00127994
0.00128689
0.00129877
0.00131189
0.00133083
0.00135333
0.00138254
0.00141901
0.00146249
0.00151704
0.00124997
0.00125316
0.00125278
0.00125161
0.00125051
0.00124824
0.0012466
0.00124388
0.00124191
0.00123945
0.00123735
0.00123585
0.00123403
0.00123454
0.00123474
0.00123853
0.00124271
0.0012514
0.00126243
0.001279
0.00130097
0.00132939
0.0013662
0.00111905
0.00124424
0.00124333
0.00124117
0.0012386
0.0012346
0.0012307
0.00122547
0.00122039
0.00121441
0.00120834
0.0012023
0.00119538
0.00118969
0.00118308
0.00117898
0.00117451
0.0011734
0.00117352
0.0011781
0.00118659
0.00120104
0.00122231
0.000986732
0.00123639
0.00123459
0.00123156
0.00122741
0.0012217
0.00121542
0.00120754
0.0011994
0.00119003
0.00118008
0.00116955
0.00115768
0.00114607
0.00113293
0.00112128
0.00110859
0.00109822
0.00108816
0.00108176
0.00107817
0.00108026
0.00108813
0.000873278
0.00122859
0.00122579
0.00122144
0.00121555
0.00120836
0.00119996
0.00119048
0.00118002
0.00116698
0.00115292
0.00113787
0.0011213
0.00110432
0.00108517
0.00106636
0.00104581
0.00102664
0.00100686
0.000989973
0.000974975
0.000965473
0.000961226
0.000761122
0.00122334
0.00121997
0.00121463
0.00120733
0.00119818
0.00118721
0.00117453
0.00116036
0.00114469
0.00112766
0.00110809
0.00108673
0.00106446
0.00103972
0.00101447
0.000986754
0.000959451
0.000930675
0.000903999
0.000878339
0.000857932
0.000842524
0.000662097
0.0012188
0.00121477
0.00120833
0.0011995
0.00118837
0.00117494
0.00115933
0.00114176
0.00112229
0.00110121
0.00107829
0.00105378
0.0010275
0.000997634
0.000966365
0.00093212
0.000897395
0.000860265
0.000824276
0.000788353
0.000757246
0.000730908
0.000564924
0.00121675
0.00121253
0.00120556
0.00119579
0.0011833
0.00116808
0.00115016
0.00112964
0.00110645
0.00108089
0.001053
0.00102317
0.000991282
0.000957503
0.000921576
0.000882168
0.000840465
0.000795821
0.000751376
0.000705828
0.000664265
0.000626995
0.000477071
0.00121478
0.00121001
0.00120223
0.0011914
0.0011776
0.00116077
0.00114092
0.00111805
0.00109213
0.00106338
0.00103164
0.000997065
0.000959528
0.000919467
0.000876957
0.000832365
0.00078574
0.000737502
0.000685916
0.000631132
0.000579272
0.000530703
0.000391257
0.00121472
0.00120985
0.00120182
0.00119056
0.00117615
0.00115854
0.00113771
0.00111357
0.00108592
0.00105472
0.00101982
0.000981433
0.000939465
0.000894081
0.000845149
0.000793076
0.000738145
0.000681184
0.000622967
0.000564958
0.000503431
0.000442953
0.00031228
0.00121319
0.00120785
0.00119931
0.00118754
0.00117256
0.00115426
0.00113258
0.00110746
0.00107871
0.00104629
0.00100987
0.000969431
0.000924576
0.000875412
0.000821772
0.000763912
0.000701929
0.000636515
0.000568519
0.00049963
0.000432226
0.000367597
0.000236347
0.00121388
0.00120847
0.00119984
0.00118794
0.00117283
0.00115439
0.00113259
0.00110733
0.00107837
0.00104556
0.00100847
0.000967017
0.000920885
0.000870069
0.000814127
0.000753003
0.000686393
0.000614541
0.000537756
0.00045714
0.000374564
0.000294466
0.000165312
0.00121134
0.00120561
0.00119663
0.00118439
0.00116893
0.00115015
0.00112802
0.00110246
0.00107326
0.0010403
0.00100314
0.000961561
0.000915084
0.000863746
0.000807176
0.00074531
0.000677755
0.000604481
0.000525281
0.000440469
0.000350427
0.000256458
0.000118865
3.68881e-05
2.84318e-05
2.84318e-05
6.92204e-05
4.65113e-05
4.64781e-05
4.64781e-05
6.18938e-05
5.36257e-05
5.36257e-05
5.40464e-05
5.43509e-05
5.15797e-05
5.15797e-05
5.32008e-05
5.46456e-05
0.000193231
0.000130419
6.1285e-05
6.1285e-05
0.00107703
0.00102959
0.000467231
0.000293526
0.00116905
0.00116905
0.00120807
0.0012351
0.00122862
0.00122862
0.00123526
0.00123651
0.0011938
0.0011938
0.00127473
0.00134162
0.00111609
0.00111609
0.00119048
0.00126954
0.00118347
0.00118347
0.00124772
0.00131358
0.00126407
0.00126407
0.00133482
0.00140751
0.00138557
0.00138557
0.00146854
0.00155079
0.00149133
0.00149133
0.00158746
0.00169072
0.00163138
0.00163138
0.00175071
0.00188342
0.00173775
0.00173775
0.00188445
0.00202037
0.00186441
0.00186441
0.00202107
0.00210932
0.00190989
0.00190989
0.00201647
0.00202799
0.00190153
0.00190153
0.00194022
0.00194022
0.00186069
0.00186069
0.00185176
0.00185176
0.00181108
0.00181108
0.00184038
0.00184038
0.00179225
0.00179225
0.00188129
0.00190364
0.00170067
0.00170067
0.00182347
0.0018948
0.0015575
0.0015575
0.00167142
0.00179026
0.001428
0.001428
0.00151134
0.00161089
0.0012768
0.0012768
0.00133536
0.00140024
0.00116845
0.00116845
0.0012163
0.00126711
0.00103251
0.00103251
0.00106846
0.00110693
0.000930041
0.000930041
0.000957246
0.000986338
0.0008211
0.0008211
0.00084113
0.000862669
0.000732436
0.000732436
0.000747719
0.000764316
0.00064315
0.00064315
0.000654038
0.000666202
0.000567586
0.000567586
0.000575734
0.000585033
0.000492758
0.000492758
0.000498258
0.000505034
0.000427329
0.000427329
0.000431074
0.000436094
0.000362917
0.000362917
0.000364956
0.000368532
0.000304906
0.000304906
0.000305588
0.000308022
0.000247947
0.000247249
0.000247249
0.000248788
0.000195215
0.000192972
0.000192972
0.000193565
0.000144049
0.000140142
0.000140049
0.000140049
9.44256e-05
8.77653e-05
8.68235e-05
8.68235e-05
5.63875e-05
4.09379e-05
3.58096e-05
3.58096e-05
0.000429451
0.000521363
0.00051383
0.000457952
0.000363889
0.000290675
0.000266813
0.000239405
0.000203261
0.000161303
0.000129913
9.8853e-05
7.63257e-05
6.81774e-05
5.06816e-05
5.78196e-05
4.21776e-05
4.81282e-05
4.09276e-05
0.000205017
0.000954081
0.00119064
0.000634499
0.000523708
0.000479596
0.00035602
0.000348453
0.000329482
0.000270355
0.000232646
0.000189654
0.000152603
0.000137318
0.000105987
0.000111411
8.59291e-05
9.19918e-05
8.17424e-05
9.06522e-05
0.000178032
0.000389979
0.0013975
0.000987853
0.000583316
0.000391564
0.00046002
0.000374614
0.000334888
0.000291353
0.000249574
0.000201636
0.000189017
0.000148556
0.000152515
0.000125603
0.000129882
0.000120108
9.32847e-05
0.00012386
0.00014455
0.000230186
0.000902203
0.00162558
0.00113462
0.000707472
0.000524804
0.000417507
0.000390078
0.000341981
0.000280259
0.000260107
0.000211933
0.000207546
0.00017733
0.000177648
0.000167924
9.20975e-05
0.00012386
0.000129173
0.000132861
0.000181305
0.00030609
0.00202525
0.00165398
0.000975079
0.000520473
0.00049421
0.000453996
0.000377846
0.000351112
0.000293192
0.000281765
0.000248262
0.000243554
0.000232783
0.000270517
0.000195207
0.000129173
0.000132861
0.000143781
0.000147018
0.000296432
0.00222947
0.00209594
0.00122686
0.000659586
0.000630469
0.000514587
0.000473952
0.000399724
0.000374032
0.000335899
0.000325257
0.000313654
0.00203273
0.00122963
0.000333585
0.000266581
0.000143781
0.000147018
0.000159283
0.000353556
0.00252589
0.00240118
0.00133407
0.000854252
0.000728966
0.000629394
0.000542407
0.000495218
0.000448409
0.000429763
0.000415713
0.0020721
0.00279344
0.00255636
0.00189403
0.000411815
0.000232879
0.000159283
0.00025236
0.00100374
0.00313266
0.00230172
0.00133999
0.00101375
0.000851538
0.000715532
0.000647033
0.000584758
0.000556508
0.00053845
0.00234689
0.00293279
0.00292437
0.00314417
0.00264259
0.00139071
0.000282278
0.000250432
0.00042391
0.00203968
0.00296524
0.00203267
0.00134709
0.00110557
0.000913658
0.000822804
0.000745478
0.00070727
0.000685511
0.0022602
0.00336564
0.00347448
0.00330276
0.00294545
0.00278095
0.000546283
0.000250432
0.000334438
0.00115363
0.00320427
0.00251865
0.00174756
0.00136307
0.00113951
0.00101437
0.000924469
0.000873704
0.000847934
0.00230858
0.00347896
0.00368045
0.00375927
0.00339381
0.00302255
0.00153087
0.000352916
0.000518308
0.000934992
0.00318343
0.00273825
0.00213619
0.00165171
0.0013926
0.00123097
0.00112595
0.00106154
0.00103117
0.00247664
0.00350788
0.00368045
0.00388387
0.00376276
0.00319369
0.00232668
0.000988536
0.000607143
0.00115717
0.00325022
0.00281183
0.00237885
0.0019043
0.0016223
0.00144226
0.00132691
0.00125446
0.00122114
0.00273391
0.00379086
0.00379778
0.0039178
0.00385609
0.00341321
0.00203149
0.00110434
0.000824872
0.001371
0.0032666
0.00286289
0.00254942
0.00212477
0.00184117
0.00165062
0.00152861
0.00144874
0.00141267
0.00300409
0.00414462
0.00406074
0.00402322
0.00383776
0.00340846
0.00163333
0.00101863
0.000934573
0.00141713
0.00326335
0.00291963
0.00269199
0.00230616
0.00203456
0.0018424
0.0017194
0.00163682
0.00159966
0.00333122
0.00442334
0.00429417
0.00416426
0.00383776
0.00330873
0.0015194
0.00101863
0.00104013
0.00193288
0.00321909
0.00303027
0.00287685
0.00248362
0.00221714
0.00201904
0.00189645
0.00181238
0.00177462
0.00348664
0.00413388
0.00391111
0.00433492
0.00392083
0.00321849
0.00288908
0.00128322
0.00173327
0.00315392
0.00321909
0.00309822
0.00304073
0.00263577
0.00237914
0.00217842
0.00205587
0.00197211
0.00193403
0.00351325
0.00297037
0.00323808
0.00418134
0.00390277
0.00316218
0.00233211
0.00236094
0.00249194
0.00276962
0.00328171
0.00323275
0.00303647
0.00272945
0.00248563
0.00230371
0.0021843
0.00210642
0.00206934
0.00321034
0.00182249
0.00285244
0.00385744
0.00328413
0.00242643
0.00187331
0.00178074
0.00175782
0.00243625
0.00307067
0.00314361
0.00291453
0.00274174
0.0025484
0.0023984
0.00228731
0.00221772
0.00218319
0.00247041
0.00153304
0.00284929
0.00365635
0.00301739
0.00257242
0.00203498
0.00178074
0.00175782
0.00216926
0.00291045
0.00294618
0.00283646
0.00272019
0.0025747
0.00245542
0.00236073
0.00230103
0.00227017
0.00236401
0.00143013
0.00287104
0.00365635
0.00234763
0.00209393
0.00258065
0.0026402
0.0018219
0.00237641
0.00287901
0.00286855
0.00279621
0.00270367
0.00259467
0.00249592
0.00241558
0.00236374
0.00233732
0.00244029
0.000831324
0.00267072
0.00274234
0.00210705
0.00199322
0.00231246
0.00312856
0.00244953
0.00255465
0.00287901
0.00286855
0.00279621
0.0027021
0.00260307
0.00251976
0.00245149
0.00240631
0.00238261
0.00233138
0.000831324
0.00206141
0.00283005
0.00210705
0.00199322
0.00237771
0.00343909
0.00303067
0.0029929
0.00298527
0.00289669
0.00279709
0.0027021
0.00261013
0.00253356
0.00247242
0.00243129
0.00241009
0.00317318
0.00154943
0.00170213
0.00294597
0.0024318
0.00222191
0.0028876
0.00368559
0.00335515
0.00342368
0.0031195
0.00296718
0.0028198
0.00270253
0.00260195
0.00252667
0.00247113
0.00243447
0.00241482
0.0031382
0.00286697
0.00170213
0.00238954
0.00285343
0.00306271
0.00345419
0.0039307
0.00381123
0.00358953
0.00319946
0.00297541
0.00279924
0.0026713
0.00257296
0.00250017
0.00244785
0.00241317
0.00239462
0.0028848
0.00405577
0.00275078
0.00258852
0.00272246
0.00298382
0.00347773
0.00415618
0.00393699
0.00341715
0.00310985
0.00289084
0.00273114
0.00261329
0.00252339
0.00245681
0.00240878
0.00237732
0.00236114
0.00247168
0.00357555
0.00392724
0.00343336
0.00328017
0.0035051
0.00404378
0.0039765
0.00353103
0.00317903
0.00295474
0.00277534
0.00264074
0.00253725
0.0024587
0.00239973
0.00235749
0.00233031
0.00231687
0.00221358
0.00306127
0.00334253
0.00360715
0.00370404
0.00369
0.00365341
0.00344585
0.00315855
0.00293723
0.00277099
0.00263247
0.00252744
0.00244312
0.00237967
0.00233062
0.00229592
0.00227351
0.00226284
0.00192243
0.00261636
0.00281635
0.00302473
0.00313591
0.00314942
0.00311546
0.00298852
0.00282206
0.00268929
0.00257776
0.0024801
0.00240456
0.00234055
0.00229248
0.0022539
0.00222699
0.0022093
0.0022012
0.00170358
0.0022597
0.00240174
0.00253958
0.00263605
0.00267558
0.00267811
0.0026235
0.00253809
0.00246395
0.00239449
0.00232985
0.00227903
0.00223348
0.00219983
0.00217171
0.00215282
0.00213974
0.00213409
0.00148353
0.00195337
0.00206576
0.00218118
0.00225936
0.0023094
0.00233296
0.0023237
0.0022846
0.00225476
0.00221806
0.0021826
0.00215394
0.00212601
0.00210581
0.00208755
0.00207625
0.00206714
0.00206386
0.00131014
0.00169568
0.00178365
0.00187625
0.00195086
0.00201183
0.00205312
0.00207382
0.00206861
0.00207
0.00205769
0.0020454
0.00203449
0.00202151
0.0020129
0.00200342
0.00199878
0.00199328
0.00199225
0.00113888
0.00146976
0.0015462
0.00163043
0.00170211
0.00176829
0.00182016
0.00186039
0.00187782
0.00190302
0.00190945
0.00191717
0.00192104
0.00192154
0.0019231
0.0019218
0.00192287
0.00192118
0.00192187
0.000997908
0.00127304
0.00133993
0.00141702
0.00148951
0.00156164
0.00162395
0.00167863
0.00171424
0.00175649
0.00177725
0.00180098
0.00181621
0.00182801
0.00183786
0.00184364
0.00184938
0.0018514
0.00185335
0.000860262
0.00109731
0.001161
0.00123624
0.00131065
0.00138726
0.00145707
0.00152204
0.00157139
0.00162618
0.00165873
0.00169579
0.00172019
0.001742
0.00175879
0.00177089
0.00178064
0.00178605
0.00178911
0.000741847
0.000940153
0.00100222
0.0010773
0.00115538
0.00123709
0.00131438
0.00138792
0.00144863
0.0015125
0.00155489
0.00160217
0.00163371
0.00166387
0.00168604
0.00170358
0.00171656
0.0017249
0.00172888
0.000626829
0.000797457
0.000861457
0.000939309
0.00102227
0.00110909
0.0011929
0.00127337
0.00134319
0.00141388
0.00146482
0.00151995
0.0015575
0.00159468
0.00162119
0.00164345
0.0016591
0.00166992
0.00167472
0.000523913
0.000667968
0.000736037
0.000818528
0.000907559
0.000999978
0.00109012
0.00117663
0.00125385
0.00132965
0.00138771
0.00144842
0.0014909
0.00153358
0.00156345
0.0015897
0.0016074
0.00162026
0.00162575
0.000424078
0.000549538
0.000624925
0.000714464
0.000810641
0.000908919
0.00100495
0.00109662
0.00117979
0.00125961
0.00132364
0.00138835
0.00143515
0.001482
0.00151458
0.00154404
0.0015633
0.00157779
0.00158382
0.000331169
0.000444106
0.000529915
0.000628119
0.000731841
0.000835694
0.00093678
0.00103248
0.00112003
0.00120266
0.0012712
0.00133846
0.00138871
0.00143837
0.00147303
0.00150492
0.00152534
0.00154114
0.00154762
0.000242439
0.000352338
0.000451851
0.000559741
0.000670787
0.000779614
0.000884839
0.000983687
0.00107449
0.00115922
0.0012311
0.00129997
0.00135293
0.00140438
0.00144065
0.00147426
0.0014955
0.00151226
0.00151905
0.000155734
0.000281021
0.000394904
0.000511133
0.000627757
0.000739945
0.00084782
0.000948462
0.00104117
0.00112698
0.00120092
0.00127052
0.00132535
0.00137769
0.00141514
0.00144977
0.00147152
0.00148889
0.00149588
7.60684e-05
0.000216491
0.000345987
0.000479075
0.00061095
0.000739179
0.00084782
0.000948462
0.00104117
0.00112698
0.00120092
0.00127052
0.00132535
0.00137769
0.00141514
0.00144977
0.00147152
0.00148889
0.00149588
)
;

boundaryField
{
    leftWall
    {
        type            calculated;
        value           uniform 0;
    }
    rightWall
    {
        type            calculated;
        value           uniform 0;
    }
    lowerWall
    {
        type            calculated;
        value           uniform 0;
    }
    atmosphere
    {
        type            calculated;
        value           uniform 0;
    }
    defaultFaces
    {
        type            empty;
    }
}


// ************************************************************************* //
