/*--------------------------------*- C++ -*----------------------------------*\
| =========                 |                                                 |
| \\      /  F ield         | OpenFOAM: The Open Source CFD Toolbox           |
|  \\    /   O peration     | Version:  2012                                  |
|   \\  /    A nd           | Website:  www.openfoam.com                      |
|    \\/     M anipulation  |                                                 |
\*---------------------------------------------------------------------------*/
FoamFile
{
    version     2.0;
    format      ascii;
    class       volVectorField;
    location    "0.26";
    object      U;
}
// * * * * * * * * * * * * * * * * * * * * * * * * * * * * * * * * * * * * * //

dimensions      [0 1 -1 0 0 0 0];


internalField   nonuniform List<vector> 
2268
(
(0.0239147 -0.0116023 0)
(0.0736121 -0.0115383 0)
(0.120899 -0.0115437 0)
(0.170618 -0.011733 0)
(0.219356 -0.01147 0)
(0.266769 -0.0114923 0)
(0.315388 -0.0114529 0)
(0.36244 -0.0114834 0)
(0.410752 -0.010976 0)
(0.453418 -0.0109218 0)
(0.500248 -0.00987829 0)
(0.533514 -0.00943365 0)
(0.575483 -0.0093116 0)
(0.606613 -0.00722106 0)
(0.623754 -0.00491357 0)
(0.639447 -0.00368441 0)
(0.63625 -0.00109757 0)
(0.617553 -0.000151901 0)
(0.578206 0.00256296 0)
(0.510358 0.00289673 0)
(0.40684 0.00740562 0)
(0.275419 0.0135569 0)
(0.0907359 0.0443699 0)
(0.0238197 -0.0344861 0)
(0.0736182 -0.0342999 0)
(0.120962 -0.0342906 0)
(0.170614 -0.034811 0)
(0.219396 -0.0339521 0)
(0.266882 -0.0339095 0)
(0.315497 -0.0337428 0)
(0.362629 -0.0336013 0)
(0.411 -0.0320059 0)
(0.453991 -0.0313757 0)
(0.500655 -0.0279924 0)
(0.534286 -0.026056 0)
(0.5783 -0.025348 0)
(0.604775 -0.0154222 0)
(0.627505 -0.010784 0)
(0.641825 -0.00198912 0)
(0.640722 0.0112399 0)
(0.621598 0.0278764 0)
(0.580866 0.0478983 0)
(0.510935 0.0784634 0)
(0.400671 0.103517 0)
(0.260746 0.136126 0)
(0.073216 0.128547 0)
(0.0236865 -0.0576514 0)
(0.0736787 -0.0574538 0)
(0.121089 -0.0573756 0)
(0.170616 -0.0582684 0)
(0.219527 -0.0569505 0)
(0.267175 -0.0569285 0)
(0.315828 -0.0566873 0)
(0.363179 -0.0566357 0)
(0.41168 -0.0541437 0)
(0.455324 -0.0532996 0)
(0.501945 -0.0478509 0)
(0.536913 -0.0460737 0)
(0.582043 -0.0427637 0)
(0.607066 -0.0303307 0)
(0.635099 -0.0226267 0)
(0.648772 -0.00981172 0)
(0.652353 0.00820481 0)
(0.636414 0.0282103 0)
(0.602339 0.0544699 0)
(0.54146 0.0879786 0)
(0.444656 0.12507 0)
(0.31024 0.168019 0)
(0.106266 0.202215 0)
(0.0235734 -0.0804946 0)
(0.0737317 -0.0803327 0)
(0.121158 -0.0800891 0)
(0.170488 -0.0813429 0)
(0.21954 -0.0795653 0)
(0.26741 -0.0794344 0)
(0.316115 -0.0790931 0)
(0.36371 -0.0789122 0)
(0.412231 -0.0755341 0)
(0.456645 -0.0740316 0)
(0.503483 -0.0665521 0)
(0.539874 -0.0638377 0)
(0.585391 -0.0585834 0)
(0.610433 -0.0403059 0)
(0.639658 -0.0306361 0)
(0.656353 -0.00983738 0)
(0.661271 0.0169575 0)
(0.646618 0.0520302 0)
(0.60888 0.0927953 0)
(0.546278 0.153918 0)
(0.443653 0.213253 0)
(0.312021 0.297291 0)
(0.105103 0.325272 0)
(0.0235024 -0.103642 0)
(0.0738007 -0.103582 0)
(0.121271 -0.103099 0)
(0.170467 -0.104781 0)
(0.21966 -0.102745 0)
(0.267867 -0.102591 0)
(0.316758 -0.102188 0)
(0.364742 -0.102082 0)
(0.413395 -0.0980622 0)
(0.458994 -0.0964411 0)
(0.506171 -0.087221 0)
(0.544919 -0.0847525 0)
(0.591484 -0.07626 0)
(0.617493 -0.0558742 0)
(0.652549 -0.0445632 0)
(0.668924 -0.0199625 0)
(0.681495 0.0124408 0)
(0.673776 0.052844 0)
(0.64838 0.101212 0)
(0.595748 0.165298 0)
(0.505985 0.234383 0)
(0.375414 0.326164 0)
(0.149629 0.398855 0)
(0.0234364 -0.126469 0)
(0.0737575 -0.126535 0)
(0.121249 -0.125755 0)
(0.170342 -0.127846 0)
(0.219542 -0.125574 0)
(0.268073 -0.12533 0)
(0.31711 -0.124852 0)
(0.365436 -0.124587 0)
(0.414108 -0.120051 0)
(0.460884 -0.117867 0)
(0.50813 -0.107141 0)
(0.549228 -0.10408 0)
(0.596495 -0.0929235 0)
(0.624098 -0.0689501 0)
(0.664657 -0.05507 0)
(0.680064 -0.0231083 0)
(0.693191 0.0145607 0)
(0.69055 0.0684197 0)
(0.665299 0.129928 0)
(0.614769 0.223005 0)
(0.517141 0.318798 0)
(0.391706 0.469432 0)
(0.137204 0.574793 0)
(0.0234344 -0.149584 0)
(0.0737379 -0.149823 0)
(0.121337 -0.148747 0)
(0.170403 -0.151255 0)
(0.219718 -0.148928 0)
(0.268612 -0.148725 0)
(0.317942 -0.148198 0)
(0.366758 -0.147948 0)
(0.415777 -0.143176 0)
(0.464026 -0.140904 0)
(0.511683 -0.129016 0)
(0.556023 -0.126517 0)
(0.60435 -0.111791 0)
(0.634399 -0.0880417 0)
(0.682188 -0.0712435 0)
(0.696938 -0.0334671 0)
(0.723401 0.00711762 0)
(0.724679 0.0657468 0)
(0.719973 0.13613 0)
(0.682746 0.233774 0)
(0.60698 0.337219 0)
(0.496193 0.500628 0)
(0.22246 0.645128 0)
(0.0234929 -0.172377 0)
(0.0735293 -0.172794 0)
(0.121244 -0.171417 0)
(0.170274 -0.17434 0)
(0.219551 -0.171963 0)
(0.268702 -0.171751 0)
(0.318175 -0.17121 0)
(0.367438 -0.170821 0)
(0.416682 -0.165989 0)
(0.466144 -0.163172 0)
(0.514163 -0.150577 0)
(0.561511 -0.147796 0)
(0.609358 -0.129952 0)
(0.64357 -0.105506 0)
(0.696148 -0.0847481 0)
(0.712417 -0.04209 0)
(0.745231 0.00127499 0)
(0.750844 0.0709712 0)
(0.747783 0.150006 0)
(0.724051 0.279039 0)
(0.640984 0.409269 0)
(0.538884 0.659032 0)
(0.240482 0.921563 0)
(-0.017644 0.0175813 0)
(-0.139134 -0.00989347 0)
(-0.180875 -0.0445597 0)
(-0.237295 -0.0514087 0)
(-0.226432 -0.0281739 0)
(-0.223916 -0.0302775 0)
(-0.193295 -0.0173419 0)
(-0.168731 -0.0175483 0)
(-0.134768 -0.0135083 0)
(-0.0967026 -0.0134981 0)
(-0.0706171 -0.0113367 0)
(-0.0326749 -0.0106451 0)
(-0.0189768 -0.00873236 0)
(0.00933699 -0.00746563 0)
(0.00849432 -0.00589877 0)
(0.024509 -0.00489717 0)
(0.011201 -0.00357811 0)
(0.0181611 -0.00253768 0)
(-0.00183954 -0.00196733 0)
(-0.0362673 0.0495846 0)
(-0.156609 0.0789163 0)
(-0.205514 0.0871155 0)
(-0.241467 0.070601 0)
(-0.225377 0.0238303 0)
(-0.222839 0.0154356 0)
(-0.191 -0.00450745 0)
(-0.167766 -0.00808488 0)
(-0.133405 -0.0157355 0)
(-0.0958887 -0.0142783 0)
(-0.0693074 -0.0148303 0)
(-0.0314628 -0.0115028 0)
(-0.0174924 -0.00837153 0)
(0.0106685 -0.00413894 0)
(0.00969856 -9.63598e-06 0)
(0.0256034 0.00399351 0)
(0.0122277 0.00670321 0)
(0.0188525 0.0084071 0)
(-0.00160458 0.0092752 0)
(-0.0217902 0.100051 0)
(-0.154401 0.0633589 0)
(-0.191559 -0.00773536 0)
(-0.257538 -0.0432663 0)
(-0.242845 -0.0357085 0)
(-0.230627 -0.0452097 0)
(-0.201739 -0.0399462 0)
(-0.173009 -0.0427292 0)
(-0.138091 -0.0429569 0)
(-0.0976227 -0.0413229 0)
(-0.0699482 -0.0377484 0)
(-0.0308187 -0.0329663 0)
(-0.0161373 -0.0259284 0)
(0.0125615 -0.0190436 0)
(0.0115994 -0.0117402 0)
(0.0271631 -0.00580967 0)
(0.0130661 -0.000315042 0)
(0.0193189 0.003618 0)
(-0.00145216 0.00570309 0)
(-0.04127 0.125034 0)
(-0.178937 0.149269 0)
(-0.23728 0.132053 0)
(-0.26165 0.0927257 0)
(-0.233718 0.0147784 0)
(-0.230373 -0.0032678 0)
(-0.195169 -0.026488 0)
(-0.169696 -0.0359464 0)
(-0.132787 -0.0461016 0)
(-0.0935565 -0.0436681 0)
(-0.0647903 -0.0420934 0)
(-0.0258345 -0.0344579 0)
(-0.0109012 -0.0260178 0)
(0.0172415 -0.0157513 0)
(0.0157369 -0.00564856 0)
(0.0307866 0.00370835 0)
(0.0162273 0.0104937 0)
(0.0213414 0.0149603 0)
(-0.000759382 0.0172727 0)
(-0.0234144 0.194171 0)
(-0.186537 0.149093 0)
(-0.237071 0.0275968 0)
(-0.306124 -0.0460738 0)
(-0.274871 -0.0499109 0)
(-0.241412 -0.0615079 0)
(-0.214846 -0.065754 0)
(-0.179968 -0.0701184 0)
(-0.141626 -0.0744058 0)
(-0.0979287 -0.0710019 0)
(-0.0666228 -0.0656034 0)
(-0.0252371 -0.0563238 0)
(-0.00873594 -0.0435657 0)
(0.0206361 -0.0304942 0)
(0.0191836 -0.0170287 0)
(0.0336622 -0.00593838 0)
(0.0179203 0.00405373 0)
(0.0223963 0.01106 0)
(-0.000427278 0.0147522 0)
(-0.0549177 0.214785 0)
(-0.227795 0.237549 0)
(-0.307787 0.184611 0)
(-0.298598 0.111307 0)
(-0.255437 -0.00893984 0)
(-0.247746 -0.0306774 0)
(-0.20775 -0.04902 0)
(-0.17481 -0.0677562 0)
(-0.13422 -0.0790665 0)
(-0.0901219 -0.0757871 0)
(-0.0567796 -0.0718274 0)
(-0.0156901 -0.0589745 0)
(0.00108082 -0.044713 0)
(0.0291397 -0.0273108 0)
(0.0268642 -0.0106061 0)
(0.0402494 0.00468487 0)
(0.0233408 0.0157638 0)
(0.0257568 0.0232075 0)
(0.000725421 0.0270526 0)
(-0.020385 0.315142 0)
(-0.251001 0.259437 0)
(-0.334394 0.0569077 0)
(-0.400947 -0.0727086 0)
(-0.335635 -0.0742773 0)
(-0.262237 -0.0810082 0)
(-0.233977 -0.0975465 0)
(-0.19421 -0.102802 0)
(-0.148279 -0.109401 0)
(-0.0978615 -0.105077 0)
(-0.0597557 -0.0962303 0)
(-0.0149816 -0.0815858 0)
(0.00441197 -0.0619467 0)
(0.034286 -0.0416997 0)
(0.0318595 -0.0213138 0)
(0.04441 -0.00443826 0)
(0.0260115 0.010524 0)
(0.0275495 0.020837 0)
(0.0012611 0.0262648 0)
(-0.0440632 0.330011 0)
(-0.315065 0.368489 0)
(-0.441982 0.250734 0)
(-0.366137 0.119843 0)
(-0.303259 -0.0622247 0)
(-0.280591 -0.0772838 0)
(-0.237024 -0.0731171 0)
(-0.189043 -0.10439 0)
(-0.144542 -0.118192 0)
(-0.0880694 -0.113266 0)
(-0.0480768 -0.106007 0)
(-0.00121399 -0.0859239 0)
(0.0183808 -0.0649108 0)
(0.0469702 -0.0385227 0)
(0.0438156 -0.0143425 0)
(0.0545796 0.00771283 0)
(0.0337022 0.0234294 0)
(0.032176 0.0342487 0)
(0.00287485 0.0397804 0)
(0.0237101 -0.208456 0)
(0.0732438 -0.209138 0)
(0.121352 -0.207471 0)
(0.170365 -0.210922 0)
(0.219821 -0.208679 0)
(0.269458 -0.208659 0)
(0.319582 -0.208191 0)
(0.36976 -0.207885 0)
(0.420304 -0.203275 0)
(0.471767 -0.200443 0)
(0.522071 -0.187411 0)
(0.574152 -0.184933 0)
(0.622712 -0.162417 0)
(0.666575 -0.14234 0)
(0.725366 -0.114916 0)
(0.746489 -0.0648714 0)
(0.808158 -0.0185881 0)
(0.812484 0.0604282 0)
(0.865316 0.146483 0)
(0.849031 0.284034 0)
(0.928741 0.427792 0)
(0.910252 0.692051 0)
(1.10519 1.04547 0)
(0.0238769 -0.256811 0)
(0.0725937 -0.257837 0)
(0.120951 -0.256021 0)
(0.169785 -0.260142 0)
(0.219314 -0.25831 0)
(0.269381 -0.258743 0)
(0.3202 -0.258681 0)
(0.371418 -0.258719 0)
(0.423301 -0.255058 0)
(0.476707 -0.252026 0)
(0.529795 -0.240161 0)
(0.585793 -0.235489 0)
(0.636777 -0.211118 0)
(0.695633 -0.195117 0)
(0.749546 -0.154478 0)
(0.795534 -0.116229 0)
(0.862548 -0.0587841 0)
(0.878435 0.0192643 0)
(0.936599 0.113438 0)
(0.922597 0.218344 0)
(0.99321 0.341175 0)
(0.98181 0.486941 0)
(1.18772 0.741799 0)
(0.0240388 -0.305452 0)
(0.0718871 -0.306745 0)
(0.12044 -0.30518 0)
(0.169037 -0.309822 0)
(0.218666 -0.308793 0)
(0.26911 -0.310083 0)
(0.320804 -0.310756 0)
(0.373345 -0.311522 0)
(0.427263 -0.309126 0)
(0.483692 -0.307505 0)
(0.541815 -0.297139 0)
(0.602337 -0.292553 0)
(0.661982 -0.272963 0)
(0.729774 -0.255795 0)
(0.790889 -0.215557 0)
(0.864262 -0.178205 0)
(0.927644 -0.102542 0)
(0.981855 -0.0133177 0)
(1.05034 0.100602 0)
(1.08759 0.227241 0)
(1.17435 0.363234 0)
(1.21659 0.492889 0)
(1.36468 0.715732 0)
(0.0240049 -0.35321 0)
(0.0707398 -0.354721 0)
(0.119202 -0.353653 0)
(0.167352 -0.358876 0)
(0.216858 -0.358891 0)
(0.267532 -0.361431 0)
(0.319804 -0.363462 0)
(0.373415 -0.365762 0)
(0.428591 -0.36598 0)
(0.486487 -0.367188 0)
(0.547275 -0.359353 0)
(0.611631 -0.356169 0)
(0.678963 -0.339047 0)
(0.756053 -0.324601 0)
(0.835234 -0.289468 0)
(0.926751 -0.253719 0)
(0.995923 -0.177565 0)
(1.08598 -0.103931 0)
(1.12574 0.00597701 0)
(1.19253 0.0950126 0)
(1.23006 0.212277 0)
(1.28332 0.301731 0)
(1.36645 0.480797 0)
(0.0241701 -0.40072 0)
(0.0697 -0.40247 0)
(0.118343 -0.402317 0)
(0.165946 -0.408 0)
(0.21514 -0.409503 0)
(0.265734 -0.413546 0)
(0.318147 -0.417178 0)
(0.372492 -0.420811 0)
(0.42963 -0.422772 0)
(0.490443 -0.426726 0)
(0.556853 -0.423063 0)
(0.628213 -0.424998 0)
(0.702816 -0.418554 0)
(0.787609 -0.413256 0)
(0.873236 -0.387969 0)
(0.947593 -0.340406 0)
(1.02042 -0.263179 0)
(1.07582 -0.144705 0)
(1.13195 -0.00698664 0)
(1.22215 0.121058 0)
(1.2535 0.269771 0)
(1.34106 0.352997 0)
(1.40399 0.50617 0)
(0.0242563 -0.447537 0)
(0.068261 -0.44936 0)
(0.116787 -0.450377 0)
(0.16387 -0.45616 0)
(0.212943 -0.459198 0)
(0.263932 -0.465001 0)
(0.317217 -0.47083 0)
(0.372639 -0.477917 0)
(0.431677 -0.484688 0)
(0.491552 -0.495316 0)
(0.554875 -0.497963 0)
(0.619821 -0.503113 0)
(0.68453 -0.499168 0)
(0.761886 -0.496046 0)
(0.857034 -0.450565 0)
(0.788161 -0.39506 0)
(0.721745 -0.299974 0)
(0.924426 -0.211438 0)
(1.10974 -0.137037 0)
(1.39945 -0.0132076 0)
(1.34928 0.105533 0)
(1.34542 0.160694 0)
(1.39068 0.350655 0)
(0.0244482 -0.493773 0)
(0.0673869 -0.495542 0)
(0.115772 -0.498489 0)
(0.162809 -0.504716 0)
(0.211659 -0.510163 0)
(0.262015 -0.518411 0)
(0.313818 -0.526509 0)
(0.366763 -0.53589 0)
(0.420671 -0.542351 0)
(0.477273 -0.550243 0)
(0.546852 -0.552159 0)
(0.674826 -0.555065 0)
(0.802874 -0.562748 0)
(0.83943 -0.593475 0)
(0.743601 -0.398446 0)
(0.597695 -0.226355 0)
(0.743592 -0.413758 0)
(0.968811 -0.543797 0)
(1.21517 -0.479821 0)
(1.4329 -0.158235 0)
(1.64035 0.307205 0)
(1.70843 0.305065 0)
(1.60114 0.370267 0)
(0.0241618 -0.53987 0)
(0.0658568 -0.54118 0)
(0.11291 -0.546303 0)
(0.159353 -0.552537 0)
(0.207076 -0.558894 0)
(0.257604 -0.567656 0)
(0.315221 -0.576119 0)
(0.392033 -0.585311 0)
(0.54142 -0.598559 0)
(0.681744 -0.624326 0)
(0.872694 -0.709482 0)
(1.04396 -0.730762 0)
(1.16326 -0.673907 0)
(1.20197 -0.438028 0)
(1.0648 -0.205035 0)
(1.04691 -0.371237 0)
(1.04339 -0.666684 0)
(1.04929 -0.682287 0)
(1.09627 -0.602936 0)
(1.14176 -0.427361 0)
(1.36653 -0.157993 0)
(1.63296 0.192815 0)
(1.7584 0.50933 0)
(0.0274029 -0.585416 0)
(0.0789815 -0.585904 0)
(0.139429 -0.593702 0)
(0.207472 -0.600433 0)
(0.281878 -0.609909 0)
(0.37023 -0.627482 0)
(0.474961 -0.661587 0)
(0.592074 -0.764082 0)
(0.738524 -0.820527 0)
(0.917196 -0.884784 0)
(1.11485 -0.917749 0)
(1.26425 -0.850131 0)
(1.35833 -0.722097 0)
(1.42176 -0.499751 0)
(1.50199 -0.246436 0)
(1.50965 -0.223601 0)
(1.38629 -0.418493 0)
(1.19615 -0.596195 0)
(1.13828 -0.573222 0)
(1.09088 -0.426224 0)
(1.13324 -0.190622 0)
(1.2815 -0.0687032 0)
(1.54594 0.119886 0)
(0.0280945 -0.64514 0)
(0.0984772 -0.652175 0)
(0.160886 -0.673511 0)
(0.237153 -0.694331 0)
(0.320508 -0.720672 0)
(0.407885 -0.762257 0)
(0.528982 -0.79918 0)
(0.633601 -0.855964 0)
(0.749148 -0.9265 0)
(0.898678 -1.00954 0)
(1.05921 -1.04994 0)
(1.19206 -0.976943 0)
(1.32187 -0.827362 0)
(1.41638 -0.578929 0)
(1.47666 -0.284927 0)
(1.51297 -0.248317 0)
(1.49812 -0.336551 0)
(1.3623 -0.438492 0)
(1.24385 -0.490421 0)
(1.18113 -0.425484 0)
(1.23931 -0.348074 0)
(1.34584 -0.224455 0)
(1.51675 -0.0974469 0)
(0.033281 -0.713476 0)
(0.0928199 -0.719941 0)
(0.159524 -0.734266 0)
(0.213326 -0.761161 0)
(0.286219 -0.782262 0)
(0.338336 -0.836263 0)
(0.422474 -0.88702 0)
(0.498159 -0.981679 0)
(0.616645 -1.08494 0)
(0.745502 -1.19666 0)
(0.856499 -1.21355 0)
(0.921075 -1.11752 0)
(1.02443 -0.950321 0)
(1.09558 -0.661012 0)
(1.19013 -0.349891 0)
(1.27124 -0.252273 0)
(1.29095 -0.277312 0)
(1.27827 -0.339898 0)
(1.22532 -0.399866 0)
(1.23798 -0.417626 0)
(1.31852 -0.364727 0)
(1.43331 -0.341862 0)
(1.6124 -0.293018 0)
(0.0305715 -0.771261 0)
(0.0663025 -0.778589 0)
(0.130296 -0.793998 0)
(0.164148 -0.821713 0)
(0.231274 -0.845995 0)
(0.267919 -0.900485 0)
(0.339686 -0.96007 0)
(0.387072 -1.05432 0)
(0.466282 -1.17498 0)
(0.501917 -1.25235 0)
(0.501821 -1.22437 0)
(0.481289 -1.14489 0)
(0.49639 -0.999681 0)
(0.507474 -0.739917 0)
(0.602956 -0.455248 0)
(0.726082 -0.345695 0)
(0.827185 -0.3358 0)
(0.913704 -0.371609 0)
(1.01165 -0.443124 0)
(1.1168 -0.518321 0)
(1.2918 -0.54128 0)
(1.46615 -0.514681 0)
(1.67839 -0.5081 0)
(0.0254527 -0.811286 0)
(0.0538141 -0.820334 0)
(0.10616 -0.833186 0)
(0.130227 -0.862175 0)
(0.181182 -0.887105 0)
(0.205739 -0.943837 0)
(0.250772 -1.00703 0)
(0.27372 -1.10665 0)
(0.297958 -1.20049 0)
(0.259152 -1.23175 0)
(0.228179 -1.19244 0)
(0.169957 -1.11227 0)
(0.151976 -0.978556 0)
(0.136635 -0.769539 0)
(0.222723 -0.573807 0)
(0.366756 -0.480639 0)
(0.531028 -0.470373 0)
(0.701804 -0.527019 0)
(0.899709 -0.609007 0)
(1.07201 -0.699579 0)
(1.27599 -0.723016 0)
(1.48707 -0.728513 0)
(1.74622 -0.758983 0)
(0.0222521 -0.850682 0)
(0.0461423 -0.859533 0)
(0.0887348 -0.870576 0)
(0.108775 -0.897132 0)
(0.145514 -0.921772 0)
(0.161586 -0.970864 0)
(0.182515 -1.02841 0)
(0.178717 -1.10265 0)
(0.157239 -1.16091 0)
(0.103365 -1.18215 0)
(0.0593815 -1.13533 0)
(0.00760225 -1.06742 0)
(-0.00867166 -0.966419 0)
(-0.00778615 -0.807397 0)
(0.0998709 -0.684116 0)
(0.25537 -0.652877 0)
(0.45186 -0.66951 0)
(0.635514 -0.740018 0)
(0.847125 -0.812208 0)
(1.01437 -0.892733 0)
(1.2202 -0.956018 0)
(1.45198 -0.980916 0)
(1.73657 -1.05724 0)
(0.0181613 -0.880193 0)
(0.0367172 -0.887145 0)
(0.0695292 -0.896472 0)
(0.0849976 -0.918966 0)
(0.110182 -0.940644 0)
(0.119568 -0.980417 0)
(0.125719 -1.02457 0)
(0.108486 -1.08039 0)
(0.0785748 -1.12447 0)
(0.027562 -1.13327 0)
(-0.00720669 -1.09598 0)
(-0.0349694 -1.0439 0)
(-0.0316121 -0.963944 0)
(0.00591567 -0.880051 0)
(0.137601 -0.841531 0)
(0.28466 -0.836204 0)
(0.45978 -0.855983 0)
(0.620534 -0.925333 0)
(0.79527 -0.994209 0)
(0.969232 -1.0752 0)
(1.16233 -1.16966 0)
(1.41039 -1.24726 0)
(1.7147 -1.38768 0)
(0.0132873 -0.905722 0)
(0.0295177 -0.911041 0)
(0.0540525 -0.918976 0)
(0.0684489 -0.93786 0)
(0.0861324 -0.956389 0)
(0.0934316 -0.98645 0)
(0.0930735 -1.0173 0)
(0.0778065 -1.0553 0)
(0.0491237 -1.08026 0)
(0.00909672 -1.09544 0)
(-0.0119038 -1.0732 0)
(-0.0184265 -1.04228 0)
(0.0103095 -1.00796 0)
(0.0724581 -0.975329 0)
(0.171459 -0.963576 0)
(0.280982 -0.974204 0)
(0.408953 -1.00587 0)
(0.546174 -1.07438 0)
(0.683733 -1.16137 0)
(0.856608 -1.25745 0)
(1.03106 -1.39729 0)
(1.28046 -1.52987 0)
(1.5696 -1.73302 0)
(0.00964201 -0.923282 0)
(0.0227891 -0.928128 0)
(0.0418056 -0.935778 0)
(0.054112 -0.95114 0)
(0.0667032 -0.966002 0)
(0.0731547 -0.98721 0)
(0.0736731 -1.00904 0)
(0.0635832 -1.0359 0)
(0.0460417 -1.0553 0)
(0.0255795 -1.07179 0)
(0.0166843 -1.06852 0)
(0.0261353 -1.06543 0)
(0.0532277 -1.05614 0)
(0.106306 -1.04192 0)
(0.174819 -1.0527 0)
(0.264461 -1.07506 0)
(0.358665 -1.1251 0)
(0.483391 -1.20154 0)
(0.592066 -1.30968 0)
(0.752371 -1.42431 0)
(0.895783 -1.60121 0)
(1.12043 -1.78854 0)
(1.35203 -2.06809 0)
(0.00719676 -0.938239 0)
(0.0189874 -0.943256 0)
(0.0325329 -0.950365 0)
(0.0422966 -0.962731 0)
(0.0505929 -0.975447 0)
(0.0565542 -0.993283 0)
(0.058352 -1.0077 0)
(0.055924 -1.02734 0)
(0.0477585 -1.04234 0)
(0.0389486 -1.06537 0)
(0.0373836 -1.07401 0)
(0.0458113 -1.07878 0)
(0.0667067 -1.0886 0)
(0.105908 -1.09644 0)
(0.157666 -1.12262 0)
(0.221331 -1.15751 0)
(0.294539 -1.22564 0)
(0.386077 -1.30728 0)
(0.47294 -1.43095 0)
(0.583371 -1.56067 0)
(0.701085 -1.7653 0)
(0.844369 -1.98504 0)
(1.0186 -2.32403 0)
(0.0054029 -0.949638 0)
(0.0143476 -0.953614 0)
(0.0227828 -0.959277 0)
(0.029502 -0.96932 0)
(0.0348295 -0.980431 0)
(0.0388732 -0.995006 0)
(0.0408769 -1.0085 0)
(0.0419955 -1.02511 0)
(0.0412398 -1.0384 0)
(0.0390085 -1.0613 0)
(0.0364933 -1.07567 0)
(0.0458092 -1.09427 0)
(0.0630315 -1.11715 0)
(0.0905519 -1.13293 0)
(0.121567 -1.16944 0)
(0.163105 -1.2122 0)
(0.214625 -1.29181 0)
(0.274837 -1.38046 0)
(0.340334 -1.50931 0)
(0.40772 -1.65326 0)
(0.497987 -1.86522 0)
(0.565603 -2.10761 0)
(0.689228 -2.47052 0)
(0.00340773 -0.958006 0)
(0.00880957 -0.960629 0)
(0.0139461 -0.965518 0)
(0.0186731 -0.974708 0)
(0.0215481 -0.984794 0)
(0.02382 -0.999183 0)
(0.0240496 -1.01082 0)
(0.0239948 -1.0275 0)
(0.0253439 -1.0393 0)
(0.0258351 -1.06027 0)
(0.0269645 -1.081 0)
(0.033752 -1.10521 0)
(0.0394245 -1.13369 0)
(0.0521348 -1.15474 0)
(0.0694246 -1.196 0)
(0.0958165 -1.25017 0)
(0.128146 -1.33858 0)
(0.158251 -1.43223 0)
(0.198508 -1.56549 0)
(0.224562 -1.71687 0)
(0.274649 -1.92571 0)
(0.2798 -2.17333 0)
(0.331645 -2.51219 0)
(0.00145935 -0.961928 0)
(0.00448516 -0.964238 0)
(0.00766818 -0.969193 0)
(0.010278 -0.977002 0)
(0.0115619 -0.985606 0)
(0.0120614 -0.997571 0)
(0.0106674 -1.0087 0)
(0.00927265 -1.0264 0)
(0.0073431 -1.0404 0)
(0.00786154 -1.06274 0)
(0.00606205 -1.08383 0)
(0.00664832 -1.10638 0)
(0.00400045 -1.13611 0)
(0.0082495 -1.16245 0)
(0.0183208 -1.21383 0)
(0.0283245 -1.27031 0)
(0.0391616 -1.35535 0)
(0.0424192 -1.44996 0)
(0.0524059 -1.57715 0)
(0.0392989 -1.728 0)
(0.0454154 -1.92254 0)
(-0.00386193 -2.16246 0)
(-0.0127205 -2.45457 0)
(0.000871363 -0.963898 0)
(0.00265823 -0.966786 0)
(0.00376902 -0.971245 0)
(0.00426206 -0.978532 0)
(0.00347371 -0.986499 0)
(0.00228379 -0.998143 0)
(-0.000240379 -1.00796 0)
(-0.00274616 -1.02398 0)
(-0.00759708 -1.03784 0)
(-0.0106858 -1.05879 0)
(-0.0189876 -1.07985 0)
(-0.0228346 -1.10284 0)
(-0.0293331 -1.13542 0)
(-0.0312766 -1.16865 0)
(-0.0336846 -1.21669 0)
(-0.0393102 -1.27046 0)
(-0.0450219 -1.35364 0)
(-0.0642941 -1.4444 0)
(-0.0822831 -1.56368 0)
(-0.12929 -1.70789 0)
(-0.170789 -1.88436 0)
(-0.267509 -2.11134 0)
(-0.354232 -2.36567 0)
(0.000351961 -0.96549 0)
(0.000293211 -0.967166 0)
(-0.000299816 -0.970804 0)
(-0.00170161 -0.976749 0)
(-0.00413976 -0.9836 0)
(-0.00758561 -0.993892 0)
(-0.0124036 -1.00363 0)
(-0.0177385 -1.01899 0)
(-0.0251241 -1.03246 0)
(-0.0321011 -1.05115 0)
(-0.0425168 -1.07169 0)
(-0.0506359 -1.09571 0)
(-0.0628043 -1.12786 0)
(-0.0743496 -1.1576 0)
(-0.0885197 -1.20606 0)
(-0.10569 -1.25799 0)
(-0.125636 -1.33074 0)
(-0.162178 -1.41131 0)
(-0.200685 -1.51274 0)
(-0.271286 -1.63743 0)
(-0.349002 -1.78541 0)
(-0.482282 -1.97521 0)
(-0.638915 -2.18694 0)
(-0.00135927 -0.964437 0)
(-0.00382916 -0.966075 0)
(-0.00658699 -0.969121 0)
(-0.00984656 -0.974585 0)
(-0.0139396 -0.980462 0)
(-0.018869 -0.98972 0)
(-0.025175 -0.997654 0)
(-0.0322822 -1.01108 0)
(-0.0419447 -1.02334 0)
(-0.0510019 -1.04114 0)
(-0.0647921 -1.06126 0)
(-0.0771794 -1.0822 0)
(-0.095597 -1.11176 0)
(-0.114501 -1.14238 0)
(-0.137093 -1.18562 0)
(-0.16742 -1.23272 0)
(-0.20204 -1.29753 0)
(-0.253632 -1.36813 0)
(-0.310032 -1.45499 0)
(-0.395056 -1.5574 0)
(-0.494275 -1.67389 0)
(-0.642604 -1.81819 0)
(-0.829249 -1.97496 0)
(-0.00194864 -0.960296 0)
(-0.00591299 -0.961926 0)
(-0.0102015 -0.96475 0)
(-0.0149242 -0.969419 0)
(-0.0207048 -0.974515 0)
(-0.0272198 -0.982664 0)
(-0.0354843 -0.990121 0)
(-0.04397 -1.00214 0)
(-0.0557202 -1.01366 0)
(-0.0667389 -1.02812 0)
(-0.0835723 -1.04542 0)
(-0.0999771 -1.06454 0)
(-0.121496 -1.09045 0)
(-0.145708 -1.11555 0)
(-0.175637 -1.15302 0)
(-0.21389 -1.19201 0)
(-0.259481 -1.24439 0)
(-0.323428 -1.30174 0)
(-0.396446 -1.37086 0)
(-0.498743 -1.45061 0)
(-0.618163 -1.53603 0)
(-0.784261 -1.63579 0)
(-0.986276 -1.73454 0)
(-0.00241758 -0.956429 0)
(-0.00732755 -0.957701 0)
(-0.0127842 -0.95994 0)
(-0.0187485 -0.963936 0)
(-0.0258682 -0.967967 0)
(-0.0337009 -0.974758 0)
(-0.043761 -0.980693 0)
(-0.0542538 -0.99061 0)
(-0.0687999 -1.00033 0)
(-0.0832623 -1.01297 0)
(-0.102585 -1.02779 0)
(-0.12268 -1.04384 0)
(-0.148806 -1.06585 0)
(-0.178037 -1.08761 0)
(-0.212514 -1.11736 0)
(-0.256252 -1.14812 0)
(-0.306416 -1.18802 0)
(-0.374046 -1.2303 0)
(-0.451575 -1.28015 0)
(-0.555975 -1.33512 0)
(-0.678637 -1.38989 0)
(-0.839148 -1.45029 0)
(-1.032 -1.49733 0)
(-0.00285338 -0.950511 0)
(-0.00901765 -0.951536 0)
(-0.0152666 -0.953259 0)
(-0.0224946 -0.95632 0)
(-0.030556 -0.959456 0)
(-0.0397871 -0.964737 0)
(-0.0509075 -0.969429 0)
(-0.0628186 -0.977013 0)
(-0.07833 -0.984497 0)
(-0.094478 -0.994168 0)
(-0.115746 -1.00584 0)
(-0.138554 -1.018 0)
(-0.167425 -1.03489 0)
(-0.200769 -1.05128 0)
(-0.240535 -1.07444 0)
(-0.28914 -1.09701 0)
(-0.345549 -1.12579 0)
(-0.41742 -1.15449 0)
(-0.500262 -1.18697 0)
(-0.60667 -1.21975 0)
(-0.731346 -1.24867 0)
(-0.888495 -1.2764 0)
(-1.07486 -1.28966 0)
(-0.00339488 -0.944399 0)
(-0.0101825 -0.945145 0)
(-0.017517 -0.946277 0)
(-0.025333 -0.948495 0)
(-0.0343685 -0.950456 0)
(-0.0442535 -0.954222 0)
(-0.0563695 -0.957407 0)
(-0.0692628 -0.962941 0)
(-0.0858515 -0.968374 0)
(-0.103281 -0.975206 0)
(-0.12576 -0.983379 0)
(-0.150207 -0.991699 0)
(-0.180306 -1.0033 0)
(-0.215039 -1.01393 0)
(-0.256045 -1.02878 0)
(-0.306137 -1.04255 0)
(-0.363611 -1.05985 0)
(-0.435364 -1.07537 0)
(-0.51686 -1.0917 0)
(-0.618334 -1.1046 0)
(-0.734162 -1.10989 0)
(-0.875296 -1.10821 0)
(-1.03864 -1.08756 0)
(-0.00352699 -0.936867 0)
(-0.0109839 -0.937364 0)
(-0.0186074 -0.938012 0)
(-0.0271377 -0.939418 0)
(-0.0365611 -0.940403 0)
(-0.0472131 -0.942662 0)
(-0.0598219 -0.944249 0)
(-0.0737465 -0.947406 0)
(-0.091095 -0.950272 0)
(-0.110053 -0.954047 0)
(-0.133488 -0.958665 0)
(-0.159581 -0.963073 0)
(-0.190979 -0.969692 0)
(-0.227216 -0.974874 0)
(-0.269461 -0.982708 0)
(-0.31983 -0.988227 0)
(-0.377671 -0.995355 0)
(-0.447773 -0.999072 0)
(-0.527692 -1.00168 0)
(-0.624161 -0.998918 0)
(-0.733735 -0.987761 0)
(-0.861795 -0.967117 0)
(-1.00703 -0.928117 0)
(-0.00354692 -0.929732 0)
(-0.0108524 -0.929923 0)
(-0.0186069 -0.92994 0)
(-0.0271495 -0.930395 0)
(-0.0368641 -0.930161 0)
(-0.0477073 -0.930786 0)
(-0.0606513 -0.93061 0)
(-0.0748539 -0.931436 0)
(-0.0923691 -0.931757 0)
(-0.111429 -0.932502 0)
(-0.134892 -0.933508 0)
(-0.161029 -0.933809 0)
(-0.192491 -0.935326 0)
(-0.228542 -0.934982 0)
(-0.27051 -0.935924 0)
(-0.319736 -0.933932 0)
(-0.375722 -0.931898 0)
(-0.442074 -0.925231 0)
(-0.516427 -0.915743 0)
(-0.604248 -0.898964 0)
(-0.701893 -0.873146 0)
(-0.814027 -0.835717 0)
(-0.937974 -0.781533 0)
(-0.00349778 -0.922389 0)
(-0.010902 -0.922238 0)
(-0.0186008 -0.921607 0)
(-0.0273031 -0.921088 0)
(-0.0369985 -0.9197 0)
(-0.0479856 -0.918777 0)
(-0.0608182 -0.916917 0)
(-0.0751518 -0.91554 0)
(-0.0924374 -0.913463 0)
(-0.111665 -0.911284 0)
(-0.134849 -0.908761 0)
(-0.160901 -0.905079 0)
(-0.191728 -0.901751 0)
(-0.227006 -0.896206 0)
(-0.267676 -0.890851 0)
(-0.314939 -0.881945 0)
(-0.368478 -0.871912 0)
(-0.430803 -0.856647 0)
(-0.500318 -0.837668 0)
(-0.580361 -0.810914 0)
(-0.668458 -0.775227 0)
(-0.766405 -0.727846 0)
(-0.872758 -0.665421 0)
(-0.00320566 -0.915178 0)
(-0.00988052 -0.914669 0)
(-0.0170547 -0.913355 0)
(-0.0251122 -0.911847 0)
(-0.0343988 -0.909258 0)
(-0.0448458 -0.906788 0)
(-0.0573714 -0.903177 0)
(-0.0712952 -0.899586 0)
(-0.0882801 -0.894924 0)
(-0.107093 -0.889784 0)
(-0.129688 -0.883905 0)
(-0.154767 -0.876542 0)
(-0.184387 -0.868836 0)
(-0.217975 -0.85859 0)
(-0.256708 -0.847634 0)
(-0.300967 -0.832701 0)
(-0.350781 -0.815791 0)
(-0.407723 -0.79311 0)
(-0.470529 -0.766145 0)
(-0.541613 -0.730816 0)
(-0.61856 -0.687249 0)
(-0.702786 -0.631678 0)
(-0.792041 -0.563432 0)
(-0.00274068 -0.909275 0)
(-0.00860166 -0.908361 0)
(-0.0149198 -0.906312 0)
(-0.0222643 -0.903705 0)
(-0.0308098 -0.899859 0)
(-0.0407057 -0.895732 0)
(-0.0526231 -0.890312 0)
(-0.0661016 -0.884512 0)
(-0.0822635 -0.877463 0)
(-0.100262 -0.869685 0)
(-0.121696 -0.860829 0)
(-0.145633 -0.85007 0)
(-0.173627 -0.838178 0)
(-0.205285 -0.823376 0)
(-0.241537 -0.807311 0)
(-0.282609 -0.787065 0)
(-0.328574 -0.764305 0)
(-0.380403 -0.735686 0)
(-0.43724 -0.70249 0)
(-0.500317 -0.661198 0)
(-0.567931 -0.612247 0)
(-0.640384 -0.552271 0)
(-0.716085 -0.481542 0)
(-0.00230628 -0.903647 0)
(-0.00709094 -0.902305 0)
(-0.0124149 -0.899481 0)
(-0.0184638 -0.895773 0)
(-0.025766 -0.890576 0)
(-0.03421 -0.884772 0)
(-0.0447978 -0.877503 0)
(-0.0569272 -0.8697 0)
(-0.0719577 -0.860435 0)
(-0.0888547 -0.850038 0)
(-0.109293 -0.838148 0)
(-0.131934 -0.824218 0)
(-0.158237 -0.808758 0)
(-0.187361 -0.790229 0)
(-0.220647 -0.769884 0)
(-0.257911 -0.745205 0)
(-0.299439 -0.717615 0)
(-0.345641 -0.684047 0)
(-0.395929 -0.645934 0)
(-0.450926 -0.599874 0)
(-0.509208 -0.546992 0)
(-0.57077 -0.483489 0)
(-0.633853 -0.411 0)
(-0.00162892 -0.899933 0)
(-0.005033 -0.898306 0)
(-0.00891749 -0.89496 0)
(-0.0134498 -0.890391 0)
(-0.0191688 -0.884086 0)
(-0.025996 -0.876698 0)
(-0.0349 -0.86751 0)
(-0.0454292 -0.85729 0)
(-0.0589186 -0.845389 0)
(-0.0743735 -0.832213 0)
(-0.0931481 -0.817544 0)
(-0.114103 -0.800903 0)
(-0.138538 -0.782472 0)
(-0.16554 -0.76061 0)
(-0.196037 -0.736352 0)
(-0.229757 -0.707714 0)
(-0.267112 -0.675966 0)
(-0.30813 -0.638383 0)
(-0.352508 -0.596333 0)
(-0.40036 -0.546821 0)
(-0.450762 -0.491222 0)
(-0.50323 -0.42627 0)
(-0.556457 -0.353944 0)
(-0.00120654 -0.896772 0)
(-0.00355772 -0.89481 0)
(-0.00635962 -0.890839 0)
(-0.00952139 -0.88532 0)
(-0.013828 -0.877784 0)
(-0.0189554 -0.868825 0)
(-0.0259806 -0.857792 0)
(-0.0342563 -0.845429 0)
(-0.0452239 -0.831169 0)
(-0.0579561 -0.815504 0)
(-0.074122 -0.798047 0)
(-0.0925583 -0.778454 0)
(-0.114679 -0.756899 0)
(-0.139171 -0.732298 0)
(-0.166826 -0.705231 0)
(-0.196915 -0.673678 0)
(-0.229996 -0.63882 0)
(-0.265787 -0.598223 0)
(-0.304299 -0.553328 0)
(-0.345314 -0.501283 0)
(-0.388175 -0.443823 0)
(-0.432318 -0.377613 0)
(-0.476587 -0.305083 0)
(-0.000659697 -0.895299 0)
(-0.00188438 -0.89328 0)
(-0.00357465 -0.889094 0)
(-0.00550071 -0.883031 0)
(-0.00844536 -0.874709 0)
(-0.0119864 -0.86462 0)
(-0.0171227 -0.852216 0)
(-0.0232401 -0.838072 0)
(-0.0316613 -0.82164 0)
(-0.0416445 -0.803269 0)
(-0.0546734 -0.782826 0)
(-0.0697674 -0.760216 0)
(-0.0882813 -0.73567 0)
(-0.109279 -0.70823 0)
(-0.133735 -0.678318 0)
(-0.160572 -0.644174 0)
(-0.190111 -0.606678 0)
(-0.221608 -0.563555 0)
(-0.255069 -0.516225 0)
(-0.290185 -0.462238 0)
(-0.326656 -0.403449 0)
(-0.363867 -0.336993 0)
(-0.400955 -0.265434 0)
(-0.000430312 -0.894 0)
(-0.00108543 -0.891682 0)
(-0.0022638 -0.886997 0)
(-0.0035203 -0.880246 0)
(-0.00563965 -0.871064 0)
(-0.00808822 -0.859936 0)
(-0.0117687 -0.846281 0)
(-0.0160302 -0.830652 0)
(-0.0219853 -0.812473 0)
(-0.0289071 -0.792212 0)
(-0.0381395 -0.769587 0)
(-0.0490259 -0.744507 0)
(-0.0629277 -0.717004 0)
(-0.0791055 -0.686452 0)
(-0.0986084 -0.653533 0)
(-0.120586 -0.616894 0)
(-0.145543 -0.577384 0)
(-0.17251 -0.532867 0)
(-0.201417 -0.484386 0)
(-0.231378 -0.429371 0)
(-0.262228 -0.369847 0)
(-0.293322 -0.303101 0)
(-0.32416 -0.231809 0)
(-0.00020451 -0.893972 0)
(-0.000519722 -0.891629 0)
(-0.00129814 -0.886821 0)
(-0.00209769 -0.879822 0)
(-0.00350175 -0.870271 0)
(-0.00505022 -0.858634 0)
(-0.00742217 -0.844371 0)
(-0.0101235 -0.827968 0)
(-0.0139333 -0.808822 0)
(-0.0183444 -0.787181 0)
(-0.0243159 -0.762719 0)
(-0.0314301 -0.735433 0)
(-0.0406615 -0.705541 0)
(-0.0516249 -0.672467 0)
(-0.0653104 -0.636695 0)
(-0.0813638 -0.597039 0)
(-0.100506 -0.554499 0)
(-0.122133 -0.50736 0)
(-0.146342 -0.456984 0)
(-0.172014 -0.400973 0)
(-0.198566 -0.340997 0)
(-0.224996 -0.274502 0)
(-0.250679 -0.204124 0)
(-0.00018465 -0.893023 0)
(-0.000507645 -0.890345 0)
(-0.00123775 -0.885164 0)
(-0.00199109 -0.877801 0)
(-0.00317324 -0.867853 0)
(-0.00440005 -0.855774 0)
(-0.00613817 -0.840941 0)