/*--------------------------------*- C++ -*----------------------------------*\
| =========                 |                                                 |
| \\      /  F ield         | OpenFOAM: The Open Source CFD Toolbox           |
|  \\    /   O peration     | Version:  2012                                  |
|   \\  /    A nd           | Website:  www.openfoam.com                      |
|    \\/     M anipulation  |                                                 |
\*---------------------------------------------------------------------------*/
FoamFile
{
    version     2.0;
    format      ascii;
    class       volVectorField;
    location    "0.26";
    object      Uc;
}
// * * * * * * * * * * * * * * * * * * * * * * * * * * * * * * * * * * * * * //

dimensions      [0 1 -1 0 0 0 0];


internalField   nonuniform List<vector> 
2268
(
(0.02438 -0.0115218 0)
(0.0730077 -0.0114593 0)
(0.121501 -0.0114582 0)
(0.170367 -0.0116356 0)
(0.219015 -0.0113551 0)
(0.267059 -0.01135 0)
(0.314983 -0.0112984 0)
(0.362739 -0.0112706 0)
(0.409323 -0.010745 0)
(0.454434 -0.0105738 0)
(0.49684 -0.00946719 0)
(0.535646 -0.00887205 0)
(0.572755 -0.00866553 0)
(0.60307 -0.00566081 0)
(0.623353 -0.00392484 0)
(0.634672 -0.00142446 0)
(0.632326 0.00253333 0)
(0.612325 0.00691877 0)
(0.571017 0.012603 0)
(0.501369 0.0203121 0)
(0.399777 0.0276999 0)
(0.262058 0.0373849 0)
(0.0914759 0.0432322 0)
(0.0243578 -0.0345549 0)
(0.0730027 -0.0343964 0)
(0.121533 -0.0343735 0)
(0.170391 -0.0349041 0)
(0.219063 -0.0340793 0)
(0.267153 -0.0340579 0)
(0.315113 -0.0339043 0)
(0.362923 -0.0338282 0)
(0.409638 -0.0322803 0)
(0.454884 -0.0317403 0)
(0.49738 -0.0284249 0)
(0.536838 -0.0269011 0)
(0.573897 -0.025688 0)
(0.603794 -0.0170935 0)
(0.625362 -0.0122708 0)
(0.637917 -0.00436121 0)
(0.636167 0.00740597 0)
(0.61613 0.0209678 0)
(0.573502 0.0382214 0)
(0.500778 0.0619779 0)
(0.393165 0.0849032 0)
(0.248802 0.113491 0)
(0.0834344 0.125896 0)
(0.0243396 -0.0575689 0)
(0.0730315 -0.057383 0)
(0.121612 -0.0572806 0)
(0.170456 -0.0581703 0)
(0.219202 -0.056852 0)
(0.267415 -0.0567975 0)
(0.315489 -0.0565497 0)
(0.36345 -0.0564431 0)
(0.410448 -0.0539536 0)
(0.456044 -0.0529981 0)
(0.499015 -0.047558 0)
(0.539411 -0.0455062 0)
(0.576998 -0.0423605 0)
(0.607772 -0.0290931 0)
(0.631471 -0.021664 0)
(0.646194 -0.0078597 0)
(0.647424 0.0111501 0)
(0.631812 0.0340717 0)
(0.595574 0.062389 0)
(0.532404 0.102033 0)
(0.435169 0.141659 0)
(0.292796 0.192244 0)
(0.104044 0.214501 0)
(0.0243246 -0.0805672 0)
(0.0730471 -0.080422 0)
(0.121628 -0.0801596 0)
(0.170413 -0.08143 0)
(0.219235 -0.0797023 0)
(0.267608 -0.0795927 0)
(0.315824 -0.0792606 0)
(0.363925 -0.0791303 0)
(0.411187 -0.0758129 0)
(0.457227 -0.0744448 0)
(0.500854 -0.0670369 0)
(0.542114 -0.0646173 0)
(0.580255 -0.0590383 0)
(0.611433 -0.041693 0)
(0.636488 -0.0321049 0)
(0.653354 -0.0123473 0)
(0.656327 0.0136513 0)
(0.640781 0.046296 0)
(0.602594 0.0853371 0)
(0.536192 0.140319 0)
(0.436295 0.196535 0)
(0.293158 0.272297 0)
(0.104237 0.312937 0)
(0.0243241 -0.103558 0)
(0.0730921 -0.103504 0)
(0.121697 -0.103007 0)
(0.170461 -0.104684 0)
(0.219405 -0.102652 0)
(0.268027 -0.102482 0)
(0.316518 -0.102075 0)
(0.364893 -0.10191 0)
(0.412614 -0.0979213 0)
(0.459365 -0.0961887 0)
(0.504046 -0.0870266 0)
(0.546833 -0.0843478 0)
(0.586328 -0.0759977 0)
(0.619706 -0.0552419 0)
(0.647846 -0.0436959 0)
(0.667914 -0.0182108 0)
(0.676371 0.0141131 0)
(0.669283 0.0565309 0)
(0.641505 0.106276 0)
(0.586376 0.176815 0)
(0.495707 0.250099 0)
(0.351552 0.354506 0)
(0.131142 0.424179 0)
(0.0242969 -0.126536 0)
(0.0730487 -0.126613 0)
(0.121644 -0.125834 0)
(0.170364 -0.127926 0)
(0.219367 -0.125699 0)
(0.268189 -0.125487 0)
(0.31692 -0.125015 0)
(0.365507 -0.124793 0)
(0.413617 -0.120327 0)
(0.460979 -0.11826 0)
(0.506574 -0.107619 0)
(0.550733 -0.104845 0)
(0.591562 -0.0934602 0)
(0.627289 -0.0704379 0)
(0.658336 -0.0564715 0)
(0.679436 -0.024891 0)
(0.689196 0.0121844 0)
(0.684826 0.0638747 0)
(0.658905 0.12431 0)
(0.602905 0.211301 0)
(0.510057 0.302341 0)
(0.359393 0.441593 0)
(0.132193 0.548633 0)
(0.0242916 -0.149499 0)
(0.0730604 -0.149738 0)
(0.121699 -0.148661 0)
(0.17046 -0.151168 0)
(0.219605 -0.148841 0)
(0.26871 -0.148625 0)
(0.317801 -0.148106 0)
(0.366793 -0.147817 0)
(0.415567 -0.143089 0)
(0.463856 -0.140702 0)
(0.510835 -0.128927 0)
(0.556985 -0.126216 0)
(0.599764 -0.111602 0)
(0.638781 -0.0876202 0)
(0.673904 -0.0705609 0)
(0.699801 -0.0330118 0)
(0.717053 0.00753949 0)
(0.723093 0.0677307 0)
(0.711772 0.138054 0)
(0.672985 0.242352 0)
(0.598145 0.350538 0)
(0.455441 0.53204 0)
(0.179532 0.695958 0)
(0.0242542 -0.172441 0)
(0.0729476 -0.172856 0)
(0.121568 -0.171507 0)
(0.170331 -0.17441 0)
(0.219511 -0.172066 0)
(0.268772 -0.171887 0)
(0.31811 -0.171361 0)
(0.367418 -0.171019 0)
(0.416719 -0.166237 0)
(0.465762 -0.163553 0)
(0.513976 -0.151063 0)
(0.561604 -0.148399 0)
(0.605932 -0.130585 0)
(0.648112 -0.10701 0)
(0.687049 -0.0861717 0)
(0.716488 -0.0435523 0)
(0.738382 -0.000420279 0)
(0.748587 0.0680133 0)
(0.742537 0.145981 0)
(0.709109 0.268553 0)
(0.636071 0.394224 0)
(0.489758 0.624942 0)
(0.194779 0.872858 0)
(-0.0386281 0.0165183 0)
(-0.117157 0.0170601 0)
(-0.181111 0.0103182 0)
(-0.215445 0.00446151 0)
(-0.222161 -0.00143 0)
(-0.209196 -0.00391001 0)
(-0.186314 -0.005649 0)
(-0.157417 -0.00646865 0)
(-0.124591 -0.00732034 0)
(-0.0907897 -0.00688402 0)
(-0.05907 -0.00643489 0)
(-0.030857 -0.00539257 0)
(-0.0081387 -0.00409774 0)
(0.00825236 -0.00270127 0)
(0.0179605 -0.00125513 0)
(0.021301 7.33183e-06 0)
(0.0192751 0.00102747 0)
(0.013225 0.00171911 0)
(0.00469345 0.00208298 0)
(-0.047633 0.0533853 0)
(-0.136734 0.0518468 0)
(-0.19887 0.029515 0)
(-0.223417 0.0106609 0)
(-0.222356 -0.00487428 0)
(-0.207753 -0.0118427 0)
(-0.184598 -0.0169505 0)
(-0.155951 -0.0192959 0)
(-0.123418 -0.0219469 0)
(-0.0896694 -0.0206436 0)
(-0.0578745 -0.0193452 0)
(-0.029524 -0.0161958 0)
(-0.00673791 -0.0123041 0)
(0.0096081 -0.00807385 0)
(0.0191829 -0.00373876 0)
(0.0224159 4.09588e-05 0)
(0.0202421 0.00312626 0)
(0.01389 0.00524183 0)
(0.00492656 0.00634805 0)
(-0.0435467 0.0923445 0)
(-0.128573 0.0873051 0)
(-0.195346 0.0492398 0)
(-0.232298 0.0174455 0)
(-0.236999 -0.00976061 0)
(-0.218563 -0.0206609 0)
(-0.19307 -0.0284768 0)
(-0.162324 -0.0326852 0)
(-0.127383 -0.0369112 0)
(-0.0917872 -0.0348287 0)
(-0.0583897 -0.0325439 0)
(-0.0289668 -0.0272256 0)
(-0.0053785 -0.0206542 0)
(0.0114048 -0.0134698 0)
(0.0210244 -0.00616168 0)
(0.0239017 0.000210582 0)
(0.0211807 0.00538441 0)
(0.0143799 0.00892426 0)
(0.00508298 0.0107786 0)
(-0.0545117 0.13423 0)
(-0.157234 0.125632 0)
(-0.225457 0.0686855 0)
(-0.243467 0.021728 0)
(-0.233232 -0.016047 0)
(-0.214298 -0.0299212 0)
(-0.188714 -0.0405943 0)
(-0.157484 -0.0465825 0)
(-0.122739 -0.0523088 0)
(-0.0870013 -0.0494271 0)
(-0.0534428 -0.0460798 0)
(-0.0237903 -0.0384723 0)
(-0.000274623 -0.0290982 0)
(0.0161419 -0.0188023 0)
(0.025211 -0.00843347 0)
(0.027568 0.000601187 0)
(0.0241944 0.0079314 0)
(0.0163662 0.0129452 0)
(0.00576636 0.0155662 0)
(-0.0521089 0.179757 0)
(-0.156656 0.16862 0)
(-0.238367 0.0898235 0)
(-0.275875 0.0245553 0)
(-0.26759 -0.0264014 0)
(-0.234719 -0.0412539 0)
(-0.203543 -0.0530573 0)
(-0.169543 -0.0615185 0)
(-0.130577 -0.0683798 0)
(-0.091694 -0.064751 0)
(-0.0551516 -0.0602286 0)
(-0.0232959 -0.0501416 0)
(0.00189838 -0.0378034 0)
(0.0193144 -0.0241435 0)
(0.0285564 -0.0105366 0)
(0.0303328 0.00129069 0)
(0.026049 0.0108435 0)
(0.0174177 0.0173789 0)
(0.00611632 0.0207929 0)
(-0.0702886 0.231994 0)
(-0.203053 0.217676 0)
(-0.282378 0.109616 0)
(-0.284891 0.0221366 0)
(-0.25722 -0.0389267 0)
(-0.230863 -0.0535732 0)
(-0.199984 -0.0667861 0)
(-0.162965 -0.0776516 0)
(-0.123384 -0.0853112 0)
(-0.0832561 -0.0810828 0)
(-0.0457142 -0.0750645 0)
(-0.0134686 -0.0622274 0)
(0.0114361 -0.0466836 0)
(0.0280275 -0.0293848 0)
(0.036239 -0.0123756 0)
(0.0369502 0.00241521 0)
(0.0312816 0.0142959 0)
(0.02076 0.022417 0)
(0.0072522 0.0266511 0)
(-0.067698 0.290863 0)
(-0.212999 0.277437 0)
(-0.3271 0.132481 0)
(-0.362654 0.0158137 0)
(-0.326423 -0.0594345 0)
(-0.264167 -0.0704091 0)
(-0.220991 -0.0811033 0)
(-0.182441 -0.095132 0)
(-0.136836 -0.10372 0)
(-0.0911372 -0.0988368 0)
(-0.0487436 -0.090968 0)
(-0.012856 -0.0749616 0)
(0.0146977 -0.0559201 0)
(0.0327905 -0.0345587 0)
(0.0411417 -0.0139043 0)
(0.0410092 0.00404016 0)
(0.0341421 0.0183455 0)
(0.022484 0.0281441 0)
(0.0078388 0.0332414 0)
(-0.0897411 0.358006 0)
(-0.278287 0.352651 0)
(-0.388727 0.153128 0)
(-0.364037 0.000136783 0)
(-0.305399 -0.0837604 0)
(-0.265375 -0.0892409 0)
(-0.225384 -0.0973009 0)
(-0.179135 -0.114659 0)
(-0.130875 -0.123775 0)
(-0.082096 -0.118626 0)
(-0.0367618 -0.108152 0)
(0.000623696 -0.0886027 0)
(0.0284596 -0.0654978 0)
(0.0457306 -0.0396819 0)
(0.0529295 -0.0150543 0)
(0.0510711 0.00637817 0)
(0.0417343 0.0232409 0)
(0.0271486 0.0347528 0)
(0.00940953 0.0407486 0)
(0.0242373 -0.208267 0)
(0.0728864 -0.208945 0)
(0.121574 -0.207338 0)
(0.170471 -0.210776 0)
(0.219859 -0.208589 0)
(0.26957 -0.208616 0)
(0.319584 -0.208224 0)
(0.369837 -0.207974 0)
(0.420517 -0.203526 0)
(0.471458 -0.200648 0)
(0.522496 -0.188057 0)
(0.573244 -0.184927 0)
(0.621519 -0.163533 0)
(0.670256 -0.142986 0)
(0.715939 -0.114517 0)
(0.756534 -0.0699268 0)
(0.793795 -0.0218477 0)
(0.824471 0.0537817 0)
(0.847966 0.139455 0)
(0.872729 0.265984 0)
(0.904062 0.399814 0)
(0.962569 0.629685 0)
(1.04233 0.927346 0)
(0.0241169 -0.256874 0)
(0.0725033 -0.25788 0)
(0.121068 -0.256163 0)
(0.169955 -0.260245 0)
(0.219442 -0.25851 0)
(0.26956 -0.259044 0)
(0.320289 -0.259063 0)
(0.37157 -0.259198 0)
(0.423666 -0.255615 0)
(0.476609 -0.252985 0)
(0.530503 -0.241199 0)
(0.584518 -0.237095 0)
(0.638722 -0.214379 0)
(0.694366 -0.197066 0)
(0.747551 -0.159822 0)
(0.800715 -0.118871 0)
(0.849744 -0.0596436 0)
(0.888885 0.0213961 0)
(0.918475 0.118479 0)
(0.943511 0.2369 0)
(0.972539 0.368223 0)
(1.03565 0.539026 0)
(1.1625 0.810318 0)
(0.0239811 -0.305223 0)
(0.0720634 -0.306503 0)
(0.12045 -0.304997 0)
(0.169293 -0.309652 0)
(0.218865 -0.30868 0)
(0.269414 -0.310066 0)
(0.321004 -0.310894 0)
(0.373674 -0.311861 0)
(0.427874 -0.309802 0)
(0.484098 -0.308535 0)
(0.542398 -0.29843 0)
(0.6021 -0.294174 0)
(0.663998 -0.274009 0)
(0.72809 -0.257798 0)
(0.793935 -0.218742 0)
(0.861711 -0.181522 0)
(0.925332 -0.11023 0)
(0.9853 -0.0276447 0)
(1.04241 0.0804255 0)
(1.09972 0.192239 0)
(1.16287 0.320228 0)
(1.24265 0.443385 0)
(1.35658 0.663928 0)
(0.0236864 -0.353139 0)
(0.0711732 -0.354655 0)
(0.119126 -0.353688 0)
(0.167692 -0.358878 0)
(0.217148 -0.359 0)
(0.267924 -0.361601 0)
(0.320127 -0.363694 0)
(0.37379 -0.365949 0)
(0.429257 -0.365953 0)
(0.487192 -0.367139 0)
(0.548148 -0.359706 0)
(0.612356 -0.357454 0)
(0.681392 -0.342347 0)
(0.756568 -0.329454 0)
(0.838304 -0.295436 0)
(0.921162 -0.256249 0)
(1.00114 -0.179854 0)
(1.07339 -0.0909381 0)
(1.13243 0.0270239 0)
(1.18495 0.135277 0)
(1.23313 0.265258 0)
(1.29038 0.363522 0)
(1.37578 0.546341 0)
(0.0234684 -0.40054 0)
(0.0704818 -0.402247 0)
(0.118089 -0.402155 0)
(0.166349 -0.407742 0)
(0.215492 -0.409249 0)
(0.266183 -0.413348 0)
(0.318614 -0.417127 0)
(0.373169 -0.421299 0)
(0.430533 -0.424023 0)
(0.49183 -0.428923 0)
(0.558063 -0.425775 0)
(0.629011 -0.427247 0)
(0.70537 -0.418729 0)
(0.787846 -0.411676 0)
(0.870415 -0.37869 0)
(0.947167 -0.33381 0)
(1.01605 -0.252019 0)
(1.07596 -0.151342 0)
(1.1404 -0.0361746 0)
(1.20738 0.0788831 0)
(1.26743 0.213362 0)
(1.33474 0.293496 0)
(1.40636 0.461511 0)
(0.0231309 -0.447383 0)
(0.0693973 -0.449172 0)
(0.116438 -0.450373 0)
(0.164382 -0.45623 0)
(0.213434 -0.459469 0)
(0.264504 -0.465421 0)
(0.317725 -0.471259 0)
(0.373508 -0.478085 0)
(0.431891 -0.483605 0)
(0.492416 -0.491918 0)
(0.555222 -0.492913 0)
(0.619712 -0.497129 0)
(0.687697 -0.494905 0)
(0.768071 -0.499654 0)
(0.815219 -0.420851 0)
(0.783717 -0.33698 0)
(0.783385 -0.317815 0)
(0.914272 -0.277003 0)
(1.12816 -0.189723 0)
(1.30838 -0.0152432 0)
(1.35855 0.197848 0)
(1.35548 0.245794 0)
(1.39791 0.395855 0)
(0.0229607 -0.493731 0)
(0.0687574 -0.495404 0)
(0.115455 -0.498426 0)
(0.163293 -0.504573 0)
(0.21207 -0.509703 0)
(0.262388 -0.517575 0)
(0.31404 -0.525377 0)
(0.366883 -0.534539 0)
(0.421264 -0.542286 0)
(0.48042 -0.555191 0)
(0.561481 -0.575426 0)
(0.676116 -0.578344 0)
(0.781675 -0.571735 0)
(0.80616 -0.52855 0)
(0.729702 -0.361893 0)
(0.667803 -0.301486 0)
(0.759851 -0.445432 0)
(0.97125 -0.493371 0)
(1.20516 -0.423392 0)
(1.42654 -0.184932 0)
(1.59854 0.144917 0)
(1.65477 0.246347 0)
(1.60471 0.40435 0)
(0.0225028 -0.540815 0)
(0.067192 -0.542027 0)
(0.112751 -0.547228 0)
(0.159661 -0.553565 0)
(0.207754 -0.560422 0)
(0.25933 -0.571345 0)
(0.319888 -0.586213 0)
(0.409195 -0.618235 0)
(0.533612 -0.640015 0)
(0.684724 -0.670337 0)
(0.857595 -0.716287 0)
(1.02524 -0.704007 0)
(1.1416 -0.651789 0)
(1.15633 -0.487881 0)
(1.09194 -0.260915 0)
(1.04789 -0.295895 0)
(1.04396 -0.53955 0)
(1.05695 -0.624751 0)
(1.09214 -0.562438 0)
(1.18047 -0.35707 0)
(1.36976 -0.0459588 0)
(1.58866 0.160786 0)
(1.74615 0.382141 0)
(0.026174 -0.591131 0)
(0.0799276 -0.593414 0)
(0.139165 -0.603844 0)
(0.206007 -0.613758 0)
(0.281318 -0.626394 0)
(0.369349 -0.647312 0)
(0.471806 -0.67507 0)
(0.592757 -0.740984 0)
(0.73966 -0.789912 0)
(0.914949 -0.848508 0)
(1.09576 -0.893628 0)
(1.24481 -0.844977 0)
(1.34723 -0.730704 0)
(1.42287 -0.499749 0)
(1.4805 -0.242187 0)
(1.47365 -0.263386 0)
(1.36473 -0.458573 0)
(1.22288 -0.576133 0)
(1.13415 -0.557166 0)
(1.10562 -0.422328 0)
(1.15204 -0.217511 0)
(1.30156 -0.0379004 0)
(1.55431 0.168556 0)
(0.0312624 -0.64888 0)
(0.0952878 -0.654084 0)
(0.162369 -0.670174 0)
(0.236129 -0.688784 0)
(0.317893 -0.709274 0)
(0.411925 -0.747448 0)
(0.519734 -0.786287 0)
(0.630695 -0.86287 0)
(0.751625 -0.937235 0)
(0.895476 -1.02197 0)
(1.0465 -1.05371 0)
(1.18625 -0.975177 0)
(1.30895 -0.82675 0)
(1.40397 -0.575203 0)
(1.46677 -0.287738 0)
(1.49583 -0.240082 0)
(1.46311 -0.339416 0)
(1.36077 -0.449739 0)
(1.25149 -0.484424 0)
(1.20439 -0.418947 0)
(1.24423 -0.307498 0)
(1.35409 -0.208541 0)
(1.52328 -0.0848385 0)
(0.0311659 -0.711628 0)
(0.0935382 -0.718381 0)
(0.1545 -0.734576 0)
(0.215599 -0.759932 0)
(0.277802 -0.78283 0)
(0.342494 -0.833429 0)
(0.41587 -0.882419 0)
(0.503991 -0.966841 0)
(0.614115 -1.0655 0)
(0.735895 -1.16069 0)
(0.839887 -1.1713 0)
(0.926048 -1.08464 0)
(1.01228 -0.927259 0)
(1.09743 -0.65575 0)
(1.18248 -0.355759 0)
(1.2515 -0.270575 0)
(1.27794 -0.302536 0)
(1.26283 -0.36847 0)
(1.23593 -0.428692 0)
(1.24853 -0.439915 0)
(1.32074 -0.399054 0)
(1.44228 -0.34948 0)
(1.6181 -0.290604 0)
(0.0239039 -0.76698 0)
(0.072386 -0.774452 0)
(0.121166 -0.78881 0)
(0.170214 -0.816407 0)
(0.22083 -0.839749 0)
(0.273293 -0.89426 0)
(0.329718 -0.952048 0)
(0.39078 -1.04715 0)
(0.450871 -1.15627 0)
(0.488493 -1.23013 0)
(0.492223 -1.21011 0)
(0.485825 -1.12597 0)
(0.491345 -0.978118 0)
(0.524459 -0.723716 0)
(0.605492 -0.454684 0)
(0.716057 -0.352098 0)
(0.81877 -0.350765 0)
(0.911426 -0.398103 0)
(1.00809 -0.469081 0)
(1.12841 -0.533049 0)
(1.28589 -0.536705 0)
(1.46938 -0.518332 0)
(1.67956 -0.509664 0)
(0.019526 -0.81063 0)
(0.0589385 -0.819142 0)
(0.0976521 -0.832056 0)
(0.134953 -0.859944 0)
(0.17206 -0.884375 0)
(0.207862 -0.93834 0)
(0.241825 -0.998804 0)
(0.270273 -1.09035 0)
(0.278249 -1.18147 0)
(0.257025 -1.22138 0)
(0.217268 -1.18261 0)
(0.175892 -1.10541 0)
(0.148652 -0.976801 0)
(0.157889 -0.767552 0)
(0.232781 -0.567524 0)
(0.367343 -0.485594 0)
(0.527992 -0.481926 0)
(0.703719 -0.53664 0)
(0.888319 -0.613178 0)
(1.0746 -0.697057 0)
(1.27251 -0.729842 0)
(1.4935 -0.731663 0)
(1.74836 -0.763687 0)
(0.0168446 -0.847183 0)
(0.0500288 -0.855548 0)
(0.0818176 -0.866502 0)
(0.111159 -0.89247 0)
(0.13811 -0.916221 0)
(0.160129 -0.964595 0)
(0.173292 -1.0199 0)
(0.17097 -1.09549 0)
(0.145559 -1.15877 0)
(0.102136 -1.17906 0)
(0.0536491 -1.13619 0)
(0.0126077 -1.06894 0)
(-0.00828702 -0.964835 0)
(0.0148208 -0.811977 0)
(0.107633 -0.691615 0)
(0.261297 -0.651163 0)
(0.444237 -0.661661 0)
(0.637884 -0.728122 0)
(0.83137 -0.801662 0)
(1.01909 -0.884426 0)
(1.22188 -0.945153 0)
(1.46013 -0.977871 0)
(1.74333 -1.05823 0)
(0.0134864 -0.877662 0)
(0.0395783 -0.884635 0)
(0.0640403 -0.893941 0)
(0.0858306 -0.916409 0)
(0.104224 -0.937839 0)
(0.11637 -0.977295 0)
(0.117154 -1.02119 0)
(0.10229 -1.07689 0)
(0.0700858 -1.11942 0)
(0.0282133 -1.13263 0)
(-0.00898709 -1.09644 0)
(-0.0308536 -1.04541 0)
(-0.0268042 -0.971386 0)
(0.0255628 -0.881238 0)
(0.137422 -0.82803 0)
(0.287557 -0.820062 0)
(0.451968 -0.841848 0)
(0.619659 -0.911073 0)
(0.790679 -0.985025 0)
(0.969466 -1.06938 0)
(1.17155 -1.16707 0)
(1.41981 -1.24489 0)
(1.72708 -1.38464 0)
(0.0104926 -0.901756 0)
(0.0309579 -0.90732 0)
(0.050481 -0.915448 0)
(0.0678304 -0.934223 0)
(0.0817296 -0.952463 0)
(0.0893623 -0.982526 0)
(0.0868851 -1.01423 0)
(0.0717243 -1.05364 0)
(0.0433283 -1.08172 0)
(0.0106929 -1.09539 0)
(-0.0115552 -1.07388 0)
(-0.0130749 -1.04442 0)
(0.0150906 -1.00471 0)
(0.0779724 -0.963711 0)
(0.17029 -0.950736 0)
(0.281647 -0.960141 0)
(0.407266 -0.993237 0)
(0.542124 -1.06373 0)
(0.688406 -1.15124 0)
(0.852707 -1.24795 0)
(1.04558 -1.38541 0)
(1.28598 -1.51764 0)
(1.58763 -1.72385 0)
(0.00791837 -0.920252 0)
(0.0236845 -0.925222 0)
(0.0391874 -0.932732 0)
(0.0528811 -0.948119 0)
(0.0635308 -0.963216 0)
(0.0697135 -0.985631 0)
(0.0687826 -1.00767 0)
(0.0592096 -1.0353 0)
(0.0426008 -1.05478 0)
(0.0255513 -1.07235 0)
(0.0181769 -1.0671 0)
(0.0273032 -1.05879 0)
(0.0563734 -1.04781 0)
(0.106645 -1.03429 0)
(0.176484 -1.0431 0)
(0.261863 -1.06547 0)
(0.362463 -1.11523 0)
(0.475467 -1.1908 0)
(0.600983 -1.29728 0)
(0.744116 -1.41084 0)
(0.912018 -1.58507 0)
(1.11803 -1.76661 0)
(1.38009 -2.04141 0)
(0.00637408 -0.934607 0)
(0.018907 -0.939289 0)
(0.0307314 -0.946109 0)
(0.0407447 -0.958546 0)
(0.0485155 -0.971278 0)
(0.0537252 -0.98899 0)
(0.0552468 -1.00487 0)
(0.0521852 -1.02537 0)
(0.0450799 -1.04084 0)
(0.038043 -1.06203 0)
(0.0370179 -1.06892 0)
(0.0458686 -1.07499 0)
(0.0680955 -1.08313 0)
(0.105719 -1.08727 0)
(0.157208 -1.11201 0)
(0.220149 -1.14557 0)
(0.295477 -1.21189 0)
(0.381174 -1.29379 0)
(0.475043 -1.41473 0)
(0.581335 -1.54401 0)
(0.703598 -1.74346 0)
(0.848156 -1.9605 0)
(1.02706 -2.29067 0)
(0.00477981 -0.945805 0)
(0.0137467 -0.949675 0)
(0.0215727 -0.955447 0)
(0.0280709 -0.965775 0)
(0.0331412 -0.976925 0)
(0.0367204 -0.992144 0)
(0.0387655 -1.00526 0)
(0.0394007 -1.02249 0)
(0.0385396 -1.03567 0)
(0.0363958 -1.05794 0)
(0.0367438 -1.07229 0)
(0.0449101 -1.08867 0)
(0.0625992 -1.10951 0)
(0.0882548 -1.12443 0)
(0.120937 -1.15939 0)
(0.162193 -1.20286 0)
(0.213332 -1.28165 0)
(0.272562 -1.36963 0)
(0.337204 -1.49814 0)
(0.409694 -1.64022 0)
(0.488663 -1.84943 0)
(0.575768 -2.08729 0)
(0.669786 -2.4381 0)
(0.00290817 -0.953519 0)
(0.00831016 -0.956376 0)
(0.0131262 -0.961424 0)
(0.0172164 -0.970411 0)
(0.020138 -0.98029 0)
(0.0217949 -0.994007 0)
(0.0222309 -1.00585 0)
(0.0223668 -1.02263 0)
(0.0229588 -1.03521 0)
(0.0236167 -1.05685 0)
(0.0258405 -1.07591 0)
(0.0307516 -1.09814 0)
(0.0383399 -1.12539 0)
(0.0502772 -1.14628 0)
(0.0685941 -1.18874 0)
(0.0940448 -1.2405 0)
(0.124272 -1.32573 0)
(0.157333 -1.41824 0)
(0.191488 -1.54875 0)
(0.226958 -1.69804 0)
(0.259859 -1.90396 0)
(0.287802 -2.14829 0)
(0.297615 -2.48136 0)
(0.00135291 -0.957787 0)
(0.00412629 -0.960295 0)
(0.00686275 -0.965065 0)
(0.00902819 -0.973024 0)
(0.0102025 -0.981758 0)
(0.0101843 -0.994148 0)
(0.00904277 -1.00496 0)
(0.00729772 -1.02186 0)
(0.0059207 -1.03514 0)
(0.00505306 -1.05665 0)
(0.00426988 -1.0775 0)
(0.00327711 -1.10043 0)
(0.00303093 -1.13041 0)
(0.00684207 -1.15702 0)
(0.0153439 -1.20489 0)
(0.0254156 -1.25998 0)
(0.0340864 -1.34527 0)
(0.0407663 -1.43856 0)
(0.0432778 -1.56519 0)
(0.0405831 -1.71444 0)
(0.0281113 -1.90798 0)
(0.00256813 -2.14657 0)
(-0.049004 -2.44098 0)
(0.000759009 -0.959893 0)
(0.00212081 -0.962312 0)
(0.00300028 -0.966649 0)
(0.00309183 -0.973674 0)
(0.0022922 -0.981448 0)
(0.000646413 -0.992746 0)
(-0.00174812 -1.00277 0)
(-0.00505362 -1.01893 0)
(-0.00905984 -1.03261 0)
(-0.0140811 -1.05321 0)
(-0.0201237 -1.07402 0)
(-0.0259238 -1.09702 0)
(-0.0307518 -1.12866 0)
(-0.0341146 -1.15915 0)
(-0.0373144 -1.20801 0)
(-0.0423175 -1.26187 0)
(-0.0514791 -1.34279 0)
(-0.0671923 -1.43187 0)
(-0.092803 -1.54857 0)
(-0.131352 -1.6895 0)
(-0.188004 -1.86333 0)
(-0.268718 -2.08429 0)
(-0.38194 -2.33749 0)
(4.31408e-05 -0.960683 0)
(-0.000184005 -0.962629 0)
(-0.00107028 -0.96629 0)
(-0.00274993 -0.9724 0)
(-0.00539487 -0.97922 0)
(-0.00914196 -0.989511 0)
(-0.0139444 -0.998724 0)
(-0.0198577 -1.01366 0)
(-0.0268055 -1.02682 0)
(-0.034928 -1.04574 0)
(-0.0440651 -1.06618 0)
(-0.0539423 -1.08904 0)
(-0.0650733 -1.12053 0)
(-0.0775967 -1.15124 0)
(-0.0919795 -1.19817 0)
(-0.109249 -1.24924 0)
(-0.132741 -1.32251 0)
(-0.16579 -1.40304 0)
(-0.211896 -1.50521 0)
(-0.276433 -1.62913 0)
(-0.366311 -1.77629 0)
(-0.491711 -1.96402 0)
(-0.661988 -2.17265 0)
(-0.00140476 -0.959296 0)
(-0.00421884 -0.960923 0)
(-0.0072418 -0.96403 0)
(-0.0107875 -0.969369 0)
(-0.0150833 -0.975234 0)
(-0.0203434 -0.9844 0)
(-0.0266923 -0.99258 0)
(-0.0344258 -1.00604 0)
(-0.0434679 -1.01832 0)
(-0.0540355 -1.0354 0)
(-0.066444 -1.0548 0)
(-0.0808568 -1.07594 0)
(-0.0980252 -1.10512 0)
(-0.11789 -1.13402 0)
(-0.141613 -1.17701 0)
(-0.171246 -1.22318 0)
(-0.209145 -1.28678 0)
(-0.257859 -1.35649 0)
(-0.320325 -1.44252 0)
(-0.4019 -1.54484 0)
(-0.509988 -1.66147 0)
(-0.655776 -1.80612 0)
(-0.851708 -1.96231 0)
(-0.00206545 -0.95579 0)
(-0.00628833 -0.957319 0)
(-0.0108008 -0.960022 0)
(-0.0158707 -0.964678 0)
(-0.0217588 -0.969647 0)
(-0.0287124 -0.977666 0)
(-0.0367717 -0.984784 0)
(-0.0461944 -0.99654 0)
(-0.0571098 -1.0077 0)
(-0.0699333 -1.02244 0)
(-0.085355 -1.03972 0)
(-0.103309 -1.05842 0)
(-0.124358 -1.08415 0)
(-0.149488 -1.10968 0)
(-0.180195 -1.14655 0)
(-0.218361 -1.18539 0)
(-0.26683 -1.23765 0)
(-0.328625 -1.29443 0)
(-0.406826 -1.36307 0)
(-0.506271 -1.44221 0)
(-0.633246 -1.52769 0)
(-0.796871 -1.62874 0)
(-1.00918 -1.72918 0)
(-0.00252913 -0.951153 0)
(-0.00773707 -0.952439 0)
(-0.0133676 -0.954668 0)
(-0.0196708 -0.95856 0)
(-0.0268574 -0.962581 0)
(-0.0352412 -0.96927 0)
(-0.0450202 -0.9752 0)
(-0.0565849 -0.984976 0)
(-0.0702533 -0.994497 0)
(-0.0861138 -1.00675 0)
(-0.10456 -1.0213 0)
(-0.126128 -1.03704 0)
(-0.15166 -1.05863 0)
(-0.181584 -1.07978 0)
(-0.217196 -1.1097 0)
(-0.260388 -1.14037 0)
(-0.313446 -1.18052 0)
(-0.379354 -1.22309 0)
(-0.461281 -1.27334 0)
(-0.563709 -1.3289 0)
(-0.691476 -1.38481 0)
(-0.85081 -1.44685 0)
(-1.04895 -1.49834 0)
(-0.00305392 -0.945523 0)
(-0.00929211 -0.946527 0)
(-0.015935 -0.948205 0)
(-0.0232918 -0.951252 0)
(-0.0316026 -0.954269 0)
(-0.0411754 -0.959488 0)
(-0.0521791 -0.964044 0)
(-0.0649501 -0.971618 0)
(-0.0798701 -0.979062 0)
(-0.0972931 -0.988669 0)
(-0.117808 -1.00016 0)
(-0.141899 -1.01222 0)
(-0.170508 -1.02895 0)
(-0.204494 -1.04514 0)
(-0.244998 -1.06775 0)
(-0.293504 -1.09005 0)
(-0.351971 -1.11864 0)
(-0.422891 -1.14733 0)
(-0.509051 -1.18003 0)
(-0.614332 -1.21331 0)
(-0.742781 -1.24273 0)
(-0.899365 -1.27124 0)
(-1.08855 -1.28447 0)
(-0.00347428 -0.938943 0)
(-0.0105536 -0.939684 0)
(-0.0180302 -0.940818 0)
(-0.0261839 -0.943009 0)
(-0.0352814 -0.944972 0)
(-0.0456626 -0.948683 0)
(-0.057564 -0.951777 0)
(-0.0713351 -0.957153 0)
(-0.0873526 -0.962372 0)
(-0.105981 -0.969059 0)
(-0.127826 -0.97712 0)
(-0.153341 -0.985316 0)
(-0.183319 -0.996886 0)
(-0.218612 -1.00748 0)
(-0.260457 -1.02254 0)
(-0.31028 -1.03633 0)
(-0.369625 -1.05384 0)
(-0.440414 -1.06958 0)
(-0.524644 -1.08639 0)
(-0.624901 -1.10022 0)
(-0.7437 -1.10716 0)
(-0.884288 -1.10796 0)
(-1.0498 -1.09106 0)
(-0.00370154 -0.931712 0)
(-0.0112423 -0.932183 0)
(-0.0191973 -0.932771 0)
(-0.0278662 -0.934108 0)
(-0.037517 -0.934986 0)
(-0.0484916 -0.937158 0)
(-0.0610794 -0.938638 0)
(-0.07567 -0.941732 0)
(-0.0926995 -0.94452 0)
(-0.112513 -0.94821 0)
(-0.135624 -0.952715 0)
(-0.162518 -0.956969 0)
(-0.19393 -0.96345 0)
(-0.230604 -0.968497 0)
(-0.273512 -0.976248 0)
(-0.32387 -0.981831 0)
(-0.383058 -0.989094 0)
(-0.452717 -0.993046 0)
(-0.534497 -0.995945 0)
(-0.630296 -0.993473 0)
(-0.741442 -0.982641 0)
(-0.869407 -0.962398 0)
(-1.01473 -0.924035 0)
(-0.00366776 -0.924288 0)
(-0.0111641 -0.924459 0)
(-0.0191384 -0.924449 0)
(-0.0279081 -0.924864 0)
(-0.0377448 -0.924602 0)
(-0.0489613 -0.925194 0)
(-0.0618245 -0.924973 0)
(-0.0766704 -0.925758 0)
(-0.0938703 -0.926032 0)
(-0.113775 -0.926713 0)
(-0.13693 -0.927641 0)
(-0.163863 -0.927867 0)
(-0.195266 -0.929336 0)
(-0.231787 -0.928955 0)
(-0.274221 -0.929919 0)
(-0.32347 -0.927944 0)
(-0.380502 -0.926061 0)
(-0.446424 -0.919692 0)
(-0.522316 -0.910699 0)
(-0.609408 -0.894762 0)
(-0.708437 -0.869962 0)
(-0.820119 -0.834054 0)
(-0.944232 -0.781407 0)
(-0.00366098 -0.916905 0)
(-0.0111571 -0.916739 0)
(-0.0191581 -0.916077 0)
(-0.0279781 -0.91552 0)
(-0.0378707 -0.914077 0)
(-0.0491162 -0.9131 0)
(-0.061983 -0.911159 0)
(-0.0767995 -0.909707 0)
(-0.0939507 -0.907501 0)
(-0.113803 -0.905223 0)
(-0.136833 -0.902645 0)
(-0.163486 -0.898932 0)
(-0.194351 -0.895607 0)
(-0.229994 -0.890067 0)
(-0.271091 -0.884759 0)
(-0.318414 -0.875942 0)
(-0.372721 -0.866051 0)
(-0.4348 -0.850936 0)
(-0.505315 -0.832181 0)
(-0.584912 -0.805612 0)
(-0.67366 -0.770242 0)
(-0.771446 -0.723093 0)
(-0.87733 -0.661045 0)
(-0.00332711 -0.909866 0)
(-0.0101705 -0.909334 0)
(-0.0175546 -0.907985 0)
(-0.0258082 -0.906417 0)
(-0.0351896 -0.903771 0)
(-0.045976 -0.901221 0)
(-0.0584421 -0.897532 0)
(-0.0728922 -0.893869 0)
(-0.0896783 -0.889175 0)
(-0.109092 -0.884024 0)
(-0.131472 -0.878139 0)
(-0.157181 -0.870738 0)
(-0.18677 -0.862963 0)
(-0.220774 -0.852627 0)
(-0.259721 -0.841659 0)
(-0.304118 -0.82676 0)
(-0.354457 -0.809952 0)
(-0.411227 -0.787473 0)
(-0.474789 -0.760768 0)
(-0.545429 -0.725898 0)
(-0.622913 -0.682746 0)
(-0.70676 -0.627892 0)
(-0.795747 -0.560236 0)
(-0.00288586 -0.903607 0)
(-0.00886524 -0.902676 0)
(-0.0154286 -0.900595 0)
(-0.0229159 -0.897954 0)
(-0.0316001 -0.894041 0)
(-0.0417634 -0.889856 0)
(-0.0536663 -0.884362 0)
(-0.067526 -0.87854 0)
(-0.0835764 -0.871451 0)
(-0.102077 -0.863585 0)
(-0.123379 -0.854613 0)
(-0.147811 -0.843802 0)
(-0.175811 -0.831945 0)
(-0.207814 -0.817223 0)
(-0.244233 -0.801228 0)
(-0.285444 -0.781057 0)
(-0.331774 -0.758395 0)
(-0.383521 -0.729857 0)
(-0.440807 -0.69681 0)
(-0.503603 -0.655623 0)
(-0.571456 -0.606821 0)
(-0.643673 -0.546829 0)
(-0.718987 -0.476025 0)
(-0.00239434 -0.898287 0)
(-0.00735929 -0.896969 0)
(-0.0128216 -0.894187 0)
(-0.0190912 -0.890506 0)
(-0.0264565 -0.885327 0)
(-0.0352403 -0.879493 0)
(-0.0457681 -0.872143 0)
(-0.058328 -0.864163 0)
(-0.0731903 -0.854711 0)
(-0.0905992 -0.844181 0)
(-0.110795 -0.832252 0)
(-0.133897 -0.818325 0)
(-0.160085 -0.802891 0)
(-0.189646 -0.784327 0)
(-0.222987 -0.76393 0)
(-0.260432 -0.739214 0)
(-0.302174 -0.711626 0)
(-0.348348 -0.678111 0)
(-0.398917 -0.640049 0)
(-0.453689 -0.594107 0)
(-0.512113 -0.541301 0)
(-0.573379 -0.478067 0)
(-0.636228 -0.405794 0)
(-0.00170549 -0.894154 0)
(-0.00527124 -0.892504 0)
(-0.0092784 -0.88911 0)
(-0.0140236 -0.884486 0)
(-0.0198033 -0.878107 0)
(-0.0269516 -0.870668 0)
(-0.0358229 -0.861435 0)
(-0.0467662 -0.85121 0)
(-0.0600875 -0.839294 0)
(-0.0759634 -0.826096 0)
(-0.094535 -0.811321 0)
(-0.115901 -0.794505 0)
(-0.140193 -0.775911 0)
(-0.167518 -0.754062 0)
(-0.198039 -0.729935 0)
(-0.231959 -0.701401 0)
(-0.269421 -0.669747 0)
(-0.310469 -0.632233 0)
(-0.354987 -0.59026 0)
(-0.402722 -0.540767 0)
(-0.453127 -0.485153 0)
(-0.505391 -0.42 0)
(-0.558384 -0.347316 0)
(-0.00122574 -0.891198 0)
(-0.00377263 -0.889296 0)
(-0.00662187 -0.885405 0)
(-0.0100477 -0.879955 0)
(-0.014343 -0.872487 0)
(-0.0198082 -0.863584 0)
(-0.0267414 -0.852605 0)
(-0.0354473 -0.840257 0)
(-0.0462533 -0.825959 0)
(-0.0594748 -0.810144 0)
(-0.0754218 -0.792532 0)
(-0.094287 -0.772807 0)
(-0.116154 -0.751159 0)
(-0.140924 -0.726394 0)
(-0.168477 -0.699169 0)
(-0.198791 -0.667535 0)
(-0.231888 -0.63262 0)
(-0.267774 -0.591955 0)
(-0.306327 -0.546959 0)
(-0.347277 -0.494842 0)
(-0.390102 -0.437278 0)
(-0.43406 -0.371065 0)
(-0.478163 -0.298558 0)
(-0.000665902 -0.889289 0)
(-0.00208764 -0.8872 0)
(-0.00377901 -0.88292 0)
(-0.00595837 -0.876787 0)
(-0.00885663 -0.868403 0)
(-0.0127055 -0.858283 0)
(-0.0177474 -0.845844 0)
(-0.0242547 -0.831698 0)
(-0.0325504 -0.815286 0)
(-0.0429658 -0.797023 0)
(-0.0558109 -0.776674 0)
(-0.0713077 -0.754083 0)
(-0.0896516 -0.729417 0)
(-0.110961 -0.701769 0)
(-0.135216 -0.671665 0)
(-0.162206 -0.637381 0)
(-0.191632 -0.599864 0)
(-0.223209 -0.556834 0)
(-0.256674 -0.50962 0)
(-0.291798 -0.455641 0)
(-0.328203 -0.396763 0)
(-0.365284 -0.330042 0)
(-0.402221 -0.258038 0)
(-0.000403365 -0.888207 0)
(-0.00128766 -0.885949 0)
(-0.00240305 -0.881334 0)
(-0.00390285 -0.874659 0)
(-0.00593731 -0.865556 0)
(-0.00865892 -0.854506 0)
(-0.0122249 -0.840947 0)
(-0.0168129 -0.82542 0)
(-0.0226354 -0.807348 0)
(-0.0299436 -0.787117 0)
(-0.0390625 -0.76447 0)
(-0.0503421 -0.739336 0)
(-0.0641118 -0.711845 0)
(-0.0806077 -0.681298 0)
(-0.0999539 -0.648263 0)
(-0.122117 -0.611327 0)
(-0.146892 -0.571383 0)
(-0.173906 -0.526366 0)
(-0.202657 -0.477491 0)
(-0.232644 -0.42226 0)
(-0.263404 -0.362567 0)
(-0.294442 -0.295698 0)
(-0.325168 -0.224297 0)
(-0.000199958 -0.887595 0)
(-0.000691312 -0.885167 0)
(-0.00139746 -0.880274 0)
(-0.00237966 -0.873213 0)
(-0.00370604 -0.863611 0)
(-0.00546086 -0.851937 0)
(-0.00774624 -0.837618 0)
(-0.0106799 -0.821169 0)
(-0.0144016 -0.801984 0)
(-0.0190919 -0.780398 0)
(-0.0249986 -0.756061 0)
(-0.0323975 -0.728942 0)
(-0.0415739 -0.699143 0)
(-0.0528284 -0.666071 0)
(-0.0664691 -0.630294 0)
(-0.0827489 -0.590613 0)
(-0.101787 -0.548013 0)
(-0.123488 -0.500723 0)
(-0.147469 -0.450079 0)
(-0.173047 -0.393767 0)
(-0.199402 -0.333596 0)
(-0.225728 -0.266952 0)
(-0.251345 -0.19635 0)
(-0.000186164 -0.887203 0)
(-0.000648961 -0.884592 0)
(-0.00131096 -0.879465 0)
(-0.00219195 -0.872139 0)
(-0.00330486 -0.862222 0)
(-0.00467463 -0.850173 0)